   4   4   1   0
  0.2191964E+02  0.4442538E-09  0.4442538E-09  0.4442538E-09  0.5000000E-15
  1.000000000000000E-004
  CAR 
 unknown system                          
     15.55109127     -1.30140455  301      5.40091256      1.00000000
     -1.301  0.0000E+00  0.0000E+00  0.0000E+00  0.0000E+00
     -1.245  0.0000E+00  0.0000E+00  0.0000E+00  0.0000E+00
     -1.189  0.0000E+00  0.0000E+00  0.0000E+00  0.0000E+00
     -1.133  0.0000E+00  0.0000E+00  0.0000E+00  0.0000E+00
     -1.077  0.0000E+00  0.0000E+00  0.0000E+00  0.0000E+00
     -1.021  0.0000E+00  0.0000E+00  0.0000E+00  0.0000E+00
     -0.964  0.1239E-03  0.1230E-03  0.6959E-05  0.6910E-05
     -0.908  0.2570E-03  0.2552E-03  0.2139E-04  0.2124E-04
     -0.852  0.7891E-03  0.7836E-03  0.6572E-04  0.6526E-04
     -0.796  0.2415E-02  0.2398E-02  0.2014E-03  0.2000E-03
     -0.740  0.7318E-02  0.7268E-02  0.6125E-03  0.6083E-03
     -0.683  0.2152E-01  0.2138E-01  0.1821E-02  0.1809E-02
     -0.627  0.5806E-01  0.5773E-01  0.5083E-02  0.5052E-02
     -0.571  0.1261E+00  0.1256E+00  0.1217E-01  0.1211E-01
     -0.515  0.1799E+00  0.1798E+00  0.2227E-01  0.2221E-01
     -0.459  0.1470E+00  0.1474E+00  0.3053E-01  0.3049E-01
     -0.403  0.7664E-01  0.7701E-01  0.3484E-01  0.3482E-01
     -0.346  0.3701E-01  0.3713E-01  0.3691E-01  0.3690E-01
     -0.290  0.3541E-01  0.3530E-01  0.3890E-01  0.3889E-01
     -0.234  0.7783E-01  0.7738E-01  0.4328E-01  0.4323E-01
     -0.178  0.1986E+00  0.1975E+00  0.5443E-01  0.5433E-01
     -0.122  0.4099E+00  0.4086E+00  0.7749E-01  0.7731E-01
     -0.066  0.5438E+00  0.5438E+00  0.1080E+00  0.1079E+00
     -0.009  0.4160E+00  0.4174E+00  0.1314E+00  0.1313E+00
      0.047  0.2198E+00  0.2207E+00  0.1438E+00  0.1437E+00
      0.103  0.1440E+00  0.1441E+00  0.1518E+00  0.1518E+00
      0.159  0.2221E+00  0.2214E+00  0.1643E+00  0.1642E+00
      0.215  0.4891E+00  0.4877E+00  0.1918E+00  0.1916E+00
      0.271  0.9229E+00  0.9217E+00  0.2436E+00  0.2434E+00
      0.328  0.1464E+01  0.1464E+01  0.3259E+00  0.3257E+00
      0.384  0.2286E+01  0.2286E+01  0.4544E+00  0.4541E+00
      0.440  0.3388E+01  0.3386E+01  0.6447E+00  0.6443E+00
      0.496  0.4833E+01  0.4831E+01  0.9162E+00  0.9157E+00
      0.552  0.6748E+01  0.6745E+01  0.1295E+01  0.1295E+01
      0.609  0.8460E+01  0.8458E+01  0.1770E+01  0.1770E+01
      0.665  0.9303E+01  0.9303E+01  0.2293E+01  0.2292E+01
      0.721  0.9416E+01  0.9416E+01  0.2822E+01  0.2821E+01
      0.777  0.9515E+01  0.9516E+01  0.3357E+01  0.3356E+01
      0.833  0.9340E+01  0.9342E+01  0.3882E+01  0.3881E+01
      0.889  0.8300E+01  0.8302E+01  0.4348E+01  0.4347E+01
      0.946  0.7436E+01  0.7437E+01  0.4766E+01  0.4765E+01
      1.002  0.7185E+01  0.7184E+01  0.5170E+01  0.5169E+01
      1.058  0.7284E+01  0.7283E+01  0.5580E+01  0.5579E+01
      1.114  0.7469E+01  0.7470E+01  0.6000E+01  0.5999E+01
      1.170  0.8072E+01  0.8074E+01  0.6453E+01  0.6453E+01
      1.226  0.8698E+01  0.8701E+01  0.6942E+01  0.6942E+01
      1.283  0.8413E+01  0.8415E+01  0.7415E+01  0.7415E+01
      1.339  0.8028E+01  0.8029E+01  0.7867E+01  0.7866E+01
      1.395  0.9126E+01  0.9126E+01  0.8379E+01  0.8379E+01
      1.451  0.1118E+02  0.1118E+02  0.9008E+01  0.9008E+01
      1.507  0.1243E+02  0.1243E+02  0.9706E+01  0.9706E+01
      1.564  0.1168E+02  0.1168E+02  0.1036E+02  0.1036E+02
      1.620  0.1010E+02  0.1010E+02  0.1093E+02  0.1093E+02
      1.676  0.9121E+01  0.9121E+01  0.1144E+02  0.1144E+02
      1.732  0.8504E+01  0.8504E+01  0.1192E+02  0.1192E+02
      1.788  0.8217E+01  0.8216E+01  0.1238E+02  0.1238E+02
      1.844  0.8562E+01  0.8561E+01  0.1286E+02  0.1286E+02
      1.901  0.9555E+01  0.9553E+01  0.1340E+02  0.1340E+02
      1.957  0.1061E+02  0.1061E+02  0.1400E+02  0.1400E+02
      2.013  0.1090E+02  0.1090E+02  0.1461E+02  0.1461E+02
      2.069  0.1032E+02  0.1032E+02  0.1519E+02  0.1519E+02
      2.125  0.9177E+01  0.9179E+01  0.1571E+02  0.1571E+02
      2.181  0.8647E+01  0.8649E+01  0.1619E+02  0.1619E+02
      2.238  0.8907E+01  0.8908E+01  0.1669E+02  0.1669E+02
      2.294  0.8948E+01  0.8949E+01  0.1720E+02  0.1720E+02
      2.350  0.8747E+01  0.8749E+01  0.1769E+02  0.1769E+02
      2.406  0.9353E+01  0.9355E+01  0.1821E+02  0.1821E+02
      2.462  0.1061E+02  0.1061E+02  0.1881E+02  0.1881E+02
      2.518  0.1040E+02  0.1040E+02  0.1939E+02  0.1939E+02
      2.575  0.8549E+01  0.8549E+01  0.1988E+02  0.1988E+02
      2.631  0.6331E+01  0.6330E+01  0.2023E+02  0.2023E+02
      2.687  0.4139E+01  0.4138E+01  0.2046E+02  0.2046E+02
      2.743  0.2391E+01  0.2391E+01  0.2060E+02  0.2060E+02
      2.799  0.1354E+01  0.1354E+01  0.2067E+02  0.2067E+02
      2.856  0.7092E+00  0.7101E+00  0.2072E+02  0.2072E+02
      2.912  0.3146E+00  0.3152E+00  0.2073E+02  0.2073E+02
      2.968  0.1655E+00  0.1655E+00  0.2074E+02  0.2074E+02
      3.024  0.1937E+00  0.1932E+00  0.2075E+02  0.2075E+02
      3.080  0.3685E+00  0.3676E+00  0.2077E+02  0.2077E+02
      3.136  0.5374E+00  0.5371E+00  0.2080E+02  0.2080E+02
      3.193  0.4571E+00  0.4579E+00  0.2083E+02  0.2083E+02
      3.249  0.2439E+00  0.2447E+00  0.2084E+02  0.2084E+02
      3.305  0.1116E+00  0.1120E+00  0.2085E+02  0.2085E+02
      3.361  0.8738E-01  0.8735E-01  0.2086E+02  0.2086E+02
      3.417  0.1635E+00  0.1631E+00  0.2086E+02  0.2086E+02
      3.473  0.3636E+00  0.3627E+00  0.2089E+02  0.2089E+02
      3.530  0.6105E+00  0.6097E+00  0.2092E+02  0.2092E+02
      3.586  0.7132E+00  0.7126E+00  0.2096E+02  0.2096E+02
      3.642  0.7642E+00  0.7634E+00  0.2100E+02  0.2100E+02
      3.698  0.8688E+00  0.8684E+00  0.2105E+02  0.2105E+02
      3.754  0.9783E+00  0.9779E+00  0.2111E+02  0.2111E+02
      3.811  0.1173E+01  0.1172E+01  0.2117E+02  0.2117E+02
      3.867  0.1110E+01  0.1111E+01  0.2123E+02  0.2123E+02
      3.923  0.6661E+00  0.6680E+00  0.2127E+02  0.2127E+02
      3.979  0.2876E+00  0.2887E+00  0.2129E+02  0.2129E+02
      4.035  0.1182E+00  0.1185E+00  0.2129E+02  0.2129E+02
      4.091  0.8407E-01  0.8394E-01  0.2130E+02  0.2130E+02
      4.148  0.1528E+00  0.1521E+00  0.2131E+02  0.2131E+02
      4.204  0.3367E+00  0.3355E+00  0.2133E+02  0.2133E+02
      4.260  0.5499E+00  0.5490E+00  0.2136E+02  0.2136E+02
      4.316  0.5641E+00  0.5643E+00  0.2139E+02  0.2139E+02
      4.372  0.4223E+00  0.4227E+00  0.2141E+02  0.2141E+02
      4.428  0.2884E+00  0.2892E+00  0.2143E+02  0.2143E+02
      4.485  0.1603E+00  0.1612E+00  0.2144E+02  0.2144E+02
      4.541  0.7134E-01  0.7183E-01  0.2144E+02  0.2144E+02
      4.597  0.3774E-01  0.3788E-01  0.2144E+02  0.2144E+02
      4.653  0.4984E-01  0.4970E-01  0.2145E+02  0.2145E+02
      4.709  0.1268E+00  0.1261E+00  0.2145E+02  0.2145E+02
      4.765  0.3517E+00  0.3501E+00  0.2147E+02  0.2147E+02
      4.822  0.8427E+00  0.8397E+00  0.2152E+02  0.2152E+02
      4.878  0.1455E+01  0.1452E+01  0.2160E+02  0.2160E+02
      4.934  0.1534E+01  0.1536E+01  0.2169E+02  0.2169E+02
      4.990  0.1010E+01  0.1012E+01  0.2175E+02  0.2175E+02
      5.046  0.5865E+00  0.5874E+00  0.2178E+02  0.2178E+02
      5.103  0.5935E+00  0.5919E+00  0.2181E+02  0.2181E+02
      5.159  0.9266E+00  0.9242E+00  0.2186E+02  0.2186E+02
      5.215  0.1095E+01  0.1096E+01  0.2193E+02  0.2193E+02
      5.271  0.7655E+00  0.7685E+00  0.2197E+02  0.2197E+02
      5.327  0.3566E+00  0.3586E+00  0.2199E+02  0.2199E+02
      5.383  0.1518E+00  0.1525E+00  0.2200E+02  0.2200E+02
      5.440  0.1114E+00  0.1112E+00  0.2200E+02  0.2200E+02
      5.496  0.2090E+00  0.2080E+00  0.2202E+02  0.2202E+02
      5.552  0.5056E+00  0.5031E+00  0.2204E+02  0.2204E+02
      5.608  0.9906E+00  0.9874E+00  0.2210E+02  0.2210E+02
      5.664  0.1286E+01  0.1285E+01  0.2217E+02  0.2217E+02
      5.720  0.1156E+01  0.1156E+01  0.2224E+02  0.2224E+02
      5.777  0.8650E+00  0.8671E+00  0.2229E+02  0.2229E+02
      5.833  0.5040E+00  0.5073E+00  0.2231E+02  0.2231E+02
      5.889  0.2219E+00  0.2241E+00  0.2233E+02  0.2233E+02
      5.945  0.8957E-01  0.9041E-01  0.2233E+02  0.2233E+02
      6.001  0.5733E-01  0.5746E-01  0.2234E+02  0.2234E+02
      6.058  0.9670E-01  0.9627E-01  0.2234E+02  0.2234E+02
      6.114  0.2424E+00  0.2412E+00  0.2235E+02  0.2235E+02
      6.170  0.5226E+00  0.5209E+00  0.2238E+02  0.2238E+02
      6.226  0.8073E+00  0.8065E+00  0.2243E+02  0.2243E+02
      6.282  0.8904E+00  0.8909E+00  0.2248E+02  0.2248E+02
      6.338  0.7433E+00  0.7445E+00  0.2252E+02  0.2252E+02
      6.395  0.4868E+00  0.4875E+00  0.2255E+02  0.2255E+02
      6.451  0.3888E+00  0.3878E+00  0.2257E+02  0.2257E+02
      6.507  0.5161E+00  0.5142E+00  0.2260E+02  0.2260E+02
      6.563  0.6495E+00  0.6494E+00  0.2264E+02  0.2264E+02
      6.619  0.6472E+00  0.6482E+00  0.2267E+02  0.2267E+02
      6.675  0.7863E+00  0.7857E+00  0.2272E+02  0.2272E+02
      6.732  0.1095E+01  0.1094E+01  0.2278E+02  0.2278E+02
      6.788  0.1078E+01  0.1079E+01  0.2284E+02  0.2284E+02
      6.844  0.7355E+00  0.7363E+00  0.2288E+02  0.2288E+02
      6.900  0.5780E+00  0.5769E+00  0.2291E+02  0.2291E+02
      6.956  0.6526E+00  0.6513E+00  0.2295E+02  0.2295E+02
      7.012  0.6705E+00  0.6710E+00  0.2299E+02  0.2299E+02
      7.069  0.6846E+00  0.6839E+00  0.2302E+02  0.2302E+02
      7.125  0.9377E+00  0.9353E+00  0.2308E+02  0.2308E+02
      7.181  0.1123E+01  0.1124E+01  0.2314E+02  0.2314E+02
      7.237  0.8287E+00  0.8325E+00  0.2319E+02  0.2319E+02
      7.293  0.3966E+00  0.3995E+00  0.2321E+02  0.2321E+02
      7.350  0.1503E+00  0.1516E+00  0.2322E+02  0.2322E+02
      7.406  0.5360E-01  0.5403E-01  0.2322E+02  0.2322E+02
      7.462  0.2575E-01  0.2582E-01  0.2322E+02  0.2322E+02
      7.518  0.3287E-01  0.3267E-01  0.2322E+02  0.2322E+02
      7.574  0.8191E-01  0.8118E-01  0.2323E+02  0.2323E+02
      7.630  0.2318E+00  0.2298E+00  0.2324E+02  0.2324E+02
      7.687  0.5655E+00  0.5619E+00  0.2327E+02  0.2327E+02
      7.743  0.9897E+00  0.9870E+00  0.2333E+02  0.2333E+02
      7.799  0.1030E+01  0.1032E+01  0.2339E+02  0.2339E+02
      7.855  0.6363E+00  0.6400E+00  0.2342E+02  0.2342E+02
      7.911  0.3104E+00  0.3124E+00  0.2344E+02  0.2344E+02
      7.967  0.2362E+00  0.2367E+00  0.2345E+02  0.2345E+02
      8.024  0.4297E+00  0.4294E+00  0.2348E+02  0.2348E+02
      8.080  0.9485E+00  0.9475E+00  0.2353E+02  0.2353E+02
      8.136  0.1549E+01  0.1549E+01  0.2362E+02  0.2362E+02
      8.192  0.1501E+01  0.1501E+01  0.2370E+02  0.2370E+02
      8.248  0.9122E+00  0.9130E+00  0.2375E+02  0.2375E+02
      8.305  0.5448E+00  0.5447E+00  0.2378E+02  0.2378E+02
      8.361  0.6228E+00  0.6216E+00  0.2382E+02  0.2382E+02
      8.417  0.9788E+00  0.9775E+00  0.2387E+02  0.2387E+02
      8.473  0.1089E+01  0.1089E+01  0.2394E+02  0.2394E+02
      8.529  0.7494E+00  0.7510E+00  0.2398E+02  0.2398E+02
      8.585  0.4591E+00  0.4601E+00  0.2400E+02  0.2400E+02
      8.642  0.5163E+00  0.5166E+00  0.2403E+02  0.2403E+02
      8.698  0.8782E+00  0.8781E+00  0.2408E+02  0.2408E+02
      8.754  0.1140E+01  0.1140E+01  0.2415E+02  0.2415E+02
      8.810  0.9455E+00  0.9449E+00  0.2420E+02  0.2420E+02
      8.866  0.7416E+00  0.7400E+00  0.2424E+02  0.2424E+02
      8.922  0.9108E+00  0.9085E+00  0.2429E+02  0.2429E+02
      8.979  0.1129E+01  0.1128E+01  0.2436E+02  0.2436E+02
      9.035  0.8862E+00  0.8884E+00  0.2441E+02  0.2440E+02
      9.091  0.4437E+00  0.4457E+00  0.2443E+02  0.2443E+02
      9.147  0.1744E+00  0.1753E+00  0.2444E+02  0.2444E+02
      9.203  0.7529E-01  0.7558E-01  0.2444E+02  0.2444E+02
      9.259  0.6828E-01  0.6827E-01  0.2445E+02  0.2445E+02
      9.316  0.1294E+00  0.1292E+00  0.2446E+02  0.2446E+02
      9.372  0.2381E+00  0.2376E+00  0.2447E+02  0.2447E+02
      9.428  0.3680E+00  0.3669E+00  0.2449E+02  0.2449E+02
      9.484  0.6083E+00  0.6060E+00  0.2452E+02  0.2452E+02
      9.540  0.1025E+01  0.1022E+01  0.2458E+02  0.2458E+02
      9.597  0.1246E+01  0.1246E+01  0.2465E+02  0.2465E+02
      9.653  0.1155E+01  0.1157E+01  0.2472E+02  0.2472E+02
      9.709  0.1260E+01  0.1260E+01  0.2479E+02  0.2479E+02
      9.765  0.1462E+01  0.1462E+01  0.2487E+02  0.2487E+02
      9.821  0.1315E+01  0.1316E+01  0.2494E+02  0.2494E+02
      9.877  0.9106E+00  0.9115E+00  0.2499E+02  0.2499E+02
      9.934  0.4743E+00  0.4746E+00  0.2502E+02  0.2502E+02
      9.990  0.1923E+00  0.1924E+00  0.2503E+02  0.2503E+02
     10.046  0.7443E-01  0.7446E-01  0.2504E+02  0.2504E+02
     10.102  0.4511E-01  0.4507E-01  0.2504E+02  0.2504E+02
     10.158  0.7443E-01  0.7427E-01  0.2504E+02  0.2504E+02
     10.214  0.2008E+00  0.2004E+00  0.2505E+02  0.2505E+02
     10.271  0.5169E+00  0.5160E+00  0.2508E+02  0.2508E+02
     10.327  0.1046E+01  0.1045E+01  0.2514E+02  0.2514E+02
     10.383  0.1417E+01  0.1417E+01  0.2522E+02  0.2522E+02
     10.439  0.1313E+01  0.1314E+01  0.2530E+02  0.2529E+02
     10.495  0.9817E+00  0.9819E+00  0.2535E+02  0.2535E+02
     10.552  0.7591E+00  0.7586E+00  0.2539E+02  0.2539E+02
     10.608  0.6901E+00  0.6901E+00  0.2543E+02  0.2543E+02
     10.664  0.5122E+00  0.5132E+00  0.2546E+02  0.2546E+02
     10.720  0.2866E+00  0.2875E+00  0.2548E+02  0.2548E+02
     10.776  0.2084E+00  0.2085E+00  0.2549E+02  0.2549E+02
     10.832  0.3481E+00  0.3473E+00  0.2551E+02  0.2551E+02
     10.889  0.7482E+00  0.7468E+00  0.2555E+02  0.2555E+02
     10.945  0.1226E+01  0.1226E+01  0.2562E+02  0.2562E+02
     11.001  0.1386E+01  0.1389E+01  0.2570E+02  0.2570E+02
     11.057  0.1457E+01  0.1460E+01  0.2578E+02  0.2578E+02
     11.113  0.1756E+01  0.1759E+01  0.2588E+02  0.2588E+02
     11.169  0.1975E+01  0.1975E+01  0.2599E+02  0.2599E+02
     11.226  0.1563E+01  0.1561E+01  0.2608E+02  0.2608E+02
     11.282  0.8201E+00  0.8178E+00  0.2612E+02  0.2612E+02
     11.338  0.3556E+00  0.3544E+00  0.2614E+02  0.2614E+02
     11.394  0.2259E+00  0.2251E+00  0.2616E+02  0.2616E+02
     11.450  0.3204E+00  0.3195E+00  0.2617E+02  0.2617E+02
     11.506  0.5074E+00  0.5068E+00  0.2620E+02  0.2620E+02
     11.563  0.5176E+00  0.5180E+00  0.2623E+02  0.2623E+02
     11.619  0.3253E+00  0.3259E+00  0.2625E+02  0.2625E+02
     11.675  0.1791E+00  0.1793E+00  0.2626E+02  0.2626E+02
     11.731  0.1877E+00  0.1872E+00  0.2627E+02  0.2627E+02
     11.787  0.3888E+00  0.3873E+00  0.2629E+02  0.2629E+02
     11.844  0.8181E+00  0.8161E+00  0.2634E+02  0.2634E+02
     11.900  0.1410E+01  0.1408E+01  0.2642E+02  0.2642E+02
     11.956  0.2077E+01  0.2077E+01  0.2653E+02  0.2653E+02
     12.012  0.2296E+01  0.2298E+01  0.2666E+02  0.2666E+02
     12.068  0.1597E+01  0.1599E+01  0.2675E+02  0.2675E+02
     12.124  0.7834E+00  0.7845E+00  0.2680E+02  0.2680E+02
     12.181  0.4290E+00  0.4281E+00  0.2682E+02  0.2682E+02
     12.237  0.5128E+00  0.5093E+00  0.2685E+02  0.2685E+02
     12.293  0.9244E+00  0.9196E+00  0.2690E+02  0.2690E+02
     12.349  0.1310E+01  0.1309E+01  0.2697E+02  0.2697E+02
     12.405  0.1401E+01  0.1405E+01  0.2705E+02  0.2705E+02
     12.461  0.1682E+01  0.1685E+01  0.2715E+02  0.2715E+02
     12.518  0.2116E+01  0.2118E+01  0.2727E+02  0.2727E+02
     12.574  0.1923E+01  0.1925E+01  0.2738E+02  0.2738E+02
     12.630  0.1142E+01  0.1143E+01  0.2744E+02  0.2744E+02
     12.686  0.4928E+00  0.4932E+00  0.2747E+02  0.2747E+02
     12.742  0.1881E+00  0.1881E+00  0.2748E+02  0.2748E+02
     12.799  0.9948E-01  0.9929E-01  0.2748E+02  0.2748E+02
     12.855  0.1344E+00  0.1339E+00  0.2749E+02  0.2749E+02
     12.911  0.2859E+00  0.2848E+00  0.2751E+02  0.2751E+02
     12.967  0.4937E+00  0.4929E+00  0.2753E+02  0.2753E+02
     13.023  0.5159E+00  0.5164E+00  0.2756E+02  0.2756E+02
     13.079  0.3199E+00  0.3208E+00  0.2758E+02  0.2758E+02
     13.136  0.1571E+00  0.1571E+00  0.2759E+02  0.2759E+02
     13.192  0.1196E+00  0.1183E+00  0.2760E+02  0.2760E+02
     13.248  0.2092E+00  0.2052E+00  0.2761E+02  0.2761E+02
     13.304  0.4176E+00  0.4094E+00  0.2763E+02  0.2763E+02
     13.360  0.5852E+00  0.5700E+00  0.2767E+02  0.2766E+02
     13.416  0.5443E+00  0.5046E+00  0.2770E+02  0.2769E+02
     13.473  0.5440E+00  0.4402E+00  0.2773E+02  0.2772E+02
     13.529  0.8209E+00  0.6451E+00  0.2777E+02  0.2775E+02
     13.585  0.1101E+01  0.1016E+01  0.2783E+02  0.2781E+02
     13.641  0.8998E+00  0.1035E+01  0.2789E+02  0.2787E+02
     13.697  0.4629E+00  0.6277E+00  0.2791E+02  0.2790E+02
     13.753  0.1919E+00  0.2770E+00  0.2792E+02  0.2792E+02
     13.810  0.1033E+00  0.1357E+00  0.2793E+02  0.2793E+02
     13.866  0.1208E+00  0.1318E+00  0.2793E+02  0.2793E+02
     13.922  0.1757E+00  0.1792E+00  0.2794E+02  0.2794E+02
     13.978  0.1667E+00  0.1702E+00  0.2795E+02  0.2795E+02
     14.034  0.9698E-01  0.9717E-01  0.2796E+02  0.2796E+02
     14.091  0.4017E-01  0.4027E-01  0.2796E+02  0.2796E+02
     14.147  0.1425E-01  0.1429E-01  0.2796E+02  0.2796E+02
     14.203  0.4771E-02  0.4785E-02  0.2796E+02  0.2796E+02
     14.259  0.1566E-02  0.1571E-02  0.2796E+02  0.2796E+02
     14.315  0.5109E-03  0.5124E-03  0.2796E+02  0.2796E+02
     14.371  0.1815E-03  0.1683E-03  0.2796E+02  0.2796E+02
     14.428  0.3763E-03  0.3490E-03  0.2796E+02  0.2796E+02
     14.484  0.1155E-02  0.1071E-02  0.2796E+02  0.2796E+02
     14.540  0.3526E-02  0.3273E-02  0.2796E+02  0.2796E+02
     14.596  0.1061E-01  0.9864E-02  0.2796E+02  0.2796E+02
     14.652  0.3058E-01  0.2856E-01  0.2797E+02  0.2797E+02
     14.708  0.7816E-01  0.7387E-01  0.2797E+02  0.2797E+02
     14.765  0.1506E+00  0.1461E+00  0.2798E+02  0.2798E+02
     14.821  0.1783E+00  0.1795E+00  0.2799E+02  0.2799E+02
     14.877  0.1210E+00  0.1261E+00  0.2800E+02  0.2799E+02
     14.933  0.5458E-01  0.5806E-01  0.2800E+02  0.2800E+02
     14.989  0.2005E-01  0.2152E-01  0.2800E+02  0.2800E+02
     15.046  0.6798E-02  0.7318E-02  0.2800E+02  0.2800E+02
     15.102  0.2241E-02  0.2415E-02  0.2800E+02  0.2800E+02
     15.158  0.7319E-03  0.7891E-03  0.2800E+02  0.2800E+02
     15.214  0.0000E+00  0.0000E+00  0.2800E+02  0.2800E+02
     15.270  0.0000E+00  0.0000E+00  0.2800E+02  0.2800E+02
     15.326  0.0000E+00  0.0000E+00  0.2800E+02  0.2800E+02
     15.383  0.0000E+00  0.0000E+00  0.2800E+02  0.2800E+02
     15.439  0.0000E+00  0.0000E+00  0.2800E+02  0.2800E+02
     15.495  0.0000E+00  0.0000E+00  0.2800E+02  0.2800E+02
     15.551  0.0000E+00  0.0000E+00  0.2800E+02  0.2800E+02
     15.55109127     -1.30140455  301      5.40091256      1.00000000
     -1.301  0.0000E+00  0.0000E+00  0.0000E+00  0.0000E+00  0.0000E+00  0.0000E+00  0.0000E+00  0.0000E+00  0.0000E+00  0.0000E+00  0.0000E+00  0.0000E+00  0.0000E+00  0.0000E+00  0.0000E+00  0.0000E+00  0.0000E+00  0.0000E+00
     -1.245  0.0000E+00  0.0000E+00  0.0000E+00  0.0000E+00  0.0000E+00  0.0000E+00  0.0000E+00  0.0000E+00  0.0000E+00  0.0000E+00  0.0000E+00  0.0000E+00  0.0000E+00  0.0000E+00  0.0000E+00  0.0000E+00  0.0000E+00  0.0000E+00
     -1.189  0.0000E+00  0.0000E+00  0.0000E+00  0.0000E+00  0.0000E+00  0.0000E+00  0.0000E+00  0.0000E+00  0.0000E+00  0.0000E+00  0.0000E+00  0.0000E+00  0.0000E+00  0.0000E+00  0.0000E+00  0.0000E+00  0.0000E+00  0.0000E+00
     -1.133  0.0000E+00  0.0000E+00  0.0000E+00  0.0000E+00  0.0000E+00  0.0000E+00  0.0000E+00  0.0000E+00  0.0000E+00  0.0000E+00  0.0000E+00  0.0000E+00  0.0000E+00  0.0000E+00  0.0000E+00  0.0000E+00  0.0000E+00  0.0000E+00
     -1.077  0.0000E+00  0.0000E+00  0.0000E+00  0.0000E+00  0.0000E+00  0.0000E+00  0.0000E+00  0.0000E+00  0.0000E+00  0.0000E+00  0.0000E+00  0.0000E+00  0.0000E+00  0.0000E+00  0.0000E+00  0.0000E+00  0.0000E+00  0.0000E+00
     -1.021  0.0000E+00  0.0000E+00  0.0000E+00  0.0000E+00  0.0000E+00  0.0000E+00  0.0000E+00  0.0000E+00  0.0000E+00  0.0000E+00  0.0000E+00  0.0000E+00  0.0000E+00  0.0000E+00  0.0000E+00  0.0000E+00  0.0000E+00  0.0000E+00
     -0.964  0.1363E-04  0.1354E-04  0.7118E-07  0.7067E-07  0.7118E-07  0.7067E-07  0.7118E-07  0.7067E-07  0.1747E-07  0.1737E-07  0.1747E-07  0.1737E-07  0.6008E-20  0.1450E-20  0.1747E-07  0.1737E-07  0.6008E-20  0.1450E-20
     -0.908  0.2827E-04  0.2808E-04  0.1476E-06  0.1466E-06  0.1476E-06  0.1466E-06  0.1476E-06  0.1466E-06  0.3624E-07  0.3602E-07  0.3624E-07  0.3602E-07  0.1246E-19  0.3007E-20  0.3624E-07  0.3602E-07  0.1246E-19  0.3007E-20
     -0.852  0.8681E-04  0.8622E-04  0.4534E-06  0.4502E-06  0.4534E-06  0.4502E-06  0.4534E-06  0.4502E-06  0.1113E-06  0.1106E-06  0.1113E-06  0.1106E-06  0.3827E-19  0.9233E-20  0.1113E-06  0.1106E-06  0.3827E-19  0.9233E-20
     -0.796  0.2657E-03  0.2639E-03  0.1388E-05  0.1378E-05  0.1388E-05  0.1378E-05  0.1388E-05  0.1378E-05  0.3406E-06  0.3386E-06  0.3406E-06  0.3386E-06  0.1171E-18  0.2826E-19  0.3406E-06  0.3386E-06  0.1171E-18  0.2826E-19
     -0.740  0.8051E-03  0.7997E-03  0.4205E-05  0.4176E-05  0.4205E-05  0.4176E-05  0.4205E-05  0.4176E-05  0.1032E-05  0.1026E-05  0.1032E-05  0.1026E-05  0.3549E-18  0.8564E-19  0.1032E-05  0.1026E-05  0.3549E-18  0.8564E-19
     -0.683  0.2367E-02  0.2352E-02  0.1236E-04  0.1228E-04  0.1236E-04  0.1228E-04  0.1236E-04  0.1228E-04  0.3035E-05  0.3018E-05  0.3035E-05  0.3018E-05  0.1044E-17  0.2519E-18  0.3035E-05  0.3018E-05  0.1044E-17  0.2519E-18
     -0.627  0.6387E-02  0.6352E-02  0.3336E-04  0.3317E-04  0.3336E-04  0.3317E-04  0.3336E-04  0.3317E-04  0.8189E-05  0.8149E-05  0.8189E-05  0.8149E-05  0.2816E-17  0.6802E-18  0.8189E-05  0.8149E-05  0.2816E-17  0.6802E-18
     -0.571  0.1387E-01  0.1382E-01  0.7246E-04  0.7218E-04  0.7246E-04  0.7218E-04  0.7246E-04  0.7218E-04  0.1779E-04  0.1774E-04  0.1779E-04  0.1774E-04  0.6116E-17  0.1480E-17  0.1779E-04  0.1774E-04  0.6116E-17  0.1480E-17
     -0.515  0.1979E-01  0.1978E-01  0.1040E-03  0.1039E-03  0.1040E-03  0.1039E-03  0.1040E-03  0.1039E-03  0.2585E-04  0.2586E-04  0.2585E-04  0.2586E-04  0.4476E-06  0.4446E-06  0.2585E-04  0.2586E-04  0.4476E-06  0.4446E-06
     -0.459  0.1616E-01  0.1621E-01  0.8569E-04  0.8593E-04  0.8569E-04  0.8593E-04  0.8569E-04  0.8593E-04  0.2171E-04  0.2178E-04  0.2171E-04  0.2178E-04  0.9283E-06  0.9222E-06  0.2171E-04  0.2178E-04  0.9283E-06  0.9222E-06
     -0.403  0.8412E-02  0.8455E-02  0.4785E-04  0.4804E-04  0.4785E-04  0.4804E-04  0.4785E-04  0.4804E-04  0.1382E-04  0.1386E-04  0.1382E-04  0.1386E-04  0.2850E-05  0.2831E-05  0.1382E-04  0.1386E-04  0.2850E-05  0.2831E-05
     -0.346  0.4012E-02  0.4027E-02  0.3295E-04  0.3294E-04  0.3295E-04  0.3294E-04  0.3295E-04  0.3294E-04  0.1442E-04  0.1439E-04  0.1442E-04  0.1439E-04  0.8715E-05  0.8658E-05  0.1442E-04  0.1439E-04  0.8715E-05  0.8658E-05
     -0.290  0.3716E-02  0.3706E-02  0.5568E-04  0.5538E-04  0.5568E-04  0.5538E-04  0.5568E-04  0.5538E-04  0.3280E-04  0.3263E-04  0.3280E-04  0.3263E-04  0.2634E-04  0.2617E-04  0.3280E-04  0.3263E-04  0.2634E-04  0.2617E-04
     -0.234  0.8039E-02  0.7993E-02  0.1479E-03  0.1469E-03  0.1479E-03  0.1469E-03  0.1479E-03  0.1469E-03  0.9215E-04  0.9166E-04  0.9215E-04  0.9166E-04  0.7689E-04  0.7643E-04  0.9215E-04  0.9166E-04  0.7689E-04  0.7643E-04
     -0.178  0.2045E-01  0.2035E-01  0.3875E-03  0.3854E-03  0.3875E-03  0.3854E-03  0.3875E-03  0.3854E-03  0.2456E-03  0.2445E-03  0.2456E-03  0.2445E-03  0.2036E-03  0.2025E-03  0.2456E-03  0.2445E-03  0.2036E-03  0.2025E-03
     -0.122  0.4221E-01  0.4207E-01  0.8031E-03  0.8003E-03  0.8031E-03  0.8003E-03  0.8031E-03  0.8003E-03  0.5094E-03  0.5082E-03  0.5094E-03  0.5082E-03  0.4225E-03  0.4212E-03  0.5094E-03  0.5082E-03  0.4225E-03  0.4212E-03
     -0.066  0.5594E-01  0.5595E-01  0.1065E-02  0.1065E-02  0.1065E-02  0.1065E-02  0.1065E-02  0.1065E-02  0.6979E-03  0.6984E-03  0.6979E-03  0.6984E-03  0.5794E-03  0.5795E-03  0.6979E-03  0.6984E-03  0.5794E-03  0.5795E-03
     -0.009  0.4265E-01  0.4279E-01  0.8163E-03  0.8189E-03  0.8163E-03  0.8189E-03  0.8163E-03  0.8189E-03  0.6136E-03  0.6154E-03  0.6136E-03  0.6154E-03  0.4662E-03  0.4676E-03  0.6136E-03  0.6154E-03  0.4662E-03  0.4676E-03
      0.047  0.2199E-01  0.2209E-01  0.4349E-03  0.4367E-03  0.4349E-03  0.4367E-03  0.4349E-03  0.4367E-03  0.6059E-03  0.6063E-03  0.6059E-03  0.6063E-03  0.3476E-03  0.3483E-03  0.6059E-03  0.6063E-03  0.3476E-03  0.3483E-03
      0.103  0.1282E-01  0.1284E-01  0.2938E-03  0.2939E-03  0.2938E-03  0.2939E-03  0.2938E-03  0.2939E-03  0.1188E-02  0.1186E-02  0.1188E-02  0.1186E-02  0.5751E-03  0.5742E-03  0.1188E-02  0.1186E-02  0.5751E-03  0.5742E-03
      0.159  0.1695E-01  0.1690E-01  0.4613E-03  0.4594E-03  0.4613E-03  0.4594E-03  0.4613E-03  0.4594E-03  0.3251E-02  0.3243E-02  0.3251E-02  0.3243E-02  0.1518E-02  0.1514E-02  0.3251E-02  0.3243E-02  0.1518E-02  0.1514E-02
      0.215  0.3403E-01  0.3392E-01  0.9643E-03  0.9607E-03  0.9643E-03  0.9607E-03  0.9643E-03  0.9607E-03  0.8698E-02  0.8683E-02  0.8698E-02  0.8683E-02  0.4434E-02  0.4422E-02  0.8698E-02  0.8683E-02  0.4434E-02  0.4422E-02
      0.271  0.5456E-01  0.5450E-01  0.1535E-02  0.1532E-02  0.1535E-02  0.1532E-02  0.1535E-02  0.1532E-02  0.2056E-01  0.2054E-01  0.2056E-01  0.2054E-01  0.1239E-01  0.1236E-01  0.2056E-01  0.2054E-01  0.1239E-01  0.1236E-01
      0.328  0.5919E-01  0.5925E-01  0.1608E-02  0.1609E-02  0.1608E-02  0.1609E-02  0.1608E-02  0.1609E-02  0.4447E-01  0.4445E-01  0.4447E-01  0.4445E-01  0.3097E-01  0.3091E-01  0.4447E-01  0.4445E-01  0.3097E-01  0.3091E-01
      0.384  0.5535E-01  0.5541E-01  0.1464E-02  0.1465E-02  0.1464E-02  0.1465E-02  0.1464E-02  0.1465E-02  0.8702E-01  0.8699E-01  0.8702E-01  0.8699E-01  0.6140E-01  0.6133E-01  0.8702E-01  0.8699E-01  0.6140E-01  0.6133E-01
      0.440  0.5809E-01  0.5809E-01  0.1718E-02  0.1717E-02  0.1718E-02  0.1717E-02  0.1718E-02  0.1717E-02  0.1447E+00  0.1446E+00  0.1447E+00  0.1446E+00  0.9263E-01  0.9256E-01  0.1447E+00  0.1446E+00  0.9263E-01  0.9256E-01
      0.496  0.7411E-01  0.7403E-01  0.2713E-02  0.2709E-02  0.2713E-02  0.2709E-02  0.2713E-02  0.2709E-02  0.2116E+00  0.2116E+00  0.2116E+00  0.2116E+00  0.1330E+00  0.1329E+00  0.2116E+00  0.2116E+00  0.1330E+00  0.1329E+00
      0.552  0.1019E+00  0.1018E+00  0.4447E-02  0.4440E-02  0.4447E-02  0.4440E-02  0.4447E-02  0.4440E-02  0.2913E+00  0.2913E+00  0.2913E+00  0.2913E+00  0.1923E+00  0.1922E+00  0.2913E+00  0.2913E+00  0.1923E+00  0.1922E+00
      0.609  0.1207E+00  0.1207E+00  0.6138E-02  0.6134E-02  0.6138E-02  0.6134E-02  0.6138E-02  0.6134E-02  0.3740E+00  0.3739E+00  0.3740E+00  0.3739E+00  0.2349E+00  0.2348E+00  0.3740E+00  0.3739E+00  0.2349E+00  0.2348E+00
      0.665  0.1220E+00  0.1220E+00  0.7273E-02  0.7270E-02  0.7273E-02  0.7270E-02  0.7273E-02  0.7270E-02  0.4231E+00  0.4232E+00  0.4231E+00  0.4232E+00  0.2513E+00  0.2513E+00  0.4231E+00  0.4232E+00  0.2513E+00  0.2513E+00
      0.721  0.1183E+00  0.1184E+00  0.8098E-02  0.8095E-02  0.8098E-02  0.8095E-02  0.8098E-02  0.8095E-02  0.4219E+00  0.4220E+00  0.4219E+00  0.4220E+00  0.2684E+00  0.2684E+00  0.4219E+00  0.4220E+00  0.2684E+00  0.2684E+00
      0.777  0.1040E+00  0.1040E+00  0.8398E-02  0.8397E-02  0.8398E-02  0.8397E-02  0.8398E-02  0.8397E-02  0.4087E+00  0.4088E+00  0.4087E+00  0.4088E+00  0.3141E+00  0.3140E+00  0.4087E+00  0.4088E+00  0.3141E+00  0.3140E+00
      0.833  0.7954E-01  0.7961E-01  0.8092E-02  0.8092E-02  0.8092E-02  0.8092E-02  0.8092E-02  0.8092E-02  0.3899E+00  0.3900E+00  0.3899E+00  0.3900E+00  0.3491E+00  0.3491E+00  0.3899E+00  0.3900E+00  0.3491E+00  0.3491E+00
      0.889  0.5601E-01  0.5605E-01  0.7532E-02  0.7531E-02  0.7532E-02  0.7531E-02  0.7532E-02  0.7531E-02  0.3577E+00  0.3578E+00  0.3577E+00  0.3578E+00  0.3088E+00  0.3089E+00  0.3577E+00  0.3578E+00  0.3088E+00  0.3089E+00
      0.946  0.3805E-01  0.3808E-01  0.7437E-02  0.7436E-02  0.7437E-02  0.7436E-02  0.7437E-02  0.7436E-02  0.3370E+00  0.3371E+00  0.3370E+00  0.3371E+00  0.2640E+00  0.2640E+00  0.3370E+00  0.3371E+00  0.2640E+00  0.2640E+00
      1.002  0.2644E-01  0.2645E-01  0.7667E-02  0.7664E-02  0.7667E-02  0.7664E-02  0.7667E-02  0.7664E-02  0.3170E+00  0.3170E+00  0.3170E+00  0.3170E+00  0.2785E+00  0.2784E+00  0.3170E+00  0.3170E+00  0.2785E+00  0.2784E+00
      1.058  0.2193E-01  0.2194E-01  0.7962E-02  0.7960E-02  0.7962E-02  0.7960E-02  0.7962E-02  0.7960E-02  0.2858E+00  0.2858E+00  0.2858E+00  0.2858E+00  0.3412E+00  0.3412E+00  0.2858E+00  0.2858E+00  0.3412E+00  0.3412E+00
      1.114  0.2177E-01  0.2179E-01  0.7966E-02  0.7966E-02  0.7966E-02  0.7966E-02  0.7966E-02  0.7966E-02  0.2697E+00  0.2697E+00  0.2697E+00  0.2697E+00  0.3893E+00  0.3894E+00  0.2697E+00  0.2697E+00  0.3893E+00  0.3894E+00
      1.170  0.2415E-01  0.2417E-01  0.7684E-02  0.7686E-02  0.7684E-02  0.7686E-02  0.7684E-02  0.7686E-02  0.3077E+00  0.3078E+00  0.3077E+00  0.3078E+00  0.4043E+00  0.4044E+00  0.3077E+00  0.3078E+00  0.4043E+00  0.4044E+00
      1.226  0.2500E-01  0.2503E-01  0.6871E-02  0.6873E-02  0.6871E-02  0.6873E-02  0.6871E-02  0.6873E-02  0.3602E+00  0.3603E+00  0.3602E+00  0.3603E+00  0.4045E+00  0.4046E+00  0.3602E+00  0.3603E+00  0.4045E+00  0.4046E+00
      1.283  0.2071E-01  0.2072E-01  0.5686E-02  0.5687E-02  0.5686E-02  0.5687E-02  0.5686E-02  0.5687E-02  0.3617E+00  0.3618E+00  0.3617E+00  0.3618E+00  0.3827E+00  0.3827E+00  0.3617E+00  0.3618E+00  0.3827E+00  0.3827E+00
      1.339  0.1748E-01  0.1748E-01  0.5427E-02  0.5424E-02  0.5427E-02  0.5424E-02  0.5427E-02  0.5424E-02  0.3589E+00  0.3590E+00  0.3589E+00  0.3590E+00  0.3514E+00  0.3514E+00  0.3589E+00  0.3590E+00  0.3514E+00  0.3514E+00
      1.395  0.1984E-01  0.1984E-01  0.7024E-02  0.7020E-02  0.7024E-02  0.7020E-02  0.7024E-02  0.7020E-02  0.4278E+00  0.4278E+00  0.4278E+00  0.4278E+00  0.3713E+00  0.3713E+00  0.4278E+00  0.4278E+00  0.3713E+00  0.3713E+00
      1.451  0.2399E-01  0.2399E-01  0.9295E-02  0.9292E-02  0.9295E-02  0.9292E-02  0.9295E-02  0.9292E-02  0.5451E+00  0.5452E+00  0.5451E+00  0.5452E+00  0.4249E+00  0.4249E+00  0.5451E+00  0.5452E+00  0.4249E+00  0.4249E+00
      1.507  0.2612E-01  0.2612E-01  0.1037E-01  0.1037E-01  0.1037E-01  0.1037E-01  0.1037E-01  0.1037E-01  0.6236E+00  0.6236E+00  0.6236E+00  0.6236E+00  0.4498E+00  0.4498E+00  0.6236E+00  0.6236E+00  0.4498E+00  0.4498E+00