   4   4   1   0
  0.1955212E+02  0.4276462E-09  0.4276462E-09  0.4276462E-09  0.5000000E-15
  1.000000000000000E-004
  CAR 
 unknown system                          
     17.67769837     -0.79467161  301      6.64458595      1.00000000
     -0.795  0.0000E+00  0.0000E+00  0.0000E+00  0.0000E+00
     -0.733  0.0000E+00  0.0000E+00  0.0000E+00  0.0000E+00
     -0.672  0.0000E+00  0.0000E+00  0.0000E+00  0.0000E+00
     -0.610  0.0000E+00  0.0000E+00  0.0000E+00  0.0000E+00
     -0.548  0.0000E+00  0.0000E+00  0.0000E+00  0.0000E+00
     -0.487  0.0000E+00  0.0000E+00  0.0000E+00  0.0000E+00
     -0.425  0.0000E+00  0.0000E+00  0.0000E+00  0.0000E+00
     -0.364  0.1697E-03  0.1691E-03  0.1045E-04  0.1041E-04
     -0.302  0.4115E-03  0.4098E-03  0.3579E-04  0.3565E-04
     -0.241  0.1406E-02  0.1400E-02  0.1223E-03  0.1219E-03
     -0.179  0.4766E-02  0.4748E-02  0.4158E-03  0.4142E-03
     -0.117  0.1577E-01  0.1571E-01  0.1387E-02  0.1382E-02
     -0.056  0.4822E-01  0.4806E-01  0.4356E-02  0.4341E-02
      0.006  0.1178E+00  0.1176E+00  0.1161E-01  0.1158E-01
      0.067  0.1786E+00  0.1785E+00  0.2261E-01  0.2257E-01
      0.129  0.1404E+00  0.1406E+00  0.3125E-01  0.3123E-01
      0.191  0.6498E-01  0.6517E-01  0.3525E-01  0.3525E-01
      0.252  0.2669E-01  0.2675E-01  0.3690E-01  0.3689E-01
      0.314  0.2371E-01  0.2367E-01  0.3836E-01  0.3835E-01
      0.375  0.5812E-01  0.5791E-01  0.4194E-01  0.4192E-01
      0.437  0.1687E+00  0.1682E+00  0.5233E-01  0.5227E-01
      0.498  0.3901E+00  0.3893E+00  0.7636E-01  0.7626E-01
      0.560  0.5395E+00  0.5395E+00  0.1096E+00  0.1095E+00
      0.622  0.3877E+00  0.3885E+00  0.1335E+00  0.1334E+00
      0.683  0.1755E+00  0.1760E+00  0.1443E+00  0.1442E+00
      0.745  0.9115E-01  0.9123E-01  0.1499E+00  0.1499E+00
      0.806  0.1321E+00  0.1318E+00  0.1580E+00  0.1580E+00
      0.868  0.3175E+00  0.3168E+00  0.1776E+00  0.1775E+00
      0.929  0.5916E+00  0.5909E+00  0.2141E+00  0.2140E+00
      0.991  0.7405E+00  0.7404E+00  0.2597E+00  0.2596E+00
      1.053  0.9702E+00  0.9694E+00  0.3194E+00  0.3193E+00
      1.114  0.1630E+01  0.1628E+01  0.4198E+00  0.4195E+00
      1.176  0.2545E+01  0.2543E+01  0.5765E+00  0.5761E+00
      1.237  0.3714E+01  0.3711E+01  0.8052E+00  0.8046E+00
      1.299  0.5223E+01  0.5219E+01  0.1127E+01  0.1126E+01
      1.360  0.6569E+01  0.6567E+01  0.1531E+01  0.1530E+01
      1.422  0.7715E+01  0.7713E+01  0.2006E+01  0.2005E+01
      1.484  0.8179E+01  0.8179E+01  0.2510E+01  0.2509E+01
      1.545  0.7626E+01  0.7626E+01  0.2980E+01  0.2979E+01
      1.607  0.7707E+01  0.7706E+01  0.3454E+01  0.3453E+01
      1.668  0.7774E+01  0.7775E+01  0.3933E+01  0.3932E+01
      1.730  0.6671E+01  0.6674E+01  0.4344E+01  0.4343E+01
      1.791  0.5925E+01  0.5925E+01  0.4709E+01  0.4708E+01
      1.853  0.5750E+01  0.5749E+01  0.5064E+01  0.5063E+01
      1.915  0.6032E+01  0.6030E+01  0.5435E+01  0.5434E+01
      1.976  0.5975E+01  0.5975E+01  0.5804E+01  0.5803E+01
      2.038  0.5908E+01  0.5908E+01  0.6168E+01  0.6167E+01
      2.099  0.6434E+01  0.6435E+01  0.6564E+01  0.6563E+01
      2.161  0.7006E+01  0.7007E+01  0.6996E+01  0.6995E+01
      2.222  0.6684E+01  0.6686E+01  0.7408E+01  0.7407E+01
      2.284  0.6170E+01  0.6169E+01  0.7788E+01  0.7787E+01
      2.346  0.7001E+01  0.6998E+01  0.8219E+01  0.8218E+01
      2.407  0.8734E+01  0.8731E+01  0.8757E+01  0.8756E+01
      2.469  0.1038E+02  0.1038E+02  0.9396E+01  0.9395E+01
      2.530  0.1070E+02  0.1070E+02  0.1006E+02  0.1005E+02
      2.592  0.9438E+01  0.9440E+01  0.1064E+02  0.1064E+02
      2.654  0.7922E+01  0.7924E+01  0.1112E+02  0.1112E+02
      2.715  0.7156E+01  0.7157E+01  0.1157E+02  0.1156E+02
      2.777  0.6640E+01  0.6641E+01  0.1197E+02  0.1197E+02
      2.838  0.6252E+01  0.6250E+01  0.1236E+02  0.1236E+02
      2.900  0.6493E+01  0.6490E+01  0.1276E+02  0.1276E+02
      2.961  0.7377E+01  0.7373E+01  0.1322E+02  0.1321E+02
      3.023  0.8420E+01  0.8417E+01  0.1373E+02  0.1373E+02
      3.085  0.8904E+01  0.8903E+01  0.1428E+02  0.1428E+02
      3.146  0.9035E+01  0.9034E+01  0.1484E+02  0.1484E+02
      3.208  0.8307E+01  0.8309E+01  0.1535E+02  0.1535E+02
      3.269  0.6829E+01  0.6833E+01  0.1577E+02  0.1577E+02
      3.331  0.6254E+01  0.6255E+01  0.1616E+02  0.1616E+02
      3.392  0.6916E+01  0.6914E+01  0.1658E+02  0.1658E+02
      3.454  0.7284E+01  0.7284E+01  0.1703E+02  0.1703E+02
      3.516  0.6834E+01  0.6836E+01  0.1745E+02  0.1745E+02
      3.577  0.6471E+01  0.6471E+01  0.1785E+02  0.1785E+02
      3.639  0.7741E+01  0.7737E+01  0.1833E+02  0.1833E+02
      3.700  0.9436E+01  0.9434E+01  0.1891E+02  0.1891E+02
      3.762  0.9352E+01  0.9354E+01  0.1949E+02  0.1949E+02
      3.823  0.8077E+01  0.8080E+01  0.1998E+02  0.1998E+02
      3.885  0.6375E+01  0.6381E+01  0.2038E+02  0.2038E+02
      3.947  0.3712E+01  0.3718E+01  0.2061E+02  0.2061E+02
      4.008  0.1520E+01  0.1524E+01  0.2070E+02  0.2070E+02
      4.070  0.5551E+00  0.5562E+00  0.2073E+02  0.2073E+02
      4.131  0.3427E+00  0.3425E+00  0.2076E+02  0.2076E+02
      4.193  0.4759E+00  0.4754E+00  0.2079E+02  0.2079E+02
      4.254  0.5348E+00  0.5350E+00  0.2082E+02  0.2082E+02
      4.316  0.3363E+00  0.3370E+00  0.2084E+02  0.2084E+02
      4.378  0.1356E+00  0.1359E+00  0.2085E+02  0.2085E+02
      4.439  0.4734E-01  0.4746E-01  0.2085E+02  0.2085E+02
      4.501  0.2607E-01  0.2606E-01  0.2085E+02  0.2085E+02
      4.562  0.4784E-01  0.4767E-01  0.2086E+02  0.2086E+02
      4.624  0.1412E+00  0.1407E+00  0.2086E+02  0.2086E+02
      4.685  0.3995E+00  0.3982E+00  0.2089E+02  0.2089E+02
      4.747  0.8317E+00  0.8302E+00  0.2094E+02  0.2094E+02
      4.809  0.1059E+01  0.1059E+01  0.2101E+02  0.2101E+02
      4.870  0.8407E+00  0.8419E+00  0.2106E+02  0.2106E+02
      4.932  0.6917E+00  0.6917E+00  0.2110E+02  0.2110E+02
      4.993  0.9450E+00  0.9441E+00  0.2116E+02  0.2116E+02
      5.055  0.1103E+01  0.1104E+01  0.2123E+02  0.2123E+02
      5.116  0.7190E+00  0.7205E+00  0.2127E+02  0.2127E+02
      5.178  0.2995E+00  0.3004E+00  0.2129E+02  0.2129E+02
      5.240  0.1222E+00  0.1223E+00  0.2130E+02  0.2130E+02
      5.301  0.1181E+00  0.1177E+00  0.2130E+02  0.2130E+02
      5.363  0.2680E+00  0.2669E+00  0.2132E+02  0.2132E+02
      5.424  0.5614E+00  0.5601E+00  0.2135E+02  0.2135E+02
      5.486  0.7062E+00  0.7066E+00  0.2140E+02  0.2140E+02
      5.548  0.4675E+00  0.4689E+00  0.2143E+02  0.2143E+02
      5.609  0.1925E+00  0.1934E+00  0.2144E+02  0.2144E+02
      5.671  0.6366E-01  0.6397E-01  0.2144E+02  0.2144E+02
      5.732  0.2087E-01  0.2096E-01  0.2144E+02  0.2144E+02
      5.794  0.1105E-01  0.1106E-01  0.2144E+02  0.2144E+02
      5.855  0.1840E-01  0.1832E-01  0.2145E+02  0.2145E+02
      5.917  0.6144E-01  0.6119E-01  0.2145E+02  0.2145E+02
      5.979  0.1943E+00  0.1935E+00  0.2146E+02  0.2146E+02
      6.040  0.5227E+00  0.5212E+00  0.2149E+02  0.2149E+02
      6.102  0.1035E+01  0.1033E+01  0.2156E+02  0.2156E+02
      6.163  0.1409E+01  0.1409E+01  0.2164E+02  0.2164E+02
      6.225  0.1266E+01  0.1267E+01  0.2172E+02  0.2172E+02
      6.286  0.8064E+00  0.8072E+00  0.2177E+02  0.2177E+02
      6.348  0.7110E+00  0.7097E+00  0.2182E+02  0.2182E+02
      6.410  0.1018E+01  0.1016E+01  0.2188E+02  0.2188E+02
      6.471  0.1049E+01  0.1051E+01  0.2194E+02  0.2194E+02
      6.533  0.5988E+00  0.6012E+00  0.2198E+02  0.2198E+02
      6.594  0.2342E+00  0.2354E+00  0.2199E+02  0.2199E+02
      6.656  0.1052E+00  0.1053E+00  0.2200E+02  0.2200E+02
      6.717  0.1326E+00  0.1319E+00  0.2201E+02  0.2201E+02
      6.779  0.3414E+00  0.3393E+00  0.2203E+02  0.2203E+02
      6.841  0.8117E+00  0.8085E+00  0.2208E+02  0.2208E+02
      6.902  0.1351E+01  0.1350E+01  0.2216E+02  0.2216E+02
      6.964  0.1401E+01  0.1404E+01  0.2225E+02  0.2225E+02
      7.025  0.8541E+00  0.8570E+00  0.2230E+02  0.2230E+02
      7.087  0.3419E+00  0.3434E+00  0.2232E+02  0.2232E+02
      7.148  0.1118E+00  0.1123E+00  0.2233E+02  0.2233E+02
      7.210  0.3492E-01  0.3508E-01  0.2233E+02  0.2233E+02
      7.272  0.1393E-01  0.1394E-01  0.2233E+02  0.2233E+02
      7.333  0.1694E-01  0.1685E-01  0.2233E+02  0.2233E+02
      7.395  0.5640E-01  0.5614E-01  0.2234E+02  0.2234E+02
      7.456  0.1716E+00  0.1709E+00  0.2235E+02  0.2235E+02
      7.518  0.4204E+00  0.4192E+00  0.2237E+02  0.2237E+02
      7.579  0.6816E+00  0.6810E+00  0.2242E+02  0.2242E+02
      7.641  0.7713E+00  0.7712E+00  0.2246E+02  0.2246E+02
      7.703  0.8321E+00  0.8316E+00  0.2252E+02  0.2252E+02
      7.764  0.8253E+00  0.8245E+00  0.2257E+02  0.2257E+02
      7.826  0.7571E+00  0.7571E+00  0.2261E+02  0.2261E+02
      7.887  0.5390E+00  0.5408E+00  0.2265E+02  0.2265E+02
      7.949  0.2856E+00  0.2870E+00  0.2266E+02  0.2266E+02
      8.010  0.2387E+00  0.2387E+00  0.2268E+02  0.2268E+02
      8.072  0.4946E+00  0.4931E+00  0.2271E+02  0.2271E+02
      8.134  0.1094E+01  0.1091E+01  0.2278E+02  0.2278E+02
      8.195  0.1553E+01  0.1552E+01  0.2287E+02  0.2287E+02
      8.257  0.1225E+01  0.1227E+01  0.2295E+02  0.2295E+02
      8.318  0.6100E+00  0.6119E+00  0.2298E+02  0.2298E+02
      8.380  0.3127E+00  0.3129E+00  0.2300E+02  0.2300E+02
      8.442  0.3928E+00  0.3909E+00  0.2303E+02  0.2303E+02
      8.503  0.7887E+00  0.7856E+00  0.2308E+02  0.2308E+02
      8.565  0.1080E+01  0.1080E+01  0.2314E+02  0.2314E+02
      8.626  0.7786E+00  0.7818E+00  0.2319E+02  0.2319E+02
      8.688  0.3361E+00  0.3383E+00  0.2321E+02  0.2321E+02
      8.749  0.1130E+00  0.1139E+00  0.2322E+02  0.2322E+02
      8.811  0.3736E-01  0.3761E-01  0.2322E+02  0.2322E+02
      8.873  0.2119E-01  0.2121E-01  0.2322E+02  0.2322E+02
      8.934  0.4053E-01  0.4035E-01  0.2323E+02  0.2323E+02
      8.996  0.1230E+00  0.1224E+00  0.2323E+02  0.2323E+02
      9.057  0.3638E+00  0.3621E+00  0.2326E+02  0.2326E+02
      9.119  0.8175E+00  0.8153E+00  0.2331E+02  0.2331E+02
      9.180  0.1074E+01  0.1075E+01  0.2337E+02  0.2337E+02
      9.242  0.7312E+00  0.7336E+00  0.2342E+02  0.2342E+02
      9.304  0.3059E+00  0.3074E+00  0.2344E+02  0.2344E+02
      9.365  0.1073E+00  0.1078E+00  0.2344E+02  0.2344E+02
      9.427  0.5529E-01  0.5538E-01  0.2345E+02  0.2345E+02
      9.488  0.9210E-01  0.9190E-01  0.2345E+02  0.2345E+02
      9.550  0.2580E+00  0.2573E+00  0.2347E+02  0.2347E+02
      9.611  0.6574E+00  0.6562E+00  0.2351E+02  0.2351E+02
      9.673  0.1083E+01  0.1083E+01  0.2357E+02  0.2357E+02
      9.735  0.9915E+00  0.9926E+00  0.2364E+02  0.2364E+02
      9.796  0.7163E+00  0.7175E+00  0.2368E+02  0.2368E+02
      9.858  0.8156E+00  0.8157E+00  0.2373E+02  0.2373E+02
      9.919  0.1039E+01  0.1038E+01  0.2379E+02  0.2379E+02
      9.981  0.9207E+00  0.9206E+00  0.2385E+02  0.2385E+02
     10.042  0.6223E+00  0.6235E+00  0.2389E+02  0.2389E+02
     10.104  0.5627E+00  0.5637E+00  0.2392E+02  0.2392E+02
     10.166  0.6155E+00  0.6157E+00  0.2396E+02  0.2396E+02
     10.227  0.4818E+00  0.4814E+00  0.2399E+02  0.2399E+02
     10.289  0.4205E+00  0.4206E+00  0.2402E+02  0.2402E+02
     10.350  0.7257E+00  0.7261E+00  0.2406E+02  0.2406E+02
     10.412  0.1263E+01  0.1262E+01  0.2414E+02  0.2414E+02
     10.473  0.1504E+01  0.1502E+01  0.2423E+02  0.2423E+02
     10.535  0.1478E+01  0.1476E+01  0.2432E+02  0.2432E+02
     10.597  0.1128E+01  0.1129E+01  0.2439E+02  0.2439E+02
     10.658  0.5501E+00  0.5514E+00  0.2443E+02  0.2443E+02
     10.720  0.1957E+00  0.1963E+00  0.2444E+02  0.2444E+02
     10.781  0.6207E-01  0.6227E-01  0.2444E+02  0.2444E+02
     10.843  0.2033E-01  0.2039E-01  0.2444E+02  0.2444E+02
     10.904  0.1701E-01  0.1700E-01  0.2445E+02  0.2445E+02
     10.966  0.4044E-01  0.4037E-01  0.2445E+02  0.2445E+02
     11.028  0.1292E+00  0.1289E+00  0.2446E+02  0.2446E+02
     11.089  0.3605E+00  0.3598E+00  0.2448E+02  0.2448E+02
     11.151  0.7856E+00  0.7844E+00  0.2453E+02  0.2453E+02
     11.212  0.1179E+01  0.1178E+01  0.2460E+02  0.2460E+02
     11.274  0.1050E+01  0.1051E+01  0.2466E+02  0.2466E+02
     11.336  0.6786E+00  0.6797E+00  0.2471E+02  0.2471E+02
     11.397  0.7348E+00  0.7353E+00  0.2475E+02  0.2475E+02
     11.459  0.1288E+01  0.1288E+01  0.2483E+02  0.2483E+02
     11.520  0.1603E+01  0.1603E+01  0.2493E+02  0.2493E+02
     11.582  0.1085E+01  0.1085E+01  0.2500E+02  0.2500E+02
     11.643  0.4564E+00  0.4563E+00  0.2502E+02  0.2502E+02
     11.705  0.1538E+00  0.1537E+00  0.2503E+02  0.2503E+02
     11.767  0.5500E-01  0.5497E-01  0.2504E+02  0.2504E+02
     11.828  0.4453E-01  0.4452E-01  0.2504E+02  0.2504E+02
     11.890  0.1046E+00  0.1046E+00  0.2505E+02  0.2505E+02
     11.951  0.3151E+00  0.3151E+00  0.2507E+02  0.2507E+02
     12.013  0.7805E+00  0.7805E+00  0.2511E+02  0.2511E+02
     12.074  0.1259E+01  0.1259E+01  0.2519E+02  0.2519E+02
     12.136  0.1256E+01  0.1255E+01  0.2527E+02  0.2527E+02
     12.198  0.9711E+00  0.9709E+00  0.2533E+02  0.2533E+02
     12.259  0.6740E+00  0.6735E+00  0.2537E+02  0.2537E+02
     12.321  0.5994E+00  0.5988E+00  0.2541E+02  0.2541E+02
     12.382  0.6041E+00  0.6041E+00  0.2544E+02  0.2544E+02
     12.444  0.4026E+00  0.4032E+00  0.2547E+02  0.2547E+02
     12.505  0.2129E+00  0.2132E+00  0.2548E+02  0.2548E+02
     12.567  0.2272E+00  0.2271E+00  0.2550E+02  0.2550E+02
     12.629  0.5066E+00  0.5061E+00  0.2553E+02  0.2553E+02
     12.690  0.9646E+00  0.9641E+00  0.2559E+02  0.2559E+02
     12.752  0.1033E+01  0.1033E+01  0.2565E+02  0.2565E+02
     12.813  0.6261E+00  0.6267E+00  0.2569E+02  0.2569E+02
     12.875  0.3797E+00  0.3801E+00  0.2571E+02  0.2571E+02
     12.936  0.5378E+00  0.5383E+00  0.2575E+02  0.2575E+02
     12.998  0.1064E+01  0.1066E+01  0.2581E+02  0.2581E+02
     13.060  0.1629E+01  0.1633E+01  0.2591E+02  0.2591E+02
     13.121  0.1774E+01  0.1776E+01  0.2602E+02  0.2602E+02
     13.183  0.1297E+01  0.1294E+01  0.2610E+02  0.2610E+02
     13.244  0.7166E+00  0.7131E+00  0.2614E+02  0.2614E+02
     13.306  0.5569E+00  0.5551E+00  0.2618E+02  0.2618E+02
     13.367  0.5977E+00  0.5972E+00  0.2622E+02  0.2622E+02
     13.429  0.4326E+00  0.4328E+00  0.2624E+02  0.2624E+02
     13.491  0.2003E+00  0.2005E+00  0.2625E+02  0.2625E+02
     13.552  0.9919E-01  0.9915E-01  0.2626E+02  0.2626E+02
     13.614  0.1394E+00  0.1390E+00  0.2627E+02  0.2627E+02
     13.675  0.3706E+00  0.3695E+00  0.2629E+02  0.2629E+02
     13.737  0.9045E+00  0.9029E+00  0.2635E+02  0.2635E+02
     13.799  0.1650E+01  0.1649E+01  0.2645E+02  0.2645E+02
     13.860  0.2203E+01  0.2204E+01  0.2659E+02  0.2658E+02
     13.922  0.2071E+01  0.2071E+01  0.2671E+02  0.2671E+02
     13.983  0.1452E+01  0.1450E+01  0.2680E+02  0.2680E+02
     14.045  0.1196E+01  0.1192E+01  0.2688E+02  0.2688E+02
     14.106  0.1235E+01  0.1235E+01  0.2695E+02  0.2695E+02
     14.168  0.8956E+00  0.8996E+00  0.2701E+02  0.2701E+02
     14.230  0.5107E+00  0.5137E+00  0.2704E+02  0.2704E+02
     14.291  0.5704E+00  0.5716E+00  0.2707E+02  0.2707E+02
     14.353  0.1219E+01  0.1219E+01  0.2715E+02  0.2715E+02
     14.414  0.2062E+01  0.2063E+01  0.2728E+02  0.2728E+02
     14.476  0.1889E+01  0.1889E+01  0.2739E+02  0.2739E+02
     14.537  0.9542E+00  0.9542E+00  0.2745E+02  0.2745E+02
     14.599  0.3433E+00  0.3433E+00  0.2747E+02  0.2747E+02
     14.661  0.1143E+00  0.1143E+00  0.2748E+02  0.2748E+02
     14.722  0.5899E-01  0.5888E-01  0.2748E+02  0.2748E+02
     14.784  0.9713E-01  0.9680E-01  0.2749E+02  0.2749E+02
     14.845  0.2446E+00  0.2439E+00  0.2750E+02  0.2750E+02
     14.907  0.4778E+00  0.4772E+00  0.2753E+02  0.2753E+02
     14.968  0.5115E+00  0.5123E+00  0.2757E+02  0.2757E+02
     15.030  0.2956E+00  0.2972E+00  0.2758E+02  0.2758E+02
     15.092  0.1330E+00  0.1362E+00  0.2759E+02  0.2759E+02
     15.153  0.1121E+00  0.1208E+00  0.2760E+02  0.2760E+02
     15.215  0.2324E+00  0.2524E+00  0.2761E+02  0.2761E+02
     15.276  0.4682E+00  0.4891E+00  0.2764E+02  0.2764E+02
     15.338  0.5687E+00  0.5637E+00  0.2768E+02  0.2768E+02
     15.399  0.4623E+00  0.4574E+00  0.2771E+02  0.2771E+02
     15.461  0.5402E+00  0.5697E+00  0.2774E+02  0.2774E+02
     15.523  0.9252E+00  0.9649E+00  0.2780E+02  0.2780E+02
     15.584  0.1090E+01  0.1068E+01  0.2786E+02  0.2787E+02
     15.646  0.7236E+00  0.6735E+00  0.2791E+02  0.2791E+02
     15.707  0.3938E+00  0.3666E+00  0.2793E+02  0.2793E+02
     15.769  0.2650E+00  0.2553E+00  0.2795E+02  0.2795E+02
     15.830  0.1543E+00  0.1512E+00  0.2796E+02  0.2796E+02
     15.892  0.6270E-01  0.6178E-01  0.2796E+02  0.2796E+02
     15.954  0.1836E-01  0.1835E-01  0.2796E+02  0.2796E+02
     16.015  0.5581E-02  0.5577E-02  0.2796E+02  0.2796E+02
     16.077  0.1649E-02  0.1648E-02  0.2796E+02  0.2796E+02
     16.138  0.0000E+00  0.0000E+00  0.2796E+02  0.2796E+02
     16.200  0.0000E+00  0.0000E+00  0.2796E+02  0.2796E+02
     16.261  0.0000E+00  0.0000E+00  0.2796E+02  0.2796E+02
     16.323  0.0000E+00  0.0000E+00  0.2796E+02  0.2796E+02
     16.385  0.6933E-04  0.6969E-04  0.2796E+02  0.2796E+02
     16.446  0.1681E-03  0.1690E-03  0.2796E+02  0.2796E+02
     16.508  0.5754E-03  0.5784E-03  0.2796E+02  0.2796E+02
     16.569  0.1963E-02  0.1973E-02  0.2796E+02  0.2796E+02
     16.631  0.6630E-02  0.6664E-02  0.2796E+02  0.2796E+02
     16.693  0.2164E-01  0.2175E-01  0.2796E+02  0.2796E+02
     16.754  0.6350E-01  0.6376E-01  0.2797E+02  0.2797E+02
     16.816  0.1400E+00  0.1403E+00  0.2798E+02  0.2798E+02
     16.877  0.1784E+00  0.1783E+00  0.2799E+02  0.2799E+02
     16.939  0.1178E+00  0.1175E+00  0.2800E+02  0.2800E+02
     17.000  0.4822E-01  0.4801E-01  0.2800E+02  0.2800E+02
     17.062  0.1577E-01  0.1569E-01  0.2800E+02  0.2800E+02
     17.124  0.4766E-02  0.4742E-02  0.2800E+02  0.2800E+02
     17.185  0.1406E-02  0.1398E-02  0.2800E+02  0.2800E+02
     17.247  0.0000E+00  0.0000E+00  0.2800E+02  0.2800E+02
     17.308  0.0000E+00  0.0000E+00  0.2800E+02  0.2800E+02
     17.370  0.0000E+00  0.0000E+00  0.2800E+02  0.2800E+02
     17.431  0.0000E+00  0.0000E+00  0.2800E+02  0.2800E+02
     17.493  0.0000E+00  0.0000E+00  0.2800E+02  0.2800E+02
     17.555  0.0000E+00  0.0000E+00  0.2800E+02  0.2800E+02
     17.616  0.0000E+00  0.0000E+00  0.2800E+02  0.2800E+02
     17.678  0.0000E+00  0.0000E+00  0.2800E+02  0.2800E+02
     17.67769837     -0.79467161  301      6.64458595      1.00000000
     -0.795  0.0000E+00  0.0000E+00  0.0000E+00  0.0000E+00  0.0000E+00  0.0000E+00  0.0000E+00  0.0000E+00  0.0000E+00  0.0000E+00  0.0000E+00  0.0000E+00  0.0000E+00  0.0000E+00  0.0000E+00  0.0000E+00  0.0000E+00  0.0000E+00
     -0.733  0.0000E+00  0.0000E+00  0.0000E+00  0.0000E+00  0.0000E+00  0.0000E+00  0.0000E+00  0.0000E+00  0.0000E+00  0.0000E+00  0.0000E+00  0.0000E+00  0.0000E+00  0.0000E+00  0.0000E+00  0.0000E+00  0.0000E+00  0.0000E+00
     -0.672  0.0000E+00  0.0000E+00  0.0000E+00  0.0000E+00  0.0000E+00  0.0000E+00  0.0000E+00  0.0000E+00  0.0000E+00  0.0000E+00  0.0000E+00  0.0000E+00  0.0000E+00  0.0000E+00  0.0000E+00  0.0000E+00  0.0000E+00  0.0000E+00
     -0.610  0.0000E+00  0.0000E+00  0.0000E+00  0.0000E+00  0.0000E+00  0.0000E+00  0.0000E+00  0.0000E+00  0.0000E+00  0.0000E+00  0.0000E+00  0.0000E+00  0.0000E+00  0.0000E+00  0.0000E+00  0.0000E+00  0.0000E+00  0.0000E+00
     -0.548  0.0000E+00  0.0000E+00  0.0000E+00  0.0000E+00  0.0000E+00  0.0000E+00  0.0000E+00  0.0000E+00  0.0000E+00  0.0000E+00  0.0000E+00  0.0000E+00  0.0000E+00  0.0000E+00  0.0000E+00  0.0000E+00  0.0000E+00  0.0000E+00
     -0.487  0.0000E+00  0.0000E+00  0.0000E+00  0.0000E+00  0.0000E+00  0.0000E+00  0.0000E+00  0.0000E+00  0.0000E+00  0.0000E+00  0.0000E+00  0.0000E+00  0.0000E+00  0.0000E+00  0.0000E+00  0.0000E+00  0.0000E+00  0.0000E+00
     -0.425  0.0000E+00  0.0000E+00  0.0000E+00  0.0000E+00  0.0000E+00  0.0000E+00  0.0000E+00  0.0000E+00  0.0000E+00  0.0000E+00  0.0000E+00  0.0000E+00  0.0000E+00  0.0000E+00  0.0000E+00  0.0000E+00  0.0000E+00  0.0000E+00
     -0.364  0.2057E-04  0.2049E-04  0.1192E-06  0.1188E-06  0.1192E-06  0.1188E-06  0.1192E-06  0.1188E-06  0.2222E-07  0.2215E-07  0.2222E-07  0.2215E-07  0.6660E-20  0.3760E-20  0.2222E-07  0.2215E-07  0.6660E-20  0.3760E-20
     -0.302  0.4986E-04  0.4967E-04  0.2890E-06  0.2879E-06  0.2890E-06  0.2879E-06  0.2890E-06  0.2879E-06  0.5386E-07  0.5368E-07  0.5386E-07  0.5368E-07  0.1614E-19  0.9115E-20  0.5386E-07  0.5368E-07  0.1614E-19  0.9115E-20
     -0.241  0.1703E-03  0.1697E-03  0.9872E-06  0.9833E-06  0.9872E-06  0.9833E-06  0.9872E-06  0.9833E-06  0.1840E-06  0.1834E-06  0.1840E-06  0.1834E-06  0.5515E-19  0.3114E-19  0.1840E-06  0.1834E-06  0.5515E-19  0.3114E-19
     -0.179  0.5776E-03  0.5754E-03  0.3348E-05  0.3335E-05  0.3348E-05  0.3335E-05  0.3348E-05  0.3335E-05  0.6239E-06  0.6219E-06  0.6239E-06  0.6219E-06  0.1870E-18  0.1056E-18  0.6239E-06  0.6219E-06  0.1870E-18  0.1056E-18
     -0.117  0.1911E-02  0.1904E-02  0.1108E-04  0.1104E-04  0.1108E-04  0.1104E-04  0.1108E-04  0.1104E-04  0.2065E-05  0.2058E-05  0.2065E-05  0.2058E-05  0.6188E-18  0.3495E-18  0.2065E-05  0.2058E-05  0.6188E-18  0.3495E-18
     -0.056  0.5844E-02  0.5825E-02  0.3387E-04  0.3376E-04  0.3387E-04  0.3376E-04  0.3387E-04  0.3376E-04  0.6313E-05  0.6295E-05  0.6313E-05  0.6295E-05  0.1892E-17  0.1069E-17  0.6313E-05  0.6295E-05  0.1892E-17  0.1069E-17
      0.006  0.1428E-01  0.1425E-01  0.8277E-04  0.8258E-04  0.8277E-04  0.8258E-04  0.8277E-04  0.8258E-04  0.1543E-04  0.1540E-04  0.1543E-04  0.1540E-04  0.4624E-17  0.2615E-17  0.1543E-04  0.1540E-04  0.4624E-17  0.2615E-17
      0.067  0.2164E-01  0.2163E-01  0.1257E-03  0.1257E-03  0.1257E-03  0.1257E-03  0.1257E-03  0.1257E-03  0.2354E-04  0.2355E-04  0.2354E-04  0.2355E-04  0.1674E-06  0.1668E-06  0.2354E-04  0.2355E-04  0.1674E-06  0.1668E-06
      0.129  0.1701E-01  0.1704E-01  0.9934E-04  0.9951E-04  0.9934E-04  0.9951E-04  0.9934E-04  0.9951E-04  0.1879E-04  0.1883E-04  0.1879E-04  0.1883E-04  0.4061E-06  0.4045E-06  0.1879E-04  0.1883E-04  0.4061E-06  0.4045E-06
      0.191  0.7862E-02  0.7886E-02  0.4815E-04  0.4827E-04  0.4815E-04  0.4827E-04  0.4815E-04  0.4827E-04  0.9906E-05  0.9932E-05  0.9906E-05  0.9932E-05  0.1390E-05  0.1385E-05  0.9906E-05  0.9932E-05  0.1390E-05  0.1385E-05
      0.252  0.3195E-02  0.3202E-02  0.2732E-04  0.2733E-04  0.2732E-04  0.2733E-04  0.2732E-04  0.2733E-04  0.8277E-05  0.8270E-05  0.8277E-05  0.8270E-05  0.4745E-05  0.4727E-05  0.8277E-05  0.8270E-05  0.4745E-05  0.4727E-05
      0.314  0.2739E-02  0.2734E-02  0.4566E-04  0.4552E-04  0.4566E-04  0.4552E-04  0.4566E-04  0.4552E-04  0.1929E-04  0.1923E-04  0.1929E-04  0.1923E-04  0.1606E-04  0.1600E-04  0.1929E-04  0.1923E-04  0.1606E-04  0.1600E-04
      0.375  0.6598E-02  0.6576E-02  0.1361E-03  0.1357E-03  0.1361E-03  0.1357E-03  0.1361E-03  0.1357E-03  0.6080E-04  0.6061E-04  0.6080E-04  0.6061E-04  0.5278E-04  0.5259E-04  0.6080E-04  0.6061E-04  0.5278E-04  0.5259E-04
      0.437  0.1912E-01  0.1906E-01  0.4040E-03  0.4027E-03  0.4040E-03  0.4027E-03  0.4040E-03  0.4027E-03  0.1814E-03  0.1809E-03  0.1814E-03  0.1809E-03  0.1581E-03  0.1576E-03  0.1814E-03  0.1809E-03  0.1581E-03  0.1576E-03
      0.498  0.4418E-01  0.4409E-01  0.9366E-03  0.9347E-03  0.9366E-03  0.9347E-03  0.9366E-03  0.9347E-03  0.4231E-03  0.4225E-03  0.4231E-03  0.4225E-03  0.3666E-03  0.3658E-03  0.4231E-03  0.4225E-03  0.3666E-03  0.3658E-03
      0.560  0.6109E-01  0.6110E-01  0.1296E-02  0.1296E-02  0.1296E-02  0.1296E-02  0.1296E-02  0.1296E-02  0.5877E-03  0.5880E-03  0.5877E-03  0.5880E-03  0.5068E-03  0.5068E-03  0.5877E-03  0.5880E-03  0.5068E-03  0.5068E-03
      0.622  0.4387E-01  0.4396E-01  0.9332E-03  0.9350E-03  0.9332E-03  0.9350E-03  0.9332E-03  0.9350E-03  0.4401E-03  0.4412E-03  0.4401E-03  0.4412E-03  0.3632E-03  0.3640E-03  0.4401E-03  0.4412E-03  0.3632E-03  0.3640E-03
      0.683  0.1969E-01  0.1975E-01  0.4294E-03  0.4306E-03  0.4294E-03  0.4306E-03  0.4294E-03  0.4306E-03  0.2731E-03  0.2735E-03  0.2731E-03  0.2735E-03  0.1843E-03  0.1847E-03  0.2731E-03  0.2735E-03  0.1843E-03  0.1847E-03
      0.745  0.9702E-02  0.9714E-02  0.2464E-03  0.2464E-03  0.2464E-03  0.2464E-03  0.2464E-03  0.2464E-03  0.3946E-03  0.3939E-03  0.3946E-03  0.3939E-03  0.1287E-03  0.1285E-03  0.3946E-03  0.3939E-03  0.1287E-03  0.1285E-03
      0.806  0.1292E-01  0.1289E-01  0.4026E-03  0.4015E-03  0.4026E-03  0.4015E-03  0.4026E-03  0.4015E-03  0.1112E-02  0.1109E-02  0.1112E-02  0.1109E-02  0.2780E-03  0.2770E-03  0.1112E-02  0.1109E-02  0.2780E-03  0.2770E-03
      0.868  0.3005E-01  0.2998E-01  0.9806E-03  0.9781E-03  0.9806E-03  0.9781E-03  0.9806E-03  0.9781E-03  0.3091E-02  0.3086E-02  0.3091E-02  0.3086E-02  0.9166E-03  0.9128E-03  0.3091E-02  0.3086E-02  0.9166E-03  0.9128E-03
      0.929  0.5331E-01  0.5326E-01  0.1743E-02  0.1741E-02  0.1743E-02  0.1741E-02  0.1743E-02  0.1741E-02  0.6794E-02  0.6787E-02  0.6794E-02  0.6787E-02  0.2754E-02  0.2743E-02  0.6794E-02  0.6787E-02  0.2754E-02  0.2743E-02
      0.991  0.5532E-01  0.5536E-01  0.1774E-02  0.1775E-02  0.1774E-02  0.1775E-02  0.1774E-02  0.1775E-02  0.1274E-01  0.1273E-01  0.1274E-01  0.1273E-01  0.8295E-02  0.8262E-02  0.1274E-01  0.1273E-01  0.8295E-02  0.8262E-02
      1.053  0.4362E-01  0.4365E-01  0.1312E-02  0.1313E-02  0.1312E-02  0.1313E-02  0.1312E-02  0.1313E-02  0.2719E-01  0.2716E-01  0.2719E-01  0.2716E-01  0.2337E-01  0.2329E-01  0.2719E-01  0.2716E-01  0.2337E-01  0.2329E-01
      1.114  0.4380E-01  0.4380E-01  0.1259E-02  0.1258E-02  0.1259E-02  0.1258E-02  0.1259E-02  0.1258E-02  0.5722E-01  0.5717E-01  0.5722E-01  0.5717E-01  0.5057E-01  0.5046E-01  0.5722E-01  0.5717E-01  0.5057E-01  0.5046E-01
      1.176  0.5508E-01  0.5504E-01  0.1823E-02  0.1821E-02  0.1823E-02  0.1821E-02  0.1823E-02  0.1821E-02  0.1012E+00  0.1012E+00  0.1012E+00  0.1012E+00  0.7378E-01  0.7372E-01  0.1012E+00  0.1012E+00  0.7378E-01  0.7372E-01
      1.237  0.8207E-01  0.8198E-01  0.3357E-02  0.3351E-02  0.3357E-02  0.3351E-02  0.3357E-02  0.3351E-02  0.1528E+00  0.1527E+00  0.1528E+00  0.1527E+00  0.9761E-01  0.9749E-01  0.1528E+00  0.1527E+00  0.9761E-01  0.9749E-01
      1.299  0.1136E+00  0.1136E+00  0.5303E-02  0.5299E-02  0.5303E-02  0.5299E-02  0.5303E-02  0.5299E-02  0.2069E+00  0.2068E+00  0.2069E+00  0.2068E+00  0.1496E+00  0.1494E+00  0.2069E+00  0.2068E+00  0.1496E+00  0.1494E+00
      1.360  0.1201E+00  0.1202E+00  0.6404E-02  0.6402E-02  0.6404E-02  0.6402E-02  0.6404E-02  0.6402E-02  0.2724E+00  0.2723E+00  0.2724E+00  0.2723E+00  0.1921E+00  0.1921E+00  0.2724E+00  0.2723E+00  0.1921E+00  0.1921E+00
      1.422  0.1253E+00  0.1253E+00  0.7847E-02  0.7842E-02  0.7847E-02  0.7842E-02  0.7847E-02  0.7842E-02  0.3442E+00  0.3441E+00  0.3442E+00  0.3441E+00  0.2045E+00  0.2045E+00  0.3442E+00  0.3441E+00  0.2045E+00  0.2045E+00
      1.484  0.1328E+00  0.1328E+00  0.9531E-02  0.9527E-02  0.9531E-02  0.9527E-02  0.9531E-02  0.9527E-02  0.3651E+00  0.3651E+00  0.3651E+00  0.3651E+00  0.2144E+00  0.2143E+00  0.3651E+00  0.3651E+00  0.2144E+00  0.2143E+00
      1.545  0.1121E+00  0.1122E+00  0.9388E-02  0.9388E-02  0.9388E-02  0.9388E-02  0.9388E-02  0.9388E-02  0.3320E+00  0.3321E+00  0.3320E+00  0.3321E+00  0.2224E+00  0.2223E+00  0.3320E+00  0.3321E+00  0.2224E+00  0.2223E+00
      1.607  0.8506E-01  0.8511E-01  0.9048E-02  0.9046E-02  0.9048E-02  0.9046E-02  0.9048E-02  0.9046E-02  0.3255E+00  0.3255E+00  0.3255E+00  0.3255E+00  0.2672E+00  0.2670E+00  0.3255E+00  0.3255E+00  0.2672E+00  0.2670E+00
      1.668  0.6748E-01  0.6753E-01  0.8904E-02  0.8904E-02  0.8904E-02  0.8904E-02  0.8904E-02  0.8904E-02  0.3197E+00  0.3198E+00  0.3197E+00  0.3198E+00  0.3002E+00  0.3003E+00  0.3197E+00  0.3198E+00  0.3002E+00  0.3003E+00
      1.730  0.4977E-01  0.4981E-01  0.8189E-02  0.8189E-02  0.8189E-02  0.8189E-02  0.8189E-02  0.8189E-02  0.2863E+00  0.2863E+00  0.2863E+00  0.2863E+00  0.2474E+00  0.2476E+00  0.2863E+00  0.2863E+00  0.2474E+00  0.2476E+00
      1.791  0.3628E-01  0.3630E-01  0.8302E-02  0.8300E-02  0.8302E-02  0.8300E-02  0.8302E-02  0.8300E-02  0.2721E+00  0.2721E+00  0.2721E+00  0.2721E+00  0.1990E+00  0.1991E+00  0.2721E+00  0.2721E+00  0.1990E+00  0.1991E+00
      1.853  0.2587E-01  0.2589E-01  0.8749E-02  0.8745E-02  0.8749E-02  0.8745E-02  0.8749E-02  0.8745E-02  0.2641E+00  0.2641E+00  0.2641E+00  0.2641E+00  0.2007E+00  0.2006E+00  0.2641E+00  0.2641E+00  0.2007E+00  0.2006E+00
      1.915  0.2085E-01  0.2085E-01  0.9494E-02  0.9489E-02  0.9494E-02  0.9489E-02  0.9494E-02  0.9489E-02  0.2516E+00  0.2516E+00  0.2516E+00  0.2516E+00  0.2538E+00  0.2536E+00  0.2516E+00  0.2516E+00  0.2538E+00  0.2536E+00
      1.976  0.1946E-01  0.1948E-01  0.9572E-02  0.9572E-02  0.9572E-02  0.9572E-02  0.9572E-02  0.9572E-02  0.2191E+00  0.2191E+00  0.2191E+00  0.2191E+00  0.2979E+00  0.2979E+00  0.2191E+00  0.2191E+00  0.2979E+00  0.2979E+00
      2.038  0.1919E-01  0.1921E-01  0.9075E-02  0.9077E-02  0.9075E-02  0.9077E-02  0.9075E-02  0.9077E-02  0.2122E+00  0.2122E+00  0.2122E+00  0.2122E+00  0.3052E+00  0.3053E+00  0.2122E+00  0.2122E+00  0.3052E+00  0.3053E+00
      2.099  0.2125E-01  0.2126E-01  0.8237E-02  0.8242E-02  0.8237E-02  0.8242E-02  0.8237E-02  0.8242E-02  0.2564E+00  0.2564E+00  0.2564E+00  0.2564E+00  0.3042E+00  0.3043E+00  0.2564E+00  0.2564E+00  0.3042E+00  0.3043E+00
      2.161  0.1963E-01  0.1965E-01  0.6963E-02  0.6967E-02  0.6963E-02  0.6967E-02  0.6963E-02  0.6967E-02  0.2975E+00  0.2976E+00  0.2975E+00  0.2976E+00  0.3178E+00  0.3178E+00  0.2975E+00  0.2976E+00  0.3178E+00  0.3178E+00
      2.222  0.1588E-01  0.1588E-01  0.5867E-02  0.5867E-02  0.5867E-02  0.5867E-02  0.5867E-02  0.5867E-02  0.2863E+00  0.2864E+00  0.2863E+00  0.2864E+00  0.3075E+00  0.3076E+00  0.2863E+00  0.2864E+00  0.3075E+00  0.3076E+00
      2.284  0.1599E-01  0.1598E-01  0.6220E-02  0.6215E-02  0.6220E-02  0.6215E-02  0.6220E-02  0.6215E-02  0.2724E+00  0.2724E+00  0.2724E+00  0.2724E+00  0.2707E+00  0.2708E+00  0.2724E+00  0.2724E+00  0.2707E+00  0.2708E+00