   4   4   1   0
  0.2012714E+02  0.4317981E-09  0.4317981E-09  0.4317981E-09  0.5000000E-15
  1.000000000000000E-004
  CAR 
 unknown system                          
     17.10825333     -0.93144980  301      6.31880495      1.00000000
     -0.931  0.0000E+00  0.0000E+00  0.0000E+00  0.0000E+00
     -0.871  0.0000E+00  0.0000E+00  0.0000E+00  0.0000E+00
     -0.811  0.0000E+00  0.0000E+00  0.0000E+00  0.0000E+00
     -0.751  0.0000E+00  0.0000E+00  0.0000E+00  0.0000E+00
     -0.691  0.0000E+00  0.0000E+00  0.0000E+00  0.0000E+00
     -0.631  0.0000E+00  0.0000E+00  0.0000E+00  0.0000E+00
     -0.571  0.6324E-04  0.6288E-04  0.3803E-05  0.3781E-05
     -0.511  0.1472E-03  0.1464E-03  0.1266E-04  0.1258E-04
     -0.450  0.4896E-03  0.4868E-03  0.4210E-04  0.4186E-04
     -0.390  0.1624E-02  0.1615E-02  0.1398E-03  0.1390E-03
     -0.330  0.5346E-02  0.5316E-02  0.4612E-03  0.4586E-03
     -0.270  0.1714E-01  0.1705E-01  0.1492E-02  0.1484E-02
     -0.210  0.5070E-01  0.5046E-01  0.4541E-02  0.4518E-02
     -0.150  0.1200E+00  0.1197E+00  0.1176E-01  0.1171E-01
     -0.090  0.1789E+00  0.1788E+00  0.2252E-01  0.2247E-01
     -0.029  0.1421E+00  0.1425E+00  0.3106E-01  0.3104E-01
      0.031  0.6789E-01  0.6818E-01  0.3515E-01  0.3514E-01
      0.091  0.2908E-01  0.2917E-01  0.3690E-01  0.3689E-01
      0.151  0.2630E-01  0.2624E-01  0.3848E-01  0.3847E-01
      0.211  0.6254E-01  0.6223E-01  0.4224E-01  0.4221E-01
      0.271  0.1755E+00  0.1747E+00  0.5279E-01  0.5271E-01
      0.331  0.3943E+00  0.3932E+00  0.7652E-01  0.7637E-01
      0.391  0.5405E+00  0.5405E+00  0.1090E+00  0.1089E+00
      0.452  0.3958E+00  0.3969E+00  0.1328E+00  0.1327E+00
      0.512  0.1863E+00  0.1870E+00  0.1440E+00  0.1440E+00
      0.572  0.1010E+00  0.1011E+00  0.1501E+00  0.1501E+00
      0.632  0.1459E+00  0.1454E+00  0.1589E+00  0.1588E+00
      0.692  0.3388E+00  0.3377E+00  0.1792E+00  0.1791E+00
      0.752  0.6286E+00  0.6277E+00  0.2170E+00  0.2169E+00
      0.812  0.8273E+00  0.8272E+00  0.2668E+00  0.2667E+00
      0.873  0.1157E+01  0.1156E+01  0.3364E+00  0.3362E+00
      0.933  0.1913E+01  0.1911E+01  0.4514E+00  0.4511E+00
      0.993  0.2904E+01  0.2902E+01  0.6260E+00  0.6256E+00
      1.053  0.4212E+01  0.4209E+01  0.8793E+00  0.8787E+00
      1.113  0.5844E+01  0.5841E+01  0.1231E+01  0.1230E+01
      1.173  0.7239E+01  0.7238E+01  0.1666E+01  0.1665E+01
      1.233  0.8244E+01  0.8242E+01  0.2162E+01  0.2161E+01
      1.293  0.8371E+01  0.8371E+01  0.2665E+01  0.2664E+01
      1.354  0.7999E+01  0.7999E+01  0.3146E+01  0.3145E+01
      1.414  0.8234E+01  0.8234E+01  0.3642E+01  0.3641E+01
      1.474  0.7735E+01  0.7738E+01  0.4107E+01  0.4106E+01
      1.534  0.6628E+01  0.6630E+01  0.4506E+01  0.4505E+01
      1.594  0.6123E+01  0.6123E+01  0.4874E+01  0.4873E+01
      1.654  0.6161E+01  0.6160E+01  0.5245E+01  0.5244E+01
      1.714  0.6337E+01  0.6336E+01  0.5626E+01  0.5626E+01
      1.775  0.6243E+01  0.6244E+01  0.6002E+01  0.6001E+01
      1.835  0.6589E+01  0.6590E+01  0.6399E+01  0.6398E+01
      1.895  0.7276E+01  0.7277E+01  0.6837E+01  0.6836E+01
      1.955  0.7270E+01  0.7272E+01  0.7274E+01  0.7273E+01
      2.015  0.6628E+01  0.6629E+01  0.7673E+01  0.7672E+01
      2.075  0.7016E+01  0.7014E+01  0.8095E+01  0.8094E+01
      2.135  0.8699E+01  0.8697E+01  0.8618E+01  0.8617E+01
      2.195  0.1050E+02  0.1050E+02  0.9250E+01  0.9249E+01
      2.256  0.1118E+02  0.1118E+02  0.9922E+01  0.9922E+01
      2.316  0.1010E+02  0.1010E+02  0.1053E+02  0.1053E+02
      2.376  0.8547E+01  0.8548E+01  0.1104E+02  0.1104E+02
      2.436  0.7662E+01  0.7663E+01  0.1151E+02  0.1150E+02
      2.496  0.7111E+01  0.7112E+01  0.1193E+02  0.1193E+02
      2.556  0.6697E+01  0.6696E+01  0.1234E+02  0.1234E+02
      2.616  0.6888E+01  0.6886E+01  0.1275E+02  0.1275E+02
      2.676  0.7777E+01  0.7774E+01  0.1322E+02  0.1322E+02
      2.737  0.8884E+01  0.8882E+01  0.1375E+02  0.1375E+02
      2.797  0.9406E+01  0.9405E+01  0.1432E+02  0.1432E+02
      2.857  0.9405E+01  0.9404E+01  0.1489E+02  0.1488E+02
      2.917  0.8550E+01  0.8552E+01  0.1540E+02  0.1540E+02
      2.977  0.7185E+01  0.7187E+01  0.1583E+02  0.1583E+02
      3.037  0.6872E+01  0.6873E+01  0.1625E+02  0.1624E+02
      3.097  0.7466E+01  0.7465E+01  0.1670E+02  0.1669E+02
      3.158  0.7603E+01  0.7603E+01  0.1715E+02  0.1715E+02
      3.218  0.7119E+01  0.7120E+01  0.1758E+02  0.1758E+02
      3.278  0.7264E+01  0.7263E+01  0.1802E+02  0.1802E+02
      3.338  0.8887E+01  0.8885E+01  0.1855E+02  0.1855E+02
      3.398  0.9884E+01  0.9885E+01  0.1915E+02  0.1915E+02
      3.458  0.8985E+01  0.8987E+01  0.1969E+02  0.1969E+02
      3.518  0.7454E+01  0.7456E+01  0.2014E+02  0.2014E+02
      3.578  0.5436E+01  0.5439E+01  0.2046E+02  0.2046E+02
      3.639  0.2902E+01  0.2906E+01  0.2064E+02  0.2064E+02
      3.699  0.1165E+01  0.1167E+01  0.2071E+02  0.2071E+02
      3.759  0.4286E+00  0.4292E+00  0.2073E+02  0.2073E+02
      3.819  0.2599E+00  0.2597E+00  0.2075E+02  0.2075E+02
      3.879  0.3875E+00  0.3868E+00  0.2077E+02  0.2077E+02
      3.939  0.5381E+00  0.5379E+00  0.2081E+02  0.2081E+02
      3.999  0.4296E+00  0.4304E+00  0.2083E+02  0.2083E+02
      4.060  0.2034E+00  0.2041E+00  0.2085E+02  0.2085E+02
      4.120  0.7558E-01  0.7583E-01  0.2085E+02  0.2085E+02
      4.180  0.3619E-01  0.3622E-01  0.2085E+02  0.2085E+02
      4.240  0.5148E-01  0.5133E-01  0.2086E+02  0.2086E+02
      4.300  0.1401E+00  0.1396E+00  0.2086E+02  0.2086E+02
      4.360  0.3739E+00  0.3727E+00  0.2089E+02  0.2089E+02
      4.420  0.7513E+00  0.7498E+00  0.2093E+02  0.2093E+02
      4.480  0.9910E+00  0.9904E+00  0.2099E+02  0.2099E+02
      4.541  0.8977E+00  0.8984E+00  0.2105E+02  0.2105E+02
      4.601  0.7442E+00  0.7445E+00  0.2109E+02  0.2109E+02
      4.661  0.9182E+00  0.9173E+00  0.2115E+02  0.2114E+02
      4.721  0.1130E+01  0.1130E+01  0.2121E+02  0.2121E+02
      4.781  0.8276E+00  0.8293E+00  0.2126E+02  0.2126E+02
      4.841  0.3748E+00  0.3760E+00  0.2129E+02  0.2129E+02
      4.901  0.1431E+00  0.1435E+00  0.2129E+02  0.2129E+02
      4.962  0.9118E-01  0.9105E-01  0.2130E+02  0.2130E+02
      5.022  0.1677E+00  0.1669E+00  0.2131E+02  0.2131E+02
      5.082  0.3995E+00  0.3979E+00  0.2133E+02  0.2133E+02
      5.142  0.6775E+00  0.6765E+00  0.2137E+02  0.2137E+02
      5.202  0.6370E+00  0.6381E+00  0.2141E+02  0.2141E+02
      5.262  0.3382E+00  0.3398E+00  0.2143E+02  0.2143E+02
      5.322  0.1271E+00  0.1278E+00  0.2144E+02  0.2144E+02
      5.382  0.4217E-01  0.4243E-01  0.2144E+02  0.2144E+02
      5.443  0.1588E-01  0.1595E-01  0.2144E+02  0.2144E+02
      5.503  0.1470E-01  0.1467E-01  0.2145E+02  0.2145E+02
      5.563  0.3584E-01  0.3565E-01  0.2145E+02  0.2145E+02
      5.623  0.1151E+00  0.1146E+00  0.2145E+02  0.2145E+02
      5.683  0.3442E+00  0.3427E+00  0.2148E+02  0.2148E+02
      5.743  0.8445E+00  0.8419E+00  0.2153E+02  0.2153E+02
      5.803  0.1432E+01  0.1430E+01  0.2161E+02  0.2161E+02
      5.864  0.1463E+01  0.1464E+01  0.2170E+02  0.2170E+02
      5.924  0.9363E+00  0.9383E+00  0.2176E+02  0.2176E+02
      5.984  0.6191E+00  0.6188E+00  0.2179E+02  0.2179E+02
      6.044  0.7986E+00  0.7962E+00  0.2184E+02  0.2184E+02
      6.104  0.1099E+01  0.1098E+01  0.2191E+02  0.2191E+02
      6.164  0.8915E+00  0.8941E+00  0.2196E+02  0.2196E+02
      6.224  0.4263E+00  0.4286E+00  0.2199E+02  0.2199E+02
      6.284  0.1633E+00  0.1641E+00  0.2200E+02  0.2200E+02
      6.345  0.8902E-01  0.8901E-01  0.2200E+02  0.2200E+02
      6.405  0.1471E+00  0.1462E+00  0.2201E+02  0.2201E+02
      6.465  0.4016E+00  0.3989E+00  0.2204E+02  0.2204E+02
      6.525  0.9754E+00  0.9709E+00  0.2209E+02  0.2209E+02
      6.585  0.1565E+01  0.1564E+01  0.2219E+02  0.2219E+02
      6.645  0.1365E+01  0.1369E+01  0.2227E+02  0.2227E+02
      6.705  0.6849E+00  0.6886E+00  0.2231E+02  0.2231E+02
      6.765  0.2501E+00  0.2517E+00  0.2233E+02  0.2233E+02
      6.826  0.8080E-01  0.8135E-01  0.2233E+02  0.2233E+02
      6.886  0.2778E-01  0.2793E-01  0.2233E+02  0.2233E+02
      6.946  0.1796E-01  0.1795E-01  0.2233E+02  0.2233E+02
      7.006  0.3443E-01  0.3423E-01  0.2234E+02  0.2234E+02
      7.066  0.1077E+00  0.1071E+00  0.2234E+02  0.2234E+02
      7.126  0.2923E+00  0.2910E+00  0.2236E+02  0.2236E+02
      7.186  0.5845E+00  0.5832E+00  0.2240E+02  0.2240E+02
      7.247  0.7704E+00  0.7701E+00  0.2244E+02  0.2244E+02
      7.307  0.8126E+00  0.8126E+00  0.2249E+02  0.2249E+02
      7.367  0.7668E+00  0.7666E+00  0.2254E+02  0.2254E+02
      7.427  0.6816E+00  0.6806E+00  0.2258E+02  0.2258E+02
      7.487  0.6688E+00  0.6687E+00  0.2262E+02  0.2262E+02
      7.547  0.5104E+00  0.5123E+00  0.2265E+02  0.2265E+02
      7.607  0.3157E+00  0.3170E+00  0.2267E+02  0.2267E+02
      7.667  0.3597E+00  0.3592E+00  0.2269E+02  0.2269E+02
      7.728  0.7385E+00  0.7363E+00  0.2273E+02  0.2273E+02
      7.788  0.1259E+01  0.1257E+01  0.2281E+02  0.2281E+02
      7.848  0.1356E+01  0.1356E+01  0.2289E+02  0.2289E+02
      7.908  0.1010E+01  0.1012E+01  0.2295E+02  0.2295E+02
      7.968  0.5697E+00  0.5717E+00  0.2299E+02  0.2299E+02
      8.028  0.3523E+00  0.3524E+00  0.2301E+02  0.2301E+02
      8.088  0.4875E+00  0.4850E+00  0.2304E+02  0.2304E+02
      8.149  0.8984E+00  0.8952E+00  0.2309E+02  0.2309E+02
      8.209  0.1069E+01  0.1071E+01  0.2316E+02  0.2315E+02
      8.269  0.6897E+00  0.6948E+00  0.2320E+02  0.2320E+02
      8.329  0.2859E+00  0.2882E+00  0.2321E+02  0.2321E+02
      8.389  0.9695E-01  0.9778E-01  0.2322E+02  0.2322E+02
      8.449  0.3385E-01  0.3409E-01  0.2322E+02  0.2322E+02
      8.509  0.2256E-01  0.2254E-01  0.2322E+02  0.2322E+02
      8.569  0.4431E-01  0.4399E-01  0.2323E+02  0.2323E+02
      8.630  0.1401E+00  0.1391E+00  0.2323E+02  0.2323E+02
      8.690  0.3973E+00  0.3950E+00  0.2326E+02  0.2326E+02
      8.750  0.8502E+00  0.8473E+00  0.2331E+02  0.2331E+02
      8.810  0.1073E+01  0.1073E+01  0.2337E+02  0.2337E+02
      8.870  0.7209E+00  0.7239E+00  0.2342E+02  0.2342E+02
      8.930  0.3080E+00  0.3099E+00  0.2344E+02  0.2344E+02
      8.990  0.1169E+00  0.1175E+00  0.2344E+02  0.2344E+02
      9.051  0.7798E-01  0.7804E-01  0.2345E+02  0.2345E+02
      9.111  0.1555E+00  0.1550E+00  0.2346E+02  0.2346E+02
      9.171  0.4167E+00  0.4155E+00  0.2348E+02  0.2348E+02
      9.231  0.8945E+00  0.8931E+00  0.2354E+02  0.2354E+02
      9.291  0.1190E+01  0.1191E+01  0.2361E+02  0.2361E+02
      9.351  0.1031E+01  0.1033E+01  0.2367E+02  0.2367E+02
      9.411  0.9093E+00  0.9100E+00  0.2372E+02  0.2372E+02
      9.471  0.8759E+00  0.8745E+00  0.2378E+02  0.2378E+02
      9.532  0.8516E+00  0.8502E+00  0.2383E+02  0.2383E+02
      9.592  0.8016E+00  0.8025E+00  0.2388E+02  0.2388E+02
      9.652  0.7352E+00  0.7368E+00  0.2392E+02  0.2392E+02
      9.712  0.6791E+00  0.6798E+00  0.2396E+02  0.2396E+02
      9.772  0.4833E+00  0.4832E+00  0.2399E+02  0.2399E+02
      9.832  0.3863E+00  0.3863E+00  0.2401E+02  0.2401E+02
      9.892  0.6279E+00  0.6281E+00  0.2405E+02  0.2405E+02
      9.953  0.1104E+01  0.1104E+01  0.2412E+02  0.2412E+02
     10.013  0.1302E+01  0.1301E+01  0.2420E+02  0.2420E+02
     10.073  0.1266E+01  0.1264E+01  0.2427E+02  0.2427E+02
     10.133  0.1283E+01  0.1282E+01  0.2435E+02  0.2435E+02
     10.193  0.9312E+00  0.9330E+00  0.2441E+02  0.2441E+02
     10.253  0.4285E+00  0.4301E+00  0.2443E+02  0.2443E+02
     10.313  0.1516E+00  0.1522E+00  0.2444E+02  0.2444E+02
     10.373  0.4834E-01  0.4857E-01  0.2444E+02  0.2444E+02
     10.434  0.2282E-01  0.2287E-01  0.2444E+02  0.2444E+02
     10.494  0.3307E-01  0.3302E-01  0.2445E+02  0.2445E+02
     10.554  0.8965E-01  0.8943E-01  0.2445E+02  0.2445E+02
     10.614  0.2444E+00  0.2438E+00  0.2447E+02  0.2447E+02
     10.674  0.5396E+00  0.5382E+00  0.2450E+02  0.2450E+02
     10.734  0.9529E+00  0.9511E+00  0.2456E+02  0.2456E+02
     10.794  0.1186E+01  0.1186E+01  0.2463E+02  0.2463E+02
     10.854  0.9288E+00  0.9305E+00  0.2468E+02  0.2468E+02
     10.915  0.7389E+00  0.7398E+00  0.2473E+02  0.2473E+02
     10.975  0.1065E+01  0.1065E+01  0.2479E+02  0.2479E+02
     11.035  0.1538E+01  0.1539E+01  0.2488E+02  0.2488E+02
     11.095  0.1371E+01  0.1371E+01  0.2497E+02  0.2497E+02
     11.155  0.7402E+00  0.7406E+00  0.2501E+02  0.2501E+02
     11.215  0.2848E+00  0.2848E+00  0.2503E+02  0.2503E+02
     11.275  0.9734E-01  0.9736E-01  0.2503E+02  0.2503E+02
     11.336  0.4316E-01  0.4315E-01  0.2504E+02  0.2504E+02
     11.396  0.5620E-01  0.5615E-01  0.2504E+02  0.2504E+02
     11.456  0.1525E+00  0.1523E+00  0.2505E+02  0.2505E+02
     11.516  0.4315E+00  0.4311E+00  0.2508E+02  0.2508E+02
     11.576  0.9513E+00  0.9507E+00  0.2513E+02  0.2513E+02
     11.636  0.1336E+01  0.1336E+01  0.2521E+02  0.2521E+02
     11.696  0.1231E+01  0.1231E+01  0.2529E+02  0.2529E+02
     11.756  0.9124E+00  0.9125E+00  0.2534E+02  0.2534E+02
     11.817  0.6636E+00  0.6631E+00  0.2538E+02  0.2538E+02
     11.877  0.6402E+00  0.6397E+00  0.2542E+02  0.2542E+02
     11.937  0.5567E+00  0.5573E+00  0.2545E+02  0.2545E+02
     11.997  0.3209E+00  0.3216E+00  0.2547E+02  0.2547E+02
     12.057  0.1936E+00  0.1938E+00  0.2549E+02  0.2549E+02
     12.117  0.2849E+00  0.2845E+00  0.2550E+02  0.2550E+02
     12.177  0.6404E+00  0.6394E+00  0.2554E+02  0.2554E+02
     12.238  0.1056E+01  0.1055E+01  0.2560E+02  0.2560E+02
     12.298  0.9747E+00  0.9756E+00  0.2566E+02  0.2566E+02
     12.358  0.6066E+00  0.6077E+00  0.2570E+02  0.2570E+02
     12.418  0.5680E+00  0.5688E+00  0.2573E+02  0.2573E+02
     12.478  0.1028E+01  0.1029E+01  0.2580E+02  0.2580E+02
     12.538  0.1687E+01  0.1690E+01  0.2590E+02  0.2590E+02
     12.598  0.1869E+01  0.1872E+01  0.2601E+02  0.2601E+02
     12.658  0.1366E+01  0.1364E+01  0.2609E+02  0.2609E+02
     12.719  0.7127E+00  0.7094E+00  0.2613E+02  0.2613E+02
     12.779  0.4428E+00  0.4409E+00  0.2616E+02  0.2616E+02
     12.839  0.5166E+00  0.5156E+00  0.2619E+02  0.2619E+02
     12.899  0.5551E+00  0.5551E+00  0.2623E+02  0.2623E+02
     12.959  0.3520E+00  0.3525E+00  0.2625E+02  0.2625E+02
     13.019  0.1602E+00  0.1604E+00  0.2626E+02  0.2626E+02
     13.079  0.1128E+00  0.1126E+00  0.2626E+02  0.2626E+02
     13.140  0.2189E+00  0.2180E+00  0.2628E+02  0.2628E+02
     13.200  0.5587E+00  0.5569E+00  0.2631E+02  0.2631E+02
     13.260  0.1170E+01  0.1169E+01  0.2638E+02  0.2638E+02
     13.320  0.1886E+01  0.1886E+01  0.2649E+02  0.2649E+02
     13.380  0.2276E+01  0.2278E+01  0.2663E+02  0.2663E+02
     13.440  0.1832E+01  0.1833E+01  0.2674E+02  0.2674E+02
     13.500  0.1111E+01  0.1110E+01  0.2681E+02  0.2681E+02
     13.560  0.9350E+00  0.9308E+00  0.2686E+02  0.2686E+02
     13.621  0.1153E+01  0.1151E+01  0.2693E+02  0.2693E+02
     13.681  0.1036E+01  0.1040E+01  0.2700E+02  0.2700E+02
     13.741  0.6847E+00  0.6886E+00  0.2704E+02  0.2704E+02
     13.801  0.7442E+00  0.7456E+00  0.2708E+02  0.2708E+02
     13.861  0.1416E+01  0.1416E+01  0.2717E+02  0.2717E+02
     13.921  0.2122E+01  0.2122E+01  0.2730E+02  0.2730E+02
     13.981  0.1773E+01  0.1774E+01  0.2740E+02  0.2740E+02
     14.042  0.8672E+00  0.8677E+00  0.2745E+02  0.2745E+02
     14.102  0.3160E+00  0.3162E+00  0.2747E+02  0.2747E+02
     14.162  0.1111E+00  0.1111E+00  0.2748E+02  0.2748E+02
     14.222  0.6750E-01  0.6733E-01  0.2748E+02  0.2748E+02
     14.282  0.1223E+00  0.1218E+00  0.2749E+02  0.2749E+02
     14.342  0.2920E+00  0.2909E+00  0.2751E+02  0.2751E+02
     14.402  0.5096E+00  0.5089E+00  0.2754E+02  0.2754E+02
     14.462  0.4873E+00  0.4878E+00  0.2757E+02  0.2757E+02
     14.523  0.2677E+00  0.2679E+00  0.2759E+02  0.2758E+02
     14.583  0.1320E+00  0.1299E+00  0.2759E+02  0.2759E+02
     14.643  0.1411E+00  0.1343E+00  0.2760E+02  0.2760E+02
     14.703  0.2971E+00  0.2830E+00  0.2762E+02  0.2762E+02
     14.763  0.5205E+00  0.5099E+00  0.2765E+02  0.2765E+02
     14.823  0.5366E+00  0.5435E+00  0.2768E+02  0.2768E+02
     14.883  0.4110E+00  0.4154E+00  0.2771E+02  0.2771E+02
     14.943  0.5121E+00  0.4966E+00  0.2774E+02  0.2774E+02
     15.004  0.9021E+00  0.8777E+00  0.2779E+02  0.2779E+02
     15.064  0.1086E+01  0.1093E+01  0.2786E+02  0.2785E+02
     15.124  0.7314E+00  0.7602E+00  0.2790E+02  0.2790E+02
     15.184  0.3673E+00  0.3852E+00  0.2792E+02  0.2792E+02
     15.244  0.2498E+00  0.2566E+00  0.2794E+02  0.2794E+02
     15.304  0.2061E+00  0.2084E+00  0.2795E+02  0.2795E+02
     15.364  0.1185E+00  0.1193E+00  0.2796E+02  0.2796E+02
     15.425  0.4422E-01  0.4728E-01  0.2796E+02  0.2796E+02
     15.485  0.1471E-01  0.1472E-01  0.2796E+02  0.2796E+02
     15.545  0.4561E-02  0.4566E-02  0.2796E+02  0.2796E+02
     15.605  0.1383E-02  0.1385E-02  0.2796E+02  0.2796E+02
     15.665  0.0000E+00  0.0000E+00  0.2796E+02  0.2796E+02
     15.725  0.0000E+00  0.0000E+00  0.2796E+02  0.2796E+02
     15.785  0.0000E+00  0.0000E+00  0.2796E+02  0.2796E+02
     15.845  0.8778E-04  0.9886E-04  0.2796E+02  0.2796E+02
     15.906  0.2043E-03  0.2301E-03  0.2796E+02  0.2796E+02
     15.966  0.6793E-03  0.7648E-03  0.2796E+02  0.2796E+02
     16.026  0.2250E-02  0.2532E-02  0.2796E+02  0.2796E+02
     16.086  0.7374E-02  0.8282E-02  0.2796E+02  0.2796E+02
     16.146  0.2332E-01  0.2602E-01  0.2797E+02  0.2797E+02
     16.206  0.6615E-01  0.7250E-01  0.2797E+02  0.2797E+02
     16.266  0.1416E+00  0.1489E+00  0.2798E+02  0.2798E+02
     16.327  0.1787E+00  0.1765E+00  0.2799E+02  0.2799E+02
     16.387  0.1200E+00  0.1121E+00  0.2800E+02  0.2800E+02
     16.447  0.5070E-01  0.4586E-01  0.2800E+02  0.2800E+02
     16.507  0.1714E-01  0.1531E-01  0.2800E+02  0.2800E+02
     16.567  0.5346E-02  0.4755E-02  0.2800E+02  0.2800E+02
     16.627  0.1624E-02  0.1443E-02  0.2800E+02  0.2800E+02
     16.687  0.4896E-03  0.0000E+00  0.2800E+02  0.2800E+02
     16.747  0.0000E+00  0.0000E+00  0.2800E+02  0.2800E+02
     16.808  0.0000E+00  0.0000E+00  0.2800E+02  0.2800E+02
     16.868  0.0000E+00  0.0000E+00  0.2800E+02  0.2800E+02
     16.928  0.0000E+00  0.0000E+00  0.2800E+02  0.2800E+02
     16.988  0.0000E+00  0.0000E+00  0.2800E+02  0.2800E+02
     17.048  0.0000E+00  0.0000E+00  0.2800E+02  0.2800E+02
     17.108  0.0000E+00  0.0000E+00  0.2800E+02  0.2800E+02
     17.10825333     -0.93144980  301      6.31880495      1.00000000
     -0.931  0.0000E+00  0.0000E+00  0.0000E+00  0.0000E+00  0.0000E+00  0.0000E+00  0.0000E+00  0.0000E+00  0.0000E+00  0.0000E+00  0.0000E+00  0.0000E+00  0.0000E+00  0.0000E+00  0.0000E+00  0.0000E+00  0.0000E+00  0.0000E+00
     -0.871  0.0000E+00  0.0000E+00  0.0000E+00  0.0000E+00  0.0000E+00  0.0000E+00  0.0000E+00  0.0000E+00  0.0000E+00  0.0000E+00  0.0000E+00  0.0000E+00  0.0000E+00  0.0000E+00  0.0000E+00  0.0000E+00  0.0000E+00  0.0000E+00
     -0.811  0.0000E+00  0.0000E+00  0.0000E+00  0.0000E+00  0.0000E+00  0.0000E+00  0.0000E+00  0.0000E+00  0.0000E+00  0.0000E+00  0.0000E+00  0.0000E+00  0.0000E+00  0.0000E+00  0.0000E+00  0.0000E+00  0.0000E+00  0.0000E+00
     -0.751  0.0000E+00  0.0000E+00  0.0000E+00  0.0000E+00  0.0000E+00  0.0000E+00  0.0000E+00  0.0000E+00  0.0000E+00  0.0000E+00  0.0000E+00  0.0000E+00  0.0000E+00  0.0000E+00  0.0000E+00  0.0000E+00  0.0000E+00  0.0000E+00
     -0.691  0.0000E+00  0.0000E+00  0.0000E+00  0.0000E+00  0.0000E+00  0.0000E+00  0.0000E+00  0.0000E+00  0.0000E+00  0.0000E+00  0.0000E+00  0.0000E+00  0.0000E+00  0.0000E+00  0.0000E+00  0.0000E+00  0.0000E+00  0.0000E+00
     -0.631  0.0000E+00  0.0000E+00  0.0000E+00  0.0000E+00  0.0000E+00  0.0000E+00  0.0000E+00  0.0000E+00  0.0000E+00  0.0000E+00  0.0000E+00  0.0000E+00  0.0000E+00  0.0000E+00  0.0000E+00  0.0000E+00  0.0000E+00  0.0000E+00
     -0.571  0.7472E-05  0.7430E-05  0.4221E-07  0.4197E-07  0.4221E-07  0.4197E-07  0.4221E-07  0.4197E-07  0.8382E-08  0.8340E-08  0.8382E-08  0.8340E-08  0.3902E-20  0.5252E-20  0.8382E-08  0.8340E-08  0.3902E-20  0.5252E-20
     -0.511  0.1739E-04  0.1730E-04  0.9826E-07  0.9771E-07  0.9826E-07  0.9771E-07  0.9826E-07  0.9771E-07  0.1951E-07  0.1942E-07  0.1951E-07  0.1942E-07  0.9085E-20  0.1223E-19  0.1951E-07  0.1942E-07  0.9085E-20  0.1223E-19
     -0.450  0.5785E-04  0.5753E-04  0.3268E-06  0.3249E-06  0.3268E-06  0.3249E-06  0.3268E-06  0.3249E-06  0.6489E-07  0.6457E-07  0.6489E-07  0.6457E-07  0.3021E-19  0.4066E-19  0.6489E-07  0.6457E-07  0.3021E-19  0.4066E-19
     -0.390  0.1919E-03  0.1908E-03  0.1084E-05  0.1078E-05  0.1084E-05  0.1078E-05  0.1084E-05  0.1078E-05  0.2153E-06  0.2142E-06  0.2153E-06  0.2142E-06  0.1002E-18  0.1349E-18  0.2153E-06  0.2142E-06  0.1002E-18  0.1349E-18
     -0.330  0.6316E-03  0.6282E-03  0.3568E-05  0.3548E-05  0.3568E-05  0.3548E-05  0.3568E-05  0.3548E-05  0.7085E-06  0.7051E-06  0.7085E-06  0.7051E-06  0.3299E-18  0.4440E-18  0.7085E-06  0.7051E-06  0.3299E-18  0.4440E-18
     -0.270  0.2025E-02  0.2015E-02  0.1144E-04  0.1138E-04  0.1144E-04  0.1138E-04  0.1144E-04  0.1138E-04  0.2272E-05  0.2262E-05  0.2272E-05  0.2262E-05  0.1058E-17  0.1424E-17  0.2272E-05  0.2262E-05  0.1058E-17  0.1424E-17
     -0.210  0.5990E-02  0.5963E-02  0.3384E-04  0.3368E-04  0.3384E-04  0.3368E-04  0.3384E-04  0.3368E-04  0.6720E-05  0.6693E-05  0.6720E-05  0.6693E-05  0.3129E-17  0.4215E-17  0.6720E-05  0.6693E-05  0.3129E-17  0.4215E-17
     -0.150  0.1418E-01  0.1414E-01  0.8011E-04  0.7986E-04  0.8011E-04  0.7986E-04  0.8011E-04  0.7986E-04  0.1591E-04  0.1587E-04  0.1591E-04  0.1587E-04  0.7407E-17  0.9994E-17  0.1591E-04  0.1587E-04  0.7407E-17  0.9994E-17
     -0.090  0.2114E-01  0.2113E-01  0.1198E-03  0.1197E-03  0.1198E-03  0.1197E-03  0.1198E-03  0.1197E-03  0.2393E-04  0.2394E-04  0.2393E-04  0.2394E-04  0.2148E-06  0.2136E-06  0.2393E-04  0.2394E-04  0.2148E-06  0.2136E-06
     -0.029  0.1679E-01  0.1683E-01  0.9570E-04  0.9593E-04  0.9570E-04  0.9593E-04  0.9570E-04  0.9593E-04  0.1935E-04  0.1940E-04  0.1935E-04  0.1940E-04  0.5001E-06  0.4973E-06  0.1935E-04  0.1940E-04  0.5001E-06  0.4973E-06
      0.031  0.8008E-02  0.8043E-02  0.4811E-04  0.4829E-04  0.4811E-04  0.4829E-04  0.4811E-04  0.4829E-04  0.1069E-04  0.1073E-04  0.1069E-04  0.1073E-04  0.1663E-05  0.1653E-05  0.1069E-04  0.1073E-04  0.1663E-05  0.1653E-05
      0.091  0.3392E-02  0.3403E-02  0.2870E-04  0.2871E-04  0.2870E-04  0.2871E-04  0.2870E-04  0.2871E-04  0.9464E-05  0.9451E-05  0.9464E-05  0.9451E-05  0.5512E-05  0.5482E-05  0.9464E-05  0.9451E-05  0.5512E-05  0.5482E-05
      0.151  0.2962E-02  0.2956E-02  0.4807E-04  0.4786E-04  0.4807E-04  0.4786E-04  0.4807E-04  0.4786E-04  0.2191E-04  0.2181E-04  0.2191E-04  0.2181E-04  0.1810E-04  0.1801E-04  0.2191E-04  0.2181E-04  0.1810E-04  0.1801E-04
      0.211  0.6927E-02  0.6894E-02  0.1390E-03  0.1382E-03  0.1390E-03  0.1382E-03  0.1390E-03  0.1382E-03  0.6698E-04  0.6667E-04  0.6698E-04  0.6667E-04  0.5767E-04  0.5737E-04  0.6698E-04  0.6667E-04  0.5767E-04  0.5737E-04
      0.271  0.1939E-01  0.1931E-01  0.3989E-03  0.3971E-03  0.3989E-03  0.3971E-03  0.3989E-03  0.3971E-03  0.1934E-03  0.1927E-03  0.1934E-03  0.1927E-03  0.1672E-03  0.1665E-03  0.1934E-03  0.1927E-03  0.1672E-03  0.1665E-03
      0.331  0.4357E-01  0.4345E-01  0.8994E-03  0.8968E-03  0.8994E-03  0.8968E-03  0.8994E-03  0.8968E-03  0.4394E-03  0.4384E-03  0.4394E-03  0.4384E-03  0.3770E-03  0.3760E-03  0.4394E-03  0.4384E-03  0.3770E-03  0.3760E-03
      0.391  0.5970E-01  0.5971E-01  0.1233E-02  0.1233E-02  0.1233E-02  0.1233E-02  0.1233E-02  0.1233E-02  0.6053E-03  0.6057E-03  0.6053E-03  0.6057E-03  0.5166E-03  0.5167E-03  0.6053E-03  0.6057E-03  0.5166E-03  0.5167E-03
      0.452  0.4367E-01  0.4380E-01  0.9052E-03  0.9076E-03  0.9052E-03  0.9076E-03  0.9052E-03  0.9076E-03  0.4697E-03  0.4712E-03  0.4697E-03  0.4712E-03  0.3771E-03  0.3782E-03  0.4697E-03  0.4712E-03  0.3771E-03  0.3782E-03
      0.512  0.2034E-01  0.2043E-01  0.4328E-03  0.4345E-03  0.4328E-03  0.4345E-03  0.4328E-03  0.4345E-03  0.3196E-03  0.3202E-03  0.3196E-03  0.3202E-03  0.2099E-03  0.2105E-03  0.3196E-03  0.3202E-03  0.2099E-03  0.2105E-03
      0.572  0.1040E-01  0.1041E-01  0.2571E-03  0.2572E-03  0.2571E-03  0.2572E-03  0.2571E-03  0.2572E-03  0.4833E-03  0.4821E-03  0.4833E-03  0.4821E-03  0.1678E-03  0.1677E-03  0.4833E-03  0.4821E-03  0.1678E-03  0.1677E-03
      0.632  0.1368E-01  0.1364E-01  0.4129E-03  0.4114E-03  0.4129E-03  0.4114E-03  0.4129E-03  0.4114E-03  0.1344E-02  0.1339E-02  0.1344E-02  0.1339E-02  0.3943E-03  0.3928E-03  0.1344E-02  0.1339E-02  0.3943E-03  0.3928E-03
      0.692  0.3054E-01  0.3044E-01  0.9646E-03  0.9613E-03  0.9646E-03  0.9613E-03  0.9646E-03  0.9613E-03  0.3653E-02  0.3644E-02  0.3653E-02  0.3644E-02  0.1237E-02  0.1232E-02  0.3653E-02  0.3644E-02  0.1237E-02  0.1232E-02
      0.752  0.5303E-01  0.5297E-01  0.1676E-02  0.1673E-02  0.1676E-02  0.1673E-02  0.1676E-02  0.1673E-02  0.8233E-02  0.8224E-02  0.8233E-02  0.8224E-02  0.3728E-02  0.3714E-02  0.8233E-02  0.8224E-02  0.3728E-02  0.3714E-02
      0.812  0.5550E-01  0.5555E-01  0.1715E-02  0.1717E-02  0.1715E-02  0.1717E-02  0.1715E-02  0.1717E-02  0.1636E-01  0.1634E-01  0.1636E-01  0.1634E-01  0.1095E-01  0.1091E-01  0.1636E-01  0.1634E-01  0.1095E-01  0.1091E-01
      0.873  0.4573E-01  0.4578E-01  0.1322E-02  0.1324E-02  0.1322E-02  0.1324E-02  0.1322E-02  0.1324E-02  0.3504E-01  0.3501E-01  0.3504E-01  0.3501E-01  0.2895E-01  0.2886E-01  0.3504E-01  0.3501E-01  0.2895E-01  0.2886E-01
      0.933  0.4648E-01  0.4649E-01  0.1317E-02  0.1316E-02  0.1317E-02  0.1316E-02  0.1317E-02  0.1316E-02  0.7071E-01  0.7066E-01  0.7071E-01  0.7066E-01  0.5757E-01  0.5747E-01  0.7071E-01  0.7066E-01  0.5757E-01  0.5747E-01
      0.993  0.5826E-01  0.5821E-01  0.1949E-02  0.1945E-02  0.1949E-02  0.1945E-02  0.1949E-02  0.1945E-02  0.1195E+00  0.1194E+00  0.1195E+00  0.1194E+00  0.8119E-01  0.8112E-01  0.1195E+00  0.1194E+00  0.8119E-01  0.8112E-01
      1.053  0.8594E-01  0.8582E-01  0.3519E-02  0.3512E-02  0.3519E-02  0.3512E-02  0.3519E-02  0.3512E-02  0.1748E+00  0.1747E+00  0.1748E+00  0.1747E+00  0.1131E+00  0.1130E+00  0.1748E+00  0.1747E+00  0.1131E+00  0.1130E+00
      1.113  0.1152E+00  0.1152E+00  0.5398E-02  0.5393E-02  0.5398E-02  0.5393E-02  0.5398E-02  0.5393E-02  0.2361E+00  0.2360E+00  0.2361E+00  0.2360E+00  0.1693E+00  0.1691E+00  0.2361E+00  0.2360E+00  0.1693E+00  0.1691E+00
      1.173  0.1215E+00  0.1215E+00  0.6576E-02  0.6573E-02  0.6576E-02  0.6573E-02  0.6576E-02  0.6573E-02  0.3096E+00  0.3095E+00  0.3096E+00  0.3095E+00  0.2052E+00  0.2051E+00  0.3096E+00  0.3095E+00  0.2052E+00  0.2051E+00
      1.233  0.1260E+00  0.1260E+00  0.8012E-02  0.8006E-02  0.8012E-02  0.8006E-02  0.8012E-02  0.8006E-02  0.3716E+00  0.3716E+00  0.3716E+00  0.3716E+00  0.2169E+00  0.2168E+00  0.3716E+00  0.3716E+00  0.2169E+00  0.2168E+00
      1.293  0.1271E+00  0.1271E+00  0.9222E-02  0.9218E-02  0.9222E-02  0.9218E-02  0.9222E-02  0.9218E-02  0.3727E+00  0.3728E+00  0.3727E+00  0.3728E+00  0.2259E+00  0.2258E+00  0.3727E+00  0.3728E+00  0.2259E+00  0.2258E+00
      1.354  0.1051E+00  0.1051E+00  0.9040E-02  0.9039E-02  0.9040E-02  0.9039E-02  0.9040E-02  0.9039E-02  0.3458E+00  0.3459E+00  0.3458E+00  0.3459E+00  0.2470E+00  0.2468E+00  0.3458E+00  0.3459E+00  0.2470E+00  0.2468E+00
      1.414  0.8075E-01  0.8082E-01  0.8852E-02  0.8851E-02  0.8852E-02  0.8851E-02  0.8852E-02  0.8851E-02  0.3434E+00  0.3434E+00  0.3434E+00  0.3434E+00  0.3004E+00  0.3003E+00  0.3434E+00  0.3434E+00  0.3004E+00  0.3003E+00
      1.474  0.6147E-01  0.6152E-01  0.8366E-02  0.8366E-02  0.8366E-02  0.8366E-02  0.8366E-02  0.8366E-02  0.3217E+00  0.3217E+00  0.3217E+00  0.3217E+00  0.2979E+00  0.2980E+00  0.3217E+00  0.3217E+00  0.2979E+00  0.2980E+00
      1.534  0.4417E-01  0.4421E-01  0.7944E-02  0.7943E-02  0.7944E-02  0.7943E-02  0.7944E-02  0.7943E-02  0.2936E+00  0.2937E+00  0.2936E+00  0.2937E+00  0.2359E+00  0.2361E+00  0.2936E+00  0.2937E+00  0.2359E+00  0.2361E+00
      1.594  0.3151E-01  0.3153E-01  0.8216E-02  0.8213E-02  0.8216E-02  0.8213E-02  0.8216E-02  0.8213E-02  0.2832E+00  0.2832E+00  0.2832E+00  0.2832E+00  0.2078E+00  0.2078E+00  0.2832E+00  0.2832E+00  0.2078E+00  0.2078E+00
      1.654  0.2303E-01  0.2304E-01  0.8739E-02  0.8734E-02  0.8739E-02  0.8734E-02  0.8739E-02  0.8734E-02  0.2714E+00  0.2714E+00  0.2714E+00  0.2714E+00  0.2369E+00  0.2368E+00  0.2714E+00  0.2714E+00  0.2369E+00  0.2368E+00
      1.714  0.2041E-01  0.2041E-01  0.9211E-02  0.9208E-02  0.9211E-02  0.9208E-02  0.9211E-02  0.9208E-02  0.2456E+00  0.2456E+00  0.2456E+00  0.2456E+00  0.2969E+00  0.2969E+00  0.2456E+00  0.2456E+00  0.2969E+00  0.2969E+00
      1.775  0.1976E-01  0.1977E-01  0.8989E-02  0.8989E-02  0.8989E-02  0.8989E-02  0.8989E-02  0.8989E-02  0.2223E+00  0.2223E+00  0.2223E+00  0.2223E+00  0.3246E+00  0.3247E+00  0.2223E+00  0.2223E+00  0.3246E+00  0.3247E+00
      1.835  0.2130E-01  0.2132E-01  0.8442E-02  0.8445E-02  0.8442E-02  0.8445E-02  0.8442E-02  0.8445E-02  0.2503E+00  0.2503E+00  0.2503E+00  0.2503E+00  0.3265E+00  0.3266E+00  0.2503E+00  0.2503E+00  0.3265E+00  0.3266E+00
      1.895  0.2190E-01  0.2192E-01  0.7400E-02  0.7404E-02  0.7400E-02  0.7404E-02  0.7400E-02  0.7404E-02  0.3030E+00  0.3031E+00  0.3030E+00  0.3031E+00  0.3335E+00  0.3335E+00  0.3030E+00  0.3031E+00  0.3335E+00  0.3335E+00
      1.955  0.1802E-01  0.1803E-01  0.6102E-02  0.6104E-02  0.6102E-02  0.6104E-02  0.6102E-02  0.6104E-02  0.3109E+00  0.3110E+00  0.3109E+00  0.3110E+00  0.3325E+00  0.3326E+00  0.3109E+00  0.3110E+00  0.3325E+00  0.3326E+00
      2.015  0.1562E-01  0.1562E-01  0.5663E-02  0.5660E-02  0.5663E-02  0.5660E-02  0.5663E-02  0.5660E-02  0.2892E+00  0.2892E+00  0.2892E+00  0.2892E+00  0.2982E+00  0.2982E+00  0.2892E+00  0.2892E+00  0.2982E+00  0.2982E+00
      2.075  0.1862E-01  0.1861E-01  0.7279E-02  0.7272E-02  0.7279E-02  0.7272E-02  0.7279E-02  0.7272E-02  0.3221E+00  0.3220E+00  0.3221E+00  0.3220E+00  0.2889E+00  0.2889E+00  0.3221E+00  0.3220E+00  0.2889E+00  0.2889E+00