   4   4   1   0
  0.1583054E+02  0.3985829E-09  0.3985829E-09  0.3985829E-09  0.5000000E-15
  1.000000000000000E-004
  CAR 
 unknown system                          
     22.28434492      0.41062716  301      9.33547936      1.00000000
      0.411  0.0000E+00  0.0000E+00  0.0000E+00  0.0000E+00
      0.484  0.0000E+00  0.0000E+00  0.0000E+00  0.0000E+00
      0.556  0.0000E+00  0.0000E+00  0.0000E+00  0.0000E+00
      0.629  0.0000E+00  0.0000E+00  0.0000E+00  0.0000E+00
      0.702  0.0000E+00  0.0000E+00  0.0000E+00  0.0000E+00
      0.775  0.0000E+00  0.0000E+00  0.0000E+00  0.0000E+00
      0.848  0.0000E+00  0.0000E+00  0.0000E+00  0.0000E+00
      0.921  0.0000E+00  0.0000E+00  0.0000E+00  0.0000E+00
      0.994  0.1368E-03  0.1360E-03  0.9976E-05  0.9917E-05
      1.067  0.4508E-03  0.4481E-03  0.4284E-04  0.4259E-04
      1.140  0.1929E-02  0.1917E-02  0.1835E-03  0.1824E-03
      1.213  0.8125E-02  0.8079E-02  0.7759E-03  0.7714E-03
      1.286  0.3214E-01  0.3197E-01  0.3120E-02  0.3103E-02
      1.358  0.1011E+00  0.1008E+00  0.1049E-01  0.1045E-01
      1.431  0.1759E+00  0.1758E+00  0.2332E-01  0.2327E-01
      1.504  0.1271E+00  0.1275E+00  0.3259E-01  0.3256E-01
      1.577  0.4589E-01  0.4612E-01  0.3593E-01  0.3593E-01
      1.650  0.1368E-01  0.1374E-01  0.3693E-01  0.3693E-01
      1.723  0.1028E-01  0.1026E-01  0.3768E-01  0.3768E-01
      1.796  0.3177E-01  0.3160E-01  0.4000E-01  0.3998E-01
      1.869  0.1203E+00  0.1197E+00  0.4878E-01  0.4872E-01
      1.942  0.3523E+00  0.3512E+00  0.7447E-01  0.7433E-01
      2.015  0.5321E+00  0.5322E+00  0.1133E+00  0.1131E+00
      2.088  0.3328E+00  0.3340E+00  0.1375E+00  0.1375E+00
      2.161  0.1138E+00  0.1143E+00  0.1458E+00  0.1458E+00
      2.233  0.4537E-01  0.4544E-01  0.1491E+00  0.1491E+00
      2.306  0.7649E-01  0.7621E-01  0.1547E+00  0.1547E+00
      2.379  0.2414E+00  0.2405E+00  0.1725E+00  0.1724E+00
      2.452  0.5286E+00  0.5279E+00  0.2110E+00  0.2109E+00
      2.525  0.5900E+00  0.5907E+00  0.2540E+00  0.2539E+00
      2.598  0.6653E+00  0.6658E+00  0.3025E+00  0.3025E+00
      2.671  0.1159E+01  0.1159E+01  0.3870E+00  0.3870E+00
      2.744  0.1649E+01  0.1650E+01  0.5073E+00  0.5073E+00
      2.817  0.2364E+01  0.2363E+01  0.6796E+00  0.6796E+00
      2.890  0.3588E+01  0.3588E+01  0.9413E+00  0.9412E+00
      2.963  0.4356E+01  0.4358E+01  0.1259E+01  0.1259E+01
      3.035  0.4887E+01  0.4889E+01  0.1615E+01  0.1615E+01
      3.108  0.6268E+01  0.6268E+01  0.2072E+01  0.2073E+01
      3.181  0.6600E+01  0.6600E+01  0.2554E+01  0.2554E+01
      3.254  0.5051E+01  0.5052E+01  0.2922E+01  0.2922E+01
      3.327  0.5156E+01  0.5158E+01  0.3298E+01  0.3299E+01
      3.400  0.6328E+01  0.6328E+01  0.3760E+01  0.3760E+01
      3.473  0.5278E+01  0.5277E+01  0.4145E+01  0.4145E+01
      3.546  0.4157E+01  0.4158E+01  0.4449E+01  0.4449E+01
      3.619  0.4075E+01  0.4075E+01  0.4746E+01  0.4746E+01
      3.692  0.3851E+01  0.3852E+01  0.5027E+01  0.5027E+01
      3.765  0.4584E+01  0.4584E+01  0.5361E+01  0.5362E+01
      3.838  0.4607E+01  0.4606E+01  0.5698E+01  0.5698E+01
      3.910  0.3872E+01  0.3871E+01  0.5980E+01  0.5981E+01
      3.983  0.3675E+01  0.3675E+01  0.6249E+01  0.6249E+01
      4.056  0.3864E+01  0.3865E+01  0.6530E+01  0.6531E+01
      4.129  0.4662E+01  0.4664E+01  0.6871E+01  0.6871E+01
      4.202  0.5054E+01  0.5054E+01  0.7240E+01  0.7240E+01
      4.275  0.4453E+01  0.4453E+01  0.7564E+01  0.7565E+01
      4.348  0.4233E+01  0.4234E+01  0.7873E+01  0.7874E+01
      4.421  0.4592E+01  0.4593E+01  0.8208E+01  0.8209E+01
      4.494  0.5514E+01  0.5518E+01  0.8611E+01  0.8611E+01
      4.567  0.7493E+01  0.7495E+01  0.9157E+01  0.9158E+01
      4.640  0.8180E+01  0.8178E+01  0.9754E+01  0.9755E+01
      4.712  0.7513E+01  0.7512E+01  0.1030E+02  0.1030E+02
      4.785  0.6767E+01  0.6766E+01  0.1080E+02  0.1080E+02
      4.858  0.5573E+01  0.5572E+01  0.1120E+02  0.1120E+02
      4.931  0.4411E+01  0.4410E+01  0.1152E+02  0.1153E+02
      5.004  0.4252E+01  0.4252E+01  0.1184E+02  0.1184E+02
      5.077  0.4259E+01  0.4259E+01  0.1215E+02  0.1215E+02
      5.150  0.4291E+01  0.4292E+01  0.1246E+02  0.1246E+02
      5.223  0.4781E+01  0.4783E+01  0.1281E+02  0.1281E+02
      5.296  0.5287E+01  0.5288E+01  0.1319E+02  0.1319E+02
      5.369  0.5106E+01  0.5107E+01  0.1357E+02  0.1357E+02
      5.442  0.5386E+01  0.5388E+01  0.1396E+02  0.1396E+02
      5.514  0.6548E+01  0.6550E+01  0.1444E+02  0.1444E+02
      5.587  0.7147E+01  0.7147E+01  0.1496E+02  0.1496E+02
      5.660  0.5744E+01  0.5740E+01  0.1538E+02  0.1538E+02
      5.733  0.4012E+01  0.4009E+01  0.1567E+02  0.1567E+02
      5.806  0.3178E+01  0.3177E+01  0.1590E+02  0.1590E+02
      5.879  0.3757E+01  0.3760E+01  0.1618E+02  0.1618E+02
      5.952  0.5114E+01  0.5117E+01  0.1655E+02  0.1655E+02
      6.025  0.5406E+01  0.5406E+01  0.1694E+02  0.1694E+02
      6.098  0.4844E+01  0.4842E+01  0.1730E+02  0.1730E+02
      6.171  0.3787E+01  0.3784E+01  0.1757E+02  0.1757E+02
      6.244  0.3338E+01  0.3340E+01  0.1782E+02  0.1782E+02
      6.317  0.5063E+01  0.5071E+01  0.1819E+02  0.1819E+02
      6.389  0.7742E+01  0.7747E+01  0.1875E+02  0.1875E+02
      6.462  0.8376E+01  0.8375E+01  0.1936E+02  0.1936E+02
      6.535  0.7034E+01  0.7028E+01  0.1988E+02  0.1988E+02
      6.608  0.5088E+01  0.5083E+01  0.2025E+02  0.2025E+02
      6.681  0.4216E+01  0.4213E+01  0.2055E+02  0.2055E+02
      6.754  0.2686E+01  0.2677E+01  0.2075E+02  0.2075E+02
      6.827  0.1018E+01  0.1015E+01  0.2083E+02  0.2083E+02
      6.900  0.2718E+00  0.2710E+00  0.2085E+02  0.2085E+02
      6.973  0.6537E-01  0.6516E-01  0.2085E+02  0.2085E+02
      7.046  0.1287E-01  0.1283E-01  0.2085E+02  0.2085E+02
      7.119  0.4323E-02  0.4324E-02  0.2085E+02  0.2085E+02
      7.191  0.1804E-01  0.1804E-01  0.2085E+02  0.2085E+02
      7.264  0.7342E-01  0.7343E-01  0.2086E+02  0.2086E+02
      7.337  0.2554E+00  0.2555E+00  0.2088E+02  0.2088E+02
      7.410  0.5724E+00  0.5725E+00  0.2092E+02  0.2092E+02
      7.483  0.7070E+00  0.7073E+00  0.2097E+02  0.2097E+02
      7.556  0.7362E+00  0.7363E+00  0.2102E+02  0.2102E+02
      7.629  0.6809E+00  0.6805E+00  0.2107E+02  0.2107E+02
      7.702  0.8160E+00  0.8157E+00  0.2113E+02  0.2113E+02
      7.775  0.1246E+01  0.1246E+01  0.2122E+02  0.2122E+02
      7.848  0.9827E+00  0.9827E+00  0.2130E+02  0.2130E+02
      7.921  0.3832E+00  0.3831E+00  0.2132E+02  0.2132E+02
      7.994  0.1267E+00  0.1267E+00  0.2133E+02  0.2133E+02
      8.066  0.1258E+00  0.1258E+00  0.2134E+02  0.2134E+02
      8.139  0.3196E+00  0.3195E+00  0.2137E+02  0.2137E+02
      8.212  0.5298E+00  0.5298E+00  0.2140E+02  0.2140E+02
      8.285  0.3701E+00  0.3702E+00  0.2143E+02  0.2143E+02
      8.358  0.1305E+00  0.1305E+00  0.2144E+02  0.2144E+02
      8.431  0.3590E-01  0.3592E-01  0.2144E+02  0.2144E+02
      8.504  0.1659E-01  0.1660E-01  0.2145E+02  0.2145E+02
      8.577  0.3730E-01  0.3729E-01  0.2145E+02  0.2145E+02
      8.650  0.1350E+00  0.1350E+00  0.2146E+02  0.2146E+02
      8.723  0.3794E+00  0.3794E+00  0.2149E+02  0.2149E+02
      8.796  0.5314E+00  0.5315E+00  0.2152E+02  0.2152E+02
      8.868  0.3194E+00  0.3195E+00  0.2155E+02  0.2155E+02
      8.941  0.1550E+00  0.1550E+00  0.2156E+02  0.2156E+02
      9.014  0.2535E+00  0.2534E+00  0.2158E+02  0.2158E+02
      9.087  0.7489E+00  0.7485E+00  0.2163E+02  0.2163E+02
      9.160  0.1495E+01  0.1494E+01  0.2174E+02  0.2174E+02
      9.233  0.1753E+01  0.1753E+01  0.2187E+02  0.2187E+02
      9.306  0.1390E+01  0.1390E+01  0.2197E+02  0.2197E+02
      9.379  0.9267E+00  0.9266E+00  0.2204E+02  0.2204E+02
      9.452  0.6327E+00  0.6333E+00  0.2208E+02  0.2208E+02
      9.525  0.2744E+00  0.2750E+00  0.2210E+02  0.2210E+02
      9.598  0.8445E-01  0.8467E-01  0.2211E+02  0.2211E+02
      9.671  0.4810E-01  0.4815E-01  0.2211E+02  0.2211E+02
      9.743  0.1293E+00  0.1292E+00  0.2212E+02  0.2212E+02
      9.816  0.4373E+00  0.4372E+00  0.2216E+02  0.2216E+02
      9.889  0.9652E+00  0.9651E+00  0.2223E+02  0.2223E+02
      9.962  0.9312E+00  0.9313E+00  0.2229E+02  0.2229E+02
     10.035  0.4007E+00  0.4008E+00  0.2232E+02  0.2232E+02
     10.108  0.1124E+00  0.1124E+00  0.2233E+02  0.2233E+02
     10.181  0.2764E-01  0.2765E-01  0.2233E+02  0.2233E+02
     10.254  0.7430E-02  0.7431E-02  0.2233E+02  0.2233E+02
     10.327  0.4049E-02  0.4045E-02  0.2233E+02  0.2233E+02
     10.400  0.1743E-01  0.1741E-01  0.2233E+02  0.2233E+02
     10.473  0.7147E-01  0.7141E-01  0.2234E+02  0.2234E+02
     10.545  0.2587E+00  0.2585E+00  0.2236E+02  0.2236E+02
     10.618  0.6507E+00  0.6502E+00  0.2241E+02  0.2241E+02
     10.691  0.9431E+00  0.9427E+00  0.2248E+02  0.2248E+02
     10.764  0.9176E+00  0.9176E+00  0.2254E+02  0.2254E+02
     10.837  0.8174E+00  0.8175E+00  0.2260E+02  0.2260E+02
     10.910  0.7429E+00  0.7435E+00  0.2266E+02  0.2266E+02
     10.983  0.6652E+00  0.6658E+00  0.2270E+02  0.2270E+02
     11.056  0.5960E+00  0.5960E+00  0.2275E+02  0.2275E+02
     11.129  0.3114E+00  0.3112E+00  0.2277E+02  0.2277E+02
     11.202  0.1611E+00  0.1609E+00  0.2278E+02  0.2278E+02
     11.275  0.2949E+00  0.2946E+00  0.2280E+02  0.2280E+02
     11.347  0.7728E+00  0.7722E+00  0.2286E+02  0.2286E+02
     11.420  0.1087E+01  0.1087E+01  0.2294E+02  0.2294E+02
     11.493  0.7373E+00  0.7377E+00  0.2299E+02  0.2299E+02
     11.566  0.6408E+00  0.6406E+00  0.2304E+02  0.2304E+02
     11.639  0.1022E+01  0.1022E+01  0.2311E+02  0.2311E+02
     11.712  0.9334E+00  0.9339E+00  0.2318E+02  0.2318E+02
     11.785  0.3915E+00  0.3920E+00  0.2321E+02  0.2321E+02
     11.858  0.1098E+00  0.1100E+00  0.2322E+02  0.2322E+02
     11.931  0.2845E-01  0.2849E-01  0.2322E+02  0.2322E+02
     12.004  0.1418E-01  0.1420E-01  0.2322E+02  0.2322E+02
     12.077  0.3360E-01  0.3364E-01  0.2323E+02  0.2323E+02
     12.150  0.1364E+00  0.1365E+00  0.2324E+02  0.2324E+02
     12.222  0.4682E+00  0.4686E+00  0.2327E+02  0.2327E+02
     12.295  0.9895E+00  0.9897E+00  0.2334E+02  0.2334E+02
     12.368  0.9014E+00  0.9010E+00  0.2341E+02  0.2341E+02
     12.441  0.3728E+00  0.3725E+00  0.2343E+02  0.2343E+02
     12.514  0.1030E+00  0.1029E+00  0.2344E+02  0.2344E+02
     12.587  0.2530E-01  0.2527E-01  0.2344E+02  0.2344E+02
     12.660  0.6820E-02  0.6811E-02  0.2344E+02  0.2344E+02
     12.733  0.4040E-02  0.4027E-02  0.2344E+02  0.2344E+02
     12.806  0.1725E-01  0.1719E-01  0.2345E+02  0.2345E+02
     12.879  0.7233E-01  0.7211E-01  0.2345E+02  0.2345E+02
     12.952  0.2752E+00  0.2744E+00  0.2347E+02  0.2347E+02
     13.024  0.7691E+00  0.7678E+00  0.2353E+02  0.2353E+02
     13.097  0.1077E+01  0.1078E+01  0.2361E+02  0.2361E+02
     13.170  0.6948E+00  0.6961E+00  0.2366E+02  0.2366E+02
     13.243  0.4799E+00  0.4807E+00  0.2369E+02  0.2369E+02
     13.316  0.5716E+00  0.5718E+00  0.2373E+02  0.2373E+02
     13.389  0.4087E+00  0.4086E+00  0.2376E+02  0.2376E+02
     13.462  0.1476E+00  0.1475E+00  0.2377E+02  0.2377E+02
     13.535  0.4475E-01  0.4469E-01  0.2378E+02  0.2378E+02
     13.608  0.3513E-01  0.3503E-01  0.2378E+02  0.2378E+02
     13.681  0.1039E+00  0.1036E+00  0.2379E+02  0.2379E+02
     13.754  0.3242E+00  0.3234E+00  0.2381E+02  0.2381E+02
     13.827  0.6047E+00  0.6044E+00  0.2386E+02  0.2386E+02
     13.899  0.6797E+00  0.6799E+00  0.2390E+02  0.2390E+02
     13.972  0.1073E+01  0.1073E+01  0.2398E+02  0.2398E+02
     14.045  0.1706E+01  0.1706E+01  0.2411E+02  0.2411E+02
     14.118  0.1535E+01  0.1534E+01  0.2422E+02  0.2422E+02
     14.191  0.1332E+01  0.1331E+01  0.2432E+02  0.2432E+02
     14.264  0.1090E+01  0.1091E+01  0.2440E+02  0.2440E+02
     14.337  0.4813E+00  0.4829E+00  0.2443E+02  0.2443E+02
     14.410  0.1362E+00  0.1368E+00  0.2444E+02  0.2444E+02
     14.483  0.3278E-01  0.3292E-01  0.2444E+02  0.2444E+02
     14.556  0.9081E-02  0.9114E-02  0.2444E+02  0.2444E+02
     14.629  0.6322E-02  0.6313E-02  0.2445E+02  0.2445E+02
     14.701  0.2682E-01  0.2678E-01  0.2445E+02  0.2445E+02
     14.774  0.1106E+00  0.1105E+00  0.2446E+02  0.2446E+02
     14.847  0.3969E+00  0.3965E+00  0.2448E+02  0.2448E+02
     14.920  0.9446E+00  0.9441E+00  0.2455E+02  0.2455E+02
     14.993  0.1060E+01  0.1060E+01  0.2463E+02  0.2463E+02
     15.066  0.7010E+00  0.7006E+00  0.2468E+02  0.2468E+02
     15.139  0.6271E+00  0.6261E+00  0.2473E+02  0.2473E+02
     15.212  0.7039E+00  0.7038E+00  0.2478E+02  0.2478E+02
     15.285  0.6365E+00  0.6369E+00  0.2482E+02  0.2482E+02
     15.358  0.8343E+00  0.8334E+00  0.2489E+02  0.2489E+02
     15.431  0.1100E+01  0.1100E+01  0.2497E+02  0.2497E+02
     15.503  0.6810E+00  0.6826E+00  0.2502E+02  0.2502E+02
     15.576  0.2420E+00  0.2427E+00  0.2503E+02  0.2503E+02
     15.649  0.1315E+00  0.1314E+00  0.2504E+02  0.2504E+02
     15.722  0.2971E+00  0.2961E+00  0.2506E+02  0.2506E+02
     15.795  0.7905E+00  0.7889E+00  0.2512E+02  0.2512E+02
     15.868  0.1126E+01  0.1126E+01  0.2520E+02  0.2520E+02
     15.941  0.8437E+00  0.8443E+00  0.2527E+02  0.2527E+02
     16.014  0.6971E+00  0.6971E+00  0.2532E+02  0.2532E+02
     16.087  0.5123E+00  0.5134E+00  0.2535E+02  0.2535E+02
     16.160  0.2895E+00  0.2902E+00  0.2538E+02  0.2538E+02
     16.233  0.3636E+00  0.3634E+00  0.2540E+02  0.2540E+02
     16.306  0.5471E+00  0.5471E+00  0.2544E+02  0.2544E+02
     16.378  0.3973E+00  0.3977E+00  0.2547E+02  0.2547E+02
     16.451  0.2299E+00  0.2298E+00  0.2549E+02  0.2549E+02
     16.524  0.3967E+00  0.3957E+00  0.2552E+02  0.2552E+02
     16.597  0.8978E+00  0.8965E+00  0.2558E+02  0.2558E+02
     16.670  0.1000E+01  0.1001E+01  0.2566E+02  0.2565E+02
     16.743  0.4813E+00  0.4827E+00  0.2569E+02  0.2569E+02
     16.816  0.1462E+00  0.1467E+00  0.2570E+02  0.2570E+02
     16.889  0.5752E-01  0.5756E-01  0.2571E+02  0.2571E+02
     16.962  0.9986E-01  0.9954E-01  0.2571E+02  0.2571E+02
     17.035  0.2941E+00  0.2932E+00  0.2573E+02  0.2573E+02
     17.108  0.5411E+00  0.5407E+00  0.2577E+02  0.2577E+02
     17.180  0.4675E+00  0.4677E+00  0.2581E+02  0.2581E+02
     17.253  0.4333E+00  0.4316E+00  0.2584E+02  0.2584E+02
     17.326  0.9594E+00  0.9547E+00  0.2591E+02  0.2591E+02
     17.399  0.1772E+01  0.1770E+01  0.2604E+02  0.2604E+02
     17.472  0.1715E+01  0.1719E+01  0.2616E+02  0.2616E+02
     17.545  0.9125E+00  0.9164E+00  0.2623E+02  0.2623E+02
     17.618  0.3073E+00  0.3091E+00  0.2625E+02  0.2625E+02
     17.691  0.1016E+00  0.1020E+00  0.2626E+02  0.2626E+02
     17.764  0.1170E+00  0.1167E+00  0.2627E+02  0.2627E+02
     17.837  0.3913E+00  0.3898E+00  0.2630E+02  0.2630E+02
     17.910  0.1239E+01  0.1236E+01  0.2639E+02  0.2639E+02
     17.983  0.2441E+01  0.2438E+01  0.2657E+02  0.2656E+02
     18.055  0.2645E+01  0.2645E+01  0.2676E+02  0.2676E+02
     18.128  0.2013E+01  0.2014E+01  0.2690E+02  0.2690E+02
     18.201  0.1215E+01  0.1219E+01  0.2699E+02  0.2699E+02
     18.274  0.4884E+00  0.4905E+00  0.2703E+02  0.2703E+02
     18.347  0.2764E+00  0.2761E+00  0.2705E+02  0.2705E+02
     18.420  0.5662E+00  0.5637E+00  0.2709E+02  0.2709E+02
     18.493  0.1178E+01  0.1176E+01  0.2718E+02  0.2718E+02
     18.566  0.1402E+01  0.1402E+01  0.2728E+02  0.2728E+02
     18.639  0.1374E+01  0.1375E+01  0.2738E+02  0.2738E+02
     18.712  0.9313E+00  0.9341E+00  0.2745E+02  0.2745E+02
     18.785  0.3451E+00  0.3468E+00  0.2747E+02  0.2747E+02
     18.857  0.9377E-01  0.9428E-01  0.2748E+02  0.2748E+02
     18.930  0.2873E-01  0.2882E-01  0.2748E+02  0.2748E+02
     19.003  0.3773E-01  0.3762E-01  0.2748E+02  0.2748E+02
     19.076  0.1264E+00  0.1260E+00  0.2749E+02  0.2749E+02
     19.149  0.3638E+00  0.3630E+00  0.2752E+02  0.2752E+02
     19.222  0.5330E+00  0.5331E+00  0.2756E+02  0.2756E+02
     19.295  0.3302E+00  0.3311E+00  0.2758E+02  0.2758E+02
     19.368  0.1435E+00  0.1439E+00  0.2759E+02  0.2759E+02
     19.441  0.1746E+00  0.1748E+00  0.2761E+02  0.2761E+02
     19.514  0.4218E+00  0.4216E+00  0.2764E+02  0.2764E+02
     19.587  0.6190E+00  0.6166E+00  0.2768E+02  0.2768E+02
     19.659  0.5398E+00  0.5319E+00  0.2772E+02  0.2772E+02
     19.732  0.5591E+00  0.5360E+00  0.2776E+02  0.2776E+02
     19.805  0.9124E+00  0.8773E+00  0.2783E+02  0.2782E+02
     19.878  0.1059E+01  0.1072E+01  0.2791E+02  0.2790E+02
     19.951  0.5512E+00  0.5863E+00  0.2795E+02  0.2795E+02
     20.024  0.1681E+00  0.1829E+00  0.2796E+02  0.2796E+02
     20.097  0.4172E-01  0.4572E-01  0.2796E+02  0.2796E+02
     20.170  0.9874E-02  0.1084E-01  0.2796E+02  0.2796E+02
     20.243  0.0000E+00  0.0000E+00  0.2796E+02  0.2796E+02
     20.316  0.0000E+00  0.0000E+00  0.2796E+02  0.2796E+02
     20.389  0.0000E+00  0.0000E+00  0.2796E+02  0.2796E+02
     20.462  0.0000E+00  0.0000E+00  0.2796E+02  0.2796E+02
     20.534  0.0000E+00  0.0000E+00  0.2796E+02  0.2796E+02
     20.607  0.0000E+00  0.0000E+00  0.2796E+02  0.2796E+02
     20.680  0.0000E+00  0.0000E+00  0.2796E+02  0.2796E+02
     20.753  0.0000E+00  0.0000E+00  0.2796E+02  0.2796E+02
     20.826  0.4739E-04  0.1018E-03  0.2796E+02  0.2796E+02
     20.899  0.1562E-03  0.3356E-03  0.2796E+02  0.2796E+02
     20.972  0.6705E-03  0.1438E-02  0.2796E+02  0.2796E+02
     21.045  0.2862E-02  0.6088E-02  0.2796E+02  0.2796E+02
     21.118  0.1194E-01  0.2458E-01  0.2796E+02  0.2797E+02
     21.191  0.4549E-01  0.8294E-01  0.2797E+02  0.2797E+02
     21.264  0.1270E+00  0.1682E+00  0.2798E+02  0.2798E+02
     21.336  0.1759E+00  0.1454E+00  0.2799E+02  0.2799E+02
     21.409  0.1011E+00  0.5807E-01  0.2800E+02  0.2800E+02
     21.482  0.3214E-01  0.1584E-01  0.2800E+02  0.2800E+02
     21.555  0.8125E-02  0.3833E-02  0.2800E+02  0.2800E+02
     21.628  0.1929E-02  0.9002E-03  0.2800E+02  0.2800E+02
     21.701  0.0000E+00  0.0000E+00  0.2800E+02  0.2800E+02
     21.774  0.0000E+00  0.0000E+00  0.2800E+02  0.2800E+02
     21.847  0.0000E+00  0.0000E+00  0.2800E+02  0.2800E+02
     21.920  0.0000E+00  0.0000E+00  0.2800E+02  0.2800E+02
     21.993  0.0000E+00  0.0000E+00  0.2800E+02  0.2800E+02
     22.066  0.0000E+00  0.0000E+00  0.2800E+02  0.2800E+02
     22.139  0.0000E+00  0.0000E+00  0.2800E+02  0.2800E+02
     22.211  0.0000E+00  0.0000E+00  0.2800E+02  0.2800E+02
     22.284  0.0000E+00  0.0000E+00  0.2800E+02  0.2800E+02
     22.28434492      0.41062716  301      9.33547936      1.00000000
      0.411  0.0000E+00  0.0000E+00  0.0000E+00  0.0000E+00  0.0000E+00  0.0000E+00  0.0000E+00  0.0000E+00  0.0000E+00  0.0000E+00  0.0000E+00  0.0000E+00  0.0000E+00  0.0000E+00  0.0000E+00  0.0000E+00  0.0000E+00  0.0000E+00
      0.484  0.0000E+00  0.0000E+00  0.0000E+00  0.0000E+00  0.0000E+00  0.0000E+00  0.0000E+00  0.0000E+00  0.0000E+00  0.0000E+00  0.0000E+00  0.0000E+00  0.0000E+00  0.0000E+00  0.0000E+00  0.0000E+00  0.0000E+00  0.0000E+00
      0.556  0.0000E+00  0.0000E+00  0.0000E+00  0.0000E+00  0.0000E+00  0.0000E+00  0.0000E+00  0.0000E+00  0.0000E+00  0.0000E+00  0.0000E+00  0.0000E+00  0.0000E+00  0.0000E+00  0.0000E+00  0.0000E+00  0.0000E+00  0.0000E+00
      0.629  0.0000E+00  0.0000E+00  0.0000E+00  0.0000E+00  0.0000E+00  0.0000E+00  0.0000E+00  0.0000E+00  0.0000E+00  0.0000E+00  0.0000E+00  0.0000E+00  0.0000E+00  0.0000E+00  0.0000E+00  0.0000E+00  0.0000E+00  0.0000E+00
      0.702  0.0000E+00  0.0000E+00  0.0000E+00  0.0000E+00  0.0000E+00  0.0000E+00  0.0000E+00  0.0000E+00  0.0000E+00  0.0000E+00  0.0000E+00  0.0000E+00  0.0000E+00  0.0000E+00  0.0000E+00  0.0000E+00  0.0000E+00  0.0000E+00
      0.775  0.0000E+00  0.0000E+00  0.0000E+00  0.0000E+00  0.0000E+00  0.0000E+00  0.0000E+00  0.0000E+00  0.0000E+00  0.0000E+00  0.0000E+00  0.0000E+00  0.0000E+00  0.0000E+00  0.0000E+00  0.0000E+00  0.0000E+00  0.0000E+00
      0.848  0.0000E+00  0.0000E+00  0.0000E+00  0.0000E+00  0.0000E+00  0.0000E+00  0.0000E+00  0.0000E+00  0.0000E+00  0.0000E+00  0.0000E+00  0.0000E+00  0.0000E+00  0.0000E+00  0.0000E+00  0.0000E+00  0.0000E+00  0.0000E+00
      0.921  0.0000E+00  0.0000E+00  0.0000E+00  0.0000E+00  0.0000E+00  0.0000E+00  0.0000E+00  0.0000E+00  0.0000E+00  0.0000E+00  0.0000E+00  0.0000E+00  0.0000E+00  0.0000E+00  0.0000E+00  0.0000E+00  0.0000E+00  0.0000E+00
      0.994  0.2027E-04  0.2015E-04  0.1401E-06  0.1393E-06  0.1401E-06  0.1393E-06  0.1401E-06  0.1393E-06  0.1827E-07  0.1817E-07  0.1827E-07  0.1817E-07  0.8652E-21  0.1176E-20  0.1827E-07  0.1817E-07  0.8652E-21  0.1176E-20
      1.067  0.6678E-04  0.6639E-04  0.4617E-06  0.4590E-06  0.4617E-06  0.4590E-06  0.4617E-06  0.4590E-06  0.6019E-07  0.5985E-07  0.6019E-07  0.5985E-07  0.2851E-20  0.3874E-20  0.6019E-07  0.5985E-07  0.2851E-20  0.3874E-20
      1.140  0.2857E-03  0.2840E-03  0.1975E-05  0.1964E-05  0.1975E-05  0.1964E-05  0.1975E-05  0.1964E-05  0.2575E-06  0.2561E-06  0.2575E-06  0.2561E-06  0.1220E-19  0.1657E-19  0.2575E-06  0.2561E-06  0.1220E-19  0.1657E-19
      1.213  0.1204E-02  0.1197E-02  0.8323E-05  0.8275E-05  0.8323E-05  0.8275E-05  0.8323E-05  0.8275E-05  0.1085E-05  0.1079E-05  0.1085E-05  0.1079E-05  0.5138E-19  0.6984E-19  0.1085E-05  0.1079E-05  0.5138E-19  0.6984E-19
      1.286  0.4762E-02  0.4737E-02  0.3292E-04  0.3275E-04  0.3292E-04  0.3275E-04  0.3292E-04  0.3275E-04  0.4292E-05  0.4271E-05  0.4292E-05  0.4271E-05  0.2033E-18  0.2764E-18  0.4292E-05  0.4271E-05  0.2033E-18  0.2764E-18
      1.358  0.1498E-01  0.1493E-01  0.1036E-03  0.1032E-03  0.1036E-03  0.1032E-03  0.1036E-03  0.1032E-03  0.1351E-04  0.1346E-04  0.1351E-04  0.1346E-04  0.6396E-18  0.8710E-18  0.1351E-04  0.1346E-04  0.6396E-18  0.8710E-18
      1.431  0.2605E-01  0.2604E-01  0.1801E-03  0.1800E-03  0.1801E-03  0.1800E-03  0.1801E-03  0.1800E-03  0.2348E-04  0.2348E-04  0.2348E-04  0.2348E-04  0.1112E-17  0.1519E-17  0.2348E-04  0.2348E-04  0.1112E-17  0.1519E-17
      1.504  0.1883E-01  0.1889E-01  0.1305E-03  0.1309E-03  0.1305E-03  0.1309E-03  0.1305E-03  0.1309E-03  0.1709E-04  0.1714E-04  0.1709E-04  0.1714E-04  0.1125E-06  0.1119E-06  0.1709E-04  0.1714E-04  0.1125E-06  0.1119E-06
      1.577  0.6795E-02  0.6828E-02  0.4801E-04  0.4823E-04  0.4801E-04  0.4823E-04  0.4801E-04  0.4823E-04  0.6488E-05  0.6518E-05  0.6488E-05  0.6518E-05  0.3711E-06  0.3690E-06  0.6488E-05  0.6518E-05  0.3711E-06  0.3690E-06
      1.650  0.2008E-02  0.2017E-02  0.1830E-04  0.1833E-04  0.1830E-04  0.1833E-04  0.1830E-04  0.1833E-04  0.3372E-05  0.3372E-05  0.3372E-05  0.3372E-05  0.1593E-05  0.1584E-05  0.3372E-05  0.3372E-05  0.1593E-05  0.1584E-05
      1.723  0.1445E-02  0.1442E-02  0.2885E-04  0.2872E-04  0.2885E-04  0.2872E-04  0.2885E-04  0.2872E-04  0.7976E-05  0.7938E-05  0.7976E-05  0.7938E-05  0.6805E-05  0.6767E-05  0.7976E-05  0.7938E-05  0.6805E-05  0.6767E-05
      1.796  0.4377E-02  0.4354E-02  0.1093E-03  0.1087E-03  0.1093E-03  0.1087E-03  0.1093E-03  0.1087E-03  0.3191E-04  0.3174E-04  0.3191E-04  0.3174E-04  0.2851E-04  0.2836E-04  0.3191E-04  0.3174E-04  0.2851E-04  0.2836E-04
      1.869  0.1655E-01  0.1647E-01  0.4201E-03  0.4180E-03  0.4201E-03  0.4180E-03  0.4201E-03  0.4180E-03  0.1231E-03  0.1225E-03  0.1231E-03  0.1225E-03  0.1103E-03  0.1098E-03  0.1231E-03  0.1225E-03  0.1103E-03  0.1098E-03
      1.942  0.4847E-01  0.4832E-01  0.1230E-02  0.1226E-02  0.1230E-02  0.1226E-02  0.1230E-02  0.1226E-02  0.3605E-03  0.3594E-03  0.3605E-03  0.3594E-03  0.3230E-03  0.3220E-03  0.3605E-03  0.3594E-03  0.3230E-03  0.3220E-03
      2.015  0.7321E-01  0.7321E-01  0.1859E-02  0.1859E-02  0.1859E-02  0.1859E-02  0.1859E-02  0.1859E-02  0.5462E-03  0.5464E-03  0.5462E-03  0.5464E-03  0.4878E-03  0.4879E-03  0.5462E-03  0.5464E-03  0.4878E-03  0.4879E-03
      2.088  0.4578E-01  0.4593E-01  0.1164E-02  0.1167E-02  0.1164E-02  0.1167E-02  0.1164E-02  0.1167E-02  0.3460E-03  0.3473E-03  0.3460E-03  0.3473E-03  0.3048E-03  0.3059E-03  0.3460E-03  0.3473E-03  0.3048E-03  0.3059E-03
      2.161  0.1560E-01  0.1567E-01  0.4028E-03  0.4047E-03  0.4028E-03  0.4047E-03  0.4028E-03  0.4047E-03  0.1399E-03  0.1404E-03  0.1399E-03  0.1404E-03  0.1029E-03  0.1034E-03  0.1399E-03  0.1404E-03  0.1029E-03  0.1034E-03
      2.233  0.5935E-02  0.5946E-02  0.1804E-03  0.1805E-03  0.1804E-03  0.1805E-03  0.1804E-03  0.1805E-03  0.1552E-03  0.1548E-03  0.1552E-03  0.1548E-03  0.6010E-04  0.6018E-04  0.1552E-03  0.1548E-03  0.6010E-04  0.6018E-04
      2.306  0.9298E-02  0.9264E-02  0.3566E-03  0.3552E-03  0.3566E-03  0.3552E-03  0.3566E-03  0.3552E-03  0.5230E-03  0.5210E-03  0.5230E-03  0.5210E-03  0.1262E-03  0.1260E-03  0.5230E-03  0.5210E-03  0.1262E-03  0.1260E-03
      2.379  0.2884E-01  0.2873E-01  0.1147E-02  0.1142E-02  0.1147E-02  0.1142E-02  0.1147E-02  0.1142E-02  0.1812E-02  0.1807E-02  0.1812E-02  0.1807E-02  0.4840E-03  0.4833E-03  0.1812E-02  0.1807E-02  0.4840E-03  0.4833E-03
      2.452  0.6173E-01  0.6165E-01  0.2450E-02  0.2447E-02  0.2450E-02  0.2447E-02  0.2450E-02  0.2447E-02  0.4248E-02  0.4245E-02  0.4248E-02  0.4245E-02  0.1807E-02  0.1805E-02  0.4248E-02  0.4245E-02  0.1807E-02  0.1805E-02
      2.525  0.6032E-01  0.6040E-01  0.2363E-02  0.2367E-02  0.2363E-02  0.2367E-02  0.2363E-02  0.2367E-02  0.6419E-02  0.6426E-02  0.6419E-02  0.6426E-02  0.6554E-02  0.6549E-02  0.6419E-02  0.6426E-02  0.6554E-02  0.6549E-02
      2.598  0.3958E-01  0.3964E-01  0.1439E-02  0.1441E-02  0.1439E-02  0.1441E-02  0.1439E-02  0.1441E-02  0.1300E-01  0.1301E-01  0.1300E-01  0.1301E-01  0.2210E-01  0.2208E-01  0.1300E-01  0.1301E-01  0.2210E-01  0.2208E-01
      2.671  0.4068E-01  0.4070E-01  0.1327E-02  0.1327E-02  0.1327E-02  0.1327E-02  0.1327E-02  0.1327E-02  0.3112E-01  0.3115E-01  0.3112E-01  0.3115E-01  0.4908E-01  0.4907E-01  0.3112E-01  0.3115E-01  0.4908E-01  0.4907E-01
      2.744  0.4911E-01  0.4909E-01  0.1761E-02  0.1759E-02  0.1761E-02  0.1759E-02  0.1761E-02  0.1759E-02  0.5999E-01  0.6004E-01  0.5999E-01  0.6004E-01  0.5415E-01  0.5415E-01  0.5999E-01  0.6004E-01  0.5415E-01  0.5415E-01
      2.817  0.7528E-01  0.7518E-01  0.3568E-02  0.3562E-02  0.3568E-02  0.3562E-02  0.3568E-02  0.3562E-02  0.9787E-01  0.9790E-01  0.9787E-01  0.9790E-01  0.5499E-01  0.5498E-01  0.9787E-01  0.9790E-01  0.5499E-01  0.5498E-01
      2.890  0.1191E+00  0.1190E+00  0.6452E-02  0.6449E-02  0.6452E-02  0.6449E-02  0.6452E-02  0.6449E-02  0.1319E+00  0.1319E+00  0.1319E+00  0.1319E+00  0.1018E+00  0.1018E+00  0.1319E+00  0.1319E+00  0.1018E+00  0.1018E+00
      2.963  0.1210E+00  0.1211E+00  0.7037E-02  0.7041E-02  0.7037E-02  0.7041E-02  0.7037E-02  0.7041E-02  0.1538E+00  0.1539E+00  0.1538E+00  0.1539E+00  0.1518E+00  0.1518E+00  0.1538E+00  0.1539E+00  0.1518E+00  0.1518E+00
      3.035  0.1116E+00  0.1116E+00  0.7521E-02  0.7521E-02  0.7521E-02  0.7521E-02  0.7521E-02  0.7521E-02  0.2047E+00  0.2048E+00  0.2047E+00  0.2048E+00  0.1432E+00  0.1432E+00  0.2047E+00  0.2048E+00  0.1432E+00  0.1432E+00
      3.108  0.1495E+00  0.1494E+00  0.1156E-01  0.1155E-01  0.1156E-01  0.1155E-01  0.1156E-01  0.1155E-01  0.2815E+00  0.2816E+00  0.2815E+00  0.2816E+00  0.1484E+00  0.1484E+00  0.2815E+00  0.2816E+00  0.1484E+00  0.1484E+00
      3.181  0.1554E+00  0.1554E+00  0.1378E-01  0.1378E-01  0.1378E-01  0.1378E-01  0.1378E-01  0.1378E-01  0.2864E+00  0.2864E+00  0.2864E+00  0.2864E+00  0.1687E+00  0.1687E+00  0.2864E+00  0.2864E+00  0.1687E+00  0.1687E+00
      3.254  0.9865E-01  0.9870E-01  0.1062E-01  0.1062E-01  0.1062E-01  0.1062E-01  0.1062E-01  0.1062E-01  0.2163E+00  0.2163E+00  0.2163E+00  0.2163E+00  0.1480E+00  0.1480E+00  0.2163E+00  0.2163E+00  0.1480E+00  0.1480E+00
      3.327  0.7290E-01  0.7292E-01  0.1037E-01  0.1037E-01  0.1037E-01  0.1037E-01  0.1037E-01  0.1037E-01  0.2192E+00  0.2193E+00  0.2192E+00  0.2193E+00  0.1757E+00  0.1757E+00  0.2192E+00  0.2193E+00  0.1757E+00  0.1757E+00
      3.400  0.7390E-01  0.7388E-01  0.1230E-01  0.1230E-01  0.1230E-01  0.1230E-01  0.1230E-01  0.1230E-01  0.2570E+00  0.2570E+00  0.2570E+00  0.2570E+00  0.2458E+00  0.2458E+00  0.2570E+00  0.2570E+00  0.2458E+00  0.2458E+00
      3.473  0.5626E-01  0.5625E-01  0.1016E-01  0.1016E-01  0.1016E-01  0.1016E-01  0.1016E-01  0.1016E-01  0.2167E+00  0.2167E+00  0.2167E+00  0.2167E+00  0.2066E+00  0.2066E+00  0.2167E+00  0.2167E+00  0.2066E+00  0.2066E+00
      3.546  0.4044E-01  0.4044E-01  0.9260E-02  0.9263E-02  0.9260E-02  0.9263E-02  0.9260E-02  0.9263E-02  0.1853E+00  0.1853E+00  0.1853E+00  0.1853E+00  0.1426E+00  0.1426E+00  0.1853E+00  0.1853E+00  0.1426E+00  0.1426E+00
      3.619  0.3617E-01  0.3615E-01  0.1056E-01  0.1057E-01  0.1056E-01  0.1057E-01  0.1056E-01  0.1057E-01  0.1910E+00  0.1910E+00  0.1910E+00  0.1910E+00  0.1259E+00  0.1259E+00  0.1910E+00  0.1910E+00  0.1259E+00  0.1259E+00
      3.692  0.2490E-01  0.2488E-01  0.1079E-01  0.1079E-01  0.1079E-01  0.1079E-01  0.1079E-01  0.1079E-01  0.1818E+00  0.1819E+00  0.1818E+00  0.1819E+00  0.1223E+00  0.1223E+00  0.1818E+00  0.1819E+00  0.1223E+00  0.1223E+00
      3.765  0.2011E-01  0.2011E-01  0.1316E-01  0.1316E-01  0.1316E-01  0.1316E-01  0.1316E-01  0.1316E-01  0.2046E+00  0.2046E+00  0.2046E+00  0.2046E+00  0.1692E+00  0.1693E+00  0.2046E+00  0.2046E+00  0.1692E+00  0.1693E+00
      3.838  0.1805E-01  0.1805E-01  0.1328E-01  0.1328E-01  0.1328E-01  0.1328E-01  0.1328E-01  0.1328E-01  0.1862E+00  0.1861E+00  0.1862E+00  0.1861E+00  0.2001E+00  0.2002E+00  0.1862E+00  0.1861E+00  0.2001E+00  0.2002E+00
      3.910  0.1315E-01  0.1315E-01  0.1172E-01  0.1172E-01  0.1172E-01  0.1172E-01  0.1172E-01  0.1172E-01  0.1361E+00  0.1360E+00  0.1361E+00  0.1360E+00  0.1990E+00  0.1990E+00  0.1361E+00  0.1360E+00  0.1990E+00  0.1990E+00
      3.983  0.1441E-01  0.1441E-01  0.1049E-01  0.1049E-01  0.1049E-01  0.1049E-01  0.1049E-01  0.1049E-01  0.1312E+00  0.1312E+00  0.1312E+00  0.1312E+00  0.1876E+00  0.1876E+00  0.1312E+00  0.1312E+00  0.1876E+00  0.1876E+00
      4.056  0.1757E-01  0.1757E-01  0.8724E-02  0.8723E-02  0.8724E-02  0.8723E-02  0.8724E-02  0.8723E-02  0.1597E+00  0.1597E+00  0.1597E+00  0.1597E+00  0.1716E+00  0.1716E+00  0.1597E+00  0.1597E+00  0.1716E+00  0.1716E+00