   4   4   1   0
  0.1534097E+02  0.3944310E-09  0.3944310E-09  0.3944310E-09  0.5000000E-15
  1.000000000000000E-004
  CAR 
 unknown system                          
     23.03780019      0.62636622  301      9.80413734      1.00000000
      0.626  0.0000E+00  0.0000E+00  0.0000E+00  0.0000E+00
      0.701  0.0000E+00  0.0000E+00  0.0000E+00  0.0000E+00
      0.776  0.0000E+00  0.0000E+00  0.0000E+00  0.0000E+00
      0.850  0.0000E+00  0.0000E+00  0.0000E+00  0.0000E+00
      0.925  0.0000E+00  0.0000E+00  0.0000E+00  0.0000E+00
      1.000  0.0000E+00  0.0000E+00  0.0000E+00  0.0000E+00
      1.075  0.0000E+00  0.0000E+00  0.0000E+00  0.0000E+00
      1.149  0.0000E+00  0.0000E+00  0.0000E+00  0.0000E+00
      1.224  0.1091E-03  0.1087E-03  0.8151E-05  0.8124E-05
      1.299  0.3767E-03  0.3754E-03  0.3629E-04  0.3617E-04
      1.373  0.1671E-02  0.1666E-02  0.1611E-03  0.1606E-03
      1.448  0.7311E-02  0.7286E-02  0.7073E-03  0.7049E-03
      1.523  0.3010E-01  0.3001E-01  0.2956E-02  0.2947E-02
      1.598  0.9862E-01  0.9840E-01  0.1032E-01  0.1030E-01
      1.672  0.1754E+00  0.1754E+00  0.2343E-01  0.2340E-01
      1.747  0.1250E+00  0.1252E+00  0.3277E-01  0.3275E-01
      1.822  0.4351E-01  0.4363E-01  0.3602E-01  0.3601E-01
      1.896  0.1231E-01  0.1234E-01  0.3694E-01  0.3693E-01
      1.971  0.8942E-02  0.8930E-02  0.3760E-01  0.3760E-01
      2.046  0.2801E-01  0.2793E-01  0.3975E-01  0.3974E-01
      2.120  0.1129E+00  0.1126E+00  0.4819E-01  0.4815E-01
      2.195  0.3445E+00  0.3439E+00  0.7392E-01  0.7384E-01
      2.270  0.5310E+00  0.5311E+00  0.1136E+00  0.1135E+00
      2.345  0.3266E+00  0.3273E+00  0.1380E+00  0.1380E+00
      2.419  0.1072E+00  0.1075E+00  0.1460E+00  0.1460E+00
      2.494  0.4110E-01  0.4114E-01  0.1491E+00  0.1491E+00
      2.569  0.7128E-01  0.7116E-01  0.1544E+00  0.1544E+00
      2.643  0.2357E+00  0.2353E+00  0.1721E+00  0.1721E+00
      2.718  0.5327E+00  0.5325E+00  0.2119E+00  0.2119E+00
      2.793  0.6117E+00  0.6125E+00  0.2576E+00  0.2576E+00
      2.868  0.7403E+00  0.7416E+00  0.3129E+00  0.3130E+00
      2.942  0.1229E+01  0.1230E+01  0.4047E+00  0.4049E+00
      3.017  0.1625E+01  0.1626E+01  0.5261E+00  0.5264E+00
      3.092  0.2383E+01  0.2385E+01  0.7042E+00  0.7046E+00
      3.166  0.3645E+01  0.3647E+01  0.9765E+00  0.9770E+00
      3.241  0.4247E+01  0.4249E+01  0.1294E+01  0.1294E+01
      3.316  0.4708E+01  0.4711E+01  0.1646E+01  0.1646E+01
      3.390  0.6150E+01  0.6153E+01  0.2105E+01  0.2106E+01
      3.465  0.6386E+01  0.6384E+01  0.2582E+01  0.2583E+01
      3.540  0.4702E+01  0.4700E+01  0.2934E+01  0.2934E+01
      3.615  0.4940E+01  0.4945E+01  0.3303E+01  0.3304E+01
      3.689  0.6185E+01  0.6185E+01  0.3765E+01  0.3766E+01
      3.764  0.5042E+01  0.5037E+01  0.4142E+01  0.4143E+01
      3.839  0.3901E+01  0.3901E+01  0.4434E+01  0.4435E+01
      3.913  0.3914E+01  0.3914E+01  0.4727E+01  0.4728E+01
      3.988  0.3617E+01  0.3618E+01  0.4997E+01  0.4998E+01
      4.063  0.4328E+01  0.4331E+01  0.5321E+01  0.5322E+01
      4.137  0.4551E+01  0.4549E+01  0.5661E+01  0.5662E+01
      4.212  0.3723E+01  0.3722E+01  0.5939E+01  0.5940E+01
      4.287  0.3464E+01  0.3463E+01  0.6198E+01  0.6199E+01
      4.362  0.3473E+01  0.3475E+01  0.6458E+01  0.6459E+01
      4.436  0.4187E+01  0.4191E+01  0.6771E+01  0.6772E+01
      4.511  0.4829E+01  0.4830E+01  0.7132E+01  0.7133E+01
      4.586  0.4504E+01  0.4502E+01  0.7469E+01  0.7470E+01
      4.660  0.3966E+01  0.3967E+01  0.7765E+01  0.7766E+01
      4.735  0.4200E+01  0.4201E+01  0.8079E+01  0.8080E+01
      4.810  0.4569E+01  0.4573E+01  0.8421E+01  0.8422E+01
      4.885  0.6361E+01  0.6370E+01  0.8896E+01  0.8898E+01
      4.959  0.7863E+01  0.7864E+01  0.9484E+01  0.9486E+01
      5.034  0.7408E+01  0.7404E+01  0.1004E+02  0.1004E+02
      5.109  0.6841E+01  0.6840E+01  0.1055E+02  0.1055E+02
      5.183  0.6093E+01  0.6089E+01  0.1100E+02  0.1101E+02
      5.258  0.4668E+01  0.4663E+01  0.1135E+02  0.1135E+02
      5.333  0.3873E+01  0.3873E+01  0.1164E+02  0.1164E+02
      5.407  0.4056E+01  0.4057E+01  0.1195E+02  0.1195E+02
      5.482  0.4058E+01  0.4059E+01  0.1225E+02  0.1225E+02
      5.557  0.4221E+01  0.4224E+01  0.1257E+02  0.1257E+02
      5.632  0.4838E+01  0.4841E+01  0.1293E+02  0.1293E+02
      5.706  0.4982E+01  0.4980E+01  0.1330E+02  0.1330E+02
      5.781  0.4587E+01  0.4589E+01  0.1364E+02  0.1364E+02
      5.856  0.5236E+01  0.5242E+01  0.1403E+02  0.1404E+02
      5.930  0.6568E+01  0.6573E+01  0.1452E+02  0.1453E+02
      6.005  0.6782E+01  0.6778E+01  0.1503E+02  0.1503E+02
      6.080  0.5106E+01  0.5098E+01  0.1541E+02  0.1542E+02
      6.155  0.3586E+01  0.3581E+01  0.1568E+02  0.1568E+02
      6.229  0.2905E+01  0.2903E+01  0.1590E+02  0.1590E+02
      6.304  0.3505E+01  0.3512E+01  0.1616E+02  0.1616E+02
      6.379  0.4910E+01  0.4916E+01  0.1653E+02  0.1653E+02
      6.453  0.5173E+01  0.5172E+01  0.1691E+02  0.1692E+02
      6.528  0.4659E+01  0.4656E+01  0.1726E+02  0.1726E+02
      6.603  0.3672E+01  0.3665E+01  0.1754E+02  0.1754E+02
      6.677  0.2967E+01  0.2967E+01  0.1776E+02  0.1776E+02
      6.752  0.4226E+01  0.4240E+01  0.1808E+02  0.1808E+02
      6.827  0.7031E+01  0.7045E+01  0.1860E+02  0.1860E+02
      6.902  0.8086E+01  0.8086E+01  0.1921E+02  0.1921E+02
      6.976  0.7269E+01  0.7259E+01  0.1975E+02  0.1975E+02
      7.051  0.5263E+01  0.5252E+01  0.2014E+02  0.2014E+02
      7.126  0.4391E+01  0.4387E+01  0.2047E+02  0.2047E+02
      7.200  0.3262E+01  0.3252E+01  0.2071E+02  0.2072E+02
      7.275  0.1352E+01  0.1343E+01  0.2082E+02  0.2082E+02
      7.350  0.3636E+00  0.3608E+00  0.2084E+02  0.2084E+02
      7.425  0.8499E-01  0.8432E-01  0.2085E+02  0.2085E+02
      7.499  0.1960E-01  0.1945E-01  0.2085E+02  0.2085E+02
      7.574  0.4272E-02  0.4291E-02  0.2085E+02  0.2085E+02
      7.649  0.1859E-01  0.1867E-01  0.2085E+02  0.2085E+02
      7.723  0.7792E-01  0.7823E-01  0.2086E+02  0.2086E+02
      7.798  0.2712E+00  0.2720E+00  0.2088E+02  0.2088E+02
      7.873  0.5670E+00  0.5676E+00  0.2092E+02  0.2092E+02
      7.947  0.6197E+00  0.6197E+00  0.2097E+02  0.2097E+02
      8.022  0.6827E+00  0.6832E+00  0.2102E+02  0.2102E+02
      8.097  0.7737E+00  0.7733E+00  0.2108E+02  0.2108E+02
      8.172  0.8784E+00  0.8790E+00  0.2114E+02  0.2114E+02
      8.246  0.1172E+01  0.1173E+01  0.2123E+02  0.2123E+02
      8.321  0.9156E+00  0.9140E+00  0.2130E+02  0.2130E+02
      8.396  0.3533E+00  0.3521E+00  0.2133E+02  0.2133E+02
      8.470  0.1184E+00  0.1182E+00  0.2133E+02  0.2133E+02
      8.545  0.1359E+00  0.1361E+00  0.2134E+02  0.2134E+02
      8.620  0.3540E+00  0.3546E+00  0.2137E+02  0.2137E+02
      8.694  0.5305E+00  0.5304E+00  0.2141E+02  0.2141E+02
      8.769  0.3213E+00  0.3207E+00  0.2143E+02  0.2143E+02
      8.844  0.1023E+00  0.1020E+00  0.2144E+02  0.2144E+02
      8.919  0.2832E-01  0.2825E-01  0.2144E+02  0.2144E+02
      8.993  0.2066E-01  0.2067E-01  0.2145E+02  0.2145E+02
      9.068  0.6309E-01  0.6322E-01  0.2145E+02  0.2145E+02
      9.143  0.2258E+00  0.2261E+00  0.2147E+02  0.2147E+02
      9.217  0.4926E+00  0.4928E+00  0.2150E+02  0.2150E+02
      9.292  0.4494E+00  0.4491E+00  0.2154E+02  0.2154E+02
      9.367  0.1898E+00  0.1895E+00  0.2155E+02  0.2155E+02
      9.442  0.9616E-01  0.9623E-01  0.2156E+02  0.2156E+02
      9.516  0.2159E+00  0.2165E+00  0.2158E+02  0.2158E+02
      9.591  0.7259E+00  0.7275E+00  0.2163E+02  0.2163E+02
      9.666  0.1634E+01  0.1636E+01  0.2175E+02  0.2175E+02
      9.740  0.1998E+01  0.1997E+01  0.2190E+02  0.2190E+02
      9.815  0.1503E+01  0.1502E+01  0.2201E+02  0.2201E+02
      9.890  0.8596E+00  0.8586E+00  0.2208E+02  0.2208E+02
      9.964  0.3333E+00  0.3328E+00  0.2210E+02  0.2210E+02
     10.039  0.9190E-01  0.9176E-01  0.2211E+02  0.2211E+02
     10.114  0.2834E-01  0.2833E-01  0.2211E+02  0.2211E+02
     10.189  0.3880E-01  0.3888E-01  0.2211E+02  0.2211E+02
     10.263  0.1465E+00  0.1468E+00  0.2213E+02  0.2213E+02
     10.338  0.5070E+00  0.5080E+00  0.2216E+02  0.2216E+02
     10.413  0.1020E+01  0.1020E+01  0.2224E+02  0.2224E+02
     10.487  0.8369E+00  0.8359E+00  0.2230E+02  0.2230E+02
     10.562  0.3136E+00  0.3129E+00  0.2233E+02  0.2233E+02
     10.637  0.8127E-01  0.8106E-01  0.2233E+02  0.2233E+02
     10.712  0.1913E-01  0.1908E-01  0.2233E+02  0.2233E+02
     10.786  0.5473E-02  0.5465E-02  0.2233E+02  0.2233E+02
     10.861  0.5026E-02  0.5040E-02  0.2233E+02  0.2233E+02
     10.936  0.2230E-01  0.2236E-01  0.2234E+02  0.2234E+02
     11.010  0.9426E-01  0.9450E-01  0.2234E+02  0.2234E+02
     11.085  0.3418E+00  0.3425E+00  0.2237E+02  0.2237E+02
     11.160  0.8120E+00  0.8127E+00  0.2243E+02  0.2243E+02
     11.234  0.1004E+01  0.1004E+01  0.2250E+02  0.2250E+02
     11.309  0.7622E+00  0.7617E+00  0.2256E+02  0.2256E+02
     11.384  0.7651E+00  0.7653E+00  0.2262E+02  0.2262E+02
     11.459  0.9071E+00  0.9073E+00  0.2269E+02  0.2269E+02
     11.533  0.7498E+00  0.7493E+00  0.2274E+02  0.2274E+02
     11.608  0.3546E+00  0.3540E+00  0.2277E+02  0.2277E+02
     11.683  0.1188E+00  0.1186E+00  0.2278E+02  0.2278E+02
     11.757  0.9897E-01  0.9905E-01  0.2278E+02  0.2278E+02
     11.832  0.2958E+00  0.2963E+00  0.2281E+02  0.2281E+02
     11.907  0.8115E+00  0.8123E+00  0.2287E+02  0.2287E+02
     11.981  0.1091E+01  0.1091E+01  0.2295E+02  0.2295E+02
     12.056  0.7636E+00  0.7634E+00  0.2301E+02  0.2301E+02
     12.131  0.8376E+00  0.8384E+00  0.2307E+02  0.2307E+02
     12.206  0.1101E+01  0.1101E+01  0.2315E+02  0.2315E+02
     12.280  0.6727E+00  0.6716E+00  0.2320E+02  0.2320E+02
     12.355  0.2136E+00  0.2131E+00  0.2322E+02  0.2322E+02
     12.430  0.5343E-01  0.5329E-01  0.2322E+02  0.2322E+02
     12.504  0.1561E-01  0.1559E-01  0.2322E+02  0.2322E+02
     12.579  0.1566E-01  0.1571E-01  0.2322E+02  0.2322E+02
     12.654  0.6779E-01  0.6800E-01  0.2323E+02  0.2323E+02
     12.729  0.2677E+00  0.2685E+00  0.2325E+02  0.2325E+02
     12.803  0.7658E+00  0.7670E+00  0.2331E+02  0.2331E+02
     12.878  0.1048E+01  0.1048E+01  0.2338E+02  0.2338E+02
     12.953  0.5762E+00  0.5750E+00  0.2343E+02  0.2343E+02
     13.027  0.1740E+00  0.1735E+00  0.2344E+02  0.2344E+02
     13.102  0.4214E-01  0.4201E-01  0.2344E+02  0.2344E+02
     13.177  0.9978E-02  0.9948E-02  0.2344E+02  0.2344E+02
     13.251  0.1218E-02  0.1218E-02  0.2344E+02  0.2344E+02
     13.326  0.5414E-02  0.5416E-02  0.2344E+02  0.2344E+02
     13.401  0.2401E-01  0.2402E-01  0.2345E+02  0.2345E+02
     13.476  0.1023E+00  0.1024E+00  0.2345E+02  0.2345E+02
     13.550  0.3816E+00  0.3818E+00  0.2348E+02  0.2348E+02
     13.625  0.9273E+00  0.9275E+00  0.2355E+02  0.2355E+02
     13.700  0.1001E+01  0.1001E+01  0.2363E+02  0.2363E+02
     13.774  0.5706E+00  0.5709E+00  0.2367E+02  0.2367E+02
     13.849  0.5171E+00  0.5178E+00  0.2371E+02  0.2371E+02
     13.924  0.5462E+00  0.5459E+00  0.2375E+02  0.2375E+02
     13.999  0.2782E+00  0.2775E+00  0.2377E+02  0.2377E+02
     14.073  0.8073E-01  0.8046E-01  0.2378E+02  0.2378E+02
     14.148  0.2107E-01  0.2100E-01  0.2378E+02  0.2378E+02
     14.223  0.1327E-01  0.1325E-01  0.2378E+02  0.2378E+02
     14.297  0.3735E-01  0.3733E-01  0.2378E+02  0.2378E+02
     14.372  0.1500E+00  0.1499E+00  0.2379E+02  0.2379E+02
     14.447  0.4588E+00  0.4587E+00  0.2383E+02  0.2383E+02
     14.521  0.8458E+00  0.8463E+00  0.2389E+02  0.2389E+02
     14.596  0.1272E+01  0.1273E+01  0.2399E+02  0.2399E+02
     14.671  0.1694E+01  0.1694E+01  0.2411E+02  0.2411E+02
     14.746  0.1333E+01  0.1332E+01  0.2421E+02  0.2421E+02
     14.820  0.1129E+01  0.1128E+01  0.2430E+02  0.2430E+02
     14.895  0.1145E+01  0.1145E+01  0.2438E+02  0.2438E+02
     14.970  0.6067E+00  0.6076E+00  0.2443E+02  0.2443E+02
     15.044  0.1804E+00  0.1808E+00  0.2444E+02  0.2444E+02
     15.119  0.4354E-01  0.4363E-01  0.2444E+02  0.2444E+02
     15.194  0.1130E-01  0.1132E-01  0.2444E+02  0.2444E+02
     15.269  0.6435E-02  0.6442E-02  0.2445E+02  0.2445E+02
     15.343  0.2862E-01  0.2864E-01  0.2445E+02  0.2445E+02
     15.418  0.1209E+00  0.1210E+00  0.2446E+02  0.2446E+02
     15.493  0.4380E+00  0.4383E+00  0.2449E+02  0.2449E+02
     15.567  0.9888E+00  0.9891E+00  0.2456E+02  0.2456E+02
     15.642  0.9917E+00  0.9912E+00  0.2464E+02  0.2464E+02
     15.717  0.6535E+00  0.6526E+00  0.2469E+02  0.2469E+02
     15.791  0.7195E+00  0.7187E+00  0.2474E+02  0.2474E+02
     15.866  0.6816E+00  0.6820E+00  0.2479E+02  0.2479E+02
     15.941  0.4625E+00  0.4631E+00  0.2482E+02  0.2482E+02
     16.016  0.6703E+00  0.6701E+00  0.2488E+02  0.2488E+02
     16.090  0.1073E+01  0.1073E+01  0.2496E+02  0.2496E+02
     16.165  0.7590E+00  0.7595E+00  0.2501E+02  0.2501E+02
     16.240  0.2870E+00  0.2871E+00  0.2503E+02  0.2503E+02
     16.314  0.1876E+00  0.1874E+00  0.2505E+02  0.2505E+02
     16.389  0.4583E+00  0.4576E+00  0.2508E+02  0.2508E+02
     16.464  0.9977E+00  0.9972E+00  0.2516E+02  0.2516E+02
     16.538  0.1008E+01  0.1009E+01  0.2523E+02  0.2523E+02
     16.613  0.6896E+00  0.6896E+00  0.2528E+02  0.2528E+02
     16.688  0.6353E+00  0.6354E+00  0.2533E+02  0.2533E+02
     16.763  0.4028E+00  0.4035E+00  0.2536E+02  0.2536E+02
     16.837  0.2352E+00  0.2356E+00  0.2538E+02  0.2538E+02
     16.912  0.3751E+00  0.3753E+00  0.2541E+02  0.2541E+02
     16.987  0.5454E+00  0.5454E+00  0.2545E+02  0.2545E+02
     17.061  0.3609E+00  0.3607E+00  0.2547E+02  0.2547E+02
     17.136  0.2495E+00  0.2492E+00  0.2549E+02  0.2549E+02
     17.211  0.5301E+00  0.5296E+00  0.2553E+02  0.2553E+02
     17.286  0.1024E+01  0.1024E+01  0.2561E+02  0.2561E+02
     17.360  0.8398E+00  0.8403E+00  0.2567E+02  0.2567E+02
     17.435  0.3166E+00  0.3169E+00  0.2570E+02  0.2570E+02
     17.510  0.8693E-01  0.8702E-01  0.2570E+02  0.2570E+02
     17.584  0.4138E-01  0.4140E-01  0.2571E+02  0.2571E+02
     17.659  0.9738E-01  0.9734E-01  0.2571E+02  0.2571E+02
     17.734  0.3036E+00  0.3035E+00  0.2574E+02  0.2574E+02
     17.808  0.5443E+00  0.5441E+00  0.2578E+02  0.2578E+02
     17.883  0.4454E+00  0.4450E+00  0.2581E+02  0.2581E+02
     17.958  0.4303E+00  0.4285E+00  0.2584E+02  0.2584E+02
     18.033  0.9952E+00  0.9915E+00  0.2592E+02  0.2592E+02
     18.107  0.1700E+01  0.1700E+01  0.2604E+02  0.2604E+02
     18.182  0.1472E+01  0.1476E+01  0.2615E+02  0.2615E+02
     18.257  0.9027E+00  0.9047E+00  0.2622E+02  0.2622E+02
     18.331  0.3873E+00  0.3882E+00  0.2625E+02  0.2625E+02
     18.406  0.1415E+00  0.1418E+00  0.2626E+02  0.2626E+02
     18.481  0.1698E+00  0.1698E+00  0.2627E+02  0.2627E+02
     18.556  0.5807E+00  0.5807E+00  0.2632E+02  0.2632E+02
     18.630  0.1664E+01  0.1665E+01  0.2644E+02  0.2644E+02
     18.705  0.2646E+01  0.2646E+01  0.2664E+02  0.2664E+02
     18.780  0.2256E+01  0.2254E+01  0.2681E+02  0.2681E+02
     18.854  0.1651E+01  0.1650E+01  0.2693E+02  0.2693E+02
     18.929  0.1003E+01  0.1005E+01  0.2701E+02  0.2701E+02
     19.004  0.4352E+00  0.4359E+00  0.2704E+02  0.2704E+02
     19.078  0.4478E+00  0.4468E+00  0.2707E+02  0.2707E+02
     19.153  0.9626E+00  0.9610E+00  0.2714E+02  0.2714E+02
     19.228  0.1240E+01  0.1241E+01  0.2724E+02  0.2724E+02
     19.303  0.1187E+01  0.1188E+01  0.2733E+02  0.2732E+02
     19.377  0.1187E+01  0.1188E+01  0.2741E+02  0.2741E+02
     19.452  0.6468E+00  0.6477E+00  0.2746E+02  0.2746E+02
     19.527  0.1988E+00  0.1992E+00  0.2748E+02  0.2748E+02
     19.601  0.4967E-01  0.4976E-01  0.2748E+02  0.2748E+02
     19.676  0.2400E-01  0.2401E-01  0.2748E+02  0.2748E+02
     19.751  0.5655E-01  0.5653E-01  0.2749E+02  0.2749E+02
     19.825  0.2071E+00  0.2071E+00  0.2750E+02  0.2750E+02
     19.900  0.4773E+00  0.4773E+00  0.2754E+02  0.2754E+02
     19.975  0.4705E+00  0.4706E+00  0.2757E+02  0.2757E+02
     20.050  0.2172E+00  0.2175E+00  0.2759E+02  0.2759E+02
     20.124  0.1426E+00  0.1439E+00  0.2760E+02  0.2760E+02
     20.199  0.3227E+00  0.3262E+00  0.2762E+02  0.2762E+02
     20.274  0.6488E+00  0.6517E+00  0.2767E+02  0.2767E+02
     20.348  0.6315E+00  0.6366E+00  0.2772E+02  0.2772E+02
     20.423  0.4645E+00  0.4936E+00  0.2775E+02  0.2776E+02
     20.498  0.7315E+00  0.7918E+00  0.2781E+02  0.2782E+02
     20.573  0.1079E+01  0.1075E+01  0.2789E+02  0.2790E+02
     20.647  0.6843E+00  0.6239E+00  0.2794E+02  0.2794E+02
     20.722  0.2215E+00  0.1930E+00  0.2796E+02  0.2796E+02
     20.797  0.5485E-01  0.4715E-01  0.2796E+02  0.2796E+02
     20.871  0.1260E-01  0.1079E-01  0.2796E+02  0.2796E+02
     20.946  0.0000E+00  0.0000E+00  0.2796E+02  0.2796E+02
     21.021  0.0000E+00  0.0000E+00  0.2796E+02  0.2796E+02
     21.095  0.0000E+00  0.0000E+00  0.2796E+02  0.2796E+02
     21.170  0.0000E+00  0.0000E+00  0.2796E+02  0.2796E+02
     21.245  0.0000E+00  0.0000E+00  0.2796E+02  0.2796E+02
     21.320  0.0000E+00  0.0000E+00  0.2796E+02  0.2796E+02
     21.394  0.0000E+00  0.0000E+00  0.2796E+02  0.2796E+02
     21.469  0.0000E+00  0.0000E+00  0.2796E+02  0.2796E+02
     21.544  0.6736E-04  0.0000E+00  0.2796E+02  0.2796E+02
     21.618  0.2326E-03  0.1640E-03  0.2796E+02  0.2796E+02
     21.693  0.1034E-02  0.5658E-03  0.2796E+02  0.2796E+02
     21.768  0.4553E-02  0.2505E-02  0.2796E+02  0.2796E+02
     21.843  0.1931E-01  0.1086E-01  0.2796E+02  0.2796E+02
     21.917  0.7029E-01  0.4308E-01  0.2797E+02  0.2797E+02
     21.992  0.1599E+00  0.1250E+00  0.2798E+02  0.2798E+02
     22.067  0.1539E+00  0.1754E+00  0.2799E+02  0.2799E+02
     22.141  0.6401E-01  0.9862E-01  0.2800E+02  0.2800E+02
     22.216  0.1722E-01  0.3010E-01  0.2800E+02  0.2800E+02
     22.291  0.4038E-02  0.7311E-02  0.2800E+02  0.2800E+02
     22.365  0.9156E-03  0.1671E-02  0.2800E+02  0.2800E+02
     22.440  0.0000E+00  0.0000E+00  0.2800E+02  0.2800E+02
     22.515  0.0000E+00  0.0000E+00  0.2800E+02  0.2800E+02
     22.590  0.0000E+00  0.0000E+00  0.2800E+02  0.2800E+02
     22.664  0.0000E+00  0.0000E+00  0.2800E+02  0.2800E+02
     22.739  0.0000E+00  0.0000E+00  0.2800E+02  0.2800E+02
     22.814  0.0000E+00  0.0000E+00  0.2800E+02  0.2800E+02
     22.888  0.0000E+00  0.0000E+00  0.2800E+02  0.2800E+02
     22.963  0.0000E+00  0.0000E+00  0.2800E+02  0.2800E+02
     23.038  0.0000E+00  0.0000E+00  0.2800E+02  0.2800E+02
     23.03780019      0.62636622  301      9.80413734      1.00000000
      0.626  0.0000E+00  0.0000E+00  0.0000E+00  0.0000E+00  0.0000E+00  0.0000E+00  0.0000E+00  0.0000E+00  0.0000E+00  0.0000E+00  0.0000E+00  0.0000E+00  0.0000E+00  0.0000E+00  0.0000E+00  0.0000E+00  0.0000E+00  0.0000E+00
      0.701  0.0000E+00  0.0000E+00  0.0000E+00  0.0000E+00  0.0000E+00  0.0000E+00  0.0000E+00  0.0000E+00  0.0000E+00  0.0000E+00  0.0000E+00  0.0000E+00  0.0000E+00  0.0000E+00  0.0000E+00  0.0000E+00  0.0000E+00  0.0000E+00
      0.776  0.0000E+00  0.0000E+00  0.0000E+00  0.0000E+00  0.0000E+00  0.0000E+00  0.0000E+00  0.0000E+00  0.0000E+00  0.0000E+00  0.0000E+00  0.0000E+00  0.0000E+00  0.0000E+00  0.0000E+00  0.0000E+00  0.0000E+00  0.0000E+00
      0.850  0.0000E+00  0.0000E+00  0.0000E+00  0.0000E+00  0.0000E+00  0.0000E+00  0.0000E+00  0.0000E+00  0.0000E+00  0.0000E+00  0.0000E+00  0.0000E+00  0.0000E+00  0.0000E+00  0.0000E+00  0.0000E+00  0.0000E+00  0.0000E+00
      0.925  0.0000E+00  0.0000E+00  0.0000E+00  0.0000E+00  0.0000E+00  0.0000E+00  0.0000E+00  0.0000E+00  0.0000E+00  0.0000E+00  0.0000E+00  0.0000E+00  0.0000E+00  0.0000E+00  0.0000E+00  0.0000E+00  0.0000E+00  0.0000E+00
      1.000  0.0000E+00  0.0000E+00  0.0000E+00  0.0000E+00  0.0000E+00  0.0000E+00  0.0000E+00  0.0000E+00  0.0000E+00  0.0000E+00  0.0000E+00  0.0000E+00  0.0000E+00  0.0000E+00  0.0000E+00  0.0000E+00  0.0000E+00  0.0000E+00
      1.075  0.0000E+00  0.0000E+00  0.0000E+00  0.0000E+00  0.0000E+00  0.0000E+00  0.0000E+00  0.0000E+00  0.0000E+00  0.0000E+00  0.0000E+00  0.0000E+00  0.0000E+00  0.0000E+00  0.0000E+00  0.0000E+00  0.0000E+00  0.0000E+00
      1.149  0.0000E+00  0.0000E+00  0.0000E+00  0.0000E+00  0.0000E+00  0.0000E+00  0.0000E+00  0.0000E+00  0.0000E+00  0.0000E+00  0.0000E+00  0.0000E+00  0.0000E+00  0.0000E+00  0.0000E+00  0.0000E+00  0.0000E+00  0.0000E+00
      1.224  0.1670E-04  0.1664E-04  0.1183E-06  0.1179E-06  0.1183E-06  0.1179E-06  0.1183E-06  0.1179E-06  0.1484E-07  0.1480E-07  0.1484E-07  0.1480E-07  0.1685E-20  0.2511E-21  0.1484E-07  0.1480E-07  0.1685E-20  0.2511E-21
      1.299  0.5764E-04  0.5745E-04  0.4084E-06  0.4070E-06  0.4084E-06  0.4070E-06  0.4084E-06  0.4070E-06  0.5124E-07  0.5108E-07  0.5124E-07  0.5108E-07  0.5817E-20  0.8667E-21  0.5124E-07  0.5108E-07  0.5817E-20  0.8667E-21
      1.373  0.2558E-03  0.2549E-03  0.1812E-05  0.1806E-05  0.1812E-05  0.1806E-05  0.1812E-05  0.1806E-05  0.2273E-06  0.2266E-06  0.2273E-06  0.2266E-06  0.2581E-19  0.3845E-20  0.2273E-06  0.2266E-06  0.2581E-19  0.3845E-20
      1.448  0.1119E-02  0.1115E-02  0.7927E-05  0.7901E-05  0.7927E-05  0.7901E-05  0.7927E-05  0.7901E-05  0.9945E-06  0.9914E-06  0.9945E-06  0.9914E-06  0.1129E-18  0.1682E-19  0.9945E-06  0.9914E-06  0.1129E-18  0.1682E-19
      1.523  0.4607E-02  0.4593E-02  0.3264E-04  0.3254E-04  0.3264E-04  0.3254E-04  0.3264E-04  0.3254E-04  0.4095E-05  0.4083E-05  0.4095E-05  0.4083E-05  0.4649E-18  0.6929E-19  0.4095E-05  0.4083E-05  0.4649E-18  0.6929E-19
      1.598  0.1509E-01  0.1506E-01  0.1069E-03  0.1067E-03  0.1069E-03  0.1067E-03  0.1069E-03  0.1067E-03  0.1342E-04  0.1339E-04  0.1342E-04  0.1339E-04  0.1523E-17  0.2272E-18  0.1342E-04  0.1339E-04  0.1523E-17  0.2272E-18
      1.672  0.2685E-01  0.2684E-01  0.1902E-03  0.1902E-03  0.1902E-03  0.1902E-03  0.1902E-03  0.1902E-03  0.2387E-04  0.2386E-04  0.2387E-04  0.2386E-04  0.2709E-17  0.4049E-18  0.2387E-04  0.2386E-04  0.2709E-17  0.4049E-18
      1.747  0.1913E-01  0.1916E-01  0.1355E-03  0.1358E-03  0.1355E-03  0.1358E-03  0.1355E-03  0.1358E-03  0.1700E-04  0.1704E-04  0.1700E-04  0.1704E-04  0.1930E-17  0.2891E-18  0.1700E-04  0.1704E-04  0.1930E-17  0.2891E-18
      1.822  0.6653E-02  0.6672E-02  0.4827E-04  0.4840E-04  0.4827E-04  0.4840E-04  0.4827E-04  0.4840E-04  0.6296E-05  0.6313E-05  0.6296E-05  0.6313E-05  0.3897E-06  0.3885E-06  0.6296E-05  0.6313E-05  0.3897E-06  0.3885E-06
      1.896  0.1868E-02  0.1873E-02  0.1714E-04  0.1716E-04  0.1714E-04  0.1716E-04  0.1714E-04  0.1716E-04  0.2979E-05  0.2980E-05  0.2979E-05  0.2980E-05  0.1345E-05  0.1341E-05  0.2979E-05  0.2980E-05  0.1345E-05  0.1341E-05
      1.971  0.1297E-02  0.1295E-02  0.2649E-04  0.2642E-04  0.2649E-04  0.2642E-04  0.2649E-04  0.2642E-04  0.6996E-05  0.6978E-05  0.6996E-05  0.6978E-05  0.5960E-05  0.5942E-05  0.6996E-05  0.6978E-05  0.5960E-05  0.5942E-05
      2.046  0.3976E-02  0.3964E-02  0.1035E-03  0.1031E-03  0.1035E-03  0.1031E-03  0.1035E-03  0.1031E-03  0.2896E-04  0.2888E-04  0.2896E-04  0.2888E-04  0.2594E-04  0.2586E-04  0.2896E-04  0.2888E-04  0.2594E-04  0.2586E-04
      2.120  0.1603E-01  0.1598E-01  0.4170E-03  0.4158E-03  0.4170E-03  0.4158E-03  0.4170E-03  0.4158E-03  0.1167E-03  0.1164E-03  0.1167E-03  0.1164E-03  0.1045E-03  0.1043E-03  0.1167E-03  0.1164E-03  0.1045E-03  0.1043E-03
      2.195  0.4890E-01  0.4881E-01  0.1272E-02  0.1270E-02  0.1272E-02  0.1270E-02  0.1272E-02  0.1270E-02  0.3562E-03  0.3556E-03  0.3562E-03  0.3556E-03  0.3190E-03  0.3184E-03  0.3562E-03  0.3556E-03  0.3190E-03  0.3184E-03
      2.270  0.7537E-01  0.7537E-01  0.1961E-02  0.1961E-02  0.1961E-02  0.1961E-02  0.1961E-02  0.1961E-02  0.5504E-03  0.5505E-03  0.5504E-03  0.5505E-03  0.4916E-03  0.4917E-03  0.5504E-03  0.5505E-03  0.4916E-03  0.4917E-03
      2.345  0.4635E-01  0.4644E-01  0.1207E-02  0.1210E-02  0.1207E-02  0.1210E-02  0.1207E-02  0.1210E-02  0.3423E-03  0.3430E-03  0.3423E-03  0.3430E-03  0.3021E-03  0.3027E-03  0.3423E-03  0.3430E-03  0.3021E-03  0.3027E-03
      2.419  0.1517E-01  0.1521E-01  0.4010E-03  0.4020E-03  0.4010E-03  0.4020E-03  0.4010E-03  0.4020E-03  0.1312E-03  0.1315E-03  0.1312E-03  0.1315E-03  0.9797E-04  0.9825E-04  0.1312E-03  0.1315E-03  0.9797E-04  0.9825E-04
      2.494  0.5538E-02  0.5544E-02  0.1723E-03  0.1723E-03  0.1723E-03  0.1723E-03  0.1723E-03  0.1723E-03  0.1408E-03  0.1406E-03  0.1408E-03  0.1406E-03  0.6227E-04  0.6241E-04  0.1408E-03  0.1406E-03  0.6227E-04  0.6241E-04
      2.569  0.8895E-02  0.8878E-02  0.3502E-03  0.3495E-03  0.3502E-03  0.3495E-03  0.3502E-03  0.3495E-03  0.4917E-03  0.4909E-03  0.4917E-03  0.4909E-03  0.1450E-03  0.1453E-03  0.4917E-03  0.4909E-03  0.1450E-03  0.1453E-03
      2.643  0.2888E-01  0.2883E-01  0.1177E-02  0.1174E-02  0.1177E-02  0.1174E-02  0.1177E-02  0.1174E-02  0.1776E-02  0.1774E-02  0.1776E-02  0.1774E-02  0.5907E-03  0.5918E-03  0.1776E-02  0.1774E-02  0.5907E-03  0.5918E-03
      2.718  0.6350E-01  0.6345E-01  0.2581E-02  0.2579E-02  0.2581E-02  0.2579E-02  0.2581E-02  0.2579E-02  0.4297E-02  0.4298E-02  0.4297E-02  0.4298E-02  0.2336E-02  0.2342E-02  0.4297E-02  0.4298E-02  0.2336E-02  0.2342E-02
      2.793  0.6188E-01  0.6193E-01  0.2476E-02  0.2478E-02  0.2476E-02  0.2478E-02  0.2476E-02  0.2478E-02  0.6701E-02  0.6714E-02  0.6701E-02  0.6714E-02  0.8835E-02  0.8858E-02  0.6701E-02  0.6714E-02  0.8835E-02  0.8858E-02
      2.868  0.4104E-01  0.4109E-01  0.1502E-02  0.1504E-02  0.1502E-02  0.1504E-02  0.1502E-02  0.1504E-02  0.1419E-01  0.1423E-01  0.1419E-01  0.1423E-01  0.2860E-01  0.2866E-01  0.1419E-01  0.1423E-01  0.2860E-01  0.2866E-01
      2.942  0.4268E-01  0.4270E-01  0.1398E-02  0.1399E-02  0.1398E-02  0.1399E-02  0.1398E-02  0.1399E-02  0.3353E-01  0.3360E-01  0.3353E-01  0.3360E-01  0.5324E-01  0.5326E-01  0.3353E-01  0.3360E-01  0.5324E-01  0.5326E-01
      3.017  0.4977E-01  0.4977E-01  0.1839E-02  0.1839E-02  0.1839E-02  0.1839E-02  0.1839E-02  0.1839E-02  0.6322E-01  0.6333E-01  0.6322E-01  0.6333E-01  0.4825E-01  0.4822E-01  0.6322E-01  0.6333E-01  0.4825E-01  0.4822E-01
      3.092  0.7721E-01  0.7718E-01  0.3835E-02  0.3835E-02  0.3835E-02  0.3835E-02  0.3835E-02  0.3835E-02  0.1001E+00  0.1002E+00  0.1001E+00  0.1002E+00  0.5502E-01  0.5508E-01  0.1001E+00  0.1002E+00  0.5502E-01  0.5508E-01
      3.166  0.1239E+00  0.1239E+00  0.6960E-02  0.6961E-02  0.6960E-02  0.6961E-02  0.6960E-02  0.6961E-02  0.1296E+00  0.1297E+00  0.1296E+00  0.1297E+00  0.1114E+00  0.1116E+00  0.1296E+00  0.1297E+00  0.1114E+00  0.1116E+00
      3.241  0.1215E+00  0.1215E+00  0.7295E-02  0.7298E-02  0.7295E-02  0.7298E-02  0.7295E-02  0.7298E-02  0.1486E+00  0.1487E+00  0.1486E+00  0.1487E+00  0.1515E+00  0.1515E+00  0.1486E+00  0.1487E+00  0.1515E+00  0.1515E+00
      3.316  0.1109E+00  0.1109E+00  0.7738E-02  0.7743E-02  0.7738E-02  0.7743E-02  0.7738E-02  0.7743E-02  0.2021E+00  0.2024E+00  0.2021E+00  0.2024E+00  0.1325E+00  0.1324E+00  0.2021E+00  0.2024E+00  0.1325E+00  0.1324E+00
      3.390  0.1530E+00  0.1530E+00  0.1226E-01  0.1227E-01  0.1226E-01  0.1227E-01  0.1226E-01  0.1227E-01  0.2780E+00  0.2782E+00  0.2780E+00  0.2782E+00  0.1435E+00  0.1436E+00  0.2780E+00  0.2782E+00  0.1435E+00  0.1436E+00
      3.465  0.1582E+00  0.1581E+00  0.1451E-01  0.1451E-01  0.1451E-01  0.1451E-01  0.1451E-01  0.1451E-01  0.2760E+00  0.2759E+00  0.2760E+00  0.2759E+00  0.1638E+00  0.1638E+00  0.2760E+00  0.2759E+00  0.1638E+00  0.1638E+00
      3.540  0.9665E-01  0.9660E-01  0.1075E-01  0.1075E-01  0.1075E-01  0.1075E-01  0.1075E-01  0.1075E-01  0.2004E+00  0.2003E+00  0.2004E+00  0.2003E+00  0.1387E+00  0.1386E+00  0.2004E+00  0.2003E+00  0.1387E+00  0.1386E+00
      3.615  0.7194E-01  0.7196E-01  0.1072E-01  0.1073E-01  0.1072E-01  0.1073E-01  0.1072E-01  0.1073E-01  0.2091E+00  0.2092E+00  0.2091E+00  0.2092E+00  0.1708E+00  0.1711E+00  0.2091E+00  0.2092E+00  0.1708E+00  0.1711E+00
      3.689  0.7491E-01  0.7487E-01  0.1294E-01  0.1294E-01  0.1294E-01  0.1294E-01  0.1294E-01  0.1294E-01  0.2508E+00  0.2508E+00  0.2508E+00  0.2508E+00  0.2418E+00  0.2419E+00  0.2508E+00  0.2508E+00  0.2418E+00  0.2419E+00
      3.764  0.5673E-01  0.5666E-01  0.1039E-01  0.1038E-01  0.1039E-01  0.1038E-01  0.1039E-01  0.1038E-01  0.2076E+00  0.2074E+00  0.2076E+00  0.2074E+00  0.1968E+00  0.1966E+00  0.2076E+00  0.2074E+00  0.1968E+00  0.1966E+00
      3.839  0.4007E-01  0.4005E-01  0.9331E-02  0.9337E-02  0.9331E-02  0.9337E-02  0.9331E-02  0.9337E-02  0.1738E+00  0.1739E+00  0.1738E+00  0.1739E+00  0.1341E+00  0.1340E+00  0.1738E+00  0.1739E+00  0.1341E+00  0.1340E+00
      3.913  0.3734E-01  0.3732E-01  0.1093E-01  0.1093E-01  0.1093E-01  0.1093E-01  0.1093E-01  0.1093E-01  0.1831E+00  0.1831E+00  0.1831E+00  0.1831E+00  0.1209E+00  0.1209E+00  0.1831E+00  0.1831E+00  0.1209E+00  0.1209E+00
      3.988  0.2588E-01  0.2584E-01  0.1095E-01  0.1095E-01  0.1095E-01  0.1095E-01  0.1095E-01  0.1095E-01  0.1715E+00  0.1715E+00  0.1715E+00  0.1715E+00  0.1129E+00  0.1130E+00  0.1715E+00  0.1715E+00  0.1129E+00  0.1130E+00
      4.063  0.2010E-01  0.2010E-01  0.1352E-01  0.1353E-01  0.1352E-01  0.1353E-01  0.1352E-01  0.1353E-01  0.1964E+00  0.1965E+00  0.1964E+00  0.1965E+00  0.1547E+00  0.1549E+00  0.1964E+00  0.1965E+00  0.1547E+00  0.1549E+00
      4.137  0.1869E-01  0.1867E-01  0.1414E-01  0.1413E-01  0.1414E-01  0.1413E-01  0.1414E-01  0.1413E-01  0.1890E+00  0.1888E+00  0.1890E+00  0.1888E+00  0.1904E+00  0.1905E+00  0.1890E+00  0.1888E+00  0.1904E+00  0.1905E+00
      4.212  0.1298E-01  0.1297E-01  0.1222E-01  0.1222E-01  0.1222E-01  0.1222E-01  0.1222E-01  0.1222E-01  0.1338E+00  0.1337E+00  0.1338E+00  0.1337E+00  0.1869E+00  0.1869E+00  0.1338E+00  0.1337E+00  0.1869E+00  0.1869E+00
      4.287  0.1311E-01  0.1312E-01  0.1109E-01  0.1108E-01  0.1109E-01  0.1108E-01  0.1109E-01  0.1108E-01  0.1194E+00  0.1194E+00  0.1194E+00  0.1194E+00  0.1823E+00  0.1823E+00  0.1194E+00  0.1194E+00  0.1823E+00  0.1823E+00
      4.362  0.1732E-01  0.1732E-01  0.9121E-02  0.9115E-02  0.9121E-02  0.9115E-02  0.9121E-02  0.9115E-02  0.1418E+00  0.1419E+00  0.1418E+00  0.1419E+00  0.1543E+00  0.1543E+00  0.1418E+00  0.1419E+00  0.1543E+00  0.1543E+00