   4   4   1   0
  0.1348361E+02  0.3778233E-09  0.3778233E-09  0.3778233E-09  0.5000000E-15
  1.000000000000000E-004
  CAR 
 unknown system                          
     26.37840073      1.63124930  301     12.01022269      1.00000000
      1.631  0.0000E+00  0.0000E+00  0.0000E+00  0.0000E+00
      1.714  0.0000E+00  0.0000E+00  0.0000E+00  0.0000E+00
      1.796  0.0000E+00  0.0000E+00  0.0000E+00  0.0000E+00
      1.879  0.0000E+00  0.0000E+00  0.0000E+00  0.0000E+00
      1.961  0.0000E+00  0.0000E+00  0.0000E+00  0.0000E+00
      2.044  0.0000E+00  0.0000E+00  0.0000E+00  0.0000E+00
      2.126  0.0000E+00  0.0000E+00  0.0000E+00  0.0000E+00
      2.209  0.0000E+00  0.0000E+00  0.0000E+00  0.0000E+00
      2.291  0.4090E-04  0.4109E-04  0.3374E-05  0.3389E-05
      2.374  0.1719E-03  0.1727E-03  0.1756E-04  0.1764E-04
      2.456  0.8930E-03  0.8971E-03  0.9122E-04  0.9164E-04
      2.539  0.4592E-02  0.4613E-02  0.4700E-03  0.4722E-03
      2.621  0.2246E-01  0.2256E-01  0.2323E-02  0.2333E-02
      2.704  0.8784E-01  0.8812E-01  0.9569E-02  0.9602E-02
      2.786  0.1734E+00  0.1735E+00  0.2387E-01  0.2391E-01
      2.869  0.1166E+00  0.1163E+00  0.3349E-01  0.3350E-01
      2.951  0.3420E-01  0.3406E-01  0.3631E-01  0.3631E-01
      3.034  0.7858E-02  0.7829E-02  0.3696E-01  0.3696E-01
      3.116  0.4802E-02  0.4812E-02  0.3736E-01  0.3736E-01
      3.199  0.1738E-01  0.1746E-01  0.3882E-01  0.3883E-01
      3.281  0.8368E-01  0.8405E-01  0.4572E-01  0.4576E-01
      3.364  0.3072E+00  0.3081E+00  0.7106E-01  0.7117E-01
      3.446  0.5261E+00  0.5261E+00  0.1145E+00  0.1146E+00
      3.529  0.3051E+00  0.3041E+00  0.1396E+00  0.1397E+00
      3.611  0.8494E-01  0.8459E-01  0.1466E+00  0.1466E+00
      3.694  0.2912E-01  0.2911E-01  0.1490E+00  0.1490E+00
      3.776  0.6379E-01  0.6412E-01  0.1543E+00  0.1543E+00
      3.858  0.2638E+00  0.2652E+00  0.1761E+00  0.1763E+00
      3.941  0.7452E+00  0.7477E+00  0.2376E+00  0.2379E+00
      4.023  0.1104E+01  0.1105E+01  0.3287E+00  0.3291E+00
      4.106  0.1149E+01  0.1150E+01  0.4234E+00  0.4239E+00
      4.188  0.1406E+01  0.1409E+01  0.5394E+00  0.5402E+00
      4.271  0.2085E+01  0.2090E+01  0.7114E+00  0.7126E+00
      4.353  0.3191E+01  0.3197E+01  0.9748E+00  0.9764E+00
      4.436  0.3732E+01  0.3732E+01  0.1283E+01  0.1284E+01
      4.518  0.3769E+01  0.3774E+01  0.1594E+01  0.1596E+01
      4.601  0.4978E+01  0.4986E+01  0.2005E+01  0.2007E+01
      4.683  0.5911E+01  0.5909E+01  0.2492E+01  0.2495E+01
      4.766  0.4281E+01  0.4271E+01  0.2846E+01  0.2848E+01
      4.848  0.3712E+01  0.3720E+01  0.3152E+01  0.3155E+01
      4.931  0.5449E+01  0.5456E+01  0.3602E+01  0.3605E+01
      5.013  0.4995E+01  0.4984E+01  0.4014E+01  0.4016E+01
      5.096  0.3163E+01  0.3154E+01  0.4276E+01  0.4277E+01
      5.178  0.3122E+01  0.3125E+01  0.4533E+01  0.4535E+01
      5.261  0.3230E+01  0.3223E+01  0.4800E+01  0.4801E+01
      5.343  0.2850E+01  0.2853E+01  0.5036E+01  0.5037E+01
      5.426  0.3982E+01  0.3989E+01  0.5364E+01  0.5367E+01
      5.508  0.3939E+01  0.3932E+01  0.5689E+01  0.5691E+01
      5.591  0.2983E+01  0.2981E+01  0.5936E+01  0.5937E+01
      5.673  0.2754E+01  0.2751E+01  0.6163E+01  0.6164E+01
      5.756  0.2456E+01  0.2458E+01  0.6366E+01  0.6367E+01
      5.838  0.3018E+01  0.3024E+01  0.6615E+01  0.6617E+01
      5.921  0.3738E+01  0.3742E+01  0.6924E+01  0.6926E+01
      6.003  0.4104E+01  0.4104E+01  0.7263E+01  0.7265E+01
      6.086  0.3471E+01  0.3464E+01  0.7549E+01  0.7551E+01
      6.168  0.3230E+01  0.3232E+01  0.7816E+01  0.7818E+01
      6.251  0.3243E+01  0.3240E+01  0.8084E+01  0.8085E+01
      6.333  0.3089E+01  0.3095E+01  0.8339E+01  0.8341E+01
      6.416  0.4933E+01  0.4949E+01  0.8746E+01  0.8750E+01
      6.498  0.6826E+01  0.6830E+01  0.9309E+01  0.9313E+01
      6.581  0.6139E+01  0.6130E+01  0.9816E+01  0.9819E+01
      6.663  0.5342E+01  0.5344E+01  0.1026E+02  0.1026E+02
      6.746  0.5869E+01  0.5870E+01  0.1074E+02  0.1074E+02
      6.828  0.4968E+01  0.4956E+01  0.1115E+02  0.1115E+02
      6.911  0.3133E+01  0.3124E+01  0.1141E+02  0.1141E+02
      6.993  0.2669E+01  0.2672E+01  0.1163E+02  0.1163E+02
      7.076  0.3309E+01  0.3313E+01  0.1190E+02  0.1191E+02
      7.158  0.3494E+01  0.3493E+01  0.1219E+02  0.1220E+02
      7.241  0.3463E+01  0.3466E+01  0.1248E+02  0.1248E+02
      7.323  0.4200E+01  0.4204E+01  0.1283E+02  0.1283E+02
      7.406  0.4282E+01  0.4277E+01  0.1318E+02  0.1318E+02
      7.488  0.3082E+01  0.3075E+01  0.1343E+02  0.1344E+02
      7.571  0.3194E+01  0.3203E+01  0.1370E+02  0.1370E+02
      7.653  0.4717E+01  0.4729E+01  0.1409E+02  0.1409E+02
      7.736  0.5779E+01  0.5782E+01  0.1456E+02  0.1457E+02
      7.818  0.5432E+01  0.5426E+01  0.1501E+02  0.1502E+02
      7.901  0.4119E+01  0.4107E+01  0.1535E+02  0.1535E+02
      7.983  0.2801E+01  0.2795E+01  0.1558E+02  0.1558E+02
      8.066  0.2293E+01  0.2291E+01  0.1577E+02  0.1577E+02
      8.148  0.2116E+01  0.2118E+01  0.1595E+02  0.1595E+02
      8.230  0.3253E+01  0.3266E+01  0.1622E+02  0.1622E+02
      8.313  0.4448E+01  0.4449E+01  0.1658E+02  0.1659E+02
      8.395  0.4001E+01  0.3998E+01  0.1691E+02  0.1692E+02
      8.478  0.3749E+01  0.3748E+01  0.1722E+02  0.1723E+02
      8.560  0.3156E+01  0.3148E+01  0.1748E+02  0.1749E+02
      8.643  0.2144E+01  0.2140E+01  0.1766E+02  0.1766E+02
      8.725  0.2360E+01  0.2368E+01  0.1786E+02  0.1786E+02
      8.808  0.4132E+01  0.4153E+01  0.1820E+02  0.1820E+02
      8.890  0.6444E+01  0.6455E+01  0.1873E+02  0.1873E+02
      8.973  0.6855E+01  0.6854E+01  0.1929E+02  0.1930E+02
      9.055  0.6219E+01  0.6207E+01  0.1981E+02  0.1981E+02
      9.138  0.4251E+01  0.4236E+01  0.2016E+02  0.2016E+02
      9.220  0.3204E+01  0.3203E+01  0.2042E+02  0.2043E+02
      9.303  0.3013E+01  0.3007E+01  0.2067E+02  0.2067E+02
      9.385  0.1599E+01  0.1585E+01  0.2080E+02  0.2081E+02
      9.468  0.4461E+00  0.4406E+00  0.2084E+02  0.2084E+02
      9.550  0.9487E-01  0.9361E-01  0.2085E+02  0.2085E+02
      9.633  0.2257E-01  0.2236E-01  0.2085E+02  0.2085E+02
      9.715  0.2348E-01  0.2370E-01  0.2085E+02  0.2085E+02
      9.798  0.1133E+00  0.1142E+00  0.2086E+02  0.2086E+02
      9.880  0.4142E+00  0.4165E+00  0.2090E+02  0.2090E+02
      9.963  0.7098E+00  0.7098E+00  0.2096E+02  0.2096E+02
     10.045  0.4475E+00  0.4457E+00  0.2099E+02  0.2099E+02
     10.128  0.3034E+00  0.3042E+00  0.2102E+02  0.2102E+02
     10.210  0.5573E+00  0.5594E+00  0.2106E+02  0.2106E+02
     10.293  0.7408E+00  0.7414E+00  0.2113E+02  0.2113E+02
     10.375  0.1014E+01  0.1016E+01  0.2121E+02  0.2121E+02
     10.458  0.9988E+00  0.9957E+00  0.2129E+02  0.2129E+02
     10.540  0.4019E+00  0.3988E+00  0.2132E+02  0.2132E+02
     10.623  0.1292E+00  0.1287E+00  0.2134E+02  0.2134E+02
     10.705  0.1880E+00  0.1891E+00  0.2135E+02  0.2135E+02
     10.788  0.4573E+00  0.4587E+00  0.2139E+02  0.2139E+02
     10.870  0.4558E+00  0.4544E+00  0.2143E+02  0.2143E+02
     10.953  0.1694E+00  0.1681E+00  0.2144E+02  0.2144E+02
     11.035  0.4355E-01  0.4325E-01  0.2144E+02  0.2144E+02
     11.118  0.3452E-01  0.3464E-01  0.2145E+02  0.2145E+02
     11.200  0.1243E+00  0.1251E+00  0.2146E+02  0.2146E+02
     11.283  0.3925E+00  0.3939E+00  0.2149E+02  0.2149E+02
     11.365  0.5037E+00  0.5030E+00  0.2153E+02  0.2153E+02
     11.448  0.2252E+00  0.2240E+00  0.2155E+02  0.2155E+02
     11.530  0.5811E-01  0.5776E-01  0.2155E+02  0.2155E+02
     11.613  0.2775E-01  0.2779E-01  0.2156E+02  0.2156E+02
     11.695  0.8600E-01  0.8660E-01  0.2156E+02  0.2156E+02
     11.778  0.3691E+00  0.3715E+00  0.2159E+02  0.2159E+02
     11.860  0.1119E+01  0.1125E+01  0.2169E+02  0.2169E+02
     11.943  0.2071E+01  0.2075E+01  0.2186E+02  0.2186E+02
     12.025  0.1995E+01  0.1990E+01  0.2202E+02  0.2202E+02
     12.108  0.8269E+00  0.8211E+00  0.2209E+02  0.2209E+02
     12.190  0.1995E+00  0.1977E+00  0.2211E+02  0.2211E+02
     12.273  0.3964E-01  0.3928E-01  0.2211E+02  0.2211E+02
     12.355  0.6829E-02  0.6790E-02  0.2211E+02  0.2211E+02
     12.438  0.8025E-02  0.8094E-02  0.2211E+02  0.2211E+02
     12.520  0.4102E-01  0.4136E-01  0.2212E+02  0.2212E+02
     12.602  0.1948E+00  0.1963E+00  0.2213E+02  0.2213E+02
     12.685  0.6788E+00  0.6821E+00  0.2219E+02  0.2219E+02
     12.767  0.1045E+01  0.1045E+01  0.2227E+02  0.2227E+02
     12.850  0.5464E+00  0.5433E+00  0.2232E+02  0.2232E+02
     12.932  0.1416E+00  0.1405E+00  0.2233E+02  0.2233E+02
     13.015  0.2915E-01  0.2891E-01  0.2233E+02  0.2233E+02
     13.097  0.6292E-02  0.6249E-02  0.2233E+02  0.2233E+02
     13.180  0.3117E-02  0.3143E-02  0.2233E+02  0.2233E+02
     13.262  0.1646E-01  0.1659E-01  0.2234E+02  0.2234E+02
     13.345  0.8175E-01  0.8237E-01  0.2234E+02  0.2234E+02
     13.427  0.3491E+00  0.3513E+00  0.2237E+02  0.2237E+02
     13.510  0.9106E+00  0.9131E+00  0.2245E+02  0.2245E+02
     13.592  0.1082E+01  0.1081E+01  0.2253E+02  0.2254E+02
     13.675  0.8665E+00  0.8653E+00  0.2261E+02  0.2261E+02
     13.757  0.6753E+00  0.6747E+00  0.2266E+02  0.2266E+02
     13.840  0.5944E+00  0.5951E+00  0.2271E+02  0.2271E+02
     13.922  0.5302E+00  0.5289E+00  0.2275E+02  0.2276E+02
     14.005  0.2137E+00  0.2123E+00  0.2277E+02  0.2277E+02
     14.087  0.5092E-01  0.5053E-01  0.2278E+02  0.2278E+02
     14.170  0.2104E-01  0.2105E-01  0.2278E+02  0.2278E+02
     14.252  0.5832E-01  0.5689E-01  0.2278E+02  0.2278E+02
     14.335  0.2623E+00  0.2643E+00  0.2281E+02  0.2281E+02
     14.417  0.8578E+00  0.8616E+00  0.2288E+02  0.2288E+02
     14.500  0.1339E+01  0.1339E+01  0.2299E+02  0.2299E+02
     14.582  0.1355E+01  0.1355E+01  0.2310E+02  0.2310E+02
     14.665  0.1031E+01  0.1028E+01  0.2318E+02  0.2318E+02
     14.747  0.3682E+00  0.3658E+00  0.2321E+02  0.2321E+02
     14.830  0.8364E-01  0.8300E-01  0.2322E+02  0.2322E+02
     14.912  0.1707E-01  0.1695E-01  0.2322E+02  0.2322E+02
     14.995  0.6939E-02  0.6988E-02  0.2322E+02  0.2322E+02
     15.077  0.3556E-01  0.3580E-01  0.2323E+02  0.2323E+02
     15.160  0.1709E+00  0.1720E+00  0.2324E+02  0.2324E+02
     15.242  0.6230E+00  0.6257E+00  0.2329E+02  0.2329E+02
     15.325  0.1052E+01  0.1052E+01  0.2338E+02  0.2338E+02
     15.407  0.6004E+00  0.5978E+00  0.2343E+02  0.2343E+02
     15.490  0.1619E+00  0.1608E+00  0.2344E+02  0.2344E+02
     15.572  0.3353E-01  0.3330E-01  0.2344E+02  0.2344E+02
     15.655  0.6538E-02  0.6492E-02  0.2344E+02  0.2344E+02
     15.737  0.0000E+00  0.0000E+00  0.2344E+02  0.2344E+02
     15.820  0.6629E-03  0.6681E-03  0.2344E+02  0.2344E+02
     15.902  0.2785E-02  0.2806E-02  0.2344E+02  0.2344E+02
     15.985  0.1440E-01  0.1452E-01  0.2345E+02  0.2345E+02
     16.067  0.7291E-01  0.7346E-01  0.2345E+02  0.2345E+02
     16.150  0.3235E+00  0.3256E+00  0.2348E+02  0.2348E+02
     16.232  0.9012E+00  0.9038E+00  0.2355E+02  0.2355E+02
     16.315  0.9691E+00  0.9671E+00  0.2363E+02  0.2363E+02
     16.397  0.5222E+00  0.5210E+00  0.2368E+02  0.2368E+02
     16.480  0.5357E+00  0.5363E+00  0.2372E+02  0.2372E+02
     16.562  0.4748E+00  0.4736E+00  0.2376E+02  0.2376E+02
     16.645  0.1710E+00  0.1700E+00  0.2377E+02  0.2377E+02
     16.727  0.3897E-01  0.3869E-01  0.2378E+02  0.2378E+02
     16.810  0.7755E-02  0.7697E-02  0.2378E+02  0.2378E+02
     16.892  0.5286E-03  0.5325E-03  0.2378E+02  0.2378E+02
     16.974  0.2221E-02  0.2238E-02  0.2378E+02  0.2378E+02
     17.057  0.1164E-01  0.1172E-01  0.2378E+02  0.2378E+02
     17.139  0.5889E-01  0.5932E-01  0.2378E+02  0.2378E+02
     17.222  0.2699E+00  0.2716E+00  0.2381E+02  0.2381E+02
     17.304  0.8314E+00  0.8342E+00  0.2387E+02  0.2388E+02
     17.387  0.1067E+01  0.1066E+01  0.2396E+02  0.2396E+02
     17.469  0.7262E+00  0.7258E+00  0.2402E+02  0.2402E+02
     17.552  0.7497E+00  0.7503E+00  0.2408E+02  0.2408E+02
     17.634  0.8174E+00  0.8180E+00  0.2415E+02  0.2415E+02
     17.717  0.1074E+01  0.1075E+01  0.2424E+02  0.2424E+02
     17.799  0.1292E+01  0.1292E+01  0.2435E+02  0.2435E+02
     17.882  0.8503E+00  0.8465E+00  0.2442E+02  0.2442E+02
     17.964  0.2593E+00  0.2574E+00  0.2444E+02  0.2444E+02
     18.047  0.5647E-01  0.5602E-01  0.2444E+02  0.2444E+02
     18.129  0.1452E-01  0.1447E-01  0.2444E+02  0.2444E+02
     18.212  0.2094E-01  0.2110E-01  0.2445E+02  0.2445E+02
     18.294  0.1042E+00  0.1050E+00  0.2446E+02  0.2446E+02
     18.377  0.4396E+00  0.4422E+00  0.2449E+02  0.2449E+02
     18.459  0.1074E+01  0.1076E+01  0.2458E+02  0.2458E+02
     18.542  0.1125E+01  0.1124E+01  0.2467E+02  0.2467E+02
     18.624  0.8001E+00  0.7983E+00  0.2474E+02  0.2474E+02
     18.707  0.3944E+00  0.3930E+00  0.2477E+02  0.2477E+02
     18.789  0.2087E+00  0.2088E+00  0.2479E+02  0.2479E+02
     18.872  0.2190E+00  0.2191E+00  0.2481E+02  0.2481E+02
     18.954  0.2305E+00  0.2309E+00  0.2483E+02  0.2483E+02
     19.037  0.5491E+00  0.5520E+00  0.2487E+02  0.2487E+02
     19.119  0.1082E+01  0.1083E+01  0.2496E+02  0.2496E+02
     19.202  0.8996E+00  0.8974E+00  0.2503E+02  0.2503E+02
     19.284  0.8745E+00  0.8755E+00  0.2511E+02  0.2511E+02
     19.367  0.1108E+01  0.1107E+01  0.2520E+02  0.2520E+02
     19.449  0.6453E+00  0.6432E+00  0.2525E+02  0.2525E+02
     19.532  0.4296E+00  0.4300E+00  0.2529E+02  0.2529E+02
     19.614  0.5554E+00  0.5554E+00  0.2533E+02  0.2533E+02
     19.697  0.3407E+00  0.3394E+00  0.2536E+02  0.2536E+02
     19.779  0.1164E+00  0.1160E+00  0.2537E+02  0.2537E+02
     19.862  0.1277E+00  0.1283E+00  0.2538E+02  0.2538E+02
     19.944  0.3688E+00  0.3703E+00  0.2541E+02  0.2541E+02
     20.027  0.5412E+00  0.5408E+00  0.2546E+02  0.2546E+02
     20.109  0.3723E+00  0.3718E+00  0.2549E+02  0.2549E+02
     20.192  0.5429E+00  0.5449E+00  0.2553E+02  0.2553E+02
     20.274  0.1036E+01  0.1037E+01  0.2562E+02  0.2562E+02
     20.357  0.7546E+00  0.7519E+00  0.2568E+02  0.2568E+02
     20.439  0.2306E+00  0.2292E+00  0.2570E+02  0.2570E+02
     20.522  0.4994E-01  0.4959E-01  0.2570E+02  0.2570E+02
     20.604  0.1230E-01  0.1225E-01  0.2570E+02  0.2570E+02
     20.687  0.1393E-01  0.1404E-01  0.2571E+02  0.2571E+02
     20.769  0.6816E-01  0.6868E-01  0.2571E+02  0.2571E+02
     20.852  0.2721E+00  0.2736E+00  0.2573E+02  0.2573E+02
     20.934  0.5929E+00  0.5938E+00  0.2578E+02  0.2578E+02
     21.017  0.6942E+00  0.6944E+00  0.2584E+02  0.2584E+02
     21.099  0.1126E+01  0.1128E+01  0.2593E+02  0.2593E+02
     21.181  0.1405E+01  0.1404E+01  0.2605E+02  0.2605E+02
     21.264  0.8603E+00  0.8576E+00  0.2612E+02  0.2612E+02
     21.346  0.2939E+00  0.2925E+00  0.2614E+02  0.2614E+02
     21.429  0.1401E+00  0.1403E+00  0.2615E+02  0.2616E+02
     21.511  0.3125E+00  0.3144E+00  0.2618E+02  0.2618E+02
     21.594  0.6304E+00  0.6314E+00  0.2623E+02  0.2623E+02
     21.676  0.8097E+00  0.8111E+00  0.2630E+02  0.2630E+02
     21.759  0.1570E+01  0.1575E+01  0.2643E+02  0.2643E+02
     21.841  0.2182E+01  0.2182E+01  0.2661E+02  0.2661E+02
     21.924  0.1729E+01  0.1726E+01  0.2675E+02  0.2675E+02
     22.006  0.1491E+01  0.1490E+01  0.2688E+02  0.2688E+02
     22.089  0.1495E+01  0.1493E+01  0.2700E+02  0.2700E+02
     22.171  0.1322E+01  0.1321E+01  0.2711E+02  0.2711E+02
     22.254  0.1181E+01  0.1179E+01  0.2721E+02  0.2721E+02
     22.336  0.5835E+00  0.5818E+00  0.2725E+02  0.2725E+02
     22.419  0.4464E+00  0.4477E+00  0.2729E+02  0.2729E+02
     22.501  0.9166E+00  0.9190E+00  0.2737E+02  0.2737E+02
     22.584  0.9373E+00  0.9349E+00  0.2744E+02  0.2744E+02
     22.666  0.3565E+00  0.3543E+00  0.2747E+02  0.2747E+02
     22.749  0.8292E-01  0.8230E-01  0.2748E+02  0.2748E+02
     22.831  0.2179E-01  0.2170E-01  0.2748E+02  0.2748E+02
     22.914  0.2785E-01  0.2805E-01  0.2748E+02  0.2748E+02
     22.996  0.1298E+00  0.1307E+00  0.2750E+02  0.2750E+02
     23.079  0.4251E+00  0.4268E+00  0.2753E+02  0.2753E+02
     23.161  0.6300E+00  0.6303E+00  0.2758E+02  0.2758E+02
     23.244  0.4217E+00  0.4233E+00  0.2762E+02  0.2762E+02
     23.326  0.2398E+00  0.2527E+00  0.2764E+02  0.2764E+02
     23.409  0.3801E+00  0.4066E+00  0.2767E+02  0.2767E+02
     23.491  0.5554E+00  0.5390E+00  0.2771E+02  0.2772E+02
     23.574  0.4032E+00  0.3400E+00  0.2775E+02  0.2774E+02
     23.656  0.5884E+00  0.4628E+00  0.2780E+02  0.2778E+02
     23.739  0.1052E+01  0.9867E+00  0.2788E+02  0.2786E+02
     23.821  0.7114E+00  0.8419E+00  0.2794E+02  0.2793E+02
     23.904  0.2086E+00  0.2823E+00  0.2796E+02  0.2796E+02
     23.986  0.4424E-01  0.6223E-01  0.2796E+02  0.2796E+02
     24.069  0.8668E-02  0.1229E-01  0.2796E+02  0.2796E+02
     24.151  0.0000E+00  0.0000E+00  0.2796E+02  0.2796E+02
     24.234  0.0000E+00  0.0000E+00  0.2796E+02  0.2796E+02
     24.316  0.0000E+00  0.0000E+00  0.2796E+02  0.2796E+02
     24.399  0.0000E+00  0.0000E+00  0.2796E+02  0.2796E+02
     24.481  0.0000E+00  0.0000E+00  0.2796E+02  0.2796E+02
     24.564  0.0000E+00  0.0000E+00  0.2796E+02  0.2796E+02
     24.646  0.0000E+00  0.0000E+00  0.2796E+02  0.2796E+02
     24.729  0.0000E+00  0.0000E+00  0.2796E+02  0.2796E+02
     24.811  0.6443E-04  0.9544E-04  0.2796E+02  0.2796E+02
     24.894  0.2708E-03  0.4010E-03  0.2796E+02  0.2796E+02
     24.976  0.1405E-02  0.2076E-02  0.2796E+02  0.2796E+02
     25.059  0.7172E-02  0.1050E-01  0.2796E+02  0.2796E+02
     25.141  0.3391E-01  0.4757E-01  0.2797E+02  0.2797E+02
     25.224  0.1163E+00  0.1407E+00  0.2798E+02  0.2798E+02
     25.306  0.1735E+00  0.1618E+00  0.2799E+02  0.2799E+02
     25.389  0.8812E-01  0.6631E-01  0.2800E+02  0.2800E+02
     25.471  0.2256E-01  0.1561E-01  0.2800E+02  0.2800E+02
     25.553  0.4613E-02  0.3129E-02  0.2800E+02  0.2800E+02
     25.636  0.8971E-03  0.0000E+00  0.2800E+02  0.2800E+02
     25.718  0.0000E+00  0.0000E+00  0.2800E+02  0.2800E+02
     25.801  0.0000E+00  0.0000E+00  0.2800E+02  0.2800E+02
     25.883  0.0000E+00  0.0000E+00  0.2800E+02  0.2800E+02
     25.966  0.0000E+00  0.0000E+00  0.2800E+02  0.2800E+02
     26.048  0.0000E+00  0.0000E+00  0.2800E+02  0.2800E+02
     26.131  0.0000E+00  0.0000E+00  0.2800E+02  0.2800E+02
     26.213  0.0000E+00  0.0000E+00  0.2800E+02  0.2800E+02
     26.296  0.0000E+00  0.0000E+00  0.2800E+02  0.2800E+02
     26.378  0.0000E+00  0.0000E+00  0.2800E+02  0.2800E+02
     26.37840073      1.63124930  301     12.01022269      1.00000000
      1.631  0.0000E+00  0.0000E+00  0.0000E+00  0.0000E+00  0.0000E+00  0.0000E+00  0.0000E+00  0.0000E+00  0.0000E+00  0.0000E+00  0.0000E+00  0.0000E+00  0.0000E+00  0.0000E+00  0.0000E+00  0.0000E+00  0.0000E+00  0.0000E+00
      1.714  0.0000E+00  0.0000E+00  0.0000E+00  0.0000E+00  0.0000E+00  0.0000E+00  0.0000E+00  0.0000E+00  0.0000E+00  0.0000E+00  0.0000E+00  0.0000E+00  0.0000E+00  0.0000E+00  0.0000E+00  0.0000E+00  0.0000E+00  0.0000E+00
      1.796  0.0000E+00  0.0000E+00  0.0000E+00  0.0000E+00  0.0000E+00  0.0000E+00  0.0000E+00  0.0000E+00  0.0000E+00  0.0000E+00  0.0000E+00  0.0000E+00  0.0000E+00  0.0000E+00  0.0000E+00  0.0000E+00  0.0000E+00  0.0000E+00
      1.879  0.0000E+00  0.0000E+00  0.0000E+00  0.0000E+00  0.0000E+00  0.0000E+00  0.0000E+00  0.0000E+00  0.0000E+00  0.0000E+00  0.0000E+00  0.0000E+00  0.0000E+00  0.0000E+00  0.0000E+00  0.0000E+00  0.0000E+00  0.0000E+00
      1.961  0.0000E+00  0.0000E+00  0.0000E+00  0.0000E+00  0.0000E+00  0.0000E+00  0.0000E+00  0.0000E+00  0.0000E+00  0.0000E+00  0.0000E+00  0.0000E+00  0.0000E+00  0.0000E+00  0.0000E+00  0.0000E+00  0.0000E+00  0.0000E+00
      2.044  0.0000E+00  0.0000E+00  0.0000E+00  0.0000E+00  0.0000E+00  0.0000E+00  0.0000E+00  0.0000E+00  0.0000E+00  0.0000E+00  0.0000E+00  0.0000E+00  0.0000E+00  0.0000E+00  0.0000E+00  0.0000E+00  0.0000E+00  0.0000E+00
      2.126  0.0000E+00  0.0000E+00  0.0000E+00  0.0000E+00  0.0000E+00  0.0000E+00  0.0000E+00  0.0000E+00  0.0000E+00  0.0000E+00  0.0000E+00  0.0000E+00  0.0000E+00  0.0000E+00  0.0000E+00  0.0000E+00  0.0000E+00  0.0000E+00
      2.209  0.0000E+00  0.0000E+00  0.0000E+00  0.0000E+00  0.0000E+00  0.0000E+00  0.0000E+00  0.0000E+00  0.0000E+00  0.0000E+00  0.0000E+00  0.0000E+00  0.0000E+00  0.0000E+00  0.0000E+00  0.0000E+00  0.0000E+00  0.0000E+00
      2.291  0.7200E-05  0.7233E-05  0.5616E-07  0.5642E-07  0.5616E-07  0.5642E-07  0.5616E-07  0.5642E-07  0.6241E-08  0.6271E-08  0.6241E-08  0.6271E-08  0.1018E-20  0.2703E-21  0.6241E-08  0.6271E-08  0.1018E-20  0.2703E-21
      2.374  0.3027E-04  0.3041E-04  0.2361E-06  0.2372E-06  0.2361E-06  0.2372E-06  0.2361E-06  0.2372E-06  0.2624E-07  0.2636E-07  0.2624E-07  0.2636E-07  0.4280E-20  0.1136E-20  0.2624E-07  0.2636E-07  0.4280E-20  0.1136E-20
      2.456  0.1572E-03  0.1579E-03  0.1226E-05  0.1232E-05  0.1226E-05  0.1232E-05  0.1226E-05  0.1232E-05  0.1363E-06  0.1369E-06  0.1363E-06  0.1369E-06  0.2223E-19  0.5901E-20  0.1363E-06  0.1369E-06  0.2223E-19  0.5901E-20
      2.539  0.8084E-03  0.8120E-03  0.6305E-05  0.6334E-05  0.6305E-05  0.6334E-05  0.6305E-05  0.6334E-05  0.7007E-06  0.7040E-06  0.7007E-06  0.7040E-06  0.1143E-18  0.3034E-19  0.7007E-06  0.7040E-06  0.1143E-18  0.3034E-19
      2.621  0.3954E-02  0.3971E-02  0.3084E-04  0.3097E-04  0.3084E-04  0.3097E-04  0.3084E-04  0.3097E-04  0.3428E-05  0.3443E-05  0.3428E-05  0.3443E-05  0.5592E-18  0.1484E-18  0.3428E-05  0.3443E-05  0.5592E-18  0.1484E-18
      2.704  0.1546E-01  0.1551E-01  0.1206E-03  0.1210E-03  0.1206E-03  0.1210E-03  0.1206E-03  0.1210E-03  0.1340E-04  0.1345E-04  0.1340E-04  0.1345E-04  0.2187E-17  0.5796E-18  0.1340E-04  0.1345E-04  0.2187E-17  0.5796E-18
      2.786  0.3053E-01  0.3054E-01  0.2381E-03  0.2382E-03  0.2381E-03  0.2382E-03  0.2381E-03  0.2382E-03  0.2646E-04  0.2648E-04  0.2646E-04  0.2648E-04  0.4317E-17  0.1141E-17  0.2646E-04  0.2648E-04  0.4317E-17  0.1141E-17
      2.869  0.2052E-01  0.2047E-01  0.1601E-03  0.1597E-03  0.1601E-03  0.1597E-03  0.1601E-03  0.1597E-03  0.1779E-04  0.1775E-04  0.1779E-04  0.1775E-04  0.2902E-17  0.7649E-18  0.1779E-04  0.1775E-04  0.2902E-17  0.7649E-18
      2.951  0.6019E-02  0.5994E-02  0.4748E-04  0.4729E-04  0.4748E-04  0.4729E-04  0.4748E-04  0.4729E-04  0.5371E-05  0.5351E-05  0.5371E-05  0.5351E-05  0.1547E-06  0.1554E-06  0.5371E-05  0.5351E-05  0.1547E-06  0.1554E-06
      3.034  0.1374E-02  0.1369E-02  0.1293E-04  0.1290E-04  0.1293E-04  0.1290E-04  0.1293E-04  0.1290E-04  0.1835E-05  0.1834E-05  0.1835E-05  0.1834E-05  0.6502E-06  0.6534E-06  0.1835E-05  0.1834E-05  0.6502E-06  0.6534E-06
      3.116  0.7989E-03  0.8003E-03  0.1771E-04  0.1777E-04  0.1771E-04  0.1777E-04  0.1771E-04  0.1777E-04  0.4034E-05  0.4052E-05  0.4034E-05  0.4052E-05  0.3375E-05  0.3391E-05  0.4034E-05  0.4052E-05  0.3375E-05  0.3391E-05
      3.199  0.2822E-02  0.2835E-02  0.8082E-04  0.8120E-04  0.8082E-04  0.8120E-04  0.8082E-04  0.8120E-04  0.1958E-04  0.1967E-04  0.1958E-04  0.1967E-04  0.1730E-04  0.1738E-04  0.1958E-04  0.1967E-04  0.1730E-04  0.1738E-04
      3.281  0.1358E-01  0.1364E-01  0.3891E-03  0.3908E-03  0.3891E-03  0.3908E-03  0.3891E-03  0.3908E-03  0.9424E-04  0.9466E-04  0.9424E-04  0.9466E-04  0.8328E-04  0.8365E-04  0.9424E-04  0.9466E-04  0.8328E-04  0.8365E-04
      3.364  0.4987E-01  0.5001E-01  0.1428E-02  0.1432E-02  0.1428E-02  0.1432E-02  0.1428E-02  0.1432E-02  0.3459E-03  0.3470E-03  0.3459E-03  0.3470E-03  0.3057E-03  0.3066E-03  0.3459E-03  0.3470E-03  0.3057E-03  0.3066E-03
      3.446  0.8540E-01  0.8540E-01  0.2446E-02  0.2446E-02  0.2446E-02  0.2446E-02  0.2446E-02  0.2446E-02  0.5924E-03  0.5931E-03  0.5924E-03  0.5931E-03  0.5235E-03  0.5236E-03  0.5924E-03  0.5931E-03  0.5235E-03  0.5236E-03
      3.529  0.4950E-01  0.4934E-01  0.1419E-02  0.1414E-02  0.1419E-02  0.1414E-02  0.1419E-02  0.1414E-02  0.3466E-03  0.3450E-03  0.3466E-03  0.3450E-03  0.3122E-03  0.3114E-03  0.3466E-03  0.3450E-03  0.3122E-03  0.3114E-03
      3.611  0.1369E-01  0.1363E-01  0.3965E-03  0.3949E-03  0.3965E-03  0.3949E-03  0.3965E-03  0.3949E-03  0.1105E-03  0.1102E-03  0.1105E-03  0.1102E-03  0.1206E-03  0.1206E-03  0.1105E-03  0.1102E-03  0.1206E-03  0.1206E-03
      3.694  0.4223E-02  0.4217E-02  0.1435E-03  0.1434E-03  0.1435E-03  0.1434E-03  0.1435E-03  0.1434E-03  0.1100E-03  0.1104E-03  0.1100E-03  0.1104E-03  0.2162E-03  0.2180E-03  0.1100E-03  0.1104E-03  0.2162E-03  0.2180E-03
      3.776  0.7722E-02  0.7756E-02  0.3330E-03  0.3345E-03  0.3330E-03  0.3345E-03  0.3330E-03  0.3345E-03  0.4884E-03  0.4913E-03  0.4884E-03  0.4913E-03  0.1030E-02  0.1040E-02  0.4884E-03  0.4913E-03  0.1030E-02  0.1040E-02
      3.858  0.3044E-01  0.3057E-01  0.1344E-02  0.1349E-02  0.1344E-02  0.1349E-02  0.1344E-02  0.1349E-02  0.2124E-02  0.2136E-02  0.2124E-02  0.2136E-02  0.5098E-02  0.5142E-02  0.2124E-02  0.2136E-02  0.5098E-02  0.5142E-02
      3.941  0.7514E-01  0.7526E-01  0.3282E-02  0.3287E-02  0.3282E-02  0.3287E-02  0.3282E-02  0.3287E-02  0.6564E-02  0.6593E-02  0.6564E-02  0.6593E-02  0.2120E-01  0.2135E-01  0.6564E-02  0.6593E-02  0.2120E-01  0.2135E-01
      4.023  0.7566E-01  0.7559E-01  0.3128E-02  0.3124E-02  0.3128E-02  0.3124E-02  0.3128E-02  0.3124E-02  0.1461E-01  0.1468E-01  0.1461E-01  0.1468E-01  0.4960E-01  0.4970E-01  0.1461E-01  0.1468E-01  0.4960E-01  0.4970E-01
      4.106  0.5438E-01  0.5437E-01  0.1951E-02  0.1950E-02  0.1951E-02  0.1950E-02  0.1951E-02  0.1950E-02  0.3355E-01  0.3370E-01  0.3355E-01  0.3370E-01  0.4321E-01  0.4307E-01  0.3355E-01  0.3370E-01  0.4321E-01  0.4307E-01
      4.188  0.5102E-01  0.5102E-01  0.1892E-02  0.1894E-02  0.1892E-02  0.1894E-02  0.1892E-02  0.1894E-02  0.6689E-01  0.6711E-01  0.6689E-01  0.6711E-01  0.2693E-01  0.2694E-01  0.6689E-01  0.6711E-01  0.2693E-01  0.2694E-01
      4.271  0.5694E-01  0.5703E-01  0.2949E-02  0.2959E-02  0.2949E-02  0.2959E-02  0.2949E-02  0.2959E-02  0.9476E-01  0.9484E-01  0.9476E-01  0.9484E-01  0.5719E-01  0.5753E-01  0.9476E-01  0.9484E-01  0.5719E-01  0.5753E-01
      4.353  0.1046E+00  0.1048E+00  0.6507E-02  0.6524E-02  0.6507E-02  0.6524E-02  0.6507E-02  0.6524E-02  0.1052E+00  0.1053E+00  0.1052E+00  0.1053E+00  0.1296E+00  0.1299E+00  0.1052E+00  0.1053E+00  0.1296E+00  0.1299E+00
      4.436  0.1447E+00  0.1446E+00  0.9303E-02  0.9302E-02  0.9303E-02  0.9302E-02  0.9303E-02  0.9302E-02  0.1233E+00  0.1235E+00  0.1233E+00  0.1235E+00  0.1345E+00  0.1342E+00  0.1233E+00  0.1235E+00  0.1345E+00  0.1342E+00
      4.518  0.1147E+00  0.1146E+00  0.8222E-02  0.8226E-02  0.8222E-02  0.8226E-02  0.8222E-02  0.8226E-02  0.1673E+00  0.1678E+00  0.1673E+00  0.1678E+00  0.9701E-01  0.9697E-01  0.1673E+00  0.1678E+00  0.9701E-01  0.9697E-01
      4.601  0.1270E+00  0.1272E+00  0.1125E-01  0.1128E-01  0.1125E-01  0.1128E-01  0.1125E-01  0.1128E-01  0.2405E+00  0.2409E+00  0.2405E+00  0.2409E+00  0.1152E+00  0.1155E+00  0.2405E+00  0.2409E+00  0.1152E+00  0.1155E+00
      4.683  0.1734E+00  0.1734E+00  0.1736E-01  0.1737E-01  0.1736E-01  0.1737E-01  0.1736E-01  0.1737E-01  0.2639E+00  0.2637E+00  0.2639E+00  0.2637E+00  0.1460E+00  0.1460E+00  0.2639E+00  0.2637E+00  0.1460E+00  0.1460E+00
      4.766  0.1402E+00  0.1398E+00  0.1489E-01  0.1486E-01  0.1489E-01  0.1486E-01  0.1489E-01  0.1486E-01  0.1740E+00  0.1735E+00  0.1740E+00  0.1735E+00  0.1166E+00  0.1164E+00  0.1740E+00  0.1735E+00  0.1166E+00  0.1164E+00
      4.848  0.7879E-01  0.7869E-01  0.1161E-01  0.1163E-01  0.1161E-01  0.1163E-01  0.1161E-01  0.1163E-01  0.1507E+00  0.1510E+00  0.1507E+00  0.1510E+00  0.1306E+00  0.1311E+00  0.1507E+00  0.1510E+00  0.1306E+00  0.1311E+00
      4.931  0.7676E-01  0.7678E-01  0.1529E-01  0.1531E-01  0.1529E-01  0.1531E-01  0.1529E-01  0.1531E-01  0.2221E+00  0.2224E+00  0.2221E+00  0.2224E+00  0.2180E+00  0.2184E+00  0.2221E+00  0.2224E+00  0.2180E+00  0.2184E+00
      5.013  0.7084E-01  0.7070E-01  0.1336E-01  0.1333E-01  0.1336E-01  0.1333E-01  0.1336E-01  0.1333E-01  0.2090E+00  0.2086E+00  0.2090E+00  0.2086E+00  0.1936E+00  0.1931E+00  0.2090E+00  0.2086E+00  0.1936E+00  0.1931E+00
      5.096  0.4513E-01  0.4493E-01  0.9217E-02  0.9203E-02  0.9217E-02  0.9203E-02  0.9217E-02  0.9203E-02  0.1377E+00  0.1374E+00  0.1377E+00  0.1374E+00  0.1139E+00  0.1135E+00  0.1377E+00  0.1374E+00  0.1139E+00  0.1135E+00
      5.178  0.3821E-01  0.3823E-01  0.1112E-01  0.1115E-01  0.1112E-01  0.1115E-01  0.1112E-01  0.1115E-01  0.1422E+00  0.1424E+00  0.1422E+00  0.1424E+00  0.1040E+00  0.1041E+00  0.1422E+00  0.1424E+00  0.1040E+00  0.1041E+00
      5.261  0.3850E-01  0.3836E-01  0.1255E-01  0.1253E-01  0.1255E-01  0.1253E-01  0.1255E-01  0.1253E-01  0.1515E+00  0.1512E+00  0.1515E+00  0.1512E+00  0.1000E+00  0.9984E-01  0.1515E+00  0.1512E+00  0.1000E+00  0.9984E-01
      5.343  0.2314E-01  0.2306E-01  0.1211E-01  0.1213E-01  0.1211E-01  0.1213E-01  0.1211E-01  0.1213E-01  0.1385E+00  0.1386E+00  0.1385E+00  0.1386E+00  0.8601E-01  0.8614E-01  0.1385E+00  0.1386E+00  0.8601E-01  0.8614E-01
      5.426  0.2071E-01  0.2073E-01  0.1724E-01  0.1727E-01  0.1724E-01  0.1727E-01  0.1724E-01  0.1727E-01  0.1846E+00  0.1849E+00  0.1846E+00  0.1849E+00  0.1392E+00  0.1396E+00  0.1846E+00  0.1849E+00  0.1392E+00  0.1396E+00
      5.508  0.1912E-01  0.1907E-01  0.1652E-01  0.1649E-01  0.1652E-01  0.1649E-01  0.1652E-01  0.1649E-01  0.1717E+00  0.1713E+00  0.1717E+00  0.1713E+00  0.1555E+00  0.1553E+00  0.1717E+00  0.1713E+00  0.1555E+00  0.1553E+00
      5.591  0.1124E-01  0.1121E-01  0.1369E-01  0.1369E-01  0.1369E-01  0.1369E-01  0.1369E-01  0.1369E-01  0.1089E+00  0.1086E+00  0.1089E+00  0.1086E+00  0.1484E+00  0.1486E+00  0.1089E+00  0.1086E+00  0.1484E+00  0.1486E+00
      5.673  0.1056E-01  0.1057E-01  0.1275E-01  0.1273E-01  0.1275E-01  0.1273E-01  0.1275E-01  0.1273E-01  0.8798E-01  0.8794E-01  0.8798E-01  0.8794E-01  0.1553E+00  0.1551E+00  0.8798E-01  0.8794E-01  0.1553E+00  0.1551E+00
      5.756  0.1677E-01  0.1682E-01  0.9795E-02  0.9788E-02  0.9795E-02  0.9788E-02  0.9795E-02  0.9788E-02  0.1003E+00  0.1005E+00  0.1003E+00  0.1005E+00  0.1062E+00  0.1061E+00  0.1003E+00  0.1005E+00  0.1062E+00  0.1061E+00