   4   4   1   0
  0.1304397E+02  0.3736714E-09  0.3736714E-09  0.3736714E-09  0.5000000E-15
  1.000000000000000E-004
  CAR 
 unknown system                          
     27.26777272      1.92573068  301     12.66050990      1.00000000
      1.926  0.0000E+00  0.0000E+00  0.0000E+00  0.0000E+00
      2.010  0.0000E+00  0.0000E+00  0.0000E+00  0.0000E+00
      2.095  0.0000E+00  0.0000E+00  0.0000E+00  0.0000E+00
      2.179  0.0000E+00  0.0000E+00  0.0000E+00  0.0000E+00
      2.264  0.0000E+00  0.0000E+00  0.0000E+00  0.0000E+00
      2.348  0.0000E+00  0.0000E+00  0.0000E+00  0.0000E+00
      2.433  0.0000E+00  0.0000E+00  0.0000E+00  0.0000E+00
      2.517  0.0000E+00  0.0000E+00  0.0000E+00  0.0000E+00
      2.602  0.3199E-04  0.3209E-04  0.2703E-05  0.2711E-05
      2.686  0.1413E-03  0.1417E-03  0.1463E-04  0.1468E-04
      2.770  0.7635E-03  0.7657E-03  0.7913E-04  0.7936E-04
      2.855  0.4090E-02  0.4102E-02  0.4246E-03  0.4258E-03
      2.939  0.2089E-01  0.2094E-01  0.2189E-02  0.2195E-02
      3.024  0.8540E-01  0.8557E-01  0.9403E-02  0.9423E-02
      3.108  0.1729E+00  0.1730E+00  0.2401E-01  0.2403E-01
      3.193  0.1143E+00  0.1141E+00  0.3366E-01  0.3367E-01
      3.277  0.3208E-01  0.3199E-01  0.3637E-01  0.3638E-01
      3.362  0.6989E-02  0.6972E-02  0.3696E-01  0.3697E-01
      3.446  0.4023E-02  0.4028E-02  0.3730E-01  0.3731E-01
      3.531  0.1500E-01  0.1505E-01  0.3860E-01  0.3860E-01
      3.615  0.7565E-01  0.7586E-01  0.4499E-01  0.4501E-01
      3.700  0.2932E+00  0.2938E+00  0.6975E-01  0.6982E-01
      3.784  0.5246E+00  0.5246E+00  0.1141E+00  0.1141E+00
      3.869  0.3046E+00  0.3041E+00  0.1398E+00  0.1398E+00
      3.953  0.8225E-01  0.8204E-01  0.1468E+00  0.1468E+00
      4.038  0.2936E-01  0.2938E-01  0.1492E+00  0.1492E+00
      4.122  0.7363E-01  0.7397E-01  0.1555E+00  0.1555E+00
      4.207  0.3249E+00  0.3263E+00  0.1830E+00  0.1831E+00
      4.291  0.9375E+00  0.9399E+00  0.2622E+00  0.2625E+00
      4.375  0.1196E+01  0.1196E+01  0.3632E+00  0.3635E+00
      4.460  0.1149E+01  0.1150E+01  0.4602E+00  0.4607E+00
      4.544  0.1633E+01  0.1636E+01  0.5981E+00  0.5989E+00
      4.629  0.2363E+01  0.2367E+01  0.7977E+00  0.7988E+00
      4.713  0.3303E+01  0.3305E+01  0.1077E+01  0.1078E+01
      4.798  0.3502E+01  0.3503E+01  0.1373E+01  0.1374E+01
      4.882  0.3913E+01  0.3919E+01  0.1704E+01  0.1705E+01
      4.967  0.5192E+01  0.5198E+01  0.2142E+01  0.2145E+01
      5.051  0.5436E+01  0.5429E+01  0.2602E+01  0.2603E+01
      5.136  0.3673E+01  0.3668E+01  0.2912E+01  0.2913E+01
      5.220  0.4002E+01  0.4012E+01  0.3251E+01  0.3253E+01
      5.305  0.5531E+01  0.5532E+01  0.3718E+01  0.3720E+01
      5.389  0.4320E+01  0.4310E+01  0.4084E+01  0.4085E+01
      5.474  0.2756E+01  0.2754E+01  0.4317E+01  0.4318E+01
      5.558  0.3068E+01  0.3071E+01  0.4576E+01  0.4577E+01
      5.643  0.3000E+01  0.2996E+01  0.4830E+01  0.4831E+01
      5.727  0.2742E+01  0.2746E+01  0.5062E+01  0.5063E+01
      5.812  0.4000E+01  0.4005E+01  0.5400E+01  0.5402E+01
      5.896  0.3702E+01  0.3695E+01  0.5713E+01  0.5714E+01
      5.980  0.2803E+01  0.2802E+01  0.5950E+01  0.5951E+01
      6.065  0.2590E+01  0.2587E+01  0.6169E+01  0.6170E+01
      6.149  0.2242E+01  0.2243E+01  0.6359E+01  0.6360E+01
      6.234  0.2849E+01  0.2854E+01  0.6600E+01  0.6601E+01
      6.318  0.3517E+01  0.3520E+01  0.6897E+01  0.6899E+01
      6.403  0.3910E+01  0.3912E+01  0.7227E+01  0.7229E+01
      6.487  0.3401E+01  0.3395E+01  0.7515E+01  0.7516E+01
      6.572  0.2980E+01  0.2981E+01  0.7767E+01  0.7768E+01
      6.656  0.3163E+01  0.3161E+01  0.8034E+01  0.8036E+01
      6.741  0.2680E+01  0.2682E+01  0.8261E+01  0.8262E+01
      6.825  0.4042E+01  0.4056E+01  0.8603E+01  0.8605E+01
      6.910  0.6343E+01  0.6351E+01  0.9139E+01  0.9142E+01
      6.994  0.6281E+01  0.6274E+01  0.9670E+01  0.9672E+01
      7.079  0.4938E+01  0.4936E+01  0.1009E+02  0.1009E+02
      7.163  0.5475E+01  0.5480E+01  0.1055E+02  0.1055E+02
      7.248  0.5432E+01  0.5425E+01  0.1101E+02  0.1101E+02
      7.332  0.3619E+01  0.3608E+01  0.1132E+02  0.1132E+02
      7.417  0.2400E+01  0.2398E+01  0.1152E+02  0.1152E+02
      7.501  0.2758E+01  0.2763E+01  0.1175E+02  0.1175E+02
      7.585  0.3381E+01  0.3383E+01  0.1204E+02  0.1204E+02
      7.670  0.3257E+01  0.3256E+01  0.1231E+02  0.1231E+02
      7.754  0.3602E+01  0.3607E+01  0.1262E+02  0.1262E+02
      7.839  0.4309E+01  0.4309E+01  0.1298E+02  0.1298E+02
      7.923  0.3624E+01  0.3616E+01  0.1329E+02  0.1329E+02
      8.008  0.2506E+01  0.2505E+01  0.1350E+02  0.1350E+02
      8.092  0.3371E+01  0.3381E+01  0.1378E+02  0.1379E+02
      8.177  0.4951E+01  0.4960E+01  0.1420E+02  0.1421E+02
      8.261  0.5475E+01  0.5474E+01  0.1467E+02  0.1467E+02
      8.346  0.4949E+01  0.4944E+01  0.1508E+02  0.1509E+02
      8.430  0.3626E+01  0.3616E+01  0.1539E+02  0.1539E+02
      8.515  0.2483E+01  0.2479E+01  0.1560E+02  0.1560E+02
      8.599  0.2110E+01  0.2109E+01  0.1578E+02  0.1578E+02
      8.684  0.1966E+01  0.1968E+01  0.1595E+02  0.1595E+02
      8.768  0.3136E+01  0.3149E+01  0.1621E+02  0.1621E+02
      8.853  0.4298E+01  0.4298E+01  0.1657E+02  0.1658E+02
      8.937  0.3708E+01  0.3705E+01  0.1689E+02  0.1689E+02
      9.022  0.3553E+01  0.3553E+01  0.1719E+02  0.1719E+02
      9.106  0.3162E+01  0.3155E+01  0.1746E+02  0.1746E+02
      9.190  0.2088E+01  0.2083E+01  0.1763E+02  0.1763E+02
      9.275  0.2026E+01  0.2030E+01  0.1780E+02  0.1781E+02
      9.359  0.3217E+01  0.3231E+01  0.1808E+02  0.1808E+02
      9.444  0.5681E+01  0.5698E+01  0.1856E+02  0.1856E+02
      9.528  0.6653E+01  0.6652E+01  0.1912E+02  0.1912E+02
      9.613  0.6391E+01  0.6385E+01  0.1966E+02  0.1966E+02
      9.697  0.4663E+01  0.4647E+01  0.2005E+02  0.2005E+02
      9.782  0.2993E+01  0.2989E+01  0.2031E+02  0.2031E+02
      9.866  0.2993E+01  0.2994E+01  0.2056E+02  0.2056E+02
      9.951  0.2351E+01  0.2339E+01  0.2076E+02  0.2076E+02
     10.035  0.8608E+00  0.8521E+00  0.2083E+02  0.2083E+02
     10.120  0.1953E+00  0.1929E+00  0.2085E+02  0.2085E+02
     10.204  0.4343E-01  0.4300E-01  0.2085E+02  0.2085E+02
     10.289  0.3779E-01  0.3795E-01  0.2086E+02  0.2086E+02
     10.373  0.1528E+00  0.1535E+00  0.2087E+02  0.2087E+02
     10.458  0.4263E+00  0.4280E+00  0.2090E+02  0.2090E+02
     10.542  0.6289E+00  0.6292E+00  0.2096E+02  0.2096E+02
     10.626  0.3980E+00  0.3963E+00  0.2099E+02  0.2099E+02
     10.711  0.2067E+00  0.2068E+00  0.2101E+02  0.2101E+02
     10.795  0.4010E+00  0.4031E+00  0.2104E+02  0.2104E+02
     10.880  0.7107E+00  0.7117E+00  0.2110E+02  0.2110E+02
     10.964  0.9345E+00  0.9363E+00  0.2118E+02  0.2118E+02
     11.049  0.1104E+01  0.1102E+01  0.2127E+02  0.2128E+02
     11.133  0.5383E+00  0.5350E+00  0.2132E+02  0.2132E+02
     11.218  0.1605E+00  0.1596E+00  0.2133E+02  0.2133E+02
     11.302  0.1674E+00  0.1682E+00  0.2135E+02  0.2135E+02
     11.387  0.4320E+00  0.4334E+00  0.2138E+02  0.2138E+02
     11.471  0.4754E+00  0.4743E+00  0.2142E+02  0.2142E+02
     11.556  0.1840E+00  0.1828E+00  0.2144E+02  0.2144E+02
     11.640  0.4696E-01  0.4669E-01  0.2144E+02  0.2144E+02
     11.725  0.4060E-01  0.4073E-01  0.2145E+02  0.2145E+02
     11.809  0.1525E+00  0.1532E+00  0.2146E+02  0.2146E+02
     11.894  0.4413E+00  0.4423E+00  0.2150E+02  0.2150E+02
     11.978  0.4637E+00  0.4628E+00  0.2154E+02  0.2154E+02
     12.063  0.1721E+00  0.1713E+00  0.2155E+02  0.2155E+02
     12.147  0.4309E-01  0.4291E-01  0.2156E+02  0.2156E+02
     12.231  0.3641E-01  0.3652E-01  0.2156E+02  0.2156E+02
     12.316  0.1417E+00  0.1424E+00  0.2157E+02  0.2157E+02
     12.400  0.4964E+00  0.4981E+00  0.2161E+02  0.2161E+02
     12.485  0.9620E+00  0.9644E+00  0.2169E+02  0.2169E+02
     12.569  0.1592E+01  0.1596E+01  0.2183E+02  0.2183E+02
     12.654  0.1906E+01  0.1905E+01  0.2199E+02  0.2199E+02
     12.738  0.1070E+01  0.1065E+01  0.2208E+02  0.2208E+02
     12.823  0.2967E+00  0.2945E+00  0.2210E+02  0.2210E+02
     12.907  0.6063E-01  0.6013E-01  0.2211E+02  0.2211E+02
     12.992  0.1017E-01  0.1010E-01  0.2211E+02  0.2211E+02
     13.076  0.5072E-02  0.5109E-02  0.2211E+02  0.2211E+02
     13.161  0.2714E-01  0.2733E-01  0.2211E+02  0.2211E+02
     13.245  0.1378E+00  0.1387E+00  0.2213E+02  0.2213E+02
     13.330  0.5489E+00  0.5515E+00  0.2217E+02  0.2217E+02
     13.414  0.1046E+01  0.1046E+01  0.2226E+02  0.2226E+02
     13.499  0.6468E+00  0.6441E+00  0.2231E+02  0.2232E+02
     13.583  0.1750E+00  0.1739E+00  0.2233E+02  0.2233E+02
     13.668  0.3523E-01  0.3498E-01  0.2233E+02  0.2233E+02
     13.752  0.7174E-02  0.7130E-02  0.2233E+02  0.2233E+02
     13.836  0.3180E-02  0.3201E-02  0.2233E+02  0.2233E+02
     13.921  0.1692E-01  0.1703E-01  0.2234E+02  0.2234E+02
     14.005  0.8688E-01  0.8741E-01  0.2234E+02  0.2234E+02
     14.090  0.3675E+00  0.3692E+00  0.2237E+02  0.2237E+02
     14.174  0.9072E+00  0.9091E+00  0.2245E+02  0.2245E+02
     14.259  0.1173E+01  0.1173E+01  0.2255E+02  0.2255E+02
     14.343  0.9268E+00  0.9250E+00  0.2263E+02  0.2263E+02
     14.428  0.4530E+00  0.4522E+00  0.2267E+02  0.2267E+02
     14.512  0.3934E+00  0.3944E+00  0.2270E+02  0.2270E+02
     14.597  0.5413E+00  0.5411E+00  0.2274E+02  0.2274E+02
     14.681  0.2954E+00  0.2940E+00  0.2277E+02  0.2277E+02
     14.766  0.7644E-01  0.7592E-01  0.2278E+02  0.2278E+02
     14.850  0.2098E-01  0.2092E-01  0.2278E+02  0.2278E+02
     14.935  0.3448E-01  0.3468E-01  0.2278E+02  0.2278E+02
     15.019  0.1609E+00  0.1620E+00  0.2279E+02  0.2279E+02
     15.104  0.6477E+00  0.6508E+00  0.2285E+02  0.2285E+02
     15.188  0.1382E+01  0.1384E+01  0.2297E+02  0.2297E+02
     15.273  0.1537E+01  0.1537E+01  0.2310E+02  0.2310E+02
     15.357  0.1057E+01  0.1054E+01  0.2319E+02  0.2319E+02
     15.441  0.3460E+00  0.3441E+00  0.2321E+02  0.2321E+02
     15.526  0.7412E-01  0.7365E-01  0.2322E+02  0.2322E+02
     15.610  0.1421E-01  0.1414E-01  0.2322E+02  0.2322E+02
     15.695  0.7154E-02  0.7195E-02  0.2322E+02  0.2322E+02
     15.779  0.3808E-01  0.3830E-01  0.2323E+02  0.2323E+02
     15.864  0.1885E+00  0.1894E+00  0.2324E+02  0.2324E+02
     15.948  0.6784E+00  0.6805E+00  0.2330E+02  0.2330E+02
     16.033  0.1039E+01  0.1039E+01  0.2339E+02  0.2339E+02
     16.117  0.5192E+00  0.5172E+00  0.2343E+02  0.2343E+02
     16.202  0.1276E+00  0.1269E+00  0.2344E+02  0.2344E+02
     16.286  0.2501E-01  0.2487E-01  0.2344E+02  0.2344E+02
     16.371  0.4670E-02  0.4644E-02  0.2344E+02  0.2344E+02
     16.455  0.0000E+00  0.0000E+00  0.2344E+02  0.2344E+02
     16.540  0.4671E-03  0.4700E-03  0.2344E+02  0.2344E+02
     16.624  0.2061E-02  0.2074E-02  0.2344E+02  0.2344E+02
     16.709  0.1111E-01  0.1118E-01  0.2345E+02  0.2345E+02
     16.793  0.5882E-01  0.5918E-01  0.2345E+02  0.2345E+02
     16.878  0.2777E+00  0.2792E+00  0.2347E+02  0.2347E+02
     16.962  0.8487E+00  0.8509E+00  0.2355E+02  0.2355E+02
     17.046  0.9908E+00  0.9893E+00  0.2363E+02  0.2363E+02
     17.131  0.5220E+00  0.5210E+00  0.2367E+02  0.2367E+02
     17.215  0.5173E+00  0.5178E+00  0.2372E+02  0.2372E+02
     17.300  0.4867E+00  0.4857E+00  0.2376E+02  0.2376E+02
     17.384  0.1780E+00  0.1771E+00  0.2377E+02  0.2377E+02
     17.469  0.3943E-01  0.3919E-01  0.2378E+02  0.2378E+02
     17.553  0.7549E-02  0.7502E-02  0.2378E+02  0.2378E+02
     17.638  0.3676E-03  0.3698E-03  0.2378E+02  0.2378E+02
     17.722  0.1622E-02  0.1632E-02  0.2378E+02  0.2378E+02
     17.807  0.8752E-02  0.8805E-02  0.2378E+02  0.2378E+02
     17.891  0.4641E-01  0.4668E-01  0.2378E+02  0.2378E+02
     17.976  0.2257E+00  0.2269E+00  0.2380E+02  0.2380E+02
     18.060  0.7573E+00  0.7596E+00  0.2387E+02  0.2387E+02
     18.145  0.1022E+01  0.1021E+01  0.2395E+02  0.2395E+02
     18.229  0.5034E+00  0.5018E+00  0.2399E+02  0.2399E+02
     18.314  0.3418E+00  0.3427E+00  0.2402E+02  0.2402E+02
     18.398  0.6460E+00  0.6477E+00  0.2408E+02  0.2408E+02
     18.483  0.8961E+00  0.8970E+00  0.2415E+02  0.2415E+02
     18.567  0.1239E+01  0.1241E+01  0.2426E+02  0.2426E+02
     18.651  0.1328E+01  0.1327E+01  0.2437E+02  0.2437E+02
     18.736  0.6617E+00  0.6585E+00  0.2443E+02  0.2443E+02
     18.820  0.1670E+00  0.1659E+00  0.2444E+02  0.2444E+02
     18.905  0.3484E-01  0.3462E-01  0.2444E+02  0.2444E+02
     18.989  0.1576E-01  0.1578E-01  0.2445E+02  0.2445E+02
     19.074  0.5309E-01  0.5342E-01  0.2445E+02  0.2445E+02
     19.158  0.2576E+00  0.2590E+00  0.2447E+02  0.2447E+02
     19.243  0.8724E+00  0.8752E+00  0.2455E+02  0.2455E+02
     19.327  0.1331E+01  0.1331E+01  0.2466E+02  0.2466E+02
     19.412  0.9503E+00  0.9480E+00  0.2474E+02  0.2474E+02
     19.496  0.3724E+00  0.3709E+00  0.2477E+02  0.2477E+02
     19.581  0.1200E+00  0.1198E+00  0.2478E+02  0.2478E+02
     19.665  0.1383E+00  0.1388E+00  0.2479E+02  0.2479E+02
     19.750  0.2166E+00  0.2167E+00  0.2481E+02  0.2481E+02
     19.834  0.2905E+00  0.2914E+00  0.2483E+02  0.2483E+02
     19.919  0.7624E+00  0.7652E+00  0.2490E+02  0.2490E+02
     20.003  0.1215E+01  0.1215E+01  0.2500E+02  0.2500E+02
     20.088  0.1153E+01  0.1153E+01  0.2510E+02  0.2510E+02
     20.172  0.1174E+01  0.1173E+01  0.2520E+02  0.2520E+02
     20.256  0.6192E+00  0.6174E+00  0.2525E+02  0.2525E+02
     20.341  0.3759E+00  0.3762E+00  0.2528E+02  0.2528E+02
     20.425  0.5386E+00  0.5389E+00  0.2533E+02  0.2533E+02
     20.510  0.3710E+00  0.3699E+00  0.2536E+02  0.2536E+02
     20.594  0.1164E+00  0.1159E+00  0.2537E+02  0.2537E+02
     20.679  0.7672E-01  0.7694E-01  0.2538E+02  0.2538E+02
     20.763  0.2374E+00  0.2385E+00  0.2540E+02  0.2540E+02
     20.848  0.5257E+00  0.5263E+00  0.2544E+02  0.2544E+02
     20.932  0.4603E+00  0.4596E+00  0.2548E+02  0.2548E+02
     21.017  0.5009E+00  0.5020E+00  0.2552E+02  0.2552E+02
     21.101  0.9953E+00  0.9965E+00  0.2561E+02  0.2561E+02
     21.186  0.8284E+00  0.8262E+00  0.2568E+02  0.2568E+02
     21.270  0.2646E+00  0.2633E+00  0.2570E+02  0.2570E+02
     21.355  0.5589E-01  0.5558E-01  0.2570E+02  0.2570E+02
     21.439  0.1161E-01  0.1156E-01  0.2570E+02  0.2570E+02
     21.524  0.6550E-02  0.6592E-02  0.2570E+02  0.2570E+02
     21.608  0.3400E-01  0.3422E-01  0.2571E+02  0.2571E+02
     21.693  0.1620E+00  0.1629E+00  0.2572E+02  0.2572E+02
     21.777  0.5271E+00  0.5287E+00  0.2577E+02  0.2577E+02
     21.861  0.9094E+00  0.9100E+00  0.2584E+02  0.2584E+02
     21.946  0.1276E+01  0.1277E+01  0.2595E+02  0.2595E+02
     22.030  0.1199E+01  0.1199E+01  0.2605E+02  0.2605E+02
     22.115  0.7698E+00  0.7683E+00  0.2612E+02  0.2612E+02
     22.199  0.2945E+00  0.2932E+00  0.2614E+02  0.2614E+02
     22.284  0.8345E-01  0.8320E-01  0.2615E+02  0.2615E+02
     22.368  0.9444E-01  0.9498E-01  0.2616E+02  0.2616E+02
     22.453  0.3495E+00  0.3514E+00  0.2619E+02  0.2619E+02
     22.537  0.8573E+00  0.8594E+00  0.2626E+02  0.2626E+02
     22.622  0.1462E+01  0.1465E+01  0.2638E+02  0.2638E+02
     22.706  0.2034E+01  0.2035E+01  0.2655E+02  0.2655E+02
     22.791  0.1807E+01  0.1805E+01  0.2671E+02  0.2671E+02
     22.875  0.1549E+01  0.1549E+01  0.2684E+02  0.2684E+02
     22.960  0.1754E+01  0.1754E+01  0.2699E+02  0.2699E+02
     23.044  0.1718E+01  0.1717E+01  0.2713E+02  0.2713E+02
     23.129  0.1096E+01  0.1094E+01  0.2722E+02  0.2722E+02
     23.213  0.4014E+00  0.4003E+00  0.2726E+02  0.2726E+02
     23.298  0.3549E+00  0.3561E+00  0.2729E+02  0.2729E+02
     23.382  0.8650E+00  0.8670E+00  0.2736E+02  0.2736E+02
     23.466  0.9518E+00  0.9502E+00  0.2744E+02  0.2744E+02
     23.551  0.3675E+00  0.3657E+00  0.2747E+02  0.2747E+02
     23.635  0.8311E-01  0.8264E-01  0.2748E+02  0.2748E+02
     23.720  0.2237E-01  0.2231E-01  0.2748E+02  0.2748E+02
     23.804  0.3530E-01  0.3548E-01  0.2749E+02  0.2749E+02
     23.889  0.1691E+00  0.1698E+00  0.2750E+02  0.2750E+02
     23.973  0.5379E+00  0.5392E+00  0.2754E+02  0.2755E+02
     24.058  0.6621E+00  0.6615E+00  0.2760E+02  0.2760E+02
     24.142  0.3014E+00  0.3013E+00  0.2763E+02  0.2763E+02
     24.227  0.2033E+00  0.2066E+00  0.2764E+02  0.2764E+02
     24.311  0.4430E+00  0.4460E+00  0.2768E+02  0.2768E+02
     24.396  0.5167E+00  0.4953E+00  0.2772E+02  0.2772E+02
     24.480  0.3774E+00  0.2947E+00  0.2776E+02  0.2775E+02
     24.565  0.7270E+00  0.5176E+00  0.2782E+02  0.2779E+02
     24.649  0.1046E+01  0.1033E+01  0.2791E+02  0.2788E+02
     24.734  0.5127E+00  0.7242E+00  0.2795E+02  0.2794E+02
     24.818  0.1254E+00  0.2097E+00  0.2796E+02  0.2796E+02
     24.903  0.2456E-01  0.4283E-01  0.2796E+02  0.2796E+02
     24.987  0.4585E-02  0.8064E-02  0.2796E+02  0.2796E+02
     25.071  0.0000E+00  0.0000E+00  0.2796E+02  0.2796E+02
     25.156  0.0000E+00  0.0000E+00  0.2796E+02  0.2796E+02
     25.240  0.0000E+00  0.0000E+00  0.2796E+02  0.2796E+02
     25.325  0.0000E+00  0.0000E+00  0.2796E+02  0.2796E+02
     25.409  0.0000E+00  0.0000E+00  0.2796E+02  0.2796E+02
     25.494  0.0000E+00  0.0000E+00  0.2796E+02  0.2796E+02
     25.578  0.0000E+00  0.0000E+00  0.2796E+02  0.2796E+02
     25.663  0.5216E-04  0.5087E-04  0.2796E+02  0.2796E+02
     25.747  0.2302E-03  0.2245E-03  0.2796E+02  0.2796E+02
     25.832  0.1243E-02  0.1212E-02  0.2796E+02  0.2796E+02
     25.916  0.6612E-02  0.6451E-02  0.2796E+02  0.2796E+02
     26.001  0.3260E-01  0.3188E-01  0.2797E+02  0.2797E+02
     26.085  0.1157E+00  0.1141E+00  0.2798E+02  0.2798E+02
     26.170  0.1725E+00  0.1730E+00  0.2799E+02  0.2799E+02
     26.254  0.8409E-01  0.8557E-01  0.2800E+02  0.2800E+02
     26.339  0.2046E-01  0.2094E-01  0.2800E+02  0.2800E+02
     26.423  0.4001E-02  0.4102E-02  0.2800E+02  0.2800E+02
     26.508  0.7467E-03  0.7657E-03  0.2800E+02  0.2800E+02
     26.592  0.0000E+00  0.0000E+00  0.2800E+02  0.2800E+02
     26.676  0.0000E+00  0.0000E+00  0.2800E+02  0.2800E+02
     26.761  0.0000E+00  0.0000E+00  0.2800E+02  0.2800E+02
     26.845  0.0000E+00  0.0000E+00  0.2800E+02  0.2800E+02
     26.930  0.0000E+00  0.0000E+00  0.2800E+02  0.2800E+02
     27.014  0.0000E+00  0.0000E+00  0.2800E+02  0.2800E+02
     27.099  0.0000E+00  0.0000E+00  0.2800E+02  0.2800E+02
     27.183  0.0000E+00  0.0000E+00  0.2800E+02  0.2800E+02
     27.268  0.0000E+00  0.0000E+00  0.2800E+02  0.2800E+02
     27.26777272      1.92573068  301     12.66050990      1.00000000
      1.926  0.0000E+00  0.0000E+00  0.0000E+00  0.0000E+00  0.0000E+00  0.0000E+00  0.0000E+00  0.0000E+00  0.0000E+00  0.0000E+00  0.0000E+00  0.0000E+00  0.0000E+00  0.0000E+00  0.0000E+00  0.0000E+00  0.0000E+00  0.0000E+00
      2.010  0.0000E+00  0.0000E+00  0.0000E+00  0.0000E+00  0.0000E+00  0.0000E+00  0.0000E+00  0.0000E+00  0.0000E+00  0.0000E+00  0.0000E+00  0.0000E+00  0.0000E+00  0.0000E+00  0.0000E+00  0.0000E+00  0.0000E+00  0.0000E+00
      2.095  0.0000E+00  0.0000E+00  0.0000E+00  0.0000E+00  0.0000E+00  0.0000E+00  0.0000E+00  0.0000E+00  0.0000E+00  0.0000E+00  0.0000E+00  0.0000E+00  0.0000E+00  0.0000E+00  0.0000E+00  0.0000E+00  0.0000E+00  0.0000E+00
      2.179  0.0000E+00  0.0000E+00  0.0000E+00  0.0000E+00  0.0000E+00  0.0000E+00  0.0000E+00  0.0000E+00  0.0000E+00  0.0000E+00  0.0000E+00  0.0000E+00  0.0000E+00  0.0000E+00  0.0000E+00  0.0000E+00  0.0000E+00  0.0000E+00
      2.264  0.0000E+00  0.0000E+00  0.0000E+00  0.0000E+00  0.0000E+00  0.0000E+00  0.0000E+00  0.0000E+00  0.0000E+00  0.0000E+00  0.0000E+00  0.0000E+00  0.0000E+00  0.0000E+00  0.0000E+00  0.0000E+00  0.0000E+00  0.0000E+00
      2.348  0.0000E+00  0.0000E+00  0.0000E+00  0.0000E+00  0.0000E+00  0.0000E+00  0.0000E+00  0.0000E+00  0.0000E+00  0.0000E+00  0.0000E+00  0.0000E+00  0.0000E+00  0.0000E+00  0.0000E+00  0.0000E+00  0.0000E+00  0.0000E+00
      2.433  0.0000E+00  0.0000E+00  0.0000E+00  0.0000E+00  0.0000E+00  0.0000E+00  0.0000E+00  0.0000E+00  0.0000E+00  0.0000E+00  0.0000E+00  0.0000E+00  0.0000E+00  0.0000E+00  0.0000E+00  0.0000E+00  0.0000E+00  0.0000E+00
      2.517  0.0000E+00  0.0000E+00  0.0000E+00  0.0000E+00  0.0000E+00  0.0000E+00  0.0000E+00  0.0000E+00  0.0000E+00  0.0000E+00  0.0000E+00  0.0000E+00  0.0000E+00  0.0000E+00  0.0000E+00  0.0000E+00  0.0000E+00  0.0000E+00
      2.602  0.5849E-05  0.5865E-05  0.4670E-07  0.4684E-07  0.4670E-07  0.4684E-07  0.4670E-07  0.4684E-07  0.5069E-08  0.5084E-08  0.5069E-08  0.5084E-08  0.1427E-20  0.6939E-22  0.5069E-08  0.5084E-08  0.1427E-20  0.6939E-22
      2.686  0.2582E-04  0.2589E-04  0.2062E-06  0.2068E-06  0.2062E-06  0.2068E-06  0.2062E-06  0.2068E-06  0.2238E-07  0.2245E-07  0.2238E-07  0.2245E-07  0.6301E-20  0.3064E-21  0.2238E-07  0.2245E-07  0.6301E-20  0.3064E-21
      2.770  0.1396E-03  0.1400E-03  0.1115E-05  0.1118E-05  0.1115E-05  0.1118E-05  0.1115E-05  0.1118E-05  0.1210E-06  0.1213E-06  0.1210E-06  0.1213E-06  0.3406E-19  0.1656E-20  0.1210E-06  0.1213E-06  0.3406E-19  0.1656E-20
      2.855  0.7477E-03  0.7497E-03  0.5970E-05  0.5987E-05  0.5970E-05  0.5987E-05  0.5970E-05  0.5987E-05  0.6480E-06  0.6499E-06  0.6480E-06  0.6499E-06  0.1824E-18  0.8870E-20  0.6480E-06  0.6499E-06  0.1824E-18  0.8870E-20
      2.939  0.3819E-02  0.3828E-02  0.3049E-04  0.3057E-04  0.3049E-04  0.3057E-04  0.3049E-04  0.3057E-04  0.3309E-05  0.3319E-05  0.3309E-05  0.3319E-05  0.9318E-18  0.4530E-19  0.3309E-05  0.3319E-05  0.9318E-18  0.4530E-19
      3.024  0.1561E-01  0.1564E-01  0.1247E-03  0.1249E-03  0.1247E-03  0.1249E-03  0.1247E-03  0.1249E-03  0.1353E-04  0.1356E-04  0.1353E-04  0.1356E-04  0.3809E-17  0.1851E-18  0.1353E-04  0.1356E-04  0.3809E-17  0.1851E-18
      3.108  0.3161E-01  0.3161E-01  0.2524E-03  0.2525E-03  0.2524E-03  0.2525E-03  0.2524E-03  0.2525E-03  0.2740E-04  0.2741E-04  0.2740E-04  0.2741E-04  0.7714E-17  0.3741E-18  0.2740E-04  0.2741E-04  0.7714E-17  0.3741E-18
      3.193  0.2089E-01  0.2086E-01  0.1668E-03  0.1666E-03  0.1668E-03  0.1666E-03  0.1668E-03  0.1666E-03  0.1811E-04  0.1808E-04  0.1811E-04  0.1808E-04  0.5098E-17  0.2468E-18  0.1811E-04  0.1808E-04  0.5098E-17  0.2468E-18
      3.277  0.5862E-02  0.5846E-02  0.4723E-04  0.4711E-04  0.4723E-04  0.4711E-04  0.4723E-04  0.4711E-04  0.5200E-05  0.5188E-05  0.5200E-05  0.5188E-05  0.1201E-06  0.1205E-06  0.5200E-05  0.5188E-05  0.1201E-06  0.1205E-06
      3.362  0.1270E-02  0.1267E-02  0.1201E-04  0.1199E-04  0.1201E-04  0.1199E-04  0.1201E-04  0.1199E-04  0.1628E-05  0.1627E-05  0.1628E-05  0.1627E-05  0.5301E-06  0.5317E-06  0.1628E-05  0.1627E-05  0.5301E-06  0.5317E-06
      3.446  0.6948E-03  0.6954E-03  0.1563E-04  0.1566E-04  0.1563E-04  0.1566E-04  0.1563E-04  0.1566E-04  0.3453E-05  0.3463E-05  0.3453E-05  0.3463E-05  0.2864E-05  0.2873E-05  0.3453E-05  0.3463E-05  0.2864E-05  0.2873E-05
      3.531  0.2525E-02  0.2532E-02  0.7402E-04  0.7424E-04  0.7402E-04  0.7424E-04  0.7402E-04  0.7424E-04  0.1742E-04  0.1747E-04  0.1742E-04  0.1747E-04  0.1530E-04  0.1535E-04  0.1742E-04  0.1747E-04  0.1530E-04  0.1535E-04
      3.615  0.1273E-01  0.1276E-01  0.3733E-03  0.3743E-03  0.3733E-03  0.3743E-03  0.3733E-03  0.3743E-03  0.8783E-04  0.8809E-04  0.8783E-04  0.8809E-04  0.7716E-04  0.7738E-04  0.8783E-04  0.8809E-04  0.7716E-04  0.7738E-04
      3.700  0.4935E-01  0.4943E-01  0.1447E-02  0.1449E-02  0.1447E-02  0.1449E-02  0.1447E-02  0.1449E-02  0.3404E-03  0.3412E-03  0.3404E-03  0.3412E-03  0.2991E-03  0.2997E-03  0.3404E-03  0.3412E-03  0.2991E-03  0.2997E-03
      3.784  0.8829E-01  0.8828E-01  0.2589E-02  0.2589E-02  0.2589E-02  0.2589E-02  0.2589E-02  0.2589E-02  0.6091E-03  0.6093E-03  0.6091E-03  0.6093E-03  0.5351E-03  0.5352E-03  0.6091E-03  0.6093E-03  0.5351E-03  0.5352E-03
      3.869  0.5124E-01  0.5113E-01  0.1503E-02  0.1500E-02  0.1503E-02  0.1500E-02  0.1503E-02  0.1500E-02  0.3564E-03  0.3558E-03  0.3564E-03  0.3558E-03  0.3294E-03  0.3290E-03  0.3564E-03  0.3558E-03  0.3294E-03  0.3290E-03
      3.953  0.1367E-01  0.1363E-01  0.4047E-03  0.4036E-03  0.4047E-03  0.4036E-03  0.4047E-03  0.4036E-03  0.1105E-03  0.1104E-03  0.1105E-03  0.1104E-03  0.1660E-03  0.1665E-03  0.1105E-03  0.1104E-03  0.1660E-03  0.1665E-03
      4.038  0.4015E-02  0.4012E-02  0.1383E-03  0.1382E-03  0.1383E-03  0.1382E-03  0.1383E-03  0.1382E-03  0.1202E-03  0.1207E-03  0.1202E-03  0.1207E-03  0.4729E-03  0.4764E-03  0.1202E-03  0.1207E-03  0.4729E-03  0.4764E-03
      4.122  0.7474E-02  0.7496E-02  0.3259E-03  0.3269E-03  0.3259E-03  0.3269E-03  0.3259E-03  0.3269E-03  0.5478E-03  0.5506E-03  0.5478E-03  0.5506E-03  0.2423E-02  0.2442E-02  0.5478E-03  0.5506E-03  0.2423E-02  0.2442E-02
      4.207  0.3108E-01  0.3117E-01  0.1383E-02  0.1387E-02  0.1383E-02  0.1387E-02  0.1383E-02  0.1387E-02  0.2555E-02  0.2567E-02  0.2555E-02  0.2567E-02  0.1173E-01  0.1181E-01  0.2555E-02  0.2567E-02  0.1173E-01  0.1181E-01
      4.291  0.8020E-01  0.8029E-01  0.3522E-02  0.3525E-02  0.3522E-02  0.3525E-02  0.3522E-02  0.3525E-02  0.8505E-02  0.8539E-02  0.8505E-02  0.8539E-02  0.3874E-01  0.3889E-01  0.8505E-02  0.8539E-02  0.3874E-01  0.3889E-01
      4.375  0.8127E-01  0.8123E-01  0.3359E-02  0.3355E-02  0.3359E-02  0.3355E-02  0.3359E-02  0.3355E-02  0.1987E-01  0.1995E-01  0.1987E-01  0.1995E-01  0.5128E-01  0.5121E-01  0.1987E-01  0.1995E-01  0.5128E-01  0.5121E-01
      4.460  0.5804E-01  0.5804E-01  0.2133E-02  0.2133E-02  0.2133E-02  0.2133E-02  0.2133E-02  0.2133E-02  0.4459E-01  0.4476E-01  0.4459E-01  0.4476E-01  0.2733E-01  0.2725E-01  0.4459E-01  0.4476E-01  0.2733E-01  0.2725E-01
      4.544  0.5378E-01  0.5377E-01  0.2231E-02  0.2234E-02  0.2231E-02  0.2234E-02  0.2231E-02  0.2234E-02  0.8213E-01  0.8230E-01  0.8213E-01  0.8230E-01  0.3089E-01  0.3103E-01  0.8213E-01  0.8230E-01  0.3089E-01  0.3103E-01
      4.629  0.6169E-01  0.6178E-01  0.3600E-02  0.3609E-02  0.3600E-02  0.3609E-02  0.3600E-02  0.3609E-02  0.9408E-01  0.9407E-01  0.9408E-01  0.9407E-01  0.8843E-01  0.8880E-01  0.9408E-01  0.9407E-01  0.8843E-01  0.8880E-01
      4.713  0.1134E+00  0.1136E+00  0.7253E-02  0.7264E-02  0.7253E-02  0.7264E-02  0.7253E-02  0.7264E-02  0.1034E+00  0.1035E+00  0.1034E+00  0.1035E+00  0.1433E+00  0.1433E+00  0.1034E+00  0.1035E+00  0.1433E+00  0.1433E+00
      4.798  0.1442E+00  0.1441E+00  0.9539E-02  0.9538E-02  0.9539E-02  0.9538E-02  0.9539E-02  0.9538E-02  0.1286E+00  0.1288E+00  0.1286E+00  0.1288E+00  0.1078E+00  0.1075E+00  0.1286E+00  0.1288E+00  0.1078E+00  0.1075E+00
      4.882  0.1178E+00  0.1178E+00  0.9049E-02  0.9058E-02  0.9049E-02  0.9058E-02  0.9049E-02  0.9058E-02  0.1844E+00  0.1848E+00  0.1844E+00  0.1848E+00  0.9178E-01  0.9186E-01  0.1844E+00  0.1848E+00  0.9178E-01  0.9186E-01
      4.967  0.1340E+00  0.1341E+00  0.1302E-01  0.1304E-01  0.1302E-01  0.1304E-01  0.1302E-01  0.1304E-01  0.2515E+00  0.2518E+00  0.2515E+00  0.2518E+00  0.1237E+00  0.1239E+00  0.2515E+00  0.2518E+00  0.1237E+00  0.1239E+00
      5.051  0.1725E+00  0.1724E+00  0.1804E-01  0.1804E-01  0.1804E-01  0.1804E-01  0.1804E-01  0.1804E-01  0.2389E+00  0.2385E+00  0.2389E+00  0.2385E+00  0.1367E+00  0.1365E+00  0.2389E+00  0.2385E+00  0.1367E+00  0.1365E+00
      5.136  0.1314E+00  0.1311E+00  0.1439E-01  0.1437E-01  0.1439E-01  0.1437E-01  0.1439E-01  0.1437E-01  0.1438E+00  0.1435E+00  0.1438E+00  0.1435E+00  0.1046E+00  0.1046E+00  0.1438E+00  0.1435E+00  0.1046E+00  0.1046E+00
      5.220  0.7898E-01  0.7895E-01  0.1317E-01  0.1320E-01  0.1317E-01  0.1320E-01  0.1317E-01  0.1320E-01  0.1598E+00  0.1603E+00  0.1598E+00  0.1603E+00  0.1526E+00  0.1531E+00  0.1598E+00  0.1603E+00  0.1526E+00  0.1531E+00
      5.305  0.7816E-01  0.7814E-01  0.1631E-01  0.1631E-01  0.1631E-01  0.1631E-01  0.1631E-01  0.1631E-01  0.2277E+00  0.2278E+00  0.2277E+00  0.2278E+00  0.2233E+00  0.2233E+00  0.2277E+00  0.2278E+00  0.2233E+00  0.2233E+00
      5.389  0.6640E-01  0.6627E-01  0.1229E-01  0.1227E-01  0.1229E-01  0.1227E-01  0.1229E-01  0.1227E-01  0.1847E+00  0.1843E+00  0.1847E+00  0.1843E+00  0.1628E+00  0.1623E+00  0.1847E+00  0.1843E+00  0.1628E+00  0.1623E+00
      5.474  0.4167E-01  0.4158E-01  0.9159E-02  0.9162E-02  0.9159E-02  0.9162E-02  0.9159E-02  0.9162E-02  0.1217E+00  0.1216E+00  0.1217E+00  0.1216E+00  0.9683E-01  0.9671E-01  0.1217E+00  0.1216E+00  0.9683E-01  0.9671E-01
      5.558  0.3901E-01  0.3904E-01  0.1204E-01  0.1206E-01  0.1204E-01  0.1206E-01  0.1204E-01  0.1206E-01  0.1395E+00  0.1396E+00  0.1395E+00  0.1396E+00  0.1034E+00  0.1034E+00  0.1395E+00  0.1396E+00  0.1034E+00  0.1034E+00
      5.643  0.3775E-01  0.3766E-01  0.1267E-01  0.1266E-01  0.1267E-01  0.1266E-01  0.1267E-01  0.1266E-01  0.1417E+00  0.1416E+00  0.1417E+00  0.1416E+00  0.9208E-01  0.9192E-01  0.1417E+00  0.1416E+00  0.9208E-01  0.9192E-01
      5.727  0.2183E-01  0.2178E-01  0.1274E-01  0.1276E-01  0.1274E-01  0.1276E-01  0.1274E-01  0.1276E-01  0.1346E+00  0.1348E+00  0.1346E+00  0.1348E+00  0.8213E-01  0.8230E-01  0.1346E+00  0.1348E+00  0.8213E-01  0.8230E-01
      5.812  0.2145E-01  0.2146E-01  0.1870E-01  0.1872E-01  0.1870E-01  0.1872E-01  0.1870E-01  0.1872E-01  0.1861E+00  0.1862E+00  0.1861E+00  0.1862E+00  0.1403E+00  0.1406E+00  0.1861E+00  0.1862E+00  0.1403E+00  0.1406E+00
      5.896  0.1876E-01  0.1870E-01  0.1670E-01  0.1667E-01  0.1670E-01  0.1667E-01  0.1670E-01  0.1667E-01  0.1631E+00  0.1627E+00  0.1631E+00  0.1627E+00  0.1449E+00  0.1447E+00  0.1631E+00  0.1627E+00  0.1449E+00  0.1447E+00
      5.980  0.1064E-01  0.1062E-01  0.1409E-01  0.1409E-01  0.1409E-01  0.1409E-01  0.1409E-01  0.1409E-01  0.1009E+00  0.1007E+00  0.1009E+00  0.1007E+00  0.1421E+00  0.1423E+00  0.1009E+00  0.1007E+00  0.1421E+00  0.1423E+00
      6.065  0.1018E-01  0.1020E-01  0.1307E-01  0.1305E-01  0.1307E-01  0.1305E-01  0.1307E-01  0.1305E-01  0.8143E-01  0.8138E-01  0.8143E-01  0.8138E-01  0.1484E+00  0.1481E+00  0.8143E-01  0.8138E-01  0.1484E+00  0.1481E+00
      6.149  0.1690E-01  0.1694E-01  0.9785E-02  0.9781E-02  0.9785E-02  0.9781E-02  0.9785E-02  0.9781E-02  0.9259E-01  0.9277E-01  0.9259E-01  0.9277E-01  0.9508E-01  0.9495E-01  0.9259E-01  0.9277E-01  0.9508E-01  0.9495E-01