 vasp.6.1.0 28Jan20 (build Jun 11 2020 16:13:15) complex                        
  
 executed on             LinuxIFC date 2022.01.24  16:46:03
 running on   64 total cores
 distrk:  each k-point on   64 cores,    1 groups
 distr:  one band on NCORE=   1 cores,   64 groups


--------------------------------------------------------------------------------------------------------


 INCAR:
 POTCAR:    PAW_PBE Ag 02Apr2005                  
 -----------------------------------------------------------------------------
|                                                                             |
|           W    W    AA    RRRRR   N    N  II  N    N   GGGG   !!!           |
|           W    W   A  A   R    R  NN   N  II  NN   N  G    G  !!!           |
|           W    W  A    A  R    R  N N  N  II  N N  N  G       !!!           |
|           W WW W  AAAAAA  RRRRR   N  N N  II  N  N N  G  GGG   !            |
|           WW  WW  A    A  R   R   N   NN  II  N   NN  G    G                |
|           W    W  A    A  R    R  N    N  II  N    N   GGGG   !!!           |
|                                                                             |
|     For optimal performance we recommend to set                             |
|       NCORE = 4 - approx SQRT(number of cores).                             |
|     NCORE specifies how many cores store one orbital (NPAR=cpu/NCORE).      |
|     This setting can greatly improve the performance of VASP for DFT.       |
|     The default, NCORE=1 might be grossly inefficient on modern             |
|     multi-core architectures or massively parallel machines. Do your        |
|     own testing!!!!                                                         |
|     Unfortunately you need to use the default for GW and RPA                |
|     calculations (for HF NCORE is supported but not extensively tested      |
|     yet).                                                                   |
|                                                                             |
 -----------------------------------------------------------------------------

 POTCAR:    PAW_PBE Ag 02Apr2005                  
   SHA256 =  6550cfa3543261e132c169e1b98a529204624d72be14e2da2e0242bcb74a174d Ag/POTCAR             
   COPYR  = (c) Copyright 02Apr2005 Georg Kresse                                                    
   COPYR  = This file is part of the software VASP. Any use, copying, and all other rights are regul
   COPYR  = If you do not have a valid VASP license, you may not use, copy or distribute this file. 
   VRHFIN =Ag : s1 d10                                                                              
   LEXCH  = PE                                                                                      
   EATOM  =  1037.2675 eV,   76.2370 Ry                                                             
                                                                                                    
   TITEL  = PAW_PBE Ag 02Apr2005                                                                    
   LULTRA =        F    use ultrasoft PP ?                                                          
   IUNSCR =        1    unscreen: 0-lin 1-nonlin 2-no                                               
   RPACOR =    2.000    partial core radius                                                         
   POMASS =  107.868; ZVAL   =   11.000    mass and valenz                                          
   RCORE  =    2.500    outmost cutoff radius                                                       
   RWIGS  =    2.840; RWIGS  =    1.503    wigner-seitz radius (au A)                               
   ENMAX  =  249.844; ENMIN  =  187.383 eV                                                          
   ICORE  =        3    local potential                                                             
   LCOR   =        T    correct aug charges                                                         
   LPAW   =        T    paw PP                                                                      
   EAUG   =  412.496                                                                                
   DEXC   =    0.000                                                                                
   RMAX   =    2.560    core radius for proj-oper                                                   
   RAUG   =    1.300    factor for augmentation sphere                                              
   RDEP   =    2.576    radius for radial grids                                                     
   RDEPT  =    2.072    core radius for aug-charge                                                  
                                                                                                    
   Atomic configuration                                                                             
   12 entries                                                                                       
     n  l   j            E        occ.                                                              
     1  0  0.50    -25324.9161   2.0000                                                             
     2  0  0.50     -3728.5341   2.0000                                                             
     2  1  1.50     -3344.0404   6.0000                                                             
     3  0  0.50      -683.5581   2.0000                                                             
     3  1  1.50      -557.3225   6.0000                                                             
     3  2  2.50      -358.3853  10.0000                                                             
     4  0  0.50       -95.0341   2.0000                                                             
     4  1  1.50       -58.5511   6.0000                                                             
     4  2  2.50        -7.4440  10.0000                                                             
     5  0  0.50        -4.4045   1.0000                                                             
     5  1  0.50        -1.3606   0.0000                                                             
     4  3  2.50        -1.3606   0.0000                                                             
   Description                                                                                      
     l       E           TYP  RCUT    TYP  RCUT                                                     
     2     -7.4439781     23  2.400                                                                 
     2     -8.8045607     23  2.400                                                                 
     0     -4.4044681     23  2.400                                                                 
     0      1.9520038     23  2.400                                                                 
     1     -1.3605826     23  2.500                                                                 
     1     27.2116520     23  2.500                                                                 
     3     -4.0817478     23  2.400                                                                 
  local pseudopotential read in
  partial core-charges read in
  partial kinetic energy density read in
  atomic valenz-charges read in
  non local Contribution for L=           2  read in
    real space projection operators read in
  non local Contribution for L=           2  read in
    real space projection operators read in
  non local Contribution for L=           0  read in
    real space projection operators read in
  non local Contribution for L=           0  read in
    real space projection operators read in
  non local Contribution for L=           1  read in
    real space projection operators read in
  non local Contribution for L=           1  read in
    real space projection operators read in
    PAW grid and wavefunctions read in
 
   number of l-projection  operators is LMAX  =           6
   number of lm-projection operators is LMMAX =          18
 
  PAW_PBE Ag 02Apr2005                  :
 energy of atom  1       EATOM=-1037.2675
 kinetic energy error for atom=    0.0047 (will be added to EATOM!!)
 
 
 POSCAR: Ag4
  positions in direct lattice
  velocities in cartesian coordinates
 exchange correlation table for  LEXCH =        8
   RHO(1)=    0.500       N(1)  =     2000
   RHO(2)=  100.500       N(2)  =     4000
 


--------------------------------------------------------------------------------------------------------


 ion  position               nearest neighbor table
   1  0.000  0.000  0.000-   2 2.94   3 2.94   4 2.94   2 2.94   3 2.94   2 2.94   4 2.94   2 2.94
                             3 2.94   4 2.94   3 2.94   4 2.94
   2  0.000  0.500  0.500-   1 2.94   3 2.94   4 2.94   1 2.94   4 2.94   1 2.94   3 2.94   1 2.94
                             3 2.94   4 2.94   4 2.94   3 2.94
   3  0.500  0.000  0.500-   1 2.94   2 2.94   4 2.94   1 2.94   4 2.94   2 2.94   4 2.94   4 2.94
                             1 2.94   2 2.94   1 2.94   2 2.94
   4  0.500  0.500  0.000-   1 2.94   2 2.94   3 2.94   2 2.94   3 2.94   1 2.94   3 2.94   3 2.94
                             1 2.94   2 2.94   2 2.94   1 2.94
 
  LATTYP: Found a simple cubic cell.
 ALAT       =     4.1519046999
  
  Lattice vectors:
  
 A1 = (   4.1519046999,   0.0000000000,   0.0000000000)
 A2 = (   0.0000000000,   4.1519046999,   0.0000000000)
 A3 = (   0.0000000000,   0.0000000000,   4.1519046999)


Analysis of symmetry for initial positions (statically):
=====================================================================
 Subroutine PRICEL returns following result:
 
  LATTYP: Found a face centered cubic cell.
 ALAT       =     4.1519046999
  
  Lattice vectors:
  
 A1 = (   2.0759523499,   2.0759523499,  -0.0000000000)
 A2 = (   2.0759523499,   0.0000000000,  -2.0759523499)
 A3 = (   0.0000000000,   2.0759523499,  -2.0759523499)
 
   4 primitive cells build up your supercell.
 

 Routine SETGRP: Setting up the symmetry group for a 
 simple cubic supercell.


 Subroutine GETGRP returns: Found 48 space group operations
 (whereof 48 operations were pure point group operations)
 out of a pool of 48 trial point group operations.


The static configuration has the point symmetry O_h .


Analysis of symmetry for dynamics (positions and initial velocities):
=====================================================================
 Subroutine PRICEL returns following result:
 
  LATTYP: Found a face centered cubic cell.
 ALAT       =     4.1519046999
  
  Lattice vectors:
  
 A1 = (   2.0759523499,   2.0759523499,  -0.0000000000)
 A2 = (   2.0759523499,   0.0000000000,  -2.0759523499)
 A3 = (   0.0000000000,   2.0759523499,  -2.0759523499)
 
   4 primitive cells build up your supercell.
 

 Routine SETGRP: Setting up the symmetry group for a 
 simple cubic supercell.


 Subroutine GETGRP returns: Found 48 space group operations
 (whereof 48 operations were pure point group operations)
 out of a pool of 48 trial point group operations.


The dynamic configuration has the point symmetry O_h .


 Subroutine INISYM returns: Found 48 space group operations
 (whereof 48 operations are pure point group operations),
 and found     4 'primitive' translations


----------------------------------------------------------------------------------------

                                     Primitive cell                                     

  volume of cell :      17.8930

  direct lattice vectors                    reciprocal lattice vectors
     2.075952350  2.075952350 -0.000000000     0.240853312  0.240853312  0.240853312
     2.075952350  0.000000000 -2.075952350     0.240853312 -0.240853312 -0.240853312
     0.000000000  2.075952350 -2.075952350    -0.240853312  0.240853312 -0.240853312

  length of vectors
     2.935839968  2.935839968  2.935839968     0.417170174  0.417170174  0.417170174

  position of ions in fractional coordinates (direct lattice)
     0.000000000  0.000000000  0.000000000

  ion indices of the primitive-cell ions
   primitive index   ion index
                 1           1

----------------------------------------------------------------------------------------

 
 
 KPOINTS: pymatgen with grid density = 882 / numbe

Automatic generation of k-mesh.
Space group operators:
 irot       det(A)        alpha          n_x          n_y          n_z        tau_x        tau_y        tau_z
    1     1.000000     0.000000     1.000000     0.000000     0.000000     0.000000     0.000000     0.000000
    2    -1.000000     0.000000     1.000000     0.000000     0.000000     0.000000     0.000000     0.000000
    3     1.000000   120.000000    -0.577350    -0.577350    -0.577350     0.000000     0.000000     0.000000
    4    -1.000000   120.000000    -0.577350    -0.577350    -0.577350     0.000000     0.000000     0.000000
    5     1.000000   120.000000     0.577350     0.577350     0.577350     0.000000     0.000000     0.000000
    6    -1.000000   120.000000     0.577350     0.577350     0.577350     0.000000     0.000000     0.000000
    7     1.000000    90.000000     0.000000     0.000000    -1.000000     0.000000     0.000000     0.000000
    8    -1.000000    90.000000     0.000000     0.000000    -1.000000     0.000000     0.000000     0.000000
    9     1.000000   180.000000     0.000000     0.707107     0.707107     0.000000     0.000000     0.000000
   10    -1.000000   180.000000     0.000000     0.707107     0.707107     0.000000     0.000000     0.000000
   11     1.000000    90.000000     0.000000     1.000000     0.000000     0.000000     0.000000     0.000000
   12    -1.000000    90.000000     0.000000     1.000000     0.000000     0.000000     0.000000     0.000000
   13     1.000000   180.000000     0.000000     0.000000     1.000000     0.000000     0.000000     0.000000
   14    -1.000000   180.000000     0.000000     0.000000     1.000000     0.000000     0.000000     0.000000
   15     1.000000   120.000000    -0.577350     0.577350     0.577350     0.000000     0.000000     0.000000
   16    -1.000000   120.000000    -0.577350     0.577350     0.577350     0.000000     0.000000     0.000000
   17     1.000000   120.000000    -0.577350     0.577350    -0.577350     0.000000     0.000000     0.000000
   18    -1.000000   120.000000    -0.577350     0.577350    -0.577350     0.000000     0.000000     0.000000
   19     1.000000    90.000000     0.000000     0.000000     1.000000     0.000000     0.000000     0.000000
   20    -1.000000    90.000000     0.000000     0.000000     1.000000     0.000000     0.000000     0.000000
   21     1.000000    90.000000    -1.000000     0.000000     0.000000     0.000000     0.000000     0.000000
   22    -1.000000    90.000000    -1.000000     0.000000     0.000000     0.000000     0.000000     0.000000
   23     1.000000   180.000000     0.707107     0.000000     0.707107     0.000000     0.000000     0.000000
   24    -1.000000   180.000000     0.707107     0.000000     0.707107     0.000000     0.000000     0.000000
   25     1.000000   120.000000     0.577350    -0.577350     0.577350     0.000000     0.000000     0.000000
   26    -1.000000   120.000000     0.577350    -0.577350     0.577350     0.000000     0.000000     0.000000
   27     1.000000   120.000000    -0.577350    -0.577350     0.577350     0.000000     0.000000     0.000000
   28    -1.000000   120.000000    -0.577350    -0.577350     0.577350     0.000000     0.000000     0.000000
   29     1.000000   180.000000     1.000000     0.000000     0.000000     0.000000     0.000000     0.000000
   30    -1.000000   180.000000     1.000000     0.000000     0.000000     0.000000     0.000000     0.000000
   31     1.000000    90.000000     0.000000    -1.000000     0.000000     0.000000     0.000000     0.000000
   32    -1.000000    90.000000     0.000000    -1.000000     0.000000     0.000000     0.000000     0.000000
   33     1.000000   180.000000     0.707107     0.707107     0.000000     0.000000     0.000000     0.000000
   34    -1.000000   180.000000     0.707107     0.707107     0.000000     0.000000     0.000000     0.000000
   35     1.000000    90.000000     1.000000     0.000000     0.000000     0.000000     0.000000     0.000000
   36    -1.000000    90.000000     1.000000     0.000000     0.000000     0.000000     0.000000     0.000000
   37     1.000000   120.000000     0.577350    -0.577350    -0.577350     0.000000     0.000000     0.000000
   38    -1.000000   120.000000     0.577350    -0.577350    -0.577350     0.000000     0.000000     0.000000
   39     1.000000   180.000000     0.000000     1.000000     0.000000     0.000000     0.000000     0.000000
   40    -1.000000   180.000000     0.000000     1.000000     0.000000     0.000000     0.000000     0.000000
   41     1.000000   120.000000     0.577350     0.577350    -0.577350     0.000000     0.000000     0.000000
   42    -1.000000   120.000000     0.577350     0.577350    -0.577350     0.000000     0.000000     0.000000
   43     1.000000   180.000000     0.000000    -0.707107     0.707107     0.000000     0.000000     0.000000
   44    -1.000000   180.000000     0.000000    -0.707107     0.707107     0.000000     0.000000     0.000000
   45     1.000000   180.000000     0.707107    -0.707107     0.000000     0.000000     0.000000     0.000000
   46    -1.000000   180.000000     0.707107    -0.707107     0.000000     0.000000     0.000000     0.000000
   47     1.000000   180.000000     0.707107     0.000000    -0.707107     0.000000     0.000000     0.000000
   48    -1.000000   180.000000     0.707107     0.000000    -0.707107     0.000000     0.000000     0.000000
 
 Subroutine IBZKPT returns following result:
 ===========================================
 
 Found     10 irreducible k-points:
 
 Following reciprocal coordinates:
            Coordinates               Weight
  0.083333  0.083333  0.083333      8.000000
  0.250000  0.083333  0.083333     24.000000
  0.416667  0.083333  0.083333     24.000000
  0.250000  0.250000  0.083333     24.000000
  0.416667  0.250000  0.083333     48.000000
  0.416667  0.416667  0.083333     24.000000
  0.250000  0.250000  0.250000      8.000000
  0.416667  0.250000  0.250000     24.000000
  0.416667  0.416667  0.250000     24.000000
  0.416667  0.416667  0.416667      8.000000
 
 Following cartesian coordinates:
            Coordinates               Weight
  0.020071  0.020071  0.020071      8.000000
  0.060213  0.020071  0.020071     24.000000
  0.100356  0.020071  0.020071     24.000000
  0.060213  0.060213  0.020071     24.000000
  0.100356  0.060213  0.020071     48.000000
  0.100356  0.100356  0.020071     24.000000
  0.060213  0.060213  0.060213      8.000000
  0.100356  0.060213  0.060213     24.000000
  0.100356  0.100356  0.060213     24.000000
  0.100356  0.100356  0.100356      8.000000
 
 
 Subroutine IBZKPT_HF returns following result:
 ==============================================
 
 Found    216 k-points in 1st BZ
 the following    216 k-points will be used (e.g. in the exchange kernel)
 Following reciprocal coordinates:   # in IRBZ
  0.083333  0.083333  0.083333    0.00462963   1 t-inv F
  0.250000  0.083333  0.083333    0.00462963   2 t-inv F
  0.416667  0.083333  0.083333    0.00462963   3 t-inv F
  0.250000  0.250000  0.083333    0.00462963   4 t-inv F
  0.416667  0.250000  0.083333    0.00462963   5 t-inv F
  0.416667  0.416667  0.083333    0.00462963   6 t-inv F
  0.250000  0.250000  0.250000    0.00462963   7 t-inv F
  0.416667  0.250000  0.250000    0.00462963   8 t-inv F
  0.416667  0.416667  0.250000    0.00462963   9 t-inv F
  0.416667  0.416667  0.416667    0.00462963  10 t-inv F
 -0.083333 -0.083333 -0.083333    0.00462963   1 t-inv F
 -0.083333  0.083333  0.083333    0.00462963   1 t-inv F
  0.083333 -0.083333 -0.083333    0.00462963   1 t-inv F
 -0.083333 -0.083333  0.083333    0.00462963   1 t-inv F
  0.083333  0.083333 -0.083333    0.00462963   1 t-inv F
  0.083333 -0.083333  0.083333    0.00462963   1 t-inv F
 -0.083333  0.083333 -0.083333    0.00462963   1 t-inv F
 -0.250000 -0.083333 -0.083333    0.00462963   2 t-inv F
  0.083333  0.250000  0.083333    0.00462963   2 t-inv F
 -0.083333 -0.250000 -0.083333    0.00462963   2 t-inv F
  0.083333  0.083333  0.250000    0.00462963   2 t-inv F
 -0.083333 -0.083333 -0.250000    0.00462963   2 t-inv F
 -0.083333  0.250000  0.083333    0.00462963   2 t-inv F
  0.083333 -0.250000 -0.083333    0.00462963   2 t-inv F
 -0.250000  0.083333  0.083333    0.00462963   2 t-inv F
  0.250000 -0.083333 -0.083333    0.00462963   2 t-inv F
 -0.083333  0.083333  0.250000    0.00462963   2 t-inv F
  0.083333 -0.083333 -0.250000    0.00462963   2 t-inv F
 -0.250000 -0.083333  0.083333    0.00462963   2 t-inv F
  0.250000  0.083333 -0.083333    0.00462963   2 t-inv F
 -0.083333 -0.250000  0.083333    0.00462963   2 t-inv F
  0.083333  0.250000 -0.083333    0.00462963   2 t-inv F
 -0.083333 -0.083333  0.250000    0.00462963   2 t-inv F
  0.083333  0.083333 -0.250000    0.00462963   2 t-inv F
  0.083333 -0.250000  0.083333    0.00462963   2 t-inv F
 -0.083333  0.250000 -0.083333    0.00462963   2 t-inv F
  0.250000 -0.083333  0.083333    0.00462963   2 t-inv F
 -0.250000  0.083333 -0.083333    0.00462963   2 t-inv F
  0.083333 -0.083333  0.250000    0.00462963   2 t-inv F
 -0.083333  0.083333 -0.250000    0.00462963   2 t-inv F
 -0.416667 -0.083333 -0.083333    0.00462963   3 t-inv F
  0.083333  0.416667  0.083333    0.00462963   3 t-inv F
 -0.083333 -0.416667 -0.083333    0.00462963   3 t-inv F
  0.083333  0.083333  0.416667    0.00462963   3 t-inv F
 -0.083333 -0.083333 -0.416667    0.00462963   3 t-inv F
 -0.083333  0.416667  0.083333    0.00462963   3 t-inv F
  0.083333 -0.416667 -0.083333    0.00462963   3 t-inv F
 -0.416667  0.083333  0.083333    0.00462963   3 t-inv F
  0.416667 -0.083333 -0.083333    0.00462963   3 t-inv F
 -0.083333  0.083333  0.416667    0.00462963   3 t-inv F
  0.083333 -0.083333 -0.416667    0.00462963   3 t-inv F
 -0.416667 -0.083333  0.083333    0.00462963   3 t-inv F
  0.416667  0.083333 -0.083333    0.00462963   3 t-inv F
 -0.083333 -0.416667  0.083333    0.00462963   3 t-inv F
  0.083333  0.416667 -0.083333    0.00462963   3 t-inv F
 -0.083333 -0.083333  0.416667    0.00462963   3 t-inv F
  0.083333  0.083333 -0.416667    0.00462963   3 t-inv F
  0.083333 -0.416667  0.083333    0.00462963   3 t-inv F
 -0.083333  0.416667 -0.083333    0.00462963   3 t-inv F
  0.416667 -0.083333  0.083333    0.00462963   3 t-inv F
 -0.416667  0.083333 -0.083333    0.00462963   3 t-inv F
  0.083333 -0.083333  0.416667    0.00462963   3 t-inv F
 -0.083333  0.083333 -0.416667    0.00462963   3 t-inv F
 -0.250000 -0.250000 -0.083333    0.00462963   4 t-inv F
  0.083333  0.250000  0.250000    0.00462963   4 t-inv F
 -0.083333 -0.250000 -0.250000    0.00462963   4 t-inv F
  0.250000  0.083333  0.250000    0.00462963   4 t-inv F
 -0.250000 -0.083333 -0.250000    0.00462963   4 t-inv F
 -0.250000  0.250000  0.083333    0.00462963   4 t-inv F
  0.250000 -0.250000 -0.083333    0.00462963   4 t-inv F
 -0.250000  0.083333  0.250000    0.00462963   4 t-inv F
  0.250000 -0.083333 -0.250000    0.00462963   4 t-inv F
 -0.083333  0.250000  0.250000    0.00462963   4 t-inv F
  0.083333 -0.250000 -0.250000    0.00462963   4 t-inv F
 -0.250000 -0.250000  0.083333    0.00462963   4 t-inv F
  0.250000  0.250000 -0.083333    0.00462963   4 t-inv F
 -0.083333 -0.250000  0.250000    0.00462963   4 t-inv F
  0.083333  0.250000 -0.250000    0.00462963   4 t-inv F
 -0.250000 -0.083333  0.250000    0.00462963   4 t-inv F
  0.250000  0.083333 -0.250000    0.00462963   4 t-inv F
  0.250000 -0.250000  0.083333    0.00462963   4 t-inv F
 -0.250000  0.250000 -0.083333    0.00462963   4 t-inv F
  0.250000 -0.083333  0.250000    0.00462963   4 t-inv F
 -0.250000  0.083333 -0.250000    0.00462963   4 t-inv F
  0.083333 -0.250000  0.250000    0.00462963   4 t-inv F
 -0.083333  0.250000 -0.250000    0.00462963   4 t-inv F
 -0.416667 -0.250000 -0.083333    0.00462963   5 t-inv F
  0.083333  0.416667  0.250000    0.00462963   5 t-inv F
 -0.083333 -0.416667 -0.250000    0.00462963   5 t-inv F
  0.250000  0.083333  0.416667    0.00462963   5 t-inv F
 -0.250000 -0.083333 -0.416667    0.00462963   5 t-inv F
 -0.250000  0.416667  0.083333    0.00462963   5 t-inv F
  0.250000 -0.416667 -0.083333    0.00462963   5 t-inv F
 -0.416667  0.083333  0.250000    0.00462963   5 t-inv F
  0.416667 -0.083333 -0.250000    0.00462963   5 t-inv F
 -0.083333  0.250000  0.416667    0.00462963   5 t-inv F
  0.083333 -0.250000 -0.416667    0.00462963   5 t-inv F
 -0.416667 -0.250000  0.083333    0.00462963   5 t-inv F
  0.416667  0.250000 -0.083333    0.00462963   5 t-inv F
 -0.083333 -0.416667  0.250000    0.00462963   5 t-inv F
  0.083333  0.416667 -0.250000    0.00462963   5 t-inv F
 -0.250000 -0.083333  0.416667    0.00462963   5 t-inv F
  0.250000  0.083333 -0.416667    0.00462963   5 t-inv F
  0.250000 -0.416667  0.083333    0.00462963   5 t-inv F
 -0.250000  0.416667 -0.083333    0.00462963   5 t-inv F
  0.416667 -0.083333  0.250000    0.00462963   5 t-inv F
 -0.416667  0.083333 -0.250000    0.00462963   5 t-inv F
  0.083333 -0.250000  0.416667    0.00462963   5 t-inv F
 -0.083333  0.250000 -0.416667    0.00462963   5 t-inv F
  0.083333 -0.416667 -0.250000    0.00462963   5 t-inv F
 -0.083333  0.416667  0.250000    0.00462963   5 t-inv F
  0.250000 -0.083333 -0.416667    0.00462963   5 t-inv F
 -0.250000  0.083333  0.416667    0.00462963   5 t-inv F
  0.416667 -0.250000 -0.083333    0.00462963   5 t-inv F
 -0.416667  0.250000  0.083333    0.00462963   5 t-inv F
  0.083333  0.250000 -0.416667    0.00462963   5 t-inv F
 -0.083333 -0.250000  0.416667    0.00462963   5 t-inv F
  0.250000  0.416667 -0.083333    0.00462963   5 t-inv F
 -0.250000 -0.416667  0.083333    0.00462963   5 t-inv F
  0.416667  0.083333 -0.250000    0.00462963   5 t-inv F
 -0.416667 -0.083333  0.250000    0.00462963   5 t-inv F
 -0.250000  0.083333 -0.416667    0.00462963   5 t-inv F
  0.250000 -0.083333  0.416667    0.00462963   5 t-inv F
 -0.416667  0.250000 -0.083333    0.00462963   5 t-inv F
  0.416667 -0.250000  0.083333    0.00462963   5 t-inv F
 -0.083333  0.416667 -0.250000    0.00462963   5 t-inv F
  0.083333 -0.416667  0.250000    0.00462963   5 t-inv F
 -0.416667 -0.083333 -0.250000    0.00462963   5 t-inv F
  0.416667  0.083333  0.250000    0.00462963   5 t-inv F
 -0.250000 -0.416667 -0.083333    0.00462963   5 t-inv F
  0.250000  0.416667  0.083333    0.00462963   5 t-inv F
 -0.083333 -0.250000 -0.416667    0.00462963   5 t-inv F
  0.083333  0.250000  0.416667    0.00462963   5 t-inv F
 -0.416667 -0.416667 -0.083333    0.00462963   6 t-inv F
  0.083333  0.416667  0.416667    0.00462963   6 t-inv F
 -0.083333 -0.416667 -0.416667    0.00462963   6 t-inv F
  0.416667  0.083333  0.416667    0.00462963   6 t-inv F
 -0.416667 -0.083333 -0.416667    0.00462963   6 t-inv F
 -0.416667  0.416667  0.083333    0.00462963   6 t-inv F
  0.416667 -0.416667 -0.083333    0.00462963   6 t-inv F
 -0.416667  0.083333  0.416667    0.00462963   6 t-inv F
  0.416667 -0.083333 -0.416667    0.00462963   6 t-inv F
 -0.083333  0.416667  0.416667    0.00462963   6 t-inv F
  0.083333 -0.416667 -0.416667    0.00462963   6 t-inv F
 -0.416667 -0.416667  0.083333    0.00462963   6 t-inv F
  0.416667  0.416667 -0.083333    0.00462963   6 t-inv F
 -0.083333 -0.416667  0.416667    0.00462963   6 t-inv F
  0.083333  0.416667 -0.416667    0.00462963   6 t-inv F
 -0.416667 -0.083333  0.416667    0.00462963   6 t-inv F
  0.416667  0.083333 -0.416667    0.00462963   6 t-inv F
  0.416667 -0.416667  0.083333    0.00462963   6 t-inv F
 -0.416667  0.416667 -0.083333    0.00462963   6 t-inv F
  0.416667 -0.083333  0.416667    0.00462963   6 t-inv F
 -0.416667  0.083333 -0.416667    0.00462963   6 t-inv F
  0.083333 -0.416667  0.416667    0.00462963   6 t-inv F
 -0.083333  0.416667 -0.416667    0.00462963   6 t-inv F
 -0.250000 -0.250000 -0.250000    0.00462963   7 t-inv F
 -0.250000  0.250000  0.250000    0.00462963   7 t-inv F
  0.250000 -0.250000 -0.250000    0.00462963   7 t-inv F
 -0.250000 -0.250000  0.250000    0.00462963   7 t-inv F
  0.250000  0.250000 -0.250000    0.00462963   7 t-inv F
  0.250000 -0.250000  0.250000    0.00462963   7 t-inv F
 -0.250000  0.250000 -0.250000    0.00462963   7 t-inv F
 -0.416667 -0.250000 -0.250000    0.00462963   8 t-inv F
  0.250000  0.416667  0.250000    0.00462963   8 t-inv F
 -0.250000 -0.416667 -0.250000    0.00462963   8 t-inv F
  0.250000  0.250000  0.416667    0.00462963   8 t-inv F
 -0.250000 -0.250000 -0.416667    0.00462963   8 t-inv F
 -0.250000  0.416667  0.250000    0.00462963   8 t-inv F
  0.250000 -0.416667 -0.250000    0.00462963   8 t-inv F
 -0.416667  0.250000  0.250000    0.00462963   8 t-inv F
  0.416667 -0.250000 -0.250000    0.00462963   8 t-inv F
 -0.250000  0.250000  0.416667    0.00462963   8 t-inv F
  0.250000 -0.250000 -0.416667    0.00462963   8 t-inv F
 -0.416667 -0.250000  0.250000    0.00462963   8 t-inv F
  0.416667  0.250000 -0.250000    0.00462963   8 t-inv F
 -0.250000 -0.416667  0.250000    0.00462963   8 t-inv F
  0.250000  0.416667 -0.250000    0.00462963   8 t-inv F
 -0.250000 -0.250000  0.416667    0.00462963   8 t-inv F
  0.250000  0.250000 -0.416667    0.00462963   8 t-inv F
  0.250000 -0.416667  0.250000    0.00462963   8 t-inv F
 -0.250000  0.416667 -0.250000    0.00462963   8 t-inv F
  0.416667 -0.250000  0.250000    0.00462963   8 t-inv F
 -0.416667  0.250000 -0.250000    0.00462963   8 t-inv F
  0.250000 -0.250000  0.416667    0.00462963   8 t-inv F
 -0.250000  0.250000 -0.416667    0.00462963   8 t-inv F
 -0.416667 -0.416667 -0.250000    0.00462963   9 t-inv F
  0.250000  0.416667  0.416667    0.00462963   9 t-inv F
 -0.250000 -0.416667 -0.416667    0.00462963   9 t-inv F
  0.416667  0.250000  0.416667    0.00462963   9 t-inv F
 -0.416667 -0.250000 -0.416667    0.00462963   9 t-inv F
 -0.416667  0.416667  0.250000    0.00462963   9 t-inv F
  0.416667 -0.416667 -0.250000    0.00462963   9 t-inv F
 -0.416667  0.250000  0.416667    0.00462963   9 t-inv F
  0.416667 -0.250000 -0.416667    0.00462963   9 t-inv F
 -0.250000  0.416667  0.416667    0.00462963   9 t-inv F
  0.250000 -0.416667 -0.416667    0.00462963   9 t-inv F
 -0.416667 -0.416667  0.250000    0.00462963   9 t-inv F
  0.416667  0.416667 -0.250000    0.00462963   9 t-inv F
 -0.250000 -0.416667  0.416667    0.00462963   9 t-inv F
  0.250000  0.416667 -0.416667    0.00462963   9 t-inv F
 -0.416667 -0.250000  0.416667    0.00462963   9 t-inv F
  0.416667  0.250000 -0.416667    0.00462963   9 t-inv F
  0.416667 -0.416667  0.250000    0.00462963   9 t-inv F
 -0.416667  0.416667 -0.250000    0.00462963   9 t-inv F
  0.416667 -0.250000  0.416667    0.00462963   9 t-inv F
 -0.416667  0.250000 -0.416667    0.00462963   9 t-inv F
  0.250000 -0.416667  0.416667    0.00462963   9 t-inv F
 -0.250000  0.416667 -0.416667    0.00462963   9 t-inv F
 -0.416667 -0.416667 -0.416667    0.00462963  10 t-inv F
 -0.416667  0.416667  0.416667    0.00462963  10 t-inv F
  0.416667 -0.416667 -0.416667    0.00462963  10 t-inv F
 -0.416667 -0.416667  0.416667    0.00462963  10 t-inv F
  0.416667  0.416667 -0.416667    0.00462963  10 t-inv F
  0.416667 -0.416667  0.416667    0.00462963  10 t-inv F
 -0.416667  0.416667 -0.416667    0.00462963  10 t-inv F


--------------------------------------------------------------------------------------------------------




 Dimension of arrays:
   k-points           NKPTS =     10   k-points in BZ     NKDIM =     10   number of bands    NBANDS=     64
   number of dos      NEDOS =    301   number of ions     NIONS =      4
   non local maximal  LDIM  =      6   non local SUM 2l+1 LMDIM =     18
   total plane-waves  NPLWV =  13824
   max r-space proj   IRMAX =      1   max aug-charges    IRDMAX=   9695
   dimension x,y,z NGX =    24 NGY =   24 NGZ =   24
   dimension x,y,z NGXF=    48 NGYF=   48 NGZF=   48
   support grid    NGXF=    48 NGYF=   48 NGZF=   48
   ions per type =               4
   NGX,Y,Z   is equivalent  to a cutoff of   9.61,  9.61,  9.61 a.u.
   NGXF,Y,Z  is equivalent  to a cutoff of  19.22, 19.22, 19.22 a.u.

 SYSTEM =  unknown system                          
 POSCAR =  Ag4                                     

 Startparameter for this run:
   NWRITE =      2    write-flag & timer
   PREC   = normal    normal or accurate (medium, high low for compatibility)
   ISTART =      0    job   : 0-new  1-cont  2-samecut
   ICHARG =      2    charge: 1-file 2-atom 10-const
   ISPIN  =      1    spin polarized calculation?
   LNONCOLLINEAR =      F non collinear calculations
   LSORBIT =      F    spin-orbit coupling
   INIWAV =      1    electr: 0-lowe 1-rand  2-diag
   LASPH  =      F    aspherical Exc in radial PAW
   METAGGA=      F    non-selfconsistent MetaGGA calc.

 Electronic Relaxation 1
   ENCUT  =  520.0 eV  38.22 Ry    6.18 a.u.   7.72  7.72  7.72*2*pi/ulx,y,z
   ENINI  =  520.0     initial cutoff
   ENAUG  =  412.5 eV  augmentation charge cutoff
   NELM   =     60;   NELMIN=  2; NELMDL= -5     # of ELM steps 
   EDIFF  = 0.1E-04   stopping-criterion for ELM
   LREAL  =      F    real-space projection
   NLSPLINE    = F    spline interpolate recip. space projectors
   LCOMPAT=      F    compatible to vasp.4.4
   GGA_COMPAT  = T    GGA compatible to vasp.4.4-vasp.4.6
   LMAXPAW     = -100 max onsite density
   LMAXMIX     =    2 max onsite mixed and CHGCAR
   VOSKOWN=      0    Vosko Wilk Nusair interpolation
   ROPT   =    0.00000
 Ionic relaxation
   EDIFFG = -.1E-07   stopping-criterion for IOM
   NSW    =     85    number of steps for IOM
   NBLOCK =      1;   KBLOCK =     85    inner block; outer block 
   IBRION =      6    ionic relax: 0-MD 1-quasi-New 2-CG
   NFREE  =      2    steps in history (QN), initial steepest desc. (CG)
   ISIF   =      4    stress and relaxation
   IWAVPR =     11    prediction:  0-non 1-charg 2-wave 3-comb
   ISYM   =      2    0-nonsym 1-usesym 2-fastsym
   LCORR  =      T    Harris-Foulkes like correction to forces

   POTIM  = 0.0500    time-step for ionic-motion
   TEIN   =    0.0    initial temperature
   TEBEG  =    0.0;   TEEND  =   0.0 temperature during run
   SMASS  =  -3.00    Nose mass-parameter (am)
   estimated Nose-frequenzy (Omega)   =  0.10E-29 period in steps = 0.13E+48 mass=  -0.394E-27a.u.
   SCALEE = 1.0000    scale energy and forces
   NPACO  =    256;   APACO  = 16.0  distance and # of slots for P.C.
   PSTRESS=    0.0 pullay stress

  Mass of Ions in am
   POMASS = 107.87
  Ionic Valenz
   ZVAL   =  11.00
  Atomic Wigner-Seitz radii
   RWIGS  =  -1.00
  virtual crystal weights 
   VCA    =   1.00
   NELECT =      44.0000    total number of electrons
   NUPDOWN=      -1.0000    fix difference up-down

 DOS related values:
   EMIN   =  10.00;   EMAX   =-10.00  energy-range for DOS
   EFERMI =   0.00
   ISMEAR =    -1;   SIGMA  =   0.10  broadening in eV -4-tet -1-fermi 0-gaus

 Electronic relaxation 2 (details)
   IALGO  =     38    algorithm
   LDIAG  =      T    sub-space diagonalisation (order eigenvalues)
   LSUBROT=      F    optimize rotation matrix (better conditioning)
   TURBO    =      0    0=normal 1=particle mesh
   IRESTART =      0    0=no restart 2=restart with 2 vectors
   NREBOOT  =      0    no. of reboots
   NMIN     =      0    reboot dimension
   EREF     =   0.00    reference energy to select bands
   IMIX   =      4    mixing-type and parameters
     AMIX     =   0.40;   BMIX     =  1.00
     AMIX_MAG =   1.60;   BMIX_MAG =  1.00
     AMIN     =   0.10
     WC   =   100.;   INIMIX=   1;  MIXPRE=   1;  MAXMIX= -45

 Intra band minimization:
   WEIMIN = 0.0010     energy-eigenvalue tresh-hold
   EBREAK =  0.39E-11  absolut break condition
   DEPER  =   0.30     relativ break condition  

   TIME   =   0.40     timestep for ELM

  volume/ion in A,a.u.               =      17.89       120.75
  Fermi-wavevector in a.u.,A,eV,Ry     =   1.392019  2.630534 26.364221  1.937716
  Thomas-Fermi vector in A             =   2.515802
 
 Write flags
   LWAVE        =      T    write WAVECAR
   LDOWNSAMPLE  =      F    k-point downsampling of WAVECAR
   LCHARG       =      T    write CHGCAR
   LVTOT        =      F    write LOCPOT, total local potential
   LVHAR        =      F    write LOCPOT, Hartree potential only
   LELF         =      F    write electronic localiz. function (ELF)
   LORBIT       =      0    0 simple, 1 ext, 2 COOP (PROOUT), +10 PAW based schemes


 Dipole corrections
   LMONO  =      F    monopole corrections only (constant potential shift)
   LDIPOL =      F    correct potential (dipole corrections)
   IDIPOL =      0    1-x, 2-y, 3-z, 4-all directions 
   EPSILON=  1.0000000 bulk dielectric constant

 Exchange correlation treatment:
   GGA     =    --    GGA type
   LEXCH   =     8    internal setting for exchange type
   VOSKOWN=      0    Vosko Wilk Nusair interpolation
   LHFCALC =     F    Hartree Fock is set to
   LHFONE  =     F    Hartree Fock one center treatment
   AEXX    =    0.0000 exact exchange contribution

 Linear response parameters
   LEPSILON=     F    determine dielectric tensor
   LRPA    =     F    only Hartree local field effects (RPA)
   LNABLA  =     F    use nabla operator in PAW spheres
   LVEL    =     F    velocity operator in full k-point grid
   LINTERFAST=   F  fast interpolation
   KINTER  =     0    interpolate to denser k-point grid
   CSHIFT  =0.1000    complex shift for real part using Kramers Kronig
   OMEGAMAX=  -1.0    maximum frequency
   DEG_THRESHOLD= 0.2000000E-02 threshold for treating states as degnerate
   RTIME   =   -0.100 relaxation time in fs
  (WPLASMAI=    0.000 imaginary part of plasma frequency in eV, 0.658/RTIME)
   DFIELD  = 0.0000000 0.0000000 0.0000000 field for delta impulse in time
 
 Orbital magnetization related:
   ORBITALMAG=     F  switch on orbital magnetization
   LCHIMAG   =     F  perturbation theory with respect to B field
   DQ        =  0.001000  dq finite difference perturbation B field
   LLRAUG    =     F  two centre corrections for induced B field



--------------------------------------------------------------------------------------------------------


 finite differences with symmetry
 charge density and potential will be updated during run
 non-spin polarized calculation
 Variant of blocked Davidson
 Davidson routine will perform the subspace rotation
 perform sub-space diagonalisation
    after iterative eigenvector-optimisation
 modified Broyden-mixing scheme, WC =      100.0
 initial mixing is a Kerker type mixing with AMIX =  0.4000 and BMIX =      1.0000
 Hartree-type preconditioning will be used
 using additional bands           42
 reciprocal scheme for non local part
 use partial core corrections
 calculate Harris-corrections to forces 
   (improved forces if not selfconsistent)
 use gradient corrections 
 use of overlap-Matrix (Vanderbilt PP)
 Fermi-smearing in eV        SIGMA  =   0.10


--------------------------------------------------------------------------------------------------------


  energy-cutoff  :      520.00
  volume of cell :       71.57
      direct lattice vectors                 reciprocal lattice vectors
     4.151904700  0.000000000  0.000000000     0.240853312  0.000000000  0.000000000
     0.000000000  4.151904700  0.000000000     0.000000000  0.240853312  0.000000000
     0.000000000  0.000000000  4.151904700     0.000000000  0.000000000  0.240853312

  length of vectors
     4.151904700  4.151904700  4.151904700     0.240853312  0.240853312  0.240853312


 
 k-points in units of 2pi/SCALE and weight: pymatgen with grid density = 882 / numbe
   0.02007111  0.02007111  0.02007111       0.037
   0.06021333  0.02007111  0.02007111       0.111
   0.10035555  0.02007111  0.02007111       0.111
   0.06021333  0.06021333  0.02007111       0.111
   0.10035555  0.06021333  0.02007111       0.222
   0.10035555  0.10035555  0.02007111       0.111
   0.06021333  0.06021333  0.06021333       0.037
   0.10035555  0.06021333  0.06021333       0.111
   0.10035555  0.10035555  0.06021333       0.111
   0.10035555  0.10035555  0.10035555       0.037
 
 k-points in reciprocal lattice and weights: pymatgen with grid density = 882 / numbe
   0.08333333  0.08333333  0.08333333       0.037
   0.25000000  0.08333333  0.08333333       0.111
   0.41666667  0.08333333  0.08333333       0.111
   0.25000000  0.25000000  0.08333333       0.111
   0.41666667  0.25000000  0.08333333       0.222
   0.41666667  0.41666667  0.08333333       0.111
   0.25000000  0.25000000  0.25000000       0.037
   0.41666667  0.25000000  0.25000000       0.111
   0.41666667  0.41666667  0.25000000       0.111
   0.41666667  0.41666667  0.41666667       0.037
 
 position of ions in fractional coordinates (direct lattice) 
   0.00000000  0.00000000  0.00000000
   0.00000000  0.50000000  0.50000000
   0.50000000  0.00000000  0.50000000
   0.50000000  0.50000000  0.00000000
 
 position of ions in cartesian coordinates  (Angst):
   0.00000000  0.00000000  0.00000000
   0.00000000  2.07595235  2.07595235
   2.07595235  0.00000000  2.07595235
   2.07595235  2.07595235  0.00000000
 


--------------------------------------------------------------------------------------------------------


 k-point   1 :   0.0833 0.0833 0.0833  plane waves:    1917
 k-point   2 :   0.2500 0.0833 0.0833  plane waves:    1937
 k-point   3 :   0.4167 0.0833 0.0833  plane waves:    1934
 k-point   4 :   0.2500 0.2500 0.0833  plane waves:    1922
 k-point   5 :   0.4167 0.2500 0.0833  plane waves:    1935
 k-point   6 :   0.4167 0.4167 0.0833  plane waves:    1940
 k-point   7 :   0.2500 0.2500 0.2500  plane waves:    1914
 k-point   8 :   0.4167 0.2500 0.2500  plane waves:    1921
 k-point   9 :   0.4167 0.4167 0.2500  plane waves:    1929
 k-point  10 :   0.4167 0.4167 0.4167  plane waves:    1908

 maximum and minimum number of plane-waves per node :      1940     1908

 maximum number of plane-waves:      1940
 maximum index in each direction: 
   IXMAX=    7   IYMAX=    7   IZMAX=    7
   IXMIN=   -8   IYMIN=   -8   IZMIN=   -8


 serial   3D FFT for wavefunctions
 parallel 3D FFT for charge:
    minimum data exchange during FFTs selected (reduces bandwidth)


 total amount of memory used by VASP MPI-rank0    34210. kBytes
=======================================================================

   base      :      30000. kBytes
   nonl-proj :       2983. kBytes
   fftplans  :        153. kBytes
   grid      :        675. kBytes
   one-center:         62. kBytes
   wavefun   :        337. kBytes
 
     INWAV:  cpu time    0.0000: real time    0.0000
 Broyden mixing: mesh for mixing (old mesh)
   NGX = 15   NGY = 15   NGZ = 15
  (NGX  = 48   NGY  = 48   NGZ  = 48)
  gives a total of   3375 points

 initial charge density was supplied:
 charge density of overlapping atoms calculated
 number of electron      44.0000000 magnetization 
 keeping initial charge density in first step


--------------------------------------------------------------------------------------------------------


 Maximum index for augmentation-charges          529 (set IRDMAX)


--------------------------------------------------------------------------------------------------------


 First call to EWALD:  gamma=   0.427
 Maximum number of real-space cells 3x 3x 3
 Maximum number of reciprocal cells 3x 3x 3

    FEWALD:  cpu time    0.0023: real time    0.0029


--------------------------------------- Iteration      1(   1)  ---------------------------------------


    POTLOK:  cpu time    0.0603: real time    0.0919
    SETDIJ:  cpu time    0.0030: real time    0.0031
     EDDAV:  cpu time    2.2064: real time    2.5994
       DOS:  cpu time    0.0039: real time    0.0041
    --------------------------------------------
      LOOP:  cpu time    2.2737: real time    2.6986

 eigenvalue-minimisations  :  1280
 total energy-change (2. order) : 0.8679364E+02  (-0.2572203E+04)
 number of electron      44.0000000 magnetization 
 augmentation part       44.0000000 magnetization 

 Free energy of the ion-electron system (eV)
  ---------------------------------------------------
  alpha Z        PSCENC =       190.14811924
  Ewald energy   TEWEN  =     -3848.13538222
  -Hartree energ DENC   =      -839.89853531
  -exchange      EXHF   =         0.00000000
  -V(xc)+E(xc)   XCENC  =       -42.15822424
  PAW double counting   =      4013.84859731    -3829.39709692
  entropy T*S    EENTRO =        -0.07660760
  eigenvalues    EBANDS =       293.41164022
  atomic energy  EATOM  =      4149.05112583
  Solvation  Ediel_sol  =         0.00000000
  ---------------------------------------------------
  free energy    TOTEN  =        86.79363631 eV

  energy without entropy =       86.87024391  energy(sigma->0) =       86.83194011


--------------------------------------------------------------------------------------------------------




--------------------------------------- Iteration      1(   2)  ---------------------------------------


     EDDAV:  cpu time    3.2823: real time    3.8539
       DOS:  cpu time    0.0033: real time    0.0035
    --------------------------------------------
      LOOP:  cpu time    3.2856: real time    3.8574

 eigenvalue-minimisations  :  2240
 total energy-change (2. order) :-0.9843685E+02  (-0.9808560E+02)
 number of electron      44.0000000 magnetization 
 augmentation part       44.0000000 magnetization 

 Free energy of the ion-electron system (eV)
  ---------------------------------------------------
  alpha Z        PSCENC =       190.14811924
  Ewald energy   TEWEN  =     -3848.13538222
  -Hartree energ DENC   =      -839.89853531
  -exchange      EXHF   =         0.00000000
  -V(xc)+E(xc)   XCENC  =       -42.15822424
  PAW double counting   =      4013.84859731    -3829.39709692
  entropy T*S    EENTRO =        -0.05616172
  eigenvalues    EBANDS =       194.95434907
  atomic energy  EATOM  =      4149.05112583
  Solvation  Ediel_sol  =         0.00000000
  ---------------------------------------------------
  free energy    TOTEN  =       -11.64320896 eV

  energy without entropy =      -11.58704724  energy(sigma->0) =      -11.61512810


--------------------------------------------------------------------------------------------------------




--------------------------------------- Iteration      1(   3)  ---------------------------------------


     EDDAV:  cpu time    1.3534: real time    1.7196
       DOS:  cpu time    0.0032: real time    0.0034
    --------------------------------------------
      LOOP:  cpu time    1.3565: real time    1.7230

 eigenvalue-minimisations  :  1280
 total energy-change (2. order) :-0.1810777E+00  (-0.1810765E+00)
 number of electron      44.0000000 magnetization 
 augmentation part       44.0000000 magnetization 

 Free energy of the ion-electron system (eV)
  ---------------------------------------------------
  alpha Z        PSCENC =       190.14811924
  Ewald energy   TEWEN  =     -3848.13538222
  -Hartree energ DENC   =      -839.89853531
  -exchange      EXHF   =         0.00000000
  -V(xc)+E(xc)   XCENC  =       -42.15822424
  PAW double counting   =      4013.84859731    -3829.39709692
  entropy T*S    EENTRO =        -0.05605809
  eigenvalues    EBANDS =       194.77316779
  atomic energy  EATOM  =      4149.05112583
  Solvation  Ediel_sol  =         0.00000000
  ---------------------------------------------------
  free energy    TOTEN  =       -11.82428661 eV

  energy without entropy =      -11.76822853  energy(sigma->0) =      -11.79625757


--------------------------------------------------------------------------------------------------------




--------------------------------------- Iteration      1(   4)  ---------------------------------------


     EDDAV:  cpu time    3.9740: real time    4.3371
       DOS:  cpu time    0.0033: real time    0.0035
    --------------------------------------------
      LOOP:  cpu time    3.9773: real time    4.3406

 eigenvalue-minimisations  :  2432
 total energy-change (2. order) :-0.7691945E-04  (-0.7691906E-04)
 number of electron      44.0000000 magnetization 
 augmentation part       44.0000000 magnetization 

 Free energy of the ion-electron system (eV)
  ---------------------------------------------------
  alpha Z        PSCENC =       190.14811924
  Ewald energy   TEWEN  =     -3848.13538222
  -Hartree energ DENC   =      -839.89853531
  -exchange      EXHF   =         0.00000000
  -V(xc)+E(xc)   XCENC  =       -42.15822424
  PAW double counting   =      4013.84859731    -3829.39709692
  entropy T*S    EENTRO =        -0.05605802
  eigenvalues    EBANDS =       194.77309081
  atomic energy  EATOM  =      4149.05112583
  Solvation  Ediel_sol  =         0.00000000
  ---------------------------------------------------
  free energy    TOTEN  =       -11.82436353 eV

  energy without entropy =      -11.76830551  energy(sigma->0) =      -11.79633452


--------------------------------------------------------------------------------------------------------




--------------------------------------- Iteration      1(   5)  ---------------------------------------


     EDDAV:  cpu time    1.5337: real time    1.7346
       DOS:  cpu time    0.0035: real time    0.0037
    CHARGE:  cpu time    0.0111: real time    0.0132
    MIXING:  cpu time    0.0037: real time    0.0039
    --------------------------------------------
      LOOP:  cpu time    1.5520: real time    1.7553

 eigenvalue-minimisations  :  1280
 total energy-change (2. order) : 0.5811671E-09  (-0.4784152E-09)
 number of electron      44.0000033 magnetization 
 augmentation part       20.3160263 magnetization 

 Broyden mixing:
  rms(total) = 0.92400E+00    rms(broyden)= 0.92400E+00
  rms(prec ) = 0.16143E+01
  weight for this iteration     100.00

 Free energy of the ion-electron system (eV)
  ---------------------------------------------------
  alpha Z        PSCENC =       190.14811924
  Ewald energy   TEWEN  =     -3848.13538222
  -Hartree energ DENC   =      -839.89853531
  -exchange      EXHF   =         0.00000000
  -V(xc)+E(xc)   XCENC  =       -42.15822424
  PAW double counting   =      4013.84859731    -3829.39709692
  entropy T*S    EENTRO =        -0.05605802
  eigenvalues    EBANDS =       194.77309081
  atomic energy  EATOM  =      4149.05112583
  Solvation  Ediel_sol  =         0.00000000
  ---------------------------------------------------
  free energy    TOTEN  =       -11.82436353 eV

  energy without entropy =      -11.76830551  energy(sigma->0) =      -11.79633452


--------------------------------------------------------------------------------------------------------




--------------------------------------- Iteration      1(   6)  ---------------------------------------


    POTLOK:  cpu time    0.0803: real time    0.0951
    SETDIJ:  cpu time    0.0024: real time    0.0025
     EDDAV:  cpu time    3.3975: real time    3.7184
       DOS:  cpu time    0.0031: real time    0.0032
    CHARGE:  cpu time    0.0111: real time    0.0131
    MIXING:  cpu time    0.2461: real time    0.2482
    --------------------------------------------
      LOOP:  cpu time    3.7404: real time    4.0806

 eigenvalue-minimisations  :  2240
 total energy-change (2. order) : 0.9201258E+00  (-0.4957545E+00)
 number of electron      44.0000034 magnetization 
 augmentation part       20.9836136 magnetization 

 Broyden mixing:
  rms(total) = 0.61729E+00    rms(broyden)= 0.61729E+00
  rms(prec ) = 0.64804E+00
  weight for this iteration     100.00

 eigenvalues of (default mixing * dielectric matrix)
  average eigenvalue GAMMA=   1.1579
  1.1579

 Free energy of the ion-electron system (eV)
  ---------------------------------------------------
  alpha Z        PSCENC =       190.14811924
  Ewald energy   TEWEN  =     -3848.13538222
  -Hartree energ DENC   =      -801.20565026
  -exchange      EXHF   =         0.00000000
  -V(xc)+E(xc)   XCENC  =       -43.55685491
  PAW double counting   =      4161.33904370    -3980.62797269
  entropy T*S    EENTRO =        -0.03888981
  eigenvalues    EBANDS =       162.12222337
  atomic energy  EATOM  =      4149.05112583
  Solvation  Ediel_sol  =         0.00000000
  ---------------------------------------------------
  free energy    TOTEN  =       -10.90423775 eV

  energy without entropy =      -10.86534794  energy(sigma->0) =      -10.88479284


--------------------------------------------------------------------------------------------------------




--------------------------------------- Iteration      1(   7)  ---------------------------------------


    POTLOK:  cpu time    0.0796: real time    0.0945
    SETDIJ:  cpu time    0.0024: real time    0.0025
     EDDAV:  cpu time    3.7324: real time    4.0623
       DOS:  cpu time    0.0033: real time    0.0034
    CHARGE:  cpu time    0.0115: real time    0.0134
    MIXING:  cpu time    0.0032: real time    0.0033
    --------------------------------------------
      LOOP:  cpu time    3.8323: real time    4.1795

 eigenvalue-minimisations  :  2304
 total energy-change (2. order) : 0.2566498E-01  (-0.2089019E-02)
 number of electron      44.0000034 magnetization 
 augmentation part       21.0250580 magnetization 

 Broyden mixing:
  rms(total) = 0.35094E+00    rms(broyden)= 0.35094E+00
  rms(prec ) = 0.36130E+00
  weight for this iteration     100.00

 eigenvalues of (default mixing * dielectric matrix)
  average eigenvalue GAMMA=   1.8059
  1.0497  2.5621

 Free energy of the ion-electron system (eV)
  ---------------------------------------------------
  alpha Z        PSCENC =       190.14811924
  Ewald energy   TEWEN  =     -3848.13538222
  -Hartree energ DENC   =      -795.48004256
  -exchange      EXHF   =         0.00000000
  -V(xc)+E(xc)   XCENC  =       -43.77588545
  PAW double counting   =      4270.73629891    -4092.73265737
  entropy T*S    EENTRO =        -0.03784211
  eigenvalues    EBANDS =       159.34769296
  atomic energy  EATOM  =      4149.05112583
  Solvation  Ediel_sol  =         0.00000000
  ---------------------------------------------------
  free energy    TOTEN  =       -10.87857276 eV

  energy without entropy =      -10.84073066  energy(sigma->0) =      -10.85965171


--------------------------------------------------------------------------------------------------------




--------------------------------------- Iteration      1(   8)  ---------------------------------------


    POTLOK:  cpu time    0.0804: real time    0.0955
    SETDIJ:  cpu time    0.0024: real time    0.0024
     EDDAV:  cpu time    3.9626: real time    4.3094
       DOS:  cpu time    0.0034: real time    0.0036
    CHARGE:  cpu time    0.0112: real time    0.0132
    MIXING:  cpu time    0.0030: real time    0.0031
    --------------------------------------------
      LOOP:  cpu time    4.0630: real time    4.4273

 eigenvalue-minimisations  :  2432
 total energy-change (2. order) : 0.9878305E-02  (-0.2958617E-03)
 number of electron      44.0000034 magnetization 
 augmentation part       21.0345712 magnetization 

 Broyden mixing:
  rms(total) = 0.88080E-02    rms(broyden)= 0.88074E-02
  rms(prec ) = 0.10645E-01
  weight for this iteration     100.00

 eigenvalues of (default mixing * dielectric matrix)
  average eigenvalue GAMMA=   2.0908
  1.0443  2.6140  2.6140

 Free energy of the ion-electron system (eV)
  ---------------------------------------------------
  alpha Z        PSCENC =       190.14811924
  Ewald energy   TEWEN  =     -3848.13538222
  -Hartree energ DENC   =      -790.67093027
  -exchange      EXHF   =         0.00000000
  -V(xc)+E(xc)   XCENC  =       -43.96516067
  PAW double counting   =      4410.01409061    -4235.30099950
  entropy T*S    EENTRO =        -0.03752410
  eigenvalues    EBANDS =       158.02796662
  atomic energy  EATOM  =      4149.05112583
  Solvation  Ediel_sol  =         0.00000000
  ---------------------------------------------------
  free energy    TOTEN  =       -10.86869446 eV

  energy without entropy =      -10.83117036  energy(sigma->0) =      -10.84993241


--------------------------------------------------------------------------------------------------------




--------------------------------------- Iteration      1(   9)  ---------------------------------------


    POTLOK:  cpu time    0.0815: real time    0.0958
    SETDIJ:  cpu time    0.0025: real time    0.0026
     EDDAV:  cpu time    3.1504: real time    3.4438
       DOS:  cpu time    0.0032: real time    0.0034
    CHARGE:  cpu time    0.0110: real time    0.0129
    MIXING:  cpu time    0.2495: real time    0.2518
    --------------------------------------------
      LOOP:  cpu time    3.4981: real time    3.8103

 eigenvalue-minimisations  :  2048
 total energy-change (2. order) :-0.4951998E-04  (-0.8235078E-05)
 number of electron      44.0000034 magnetization 
 augmentation part       21.0322700 magnetization 

 Broyden mixing:
  rms(total) = 0.33625E-02    rms(broyden)= 0.33624E-02
  rms(prec ) = 0.49058E-02
  weight for this iteration     100.00

 eigenvalues of (default mixing * dielectric matrix)
  average eigenvalue GAMMA=   1.8359
  0.9734  1.0697  2.7028  2.5976

 Free energy of the ion-electron system (eV)
  ---------------------------------------------------
  alpha Z        PSCENC =       190.14811924
  Ewald energy   TEWEN  =     -3848.13538222
  -Hartree energ DENC   =      -790.93421741
  -exchange      EXHF   =         0.00000000
  -V(xc)+E(xc)   XCENC  =       -43.95653037
  PAW double counting   =      4407.98520214    -4233.11682642
  entropy T*S    EENTRO =        -0.03758532
  eigenvalues    EBANDS =       158.12735054
  atomic energy  EATOM  =      4149.05112583
  Solvation  Ediel_sol  =         0.00000000
  ---------------------------------------------------
  free energy    TOTEN  =       -10.86874398 eV

  energy without entropy =      -10.83115866  energy(sigma->0) =      -10.84995132


--------------------------------------------------------------------------------------------------------




--------------------------------------- Iteration      1(  10)  ---------------------------------------


    POTLOK:  cpu time    0.0805: real time    0.0952
    SETDIJ:  cpu time    0.0023: real time    0.0024
     EDDAV:  cpu time    2.6598: real time    2.9416
       DOS:  cpu time    0.0034: real time    0.0036
    CHARGE:  cpu time    0.0111: real time    0.0130
    MIXING:  cpu time    0.0033: real time    0.0034
    --------------------------------------------
      LOOP:  cpu time    2.7603: real time    3.0591

 eigenvalue-minimisations  :  1856
 total energy-change (2. order) :-0.1536300E-04  (-0.2059357E-05)
 number of electron      44.0000034 magnetization 
 augmentation part       21.0333144 magnetization 

 Broyden mixing:
  rms(total) = 0.42330E-03    rms(broyden)= 0.42326E-03
  rms(prec ) = 0.44034E-03
  weight for this iteration     100.00

 eigenvalues of (default mixing * dielectric matrix)
  average eigenvalue GAMMA=   1.8332
  0.9972  1.0844  2.7211  2.4258  1.9378

 Free energy of the ion-electron system (eV)
  ---------------------------------------------------
  alpha Z        PSCENC =       190.14811924
  Ewald energy   TEWEN  =     -3848.13538222
  -Hartree energ DENC   =      -790.84476148
  -exchange      EXHF   =         0.00000000
  -V(xc)+E(xc)   XCENC  =       -43.96080476
  PAW double counting   =      4411.35319504    -4236.47720632
  entropy T*S    EENTRO =        -0.03756523
  eigenvalues    EBANDS =       158.03452056
  atomic energy  EATOM  =      4149.05112583
  Solvation  Ediel_sol  =         0.00000000
  ---------------------------------------------------
  free energy    TOTEN  =       -10.86875934 eV

  energy without entropy =      -10.83119411  energy(sigma->0) =      -10.84997673


--------------------------------------------------------------------------------------------------------




--------------------------------------- Iteration      1(  11)  ---------------------------------------


    POTLOK:  cpu time    0.0798: real time    0.0947
    SETDIJ:  cpu time    0.0025: real time    0.0026
     EDDAV:  cpu time    2.5519: real time    2.8079
       DOS:  cpu time    0.0033: real time    0.0035
    --------------------------------------------
      LOOP:  cpu time    2.6375: real time    2.9086

 eigenvalue-minimisations  :  1728
 total energy-change (2. order) :-0.4828844E-06  (-0.6325418E-08)
 number of electron      44.0000034 magnetization 
 augmentation part       21.0333144 magnetization 

 Free energy of the ion-electron system (eV)
  ---------------------------------------------------
  alpha Z        PSCENC =       190.14811924
  Ewald energy   TEWEN  =     -3848.13538222
  -Hartree energ DENC   =      -790.83737527
  -exchange      EXHF   =         0.00000000
  -V(xc)+E(xc)   XCENC  =       -43.96108255
  PAW double counting   =      4411.47601526    -4236.60596348
  entropy T*S    EENTRO =        -0.03756493
  eigenvalues    EBANDS =       158.03334828
  atomic energy  EATOM  =      4149.05112583
  Solvation  Ediel_sol  =         0.00000000
  ---------------------------------------------------
  free energy    TOTEN  =       -10.86875983 eV

  energy without entropy =      -10.83119490  energy(sigma->0) =      -10.84997736


--------------------------------------------------------------------------------------------------------




 average (electrostatic) potential at core
  the test charge radii are     1.1249
  (the norm of the test charge is              1.0000)
       1 -71.2940       2 -71.2940       3 -71.2940       4 -71.2940
 
 
 
 E-fermi :   7.7089     XC(G=0): -11.9230     alpha+bet :-12.8282


 k-point     1 :       0.0833    0.0833    0.0833
  band No.  band energies     occupation 
      1       0.5653      2.00000
      2       1.7391      2.00000
      3       1.7391      2.00000
      4       1.7391      2.00000
      5       1.8594      2.00000
      6       1.8594      2.00000
      7       1.8594      2.00000
      8       3.1024      2.00000
      9       3.1988      2.00000
     10       3.1988      2.00000
     11       4.0761      2.00000
     12       4.0761      2.00000
     13       4.6972      2.00000
     14       4.6972      2.00000
     15       4.6972      2.00000
     16       4.7609      2.00000
     17       4.7609      2.00000
     18       4.7609      2.00000
     19       4.9645      2.00000
     20       4.9645      2.00000
     21       4.9645      2.00000
     22       9.2901      0.00000
     23       9.2901      0.00000
     24       9.2901      0.00000
     25      14.7748      0.00000
     26      14.7748      0.00000
     27      14.7748      0.00000
     28      17.2885      0.00000
     29      17.2885      0.00000
     30      17.2885      0.00000
     31      18.5563      0.00000
     32      18.5563      0.00000
     33      18.5563      0.00000
     34      23.6286      0.00000
     35      24.3514      0.00000
     36      24.3514      0.00000
     37      24.3514      0.00000
     38      25.4173      0.00000
     39      25.6171      0.00000
     40      25.6171      0.00000
     41      25.6171      0.00000
     42      27.0321      0.00000
     43      27.0321      0.00000
     44      31.2961      0.00000
     45      32.3120      0.00000
     46      32.3120      0.00000
     47      33.8384      0.00000
     48      35.8371      0.00000
     49      35.8371      0.00000
     50      36.4967      0.00000
     51      36.4967      0.00000
     52      36.4967      0.00000
     53      37.1931      0.00000
     54      39.6626      0.00000
     55      39.6626      0.00000
     56      39.6626      0.00000
     57      42.0435      0.00000
     58      42.0435      0.00000
     59      42.0435      0.00000
     60      42.3453      0.00000
     61      42.3453      0.00000
     62      42.3453      0.00000
     63      42.4563      0.00000
     64      42.4563      0.00000

 k-point     2 :       0.2500    0.0833    0.0833
  band No.  band energies     occupation 
      1       1.0837      2.00000
      2       1.9315      2.00000
      3       1.9638      2.00000
      4       1.9638      2.00000
      5       2.0252      2.00000
      6       2.1396      2.00000
      7       2.1396      2.00000
      8       2.9384      2.00000
      9       3.3608      2.00000
     10       3.3615      2.00000
     11       3.9269      2.00000
     12       4.0639      2.00000
     13       4.0639      2.00000
     14       4.1858      2.00000
     15       4.4188      2.00000
     16       4.4608      2.00000
     17       4.4858      2.00000
     18       4.4858      2.00000
     19       4.8202      2.00000
     20       4.9409      2.00000
     21       4.9409      2.00000
     22       7.1158      1.99470
     23      10.3652      0.00000
     24      10.3652      0.00000
     25      14.7940      0.00000
     26      14.7940      0.00000
     27      15.6079      0.00000
     28      15.6079      0.00000
     29      17.7161      0.00000
     30      18.0820      0.00000
     31      18.0820      0.00000
     32      18.2301      0.00000
     33      19.4723      0.00000
     34      22.8063      0.00000
     35      24.2936      0.00000
     36      24.3821      0.00000
     37      25.4943      0.00000
     38      25.4943      0.00000
     39      25.5132      0.00000
     40      25.7088      0.00000
     41      27.0253      0.00000
     42      28.2418      0.00000
     43      28.2418      0.00000
     44      30.2790      0.00000
     45      32.2099      0.00000
     46      32.5975      0.00000
     47      33.3713      0.00000
     48      34.4774      0.00000
     49      34.4774      0.00000
     50      36.2980      0.00000
     51      36.3386      0.00000
     52      37.4485      0.00000
     53      38.1261      0.00000
     54      38.6008      0.00000
     55      38.6008      0.00000
     56      39.0804      0.00000
     57      39.6790      0.00000
     58      40.3308      0.00000
     59      40.3308      0.00000
     60      41.1860      0.00000
     61      41.9884      0.00000
     62      41.9884      0.00000
     63      42.0093      0.00000
     64      42.5159      0.00000

 k-point     3 :       0.4167    0.0833    0.0833
  band No.  band energies     occupation 
      1       1.8908      2.00000
      2       2.1643      2.00000
      3       2.3160      2.00000
      4       2.3186      2.00000
      5       2.3186      2.00000
      6       2.5935      2.00000
      7       2.5935      2.00000
      8       2.6380      2.00000
      9       3.2590      2.00000
     10       3.2590      2.00000
     11       3.4993      2.00000
     12       3.6687      2.00000
     13       3.8664      2.00000
     14       4.0696      2.00000
     15       4.1030      2.00000
     16       4.1646      2.00000
     17       4.1646      2.00000
     18       4.3784      2.00000
     19       4.6073      2.00000
     20       4.9326      2.00000
     21       4.9326      2.00000
     22       5.1731      2.00000
     23      11.8946      0.00000
     24      11.8946      0.00000
     25      13.5276      0.00000
     26      13.5276      0.00000
     27      15.5474      0.00000
     28      15.5474      0.00000
     29      16.9250      0.00000
     30      16.9250      0.00000
     31      19.5008      0.00000
     32      21.1348      0.00000
     33      21.1974      0.00000
     34      21.5377      0.00000
     35      23.2816      0.00000
     36      23.9583      0.00000
     37      24.3214      0.00000
     38      25.3334      0.00000
     39      26.1444      0.00000
     40      27.6882      0.00000
     41      27.9123      0.00000
     42      27.9123      0.00000
     43      30.7008      0.00000
     44      30.7008      0.00000
     45      32.2405      0.00000
     46      32.2405      0.00000
     47      32.9491      0.00000
     48      33.2411      0.00000
     49      34.9487      0.00000
     50      34.9591      0.00000
     51      35.2619      0.00000
     52      36.4118      0.00000
     53      36.4118      0.00000
     54      38.0004      0.00000
     55      39.0868      0.00000
     56      39.0868      0.00000
     57      39.2276      0.00000
     58      39.5887      0.00000
     59      39.5906      0.00000
     60      41.2613      0.00000
     61      41.2613      0.00000
     62      41.4621      0.00000
     63      41.8603      0.00000
     64      42.3616      0.00000

 k-point     4 :       0.2500    0.2500    0.0833
  band No.  band energies     occupation 
      1       1.5098      2.00000
      2       2.0560      2.00000
      3       2.1234      2.00000
      4       2.1234      2.00000
      5       2.3208      2.00000
      6       2.3208      2.00000
      7       2.4615      2.00000
      8       2.9552      2.00000
      9       3.3938      2.00000
     10       3.4037      2.00000
     11       3.7069      2.00000
     12       3.7069      2.00000
     13       3.7909      2.00000
     14       3.9169      2.00000
     15       4.2370      2.00000
     16       4.3309      2.00000
     17       4.3503      2.00000
     18       4.3503      2.00000
     19       4.7789      2.00000
     20       4.7789      2.00000
     21       4.7919      2.00000
     22       8.0724      0.05142
     23       8.0724      0.05142
     24      11.2408      0.00000
     25      12.9449      0.00000
     26      15.4044      0.00000
     27      16.0148      0.00000
     28      16.0148      0.00000
     29      18.2023      0.00000
     30      18.2023      0.00000
     31      18.8443      0.00000
     32      18.8443      0.00000
     33      20.2867      0.00000
     34      20.8206      0.00000
     35      23.2093      0.00000
     36      24.1140      0.00000
     37      25.5314      0.00000
     38      25.5314      0.00000
     39      26.2761      0.00000
     40      28.3553      0.00000
     41      28.3553      0.00000
     42      28.4925      0.00000
     43      28.8713      0.00000
     44      30.7282      0.00000
     45      31.1503      0.00000
     46      33.3688      0.00000
     47      33.3923      0.00000
     48      33.6931      0.00000
     49      33.6931      0.00000
     50      34.5145      0.00000
     51      35.5358      0.00000
     52      36.7216      0.00000
     53      37.0128      0.00000
     54      37.0128      0.00000
     55      38.8868      0.00000
     56      39.5432      0.00000
     57      39.5432      0.00000
     58      40.4718      0.00000
     59      40.4955      0.00000
     60      41.5732      0.00000
     61      41.8346      0.00000
     62      41.8346      0.00000
     63      42.5323      0.00000
     64      42.8028      0.00000

 k-point     5 :       0.4167    0.2500    0.0833
  band No.  band energies     occupation 
      1       2.1116      2.00000
      2       2.2925      2.00000
      3       2.3517      2.00000
      4       2.4981      2.00000
      5       2.6471      2.00000
      6       2.6526      2.00000
      7       2.7627      2.00000
      8       2.8432      2.00000
      9       3.1202      2.00000
     10       3.2791      2.00000
     11       3.2977      2.00000
     12       3.3007      2.00000
     13       3.6187      2.00000
     14       3.9803      2.00000
     15       4.0145      2.00000
     16       4.0984      2.00000
     17       4.1023      2.00000
     18       4.5185      2.00000
     19       4.6922      2.00000
     20       4.6934      2.00000
     21       4.8637      2.00000
     22       6.0759      2.00000
     23       9.4047      0.00000
     24      10.9825      0.00000
     25      12.6499      0.00000
     26      14.2253      0.00000
     27      16.0596      0.00000
     28      17.2202      0.00000
     29      17.3303      0.00000
     30      18.9628      0.00000
     31      19.0525      0.00000
     32      20.0626      0.00000
     33      20.0747      0.00000
     34      21.6389      0.00000
     35      21.8482      0.00000
     36      25.1011      0.00000
     37      25.6796      0.00000
     38      25.8057      0.00000
     39      26.7144      0.00000
     40      27.4420      0.00000
     41      28.7600      0.00000
     42      29.4905      0.00000
     43      29.6720      0.00000
     44      30.7830      0.00000
     45      31.7063      0.00000
     46      32.4102      0.00000
     47      33.1133      0.00000
     48      33.2772      0.00000
     49      34.4483      0.00000
     50      34.6611      0.00000
     51      35.2571      0.00000
     52      35.6416      0.00000
     53      36.4432      0.00000
     54      37.0094      0.00000
     55      37.6956      0.00000
     56      37.8134      0.00000
     57      38.3250      0.00000
     58      40.2508      0.00000
     59      40.8291      0.00000
     60      40.8575      0.00000
     61      41.3231      0.00000
     62      41.6341      0.00000
     63      42.3872      0.00000
     64      42.4763      0.00000

 k-point     6 :       0.4167    0.4167    0.0833
  band No.  band energies     occupation 
      1       2.3332      2.00000
      2       2.4341      2.00000
      3       2.4828      2.00000
      4       2.4828      2.00000
      5       2.8977      2.00000
      6       2.8977      2.00000
      7       2.9038      2.00000
      8       2.9930      2.00000
      9       3.1441      2.00000
     10       3.1441      2.00000
     11       3.3332      2.00000
     12       3.3752      2.00000
     13       3.5837      2.00000
     14       3.7862      2.00000
     15       3.8451      2.00000
     16       3.8451      2.00000
     17       4.0137      2.00000
     18       4.3470      2.00000
     19       4.3470      2.00000
     20       4.4251      2.00000
     21       5.8279      2.00000
     22       7.3129      1.96259
     23       7.3129      1.96259
     24       8.9106      0.00001
     25      13.8785      0.00000
     26      15.4391      0.00000
     27      15.4391      0.00000
     28      16.9539      0.00000
     29      17.0313      0.00000
     30      18.3425      0.00000
     31      18.3425      0.00000
     32      19.8453      0.00000
     33      22.5459      0.00000
     34      22.5459      0.00000
     35      23.2491      0.00000
     36      24.1478      0.00000
     37      25.1766      0.00000
     38      26.6427      0.00000
     39      26.6427      0.00000
     40      26.9309      0.00000
     41      28.9325      0.00000
     42      29.4994      0.00000
     43      29.4994      0.00000
     44      31.5361      0.00000
     45      31.8324      0.00000
     46      32.9280      0.00000
     47      33.2463      0.00000
     48      33.2463      0.00000
     49      33.9294      0.00000
     50      34.2117      0.00000
     51      34.2117      0.00000
     52      36.6040      0.00000
     53      37.1255      0.00000
     54      37.4446      0.00000
     55      37.5487      0.00000
     56      38.2835      0.00000
     57      38.2835      0.00000
     58      38.6227      0.00000
     59      39.4809      0.00000
     60      39.4809      0.00000
     61      40.9836      0.00000
     62      41.0543      0.00000
     63      41.1323      0.00000
     64      41.1323      0.00000

 k-point     7 :       0.2500    0.2500    0.2500
  band No.  band energies     occupation 
      1       1.6833      2.00000
      2       2.1167      2.00000
      3       2.1167      2.00000
      4       2.1167      2.00000
      5       2.6449      2.00000
      6       2.6449      2.00000
      7       2.6449      2.00000
      8       3.3306      2.00000
      9       3.3306      2.00000
     10       3.4017      2.00000
     11       3.6042      2.00000
     12       3.6042      2.00000
     13       3.6042      2.00000
     14       3.9165      2.00000
     15       3.9165      2.00000
     16       3.9165      2.00000
     17       4.2117      2.00000
     18       4.2117      2.00000
     19       4.8780      2.00000
     20       4.8780      2.00000
     21       4.8780      2.00000
     22       8.7408      0.00007
     23       8.7408      0.00007
     24       8.7408      0.00007
     25      13.6641      0.00000
     26      13.6641      0.00000
     27      13.6641      0.00000
     28      18.5589      0.00000
     29      18.6110      0.00000
     30      18.6110      0.00000
     31      18.6110      0.00000
     32      21.0128      0.00000
     33      21.0128      0.00000
     34      21.0128      0.00000
     35      23.9978      0.00000
     36      23.9978      0.00000
     37      23.9978      0.00000
     38      24.2085      0.00000
     39      26.8117      0.00000
     40      26.8117      0.00000
     41      30.1653      0.00000
     42      30.5628      0.00000
     43      30.5628      0.00000
     44      31.3530      0.00000
     45      31.3530      0.00000
     46      31.3530      0.00000
     47      33.7651      0.00000
     48      33.7651      0.00000
     49      33.7651      0.00000
     50      34.3207      0.00000
     51      34.3207      0.00000
     52      34.3207      0.00000
     53      36.3281      0.00000
     54      36.3281      0.00000
     55      38.9161      0.00000
     56      38.9702      0.00000
     57      38.9702      0.00000
     58      38.9702      0.00000
     59      41.7535      0.00000
     60      42.3207      0.00000
     61      42.3207      0.00000
     62      42.3208      0.00000
     63      42.4572      0.00000
     64      42.4572      0.00000

 k-point     8 :       0.4167    0.2500    0.2500
  band No.  band energies     occupation 
      1       1.9195      2.00000
      2       2.0933      2.00000
      3       2.2529      2.00000
      4       2.2529      2.00000
      5       2.7695      2.00000
      6       2.7695      2.00000
      7       2.9865      2.00000
      8       3.2359      2.00000
      9       3.3836      2.00000
     10       3.4422      2.00000
     11       3.5138      2.00000
     12       3.5138      2.00000
     13       3.5557      2.00000
     14       3.5928      2.00000
     15       3.7511      2.00000
     16       3.7511      2.00000
     17       4.5485      2.00000
     18       4.7828      2.00000
     19       4.7828      2.00000
     20       4.7983      2.00000
     21       4.8374      2.00000
     22       6.5083      1.99999
     23       9.7390      0.00000
     24       9.7390      0.00000
     25      11.8773      0.00000
     26      11.8773      0.00000
     27      14.9341      0.00000
     28      16.5890      0.00000
     29      19.3530      0.00000
     30      19.3530      0.00000
     31      20.5229      0.00000
     32      20.5229      0.00000
     33      22.0279      0.00000
     34      22.4203      0.00000
     35      23.6312      0.00000
     36      24.1510      0.00000
     37      24.4126      0.00000
     38      25.3851      0.00000
     39      25.3851      0.00000
     40      26.3786      0.00000
     41      29.9619      0.00000
     42      30.9900      0.00000
     43      30.9900      0.00000
     44      31.4166      0.00000
     45      31.7927      0.00000
     46      31.8927      0.00000
     47      32.4865      0.00000
     48      32.5977      0.00000
     49      34.4142      0.00000
     50      34.4142      0.00000
     51      34.9666      0.00000
     52      35.0451      0.00000
     53      35.0451      0.00000
     54      36.0306      0.00000
     55      37.8818      0.00000
     56      37.8818      0.00000
     57      39.1609      0.00000
     58      39.1635      0.00000
     59      39.1635      0.00000
     60      40.6676      0.00000
     61      41.6481      0.00000
[...]
  --------------------------------------------------------------------------------
  x     0.00000    -0.00000     0.00000    -0.00000    -0.00000    -0.00000
  y     0.00000     0.00000    -0.00000     0.00000     0.00000    -0.00000
  z     0.00000     0.00000    -0.00000     0.00000    -0.00000     0.00000

 INTERNAL STRAIN TENSOR FOR ION    4 for displacements in x,y,z  (eV/Angst):
          X           Y           Z          XY          YZ          ZX
  --------------------------------------------------------------------------------
  x     0.00000     0.00000     0.00000     0.00000     0.00000     0.00000
  y     0.00000     0.00000    -0.00000    -0.00000    -0.00000     0.00000
  z    -0.00000     0.00000     0.00000    -0.00000     0.00000    -0.00000
 
 INTERNAL STRAIN TENSORS FROM DISPLACED ATOMS
 ============================================

 INTERNAL STRAIN TENSOR FOR ION    1 for displacements in x,y,z  (eV/Angst):
          X           Y           Z          XY          YZ          ZX
  --------------------------------------------------------------------------------
  x     0.00000     0.00000     0.00000     0.00000     0.00000     0.00000
  y     0.00000     0.00000     0.00000     0.00000     0.00000     0.00000
  z     0.00000     0.00000     0.00000     0.00000     0.00000     0.00000

 INTERNAL STRAIN TENSOR FOR ION    2 for displacements in x,y,z  (eV/Angst):
          X           Y           Z          XY          YZ          ZX
  --------------------------------------------------------------------------------
  x     0.00000     0.00000     0.00000     0.00000     0.00000     0.00000
  y     0.00000     0.00000     0.00000     0.00000     0.00000     0.00000
  z     0.00000     0.00000     0.00000     0.00000     0.00000     0.00000

 INTERNAL STRAIN TENSOR FOR ION    3 for displacements in x,y,z  (eV/Angst):
          X           Y           Z          XY          YZ          ZX
  --------------------------------------------------------------------------------
  x     0.00000     0.00000     0.00000     0.00000     0.00000     0.00000
  y     0.00000     0.00000     0.00000     0.00000     0.00000     0.00000
  z     0.00000     0.00000     0.00000     0.00000     0.00000     0.00000

 INTERNAL STRAIN TENSOR FOR ION    4 for displacements in x,y,z  (eV/Angst):
          X           Y           Z          XY          YZ          ZX
  --------------------------------------------------------------------------------
  x     0.00000     0.00000     0.00000     0.00000     0.00000     0.00000
  y     0.00000     0.00000     0.00000     0.00000     0.00000     0.00000
  z     0.00000     0.00000     0.00000     0.00000     0.00000     0.00000


--------------------------------------------------------------------------------------------------------


 
 Eigenvectors and eigenvalues of the dynamical matrix
 ----------------------------------------------------
 
 
   1 f  =    4.575025 THz    28.745727 2PiTHz  152.606390 cm-1    18.920788 meV
             X         Y         Z           dx          dy          dz
      0.000000  0.000000  0.000000    -0.499521    0.021761    0.002344  
      0.000000  2.075952  2.075952    -0.499521   -0.021761   -0.002344  
      2.075952  0.000000  2.075952     0.499521    0.021761   -0.002344  
      2.075952  2.075952  0.000000     0.499521   -0.021761    0.002344  
 
   2 f  =    4.575025 THz    28.745727 2PiTHz  152.606390 cm-1    18.920788 meV
             X         Y         Z           dx          dy          dz
      0.000000  0.000000  0.000000     0.006292    0.194077   -0.460754  
      0.000000  2.075952  2.075952     0.006292   -0.194077    0.460754  
      2.075952  0.000000  2.075952    -0.006292    0.194077    0.460754  
      2.075952  2.075952  0.000000    -0.006292   -0.194077   -0.460754  
 
   3 f  =    4.575025 THz    28.745727 2PiTHz  152.606390 cm-1    18.920788 meV
             X         Y         Z           dx          dy          dz
      0.000000  0.000000  0.000000     0.020963    0.460283    0.194164  
      0.000000  2.075952  2.075952     0.020963   -0.460283   -0.194164  
      2.075952  0.000000  2.075952    -0.020963    0.460283   -0.194164  
      2.075952  2.075952  0.000000    -0.020963   -0.460283    0.194164  
 
   4 f  =    3.113981 THz    19.565722 2PiTHz  103.871234 cm-1    12.878396 meV
             X         Y         Z           dx          dy          dz
      0.000000  0.000000  0.000000    -0.134222   -0.127103   -0.003607  
      0.000000  2.075952  2.075952     0.134222   -0.058293   -0.129099  
      2.075952  0.000000  2.075952     0.667646    0.127103    0.129099  
      2.075952  2.075952  0.000000    -0.667646    0.058293    0.003607  
 
   5 f  =    3.113981 THz    19.565722 2PiTHz  103.871234 cm-1    12.878396 meV
             X         Y         Z           dx          dy          dz
      0.000000  0.000000  0.000000     0.146856   -0.673969    0.000000  
      0.000000  2.075952  2.075952    -0.146856    0.016442    0.137564  
      2.075952  0.000000  2.075952    -0.070748    0.673969   -0.137564  
      2.075952  2.075952  0.000000     0.070748   -0.016442    0.000000  
 
   6 f  =    3.113981 THz    19.565722 2PiTHz  103.871234 cm-1    12.878396 meV
             X         Y         Z           dx          dy          dz
      0.000000  0.000000  0.000000    -0.553400   -0.160915    0.162746  
      0.000000  2.075952  2.075952     0.553400   -0.119034   -0.290078  
      2.075952  0.000000  2.075952    -0.207494    0.160915    0.290078  
      2.075952  2.075952  0.000000     0.207494    0.119034   -0.162746  
 
   7 f  =    3.113981 THz    19.565722 2PiTHz  103.871234 cm-1    12.878396 meV
             X         Y         Z           dx          dy          dz
      0.000000  0.000000  0.000000    -0.175128   -0.043915   -0.578789  
      0.000000  2.075952  2.075952     0.175128    0.351762   -0.087124  
      2.075952  0.000000  2.075952    -0.032829    0.043915    0.087124  
      2.075952  2.075952  0.000000     0.032829   -0.351762    0.578789  
 
   8 f  =    3.113981 THz    19.565722 2PiTHz  103.871234 cm-1    12.878396 meV
             X         Y         Z           dx          dy          dz
      0.000000  0.000000  0.000000     0.031661   -0.000838   -0.372161  
      0.000000  2.075952  2.075952    -0.031661   -0.598552    0.009897  
      2.075952  0.000000  2.075952    -0.046152    0.000838   -0.009897  
      2.075952  2.075952  0.000000     0.046152    0.598552    0.372161  
 
   9 f  =    3.113981 THz    19.565722 2PiTHz  103.871234 cm-1    12.878396 meV
             X         Y         Z           dx          dy          dz
      0.000000  0.000000  0.000000     0.349991   -0.042284    0.000000  
      0.000000  2.075952  2.075952    -0.349991    0.012691   -0.610390  
      2.075952  0.000000  2.075952    -0.054608    0.042284    0.610390  
      2.075952  2.075952  0.000000     0.054608   -0.012691    0.000000  
 
  10 f  =    0.000000 THz     0.000000 2PiTHz    0.000001 cm-1     0.000000 meV
             X         Y         Z           dx          dy          dz
      0.000000  0.000000  0.000000    -0.138274   -0.131673    0.462107  
      0.000000  2.075952  2.075952    -0.138274   -0.131673    0.462107  
      2.075952  0.000000  2.075952    -0.138274   -0.131673    0.462107  
      2.075952  2.075952  0.000000    -0.138274   -0.131673    0.462107  
 
  11 f  =    0.000000 THz     0.000000 2PiTHz    0.000001 cm-1     0.000000 meV
             X         Y         Z           dx          dy          dz
      0.000000  0.000000  0.000000    -0.473619    0.118439   -0.107971  
      0.000000  2.075952  2.075952    -0.473619    0.118439   -0.107971  
      2.075952  0.000000  2.075952    -0.473619    0.118439   -0.107971  
      2.075952  2.075952  0.000000    -0.473619    0.118439   -0.107971  
 
  12 f/i=    0.000000 THz     0.000000 2PiTHz    0.000001 cm-1     0.000000 meV
             X         Y         Z           dx          dy          dz
      0.000000  0.000000  0.000000     0.081029    0.467584    0.157479  
      0.000000  2.075952  2.075952     0.081029    0.467584    0.157479  
      2.075952  0.000000  2.075952     0.081029    0.467584    0.157479  
      2.075952  2.075952  0.000000     0.081029    0.467584    0.157479  
 


--------------------------------------------------------------------------------------------------------



 ELASTIC MODULI CONTR FROM IONIC RELAXATION (kBar)
 Direction    XX          YY          ZZ          XY          YZ          ZX
 --------------------------------------------------------------------------------
 XX          -0.0000      0.0000     -0.0000      0.0000     -0.0000      0.0000
 YY           0.0000      0.0000      0.0000      0.0000      0.0000      0.0000
 ZZ          -0.0000      0.0000     -0.0000      0.0000     -0.0000      0.0000
 XY           0.0000      0.0000      0.0000      0.0000      0.0000      0.0000
 YZ          -0.0000      0.0000     -0.0000      0.0000     -0.0000      0.0000
 ZX           0.0000      0.0000      0.0000      0.0000     -0.0000      0.0000
 --------------------------------------------------------------------------------


 TOTAL ELASTIC MODULI (kBar)
 Direction    XX          YY          ZZ          XY          YZ          ZX
 --------------------------------------------------------------------------------
 XX        1152.5177    759.5321    759.5321     -0.0000     -0.0000      0.0000
 YY         759.5321   1152.5177    759.5321     -0.0000      0.0000      0.0000
 ZZ         759.5321    759.5321   1152.5177     -0.0000     -0.0000     -0.0000
 XY          -0.0000     -0.0000     -0.0000    370.4424      0.0000      0.0000
 YZ          -0.0000      0.0000     -0.0000      0.0000    370.4424      0.0000
 ZX           0.0000      0.0000     -0.0000      0.0000     -0.0000    370.4424
 --------------------------------------------------------------------------------



--------------------------------------------------------------------------------------------------------


  LATTYP: Found a simple cubic cell.
 ALAT       =     4.1519046999
  
  Lattice vectors:
  
 A1 = (   4.1519046999,   0.0000000000,   0.0000000000)
 A2 = (   0.0000000000,   4.1519046999,   0.0000000000)
 A3 = (   0.0000000000,   0.0000000000,   4.1519046999)


Analysis of symmetry for initial positions (statically):
=====================================================================
 Subroutine PRICEL returns following result:
 
  LATTYP: Found a face centered cubic cell.
 ALAT       =     4.1519046999
  
  Lattice vectors:
  
 A1 = (   2.0759523499,   2.0759523499,  -0.0000000000)
 A2 = (   2.0759523499,   0.0000000000,  -2.0759523499)
 A3 = (   0.0000000000,   2.0759523499,  -2.0759523499)
 
   4 primitive cells build up your supercell.
 

 Routine SETGRP: Setting up the symmetry group for a 
 simple cubic supercell.


 Subroutine GETGRP returns: Found 48 space group operations
 (whereof 48 operations were pure point group operations)
 out of a pool of 48 trial point group operations.


The static configuration has the point symmetry O_h .


Analysis of symmetry for dynamics (positions and initial velocities):
=====================================================================
 Subroutine PRICEL returns following result:
 
  LATTYP: Found a face centered cubic cell.
 ALAT       =     4.1519046999
  
  Lattice vectors:
  
 A1 = (   2.0759523499,   2.0759523499,  -0.0000000000)
 A2 = (   2.0759523499,   0.0000000000,  -2.0759523499)
 A3 = (   0.0000000000,   2.0759523499,  -2.0759523499)
 
   4 primitive cells build up your supercell.
 

 Routine SETGRP: Setting up the symmetry group for a 
 simple cubic supercell.


 Subroutine GETGRP returns: Found 48 space group operations
 (whereof 48 operations were pure point group operations)
 out of a pool of 48 trial point group operations.


The dynamic configuration has the point symmetry O_h .


 Subroutine INISYM returns: Found 48 space group operations
 (whereof 48 operations are pure point group operations),
 and found     4 'primitive' translations

 
 KPOINTS: pymatgen with grid density = 882 / numbe

Automatic generation of k-mesh.
Space group operators:
 irot       det(A)        alpha          n_x          n_y          n_z        tau_x        tau_y        tau_z
    1     1.000000     0.000000     1.000000     0.000000     0.000000     0.000000     0.000000     0.000000
    2    -1.000000     0.000000     1.000000     0.000000     0.000000     0.000000     0.000000     0.000000
    3     1.000000   120.000000    -0.577350    -0.577350    -0.577350     0.000000     0.000000     0.000000
    4    -1.000000   120.000000    -0.577350    -0.577350    -0.577350     0.000000     0.000000     0.000000
    5     1.000000   120.000000     0.577350     0.577350     0.577350     0.000000     0.000000     0.000000
    6    -1.000000   120.000000     0.577350     0.577350     0.577350     0.000000     0.000000     0.000000
    7     1.000000    90.000000     0.000000     0.000000    -1.000000     0.000000     0.000000     0.000000
    8    -1.000000    90.000000     0.000000     0.000000    -1.000000     0.000000     0.000000     0.000000
    9     1.000000   180.000000     0.000000     0.707107     0.707107     0.000000     0.000000     0.000000
   10    -1.000000   180.000000     0.000000     0.707107     0.707107     0.000000     0.000000     0.000000
   11     1.000000    90.000000     0.000000     1.000000     0.000000     0.000000     0.000000     0.000000
   12    -1.000000    90.000000     0.000000     1.000000     0.000000     0.000000     0.000000     0.000000
   13     1.000000   180.000000     0.000000     0.000000     1.000000     0.000000     0.000000     0.000000
   14    -1.000000   180.000000     0.000000     0.000000     1.000000     0.000000     0.000000     0.000000
   15     1.000000   120.000000    -0.577350     0.577350     0.577350     0.000000     0.000000     0.000000
   16    -1.000000   120.000000    -0.577350     0.577350     0.577350     0.000000     0.000000     0.000000
   17     1.000000   120.000000    -0.577350     0.577350    -0.577350     0.000000     0.000000     0.000000
   18    -1.000000   120.000000    -0.577350     0.577350    -0.577350     0.000000     0.000000     0.000000
   19     1.000000    90.000000     0.000000     0.000000     1.000000     0.000000     0.000000     0.000000
   20    -1.000000    90.000000     0.000000     0.000000     1.000000     0.000000     0.000000     0.000000
   21     1.000000    90.000000    -1.000000     0.000000     0.000000     0.000000     0.000000     0.000000
   22    -1.000000    90.000000    -1.000000     0.000000     0.000000     0.000000     0.000000     0.000000
   23     1.000000   180.000000     0.707107     0.000000     0.707107     0.000000     0.000000     0.000000
   24    -1.000000   180.000000     0.707107     0.000000     0.707107     0.000000     0.000000     0.000000
   25     1.000000   120.000000     0.577350    -0.577350     0.577350     0.000000     0.000000     0.000000
   26    -1.000000   120.000000     0.577350    -0.577350     0.577350     0.000000     0.000000     0.000000
   27     1.000000   120.000000    -0.577350    -0.577350     0.577350     0.000000     0.000000     0.000000
   28    -1.000000   120.000000    -0.577350    -0.577350     0.577350     0.000000     0.000000     0.000000
   29     1.000000   180.000000     1.000000     0.000000     0.000000     0.000000     0.000000     0.000000
   30    -1.000000   180.000000     1.000000     0.000000     0.000000     0.000000     0.000000     0.000000
   31     1.000000    90.000000     0.000000    -1.000000     0.000000     0.000000     0.000000     0.000000
   32    -1.000000    90.000000     0.000000    -1.000000     0.000000     0.000000     0.000000     0.000000
   33     1.000000   180.000000     0.707107     0.707107     0.000000     0.000000     0.000000     0.000000
   34    -1.000000   180.000000     0.707107     0.707107     0.000000     0.000000     0.000000     0.000000
   35     1.000000    90.000000     1.000000     0.000000     0.000000     0.000000     0.000000     0.000000
   36    -1.000000    90.000000     1.000000     0.000000     0.000000     0.000000     0.000000     0.000000
   37     1.000000   120.000000     0.577350    -0.577350    -0.577350     0.000000     0.000000     0.000000
   38    -1.000000   120.000000     0.577350    -0.577350    -0.577350     0.000000     0.000000     0.000000
   39     1.000000   180.000000     0.000000     1.000000     0.000000     0.000000     0.000000     0.000000
   40    -1.000000   180.000000     0.000000     1.000000     0.000000     0.000000     0.000000     0.000000
   41     1.000000   120.000000     0.577350     0.577350    -0.577350     0.000000     0.000000     0.000000
   42    -1.000000   120.000000     0.577350     0.577350    -0.577350     0.000000     0.000000     0.000000
   43     1.000000   180.000000     0.000000    -0.707107     0.707107     0.000000     0.000000     0.000000
   44    -1.000000   180.000000     0.000000    -0.707107     0.707107     0.000000     0.000000     0.000000
   45     1.000000   180.000000     0.707107    -0.707107     0.000000     0.000000     0.000000     0.000000
   46    -1.000000   180.000000     0.707107    -0.707107     0.000000     0.000000     0.000000     0.000000
   47     1.000000   180.000000     0.707107     0.000000    -0.707107     0.000000     0.000000     0.000000
   48    -1.000000   180.000000     0.707107     0.000000    -0.707107     0.000000     0.000000     0.000000
 
 Subroutine IBZKPT returns following result:
 ===========================================
 
 Found     10 irreducible k-points:
 
 Following reciprocal coordinates:
            Coordinates               Weight
  0.083333  0.083333  0.083333      8.000000
  0.250000  0.083333  0.083333     24.000000
  0.416667  0.083333  0.083333     24.000000
  0.250000  0.250000  0.083333     24.000000
  0.416667  0.250000  0.083333     48.000000
  0.416667  0.416667  0.083333     24.000000
  0.250000  0.250000  0.250000      8.000000
  0.416667  0.250000  0.250000     24.000000
  0.416667  0.416667  0.250000     24.000000
  0.416667  0.416667  0.416667      8.000000
 
 Following cartesian coordinates:
            Coordinates               Weight
  0.020071  0.020071  0.020071      8.000000
  0.060213  0.020071  0.020071     24.000000
  0.100356  0.020071  0.020071     24.000000
  0.060213  0.060213  0.020071     24.000000
  0.100356  0.060213  0.020071     48.000000
  0.100356  0.100356  0.020071     24.000000
  0.060213  0.060213  0.060213      8.000000
  0.100356  0.060213  0.060213     24.000000
  0.100356  0.100356  0.060213     24.000000
  0.100356  0.100356  0.100356      8.000000
 
 writing wavefunctions
     LOOP+:  cpu time   17.9646: real time   20.1863
    4ORBIT:  cpu time    0.0000: real time    0.0000

 total amount of memory used by VASP MPI-rank0    34210. kBytes
=======================================================================

   base      :      30000. kBytes
   nonl-proj :       2983. kBytes
   fftplans  :        153. kBytes
   grid      :        675. kBytes
   one-center:         62. kBytes
   wavefun   :        337. kBytes
 
  
  
 General timing and accounting informations for this job:
 ========================================================
  
                  Total CPU time used (sec):      957.590
                            User time (sec):      559.032
                          System time (sec):      398.558
                         Elapsed time (sec):     1059.542
  
                   Maximum memory used (kb):      488880.
                   Average memory used (kb):           0.
  
                          Minor page faults:       306627
                          Major page faults:          103
                 Voluntary context switches:         2073
