  28  28   1   0
  0.1027182E+02  0.4679933E-09  0.5969905E-09  0.1029434E-08  0.5000000E-15
  1.000000000000000E-004
  CAR 
 unknown system                          
     19.75030916    -53.80633457  301      6.24449350      1.00000000
    -53.806  0.0000E+00  0.0000E+00  0.0000E+00  0.0000E+00
    -53.561  0.0000E+00  0.0000E+00  0.0000E+00  0.0000E+00
    -53.316  0.0000E+00  0.0000E+00  0.0000E+00  0.0000E+00
    -53.071  0.0000E+00  0.0000E+00  0.0000E+00  0.0000E+00
    -52.826  0.0000E+00  0.0000E+00  0.0000E+00  0.0000E+00
    -52.580  0.0000E+00  0.0000E+00  0.0000E+00  0.0000E+00
    -52.335  0.0000E+00  0.0000E+00  0.0000E+00  0.0000E+00
    -52.090  0.0000E+00  0.0000E+00  0.0000E+00  0.0000E+00
    -51.845  0.0000E+00  0.0000E+00  0.0000E+00  0.0000E+00
    -51.600  0.0000E+00  0.0000E+00  0.0000E+00  0.0000E+00
    -51.354  0.0000E+00  0.0000E+00  0.0000E+00  0.0000E+00
    -51.109  0.0000E+00  0.0000E+00  0.0000E+00  0.0000E+00
    -50.864  0.5241E-02  0.0000E+00  0.1285E-02  0.0000E+00
    -50.619  0.6722E+00  0.0000E+00  0.1661E+00  0.0000E+00
    -50.374  0.1325E+02  0.0000E+00  0.3415E+01  0.0000E+00
    -50.129  0.2365E+01  0.0000E+00  0.3995E+01  0.0000E+00
    -49.883  0.3987E-01  0.0000E+00  0.4010E+01  0.0000E+00
    -49.638  0.4033E+01  0.0000E+00  0.4999E+01  0.0000E+00
    -49.393  0.1194E+02  0.0000E+00  0.7925E+01  0.0000E+00
    -49.148  0.4804E+01  0.0000E+00  0.9190E+01  0.0000E+00
    -48.903  0.1118E+02  0.0000E+00  0.1193E+02  0.0000E+00
    -48.657  0.0000E+00  0.0000E+00  0.1200E+02  0.0000E+00
    -48.412  0.0000E+00  0.0000E+00  0.1200E+02  0.0000E+00
    -48.167  0.0000E+00  0.0000E+00  0.1200E+02  0.0000E+00
    -47.922  0.0000E+00  0.0000E+00  0.1200E+02  0.0000E+00
    -47.677  0.0000E+00  0.0000E+00  0.1200E+02  0.0000E+00
    -47.431  0.0000E+00  0.0000E+00  0.1200E+02  0.0000E+00
    -47.186  0.0000E+00  0.0000E+00  0.1200E+02  0.0000E+00
    -46.941  0.0000E+00  0.0000E+00  0.1200E+02  0.0000E+00
    -46.696  0.0000E+00  0.0000E+00  0.1200E+02  0.0000E+00
    -46.451  0.0000E+00  0.4808E-03  0.1200E+02  0.1179E-03
    -46.205  0.0000E+00  0.6435E-01  0.1200E+02  0.1589E-01
    -45.960  0.0000E+00  0.5662E+01  0.1200E+02  0.1404E+01
    -45.715  0.0000E+00  0.1428E+02  0.1200E+02  0.4906E+01
    -45.470  0.0000E+00  0.1961E+02  0.1200E+02  0.9767E+01
    -45.225  0.0000E+00  0.8580E+01  0.1200E+02  0.1197E+02
    -44.980  0.0000E+00  0.0000E+00  0.1200E+02  0.1200E+02
    -44.734  0.0000E+00  0.0000E+00  0.1200E+02  0.1200E+02
    -44.489  0.0000E+00  0.0000E+00  0.1200E+02  0.1200E+02
    -44.244  0.0000E+00  0.0000E+00  0.1200E+02  0.1200E+02
    -43.999  0.0000E+00  0.0000E+00  0.1200E+02  0.1200E+02
    -43.754  0.0000E+00  0.0000E+00  0.1200E+02  0.1200E+02
    -43.508  0.0000E+00  0.0000E+00  0.1200E+02  0.1200E+02
    -43.263  0.0000E+00  0.0000E+00  0.1200E+02  0.1200E+02
    -43.018  0.0000E+00  0.0000E+00  0.1200E+02  0.1200E+02
    -42.773  0.0000E+00  0.0000E+00  0.1200E+02  0.1200E+02
    -42.528  0.0000E+00  0.0000E+00  0.1200E+02  0.1200E+02
    -42.282  0.0000E+00  0.0000E+00  0.1200E+02  0.1200E+02
    -42.037  0.0000E+00  0.0000E+00  0.1200E+02  0.1200E+02
    -41.792  0.0000E+00  0.0000E+00  0.1200E+02  0.1200E+02
    -41.547  0.0000E+00  0.0000E+00  0.1200E+02  0.1200E+02
    -41.302  0.0000E+00  0.0000E+00  0.1200E+02  0.1200E+02
    -41.057  0.0000E+00  0.0000E+00  0.1200E+02  0.1200E+02
    -40.811  0.0000E+00  0.0000E+00  0.1200E+02  0.1200E+02
    -40.566  0.0000E+00  0.0000E+00  0.1200E+02  0.1200E+02
    -40.321  0.1278E-02  0.1269E-02  0.1200E+02  0.1200E+02
    -40.076  0.1692E+00  0.1680E+00  0.1204E+02  0.1204E+02
    -39.831  0.9400E+01  0.9372E+01  0.1435E+02  0.1434E+02
    -39.585  0.6658E+01  0.6687E+01  0.1598E+02  0.1598E+02
    -39.340  0.0000E+00  0.0000E+00  0.1600E+02  0.1600E+02
    -39.095  0.0000E+00  0.0000E+00  0.1600E+02  0.1600E+02
    -38.850  0.0000E+00  0.0000E+00  0.1600E+02  0.1600E+02
    -38.605  0.0000E+00  0.0000E+00  0.1600E+02  0.1600E+02
    -38.359  0.0000E+00  0.0000E+00  0.1600E+02  0.1600E+02
    -38.114  0.0000E+00  0.0000E+00  0.1600E+02  0.1600E+02
    -37.869  0.0000E+00  0.0000E+00  0.1600E+02  0.1600E+02
    -37.624  0.0000E+00  0.0000E+00  0.1600E+02  0.1600E+02
    -37.379  0.0000E+00  0.0000E+00  0.1600E+02  0.1600E+02
    -37.133  0.0000E+00  0.0000E+00  0.1600E+02  0.1600E+02
    -36.888  0.0000E+00  0.0000E+00  0.1600E+02  0.1600E+02
    -36.643  0.0000E+00  0.0000E+00  0.1600E+02  0.1600E+02
    -36.398  0.0000E+00  0.0000E+00  0.1600E+02  0.1600E+02
    -36.153  0.0000E+00  0.0000E+00  0.1600E+02  0.1600E+02
    -35.908  0.0000E+00  0.0000E+00  0.1600E+02  0.1600E+02
    -35.662  0.0000E+00  0.0000E+00  0.1600E+02  0.1600E+02
    -35.417  0.0000E+00  0.0000E+00  0.1600E+02  0.1600E+02
    -35.172  0.0000E+00  0.0000E+00  0.1600E+02  0.1600E+02
    -34.927  0.0000E+00  0.0000E+00  0.1600E+02  0.1600E+02
    -34.682  0.0000E+00  0.0000E+00  0.1600E+02  0.1600E+02
    -34.436  0.0000E+00  0.0000E+00  0.1600E+02  0.1600E+02
    -34.191  0.0000E+00  0.0000E+00  0.1600E+02  0.1600E+02
    -33.946  0.0000E+00  0.0000E+00  0.1600E+02  0.1600E+02
    -33.701  0.0000E+00  0.0000E+00  0.1600E+02  0.1600E+02
    -33.456  0.0000E+00  0.0000E+00  0.1600E+02  0.1600E+02
    -33.210  0.0000E+00  0.0000E+00  0.1600E+02  0.1600E+02
    -32.965  0.0000E+00  0.0000E+00  0.1600E+02  0.1600E+02
    -32.720  0.0000E+00  0.0000E+00  0.1600E+02  0.1600E+02
    -32.475  0.0000E+00  0.0000E+00  0.1600E+02  0.1600E+02
    -32.230  0.0000E+00  0.0000E+00  0.1600E+02  0.1600E+02
    -31.985  0.0000E+00  0.0000E+00  0.1600E+02  0.1600E+02
    -31.739  0.0000E+00  0.0000E+00  0.1600E+02  0.1600E+02
    -31.494  0.0000E+00  0.0000E+00  0.1600E+02  0.1600E+02
    -31.249  0.0000E+00  0.0000E+00  0.1600E+02  0.1600E+02
    -31.004  0.0000E+00  0.0000E+00  0.1600E+02  0.1600E+02
    -30.759  0.0000E+00  0.0000E+00  0.1600E+02  0.1600E+02
    -30.513  0.0000E+00  0.0000E+00  0.1600E+02  0.1600E+02
    -30.268  0.0000E+00  0.0000E+00  0.1600E+02  0.1600E+02
    -30.023  0.0000E+00  0.0000E+00  0.1600E+02  0.1600E+02
    -29.778  0.0000E+00  0.0000E+00  0.1600E+02  0.1600E+02
    -29.533  0.0000E+00  0.0000E+00  0.1600E+02  0.1600E+02
    -29.287  0.0000E+00  0.0000E+00  0.1600E+02  0.1600E+02
    -29.042  0.0000E+00  0.0000E+00  0.1600E+02  0.1600E+02
    -28.797  0.0000E+00  0.0000E+00  0.1600E+02  0.1600E+02
    -28.552  0.0000E+00  0.0000E+00  0.1600E+02  0.1600E+02
    -28.307  0.0000E+00  0.0000E+00  0.1600E+02  0.1600E+02
    -28.062  0.0000E+00  0.0000E+00  0.1600E+02  0.1600E+02
    -27.816  0.0000E+00  0.0000E+00  0.1600E+02  0.1600E+02
    -27.571  0.0000E+00  0.0000E+00  0.1600E+02  0.1600E+02
    -27.326  0.0000E+00  0.0000E+00  0.1600E+02  0.1600E+02
    -27.081  0.0000E+00  0.0000E+00  0.1600E+02  0.1600E+02
    -26.836  0.0000E+00  0.0000E+00  0.1600E+02  0.1600E+02
    -26.590  0.0000E+00  0.0000E+00  0.1600E+02  0.1600E+02
    -26.345  0.0000E+00  0.0000E+00  0.1600E+02  0.1600E+02
    -26.100  0.0000E+00  0.0000E+00  0.1600E+02  0.1600E+02
    -25.855  0.0000E+00  0.0000E+00  0.1600E+02  0.1600E+02
    -25.610  0.0000E+00  0.0000E+00  0.1600E+02  0.1600E+02
    -25.364  0.0000E+00  0.0000E+00  0.1600E+02  0.1600E+02
    -25.119  0.0000E+00  0.0000E+00  0.1600E+02  0.1600E+02
    -24.874  0.0000E+00  0.0000E+00  0.1600E+02  0.1600E+02
    -24.629  0.0000E+00  0.0000E+00  0.1600E+02  0.1600E+02
    -24.384  0.0000E+00  0.0000E+00  0.1600E+02  0.1600E+02
    -24.138  0.0000E+00  0.0000E+00  0.1600E+02  0.1600E+02
    -23.893  0.0000E+00  0.0000E+00  0.1600E+02  0.1600E+02
    -23.648  0.0000E+00  0.0000E+00  0.1600E+02  0.1600E+02
    -23.403  0.0000E+00  0.0000E+00  0.1600E+02  0.1600E+02
    -23.158  0.0000E+00  0.0000E+00  0.1600E+02  0.1600E+02
    -22.913  0.0000E+00  0.0000E+00  0.1600E+02  0.1600E+02
    -22.667  0.0000E+00  0.0000E+00  0.1600E+02  0.1600E+02
    -22.422  0.0000E+00  0.0000E+00  0.1600E+02  0.1600E+02
    -22.177  0.0000E+00  0.0000E+00  0.1600E+02  0.1600E+02
    -21.932  0.0000E+00  0.0000E+00  0.1600E+02  0.1600E+02
    -21.687  0.0000E+00  0.0000E+00  0.1600E+02  0.1600E+02
    -21.441  0.0000E+00  0.0000E+00  0.1600E+02  0.1600E+02
    -21.196  0.0000E+00  0.0000E+00  0.1600E+02  0.1600E+02
    -20.951  0.0000E+00  0.0000E+00  0.1600E+02  0.1600E+02
    -20.706  0.0000E+00  0.0000E+00  0.1600E+02  0.1600E+02
    -20.461  0.0000E+00  0.0000E+00  0.1600E+02  0.1600E+02
    -20.215  0.0000E+00  0.0000E+00  0.1600E+02  0.1600E+02
    -19.970  0.0000E+00  0.0000E+00  0.1600E+02  0.1600E+02
    -19.725  0.0000E+00  0.0000E+00  0.1600E+02  0.1600E+02
    -19.480  0.0000E+00  0.0000E+00  0.1600E+02  0.1600E+02
    -19.235  0.0000E+00  0.0000E+00  0.1600E+02  0.1600E+02
    -18.990  0.0000E+00  0.0000E+00  0.1600E+02  0.1600E+02
    -18.744  0.0000E+00  0.0000E+00  0.1600E+02  0.1600E+02
    -18.499  0.0000E+00  0.0000E+00  0.1600E+02  0.1600E+02
    -18.254  0.2120E-04  0.9404E-06  0.1600E+02  0.1600E+02
    -18.009  0.3608E-02  0.4716E-03  0.1600E+02  0.1600E+02
    -17.764  0.4015E+00  0.6207E-01  0.1610E+02  0.1602E+02
    -17.518  0.6425E+01  0.2840E+01  0.1767E+02  0.1671E+02
    -17.273  0.8681E+01  0.1011E+02  0.1981E+02  0.1919E+02
    -17.028  0.6683E+00  0.3145E+01  0.2000E+02  0.1999E+02
    -16.783  0.0000E+00  0.0000E+00  0.2000E+02  0.2000E+02
    -16.538  0.0000E+00  0.0000E+00  0.2000E+02  0.2000E+02
    -16.292  0.0000E+00  0.0000E+00  0.2000E+02  0.2000E+02
    -16.047  0.0000E+00  0.0000E+00  0.2000E+02  0.2000E+02
    -15.802  0.0000E+00  0.0000E+00  0.2000E+02  0.2000E+02
    -15.557  0.1010E-02  0.1260E-03  0.2000E+02  0.2000E+02
    -15.312  0.1352E+00  0.1831E-01  0.2003E+02  0.2000E+02
    -15.067  0.7276E+01  0.1884E+01  0.2182E+02  0.2047E+02
    -14.821  0.2537E+02  0.1756E+02  0.2804E+02  0.2477E+02
    -14.576  0.1520E+02  0.2456E+02  0.3181E+02  0.3082E+02
    -14.331  0.5785E+00  0.4474E+01  0.3200E+02  0.3199E+02
    -14.086  0.0000E+00  0.0000E+00  0.3200E+02  0.3200E+02
    -13.841  0.0000E+00  0.0000E+00  0.3200E+02  0.3200E+02
    -13.595  0.0000E+00  0.0000E+00  0.3200E+02  0.3200E+02
    -13.350  0.0000E+00  0.0000E+00  0.3200E+02  0.3200E+02
    -13.105  0.0000E+00  0.0000E+00  0.3200E+02  0.3200E+02
    -12.860  0.0000E+00  0.0000E+00  0.3200E+02  0.3200E+02
    -12.615  0.0000E+00  0.0000E+00  0.3200E+02  0.3200E+02
    -12.369  0.0000E+00  0.0000E+00  0.3200E+02  0.3200E+02
    -12.124  0.0000E+00  0.0000E+00  0.3200E+02  0.3200E+02
    -11.879  0.0000E+00  0.0000E+00  0.3200E+02  0.3200E+02
    -11.634  0.0000E+00  0.0000E+00  0.3200E+02  0.3200E+02
    -11.389  0.0000E+00  0.0000E+00  0.3200E+02  0.3200E+02
    -11.143  0.0000E+00  0.0000E+00  0.3200E+02  0.3200E+02
    -10.898  0.0000E+00  0.0000E+00  0.3200E+02  0.3200E+02
    -10.653  0.0000E+00  0.0000E+00  0.3200E+02  0.3200E+02
    -10.408  0.0000E+00  0.0000E+00  0.3200E+02  0.3200E+02
    -10.163  0.0000E+00  0.0000E+00  0.3200E+02  0.3200E+02
     -9.918  0.0000E+00  0.0000E+00  0.3200E+02  0.3200E+02
     -9.672  0.0000E+00  0.0000E+00  0.3200E+02  0.3200E+02
     -9.427  0.0000E+00  0.0000E+00  0.3200E+02  0.3200E+02
     -9.182  0.0000E+00  0.0000E+00  0.3200E+02  0.3200E+02
     -8.937  0.0000E+00  0.0000E+00  0.3200E+02  0.3200E+02
     -8.692  0.0000E+00  0.0000E+00  0.3200E+02  0.3200E+02
     -8.446  0.0000E+00  0.0000E+00  0.3200E+02  0.3200E+02
     -8.201  0.0000E+00  0.0000E+00  0.3200E+02  0.3200E+02
     -7.956  0.0000E+00  0.0000E+00  0.3200E+02  0.3200E+02
     -7.711  0.0000E+00  0.0000E+00  0.3200E+02  0.3200E+02
     -7.466  0.0000E+00  0.0000E+00  0.3200E+02  0.3200E+02
     -7.220  0.0000E+00  0.0000E+00  0.3200E+02  0.3200E+02
     -6.975  0.0000E+00  0.0000E+00  0.3200E+02  0.3200E+02
     -6.730  0.0000E+00  0.0000E+00  0.3200E+02  0.3200E+02
     -6.485  0.0000E+00  0.0000E+00  0.3200E+02  0.3200E+02
     -6.240  0.0000E+00  0.0000E+00  0.3200E+02  0.3200E+02
     -5.995  0.0000E+00  0.0000E+00  0.3200E+02  0.3200E+02
     -5.749  0.0000E+00  0.0000E+00  0.3200E+02  0.3200E+02
     -5.504  0.5424E-05  0.0000E+00  0.3200E+02  0.3200E+02
     -5.259  0.9302E-03  0.3362E-04  0.3200E+02  0.3200E+02
     -5.014  0.1090E+00  0.4757E-02  0.3203E+02  0.3200E+02
     -4.769  0.1870E+01  0.3867E+00  0.3249E+02  0.3210E+02
     -4.523  0.5990E+01  0.2952E+01  0.3396E+02  0.3282E+02
     -4.278  0.7677E+01  0.7984E+01  0.3585E+02  0.3478E+02
     -4.033  0.5067E+00  0.4816E+01  0.3600E+02  0.3597E+02
     -3.788  0.2586E-03  0.1841E-01  0.3600E+02  0.3600E+02
     -3.543  0.3126E-01  0.5790E-03  0.3601E+02  0.3600E+02
     -3.297  0.6376E+00  0.6267E-01  0.3616E+02  0.3602E+02
     -3.052  0.2461E+01  0.8395E+00  0.3677E+02  0.3622E+02
     -2.807  0.4792E+01  0.2904E+01  0.3795E+02  0.3693E+02
     -2.562  0.8622E+01  0.5285E+01  0.4007E+02  0.3823E+02
     -2.317  0.9242E+01  0.9919E+01  0.4235E+02  0.4068E+02
     -2.071  0.9531E+01  0.8794E+01  0.4471E+02  0.4286E+02
     -1.826  0.1051E+02  0.1093E+02  0.4731E+02  0.4555E+02
     -1.581  0.2420E+01  0.8512E+01  0.4793E+02  0.4765E+02
     -1.336  0.4957E+00  0.1184E+01  0.4806E+02  0.4799E+02
     -1.091  0.2898E+01  0.9588E-01  0.4877E+02  0.4802E+02
     -0.846  0.6088E+01  0.2013E+01  0.5027E+02  0.4851E+02
     -0.600  0.7480E+01  0.5458E+01  0.5211E+02  0.4985E+02
     -0.355  0.1160E+02  0.7250E+01  0.5497E+02  0.5164E+02
     -0.110  0.1008E+02  0.9923E+01  0.5746E+02  0.5408E+02
      0.135  0.7765E+01  0.1082E+02  0.5939E+02  0.5675E+02
      0.380  0.9191E+01  0.8784E+01  0.6166E+02  0.5893E+02
      0.626  0.1048E+02  0.9800E+01  0.6424E+02  0.6136E+02
      0.871  0.1132E+02  0.8746E+01  0.6704E+02  0.6352E+02
      1.116  0.5726E+01  0.9093E+01  0.6847E+02  0.6577E+02
      1.361  0.8650E+01  0.9345E+01  0.7061E+02  0.6808E+02
      1.606  0.1414E+02  0.5236E+01  0.7409E+02  0.6939E+02
      1.852  0.1043E+02  0.1086E+02  0.7668E+02  0.7206E+02
      2.097  0.7731E+01  0.1417E+02  0.7860E+02  0.7555E+02
      2.342  0.4041E+01  0.9277E+01  0.7961E+02  0.7786E+02
      2.587  0.2008E+01  0.5794E+01  0.8012E+02  0.7931E+02
      2.832  0.8528E+01  0.2662E+01  0.8221E+02  0.7997E+02
      3.077  0.9406E+01  0.5407E-01  0.8452E+02  0.8000E+02
      3.323  0.8640E+01  0.0000E+00  0.8666E+02  0.8000E+02
      3.568  0.6067E+01  0.0000E+00  0.8817E+02  0.8000E+02
      3.813  0.1107E+02  0.0000E+00  0.9090E+02  0.8000E+02
      4.058  0.1392E+02  0.0000E+00  0.9433E+02  0.8000E+02
      4.303  0.6217E+01  0.0000E+00  0.9590E+02  0.8000E+02
      4.549  0.5951E+01  0.0000E+00  0.9737E+02  0.8000E+02
      4.794  0.9518E+01  0.0000E+00  0.9971E+02  0.8000E+02
      5.039  0.1076E+01  0.0000E+00  0.1000E+03  0.8000E+02
      5.284  0.0000E+00  0.0000E+00  0.1000E+03  0.8000E+02
      5.529  0.0000E+00  0.4934E-03  0.1000E+03  0.8000E+02
      5.775  0.0000E+00  0.6539E-01  0.1000E+03  0.8002E+02
      6.020  0.0000E+00  0.4636E+01  0.1000E+03  0.8115E+02
      6.265  0.0000E+00  0.1210E+02  0.1000E+03  0.8412E+02
      6.510  0.0000E+00  0.1267E+02  0.1000E+03  0.8729E+02
      6.755  0.0000E+00  0.1603E+02  0.1000E+03  0.9124E+02
      7.000  0.0000E+00  0.3029E+01  0.1000E+03  0.9200E+02
      7.246  0.0000E+00  0.3567E+01  0.1000E+03  0.9289E+02
      7.491  0.0000E+00  0.8730E+01  0.1000E+03  0.9503E+02
      7.736  0.7639E-05  0.5691E+01  0.1000E+03  0.9645E+02
      7.981  0.1029E-02  0.9858E+01  0.1000E+03  0.9888E+02
      8.226  0.4637E-01  0.4430E+01  0.1000E+03  0.9998E+02
      8.472  0.1819E+00  0.4302E-02  0.1001E+03  0.1000E+03
      8.717  0.2878E+00  0.8867E-01  0.1001E+03  0.1000E+03
      8.962  0.3891E+00  0.2267E+00  0.1002E+03  0.1001E+03
      9.207  0.5418E+00  0.3552E+00  0.1004E+03  0.1002E+03
      9.452  0.6289E+00  0.4549E+00  0.1005E+03  0.1003E+03
      9.698  0.8873E+00  0.6179E+00  0.1007E+03  0.1004E+03
      9.943  0.1120E+01  0.7803E+00  0.1010E+03  0.1006E+03
     10.188  0.1521E+01  0.1019E+01  0.1014E+03  0.1009E+03
     10.433  0.1513E+01  0.1476E+01  0.1018E+03  0.1012E+03
     10.678  0.2255E+01  0.1624E+01  0.1023E+03  0.1016E+03
     10.924  0.4033E+01  0.2058E+01  0.1033E+03  0.1021E+03
     11.169  0.3700E+01  0.3600E+01  0.1042E+03  0.1030E+03
     11.414  0.3264E+01  0.3969E+01  0.1050E+03  0.1040E+03
     11.659  0.5513E+01  0.3327E+01  0.1064E+03  0.1048E+03
     11.904  0.5781E+01  0.5702E+01  0.1078E+03  0.1062E+03
     12.149  0.5023E+01  0.5988E+01  0.1091E+03  0.1077E+03
     12.395  0.5222E+01  0.4095E+01  0.1103E+03  0.1087E+03
     12.640  0.4969E+01  0.4261E+01  0.1116E+03  0.1098E+03
     12.885  0.6626E+01  0.6008E+01  0.1132E+03  0.1113E+03
     13.130  0.6144E+01  0.5952E+01  0.1147E+03  0.1128E+03
     13.375  0.5005E+01  0.6858E+01  0.1160E+03  0.1144E+03
     13.621  0.4739E+01  0.5797E+01  0.1171E+03  0.1159E+03
     13.866  0.3562E+01  0.5003E+01  0.1180E+03  0.1171E+03
     14.111  0.3903E+01  0.3224E+01  0.1190E+03  0.1179E+03
     14.356  0.6301E+01  0.3742E+01  0.1205E+03  0.1189E+03
     14.601  0.5236E+01  0.5807E+01  0.1218E+03  0.1203E+03
     14.847  0.5606E+01  0.5321E+01  0.1232E+03  0.1216E+03
     15.092  0.4122E+01  0.6198E+01  0.1243E+03  0.1231E+03
     15.337  0.4740E+01  0.4423E+01  0.1254E+03  0.1242E+03
     15.582  0.4941E+01  0.4070E+01  0.1266E+03  0.1252E+03
     15.827  0.3695E+01  0.4331E+01  0.1276E+03  0.1263E+03
     16.072  0.1538E+01  0.4025E+01  0.1280E+03  0.1273E+03
     16.318  0.1788E+00  0.2375E+01  0.1280E+03  0.1279E+03
     16.563  0.0000E+00  0.3780E+00  0.1280E+03  0.1280E+03
     16.808  0.0000E+00  0.0000E+00  0.1280E+03  0.1280E+03
     17.053  0.0000E+00  0.0000E+00  0.1280E+03  0.1280E+03
     17.298  0.0000E+00  0.0000E+00  0.1280E+03  0.1280E+03
     17.544  0.0000E+00  0.0000E+00  0.1280E+03  0.1280E+03
     17.789  0.0000E+00  0.0000E+00  0.1280E+03  0.1280E+03
     18.034  0.0000E+00  0.0000E+00  0.1280E+03  0.1280E+03
     18.279  0.0000E+00  0.0000E+00  0.1280E+03  0.1280E+03
     18.524  0.0000E+00  0.0000E+00  0.1280E+03  0.1280E+03
     18.770  0.0000E+00  0.0000E+00  0.1280E+03  0.1280E+03
     19.015  0.0000E+00  0.0000E+00  0.1280E+03  0.1280E+03
     19.260  0.0000E+00  0.0000E+00  0.1280E+03  0.1280E+03
     19.505  0.0000E+00  0.0000E+00  0.1280E+03  0.1280E+03
     19.750  0.0000E+00  0.0000E+00  0.1280E+03  0.1280E+03
     19.75030916    -53.80633457  301      6.24449350      1.00000000
    -53.806  0.0000E+00  0.0000E+00  0.0000E+00  0.0000E+00  0.0000E+00  0.0000E+00  0.0000E+00  0.0000E+00  0.0000E+00  0.0000E+00  0.0000E+00  0.0000E+00  0.0000E+00  0.0000E+00  0.0000E+00  0.0000E+00  0.0000E+00  0.0000E+00
    -53.561  0.0000E+00  0.0000E+00  0.0000E+00  0.0000E+00  0.0000E+00  0.0000E+00  0.0000E+00  0.0000E+00  0.0000E+00  0.0000E+00  0.0000E+00  0.0000E+00  0.0000E+00  0.0000E+00  0.0000E+00  0.0000E+00  0.0000E+00  0.0000E+00
    -53.316  0.0000E+00  0.0000E+00  0.0000E+00  0.0000E+00  0.0000E+00  0.0000E+00  0.0000E+00  0.0000E+00  0.0000E+00  0.0000E+00  0.0000E+00  0.0000E+00  0.0000E+00  0.0000E+00  0.0000E+00  0.0000E+00  0.0000E+00  0.0000E+00
    -53.071  0.0000E+00  0.0000E+00  0.0000E+00  0.0000E+00  0.0000E+00  0.0000E+00  0.0000E+00  0.0000E+00  0.0000E+00  0.0000E+00  0.0000E+00  0.0000E+00  0.0000E+00  0.0000E+00  0.0000E+00  0.0000E+00  0.0000E+00  0.0000E+00
    -52.826  0.0000E+00  0.0000E+00  0.0000E+00  0.0000E+00  0.0000E+00  0.0000E+00  0.0000E+00  0.0000E+00  0.0000E+00  0.0000E+00  0.0000E+00  0.0000E+00  0.0000E+00  0.0000E+00  0.0000E+00  0.0000E+00  0.0000E+00  0.0000E+00
    -52.580  0.0000E+00  0.0000E+00  0.0000E+00  0.0000E+00  0.0000E+00  0.0000E+00  0.0000E+00  0.0000E+00  0.0000E+00  0.0000E+00  0.0000E+00  0.0000E+00  0.0000E+00  0.0000E+00  0.0000E+00  0.0000E+00  0.0000E+00  0.0000E+00
    -52.335  0.0000E+00  0.0000E+00  0.0000E+00  0.0000E+00  0.0000E+00  0.0000E+00  0.0000E+00  0.0000E+00  0.0000E+00  0.0000E+00  0.0000E+00  0.0000E+00  0.0000E+00  0.0000E+00  0.0000E+00  0.0000E+00  0.0000E+00  0.0000E+00
    -52.090  0.0000E+00  0.0000E+00  0.0000E+00  0.0000E+00  0.0000E+00  0.0000E+00  0.0000E+00  0.0000E+00  0.0000E+00  0.0000E+00  0.0000E+00  0.0000E+00  0.0000E+00  0.0000E+00  0.0000E+00  0.0000E+00  0.0000E+00  0.0000E+00
    -51.845  0.0000E+00  0.0000E+00  0.0000E+00  0.0000E+00  0.0000E+00  0.0000E+00  0.0000E+00  0.0000E+00  0.0000E+00  0.0000E+00  0.0000E+00  0.0000E+00  0.0000E+00  0.0000E+00  0.0000E+00  0.0000E+00  0.0000E+00  0.0000E+00
    -51.600  0.0000E+00  0.0000E+00  0.0000E+00  0.0000E+00  0.0000E+00  0.0000E+00  0.0000E+00  0.0000E+00  0.0000E+00  0.0000E+00  0.0000E+00  0.0000E+00  0.0000E+00  0.0000E+00  0.0000E+00  0.0000E+00  0.0000E+00  0.0000E+00
    -51.354  0.0000E+00  0.0000E+00  0.0000E+00  0.0000E+00  0.0000E+00  0.0000E+00  0.0000E+00  0.0000E+00  0.0000E+00  0.0000E+00  0.0000E+00  0.0000E+00  0.0000E+00  0.0000E+00  0.0000E+00  0.0000E+00  0.0000E+00  0.0000E+00
    -51.109  0.0000E+00  0.0000E+00  0.0000E+00  0.0000E+00  0.0000E+00  0.0000E+00  0.0000E+00  0.0000E+00  0.0000E+00  0.0000E+00  0.0000E+00  0.0000E+00  0.0000E+00  0.0000E+00  0.0000E+00  0.0000E+00  0.0000E+00  0.0000E+00
    -50.864  0.8527E-11  0.0000E+00  0.1968E-11  0.0000E+00  0.1257E-11  0.0000E+00  0.6717E-12  0.0000E+00  0.0000E+00  0.0000E+00  0.0000E+00  0.0000E+00  0.0000E+00  0.0000E+00  0.0000E+00  0.0000E+00  0.0000E+00  0.0000E+00
    -50.619  0.1093E-08  0.0000E+00  0.2524E-09  0.0000E+00  0.1612E-09  0.0000E+00  0.8613E-10  0.0000E+00  0.0000E+00  0.0000E+00  0.0000E+00  0.0000E+00  0.0000E+00  0.0000E+00  0.0000E+00  0.0000E+00  0.0000E+00  0.0000E+00
    -50.374  0.2147E-07  0.0000E+00  0.4986E-08  0.0000E+00  0.3189E-08  0.0000E+00  0.1695E-08  0.0000E+00  0.0000E+00  0.0000E+00  0.0000E+00  0.0000E+00  0.0000E+00  0.0000E+00  0.0000E+00  0.0000E+00  0.0000E+00  0.0000E+00
    -50.129  0.3816E-08  0.0000E+00  0.8919E-09  0.0000E+00  0.5714E-09  0.0000E+00  0.3020E-09  0.0000E+00  0.0000E+00  0.0000E+00  0.0000E+00  0.0000E+00  0.0000E+00  0.0000E+00  0.0000E+00  0.0000E+00  0.0000E+00  0.0000E+00
    -49.883  0.3030E-09  0.0000E+00  0.8914E-11  0.0000E+00  0.2253E-10  0.0000E+00  0.7180E-11  0.0000E+00  0.0000E+00  0.0000E+00  0.0000E+00  0.0000E+00  0.0000E+00  0.0000E+00  0.0000E+00  0.0000E+00  0.0000E+00  0.0000E+00
    -49.638  0.3065E-07  0.0000E+00  0.9016E-09  0.0000E+00  0.2280E-08  0.0000E+00  0.7263E-09  0.0000E+00  0.0000E+00  0.0000E+00  0.0000E+00  0.0000E+00  0.0000E+00  0.0000E+00  0.0000E+00  0.0000E+00  0.0000E+00  0.0000E+00
    -49.393  0.9032E-07  0.0000E+00  0.2666E-08  0.0000E+00  0.6737E-08  0.0000E+00  0.2157E-08  0.0000E+00  0.0000E+00  0.0000E+00  0.0000E+00  0.0000E+00  0.0000E+00  0.0000E+00  0.0000E+00  0.0000E+00  0.0000E+00  0.0000E+00
    -49.148  0.4814E-08  0.0000E+00  0.9373E-09  0.0000E+00  0.1502E-08  0.0000E+00  0.1647E-08  0.0000E+00  0.0000E+00  0.0000E+00  0.0000E+00  0.0000E+00  0.0000E+00  0.0000E+00  0.0000E+00  0.0000E+00  0.0000E+00  0.0000E+00
    -48.903  0.1120E-07  0.0000E+00  0.2181E-08  0.0000E+00  0.3498E-08  0.0000E+00  0.3833E-08  0.0000E+00  0.0000E+00  0.0000E+00  0.0000E+00  0.0000E+00  0.0000E+00  0.0000E+00  0.0000E+00  0.0000E+00  0.0000E+00  0.0000E+00
    -48.657  0.0000E+00  0.0000E+00  0.0000E+00  0.0000E+00  0.0000E+00  0.0000E+00  0.0000E+00  0.0000E+00  0.0000E+00  0.0000E+00  0.0000E+00  0.0000E+00  0.0000E+00  0.0000E+00  0.0000E+00  0.0000E+00  0.0000E+00  0.0000E+00
    -48.412  0.0000E+00  0.0000E+00  0.0000E+00  0.0000E+00  0.0000E+00  0.0000E+00  0.0000E+00  0.0000E+00  0.0000E+00  0.0000E+00  0.0000E+00  0.0000E+00  0.0000E+00  0.0000E+00  0.0000E+00  0.0000E+00  0.0000E+00  0.0000E+00
    -48.167  0.0000E+00  0.0000E+00  0.0000E+00  0.0000E+00  0.0000E+00  0.0000E+00  0.0000E+00  0.0000E+00  0.0000E+00  0.0000E+00  0.0000E+00  0.0000E+00  0.0000E+00  0.0000E+00  0.0000E+00  0.0000E+00  0.0000E+00  0.0000E+00
    -47.922  0.0000E+00  0.0000E+00  0.0000E+00  0.0000E+00  0.0000E+00  0.0000E+00  0.0000E+00  0.0000E+00  0.0000E+00  0.0000E+00  0.0000E+00  0.0000E+00  0.0000E+00  0.0000E+00  0.0000E+00  0.0000E+00  0.0000E+00  0.0000E+00
    -47.677  0.0000E+00  0.0000E+00  0.0000E+00  0.0000E+00  0.0000E+00  0.0000E+00  0.0000E+00  0.0000E+00  0.0000E+00  0.0000E+00  0.0000E+00  0.0000E+00  0.0000E+00  0.0000E+00  0.0000E+00  0.0000E+00  0.0000E+00  0.0000E+00
    -47.431  0.0000E+00  0.0000E+00  0.0000E+00  0.0000E+00  0.0000E+00  0.0000E+00  0.0000E+00  0.0000E+00  0.0000E+00  0.0000E+00  0.0000E+00  0.0000E+00  0.0000E+00  0.0000E+00  0.0000E+00  0.0000E+00  0.0000E+00  0.0000E+00
    -47.186  0.0000E+00  0.0000E+00  0.0000E+00  0.0000E+00  0.0000E+00  0.0000E+00  0.0000E+00  0.0000E+00  0.0000E+00  0.0000E+00  0.0000E+00  0.0000E+00  0.0000E+00  0.0000E+00  0.0000E+00  0.0000E+00  0.0000E+00  0.0000E+00
    -46.941  0.0000E+00  0.0000E+00  0.0000E+00  0.0000E+00  0.0000E+00  0.0000E+00  0.0000E+00  0.0000E+00  0.0000E+00  0.0000E+00  0.0000E+00  0.0000E+00  0.0000E+00  0.0000E+00  0.0000E+00  0.0000E+00  0.0000E+00  0.0000E+00
    -46.696  0.0000E+00  0.0000E+00  0.0000E+00  0.0000E+00  0.0000E+00  0.0000E+00  0.0000E+00  0.0000E+00  0.0000E+00  0.0000E+00  0.0000E+00  0.0000E+00  0.0000E+00  0.0000E+00  0.0000E+00  0.0000E+00  0.0000E+00  0.0000E+00
    -46.451  0.0000E+00  0.4000E-11  0.0000E+00  0.1951E-12  0.0000E+00  0.1201E-12  0.0000E+00  0.1092E-12  0.0000E+00  0.0000E+00  0.0000E+00  0.0000E+00  0.0000E+00  0.0000E+00  0.0000E+00  0.0000E+00  0.0000E+00  0.0000E+00
    -46.205  0.0000E+00  0.5421E-09  0.0000E+00  0.2608E-10  0.0000E+00  0.1616E-10  0.0000E+00  0.1466E-10  0.0000E+00  0.0000E+00  0.0000E+00  0.0000E+00  0.0000E+00  0.0000E+00  0.0000E+00  0.0000E+00  0.0000E+00  0.0000E+00
    -45.960  0.0000E+00  0.4789E-07  0.0000E+00  0.2295E-08  0.0000E+00  0.1425E-08  0.0000E+00  0.1292E-08  0.0000E+00  0.0000E+00  0.0000E+00  0.0000E+00  0.0000E+00  0.0000E+00  0.0000E+00  0.0000E+00  0.0000E+00  0.0000E+00
    -45.715  0.0000E+00  0.2113E-06  0.0000E+00  0.5281E-08  0.0000E+00  0.4755E-08  0.0000E+00  0.3860E-08  0.0000E+00  0.0000E+00  0.0000E+00  0.0000E+00  0.0000E+00  0.0000E+00  0.0000E+00  0.0000E+00  0.0000E+00  0.0000E+00
    -45.470  0.0000E+00  0.4488E-06  0.0000E+00  0.4578E-08  0.0000E+00  0.8721E-08  0.0000E+00  0.7452E-08  0.0000E+00  0.0000E+00  0.0000E+00  0.0000E+00  0.0000E+00  0.0000E+00  0.0000E+00  0.0000E+00  0.0000E+00  0.0000E+00
    -45.225  0.0000E+00  0.5538E-07  0.0000E+00  0.1476E-08  0.0000E+00  0.2143E-08  0.0000E+00  0.3161E-08  0.0000E+00  0.0000E+00  0.0000E+00  0.0000E+00  0.0000E+00  0.0000E+00  0.0000E+00  0.0000E+00  0.0000E+00  0.0000E+00
    -44.980  0.0000E+00  0.0000E+00  0.0000E+00  0.0000E+00  0.0000E+00  0.0000E+00  0.0000E+00  0.0000E+00  0.0000E+00  0.0000E+00  0.0000E+00  0.0000E+00  0.0000E+00  0.0000E+00  0.0000E+00  0.0000E+00  0.0000E+00  0.0000E+00
    -44.734  0.0000E+00  0.0000E+00  0.0000E+00  0.0000E+00  0.0000E+00  0.0000E+00  0.0000E+00  0.0000E+00  0.0000E+00  0.0000E+00  0.0000E+00  0.0000E+00  0.0000E+00  0.0000E+00  0.0000E+00  0.0000E+00  0.0000E+00  0.0000E+00
    -44.489  0.0000E+00  0.0000E+00  0.0000E+00  0.0000E+00  0.0000E+00  0.0000E+00  0.0000E+00  0.0000E+00  0.0000E+00  0.0000E+00  0.0000E+00  0.0000E+00  0.0000E+00  0.0000E+00  0.0000E+00  0.0000E+00  0.0000E+00  0.0000E+00
    -44.244  0.0000E+00  0.0000E+00  0.0000E+00  0.0000E+00  0.0000E+00  0.0000E+00  0.0000E+00  0.0000E+00  0.0000E+00  0.0000E+00  0.0000E+00  0.0000E+00  0.0000E+00  0.0000E+00  0.0000E+00  0.0000E+00  0.0000E+00  0.0000E+00
    -43.999  0.0000E+00  0.0000E+00  0.0000E+00  0.0000E+00  0.0000E+00  0.0000E+00  0.0000E+00  0.0000E+00  0.0000E+00  0.0000E+00  0.0000E+00  0.0000E+00  0.0000E+00  0.0000E+00  0.0000E+00  0.0000E+00  0.0000E+00  0.0000E+00
    -43.754  0.0000E+00  0.0000E+00  0.0000E+00  0.0000E+00  0.0000E+00  0.0000E+00  0.0000E+00  0.0000E+00  0.0000E+00  0.0000E+00  0.0000E+00  0.0000E+00  0.0000E+00  0.0000E+00  0.0000E+00  0.0000E+00  0.0000E+00  0.0000E+00
    -43.508  0.0000E+00  0.0000E+00  0.0000E+00  0.0000E+00  0.0000E+00  0.0000E+00  0.0000E+00  0.0000E+00  0.0000E+00  0.0000E+00  0.0000E+00  0.0000E+00  0.0000E+00  0.0000E+00  0.0000E+00  0.0000E+00  0.0000E+00  0.0000E+00
    -43.263  0.0000E+00  0.0000E+00  0.0000E+00  0.0000E+00  0.0000E+00  0.0000E+00  0.0000E+00  0.0000E+00  0.0000E+00  0.0000E+00  0.0000E+00  0.0000E+00  0.0000E+00  0.0000E+00  0.0000E+00  0.0000E+00  0.0000E+00  0.0000E+00
    -43.018  0.0000E+00  0.0000E+00  0.0000E+00  0.0000E+00  0.0000E+00  0.0000E+00  0.0000E+00  0.0000E+00  0.0000E+00  0.0000E+00  0.0000E+00  0.0000E+00  0.0000E+00  0.0000E+00  0.0000E+00  0.0000E+00  0.0000E+00  0.0000E+00
    -42.773  0.0000E+00  0.0000E+00  0.0000E+00  0.0000E+00  0.0000E+00  0.0000E+00  0.0000E+00  0.0000E+00  0.0000E+00  0.0000E+00  0.0000E+00  0.0000E+00  0.0000E+00  0.0000E+00  0.0000E+00  0.0000E+00  0.0000E+00  0.0000E+00
    -42.528  0.0000E+00  0.0000E+00  0.0000E+00  0.0000E+00  0.0000E+00  0.0000E+00  0.0000E+00  0.0000E+00  0.0000E+00  0.0000E+00  0.0000E+00  0.0000E+00  0.0000E+00  0.0000E+00  0.0000E+00  0.0000E+00  0.0000E+00  0.0000E+00
    -42.282  0.0000E+00  0.0000E+00  0.0000E+00  0.0000E+00  0.0000E+00  0.0000E+00  0.0000E+00  0.0000E+00  0.0000E+00  0.0000E+00  0.0000E+00  0.0000E+00  0.0000E+00  0.0000E+00  0.0000E+00  0.0000E+00  0.0000E+00  0.0000E+00
    -42.037  0.0000E+00  0.0000E+00  0.0000E+00  0.0000E+00  0.0000E+00  0.0000E+00  0.0000E+00  0.0000E+00  0.0000E+00  0.0000E+00  0.0000E+00  0.0000E+00  0.0000E+00  0.0000E+00  0.0000E+00  0.0000E+00  0.0000E+00  0.0000E+00
    -41.792  0.0000E+00  0.0000E+00  0.0000E+00  0.0000E+00  0.0000E+00  0.0000E+00  0.0000E+00  0.0000E+00  0.0000E+00  0.0000E+00  0.0000E+00  0.0000E+00  0.0000E+00  0.0000E+00  0.0000E+00  0.0000E+00  0.0000E+00  0.0000E+00
    -41.547  0.0000E+00  0.0000E+00  0.0000E+00  0.0000E+00  0.0000E+00  0.0000E+00  0.0000E+00  0.0000E+00  0.0000E+00  0.0000E+00  0.0000E+00  0.0000E+00  0.0000E+00  0.0000E+00  0.0000E+00  0.0000E+00  0.0000E+00  0.0000E+00