  28  28   1   0
  0.1058624E+02  0.4727205E-09  0.6030207E-09  0.1039832E-08  0.5000000E-15
  1.000000000000000E-004
  CAR 
 unknown system                          
     19.28154040    -54.18029108  301      5.89632712      1.00000000
    -54.180  0.0000E+00  0.0000E+00  0.0000E+00  0.0000E+00
    -53.935  0.0000E+00  0.0000E+00  0.0000E+00  0.0000E+00
    -53.691  0.0000E+00  0.0000E+00  0.0000E+00  0.0000E+00
    -53.446  0.0000E+00  0.0000E+00  0.0000E+00  0.0000E+00
    -53.201  0.0000E+00  0.0000E+00  0.0000E+00  0.0000E+00
    -52.956  0.0000E+00  0.0000E+00  0.0000E+00  0.0000E+00
    -52.711  0.0000E+00  0.0000E+00  0.0000E+00  0.0000E+00
    -52.466  0.0000E+00  0.0000E+00  0.0000E+00  0.0000E+00
    -52.221  0.0000E+00  0.0000E+00  0.0000E+00  0.0000E+00
    -51.976  0.0000E+00  0.0000E+00  0.0000E+00  0.0000E+00
    -51.732  0.0000E+00  0.0000E+00  0.0000E+00  0.0000E+00
    -51.487  0.0000E+00  0.0000E+00  0.0000E+00  0.0000E+00
    -51.242  0.5318E-02  0.0000E+00  0.1302E-02  0.0000E+00
    -50.997  0.6775E+00  0.0000E+00  0.1672E+00  0.0000E+00
    -50.752  0.1327E+02  0.0000E+00  0.3415E+01  0.0000E+00
    -50.507  0.2366E+01  0.0000E+00  0.3995E+01  0.0000E+00
    -50.262  0.2612E-01  0.0000E+00  0.4006E+01  0.0000E+00
    -50.017  0.2877E+01  0.0000E+00  0.4711E+01  0.0000E+00
    -49.773  0.1292E+02  0.0000E+00  0.7875E+01  0.0000E+00
    -49.528  0.3575E+01  0.0000E+00  0.8884E+01  0.0000E+00
    -49.283  0.1231E+02  0.0000E+00  0.1190E+02  0.0000E+00
    -49.038  0.0000E+00  0.0000E+00  0.1200E+02  0.0000E+00
    -48.793  0.0000E+00  0.0000E+00  0.1200E+02  0.0000E+00
    -48.548  0.0000E+00  0.0000E+00  0.1200E+02  0.0000E+00
    -48.303  0.0000E+00  0.0000E+00  0.1200E+02  0.0000E+00
    -48.058  0.0000E+00  0.0000E+00  0.1200E+02  0.0000E+00
    -47.814  0.0000E+00  0.0000E+00  0.1200E+02  0.0000E+00
    -47.569  0.0000E+00  0.0000E+00  0.1200E+02  0.0000E+00
    -47.324  0.0000E+00  0.0000E+00  0.1200E+02  0.0000E+00
    -47.079  0.0000E+00  0.0000E+00  0.1200E+02  0.0000E+00
    -46.834  0.0000E+00  0.3257E-03  0.1200E+02  0.7975E-04
    -46.589  0.0000E+00  0.4334E-01  0.1200E+02  0.1069E-01
    -46.344  0.0000E+00  0.4282E+01  0.1200E+02  0.1059E+01
    -46.099  0.0000E+00  0.1413E+02  0.1200E+02  0.4520E+01
    -45.855  0.0000E+00  0.1865E+02  0.1200E+02  0.9168E+01
    -45.610  0.0000E+00  0.1065E+02  0.1200E+02  0.1194E+02
    -45.365  0.0000E+00  0.0000E+00  0.1200E+02  0.1200E+02
    -45.120  0.0000E+00  0.0000E+00  0.1200E+02  0.1200E+02
    -44.875  0.0000E+00  0.0000E+00  0.1200E+02  0.1200E+02
    -44.630  0.0000E+00  0.0000E+00  0.1200E+02  0.1200E+02
    -44.385  0.0000E+00  0.0000E+00  0.1200E+02  0.1200E+02
    -44.141  0.0000E+00  0.0000E+00  0.1200E+02  0.1200E+02
    -43.896  0.0000E+00  0.0000E+00  0.1200E+02  0.1200E+02
    -43.651  0.0000E+00  0.0000E+00  0.1200E+02  0.1200E+02
    -43.406  0.0000E+00  0.0000E+00  0.1200E+02  0.1200E+02
    -43.161  0.0000E+00  0.0000E+00  0.1200E+02  0.1200E+02
    -42.916  0.0000E+00  0.0000E+00  0.1200E+02  0.1200E+02
    -42.671  0.0000E+00  0.0000E+00  0.1200E+02  0.1200E+02
    -42.426  0.0000E+00  0.0000E+00  0.1200E+02  0.1200E+02
    -42.182  0.0000E+00  0.0000E+00  0.1200E+02  0.1200E+02
    -41.937  0.0000E+00  0.0000E+00  0.1200E+02  0.1200E+02
    -41.692  0.0000E+00  0.0000E+00  0.1200E+02  0.1200E+02
    -41.447  0.0000E+00  0.0000E+00  0.1200E+02  0.1200E+02
    -41.202  0.0000E+00  0.0000E+00  0.1200E+02  0.1200E+02
    -40.957  0.0000E+00  0.0000E+00  0.1200E+02  0.1200E+02
    -40.712  0.2733E-03  0.2714E-03  0.1200E+02  0.1200E+02
    -40.467  0.3626E-01  0.3600E-01  0.1201E+02  0.1201E+02
    -40.223  0.3732E+01  0.3712E+01  0.1292E+02  0.1292E+02
    -39.978  0.1217E+02  0.1219E+02  0.1590E+02  0.1590E+02
    -39.733  0.0000E+00  0.0000E+00  0.1600E+02  0.1600E+02
    -39.488  0.0000E+00  0.0000E+00  0.1600E+02  0.1600E+02
    -39.243  0.0000E+00  0.0000E+00  0.1600E+02  0.1600E+02
    -38.998  0.0000E+00  0.0000E+00  0.1600E+02  0.1600E+02
    -38.753  0.0000E+00  0.0000E+00  0.1600E+02  0.1600E+02
    -38.508  0.0000E+00  0.0000E+00  0.1600E+02  0.1600E+02
    -38.264  0.0000E+00  0.0000E+00  0.1600E+02  0.1600E+02
    -38.019  0.0000E+00  0.0000E+00  0.1600E+02  0.1600E+02
    -37.774  0.0000E+00  0.0000E+00  0.1600E+02  0.1600E+02
    -37.529  0.0000E+00  0.0000E+00  0.1600E+02  0.1600E+02
    -37.284  0.0000E+00  0.0000E+00  0.1600E+02  0.1600E+02
    -37.039  0.0000E+00  0.0000E+00  0.1600E+02  0.1600E+02
    -36.794  0.0000E+00  0.0000E+00  0.1600E+02  0.1600E+02
    -36.549  0.0000E+00  0.0000E+00  0.1600E+02  0.1600E+02
    -36.305  0.0000E+00  0.0000E+00  0.1600E+02  0.1600E+02
    -36.060  0.0000E+00  0.0000E+00  0.1600E+02  0.1600E+02
    -35.815  0.0000E+00  0.0000E+00  0.1600E+02  0.1600E+02
    -35.570  0.0000E+00  0.0000E+00  0.1600E+02  0.1600E+02
    -35.325  0.0000E+00  0.0000E+00  0.1600E+02  0.1600E+02
    -35.080  0.0000E+00  0.0000E+00  0.1600E+02  0.1600E+02
    -34.835  0.0000E+00  0.0000E+00  0.1600E+02  0.1600E+02
    -34.590  0.0000E+00  0.0000E+00  0.1600E+02  0.1600E+02
    -34.346  0.0000E+00  0.0000E+00  0.1600E+02  0.1600E+02
    -34.101  0.0000E+00  0.0000E+00  0.1600E+02  0.1600E+02
    -33.856  0.0000E+00  0.0000E+00  0.1600E+02  0.1600E+02
    -33.611  0.0000E+00  0.0000E+00  0.1600E+02  0.1600E+02
    -33.366  0.0000E+00  0.0000E+00  0.1600E+02  0.1600E+02
    -33.121  0.0000E+00  0.0000E+00  0.1600E+02  0.1600E+02
    -32.876  0.0000E+00  0.0000E+00  0.1600E+02  0.1600E+02
    -32.631  0.0000E+00  0.0000E+00  0.1600E+02  0.1600E+02
    -32.387  0.0000E+00  0.0000E+00  0.1600E+02  0.1600E+02
    -32.142  0.0000E+00  0.0000E+00  0.1600E+02  0.1600E+02
    -31.897  0.0000E+00  0.0000E+00  0.1600E+02  0.1600E+02
    -31.652  0.0000E+00  0.0000E+00  0.1600E+02  0.1600E+02
    -31.407  0.0000E+00  0.0000E+00  0.1600E+02  0.1600E+02
    -31.162  0.0000E+00  0.0000E+00  0.1600E+02  0.1600E+02
    -30.917  0.0000E+00  0.0000E+00  0.1600E+02  0.1600E+02
    -30.673  0.0000E+00  0.0000E+00  0.1600E+02  0.1600E+02
    -30.428  0.0000E+00  0.0000E+00  0.1600E+02  0.1600E+02
    -30.183  0.0000E+00  0.0000E+00  0.1600E+02  0.1600E+02
    -29.938  0.0000E+00  0.0000E+00  0.1600E+02  0.1600E+02
    -29.693  0.0000E+00  0.0000E+00  0.1600E+02  0.1600E+02
    -29.448  0.0000E+00  0.0000E+00  0.1600E+02  0.1600E+02
    -29.203  0.0000E+00  0.0000E+00  0.1600E+02  0.1600E+02
    -28.958  0.0000E+00  0.0000E+00  0.1600E+02  0.1600E+02
    -28.714  0.0000E+00  0.0000E+00  0.1600E+02  0.1600E+02
    -28.469  0.0000E+00  0.0000E+00  0.1600E+02  0.1600E+02
    -28.224  0.0000E+00  0.0000E+00  0.1600E+02  0.1600E+02
    -27.979  0.0000E+00  0.0000E+00  0.1600E+02  0.1600E+02
    -27.734  0.0000E+00  0.0000E+00  0.1600E+02  0.1600E+02
    -27.489  0.0000E+00  0.0000E+00  0.1600E+02  0.1600E+02
    -27.244  0.0000E+00  0.0000E+00  0.1600E+02  0.1600E+02
    -26.999  0.0000E+00  0.0000E+00  0.1600E+02  0.1600E+02
    -26.755  0.0000E+00  0.0000E+00  0.1600E+02  0.1600E+02
    -26.510  0.0000E+00  0.0000E+00  0.1600E+02  0.1600E+02
    -26.265  0.0000E+00  0.0000E+00  0.1600E+02  0.1600E+02
    -26.020  0.0000E+00  0.0000E+00  0.1600E+02  0.1600E+02
    -25.775  0.0000E+00  0.0000E+00  0.1600E+02  0.1600E+02
    -25.530  0.0000E+00  0.0000E+00  0.1600E+02  0.1600E+02
    -25.285  0.0000E+00  0.0000E+00  0.1600E+02  0.1600E+02
    -25.040  0.0000E+00  0.0000E+00  0.1600E+02  0.1600E+02
    -24.796  0.0000E+00  0.0000E+00  0.1600E+02  0.1600E+02
    -24.551  0.0000E+00  0.0000E+00  0.1600E+02  0.1600E+02
    -24.306  0.0000E+00  0.0000E+00  0.1600E+02  0.1600E+02
    -24.061  0.0000E+00  0.0000E+00  0.1600E+02  0.1600E+02
    -23.816  0.0000E+00  0.0000E+00  0.1600E+02  0.1600E+02
    -23.571  0.0000E+00  0.0000E+00  0.1600E+02  0.1600E+02
    -23.326  0.0000E+00  0.0000E+00  0.1600E+02  0.1600E+02
    -23.081  0.0000E+00  0.0000E+00  0.1600E+02  0.1600E+02
    -22.837  0.0000E+00  0.0000E+00  0.1600E+02  0.1600E+02
    -22.592  0.0000E+00  0.0000E+00  0.1600E+02  0.1600E+02
    -22.347  0.0000E+00  0.0000E+00  0.1600E+02  0.1600E+02
    -22.102  0.0000E+00  0.0000E+00  0.1600E+02  0.1600E+02
    -21.857  0.0000E+00  0.0000E+00  0.1600E+02  0.1600E+02
    -21.612  0.0000E+00  0.0000E+00  0.1600E+02  0.1600E+02
    -21.367  0.0000E+00  0.0000E+00  0.1600E+02  0.1600E+02
    -21.122  0.0000E+00  0.0000E+00  0.1600E+02  0.1600E+02
    -20.878  0.0000E+00  0.0000E+00  0.1600E+02  0.1600E+02
    -20.633  0.0000E+00  0.0000E+00  0.1600E+02  0.1600E+02
    -20.388  0.0000E+00  0.0000E+00  0.1600E+02  0.1600E+02
    -20.143  0.0000E+00  0.0000E+00  0.1600E+02  0.1600E+02
    -19.898  0.0000E+00  0.0000E+00  0.1600E+02  0.1600E+02
    -19.653  0.0000E+00  0.0000E+00  0.1600E+02  0.1600E+02
    -19.408  0.0000E+00  0.0000E+00  0.1600E+02  0.1600E+02
    -19.163  0.0000E+00  0.0000E+00  0.1600E+02  0.1600E+02
    -18.919  0.0000E+00  0.0000E+00  0.1600E+02  0.1600E+02
    -18.674  0.0000E+00  0.0000E+00  0.1600E+02  0.1600E+02
    -18.429  0.5505E-07  0.0000E+00  0.1600E+02  0.1600E+02
    -18.184  0.2429E-03  0.2820E-04  0.1600E+02  0.1600E+02
    -17.939  0.3268E-01  0.4634E-02  0.1601E+02  0.1600E+02
    -17.694  0.2047E+01  0.5020E+00  0.1651E+02  0.1612E+02
    -17.449  0.1020E+02  0.7273E+01  0.1901E+02  0.1791E+02
    -17.205  0.3894E+01  0.8033E+01  0.1998E+02  0.1988E+02
    -16.960  0.0000E+00  0.3776E+00  0.2000E+02  0.2000E+02
    -16.715  0.0000E+00  0.0000E+00  0.2000E+02  0.2000E+02
    -16.470  0.0000E+00  0.0000E+00  0.2000E+02  0.2000E+02
    -16.225  0.0000E+00  0.0000E+00  0.2000E+02  0.2000E+02
    -15.980  0.0000E+00  0.0000E+00  0.2000E+02  0.2000E+02
    -15.735  0.3419E-03  0.3939E-04  0.2000E+02  0.2000E+02
    -15.490  0.4758E-01  0.6740E-02  0.2001E+02  0.2000E+02
    -15.246  0.4026E+01  0.8109E+00  0.2100E+02  0.2020E+02
    -15.001  0.2425E+02  0.1424E+02  0.2694E+02  0.2369E+02
    -14.756  0.1898E+02  0.2647E+02  0.3163E+02  0.3018E+02
    -14.511  0.1285E+01  0.6965E+01  0.3200E+02  0.3197E+02
    -14.266  0.0000E+00  0.0000E+00  0.3200E+02  0.3200E+02
    -14.021  0.0000E+00  0.0000E+00  0.3200E+02  0.3200E+02
    -13.776  0.0000E+00  0.0000E+00  0.3200E+02  0.3200E+02
    -13.531  0.0000E+00  0.0000E+00  0.3200E+02  0.3200E+02
    -13.287  0.0000E+00  0.0000E+00  0.3200E+02  0.3200E+02
    -13.042  0.0000E+00  0.0000E+00  0.3200E+02  0.3200E+02
    -12.797  0.0000E+00  0.0000E+00  0.3200E+02  0.3200E+02
    -12.552  0.0000E+00  0.0000E+00  0.3200E+02  0.3200E+02
    -12.307  0.0000E+00  0.0000E+00  0.3200E+02  0.3200E+02
    -12.062  0.0000E+00  0.0000E+00  0.3200E+02  0.3200E+02
    -11.817  0.0000E+00  0.0000E+00  0.3200E+02  0.3200E+02
    -11.572  0.0000E+00  0.0000E+00  0.3200E+02  0.3200E+02
    -11.328  0.0000E+00  0.0000E+00  0.3200E+02  0.3200E+02
    -11.083  0.0000E+00  0.0000E+00  0.3200E+02  0.3200E+02
    -10.838  0.0000E+00  0.0000E+00  0.3200E+02  0.3200E+02
    -10.593  0.0000E+00  0.0000E+00  0.3200E+02  0.3200E+02
    -10.348  0.0000E+00  0.0000E+00  0.3200E+02  0.3200E+02
    -10.103  0.0000E+00  0.0000E+00  0.3200E+02  0.3200E+02
     -9.858  0.0000E+00  0.0000E+00  0.3200E+02  0.3200E+02
     -9.613  0.0000E+00  0.0000E+00  0.3200E+02  0.3200E+02
     -9.369  0.0000E+00  0.0000E+00  0.3200E+02  0.3200E+02
     -9.124  0.0000E+00  0.0000E+00  0.3200E+02  0.3200E+02
     -8.879  0.0000E+00  0.0000E+00  0.3200E+02  0.3200E+02
     -8.634  0.0000E+00  0.0000E+00  0.3200E+02  0.3200E+02
     -8.389  0.0000E+00  0.0000E+00  0.3200E+02  0.3200E+02
     -8.144  0.0000E+00  0.0000E+00  0.3200E+02  0.3200E+02
     -7.899  0.0000E+00  0.0000E+00  0.3200E+02  0.3200E+02
     -7.654  0.0000E+00  0.0000E+00  0.3200E+02  0.3200E+02
     -7.410  0.0000E+00  0.0000E+00  0.3200E+02  0.3200E+02
     -7.165  0.0000E+00  0.0000E+00  0.3200E+02  0.3200E+02
     -6.920  0.0000E+00  0.0000E+00  0.3200E+02  0.3200E+02
     -6.675  0.0000E+00  0.0000E+00  0.3200E+02  0.3200E+02
     -6.430  0.0000E+00  0.0000E+00  0.3200E+02  0.3200E+02
     -6.185  0.0000E+00  0.0000E+00  0.3200E+02  0.3200E+02
     -5.940  0.0000E+00  0.0000E+00  0.3200E+02  0.3200E+02
     -5.695  0.9494E-05  0.0000E+00  0.3200E+02  0.3200E+02
     -5.451  0.1492E-02  0.6557E-04  0.3200E+02  0.3200E+02
     -5.206  0.1645E+00  0.8966E-02  0.3204E+02  0.3200E+02
     -4.961  0.2349E+01  0.5970E+00  0.3262E+02  0.3215E+02
     -4.716  0.7481E+01  0.3835E+01  0.3445E+02  0.3309E+02
     -4.471  0.6062E+01  0.9351E+01  0.3595E+02  0.3538E+02
     -4.226  0.1081E+00  0.2436E+01  0.3600E+02  0.3599E+02
     -3.981  0.5821E-04  0.5625E-06  0.3600E+02  0.3600E+02
     -3.737  0.7698E-02  0.1464E-03  0.3600E+02  0.3600E+02
     -3.492  0.3524E+00  0.1855E-01  0.3609E+02  0.3600E+02
     -3.247  0.1831E+01  0.5389E+00  0.3654E+02  0.3614E+02
     -3.002  0.4504E+01  0.2288E+01  0.3764E+02  0.3670E+02
     -2.757  0.7607E+01  0.4874E+01  0.3951E+02  0.3789E+02
     -2.512  0.1004E+02  0.9309E+01  0.4198E+02  0.4019E+02
     -2.267  0.9715E+01  0.9617E+01  0.4439E+02  0.4255E+02
     -2.022  0.1131E+02  0.1101E+02  0.4718E+02  0.4527E+02
     -1.778  0.2938E+01  0.9537E+01  0.4792E+02  0.4762E+02
     -1.533  0.3700E+00  0.1330E+01  0.4802E+02  0.4799E+02
     -1.288  0.2081E+01  0.4597E-01  0.4853E+02  0.4801E+02
     -1.043  0.5791E+01  0.1222E+01  0.4995E+02  0.4830E+02
     -0.798  0.6933E+01  0.4926E+01  0.5166E+02  0.4951E+02
     -0.553  0.1153E+02  0.6873E+01  0.5449E+02  0.5120E+02
     -0.308  0.1095E+02  0.9708E+01  0.5720E+02  0.5359E+02
     -0.063  0.8199E+01  0.1122E+02  0.5923E+02  0.5636E+02
      0.181  0.8814E+01  0.9477E+01  0.6141E+02  0.5871E+02
      0.426  0.1123E+02  0.9701E+01  0.6417E+02  0.6111E+02
      0.671  0.1173E+02  0.9556E+01  0.6707E+02  0.6346E+02
      0.916  0.5818E+01  0.9160E+01  0.6852E+02  0.6573E+02
      1.161  0.9569E+01  0.9525E+01  0.7088E+02  0.6808E+02
      1.406  0.1422E+02  0.5392E+01  0.7438E+02  0.6943E+02
      1.651  0.1055E+02  0.1155E+02  0.7699E+02  0.7226E+02
      1.896  0.7558E+01  0.1426E+02  0.7887E+02  0.7578E+02
      2.140  0.3657E+01  0.9132E+01  0.7978E+02  0.7805E+02
      2.385  0.5460E+01  0.5745E+01  0.8113E+02  0.7948E+02
      2.630  0.1037E+02  0.2017E+01  0.8367E+02  0.7999E+02
      2.875  0.8511E+01  0.1628E-01  0.8578E+02  0.8000E+02
      3.120  0.8110E+01  0.0000E+00  0.8779E+02  0.8000E+02
      3.365  0.7822E+01  0.0000E+00  0.8972E+02  0.8000E+02
      3.610  0.1559E+02  0.0000E+00  0.9354E+02  0.8000E+02
      3.855  0.8436E+01  0.0000E+00  0.9564E+02  0.8000E+02
      4.099  0.5465E+01  0.0000E+00  0.9700E+02  0.8000E+02
      4.344  0.9925E+01  0.0000E+00  0.9944E+02  0.8000E+02
      4.589  0.2170E+01  0.0000E+00  0.9999E+02  0.8000E+02
      4.834  0.0000E+00  0.0000E+00  0.1000E+03  0.8000E+02
      5.079  0.0000E+00  0.4574E-04  0.1000E+03  0.8000E+02
      5.324  0.0000E+00  0.8035E-02  0.1000E+03  0.8000E+02
      5.569  0.0000E+00  0.9432E+00  0.1000E+03  0.8023E+02
      5.814  0.0000E+00  0.1279E+02  0.1000E+03  0.8337E+02
      6.058  0.0000E+00  0.9274E+01  0.1000E+03  0.8565E+02
      6.303  0.0000E+00  0.1746E+02  0.1000E+03  0.8993E+02
      6.548  0.0000E+00  0.8090E+01  0.1000E+03  0.9195E+02
      6.793  0.0000E+00  0.2065E+01  0.1000E+03  0.9249E+02
      7.038  0.1275E-06  0.9188E+01  0.1000E+03  0.9474E+02
      7.283  0.2644E-04  0.5601E+01  0.1000E+03  0.9614E+02
      7.528  0.3292E-02  0.8897E+01  0.1000E+03  0.9833E+02
      7.773  0.7516E-01  0.6592E+01  0.1000E+03  0.9996E+02
      8.017  0.2058E+00  0.1663E-01  0.1001E+03  0.1000E+03
      8.262  0.3238E+00  0.1233E+00  0.1001E+03  0.1000E+03
      8.507  0.4052E+00  0.2504E+00  0.1002E+03  0.1001E+03
      8.752  0.5794E+00  0.3752E+00  0.1004E+03  0.1002E+03
      8.997  0.6613E+00  0.4899E+00  0.1006E+03  0.1003E+03
      9.242  0.9143E+00  0.6304E+00  0.1008E+03  0.1005E+03
      9.487  0.1192E+01  0.8388E+00  0.1011E+03  0.1007E+03
      9.732  0.1490E+01  0.1021E+01  0.1014E+03  0.1009E+03
      9.976  0.1482E+01  0.1493E+01  0.1018E+03  0.1013E+03
     10.221  0.2254E+01  0.1599E+01  0.1024E+03  0.1017E+03
     10.466  0.4021E+01  0.2067E+01  0.1034E+03  0.1022E+03
     10.711  0.3784E+01  0.3560E+01  0.1043E+03  0.1031E+03
     10.956  0.3393E+01  0.4072E+01  0.1051E+03  0.1041E+03
     11.201  0.5355E+01  0.3373E+01  0.1064E+03  0.1049E+03
     11.446  0.5733E+01  0.5762E+01  0.1079E+03  0.1063E+03
     11.690  0.5651E+01  0.5901E+01  0.1093E+03  0.1078E+03
     11.935  0.5128E+01  0.4237E+01  0.1105E+03  0.1088E+03
     12.180  0.5315E+01  0.5002E+01  0.1118E+03  0.1101E+03
     12.425  0.6924E+01  0.6271E+01  0.1135E+03  0.1116E+03
     12.670  0.5896E+01  0.6140E+01  0.1150E+03  0.1131E+03
     12.915  0.4891E+01  0.6786E+01  0.1162E+03  0.1148E+03
     13.160  0.4744E+01  0.5489E+01  0.1174E+03  0.1162E+03
     13.405  0.3490E+01  0.4813E+01  0.1183E+03  0.1174E+03
     13.649  0.4633E+01  0.3286E+01  0.1194E+03  0.1182E+03
     13.894  0.6197E+01  0.4433E+01  0.1209E+03  0.1193E+03
     14.139  0.5517E+01  0.5827E+01  0.1223E+03  0.1207E+03
     14.384  0.5580E+01  0.5726E+01  0.1237E+03  0.1221E+03
     14.629  0.4412E+01  0.6226E+01  0.1248E+03  0.1237E+03
     14.874  0.4689E+01  0.4097E+01  0.1259E+03  0.1247E+03
     15.119  0.3880E+01  0.3956E+01  0.1269E+03  0.1257E+03
     15.364  0.3056E+01  0.3917E+01  0.1276E+03  0.1266E+03
     15.608  0.1274E+01  0.3365E+01  0.1280E+03  0.1275E+03
     15.853  0.1303E+00  0.1893E+01  0.1280E+03  0.1279E+03
     16.098  0.2304E-02  0.2673E+00  0.1280E+03  0.1280E+03
     16.343  0.0000E+00  0.0000E+00  0.1280E+03  0.1280E+03
     16.588  0.0000E+00  0.0000E+00  0.1280E+03  0.1280E+03
     16.833  0.0000E+00  0.0000E+00  0.1280E+03  0.1280E+03
     17.078  0.0000E+00  0.0000E+00  0.1280E+03  0.1280E+03
     17.323  0.0000E+00  0.0000E+00  0.1280E+03  0.1280E+03
     17.567  0.0000E+00  0.0000E+00  0.1280E+03  0.1280E+03
     17.812  0.0000E+00  0.0000E+00  0.1280E+03  0.1280E+03
     18.057  0.0000E+00  0.0000E+00  0.1280E+03  0.1280E+03
     18.302  0.0000E+00  0.0000E+00  0.1280E+03  0.1280E+03
     18.547  0.0000E+00  0.0000E+00  0.1280E+03  0.1280E+03
     18.792  0.0000E+00  0.0000E+00  0.1280E+03  0.1280E+03
     19.037  0.0000E+00  0.0000E+00  0.1280E+03  0.1280E+03
     19.282  0.0000E+00  0.0000E+00  0.1280E+03  0.1280E+03
     19.28154040    -54.18029108  301      5.89632712      1.00000000
    -54.180  0.0000E+00  0.0000E+00  0.0000E+00  0.0000E+00  0.0000E+00  0.0000E+00  0.0000E+00  0.0000E+00  0.0000E+00  0.0000E+00  0.0000E+00  0.0000E+00  0.0000E+00  0.0000E+00  0.0000E+00  0.0000E+00  0.0000E+00  0.0000E+00
    -53.935  0.0000E+00  0.0000E+00  0.0000E+00  0.0000E+00  0.0000E+00  0.0000E+00  0.0000E+00  0.0000E+00  0.0000E+00  0.0000E+00  0.0000E+00  0.0000E+00  0.0000E+00  0.0000E+00  0.0000E+00  0.0000E+00  0.0000E+00  0.0000E+00
    -53.691  0.0000E+00  0.0000E+00  0.0000E+00  0.0000E+00  0.0000E+00  0.0000E+00  0.0000E+00  0.0000E+00  0.0000E+00  0.0000E+00  0.0000E+00  0.0000E+00  0.0000E+00  0.0000E+00  0.0000E+00  0.0000E+00  0.0000E+00  0.0000E+00
    -53.446  0.0000E+00  0.0000E+00  0.0000E+00  0.0000E+00  0.0000E+00  0.0000E+00  0.0000E+00  0.0000E+00  0.0000E+00  0.0000E+00  0.0000E+00  0.0000E+00  0.0000E+00  0.0000E+00  0.0000E+00  0.0000E+00  0.0000E+00  0.0000E+00
    -53.201  0.0000E+00  0.0000E+00  0.0000E+00  0.0000E+00  0.0000E+00  0.0000E+00  0.0000E+00  0.0000E+00  0.0000E+00  0.0000E+00  0.0000E+00  0.0000E+00  0.0000E+00  0.0000E+00  0.0000E+00  0.0000E+00  0.0000E+00  0.0000E+00
    -52.956  0.0000E+00  0.0000E+00  0.0000E+00  0.0000E+00  0.0000E+00  0.0000E+00  0.0000E+00  0.0000E+00  0.0000E+00  0.0000E+00  0.0000E+00  0.0000E+00  0.0000E+00  0.0000E+00  0.0000E+00  0.0000E+00  0.0000E+00  0.0000E+00
    -52.711  0.0000E+00  0.0000E+00  0.0000E+00  0.0000E+00  0.0000E+00  0.0000E+00  0.0000E+00  0.0000E+00  0.0000E+00  0.0000E+00  0.0000E+00  0.0000E+00  0.0000E+00  0.0000E+00  0.0000E+00  0.0000E+00  0.0000E+00  0.0000E+00
    -52.466  0.0000E+00  0.0000E+00  0.0000E+00  0.0000E+00  0.0000E+00  0.0000E+00  0.0000E+00  0.0000E+00  0.0000E+00  0.0000E+00  0.0000E+00  0.0000E+00  0.0000E+00  0.0000E+00  0.0000E+00  0.0000E+00  0.0000E+00  0.0000E+00
    -52.221  0.0000E+00  0.0000E+00  0.0000E+00  0.0000E+00  0.0000E+00  0.0000E+00  0.0000E+00  0.0000E+00  0.0000E+00  0.0000E+00  0.0000E+00  0.0000E+00  0.0000E+00  0.0000E+00  0.0000E+00  0.0000E+00  0.0000E+00  0.0000E+00
    -51.976  0.0000E+00  0.0000E+00  0.0000E+00  0.0000E+00  0.0000E+00  0.0000E+00  0.0000E+00  0.0000E+00  0.0000E+00  0.0000E+00  0.0000E+00  0.0000E+00  0.0000E+00  0.0000E+00  0.0000E+00  0.0000E+00  0.0000E+00  0.0000E+00
    -51.732  0.0000E+00  0.0000E+00  0.0000E+00  0.0000E+00  0.0000E+00  0.0000E+00  0.0000E+00  0.0000E+00  0.0000E+00  0.0000E+00  0.0000E+00  0.0000E+00  0.0000E+00  0.0000E+00  0.0000E+00  0.0000E+00  0.0000E+00  0.0000E+00
    -51.487  0.0000E+00  0.0000E+00  0.0000E+00  0.0000E+00  0.0000E+00  0.0000E+00  0.0000E+00  0.0000E+00  0.0000E+00  0.0000E+00  0.0000E+00  0.0000E+00  0.0000E+00  0.0000E+00  0.0000E+00  0.0000E+00  0.0000E+00  0.0000E+00
    -51.242  0.6260E-11  0.0000E+00  0.2033E-11  0.0000E+00  0.1546E-11  0.0000E+00  0.5796E-12  0.0000E+00  0.0000E+00  0.0000E+00  0.0000E+00  0.0000E+00  0.0000E+00  0.0000E+00  0.0000E+00  0.0000E+00  0.0000E+00  0.0000E+00
    -50.997  0.7974E-09  0.0000E+00  0.2590E-09  0.0000E+00  0.1970E-09  0.0000E+00  0.7383E-10  0.0000E+00  0.0000E+00  0.0000E+00  0.0000E+00  0.0000E+00  0.0000E+00  0.0000E+00  0.0000E+00  0.0000E+00  0.0000E+00  0.0000E+00
    -50.752  0.1556E-07  0.0000E+00  0.5059E-08  0.0000E+00  0.3860E-08  0.0000E+00  0.1443E-08  0.0000E+00  0.0000E+00  0.0000E+00  0.0000E+00  0.0000E+00  0.0000E+00  0.0000E+00  0.0000E+00  0.0000E+00  0.0000E+00  0.0000E+00
    -50.507  0.2766E-08  0.0000E+00  0.9003E-09  0.0000E+00  0.6894E-09  0.0000E+00  0.2571E-09  0.0000E+00  0.0000E+00  0.0000E+00  0.0000E+00  0.0000E+00  0.0000E+00  0.0000E+00  0.0000E+00  0.0000E+00  0.0000E+00  0.0000E+00
    -50.262  0.1441E-09  0.0000E+00  0.7503E-11  0.0000E+00  0.2018E-10  0.0000E+00  0.4815E-11  0.0000E+00  0.0000E+00  0.0000E+00  0.0000E+00  0.0000E+00  0.0000E+00  0.0000E+00  0.0000E+00  0.0000E+00  0.0000E+00  0.0000E+00
    -50.017  0.1587E-07  0.0000E+00  0.8264E-09  0.0000E+00  0.2223E-08  0.0000E+00  0.5304E-09  0.0000E+00  0.0000E+00  0.0000E+00  0.0000E+00  0.0000E+00  0.0000E+00  0.0000E+00  0.0000E+00  0.0000E+00  0.0000E+00  0.0000E+00
    -49.773  0.7105E-07  0.0000E+00  0.3707E-08  0.0000E+00  0.9971E-08  0.0000E+00  0.2384E-08  0.0000E+00  0.0000E+00  0.0000E+00  0.0000E+00  0.0000E+00  0.0000E+00  0.0000E+00  0.0000E+00  0.0000E+00  0.0000E+00  0.0000E+00
    -49.528  0.2618E-08  0.0000E+00  0.6337E-09  0.0000E+00  0.1029E-08  0.0000E+00  0.1015E-08  0.0000E+00  0.0000E+00  0.0000E+00  0.0000E+00  0.0000E+00  0.0000E+00  0.0000E+00  0.0000E+00  0.0000E+00  0.0000E+00  0.0000E+00
    -49.283  0.9010E-08  0.0000E+00  0.2181E-08  0.0000E+00  0.3541E-08  0.0000E+00  0.3495E-08  0.0000E+00  0.0000E+00  0.0000E+00  0.0000E+00  0.0000E+00  0.0000E+00  0.0000E+00  0.0000E+00  0.0000E+00  0.0000E+00  0.0000E+00
    -49.038  0.0000E+00  0.0000E+00  0.0000E+00  0.0000E+00  0.0000E+00  0.0000E+00  0.0000E+00  0.0000E+00  0.0000E+00  0.0000E+00  0.0000E+00  0.0000E+00  0.0000E+00  0.0000E+00  0.0000E+00  0.0000E+00  0.0000E+00  0.0000E+00
    -48.793  0.0000E+00  0.0000E+00  0.0000E+00  0.0000E+00  0.0000E+00  0.0000E+00  0.0000E+00  0.0000E+00  0.0000E+00  0.0000E+00  0.0000E+00  0.0000E+00  0.0000E+00  0.0000E+00  0.0000E+00  0.0000E+00  0.0000E+00  0.0000E+00
    -48.548  0.0000E+00  0.0000E+00  0.0000E+00  0.0000E+00  0.0000E+00  0.0000E+00  0.0000E+00  0.0000E+00  0.0000E+00  0.0000E+00  0.0000E+00  0.0000E+00  0.0000E+00  0.0000E+00  0.0000E+00  0.0000E+00  0.0000E+00  0.0000E+00
    -48.303  0.0000E+00  0.0000E+00  0.0000E+00  0.0000E+00  0.0000E+00  0.0000E+00  0.0000E+00  0.0000E+00  0.0000E+00  0.0000E+00  0.0000E+00  0.0000E+00  0.0000E+00  0.0000E+00  0.0000E+00  0.0000E+00  0.0000E+00  0.0000E+00
    -48.058  0.0000E+00  0.0000E+00  0.0000E+00  0.0000E+00  0.0000E+00  0.0000E+00  0.0000E+00  0.0000E+00  0.0000E+00  0.0000E+00  0.0000E+00  0.0000E+00  0.0000E+00  0.0000E+00  0.0000E+00  0.0000E+00  0.0000E+00  0.0000E+00
    -47.814  0.0000E+00  0.0000E+00  0.0000E+00  0.0000E+00  0.0000E+00  0.0000E+00  0.0000E+00  0.0000E+00  0.0000E+00  0.0000E+00  0.0000E+00  0.0000E+00  0.0000E+00  0.0000E+00  0.0000E+00  0.0000E+00  0.0000E+00  0.0000E+00
    -47.569  0.0000E+00  0.0000E+00  0.0000E+00  0.0000E+00  0.0000E+00  0.0000E+00  0.0000E+00  0.0000E+00  0.0000E+00  0.0000E+00  0.0000E+00  0.0000E+00  0.0000E+00  0.0000E+00  0.0000E+00  0.0000E+00  0.0000E+00  0.0000E+00
    -47.324  0.0000E+00  0.0000E+00  0.0000E+00  0.0000E+00  0.0000E+00  0.0000E+00  0.0000E+00  0.0000E+00  0.0000E+00  0.0000E+00  0.0000E+00  0.0000E+00  0.0000E+00  0.0000E+00  0.0000E+00  0.0000E+00  0.0000E+00  0.0000E+00
    -47.079  0.0000E+00  0.0000E+00  0.0000E+00  0.0000E+00  0.0000E+00  0.0000E+00  0.0000E+00  0.0000E+00  0.0000E+00  0.0000E+00  0.0000E+00  0.0000E+00  0.0000E+00  0.0000E+00  0.0000E+00  0.0000E+00  0.0000E+00  0.0000E+00
    -46.834  0.0000E+00  0.1965E-11  0.0000E+00  0.1316E-12  0.0000E+00  0.8823E-13  0.0000E+00  0.6632E-13  0.0000E+00  0.0000E+00  0.0000E+00  0.0000E+00  0.0000E+00  0.0000E+00  0.0000E+00  0.0000E+00  0.0000E+00  0.0000E+00
    -46.589  0.0000E+00  0.2643E-09  0.0000E+00  0.1751E-10  0.0000E+00  0.1182E-10  0.0000E+00  0.8860E-11  0.0000E+00  0.0000E+00  0.0000E+00  0.0000E+00  0.0000E+00  0.0000E+00  0.0000E+00  0.0000E+00  0.0000E+00  0.0000E+00
    -46.344  0.0000E+00  0.2616E-07  0.0000E+00  0.1728E-08  0.0000E+00  0.1171E-08  0.0000E+00  0.8762E-09  0.0000E+00  0.0000E+00  0.0000E+00  0.0000E+00  0.0000E+00  0.0000E+00  0.0000E+00  0.0000E+00  0.0000E+00  0.0000E+00
    -46.099  0.0000E+00  0.1275E-06  0.0000E+00  0.5503E-08  0.0000E+00  0.5092E-08  0.0000E+00  0.3407E-08  0.0000E+00  0.0000E+00  0.0000E+00  0.0000E+00  0.0000E+00  0.0000E+00  0.0000E+00  0.0000E+00  0.0000E+00  0.0000E+00
    -45.855  0.0000E+00  0.3439E-06  0.0000E+00  0.5074E-08  0.0000E+00  0.1172E-07  0.0000E+00  0.7152E-08  0.0000E+00  0.0000E+00  0.0000E+00  0.0000E+00  0.0000E+00  0.0000E+00  0.0000E+00  0.0000E+00  0.0000E+00  0.0000E+00
    -45.610  0.0000E+00  0.4924E-07  0.0000E+00  0.1401E-08  0.0000E+00  0.2040E-08  0.0000E+00  0.2970E-08  0.0000E+00  0.0000E+00  0.0000E+00  0.0000E+00  0.0000E+00  0.0000E+00  0.0000E+00  0.0000E+00  0.0000E+00  0.0000E+00
    -45.365  0.0000E+00  0.0000E+00  0.0000E+00  0.0000E+00  0.0000E+00  0.0000E+00  0.0000E+00  0.0000E+00  0.0000E+00  0.0000E+00  0.0000E+00  0.0000E+00  0.0000E+00  0.0000E+00  0.0000E+00  0.0000E+00  0.0000E+00  0.0000E+00
    -45.120  0.0000E+00  0.0000E+00  0.0000E+00  0.0000E+00  0.0000E+00  0.0000E+00  0.0000E+00  0.0000E+00  0.0000E+00  0.0000E+00  0.0000E+00  0.0000E+00  0.0000E+00  0.0000E+00  0.0000E+00  0.0000E+00  0.0000E+00  0.0000E+00
    -44.875  0.0000E+00  0.0000E+00  0.0000E+00  0.0000E+00  0.0000E+00  0.0000E+00  0.0000E+00  0.0000E+00  0.0000E+00  0.0000E+00  0.0000E+00  0.0000E+00  0.0000E+00  0.0000E+00  0.0000E+00  0.0000E+00  0.0000E+00  0.0000E+00
    -44.630  0.0000E+00  0.0000E+00  0.0000E+00  0.0000E+00  0.0000E+00  0.0000E+00  0.0000E+00  0.0000E+00  0.0000E+00  0.0000E+00  0.0000E+00  0.0000E+00  0.0000E+00  0.0000E+00  0.0000E+00  0.0000E+00  0.0000E+00  0.0000E+00
    -44.385  0.0000E+00  0.0000E+00  0.0000E+00  0.0000E+00  0.0000E+00  0.0000E+00  0.0000E+00  0.0000E+00  0.0000E+00  0.0000E+00  0.0000E+00  0.0000E+00  0.0000E+00  0.0000E+00  0.0000E+00  0.0000E+00  0.0000E+00  0.0000E+00
    -44.141  0.0000E+00  0.0000E+00  0.0000E+00  0.0000E+00  0.0000E+00  0.0000E+00  0.0000E+00  0.0000E+00  0.0000E+00  0.0000E+00  0.0000E+00  0.0000E+00  0.0000E+00  0.0000E+00  0.0000E+00  0.0000E+00  0.0000E+00  0.0000E+00
    -43.896  0.0000E+00  0.0000E+00  0.0000E+00  0.0000E+00  0.0000E+00  0.0000E+00  0.0000E+00  0.0000E+00  0.0000E+00  0.0000E+00  0.0000E+00  0.0000E+00  0.0000E+00  0.0000E+00  0.0000E+00  0.0000E+00  0.0000E+00  0.0000E+00
    -43.651  0.0000E+00  0.0000E+00  0.0000E+00  0.0000E+00  0.0000E+00  0.0000E+00  0.0000E+00  0.0000E+00  0.0000E+00  0.0000E+00  0.0000E+00  0.0000E+00  0.0000E+00  0.0000E+00  0.0000E+00  0.0000E+00  0.0000E+00  0.0000E+00
    -43.406  0.0000E+00  0.0000E+00  0.0000E+00  0.0000E+00  0.0000E+00  0.0000E+00  0.0000E+00  0.0000E+00  0.0000E+00  0.0000E+00  0.0000E+00  0.0000E+00  0.0000E+00  0.0000E+00  0.0000E+00  0.0000E+00  0.0000E+00  0.0000E+00
    -43.161  0.0000E+00  0.0000E+00  0.0000E+00  0.0000E+00  0.0000E+00  0.0000E+00  0.0000E+00  0.0000E+00  0.0000E+00  0.0000E+00  0.0000E+00  0.0000E+00  0.0000E+00  0.0000E+00  0.0000E+00  0.0000E+00  0.0000E+00  0.0000E+00
    -42.916  0.0000E+00  0.0000E+00  0.0000E+00  0.0000E+00  0.0000E+00  0.0000E+00  0.0000E+00  0.0000E+00  0.0000E+00  0.0000E+00  0.0000E+00  0.0000E+00  0.0000E+00  0.0000E+00  0.0000E+00  0.0000E+00  0.0000E+00  0.0000E+00
    -42.671  0.0000E+00  0.0000E+00  0.0000E+00  0.0000E+00  0.0000E+00  0.0000E+00  0.0000E+00  0.0000E+00  0.0000E+00  0.0000E+00  0.0000E+00  0.0000E+00  0.0000E+00  0.0000E+00  0.0000E+00  0.0000E+00  0.0000E+00  0.0000E+00
    -42.426  0.0000E+00  0.0000E+00  0.0000E+00  0.0000E+00  0.0000E+00  0.0000E+00  0.0000E+00  0.0000E+00  0.0000E+00  0.0000E+00  0.0000E+00  0.0000E+00  0.0000E+00  0.0000E+00  0.0000E+00  0.0000E+00  0.0000E+00  0.0000E+00
    -42.182  0.0000E+00  0.0000E+00  0.0000E+00  0.0000E+00  0.0000E+00  0.0000E+00  0.0000E+00  0.0000E+00  0.0000E+00  0.0000E+00  0.0000E+00  0.0000E+00  0.0000E+00  0.0000E+00  0.0000E+00  0.0000E+00  0.0000E+00  0.0000E+00
    -41.937  0.0000E+00  0.0000E+00  0.0000E+00  0.0000E+00  0.0000E+00  0.0000E+00  0.0000E+00  0.0000E+00  0.0000E+00  0.0000E+00  0.0000E+00  0.0000E+00  0.0000E+00  0.0000E+00  0.0000E+00  0.0000E+00  0.0000E+00  0.0000E+00