  28  28   1   0
  0.1370949E+02  0.5152653E-09  0.6572925E-09  0.1133417E-08  0.5000000E-15
  1.000000000000000E-004
  CAR 
 unknown system                          
     15.34442970    -57.04444258  301      3.13934903      1.00000000
    -57.044  0.0000E+00  0.0000E+00  0.0000E+00  0.0000E+00
    -56.803  0.0000E+00  0.0000E+00  0.0000E+00  0.0000E+00
    -56.562  0.0000E+00  0.0000E+00  0.0000E+00  0.0000E+00
    -56.321  0.0000E+00  0.0000E+00  0.0000E+00  0.0000E+00
    -56.079  0.0000E+00  0.0000E+00  0.0000E+00  0.0000E+00
    -55.838  0.0000E+00  0.0000E+00  0.0000E+00  0.0000E+00
    -55.597  0.0000E+00  0.0000E+00  0.0000E+00  0.0000E+00
    -55.355  0.0000E+00  0.0000E+00  0.0000E+00  0.0000E+00
    -55.114  0.0000E+00  0.0000E+00  0.0000E+00  0.0000E+00
    -54.873  0.0000E+00  0.0000E+00  0.0000E+00  0.0000E+00
    -54.631  0.0000E+00  0.0000E+00  0.0000E+00  0.0000E+00
    -54.390  0.4925E-04  0.0000E+00  0.1188E-04  0.0000E+00
    -54.149  0.6090E-02  0.0000E+00  0.1481E-02  0.0000E+00
    -53.908  0.7259E+00  0.0000E+00  0.1766E+00  0.0000E+00
    -53.666  0.1339E+02  0.0000E+00  0.3408E+01  0.0000E+00
    -53.425  0.2429E+01  0.0000E+00  0.3994E+01  0.0000E+00
    -53.184  0.2990E-02  0.0000E+00  0.4001E+01  0.0000E+00
    -52.942  0.3618E+00  0.0000E+00  0.4088E+01  0.0000E+00
    -52.701  0.1186E+02  0.0000E+00  0.6950E+01  0.0000E+00
    -52.460  0.5049E+01  0.0000E+00  0.8169E+01  0.0000E+00
    -52.219  0.1342E+02  0.0000E+00  0.1142E+02  0.0000E+00
    -51.977  0.2388E+01  0.0000E+00  0.1199E+02  0.0000E+00
    -51.736  0.0000E+00  0.0000E+00  0.1200E+02  0.0000E+00
    -51.495  0.0000E+00  0.0000E+00  0.1200E+02  0.0000E+00
    -51.253  0.0000E+00  0.0000E+00  0.1200E+02  0.0000E+00
    -51.012  0.0000E+00  0.0000E+00  0.1200E+02  0.0000E+00
    -50.771  0.0000E+00  0.0000E+00  0.1200E+02  0.0000E+00
    -50.529  0.0000E+00  0.0000E+00  0.1200E+02  0.0000E+00
    -50.288  0.0000E+00  0.0000E+00  0.1200E+02  0.0000E+00
    -50.047  0.0000E+00  0.0000E+00  0.1200E+02  0.0000E+00
    -49.806  0.0000E+00  0.0000E+00  0.1200E+02  0.0000E+00
    -49.564  0.0000E+00  0.3885E-02  0.1200E+02  0.9374E-03
    -49.323  0.0000E+00  0.4676E+00  0.1200E+02  0.1138E+00
    -49.082  0.0000E+00  0.1262E+02  0.1200E+02  0.3160E+01
    -48.840  0.0000E+00  0.1016E+02  0.1200E+02  0.5612E+01
    -48.599  0.0000E+00  0.2121E+02  0.1200E+02  0.1074E+02
    -48.358  0.0000E+00  0.4965E+01  0.1200E+02  0.1199E+02
    -48.116  0.0000E+00  0.0000E+00  0.1200E+02  0.1200E+02
    -47.875  0.0000E+00  0.0000E+00  0.1200E+02  0.1200E+02
    -47.634  0.0000E+00  0.0000E+00  0.1200E+02  0.1200E+02
    -47.393  0.0000E+00  0.0000E+00  0.1200E+02  0.1200E+02
    -47.151  0.0000E+00  0.0000E+00  0.1200E+02  0.1200E+02
    -46.910  0.0000E+00  0.0000E+00  0.1200E+02  0.1200E+02
    -46.669  0.0000E+00  0.0000E+00  0.1200E+02  0.1200E+02
    -46.427  0.0000E+00  0.0000E+00  0.1200E+02  0.1200E+02
    -46.186  0.0000E+00  0.0000E+00  0.1200E+02  0.1200E+02
    -45.945  0.0000E+00  0.0000E+00  0.1200E+02  0.1200E+02
    -45.704  0.0000E+00  0.0000E+00  0.1200E+02  0.1200E+02
    -45.462  0.0000E+00  0.0000E+00  0.1200E+02  0.1200E+02
    -45.221  0.0000E+00  0.0000E+00  0.1200E+02  0.1200E+02
    -44.980  0.0000E+00  0.0000E+00  0.1200E+02  0.1200E+02
    -44.738  0.0000E+00  0.0000E+00  0.1200E+02  0.1200E+02
    -44.497  0.0000E+00  0.0000E+00  0.1200E+02  0.1200E+02
    -44.256  0.0000E+00  0.0000E+00  0.1200E+02  0.1200E+02
    -44.014  0.0000E+00  0.0000E+00  0.1200E+02  0.1200E+02
    -43.773  0.0000E+00  0.0000E+00  0.1200E+02  0.1200E+02
    -43.532  0.0000E+00  0.0000E+00  0.1200E+02  0.1200E+02
    -43.291  0.1322E-03  0.1314E-03  0.1200E+02  0.1200E+02
    -43.049  0.1634E-01  0.1624E-01  0.1200E+02  0.1200E+02
    -42.808  0.1812E+01  0.1803E+01  0.1244E+02  0.1244E+02
    -42.567  0.1374E+02  0.1375E+02  0.1576E+02  0.1576E+02
    -42.325  0.9986E+00  0.1004E+01  0.1600E+02  0.1600E+02
    -42.084  0.0000E+00  0.0000E+00  0.1600E+02  0.1600E+02
    -41.843  0.0000E+00  0.0000E+00  0.1600E+02  0.1600E+02
    -41.601  0.0000E+00  0.0000E+00  0.1600E+02  0.1600E+02
    -41.360  0.0000E+00  0.0000E+00  0.1600E+02  0.1600E+02
    -41.119  0.0000E+00  0.0000E+00  0.1600E+02  0.1600E+02
    -40.878  0.0000E+00  0.0000E+00  0.1600E+02  0.1600E+02
    -40.636  0.0000E+00  0.0000E+00  0.1600E+02  0.1600E+02
    -40.395  0.0000E+00  0.0000E+00  0.1600E+02  0.1600E+02
    -40.154  0.0000E+00  0.0000E+00  0.1600E+02  0.1600E+02
    -39.912  0.0000E+00  0.0000E+00  0.1600E+02  0.1600E+02
    -39.671  0.0000E+00  0.0000E+00  0.1600E+02  0.1600E+02
    -39.430  0.0000E+00  0.0000E+00  0.1600E+02  0.1600E+02
    -39.189  0.0000E+00  0.0000E+00  0.1600E+02  0.1600E+02
    -38.947  0.0000E+00  0.0000E+00  0.1600E+02  0.1600E+02
    -38.706  0.0000E+00  0.0000E+00  0.1600E+02  0.1600E+02
    -38.465  0.0000E+00  0.0000E+00  0.1600E+02  0.1600E+02
    -38.223  0.0000E+00  0.0000E+00  0.1600E+02  0.1600E+02
    -37.982  0.0000E+00  0.0000E+00  0.1600E+02  0.1600E+02
    -37.741  0.0000E+00  0.0000E+00  0.1600E+02  0.1600E+02
    -37.499  0.0000E+00  0.0000E+00  0.1600E+02  0.1600E+02
    -37.258  0.0000E+00  0.0000E+00  0.1600E+02  0.1600E+02
    -37.017  0.0000E+00  0.0000E+00  0.1600E+02  0.1600E+02
    -36.776  0.0000E+00  0.0000E+00  0.1600E+02  0.1600E+02
    -36.534  0.0000E+00  0.0000E+00  0.1600E+02  0.1600E+02
    -36.293  0.0000E+00  0.0000E+00  0.1600E+02  0.1600E+02
    -36.052  0.0000E+00  0.0000E+00  0.1600E+02  0.1600E+02
    -35.810  0.0000E+00  0.0000E+00  0.1600E+02  0.1600E+02
    -35.569  0.0000E+00  0.0000E+00  0.1600E+02  0.1600E+02
    -35.328  0.0000E+00  0.0000E+00  0.1600E+02  0.1600E+02
    -35.086  0.0000E+00  0.0000E+00  0.1600E+02  0.1600E+02
    -34.845  0.0000E+00  0.0000E+00  0.1600E+02  0.1600E+02
    -34.604  0.0000E+00  0.0000E+00  0.1600E+02  0.1600E+02
    -34.363  0.0000E+00  0.0000E+00  0.1600E+02  0.1600E+02
    -34.121  0.0000E+00  0.0000E+00  0.1600E+02  0.1600E+02
    -33.880  0.0000E+00  0.0000E+00  0.1600E+02  0.1600E+02
    -33.639  0.0000E+00  0.0000E+00  0.1600E+02  0.1600E+02
    -33.397  0.0000E+00  0.0000E+00  0.1600E+02  0.1600E+02
    -33.156  0.0000E+00  0.0000E+00  0.1600E+02  0.1600E+02
    -32.915  0.0000E+00  0.0000E+00  0.1600E+02  0.1600E+02
    -32.674  0.0000E+00  0.0000E+00  0.1600E+02  0.1600E+02
    -32.432  0.0000E+00  0.0000E+00  0.1600E+02  0.1600E+02
    -32.191  0.0000E+00  0.0000E+00  0.1600E+02  0.1600E+02
    -31.950  0.0000E+00  0.0000E+00  0.1600E+02  0.1600E+02
    -31.708  0.0000E+00  0.0000E+00  0.1600E+02  0.1600E+02
    -31.467  0.0000E+00  0.0000E+00  0.1600E+02  0.1600E+02
    -31.226  0.0000E+00  0.0000E+00  0.1600E+02  0.1600E+02
    -30.984  0.0000E+00  0.0000E+00  0.1600E+02  0.1600E+02
    -30.743  0.0000E+00  0.0000E+00  0.1600E+02  0.1600E+02
    -30.502  0.0000E+00  0.0000E+00  0.1600E+02  0.1600E+02
    -30.261  0.0000E+00  0.0000E+00  0.1600E+02  0.1600E+02
    -30.019  0.0000E+00  0.0000E+00  0.1600E+02  0.1600E+02
    -29.778  0.0000E+00  0.0000E+00  0.1600E+02  0.1600E+02
    -29.537  0.0000E+00  0.0000E+00  0.1600E+02  0.1600E+02
    -29.295  0.0000E+00  0.0000E+00  0.1600E+02  0.1600E+02
    -29.054  0.0000E+00  0.0000E+00  0.1600E+02  0.1600E+02
    -28.813  0.0000E+00  0.0000E+00  0.1600E+02  0.1600E+02
    -28.571  0.0000E+00  0.0000E+00  0.1600E+02  0.1600E+02
    -28.330  0.0000E+00  0.0000E+00  0.1600E+02  0.1600E+02
    -28.089  0.0000E+00  0.0000E+00  0.1600E+02  0.1600E+02
    -27.848  0.0000E+00  0.0000E+00  0.1600E+02  0.1600E+02
    -27.606  0.0000E+00  0.0000E+00  0.1600E+02  0.1600E+02
    -27.365  0.0000E+00  0.0000E+00  0.1600E+02  0.1600E+02
    -27.124  0.0000E+00  0.0000E+00  0.1600E+02  0.1600E+02
    -26.882  0.0000E+00  0.0000E+00  0.1600E+02  0.1600E+02
    -26.641  0.0000E+00  0.0000E+00  0.1600E+02  0.1600E+02
    -26.400  0.0000E+00  0.0000E+00  0.1600E+02  0.1600E+02
    -26.159  0.0000E+00  0.0000E+00  0.1600E+02  0.1600E+02
    -25.917  0.0000E+00  0.0000E+00  0.1600E+02  0.1600E+02
    -25.676  0.0000E+00  0.0000E+00  0.1600E+02  0.1600E+02
    -25.435  0.0000E+00  0.0000E+00  0.1600E+02  0.1600E+02
    -25.193  0.0000E+00  0.0000E+00  0.1600E+02  0.1600E+02
    -24.952  0.0000E+00  0.0000E+00  0.1600E+02  0.1600E+02
    -24.711  0.0000E+00  0.0000E+00  0.1600E+02  0.1600E+02
    -24.469  0.0000E+00  0.0000E+00  0.1600E+02  0.1600E+02
    -24.228  0.0000E+00  0.0000E+00  0.1600E+02  0.1600E+02
    -23.987  0.0000E+00  0.0000E+00  0.1600E+02  0.1600E+02
    -23.746  0.0000E+00  0.0000E+00  0.1600E+02  0.1600E+02
    -23.504  0.0000E+00  0.0000E+00  0.1600E+02  0.1600E+02
    -23.263  0.0000E+00  0.0000E+00  0.1600E+02  0.1600E+02
    -23.022  0.0000E+00  0.0000E+00  0.1600E+02  0.1600E+02
    -22.780  0.0000E+00  0.0000E+00  0.1600E+02  0.1600E+02
    -22.539  0.0000E+00  0.0000E+00  0.1600E+02  0.1600E+02
    -22.298  0.0000E+00  0.0000E+00  0.1600E+02  0.1600E+02
    -22.056  0.0000E+00  0.0000E+00  0.1600E+02  0.1600E+02
    -21.815  0.0000E+00  0.0000E+00  0.1600E+02  0.1600E+02
    -21.574  0.0000E+00  0.0000E+00  0.1600E+02  0.1600E+02
    -21.333  0.0000E+00  0.0000E+00  0.1600E+02  0.1600E+02
    -21.091  0.0000E+00  0.0000E+00  0.1600E+02  0.1600E+02
    -20.850  0.0000E+00  0.0000E+00  0.1600E+02  0.1600E+02
    -20.609  0.0000E+00  0.0000E+00  0.1600E+02  0.1600E+02
    -20.367  0.0000E+00  0.0000E+00  0.1600E+02  0.1600E+02
    -20.126  0.0000E+00  0.0000E+00  0.1600E+02  0.1600E+02
    -19.885  0.0000E+00  0.0000E+00  0.1600E+02  0.1600E+02
    -19.644  0.0000E+00  0.0000E+00  0.1600E+02  0.1600E+02
    -19.402  0.0000E+00  0.0000E+00  0.1600E+02  0.1600E+02
    -19.161  0.0000E+00  0.0000E+00  0.1600E+02  0.1600E+02
    -18.920  0.0000E+00  0.0000E+00  0.1600E+02  0.1600E+02
    -18.678  0.0000E+00  0.0000E+00  0.1600E+02  0.1600E+02
    -18.437  0.1333E-03  0.1721E-04  0.1600E+02  0.1600E+02
    -18.196  0.1755E-01  0.3588E-02  0.1600E+02  0.1600E+02
    -17.954  0.1641E+01  0.4138E+00  0.1640E+02  0.1610E+02
    -17.713  0.1240E+02  0.9493E+01  0.1939E+02  0.1839E+02
    -17.472  0.2419E+01  0.6524E+01  0.1999E+02  0.1997E+02
    -17.231  0.0000E+00  0.0000E+00  0.2000E+02  0.2000E+02
    -16.989  0.0000E+00  0.0000E+00  0.2000E+02  0.2000E+02
    -16.748  0.2834E-04  0.0000E+00  0.2000E+02  0.2000E+02
    -16.507  0.6892E-02  0.1218E-02  0.2000E+02  0.2000E+02
    -16.265  0.8198E+00  0.1515E+00  0.2020E+02  0.2004E+02
    -16.024  0.2281E+02  0.9663E+01  0.2570E+02  0.2237E+02
    -15.783  0.2456E+02  0.3368E+02  0.3163E+02  0.3050E+02
    -15.541  0.1238E+01  0.5849E+01  0.3200E+02  0.3198E+02
    -15.300  0.0000E+00  0.0000E+00  0.3200E+02  0.3200E+02
    -15.059  0.0000E+00  0.0000E+00  0.3200E+02  0.3200E+02
    -14.818  0.0000E+00  0.0000E+00  0.3200E+02  0.3200E+02
    -14.576  0.0000E+00  0.0000E+00  0.3200E+02  0.3200E+02
    -14.335  0.0000E+00  0.0000E+00  0.3200E+02  0.3200E+02
    -14.094  0.0000E+00  0.0000E+00  0.3200E+02  0.3200E+02
    -13.852  0.0000E+00  0.0000E+00  0.3200E+02  0.3200E+02
    -13.611  0.0000E+00  0.0000E+00  0.3200E+02  0.3200E+02
    -13.370  0.0000E+00  0.0000E+00  0.3200E+02  0.3200E+02
    -13.129  0.0000E+00  0.0000E+00  0.3200E+02  0.3200E+02
    -12.887  0.0000E+00  0.0000E+00  0.3200E+02  0.3200E+02
    -12.646  0.0000E+00  0.0000E+00  0.3200E+02  0.3200E+02
    -12.405  0.0000E+00  0.0000E+00  0.3200E+02  0.3200E+02
    -12.163  0.0000E+00  0.0000E+00  0.3200E+02  0.3200E+02
    -11.922  0.0000E+00  0.0000E+00  0.3200E+02  0.3200E+02
    -11.681  0.0000E+00  0.0000E+00  0.3200E+02  0.3200E+02
    -11.439  0.0000E+00  0.0000E+00  0.3200E+02  0.3200E+02
    -11.198  0.0000E+00  0.0000E+00  0.3200E+02  0.3200E+02
    -10.957  0.0000E+00  0.0000E+00  0.3200E+02  0.3200E+02
    -10.716  0.0000E+00  0.0000E+00  0.3200E+02  0.3200E+02
    -10.474  0.0000E+00  0.0000E+00  0.3200E+02  0.3200E+02
    -10.233  0.0000E+00  0.0000E+00  0.3200E+02  0.3200E+02
     -9.992  0.0000E+00  0.0000E+00  0.3200E+02  0.3200E+02
     -9.750  0.0000E+00  0.0000E+00  0.3200E+02  0.3200E+02
     -9.509  0.0000E+00  0.0000E+00  0.3200E+02  0.3200E+02
     -9.268  0.0000E+00  0.0000E+00  0.3200E+02  0.3200E+02
     -9.026  0.0000E+00  0.0000E+00  0.3200E+02  0.3200E+02
     -8.785  0.0000E+00  0.0000E+00  0.3200E+02  0.3200E+02
     -8.544  0.0000E+00  0.0000E+00  0.3200E+02  0.3200E+02
     -8.303  0.0000E+00  0.0000E+00  0.3200E+02  0.3200E+02
     -8.061  0.0000E+00  0.0000E+00  0.3200E+02  0.3200E+02
     -7.820  0.0000E+00  0.0000E+00  0.3200E+02  0.3200E+02
     -7.579  0.0000E+00  0.0000E+00  0.3200E+02  0.3200E+02
     -7.337  0.1791E-03  0.2237E-04  0.3200E+02  0.3200E+02
     -7.096  0.2348E-01  0.3782E-02  0.3201E+02  0.3200E+02
     -6.855  0.1737E+01  0.4121E+00  0.3242E+02  0.3210E+02
     -6.614  0.1201E+02  0.8330E+01  0.3532E+02  0.3411E+02
     -6.372  0.2725E+01  0.7643E+01  0.3599E+02  0.3596E+02
     -6.131  0.0000E+00  0.0000E+00  0.3600E+02  0.3600E+02
     -5.890  0.0000E+00  0.0000E+00  0.3600E+02  0.3600E+02
     -5.648  0.0000E+00  0.0000E+00  0.3600E+02  0.3600E+02
     -5.407  0.0000E+00  0.0000E+00  0.3600E+02  0.3600E+02
     -5.166  0.0000E+00  0.0000E+00  0.3600E+02  0.3600E+02
     -4.924  0.9468E-05  0.0000E+00  0.3600E+02  0.3600E+02
     -4.683  0.1379E-02  0.5968E-04  0.3600E+02  0.3600E+02
     -4.442  0.1369E+00  0.7649E-02  0.3603E+02  0.3600E+02
     -4.201  0.2006E+01  0.4681E+00  0.3652E+02  0.3611E+02
     -3.959  0.5968E+01  0.3406E+01  0.3796E+02  0.3694E+02
     -3.718  0.1138E+02  0.6931E+01  0.4072E+02  0.3861E+02
     -3.477  0.1498E+02  0.1462E+02  0.4434E+02  0.4215E+02
     -3.235  0.1335E+02  0.1697E+02  0.4759E+02  0.4627E+02
     -2.994  0.1494E+01  0.6843E+01  0.4800E+02  0.4796E+02
     -2.753  0.2871E-02  0.7815E-01  0.4800E+02  0.4800E+02
     -2.511  0.3050E+00  0.1968E-03  0.4807E+02  0.4800E+02
     -2.270  0.4445E+01  0.2467E-01  0.4915E+02  0.4801E+02
     -2.029  0.8850E+01  0.1556E+01  0.5129E+02  0.4838E+02
     -1.788  0.1299E+02  0.6798E+01  0.5444E+02  0.5002E+02
     -1.546  0.1420E+02  0.8065E+01  0.5789E+02  0.5198E+02
     -1.305  0.9067E+01  0.1366E+02  0.6011E+02  0.5529E+02
     -1.064  0.1628E+02  0.1357E+02  0.6405E+02  0.5859E+02
     -0.822  0.1775E+02  0.1351E+02  0.6836E+02  0.6188E+02
     -0.581  0.1515E+02  0.1272E+02  0.7206E+02  0.6497E+02
     -0.340  0.1830E+02  0.1209E+02  0.7650E+02  0.6792E+02
     -0.099  0.1577E+02  0.7168E+01  0.8035E+02  0.6969E+02
      0.143  0.1309E+02  0.1753E+02  0.8354E+02  0.7392E+02
      0.384  0.7728E+01  0.1437E+02  0.8544E+02  0.7742E+02
      0.625  0.1582E+02  0.8373E+01  0.8926E+02  0.7947E+02
      0.867  0.2238E+02  0.2067E+01  0.9469E+02  0.7999E+02
      1.108  0.8504E+01  0.2659E-02  0.9681E+02  0.8000E+02
      1.349  0.1018E+02  0.0000E+00  0.9929E+02  0.8000E+02
      1.591  0.2829E+01  0.0000E+00  0.9999E+02  0.8000E+02
      1.832  0.0000E+00  0.0000E+00  0.1000E+03  0.8000E+02
      2.073  0.0000E+00  0.0000E+00  0.1000E+03  0.8000E+02
      2.314  0.0000E+00  0.1316E-04  0.1000E+03  0.8000E+02
      2.556  0.0000E+00  0.3965E-02  0.1000E+03  0.8000E+02
      2.797  0.0000E+00  0.4721E+00  0.1000E+03  0.8011E+02
      3.038  0.0000E+00  0.1197E+02  0.1000E+03  0.8300E+02
      3.280  0.2169E-05  0.1113E+02  0.1000E+03  0.8569E+02
      3.521  0.2839E-03  0.2226E+02  0.1000E+03  0.9107E+02
      3.762  0.2212E-01  0.9254E+01  0.1000E+03  0.9336E+02
      4.004  0.1545E+00  0.8196E+01  0.1000E+03  0.9535E+02
      4.245  0.2825E+00  0.5738E+01  0.1001E+03  0.9675E+02
      4.486  0.4175E+00  0.1177E+02  0.1002E+03  0.9960E+02
      4.727  0.5748E+00  0.2098E+01  0.1004E+03  0.1001E+03
      4.969  0.7196E+00  0.4690E+00  0.1005E+03  0.1002E+03
      5.210  0.9957E+00  0.6560E+00  0.1008E+03  0.1004E+03
      5.451  0.1294E+01  0.8393E+00  0.1011E+03  0.1006E+03
      5.693  0.1589E+01  0.1122E+01  0.1015E+03  0.1009E+03
      5.934  0.1686E+01  0.1562E+01  0.1019E+03  0.1013E+03
      6.175  0.2464E+01  0.2035E+01  0.1025E+03  0.1018E+03
      6.416  0.3481E+01  0.2883E+01  0.1033E+03  0.1025E+03
      6.658  0.2776E+01  0.4194E+01  0.1040E+03  0.1035E+03
      6.899  0.3015E+01  0.2088E+01  0.1047E+03  0.1040E+03
      7.140  0.5147E+01  0.1543E+00  0.1060E+03  0.1040E+03
      7.382  0.3948E+01  0.2545E+01  0.1069E+03  0.1046E+03
      7.623  0.3353E+01  0.5761E+01  0.1078E+03  0.1060E+03
      7.864  0.4543E+01  0.5671E+01  0.1089E+03  0.1074E+03
      8.106  0.6224E+01  0.5647E+01  0.1104E+03  0.1088E+03
      8.347  0.6109E+01  0.6630E+01  0.1119E+03  0.1104E+03
      8.588  0.8130E+01  0.7657E+01  0.1138E+03  0.1123E+03
      8.829  0.6566E+01  0.8245E+01  0.1154E+03  0.1143E+03
      9.071  0.5763E+01  0.6264E+01  0.1168E+03  0.1158E+03
      9.312  0.4685E+01  0.4115E+01  0.1180E+03  0.1168E+03
      9.553  0.6700E+01  0.5895E+01  0.1196E+03  0.1182E+03
      9.795  0.4454E+01  0.6530E+01  0.1207E+03  0.1198E+03
     10.036  0.5730E+01  0.3015E+01  0.1221E+03  0.1206E+03
     10.277  0.5408E+01  0.5601E+01  0.1234E+03  0.1219E+03
     10.519  0.3503E+01  0.5440E+01  0.1243E+03  0.1232E+03
     10.760  0.4533E+01  0.3873E+01  0.1254E+03  0.1242E+03
     11.001  0.3931E+01  0.4304E+01  0.1263E+03  0.1252E+03
     11.242  0.3228E+01  0.3395E+01  0.1271E+03  0.1261E+03
     11.484  0.2392E+01  0.3075E+01  0.1277E+03  0.1268E+03
     11.725  0.1063E+01  0.2810E+01  0.1280E+03  0.1275E+03
     11.966  0.1844E+00  0.1720E+01  0.1280E+03  0.1279E+03
     12.208  0.1756E-02  0.3525E+00  0.1280E+03  0.1280E+03
     12.449  0.0000E+00  0.1868E-02  0.1280E+03  0.1280E+03
     12.690  0.0000E+00  0.0000E+00  0.1280E+03  0.1280E+03
     12.931  0.0000E+00  0.0000E+00  0.1280E+03  0.1280E+03
     13.173  0.0000E+00  0.0000E+00  0.1280E+03  0.1280E+03
     13.414  0.0000E+00  0.0000E+00  0.1280E+03  0.1280E+03
     13.655  0.0000E+00  0.0000E+00  0.1280E+03  0.1280E+03
     13.897  0.0000E+00  0.0000E+00  0.1280E+03  0.1280E+03
     14.138  0.0000E+00  0.0000E+00  0.1280E+03  0.1280E+03
     14.379  0.0000E+00  0.0000E+00  0.1280E+03  0.1280E+03
     14.621  0.0000E+00  0.0000E+00  0.1280E+03  0.1280E+03
     14.862  0.0000E+00  0.0000E+00  0.1280E+03  0.1280E+03
     15.103  0.0000E+00  0.0000E+00  0.1280E+03  0.1280E+03
     15.344  0.0000E+00  0.0000E+00  0.1280E+03  0.1280E+03
     15.34442970    -57.04444258  301      3.13934903      1.00000000
    -57.044  0.0000E+00  0.0000E+00  0.0000E+00  0.0000E+00  0.0000E+00  0.0000E+00  0.0000E+00  0.0000E+00  0.0000E+00  0.0000E+00  0.0000E+00  0.0000E+00  0.0000E+00  0.0000E+00  0.0000E+00  0.0000E+00  0.0000E+00  0.0000E+00
    -56.803  0.0000E+00  0.0000E+00  0.0000E+00  0.0000E+00  0.0000E+00  0.0000E+00  0.0000E+00  0.0000E+00  0.0000E+00  0.0000E+00  0.0000E+00  0.0000E+00  0.0000E+00  0.0000E+00  0.0000E+00  0.0000E+00  0.0000E+00  0.0000E+00
    -56.562  0.0000E+00  0.0000E+00  0.0000E+00  0.0000E+00  0.0000E+00  0.0000E+00  0.0000E+00  0.0000E+00  0.0000E+00  0.0000E+00  0.0000E+00  0.0000E+00  0.0000E+00  0.0000E+00  0.0000E+00  0.0000E+00  0.0000E+00  0.0000E+00
    -56.321  0.0000E+00  0.0000E+00  0.0000E+00  0.0000E+00  0.0000E+00  0.0000E+00  0.0000E+00  0.0000E+00  0.0000E+00  0.0000E+00  0.0000E+00  0.0000E+00  0.0000E+00  0.0000E+00  0.0000E+00  0.0000E+00  0.0000E+00  0.0000E+00
    -56.079  0.0000E+00  0.0000E+00  0.0000E+00  0.0000E+00  0.0000E+00  0.0000E+00  0.0000E+00  0.0000E+00  0.0000E+00  0.0000E+00  0.0000E+00  0.0000E+00  0.0000E+00  0.0000E+00  0.0000E+00  0.0000E+00  0.0000E+00  0.0000E+00
    -55.838  0.0000E+00  0.0000E+00  0.0000E+00  0.0000E+00  0.0000E+00  0.0000E+00  0.0000E+00  0.0000E+00  0.0000E+00  0.0000E+00  0.0000E+00  0.0000E+00  0.0000E+00  0.0000E+00  0.0000E+00  0.0000E+00  0.0000E+00  0.0000E+00
    -55.597  0.0000E+00  0.0000E+00  0.0000E+00  0.0000E+00  0.0000E+00  0.0000E+00  0.0000E+00  0.0000E+00  0.0000E+00  0.0000E+00  0.0000E+00  0.0000E+00  0.0000E+00  0.0000E+00  0.0000E+00  0.0000E+00  0.0000E+00  0.0000E+00
    -55.355  0.0000E+00  0.0000E+00  0.0000E+00  0.0000E+00  0.0000E+00  0.0000E+00  0.0000E+00  0.0000E+00  0.0000E+00  0.0000E+00  0.0000E+00  0.0000E+00  0.0000E+00  0.0000E+00  0.0000E+00  0.0000E+00  0.0000E+00  0.0000E+00
    -55.114  0.0000E+00  0.0000E+00  0.0000E+00  0.0000E+00  0.0000E+00  0.0000E+00  0.0000E+00  0.0000E+00  0.0000E+00  0.0000E+00  0.0000E+00  0.0000E+00  0.0000E+00  0.0000E+00  0.0000E+00  0.0000E+00  0.0000E+00  0.0000E+00
    -54.873  0.0000E+00  0.0000E+00  0.0000E+00  0.0000E+00  0.0000E+00  0.0000E+00  0.0000E+00  0.0000E+00  0.0000E+00  0.0000E+00  0.0000E+00  0.0000E+00  0.0000E+00  0.0000E+00  0.0000E+00  0.0000E+00  0.0000E+00  0.0000E+00
    -54.631  0.0000E+00  0.0000E+00  0.0000E+00  0.0000E+00  0.0000E+00  0.0000E+00  0.0000E+00  0.0000E+00  0.0000E+00  0.0000E+00  0.0000E+00  0.0000E+00  0.0000E+00  0.0000E+00  0.0000E+00  0.0000E+00  0.0000E+00  0.0000E+00
    -54.390  0.8386E-14  0.0000E+00  0.9824E-14  0.0000E+00  0.1080E-13  0.0000E+00  0.2970E-14  0.0000E+00  0.0000E+00  0.0000E+00  0.0000E+00  0.0000E+00  0.0000E+00  0.0000E+00  0.0000E+00  0.0000E+00  0.0000E+00  0.0000E+00
    -54.149  0.1037E-11  0.0000E+00  0.1215E-11  0.0000E+00  0.1335E-11  0.0000E+00  0.3673E-12  0.0000E+00  0.0000E+00  0.0000E+00  0.0000E+00  0.0000E+00  0.0000E+00  0.0000E+00  0.0000E+00  0.0000E+00  0.0000E+00  0.0000E+00
    -53.908  0.1236E-09  0.0000E+00  0.1448E-09  0.0000E+00  0.1592E-09  0.0000E+00  0.4378E-10  0.0000E+00  0.0000E+00  0.0000E+00  0.0000E+00  0.0000E+00  0.0000E+00  0.0000E+00  0.0000E+00  0.0000E+00  0.0000E+00  0.0000E+00
    -53.666  0.2280E-08  0.0000E+00  0.2670E-08  0.0000E+00  0.2938E-08  0.0000E+00  0.8078E-09  0.0000E+00  0.0000E+00  0.0000E+00  0.0000E+00  0.0000E+00  0.0000E+00  0.0000E+00  0.0000E+00  0.0000E+00  0.0000E+00  0.0000E+00
    -53.425  0.4133E-09  0.0000E+00  0.4840E-09  0.0000E+00  0.5330E-09  0.0000E+00  0.1465E-09  0.0000E+00  0.0000E+00  0.0000E+00  0.0000E+00  0.0000E+00  0.0000E+00  0.0000E+00  0.0000E+00  0.0000E+00  0.0000E+00  0.0000E+00
    -53.184  0.1142E-11  0.0000E+00  0.7081E-12  0.0000E+00  0.2034E-11  0.0000E+00  0.4264E-12  0.0000E+00  0.0000E+00  0.0000E+00  0.0000E+00  0.0000E+00  0.0000E+00  0.0000E+00  0.0000E+00  0.0000E+00  0.0000E+00  0.0000E+00
    -52.942  0.1382E-09  0.0000E+00  0.8567E-10  0.0000E+00  0.2461E-09  0.0000E+00  0.5160E-10  0.0000E+00  0.0000E+00  0.0000E+00  0.0000E+00  0.0000E+00  0.0000E+00  0.0000E+00  0.0000E+00  0.0000E+00  0.0000E+00  0.0000E+00
    -52.701  0.4530E-08  0.0000E+00  0.2808E-08  0.0000E+00  0.8065E-08  0.0000E+00  0.1692E-08  0.0000E+00  0.0000E+00  0.0000E+00  0.0000E+00  0.0000E+00  0.0000E+00  0.0000E+00  0.0000E+00  0.0000E+00  0.0000E+00  0.0000E+00
    -52.460  0.1720E-08  0.0000E+00  0.1079E-08  0.0000E+00  0.3023E-08  0.0000E+00  0.7109E-09  0.0000E+00  0.0000E+00  0.0000E+00  0.0000E+00  0.0000E+00  0.0000E+00  0.0000E+00  0.0000E+00  0.0000E+00  0.0000E+00  0.0000E+00
    -52.219  0.1334E-08  0.0000E+00  0.1062E-08  0.0000E+00  0.1685E-08  0.0000E+00  0.1748E-08  0.0000E+00  0.0000E+00  0.0000E+00  0.0000E+00  0.0000E+00  0.0000E+00  0.0000E+00  0.0000E+00  0.0000E+00  0.0000E+00  0.0000E+00
    -51.977  0.2374E-09  0.0000E+00  0.1890E-09  0.0000E+00  0.2996E-09  0.0000E+00  0.3110E-09  0.0000E+00  0.0000E+00  0.0000E+00  0.0000E+00  0.0000E+00  0.0000E+00  0.0000E+00  0.0000E+00  0.0000E+00  0.0000E+00  0.0000E+00
    -51.736  0.0000E+00  0.0000E+00  0.0000E+00  0.0000E+00  0.0000E+00  0.0000E+00  0.0000E+00  0.0000E+00  0.0000E+00  0.0000E+00  0.0000E+00  0.0000E+00  0.0000E+00  0.0000E+00  0.0000E+00  0.0000E+00  0.0000E+00  0.0000E+00
    -51.495  0.0000E+00  0.0000E+00  0.0000E+00  0.0000E+00  0.0000E+00  0.0000E+00  0.0000E+00  0.0000E+00  0.0000E+00  0.0000E+00  0.0000E+00  0.0000E+00  0.0000E+00  0.0000E+00  0.0000E+00  0.0000E+00  0.0000E+00  0.0000E+00
    -51.253  0.0000E+00  0.0000E+00  0.0000E+00  0.0000E+00  0.0000E+00  0.0000E+00  0.0000E+00  0.0000E+00  0.0000E+00  0.0000E+00  0.0000E+00  0.0000E+00  0.0000E+00  0.0000E+00  0.0000E+00  0.0000E+00  0.0000E+00  0.0000E+00
    -51.012  0.0000E+00  0.0000E+00  0.0000E+00  0.0000E+00  0.0000E+00  0.0000E+00  0.0000E+00  0.0000E+00  0.0000E+00  0.0000E+00  0.0000E+00  0.0000E+00  0.0000E+00  0.0000E+00  0.0000E+00  0.0000E+00  0.0000E+00  0.0000E+00
    -50.771  0.0000E+00  0.0000E+00  0.0000E+00  0.0000E+00  0.0000E+00  0.0000E+00  0.0000E+00  0.0000E+00  0.0000E+00  0.0000E+00  0.0000E+00  0.0000E+00  0.0000E+00  0.0000E+00  0.0000E+00  0.0000E+00  0.0000E+00  0.0000E+00
    -50.529  0.0000E+00  0.0000E+00  0.0000E+00  0.0000E+00  0.0000E+00  0.0000E+00  0.0000E+00  0.0000E+00  0.0000E+00  0.0000E+00  0.0000E+00  0.0000E+00  0.0000E+00  0.0000E+00  0.0000E+00  0.0000E+00  0.0000E+00  0.0000E+00
    -50.288  0.0000E+00  0.0000E+00  0.0000E+00  0.0000E+00  0.0000E+00  0.0000E+00  0.0000E+00  0.0000E+00  0.0000E+00  0.0000E+00  0.0000E+00  0.0000E+00  0.0000E+00  0.0000E+00  0.0000E+00  0.0000E+00  0.0000E+00  0.0000E+00
    -50.047  0.0000E+00  0.0000E+00  0.0000E+00  0.0000E+00  0.0000E+00  0.0000E+00  0.0000E+00  0.0000E+00  0.0000E+00  0.0000E+00  0.0000E+00  0.0000E+00  0.0000E+00  0.0000E+00  0.0000E+00  0.0000E+00  0.0000E+00  0.0000E+00
    -49.806  0.0000E+00  0.0000E+00  0.0000E+00  0.0000E+00  0.0000E+00  0.0000E+00  0.0000E+00  0.0000E+00  0.0000E+00  0.0000E+00  0.0000E+00  0.0000E+00  0.0000E+00  0.0000E+00  0.0000E+00  0.0000E+00  0.0000E+00  0.0000E+00
    -49.564  0.0000E+00  0.1784E-11  0.0000E+00  0.8761E-12  0.0000E+00  0.9252E-12  0.0000E+00  0.4765E-12  0.0000E+00  0.0000E+00  0.0000E+00  0.0000E+00  0.0000E+00  0.0000E+00  0.0000E+00  0.0000E+00  0.0000E+00  0.0000E+00
    -49.323  0.0000E+00  0.2155E-09  0.0000E+00  0.1055E-09  0.0000E+00  0.1117E-09  0.0000E+00  0.5744E-10  0.0000E+00  0.0000E+00  0.0000E+00  0.0000E+00  0.0000E+00  0.0000E+00  0.0000E+00  0.0000E+00  0.0000E+00  0.0000E+00
    -49.082  0.0000E+00  0.5884E-08  0.0000E+00  0.2850E-08  0.0000E+00  0.3054E-08  0.0000E+00  0.1559E-08  0.0000E+00  0.0000E+00  0.0000E+00  0.0000E+00  0.0000E+00  0.0000E+00  0.0000E+00  0.0000E+00  0.0000E+00  0.0000E+00
    -48.840  0.0000E+00  0.1158E-07  0.0000E+00  0.2611E-08  0.0000E+00  0.5993E-08  0.0000E+00  0.2094E-08  0.0000E+00  0.0000E+00  0.0000E+00  0.0000E+00  0.0000E+00  0.0000E+00  0.0000E+00  0.0000E+00  0.0000E+00  0.0000E+00
    -48.599  0.0000E+00  0.1880E-07  0.0000E+00  0.4167E-08  0.0000E+00  0.1036E-07  0.0000E+00  0.5737E-08  0.0000E+00  0.0000E+00  0.0000E+00  0.0000E+00  0.0000E+00  0.0000E+00  0.0000E+00  0.0000E+00  0.0000E+00  0.0000E+00
    -48.358  0.0000E+00  0.1446E-08  0.0000E+00  0.6054E-09  0.0000E+00  0.1043E-08  0.0000E+00  0.1438E-08  0.0000E+00  0.0000E+00  0.0000E+00  0.0000E+00  0.0000E+00  0.0000E+00  0.0000E+00  0.0000E+00  0.0000E+00  0.0000E+00
    -48.116  0.0000E+00  0.0000E+00  0.0000E+00  0.0000E+00  0.0000E+00  0.0000E+00  0.0000E+00  0.0000E+00  0.0000E+00  0.0000E+00  0.0000E+00  0.0000E+00  0.0000E+00  0.0000E+00  0.0000E+00  0.0000E+00  0.0000E+00  0.0000E+00
    -47.875  0.0000E+00  0.0000E+00  0.0000E+00  0.0000E+00  0.0000E+00  0.0000E+00  0.0000E+00  0.0000E+00  0.0000E+00  0.0000E+00  0.0000E+00  0.0000E+00  0.0000E+00  0.0000E+00  0.0000E+00  0.0000E+00  0.0000E+00  0.0000E+00
    -47.634  0.0000E+00  0.0000E+00  0.0000E+00  0.0000E+00  0.0000E+00  0.0000E+00  0.0000E+00  0.0000E+00  0.0000E+00  0.0000E+00  0.0000E+00  0.0000E+00  0.0000E+00  0.0000E+00  0.0000E+00  0.0000E+00  0.0000E+00  0.0000E+00
    -47.393  0.0000E+00  0.0000E+00  0.0000E+00  0.0000E+00  0.0000E+00  0.0000E+00  0.0000E+00  0.0000E+00  0.0000E+00  0.0000E+00  0.0000E+00  0.0000E+00  0.0000E+00  0.0000E+00  0.0000E+00  0.0000E+00  0.0000E+00  0.0000E+00
    -47.151  0.0000E+00  0.0000E+00  0.0000E+00  0.0000E+00  0.0000E+00  0.0000E+00  0.0000E+00  0.0000E+00  0.0000E+00  0.0000E+00  0.0000E+00  0.0000E+00  0.0000E+00  0.0000E+00  0.0000E+00  0.0000E+00  0.0000E+00  0.0000E+00
    -46.910  0.0000E+00  0.0000E+00  0.0000E+00  0.0000E+00  0.0000E+00  0.0000E+00  0.0000E+00  0.0000E+00  0.0000E+00  0.0000E+00  0.0000E+00  0.0000E+00  0.0000E+00  0.0000E+00  0.0000E+00  0.0000E+00  0.0000E+00  0.0000E+00
    -46.669  0.0000E+00  0.0000E+00  0.0000E+00  0.0000E+00  0.0000E+00  0.0000E+00  0.0000E+00  0.0000E+00  0.0000E+00  0.0000E+00  0.0000E+00  0.0000E+00  0.0000E+00  0.0000E+00  0.0000E+00  0.0000E+00  0.0000E+00  0.0000E+00
    -46.427  0.0000E+00  0.0000E+00  0.0000E+00  0.0000E+00  0.0000E+00  0.0000E+00  0.0000E+00  0.0000E+00  0.0000E+00  0.0000E+00  0.0000E+00  0.0000E+00  0.0000E+00  0.0000E+00  0.0000E+00  0.0000E+00  0.0000E+00  0.0000E+00
    -46.186  0.0000E+00  0.0000E+00  0.0000E+00  0.0000E+00  0.0000E+00  0.0000E+00  0.0000E+00  0.0000E+00  0.0000E+00  0.0000E+00  0.0000E+00  0.0000E+00  0.0000E+00  0.0000E+00  0.0000E+00  0.0000E+00  0.0000E+00  0.0000E+00
    -45.945  0.0000E+00  0.0000E+00  0.0000E+00  0.0000E+00  0.0000E+00  0.0000E+00  0.0000E+00  0.0000E+00  0.0000E+00  0.0000E+00  0.0000E+00  0.0000E+00  0.0000E+00  0.0000E+00  0.0000E+00  0.0000E+00  0.0000E+00  0.0000E+00
    -45.704  0.0000E+00  0.0000E+00  0.0000E+00  0.0000E+00  0.0000E+00  0.0000E+00  0.0000E+00  0.0000E+00  0.0000E+00  0.0000E+00  0.0000E+00  0.0000E+00  0.0000E+00  0.0000E+00  0.0000E+00  0.0000E+00  0.0000E+00  0.0000E+00
    -45.462  0.0000E+00  0.0000E+00  0.0000E+00  0.0000E+00  0.0000E+00  0.0000E+00  0.0000E+00  0.0000E+00  0.0000E+00  0.0000E+00  0.0000E+00  0.0000E+00  0.0000E+00  0.0000E+00  0.0000E+00  0.0000E+00  0.0000E+00  0.0000E+00
    -45.221  0.0000E+00  0.0000E+00  0.0000E+00  0.0000E+00  0.0000E+00  0.0000E+00  0.0000E+00  0.0000E+00  0.0000E+00  0.0000E+00  0.0000E+00  0.0000E+00  0.0000E+00  0.0000E+00  0.0000E+00  0.0000E+00  0.0000E+00  0.0000E+00
    -44.980  0.0000E+00  0.0000E+00  0.0000E+00  0.0000E+00  0.0000E+00  0.0000E+00  0.0000E+00  0.0000E+00  0.0000E+00  0.0000E+00  0.0000E+00  0.0000E+00  0.0000E+00  0.0000E+00  0.0000E+00  0.0000E+00  0.0000E+00  0.0000E+00