  28  28   1   0
  0.8243381E+01  0.4349029E-09  0.5547790E-09  0.9566457E-09  0.5000000E-15
  1.000000000000000E-004
  CAR 
 unknown system                          
     24.47736784    -50.88761203  301      8.96159085      1.00000000
    -50.888  0.0000E+00  0.0000E+00  0.0000E+00  0.0000E+00
    -50.636  0.0000E+00  0.0000E+00  0.0000E+00  0.0000E+00
    -50.385  0.0000E+00  0.0000E+00  0.0000E+00  0.0000E+00
    -50.134  0.0000E+00  0.0000E+00  0.0000E+00  0.0000E+00
    -49.883  0.0000E+00  0.0000E+00  0.0000E+00  0.0000E+00
    -49.632  0.0000E+00  0.0000E+00  0.0000E+00  0.0000E+00
    -49.380  0.0000E+00  0.0000E+00  0.0000E+00  0.0000E+00
    -49.129  0.0000E+00  0.0000E+00  0.0000E+00  0.0000E+00
    -48.878  0.0000E+00  0.0000E+00  0.0000E+00  0.0000E+00
    -48.627  0.0000E+00  0.0000E+00  0.0000E+00  0.0000E+00
    -48.375  0.0000E+00  0.0000E+00  0.0000E+00  0.0000E+00
    -48.124  0.0000E+00  0.0000E+00  0.0000E+00  0.0000E+00
    -47.873  0.4017E-02  0.0000E+00  0.1009E-02  0.0000E+00
    -47.622  0.5844E+00  0.0000E+00  0.1478E+00  0.0000E+00
    -47.371  0.1300E+02  0.0000E+00  0.3414E+01  0.0000E+00
    -47.119  0.2333E+01  0.0000E+00  0.4000E+01  0.0000E+00
    -46.868  0.2515E+01  0.0000E+00  0.4637E+01  0.0000E+00
    -46.617  0.1289E+02  0.0000E+00  0.7875E+01  0.0000E+00
    -46.366  0.4132E+01  0.0000E+00  0.9047E+01  0.0000E+00
    -46.114  0.1146E+02  0.0000E+00  0.1193E+02  0.0000E+00
    -45.863  0.0000E+00  0.0000E+00  0.1200E+02  0.0000E+00
    -45.612  0.0000E+00  0.0000E+00  0.1200E+02  0.0000E+00
    -45.361  0.0000E+00  0.0000E+00  0.1200E+02  0.0000E+00
    -45.110  0.0000E+00  0.0000E+00  0.1200E+02  0.0000E+00
    -44.858  0.0000E+00  0.0000E+00  0.1200E+02  0.0000E+00
    -44.607  0.0000E+00  0.0000E+00  0.1200E+02  0.0000E+00
    -44.356  0.0000E+00  0.0000E+00  0.1200E+02  0.0000E+00
    -44.105  0.0000E+00  0.0000E+00  0.1200E+02  0.0000E+00
    -43.854  0.0000E+00  0.0000E+00  0.1200E+02  0.0000E+00
    -43.602  0.0000E+00  0.4997E-03  0.1200E+02  0.1255E-03
    -43.351  0.0000E+00  0.7654E-01  0.1200E+02  0.1935E-01
    -43.100  0.0000E+00  0.6832E+01  0.1200E+02  0.1736E+01
    -42.849  0.0000E+00  0.2023E+02  0.1200E+02  0.6819E+01
    -42.597  0.0000E+00  0.1829E+02  0.1200E+02  0.1145E+02
    -42.346  0.0000E+00  0.2121E+01  0.1200E+02  0.1200E+02
    -42.095  0.0000E+00  0.0000E+00  0.1200E+02  0.1200E+02
    -41.844  0.0000E+00  0.0000E+00  0.1200E+02  0.1200E+02
    -41.593  0.0000E+00  0.0000E+00  0.1200E+02  0.1200E+02
    -41.341  0.0000E+00  0.0000E+00  0.1200E+02  0.1200E+02
    -41.090  0.0000E+00  0.0000E+00  0.1200E+02  0.1200E+02
    -40.839  0.0000E+00  0.0000E+00  0.1200E+02  0.1200E+02
    -40.588  0.0000E+00  0.0000E+00  0.1200E+02  0.1200E+02
    -40.337  0.0000E+00  0.0000E+00  0.1200E+02  0.1200E+02
    -40.085  0.0000E+00  0.0000E+00  0.1200E+02  0.1200E+02
    -39.834  0.0000E+00  0.0000E+00  0.1200E+02  0.1200E+02
    -39.583  0.0000E+00  0.0000E+00  0.1200E+02  0.1200E+02
    -39.332  0.0000E+00  0.0000E+00  0.1200E+02  0.1200E+02
    -39.080  0.0000E+00  0.0000E+00  0.1200E+02  0.1200E+02
    -38.829  0.0000E+00  0.0000E+00  0.1200E+02  0.1200E+02
    -38.578  0.0000E+00  0.0000E+00  0.1200E+02  0.1200E+02
    -38.327  0.0000E+00  0.0000E+00  0.1200E+02  0.1200E+02
    -38.076  0.4896E-04  0.4791E-04  0.1200E+02  0.1200E+02
    -37.824  0.7393E-02  0.7235E-02  0.1200E+02  0.1200E+02
    -37.573  0.1047E+01  0.1026E+01  0.1226E+02  0.1226E+02
    -37.322  0.1348E+02  0.1347E+02  0.1565E+02  0.1564E+02
    -37.071  0.1379E+01  0.1406E+01  0.1600E+02  0.1600E+02
    -36.819  0.0000E+00  0.0000E+00  0.1600E+02  0.1600E+02
    -36.568  0.0000E+00  0.0000E+00  0.1600E+02  0.1600E+02
    -36.317  0.0000E+00  0.0000E+00  0.1600E+02  0.1600E+02
    -36.066  0.0000E+00  0.0000E+00  0.1600E+02  0.1600E+02
    -35.815  0.0000E+00  0.0000E+00  0.1600E+02  0.1600E+02
    -35.563  0.0000E+00  0.0000E+00  0.1600E+02  0.1600E+02
    -35.312  0.0000E+00  0.0000E+00  0.1600E+02  0.1600E+02
    -35.061  0.0000E+00  0.0000E+00  0.1600E+02  0.1600E+02
    -34.810  0.0000E+00  0.0000E+00  0.1600E+02  0.1600E+02
    -34.559  0.0000E+00  0.0000E+00  0.1600E+02  0.1600E+02
    -34.307  0.0000E+00  0.0000E+00  0.1600E+02  0.1600E+02
    -34.056  0.0000E+00  0.0000E+00  0.1600E+02  0.1600E+02
    -33.805  0.0000E+00  0.0000E+00  0.1600E+02  0.1600E+02
    -33.554  0.0000E+00  0.0000E+00  0.1600E+02  0.1600E+02
    -33.302  0.0000E+00  0.0000E+00  0.1600E+02  0.1600E+02
    -33.051  0.0000E+00  0.0000E+00  0.1600E+02  0.1600E+02
    -32.800  0.0000E+00  0.0000E+00  0.1600E+02  0.1600E+02
    -32.549  0.0000E+00  0.0000E+00  0.1600E+02  0.1600E+02
    -32.298  0.0000E+00  0.0000E+00  0.1600E+02  0.1600E+02
    -32.046  0.0000E+00  0.0000E+00  0.1600E+02  0.1600E+02
    -31.795  0.0000E+00  0.0000E+00  0.1600E+02  0.1600E+02
    -31.544  0.0000E+00  0.0000E+00  0.1600E+02  0.1600E+02
    -31.293  0.0000E+00  0.0000E+00  0.1600E+02  0.1600E+02
    -31.042  0.0000E+00  0.0000E+00  0.1600E+02  0.1600E+02
    -30.790  0.0000E+00  0.0000E+00  0.1600E+02  0.1600E+02
    -30.539  0.0000E+00  0.0000E+00  0.1600E+02  0.1600E+02
    -30.288  0.0000E+00  0.0000E+00  0.1600E+02  0.1600E+02
    -30.037  0.0000E+00  0.0000E+00  0.1600E+02  0.1600E+02
    -29.785  0.0000E+00  0.0000E+00  0.1600E+02  0.1600E+02
    -29.534  0.0000E+00  0.0000E+00  0.1600E+02  0.1600E+02
    -29.283  0.0000E+00  0.0000E+00  0.1600E+02  0.1600E+02
    -29.032  0.0000E+00  0.0000E+00  0.1600E+02  0.1600E+02
    -28.781  0.0000E+00  0.0000E+00  0.1600E+02  0.1600E+02
    -28.529  0.0000E+00  0.0000E+00  0.1600E+02  0.1600E+02
    -28.278  0.0000E+00  0.0000E+00  0.1600E+02  0.1600E+02
    -28.027  0.0000E+00  0.0000E+00  0.1600E+02  0.1600E+02
    -27.776  0.0000E+00  0.0000E+00  0.1600E+02  0.1600E+02
    -27.524  0.0000E+00  0.0000E+00  0.1600E+02  0.1600E+02
    -27.273  0.0000E+00  0.0000E+00  0.1600E+02  0.1600E+02
    -27.022  0.0000E+00  0.0000E+00  0.1600E+02  0.1600E+02
    -26.771  0.0000E+00  0.0000E+00  0.1600E+02  0.1600E+02
    -26.520  0.0000E+00  0.0000E+00  0.1600E+02  0.1600E+02
    -26.268  0.0000E+00  0.0000E+00  0.1600E+02  0.1600E+02
    -26.017  0.0000E+00  0.0000E+00  0.1600E+02  0.1600E+02
    -25.766  0.0000E+00  0.0000E+00  0.1600E+02  0.1600E+02
    -25.515  0.0000E+00  0.0000E+00  0.1600E+02  0.1600E+02
    -25.264  0.0000E+00  0.0000E+00  0.1600E+02  0.1600E+02
    -25.012  0.0000E+00  0.0000E+00  0.1600E+02  0.1600E+02
    -24.761  0.0000E+00  0.0000E+00  0.1600E+02  0.1600E+02
    -24.510  0.0000E+00  0.0000E+00  0.1600E+02  0.1600E+02
    -24.259  0.0000E+00  0.0000E+00  0.1600E+02  0.1600E+02
    -24.007  0.0000E+00  0.0000E+00  0.1600E+02  0.1600E+02
    -23.756  0.0000E+00  0.0000E+00  0.1600E+02  0.1600E+02
    -23.505  0.0000E+00  0.0000E+00  0.1600E+02  0.1600E+02
    -23.254  0.0000E+00  0.0000E+00  0.1600E+02  0.1600E+02
    -23.003  0.0000E+00  0.0000E+00  0.1600E+02  0.1600E+02
    -22.751  0.0000E+00  0.0000E+00  0.1600E+02  0.1600E+02
    -22.500  0.0000E+00  0.0000E+00  0.1600E+02  0.1600E+02
    -22.249  0.0000E+00  0.0000E+00  0.1600E+02  0.1600E+02
    -21.998  0.0000E+00  0.0000E+00  0.1600E+02  0.1600E+02
    -21.746  0.0000E+00  0.0000E+00  0.1600E+02  0.1600E+02
    -21.495  0.0000E+00  0.0000E+00  0.1600E+02  0.1600E+02
    -21.244  0.0000E+00  0.0000E+00  0.1600E+02  0.1600E+02
    -20.993  0.0000E+00  0.0000E+00  0.1600E+02  0.1600E+02
    -20.742  0.0000E+00  0.0000E+00  0.1600E+02  0.1600E+02
    -20.490  0.0000E+00  0.0000E+00  0.1600E+02  0.1600E+02
    -20.239  0.0000E+00  0.0000E+00  0.1600E+02  0.1600E+02
    -19.988  0.0000E+00  0.0000E+00  0.1600E+02  0.1600E+02
    -19.737  0.0000E+00  0.0000E+00  0.1600E+02  0.1600E+02
    -19.486  0.0000E+00  0.0000E+00  0.1600E+02  0.1600E+02
    -19.234  0.0000E+00  0.0000E+00  0.1600E+02  0.1600E+02
    -18.983  0.0000E+00  0.0000E+00  0.1600E+02  0.1600E+02
    -18.732  0.0000E+00  0.0000E+00  0.1600E+02  0.1600E+02
    -18.481  0.0000E+00  0.0000E+00  0.1600E+02  0.1600E+02
    -18.229  0.0000E+00  0.0000E+00  0.1600E+02  0.1600E+02
    -17.978  0.1560E-06  0.0000E+00  0.1600E+02  0.1600E+02
    -17.727  0.1499E-03  0.9130E-05  0.1600E+02  0.1600E+02
    -17.476  0.2271E-01  0.1696E-02  0.1601E+02  0.1600E+02
    -17.225  0.1223E+01  0.2097E+00  0.1631E+02  0.1605E+02
    -16.973  0.6316E+01  0.3428E+01  0.1790E+02  0.1691E+02
    -16.722  0.6987E+01  0.7619E+01  0.1967E+02  0.1883E+02
    -16.471  0.1231E+01  0.4374E+01  0.2000E+02  0.1995E+02
    -16.220  0.0000E+00  0.1201E+00  0.2000E+02  0.2000E+02
    -15.969  0.0000E+00  0.0000E+00  0.2000E+02  0.2000E+02
    -15.717  0.0000E+00  0.0000E+00  0.2000E+02  0.2000E+02
    -15.466  0.0000E+00  0.0000E+00  0.2000E+02  0.2000E+02
    -15.215  0.0000E+00  0.0000E+00  0.2000E+02  0.2000E+02
    -14.964  0.0000E+00  0.0000E+00  0.2000E+02  0.2000E+02
    -14.712  0.3436E-05  0.0000E+00  0.2000E+02  0.2000E+02
    -14.461  0.1397E-02  0.9655E-04  0.2000E+02  0.2000E+02
    -14.210  0.2044E+00  0.1541E-01  0.2005E+02  0.2000E+02
    -13.959  0.6948E+01  0.1639E+01  0.2180E+02  0.2042E+02
    -13.708  0.1727E+02  0.1152E+02  0.2614E+02  0.2331E+02
    -13.456  0.1862E+02  0.1934E+02  0.3085E+02  0.2820E+02
    -13.205  0.4337E+01  0.1407E+02  0.3198E+02  0.3179E+02
    -12.954  0.0000E+00  0.5889E+00  0.3200E+02  0.3200E+02
    -12.703  0.0000E+00  0.0000E+00  0.3200E+02  0.3200E+02
    -12.451  0.0000E+00  0.0000E+00  0.3200E+02  0.3200E+02
    -12.200  0.0000E+00  0.0000E+00  0.3200E+02  0.3200E+02
    -11.949  0.0000E+00  0.0000E+00  0.3200E+02  0.3200E+02
    -11.698  0.0000E+00  0.0000E+00  0.3200E+02  0.3200E+02
    -11.447  0.0000E+00  0.0000E+00  0.3200E+02  0.3200E+02
    -11.195  0.0000E+00  0.0000E+00  0.3200E+02  0.3200E+02
    -10.944  0.0000E+00  0.0000E+00  0.3200E+02  0.3200E+02
    -10.693  0.0000E+00  0.0000E+00  0.3200E+02  0.3200E+02
    -10.442  0.0000E+00  0.0000E+00  0.3200E+02  0.3200E+02
    -10.191  0.0000E+00  0.0000E+00  0.3200E+02  0.3200E+02
     -9.939  0.0000E+00  0.0000E+00  0.3200E+02  0.3200E+02
     -9.688  0.0000E+00  0.0000E+00  0.3200E+02  0.3200E+02
     -9.437  0.0000E+00  0.0000E+00  0.3200E+02  0.3200E+02
     -9.186  0.0000E+00  0.0000E+00  0.3200E+02  0.3200E+02
     -8.934  0.0000E+00  0.0000E+00  0.3200E+02  0.3200E+02
     -8.683  0.0000E+00  0.0000E+00  0.3200E+02  0.3200E+02
     -8.432  0.0000E+00  0.0000E+00  0.3200E+02  0.3200E+02
     -8.181  0.0000E+00  0.0000E+00  0.3200E+02  0.3200E+02
     -7.930  0.0000E+00  0.0000E+00  0.3200E+02  0.3200E+02
     -7.678  0.0000E+00  0.0000E+00  0.3200E+02  0.3200E+02
     -7.427  0.0000E+00  0.0000E+00  0.3200E+02  0.3200E+02
     -7.176  0.0000E+00  0.0000E+00  0.3200E+02  0.3200E+02
     -6.925  0.0000E+00  0.0000E+00  0.3200E+02  0.3200E+02
     -6.673  0.0000E+00  0.0000E+00  0.3200E+02  0.3200E+02
     -6.422  0.0000E+00  0.0000E+00  0.3200E+02  0.3200E+02
     -6.171  0.0000E+00  0.0000E+00  0.3200E+02  0.3200E+02
     -5.920  0.0000E+00  0.0000E+00  0.3200E+02  0.3200E+02
     -5.669  0.0000E+00  0.0000E+00  0.3200E+02  0.3200E+02
     -5.417  0.0000E+00  0.0000E+00  0.3200E+02  0.3200E+02
     -5.166  0.0000E+00  0.0000E+00  0.3200E+02  0.3200E+02
     -4.915  0.0000E+00  0.0000E+00  0.3200E+02  0.3200E+02
     -4.664  0.0000E+00  0.0000E+00  0.3200E+02  0.3200E+02
     -4.413  0.0000E+00  0.0000E+00  0.3200E+02  0.3200E+02
     -4.161  0.0000E+00  0.0000E+00  0.3200E+02  0.3200E+02
     -3.910  0.2317E-05  0.0000E+00  0.3200E+02  0.3200E+02
     -3.659  0.4356E-03  0.3360E-05  0.3200E+02  0.3200E+02
     -3.408  0.5933E-01  0.6181E-03  0.3202E+02  0.3200E+02
     -3.156  0.1132E+01  0.8011E-01  0.3230E+02  0.3202E+02
     -2.905  0.2854E+01  0.1199E+01  0.3302E+02  0.3232E+02
     -2.654  0.4971E+01  0.2849E+01  0.3427E+02  0.3304E+02
     -2.403  0.5860E+01  0.5044E+01  0.3575E+02  0.3431E+02
     -2.152  0.1790E+01  0.6102E+01  0.3622E+02  0.3585E+02
     -1.900  0.2600E+01  0.1319E+01  0.3688E+02  0.3621E+02
     -1.649  0.4717E+01  0.2489E+01  0.3807E+02  0.3684E+02
     -1.398  0.6984E+01  0.5037E+01  0.3983E+02  0.3810E+02
     -1.147  0.6940E+01  0.7616E+01  0.4159E+02  0.4003E+02
     -0.896  0.6217E+01  0.6353E+01  0.4317E+02  0.4164E+02
     -0.644  0.7561E+01  0.6290E+01  0.4509E+02  0.4324E+02
     -0.393  0.8443E+01  0.8030E+01  0.4723E+02  0.4527E+02
     -0.142  0.2477E+01  0.8150E+01  0.4788E+02  0.4734E+02
      0.109  0.2766E+01  0.2015E+01  0.4858E+02  0.4787E+02
      0.361  0.6010E+01  0.2176E+01  0.5009E+02  0.4842E+02
      0.612  0.6799E+01  0.5285E+01  0.5182E+02  0.4975E+02
      0.863  0.8754E+01  0.6638E+01  0.5403E+02  0.5143E+02
      1.114  0.8173E+01  0.7940E+01  0.5611E+02  0.5344E+02
      1.365  0.7378E+01  0.7939E+01  0.5798E+02  0.5546E+02
      1.617  0.6400E+01  0.8105E+01  0.5961E+02  0.5751E+02
      1.868  0.8002E+01  0.6765E+01  0.6164E+02  0.5923E+02
      2.119  0.6715E+01  0.7533E+01  0.6334E+02  0.6114E+02
      2.370  0.9253E+01  0.6791E+01  0.6568E+02  0.6286E+02
      2.622  0.7255E+01  0.6614E+01  0.6753E+02  0.6455E+02
      2.873  0.4994E+01  0.9323E+01  0.6881E+02  0.6690E+02
      3.124  0.6840E+01  0.6216E+01  0.7054E+02  0.6848E+02
      3.375  0.1235E+02  0.4883E+01  0.7365E+02  0.6973E+02
      3.626  0.9296E+01  0.9516E+01  0.7601E+02  0.7213E+02
      3.878  0.7012E+01  0.1213E+02  0.7780E+02  0.7520E+02
      4.129  0.4524E+01  0.8365E+01  0.7896E+02  0.7733E+02
      4.380  0.2942E+01  0.5176E+01  0.7971E+02  0.7866E+02
      4.631  0.1105E+01  0.4015E+01  0.7999E+02  0.7968E+02
      4.882  0.7302E-02  0.1206E+01  0.8000E+02  0.7999E+02
      5.134  0.2865E-02  0.1311E-01  0.8000E+02  0.8000E+02
      5.385  0.3901E+00  0.0000E+00  0.8010E+02  0.8000E+02
      5.636  0.7370E+01  0.0000E+00  0.8195E+02  0.8000E+02
      5.887  0.9496E+01  0.0000E+00  0.8434E+02  0.8000E+02
      6.139  0.7499E+01  0.0000E+00  0.8625E+02  0.8000E+02
      6.390  0.6438E+01  0.0000E+00  0.8788E+02  0.8000E+02
      6.641  0.1198E+02  0.0000E+00  0.9091E+02  0.8000E+02
      6.892  0.4308E+01  0.0000E+00  0.9202E+02  0.8000E+02
      7.143  0.4477E+01  0.0000E+00  0.9316E+02  0.8000E+02
      7.395  0.7150E+01  0.0000E+00  0.9495E+02  0.8000E+02
      7.646  0.4737E+01  0.0000E+00  0.9617E+02  0.8000E+02
      7.897  0.5886E+01  0.0000E+00  0.9766E+02  0.8000E+02
      8.148  0.8536E+01  0.1188E-03  0.9981E+02  0.8000E+02
      8.400  0.6306E+00  0.1900E-01  0.1000E+03  0.8000E+02
      8.651  0.0000E+00  0.1798E+01  0.1000E+03  0.8046E+02
      8.902  0.0000E+00  0.1216E+02  0.1000E+03  0.8351E+02
      9.153  0.0000E+00  0.9037E+01  0.1000E+03  0.8581E+02
      9.404  0.0000E+00  0.1108E+02  0.1000E+03  0.8860E+02
      9.656  0.0000E+00  0.1144E+02  0.1000E+03  0.9150E+02
      9.907  0.0000E+00  0.1766E+01  0.1000E+03  0.9199E+02
     10.158  0.0000E+00  0.1344E-01  0.1000E+03  0.9200E+02
     10.409  0.0000E+00  0.1157E+01  0.1000E+03  0.9229E+02
     10.660  0.0000E+00  0.8463E+01  0.1000E+03  0.9442E+02
     10.912  0.0000E+00  0.6363E+01  0.1000E+03  0.9604E+02
     11.163  0.0000E+00  0.7102E+01  0.1000E+03  0.9784E+02
     11.414  0.0000E+00  0.7986E+01  0.1000E+03  0.9987E+02
     11.665  0.1158E-06  0.4149E+00  0.1000E+03  0.1000E+03
     11.917  0.3049E-04  0.0000E+00  0.1000E+03  0.1000E+03
     12.168  0.4275E-02  0.2743E-05  0.1000E+03  0.1000E+03
     12.419  0.9549E-01  0.4357E-03  0.1000E+03  0.1000E+03
     12.670  0.2539E+00  0.3459E-01  0.1001E+03  0.1000E+03
     12.921  0.4177E+00  0.2028E+00  0.1002E+03  0.1001E+03
     13.173  0.6020E+00  0.3677E+00  0.1003E+03  0.1002E+03
     13.424  0.1034E+01  0.5585E+00  0.1006E+03  0.1003E+03
     13.675  0.1643E+01  0.1073E+01  0.1010E+03  0.1006E+03
     13.926  0.1778E+01  0.1693E+01  0.1015E+03  0.1010E+03
     14.177  0.2349E+01  0.1770E+01  0.1021E+03  0.1014E+03
     14.429  0.3193E+01  0.2270E+01  0.1029E+03  0.1020E+03
     14.680  0.3378E+01  0.2958E+01  0.1037E+03  0.1028E+03
     14.931  0.4048E+01  0.3371E+01  0.1048E+03  0.1036E+03
     15.182  0.5148E+01  0.4069E+01  0.1061E+03  0.1047E+03
     15.434  0.5594E+01  0.5640E+01  0.1075E+03  0.1061E+03
     15.685  0.3439E+01  0.5113E+01  0.1084E+03  0.1074E+03
     15.936  0.2411E+01  0.2433E+01  0.1090E+03  0.1080E+03
     16.187  0.2679E+01  0.2168E+01  0.1097E+03  0.1086E+03
     16.438  0.3871E+01  0.3462E+01  0.1106E+03  0.1094E+03
     16.690  0.5627E+01  0.3575E+01  0.1121E+03  0.1103E+03
     16.941  0.5660E+01  0.3979E+01  0.1135E+03  0.1113E+03
     17.192  0.5431E+01  0.5761E+01  0.1149E+03  0.1128E+03
     17.443  0.5129E+01  0.6422E+01  0.1162E+03  0.1144E+03
     17.695  0.3921E+01  0.5571E+01  0.1172E+03  0.1158E+03
     17.946  0.3828E+01  0.4423E+01  0.1181E+03  0.1170E+03
     18.197  0.4531E+01  0.3813E+01  0.1193E+03  0.1179E+03
     18.448  0.4395E+01  0.4293E+01  0.1204E+03  0.1190E+03
     18.699  0.4885E+01  0.3940E+01  0.1216E+03  0.1200E+03
     18.951  0.3610E+01  0.5067E+01  0.1226E+03  0.1213E+03
     19.202  0.3317E+01  0.4013E+01  0.1234E+03  0.1223E+03
     19.453  0.3051E+01  0.3343E+01  0.1242E+03  0.1232E+03
     19.704  0.3557E+01  0.3135E+01  0.1251E+03  0.1240E+03
     19.955  0.3951E+01  0.3138E+01  0.1261E+03  0.1248E+03
     20.207  0.3274E+01  0.3502E+01  0.1269E+03  0.1257E+03
     20.458  0.2936E+01  0.3998E+01  0.1277E+03  0.1267E+03
     20.709  0.1201E+01  0.3551E+01  0.1280E+03  0.1276E+03
     20.960  0.9863E-01  0.1470E+01  0.1280E+03  0.1279E+03
     21.212  0.0000E+00  0.1990E+00  0.1280E+03  0.1280E+03
     21.463  0.0000E+00  0.0000E+00  0.1280E+03  0.1280E+03
     21.714  0.0000E+00  0.0000E+00  0.1280E+03  0.1280E+03
     21.965  0.0000E+00  0.0000E+00  0.1280E+03  0.1280E+03
     22.216  0.0000E+00  0.0000E+00  0.1280E+03  0.1280E+03
     22.468  0.0000E+00  0.0000E+00  0.1280E+03  0.1280E+03
     22.719  0.0000E+00  0.0000E+00  0.1280E+03  0.1280E+03
     22.970  0.0000E+00  0.0000E+00  0.1280E+03  0.1280E+03
     23.221  0.0000E+00  0.0000E+00  0.1280E+03  0.1280E+03
     23.473  0.0000E+00  0.0000E+00  0.1280E+03  0.1280E+03
     23.724  0.0000E+00  0.0000E+00  0.1280E+03  0.1280E+03
     23.975  0.0000E+00  0.0000E+00  0.1280E+03  0.1280E+03
     24.226  0.0000E+00  0.0000E+00  0.1280E+03  0.1280E+03
     24.477  0.0000E+00  0.0000E+00  0.1280E+03  0.1280E+03
     24.47736784    -50.88761203  301      8.96159085      1.00000000
    -50.888  0.0000E+00  0.0000E+00  0.0000E+00  0.0000E+00  0.0000E+00  0.0000E+00  0.0000E+00  0.0000E+00  0.0000E+00  0.0000E+00  0.0000E+00  0.0000E+00  0.0000E+00  0.0000E+00  0.0000E+00  0.0000E+00  0.0000E+00  0.0000E+00
    -50.636  0.0000E+00  0.0000E+00  0.0000E+00  0.0000E+00  0.0000E+00  0.0000E+00  0.0000E+00  0.0000E+00  0.0000E+00  0.0000E+00  0.0000E+00  0.0000E+00  0.0000E+00  0.0000E+00  0.0000E+00  0.0000E+00  0.0000E+00  0.0000E+00
    -50.385  0.0000E+00  0.0000E+00  0.0000E+00  0.0000E+00  0.0000E+00  0.0000E+00  0.0000E+00  0.0000E+00  0.0000E+00  0.0000E+00  0.0000E+00  0.0000E+00  0.0000E+00  0.0000E+00  0.0000E+00  0.0000E+00  0.0000E+00  0.0000E+00
    -50.134  0.0000E+00  0.0000E+00  0.0000E+00  0.0000E+00  0.0000E+00  0.0000E+00  0.0000E+00  0.0000E+00  0.0000E+00  0.0000E+00  0.0000E+00  0.0000E+00  0.0000E+00  0.0000E+00  0.0000E+00  0.0000E+00  0.0000E+00  0.0000E+00
    -49.883  0.0000E+00  0.0000E+00  0.0000E+00  0.0000E+00  0.0000E+00  0.0000E+00  0.0000E+00  0.0000E+00  0.0000E+00  0.0000E+00  0.0000E+00  0.0000E+00  0.0000E+00  0.0000E+00  0.0000E+00  0.0000E+00  0.0000E+00  0.0000E+00
    -49.632  0.0000E+00  0.0000E+00  0.0000E+00  0.0000E+00  0.0000E+00  0.0000E+00  0.0000E+00  0.0000E+00  0.0000E+00  0.0000E+00  0.0000E+00  0.0000E+00  0.0000E+00  0.0000E+00  0.0000E+00  0.0000E+00  0.0000E+00  0.0000E+00
    -49.380  0.0000E+00  0.0000E+00  0.0000E+00  0.0000E+00  0.0000E+00  0.0000E+00  0.0000E+00  0.0000E+00  0.0000E+00  0.0000E+00  0.0000E+00  0.0000E+00  0.0000E+00  0.0000E+00  0.0000E+00  0.0000E+00  0.0000E+00  0.0000E+00
    -49.129  0.0000E+00  0.0000E+00  0.0000E+00  0.0000E+00  0.0000E+00  0.0000E+00  0.0000E+00  0.0000E+00  0.0000E+00  0.0000E+00  0.0000E+00  0.0000E+00  0.0000E+00  0.0000E+00  0.0000E+00  0.0000E+00  0.0000E+00  0.0000E+00
    -48.878  0.0000E+00  0.0000E+00  0.0000E+00  0.0000E+00  0.0000E+00  0.0000E+00  0.0000E+00  0.0000E+00  0.0000E+00  0.0000E+00  0.0000E+00  0.0000E+00  0.0000E+00  0.0000E+00  0.0000E+00  0.0000E+00  0.0000E+00  0.0000E+00
    -48.627  0.0000E+00  0.0000E+00  0.0000E+00  0.0000E+00  0.0000E+00  0.0000E+00  0.0000E+00  0.0000E+00  0.0000E+00  0.0000E+00  0.0000E+00  0.0000E+00  0.0000E+00  0.0000E+00  0.0000E+00  0.0000E+00  0.0000E+00  0.0000E+00
    -48.375  0.0000E+00  0.0000E+00  0.0000E+00  0.0000E+00  0.0000E+00  0.0000E+00  0.0000E+00  0.0000E+00  0.0000E+00  0.0000E+00  0.0000E+00  0.0000E+00  0.0000E+00  0.0000E+00  0.0000E+00  0.0000E+00  0.0000E+00  0.0000E+00
    -48.124  0.0000E+00  0.0000E+00  0.0000E+00  0.0000E+00  0.0000E+00  0.0000E+00  0.0000E+00  0.0000E+00  0.0000E+00  0.0000E+00  0.0000E+00  0.0000E+00  0.0000E+00  0.0000E+00  0.0000E+00  0.0000E+00  0.0000E+00  0.0000E+00
    -47.873  0.6480E-10  0.0000E+00  0.2619E-11  0.0000E+00  0.3238E-11  0.0000E+00  0.6313E-12  0.0000E+00  0.0000E+00  0.0000E+00  0.0000E+00  0.0000E+00  0.0000E+00  0.0000E+00  0.0000E+00  0.0000E+00  0.0000E+00  0.0000E+00
    -47.622  0.9421E-08  0.0000E+00  0.3811E-09  0.0000E+00  0.4713E-09  0.0000E+00  0.9184E-10  0.0000E+00  0.0000E+00  0.0000E+00  0.0000E+00  0.0000E+00  0.0000E+00  0.0000E+00  0.0000E+00  0.0000E+00  0.0000E+00  0.0000E+00
    -47.371  0.2063E-06  0.0000E+00  0.8569E-08  0.0000E+00  0.1063E-07  0.0000E+00  0.2042E-08  0.0000E+00  0.0000E+00  0.0000E+00  0.0000E+00  0.0000E+00  0.0000E+00  0.0000E+00  0.0000E+00  0.0000E+00  0.0000E+00  0.0000E+00
    -47.119  0.3748E-07  0.0000E+00  0.1562E-08  0.0000E+00  0.1975E-08  0.0000E+00  0.3665E-09  0.0000E+00  0.0000E+00  0.0000E+00  0.0000E+00  0.0000E+00  0.0000E+00  0.0000E+00  0.0000E+00  0.0000E+00  0.0000E+00  0.0000E+00
    -46.868  0.1827E-06  0.0000E+00  0.2512E-08  0.0000E+00  0.7212E-08  0.0000E+00  0.4692E-09  0.0000E+00  0.0000E+00  0.0000E+00  0.0000E+00  0.0000E+00  0.0000E+00  0.0000E+00  0.0000E+00  0.0000E+00  0.0000E+00  0.0000E+00
    -46.617  0.9319E-06  0.0000E+00  0.1282E-07  0.0000E+00  0.3688E-07  0.0000E+00  0.2412E-08  0.0000E+00  0.0000E+00  0.0000E+00  0.0000E+00  0.0000E+00  0.0000E+00  0.0000E+00  0.0000E+00  0.0000E+00  0.0000E+00  0.0000E+00
    -46.366  0.4293E-07  0.0000E+00  0.1209E-08  0.0000E+00  0.1237E-08  0.0000E+00  0.1679E-08  0.0000E+00  0.0000E+00  0.0000E+00  0.0000E+00  0.0000E+00  0.0000E+00  0.0000E+00  0.0000E+00  0.0000E+00  0.0000E+00  0.0000E+00
    -46.114  0.1190E-06  0.0000E+00  0.3353E-08  0.0000E+00  0.3442E-08  0.0000E+00  0.4688E-08  0.0000E+00  0.0000E+00  0.0000E+00  0.0000E+00  0.0000E+00  0.0000E+00  0.0000E+00  0.0000E+00  0.0000E+00  0.0000E+00  0.0000E+00
    -45.863  0.0000E+00  0.0000E+00  0.0000E+00  0.0000E+00  0.0000E+00  0.0000E+00  0.0000E+00  0.0000E+00  0.0000E+00  0.0000E+00  0.0000E+00  0.0000E+00  0.0000E+00  0.0000E+00  0.0000E+00  0.0000E+00  0.0000E+00  0.0000E+00
    -45.612  0.0000E+00  0.0000E+00  0.0000E+00  0.0000E+00  0.0000E+00  0.0000E+00  0.0000E+00  0.0000E+00  0.0000E+00  0.0000E+00  0.0000E+00  0.0000E+00  0.0000E+00  0.0000E+00  0.0000E+00  0.0000E+00  0.0000E+00  0.0000E+00
    -45.361  0.0000E+00  0.0000E+00  0.0000E+00  0.0000E+00  0.0000E+00  0.0000E+00  0.0000E+00  0.0000E+00  0.0000E+00  0.0000E+00  0.0000E+00  0.0000E+00  0.0000E+00  0.0000E+00  0.0000E+00  0.0000E+00  0.0000E+00  0.0000E+00
    -45.110  0.0000E+00  0.0000E+00  0.0000E+00  0.0000E+00  0.0000E+00  0.0000E+00  0.0000E+00  0.0000E+00  0.0000E+00  0.0000E+00  0.0000E+00  0.0000E+00  0.0000E+00  0.0000E+00  0.0000E+00  0.0000E+00  0.0000E+00  0.0000E+00
    -44.858  0.0000E+00  0.0000E+00  0.0000E+00  0.0000E+00  0.0000E+00  0.0000E+00  0.0000E+00  0.0000E+00  0.0000E+00  0.0000E+00  0.0000E+00  0.0000E+00  0.0000E+00  0.0000E+00  0.0000E+00  0.0000E+00  0.0000E+00  0.0000E+00
    -44.607  0.0000E+00  0.0000E+00  0.0000E+00  0.0000E+00  0.0000E+00  0.0000E+00  0.0000E+00  0.0000E+00  0.0000E+00  0.0000E+00  0.0000E+00  0.0000E+00  0.0000E+00  0.0000E+00  0.0000E+00  0.0000E+00  0.0000E+00  0.0000E+00
    -44.356  0.0000E+00  0.0000E+00  0.0000E+00  0.0000E+00  0.0000E+00  0.0000E+00  0.0000E+00  0.0000E+00  0.0000E+00  0.0000E+00  0.0000E+00  0.0000E+00  0.0000E+00  0.0000E+00  0.0000E+00  0.0000E+00  0.0000E+00  0.0000E+00
    -44.105  0.0000E+00  0.0000E+00  0.0000E+00  0.0000E+00  0.0000E+00  0.0000E+00  0.0000E+00  0.0000E+00  0.0000E+00  0.0000E+00  0.0000E+00  0.0000E+00  0.0000E+00  0.0000E+00  0.0000E+00  0.0000E+00  0.0000E+00  0.0000E+00
    -43.854  0.0000E+00  0.0000E+00  0.0000E+00  0.0000E+00  0.0000E+00  0.0000E+00  0.0000E+00  0.0000E+00  0.0000E+00  0.0000E+00  0.0000E+00  0.0000E+00  0.0000E+00  0.0000E+00  0.0000E+00  0.0000E+00  0.0000E+00  0.0000E+00
    -43.602  0.0000E+00  0.4261E-10  0.0000E+00  0.4134E-12  0.0000E+00  0.4958E-12  0.0000E+00  0.1042E-12  0.0000E+00  0.0000E+00  0.0000E+00  0.0000E+00  0.0000E+00  0.0000E+00  0.0000E+00  0.0000E+00  0.0000E+00  0.0000E+00
    -43.351  0.0000E+00  0.6856E-08  0.0000E+00  0.6403E-10  0.0000E+00  0.7973E-10  0.0000E+00  0.1607E-10  0.0000E+00  0.0000E+00  0.0000E+00  0.0000E+00  0.0000E+00  0.0000E+00  0.0000E+00  0.0000E+00  0.0000E+00  0.0000E+00
    -43.100  0.0000E+00  0.6253E-06  0.0000E+00  0.5794E-08  0.0000E+00  0.7399E-08  0.0000E+00  0.1441E-08  0.0000E+00  0.0000E+00  0.0000E+00  0.0000E+00  0.0000E+00  0.0000E+00  0.0000E+00  0.0000E+00  0.0000E+00  0.0000E+00
    -42.849  0.0000E+00  0.4117E-05  0.0000E+00  0.2173E-07  0.0000E+00  0.4804E-07  0.0000E+00  0.5271E-08  0.0000E+00  0.0000E+00  0.0000E+00  0.0000E+00  0.0000E+00  0.0000E+00  0.0000E+00  0.0000E+00  0.0000E+00  0.0000E+00
    -42.597  0.0000E+00  0.2536E-05  0.0000E+00  0.1101E-07  0.0000E+00  0.2537E-07  0.0000E+00  0.7826E-08  0.0000E+00  0.0000E+00  0.0000E+00  0.0000E+00  0.0000E+00  0.0000E+00  0.0000E+00  0.0000E+00  0.0000E+00  0.0000E+00
    -42.346  0.0000E+00  0.1468E-06  0.0000E+00  0.6877E-09  0.0000E+00  0.1054E-08  0.0000E+00  0.1025E-08  0.0000E+00  0.0000E+00  0.0000E+00  0.0000E+00  0.0000E+00  0.0000E+00  0.0000E+00  0.0000E+00  0.0000E+00  0.0000E+00
    -42.095  0.0000E+00  0.0000E+00  0.0000E+00  0.0000E+00  0.0000E+00  0.0000E+00  0.0000E+00  0.0000E+00  0.0000E+00  0.0000E+00  0.0000E+00  0.0000E+00  0.0000E+00  0.0000E+00  0.0000E+00  0.0000E+00  0.0000E+00  0.0000E+00
    -41.844  0.0000E+00  0.0000E+00  0.0000E+00  0.0000E+00  0.0000E+00  0.0000E+00  0.0000E+00  0.0000E+00  0.0000E+00  0.0000E+00  0.0000E+00  0.0000E+00  0.0000E+00  0.0000E+00  0.0000E+00  0.0000E+00  0.0000E+00  0.0000E+00
    -41.593  0.0000E+00  0.0000E+00  0.0000E+00  0.0000E+00  0.0000E+00  0.0000E+00  0.0000E+00  0.0000E+00  0.0000E+00  0.0000E+00  0.0000E+00  0.0000E+00  0.0000E+00  0.0000E+00  0.0000E+00  0.0000E+00  0.0000E+00  0.0000E+00
    -41.341  0.0000E+00  0.0000E+00  0.0000E+00  0.0000E+00  0.0000E+00  0.0000E+00  0.0000E+00  0.0000E+00  0.0000E+00  0.0000E+00  0.0000E+00  0.0000E+00  0.0000E+00  0.0000E+00  0.0000E+00  0.0000E+00  0.0000E+00  0.0000E+00
    -41.090  0.0000E+00  0.0000E+00  0.0000E+00  0.0000E+00  0.0000E+00  0.0000E+00  0.0000E+00  0.0000E+00  0.0000E+00  0.0000E+00  0.0000E+00  0.0000E+00  0.0000E+00  0.0000E+00  0.0000E+00  0.0000E+00  0.0000E+00  0.0000E+00
    -40.839  0.0000E+00  0.0000E+00  0.0000E+00  0.0000E+00  0.0000E+00  0.0000E+00  0.0000E+00  0.0000E+00  0.0000E+00  0.0000E+00  0.0000E+00  0.0000E+00  0.0000E+00  0.0000E+00  0.0000E+00  0.0000E+00  0.0000E+00  0.0000E+00
    -40.588  0.0000E+00  0.0000E+00  0.0000E+00  0.0000E+00  0.0000E+00  0.0000E+00  0.0000E+00  0.0000E+00  0.0000E+00  0.0000E+00  0.0000E+00  0.0000E+00  0.0000E+00  0.0000E+00  0.0000E+00  0.0000E+00  0.0000E+00  0.0000E+00
    -40.337  0.0000E+00  0.0000E+00  0.0000E+00  0.0000E+00  0.0000E+00  0.0000E+00  0.0000E+00  0.0000E+00  0.0000E+00  0.0000E+00  0.0000E+00  0.0000E+00  0.0000E+00  0.0000E+00  0.0000E+00  0.0000E+00  0.0000E+00  0.0000E+00
    -40.085  0.0000E+00  0.0000E+00  0.0000E+00  0.0000E+00  0.0000E+00  0.0000E+00  0.0000E+00  0.0000E+00  0.0000E+00  0.0000E+00  0.0000E+00  0.0000E+00  0.0000E+00  0.0000E+00  0.0000E+00  0.0000E+00  0.0000E+00  0.0000E+00
    -39.834  0.0000E+00  0.0000E+00  0.0000E+00  0.0000E+00  0.0000E+00  0.0000E+00  0.0000E+00  0.0000E+00  0.0000E+00  0.0000E+00  0.0000E+00  0.0000E+00  0.0000E+00  0.0000E+00  0.0000E+00  0.0000E+00  0.0000E+00  0.0000E+00
    -39.583  0.0000E+00  0.0000E+00  0.0000E+00  0.0000E+00  0.0000E+00  0.0000E+00  0.0000E+00  0.0000E+00  0.0000E+00  0.0000E+00  0.0000E+00  0.0000E+00  0.0000E+00  0.0000E+00  0.0000E+00  0.0000E+00  0.0000E+00  0.0000E+00
    -39.332  0.0000E+00  0.0000E+00  0.0000E+00  0.0000E+00  0.0000E+00  0.0000E+00  0.0000E+00  0.0000E+00  0.0000E+00  0.0000E+00  0.0000E+00  0.0000E+00  0.0000E+00  0.0000E+00  0.0000E+00  0.0000E+00  0.0000E+00  0.0000E+00
    -39.080  0.0000E+00  0.0000E+00  0.0000E+00  0.0000E+00  0.0000E+00  0.0000E+00  0.0000E+00  0.0000E+00  0.0000E+00  0.0000E+00  0.0000E+00  0.0000E+00  0.0000E+00  0.0000E+00  0.0000E+00  0.0000E+00  0.0000E+00  0.0000E+00
    -38.829  0.0000E+00  0.0000E+00  0.0000E+00  0.0000E+00  0.0000E+00  0.0000E+00  0.0000E+00  0.0000E+00  0.0000E+00  0.0000E+00  0.0000E+00  0.0000E+00  0.0000E+00  0.0000E+00  0.0000E+00  0.0000E+00  0.0000E+00  0.0000E+00
    -38.578  0.0000E+00  0.0000E+00  0.0000E+00  0.0000E+00  0.0000E+00  0.0000E+00  0.0000E+00  0.0000E+00  0.0000E+00  0.0000E+00  0.0000E+00  0.0000E+00  0.0000E+00  0.0000E+00  0.0000E+00  0.0000E+00  0.0000E+00  0.0000E+00
    -38.327  0.0000E+00  0.0000E+00  0.0000E+00  0.0000E+00  0.0000E+00  0.0000E+00  0.0000E+00  0.0000E+00  0.0000E+00  0.0000E+00  0.0000E+00  0.0000E+00  0.0000E+00  0.0000E+00  0.0000E+00  0.0000E+00  0.0000E+00  0.0000E+00