  28  28   1   0
  0.1260839E+02  0.5010837E-09  0.6392019E-09  0.1102222E-08  0.5000000E-15
  1.000000000000000E-004
  CAR 
 unknown system                          
     16.66344715    -56.18781355  301      3.98779259      1.00000000
    -56.188  0.0000E+00  0.0000E+00  0.0000E+00  0.0000E+00
    -55.945  0.0000E+00  0.0000E+00  0.0000E+00  0.0000E+00
    -55.702  0.0000E+00  0.0000E+00  0.0000E+00  0.0000E+00
    -55.459  0.0000E+00  0.0000E+00  0.0000E+00  0.0000E+00
    -55.216  0.0000E+00  0.0000E+00  0.0000E+00  0.0000E+00
    -54.974  0.0000E+00  0.0000E+00  0.0000E+00  0.0000E+00
    -54.731  0.0000E+00  0.0000E+00  0.0000E+00  0.0000E+00
    -54.488  0.0000E+00  0.0000E+00  0.0000E+00  0.0000E+00
    -54.245  0.0000E+00  0.0000E+00  0.0000E+00  0.0000E+00
    -54.002  0.0000E+00  0.0000E+00  0.0000E+00  0.0000E+00
    -53.759  0.0000E+00  0.0000E+00  0.0000E+00  0.0000E+00
    -53.517  0.4503E-04  0.0000E+00  0.1093E-04  0.0000E+00
    -53.274  0.5744E-02  0.0000E+00  0.1406E-02  0.0000E+00
    -53.031  0.7067E+00  0.0000E+00  0.1730E+00  0.0000E+00
    -52.788  0.1334E+02  0.0000E+00  0.3413E+01  0.0000E+00
    -52.545  0.2395E+01  0.0000E+00  0.3995E+01  0.0000E+00
    -52.302  0.4396E-02  0.0000E+00  0.4001E+01  0.0000E+00
    -52.060  0.5424E+00  0.0000E+00  0.4133E+01  0.0000E+00
    -51.817  0.1289E+02  0.0000E+00  0.7263E+01  0.0000E+00
    -51.574  0.3971E+01  0.0000E+00  0.8228E+01  0.0000E+00
    -51.331  0.1368E+02  0.0000E+00  0.1156E+02  0.0000E+00
    -51.088  0.1811E+01  0.0000E+00  0.1200E+02  0.0000E+00
    -50.845  0.0000E+00  0.0000E+00  0.1200E+02  0.0000E+00
    -50.603  0.0000E+00  0.0000E+00  0.1200E+02  0.0000E+00
    -50.360  0.0000E+00  0.0000E+00  0.1200E+02  0.0000E+00
    -50.117  0.0000E+00  0.0000E+00  0.1200E+02  0.0000E+00
    -49.874  0.0000E+00  0.0000E+00  0.1200E+02  0.0000E+00
    -49.631  0.0000E+00  0.0000E+00  0.1200E+02  0.0000E+00
    -49.388  0.0000E+00  0.0000E+00  0.1200E+02  0.0000E+00
    -49.146  0.0000E+00  0.0000E+00  0.1200E+02  0.0000E+00
    -48.903  0.0000E+00  0.5871E-04  0.1200E+02  0.1426E-04
    -48.660  0.0000E+00  0.7489E-02  0.1200E+02  0.1833E-02
    -48.417  0.0000E+00  0.9112E+00  0.1200E+02  0.2231E+00
    -48.174  0.0000E+00  0.1385E+02  0.1200E+02  0.3586E+01
    -47.931  0.0000E+00  0.1267E+02  0.1200E+02  0.6662E+01
    -47.688  0.0000E+00  0.1942E+02  0.1200E+02  0.1138E+02
    -47.446  0.0000E+00  0.2449E+01  0.1200E+02  0.1199E+02
    -47.203  0.0000E+00  0.0000E+00  0.1200E+02  0.1200E+02
    -46.960  0.0000E+00  0.0000E+00  0.1200E+02  0.1200E+02
    -46.717  0.0000E+00  0.0000E+00  0.1200E+02  0.1200E+02
    -46.474  0.0000E+00  0.0000E+00  0.1200E+02  0.1200E+02
    -46.231  0.0000E+00  0.0000E+00  0.1200E+02  0.1200E+02
    -45.989  0.0000E+00  0.0000E+00  0.1200E+02  0.1200E+02
    -45.746  0.0000E+00  0.0000E+00  0.1200E+02  0.1200E+02
    -45.503  0.0000E+00  0.0000E+00  0.1200E+02  0.1200E+02
    -45.260  0.0000E+00  0.0000E+00  0.1200E+02  0.1200E+02
    -45.017  0.0000E+00  0.0000E+00  0.1200E+02  0.1200E+02
    -44.774  0.0000E+00  0.0000E+00  0.1200E+02  0.1200E+02
    -44.532  0.0000E+00  0.0000E+00  0.1200E+02  0.1200E+02
    -44.289  0.0000E+00  0.0000E+00  0.1200E+02  0.1200E+02
    -44.046  0.0000E+00  0.0000E+00  0.1200E+02  0.1200E+02
    -43.803  0.0000E+00  0.0000E+00  0.1200E+02  0.1200E+02
    -43.560  0.0000E+00  0.0000E+00  0.1200E+02  0.1200E+02
    -43.317  0.0000E+00  0.0000E+00  0.1200E+02  0.1200E+02
    -43.075  0.0000E+00  0.0000E+00  0.1200E+02  0.1200E+02
    -42.832  0.0000E+00  0.0000E+00  0.1200E+02  0.1200E+02
    -42.589  0.0000E+00  0.0000E+00  0.1200E+02  0.1200E+02
    -42.346  0.2852E-02  0.2831E-02  0.1200E+02  0.1200E+02
    -42.103  0.3560E+00  0.3534E+00  0.1209E+02  0.1209E+02
    -41.860  0.1185E+02  0.1183E+02  0.1496E+02  0.1496E+02
    -41.618  0.4220E+01  0.4243E+01  0.1599E+02  0.1599E+02
    -41.375  0.0000E+00  0.0000E+00  0.1600E+02  0.1600E+02
    -41.132  0.0000E+00  0.0000E+00  0.1600E+02  0.1600E+02
    -40.889  0.0000E+00  0.0000E+00  0.1600E+02  0.1600E+02
    -40.646  0.0000E+00  0.0000E+00  0.1600E+02  0.1600E+02
    -40.403  0.0000E+00  0.0000E+00  0.1600E+02  0.1600E+02
    -40.161  0.0000E+00  0.0000E+00  0.1600E+02  0.1600E+02
    -39.918  0.0000E+00  0.0000E+00  0.1600E+02  0.1600E+02
    -39.675  0.0000E+00  0.0000E+00  0.1600E+02  0.1600E+02
    -39.432  0.0000E+00  0.0000E+00  0.1600E+02  0.1600E+02
    -39.189  0.0000E+00  0.0000E+00  0.1600E+02  0.1600E+02
    -38.946  0.0000E+00  0.0000E+00  0.1600E+02  0.1600E+02
    -38.704  0.0000E+00  0.0000E+00  0.1600E+02  0.1600E+02
    -38.461  0.0000E+00  0.0000E+00  0.1600E+02  0.1600E+02
    -38.218  0.0000E+00  0.0000E+00  0.1600E+02  0.1600E+02
    -37.975  0.0000E+00  0.0000E+00  0.1600E+02  0.1600E+02
    -37.732  0.0000E+00  0.0000E+00  0.1600E+02  0.1600E+02
    -37.489  0.0000E+00  0.0000E+00  0.1600E+02  0.1600E+02
    -37.246  0.0000E+00  0.0000E+00  0.1600E+02  0.1600E+02
    -37.004  0.0000E+00  0.0000E+00  0.1600E+02  0.1600E+02
    -36.761  0.0000E+00  0.0000E+00  0.1600E+02  0.1600E+02
    -36.518  0.0000E+00  0.0000E+00  0.1600E+02  0.1600E+02
    -36.275  0.0000E+00  0.0000E+00  0.1600E+02  0.1600E+02
    -36.032  0.0000E+00  0.0000E+00  0.1600E+02  0.1600E+02
    -35.789  0.0000E+00  0.0000E+00  0.1600E+02  0.1600E+02
    -35.547  0.0000E+00  0.0000E+00  0.1600E+02  0.1600E+02
    -35.304  0.0000E+00  0.0000E+00  0.1600E+02  0.1600E+02
    -35.061  0.0000E+00  0.0000E+00  0.1600E+02  0.1600E+02
    -34.818  0.0000E+00  0.0000E+00  0.1600E+02  0.1600E+02
    -34.575  0.0000E+00  0.0000E+00  0.1600E+02  0.1600E+02
    -34.332  0.0000E+00  0.0000E+00  0.1600E+02  0.1600E+02
    -34.090  0.0000E+00  0.0000E+00  0.1600E+02  0.1600E+02
    -33.847  0.0000E+00  0.0000E+00  0.1600E+02  0.1600E+02
    -33.604  0.0000E+00  0.0000E+00  0.1600E+02  0.1600E+02
    -33.361  0.0000E+00  0.0000E+00  0.1600E+02  0.1600E+02
    -33.118  0.0000E+00  0.0000E+00  0.1600E+02  0.1600E+02
    -32.875  0.0000E+00  0.0000E+00  0.1600E+02  0.1600E+02
    -32.633  0.0000E+00  0.0000E+00  0.1600E+02  0.1600E+02
    -32.390  0.0000E+00  0.0000E+00  0.1600E+02  0.1600E+02
    -32.147  0.0000E+00  0.0000E+00  0.1600E+02  0.1600E+02
    -31.904  0.0000E+00  0.0000E+00  0.1600E+02  0.1600E+02
    -31.661  0.0000E+00  0.0000E+00  0.1600E+02  0.1600E+02
    -31.418  0.0000E+00  0.0000E+00  0.1600E+02  0.1600E+02
    -31.176  0.0000E+00  0.0000E+00  0.1600E+02  0.1600E+02
    -30.933  0.0000E+00  0.0000E+00  0.1600E+02  0.1600E+02
    -30.690  0.0000E+00  0.0000E+00  0.1600E+02  0.1600E+02
    -30.447  0.0000E+00  0.0000E+00  0.1600E+02  0.1600E+02
    -30.204  0.0000E+00  0.0000E+00  0.1600E+02  0.1600E+02
    -29.961  0.0000E+00  0.0000E+00  0.1600E+02  0.1600E+02
    -29.719  0.0000E+00  0.0000E+00  0.1600E+02  0.1600E+02
    -29.476  0.0000E+00  0.0000E+00  0.1600E+02  0.1600E+02
    -29.233  0.0000E+00  0.0000E+00  0.1600E+02  0.1600E+02
    -28.990  0.0000E+00  0.0000E+00  0.1600E+02  0.1600E+02
    -28.747  0.0000E+00  0.0000E+00  0.1600E+02  0.1600E+02
    -28.504  0.0000E+00  0.0000E+00  0.1600E+02  0.1600E+02
    -28.261  0.0000E+00  0.0000E+00  0.1600E+02  0.1600E+02
    -28.019  0.0000E+00  0.0000E+00  0.1600E+02  0.1600E+02
    -27.776  0.0000E+00  0.0000E+00  0.1600E+02  0.1600E+02
    -27.533  0.0000E+00  0.0000E+00  0.1600E+02  0.1600E+02
    -27.290  0.0000E+00  0.0000E+00  0.1600E+02  0.1600E+02
    -27.047  0.0000E+00  0.0000E+00  0.1600E+02  0.1600E+02
    -26.804  0.0000E+00  0.0000E+00  0.1600E+02  0.1600E+02
    -26.562  0.0000E+00  0.0000E+00  0.1600E+02  0.1600E+02
    -26.319  0.0000E+00  0.0000E+00  0.1600E+02  0.1600E+02
    -26.076  0.0000E+00  0.0000E+00  0.1600E+02  0.1600E+02
    -25.833  0.0000E+00  0.0000E+00  0.1600E+02  0.1600E+02
    -25.590  0.0000E+00  0.0000E+00  0.1600E+02  0.1600E+02
    -25.347  0.0000E+00  0.0000E+00  0.1600E+02  0.1600E+02
    -25.105  0.0000E+00  0.0000E+00  0.1600E+02  0.1600E+02
    -24.862  0.0000E+00  0.0000E+00  0.1600E+02  0.1600E+02
    -24.619  0.0000E+00  0.0000E+00  0.1600E+02  0.1600E+02
    -24.376  0.0000E+00  0.0000E+00  0.1600E+02  0.1600E+02
    -24.133  0.0000E+00  0.0000E+00  0.1600E+02  0.1600E+02
    -23.890  0.0000E+00  0.0000E+00  0.1600E+02  0.1600E+02
    -23.648  0.0000E+00  0.0000E+00  0.1600E+02  0.1600E+02
    -23.405  0.0000E+00  0.0000E+00  0.1600E+02  0.1600E+02
    -23.162  0.0000E+00  0.0000E+00  0.1600E+02  0.1600E+02
    -22.919  0.0000E+00  0.0000E+00  0.1600E+02  0.1600E+02
    -22.676  0.0000E+00  0.0000E+00  0.1600E+02  0.1600E+02
    -22.433  0.0000E+00  0.0000E+00  0.1600E+02  0.1600E+02
    -22.191  0.0000E+00  0.0000E+00  0.1600E+02  0.1600E+02
    -21.948  0.0000E+00  0.0000E+00  0.1600E+02  0.1600E+02
    -21.705  0.0000E+00  0.0000E+00  0.1600E+02  0.1600E+02
    -21.462  0.0000E+00  0.0000E+00  0.1600E+02  0.1600E+02
    -21.219  0.0000E+00  0.0000E+00  0.1600E+02  0.1600E+02
    -20.976  0.0000E+00  0.0000E+00  0.1600E+02  0.1600E+02
    -20.734  0.0000E+00  0.0000E+00  0.1600E+02  0.1600E+02
    -20.491  0.0000E+00  0.0000E+00  0.1600E+02  0.1600E+02
    -20.248  0.0000E+00  0.0000E+00  0.1600E+02  0.1600E+02
    -20.005  0.0000E+00  0.0000E+00  0.1600E+02  0.1600E+02
    -19.762  0.0000E+00  0.0000E+00  0.1600E+02  0.1600E+02
    -19.519  0.0000E+00  0.0000E+00  0.1600E+02  0.1600E+02
    -19.277  0.0000E+00  0.0000E+00  0.1600E+02  0.1600E+02
    -19.034  0.0000E+00  0.0000E+00  0.1600E+02  0.1600E+02
    -18.791  0.0000E+00  0.0000E+00  0.1600E+02  0.1600E+02
    -18.548  0.8567E-06  0.0000E+00  0.1600E+02  0.1600E+02
    -18.305  0.6897E-03  0.1203E-03  0.1600E+02  0.1600E+02
    -18.062  0.8668E-01  0.1641E-01  0.1602E+02  0.1600E+02
    -17.819  0.4440E+01  0.1506E+01  0.1710E+02  0.1637E+02
    -17.577  0.1105E+02  0.1163E+02  0.1978E+02  0.1919E+02
    -17.334  0.7377E+00  0.3208E+01  0.2000E+02  0.1999E+02
    -17.091  0.0000E+00  0.0000E+00  0.2000E+02  0.2000E+02
    -16.848  0.0000E+00  0.0000E+00  0.2000E+02  0.2000E+02
    -16.605  0.0000E+00  0.0000E+00  0.2000E+02  0.2000E+02
    -16.362  0.5329E-03  0.7568E-04  0.2000E+02  0.2000E+02
    -16.120  0.6969E-01  0.1211E-01  0.2002E+02  0.2000E+02
    -15.877  0.5918E+01  0.1381E+01  0.2145E+02  0.2034E+02
    -15.634  0.3132E+02  0.2260E+02  0.2906E+02  0.2583E+02
    -15.391  0.1159E+02  0.2390E+02  0.3194E+02  0.3165E+02
    -15.148  0.0000E+00  0.1134E+01  0.3200E+02  0.3200E+02
    -14.905  0.0000E+00  0.0000E+00  0.3200E+02  0.3200E+02
    -14.663  0.0000E+00  0.0000E+00  0.3200E+02  0.3200E+02
    -14.420  0.0000E+00  0.0000E+00  0.3200E+02  0.3200E+02
    -14.177  0.0000E+00  0.0000E+00  0.3200E+02  0.3200E+02
    -13.934  0.0000E+00  0.0000E+00  0.3200E+02  0.3200E+02
    -13.691  0.0000E+00  0.0000E+00  0.3200E+02  0.3200E+02
    -13.448  0.0000E+00  0.0000E+00  0.3200E+02  0.3200E+02
    -13.206  0.0000E+00  0.0000E+00  0.3200E+02  0.3200E+02
    -12.963  0.0000E+00  0.0000E+00  0.3200E+02  0.3200E+02
    -12.720  0.0000E+00  0.0000E+00  0.3200E+02  0.3200E+02
    -12.477  0.0000E+00  0.0000E+00  0.3200E+02  0.3200E+02
    -12.234  0.0000E+00  0.0000E+00  0.3200E+02  0.3200E+02
    -11.991  0.0000E+00  0.0000E+00  0.3200E+02  0.3200E+02
    -11.749  0.0000E+00  0.0000E+00  0.3200E+02  0.3200E+02
    -11.506  0.0000E+00  0.0000E+00  0.3200E+02  0.3200E+02
    -11.263  0.0000E+00  0.0000E+00  0.3200E+02  0.3200E+02
    -11.020  0.0000E+00  0.0000E+00  0.3200E+02  0.3200E+02
    -10.777  0.0000E+00  0.0000E+00  0.3200E+02  0.3200E+02
    -10.534  0.0000E+00  0.0000E+00  0.3200E+02  0.3200E+02
    -10.292  0.0000E+00  0.0000E+00  0.3200E+02  0.3200E+02
    -10.049  0.0000E+00  0.0000E+00  0.3200E+02  0.3200E+02
     -9.806  0.0000E+00  0.0000E+00  0.3200E+02  0.3200E+02
     -9.563  0.0000E+00  0.0000E+00  0.3200E+02  0.3200E+02
     -9.320  0.0000E+00  0.0000E+00  0.3200E+02  0.3200E+02
     -9.077  0.0000E+00  0.0000E+00  0.3200E+02  0.3200E+02
     -8.834  0.0000E+00  0.0000E+00  0.3200E+02  0.3200E+02
     -8.592  0.0000E+00  0.0000E+00  0.3200E+02  0.3200E+02
     -8.349  0.0000E+00  0.0000E+00  0.3200E+02  0.3200E+02
     -8.106  0.0000E+00  0.0000E+00  0.3200E+02  0.3200E+02
     -7.863  0.0000E+00  0.0000E+00  0.3200E+02  0.3200E+02
     -7.620  0.0000E+00  0.0000E+00  0.3200E+02  0.3200E+02
     -7.377  0.0000E+00  0.0000E+00  0.3200E+02  0.3200E+02
     -7.135  0.0000E+00  0.0000E+00  0.3200E+02  0.3200E+02
     -6.892  0.1260E-04  0.1826E-06  0.3200E+02  0.3200E+02
     -6.649  0.2147E-02  0.2296E-03  0.3200E+02  0.3200E+02
     -6.406  0.2402E+00  0.3007E-01  0.3206E+02  0.3201E+02
     -6.163  0.4896E+01  0.1704E+01  0.3325E+02  0.3242E+02
     -5.920  0.1053E+02  0.1067E+02  0.3581E+02  0.3501E+02
     -5.678  0.6680E+00  0.3969E+01  0.3600E+02  0.3599E+02
     -5.435  0.0000E+00  0.0000E+00  0.3600E+02  0.3600E+02
     -5.192  0.0000E+00  0.0000E+00  0.3600E+02  0.3600E+02
     -4.949  0.0000E+00  0.0000E+00  0.3600E+02  0.3600E+02
     -4.706  0.4981E-05  0.0000E+00  0.3600E+02  0.3600E+02
     -4.463  0.7762E-03  0.2543E-04  0.3600E+02  0.3600E+02
     -4.221  0.8366E-01  0.3450E-02  0.3602E+02  0.3600E+02
     -3.978  0.1359E+01  0.2626E+00  0.3635E+02  0.3606E+02
     -3.735  0.4828E+01  0.2231E+01  0.3752E+02  0.3661E+02
     -3.492  0.8309E+01  0.5517E+01  0.3955E+02  0.3795E+02
     -3.249  0.1319E+02  0.1111E+02  0.4276E+02  0.4066E+02
     -3.006  0.1385E+02  0.1354E+02  0.4616E+02  0.4396E+02
     -2.764  0.7042E+01  0.1419E+02  0.4790E+02  0.4743E+02
     -2.521  0.3275E+00  0.2174E+01  0.4800E+02  0.4799E+02
     -2.278  0.6652E-01  0.6486E-04  0.4802E+02  0.4800E+02
     -2.035  0.2192E+01  0.8696E-02  0.4855E+02  0.4800E+02
     -1.792  0.6868E+01  0.7639E+00  0.5022E+02  0.4819E+02
     -1.549  0.8797E+01  0.5306E+01  0.5237E+02  0.4948E+02
     -1.307  0.1436E+02  0.7339E+01  0.5587E+02  0.5127E+02
     -1.064  0.1112E+02  0.1111E+02  0.5860E+02  0.5398E+02
     -0.821  0.8627E+01  0.1371E+02  0.6072E+02  0.5733E+02
     -0.578  0.1570E+02  0.1027E+02  0.6455E+02  0.5986E+02
     -0.335  0.1335E+02  0.1370E+02  0.6782E+02  0.6321E+02
     -0.092  0.1050E+02  0.1095E+02  0.7041E+02  0.6590E+02
      0.150  0.1612E+02  0.9558E+01  0.7433E+02  0.6824E+02
      0.393  0.1507E+02  0.7522E+01  0.7803E+02  0.7010E+02
      0.636  0.1414E+02  0.1683E+02  0.8150E+02  0.7420E+02
      0.879  0.9761E+01  0.1310E+02  0.8389E+02  0.7741E+02
      1.122  0.8445E+01  0.7797E+01  0.8597E+02  0.7933E+02
      1.365  0.1291E+02  0.2587E+01  0.8911E+02  0.7998E+02
      1.608  0.1620E+02  0.1459E-01  0.9308E+02  0.8000E+02
      1.850  0.1212E+02  0.0000E+00  0.9605E+02  0.8000E+02
      2.093  0.7858E+01  0.0000E+00  0.9800E+02  0.8000E+02
      2.336  0.7781E+01  0.0000E+00  0.9990E+02  0.8000E+02
      2.579  0.2688E+00  0.0000E+00  0.1000E+03  0.8000E+02
      2.822  0.0000E+00  0.0000E+00  0.1000E+03  0.8000E+02
      3.065  0.0000E+00  0.0000E+00  0.1000E+03  0.8000E+02
      3.307  0.0000E+00  0.6832E-03  0.1000E+03  0.8000E+02
      3.550  0.0000E+00  0.8652E-01  0.1000E+03  0.8002E+02
      3.793  0.0000E+00  0.5917E+01  0.1000E+03  0.8146E+02
      4.036  0.0000E+00  0.1182E+02  0.1000E+03  0.8433E+02
      4.279  0.6920E-07  0.1808E+02  0.1000E+03  0.8878E+02
      4.522  0.1389E-04  0.1313E+02  0.1000E+03  0.9200E+02
      4.764  0.1730E-02  0.7992E+01  0.1000E+03  0.9401E+02
      5.007  0.5876E-01  0.6639E+01  0.1000E+03  0.9562E+02
      5.250  0.1983E+00  0.6769E+01  0.1001E+03  0.9728E+02
      5.493  0.3194E+00  0.1047E+02  0.1001E+03  0.9984E+02
      5.736  0.4226E+00  0.8523E+00  0.1002E+03  0.1001E+03
      5.979  0.5968E+00  0.3688E+00  0.1004E+03  0.1002E+03
      6.221  0.7106E+00  0.4856E+00  0.1006E+03  0.1003E+03
      6.464  0.9654E+00  0.6506E+00  0.1008E+03  0.1004E+03
      6.707  0.1254E+01  0.8394E+00  0.1011E+03  0.1006E+03
      6.950  0.1487E+01  0.1042E+01  0.1015E+03  0.1009E+03
      7.193  0.1503E+01  0.1447E+01  0.1018E+03  0.1013E+03
      7.436  0.2062E+01  0.1746E+01  0.1023E+03  0.1017E+03
      7.678  0.2906E+01  0.2234E+01  0.1031E+03  0.1022E+03
      7.921  0.3733E+01  0.3146E+01  0.1040E+03  0.1030E+03
      8.164  0.3890E+01  0.3313E+01  0.1049E+03  0.1038E+03
      8.407  0.4421E+01  0.2103E+01  0.1060E+03  0.1043E+03
      8.650  0.4508E+01  0.3998E+01  0.1071E+03  0.1053E+03
      8.893  0.4690E+01  0.5455E+01  0.1083E+03  0.1066E+03
      9.135  0.5952E+01  0.5594E+01  0.1097E+03  0.1080E+03
      9.378  0.6132E+01  0.6106E+01  0.1112E+03  0.1095E+03
      9.621  0.6581E+01  0.6780E+01  0.1128E+03  0.1112E+03
      9.864  0.7275E+01  0.7424E+01  0.1146E+03  0.1130E+03
     10.107  0.5616E+01  0.7143E+01  0.1160E+03  0.1147E+03
     10.350  0.5275E+01  0.5527E+01  0.1173E+03  0.1161E+03
     10.593  0.4114E+01  0.4566E+01  0.1183E+03  0.1172E+03
     10.835  0.6466E+01  0.5519E+01  0.1199E+03  0.1186E+03
     11.078  0.5500E+01  0.5965E+01  0.1212E+03  0.1200E+03
     11.321  0.6136E+01  0.3963E+01  0.1227E+03  0.1210E+03
     11.564  0.4486E+01  0.6386E+01  0.1238E+03  0.1225E+03
     11.807  0.4148E+01  0.4470E+01  0.1248E+03  0.1236E+03
     12.050  0.4194E+01  0.4156E+01  0.1259E+03  0.1247E+03
     12.292  0.3397E+01  0.3958E+01  0.1267E+03  0.1256E+03
     12.535  0.2870E+01  0.3041E+01  0.1274E+03  0.1264E+03
     12.778  0.1841E+01  0.3016E+01  0.1279E+03  0.1271E+03
     13.021  0.5853E+00  0.2450E+01  0.1280E+03  0.1277E+03
     13.264  0.7552E-02  0.1023E+01  0.1280E+03  0.1280E+03
     13.507  0.0000E+00  0.8190E-01  0.1280E+03  0.1280E+03
     13.749  0.0000E+00  0.1822E-02  0.1280E+03  0.1280E+03
     13.992  0.0000E+00  0.0000E+00  0.1280E+03  0.1280E+03
     14.235  0.0000E+00  0.0000E+00  0.1280E+03  0.1280E+03
     14.478  0.0000E+00  0.0000E+00  0.1280E+03  0.1280E+03
     14.721  0.0000E+00  0.0000E+00  0.1280E+03  0.1280E+03
     14.964  0.0000E+00  0.0000E+00  0.1280E+03  0.1280E+03
     15.206  0.0000E+00  0.0000E+00  0.1280E+03  0.1280E+03
     15.449  0.0000E+00  0.0000E+00  0.1280E+03  0.1280E+03
     15.692  0.0000E+00  0.0000E+00  0.1280E+03  0.1280E+03
     15.935  0.0000E+00  0.0000E+00  0.1280E+03  0.1280E+03
     16.178  0.0000E+00  0.0000E+00  0.1280E+03  0.1280E+03
     16.421  0.0000E+00  0.0000E+00  0.1280E+03  0.1280E+03
     16.663  0.0000E+00  0.0000E+00  0.1280E+03  0.1280E+03
     16.66344715    -56.18781355  301      3.98779259      1.00000000
    -56.188  0.0000E+00  0.0000E+00  0.0000E+00  0.0000E+00  0.0000E+00  0.0000E+00  0.0000E+00  0.0000E+00  0.0000E+00  0.0000E+00  0.0000E+00  0.0000E+00  0.0000E+00  0.0000E+00  0.0000E+00  0.0000E+00  0.0000E+00  0.0000E+00
    -55.945  0.0000E+00  0.0000E+00  0.0000E+00  0.0000E+00  0.0000E+00  0.0000E+00  0.0000E+00  0.0000E+00  0.0000E+00  0.0000E+00  0.0000E+00  0.0000E+00  0.0000E+00  0.0000E+00  0.0000E+00  0.0000E+00  0.0000E+00  0.0000E+00
    -55.702  0.0000E+00  0.0000E+00  0.0000E+00  0.0000E+00  0.0000E+00  0.0000E+00  0.0000E+00  0.0000E+00  0.0000E+00  0.0000E+00  0.0000E+00  0.0000E+00  0.0000E+00  0.0000E+00  0.0000E+00  0.0000E+00  0.0000E+00  0.0000E+00
    -55.459  0.0000E+00  0.0000E+00  0.0000E+00  0.0000E+00  0.0000E+00  0.0000E+00  0.0000E+00  0.0000E+00  0.0000E+00  0.0000E+00  0.0000E+00  0.0000E+00  0.0000E+00  0.0000E+00  0.0000E+00  0.0000E+00  0.0000E+00  0.0000E+00
    -55.216  0.0000E+00  0.0000E+00  0.0000E+00  0.0000E+00  0.0000E+00  0.0000E+00  0.0000E+00  0.0000E+00  0.0000E+00  0.0000E+00  0.0000E+00  0.0000E+00  0.0000E+00  0.0000E+00  0.0000E+00  0.0000E+00  0.0000E+00  0.0000E+00
    -54.974  0.0000E+00  0.0000E+00  0.0000E+00  0.0000E+00  0.0000E+00  0.0000E+00  0.0000E+00  0.0000E+00  0.0000E+00  0.0000E+00  0.0000E+00  0.0000E+00  0.0000E+00  0.0000E+00  0.0000E+00  0.0000E+00  0.0000E+00  0.0000E+00
    -54.731  0.0000E+00  0.0000E+00  0.0000E+00  0.0000E+00  0.0000E+00  0.0000E+00  0.0000E+00  0.0000E+00  0.0000E+00  0.0000E+00  0.0000E+00  0.0000E+00  0.0000E+00  0.0000E+00  0.0000E+00  0.0000E+00  0.0000E+00  0.0000E+00
    -54.488  0.0000E+00  0.0000E+00  0.0000E+00  0.0000E+00  0.0000E+00  0.0000E+00  0.0000E+00  0.0000E+00  0.0000E+00  0.0000E+00  0.0000E+00  0.0000E+00  0.0000E+00  0.0000E+00  0.0000E+00  0.0000E+00  0.0000E+00  0.0000E+00
    -54.245  0.0000E+00  0.0000E+00  0.0000E+00  0.0000E+00  0.0000E+00  0.0000E+00  0.0000E+00  0.0000E+00  0.0000E+00  0.0000E+00  0.0000E+00  0.0000E+00  0.0000E+00  0.0000E+00  0.0000E+00  0.0000E+00  0.0000E+00  0.0000E+00
    -54.002  0.0000E+00  0.0000E+00  0.0000E+00  0.0000E+00  0.0000E+00  0.0000E+00  0.0000E+00  0.0000E+00  0.0000E+00  0.0000E+00  0.0000E+00  0.0000E+00  0.0000E+00  0.0000E+00  0.0000E+00  0.0000E+00  0.0000E+00  0.0000E+00
    -53.759  0.0000E+00  0.0000E+00  0.0000E+00  0.0000E+00  0.0000E+00  0.0000E+00  0.0000E+00  0.0000E+00  0.0000E+00  0.0000E+00  0.0000E+00  0.0000E+00  0.0000E+00  0.0000E+00  0.0000E+00  0.0000E+00  0.0000E+00  0.0000E+00
    -53.517  0.1575E-13  0.0000E+00  0.1266E-13  0.0000E+00  0.7927E-14  0.0000E+00  0.3261E-14  0.0000E+00  0.0000E+00  0.0000E+00  0.0000E+00  0.0000E+00  0.0000E+00  0.0000E+00  0.0000E+00  0.0000E+00  0.0000E+00  0.0000E+00
    -53.274  0.2009E-11  0.0000E+00  0.1615E-11  0.0000E+00  0.1011E-11  0.0000E+00  0.4159E-12  0.0000E+00  0.0000E+00  0.0000E+00  0.0000E+00  0.0000E+00  0.0000E+00  0.0000E+00  0.0000E+00  0.0000E+00  0.0000E+00  0.0000E+00
    -53.031  0.2472E-09  0.0000E+00  0.1987E-09  0.0000E+00  0.1244E-09  0.0000E+00  0.5118E-10  0.0000E+00  0.0000E+00  0.0000E+00  0.0000E+00  0.0000E+00  0.0000E+00  0.0000E+00  0.0000E+00  0.0000E+00  0.0000E+00  0.0000E+00
    -52.788  0.4665E-08  0.0000E+00  0.3750E-08  0.0000E+00  0.2349E-08  0.0000E+00  0.9663E-09  0.0000E+00  0.0000E+00  0.0000E+00  0.0000E+00  0.0000E+00  0.0000E+00  0.0000E+00  0.0000E+00  0.0000E+00  0.0000E+00  0.0000E+00
    -52.545  0.8369E-09  0.0000E+00  0.6728E-09  0.0000E+00  0.4215E-09  0.0000E+00  0.1735E-09  0.0000E+00  0.0000E+00  0.0000E+00  0.0000E+00  0.0000E+00  0.0000E+00  0.0000E+00  0.0000E+00  0.0000E+00  0.0000E+00  0.0000E+00
    -52.302  0.3889E-11  0.0000E+00  0.7513E-12  0.0000E+00  0.1866E-11  0.0000E+00  0.3598E-12  0.0000E+00  0.0000E+00  0.0000E+00  0.0000E+00  0.0000E+00  0.0000E+00  0.0000E+00  0.0000E+00  0.0000E+00  0.0000E+00  0.0000E+00
    -52.060  0.4798E-09  0.0000E+00  0.9270E-10  0.0000E+00  0.2302E-09  0.0000E+00  0.4441E-10  0.0000E+00  0.0000E+00  0.0000E+00  0.0000E+00  0.0000E+00  0.0000E+00  0.0000E+00  0.0000E+00  0.0000E+00  0.0000E+00  0.0000E+00
    -51.817  0.1140E-07  0.0000E+00  0.2203E-08  0.0000E+00  0.5470E-08  0.0000E+00  0.1056E-08  0.0000E+00  0.0000E+00  0.0000E+00  0.0000E+00  0.0000E+00  0.0000E+00  0.0000E+00  0.0000E+00  0.0000E+00  0.0000E+00  0.0000E+00
    -51.574  0.2841E-08  0.0000E+00  0.6338E-09  0.0000E+00  0.1458E-08  0.0000E+00  0.4379E-09  0.0000E+00  0.0000E+00  0.0000E+00  0.0000E+00  0.0000E+00  0.0000E+00  0.0000E+00  0.0000E+00  0.0000E+00  0.0000E+00  0.0000E+00
    -51.331  0.2522E-08  0.0000E+00  0.1696E-08  0.0000E+00  0.2559E-08  0.0000E+00  0.2729E-08  0.0000E+00  0.0000E+00  0.0000E+00  0.0000E+00  0.0000E+00  0.0000E+00  0.0000E+00  0.0000E+00  0.0000E+00  0.0000E+00  0.0000E+00
    -51.088  0.3338E-09  0.0000E+00  0.2244E-09  0.0000E+00  0.3388E-09  0.0000E+00  0.3612E-09  0.0000E+00  0.0000E+00  0.0000E+00  0.0000E+00  0.0000E+00  0.0000E+00  0.0000E+00  0.0000E+00  0.0000E+00  0.0000E+00  0.0000E+00
    -50.845  0.0000E+00  0.0000E+00  0.0000E+00  0.0000E+00  0.0000E+00  0.0000E+00  0.0000E+00  0.0000E+00  0.0000E+00  0.0000E+00  0.0000E+00  0.0000E+00  0.0000E+00  0.0000E+00  0.0000E+00  0.0000E+00  0.0000E+00  0.0000E+00
    -50.603  0.0000E+00  0.0000E+00  0.0000E+00  0.0000E+00  0.0000E+00  0.0000E+00  0.0000E+00  0.0000E+00  0.0000E+00  0.0000E+00  0.0000E+00  0.0000E+00  0.0000E+00  0.0000E+00  0.0000E+00  0.0000E+00  0.0000E+00  0.0000E+00
    -50.360  0.0000E+00  0.0000E+00  0.0000E+00  0.0000E+00  0.0000E+00  0.0000E+00  0.0000E+00  0.0000E+00  0.0000E+00  0.0000E+00  0.0000E+00  0.0000E+00  0.0000E+00  0.0000E+00  0.0000E+00  0.0000E+00  0.0000E+00  0.0000E+00
    -50.117  0.0000E+00  0.0000E+00  0.0000E+00  0.0000E+00  0.0000E+00  0.0000E+00  0.0000E+00  0.0000E+00  0.0000E+00  0.0000E+00  0.0000E+00  0.0000E+00  0.0000E+00  0.0000E+00  0.0000E+00  0.0000E+00  0.0000E+00  0.0000E+00
    -49.874  0.0000E+00  0.0000E+00  0.0000E+00  0.0000E+00  0.0000E+00  0.0000E+00  0.0000E+00  0.0000E+00  0.0000E+00  0.0000E+00  0.0000E+00  0.0000E+00  0.0000E+00  0.0000E+00  0.0000E+00  0.0000E+00  0.0000E+00  0.0000E+00
    -49.631  0.0000E+00  0.0000E+00  0.0000E+00  0.0000E+00  0.0000E+00  0.0000E+00  0.0000E+00  0.0000E+00  0.0000E+00  0.0000E+00  0.0000E+00  0.0000E+00  0.0000E+00  0.0000E+00  0.0000E+00  0.0000E+00  0.0000E+00  0.0000E+00
    -49.388  0.0000E+00  0.0000E+00  0.0000E+00  0.0000E+00  0.0000E+00  0.0000E+00  0.0000E+00  0.0000E+00  0.0000E+00  0.0000E+00  0.0000E+00  0.0000E+00  0.0000E+00  0.0000E+00  0.0000E+00  0.0000E+00  0.0000E+00  0.0000E+00
    -49.146  0.0000E+00  0.0000E+00  0.0000E+00  0.0000E+00  0.0000E+00  0.0000E+00  0.0000E+00  0.0000E+00  0.0000E+00  0.0000E+00  0.0000E+00  0.0000E+00  0.0000E+00  0.0000E+00  0.0000E+00  0.0000E+00  0.0000E+00  0.0000E+00
    -48.903  0.0000E+00  0.5728E-13  0.0000E+00  0.1584E-13  0.0000E+00  0.8199E-14  0.0000E+00  0.6645E-14  0.0000E+00  0.0000E+00  0.0000E+00  0.0000E+00  0.0000E+00  0.0000E+00  0.0000E+00  0.0000E+00  0.0000E+00  0.0000E+00
    -48.660  0.0000E+00  0.7306E-11  0.0000E+00  0.2020E-11  0.0000E+00  0.1046E-11  0.0000E+00  0.8476E-12  0.0000E+00  0.0000E+00  0.0000E+00  0.0000E+00  0.0000E+00  0.0000E+00  0.0000E+00  0.0000E+00  0.0000E+00  0.0000E+00
    -48.417  0.0000E+00  0.8935E-09  0.0000E+00  0.2457E-09  0.0000E+00  0.1278E-09  0.0000E+00  0.1033E-09  0.0000E+00  0.0000E+00  0.0000E+00  0.0000E+00  0.0000E+00  0.0000E+00  0.0000E+00  0.0000E+00  0.0000E+00  0.0000E+00
    -48.174  0.0000E+00  0.1407E-07  0.0000E+00  0.3714E-08  0.0000E+00  0.2003E-08  0.0000E+00  0.1584E-08  0.0000E+00  0.0000E+00  0.0000E+00  0.0000E+00  0.0000E+00  0.0000E+00  0.0000E+00  0.0000E+00  0.0000E+00  0.0000E+00
    -47.931  0.0000E+00  0.4056E-07  0.0000E+00  0.2453E-08  0.0000E+00  0.5162E-08  0.0000E+00  0.2293E-08  0.0000E+00  0.0000E+00  0.0000E+00  0.0000E+00  0.0000E+00  0.0000E+00  0.0000E+00  0.0000E+00  0.0000E+00  0.0000E+00
    -47.688  0.0000E+00  0.3244E-07  0.0000E+00  0.2636E-08  0.0000E+00  0.4943E-08  0.0000E+00  0.4513E-08  0.0000E+00  0.0000E+00  0.0000E+00  0.0000E+00  0.0000E+00  0.0000E+00  0.0000E+00  0.0000E+00  0.0000E+00  0.0000E+00
    -47.446  0.0000E+00  0.1704E-08  0.0000E+00  0.2773E-09  0.0000E+00  0.3745E-09  0.0000E+00  0.6179E-09  0.0000E+00  0.0000E+00  0.0000E+00  0.0000E+00  0.0000E+00  0.0000E+00  0.0000E+00  0.0000E+00  0.0000E+00  0.0000E+00
    -47.203  0.0000E+00  0.0000E+00  0.0000E+00  0.0000E+00  0.0000E+00  0.0000E+00  0.0000E+00  0.0000E+00  0.0000E+00  0.0000E+00  0.0000E+00  0.0000E+00  0.0000E+00  0.0000E+00  0.0000E+00  0.0000E+00  0.0000E+00  0.0000E+00
    -46.960  0.0000E+00  0.0000E+00  0.0000E+00  0.0000E+00  0.0000E+00  0.0000E+00  0.0000E+00  0.0000E+00  0.0000E+00  0.0000E+00  0.0000E+00  0.0000E+00  0.0000E+00  0.0000E+00  0.0000E+00  0.0000E+00  0.0000E+00  0.0000E+00
    -46.717  0.0000E+00  0.0000E+00  0.0000E+00  0.0000E+00  0.0000E+00  0.0000E+00  0.0000E+00  0.0000E+00  0.0000E+00  0.0000E+00  0.0000E+00  0.0000E+00  0.0000E+00  0.0000E+00  0.0000E+00  0.0000E+00  0.0000E+00  0.0000E+00
    -46.474  0.0000E+00  0.0000E+00  0.0000E+00  0.0000E+00  0.0000E+00  0.0000E+00  0.0000E+00  0.0000E+00  0.0000E+00  0.0000E+00  0.0000E+00  0.0000E+00  0.0000E+00  0.0000E+00  0.0000E+00  0.0000E+00  0.0000E+00  0.0000E+00
    -46.231  0.0000E+00  0.0000E+00  0.0000E+00  0.0000E+00  0.0000E+00  0.0000E+00  0.0000E+00  0.0000E+00  0.0000E+00  0.0000E+00  0.0000E+00  0.0000E+00  0.0000E+00  0.0000E+00  0.0000E+00  0.0000E+00  0.0000E+00  0.0000E+00
    -45.989  0.0000E+00  0.0000E+00  0.0000E+00  0.0000E+00  0.0000E+00  0.0000E+00  0.0000E+00  0.0000E+00  0.0000E+00  0.0000E+00  0.0000E+00  0.0000E+00  0.0000E+00  0.0000E+00  0.0000E+00  0.0000E+00  0.0000E+00  0.0000E+00
    -45.746  0.0000E+00  0.0000E+00  0.0000E+00  0.0000E+00  0.0000E+00  0.0000E+00  0.0000E+00  0.0000E+00  0.0000E+00  0.0000E+00  0.0000E+00  0.0000E+00  0.0000E+00  0.0000E+00  0.0000E+00  0.0000E+00  0.0000E+00  0.0000E+00
    -45.503  0.0000E+00  0.0000E+00  0.0000E+00  0.0000E+00  0.0000E+00  0.0000E+00  0.0000E+00  0.0000E+00  0.0000E+00  0.0000E+00  0.0000E+00  0.0000E+00  0.0000E+00  0.0000E+00  0.0000E+00  0.0000E+00  0.0000E+00  0.0000E+00
    -45.260  0.0000E+00  0.0000E+00  0.0000E+00  0.0000E+00  0.0000E+00  0.0000E+00  0.0000E+00  0.0000E+00  0.0000E+00  0.0000E+00  0.0000E+00  0.0000E+00  0.0000E+00  0.0000E+00  0.0000E+00  0.0000E+00  0.0000E+00  0.0000E+00
    -45.017  0.0000E+00  0.0000E+00  0.0000E+00  0.0000E+00  0.0000E+00  0.0000E+00  0.0000E+00  0.0000E+00  0.0000E+00  0.0000E+00  0.0000E+00  0.0000E+00  0.0000E+00  0.0000E+00  0.0000E+00  0.0000E+00  0.0000E+00  0.0000E+00
    -44.774  0.0000E+00  0.0000E+00  0.0000E+00  0.0000E+00  0.0000E+00  0.0000E+00  0.0000E+00  0.0000E+00  0.0000E+00  0.0000E+00  0.0000E+00  0.0000E+00  0.0000E+00  0.0000E+00  0.0000E+00  0.0000E+00  0.0000E+00  0.0000E+00
    -44.532  0.0000E+00  0.0000E+00  0.0000E+00  0.0000E+00  0.0000E+00  0.0000E+00  0.0000E+00  0.0000E+00  0.0000E+00  0.0000E+00  0.0000E+00  0.0000E+00  0.0000E+00  0.0000E+00  0.0000E+00  0.0000E+00  0.0000E+00  0.0000E+00
    -44.289  0.0000E+00  0.0000E+00  0.0000E+00  0.0000E+00  0.0000E+00  0.0000E+00  0.0000E+00  0.0000E+00  0.0000E+00  0.0000E+00  0.0000E+00  0.0000E+00  0.0000E+00  0.0000E+00  0.0000E+00  0.0000E+00  0.0000E+00  0.0000E+00
    -44.046  0.0000E+00  0.0000E+00  0.0000E+00  0.0000E+00  0.0000E+00  0.0000E+00  0.0000E+00  0.0000E+00  0.0000E+00  0.0000E+00  0.0000E+00  0.0000E+00  0.0000E+00  0.0000E+00  0.0000E+00  0.0000E+00  0.0000E+00  0.0000E+00