  28  28   1   0
  0.9963688E+01  0.4632661E-09  0.5909603E-09  0.1019036E-08  0.5000000E-15
  1.000000000000000E-004
  CAR 
 unknown system                          
     20.38269645    -53.42773010  301      6.60190828      1.00000000
    -53.428  0.0000E+00  0.0000E+00  0.0000E+00  0.0000E+00
    -53.182  0.0000E+00  0.0000E+00  0.0000E+00  0.0000E+00
    -52.936  0.0000E+00  0.0000E+00  0.0000E+00  0.0000E+00
    -52.690  0.0000E+00  0.0000E+00  0.0000E+00  0.0000E+00
    -52.444  0.0000E+00  0.0000E+00  0.0000E+00  0.0000E+00
    -52.198  0.0000E+00  0.0000E+00  0.0000E+00  0.0000E+00
    -51.952  0.0000E+00  0.0000E+00  0.0000E+00  0.0000E+00
    -51.705  0.0000E+00  0.0000E+00  0.0000E+00  0.0000E+00
    -51.459  0.0000E+00  0.0000E+00  0.0000E+00  0.0000E+00
    -51.213  0.0000E+00  0.0000E+00  0.0000E+00  0.0000E+00
    -50.967  0.0000E+00  0.0000E+00  0.0000E+00  0.0000E+00
    -50.721  0.0000E+00  0.0000E+00  0.0000E+00  0.0000E+00
    -50.475  0.5063E-02  0.0000E+00  0.1246E-02  0.0000E+00
    -50.229  0.6608E+00  0.0000E+00  0.1638E+00  0.0000E+00
    -49.983  0.1322E+02  0.0000E+00  0.3416E+01  0.0000E+00
    -49.737  0.2352E+01  0.0000E+00  0.3995E+01  0.0000E+00
    -49.491  0.6483E-01  0.0000E+00  0.4016E+01  0.0000E+00
    -49.245  0.5724E+01  0.0000E+00  0.5424E+01  0.0000E+00
    -48.999  0.1034E+02  0.0000E+00  0.7968E+01  0.0000E+00
    -48.753  0.6633E+01  0.0000E+00  0.9652E+01  0.0000E+00
    -48.507  0.9375E+01  0.0000E+00  0.1196E+02  0.0000E+00
    -48.261  0.0000E+00  0.0000E+00  0.1200E+02  0.0000E+00
    -48.015  0.0000E+00  0.0000E+00  0.1200E+02  0.0000E+00
    -47.769  0.0000E+00  0.0000E+00  0.1200E+02  0.0000E+00
    -47.523  0.0000E+00  0.0000E+00  0.1200E+02  0.0000E+00
    -47.277  0.0000E+00  0.0000E+00  0.1200E+02  0.0000E+00
    -47.031  0.0000E+00  0.0000E+00  0.1200E+02  0.0000E+00
    -46.785  0.0000E+00  0.0000E+00  0.1200E+02  0.0000E+00
    -46.539  0.0000E+00  0.0000E+00  0.1200E+02  0.0000E+00
    -46.293  0.0000E+00  0.0000E+00  0.1200E+02  0.0000E+00
    -46.047  0.0000E+00  0.8725E-03  0.1200E+02  0.2147E-03
    -45.801  0.0000E+00  0.1185E+00  0.1200E+02  0.2936E-01
    -45.555  0.0000E+00  0.8128E+01  0.1200E+02  0.2029E+01
    -45.309  0.0000E+00  0.1479E+02  0.1200E+02  0.5669E+01
    -45.063  0.0000E+00  0.1999E+02  0.1200E+02  0.1062E+02
    -44.817  0.0000E+00  0.5398E+01  0.1200E+02  0.1199E+02
    -44.570  0.0000E+00  0.0000E+00  0.1200E+02  0.1200E+02
    -44.324  0.0000E+00  0.0000E+00  0.1200E+02  0.1200E+02
    -44.078  0.0000E+00  0.0000E+00  0.1200E+02  0.1200E+02
    -43.832  0.0000E+00  0.0000E+00  0.1200E+02  0.1200E+02
    -43.586  0.0000E+00  0.0000E+00  0.1200E+02  0.1200E+02
    -43.340  0.0000E+00  0.0000E+00  0.1200E+02  0.1200E+02
    -43.094  0.0000E+00  0.0000E+00  0.1200E+02  0.1200E+02
    -42.848  0.0000E+00  0.0000E+00  0.1200E+02  0.1200E+02
    -42.602  0.0000E+00  0.0000E+00  0.1200E+02  0.1200E+02
    -42.356  0.0000E+00  0.0000E+00  0.1200E+02  0.1200E+02
    -42.110  0.0000E+00  0.0000E+00  0.1200E+02  0.1200E+02
    -41.864  0.0000E+00  0.0000E+00  0.1200E+02  0.1200E+02
    -41.618  0.0000E+00  0.0000E+00  0.1200E+02  0.1200E+02
    -41.372  0.0000E+00  0.0000E+00  0.1200E+02  0.1200E+02
    -41.126  0.0000E+00  0.0000E+00  0.1200E+02  0.1200E+02
    -40.880  0.0000E+00  0.0000E+00  0.1200E+02  0.1200E+02
    -40.634  0.0000E+00  0.0000E+00  0.1200E+02  0.1200E+02
    -40.388  0.0000E+00  0.0000E+00  0.1200E+02  0.1200E+02
    -40.142  0.7390E-04  0.7327E-04  0.1200E+02  0.1200E+02
    -39.896  0.1005E-01  0.9966E-02  0.1200E+02  0.1200E+02
    -39.650  0.1269E+01  0.1259E+01  0.1231E+02  0.1231E+02
    -39.404  0.1369E+02  0.1369E+02  0.1568E+02  0.1568E+02
    -39.158  0.1276E+01  0.1287E+01  0.1600E+02  0.1600E+02
    -38.912  0.0000E+00  0.0000E+00  0.1600E+02  0.1600E+02
    -38.666  0.0000E+00  0.0000E+00  0.1600E+02  0.1600E+02
    -38.420  0.0000E+00  0.0000E+00  0.1600E+02  0.1600E+02
    -38.174  0.0000E+00  0.0000E+00  0.1600E+02  0.1600E+02
    -37.928  0.0000E+00  0.0000E+00  0.1600E+02  0.1600E+02
    -37.682  0.0000E+00  0.0000E+00  0.1600E+02  0.1600E+02
    -37.435  0.0000E+00  0.0000E+00  0.1600E+02  0.1600E+02
    -37.189  0.0000E+00  0.0000E+00  0.1600E+02  0.1600E+02
    -36.943  0.0000E+00  0.0000E+00  0.1600E+02  0.1600E+02
    -36.697  0.0000E+00  0.0000E+00  0.1600E+02  0.1600E+02
    -36.451  0.0000E+00  0.0000E+00  0.1600E+02  0.1600E+02
    -36.205  0.0000E+00  0.0000E+00  0.1600E+02  0.1600E+02
    -35.959  0.0000E+00  0.0000E+00  0.1600E+02  0.1600E+02
    -35.713  0.0000E+00  0.0000E+00  0.1600E+02  0.1600E+02
    -35.467  0.0000E+00  0.0000E+00  0.1600E+02  0.1600E+02
    -35.221  0.0000E+00  0.0000E+00  0.1600E+02  0.1600E+02
    -34.975  0.0000E+00  0.0000E+00  0.1600E+02  0.1600E+02
    -34.729  0.0000E+00  0.0000E+00  0.1600E+02  0.1600E+02
    -34.483  0.0000E+00  0.0000E+00  0.1600E+02  0.1600E+02
    -34.237  0.0000E+00  0.0000E+00  0.1600E+02  0.1600E+02
    -33.991  0.0000E+00  0.0000E+00  0.1600E+02  0.1600E+02
    -33.745  0.0000E+00  0.0000E+00  0.1600E+02  0.1600E+02
    -33.499  0.0000E+00  0.0000E+00  0.1600E+02  0.1600E+02
    -33.253  0.0000E+00  0.0000E+00  0.1600E+02  0.1600E+02
    -33.007  0.0000E+00  0.0000E+00  0.1600E+02  0.1600E+02
    -32.761  0.0000E+00  0.0000E+00  0.1600E+02  0.1600E+02
    -32.515  0.0000E+00  0.0000E+00  0.1600E+02  0.1600E+02
    -32.269  0.0000E+00  0.0000E+00  0.1600E+02  0.1600E+02
    -32.023  0.0000E+00  0.0000E+00  0.1600E+02  0.1600E+02
    -31.777  0.0000E+00  0.0000E+00  0.1600E+02  0.1600E+02
    -31.531  0.0000E+00  0.0000E+00  0.1600E+02  0.1600E+02
    -31.285  0.0000E+00  0.0000E+00  0.1600E+02  0.1600E+02
    -31.039  0.0000E+00  0.0000E+00  0.1600E+02  0.1600E+02
    -30.793  0.0000E+00  0.0000E+00  0.1600E+02  0.1600E+02
    -30.546  0.0000E+00  0.0000E+00  0.1600E+02  0.1600E+02
    -30.300  0.0000E+00  0.0000E+00  0.1600E+02  0.1600E+02
    -30.054  0.0000E+00  0.0000E+00  0.1600E+02  0.1600E+02
    -29.808  0.0000E+00  0.0000E+00  0.1600E+02  0.1600E+02
    -29.562  0.0000E+00  0.0000E+00  0.1600E+02  0.1600E+02
    -29.316  0.0000E+00  0.0000E+00  0.1600E+02  0.1600E+02
    -29.070  0.0000E+00  0.0000E+00  0.1600E+02  0.1600E+02
    -28.824  0.0000E+00  0.0000E+00  0.1600E+02  0.1600E+02
    -28.578  0.0000E+00  0.0000E+00  0.1600E+02  0.1600E+02
    -28.332  0.0000E+00  0.0000E+00  0.1600E+02  0.1600E+02
    -28.086  0.0000E+00  0.0000E+00  0.1600E+02  0.1600E+02
    -27.840  0.0000E+00  0.0000E+00  0.1600E+02  0.1600E+02
    -27.594  0.0000E+00  0.0000E+00  0.1600E+02  0.1600E+02
    -27.348  0.0000E+00  0.0000E+00  0.1600E+02  0.1600E+02
    -27.102  0.0000E+00  0.0000E+00  0.1600E+02  0.1600E+02
    -26.856  0.0000E+00  0.0000E+00  0.1600E+02  0.1600E+02
    -26.610  0.0000E+00  0.0000E+00  0.1600E+02  0.1600E+02
    -26.364  0.0000E+00  0.0000E+00  0.1600E+02  0.1600E+02
    -26.118  0.0000E+00  0.0000E+00  0.1600E+02  0.1600E+02
    -25.872  0.0000E+00  0.0000E+00  0.1600E+02  0.1600E+02
    -25.626  0.0000E+00  0.0000E+00  0.1600E+02  0.1600E+02
    -25.380  0.0000E+00  0.0000E+00  0.1600E+02  0.1600E+02
    -25.134  0.0000E+00  0.0000E+00  0.1600E+02  0.1600E+02
    -24.888  0.0000E+00  0.0000E+00  0.1600E+02  0.1600E+02
    -24.642  0.0000E+00  0.0000E+00  0.1600E+02  0.1600E+02
    -24.396  0.0000E+00  0.0000E+00  0.1600E+02  0.1600E+02
    -24.150  0.0000E+00  0.0000E+00  0.1600E+02  0.1600E+02
    -23.904  0.0000E+00  0.0000E+00  0.1600E+02  0.1600E+02
    -23.658  0.0000E+00  0.0000E+00  0.1600E+02  0.1600E+02
    -23.411  0.0000E+00  0.0000E+00  0.1600E+02  0.1600E+02
    -23.165  0.0000E+00  0.0000E+00  0.1600E+02  0.1600E+02
    -22.919  0.0000E+00  0.0000E+00  0.1600E+02  0.1600E+02
    -22.673  0.0000E+00  0.0000E+00  0.1600E+02  0.1600E+02
    -22.427  0.0000E+00  0.0000E+00  0.1600E+02  0.1600E+02
    -22.181  0.0000E+00  0.0000E+00  0.1600E+02  0.1600E+02
    -21.935  0.0000E+00  0.0000E+00  0.1600E+02  0.1600E+02
    -21.689  0.0000E+00  0.0000E+00  0.1600E+02  0.1600E+02
    -21.443  0.0000E+00  0.0000E+00  0.1600E+02  0.1600E+02
    -21.197  0.0000E+00  0.0000E+00  0.1600E+02  0.1600E+02
    -20.951  0.0000E+00  0.0000E+00  0.1600E+02  0.1600E+02
    -20.705  0.0000E+00  0.0000E+00  0.1600E+02  0.1600E+02
    -20.459  0.0000E+00  0.0000E+00  0.1600E+02  0.1600E+02
    -20.213  0.0000E+00  0.0000E+00  0.1600E+02  0.1600E+02
    -19.967  0.0000E+00  0.0000E+00  0.1600E+02  0.1600E+02
    -19.721  0.0000E+00  0.0000E+00  0.1600E+02  0.1600E+02
    -19.475  0.0000E+00  0.0000E+00  0.1600E+02  0.1600E+02
    -19.229  0.0000E+00  0.0000E+00  0.1600E+02  0.1600E+02
    -18.983  0.0000E+00  0.0000E+00  0.1600E+02  0.1600E+02
    -18.737  0.0000E+00  0.0000E+00  0.1600E+02  0.1600E+02
    -18.491  0.0000E+00  0.0000E+00  0.1600E+02  0.1600E+02
    -18.245  0.8968E-05  0.5561E-07  0.1600E+02  0.1600E+02
    -17.999  0.1764E-02  0.2132E-03  0.1600E+02  0.1600E+02
    -17.753  0.2154E+00  0.2930E-01  0.1605E+02  0.1601E+02
    -17.507  0.4828E+01  0.1792E+01  0.1724E+02  0.1645E+02
    -17.261  0.9519E+01  0.9212E+01  0.1959E+02  0.1871E+02
    -17.015  0.1561E+01  0.5005E+01  0.2000E+02  0.1996E+02
    -16.769  0.0000E+00  0.5440E-01  0.2000E+02  0.2000E+02
    -16.523  0.0000E+00  0.0000E+00  0.2000E+02  0.2000E+02
    -16.276  0.0000E+00  0.0000E+00  0.2000E+02  0.2000E+02
    -16.030  0.0000E+00  0.0000E+00  0.2000E+02  0.2000E+02
    -15.784  0.0000E+00  0.0000E+00  0.2000E+02  0.2000E+02
    -15.538  0.9482E-04  0.5215E-05  0.2000E+02  0.2000E+02
    -15.292  0.1437E-01  0.1801E-02  0.2000E+02  0.2000E+02
    -15.046  0.1598E+01  0.2393E+00  0.2040E+02  0.2006E+02
    -14.800  0.1753E+02  0.8349E+01  0.2471E+02  0.2211E+02
    -14.554  0.2375E+02  0.2375E+02  0.3058E+02  0.2796E+02
    -14.308  0.5373E+01  0.1558E+02  0.3198E+02  0.3183E+02
    -14.062  0.0000E+00  0.4145E+00  0.3200E+02  0.3200E+02
    -13.816  0.0000E+00  0.0000E+00  0.3200E+02  0.3200E+02
    -13.570  0.0000E+00  0.0000E+00  0.3200E+02  0.3200E+02
    -13.324  0.0000E+00  0.0000E+00  0.3200E+02  0.3200E+02
    -13.078  0.0000E+00  0.0000E+00  0.3200E+02  0.3200E+02
    -12.832  0.0000E+00  0.0000E+00  0.3200E+02  0.3200E+02
    -12.586  0.0000E+00  0.0000E+00  0.3200E+02  0.3200E+02
    -12.340  0.0000E+00  0.0000E+00  0.3200E+02  0.3200E+02
    -12.094  0.0000E+00  0.0000E+00  0.3200E+02  0.3200E+02
    -11.848  0.0000E+00  0.0000E+00  0.3200E+02  0.3200E+02
    -11.602  0.0000E+00  0.0000E+00  0.3200E+02  0.3200E+02
    -11.356  0.0000E+00  0.0000E+00  0.3200E+02  0.3200E+02
    -11.110  0.0000E+00  0.0000E+00  0.3200E+02  0.3200E+02
    -10.864  0.0000E+00  0.0000E+00  0.3200E+02  0.3200E+02
    -10.618  0.0000E+00  0.0000E+00  0.3200E+02  0.3200E+02
    -10.372  0.0000E+00  0.0000E+00  0.3200E+02  0.3200E+02
    -10.126  0.0000E+00  0.0000E+00  0.3200E+02  0.3200E+02
     -9.880  0.0000E+00  0.0000E+00  0.3200E+02  0.3200E+02
     -9.634  0.0000E+00  0.0000E+00  0.3200E+02  0.3200E+02
     -9.388  0.0000E+00  0.0000E+00  0.3200E+02  0.3200E+02
     -9.141  0.0000E+00  0.0000E+00  0.3200E+02  0.3200E+02
     -8.895  0.0000E+00  0.0000E+00  0.3200E+02  0.3200E+02
     -8.649  0.0000E+00  0.0000E+00  0.3200E+02  0.3200E+02
     -8.403  0.0000E+00  0.0000E+00  0.3200E+02  0.3200E+02
     -8.157  0.0000E+00  0.0000E+00  0.3200E+02  0.3200E+02
     -7.911  0.0000E+00  0.0000E+00  0.3200E+02  0.3200E+02
     -7.665  0.0000E+00  0.0000E+00  0.3200E+02  0.3200E+02
     -7.419  0.0000E+00  0.0000E+00  0.3200E+02  0.3200E+02
     -7.173  0.0000E+00  0.0000E+00  0.3200E+02  0.3200E+02
     -6.927  0.0000E+00  0.0000E+00  0.3200E+02  0.3200E+02
     -6.681  0.0000E+00  0.0000E+00  0.3200E+02  0.3200E+02
     -6.435  0.0000E+00  0.0000E+00  0.3200E+02  0.3200E+02
     -6.189  0.0000E+00  0.0000E+00  0.3200E+02  0.3200E+02
     -5.943  0.0000E+00  0.0000E+00  0.3200E+02  0.3200E+02
     -5.697  0.0000E+00  0.0000E+00  0.3200E+02  0.3200E+02
     -5.451  0.0000E+00  0.0000E+00  0.3200E+02  0.3200E+02
     -5.205  0.3252E-04  0.3277E-06  0.3200E+02  0.3200E+02
     -4.959  0.4638E-02  0.1474E-03  0.3200E+02  0.3200E+02
     -4.713  0.3773E+00  0.1982E-01  0.3209E+02  0.3200E+02
     -4.467  0.2746E+01  0.8492E+00  0.3277E+02  0.3221E+02
     -4.221  0.6955E+01  0.3682E+01  0.3449E+02  0.3312E+02
     -3.975  0.5845E+01  0.8429E+01  0.3593E+02  0.3520E+02
     -3.729  0.1686E+00  0.3159E+01  0.3600E+02  0.3599E+02
     -3.483  0.9159E-02  0.1388E-03  0.3600E+02  0.3600E+02
     -3.237  0.3579E+00  0.1784E-01  0.3609E+02  0.3600E+02
     -2.991  0.1656E+01  0.4857E+00  0.3650E+02  0.3612E+02
     -2.745  0.4178E+01  0.1942E+01  0.3753E+02  0.3660E+02
     -2.499  0.6807E+01  0.4488E+01  0.3921E+02  0.3771E+02
     -2.253  0.9382E+01  0.8117E+01  0.4153E+02  0.3972E+02
     -2.006  0.8535E+01  0.8953E+01  0.4365E+02  0.4193E+02
     -1.760  0.1079E+02  0.8938E+01  0.4633E+02  0.4416E+02
     -1.514  0.5583E+01  0.1158E+02  0.4772E+02  0.4703E+02
     -1.268  0.1078E+01  0.3389E+01  0.4801E+02  0.4789E+02
     -1.022  0.1684E+01  0.4276E+00  0.4842E+02  0.4800E+02
     -0.776  0.5304E+01  0.9846E+00  0.4973E+02  0.4825E+02
     -0.530  0.6505E+01  0.4450E+01  0.5134E+02  0.4934E+02
     -0.284  0.1025E+02  0.6538E+01  0.5388E+02  0.5096E+02
     -0.038  0.1074E+02  0.8975E+01  0.5654E+02  0.5318E+02
      0.208  0.8400E+01  0.1032E+02  0.5863E+02  0.5574E+02
      0.454  0.7188E+01  0.9612E+01  0.6042E+02  0.5812E+02
      0.700  0.1024E+02  0.8037E+01  0.6296E+02  0.6012E+02
      0.946  0.1099E+02  0.1011E+02  0.6569E+02  0.6263E+02
      1.192  0.8357E+01  0.7256E+01  0.6777E+02  0.6444E+02
      1.438  0.5507E+01  0.1068E+02  0.6915E+02  0.6708E+02
      1.684  0.1130E+02  0.6195E+01  0.7194E+02  0.6863E+02
      1.930  0.1292E+02  0.6618E+01  0.7513E+02  0.7028E+02
      2.176  0.9162E+01  0.1349E+02  0.7742E+02  0.7361E+02
      2.422  0.6247E+01  0.1199E+02  0.7898E+02  0.7658E+02
      2.668  0.3173E+01  0.7398E+01  0.7978E+02  0.7844E+02
      2.914  0.1123E+01  0.4969E+01  0.8006E+02  0.7968E+02
      3.160  0.7109E+01  0.1242E+01  0.8181E+02  0.7999E+02
      3.406  0.9828E+01  0.3572E-02  0.8423E+02  0.8000E+02
      3.652  0.8426E+01  0.0000E+00  0.8633E+02  0.8000E+02
      3.898  0.6512E+01  0.0000E+00  0.8795E+02  0.8000E+02
      4.144  0.9050E+01  0.0000E+00  0.9020E+02  0.8000E+02
      4.390  0.1407E+02  0.0000E+00  0.9367E+02  0.8000E+02
      4.636  0.7179E+01  0.0000E+00  0.9547E+02  0.8000E+02
      4.883  0.4995E+01  0.0000E+00  0.9672E+02  0.8000E+02
      5.129  0.9366E+01  0.0000E+00  0.9904E+02  0.8000E+02
      5.375  0.3795E+01  0.0000E+00  0.9999E+02  0.8000E+02
      5.621  0.0000E+00  0.0000E+00  0.1000E+03  0.8000E+02
      5.867  0.0000E+00  0.3491E-03  0.1000E+03  0.8000E+02
      6.113  0.0000E+00  0.4716E-01  0.1000E+03  0.8001E+02
      6.359  0.0000E+00  0.3718E+01  0.1000E+03  0.8093E+02
      6.605  0.0000E+00  0.1256E+02  0.1000E+03  0.8402E+02
      6.851  0.0000E+00  0.1157E+02  0.1000E+03  0.8693E+02
      7.097  0.0000E+00  0.1596E+02  0.1000E+03  0.9086E+02
      7.343  0.0000E+00  0.4481E+01  0.1000E+03  0.9198E+02
      7.589  0.0000E+00  0.1295E+01  0.1000E+03  0.9232E+02
      7.835  0.0000E+00  0.8948E+01  0.1000E+03  0.9452E+02
      8.081  0.1181E-06  0.5864E+01  0.1000E+03  0.9599E+02
      8.327  0.2536E-04  0.7965E+01  0.1000E+03  0.9796E+02
      8.573  0.3238E-02  0.7917E+01  0.1000E+03  0.9992E+02
      8.819  0.7563E-01  0.1453E+00  0.1000E+03  0.1000E+03
      9.065  0.2079E+00  0.1356E-01  0.1001E+03  0.1000E+03
      9.311  0.3285E+00  0.1344E+00  0.1002E+03  0.1000E+03
      9.557  0.4109E+00  0.2609E+00  0.1003E+03  0.1001E+03
      9.803  0.5924E+00  0.3874E+00  0.1004E+03  0.1002E+03
     10.049  0.6896E+00  0.5142E+00  0.1006E+03  0.1003E+03
     10.295  0.9567E+00  0.6525E+00  0.1008E+03  0.1005E+03
     10.541  0.1328E+01  0.9053E+00  0.1011E+03  0.1007E+03
     10.787  0.1561E+01  0.1204E+01  0.1015E+03  0.1010E+03
     11.033  0.1790E+01  0.1679E+01  0.1020E+03  0.1014E+03
     11.279  0.3157E+01  0.1726E+01  0.1027E+03  0.1018E+03
     11.525  0.4197E+01  0.2866E+01  0.1038E+03  0.1026E+03
     11.771  0.3026E+01  0.4093E+01  0.1045E+03  0.1036E+03
     12.018  0.4430E+01  0.3180E+01  0.1056E+03  0.1044E+03
     12.264  0.6236E+01  0.4633E+01  0.1072E+03  0.1055E+03
     12.510  0.4936E+01  0.6258E+01  0.1084E+03  0.1071E+03
     12.756  0.4635E+01  0.4812E+01  0.1096E+03  0.1083E+03
     13.002  0.4893E+01  0.3643E+01  0.1108E+03  0.1092E+03
     13.248  0.5373E+01  0.4398E+01  0.1121E+03  0.1103E+03
     13.494  0.6736E+01  0.5982E+01  0.1138E+03  0.1117E+03
     13.740  0.5645E+01  0.6383E+01  0.1152E+03  0.1133E+03
     13.986  0.4746E+01  0.6501E+01  0.1164E+03  0.1149E+03
     14.232  0.4362E+01  0.5642E+01  0.1174E+03  0.1163E+03
     14.478  0.3244E+01  0.4282E+01  0.1183E+03  0.1174E+03
     14.724  0.4635E+01  0.2927E+01  0.1194E+03  0.1181E+03
     14.970  0.6116E+01  0.4294E+01  0.1209E+03  0.1192E+03
     15.216  0.5099E+01  0.5800E+01  0.1222E+03  0.1206E+03
     15.462  0.5217E+01  0.5255E+01  0.1235E+03  0.1219E+03
     15.708  0.3308E+01  0.5577E+01  0.1243E+03  0.1233E+03
     15.954  0.4806E+01  0.4038E+01  0.1255E+03  0.1243E+03
     16.200  0.5174E+01  0.4136E+01  0.1268E+03  0.1254E+03
     16.446  0.3729E+01  0.4708E+01  0.1277E+03  0.1265E+03
     16.692  0.1059E+01  0.4098E+01  0.1280E+03  0.1275E+03
     16.938  0.4947E-01  0.1646E+01  0.1280E+03  0.1280E+03
     17.184  0.0000E+00  0.1663E+00  0.1280E+03  0.1280E+03
     17.430  0.0000E+00  0.0000E+00  0.1280E+03  0.1280E+03
     17.676  0.0000E+00  0.0000E+00  0.1280E+03  0.1280E+03
     17.922  0.0000E+00  0.0000E+00  0.1280E+03  0.1280E+03
     18.168  0.0000E+00  0.0000E+00  0.1280E+03  0.1280E+03
     18.414  0.0000E+00  0.0000E+00  0.1280E+03  0.1280E+03
     18.660  0.0000E+00  0.0000E+00  0.1280E+03  0.1280E+03
     18.906  0.0000E+00  0.0000E+00  0.1280E+03  0.1280E+03
     19.153  0.0000E+00  0.0000E+00  0.1280E+03  0.1280E+03
     19.399  0.0000E+00  0.0000E+00  0.1280E+03  0.1280E+03
     19.645  0.0000E+00  0.0000E+00  0.1280E+03  0.1280E+03
     19.891  0.0000E+00  0.0000E+00  0.1280E+03  0.1280E+03
     20.137  0.0000E+00  0.0000E+00  0.1280E+03  0.1280E+03
     20.383  0.0000E+00  0.0000E+00  0.1280E+03  0.1280E+03
     20.38269645    -53.42773010  301      6.60190828      1.00000000
    -53.428  0.0000E+00  0.0000E+00  0.0000E+00  0.0000E+00  0.0000E+00  0.0000E+00  0.0000E+00  0.0000E+00  0.0000E+00  0.0000E+00  0.0000E+00  0.0000E+00  0.0000E+00  0.0000E+00  0.0000E+00  0.0000E+00  0.0000E+00  0.0000E+00
    -53.182  0.0000E+00  0.0000E+00  0.0000E+00  0.0000E+00  0.0000E+00  0.0000E+00  0.0000E+00  0.0000E+00  0.0000E+00  0.0000E+00  0.0000E+00  0.0000E+00  0.0000E+00  0.0000E+00  0.0000E+00  0.0000E+00  0.0000E+00  0.0000E+00
    -52.936  0.0000E+00  0.0000E+00  0.0000E+00  0.0000E+00  0.0000E+00  0.0000E+00  0.0000E+00  0.0000E+00  0.0000E+00  0.0000E+00  0.0000E+00  0.0000E+00  0.0000E+00  0.0000E+00  0.0000E+00  0.0000E+00  0.0000E+00  0.0000E+00
    -52.690  0.0000E+00  0.0000E+00  0.0000E+00  0.0000E+00  0.0000E+00  0.0000E+00  0.0000E+00  0.0000E+00  0.0000E+00  0.0000E+00  0.0000E+00  0.0000E+00  0.0000E+00  0.0000E+00  0.0000E+00  0.0000E+00  0.0000E+00  0.0000E+00
    -52.444  0.0000E+00  0.0000E+00  0.0000E+00  0.0000E+00  0.0000E+00  0.0000E+00  0.0000E+00  0.0000E+00  0.0000E+00  0.0000E+00  0.0000E+00  0.0000E+00  0.0000E+00  0.0000E+00  0.0000E+00  0.0000E+00  0.0000E+00  0.0000E+00
    -52.198  0.0000E+00  0.0000E+00  0.0000E+00  0.0000E+00  0.0000E+00  0.0000E+00  0.0000E+00  0.0000E+00  0.0000E+00  0.0000E+00  0.0000E+00  0.0000E+00  0.0000E+00  0.0000E+00  0.0000E+00  0.0000E+00  0.0000E+00  0.0000E+00
    -51.952  0.0000E+00  0.0000E+00  0.0000E+00  0.0000E+00  0.0000E+00  0.0000E+00  0.0000E+00  0.0000E+00  0.0000E+00  0.0000E+00  0.0000E+00  0.0000E+00  0.0000E+00  0.0000E+00  0.0000E+00  0.0000E+00  0.0000E+00  0.0000E+00
    -51.705  0.0000E+00  0.0000E+00  0.0000E+00  0.0000E+00  0.0000E+00  0.0000E+00  0.0000E+00  0.0000E+00  0.0000E+00  0.0000E+00  0.0000E+00  0.0000E+00  0.0000E+00  0.0000E+00  0.0000E+00  0.0000E+00  0.0000E+00  0.0000E+00
    -51.459  0.0000E+00  0.0000E+00  0.0000E+00  0.0000E+00  0.0000E+00  0.0000E+00  0.0000E+00  0.0000E+00  0.0000E+00  0.0000E+00  0.0000E+00  0.0000E+00  0.0000E+00  0.0000E+00  0.0000E+00  0.0000E+00  0.0000E+00  0.0000E+00
    -51.213  0.0000E+00  0.0000E+00  0.0000E+00  0.0000E+00  0.0000E+00  0.0000E+00  0.0000E+00  0.0000E+00  0.0000E+00  0.0000E+00  0.0000E+00  0.0000E+00  0.0000E+00  0.0000E+00  0.0000E+00  0.0000E+00  0.0000E+00  0.0000E+00
    -50.967  0.0000E+00  0.0000E+00  0.0000E+00  0.0000E+00  0.0000E+00  0.0000E+00  0.0000E+00  0.0000E+00  0.0000E+00  0.0000E+00  0.0000E+00  0.0000E+00  0.0000E+00  0.0000E+00  0.0000E+00  0.0000E+00  0.0000E+00  0.0000E+00
    -50.721  0.0000E+00  0.0000E+00  0.0000E+00  0.0000E+00  0.0000E+00  0.0000E+00  0.0000E+00  0.0000E+00  0.0000E+00  0.0000E+00  0.0000E+00  0.0000E+00  0.0000E+00  0.0000E+00  0.0000E+00  0.0000E+00  0.0000E+00  0.0000E+00
    -50.475  0.1120E-10  0.0000E+00  0.1766E-11  0.0000E+00  0.8542E-12  0.0000E+00  0.7844E-12  0.0000E+00  0.0000E+00  0.0000E+00  0.0000E+00  0.0000E+00  0.0000E+00  0.0000E+00  0.0000E+00  0.0000E+00  0.0000E+00  0.0000E+00
    -50.229  0.1461E-08  0.0000E+00  0.2305E-09  0.0000E+00  0.1115E-09  0.0000E+00  0.1024E-09  0.0000E+00  0.0000E+00  0.0000E+00  0.0000E+00  0.0000E+00  0.0000E+00  0.0000E+00  0.0000E+00  0.0000E+00  0.0000E+00  0.0000E+00
    -49.983  0.2908E-07  0.0000E+00  0.4614E-08  0.0000E+00  0.2241E-08  0.0000E+00  0.2046E-08  0.0000E+00  0.0000E+00  0.0000E+00  0.0000E+00  0.0000E+00  0.0000E+00  0.0000E+00  0.0000E+00  0.0000E+00  0.0000E+00  0.0000E+00
    -49.737  0.5150E-08  0.0000E+00  0.8215E-09  0.0000E+00  0.4007E-09  0.0000E+00  0.3635E-09  0.0000E+00  0.0000E+00  0.0000E+00  0.0000E+00  0.0000E+00  0.0000E+00  0.0000E+00  0.0000E+00  0.0000E+00  0.0000E+00  0.0000E+00
    -49.491  0.6775E-09  0.0000E+00  0.1109E-10  0.0000E+00  0.2014E-10  0.0000E+00  0.1264E-10  0.0000E+00  0.0000E+00  0.0000E+00  0.0000E+00  0.0000E+00  0.0000E+00  0.0000E+00  0.0000E+00  0.0000E+00  0.0000E+00  0.0000E+00
    -49.245  0.5980E-07  0.0000E+00  0.9794E-09  0.0000E+00  0.1778E-08  0.0000E+00  0.1116E-08  0.0000E+00  0.0000E+00  0.0000E+00  0.0000E+00  0.0000E+00  0.0000E+00  0.0000E+00  0.0000E+00  0.0000E+00  0.0000E+00  0.0000E+00
    -48.999  0.1072E-06  0.0000E+00  0.1773E-08  0.0000E+00  0.3212E-08  0.0000E+00  0.2030E-08  0.0000E+00  0.0000E+00  0.0000E+00  0.0000E+00  0.0000E+00  0.0000E+00  0.0000E+00  0.0000E+00  0.0000E+00  0.0000E+00  0.0000E+00
    -48.753  0.9208E-08  0.0000E+00  0.1468E-08  0.0000E+00  0.1963E-08  0.0000E+00  0.2555E-08  0.0000E+00  0.0000E+00  0.0000E+00  0.0000E+00  0.0000E+00  0.0000E+00  0.0000E+00  0.0000E+00  0.0000E+00  0.0000E+00  0.0000E+00
    -48.507  0.1301E-07  0.0000E+00  0.2073E-08  0.0000E+00  0.2777E-08  0.0000E+00  0.3609E-08  0.0000E+00  0.0000E+00  0.0000E+00  0.0000E+00  0.0000E+00  0.0000E+00  0.0000E+00  0.0000E+00  0.0000E+00  0.0000E+00  0.0000E+00
    -48.261  0.0000E+00  0.0000E+00  0.0000E+00  0.0000E+00  0.0000E+00  0.0000E+00  0.0000E+00  0.0000E+00  0.0000E+00  0.0000E+00  0.0000E+00  0.0000E+00  0.0000E+00  0.0000E+00  0.0000E+00  0.0000E+00  0.0000E+00  0.0000E+00
    -48.015  0.0000E+00  0.0000E+00  0.0000E+00  0.0000E+00  0.0000E+00  0.0000E+00  0.0000E+00  0.0000E+00  0.0000E+00  0.0000E+00  0.0000E+00  0.0000E+00  0.0000E+00  0.0000E+00  0.0000E+00  0.0000E+00  0.0000E+00  0.0000E+00
    -47.769  0.0000E+00  0.0000E+00  0.0000E+00  0.0000E+00  0.0000E+00  0.0000E+00  0.0000E+00  0.0000E+00  0.0000E+00  0.0000E+00  0.0000E+00  0.0000E+00  0.0000E+00  0.0000E+00  0.0000E+00  0.0000E+00  0.0000E+00  0.0000E+00
    -47.523  0.0000E+00  0.0000E+00  0.0000E+00  0.0000E+00  0.0000E+00  0.0000E+00  0.0000E+00  0.0000E+00  0.0000E+00  0.0000E+00  0.0000E+00  0.0000E+00  0.0000E+00  0.0000E+00  0.0000E+00  0.0000E+00  0.0000E+00  0.0000E+00
    -47.277  0.0000E+00  0.0000E+00  0.0000E+00  0.0000E+00  0.0000E+00  0.0000E+00  0.0000E+00  0.0000E+00  0.0000E+00  0.0000E+00  0.0000E+00  0.0000E+00  0.0000E+00  0.0000E+00  0.0000E+00  0.0000E+00  0.0000E+00  0.0000E+00
    -47.031  0.0000E+00  0.0000E+00  0.0000E+00  0.0000E+00  0.0000E+00  0.0000E+00  0.0000E+00  0.0000E+00  0.0000E+00  0.0000E+00  0.0000E+00  0.0000E+00  0.0000E+00  0.0000E+00  0.0000E+00  0.0000E+00  0.0000E+00  0.0000E+00
    -46.785  0.0000E+00  0.0000E+00  0.0000E+00  0.0000E+00  0.0000E+00  0.0000E+00  0.0000E+00  0.0000E+00  0.0000E+00  0.0000E+00  0.0000E+00  0.0000E+00  0.0000E+00  0.0000E+00  0.0000E+00  0.0000E+00  0.0000E+00  0.0000E+00
    -46.539  0.0000E+00  0.0000E+00  0.0000E+00  0.0000E+00  0.0000E+00  0.0000E+00  0.0000E+00  0.0000E+00  0.0000E+00  0.0000E+00  0.0000E+00  0.0000E+00  0.0000E+00  0.0000E+00  0.0000E+00  0.0000E+00  0.0000E+00  0.0000E+00
    -46.293  0.0000E+00  0.0000E+00  0.0000E+00  0.0000E+00  0.0000E+00  0.0000E+00  0.0000E+00  0.0000E+00  0.0000E+00  0.0000E+00  0.0000E+00  0.0000E+00  0.0000E+00  0.0000E+00  0.0000E+00  0.0000E+00  0.0000E+00  0.0000E+00
    -46.047  0.0000E+00  0.1006E-10  0.0000E+00  0.3501E-12  0.0000E+00  0.2247E-12  0.0000E+00  0.2240E-12  0.0000E+00  0.0000E+00  0.0000E+00  0.0000E+00  0.0000E+00  0.0000E+00  0.0000E+00  0.0000E+00  0.0000E+00  0.0000E+00
    -45.801  0.0000E+00  0.1387E-08  0.0000E+00  0.4743E-10  0.0000E+00  0.3057E-10  0.0000E+00  0.3046E-10  0.0000E+00  0.0000E+00  0.0000E+00  0.0000E+00  0.0000E+00  0.0000E+00  0.0000E+00  0.0000E+00  0.0000E+00  0.0000E+00
    -45.555  0.0000E+00  0.9608E-07  0.0000E+00  0.3247E-08  0.0000E+00  0.2095E-08  0.0000E+00  0.2091E-08  0.0000E+00  0.0000E+00  0.0000E+00  0.0000E+00  0.0000E+00  0.0000E+00  0.0000E+00  0.0000E+00  0.0000E+00  0.0000E+00
    -45.309  0.0000E+00  0.3925E-06  0.0000E+00  0.4644E-08  0.0000E+00  0.4467E-08  0.0000E+00  0.4405E-08  0.0000E+00  0.0000E+00  0.0000E+00  0.0000E+00  0.0000E+00  0.0000E+00  0.0000E+00  0.0000E+00  0.0000E+00  0.0000E+00
    -45.063  0.0000E+00  0.5228E-06  0.0000E+00  0.4661E-08  0.0000E+00  0.7144E-08  0.0000E+00  0.9297E-08  0.0000E+00  0.0000E+00  0.0000E+00  0.0000E+00  0.0000E+00  0.0000E+00  0.0000E+00  0.0000E+00  0.0000E+00  0.0000E+00
    -44.817  0.0000E+00  0.4845E-07  0.0000E+00  0.1369E-08  0.0000E+00  0.1933E-08  0.0000E+00  0.3119E-08  0.0000E+00  0.0000E+00  0.0000E+00  0.0000E+00  0.0000E+00  0.0000E+00  0.0000E+00  0.0000E+00  0.0000E+00  0.0000E+00
    -44.570  0.0000E+00  0.0000E+00  0.0000E+00  0.0000E+00  0.0000E+00  0.0000E+00  0.0000E+00  0.0000E+00  0.0000E+00  0.0000E+00  0.0000E+00  0.0000E+00  0.0000E+00  0.0000E+00  0.0000E+00  0.0000E+00  0.0000E+00  0.0000E+00
    -44.324  0.0000E+00  0.0000E+00  0.0000E+00  0.0000E+00  0.0000E+00  0.0000E+00  0.0000E+00  0.0000E+00  0.0000E+00  0.0000E+00  0.0000E+00  0.0000E+00  0.0000E+00  0.0000E+00  0.0000E+00  0.0000E+00  0.0000E+00  0.0000E+00
    -44.078  0.0000E+00  0.0000E+00  0.0000E+00  0.0000E+00  0.0000E+00  0.0000E+00  0.0000E+00  0.0000E+00  0.0000E+00  0.0000E+00  0.0000E+00  0.0000E+00  0.0000E+00  0.0000E+00  0.0000E+00  0.0000E+00  0.0000E+00  0.0000E+00
    -43.832  0.0000E+00  0.0000E+00  0.0000E+00  0.0000E+00  0.0000E+00  0.0000E+00  0.0000E+00  0.0000E+00  0.0000E+00  0.0000E+00  0.0000E+00  0.0000E+00  0.0000E+00  0.0000E+00  0.0000E+00  0.0000E+00  0.0000E+00  0.0000E+00
    -43.586  0.0000E+00  0.0000E+00  0.0000E+00  0.0000E+00  0.0000E+00  0.0000E+00  0.0000E+00  0.0000E+00  0.0000E+00  0.0000E+00  0.0000E+00  0.0000E+00  0.0000E+00  0.0000E+00  0.0000E+00  0.0000E+00  0.0000E+00  0.0000E+00
    -43.340  0.0000E+00  0.0000E+00  0.0000E+00  0.0000E+00  0.0000E+00  0.0000E+00  0.0000E+00  0.0000E+00  0.0000E+00  0.0000E+00  0.0000E+00  0.0000E+00  0.0000E+00  0.0000E+00  0.0000E+00  0.0000E+00  0.0000E+00  0.0000E+00
    -43.094  0.0000E+00  0.0000E+00  0.0000E+00  0.0000E+00  0.0000E+00  0.0000E+00  0.0000E+00  0.0000E+00  0.0000E+00  0.0000E+00  0.0000E+00  0.0000E+00  0.0000E+00  0.0000E+00  0.0000E+00  0.0000E+00  0.0000E+00  0.0000E+00
    -42.848  0.0000E+00  0.0000E+00  0.0000E+00  0.0000E+00  0.0000E+00  0.0000E+00  0.0000E+00  0.0000E+00  0.0000E+00  0.0000E+00  0.0000E+00  0.0000E+00  0.0000E+00  0.0000E+00  0.0000E+00  0.0000E+00  0.0000E+00  0.0000E+00
    -42.602  0.0000E+00  0.0000E+00  0.0000E+00  0.0000E+00  0.0000E+00  0.0000E+00  0.0000E+00  0.0000E+00  0.0000E+00  0.0000E+00  0.0000E+00  0.0000E+00  0.0000E+00  0.0000E+00  0.0000E+00  0.0000E+00  0.0000E+00  0.0000E+00
    -42.356  0.0000E+00  0.0000E+00  0.0000E+00  0.0000E+00  0.0000E+00  0.0000E+00  0.0000E+00  0.0000E+00  0.0000E+00  0.0000E+00  0.0000E+00  0.0000E+00  0.0000E+00  0.0000E+00  0.0000E+00  0.0000E+00  0.0000E+00  0.0000E+00
    -42.110  0.0000E+00  0.0000E+00  0.0000E+00  0.0000E+00  0.0000E+00  0.0000E+00  0.0000E+00  0.0000E+00  0.0000E+00  0.0000E+00  0.0000E+00  0.0000E+00  0.0000E+00  0.0000E+00  0.0000E+00  0.0000E+00  0.0000E+00  0.0000E+00
    -41.864  0.0000E+00  0.0000E+00  0.0000E+00  0.0000E+00  0.0000E+00  0.0000E+00  0.0000E+00  0.0000E+00  0.0000E+00  0.0000E+00  0.0000E+00  0.0000E+00  0.0000E+00  0.0000E+00  0.0000E+00  0.0000E+00  0.0000E+00  0.0000E+00
    -41.618  0.0000E+00  0.0000E+00  0.0000E+00  0.0000E+00  0.0000E+00  0.0000E+00  0.0000E+00  0.0000E+00  0.0000E+00  0.0000E+00  0.0000E+00  0.0000E+00  0.0000E+00  0.0000E+00  0.0000E+00  0.0000E+00  0.0000E+00  0.0000E+00
    -41.372  0.0000E+00  0.0000E+00  0.0000E+00  0.0000E+00  0.0000E+00  0.0000E+00  0.0000E+00  0.0000E+00  0.0000E+00  0.0000E+00  0.0000E+00  0.0000E+00  0.0000E+00  0.0000E+00  0.0000E+00  0.0000E+00  0.0000E+00  0.0000E+00
    -41.126  0.0000E+00  0.0000E+00  0.0000E+00  0.0000E+00  0.0000E+00  0.0000E+00  0.0000E+00  0.0000E+00  0.0000E+00  0.0000E+00  0.0000E+00  0.0000E+00  0.0000E+00  0.0000E+00  0.0000E+00  0.0000E+00  0.0000E+00  0.0000E+00