  28  28   1   0
  0.8792765E+01  0.4443573E-09  0.5668394E-09  0.9774424E-09  0.5000000E-15
  1.000000000000000E-004
  CAR 
 unknown system                          
     41.96961074    -52.67589154  301      8.13978989      1.00000000
    -52.676  0.0000E+00  0.0000E+00  0.0000E+00  0.0000E+00
    -52.360  0.0000E+00  0.0000E+00  0.0000E+00  0.0000E+00
    -52.045  0.0000E+00  0.0000E+00  0.0000E+00  0.0000E+00
    -51.729  0.0000E+00  0.0000E+00  0.0000E+00  0.0000E+00
    -51.414  0.0000E+00  0.0000E+00  0.0000E+00  0.0000E+00
    -51.098  0.0000E+00  0.0000E+00  0.0000E+00  0.0000E+00
    -50.783  0.0000E+00  0.0000E+00  0.0000E+00  0.0000E+00
    -50.467  0.0000E+00  0.0000E+00  0.0000E+00  0.0000E+00
    -50.152  0.0000E+00  0.0000E+00  0.0000E+00  0.0000E+00
    -49.837  0.0000E+00  0.0000E+00  0.0000E+00  0.0000E+00
    -49.521  0.0000E+00  0.0000E+00  0.0000E+00  0.0000E+00
    -49.206  0.0000E+00  0.0000E+00  0.0000E+00  0.0000E+00
    -48.890  0.3979E-03  0.0000E+00  0.1255E-03  0.0000E+00
    -48.575  0.2147E+00  0.0000E+00  0.6786E-01  0.0000E+00
    -48.259  0.1125E+02  0.0000E+00  0.3619E+01  0.0000E+00
    -47.944  0.2333E-01  0.0000E+00  0.4007E+01  0.0000E+00
    -47.628  0.6365E+01  0.0000E+00  0.6016E+01  0.0000E+00
    -47.313  0.6731E+01  0.0000E+00  0.8139E+01  0.0000E+00
    -46.997  0.1164E+02  0.0000E+00  0.1182E+02  0.0000E+00
    -46.682  0.0000E+00  0.0000E+00  0.1200E+02  0.0000E+00
    -46.366  0.0000E+00  0.0000E+00  0.1200E+02  0.0000E+00
    -46.051  0.0000E+00  0.0000E+00  0.1200E+02  0.0000E+00
    -45.735  0.0000E+00  0.0000E+00  0.1200E+02  0.0000E+00
    -45.420  0.0000E+00  0.0000E+00  0.1200E+02  0.0000E+00
    -45.104  0.0000E+00  0.0000E+00  0.1200E+02  0.0000E+00
    -44.789  0.0000E+00  0.0000E+00  0.1200E+02  0.0000E+00
    -44.473  0.0000E+00  0.3138E-03  0.1200E+02  0.9900E-04
    -44.158  0.0000E+00  0.1720E+00  0.1200E+02  0.5435E-01
    -43.842  0.0000E+00  0.1204E+02  0.1200E+02  0.3853E+01
    -43.527  0.0000E+00  0.1754E+02  0.1200E+02  0.9859E+01
    -43.211  0.0000E+00  0.6501E+01  0.1200E+02  0.1199E+02
    -42.896  0.0000E+00  0.0000E+00  0.1200E+02  0.1200E+02
    -42.580  0.0000E+00  0.0000E+00  0.1200E+02  0.1200E+02
    -42.265  0.0000E+00  0.0000E+00  0.1200E+02  0.1200E+02
    -41.949  0.0000E+00  0.0000E+00  0.1200E+02  0.1200E+02
    -41.634  0.0000E+00  0.0000E+00  0.1200E+02  0.1200E+02
    -41.318  0.0000E+00  0.0000E+00  0.1200E+02  0.1200E+02
    -41.003  0.0000E+00  0.0000E+00  0.1200E+02  0.1200E+02
    -40.687  0.0000E+00  0.0000E+00  0.1200E+02  0.1200E+02
    -40.372  0.0000E+00  0.0000E+00  0.1200E+02  0.1200E+02
    -40.056  0.0000E+00  0.0000E+00  0.1200E+02  0.1200E+02
    -39.741  0.0000E+00  0.0000E+00  0.1200E+02  0.1200E+02
    -39.426  0.0000E+00  0.0000E+00  0.1200E+02  0.1200E+02
    -39.110  0.0000E+00  0.0000E+00  0.1200E+02  0.1200E+02
    -38.795  0.4684E-04  0.4618E-04  0.1200E+02  0.1200E+02
    -38.479  0.2566E-01  0.2530E-01  0.1201E+02  0.1201E+02
    -38.164  0.6629E+01  0.6585E+01  0.1410E+02  0.1409E+02
    -37.848  0.6003E+01  0.6047E+01  0.1599E+02  0.1599E+02
    -37.533  0.0000E+00  0.0000E+00  0.1600E+02  0.1600E+02
    -37.217  0.0000E+00  0.0000E+00  0.1600E+02  0.1600E+02
    -36.902  0.0000E+00  0.0000E+00  0.1600E+02  0.1600E+02
    -36.586  0.0000E+00  0.0000E+00  0.1600E+02  0.1600E+02
    -36.271  0.0000E+00  0.0000E+00  0.1600E+02  0.1600E+02
    -35.955  0.0000E+00  0.0000E+00  0.1600E+02  0.1600E+02
    -35.640  0.0000E+00  0.0000E+00  0.1600E+02  0.1600E+02
    -35.324  0.0000E+00  0.0000E+00  0.1600E+02  0.1600E+02
    -35.009  0.0000E+00  0.0000E+00  0.1600E+02  0.1600E+02
    -34.693  0.0000E+00  0.0000E+00  0.1600E+02  0.1600E+02
    -34.378  0.0000E+00  0.0000E+00  0.1600E+02  0.1600E+02
    -34.062  0.0000E+00  0.0000E+00  0.1600E+02  0.1600E+02
    -33.747  0.0000E+00  0.0000E+00  0.1600E+02  0.1600E+02
    -33.431  0.0000E+00  0.0000E+00  0.1600E+02  0.1600E+02
    -33.116  0.0000E+00  0.0000E+00  0.1600E+02  0.1600E+02
    -32.800  0.0000E+00  0.0000E+00  0.1600E+02  0.1600E+02
    -32.485  0.0000E+00  0.0000E+00  0.1600E+02  0.1600E+02
    -32.169  0.0000E+00  0.0000E+00  0.1600E+02  0.1600E+02
    -31.854  0.0000E+00  0.0000E+00  0.1600E+02  0.1600E+02
    -31.538  0.0000E+00  0.0000E+00  0.1600E+02  0.1600E+02
    -31.223  0.0000E+00  0.0000E+00  0.1600E+02  0.1600E+02
    -30.907  0.0000E+00  0.0000E+00  0.1600E+02  0.1600E+02
    -30.592  0.0000E+00  0.0000E+00  0.1600E+02  0.1600E+02
    -30.276  0.0000E+00  0.0000E+00  0.1600E+02  0.1600E+02
    -29.961  0.0000E+00  0.0000E+00  0.1600E+02  0.1600E+02
    -29.645  0.0000E+00  0.0000E+00  0.1600E+02  0.1600E+02
    -29.330  0.0000E+00  0.0000E+00  0.1600E+02  0.1600E+02
    -29.015  0.0000E+00  0.0000E+00  0.1600E+02  0.1600E+02
    -28.699  0.0000E+00  0.0000E+00  0.1600E+02  0.1600E+02
    -28.384  0.0000E+00  0.0000E+00  0.1600E+02  0.1600E+02
    -28.068  0.0000E+00  0.0000E+00  0.1600E+02  0.1600E+02
    -27.753  0.0000E+00  0.0000E+00  0.1600E+02  0.1600E+02
    -27.437  0.0000E+00  0.0000E+00  0.1600E+02  0.1600E+02
    -27.122  0.0000E+00  0.0000E+00  0.1600E+02  0.1600E+02
    -26.806  0.0000E+00  0.0000E+00  0.1600E+02  0.1600E+02
    -26.491  0.0000E+00  0.0000E+00  0.1600E+02  0.1600E+02
    -26.175  0.0000E+00  0.0000E+00  0.1600E+02  0.1600E+02
    -25.860  0.0000E+00  0.0000E+00  0.1600E+02  0.1600E+02
    -25.544  0.0000E+00  0.0000E+00  0.1600E+02  0.1600E+02
    -25.229  0.0000E+00  0.0000E+00  0.1600E+02  0.1600E+02
    -24.913  0.0000E+00  0.0000E+00  0.1600E+02  0.1600E+02
    -24.598  0.0000E+00  0.0000E+00  0.1600E+02  0.1600E+02
    -24.282  0.0000E+00  0.0000E+00  0.1600E+02  0.1600E+02
    -23.967  0.0000E+00  0.0000E+00  0.1600E+02  0.1600E+02
    -23.651  0.0000E+00  0.0000E+00  0.1600E+02  0.1600E+02
    -23.336  0.0000E+00  0.0000E+00  0.1600E+02  0.1600E+02
    -23.020  0.0000E+00  0.0000E+00  0.1600E+02  0.1600E+02
    -22.705  0.0000E+00  0.0000E+00  0.1600E+02  0.1600E+02
    -22.389  0.0000E+00  0.0000E+00  0.1600E+02  0.1600E+02
    -22.074  0.0000E+00  0.0000E+00  0.1600E+02  0.1600E+02
    -21.758  0.0000E+00  0.0000E+00  0.1600E+02  0.1600E+02
    -21.443  0.0000E+00  0.0000E+00  0.1600E+02  0.1600E+02
    -21.127  0.0000E+00  0.0000E+00  0.1600E+02  0.1600E+02
    -20.812  0.0000E+00  0.0000E+00  0.1600E+02  0.1600E+02
    -20.496  0.0000E+00  0.0000E+00  0.1600E+02  0.1600E+02
    -20.181  0.0000E+00  0.0000E+00  0.1600E+02  0.1600E+02
    -19.865  0.0000E+00  0.0000E+00  0.1600E+02  0.1600E+02
    -19.550  0.0000E+00  0.0000E+00  0.1600E+02  0.1600E+02
    -19.234  0.0000E+00  0.0000E+00  0.1600E+02  0.1600E+02
    -18.919  0.0000E+00  0.0000E+00  0.1600E+02  0.1600E+02
    -18.604  0.0000E+00  0.0000E+00  0.1600E+02  0.1600E+02
    -18.288  0.0000E+00  0.0000E+00  0.1600E+02  0.1600E+02
    -17.973  0.2084E-04  0.1381E-05  0.1600E+02  0.1600E+02
    -17.657  0.1183E-01  0.1052E-02  0.1600E+02  0.1600E+02
    -17.342  0.1688E+01  0.3942E+00  0.1654E+02  0.1612E+02
    -17.026  0.7991E+01  0.6021E+01  0.1907E+02  0.1802E+02
    -16.711  0.2687E+01  0.5808E+01  0.1999E+02  0.1993E+02
    -16.395  0.0000E+00  0.2212E-01  0.2000E+02  0.2000E+02
    -16.080  0.0000E+00  0.0000E+00  0.2000E+02  0.2000E+02
    -15.764  0.0000E+00  0.0000E+00  0.2000E+02  0.2000E+02
    -15.449  0.0000E+00  0.0000E+00  0.2000E+02  0.2000E+02
    -15.133  0.5353E-06  0.0000E+00  0.2000E+02  0.2000E+02
    -14.818  0.1037E-02  0.9134E-04  0.2000E+02  0.2000E+02
    -14.502  0.5095E+00  0.5041E-01  0.2016E+02  0.2002E+02
    -14.187  0.1241E+02  0.5816E+01  0.2408E+02  0.2185E+02
    -13.871  0.2039E+02  0.1914E+02  0.3064E+02  0.2795E+02
    -13.556  0.3738E+01  0.1185E+02  0.3200E+02  0.3192E+02
    -13.240  0.0000E+00  0.0000E+00  0.3200E+02  0.3199E+02
    -12.925  0.0000E+00  0.0000E+00  0.3200E+02  0.3199E+02
    -12.609  0.0000E+00  0.0000E+00  0.3200E+02  0.3199E+02
    -12.294  0.0000E+00  0.0000E+00  0.3200E+02  0.3199E+02
    -11.978  0.0000E+00  0.0000E+00  0.3200E+02  0.3199E+02
    -11.663  0.0000E+00  0.0000E+00  0.3200E+02  0.3199E+02
    -11.347  0.0000E+00  0.0000E+00  0.3200E+02  0.3199E+02
    -11.032  0.0000E+00  0.0000E+00  0.3200E+02  0.3199E+02
    -10.716  0.0000E+00  0.0000E+00  0.3200E+02  0.3199E+02
    -10.401  0.0000E+00  0.0000E+00  0.3200E+02  0.3199E+02
    -10.085  0.0000E+00  0.0000E+00  0.3200E+02  0.3199E+02
     -9.770  0.0000E+00  0.0000E+00  0.3200E+02  0.3199E+02
     -9.454  0.0000E+00  0.0000E+00  0.3200E+02  0.3199E+02
     -9.139  0.0000E+00  0.0000E+00  0.3200E+02  0.3199E+02
     -8.823  0.0000E+00  0.0000E+00  0.3200E+02  0.3199E+02
     -8.508  0.0000E+00  0.0000E+00  0.3200E+02  0.3199E+02
     -8.193  0.0000E+00  0.0000E+00  0.3200E+02  0.3199E+02
     -7.877  0.0000E+00  0.0000E+00  0.3200E+02  0.3199E+02
     -7.562  0.0000E+00  0.0000E+00  0.3200E+02  0.3199E+02
     -7.246  0.0000E+00  0.0000E+00  0.3200E+02  0.3199E+02
     -6.931  0.0000E+00  0.0000E+00  0.3200E+02  0.3199E+02
     -6.615  0.0000E+00  0.0000E+00  0.3200E+02  0.3199E+02
     -6.300  0.0000E+00  0.0000E+00  0.3200E+02  0.3199E+02
     -5.984  0.0000E+00  0.0000E+00  0.3200E+02  0.3199E+02
     -5.669  0.0000E+00  0.0000E+00  0.3200E+02  0.3199E+02
     -5.353  0.0000E+00  0.0000E+00  0.3200E+02  0.3199E+02
     -5.038  0.0000E+00  0.0000E+00  0.3200E+02  0.3199E+02
     -4.722  0.0000E+00  0.0000E+00  0.3200E+02  0.3199E+02
     -4.407  0.1939E-05  0.0000E+00  0.3200E+02  0.3199E+02
     -4.091  0.1188E-02  0.1699E-04  0.3200E+02  0.3199E+02
     -3.776  0.3222E+00  0.9289E-02  0.3210E+02  0.3199E+02
     -3.460  0.2497E+01  0.8220E+00  0.3289E+02  0.3225E+02
     -3.145  0.5701E+01  0.3200E+01  0.3472E+02  0.3327E+02
     -2.829  0.3843E+01  0.6860E+01  0.3599E+02  0.3546E+02
     -2.514  0.6896E+00  0.1505E+01  0.3623E+02  0.3602E+02
     -2.198  0.2920E+01  0.9838E+00  0.3715E+02  0.3633E+02
     -1.883  0.5535E+01  0.3618E+01  0.3893E+02  0.3748E+02
     -1.567  0.7820E+01  0.7001E+01  0.4145E+02  0.3974E+02
     -1.252  0.6820E+01  0.7013E+01  0.4368E+02  0.4201E+02
     -0.936  0.9064E+01  0.7602E+01  0.4660E+02  0.4445E+02
     -0.621  0.3623E+01  0.9002E+01  0.4783E+02  0.4734E+02
     -0.305  0.2211E+01  0.1495E+01  0.4855E+02  0.4794E+02
      0.010  0.5661E+01  0.2116E+01  0.5035E+02  0.4863E+02
      0.326  0.7680E+01  0.5596E+01  0.5282E+02  0.5041E+02
      0.641  0.9227E+01  0.7758E+01  0.5580E+02  0.5291E+02
      0.957  0.7626E+01  0.8544E+01  0.5829E+02  0.5568E+02
      1.272  0.6823E+01  0.8156E+01  0.6051E+02  0.5832E+02
      1.588  0.8126E+01  0.7351E+01  0.6311E+02  0.6071E+02
      1.903  0.9454E+01  0.7414E+01  0.6616E+02  0.6310E+02
      2.218  0.6138E+01  0.7726E+01  0.6819E+02  0.6560E+02
      2.534  0.6149E+01  0.8083E+01  0.7018E+02  0.6822E+02
      2.849  0.1242E+02  0.5036E+01  0.7415E+02  0.6988E+02
      3.165  0.8428E+01  0.1131E+02  0.7694E+02  0.7349E+02
      3.480  0.5705E+01  0.1031E+02  0.7881E+02  0.7686E+02
      3.796  0.3007E+01  0.5719E+01  0.7980E+02  0.7874E+02
      4.111  0.5509E+00  0.3511E+01  0.8000E+02  0.7990E+02
      4.427  0.4633E-01  0.1549E+00  0.8001E+02  0.7999E+02
      4.742  0.5171E+01  0.0000E+00  0.8165E+02  0.7999E+02
      5.058  0.9494E+01  0.0000E+00  0.8468E+02  0.7999E+02
      5.373  0.7379E+01  0.0000E+00  0.8710E+02  0.7999E+02
      5.689  0.7124E+01  0.0000E+00  0.8941E+02  0.7999E+02
      6.004  0.8945E+01  0.0000E+00  0.9225E+02  0.7999E+02
      6.320  0.7393E+01  0.0000E+00  0.9462E+02  0.7999E+02
      6.635  0.4832E+01  0.0000E+00  0.9621E+02  0.7999E+02
      6.951  0.7198E+01  0.0000E+00  0.9853E+02  0.7999E+02
      7.266  0.4427E+01  0.2254E-04  0.9999E+02  0.7999E+02
      7.582  0.0000E+00  0.1326E-01  0.1000E+03  0.7999E+02
      7.897  0.0000E+00  0.3243E+01  0.1000E+03  0.8102E+02
      8.213  0.0000E+00  0.1110E+02  0.1000E+03  0.8452E+02
      8.528  0.0000E+00  0.1180E+02  0.1000E+03  0.8829E+02
      8.844  0.0000E+00  0.1069E+02  0.1000E+03  0.9178E+02
      9.159  0.0000E+00  0.3920E+00  0.1000E+03  0.9199E+02
      9.475  0.0000E+00  0.2232E+01  0.1000E+03  0.9270E+02
      9.790  0.0000E+00  0.8241E+01  0.1000E+03  0.9530E+02
     10.106  0.0000E+00  0.6390E+01  0.1000E+03  0.9737E+02
     10.421  0.2379E-06  0.7866E+01  0.1000E+03  0.9990E+02
     10.737  0.1423E-03  0.6105E-07  0.1000E+03  0.9999E+02
     11.052  0.3221E-01  0.3737E-04  0.1000E+03  0.9999E+02
     11.368  0.1994E+00  0.1440E-01  0.1001E+03  0.9999E+02
     11.683  0.3670E+00  0.1773E+00  0.1002E+03  0.1001E+03
     11.999  0.5473E+00  0.3583E+00  0.1004E+03  0.1002E+03
     12.314  0.8419E+00  0.5532E+00  0.1006E+03  0.1003E+03
     12.630  0.1502E+01  0.9418E+00  0.1011E+03  0.1006E+03
     12.945  0.1811E+01  0.1658E+01  0.1017E+03  0.1012E+03
     13.260  0.2828E+01  0.1865E+01  0.1026E+03  0.1018E+03
     13.576  0.3505E+01  0.2909E+01  0.1037E+03  0.1027E+03
     13.891  0.3513E+01  0.3385E+01  0.1049E+03  0.1038E+03
     14.207  0.5741E+01  0.4280E+01  0.1067E+03  0.1052E+03
     14.522  0.4749E+01  0.5529E+01  0.1083E+03  0.1070E+03
     14.838  0.2852E+01  0.3664E+01  0.1092E+03  0.1082E+03
     15.153  0.3321E+01  0.2775E+01  0.1103E+03  0.1091E+03
     15.469  0.5676E+01  0.3591E+01  0.1121E+03  0.1102E+03
     15.784  0.5647E+01  0.4635E+01  0.1139E+03  0.1117E+03
     16.100  0.5390E+01  0.6422E+01  0.1157E+03  0.1138E+03
     16.415  0.4184E+01  0.6039E+01  0.1171E+03  0.1157E+03
     16.731  0.3517E+01  0.4343E+01  0.1182E+03  0.1172E+03
     17.046  0.4359E+01  0.3335E+01  0.1196E+03  0.1182E+03
     17.362  0.4912E+01  0.4243E+01  0.1212E+03  0.1196E+03
     17.677  0.4286E+01  0.4770E+01  0.1226E+03  0.1212E+03
     17.993  0.3630E+01  0.4393E+01  0.1238E+03  0.1226E+03
     18.308  0.2967E+01  0.3418E+01  0.1247E+03  0.1237E+03
     18.624  0.4154E+01  0.3077E+01  0.1261E+03  0.1247E+03
     18.939  0.4032E+01  0.4422E+01  0.1274E+03  0.1261E+03
     19.255  0.1763E+01  0.4299E+01  0.1280E+03  0.1275E+03
     19.570  0.6146E-01  0.1350E+01  0.1280E+03  0.1280E+03
     19.886  0.0000E+00  0.1252E-01  0.1280E+03  0.1280E+03
     20.201  0.0000E+00  0.0000E+00  0.1280E+03  0.1280E+03
     20.517  0.0000E+00  0.0000E+00  0.1280E+03  0.1280E+03
     20.832  0.0000E+00  0.0000E+00  0.1280E+03  0.1280E+03
     21.148  0.0000E+00  0.0000E+00  0.1280E+03  0.1280E+03
     21.463  0.0000E+00  0.0000E+00  0.1280E+03  0.1280E+03
     21.779  0.0000E+00  0.0000E+00  0.1280E+03  0.1280E+03
     22.094  0.0000E+00  0.0000E+00  0.1280E+03  0.1280E+03
     22.410  0.0000E+00  0.0000E+00  0.1280E+03  0.1280E+03
     22.725  0.0000E+00  0.0000E+00  0.1280E+03  0.1280E+03
     23.041  0.0000E+00  0.0000E+00  0.1280E+03  0.1280E+03
     23.356  0.0000E+00  0.0000E+00  0.1280E+03  0.1280E+03
     23.671  0.0000E+00  0.0000E+00  0.1280E+03  0.1280E+03
     23.987  0.0000E+00  0.0000E+00  0.1280E+03  0.1280E+03
     24.302  0.0000E+00  0.0000E+00  0.1280E+03  0.1280E+03
     24.618  0.0000E+00  0.0000E+00  0.1280E+03  0.1280E+03
     24.933  0.0000E+00  0.0000E+00  0.1280E+03  0.1280E+03
     25.249  0.0000E+00  0.0000E+00  0.1280E+03  0.1280E+03
     25.564  0.0000E+00  0.0000E+00  0.1280E+03  0.1280E+03
     25.880  0.0000E+00  0.0000E+00  0.1280E+03  0.1280E+03
     26.195  0.0000E+00  0.0000E+00  0.1280E+03  0.1280E+03
     26.511  0.0000E+00  0.0000E+00  0.1280E+03  0.1280E+03
     26.826  0.0000E+00  0.0000E+00  0.1280E+03  0.1280E+03
     27.142  0.0000E+00  0.0000E+00  0.1280E+03  0.1280E+03
     27.457  0.0000E+00  0.0000E+00  0.1280E+03  0.1280E+03
     27.773  0.0000E+00  0.0000E+00  0.1280E+03  0.1280E+03
     28.088  0.0000E+00  0.0000E+00  0.1280E+03  0.1280E+03
     28.404  0.0000E+00  0.0000E+00  0.1280E+03  0.1280E+03
     28.719  0.0000E+00  0.0000E+00  0.1280E+03  0.1280E+03
     29.035  0.0000E+00  0.0000E+00  0.1280E+03  0.1280E+03
     29.350  0.0000E+00  0.0000E+00  0.1280E+03  0.1280E+03
     29.666  0.0000E+00  0.0000E+00  0.1280E+03  0.1280E+03
     29.981  0.0000E+00  0.0000E+00  0.1280E+03  0.1280E+03
     30.297  0.0000E+00  0.0000E+00  0.1280E+03  0.1280E+03
     30.612  0.0000E+00  0.0000E+00  0.1280E+03  0.1280E+03
     30.928  0.0000E+00  0.0000E+00  0.1280E+03  0.1280E+03
     31.243  0.0000E+00  0.0000E+00  0.1280E+03  0.1280E+03
     31.559  0.0000E+00  0.0000E+00  0.1280E+03  0.1280E+03
     31.874  0.0000E+00  0.0000E+00  0.1280E+03  0.1280E+03
     32.190  0.0000E+00  0.0000E+00  0.1280E+03  0.1280E+03
     32.505  0.0000E+00  0.0000E+00  0.1280E+03  0.1280E+03
     32.821  0.0000E+00  0.0000E+00  0.1280E+03  0.1280E+03
     33.136  0.0000E+00  0.0000E+00  0.1280E+03  0.1280E+03
     33.452  0.0000E+00  0.0000E+00  0.1280E+03  0.1280E+03
     33.767  0.0000E+00  0.0000E+00  0.1280E+03  0.1280E+03
     34.082  0.0000E+00  0.0000E+00  0.1280E+03  0.1280E+03
     34.398  0.0000E+00  0.0000E+00  0.1280E+03  0.1280E+03
     34.713  0.0000E+00  0.0000E+00  0.1280E+03  0.1280E+03
     35.029  0.0000E+00  0.0000E+00  0.1280E+03  0.1280E+03
     35.344  0.0000E+00  0.0000E+00  0.1280E+03  0.1280E+03
     35.660  0.0000E+00  0.0000E+00  0.1280E+03  0.1280E+03
     35.975  0.0000E+00  0.0000E+00  0.1280E+03  0.1280E+03
     36.291  0.0000E+00  0.0000E+00  0.1280E+03  0.1280E+03
     36.606  0.0000E+00  0.0000E+00  0.1280E+03  0.1280E+03
     36.922  0.0000E+00  0.0000E+00  0.1280E+03  0.1280E+03
     37.237  0.0000E+00  0.5959E-05  0.1280E+03  0.1280E+03
     37.553  0.0000E+00  0.2971E-02  0.1280E+03  0.1280E+03
     37.868  0.0000E+00  0.2896E-01  0.1280E+03  0.1280E+03
     38.184  0.0000E+00  0.0000E+00  0.1280E+03  0.1280E+03
     38.499  0.0000E+00  0.0000E+00  0.1280E+03  0.1280E+03
     38.815  0.0000E+00  0.0000E+00  0.1280E+03  0.1280E+03
     39.130  0.0000E+00  0.0000E+00  0.1280E+03  0.1280E+03
     39.446  0.0000E+00  0.0000E+00  0.1280E+03  0.1280E+03
     39.761  0.0000E+00  0.0000E+00  0.1280E+03  0.1280E+03
     40.077  0.0000E+00  0.0000E+00  0.1280E+03  0.1280E+03
     40.392  0.0000E+00  0.0000E+00  0.1280E+03  0.1280E+03
     40.708  0.0000E+00  0.0000E+00  0.1280E+03  0.1280E+03
     41.023  0.0000E+00  0.0000E+00  0.1280E+03  0.1280E+03
     41.339  0.0000E+00  0.0000E+00  0.1280E+03  0.1280E+03
     41.654  0.0000E+00  0.0000E+00  0.1280E+03  0.1280E+03
     41.970  0.0000E+00  0.0000E+00  0.1280E+03  0.1280E+03
     41.96961074    -52.67589154  301      8.13978989      1.00000000
    -52.676  0.0000E+00  0.0000E+00  0.0000E+00  0.0000E+00  0.0000E+00  0.0000E+00  0.0000E+00  0.0000E+00  0.0000E+00  0.0000E+00  0.0000E+00  0.0000E+00  0.0000E+00  0.0000E+00  0.0000E+00  0.0000E+00  0.0000E+00  0.0000E+00
    -52.360  0.0000E+00  0.0000E+00  0.0000E+00  0.0000E+00  0.0000E+00  0.0000E+00  0.0000E+00  0.0000E+00  0.0000E+00  0.0000E+00  0.0000E+00  0.0000E+00  0.0000E+00  0.0000E+00  0.0000E+00  0.0000E+00  0.0000E+00  0.0000E+00
    -52.045  0.0000E+00  0.0000E+00  0.0000E+00  0.0000E+00  0.0000E+00  0.0000E+00  0.0000E+00  0.0000E+00  0.0000E+00  0.0000E+00  0.0000E+00  0.0000E+00  0.0000E+00  0.0000E+00  0.0000E+00  0.0000E+00  0.0000E+00  0.0000E+00
    -51.729  0.0000E+00  0.0000E+00  0.0000E+00  0.0000E+00  0.0000E+00  0.0000E+00  0.0000E+00  0.0000E+00  0.0000E+00  0.0000E+00  0.0000E+00  0.0000E+00  0.0000E+00  0.0000E+00  0.0000E+00  0.0000E+00  0.0000E+00  0.0000E+00
    -51.414  0.0000E+00  0.0000E+00  0.0000E+00  0.0000E+00  0.0000E+00  0.0000E+00  0.0000E+00  0.0000E+00  0.0000E+00  0.0000E+00  0.0000E+00  0.0000E+00  0.0000E+00  0.0000E+00  0.0000E+00  0.0000E+00  0.0000E+00  0.0000E+00
    -51.098  0.0000E+00  0.0000E+00  0.0000E+00  0.0000E+00  0.0000E+00  0.0000E+00  0.0000E+00  0.0000E+00  0.0000E+00  0.0000E+00  0.0000E+00  0.0000E+00  0.0000E+00  0.0000E+00  0.0000E+00  0.0000E+00  0.0000E+00  0.0000E+00
    -50.783  0.0000E+00  0.0000E+00  0.0000E+00  0.0000E+00  0.0000E+00  0.0000E+00  0.0000E+00  0.0000E+00  0.0000E+00  0.0000E+00  0.0000E+00  0.0000E+00  0.0000E+00  0.0000E+00  0.0000E+00  0.0000E+00  0.0000E+00  0.0000E+00
    -50.467  0.0000E+00  0.0000E+00  0.0000E+00  0.0000E+00  0.0000E+00  0.0000E+00  0.0000E+00  0.0000E+00  0.0000E+00  0.0000E+00  0.0000E+00  0.0000E+00  0.0000E+00  0.0000E+00  0.0000E+00  0.0000E+00  0.0000E+00  0.0000E+00
    -50.152  0.0000E+00  0.0000E+00  0.0000E+00  0.0000E+00  0.0000E+00  0.0000E+00  0.0000E+00  0.0000E+00  0.0000E+00  0.0000E+00  0.0000E+00  0.0000E+00  0.0000E+00  0.0000E+00  0.0000E+00  0.0000E+00  0.0000E+00  0.0000E+00
    -49.837  0.0000E+00  0.0000E+00  0.0000E+00  0.0000E+00  0.0000E+00  0.0000E+00  0.0000E+00  0.0000E+00  0.0000E+00  0.0000E+00  0.0000E+00  0.0000E+00  0.0000E+00  0.0000E+00  0.0000E+00  0.0000E+00  0.0000E+00  0.0000E+00
    -49.521  0.0000E+00  0.0000E+00  0.0000E+00  0.0000E+00  0.0000E+00  0.0000E+00  0.0000E+00  0.0000E+00  0.0000E+00  0.0000E+00  0.0000E+00  0.0000E+00  0.0000E+00  0.0000E+00  0.0000E+00  0.0000E+00  0.0000E+00  0.0000E+00
    -49.206  0.0000E+00  0.0000E+00  0.0000E+00  0.0000E+00  0.0000E+00  0.0000E+00  0.0000E+00  0.0000E+00  0.0000E+00  0.0000E+00  0.0000E+00  0.0000E+00  0.0000E+00  0.0000E+00  0.0000E+00  0.0000E+00  0.0000E+00  0.0000E+00
    -48.890  0.3262E-11  0.0000E+00  0.1721E-12  0.0000E+00  0.1729E-12  0.0000E+00  0.3772E-13  0.0000E+00  0.0000E+00  0.0000E+00  0.0000E+00  0.0000E+00  0.0000E+00  0.0000E+00  0.0000E+00  0.0000E+00  0.0000E+00  0.0000E+00
    -48.575  0.1760E-08  0.0000E+00  0.9287E-10  0.0000E+00  0.9330E-10  0.0000E+00  0.2035E-10  0.0000E+00  0.0000E+00  0.0000E+00  0.0000E+00  0.0000E+00  0.0000E+00  0.0000E+00  0.0000E+00  0.0000E+00  0.0000E+00  0.0000E+00
    -48.259  0.9121E-07  0.0000E+00  0.4857E-08  0.0000E+00  0.4920E-08  0.0000E+00  0.1068E-08  0.0000E+00  0.0000E+00  0.0000E+00  0.0000E+00  0.0000E+00  0.0000E+00  0.0000E+00  0.0000E+00  0.0000E+00  0.0000E+00  0.0000E+00
    -47.944  0.8858E-09  0.0000E+00  0.1485E-10  0.0000E+00  0.4314E-10  0.0000E+00  0.4851E-11  0.0000E+00  0.0000E+00  0.0000E+00  0.0000E+00  0.0000E+00  0.0000E+00  0.0000E+00  0.0000E+00  0.0000E+00  0.0000E+00  0.0000E+00
    -47.628  0.2415E-06  0.0000E+00  0.4050E-08  0.0000E+00  0.1177E-07  0.0000E+00  0.1324E-08  0.0000E+00  0.0000E+00  0.0000E+00  0.0000E+00  0.0000E+00  0.0000E+00  0.0000E+00  0.0000E+00  0.0000E+00  0.0000E+00  0.0000E+00
    -47.313  0.2399E-06  0.0000E+00  0.4061E-08  0.0000E+00  0.1169E-07  0.0000E+00  0.1402E-08  0.0000E+00  0.0000E+00  0.0000E+00  0.0000E+00  0.0000E+00  0.0000E+00  0.0000E+00  0.0000E+00  0.0000E+00  0.0000E+00  0.0000E+00
    -46.997  0.6139E-07  0.0000E+00  0.1914E-08  0.0000E+00  0.2163E-08  0.0000E+00  0.2497E-08  0.0000E+00  0.0000E+00  0.0000E+00  0.0000E+00  0.0000E+00  0.0000E+00  0.0000E+00  0.0000E+00  0.0000E+00  0.0000E+00  0.0000E+00
    -46.682  0.0000E+00  0.0000E+00  0.0000E+00  0.0000E+00  0.0000E+00  0.0000E+00  0.0000E+00  0.0000E+00  0.0000E+00  0.0000E+00  0.0000E+00  0.0000E+00  0.0000E+00  0.0000E+00  0.0000E+00  0.0000E+00  0.0000E+00  0.0000E+00
    -46.366  0.0000E+00  0.0000E+00  0.0000E+00  0.0000E+00  0.0000E+00  0.0000E+00  0.0000E+00  0.0000E+00  0.0000E+00  0.0000E+00  0.0000E+00  0.0000E+00  0.0000E+00  0.0000E+00  0.0000E+00  0.0000E+00  0.0000E+00  0.0000E+00
    -46.051  0.0000E+00  0.0000E+00  0.0000E+00  0.0000E+00  0.0000E+00  0.0000E+00  0.0000E+00  0.0000E+00  0.0000E+00  0.0000E+00  0.0000E+00  0.0000E+00  0.0000E+00  0.0000E+00  0.0000E+00  0.0000E+00  0.0000E+00  0.0000E+00
    -45.735  0.0000E+00  0.0000E+00  0.0000E+00  0.0000E+00  0.0000E+00  0.0000E+00  0.0000E+00  0.0000E+00  0.0000E+00  0.0000E+00  0.0000E+00  0.0000E+00  0.0000E+00  0.0000E+00  0.0000E+00  0.0000E+00  0.0000E+00  0.0000E+00
    -45.420  0.0000E+00  0.0000E+00  0.0000E+00  0.0000E+00  0.0000E+00  0.0000E+00  0.0000E+00  0.0000E+00  0.0000E+00  0.0000E+00  0.0000E+00  0.0000E+00  0.0000E+00  0.0000E+00  0.0000E+00  0.0000E+00  0.0000E+00  0.0000E+00
    -45.104  0.0000E+00  0.0000E+00  0.0000E+00  0.0000E+00  0.0000E+00  0.0000E+00  0.0000E+00  0.0000E+00  0.0000E+00  0.0000E+00  0.0000E+00  0.0000E+00  0.0000E+00  0.0000E+00  0.0000E+00  0.0000E+00  0.0000E+00  0.0000E+00
    -44.789  0.0000E+00  0.0000E+00  0.0000E+00  0.0000E+00  0.0000E+00  0.0000E+00  0.0000E+00  0.0000E+00  0.0000E+00  0.0000E+00  0.0000E+00  0.0000E+00  0.0000E+00  0.0000E+00  0.0000E+00  0.0000E+00  0.0000E+00  0.0000E+00
    -44.473  0.0000E+00  0.1359E-10  0.0000E+00  0.1714E-12  0.0000E+00  0.2229E-12  0.0000E+00  0.5061E-13  0.0000E+00  0.0000E+00  0.0000E+00  0.0000E+00  0.0000E+00  0.0000E+00  0.0000E+00  0.0000E+00  0.0000E+00  0.0000E+00
    -44.158  0.0000E+00  0.7690E-08  0.0000E+00  0.9463E-10  0.0000E+00  0.1259E-09  0.0000E+00  0.2797E-10  0.0000E+00  0.0000E+00  0.0000E+00  0.0000E+00  0.0000E+00  0.0000E+00  0.0000E+00  0.0000E+00  0.0000E+00  0.0000E+00
    -43.842  0.0000E+00  0.6369E-06  0.0000E+00  0.6935E-08  0.0000E+00  0.1048E-07  0.0000E+00  0.2073E-08  0.0000E+00  0.0000E+00  0.0000E+00  0.0000E+00  0.0000E+00  0.0000E+00  0.0000E+00  0.0000E+00  0.0000E+00  0.0000E+00
    -43.527  0.0000E+00  0.2098E-05  0.0000E+00  0.1194E-07  0.0000E+00  0.3254E-07  0.0000E+00  0.5519E-08  0.0000E+00  0.0000E+00  0.0000E+00  0.0000E+00  0.0000E+00  0.0000E+00  0.0000E+00  0.0000E+00  0.0000E+00  0.0000E+00
    -43.211  0.0000E+00  0.2254E-06  0.0000E+00  0.1791E-08  0.0000E+00  0.3006E-08  0.0000E+00  0.2576E-08  0.0000E+00  0.0000E+00  0.0000E+00  0.0000E+00  0.0000E+00  0.0000E+00  0.0000E+00  0.0000E+00  0.0000E+00  0.0000E+00
    -42.896  0.0000E+00  0.0000E+00  0.0000E+00  0.0000E+00  0.0000E+00  0.0000E+00  0.0000E+00  0.0000E+00  0.0000E+00  0.0000E+00  0.0000E+00  0.0000E+00  0.0000E+00  0.0000E+00  0.0000E+00  0.0000E+00  0.0000E+00  0.0000E+00
    -42.580  0.0000E+00  0.0000E+00  0.0000E+00  0.0000E+00  0.0000E+00  0.0000E+00  0.0000E+00  0.0000E+00  0.0000E+00  0.0000E+00  0.0000E+00  0.0000E+00  0.0000E+00  0.0000E+00  0.0000E+00  0.0000E+00  0.0000E+00  0.0000E+00
    -42.265  0.0000E+00  0.0000E+00  0.0000E+00  0.0000E+00  0.0000E+00  0.0000E+00  0.0000E+00  0.0000E+00  0.0000E+00  0.0000E+00  0.0000E+00  0.0000E+00  0.0000E+00  0.0000E+00  0.0000E+00  0.0000E+00  0.0000E+00  0.0000E+00
    -41.949  0.0000E+00  0.0000E+00  0.0000E+00  0.0000E+00  0.0000E+00  0.0000E+00  0.0000E+00  0.0000E+00  0.0000E+00  0.0000E+00  0.0000E+00  0.0000E+00  0.0000E+00  0.0000E+00  0.0000E+00  0.0000E+00  0.0000E+00  0.0000E+00
    -41.634  0.0000E+00  0.0000E+00  0.0000E+00  0.0000E+00  0.0000E+00  0.0000E+00  0.0000E+00  0.0000E+00  0.0000E+00  0.0000E+00  0.0000E+00  0.0000E+00  0.0000E+00  0.0000E+00  0.0000E+00  0.0000E+00  0.0000E+00  0.0000E+00
    -41.318  0.0000E+00  0.0000E+00  0.0000E+00  0.0000E+00  0.0000E+00  0.0000E+00  0.0000E+00  0.0000E+00  0.0000E+00  0.0000E+00  0.0000E+00  0.0000E+00  0.0000E+00  0.0000E+00  0.0000E+00  0.0000E+00  0.0000E+00  0.0000E+00
    -41.003  0.0000E+00  0.0000E+00  0.0000E+00  0.0000E+00  0.0000E+00  0.0000E+00  0.0000E+00  0.0000E+00  0.0000E+00  0.0000E+00  0.0000E+00  0.0000E+00  0.0000E+00  0.0000E+00  0.0000E+00  0.0000E+00  0.0000E+00  0.0000E+00
    -40.687  0.0000E+00  0.0000E+00  0.0000E+00  0.0000E+00  0.0000E+00  0.0000E+00  0.0000E+00  0.0000E+00  0.0000E+00  0.0000E+00  0.0000E+00  0.0000E+00  0.0000E+00  0.0000E+00  0.0000E+00  0.0000E+00  0.0000E+00  0.0000E+00
    -40.372  0.0000E+00  0.0000E+00  0.0000E+00  0.0000E+00  0.0000E+00  0.0000E+00  0.0000E+00  0.0000E+00  0.0000E+00  0.0000E+00  0.0000E+00  0.0000E+00  0.0000E+00  0.0000E+00  0.0000E+00  0.0000E+00  0.0000E+00  0.0000E+00
    -40.056  0.0000E+00  0.0000E+00  0.0000E+00  0.0000E+00  0.0000E+00  0.0000E+00  0.0000E+00  0.0000E+00  0.0000E+00  0.0000E+00  0.0000E+00  0.0000E+00  0.0000E+00  0.0000E+00  0.0000E+00  0.0000E+00  0.0000E+00  0.0000E+00
    -39.741  0.0000E+00  0.0000E+00  0.0000E+00  0.0000E+00  0.0000E+00  0.0000E+00  0.0000E+00  0.0000E+00  0.0000E+00  0.0000E+00  0.0000E+00  0.0000E+00  0.0000E+00  0.0000E+00  0.0000E+00  0.0000E+00  0.0000E+00  0.0000E+00
    -39.426  0.0000E+00  0.0000E+00  0.0000E+00  0.0000E+00  0.0000E+00  0.0000E+00  0.0000E+00  0.0000E+00  0.0000E+00  0.0000E+00  0.0000E+00  0.0000E+00  0.0000E+00  0.0000E+00  0.0000E+00  0.0000E+00  0.0000E+00  0.0000E+00
    -39.110  0.0000E+00  0.0000E+00  0.0000E+00  0.0000E+00  0.0000E+00  0.0000E+00  0.0000E+00  0.0000E+00  0.0000E+00  0.0000E+00  0.0000E+00  0.0000E+00  0.0000E+00  0.0000E+00  0.0000E+00  0.0000E+00  0.0000E+00  0.0000E+00
    -38.795  0.1157E-04  0.1141E-04  0.7957E-12  0.7808E-12  0.4728E-13  0.4621E-13  0.8193E-13  0.8014E-13  0.0000E+00  0.0000E+00  0.0000E+00  0.0000E+00  0.0000E+00  0.0000E+00  0.0000E+00  0.0000E+00  0.0000E+00  0.0000E+00
    -38.479  0.6337E-02  0.6247E-02  0.4359E-09  0.4277E-09  0.2590E-10  0.2531E-10  0.4489E-10  0.4391E-10  0.0000E+00  0.0000E+00  0.0000E+00  0.0000E+00  0.0000E+00  0.0000E+00  0.0000E+00  0.0000E+00  0.0000E+00  0.0000E+00
    -38.164  0.1637E+01  0.1627E+01  0.1138E-06  0.1125E-06  0.6752E-08  0.6649E-08  0.1231E-07  0.1213E-07  0.0000E+00  0.0000E+00  0.0000E+00  0.0000E+00  0.0000E+00  0.0000E+00  0.0000E+00  0.0000E+00  0.0000E+00  0.0000E+00
    -37.848  0.1483E+01  0.1494E+01  0.1039E-06  0.1042E-06  0.6240E-08  0.6230E-08  0.1247E-07  0.1245E-07  0.0000E+00  0.0000E+00  0.0000E+00  0.0000E+00  0.0000E+00  0.0000E+00  0.0000E+00  0.0000E+00  0.0000E+00  0.0000E+00
    -37.533  0.0000E+00  0.0000E+00  0.0000E+00  0.0000E+00  0.0000E+00  0.0000E+00  0.0000E+00  0.0000E+00  0.0000E+00  0.0000E+00  0.0000E+00  0.0000E+00  0.0000E+00  0.0000E+00  0.0000E+00  0.0000E+00  0.0000E+00  0.0000E+00
    -37.217  0.0000E+00  0.0000E+00  0.0000E+00  0.0000E+00  0.0000E+00  0.0000E+00  0.0000E+00  0.0000E+00  0.0000E+00  0.0000E+00  0.0000E+00  0.0000E+00  0.0000E+00  0.0000E+00  0.0000E+00  0.0000E+00  0.0000E+00  0.0000E+00
    -36.902  0.0000E+00  0.0000E+00  0.0000E+00  0.0000E+00  0.0000E+00  0.0000E+00  0.0000E+00  0.0000E+00  0.0000E+00  0.0000E+00  0.0000E+00  0.0000E+00  0.0000E+00  0.0000E+00  0.0000E+00  0.0000E+00  0.0000E+00  0.0000E+00