  28  28   1   0
  0.1190808E+02  0.4916293E-09  0.6271415E-09  0.1081426E-08  0.5000000E-15
  1.000000000000000E-004
  CAR 
 unknown system                          
     17.27748478    -55.69991160  301      4.58364976      1.00000000
    -55.700  0.0000E+00  0.0000E+00  0.0000E+00  0.0000E+00
    -55.457  0.0000E+00  0.0000E+00  0.0000E+00  0.0000E+00
    -55.213  0.0000E+00  0.0000E+00  0.0000E+00  0.0000E+00
    -54.970  0.0000E+00  0.0000E+00  0.0000E+00  0.0000E+00
    -54.727  0.0000E+00  0.0000E+00  0.0000E+00  0.0000E+00
    -54.484  0.0000E+00  0.0000E+00  0.0000E+00  0.0000E+00
    -54.240  0.0000E+00  0.0000E+00  0.0000E+00  0.0000E+00
    -53.997  0.0000E+00  0.0000E+00  0.0000E+00  0.0000E+00
    -53.754  0.0000E+00  0.0000E+00  0.0000E+00  0.0000E+00
    -53.511  0.0000E+00  0.0000E+00  0.0000E+00  0.0000E+00
    -53.267  0.0000E+00  0.0000E+00  0.0000E+00  0.0000E+00
    -53.024  0.4386E-04  0.0000E+00  0.1067E-04  0.0000E+00
    -52.781  0.5642E-02  0.0000E+00  0.1383E-02  0.0000E+00
    -52.538  0.7003E+00  0.0000E+00  0.1717E+00  0.0000E+00
    -52.294  0.1333E+02  0.0000E+00  0.3413E+01  0.0000E+00
    -52.051  0.2390E+01  0.0000E+00  0.3995E+01  0.0000E+00
    -51.808  0.0000E+00  0.0000E+00  0.4000E+01  0.0000E+00
    -51.565  0.1979E-02  0.0000E+00  0.4000E+01  0.0000E+00
    -51.321  0.2546E+00  0.0000E+00  0.4062E+01  0.0000E+00
    -51.078  0.1123E+02  0.0000E+00  0.6794E+01  0.0000E+00
    -50.835  0.1798E+02  0.0000E+00  0.1117E+02  0.0000E+00
    -50.591  0.3323E+01  0.0000E+00  0.1199E+02  0.0000E+00
    -50.348  0.0000E+00  0.0000E+00  0.1200E+02  0.0000E+00
    -50.105  0.0000E+00  0.0000E+00  0.1200E+02  0.0000E+00
    -49.862  0.0000E+00  0.0000E+00  0.1200E+02  0.0000E+00
    -49.618  0.0000E+00  0.0000E+00  0.1200E+02  0.0000E+00
    -49.375  0.0000E+00  0.0000E+00  0.1200E+02  0.0000E+00
    -49.132  0.0000E+00  0.0000E+00  0.1200E+02  0.0000E+00
    -48.889  0.0000E+00  0.0000E+00  0.1200E+02  0.0000E+00
    -48.645  0.0000E+00  0.0000E+00  0.1200E+02  0.0000E+00
    -48.402  0.0000E+00  0.0000E+00  0.1200E+02  0.0000E+00
    -48.159  0.0000E+00  0.2168E-02  0.1200E+02  0.5274E-03
    -47.916  0.0000E+00  0.2744E+00  0.1200E+02  0.6728E-01
    -47.672  0.0000E+00  0.1107E+02  0.1200E+02  0.2760E+01
    -47.429  0.0000E+00  0.6385E+01  0.1200E+02  0.4313E+01
    -47.186  0.0000E+00  0.2258E+02  0.1200E+02  0.9820E+01
    -46.943  0.0000E+00  0.8842E+01  0.1200E+02  0.1197E+02
    -46.699  0.0000E+00  0.0000E+00  0.1200E+02  0.1200E+02
    -46.456  0.0000E+00  0.0000E+00  0.1200E+02  0.1200E+02
    -46.213  0.0000E+00  0.0000E+00  0.1200E+02  0.1200E+02
    -45.970  0.0000E+00  0.0000E+00  0.1200E+02  0.1200E+02
    -45.726  0.0000E+00  0.0000E+00  0.1200E+02  0.1200E+02
    -45.483  0.0000E+00  0.0000E+00  0.1200E+02  0.1200E+02
    -45.240  0.0000E+00  0.0000E+00  0.1200E+02  0.1200E+02
    -44.997  0.0000E+00  0.0000E+00  0.1200E+02  0.1200E+02
    -44.753  0.0000E+00  0.0000E+00  0.1200E+02  0.1200E+02
    -44.510  0.0000E+00  0.0000E+00  0.1200E+02  0.1200E+02
    -44.267  0.0000E+00  0.0000E+00  0.1200E+02  0.1200E+02
    -44.024  0.0000E+00  0.0000E+00  0.1200E+02  0.1200E+02
    -43.780  0.0000E+00  0.0000E+00  0.1200E+02  0.1200E+02
    -43.537  0.0000E+00  0.0000E+00  0.1200E+02  0.1200E+02
    -43.294  0.0000E+00  0.0000E+00  0.1200E+02  0.1200E+02
    -43.050  0.0000E+00  0.0000E+00  0.1200E+02  0.1200E+02
    -42.807  0.0000E+00  0.0000E+00  0.1200E+02  0.1200E+02
    -42.564  0.0000E+00  0.0000E+00  0.1200E+02  0.1200E+02
    -42.321  0.0000E+00  0.0000E+00  0.1200E+02  0.1200E+02
    -42.077  0.0000E+00  0.0000E+00  0.1200E+02  0.1200E+02
    -41.834  0.1638E-02  0.1559E-02  0.1200E+02  0.1200E+02
    -41.591  0.2081E+00  0.1982E+00  0.1205E+02  0.1205E+02
    -41.348  0.1008E+02  0.9903E+01  0.1450E+02  0.1446E+02
    -41.104  0.6074E+01  0.6261E+01  0.1598E+02  0.1598E+02
    -40.861  0.0000E+00  0.0000E+00  0.1600E+02  0.1600E+02
    -40.618  0.0000E+00  0.0000E+00  0.1600E+02  0.1600E+02
    -40.375  0.0000E+00  0.0000E+00  0.1600E+02  0.1600E+02
    -40.131  0.0000E+00  0.0000E+00  0.1600E+02  0.1600E+02
    -39.888  0.0000E+00  0.0000E+00  0.1600E+02  0.1600E+02
    -39.645  0.0000E+00  0.0000E+00  0.1600E+02  0.1600E+02
    -39.402  0.0000E+00  0.0000E+00  0.1600E+02  0.1600E+02
    -39.158  0.0000E+00  0.0000E+00  0.1600E+02  0.1600E+02
    -38.915  0.0000E+00  0.0000E+00  0.1600E+02  0.1600E+02
    -38.672  0.0000E+00  0.0000E+00  0.1600E+02  0.1600E+02
    -38.429  0.0000E+00  0.0000E+00  0.1600E+02  0.1600E+02
    -38.185  0.0000E+00  0.0000E+00  0.1600E+02  0.1600E+02
    -37.942  0.0000E+00  0.0000E+00  0.1600E+02  0.1600E+02
    -37.699  0.0000E+00  0.0000E+00  0.1600E+02  0.1600E+02
    -37.456  0.0000E+00  0.0000E+00  0.1600E+02  0.1600E+02
    -37.212  0.0000E+00  0.0000E+00  0.1600E+02  0.1600E+02
    -36.969  0.0000E+00  0.0000E+00  0.1600E+02  0.1600E+02
    -36.726  0.0000E+00  0.0000E+00  0.1600E+02  0.1600E+02
    -36.483  0.0000E+00  0.0000E+00  0.1600E+02  0.1600E+02
    -36.239  0.0000E+00  0.0000E+00  0.1600E+02  0.1600E+02
    -35.996  0.0000E+00  0.0000E+00  0.1600E+02  0.1600E+02
    -35.753  0.0000E+00  0.0000E+00  0.1600E+02  0.1600E+02
    -35.509  0.0000E+00  0.0000E+00  0.1600E+02  0.1600E+02
    -35.266  0.0000E+00  0.0000E+00  0.1600E+02  0.1600E+02
    -35.023  0.0000E+00  0.0000E+00  0.1600E+02  0.1600E+02
    -34.780  0.0000E+00  0.0000E+00  0.1600E+02  0.1600E+02
    -34.536  0.0000E+00  0.0000E+00  0.1600E+02  0.1600E+02
    -34.293  0.0000E+00  0.0000E+00  0.1600E+02  0.1600E+02
    -34.050  0.0000E+00  0.0000E+00  0.1600E+02  0.1600E+02
    -33.807  0.0000E+00  0.0000E+00  0.1600E+02  0.1600E+02
    -33.563  0.0000E+00  0.0000E+00  0.1600E+02  0.1600E+02
    -33.320  0.0000E+00  0.0000E+00  0.1600E+02  0.1600E+02
    -33.077  0.0000E+00  0.0000E+00  0.1600E+02  0.1600E+02
    -32.834  0.0000E+00  0.0000E+00  0.1600E+02  0.1600E+02
    -32.590  0.0000E+00  0.0000E+00  0.1600E+02  0.1600E+02
    -32.347  0.0000E+00  0.0000E+00  0.1600E+02  0.1600E+02
    -32.104  0.0000E+00  0.0000E+00  0.1600E+02  0.1600E+02
    -31.861  0.0000E+00  0.0000E+00  0.1600E+02  0.1600E+02
    -31.617  0.0000E+00  0.0000E+00  0.1600E+02  0.1600E+02
    -31.374  0.0000E+00  0.0000E+00  0.1600E+02  0.1600E+02
    -31.131  0.0000E+00  0.0000E+00  0.1600E+02  0.1600E+02
    -30.888  0.0000E+00  0.0000E+00  0.1600E+02  0.1600E+02
    -30.644  0.0000E+00  0.0000E+00  0.1600E+02  0.1600E+02
    -30.401  0.0000E+00  0.0000E+00  0.1600E+02  0.1600E+02
    -30.158  0.0000E+00  0.0000E+00  0.1600E+02  0.1600E+02
    -29.915  0.0000E+00  0.0000E+00  0.1600E+02  0.1600E+02
    -29.671  0.0000E+00  0.0000E+00  0.1600E+02  0.1600E+02
    -29.428  0.0000E+00  0.0000E+00  0.1600E+02  0.1600E+02
    -29.185  0.0000E+00  0.0000E+00  0.1600E+02  0.1600E+02
    -28.942  0.0000E+00  0.0000E+00  0.1600E+02  0.1600E+02
    -28.698  0.0000E+00  0.0000E+00  0.1600E+02  0.1600E+02
    -28.455  0.0000E+00  0.0000E+00  0.1600E+02  0.1600E+02
    -28.212  0.0000E+00  0.0000E+00  0.1600E+02  0.1600E+02
    -27.969  0.0000E+00  0.0000E+00  0.1600E+02  0.1600E+02
    -27.725  0.0000E+00  0.0000E+00  0.1600E+02  0.1600E+02
    -27.482  0.0000E+00  0.0000E+00  0.1600E+02  0.1600E+02
    -27.239  0.0000E+00  0.0000E+00  0.1600E+02  0.1600E+02
    -26.995  0.0000E+00  0.0000E+00  0.1600E+02  0.1600E+02
    -26.752  0.0000E+00  0.0000E+00  0.1600E+02  0.1600E+02
    -26.509  0.0000E+00  0.0000E+00  0.1600E+02  0.1600E+02
    -26.266  0.0000E+00  0.0000E+00  0.1600E+02  0.1600E+02
    -26.022  0.0000E+00  0.0000E+00  0.1600E+02  0.1600E+02
    -25.779  0.0000E+00  0.0000E+00  0.1600E+02  0.1600E+02
    -25.536  0.0000E+00  0.0000E+00  0.1600E+02  0.1600E+02
    -25.293  0.0000E+00  0.0000E+00  0.1600E+02  0.1600E+02
    -25.049  0.0000E+00  0.0000E+00  0.1600E+02  0.1600E+02
    -24.806  0.0000E+00  0.0000E+00  0.1600E+02  0.1600E+02
    -24.563  0.0000E+00  0.0000E+00  0.1600E+02  0.1600E+02
    -24.320  0.0000E+00  0.0000E+00  0.1600E+02  0.1600E+02
    -24.076  0.0000E+00  0.0000E+00  0.1600E+02  0.1600E+02
    -23.833  0.0000E+00  0.0000E+00  0.1600E+02  0.1600E+02
    -23.590  0.0000E+00  0.0000E+00  0.1600E+02  0.1600E+02
    -23.347  0.0000E+00  0.0000E+00  0.1600E+02  0.1600E+02
    -23.103  0.0000E+00  0.0000E+00  0.1600E+02  0.1600E+02
    -22.860  0.0000E+00  0.0000E+00  0.1600E+02  0.1600E+02
    -22.617  0.0000E+00  0.0000E+00  0.1600E+02  0.1600E+02
    -22.374  0.0000E+00  0.0000E+00  0.1600E+02  0.1600E+02
    -22.130  0.0000E+00  0.0000E+00  0.1600E+02  0.1600E+02
    -21.887  0.0000E+00  0.0000E+00  0.1600E+02  0.1600E+02
    -21.644  0.0000E+00  0.0000E+00  0.1600E+02  0.1600E+02
    -21.401  0.0000E+00  0.0000E+00  0.1600E+02  0.1600E+02
    -21.157  0.0000E+00  0.0000E+00  0.1600E+02  0.1600E+02
    -20.914  0.0000E+00  0.0000E+00  0.1600E+02  0.1600E+02
    -20.671  0.0000E+00  0.0000E+00  0.1600E+02  0.1600E+02
    -20.428  0.0000E+00  0.0000E+00  0.1600E+02  0.1600E+02
    -20.184  0.0000E+00  0.0000E+00  0.1600E+02  0.1600E+02
    -19.941  0.0000E+00  0.0000E+00  0.1600E+02  0.1600E+02
    -19.698  0.0000E+00  0.0000E+00  0.1600E+02  0.1600E+02
    -19.454  0.0000E+00  0.0000E+00  0.1600E+02  0.1600E+02
    -19.211  0.0000E+00  0.0000E+00  0.1600E+02  0.1600E+02
    -18.968  0.0000E+00  0.0000E+00  0.1600E+02  0.1600E+02
    -18.725  0.0000E+00  0.0000E+00  0.1600E+02  0.1600E+02
    -18.481  0.3581E-05  0.0000E+00  0.1600E+02  0.1600E+02
    -18.238  0.1138E-02  0.2057E-03  0.1600E+02  0.1600E+02
    -17.995  0.1413E+00  0.2724E-01  0.1603E+02  0.1601E+02
    -17.752  0.5280E+01  0.2071E+01  0.1732E+02  0.1651E+02
    -17.508  0.1025E+02  0.1146E+02  0.1981E+02  0.1930E+02
    -17.265  0.6236E+00  0.2761E+01  0.2000E+02  0.1999E+02
    -17.022  0.0000E+00  0.0000E+00  0.2000E+02  0.2000E+02
    -16.779  0.0000E+00  0.0000E+00  0.2000E+02  0.2000E+02
    -16.535  0.0000E+00  0.0000E+00  0.2000E+02  0.2000E+02
    -16.292  0.2652E-04  0.0000E+00  0.2000E+02  0.2000E+02
    -16.049  0.5843E-02  0.1059E-02  0.2000E+02  0.2000E+02
    -15.806  0.7157E+00  0.1361E+00  0.2018E+02  0.2003E+02
    -15.562  0.1844E+02  0.7958E+01  0.2466E+02  0.2197E+02
    -15.319  0.2590E+02  0.2943E+02  0.3096E+02  0.2913E+02
    -15.076  0.3914E+01  0.1135E+02  0.3199E+02  0.3194E+02
    -14.833  0.0000E+00  0.0000E+00  0.3200E+02  0.3200E+02
    -14.589  0.0000E+00  0.0000E+00  0.3200E+02  0.3200E+02
    -14.346  0.0000E+00  0.0000E+00  0.3200E+02  0.3200E+02
    -14.103  0.0000E+00  0.0000E+00  0.3200E+02  0.3200E+02
    -13.860  0.0000E+00  0.0000E+00  0.3200E+02  0.3200E+02
    -13.616  0.0000E+00  0.0000E+00  0.3200E+02  0.3200E+02
    -13.373  0.0000E+00  0.0000E+00  0.3200E+02  0.3200E+02
    -13.130  0.0000E+00  0.0000E+00  0.3200E+02  0.3200E+02
    -12.887  0.0000E+00  0.0000E+00  0.3200E+02  0.3200E+02
    -12.643  0.0000E+00  0.0000E+00  0.3200E+02  0.3200E+02
    -12.400  0.0000E+00  0.0000E+00  0.3200E+02  0.3200E+02
    -12.157  0.0000E+00  0.0000E+00  0.3200E+02  0.3200E+02
    -11.913  0.0000E+00  0.0000E+00  0.3200E+02  0.3200E+02
    -11.670  0.0000E+00  0.0000E+00  0.3200E+02  0.3200E+02
    -11.427  0.0000E+00  0.0000E+00  0.3200E+02  0.3200E+02
    -11.184  0.0000E+00  0.0000E+00  0.3200E+02  0.3200E+02
    -10.940  0.0000E+00  0.0000E+00  0.3200E+02  0.3200E+02
    -10.697  0.0000E+00  0.0000E+00  0.3200E+02  0.3200E+02
    -10.454  0.0000E+00  0.0000E+00  0.3200E+02  0.3200E+02
    -10.211  0.0000E+00  0.0000E+00  0.3200E+02  0.3200E+02
     -9.967  0.0000E+00  0.0000E+00  0.3200E+02  0.3200E+02
     -9.724  0.0000E+00  0.0000E+00  0.3200E+02  0.3200E+02
     -9.481  0.0000E+00  0.0000E+00  0.3200E+02  0.3200E+02
     -9.238  0.0000E+00  0.0000E+00  0.3200E+02  0.3200E+02
     -8.994  0.0000E+00  0.0000E+00  0.3200E+02  0.3200E+02
     -8.751  0.0000E+00  0.0000E+00  0.3200E+02  0.3200E+02
     -8.508  0.0000E+00  0.0000E+00  0.3200E+02  0.3200E+02
     -8.265  0.0000E+00  0.0000E+00  0.3200E+02  0.3200E+02
     -8.021  0.0000E+00  0.0000E+00  0.3200E+02  0.3200E+02
     -7.778  0.0000E+00  0.0000E+00  0.3200E+02  0.3200E+02
     -7.535  0.0000E+00  0.0000E+00  0.3200E+02  0.3200E+02
     -7.292  0.0000E+00  0.0000E+00  0.3200E+02  0.3200E+02
     -7.048  0.0000E+00  0.0000E+00  0.3200E+02  0.3200E+02
     -6.805  0.0000E+00  0.0000E+00  0.3200E+02  0.3200E+02
     -6.562  0.3192E-05  0.0000E+00  0.3200E+02  0.3200E+02
     -6.319  0.6888E-03  0.5637E-04  0.3200E+02  0.3200E+02
     -6.075  0.8453E-01  0.7857E-02  0.3202E+02  0.3200E+02
     -5.832  0.2471E+01  0.6408E+00  0.3262E+02  0.3216E+02
     -5.589  0.1021E+02  0.6159E+01  0.3511E+02  0.3366E+02
     -5.346  0.3568E+01  0.9143E+01  0.3599E+02  0.3589E+02
     -5.102  0.0000E+00  0.3020E+00  0.3600E+02  0.3600E+02
     -4.859  0.0000E+00  0.0000E+00  0.3600E+02  0.3600E+02
     -4.616  0.3776E-06  0.0000E+00  0.3600E+02  0.3600E+02
     -4.372  0.1112E-03  0.2684E-05  0.3600E+02  0.3600E+02
     -4.129  0.1413E-01  0.4462E-03  0.3600E+02  0.3600E+02
     -3.886  0.5559E+00  0.5136E-01  0.3614E+02  0.3601E+02
     -3.643  0.2943E+01  0.1004E+01  0.3685E+02  0.3626E+02
     -3.399  0.5836E+01  0.3893E+01  0.3828E+02  0.3720E+02
     -3.156  0.1111E+02  0.7025E+01  0.4099E+02  0.3892E+02
     -2.913  0.1165E+02  0.1232E+02  0.4385E+02  0.4193E+02
     -2.670  0.1280E+02  0.1278E+02  0.4699E+02  0.4506E+02
     -2.426  0.3849E+01  0.1074E+02  0.4795E+02  0.4770E+02
     -2.183  0.1756E+00  0.1027E+01  0.4800E+02  0.4800E+02
     -1.940  0.5085E+00  0.9402E-03  0.4813E+02  0.4800E+02
     -1.697  0.4280E+01  0.1147E+00  0.4917E+02  0.4803E+02
     -1.453  0.7104E+01  0.2797E+01  0.5090E+02  0.4871E+02
     -1.210  0.1035E+02  0.6573E+01  0.5343E+02  0.5031E+02
     -0.967  0.1361E+02  0.8235E+01  0.5676E+02  0.5232E+02
     -0.724  0.9517E+01  0.1237E+02  0.5910E+02  0.5534E+02
     -0.480  0.9256E+01  0.1183E+02  0.6137E+02  0.5825E+02
     -0.237  0.1434E+02  0.1048E+02  0.6488E+02  0.6082E+02
      0.006  0.1174E+02  0.1162E+02  0.6777E+02  0.6367E+02
      0.249  0.8347E+01  0.1103E+02  0.6983E+02  0.6639E+02
      0.493  0.1517E+02  0.8098E+01  0.7353E+02  0.6837E+02
      0.736  0.1352E+02  0.7517E+01  0.7685E+02  0.7023E+02
      0.979  0.1081E+02  0.1615E+02  0.7951E+02  0.7417E+02
      1.222  0.1210E+02  0.1271E+02  0.8248E+02  0.7729E+02
      1.466  0.7799E+01  0.7526E+01  0.8440E+02  0.7915E+02
      1.709  0.1055E+02  0.3281E+01  0.8699E+02  0.7997E+02
      1.952  0.1041E+02  0.5841E-01  0.8953E+02  0.8000E+02
      2.195  0.1095E+02  0.0000E+00  0.9222E+02  0.8000E+02
      2.439  0.1420E+02  0.0000E+00  0.9569E+02  0.8000E+02
      2.682  0.6484E+01  0.0000E+00  0.9732E+02  0.8000E+02
      2.925  0.9756E+01  0.0000E+00  0.9970E+02  0.8000E+02
      3.169  0.1131E+01  0.0000E+00  0.1000E+03  0.8000E+02
      3.412  0.0000E+00  0.0000E+00  0.1000E+03  0.8000E+02
      3.655  0.0000E+00  0.0000E+00  0.1000E+03  0.8000E+02
      3.898  0.0000E+00  0.7973E-03  0.1000E+03  0.8000E+02
      4.142  0.0000E+00  0.1015E+00  0.1000E+03  0.8002E+02
      4.385  0.0000E+00  0.6315E+01  0.1000E+03  0.8156E+02
      4.628  0.0000E+00  0.1109E+02  0.1000E+03  0.8426E+02
      4.871  0.0000E+00  0.1751E+02  0.1000E+03  0.8858E+02
      5.115  0.6728E-07  0.1381E+02  0.1000E+03  0.9195E+02
      5.358  0.1350E-04  0.7106E+01  0.1000E+03  0.9375E+02
      5.601  0.1694E-02  0.6547E+01  0.1000E+03  0.9535E+02
      5.844  0.5762E-01  0.4358E+01  0.1000E+03  0.9642E+02
      6.088  0.1939E+00  0.1008E+02  0.1001E+03  0.9888E+02
      6.331  0.3082E+00  0.4563E+01  0.1001E+03  0.1000E+03
      6.574  0.4074E+00  0.2262E+00  0.1002E+03  0.1001E+03
      6.817  0.5716E+00  0.3583E+00  0.1004E+03  0.1002E+03
      7.061  0.6648E+00  0.4659E+00  0.1005E+03  0.1003E+03
      7.304  0.9198E+00  0.6272E+00  0.1008E+03  0.1004E+03
      7.547  0.1160E+01  0.7841E+00  0.1010E+03  0.1006E+03
      7.790  0.1449E+01  0.9747E+00  0.1014E+03  0.1009E+03
      8.034  0.1434E+01  0.1350E+01  0.1018E+03  0.1012E+03
      8.277  0.1822E+01  0.1608E+01  0.1022E+03  0.1016E+03
      8.520  0.2745E+01  0.1925E+01  0.1029E+03  0.1021E+03
      8.763  0.3875E+01  0.2611E+01  0.1038E+03  0.1027E+03
      9.007  0.4006E+01  0.3501E+01  0.1048E+03  0.1036E+03
      9.250  0.4218E+01  0.3722E+01  0.1058E+03  0.1045E+03
      9.493  0.4939E+01  0.3779E+01  0.1071E+03  0.1054E+03
      9.736  0.5483E+01  0.5691E+01  0.1084E+03  0.1068E+03
      9.980  0.6012E+01  0.5402E+01  0.1099E+03  0.1081E+03
     10.223  0.5786E+01  0.5811E+01  0.1113E+03  0.1095E+03
     10.466  0.6766E+01  0.6699E+01  0.1129E+03  0.1112E+03
     10.710  0.6785E+01  0.6933E+01  0.1146E+03  0.1129E+03
     10.953  0.5466E+01  0.6943E+01  0.1160E+03  0.1146E+03
     11.196  0.5158E+01  0.5693E+01  0.1172E+03  0.1160E+03
     11.439  0.3895E+01  0.4729E+01  0.1182E+03  0.1171E+03
     11.683  0.5136E+01  0.4607E+01  0.1194E+03  0.1183E+03
     11.926  0.6525E+01  0.5898E+01  0.1210E+03  0.1197E+03
     12.169  0.6079E+01  0.4632E+01  0.1225E+03  0.1209E+03
     12.412  0.4997E+01  0.6322E+01  0.1238E+03  0.1224E+03
     12.656  0.4310E+01  0.5022E+01  0.1248E+03  0.1236E+03
     12.899  0.4336E+01  0.4160E+01  0.1259E+03  0.1247E+03
     13.142  0.3378E+01  0.3897E+01  0.1267E+03  0.1256E+03
     13.385  0.2871E+01  0.3244E+01  0.1274E+03  0.1264E+03
     13.629  0.1840E+01  0.3216E+01  0.1279E+03  0.1272E+03
     13.872  0.4636E+00  0.2483E+01  0.1280E+03  0.1278E+03
     14.115  0.2475E-01  0.7141E+00  0.1280E+03  0.1280E+03
     14.358  0.0000E+00  0.1810E-02  0.1280E+03  0.1280E+03
     14.602  0.0000E+00  0.0000E+00  0.1280E+03  0.1280E+03
     14.845  0.0000E+00  0.0000E+00  0.1280E+03  0.1280E+03
     15.088  0.0000E+00  0.0000E+00  0.1280E+03  0.1280E+03
     15.331  0.0000E+00  0.0000E+00  0.1280E+03  0.1280E+03
     15.575  0.0000E+00  0.0000E+00  0.1280E+03  0.1280E+03
     15.818  0.0000E+00  0.0000E+00  0.1280E+03  0.1280E+03
     16.061  0.0000E+00  0.0000E+00  0.1280E+03  0.1280E+03
     16.304  0.0000E+00  0.0000E+00  0.1280E+03  0.1280E+03
     16.548  0.0000E+00  0.0000E+00  0.1280E+03  0.1280E+03
     16.791  0.0000E+00  0.0000E+00  0.1280E+03  0.1280E+03
     17.034  0.0000E+00  0.0000E+00  0.1280E+03  0.1280E+03
     17.277  0.0000E+00  0.0000E+00  0.1280E+03  0.1280E+03
     17.27748478    -55.69991160  301      4.58364976      1.00000000
    -55.700  0.0000E+00  0.0000E+00  0.0000E+00  0.0000E+00  0.0000E+00  0.0000E+00  0.0000E+00  0.0000E+00  0.0000E+00  0.0000E+00  0.0000E+00  0.0000E+00  0.0000E+00  0.0000E+00  0.0000E+00  0.0000E+00  0.0000E+00  0.0000E+00
    -55.457  0.0000E+00  0.0000E+00  0.0000E+00  0.0000E+00  0.0000E+00  0.0000E+00  0.0000E+00  0.0000E+00  0.0000E+00  0.0000E+00  0.0000E+00  0.0000E+00  0.0000E+00  0.0000E+00  0.0000E+00  0.0000E+00  0.0000E+00  0.0000E+00
    -55.213  0.0000E+00  0.0000E+00  0.0000E+00  0.0000E+00  0.0000E+00  0.0000E+00  0.0000E+00  0.0000E+00  0.0000E+00  0.0000E+00  0.0000E+00  0.0000E+00  0.0000E+00  0.0000E+00  0.0000E+00  0.0000E+00  0.0000E+00  0.0000E+00
    -54.970  0.0000E+00  0.0000E+00  0.0000E+00  0.0000E+00  0.0000E+00  0.0000E+00  0.0000E+00  0.0000E+00  0.0000E+00  0.0000E+00  0.0000E+00  0.0000E+00  0.0000E+00  0.0000E+00  0.0000E+00  0.0000E+00  0.0000E+00  0.0000E+00
    -54.727  0.0000E+00  0.0000E+00  0.0000E+00  0.0000E+00  0.0000E+00  0.0000E+00  0.0000E+00  0.0000E+00  0.0000E+00  0.0000E+00  0.0000E+00  0.0000E+00  0.0000E+00  0.0000E+00  0.0000E+00  0.0000E+00  0.0000E+00  0.0000E+00
    -54.484  0.0000E+00  0.0000E+00  0.0000E+00  0.0000E+00  0.0000E+00  0.0000E+00  0.0000E+00  0.0000E+00  0.0000E+00  0.0000E+00  0.0000E+00  0.0000E+00  0.0000E+00  0.0000E+00  0.0000E+00  0.0000E+00  0.0000E+00  0.0000E+00
    -54.240  0.0000E+00  0.0000E+00  0.0000E+00  0.0000E+00  0.0000E+00  0.0000E+00  0.0000E+00  0.0000E+00  0.0000E+00  0.0000E+00  0.0000E+00  0.0000E+00  0.0000E+00  0.0000E+00  0.0000E+00  0.0000E+00  0.0000E+00  0.0000E+00
    -53.997  0.0000E+00  0.0000E+00  0.0000E+00  0.0000E+00  0.0000E+00  0.0000E+00  0.0000E+00  0.0000E+00  0.0000E+00  0.0000E+00  0.0000E+00  0.0000E+00  0.0000E+00  0.0000E+00  0.0000E+00  0.0000E+00  0.0000E+00  0.0000E+00
    -53.754  0.0000E+00  0.0000E+00  0.0000E+00  0.0000E+00  0.0000E+00  0.0000E+00  0.0000E+00  0.0000E+00  0.0000E+00  0.0000E+00  0.0000E+00  0.0000E+00  0.0000E+00  0.0000E+00  0.0000E+00  0.0000E+00  0.0000E+00  0.0000E+00
    -53.511  0.0000E+00  0.0000E+00  0.0000E+00  0.0000E+00  0.0000E+00  0.0000E+00  0.0000E+00  0.0000E+00  0.0000E+00  0.0000E+00  0.0000E+00  0.0000E+00  0.0000E+00  0.0000E+00  0.0000E+00  0.0000E+00  0.0000E+00  0.0000E+00
    -53.267  0.0000E+00  0.0000E+00  0.0000E+00  0.0000E+00  0.0000E+00  0.0000E+00  0.0000E+00  0.0000E+00  0.0000E+00  0.0000E+00  0.0000E+00  0.0000E+00  0.0000E+00  0.0000E+00  0.0000E+00  0.0000E+00  0.0000E+00  0.0000E+00
    -53.024  0.1777E-13  0.0000E+00  0.1113E-13  0.0000E+00  0.4326E-14  0.0000E+00  0.3962E-14  0.0000E+00  0.0000E+00  0.0000E+00  0.0000E+00  0.0000E+00  0.0000E+00  0.0000E+00  0.0000E+00  0.0000E+00  0.0000E+00  0.0000E+00
    -52.781  0.2286E-11  0.0000E+00  0.1432E-11  0.0000E+00  0.5565E-12  0.0000E+00  0.5097E-12  0.0000E+00  0.0000E+00  0.0000E+00  0.0000E+00  0.0000E+00  0.0000E+00  0.0000E+00  0.0000E+00  0.0000E+00  0.0000E+00  0.0000E+00
    -52.538  0.2837E-09  0.0000E+00  0.1777E-09  0.0000E+00  0.6908E-10  0.0000E+00  0.6327E-10  0.0000E+00  0.0000E+00  0.0000E+00  0.0000E+00  0.0000E+00  0.0000E+00  0.0000E+00  0.0000E+00  0.0000E+00  0.0000E+00  0.0000E+00
    -52.294  0.5392E-08  0.0000E+00  0.3382E-08  0.0000E+00  0.1315E-08  0.0000E+00  0.1204E-08  0.0000E+00  0.0000E+00  0.0000E+00  0.0000E+00  0.0000E+00  0.0000E+00  0.0000E+00  0.0000E+00  0.0000E+00  0.0000E+00  0.0000E+00
    -52.051  0.9656E-09  0.0000E+00  0.6068E-09  0.0000E+00  0.2358E-09  0.0000E+00  0.2159E-09  0.0000E+00  0.0000E+00  0.0000E+00  0.0000E+00  0.0000E+00  0.0000E+00  0.0000E+00  0.0000E+00  0.0000E+00  0.0000E+00  0.0000E+00
    -51.808  0.0000E+00  0.0000E+00  0.0000E+00  0.0000E+00  0.0000E+00  0.0000E+00  0.0000E+00  0.0000E+00  0.0000E+00  0.0000E+00  0.0000E+00  0.0000E+00  0.0000E+00  0.0000E+00  0.0000E+00  0.0000E+00  0.0000E+00  0.0000E+00
    -51.565  0.3156E-11  0.0000E+00  0.2394E-12  0.0000E+00  0.3930E-12  0.0000E+00  0.3192E-12  0.0000E+00  0.0000E+00  0.0000E+00  0.0000E+00  0.0000E+00  0.0000E+00  0.0000E+00  0.0000E+00  0.0000E+00  0.0000E+00  0.0000E+00
    -51.321  0.4012E-09  0.0000E+00  0.3071E-10  0.0000E+00  0.5034E-10  0.0000E+00  0.4112E-10  0.0000E+00  0.0000E+00  0.0000E+00  0.0000E+00  0.0000E+00  0.0000E+00  0.0000E+00  0.0000E+00  0.0000E+00  0.0000E+00  0.0000E+00
    -51.078  0.1731E-07  0.0000E+00  0.1348E-08  0.0000E+00  0.2204E-08  0.0000E+00  0.1818E-08  0.0000E+00  0.0000E+00  0.0000E+00  0.0000E+00  0.0000E+00  0.0000E+00  0.0000E+00  0.0000E+00  0.0000E+00  0.0000E+00  0.0000E+00
    -50.835  0.1303E-07  0.0000E+00  0.1900E-08  0.0000E+00  0.2865E-08  0.0000E+00  0.3079E-08  0.0000E+00  0.0000E+00  0.0000E+00  0.0000E+00  0.0000E+00  0.0000E+00  0.0000E+00  0.0000E+00  0.0000E+00  0.0000E+00  0.0000E+00
    -50.591  0.1177E-08  0.0000E+00  0.3296E-09  0.0000E+00  0.4742E-09  0.0000E+00  0.5834E-09  0.0000E+00  0.0000E+00  0.0000E+00  0.0000E+00  0.0000E+00  0.0000E+00  0.0000E+00  0.0000E+00  0.0000E+00  0.0000E+00  0.0000E+00
    -50.348  0.0000E+00  0.0000E+00  0.0000E+00  0.0000E+00  0.0000E+00  0.0000E+00  0.0000E+00  0.0000E+00  0.0000E+00  0.0000E+00  0.0000E+00  0.0000E+00  0.0000E+00  0.0000E+00  0.0000E+00  0.0000E+00  0.0000E+00  0.0000E+00
    -50.105  0.0000E+00  0.0000E+00  0.0000E+00  0.0000E+00  0.0000E+00  0.0000E+00  0.0000E+00  0.0000E+00  0.0000E+00  0.0000E+00  0.0000E+00  0.0000E+00  0.0000E+00  0.0000E+00  0.0000E+00  0.0000E+00  0.0000E+00  0.0000E+00
    -49.862  0.0000E+00  0.0000E+00  0.0000E+00  0.0000E+00  0.0000E+00  0.0000E+00  0.0000E+00  0.0000E+00  0.0000E+00  0.0000E+00  0.0000E+00  0.0000E+00  0.0000E+00  0.0000E+00  0.0000E+00  0.0000E+00  0.0000E+00  0.0000E+00
    -49.618  0.0000E+00  0.0000E+00  0.0000E+00  0.0000E+00  0.0000E+00  0.0000E+00  0.0000E+00  0.0000E+00  0.0000E+00  0.0000E+00  0.0000E+00  0.0000E+00  0.0000E+00  0.0000E+00  0.0000E+00  0.0000E+00  0.0000E+00  0.0000E+00
    -49.375  0.0000E+00  0.0000E+00  0.0000E+00  0.0000E+00  0.0000E+00  0.0000E+00  0.0000E+00  0.0000E+00  0.0000E+00  0.0000E+00  0.0000E+00  0.0000E+00  0.0000E+00  0.0000E+00  0.0000E+00  0.0000E+00  0.0000E+00  0.0000E+00
    -49.132  0.0000E+00  0.0000E+00  0.0000E+00  0.0000E+00  0.0000E+00  0.0000E+00  0.0000E+00  0.0000E+00  0.0000E+00  0.0000E+00  0.0000E+00  0.0000E+00  0.0000E+00  0.0000E+00  0.0000E+00  0.0000E+00  0.0000E+00  0.0000E+00
    -48.889  0.0000E+00  0.0000E+00  0.0000E+00  0.0000E+00  0.0000E+00  0.0000E+00  0.0000E+00  0.0000E+00  0.0000E+00  0.0000E+00  0.0000E+00  0.0000E+00  0.0000E+00  0.0000E+00  0.0000E+00  0.0000E+00  0.0000E+00  0.0000E+00
    -48.645  0.0000E+00  0.0000E+00  0.0000E+00  0.0000E+00  0.0000E+00  0.0000E+00  0.0000E+00  0.0000E+00  0.0000E+00  0.0000E+00  0.0000E+00  0.0000E+00  0.0000E+00  0.0000E+00  0.0000E+00  0.0000E+00  0.0000E+00  0.0000E+00
    -48.402  0.0000E+00  0.0000E+00  0.0000E+00  0.0000E+00  0.0000E+00  0.0000E+00  0.0000E+00  0.0000E+00  0.0000E+00  0.0000E+00  0.0000E+00  0.0000E+00  0.0000E+00  0.0000E+00  0.0000E+00  0.0000E+00  0.0000E+00  0.0000E+00
    -48.159  0.0000E+00  0.3835E-11  0.0000E+00  0.6248E-12  0.0000E+00  0.3044E-12  0.0000E+00  0.2288E-12  0.0000E+00  0.0000E+00  0.0000E+00  0.0000E+00  0.0000E+00  0.0000E+00  0.0000E+00  0.0000E+00  0.0000E+00  0.0000E+00
    -47.916  0.0000E+00  0.4857E-09  0.0000E+00  0.7907E-10  0.0000E+00  0.3852E-10  0.0000E+00  0.2896E-10  0.0000E+00  0.0000E+00  0.0000E+00  0.0000E+00  0.0000E+00  0.0000E+00  0.0000E+00  0.0000E+00  0.0000E+00  0.0000E+00
    -47.672  0.0000E+00  0.1958E-07  0.0000E+00  0.3188E-08  0.0000E+00  0.1552E-08  0.0000E+00  0.1169E-08  0.0000E+00  0.0000E+00  0.0000E+00  0.0000E+00  0.0000E+00  0.0000E+00  0.0000E+00  0.0000E+00  0.0000E+00  0.0000E+00
    -47.429  0.0000E+00  0.1596E-07  0.0000E+00  0.1581E-08  0.0000E+00  0.9051E-09  0.0000E+00  0.7152E-09  0.0000E+00  0.0000E+00  0.0000E+00  0.0000E+00  0.0000E+00  0.0000E+00  0.0000E+00  0.0000E+00  0.0000E+00  0.0000E+00
    -47.186  0.0000E+00  0.1016E-06  0.0000E+00  0.2458E-08  0.0000E+00  0.4477E-08  0.0000E+00  0.4705E-08  0.0000E+00  0.0000E+00  0.0000E+00  0.0000E+00  0.0000E+00  0.0000E+00  0.0000E+00  0.0000E+00  0.0000E+00  0.0000E+00
    -46.943  0.0000E+00  0.2839E-07  0.0000E+00  0.1183E-08  0.0000E+00  0.2458E-08  0.0000E+00  0.2860E-08  0.0000E+00  0.0000E+00  0.0000E+00  0.0000E+00  0.0000E+00  0.0000E+00  0.0000E+00  0.0000E+00  0.0000E+00  0.0000E+00
    -46.699  0.0000E+00  0.0000E+00  0.0000E+00  0.0000E+00  0.0000E+00  0.0000E+00  0.0000E+00  0.0000E+00  0.0000E+00  0.0000E+00  0.0000E+00  0.0000E+00  0.0000E+00  0.0000E+00  0.0000E+00  0.0000E+00  0.0000E+00  0.0000E+00
    -46.456  0.0000E+00  0.0000E+00  0.0000E+00  0.0000E+00  0.0000E+00  0.0000E+00  0.0000E+00  0.0000E+00  0.0000E+00  0.0000E+00  0.0000E+00  0.0000E+00  0.0000E+00  0.0000E+00  0.0000E+00  0.0000E+00  0.0000E+00  0.0000E+00
    -46.213  0.0000E+00  0.0000E+00  0.0000E+00  0.0000E+00  0.0000E+00  0.0000E+00  0.0000E+00  0.0000E+00  0.0000E+00  0.0000E+00  0.0000E+00  0.0000E+00  0.0000E+00  0.0000E+00  0.0000E+00  0.0000E+00  0.0000E+00  0.0000E+00
    -45.970  0.0000E+00  0.0000E+00  0.0000E+00  0.0000E+00  0.0000E+00  0.0000E+00  0.0000E+00  0.0000E+00  0.0000E+00  0.0000E+00  0.0000E+00  0.0000E+00  0.0000E+00  0.0000E+00  0.0000E+00  0.0000E+00  0.0000E+00  0.0000E+00
    -45.726  0.0000E+00  0.0000E+00  0.0000E+00  0.0000E+00  0.0000E+00  0.0000E+00  0.0000E+00  0.0000E+00  0.0000E+00  0.0000E+00  0.0000E+00  0.0000E+00  0.0000E+00  0.0000E+00  0.0000E+00  0.0000E+00  0.0000E+00  0.0000E+00
    -45.483  0.0000E+00  0.0000E+00  0.0000E+00  0.0000E+00  0.0000E+00  0.0000E+00  0.0000E+00  0.0000E+00  0.0000E+00  0.0000E+00  0.0000E+00  0.0000E+00  0.0000E+00  0.0000E+00  0.0000E+00  0.0000E+00  0.0000E+00  0.0000E+00
    -45.240  0.0000E+00  0.0000E+00  0.0000E+00  0.0000E+00  0.0000E+00  0.0000E+00  0.0000E+00  0.0000E+00  0.0000E+00  0.0000E+00  0.0000E+00  0.0000E+00  0.0000E+00  0.0000E+00  0.0000E+00  0.0000E+00  0.0000E+00  0.0000E+00
    -44.997  0.0000E+00  0.0000E+00  0.0000E+00  0.0000E+00  0.0000E+00  0.0000E+00  0.0000E+00  0.0000E+00  0.0000E+00  0.0000E+00  0.0000E+00  0.0000E+00  0.0000E+00  0.0000E+00  0.0000E+00  0.0000E+00  0.0000E+00  0.0000E+00
    -44.753  0.0000E+00  0.0000E+00  0.0000E+00  0.0000E+00  0.0000E+00  0.0000E+00  0.0000E+00  0.0000E+00  0.0000E+00  0.0000E+00  0.0000E+00  0.0000E+00  0.0000E+00  0.0000E+00  0.0000E+00  0.0000E+00  0.0000E+00  0.0000E+00
    -44.510  0.0000E+00  0.0000E+00  0.0000E+00  0.0000E+00  0.0000E+00  0.0000E+00  0.0000E+00  0.0000E+00  0.0000E+00  0.0000E+00  0.0000E+00  0.0000E+00  0.0000E+00  0.0000E+00  0.0000E+00  0.0000E+00  0.0000E+00  0.0000E+00
    -44.267  0.0000E+00  0.0000E+00  0.0000E+00  0.0000E+00  0.0000E+00  0.0000E+00  0.0000E+00  0.0000E+00  0.0000E+00  0.0000E+00  0.0000E+00  0.0000E+00  0.0000E+00  0.0000E+00  0.0000E+00  0.0000E+00  0.0000E+00  0.0000E+00
    -44.024  0.0000E+00  0.0000E+00  0.0000E+00  0.0000E+00  0.0000E+00  0.0000E+00  0.0000E+00  0.0000E+00  0.0000E+00  0.0000E+00  0.0000E+00  0.0000E+00  0.0000E+00  0.0000E+00  0.0000E+00  0.0000E+00  0.0000E+00  0.0000E+00
    -43.780  0.0000E+00  0.0000E+00  0.0000E+00  0.0000E+00  0.0000E+00  0.0000E+00  0.0000E+00  0.0000E+00  0.0000E+00  0.0000E+00  0.0000E+00  0.0000E+00  0.0000E+00  0.0000E+00  0.0000E+00  0.0000E+00  0.0000E+00  0.0000E+00
    -43.537  0.0000E+00  0.0000E+00  0.0000E+00  0.0000E+00  0.0000E+00  0.0000E+00  0.0000E+00  0.0000E+00  0.0000E+00  0.0000E+00  0.0000E+00  0.0000E+00  0.0000E+00  0.0000E+00  0.0000E+00  0.0000E+00  0.0000E+00  0.0000E+00