  28  28   1   0
  0.1333562E+02  0.5105381E-09  0.6512623E-09  0.1123019E-08  0.5000000E-15
  1.000000000000000E-004
  CAR 
 unknown system                          
     15.76207416    -56.76643557  301      3.41544909      1.00000000
    -56.766  0.0000E+00  0.0000E+00  0.0000E+00  0.0000E+00
    -56.525  0.0000E+00  0.0000E+00  0.0000E+00  0.0000E+00
    -56.283  0.0000E+00  0.0000E+00  0.0000E+00  0.0000E+00
    -56.041  0.0000E+00  0.0000E+00  0.0000E+00  0.0000E+00
    -55.799  0.0000E+00  0.0000E+00  0.0000E+00  0.0000E+00
    -55.558  0.0000E+00  0.0000E+00  0.0000E+00  0.0000E+00
    -55.316  0.0000E+00  0.0000E+00  0.0000E+00  0.0000E+00
    -55.074  0.0000E+00  0.0000E+00  0.0000E+00  0.0000E+00
    -54.832  0.0000E+00  0.0000E+00  0.0000E+00  0.0000E+00
    -54.591  0.0000E+00  0.0000E+00  0.0000E+00  0.0000E+00
    -54.349  0.0000E+00  0.0000E+00  0.0000E+00  0.0000E+00
    -54.107  0.4795E-04  0.0000E+00  0.1159E-04  0.0000E+00
    -53.865  0.5985E-02  0.0000E+00  0.1458E-02  0.0000E+00
    -53.624  0.7202E+00  0.0000E+00  0.1756E+00  0.0000E+00
    -53.382  0.1338E+02  0.0000E+00  0.3410E+01  0.0000E+00
    -53.140  0.2418E+01  0.0000E+00  0.3995E+01  0.0000E+00
    -52.898  0.3378E-02  0.0000E+00  0.4001E+01  0.0000E+00
    -52.656  0.4113E+00  0.0000E+00  0.4100E+01  0.0000E+00
    -52.415  0.1223E+02  0.0000E+00  0.7057E+01  0.0000E+00
    -52.173  0.4640E+01  0.0000E+00  0.8179E+01  0.0000E+00
    -51.931  0.1348E+02  0.0000E+00  0.1145E+02  0.0000E+00
    -51.689  0.2267E+01  0.0000E+00  0.1199E+02  0.0000E+00
    -51.448  0.0000E+00  0.0000E+00  0.1200E+02  0.0000E+00
    -51.206  0.0000E+00  0.0000E+00  0.1200E+02  0.0000E+00
    -50.964  0.0000E+00  0.0000E+00  0.1200E+02  0.0000E+00
    -50.722  0.0000E+00  0.0000E+00  0.1200E+02  0.0000E+00
    -50.481  0.0000E+00  0.0000E+00  0.1200E+02  0.0000E+00
    -50.239  0.0000E+00  0.0000E+00  0.1200E+02  0.0000E+00
    -49.997  0.0000E+00  0.0000E+00  0.1200E+02  0.0000E+00
    -49.755  0.0000E+00  0.0000E+00  0.1200E+02  0.0000E+00
    -49.514  0.0000E+00  0.0000E+00  0.1200E+02  0.0000E+00
    -49.272  0.0000E+00  0.4688E-02  0.1200E+02  0.1133E-02
    -49.030  0.0000E+00  0.5660E+00  0.1200E+02  0.1380E+00
    -48.788  0.0000E+00  0.1307E+02  0.1200E+02  0.3299E+01
    -48.547  0.0000E+00  0.1081E+02  0.1200E+02  0.5913E+01
    -48.305  0.0000E+00  0.2081E+02  0.1200E+02  0.1095E+02
    -48.063  0.0000E+00  0.4140E+01  0.1200E+02  0.1199E+02
    -47.821  0.0000E+00  0.0000E+00  0.1200E+02  0.1200E+02
    -47.579  0.0000E+00  0.0000E+00  0.1200E+02  0.1200E+02
    -47.338  0.0000E+00  0.0000E+00  0.1200E+02  0.1200E+02
    -47.096  0.0000E+00  0.0000E+00  0.1200E+02  0.1200E+02
    -46.854  0.0000E+00  0.0000E+00  0.1200E+02  0.1200E+02
    -46.612  0.0000E+00  0.0000E+00  0.1200E+02  0.1200E+02
    -46.371  0.0000E+00  0.0000E+00  0.1200E+02  0.1200E+02
    -46.129  0.0000E+00  0.0000E+00  0.1200E+02  0.1200E+02
    -45.887  0.0000E+00  0.0000E+00  0.1200E+02  0.1200E+02
    -45.645  0.0000E+00  0.0000E+00  0.1200E+02  0.1200E+02
    -45.404  0.0000E+00  0.0000E+00  0.1200E+02  0.1200E+02
    -45.162  0.0000E+00  0.0000E+00  0.1200E+02  0.1200E+02
    -44.920  0.0000E+00  0.0000E+00  0.1200E+02  0.1200E+02
    -44.678  0.0000E+00  0.0000E+00  0.1200E+02  0.1200E+02
    -44.437  0.0000E+00  0.0000E+00  0.1200E+02  0.1200E+02
    -44.195  0.0000E+00  0.0000E+00  0.1200E+02  0.1200E+02
    -43.953  0.0000E+00  0.0000E+00  0.1200E+02  0.1200E+02
    -43.711  0.0000E+00  0.0000E+00  0.1200E+02  0.1200E+02
    -43.470  0.0000E+00  0.0000E+00  0.1200E+02  0.1200E+02
    -43.228  0.0000E+00  0.0000E+00  0.1200E+02  0.1200E+02
    -42.986  0.3365E-03  0.3341E-03  0.1200E+02  0.1200E+02
    -42.744  0.4191E-01  0.4161E-01  0.1201E+02  0.1201E+02
    -42.502  0.3989E+01  0.3968E+01  0.1297E+02  0.1297E+02
    -42.261  0.1212E+02  0.1213E+02  0.1590E+02  0.1590E+02
    -42.019  0.0000E+00  0.0000E+00  0.1600E+02  0.1600E+02
    -41.777  0.0000E+00  0.0000E+00  0.1600E+02  0.1600E+02
    -41.535  0.0000E+00  0.0000E+00  0.1600E+02  0.1600E+02
    -41.294  0.0000E+00  0.0000E+00  0.1600E+02  0.1600E+02
    -41.052  0.0000E+00  0.0000E+00  0.1600E+02  0.1600E+02
    -40.810  0.0000E+00  0.0000E+00  0.1600E+02  0.1600E+02
    -40.568  0.0000E+00  0.0000E+00  0.1600E+02  0.1600E+02
    -40.327  0.0000E+00  0.0000E+00  0.1600E+02  0.1600E+02
    -40.085  0.0000E+00  0.0000E+00  0.1600E+02  0.1600E+02
    -39.843  0.0000E+00  0.0000E+00  0.1600E+02  0.1600E+02
    -39.601  0.0000E+00  0.0000E+00  0.1600E+02  0.1600E+02
    -39.360  0.0000E+00  0.0000E+00  0.1600E+02  0.1600E+02
    -39.118  0.0000E+00  0.0000E+00  0.1600E+02  0.1600E+02
    -38.876  0.0000E+00  0.0000E+00  0.1600E+02  0.1600E+02
    -38.634  0.0000E+00  0.0000E+00  0.1600E+02  0.1600E+02
    -38.393  0.0000E+00  0.0000E+00  0.1600E+02  0.1600E+02
    -38.151  0.0000E+00  0.0000E+00  0.1600E+02  0.1600E+02
    -37.909  0.0000E+00  0.0000E+00  0.1600E+02  0.1600E+02
    -37.667  0.0000E+00  0.0000E+00  0.1600E+02  0.1600E+02
    -37.425  0.0000E+00  0.0000E+00  0.1600E+02  0.1600E+02
    -37.184  0.0000E+00  0.0000E+00  0.1600E+02  0.1600E+02
    -36.942  0.0000E+00  0.0000E+00  0.1600E+02  0.1600E+02
    -36.700  0.0000E+00  0.0000E+00  0.1600E+02  0.1600E+02
    -36.458  0.0000E+00  0.0000E+00  0.1600E+02  0.1600E+02
    -36.217  0.0000E+00  0.0000E+00  0.1600E+02  0.1600E+02
    -35.975  0.0000E+00  0.0000E+00  0.1600E+02  0.1600E+02
    -35.733  0.0000E+00  0.0000E+00  0.1600E+02  0.1600E+02
    -35.491  0.0000E+00  0.0000E+00  0.1600E+02  0.1600E+02
    -35.250  0.0000E+00  0.0000E+00  0.1600E+02  0.1600E+02
    -35.008  0.0000E+00  0.0000E+00  0.1600E+02  0.1600E+02
    -34.766  0.0000E+00  0.0000E+00  0.1600E+02  0.1600E+02
    -34.524  0.0000E+00  0.0000E+00  0.1600E+02  0.1600E+02
    -34.283  0.0000E+00  0.0000E+00  0.1600E+02  0.1600E+02
    -34.041  0.0000E+00  0.0000E+00  0.1600E+02  0.1600E+02
    -33.799  0.0000E+00  0.0000E+00  0.1600E+02  0.1600E+02
    -33.557  0.0000E+00  0.0000E+00  0.1600E+02  0.1600E+02
    -33.316  0.0000E+00  0.0000E+00  0.1600E+02  0.1600E+02
    -33.074  0.0000E+00  0.0000E+00  0.1600E+02  0.1600E+02
    -32.832  0.0000E+00  0.0000E+00  0.1600E+02  0.1600E+02
    -32.590  0.0000E+00  0.0000E+00  0.1600E+02  0.1600E+02
    -32.349  0.0000E+00  0.0000E+00  0.1600E+02  0.1600E+02
    -32.107  0.0000E+00  0.0000E+00  0.1600E+02  0.1600E+02
    -31.865  0.0000E+00  0.0000E+00  0.1600E+02  0.1600E+02
    -31.623  0.0000E+00  0.0000E+00  0.1600E+02  0.1600E+02
    -31.381  0.0000E+00  0.0000E+00  0.1600E+02  0.1600E+02
    -31.140  0.0000E+00  0.0000E+00  0.1600E+02  0.1600E+02
    -30.898  0.0000E+00  0.0000E+00  0.1600E+02  0.1600E+02
    -30.656  0.0000E+00  0.0000E+00  0.1600E+02  0.1600E+02
    -30.414  0.0000E+00  0.0000E+00  0.1600E+02  0.1600E+02
    -30.173  0.0000E+00  0.0000E+00  0.1600E+02  0.1600E+02
    -29.931  0.0000E+00  0.0000E+00  0.1600E+02  0.1600E+02
    -29.689  0.0000E+00  0.0000E+00  0.1600E+02  0.1600E+02
    -29.447  0.0000E+00  0.0000E+00  0.1600E+02  0.1600E+02
    -29.206  0.0000E+00  0.0000E+00  0.1600E+02  0.1600E+02
    -28.964  0.0000E+00  0.0000E+00  0.1600E+02  0.1600E+02
    -28.722  0.0000E+00  0.0000E+00  0.1600E+02  0.1600E+02
    -28.480  0.0000E+00  0.0000E+00  0.1600E+02  0.1600E+02
    -28.239  0.0000E+00  0.0000E+00  0.1600E+02  0.1600E+02
    -27.997  0.0000E+00  0.0000E+00  0.1600E+02  0.1600E+02
    -27.755  0.0000E+00  0.0000E+00  0.1600E+02  0.1600E+02
    -27.513  0.0000E+00  0.0000E+00  0.1600E+02  0.1600E+02
    -27.272  0.0000E+00  0.0000E+00  0.1600E+02  0.1600E+02
    -27.030  0.0000E+00  0.0000E+00  0.1600E+02  0.1600E+02
    -26.788  0.0000E+00  0.0000E+00  0.1600E+02  0.1600E+02
    -26.546  0.0000E+00  0.0000E+00  0.1600E+02  0.1600E+02
    -26.304  0.0000E+00  0.0000E+00  0.1600E+02  0.1600E+02
    -26.063  0.0000E+00  0.0000E+00  0.1600E+02  0.1600E+02
    -25.821  0.0000E+00  0.0000E+00  0.1600E+02  0.1600E+02
    -25.579  0.0000E+00  0.0000E+00  0.1600E+02  0.1600E+02
    -25.337  0.0000E+00  0.0000E+00  0.1600E+02  0.1600E+02
    -25.096  0.0000E+00  0.0000E+00  0.1600E+02  0.1600E+02
    -24.854  0.0000E+00  0.0000E+00  0.1600E+02  0.1600E+02
    -24.612  0.0000E+00  0.0000E+00  0.1600E+02  0.1600E+02
    -24.370  0.0000E+00  0.0000E+00  0.1600E+02  0.1600E+02
    -24.129  0.0000E+00  0.0000E+00  0.1600E+02  0.1600E+02
    -23.887  0.0000E+00  0.0000E+00  0.1600E+02  0.1600E+02
    -23.645  0.0000E+00  0.0000E+00  0.1600E+02  0.1600E+02
    -23.403  0.0000E+00  0.0000E+00  0.1600E+02  0.1600E+02
    -23.162  0.0000E+00  0.0000E+00  0.1600E+02  0.1600E+02
    -22.920  0.0000E+00  0.0000E+00  0.1600E+02  0.1600E+02
    -22.678  0.0000E+00  0.0000E+00  0.1600E+02  0.1600E+02
    -22.436  0.0000E+00  0.0000E+00  0.1600E+02  0.1600E+02
    -22.195  0.0000E+00  0.0000E+00  0.1600E+02  0.1600E+02
    -21.953  0.0000E+00  0.0000E+00  0.1600E+02  0.1600E+02
    -21.711  0.0000E+00  0.0000E+00  0.1600E+02  0.1600E+02
    -21.469  0.0000E+00  0.0000E+00  0.1600E+02  0.1600E+02
    -21.227  0.0000E+00  0.0000E+00  0.1600E+02  0.1600E+02
    -20.986  0.0000E+00  0.0000E+00  0.1600E+02  0.1600E+02
    -20.744  0.0000E+00  0.0000E+00  0.1600E+02  0.1600E+02
    -20.502  0.0000E+00  0.0000E+00  0.1600E+02  0.1600E+02
    -20.260  0.0000E+00  0.0000E+00  0.1600E+02  0.1600E+02
    -20.019  0.0000E+00  0.0000E+00  0.1600E+02  0.1600E+02
    -19.777  0.0000E+00  0.0000E+00  0.1600E+02  0.1600E+02
    -19.535  0.0000E+00  0.0000E+00  0.1600E+02  0.1600E+02
    -19.293  0.0000E+00  0.0000E+00  0.1600E+02  0.1600E+02
    -19.052  0.0000E+00  0.0000E+00  0.1600E+02  0.1600E+02
    -18.810  0.0000E+00  0.0000E+00  0.1600E+02  0.1600E+02
    -18.568  0.1642E-05  0.0000E+00  0.1600E+02  0.1600E+02
    -18.326  0.9495E-03  0.1806E-03  0.1600E+02  0.1600E+02
    -18.085  0.1160E+00  0.2343E-01  0.1603E+02  0.1601E+02
    -17.843  0.5480E+01  0.2022E+01  0.1735E+02  0.1649E+02
    -17.601  0.1041E+02  0.1230E+02  0.1987E+02  0.1947E+02
    -17.359  0.3722E+00  0.2080E+01  0.2000E+02  0.1999E+02
    -17.118  0.0000E+00  0.0000E+00  0.2000E+02  0.2000E+02
    -16.876  0.0000E+00  0.0000E+00  0.2000E+02  0.2000E+02
    -16.634  0.7047E-04  0.0000E+00  0.2000E+02  0.2000E+02
    -16.392  0.1189E-01  0.2107E-02  0.2000E+02  0.2000E+02
    -16.150  0.1379E+01  0.2603E+00  0.2034E+02  0.2006E+02
    -15.909  0.2588E+02  0.1260E+02  0.2659E+02  0.2311E+02
    -15.667  0.2130E+02  0.3209E+02  0.3175E+02  0.3087E+02
    -15.425  0.7740E+00  0.4186E+01  0.3200E+02  0.3199E+02
    -15.183  0.0000E+00  0.0000E+00  0.3200E+02  0.3200E+02
    -14.942  0.0000E+00  0.0000E+00  0.3200E+02  0.3200E+02
    -14.700  0.0000E+00  0.0000E+00  0.3200E+02  0.3200E+02
    -14.458  0.0000E+00  0.0000E+00  0.3200E+02  0.3200E+02
    -14.216  0.0000E+00  0.0000E+00  0.3200E+02  0.3200E+02
    -13.975  0.0000E+00  0.0000E+00  0.3200E+02  0.3200E+02
    -13.733  0.0000E+00  0.0000E+00  0.3200E+02  0.3200E+02
    -13.491  0.0000E+00  0.0000E+00  0.3200E+02  0.3200E+02
    -13.249  0.0000E+00  0.0000E+00  0.3200E+02  0.3200E+02
    -13.008  0.0000E+00  0.0000E+00  0.3200E+02  0.3200E+02
    -12.766  0.0000E+00  0.0000E+00  0.3200E+02  0.3200E+02
    -12.524  0.0000E+00  0.0000E+00  0.3200E+02  0.3200E+02
    -12.282  0.0000E+00  0.0000E+00  0.3200E+02  0.3200E+02
    -12.041  0.0000E+00  0.0000E+00  0.3200E+02  0.3200E+02
    -11.799  0.0000E+00  0.0000E+00  0.3200E+02  0.3200E+02
    -11.557  0.0000E+00  0.0000E+00  0.3200E+02  0.3200E+02
    -11.315  0.0000E+00  0.0000E+00  0.3200E+02  0.3200E+02
    -11.073  0.0000E+00  0.0000E+00  0.3200E+02  0.3200E+02
    -10.832  0.0000E+00  0.0000E+00  0.3200E+02  0.3200E+02
    -10.590  0.0000E+00  0.0000E+00  0.3200E+02  0.3200E+02
    -10.348  0.0000E+00  0.0000E+00  0.3200E+02  0.3200E+02
    -10.106  0.0000E+00  0.0000E+00  0.3200E+02  0.3200E+02
     -9.865  0.0000E+00  0.0000E+00  0.3200E+02  0.3200E+02
     -9.623  0.0000E+00  0.0000E+00  0.3200E+02  0.3200E+02
     -9.381  0.0000E+00  0.0000E+00  0.3200E+02  0.3200E+02
     -9.139  0.0000E+00  0.0000E+00  0.3200E+02  0.3200E+02
     -8.898  0.0000E+00  0.0000E+00  0.3200E+02  0.3200E+02
     -8.656  0.0000E+00  0.0000E+00  0.3200E+02  0.3200E+02
     -8.414  0.0000E+00  0.0000E+00  0.3200E+02  0.3200E+02
     -8.172  0.0000E+00  0.0000E+00  0.3200E+02  0.3200E+02
     -7.931  0.0000E+00  0.0000E+00  0.3200E+02  0.3200E+02
     -7.689  0.0000E+00  0.0000E+00  0.3200E+02  0.3200E+02
     -7.447  0.0000E+00  0.0000E+00  0.3200E+02  0.3200E+02
     -7.205  0.5599E-04  0.4720E-05  0.3200E+02  0.3200E+02
     -6.964  0.8078E-02  0.1156E-02  0.3200E+02  0.3200E+02
     -6.722  0.7567E+00  0.1372E+00  0.3218E+02  0.3203E+02
     -6.480  0.9440E+01  0.4645E+01  0.3447E+02  0.3316E+02
     -6.238  0.6193E+01  0.1106E+02  0.3597E+02  0.3583E+02
     -5.996  0.0000E+00  0.5617E+00  0.3600E+02  0.3600E+02
     -5.755  0.0000E+00  0.0000E+00  0.3600E+02  0.3600E+02
     -5.513  0.0000E+00  0.0000E+00  0.3600E+02  0.3600E+02
     -5.271  0.0000E+00  0.0000E+00  0.3600E+02  0.3600E+02
     -5.029  0.0000E+00  0.0000E+00  0.3600E+02  0.3600E+02
     -4.788  0.3334E-04  0.6916E-06  0.3600E+02  0.3600E+02
     -4.546  0.4394E-02  0.1807E-03  0.3600E+02  0.3600E+02
     -4.304  0.3190E+00  0.2217E-01  0.3608E+02  0.3601E+02
     -4.062  0.2789E+01  0.8151E+00  0.3675E+02  0.3620E+02
     -3.821  0.6280E+01  0.4141E+01  0.3827E+02  0.3720E+02
     -3.579  0.1239E+02  0.7656E+01  0.4129E+02  0.3906E+02
     -3.337  0.1434E+02  0.1474E+02  0.4477E+02  0.4264E+02
     -3.095  0.1194E+02  0.1634E+02  0.4769E+02  0.4662E+02
     -2.854  0.1053E+01  0.5476E+01  0.4800E+02  0.4797E+02
     -2.612  0.6097E-02  0.5495E-01  0.4800E+02  0.4800E+02
     -2.370  0.5596E+00  0.5361E-03  0.4814E+02  0.4800E+02
     -2.128  0.5171E+01  0.6576E-01  0.4939E+02  0.4802E+02
     -1.887  0.8539E+01  0.2509E+01  0.5146E+02  0.4862E+02
     -1.645  0.1325E+02  0.7132E+01  0.5468E+02  0.5035E+02
     -1.403  0.1359E+02  0.8598E+01  0.5799E+02  0.5244E+02
     -1.161  0.8776E+01  0.1406E+02  0.6014E+02  0.5585E+02
     -0.919  0.1546E+02  0.1244E+02  0.6390E+02  0.5889E+02
     -0.678  0.1646E+02  0.1372E+02  0.6790E+02  0.6224E+02
     -0.436  0.1340E+02  0.1186E+02  0.7118E+02  0.6512E+02
     -0.194  0.1777E+02  0.1166E+02  0.7550E+02  0.6797E+02
      0.048  0.1593E+02  0.6979E+01  0.7938E+02  0.6969E+02
      0.289  0.1450E+02  0.1698E+02  0.8292E+02  0.7380E+02
      0.531  0.7252E+01  0.1432E+02  0.8471E+02  0.7729E+02
      0.773  0.1242E+02  0.8413E+01  0.8774E+02  0.7935E+02
      1.015  0.1955E+02  0.2517E+01  0.9248E+02  0.7999E+02
      1.256  0.1423E+02  0.9245E-02  0.9596E+02  0.8000E+02
      1.498  0.7961E+01  0.0000E+00  0.9793E+02  0.8000E+02
      1.740  0.8065E+01  0.0000E+00  0.9989E+02  0.8000E+02
      1.982  0.3404E+00  0.0000E+00  0.1000E+03  0.8000E+02
      2.223  0.0000E+00  0.0000E+00  0.1000E+03  0.8000E+02
      2.465  0.0000E+00  0.0000E+00  0.1000E+03  0.8000E+02
      2.707  0.0000E+00  0.3478E-03  0.1000E+03  0.8000E+02
      2.949  0.0000E+00  0.4331E-01  0.1000E+03  0.8001E+02
      3.190  0.0000E+00  0.3776E+01  0.1000E+03  0.8092E+02
      3.432  0.0000E+00  0.1319E+02  0.1000E+03  0.8411E+02
      3.674  0.3687E-05  0.1709E+02  0.1000E+03  0.8832E+02
      3.916  0.4722E-03  0.1539E+02  0.1000E+03  0.9204E+02
      4.158  0.3052E-01  0.9100E+01  0.1000E+03  0.9431E+02
      4.399  0.1686E+00  0.6091E+01  0.1000E+03  0.9579E+02
      4.641  0.2908E+00  0.7783E+01  0.1001E+03  0.9769E+02
      4.883  0.4174E+00  0.9362E+01  0.1002E+03  0.9996E+02
      5.125  0.5782E+00  0.5442E+00  0.1004E+03  0.1001E+03
      5.366  0.7061E+00  0.4675E+00  0.1005E+03  0.1003E+03
      5.608  0.9783E+00  0.6512E+00  0.1008E+03  0.1004E+03
      5.850  0.1264E+01  0.8264E+00  0.1011E+03  0.1006E+03
      6.092  0.1546E+01  0.1082E+01  0.1015E+03  0.1009E+03
      6.333  0.1598E+01  0.1501E+01  0.1018E+03  0.1012E+03
      6.575  0.2255E+01  0.1901E+01  0.1024E+03  0.1017E+03
      6.817  0.3181E+01  0.2572E+01  0.1032E+03  0.1023E+03
      7.059  0.3255E+01  0.3776E+01  0.1040E+03  0.1032E+03
      7.300  0.3334E+01  0.2851E+01  0.1048E+03  0.1039E+03
      7.542  0.4759E+01  0.4496E+00  0.1059E+03  0.1041E+03
      7.784  0.4119E+01  0.3184E+01  0.1069E+03  0.1048E+03
      8.026  0.3737E+01  0.5601E+01  0.1078E+03  0.1062E+03
      8.267  0.5144E+01  0.5550E+01  0.1091E+03  0.1075E+03
      8.509  0.6299E+01  0.5881E+01  0.1106E+03  0.1090E+03
      8.751  0.6136E+01  0.6625E+01  0.1121E+03  0.1106E+03
      8.993  0.7995E+01  0.7704E+01  0.1141E+03  0.1125E+03
      9.235  0.6117E+01  0.7862E+01  0.1156E+03  0.1144E+03
      9.476  0.5701E+01  0.6039E+01  0.1170E+03  0.1159E+03
      9.718  0.4461E+01  0.4225E+01  0.1180E+03  0.1169E+03
      9.960  0.6583E+01  0.5825E+01  0.1196E+03  0.1183E+03
     10.202  0.4889E+01  0.6391E+01  0.1208E+03  0.1199E+03
     10.443  0.5815E+01  0.3254E+01  0.1223E+03  0.1207E+03
     10.685  0.5161E+01  0.5858E+01  0.1235E+03  0.1221E+03
     10.927  0.3568E+01  0.5140E+01  0.1244E+03  0.1233E+03
     11.169  0.4596E+01  0.3839E+01  0.1255E+03  0.1243E+03
     11.410  0.3600E+01  0.4355E+01  0.1264E+03  0.1253E+03
     11.652  0.3162E+01  0.3208E+01  0.1272E+03  0.1261E+03
     11.894  0.2257E+01  0.3094E+01  0.1277E+03  0.1269E+03
     12.136  0.1001E+01  0.2858E+01  0.1280E+03  0.1276E+03
     12.377  0.1552E+00  0.1446E+01  0.1280E+03  0.1279E+03
     12.619  0.2183E-02  0.2530E+00  0.1280E+03  0.1280E+03
     12.861  0.0000E+00  0.1854E-02  0.1280E+03  0.1280E+03
     13.103  0.0000E+00  0.0000E+00  0.1280E+03  0.1280E+03
     13.344  0.0000E+00  0.0000E+00  0.1280E+03  0.1280E+03
     13.586  0.0000E+00  0.0000E+00  0.1280E+03  0.1280E+03
     13.828  0.0000E+00  0.0000E+00  0.1280E+03  0.1280E+03
     14.070  0.0000E+00  0.0000E+00  0.1280E+03  0.1280E+03
     14.312  0.0000E+00  0.0000E+00  0.1280E+03  0.1280E+03
     14.553  0.0000E+00  0.0000E+00  0.1280E+03  0.1280E+03
     14.795  0.0000E+00  0.0000E+00  0.1280E+03  0.1280E+03
     15.037  0.0000E+00  0.0000E+00  0.1280E+03  0.1280E+03
     15.279  0.0000E+00  0.0000E+00  0.1280E+03  0.1280E+03
     15.520  0.0000E+00  0.0000E+00  0.1280E+03  0.1280E+03
     15.762  0.0000E+00  0.0000E+00  0.1280E+03  0.1280E+03
     15.76207416    -56.76643557  301      3.41544909      1.00000000
    -56.766  0.0000E+00  0.0000E+00  0.0000E+00  0.0000E+00  0.0000E+00  0.0000E+00  0.0000E+00  0.0000E+00  0.0000E+00  0.0000E+00  0.0000E+00  0.0000E+00  0.0000E+00  0.0000E+00  0.0000E+00  0.0000E+00  0.0000E+00  0.0000E+00
    -56.525  0.0000E+00  0.0000E+00  0.0000E+00  0.0000E+00  0.0000E+00  0.0000E+00  0.0000E+00  0.0000E+00  0.0000E+00  0.0000E+00  0.0000E+00  0.0000E+00  0.0000E+00  0.0000E+00  0.0000E+00  0.0000E+00  0.0000E+00  0.0000E+00
    -56.283  0.0000E+00  0.0000E+00  0.0000E+00  0.0000E+00  0.0000E+00  0.0000E+00  0.0000E+00  0.0000E+00  0.0000E+00  0.0000E+00  0.0000E+00  0.0000E+00  0.0000E+00  0.0000E+00  0.0000E+00  0.0000E+00  0.0000E+00  0.0000E+00
    -56.041  0.0000E+00  0.0000E+00  0.0000E+00  0.0000E+00  0.0000E+00  0.0000E+00  0.0000E+00  0.0000E+00  0.0000E+00  0.0000E+00  0.0000E+00  0.0000E+00  0.0000E+00  0.0000E+00  0.0000E+00  0.0000E+00  0.0000E+00  0.0000E+00
    -55.799  0.0000E+00  0.0000E+00  0.0000E+00  0.0000E+00  0.0000E+00  0.0000E+00  0.0000E+00  0.0000E+00  0.0000E+00  0.0000E+00  0.0000E+00  0.0000E+00  0.0000E+00  0.0000E+00  0.0000E+00  0.0000E+00  0.0000E+00  0.0000E+00
    -55.558  0.0000E+00  0.0000E+00  0.0000E+00  0.0000E+00  0.0000E+00  0.0000E+00  0.0000E+00  0.0000E+00  0.0000E+00  0.0000E+00  0.0000E+00  0.0000E+00  0.0000E+00  0.0000E+00  0.0000E+00  0.0000E+00  0.0000E+00  0.0000E+00
    -55.316  0.0000E+00  0.0000E+00  0.0000E+00  0.0000E+00  0.0000E+00  0.0000E+00  0.0000E+00  0.0000E+00  0.0000E+00  0.0000E+00  0.0000E+00  0.0000E+00  0.0000E+00  0.0000E+00  0.0000E+00  0.0000E+00  0.0000E+00  0.0000E+00
    -55.074  0.0000E+00  0.0000E+00  0.0000E+00  0.0000E+00  0.0000E+00  0.0000E+00  0.0000E+00  0.0000E+00  0.0000E+00  0.0000E+00  0.0000E+00  0.0000E+00  0.0000E+00  0.0000E+00  0.0000E+00  0.0000E+00  0.0000E+00  0.0000E+00
    -54.832  0.0000E+00  0.0000E+00  0.0000E+00  0.0000E+00  0.0000E+00  0.0000E+00  0.0000E+00  0.0000E+00  0.0000E+00  0.0000E+00  0.0000E+00  0.0000E+00  0.0000E+00  0.0000E+00  0.0000E+00  0.0000E+00  0.0000E+00  0.0000E+00
    -54.591  0.0000E+00  0.0000E+00  0.0000E+00  0.0000E+00  0.0000E+00  0.0000E+00  0.0000E+00  0.0000E+00  0.0000E+00  0.0000E+00  0.0000E+00  0.0000E+00  0.0000E+00  0.0000E+00  0.0000E+00  0.0000E+00  0.0000E+00  0.0000E+00
    -54.349  0.0000E+00  0.0000E+00  0.0000E+00  0.0000E+00  0.0000E+00  0.0000E+00  0.0000E+00  0.0000E+00  0.0000E+00  0.0000E+00  0.0000E+00  0.0000E+00  0.0000E+00  0.0000E+00  0.0000E+00  0.0000E+00  0.0000E+00  0.0000E+00
    -54.107  0.1063E-13  0.0000E+00  0.1031E-13  0.0000E+00  0.1104E-13  0.0000E+00  0.3013E-14  0.0000E+00  0.0000E+00  0.0000E+00  0.0000E+00  0.0000E+00  0.0000E+00  0.0000E+00  0.0000E+00  0.0000E+00  0.0000E+00  0.0000E+00
    -53.865  0.1326E-11  0.0000E+00  0.1287E-11  0.0000E+00  0.1378E-11  0.0000E+00  0.3761E-12  0.0000E+00  0.0000E+00  0.0000E+00  0.0000E+00  0.0000E+00  0.0000E+00  0.0000E+00  0.0000E+00  0.0000E+00  0.0000E+00  0.0000E+00
    -53.624  0.1596E-09  0.0000E+00  0.1549E-09  0.0000E+00  0.1658E-09  0.0000E+00  0.4527E-10  0.0000E+00  0.0000E+00  0.0000E+00  0.0000E+00  0.0000E+00  0.0000E+00  0.0000E+00  0.0000E+00  0.0000E+00  0.0000E+00  0.0000E+00
    -53.382  0.2964E-08  0.0000E+00  0.2875E-08  0.0000E+00  0.3081E-08  0.0000E+00  0.8409E-09  0.0000E+00  0.0000E+00  0.0000E+00  0.0000E+00  0.0000E+00  0.0000E+00  0.0000E+00  0.0000E+00  0.0000E+00  0.0000E+00  0.0000E+00
    -53.140  0.5355E-09  0.0000E+00  0.5194E-09  0.0000E+00  0.5571E-09  0.0000E+00  0.1520E-09  0.0000E+00  0.0000E+00  0.0000E+00  0.0000E+00  0.0000E+00  0.0000E+00  0.0000E+00  0.0000E+00  0.0000E+00  0.0000E+00  0.0000E+00
    -52.898  0.1801E-11  0.0000E+00  0.8052E-12  0.0000E+00  0.2381E-11  0.0000E+00  0.3934E-12  0.0000E+00  0.0000E+00  0.0000E+00  0.0000E+00  0.0000E+00  0.0000E+00  0.0000E+00  0.0000E+00  0.0000E+00  0.0000E+00  0.0000E+00
    -52.656  0.2193E-09  0.0000E+00  0.9803E-10  0.0000E+00  0.2899E-09  0.0000E+00  0.4789E-10  0.0000E+00  0.0000E+00  0.0000E+00  0.0000E+00  0.0000E+00  0.0000E+00  0.0000E+00  0.0000E+00  0.0000E+00  0.0000E+00  0.0000E+00
    -52.415  0.6517E-08  0.0000E+00  0.2914E-08  0.0000E+00  0.8617E-08  0.0000E+00  0.1424E-08  0.0000E+00  0.0000E+00  0.0000E+00  0.0000E+00  0.0000E+00  0.0000E+00  0.0000E+00  0.0000E+00  0.0000E+00  0.0000E+00  0.0000E+00
    -52.173  0.2163E-08  0.0000E+00  0.9964E-09  0.0000E+00  0.2843E-08  0.0000E+00  0.5650E-09  0.0000E+00  0.0000E+00  0.0000E+00  0.0000E+00  0.0000E+00  0.0000E+00  0.0000E+00  0.0000E+00  0.0000E+00  0.0000E+00  0.0000E+00
    -51.931  0.1786E-08  0.0000E+00  0.1306E-08  0.0000E+00  0.2048E-08  0.0000E+00  0.1999E-08  0.0000E+00  0.0000E+00  0.0000E+00  0.0000E+00  0.0000E+00  0.0000E+00  0.0000E+00  0.0000E+00  0.0000E+00  0.0000E+00  0.0000E+00
    -51.689  0.3005E-09  0.0000E+00  0.2197E-09  0.0000E+00  0.3444E-09  0.0000E+00  0.3364E-09  0.0000E+00  0.0000E+00  0.0000E+00  0.0000E+00  0.0000E+00  0.0000E+00  0.0000E+00  0.0000E+00  0.0000E+00  0.0000E+00  0.0000E+00
    -51.448  0.0000E+00  0.0000E+00  0.0000E+00  0.0000E+00  0.0000E+00  0.0000E+00  0.0000E+00  0.0000E+00  0.0000E+00  0.0000E+00  0.0000E+00  0.0000E+00  0.0000E+00  0.0000E+00  0.0000E+00  0.0000E+00  0.0000E+00  0.0000E+00
    -51.206  0.0000E+00  0.0000E+00  0.0000E+00  0.0000E+00  0.0000E+00  0.0000E+00  0.0000E+00  0.0000E+00  0.0000E+00  0.0000E+00  0.0000E+00  0.0000E+00  0.0000E+00  0.0000E+00  0.0000E+00  0.0000E+00  0.0000E+00  0.0000E+00
    -50.964  0.0000E+00  0.0000E+00  0.0000E+00  0.0000E+00  0.0000E+00  0.0000E+00  0.0000E+00  0.0000E+00  0.0000E+00  0.0000E+00  0.0000E+00  0.0000E+00  0.0000E+00  0.0000E+00  0.0000E+00  0.0000E+00  0.0000E+00  0.0000E+00
    -50.722  0.0000E+00  0.0000E+00  0.0000E+00  0.0000E+00  0.0000E+00  0.0000E+00  0.0000E+00  0.0000E+00  0.0000E+00  0.0000E+00  0.0000E+00  0.0000E+00  0.0000E+00  0.0000E+00  0.0000E+00  0.0000E+00  0.0000E+00  0.0000E+00
    -50.481  0.0000E+00  0.0000E+00  0.0000E+00  0.0000E+00  0.0000E+00  0.0000E+00  0.0000E+00  0.0000E+00  0.0000E+00  0.0000E+00  0.0000E+00  0.0000E+00  0.0000E+00  0.0000E+00  0.0000E+00  0.0000E+00  0.0000E+00  0.0000E+00
    -50.239  0.0000E+00  0.0000E+00  0.0000E+00  0.0000E+00  0.0000E+00  0.0000E+00  0.0000E+00  0.0000E+00  0.0000E+00  0.0000E+00  0.0000E+00  0.0000E+00  0.0000E+00  0.0000E+00  0.0000E+00  0.0000E+00  0.0000E+00  0.0000E+00
    -49.997  0.0000E+00  0.0000E+00  0.0000E+00  0.0000E+00  0.0000E+00  0.0000E+00  0.0000E+00  0.0000E+00  0.0000E+00  0.0000E+00  0.0000E+00  0.0000E+00  0.0000E+00  0.0000E+00  0.0000E+00  0.0000E+00  0.0000E+00  0.0000E+00
    -49.755  0.0000E+00  0.0000E+00  0.0000E+00  0.0000E+00  0.0000E+00  0.0000E+00  0.0000E+00  0.0000E+00  0.0000E+00  0.0000E+00  0.0000E+00  0.0000E+00  0.0000E+00  0.0000E+00  0.0000E+00  0.0000E+00  0.0000E+00  0.0000E+00
    -49.514  0.0000E+00  0.0000E+00  0.0000E+00  0.0000E+00  0.0000E+00  0.0000E+00  0.0000E+00  0.0000E+00  0.0000E+00  0.0000E+00  0.0000E+00  0.0000E+00  0.0000E+00  0.0000E+00  0.0000E+00  0.0000E+00  0.0000E+00  0.0000E+00
    -49.272  0.0000E+00  0.2767E-11  0.0000E+00  0.9860E-12  0.0000E+00  0.9831E-12  0.0000E+00  0.5922E-12  0.0000E+00  0.0000E+00  0.0000E+00  0.0000E+00  0.0000E+00  0.0000E+00  0.0000E+00  0.0000E+00  0.0000E+00  0.0000E+00
    -49.030  0.0000E+00  0.3355E-09  0.0000E+00  0.1191E-09  0.0000E+00  0.1193E-09  0.0000E+00  0.7166E-10  0.0000E+00  0.0000E+00  0.0000E+00  0.0000E+00  0.0000E+00  0.0000E+00  0.0000E+00  0.0000E+00  0.0000E+00  0.0000E+00
    -48.788  0.0000E+00  0.7875E-08  0.0000E+00  0.2758E-08  0.0000E+00  0.2813E-08  0.0000E+00  0.1670E-08  0.0000E+00  0.0000E+00  0.0000E+00  0.0000E+00  0.0000E+00  0.0000E+00  0.0000E+00  0.0000E+00  0.0000E+00  0.0000E+00
    -48.547  0.0000E+00  0.1759E-07  0.0000E+00  0.2920E-08  0.0000E+00  0.7064E-08  0.0000E+00  0.2611E-08  0.0000E+00  0.0000E+00  0.0000E+00  0.0000E+00  0.0000E+00  0.0000E+00  0.0000E+00  0.0000E+00  0.0000E+00  0.0000E+00
    -48.305  0.0000E+00  0.2335E-07  0.0000E+00  0.3621E-08  0.0000E+00  0.9137E-08  0.0000E+00  0.4708E-08  0.0000E+00  0.0000E+00  0.0000E+00  0.0000E+00  0.0000E+00  0.0000E+00  0.0000E+00  0.0000E+00  0.0000E+00  0.0000E+00
    -48.063  0.0000E+00  0.1653E-08  0.0000E+00  0.3250E-09  0.0000E+00  0.5416E-09  0.0000E+00  0.7401E-09  0.0000E+00  0.0000E+00  0.0000E+00  0.0000E+00  0.0000E+00  0.0000E+00  0.0000E+00  0.0000E+00  0.0000E+00  0.0000E+00
    -47.821  0.0000E+00  0.0000E+00  0.0000E+00  0.0000E+00  0.0000E+00  0.0000E+00  0.0000E+00  0.0000E+00  0.0000E+00  0.0000E+00  0.0000E+00  0.0000E+00  0.0000E+00  0.0000E+00  0.0000E+00  0.0000E+00  0.0000E+00  0.0000E+00
    -47.579  0.0000E+00  0.0000E+00  0.0000E+00  0.0000E+00  0.0000E+00  0.0000E+00  0.0000E+00  0.0000E+00  0.0000E+00  0.0000E+00  0.0000E+00  0.0000E+00  0.0000E+00  0.0000E+00  0.0000E+00  0.0000E+00  0.0000E+00  0.0000E+00
    -47.338  0.0000E+00  0.0000E+00  0.0000E+00  0.0000E+00  0.0000E+00  0.0000E+00  0.0000E+00  0.0000E+00  0.0000E+00  0.0000E+00  0.0000E+00  0.0000E+00  0.0000E+00  0.0000E+00  0.0000E+00  0.0000E+00  0.0000E+00  0.0000E+00
    -47.096  0.0000E+00  0.0000E+00  0.0000E+00  0.0000E+00  0.0000E+00  0.0000E+00  0.0000E+00  0.0000E+00  0.0000E+00  0.0000E+00  0.0000E+00  0.0000E+00  0.0000E+00  0.0000E+00  0.0000E+00  0.0000E+00  0.0000E+00  0.0000E+00
    -46.854  0.0000E+00  0.0000E+00  0.0000E+00  0.0000E+00  0.0000E+00  0.0000E+00  0.0000E+00  0.0000E+00  0.0000E+00  0.0000E+00  0.0000E+00  0.0000E+00  0.0000E+00  0.0000E+00  0.0000E+00  0.0000E+00  0.0000E+00  0.0000E+00
    -46.612  0.0000E+00  0.0000E+00  0.0000E+00  0.0000E+00  0.0000E+00  0.0000E+00  0.0000E+00  0.0000E+00  0.0000E+00  0.0000E+00  0.0000E+00  0.0000E+00  0.0000E+00  0.0000E+00  0.0000E+00  0.0000E+00  0.0000E+00  0.0000E+00
    -46.371  0.0000E+00  0.0000E+00  0.0000E+00  0.0000E+00  0.0000E+00  0.0000E+00  0.0000E+00  0.0000E+00  0.0000E+00  0.0000E+00  0.0000E+00  0.0000E+00  0.0000E+00  0.0000E+00  0.0000E+00  0.0000E+00  0.0000E+00  0.0000E+00
    -46.129  0.0000E+00  0.0000E+00  0.0000E+00  0.0000E+00  0.0000E+00  0.0000E+00  0.0000E+00  0.0000E+00  0.0000E+00  0.0000E+00  0.0000E+00  0.0000E+00  0.0000E+00  0.0000E+00  0.0000E+00  0.0000E+00  0.0000E+00  0.0000E+00
    -45.887  0.0000E+00  0.0000E+00  0.0000E+00  0.0000E+00  0.0000E+00  0.0000E+00  0.0000E+00  0.0000E+00  0.0000E+00  0.0000E+00  0.0000E+00  0.0000E+00  0.0000E+00  0.0000E+00  0.0000E+00  0.0000E+00  0.0000E+00  0.0000E+00
    -45.645  0.0000E+00  0.0000E+00  0.0000E+00  0.0000E+00  0.0000E+00  0.0000E+00  0.0000E+00  0.0000E+00  0.0000E+00  0.0000E+00  0.0000E+00  0.0000E+00  0.0000E+00  0.0000E+00  0.0000E+00  0.0000E+00  0.0000E+00  0.0000E+00
    -45.404  0.0000E+00  0.0000E+00  0.0000E+00  0.0000E+00  0.0000E+00  0.0000E+00  0.0000E+00  0.0000E+00  0.0000E+00  0.0000E+00  0.0000E+00  0.0000E+00  0.0000E+00  0.0000E+00  0.0000E+00  0.0000E+00  0.0000E+00  0.0000E+00
    -45.162  0.0000E+00  0.0000E+00  0.0000E+00  0.0000E+00  0.0000E+00  0.0000E+00  0.0000E+00  0.0000E+00  0.0000E+00  0.0000E+00  0.0000E+00  0.0000E+00  0.0000E+00  0.0000E+00  0.0000E+00  0.0000E+00  0.0000E+00  0.0000E+00
    -44.920  0.0000E+00  0.0000E+00  0.0000E+00  0.0000E+00  0.0000E+00  0.0000E+00  0.0000E+00  0.0000E+00  0.0000E+00  0.0000E+00  0.0000E+00  0.0000E+00  0.0000E+00  0.0000E+00  0.0000E+00  0.0000E+00  0.0000E+00  0.0000E+00
    -44.678  0.0000E+00  0.0000E+00  0.0000E+00  0.0000E+00  0.0000E+00  0.0000E+00  0.0000E+00  0.0000E+00  0.0000E+00  0.0000E+00  0.0000E+00  0.0000E+00  0.0000E+00  0.0000E+00  0.0000E+00  0.0000E+00  0.0000E+00  0.0000E+00