  28  28   1   0
  0.9366031E+01  0.4538117E-09  0.5788998E-09  0.9982390E-09  0.5000000E-15
  1.000000000000000E-004
  CAR 
 unknown system                          
     21.56311798    -52.62761141  301      7.34568630      1.00000000
    -52.628  0.0000E+00  0.0000E+00  0.0000E+00  0.0000E+00
    -52.380  0.0000E+00  0.0000E+00  0.0000E+00  0.0000E+00
    -52.133  0.0000E+00  0.0000E+00  0.0000E+00  0.0000E+00
    -51.886  0.0000E+00  0.0000E+00  0.0000E+00  0.0000E+00
    -51.638  0.0000E+00  0.0000E+00  0.0000E+00  0.0000E+00
    -51.391  0.0000E+00  0.0000E+00  0.0000E+00  0.0000E+00
    -51.144  0.0000E+00  0.0000E+00  0.0000E+00  0.0000E+00
    -50.896  0.0000E+00  0.0000E+00  0.0000E+00  0.0000E+00
    -50.649  0.0000E+00  0.0000E+00  0.0000E+00  0.0000E+00
    -50.402  0.0000E+00  0.0000E+00  0.0000E+00  0.0000E+00
    -50.155  0.0000E+00  0.0000E+00  0.0000E+00  0.0000E+00
    -49.907  0.0000E+00  0.0000E+00  0.0000E+00  0.0000E+00
    -49.660  0.4789E-02  0.0000E+00  0.1184E-02  0.0000E+00
    -49.413  0.6419E+00  0.0000E+00  0.1599E+00  0.0000E+00
    -49.165  0.1317E+02  0.0000E+00  0.3416E+01  0.0000E+00
    -48.918  0.2341E+01  0.0000E+00  0.3995E+01  0.0000E+00
    -48.671  0.1913E+00  0.0000E+00  0.4048E+01  0.0000E+00
    -48.423  0.9983E+01  0.0000E+00  0.6517E+01  0.0000E+00
    -48.176  0.6180E+01  0.0000E+00  0.8045E+01  0.0000E+00
    -47.929  0.1087E+02  0.0000E+00  0.1075E+02  0.0000E+00
    -47.682  0.5003E+01  0.0000E+00  0.1199E+02  0.0000E+00
    -47.434  0.0000E+00  0.0000E+00  0.1200E+02  0.0000E+00
    -47.187  0.0000E+00  0.0000E+00  0.1200E+02  0.0000E+00
    -46.940  0.0000E+00  0.0000E+00  0.1200E+02  0.0000E+00
    -46.692  0.0000E+00  0.0000E+00  0.1200E+02  0.0000E+00
    -46.445  0.0000E+00  0.0000E+00  0.1200E+02  0.0000E+00
    -46.198  0.0000E+00  0.0000E+00  0.1200E+02  0.0000E+00
    -45.950  0.0000E+00  0.0000E+00  0.1200E+02  0.0000E+00
    -45.703  0.0000E+00  0.0000E+00  0.1200E+02  0.0000E+00
    -45.456  0.0000E+00  0.0000E+00  0.1200E+02  0.0000E+00
    -45.209  0.0000E+00  0.2818E-02  0.1200E+02  0.6969E-03
    -44.961  0.0000E+00  0.3870E+00  0.1200E+02  0.9641E-01
    -44.714  0.0000E+00  0.1256E+02  0.1200E+02  0.3202E+01
    -44.467  0.0000E+00  0.1694E+02  0.1200E+02  0.7391E+01
    -44.219  0.0000E+00  0.1712E+02  0.1200E+02  0.1163E+02
    -43.972  0.0000E+00  0.1437E+01  0.1200E+02  0.1200E+02
    -43.725  0.0000E+00  0.0000E+00  0.1200E+02  0.1200E+02
    -43.477  0.0000E+00  0.0000E+00  0.1200E+02  0.1200E+02
    -43.230  0.0000E+00  0.0000E+00  0.1200E+02  0.1200E+02
    -42.983  0.0000E+00  0.0000E+00  0.1200E+02  0.1200E+02
    -42.736  0.0000E+00  0.0000E+00  0.1200E+02  0.1200E+02
    -42.488  0.0000E+00  0.0000E+00  0.1200E+02  0.1200E+02
    -42.241  0.0000E+00  0.0000E+00  0.1200E+02  0.1200E+02
    -41.994  0.0000E+00  0.0000E+00  0.1200E+02  0.1200E+02
    -41.746  0.0000E+00  0.0000E+00  0.1200E+02  0.1200E+02
    -41.499  0.0000E+00  0.0000E+00  0.1200E+02  0.1200E+02
    -41.252  0.0000E+00  0.0000E+00  0.1200E+02  0.1200E+02
    -41.004  0.0000E+00  0.0000E+00  0.1200E+02  0.1200E+02
    -40.757  0.0000E+00  0.0000E+00  0.1200E+02  0.1200E+02
    -40.510  0.0000E+00  0.0000E+00  0.1200E+02  0.1200E+02
    -40.262  0.0000E+00  0.0000E+00  0.1200E+02  0.1200E+02
    -40.015  0.0000E+00  0.0000E+00  0.1200E+02  0.1200E+02
    -39.768  0.0000E+00  0.0000E+00  0.1200E+02  0.1200E+02
    -39.521  0.0000E+00  0.0000E+00  0.1200E+02  0.1200E+02
    -39.273  0.4271E-02  0.4224E-02  0.1200E+02  0.1200E+02
    -39.026  0.5747E+00  0.5686E+00  0.1214E+02  0.1214E+02
    -38.779  0.1297E+02  0.1296E+02  0.1535E+02  0.1535E+02
    -38.531  0.2600E+01  0.2624E+01  0.1599E+02  0.1599E+02
    -38.284  0.0000E+00  0.0000E+00  0.1600E+02  0.1600E+02
    -38.037  0.0000E+00  0.0000E+00  0.1600E+02  0.1600E+02
    -37.789  0.0000E+00  0.0000E+00  0.1600E+02  0.1600E+02
    -37.542  0.0000E+00  0.0000E+00  0.1600E+02  0.1600E+02
    -37.295  0.0000E+00  0.0000E+00  0.1600E+02  0.1600E+02
    -37.048  0.0000E+00  0.0000E+00  0.1600E+02  0.1600E+02
    -36.800  0.0000E+00  0.0000E+00  0.1600E+02  0.1600E+02
    -36.553  0.0000E+00  0.0000E+00  0.1600E+02  0.1600E+02
    -36.306  0.0000E+00  0.0000E+00  0.1600E+02  0.1600E+02
    -36.058  0.0000E+00  0.0000E+00  0.1600E+02  0.1600E+02
    -35.811  0.0000E+00  0.0000E+00  0.1600E+02  0.1600E+02
    -35.564  0.0000E+00  0.0000E+00  0.1600E+02  0.1600E+02
    -35.316  0.0000E+00  0.0000E+00  0.1600E+02  0.1600E+02
    -35.069  0.0000E+00  0.0000E+00  0.1600E+02  0.1600E+02
    -34.822  0.0000E+00  0.0000E+00  0.1600E+02  0.1600E+02
    -34.575  0.0000E+00  0.0000E+00  0.1600E+02  0.1600E+02
    -34.327  0.0000E+00  0.0000E+00  0.1600E+02  0.1600E+02
    -34.080  0.0000E+00  0.0000E+00  0.1600E+02  0.1600E+02
    -33.833  0.0000E+00  0.0000E+00  0.1600E+02  0.1600E+02
    -33.585  0.0000E+00  0.0000E+00  0.1600E+02  0.1600E+02
    -33.338  0.0000E+00  0.0000E+00  0.1600E+02  0.1600E+02
    -33.091  0.0000E+00  0.0000E+00  0.1600E+02  0.1600E+02
    -32.843  0.0000E+00  0.0000E+00  0.1600E+02  0.1600E+02
    -32.596  0.0000E+00  0.0000E+00  0.1600E+02  0.1600E+02
    -32.349  0.0000E+00  0.0000E+00  0.1600E+02  0.1600E+02
    -32.102  0.0000E+00  0.0000E+00  0.1600E+02  0.1600E+02
    -31.854  0.0000E+00  0.0000E+00  0.1600E+02  0.1600E+02
    -31.607  0.0000E+00  0.0000E+00  0.1600E+02  0.1600E+02
    -31.360  0.0000E+00  0.0000E+00  0.1600E+02  0.1600E+02
    -31.112  0.0000E+00  0.0000E+00  0.1600E+02  0.1600E+02
    -30.865  0.0000E+00  0.0000E+00  0.1600E+02  0.1600E+02
    -30.618  0.0000E+00  0.0000E+00  0.1600E+02  0.1600E+02
    -30.370  0.0000E+00  0.0000E+00  0.1600E+02  0.1600E+02
    -30.123  0.0000E+00  0.0000E+00  0.1600E+02  0.1600E+02
    -29.876  0.0000E+00  0.0000E+00  0.1600E+02  0.1600E+02
    -29.628  0.0000E+00  0.0000E+00  0.1600E+02  0.1600E+02
    -29.381  0.0000E+00  0.0000E+00  0.1600E+02  0.1600E+02
    -29.134  0.0000E+00  0.0000E+00  0.1600E+02  0.1600E+02
    -28.887  0.0000E+00  0.0000E+00  0.1600E+02  0.1600E+02
    -28.639  0.0000E+00  0.0000E+00  0.1600E+02  0.1600E+02
    -28.392  0.0000E+00  0.0000E+00  0.1600E+02  0.1600E+02
    -28.145  0.0000E+00  0.0000E+00  0.1600E+02  0.1600E+02
    -27.897  0.0000E+00  0.0000E+00  0.1600E+02  0.1600E+02
    -27.650  0.0000E+00  0.0000E+00  0.1600E+02  0.1600E+02
    -27.403  0.0000E+00  0.0000E+00  0.1600E+02  0.1600E+02
    -27.155  0.0000E+00  0.0000E+00  0.1600E+02  0.1600E+02
    -26.908  0.0000E+00  0.0000E+00  0.1600E+02  0.1600E+02
    -26.661  0.0000E+00  0.0000E+00  0.1600E+02  0.1600E+02
    -26.414  0.0000E+00  0.0000E+00  0.1600E+02  0.1600E+02
    -26.166  0.0000E+00  0.0000E+00  0.1600E+02  0.1600E+02
    -25.919  0.0000E+00  0.0000E+00  0.1600E+02  0.1600E+02
    -25.672  0.0000E+00  0.0000E+00  0.1600E+02  0.1600E+02
    -25.424  0.0000E+00  0.0000E+00  0.1600E+02  0.1600E+02
    -25.177  0.0000E+00  0.0000E+00  0.1600E+02  0.1600E+02
    -24.930  0.0000E+00  0.0000E+00  0.1600E+02  0.1600E+02
    -24.682  0.0000E+00  0.0000E+00  0.1600E+02  0.1600E+02
    -24.435  0.0000E+00  0.0000E+00  0.1600E+02  0.1600E+02
    -24.188  0.0000E+00  0.0000E+00  0.1600E+02  0.1600E+02
    -23.941  0.0000E+00  0.0000E+00  0.1600E+02  0.1600E+02
    -23.693  0.0000E+00  0.0000E+00  0.1600E+02  0.1600E+02
    -23.446  0.0000E+00  0.0000E+00  0.1600E+02  0.1600E+02
    -23.199  0.0000E+00  0.0000E+00  0.1600E+02  0.1600E+02
    -22.951  0.0000E+00  0.0000E+00  0.1600E+02  0.1600E+02
    -22.704  0.0000E+00  0.0000E+00  0.1600E+02  0.1600E+02
    -22.457  0.0000E+00  0.0000E+00  0.1600E+02  0.1600E+02
    -22.209  0.0000E+00  0.0000E+00  0.1600E+02  0.1600E+02
    -21.962  0.0000E+00  0.0000E+00  0.1600E+02  0.1600E+02
    -21.715  0.0000E+00  0.0000E+00  0.1600E+02  0.1600E+02
    -21.468  0.0000E+00  0.0000E+00  0.1600E+02  0.1600E+02
    -21.220  0.0000E+00  0.0000E+00  0.1600E+02  0.1600E+02
    -20.973  0.0000E+00  0.0000E+00  0.1600E+02  0.1600E+02
    -20.726  0.0000E+00  0.0000E+00  0.1600E+02  0.1600E+02
    -20.478  0.0000E+00  0.0000E+00  0.1600E+02  0.1600E+02
    -20.231  0.0000E+00  0.0000E+00  0.1600E+02  0.1600E+02
    -19.984  0.0000E+00  0.0000E+00  0.1600E+02  0.1600E+02
    -19.736  0.0000E+00  0.0000E+00  0.1600E+02  0.1600E+02
    -19.489  0.0000E+00  0.0000E+00  0.1600E+02  0.1600E+02
    -19.242  0.0000E+00  0.0000E+00  0.1600E+02  0.1600E+02
    -18.994  0.0000E+00  0.0000E+00  0.1600E+02  0.1600E+02
    -18.747  0.0000E+00  0.0000E+00  0.1600E+02  0.1600E+02
    -18.500  0.0000E+00  0.0000E+00  0.1600E+02  0.1600E+02
    -18.253  0.5508E-07  0.0000E+00  0.1600E+02  0.1600E+02
    -18.005  0.1802E-03  0.1569E-04  0.1600E+02  0.1600E+02
    -17.758  0.2540E-01  0.2732E-02  0.1601E+02  0.1600E+02
    -17.511  0.1519E+01  0.3135E+00  0.1638E+02  0.1608E+02
    -17.263  0.8174E+01  0.5036E+01  0.1840E+02  0.1732E+02
    -17.016  0.6080E+01  0.8851E+01  0.1992E+02  0.1952E+02
    -16.769  0.2176E+00  0.1833E+01  0.2000E+02  0.1999E+02
    -16.521  0.0000E+00  0.0000E+00  0.2000E+02  0.2000E+02
    -16.274  0.0000E+00  0.0000E+00  0.2000E+02  0.2000E+02
    -16.027  0.0000E+00  0.0000E+00  0.2000E+02  0.2000E+02
    -15.780  0.0000E+00  0.0000E+00  0.2000E+02  0.2000E+02
    -15.532  0.0000E+00  0.0000E+00  0.2000E+02  0.2000E+02
    -15.285  0.4804E-04  0.0000E+00  0.2000E+02  0.2000E+02
    -15.038  0.7957E-02  0.8582E-03  0.2000E+02  0.2000E+02
    -14.790  0.9666E+00  0.1193E+00  0.2024E+02  0.2003E+02
    -14.543  0.1359E+02  0.5798E+01  0.2360E+02  0.2146E+02
    -14.296  0.2342E+02  0.2001E+02  0.2941E+02  0.2641E+02
    -14.048  0.9936E+01  0.1993E+02  0.3193E+02  0.3138E+02
    -13.801  0.9190E-01  0.2337E+01  0.3200E+02  0.3199E+02
    -13.554  0.0000E+00  0.0000E+00  0.3200E+02  0.3200E+02
    -13.307  0.0000E+00  0.0000E+00  0.3200E+02  0.3200E+02
    -13.059  0.0000E+00  0.0000E+00  0.3200E+02  0.3200E+02
    -12.812  0.0000E+00  0.0000E+00  0.3200E+02  0.3200E+02
    -12.565  0.0000E+00  0.0000E+00  0.3200E+02  0.3200E+02
    -12.317  0.0000E+00  0.0000E+00  0.3200E+02  0.3200E+02
    -12.070  0.0000E+00  0.0000E+00  0.3200E+02  0.3200E+02
    -11.823  0.0000E+00  0.0000E+00  0.3200E+02  0.3200E+02
    -11.575  0.0000E+00  0.0000E+00  0.3200E+02  0.3200E+02
    -11.328  0.0000E+00  0.0000E+00  0.3200E+02  0.3200E+02
    -11.081  0.0000E+00  0.0000E+00  0.3200E+02  0.3200E+02
    -10.834  0.0000E+00  0.0000E+00  0.3200E+02  0.3200E+02
    -10.586  0.0000E+00  0.0000E+00  0.3200E+02  0.3200E+02
    -10.339  0.0000E+00  0.0000E+00  0.3200E+02  0.3200E+02
    -10.092  0.0000E+00  0.0000E+00  0.3200E+02  0.3200E+02
     -9.844  0.0000E+00  0.0000E+00  0.3200E+02  0.3200E+02
     -9.597  0.0000E+00  0.0000E+00  0.3200E+02  0.3200E+02
     -9.350  0.0000E+00  0.0000E+00  0.3200E+02  0.3200E+02
     -9.102  0.0000E+00  0.0000E+00  0.3200E+02  0.3200E+02
     -8.855  0.0000E+00  0.0000E+00  0.3200E+02  0.3200E+02
     -8.608  0.0000E+00  0.0000E+00  0.3200E+02  0.3200E+02
     -8.360  0.0000E+00  0.0000E+00  0.3200E+02  0.3200E+02
     -8.113  0.0000E+00  0.0000E+00  0.3200E+02  0.3200E+02
     -7.866  0.0000E+00  0.0000E+00  0.3200E+02  0.3200E+02
     -7.619  0.0000E+00  0.0000E+00  0.3200E+02  0.3200E+02
     -7.371  0.0000E+00  0.0000E+00  0.3200E+02  0.3200E+02
     -7.124  0.0000E+00  0.0000E+00  0.3200E+02  0.3200E+02
     -6.877  0.0000E+00  0.0000E+00  0.3200E+02  0.3200E+02
     -6.629  0.0000E+00  0.0000E+00  0.3200E+02  0.3200E+02
     -6.382  0.0000E+00  0.0000E+00  0.3200E+02  0.3200E+02
     -6.135  0.0000E+00  0.0000E+00  0.3200E+02  0.3200E+02
     -5.887  0.0000E+00  0.0000E+00  0.3200E+02  0.3200E+02
     -5.640  0.0000E+00  0.0000E+00  0.3200E+02  0.3200E+02
     -5.393  0.0000E+00  0.0000E+00  0.3200E+02  0.3200E+02
     -5.146  0.0000E+00  0.0000E+00  0.3200E+02  0.3200E+02
     -4.898  0.8365E-06  0.0000E+00  0.3200E+02  0.3200E+02
     -4.651  0.2593E-03  0.4661E-05  0.3200E+02  0.3200E+02
     -4.404  0.3460E-01  0.7958E-03  0.3201E+02  0.3200E+02
     -4.156  0.1030E+01  0.9563E-01  0.3226E+02  0.3202E+02
     -3.909  0.3453E+01  0.1477E+01  0.3312E+02  0.3239E+02
     -3.662  0.7104E+01  0.3984E+01  0.3488E+02  0.3338E+02
     -3.414  0.4320E+01  0.7934E+01  0.3596E+02  0.3535E+02
     -3.167  0.1141E+00  0.2546E+01  0.3601E+02  0.3599E+02
     -2.920  0.4785E+00  0.3291E-01  0.3612E+02  0.3601E+02
     -2.673  0.1788E+01  0.5626E+00  0.3657E+02  0.3615E+02
     -2.425  0.4155E+01  0.1953E+01  0.3760E+02  0.3663E+02
     -2.178  0.6756E+01  0.4435E+01  0.3928E+02  0.3773E+02
     -1.931  0.8695E+01  0.7787E+01  0.4144E+02  0.3967E+02
     -1.683  0.7583E+01  0.8183E+01  0.4334E+02  0.4171E+02
     -1.436  0.9400E+01  0.7754E+01  0.4568E+02  0.4365E+02
     -1.189  0.7475E+01  0.1059E+02  0.4755E+02  0.4629E+02
     -0.941  0.1516E+01  0.5648E+01  0.4797E+02  0.4771E+02
     -0.694  0.1893E+01  0.1061E+01  0.4844E+02  0.4799E+02
     -0.447  0.5300E+01  0.1140E+01  0.4975E+02  0.4828E+02
     -0.199  0.6427E+01  0.4469E+01  0.5135E+02  0.4938E+02
      0.048  0.9646E+01  0.6454E+01  0.5375E+02  0.5099E+02
      0.295  0.9997E+01  0.8622E+01  0.5624E+02  0.5314E+02
      0.542  0.8158E+01  0.9485E+01  0.5828E+02  0.5550E+02
      0.790  0.6740E+01  0.9230E+01  0.5997E+02  0.5780E+02
      1.037  0.9533E+01  0.7446E+01  0.6234E+02  0.5966E+02
      1.284  0.8934E+01  0.9417E+01  0.6458E+02  0.6201E+02
      1.532  0.9990E+01  0.6860E+01  0.6707E+02  0.6373E+02
      1.779  0.5442E+01  0.9108E+01  0.6844E+02  0.6600E+02
      2.026  0.7018E+01  0.8543E+01  0.7019E+02  0.6813E+02
      2.274  0.1317E+02  0.4901E+01  0.7346E+02  0.6936E+02
      2.521  0.1034E+02  0.9412E+01  0.7605E+02  0.7170E+02
      2.768  0.7787E+01  0.1353E+02  0.7800E+02  0.7506E+02
      3.015  0.4814E+01  0.9405E+01  0.7921E+02  0.7743E+02
      3.263  0.2669E+01  0.5736E+01  0.7988E+02  0.7887E+02
      3.510  0.4558E+00  0.3972E+01  0.8000E+02  0.7987E+02
      3.757  0.1062E+01  0.4836E+00  0.8026E+02  0.8000E+02
      4.005  0.9489E+01  0.0000E+00  0.8261E+02  0.8000E+02
      4.252  0.9158E+01  0.0000E+00  0.8490E+02  0.8000E+02
      4.499  0.8006E+01  0.0000E+00  0.8690E+02  0.8000E+02
      4.747  0.5220E+01  0.0000E+00  0.8821E+02  0.8000E+02
      4.994  0.1210E+02  0.0000E+00  0.9122E+02  0.8000E+02
      5.241  0.9790E+01  0.0000E+00  0.9366E+02  0.8000E+02
      5.488  0.6672E+01  0.0000E+00  0.9532E+02  0.8000E+02
      5.736  0.4769E+01  0.0000E+00  0.9652E+02  0.8000E+02
      5.983  0.8318E+01  0.0000E+00  0.9859E+02  0.8000E+02
      6.230  0.5511E+01  0.0000E+00  0.9997E+02  0.8000E+02
      6.478  0.7986E-02  0.1699E-04  0.1000E+03  0.8000E+02
      6.725  0.0000E+00  0.3922E-02  0.1000E+03  0.8000E+02
      6.972  0.0000E+00  0.4987E+00  0.1000E+03  0.8012E+02
      7.220  0.0000E+00  0.1066E+02  0.1000E+03  0.8276E+02
      7.467  0.0000E+00  0.9012E+01  0.1000E+03  0.8499E+02
      7.714  0.0000E+00  0.1360E+02  0.1000E+03  0.8837E+02
      7.961  0.0000E+00  0.1292E+02  0.1000E+03  0.9161E+02
      8.209  0.0000E+00  0.1363E+01  0.1000E+03  0.9200E+02
      8.456  0.0000E+00  0.1038E+01  0.1000E+03  0.9226E+02
      8.703  0.0000E+00  0.8662E+01  0.1000E+03  0.9440E+02
      8.951  0.0000E+00  0.6120E+01  0.1000E+03  0.9594E+02
      9.198  0.1116E-06  0.7509E+01  0.1000E+03  0.9781E+02
      9.445  0.2505E-04  0.8366E+01  0.1000E+03  0.9989E+02
      9.693  0.3284E-02  0.3196E+00  0.1000E+03  0.1000E+03
      9.940  0.7792E-01  0.1788E-03  0.1000E+03  0.1000E+03
     10.187  0.2145E+00  0.1753E-01  0.1001E+03  0.1000E+03
     10.435  0.3402E+00  0.1503E+00  0.1002E+03  0.1000E+03
     10.682  0.4312E+00  0.2776E+00  0.1003E+03  0.1001E+03
     10.929  0.6179E+00  0.4092E+00  0.1004E+03  0.1002E+03
     11.176  0.7776E+00  0.5661E+00  0.1006E+03  0.1004E+03
     11.424  0.1129E+01  0.7228E+00  0.1009E+03  0.1005E+03
     11.671  0.1597E+01  0.1114E+01  0.1013E+03  0.1008E+03
     11.918  0.1722E+01  0.1603E+01  0.1017E+03  0.1012E+03
     12.166  0.2622E+01  0.1760E+01  0.1024E+03  0.1016E+03
     12.413  0.3950E+01  0.2462E+01  0.1034E+03  0.1023E+03
     12.660  0.3330E+01  0.3617E+01  0.1042E+03  0.1032E+03
     12.908  0.3549E+01  0.3440E+01  0.1051E+03  0.1040E+03
     13.155  0.6198E+01  0.4045E+01  0.1066E+03  0.1050E+03
     13.402  0.5491E+01  0.5765E+01  0.1080E+03  0.1065E+03
     13.649  0.3748E+01  0.5248E+01  0.1089E+03  0.1078E+03
     13.897  0.3639E+01  0.3601E+01  0.1098E+03  0.1087E+03
     14.144  0.5020E+01  0.3223E+01  0.1111E+03  0.1095E+03
     14.391  0.5598E+01  0.4101E+01  0.1125E+03  0.1105E+03
     14.639  0.6280E+01  0.5664E+01  0.1140E+03  0.1119E+03
     14.886  0.5500E+01  0.6618E+01  0.1154E+03  0.1136E+03
     15.133  0.4690E+01  0.6297E+01  0.1166E+03  0.1151E+03
     15.381  0.3853E+01  0.5602E+01  0.1176E+03  0.1165E+03
     15.628  0.3398E+01  0.3715E+01  0.1184E+03  0.1175E+03
     15.875  0.4677E+01  0.3094E+01  0.1196E+03  0.1182E+03
     16.122  0.5513E+01  0.4397E+01  0.1209E+03  0.1193E+03
     16.370  0.5162E+01  0.4884E+01  0.1222E+03  0.1206E+03
     16.617  0.4496E+01  0.5847E+01  0.1234E+03  0.1220E+03
     16.864  0.2952E+01  0.4107E+01  0.1241E+03  0.1230E+03
     17.112  0.3688E+01  0.3792E+01  0.1250E+03  0.1240E+03
     17.359  0.5012E+01  0.3277E+01  0.1263E+03  0.1248E+03
     17.606  0.4895E+01  0.5192E+01  0.1275E+03  0.1261E+03
     17.854  0.1881E+01  0.5046E+01  0.1280E+03  0.1274E+03
     18.101  0.1132E+00  0.2235E+01  0.1280E+03  0.1279E+03
     18.348  0.0000E+00  0.2759E+00  0.1280E+03  0.1280E+03
     18.595  0.0000E+00  0.0000E+00  0.1280E+03  0.1280E+03
     18.843  0.0000E+00  0.0000E+00  0.1280E+03  0.1280E+03
     19.090  0.0000E+00  0.0000E+00  0.1280E+03  0.1280E+03
     19.337  0.0000E+00  0.0000E+00  0.1280E+03  0.1280E+03
     19.585  0.0000E+00  0.0000E+00  0.1280E+03  0.1280E+03
     19.832  0.0000E+00  0.0000E+00  0.1280E+03  0.1280E+03
     20.079  0.0000E+00  0.0000E+00  0.1280E+03  0.1280E+03
     20.327  0.0000E+00  0.0000E+00  0.1280E+03  0.1280E+03
     20.574  0.0000E+00  0.0000E+00  0.1280E+03  0.1280E+03
     20.821  0.0000E+00  0.0000E+00  0.1280E+03  0.1280E+03
     21.069  0.0000E+00  0.0000E+00  0.1280E+03  0.1280E+03
     21.316  0.0000E+00  0.0000E+00  0.1280E+03  0.1280E+03
     21.563  0.0000E+00  0.0000E+00  0.1280E+03  0.1280E+03
     21.56311798    -52.62761141  301      7.34568630      1.00000000
    -52.628  0.0000E+00  0.0000E+00  0.0000E+00  0.0000E+00  0.0000E+00  0.0000E+00  0.0000E+00  0.0000E+00  0.0000E+00  0.0000E+00  0.0000E+00  0.0000E+00  0.0000E+00  0.0000E+00  0.0000E+00  0.0000E+00  0.0000E+00  0.0000E+00
    -52.380  0.0000E+00  0.0000E+00  0.0000E+00  0.0000E+00  0.0000E+00  0.0000E+00  0.0000E+00  0.0000E+00  0.0000E+00  0.0000E+00  0.0000E+00  0.0000E+00  0.0000E+00  0.0000E+00  0.0000E+00  0.0000E+00  0.0000E+00  0.0000E+00
    -52.133  0.0000E+00  0.0000E+00  0.0000E+00  0.0000E+00  0.0000E+00  0.0000E+00  0.0000E+00  0.0000E+00  0.0000E+00  0.0000E+00  0.0000E+00  0.0000E+00  0.0000E+00  0.0000E+00  0.0000E+00  0.0000E+00  0.0000E+00  0.0000E+00
    -51.886  0.0000E+00  0.0000E+00  0.0000E+00  0.0000E+00  0.0000E+00  0.0000E+00  0.0000E+00  0.0000E+00  0.0000E+00  0.0000E+00  0.0000E+00  0.0000E+00  0.0000E+00  0.0000E+00  0.0000E+00  0.0000E+00  0.0000E+00  0.0000E+00
    -51.638  0.0000E+00  0.0000E+00  0.0000E+00  0.0000E+00  0.0000E+00  0.0000E+00  0.0000E+00  0.0000E+00  0.0000E+00  0.0000E+00  0.0000E+00  0.0000E+00  0.0000E+00  0.0000E+00  0.0000E+00  0.0000E+00  0.0000E+00  0.0000E+00
    -51.391  0.0000E+00  0.0000E+00  0.0000E+00  0.0000E+00  0.0000E+00  0.0000E+00  0.0000E+00  0.0000E+00  0.0000E+00  0.0000E+00  0.0000E+00  0.0000E+00  0.0000E+00  0.0000E+00  0.0000E+00  0.0000E+00  0.0000E+00  0.0000E+00
    -51.144  0.0000E+00  0.0000E+00  0.0000E+00  0.0000E+00  0.0000E+00  0.0000E+00  0.0000E+00  0.0000E+00  0.0000E+00  0.0000E+00  0.0000E+00  0.0000E+00  0.0000E+00  0.0000E+00  0.0000E+00  0.0000E+00  0.0000E+00  0.0000E+00
    -50.896  0.0000E+00  0.0000E+00  0.0000E+00  0.0000E+00  0.0000E+00  0.0000E+00  0.0000E+00  0.0000E+00  0.0000E+00  0.0000E+00  0.0000E+00  0.0000E+00  0.0000E+00  0.0000E+00  0.0000E+00  0.0000E+00  0.0000E+00  0.0000E+00
    -50.649  0.0000E+00  0.0000E+00  0.0000E+00  0.0000E+00  0.0000E+00  0.0000E+00  0.0000E+00  0.0000E+00  0.0000E+00  0.0000E+00  0.0000E+00  0.0000E+00  0.0000E+00  0.0000E+00  0.0000E+00  0.0000E+00  0.0000E+00  0.0000E+00
    -50.402  0.0000E+00  0.0000E+00  0.0000E+00  0.0000E+00  0.0000E+00  0.0000E+00  0.0000E+00  0.0000E+00  0.0000E+00  0.0000E+00  0.0000E+00  0.0000E+00  0.0000E+00  0.0000E+00  0.0000E+00  0.0000E+00  0.0000E+00  0.0000E+00
    -50.155  0.0000E+00  0.0000E+00  0.0000E+00  0.0000E+00  0.0000E+00  0.0000E+00  0.0000E+00  0.0000E+00  0.0000E+00  0.0000E+00  0.0000E+00  0.0000E+00  0.0000E+00  0.0000E+00  0.0000E+00  0.0000E+00  0.0000E+00  0.0000E+00
    -49.907  0.0000E+00  0.0000E+00  0.0000E+00  0.0000E+00  0.0000E+00  0.0000E+00  0.0000E+00  0.0000E+00  0.0000E+00  0.0000E+00  0.0000E+00  0.0000E+00  0.0000E+00  0.0000E+00  0.0000E+00  0.0000E+00  0.0000E+00  0.0000E+00
    -49.660  0.2009E-10  0.0000E+00  0.2160E-11  0.0000E+00  0.9034E-12  0.0000E+00  0.5923E-12  0.0000E+00  0.0000E+00  0.0000E+00  0.0000E+00  0.0000E+00  0.0000E+00  0.0000E+00  0.0000E+00  0.0000E+00  0.0000E+00  0.0000E+00
    -49.413  0.2692E-08  0.0000E+00  0.2896E-09  0.0000E+00  0.1211E-09  0.0000E+00  0.7939E-10  0.0000E+00  0.0000E+00  0.0000E+00  0.0000E+00  0.0000E+00  0.0000E+00  0.0000E+00  0.0000E+00  0.0000E+00  0.0000E+00  0.0000E+00
    -49.165  0.5484E-07  0.0000E+00  0.5952E-08  0.0000E+00  0.2482E-08  0.0000E+00  0.1628E-08  0.0000E+00  0.0000E+00  0.0000E+00  0.0000E+00  0.0000E+00  0.0000E+00  0.0000E+00  0.0000E+00  0.0000E+00  0.0000E+00  0.0000E+00
    -48.918  0.9693E-08  0.0000E+00  0.1060E-08  0.0000E+00  0.4414E-09  0.0000E+00  0.2895E-09  0.0000E+00  0.0000E+00  0.0000E+00  0.0000E+00  0.0000E+00  0.0000E+00  0.0000E+00  0.0000E+00  0.0000E+00  0.0000E+00  0.0000E+00
    -48.671  0.3796E-08  0.0000E+00  0.5504E-10  0.0000E+00  0.1051E-09  0.0000E+00  0.4244E-10  0.0000E+00  0.0000E+00  0.0000E+00  0.0000E+00  0.0000E+00  0.0000E+00  0.0000E+00  0.0000E+00  0.0000E+00  0.0000E+00  0.0000E+00
    -48.423  0.1979E-06  0.0000E+00  0.2873E-08  0.0000E+00  0.5484E-08  0.0000E+00  0.2214E-08  0.0000E+00  0.0000E+00  0.0000E+00  0.0000E+00  0.0000E+00  0.0000E+00  0.0000E+00  0.0000E+00  0.0000E+00  0.0000E+00  0.0000E+00
    -48.176  0.1182E-06  0.0000E+00  0.1753E-08  0.0000E+00  0.3305E-08  0.0000E+00  0.1380E-08  0.0000E+00  0.0000E+00  0.0000E+00  0.0000E+00  0.0000E+00  0.0000E+00  0.0000E+00  0.0000E+00  0.0000E+00  0.0000E+00  0.0000E+00
    -47.929  0.2898E-07  0.0000E+00  0.1975E-08  0.0000E+00  0.1961E-08  0.0000E+00  0.2836E-08  0.0000E+00  0.0000E+00  0.0000E+00  0.0000E+00  0.0000E+00  0.0000E+00  0.0000E+00  0.0000E+00  0.0000E+00  0.0000E+00  0.0000E+00
    -47.682  0.1333E-07  0.0000E+00  0.9085E-09  0.0000E+00  0.9024E-09  0.0000E+00  0.1306E-08  0.0000E+00  0.0000E+00  0.0000E+00  0.0000E+00  0.0000E+00  0.0000E+00  0.0000E+00  0.0000E+00  0.0000E+00  0.0000E+00  0.0000E+00
    -47.434  0.0000E+00  0.0000E+00  0.0000E+00  0.0000E+00  0.0000E+00  0.0000E+00  0.0000E+00  0.0000E+00  0.0000E+00  0.0000E+00  0.0000E+00  0.0000E+00  0.0000E+00  0.0000E+00  0.0000E+00  0.0000E+00  0.0000E+00  0.0000E+00
    -47.187  0.0000E+00  0.0000E+00  0.0000E+00  0.0000E+00  0.0000E+00  0.0000E+00  0.0000E+00  0.0000E+00  0.0000E+00  0.0000E+00  0.0000E+00  0.0000E+00  0.0000E+00  0.0000E+00  0.0000E+00  0.0000E+00  0.0000E+00  0.0000E+00
    -46.940  0.0000E+00  0.0000E+00  0.0000E+00  0.0000E+00  0.0000E+00  0.0000E+00  0.0000E+00  0.0000E+00  0.0000E+00  0.0000E+00  0.0000E+00  0.0000E+00  0.0000E+00  0.0000E+00  0.0000E+00  0.0000E+00  0.0000E+00  0.0000E+00
    -46.692  0.0000E+00  0.0000E+00  0.0000E+00  0.0000E+00  0.0000E+00  0.0000E+00  0.0000E+00  0.0000E+00  0.0000E+00  0.0000E+00  0.0000E+00  0.0000E+00  0.0000E+00  0.0000E+00  0.0000E+00  0.0000E+00  0.0000E+00  0.0000E+00
    -46.445  0.0000E+00  0.0000E+00  0.0000E+00  0.0000E+00  0.0000E+00  0.0000E+00  0.0000E+00  0.0000E+00  0.0000E+00  0.0000E+00  0.0000E+00  0.0000E+00  0.0000E+00  0.0000E+00  0.0000E+00  0.0000E+00  0.0000E+00  0.0000E+00
    -46.198  0.0000E+00  0.0000E+00  0.0000E+00  0.0000E+00  0.0000E+00  0.0000E+00  0.0000E+00  0.0000E+00  0.0000E+00  0.0000E+00  0.0000E+00  0.0000E+00  0.0000E+00  0.0000E+00  0.0000E+00  0.0000E+00  0.0000E+00  0.0000E+00
    -45.950  0.0000E+00  0.0000E+00  0.0000E+00  0.0000E+00  0.0000E+00  0.0000E+00  0.0000E+00  0.0000E+00  0.0000E+00  0.0000E+00  0.0000E+00  0.0000E+00  0.0000E+00  0.0000E+00  0.0000E+00  0.0000E+00  0.0000E+00  0.0000E+00
    -45.703  0.0000E+00  0.0000E+00  0.0000E+00  0.0000E+00  0.0000E+00  0.0000E+00  0.0000E+00  0.0000E+00  0.0000E+00  0.0000E+00  0.0000E+00  0.0000E+00  0.0000E+00  0.0000E+00  0.0000E+00  0.0000E+00  0.0000E+00  0.0000E+00
    -45.456  0.0000E+00  0.0000E+00  0.0000E+00  0.0000E+00  0.0000E+00  0.0000E+00  0.0000E+00  0.0000E+00  0.0000E+00  0.0000E+00  0.0000E+00  0.0000E+00  0.0000E+00  0.0000E+00  0.0000E+00  0.0000E+00  0.0000E+00  0.0000E+00
    -45.209  0.0000E+00  0.6224E-10  0.0000E+00  0.1475E-11  0.0000E+00  0.1224E-11  0.0000E+00  0.5904E-12  0.0000E+00  0.0000E+00  0.0000E+00  0.0000E+00  0.0000E+00  0.0000E+00  0.0000E+00  0.0000E+00  0.0000E+00  0.0000E+00
    -44.961  0.0000E+00  0.8734E-08  0.0000E+00  0.2020E-09  0.0000E+00  0.1693E-09  0.0000E+00  0.8099E-10  0.0000E+00  0.0000E+00  0.0000E+00  0.0000E+00  0.0000E+00  0.0000E+00  0.0000E+00  0.0000E+00  0.0000E+00  0.0000E+00
    -44.714  0.0000E+00  0.3002E-06  0.0000E+00  0.6519E-08  0.0000E+00  0.5575E-08  0.0000E+00  0.2613E-08  0.0000E+00  0.0000E+00  0.0000E+00  0.0000E+00  0.0000E+00  0.0000E+00  0.0000E+00  0.0000E+00  0.0000E+00  0.0000E+00
    -44.467  0.0000E+00  0.1152E-05  0.0000E+00  0.6464E-08  0.0000E+00  0.1240E-07  0.0000E+00  0.3628E-08  0.0000E+00  0.0000E+00  0.0000E+00  0.0000E+00  0.0000E+00  0.0000E+00  0.0000E+00  0.0000E+00  0.0000E+00  0.0000E+00
    -44.219  0.0000E+00  0.5378E-06  0.0000E+00  0.6216E-08  0.0000E+00  0.1097E-07  0.0000E+00  0.1124E-07  0.0000E+00  0.0000E+00  0.0000E+00  0.0000E+00  0.0000E+00  0.0000E+00  0.0000E+00  0.0000E+00  0.0000E+00  0.0000E+00
    -43.972  0.0000E+00  0.2505E-07  0.0000E+00  0.5310E-09  0.0000E+00  0.8477E-09  0.0000E+00  0.1124E-08  0.0000E+00  0.0000E+00  0.0000E+00  0.0000E+00  0.0000E+00  0.0000E+00  0.0000E+00  0.0000E+00  0.0000E+00  0.0000E+00
    -43.725  0.0000E+00  0.0000E+00  0.0000E+00  0.0000E+00  0.0000E+00  0.0000E+00  0.0000E+00  0.0000E+00  0.0000E+00  0.0000E+00  0.0000E+00  0.0000E+00  0.0000E+00  0.0000E+00  0.0000E+00  0.0000E+00  0.0000E+00  0.0000E+00
    -43.477  0.0000E+00  0.0000E+00  0.0000E+00  0.0000E+00  0.0000E+00  0.0000E+00  0.0000E+00  0.0000E+00  0.0000E+00  0.0000E+00  0.0000E+00  0.0000E+00  0.0000E+00  0.0000E+00  0.0000E+00  0.0000E+00  0.0000E+00  0.0000E+00
    -43.230  0.0000E+00  0.0000E+00  0.0000E+00  0.0000E+00  0.0000E+00  0.0000E+00  0.0000E+00  0.0000E+00  0.0000E+00  0.0000E+00  0.0000E+00  0.0000E+00  0.0000E+00  0.0000E+00  0.0000E+00  0.0000E+00  0.0000E+00  0.0000E+00
    -42.983  0.0000E+00  0.0000E+00  0.0000E+00  0.0000E+00  0.0000E+00  0.0000E+00  0.0000E+00  0.0000E+00  0.0000E+00  0.0000E+00  0.0000E+00  0.0000E+00  0.0000E+00  0.0000E+00  0.0000E+00  0.0000E+00  0.0000E+00  0.0000E+00
    -42.736  0.0000E+00  0.0000E+00  0.0000E+00  0.0000E+00  0.0000E+00  0.0000E+00  0.0000E+00  0.0000E+00  0.0000E+00  0.0000E+00  0.0000E+00  0.0000E+00  0.0000E+00  0.0000E+00  0.0000E+00  0.0000E+00  0.0000E+00  0.0000E+00
    -42.488  0.0000E+00  0.0000E+00  0.0000E+00  0.0000E+00  0.0000E+00  0.0000E+00  0.0000E+00  0.0000E+00  0.0000E+00  0.0000E+00  0.0000E+00  0.0000E+00  0.0000E+00  0.0000E+00  0.0000E+00  0.0000E+00  0.0000E+00  0.0000E+00
    -42.241  0.0000E+00  0.0000E+00  0.0000E+00  0.0000E+00  0.0000E+00  0.0000E+00  0.0000E+00  0.0000E+00  0.0000E+00  0.0000E+00  0.0000E+00  0.0000E+00  0.0000E+00  0.0000E+00  0.0000E+00  0.0000E+00  0.0000E+00  0.0000E+00
    -41.994  0.0000E+00  0.0000E+00  0.0000E+00  0.0000E+00  0.0000E+00  0.0000E+00  0.0000E+00  0.0000E+00  0.0000E+00  0.0000E+00  0.0000E+00  0.0000E+00  0.0000E+00  0.0000E+00  0.0000E+00  0.0000E+00  0.0000E+00  0.0000E+00
    -41.746  0.0000E+00  0.0000E+00  0.0000E+00  0.0000E+00  0.0000E+00  0.0000E+00  0.0000E+00  0.0000E+00  0.0000E+00  0.0000E+00  0.0000E+00  0.0000E+00  0.0000E+00  0.0000E+00  0.0000E+00  0.0000E+00  0.0000E+00  0.0000E+00
    -41.499  0.0000E+00  0.0000E+00  0.0000E+00  0.0000E+00  0.0000E+00  0.0000E+00  0.0000E+00  0.0000E+00  0.0000E+00  0.0000E+00  0.0000E+00  0.0000E+00  0.0000E+00  0.0000E+00  0.0000E+00  0.0000E+00  0.0000E+00  0.0000E+00
    -41.252  0.0000E+00  0.0000E+00  0.0000E+00  0.0000E+00  0.0000E+00  0.0000E+00  0.0000E+00  0.0000E+00  0.0000E+00  0.0000E+00  0.0000E+00  0.0000E+00  0.0000E+00  0.0000E+00  0.0000E+00  0.0000E+00  0.0000E+00  0.0000E+00
    -41.004  0.0000E+00  0.0000E+00  0.0000E+00  0.0000E+00  0.0000E+00  0.0000E+00  0.0000E+00  0.0000E+00  0.0000E+00  0.0000E+00  0.0000E+00  0.0000E+00  0.0000E+00  0.0000E+00  0.0000E+00  0.0000E+00  0.0000E+00  0.0000E+00
    -40.757  0.0000E+00  0.0000E+00  0.0000E+00  0.0000E+00  0.0000E+00  0.0000E+00  0.0000E+00  0.0000E+00  0.0000E+00  0.0000E+00  0.0000E+00  0.0000E+00  0.0000E+00  0.0000E+00  0.0000E+00  0.0000E+00  0.0000E+00  0.0000E+00
    -40.510  0.0000E+00  0.0000E+00  0.0000E+00  0.0000E+00  0.0000E+00  0.0000E+00  0.0000E+00  0.0000E+00  0.0000E+00  0.0000E+00  0.0000E+00  0.0000E+00  0.0000E+00  0.0000E+00  0.0000E+00  0.0000E+00  0.0000E+00  0.0000E+00
    -40.262  0.0000E+00  0.0000E+00  0.0000E+00  0.0000E+00  0.0000E+00  0.0000E+00  0.0000E+00  0.0000E+00  0.0000E+00  0.0000E+00  0.0000E+00  0.0000E+00  0.0000E+00  0.0000E+00  0.0000E+00  0.0000E+00  0.0000E+00  0.0000E+00