   8   8   1   0
  0.1048251E+02  0.4377086E-09  0.4377086E-09  0.4377086E-09  0.5000000E-15
  1.000000000000000E-004
  CAR 
 unknown system                          
     16.48135609    -40.03739940  301      3.10672247      1.00000000
    -40.037  0.0000E+00  0.0000E+00  0.0000E+00  0.0000E+00
    -39.849  0.0000E+00  0.0000E+00  0.0000E+00  0.0000E+00
    -39.661  0.0000E+00  0.0000E+00  0.0000E+00  0.0000E+00
    -39.472  0.0000E+00  0.0000E+00  0.0000E+00  0.0000E+00
    -39.284  0.0000E+00  0.0000E+00  0.0000E+00  0.0000E+00
    -39.095  0.0000E+00  0.0000E+00  0.0000E+00  0.0000E+00
    -38.907  0.0000E+00  0.0000E+00  0.0000E+00  0.0000E+00
    -38.719  0.0000E+00  0.0000E+00  0.0000E+00  0.0000E+00
    -38.530  0.0000E+00  0.0000E+00  0.0000E+00  0.0000E+00
    -38.342  0.0000E+00  0.0000E+00  0.0000E+00  0.0000E+00
    -38.153  0.0000E+00  0.0000E+00  0.0000E+00  0.0000E+00
    -37.965  0.1749E-02  0.1751E-02  0.3295E-03  0.3298E-03
    -37.777  0.7388E-01  0.7394E-01  0.1425E-01  0.1426E-01
    -37.588  0.3030E+01  0.3032E+01  0.5850E+00  0.5855E+00
    -37.400  0.4011E+02  0.4012E+02  0.8141E+01  0.8143E+01
    -37.211  0.1978E+02  0.1977E+02  0.1187E+02  0.1187E+02
    -37.023  0.1160E+00  0.1159E+00  0.1200E+02  0.1200E+02
    -36.835  0.0000E+00  0.0000E+00  0.1200E+02  0.1200E+02
    -36.646  0.0000E+00  0.0000E+00  0.1200E+02  0.1200E+02
    -36.458  0.0000E+00  0.0000E+00  0.1200E+02  0.1200E+02
    -36.269  0.0000E+00  0.0000E+00  0.1200E+02  0.1200E+02
    -36.081  0.0000E+00  0.0000E+00  0.1200E+02  0.1200E+02
    -35.893  0.0000E+00  0.0000E+00  0.1200E+02  0.1200E+02
    -35.704  0.0000E+00  0.0000E+00  0.1200E+02  0.1200E+02
    -35.516  0.0000E+00  0.0000E+00  0.1200E+02  0.1200E+02
    -35.328  0.0000E+00  0.0000E+00  0.1200E+02  0.1200E+02
    -35.139  0.0000E+00  0.0000E+00  0.1200E+02  0.1200E+02
    -34.951  0.0000E+00  0.0000E+00  0.1200E+02  0.1200E+02
    -34.762  0.0000E+00  0.0000E+00  0.1200E+02  0.1200E+02
    -34.574  0.0000E+00  0.0000E+00  0.1200E+02  0.1200E+02
    -34.386  0.0000E+00  0.0000E+00  0.1200E+02  0.1200E+02
    -34.197  0.0000E+00  0.0000E+00  0.1200E+02  0.1200E+02
    -34.009  0.0000E+00  0.0000E+00  0.1200E+02  0.1200E+02
    -33.820  0.0000E+00  0.0000E+00  0.1200E+02  0.1200E+02
    -33.632  0.0000E+00  0.0000E+00  0.1200E+02  0.1200E+02
    -33.444  0.0000E+00  0.0000E+00  0.1200E+02  0.1200E+02
    -33.255  0.0000E+00  0.0000E+00  0.1200E+02  0.1200E+02
    -33.067  0.0000E+00  0.0000E+00  0.1200E+02  0.1200E+02
    -32.878  0.0000E+00  0.0000E+00  0.1200E+02  0.1200E+02
    -32.690  0.0000E+00  0.0000E+00  0.1200E+02  0.1200E+02
    -32.502  0.0000E+00  0.0000E+00  0.1200E+02  0.1200E+02
    -32.313  0.0000E+00  0.0000E+00  0.1200E+02  0.1200E+02
    -32.125  0.0000E+00  0.0000E+00  0.1200E+02  0.1200E+02
    -31.936  0.0000E+00  0.0000E+00  0.1200E+02  0.1200E+02
    -31.748  0.0000E+00  0.0000E+00  0.1200E+02  0.1200E+02
    -31.560  0.0000E+00  0.0000E+00  0.1200E+02  0.1200E+02
    -31.371  0.0000E+00  0.0000E+00  0.1200E+02  0.1200E+02
    -31.183  0.0000E+00  0.0000E+00  0.1200E+02  0.1200E+02
    -30.994  0.0000E+00  0.0000E+00  0.1200E+02  0.1200E+02
    -30.806  0.0000E+00  0.0000E+00  0.1200E+02  0.1200E+02
    -30.618  0.0000E+00  0.0000E+00  0.1200E+02  0.1200E+02
    -30.429  0.0000E+00  0.0000E+00  0.1200E+02  0.1200E+02
    -30.241  0.0000E+00  0.0000E+00  0.1200E+02  0.1200E+02
    -30.052  0.0000E+00  0.0000E+00  0.1200E+02  0.1200E+02
    -29.864  0.0000E+00  0.0000E+00  0.1200E+02  0.1200E+02
    -29.676  0.0000E+00  0.0000E+00  0.1200E+02  0.1200E+02
    -29.487  0.0000E+00  0.0000E+00  0.1200E+02  0.1200E+02
    -29.299  0.0000E+00  0.0000E+00  0.1200E+02  0.1200E+02
    -29.110  0.0000E+00  0.0000E+00  0.1200E+02  0.1200E+02
    -28.922  0.0000E+00  0.0000E+00  0.1200E+02  0.1200E+02
    -28.734  0.0000E+00  0.0000E+00  0.1200E+02  0.1200E+02
    -28.545  0.0000E+00  0.0000E+00  0.1200E+02  0.1200E+02
    -28.357  0.0000E+00  0.0000E+00  0.1200E+02  0.1200E+02
    -28.168  0.0000E+00  0.0000E+00  0.1200E+02  0.1200E+02
    -27.980  0.0000E+00  0.0000E+00  0.1200E+02  0.1200E+02
    -27.792  0.0000E+00  0.0000E+00  0.1200E+02  0.1200E+02
    -27.603  0.0000E+00  0.0000E+00  0.1200E+02  0.1200E+02
    -27.415  0.0000E+00  0.0000E+00  0.1200E+02  0.1200E+02
    -27.226  0.0000E+00  0.0000E+00  0.1200E+02  0.1200E+02
    -27.038  0.0000E+00  0.0000E+00  0.1200E+02  0.1200E+02
    -26.850  0.0000E+00  0.0000E+00  0.1200E+02  0.1200E+02
    -26.661  0.0000E+00  0.0000E+00  0.1200E+02  0.1200E+02
    -26.473  0.0000E+00  0.0000E+00  0.1200E+02  0.1200E+02
    -26.285  0.0000E+00  0.0000E+00  0.1200E+02  0.1200E+02
    -26.096  0.0000E+00  0.0000E+00  0.1200E+02  0.1200E+02
    -25.908  0.0000E+00  0.0000E+00  0.1200E+02  0.1200E+02
    -25.719  0.0000E+00  0.0000E+00  0.1200E+02  0.1200E+02
    -25.531  0.0000E+00  0.0000E+00  0.1200E+02  0.1200E+02
    -25.343  0.0000E+00  0.0000E+00  0.1200E+02  0.1200E+02
    -25.154  0.0000E+00  0.0000E+00  0.1200E+02  0.1200E+02
    -24.966  0.0000E+00  0.0000E+00  0.1200E+02  0.1200E+02
    -24.777  0.0000E+00  0.0000E+00  0.1200E+02  0.1200E+02
    -24.589  0.0000E+00  0.0000E+00  0.1200E+02  0.1200E+02
    -24.401  0.0000E+00  0.0000E+00  0.1200E+02  0.1200E+02
    -24.212  0.0000E+00  0.0000E+00  0.1200E+02  0.1200E+02
    -24.024  0.0000E+00  0.0000E+00  0.1200E+02  0.1200E+02
    -23.835  0.0000E+00  0.0000E+00  0.1200E+02  0.1200E+02
    -23.647  0.0000E+00  0.0000E+00  0.1200E+02  0.1200E+02
    -23.459  0.0000E+00  0.0000E+00  0.1200E+02  0.1200E+02
    -23.270  0.0000E+00  0.0000E+00  0.1200E+02  0.1200E+02
    -23.082  0.0000E+00  0.0000E+00  0.1200E+02  0.1200E+02
    -22.893  0.0000E+00  0.0000E+00  0.1200E+02  0.1200E+02
    -22.705  0.0000E+00  0.0000E+00  0.1200E+02  0.1200E+02
    -22.517  0.0000E+00  0.0000E+00  0.1200E+02  0.1200E+02
    -22.328  0.0000E+00  0.0000E+00  0.1200E+02  0.1200E+02
    -22.140  0.0000E+00  0.0000E+00  0.1200E+02  0.1200E+02
    -21.951  0.0000E+00  0.0000E+00  0.1200E+02  0.1200E+02
    -21.763  0.0000E+00  0.0000E+00  0.1200E+02  0.1200E+02
    -21.575  0.0000E+00  0.0000E+00  0.1200E+02  0.1200E+02
    -21.386  0.0000E+00  0.0000E+00  0.1200E+02  0.1200E+02
    -21.198  0.0000E+00  0.0000E+00  0.1200E+02  0.1200E+02
    -21.009  0.0000E+00  0.0000E+00  0.1200E+02  0.1200E+02
    -20.821  0.0000E+00  0.0000E+00  0.1200E+02  0.1200E+02
    -20.633  0.0000E+00  0.0000E+00  0.1200E+02  0.1200E+02
    -20.444  0.0000E+00  0.0000E+00  0.1200E+02  0.1200E+02
    -20.256  0.0000E+00  0.0000E+00  0.1200E+02  0.1200E+02
    -20.067  0.0000E+00  0.0000E+00  0.1200E+02  0.1200E+02
    -19.879  0.0000E+00  0.0000E+00  0.1200E+02  0.1200E+02
    -19.691  0.0000E+00  0.0000E+00  0.1200E+02  0.1200E+02
    -19.502  0.0000E+00  0.0000E+00  0.1200E+02  0.1200E+02
    -19.314  0.0000E+00  0.0000E+00  0.1200E+02  0.1200E+02
    -19.125  0.0000E+00  0.0000E+00  0.1200E+02  0.1200E+02
    -18.937  0.0000E+00  0.0000E+00  0.1200E+02  0.1200E+02
    -18.749  0.0000E+00  0.0000E+00  0.1200E+02  0.1200E+02
    -18.560  0.0000E+00  0.0000E+00  0.1200E+02  0.1200E+02
    -18.372  0.0000E+00  0.0000E+00  0.1200E+02  0.1200E+02
    -18.183  0.0000E+00  0.0000E+00  0.1200E+02  0.1200E+02
    -17.995  0.0000E+00  0.0000E+00  0.1200E+02  0.1200E+02
    -17.807  0.0000E+00  0.0000E+00  0.1200E+02  0.1200E+02
    -17.618  0.0000E+00  0.0000E+00  0.1200E+02  0.1200E+02
    -17.430  0.0000E+00  0.0000E+00  0.1200E+02  0.1200E+02
    -17.242  0.0000E+00  0.0000E+00  0.1200E+02  0.1200E+02
    -17.053  0.0000E+00  0.0000E+00  0.1200E+02  0.1200E+02
    -16.865  0.0000E+00  0.0000E+00  0.1200E+02  0.1200E+02
    -16.676  0.0000E+00  0.0000E+00  0.1200E+02  0.1200E+02
    -16.488  0.0000E+00  0.0000E+00  0.1200E+02  0.1200E+02
    -16.300  0.0000E+00  0.0000E+00  0.1200E+02  0.1200E+02
    -16.111  0.0000E+00  0.0000E+00  0.1200E+02  0.1200E+02
    -15.923  0.0000E+00  0.0000E+00  0.1200E+02  0.1200E+02
    -15.734  0.0000E+00  0.0000E+00  0.1200E+02  0.1200E+02
    -15.546  0.0000E+00  0.0000E+00  0.1200E+02  0.1200E+02
    -15.358  0.0000E+00  0.0000E+00  0.1200E+02  0.1200E+02
    -15.169  0.3616E-05  0.3621E-05  0.1200E+02  0.1200E+02
    -14.981  0.1739E-03  0.1741E-03  0.1200E+02  0.1200E+02
    -14.792  0.7340E-02  0.7349E-02  0.1200E+02  0.1200E+02
    -14.604  0.1499E+00  0.1500E+00  0.1203E+02  0.1203E+02
    -14.416  0.5729E+00  0.5731E+00  0.1214E+02  0.1214E+02
    -14.227  0.9276E+00  0.9278E+00  0.1231E+02  0.1231E+02
    -14.039  0.1535E+01  0.1535E+01  0.1260E+02  0.1260E+02
    -13.850  0.2233E+01  0.2233E+01  0.1302E+02  0.1302E+02
    -13.662  0.4234E+01  0.4235E+01  0.1382E+02  0.1382E+02
    -13.474  0.7490E+01  0.7491E+01  0.1524E+02  0.1524E+02
    -13.285  0.3834E+01  0.3830E+01  0.1596E+02  0.1596E+02
    -13.097  0.1739E+00  0.1736E+00  0.1600E+02  0.1600E+02
    -12.908  0.0000E+00  0.0000E+00  0.1600E+02  0.1600E+02
    -12.720  0.0000E+00  0.0000E+00  0.1600E+02  0.1600E+02
    -12.532  0.0000E+00  0.0000E+00  0.1600E+02  0.1600E+02
    -12.343  0.0000E+00  0.0000E+00  0.1600E+02  0.1600E+02
    -12.155  0.0000E+00  0.0000E+00  0.1600E+02  0.1600E+02
    -11.966  0.0000E+00  0.0000E+00  0.1600E+02  0.1600E+02
    -11.778  0.0000E+00  0.0000E+00  0.1600E+02  0.1600E+02
    -11.590  0.0000E+00  0.0000E+00  0.1600E+02  0.1600E+02
    -11.401  0.0000E+00  0.0000E+00  0.1600E+02  0.1600E+02
    -11.213  0.0000E+00  0.0000E+00  0.1600E+02  0.1600E+02
    -11.024  0.0000E+00  0.0000E+00  0.1600E+02  0.1600E+02
    -10.836  0.0000E+00  0.0000E+00  0.1600E+02  0.1600E+02
    -10.648  0.0000E+00  0.0000E+00  0.1600E+02  0.1600E+02
    -10.459  0.0000E+00  0.0000E+00  0.1600E+02  0.1600E+02
    -10.271  0.0000E+00  0.0000E+00  0.1600E+02  0.1600E+02
    -10.082  0.0000E+00  0.0000E+00  0.1600E+02  0.1600E+02
     -9.894  0.0000E+00  0.0000E+00  0.1600E+02  0.1600E+02
     -9.706  0.0000E+00  0.0000E+00  0.1600E+02  0.1600E+02
     -9.517  0.0000E+00  0.0000E+00  0.1600E+02  0.1600E+02
     -9.329  0.0000E+00  0.0000E+00  0.1600E+02  0.1600E+02
     -9.140  0.0000E+00  0.0000E+00  0.1600E+02  0.1600E+02
     -8.952  0.0000E+00  0.0000E+00  0.1600E+02  0.1600E+02
     -8.764  0.0000E+00  0.0000E+00  0.1600E+02  0.1600E+02
     -8.575  0.0000E+00  0.0000E+00  0.1600E+02  0.1600E+02
     -8.387  0.0000E+00  0.0000E+00  0.1600E+02  0.1600E+02
     -8.199  0.0000E+00  0.0000E+00  0.1600E+02  0.1600E+02
     -8.010  0.0000E+00  0.0000E+00  0.1600E+02  0.1600E+02
     -7.822  0.0000E+00  0.0000E+00  0.1600E+02  0.1600E+02
     -7.633  0.0000E+00  0.0000E+00  0.1600E+02  0.1600E+02
     -7.445  0.0000E+00  0.0000E+00  0.1600E+02  0.1600E+02
     -7.257  0.0000E+00  0.0000E+00  0.1600E+02  0.1600E+02
     -7.068  0.0000E+00  0.0000E+00  0.1600E+02  0.1600E+02
     -6.880  0.0000E+00  0.0000E+00  0.1600E+02  0.1600E+02
     -6.691  0.0000E+00  0.0000E+00  0.1600E+02  0.1600E+02
     -6.503  0.0000E+00  0.0000E+00  0.1600E+02  0.1600E+02
     -6.315  0.0000E+00  0.0000E+00  0.1600E+02  0.1600E+02
     -6.126  0.0000E+00  0.0000E+00  0.1600E+02  0.1600E+02
     -5.938  0.0000E+00  0.0000E+00  0.1600E+02  0.1600E+02
     -5.749  0.0000E+00  0.0000E+00  0.1600E+02  0.1600E+02
     -5.561  0.0000E+00  0.0000E+00  0.1600E+02  0.1600E+02
     -5.373  0.0000E+00  0.0000E+00  0.1600E+02  0.1600E+02
     -5.184  0.0000E+00  0.0000E+00  0.1600E+02  0.1600E+02
     -4.996  0.0000E+00  0.0000E+00  0.1600E+02  0.1600E+02
     -4.807  0.0000E+00  0.0000E+00  0.1600E+02  0.1600E+02
     -4.619  0.0000E+00  0.0000E+00  0.1600E+02  0.1600E+02
     -4.431  0.0000E+00  0.0000E+00  0.1600E+02  0.1600E+02
     -4.242  0.0000E+00  0.0000E+00  0.1600E+02  0.1600E+02
     -4.054  0.0000E+00  0.0000E+00  0.1600E+02  0.1600E+02
     -3.865  0.0000E+00  0.0000E+00  0.1600E+02  0.1600E+02
     -3.677  0.0000E+00  0.0000E+00  0.1600E+02  0.1600E+02
     -3.489  0.0000E+00  0.0000E+00  0.1600E+02  0.1600E+02
     -3.300  0.0000E+00  0.0000E+00  0.1600E+02  0.1600E+02
     -3.112  0.0000E+00  0.0000E+00  0.1600E+02  0.1600E+02
     -2.923  0.0000E+00  0.0000E+00  0.1600E+02  0.1600E+02
     -2.735  0.0000E+00  0.0000E+00  0.1600E+02  0.1600E+02
     -2.547  0.9165E-05  0.9160E-05  0.1600E+02  0.1600E+02
     -2.358  0.4050E-03  0.4048E-03  0.1600E+02  0.1600E+02
     -2.170  0.1719E-01  0.1718E-01  0.1600E+02  0.1600E+02
     -1.981  0.3464E+00  0.3463E+00  0.1607E+02  0.1607E+02
     -1.793  0.6286E+00  0.6286E+00  0.1619E+02  0.1619E+02
     -1.605  0.1548E+01  0.1548E+01  0.1648E+02  0.1648E+02
     -1.416  0.2489E+01  0.2489E+01  0.1695E+02  0.1695E+02
     -1.228  0.4285E+01  0.4285E+01  0.1776E+02  0.1776E+02
     -1.039  0.4543E+01  0.4543E+01  0.1861E+02  0.1861E+02
     -0.851  0.3160E+01  0.3160E+01  0.1921E+02  0.1921E+02
     -0.663  0.8593E+00  0.8594E+00  0.1938E+02  0.1938E+02
     -0.474  0.9749E+00  0.9750E+00  0.1956E+02  0.1956E+02
     -0.286  0.2084E+01  0.2084E+01  0.1995E+02  0.1995E+02
     -0.097  0.1650E+01  0.1650E+01  0.2027E+02  0.2027E+02
      0.091  0.1767E+01  0.1767E+01  0.2060E+02  0.2060E+02
      0.279  0.1961E+01  0.1961E+01  0.2097E+02  0.2097E+02
      0.468  0.2817E+01  0.2817E+01  0.2150E+02  0.2150E+02
      0.656  0.2396E+01  0.2396E+01  0.2196E+02  0.2196E+02
      0.845  0.3736E+01  0.3736E+01  0.2266E+02  0.2266E+02
      1.033  0.6170E+01  0.6170E+01  0.2383E+02  0.2383E+02
      1.221  0.5080E+01  0.5080E+01  0.2479E+02  0.2479E+02
      1.410  0.6498E+01  0.6499E+01  0.2602E+02  0.2602E+02
      1.598  0.5115E+01  0.5115E+01  0.2699E+02  0.2699E+02
      1.786  0.3292E+01  0.3291E+01  0.2761E+02  0.2761E+02
      1.975  0.1662E+01  0.1662E+01  0.2793E+02  0.2793E+02
      2.163  0.3554E+00  0.3551E+00  0.2800E+02  0.2800E+02
      2.352  0.1230E-01  0.1228E-01  0.2800E+02  0.2800E+02
      2.540  0.0000E+00  0.0000E+00  0.2800E+02  0.2800E+02
      2.728  0.0000E+00  0.0000E+00  0.2800E+02  0.2800E+02
      2.917  0.0000E+00  0.0000E+00  0.2800E+02  0.2800E+02
      3.105  0.0000E+00  0.0000E+00  0.2800E+02  0.2800E+02
      3.294  0.0000E+00  0.0000E+00  0.2800E+02  0.2800E+02
      3.482  0.0000E+00  0.0000E+00  0.2800E+02  0.2800E+02
      3.670  0.0000E+00  0.0000E+00  0.2800E+02  0.2800E+02
      3.859  0.0000E+00  0.0000E+00  0.2800E+02  0.2800E+02
      4.047  0.0000E+00  0.0000E+00  0.2800E+02  0.2800E+02
      4.236  0.0000E+00  0.0000E+00  0.2800E+02  0.2800E+02
      4.424  0.0000E+00  0.0000E+00  0.2800E+02  0.2800E+02
      4.612  0.0000E+00  0.0000E+00  0.2800E+02  0.2800E+02
      4.801  0.0000E+00  0.0000E+00  0.2800E+02  0.2800E+02
      4.989  0.0000E+00  0.0000E+00  0.2800E+02  0.2800E+02
      5.178  0.0000E+00  0.0000E+00  0.2800E+02  0.2800E+02
      5.366  0.0000E+00  0.0000E+00  0.2800E+02  0.2800E+02
      5.554  0.0000E+00  0.0000E+00  0.2800E+02  0.2800E+02
      5.743  0.2446E-04  0.2446E-04  0.2800E+02  0.2800E+02
      5.931  0.1029E-02  0.1029E-02  0.2800E+02  0.2800E+02
      6.120  0.3612E-01  0.3612E-01  0.2801E+02  0.2801E+02
      6.308  0.1417E+00  0.1417E+00  0.2803E+02  0.2803E+02
      6.496  0.1727E-01  0.1727E-01  0.2804E+02  0.2804E+02
      6.685  0.9996E-04  0.9996E-04  0.2804E+02  0.2804E+02
      6.873  0.4196E-02  0.4197E-02  0.2804E+02  0.2804E+02
      7.062  0.1379E+00  0.1379E+00  0.2806E+02  0.2806E+02
      7.250  0.4076E+00  0.4076E+00  0.2814E+02  0.2814E+02
      7.438  0.4001E-01  0.4001E-01  0.2815E+02  0.2815E+02
      7.627  0.4111E-01  0.4112E-01  0.2816E+02  0.2816E+02
      7.815  0.4119E+00  0.4119E+00  0.2823E+02  0.2823E+02
      8.004  0.1473E+00  0.1473E+00  0.2826E+02  0.2826E+02
      8.192  0.1453E+00  0.1453E+00  0.2829E+02  0.2829E+02
      8.380  0.2189E+00  0.2189E+00  0.2833E+02  0.2833E+02
      8.569  0.3862E+00  0.3861E+00  0.2840E+02  0.2840E+02
      8.757  0.3363E+00  0.3363E+00  0.2847E+02  0.2847E+02
      8.946  0.1218E+01  0.1218E+01  0.2870E+02  0.2870E+02
      9.134  0.3564E+00  0.3563E+00  0.2876E+02  0.2876E+02
      9.322  0.5387E+00  0.5387E+00  0.2887E+02  0.2887E+02
      9.511  0.5470E+00  0.5468E+00  0.2897E+02  0.2897E+02
      9.699  0.9493E+00  0.9495E+00  0.2915E+02  0.2915E+02
      9.888  0.7892E+00  0.7889E+00  0.2930E+02  0.2930E+02
     10.076  0.2044E+01  0.2044E+01  0.2968E+02  0.2968E+02
     10.264  0.6613E+00  0.6613E+00  0.2981E+02  0.2981E+02
     10.453  0.6149E+00  0.6149E+00  0.2993E+02  0.2993E+02
     10.641  0.1113E+01  0.1113E+01  0.3014E+02  0.3014E+02
     10.829  0.7748E+00  0.7767E+00  0.3028E+02  0.3028E+02
     11.018  0.2136E+01  0.2141E+01  0.3069E+02  0.3069E+02
     11.206  0.1731E+01  0.1723E+01  0.3101E+02  0.3101E+02
     11.395  0.8018E+00  0.8074E+00  0.3116E+02  0.3117E+02
     11.583  0.2157E+01  0.2156E+01  0.3157E+02  0.3157E+02
     11.771  0.2040E+01  0.2032E+01  0.3196E+02  0.3195E+02
     11.960  0.9501E+00  0.9172E+00  0.3214E+02  0.3213E+02
     12.148  0.1112E+01  0.1149E+01  0.3235E+02  0.3235E+02
     12.337  0.1264E+01  0.1285E+01  0.3259E+02  0.3259E+02
     12.525  0.1224E+01  0.1222E+01  0.3282E+02  0.3282E+02
     12.713  0.2180E+01  0.2356E+01  0.3323E+02  0.3326E+02
     12.902  0.2598E+01  0.2487E+01  0.3372E+02  0.3373E+02
     13.090  0.3446E+01  0.3301E+01  0.3437E+02  0.3436E+02
     13.279  0.3763E+01  0.3813E+01  0.3508E+02  0.3508E+02
     13.467  0.2474E+01  0.2581E+01  0.3555E+02  0.3557E+02
     13.655  0.1355E+01  0.1263E+01  0.3581E+02  0.3581E+02
     13.844  0.6852E+00  0.6515E+00  0.3594E+02  0.3593E+02
     14.032  0.3005E+00  0.3109E+00  0.3599E+02  0.3599E+02
     14.221  0.2595E-01  0.3055E-01  0.3600E+02  0.3600E+02
     14.409  0.0000E+00  0.0000E+00  0.3600E+02  0.3600E+02
     14.597  0.0000E+00  0.0000E+00  0.3600E+02  0.3600E+02
     14.786  0.0000E+00  0.0000E+00  0.3600E+02  0.3600E+02
     14.974  0.0000E+00  0.0000E+00  0.3600E+02  0.3600E+02
     15.163  0.0000E+00  0.0000E+00  0.3600E+02  0.3600E+02
     15.351  0.0000E+00  0.0000E+00  0.3600E+02  0.3600E+02
     15.539  0.0000E+00  0.0000E+00  0.3600E+02  0.3600E+02
     15.728  0.0000E+00  0.0000E+00  0.3600E+02  0.3600E+02
     15.916  0.0000E+00  0.0000E+00  0.3600E+02  0.3600E+02
     16.105  0.0000E+00  0.0000E+00  0.3600E+02  0.3600E+02
     16.293  0.0000E+00  0.0000E+00  0.3600E+02  0.3600E+02
     16.481  0.0000E+00  0.0000E+00  0.3600E+02  0.3600E+02
     16.48135609    -40.03739940  301      3.10672247      1.00000000
    -40.037  0.0000E+00  0.0000E+00  0.0000E+00  0.0000E+00  0.0000E+00  0.0000E+00  0.0000E+00  0.0000E+00  0.0000E+00  0.0000E+00  0.0000E+00  0.0000E+00  0.0000E+00  0.0000E+00  0.0000E+00  0.0000E+00  0.0000E+00  0.0000E+00
    -39.849  0.0000E+00  0.0000E+00  0.0000E+00  0.0000E+00  0.0000E+00  0.0000E+00  0.0000E+00  0.0000E+00  0.0000E+00  0.0000E+00  0.0000E+00  0.0000E+00  0.0000E+00  0.0000E+00  0.0000E+00  0.0000E+00  0.0000E+00  0.0000E+00
    -39.661  0.0000E+00  0.0000E+00  0.0000E+00  0.0000E+00  0.0000E+00  0.0000E+00  0.0000E+00  0.0000E+00  0.0000E+00  0.0000E+00  0.0000E+00  0.0000E+00  0.0000E+00  0.0000E+00  0.0000E+00  0.0000E+00  0.0000E+00  0.0000E+00
    -39.472  0.0000E+00  0.0000E+00  0.0000E+00  0.0000E+00  0.0000E+00  0.0000E+00  0.0000E+00  0.0000E+00  0.0000E+00  0.0000E+00  0.0000E+00  0.0000E+00  0.0000E+00  0.0000E+00  0.0000E+00  0.0000E+00  0.0000E+00  0.0000E+00
    -39.284  0.0000E+00  0.0000E+00  0.0000E+00  0.0000E+00  0.0000E+00  0.0000E+00  0.0000E+00  0.0000E+00  0.0000E+00  0.0000E+00  0.0000E+00  0.0000E+00  0.0000E+00  0.0000E+00  0.0000E+00  0.0000E+00  0.0000E+00  0.0000E+00
    -39.095  0.0000E+00  0.0000E+00  0.0000E+00  0.0000E+00  0.0000E+00  0.0000E+00  0.0000E+00  0.0000E+00  0.0000E+00  0.0000E+00  0.0000E+00  0.0000E+00  0.0000E+00  0.0000E+00  0.0000E+00  0.0000E+00  0.0000E+00  0.0000E+00
    -38.907  0.0000E+00  0.0000E+00  0.0000E+00  0.0000E+00  0.0000E+00  0.0000E+00  0.0000E+00  0.0000E+00  0.0000E+00  0.0000E+00  0.0000E+00  0.0000E+00  0.0000E+00  0.0000E+00  0.0000E+00  0.0000E+00  0.0000E+00  0.0000E+00
    -38.719  0.0000E+00  0.0000E+00  0.0000E+00  0.0000E+00  0.0000E+00  0.0000E+00  0.0000E+00  0.0000E+00  0.0000E+00  0.0000E+00  0.0000E+00  0.0000E+00  0.0000E+00  0.0000E+00  0.0000E+00  0.0000E+00  0.0000E+00  0.0000E+00
    -38.530  0.0000E+00  0.0000E+00  0.0000E+00  0.0000E+00  0.0000E+00  0.0000E+00  0.0000E+00  0.0000E+00  0.0000E+00  0.0000E+00  0.0000E+00  0.0000E+00  0.0000E+00  0.0000E+00  0.0000E+00  0.0000E+00  0.0000E+00  0.0000E+00
    -38.342  0.0000E+00  0.0000E+00  0.0000E+00  0.0000E+00  0.0000E+00  0.0000E+00  0.0000E+00  0.0000E+00  0.0000E+00  0.0000E+00  0.0000E+00  0.0000E+00  0.0000E+00  0.0000E+00  0.0000E+00  0.0000E+00  0.0000E+00  0.0000E+00
    -38.153  0.0000E+00  0.0000E+00  0.0000E+00  0.0000E+00  0.0000E+00  0.0000E+00  0.0000E+00  0.0000E+00  0.0000E+00  0.0000E+00  0.0000E+00  0.0000E+00  0.0000E+00  0.0000E+00  0.0000E+00  0.0000E+00  0.0000E+00  0.0000E+00
    -37.965  0.2811E-09  0.2813E-09  0.1448E-03  0.1449E-03  0.1448E-03  0.1449E-03  0.1448E-03  0.1449E-03  0.2006E-10  0.2008E-10  0.2006E-10  0.2008E-10  0.1665E-10  0.1666E-10  0.2006E-10  0.2008E-10  0.1665E-10  0.1666E-10
    -37.777  0.1187E-07  0.1188E-07  0.6115E-02  0.6120E-02  0.6115E-02  0.6120E-02  0.6115E-02  0.6120E-02  0.8473E-09  0.8479E-09  0.8473E-09  0.8479E-09  0.7034E-09  0.7037E-09  0.8473E-09  0.8479E-09  0.7034E-09  0.7037E-09
    -37.588  0.4833E-06  0.4837E-06  0.2508E+00  0.2510E+00  0.2508E+00  0.2510E+00  0.2508E+00  0.2510E+00  0.3473E-07  0.3475E-07  0.3473E-07  0.3475E-07  0.2877E-07  0.2878E-07  0.3473E-07  0.3475E-07  0.2877E-07  0.2878E-07
    -37.400  0.5713E-05  0.5714E-05  0.3320E+01  0.3321E+01  0.3320E+01  0.3321E+01  0.3320E+01  0.3321E+01  0.4515E-06  0.4515E-06  0.4515E-06  0.4515E-06  0.3658E-06  0.3657E-06  0.4515E-06  0.4515E-06  0.3658E-06  0.3657E-06
    -37.211  0.2341E-05  0.2340E-05  0.1638E+01  0.1637E+01  0.1638E+01  0.1637E+01  0.1638E+01  0.1637E+01  0.2128E-06  0.2126E-06  0.2128E-06  0.2126E-06  0.1695E-06  0.1693E-06  0.2128E-06  0.2126E-06  0.1695E-06  0.1693E-06
    -37.023  0.1810E-08  0.1808E-08  0.9611E-02  0.9603E-02  0.9611E-02  0.9603E-02  0.9611E-02  0.9603E-02  0.5267E-09  0.5258E-09  0.5267E-09  0.5258E-09  0.2148E-09  0.2142E-09  0.5267E-09  0.5258E-09  0.2148E-09  0.2142E-09
    -36.835  0.0000E+00  0.0000E+00  0.0000E+00  0.0000E+00  0.0000E+00  0.0000E+00  0.0000E+00  0.0000E+00  0.0000E+00  0.0000E+00  0.0000E+00  0.0000E+00  0.0000E+00  0.0000E+00  0.0000E+00  0.0000E+00  0.0000E+00  0.0000E+00
    -36.646  0.0000E+00  0.0000E+00  0.0000E+00  0.0000E+00  0.0000E+00  0.0000E+00  0.0000E+00  0.0000E+00  0.0000E+00  0.0000E+00  0.0000E+00  0.0000E+00  0.0000E+00  0.0000E+00  0.0000E+00  0.0000E+00  0.0000E+00  0.0000E+00
    -36.458  0.0000E+00  0.0000E+00  0.0000E+00  0.0000E+00  0.0000E+00  0.0000E+00  0.0000E+00  0.0000E+00  0.0000E+00  0.0000E+00  0.0000E+00  0.0000E+00  0.0000E+00  0.0000E+00  0.0000E+00  0.0000E+00  0.0000E+00  0.0000E+00
    -36.269  0.0000E+00  0.0000E+00  0.0000E+00  0.0000E+00  0.0000E+00  0.0000E+00  0.0000E+00  0.0000E+00  0.0000E+00  0.0000E+00  0.0000E+00  0.0000E+00  0.0000E+00  0.0000E+00  0.0000E+00  0.0000E+00  0.0000E+00  0.0000E+00
    -36.081  0.0000E+00  0.0000E+00  0.0000E+00  0.0000E+00  0.0000E+00  0.0000E+00  0.0000E+00  0.0000E+00  0.0000E+00  0.0000E+00  0.0000E+00  0.0000E+00  0.0000E+00  0.0000E+00  0.0000E+00  0.0000E+00  0.0000E+00  0.0000E+00
    -35.893  0.0000E+00  0.0000E+00  0.0000E+00  0.0000E+00  0.0000E+00  0.0000E+00  0.0000E+00  0.0000E+00  0.0000E+00  0.0000E+00  0.0000E+00  0.0000E+00  0.0000E+00  0.0000E+00  0.0000E+00  0.0000E+00  0.0000E+00  0.0000E+00
    -35.704  0.0000E+00  0.0000E+00  0.0000E+00  0.0000E+00  0.0000E+00  0.0000E+00  0.0000E+00  0.0000E+00  0.0000E+00  0.0000E+00  0.0000E+00  0.0000E+00  0.0000E+00  0.0000E+00  0.0000E+00  0.0000E+00  0.0000E+00  0.0000E+00
    -35.516  0.0000E+00  0.0000E+00  0.0000E+00  0.0000E+00  0.0000E+00  0.0000E+00  0.0000E+00  0.0000E+00  0.0000E+00  0.0000E+00  0.0000E+00  0.0000E+00  0.0000E+00  0.0000E+00  0.0000E+00  0.0000E+00  0.0000E+00  0.0000E+00
    -35.328  0.0000E+00  0.0000E+00  0.0000E+00  0.0000E+00  0.0000E+00  0.0000E+00  0.0000E+00  0.0000E+00  0.0000E+00  0.0000E+00  0.0000E+00  0.0000E+00  0.0000E+00  0.0000E+00  0.0000E+00  0.0000E+00  0.0000E+00  0.0000E+00
    -35.139  0.0000E+00  0.0000E+00  0.0000E+00  0.0000E+00  0.0000E+00  0.0000E+00  0.0000E+00  0.0000E+00  0.0000E+00  0.0000E+00  0.0000E+00  0.0000E+00  0.0000E+00  0.0000E+00  0.0000E+00  0.0000E+00  0.0000E+00  0.0000E+00
    -34.951  0.0000E+00  0.0000E+00  0.0000E+00  0.0000E+00  0.0000E+00  0.0000E+00  0.0000E+00  0.0000E+00  0.0000E+00  0.0000E+00  0.0000E+00  0.0000E+00  0.0000E+00  0.0000E+00  0.0000E+00  0.0000E+00  0.0000E+00  0.0000E+00
    -34.762  0.0000E+00  0.0000E+00  0.0000E+00  0.0000E+00  0.0000E+00  0.0000E+00  0.0000E+00  0.0000E+00  0.0000E+00  0.0000E+00  0.0000E+00  0.0000E+00  0.0000E+00  0.0000E+00  0.0000E+00  0.0000E+00  0.0000E+00  0.0000E+00
    -34.574  0.0000E+00  0.0000E+00  0.0000E+00  0.0000E+00  0.0000E+00  0.0000E+00  0.0000E+00  0.0000E+00  0.0000E+00  0.0000E+00  0.0000E+00  0.0000E+00  0.0000E+00  0.0000E+00  0.0000E+00  0.0000E+00  0.0000E+00  0.0000E+00
    -34.386  0.0000E+00  0.0000E+00  0.0000E+00  0.0000E+00  0.0000E+00  0.0000E+00  0.0000E+00  0.0000E+00  0.0000E+00  0.0000E+00  0.0000E+00  0.0000E+00  0.0000E+00  0.0000E+00  0.0000E+00  0.0000E+00  0.0000E+00  0.0000E+00
    -34.197  0.0000E+00  0.0000E+00  0.0000E+00  0.0000E+00  0.0000E+00  0.0000E+00  0.0000E+00  0.0000E+00  0.0000E+00  0.0000E+00  0.0000E+00  0.0000E+00  0.0000E+00  0.0000E+00  0.0000E+00  0.0000E+00  0.0000E+00  0.0000E+00
    -34.009  0.0000E+00  0.0000E+00  0.0000E+00  0.0000E+00  0.0000E+00  0.0000E+00  0.0000E+00  0.0000E+00  0.0000E+00  0.0000E+00  0.0000E+00  0.0000E+00  0.0000E+00  0.0000E+00  0.0000E+00  0.0000E+00  0.0000E+00  0.0000E+00
    -33.820  0.0000E+00  0.0000E+00  0.0000E+00  0.0000E+00  0.0000E+00  0.0000E+00  0.0000E+00  0.0000E+00  0.0000E+00  0.0000E+00  0.0000E+00  0.0000E+00  0.0000E+00  0.0000E+00  0.0000E+00  0.0000E+00  0.0000E+00  0.0000E+00
    -33.632  0.0000E+00  0.0000E+00  0.0000E+00  0.0000E+00  0.0000E+00  0.0000E+00  0.0000E+00  0.0000E+00  0.0000E+00  0.0000E+00  0.0000E+00  0.0000E+00  0.0000E+00  0.0000E+00  0.0000E+00  0.0000E+00  0.0000E+00  0.0000E+00
    -33.444  0.0000E+00  0.0000E+00  0.0000E+00  0.0000E+00  0.0000E+00  0.0000E+00  0.0000E+00  0.0000E+00  0.0000E+00  0.0000E+00  0.0000E+00  0.0000E+00  0.0000E+00  0.0000E+00  0.0000E+00  0.0000E+00  0.0000E+00  0.0000E+00
    -33.255  0.0000E+00  0.0000E+00  0.0000E+00  0.0000E+00  0.0000E+00  0.0000E+00  0.0000E+00  0.0000E+00  0.0000E+00  0.0000E+00  0.0000E+00  0.0000E+00  0.0000E+00  0.0000E+00  0.0000E+00  0.0000E+00  0.0000E+00  0.0000E+00
    -33.067  0.0000E+00  0.0000E+00  0.0000E+00  0.0000E+00  0.0000E+00  0.0000E+00  0.0000E+00  0.0000E+00  0.0000E+00  0.0000E+00  0.0000E+00  0.0000E+00  0.0000E+00  0.0000E+00  0.0000E+00  0.0000E+00  0.0000E+00  0.0000E+00
    -32.878  0.0000E+00  0.0000E+00  0.0000E+00  0.0000E+00  0.0000E+00  0.0000E+00  0.0000E+00  0.0000E+00  0.0000E+00  0.0000E+00  0.0000E+00  0.0000E+00  0.0000E+00  0.0000E+00  0.0000E+00  0.0000E+00  0.0000E+00  0.0000E+00
    -32.690  0.0000E+00  0.0000E+00  0.0000E+00  0.0000E+00  0.0000E+00  0.0000E+00  0.0000E+00  0.0000E+00  0.0000E+00  0.0000E+00  0.0000E+00  0.0000E+00  0.0000E+00  0.0000E+00  0.0000E+00  0.0000E+00  0.0000E+00  0.0000E+00
    -32.502  0.0000E+00  0.0000E+00  0.0000E+00  0.0000E+00  0.0000E+00  0.0000E+00  0.0000E+00  0.0000E+00  0.0000E+00  0.0000E+00  0.0000E+00  0.0000E+00  0.0000E+00  0.0000E+00  0.0000E+00  0.0000E+00  0.0000E+00  0.0000E+00
    -32.313  0.0000E+00  0.0000E+00  0.0000E+00  0.0000E+00  0.0000E+00  0.0000E+00  0.0000E+00  0.0000E+00  0.0000E+00  0.0000E+00  0.0000E+00  0.0000E+00  0.0000E+00  0.0000E+00  0.0000E+00  0.0000E+00  0.0000E+00  0.0000E+00
    -32.125  0.0000E+00  0.0000E+00  0.0000E+00  0.0000E+00  0.0000E+00  0.0000E+00  0.0000E+00  0.0000E+00  0.0000E+00  0.0000E+00  0.0000E+00  0.0000E+00  0.0000E+00  0.0000E+00  0.0000E+00  0.0000E+00  0.0000E+00  0.0000E+00
    -31.936  0.0000E+00  0.0000E+00  0.0000E+00  0.0000E+00  0.0000E+00  0.0000E+00  0.0000E+00  0.0000E+00  0.0000E+00  0.0000E+00  0.0000E+00  0.0000E+00  0.0000E+00  0.0000E+00  0.0000E+00  0.0000E+00  0.0000E+00  0.0000E+00
    -31.748  0.0000E+00  0.0000E+00  0.0000E+00  0.0000E+00  0.0000E+00  0.0000E+00  0.0000E+00  0.0000E+00  0.0000E+00  0.0000E+00  0.0000E+00  0.0000E+00  0.0000E+00  0.0000E+00  0.0000E+00  0.0000E+00  0.0000E+00  0.0000E+00
    -31.560  0.0000E+00  0.0000E+00  0.0000E+00  0.0000E+00  0.0000E+00  0.0000E+00  0.0000E+00  0.0000E+00  0.0000E+00  0.0000E+00  0.0000E+00  0.0000E+00  0.0000E+00  0.0000E+00  0.0000E+00  0.0000E+00  0.0000E+00  0.0000E+00
    -31.371  0.0000E+00  0.0000E+00  0.0000E+00  0.0000E+00  0.0000E+00  0.0000E+00  0.0000E+00  0.0000E+00  0.0000E+00  0.0000E+00  0.0000E+00  0.0000E+00  0.0000E+00  0.0000E+00  0.0000E+00  0.0000E+00  0.0000E+00  0.0000E+00
    -31.183  0.0000E+00  0.0000E+00  0.0000E+00  0.0000E+00  0.0000E+00  0.0000E+00  0.0000E+00  0.0000E+00  0.0000E+00  0.0000E+00  0.0000E+00  0.0000E+00  0.0000E+00  0.0000E+00  0.0000E+00  0.0000E+00  0.0000E+00  0.0000E+00
    -30.994  0.0000E+00  0.0000E+00  0.0000E+00  0.0000E+00  0.0000E+00  0.0000E+00  0.0000E+00  0.0000E+00  0.0000E+00  0.0000E+00  0.0000E+00  0.0000E+00  0.0000E+00  0.0000E+00  0.0000E+00  0.0000E+00  0.0000E+00  0.0000E+00
    -30.806  0.0000E+00  0.0000E+00  0.0000E+00  0.0000E+00  0.0000E+00  0.0000E+00  0.0000E+00  0.0000E+00  0.0000E+00  0.0000E+00  0.0000E+00  0.0000E+00  0.0000E+00  0.0000E+00  0.0000E+00  0.0000E+00  0.0000E+00  0.0000E+00
    -30.618  0.0000E+00  0.0000E+00  0.0000E+00  0.0000E+00  0.0000E+00  0.0000E+00  0.0000E+00  0.0000E+00  0.0000E+00  0.0000E+00  0.0000E+00  0.0000E+00  0.0000E+00  0.0000E+00  0.0000E+00  0.0000E+00  0.0000E+00  0.0000E+00