   8   8   1   0
  0.1018015E+02  0.4334590E-09  0.4334590E-09  0.4334590E-09  0.5000000E-15
  1.000000000000000E-004
  CAR 
 unknown system                          
     16.96095429    -39.75174922  301      3.35138234      1.00000000
    -39.752  0.0000E+00  0.0000E+00  0.0000E+00  0.0000E+00
    -39.563  0.0000E+00  0.0000E+00  0.0000E+00  0.0000E+00
    -39.374  0.0000E+00  0.0000E+00  0.0000E+00  0.0000E+00
    -39.185  0.0000E+00  0.0000E+00  0.0000E+00  0.0000E+00
    -38.996  0.0000E+00  0.0000E+00  0.0000E+00  0.0000E+00
    -38.807  0.0000E+00  0.0000E+00  0.0000E+00  0.0000E+00
    -38.617  0.0000E+00  0.0000E+00  0.0000E+00  0.0000E+00
    -38.428  0.0000E+00  0.0000E+00  0.0000E+00  0.0000E+00
    -38.239  0.0000E+00  0.0000E+00  0.0000E+00  0.0000E+00
    -38.050  0.0000E+00  0.0000E+00  0.0000E+00  0.0000E+00
    -37.861  0.0000E+00  0.0000E+00  0.0000E+00  0.0000E+00
    -37.672  0.1568E-02  0.1569E-02  0.2963E-03  0.2965E-03
    -37.483  0.6709E-01  0.6714E-01  0.1298E-01  0.1299E-01
    -37.294  0.2796E+01  0.2797E+01  0.5415E+00  0.5418E+00
    -37.105  0.3906E+02  0.3907E+02  0.7925E+01  0.7927E+01
    -36.916  0.2080E+02  0.2079E+02  0.1186E+02  0.1186E+02
    -36.727  0.2610E+00  0.2608E+00  0.1200E+02  0.1200E+02
    -36.538  0.0000E+00  0.0000E+00  0.1200E+02  0.1200E+02
    -36.349  0.0000E+00  0.0000E+00  0.1200E+02  0.1200E+02
    -36.160  0.0000E+00  0.0000E+00  0.1200E+02  0.1200E+02
    -35.971  0.0000E+00  0.0000E+00  0.1200E+02  0.1200E+02
    -35.782  0.0000E+00  0.0000E+00  0.1200E+02  0.1200E+02
    -35.593  0.0000E+00  0.0000E+00  0.1200E+02  0.1200E+02
    -35.404  0.0000E+00  0.0000E+00  0.1200E+02  0.1200E+02
    -35.215  0.0000E+00  0.0000E+00  0.1200E+02  0.1200E+02
    -35.026  0.0000E+00  0.0000E+00  0.1200E+02  0.1200E+02
    -34.837  0.0000E+00  0.0000E+00  0.1200E+02  0.1200E+02
    -34.648  0.0000E+00  0.0000E+00  0.1200E+02  0.1200E+02
    -34.459  0.0000E+00  0.0000E+00  0.1200E+02  0.1200E+02
    -34.270  0.0000E+00  0.0000E+00  0.1200E+02  0.1200E+02
    -34.080  0.0000E+00  0.0000E+00  0.1200E+02  0.1200E+02
    -33.891  0.0000E+00  0.0000E+00  0.1200E+02  0.1200E+02
    -33.702  0.0000E+00  0.0000E+00  0.1200E+02  0.1200E+02
    -33.513  0.0000E+00  0.0000E+00  0.1200E+02  0.1200E+02
    -33.324  0.0000E+00  0.0000E+00  0.1200E+02  0.1200E+02
    -33.135  0.0000E+00  0.0000E+00  0.1200E+02  0.1200E+02
    -32.946  0.0000E+00  0.0000E+00  0.1200E+02  0.1200E+02
    -32.757  0.0000E+00  0.0000E+00  0.1200E+02  0.1200E+02
    -32.568  0.0000E+00  0.0000E+00  0.1200E+02  0.1200E+02
    -32.379  0.0000E+00  0.0000E+00  0.1200E+02  0.1200E+02
    -32.190  0.0000E+00  0.0000E+00  0.1200E+02  0.1200E+02
    -32.001  0.0000E+00  0.0000E+00  0.1200E+02  0.1200E+02
    -31.812  0.0000E+00  0.0000E+00  0.1200E+02  0.1200E+02
    -31.623  0.0000E+00  0.0000E+00  0.1200E+02  0.1200E+02
    -31.434  0.0000E+00  0.0000E+00  0.1200E+02  0.1200E+02
    -31.245  0.0000E+00  0.0000E+00  0.1200E+02  0.1200E+02
    -31.056  0.0000E+00  0.0000E+00  0.1200E+02  0.1200E+02
    -30.867  0.0000E+00  0.0000E+00  0.1200E+02  0.1200E+02
    -30.678  0.0000E+00  0.0000E+00  0.1200E+02  0.1200E+02
    -30.489  0.0000E+00  0.0000E+00  0.1200E+02  0.1200E+02
    -30.300  0.0000E+00  0.0000E+00  0.1200E+02  0.1200E+02
    -30.111  0.0000E+00  0.0000E+00  0.1200E+02  0.1200E+02
    -29.922  0.0000E+00  0.0000E+00  0.1200E+02  0.1200E+02
    -29.733  0.0000E+00  0.0000E+00  0.1200E+02  0.1200E+02
    -29.543  0.0000E+00  0.0000E+00  0.1200E+02  0.1200E+02
    -29.354  0.0000E+00  0.0000E+00  0.1200E+02  0.1200E+02
    -29.165  0.0000E+00  0.0000E+00  0.1200E+02  0.1200E+02
    -28.976  0.0000E+00  0.0000E+00  0.1200E+02  0.1200E+02
    -28.787  0.0000E+00  0.0000E+00  0.1200E+02  0.1200E+02
    -28.598  0.0000E+00  0.0000E+00  0.1200E+02  0.1200E+02
    -28.409  0.0000E+00  0.0000E+00  0.1200E+02  0.1200E+02
    -28.220  0.0000E+00  0.0000E+00  0.1200E+02  0.1200E+02
    -28.031  0.0000E+00  0.0000E+00  0.1200E+02  0.1200E+02
    -27.842  0.0000E+00  0.0000E+00  0.1200E+02  0.1200E+02
    -27.653  0.0000E+00  0.0000E+00  0.1200E+02  0.1200E+02
    -27.464  0.0000E+00  0.0000E+00  0.1200E+02  0.1200E+02
    -27.275  0.0000E+00  0.0000E+00  0.1200E+02  0.1200E+02
    -27.086  0.0000E+00  0.0000E+00  0.1200E+02  0.1200E+02
    -26.897  0.0000E+00  0.0000E+00  0.1200E+02  0.1200E+02
    -26.708  0.0000E+00  0.0000E+00  0.1200E+02  0.1200E+02
    -26.519  0.0000E+00  0.0000E+00  0.1200E+02  0.1200E+02
    -26.330  0.0000E+00  0.0000E+00  0.1200E+02  0.1200E+02
    -26.141  0.0000E+00  0.0000E+00  0.1200E+02  0.1200E+02
    -25.952  0.0000E+00  0.0000E+00  0.1200E+02  0.1200E+02
    -25.763  0.0000E+00  0.0000E+00  0.1200E+02  0.1200E+02
    -25.574  0.0000E+00  0.0000E+00  0.1200E+02  0.1200E+02
    -25.385  0.0000E+00  0.0000E+00  0.1200E+02  0.1200E+02
    -25.195  0.0000E+00  0.0000E+00  0.1200E+02  0.1200E+02
    -25.006  0.0000E+00  0.0000E+00  0.1200E+02  0.1200E+02
    -24.817  0.0000E+00  0.0000E+00  0.1200E+02  0.1200E+02
    -24.628  0.0000E+00  0.0000E+00  0.1200E+02  0.1200E+02
    -24.439  0.0000E+00  0.0000E+00  0.1200E+02  0.1200E+02
    -24.250  0.0000E+00  0.0000E+00  0.1200E+02  0.1200E+02
    -24.061  0.0000E+00  0.0000E+00  0.1200E+02  0.1200E+02
    -23.872  0.0000E+00  0.0000E+00  0.1200E+02  0.1200E+02
    -23.683  0.0000E+00  0.0000E+00  0.1200E+02  0.1200E+02
    -23.494  0.0000E+00  0.0000E+00  0.1200E+02  0.1200E+02
    -23.305  0.0000E+00  0.0000E+00  0.1200E+02  0.1200E+02
    -23.116  0.0000E+00  0.0000E+00  0.1200E+02  0.1200E+02
    -22.927  0.0000E+00  0.0000E+00  0.1200E+02  0.1200E+02
    -22.738  0.0000E+00  0.0000E+00  0.1200E+02  0.1200E+02
    -22.549  0.0000E+00  0.0000E+00  0.1200E+02  0.1200E+02
    -22.360  0.0000E+00  0.0000E+00  0.1200E+02  0.1200E+02
    -22.171  0.0000E+00  0.0000E+00  0.1200E+02  0.1200E+02
    -21.982  0.0000E+00  0.0000E+00  0.1200E+02  0.1200E+02
    -21.793  0.0000E+00  0.0000E+00  0.1200E+02  0.1200E+02
    -21.604  0.0000E+00  0.0000E+00  0.1200E+02  0.1200E+02
    -21.415  0.0000E+00  0.0000E+00  0.1200E+02  0.1200E+02
    -21.226  0.0000E+00  0.0000E+00  0.1200E+02  0.1200E+02
    -21.037  0.0000E+00  0.0000E+00  0.1200E+02  0.1200E+02
    -20.848  0.0000E+00  0.0000E+00  0.1200E+02  0.1200E+02
    -20.658  0.0000E+00  0.0000E+00  0.1200E+02  0.1200E+02
    -20.469  0.0000E+00  0.0000E+00  0.1200E+02  0.1200E+02
    -20.280  0.0000E+00  0.0000E+00  0.1200E+02  0.1200E+02
    -20.091  0.0000E+00  0.0000E+00  0.1200E+02  0.1200E+02
    -19.902  0.0000E+00  0.0000E+00  0.1200E+02  0.1200E+02
    -19.713  0.0000E+00  0.0000E+00  0.1200E+02  0.1200E+02
    -19.524  0.0000E+00  0.0000E+00  0.1200E+02  0.1200E+02
    -19.335  0.0000E+00  0.0000E+00  0.1200E+02  0.1200E+02
    -19.146  0.0000E+00  0.0000E+00  0.1200E+02  0.1200E+02
    -18.957  0.0000E+00  0.0000E+00  0.1200E+02  0.1200E+02
    -18.768  0.0000E+00  0.0000E+00  0.1200E+02  0.1200E+02
    -18.579  0.0000E+00  0.0000E+00  0.1200E+02  0.1200E+02
    -18.390  0.0000E+00  0.0000E+00  0.1200E+02  0.1200E+02
    -18.201  0.0000E+00  0.0000E+00  0.1200E+02  0.1200E+02
    -18.012  0.0000E+00  0.0000E+00  0.1200E+02  0.1200E+02
    -17.823  0.0000E+00  0.0000E+00  0.1200E+02  0.1200E+02
    -17.634  0.0000E+00  0.0000E+00  0.1200E+02  0.1200E+02
    -17.445  0.0000E+00  0.0000E+00  0.1200E+02  0.1200E+02
    -17.256  0.0000E+00  0.0000E+00  0.1200E+02  0.1200E+02
    -17.067  0.0000E+00  0.0000E+00  0.1200E+02  0.1200E+02
    -16.878  0.0000E+00  0.0000E+00  0.1200E+02  0.1200E+02
    -16.689  0.0000E+00  0.0000E+00  0.1200E+02  0.1200E+02
    -16.500  0.0000E+00  0.0000E+00  0.1200E+02  0.1200E+02
    -16.310  0.0000E+00  0.0000E+00  0.1200E+02  0.1200E+02
    -16.121  0.0000E+00  0.0000E+00  0.1200E+02  0.1200E+02
    -15.932  0.0000E+00  0.0000E+00  0.1200E+02  0.1200E+02
    -15.743  0.0000E+00  0.0000E+00  0.1200E+02  0.1200E+02
    -15.554  0.0000E+00  0.0000E+00  0.1200E+02  0.1200E+02
    -15.365  0.0000E+00  0.0000E+00  0.1200E+02  0.1200E+02
    -15.176  0.0000E+00  0.0000E+00  0.1200E+02  0.1200E+02
    -14.987  0.4794E-04  0.4802E-04  0.1200E+02  0.1200E+02
    -14.798  0.2047E-02  0.2050E-02  0.1200E+02  0.1200E+02
    -14.609  0.6583E-01  0.6591E-01  0.1201E+02  0.1201E+02
    -14.420  0.3807E+00  0.3810E+00  0.1208E+02  0.1208E+02
    -14.231  0.7519E+00  0.7520E+00  0.1223E+02  0.1223E+02
    -14.042  0.1156E+01  0.1157E+01  0.1245E+02  0.1245E+02
    -13.853  0.1644E+01  0.1644E+01  0.1276E+02  0.1276E+02
    -13.664  0.2796E+01  0.2797E+01  0.1329E+02  0.1329E+02
    -13.475  0.5107E+01  0.5110E+01  0.1425E+02  0.1425E+02
    -13.286  0.7222E+01  0.7221E+01  0.1562E+02  0.1562E+02
    -13.097  0.1906E+01  0.1902E+01  0.1599E+02  0.1599E+02
    -12.908  0.2174E-01  0.2168E-01  0.1600E+02  0.1600E+02
    -12.719  0.0000E+00  0.0000E+00  0.1600E+02  0.1600E+02
    -12.530  0.0000E+00  0.0000E+00  0.1600E+02  0.1600E+02
    -12.341  0.0000E+00  0.0000E+00  0.1600E+02  0.1600E+02
    -12.152  0.0000E+00  0.0000E+00  0.1600E+02  0.1600E+02
    -11.963  0.0000E+00  0.0000E+00  0.1600E+02  0.1600E+02
    -11.773  0.0000E+00  0.0000E+00  0.1600E+02  0.1600E+02
    -11.584  0.0000E+00  0.0000E+00  0.1600E+02  0.1600E+02
    -11.395  0.0000E+00  0.0000E+00  0.1600E+02  0.1600E+02
    -11.206  0.0000E+00  0.0000E+00  0.1600E+02  0.1600E+02
    -11.017  0.0000E+00  0.0000E+00  0.1600E+02  0.1600E+02
    -10.828  0.0000E+00  0.0000E+00  0.1600E+02  0.1600E+02
    -10.639  0.0000E+00  0.0000E+00  0.1600E+02  0.1600E+02
    -10.450  0.0000E+00  0.0000E+00  0.1600E+02  0.1600E+02
    -10.261  0.0000E+00  0.0000E+00  0.1600E+02  0.1600E+02
    -10.072  0.0000E+00  0.0000E+00  0.1600E+02  0.1600E+02
     -9.883  0.0000E+00  0.0000E+00  0.1600E+02  0.1600E+02
     -9.694  0.0000E+00  0.0000E+00  0.1600E+02  0.1600E+02
     -9.505  0.0000E+00  0.0000E+00  0.1600E+02  0.1600E+02
     -9.316  0.0000E+00  0.0000E+00  0.1600E+02  0.1600E+02
     -9.127  0.0000E+00  0.0000E+00  0.1600E+02  0.1600E+02
     -8.938  0.0000E+00  0.0000E+00  0.1600E+02  0.1600E+02
     -8.749  0.0000E+00  0.0000E+00  0.1600E+02  0.1600E+02
     -8.560  0.0000E+00  0.0000E+00  0.1600E+02  0.1600E+02
     -8.371  0.0000E+00  0.0000E+00  0.1600E+02  0.1600E+02
     -8.182  0.0000E+00  0.0000E+00  0.1600E+02  0.1600E+02
     -7.993  0.0000E+00  0.0000E+00  0.1600E+02  0.1600E+02
     -7.804  0.0000E+00  0.0000E+00  0.1600E+02  0.1600E+02
     -7.615  0.0000E+00  0.0000E+00  0.1600E+02  0.1600E+02
     -7.426  0.0000E+00  0.0000E+00  0.1600E+02  0.1600E+02
     -7.236  0.0000E+00  0.0000E+00  0.1600E+02  0.1600E+02
     -7.047  0.0000E+00  0.0000E+00  0.1600E+02  0.1600E+02
     -6.858  0.0000E+00  0.0000E+00  0.1600E+02  0.1600E+02
     -6.669  0.0000E+00  0.0000E+00  0.1600E+02  0.1600E+02
     -6.480  0.0000E+00  0.0000E+00  0.1600E+02  0.1600E+02
     -6.291  0.0000E+00  0.0000E+00  0.1600E+02  0.1600E+02
     -6.102  0.0000E+00  0.0000E+00  0.1600E+02  0.1600E+02
     -5.913  0.0000E+00  0.0000E+00  0.1600E+02  0.1600E+02
     -5.724  0.0000E+00  0.0000E+00  0.1600E+02  0.1600E+02
     -5.535  0.0000E+00  0.0000E+00  0.1600E+02  0.1600E+02
     -5.346  0.0000E+00  0.0000E+00  0.1600E+02  0.1600E+02
     -5.157  0.0000E+00  0.0000E+00  0.1600E+02  0.1600E+02
     -4.968  0.0000E+00  0.0000E+00  0.1600E+02  0.1600E+02
     -4.779  0.0000E+00  0.0000E+00  0.1600E+02  0.1600E+02
     -4.590  0.0000E+00  0.0000E+00  0.1600E+02  0.1600E+02
     -4.401  0.0000E+00  0.0000E+00  0.1600E+02  0.1600E+02
     -4.212  0.0000E+00  0.0000E+00  0.1600E+02  0.1600E+02
     -4.023  0.0000E+00  0.0000E+00  0.1600E+02  0.1600E+02
     -3.834  0.0000E+00  0.0000E+00  0.1600E+02  0.1600E+02
     -3.645  0.0000E+00  0.0000E+00  0.1600E+02  0.1600E+02
     -3.456  0.0000E+00  0.0000E+00  0.1600E+02  0.1600E+02
     -3.267  0.0000E+00  0.0000E+00  0.1600E+02  0.1600E+02
     -3.078  0.0000E+00  0.0000E+00  0.1600E+02  0.1600E+02
     -2.888  0.0000E+00  0.0000E+00  0.1600E+02  0.1600E+02
     -2.699  0.0000E+00  0.0000E+00  0.1600E+02  0.1600E+02
     -2.510  0.0000E+00  0.0000E+00  0.1600E+02  0.1600E+02
     -2.321  0.2018E-03  0.2017E-03  0.1600E+02  0.1600E+02
     -2.132  0.8594E-02  0.8591E-02  0.1600E+02  0.1600E+02
     -1.943  0.2362E+00  0.2361E+00  0.1605E+02  0.1605E+02
     -1.754  0.5880E+00  0.5880E+00  0.1616E+02  0.1616E+02
     -1.565  0.1286E+01  0.1286E+01  0.1640E+02  0.1640E+02
     -1.376  0.2197E+01  0.2197E+01  0.1682E+02  0.1682E+02
     -1.187  0.3469E+01  0.3469E+01  0.1747E+02  0.1747E+02
     -0.998  0.4798E+01  0.4798E+01  0.1838E+02  0.1838E+02
     -0.809  0.3651E+01  0.3651E+01  0.1907E+02  0.1907E+02
     -0.620  0.1425E+01  0.1425E+01  0.1935E+02  0.1935E+02
     -0.431  0.5080E+00  0.5081E+00  0.1944E+02  0.1944E+02
     -0.242  0.1768E+01  0.1768E+01  0.1978E+02  0.1978E+02
     -0.053  0.2045E+01  0.2045E+01  0.2017E+02  0.2017E+02
      0.136  0.1560E+01  0.1560E+01  0.2046E+02  0.2046E+02
      0.325  0.1639E+01  0.1639E+01  0.2077E+02  0.2077E+02
      0.514  0.2587E+01  0.2587E+01  0.2126E+02  0.2126E+02
      0.703  0.2495E+01  0.2495E+01  0.2173E+02  0.2173E+02
      0.892  0.2632E+01  0.2633E+01  0.2224E+02  0.2224E+02
      1.081  0.5062E+01  0.5063E+01  0.2319E+02  0.2319E+02
      1.270  0.5770E+01  0.5769E+01  0.2429E+02  0.2429E+02
      1.459  0.5280E+01  0.5281E+01  0.2529E+02  0.2529E+02
      1.649  0.6037E+01  0.6036E+01  0.2643E+02  0.2644E+02
      1.838  0.4528E+01  0.4528E+01  0.2729E+02  0.2729E+02
      2.027  0.2375E+01  0.2375E+01  0.2775E+02  0.2775E+02
      2.216  0.1152E+01  0.1151E+01  0.2797E+02  0.2797E+02
      2.405  0.1526E+00  0.1523E+00  0.2800E+02  0.2800E+02
      2.594  0.0000E+00  0.0000E+00  0.2800E+02  0.2800E+02
      2.783  0.0000E+00  0.0000E+00  0.2800E+02  0.2800E+02
      2.972  0.0000E+00  0.0000E+00  0.2800E+02  0.2800E+02
      3.161  0.0000E+00  0.0000E+00  0.2800E+02  0.2800E+02
      3.350  0.0000E+00  0.0000E+00  0.2800E+02  0.2800E+02
      3.539  0.0000E+00  0.0000E+00  0.2800E+02  0.2800E+02
      3.728  0.0000E+00  0.0000E+00  0.2800E+02  0.2800E+02
      3.917  0.0000E+00  0.0000E+00  0.2800E+02  0.2800E+02
      4.106  0.0000E+00  0.0000E+00  0.2800E+02  0.2800E+02
      4.295  0.0000E+00  0.0000E+00  0.2800E+02  0.2800E+02
      4.484  0.0000E+00  0.0000E+00  0.2800E+02  0.2800E+02
      4.673  0.0000E+00  0.0000E+00  0.2800E+02  0.2800E+02
      4.862  0.0000E+00  0.0000E+00  0.2800E+02  0.2800E+02
      5.051  0.0000E+00  0.0000E+00  0.2800E+02  0.2800E+02
      5.240  0.0000E+00  0.0000E+00  0.2800E+02  0.2800E+02
      5.429  0.0000E+00  0.0000E+00  0.2800E+02  0.2800E+02
      5.618  0.0000E+00  0.0000E+00  0.2800E+02  0.2800E+02
      5.807  0.0000E+00  0.0000E+00  0.2800E+02  0.2800E+02
      5.996  0.0000E+00  0.0000E+00  0.2800E+02  0.2800E+02
      6.186  0.2999E-04  0.2997E-04  0.2800E+02  0.2800E+02
      6.375  0.1276E-02  0.1276E-02  0.2800E+02  0.2800E+02
      6.564  0.4325E-01  0.4324E-01  0.2801E+02  0.2801E+02
      6.753  0.1373E+00  0.1373E+00  0.2803E+02  0.2803E+02
      6.942  0.1374E-01  0.1374E-01  0.2804E+02  0.2804E+02
      7.131  0.1239E-03  0.1239E-03  0.2804E+02  0.2804E+02
      7.320  0.5262E-02  0.5261E-02  0.2804E+02  0.2804E+02
      7.509  0.1642E+00  0.1642E+00  0.2807E+02  0.2807E+02
      7.698  0.3869E+00  0.3869E+00  0.2814E+02  0.2814E+02
      7.887  0.3182E-01  0.3182E-01  0.2815E+02  0.2815E+02
      8.076  0.5127E-01  0.5127E-01  0.2816E+02  0.2816E+02
      8.265  0.4250E+00  0.4250E+00  0.2824E+02  0.2824E+02
      8.454  0.1300E+00  0.1300E+00  0.2826E+02  0.2826E+02
      8.643  0.1507E+00  0.1507E+00  0.2829E+02  0.2829E+02
      8.832  0.2177E+00  0.2177E+00  0.2833E+02  0.2833E+02
      9.021  0.3778E+00  0.3778E+00  0.2840E+02  0.2840E+02
      9.210  0.4019E+00  0.4019E+00  0.2848E+02  0.2848E+02
      9.399  0.1233E+01  0.1233E+01  0.2871E+02  0.2871E+02
      9.588  0.4099E+00  0.4098E+00  0.2879E+02  0.2879E+02
      9.777  0.5184E+00  0.5184E+00  0.2889E+02  0.2889E+02
      9.966  0.7007E+00  0.7006E+00  0.2902E+02  0.2902E+02
     10.155  0.6933E+00  0.6935E+00  0.2915E+02  0.2915E+02
     10.344  0.1165E+01  0.1164E+01  0.2938E+02  0.2937E+02
     10.534  0.1793E+01  0.1793E+01  0.2971E+02  0.2971E+02
     10.723  0.7262E+00  0.7261E+00  0.2985E+02  0.2985E+02
     10.912  0.5186E+00  0.5187E+00  0.2995E+02  0.2995E+02
     11.101  0.1004E+01  0.1004E+01  0.3014E+02  0.3014E+02
     11.290  0.1328E+01  0.1325E+01  0.3039E+02  0.3039E+02
     11.479  0.2033E+01  0.2037E+01  0.3078E+02  0.3078E+02
     11.668  0.1666E+01  0.1669E+01  0.3109E+02  0.3109E+02
     11.857  0.1399E+01  0.1410E+01  0.3136E+02  0.3136E+02
     12.046  0.2188E+01  0.2178E+01  0.3177E+02  0.3177E+02
     12.235  0.1236E+01  0.1240E+01  0.3201E+02  0.3201E+02
     12.424  0.1227E+01  0.1247E+01  0.3224E+02  0.3225E+02
     12.613  0.1330E+01  0.1309E+01  0.3249E+02  0.3250E+02
     12.802  0.1354E+01  0.1351E+01  0.3275E+02  0.3275E+02
     12.991  0.9702E+00  0.9632E+00  0.3293E+02  0.3293E+02
     13.180  0.2554E+01  0.2528E+01  0.3342E+02  0.3341E+02
     13.369  0.2358E+01  0.2379E+01  0.3386E+02  0.3386E+02
     13.558  0.3077E+01  0.3113E+01  0.3445E+02  0.3445E+02
     13.747  0.4061E+01  0.3783E+01  0.3522E+02  0.3517E+02
     13.936  0.2432E+01  0.2196E+01  0.3568E+02  0.3559E+02
     14.125  0.7915E+00  0.1245E+01  0.3584E+02  0.3583E+02
     14.314  0.6293E+00  0.6508E+00  0.3596E+02  0.3595E+02
     14.503  0.2099E+00  0.2219E+00  0.3600E+02  0.3600E+02
     14.692  0.1580E-01  0.1580E-01  0.3600E+02  0.3600E+02
     14.881  0.0000E+00  0.0000E+00  0.3600E+02  0.3600E+02
     15.071  0.0000E+00  0.0000E+00  0.3600E+02  0.3600E+02
     15.260  0.0000E+00  0.0000E+00  0.3600E+02  0.3600E+02
     15.449  0.0000E+00  0.0000E+00  0.3600E+02  0.3600E+02
     15.638  0.0000E+00  0.0000E+00  0.3600E+02  0.3600E+02
     15.827  0.0000E+00  0.0000E+00  0.3600E+02  0.3600E+02
     16.016  0.0000E+00  0.0000E+00  0.3600E+02  0.3600E+02
     16.205  0.0000E+00  0.0000E+00  0.3600E+02  0.3600E+02
     16.394  0.0000E+00  0.0000E+00  0.3600E+02  0.3600E+02
     16.583  0.0000E+00  0.0000E+00  0.3600E+02  0.3600E+02
     16.772  0.0000E+00  0.0000E+00  0.3600E+02  0.3600E+02
     16.961  0.0000E+00  0.0000E+00  0.3600E+02  0.3600E+02
     16.96095429    -39.75174922  301      3.35138234      1.00000000
    -39.752  0.0000E+00  0.0000E+00  0.0000E+00  0.0000E+00  0.0000E+00  0.0000E+00  0.0000E+00  0.0000E+00  0.0000E+00  0.0000E+00  0.0000E+00  0.0000E+00  0.0000E+00  0.0000E+00  0.0000E+00  0.0000E+00  0.0000E+00  0.0000E+00
    -39.563  0.0000E+00  0.0000E+00  0.0000E+00  0.0000E+00  0.0000E+00  0.0000E+00  0.0000E+00  0.0000E+00  0.0000E+00  0.0000E+00  0.0000E+00  0.0000E+00  0.0000E+00  0.0000E+00  0.0000E+00  0.0000E+00  0.0000E+00  0.0000E+00
    -39.374  0.0000E+00  0.0000E+00  0.0000E+00  0.0000E+00  0.0000E+00  0.0000E+00  0.0000E+00  0.0000E+00  0.0000E+00  0.0000E+00  0.0000E+00  0.0000E+00  0.0000E+00  0.0000E+00  0.0000E+00  0.0000E+00  0.0000E+00  0.0000E+00
    -39.185  0.0000E+00  0.0000E+00  0.0000E+00  0.0000E+00  0.0000E+00  0.0000E+00  0.0000E+00  0.0000E+00  0.0000E+00  0.0000E+00  0.0000E+00  0.0000E+00  0.0000E+00  0.0000E+00  0.0000E+00  0.0000E+00  0.0000E+00  0.0000E+00
    -38.996  0.0000E+00  0.0000E+00  0.0000E+00  0.0000E+00  0.0000E+00  0.0000E+00  0.0000E+00  0.0000E+00  0.0000E+00  0.0000E+00  0.0000E+00  0.0000E+00  0.0000E+00  0.0000E+00  0.0000E+00  0.0000E+00  0.0000E+00  0.0000E+00
    -38.807  0.0000E+00  0.0000E+00  0.0000E+00  0.0000E+00  0.0000E+00  0.0000E+00  0.0000E+00  0.0000E+00  0.0000E+00  0.0000E+00  0.0000E+00  0.0000E+00  0.0000E+00  0.0000E+00  0.0000E+00  0.0000E+00  0.0000E+00  0.0000E+00
    -38.617  0.0000E+00  0.0000E+00  0.0000E+00  0.0000E+00  0.0000E+00  0.0000E+00  0.0000E+00  0.0000E+00  0.0000E+00  0.0000E+00  0.0000E+00  0.0000E+00  0.0000E+00  0.0000E+00  0.0000E+00  0.0000E+00  0.0000E+00  0.0000E+00
    -38.428  0.0000E+00  0.0000E+00  0.0000E+00  0.0000E+00  0.0000E+00  0.0000E+00  0.0000E+00  0.0000E+00  0.0000E+00  0.0000E+00  0.0000E+00  0.0000E+00  0.0000E+00  0.0000E+00  0.0000E+00  0.0000E+00  0.0000E+00  0.0000E+00
    -38.239  0.0000E+00  0.0000E+00  0.0000E+00  0.0000E+00  0.0000E+00  0.0000E+00  0.0000E+00  0.0000E+00  0.0000E+00  0.0000E+00  0.0000E+00  0.0000E+00  0.0000E+00  0.0000E+00  0.0000E+00  0.0000E+00  0.0000E+00  0.0000E+00
    -38.050  0.0000E+00  0.0000E+00  0.0000E+00  0.0000E+00  0.0000E+00  0.0000E+00  0.0000E+00  0.0000E+00  0.0000E+00  0.0000E+00  0.0000E+00  0.0000E+00  0.0000E+00  0.0000E+00  0.0000E+00  0.0000E+00  0.0000E+00  0.0000E+00
    -37.861  0.0000E+00  0.0000E+00  0.0000E+00  0.0000E+00  0.0000E+00  0.0000E+00  0.0000E+00  0.0000E+00  0.0000E+00  0.0000E+00  0.0000E+00  0.0000E+00  0.0000E+00  0.0000E+00  0.0000E+00  0.0000E+00  0.0000E+00  0.0000E+00
    -37.672  0.3325E-09  0.3327E-09  0.1297E-03  0.1298E-03  0.1297E-03  0.1298E-03  0.1297E-03  0.1298E-03  0.2283E-10  0.2285E-10  0.2283E-10  0.2285E-10  0.1939E-10  0.1940E-10  0.2283E-10  0.2285E-10  0.1939E-10  0.1940E-10
    -37.483  0.1423E-07  0.1424E-07  0.5552E-02  0.5556E-02  0.5552E-02  0.5556E-02  0.5552E-02  0.5556E-02  0.9773E-09  0.9779E-09  0.9773E-09  0.9779E-09  0.8300E-09  0.8302E-09  0.9773E-09  0.9779E-09  0.8300E-09  0.8302E-09
    -37.294  0.5886E-06  0.5889E-06  0.2313E+00  0.2315E+00  0.2313E+00  0.2315E+00  0.2313E+00  0.2315E+00  0.4072E-07  0.4074E-07  0.4072E-07  0.4074E-07  0.3449E-07  0.3450E-07  0.4072E-07  0.4074E-07  0.3449E-07  0.3450E-07
    -37.105  0.7273E-05  0.7273E-05  0.3233E+01  0.3234E+01  0.3233E+01  0.3234E+01  0.3233E+01  0.3234E+01  0.5597E-06  0.5598E-06  0.5597E-06  0.5598E-06  0.4612E-06  0.4611E-06  0.5597E-06  0.5598E-06  0.4612E-06  0.4611E-06
    -36.916  0.3133E-05  0.3132E-05  0.1722E+01  0.1721E+01  0.1722E+01  0.1721E+01  0.1722E+01  0.1721E+01  0.2834E-06  0.2833E-06  0.2834E-06  0.2833E-06  0.2288E-06  0.2286E-06  0.2834E-06  0.2833E-06  0.2288E-06  0.2286E-06
    -36.727  0.4558E-08  0.4555E-08  0.2163E-01  0.2161E-01  0.2163E-01  0.2161E-01  0.2163E-01  0.2161E-01  0.1817E-08  0.1815E-08  0.1817E-08  0.1815E-08  0.1290E-08  0.1288E-08  0.1817E-08  0.1815E-08  0.1290E-08  0.1288E-08
    -36.538  0.0000E+00  0.0000E+00  0.0000E+00  0.0000E+00  0.0000E+00  0.0000E+00  0.0000E+00  0.0000E+00  0.0000E+00  0.0000E+00  0.0000E+00  0.0000E+00  0.0000E+00  0.0000E+00  0.0000E+00  0.0000E+00  0.0000E+00  0.0000E+00
    -36.349  0.0000E+00  0.0000E+00  0.0000E+00  0.0000E+00  0.0000E+00  0.0000E+00  0.0000E+00  0.0000E+00  0.0000E+00  0.0000E+00  0.0000E+00  0.0000E+00  0.0000E+00  0.0000E+00  0.0000E+00  0.0000E+00  0.0000E+00  0.0000E+00
    -36.160  0.0000E+00  0.0000E+00  0.0000E+00  0.0000E+00  0.0000E+00  0.0000E+00  0.0000E+00  0.0000E+00  0.0000E+00  0.0000E+00  0.0000E+00  0.0000E+00  0.0000E+00  0.0000E+00  0.0000E+00  0.0000E+00  0.0000E+00  0.0000E+00
    -35.971  0.0000E+00  0.0000E+00  0.0000E+00  0.0000E+00  0.0000E+00  0.0000E+00  0.0000E+00  0.0000E+00  0.0000E+00  0.0000E+00  0.0000E+00  0.0000E+00  0.0000E+00  0.0000E+00  0.0000E+00  0.0000E+00  0.0000E+00  0.0000E+00
    -35.782  0.0000E+00  0.0000E+00  0.0000E+00  0.0000E+00  0.0000E+00  0.0000E+00  0.0000E+00  0.0000E+00  0.0000E+00  0.0000E+00  0.0000E+00  0.0000E+00  0.0000E+00  0.0000E+00  0.0000E+00  0.0000E+00  0.0000E+00  0.0000E+00
    -35.593  0.0000E+00  0.0000E+00  0.0000E+00  0.0000E+00  0.0000E+00  0.0000E+00  0.0000E+00  0.0000E+00  0.0000E+00  0.0000E+00  0.0000E+00  0.0000E+00  0.0000E+00  0.0000E+00  0.0000E+00  0.0000E+00  0.0000E+00  0.0000E+00
    -35.404  0.0000E+00  0.0000E+00  0.0000E+00  0.0000E+00  0.0000E+00  0.0000E+00  0.0000E+00  0.0000E+00  0.0000E+00  0.0000E+00  0.0000E+00  0.0000E+00  0.0000E+00  0.0000E+00  0.0000E+00  0.0000E+00  0.0000E+00  0.0000E+00
    -35.215  0.0000E+00  0.0000E+00  0.0000E+00  0.0000E+00  0.0000E+00  0.0000E+00  0.0000E+00  0.0000E+00  0.0000E+00  0.0000E+00  0.0000E+00  0.0000E+00  0.0000E+00  0.0000E+00  0.0000E+00  0.0000E+00  0.0000E+00  0.0000E+00
    -35.026  0.0000E+00  0.0000E+00  0.0000E+00  0.0000E+00  0.0000E+00  0.0000E+00  0.0000E+00  0.0000E+00  0.0000E+00  0.0000E+00  0.0000E+00  0.0000E+00  0.0000E+00  0.0000E+00  0.0000E+00  0.0000E+00  0.0000E+00  0.0000E+00
    -34.837  0.0000E+00  0.0000E+00  0.0000E+00  0.0000E+00  0.0000E+00  0.0000E+00  0.0000E+00  0.0000E+00  0.0000E+00  0.0000E+00  0.0000E+00  0.0000E+00  0.0000E+00  0.0000E+00  0.0000E+00  0.0000E+00  0.0000E+00  0.0000E+00
    -34.648  0.0000E+00  0.0000E+00  0.0000E+00  0.0000E+00  0.0000E+00  0.0000E+00  0.0000E+00  0.0000E+00  0.0000E+00  0.0000E+00  0.0000E+00  0.0000E+00  0.0000E+00  0.0000E+00  0.0000E+00  0.0000E+00  0.0000E+00  0.0000E+00
    -34.459  0.0000E+00  0.0000E+00  0.0000E+00  0.0000E+00  0.0000E+00  0.0000E+00  0.0000E+00  0.0000E+00  0.0000E+00  0.0000E+00  0.0000E+00  0.0000E+00  0.0000E+00  0.0000E+00  0.0000E+00  0.0000E+00  0.0000E+00  0.0000E+00
    -34.270  0.0000E+00  0.0000E+00  0.0000E+00  0.0000E+00  0.0000E+00  0.0000E+00  0.0000E+00  0.0000E+00  0.0000E+00  0.0000E+00  0.0000E+00  0.0000E+00  0.0000E+00  0.0000E+00  0.0000E+00  0.0000E+00  0.0000E+00  0.0000E+00
    -34.080  0.0000E+00  0.0000E+00  0.0000E+00  0.0000E+00  0.0000E+00  0.0000E+00  0.0000E+00  0.0000E+00  0.0000E+00  0.0000E+00  0.0000E+00  0.0000E+00  0.0000E+00  0.0000E+00  0.0000E+00  0.0000E+00  0.0000E+00  0.0000E+00
    -33.891  0.0000E+00  0.0000E+00  0.0000E+00  0.0000E+00  0.0000E+00  0.0000E+00  0.0000E+00  0.0000E+00  0.0000E+00  0.0000E+00  0.0000E+00  0.0000E+00  0.0000E+00  0.0000E+00  0.0000E+00  0.0000E+00  0.0000E+00  0.0000E+00
    -33.702  0.0000E+00  0.0000E+00  0.0000E+00  0.0000E+00  0.0000E+00  0.0000E+00  0.0000E+00  0.0000E+00  0.0000E+00  0.0000E+00  0.0000E+00  0.0000E+00  0.0000E+00  0.0000E+00  0.0000E+00  0.0000E+00  0.0000E+00  0.0000E+00
    -33.513  0.0000E+00  0.0000E+00  0.0000E+00  0.0000E+00  0.0000E+00  0.0000E+00  0.0000E+00  0.0000E+00  0.0000E+00  0.0000E+00  0.0000E+00  0.0000E+00  0.0000E+00  0.0000E+00  0.0000E+00  0.0000E+00  0.0000E+00  0.0000E+00
    -33.324  0.0000E+00  0.0000E+00  0.0000E+00  0.0000E+00  0.0000E+00  0.0000E+00  0.0000E+00  0.0000E+00  0.0000E+00  0.0000E+00  0.0000E+00  0.0000E+00  0.0000E+00  0.0000E+00  0.0000E+00  0.0000E+00  0.0000E+00  0.0000E+00
    -33.135  0.0000E+00  0.0000E+00  0.0000E+00  0.0000E+00  0.0000E+00  0.0000E+00  0.0000E+00  0.0000E+00  0.0000E+00  0.0000E+00  0.0000E+00  0.0000E+00  0.0000E+00  0.0000E+00  0.0000E+00  0.0000E+00  0.0000E+00  0.0000E+00
    -32.946  0.0000E+00  0.0000E+00  0.0000E+00  0.0000E+00  0.0000E+00  0.0000E+00  0.0000E+00  0.0000E+00  0.0000E+00  0.0000E+00  0.0000E+00  0.0000E+00  0.0000E+00  0.0000E+00  0.0000E+00  0.0000E+00  0.0000E+00  0.0000E+00
    -32.757  0.0000E+00  0.0000E+00  0.0000E+00  0.0000E+00  0.0000E+00  0.0000E+00  0.0000E+00  0.0000E+00  0.0000E+00  0.0000E+00  0.0000E+00  0.0000E+00  0.0000E+00  0.0000E+00  0.0000E+00  0.0000E+00  0.0000E+00  0.0000E+00
    -32.568  0.0000E+00  0.0000E+00  0.0000E+00  0.0000E+00  0.0000E+00  0.0000E+00  0.0000E+00  0.0000E+00  0.0000E+00  0.0000E+00  0.0000E+00  0.0000E+00  0.0000E+00  0.0000E+00  0.0000E+00  0.0000E+00  0.0000E+00  0.0000E+00
    -32.379  0.0000E+00  0.0000E+00  0.0000E+00  0.0000E+00  0.0000E+00  0.0000E+00  0.0000E+00  0.0000E+00  0.0000E+00  0.0000E+00  0.0000E+00  0.0000E+00  0.0000E+00  0.0000E+00  0.0000E+00  0.0000E+00  0.0000E+00  0.0000E+00
    -32.190  0.0000E+00  0.0000E+00  0.0000E+00  0.0000E+00  0.0000E+00  0.0000E+00  0.0000E+00  0.0000E+00  0.0000E+00  0.0000E+00  0.0000E+00  0.0000E+00  0.0000E+00  0.0000E+00  0.0000E+00  0.0000E+00  0.0000E+00  0.0000E+00
    -32.001  0.0000E+00  0.0000E+00  0.0000E+00  0.0000E+00  0.0000E+00  0.0000E+00  0.0000E+00  0.0000E+00  0.0000E+00  0.0000E+00  0.0000E+00  0.0000E+00  0.0000E+00  0.0000E+00  0.0000E+00  0.0000E+00  0.0000E+00  0.0000E+00
    -31.812  0.0000E+00  0.0000E+00  0.0000E+00  0.0000E+00  0.0000E+00  0.0000E+00  0.0000E+00  0.0000E+00  0.0000E+00  0.0000E+00  0.0000E+00  0.0000E+00  0.0000E+00  0.0000E+00  0.0000E+00  0.0000E+00  0.0000E+00  0.0000E+00
    -31.623  0.0000E+00  0.0000E+00  0.0000E+00  0.0000E+00  0.0000E+00  0.0000E+00  0.0000E+00  0.0000E+00  0.0000E+00  0.0000E+00  0.0000E+00  0.0000E+00  0.0000E+00  0.0000E+00  0.0000E+00  0.0000E+00  0.0000E+00  0.0000E+00
    -31.434  0.0000E+00  0.0000E+00  0.0000E+00  0.0000E+00  0.0000E+00  0.0000E+00  0.0000E+00  0.0000E+00  0.0000E+00  0.0000E+00  0.0000E+00  0.0000E+00  0.0000E+00  0.0000E+00  0.0000E+00  0.0000E+00  0.0000E+00  0.0000E+00
    -31.245  0.0000E+00  0.0000E+00  0.0000E+00  0.0000E+00  0.0000E+00  0.0000E+00  0.0000E+00  0.0000E+00  0.0000E+00  0.0000E+00  0.0000E+00  0.0000E+00  0.0000E+00  0.0000E+00  0.0000E+00  0.0000E+00  0.0000E+00  0.0000E+00
    -31.056  0.0000E+00  0.0000E+00  0.0000E+00  0.0000E+00  0.0000E+00  0.0000E+00  0.0000E+00  0.0000E+00  0.0000E+00  0.0000E+00  0.0000E+00  0.0000E+00  0.0000E+00  0.0000E+00  0.0000E+00  0.0000E+00  0.0000E+00  0.0000E+00
    -30.867  0.0000E+00  0.0000E+00  0.0000E+00  0.0000E+00  0.0000E+00  0.0000E+00  0.0000E+00  0.0000E+00  0.0000E+00  0.0000E+00  0.0000E+00  0.0000E+00  0.0000E+00  0.0000E+00  0.0000E+00  0.0000E+00  0.0000E+00  0.0000E+00
    -30.678  0.0000E+00  0.0000E+00  0.0000E+00  0.0000E+00  0.0000E+00  0.0000E+00  0.0000E+00  0.0000E+00  0.0000E+00  0.0000E+00  0.0000E+00  0.0000E+00  0.0000E+00  0.0000E+00  0.0000E+00  0.0000E+00  0.0000E+00  0.0000E+00
    -30.489  0.0000E+00  0.0000E+00  0.0000E+00  0.0000E+00  0.0000E+00  0.0000E+00  0.0000E+00  0.0000E+00  0.0000E+00  0.0000E+00  0.0000E+00  0.0000E+00  0.0000E+00  0.0000E+00  0.0000E+00  0.0000E+00  0.0000E+00  0.0000E+00
    -30.300  0.0000E+00  0.0000E+00  0.0000E+00  0.0000E+00  0.0000E+00  0.0000E+00  0.0000E+00  0.0000E+00  0.0000E+00  0.0000E+00  0.0000E+00  0.0000E+00  0.0000E+00  0.0000E+00  0.0000E+00  0.0000E+00  0.0000E+00  0.0000E+00