   8   8   1   0
  0.8755256E+01  0.4122110E-09  0.4122110E-09  0.4122110E-09  0.5000000E-15
  1.000000000000000E-004
  CAR 
 unknown system                          
     19.63621120    -38.24175241  301      4.39652135      1.00000000
    -38.242  0.0000E+00  0.0000E+00  0.0000E+00  0.0000E+00
    -38.049  0.0000E+00  0.0000E+00  0.0000E+00  0.0000E+00
    -37.856  0.0000E+00  0.0000E+00  0.0000E+00  0.0000E+00
    -37.663  0.0000E+00  0.0000E+00  0.0000E+00  0.0000E+00
    -37.470  0.0000E+00  0.0000E+00  0.0000E+00  0.0000E+00
    -37.277  0.0000E+00  0.0000E+00  0.0000E+00  0.0000E+00
    -37.084  0.0000E+00  0.0000E+00  0.0000E+00  0.0000E+00
    -36.891  0.0000E+00  0.0000E+00  0.0000E+00  0.0000E+00
    -36.698  0.0000E+00  0.0000E+00  0.0000E+00  0.0000E+00
    -36.505  0.0000E+00  0.0000E+00  0.0000E+00  0.0000E+00
    -36.312  0.0000E+00  0.0000E+00  0.0000E+00  0.0000E+00
    -36.120  0.6387E-03  0.6394E-03  0.1232E-03  0.1234E-03
    -35.927  0.3590E-01  0.3594E-01  0.7050E-02  0.7058E-02
    -35.734  0.1632E+01  0.1634E+01  0.3219E+00  0.3222E+00
    -35.541  0.3070E+02  0.3071E+02  0.6244E+01  0.6247E+01
    -35.348  0.2849E+02  0.2847E+02  0.1174E+02  0.1174E+02
    -35.155  0.1118E+01  0.1116E+01  0.1200E+02  0.1200E+02
    -34.962  0.0000E+00  0.0000E+00  0.1200E+02  0.1200E+02
    -34.769  0.0000E+00  0.0000E+00  0.1200E+02  0.1200E+02
    -34.576  0.0000E+00  0.0000E+00  0.1200E+02  0.1200E+02
    -34.383  0.0000E+00  0.0000E+00  0.1200E+02  0.1200E+02
    -34.190  0.0000E+00  0.0000E+00  0.1200E+02  0.1200E+02
    -33.997  0.0000E+00  0.0000E+00  0.1200E+02  0.1200E+02
    -33.804  0.0000E+00  0.0000E+00  0.1200E+02  0.1200E+02
    -33.612  0.0000E+00  0.0000E+00  0.1200E+02  0.1200E+02
    -33.419  0.0000E+00  0.0000E+00  0.1200E+02  0.1200E+02
    -33.226  0.0000E+00  0.0000E+00  0.1200E+02  0.1200E+02
    -33.033  0.0000E+00  0.0000E+00  0.1200E+02  0.1200E+02
    -32.840  0.0000E+00  0.0000E+00  0.1200E+02  0.1200E+02
    -32.647  0.0000E+00  0.0000E+00  0.1200E+02  0.1200E+02
    -32.454  0.0000E+00  0.0000E+00  0.1200E+02  0.1200E+02
    -32.261  0.0000E+00  0.0000E+00  0.1200E+02  0.1200E+02
    -32.068  0.0000E+00  0.0000E+00  0.1200E+02  0.1200E+02
    -31.875  0.0000E+00  0.0000E+00  0.1200E+02  0.1200E+02
    -31.682  0.0000E+00  0.0000E+00  0.1200E+02  0.1200E+02
    -31.489  0.0000E+00  0.0000E+00  0.1200E+02  0.1200E+02
    -31.296  0.0000E+00  0.0000E+00  0.1200E+02  0.1200E+02
    -31.103  0.0000E+00  0.0000E+00  0.1200E+02  0.1200E+02
    -30.911  0.0000E+00  0.0000E+00  0.1200E+02  0.1200E+02
    -30.718  0.0000E+00  0.0000E+00  0.1200E+02  0.1200E+02
    -30.525  0.0000E+00  0.0000E+00  0.1200E+02  0.1200E+02
    -30.332  0.0000E+00  0.0000E+00  0.1200E+02  0.1200E+02
    -30.139  0.0000E+00  0.0000E+00  0.1200E+02  0.1200E+02
    -29.946  0.0000E+00  0.0000E+00  0.1200E+02  0.1200E+02
    -29.753  0.0000E+00  0.0000E+00  0.1200E+02  0.1200E+02
    -29.560  0.0000E+00  0.0000E+00  0.1200E+02  0.1200E+02
    -29.367  0.0000E+00  0.0000E+00  0.1200E+02  0.1200E+02
    -29.174  0.0000E+00  0.0000E+00  0.1200E+02  0.1200E+02
    -28.981  0.0000E+00  0.0000E+00  0.1200E+02  0.1200E+02
    -28.788  0.0000E+00  0.0000E+00  0.1200E+02  0.1200E+02
    -28.595  0.0000E+00  0.0000E+00  0.1200E+02  0.1200E+02
    -28.402  0.0000E+00  0.0000E+00  0.1200E+02  0.1200E+02
    -28.210  0.0000E+00  0.0000E+00  0.1200E+02  0.1200E+02
    -28.017  0.0000E+00  0.0000E+00  0.1200E+02  0.1200E+02
    -27.824  0.0000E+00  0.0000E+00  0.1200E+02  0.1200E+02
    -27.631  0.0000E+00  0.0000E+00  0.1200E+02  0.1200E+02
    -27.438  0.0000E+00  0.0000E+00  0.1200E+02  0.1200E+02
    -27.245  0.0000E+00  0.0000E+00  0.1200E+02  0.1200E+02
    -27.052  0.0000E+00  0.0000E+00  0.1200E+02  0.1200E+02
    -26.859  0.0000E+00  0.0000E+00  0.1200E+02  0.1200E+02
    -26.666  0.0000E+00  0.0000E+00  0.1200E+02  0.1200E+02
    -26.473  0.0000E+00  0.0000E+00  0.1200E+02  0.1200E+02
    -26.280  0.0000E+00  0.0000E+00  0.1200E+02  0.1200E+02
    -26.087  0.0000E+00  0.0000E+00  0.1200E+02  0.1200E+02
    -25.894  0.0000E+00  0.0000E+00  0.1200E+02  0.1200E+02
    -25.702  0.0000E+00  0.0000E+00  0.1200E+02  0.1200E+02
    -25.509  0.0000E+00  0.0000E+00  0.1200E+02  0.1200E+02
    -25.316  0.0000E+00  0.0000E+00  0.1200E+02  0.1200E+02
    -25.123  0.0000E+00  0.0000E+00  0.1200E+02  0.1200E+02
    -24.930  0.0000E+00  0.0000E+00  0.1200E+02  0.1200E+02
    -24.737  0.0000E+00  0.0000E+00  0.1200E+02  0.1200E+02
    -24.544  0.0000E+00  0.0000E+00  0.1200E+02  0.1200E+02
    -24.351  0.0000E+00  0.0000E+00  0.1200E+02  0.1200E+02
    -24.158  0.0000E+00  0.0000E+00  0.1200E+02  0.1200E+02
    -23.965  0.0000E+00  0.0000E+00  0.1200E+02  0.1200E+02
    -23.772  0.0000E+00  0.0000E+00  0.1200E+02  0.1200E+02
    -23.579  0.0000E+00  0.0000E+00  0.1200E+02  0.1200E+02
    -23.386  0.0000E+00  0.0000E+00  0.1200E+02  0.1200E+02
    -23.193  0.0000E+00  0.0000E+00  0.1200E+02  0.1200E+02
    -23.001  0.0000E+00  0.0000E+00  0.1200E+02  0.1200E+02
    -22.808  0.0000E+00  0.0000E+00  0.1200E+02  0.1200E+02
    -22.615  0.0000E+00  0.0000E+00  0.1200E+02  0.1200E+02
    -22.422  0.0000E+00  0.0000E+00  0.1200E+02  0.1200E+02
    -22.229  0.0000E+00  0.0000E+00  0.1200E+02  0.1200E+02
    -22.036  0.0000E+00  0.0000E+00  0.1200E+02  0.1200E+02
    -21.843  0.0000E+00  0.0000E+00  0.1200E+02  0.1200E+02
    -21.650  0.0000E+00  0.0000E+00  0.1200E+02  0.1200E+02
    -21.457  0.0000E+00  0.0000E+00  0.1200E+02  0.1200E+02
    -21.264  0.0000E+00  0.0000E+00  0.1200E+02  0.1200E+02
    -21.071  0.0000E+00  0.0000E+00  0.1200E+02  0.1200E+02
    -20.878  0.0000E+00  0.0000E+00  0.1200E+02  0.1200E+02
    -20.685  0.0000E+00  0.0000E+00  0.1200E+02  0.1200E+02
    -20.493  0.0000E+00  0.0000E+00  0.1200E+02  0.1200E+02
    -20.300  0.0000E+00  0.0000E+00  0.1200E+02  0.1200E+02
    -20.107  0.0000E+00  0.0000E+00  0.1200E+02  0.1200E+02
    -19.914  0.0000E+00  0.0000E+00  0.1200E+02  0.1200E+02
    -19.721  0.0000E+00  0.0000E+00  0.1200E+02  0.1200E+02
    -19.528  0.0000E+00  0.0000E+00  0.1200E+02  0.1200E+02
    -19.335  0.0000E+00  0.0000E+00  0.1200E+02  0.1200E+02
    -19.142  0.0000E+00  0.0000E+00  0.1200E+02  0.1200E+02
    -18.949  0.0000E+00  0.0000E+00  0.1200E+02  0.1200E+02
    -18.756  0.0000E+00  0.0000E+00  0.1200E+02  0.1200E+02
    -18.563  0.0000E+00  0.0000E+00  0.1200E+02  0.1200E+02
    -18.370  0.0000E+00  0.0000E+00  0.1200E+02  0.1200E+02
    -18.177  0.0000E+00  0.0000E+00  0.1200E+02  0.1200E+02
    -17.984  0.0000E+00  0.0000E+00  0.1200E+02  0.1200E+02
    -17.792  0.0000E+00  0.0000E+00  0.1200E+02  0.1200E+02
    -17.599  0.0000E+00  0.0000E+00  0.1200E+02  0.1200E+02
    -17.406  0.0000E+00  0.0000E+00  0.1200E+02  0.1200E+02
    -17.213  0.0000E+00  0.0000E+00  0.1200E+02  0.1200E+02
    -17.020  0.0000E+00  0.0000E+00  0.1200E+02  0.1200E+02
    -16.827  0.0000E+00  0.0000E+00  0.1200E+02  0.1200E+02
    -16.634  0.0000E+00  0.0000E+00  0.1200E+02  0.1200E+02
    -16.441  0.0000E+00  0.0000E+00  0.1200E+02  0.1200E+02
    -16.248  0.0000E+00  0.0000E+00  0.1200E+02  0.1200E+02
    -16.055  0.0000E+00  0.0000E+00  0.1200E+02  0.1200E+02
    -15.862  0.0000E+00  0.0000E+00  0.1200E+02  0.1200E+02
    -15.669  0.0000E+00  0.0000E+00  0.1200E+02  0.1200E+02
    -15.476  0.0000E+00  0.0000E+00  0.1200E+02  0.1200E+02
    -15.283  0.0000E+00  0.0000E+00  0.1200E+02  0.1200E+02
    -15.091  0.0000E+00  0.0000E+00  0.1200E+02  0.1200E+02
    -14.898  0.0000E+00  0.0000E+00  0.1200E+02  0.1200E+02
    -14.705  0.2110E-04  0.2115E-04  0.1200E+02  0.1200E+02
    -14.512  0.1012E-02  0.1015E-02  0.1200E+02  0.1200E+02
    -14.319  0.3884E-01  0.3891E-01  0.1201E+02  0.1201E+02
    -14.126  0.2141E+00  0.2142E+00  0.1205E+02  0.1205E+02
    -13.933  0.5112E+00  0.5113E+00  0.1215E+02  0.1215E+02
    -13.740  0.6132E+00  0.6134E+00  0.1227E+02  0.1227E+02
    -13.547  0.9083E+00  0.9086E+00  0.1244E+02  0.1244E+02
    -13.354  0.1199E+01  0.1199E+01  0.1267E+02  0.1267E+02
    -13.161  0.1545E+01  0.1546E+01  0.1297E+02  0.1297E+02
    -12.968  0.2425E+01  0.2425E+01  0.1344E+02  0.1344E+02
    -12.775  0.4174E+01  0.4177E+01  0.1425E+02  0.1425E+02
    -12.583  0.6211E+01  0.6212E+01  0.1545E+02  0.1545E+02
    -12.390  0.2722E+01  0.2717E+01  0.1598E+02  0.1598E+02
    -12.197  0.1065E+00  0.1062E+00  0.1600E+02  0.1600E+02
    -12.004  0.0000E+00  0.0000E+00  0.1600E+02  0.1600E+02
    -11.811  0.0000E+00  0.0000E+00  0.1600E+02  0.1600E+02
    -11.618  0.0000E+00  0.0000E+00  0.1600E+02  0.1600E+02
    -11.425  0.0000E+00  0.0000E+00  0.1600E+02  0.1600E+02
    -11.232  0.0000E+00  0.0000E+00  0.1600E+02  0.1600E+02
    -11.039  0.0000E+00  0.0000E+00  0.1600E+02  0.1600E+02
    -10.846  0.0000E+00  0.0000E+00  0.1600E+02  0.1600E+02
    -10.653  0.0000E+00  0.0000E+00  0.1600E+02  0.1600E+02
    -10.460  0.0000E+00  0.0000E+00  0.1600E+02  0.1600E+02
    -10.267  0.0000E+00  0.0000E+00  0.1600E+02  0.1600E+02
    -10.074  0.0000E+00  0.0000E+00  0.1600E+02  0.1600E+02
     -9.882  0.0000E+00  0.0000E+00  0.1600E+02  0.1600E+02
     -9.689  0.0000E+00  0.0000E+00  0.1600E+02  0.1600E+02
     -9.496  0.0000E+00  0.0000E+00  0.1600E+02  0.1600E+02
     -9.303  0.0000E+00  0.0000E+00  0.1600E+02  0.1600E+02
     -9.110  0.0000E+00  0.0000E+00  0.1600E+02  0.1600E+02
     -8.917  0.0000E+00  0.0000E+00  0.1600E+02  0.1600E+02
     -8.724  0.0000E+00  0.0000E+00  0.1600E+02  0.1600E+02
     -8.531  0.0000E+00  0.0000E+00  0.1600E+02  0.1600E+02
     -8.338  0.0000E+00  0.0000E+00  0.1600E+02  0.1600E+02
     -8.145  0.0000E+00  0.0000E+00  0.1600E+02  0.1600E+02
     -7.952  0.0000E+00  0.0000E+00  0.1600E+02  0.1600E+02
     -7.759  0.0000E+00  0.0000E+00  0.1600E+02  0.1600E+02
     -7.566  0.0000E+00  0.0000E+00  0.1600E+02  0.1600E+02
     -7.374  0.0000E+00  0.0000E+00  0.1600E+02  0.1600E+02
     -7.181  0.0000E+00  0.0000E+00  0.1600E+02  0.1600E+02
     -6.988  0.0000E+00  0.0000E+00  0.1600E+02  0.1600E+02
     -6.795  0.0000E+00  0.0000E+00  0.1600E+02  0.1600E+02
     -6.602  0.0000E+00  0.0000E+00  0.1600E+02  0.1600E+02
     -6.409  0.0000E+00  0.0000E+00  0.1600E+02  0.1600E+02
     -6.216  0.0000E+00  0.0000E+00  0.1600E+02  0.1600E+02
     -6.023  0.0000E+00  0.0000E+00  0.1600E+02  0.1600E+02
     -5.830  0.0000E+00  0.0000E+00  0.1600E+02  0.1600E+02
     -5.637  0.0000E+00  0.0000E+00  0.1600E+02  0.1600E+02
     -5.444  0.0000E+00  0.0000E+00  0.1600E+02  0.1600E+02
     -5.251  0.0000E+00  0.0000E+00  0.1600E+02  0.1600E+02
     -5.058  0.0000E+00  0.0000E+00  0.1600E+02  0.1600E+02
     -4.865  0.0000E+00  0.0000E+00  0.1600E+02  0.1600E+02
     -4.673  0.0000E+00  0.0000E+00  0.1600E+02  0.1600E+02
     -4.480  0.0000E+00  0.0000E+00  0.1600E+02  0.1600E+02
     -4.287  0.0000E+00  0.0000E+00  0.1600E+02  0.1600E+02
     -4.094  0.0000E+00  0.0000E+00  0.1600E+02  0.1600E+02
     -3.901  0.0000E+00  0.0000E+00  0.1600E+02  0.1600E+02
     -3.708  0.0000E+00  0.0000E+00  0.1600E+02  0.1600E+02
     -3.515  0.0000E+00  0.0000E+00  0.1600E+02  0.1600E+02
     -3.322  0.0000E+00  0.0000E+00  0.1600E+02  0.1600E+02
     -3.129  0.0000E+00  0.0000E+00  0.1600E+02  0.1600E+02
     -2.936  0.0000E+00  0.0000E+00  0.1600E+02  0.1600E+02
     -2.743  0.0000E+00  0.0000E+00  0.1600E+02  0.1600E+02
     -2.550  0.0000E+00  0.0000E+00  0.1600E+02  0.1600E+02
     -2.357  0.0000E+00  0.0000E+00  0.1600E+02  0.1600E+02
     -2.164  0.0000E+00  0.0000E+00  0.1600E+02  0.1600E+02
     -1.972  0.4370E-04  0.4370E-04  0.1600E+02  0.1600E+02
     -1.779  0.2065E-02  0.2066E-02  0.1600E+02  0.1600E+02
     -1.586  0.8395E-01  0.8397E-01  0.1602E+02  0.1602E+02
     -1.393  0.5025E+00  0.5026E+00  0.1611E+02  0.1611E+02
     -1.200  0.5976E+00  0.5977E+00  0.1623E+02  0.1623E+02
     -1.007  0.1522E+01  0.1522E+01  0.1652E+02  0.1652E+02
     -0.814  0.2068E+01  0.2068E+01  0.1692E+02  0.1692E+02
     -0.621  0.3480E+01  0.3481E+01  0.1759E+02  0.1759E+02
     -0.428  0.4207E+01  0.4207E+01  0.1841E+02  0.1841E+02
     -0.235  0.2868E+01  0.2868E+01  0.1896E+02  0.1896E+02
     -0.042  0.1692E+01  0.1692E+01  0.1929E+02  0.1929E+02
      0.151  0.3817E+00  0.3815E+00  0.1937E+02  0.1937E+02
      0.344  0.8500E+00  0.8507E+00  0.1954E+02  0.1954E+02
      0.536  0.2711E+01  0.2711E+01  0.2006E+02  0.2006E+02
      0.729  0.9868E+00  0.9866E+00  0.2025E+02  0.2025E+02
      0.922  0.1605E+01  0.1605E+01  0.2056E+02  0.2056E+02
      1.115  0.1345E+01  0.1345E+01  0.2082E+02  0.2082E+02
      1.308  0.2868E+01  0.2868E+01  0.2138E+02  0.2138E+02
      1.501  0.1940E+01  0.1939E+01  0.2175E+02  0.2175E+02
      1.694  0.2113E+01  0.2114E+01  0.2216E+02  0.2216E+02
      1.887  0.3927E+01  0.3930E+01  0.2292E+02  0.2292E+02
      2.080  0.5809E+01  0.5809E+01  0.2404E+02  0.2404E+02
      2.273  0.4084E+01  0.4084E+01  0.2484E+02  0.2484E+02
      2.466  0.6134E+01  0.6134E+01  0.2603E+02  0.2603E+02
      2.659  0.3892E+01  0.3892E+01  0.2678E+02  0.2678E+02
      2.852  0.3436E+01  0.3435E+01  0.2745E+02  0.2745E+02
      3.045  0.1652E+01  0.1652E+01  0.2777E+02  0.2777E+02
      3.237  0.9795E+00  0.9785E+00  0.2796E+02  0.2796E+02
      3.430  0.1891E+00  0.1888E+00  0.2800E+02  0.2800E+02
      3.623  0.6309E-02  0.6288E-02  0.2800E+02  0.2800E+02
      3.816  0.0000E+00  0.0000E+00  0.2800E+02  0.2800E+02
      4.009  0.0000E+00  0.0000E+00  0.2800E+02  0.2800E+02
      4.202  0.0000E+00  0.0000E+00  0.2800E+02  0.2800E+02
      4.395  0.0000E+00  0.0000E+00  0.2800E+02  0.2800E+02
      4.588  0.0000E+00  0.0000E+00  0.2800E+02  0.2800E+02
      4.781  0.0000E+00  0.0000E+00  0.2800E+02  0.2800E+02
      4.974  0.0000E+00  0.0000E+00  0.2800E+02  0.2800E+02
      5.167  0.0000E+00  0.0000E+00  0.2800E+02  0.2800E+02
      5.360  0.0000E+00  0.0000E+00  0.2800E+02  0.2800E+02
      5.553  0.0000E+00  0.0000E+00  0.2800E+02  0.2800E+02
      5.745  0.0000E+00  0.0000E+00  0.2800E+02  0.2800E+02
      5.938  0.0000E+00  0.0000E+00  0.2800E+02  0.2800E+02
      6.131  0.0000E+00  0.0000E+00  0.2800E+02  0.2800E+02
      6.324  0.0000E+00  0.0000E+00  0.2800E+02  0.2800E+02
      6.517  0.0000E+00  0.0000E+00  0.2800E+02  0.2800E+02
      6.710  0.0000E+00  0.0000E+00  0.2800E+02  0.2800E+02
      6.903  0.0000E+00  0.0000E+00  0.2800E+02  0.2800E+02
      7.096  0.0000E+00  0.0000E+00  0.2800E+02  0.2800E+02
      7.289  0.0000E+00  0.0000E+00  0.2800E+02  0.2800E+02
      7.482  0.0000E+00  0.0000E+00  0.2800E+02  0.2800E+02
      7.675  0.0000E+00  0.0000E+00  0.2800E+02  0.2800E+02
      7.868  0.0000E+00  0.0000E+00  0.2800E+02  0.2800E+02
      8.061  0.0000E+00  0.0000E+00  0.2800E+02  0.2800E+02
      8.254  0.0000E+00  0.0000E+00  0.2800E+02  0.2800E+02
      8.446  0.0000E+00  0.0000E+00  0.2800E+02  0.2800E+02
      8.639  0.1413E-04  0.1417E-04  0.2800E+02  0.2800E+02
      8.832  0.6534E-03  0.6550E-03  0.2800E+02  0.2800E+02
      9.025  0.2658E-01  0.2663E-01  0.2801E+02  0.2801E+02
      9.218  0.1430E+00  0.1430E+00  0.2803E+02  0.2803E+02
      9.411  0.2121E-01  0.2116E-01  0.2804E+02  0.2804E+02
      9.604  0.7604E-04  0.7625E-04  0.2804E+02  0.2804E+02
      9.797  0.3506E-02  0.3516E-02  0.2804E+02  0.2804E+02
      9.990  0.1282E+00  0.1284E+00  0.2806E+02  0.2806E+02
     10.183  0.4060E+00  0.4058E+00  0.2814E+02  0.2814E+02
     10.376  0.3851E-01  0.3842E-01  0.2815E+02  0.2815E+02
     10.569  0.4886E-01  0.4897E-01  0.2816E+02  0.2816E+02
     10.762  0.4236E+00  0.4237E+00  0.2824E+02  0.2824E+02
     10.955  0.1701E+00  0.1699E+00  0.2827E+02  0.2827E+02
     11.147  0.1178E+00  0.1177E+00  0.2830E+02  0.2830E+02
     11.340  0.1184E+00  0.1186E+00  0.2832E+02  0.2832E+02
     11.533  0.5053E+00  0.5052E+00  0.2842E+02  0.2842E+02
     11.726  0.9656E+00  0.9663E+00  0.2860E+02  0.2860E+02
     11.919  0.1482E+01  0.1481E+01  0.2889E+02  0.2889E+02
     12.112  0.5520E+00  0.5518E+00  0.2900E+02  0.2900E+02
     12.305  0.6763E-01  0.6772E-01  0.2901E+02  0.2901E+02
     12.498  0.8823E+00  0.8827E+00  0.2918E+02  0.2918E+02
     12.691  0.1482E+01  0.1481E+01  0.2947E+02  0.2947E+02
     12.884  0.1514E+01  0.1514E+01  0.2976E+02  0.2976E+02
     13.077  0.1096E+01  0.1096E+01  0.2997E+02  0.2997E+02
     13.270  0.9121E+00  0.9120E+00  0.3015E+02  0.3015E+02
     13.463  0.2467E+01  0.2467E+01  0.3062E+02  0.3063E+02
     13.655  0.1996E+01  0.1996E+01  0.3101E+02  0.3101E+02
     13.848  0.1744E+01  0.1744E+01  0.3135E+02  0.3135E+02
     14.041  0.6816E+00  0.6823E+00  0.3148E+02  0.3148E+02
     14.234  0.1907E+01  0.1913E+01  0.3185E+02  0.3185E+02
     14.427  0.1361E+01  0.1355E+01  0.3211E+02  0.3211E+02
     14.620  0.1338E+01  0.1339E+01  0.3237E+02  0.3237E+02
     14.813  0.1821E+01  0.1822E+01  0.3273E+02  0.3273E+02
     15.006  0.7236E+00  0.7920E+00  0.3287E+02  0.3288E+02
     15.199  0.7786E+00  0.7230E+00  0.3302E+02  0.3302E+02
     15.392  0.1607E+01  0.1589E+01  0.3333E+02  0.3333E+02
     15.585  0.2980E+01  0.2988E+01  0.3390E+02  0.3390E+02
     15.778  0.2592E+01  0.2591E+01  0.3440E+02  0.3440E+02
     15.971  0.2566E+01  0.2552E+01  0.3490E+02  0.3490E+02
     16.164  0.2302E+01  0.2313E+01  0.3535E+02  0.3535E+02
     16.356  0.1140E+01  0.1141E+01  0.3557E+02  0.3557E+02
     16.549  0.1063E+01  0.1063E+01  0.3578E+02  0.3578E+02
     16.742  0.8269E+00  0.8222E+00  0.3594E+02  0.3594E+02
     16.935  0.1545E+00  0.1583E+00  0.3597E+02  0.3597E+02
     17.128  0.1389E+00  0.1389E+00  0.3600E+02  0.3600E+02
     17.321  0.1483E-01  0.1478E-01  0.3600E+02  0.3600E+02
     17.514  0.0000E+00  0.0000E+00  0.3600E+02  0.3600E+02
     17.707  0.0000E+00  0.0000E+00  0.3600E+02  0.3600E+02
     17.900  0.0000E+00  0.0000E+00  0.3600E+02  0.3600E+02
     18.093  0.0000E+00  0.0000E+00  0.3600E+02  0.3600E+02
     18.286  0.0000E+00  0.0000E+00  0.3600E+02  0.3600E+02
     18.479  0.0000E+00  0.0000E+00  0.3600E+02  0.3600E+02
     18.672  0.0000E+00  0.0000E+00  0.3600E+02  0.3600E+02
     18.865  0.0000E+00  0.0000E+00  0.3600E+02  0.3600E+02
     19.057  0.0000E+00  0.0000E+00  0.3600E+02  0.3600E+02
     19.250  0.0000E+00  0.0000E+00  0.3600E+02  0.3600E+02
     19.443  0.0000E+00  0.0000E+00  0.3600E+02  0.3600E+02
     19.636  0.0000E+00  0.0000E+00  0.3600E+02  0.3600E+02
     19.63621120    -38.24175241  301      4.39652135      1.00000000
    -38.242  0.0000E+00  0.0000E+00  0.0000E+00  0.0000E+00  0.0000E+00  0.0000E+00  0.0000E+00  0.0000E+00  0.0000E+00  0.0000E+00  0.0000E+00  0.0000E+00  0.0000E+00  0.0000E+00  0.0000E+00  0.0000E+00  0.0000E+00  0.0000E+00
    -38.049  0.0000E+00  0.0000E+00  0.0000E+00  0.0000E+00  0.0000E+00  0.0000E+00  0.0000E+00  0.0000E+00  0.0000E+00  0.0000E+00  0.0000E+00  0.0000E+00  0.0000E+00  0.0000E+00  0.0000E+00  0.0000E+00  0.0000E+00  0.0000E+00
    -37.856  0.0000E+00  0.0000E+00  0.0000E+00  0.0000E+00  0.0000E+00  0.0000E+00  0.0000E+00  0.0000E+00  0.0000E+00  0.0000E+00  0.0000E+00  0.0000E+00  0.0000E+00  0.0000E+00  0.0000E+00  0.0000E+00  0.0000E+00  0.0000E+00
    -37.663  0.0000E+00  0.0000E+00  0.0000E+00  0.0000E+00  0.0000E+00  0.0000E+00  0.0000E+00  0.0000E+00  0.0000E+00  0.0000E+00  0.0000E+00  0.0000E+00  0.0000E+00  0.0000E+00  0.0000E+00  0.0000E+00  0.0000E+00  0.0000E+00
    -37.470  0.0000E+00  0.0000E+00  0.0000E+00  0.0000E+00  0.0000E+00  0.0000E+00  0.0000E+00  0.0000E+00  0.0000E+00  0.0000E+00  0.0000E+00  0.0000E+00  0.0000E+00  0.0000E+00  0.0000E+00  0.0000E+00  0.0000E+00  0.0000E+00
    -37.277  0.0000E+00  0.0000E+00  0.0000E+00  0.0000E+00  0.0000E+00  0.0000E+00  0.0000E+00  0.0000E+00  0.0000E+00  0.0000E+00  0.0000E+00  0.0000E+00  0.0000E+00  0.0000E+00  0.0000E+00  0.0000E+00  0.0000E+00  0.0000E+00
    -37.084  0.0000E+00  0.0000E+00  0.0000E+00  0.0000E+00  0.0000E+00  0.0000E+00  0.0000E+00  0.0000E+00  0.0000E+00  0.0000E+00  0.0000E+00  0.0000E+00  0.0000E+00  0.0000E+00  0.0000E+00  0.0000E+00  0.0000E+00  0.0000E+00
    -36.891  0.0000E+00  0.0000E+00  0.0000E+00  0.0000E+00  0.0000E+00  0.0000E+00  0.0000E+00  0.0000E+00  0.0000E+00  0.0000E+00  0.0000E+00  0.0000E+00  0.0000E+00  0.0000E+00  0.0000E+00  0.0000E+00  0.0000E+00  0.0000E+00
    -36.698  0.0000E+00  0.0000E+00  0.0000E+00  0.0000E+00  0.0000E+00  0.0000E+00  0.0000E+00  0.0000E+00  0.0000E+00  0.0000E+00  0.0000E+00  0.0000E+00  0.0000E+00  0.0000E+00  0.0000E+00  0.0000E+00  0.0000E+00  0.0000E+00
    -36.505  0.0000E+00  0.0000E+00  0.0000E+00  0.0000E+00  0.0000E+00  0.0000E+00  0.0000E+00  0.0000E+00  0.0000E+00  0.0000E+00  0.0000E+00  0.0000E+00  0.0000E+00  0.0000E+00  0.0000E+00  0.0000E+00  0.0000E+00  0.0000E+00
    -36.312  0.0000E+00  0.0000E+00  0.0000E+00  0.0000E+00  0.0000E+00  0.0000E+00  0.0000E+00  0.0000E+00  0.0000E+00  0.0000E+00  0.0000E+00  0.0000E+00  0.0000E+00  0.0000E+00  0.0000E+00  0.0000E+00  0.0000E+00  0.0000E+00
    -36.120  0.6483E-09  0.6490E-09  0.5275E-04  0.5281E-04  0.5275E-04  0.5281E-04  0.5275E-04  0.5281E-04  0.3837E-10  0.3845E-10  0.3837E-10  0.3845E-10  0.3692E-10  0.3697E-10  0.3837E-10  0.3845E-10  0.3692E-10  0.3697E-10
    -35.927  0.3110E-07  0.3113E-07  0.2967E-02  0.2970E-02  0.2967E-02  0.2970E-02  0.2967E-02  0.2970E-02  0.1989E-08  0.1993E-08  0.1989E-08  0.1993E-08  0.1891E-08  0.1893E-08  0.1989E-08  0.1993E-08  0.1891E-08  0.1893E-08
    -35.734  0.1411E-05  0.1413E-05  0.1349E+00  0.1350E+00  0.1349E+00  0.1350E+00  0.1349E+00  0.1350E+00  0.9074E-07  0.9092E-07  0.9074E-07  0.9092E-07  0.8591E-07  0.8601E-07  0.9074E-07  0.9092E-07  0.8591E-07  0.8601E-07
    -35.541  0.2300E-04  0.2300E-04  0.2538E+01  0.2540E+01  0.2538E+01  0.2540E+01  0.2538E+01  0.2540E+01  0.1724E-05  0.1727E-05  0.1724E-05  0.1727E-05  0.1530E-05  0.1531E-05  0.1724E-05  0.1727E-05  0.1530E-05  0.1531E-05
    -35.348  0.1441E-04  0.1440E-04  0.2358E+01  0.2357E+01  0.2358E+01  0.2357E+01  0.2358E+01  0.2357E+01  0.1476E-05  0.1476E-05  0.1476E-05  0.1476E-05  0.1249E-05  0.1248E-05  0.1476E-05  0.1476E-05  0.1249E-05  0.1248E-05
    -35.155  0.2383E-06  0.2380E-06  0.9259E-01  0.9249E-01  0.9259E-01  0.9249E-01  0.9259E-01  0.9249E-01  0.5048E-07  0.5045E-07  0.5048E-07  0.5045E-07  0.4199E-07  0.4194E-07  0.5048E-07  0.5045E-07  0.4199E-07  0.4194E-07
    -34.962  0.0000E+00  0.0000E+00  0.0000E+00  0.0000E+00  0.0000E+00  0.0000E+00  0.0000E+00  0.0000E+00  0.0000E+00  0.0000E+00  0.0000E+00  0.0000E+00  0.0000E+00  0.0000E+00  0.0000E+00  0.0000E+00  0.0000E+00  0.0000E+00
    -34.769  0.0000E+00  0.0000E+00  0.0000E+00  0.0000E+00  0.0000E+00  0.0000E+00  0.0000E+00  0.0000E+00  0.0000E+00  0.0000E+00  0.0000E+00  0.0000E+00  0.0000E+00  0.0000E+00  0.0000E+00  0.0000E+00  0.0000E+00  0.0000E+00
    -34.576  0.0000E+00  0.0000E+00  0.0000E+00  0.0000E+00  0.0000E+00  0.0000E+00  0.0000E+00  0.0000E+00  0.0000E+00  0.0000E+00  0.0000E+00  0.0000E+00  0.0000E+00  0.0000E+00  0.0000E+00  0.0000E+00  0.0000E+00  0.0000E+00
    -34.383  0.0000E+00  0.0000E+00  0.0000E+00  0.0000E+00  0.0000E+00  0.0000E+00  0.0000E+00  0.0000E+00  0.0000E+00  0.0000E+00  0.0000E+00  0.0000E+00  0.0000E+00  0.0000E+00  0.0000E+00  0.0000E+00  0.0000E+00  0.0000E+00
    -34.190  0.0000E+00  0.0000E+00  0.0000E+00  0.0000E+00  0.0000E+00  0.0000E+00  0.0000E+00  0.0000E+00  0.0000E+00  0.0000E+00  0.0000E+00  0.0000E+00  0.0000E+00  0.0000E+00  0.0000E+00  0.0000E+00  0.0000E+00  0.0000E+00
    -33.997  0.0000E+00  0.0000E+00  0.0000E+00  0.0000E+00  0.0000E+00  0.0000E+00  0.0000E+00  0.0000E+00  0.0000E+00  0.0000E+00  0.0000E+00  0.0000E+00  0.0000E+00  0.0000E+00  0.0000E+00  0.0000E+00  0.0000E+00  0.0000E+00
    -33.804  0.0000E+00  0.0000E+00  0.0000E+00  0.0000E+00  0.0000E+00  0.0000E+00  0.0000E+00  0.0000E+00  0.0000E+00  0.0000E+00  0.0000E+00  0.0000E+00  0.0000E+00  0.0000E+00  0.0000E+00  0.0000E+00  0.0000E+00  0.0000E+00
    -33.612  0.0000E+00  0.0000E+00  0.0000E+00  0.0000E+00  0.0000E+00  0.0000E+00  0.0000E+00  0.0000E+00  0.0000E+00  0.0000E+00  0.0000E+00  0.0000E+00  0.0000E+00  0.0000E+00  0.0000E+00  0.0000E+00  0.0000E+00  0.0000E+00
    -33.419  0.0000E+00  0.0000E+00  0.0000E+00  0.0000E+00  0.0000E+00  0.0000E+00  0.0000E+00  0.0000E+00  0.0000E+00  0.0000E+00  0.0000E+00  0.0000E+00  0.0000E+00  0.0000E+00  0.0000E+00  0.0000E+00  0.0000E+00  0.0000E+00
    -33.226  0.0000E+00  0.0000E+00  0.0000E+00  0.0000E+00  0.0000E+00  0.0000E+00  0.0000E+00  0.0000E+00  0.0000E+00  0.0000E+00  0.0000E+00  0.0000E+00  0.0000E+00  0.0000E+00  0.0000E+00  0.0000E+00  0.0000E+00  0.0000E+00
    -33.033  0.0000E+00  0.0000E+00  0.0000E+00  0.0000E+00  0.0000E+00  0.0000E+00  0.0000E+00  0.0000E+00  0.0000E+00  0.0000E+00  0.0000E+00  0.0000E+00  0.0000E+00  0.0000E+00  0.0000E+00  0.0000E+00  0.0000E+00  0.0000E+00
    -32.840  0.0000E+00  0.0000E+00  0.0000E+00  0.0000E+00  0.0000E+00  0.0000E+00  0.0000E+00  0.0000E+00  0.0000E+00  0.0000E+00  0.0000E+00  0.0000E+00  0.0000E+00  0.0000E+00  0.0000E+00  0.0000E+00  0.0000E+00  0.0000E+00
    -32.647  0.0000E+00  0.0000E+00  0.0000E+00  0.0000E+00  0.0000E+00  0.0000E+00  0.0000E+00  0.0000E+00  0.0000E+00  0.0000E+00  0.0000E+00  0.0000E+00  0.0000E+00  0.0000E+00  0.0000E+00  0.0000E+00  0.0000E+00  0.0000E+00
    -32.454  0.0000E+00  0.0000E+00  0.0000E+00  0.0000E+00  0.0000E+00  0.0000E+00  0.0000E+00  0.0000E+00  0.0000E+00  0.0000E+00  0.0000E+00  0.0000E+00  0.0000E+00  0.0000E+00  0.0000E+00  0.0000E+00  0.0000E+00  0.0000E+00
    -32.261  0.0000E+00  0.0000E+00  0.0000E+00  0.0000E+00  0.0000E+00  0.0000E+00  0.0000E+00  0.0000E+00  0.0000E+00  0.0000E+00  0.0000E+00  0.0000E+00  0.0000E+00  0.0000E+00  0.0000E+00  0.0000E+00  0.0000E+00  0.0000E+00
    -32.068  0.0000E+00  0.0000E+00  0.0000E+00  0.0000E+00  0.0000E+00  0.0000E+00  0.0000E+00  0.0000E+00  0.0000E+00  0.0000E+00  0.0000E+00  0.0000E+00  0.0000E+00  0.0000E+00  0.0000E+00  0.0000E+00  0.0000E+00  0.0000E+00
    -31.875  0.0000E+00  0.0000E+00  0.0000E+00  0.0000E+00  0.0000E+00  0.0000E+00  0.0000E+00  0.0000E+00  0.0000E+00  0.0000E+00  0.0000E+00  0.0000E+00  0.0000E+00  0.0000E+00  0.0000E+00  0.0000E+00  0.0000E+00  0.0000E+00
    -31.682  0.0000E+00  0.0000E+00  0.0000E+00  0.0000E+00  0.0000E+00  0.0000E+00  0.0000E+00  0.0000E+00  0.0000E+00  0.0000E+00  0.0000E+00  0.0000E+00  0.0000E+00  0.0000E+00  0.0000E+00  0.0000E+00  0.0000E+00  0.0000E+00
    -31.489  0.0000E+00  0.0000E+00  0.0000E+00  0.0000E+00  0.0000E+00  0.0000E+00  0.0000E+00  0.0000E+00  0.0000E+00  0.0000E+00  0.0000E+00  0.0000E+00  0.0000E+00  0.0000E+00  0.0000E+00  0.0000E+00  0.0000E+00  0.0000E+00
    -31.296  0.0000E+00  0.0000E+00  0.0000E+00  0.0000E+00  0.0000E+00  0.0000E+00  0.0000E+00  0.0000E+00  0.0000E+00  0.0000E+00  0.0000E+00  0.0000E+00  0.0000E+00  0.0000E+00  0.0000E+00  0.0000E+00  0.0000E+00  0.0000E+00
    -31.103  0.0000E+00  0.0000E+00  0.0000E+00  0.0000E+00  0.0000E+00  0.0000E+00  0.0000E+00  0.0000E+00  0.0000E+00  0.0000E+00  0.0000E+00  0.0000E+00  0.0000E+00  0.0000E+00  0.0000E+00  0.0000E+00  0.0000E+00  0.0000E+00
    -30.911  0.0000E+00  0.0000E+00  0.0000E+00  0.0000E+00  0.0000E+00  0.0000E+00  0.0000E+00  0.0000E+00  0.0000E+00  0.0000E+00  0.0000E+00  0.0000E+00  0.0000E+00  0.0000E+00  0.0000E+00  0.0000E+00  0.0000E+00  0.0000E+00
    -30.718  0.0000E+00  0.0000E+00  0.0000E+00  0.0000E+00  0.0000E+00  0.0000E+00  0.0000E+00  0.0000E+00  0.0000E+00  0.0000E+00  0.0000E+00  0.0000E+00  0.0000E+00  0.0000E+00  0.0000E+00  0.0000E+00  0.0000E+00  0.0000E+00
    -30.525  0.0000E+00  0.0000E+00  0.0000E+00  0.0000E+00  0.0000E+00  0.0000E+00  0.0000E+00  0.0000E+00  0.0000E+00  0.0000E+00  0.0000E+00  0.0000E+00  0.0000E+00  0.0000E+00  0.0000E+00  0.0000E+00  0.0000E+00  0.0000E+00
    -30.332  0.0000E+00  0.0000E+00  0.0000E+00  0.0000E+00  0.0000E+00  0.0000E+00  0.0000E+00  0.0000E+00  0.0000E+00  0.0000E+00  0.0000E+00  0.0000E+00  0.0000E+00  0.0000E+00  0.0000E+00  0.0000E+00  0.0000E+00  0.0000E+00
    -30.139  0.0000E+00  0.0000E+00  0.0000E+00  0.0000E+00  0.0000E+00  0.0000E+00  0.0000E+00  0.0000E+00  0.0000E+00  0.0000E+00  0.0000E+00  0.0000E+00  0.0000E+00  0.0000E+00  0.0000E+00  0.0000E+00  0.0000E+00  0.0000E+00
    -29.946  0.0000E+00  0.0000E+00  0.0000E+00  0.0000E+00  0.0000E+00  0.0000E+00  0.0000E+00  0.0000E+00  0.0000E+00  0.0000E+00  0.0000E+00  0.0000E+00  0.0000E+00  0.0000E+00  0.0000E+00  0.0000E+00  0.0000E+00  0.0000E+00
    -29.753  0.0000E+00  0.0000E+00  0.0000E+00  0.0000E+00  0.0000E+00  0.0000E+00  0.0000E+00  0.0000E+00  0.0000E+00  0.0000E+00  0.0000E+00  0.0000E+00  0.0000E+00  0.0000E+00  0.0000E+00  0.0000E+00  0.0000E+00  0.0000E+00
    -29.560  0.0000E+00  0.0000E+00  0.0000E+00  0.0000E+00  0.0000E+00  0.0000E+00  0.0000E+00  0.0000E+00  0.0000E+00  0.0000E+00  0.0000E+00  0.0000E+00  0.0000E+00  0.0000E+00  0.0000E+00  0.0000E+00  0.0000E+00  0.0000E+00
    -29.367  0.0000E+00  0.0000E+00  0.0000E+00  0.0000E+00  0.0000E+00  0.0000E+00  0.0000E+00  0.0000E+00  0.0000E+00  0.0000E+00  0.0000E+00  0.0000E+00  0.0000E+00  0.0000E+00  0.0000E+00  0.0000E+00  0.0000E+00  0.0000E+00
    -29.174  0.0000E+00  0.0000E+00  0.0000E+00  0.0000E+00  0.0000E+00  0.0000E+00  0.0000E+00  0.0000E+00  0.0000E+00  0.0000E+00  0.0000E+00  0.0000E+00  0.0000E+00  0.0000E+00  0.0000E+00  0.0000E+00  0.0000E+00  0.0000E+00
    -28.981  0.0000E+00  0.0000E+00  0.0000E+00  0.0000E+00  0.0000E+00  0.0000E+00  0.0000E+00  0.0000E+00  0.0000E+00  0.0000E+00  0.0000E+00  0.0000E+00  0.0000E+00  0.0000E+00  0.0000E+00  0.0000E+00  0.0000E+00  0.0000E+00
    -28.788  0.0000E+00  0.0000E+00  0.0000E+00  0.0000E+00  0.0000E+00  0.0000E+00  0.0000E+00  0.0000E+00  0.0000E+00  0.0000E+00  0.0000E+00  0.0000E+00  0.0000E+00  0.0000E+00  0.0000E+00  0.0000E+00  0.0000E+00  0.0000E+00
    -28.595  0.0000E+00  0.0000E+00  0.0000E+00  0.0000E+00  0.0000E+00  0.0000E+00  0.0000E+00  0.0000E+00  0.0000E+00  0.0000E+00  0.0000E+00  0.0000E+00  0.0000E+00  0.0000E+00  0.0000E+00  0.0000E+00  0.0000E+00  0.0000E+00