   8   8   1   0
  0.7967778E+01  0.3994622E-09  0.3994622E-09  0.3994622E-09  0.5000000E-15
  1.000000000000000E-004
  CAR 
 unknown system                          
     21.49205143    -37.26909061  301      5.04199213      1.00000000
    -37.269  0.0000E+00  0.0000E+00  0.0000E+00  0.0000E+00
    -37.073  0.0000E+00  0.0000E+00  0.0000E+00  0.0000E+00
    -36.877  0.0000E+00  0.0000E+00  0.0000E+00  0.0000E+00
    -36.681  0.0000E+00  0.0000E+00  0.0000E+00  0.0000E+00
    -36.486  0.0000E+00  0.0000E+00  0.0000E+00  0.0000E+00
    -36.290  0.0000E+00  0.0000E+00  0.0000E+00  0.0000E+00
    -36.094  0.0000E+00  0.0000E+00  0.0000E+00  0.0000E+00
    -35.898  0.0000E+00  0.0000E+00  0.0000E+00  0.0000E+00
    -35.702  0.0000E+00  0.0000E+00  0.0000E+00  0.0000E+00
    -35.506  0.0000E+00  0.0000E+00  0.0000E+00  0.0000E+00
    -35.310  0.0000E+00  0.0000E+00  0.0000E+00  0.0000E+00
    -35.115  0.3138E-03  0.3142E-03  0.6146E-04  0.6154E-04
    -34.919  0.2120E-01  0.2123E-01  0.4214E-02  0.4220E-02
    -34.723  0.1026E+01  0.1027E+01  0.2051E+00  0.2054E+00
    -34.527  0.2276E+02  0.2277E+02  0.4663E+01  0.4666E+01
    -34.331  0.3487E+02  0.3486E+02  0.1149E+02  0.1149E+02
    -34.135  0.2374E+01  0.2371E+01  0.1199E+02  0.1199E+02
    -33.939  0.0000E+00  0.0000E+00  0.1200E+02  0.1200E+02
    -33.743  0.0000E+00  0.0000E+00  0.1200E+02  0.1200E+02
    -33.548  0.0000E+00  0.0000E+00  0.1200E+02  0.1200E+02
    -33.352  0.0000E+00  0.0000E+00  0.1200E+02  0.1200E+02
    -33.156  0.0000E+00  0.0000E+00  0.1200E+02  0.1200E+02
    -32.960  0.0000E+00  0.0000E+00  0.1200E+02  0.1200E+02
    -32.764  0.0000E+00  0.0000E+00  0.1200E+02  0.1200E+02
    -32.568  0.0000E+00  0.0000E+00  0.1200E+02  0.1200E+02
    -32.372  0.0000E+00  0.0000E+00  0.1200E+02  0.1200E+02
    -32.176  0.0000E+00  0.0000E+00  0.1200E+02  0.1200E+02
    -31.981  0.0000E+00  0.0000E+00  0.1200E+02  0.1200E+02
    -31.785  0.0000E+00  0.0000E+00  0.1200E+02  0.1200E+02
    -31.589  0.0000E+00  0.0000E+00  0.1200E+02  0.1200E+02
    -31.393  0.0000E+00  0.0000E+00  0.1200E+02  0.1200E+02
    -31.197  0.0000E+00  0.0000E+00  0.1200E+02  0.1200E+02
    -31.001  0.0000E+00  0.0000E+00  0.1200E+02  0.1200E+02
    -30.805  0.0000E+00  0.0000E+00  0.1200E+02  0.1200E+02
    -30.609  0.0000E+00  0.0000E+00  0.1200E+02  0.1200E+02
    -30.414  0.0000E+00  0.0000E+00  0.1200E+02  0.1200E+02
    -30.218  0.0000E+00  0.0000E+00  0.1200E+02  0.1200E+02
    -30.022  0.0000E+00  0.0000E+00  0.1200E+02  0.1200E+02
    -29.826  0.0000E+00  0.0000E+00  0.1200E+02  0.1200E+02
    -29.630  0.0000E+00  0.0000E+00  0.1200E+02  0.1200E+02
    -29.434  0.0000E+00  0.0000E+00  0.1200E+02  0.1200E+02
    -29.238  0.0000E+00  0.0000E+00  0.1200E+02  0.1200E+02
    -29.043  0.0000E+00  0.0000E+00  0.1200E+02  0.1200E+02
    -28.847  0.0000E+00  0.0000E+00  0.1200E+02  0.1200E+02
    -28.651  0.0000E+00  0.0000E+00  0.1200E+02  0.1200E+02
    -28.455  0.0000E+00  0.0000E+00  0.1200E+02  0.1200E+02
    -28.259  0.0000E+00  0.0000E+00  0.1200E+02  0.1200E+02
    -28.063  0.0000E+00  0.0000E+00  0.1200E+02  0.1200E+02
    -27.867  0.0000E+00  0.0000E+00  0.1200E+02  0.1200E+02
    -27.671  0.0000E+00  0.0000E+00  0.1200E+02  0.1200E+02
    -27.476  0.0000E+00  0.0000E+00  0.1200E+02  0.1200E+02
    -27.280  0.0000E+00  0.0000E+00  0.1200E+02  0.1200E+02
    -27.084  0.0000E+00  0.0000E+00  0.1200E+02  0.1200E+02
    -26.888  0.0000E+00  0.0000E+00  0.1200E+02  0.1200E+02
    -26.692  0.0000E+00  0.0000E+00  0.1200E+02  0.1200E+02
    -26.496  0.0000E+00  0.0000E+00  0.1200E+02  0.1200E+02
    -26.300  0.0000E+00  0.0000E+00  0.1200E+02  0.1200E+02
    -26.104  0.0000E+00  0.0000E+00  0.1200E+02  0.1200E+02
    -25.909  0.0000E+00  0.0000E+00  0.1200E+02  0.1200E+02
    -25.713  0.0000E+00  0.0000E+00  0.1200E+02  0.1200E+02
    -25.517  0.0000E+00  0.0000E+00  0.1200E+02  0.1200E+02
    -25.321  0.0000E+00  0.0000E+00  0.1200E+02  0.1200E+02
    -25.125  0.0000E+00  0.0000E+00  0.1200E+02  0.1200E+02
    -24.929  0.0000E+00  0.0000E+00  0.1200E+02  0.1200E+02
    -24.733  0.0000E+00  0.0000E+00  0.1200E+02  0.1200E+02
    -24.538  0.0000E+00  0.0000E+00  0.1200E+02  0.1200E+02
    -24.342  0.0000E+00  0.0000E+00  0.1200E+02  0.1200E+02
    -24.146  0.0000E+00  0.0000E+00  0.1200E+02  0.1200E+02
    -23.950  0.0000E+00  0.0000E+00  0.1200E+02  0.1200E+02
    -23.754  0.0000E+00  0.0000E+00  0.1200E+02  0.1200E+02
    -23.558  0.0000E+00  0.0000E+00  0.1200E+02  0.1200E+02
    -23.362  0.0000E+00  0.0000E+00  0.1200E+02  0.1200E+02
    -23.166  0.0000E+00  0.0000E+00  0.1200E+02  0.1200E+02
    -22.971  0.0000E+00  0.0000E+00  0.1200E+02  0.1200E+02
    -22.775  0.0000E+00  0.0000E+00  0.1200E+02  0.1200E+02
    -22.579  0.0000E+00  0.0000E+00  0.1200E+02  0.1200E+02
    -22.383  0.0000E+00  0.0000E+00  0.1200E+02  0.1200E+02
    -22.187  0.0000E+00  0.0000E+00  0.1200E+02  0.1200E+02
    -21.991  0.0000E+00  0.0000E+00  0.1200E+02  0.1200E+02
    -21.795  0.0000E+00  0.0000E+00  0.1200E+02  0.1200E+02
    -21.599  0.0000E+00  0.0000E+00  0.1200E+02  0.1200E+02
    -21.404  0.0000E+00  0.0000E+00  0.1200E+02  0.1200E+02
    -21.208  0.0000E+00  0.0000E+00  0.1200E+02  0.1200E+02
    -21.012  0.0000E+00  0.0000E+00  0.1200E+02  0.1200E+02
    -20.816  0.0000E+00  0.0000E+00  0.1200E+02  0.1200E+02
    -20.620  0.0000E+00  0.0000E+00  0.1200E+02  0.1200E+02
    -20.424  0.0000E+00  0.0000E+00  0.1200E+02  0.1200E+02
    -20.228  0.0000E+00  0.0000E+00  0.1200E+02  0.1200E+02
    -20.032  0.0000E+00  0.0000E+00  0.1200E+02  0.1200E+02
    -19.837  0.0000E+00  0.0000E+00  0.1200E+02  0.1200E+02
    -19.641  0.0000E+00  0.0000E+00  0.1200E+02  0.1200E+02
    -19.445  0.0000E+00  0.0000E+00  0.1200E+02  0.1200E+02
    -19.249  0.0000E+00  0.0000E+00  0.1200E+02  0.1200E+02
    -19.053  0.0000E+00  0.0000E+00  0.1200E+02  0.1200E+02
    -18.857  0.0000E+00  0.0000E+00  0.1200E+02  0.1200E+02
    -18.661  0.0000E+00  0.0000E+00  0.1200E+02  0.1200E+02
    -18.466  0.0000E+00  0.0000E+00  0.1200E+02  0.1200E+02
    -18.270  0.0000E+00  0.0000E+00  0.1200E+02  0.1200E+02
    -18.074  0.0000E+00  0.0000E+00  0.1200E+02  0.1200E+02
    -17.878  0.0000E+00  0.0000E+00  0.1200E+02  0.1200E+02
    -17.682  0.0000E+00  0.0000E+00  0.1200E+02  0.1200E+02
    -17.486  0.0000E+00  0.0000E+00  0.1200E+02  0.1200E+02
    -17.290  0.0000E+00  0.0000E+00  0.1200E+02  0.1200E+02
    -17.094  0.0000E+00  0.0000E+00  0.1200E+02  0.1200E+02
    -16.899  0.0000E+00  0.0000E+00  0.1200E+02  0.1200E+02
    -16.703  0.0000E+00  0.0000E+00  0.1200E+02  0.1200E+02
    -16.507  0.0000E+00  0.0000E+00  0.1200E+02  0.1200E+02
    -16.311  0.0000E+00  0.0000E+00  0.1200E+02  0.1200E+02
    -16.115  0.0000E+00  0.0000E+00  0.1200E+02  0.1200E+02
    -15.919  0.0000E+00  0.0000E+00  0.1200E+02  0.1200E+02
    -15.723  0.0000E+00  0.0000E+00  0.1200E+02  0.1200E+02
    -15.527  0.0000E+00  0.0000E+00  0.1200E+02  0.1200E+02
    -15.332  0.0000E+00  0.0000E+00  0.1200E+02  0.1200E+02
    -15.136  0.0000E+00  0.0000E+00  0.1200E+02  0.1200E+02
    -14.940  0.0000E+00  0.0000E+00  0.1200E+02  0.1200E+02
    -14.744  0.0000E+00  0.0000E+00  0.1200E+02  0.1200E+02
    -14.548  0.6027E-05  0.6038E-05  0.1200E+02  0.1200E+02
    -14.352  0.3019E-03  0.3024E-03  0.1200E+02  0.1200E+02
    -14.156  0.1406E-01  0.1408E-01  0.1200E+02  0.1200E+02
    -13.961  0.1507E+00  0.1508E+00  0.1203E+02  0.1203E+02
    -13.765  0.3395E+00  0.3397E+00  0.1210E+02  0.1210E+02
    -13.569  0.4408E+00  0.4408E+00  0.1219E+02  0.1219E+02
    -13.373  0.5648E+00  0.5650E+00  0.1230E+02  0.1230E+02
    -13.177  0.8252E+00  0.8254E+00  0.1246E+02  0.1246E+02
    -12.981  0.1029E+01  0.1029E+01  0.1266E+02  0.1266E+02
    -12.785  0.1157E+01  0.1158E+01  0.1289E+02  0.1289E+02
    -12.589  0.1964E+01  0.1965E+01  0.1327E+02  0.1327E+02
    -12.394  0.2402E+01  0.2403E+01  0.1374E+02  0.1375E+02
    -12.198  0.4606E+01  0.4608E+01  0.1465E+02  0.1465E+02
    -12.002  0.5461E+01  0.5460E+01  0.1572E+02  0.1572E+02
    -11.806  0.1353E+01  0.1350E+01  0.1599E+02  0.1599E+02
    -11.610  0.1930E-01  0.1924E-01  0.1600E+02  0.1600E+02
    -11.414  0.0000E+00  0.0000E+00  0.1600E+02  0.1600E+02
    -11.218  0.0000E+00  0.0000E+00  0.1600E+02  0.1600E+02
    -11.022  0.0000E+00  0.0000E+00  0.1600E+02  0.1600E+02
    -10.827  0.0000E+00  0.0000E+00  0.1600E+02  0.1600E+02
    -10.631  0.0000E+00  0.0000E+00  0.1600E+02  0.1600E+02
    -10.435  0.0000E+00  0.0000E+00  0.1600E+02  0.1600E+02
    -10.239  0.0000E+00  0.0000E+00  0.1600E+02  0.1600E+02
    -10.043  0.0000E+00  0.0000E+00  0.1600E+02  0.1600E+02
     -9.847  0.0000E+00  0.0000E+00  0.1600E+02  0.1600E+02
     -9.651  0.0000E+00  0.0000E+00  0.1600E+02  0.1600E+02
     -9.455  0.0000E+00  0.0000E+00  0.1600E+02  0.1600E+02
     -9.260  0.0000E+00  0.0000E+00  0.1600E+02  0.1600E+02
     -9.064  0.0000E+00  0.0000E+00  0.1600E+02  0.1600E+02
     -8.868  0.0000E+00  0.0000E+00  0.1600E+02  0.1600E+02
     -8.672  0.0000E+00  0.0000E+00  0.1600E+02  0.1600E+02
     -8.476  0.0000E+00  0.0000E+00  0.1600E+02  0.1600E+02
     -8.280  0.0000E+00  0.0000E+00  0.1600E+02  0.1600E+02
     -8.084  0.0000E+00  0.0000E+00  0.1600E+02  0.1600E+02
     -7.889  0.0000E+00  0.0000E+00  0.1600E+02  0.1600E+02
     -7.693  0.0000E+00  0.0000E+00  0.1600E+02  0.1600E+02
     -7.497  0.0000E+00  0.0000E+00  0.1600E+02  0.1600E+02
     -7.301  0.0000E+00  0.0000E+00  0.1600E+02  0.1600E+02
     -7.105  0.0000E+00  0.0000E+00  0.1600E+02  0.1600E+02
     -6.909  0.0000E+00  0.0000E+00  0.1600E+02  0.1600E+02
     -6.713  0.0000E+00  0.0000E+00  0.1600E+02  0.1600E+02
     -6.517  0.0000E+00  0.0000E+00  0.1600E+02  0.1600E+02
     -6.322  0.0000E+00  0.0000E+00  0.1600E+02  0.1600E+02
     -6.126  0.0000E+00  0.0000E+00  0.1600E+02  0.1600E+02
     -5.930  0.0000E+00  0.0000E+00  0.1600E+02  0.1600E+02
     -5.734  0.0000E+00  0.0000E+00  0.1600E+02  0.1600E+02
     -5.538  0.0000E+00  0.0000E+00  0.1600E+02  0.1600E+02
     -5.342  0.0000E+00  0.0000E+00  0.1600E+02  0.1600E+02
     -5.146  0.0000E+00  0.0000E+00  0.1600E+02  0.1600E+02
     -4.950  0.0000E+00  0.0000E+00  0.1600E+02  0.1600E+02
     -4.755  0.0000E+00  0.0000E+00  0.1600E+02  0.1600E+02
     -4.559  0.0000E+00  0.0000E+00  0.1600E+02  0.1600E+02
     -4.363  0.0000E+00  0.0000E+00  0.1600E+02  0.1600E+02
     -4.167  0.0000E+00  0.0000E+00  0.1600E+02  0.1600E+02
     -3.971  0.0000E+00  0.0000E+00  0.1600E+02  0.1600E+02
     -3.775  0.0000E+00  0.0000E+00  0.1600E+02  0.1600E+02
     -3.579  0.0000E+00  0.0000E+00  0.1600E+02  0.1600E+02
     -3.383  0.0000E+00  0.0000E+00  0.1600E+02  0.1600E+02
     -3.188  0.0000E+00  0.0000E+00  0.1600E+02  0.1600E+02
     -2.992  0.0000E+00  0.0000E+00  0.1600E+02  0.1600E+02
     -2.796  0.0000E+00  0.0000E+00  0.1600E+02  0.1600E+02
     -2.600  0.0000E+00  0.0000E+00  0.1600E+02  0.1600E+02
     -2.404  0.0000E+00  0.0000E+00  0.1600E+02  0.1600E+02
     -2.208  0.0000E+00  0.0000E+00  0.1600E+02  0.1600E+02
     -2.012  0.0000E+00  0.0000E+00  0.1600E+02  0.1600E+02
     -1.817  0.0000E+00  0.0000E+00  0.1600E+02  0.1600E+02
     -1.621  0.9675E-04  0.9674E-04  0.1600E+02  0.1600E+02
     -1.425  0.4790E-02  0.4789E-02  0.1600E+02  0.1600E+02
     -1.229  0.1692E+00  0.1692E+00  0.1603E+02  0.1603E+02
     -1.033  0.4704E+00  0.4705E+00  0.1613E+02  0.1613E+02
     -0.837  0.6172E+00  0.6172E+00  0.1625E+02  0.1625E+02
     -0.641  0.1465E+01  0.1465E+01  0.1653E+02  0.1653E+02
     -0.445  0.1799E+01  0.1799E+01  0.1689E+02  0.1689E+02
     -0.250  0.2956E+01  0.2956E+01  0.1747E+02  0.1747E+02
     -0.054  0.4337E+01  0.4337E+01  0.1832E+02  0.1832E+02
      0.142  0.2239E+01  0.2240E+01  0.1876E+02  0.1876E+02
      0.338  0.2303E+01  0.2303E+01  0.1921E+02  0.1921E+02
      0.534  0.6826E+00  0.6825E+00  0.1935E+02  0.1935E+02
      0.730  0.2496E+00  0.2496E+00  0.1940E+02  0.1940E+02
      0.926  0.2028E+01  0.2028E+01  0.1979E+02  0.1979E+02
      1.122  0.1903E+01  0.1903E+01  0.2017E+02  0.2017E+02
      1.317  0.1030E+01  0.1030E+01  0.2037E+02  0.2037E+02
      1.513  0.1198E+01  0.1198E+01  0.2061E+02  0.2061E+02
      1.709  0.1777E+01  0.1778E+01  0.2095E+02  0.2095E+02
      1.905  0.2698E+01  0.2698E+01  0.2148E+02  0.2148E+02
      2.101  0.1628E+01  0.1627E+01  0.2180E+02  0.2180E+02
      2.297  0.1955E+01  0.1956E+01  0.2219E+02  0.2219E+02
      2.493  0.3814E+01  0.3815E+01  0.2294E+02  0.2294E+02
      2.688  0.5462E+01  0.5462E+01  0.2401E+02  0.2401E+02
      2.884  0.3810E+01  0.3810E+01  0.2476E+02  0.2476E+02
      3.080  0.5852E+01  0.5854E+01  0.2592E+02  0.2592E+02
      3.276  0.3574E+01  0.3573E+01  0.2662E+02  0.2662E+02
      3.472  0.3406E+01  0.3406E+01  0.2730E+02  0.2730E+02
      3.668  0.1668E+01  0.1667E+01  0.2762E+02  0.2762E+02
      3.864  0.1388E+01  0.1387E+01  0.2790E+02  0.2790E+02
      4.060  0.4488E+00  0.4485E+00  0.2799E+02  0.2799E+02
      4.255  0.5705E-01  0.5690E-01  0.2800E+02  0.2800E+02
      4.451  0.0000E+00  0.0000E+00  0.2800E+02  0.2800E+02
      4.647  0.0000E+00  0.0000E+00  0.2800E+02  0.2800E+02
      4.843  0.0000E+00  0.0000E+00  0.2800E+02  0.2800E+02
      5.039  0.0000E+00  0.0000E+00  0.2800E+02  0.2800E+02
      5.235  0.0000E+00  0.0000E+00  0.2800E+02  0.2800E+02
      5.431  0.0000E+00  0.0000E+00  0.2800E+02  0.2800E+02
      5.627  0.0000E+00  0.0000E+00  0.2800E+02  0.2800E+02
      5.822  0.0000E+00  0.0000E+00  0.2800E+02  0.2800E+02
      6.018  0.0000E+00  0.0000E+00  0.2800E+02  0.2800E+02
      6.214  0.0000E+00  0.0000E+00  0.2800E+02  0.2800E+02
      6.410  0.0000E+00  0.0000E+00  0.2800E+02  0.2800E+02
      6.606  0.0000E+00  0.0000E+00  0.2800E+02  0.2800E+02
      6.802  0.0000E+00  0.0000E+00  0.2800E+02  0.2800E+02
      6.998  0.0000E+00  0.0000E+00  0.2800E+02  0.2800E+02
      7.194  0.0000E+00  0.0000E+00  0.2800E+02  0.2800E+02
      7.389  0.0000E+00  0.0000E+00  0.2800E+02  0.2800E+02
      7.585  0.0000E+00  0.0000E+00  0.2800E+02  0.2800E+02
      7.781  0.0000E+00  0.0000E+00  0.2800E+02  0.2800E+02
      7.977  0.0000E+00  0.0000E+00  0.2800E+02  0.2800E+02
      8.173  0.0000E+00  0.0000E+00  0.2800E+02  0.2800E+02
      8.369  0.0000E+00  0.0000E+00  0.2800E+02  0.2800E+02
      8.565  0.0000E+00  0.0000E+00  0.2800E+02  0.2800E+02
      8.760  0.0000E+00  0.0000E+00  0.2800E+02  0.2800E+02
      8.956  0.0000E+00  0.0000E+00  0.2800E+02  0.2800E+02
      9.152  0.0000E+00  0.0000E+00  0.2800E+02  0.2800E+02
      9.348  0.0000E+00  0.0000E+00  0.2800E+02  0.2800E+02
      9.544  0.0000E+00  0.0000E+00  0.2800E+02  0.2800E+02
      9.740  0.0000E+00  0.0000E+00  0.2800E+02  0.2800E+02
      9.936  0.0000E+00  0.0000E+00  0.2800E+02  0.2800E+02
     10.132  0.0000E+00  0.0000E+00  0.2800E+02  0.2800E+02
     10.327  0.1608E-05  0.1611E-05  0.2800E+02  0.2800E+02
     10.523  0.7920E-04  0.7936E-04  0.2800E+02  0.2800E+02
     10.719  0.3898E-02  0.3906E-02  0.2800E+02  0.2800E+02
     10.915  0.9422E-01  0.9431E-01  0.2802E+02  0.2802E+02
     11.111  0.8747E-01  0.8738E-01  0.2804E+02  0.2804E+02
     11.307  0.3362E-02  0.3355E-02  0.2804E+02  0.2804E+02
     11.503  0.6177E-03  0.6191E-03  0.2804E+02  0.2804E+02
     11.699  0.2941E-01  0.2947E-01  0.2804E+02  0.2804E+02
     11.894  0.3884E+00  0.3886E+00  0.2812E+02  0.2812E+02
     12.090  0.1452E+00  0.1449E+00  0.2815E+02  0.2815E+02
     12.286  0.1543E-01  0.1546E-01  0.2815E+02  0.2815E+02
     12.482  0.3212E+00  0.3214E+00  0.2821E+02  0.2821E+02
     12.678  0.3093E+00  0.3091E+00  0.2827E+02  0.2827E+02
     12.874  0.1078E+00  0.1077E+00  0.2830E+02  0.2830E+02
     13.070  0.1661E+00  0.1661E+00  0.2833E+02  0.2833E+02
     13.265  0.7555E+00  0.7558E+00  0.2848E+02  0.2848E+02
     13.461  0.1570E+01  0.1570E+01  0.2879E+02  0.2879E+02
     13.657  0.1361E+01  0.1361E+01  0.2905E+02  0.2905E+02
     13.853  0.3552E+00  0.3552E+00  0.2912E+02  0.2912E+02
     14.049  0.1079E+01  0.1079E+01  0.2934E+02  0.2934E+02
     14.245  0.1816E+01  0.1816E+01  0.2969E+02  0.2969E+02
     14.441  0.5547E+00  0.5546E+00  0.2980E+02  0.2980E+02
     14.637  0.1554E+01  0.1554E+01  0.3011E+02  0.3011E+02
     14.832  0.2644E+01  0.2643E+01  0.3063E+02  0.3063E+02
     15.028  0.2652E+01  0.2652E+01  0.3115E+02  0.3115E+02
     15.224  0.1069E+01  0.1068E+01  0.3136E+02  0.3136E+02
     15.420  0.4956E+00  0.4957E+00  0.3146E+02  0.3146E+02
     15.616  0.9142E+00  0.9143E+00  0.3164E+02  0.3164E+02
     15.812  0.1496E+01  0.1497E+01  0.3193E+02  0.3193E+02
     16.008  0.2013E+01  0.2020E+01  0.3232E+02  0.3233E+02
     16.204  0.1199E+01  0.1199E+01  0.3256E+02  0.3256E+02
     16.399  0.9981E+00  0.9911E+00  0.3276E+02  0.3276E+02
     16.595  0.6383E+00  0.6376E+00  0.3289E+02  0.3289E+02
     16.791  0.1414E+01  0.1414E+01  0.3316E+02  0.3316E+02
     16.987  0.3302E+01  0.3302E+01  0.3381E+02  0.3381E+02
     17.183  0.1533E+01  0.1534E+01  0.3411E+02  0.3411E+02
     17.379  0.1957E+01  0.1959E+01  0.3450E+02  0.3450E+02
     17.575  0.1716E+01  0.1761E+01  0.3483E+02  0.3484E+02
     17.771  0.2207E+01  0.2284E+01  0.3527E+02  0.3529E+02
     17.966  0.1544E+01  0.1600E+01  0.3557E+02  0.3561E+02
     18.162  0.6599E+00  0.4863E+00  0.3570E+02  0.3571E+02
     18.358  0.5937E+00  0.6026E+00  0.3582E+02  0.3582E+02
     18.554  0.6768E+00  0.6698E+00  0.3595E+02  0.3596E+02
     18.750  0.7733E-01  0.7494E-01  0.3597E+02  0.3597E+02
     18.946  0.1380E+00  0.1379E+00  0.3600E+02  0.3600E+02
     19.142  0.1413E-01  0.1409E-01  0.3600E+02  0.3600E+02
     19.337  0.0000E+00  0.0000E+00  0.3600E+02  0.3600E+02
     19.533  0.0000E+00  0.0000E+00  0.3600E+02  0.3600E+02
     19.729  0.0000E+00  0.0000E+00  0.3600E+02  0.3600E+02
     19.925  0.0000E+00  0.0000E+00  0.3600E+02  0.3600E+02
     20.121  0.0000E+00  0.0000E+00  0.3600E+02  0.3600E+02
     20.317  0.0000E+00  0.0000E+00  0.3600E+02  0.3600E+02
     20.513  0.0000E+00  0.0000E+00  0.3600E+02  0.3600E+02
     20.709  0.0000E+00  0.0000E+00  0.3600E+02  0.3600E+02
     20.904  0.0000E+00  0.0000E+00  0.3600E+02  0.3600E+02
     21.100  0.0000E+00  0.0000E+00  0.3600E+02  0.3600E+02
     21.296  0.0000E+00  0.0000E+00  0.3600E+02  0.3600E+02
     21.492  0.0000E+00  0.0000E+00  0.3600E+02  0.3600E+02
     21.49205143    -37.26909061  301      5.04199213      1.00000000
    -37.269  0.0000E+00  0.0000E+00  0.0000E+00  0.0000E+00  0.0000E+00  0.0000E+00  0.0000E+00  0.0000E+00  0.0000E+00  0.0000E+00  0.0000E+00  0.0000E+00  0.0000E+00  0.0000E+00  0.0000E+00  0.0000E+00  0.0000E+00  0.0000E+00
    -37.073  0.0000E+00  0.0000E+00  0.0000E+00  0.0000E+00  0.0000E+00  0.0000E+00  0.0000E+00  0.0000E+00  0.0000E+00  0.0000E+00  0.0000E+00  0.0000E+00  0.0000E+00  0.0000E+00  0.0000E+00  0.0000E+00  0.0000E+00  0.0000E+00
    -36.877  0.0000E+00  0.0000E+00  0.0000E+00  0.0000E+00  0.0000E+00  0.0000E+00  0.0000E+00  0.0000E+00  0.0000E+00  0.0000E+00  0.0000E+00  0.0000E+00  0.0000E+00  0.0000E+00  0.0000E+00  0.0000E+00  0.0000E+00  0.0000E+00
    -36.681  0.0000E+00  0.0000E+00  0.0000E+00  0.0000E+00  0.0000E+00  0.0000E+00  0.0000E+00  0.0000E+00  0.0000E+00  0.0000E+00  0.0000E+00  0.0000E+00  0.0000E+00  0.0000E+00  0.0000E+00  0.0000E+00  0.0000E+00  0.0000E+00
    -36.486  0.0000E+00  0.0000E+00  0.0000E+00  0.0000E+00  0.0000E+00  0.0000E+00  0.0000E+00  0.0000E+00  0.0000E+00  0.0000E+00  0.0000E+00  0.0000E+00  0.0000E+00  0.0000E+00  0.0000E+00  0.0000E+00  0.0000E+00  0.0000E+00
    -36.290  0.0000E+00  0.0000E+00  0.0000E+00  0.0000E+00  0.0000E+00  0.0000E+00  0.0000E+00  0.0000E+00  0.0000E+00  0.0000E+00  0.0000E+00  0.0000E+00  0.0000E+00  0.0000E+00  0.0000E+00  0.0000E+00  0.0000E+00  0.0000E+00
    -36.094  0.0000E+00  0.0000E+00  0.0000E+00  0.0000E+00  0.0000E+00  0.0000E+00  0.0000E+00  0.0000E+00  0.0000E+00  0.0000E+00  0.0000E+00  0.0000E+00  0.0000E+00  0.0000E+00  0.0000E+00  0.0000E+00  0.0000E+00  0.0000E+00
    -35.898  0.0000E+00  0.0000E+00  0.0000E+00  0.0000E+00  0.0000E+00  0.0000E+00  0.0000E+00  0.0000E+00  0.0000E+00  0.0000E+00  0.0000E+00  0.0000E+00  0.0000E+00  0.0000E+00  0.0000E+00  0.0000E+00  0.0000E+00  0.0000E+00
    -35.702  0.0000E+00  0.0000E+00  0.0000E+00  0.0000E+00  0.0000E+00  0.0000E+00  0.0000E+00  0.0000E+00  0.0000E+00  0.0000E+00  0.0000E+00  0.0000E+00  0.0000E+00  0.0000E+00  0.0000E+00  0.0000E+00  0.0000E+00  0.0000E+00
    -35.506  0.0000E+00  0.0000E+00  0.0000E+00  0.0000E+00  0.0000E+00  0.0000E+00  0.0000E+00  0.0000E+00  0.0000E+00  0.0000E+00  0.0000E+00  0.0000E+00  0.0000E+00  0.0000E+00  0.0000E+00  0.0000E+00  0.0000E+00  0.0000E+00
    -35.310  0.0000E+00  0.0000E+00  0.0000E+00  0.0000E+00  0.0000E+00  0.0000E+00  0.0000E+00  0.0000E+00  0.0000E+00  0.0000E+00  0.0000E+00  0.0000E+00  0.0000E+00  0.0000E+00  0.0000E+00  0.0000E+00  0.0000E+00  0.0000E+00
    -35.115  0.7851E-09  0.7860E-09  0.2585E-04  0.2588E-04  0.2585E-04  0.2588E-04  0.2585E-04  0.2588E-04  0.3512E-10  0.3518E-10  0.3512E-10  0.3518E-10  0.4488E-10  0.4494E-10  0.3512E-10  0.3518E-10  0.4488E-10  0.4494E-10
    -34.919  0.4285E-07  0.4289E-07  0.1749E-02  0.1751E-02  0.1749E-02  0.1751E-02  0.1749E-02  0.1751E-02  0.2532E-08  0.2536E-08  0.2532E-08  0.2536E-08  0.2796E-08  0.2799E-08  0.2532E-08  0.2536E-08  0.2796E-08  0.2799E-08
    -34.723  0.2080E-05  0.2082E-05  0.8463E-01  0.8474E-01  0.8463E-01  0.8474E-01  0.8463E-01  0.8474E-01  0.1230E-06  0.1232E-06  0.1230E-06  0.1232E-06  0.1352E-06  0.1354E-06  0.1230E-06  0.1232E-06  0.1352E-06  0.1354E-06
    -34.527  0.4188E-04  0.4189E-04  0.1879E+01  0.1881E+01  0.1879E+01  0.1881E+01  0.1879E+01  0.1881E+01  0.2887E-05  0.2890E-05  0.2887E-05  0.2890E-05  0.2816E-05  0.2818E-05  0.2887E-05  0.2890E-05  0.2816E-05  0.2818E-05
    -34.331  0.3761E-04  0.3758E-04  0.2885E+01  0.2884E+01  0.2885E+01  0.2884E+01  0.2885E+01  0.2884E+01  0.4066E-05  0.4065E-05  0.4066E-05  0.4065E-05  0.3529E-05  0.3528E-05  0.4066E-05  0.4065E-05  0.3529E-05  0.3528E-05
    -34.135  0.1303E-05  0.1301E-05  0.1967E+00  0.1964E+00  0.1967E+00  0.1964E+00  0.1967E+00  0.1964E+00  0.2360E-06  0.2357E-06  0.2360E-06  0.2357E-06  0.1956E-06  0.1953E-06  0.2360E-06  0.2357E-06  0.1956E-06  0.1953E-06
    -33.939  0.0000E+00  0.0000E+00  0.0000E+00  0.0000E+00  0.0000E+00  0.0000E+00  0.0000E+00  0.0000E+00  0.0000E+00  0.0000E+00  0.0000E+00  0.0000E+00  0.0000E+00  0.0000E+00  0.0000E+00  0.0000E+00  0.0000E+00  0.0000E+00
    -33.743  0.0000E+00  0.0000E+00  0.0000E+00  0.0000E+00  0.0000E+00  0.0000E+00  0.0000E+00  0.0000E+00  0.0000E+00  0.0000E+00  0.0000E+00  0.0000E+00  0.0000E+00  0.0000E+00  0.0000E+00  0.0000E+00  0.0000E+00  0.0000E+00
    -33.548  0.0000E+00  0.0000E+00  0.0000E+00  0.0000E+00  0.0000E+00  0.0000E+00  0.0000E+00  0.0000E+00  0.0000E+00  0.0000E+00  0.0000E+00  0.0000E+00  0.0000E+00  0.0000E+00  0.0000E+00  0.0000E+00  0.0000E+00  0.0000E+00
    -33.352  0.0000E+00  0.0000E+00  0.0000E+00  0.0000E+00  0.0000E+00  0.0000E+00  0.0000E+00  0.0000E+00  0.0000E+00  0.0000E+00  0.0000E+00  0.0000E+00  0.0000E+00  0.0000E+00  0.0000E+00  0.0000E+00  0.0000E+00  0.0000E+00
    -33.156  0.0000E+00  0.0000E+00  0.0000E+00  0.0000E+00  0.0000E+00  0.0000E+00  0.0000E+00  0.0000E+00  0.0000E+00  0.0000E+00  0.0000E+00  0.0000E+00  0.0000E+00  0.0000E+00  0.0000E+00  0.0000E+00  0.0000E+00  0.0000E+00
    -32.960  0.0000E+00  0.0000E+00  0.0000E+00  0.0000E+00  0.0000E+00  0.0000E+00  0.0000E+00  0.0000E+00  0.0000E+00  0.0000E+00  0.0000E+00  0.0000E+00  0.0000E+00  0.0000E+00  0.0000E+00  0.0000E+00  0.0000E+00  0.0000E+00
    -32.764  0.0000E+00  0.0000E+00  0.0000E+00  0.0000E+00  0.0000E+00  0.0000E+00  0.0000E+00  0.0000E+00  0.0000E+00  0.0000E+00  0.0000E+00  0.0000E+00  0.0000E+00  0.0000E+00  0.0000E+00  0.0000E+00  0.0000E+00  0.0000E+00
    -32.568  0.0000E+00  0.0000E+00  0.0000E+00  0.0000E+00  0.0000E+00  0.0000E+00  0.0000E+00  0.0000E+00  0.0000E+00  0.0000E+00  0.0000E+00  0.0000E+00  0.0000E+00  0.0000E+00  0.0000E+00  0.0000E+00  0.0000E+00  0.0000E+00
    -32.372  0.0000E+00  0.0000E+00  0.0000E+00  0.0000E+00  0.0000E+00  0.0000E+00  0.0000E+00  0.0000E+00  0.0000E+00  0.0000E+00  0.0000E+00  0.0000E+00  0.0000E+00  0.0000E+00  0.0000E+00  0.0000E+00  0.0000E+00  0.0000E+00
    -32.176  0.0000E+00  0.0000E+00  0.0000E+00  0.0000E+00  0.0000E+00  0.0000E+00  0.0000E+00  0.0000E+00  0.0000E+00  0.0000E+00  0.0000E+00  0.0000E+00  0.0000E+00  0.0000E+00  0.0000E+00  0.0000E+00  0.0000E+00  0.0000E+00
    -31.981  0.0000E+00  0.0000E+00  0.0000E+00  0.0000E+00  0.0000E+00  0.0000E+00  0.0000E+00  0.0000E+00  0.0000E+00  0.0000E+00  0.0000E+00  0.0000E+00  0.0000E+00  0.0000E+00  0.0000E+00  0.0000E+00  0.0000E+00  0.0000E+00
    -31.785  0.0000E+00  0.0000E+00  0.0000E+00  0.0000E+00  0.0000E+00  0.0000E+00  0.0000E+00  0.0000E+00  0.0000E+00  0.0000E+00  0.0000E+00  0.0000E+00  0.0000E+00  0.0000E+00  0.0000E+00  0.0000E+00  0.0000E+00  0.0000E+00
    -31.589  0.0000E+00  0.0000E+00  0.0000E+00  0.0000E+00  0.0000E+00  0.0000E+00  0.0000E+00  0.0000E+00  0.0000E+00  0.0000E+00  0.0000E+00  0.0000E+00  0.0000E+00  0.0000E+00  0.0000E+00  0.0000E+00  0.0000E+00  0.0000E+00
    -31.393  0.0000E+00  0.0000E+00  0.0000E+00  0.0000E+00  0.0000E+00  0.0000E+00  0.0000E+00  0.0000E+00  0.0000E+00  0.0000E+00  0.0000E+00  0.0000E+00  0.0000E+00  0.0000E+00  0.0000E+00  0.0000E+00  0.0000E+00  0.0000E+00
    -31.197  0.0000E+00  0.0000E+00  0.0000E+00  0.0000E+00  0.0000E+00  0.0000E+00  0.0000E+00  0.0000E+00  0.0000E+00  0.0000E+00  0.0000E+00  0.0000E+00  0.0000E+00  0.0000E+00  0.0000E+00  0.0000E+00  0.0000E+00  0.0000E+00
    -31.001  0.0000E+00  0.0000E+00  0.0000E+00  0.0000E+00  0.0000E+00  0.0000E+00  0.0000E+00  0.0000E+00  0.0000E+00  0.0000E+00  0.0000E+00  0.0000E+00  0.0000E+00  0.0000E+00  0.0000E+00  0.0000E+00  0.0000E+00  0.0000E+00
    -30.805  0.0000E+00  0.0000E+00  0.0000E+00  0.0000E+00  0.0000E+00  0.0000E+00  0.0000E+00  0.0000E+00  0.0000E+00  0.0000E+00  0.0000E+00  0.0000E+00  0.0000E+00  0.0000E+00  0.0000E+00  0.0000E+00  0.0000E+00  0.0000E+00
    -30.609  0.0000E+00  0.0000E+00  0.0000E+00  0.0000E+00  0.0000E+00  0.0000E+00  0.0000E+00  0.0000E+00  0.0000E+00  0.0000E+00  0.0000E+00  0.0000E+00  0.0000E+00  0.0000E+00  0.0000E+00  0.0000E+00  0.0000E+00  0.0000E+00
    -30.414  0.0000E+00  0.0000E+00  0.0000E+00  0.0000E+00  0.0000E+00  0.0000E+00  0.0000E+00  0.0000E+00  0.0000E+00  0.0000E+00  0.0000E+00  0.0000E+00  0.0000E+00  0.0000E+00  0.0000E+00  0.0000E+00  0.0000E+00  0.0000E+00
    -30.218  0.0000E+00  0.0000E+00  0.0000E+00  0.0000E+00  0.0000E+00  0.0000E+00  0.0000E+00  0.0000E+00  0.0000E+00  0.0000E+00  0.0000E+00  0.0000E+00  0.0000E+00  0.0000E+00  0.0000E+00  0.0000E+00  0.0000E+00  0.0000E+00
    -30.022  0.0000E+00  0.0000E+00  0.0000E+00  0.0000E+00  0.0000E+00  0.0000E+00  0.0000E+00  0.0000E+00  0.0000E+00  0.0000E+00  0.0000E+00  0.0000E+00  0.0000E+00  0.0000E+00  0.0000E+00  0.0000E+00  0.0000E+00  0.0000E+00
    -29.826  0.0000E+00  0.0000E+00  0.0000E+00  0.0000E+00  0.0000E+00  0.0000E+00  0.0000E+00  0.0000E+00  0.0000E+00  0.0000E+00  0.0000E+00  0.0000E+00  0.0000E+00  0.0000E+00  0.0000E+00  0.0000E+00  0.0000E+00  0.0000E+00
    -29.630  0.0000E+00  0.0000E+00  0.0000E+00  0.0000E+00  0.0000E+00  0.0000E+00  0.0000E+00  0.0000E+00  0.0000E+00  0.0000E+00  0.0000E+00  0.0000E+00  0.0000E+00  0.0000E+00  0.0000E+00  0.0000E+00  0.0000E+00  0.0000E+00
    -29.434  0.0000E+00  0.0000E+00  0.0000E+00  0.0000E+00  0.0000E+00  0.0000E+00  0.0000E+00  0.0000E+00  0.0000E+00  0.0000E+00  0.0000E+00  0.0000E+00  0.0000E+00  0.0000E+00  0.0000E+00  0.0000E+00  0.0000E+00  0.0000E+00
    -29.238  0.0000E+00  0.0000E+00  0.0000E+00  0.0000E+00  0.0000E+00  0.0000E+00  0.0000E+00  0.0000E+00  0.0000E+00  0.0000E+00  0.0000E+00  0.0000E+00  0.0000E+00  0.0000E+00  0.0000E+00  0.0000E+00  0.0000E+00  0.0000E+00
    -29.043  0.0000E+00  0.0000E+00  0.0000E+00  0.0000E+00  0.0000E+00  0.0000E+00  0.0000E+00  0.0000E+00  0.0000E+00  0.0000E+00  0.0000E+00  0.0000E+00  0.0000E+00  0.0000E+00  0.0000E+00  0.0000E+00  0.0000E+00  0.0000E+00
    -28.847  0.0000E+00  0.0000E+00  0.0000E+00  0.0000E+00  0.0000E+00  0.0000E+00  0.0000E+00  0.0000E+00  0.0000E+00  0.0000E+00  0.0000E+00  0.0000E+00  0.0000E+00  0.0000E+00  0.0000E+00  0.0000E+00  0.0000E+00  0.0000E+00
    -28.651  0.0000E+00  0.0000E+00  0.0000E+00  0.0000E+00  0.0000E+00  0.0000E+00  0.0000E+00  0.0000E+00  0.0000E+00  0.0000E+00  0.0000E+00  0.0000E+00  0.0000E+00  0.0000E+00  0.0000E+00  0.0000E+00  0.0000E+00  0.0000E+00
    -28.455  0.0000E+00  0.0000E+00  0.0000E+00  0.0000E+00  0.0000E+00  0.0000E+00  0.0000E+00  0.0000E+00  0.0000E+00  0.0000E+00  0.0000E+00  0.0000E+00  0.0000E+00  0.0000E+00  0.0000E+00  0.0000E+00  0.0000E+00  0.0000E+00
    -28.259  0.0000E+00  0.0000E+00  0.0000E+00  0.0000E+00  0.0000E+00  0.0000E+00  0.0000E+00  0.0000E+00  0.0000E+00  0.0000E+00  0.0000E+00  0.0000E+00  0.0000E+00  0.0000E+00  0.0000E+00  0.0000E+00  0.0000E+00  0.0000E+00
    -28.063  0.0000E+00  0.0000E+00  0.0000E+00  0.0000E+00  0.0000E+00  0.0000E+00  0.0000E+00  0.0000E+00  0.0000E+00  0.0000E+00  0.0000E+00  0.0000E+00  0.0000E+00  0.0000E+00  0.0000E+00  0.0000E+00  0.0000E+00  0.0000E+00
    -27.867  0.0000E+00  0.0000E+00  0.0000E+00  0.0000E+00  0.0000E+00  0.0000E+00  0.0000E+00  0.0000E+00  0.0000E+00  0.0000E+00  0.0000E+00  0.0000E+00  0.0000E+00  0.0000E+00  0.0000E+00  0.0000E+00  0.0000E+00  0.0000E+00
    -27.671  0.0000E+00  0.0000E+00  0.0000E+00  0.0000E+00  0.0000E+00  0.0000E+00  0.0000E+00  0.0000E+00  0.0000E+00  0.0000E+00  0.0000E+00  0.0000E+00  0.0000E+00  0.0000E+00  0.0000E+00  0.0000E+00  0.0000E+00  0.0000E+00
    -27.476  0.0000E+00  0.0000E+00  0.0000E+00  0.0000E+00  0.0000E+00  0.0000E+00  0.0000E+00  0.0000E+00  0.0000E+00  0.0000E+00  0.0000E+00  0.0000E+00  0.0000E+00  0.0000E+00  0.0000E+00  0.0000E+00  0.0000E+00  0.0000E+00