   8   8   1   0
  0.8487257E+01  0.4079614E-09  0.4079614E-09  0.4079614E-09  0.5000000E-15
  1.000000000000000E-004
  CAR 
 unknown system                          
     20.23181291    -37.92289415  301      4.53307089      1.00000000
    -37.923  0.0000E+00  0.0000E+00  0.0000E+00  0.0000E+00
    -37.729  0.0000E+00  0.0000E+00  0.0000E+00  0.0000E+00
    -37.535  0.0000E+00  0.0000E+00  0.0000E+00  0.0000E+00
    -37.341  0.0000E+00  0.0000E+00  0.0000E+00  0.0000E+00
    -37.147  0.0000E+00  0.0000E+00  0.0000E+00  0.0000E+00
    -36.954  0.0000E+00  0.0000E+00  0.0000E+00  0.0000E+00
    -36.760  0.0000E+00  0.0000E+00  0.0000E+00  0.0000E+00
    -36.566  0.0000E+00  0.0000E+00  0.0000E+00  0.0000E+00
    -36.372  0.0000E+00  0.0000E+00  0.0000E+00  0.0000E+00
    -36.178  0.0000E+00  0.0000E+00  0.0000E+00  0.0000E+00
    -35.984  0.0000E+00  0.0000E+00  0.0000E+00  0.0000E+00
    -35.791  0.4899E-03  0.4904E-03  0.9496E-04  0.9507E-04
    -35.597  0.3055E-01  0.3059E-01  0.6017E-02  0.6024E-02
    -35.403  0.1415E+01  0.1417E+01  0.2804E+00  0.2807E+00
    -35.209  0.2825E+02  0.2826E+02  0.5756E+01  0.5759E+01
    -35.015  0.3059E+02  0.3057E+02  0.1169E+02  0.1169E+02
    -34.821  0.1384E+01  0.1383E+01  0.1199E+02  0.1199E+02
    -34.627  0.0000E+00  0.0000E+00  0.1200E+02  0.1200E+02
    -34.434  0.0000E+00  0.0000E+00  0.1200E+02  0.1200E+02
    -34.240  0.0000E+00  0.0000E+00  0.1200E+02  0.1200E+02
    -34.046  0.0000E+00  0.0000E+00  0.1200E+02  0.1200E+02
    -33.852  0.0000E+00  0.0000E+00  0.1200E+02  0.1200E+02
    -33.658  0.0000E+00  0.0000E+00  0.1200E+02  0.1200E+02
    -33.464  0.0000E+00  0.0000E+00  0.1200E+02  0.1200E+02
    -33.271  0.0000E+00  0.0000E+00  0.1200E+02  0.1200E+02
    -33.077  0.0000E+00  0.0000E+00  0.1200E+02  0.1200E+02
    -32.883  0.0000E+00  0.0000E+00  0.1200E+02  0.1200E+02
    -32.689  0.0000E+00  0.0000E+00  0.1200E+02  0.1200E+02
    -32.495  0.0000E+00  0.0000E+00  0.1200E+02  0.1200E+02
    -32.301  0.0000E+00  0.0000E+00  0.1200E+02  0.1200E+02
    -32.107  0.0000E+00  0.0000E+00  0.1200E+02  0.1200E+02
    -31.914  0.0000E+00  0.0000E+00  0.1200E+02  0.1200E+02
    -31.720  0.0000E+00  0.0000E+00  0.1200E+02  0.1200E+02
    -31.526  0.0000E+00  0.0000E+00  0.1200E+02  0.1200E+02
    -31.332  0.0000E+00  0.0000E+00  0.1200E+02  0.1200E+02
    -31.138  0.0000E+00  0.0000E+00  0.1200E+02  0.1200E+02
    -30.944  0.0000E+00  0.0000E+00  0.1200E+02  0.1200E+02
    -30.750  0.0000E+00  0.0000E+00  0.1200E+02  0.1200E+02
    -30.557  0.0000E+00  0.0000E+00  0.1200E+02  0.1200E+02
    -30.363  0.0000E+00  0.0000E+00  0.1200E+02  0.1200E+02
    -30.169  0.0000E+00  0.0000E+00  0.1200E+02  0.1200E+02
    -29.975  0.0000E+00  0.0000E+00  0.1200E+02  0.1200E+02
    -29.781  0.0000E+00  0.0000E+00  0.1200E+02  0.1200E+02
    -29.587  0.0000E+00  0.0000E+00  0.1200E+02  0.1200E+02
    -29.394  0.0000E+00  0.0000E+00  0.1200E+02  0.1200E+02
    -29.200  0.0000E+00  0.0000E+00  0.1200E+02  0.1200E+02
    -29.006  0.0000E+00  0.0000E+00  0.1200E+02  0.1200E+02
    -28.812  0.0000E+00  0.0000E+00  0.1200E+02  0.1200E+02
    -28.618  0.0000E+00  0.0000E+00  0.1200E+02  0.1200E+02
    -28.424  0.0000E+00  0.0000E+00  0.1200E+02  0.1200E+02
    -28.230  0.0000E+00  0.0000E+00  0.1200E+02  0.1200E+02
    -28.037  0.0000E+00  0.0000E+00  0.1200E+02  0.1200E+02
    -27.843  0.0000E+00  0.0000E+00  0.1200E+02  0.1200E+02
    -27.649  0.0000E+00  0.0000E+00  0.1200E+02  0.1200E+02
    -27.455  0.0000E+00  0.0000E+00  0.1200E+02  0.1200E+02
    -27.261  0.0000E+00  0.0000E+00  0.1200E+02  0.1200E+02
    -27.067  0.0000E+00  0.0000E+00  0.1200E+02  0.1200E+02
    -26.873  0.0000E+00  0.0000E+00  0.1200E+02  0.1200E+02
    -26.680  0.0000E+00  0.0000E+00  0.1200E+02  0.1200E+02
    -26.486  0.0000E+00  0.0000E+00  0.1200E+02  0.1200E+02
    -26.292  0.0000E+00  0.0000E+00  0.1200E+02  0.1200E+02
    -26.098  0.0000E+00  0.0000E+00  0.1200E+02  0.1200E+02
    -25.904  0.0000E+00  0.0000E+00  0.1200E+02  0.1200E+02
    -25.710  0.0000E+00  0.0000E+00  0.1200E+02  0.1200E+02
    -25.517  0.0000E+00  0.0000E+00  0.1200E+02  0.1200E+02
    -25.323  0.0000E+00  0.0000E+00  0.1200E+02  0.1200E+02
    -25.129  0.0000E+00  0.0000E+00  0.1200E+02  0.1200E+02
    -24.935  0.0000E+00  0.0000E+00  0.1200E+02  0.1200E+02
    -24.741  0.0000E+00  0.0000E+00  0.1200E+02  0.1200E+02
    -24.547  0.0000E+00  0.0000E+00  0.1200E+02  0.1200E+02
    -24.353  0.0000E+00  0.0000E+00  0.1200E+02  0.1200E+02
    -24.160  0.0000E+00  0.0000E+00  0.1200E+02  0.1200E+02
    -23.966  0.0000E+00  0.0000E+00  0.1200E+02  0.1200E+02
    -23.772  0.0000E+00  0.0000E+00  0.1200E+02  0.1200E+02
    -23.578  0.0000E+00  0.0000E+00  0.1200E+02  0.1200E+02
    -23.384  0.0000E+00  0.0000E+00  0.1200E+02  0.1200E+02
    -23.190  0.0000E+00  0.0000E+00  0.1200E+02  0.1200E+02
    -22.997  0.0000E+00  0.0000E+00  0.1200E+02  0.1200E+02
    -22.803  0.0000E+00  0.0000E+00  0.1200E+02  0.1200E+02
    -22.609  0.0000E+00  0.0000E+00  0.1200E+02  0.1200E+02
    -22.415  0.0000E+00  0.0000E+00  0.1200E+02  0.1200E+02
    -22.221  0.0000E+00  0.0000E+00  0.1200E+02  0.1200E+02
    -22.027  0.0000E+00  0.0000E+00  0.1200E+02  0.1200E+02
    -21.833  0.0000E+00  0.0000E+00  0.1200E+02  0.1200E+02
    -21.640  0.0000E+00  0.0000E+00  0.1200E+02  0.1200E+02
    -21.446  0.0000E+00  0.0000E+00  0.1200E+02  0.1200E+02
    -21.252  0.0000E+00  0.0000E+00  0.1200E+02  0.1200E+02
    -21.058  0.0000E+00  0.0000E+00  0.1200E+02  0.1200E+02
    -20.864  0.0000E+00  0.0000E+00  0.1200E+02  0.1200E+02
    -20.670  0.0000E+00  0.0000E+00  0.1200E+02  0.1200E+02
    -20.476  0.0000E+00  0.0000E+00  0.1200E+02  0.1200E+02
    -20.283  0.0000E+00  0.0000E+00  0.1200E+02  0.1200E+02
    -20.089  0.0000E+00  0.0000E+00  0.1200E+02  0.1200E+02
    -19.895  0.0000E+00  0.0000E+00  0.1200E+02  0.1200E+02
    -19.701  0.0000E+00  0.0000E+00  0.1200E+02  0.1200E+02
    -19.507  0.0000E+00  0.0000E+00  0.1200E+02  0.1200E+02
    -19.313  0.0000E+00  0.0000E+00  0.1200E+02  0.1200E+02
    -19.120  0.0000E+00  0.0000E+00  0.1200E+02  0.1200E+02
    -18.926  0.0000E+00  0.0000E+00  0.1200E+02  0.1200E+02
    -18.732  0.0000E+00  0.0000E+00  0.1200E+02  0.1200E+02
    -18.538  0.0000E+00  0.0000E+00  0.1200E+02  0.1200E+02
    -18.344  0.0000E+00  0.0000E+00  0.1200E+02  0.1200E+02
    -18.150  0.0000E+00  0.0000E+00  0.1200E+02  0.1200E+02
    -17.956  0.0000E+00  0.0000E+00  0.1200E+02  0.1200E+02
    -17.763  0.0000E+00  0.0000E+00  0.1200E+02  0.1200E+02
    -17.569  0.0000E+00  0.0000E+00  0.1200E+02  0.1200E+02
    -17.375  0.0000E+00  0.0000E+00  0.1200E+02  0.1200E+02
    -17.181  0.0000E+00  0.0000E+00  0.1200E+02  0.1200E+02
    -16.987  0.0000E+00  0.0000E+00  0.1200E+02  0.1200E+02
    -16.793  0.0000E+00  0.0000E+00  0.1200E+02  0.1200E+02
    -16.600  0.0000E+00  0.0000E+00  0.1200E+02  0.1200E+02
    -16.406  0.0000E+00  0.0000E+00  0.1200E+02  0.1200E+02
    -16.212  0.0000E+00  0.0000E+00  0.1200E+02  0.1200E+02
    -16.018  0.0000E+00  0.0000E+00  0.1200E+02  0.1200E+02
    -15.824  0.0000E+00  0.0000E+00  0.1200E+02  0.1200E+02
    -15.630  0.0000E+00  0.0000E+00  0.1200E+02  0.1200E+02
    -15.436  0.0000E+00  0.0000E+00  0.1200E+02  0.1200E+02
    -15.243  0.0000E+00  0.0000E+00  0.1200E+02  0.1200E+02
    -15.049  0.0000E+00  0.0000E+00  0.1200E+02  0.1200E+02
    -14.855  0.0000E+00  0.0000E+00  0.1200E+02  0.1200E+02
    -14.661  0.1239E-04  0.1242E-04  0.1200E+02  0.1200E+02
    -14.467  0.6021E-03  0.6034E-03  0.1200E+02  0.1200E+02
    -14.273  0.2536E-01  0.2541E-01  0.1201E+02  0.1201E+02
    -14.079  0.1821E+00  0.1822E+00  0.1204E+02  0.1204E+02
    -13.886  0.4587E+00  0.4588E+00  0.1213E+02  0.1213E+02
    -13.692  0.5423E+00  0.5424E+00  0.1223E+02  0.1223E+02
    -13.498  0.7598E+00  0.7600E+00  0.1238E+02  0.1238E+02
    -13.304  0.1115E+01  0.1115E+01  0.1260E+02  0.1260E+02
    -13.110  0.1123E+01  0.1123E+01  0.1282E+02  0.1282E+02
    -12.916  0.2078E+01  0.2079E+01  0.1322E+02  0.1322E+02
    -12.723  0.2723E+01  0.2725E+01  0.1375E+02  0.1375E+02
    -12.529  0.5161E+01  0.5163E+01  0.1475E+02  0.1476E+02
    -12.335  0.5432E+01  0.5430E+01  0.1581E+02  0.1581E+02
    -12.141  0.9279E+00  0.9255E+00  0.1600E+02  0.1600E+02
    -11.947  0.0000E+00  0.0000E+00  0.1600E+02  0.1600E+02
    -11.753  0.0000E+00  0.0000E+00  0.1600E+02  0.1600E+02
    -11.559  0.0000E+00  0.0000E+00  0.1600E+02  0.1600E+02
    -11.366  0.0000E+00  0.0000E+00  0.1600E+02  0.1600E+02
    -11.172  0.0000E+00  0.0000E+00  0.1600E+02  0.1600E+02
    -10.978  0.0000E+00  0.0000E+00  0.1600E+02  0.1600E+02
    -10.784  0.0000E+00  0.0000E+00  0.1600E+02  0.1600E+02
    -10.590  0.0000E+00  0.0000E+00  0.1600E+02  0.1600E+02
    -10.396  0.0000E+00  0.0000E+00  0.1600E+02  0.1600E+02
    -10.202  0.0000E+00  0.0000E+00  0.1600E+02  0.1600E+02
    -10.009  0.0000E+00  0.0000E+00  0.1600E+02  0.1600E+02
     -9.815  0.0000E+00  0.0000E+00  0.1600E+02  0.1600E+02
     -9.621  0.0000E+00  0.0000E+00  0.1600E+02  0.1600E+02
     -9.427  0.0000E+00  0.0000E+00  0.1600E+02  0.1600E+02
     -9.233  0.0000E+00  0.0000E+00  0.1600E+02  0.1600E+02
     -9.039  0.0000E+00  0.0000E+00  0.1600E+02  0.1600E+02
     -8.846  0.0000E+00  0.0000E+00  0.1600E+02  0.1600E+02
     -8.652  0.0000E+00  0.0000E+00  0.1600E+02  0.1600E+02
     -8.458  0.0000E+00  0.0000E+00  0.1600E+02  0.1600E+02
     -8.264  0.0000E+00  0.0000E+00  0.1600E+02  0.1600E+02
     -8.070  0.0000E+00  0.0000E+00  0.1600E+02  0.1600E+02
     -7.876  0.0000E+00  0.0000E+00  0.1600E+02  0.1600E+02
     -7.682  0.0000E+00  0.0000E+00  0.1600E+02  0.1600E+02
     -7.489  0.0000E+00  0.0000E+00  0.1600E+02  0.1600E+02
     -7.295  0.0000E+00  0.0000E+00  0.1600E+02  0.1600E+02
     -7.101  0.0000E+00  0.0000E+00  0.1600E+02  0.1600E+02
     -6.907  0.0000E+00  0.0000E+00  0.1600E+02  0.1600E+02
     -6.713  0.0000E+00  0.0000E+00  0.1600E+02  0.1600E+02
     -6.519  0.0000E+00  0.0000E+00  0.1600E+02  0.1600E+02
     -6.326  0.0000E+00  0.0000E+00  0.1600E+02  0.1600E+02
     -6.132  0.0000E+00  0.0000E+00  0.1600E+02  0.1600E+02
     -5.938  0.0000E+00  0.0000E+00  0.1600E+02  0.1600E+02
     -5.744  0.0000E+00  0.0000E+00  0.1600E+02  0.1600E+02
     -5.550  0.0000E+00  0.0000E+00  0.1600E+02  0.1600E+02
     -5.356  0.0000E+00  0.0000E+00  0.1600E+02  0.1600E+02
     -5.162  0.0000E+00  0.0000E+00  0.1600E+02  0.1600E+02
     -4.969  0.0000E+00  0.0000E+00  0.1600E+02  0.1600E+02
     -4.775  0.0000E+00  0.0000E+00  0.1600E+02  0.1600E+02
     -4.581  0.0000E+00  0.0000E+00  0.1600E+02  0.1600E+02
     -4.387  0.0000E+00  0.0000E+00  0.1600E+02  0.1600E+02
     -4.193  0.0000E+00  0.0000E+00  0.1600E+02  0.1600E+02
     -3.999  0.0000E+00  0.0000E+00  0.1600E+02  0.1600E+02
     -3.805  0.0000E+00  0.0000E+00  0.1600E+02  0.1600E+02
     -3.612  0.0000E+00  0.0000E+00  0.1600E+02  0.1600E+02
     -3.418  0.0000E+00  0.0000E+00  0.1600E+02  0.1600E+02
     -3.224  0.0000E+00  0.0000E+00  0.1600E+02  0.1600E+02
     -3.030  0.0000E+00  0.0000E+00  0.1600E+02  0.1600E+02
     -2.836  0.0000E+00  0.0000E+00  0.1600E+02  0.1600E+02
     -2.642  0.0000E+00  0.0000E+00  0.1600E+02  0.1600E+02
     -2.449  0.0000E+00  0.0000E+00  0.1600E+02  0.1600E+02
     -2.255  0.0000E+00  0.0000E+00  0.1600E+02  0.1600E+02
     -2.061  0.0000E+00  0.0000E+00  0.1600E+02  0.1600E+02
     -1.867  0.4947E-04  0.4948E-04  0.1600E+02  0.1600E+02
     -1.673  0.2374E-02  0.2374E-02  0.1600E+02  0.1600E+02
     -1.479  0.9576E-01  0.9577E-01  0.1602E+02  0.1602E+02
     -1.285  0.4979E+00  0.4980E+00  0.1612E+02  0.1612E+02
     -1.092  0.5794E+00  0.5794E+00  0.1623E+02  0.1623E+02
     -0.898  0.1482E+01  0.1482E+01  0.1652E+02  0.1652E+02
     -0.704  0.1971E+01  0.1971E+01  0.1690E+02  0.1690E+02
     -0.510  0.3221E+01  0.3221E+01  0.1752E+02  0.1752E+02
     -0.316  0.4320E+01  0.4320E+01  0.1836E+02  0.1836E+02
     -0.122  0.2614E+01  0.2614E+01  0.1887E+02  0.1887E+02
      0.072  0.2019E+01  0.2018E+01  0.1926E+02  0.1926E+02
      0.265  0.5230E+00  0.5228E+00  0.1936E+02  0.1936E+02
      0.459  0.4593E+00  0.4597E+00  0.1945E+02  0.1945E+02
      0.653  0.2707E+01  0.2707E+01  0.1998E+02  0.1998E+02
      0.847  0.1205E+01  0.1204E+01  0.2021E+02  0.2021E+02
      1.041  0.1386E+01  0.1386E+01  0.2048E+02  0.2048E+02
      1.235  0.1221E+01  0.1221E+01  0.2072E+02  0.2072E+02
      1.428  0.2568E+01  0.2569E+01  0.2122E+02  0.2122E+02
      1.622  0.2308E+01  0.2308E+01  0.2167E+02  0.2167E+02
      1.816  0.1791E+01  0.1792E+01  0.2202E+02  0.2202E+02
      2.010  0.2738E+01  0.2739E+01  0.2255E+02  0.2255E+02
      2.204  0.5649E+01  0.5650E+01  0.2365E+02  0.2365E+02
      2.398  0.4486E+01  0.4485E+01  0.2452E+02  0.2452E+02
      2.592  0.5208E+01  0.5211E+01  0.2554E+02  0.2554E+02
      2.785  0.4830E+01  0.4828E+01  0.2648E+02  0.2648E+02
      2.979  0.3670E+01  0.3670E+01  0.2720E+02  0.2720E+02
      3.173  0.2111E+01  0.2110E+01  0.2761E+02  0.2761E+02
      3.367  0.1477E+01  0.1477E+01  0.2790E+02  0.2790E+02
      3.561  0.4814E+00  0.4809E+00  0.2799E+02  0.2799E+02
      3.755  0.4801E-01  0.4788E-01  0.2800E+02  0.2800E+02
      3.948  0.0000E+00  0.0000E+00  0.2800E+02  0.2800E+02
      4.142  0.0000E+00  0.0000E+00  0.2800E+02  0.2800E+02
      4.336  0.0000E+00  0.0000E+00  0.2800E+02  0.2800E+02
      4.530  0.0000E+00  0.0000E+00  0.2800E+02  0.2800E+02
      4.724  0.0000E+00  0.0000E+00  0.2800E+02  0.2800E+02
      4.918  0.0000E+00  0.0000E+00  0.2800E+02  0.2800E+02
      5.112  0.0000E+00  0.0000E+00  0.2800E+02  0.2800E+02
      5.305  0.0000E+00  0.0000E+00  0.2800E+02  0.2800E+02
      5.499  0.0000E+00  0.0000E+00  0.2800E+02  0.2800E+02
      5.693  0.0000E+00  0.0000E+00  0.2800E+02  0.2800E+02
      5.887  0.0000E+00  0.0000E+00  0.2800E+02  0.2800E+02
      6.081  0.0000E+00  0.0000E+00  0.2800E+02  0.2800E+02
      6.275  0.0000E+00  0.0000E+00  0.2800E+02  0.2800E+02
      6.469  0.0000E+00  0.0000E+00  0.2800E+02  0.2800E+02
      6.662  0.0000E+00  0.0000E+00  0.2800E+02  0.2800E+02
      6.856  0.0000E+00  0.0000E+00  0.2800E+02  0.2800E+02
      7.050  0.0000E+00  0.0000E+00  0.2800E+02  0.2800E+02
      7.244  0.0000E+00  0.0000E+00  0.2800E+02  0.2800E+02
      7.438  0.0000E+00  0.0000E+00  0.2800E+02  0.2800E+02
      7.632  0.0000E+00  0.0000E+00  0.2800E+02  0.2800E+02
      7.825  0.0000E+00  0.0000E+00  0.2800E+02  0.2800E+02
      8.019  0.0000E+00  0.0000E+00  0.2800E+02  0.2800E+02
      8.213  0.0000E+00  0.0000E+00  0.2800E+02  0.2800E+02
      8.407  0.0000E+00  0.0000E+00  0.2800E+02  0.2800E+02
      8.601  0.0000E+00  0.0000E+00  0.2800E+02  0.2800E+02
      8.795  0.0000E+00  0.0000E+00  0.2800E+02  0.2800E+02
      8.989  0.0000E+00  0.0000E+00  0.2800E+02  0.2800E+02
      9.182  0.8026E-05  0.8046E-05  0.2800E+02  0.2800E+02
      9.376  0.3787E-03  0.3796E-03  0.2800E+02  0.2800E+02
      9.570  0.1665E-01  0.1669E-01  0.2800E+02  0.2800E+02
      9.764  0.1407E+00  0.1407E+00  0.2803E+02  0.2803E+02
      9.958  0.3253E-01  0.3246E-01  0.2804E+02  0.2804E+02
     10.152  0.4800E-04  0.4814E-04  0.2804E+02  0.2804E+02
     10.346  0.2260E-02  0.2267E-02  0.2804E+02  0.2804E+02
     10.539  0.9131E-01  0.9152E-01  0.2806E+02  0.2806E+02
     10.733  0.4246E+00  0.4245E+00  0.2814E+02  0.2814E+02
     10.927  0.5455E-01  0.5442E-01  0.2815E+02  0.2815E+02
     11.121  0.3712E-01  0.3722E-01  0.2816E+02  0.2816E+02
     11.315  0.4082E+00  0.4083E+00  0.2823E+02  0.2823E+02
     11.509  0.2010E+00  0.2008E+00  0.2827E+02  0.2827E+02
     11.702  0.1101E+00  0.1100E+00  0.2830E+02  0.2830E+02
     11.896  0.9151E-01  0.9171E-01  0.2831E+02  0.2831E+02
     12.090  0.6248E+00  0.6249E+00  0.2843E+02  0.2843E+02
     12.284  0.1014E+01  0.1015E+01  0.2863E+02  0.2863E+02
     12.478  0.1693E+01  0.1692E+01  0.2896E+02  0.2896E+02
     12.672  0.2031E+00  0.2029E+00  0.2900E+02  0.2900E+02
     12.866  0.1423E+00  0.1424E+00  0.2903E+02  0.2903E+02
     13.059  0.1707E+01  0.1708E+01  0.2936E+02  0.2936E+02
     13.253  0.1294E+01  0.1294E+01  0.2961E+02  0.2961E+02
     13.447  0.1019E+01  0.1019E+01  0.2981E+02  0.2981E+02
     13.641  0.1389E+01  0.1389E+01  0.3008E+02  0.3008E+02
     13.835  0.1580E+01  0.1580E+01  0.3039E+02  0.3039E+02
     14.029  0.2890E+01  0.2889E+01  0.3095E+02  0.3095E+02
     14.222  0.1636E+01  0.1636E+01  0.3127E+02  0.3127E+02
     14.416  0.6741E+00  0.6741E+00  0.3140E+02  0.3140E+02
     14.610  0.1411E+01  0.1412E+01  0.3167E+02  0.3167E+02
     14.804  0.1526E+01  0.1521E+01  0.3197E+02  0.3197E+02
     14.998  0.1095E+01  0.1100E+01  0.3218E+02  0.3218E+02
     15.192  0.2517E+01  0.2518E+01  0.3267E+02  0.3267E+02
     15.386  0.5532E+00  0.5538E+00  0.3278E+02  0.3278E+02
     15.579  0.3311E+00  0.3725E+00  0.3284E+02  0.3285E+02
     15.773  0.1639E+01  0.1633E+01  0.3316E+02  0.3317E+02
     15.967  0.2905E+01  0.2865E+01  0.3372E+02  0.3372E+02
     16.161  0.2149E+01  0.2134E+01  0.3414E+02  0.3414E+02
     16.355  0.2229E+01  0.1994E+01  0.3457E+02  0.3453E+02
     16.549  0.2304E+01  0.2463E+01  0.3502E+02  0.3500E+02
     16.743  0.2058E+01  0.2171E+01  0.3542E+02  0.3543E+02
     16.936  0.8437E+00  0.1147E+01  0.3559E+02  0.3565E+02
     17.130  0.1021E+01  0.8203E+00  0.3579E+02  0.3581E+02
     17.324  0.8141E+00  0.6851E+00  0.3594E+02  0.3594E+02
     17.518  0.1207E+00  0.1218E+00  0.3597E+02  0.3597E+02
     17.712  0.1386E+00  0.1386E+00  0.3600E+02  0.3600E+02
     17.906  0.1460E-01  0.1454E-01  0.3600E+02  0.3600E+02
     18.099  0.0000E+00  0.0000E+00  0.3600E+02  0.3600E+02
     18.293  0.0000E+00  0.0000E+00  0.3600E+02  0.3600E+02
     18.487  0.0000E+00  0.0000E+00  0.3600E+02  0.3600E+02
     18.681  0.0000E+00  0.0000E+00  0.3600E+02  0.3600E+02
     18.875  0.0000E+00  0.0000E+00  0.3600E+02  0.3600E+02
     19.069  0.0000E+00  0.0000E+00  0.3600E+02  0.3600E+02
     19.263  0.0000E+00  0.0000E+00  0.3600E+02  0.3600E+02
     19.456  0.0000E+00  0.0000E+00  0.3600E+02  0.3600E+02
     19.650  0.0000E+00  0.0000E+00  0.3600E+02  0.3600E+02
     19.844  0.0000E+00  0.0000E+00  0.3600E+02  0.3600E+02
     20.038  0.0000E+00  0.0000E+00  0.3600E+02  0.3600E+02
     20.232  0.0000E+00  0.0000E+00  0.3600E+02  0.3600E+02
     20.23181291    -37.92289415  301      4.53307089      1.00000000
    -37.923  0.0000E+00  0.0000E+00  0.0000E+00  0.0000E+00  0.0000E+00  0.0000E+00  0.0000E+00  0.0000E+00  0.0000E+00  0.0000E+00  0.0000E+00  0.0000E+00  0.0000E+00  0.0000E+00  0.0000E+00  0.0000E+00  0.0000E+00  0.0000E+00
    -37.729  0.0000E+00  0.0000E+00  0.0000E+00  0.0000E+00  0.0000E+00  0.0000E+00  0.0000E+00  0.0000E+00  0.0000E+00  0.0000E+00  0.0000E+00  0.0000E+00  0.0000E+00  0.0000E+00  0.0000E+00  0.0000E+00  0.0000E+00  0.0000E+00
    -37.535  0.0000E+00  0.0000E+00  0.0000E+00  0.0000E+00  0.0000E+00  0.0000E+00  0.0000E+00  0.0000E+00  0.0000E+00  0.0000E+00  0.0000E+00  0.0000E+00  0.0000E+00  0.0000E+00  0.0000E+00  0.0000E+00  0.0000E+00  0.0000E+00
    -37.341  0.0000E+00  0.0000E+00  0.0000E+00  0.0000E+00  0.0000E+00  0.0000E+00  0.0000E+00  0.0000E+00  0.0000E+00  0.0000E+00  0.0000E+00  0.0000E+00  0.0000E+00  0.0000E+00  0.0000E+00  0.0000E+00  0.0000E+00  0.0000E+00
    -37.147  0.0000E+00  0.0000E+00  0.0000E+00  0.0000E+00  0.0000E+00  0.0000E+00  0.0000E+00  0.0000E+00  0.0000E+00  0.0000E+00  0.0000E+00  0.0000E+00  0.0000E+00  0.0000E+00  0.0000E+00  0.0000E+00  0.0000E+00  0.0000E+00
    -36.954  0.0000E+00  0.0000E+00  0.0000E+00  0.0000E+00  0.0000E+00  0.0000E+00  0.0000E+00  0.0000E+00  0.0000E+00  0.0000E+00  0.0000E+00  0.0000E+00  0.0000E+00  0.0000E+00  0.0000E+00  0.0000E+00  0.0000E+00  0.0000E+00
    -36.760  0.0000E+00  0.0000E+00  0.0000E+00  0.0000E+00  0.0000E+00  0.0000E+00  0.0000E+00  0.0000E+00  0.0000E+00  0.0000E+00  0.0000E+00  0.0000E+00  0.0000E+00  0.0000E+00  0.0000E+00  0.0000E+00  0.0000E+00  0.0000E+00
    -36.566  0.0000E+00  0.0000E+00  0.0000E+00  0.0000E+00  0.0000E+00  0.0000E+00  0.0000E+00  0.0000E+00  0.0000E+00  0.0000E+00  0.0000E+00  0.0000E+00  0.0000E+00  0.0000E+00  0.0000E+00  0.0000E+00  0.0000E+00  0.0000E+00
    -36.372  0.0000E+00  0.0000E+00  0.0000E+00  0.0000E+00  0.0000E+00  0.0000E+00  0.0000E+00  0.0000E+00  0.0000E+00  0.0000E+00  0.0000E+00  0.0000E+00  0.0000E+00  0.0000E+00  0.0000E+00  0.0000E+00  0.0000E+00  0.0000E+00
    -36.178  0.0000E+00  0.0000E+00  0.0000E+00  0.0000E+00  0.0000E+00  0.0000E+00  0.0000E+00  0.0000E+00  0.0000E+00  0.0000E+00  0.0000E+00  0.0000E+00  0.0000E+00  0.0000E+00  0.0000E+00  0.0000E+00  0.0000E+00  0.0000E+00
    -35.984  0.0000E+00  0.0000E+00  0.0000E+00  0.0000E+00  0.0000E+00  0.0000E+00  0.0000E+00  0.0000E+00  0.0000E+00  0.0000E+00  0.0000E+00  0.0000E+00  0.0000E+00  0.0000E+00  0.0000E+00  0.0000E+00  0.0000E+00  0.0000E+00
    -35.791  0.7169E-09  0.7177E-09  0.4042E-04  0.4047E-04  0.4042E-04  0.4047E-04  0.4042E-04  0.4047E-04  0.3898E-10  0.3906E-10  0.3898E-10  0.3906E-10  0.3613E-10  0.3618E-10  0.3898E-10  0.3906E-10  0.3613E-10  0.3618E-10
    -35.597  0.3509E-07  0.3513E-07  0.2523E-02  0.2526E-02  0.2523E-02  0.2526E-02  0.2523E-02  0.2526E-02  0.2206E-08  0.2210E-08  0.2206E-08  0.2210E-08  0.2189E-08  0.2192E-08  0.2206E-08  0.2210E-08  0.2189E-08  0.2192E-08
    -35.403  0.1627E-05  0.1629E-05  0.1169E+00  0.1170E+00  0.1169E+00  0.1170E+00  0.1169E+00  0.1170E+00  0.1027E-06  0.1029E-06  0.1027E-06  0.1029E-06  0.1012E-06  0.1014E-06  0.1027E-06  0.1029E-06  0.1012E-06  0.1014E-06
    -35.209  0.2837E-04  0.2837E-04  0.2335E+01  0.2336E+01  0.2335E+01  0.2336E+01  0.2335E+01  0.2336E+01  0.2096E-05  0.2098E-05  0.2096E-05  0.2098E-05  0.1903E-05  0.1905E-05  0.2096E-05  0.2098E-05  0.1903E-05  0.1905E-05
    -35.015  0.1979E-04  0.1978E-04  0.2532E+01  0.2530E+01  0.2532E+01  0.2530E+01  0.2532E+01  0.2530E+01  0.2084E-05  0.2085E-05  0.2084E-05  0.2085E-05  0.1774E-05  0.1773E-05  0.2084E-05  0.2085E-05  0.1774E-05  0.1773E-05
    -34.821  0.3844E-06  0.3838E-06  0.1147E+00  0.1146E+00  0.1147E+00  0.1146E+00  0.1147E+00  0.1146E+00  0.8153E-07  0.8147E-07  0.8153E-07  0.8147E-07  0.6896E-07  0.6888E-07  0.8153E-07  0.8147E-07  0.6896E-07  0.6888E-07
    -34.627  0.0000E+00  0.0000E+00  0.0000E+00  0.0000E+00  0.0000E+00  0.0000E+00  0.0000E+00  0.0000E+00  0.0000E+00  0.0000E+00  0.0000E+00  0.0000E+00  0.0000E+00  0.0000E+00  0.0000E+00  0.0000E+00  0.0000E+00  0.0000E+00
    -34.434  0.0000E+00  0.0000E+00  0.0000E+00  0.0000E+00  0.0000E+00  0.0000E+00  0.0000E+00  0.0000E+00  0.0000E+00  0.0000E+00  0.0000E+00  0.0000E+00  0.0000E+00  0.0000E+00  0.0000E+00  0.0000E+00  0.0000E+00  0.0000E+00
    -34.240  0.0000E+00  0.0000E+00  0.0000E+00  0.0000E+00  0.0000E+00  0.0000E+00  0.0000E+00  0.0000E+00  0.0000E+00  0.0000E+00  0.0000E+00  0.0000E+00  0.0000E+00  0.0000E+00  0.0000E+00  0.0000E+00  0.0000E+00  0.0000E+00
    -34.046  0.0000E+00  0.0000E+00  0.0000E+00  0.0000E+00  0.0000E+00  0.0000E+00  0.0000E+00  0.0000E+00  0.0000E+00  0.0000E+00  0.0000E+00  0.0000E+00  0.0000E+00  0.0000E+00  0.0000E+00  0.0000E+00  0.0000E+00  0.0000E+00
    -33.852  0.0000E+00  0.0000E+00  0.0000E+00  0.0000E+00  0.0000E+00  0.0000E+00  0.0000E+00  0.0000E+00  0.0000E+00  0.0000E+00  0.0000E+00  0.0000E+00  0.0000E+00  0.0000E+00  0.0000E+00  0.0000E+00  0.0000E+00  0.0000E+00
    -33.658  0.0000E+00  0.0000E+00  0.0000E+00  0.0000E+00  0.0000E+00  0.0000E+00  0.0000E+00  0.0000E+00  0.0000E+00  0.0000E+00  0.0000E+00  0.0000E+00  0.0000E+00  0.0000E+00  0.0000E+00  0.0000E+00  0.0000E+00  0.0000E+00
    -33.464  0.0000E+00  0.0000E+00  0.0000E+00  0.0000E+00  0.0000E+00  0.0000E+00  0.0000E+00  0.0000E+00  0.0000E+00  0.0000E+00  0.0000E+00  0.0000E+00  0.0000E+00  0.0000E+00  0.0000E+00  0.0000E+00  0.0000E+00  0.0000E+00
    -33.271  0.0000E+00  0.0000E+00  0.0000E+00  0.0000E+00  0.0000E+00  0.0000E+00  0.0000E+00  0.0000E+00  0.0000E+00  0.0000E+00  0.0000E+00  0.0000E+00  0.0000E+00  0.0000E+00  0.0000E+00  0.0000E+00  0.0000E+00  0.0000E+00
    -33.077  0.0000E+00  0.0000E+00  0.0000E+00  0.0000E+00  0.0000E+00  0.0000E+00  0.0000E+00  0.0000E+00  0.0000E+00  0.0000E+00  0.0000E+00  0.0000E+00  0.0000E+00  0.0000E+00  0.0000E+00  0.0000E+00  0.0000E+00  0.0000E+00
    -32.883  0.0000E+00  0.0000E+00  0.0000E+00  0.0000E+00  0.0000E+00  0.0000E+00  0.0000E+00  0.0000E+00  0.0000E+00  0.0000E+00  0.0000E+00  0.0000E+00  0.0000E+00  0.0000E+00  0.0000E+00  0.0000E+00  0.0000E+00  0.0000E+00
    -32.689  0.0000E+00  0.0000E+00  0.0000E+00  0.0000E+00  0.0000E+00  0.0000E+00  0.0000E+00  0.0000E+00  0.0000E+00  0.0000E+00  0.0000E+00  0.0000E+00  0.0000E+00  0.0000E+00  0.0000E+00  0.0000E+00  0.0000E+00  0.0000E+00
    -32.495  0.0000E+00  0.0000E+00  0.0000E+00  0.0000E+00  0.0000E+00  0.0000E+00  0.0000E+00  0.0000E+00  0.0000E+00  0.0000E+00  0.0000E+00  0.0000E+00  0.0000E+00  0.0000E+00  0.0000E+00  0.0000E+00  0.0000E+00  0.0000E+00
    -32.301  0.0000E+00  0.0000E+00  0.0000E+00  0.0000E+00  0.0000E+00  0.0000E+00  0.0000E+00  0.0000E+00  0.0000E+00  0.0000E+00  0.0000E+00  0.0000E+00  0.0000E+00  0.0000E+00  0.0000E+00  0.0000E+00  0.0000E+00  0.0000E+00
    -32.107  0.0000E+00  0.0000E+00  0.0000E+00  0.0000E+00  0.0000E+00  0.0000E+00  0.0000E+00  0.0000E+00  0.0000E+00  0.0000E+00  0.0000E+00  0.0000E+00  0.0000E+00  0.0000E+00  0.0000E+00  0.0000E+00  0.0000E+00  0.0000E+00
    -31.914  0.0000E+00  0.0000E+00  0.0000E+00  0.0000E+00  0.0000E+00  0.0000E+00  0.0000E+00  0.0000E+00  0.0000E+00  0.0000E+00  0.0000E+00  0.0000E+00  0.0000E+00  0.0000E+00  0.0000E+00  0.0000E+00  0.0000E+00  0.0000E+00
    -31.720  0.0000E+00  0.0000E+00  0.0000E+00  0.0000E+00  0.0000E+00  0.0000E+00  0.0000E+00  0.0000E+00  0.0000E+00  0.0000E+00  0.0000E+00  0.0000E+00  0.0000E+00  0.0000E+00  0.0000E+00  0.0000E+00  0.0000E+00  0.0000E+00
    -31.526  0.0000E+00  0.0000E+00  0.0000E+00  0.0000E+00  0.0000E+00  0.0000E+00  0.0000E+00  0.0000E+00  0.0000E+00  0.0000E+00  0.0000E+00  0.0000E+00  0.0000E+00  0.0000E+00  0.0000E+00  0.0000E+00  0.0000E+00  0.0000E+00
    -31.332  0.0000E+00  0.0000E+00  0.0000E+00  0.0000E+00  0.0000E+00  0.0000E+00  0.0000E+00  0.0000E+00  0.0000E+00  0.0000E+00  0.0000E+00  0.0000E+00  0.0000E+00  0.0000E+00  0.0000E+00  0.0000E+00  0.0000E+00  0.0000E+00
    -31.138  0.0000E+00  0.0000E+00  0.0000E+00  0.0000E+00  0.0000E+00  0.0000E+00  0.0000E+00  0.0000E+00  0.0000E+00  0.0000E+00  0.0000E+00  0.0000E+00  0.0000E+00  0.0000E+00  0.0000E+00  0.0000E+00  0.0000E+00  0.0000E+00
    -30.944  0.0000E+00  0.0000E+00  0.0000E+00  0.0000E+00  0.0000E+00  0.0000E+00  0.0000E+00  0.0000E+00  0.0000E+00  0.0000E+00  0.0000E+00  0.0000E+00  0.0000E+00  0.0000E+00  0.0000E+00  0.0000E+00  0.0000E+00  0.0000E+00
    -30.750  0.0000E+00  0.0000E+00  0.0000E+00  0.0000E+00  0.0000E+00  0.0000E+00  0.0000E+00  0.0000E+00  0.0000E+00  0.0000E+00  0.0000E+00  0.0000E+00  0.0000E+00  0.0000E+00  0.0000E+00  0.0000E+00  0.0000E+00  0.0000E+00
    -30.557  0.0000E+00  0.0000E+00  0.0000E+00  0.0000E+00  0.0000E+00  0.0000E+00  0.0000E+00  0.0000E+00  0.0000E+00  0.0000E+00  0.0000E+00  0.0000E+00  0.0000E+00  0.0000E+00  0.0000E+00  0.0000E+00  0.0000E+00  0.0000E+00
    -30.363  0.0000E+00  0.0000E+00  0.0000E+00  0.0000E+00  0.0000E+00  0.0000E+00  0.0000E+00  0.0000E+00  0.0000E+00  0.0000E+00  0.0000E+00  0.0000E+00  0.0000E+00  0.0000E+00  0.0000E+00  0.0000E+00  0.0000E+00  0.0000E+00
    -30.169  0.0000E+00  0.0000E+00  0.0000E+00  0.0000E+00  0.0000E+00  0.0000E+00  0.0000E+00  0.0000E+00  0.0000E+00  0.0000E+00  0.0000E+00  0.0000E+00  0.0000E+00  0.0000E+00  0.0000E+00  0.0000E+00  0.0000E+00  0.0000E+00
    -29.975  0.0000E+00  0.0000E+00  0.0000E+00  0.0000E+00  0.0000E+00  0.0000E+00  0.0000E+00  0.0000E+00  0.0000E+00  0.0000E+00  0.0000E+00  0.0000E+00  0.0000E+00  0.0000E+00  0.0000E+00  0.0000E+00  0.0000E+00  0.0000E+00
    -29.781  0.0000E+00  0.0000E+00  0.0000E+00  0.0000E+00  0.0000E+00  0.0000E+00  0.0000E+00  0.0000E+00  0.0000E+00  0.0000E+00  0.0000E+00  0.0000E+00  0.0000E+00  0.0000E+00  0.0000E+00  0.0000E+00  0.0000E+00  0.0000E+00
    -29.587  0.0000E+00  0.0000E+00  0.0000E+00  0.0000E+00  0.0000E+00  0.0000E+00  0.0000E+00  0.0000E+00  0.0000E+00  0.0000E+00  0.0000E+00  0.0000E+00  0.0000E+00  0.0000E+00  0.0000E+00  0.0000E+00  0.0000E+00  0.0000E+00
    -29.394  0.0000E+00  0.0000E+00  0.0000E+00  0.0000E+00  0.0000E+00  0.0000E+00  0.0000E+00  0.0000E+00  0.0000E+00  0.0000E+00  0.0000E+00  0.0000E+00  0.0000E+00  0.0000E+00  0.0000E+00  0.0000E+00  0.0000E+00  0.0000E+00
    -29.200  0.0000E+00  0.0000E+00  0.0000E+00  0.0000E+00  0.0000E+00  0.0000E+00  0.0000E+00  0.0000E+00  0.0000E+00  0.0000E+00  0.0000E+00  0.0000E+00  0.0000E+00  0.0000E+00  0.0000E+00  0.0000E+00  0.0000E+00  0.0000E+00
    -29.006  0.0000E+00  0.0000E+00  0.0000E+00  0.0000E+00  0.0000E+00  0.0000E+00  0.0000E+00  0.0000E+00  0.0000E+00  0.0000E+00  0.0000E+00  0.0000E+00  0.0000E+00  0.0000E+00  0.0000E+00  0.0000E+00  0.0000E+00  0.0000E+00
    -28.812  0.0000E+00  0.0000E+00  0.0000E+00  0.0000E+00  0.0000E+00  0.0000E+00  0.0000E+00  0.0000E+00  0.0000E+00  0.0000E+00  0.0000E+00  0.0000E+00  0.0000E+00  0.0000E+00  0.0000E+00  0.0000E+00  0.0000E+00  0.0000E+00
    -28.618  0.0000E+00  0.0000E+00  0.0000E+00  0.0000E+00  0.0000E+00  0.0000E+00  0.0000E+00  0.0000E+00  0.0000E+00  0.0000E+00  0.0000E+00  0.0000E+00  0.0000E+00  0.0000E+00  0.0000E+00  0.0000E+00  0.0000E+00  0.0000E+00
    -28.424  0.0000E+00  0.0000E+00  0.0000E+00  0.0000E+00  0.0000E+00  0.0000E+00  0.0000E+00  0.0000E+00  0.0000E+00  0.0000E+00  0.0000E+00  0.0000E+00  0.0000E+00  0.0000E+00  0.0000E+00  0.0000E+00  0.0000E+00  0.0000E+00
    -28.230  0.0000E+00  0.0000E+00  0.0000E+00  0.0000E+00  0.0000E+00  0.0000E+00  0.0000E+00  0.0000E+00  0.0000E+00  0.0000E+00  0.0000E+00  0.0000E+00  0.0000E+00  0.0000E+00  0.0000E+00  0.0000E+00  0.0000E+00  0.0000E+00