   8   8   1   0
  0.1079080E+02  0.4419582E-09  0.4419582E-09  0.4419582E-09  0.5000000E-15
  1.000000000000000E-004
  CAR 
 unknown system                          
     16.09450610    -40.32115582  301      2.93232081      1.00000000
    -40.321  0.0000E+00  0.0000E+00  0.0000E+00  0.0000E+00
    -40.133  0.0000E+00  0.0000E+00  0.0000E+00  0.0000E+00
    -39.945  0.0000E+00  0.0000E+00  0.0000E+00  0.0000E+00
    -39.757  0.0000E+00  0.0000E+00  0.0000E+00  0.0000E+00
    -39.569  0.0000E+00  0.0000E+00  0.0000E+00  0.0000E+00
    -39.381  0.0000E+00  0.0000E+00  0.0000E+00  0.0000E+00
    -39.193  0.0000E+00  0.0000E+00  0.0000E+00  0.0000E+00
    -39.005  0.0000E+00  0.0000E+00  0.0000E+00  0.0000E+00
    -38.817  0.0000E+00  0.0000E+00  0.0000E+00  0.0000E+00
    -38.629  0.0000E+00  0.0000E+00  0.0000E+00  0.0000E+00
    -38.441  0.0000E+00  0.0000E+00  0.0000E+00  0.0000E+00
    -38.253  0.1902E-02  0.1903E-02  0.3576E-03  0.3578E-03
    -38.065  0.7974E-01  0.7980E-01  0.1535E-01  0.1536E-01
    -37.876  0.3239E+01  0.3241E+01  0.6244E+00  0.6248E+00
    -37.688  0.4096E+02  0.4097E+02  0.8328E+01  0.8329E+01
    -37.500  0.1887E+02  0.1886E+02  0.1188E+02  0.1188E+02
    -37.312  0.1379E-01  0.1378E-01  0.1200E+02  0.1200E+02
    -37.124  0.0000E+00  0.0000E+00  0.1200E+02  0.1200E+02
    -36.936  0.0000E+00  0.0000E+00  0.1200E+02  0.1200E+02
    -36.748  0.0000E+00  0.0000E+00  0.1200E+02  0.1200E+02
    -36.560  0.0000E+00  0.0000E+00  0.1200E+02  0.1200E+02
    -36.372  0.0000E+00  0.0000E+00  0.1200E+02  0.1200E+02
    -36.184  0.0000E+00  0.0000E+00  0.1200E+02  0.1200E+02
    -35.996  0.0000E+00  0.0000E+00  0.1200E+02  0.1200E+02
    -35.808  0.0000E+00  0.0000E+00  0.1200E+02  0.1200E+02
    -35.620  0.0000E+00  0.0000E+00  0.1200E+02  0.1200E+02
    -35.432  0.0000E+00  0.0000E+00  0.1200E+02  0.1200E+02
    -35.244  0.0000E+00  0.0000E+00  0.1200E+02  0.1200E+02
    -35.056  0.0000E+00  0.0000E+00  0.1200E+02  0.1200E+02
    -34.868  0.0000E+00  0.0000E+00  0.1200E+02  0.1200E+02
    -34.680  0.0000E+00  0.0000E+00  0.1200E+02  0.1200E+02
    -34.492  0.0000E+00  0.0000E+00  0.1200E+02  0.1200E+02
    -34.303  0.0000E+00  0.0000E+00  0.1200E+02  0.1200E+02
    -34.115  0.0000E+00  0.0000E+00  0.1200E+02  0.1200E+02
    -33.927  0.0000E+00  0.0000E+00  0.1200E+02  0.1200E+02
    -33.739  0.0000E+00  0.0000E+00  0.1200E+02  0.1200E+02
    -33.551  0.0000E+00  0.0000E+00  0.1200E+02  0.1200E+02
    -33.363  0.0000E+00  0.0000E+00  0.1200E+02  0.1200E+02
    -33.175  0.0000E+00  0.0000E+00  0.1200E+02  0.1200E+02
    -32.987  0.0000E+00  0.0000E+00  0.1200E+02  0.1200E+02
    -32.799  0.0000E+00  0.0000E+00  0.1200E+02  0.1200E+02
    -32.611  0.0000E+00  0.0000E+00  0.1200E+02  0.1200E+02
    -32.423  0.0000E+00  0.0000E+00  0.1200E+02  0.1200E+02
    -32.235  0.0000E+00  0.0000E+00  0.1200E+02  0.1200E+02
    -32.047  0.0000E+00  0.0000E+00  0.1200E+02  0.1200E+02
    -31.859  0.0000E+00  0.0000E+00  0.1200E+02  0.1200E+02
    -31.671  0.0000E+00  0.0000E+00  0.1200E+02  0.1200E+02
    -31.483  0.0000E+00  0.0000E+00  0.1200E+02  0.1200E+02
    -31.295  0.0000E+00  0.0000E+00  0.1200E+02  0.1200E+02
    -31.107  0.0000E+00  0.0000E+00  0.1200E+02  0.1200E+02
    -30.919  0.0000E+00  0.0000E+00  0.1200E+02  0.1200E+02
    -30.730  0.0000E+00  0.0000E+00  0.1200E+02  0.1200E+02
    -30.542  0.0000E+00  0.0000E+00  0.1200E+02  0.1200E+02
    -30.354  0.0000E+00  0.0000E+00  0.1200E+02  0.1200E+02
    -30.166  0.0000E+00  0.0000E+00  0.1200E+02  0.1200E+02
    -29.978  0.0000E+00  0.0000E+00  0.1200E+02  0.1200E+02
    -29.790  0.0000E+00  0.0000E+00  0.1200E+02  0.1200E+02
    -29.602  0.0000E+00  0.0000E+00  0.1200E+02  0.1200E+02
    -29.414  0.0000E+00  0.0000E+00  0.1200E+02  0.1200E+02
    -29.226  0.0000E+00  0.0000E+00  0.1200E+02  0.1200E+02
    -29.038  0.0000E+00  0.0000E+00  0.1200E+02  0.1200E+02
    -28.850  0.0000E+00  0.0000E+00  0.1200E+02  0.1200E+02
    -28.662  0.0000E+00  0.0000E+00  0.1200E+02  0.1200E+02
    -28.474  0.0000E+00  0.0000E+00  0.1200E+02  0.1200E+02
    -28.286  0.0000E+00  0.0000E+00  0.1200E+02  0.1200E+02
    -28.098  0.0000E+00  0.0000E+00  0.1200E+02  0.1200E+02
    -27.910  0.0000E+00  0.0000E+00  0.1200E+02  0.1200E+02
    -27.722  0.0000E+00  0.0000E+00  0.1200E+02  0.1200E+02
    -27.534  0.0000E+00  0.0000E+00  0.1200E+02  0.1200E+02
    -27.346  0.0000E+00  0.0000E+00  0.1200E+02  0.1200E+02
    -27.158  0.0000E+00  0.0000E+00  0.1200E+02  0.1200E+02
    -26.969  0.0000E+00  0.0000E+00  0.1200E+02  0.1200E+02
    -26.781  0.0000E+00  0.0000E+00  0.1200E+02  0.1200E+02
    -26.593  0.0000E+00  0.0000E+00  0.1200E+02  0.1200E+02
    -26.405  0.0000E+00  0.0000E+00  0.1200E+02  0.1200E+02
    -26.217  0.0000E+00  0.0000E+00  0.1200E+02  0.1200E+02
    -26.029  0.0000E+00  0.0000E+00  0.1200E+02  0.1200E+02
    -25.841  0.0000E+00  0.0000E+00  0.1200E+02  0.1200E+02
    -25.653  0.0000E+00  0.0000E+00  0.1200E+02  0.1200E+02
    -25.465  0.0000E+00  0.0000E+00  0.1200E+02  0.1200E+02
    -25.277  0.0000E+00  0.0000E+00  0.1200E+02  0.1200E+02
    -25.089  0.0000E+00  0.0000E+00  0.1200E+02  0.1200E+02
    -24.901  0.0000E+00  0.0000E+00  0.1200E+02  0.1200E+02
    -24.713  0.0000E+00  0.0000E+00  0.1200E+02  0.1200E+02
    -24.525  0.0000E+00  0.0000E+00  0.1200E+02  0.1200E+02
    -24.337  0.0000E+00  0.0000E+00  0.1200E+02  0.1200E+02
    -24.149  0.0000E+00  0.0000E+00  0.1200E+02  0.1200E+02
    -23.961  0.0000E+00  0.0000E+00  0.1200E+02  0.1200E+02
    -23.773  0.0000E+00  0.0000E+00  0.1200E+02  0.1200E+02
    -23.585  0.0000E+00  0.0000E+00  0.1200E+02  0.1200E+02
    -23.396  0.0000E+00  0.0000E+00  0.1200E+02  0.1200E+02
    -23.208  0.0000E+00  0.0000E+00  0.1200E+02  0.1200E+02
    -23.020  0.0000E+00  0.0000E+00  0.1200E+02  0.1200E+02
    -22.832  0.0000E+00  0.0000E+00  0.1200E+02  0.1200E+02
    -22.644  0.0000E+00  0.0000E+00  0.1200E+02  0.1200E+02
    -22.456  0.0000E+00  0.0000E+00  0.1200E+02  0.1200E+02
    -22.268  0.0000E+00  0.0000E+00  0.1200E+02  0.1200E+02
    -22.080  0.0000E+00  0.0000E+00  0.1200E+02  0.1200E+02
    -21.892  0.0000E+00  0.0000E+00  0.1200E+02  0.1200E+02
    -21.704  0.0000E+00  0.0000E+00  0.1200E+02  0.1200E+02
    -21.516  0.0000E+00  0.0000E+00  0.1200E+02  0.1200E+02
    -21.328  0.0000E+00  0.0000E+00  0.1200E+02  0.1200E+02
    -21.140  0.0000E+00  0.0000E+00  0.1200E+02  0.1200E+02
    -20.952  0.0000E+00  0.0000E+00  0.1200E+02  0.1200E+02
    -20.764  0.0000E+00  0.0000E+00  0.1200E+02  0.1200E+02
    -20.576  0.0000E+00  0.0000E+00  0.1200E+02  0.1200E+02
    -20.388  0.0000E+00  0.0000E+00  0.1200E+02  0.1200E+02
    -20.200  0.0000E+00  0.0000E+00  0.1200E+02  0.1200E+02
    -20.012  0.0000E+00  0.0000E+00  0.1200E+02  0.1200E+02
    -19.823  0.0000E+00  0.0000E+00  0.1200E+02  0.1200E+02
    -19.635  0.0000E+00  0.0000E+00  0.1200E+02  0.1200E+02
    -19.447  0.0000E+00  0.0000E+00  0.1200E+02  0.1200E+02
    -19.259  0.0000E+00  0.0000E+00  0.1200E+02  0.1200E+02
    -19.071  0.0000E+00  0.0000E+00  0.1200E+02  0.1200E+02
    -18.883  0.0000E+00  0.0000E+00  0.1200E+02  0.1200E+02
    -18.695  0.0000E+00  0.0000E+00  0.1200E+02  0.1200E+02
    -18.507  0.0000E+00  0.0000E+00  0.1200E+02  0.1200E+02
    -18.319  0.0000E+00  0.0000E+00  0.1200E+02  0.1200E+02
    -18.131  0.0000E+00  0.0000E+00  0.1200E+02  0.1200E+02
    -17.943  0.0000E+00  0.0000E+00  0.1200E+02  0.1200E+02
    -17.755  0.0000E+00  0.0000E+00  0.1200E+02  0.1200E+02
    -17.567  0.0000E+00  0.0000E+00  0.1200E+02  0.1200E+02
    -17.379  0.0000E+00  0.0000E+00  0.1200E+02  0.1200E+02
    -17.191  0.0000E+00  0.0000E+00  0.1200E+02  0.1200E+02
    -17.003  0.0000E+00  0.0000E+00  0.1200E+02  0.1200E+02
    -16.815  0.0000E+00  0.0000E+00  0.1200E+02  0.1200E+02
    -16.627  0.0000E+00  0.0000E+00  0.1200E+02  0.1200E+02
    -16.439  0.0000E+00  0.0000E+00  0.1200E+02  0.1200E+02
    -16.250  0.0000E+00  0.0000E+00  0.1200E+02  0.1200E+02
    -16.062  0.0000E+00  0.0000E+00  0.1200E+02  0.1200E+02
    -15.874  0.0000E+00  0.0000E+00  0.1200E+02  0.1200E+02
    -15.686  0.0000E+00  0.0000E+00  0.1200E+02  0.1200E+02
    -15.498  0.0000E+00  0.0000E+00  0.1200E+02  0.1200E+02
    -15.310  0.0000E+00  0.0000E+00  0.1200E+02  0.1200E+02
    -15.122  0.3374E-04  0.3380E-04  0.1200E+02  0.1200E+02
    -14.934  0.1423E-02  0.1425E-02  0.1200E+02  0.1200E+02
    -14.746  0.4994E-01  0.5001E-01  0.1201E+02  0.1201E+02
    -14.558  0.3857E+00  0.3860E+00  0.1208E+02  0.1208E+02
    -14.370  0.8508E+00  0.8510E+00  0.1224E+02  0.1224E+02
    -14.182  0.1408E+01  0.1408E+01  0.1251E+02  0.1251E+02
    -13.994  0.2083E+01  0.2084E+01  0.1290E+02  0.1290E+02
    -13.806  0.4024E+01  0.4026E+01  0.1366E+02  0.1366E+02
    -13.618  0.7508E+01  0.7510E+01  0.1507E+02  0.1507E+02
    -13.430  0.4627E+01  0.4623E+01  0.1594E+02  0.1594E+02
    -13.242  0.2644E+00  0.2637E+00  0.1600E+02  0.1600E+02
    -13.054  0.0000E+00  0.0000E+00  0.1600E+02  0.1600E+02
    -12.866  0.0000E+00  0.0000E+00  0.1600E+02  0.1600E+02
    -12.677  0.0000E+00  0.0000E+00  0.1600E+02  0.1600E+02
    -12.489  0.0000E+00  0.0000E+00  0.1600E+02  0.1600E+02
    -12.301  0.0000E+00  0.0000E+00  0.1600E+02  0.1600E+02
    -12.113  0.0000E+00  0.0000E+00  0.1600E+02  0.1600E+02
    -11.925  0.0000E+00  0.0000E+00  0.1600E+02  0.1600E+02
    -11.737  0.0000E+00  0.0000E+00  0.1600E+02  0.1600E+02
    -11.549  0.0000E+00  0.0000E+00  0.1600E+02  0.1600E+02
    -11.361  0.0000E+00  0.0000E+00  0.1600E+02  0.1600E+02
    -11.173  0.0000E+00  0.0000E+00  0.1600E+02  0.1600E+02
    -10.985  0.0000E+00  0.0000E+00  0.1600E+02  0.1600E+02
    -10.797  0.0000E+00  0.0000E+00  0.1600E+02  0.1600E+02
    -10.609  0.0000E+00  0.0000E+00  0.1600E+02  0.1600E+02
    -10.421  0.0000E+00  0.0000E+00  0.1600E+02  0.1600E+02
    -10.233  0.0000E+00  0.0000E+00  0.1600E+02  0.1600E+02
    -10.045  0.0000E+00  0.0000E+00  0.1600E+02  0.1600E+02
     -9.857  0.0000E+00  0.0000E+00  0.1600E+02  0.1600E+02
     -9.669  0.0000E+00  0.0000E+00  0.1600E+02  0.1600E+02
     -9.481  0.0000E+00  0.0000E+00  0.1600E+02  0.1600E+02
     -9.293  0.0000E+00  0.0000E+00  0.1600E+02  0.1600E+02
     -9.104  0.0000E+00  0.0000E+00  0.1600E+02  0.1600E+02
     -8.916  0.0000E+00  0.0000E+00  0.1600E+02  0.1600E+02
     -8.728  0.0000E+00  0.0000E+00  0.1600E+02  0.1600E+02
     -8.540  0.0000E+00  0.0000E+00  0.1600E+02  0.1600E+02
     -8.352  0.0000E+00  0.0000E+00  0.1600E+02  0.1600E+02
     -8.164  0.0000E+00  0.0000E+00  0.1600E+02  0.1600E+02
     -7.976  0.0000E+00  0.0000E+00  0.1600E+02  0.1600E+02
     -7.788  0.0000E+00  0.0000E+00  0.1600E+02  0.1600E+02
     -7.600  0.0000E+00  0.0000E+00  0.1600E+02  0.1600E+02
     -7.412  0.0000E+00  0.0000E+00  0.1600E+02  0.1600E+02
     -7.224  0.0000E+00  0.0000E+00  0.1600E+02  0.1600E+02
     -7.036  0.0000E+00  0.0000E+00  0.1600E+02  0.1600E+02
     -6.848  0.0000E+00  0.0000E+00  0.1600E+02  0.1600E+02
     -6.660  0.0000E+00  0.0000E+00  0.1600E+02  0.1600E+02
     -6.472  0.0000E+00  0.0000E+00  0.1600E+02  0.1600E+02
     -6.284  0.0000E+00  0.0000E+00  0.1600E+02  0.1600E+02
     -6.096  0.0000E+00  0.0000E+00  0.1600E+02  0.1600E+02
     -5.908  0.0000E+00  0.0000E+00  0.1600E+02  0.1600E+02
     -5.720  0.0000E+00  0.0000E+00  0.1600E+02  0.1600E+02
     -5.531  0.0000E+00  0.0000E+00  0.1600E+02  0.1600E+02
     -5.343  0.0000E+00  0.0000E+00  0.1600E+02  0.1600E+02
     -5.155  0.0000E+00  0.0000E+00  0.1600E+02  0.1600E+02
     -4.967  0.0000E+00  0.0000E+00  0.1600E+02  0.1600E+02
     -4.779  0.0000E+00  0.0000E+00  0.1600E+02  0.1600E+02
     -4.591  0.0000E+00  0.0000E+00  0.1600E+02  0.1600E+02
     -4.403  0.0000E+00  0.0000E+00  0.1600E+02  0.1600E+02
     -4.215  0.0000E+00  0.0000E+00  0.1600E+02  0.1600E+02
     -4.027  0.0000E+00  0.0000E+00  0.1600E+02  0.1600E+02
     -3.839  0.0000E+00  0.0000E+00  0.1600E+02  0.1600E+02
     -3.651  0.0000E+00  0.0000E+00  0.1600E+02  0.1600E+02
     -3.463  0.0000E+00  0.0000E+00  0.1600E+02  0.1600E+02
     -3.275  0.0000E+00  0.0000E+00  0.1600E+02  0.1600E+02
     -3.087  0.0000E+00  0.0000E+00  0.1600E+02  0.1600E+02
     -2.899  0.0000E+00  0.0000E+00  0.1600E+02  0.1600E+02
     -2.711  0.0000E+00  0.0000E+00  0.1600E+02  0.1600E+02
     -2.523  0.6237E-04  0.6232E-04  0.1600E+02  0.1600E+02
     -2.335  0.2635E-02  0.2633E-02  0.1600E+02  0.1600E+02
     -2.147  0.9641E-01  0.9634E-01  0.1602E+02  0.1602E+02
     -1.959  0.5818E+00  0.5818E+00  0.1613E+02  0.1613E+02
     -1.770  0.1037E+01  0.1037E+01  0.1632E+02  0.1632E+02
     -1.582  0.2082E+01  0.2082E+01  0.1671E+02  0.1671E+02
     -1.394  0.3308E+01  0.3307E+01  0.1734E+02  0.1734E+02
     -1.206  0.5171E+01  0.5171E+01  0.1831E+02  0.1831E+02
     -1.018  0.3942E+01  0.3943E+01  0.1905E+02  0.1905E+02
     -0.830  0.1566E+01  0.1566E+01  0.1935E+02  0.1935E+02
     -0.642  0.7611E+00  0.7611E+00  0.1950E+02  0.1950E+02
     -0.454  0.1627E+01  0.1627E+01  0.1980E+02  0.1980E+02
     -0.266  0.2115E+01  0.2115E+01  0.2020E+02  0.2020E+02
     -0.078  0.1680E+01  0.1680E+01  0.2052E+02  0.2052E+02
      0.110  0.1877E+01  0.1877E+01  0.2087E+02  0.2087E+02
      0.298  0.2711E+01  0.2711E+01  0.2138E+02  0.2138E+02
      0.486  0.2553E+01  0.2553E+01  0.2186E+02  0.2186E+02
      0.674  0.3513E+01  0.3514E+01  0.2252E+02  0.2252E+02
      0.862  0.6014E+01  0.6015E+01  0.2366E+02  0.2366E+02
      1.050  0.5395E+01  0.5395E+01  0.2467E+02  0.2467E+02
      1.238  0.6498E+01  0.6499E+01  0.2590E+02  0.2590E+02
      1.426  0.5467E+01  0.5467E+01  0.2693E+02  0.2693E+02
      1.614  0.3542E+01  0.3541E+01  0.2760E+02  0.2760E+02
      1.803  0.1723E+01  0.1723E+01  0.2793E+02  0.2793E+02
      1.991  0.3527E+00  0.3523E+00  0.2800E+02  0.2800E+02
      2.179  0.1130E-01  0.1128E-01  0.2800E+02  0.2800E+02
      2.367  0.0000E+00  0.0000E+00  0.2800E+02  0.2800E+02
      2.555  0.0000E+00  0.0000E+00  0.2800E+02  0.2800E+02
      2.743  0.0000E+00  0.0000E+00  0.2800E+02  0.2800E+02
      2.931  0.0000E+00  0.0000E+00  0.2800E+02  0.2800E+02
      3.119  0.0000E+00  0.0000E+00  0.2800E+02  0.2800E+02
      3.307  0.0000E+00  0.0000E+00  0.2800E+02  0.2800E+02
      3.495  0.0000E+00  0.0000E+00  0.2800E+02  0.2800E+02
      3.683  0.0000E+00  0.0000E+00  0.2800E+02  0.2800E+02
      3.871  0.0000E+00  0.0000E+00  0.2800E+02  0.2800E+02
      4.059  0.0000E+00  0.0000E+00  0.2800E+02  0.2800E+02
      4.247  0.0000E+00  0.0000E+00  0.2800E+02  0.2800E+02
      4.435  0.0000E+00  0.0000E+00  0.2800E+02  0.2800E+02
      4.623  0.0000E+00  0.0000E+00  0.2800E+02  0.2800E+02
      4.811  0.0000E+00  0.0000E+00  0.2800E+02  0.2800E+02
      4.999  0.0000E+00  0.0000E+00  0.2800E+02  0.2800E+02
      5.187  0.0000E+00  0.0000E+00  0.2800E+02  0.2800E+02
      5.376  0.6157E-04  0.6143E-04  0.2800E+02  0.2800E+02
      5.564  0.2551E-02  0.2546E-02  0.2800E+02  0.2800E+02
      5.752  0.6953E-01  0.6943E-01  0.2801E+02  0.2801E+02
      5.940  0.1172E+00  0.1173E+00  0.2804E+02  0.2804E+02
      6.128  0.7440E-02  0.7456E-02  0.2804E+02  0.2804E+02
      6.316  0.2527E-03  0.2523E-03  0.2804E+02  0.2804E+02
      6.504  0.1067E-01  0.1065E-01  0.2804E+02  0.2804E+02
      6.692  0.2535E+00  0.2532E+00  0.2809E+02  0.2809E+02
      6.880  0.3100E+00  0.3103E+00  0.2815E+02  0.2815E+02
      7.068  0.1881E-01  0.1883E-01  0.2815E+02  0.2815E+02
      7.256  0.9671E-01  0.9656E-01  0.2817E+02  0.2817E+02
      7.444  0.4314E+00  0.4314E+00  0.2825E+02  0.2825E+02
      7.632  0.9096E-01  0.9099E-01  0.2827E+02  0.2827E+02
      7.820  0.1623E+00  0.1623E+00  0.2830E+02  0.2830E+02
      8.008  0.3488E+00  0.3486E+00  0.2836E+02  0.2836E+02
      8.196  0.2605E+00  0.2607E+00  0.2841E+02  0.2841E+02
      8.384  0.6142E+00  0.6135E+00  0.2853E+02  0.2853E+02
      8.572  0.1024E+01  0.1025E+01  0.2872E+02  0.2872E+02
      8.760  0.2461E+00  0.2460E+00  0.2876E+02  0.2876E+02
      8.949  0.5692E+00  0.5692E+00  0.2887E+02  0.2887E+02
      9.137  0.6287E+00  0.6282E+00  0.2899E+02  0.2899E+02
      9.325  0.1055E+01  0.1055E+01  0.2919E+02  0.2919E+02
      9.513  0.8135E+00  0.8126E+00  0.2934E+02  0.2934E+02
      9.701  0.2036E+01  0.2036E+01  0.2973E+02  0.2973E+02
      9.889  0.4298E+00  0.4300E+00  0.2981E+02  0.2981E+02
     10.077  0.8556E+00  0.8552E+00  0.2997E+02  0.2997E+02
     10.265  0.1172E+01  0.1172E+01  0.3019E+02  0.3019E+02
     10.453  0.6349E+00  0.6382E+00  0.3031E+02  0.3031E+02
     10.641  0.2498E+01  0.2495E+01  0.3078E+02  0.3078E+02
     10.829  0.1141E+01  0.1140E+01  0.3099E+02  0.3099E+02
     11.017  0.7467E+00  0.7628E+00  0.3114E+02  0.3114E+02
     11.205  0.2335E+01  0.2336E+01  0.3158E+02  0.3158E+02
     11.393  0.1765E+01  0.1768E+01  0.3191E+02  0.3191E+02
     11.581  0.1061E+01  0.1022E+01  0.3211E+02  0.3211E+02
     11.769  0.8559E+00  0.8668E+00  0.3227E+02  0.3227E+02
     11.957  0.1463E+01  0.1471E+01  0.3255E+02  0.3255E+02
     12.145  0.1341E+01  0.1446E+01  0.3280E+02  0.3282E+02
     12.333  0.2178E+01  0.2153E+01  0.3321E+02  0.3323E+02
     12.522  0.3035E+01  0.3027E+01  0.3378E+02  0.3380E+02
     12.710  0.4216E+01  0.4136E+01  0.3458E+02  0.3458E+02
     12.898  0.3305E+01  0.3321E+01  0.3520E+02  0.3520E+02
     13.086  0.1773E+01  0.1695E+01  0.3554E+02  0.3552E+02
     13.274  0.1645E+01  0.1688E+01  0.3585E+02  0.3584E+02
     13.462  0.5346E+00  0.5566E+00  0.3595E+02  0.3595E+02
     13.650  0.2388E+00  0.2411E+00  0.3600E+02  0.3600E+02
     13.838  0.1852E-01  0.2005E-01  0.3600E+02  0.3600E+02
     14.026  0.0000E+00  0.0000E+00  0.3600E+02  0.3600E+02
     14.214  0.0000E+00  0.0000E+00  0.3600E+02  0.3600E+02
     14.402  0.0000E+00  0.0000E+00  0.3600E+02  0.3600E+02
     14.590  0.0000E+00  0.0000E+00  0.3600E+02  0.3600E+02
     14.778  0.0000E+00  0.0000E+00  0.3600E+02  0.3600E+02
     14.966  0.0000E+00  0.0000E+00  0.3600E+02  0.3600E+02
     15.154  0.0000E+00  0.0000E+00  0.3600E+02  0.3600E+02
     15.342  0.0000E+00  0.0000E+00  0.3600E+02  0.3600E+02
     15.530  0.0000E+00  0.0000E+00  0.3600E+02  0.3600E+02
     15.718  0.0000E+00  0.0000E+00  0.3600E+02  0.3600E+02
     15.906  0.0000E+00  0.0000E+00  0.3600E+02  0.3600E+02
     16.095  0.0000E+00  0.0000E+00  0.3600E+02  0.3600E+02
     16.09450610    -40.32115582  301      2.93232081      1.00000000
    -40.321  0.0000E+00  0.0000E+00  0.0000E+00  0.0000E+00  0.0000E+00  0.0000E+00  0.0000E+00  0.0000E+00  0.0000E+00  0.0000E+00  0.0000E+00  0.0000E+00  0.0000E+00  0.0000E+00  0.0000E+00  0.0000E+00  0.0000E+00  0.0000E+00
    -40.133  0.0000E+00  0.0000E+00  0.0000E+00  0.0000E+00  0.0000E+00  0.0000E+00  0.0000E+00  0.0000E+00  0.0000E+00  0.0000E+00  0.0000E+00  0.0000E+00  0.0000E+00  0.0000E+00  0.0000E+00  0.0000E+00  0.0000E+00  0.0000E+00
    -39.945  0.0000E+00  0.0000E+00  0.0000E+00  0.0000E+00  0.0000E+00  0.0000E+00  0.0000E+00  0.0000E+00  0.0000E+00  0.0000E+00  0.0000E+00  0.0000E+00  0.0000E+00  0.0000E+00  0.0000E+00  0.0000E+00  0.0000E+00  0.0000E+00
    -39.757  0.0000E+00  0.0000E+00  0.0000E+00  0.0000E+00  0.0000E+00  0.0000E+00  0.0000E+00  0.0000E+00  0.0000E+00  0.0000E+00  0.0000E+00  0.0000E+00  0.0000E+00  0.0000E+00  0.0000E+00  0.0000E+00  0.0000E+00  0.0000E+00
    -39.569  0.0000E+00  0.0000E+00  0.0000E+00  0.0000E+00  0.0000E+00  0.0000E+00  0.0000E+00  0.0000E+00  0.0000E+00  0.0000E+00  0.0000E+00  0.0000E+00  0.0000E+00  0.0000E+00  0.0000E+00  0.0000E+00  0.0000E+00  0.0000E+00
    -39.381  0.0000E+00  0.0000E+00  0.0000E+00  0.0000E+00  0.0000E+00  0.0000E+00  0.0000E+00  0.0000E+00  0.0000E+00  0.0000E+00  0.0000E+00  0.0000E+00  0.0000E+00  0.0000E+00  0.0000E+00  0.0000E+00  0.0000E+00  0.0000E+00
    -39.193  0.0000E+00  0.0000E+00  0.0000E+00  0.0000E+00  0.0000E+00  0.0000E+00  0.0000E+00  0.0000E+00  0.0000E+00  0.0000E+00  0.0000E+00  0.0000E+00  0.0000E+00  0.0000E+00  0.0000E+00  0.0000E+00  0.0000E+00  0.0000E+00
    -39.005  0.0000E+00  0.0000E+00  0.0000E+00  0.0000E+00  0.0000E+00  0.0000E+00  0.0000E+00  0.0000E+00  0.0000E+00  0.0000E+00  0.0000E+00  0.0000E+00  0.0000E+00  0.0000E+00  0.0000E+00  0.0000E+00  0.0000E+00  0.0000E+00
    -38.817  0.0000E+00  0.0000E+00  0.0000E+00  0.0000E+00  0.0000E+00  0.0000E+00  0.0000E+00  0.0000E+00  0.0000E+00  0.0000E+00  0.0000E+00  0.0000E+00  0.0000E+00  0.0000E+00  0.0000E+00  0.0000E+00  0.0000E+00  0.0000E+00
    -38.629  0.0000E+00  0.0000E+00  0.0000E+00  0.0000E+00  0.0000E+00  0.0000E+00  0.0000E+00  0.0000E+00  0.0000E+00  0.0000E+00  0.0000E+00  0.0000E+00  0.0000E+00  0.0000E+00  0.0000E+00  0.0000E+00  0.0000E+00  0.0000E+00
    -38.441  0.0000E+00  0.0000E+00  0.0000E+00  0.0000E+00  0.0000E+00  0.0000E+00  0.0000E+00  0.0000E+00  0.0000E+00  0.0000E+00  0.0000E+00  0.0000E+00  0.0000E+00  0.0000E+00  0.0000E+00  0.0000E+00  0.0000E+00  0.0000E+00
    -38.253  0.2330E-09  0.2331E-09  0.1574E-03  0.1575E-03  0.1574E-03  0.1575E-03  0.1574E-03  0.1575E-03  0.1756E-10  0.1757E-10  0.1756E-10  0.1757E-10  0.1415E-10  0.1415E-10  0.1756E-10  0.1757E-10  0.1415E-10  0.1415E-10
    -38.065  0.9768E-08  0.9773E-08  0.6601E-02  0.6606E-02  0.6601E-02  0.6606E-02  0.6601E-02  0.6606E-02  0.7364E-09  0.7368E-09  0.7364E-09  0.7368E-09  0.5933E-09  0.5933E-09  0.7364E-09  0.7368E-09  0.5933E-09  0.5933E-09
    -37.876  0.3940E-06  0.3942E-06  0.2681E+00  0.2683E+00  0.2681E+00  0.2683E+00  0.2681E+00  0.2683E+00  0.2989E-07  0.2990E-07  0.2989E-07  0.2990E-07  0.2404E-07  0.2404E-07  0.2989E-07  0.2990E-07  0.2404E-07  0.2404E-07
    -37.688  0.4493E-05  0.4493E-05  0.3391E+01  0.3392E+01  0.3391E+01  0.3392E+01  0.3391E+01  0.3392E+01  0.3714E-06  0.3714E-06  0.3714E-06  0.3714E-06  0.2936E-06  0.2934E-06  0.3714E-06  0.3714E-06  0.2936E-06  0.2934E-06
    -37.500  0.1761E-05  0.1760E-05  0.1563E+01  0.1562E+01  0.1563E+01  0.1562E+01  0.1563E+01  0.1562E+01  0.1645E-06  0.1644E-06  0.1645E-06  0.1644E-06  0.1283E-06  0.1282E-06  0.1645E-06  0.1644E-06  0.1283E-06  0.1282E-06
    -37.312  0.2239E-19  0.1869E-19  0.1143E-02  0.1143E-02  0.1143E-02  0.1143E-02  0.1143E-02  0.1143E-02  0.1016E-10  0.1014E-10  0.1016E-10  0.1014E-10  0.1666E-10  0.1662E-10  0.1016E-10  0.1014E-10  0.1666E-10  0.1662E-10
    -37.124  0.0000E+00  0.0000E+00  0.0000E+00  0.0000E+00  0.0000E+00  0.0000E+00  0.0000E+00  0.0000E+00  0.0000E+00  0.0000E+00  0.0000E+00  0.0000E+00  0.0000E+00  0.0000E+00  0.0000E+00  0.0000E+00  0.0000E+00  0.0000E+00
    -36.936  0.0000E+00  0.0000E+00  0.0000E+00  0.0000E+00  0.0000E+00  0.0000E+00  0.0000E+00  0.0000E+00  0.0000E+00  0.0000E+00  0.0000E+00  0.0000E+00  0.0000E+00  0.0000E+00  0.0000E+00  0.0000E+00  0.0000E+00  0.0000E+00
    -36.748  0.0000E+00  0.0000E+00  0.0000E+00  0.0000E+00  0.0000E+00  0.0000E+00  0.0000E+00  0.0000E+00  0.0000E+00  0.0000E+00  0.0000E+00  0.0000E+00  0.0000E+00  0.0000E+00  0.0000E+00  0.0000E+00  0.0000E+00  0.0000E+00
    -36.560  0.0000E+00  0.0000E+00  0.0000E+00  0.0000E+00  0.0000E+00  0.0000E+00  0.0000E+00  0.0000E+00  0.0000E+00  0.0000E+00  0.0000E+00  0.0000E+00  0.0000E+00  0.0000E+00  0.0000E+00  0.0000E+00  0.0000E+00  0.0000E+00
    -36.372  0.0000E+00  0.0000E+00  0.0000E+00  0.0000E+00  0.0000E+00  0.0000E+00  0.0000E+00  0.0000E+00  0.0000E+00  0.0000E+00  0.0000E+00  0.0000E+00  0.0000E+00  0.0000E+00  0.0000E+00  0.0000E+00  0.0000E+00  0.0000E+00
    -36.184  0.0000E+00  0.0000E+00  0.0000E+00  0.0000E+00  0.0000E+00  0.0000E+00  0.0000E+00  0.0000E+00  0.0000E+00  0.0000E+00  0.0000E+00  0.0000E+00  0.0000E+00  0.0000E+00  0.0000E+00  0.0000E+00  0.0000E+00  0.0000E+00
    -35.996  0.0000E+00  0.0000E+00  0.0000E+00  0.0000E+00  0.0000E+00  0.0000E+00  0.0000E+00  0.0000E+00  0.0000E+00  0.0000E+00  0.0000E+00  0.0000E+00  0.0000E+00  0.0000E+00  0.0000E+00  0.0000E+00  0.0000E+00  0.0000E+00
    -35.808  0.0000E+00  0.0000E+00  0.0000E+00  0.0000E+00  0.0000E+00  0.0000E+00  0.0000E+00  0.0000E+00  0.0000E+00  0.0000E+00  0.0000E+00  0.0000E+00  0.0000E+00  0.0000E+00  0.0000E+00  0.0000E+00  0.0000E+00  0.0000E+00
    -35.620  0.0000E+00  0.0000E+00  0.0000E+00  0.0000E+00  0.0000E+00  0.0000E+00  0.0000E+00  0.0000E+00  0.0000E+00  0.0000E+00  0.0000E+00  0.0000E+00  0.0000E+00  0.0000E+00  0.0000E+00  0.0000E+00  0.0000E+00  0.0000E+00
    -35.432  0.0000E+00  0.0000E+00  0.0000E+00  0.0000E+00  0.0000E+00  0.0000E+00  0.0000E+00  0.0000E+00  0.0000E+00  0.0000E+00  0.0000E+00  0.0000E+00  0.0000E+00  0.0000E+00  0.0000E+00  0.0000E+00  0.0000E+00  0.0000E+00
    -35.244  0.0000E+00  0.0000E+00  0.0000E+00  0.0000E+00  0.0000E+00  0.0000E+00  0.0000E+00  0.0000E+00  0.0000E+00  0.0000E+00  0.0000E+00  0.0000E+00  0.0000E+00  0.0000E+00  0.0000E+00  0.0000E+00  0.0000E+00  0.0000E+00
    -35.056  0.0000E+00  0.0000E+00  0.0000E+00  0.0000E+00  0.0000E+00  0.0000E+00  0.0000E+00  0.0000E+00  0.0000E+00  0.0000E+00  0.0000E+00  0.0000E+00  0.0000E+00  0.0000E+00  0.0000E+00  0.0000E+00  0.0000E+00  0.0000E+00
    -34.868  0.0000E+00  0.0000E+00  0.0000E+00  0.0000E+00  0.0000E+00  0.0000E+00  0.0000E+00  0.0000E+00  0.0000E+00  0.0000E+00  0.0000E+00  0.0000E+00  0.0000E+00  0.0000E+00  0.0000E+00  0.0000E+00  0.0000E+00  0.0000E+00
    -34.680  0.0000E+00  0.0000E+00  0.0000E+00  0.0000E+00  0.0000E+00  0.0000E+00  0.0000E+00  0.0000E+00  0.0000E+00  0.0000E+00  0.0000E+00  0.0000E+00  0.0000E+00  0.0000E+00  0.0000E+00  0.0000E+00  0.0000E+00  0.0000E+00
    -34.492  0.0000E+00  0.0000E+00  0.0000E+00  0.0000E+00  0.0000E+00  0.0000E+00  0.0000E+00  0.0000E+00  0.0000E+00  0.0000E+00  0.0000E+00  0.0000E+00  0.0000E+00  0.0000E+00  0.0000E+00  0.0000E+00  0.0000E+00  0.0000E+00
    -34.303  0.0000E+00  0.0000E+00  0.0000E+00  0.0000E+00  0.0000E+00  0.0000E+00  0.0000E+00  0.0000E+00  0.0000E+00  0.0000E+00  0.0000E+00  0.0000E+00  0.0000E+00  0.0000E+00  0.0000E+00  0.0000E+00  0.0000E+00  0.0000E+00
    -34.115  0.0000E+00  0.0000E+00  0.0000E+00  0.0000E+00  0.0000E+00  0.0000E+00  0.0000E+00  0.0000E+00  0.0000E+00  0.0000E+00  0.0000E+00  0.0000E+00  0.0000E+00  0.0000E+00  0.0000E+00  0.0000E+00  0.0000E+00  0.0000E+00
    -33.927  0.0000E+00  0.0000E+00  0.0000E+00  0.0000E+00  0.0000E+00  0.0000E+00  0.0000E+00  0.0000E+00  0.0000E+00  0.0000E+00  0.0000E+00  0.0000E+00  0.0000E+00  0.0000E+00  0.0000E+00  0.0000E+00  0.0000E+00  0.0000E+00
    -33.739  0.0000E+00  0.0000E+00  0.0000E+00  0.0000E+00  0.0000E+00  0.0000E+00  0.0000E+00  0.0000E+00  0.0000E+00  0.0000E+00  0.0000E+00  0.0000E+00  0.0000E+00  0.0000E+00  0.0000E+00  0.0000E+00  0.0000E+00  0.0000E+00
    -33.551  0.0000E+00  0.0000E+00  0.0000E+00  0.0000E+00  0.0000E+00  0.0000E+00  0.0000E+00  0.0000E+00  0.0000E+00  0.0000E+00  0.0000E+00  0.0000E+00  0.0000E+00  0.0000E+00  0.0000E+00  0.0000E+00  0.0000E+00  0.0000E+00
    -33.363  0.0000E+00  0.0000E+00  0.0000E+00  0.0000E+00  0.0000E+00  0.0000E+00  0.0000E+00  0.0000E+00  0.0000E+00  0.0000E+00  0.0000E+00  0.0000E+00  0.0000E+00  0.0000E+00  0.0000E+00  0.0000E+00  0.0000E+00  0.0000E+00
    -33.175  0.0000E+00  0.0000E+00  0.0000E+00  0.0000E+00  0.0000E+00  0.0000E+00  0.0000E+00  0.0000E+00  0.0000E+00  0.0000E+00  0.0000E+00  0.0000E+00  0.0000E+00  0.0000E+00  0.0000E+00  0.0000E+00  0.0000E+00  0.0000E+00
    -32.987  0.0000E+00  0.0000E+00  0.0000E+00  0.0000E+00  0.0000E+00  0.0000E+00  0.0000E+00  0.0000E+00  0.0000E+00  0.0000E+00  0.0000E+00  0.0000E+00  0.0000E+00  0.0000E+00  0.0000E+00  0.0000E+00  0.0000E+00  0.0000E+00
    -32.799  0.0000E+00  0.0000E+00  0.0000E+00  0.0000E+00  0.0000E+00  0.0000E+00  0.0000E+00  0.0000E+00  0.0000E+00  0.0000E+00  0.0000E+00  0.0000E+00  0.0000E+00  0.0000E+00  0.0000E+00  0.0000E+00  0.0000E+00  0.0000E+00
    -32.611  0.0000E+00  0.0000E+00  0.0000E+00  0.0000E+00  0.0000E+00  0.0000E+00  0.0000E+00  0.0000E+00  0.0000E+00  0.0000E+00  0.0000E+00  0.0000E+00  0.0000E+00  0.0000E+00  0.0000E+00  0.0000E+00  0.0000E+00  0.0000E+00
    -32.423  0.0000E+00  0.0000E+00  0.0000E+00  0.0000E+00  0.0000E+00  0.0000E+00  0.0000E+00  0.0000E+00  0.0000E+00  0.0000E+00  0.0000E+00  0.0000E+00  0.0000E+00  0.0000E+00  0.0000E+00  0.0000E+00  0.0000E+00  0.0000E+00
    -32.235  0.0000E+00  0.0000E+00  0.0000E+00  0.0000E+00  0.0000E+00  0.0000E+00  0.0000E+00  0.0000E+00  0.0000E+00  0.0000E+00  0.0000E+00  0.0000E+00  0.0000E+00  0.0000E+00  0.0000E+00  0.0000E+00  0.0000E+00  0.0000E+00
    -32.047  0.0000E+00  0.0000E+00  0.0000E+00  0.0000E+00  0.0000E+00  0.0000E+00  0.0000E+00  0.0000E+00  0.0000E+00  0.0000E+00  0.0000E+00  0.0000E+00  0.0000E+00  0.0000E+00  0.0000E+00  0.0000E+00  0.0000E+00  0.0000E+00
    -31.859  0.0000E+00  0.0000E+00  0.0000E+00  0.0000E+00  0.0000E+00  0.0000E+00  0.0000E+00  0.0000E+00  0.0000E+00  0.0000E+00  0.0000E+00  0.0000E+00  0.0000E+00  0.0000E+00  0.0000E+00  0.0000E+00  0.0000E+00  0.0000E+00
    -31.671  0.0000E+00  0.0000E+00  0.0000E+00  0.0000E+00  0.0000E+00  0.0000E+00  0.0000E+00  0.0000E+00  0.0000E+00  0.0000E+00  0.0000E+00  0.0000E+00  0.0000E+00  0.0000E+00  0.0000E+00  0.0000E+00  0.0000E+00  0.0000E+00
    -31.483  0.0000E+00  0.0000E+00  0.0000E+00  0.0000E+00  0.0000E+00  0.0000E+00  0.0000E+00  0.0000E+00  0.0000E+00  0.0000E+00  0.0000E+00  0.0000E+00  0.0000E+00  0.0000E+00  0.0000E+00  0.0000E+00  0.0000E+00  0.0000E+00
    -31.295  0.0000E+00  0.0000E+00  0.0000E+00  0.0000E+00  0.0000E+00  0.0000E+00  0.0000E+00  0.0000E+00  0.0000E+00  0.0000E+00  0.0000E+00  0.0000E+00  0.0000E+00  0.0000E+00  0.0000E+00  0.0000E+00  0.0000E+00  0.0000E+00
    -31.107  0.0000E+00  0.0000E+00  0.0000E+00  0.0000E+00  0.0000E+00  0.0000E+00  0.0000E+00  0.0000E+00  0.0000E+00  0.0000E+00  0.0000E+00  0.0000E+00  0.0000E+00  0.0000E+00  0.0000E+00  0.0000E+00  0.0000E+00  0.0000E+00
    -30.919  0.0000E+00  0.0000E+00  0.0000E+00  0.0000E+00  0.0000E+00  0.0000E+00  0.0000E+00  0.0000E+00  0.0000E+00  0.0000E+00  0.0000E+00  0.0000E+00  0.0000E+00  0.0000E+00  0.0000E+00  0.0000E+00  0.0000E+00  0.0000E+00