   8   8   1   0
  0.7228993E+01  0.3867134E-09  0.3867134E-09  0.3867134E-09  0.5000000E-15
  1.000000000000000E-004
  CAR 
 unknown system                          
     23.57208229    -36.24857161  301      6.02624831      1.00000000
    -36.249  0.0000E+00  0.0000E+00  0.0000E+00  0.0000E+00
    -36.049  0.0000E+00  0.0000E+00  0.0000E+00  0.0000E+00
    -35.850  0.0000E+00  0.0000E+00  0.0000E+00  0.0000E+00
    -35.650  0.0000E+00  0.0000E+00  0.0000E+00  0.0000E+00
    -35.451  0.0000E+00  0.0000E+00  0.0000E+00  0.0000E+00
    -35.252  0.0000E+00  0.0000E+00  0.0000E+00  0.0000E+00
    -35.052  0.0000E+00  0.0000E+00  0.0000E+00  0.0000E+00
    -34.853  0.0000E+00  0.0000E+00  0.0000E+00  0.0000E+00
    -34.653  0.0000E+00  0.0000E+00  0.0000E+00  0.0000E+00
    -34.454  0.0000E+00  0.0000E+00  0.0000E+00  0.0000E+00
    -34.255  0.0000E+00  0.0000E+00  0.0000E+00  0.0000E+00
    -34.055  0.1508E-03  0.1511E-03  0.3008E-04  0.3012E-04
    -33.856  0.1124E-01  0.1126E-01  0.2271E-02  0.2275E-02
    -33.656  0.5859E+00  0.5867E+00  0.1191E+00  0.1193E+00
    -33.457  0.1464E+02  0.1465E+02  0.3039E+01  0.3041E+01
    -33.258  0.3811E+02  0.3811E+02  0.1064E+02  0.1064E+02
    -33.058  0.6521E+01  0.6514E+01  0.1197E+02  0.1197E+02
    -32.859  0.0000E+00  0.0000E+00  0.1200E+02  0.1200E+02
    -32.659  0.0000E+00  0.0000E+00  0.1200E+02  0.1200E+02
    -32.460  0.0000E+00  0.0000E+00  0.1200E+02  0.1200E+02
    -32.261  0.0000E+00  0.0000E+00  0.1200E+02  0.1200E+02
    -32.061  0.0000E+00  0.0000E+00  0.1200E+02  0.1200E+02
    -31.862  0.0000E+00  0.0000E+00  0.1200E+02  0.1200E+02
    -31.662  0.0000E+00  0.0000E+00  0.1200E+02  0.1200E+02
    -31.463  0.0000E+00  0.0000E+00  0.1200E+02  0.1200E+02
    -31.264  0.0000E+00  0.0000E+00  0.1200E+02  0.1200E+02
    -31.064  0.0000E+00  0.0000E+00  0.1200E+02  0.1200E+02
    -30.865  0.0000E+00  0.0000E+00  0.1200E+02  0.1200E+02
    -30.665  0.0000E+00  0.0000E+00  0.1200E+02  0.1200E+02
    -30.466  0.0000E+00  0.0000E+00  0.1200E+02  0.1200E+02
    -30.267  0.0000E+00  0.0000E+00  0.1200E+02  0.1200E+02
    -30.067  0.0000E+00  0.0000E+00  0.1200E+02  0.1200E+02
    -29.868  0.0000E+00  0.0000E+00  0.1200E+02  0.1200E+02
    -29.668  0.0000E+00  0.0000E+00  0.1200E+02  0.1200E+02
    -29.469  0.0000E+00  0.0000E+00  0.1200E+02  0.1200E+02
    -29.269  0.0000E+00  0.0000E+00  0.1200E+02  0.1200E+02
    -29.070  0.0000E+00  0.0000E+00  0.1200E+02  0.1200E+02
    -28.871  0.0000E+00  0.0000E+00  0.1200E+02  0.1200E+02
    -28.671  0.0000E+00  0.0000E+00  0.1200E+02  0.1200E+02
    -28.472  0.0000E+00  0.0000E+00  0.1200E+02  0.1200E+02
    -28.272  0.0000E+00  0.0000E+00  0.1200E+02  0.1200E+02
    -28.073  0.0000E+00  0.0000E+00  0.1200E+02  0.1200E+02
    -27.874  0.0000E+00  0.0000E+00  0.1200E+02  0.1200E+02
    -27.674  0.0000E+00  0.0000E+00  0.1200E+02  0.1200E+02
    -27.475  0.0000E+00  0.0000E+00  0.1200E+02  0.1200E+02
    -27.275  0.0000E+00  0.0000E+00  0.1200E+02  0.1200E+02
    -27.076  0.0000E+00  0.0000E+00  0.1200E+02  0.1200E+02
    -26.877  0.0000E+00  0.0000E+00  0.1200E+02  0.1200E+02
    -26.677  0.0000E+00  0.0000E+00  0.1200E+02  0.1200E+02
    -26.478  0.0000E+00  0.0000E+00  0.1200E+02  0.1200E+02
    -26.278  0.0000E+00  0.0000E+00  0.1200E+02  0.1200E+02
    -26.079  0.0000E+00  0.0000E+00  0.1200E+02  0.1200E+02
    -25.880  0.0000E+00  0.0000E+00  0.1200E+02  0.1200E+02
    -25.680  0.0000E+00  0.0000E+00  0.1200E+02  0.1200E+02
    -25.481  0.0000E+00  0.0000E+00  0.1200E+02  0.1200E+02
    -25.281  0.0000E+00  0.0000E+00  0.1200E+02  0.1200E+02
    -25.082  0.0000E+00  0.0000E+00  0.1200E+02  0.1200E+02
    -24.883  0.0000E+00  0.0000E+00  0.1200E+02  0.1200E+02
    -24.683  0.0000E+00  0.0000E+00  0.1200E+02  0.1200E+02
    -24.484  0.0000E+00  0.0000E+00  0.1200E+02  0.1200E+02
    -24.284  0.0000E+00  0.0000E+00  0.1200E+02  0.1200E+02
    -24.085  0.0000E+00  0.0000E+00  0.1200E+02  0.1200E+02
    -23.886  0.0000E+00  0.0000E+00  0.1200E+02  0.1200E+02
    -23.686  0.0000E+00  0.0000E+00  0.1200E+02  0.1200E+02
    -23.487  0.0000E+00  0.0000E+00  0.1200E+02  0.1200E+02
    -23.287  0.0000E+00  0.0000E+00  0.1200E+02  0.1200E+02
    -23.088  0.0000E+00  0.0000E+00  0.1200E+02  0.1200E+02
    -22.889  0.0000E+00  0.0000E+00  0.1200E+02  0.1200E+02
    -22.689  0.0000E+00  0.0000E+00  0.1200E+02  0.1200E+02
    -22.490  0.0000E+00  0.0000E+00  0.1200E+02  0.1200E+02
    -22.290  0.0000E+00  0.0000E+00  0.1200E+02  0.1200E+02
    -22.091  0.0000E+00  0.0000E+00  0.1200E+02  0.1200E+02
    -21.892  0.0000E+00  0.0000E+00  0.1200E+02  0.1200E+02
    -21.692  0.0000E+00  0.0000E+00  0.1200E+02  0.1200E+02
    -21.493  0.0000E+00  0.0000E+00  0.1200E+02  0.1200E+02
    -21.293  0.0000E+00  0.0000E+00  0.1200E+02  0.1200E+02
    -21.094  0.0000E+00  0.0000E+00  0.1200E+02  0.1200E+02
    -20.895  0.0000E+00  0.0000E+00  0.1200E+02  0.1200E+02
    -20.695  0.0000E+00  0.0000E+00  0.1200E+02  0.1200E+02
    -20.496  0.0000E+00  0.0000E+00  0.1200E+02  0.1200E+02
    -20.296  0.0000E+00  0.0000E+00  0.1200E+02  0.1200E+02
    -20.097  0.0000E+00  0.0000E+00  0.1200E+02  0.1200E+02
    -19.898  0.0000E+00  0.0000E+00  0.1200E+02  0.1200E+02
    -19.698  0.0000E+00  0.0000E+00  0.1200E+02  0.1200E+02
    -19.499  0.0000E+00  0.0000E+00  0.1200E+02  0.1200E+02
    -19.299  0.0000E+00  0.0000E+00  0.1200E+02  0.1200E+02
    -19.100  0.0000E+00  0.0000E+00  0.1200E+02  0.1200E+02
    -18.901  0.0000E+00  0.0000E+00  0.1200E+02  0.1200E+02
    -18.701  0.0000E+00  0.0000E+00  0.1200E+02  0.1200E+02
    -18.502  0.0000E+00  0.0000E+00  0.1200E+02  0.1200E+02
    -18.302  0.0000E+00  0.0000E+00  0.1200E+02  0.1200E+02
    -18.103  0.0000E+00  0.0000E+00  0.1200E+02  0.1200E+02
    -17.904  0.0000E+00  0.0000E+00  0.1200E+02  0.1200E+02
    -17.704  0.0000E+00  0.0000E+00  0.1200E+02  0.1200E+02
    -17.505  0.0000E+00  0.0000E+00  0.1200E+02  0.1200E+02
    -17.305  0.0000E+00  0.0000E+00  0.1200E+02  0.1200E+02
    -17.106  0.0000E+00  0.0000E+00  0.1200E+02  0.1200E+02
    -16.907  0.0000E+00  0.0000E+00  0.1200E+02  0.1200E+02
    -16.707  0.0000E+00  0.0000E+00  0.1200E+02  0.1200E+02
    -16.508  0.0000E+00  0.0000E+00  0.1200E+02  0.1200E+02
    -16.308  0.0000E+00  0.0000E+00  0.1200E+02  0.1200E+02
    -16.109  0.0000E+00  0.0000E+00  0.1200E+02  0.1200E+02
    -15.910  0.0000E+00  0.0000E+00  0.1200E+02  0.1200E+02
    -15.710  0.0000E+00  0.0000E+00  0.1200E+02  0.1200E+02
    -15.511  0.0000E+00  0.0000E+00  0.1200E+02  0.1200E+02
    -15.311  0.0000E+00  0.0000E+00  0.1200E+02  0.1200E+02
    -15.112  0.0000E+00  0.0000E+00  0.1200E+02  0.1200E+02
    -14.913  0.0000E+00  0.0000E+00  0.1200E+02  0.1200E+02
    -14.713  0.0000E+00  0.0000E+00  0.1200E+02  0.1200E+02
    -14.514  0.0000E+00  0.0000E+00  0.1200E+02  0.1200E+02
    -14.314  0.4345E-05  0.4347E-05  0.1200E+02  0.1200E+02
    -14.115  0.2298E-03  0.2299E-03  0.1200E+02  0.1200E+02
    -13.916  0.1170E-01  0.1170E-01  0.1200E+02  0.1200E+02
    -13.716  0.1389E+00  0.1389E+00  0.1203E+02  0.1203E+02
    -13.517  0.2140E+00  0.2140E+00  0.1207E+02  0.1207E+02
    -13.317  0.4026E+00  0.4025E+00  0.1215E+02  0.1215E+02
    -13.118  0.4612E+00  0.4613E+00  0.1225E+02  0.1225E+02
    -12.919  0.5670E+00  0.5670E+00  0.1236E+02  0.1236E+02
    -12.719  0.7545E+00  0.7546E+00  0.1251E+02  0.1251E+02
    -12.520  0.8068E+00  0.8067E+00  0.1267E+02  0.1267E+02
    -12.320  0.9826E+00  0.9828E+00  0.1287E+02  0.1287E+02
    -12.121  0.1650E+01  0.1650E+01  0.1320E+02  0.1320E+02
    -11.922  0.1545E+01  0.1545E+01  0.1351E+02  0.1351E+02
    -11.722  0.3173E+01  0.3174E+01  0.1414E+02  0.1414E+02
    -11.523  0.4777E+01  0.4777E+01  0.1509E+02  0.1509E+02
    -11.323  0.4079E+01  0.4077E+01  0.1591E+02  0.1591E+02
    -11.124  0.4103E+00  0.4097E+00  0.1600E+02  0.1600E+02
    -10.924  0.0000E+00  0.0000E+00  0.1600E+02  0.1600E+02
    -10.725  0.0000E+00  0.0000E+00  0.1600E+02  0.1600E+02
    -10.526  0.0000E+00  0.0000E+00  0.1600E+02  0.1600E+02
    -10.326  0.0000E+00  0.0000E+00  0.1600E+02  0.1600E+02
    -10.127  0.0000E+00  0.0000E+00  0.1600E+02  0.1600E+02
     -9.927  0.0000E+00  0.0000E+00  0.1600E+02  0.1600E+02
     -9.728  0.0000E+00  0.0000E+00  0.1600E+02  0.1600E+02
     -9.529  0.0000E+00  0.0000E+00  0.1600E+02  0.1600E+02
     -9.329  0.0000E+00  0.0000E+00  0.1600E+02  0.1600E+02
     -9.130  0.0000E+00  0.0000E+00  0.1600E+02  0.1600E+02
     -8.930  0.0000E+00  0.0000E+00  0.1600E+02  0.1600E+02
     -8.731  0.0000E+00  0.0000E+00  0.1600E+02  0.1600E+02
     -8.532  0.0000E+00  0.0000E+00  0.1600E+02  0.1600E+02
     -8.332  0.0000E+00  0.0000E+00  0.1600E+02  0.1600E+02
     -8.133  0.0000E+00  0.0000E+00  0.1600E+02  0.1600E+02
     -7.933  0.0000E+00  0.0000E+00  0.1600E+02  0.1600E+02
     -7.734  0.0000E+00  0.0000E+00  0.1600E+02  0.1600E+02
     -7.535  0.0000E+00  0.0000E+00  0.1600E+02  0.1600E+02
     -7.335  0.0000E+00  0.0000E+00  0.1600E+02  0.1600E+02
     -7.136  0.0000E+00  0.0000E+00  0.1600E+02  0.1600E+02
     -6.936  0.0000E+00  0.0000E+00  0.1600E+02  0.1600E+02
     -6.737  0.0000E+00  0.0000E+00  0.1600E+02  0.1600E+02
     -6.538  0.0000E+00  0.0000E+00  0.1600E+02  0.1600E+02
     -6.338  0.0000E+00  0.0000E+00  0.1600E+02  0.1600E+02
     -6.139  0.0000E+00  0.0000E+00  0.1600E+02  0.1600E+02
     -5.939  0.0000E+00  0.0000E+00  0.1600E+02  0.1600E+02
     -5.740  0.0000E+00  0.0000E+00  0.1600E+02  0.1600E+02
     -5.541  0.0000E+00  0.0000E+00  0.1600E+02  0.1600E+02
     -5.341  0.0000E+00  0.0000E+00  0.1600E+02  0.1600E+02
     -5.142  0.0000E+00  0.0000E+00  0.1600E+02  0.1600E+02
     -4.942  0.0000E+00  0.0000E+00  0.1600E+02  0.1600E+02
     -4.743  0.0000E+00  0.0000E+00  0.1600E+02  0.1600E+02
     -4.544  0.0000E+00  0.0000E+00  0.1600E+02  0.1600E+02
     -4.344  0.0000E+00  0.0000E+00  0.1600E+02  0.1600E+02
     -4.145  0.0000E+00  0.0000E+00  0.1600E+02  0.1600E+02
     -3.945  0.0000E+00  0.0000E+00  0.1600E+02  0.1600E+02
     -3.746  0.0000E+00  0.0000E+00  0.1600E+02  0.1600E+02
     -3.547  0.0000E+00  0.0000E+00  0.1600E+02  0.1600E+02
     -3.347  0.0000E+00  0.0000E+00  0.1600E+02  0.1600E+02
     -3.148  0.0000E+00  0.0000E+00  0.1600E+02  0.1600E+02
     -2.948  0.0000E+00  0.0000E+00  0.1600E+02  0.1600E+02
     -2.749  0.0000E+00  0.0000E+00  0.1600E+02  0.1600E+02
     -2.550  0.0000E+00  0.0000E+00  0.1600E+02  0.1600E+02
     -2.350  0.0000E+00  0.0000E+00  0.1600E+02  0.1600E+02
     -2.151  0.0000E+00  0.0000E+00  0.1600E+02  0.1600E+02
     -1.951  0.0000E+00  0.0000E+00  0.1600E+02  0.1600E+02
     -1.752  0.0000E+00  0.0000E+00  0.1600E+02  0.1600E+02
     -1.553  0.0000E+00  0.0000E+00  0.1600E+02  0.1600E+02
     -1.353  0.1374E-04  0.1373E-04  0.1600E+02  0.1600E+02
     -1.154  0.7310E-03  0.7306E-03  0.1600E+02  0.1600E+02
     -0.954  0.3684E-01  0.3682E-01  0.1601E+02  0.1601E+02
     -0.755  0.4197E+00  0.4197E+00  0.1609E+02  0.1609E+02
     -0.556  0.3401E+00  0.3401E+00  0.1616E+02  0.1616E+02
     -0.356  0.8560E+00  0.8560E+00  0.1633E+02  0.1633E+02
     -0.157  0.1579E+01  0.1579E+01  0.1665E+02  0.1665E+02
      0.043  0.1507E+01  0.1507E+01  0.1695E+02  0.1695E+02
      0.242  0.3042E+01  0.3041E+01  0.1756E+02  0.1756E+02
      0.441  0.4129E+01  0.4129E+01  0.1838E+02  0.1838E+02
      0.641  0.1798E+01  0.1799E+01  0.1874E+02  0.1874E+02
      0.840  0.2063E+01  0.2063E+01  0.1915E+02  0.1915E+02
      1.040  0.7870E+00  0.7870E+00  0.1931E+02  0.1931E+02
      1.239  0.3263E+00  0.3263E+00  0.1938E+02  0.1938E+02
      1.438  0.1251E+01  0.1251E+01  0.1963E+02  0.1963E+02
      1.638  0.2307E+01  0.2307E+01  0.2009E+02  0.2009E+02
      1.837  0.9887E+00  0.9886E+00  0.2029E+02  0.2029E+02
      2.037  0.1094E+01  0.1094E+01  0.2051E+02  0.2051E+02
      2.236  0.1139E+01  0.1139E+01  0.2074E+02  0.2074E+02
      2.435  0.2425E+01  0.2425E+01  0.2122E+02  0.2122E+02
      2.635  0.2090E+01  0.2090E+01  0.2164E+02  0.2164E+02
      2.834  0.1489E+01  0.1489E+01  0.2194E+02  0.2194E+02
      3.034  0.1827E+01  0.1827E+01  0.2231E+02  0.2231E+02
      3.233  0.4429E+01  0.4430E+01  0.2319E+02  0.2319E+02
      3.432  0.4782E+01  0.4782E+01  0.2414E+02  0.2414E+02
      3.632  0.3674E+01  0.3674E+01  0.2488E+02  0.2488E+02
      3.831  0.5978E+01  0.5979E+01  0.2608E+02  0.2608E+02
      4.031  0.2795E+01  0.2795E+01  0.2664E+02  0.2664E+02
      4.230  0.3062E+01  0.3062E+01  0.2726E+02  0.2726E+02
      4.429  0.1581E+01  0.1581E+01  0.2757E+02  0.2757E+02
      4.629  0.1358E+01  0.1358E+01  0.2784E+02  0.2784E+02
      4.828  0.5758E+00  0.5756E+00  0.2796E+02  0.2796E+02
      5.028  0.1828E+00  0.1826E+00  0.2800E+02  0.2800E+02
      5.227  0.6924E-02  0.6915E-02  0.2800E+02  0.2800E+02
      5.426  0.0000E+00  0.0000E+00  0.2800E+02  0.2800E+02
      5.626  0.0000E+00  0.0000E+00  0.2800E+02  0.2800E+02
      5.825  0.0000E+00  0.0000E+00  0.2800E+02  0.2800E+02
      6.025  0.0000E+00  0.0000E+00  0.2800E+02  0.2800E+02
      6.224  0.0000E+00  0.0000E+00  0.2800E+02  0.2800E+02
      6.423  0.0000E+00  0.0000E+00  0.2800E+02  0.2800E+02
      6.623  0.0000E+00  0.0000E+00  0.2800E+02  0.2800E+02
      6.822  0.0000E+00  0.0000E+00  0.2800E+02  0.2800E+02
      7.022  0.0000E+00  0.0000E+00  0.2800E+02  0.2800E+02
      7.221  0.0000E+00  0.0000E+00  0.2800E+02  0.2800E+02
      7.421  0.0000E+00  0.0000E+00  0.2800E+02  0.2800E+02
      7.620  0.0000E+00  0.0000E+00  0.2800E+02  0.2800E+02
      7.819  0.0000E+00  0.0000E+00  0.2800E+02  0.2800E+02
      8.019  0.0000E+00  0.0000E+00  0.2800E+02  0.2800E+02
      8.218  0.0000E+00  0.0000E+00  0.2800E+02  0.2800E+02
      8.418  0.0000E+00  0.0000E+00  0.2800E+02  0.2800E+02
      8.617  0.0000E+00  0.0000E+00  0.2800E+02  0.2800E+02
      8.816  0.0000E+00  0.0000E+00  0.2800E+02  0.2800E+02
      9.016  0.0000E+00  0.0000E+00  0.2800E+02  0.2800E+02
      9.215  0.0000E+00  0.0000E+00  0.2800E+02  0.2800E+02
      9.415  0.0000E+00  0.0000E+00  0.2800E+02  0.2800E+02
      9.614  0.0000E+00  0.0000E+00  0.2800E+02  0.2800E+02
      9.813  0.0000E+00  0.0000E+00  0.2800E+02  0.2800E+02
     10.013  0.0000E+00  0.0000E+00  0.2800E+02  0.2800E+02
     10.212  0.0000E+00  0.0000E+00  0.2800E+02  0.2800E+02
     10.412  0.0000E+00  0.0000E+00  0.2800E+02  0.2800E+02
     10.611  0.0000E+00  0.0000E+00  0.2800E+02  0.2800E+02
     10.810  0.0000E+00  0.0000E+00  0.2800E+02  0.2800E+02
     11.010  0.0000E+00  0.0000E+00  0.2800E+02  0.2800E+02
     11.209  0.0000E+00  0.0000E+00  0.2800E+02  0.2800E+02
     11.409  0.0000E+00  0.0000E+00  0.2800E+02  0.2800E+02
     11.608  0.0000E+00  0.0000E+00  0.2800E+02  0.2800E+02
     11.807  0.0000E+00  0.0000E+00  0.2800E+02  0.2800E+02
     12.007  0.0000E+00  0.0000E+00  0.2800E+02  0.2800E+02
     12.206  0.0000E+00  0.0000E+00  0.2800E+02  0.2800E+02
     12.406  0.1998E-05  0.2003E-05  0.2800E+02  0.2800E+02
     12.605  0.1057E-03  0.1060E-03  0.2800E+02  0.2800E+02
     12.804  0.5531E-02  0.5545E-02  0.2800E+02  0.2800E+02
     13.004  0.1110E+00  0.1111E+00  0.2802E+02  0.2802E+02
     13.203  0.6705E-01  0.6695E-01  0.2804E+02  0.2804E+02
     13.403  0.2734E-04  0.2741E-04  0.2804E+02  0.2804E+02
     13.602  0.1444E-02  0.1448E-02  0.2804E+02  0.2804E+02
     13.801  0.6817E-01  0.6832E-01  0.2805E+02  0.2805E+02
     14.001  0.4236E+00  0.4236E+00  0.2814E+02  0.2814E+02
     14.200  0.6473E-01  0.6460E-01  0.2815E+02  0.2815E+02
     14.400  0.9810E-01  0.9827E-01  0.2817E+02  0.2817E+02
     14.599  0.9177E+00  0.9178E+00  0.2835E+02  0.2835E+02
     14.798  0.5009E+00  0.5008E+00  0.2845E+02  0.2845E+02
     14.998  0.6686E+00  0.6688E+00  0.2859E+02  0.2859E+02
     15.197  0.1451E+01  0.1451E+01  0.2888E+02  0.2888E+02
     15.397  0.6873E+00  0.6874E+00  0.2901E+02  0.2901E+02
     15.596  0.1506E+01  0.1506E+01  0.2931E+02  0.2931E+02
     15.795  0.2116E+01  0.2116E+01  0.2974E+02  0.2974E+02
     15.995  0.1311E+01  0.1311E+01  0.3000E+02  0.3000E+02
     16.194  0.2273E+01  0.2273E+01  0.3045E+02  0.3045E+02
     16.394  0.1258E+01  0.1258E+01  0.3071E+02  0.3071E+02
     16.593  0.1430E+01  0.1430E+01  0.3099E+02  0.3099E+02
     16.792  0.1001E+01  0.1001E+01  0.3119E+02  0.3119E+02
     16.992  0.1280E+01  0.1279E+01  0.3145E+02  0.3145E+02
     17.191  0.1075E+01  0.1075E+01  0.3166E+02  0.3166E+02
     17.391  0.1685E+01  0.1686E+01  0.3200E+02  0.3200E+02
     17.590  0.1622E+01  0.1621E+01  0.3233E+02  0.3233E+02
     17.789  0.6368E+00  0.6366E+00  0.3246E+02  0.3246E+02
     17.989  0.5010E+00  0.5004E+00  0.3256E+02  0.3256E+02
     18.188  0.1035E+01  0.1017E+01  0.3276E+02  0.3276E+02
     18.388  0.1906E+01  0.1921E+01  0.3314E+02  0.3314E+02
     18.587  0.2359E+01  0.2363E+01  0.3362E+02  0.3362E+02
     18.786  0.6975E+00  0.6972E+00  0.3376E+02  0.3376E+02
     18.986  0.1505E+01  0.1503E+01  0.3406E+02  0.3406E+02
     19.185  0.3626E+01  0.3542E+01  0.3478E+02  0.3476E+02
     19.385  0.1290E+01  0.1368E+01  0.3504E+02  0.3504E+02
     19.584  0.1322E+01  0.1247E+01  0.3531E+02  0.3529E+02
     19.783  0.1950E+01  0.1533E+01  0.3570E+02  0.3560E+02
     19.983  0.5340E+00  0.4943E+00  0.3581E+02  0.3570E+02
     20.182  0.7382E-01  0.3077E+00  0.3582E+02  0.3576E+02
     20.382  0.4950E+00  0.7977E+00  0.3592E+02  0.3592E+02
     20.581  0.1980E+00  0.2105E+00  0.3596E+02  0.3596E+02
     20.780  0.3448E-01  0.3456E-01  0.3597E+02  0.3597E+02
     20.980  0.1369E+00  0.1368E+00  0.3600E+02  0.3600E+02
     21.179  0.1333E-01  0.1330E-01  0.3600E+02  0.3600E+02
     21.379  0.0000E+00  0.0000E+00  0.3600E+02  0.3600E+02
     21.578  0.0000E+00  0.0000E+00  0.3600E+02  0.3600E+02
     21.777  0.0000E+00  0.0000E+00  0.3600E+02  0.3600E+02
     21.977  0.0000E+00  0.0000E+00  0.3600E+02  0.3600E+02
     22.176  0.0000E+00  0.0000E+00  0.3600E+02  0.3600E+02
     22.376  0.0000E+00  0.0000E+00  0.3600E+02  0.3600E+02
     22.575  0.0000E+00  0.0000E+00  0.3600E+02  0.3600E+02
     22.774  0.0000E+00  0.0000E+00  0.3600E+02  0.3600E+02
     22.974  0.0000E+00  0.0000E+00  0.3600E+02  0.3600E+02
     23.173  0.0000E+00  0.0000E+00  0.3600E+02  0.3600E+02
     23.373  0.0000E+00  0.0000E+00  0.3600E+02  0.3600E+02
     23.572  0.0000E+00  0.0000E+00  0.3600E+02  0.3600E+02
     23.57208229    -36.24857161  301      6.02624831      1.00000000
    -36.249  0.0000E+00  0.0000E+00  0.0000E+00  0.0000E+00  0.0000E+00  0.0000E+00  0.0000E+00  0.0000E+00  0.0000E+00  0.0000E+00  0.0000E+00  0.0000E+00  0.0000E+00  0.0000E+00  0.0000E+00  0.0000E+00  0.0000E+00  0.0000E+00
    -36.049  0.0000E+00  0.0000E+00  0.0000E+00  0.0000E+00  0.0000E+00  0.0000E+00  0.0000E+00  0.0000E+00  0.0000E+00  0.0000E+00  0.0000E+00  0.0000E+00  0.0000E+00  0.0000E+00  0.0000E+00  0.0000E+00  0.0000E+00  0.0000E+00
    -35.850  0.0000E+00  0.0000E+00  0.0000E+00  0.0000E+00  0.0000E+00  0.0000E+00  0.0000E+00  0.0000E+00  0.0000E+00  0.0000E+00  0.0000E+00  0.0000E+00  0.0000E+00  0.0000E+00  0.0000E+00  0.0000E+00  0.0000E+00  0.0000E+00
    -35.650  0.0000E+00  0.0000E+00  0.0000E+00  0.0000E+00  0.0000E+00  0.0000E+00  0.0000E+00  0.0000E+00  0.0000E+00  0.0000E+00  0.0000E+00  0.0000E+00  0.0000E+00  0.0000E+00  0.0000E+00  0.0000E+00  0.0000E+00  0.0000E+00
    -35.451  0.0000E+00  0.0000E+00  0.0000E+00  0.0000E+00  0.0000E+00  0.0000E+00  0.0000E+00  0.0000E+00  0.0000E+00  0.0000E+00  0.0000E+00  0.0000E+00  0.0000E+00  0.0000E+00  0.0000E+00  0.0000E+00  0.0000E+00  0.0000E+00
    -35.252  0.0000E+00  0.0000E+00  0.0000E+00  0.0000E+00  0.0000E+00  0.0000E+00  0.0000E+00  0.0000E+00  0.0000E+00  0.0000E+00  0.0000E+00  0.0000E+00  0.0000E+00  0.0000E+00  0.0000E+00  0.0000E+00  0.0000E+00  0.0000E+00
    -35.052  0.0000E+00  0.0000E+00  0.0000E+00  0.0000E+00  0.0000E+00  0.0000E+00  0.0000E+00  0.0000E+00  0.0000E+00  0.0000E+00  0.0000E+00  0.0000E+00  0.0000E+00  0.0000E+00  0.0000E+00  0.0000E+00  0.0000E+00  0.0000E+00
    -34.853  0.0000E+00  0.0000E+00  0.0000E+00  0.0000E+00  0.0000E+00  0.0000E+00  0.0000E+00  0.0000E+00  0.0000E+00  0.0000E+00  0.0000E+00  0.0000E+00  0.0000E+00  0.0000E+00  0.0000E+00  0.0000E+00  0.0000E+00  0.0000E+00
    -34.653  0.0000E+00  0.0000E+00  0.0000E+00  0.0000E+00  0.0000E+00  0.0000E+00  0.0000E+00  0.0000E+00  0.0000E+00  0.0000E+00  0.0000E+00  0.0000E+00  0.0000E+00  0.0000E+00  0.0000E+00  0.0000E+00  0.0000E+00  0.0000E+00
    -34.454  0.0000E+00  0.0000E+00  0.0000E+00  0.0000E+00  0.0000E+00  0.0000E+00  0.0000E+00  0.0000E+00  0.0000E+00  0.0000E+00  0.0000E+00  0.0000E+00  0.0000E+00  0.0000E+00  0.0000E+00  0.0000E+00  0.0000E+00  0.0000E+00
    -34.255  0.0000E+00  0.0000E+00  0.0000E+00  0.0000E+00  0.0000E+00  0.0000E+00  0.0000E+00  0.0000E+00  0.0000E+00  0.0000E+00  0.0000E+00  0.0000E+00  0.0000E+00  0.0000E+00  0.0000E+00  0.0000E+00  0.0000E+00  0.0000E+00
    -34.055  0.6158E-09  0.6164E-09  0.1239E-04  0.1240E-04  0.1239E-04  0.1240E-04  0.1239E-04  0.1240E-04  0.2970E-10  0.2974E-10  0.2970E-10  0.2974E-10  0.5368E-10  0.5375E-10  0.2970E-10  0.2974E-10  0.5368E-10  0.5375E-10
    -33.856  0.5151E-07  0.5156E-07  0.9245E-03  0.9257E-03  0.9245E-03  0.9257E-03  0.9245E-03  0.9257E-03  0.2603E-08  0.2606E-08  0.2603E-08  0.2606E-08  0.3601E-08  0.3606E-08  0.2603E-08  0.2606E-08  0.3601E-08  0.3606E-08
    -33.656  0.2693E-05  0.2696E-05  0.4819E-01  0.4825E-01  0.4819E-01  0.4825E-01  0.4819E-01  0.4825E-01  0.1363E-06  0.1364E-06  0.1363E-06  0.1364E-06  0.1880E-06  0.1883E-06  0.1363E-06  0.1364E-06  0.1880E-06  0.1883E-06
    -33.457  0.6829E-04  0.6831E-04  0.1206E+01  0.1207E+01  0.1206E+01  0.1207E+01  0.1206E+01  0.1207E+01  0.3827E-05  0.3830E-05  0.3827E-05  0.3830E-05  0.4513E-05  0.4516E-05  0.3827E-05  0.3830E-05  0.4513E-05  0.4516E-05
    -33.258  0.9704E-04  0.9696E-04  0.3151E+01  0.3151E+01  0.3151E+01  0.3151E+01  0.3151E+01  0.3151E+01  0.9752E-05  0.9751E-05  0.9752E-05  0.9751E-05  0.8896E-05  0.8895E-05  0.9752E-05  0.9751E-05  0.8896E-05  0.8895E-05
    -33.058  0.7033E-05  0.7021E-05  0.5402E+00  0.5396E+00  0.5402E+00  0.5396E+00  0.5402E+00  0.5396E+00  0.1259E-05  0.1257E-05  0.1259E-05  0.1257E-05  0.1103E-05  0.1102E-05  0.1259E-05  0.1257E-05  0.1103E-05  0.1102E-05
    -32.859  0.0000E+00  0.0000E+00  0.0000E+00  0.0000E+00  0.0000E+00  0.0000E+00  0.0000E+00  0.0000E+00  0.0000E+00  0.0000E+00  0.0000E+00  0.0000E+00  0.0000E+00  0.0000E+00  0.0000E+00  0.0000E+00  0.0000E+00  0.0000E+00
    -32.659  0.0000E+00  0.0000E+00  0.0000E+00  0.0000E+00  0.0000E+00  0.0000E+00  0.0000E+00  0.0000E+00  0.0000E+00  0.0000E+00  0.0000E+00  0.0000E+00  0.0000E+00  0.0000E+00  0.0000E+00  0.0000E+00  0.0000E+00  0.0000E+00
    -32.460  0.0000E+00  0.0000E+00  0.0000E+00  0.0000E+00  0.0000E+00  0.0000E+00  0.0000E+00  0.0000E+00  0.0000E+00  0.0000E+00  0.0000E+00  0.0000E+00  0.0000E+00  0.0000E+00  0.0000E+00  0.0000E+00  0.0000E+00  0.0000E+00
    -32.261  0.0000E+00  0.0000E+00  0.0000E+00  0.0000E+00  0.0000E+00  0.0000E+00  0.0000E+00  0.0000E+00  0.0000E+00  0.0000E+00  0.0000E+00  0.0000E+00  0.0000E+00  0.0000E+00  0.0000E+00  0.0000E+00  0.0000E+00  0.0000E+00
    -32.061  0.0000E+00  0.0000E+00  0.0000E+00  0.0000E+00  0.0000E+00  0.0000E+00  0.0000E+00  0.0000E+00  0.0000E+00  0.0000E+00  0.0000E+00  0.0000E+00  0.0000E+00  0.0000E+00  0.0000E+00  0.0000E+00  0.0000E+00  0.0000E+00
    -31.862  0.0000E+00  0.0000E+00  0.0000E+00  0.0000E+00  0.0000E+00  0.0000E+00  0.0000E+00  0.0000E+00  0.0000E+00  0.0000E+00  0.0000E+00  0.0000E+00  0.0000E+00  0.0000E+00  0.0000E+00  0.0000E+00  0.0000E+00  0.0000E+00
    -31.662  0.0000E+00  0.0000E+00  0.0000E+00  0.0000E+00  0.0000E+00  0.0000E+00  0.0000E+00  0.0000E+00  0.0000E+00  0.0000E+00  0.0000E+00  0.0000E+00  0.0000E+00  0.0000E+00  0.0000E+00  0.0000E+00  0.0000E+00  0.0000E+00
    -31.463  0.0000E+00  0.0000E+00  0.0000E+00  0.0000E+00  0.0000E+00  0.0000E+00  0.0000E+00  0.0000E+00  0.0000E+00  0.0000E+00  0.0000E+00  0.0000E+00  0.0000E+00  0.0000E+00  0.0000E+00  0.0000E+00  0.0000E+00  0.0000E+00
    -31.264  0.0000E+00  0.0000E+00  0.0000E+00  0.0000E+00  0.0000E+00  0.0000E+00  0.0000E+00  0.0000E+00  0.0000E+00  0.0000E+00  0.0000E+00  0.0000E+00  0.0000E+00  0.0000E+00  0.0000E+00  0.0000E+00  0.0000E+00  0.0000E+00
    -31.064  0.0000E+00  0.0000E+00  0.0000E+00  0.0000E+00  0.0000E+00  0.0000E+00  0.0000E+00  0.0000E+00  0.0000E+00  0.0000E+00  0.0000E+00  0.0000E+00  0.0000E+00  0.0000E+00  0.0000E+00  0.0000E+00  0.0000E+00  0.0000E+00
    -30.865  0.0000E+00  0.0000E+00  0.0000E+00  0.0000E+00  0.0000E+00  0.0000E+00  0.0000E+00  0.0000E+00  0.0000E+00  0.0000E+00  0.0000E+00  0.0000E+00  0.0000E+00  0.0000E+00  0.0000E+00  0.0000E+00  0.0000E+00  0.0000E+00
    -30.665  0.0000E+00  0.0000E+00  0.0000E+00  0.0000E+00  0.0000E+00  0.0000E+00  0.0000E+00  0.0000E+00  0.0000E+00  0.0000E+00  0.0000E+00  0.0000E+00  0.0000E+00  0.0000E+00  0.0000E+00  0.0000E+00  0.0000E+00  0.0000E+00
    -30.466  0.0000E+00  0.0000E+00  0.0000E+00  0.0000E+00  0.0000E+00  0.0000E+00  0.0000E+00  0.0000E+00  0.0000E+00  0.0000E+00  0.0000E+00  0.0000E+00  0.0000E+00  0.0000E+00  0.0000E+00  0.0000E+00  0.0000E+00  0.0000E+00
    -30.267  0.0000E+00  0.0000E+00  0.0000E+00  0.0000E+00  0.0000E+00  0.0000E+00  0.0000E+00  0.0000E+00  0.0000E+00  0.0000E+00  0.0000E+00  0.0000E+00  0.0000E+00  0.0000E+00  0.0000E+00  0.0000E+00  0.0000E+00  0.0000E+00
    -30.067  0.0000E+00  0.0000E+00  0.0000E+00  0.0000E+00  0.0000E+00  0.0000E+00  0.0000E+00  0.0000E+00  0.0000E+00  0.0000E+00  0.0000E+00  0.0000E+00  0.0000E+00  0.0000E+00  0.0000E+00  0.0000E+00  0.0000E+00  0.0000E+00
    -29.868  0.0000E+00  0.0000E+00  0.0000E+00  0.0000E+00  0.0000E+00  0.0000E+00  0.0000E+00  0.0000E+00  0.0000E+00  0.0000E+00  0.0000E+00  0.0000E+00  0.0000E+00  0.0000E+00  0.0000E+00  0.0000E+00  0.0000E+00  0.0000E+00
    -29.668  0.0000E+00  0.0000E+00  0.0000E+00  0.0000E+00  0.0000E+00  0.0000E+00  0.0000E+00  0.0000E+00  0.0000E+00  0.0000E+00  0.0000E+00  0.0000E+00  0.0000E+00  0.0000E+00  0.0000E+00  0.0000E+00  0.0000E+00  0.0000E+00
    -29.469  0.0000E+00  0.0000E+00  0.0000E+00  0.0000E+00  0.0000E+00  0.0000E+00  0.0000E+00  0.0000E+00  0.0000E+00  0.0000E+00  0.0000E+00  0.0000E+00  0.0000E+00  0.0000E+00  0.0000E+00  0.0000E+00  0.0000E+00  0.0000E+00
    -29.269  0.0000E+00  0.0000E+00  0.0000E+00  0.0000E+00  0.0000E+00  0.0000E+00  0.0000E+00  0.0000E+00  0.0000E+00  0.0000E+00  0.0000E+00  0.0000E+00  0.0000E+00  0.0000E+00  0.0000E+00  0.0000E+00  0.0000E+00  0.0000E+00
    -29.070  0.0000E+00  0.0000E+00  0.0000E+00  0.0000E+00  0.0000E+00  0.0000E+00  0.0000E+00  0.0000E+00  0.0000E+00  0.0000E+00  0.0000E+00  0.0000E+00  0.0000E+00  0.0000E+00  0.0000E+00  0.0000E+00  0.0000E+00  0.0000E+00
    -28.871  0.0000E+00  0.0000E+00  0.0000E+00  0.0000E+00  0.0000E+00  0.0000E+00  0.0000E+00  0.0000E+00  0.0000E+00  0.0000E+00  0.0000E+00  0.0000E+00  0.0000E+00  0.0000E+00  0.0000E+00  0.0000E+00  0.0000E+00  0.0000E+00
    -28.671  0.0000E+00  0.0000E+00  0.0000E+00  0.0000E+00  0.0000E+00  0.0000E+00  0.0000E+00  0.0000E+00  0.0000E+00  0.0000E+00  0.0000E+00  0.0000E+00  0.0000E+00  0.0000E+00  0.0000E+00  0.0000E+00  0.0000E+00  0.0000E+00
    -28.472  0.0000E+00  0.0000E+00  0.0000E+00  0.0000E+00  0.0000E+00  0.0000E+00  0.0000E+00  0.0000E+00  0.0000E+00  0.0000E+00  0.0000E+00  0.0000E+00  0.0000E+00  0.0000E+00  0.0000E+00  0.0000E+00  0.0000E+00  0.0000E+00
    -28.272  0.0000E+00  0.0000E+00  0.0000E+00  0.0000E+00  0.0000E+00  0.0000E+00  0.0000E+00  0.0000E+00  0.0000E+00  0.0000E+00  0.0000E+00  0.0000E+00  0.0000E+00  0.0000E+00  0.0000E+00  0.0000E+00  0.0000E+00  0.0000E+00
    -28.073  0.0000E+00  0.0000E+00  0.0000E+00  0.0000E+00  0.0000E+00  0.0000E+00  0.0000E+00  0.0000E+00  0.0000E+00  0.0000E+00  0.0000E+00  0.0000E+00  0.0000E+00  0.0000E+00  0.0000E+00  0.0000E+00  0.0000E+00  0.0000E+00
    -27.874  0.0000E+00  0.0000E+00  0.0000E+00  0.0000E+00  0.0000E+00  0.0000E+00  0.0000E+00  0.0000E+00  0.0000E+00  0.0000E+00  0.0000E+00  0.0000E+00  0.0000E+00  0.0000E+00  0.0000E+00  0.0000E+00  0.0000E+00  0.0000E+00
    -27.674  0.0000E+00  0.0000E+00  0.0000E+00  0.0000E+00  0.0000E+00  0.0000E+00  0.0000E+00  0.0000E+00  0.0000E+00  0.0000E+00  0.0000E+00  0.0000E+00  0.0000E+00  0.0000E+00  0.0000E+00  0.0000E+00  0.0000E+00  0.0000E+00
    -27.475  0.0000E+00  0.0000E+00  0.0000E+00  0.0000E+00  0.0000E+00  0.0000E+00  0.0000E+00  0.0000E+00  0.0000E+00  0.0000E+00  0.0000E+00  0.0000E+00  0.0000E+00  0.0000E+00  0.0000E+00  0.0000E+00  0.0000E+00  0.0000E+00
    -27.275  0.0000E+00  0.0000E+00  0.0000E+00  0.0000E+00  0.0000E+00  0.0000E+00  0.0000E+00  0.0000E+00  0.0000E+00  0.0000E+00  0.0000E+00  0.0000E+00  0.0000E+00  0.0000E+00  0.0000E+00  0.0000E+00  0.0000E+00  0.0000E+00
    -27.076  0.0000E+00  0.0000E+00  0.0000E+00  0.0000E+00  0.0000E+00  0.0000E+00  0.0000E+00  0.0000E+00  0.0000E+00  0.0000E+00  0.0000E+00  0.0000E+00  0.0000E+00  0.0000E+00  0.0000E+00  0.0000E+00  0.0000E+00  0.0000E+00
    -26.877  0.0000E+00  0.0000E+00  0.0000E+00  0.0000E+00  0.0000E+00  0.0000E+00  0.0000E+00  0.0000E+00  0.0000E+00  0.0000E+00  0.0000E+00  0.0000E+00  0.0000E+00  0.0000E+00  0.0000E+00  0.0000E+00  0.0000E+00  0.0000E+00
    -26.677  0.0000E+00  0.0000E+00  0.0000E+00  0.0000E+00  0.0000E+00  0.0000E+00  0.0000E+00  0.0000E+00  0.0000E+00  0.0000E+00  0.0000E+00  0.0000E+00  0.0000E+00  0.0000E+00  0.0000E+00  0.0000E+00  0.0000E+00  0.0000E+00
    -26.478  0.0000E+00  0.0000E+00  0.0000E+00  0.0000E+00  0.0000E+00  0.0000E+00  0.0000E+00  0.0000E+00  0.0000E+00  0.0000E+00  0.0000E+00  0.0000E+00  0.0000E+00  0.0000E+00  0.0000E+00  0.0000E+00  0.0000E+00  0.0000E+00
    -26.278  0.0000E+00  0.0000E+00  0.0000E+00  0.0000E+00  0.0000E+00  0.0000E+00  0.0000E+00  0.0000E+00  0.0000E+00  0.0000E+00  0.0000E+00  0.0000E+00  0.0000E+00  0.0000E+00  0.0000E+00  0.0000E+00  0.0000E+00  0.0000E+00