   8   8   1   0
  0.1276826E+02  0.4674558E-09  0.4674558E-09  0.4674558E-09  0.5000000E-15
  1.000000000000000E-004
  CAR 
 unknown system                          
     14.05215073    -41.91012948  301      2.11498830      1.00000000
    -41.910  0.0000E+00  0.0000E+00  0.0000E+00  0.0000E+00
    -41.724  0.0000E+00  0.0000E+00  0.0000E+00  0.0000E+00
    -41.537  0.0000E+00  0.0000E+00  0.0000E+00  0.0000E+00
    -41.351  0.0000E+00  0.0000E+00  0.0000E+00  0.0000E+00
    -41.164  0.0000E+00  0.0000E+00  0.0000E+00  0.0000E+00
    -40.977  0.0000E+00  0.0000E+00  0.0000E+00  0.0000E+00
    -40.791  0.0000E+00  0.0000E+00  0.0000E+00  0.0000E+00
    -40.604  0.0000E+00  0.0000E+00  0.0000E+00  0.0000E+00
    -40.418  0.0000E+00  0.0000E+00  0.0000E+00  0.0000E+00
    -40.231  0.0000E+00  0.0000E+00  0.0000E+00  0.0000E+00
    -40.045  0.0000E+00  0.0000E+00  0.0000E+00  0.0000E+00
    -39.858  0.2702E-02  0.2684E-02  0.5041E-03  0.5007E-03
    -39.672  0.1098E+00  0.1091E+00  0.2099E-01  0.2085E-01
    -39.485  0.4266E+01  0.4239E+01  0.8167E+00  0.8115E+00
    -39.299  0.4394E+02  0.4389E+02  0.9014E+01  0.8999E+01
    -39.112  0.1550E+02  0.1558E+02  0.1191E+02  0.1190E+02
    -38.925  0.0000E+00  0.0000E+00  0.1200E+02  0.1200E+02
    -38.739  0.0000E+00  0.0000E+00  0.1200E+02  0.1200E+02
    -38.552  0.0000E+00  0.0000E+00  0.1200E+02  0.1200E+02
    -38.366  0.0000E+00  0.0000E+00  0.1200E+02  0.1200E+02
    -38.179  0.0000E+00  0.0000E+00  0.1200E+02  0.1200E+02
    -37.993  0.0000E+00  0.0000E+00  0.1200E+02  0.1200E+02
    -37.806  0.0000E+00  0.0000E+00  0.1200E+02  0.1200E+02
    -37.620  0.0000E+00  0.0000E+00  0.1200E+02  0.1200E+02
    -37.433  0.0000E+00  0.0000E+00  0.1200E+02  0.1200E+02
    -37.247  0.0000E+00  0.0000E+00  0.1200E+02  0.1200E+02
    -37.060  0.0000E+00  0.0000E+00  0.1200E+02  0.1200E+02
    -36.874  0.0000E+00  0.0000E+00  0.1200E+02  0.1200E+02
    -36.687  0.0000E+00  0.0000E+00  0.1200E+02  0.1200E+02
    -36.500  0.0000E+00  0.0000E+00  0.1200E+02  0.1200E+02
    -36.314  0.0000E+00  0.0000E+00  0.1200E+02  0.1200E+02
    -36.127  0.0000E+00  0.0000E+00  0.1200E+02  0.1200E+02
    -35.941  0.0000E+00  0.0000E+00  0.1200E+02  0.1200E+02
    -35.754  0.0000E+00  0.0000E+00  0.1200E+02  0.1200E+02
    -35.568  0.0000E+00  0.0000E+00  0.1200E+02  0.1200E+02
    -35.381  0.0000E+00  0.0000E+00  0.1200E+02  0.1200E+02
    -35.195  0.0000E+00  0.0000E+00  0.1200E+02  0.1200E+02
    -35.008  0.0000E+00  0.0000E+00  0.1200E+02  0.1200E+02
    -34.822  0.0000E+00  0.0000E+00  0.1200E+02  0.1200E+02
    -34.635  0.0000E+00  0.0000E+00  0.1200E+02  0.1200E+02
    -34.448  0.0000E+00  0.0000E+00  0.1200E+02  0.1200E+02
    -34.262  0.0000E+00  0.0000E+00  0.1200E+02  0.1200E+02
    -34.075  0.0000E+00  0.0000E+00  0.1200E+02  0.1200E+02
    -33.889  0.0000E+00  0.0000E+00  0.1200E+02  0.1200E+02
    -33.702  0.0000E+00  0.0000E+00  0.1200E+02  0.1200E+02
    -33.516  0.0000E+00  0.0000E+00  0.1200E+02  0.1200E+02
    -33.329  0.0000E+00  0.0000E+00  0.1200E+02  0.1200E+02
    -33.143  0.0000E+00  0.0000E+00  0.1200E+02  0.1200E+02
    -32.956  0.0000E+00  0.0000E+00  0.1200E+02  0.1200E+02
    -32.770  0.0000E+00  0.0000E+00  0.1200E+02  0.1200E+02
    -32.583  0.0000E+00  0.0000E+00  0.1200E+02  0.1200E+02
    -32.397  0.0000E+00  0.0000E+00  0.1200E+02  0.1200E+02
    -32.210  0.0000E+00  0.0000E+00  0.1200E+02  0.1200E+02
    -32.023  0.0000E+00  0.0000E+00  0.1200E+02  0.1200E+02
    -31.837  0.0000E+00  0.0000E+00  0.1200E+02  0.1200E+02
    -31.650  0.0000E+00  0.0000E+00  0.1200E+02  0.1200E+02
    -31.464  0.0000E+00  0.0000E+00  0.1200E+02  0.1200E+02
    -31.277  0.0000E+00  0.0000E+00  0.1200E+02  0.1200E+02
    -31.091  0.0000E+00  0.0000E+00  0.1200E+02  0.1200E+02
    -30.904  0.0000E+00  0.0000E+00  0.1200E+02  0.1200E+02
    -30.718  0.0000E+00  0.0000E+00  0.1200E+02  0.1200E+02
    -30.531  0.0000E+00  0.0000E+00  0.1200E+02  0.1200E+02
    -30.345  0.0000E+00  0.0000E+00  0.1200E+02  0.1200E+02
    -30.158  0.0000E+00  0.0000E+00  0.1200E+02  0.1200E+02
    -29.972  0.0000E+00  0.0000E+00  0.1200E+02  0.1200E+02
    -29.785  0.0000E+00  0.0000E+00  0.1200E+02  0.1200E+02
    -29.598  0.0000E+00  0.0000E+00  0.1200E+02  0.1200E+02
    -29.412  0.0000E+00  0.0000E+00  0.1200E+02  0.1200E+02
    -29.225  0.0000E+00  0.0000E+00  0.1200E+02  0.1200E+02
    -29.039  0.0000E+00  0.0000E+00  0.1200E+02  0.1200E+02
    -28.852  0.0000E+00  0.0000E+00  0.1200E+02  0.1200E+02
    -28.666  0.0000E+00  0.0000E+00  0.1200E+02  0.1200E+02
    -28.479  0.0000E+00  0.0000E+00  0.1200E+02  0.1200E+02
    -28.293  0.0000E+00  0.0000E+00  0.1200E+02  0.1200E+02
    -28.106  0.0000E+00  0.0000E+00  0.1200E+02  0.1200E+02
    -27.920  0.0000E+00  0.0000E+00  0.1200E+02  0.1200E+02
    -27.733  0.0000E+00  0.0000E+00  0.1200E+02  0.1200E+02
    -27.546  0.0000E+00  0.0000E+00  0.1200E+02  0.1200E+02
    -27.360  0.0000E+00  0.0000E+00  0.1200E+02  0.1200E+02
    -27.173  0.0000E+00  0.0000E+00  0.1200E+02  0.1200E+02
    -26.987  0.0000E+00  0.0000E+00  0.1200E+02  0.1200E+02
    -26.800  0.0000E+00  0.0000E+00  0.1200E+02  0.1200E+02
    -26.614  0.0000E+00  0.0000E+00  0.1200E+02  0.1200E+02
    -26.427  0.0000E+00  0.0000E+00  0.1200E+02  0.1200E+02
    -26.241  0.0000E+00  0.0000E+00  0.1200E+02  0.1200E+02
    -26.054  0.0000E+00  0.0000E+00  0.1200E+02  0.1200E+02
    -25.868  0.0000E+00  0.0000E+00  0.1200E+02  0.1200E+02
    -25.681  0.0000E+00  0.0000E+00  0.1200E+02  0.1200E+02
    -25.495  0.0000E+00  0.0000E+00  0.1200E+02  0.1200E+02
    -25.308  0.0000E+00  0.0000E+00  0.1200E+02  0.1200E+02
    -25.121  0.0000E+00  0.0000E+00  0.1200E+02  0.1200E+02
    -24.935  0.0000E+00  0.0000E+00  0.1200E+02  0.1200E+02
    -24.748  0.0000E+00  0.0000E+00  0.1200E+02  0.1200E+02
    -24.562  0.0000E+00  0.0000E+00  0.1200E+02  0.1200E+02
    -24.375  0.0000E+00  0.0000E+00  0.1200E+02  0.1200E+02
    -24.189  0.0000E+00  0.0000E+00  0.1200E+02  0.1200E+02
    -24.002  0.0000E+00  0.0000E+00  0.1200E+02  0.1200E+02
    -23.816  0.0000E+00  0.0000E+00  0.1200E+02  0.1200E+02
    -23.629  0.0000E+00  0.0000E+00  0.1200E+02  0.1200E+02
    -23.443  0.0000E+00  0.0000E+00  0.1200E+02  0.1200E+02
    -23.256  0.0000E+00  0.0000E+00  0.1200E+02  0.1200E+02
    -23.069  0.0000E+00  0.0000E+00  0.1200E+02  0.1200E+02
    -22.883  0.0000E+00  0.0000E+00  0.1200E+02  0.1200E+02
    -22.696  0.0000E+00  0.0000E+00  0.1200E+02  0.1200E+02
    -22.510  0.0000E+00  0.0000E+00  0.1200E+02  0.1200E+02
    -22.323  0.0000E+00  0.0000E+00  0.1200E+02  0.1200E+02
    -22.137  0.0000E+00  0.0000E+00  0.1200E+02  0.1200E+02
    -21.950  0.0000E+00  0.0000E+00  0.1200E+02  0.1200E+02
    -21.764  0.0000E+00  0.0000E+00  0.1200E+02  0.1200E+02
    -21.577  0.0000E+00  0.0000E+00  0.1200E+02  0.1200E+02
    -21.391  0.0000E+00  0.0000E+00  0.1200E+02  0.1200E+02
    -21.204  0.0000E+00  0.0000E+00  0.1200E+02  0.1200E+02
    -21.018  0.0000E+00  0.0000E+00  0.1200E+02  0.1200E+02
    -20.831  0.0000E+00  0.0000E+00  0.1200E+02  0.1200E+02
    -20.644  0.0000E+00  0.0000E+00  0.1200E+02  0.1200E+02
    -20.458  0.0000E+00  0.0000E+00  0.1200E+02  0.1200E+02
    -20.271  0.0000E+00  0.0000E+00  0.1200E+02  0.1200E+02
    -20.085  0.0000E+00  0.0000E+00  0.1200E+02  0.1200E+02
    -19.898  0.0000E+00  0.0000E+00  0.1200E+02  0.1200E+02
    -19.712  0.0000E+00  0.0000E+00  0.1200E+02  0.1200E+02
    -19.525  0.0000E+00  0.0000E+00  0.1200E+02  0.1200E+02
    -19.339  0.0000E+00  0.0000E+00  0.1200E+02  0.1200E+02
    -19.152  0.0000E+00  0.0000E+00  0.1200E+02  0.1200E+02
    -18.966  0.0000E+00  0.0000E+00  0.1200E+02  0.1200E+02
    -18.779  0.0000E+00  0.0000E+00  0.1200E+02  0.1200E+02
    -18.593  0.0000E+00  0.0000E+00  0.1200E+02  0.1200E+02
    -18.406  0.0000E+00  0.0000E+00  0.1200E+02  0.1200E+02
    -18.219  0.0000E+00  0.0000E+00  0.1200E+02  0.1200E+02
    -18.033  0.0000E+00  0.0000E+00  0.1200E+02  0.1200E+02
    -17.846  0.0000E+00  0.0000E+00  0.1200E+02  0.1200E+02
    -17.660  0.0000E+00  0.0000E+00  0.1200E+02  0.1200E+02
    -17.473  0.0000E+00  0.0000E+00  0.1200E+02  0.1200E+02
    -17.287  0.0000E+00  0.0000E+00  0.1200E+02  0.1200E+02
    -17.100  0.0000E+00  0.0000E+00  0.1200E+02  0.1200E+02
    -16.914  0.0000E+00  0.0000E+00  0.1200E+02  0.1200E+02
    -16.727  0.0000E+00  0.0000E+00  0.1200E+02  0.1200E+02
    -16.541  0.0000E+00  0.0000E+00  0.1200E+02  0.1200E+02
    -16.354  0.0000E+00  0.0000E+00  0.1200E+02  0.1200E+02
    -16.167  0.0000E+00  0.0000E+00  0.1200E+02  0.1200E+02
    -15.981  0.0000E+00  0.0000E+00  0.1200E+02  0.1200E+02
    -15.794  0.0000E+00  0.0000E+00  0.1200E+02  0.1200E+02
    -15.608  0.0000E+00  0.0000E+00  0.1200E+02  0.1200E+02
    -15.421  0.6386E-04  0.6487E-04  0.1200E+02  0.1200E+02
    -15.235  0.2735E-02  0.2778E-02  0.1200E+02  0.1200E+02
    -15.048  0.9016E-01  0.9131E-01  0.1202E+02  0.1202E+02
    -14.862  0.7203E+00  0.7242E+00  0.1215E+02  0.1215E+02
    -14.675  0.1741E+01  0.1747E+01  0.1248E+02  0.1248E+02
    -14.489  0.3564E+01  0.3579E+01  0.1314E+02  0.1315E+02
    -14.302  0.8226E+01  0.8251E+01  0.1468E+02  0.1469E+02
    -14.116  0.6549E+01  0.6508E+01  0.1590E+02  0.1591E+02
    -13.929  0.4815E+00  0.4655E+00  0.1600E+02  0.1600E+02
    -13.742  0.0000E+00  0.0000E+00  0.1600E+02  0.1600E+02
    -13.556  0.0000E+00  0.0000E+00  0.1600E+02  0.1600E+02
    -13.369  0.0000E+00  0.0000E+00  0.1600E+02  0.1600E+02
    -13.183  0.0000E+00  0.0000E+00  0.1600E+02  0.1600E+02
    -12.996  0.0000E+00  0.0000E+00  0.1600E+02  0.1600E+02
    -12.810  0.0000E+00  0.0000E+00  0.1600E+02  0.1600E+02
    -12.623  0.0000E+00  0.0000E+00  0.1600E+02  0.1600E+02
    -12.437  0.0000E+00  0.0000E+00  0.1600E+02  0.1600E+02
    -12.250  0.0000E+00  0.0000E+00  0.1600E+02  0.1600E+02
    -12.064  0.0000E+00  0.0000E+00  0.1600E+02  0.1600E+02
    -11.877  0.0000E+00  0.0000E+00  0.1600E+02  0.1600E+02
    -11.690  0.0000E+00  0.0000E+00  0.1600E+02  0.1600E+02
    -11.504  0.0000E+00  0.0000E+00  0.1600E+02  0.1600E+02
    -11.317  0.0000E+00  0.0000E+00  0.1600E+02  0.1600E+02
    -11.131  0.0000E+00  0.0000E+00  0.1600E+02  0.1600E+02
    -10.944  0.0000E+00  0.0000E+00  0.1600E+02  0.1600E+02
    -10.758  0.0000E+00  0.0000E+00  0.1600E+02  0.1600E+02
    -10.571  0.0000E+00  0.0000E+00  0.1600E+02  0.1600E+02
    -10.385  0.0000E+00  0.0000E+00  0.1600E+02  0.1600E+02
    -10.198  0.0000E+00  0.0000E+00  0.1600E+02  0.1600E+02
    -10.012  0.0000E+00  0.0000E+00  0.1600E+02  0.1600E+02
     -9.825  0.0000E+00  0.0000E+00  0.1600E+02  0.1600E+02
     -9.639  0.0000E+00  0.0000E+00  0.1600E+02  0.1600E+02
     -9.452  0.0000E+00  0.0000E+00  0.1600E+02  0.1600E+02
     -9.265  0.0000E+00  0.0000E+00  0.1600E+02  0.1600E+02
     -9.079  0.0000E+00  0.0000E+00  0.1600E+02  0.1600E+02
     -8.892  0.0000E+00  0.0000E+00  0.1600E+02  0.1600E+02
     -8.706  0.0000E+00  0.0000E+00  0.1600E+02  0.1600E+02
     -8.519  0.0000E+00  0.0000E+00  0.1600E+02  0.1600E+02
     -8.333  0.0000E+00  0.0000E+00  0.1600E+02  0.1600E+02
     -8.146  0.0000E+00  0.0000E+00  0.1600E+02  0.1600E+02
     -7.960  0.0000E+00  0.0000E+00  0.1600E+02  0.1600E+02
     -7.773  0.0000E+00  0.0000E+00  0.1600E+02  0.1600E+02
     -7.587  0.0000E+00  0.0000E+00  0.1600E+02  0.1600E+02
     -7.400  0.0000E+00  0.0000E+00  0.1600E+02  0.1600E+02
     -7.214  0.0000E+00  0.0000E+00  0.1600E+02  0.1600E+02
     -7.027  0.0000E+00  0.0000E+00  0.1600E+02  0.1600E+02
     -6.840  0.0000E+00  0.0000E+00  0.1600E+02  0.1600E+02
     -6.654  0.0000E+00  0.0000E+00  0.1600E+02  0.1600E+02
     -6.467  0.0000E+00  0.0000E+00  0.1600E+02  0.1600E+02
     -6.281  0.0000E+00  0.0000E+00  0.1600E+02  0.1600E+02
     -6.094  0.0000E+00  0.0000E+00  0.1600E+02  0.1600E+02
     -5.908  0.0000E+00  0.0000E+00  0.1600E+02  0.1600E+02
     -5.721  0.0000E+00  0.0000E+00  0.1600E+02  0.1600E+02
     -5.535  0.0000E+00  0.0000E+00  0.1600E+02  0.1600E+02
     -5.348  0.0000E+00  0.0000E+00  0.1600E+02  0.1600E+02
     -5.162  0.0000E+00  0.0000E+00  0.1600E+02  0.1600E+02
     -4.975  0.0000E+00  0.0000E+00  0.1600E+02  0.1600E+02
     -4.788  0.0000E+00  0.0000E+00  0.1600E+02  0.1600E+02
     -4.602  0.0000E+00  0.0000E+00  0.1600E+02  0.1600E+02
     -4.415  0.0000E+00  0.0000E+00  0.1600E+02  0.1600E+02
     -4.229  0.0000E+00  0.0000E+00  0.1600E+02  0.1600E+02
     -4.042  0.0000E+00  0.0000E+00  0.1600E+02  0.1600E+02
     -3.856  0.0000E+00  0.0000E+00  0.1600E+02  0.1600E+02
     -3.669  0.0000E+00  0.0000E+00  0.1600E+02  0.1600E+02
     -3.483  0.0000E+00  0.0000E+00  0.1600E+02  0.1600E+02
     -3.296  0.0000E+00  0.0000E+00  0.1600E+02  0.1600E+02
     -3.110  0.0000E+00  0.0000E+00  0.1600E+02  0.1600E+02
     -2.923  0.2665E-04  0.2682E-04  0.1600E+02  0.1600E+02
     -2.737  0.1107E-02  0.1114E-02  0.1600E+02  0.1600E+02
     -2.550  0.4337E-01  0.4364E-01  0.1601E+02  0.1601E+02
     -2.363  0.5330E+00  0.5341E+00  0.1611E+02  0.1611E+02
     -2.177  0.1142E+01  0.1144E+01  0.1632E+02  0.1632E+02
     -1.990  0.2385E+01  0.2388E+01  0.1677E+02  0.1677E+02
     -1.804  0.4340E+01  0.4347E+01  0.1758E+02  0.1758E+02
     -1.617  0.6041E+01  0.6038E+01  0.1870E+02  0.1871E+02
     -1.431  0.3017E+01  0.3010E+01  0.1927E+02  0.1927E+02
     -1.244  0.1459E+01  0.1458E+01  0.1955E+02  0.1955E+02
     -1.058  0.9070E+00  0.9093E+00  0.1972E+02  0.1972E+02
     -0.871  0.2650E+01  0.2652E+01  0.2022E+02  0.2022E+02
     -0.685  0.1929E+01  0.1930E+01  0.2058E+02  0.2058E+02
     -0.498  0.2007E+01  0.2009E+01  0.2095E+02  0.2096E+02
     -0.312  0.3239E+01  0.3244E+01  0.2156E+02  0.2156E+02
     -0.125  0.3750E+01  0.3752E+01  0.2226E+02  0.2227E+02
      0.062  0.5418E+01  0.5434E+01  0.2328E+02  0.2328E+02
      0.248  0.6690E+01  0.6687E+01  0.2453E+02  0.2453E+02
      0.435  0.7163E+01  0.7172E+01  0.2587E+02  0.2588E+02
      0.621  0.6523E+01  0.6513E+01  0.2709E+02  0.2709E+02
      0.808  0.3632E+01  0.3618E+01  0.2777E+02  0.2777E+02
      0.994  0.1120E+01  0.1110E+01  0.2799E+02  0.2799E+02
      1.181  0.6755E-01  0.6632E-01  0.2800E+02  0.2800E+02
      1.367  0.0000E+00  0.0000E+00  0.2800E+02  0.2800E+02
      1.554  0.0000E+00  0.0000E+00  0.2800E+02  0.2800E+02
      1.740  0.0000E+00  0.0000E+00  0.2800E+02  0.2800E+02
      1.927  0.0000E+00  0.0000E+00  0.2800E+02  0.2800E+02
      2.114  0.0000E+00  0.0000E+00  0.2800E+02  0.2800E+02
      2.300  0.0000E+00  0.0000E+00  0.2800E+02  0.2800E+02
      2.487  0.0000E+00  0.0000E+00  0.2800E+02  0.2800E+02
      2.673  0.0000E+00  0.0000E+00  0.2800E+02  0.2800E+02
      2.860  0.0000E+00  0.0000E+00  0.2800E+02  0.2800E+02
      3.046  0.0000E+00  0.0000E+00  0.2800E+02  0.2800E+02
      3.233  0.3866E-04  0.3843E-04  0.2800E+02  0.2800E+02
      3.419  0.1561E-02  0.1552E-02  0.2800E+02  0.2800E+02
      3.606  0.4866E-01  0.4844E-01  0.2801E+02  0.2801E+02
      3.792  0.1352E+00  0.1353E+00  0.2803E+02  0.2803E+02
      3.979  0.1279E-01  0.1286E-01  0.2804E+02  0.2804E+02
      4.165  0.2385E-03  0.2379E-03  0.2804E+02  0.2804E+02
      4.352  0.9783E-02  0.9756E-02  0.2804E+02  0.2804E+02
      4.539  0.2381E+00  0.2378E+00  0.2808E+02  0.2808E+02
      4.725  0.3282E+00  0.3286E+00  0.2814E+02  0.2814E+02
      4.912  0.2270E-01  0.2274E-01  0.2815E+02  0.2815E+02
      5.098  0.1253E+00  0.1250E+00  0.2817E+02  0.2817E+02
      5.285  0.4199E+00  0.4200E+00  0.2825E+02  0.2825E+02
      5.471  0.7678E-01  0.7679E-01  0.2826E+02  0.2826E+02
      5.658  0.2152E+00  0.2152E+00  0.2831E+02  0.2831E+02
      5.844  0.4608E+00  0.4608E+00  0.2839E+02  0.2839E+02
      6.031  0.1715E+00  0.1714E+00  0.2842E+02  0.2842E+02
      6.217  0.8736E+00  0.8731E+00  0.2859E+02  0.2859E+02
      6.404  0.6919E+00  0.6920E+00  0.2872E+02  0.2872E+02
      6.591  0.1324E+00  0.1328E+00  0.2874E+02  0.2874E+02
      6.777  0.3183E+00  0.3169E+00  0.2880E+02  0.2880E+02
      6.964  0.1286E+01  0.1287E+01  0.2904E+02  0.2904E+02
      7.150  0.4907E+00  0.4909E+00  0.2913E+02  0.2913E+02
      7.337  0.1476E+01  0.1474E+01  0.2941E+02  0.2941E+02
      7.523  0.1069E+01  0.1070E+01  0.2961E+02  0.2961E+02
      7.710  0.1006E+01  0.1007E+01  0.2980E+02  0.2980E+02
      7.896  0.1335E+01  0.1335E+01  0.3005E+02  0.3005E+02
      8.083  0.1268E+01  0.1274E+01  0.3029E+02  0.3029E+02
      8.269  0.1159E+01  0.1154E+01  0.3051E+02  0.3051E+02
      8.456  0.1128E+01  0.1125E+01  0.3072E+02  0.3072E+02
      8.642  0.1885E+01  0.1868E+01  0.3107E+02  0.3107E+02
      8.829  0.1086E+01  0.1104E+01  0.3127E+02  0.3127E+02
      9.016  0.1164E+01  0.1166E+01  0.3149E+02  0.3149E+02
      9.202  0.4218E+00  0.4230E+00  0.3157E+02  0.3157E+02
      9.389  0.9435E+00  0.9413E+00  0.3175E+02  0.3175E+02
      9.575  0.1192E+01  0.1164E+01  0.3197E+02  0.3196E+02
      9.762  0.8983E+00  0.8763E+00  0.3214E+02  0.3213E+02
      9.948  0.2254E+01  0.2412E+01  0.3256E+02  0.3258E+02
     10.135  0.3570E+01  0.3943E+01  0.3323E+02  0.3332E+02
     10.321  0.4343E+01  0.4082E+01  0.3404E+02  0.3408E+02
     10.508  0.2392E+01  0.2200E+01  0.3449E+02  0.3450E+02
     10.694  0.2684E+01  0.2880E+01  0.3500E+02  0.3504E+02
     10.881  0.2444E+01  0.2407E+01  0.3545E+02  0.3549E+02
     11.067  0.2435E+01  0.2270E+01  0.3591E+02  0.3592E+02
     11.254  0.2774E+00  0.2447E+00  0.3596E+02  0.3596E+02
     11.441  0.3944E-01  0.7028E-01  0.3597E+02  0.3598E+02
     11.627  0.1410E+00  0.1177E+00  0.3600E+02  0.3600E+02
     11.814  0.1647E-01  0.7664E-02  0.3600E+02  0.3600E+02
     12.000  0.0000E+00  0.0000E+00  0.3600E+02  0.3600E+02
     12.187  0.0000E+00  0.0000E+00  0.3600E+02  0.3600E+02
     12.373  0.0000E+00  0.0000E+00  0.3600E+02  0.3600E+02
     12.560  0.0000E+00  0.0000E+00  0.3600E+02  0.3600E+02
     12.746  0.0000E+00  0.0000E+00  0.3600E+02  0.3600E+02
     12.933  0.0000E+00  0.0000E+00  0.3600E+02  0.3600E+02
     13.119  0.0000E+00  0.0000E+00  0.3600E+02  0.3600E+02
     13.306  0.0000E+00  0.0000E+00  0.3600E+02  0.3600E+02
     13.493  0.0000E+00  0.0000E+00  0.3600E+02  0.3600E+02
     13.679  0.0000E+00  0.0000E+00  0.3600E+02  0.3600E+02
     13.866  0.0000E+00  0.0000E+00  0.3600E+02  0.3600E+02
     14.052  0.0000E+00  0.0000E+00  0.3600E+02  0.3600E+02
     14.05215073    -41.91012948  301      2.11498830      1.00000000
    -41.910  0.0000E+00  0.0000E+00  0.0000E+00  0.0000E+00  0.0000E+00  0.0000E+00  0.0000E+00  0.0000E+00  0.0000E+00  0.0000E+00  0.0000E+00  0.0000E+00  0.0000E+00  0.0000E+00  0.0000E+00  0.0000E+00  0.0000E+00  0.0000E+00
    -41.724  0.0000E+00  0.0000E+00  0.0000E+00  0.0000E+00  0.0000E+00  0.0000E+00  0.0000E+00  0.0000E+00  0.0000E+00  0.0000E+00  0.0000E+00  0.0000E+00  0.0000E+00  0.0000E+00  0.0000E+00  0.0000E+00  0.0000E+00  0.0000E+00
    -41.537  0.0000E+00  0.0000E+00  0.0000E+00  0.0000E+00  0.0000E+00  0.0000E+00  0.0000E+00  0.0000E+00  0.0000E+00  0.0000E+00  0.0000E+00  0.0000E+00  0.0000E+00  0.0000E+00  0.0000E+00  0.0000E+00  0.0000E+00  0.0000E+00
    -41.351  0.0000E+00  0.0000E+00  0.0000E+00  0.0000E+00  0.0000E+00  0.0000E+00  0.0000E+00  0.0000E+00  0.0000E+00  0.0000E+00  0.0000E+00  0.0000E+00  0.0000E+00  0.0000E+00  0.0000E+00  0.0000E+00  0.0000E+00  0.0000E+00
    -41.164  0.0000E+00  0.0000E+00  0.0000E+00  0.0000E+00  0.0000E+00  0.0000E+00  0.0000E+00  0.0000E+00  0.0000E+00  0.0000E+00  0.0000E+00  0.0000E+00  0.0000E+00  0.0000E+00  0.0000E+00  0.0000E+00  0.0000E+00  0.0000E+00
    -40.977  0.0000E+00  0.0000E+00  0.0000E+00  0.0000E+00  0.0000E+00  0.0000E+00  0.0000E+00  0.0000E+00  0.0000E+00  0.0000E+00  0.0000E+00  0.0000E+00  0.0000E+00  0.0000E+00  0.0000E+00  0.0000E+00  0.0000E+00  0.0000E+00
    -40.791  0.0000E+00  0.0000E+00  0.0000E+00  0.0000E+00  0.0000E+00  0.0000E+00  0.0000E+00  0.0000E+00  0.0000E+00  0.0000E+00  0.0000E+00  0.0000E+00  0.0000E+00  0.0000E+00  0.0000E+00  0.0000E+00  0.0000E+00  0.0000E+00
    -40.604  0.0000E+00  0.0000E+00  0.0000E+00  0.0000E+00  0.0000E+00  0.0000E+00  0.0000E+00  0.0000E+00  0.0000E+00  0.0000E+00  0.0000E+00  0.0000E+00  0.0000E+00  0.0000E+00  0.0000E+00  0.0000E+00  0.0000E+00  0.0000E+00
    -40.418  0.0000E+00  0.0000E+00  0.0000E+00  0.0000E+00  0.0000E+00  0.0000E+00  0.0000E+00  0.0000E+00  0.0000E+00  0.0000E+00  0.0000E+00  0.0000E+00  0.0000E+00  0.0000E+00  0.0000E+00  0.0000E+00  0.0000E+00  0.0000E+00
    -40.231  0.0000E+00  0.0000E+00  0.0000E+00  0.0000E+00  0.0000E+00  0.0000E+00  0.0000E+00  0.0000E+00  0.0000E+00  0.0000E+00  0.0000E+00  0.0000E+00  0.0000E+00  0.0000E+00  0.0000E+00  0.0000E+00  0.0000E+00  0.0000E+00
    -40.045  0.0000E+00  0.0000E+00  0.0000E+00  0.0000E+00  0.0000E+00  0.0000E+00  0.0000E+00  0.0000E+00  0.0000E+00  0.0000E+00  0.0000E+00  0.0000E+00  0.0000E+00  0.0000E+00  0.0000E+00  0.0000E+00  0.0000E+00  0.0000E+00
    -39.858  0.7260E-10  0.7219E-10  0.2238E-03  0.2223E-03  0.2238E-03  0.2223E-03  0.2238E-03  0.2223E-03  0.7832E-11  0.7799E-11  0.7832E-11  0.7799E-11  0.5202E-11  0.5177E-11  0.7832E-11  0.7799E-11  0.5202E-11  0.5177E-11
    -39.672  0.2950E-08  0.2934E-08  0.9096E-02  0.9035E-02  0.9096E-02  0.9035E-02  0.9096E-02  0.9035E-02  0.3183E-09  0.3170E-09  0.3183E-09  0.3170E-09  0.2114E-09  0.2104E-09  0.3183E-09  0.3170E-09  0.2114E-09  0.2104E-09
    -39.485  0.1140E-06  0.1135E-06  0.3533E+00  0.3511E+00  0.3533E+00  0.3511E+00  0.3533E+00  0.3511E+00  0.1235E-07  0.1231E-07  0.1235E-07  0.1231E-07  0.8212E-08  0.8176E-08  0.1235E-07  0.1231E-07  0.8212E-08  0.8176E-08
    -39.299  0.1112E-05  0.1112E-05  0.3640E+01  0.3635E+01  0.3640E+01  0.3635E+01  0.3640E+01  0.3635E+01  0.1262E-06  0.1263E-06  0.1262E-06  0.1263E-06  0.8452E-07  0.8459E-07  0.1262E-06  0.1263E-06  0.8452E-07  0.8459E-07
    -39.112  0.3648E-06  0.3671E-06  0.1284E+01  0.1290E+01  0.1284E+01  0.1290E+01  0.1284E+01  0.1290E+01  0.4386E-07  0.4420E-07  0.4386E-07  0.4420E-07  0.2971E-07  0.2992E-07  0.4386E-07  0.4420E-07  0.2971E-07  0.2992E-07
    -38.925  0.0000E+00  0.0000E+00  0.0000E+00  0.0000E+00  0.0000E+00  0.0000E+00  0.0000E+00  0.0000E+00  0.0000E+00  0.0000E+00  0.0000E+00  0.0000E+00  0.0000E+00  0.0000E+00  0.0000E+00  0.0000E+00  0.0000E+00  0.0000E+00
    -38.739  0.0000E+00  0.0000E+00  0.0000E+00  0.0000E+00  0.0000E+00  0.0000E+00  0.0000E+00  0.0000E+00  0.0000E+00  0.0000E+00  0.0000E+00  0.0000E+00  0.0000E+00  0.0000E+00  0.0000E+00  0.0000E+00  0.0000E+00  0.0000E+00
    -38.552  0.0000E+00  0.0000E+00  0.0000E+00  0.0000E+00  0.0000E+00  0.0000E+00  0.0000E+00  0.0000E+00  0.0000E+00  0.0000E+00  0.0000E+00  0.0000E+00  0.0000E+00  0.0000E+00  0.0000E+00  0.0000E+00  0.0000E+00  0.0000E+00
    -38.366  0.0000E+00  0.0000E+00  0.0000E+00  0.0000E+00  0.0000E+00  0.0000E+00  0.0000E+00  0.0000E+00  0.0000E+00  0.0000E+00  0.0000E+00  0.0000E+00  0.0000E+00  0.0000E+00  0.0000E+00  0.0000E+00  0.0000E+00  0.0000E+00
    -38.179  0.0000E+00  0.0000E+00  0.0000E+00  0.0000E+00  0.0000E+00  0.0000E+00  0.0000E+00  0.0000E+00  0.0000E+00  0.0000E+00  0.0000E+00  0.0000E+00  0.0000E+00  0.0000E+00  0.0000E+00  0.0000E+00  0.0000E+00  0.0000E+00
    -37.993  0.0000E+00  0.0000E+00  0.0000E+00  0.0000E+00  0.0000E+00  0.0000E+00  0.0000E+00  0.0000E+00  0.0000E+00  0.0000E+00  0.0000E+00  0.0000E+00  0.0000E+00  0.0000E+00  0.0000E+00  0.0000E+00  0.0000E+00  0.0000E+00
    -37.806  0.0000E+00  0.0000E+00  0.0000E+00  0.0000E+00  0.0000E+00  0.0000E+00  0.0000E+00  0.0000E+00  0.0000E+00  0.0000E+00  0.0000E+00  0.0000E+00  0.0000E+00  0.0000E+00  0.0000E+00  0.0000E+00  0.0000E+00  0.0000E+00
    -37.620  0.0000E+00  0.0000E+00  0.0000E+00  0.0000E+00  0.0000E+00  0.0000E+00  0.0000E+00  0.0000E+00  0.0000E+00  0.0000E+00  0.0000E+00  0.0000E+00  0.0000E+00  0.0000E+00  0.0000E+00  0.0000E+00  0.0000E+00  0.0000E+00
    -37.433  0.0000E+00  0.0000E+00  0.0000E+00  0.0000E+00  0.0000E+00  0.0000E+00  0.0000E+00  0.0000E+00  0.0000E+00  0.0000E+00  0.0000E+00  0.0000E+00  0.0000E+00  0.0000E+00  0.0000E+00  0.0000E+00  0.0000E+00  0.0000E+00
    -37.247  0.0000E+00  0.0000E+00  0.0000E+00  0.0000E+00  0.0000E+00  0.0000E+00  0.0000E+00  0.0000E+00  0.0000E+00  0.0000E+00  0.0000E+00  0.0000E+00  0.0000E+00  0.0000E+00  0.0000E+00  0.0000E+00  0.0000E+00  0.0000E+00
    -37.060  0.0000E+00  0.0000E+00  0.0000E+00  0.0000E+00  0.0000E+00  0.0000E+00  0.0000E+00  0.0000E+00  0.0000E+00  0.0000E+00  0.0000E+00  0.0000E+00  0.0000E+00  0.0000E+00  0.0000E+00  0.0000E+00  0.0000E+00  0.0000E+00
    -36.874  0.0000E+00  0.0000E+00  0.0000E+00  0.0000E+00  0.0000E+00  0.0000E+00  0.0000E+00  0.0000E+00  0.0000E+00  0.0000E+00  0.0000E+00  0.0000E+00  0.0000E+00  0.0000E+00  0.0000E+00  0.0000E+00  0.0000E+00  0.0000E+00
    -36.687  0.0000E+00  0.0000E+00  0.0000E+00  0.0000E+00  0.0000E+00  0.0000E+00  0.0000E+00  0.0000E+00  0.0000E+00  0.0000E+00  0.0000E+00  0.0000E+00  0.0000E+00  0.0000E+00  0.0000E+00  0.0000E+00  0.0000E+00  0.0000E+00
    -36.500  0.0000E+00  0.0000E+00  0.0000E+00  0.0000E+00  0.0000E+00  0.0000E+00  0.0000E+00  0.0000E+00  0.0000E+00  0.0000E+00  0.0000E+00  0.0000E+00  0.0000E+00  0.0000E+00  0.0000E+00  0.0000E+00  0.0000E+00  0.0000E+00
    -36.314  0.0000E+00  0.0000E+00  0.0000E+00  0.0000E+00  0.0000E+00  0.0000E+00  0.0000E+00  0.0000E+00  0.0000E+00  0.0000E+00  0.0000E+00  0.0000E+00  0.0000E+00  0.0000E+00  0.0000E+00  0.0000E+00  0.0000E+00  0.0000E+00
    -36.127  0.0000E+00  0.0000E+00  0.0000E+00  0.0000E+00  0.0000E+00  0.0000E+00  0.0000E+00  0.0000E+00  0.0000E+00  0.0000E+00  0.0000E+00  0.0000E+00  0.0000E+00  0.0000E+00  0.0000E+00  0.0000E+00  0.0000E+00  0.0000E+00
    -35.941  0.0000E+00  0.0000E+00  0.0000E+00  0.0000E+00  0.0000E+00  0.0000E+00  0.0000E+00  0.0000E+00  0.0000E+00  0.0000E+00  0.0000E+00  0.0000E+00  0.0000E+00  0.0000E+00  0.0000E+00  0.0000E+00  0.0000E+00  0.0000E+00
    -35.754  0.0000E+00  0.0000E+00  0.0000E+00  0.0000E+00  0.0000E+00  0.0000E+00  0.0000E+00  0.0000E+00  0.0000E+00  0.0000E+00  0.0000E+00  0.0000E+00  0.0000E+00  0.0000E+00  0.0000E+00  0.0000E+00  0.0000E+00  0.0000E+00
    -35.568  0.0000E+00  0.0000E+00  0.0000E+00  0.0000E+00  0.0000E+00  0.0000E+00  0.0000E+00  0.0000E+00  0.0000E+00  0.0000E+00  0.0000E+00  0.0000E+00  0.0000E+00  0.0000E+00  0.0000E+00  0.0000E+00  0.0000E+00  0.0000E+00
    -35.381  0.0000E+00  0.0000E+00  0.0000E+00  0.0000E+00  0.0000E+00  0.0000E+00  0.0000E+00  0.0000E+00  0.0000E+00  0.0000E+00  0.0000E+00  0.0000E+00  0.0000E+00  0.0000E+00  0.0000E+00  0.0000E+00  0.0000E+00  0.0000E+00
    -35.195  0.0000E+00  0.0000E+00  0.0000E+00  0.0000E+00  0.0000E+00  0.0000E+00  0.0000E+00  0.0000E+00  0.0000E+00  0.0000E+00  0.0000E+00  0.0000E+00  0.0000E+00  0.0000E+00  0.0000E+00  0.0000E+00  0.0000E+00  0.0000E+00
    -35.008  0.0000E+00  0.0000E+00  0.0000E+00  0.0000E+00  0.0000E+00  0.0000E+00  0.0000E+00  0.0000E+00  0.0000E+00  0.0000E+00  0.0000E+00  0.0000E+00  0.0000E+00  0.0000E+00  0.0000E+00  0.0000E+00  0.0000E+00  0.0000E+00
    -34.822  0.0000E+00  0.0000E+00  0.0000E+00  0.0000E+00  0.0000E+00  0.0000E+00  0.0000E+00  0.0000E+00  0.0000E+00  0.0000E+00  0.0000E+00  0.0000E+00  0.0000E+00  0.0000E+00  0.0000E+00  0.0000E+00  0.0000E+00  0.0000E+00
    -34.635  0.0000E+00  0.0000E+00  0.0000E+00  0.0000E+00  0.0000E+00  0.0000E+00  0.0000E+00  0.0000E+00  0.0000E+00  0.0000E+00  0.0000E+00  0.0000E+00  0.0000E+00  0.0000E+00  0.0000E+00  0.0000E+00  0.0000E+00  0.0000E+00
    -34.448  0.0000E+00  0.0000E+00  0.0000E+00  0.0000E+00  0.0000E+00  0.0000E+00  0.0000E+00  0.0000E+00  0.0000E+00  0.0000E+00  0.0000E+00  0.0000E+00  0.0000E+00  0.0000E+00  0.0000E+00  0.0000E+00  0.0000E+00  0.0000E+00
    -34.262  0.0000E+00  0.0000E+00  0.0000E+00  0.0000E+00  0.0000E+00  0.0000E+00  0.0000E+00  0.0000E+00  0.0000E+00  0.0000E+00  0.0000E+00  0.0000E+00  0.0000E+00  0.0000E+00  0.0000E+00  0.0000E+00  0.0000E+00  0.0000E+00
    -34.075  0.0000E+00  0.0000E+00  0.0000E+00  0.0000E+00  0.0000E+00  0.0000E+00  0.0000E+00  0.0000E+00  0.0000E+00  0.0000E+00  0.0000E+00  0.0000E+00  0.0000E+00  0.0000E+00  0.0000E+00  0.0000E+00  0.0000E+00  0.0000E+00
    -33.889  0.0000E+00  0.0000E+00  0.0000E+00  0.0000E+00  0.0000E+00  0.0000E+00  0.0000E+00  0.0000E+00  0.0000E+00  0.0000E+00  0.0000E+00  0.0000E+00  0.0000E+00  0.0000E+00  0.0000E+00  0.0000E+00  0.0000E+00  0.0000E+00
    -33.702  0.0000E+00  0.0000E+00  0.0000E+00  0.0000E+00  0.0000E+00  0.0000E+00  0.0000E+00  0.0000E+00  0.0000E+00  0.0000E+00  0.0000E+00  0.0000E+00  0.0000E+00  0.0000E+00  0.0000E+00  0.0000E+00  0.0000E+00  0.0000E+00
    -33.516  0.0000E+00  0.0000E+00  0.0000E+00  0.0000E+00  0.0000E+00  0.0000E+00  0.0000E+00  0.0000E+00  0.0000E+00  0.0000E+00  0.0000E+00  0.0000E+00  0.0000E+00  0.0000E+00  0.0000E+00  0.0000E+00  0.0000E+00  0.0000E+00
    -33.329  0.0000E+00  0.0000E+00  0.0000E+00  0.0000E+00  0.0000E+00  0.0000E+00  0.0000E+00  0.0000E+00  0.0000E+00  0.0000E+00  0.0000E+00  0.0000E+00  0.0000E+00  0.0000E+00  0.0000E+00  0.0000E+00  0.0000E+00  0.0000E+00
    -33.143  0.0000E+00  0.0000E+00  0.0000E+00  0.0000E+00  0.0000E+00  0.0000E+00  0.0000E+00  0.0000E+00  0.0000E+00  0.0000E+00  0.0000E+00  0.0000E+00  0.0000E+00  0.0000E+00  0.0000E+00  0.0000E+00  0.0000E+00  0.0000E+00
    -32.956  0.0000E+00  0.0000E+00  0.0000E+00  0.0000E+00  0.0000E+00  0.0000E+00  0.0000E+00  0.0000E+00  0.0000E+00  0.0000E+00  0.0000E+00  0.0000E+00  0.0000E+00  0.0000E+00  0.0000E+00  0.0000E+00  0.0000E+00  0.0000E+00
    -32.770  0.0000E+00  0.0000E+00  0.0000E+00  0.0000E+00  0.0000E+00  0.0000E+00  0.0000E+00  0.0000E+00  0.0000E+00  0.0000E+00  0.0000E+00  0.0000E+00  0.0000E+00  0.0000E+00  0.0000E+00  0.0000E+00  0.0000E+00  0.0000E+00
    -32.583  0.0000E+00  0.0000E+00  0.0000E+00  0.0000E+00  0.0000E+00  0.0000E+00  0.0000E+00  0.0000E+00  0.0000E+00  0.0000E+00  0.0000E+00  0.0000E+00  0.0000E+00  0.0000E+00  0.0000E+00  0.0000E+00  0.0000E+00  0.0000E+00