   8   8   1   0
  0.9592982E+01  0.4249598E-09  0.4249598E-09  0.4249598E-09  0.5000000E-15
  1.000000000000000E-004
  CAR 
 unknown system                          
     17.97388584    -39.16460577  301      3.69075092      1.00000000
    -39.165  0.0000E+00  0.0000E+00  0.0000E+00  0.0000E+00
    -38.974  0.0000E+00  0.0000E+00  0.0000E+00  0.0000E+00
    -38.784  0.0000E+00  0.0000E+00  0.0000E+00  0.0000E+00
    -38.593  0.0000E+00  0.0000E+00  0.0000E+00  0.0000E+00
    -38.403  0.0000E+00  0.0000E+00  0.0000E+00  0.0000E+00
    -38.212  0.0000E+00  0.0000E+00  0.0000E+00  0.0000E+00
    -38.022  0.0000E+00  0.0000E+00  0.0000E+00  0.0000E+00
    -37.831  0.0000E+00  0.0000E+00  0.0000E+00  0.0000E+00
    -37.641  0.0000E+00  0.0000E+00  0.0000E+00  0.0000E+00
    -37.450  0.0000E+00  0.0000E+00  0.0000E+00  0.0000E+00
    -37.260  0.0000E+00  0.0000E+00  0.0000E+00  0.0000E+00
    -37.070  0.1223E-02  0.1224E-02  0.2330E-03  0.2332E-03
    -36.879  0.5391E-01  0.5396E-01  0.1050E-01  0.1051E-01
    -36.689  0.2324E+01  0.2326E+01  0.4531E+00  0.4535E+00
    -36.498  0.3643E+02  0.3644E+02  0.7391E+01  0.7394E+01
    -36.308  0.2329E+02  0.2328E+02  0.1183E+02  0.1183E+02
    -36.117  0.5807E+00  0.5802E+00  0.1200E+02  0.1200E+02
    -35.927  0.0000E+00  0.0000E+00  0.1200E+02  0.1200E+02
    -35.736  0.0000E+00  0.0000E+00  0.1200E+02  0.1200E+02
    -35.546  0.0000E+00  0.0000E+00  0.1200E+02  0.1200E+02
    -35.355  0.0000E+00  0.0000E+00  0.1200E+02  0.1200E+02
    -35.165  0.0000E+00  0.0000E+00  0.1200E+02  0.1200E+02
    -34.974  0.0000E+00  0.0000E+00  0.1200E+02  0.1200E+02
    -34.784  0.0000E+00  0.0000E+00  0.1200E+02  0.1200E+02
    -34.594  0.0000E+00  0.0000E+00  0.1200E+02  0.1200E+02
    -34.403  0.0000E+00  0.0000E+00  0.1200E+02  0.1200E+02
    -34.213  0.0000E+00  0.0000E+00  0.1200E+02  0.1200E+02
    -34.022  0.0000E+00  0.0000E+00  0.1200E+02  0.1200E+02
    -33.832  0.0000E+00  0.0000E+00  0.1200E+02  0.1200E+02
    -33.641  0.0000E+00  0.0000E+00  0.1200E+02  0.1200E+02
    -33.451  0.0000E+00  0.0000E+00  0.1200E+02  0.1200E+02
    -33.260  0.0000E+00  0.0000E+00  0.1200E+02  0.1200E+02
    -33.070  0.0000E+00  0.0000E+00  0.1200E+02  0.1200E+02
    -32.879  0.0000E+00  0.0000E+00  0.1200E+02  0.1200E+02
    -32.689  0.0000E+00  0.0000E+00  0.1200E+02  0.1200E+02
    -32.498  0.0000E+00  0.0000E+00  0.1200E+02  0.1200E+02
    -32.308  0.0000E+00  0.0000E+00  0.1200E+02  0.1200E+02
    -32.118  0.0000E+00  0.0000E+00  0.1200E+02  0.1200E+02
    -31.927  0.0000E+00  0.0000E+00  0.1200E+02  0.1200E+02
    -31.737  0.0000E+00  0.0000E+00  0.1200E+02  0.1200E+02
    -31.546  0.0000E+00  0.0000E+00  0.1200E+02  0.1200E+02
    -31.356  0.0000E+00  0.0000E+00  0.1200E+02  0.1200E+02
    -31.165  0.0000E+00  0.0000E+00  0.1200E+02  0.1200E+02
    -30.975  0.0000E+00  0.0000E+00  0.1200E+02  0.1200E+02
    -30.784  0.0000E+00  0.0000E+00  0.1200E+02  0.1200E+02
    -30.594  0.0000E+00  0.0000E+00  0.1200E+02  0.1200E+02
    -30.403  0.0000E+00  0.0000E+00  0.1200E+02  0.1200E+02
    -30.213  0.0000E+00  0.0000E+00  0.1200E+02  0.1200E+02
    -30.022  0.0000E+00  0.0000E+00  0.1200E+02  0.1200E+02
    -29.832  0.0000E+00  0.0000E+00  0.1200E+02  0.1200E+02
    -29.642  0.0000E+00  0.0000E+00  0.1200E+02  0.1200E+02
    -29.451  0.0000E+00  0.0000E+00  0.1200E+02  0.1200E+02
    -29.261  0.0000E+00  0.0000E+00  0.1200E+02  0.1200E+02
    -29.070  0.0000E+00  0.0000E+00  0.1200E+02  0.1200E+02
    -28.880  0.0000E+00  0.0000E+00  0.1200E+02  0.1200E+02
    -28.689  0.0000E+00  0.0000E+00  0.1200E+02  0.1200E+02
    -28.499  0.0000E+00  0.0000E+00  0.1200E+02  0.1200E+02
    -28.308  0.0000E+00  0.0000E+00  0.1200E+02  0.1200E+02
    -28.118  0.0000E+00  0.0000E+00  0.1200E+02  0.1200E+02
    -27.927  0.0000E+00  0.0000E+00  0.1200E+02  0.1200E+02
    -27.737  0.0000E+00  0.0000E+00  0.1200E+02  0.1200E+02
    -27.546  0.0000E+00  0.0000E+00  0.1200E+02  0.1200E+02
    -27.356  0.0000E+00  0.0000E+00  0.1200E+02  0.1200E+02
    -27.166  0.0000E+00  0.0000E+00  0.1200E+02  0.1200E+02
    -26.975  0.0000E+00  0.0000E+00  0.1200E+02  0.1200E+02
    -26.785  0.0000E+00  0.0000E+00  0.1200E+02  0.1200E+02
    -26.594  0.0000E+00  0.0000E+00  0.1200E+02  0.1200E+02
    -26.404  0.0000E+00  0.0000E+00  0.1200E+02  0.1200E+02
    -26.213  0.0000E+00  0.0000E+00  0.1200E+02  0.1200E+02
    -26.023  0.0000E+00  0.0000E+00  0.1200E+02  0.1200E+02
    -25.832  0.0000E+00  0.0000E+00  0.1200E+02  0.1200E+02
    -25.642  0.0000E+00  0.0000E+00  0.1200E+02  0.1200E+02
    -25.451  0.0000E+00  0.0000E+00  0.1200E+02  0.1200E+02
    -25.261  0.0000E+00  0.0000E+00  0.1200E+02  0.1200E+02
    -25.070  0.0000E+00  0.0000E+00  0.1200E+02  0.1200E+02
    -24.880  0.0000E+00  0.0000E+00  0.1200E+02  0.1200E+02
    -24.690  0.0000E+00  0.0000E+00  0.1200E+02  0.1200E+02
    -24.499  0.0000E+00  0.0000E+00  0.1200E+02  0.1200E+02
    -24.309  0.0000E+00  0.0000E+00  0.1200E+02  0.1200E+02
    -24.118  0.0000E+00  0.0000E+00  0.1200E+02  0.1200E+02
    -23.928  0.0000E+00  0.0000E+00  0.1200E+02  0.1200E+02
    -23.737  0.0000E+00  0.0000E+00  0.1200E+02  0.1200E+02
    -23.547  0.0000E+00  0.0000E+00  0.1200E+02  0.1200E+02
    -23.356  0.0000E+00  0.0000E+00  0.1200E+02  0.1200E+02
    -23.166  0.0000E+00  0.0000E+00  0.1200E+02  0.1200E+02
    -22.975  0.0000E+00  0.0000E+00  0.1200E+02  0.1200E+02
    -22.785  0.0000E+00  0.0000E+00  0.1200E+02  0.1200E+02
    -22.594  0.0000E+00  0.0000E+00  0.1200E+02  0.1200E+02
    -22.404  0.0000E+00  0.0000E+00  0.1200E+02  0.1200E+02
    -22.214  0.0000E+00  0.0000E+00  0.1200E+02  0.1200E+02
    -22.023  0.0000E+00  0.0000E+00  0.1200E+02  0.1200E+02
    -21.833  0.0000E+00  0.0000E+00  0.1200E+02  0.1200E+02
    -21.642  0.0000E+00  0.0000E+00  0.1200E+02  0.1200E+02
    -21.452  0.0000E+00  0.0000E+00  0.1200E+02  0.1200E+02
    -21.261  0.0000E+00  0.0000E+00  0.1200E+02  0.1200E+02
    -21.071  0.0000E+00  0.0000E+00  0.1200E+02  0.1200E+02
    -20.880  0.0000E+00  0.0000E+00  0.1200E+02  0.1200E+02
    -20.690  0.0000E+00  0.0000E+00  0.1200E+02  0.1200E+02
    -20.499  0.0000E+00  0.0000E+00  0.1200E+02  0.1200E+02
    -20.309  0.0000E+00  0.0000E+00  0.1200E+02  0.1200E+02
    -20.118  0.0000E+00  0.0000E+00  0.1200E+02  0.1200E+02
    -19.928  0.0000E+00  0.0000E+00  0.1200E+02  0.1200E+02
    -19.738  0.0000E+00  0.0000E+00  0.1200E+02  0.1200E+02
    -19.547  0.0000E+00  0.0000E+00  0.1200E+02  0.1200E+02
    -19.357  0.0000E+00  0.0000E+00  0.1200E+02  0.1200E+02
    -19.166  0.0000E+00  0.0000E+00  0.1200E+02  0.1200E+02
    -18.976  0.0000E+00  0.0000E+00  0.1200E+02  0.1200E+02
    -18.785  0.0000E+00  0.0000E+00  0.1200E+02  0.1200E+02
    -18.595  0.0000E+00  0.0000E+00  0.1200E+02  0.1200E+02
    -18.404  0.0000E+00  0.0000E+00  0.1200E+02  0.1200E+02
    -18.214  0.0000E+00  0.0000E+00  0.1200E+02  0.1200E+02
    -18.023  0.0000E+00  0.0000E+00  0.1200E+02  0.1200E+02
    -17.833  0.0000E+00  0.0000E+00  0.1200E+02  0.1200E+02
    -17.642  0.0000E+00  0.0000E+00  0.1200E+02  0.1200E+02
    -17.452  0.0000E+00  0.0000E+00  0.1200E+02  0.1200E+02
    -17.262  0.0000E+00  0.0000E+00  0.1200E+02  0.1200E+02
    -17.071  0.0000E+00  0.0000E+00  0.1200E+02  0.1200E+02
    -16.881  0.0000E+00  0.0000E+00  0.1200E+02  0.1200E+02
    -16.690  0.0000E+00  0.0000E+00  0.1200E+02  0.1200E+02
    -16.500  0.0000E+00  0.0000E+00  0.1200E+02  0.1200E+02
    -16.309  0.0000E+00  0.0000E+00  0.1200E+02  0.1200E+02
    -16.119  0.0000E+00  0.0000E+00  0.1200E+02  0.1200E+02
    -15.928  0.0000E+00  0.0000E+00  0.1200E+02  0.1200E+02
    -15.738  0.0000E+00  0.0000E+00  0.1200E+02  0.1200E+02
    -15.547  0.0000E+00  0.0000E+00  0.1200E+02  0.1200E+02
    -15.357  0.0000E+00  0.0000E+00  0.1200E+02  0.1200E+02
    -15.166  0.0000E+00  0.0000E+00  0.1200E+02  0.1200E+02
    -14.976  0.4735E-05  0.4744E-05  0.1200E+02  0.1200E+02
    -14.786  0.2248E-03  0.2252E-03  0.1200E+02  0.1200E+02
    -14.595  0.9705E-02  0.9724E-02  0.1200E+02  0.1200E+02
    -14.405  0.1567E+00  0.1569E+00  0.1203E+02  0.1203E+02
    -14.214  0.4944E+00  0.4946E+00  0.1213E+02  0.1213E+02
    -14.024  0.7110E+00  0.7111E+00  0.1226E+02  0.1226E+02
    -13.833  0.1108E+01  0.1109E+01  0.1247E+02  0.1247E+02
    -13.643  0.1444E+01  0.1444E+01  0.1275E+02  0.1275E+02
    -13.452  0.2390E+01  0.2391E+01  0.1321E+02  0.1321E+02
    -13.262  0.3922E+01  0.3924E+01  0.1395E+02  0.1395E+02
    -13.071  0.6771E+01  0.6772E+01  0.1524E+02  0.1525E+02
    -12.881  0.3716E+01  0.3711E+01  0.1596E+02  0.1596E+02
    -12.690  0.1911E+00  0.1906E+00  0.1600E+02  0.1600E+02
    -12.500  0.0000E+00  0.0000E+00  0.1600E+02  0.1600E+02
    -12.310  0.0000E+00  0.0000E+00  0.1600E+02  0.1600E+02
    -12.119  0.0000E+00  0.0000E+00  0.1600E+02  0.1600E+02
    -11.929  0.0000E+00  0.0000E+00  0.1600E+02  0.1600E+02
    -11.738  0.0000E+00  0.0000E+00  0.1600E+02  0.1600E+02
    -11.548  0.0000E+00  0.0000E+00  0.1600E+02  0.1600E+02
    -11.357  0.0000E+00  0.0000E+00  0.1600E+02  0.1600E+02
    -11.167  0.0000E+00  0.0000E+00  0.1600E+02  0.1600E+02
    -10.976  0.0000E+00  0.0000E+00  0.1600E+02  0.1600E+02
    -10.786  0.0000E+00  0.0000E+00  0.1600E+02  0.1600E+02
    -10.595  0.0000E+00  0.0000E+00  0.1600E+02  0.1600E+02
    -10.405  0.0000E+00  0.0000E+00  0.1600E+02  0.1600E+02
    -10.214  0.0000E+00  0.0000E+00  0.1600E+02  0.1600E+02
    -10.024  0.0000E+00  0.0000E+00  0.1600E+02  0.1600E+02
     -9.834  0.0000E+00  0.0000E+00  0.1600E+02  0.1600E+02
     -9.643  0.0000E+00  0.0000E+00  0.1600E+02  0.1600E+02
     -9.453  0.0000E+00  0.0000E+00  0.1600E+02  0.1600E+02
     -9.262  0.0000E+00  0.0000E+00  0.1600E+02  0.1600E+02
     -9.072  0.0000E+00  0.0000E+00  0.1600E+02  0.1600E+02
     -8.881  0.0000E+00  0.0000E+00  0.1600E+02  0.1600E+02
     -8.691  0.0000E+00  0.0000E+00  0.1600E+02  0.1600E+02
     -8.500  0.0000E+00  0.0000E+00  0.1600E+02  0.1600E+02
     -8.310  0.0000E+00  0.0000E+00  0.1600E+02  0.1600E+02
     -8.119  0.0000E+00  0.0000E+00  0.1600E+02  0.1600E+02
     -7.929  0.0000E+00  0.0000E+00  0.1600E+02  0.1600E+02
     -7.738  0.0000E+00  0.0000E+00  0.1600E+02  0.1600E+02
     -7.548  0.0000E+00  0.0000E+00  0.1600E+02  0.1600E+02
     -7.358  0.0000E+00  0.0000E+00  0.1600E+02  0.1600E+02
     -7.167  0.0000E+00  0.0000E+00  0.1600E+02  0.1600E+02
     -6.977  0.0000E+00  0.0000E+00  0.1600E+02  0.1600E+02
     -6.786  0.0000E+00  0.0000E+00  0.1600E+02  0.1600E+02
     -6.596  0.0000E+00  0.0000E+00  0.1600E+02  0.1600E+02
     -6.405  0.0000E+00  0.0000E+00  0.1600E+02  0.1600E+02
     -6.215  0.0000E+00  0.0000E+00  0.1600E+02  0.1600E+02
     -6.024  0.0000E+00  0.0000E+00  0.1600E+02  0.1600E+02
     -5.834  0.0000E+00  0.0000E+00  0.1600E+02  0.1600E+02
     -5.643  0.0000E+00  0.0000E+00  0.1600E+02  0.1600E+02
     -5.453  0.0000E+00  0.0000E+00  0.1600E+02  0.1600E+02
     -5.262  0.0000E+00  0.0000E+00  0.1600E+02  0.1600E+02
     -5.072  0.0000E+00  0.0000E+00  0.1600E+02  0.1600E+02
     -4.882  0.0000E+00  0.0000E+00  0.1600E+02  0.1600E+02
     -4.691  0.0000E+00  0.0000E+00  0.1600E+02  0.1600E+02
     -4.501  0.0000E+00  0.0000E+00  0.1600E+02  0.1600E+02
     -4.310  0.0000E+00  0.0000E+00  0.1600E+02  0.1600E+02
     -4.120  0.0000E+00  0.0000E+00  0.1600E+02  0.1600E+02
     -3.929  0.0000E+00  0.0000E+00  0.1600E+02  0.1600E+02
     -3.739  0.0000E+00  0.0000E+00  0.1600E+02  0.1600E+02
     -3.548  0.0000E+00  0.0000E+00  0.1600E+02  0.1600E+02
     -3.358  0.0000E+00  0.0000E+00  0.1600E+02  0.1600E+02
     -3.167  0.0000E+00  0.0000E+00  0.1600E+02  0.1600E+02
     -2.977  0.0000E+00  0.0000E+00  0.1600E+02  0.1600E+02
     -2.786  0.0000E+00  0.0000E+00  0.1600E+02  0.1600E+02
     -2.596  0.0000E+00  0.0000E+00  0.1600E+02  0.1600E+02
     -2.406  0.0000E+00  0.0000E+00  0.1600E+02  0.1600E+02
     -2.215  0.7220E-04  0.7220E-04  0.1600E+02  0.1600E+02
     -2.025  0.3181E-02  0.3181E-02  0.1600E+02  0.1600E+02
     -1.834  0.1164E+00  0.1164E+00  0.1602E+02  0.1602E+02
     -1.644  0.5473E+00  0.5473E+00  0.1613E+02  0.1613E+02
     -1.453  0.8468E+00  0.8468E+00  0.1629E+02  0.1629E+02
     -1.263  0.1797E+01  0.1798E+01  0.1663E+02  0.1663E+02
     -1.072  0.2563E+01  0.2563E+01  0.1712E+02  0.1712E+02
     -0.882  0.4679E+01  0.4680E+01  0.1801E+02  0.1801E+02
     -0.691  0.3631E+01  0.3631E+01  0.1871E+02  0.1871E+02
     -0.501  0.2771E+01  0.2771E+01  0.1924E+02  0.1924E+02
     -0.310  0.6628E+00  0.6627E+00  0.1937E+02  0.1937E+02
     -0.120  0.6701E+00  0.6704E+00  0.1950E+02  0.1950E+02
      0.070  0.2401E+01  0.2401E+01  0.1995E+02  0.1995E+02
      0.261  0.1396E+01  0.1396E+01  0.2022E+02  0.2022E+02
      0.451  0.1711E+01  0.1711E+01  0.2055E+02  0.2055E+02
      0.642  0.1512E+01  0.1512E+01  0.2083E+02  0.2083E+02
      0.832  0.2799E+01  0.2799E+01  0.2137E+02  0.2137E+02
      1.023  0.2156E+01  0.2156E+01  0.2178E+02  0.2178E+02
      1.213  0.2495E+01  0.2496E+01  0.2226E+02  0.2226E+02
      1.404  0.5062E+01  0.5064E+01  0.2322E+02  0.2322E+02
      1.594  0.5558E+01  0.5558E+01  0.2428E+02  0.2428E+02
      1.785  0.4904E+01  0.4905E+01  0.2522E+02  0.2522E+02
      1.975  0.5944E+01  0.5943E+01  0.2636E+02  0.2636E+02
      2.166  0.4302E+01  0.4302E+01  0.2718E+02  0.2718E+02
      2.356  0.2466E+01  0.2465E+01  0.2766E+02  0.2766E+02
      2.546  0.1448E+01  0.1447E+01  0.2793E+02  0.2793E+02
      2.737  0.3268E+00  0.3264E+00  0.2800E+02  0.2800E+02
      2.927  0.1316E-01  0.1313E-01  0.2800E+02  0.2800E+02
      3.118  0.0000E+00  0.0000E+00  0.2800E+02  0.2800E+02
      3.308  0.0000E+00  0.0000E+00  0.2800E+02  0.2800E+02
      3.499  0.0000E+00  0.0000E+00  0.2800E+02  0.2800E+02
      3.689  0.0000E+00  0.0000E+00  0.2800E+02  0.2800E+02
      3.880  0.0000E+00  0.0000E+00  0.2800E+02  0.2800E+02
      4.070  0.0000E+00  0.0000E+00  0.2800E+02  0.2800E+02
      4.261  0.0000E+00  0.0000E+00  0.2800E+02  0.2800E+02
      4.451  0.0000E+00  0.0000E+00  0.2800E+02  0.2800E+02
      4.642  0.0000E+00  0.0000E+00  0.2800E+02  0.2800E+02
      4.832  0.0000E+00  0.0000E+00  0.2800E+02  0.2800E+02
      5.022  0.0000E+00  0.0000E+00  0.2800E+02  0.2800E+02
      5.213  0.0000E+00  0.0000E+00  0.2800E+02  0.2800E+02
      5.403  0.0000E+00  0.0000E+00  0.2800E+02  0.2800E+02
      5.594  0.0000E+00  0.0000E+00  0.2800E+02  0.2800E+02
      5.784  0.0000E+00  0.0000E+00  0.2800E+02  0.2800E+02
      5.975  0.0000E+00  0.0000E+00  0.2800E+02  0.2800E+02
      6.165  0.0000E+00  0.0000E+00  0.2800E+02  0.2800E+02
      6.356  0.0000E+00  0.0000E+00  0.2800E+02  0.2800E+02
      6.546  0.0000E+00  0.0000E+00  0.2800E+02  0.2800E+02
      6.737  0.0000E+00  0.0000E+00  0.2800E+02  0.2800E+02
      6.927  0.0000E+00  0.0000E+00  0.2800E+02  0.2800E+02
      7.118  0.3250E-04  0.3253E-04  0.2800E+02  0.2800E+02
      7.308  0.1423E-02  0.1424E-02  0.2800E+02  0.2800E+02
      7.498  0.4791E-01  0.4794E-01  0.2801E+02  0.2801E+02
      7.689  0.1332E+00  0.1332E+00  0.2803E+02  0.2803E+02
      7.879  0.1161E-01  0.1160E-01  0.2804E+02  0.2804E+02
      8.070  0.1423E-03  0.1425E-03  0.2804E+02  0.2804E+02
      8.260  0.6211E-02  0.6219E-02  0.2804E+02  0.2804E+02
      8.451  0.1873E+00  0.1874E+00  0.2807E+02  0.2807E+02
      8.641  0.3649E+00  0.3647E+00  0.2814E+02  0.2814E+02
      8.832  0.2593E-01  0.2590E-01  0.2815E+02  0.2815E+02
      9.022  0.6371E-01  0.6378E-01  0.2816E+02  0.2816E+02
      9.213  0.4320E+00  0.4320E+00  0.2824E+02  0.2824E+02
      9.403  0.1255E+00  0.1254E+00  0.2827E+02  0.2827E+02
      9.594  0.1443E+00  0.1443E+00  0.2829E+02  0.2829E+02
      9.784  0.1986E+00  0.1988E+00  0.2833E+02  0.2833E+02
      9.974  0.3855E+00  0.3854E+00  0.2841E+02  0.2841E+02
     10.165  0.5749E+00  0.5752E+00  0.2852E+02  0.2852E+02
     10.355  0.1273E+01  0.1273E+01  0.2876E+02  0.2876E+02
     10.546  0.5560E+00  0.5559E+00  0.2886E+02  0.2886E+02
     10.736  0.5979E+00  0.5978E+00  0.2898E+02  0.2898E+02
     10.927  0.4427E+00  0.4429E+00  0.2906E+02  0.2906E+02
     11.117  0.7076E+00  0.7075E+00  0.2920E+02  0.2920E+02
     11.308  0.1764E+01  0.1764E+01  0.2954E+02  0.2954E+02
     11.498  0.1324E+01  0.1324E+01  0.2979E+02  0.2979E+02
     11.689  0.5448E+00  0.5447E+00  0.2989E+02  0.2989E+02
     11.879  0.7778E+00  0.7780E+00  0.3004E+02  0.3004E+02
     12.070  0.1626E+01  0.1626E+01  0.3035E+02  0.3035E+02
     12.260  0.1701E+01  0.1701E+01  0.3068E+02  0.3068E+02
     12.450  0.1883E+01  0.1887E+01  0.3103E+02  0.3104E+02
     12.641  0.2494E+01  0.2493E+01  0.3151E+02  0.3151E+02
     12.831  0.8397E+00  0.8374E+00  0.3167E+02  0.3167E+02
     13.022  0.1628E+01  0.1627E+01  0.3198E+02  0.3198E+02
     13.212  0.1185E+01  0.1194E+01  0.3221E+02  0.3221E+02
     13.403  0.1845E+01  0.1859E+01  0.3256E+02  0.3257E+02
     13.593  0.1268E+01  0.1231E+01  0.3281E+02  0.3280E+02
     13.784  0.9543E+00  0.9612E+00  0.3299E+02  0.3299E+02
     13.974  0.1100E+01  0.1101E+01  0.3320E+02  0.3320E+02
     14.165  0.2480E+01  0.2465E+01  0.3367E+02  0.3367E+02
     14.355  0.2277E+01  0.2293E+01  0.3411E+02  0.3410E+02
     14.546  0.4148E+01  0.4446E+01  0.3490E+02  0.3495E+02
     14.736  0.3147E+01  0.2910E+01  0.3550E+02  0.3551E+02
     14.926  0.1118E+01  0.1054E+01  0.3571E+02  0.3571E+02
     15.117  0.9562E+00  0.9558E+00  0.3590E+02  0.3590E+02
     15.307  0.3705E+00  0.3724E+00  0.3597E+02  0.3597E+02
     15.498  0.1510E+00  0.1510E+00  0.3600E+02  0.3600E+02
     15.688  0.1544E-01  0.1542E-01  0.3600E+02  0.3600E+02
     15.879  0.0000E+00  0.0000E+00  0.3600E+02  0.3600E+02
     16.069  0.0000E+00  0.0000E+00  0.3600E+02  0.3600E+02
     16.260  0.0000E+00  0.0000E+00  0.3600E+02  0.3600E+02
     16.450  0.0000E+00  0.0000E+00  0.3600E+02  0.3600E+02
     16.641  0.0000E+00  0.0000E+00  0.3600E+02  0.3600E+02
     16.831  0.0000E+00  0.0000E+00  0.3600E+02  0.3600E+02
     17.022  0.0000E+00  0.0000E+00  0.3600E+02  0.3600E+02
     17.212  0.0000E+00  0.0000E+00  0.3600E+02  0.3600E+02
     17.403  0.0000E+00  0.0000E+00  0.3600E+02  0.3600E+02
     17.593  0.0000E+00  0.0000E+00  0.3600E+02  0.3600E+02
     17.783  0.0000E+00  0.0000E+00  0.3600E+02  0.3600E+02
     17.974  0.0000E+00  0.0000E+00  0.3600E+02  0.3600E+02
     17.97388584    -39.16460577  301      3.69075092      1.00000000
    -39.165  0.0000E+00  0.0000E+00  0.0000E+00  0.0000E+00  0.0000E+00  0.0000E+00  0.0000E+00  0.0000E+00  0.0000E+00  0.0000E+00  0.0000E+00  0.0000E+00  0.0000E+00  0.0000E+00  0.0000E+00  0.0000E+00  0.0000E+00  0.0000E+00
    -38.974  0.0000E+00  0.0000E+00  0.0000E+00  0.0000E+00  0.0000E+00  0.0000E+00  0.0000E+00  0.0000E+00  0.0000E+00  0.0000E+00  0.0000E+00  0.0000E+00  0.0000E+00  0.0000E+00  0.0000E+00  0.0000E+00  0.0000E+00  0.0000E+00
    -38.784  0.0000E+00  0.0000E+00  0.0000E+00  0.0000E+00  0.0000E+00  0.0000E+00  0.0000E+00  0.0000E+00  0.0000E+00  0.0000E+00  0.0000E+00  0.0000E+00  0.0000E+00  0.0000E+00  0.0000E+00  0.0000E+00  0.0000E+00  0.0000E+00
    -38.593  0.0000E+00  0.0000E+00  0.0000E+00  0.0000E+00  0.0000E+00  0.0000E+00  0.0000E+00  0.0000E+00  0.0000E+00  0.0000E+00  0.0000E+00  0.0000E+00  0.0000E+00  0.0000E+00  0.0000E+00  0.0000E+00  0.0000E+00  0.0000E+00
    -38.403  0.0000E+00  0.0000E+00  0.0000E+00  0.0000E+00  0.0000E+00  0.0000E+00  0.0000E+00  0.0000E+00  0.0000E+00  0.0000E+00  0.0000E+00  0.0000E+00  0.0000E+00  0.0000E+00  0.0000E+00  0.0000E+00  0.0000E+00  0.0000E+00
    -38.212  0.0000E+00  0.0000E+00  0.0000E+00  0.0000E+00  0.0000E+00  0.0000E+00  0.0000E+00  0.0000E+00  0.0000E+00  0.0000E+00  0.0000E+00  0.0000E+00  0.0000E+00  0.0000E+00  0.0000E+00  0.0000E+00  0.0000E+00  0.0000E+00
    -38.022  0.0000E+00  0.0000E+00  0.0000E+00  0.0000E+00  0.0000E+00  0.0000E+00  0.0000E+00  0.0000E+00  0.0000E+00  0.0000E+00  0.0000E+00  0.0000E+00  0.0000E+00  0.0000E+00  0.0000E+00  0.0000E+00  0.0000E+00  0.0000E+00
    -37.831  0.0000E+00  0.0000E+00  0.0000E+00  0.0000E+00  0.0000E+00  0.0000E+00  0.0000E+00  0.0000E+00  0.0000E+00  0.0000E+00  0.0000E+00  0.0000E+00  0.0000E+00  0.0000E+00  0.0000E+00  0.0000E+00  0.0000E+00  0.0000E+00
    -37.641  0.0000E+00  0.0000E+00  0.0000E+00  0.0000E+00  0.0000E+00  0.0000E+00  0.0000E+00  0.0000E+00  0.0000E+00  0.0000E+00  0.0000E+00  0.0000E+00  0.0000E+00  0.0000E+00  0.0000E+00  0.0000E+00  0.0000E+00  0.0000E+00
    -37.450  0.0000E+00  0.0000E+00  0.0000E+00  0.0000E+00  0.0000E+00  0.0000E+00  0.0000E+00  0.0000E+00  0.0000E+00  0.0000E+00  0.0000E+00  0.0000E+00  0.0000E+00  0.0000E+00  0.0000E+00  0.0000E+00  0.0000E+00  0.0000E+00
    -37.260  0.0000E+00  0.0000E+00  0.0000E+00  0.0000E+00  0.0000E+00  0.0000E+00  0.0000E+00  0.0000E+00  0.0000E+00  0.0000E+00  0.0000E+00  0.0000E+00  0.0000E+00  0.0000E+00  0.0000E+00  0.0000E+00  0.0000E+00  0.0000E+00
    -37.070  0.4535E-09  0.4538E-09  0.1012E-03  0.1013E-03  0.1012E-03  0.1013E-03  0.1012E-03  0.1013E-03  0.2977E-10  0.2981E-10  0.2977E-10  0.2981E-10  0.2636E-10  0.2638E-10  0.2977E-10  0.2981E-10  0.2636E-10  0.2638E-10
    -36.879  0.1998E-07  0.2000E-07  0.4459E-02  0.4464E-02  0.4459E-02  0.4464E-02  0.4459E-02  0.4464E-02  0.1312E-08  0.1314E-08  0.1312E-08  0.1314E-08  0.1162E-08  0.1163E-08  0.1312E-08  0.1314E-08  0.1162E-08  0.1163E-08
    -36.689  0.8556E-06  0.8563E-06  0.1922E+00  0.1924E+00  0.1922E+00  0.1924E+00  0.1922E+00  0.1924E+00  0.5662E-07  0.5669E-07  0.5662E-07  0.5669E-07  0.4995E-07  0.4999E-07  0.5662E-07  0.5669E-07  0.4995E-07  0.4999E-07
    -36.498  0.1168E-04  0.1168E-04  0.3015E+01  0.3015E+01  0.3015E+01  0.3015E+01  0.3015E+01  0.3015E+01  0.8795E-06  0.8800E-06  0.8795E-06  0.8800E-06  0.7473E-06  0.7474E-06  0.8795E-06  0.8800E-06  0.7473E-06  0.7474E-06
    -36.308  0.5679E-05  0.5675E-05  0.1928E+01  0.1927E+01  0.1928E+01  0.1927E+01  0.1928E+01  0.1927E+01  0.5284E-06  0.5283E-06  0.5284E-06  0.5283E-06  0.4379E-06  0.4376E-06  0.5284E-06  0.5283E-06  0.4379E-06  0.4376E-06
    -36.117  0.3291E-07  0.3287E-07  0.4812E-01  0.4808E-01  0.4812E-01  0.4808E-01  0.4812E-01  0.4808E-01  0.8721E-08  0.8714E-08  0.8721E-08  0.8714E-08  0.9999E-08  0.9986E-08  0.8721E-08  0.8714E-08  0.9999E-08  0.9986E-08
    -35.927  0.0000E+00  0.0000E+00  0.0000E+00  0.0000E+00  0.0000E+00  0.0000E+00  0.0000E+00  0.0000E+00  0.0000E+00  0.0000E+00  0.0000E+00  0.0000E+00  0.0000E+00  0.0000E+00  0.0000E+00  0.0000E+00  0.0000E+00  0.0000E+00
    -35.736  0.0000E+00  0.0000E+00  0.0000E+00  0.0000E+00  0.0000E+00  0.0000E+00  0.0000E+00  0.0000E+00  0.0000E+00  0.0000E+00  0.0000E+00  0.0000E+00  0.0000E+00  0.0000E+00  0.0000E+00  0.0000E+00  0.0000E+00  0.0000E+00
    -35.546  0.0000E+00  0.0000E+00  0.0000E+00  0.0000E+00  0.0000E+00  0.0000E+00  0.0000E+00  0.0000E+00  0.0000E+00  0.0000E+00  0.0000E+00  0.0000E+00  0.0000E+00  0.0000E+00  0.0000E+00  0.0000E+00  0.0000E+00  0.0000E+00
    -35.355  0.0000E+00  0.0000E+00  0.0000E+00  0.0000E+00  0.0000E+00  0.0000E+00  0.0000E+00  0.0000E+00  0.0000E+00  0.0000E+00  0.0000E+00  0.0000E+00  0.0000E+00  0.0000E+00  0.0000E+00  0.0000E+00  0.0000E+00  0.0000E+00
    -35.165  0.0000E+00  0.0000E+00  0.0000E+00  0.0000E+00  0.0000E+00  0.0000E+00  0.0000E+00  0.0000E+00  0.0000E+00  0.0000E+00  0.0000E+00  0.0000E+00  0.0000E+00  0.0000E+00  0.0000E+00  0.0000E+00  0.0000E+00  0.0000E+00
    -34.974  0.0000E+00  0.0000E+00  0.0000E+00  0.0000E+00  0.0000E+00  0.0000E+00  0.0000E+00  0.0000E+00  0.0000E+00  0.0000E+00  0.0000E+00  0.0000E+00  0.0000E+00  0.0000E+00  0.0000E+00  0.0000E+00  0.0000E+00  0.0000E+00
    -34.784  0.0000E+00  0.0000E+00  0.0000E+00  0.0000E+00  0.0000E+00  0.0000E+00  0.0000E+00  0.0000E+00  0.0000E+00  0.0000E+00  0.0000E+00  0.0000E+00  0.0000E+00  0.0000E+00  0.0000E+00  0.0000E+00  0.0000E+00  0.0000E+00
    -34.594  0.0000E+00  0.0000E+00  0.0000E+00  0.0000E+00  0.0000E+00  0.0000E+00  0.0000E+00  0.0000E+00  0.0000E+00  0.0000E+00  0.0000E+00  0.0000E+00  0.0000E+00  0.0000E+00  0.0000E+00  0.0000E+00  0.0000E+00  0.0000E+00
    -34.403  0.0000E+00  0.0000E+00  0.0000E+00  0.0000E+00  0.0000E+00  0.0000E+00  0.0000E+00  0.0000E+00  0.0000E+00  0.0000E+00  0.0000E+00  0.0000E+00  0.0000E+00  0.0000E+00  0.0000E+00  0.0000E+00  0.0000E+00  0.0000E+00
    -34.213  0.0000E+00  0.0000E+00  0.0000E+00  0.0000E+00  0.0000E+00  0.0000E+00  0.0000E+00  0.0000E+00  0.0000E+00  0.0000E+00  0.0000E+00  0.0000E+00  0.0000E+00  0.0000E+00  0.0000E+00  0.0000E+00  0.0000E+00  0.0000E+00
    -34.022  0.0000E+00  0.0000E+00  0.0000E+00  0.0000E+00  0.0000E+00  0.0000E+00  0.0000E+00  0.0000E+00  0.0000E+00  0.0000E+00  0.0000E+00  0.0000E+00  0.0000E+00  0.0000E+00  0.0000E+00  0.0000E+00  0.0000E+00  0.0000E+00
    -33.832  0.0000E+00  0.0000E+00  0.0000E+00  0.0000E+00  0.0000E+00  0.0000E+00  0.0000E+00  0.0000E+00  0.0000E+00  0.0000E+00  0.0000E+00  0.0000E+00  0.0000E+00  0.0000E+00  0.0000E+00  0.0000E+00  0.0000E+00  0.0000E+00
    -33.641  0.0000E+00  0.0000E+00  0.0000E+00  0.0000E+00  0.0000E+00  0.0000E+00  0.0000E+00  0.0000E+00  0.0000E+00  0.0000E+00  0.0000E+00  0.0000E+00  0.0000E+00  0.0000E+00  0.0000E+00  0.0000E+00  0.0000E+00  0.0000E+00
    -33.451  0.0000E+00  0.0000E+00  0.0000E+00  0.0000E+00  0.0000E+00  0.0000E+00  0.0000E+00  0.0000E+00  0.0000E+00  0.0000E+00  0.0000E+00  0.0000E+00  0.0000E+00  0.0000E+00  0.0000E+00  0.0000E+00  0.0000E+00  0.0000E+00
    -33.260  0.0000E+00  0.0000E+00  0.0000E+00  0.0000E+00  0.0000E+00  0.0000E+00  0.0000E+00  0.0000E+00  0.0000E+00  0.0000E+00  0.0000E+00  0.0000E+00  0.0000E+00  0.0000E+00  0.0000E+00  0.0000E+00  0.0000E+00  0.0000E+00
    -33.070  0.0000E+00  0.0000E+00  0.0000E+00  0.0000E+00  0.0000E+00  0.0000E+00  0.0000E+00  0.0000E+00  0.0000E+00  0.0000E+00  0.0000E+00  0.0000E+00  0.0000E+00  0.0000E+00  0.0000E+00  0.0000E+00  0.0000E+00  0.0000E+00
    -32.879  0.0000E+00  0.0000E+00  0.0000E+00  0.0000E+00  0.0000E+00  0.0000E+00  0.0000E+00  0.0000E+00  0.0000E+00  0.0000E+00  0.0000E+00  0.0000E+00  0.0000E+00  0.0000E+00  0.0000E+00  0.0000E+00  0.0000E+00  0.0000E+00
    -32.689  0.0000E+00  0.0000E+00  0.0000E+00  0.0000E+00  0.0000E+00  0.0000E+00  0.0000E+00  0.0000E+00  0.0000E+00  0.0000E+00  0.0000E+00  0.0000E+00  0.0000E+00  0.0000E+00  0.0000E+00  0.0000E+00  0.0000E+00  0.0000E+00
    -32.498  0.0000E+00  0.0000E+00  0.0000E+00  0.0000E+00  0.0000E+00  0.0000E+00  0.0000E+00  0.0000E+00  0.0000E+00  0.0000E+00  0.0000E+00  0.0000E+00  0.0000E+00  0.0000E+00  0.0000E+00  0.0000E+00  0.0000E+00  0.0000E+00
    -32.308  0.0000E+00  0.0000E+00  0.0000E+00  0.0000E+00  0.0000E+00  0.0000E+00  0.0000E+00  0.0000E+00  0.0000E+00  0.0000E+00  0.0000E+00  0.0000E+00  0.0000E+00  0.0000E+00  0.0000E+00  0.0000E+00  0.0000E+00  0.0000E+00
    -32.118  0.0000E+00  0.0000E+00  0.0000E+00  0.0000E+00  0.0000E+00  0.0000E+00  0.0000E+00  0.0000E+00  0.0000E+00  0.0000E+00  0.0000E+00  0.0000E+00  0.0000E+00  0.0000E+00  0.0000E+00  0.0000E+00  0.0000E+00  0.0000E+00
    -31.927  0.0000E+00  0.0000E+00  0.0000E+00  0.0000E+00  0.0000E+00  0.0000E+00  0.0000E+00  0.0000E+00  0.0000E+00  0.0000E+00  0.0000E+00  0.0000E+00  0.0000E+00  0.0000E+00  0.0000E+00  0.0000E+00  0.0000E+00  0.0000E+00
    -31.737  0.0000E+00  0.0000E+00  0.0000E+00  0.0000E+00  0.0000E+00  0.0000E+00  0.0000E+00  0.0000E+00  0.0000E+00  0.0000E+00  0.0000E+00  0.0000E+00  0.0000E+00  0.0000E+00  0.0000E+00  0.0000E+00  0.0000E+00  0.0000E+00
    -31.546  0.0000E+00  0.0000E+00  0.0000E+00  0.0000E+00  0.0000E+00  0.0000E+00  0.0000E+00  0.0000E+00  0.0000E+00  0.0000E+00  0.0000E+00  0.0000E+00  0.0000E+00  0.0000E+00  0.0000E+00  0.0000E+00  0.0000E+00  0.0000E+00
    -31.356  0.0000E+00  0.0000E+00  0.0000E+00  0.0000E+00  0.0000E+00  0.0000E+00  0.0000E+00  0.0000E+00  0.0000E+00  0.0000E+00  0.0000E+00  0.0000E+00  0.0000E+00  0.0000E+00  0.0000E+00  0.0000E+00  0.0000E+00  0.0000E+00
    -31.165  0.0000E+00  0.0000E+00  0.0000E+00  0.0000E+00  0.0000E+00  0.0000E+00  0.0000E+00  0.0000E+00  0.0000E+00  0.0000E+00  0.0000E+00  0.0000E+00  0.0000E+00  0.0000E+00  0.0000E+00  0.0000E+00  0.0000E+00  0.0000E+00
    -30.975  0.0000E+00  0.0000E+00  0.0000E+00  0.0000E+00  0.0000E+00  0.0000E+00  0.0000E+00  0.0000E+00  0.0000E+00  0.0000E+00  0.0000E+00  0.0000E+00  0.0000E+00  0.0000E+00  0.0000E+00  0.0000E+00  0.0000E+00  0.0000E+00
    -30.784  0.0000E+00  0.0000E+00  0.0000E+00  0.0000E+00  0.0000E+00  0.0000E+00  0.0000E+00  0.0000E+00  0.0000E+00  0.0000E+00  0.0000E+00  0.0000E+00  0.0000E+00  0.0000E+00  0.0000E+00  0.0000E+00  0.0000E+00  0.0000E+00
    -30.594  0.0000E+00  0.0000E+00  0.0000E+00  0.0000E+00  0.0000E+00  0.0000E+00  0.0000E+00  0.0000E+00  0.0000E+00  0.0000E+00  0.0000E+00  0.0000E+00  0.0000E+00  0.0000E+00  0.0000E+00  0.0000E+00  0.0000E+00  0.0000E+00
    -30.403  0.0000E+00  0.0000E+00  0.0000E+00  0.0000E+00  0.0000E+00  0.0000E+00  0.0000E+00  0.0000E+00  0.0000E+00  0.0000E+00  0.0000E+00  0.0000E+00  0.0000E+00  0.0000E+00  0.0000E+00  0.0000E+00  0.0000E+00  0.0000E+00
    -30.213  0.0000E+00  0.0000E+00  0.0000E+00  0.0000E+00  0.0000E+00  0.0000E+00  0.0000E+00  0.0000E+00  0.0000E+00  0.0000E+00  0.0000E+00  0.0000E+00  0.0000E+00  0.0000E+00  0.0000E+00  0.0000E+00  0.0000E+00  0.0000E+00
    -30.022  0.0000E+00  0.0000E+00  0.0000E+00  0.0000E+00  0.0000E+00  0.0000E+00  0.0000E+00  0.0000E+00  0.0000E+00  0.0000E+00  0.0000E+00  0.0000E+00  0.0000E+00  0.0000E+00  0.0000E+00  0.0000E+00  0.0000E+00  0.0000E+00
    -29.832  0.0000E+00  0.0000E+00  0.0000E+00  0.0000E+00  0.0000E+00  0.0000E+00  0.0000E+00  0.0000E+00  0.0000E+00  0.0000E+00  0.0000E+00  0.0000E+00  0.0000E+00  0.0000E+00  0.0000E+00  0.0000E+00  0.0000E+00  0.0000E+00
    -29.642  0.0000E+00  0.0000E+00  0.0000E+00  0.0000E+00  0.0000E+00  0.0000E+00  0.0000E+00  0.0000E+00  0.0000E+00  0.0000E+00  0.0000E+00  0.0000E+00  0.0000E+00  0.0000E+00  0.0000E+00  0.0000E+00  0.0000E+00  0.0000E+00