   8   8   1   0
  0.1175182E+02  0.4547070E-09  0.4547070E-09  0.4547070E-09  0.5000000E-15
  1.000000000000000E-004
  CAR 
 unknown system                          
     15.05882853    -41.14207984  301      2.50875589      1.00000000
    -41.142  0.0000E+00  0.0000E+00  0.0000E+00  0.0000E+00
    -40.955  0.0000E+00  0.0000E+00  0.0000E+00  0.0000E+00
    -40.767  0.0000E+00  0.0000E+00  0.0000E+00  0.0000E+00
    -40.580  0.0000E+00  0.0000E+00  0.0000E+00  0.0000E+00
    -40.393  0.0000E+00  0.0000E+00  0.0000E+00  0.0000E+00
    -40.205  0.0000E+00  0.0000E+00  0.0000E+00  0.0000E+00
    -40.018  0.0000E+00  0.0000E+00  0.0000E+00  0.0000E+00
    -39.831  0.0000E+00  0.0000E+00  0.0000E+00  0.0000E+00
    -39.643  0.0000E+00  0.0000E+00  0.0000E+00  0.0000E+00
    -39.456  0.0000E+00  0.0000E+00  0.0000E+00  0.0000E+00
    -39.269  0.0000E+00  0.0000E+00  0.0000E+00  0.0000E+00
    -39.081  0.2308E-02  0.2310E-02  0.4325E-03  0.4328E-03
    -38.894  0.9538E-01  0.9546E-01  0.1830E-01  0.1832E-01
    -38.707  0.3790E+01  0.3793E+01  0.7283E+00  0.7289E+00
    -38.519  0.4279E+02  0.4280E+02  0.8744E+01  0.8746E+01
    -38.332  0.1682E+02  0.1681E+02  0.1189E+02  0.1189E+02
    -38.145  0.0000E+00  0.0000E+00  0.1200E+02  0.1200E+02
    -37.957  0.0000E+00  0.0000E+00  0.1200E+02  0.1200E+02
    -37.770  0.0000E+00  0.0000E+00  0.1200E+02  0.1200E+02
    -37.583  0.0000E+00  0.0000E+00  0.1200E+02  0.1200E+02
    -37.395  0.0000E+00  0.0000E+00  0.1200E+02  0.1200E+02
    -37.208  0.0000E+00  0.0000E+00  0.1200E+02  0.1200E+02
    -37.021  0.0000E+00  0.0000E+00  0.1200E+02  0.1200E+02
    -36.833  0.0000E+00  0.0000E+00  0.1200E+02  0.1200E+02
    -36.646  0.0000E+00  0.0000E+00  0.1200E+02  0.1200E+02
    -36.459  0.0000E+00  0.0000E+00  0.1200E+02  0.1200E+02
    -36.271  0.0000E+00  0.0000E+00  0.1200E+02  0.1200E+02
    -36.084  0.0000E+00  0.0000E+00  0.1200E+02  0.1200E+02
    -35.897  0.0000E+00  0.0000E+00  0.1200E+02  0.1200E+02
    -35.709  0.0000E+00  0.0000E+00  0.1200E+02  0.1200E+02
    -35.522  0.0000E+00  0.0000E+00  0.1200E+02  0.1200E+02
    -35.335  0.0000E+00  0.0000E+00  0.1200E+02  0.1200E+02
    -35.147  0.0000E+00  0.0000E+00  0.1200E+02  0.1200E+02
    -34.960  0.0000E+00  0.0000E+00  0.1200E+02  0.1200E+02
    -34.773  0.0000E+00  0.0000E+00  0.1200E+02  0.1200E+02
    -34.585  0.0000E+00  0.0000E+00  0.1200E+02  0.1200E+02
    -34.398  0.0000E+00  0.0000E+00  0.1200E+02  0.1200E+02
    -34.211  0.0000E+00  0.0000E+00  0.1200E+02  0.1200E+02
    -34.023  0.0000E+00  0.0000E+00  0.1200E+02  0.1200E+02
    -33.836  0.0000E+00  0.0000E+00  0.1200E+02  0.1200E+02
    -33.649  0.0000E+00  0.0000E+00  0.1200E+02  0.1200E+02
    -33.461  0.0000E+00  0.0000E+00  0.1200E+02  0.1200E+02
    -33.274  0.0000E+00  0.0000E+00  0.1200E+02  0.1200E+02
    -33.087  0.0000E+00  0.0000E+00  0.1200E+02  0.1200E+02
    -32.899  0.0000E+00  0.0000E+00  0.1200E+02  0.1200E+02
    -32.712  0.0000E+00  0.0000E+00  0.1200E+02  0.1200E+02
    -32.525  0.0000E+00  0.0000E+00  0.1200E+02  0.1200E+02
    -32.337  0.0000E+00  0.0000E+00  0.1200E+02  0.1200E+02
    -32.150  0.0000E+00  0.0000E+00  0.1200E+02  0.1200E+02
    -31.963  0.0000E+00  0.0000E+00  0.1200E+02  0.1200E+02
    -31.775  0.0000E+00  0.0000E+00  0.1200E+02  0.1200E+02
    -31.588  0.0000E+00  0.0000E+00  0.1200E+02  0.1200E+02
    -31.401  0.0000E+00  0.0000E+00  0.1200E+02  0.1200E+02
    -31.213  0.0000E+00  0.0000E+00  0.1200E+02  0.1200E+02
    -31.026  0.0000E+00  0.0000E+00  0.1200E+02  0.1200E+02
    -30.839  0.0000E+00  0.0000E+00  0.1200E+02  0.1200E+02
    -30.651  0.0000E+00  0.0000E+00  0.1200E+02  0.1200E+02
    -30.464  0.0000E+00  0.0000E+00  0.1200E+02  0.1200E+02
    -30.277  0.0000E+00  0.0000E+00  0.1200E+02  0.1200E+02
    -30.089  0.0000E+00  0.0000E+00  0.1200E+02  0.1200E+02
    -29.902  0.0000E+00  0.0000E+00  0.1200E+02  0.1200E+02
    -29.715  0.0000E+00  0.0000E+00  0.1200E+02  0.1200E+02
    -29.527  0.0000E+00  0.0000E+00  0.1200E+02  0.1200E+02
    -29.340  0.0000E+00  0.0000E+00  0.1200E+02  0.1200E+02
    -29.153  0.0000E+00  0.0000E+00  0.1200E+02  0.1200E+02
    -28.965  0.0000E+00  0.0000E+00  0.1200E+02  0.1200E+02
    -28.778  0.0000E+00  0.0000E+00  0.1200E+02  0.1200E+02
    -28.591  0.0000E+00  0.0000E+00  0.1200E+02  0.1200E+02
    -28.403  0.0000E+00  0.0000E+00  0.1200E+02  0.1200E+02
    -28.216  0.0000E+00  0.0000E+00  0.1200E+02  0.1200E+02
    -28.029  0.0000E+00  0.0000E+00  0.1200E+02  0.1200E+02
    -27.841  0.0000E+00  0.0000E+00  0.1200E+02  0.1200E+02
    -27.654  0.0000E+00  0.0000E+00  0.1200E+02  0.1200E+02
    -27.467  0.0000E+00  0.0000E+00  0.1200E+02  0.1200E+02
    -27.279  0.0000E+00  0.0000E+00  0.1200E+02  0.1200E+02
    -27.092  0.0000E+00  0.0000E+00  0.1200E+02  0.1200E+02
    -26.905  0.0000E+00  0.0000E+00  0.1200E+02  0.1200E+02
    -26.717  0.0000E+00  0.0000E+00  0.1200E+02  0.1200E+02
    -26.530  0.0000E+00  0.0000E+00  0.1200E+02  0.1200E+02
    -26.343  0.0000E+00  0.0000E+00  0.1200E+02  0.1200E+02
    -26.155  0.0000E+00  0.0000E+00  0.1200E+02  0.1200E+02
    -25.968  0.0000E+00  0.0000E+00  0.1200E+02  0.1200E+02
    -25.780  0.0000E+00  0.0000E+00  0.1200E+02  0.1200E+02
    -25.593  0.0000E+00  0.0000E+00  0.1200E+02  0.1200E+02
    -25.406  0.0000E+00  0.0000E+00  0.1200E+02  0.1200E+02
    -25.218  0.0000E+00  0.0000E+00  0.1200E+02  0.1200E+02
    -25.031  0.0000E+00  0.0000E+00  0.1200E+02  0.1200E+02
    -24.844  0.0000E+00  0.0000E+00  0.1200E+02  0.1200E+02
    -24.656  0.0000E+00  0.0000E+00  0.1200E+02  0.1200E+02
    -24.469  0.0000E+00  0.0000E+00  0.1200E+02  0.1200E+02
    -24.282  0.0000E+00  0.0000E+00  0.1200E+02  0.1200E+02
    -24.094  0.0000E+00  0.0000E+00  0.1200E+02  0.1200E+02
    -23.907  0.0000E+00  0.0000E+00  0.1200E+02  0.1200E+02
    -23.720  0.0000E+00  0.0000E+00  0.1200E+02  0.1200E+02
    -23.532  0.0000E+00  0.0000E+00  0.1200E+02  0.1200E+02
    -23.345  0.0000E+00  0.0000E+00  0.1200E+02  0.1200E+02
    -23.158  0.0000E+00  0.0000E+00  0.1200E+02  0.1200E+02
    -22.970  0.0000E+00  0.0000E+00  0.1200E+02  0.1200E+02
    -22.783  0.0000E+00  0.0000E+00  0.1200E+02  0.1200E+02
    -22.596  0.0000E+00  0.0000E+00  0.1200E+02  0.1200E+02
    -22.408  0.0000E+00  0.0000E+00  0.1200E+02  0.1200E+02
    -22.221  0.0000E+00  0.0000E+00  0.1200E+02  0.1200E+02
    -22.034  0.0000E+00  0.0000E+00  0.1200E+02  0.1200E+02
    -21.846  0.0000E+00  0.0000E+00  0.1200E+02  0.1200E+02
    -21.659  0.0000E+00  0.0000E+00  0.1200E+02  0.1200E+02
    -21.472  0.0000E+00  0.0000E+00  0.1200E+02  0.1200E+02
    -21.284  0.0000E+00  0.0000E+00  0.1200E+02  0.1200E+02
    -21.097  0.0000E+00  0.0000E+00  0.1200E+02  0.1200E+02
    -20.910  0.0000E+00  0.0000E+00  0.1200E+02  0.1200E+02
    -20.722  0.0000E+00  0.0000E+00  0.1200E+02  0.1200E+02
    -20.535  0.0000E+00  0.0000E+00  0.1200E+02  0.1200E+02
    -20.348  0.0000E+00  0.0000E+00  0.1200E+02  0.1200E+02
    -20.160  0.0000E+00  0.0000E+00  0.1200E+02  0.1200E+02
    -19.973  0.0000E+00  0.0000E+00  0.1200E+02  0.1200E+02
    -19.786  0.0000E+00  0.0000E+00  0.1200E+02  0.1200E+02
    -19.598  0.0000E+00  0.0000E+00  0.1200E+02  0.1200E+02
    -19.411  0.0000E+00  0.0000E+00  0.1200E+02  0.1200E+02
    -19.224  0.0000E+00  0.0000E+00  0.1200E+02  0.1200E+02
    -19.036  0.0000E+00  0.0000E+00  0.1200E+02  0.1200E+02
    -18.849  0.0000E+00  0.0000E+00  0.1200E+02  0.1200E+02
    -18.662  0.0000E+00  0.0000E+00  0.1200E+02  0.1200E+02
    -18.474  0.0000E+00  0.0000E+00  0.1200E+02  0.1200E+02
    -18.287  0.0000E+00  0.0000E+00  0.1200E+02  0.1200E+02
    -18.100  0.0000E+00  0.0000E+00  0.1200E+02  0.1200E+02
    -17.912  0.0000E+00  0.0000E+00  0.1200E+02  0.1200E+02
    -17.725  0.0000E+00  0.0000E+00  0.1200E+02  0.1200E+02
    -17.538  0.0000E+00  0.0000E+00  0.1200E+02  0.1200E+02
    -17.350  0.0000E+00  0.0000E+00  0.1200E+02  0.1200E+02
    -17.163  0.0000E+00  0.0000E+00  0.1200E+02  0.1200E+02
    -16.976  0.0000E+00  0.0000E+00  0.1200E+02  0.1200E+02
    -16.788  0.0000E+00  0.0000E+00  0.1200E+02  0.1200E+02
    -16.601  0.0000E+00  0.0000E+00  0.1200E+02  0.1200E+02
    -16.414  0.0000E+00  0.0000E+00  0.1200E+02  0.1200E+02
    -16.226  0.0000E+00  0.0000E+00  0.1200E+02  0.1200E+02
    -16.039  0.0000E+00  0.0000E+00  0.1200E+02  0.1200E+02
    -15.852  0.0000E+00  0.0000E+00  0.1200E+02  0.1200E+02
    -15.664  0.0000E+00  0.0000E+00  0.1200E+02  0.1200E+02
    -15.477  0.0000E+00  0.0000E+00  0.1200E+02  0.1200E+02
    -15.290  0.3377E-04  0.3380E-04  0.1200E+02  0.1200E+02
    -15.102  0.1422E-02  0.1424E-02  0.1200E+02  0.1200E+02
    -14.915  0.5111E-01  0.5114E-01  0.1201E+02  0.1201E+02
    -14.728  0.4704E+00  0.4706E+00  0.1210E+02  0.1210E+02
    -14.540  0.1119E+01  0.1119E+01  0.1231E+02  0.1231E+02
    -14.353  0.2012E+01  0.2012E+01  0.1268E+02  0.1268E+02
    -14.166  0.3796E+01  0.3797E+01  0.1340E+02  0.1340E+02
    -13.978  0.7883E+01  0.7885E+01  0.1487E+02  0.1488E+02
    -13.791  0.5575E+01  0.5572E+01  0.1592E+02  0.1592E+02
    -13.604  0.3574E+00  0.3569E+00  0.1600E+02  0.1600E+02
    -13.416  0.0000E+00  0.0000E+00  0.1600E+02  0.1600E+02
    -13.229  0.0000E+00  0.0000E+00  0.1600E+02  0.1600E+02
    -13.042  0.0000E+00  0.0000E+00  0.1600E+02  0.1600E+02
    -12.854  0.0000E+00  0.0000E+00  0.1600E+02  0.1600E+02
    -12.667  0.0000E+00  0.0000E+00  0.1600E+02  0.1600E+02
    -12.480  0.0000E+00  0.0000E+00  0.1600E+02  0.1600E+02
    -12.292  0.0000E+00  0.0000E+00  0.1600E+02  0.1600E+02
    -12.105  0.0000E+00  0.0000E+00  0.1600E+02  0.1600E+02
    -11.918  0.0000E+00  0.0000E+00  0.1600E+02  0.1600E+02
    -11.730  0.0000E+00  0.0000E+00  0.1600E+02  0.1600E+02
    -11.543  0.0000E+00  0.0000E+00  0.1600E+02  0.1600E+02
    -11.356  0.0000E+00  0.0000E+00  0.1600E+02  0.1600E+02
    -11.168  0.0000E+00  0.0000E+00  0.1600E+02  0.1600E+02
    -10.981  0.0000E+00  0.0000E+00  0.1600E+02  0.1600E+02
    -10.794  0.0000E+00  0.0000E+00  0.1600E+02  0.1600E+02
    -10.606  0.0000E+00  0.0000E+00  0.1600E+02  0.1600E+02
    -10.419  0.0000E+00  0.0000E+00  0.1600E+02  0.1600E+02
    -10.232  0.0000E+00  0.0000E+00  0.1600E+02  0.1600E+02
    -10.044  0.0000E+00  0.0000E+00  0.1600E+02  0.1600E+02
     -9.857  0.0000E+00  0.0000E+00  0.1600E+02  0.1600E+02
     -9.670  0.0000E+00  0.0000E+00  0.1600E+02  0.1600E+02
     -9.482  0.0000E+00  0.0000E+00  0.1600E+02  0.1600E+02
     -9.295  0.0000E+00  0.0000E+00  0.1600E+02  0.1600E+02
     -9.108  0.0000E+00  0.0000E+00  0.1600E+02  0.1600E+02
     -8.920  0.0000E+00  0.0000E+00  0.1600E+02  0.1600E+02
     -8.733  0.0000E+00  0.0000E+00  0.1600E+02  0.1600E+02
     -8.546  0.0000E+00  0.0000E+00  0.1600E+02  0.1600E+02
     -8.358  0.0000E+00  0.0000E+00  0.1600E+02  0.1600E+02
     -8.171  0.0000E+00  0.0000E+00  0.1600E+02  0.1600E+02
     -7.984  0.0000E+00  0.0000E+00  0.1600E+02  0.1600E+02
     -7.796  0.0000E+00  0.0000E+00  0.1600E+02  0.1600E+02
     -7.609  0.0000E+00  0.0000E+00  0.1600E+02  0.1600E+02
     -7.422  0.0000E+00  0.0000E+00  0.1600E+02  0.1600E+02
     -7.234  0.0000E+00  0.0000E+00  0.1600E+02  0.1600E+02
     -7.047  0.0000E+00  0.0000E+00  0.1600E+02  0.1600E+02
     -6.860  0.0000E+00  0.0000E+00  0.1600E+02  0.1600E+02
     -6.672  0.0000E+00  0.0000E+00  0.1600E+02  0.1600E+02
     -6.485  0.0000E+00  0.0000E+00  0.1600E+02  0.1600E+02
     -6.298  0.0000E+00  0.0000E+00  0.1600E+02  0.1600E+02
     -6.110  0.0000E+00  0.0000E+00  0.1600E+02  0.1600E+02
     -5.923  0.0000E+00  0.0000E+00  0.1600E+02  0.1600E+02
     -5.736  0.0000E+00  0.0000E+00  0.1600E+02  0.1600E+02
     -5.548  0.0000E+00  0.0000E+00  0.1600E+02  0.1600E+02
     -5.361  0.0000E+00  0.0000E+00  0.1600E+02  0.1600E+02
     -5.173  0.0000E+00  0.0000E+00  0.1600E+02  0.1600E+02
     -4.986  0.0000E+00  0.0000E+00  0.1600E+02  0.1600E+02
     -4.799  0.0000E+00  0.0000E+00  0.1600E+02  0.1600E+02
     -4.611  0.0000E+00  0.0000E+00  0.1600E+02  0.1600E+02
     -4.424  0.0000E+00  0.0000E+00  0.1600E+02  0.1600E+02
     -4.237  0.0000E+00  0.0000E+00  0.1600E+02  0.1600E+02
     -4.049  0.0000E+00  0.0000E+00  0.1600E+02  0.1600E+02
     -3.862  0.0000E+00  0.0000E+00  0.1600E+02  0.1600E+02
     -3.675  0.0000E+00  0.0000E+00  0.1600E+02  0.1600E+02
     -3.487  0.0000E+00  0.0000E+00  0.1600E+02  0.1600E+02
     -3.300  0.0000E+00  0.0000E+00  0.1600E+02  0.1600E+02
     -3.113  0.0000E+00  0.0000E+00  0.1600E+02  0.1600E+02
     -2.925  0.0000E+00  0.0000E+00  0.1600E+02  0.1600E+02
     -2.738  0.3745E-04  0.3740E-04  0.1600E+02  0.1600E+02
     -2.551  0.1570E-02  0.1568E-02  0.1600E+02  0.1600E+02
     -2.363  0.6056E-01  0.6049E-01  0.1601E+02  0.1601E+02
     -2.176  0.5610E+00  0.5608E+00  0.1612E+02  0.1612E+02
     -1.989  0.1069E+01  0.1068E+01  0.1632E+02  0.1632E+02
     -1.801  0.2219E+01  0.2218E+01  0.1673E+02  0.1673E+02
     -1.614  0.3770E+01  0.3770E+01  0.1744E+02  0.1744E+02
     -1.427  0.5612E+01  0.5612E+01  0.1849E+02  0.1849E+02
     -1.239  0.3615E+01  0.3616E+01  0.1917E+02  0.1917E+02
     -1.052  0.1289E+01  0.1289E+01  0.1941E+02  0.1941E+02
     -0.865  0.1138E+01  0.1138E+01  0.1963E+02  0.1963E+02
     -0.677  0.1986E+01  0.1986E+01  0.2000E+02  0.2000E+02
     -0.490  0.1924E+01  0.1924E+01  0.2036E+02  0.2036E+02
     -0.303  0.2023E+01  0.2023E+01  0.2074E+02  0.2074E+02
     -0.115  0.2269E+01  0.2269E+01  0.2117E+02  0.2117E+02
      0.072  0.3078E+01  0.3078E+01  0.2175E+02  0.2175E+02
      0.259  0.3598E+01  0.3598E+01  0.2242E+02  0.2242E+02
      0.447  0.5832E+01  0.5832E+01  0.2352E+02  0.2352E+02
      0.634  0.6007E+01  0.6007E+01  0.2464E+02  0.2464E+02
      0.821  0.6828E+01  0.6829E+01  0.2593E+02  0.2593E+02
      1.009  0.5957E+01  0.5957E+01  0.2705E+02  0.2705E+02
      1.196  0.3491E+01  0.3491E+01  0.2770E+02  0.2770E+02
      1.383  0.1397E+01  0.1397E+01  0.2797E+02  0.2797E+02
      1.571  0.1483E+00  0.1482E+00  0.2800E+02  0.2800E+02
      1.758  0.0000E+00  0.0000E+00  0.2800E+02  0.2800E+02
      1.945  0.0000E+00  0.0000E+00  0.2800E+02  0.2800E+02
      2.133  0.0000E+00  0.0000E+00  0.2800E+02  0.2800E+02
      2.320  0.0000E+00  0.0000E+00  0.2800E+02  0.2800E+02
      2.507  0.0000E+00  0.0000E+00  0.2800E+02  0.2800E+02
      2.695  0.0000E+00  0.0000E+00  0.2800E+02  0.2800E+02
      2.882  0.0000E+00  0.0000E+00  0.2800E+02  0.2800E+02
      3.069  0.0000E+00  0.0000E+00  0.2800E+02  0.2800E+02
      3.257  0.0000E+00  0.0000E+00  0.2800E+02  0.2800E+02
      3.444  0.0000E+00  0.0000E+00  0.2800E+02  0.2800E+02
      3.631  0.0000E+00  0.0000E+00  0.2800E+02  0.2800E+02
      3.819  0.0000E+00  0.0000E+00  0.2800E+02  0.2800E+02
      4.006  0.0000E+00  0.0000E+00  0.2800E+02  0.2800E+02
      4.193  0.2234E-04  0.2230E-04  0.2800E+02  0.2800E+02
      4.381  0.9203E-03  0.9184E-03  0.2800E+02  0.2800E+02
      4.568  0.3242E-01  0.3237E-01  0.2801E+02  0.2801E+02
      4.755  0.1438E+00  0.1438E+00  0.2803E+02  0.2803E+02
      4.943  0.2004E-01  0.2008E-01  0.2804E+02  0.2804E+02
      5.130  0.1110E-03  0.1108E-03  0.2804E+02  0.2804E+02
      5.317  0.4558E-02  0.4551E-02  0.2804E+02  0.2804E+02
      5.505  0.1446E+00  0.1444E+00  0.2806E+02  0.2806E+02
      5.692  0.4050E+00  0.4051E+00  0.2814E+02  0.2814E+02
      5.879  0.3928E-01  0.3933E-01  0.2815E+02  0.2815E+02
      6.067  0.5280E-01  0.5272E-01  0.2816E+02  0.2816E+02
      6.254  0.4265E+00  0.4265E+00  0.2824E+02  0.2824E+02
      6.441  0.1229E+00  0.1230E+00  0.2826E+02  0.2826E+02
      6.629  0.1519E+00  0.1518E+00  0.2829E+02  0.2829E+02
      6.816  0.3560E+00  0.3559E+00  0.2836E+02  0.2836E+02
      7.003  0.2761E+00  0.2763E+00  0.2841E+02  0.2841E+02
      7.191  0.5004E+00  0.4999E+00  0.2850E+02  0.2850E+02
      7.378  0.1003E+01  0.1003E+01  0.2869E+02  0.2869E+02
      7.565  0.2680E+00  0.2683E+00  0.2874E+02  0.2874E+02
      7.753  0.2918E+00  0.2913E+00  0.2880E+02  0.2880E+02
      7.940  0.8062E+00  0.8062E+00  0.2895E+02  0.2895E+02
      8.127  0.9385E+00  0.9384E+00  0.2912E+02  0.2912E+02
      8.315  0.8985E+00  0.8984E+00  0.2929E+02  0.2929E+02
      8.502  0.1657E+01  0.1657E+01  0.2960E+02  0.2960E+02
      8.689  0.8998E+00  0.9005E+00  0.2977E+02  0.2977E+02
      8.877  0.7005E+00  0.6997E+00  0.2990E+02  0.2990E+02
      9.064  0.1593E+01  0.1594E+01  0.3020E+02  0.3020E+02
      9.251  0.6077E+00  0.6096E+00  0.3032E+02  0.3032E+02
      9.439  0.1805E+01  0.1802E+01  0.3065E+02  0.3065E+02
      9.626  0.1623E+01  0.1624E+01  0.3096E+02  0.3096E+02
      9.813  0.6978E+00  0.7061E+00  0.3109E+02  0.3109E+02
     10.001  0.1488E+01  0.1480E+01  0.3137E+02  0.3137E+02
     10.188  0.1139E+01  0.1132E+01  0.3159E+02  0.3158E+02
     10.375  0.1368E+01  0.1362E+01  0.3184E+02  0.3184E+02
     10.563  0.4393E+00  0.4240E+00  0.3192E+02  0.3192E+02
     10.750  0.1979E+01  0.1904E+01  0.3230E+02  0.3228E+02
     10.937  0.1718E+01  0.1815E+01  0.3262E+02  0.3262E+02
     11.125  0.2233E+01  0.2246E+01  0.3304E+02  0.3304E+02
     11.312  0.3319E+01  0.3309E+01  0.3366E+02  0.3366E+02
     11.499  0.3922E+01  0.3904E+01  0.3440E+02  0.3439E+02
     11.687  0.3457E+01  0.3457E+01  0.3505E+02  0.3504E+02
     11.874  0.1807E+01  0.1829E+01  0.3539E+02  0.3539E+02
     12.061  0.2405E+01  0.2400E+01  0.3584E+02  0.3584E+02
     12.249  0.5935E+00  0.6017E+00  0.3595E+02  0.3595E+02
     12.436  0.7903E-01  0.8180E-01  0.3597E+02  0.3597E+02
     12.623  0.1407E+00  0.1392E+00  0.3600E+02  0.3600E+02
     12.811  0.1625E-01  0.1502E-01  0.3600E+02  0.3600E+02
     12.998  0.0000E+00  0.0000E+00  0.3600E+02  0.3600E+02
     13.185  0.0000E+00  0.0000E+00  0.3600E+02  0.3600E+02
     13.373  0.0000E+00  0.0000E+00  0.3600E+02  0.3600E+02
     13.560  0.0000E+00  0.0000E+00  0.3600E+02  0.3600E+02
     13.747  0.0000E+00  0.0000E+00  0.3600E+02  0.3600E+02
     13.935  0.0000E+00  0.0000E+00  0.3600E+02  0.3600E+02
     14.122  0.0000E+00  0.0000E+00  0.3600E+02  0.3600E+02
     14.309  0.0000E+00  0.0000E+00  0.3600E+02  0.3600E+02
     14.497  0.0000E+00  0.0000E+00  0.3600E+02  0.3600E+02
     14.684  0.0000E+00  0.0000E+00  0.3600E+02  0.3600E+02
     14.871  0.0000E+00  0.0000E+00  0.3600E+02  0.3600E+02
     15.059  0.0000E+00  0.0000E+00  0.3600E+02  0.3600E+02
     15.05882853    -41.14207984  301      2.50875589      1.00000000
    -41.142  0.0000E+00  0.0000E+00  0.0000E+00  0.0000E+00  0.0000E+00  0.0000E+00  0.0000E+00  0.0000E+00  0.0000E+00  0.0000E+00  0.0000E+00  0.0000E+00  0.0000E+00  0.0000E+00  0.0000E+00  0.0000E+00  0.0000E+00  0.0000E+00
    -40.955  0.0000E+00  0.0000E+00  0.0000E+00  0.0000E+00  0.0000E+00  0.0000E+00  0.0000E+00  0.0000E+00  0.0000E+00  0.0000E+00  0.0000E+00  0.0000E+00  0.0000E+00  0.0000E+00  0.0000E+00  0.0000E+00  0.0000E+00  0.0000E+00
    -40.767  0.0000E+00  0.0000E+00  0.0000E+00  0.0000E+00  0.0000E+00  0.0000E+00  0.0000E+00  0.0000E+00  0.0000E+00  0.0000E+00  0.0000E+00  0.0000E+00  0.0000E+00  0.0000E+00  0.0000E+00  0.0000E+00  0.0000E+00  0.0000E+00
    -40.580  0.0000E+00  0.0000E+00  0.0000E+00  0.0000E+00  0.0000E+00  0.0000E+00  0.0000E+00  0.0000E+00  0.0000E+00  0.0000E+00  0.0000E+00  0.0000E+00  0.0000E+00  0.0000E+00  0.0000E+00  0.0000E+00  0.0000E+00  0.0000E+00
    -40.393  0.0000E+00  0.0000E+00  0.0000E+00  0.0000E+00  0.0000E+00  0.0000E+00  0.0000E+00  0.0000E+00  0.0000E+00  0.0000E+00  0.0000E+00  0.0000E+00  0.0000E+00  0.0000E+00  0.0000E+00  0.0000E+00  0.0000E+00  0.0000E+00
    -40.205  0.0000E+00  0.0000E+00  0.0000E+00  0.0000E+00  0.0000E+00  0.0000E+00  0.0000E+00  0.0000E+00  0.0000E+00  0.0000E+00  0.0000E+00  0.0000E+00  0.0000E+00  0.0000E+00  0.0000E+00  0.0000E+00  0.0000E+00  0.0000E+00
    -40.018  0.0000E+00  0.0000E+00  0.0000E+00  0.0000E+00  0.0000E+00  0.0000E+00  0.0000E+00  0.0000E+00  0.0000E+00  0.0000E+00  0.0000E+00  0.0000E+00  0.0000E+00  0.0000E+00  0.0000E+00  0.0000E+00  0.0000E+00  0.0000E+00
    -39.831  0.0000E+00  0.0000E+00  0.0000E+00  0.0000E+00  0.0000E+00  0.0000E+00  0.0000E+00  0.0000E+00  0.0000E+00  0.0000E+00  0.0000E+00  0.0000E+00  0.0000E+00  0.0000E+00  0.0000E+00  0.0000E+00  0.0000E+00  0.0000E+00
    -39.643  0.0000E+00  0.0000E+00  0.0000E+00  0.0000E+00  0.0000E+00  0.0000E+00  0.0000E+00  0.0000E+00  0.0000E+00  0.0000E+00  0.0000E+00  0.0000E+00  0.0000E+00  0.0000E+00  0.0000E+00  0.0000E+00  0.0000E+00  0.0000E+00
    -39.456  0.0000E+00  0.0000E+00  0.0000E+00  0.0000E+00  0.0000E+00  0.0000E+00  0.0000E+00  0.0000E+00  0.0000E+00  0.0000E+00  0.0000E+00  0.0000E+00  0.0000E+00  0.0000E+00  0.0000E+00  0.0000E+00  0.0000E+00  0.0000E+00
    -39.269  0.0000E+00  0.0000E+00  0.0000E+00  0.0000E+00  0.0000E+00  0.0000E+00  0.0000E+00  0.0000E+00  0.0000E+00  0.0000E+00  0.0000E+00  0.0000E+00  0.0000E+00  0.0000E+00  0.0000E+00  0.0000E+00  0.0000E+00  0.0000E+00
    -39.081  0.1292E-09  0.1293E-09  0.1912E-03  0.1913E-03  0.1912E-03  0.1913E-03  0.1912E-03  0.1913E-03  0.1198E-10  0.1199E-10  0.1198E-10  0.1199E-10  0.8640E-11  0.8641E-11  0.1198E-10  0.1199E-10  0.8640E-11  0.8641E-11
    -38.894  0.5335E-08  0.5340E-08  0.7898E-02  0.7904E-02  0.7898E-02  0.7904E-02  0.7898E-02  0.7904E-02  0.4949E-09  0.4954E-09  0.4949E-09  0.4954E-09  0.3570E-09  0.3570E-09  0.4949E-09  0.4954E-09  0.3570E-09  0.3570E-09
    -38.707  0.2108E-06  0.2109E-06  0.3138E+00  0.3141E+00  0.3138E+00  0.3141E+00  0.3138E+00  0.3141E+00  0.1965E-07  0.1967E-07  0.1965E-07  0.1967E-07  0.1417E-07  0.1417E-07  0.1965E-07  0.1967E-07  0.1417E-07  0.1417E-07
    -38.519  0.2207E-05  0.2207E-05  0.3543E+01  0.3544E+01  0.3543E+01  0.3544E+01  0.3543E+01  0.3544E+01  0.2192E-06  0.2193E-06  0.2192E-06  0.2193E-06  0.1578E-06  0.1577E-06  0.2192E-06  0.2193E-06  0.1578E-06  0.1577E-06
    -38.332  0.7794E-06  0.7790E-06  0.1393E+01  0.1392E+01  0.1393E+01  0.1392E+01  0.1393E+01  0.1392E+01  0.8419E-07  0.8416E-07  0.8419E-07  0.8416E-07  0.6072E-07  0.6064E-07  0.8419E-07  0.8416E-07  0.6072E-07  0.6064E-07
    -38.145  0.0000E+00  0.0000E+00  0.0000E+00  0.0000E+00  0.0000E+00  0.0000E+00  0.0000E+00  0.0000E+00  0.0000E+00  0.0000E+00  0.0000E+00  0.0000E+00  0.0000E+00  0.0000E+00  0.0000E+00  0.0000E+00  0.0000E+00  0.0000E+00
    -37.957  0.0000E+00  0.0000E+00  0.0000E+00  0.0000E+00  0.0000E+00  0.0000E+00  0.0000E+00  0.0000E+00  0.0000E+00  0.0000E+00  0.0000E+00  0.0000E+00  0.0000E+00  0.0000E+00  0.0000E+00  0.0000E+00  0.0000E+00  0.0000E+00
    -37.770  0.0000E+00  0.0000E+00  0.0000E+00  0.0000E+00  0.0000E+00  0.0000E+00  0.0000E+00  0.0000E+00  0.0000E+00  0.0000E+00  0.0000E+00  0.0000E+00  0.0000E+00  0.0000E+00  0.0000E+00  0.0000E+00  0.0000E+00  0.0000E+00
    -37.583  0.0000E+00  0.0000E+00  0.0000E+00  0.0000E+00  0.0000E+00  0.0000E+00  0.0000E+00  0.0000E+00  0.0000E+00  0.0000E+00  0.0000E+00  0.0000E+00  0.0000E+00  0.0000E+00  0.0000E+00  0.0000E+00  0.0000E+00  0.0000E+00
    -37.395  0.0000E+00  0.0000E+00  0.0000E+00  0.0000E+00  0.0000E+00  0.0000E+00  0.0000E+00  0.0000E+00  0.0000E+00  0.0000E+00  0.0000E+00  0.0000E+00  0.0000E+00  0.0000E+00  0.0000E+00  0.0000E+00  0.0000E+00  0.0000E+00
    -37.208  0.0000E+00  0.0000E+00  0.0000E+00  0.0000E+00  0.0000E+00  0.0000E+00  0.0000E+00  0.0000E+00  0.0000E+00  0.0000E+00  0.0000E+00  0.0000E+00  0.0000E+00  0.0000E+00  0.0000E+00  0.0000E+00  0.0000E+00  0.0000E+00
    -37.021  0.0000E+00  0.0000E+00  0.0000E+00  0.0000E+00  0.0000E+00  0.0000E+00  0.0000E+00  0.0000E+00  0.0000E+00  0.0000E+00  0.0000E+00  0.0000E+00  0.0000E+00  0.0000E+00  0.0000E+00  0.0000E+00  0.0000E+00  0.0000E+00
    -36.833  0.0000E+00  0.0000E+00  0.0000E+00  0.0000E+00  0.0000E+00  0.0000E+00  0.0000E+00  0.0000E+00  0.0000E+00  0.0000E+00  0.0000E+00  0.0000E+00  0.0000E+00  0.0000E+00  0.0000E+00  0.0000E+00  0.0000E+00  0.0000E+00
    -36.646  0.0000E+00  0.0000E+00  0.0000E+00  0.0000E+00  0.0000E+00  0.0000E+00  0.0000E+00  0.0000E+00  0.0000E+00  0.0000E+00  0.0000E+00  0.0000E+00  0.0000E+00  0.0000E+00  0.0000E+00  0.0000E+00  0.0000E+00  0.0000E+00
    -36.459  0.0000E+00  0.0000E+00  0.0000E+00  0.0000E+00  0.0000E+00  0.0000E+00  0.0000E+00  0.0000E+00  0.0000E+00  0.0000E+00  0.0000E+00  0.0000E+00  0.0000E+00  0.0000E+00  0.0000E+00  0.0000E+00  0.0000E+00  0.0000E+00
    -36.271  0.0000E+00  0.0000E+00  0.0000E+00  0.0000E+00  0.0000E+00  0.0000E+00  0.0000E+00  0.0000E+00  0.0000E+00  0.0000E+00  0.0000E+00  0.0000E+00  0.0000E+00  0.0000E+00  0.0000E+00  0.0000E+00  0.0000E+00  0.0000E+00
    -36.084  0.0000E+00  0.0000E+00  0.0000E+00  0.0000E+00  0.0000E+00  0.0000E+00  0.0000E+00  0.0000E+00  0.0000E+00  0.0000E+00  0.0000E+00  0.0000E+00  0.0000E+00  0.0000E+00  0.0000E+00  0.0000E+00  0.0000E+00  0.0000E+00
    -35.897  0.0000E+00  0.0000E+00  0.0000E+00  0.0000E+00  0.0000E+00  0.0000E+00  0.0000E+00  0.0000E+00  0.0000E+00  0.0000E+00  0.0000E+00  0.0000E+00  0.0000E+00  0.0000E+00  0.0000E+00  0.0000E+00  0.0000E+00  0.0000E+00
    -35.709  0.0000E+00  0.0000E+00  0.0000E+00  0.0000E+00  0.0000E+00  0.0000E+00  0.0000E+00  0.0000E+00  0.0000E+00  0.0000E+00  0.0000E+00  0.0000E+00  0.0000E+00  0.0000E+00  0.0000E+00  0.0000E+00  0.0000E+00  0.0000E+00
    -35.522  0.0000E+00  0.0000E+00  0.0000E+00  0.0000E+00  0.0000E+00  0.0000E+00  0.0000E+00  0.0000E+00  0.0000E+00  0.0000E+00  0.0000E+00  0.0000E+00  0.0000E+00  0.0000E+00  0.0000E+00  0.0000E+00  0.0000E+00  0.0000E+00
    -35.335  0.0000E+00  0.0000E+00  0.0000E+00  0.0000E+00  0.0000E+00  0.0000E+00  0.0000E+00  0.0000E+00  0.0000E+00  0.0000E+00  0.0000E+00  0.0000E+00  0.0000E+00  0.0000E+00  0.0000E+00  0.0000E+00  0.0000E+00  0.0000E+00
    -35.147  0.0000E+00  0.0000E+00  0.0000E+00  0.0000E+00  0.0000E+00  0.0000E+00  0.0000E+00  0.0000E+00  0.0000E+00  0.0000E+00  0.0000E+00  0.0000E+00  0.0000E+00  0.0000E+00  0.0000E+00  0.0000E+00  0.0000E+00  0.0000E+00
    -34.960  0.0000E+00  0.0000E+00  0.0000E+00  0.0000E+00  0.0000E+00  0.0000E+00  0.0000E+00  0.0000E+00  0.0000E+00  0.0000E+00  0.0000E+00  0.0000E+00  0.0000E+00  0.0000E+00  0.0000E+00  0.0000E+00  0.0000E+00  0.0000E+00
    -34.773  0.0000E+00  0.0000E+00  0.0000E+00  0.0000E+00  0.0000E+00  0.0000E+00  0.0000E+00  0.0000E+00  0.0000E+00  0.0000E+00  0.0000E+00  0.0000E+00  0.0000E+00  0.0000E+00  0.0000E+00  0.0000E+00  0.0000E+00  0.0000E+00
    -34.585  0.0000E+00  0.0000E+00  0.0000E+00  0.0000E+00  0.0000E+00  0.0000E+00  0.0000E+00  0.0000E+00  0.0000E+00  0.0000E+00  0.0000E+00  0.0000E+00  0.0000E+00  0.0000E+00  0.0000E+00  0.0000E+00  0.0000E+00  0.0000E+00
    -34.398  0.0000E+00  0.0000E+00  0.0000E+00  0.0000E+00  0.0000E+00  0.0000E+00  0.0000E+00  0.0000E+00  0.0000E+00  0.0000E+00  0.0000E+00  0.0000E+00  0.0000E+00  0.0000E+00  0.0000E+00  0.0000E+00  0.0000E+00  0.0000E+00
    -34.211  0.0000E+00  0.0000E+00  0.0000E+00  0.0000E+00  0.0000E+00  0.0000E+00  0.0000E+00  0.0000E+00  0.0000E+00  0.0000E+00  0.0000E+00  0.0000E+00  0.0000E+00  0.0000E+00  0.0000E+00  0.0000E+00  0.0000E+00  0.0000E+00
    -34.023  0.0000E+00  0.0000E+00  0.0000E+00  0.0000E+00  0.0000E+00  0.0000E+00  0.0000E+00  0.0000E+00  0.0000E+00  0.0000E+00  0.0000E+00  0.0000E+00  0.0000E+00  0.0000E+00  0.0000E+00  0.0000E+00  0.0000E+00  0.0000E+00
    -33.836  0.0000E+00  0.0000E+00  0.0000E+00  0.0000E+00  0.0000E+00  0.0000E+00  0.0000E+00  0.0000E+00  0.0000E+00  0.0000E+00  0.0000E+00  0.0000E+00  0.0000E+00  0.0000E+00  0.0000E+00  0.0000E+00  0.0000E+00  0.0000E+00
    -33.649  0.0000E+00  0.0000E+00  0.0000E+00  0.0000E+00  0.0000E+00  0.0000E+00  0.0000E+00  0.0000E+00  0.0000E+00  0.0000E+00  0.0000E+00  0.0000E+00  0.0000E+00  0.0000E+00  0.0000E+00  0.0000E+00  0.0000E+00  0.0000E+00
    -33.461  0.0000E+00  0.0000E+00  0.0000E+00  0.0000E+00  0.0000E+00  0.0000E+00  0.0000E+00  0.0000E+00  0.0000E+00  0.0000E+00  0.0000E+00  0.0000E+00  0.0000E+00  0.0000E+00  0.0000E+00  0.0000E+00  0.0000E+00  0.0000E+00
    -33.274  0.0000E+00  0.0000E+00  0.0000E+00  0.0000E+00  0.0000E+00  0.0000E+00  0.0000E+00  0.0000E+00  0.0000E+00  0.0000E+00  0.0000E+00  0.0000E+00  0.0000E+00  0.0000E+00  0.0000E+00  0.0000E+00  0.0000E+00  0.0000E+00
    -33.087  0.0000E+00  0.0000E+00  0.0000E+00  0.0000E+00  0.0000E+00  0.0000E+00  0.0000E+00  0.0000E+00  0.0000E+00  0.0000E+00  0.0000E+00  0.0000E+00  0.0000E+00  0.0000E+00  0.0000E+00  0.0000E+00  0.0000E+00  0.0000E+00
    -32.899  0.0000E+00  0.0000E+00  0.0000E+00  0.0000E+00  0.0000E+00  0.0000E+00  0.0000E+00  0.0000E+00  0.0000E+00  0.0000E+00  0.0000E+00  0.0000E+00  0.0000E+00  0.0000E+00  0.0000E+00  0.0000E+00  0.0000E+00  0.0000E+00
    -32.712  0.0000E+00  0.0000E+00  0.0000E+00  0.0000E+00  0.0000E+00  0.0000E+00  0.0000E+00  0.0000E+00  0.0000E+00  0.0000E+00  0.0000E+00  0.0000E+00  0.0000E+00  0.0000E+00  0.0000E+00  0.0000E+00  0.0000E+00  0.0000E+00
    -32.525  0.0000E+00  0.0000E+00  0.0000E+00  0.0000E+00  0.0000E+00  0.0000E+00  0.0000E+00  0.0000E+00  0.0000E+00  0.0000E+00  0.0000E+00  0.0000E+00  0.0000E+00  0.0000E+00  0.0000E+00  0.0000E+00  0.0000E+00  0.0000E+00
    -32.337  0.0000E+00  0.0000E+00  0.0000E+00  0.0000E+00  0.0000E+00  0.0000E+00  0.0000E+00  0.0000E+00  0.0000E+00  0.0000E+00  0.0000E+00  0.0000E+00  0.0000E+00  0.0000E+00  0.0000E+00  0.0000E+00  0.0000E+00  0.0000E+00
    -32.150  0.0000E+00  0.0000E+00  0.0000E+00  0.0000E+00  0.0000E+00  0.0000E+00  0.0000E+00  0.0000E+00  0.0000E+00  0.0000E+00  0.0000E+00  0.0000E+00  0.0000E+00  0.0000E+00  0.0000E+00  0.0000E+00  0.0000E+00  0.0000E+00
    -31.963  0.0000E+00  0.0000E+00  0.0000E+00  0.0000E+00  0.0000E+00  0.0000E+00  0.0000E+00  0.0000E+00  0.0000E+00  0.0000E+00  0.0000E+00  0.0000E+00  0.0000E+00  0.0000E+00  0.0000E+00  0.0000E+00  0.0000E+00  0.0000E+00
    -31.775  0.0000E+00  0.0000E+00  0.0000E+00  0.0000E+00  0.0000E+00  0.0000E+00  0.0000E+00  0.0000E+00  0.0000E+00  0.0000E+00  0.0000E+00  0.0000E+00  0.0000E+00  0.0000E+00  0.0000E+00  0.0000E+00  0.0000E+00  0.0000E+00