   8   8   1   0
  0.1110508E+02  0.4462078E-09  0.4462078E-09  0.4462078E-09  0.5000000E-15
  1.000000000000000E-004
  CAR 
 unknown system                          
     15.91097643    -40.60843929  301      2.72605648      1.00000000
    -40.608  0.0000E+00  0.0000E+00  0.0000E+00  0.0000E+00
    -40.420  0.0000E+00  0.0000E+00  0.0000E+00  0.0000E+00
    -40.232  0.0000E+00  0.0000E+00  0.0000E+00  0.0000E+00
    -40.043  0.0000E+00  0.0000E+00  0.0000E+00  0.0000E+00
    -39.855  0.0000E+00  0.0000E+00  0.0000E+00  0.0000E+00
    -39.666  0.0000E+00  0.0000E+00  0.0000E+00  0.0000E+00
    -39.478  0.0000E+00  0.0000E+00  0.0000E+00  0.0000E+00
    -39.290  0.0000E+00  0.0000E+00  0.0000E+00  0.0000E+00
    -39.101  0.0000E+00  0.0000E+00  0.0000E+00  0.0000E+00
    -38.913  0.0000E+00  0.0000E+00  0.0000E+00  0.0000E+00
    -38.724  0.0000E+00  0.0000E+00  0.0000E+00  0.0000E+00
    -38.536  0.1972E-02  0.1974E-02  0.3716E-03  0.3718E-03
    -38.348  0.8329E-01  0.8335E-01  0.1606E-01  0.1607E-01
    -38.159  0.3399E+01  0.3401E+01  0.6565E+00  0.6569E+00
    -37.971  0.4163E+02  0.4163E+02  0.8499E+01  0.8500E+01
    -37.782  0.1798E+02  0.1797E+02  0.1189E+02  0.1189E+02
    -37.594  0.0000E+00  0.0000E+00  0.1200E+02  0.1200E+02
    -37.406  0.0000E+00  0.0000E+00  0.1200E+02  0.1200E+02
    -37.217  0.0000E+00  0.0000E+00  0.1200E+02  0.1200E+02
    -37.029  0.0000E+00  0.0000E+00  0.1200E+02  0.1200E+02
    -36.840  0.0000E+00  0.0000E+00  0.1200E+02  0.1200E+02
    -36.652  0.0000E+00  0.0000E+00  0.1200E+02  0.1200E+02
    -36.464  0.0000E+00  0.0000E+00  0.1200E+02  0.1200E+02
    -36.275  0.0000E+00  0.0000E+00  0.1200E+02  0.1200E+02
    -36.087  0.0000E+00  0.0000E+00  0.1200E+02  0.1200E+02
    -35.898  0.0000E+00  0.0000E+00  0.1200E+02  0.1200E+02
    -35.710  0.0000E+00  0.0000E+00  0.1200E+02  0.1200E+02
    -35.522  0.0000E+00  0.0000E+00  0.1200E+02  0.1200E+02
    -35.333  0.0000E+00  0.0000E+00  0.1200E+02  0.1200E+02
    -35.145  0.0000E+00  0.0000E+00  0.1200E+02  0.1200E+02
    -34.956  0.0000E+00  0.0000E+00  0.1200E+02  0.1200E+02
    -34.768  0.0000E+00  0.0000E+00  0.1200E+02  0.1200E+02
    -34.580  0.0000E+00  0.0000E+00  0.1200E+02  0.1200E+02
    -34.391  0.0000E+00  0.0000E+00  0.1200E+02  0.1200E+02
    -34.203  0.0000E+00  0.0000E+00  0.1200E+02  0.1200E+02
    -34.015  0.0000E+00  0.0000E+00  0.1200E+02  0.1200E+02
    -33.826  0.0000E+00  0.0000E+00  0.1200E+02  0.1200E+02
    -33.638  0.0000E+00  0.0000E+00  0.1200E+02  0.1200E+02
    -33.449  0.0000E+00  0.0000E+00  0.1200E+02  0.1200E+02
    -33.261  0.0000E+00  0.0000E+00  0.1200E+02  0.1200E+02
    -33.073  0.0000E+00  0.0000E+00  0.1200E+02  0.1200E+02
    -32.884  0.0000E+00  0.0000E+00  0.1200E+02  0.1200E+02
    -32.696  0.0000E+00  0.0000E+00  0.1200E+02  0.1200E+02
    -32.507  0.0000E+00  0.0000E+00  0.1200E+02  0.1200E+02
    -32.319  0.0000E+00  0.0000E+00  0.1200E+02  0.1200E+02
    -32.131  0.0000E+00  0.0000E+00  0.1200E+02  0.1200E+02
    -31.942  0.0000E+00  0.0000E+00  0.1200E+02  0.1200E+02
    -31.754  0.0000E+00  0.0000E+00  0.1200E+02  0.1200E+02
    -31.565  0.0000E+00  0.0000E+00  0.1200E+02  0.1200E+02
    -31.377  0.0000E+00  0.0000E+00  0.1200E+02  0.1200E+02
    -31.189  0.0000E+00  0.0000E+00  0.1200E+02  0.1200E+02
    -31.000  0.0000E+00  0.0000E+00  0.1200E+02  0.1200E+02
    -30.812  0.0000E+00  0.0000E+00  0.1200E+02  0.1200E+02
    -30.623  0.0000E+00  0.0000E+00  0.1200E+02  0.1200E+02
    -30.435  0.0000E+00  0.0000E+00  0.1200E+02  0.1200E+02
    -30.247  0.0000E+00  0.0000E+00  0.1200E+02  0.1200E+02
    -30.058  0.0000E+00  0.0000E+00  0.1200E+02  0.1200E+02
    -29.870  0.0000E+00  0.0000E+00  0.1200E+02  0.1200E+02
    -29.681  0.0000E+00  0.0000E+00  0.1200E+02  0.1200E+02
    -29.493  0.0000E+00  0.0000E+00  0.1200E+02  0.1200E+02
    -29.305  0.0000E+00  0.0000E+00  0.1200E+02  0.1200E+02
    -29.116  0.0000E+00  0.0000E+00  0.1200E+02  0.1200E+02
    -28.928  0.0000E+00  0.0000E+00  0.1200E+02  0.1200E+02
    -28.739  0.0000E+00  0.0000E+00  0.1200E+02  0.1200E+02
    -28.551  0.0000E+00  0.0000E+00  0.1200E+02  0.1200E+02
    -28.363  0.0000E+00  0.0000E+00  0.1200E+02  0.1200E+02
    -28.174  0.0000E+00  0.0000E+00  0.1200E+02  0.1200E+02
    -27.986  0.0000E+00  0.0000E+00  0.1200E+02  0.1200E+02
    -27.797  0.0000E+00  0.0000E+00  0.1200E+02  0.1200E+02
    -27.609  0.0000E+00  0.0000E+00  0.1200E+02  0.1200E+02
    -27.421  0.0000E+00  0.0000E+00  0.1200E+02  0.1200E+02
    -27.232  0.0000E+00  0.0000E+00  0.1200E+02  0.1200E+02
    -27.044  0.0000E+00  0.0000E+00  0.1200E+02  0.1200E+02
    -26.855  0.0000E+00  0.0000E+00  0.1200E+02  0.1200E+02
    -26.667  0.0000E+00  0.0000E+00  0.1200E+02  0.1200E+02
    -26.479  0.0000E+00  0.0000E+00  0.1200E+02  0.1200E+02
    -26.290  0.0000E+00  0.0000E+00  0.1200E+02  0.1200E+02
    -26.102  0.0000E+00  0.0000E+00  0.1200E+02  0.1200E+02
    -25.913  0.0000E+00  0.0000E+00  0.1200E+02  0.1200E+02
    -25.725  0.0000E+00  0.0000E+00  0.1200E+02  0.1200E+02
    -25.537  0.0000E+00  0.0000E+00  0.1200E+02  0.1200E+02
    -25.348  0.0000E+00  0.0000E+00  0.1200E+02  0.1200E+02
    -25.160  0.0000E+00  0.0000E+00  0.1200E+02  0.1200E+02
    -24.971  0.0000E+00  0.0000E+00  0.1200E+02  0.1200E+02
    -24.783  0.0000E+00  0.0000E+00  0.1200E+02  0.1200E+02
    -24.595  0.0000E+00  0.0000E+00  0.1200E+02  0.1200E+02
    -24.406  0.0000E+00  0.0000E+00  0.1200E+02  0.1200E+02
    -24.218  0.0000E+00  0.0000E+00  0.1200E+02  0.1200E+02
    -24.029  0.0000E+00  0.0000E+00  0.1200E+02  0.1200E+02
    -23.841  0.0000E+00  0.0000E+00  0.1200E+02  0.1200E+02
    -23.653  0.0000E+00  0.0000E+00  0.1200E+02  0.1200E+02
    -23.464  0.0000E+00  0.0000E+00  0.1200E+02  0.1200E+02
    -23.276  0.0000E+00  0.0000E+00  0.1200E+02  0.1200E+02
    -23.087  0.0000E+00  0.0000E+00  0.1200E+02  0.1200E+02
    -22.899  0.0000E+00  0.0000E+00  0.1200E+02  0.1200E+02
    -22.711  0.0000E+00  0.0000E+00  0.1200E+02  0.1200E+02
    -22.522  0.0000E+00  0.0000E+00  0.1200E+02  0.1200E+02
    -22.334  0.0000E+00  0.0000E+00  0.1200E+02  0.1200E+02
    -22.145  0.0000E+00  0.0000E+00  0.1200E+02  0.1200E+02
    -21.957  0.0000E+00  0.0000E+00  0.1200E+02  0.1200E+02
    -21.769  0.0000E+00  0.0000E+00  0.1200E+02  0.1200E+02
    -21.580  0.0000E+00  0.0000E+00  0.1200E+02  0.1200E+02
    -21.392  0.0000E+00  0.0000E+00  0.1200E+02  0.1200E+02
    -21.203  0.0000E+00  0.0000E+00  0.1200E+02  0.1200E+02
    -21.015  0.0000E+00  0.0000E+00  0.1200E+02  0.1200E+02
    -20.827  0.0000E+00  0.0000E+00  0.1200E+02  0.1200E+02
    -20.638  0.0000E+00  0.0000E+00  0.1200E+02  0.1200E+02
    -20.450  0.0000E+00  0.0000E+00  0.1200E+02  0.1200E+02
    -20.261  0.0000E+00  0.0000E+00  0.1200E+02  0.1200E+02
    -20.073  0.0000E+00  0.0000E+00  0.1200E+02  0.1200E+02
    -19.885  0.0000E+00  0.0000E+00  0.1200E+02  0.1200E+02
    -19.696  0.0000E+00  0.0000E+00  0.1200E+02  0.1200E+02
    -19.508  0.0000E+00  0.0000E+00  0.1200E+02  0.1200E+02
    -19.319  0.0000E+00  0.0000E+00  0.1200E+02  0.1200E+02
    -19.131  0.0000E+00  0.0000E+00  0.1200E+02  0.1200E+02
    -18.943  0.0000E+00  0.0000E+00  0.1200E+02  0.1200E+02
    -18.754  0.0000E+00  0.0000E+00  0.1200E+02  0.1200E+02
    -18.566  0.0000E+00  0.0000E+00  0.1200E+02  0.1200E+02
    -18.377  0.0000E+00  0.0000E+00  0.1200E+02  0.1200E+02
    -18.189  0.0000E+00  0.0000E+00  0.1200E+02  0.1200E+02
    -18.001  0.0000E+00  0.0000E+00  0.1200E+02  0.1200E+02
    -17.812  0.0000E+00  0.0000E+00  0.1200E+02  0.1200E+02
    -17.624  0.0000E+00  0.0000E+00  0.1200E+02  0.1200E+02
    -17.435  0.0000E+00  0.0000E+00  0.1200E+02  0.1200E+02
    -17.247  0.0000E+00  0.0000E+00  0.1200E+02  0.1200E+02
    -17.059  0.0000E+00  0.0000E+00  0.1200E+02  0.1200E+02
    -16.870  0.0000E+00  0.0000E+00  0.1200E+02  0.1200E+02
    -16.682  0.0000E+00  0.0000E+00  0.1200E+02  0.1200E+02
    -16.493  0.0000E+00  0.0000E+00  0.1200E+02  0.1200E+02
    -16.305  0.0000E+00  0.0000E+00  0.1200E+02  0.1200E+02
    -16.117  0.0000E+00  0.0000E+00  0.1200E+02  0.1200E+02
    -15.928  0.0000E+00  0.0000E+00  0.1200E+02  0.1200E+02
    -15.740  0.0000E+00  0.0000E+00  0.1200E+02  0.1200E+02
    -15.551  0.0000E+00  0.0000E+00  0.1200E+02  0.1200E+02
    -15.363  0.0000E+00  0.0000E+00  0.1200E+02  0.1200E+02
    -15.175  0.3668E-04  0.3673E-04  0.1200E+02  0.1200E+02
    -14.986  0.1563E-02  0.1565E-02  0.1200E+02  0.1200E+02
    -14.798  0.5484E-01  0.5490E-01  0.1201E+02  0.1201E+02
    -14.610  0.4305E+00  0.4308E+00  0.1209E+02  0.1209E+02
    -14.421  0.9422E+00  0.9424E+00  0.1227E+02  0.1227E+02
    -14.233  0.1620E+01  0.1621E+01  0.1257E+02  0.1257E+02
    -14.044  0.2575E+01  0.2576E+01  0.1306E+02  0.1306E+02
    -13.856  0.5258E+01  0.5260E+01  0.1405E+02  0.1406E+02
    -13.668  0.8041E+01  0.8041E+01  0.1557E+02  0.1557E+02
    -13.479  0.2164E+01  0.2161E+01  0.1599E+02  0.1599E+02
    -13.291  0.2198E-01  0.2194E-01  0.1600E+02  0.1600E+02
    -13.102  0.0000E+00  0.0000E+00  0.1600E+02  0.1600E+02
    -12.914  0.0000E+00  0.0000E+00  0.1600E+02  0.1600E+02
    -12.726  0.0000E+00  0.0000E+00  0.1600E+02  0.1600E+02
    -12.537  0.0000E+00  0.0000E+00  0.1600E+02  0.1600E+02
    -12.349  0.0000E+00  0.0000E+00  0.1600E+02  0.1600E+02
    -12.160  0.0000E+00  0.0000E+00  0.1600E+02  0.1600E+02
    -11.972  0.0000E+00  0.0000E+00  0.1600E+02  0.1600E+02
    -11.784  0.0000E+00  0.0000E+00  0.1600E+02  0.1600E+02
    -11.595  0.0000E+00  0.0000E+00  0.1600E+02  0.1600E+02
    -11.407  0.0000E+00  0.0000E+00  0.1600E+02  0.1600E+02
    -11.218  0.0000E+00  0.0000E+00  0.1600E+02  0.1600E+02
    -11.030  0.0000E+00  0.0000E+00  0.1600E+02  0.1600E+02
    -10.842  0.0000E+00  0.0000E+00  0.1600E+02  0.1600E+02
    -10.653  0.0000E+00  0.0000E+00  0.1600E+02  0.1600E+02
    -10.465  0.0000E+00  0.0000E+00  0.1600E+02  0.1600E+02
    -10.276  0.0000E+00  0.0000E+00  0.1600E+02  0.1600E+02
    -10.088  0.0000E+00  0.0000E+00  0.1600E+02  0.1600E+02
     -9.900  0.0000E+00  0.0000E+00  0.1600E+02  0.1600E+02
     -9.711  0.0000E+00  0.0000E+00  0.1600E+02  0.1600E+02
     -9.523  0.0000E+00  0.0000E+00  0.1600E+02  0.1600E+02
     -9.334  0.0000E+00  0.0000E+00  0.1600E+02  0.1600E+02
     -9.146  0.0000E+00  0.0000E+00  0.1600E+02  0.1600E+02
     -8.958  0.0000E+00  0.0000E+00  0.1600E+02  0.1600E+02
     -8.769  0.0000E+00  0.0000E+00  0.1600E+02  0.1600E+02
     -8.581  0.0000E+00  0.0000E+00  0.1600E+02  0.1600E+02
     -8.392  0.0000E+00  0.0000E+00  0.1600E+02  0.1600E+02
     -8.204  0.0000E+00  0.0000E+00  0.1600E+02  0.1600E+02
     -8.016  0.0000E+00  0.0000E+00  0.1600E+02  0.1600E+02
     -7.827  0.0000E+00  0.0000E+00  0.1600E+02  0.1600E+02
     -7.639  0.0000E+00  0.0000E+00  0.1600E+02  0.1600E+02
     -7.450  0.0000E+00  0.0000E+00  0.1600E+02  0.1600E+02
     -7.262  0.0000E+00  0.0000E+00  0.1600E+02  0.1600E+02
     -7.074  0.0000E+00  0.0000E+00  0.1600E+02  0.1600E+02
     -6.885  0.0000E+00  0.0000E+00  0.1600E+02  0.1600E+02
     -6.697  0.0000E+00  0.0000E+00  0.1600E+02  0.1600E+02
     -6.508  0.0000E+00  0.0000E+00  0.1600E+02  0.1600E+02
     -6.320  0.0000E+00  0.0000E+00  0.1600E+02  0.1600E+02
     -6.132  0.0000E+00  0.0000E+00  0.1600E+02  0.1600E+02
     -5.943  0.0000E+00  0.0000E+00  0.1600E+02  0.1600E+02
     -5.755  0.0000E+00  0.0000E+00  0.1600E+02  0.1600E+02
     -5.566  0.0000E+00  0.0000E+00  0.1600E+02  0.1600E+02
     -5.378  0.0000E+00  0.0000E+00  0.1600E+02  0.1600E+02
     -5.190  0.0000E+00  0.0000E+00  0.1600E+02  0.1600E+02
     -5.001  0.0000E+00  0.0000E+00  0.1600E+02  0.1600E+02
     -4.813  0.0000E+00  0.0000E+00  0.1600E+02  0.1600E+02
     -4.624  0.0000E+00  0.0000E+00  0.1600E+02  0.1600E+02
     -4.436  0.0000E+00  0.0000E+00  0.1600E+02  0.1600E+02
     -4.248  0.0000E+00  0.0000E+00  0.1600E+02  0.1600E+02
     -4.059  0.0000E+00  0.0000E+00  0.1600E+02  0.1600E+02
     -3.871  0.0000E+00  0.0000E+00  0.1600E+02  0.1600E+02
     -3.682  0.0000E+00  0.0000E+00  0.1600E+02  0.1600E+02
     -3.494  0.0000E+00  0.0000E+00  0.1600E+02  0.1600E+02
     -3.306  0.0000E+00  0.0000E+00  0.1600E+02  0.1600E+02
     -3.117  0.0000E+00  0.0000E+00  0.1600E+02  0.1600E+02
     -2.929  0.0000E+00  0.0000E+00  0.1600E+02  0.1600E+02
     -2.740  0.0000E+00  0.0000E+00  0.1600E+02  0.1600E+02
     -2.552  0.1303E-03  0.1301E-03  0.1600E+02  0.1600E+02
     -2.364  0.5526E-02  0.5520E-02  0.1600E+02  0.1600E+02
     -2.175  0.1755E+00  0.1753E+00  0.1603E+02  0.1603E+02
     -1.987  0.6350E+00  0.6350E+00  0.1615E+02  0.1615E+02
     -1.798  0.1362E+01  0.1361E+01  0.1641E+02  0.1641E+02
     -1.610  0.2413E+01  0.2412E+01  0.1687E+02  0.1687E+02
     -1.422  0.4109E+01  0.4108E+01  0.1764E+02  0.1764E+02
     -1.233  0.5056E+01  0.5056E+01  0.1860E+02  0.1860E+02
     -1.045  0.3250E+01  0.3250E+01  0.1921E+02  0.1921E+02
     -0.856  0.9657E+00  0.9660E+00  0.1940E+02  0.1940E+02
     -0.668  0.1142E+01  0.1142E+01  0.1962E+02  0.1962E+02
     -0.480  0.2049E+01  0.2048E+01  0.2000E+02  0.2000E+02
     -0.291  0.1774E+01  0.1774E+01  0.2034E+02  0.2034E+02
     -0.103  0.1902E+01  0.1902E+01  0.2070E+02  0.2070E+02
      0.086  0.2156E+01  0.2156E+01  0.2110E+02  0.2110E+02
      0.274  0.2917E+01  0.2918E+01  0.2165E+02  0.2165E+02
      0.462  0.2991E+01  0.2991E+01  0.2222E+02  0.2222E+02
      0.651  0.5018E+01  0.5019E+01  0.2317E+02  0.2317E+02
      0.839  0.6114E+01  0.6114E+01  0.2432E+02  0.2432E+02
      1.028  0.5898E+01  0.5899E+01  0.2544E+02  0.2544E+02
      1.216  0.6273E+01  0.6272E+01  0.2662E+02  0.2662E+02
      1.404  0.4439E+01  0.4438E+01  0.2746E+02  0.2747E+02
      1.593  0.2184E+01  0.2183E+01  0.2788E+02  0.2788E+02
      1.781  0.5933E+00  0.5929E+00  0.2799E+02  0.2799E+02
      1.970  0.2411E-01  0.2408E-01  0.2800E+02  0.2800E+02
      2.158  0.0000E+00  0.0000E+00  0.2800E+02  0.2800E+02
      2.346  0.0000E+00  0.0000E+00  0.2800E+02  0.2800E+02
      2.535  0.0000E+00  0.0000E+00  0.2800E+02  0.2800E+02
      2.723  0.0000E+00  0.0000E+00  0.2800E+02  0.2800E+02
      2.912  0.0000E+00  0.0000E+00  0.2800E+02  0.2800E+02
      3.100  0.0000E+00  0.0000E+00  0.2800E+02  0.2800E+02
      3.288  0.0000E+00  0.0000E+00  0.2800E+02  0.2800E+02
      3.477  0.0000E+00  0.0000E+00  0.2800E+02  0.2800E+02
      3.665  0.0000E+00  0.0000E+00  0.2800E+02  0.2800E+02
      3.854  0.0000E+00  0.0000E+00  0.2800E+02  0.2800E+02
      4.042  0.0000E+00  0.0000E+00  0.2800E+02  0.2800E+02
      4.230  0.0000E+00  0.0000E+00  0.2800E+02  0.2800E+02
      4.419  0.0000E+00  0.0000E+00  0.2800E+02  0.2800E+02
      4.607  0.0000E+00  0.0000E+00  0.2800E+02  0.2800E+02
      4.795  0.0000E+00  0.0000E+00  0.2800E+02  0.2800E+02
      4.984  0.6517E-04  0.6502E-04  0.2800E+02  0.2800E+02
      5.172  0.2717E-02  0.2711E-02  0.2800E+02  0.2800E+02
      5.361  0.7257E-01  0.7247E-01  0.2801E+02  0.2801E+02
      5.549  0.1142E+00  0.1143E+00  0.2804E+02  0.2804E+02
      5.737  0.6883E-02  0.6898E-02  0.2804E+02  0.2804E+02
      5.926  0.2975E-03  0.2970E-03  0.2804E+02  0.2804E+02
      6.114  0.1260E-01  0.1258E-01  0.2804E+02  0.2804E+02
      6.303  0.2772E+00  0.2770E+00  0.2809E+02  0.2809E+02
      6.491  0.2860E+00  0.2862E+00  0.2815E+02  0.2815E+02
      6.679  0.1690E-01  0.1692E-01  0.2815E+02  0.2815E+02
      6.868  0.1194E+00  0.1193E+00  0.2817E+02  0.2817E+02
      7.056  0.4203E+00  0.4204E+00  0.2825E+02  0.2825E+02
      7.245  0.8282E-01  0.8284E-01  0.2827E+02  0.2827E+02
      7.433  0.1711E+00  0.1711E+00  0.2830E+02  0.2830E+02
      7.621  0.4003E+00  0.4002E+00  0.2837E+02  0.2837E+02
      7.810  0.2114E+00  0.2115E+00  0.2841E+02  0.2841E+02
      7.998  0.7317E+00  0.7311E+00  0.2855E+02  0.2855E+02
      8.187  0.8985E+00  0.8990E+00  0.2872E+02  0.2872E+02
      8.375  0.1882E+00  0.1881E+00  0.2876E+02  0.2876E+02
      8.563  0.5874E+00  0.5872E+00  0.2887E+02  0.2887E+02
      8.752  0.6645E+00  0.6641E+00  0.2899E+02  0.2899E+02
      8.940  0.1092E+01  0.1092E+01  0.2920E+02  0.2920E+02
      9.129  0.8766E+00  0.8757E+00  0.2937E+02  0.2937E+02
      9.317  0.1915E+01  0.1916E+01  0.2973E+02  0.2973E+02
      9.505  0.3758E+00  0.3761E+00  0.2980E+02  0.2980E+02
      9.694  0.1078E+01  0.1077E+01  0.3000E+02  0.3000E+02
      9.882  0.1101E+01  0.1102E+01  0.3021E+02  0.3021E+02
     10.071  0.6836E+00  0.6777E+00  0.3034E+02  0.3034E+02
     10.259  0.2564E+01  0.2569E+01  0.3082E+02  0.3082E+02
     10.447  0.9055E+00  0.9081E+00  0.3099E+02  0.3099E+02
     10.636  0.5807E+00  0.5989E+00  0.3111E+02  0.3111E+02
     10.824  0.2472E+01  0.2458E+01  0.3157E+02  0.3157E+02
     11.013  0.1379E+01  0.1375E+01  0.3183E+02  0.3183E+02
     11.201  0.1028E+01  0.9723E+00  0.3203E+02  0.3202E+02
     11.389  0.1026E+01  0.1046E+01  0.3222E+02  0.3222E+02
     11.578  0.1523E+01  0.1546E+01  0.3251E+02  0.3251E+02
     11.766  0.1590E+01  0.1587E+01  0.3281E+02  0.3281E+02
     11.955  0.2095E+01  0.2116E+01  0.3321E+02  0.3321E+02
     12.143  0.3803E+01  0.4010E+01  0.3393E+02  0.3397E+02
     12.331  0.4352E+01  0.4144E+01  0.3475E+02  0.3475E+02
     12.520  0.2564E+01  0.2620E+01  0.3523E+02  0.3525E+02
     12.708  0.1576E+01  0.1989E+01  0.3553E+02  0.3563E+02
     12.897  0.1811E+01  0.1387E+01  0.3588E+02  0.3589E+02
     13.085  0.4061E+00  0.3462E+00  0.3595E+02  0.3596E+02
     13.273  0.7780E-01  0.1818E+00  0.3597E+02  0.3599E+02
     13.462  0.1404E+00  0.3421E-01  0.3600E+02  0.3600E+02
     13.650  0.1597E-01  0.0000E+00  0.3600E+02  0.3600E+02
     13.839  0.0000E+00  0.0000E+00  0.3600E+02  0.3600E+02
     14.027  0.0000E+00  0.0000E+00  0.3600E+02  0.3600E+02
     14.215  0.0000E+00  0.0000E+00  0.3600E+02  0.3600E+02
     14.404  0.0000E+00  0.0000E+00  0.3600E+02  0.3600E+02
     14.592  0.0000E+00  0.0000E+00  0.3600E+02  0.3600E+02
     14.781  0.0000E+00  0.0000E+00  0.3600E+02  0.3600E+02
     14.969  0.0000E+00  0.0000E+00  0.3600E+02  0.3600E+02
     15.157  0.0000E+00  0.0000E+00  0.3600E+02  0.3600E+02
     15.346  0.0000E+00  0.0000E+00  0.3600E+02  0.3600E+02
     15.534  0.0000E+00  0.0000E+00  0.3600E+02  0.3600E+02
     15.723  0.0000E+00  0.0000E+00  0.3600E+02  0.3600E+02
     15.911  0.0000E+00  0.0000E+00  0.3600E+02  0.3600E+02
     15.91097643    -40.60843929  301      2.72605648      1.00000000
    -40.608  0.0000E+00  0.0000E+00  0.0000E+00  0.0000E+00  0.0000E+00  0.0000E+00  0.0000E+00  0.0000E+00  0.0000E+00  0.0000E+00  0.0000E+00  0.0000E+00  0.0000E+00  0.0000E+00  0.0000E+00  0.0000E+00  0.0000E+00  0.0000E+00
    -40.420  0.0000E+00  0.0000E+00  0.0000E+00  0.0000E+00  0.0000E+00  0.0000E+00  0.0000E+00  0.0000E+00  0.0000E+00  0.0000E+00  0.0000E+00  0.0000E+00  0.0000E+00  0.0000E+00  0.0000E+00  0.0000E+00  0.0000E+00  0.0000E+00
    -40.232  0.0000E+00  0.0000E+00  0.0000E+00  0.0000E+00  0.0000E+00  0.0000E+00  0.0000E+00  0.0000E+00  0.0000E+00  0.0000E+00  0.0000E+00  0.0000E+00  0.0000E+00  0.0000E+00  0.0000E+00  0.0000E+00  0.0000E+00  0.0000E+00
    -40.043  0.0000E+00  0.0000E+00  0.0000E+00  0.0000E+00  0.0000E+00  0.0000E+00  0.0000E+00  0.0000E+00  0.0000E+00  0.0000E+00  0.0000E+00  0.0000E+00  0.0000E+00  0.0000E+00  0.0000E+00  0.0000E+00  0.0000E+00  0.0000E+00
    -39.855  0.0000E+00  0.0000E+00  0.0000E+00  0.0000E+00  0.0000E+00  0.0000E+00  0.0000E+00  0.0000E+00  0.0000E+00  0.0000E+00  0.0000E+00  0.0000E+00  0.0000E+00  0.0000E+00  0.0000E+00  0.0000E+00  0.0000E+00  0.0000E+00
    -39.666  0.0000E+00  0.0000E+00  0.0000E+00  0.0000E+00  0.0000E+00  0.0000E+00  0.0000E+00  0.0000E+00  0.0000E+00  0.0000E+00  0.0000E+00  0.0000E+00  0.0000E+00  0.0000E+00  0.0000E+00  0.0000E+00  0.0000E+00  0.0000E+00
    -39.478  0.0000E+00  0.0000E+00  0.0000E+00  0.0000E+00  0.0000E+00  0.0000E+00  0.0000E+00  0.0000E+00  0.0000E+00  0.0000E+00  0.0000E+00  0.0000E+00  0.0000E+00  0.0000E+00  0.0000E+00  0.0000E+00  0.0000E+00  0.0000E+00
    -39.290  0.0000E+00  0.0000E+00  0.0000E+00  0.0000E+00  0.0000E+00  0.0000E+00  0.0000E+00  0.0000E+00  0.0000E+00  0.0000E+00  0.0000E+00  0.0000E+00  0.0000E+00  0.0000E+00  0.0000E+00  0.0000E+00  0.0000E+00  0.0000E+00
    -39.101  0.0000E+00  0.0000E+00  0.0000E+00  0.0000E+00  0.0000E+00  0.0000E+00  0.0000E+00  0.0000E+00  0.0000E+00  0.0000E+00  0.0000E+00  0.0000E+00  0.0000E+00  0.0000E+00  0.0000E+00  0.0000E+00  0.0000E+00  0.0000E+00
    -38.913  0.0000E+00  0.0000E+00  0.0000E+00  0.0000E+00  0.0000E+00  0.0000E+00  0.0000E+00  0.0000E+00  0.0000E+00  0.0000E+00  0.0000E+00  0.0000E+00  0.0000E+00  0.0000E+00  0.0000E+00  0.0000E+00  0.0000E+00  0.0000E+00
    -38.724  0.0000E+00  0.0000E+00  0.0000E+00  0.0000E+00  0.0000E+00  0.0000E+00  0.0000E+00  0.0000E+00  0.0000E+00  0.0000E+00  0.0000E+00  0.0000E+00  0.0000E+00  0.0000E+00  0.0000E+00  0.0000E+00  0.0000E+00  0.0000E+00
    -38.536  0.1850E-09  0.1851E-09  0.1633E-03  0.1634E-03  0.1633E-03  0.1634E-03  0.1633E-03  0.1634E-03  0.1486E-10  0.1487E-10  0.1486E-10  0.1487E-10  0.1155E-10  0.1155E-10  0.1486E-10  0.1487E-10  0.1155E-10  0.1155E-10
    -38.348  0.7811E-08  0.7816E-08  0.6896E-02  0.6901E-02  0.6896E-02  0.6901E-02  0.6896E-02  0.6901E-02  0.6274E-09  0.6278E-09  0.6274E-09  0.6278E-09  0.4877E-09  0.4878E-09  0.6274E-09  0.6278E-09  0.4877E-09  0.4878E-09
    -38.159  0.3167E-06  0.3169E-06  0.2814E+00  0.2816E+00  0.2814E+00  0.2816E+00  0.2814E+00  0.2816E+00  0.2559E-07  0.2560E-07  0.2559E-07  0.2560E-07  0.1986E-07  0.1986E-07  0.2559E-07  0.2560E-07  0.1986E-07  0.1986E-07
    -37.971  0.3531E-05  0.3532E-05  0.3447E+01  0.3447E+01  0.3447E+01  0.3447E+01  0.3447E+01  0.3447E+01  0.3084E-06  0.3084E-06  0.3084E-06  0.3084E-06  0.2364E-06  0.2363E-06  0.3084E-06  0.3084E-06  0.2364E-06  0.2363E-06
    -37.782  0.1325E-05  0.1324E-05  0.1489E+01  0.1488E+01  0.1489E+01  0.1488E+01  0.1489E+01  0.1488E+01  0.1288E-06  0.1288E-06  0.1288E-06  0.1288E-06  0.9784E-07  0.9772E-07  0.1288E-06  0.1288E-06  0.9784E-07  0.9772E-07
    -37.594  0.0000E+00  0.0000E+00  0.0000E+00  0.0000E+00  0.0000E+00  0.0000E+00  0.0000E+00  0.0000E+00  0.0000E+00  0.0000E+00  0.0000E+00  0.0000E+00  0.0000E+00  0.0000E+00  0.0000E+00  0.0000E+00  0.0000E+00  0.0000E+00
    -37.406  0.0000E+00  0.0000E+00  0.0000E+00  0.0000E+00  0.0000E+00  0.0000E+00  0.0000E+00  0.0000E+00  0.0000E+00  0.0000E+00  0.0000E+00  0.0000E+00  0.0000E+00  0.0000E+00  0.0000E+00  0.0000E+00  0.0000E+00  0.0000E+00
    -37.217  0.0000E+00  0.0000E+00  0.0000E+00  0.0000E+00  0.0000E+00  0.0000E+00  0.0000E+00  0.0000E+00  0.0000E+00  0.0000E+00  0.0000E+00  0.0000E+00  0.0000E+00  0.0000E+00  0.0000E+00  0.0000E+00  0.0000E+00  0.0000E+00
    -37.029  0.0000E+00  0.0000E+00  0.0000E+00  0.0000E+00  0.0000E+00  0.0000E+00  0.0000E+00  0.0000E+00  0.0000E+00  0.0000E+00  0.0000E+00  0.0000E+00  0.0000E+00  0.0000E+00  0.0000E+00  0.0000E+00  0.0000E+00  0.0000E+00
    -36.840  0.0000E+00  0.0000E+00  0.0000E+00  0.0000E+00  0.0000E+00  0.0000E+00  0.0000E+00  0.0000E+00  0.0000E+00  0.0000E+00  0.0000E+00  0.0000E+00  0.0000E+00  0.0000E+00  0.0000E+00  0.0000E+00  0.0000E+00  0.0000E+00
    -36.652  0.0000E+00  0.0000E+00  0.0000E+00  0.0000E+00  0.0000E+00  0.0000E+00  0.0000E+00  0.0000E+00  0.0000E+00  0.0000E+00  0.0000E+00  0.0000E+00  0.0000E+00  0.0000E+00  0.0000E+00  0.0000E+00  0.0000E+00  0.0000E+00
    -36.464  0.0000E+00  0.0000E+00  0.0000E+00  0.0000E+00  0.0000E+00  0.0000E+00  0.0000E+00  0.0000E+00  0.0000E+00  0.0000E+00  0.0000E+00  0.0000E+00  0.0000E+00  0.0000E+00  0.0000E+00  0.0000E+00  0.0000E+00  0.0000E+00
    -36.275  0.0000E+00  0.0000E+00  0.0000E+00  0.0000E+00  0.0000E+00  0.0000E+00  0.0000E+00  0.0000E+00  0.0000E+00  0.0000E+00  0.0000E+00  0.0000E+00  0.0000E+00  0.0000E+00  0.0000E+00  0.0000E+00  0.0000E+00  0.0000E+00
    -36.087  0.0000E+00  0.0000E+00  0.0000E+00  0.0000E+00  0.0000E+00  0.0000E+00  0.0000E+00  0.0000E+00  0.0000E+00  0.0000E+00  0.0000E+00  0.0000E+00  0.0000E+00  0.0000E+00  0.0000E+00  0.0000E+00  0.0000E+00  0.0000E+00
    -35.898  0.0000E+00  0.0000E+00  0.0000E+00  0.0000E+00  0.0000E+00  0.0000E+00  0.0000E+00  0.0000E+00  0.0000E+00  0.0000E+00  0.0000E+00  0.0000E+00  0.0000E+00  0.0000E+00  0.0000E+00  0.0000E+00  0.0000E+00  0.0000E+00
    -35.710  0.0000E+00  0.0000E+00  0.0000E+00  0.0000E+00  0.0000E+00  0.0000E+00  0.0000E+00  0.0000E+00  0.0000E+00  0.0000E+00  0.0000E+00  0.0000E+00  0.0000E+00  0.0000E+00  0.0000E+00  0.0000E+00  0.0000E+00  0.0000E+00
    -35.522  0.0000E+00  0.0000E+00  0.0000E+00  0.0000E+00  0.0000E+00  0.0000E+00  0.0000E+00  0.0000E+00  0.0000E+00  0.0000E+00  0.0000E+00  0.0000E+00  0.0000E+00  0.0000E+00  0.0000E+00  0.0000E+00  0.0000E+00  0.0000E+00
    -35.333  0.0000E+00  0.0000E+00  0.0000E+00  0.0000E+00  0.0000E+00  0.0000E+00  0.0000E+00  0.0000E+00  0.0000E+00  0.0000E+00  0.0000E+00  0.0000E+00  0.0000E+00  0.0000E+00  0.0000E+00  0.0000E+00  0.0000E+00  0.0000E+00
    -35.145  0.0000E+00  0.0000E+00  0.0000E+00  0.0000E+00  0.0000E+00  0.0000E+00  0.0000E+00  0.0000E+00  0.0000E+00  0.0000E+00  0.0000E+00  0.0000E+00  0.0000E+00  0.0000E+00  0.0000E+00  0.0000E+00  0.0000E+00  0.0000E+00
    -34.956  0.0000E+00  0.0000E+00  0.0000E+00  0.0000E+00  0.0000E+00  0.0000E+00  0.0000E+00  0.0000E+00  0.0000E+00  0.0000E+00  0.0000E+00  0.0000E+00  0.0000E+00  0.0000E+00  0.0000E+00  0.0000E+00  0.0000E+00  0.0000E+00
    -34.768  0.0000E+00  0.0000E+00  0.0000E+00  0.0000E+00  0.0000E+00  0.0000E+00  0.0000E+00  0.0000E+00  0.0000E+00  0.0000E+00  0.0000E+00  0.0000E+00  0.0000E+00  0.0000E+00  0.0000E+00  0.0000E+00  0.0000E+00  0.0000E+00
    -34.580  0.0000E+00  0.0000E+00  0.0000E+00  0.0000E+00  0.0000E+00  0.0000E+00  0.0000E+00  0.0000E+00  0.0000E+00  0.0000E+00  0.0000E+00  0.0000E+00  0.0000E+00  0.0000E+00  0.0000E+00  0.0000E+00  0.0000E+00  0.0000E+00
    -34.391  0.0000E+00  0.0000E+00  0.0000E+00  0.0000E+00  0.0000E+00  0.0000E+00  0.0000E+00  0.0000E+00  0.0000E+00  0.0000E+00  0.0000E+00  0.0000E+00  0.0000E+00  0.0000E+00  0.0000E+00  0.0000E+00  0.0000E+00  0.0000E+00
    -34.203  0.0000E+00  0.0000E+00  0.0000E+00  0.0000E+00  0.0000E+00  0.0000E+00  0.0000E+00  0.0000E+00  0.0000E+00  0.0000E+00  0.0000E+00  0.0000E+00  0.0000E+00  0.0000E+00  0.0000E+00  0.0000E+00  0.0000E+00  0.0000E+00
    -34.015  0.0000E+00  0.0000E+00  0.0000E+00  0.0000E+00  0.0000E+00  0.0000E+00  0.0000E+00  0.0000E+00  0.0000E+00  0.0000E+00  0.0000E+00  0.0000E+00  0.0000E+00  0.0000E+00  0.0000E+00  0.0000E+00  0.0000E+00  0.0000E+00
    -33.826  0.0000E+00  0.0000E+00  0.0000E+00  0.0000E+00  0.0000E+00  0.0000E+00  0.0000E+00  0.0000E+00  0.0000E+00  0.0000E+00  0.0000E+00  0.0000E+00  0.0000E+00  0.0000E+00  0.0000E+00  0.0000E+00  0.0000E+00  0.0000E+00
    -33.638  0.0000E+00  0.0000E+00  0.0000E+00  0.0000E+00  0.0000E+00  0.0000E+00  0.0000E+00  0.0000E+00  0.0000E+00  0.0000E+00  0.0000E+00  0.0000E+00  0.0000E+00  0.0000E+00  0.0000E+00  0.0000E+00  0.0000E+00  0.0000E+00
    -33.449  0.0000E+00  0.0000E+00  0.0000E+00  0.0000E+00  0.0000E+00  0.0000E+00  0.0000E+00  0.0000E+00  0.0000E+00  0.0000E+00  0.0000E+00  0.0000E+00  0.0000E+00  0.0000E+00  0.0000E+00  0.0000E+00  0.0000E+00  0.0000E+00
    -33.261  0.0000E+00  0.0000E+00  0.0000E+00  0.0000E+00  0.0000E+00  0.0000E+00  0.0000E+00  0.0000E+00  0.0000E+00  0.0000E+00  0.0000E+00  0.0000E+00  0.0000E+00  0.0000E+00  0.0000E+00  0.0000E+00  0.0000E+00  0.0000E+00
    -33.073  0.0000E+00  0.0000E+00  0.0000E+00  0.0000E+00  0.0000E+00  0.0000E+00  0.0000E+00  0.0000E+00  0.0000E+00  0.0000E+00  0.0000E+00  0.0000E+00  0.0000E+00  0.0000E+00  0.0000E+00  0.0000E+00  0.0000E+00  0.0000E+00
    -32.884  0.0000E+00  0.0000E+00  0.0000E+00  0.0000E+00  0.0000E+00  0.0000E+00  0.0000E+00  0.0000E+00  0.0000E+00  0.0000E+00  0.0000E+00  0.0000E+00  0.0000E+00  0.0000E+00  0.0000E+00  0.0000E+00  0.0000E+00  0.0000E+00
    -32.696  0.0000E+00  0.0000E+00  0.0000E+00  0.0000E+00  0.0000E+00  0.0000E+00  0.0000E+00  0.0000E+00  0.0000E+00  0.0000E+00  0.0000E+00  0.0000E+00  0.0000E+00  0.0000E+00  0.0000E+00  0.0000E+00  0.0000E+00  0.0000E+00
    -32.507  0.0000E+00  0.0000E+00  0.0000E+00  0.0000E+00  0.0000E+00  0.0000E+00  0.0000E+00  0.0000E+00  0.0000E+00  0.0000E+00  0.0000E+00  0.0000E+00  0.0000E+00  0.0000E+00  0.0000E+00  0.0000E+00  0.0000E+00  0.0000E+00
    -32.319  0.0000E+00  0.0000E+00  0.0000E+00  0.0000E+00  0.0000E+00  0.0000E+00  0.0000E+00  0.0000E+00  0.0000E+00  0.0000E+00  0.0000E+00  0.0000E+00  0.0000E+00  0.0000E+00  0.0000E+00  0.0000E+00  0.0000E+00  0.0000E+00
    -32.131  0.0000E+00  0.0000E+00  0.0000E+00  0.0000E+00  0.0000E+00  0.0000E+00  0.0000E+00  0.0000E+00  0.0000E+00  0.0000E+00  0.0000E+00  0.0000E+00  0.0000E+00  0.0000E+00  0.0000E+00  0.0000E+00  0.0000E+00  0.0000E+00
    -31.942  0.0000E+00  0.0000E+00  0.0000E+00  0.0000E+00  0.0000E+00  0.0000E+00  0.0000E+00  0.0000E+00  0.0000E+00  0.0000E+00  0.0000E+00  0.0000E+00  0.0000E+00  0.0000E+00  0.0000E+00  0.0000E+00  0.0000E+00  0.0000E+00
    -31.754  0.0000E+00  0.0000E+00  0.0000E+00  0.0000E+00  0.0000E+00  0.0000E+00  0.0000E+00  0.0000E+00  0.0000E+00  0.0000E+00  0.0000E+00  0.0000E+00  0.0000E+00  0.0000E+00  0.0000E+00  0.0000E+00  0.0000E+00  0.0000E+00
    -31.565  0.0000E+00  0.0000E+00  0.0000E+00  0.0000E+00  0.0000E+00  0.0000E+00  0.0000E+00  0.0000E+00  0.0000E+00  0.0000E+00  0.0000E+00  0.0000E+00  0.0000E+00  0.0000E+00  0.0000E+00  0.0000E+00  0.0000E+00  0.0000E+00
    -31.377  0.0000E+00  0.0000E+00  0.0000E+00  0.0000E+00  0.0000E+00  0.0000E+00  0.0000E+00  0.0000E+00  0.0000E+00  0.0000E+00  0.0000E+00  0.0000E+00  0.0000E+00  0.0000E+00  0.0000E+00  0.0000E+00  0.0000E+00  0.0000E+00
    -31.189  0.0000E+00  0.0000E+00  0.0000E+00  0.0000E+00  0.0000E+00  0.0000E+00  0.0000E+00  0.0000E+00  0.0000E+00  0.0000E+00  0.0000E+00  0.0000E+00  0.0000E+00  0.0000E+00  0.0000E+00  0.0000E+00  0.0000E+00  0.0000E+00