   8   8   1   0
  0.8224783E+01  0.4037118E-09  0.4037118E-09  0.4037118E-09  0.5000000E-15
  1.000000000000000E-004
  CAR 
 unknown system                          
     20.84983443    -37.59869437  301      4.87542532      1.00000000
    -37.599  0.0000E+00  0.0000E+00  0.0000E+00  0.0000E+00
    -37.404  0.0000E+00  0.0000E+00  0.0000E+00  0.0000E+00
    -37.209  0.0000E+00  0.0000E+00  0.0000E+00  0.0000E+00
    -37.014  0.0000E+00  0.0000E+00  0.0000E+00  0.0000E+00
    -36.819  0.0000E+00  0.0000E+00  0.0000E+00  0.0000E+00
    -36.625  0.0000E+00  0.0000E+00  0.0000E+00  0.0000E+00
    -36.430  0.0000E+00  0.0000E+00  0.0000E+00  0.0000E+00
    -36.235  0.0000E+00  0.0000E+00  0.0000E+00  0.0000E+00
    -36.040  0.0000E+00  0.0000E+00  0.0000E+00  0.0000E+00
    -35.845  0.0000E+00  0.0000E+00  0.0000E+00  0.0000E+00
    -35.650  0.0000E+00  0.0000E+00  0.0000E+00  0.0000E+00
    -35.456  0.3859E-03  0.3864E-03  0.7519E-04  0.7529E-04
    -35.261  0.2560E-01  0.2564E-01  0.5064E-02  0.5070E-02
    -35.066  0.1211E+01  0.1213E+01  0.2411E+00  0.2414E+00
    -34.871  0.2556E+02  0.2558E+02  0.5221E+01  0.5225E+01
    -34.676  0.3278E+02  0.3276E+02  0.1161E+02  0.1161E+02
    -34.481  0.1814E+01  0.1812E+01  0.1199E+02  0.1199E+02
    -34.287  0.0000E+00  0.0000E+00  0.1200E+02  0.1200E+02
    -34.092  0.0000E+00  0.0000E+00  0.1200E+02  0.1200E+02
    -33.897  0.0000E+00  0.0000E+00  0.1200E+02  0.1200E+02
    -33.702  0.0000E+00  0.0000E+00  0.1200E+02  0.1200E+02
    -33.507  0.0000E+00  0.0000E+00  0.1200E+02  0.1200E+02
    -33.312  0.0000E+00  0.0000E+00  0.1200E+02  0.1200E+02
    -33.118  0.0000E+00  0.0000E+00  0.1200E+02  0.1200E+02
    -32.923  0.0000E+00  0.0000E+00  0.1200E+02  0.1200E+02
    -32.728  0.0000E+00  0.0000E+00  0.1200E+02  0.1200E+02
    -32.533  0.0000E+00  0.0000E+00  0.1200E+02  0.1200E+02
    -32.338  0.0000E+00  0.0000E+00  0.1200E+02  0.1200E+02
    -32.143  0.0000E+00  0.0000E+00  0.1200E+02  0.1200E+02
    -31.949  0.0000E+00  0.0000E+00  0.1200E+02  0.1200E+02
    -31.754  0.0000E+00  0.0000E+00  0.1200E+02  0.1200E+02
    -31.559  0.0000E+00  0.0000E+00  0.1200E+02  0.1200E+02
    -31.364  0.0000E+00  0.0000E+00  0.1200E+02  0.1200E+02
    -31.169  0.0000E+00  0.0000E+00  0.1200E+02  0.1200E+02
    -30.975  0.0000E+00  0.0000E+00  0.1200E+02  0.1200E+02
    -30.780  0.0000E+00  0.0000E+00  0.1200E+02  0.1200E+02
    -30.585  0.0000E+00  0.0000E+00  0.1200E+02  0.1200E+02
    -30.390  0.0000E+00  0.0000E+00  0.1200E+02  0.1200E+02
    -30.195  0.0000E+00  0.0000E+00  0.1200E+02  0.1200E+02
    -30.000  0.0000E+00  0.0000E+00  0.1200E+02  0.1200E+02
    -29.806  0.0000E+00  0.0000E+00  0.1200E+02  0.1200E+02
    -29.611  0.0000E+00  0.0000E+00  0.1200E+02  0.1200E+02
    -29.416  0.0000E+00  0.0000E+00  0.1200E+02  0.1200E+02
    -29.221  0.0000E+00  0.0000E+00  0.1200E+02  0.1200E+02
    -29.026  0.0000E+00  0.0000E+00  0.1200E+02  0.1200E+02
    -28.831  0.0000E+00  0.0000E+00  0.1200E+02  0.1200E+02
    -28.637  0.0000E+00  0.0000E+00  0.1200E+02  0.1200E+02
    -28.442  0.0000E+00  0.0000E+00  0.1200E+02  0.1200E+02
    -28.247  0.0000E+00  0.0000E+00  0.1200E+02  0.1200E+02
    -28.052  0.0000E+00  0.0000E+00  0.1200E+02  0.1200E+02
    -27.857  0.0000E+00  0.0000E+00  0.1200E+02  0.1200E+02
    -27.662  0.0000E+00  0.0000E+00  0.1200E+02  0.1200E+02
    -27.468  0.0000E+00  0.0000E+00  0.1200E+02  0.1200E+02
    -27.273  0.0000E+00  0.0000E+00  0.1200E+02  0.1200E+02
    -27.078  0.0000E+00  0.0000E+00  0.1200E+02  0.1200E+02
    -26.883  0.0000E+00  0.0000E+00  0.1200E+02  0.1200E+02
    -26.688  0.0000E+00  0.0000E+00  0.1200E+02  0.1200E+02
    -26.493  0.0000E+00  0.0000E+00  0.1200E+02  0.1200E+02
    -26.299  0.0000E+00  0.0000E+00  0.1200E+02  0.1200E+02
    -26.104  0.0000E+00  0.0000E+00  0.1200E+02  0.1200E+02
    -25.909  0.0000E+00  0.0000E+00  0.1200E+02  0.1200E+02
    -25.714  0.0000E+00  0.0000E+00  0.1200E+02  0.1200E+02
    -25.519  0.0000E+00  0.0000E+00  0.1200E+02  0.1200E+02
    -25.325  0.0000E+00  0.0000E+00  0.1200E+02  0.1200E+02
    -25.130  0.0000E+00  0.0000E+00  0.1200E+02  0.1200E+02
    -24.935  0.0000E+00  0.0000E+00  0.1200E+02  0.1200E+02
    -24.740  0.0000E+00  0.0000E+00  0.1200E+02  0.1200E+02
    -24.545  0.0000E+00  0.0000E+00  0.1200E+02  0.1200E+02
    -24.350  0.0000E+00  0.0000E+00  0.1200E+02  0.1200E+02
    -24.156  0.0000E+00  0.0000E+00  0.1200E+02  0.1200E+02
    -23.961  0.0000E+00  0.0000E+00  0.1200E+02  0.1200E+02
    -23.766  0.0000E+00  0.0000E+00  0.1200E+02  0.1200E+02
    -23.571  0.0000E+00  0.0000E+00  0.1200E+02  0.1200E+02
    -23.376  0.0000E+00  0.0000E+00  0.1200E+02  0.1200E+02
    -23.181  0.0000E+00  0.0000E+00  0.1200E+02  0.1200E+02
    -22.987  0.0000E+00  0.0000E+00  0.1200E+02  0.1200E+02
    -22.792  0.0000E+00  0.0000E+00  0.1200E+02  0.1200E+02
    -22.597  0.0000E+00  0.0000E+00  0.1200E+02  0.1200E+02
    -22.402  0.0000E+00  0.0000E+00  0.1200E+02  0.1200E+02
    -22.207  0.0000E+00  0.0000E+00  0.1200E+02  0.1200E+02
    -22.012  0.0000E+00  0.0000E+00  0.1200E+02  0.1200E+02
    -21.818  0.0000E+00  0.0000E+00  0.1200E+02  0.1200E+02
    -21.623  0.0000E+00  0.0000E+00  0.1200E+02  0.1200E+02
    -21.428  0.0000E+00  0.0000E+00  0.1200E+02  0.1200E+02
    -21.233  0.0000E+00  0.0000E+00  0.1200E+02  0.1200E+02
    -21.038  0.0000E+00  0.0000E+00  0.1200E+02  0.1200E+02
    -20.843  0.0000E+00  0.0000E+00  0.1200E+02  0.1200E+02
    -20.649  0.0000E+00  0.0000E+00  0.1200E+02  0.1200E+02
    -20.454  0.0000E+00  0.0000E+00  0.1200E+02  0.1200E+02
    -20.259  0.0000E+00  0.0000E+00  0.1200E+02  0.1200E+02
    -20.064  0.0000E+00  0.0000E+00  0.1200E+02  0.1200E+02
    -19.869  0.0000E+00  0.0000E+00  0.1200E+02  0.1200E+02
    -19.674  0.0000E+00  0.0000E+00  0.1200E+02  0.1200E+02
    -19.480  0.0000E+00  0.0000E+00  0.1200E+02  0.1200E+02
    -19.285  0.0000E+00  0.0000E+00  0.1200E+02  0.1200E+02
    -19.090  0.0000E+00  0.0000E+00  0.1200E+02  0.1200E+02
    -18.895  0.0000E+00  0.0000E+00  0.1200E+02  0.1200E+02
    -18.700  0.0000E+00  0.0000E+00  0.1200E+02  0.1200E+02
    -18.506  0.0000E+00  0.0000E+00  0.1200E+02  0.1200E+02
    -18.311  0.0000E+00  0.0000E+00  0.1200E+02  0.1200E+02
    -18.116  0.0000E+00  0.0000E+00  0.1200E+02  0.1200E+02
    -17.921  0.0000E+00  0.0000E+00  0.1200E+02  0.1200E+02
    -17.726  0.0000E+00  0.0000E+00  0.1200E+02  0.1200E+02
    -17.531  0.0000E+00  0.0000E+00  0.1200E+02  0.1200E+02
    -17.337  0.0000E+00  0.0000E+00  0.1200E+02  0.1200E+02
    -17.142  0.0000E+00  0.0000E+00  0.1200E+02  0.1200E+02
    -16.947  0.0000E+00  0.0000E+00  0.1200E+02  0.1200E+02
    -16.752  0.0000E+00  0.0000E+00  0.1200E+02  0.1200E+02
    -16.557  0.0000E+00  0.0000E+00  0.1200E+02  0.1200E+02
    -16.362  0.0000E+00  0.0000E+00  0.1200E+02  0.1200E+02
    -16.168  0.0000E+00  0.0000E+00  0.1200E+02  0.1200E+02
    -15.973  0.0000E+00  0.0000E+00  0.1200E+02  0.1200E+02
    -15.778  0.0000E+00  0.0000E+00  0.1200E+02  0.1200E+02
    -15.583  0.0000E+00  0.0000E+00  0.1200E+02  0.1200E+02
    -15.388  0.0000E+00  0.0000E+00  0.1200E+02  0.1200E+02
    -15.193  0.0000E+00  0.0000E+00  0.1200E+02  0.1200E+02
    -14.999  0.0000E+00  0.0000E+00  0.1200E+02  0.1200E+02
    -14.804  0.0000E+00  0.0000E+00  0.1200E+02  0.1200E+02
    -14.609  0.8164E-05  0.8181E-05  0.1200E+02  0.1200E+02
    -14.414  0.4024E-03  0.4033E-03  0.1200E+02  0.1200E+02
    -14.219  0.1798E-01  0.1802E-01  0.1200E+02  0.1200E+02
    -14.024  0.1630E+00  0.1631E+00  0.1204E+02  0.1204E+02
    -13.830  0.3995E+00  0.3997E+00  0.1211E+02  0.1211E+02
    -13.635  0.4839E+00  0.4839E+00  0.1221E+02  0.1221E+02
    -13.440  0.6493E+00  0.6495E+00  0.1234E+02  0.1234E+02
    -13.245  0.9796E+00  0.9799E+00  0.1253E+02  0.1253E+02
    -13.050  0.1017E+01  0.1017E+01  0.1272E+02  0.1272E+02
    -12.855  0.1577E+01  0.1578E+01  0.1303E+02  0.1303E+02
    -12.661  0.2128E+01  0.2128E+01  0.1345E+02  0.1345E+02
    -12.466  0.3695E+01  0.3698E+01  0.1417E+02  0.1417E+02
    -12.271  0.5699E+01  0.5700E+01  0.1528E+02  0.1528E+02
    -12.076  0.3452E+01  0.3448E+01  0.1596E+02  0.1596E+02
    -11.881  0.1947E+00  0.1941E+00  0.1600E+02  0.1600E+02
    -11.687  0.0000E+00  0.0000E+00  0.1600E+02  0.1600E+02
    -11.492  0.0000E+00  0.0000E+00  0.1600E+02  0.1600E+02
    -11.297  0.0000E+00  0.0000E+00  0.1600E+02  0.1600E+02
    -11.102  0.0000E+00  0.0000E+00  0.1600E+02  0.1600E+02
    -10.907  0.0000E+00  0.0000E+00  0.1600E+02  0.1600E+02
    -10.712  0.0000E+00  0.0000E+00  0.1600E+02  0.1600E+02
    -10.518  0.0000E+00  0.0000E+00  0.1600E+02  0.1600E+02
    -10.323  0.0000E+00  0.0000E+00  0.1600E+02  0.1600E+02
    -10.128  0.0000E+00  0.0000E+00  0.1600E+02  0.1600E+02
     -9.933  0.0000E+00  0.0000E+00  0.1600E+02  0.1600E+02
     -9.738  0.0000E+00  0.0000E+00  0.1600E+02  0.1600E+02
     -9.543  0.0000E+00  0.0000E+00  0.1600E+02  0.1600E+02
     -9.349  0.0000E+00  0.0000E+00  0.1600E+02  0.1600E+02
     -9.154  0.0000E+00  0.0000E+00  0.1600E+02  0.1600E+02
     -8.959  0.0000E+00  0.0000E+00  0.1600E+02  0.1600E+02
     -8.764  0.0000E+00  0.0000E+00  0.1600E+02  0.1600E+02
     -8.569  0.0000E+00  0.0000E+00  0.1600E+02  0.1600E+02
     -8.374  0.0000E+00  0.0000E+00  0.1600E+02  0.1600E+02
     -8.180  0.0000E+00  0.0000E+00  0.1600E+02  0.1600E+02
     -7.985  0.0000E+00  0.0000E+00  0.1600E+02  0.1600E+02
     -7.790  0.0000E+00  0.0000E+00  0.1600E+02  0.1600E+02
     -7.595  0.0000E+00  0.0000E+00  0.1600E+02  0.1600E+02
     -7.400  0.0000E+00  0.0000E+00  0.1600E+02  0.1600E+02
     -7.205  0.0000E+00  0.0000E+00  0.1600E+02  0.1600E+02
     -7.011  0.0000E+00  0.0000E+00  0.1600E+02  0.1600E+02
     -6.816  0.0000E+00  0.0000E+00  0.1600E+02  0.1600E+02
     -6.621  0.0000E+00  0.0000E+00  0.1600E+02  0.1600E+02
     -6.426  0.0000E+00  0.0000E+00  0.1600E+02  0.1600E+02
     -6.231  0.0000E+00  0.0000E+00  0.1600E+02  0.1600E+02
     -6.036  0.0000E+00  0.0000E+00  0.1600E+02  0.1600E+02
     -5.842  0.0000E+00  0.0000E+00  0.1600E+02  0.1600E+02
     -5.647  0.0000E+00  0.0000E+00  0.1600E+02  0.1600E+02
     -5.452  0.0000E+00  0.0000E+00  0.1600E+02  0.1600E+02
     -5.257  0.0000E+00  0.0000E+00  0.1600E+02  0.1600E+02
     -5.062  0.0000E+00  0.0000E+00  0.1600E+02  0.1600E+02
     -4.868  0.0000E+00  0.0000E+00  0.1600E+02  0.1600E+02
     -4.673  0.0000E+00  0.0000E+00  0.1600E+02  0.1600E+02
     -4.478  0.0000E+00  0.0000E+00  0.1600E+02  0.1600E+02
     -4.283  0.0000E+00  0.0000E+00  0.1600E+02  0.1600E+02
     -4.088  0.0000E+00  0.0000E+00  0.1600E+02  0.1600E+02
     -3.893  0.0000E+00  0.0000E+00  0.1600E+02  0.1600E+02
     -3.699  0.0000E+00  0.0000E+00  0.1600E+02  0.1600E+02
     -3.504  0.0000E+00  0.0000E+00  0.1600E+02  0.1600E+02
     -3.309  0.0000E+00  0.0000E+00  0.1600E+02  0.1600E+02
     -3.114  0.0000E+00  0.0000E+00  0.1600E+02  0.1600E+02
     -2.919  0.0000E+00  0.0000E+00  0.1600E+02  0.1600E+02
     -2.724  0.0000E+00  0.0000E+00  0.1600E+02  0.1600E+02
     -2.530  0.0000E+00  0.0000E+00  0.1600E+02  0.1600E+02
     -2.335  0.0000E+00  0.0000E+00  0.1600E+02  0.1600E+02
     -2.140  0.0000E+00  0.0000E+00  0.1600E+02  0.1600E+02
     -1.945  0.0000E+00  0.0000E+00  0.1600E+02  0.1600E+02
     -1.750  0.6444E-04  0.6444E-04  0.1600E+02  0.1600E+02
     -1.555  0.3140E-02  0.3140E-02  0.1600E+02  0.1600E+02
     -1.361  0.1219E+00  0.1219E+00  0.1602E+02  0.1602E+02
     -1.166  0.4904E+00  0.4904E+00  0.1612E+02  0.1612E+02
     -0.971  0.5853E+00  0.5853E+00  0.1623E+02  0.1623E+02
     -0.776  0.1464E+01  0.1464E+01  0.1652E+02  0.1652E+02
     -0.581  0.1887E+01  0.1887E+01  0.1689E+02  0.1689E+02
     -0.386  0.3049E+01  0.3049E+01  0.1748E+02  0.1748E+02
     -0.192  0.4352E+01  0.4352E+01  0.1833E+02  0.1833E+02
      0.003  0.2402E+01  0.2402E+01  0.1880E+02  0.1880E+02
      0.198  0.2226E+01  0.2226E+01  0.1924E+02  0.1924E+02
      0.393  0.6130E+00  0.6129E+00  0.1936E+02  0.1936E+02
      0.588  0.2930E+00  0.2931E+00  0.1941E+02  0.1941E+02
      0.783  0.2429E+01  0.2429E+01  0.1989E+02  0.1989E+02
      0.977  0.1542E+01  0.1541E+01  0.2019E+02  0.2019E+02
      1.172  0.1152E+01  0.1153E+01  0.2042E+02  0.2042E+02
      1.367  0.1224E+01  0.1224E+01  0.2066E+02  0.2066E+02
      1.562  0.2096E+01  0.2096E+01  0.2107E+02  0.2107E+02
      1.757  0.2618E+01  0.2617E+01  0.2158E+02  0.2158E+02
      1.951  0.1588E+01  0.1588E+01  0.2189E+02  0.2189E+02
      2.146  0.2188E+01  0.2189E+01  0.2232E+02  0.2232E+02
      2.341  0.4823E+01  0.4824E+01  0.2326E+02  0.2326E+02
      2.536  0.5197E+01  0.5196E+01  0.2427E+02  0.2427E+02
      2.731  0.4100E+01  0.4101E+01  0.2507E+02  0.2508E+02
      2.926  0.5961E+01  0.5960E+01  0.2624E+02  0.2624E+02
      3.120  0.3337E+01  0.3337E+01  0.2689E+02  0.2689E+02
      3.315  0.2989E+01  0.2987E+01  0.2748E+02  0.2748E+02
      3.510  0.1458E+01  0.1458E+01  0.2777E+02  0.2777E+02
      3.705  0.9466E+00  0.9457E+00  0.2795E+02  0.2795E+02
      3.900  0.2211E+00  0.2208E+00  0.2800E+02  0.2800E+02
      4.095  0.8853E-02  0.8825E-02  0.2800E+02  0.2800E+02
      4.289  0.0000E+00  0.0000E+00  0.2800E+02  0.2800E+02
      4.484  0.0000E+00  0.0000E+00  0.2800E+02  0.2800E+02
      4.679  0.0000E+00  0.0000E+00  0.2800E+02  0.2800E+02
      4.874  0.0000E+00  0.0000E+00  0.2800E+02  0.2800E+02
      5.069  0.0000E+00  0.0000E+00  0.2800E+02  0.2800E+02
      5.264  0.0000E+00  0.0000E+00  0.2800E+02  0.2800E+02
      5.458  0.0000E+00  0.0000E+00  0.2800E+02  0.2800E+02
      5.653  0.0000E+00  0.0000E+00  0.2800E+02  0.2800E+02
      5.848  0.0000E+00  0.0000E+00  0.2800E+02  0.2800E+02
      6.043  0.0000E+00  0.0000E+00  0.2800E+02  0.2800E+02
      6.238  0.0000E+00  0.0000E+00  0.2800E+02  0.2800E+02
      6.433  0.0000E+00  0.0000E+00  0.2800E+02  0.2800E+02
      6.627  0.0000E+00  0.0000E+00  0.2800E+02  0.2800E+02
      6.822  0.0000E+00  0.0000E+00  0.2800E+02  0.2800E+02
      7.017  0.0000E+00  0.0000E+00  0.2800E+02  0.2800E+02
      7.212  0.0000E+00  0.0000E+00  0.2800E+02  0.2800E+02
      7.407  0.0000E+00  0.0000E+00  0.2800E+02  0.2800E+02
      7.602  0.0000E+00  0.0000E+00  0.2800E+02  0.2800E+02
      7.796  0.0000E+00  0.0000E+00  0.2800E+02  0.2800E+02
      7.991  0.0000E+00  0.0000E+00  0.2800E+02  0.2800E+02
      8.186  0.0000E+00  0.0000E+00  0.2800E+02  0.2800E+02
      8.381  0.0000E+00  0.0000E+00  0.2800E+02  0.2800E+02
      8.576  0.0000E+00  0.0000E+00  0.2800E+02  0.2800E+02
      8.770  0.0000E+00  0.0000E+00  0.2800E+02  0.2800E+02
      8.965  0.0000E+00  0.0000E+00  0.2800E+02  0.2800E+02
      9.160  0.0000E+00  0.0000E+00  0.2800E+02  0.2800E+02
      9.355  0.0000E+00  0.0000E+00  0.2800E+02  0.2800E+02
      9.550  0.0000E+00  0.0000E+00  0.2800E+02  0.2800E+02
      9.745  0.3895E-05  0.3903E-05  0.2800E+02  0.2800E+02
      9.939  0.1877E-03  0.1880E-03  0.2800E+02  0.2800E+02
     10.134  0.8803E-02  0.8819E-02  0.2800E+02  0.2800E+02
     10.329  0.1259E+00  0.1260E+00  0.2803E+02  0.2803E+02
     10.524  0.5361E-01  0.5354E-01  0.2804E+02  0.2804E+02
     10.719  0.2634E-04  0.2640E-04  0.2804E+02  0.2804E+02
     10.914  0.1268E-02  0.1271E-02  0.2804E+02  0.2804E+02
     11.108  0.5613E-01  0.5624E-01  0.2805E+02  0.2805E+02
     11.303  0.4253E+00  0.4254E+00  0.2813E+02  0.2813E+02
     11.498  0.8601E-01  0.8585E-01  0.2815E+02  0.2815E+02
     11.693  0.2531E-01  0.2536E-01  0.2815E+02  0.2815E+02
     11.888  0.3762E+00  0.3764E+00  0.2823E+02  0.2823E+02
     12.083  0.2459E+00  0.2457E+00  0.2827E+02  0.2827E+02
     12.277  0.1049E+00  0.1049E+00  0.2830E+02  0.2830E+02
     12.472  0.9990E-01  0.9997E-01  0.2832E+02  0.2832E+02
     12.667  0.6942E+00  0.6944E+00  0.2845E+02  0.2845E+02
     12.862  0.1301E+01  0.1301E+01  0.2870E+02  0.2870E+02
     13.057  0.1425E+01  0.1425E+01  0.2898E+02  0.2898E+02
     13.252  0.1961E+00  0.1959E+00  0.2902E+02  0.2902E+02
     13.446  0.8428E+00  0.8429E+00  0.2919E+02  0.2919E+02
     13.641  0.1624E+01  0.1624E+01  0.2950E+02  0.2950E+02
     13.836  0.1198E+01  0.1198E+01  0.2974E+02  0.2974E+02
     14.031  0.8235E+00  0.8241E+00  0.2990E+02  0.2990E+02
     14.226  0.1904E+01  0.1903E+01  0.3027E+02  0.3027E+02
     14.420  0.2727E+01  0.2727E+01  0.3080E+02  0.3080E+02
     14.615  0.2095E+01  0.2095E+01  0.3121E+02  0.3121E+02
     14.810  0.8745E+00  0.8744E+00  0.3139E+02  0.3139E+02
     15.005  0.6118E+00  0.6125E+00  0.3150E+02  0.3150E+02
     15.200  0.1483E+01  0.1483E+01  0.3180E+02  0.3180E+02
     15.395  0.1285E+01  0.1284E+01  0.3205E+02  0.3205E+02
     15.589  0.2194E+01  0.2194E+01  0.3247E+02  0.3247E+02
     15.784  0.1385E+01  0.1385E+01  0.3274E+02  0.3274E+02
     15.979  0.1924E+00  0.1927E+00  0.3278E+02  0.3278E+02
     16.174  0.7099E+00  0.7169E+00  0.3292E+02  0.3293E+02
     16.369  0.3026E+01  0.3029E+01  0.3351E+02  0.3352E+02
     16.564  0.2618E+01  0.2607E+01  0.3402E+02  0.3402E+02
     16.758  0.1231E+01  0.1214E+01  0.3427E+02  0.3427E+02
     16.953  0.2313E+01  0.2317E+01  0.3472E+02  0.3472E+02
     17.148  0.2115E+01  0.2141E+01  0.3513E+02  0.3514E+02
     17.343  0.1855E+01  0.2126E+01  0.3550E+02  0.3555E+02
     17.538  0.9877E+00  0.7385E+00  0.3569E+02  0.3570E+02
     17.733  0.6255E+00  0.5869E+00  0.3581E+02  0.3581E+02
     17.927  0.7005E+00  0.7001E+00  0.3595E+02  0.3595E+02
     18.122  0.9803E-01  0.9859E-01  0.3597E+02  0.3597E+02
     18.317  0.1383E+00  0.1383E+00  0.3600E+02  0.3600E+02
     18.512  0.1437E-01  0.1433E-01  0.3600E+02  0.3600E+02
     18.707  0.0000E+00  0.0000E+00  0.3600E+02  0.3600E+02
     18.902  0.0000E+00  0.0000E+00  0.3600E+02  0.3600E+02
     19.096  0.0000E+00  0.0000E+00  0.3600E+02  0.3600E+02
     19.291  0.0000E+00  0.0000E+00  0.3600E+02  0.3600E+02
     19.486  0.0000E+00  0.0000E+00  0.3600E+02  0.3600E+02
     19.681  0.0000E+00  0.0000E+00  0.3600E+02  0.3600E+02
     19.876  0.0000E+00  0.0000E+00  0.3600E+02  0.3600E+02
     20.071  0.0000E+00  0.0000E+00  0.3600E+02  0.3600E+02
     20.265  0.0000E+00  0.0000E+00  0.3600E+02  0.3600E+02
     20.460  0.0000E+00  0.0000E+00  0.3600E+02  0.3600E+02
     20.655  0.0000E+00  0.0000E+00  0.3600E+02  0.3600E+02
     20.850  0.0000E+00  0.0000E+00  0.3600E+02  0.3600E+02
     20.84983443    -37.59869437  301      4.87542532      1.00000000
    -37.599  0.0000E+00  0.0000E+00  0.0000E+00  0.0000E+00  0.0000E+00  0.0000E+00  0.0000E+00  0.0000E+00  0.0000E+00  0.0000E+00  0.0000E+00  0.0000E+00  0.0000E+00  0.0000E+00  0.0000E+00  0.0000E+00  0.0000E+00  0.0000E+00
    -37.404  0.0000E+00  0.0000E+00  0.0000E+00  0.0000E+00  0.0000E+00  0.0000E+00  0.0000E+00  0.0000E+00  0.0000E+00  0.0000E+00  0.0000E+00  0.0000E+00  0.0000E+00  0.0000E+00  0.0000E+00  0.0000E+00  0.0000E+00  0.0000E+00
    -37.209  0.0000E+00  0.0000E+00  0.0000E+00  0.0000E+00  0.0000E+00  0.0000E+00  0.0000E+00  0.0000E+00  0.0000E+00  0.0000E+00  0.0000E+00  0.0000E+00  0.0000E+00  0.0000E+00  0.0000E+00  0.0000E+00  0.0000E+00  0.0000E+00
    -37.014  0.0000E+00  0.0000E+00  0.0000E+00  0.0000E+00  0.0000E+00  0.0000E+00  0.0000E+00  0.0000E+00  0.0000E+00  0.0000E+00  0.0000E+00  0.0000E+00  0.0000E+00  0.0000E+00  0.0000E+00  0.0000E+00  0.0000E+00  0.0000E+00
    -36.819  0.0000E+00  0.0000E+00  0.0000E+00  0.0000E+00  0.0000E+00  0.0000E+00  0.0000E+00  0.0000E+00  0.0000E+00  0.0000E+00  0.0000E+00  0.0000E+00  0.0000E+00  0.0000E+00  0.0000E+00  0.0000E+00  0.0000E+00  0.0000E+00
    -36.625  0.0000E+00  0.0000E+00  0.0000E+00  0.0000E+00  0.0000E+00  0.0000E+00  0.0000E+00  0.0000E+00  0.0000E+00  0.0000E+00  0.0000E+00  0.0000E+00  0.0000E+00  0.0000E+00  0.0000E+00  0.0000E+00  0.0000E+00  0.0000E+00
    -36.430  0.0000E+00  0.0000E+00  0.0000E+00  0.0000E+00  0.0000E+00  0.0000E+00  0.0000E+00  0.0000E+00  0.0000E+00  0.0000E+00  0.0000E+00  0.0000E+00  0.0000E+00  0.0000E+00  0.0000E+00  0.0000E+00  0.0000E+00  0.0000E+00
    -36.235  0.0000E+00  0.0000E+00  0.0000E+00  0.0000E+00  0.0000E+00  0.0000E+00  0.0000E+00  0.0000E+00  0.0000E+00  0.0000E+00  0.0000E+00  0.0000E+00  0.0000E+00  0.0000E+00  0.0000E+00  0.0000E+00  0.0000E+00  0.0000E+00
    -36.040  0.0000E+00  0.0000E+00  0.0000E+00  0.0000E+00  0.0000E+00  0.0000E+00  0.0000E+00  0.0000E+00  0.0000E+00  0.0000E+00  0.0000E+00  0.0000E+00  0.0000E+00  0.0000E+00  0.0000E+00  0.0000E+00  0.0000E+00  0.0000E+00
    -35.845  0.0000E+00  0.0000E+00  0.0000E+00  0.0000E+00  0.0000E+00  0.0000E+00  0.0000E+00  0.0000E+00  0.0000E+00  0.0000E+00  0.0000E+00  0.0000E+00  0.0000E+00  0.0000E+00  0.0000E+00  0.0000E+00  0.0000E+00  0.0000E+00
    -35.650  0.0000E+00  0.0000E+00  0.0000E+00  0.0000E+00  0.0000E+00  0.0000E+00  0.0000E+00  0.0000E+00  0.0000E+00  0.0000E+00  0.0000E+00  0.0000E+00  0.0000E+00  0.0000E+00  0.0000E+00  0.0000E+00  0.0000E+00  0.0000E+00
    -35.456  0.7244E-09  0.7252E-09  0.3182E-04  0.3186E-04  0.3182E-04  0.3186E-04  0.3182E-04  0.3186E-04  0.3692E-10  0.3699E-10  0.3692E-10  0.3699E-10  0.4026E-10  0.4032E-10  0.3692E-10  0.3699E-10  0.4026E-10  0.4032E-10
    -35.261  0.3907E-07  0.3911E-07  0.2114E-02  0.2116E-02  0.2114E-02  0.2116E-02  0.2114E-02  0.2116E-02  0.2394E-08  0.2398E-08  0.2394E-08  0.2398E-08  0.2487E-08  0.2490E-08  0.2394E-08  0.2398E-08  0.2487E-08  0.2490E-08
    -35.066  0.1851E-05  0.1853E-05  0.1000E+00  0.1001E+00  0.1000E+00  0.1001E+00  0.1000E+00  0.1001E+00  0.1137E-06  0.1139E-06  0.1137E-06  0.1139E-06  0.1176E-06  0.1177E-06  0.1137E-06  0.1139E-06  0.1176E-06  0.1177E-06
    -34.871  0.3465E-04  0.3466E-04  0.2112E+01  0.2113E+01  0.2112E+01  0.2113E+01  0.2112E+01  0.2113E+01  0.2491E-05  0.2493E-05  0.2491E-05  0.2493E-05  0.2333E-05  0.2334E-05  0.2491E-05  0.2493E-05  0.2333E-05  0.2334E-05
    -34.676  0.2729E-04  0.2727E-04  0.2712E+01  0.2711E+01  0.2712E+01  0.2711E+01  0.2712E+01  0.2711E+01  0.2926E-05  0.2925E-05  0.2926E-05  0.2925E-05  0.2515E-05  0.2513E-05  0.2926E-05  0.2925E-05  0.2515E-05  0.2513E-05
    -34.481  0.7634E-06  0.7622E-06  0.1503E+00  0.1501E+00  0.1503E+00  0.1501E+00  0.1503E+00  0.1501E+00  0.1431E-06  0.1429E-06  0.1431E-06  0.1429E-06  0.1170E-06  0.1168E-06  0.1431E-06  0.1429E-06  0.1170E-06  0.1168E-06
    -34.287  0.0000E+00  0.0000E+00  0.0000E+00  0.0000E+00  0.0000E+00  0.0000E+00  0.0000E+00  0.0000E+00  0.0000E+00  0.0000E+00  0.0000E+00  0.0000E+00  0.0000E+00  0.0000E+00  0.0000E+00  0.0000E+00  0.0000E+00  0.0000E+00
    -34.092  0.0000E+00  0.0000E+00  0.0000E+00  0.0000E+00  0.0000E+00  0.0000E+00  0.0000E+00  0.0000E+00  0.0000E+00  0.0000E+00  0.0000E+00  0.0000E+00  0.0000E+00  0.0000E+00  0.0000E+00  0.0000E+00  0.0000E+00  0.0000E+00
    -33.897  0.0000E+00  0.0000E+00  0.0000E+00  0.0000E+00  0.0000E+00  0.0000E+00  0.0000E+00  0.0000E+00  0.0000E+00  0.0000E+00  0.0000E+00  0.0000E+00  0.0000E+00  0.0000E+00  0.0000E+00  0.0000E+00  0.0000E+00  0.0000E+00
    -33.702  0.0000E+00  0.0000E+00  0.0000E+00  0.0000E+00  0.0000E+00  0.0000E+00  0.0000E+00  0.0000E+00  0.0000E+00  0.0000E+00  0.0000E+00  0.0000E+00  0.0000E+00  0.0000E+00  0.0000E+00  0.0000E+00  0.0000E+00  0.0000E+00
    -33.507  0.0000E+00  0.0000E+00  0.0000E+00  0.0000E+00  0.0000E+00  0.0000E+00  0.0000E+00  0.0000E+00  0.0000E+00  0.0000E+00  0.0000E+00  0.0000E+00  0.0000E+00  0.0000E+00  0.0000E+00  0.0000E+00  0.0000E+00  0.0000E+00
    -33.312  0.0000E+00  0.0000E+00  0.0000E+00  0.0000E+00  0.0000E+00  0.0000E+00  0.0000E+00  0.0000E+00  0.0000E+00  0.0000E+00  0.0000E+00  0.0000E+00  0.0000E+00  0.0000E+00  0.0000E+00  0.0000E+00  0.0000E+00  0.0000E+00
    -33.118  0.0000E+00  0.0000E+00  0.0000E+00  0.0000E+00  0.0000E+00  0.0000E+00  0.0000E+00  0.0000E+00  0.0000E+00  0.0000E+00  0.0000E+00  0.0000E+00  0.0000E+00  0.0000E+00  0.0000E+00  0.0000E+00  0.0000E+00  0.0000E+00
    -32.923  0.0000E+00  0.0000E+00  0.0000E+00  0.0000E+00  0.0000E+00  0.0000E+00  0.0000E+00  0.0000E+00  0.0000E+00  0.0000E+00  0.0000E+00  0.0000E+00  0.0000E+00  0.0000E+00  0.0000E+00  0.0000E+00  0.0000E+00  0.0000E+00
    -32.728  0.0000E+00  0.0000E+00  0.0000E+00  0.0000E+00  0.0000E+00  0.0000E+00  0.0000E+00  0.0000E+00  0.0000E+00  0.0000E+00  0.0000E+00  0.0000E+00  0.0000E+00  0.0000E+00  0.0000E+00  0.0000E+00  0.0000E+00  0.0000E+00
    -32.533  0.0000E+00  0.0000E+00  0.0000E+00  0.0000E+00  0.0000E+00  0.0000E+00  0.0000E+00  0.0000E+00  0.0000E+00  0.0000E+00  0.0000E+00  0.0000E+00  0.0000E+00  0.0000E+00  0.0000E+00  0.0000E+00  0.0000E+00  0.0000E+00
    -32.338  0.0000E+00  0.0000E+00  0.0000E+00  0.0000E+00  0.0000E+00  0.0000E+00  0.0000E+00  0.0000E+00  0.0000E+00  0.0000E+00  0.0000E+00  0.0000E+00  0.0000E+00  0.0000E+00  0.0000E+00  0.0000E+00  0.0000E+00  0.0000E+00
    -32.143  0.0000E+00  0.0000E+00  0.0000E+00  0.0000E+00  0.0000E+00  0.0000E+00  0.0000E+00  0.0000E+00  0.0000E+00  0.0000E+00  0.0000E+00  0.0000E+00  0.0000E+00  0.0000E+00  0.0000E+00  0.0000E+00  0.0000E+00  0.0000E+00
    -31.949  0.0000E+00  0.0000E+00  0.0000E+00  0.0000E+00  0.0000E+00  0.0000E+00  0.0000E+00  0.0000E+00  0.0000E+00  0.0000E+00  0.0000E+00  0.0000E+00  0.0000E+00  0.0000E+00  0.0000E+00  0.0000E+00  0.0000E+00  0.0000E+00
    -31.754  0.0000E+00  0.0000E+00  0.0000E+00  0.0000E+00  0.0000E+00  0.0000E+00  0.0000E+00  0.0000E+00  0.0000E+00  0.0000E+00  0.0000E+00  0.0000E+00  0.0000E+00  0.0000E+00  0.0000E+00  0.0000E+00  0.0000E+00  0.0000E+00
    -31.559  0.0000E+00  0.0000E+00  0.0000E+00  0.0000E+00  0.0000E+00  0.0000E+00  0.0000E+00  0.0000E+00  0.0000E+00  0.0000E+00  0.0000E+00  0.0000E+00  0.0000E+00  0.0000E+00  0.0000E+00  0.0000E+00  0.0000E+00  0.0000E+00
    -31.364  0.0000E+00  0.0000E+00  0.0000E+00  0.0000E+00  0.0000E+00  0.0000E+00  0.0000E+00  0.0000E+00  0.0000E+00  0.0000E+00  0.0000E+00  0.0000E+00  0.0000E+00  0.0000E+00  0.0000E+00  0.0000E+00  0.0000E+00  0.0000E+00
    -31.169  0.0000E+00  0.0000E+00  0.0000E+00  0.0000E+00  0.0000E+00  0.0000E+00  0.0000E+00  0.0000E+00  0.0000E+00  0.0000E+00  0.0000E+00  0.0000E+00  0.0000E+00  0.0000E+00  0.0000E+00  0.0000E+00  0.0000E+00  0.0000E+00
    -30.975  0.0000E+00  0.0000E+00  0.0000E+00  0.0000E+00  0.0000E+00  0.0000E+00  0.0000E+00  0.0000E+00  0.0000E+00  0.0000E+00  0.0000E+00  0.0000E+00  0.0000E+00  0.0000E+00  0.0000E+00  0.0000E+00  0.0000E+00  0.0000E+00
    -30.780  0.0000E+00  0.0000E+00  0.0000E+00  0.0000E+00  0.0000E+00  0.0000E+00  0.0000E+00  0.0000E+00  0.0000E+00  0.0000E+00  0.0000E+00  0.0000E+00  0.0000E+00  0.0000E+00  0.0000E+00  0.0000E+00  0.0000E+00  0.0000E+00
    -30.585  0.0000E+00  0.0000E+00  0.0000E+00  0.0000E+00  0.0000E+00  0.0000E+00  0.0000E+00  0.0000E+00  0.0000E+00  0.0000E+00  0.0000E+00  0.0000E+00  0.0000E+00  0.0000E+00  0.0000E+00  0.0000E+00  0.0000E+00  0.0000E+00
    -30.390  0.0000E+00  0.0000E+00  0.0000E+00  0.0000E+00  0.0000E+00  0.0000E+00  0.0000E+00  0.0000E+00  0.0000E+00  0.0000E+00  0.0000E+00  0.0000E+00  0.0000E+00  0.0000E+00  0.0000E+00  0.0000E+00  0.0000E+00  0.0000E+00
    -30.195  0.0000E+00  0.0000E+00  0.0000E+00  0.0000E+00  0.0000E+00  0.0000E+00  0.0000E+00  0.0000E+00  0.0000E+00  0.0000E+00  0.0000E+00  0.0000E+00  0.0000E+00  0.0000E+00  0.0000E+00  0.0000E+00  0.0000E+00  0.0000E+00
    -30.000  0.0000E+00  0.0000E+00  0.0000E+00  0.0000E+00  0.0000E+00  0.0000E+00  0.0000E+00  0.0000E+00  0.0000E+00  0.0000E+00  0.0000E+00  0.0000E+00  0.0000E+00  0.0000E+00  0.0000E+00  0.0000E+00  0.0000E+00  0.0000E+00
    -29.806  0.0000E+00  0.0000E+00  0.0000E+00  0.0000E+00  0.0000E+00  0.0000E+00  0.0000E+00  0.0000E+00  0.0000E+00  0.0000E+00  0.0000E+00  0.0000E+00  0.0000E+00  0.0000E+00  0.0000E+00  0.0000E+00  0.0000E+00  0.0000E+00
    -29.611  0.0000E+00  0.0000E+00  0.0000E+00  0.0000E+00  0.0000E+00  0.0000E+00  0.0000E+00  0.0000E+00  0.0000E+00  0.0000E+00  0.0000E+00  0.0000E+00  0.0000E+00  0.0000E+00  0.0000E+00  0.0000E+00  0.0000E+00  0.0000E+00
    -29.416  0.0000E+00  0.0000E+00  0.0000E+00  0.0000E+00  0.0000E+00  0.0000E+00  0.0000E+00  0.0000E+00  0.0000E+00  0.0000E+00  0.0000E+00  0.0000E+00  0.0000E+00  0.0000E+00  0.0000E+00  0.0000E+00  0.0000E+00  0.0000E+00
    -29.221  0.0000E+00  0.0000E+00  0.0000E+00  0.0000E+00  0.0000E+00  0.0000E+00  0.0000E+00  0.0000E+00  0.0000E+00  0.0000E+00  0.0000E+00  0.0000E+00  0.0000E+00  0.0000E+00  0.0000E+00  0.0000E+00  0.0000E+00  0.0000E+00
    -29.026  0.0000E+00  0.0000E+00  0.0000E+00  0.0000E+00  0.0000E+00  0.0000E+00  0.0000E+00  0.0000E+00  0.0000E+00  0.0000E+00  0.0000E+00  0.0000E+00  0.0000E+00  0.0000E+00  0.0000E+00  0.0000E+00  0.0000E+00  0.0000E+00
    -28.831  0.0000E+00  0.0000E+00  0.0000E+00  0.0000E+00  0.0000E+00  0.0000E+00  0.0000E+00  0.0000E+00  0.0000E+00  0.0000E+00  0.0000E+00  0.0000E+00  0.0000E+00  0.0000E+00  0.0000E+00  0.0000E+00  0.0000E+00  0.0000E+00
    -28.637  0.0000E+00  0.0000E+00  0.0000E+00  0.0000E+00  0.0000E+00  0.0000E+00  0.0000E+00  0.0000E+00  0.0000E+00  0.0000E+00  0.0000E+00  0.0000E+00  0.0000E+00  0.0000E+00  0.0000E+00  0.0000E+00  0.0000E+00  0.0000E+00
    -28.442  0.0000E+00  0.0000E+00  0.0000E+00  0.0000E+00  0.0000E+00  0.0000E+00  0.0000E+00  0.0000E+00  0.0000E+00  0.0000E+00  0.0000E+00  0.0000E+00  0.0000E+00  0.0000E+00  0.0000E+00  0.0000E+00  0.0000E+00  0.0000E+00
    -28.247  0.0000E+00  0.0000E+00  0.0000E+00  0.0000E+00  0.0000E+00  0.0000E+00  0.0000E+00  0.0000E+00  0.0000E+00  0.0000E+00  0.0000E+00  0.0000E+00  0.0000E+00  0.0000E+00  0.0000E+00  0.0000E+00  0.0000E+00  0.0000E+00
    -28.052  0.0000E+00  0.0000E+00  0.0000E+00  0.0000E+00  0.0000E+00  0.0000E+00  0.0000E+00  0.0000E+00  0.0000E+00  0.0000E+00  0.0000E+00  0.0000E+00  0.0000E+00  0.0000E+00  0.0000E+00  0.0000E+00  0.0000E+00  0.0000E+00
    -27.857  0.0000E+00  0.0000E+00  0.0000E+00  0.0000E+00  0.0000E+00  0.0000E+00  0.0000E+00  0.0000E+00  0.0000E+00  0.0000E+00  0.0000E+00  0.0000E+00  0.0000E+00  0.0000E+00  0.0000E+00  0.0000E+00  0.0000E+00  0.0000E+00