 vasp.6.1.0 28Jan20 (build Jun 11 2020 16:13:15) complex                        
  
 executed on             LinuxIFC date 2022.01.24  17:22:35
 running on   64 total cores
 distrk:  each k-point on   64 cores,    1 groups
 distr:  one band on NCORE=   1 cores,   64 groups


--------------------------------------------------------------------------------------------------------


 INCAR:
 POTCAR:    PAW_PBE Mg_pv 13Apr2007               
 POTCAR:    PAW_PBE O 08Apr2002                   
 -----------------------------------------------------------------------------
|                                                                             |
|           W    W    AA    RRRRR   N    N  II  N    N   GGGG   !!!           |
|           W    W   A  A   R    R  NN   N  II  NN   N  G    G  !!!           |
|           W    W  A    A  R    R  N N  N  II  N N  N  G       !!!           |
|           W WW W  AAAAAA  RRRRR   N  N N  II  N  N N  G  GGG   !            |
|           WW  WW  A    A  R   R   N   NN  II  N   NN  G    G                |
|           W    W  A    A  R    R  N    N  II  N    N   GGGG   !!!           |
|                                                                             |
|     For optimal performance we recommend to set                             |
|       NCORE = 4 - approx SQRT(number of cores).                             |
|     NCORE specifies how many cores store one orbital (NPAR=cpu/NCORE).      |
|     This setting can greatly improve the performance of VASP for DFT.       |
|     The default, NCORE=1 might be grossly inefficient on modern             |
|     multi-core architectures or massively parallel machines. Do your        |
|     own testing!!!!                                                         |
|     Unfortunately you need to use the default for GW and RPA                |
|     calculations (for HF NCORE is supported but not extensively tested      |
|     yet).                                                                   |
|                                                                             |
 -----------------------------------------------------------------------------

 POTCAR:    PAW_PBE Mg_pv 13Apr2007               
   SHA256 =  f474ac0dd33840b9ae76c01d57fea79fdf77cdfbb07d5ade72c65f83c709b62b Mg_pv/POTCAR          
   COPYR  = (c) Copyright 13Apr2007 Georg Kresse                                                    
   COPYR  = This file is part of the software VASP. Any use, copying, and all other rights are regul
   COPYR  = If you do not have a valid VASP license, you may not use, copy or distribute this file. 
   VRHFIN =Mg: p6s2                                                                                 
   LEXCH  = PE                                                                                      
   EATOM  =  1056.7344 eV,   77.6678 Ry                                                             
                                                                                                    
   TITEL  = PAW_PBE Mg_pv 13Apr2007                                                                 
   LULTRA =        F    use ultrasoft PP ?                                                          
   IUNSCR =        1    unscreen: 0-lin 1-nonlin 2-no                                               
   RPACOR =    1.500    partial core radius                                                         
   POMASS =   24.305; ZVAL   =    8.000    mass and valenz                                          
   RCORE  =    2.000    outmost cutoff radius                                                       
   RWIGS  =    2.000; RWIGS  =    1.058    wigner-seitz radius (au A)                               
   ENMAX  =  403.929; ENMIN  =  302.947 eV                                                          
   RCLOC  =    1.506    cutoff for local pot                                                        
   LCOR   =        T    correct aug charges                                                         
   LPAW   =        T    paw PP                                                                      
   EAUG   =  758.780                                                                                
   DEXC   =    0.000                                                                                
   RMAX   =    2.045    core radius for proj-oper                                                   
   RAUG   =    1.300    factor for augmentation sphere                                              
   RDEP   =    2.025    radius for radial grids                                                     
   RDEPT  =    1.557    core radius for aug-charge                                                  
                                                                                                    
   Atomic configuration                                                                             
    5 entries                                                                                       
     n  l   j            E        occ.                                                              
     1  0  0.50     -1259.6230   2.0000                                                             
     2  0  0.50       -79.8442   2.0000                                                             
     2  1  1.50       -46.6121   6.0000                                                             
     3  0  0.50        -4.7055   2.0000                                                             
     3  2  1.50        -1.3606   0.0000                                                             
   Description                                                                                      
     l       E           TYP  RCUT    TYP  RCUT                                                     
     1    -46.6121073     23  1.600                                                                 
     1      2.7211652     23  1.600                                                                 
     0     -4.7054661     23  2.000                                                                 
     0     61.2262170     23  2.000                                                                 
     2     -1.3605826     23  2.000                                                                 
  local pseudopotential read in
  partial core-charges read in
  partial kinetic energy density read in
  atomic valenz-charges read in
  non local Contribution for L=           1  read in
    real space projection operators read in
  non local Contribution for L=           1  read in
    real space projection operators read in
  non local Contribution for L=           0  read in
    real space projection operators read in
  non local Contribution for L=           0  read in
    real space projection operators read in
  non local Contribution for L=           2  read in
    real space projection operators read in
    PAW grid and wavefunctions read in
 
   number of l-projection  operators is LMAX  =           5
   number of lm-projection operators is LMMAX =          13
 
 POTCAR:    PAW_PBE O 08Apr2002                   
   SHA256 =  818f92134a0a090dccd8ba1447fa70422a3b330e708bb4f08108d8ae51209ddf O/POTCAR              
   COPYR  = (c) Copyright 08Apr2002 Georg Kresse                                                    
   COPYR  = This file is part of the software VASP. Any use, copying, and all other rights are regul
   COPYR  = If you do not have a valid VASP license, you may not use, copy or distribute this file. 
   VRHFIN =O: s2p4                                                                                  
   LEXCH  = PE                                                                                      
   EATOM  =   432.3788 eV,   31.7789 Ry                                                             
                                                                                                    
   TITEL  = PAW_PBE O 08Apr2002                                                                     
   LULTRA =        F    use ultrasoft PP ?                                                          
   IUNSCR =        1    unscreen: 0-lin 1-nonlin 2-no                                               
   RPACOR =    1.200    partial core radius                                                         
   POMASS =   16.000; ZVAL   =    6.000    mass and valenz                                          
   RCORE  =    1.520    outmost cutoff radius                                                       
   RWIGS  =    1.550; RWIGS  =    0.820    wigner-seitz radius (au A)                               
   ENMAX  =  400.000; ENMIN  =  300.000 eV                                                          
   ICORE  =        2    local potential                                                             
   LCOR   =        T    correct aug charges                                                         
   LPAW   =        T    paw PP                                                                      
   EAUG   =  605.392                                                                                
   DEXC   =    0.000                                                                                
   RMAX   =    1.553    core radius for proj-oper                                                   
   RAUG   =    1.300    factor for augmentation sphere                                              
   RDEP   =    1.550    radius for radial grids                                                     
   RDEPT  =    1.329    core radius for aug-charge                                                  
                                                                                                    
   Atomic configuration                                                                             
    4 entries                                                                                       
     n  l   j            E        occ.                                                              
     1  0  0.50      -514.6923   2.0000                                                             
     2  0  0.50       -23.9615   2.0000                                                             
     2  1  0.50        -9.0305   4.0000                                                             
     3  2  1.50        -9.5241   0.0000                                                             
   Description                                                                                      
     l       E           TYP  RCUT    TYP  RCUT                                                     
     0    -23.9615318     23  1.200                                                                 
     0     -9.5240782     23  1.200                                                                 
     1     -9.0304911     23  1.520                                                                 
     1      8.1634956     23  1.520                                                                 
     2     -9.5240782      7  1.500                                                                 
  local pseudopotential read in
  partial core-charges read in
  partial kinetic energy density read in
  kinetic energy density of atom read in
  atomic valenz-charges read in
  non local Contribution for L=           0  read in
    real space projection operators read in
  non local Contribution for L=           0  read in
    real space projection operators read in
  non local Contribution for L=           1  read in
    real space projection operators read in
  non local Contribution for L=           1  read in
    real space projection operators read in
    PAW grid and wavefunctions read in
 
   number of l-projection  operators is LMAX  =           4
   number of lm-projection operators is LMMAX =           8
 
  PAW_PBE Mg_pv 13Apr2007               :
 energy of atom  1       EATOM=-1056.7344
 kinetic energy error for atom=    0.0340 (will be added to EATOM!!)
  PAW_PBE O 08Apr2002                   :
 energy of atom  2       EATOM= -432.3788
 kinetic energy error for atom=    0.0208 (will be added to EATOM!!)
 
 
 POSCAR: Mg4 O4
  positions in direct lattice
  velocities in cartesian coordinates
 exchange correlation table for  LEXCH =        8
   RHO(1)=    0.500       N(1)  =     2000
   RHO(2)=  100.500       N(2)  =     4000
 


--------------------------------------------------------------------------------------------------------


 ion  position               nearest neighbor table
   1  0.000  0.000  0.000-   5 2.12   7 2.12   8 2.12   7 2.12   8 2.12   5 2.12
   2  0.000  0.500  0.500-   6 2.12   7 2.12   8 2.12   8 2.12   7 2.12   6 2.12
   3  0.500  0.000  0.500-   5 2.12   6 2.12   7 2.12   5 2.12   6 2.12   7 2.12
   4  0.500  0.500  0.000-   5 2.12   6 2.12   8 2.12   6 2.12   5 2.12   8 2.12
   5  0.500  0.000  0.000-   1 2.12   3 2.12   4 2.12   3 2.12   4 2.12   1 2.12
   6  0.500  0.500  0.500-   2 2.12   3 2.12   4 2.12   4 2.12   3 2.12   2 2.12
   7  0.000  0.000  0.500-   1 2.12   2 2.12   3 2.12   1 2.12   2 2.12   3 2.12
   8  0.000  0.500  0.000-   1 2.12   2 2.12   4 2.12   2 2.12   1 2.12   4 2.12
 
  LATTYP: Found a simple cubic cell.
 ALAT       =     4.2495982535
  
  Lattice vectors:
  
 A1 = (   4.2495982535,   0.0000000000,   0.0000000000)
 A2 = (   0.0000000000,   4.2495982535,   0.0000000000)
 A3 = (   0.0000000000,   0.0000000000,   4.2495982535)


Analysis of symmetry for initial positions (statically):
=====================================================================
 Subroutine PRICEL returns following result:
 
  LATTYP: Found a face centered cubic cell.
 ALAT       =     4.2495982535
  
  Lattice vectors:
  
 A1 = (   2.1247991267,   2.1247991267,   0.0000000000)
 A2 = (   2.1247991267,   0.0000000000,  -2.1247991267)
 A3 = (   0.0000000000,   2.1247991267,  -2.1247991267)
 
   4 primitive cells build up your supercell.
 

 Routine SETGRP: Setting up the symmetry group for a 
 simple cubic supercell.


 Subroutine GETGRP returns: Found 48 space group operations
 (whereof 48 operations were pure point group operations)
 out of a pool of 48 trial point group operations.


The static configuration has the point symmetry O_h .


Analysis of symmetry for dynamics (positions and initial velocities):
=====================================================================
 Subroutine PRICEL returns following result:
 
  LATTYP: Found a face centered cubic cell.
 ALAT       =     4.2495982535
  
  Lattice vectors:
  
 A1 = (   2.1247991267,   2.1247991267,   0.0000000000)
 A2 = (   2.1247991267,   0.0000000000,  -2.1247991267)
 A3 = (   0.0000000000,   2.1247991267,  -2.1247991267)
 
   4 primitive cells build up your supercell.
 

 Routine SETGRP: Setting up the symmetry group for a 
 simple cubic supercell.


 Subroutine GETGRP returns: Found 48 space group operations
 (whereof 48 operations were pure point group operations)
 out of a pool of 48 trial point group operations.


The dynamic configuration has the point symmetry O_h .


 Subroutine INISYM returns: Found 48 space group operations
 (whereof 48 operations are pure point group operations),
 and found     4 'primitive' translations


----------------------------------------------------------------------------------------

                                     Primitive cell                                     

  volume of cell :      19.1860

  direct lattice vectors                    reciprocal lattice vectors
     2.124799127  2.124799127  0.000000000     0.235316362  0.235316362  0.235316362
     2.124799127  0.000000000 -2.124799127     0.235316362 -0.235316362 -0.235316362
     0.000000000  2.124799127 -2.124799127    -0.235316362  0.235316362 -0.235316362

  length of vectors
     3.004919742  3.004919742  3.004919742     0.407579894  0.407579894  0.407579894

  position of ions in fractional coordinates (direct lattice)
     0.000000000  0.000000000  0.000000000
     0.500000000  0.500000000  0.500000000

  ion indices of the primitive-cell ions
   primitive index   ion index
                 1           1
                 2           5

----------------------------------------------------------------------------------------

 
 
 KPOINTS: pymatgen with grid density = 882 / numbe

Automatic generation of k-mesh.
Space group operators:
 irot       det(A)        alpha          n_x          n_y          n_z        tau_x        tau_y        tau_z
    1     1.000000     0.000000     1.000000     0.000000     0.000000     0.000000     0.000000     0.000000
    2    -1.000000     0.000000     1.000000     0.000000     0.000000     0.000000     0.000000     0.000000
    3     1.000000   120.000000    -0.577350    -0.577350    -0.577350     0.000000     0.000000     0.000000
    4    -1.000000   120.000000    -0.577350    -0.577350    -0.577350     0.000000     0.000000     0.000000
    5     1.000000   120.000000     0.577350     0.577350     0.577350     0.000000     0.000000     0.000000
    6    -1.000000   120.000000     0.577350     0.577350     0.577350     0.000000     0.000000     0.000000
    7     1.000000    90.000000     0.000000     0.000000    -1.000000     0.000000     0.000000     0.000000
    8    -1.000000    90.000000     0.000000     0.000000    -1.000000     0.000000     0.000000     0.000000
    9     1.000000   180.000000     0.000000     0.707107     0.707107     0.000000     0.000000     0.000000
   10    -1.000000   180.000000     0.000000     0.707107     0.707107     0.000000     0.000000     0.000000
   11     1.000000    90.000000     0.000000     1.000000     0.000000     0.000000     0.000000     0.000000
   12    -1.000000    90.000000     0.000000     1.000000     0.000000     0.000000     0.000000     0.000000
   13     1.000000   180.000000     0.000000     0.000000     1.000000     0.000000     0.000000     0.000000
   14    -1.000000   180.000000     0.000000     0.000000     1.000000     0.000000     0.000000     0.000000
   15     1.000000   120.000000    -0.577350     0.577350     0.577350     0.000000     0.000000     0.000000
   16    -1.000000   120.000000    -0.577350     0.577350     0.577350     0.000000     0.000000     0.000000
   17     1.000000   120.000000    -0.577350     0.577350    -0.577350     0.000000     0.000000     0.000000
   18    -1.000000   120.000000    -0.577350     0.577350    -0.577350     0.000000     0.000000     0.000000
   19     1.000000    90.000000     0.000000     0.000000     1.000000     0.000000     0.000000     0.000000
   20    -1.000000    90.000000     0.000000     0.000000     1.000000     0.000000     0.000000     0.000000
   21     1.000000    90.000000    -1.000000     0.000000     0.000000     0.000000     0.000000     0.000000
   22    -1.000000    90.000000    -1.000000     0.000000     0.000000     0.000000     0.000000     0.000000
   23     1.000000   180.000000     0.707107     0.000000     0.707107     0.000000     0.000000     0.000000
   24    -1.000000   180.000000     0.707107     0.000000     0.707107     0.000000     0.000000     0.000000
   25     1.000000   120.000000     0.577350    -0.577350     0.577350     0.000000     0.000000     0.000000
   26    -1.000000   120.000000     0.577350    -0.577350     0.577350     0.000000     0.000000     0.000000
   27     1.000000   120.000000    -0.577350    -0.577350     0.577350     0.000000     0.000000     0.000000
   28    -1.000000   120.000000    -0.577350    -0.577350     0.577350     0.000000     0.000000     0.000000
   29     1.000000   180.000000     1.000000     0.000000     0.000000     0.000000     0.000000     0.000000
   30    -1.000000   180.000000     1.000000     0.000000     0.000000     0.000000     0.000000     0.000000
   31     1.000000    90.000000     0.000000    -1.000000     0.000000     0.000000     0.000000     0.000000
   32    -1.000000    90.000000     0.000000    -1.000000     0.000000     0.000000     0.000000     0.000000
   33     1.000000   180.000000     0.707107     0.707107     0.000000     0.000000     0.000000     0.000000
   34    -1.000000   180.000000     0.707107     0.707107     0.000000     0.000000     0.000000     0.000000
   35     1.000000    90.000000     1.000000     0.000000     0.000000     0.000000     0.000000     0.000000
   36    -1.000000    90.000000     1.000000     0.000000     0.000000     0.000000     0.000000     0.000000
   37     1.000000   120.000000     0.577350    -0.577350    -0.577350     0.000000     0.000000     0.000000
   38    -1.000000   120.000000     0.577350    -0.577350    -0.577350     0.000000     0.000000     0.000000
   39     1.000000   180.000000     0.000000     1.000000     0.000000     0.000000     0.000000     0.000000
   40    -1.000000   180.000000     0.000000     1.000000     0.000000     0.000000     0.000000     0.000000
   41     1.000000   120.000000     0.577350     0.577350    -0.577350     0.000000     0.000000     0.000000
   42    -1.000000   120.000000     0.577350     0.577350    -0.577350     0.000000     0.000000     0.000000
   43     1.000000   180.000000     0.000000    -0.707107     0.707107     0.000000     0.000000     0.000000
   44    -1.000000   180.000000     0.000000    -0.707107     0.707107     0.000000     0.000000     0.000000
   45     1.000000   180.000000     0.707107    -0.707107     0.000000     0.000000     0.000000     0.000000
   46    -1.000000   180.000000     0.707107    -0.707107     0.000000     0.000000     0.000000     0.000000
   47     1.000000   180.000000     0.707107     0.000000    -0.707107     0.000000     0.000000     0.000000
   48    -1.000000   180.000000     0.707107     0.000000    -0.707107     0.000000     0.000000     0.000000
 
 Subroutine IBZKPT returns following result:
 ===========================================
 
 Found     10 irreducible k-points:
 
 Following reciprocal coordinates:
            Coordinates               Weight
  0.083333  0.083333  0.083333      8.000000
  0.250000  0.083333  0.083333     24.000000
  0.416667  0.083333  0.083333     24.000000
  0.250000  0.250000  0.083333     24.000000
  0.416667  0.250000  0.083333     48.000000
  0.416667  0.416667  0.083333     24.000000
  0.250000  0.250000  0.250000      8.000000
  0.416667  0.250000  0.250000     24.000000
  0.416667  0.416667  0.250000     24.000000
  0.416667  0.416667  0.416667      8.000000
 
 Following cartesian coordinates:
            Coordinates               Weight
  0.019610  0.019610  0.019610      8.000000
  0.058829  0.019610  0.019610     24.000000
  0.098048  0.019610  0.019610     24.000000
  0.058829  0.058829  0.019610     24.000000
  0.098048  0.058829  0.019610     48.000000
  0.098048  0.098048  0.019610     24.000000
  0.058829  0.058829  0.058829      8.000000
  0.098048  0.058829  0.058829     24.000000
  0.098048  0.098048  0.058829     24.000000
  0.098048  0.098048  0.098048      8.000000
 
 
 Subroutine IBZKPT_HF returns following result:
 ==============================================
 
 Found    216 k-points in 1st BZ
 the following    216 k-points will be used (e.g. in the exchange kernel)
 Following reciprocal coordinates:   # in IRBZ
  0.083333  0.083333  0.083333    0.00462963   1 t-inv F
  0.250000  0.083333  0.083333    0.00462963   2 t-inv F
  0.416667  0.083333  0.083333    0.00462963   3 t-inv F
  0.250000  0.250000  0.083333    0.00462963   4 t-inv F
  0.416667  0.250000  0.083333    0.00462963   5 t-inv F
  0.416667  0.416667  0.083333    0.00462963   6 t-inv F
  0.250000  0.250000  0.250000    0.00462963   7 t-inv F
  0.416667  0.250000  0.250000    0.00462963   8 t-inv F
  0.416667  0.416667  0.250000    0.00462963   9 t-inv F
  0.416667  0.416667  0.416667    0.00462963  10 t-inv F
 -0.083333 -0.083333 -0.083333    0.00462963   1 t-inv F
 -0.083333  0.083333  0.083333    0.00462963   1 t-inv F
  0.083333 -0.083333 -0.083333    0.00462963   1 t-inv F
 -0.083333 -0.083333  0.083333    0.00462963   1 t-inv F
  0.083333  0.083333 -0.083333    0.00462963   1 t-inv F
  0.083333 -0.083333  0.083333    0.00462963   1 t-inv F
 -0.083333  0.083333 -0.083333    0.00462963   1 t-inv F
 -0.250000 -0.083333 -0.083333    0.00462963   2 t-inv F
  0.083333  0.250000  0.083333    0.00462963   2 t-inv F
 -0.083333 -0.250000 -0.083333    0.00462963   2 t-inv F
  0.083333  0.083333  0.250000    0.00462963   2 t-inv F
 -0.083333 -0.083333 -0.250000    0.00462963   2 t-inv F
 -0.083333  0.250000  0.083333    0.00462963   2 t-inv F
  0.083333 -0.250000 -0.083333    0.00462963   2 t-inv F
 -0.250000  0.083333  0.083333    0.00462963   2 t-inv F
  0.250000 -0.083333 -0.083333    0.00462963   2 t-inv F
 -0.083333  0.083333  0.250000    0.00462963   2 t-inv F
  0.083333 -0.083333 -0.250000    0.00462963   2 t-inv F
 -0.250000 -0.083333  0.083333    0.00462963   2 t-inv F
  0.250000  0.083333 -0.083333    0.00462963   2 t-inv F
 -0.083333 -0.250000  0.083333    0.00462963   2 t-inv F
  0.083333  0.250000 -0.083333    0.00462963   2 t-inv F
 -0.083333 -0.083333  0.250000    0.00462963   2 t-inv F
  0.083333  0.083333 -0.250000    0.00462963   2 t-inv F
  0.083333 -0.250000  0.083333    0.00462963   2 t-inv F
 -0.083333  0.250000 -0.083333    0.00462963   2 t-inv F
  0.250000 -0.083333  0.083333    0.00462963   2 t-inv F
 -0.250000  0.083333 -0.083333    0.00462963   2 t-inv F
  0.083333 -0.083333  0.250000    0.00462963   2 t-inv F
 -0.083333  0.083333 -0.250000    0.00462963   2 t-inv F
 -0.416667 -0.083333 -0.083333    0.00462963   3 t-inv F
  0.083333  0.416667  0.083333    0.00462963   3 t-inv F
 -0.083333 -0.416667 -0.083333    0.00462963   3 t-inv F
  0.083333  0.083333  0.416667    0.00462963   3 t-inv F
 -0.083333 -0.083333 -0.416667    0.00462963   3 t-inv F
 -0.083333  0.416667  0.083333    0.00462963   3 t-inv F
  0.083333 -0.416667 -0.083333    0.00462963   3 t-inv F
 -0.416667  0.083333  0.083333    0.00462963   3 t-inv F
  0.416667 -0.083333 -0.083333    0.00462963   3 t-inv F
 -0.083333  0.083333  0.416667    0.00462963   3 t-inv F
  0.083333 -0.083333 -0.416667    0.00462963   3 t-inv F
 -0.416667 -0.083333  0.083333    0.00462963   3 t-inv F
  0.416667  0.083333 -0.083333    0.00462963   3 t-inv F
 -0.083333 -0.416667  0.083333    0.00462963   3 t-inv F
  0.083333  0.416667 -0.083333    0.00462963   3 t-inv F
 -0.083333 -0.083333  0.416667    0.00462963   3 t-inv F
  0.083333  0.083333 -0.416667    0.00462963   3 t-inv F
  0.083333 -0.416667  0.083333    0.00462963   3 t-inv F
 -0.083333  0.416667 -0.083333    0.00462963   3 t-inv F
  0.416667 -0.083333  0.083333    0.00462963   3 t-inv F
 -0.416667  0.083333 -0.083333    0.00462963   3 t-inv F
  0.083333 -0.083333  0.416667    0.00462963   3 t-inv F
 -0.083333  0.083333 -0.416667    0.00462963   3 t-inv F
 -0.250000 -0.250000 -0.083333    0.00462963   4 t-inv F
  0.083333  0.250000  0.250000    0.00462963   4 t-inv F
 -0.083333 -0.250000 -0.250000    0.00462963   4 t-inv F
  0.250000  0.083333  0.250000    0.00462963   4 t-inv F
 -0.250000 -0.083333 -0.250000    0.00462963   4 t-inv F
 -0.250000  0.250000  0.083333    0.00462963   4 t-inv F
  0.250000 -0.250000 -0.083333    0.00462963   4 t-inv F
 -0.250000  0.083333  0.250000    0.00462963   4 t-inv F
  0.250000 -0.083333 -0.250000    0.00462963   4 t-inv F
 -0.083333  0.250000  0.250000    0.00462963   4 t-inv F
  0.083333 -0.250000 -0.250000    0.00462963   4 t-inv F
 -0.250000 -0.250000  0.083333    0.00462963   4 t-inv F
  0.250000  0.250000 -0.083333    0.00462963   4 t-inv F
 -0.083333 -0.250000  0.250000    0.00462963   4 t-inv F
  0.083333  0.250000 -0.250000    0.00462963   4 t-inv F
 -0.250000 -0.083333  0.250000    0.00462963   4 t-inv F
  0.250000  0.083333 -0.250000    0.00462963   4 t-inv F
  0.250000 -0.250000  0.083333    0.00462963   4 t-inv F
 -0.250000  0.250000 -0.083333    0.00462963   4 t-inv F
  0.250000 -0.083333  0.250000    0.00462963   4 t-inv F
 -0.250000  0.083333 -0.250000    0.00462963   4 t-inv F
  0.083333 -0.250000  0.250000    0.00462963   4 t-inv F
 -0.083333  0.250000 -0.250000    0.00462963   4 t-inv F
 -0.416667 -0.250000 -0.083333    0.00462963   5 t-inv F
  0.083333  0.416667  0.250000    0.00462963   5 t-inv F
 -0.083333 -0.416667 -0.250000    0.00462963   5 t-inv F
  0.250000  0.083333  0.416667    0.00462963   5 t-inv F
 -0.250000 -0.083333 -0.416667    0.00462963   5 t-inv F
 -0.250000  0.416667  0.083333    0.00462963   5 t-inv F
  0.250000 -0.416667 -0.083333    0.00462963   5 t-inv F
 -0.416667  0.083333  0.250000    0.00462963   5 t-inv F
  0.416667 -0.083333 -0.250000    0.00462963   5 t-inv F
 -0.083333  0.250000  0.416667    0.00462963   5 t-inv F
  0.083333 -0.250000 -0.416667    0.00462963   5 t-inv F
 -0.416667 -0.250000  0.083333    0.00462963   5 t-inv F
  0.416667  0.250000 -0.083333    0.00462963   5 t-inv F
 -0.083333 -0.416667  0.250000    0.00462963   5 t-inv F
  0.083333  0.416667 -0.250000    0.00462963   5 t-inv F
 -0.250000 -0.083333  0.416667    0.00462963   5 t-inv F
  0.250000  0.083333 -0.416667    0.00462963   5 t-inv F
  0.250000 -0.416667  0.083333    0.00462963   5 t-inv F
 -0.250000  0.416667 -0.083333    0.00462963   5 t-inv F
  0.416667 -0.083333  0.250000    0.00462963   5 t-inv F
 -0.416667  0.083333 -0.250000    0.00462963   5 t-inv F
  0.083333 -0.250000  0.416667    0.00462963   5 t-inv F
 -0.083333  0.250000 -0.416667    0.00462963   5 t-inv F
  0.083333 -0.416667 -0.250000    0.00462963   5 t-inv F
 -0.083333  0.416667  0.250000    0.00462963   5 t-inv F
  0.250000 -0.083333 -0.416667    0.00462963   5 t-inv F
 -0.250000  0.083333  0.416667    0.00462963   5 t-inv F
  0.416667 -0.250000 -0.083333    0.00462963   5 t-inv F
 -0.416667  0.250000  0.083333    0.00462963   5 t-inv F
  0.083333  0.250000 -0.416667    0.00462963   5 t-inv F
 -0.083333 -0.250000  0.416667    0.00462963   5 t-inv F
  0.250000  0.416667 -0.083333    0.00462963   5 t-inv F
 -0.250000 -0.416667  0.083333    0.00462963   5 t-inv F
  0.416667  0.083333 -0.250000    0.00462963   5 t-inv F
 -0.416667 -0.083333  0.250000    0.00462963   5 t-inv F
 -0.250000  0.083333 -0.416667    0.00462963   5 t-inv F
  0.250000 -0.083333  0.416667    0.00462963   5 t-inv F
 -0.416667  0.250000 -0.083333    0.00462963   5 t-inv F
  0.416667 -0.250000  0.083333    0.00462963   5 t-inv F
 -0.083333  0.416667 -0.250000    0.00462963   5 t-inv F
  0.083333 -0.416667  0.250000    0.00462963   5 t-inv F
 -0.416667 -0.083333 -0.250000    0.00462963   5 t-inv F
  0.416667  0.083333  0.250000    0.00462963   5 t-inv F
 -0.250000 -0.416667 -0.083333    0.00462963   5 t-inv F
  0.250000  0.416667  0.083333    0.00462963   5 t-inv F
 -0.083333 -0.250000 -0.416667    0.00462963   5 t-inv F
  0.083333  0.250000  0.416667    0.00462963   5 t-inv F
 -0.416667 -0.416667 -0.083333    0.00462963   6 t-inv F
  0.083333  0.416667  0.416667    0.00462963   6 t-inv F
 -0.083333 -0.416667 -0.416667    0.00462963   6 t-inv F
  0.416667  0.083333  0.416667    0.00462963   6 t-inv F
 -0.416667 -0.083333 -0.416667    0.00462963   6 t-inv F
 -0.416667  0.416667  0.083333    0.00462963   6 t-inv F
  0.416667 -0.416667 -0.083333    0.00462963   6 t-inv F
 -0.416667  0.083333  0.416667    0.00462963   6 t-inv F
  0.416667 -0.083333 -0.416667    0.00462963   6 t-inv F
 -0.083333  0.416667  0.416667    0.00462963   6 t-inv F
  0.083333 -0.416667 -0.416667    0.00462963   6 t-inv F
 -0.416667 -0.416667  0.083333    0.00462963   6 t-inv F
  0.416667  0.416667 -0.083333    0.00462963   6 t-inv F
 -0.083333 -0.416667  0.416667    0.00462963   6 t-inv F
  0.083333  0.416667 -0.416667    0.00462963   6 t-inv F
 -0.416667 -0.083333  0.416667    0.00462963   6 t-inv F
  0.416667  0.083333 -0.416667    0.00462963   6 t-inv F
  0.416667 -0.416667  0.083333    0.00462963   6 t-inv F
 -0.416667  0.416667 -0.083333    0.00462963   6 t-inv F
  0.416667 -0.083333  0.416667    0.00462963   6 t-inv F
 -0.416667  0.083333 -0.416667    0.00462963   6 t-inv F
  0.083333 -0.416667  0.416667    0.00462963   6 t-inv F
 -0.083333  0.416667 -0.416667    0.00462963   6 t-inv F
 -0.250000 -0.250000 -0.250000    0.00462963   7 t-inv F
 -0.250000  0.250000  0.250000    0.00462963   7 t-inv F
  0.250000 -0.250000 -0.250000    0.00462963   7 t-inv F
 -0.250000 -0.250000  0.250000    0.00462963   7 t-inv F
  0.250000  0.250000 -0.250000    0.00462963   7 t-inv F
  0.250000 -0.250000  0.250000    0.00462963   7 t-inv F
 -0.250000  0.250000 -0.250000    0.00462963   7 t-inv F
 -0.416667 -0.250000 -0.250000    0.00462963   8 t-inv F
  0.250000  0.416667  0.250000    0.00462963   8 t-inv F
 -0.250000 -0.416667 -0.250000    0.00462963   8 t-inv F
  0.250000  0.250000  0.416667    0.00462963   8 t-inv F
 -0.250000 -0.250000 -0.416667    0.00462963   8 t-inv F
 -0.250000  0.416667  0.250000    0.00462963   8 t-inv F
  0.250000 -0.416667 -0.250000    0.00462963   8 t-inv F
 -0.416667  0.250000  0.250000    0.00462963   8 t-inv F
  0.416667 -0.250000 -0.250000    0.00462963   8 t-inv F
 -0.250000  0.250000  0.416667    0.00462963   8 t-inv F
  0.250000 -0.250000 -0.416667    0.00462963   8 t-inv F
 -0.416667 -0.250000  0.250000    0.00462963   8 t-inv F
  0.416667  0.250000 -0.250000    0.00462963   8 t-inv F
 -0.250000 -0.416667  0.250000    0.00462963   8 t-inv F
  0.250000  0.416667 -0.250000    0.00462963   8 t-inv F
 -0.250000 -0.250000  0.416667    0.00462963   8 t-inv F
  0.250000  0.250000 -0.416667    0.00462963   8 t-inv F
  0.250000 -0.416667  0.250000    0.00462963   8 t-inv F
 -0.250000  0.416667 -0.250000    0.00462963   8 t-inv F
  0.416667 -0.250000  0.250000    0.00462963   8 t-inv F
 -0.416667  0.250000 -0.250000    0.00462963   8 t-inv F
  0.250000 -0.250000  0.416667    0.00462963   8 t-inv F
 -0.250000  0.250000 -0.416667    0.00462963   8 t-inv F
 -0.416667 -0.416667 -0.250000    0.00462963   9 t-inv F
  0.250000  0.416667  0.416667    0.00462963   9 t-inv F
 -0.250000 -0.416667 -0.416667    0.00462963   9 t-inv F
  0.416667  0.250000  0.416667    0.00462963   9 t-inv F
 -0.416667 -0.250000 -0.416667    0.00462963   9 t-inv F
 -0.416667  0.416667  0.250000    0.00462963   9 t-inv F
  0.416667 -0.416667 -0.250000    0.00462963   9 t-inv F
 -0.416667  0.250000  0.416667    0.00462963   9 t-inv F
  0.416667 -0.250000 -0.416667    0.00462963   9 t-inv F
 -0.250000  0.416667  0.416667    0.00462963   9 t-inv F
  0.250000 -0.416667 -0.416667    0.00462963   9 t-inv F
 -0.416667 -0.416667  0.250000    0.00462963   9 t-inv F
  0.416667  0.416667 -0.250000    0.00462963   9 t-inv F
 -0.250000 -0.416667  0.416667    0.00462963   9 t-inv F
  0.250000  0.416667 -0.416667    0.00462963   9 t-inv F
 -0.416667 -0.250000  0.416667    0.00462963   9 t-inv F
  0.416667  0.250000 -0.416667    0.00462963   9 t-inv F
  0.416667 -0.416667  0.250000    0.00462963   9 t-inv F
 -0.416667  0.416667 -0.250000    0.00462963   9 t-inv F
  0.416667 -0.250000  0.416667    0.00462963   9 t-inv F
 -0.416667  0.250000 -0.416667    0.00462963   9 t-inv F
  0.250000 -0.416667  0.416667    0.00462963   9 t-inv F
 -0.250000  0.416667 -0.416667    0.00462963   9 t-inv F
 -0.416667 -0.416667 -0.416667    0.00462963  10 t-inv F
 -0.416667  0.416667  0.416667    0.00462963  10 t-inv F
  0.416667 -0.416667 -0.416667    0.00462963  10 t-inv F
 -0.416667 -0.416667  0.416667    0.00462963  10 t-inv F
  0.416667  0.416667 -0.416667    0.00462963  10 t-inv F
  0.416667 -0.416667  0.416667    0.00462963  10 t-inv F
 -0.416667  0.416667 -0.416667    0.00462963  10 t-inv F


--------------------------------------------------------------------------------------------------------




 Dimension of arrays:
   k-points           NKPTS =     10   k-points in BZ     NKDIM =     10   number of bands    NBANDS=     64
   number of dos      NEDOS =    301   number of ions     NIONS =      8
   non local maximal  LDIM  =      5   non local SUM 2l+1 LMDIM =     13
   total plane-waves  NPLWV =  13824
   max r-space proj   IRMAX =      1   max aug-charges    IRDMAX=   3749
   dimension x,y,z NGX =    24 NGY =   24 NGZ =   24
   dimension x,y,z NGXF=    48 NGYF=   48 NGZF=   48
   support grid    NGXF=    48 NGYF=   48 NGZF=   48
   ions per type =               4   4
   NGX,Y,Z   is equivalent  to a cutoff of   9.39,  9.39,  9.39 a.u.
   NGXF,Y,Z  is equivalent  to a cutoff of  18.78, 18.78, 18.78 a.u.

 SYSTEM =  unknown system                          
 POSCAR =  Mg4 O4                                  

 Startparameter for this run:
   NWRITE =      2    write-flag & timer
   PREC   = normal    normal or accurate (medium, high low for compatibility)
   ISTART =      0    job   : 0-new  1-cont  2-samecut
   ICHARG =      2    charge: 1-file 2-atom 10-const
   ISPIN  =      1    spin polarized calculation?
   LNONCOLLINEAR =      F non collinear calculations
   LSORBIT =      F    spin-orbit coupling
   INIWAV =      1    electr: 0-lowe 1-rand  2-diag
   LASPH  =      F    aspherical Exc in radial PAW
   METAGGA=      F    non-selfconsistent MetaGGA calc.

 Electronic Relaxation 1
   ENCUT  =  520.0 eV  38.22 Ry    6.18 a.u.   7.90  7.90  7.90*2*pi/ulx,y,z
   ENINI  =  520.0     initial cutoff
   ENAUG  =  758.8 eV  augmentation charge cutoff
   NELM   =     60;   NELMIN=  2; NELMDL= -5     # of ELM steps 
   EDIFF  = 0.1E-04   stopping-criterion for ELM
   LREAL  =      F    real-space projection
   NLSPLINE    = F    spline interpolate recip. space projectors
   LCOMPAT=      F    compatible to vasp.4.4
   GGA_COMPAT  = T    GGA compatible to vasp.4.4-vasp.4.6
   LMAXPAW     = -100 max onsite density
   LMAXMIX     =    2 max onsite mixed and CHGCAR
   VOSKOWN=      0    Vosko Wilk Nusair interpolation
   ROPT   =    0.00000   0.00000
 Ionic relaxation
   EDIFFG = -.1E-07   stopping-criterion for IOM
   NSW    =    133    number of steps for IOM
   NBLOCK =      1;   KBLOCK =    133    inner block; outer block 
   IBRION =      6    ionic relax: 0-MD 1-quasi-New 2-CG
   NFREE  =      2    steps in history (QN), initial steepest desc. (CG)
   ISIF   =      4    stress and relaxation
   IWAVPR =     11    prediction:  0-non 1-charg 2-wave 3-comb
   ISYM   =      2    0-nonsym 1-usesym 2-fastsym
   LCORR  =      T    Harris-Foulkes like correction to forces

   POTIM  = 0.0500    time-step for ionic-motion
   TEIN   =    0.0    initial temperature
   TEBEG  =    0.0;   TEEND  =   0.0 temperature during run
   SMASS  =  -3.00    Nose mass-parameter (am)
   estimated Nose-frequenzy (Omega)   =  0.10E-29 period in steps = 0.13E+48 mass=  -0.413E-27a.u.
   SCALEE = 1.0000    scale energy and forces
   NPACO  =    256;   APACO  = 16.0  distance and # of slots for P.C.
   PSTRESS=    0.0 pullay stress

  Mass of Ions in am
   POMASS =  24.30 16.00
  Ionic Valenz
   ZVAL   =   8.00  6.00
  Atomic Wigner-Seitz radii
   RWIGS  =  -1.00 -1.00
  virtual crystal weights 
   VCA    =   1.00  1.00
   NELECT =      56.0000    total number of electrons
   NUPDOWN=      -1.0000    fix difference up-down

 DOS related values:
   EMIN   =  10.00;   EMAX   =-10.00  energy-range for DOS
   EFERMI =   0.00
   ISMEAR =    -1;   SIGMA  =   0.10  broadening in eV -4-tet -1-fermi 0-gaus

 Electronic relaxation 2 (details)
   IALGO  =     38    algorithm
   LDIAG  =      T    sub-space diagonalisation (order eigenvalues)
   LSUBROT=      F    optimize rotation matrix (better conditioning)
   TURBO    =      0    0=normal 1=particle mesh
   IRESTART =      0    0=no restart 2=restart with 2 vectors
   NREBOOT  =      0    no. of reboots
   NMIN     =      0    reboot dimension
   EREF     =   0.00    reference energy to select bands
   IMIX   =      4    mixing-type and parameters
     AMIX     =   0.40;   BMIX     =  1.00
     AMIX_MAG =   1.60;   BMIX_MAG =  1.00
     AMIN     =   0.10
     WC   =   100.;   INIMIX=   1;  MIXPRE=   1;  MAXMIX= -45

 Intra band minimization:
   WEIMIN = 0.0010     energy-eigenvalue tresh-hold
   EBREAK =  0.39E-11  absolut break condition
   DEPER  =   0.30     relativ break condition  

   TIME   =   0.40     timestep for ELM

  volume/ion in A,a.u.               =       9.59        64.74
  Fermi-wavevector in a.u.,A,eV,Ry     =   1.473860  2.785192 29.555445  2.172264
  Thomas-Fermi vector in A             =   2.588702
 
 Write flags
   LWAVE        =      T    write WAVECAR
   LDOWNSAMPLE  =      F    k-point downsampling of WAVECAR
   LCHARG       =      T    write CHGCAR
   LVTOT        =      F    write LOCPOT, total local potential
   LVHAR        =      F    write LOCPOT, Hartree potential only
   LELF         =      F    write electronic localiz. function (ELF)
   LORBIT       =      0    0 simple, 1 ext, 2 COOP (PROOUT), +10 PAW based schemes


 Dipole corrections
   LMONO  =      F    monopole corrections only (constant potential shift)
   LDIPOL =      F    correct potential (dipole corrections)
   IDIPOL =      0    1-x, 2-y, 3-z, 4-all directions 
   EPSILON=  1.0000000 bulk dielectric constant

 Exchange correlation treatment:
   GGA     =    --    GGA type
   LEXCH   =     8    internal setting for exchange type
   VOSKOWN=      0    Vosko Wilk Nusair interpolation
   LHFCALC =     F    Hartree Fock is set to
   LHFONE  =     F    Hartree Fock one center treatment
   AEXX    =    0.0000 exact exchange contribution

 Linear response parameters
   LEPSILON=     F    determine dielectric tensor
   LRPA    =     F    only Hartree local field effects (RPA)
   LNABLA  =     F    use nabla operator in PAW spheres
   LVEL    =     F    velocity operator in full k-point grid
   LINTERFAST=   F  fast interpolation
   KINTER  =     0    interpolate to denser k-point grid
   CSHIFT  =0.1000    complex shift for real part using Kramers Kronig
   OMEGAMAX=  -1.0    maximum frequency
   DEG_THRESHOLD= 0.2000000E-02 threshold for treating states as degnerate
   RTIME   =   -0.100 relaxation time in fs
  (WPLASMAI=    0.000 imaginary part of plasma frequency in eV, 0.658/RTIME)
   DFIELD  = 0.0000000 0.0000000 0.0000000 field for delta impulse in time
 
 Orbital magnetization related:
   ORBITALMAG=     F  switch on orbital magnetization
   LCHIMAG   =     F  perturbation theory with respect to B field
   DQ        =  0.001000  dq finite difference perturbation B field
   LLRAUG    =     F  two centre corrections for induced B field



--------------------------------------------------------------------------------------------------------


 finite differences with symmetry
 charge density and potential will be updated during run
 non-spin polarized calculation
 Variant of blocked Davidson
 Davidson routine will perform the subspace rotation
 perform sub-space diagonalisation
    after iterative eigenvector-optimisation
 modified Broyden-mixing scheme, WC =      100.0
 initial mixing is a Kerker type mixing with AMIX =  0.4000 and BMIX =      1.0000
 Hartree-type preconditioning will be used
 using additional bands           36
 reciprocal scheme for non local part
 use partial core corrections
 calculate Harris-corrections to forces 
   (improved forces if not selfconsistent)
 use gradient corrections 
 use of overlap-Matrix (Vanderbilt PP)
 Fermi-smearing in eV        SIGMA  =   0.10


--------------------------------------------------------------------------------------------------------


  energy-cutoff  :      520.00
  volume of cell :       76.74
      direct lattice vectors                 reciprocal lattice vectors
     4.249598253  0.000000000  0.000000000     0.235316362  0.000000000  0.000000000
     0.000000000  4.249598253  0.000000000     0.000000000  0.235316362  0.000000000
     0.000000000  0.000000000  4.249598253     0.000000000  0.000000000  0.235316362

  length of vectors
     4.249598253  4.249598253  4.249598253     0.235316362  0.235316362  0.235316362


 
 k-points in units of 2pi/SCALE and weight: pymatgen with grid density = 882 / numbe
   0.01960970  0.01960970  0.01960970       0.037
   0.05882909  0.01960970  0.01960970       0.111
   0.09804848  0.01960970  0.01960970       0.111
   0.05882909  0.05882909  0.01960970       0.111
   0.09804848  0.05882909  0.01960970       0.222
   0.09804848  0.09804848  0.01960970       0.111
   0.05882909  0.05882909  0.05882909       0.037
   0.09804848  0.05882909  0.05882909       0.111
   0.09804848  0.09804848  0.05882909       0.111
   0.09804848  0.09804848  0.09804848       0.037
 
 k-points in reciprocal lattice and weights: pymatgen with grid density = 882 / numbe
   0.08333333  0.08333333  0.08333333       0.037
   0.25000000  0.08333333  0.08333333       0.111
   0.41666667  0.08333333  0.08333333       0.111
   0.25000000  0.25000000  0.08333333       0.111
   0.41666667  0.25000000  0.08333333       0.222
   0.41666667  0.41666667  0.08333333       0.111
   0.25000000  0.25000000  0.25000000       0.037
   0.41666667  0.25000000  0.25000000       0.111
   0.41666667  0.41666667  0.25000000       0.111
   0.41666667  0.41666667  0.41666667       0.037
 
 position of ions in fractional coordinates (direct lattice) 
   0.00000000  0.00000000  0.00000000
   0.00000000  0.50000000  0.50000000
   0.50000000  0.00000000  0.50000000
   0.50000000  0.50000000  0.00000000
   0.50000000  0.00000000  0.00000000
   0.50000000  0.50000000  0.50000000
   0.00000000  0.00000000  0.50000000
   0.00000000  0.50000000  0.00000000
 
 position of ions in cartesian coordinates  (Angst):
   0.00000000  0.00000000  0.00000000
   0.00000000  2.12479913  2.12479913
   2.12479913  0.00000000  2.12479913
   2.12479913  2.12479913  0.00000000
   2.12479913  0.00000000  0.00000000
   2.12479913  2.12479913  2.12479913
   0.00000000  0.00000000  2.12479913
   0.00000000  2.12479913  0.00000000
 


--------------------------------------------------------------------------------------------------------


 k-point   1 :   0.0833 0.0833 0.0833  plane waves:    2061
 k-point   2 :   0.2500 0.0833 0.0833  plane waves:    2059
 k-point   3 :   0.4167 0.0833 0.0833  plane waves:    2065
 k-point   4 :   0.2500 0.2500 0.0833  plane waves:    2057
 k-point   5 :   0.4167 0.2500 0.0833  plane waves:    2071
 k-point   6 :   0.4167 0.4167 0.0833  plane waves:    2075
 k-point   7 :   0.2500 0.2500 0.2500  plane waves:    2070
 k-point   8 :   0.4167 0.2500 0.2500  plane waves:    2068
 k-point   9 :   0.4167 0.4167 0.2500  plane waves:    2069
 k-point  10 :   0.4167 0.4167 0.4167  plane waves:    2064

 maximum and minimum number of plane-waves per node :      2075     2057

 maximum number of plane-waves:      2075
 maximum index in each direction: 
   IXMAX=    7   IYMAX=    7   IZMAX=    7
   IXMIN=   -8   IYMIN=   -8   IZMIN=   -8


 serial   3D FFT for wavefunctions
 parallel 3D FFT for charge:
    minimum data exchange during FFTs selected (reduces bandwidth)


 total amount of memory used by VASP MPI-rank0    35933. kBytes
=======================================================================

   base      :      30000. kBytes
   nonl-proj :       4663. kBytes
   fftplans  :        153. kBytes
   grid      :        695. kBytes
   one-center:         64. kBytes
   wavefun   :        358. kBytes
 
     INWAV:  cpu time    0.0000: real time    0.0000
 Broyden mixing: mesh for mixing (old mesh)
   NGX = 15   NGY = 15   NGZ = 15
  (NGX  = 48   NGY  = 48   NGZ  = 48)
  gives a total of   3375 points

 initial charge density was supplied:
 charge density of overlapping atoms calculated
 number of electron      56.0000000 magnetization 
 keeping initial charge density in first step


--------------------------------------------------------------------------------------------------------


 Maximum index for augmentation-charges          277 (set IRDMAX)


--------------------------------------------------------------------------------------------------------


 First call to EWALD:  gamma=   0.417
 Maximum number of real-space cells 3x 3x 3
 Maximum number of reciprocal cells 3x 3x 3

    FEWALD:  cpu time    0.0017: real time    0.0018


--------------------------------------- Iteration      1(   1)  ---------------------------------------


    POTLOK:  cpu time    0.0698: real time    0.0914
    SETDIJ:  cpu time    0.0028: real time    0.0030
     EDDAV:  cpu time    1.7172: real time    1.9409
       DOS:  cpu time    0.0027: real time    0.0027
    --------------------------------------------
      LOOP:  cpu time    1.7925: real time    2.0380

 eigenvalue-minimisations  :  1280
 total energy-change (2. order) : 0.9306428E+02  (-0.4486412E+04)
 number of electron      56.0000000 magnetization 
 augmentation part       56.0000000 magnetization 

 Free energy of the ion-electron system (eV)
  ---------------------------------------------------
  alpha Z        PSCENC =       270.83528271
  Ewald energy   TEWEN  =     -3816.13891065
  -Hartree energ DENC   =     -1194.02281554
  -exchange      EXHF   =         0.00000000
  -V(xc)+E(xc)   XCENC  =       219.98681186
  PAW double counting   =      3981.86741742    -4460.98340483
  entropy T*S    EENTRO =        -0.00000018
  eigenvalues    EBANDS =      -864.71353770
  atomic energy  EATOM  =      5956.23343546
  Solvation  Ediel_sol  =         0.00000000
  ---------------------------------------------------
  free energy    TOTEN  =        93.06427855 eV

  energy without entropy =       93.06427873  energy(sigma->0) =       93.06427864


--------------------------------------------------------------------------------------------------------




--------------------------------------- Iteration      1(   2)  ---------------------------------------


     EDDAV:  cpu time    2.4839: real time    2.7506
       DOS:  cpu time    0.0017: real time    0.0017
    --------------------------------------------
      LOOP:  cpu time    2.4856: real time    2.7523

 eigenvalue-minimisations  :  1792
 total energy-change (2. order) :-0.1461762E+03  (-0.1461762E+03)
 number of electron      56.0000000 magnetization 
 augmentation part       56.0000000 magnetization 

 Free energy of the ion-electron system (eV)
  ---------------------------------------------------
  alpha Z        PSCENC =       270.83528271
  Ewald energy   TEWEN  =     -3816.13891065
  -Hartree energ DENC   =     -1194.02281554
  -exchange      EXHF   =         0.00000000
  -V(xc)+E(xc)   XCENC  =       219.98681186
  PAW double counting   =      3981.86741742    -4460.98340483
  entropy T*S    EENTRO =        -0.00000000
  eigenvalues    EBANDS =     -1010.88973280
  atomic energy  EATOM  =      5956.23343546
  Solvation  Ediel_sol  =         0.00000000
  ---------------------------------------------------
  free energy    TOTEN  =       -53.11191637 eV

  energy without entropy =      -53.11191637  energy(sigma->0) =      -53.11191637


--------------------------------------------------------------------------------------------------------




--------------------------------------- Iteration      1(   3)  ---------------------------------------


     EDDAV:  cpu time    2.1318: real time    2.3785
       DOS:  cpu time    0.0018: real time    0.0018
    --------------------------------------------
      LOOP:  cpu time    2.1337: real time    2.3804

 eigenvalue-minimisations  :  1536
 total energy-change (2. order) :-0.6547809E+00  (-0.6547809E+00)
 number of electron      56.0000000 magnetization 
 augmentation part       56.0000000 magnetization 

 Free energy of the ion-electron system (eV)
  ---------------------------------------------------
  alpha Z        PSCENC =       270.83528271
  Ewald energy   TEWEN  =     -3816.13891065
  -Hartree energ DENC   =     -1194.02281554
  -exchange      EXHF   =         0.00000000
  -V(xc)+E(xc)   XCENC  =       219.98681186
  PAW double counting   =      3981.86741742    -4460.98340483
  entropy T*S    EENTRO =        -0.00000000
  eigenvalues    EBANDS =     -1011.54451374
  atomic energy  EATOM  =      5956.23343546
  Solvation  Ediel_sol  =         0.00000000
  ---------------------------------------------------
  free energy    TOTEN  =       -53.76669730 eV

  energy without entropy =      -53.76669730  energy(sigma->0) =      -53.76669730


--------------------------------------------------------------------------------------------------------




--------------------------------------- Iteration      1(   4)  ---------------------------------------


     EDDAV:  cpu time    4.1653: real time    4.4981
       DOS:  cpu time    0.0017: real time    0.0017
    --------------------------------------------
      LOOP:  cpu time    4.1670: real time    4.4998

 eigenvalue-minimisations  :  2304
 total energy-change (2. order) :-0.6300231E-03  (-0.6300231E-03)
 number of electron      56.0000000 magnetization 
 augmentation part       56.0000000 magnetization 

 Free energy of the ion-electron system (eV)
  ---------------------------------------------------
  alpha Z        PSCENC =       270.83528271
  Ewald energy   TEWEN  =     -3816.13891065
  -Hartree energ DENC   =     -1194.02281554
  -exchange      EXHF   =         0.00000000
  -V(xc)+E(xc)   XCENC  =       219.98681186
  PAW double counting   =      3981.86741742    -4460.98340483
  entropy T*S    EENTRO =        -0.00000000
  eigenvalues    EBANDS =     -1011.54514376
  atomic energy  EATOM  =      5956.23343546
  Solvation  Ediel_sol  =         0.00000000
  ---------------------------------------------------
  free energy    TOTEN  =       -53.76732733 eV

  energy without entropy =      -53.76732733  energy(sigma->0) =      -53.76732733


--------------------------------------------------------------------------------------------------------




--------------------------------------- Iteration      1(   5)  ---------------------------------------


     EDDAV:  cpu time    2.1159: real time    2.3455
       DOS:  cpu time    0.0018: real time    0.0018
    CHARGE:  cpu time    0.0129: real time    0.0151
    MIXING:  cpu time    0.0020: real time    0.0020
    --------------------------------------------
      LOOP:  cpu time    2.1326: real time    2.3644

 eigenvalue-minimisations  :  1536
 total energy-change (2. order) :-0.1926401E-07  (-0.1925837E-07)
 number of electron      56.0000801 magnetization 
 augmentation part       19.8262544 magnetization 

 Broyden mixing:
  rms(total) = 0.14466E+01    rms(broyden)= 0.14461E+01
  rms(prec ) = 0.34477E+01
  weight for this iteration     100.00

 Free energy of the ion-electron system (eV)
  ---------------------------------------------------
  alpha Z        PSCENC =       270.83528271
  Ewald energy   TEWEN  =     -3816.13891065
  -Hartree energ DENC   =     -1194.02281554
  -exchange      EXHF   =         0.00000000
  -V(xc)+E(xc)   XCENC  =       219.98681186
  PAW double counting   =      3981.86741742    -4460.98340483
  entropy T*S    EENTRO =        -0.00000000
  eigenvalues    EBANDS =     -1011.54514378
  atomic energy  EATOM  =      5956.23343546
  Solvation  Ediel_sol  =         0.00000000
  ---------------------------------------------------
  free energy    TOTEN  =       -53.76732735 eV

  energy without entropy =      -53.76732735  energy(sigma->0) =      -53.76732735


--------------------------------------------------------------------------------------------------------




--------------------------------------- Iteration      1(   6)  ---------------------------------------


    POTLOK:  cpu time    0.0792: real time    0.0940
    SETDIJ:  cpu time    0.0027: real time    0.0028
     EDDAV:  cpu time    1.4979: real time    1.6985
       DOS:  cpu time    0.0017: real time    0.0017
    CHARGE:  cpu time    0.0111: real time    0.0131
    MIXING:  cpu time    0.0033: real time    0.0033
    --------------------------------------------
      LOOP:  cpu time    1.5958: real time    1.8134

 eigenvalue-minimisations  :  1280
 total energy-change (2. order) : 0.6217481E+01  (-0.4168121E+01)
 number of electron      56.0000767 magnetization 
 augmentation part       19.2999328 magnetization 

 Broyden mixing:
  rms(total) = 0.46826E+00    rms(broyden)= 0.46740E+00
  rms(prec ) = 0.75957E+00
  weight for this iteration     100.00

 eigenvalues of (default mixing * dielectric matrix)
  average eigenvalue GAMMA=   0.8454
  0.8454

 Free energy of the ion-electron system (eV)
  ---------------------------------------------------
  alpha Z        PSCENC =       270.83528271
  Ewald energy   TEWEN  =     -3816.13891065
  -Hartree energ DENC   =     -1245.63597499
  -exchange      EXHF   =         0.00000000
  -V(xc)+E(xc)   XCENC  =       224.61351327
  PAW double counting   =      4164.55937325    -4641.24426843
  entropy T*S    EENTRO =        -0.00000000
  eigenvalues    EBANDS =      -960.77229719
  atomic energy  EATOM  =      5956.23343546
  Solvation  Ediel_sol  =         0.00000000
  ---------------------------------------------------
  free energy    TOTEN  =       -47.54984656 eV

  energy without entropy =      -47.54984656  energy(sigma->0) =      -47.54984656


--------------------------------------------------------------------------------------------------------




--------------------------------------- Iteration      1(   7)  ---------------------------------------


    POTLOK:  cpu time    0.0793: real time    0.0950
    SETDIJ:  cpu time    0.0023: real time    0.0025
     EDDAV:  cpu time    3.0306: real time    3.3190
       DOS:  cpu time    0.0018: real time    0.0018
    CHARGE:  cpu time    0.0109: real time    0.0128
    MIXING:  cpu time    0.0033: real time    0.0034
    --------------------------------------------
      LOOP:  cpu time    3.1283: real time    3.4345

 eigenvalue-minimisations  :  1984
 total energy-change (2. order) : 0.5616502E-01  (-0.2436918E-01)
 number of electron      56.0000769 magnetization 
 augmentation part       19.3247840 magnetization 

 Broyden mixing:
  rms(total) = 0.27214E+00    rms(broyden)= 0.27212E+00
  rms(prec ) = 0.46560E+00
  weight for this iteration     100.00

 eigenvalues of (default mixing * dielectric matrix)
  average eigenvalue GAMMA=   1.7993
  0.9556  2.6429

 Free energy of the ion-electron system (eV)
  ---------------------------------------------------
  alpha Z        PSCENC =       270.83528271
  Ewald energy   TEWEN  =     -3816.13891065
  -Hartree energ DENC   =     -1241.19646327
  -exchange      EXHF   =         0.00000000
  -V(xc)+E(xc)   XCENC  =       224.54955822
  PAW double counting   =      4235.79874682    -4713.08940768
  entropy T*S    EENTRO =        -0.00000000
  eigenvalues    EBANDS =      -964.48592316
  atomic energy  EATOM  =      5956.23343546
  Solvation  Ediel_sol  =         0.00000000
  ---------------------------------------------------
  free energy    TOTEN  =       -47.49368154 eV

  energy without entropy =      -47.49368154  energy(sigma->0) =      -47.49368154


--------------------------------------------------------------------------------------------------------




--------------------------------------- Iteration      1(   8)  ---------------------------------------


    POTLOK:  cpu time    0.0801: real time    0.0952
    SETDIJ:  cpu time    0.0023: real time    0.0025
     EDDAV:  cpu time    2.2809: real time    2.5311
       DOS:  cpu time    0.0018: real time    0.0018
    CHARGE:  cpu time    0.0107: real time    0.0128
    MIXING:  cpu time    0.0033: real time    0.0034
    --------------------------------------------
      LOOP:  cpu time    2.3791: real time    2.6468

 eigenvalue-minimisations  :  1664
 total energy-change (2. order) : 0.1993924E-01  (-0.1187705E-01)
 number of electron      56.0000769 magnetization 
 augmentation part       19.3302390 magnetization 

 Broyden mixing:
  rms(total) = 0.33333E-01    rms(broyden)= 0.33321E-01
  rms(prec ) = 0.46256E-01
  weight for this iteration     100.00

 eigenvalues of (default mixing * dielectric matrix)
  average eigenvalue GAMMA=   1.3671
  2.5772  0.9503  0.5738

 Free energy of the ion-electron system (eV)
  ---------------------------------------------------
  alpha Z        PSCENC =       270.83528271
  Ewald energy   TEWEN  =     -3816.13891065
  -Hartree energ DENC   =     -1238.36463502
  -exchange      EXHF   =         0.00000000
  -V(xc)+E(xc)   XCENC  =       224.88103245
  PAW double counting   =      4381.34363458    -4859.53574672
  entropy T*S    EENTRO =        -0.00000000
  eigenvalues    EBANDS =      -966.72783511
  atomic energy  EATOM  =      5956.23343546
  Solvation  Ediel_sol  =         0.00000000
  ---------------------------------------------------
  free energy    TOTEN  =       -47.47374230 eV

  energy without entropy =      -47.47374230  energy(sigma->0) =      -47.47374230


--------------------------------------------------------------------------------------------------------




--------------------------------------- Iteration      1(   9)  ---------------------------------------


    POTLOK:  cpu time    0.0807: real time    0.0963
    SETDIJ:  cpu time    0.0024: real time    0.0026
     EDDAV:  cpu time    2.4025: real time    2.6546
       DOS:  cpu time    0.0016: real time    0.0016
    CHARGE:  cpu time    0.0108: real time    0.0128
    MIXING:  cpu time    0.0034: real time    0.0035
    --------------------------------------------
      LOOP:  cpu time    2.5015: real time    2.7714

 eigenvalue-minimisations  :  1728
 total energy-change (2. order) : 0.5036380E-03  (-0.1183479E-03)
 number of electron      56.0000769 magnetization 
 augmentation part       19.3275193 magnetization 

 Broyden mixing:
  rms(total) = 0.19198E-01    rms(broyden)= 0.19198E-01
  rms(prec ) = 0.25180E-01
  weight for this iteration     100.00

 eigenvalues of (default mixing * dielectric matrix)
  average eigenvalue GAMMA=   1.8094
  0.9686  0.9686  2.7611  2.5393

 Free energy of the ion-electron system (eV)
  ---------------------------------------------------
  alpha Z        PSCENC =       270.83528271
  Ewald energy   TEWEN  =     -3816.13891065
  -Hartree energ DENC   =     -1238.61518387
  -exchange      EXHF   =         0.00000000
  -V(xc)+E(xc)   XCENC  =       224.88721082
  PAW double counting   =      4372.82373777    -4851.03083042
  entropy T*S    EENTRO =        -0.00000000
  eigenvalues    EBANDS =      -966.46798049
  atomic energy  EATOM  =      5956.23343546
  Solvation  Ediel_sol  =         0.00000000
  ---------------------------------------------------
  free energy    TOTEN  =       -47.47323866 eV

  energy without entropy =      -47.47323866  energy(sigma->0) =      -47.47323866


--------------------------------------------------------------------------------------------------------




--------------------------------------- Iteration      1(  10)  ---------------------------------------


    POTLOK:  cpu time    0.0788: real time    0.0937
    SETDIJ:  cpu time    0.0026: real time    0.0028
     EDDAV:  cpu time    2.4417: real time    2.6994
       DOS:  cpu time    0.0017: real time    0.0017
    CHARGE:  cpu time    0.0109: real time    0.0128
    MIXING:  cpu time    0.0033: real time    0.0034
    --------------------------------------------
      LOOP:  cpu time    2.5390: real time    2.8139

 eigenvalue-minimisations  :  1728
 total energy-change (2. order) :-0.4944028E-03  (-0.9391909E-04)
 number of electron      56.0000769 magnetization 
 augmentation part       19.3261975 magnetization 

 Broyden mixing:
  rms(total) = 0.11937E-02    rms(broyden)= 0.11909E-02
  rms(prec ) = 0.22370E-02
  weight for this iteration     100.00

 eigenvalues of (default mixing * dielectric matrix)
  average eigenvalue GAMMA=   1.6626
  2.7973  2.4297  0.9752  0.9752  1.1356

 Free energy of the ion-electron system (eV)
  ---------------------------------------------------
  alpha Z        PSCENC =       270.83528271
  Ewald energy   TEWEN  =     -3816.13891065
  -Hartree energ DENC   =     -1238.52740670
  -exchange      EXHF   =         0.00000000
  -V(xc)+E(xc)   XCENC  =       224.87745821
  PAW double counting   =      4354.00522074    -4832.35608686
  entropy T*S    EENTRO =        -0.00000000
  eigenvalues    EBANDS =      -966.40272598
  atomic energy  EATOM  =      5956.23343546
  Solvation  Ediel_sol  =         0.00000000
  ---------------------------------------------------
  free energy    TOTEN  =       -47.47373306 eV

  energy without entropy =      -47.47373306  energy(sigma->0) =      -47.47373306


--------------------------------------------------------------------------------------------------------




--------------------------------------- Iteration      1(  11)  ---------------------------------------


    POTLOK:  cpu time    0.0779: real time    0.0933
    SETDIJ:  cpu time    0.0024: real time    0.0026
     EDDAV:  cpu time    2.7278: real time    2.9989
       DOS:  cpu time    0.0017: real time    0.0017
    --------------------------------------------
      LOOP:  cpu time    2.8099: real time    3.0966

 eigenvalue-minimisations  :  1856
 total energy-change (2. order) : 0.1575739E-05  (-0.1819852E-05)
 number of electron      56.0000769 magnetization 
 augmentation part       19.3261975 magnetization 

 Free energy of the ion-electron system (eV)
  ---------------------------------------------------
  alpha Z        PSCENC =       270.83528271
  Ewald energy   TEWEN  =     -3816.13891065
  -Hartree energ DENC   =     -1238.57141760
  -exchange      EXHF   =         0.00000000
  -V(xc)+E(xc)   XCENC  =       224.88135996
  PAW double counting   =      4354.86465861    -4833.20716374
  entropy T*S    EENTRO =        -0.00000000
  eigenvalues    EBANDS =      -966.37097624
  atomic energy  EATOM  =      5956.23343546
  Solvation  Ediel_sol  =         0.00000000
  ---------------------------------------------------
  free energy    TOTEN  =       -47.47373149 eV

  energy without entropy =      -47.47373149  energy(sigma->0) =      -47.47373149


--------------------------------------------------------------------------------------------------------




 average (electrostatic) potential at core
  the test charge radii are     0.8294  0.7215
  (the norm of the test charge is              1.0000)
       1 -41.6113       2 -41.6113       3 -41.6113       4 -41.6113       5 -70.1307
       6 -70.1307       7 -70.1307       8 -70.1307
 
 
 
 E-fermi :   4.7868     XC(G=0): -11.3122     alpha+bet :-12.4477


 k-point     1 :       0.0833    0.0833    0.0833
  band No.  band energies     occupation 
      1     -36.5567      2.00000
      2     -36.5567      2.00000
      3     -36.5567      2.00000
      4     -36.5208      2.00000
      5     -36.5208      2.00000
      6     -36.5208      2.00000
      7     -36.5179      2.00000
      8     -36.5179      2.00000
      9     -36.5179      2.00000
     10     -36.4983      2.00000
     11     -36.4936      2.00000
     12     -36.4936      2.00000
     13     -14.4429      2.00000
     14     -13.0635      2.00000
     15     -13.0635      2.00000
     16     -13.0635      2.00000
     17      -1.2354      2.00000
     18      -1.2354      2.00000
     19      -1.2354      2.00000
     20       1.1316      2.00000
     21       1.1316      2.00000
     22       1.1316      2.00000
     23       1.3555      2.00000
     24       1.3555      2.00000
     25       1.3555      2.00000
     26       2.1504      2.00000
     27       2.5730      2.00000
     28       2.5730      2.00000
     29       7.5534      0.00000
     30      11.9344      0.00000
     31      11.9344      0.00000
     32      11.9344      0.00000
     33      12.5263      0.00000
     34      12.5263      0.00000
     35      12.5263      0.00000
     36      15.3781      0.00000
     37      15.3781      0.00000
     38      15.3781      0.00000
     39      17.3142      0.00000
     40      18.4316      0.00000
     41      18.4316      0.00000
     42      20.9995      0.00000
     43      20.9995      0.00000
     44      20.9995      0.00000
     45      21.0476      0.00000
     46      21.0476      0.00000
     47      21.0476      0.00000
     48      23.2941      0.00000
     49      23.2941      0.00000
     50      23.3516      0.00000
     51      26.4307      0.00000
     52      27.3259      0.00000
     53      27.3259      0.00000
     54      27.8489      0.00000
     55      27.8489      0.00000
     56      27.8489      0.00000
     57      29.0473      0.00000
     58      29.0473      0.00000
     59      29.0473      0.00000
     60      31.8302      0.00000
     61      31.8302      0.00000
     62      31.8302      0.00000
     63      32.5614      0.00000
     64      32.5614      0.00000

 k-point     2 :       0.2500    0.0833    0.0833
  band No.  band energies     occupation 
      1     -36.5522      2.00000
      2     -36.5522      2.00000
      3     -36.5504      2.00000
      4     -36.5265      2.00000
      5     -36.5265      2.00000
      6     -36.5173      2.00000
      7     -36.5173      2.00000
      8     -36.5166      2.00000
      9     -36.5146      2.00000
     10     -36.5086      2.00000
     11     -36.4969      2.00000
     12     -36.4957      2.00000
     13     -14.2588      2.00000
     14     -13.2470      2.00000
     15     -13.0368      2.00000
     16     -13.0368      2.00000
     17      -1.0080      2.00000
     18      -1.0080      2.00000
     19      -0.9834      2.00000
     20       0.6375      2.00000
     21       0.6375      2.00000
     22       1.2688      2.00000
     23       1.2688      2.00000
     24       1.3227      2.00000
     25       1.3367      2.00000
     26       1.4964      2.00000
     27       2.3834      2.00000
     28       2.4115      2.00000
     29       8.4870      0.00000
     30      12.1088      0.00000
     31      12.4454      0.00000
     32      12.5193      0.00000
     33      12.5193      0.00000
     34      13.3162      0.00000
     35      13.3162      0.00000
     36      15.1132      0.00000
     37      15.1132      0.00000
     38      15.6990      0.00000
     39      15.9416      0.00000
     40      18.7859      0.00000
     41      18.7983      0.00000
     42      19.7217      0.00000
     43      19.7217      0.00000
     44      20.6845      0.00000
     45      20.7756      0.00000
     46      21.3332      0.00000
     47      21.6408      0.00000
     48      21.6408      0.00000
     49      23.8372      0.00000
     50      25.2411      0.00000
     51      27.3376      0.00000
     52      27.6966      0.00000
     53      27.9211      0.00000
     54      27.9247      0.00000
     55      27.9247      0.00000
     56      28.6671      0.00000
     57      28.8636      0.00000
     58      28.8636      0.00000
     59      29.0460      0.00000
     60      30.1989      0.00000
     61      30.1989      0.00000
     62      31.7604      0.00000
     63      32.2383      0.00000
     64      32.6034      0.00000

 k-point     3 :       0.4167    0.0833    0.0833
  band No.  band energies     occupation 
      1     -36.5451      2.00000
      2     -36.5451      2.00000
      3     -36.5385      2.00000
      4     -36.5340      2.00000
      5     -36.5340      2.00000
      6     -36.5234      2.00000
      7     -36.5177      2.00000
      8     -36.5177      2.00000
      9     -36.5096      2.00000
     10     -36.5089      2.00000
     11     -36.5024      2.00000
     12     -36.5018      2.00000
     13     -13.9384      2.00000
     14     -13.5673      2.00000
     15     -13.0099      2.00000
     16     -13.0099      2.00000
     17      -0.6024      2.00000
     18      -0.6024      2.00000
     19      -0.4454      2.00000
     20       0.0600      2.00000
     21       0.0600      2.00000
     22       0.3687      2.00000
     23       1.1041      2.00000
     24       1.1041      2.00000
     25       1.6573      2.00000
     26       1.7544      2.00000
     27       2.0567      2.00000
     28       2.0775      2.00000
     29       9.8217      0.00000
     30      11.1659      0.00000
     31      13.2316      0.00000
     32      13.4535      0.00000
     33      13.4535      0.00000
     34      14.1833      0.00000
     35      14.1833      0.00000
     36      14.4455      0.00000
     37      14.6435      0.00000
     38      14.6435      0.00000
     39      16.8894      0.00000
     40      18.3718      0.00000
     41      18.3718      0.00000
     42      18.5959      0.00000
     43      19.4037      0.00000
     44      19.8950      0.00000
     45      20.0839      0.00000
     46      20.3169      0.00000
     47      23.0018      0.00000
     48      23.0018      0.00000
     49      24.8507      0.00000
     50      25.2771      0.00000
     51      25.2771      0.00000
     52      26.1923      0.00000
     53      27.4028      0.00000
     54      28.9511      0.00000
     55      28.9511      0.00000
     56      29.1478      0.00000
     57      29.5446      0.00000
     58      29.7542      0.00000
     59      29.9161      0.00000
     60      30.2417      0.00000
     61      30.9089      0.00000
     62      30.9638      0.00000
     63      30.9638      0.00000
     64      32.8962      0.00000

 k-point     4 :       0.2500    0.2500    0.0833
  band No.  band energies     occupation 
      1     -36.5506      2.00000
      2     -36.5506      2.00000
      3     -36.5493      2.00000
      4     -36.5330      2.00000
      5     -36.5207      2.00000
      6     -36.5207      2.00000
      7     -36.5201      2.00000
      8     -36.5129      2.00000
      9     -36.5129      2.00000
     10     -36.5125      2.00000
     11     -36.4999      2.00000
     12     -36.4947      2.00000
     13     -14.0896      2.00000
     14     -13.1915      2.00000
     15     -13.1915      2.00000
     16     -13.0365      2.00000
     17      -0.9488      2.00000
     18      -0.9488      2.00000
     19      -0.8434      2.00000
     20       0.1223      2.00000
     21       0.6537      2.00000
     22       0.9269      2.00000
     23       0.9269      2.00000
     24       1.4703      2.00000
     25       1.4703      2.00000
     26       1.5282      2.00000
     27       2.1672      2.00000
     28       2.4266      2.00000
     29       9.1269      0.00000
     30      12.4317      0.00000
     31      12.4317      0.00000
     32      12.5414      0.00000
     33      13.1805      0.00000
     34      13.1805      0.00000
     35      14.0670      0.00000
     36      14.9795      0.00000
     37      15.3396      0.00000
     38      15.5448      0.00000
     39      15.5448      0.00000
     40      18.6616      0.00000
     41      19.2428      0.00000
     42      19.8264      0.00000
     43      19.8264      0.00000
     44      20.3480      0.00000
     45      20.6341      0.00000
     46      21.3682      0.00000
     47      21.3682      0.00000
     48      21.3973      0.00000
     49      23.1120      0.00000
     50      25.3474      0.00000
     51      26.7859      0.00000
     52      26.7859      0.00000
     53      27.3640      0.00000
     54      28.4086      0.00000
     55      29.4058      0.00000
     56      29.4264      0.00000
     57      29.5450      0.00000
     58      29.5450      0.00000
     59      30.2174      0.00000
     60      30.5412      0.00000
     61      30.6361      0.00000
     62      30.6364      0.00000
     63      30.6364      0.00000
     64      31.7726      0.00000

 k-point     5 :       0.4167    0.2500    0.0833
  band No.  band energies     occupation 
      1     -36.5499      2.00000
      2     -36.5481      2.00000
      3     -36.5445      2.00000
      4     -36.5336      2.00000
      5     -36.5335      2.00000
      6     -36.5274      2.00000
      7     -36.5132      2.00000
      8     -36.5110      2.00000
      9     -36.5105      2.00000
     10     -36.5059      2.00000
     11     -36.5054      2.00000
     12     -36.4983      2.00000
     13     -13.7987      2.00000
     14     -13.4688      2.00000
     15     -13.1146      2.00000
     16     -13.0574      2.00000
     17      -0.8717      2.00000
     18      -0.7535      2.00000
     19      -0.6687      2.00000
     20      -0.1038      2.00000
     21      -0.0040      2.00000
     22       0.4091      2.00000
     23       1.3448      2.00000
     24       1.4632      2.00000
     25       1.5380      2.00000
     26       1.7852      2.00000
     27       1.8201      2.00000
     28       2.1941      2.00000
     29      10.2019      0.00000
     30      11.4394      0.00000
     31      12.8691      0.00000
     32      12.8971      0.00000
     33      13.6651      0.00000
     34      13.9743      0.00000
     35      14.4567      0.00000
     36      14.4747      0.00000
     37      14.9565      0.00000
     38      15.2904      0.00000
     39      16.7392      0.00000
     40      18.1053      0.00000
     41      19.0438      0.00000
     42      19.2769      0.00000
     43      19.6614      0.00000
     44      19.7628      0.00000
     45      20.6355      0.00000
     46      20.9369      0.00000
     47      22.1325      0.00000
     48      22.7073      0.00000
     49      24.0848      0.00000
     50      24.5637      0.00000
     51      25.0377      0.00000
     52      25.4890      0.00000
     53      26.5012      0.00000
     54      28.5760      0.00000
     55      29.6441      0.00000
     56      29.9037      0.00000
     57      30.0597      0.00000
     58      30.3782      0.00000
     59      30.4005      0.00000
     60      30.5907      0.00000
     61      31.0958      0.00000
     62      31.2447      0.00000
     63      31.2516      0.00000
     64      31.3616      0.00000

 k-point     6 :       0.4167    0.4167    0.0833
  band No.  band energies     occupation 
      1     -36.5512      2.00000
      2     -36.5499      2.00000
      3     -36.5499      2.00000
      4     -36.5439      2.00000
      5     -36.5277      2.00000
      6     -36.5200      2.00000
      7     -36.5200      2.00000
      8     -36.5123      2.00000
      9     -36.5048      2.00000
     10     -36.5032      2.00000
     11     -36.5032      2.00000
     12     -36.4983      2.00000
     13     -13.5653      2.00000
     14     -13.3133      2.00000
     15     -13.3133      2.00000
     16     -13.1615      2.00000
     17      -0.9494      2.00000
     18      -0.9063      2.00000
     19      -0.9063      2.00000
     20      -0.6180      2.00000
     21       0.3330      2.00000
     22       0.8405      2.00000
     23       0.8405      2.00000
     24       1.3306      2.00000
     25       1.8246      2.00000
     26       1.8861      2.00000
     27       1.8861      2.00000
     28       2.1560      2.00000
     29      10.9164      0.00000
     30      11.8714      0.00000
     31      11.8714      0.00000
     32      12.3404      0.00000
     33      14.1576      0.00000
     34      14.1576      0.00000
     35      14.3777      0.00000
     36      14.4369      0.00000
     37      15.6252      0.00000
     38      16.3255      0.00000
     39      16.3255      0.00000
     40      17.3764      0.00000
     41      19.5698      0.00000
     42      19.5698      0.00000
     43      19.7750      0.00000
     44      19.8130      0.00000
     45      21.4566      0.00000
     46      22.2479      0.00000
     47      22.2479      0.00000
     48      22.3111      0.00000
     49      23.7235      0.00000
     50      23.9699      0.00000
     51      23.9699      0.00000
     52      23.9740      0.00000
     53      26.6529      0.00000
     54      28.0657      0.00000
     55      28.0657      0.00000
     56      28.3757      0.00000
     57      30.4621      0.00000
     58      31.0756      0.00000
     59      31.1442      0.00000
     60      31.1442      0.00000
     61      31.5218      0.00000
     62      31.5218      0.00000
[...]
      0.000000  0.000000  2.124799     0.051940    0.363309   -0.128716  
      0.000000  2.124799  0.000000     0.051940    0.363309   -0.128716  
 
  14 f  =   11.370774 THz    71.444683 2PiTHz  379.288199 cm-1    47.025760 meV
             X         Y         Z           dx          dy          dz
      0.000000  0.000000  0.000000     0.308890   -0.025897    0.051550  
      0.000000  2.124799  2.124799     0.308890   -0.025897    0.051550  
      2.124799  0.000000  2.124799     0.308890   -0.025897    0.051550  
      2.124799  2.124799  0.000000     0.308890   -0.025897    0.051550  
      2.124799  0.000000  0.000000    -0.382310    0.032052   -0.063803  
      2.124799  2.124799  2.124799    -0.382310    0.032052   -0.063803  
      0.000000  0.000000  2.124799    -0.382310    0.032052   -0.063803  
      0.000000  2.124799  0.000000    -0.382310    0.032052   -0.063803  
 
  15 f  =   11.370774 THz    71.444683 2PiTHz  379.288199 cm-1    47.025760 meV
             X         Y         Z           dx          dy          dz
      0.000000  0.000000  0.000000     0.039585   -0.109114   -0.292007  
      0.000000  2.124799  2.124799     0.039585   -0.109114   -0.292007  
      2.124799  0.000000  2.124799     0.039585   -0.109114   -0.292007  
      2.124799  2.124799  0.000000     0.039585   -0.109114   -0.292007  
      2.124799  0.000000  0.000000    -0.048994    0.135049    0.361414  
      2.124799  2.124799  2.124799    -0.048994    0.135049    0.361414  
      0.000000  0.000000  2.124799    -0.048994    0.135049    0.361414  
      0.000000  2.124799  0.000000    -0.048994    0.135049    0.361414  
 
  16 f  =    8.402966 THz    52.797393 2PiTHz  280.292768 cm-1    34.751887 meV
             X         Y         Z           dx          dy          dz
      0.000000  0.000000  0.000000     0.373251    0.317241    0.125925  
      0.000000  2.124799  2.124799    -0.373251   -0.283172   -0.006734  
      2.124799  0.000000  2.124799    -0.288785   -0.317241    0.006734  
      2.124799  2.124799  0.000000     0.288785    0.283172   -0.125925  
      2.124799  0.000000  0.000000     0.163573    0.124097    0.002951  
      2.124799  2.124799  2.124799    -0.163573   -0.139028   -0.055186  
      0.000000  0.000000  2.124799    -0.126557   -0.124097    0.055186  
      0.000000  2.124799  0.000000     0.126557    0.139028   -0.002951  
 
  17 f  =    8.402966 THz    52.797393 2PiTHz  280.292768 cm-1    34.751887 meV
             X         Y         Z           dx          dy          dz
      0.000000  0.000000  0.000000    -0.039696    0.427436    0.245678  
      0.000000  2.124799  2.124799     0.039696    0.144206   -0.072629  
      2.124799  0.000000  2.124799     0.385666   -0.427436    0.072629  
      2.124799  2.124799  0.000000    -0.385666   -0.144206   -0.245678  
      2.124799  0.000000  0.000000    -0.017396   -0.063197    0.031829  
      2.124799  2.124799  2.124799     0.017396   -0.187320   -0.107666  
      0.000000  0.000000  2.124799     0.169015    0.063197    0.107666  
      0.000000  2.124799  0.000000    -0.169015    0.187320   -0.031829  
 
  18 f  =    8.402966 THz    52.797393 2PiTHz  280.292768 cm-1    34.751887 meV
             X         Y         Z           dx          dy          dz
      0.000000  0.000000  0.000000     0.446345   -0.061135   -0.114151  
      0.000000  2.124799  2.124799    -0.446345    0.450696    0.000609  
      2.124799  0.000000  2.124799     0.018009    0.061135   -0.000609  
      2.124799  2.124799  0.000000    -0.018009   -0.450696    0.114151  
      2.124799  0.000000  0.000000     0.195606   -0.197513   -0.000267  
      2.124799  2.124799  2.124799    -0.195606    0.026792    0.050026  
      0.000000  0.000000  2.124799     0.007892    0.197513   -0.050026  
      0.000000  2.124799  0.000000    -0.007892   -0.026792    0.000267  
 
  19 f  =    8.402966 THz    52.797393 2PiTHz  280.292768 cm-1    34.751887 meV
             X         Y         Z           dx          dy          dz
      0.000000  0.000000  0.000000     0.278597   -0.296848    0.125137  
      0.000000  2.124799  2.124799    -0.278597   -0.299748   -0.035744  
      2.124799  0.000000  2.124799     0.383306    0.296848    0.035744  
      2.124799  2.124799  0.000000    -0.383306    0.299748   -0.125137  
      2.124799  0.000000  0.000000     0.122092    0.131362    0.015664  
      2.124799  2.124799  2.124799    -0.122092    0.130091   -0.054840  
      0.000000  0.000000  2.124799     0.167980   -0.131362    0.054840  
      0.000000  2.124799  0.000000    -0.167980   -0.130091   -0.015664  
 
  20 f  =    8.402966 THz    52.797393 2PiTHz  280.292768 cm-1    34.751887 meV
             X         Y         Z           dx          dy          dz
      0.000000  0.000000  0.000000     0.014422    0.034769    0.037282  
      0.000000  2.124799  2.124799    -0.014422   -0.003450    0.642529  
      2.124799  0.000000  2.124799     0.061492   -0.034769   -0.642529  
      2.124799  2.124799  0.000000    -0.061492    0.003450   -0.037282  
      2.124799  0.000000  0.000000     0.006320    0.001512   -0.281582  
      2.124799  2.124799  2.124799    -0.006320   -0.015237   -0.016338  
      0.000000  0.000000  2.124799     0.026948   -0.001512    0.016338  
      0.000000  2.124799  0.000000    -0.026948    0.015237    0.281582  
 
  21 f  =    8.402966 THz    52.797393 2PiTHz  280.292768 cm-1    34.751887 meV
             X         Y         Z           dx          dy          dz
      0.000000  0.000000  0.000000    -0.038776   -0.207451    0.559597  
      0.000000  2.124799  2.124799     0.038776    0.159608   -0.001288  
      2.124799  0.000000  2.124799    -0.190471    0.207451    0.001288  
      2.124799  2.124799  0.000000     0.190471   -0.159608   -0.559597  
      2.124799  0.000000  0.000000    -0.016993   -0.069946    0.000564  
      2.124799  2.124799  2.124799     0.016993    0.090913   -0.245238  
      0.000000  0.000000  2.124799    -0.083472    0.069946    0.245238  
      0.000000  2.124799  0.000000     0.083472   -0.090913   -0.000564  
 
  22 f/i=    0.023358 THz     0.146760 2PiTHz    0.779127 cm-1     0.096600 meV
             X         Y         Z           dx          dy          dz
      0.000000  0.000000  0.000000    -0.381264   -0.074855    0.017126  
      0.000000  2.124799  2.124799    -0.381264   -0.074855    0.017126  
      2.124799  0.000000  2.124799    -0.381264   -0.074855    0.017126  
      2.124799  2.124799  0.000000    -0.381264   -0.074855    0.017126  
      2.124799  0.000000  0.000000    -0.308045   -0.060480    0.013837  
      2.124799  2.124799  2.124799    -0.308045   -0.060480    0.013837  
      0.000000  0.000000  2.124799    -0.308045   -0.060480    0.013837  
      0.000000  2.124799  0.000000    -0.308045   -0.060480    0.013837  
 
  23 f/i=    0.023358 THz     0.146760 2PiTHz    0.779127 cm-1     0.096600 meV
             X         Y         Z           dx          dy          dz
      0.000000  0.000000  0.000000    -0.015390   -0.010491   -0.388474  
      0.000000  2.124799  2.124799    -0.015390   -0.010491   -0.388474  
      2.124799  0.000000  2.124799    -0.015390   -0.010491   -0.388474  
      2.124799  2.124799  0.000000    -0.015390   -0.010491   -0.388474  
      2.124799  0.000000  0.000000    -0.012435   -0.008476   -0.313870  
      2.124799  2.124799  2.124799    -0.012435   -0.008476   -0.313870  
      0.000000  0.000000  2.124799    -0.012435   -0.008476   -0.313870  
      0.000000  2.124799  0.000000    -0.012435   -0.008476   -0.313870  
 
  24 f/i=    0.023358 THz     0.146760 2PiTHz    0.779127 cm-1     0.096600 meV
             X         Y         Z           dx          dy          dz
      0.000000  0.000000  0.000000    -0.075231    0.381505   -0.007322  
      0.000000  2.124799  2.124799    -0.075231    0.381505   -0.007322  
      2.124799  0.000000  2.124799    -0.075231    0.381505   -0.007322  
      2.124799  2.124799  0.000000    -0.075231    0.381505   -0.007322  
      2.124799  0.000000  0.000000    -0.060783    0.308239   -0.005916  
      2.124799  2.124799  2.124799    -0.060783    0.308239   -0.005916  
      0.000000  0.000000  2.124799    -0.060783    0.308239   -0.005916  
      0.000000  2.124799  0.000000    -0.060783    0.308239   -0.005916  
 


--------------------------------------------------------------------------------------------------------



 ELASTIC MODULI CONTR FROM IONIC RELAXATION (kBar)
 Direction    XX          YY          ZZ          XY          YZ          ZX
 --------------------------------------------------------------------------------
 XX          -0.0000      0.0000      0.0000      0.0000      0.0000     -0.0000
 YY           0.0000     -0.0000      0.0000     -0.0000      0.0000      0.0000
 ZZ           0.0000      0.0000     -0.0000      0.0000     -0.0000      0.0000
 XY           0.0000     -0.0000      0.0000     -0.0000     -0.0000     -0.0000
 YZ           0.0000      0.0000     -0.0000     -0.0000     -0.0000      0.0000
 ZX          -0.0000      0.0000      0.0000     -0.0000      0.0000     -0.0000
 --------------------------------------------------------------------------------


 TOTAL ELASTIC MODULI (kBar)
 Direction    XX          YY          ZZ          XY          YZ          ZX
 --------------------------------------------------------------------------------
 XX        2857.7854    880.8371    880.8371      0.0000      0.0000      0.0000
 YY         880.8371   2857.7854    880.8371     -0.0000      0.0000      0.0000
 ZZ         880.8371    880.8371   2857.7854      0.0000     -0.0000     -0.0000
 XY           0.0000     -0.0000      0.0000   1407.3917     -0.0000     -0.0000
 YZ           0.0000      0.0000     -0.0000     -0.0000   1407.3917      0.0000
 ZX           0.0000      0.0000     -0.0000     -0.0000      0.0000   1407.3917
 --------------------------------------------------------------------------------



--------------------------------------------------------------------------------------------------------


  LATTYP: Found a simple cubic cell.
 ALAT       =     4.2495982535
  
  Lattice vectors:
  
 A1 = (   4.2495982535,   0.0000000000,   0.0000000000)
 A2 = (   0.0000000000,   4.2495982535,   0.0000000000)
 A3 = (   0.0000000000,   0.0000000000,   4.2495982535)


Analysis of symmetry for initial positions (statically):
=====================================================================
 Subroutine PRICEL returns following result:
 
  LATTYP: Found a face centered cubic cell.
 ALAT       =     4.2495982535
  
  Lattice vectors:
  
 A1 = (   2.1247991267,   2.1247991267,   0.0000000000)
 A2 = (   2.1247991267,   0.0000000000,  -2.1247991267)
 A3 = (   0.0000000000,   2.1247991267,  -2.1247991267)
 
   4 primitive cells build up your supercell.
 

 Routine SETGRP: Setting up the symmetry group for a 
 simple cubic supercell.


 Subroutine GETGRP returns: Found 48 space group operations
 (whereof 48 operations were pure point group operations)
 out of a pool of 48 trial point group operations.


The static configuration has the point symmetry O_h .


Analysis of symmetry for dynamics (positions and initial velocities):
=====================================================================
 Subroutine PRICEL returns following result:
 
  LATTYP: Found a face centered cubic cell.
 ALAT       =     4.2495982535
  
  Lattice vectors:
  
 A1 = (   2.1247991267,   2.1247991267,   0.0000000000)
 A2 = (   2.1247991267,   0.0000000000,  -2.1247991267)
 A3 = (   0.0000000000,   2.1247991267,  -2.1247991267)
 
   4 primitive cells build up your supercell.
 

 Routine SETGRP: Setting up the symmetry group for a 
 simple cubic supercell.


 Subroutine GETGRP returns: Found 48 space group operations
 (whereof 48 operations were pure point group operations)
 out of a pool of 48 trial point group operations.


The dynamic configuration has the point symmetry O_h .


 Subroutine INISYM returns: Found 48 space group operations
 (whereof 48 operations are pure point group operations),
 and found     4 'primitive' translations

 
 KPOINTS: pymatgen with grid density = 882 / numbe

Automatic generation of k-mesh.
Space group operators:
 irot       det(A)        alpha          n_x          n_y          n_z        tau_x        tau_y        tau_z
    1     1.000000     0.000000     1.000000     0.000000     0.000000     0.000000     0.000000     0.000000
    2    -1.000000     0.000000     1.000000     0.000000     0.000000     0.000000     0.000000     0.000000
    3     1.000000   120.000000    -0.577350    -0.577350    -0.577350     0.000000     0.000000     0.000000
    4    -1.000000   120.000000    -0.577350    -0.577350    -0.577350     0.000000     0.000000     0.000000
    5     1.000000   120.000000     0.577350     0.577350     0.577350     0.000000     0.000000     0.000000
    6    -1.000000   120.000000     0.577350     0.577350     0.577350     0.000000     0.000000     0.000000
    7     1.000000    90.000000     0.000000     0.000000    -1.000000     0.000000     0.000000     0.000000
    8    -1.000000    90.000000     0.000000     0.000000    -1.000000     0.000000     0.000000     0.000000
    9     1.000000   180.000000     0.000000     0.707107     0.707107     0.000000     0.000000     0.000000
   10    -1.000000   180.000000     0.000000     0.707107     0.707107     0.000000     0.000000     0.000000
   11     1.000000    90.000000     0.000000     1.000000     0.000000     0.000000     0.000000     0.000000
   12    -1.000000    90.000000     0.000000     1.000000     0.000000     0.000000     0.000000     0.000000
   13     1.000000   180.000000     0.000000     0.000000     1.000000     0.000000     0.000000     0.000000
   14    -1.000000   180.000000     0.000000     0.000000     1.000000     0.000000     0.000000     0.000000
   15     1.000000   120.000000    -0.577350     0.577350     0.577350     0.000000     0.000000     0.000000
   16    -1.000000   120.000000    -0.577350     0.577350     0.577350     0.000000     0.000000     0.000000
   17     1.000000   120.000000    -0.577350     0.577350    -0.577350     0.000000     0.000000     0.000000
   18    -1.000000   120.000000    -0.577350     0.577350    -0.577350     0.000000     0.000000     0.000000
   19     1.000000    90.000000     0.000000     0.000000     1.000000     0.000000     0.000000     0.000000
   20    -1.000000    90.000000     0.000000     0.000000     1.000000     0.000000     0.000000     0.000000
   21     1.000000    90.000000    -1.000000     0.000000     0.000000     0.000000     0.000000     0.000000
   22    -1.000000    90.000000    -1.000000     0.000000     0.000000     0.000000     0.000000     0.000000
   23     1.000000   180.000000     0.707107     0.000000     0.707107     0.000000     0.000000     0.000000
   24    -1.000000   180.000000     0.707107     0.000000     0.707107     0.000000     0.000000     0.000000
   25     1.000000   120.000000     0.577350    -0.577350     0.577350     0.000000     0.000000     0.000000
   26    -1.000000   120.000000     0.577350    -0.577350     0.577350     0.000000     0.000000     0.000000
   27     1.000000   120.000000    -0.577350    -0.577350     0.577350     0.000000     0.000000     0.000000
   28    -1.000000   120.000000    -0.577350    -0.577350     0.577350     0.000000     0.000000     0.000000
   29     1.000000   180.000000     1.000000     0.000000     0.000000     0.000000     0.000000     0.000000
   30    -1.000000   180.000000     1.000000     0.000000     0.000000     0.000000     0.000000     0.000000
   31     1.000000    90.000000     0.000000    -1.000000     0.000000     0.000000     0.000000     0.000000
   32    -1.000000    90.000000     0.000000    -1.000000     0.000000     0.000000     0.000000     0.000000
   33     1.000000   180.000000     0.707107     0.707107     0.000000     0.000000     0.000000     0.000000
   34    -1.000000   180.000000     0.707107     0.707107     0.000000     0.000000     0.000000     0.000000
   35     1.000000    90.000000     1.000000     0.000000     0.000000     0.000000     0.000000     0.000000
   36    -1.000000    90.000000     1.000000     0.000000     0.000000     0.000000     0.000000     0.000000
   37     1.000000   120.000000     0.577350    -0.577350    -0.577350     0.000000     0.000000     0.000000
   38    -1.000000   120.000000     0.577350    -0.577350    -0.577350     0.000000     0.000000     0.000000
   39     1.000000   180.000000     0.000000     1.000000     0.000000     0.000000     0.000000     0.000000
   40    -1.000000   180.000000     0.000000     1.000000     0.000000     0.000000     0.000000     0.000000
   41     1.000000   120.000000     0.577350     0.577350    -0.577350     0.000000     0.000000     0.000000
   42    -1.000000   120.000000     0.577350     0.577350    -0.577350     0.000000     0.000000     0.000000
   43     1.000000   180.000000     0.000000    -0.707107     0.707107     0.000000     0.000000     0.000000
   44    -1.000000   180.000000     0.000000    -0.707107     0.707107     0.000000     0.000000     0.000000
   45     1.000000   180.000000     0.707107    -0.707107     0.000000     0.000000     0.000000     0.000000
   46    -1.000000   180.000000     0.707107    -0.707107     0.000000     0.000000     0.000000     0.000000
   47     1.000000   180.000000     0.707107     0.000000    -0.707107     0.000000     0.000000     0.000000
   48    -1.000000   180.000000     0.707107     0.000000    -0.707107     0.000000     0.000000     0.000000
 
 Subroutine IBZKPT returns following result:
 ===========================================
 
 Found     10 irreducible k-points:
 
 Following reciprocal coordinates:
            Coordinates               Weight
  0.083333  0.083333  0.083333      8.000000
  0.250000  0.083333  0.083333     24.000000
  0.416667  0.083333  0.083333     24.000000
  0.250000  0.250000  0.083333     24.000000
  0.416667  0.250000  0.083333     48.000000
  0.416667  0.416667  0.083333     24.000000
  0.250000  0.250000  0.250000      8.000000
  0.416667  0.250000  0.250000     24.000000
  0.416667  0.416667  0.250000     24.000000
  0.416667  0.416667  0.416667      8.000000
 
 Following cartesian coordinates:
            Coordinates               Weight
  0.019610  0.019610  0.019610      8.000000
  0.058829  0.019610  0.019610     24.000000
  0.098048  0.019610  0.019610     24.000000
  0.058829  0.058829  0.019610     24.000000
  0.098048  0.058829  0.019610     48.000000
  0.098048  0.098048  0.019610     24.000000
  0.058829  0.058829  0.058829      8.000000
  0.098048  0.058829  0.058829     24.000000
  0.098048  0.098048  0.058829     24.000000
  0.098048  0.098048  0.098048      8.000000
 
 writing wavefunctions
     LOOP+:  cpu time   27.6689: real time   30.5970
    4ORBIT:  cpu time    0.0000: real time    0.0000

 total amount of memory used by VASP MPI-rank0    35933. kBytes
=======================================================================

   base      :      30000. kBytes
   nonl-proj :       4663. kBytes
   fftplans  :        153. kBytes
   grid      :        695. kBytes
   one-center:         64. kBytes
   wavefun   :        358. kBytes
 
  
  
 General timing and accounting informations for this job:
 ========================================================
  
                  Total CPU time used (sec):      870.837
                            User time (sec):      490.560
                          System time (sec):      380.277
                         Elapsed time (sec):      962.996
  
                   Maximum memory used (kb):      457752.
                   Average memory used (kb):           0.
  
                          Minor page faults:       290350
                          Major page faults:          112
                 Voluntary context switches:         2544
