   4   4   1   0
  0.1312606E+02  0.3743704E-09  0.3744954E-09  0.3744954E-09  0.5000000E-15
  1.000000000000000E-004
  CAR 
 unknown system                          
     23.08124058     -4.08202111  301      8.32507930      1.00000000
     -4.082  0.0000E+00  0.0000E+00  0.0000E+00  0.0000E+00
     -3.991  0.0000E+00  0.0000E+00  0.0000E+00  0.0000E+00
     -3.901  0.0000E+00  0.0000E+00  0.0000E+00  0.0000E+00
     -3.810  0.0000E+00  0.0000E+00  0.0000E+00  0.0000E+00
     -3.720  0.0000E+00  0.0000E+00  0.0000E+00  0.0000E+00
     -3.629  0.0000E+00  0.0000E+00  0.0000E+00  0.0000E+00
     -3.539  0.0000E+00  0.0000E+00  0.0000E+00  0.0000E+00
     -3.448  0.0000E+00  0.0000E+00  0.0000E+00  0.0000E+00
     -3.358  0.0000E+00  0.0000E+00  0.0000E+00  0.0000E+00
     -3.267  0.3259E-05  0.3344E-05  0.2951E-06  0.3028E-06
     -3.177  0.2520E-04  0.2586E-04  0.2577E-05  0.2644E-05
     -3.086  0.1592E-03  0.1633E-03  0.1699E-04  0.1743E-04
     -2.995  0.9712E-03  0.9960E-03  0.1049E-03  0.1076E-03
     -2.905  0.5358E-02  0.5483E-02  0.5901E-03  0.6040E-03
     -2.814  0.2235E-01  0.2273E-01  0.2614E-02  0.2662E-02
     -2.724  0.5409E-01  0.5454E-01  0.7511E-02  0.7601E-02
     -2.633  0.8095E-01  0.8132E-01  0.1484E-01  0.1496E-01
     -2.543  0.1141E+00  0.1146E+00  0.2517E-01  0.2534E-01
     -2.452  0.1232E+00  0.1230E+00  0.3633E-01  0.3648E-01
     -2.362  0.1328E+00  0.1333E+00  0.4835E-01  0.4855E-01
     -2.271  0.1730E+00  0.1733E+00  0.6403E-01  0.6426E-01
     -2.181  0.1712E+00  0.1711E+00  0.7953E-01  0.7975E-01
     -2.090  0.1829E+00  0.1833E+00  0.9612E-01  0.9637E-01
     -2.000  0.1904E+00  0.1901E+00  0.1134E+00  0.1136E+00
     -1.909  0.1980E+00  0.1987E+00  0.1313E+00  0.1316E+00
     -1.818  0.2454E+00  0.2457E+00  0.1535E+00  0.1539E+00
     -1.728  0.2489E+00  0.2489E+00  0.1761E+00  0.1764E+00
     -1.637  0.2366E+00  0.2361E+00  0.1975E+00  0.1978E+00
     -1.547  0.2139E+00  0.2141E+00  0.2169E+00  0.2172E+00
     -1.456  0.2806E+00  0.2819E+00  0.2424E+00  0.2428E+00
     -1.366  0.3255E+00  0.3252E+00  0.2718E+00  0.2722E+00
     -1.275  0.3065E+00  0.3067E+00  0.2996E+00  0.3000E+00
     -1.185  0.3146E+00  0.3140E+00  0.3281E+00  0.3285E+00
     -1.094  0.2866E+00  0.2872E+00  0.3541E+00  0.3545E+00
     -1.004  0.3912E+00  0.3927E+00  0.3896E+00  0.3901E+00
     -0.913  0.4310E+00  0.4307E+00  0.4286E+00  0.4291E+00
     -0.822  0.3876E+00  0.3870E+00  0.4638E+00  0.4642E+00
     -0.732  0.3099E+00  0.3086E+00  0.4919E+00  0.4922E+00
     -0.641  0.2776E+00  0.2787E+00  0.5170E+00  0.5174E+00
     -0.551  0.4053E+00  0.4067E+00  0.5538E+00  0.5543E+00
     -0.460  0.3868E+00  0.3851E+00  0.5888E+00  0.5892E+00
     -0.370  0.2942E+00  0.2936E+00  0.6155E+00  0.6159E+00
     -0.279  0.2313E+00  0.2301E+00  0.6365E+00  0.6367E+00
     -0.189  0.2109E+00  0.2122E+00  0.6556E+00  0.6560E+00
     -0.098  0.3569E+00  0.3586E+00  0.6880E+00  0.6885E+00
     -0.008  0.3500E+00  0.3484E+00  0.7197E+00  0.7200E+00
      0.083  0.2411E+00  0.2401E+00  0.7415E+00  0.7418E+00
      0.174  0.1570E+00  0.1558E+00  0.7557E+00  0.7559E+00
      0.264  0.1379E+00  0.1389E+00  0.7682E+00  0.7685E+00
      0.355  0.2858E+00  0.2880E+00  0.7942E+00  0.7946E+00
      0.445  0.3194E+00  0.3179E+00  0.8231E+00  0.8234E+00
      0.536  0.1985E+00  0.1977E+00  0.8411E+00  0.8413E+00
      0.626  0.2107E+00  0.2113E+00  0.8602E+00  0.8605E+00
      0.717  0.2514E+00  0.2522E+00  0.8829E+00  0.8833E+00
      0.807  0.3444E+00  0.3460E+00  0.9142E+00  0.9147E+00
      0.898  0.3987E+00  0.3983E+00  0.9503E+00  0.9508E+00
      0.988  0.3256E+00  0.3246E+00  0.9798E+00  0.9802E+00
      1.079  0.2975E+00  0.2974E+00  0.1007E+01  0.1007E+01
      1.170  0.2918E+00  0.2920E+00  0.1033E+01  0.1034E+01
      1.260  0.3809E+00  0.3829E+00  0.1068E+01  0.1068E+01
      1.351  0.4743E+00  0.4747E+00  0.1111E+01  0.1111E+01
      1.441  0.4763E+00  0.4760E+00  0.1154E+01  0.1154E+01
      1.532  0.4161E+00  0.4148E+00  0.1192E+01  0.1192E+01
      1.622  0.3604E+00  0.3605E+00  0.1224E+01  0.1225E+01
      1.713  0.4456E+00  0.4472E+00  0.1265E+01  0.1265E+01
      1.803  0.5242E+00  0.5246E+00  0.1312E+01  0.1313E+01
      1.894  0.5183E+00  0.5176E+00  0.1359E+01  0.1360E+01
      1.984  0.4489E+00  0.4478E+00  0.1400E+01  0.1400E+01
      2.075  0.4404E+00  0.4417E+00  0.1440E+01  0.1440E+01
      2.166  0.6331E+00  0.6355E+00  0.1497E+01  0.1498E+01
      2.256  0.6155E+00  0.6134E+00  0.1553E+01  0.1553E+01
      2.347  0.4861E+00  0.4855E+00  0.1597E+01  0.1597E+01
      2.437  0.4621E+00  0.4618E+00  0.1639E+01  0.1639E+01
      2.528  0.4748E+00  0.4751E+00  0.1682E+01  0.1682E+01
      2.618  0.4833E+00  0.4828E+00  0.1726E+01  0.1726E+01
      2.709  0.4422E+00  0.4422E+00  0.1766E+01  0.1766E+01
      2.799  0.4666E+00  0.4673E+00  0.1808E+01  0.1809E+01
      2.890  0.4864E+00  0.4860E+00  0.1852E+01  0.1853E+01
      2.980  0.4252E+00  0.4246E+00  0.1891E+01  0.1891E+01
      3.071  0.4103E+00  0.4101E+00  0.1928E+01  0.1928E+01
      3.162  0.3901E+00  0.3900E+00  0.1963E+01  0.1964E+01
      3.252  0.3952E+00  0.3961E+00  0.1999E+01  0.1999E+01
      3.343  0.5327E+00  0.5350E+00  0.2047E+01  0.2048E+01
      3.433  0.6210E+00  0.6212E+00  0.2103E+01  0.2104E+01
      3.524  0.5632E+00  0.5616E+00  0.2154E+01  0.2155E+01
      3.614  0.4582E+00  0.4573E+00  0.2196E+01  0.2197E+01
      3.705  0.3965E+00  0.3955E+00  0.2232E+01  0.2232E+01
      3.795  0.3538E+00  0.3543E+00  0.2264E+01  0.2265E+01
      3.886  0.4271E+00  0.4281E+00  0.2303E+01  0.2303E+01
      3.976  0.4618E+00  0.4627E+00  0.2345E+01  0.2345E+01
      4.067  0.5477E+00  0.5489E+00  0.2394E+01  0.2395E+01
      4.158  0.5926E+00  0.5931E+00  0.2448E+01  0.2449E+01
      4.248  0.6809E+00  0.6825E+00  0.2510E+01  0.2511E+01
      4.339  0.6813E+00  0.6789E+00  0.2571E+01  0.2572E+01
      4.429  0.5042E+00  0.5029E+00  0.2617E+01  0.2618E+01
      4.520  0.4906E+00  0.4917E+00  0.2661E+01  0.2662E+01
      4.610  0.6016E+00  0.6044E+00  0.2716E+01  0.2717E+01
      4.701  0.7693E+00  0.7704E+00  0.2786E+01  0.2787E+01
      4.791  0.7585E+00  0.7568E+00  0.2854E+01  0.2855E+01
      4.882  0.6240E+00  0.6214E+00  0.2911E+01  0.2912E+01
      4.972  0.4707E+00  0.4698E+00  0.2954E+01  0.2954E+01
      5.063  0.5743E+00  0.5778E+00  0.3006E+01  0.3007E+01
      5.153  0.7232E+00  0.7237E+00  0.3071E+01  0.3072E+01
      5.244  0.6657E+00  0.6644E+00  0.3132E+01  0.3132E+01
      5.335  0.6076E+00  0.6066E+00  0.3187E+01  0.3187E+01
      5.425  0.5186E+00  0.5170E+00  0.3234E+01  0.3234E+01
      5.516  0.5250E+00  0.5262E+00  0.3281E+01  0.3282E+01
      5.606  0.5796E+00  0.5798E+00  0.3334E+01  0.3335E+01
      5.697  0.5454E+00  0.5454E+00  0.3383E+01  0.3384E+01
      5.787  0.6002E+00  0.6020E+00  0.3438E+01  0.3439E+01
      5.878  0.7313E+00  0.7326E+00  0.3504E+01  0.3505E+01
      5.968  0.7320E+00  0.7313E+00  0.3570E+01  0.3571E+01
      6.059  0.7892E+00  0.7902E+00  0.3642E+01  0.3643E+01
      6.149  0.7232E+00  0.7210E+00  0.3707E+01  0.3708E+01
      6.240  0.6063E+00  0.6050E+00  0.3762E+01  0.3763E+01
      6.331  0.5406E+00  0.5403E+00  0.3811E+01  0.3812E+01
      6.421  0.5521E+00  0.5523E+00  0.3861E+01  0.3862E+01
      6.512  0.5234E+00  0.5228E+00  0.3909E+01  0.3909E+01
      6.602  0.5415E+00  0.5427E+00  0.3958E+01  0.3959E+01
      6.693  0.5975E+00  0.5981E+00  0.4012E+01  0.4013E+01
      6.783  0.7076E+00  0.7089E+00  0.4076E+01  0.4077E+01
      6.874  0.6804E+00  0.6783E+00  0.4138E+01  0.4138E+01
      6.964  0.5935E+00  0.5937E+00  0.4191E+01  0.4192E+01
      7.055  0.6624E+00  0.6637E+00  0.4252E+01  0.4252E+01
      7.145  0.6299E+00  0.6282E+00  0.4309E+01  0.4309E+01
      7.236  0.5083E+00  0.5067E+00  0.4355E+01  0.4355E+01
      7.327  0.4411E+00  0.4402E+00  0.4395E+01  0.4395E+01
      7.417  0.4014E+00  0.4020E+00  0.4431E+01  0.4432E+01
      7.508  0.4885E+00  0.4905E+00  0.4475E+01  0.4476E+01
      7.598  0.5725E+00  0.5729E+00  0.4527E+01  0.4528E+01
      7.689  0.6366E+00  0.6376E+00  0.4585E+01  0.4586E+01
      7.779  0.6987E+00  0.6987E+00  0.4648E+01  0.4649E+01
      7.870  0.6125E+00  0.6113E+00  0.4704E+01  0.4705E+01
      7.960  0.6201E+00  0.6218E+00  0.4760E+01  0.4761E+01
      8.051  0.7911E+00  0.7929E+00  0.4832E+01  0.4833E+01
      8.141  0.7722E+00  0.7703E+00  0.4902E+01  0.4903E+01
      8.232  0.5968E+00  0.5942E+00  0.4956E+01  0.4956E+01
      8.323  0.4735E+00  0.4718E+00  0.4999E+01  0.4999E+01
      8.413  0.3935E+00  0.3926E+00  0.5034E+01  0.5035E+01
      8.504  0.4249E+00  0.4260E+00  0.5073E+01  0.5073E+01
      8.594  0.5382E+00  0.5410E+00  0.5122E+01  0.5122E+01
      8.685  0.7315E+00  0.7342E+00  0.5188E+01  0.5189E+01
      8.775  0.9166E+00  0.9186E+00  0.5271E+01  0.5272E+01
      8.866  0.9041E+00  0.9006E+00  0.5353E+01  0.5354E+01
      8.956  0.5882E+00  0.5846E+00  0.5406E+01  0.5407E+01
      9.047  0.5382E+00  0.5396E+00  0.5455E+01  0.5456E+01
      9.137  0.6302E+00  0.6309E+00  0.5512E+01  0.5513E+01
      9.228  0.6117E+00  0.6116E+00  0.5568E+01  0.5568E+01
      9.319  0.5961E+00  0.5962E+00  0.5622E+01  0.5622E+01
      9.409  0.6925E+00  0.6940E+00  0.5684E+01  0.5685E+01
      9.500  0.7394E+00  0.7385E+00  0.5751E+01  0.5752E+01
      9.590  0.6526E+00  0.6515E+00  0.5810E+01  0.5811E+01
      9.681  0.6052E+00  0.6053E+00  0.5865E+01  0.5866E+01
      9.771  0.6183E+00  0.6192E+00  0.5921E+01  0.5922E+01
      9.862  0.6596E+00  0.6594E+00  0.5981E+01  0.5982E+01
      9.952  0.5433E+00  0.5405E+00  0.6030E+01  0.6031E+01
     10.043  0.5030E+00  0.5038E+00  0.6076E+01  0.6077E+01
     10.133  0.5953E+00  0.5951E+00  0.6130E+01  0.6131E+01
     10.224  0.6165E+00  0.6166E+00  0.6186E+01  0.6186E+01
     10.315  0.7028E+00  0.7046E+00  0.6249E+01  0.6250E+01
     10.405  0.7650E+00  0.7660E+00  0.6319E+01  0.6320E+01
     10.496  0.8322E+00  0.8313E+00  0.6394E+01  0.6395E+01
     10.586  0.7583E+00  0.7568E+00  0.6463E+01  0.6464E+01
     10.677  0.8372E+00  0.8404E+00  0.6539E+01  0.6540E+01
     10.767  0.1038E+01  0.1039E+01  0.6633E+01  0.6634E+01
     10.858  0.1047E+01  0.1047E+01  0.6728E+01  0.6729E+01
     10.948  0.1080E+01  0.1080E+01  0.6826E+01  0.6827E+01
     11.039  0.8693E+00  0.8645E+00  0.6904E+01  0.6905E+01
     11.129  0.5102E+00  0.5077E+00  0.6951E+01  0.6951E+01
     11.220  0.5273E+00  0.5285E+00  0.6998E+01  0.6999E+01
     11.310  0.6033E+00  0.6044E+00  0.7053E+01  0.7054E+01
     11.401  0.6654E+00  0.6663E+00  0.7113E+01  0.7114E+01
     11.492  0.7334E+00  0.7335E+00  0.7180E+01  0.7181E+01
     11.582  0.8184E+00  0.8201E+00  0.7254E+01  0.7255E+01
     11.673  0.8889E+00  0.8882E+00  0.7335E+01  0.7335E+01
     11.763  0.8145E+00  0.8151E+00  0.7408E+01  0.7409E+01
     11.854  0.7825E+00  0.7811E+00  0.7479E+01  0.7480E+01
     11.944  0.6939E+00  0.6926E+00  0.7542E+01  0.7543E+01
     12.035  0.7875E+00  0.7897E+00  0.7614E+01  0.7614E+01
     12.125  0.8071E+00  0.8064E+00  0.7687E+01  0.7687E+01
     12.216  0.7610E+00  0.7601E+00  0.7756E+01  0.7756E+01
     12.306  0.7784E+00  0.7787E+00  0.7826E+01  0.7827E+01
     12.397  0.8450E+00  0.8471E+00  0.7903E+01  0.7904E+01
     12.488  0.8540E+00  0.8533E+00  0.7980E+01  0.7981E+01
     12.578  0.7847E+00  0.7833E+00  0.8051E+01  0.8052E+01
     12.669  0.7191E+00  0.7183E+00  0.8117E+01  0.8117E+01
     12.759  0.6173E+00  0.6169E+00  0.8172E+01  0.8173E+01
     12.850  0.6975E+00  0.6996E+00  0.8236E+01  0.8236E+01
     12.940  0.8439E+00  0.8449E+00  0.8312E+01  0.8313E+01
     13.031  0.8797E+00  0.8789E+00  0.8392E+01  0.8393E+01
     13.121  0.7001E+00  0.6978E+00  0.8455E+01  0.8456E+01
     13.212  0.6049E+00  0.6036E+00  0.8510E+01  0.8511E+01
     13.302  0.6312E+00  0.6315E+00  0.8567E+01  0.8568E+01
     13.393  0.7311E+00  0.7320E+00  0.8634E+01  0.8634E+01
     13.484  0.7473E+00  0.7488E+00  0.8701E+01  0.8702E+01
     13.574  0.7962E+00  0.7979E+00  0.8774E+01  0.8774E+01
     13.665  0.7615E+00  0.7592E+00  0.8843E+01  0.8843E+01
     13.755  0.6795E+00  0.6780E+00  0.8904E+01  0.8905E+01
     13.846  0.6910E+00  0.6918E+00  0.8967E+01  0.8967E+01
     13.936  0.6914E+00  0.6915E+00  0.9029E+01  0.9030E+01
     14.027  0.7432E+00  0.7442E+00  0.9097E+01  0.9097E+01
     14.117  0.8109E+00  0.8103E+00  0.9170E+01  0.9171E+01
     14.208  0.6420E+00  0.6415E+00  0.9228E+01  0.9229E+01
     14.298  0.6374E+00  0.6376E+00  0.9286E+01  0.9287E+01
     14.389  0.6981E+00  0.6981E+00  0.9349E+01  0.9350E+01
     14.480  0.7639E+00  0.7634E+00  0.9419E+01  0.9419E+01
     14.570  0.9035E+00  0.9039E+00  0.9501E+01  0.9501E+01
     14.661  0.1003E+01  0.1004E+01  0.9591E+01  0.9592E+01
     14.751  0.9934E+00  0.9921E+00  0.9681E+01  0.9682E+01
     14.842  0.7428E+00  0.7391E+00  0.9749E+01  0.9749E+01
     14.932  0.6082E+00  0.6082E+00  0.9804E+01  0.9804E+01
     15.023  0.7488E+00  0.7493E+00  0.9872E+01  0.9872E+01
     15.113  0.8846E+00  0.8855E+00  0.9952E+01  0.9952E+01
     15.204  0.9487E+00  0.9491E+00  0.1004E+02  0.1004E+02
     15.294  0.8294E+00  0.8283E+00  0.1011E+02  0.1011E+02
     15.385  0.7044E+00  0.7023E+00  0.1018E+02  0.1018E+02
     15.476  0.6867E+00  0.6871E+00  0.1024E+02  0.1024E+02
     15.566  0.6988E+00  0.7010E+00  0.1030E+02  0.1030E+02
     15.657  0.7855E+00  0.7866E+00  0.1037E+02  0.1037E+02
     15.747  0.8457E+00  0.8454E+00  0.1045E+02  0.1045E+02
     15.838  0.7220E+00  0.7196E+00  0.1052E+02  0.1052E+02
     15.928  0.7241E+00  0.7243E+00  0.1058E+02  0.1058E+02
     16.019  0.8739E+00  0.8739E+00  0.1066E+02  0.1066E+02
     16.109  0.1051E+01  0.1050E+01  0.1076E+02  0.1076E+02
     16.200  0.1178E+01  0.1176E+01  0.1086E+02  0.1086E+02
     16.290  0.9867E+00  0.9829E+00  0.1095E+02  0.1095E+02
     16.381  0.8563E+00  0.8498E+00  0.1103E+02  0.1103E+02
     16.472  0.9478E+00  0.9396E+00  0.1112E+02  0.1111E+02
     16.562  0.8303E+00  0.8330E+00  0.1119E+02  0.1119E+02
     16.653  0.4486E+00  0.4607E+00  0.1123E+02  0.1123E+02
     16.743  0.3083E+00  0.3134E+00  0.1126E+02  0.1126E+02
     16.834  0.4366E+00  0.4370E+00  0.1130E+02  0.1130E+02
     16.924  0.5355E+00  0.5336E+00  0.1135E+02  0.1135E+02
     17.015  0.4590E+00  0.4592E+00  0.1139E+02  0.1139E+02
     17.105  0.4172E+00  0.4173E+00  0.1143E+02  0.1143E+02
     17.196  0.3756E+00  0.3770E+00  0.1146E+02  0.1146E+02
     17.286  0.3875E+00  0.3885E+00  0.1150E+02  0.1150E+02
     17.377  0.2621E+00  0.2633E+00  0.1152E+02  0.1152E+02
     17.467  0.1222E+00  0.1282E+00  0.1153E+02  0.1153E+02
     17.558  0.1422E+00  0.1410E+00  0.1154E+02  0.1154E+02
     17.649  0.2358E+00  0.2305E+00  0.1157E+02  0.1157E+02
     17.739  0.3640E+00  0.3648E+00  0.1160E+02  0.1160E+02
     17.830  0.4008E+00  0.4038E+00  0.1163E+02  0.1164E+02
     17.920  0.3355E+00  0.3338E+00  0.1166E+02  0.1167E+02
     18.011  0.2135E+00  0.2102E+00  0.1168E+02  0.1168E+02
     18.101  0.1125E+00  0.1095E+00  0.1169E+02  0.1169E+02
     18.192  0.1088E+00  0.1070E+00  0.1170E+02  0.1170E+02
     18.282  0.1785E+00  0.1800E+00  0.1172E+02  0.1172E+02
     18.373  0.2484E+00  0.2499E+00  0.1174E+02  0.1174E+02
     18.463  0.2889E+00  0.2897E+00  0.1177E+02  0.1177E+02
     18.554  0.1902E+00  0.1894E+00  0.1179E+02  0.1179E+02
     18.645  0.6681E-01  0.6638E-01  0.1179E+02  0.1179E+02
     18.735  0.6229E-01  0.6254E-01  0.1180E+02  0.1180E+02
     18.826  0.1414E+00  0.1417E+00  0.1181E+02  0.1181E+02
     18.916  0.2376E+00  0.2378E+00  0.1183E+02  0.1183E+02
     19.007  0.2104E+00  0.2103E+00  0.1185E+02  0.1185E+02
     19.097  0.1563E+00  0.1567E+00  0.1187E+02  0.1187E+02
     19.188  0.1270E+00  0.1281E+00  0.1188E+02  0.1188E+02
     19.278  0.1467E+00  0.1467E+00  0.1189E+02  0.1189E+02
     19.369  0.1178E+00  0.1163E+00  0.1190E+02  0.1190E+02
     19.459  0.4555E-01  0.4492E-01  0.1191E+02  0.1191E+02
     19.550  0.4601E-01  0.4619E-01  0.1191E+02  0.1191E+02
     19.641  0.9699E-01  0.9711E-01  0.1192E+02  0.1192E+02
     19.731  0.9405E-01  0.9374E-01  0.1193E+02  0.1193E+02
     19.822  0.3869E-01  0.3856E-01  0.1193E+02  0.1193E+02
     19.912  0.2624E-01  0.2646E-01  0.1193E+02  0.1193E+02
     20.003  0.5117E-01  0.5077E-01  0.1194E+02  0.1194E+02
     20.093  0.4634E-01  0.4231E-01  0.1194E+02  0.1194E+02
     20.184  0.4795E-01  0.3540E-01  0.1195E+02  0.1194E+02
     20.274  0.6995E-01  0.5718E-01  0.1195E+02  0.1195E+02
     20.365  0.9123E-01  0.9704E-01  0.1196E+02  0.1196E+02
     20.455  0.1040E+00  0.1195E+00  0.1197E+02  0.1197E+02
     20.546  0.5722E-01  0.6410E-01  0.1198E+02  0.1198E+02
     20.637  0.5378E-01  0.5556E-01  0.1198E+02  0.1198E+02
     20.727  0.4335E-01  0.4312E-01  0.1198E+02  0.1198E+02
     20.818  0.1448E-01  0.1426E-01  0.1199E+02  0.1199E+02
     20.908  0.1234E-01  0.1266E-01  0.1199E+02  0.1199E+02
     20.999  0.3190E-01  0.3253E-01  0.1199E+02  0.1199E+02
     21.089  0.3748E-01  0.3757E-01  0.1199E+02  0.1199E+02
     21.180  0.2588E-01  0.2552E-01  0.1200E+02  0.1200E+02
     21.270  0.1070E-01  0.1009E-01  0.1200E+02  0.1200E+02
     21.361  0.2331E-02  0.2263E-02  0.1200E+02  0.1200E+02
     21.451  0.3690E-03  0.1054E-02  0.1200E+02  0.1200E+02
     21.542  0.7592E-04  0.3944E-02  0.1200E+02  0.1200E+02
     21.633  0.4582E-03  0.1345E-01  0.1200E+02  0.1200E+02
     21.723  0.2589E-02  0.1534E-01  0.1200E+02  0.1200E+02
     21.814  0.1058E-01  0.5349E-02  0.1200E+02  0.1200E+02
     21.904  0.1685E-01  0.1041E-02  0.1200E+02  0.1200E+02
     21.995  0.7679E-02  0.1755E-03  0.1200E+02  0.1200E+02
     22.085  0.1638E-02  0.0000E+00  0.1200E+02  0.1200E+02
     22.176  0.2813E-03  0.0000E+00  0.1200E+02  0.1200E+02
     22.266  0.0000E+00  0.0000E+00  0.1200E+02  0.1200E+02
     22.357  0.0000E+00  0.0000E+00  0.1200E+02  0.1200E+02
     22.447  0.0000E+00  0.0000E+00  0.1200E+02  0.1200E+02
     22.538  0.0000E+00  0.0000E+00  0.1200E+02  0.1200E+02
     22.629  0.0000E+00  0.0000E+00  0.1200E+02  0.1200E+02
     22.719  0.0000E+00  0.0000E+00  0.1200E+02  0.1200E+02
     22.810  0.0000E+00  0.0000E+00  0.1200E+02  0.1200E+02
     22.900  0.0000E+00  0.0000E+00  0.1200E+02  0.1200E+02
     22.991  0.0000E+00  0.0000E+00  0.1200E+02  0.1200E+02
     23.081  0.0000E+00  0.0000E+00  0.1200E+02  0.1200E+02
     23.08124058     -4.08202111  301      8.32507930      1.00000000
     -4.082  0.0000E+00  0.0000E+00  0.0000E+00  0.0000E+00  0.0000E+00  0.0000E+00  0.0000E+00  0.0000E+00  0.0000E+00  0.0000E+00  0.0000E+00  0.0000E+00  0.0000E+00  0.0000E+00  0.0000E+00  0.0000E+00  0.0000E+00  0.0000E+00
     -3.991  0.0000E+00  0.0000E+00  0.0000E+00  0.0000E+00  0.0000E+00  0.0000E+00  0.0000E+00  0.0000E+00  0.0000E+00  0.0000E+00  0.0000E+00  0.0000E+00  0.0000E+00  0.0000E+00  0.0000E+00  0.0000E+00  0.0000E+00  0.0000E+00
     -3.901  0.0000E+00  0.0000E+00  0.0000E+00  0.0000E+00  0.0000E+00  0.0000E+00  0.0000E+00  0.0000E+00  0.0000E+00  0.0000E+00  0.0000E+00  0.0000E+00  0.0000E+00  0.0000E+00  0.0000E+00  0.0000E+00  0.0000E+00  0.0000E+00
     -3.810  0.0000E+00  0.0000E+00  0.0000E+00  0.0000E+00  0.0000E+00  0.0000E+00  0.0000E+00  0.0000E+00  0.0000E+00  0.0000E+00  0.0000E+00  0.0000E+00  0.0000E+00  0.0000E+00  0.0000E+00  0.0000E+00  0.0000E+00  0.0000E+00
     -3.720  0.0000E+00  0.0000E+00  0.0000E+00  0.0000E+00  0.0000E+00  0.0000E+00  0.0000E+00  0.0000E+00  0.0000E+00  0.0000E+00  0.0000E+00  0.0000E+00  0.0000E+00  0.0000E+00  0.0000E+00  0.0000E+00  0.0000E+00  0.0000E+00
     -3.629  0.0000E+00  0.0000E+00  0.0000E+00  0.0000E+00  0.0000E+00  0.0000E+00  0.0000E+00  0.0000E+00  0.0000E+00  0.0000E+00  0.0000E+00  0.0000E+00  0.0000E+00  0.0000E+00  0.0000E+00  0.0000E+00  0.0000E+00  0.0000E+00
     -3.539  0.0000E+00  0.0000E+00  0.0000E+00  0.0000E+00  0.0000E+00  0.0000E+00  0.0000E+00  0.0000E+00  0.0000E+00  0.0000E+00  0.0000E+00  0.0000E+00  0.0000E+00  0.0000E+00  0.0000E+00  0.0000E+00  0.0000E+00  0.0000E+00
     -3.448  0.0000E+00  0.0000E+00  0.0000E+00  0.0000E+00  0.0000E+00  0.0000E+00  0.0000E+00  0.0000E+00  0.0000E+00  0.0000E+00  0.0000E+00  0.0000E+00  0.0000E+00  0.0000E+00  0.0000E+00  0.0000E+00  0.0000E+00  0.0000E+00
     -3.358  0.0000E+00  0.0000E+00  0.0000E+00  0.0000E+00  0.0000E+00  0.0000E+00  0.0000E+00  0.0000E+00  0.0000E+00  0.0000E+00  0.0000E+00  0.0000E+00  0.0000E+00  0.0000E+00  0.0000E+00  0.0000E+00  0.0000E+00  0.0000E+00
     -3.267  0.1088E-06  0.1116E-06  0.3603E-09  0.3697E-09  0.3603E-09  0.3697E-09  0.3599E-09  0.3694E-09  0.0000E+00  0.0000E+00  0.0000E+00  0.0000E+00  0.0000E+00  0.0000E+00  0.0000E+00  0.0000E+00  0.0000E+00  0.0000E+00
     -3.177  0.8352E-06  0.8571E-06  0.4667E-08  0.4790E-08  0.4667E-08  0.4790E-08  0.4664E-08  0.4787E-08  0.0000E+00  0.0000E+00  0.0000E+00  0.0000E+00  0.0000E+00  0.0000E+00  0.0000E+00  0.0000E+00  0.0000E+00  0.0000E+00
     -3.086  0.5265E-05  0.5402E-05  0.3312E-07  0.3399E-07  0.3312E-07  0.3399E-07  0.3309E-07  0.3396E-07  0.0000E+00  0.0000E+00  0.0000E+00  0.0000E+00  0.0000E+00  0.0000E+00  0.0000E+00  0.0000E+00  0.0000E+00  0.0000E+00
     -2.995  0.3207E-04  0.3289E-04  0.2190E-06  0.2247E-06  0.2190E-06  0.2247E-06  0.2188E-06  0.2245E-06  0.0000E+00  0.0000E+00  0.0000E+00  0.0000E+00  0.0000E+00  0.0000E+00  0.0000E+00  0.0000E+00  0.0000E+00  0.0000E+00
     -2.905  0.1768E-03  0.1809E-03  0.1259E-05  0.1290E-05  0.1259E-05  0.1290E-05  0.1258E-05  0.1289E-05  0.0000E+00  0.0000E+00  0.0000E+00  0.0000E+00  0.0000E+00  0.0000E+00  0.0000E+00  0.0000E+00  0.0000E+00  0.0000E+00
     -2.814  0.7343E-03  0.7467E-03  0.6298E-05  0.6429E-05  0.6298E-05  0.6429E-05  0.6293E-05  0.6425E-05  0.0000E+00  0.0000E+00  0.0000E+00  0.0000E+00  0.0000E+00  0.0000E+00  0.0000E+00  0.0000E+00  0.0000E+00  0.0000E+00
     -2.724  0.1759E-02  0.1774E-02  0.2091E-04  0.2122E-04  0.2091E-04  0.2122E-04  0.2090E-04  0.2120E-04  0.0000E+00  0.0000E+00  0.0000E+00  0.0000E+00  0.0000E+00  0.0000E+00  0.0000E+00  0.0000E+00  0.0000E+00  0.0000E+00
     -2.633  0.2582E-02  0.2594E-02  0.4794E-04  0.4846E-04  0.4794E-04  0.4846E-04  0.4789E-04  0.4841E-04  0.0000E+00  0.0000E+00  0.0000E+00  0.0000E+00  0.0000E+00  0.0000E+00  0.0000E+00  0.0000E+00  0.0000E+00  0.0000E+00
     -2.543  0.3558E-02  0.3571E-02  0.9427E-04  0.9497E-04  0.9427E-04  0.9497E-04  0.9422E-04  0.9492E-04  0.0000E+00  0.0000E+00  0.0000E+00  0.0000E+00  0.0000E+00  0.0000E+00  0.0000E+00  0.0000E+00  0.0000E+00  0.0000E+00
     -2.452  0.3765E-02  0.3759E-02  0.1260E-03  0.1263E-03  0.1260E-03  0.1263E-03  0.1259E-03  0.1263E-03  0.0000E+00  0.0000E+00  0.0000E+00  0.0000E+00  0.0000E+00  0.0000E+00  0.0000E+00  0.0000E+00  0.0000E+00  0.0000E+00
     -2.362  0.3919E-02  0.3933E-02  0.1798E-03  0.1812E-03  0.1798E-03  0.1812E-03  0.1796E-03  0.1809E-03  0.0000E+00  0.0000E+00  0.0000E+00  0.0000E+00  0.0000E+00  0.0000E+00  0.0000E+00  0.0000E+00  0.0000E+00  0.0000E+00
     -2.271  0.4969E-02  0.4976E-02  0.2763E-03  0.2773E-03  0.2763E-03  0.2773E-03  0.2760E-03  0.2770E-03  0.0000E+00  0.0000E+00  0.0000E+00  0.0000E+00  0.0000E+00  0.0000E+00  0.0000E+00  0.0000E+00  0.0000E+00  0.0000E+00
     -2.181  0.4794E-02  0.4789E-02  0.3113E-03  0.3117E-03  0.3113E-03  0.3117E-03  0.3113E-03  0.3117E-03  0.0000E+00  0.0000E+00  0.0000E+00  0.0000E+00  0.0000E+00  0.0000E+00  0.0000E+00  0.0000E+00  0.0000E+00  0.0000E+00
     -2.090  0.4964E-02  0.4973E-02  0.3816E-03  0.3831E-03  0.3816E-03  0.3831E-03  0.3813E-03  0.3828E-03  0.0000E+00  0.0000E+00  0.0000E+00  0.0000E+00  0.0000E+00  0.0000E+00  0.0000E+00  0.0000E+00  0.0000E+00  0.0000E+00
     -2.000  0.5005E-02  0.4996E-02  0.4439E-03  0.4443E-03  0.4439E-03  0.4443E-03  0.4433E-03  0.4436E-03  0.0000E+00  0.0000E+00  0.0000E+00  0.0000E+00  0.0000E+00  0.0000E+00  0.0000E+00  0.0000E+00  0.0000E+00  0.0000E+00
     -1.909  0.4934E-02  0.4949E-02  0.5383E-03  0.5411E-03  0.5383E-03  0.5411E-03  0.5370E-03  0.5399E-03  0.0000E+00  0.0000E+00  0.0000E+00  0.0000E+00  0.0000E+00  0.0000E+00  0.0000E+00  0.0000E+00  0.0000E+00  0.0000E+00
     -1.818  0.5934E-02  0.5941E-02  0.7190E-03  0.7204E-03  0.7190E-03  0.7204E-03  0.7188E-03  0.7202E-03  0.0000E+00  0.0000E+00  0.0000E+00  0.0000E+00  0.0000E+00  0.0000E+00  0.0000E+00  0.0000E+00  0.0000E+00  0.0000E+00
     -1.728  0.5846E-02  0.5845E-02  0.7786E-03  0.7795E-03  0.7786E-03  0.7795E-03  0.7782E-03  0.7792E-03  0.0000E+00  0.0000E+00  0.0000E+00  0.0000E+00  0.0000E+00  0.0000E+00  0.0000E+00  0.0000E+00  0.0000E+00  0.0000E+00
     -1.637  0.5367E-02  0.5355E-02  0.7927E-03  0.7922E-03  0.7927E-03  0.7922E-03  0.7928E-03  0.7923E-03  0.0000E+00  0.0000E+00  0.0000E+00  0.0000E+00  0.0000E+00  0.0000E+00  0.0000E+00  0.0000E+00  0.0000E+00  0.0000E+00
     -1.547  0.4560E-02  0.4559E-02  0.7937E-03  0.7962E-03  0.7937E-03  0.7962E-03  0.7912E-03  0.7937E-03  0.0000E+00  0.0000E+00  0.0000E+00  0.0000E+00  0.0000E+00  0.0000E+00  0.0000E+00  0.0000E+00  0.0000E+00  0.0000E+00
     -1.456  0.5477E-02  0.5499E-02  0.1168E-02  0.1175E-02  0.1168E-02  0.1175E-02  0.1164E-02  0.1171E-02  0.0000E+00  0.0000E+00  0.0000E+00  0.0000E+00  0.0000E+00  0.0000E+00  0.0000E+00  0.0000E+00  0.0000E+00  0.0000E+00
     -1.366  0.6116E-02  0.6110E-02  0.1413E-02  0.1413E-02  0.1413E-02  0.1413E-02  0.1413E-02  0.1413E-02  0.0000E+00  0.0000E+00  0.0000E+00  0.0000E+00  0.0000E+00  0.0000E+00  0.0000E+00  0.0000E+00  0.0000E+00  0.0000E+00
     -1.275  0.5445E-02  0.5444E-02  0.1408E-02  0.1410E-02  0.1408E-02  0.1410E-02  0.1406E-02  0.1408E-02  0.0000E+00  0.0000E+00  0.0000E+00  0.0000E+00  0.0000E+00  0.0000E+00  0.0000E+00  0.0000E+00  0.0000E+00  0.0000E+00
     -1.185  0.5193E-02  0.5177E-02  0.1537E-02  0.1536E-02  0.1537E-02  0.1536E-02  0.1536E-02  0.1535E-02  0.0000E+00  0.0000E+00  0.0000E+00  0.0000E+00  0.0000E+00  0.0000E+00  0.0000E+00  0.0000E+00  0.0000E+00  0.0000E+00
     -1.094  0.3898E-02  0.3893E-02  0.1588E-02  0.1594E-02  0.1588E-02  0.1594E-02  0.1579E-02  0.1585E-02  0.0000E+00  0.0000E+00  0.0000E+00  0.0000E+00  0.0000E+00  0.0000E+00  0.0000E+00  0.0000E+00  0.0000E+00  0.0000E+00
     -1.004  0.4764E-02  0.4782E-02  0.2288E-02  0.2297E-02  0.2288E-02  0.2297E-02  0.2282E-02  0.2291E-02  0.0000E+00  0.0000E+00  0.0000E+00  0.0000E+00  0.0000E+00  0.0000E+00  0.0000E+00  0.0000E+00  0.0000E+00  0.0000E+00
     -0.913  0.5165E-02  0.5155E-02  0.2533E-02  0.2532E-02  0.2533E-02  0.2532E-02  0.2533E-02  0.2532E-02  0.0000E+00  0.0000E+00  0.0000E+00  0.0000E+00  0.0000E+00  0.0000E+00  0.0000E+00  0.0000E+00  0.0000E+00  0.0000E+00
     -0.822  0.4037E-02  0.4023E-02  0.2400E-02  0.2397E-02  0.2400E-02  0.2397E-02  0.2401E-02  0.2399E-02  0.0000E+00  0.0000E+00  0.0000E+00  0.0000E+00  0.0000E+00  0.0000E+00  0.0000E+00  0.0000E+00  0.0000E+00  0.0000E+00
     -0.732  0.3083E-02  0.3068E-02  0.1942E-02  0.1934E-02  0.1942E-02  0.1934E-02  0.1951E-02  0.1943E-02  0.0000E+00  0.0000E+00  0.0000E+00  0.0000E+00  0.0000E+00  0.0000E+00  0.0000E+00  0.0000E+00  0.0000E+00  0.0000E+00
     -0.641  0.2532E-02  0.2538E-02  0.1779E-02  0.1787E-02  0.1779E-02  0.1787E-02  0.1774E-02  0.1781E-02  0.0000E+00  0.0000E+00  0.0000E+00  0.0000E+00  0.0000E+00  0.0000E+00  0.0000E+00  0.0000E+00  0.0000E+00  0.0000E+00
     -0.551  0.3634E-02  0.3648E-02  0.2600E-02  0.2609E-02  0.2600E-02  0.2609E-02  0.2595E-02  0.2604E-02  0.0000E+00  0.0000E+00  0.0000E+00  0.0000E+00  0.0000E+00  0.0000E+00  0.0000E+00  0.0000E+00  0.0000E+00  0.0000E+00
     -0.460  0.3504E-02  0.3488E-02  0.2465E-02  0.2455E-02  0.2465E-02  0.2455E-02  0.2475E-02  0.2465E-02  0.0000E+00  0.0000E+00  0.0000E+00  0.0000E+00  0.0000E+00  0.0000E+00  0.0000E+00  0.0000E+00  0.0000E+00  0.0000E+00
     -0.370  0.2516E-02  0.2506E-02  0.1897E-02  0.1894E-02  0.1897E-02  0.1894E-02  0.1898E-02  0.1895E-02  0.0000E+00  0.0000E+00  0.0000E+00  0.0000E+00  0.0000E+00  0.0000E+00  0.0000E+00  0.0000E+00  0.0000E+00  0.0000E+00
     -0.279  0.1682E-02  0.1669E-02  0.1534E-02  0.1526E-02  0.1534E-02  0.1526E-02  0.1539E-02  0.1532E-02  0.0000E+00  0.0000E+00  0.0000E+00  0.0000E+00  0.0000E+00  0.0000E+00  0.0000E+00  0.0000E+00  0.0000E+00  0.0000E+00
     -0.189  0.1364E-02  0.1371E-02  0.1413E-02  0.1421E-02  0.1413E-02  0.1421E-02  0.1408E-02  0.1416E-02  0.0000E+00  0.0000E+00  0.0000E+00  0.0000E+00  0.0000E+00  0.0000E+00  0.0000E+00  0.0000E+00  0.0000E+00  0.0000E+00
     -0.098  0.2383E-02  0.2396E-02  0.2365E-02  0.2376E-02  0.2365E-02  0.2376E-02  0.2358E-02  0.2370E-02  0.0000E+00  0.0000E+00  0.0000E+00  0.0000E+00  0.0000E+00  0.0000E+00  0.0000E+00  0.0000E+00  0.0000E+00  0.0000E+00
     -0.008  0.2313E-02  0.2298E-02  0.2314E-02  0.2303E-02  0.2314E-02  0.2303E-02  0.2320E-02  0.2310E-02  0.0000E+00  0.0000E+00  0.0000E+00  0.0000E+00  0.0000E+00  0.0000E+00  0.0000E+00  0.0000E+00  0.0000E+00  0.0000E+00
      0.083  0.1354E-02  0.1346E-02  0.1618E-02  0.1612E-02  0.1618E-02  0.1612E-02  0.1623E-02  0.1616E-02  0.0000E+00  0.0000E+00  0.0000E+00  0.0000E+00  0.0000E+00  0.0000E+00  0.0000E+00  0.0000E+00  0.0000E+00  0.0000E+00
      0.174  0.8813E-03  0.8754E-03  0.1045E-02  0.1037E-02  0.1045E-02  0.1037E-02  0.1052E-02  0.1044E-02  0.0000E+00  0.0000E+00  0.0000E+00  0.0000E+00  0.0000E+00  0.0000E+00  0.0000E+00  0.0000E+00  0.0000E+00  0.0000E+00
      0.264  0.7665E-03  0.7705E-03  0.9021E-03  0.9089E-03  0.9021E-03  0.9089E-03  0.8987E-03  0.9050E-03  0.0000E+00  0.0000E+00  0.0000E+00  0.0000E+00  0.0000E+00  0.0000E+00  0.0000E+00  0.0000E+00  0.0000E+00  0.0000E+00
      0.355  0.1366E-02  0.1374E-02  0.1871E-02  0.1886E-02  0.1871E-02  0.1886E-02  0.1860E-02  0.1875E-02  0.0000E+00  0.0000E+00  0.0000E+00  0.0000E+00  0.0000E+00  0.0000E+00  0.0000E+00  0.0000E+00  0.0000E+00  0.0000E+00
      0.445  0.1492E-02  0.1488E-02  0.2069E-02  0.2059E-02  0.2069E-02  0.2059E-02  0.2075E-02  0.2065E-02  0.0000E+00  0.0000E+00  0.0000E+00  0.0000E+00  0.0000E+00  0.0000E+00  0.0000E+00  0.0000E+00  0.0000E+00  0.0000E+00