   4   4   1   0
  0.2113319E+02  0.4387782E-09  0.4389247E-09  0.4389247E-09  0.5000000E-15
  1.000000000000000E-004
  CAR 
 unknown system                          
     14.38332194     -5.18265708  301      4.17592566      1.00000000
     -5.183  0.0000E+00  0.0000E+00  0.0000E+00  0.0000E+00
     -5.117  0.0000E+00  0.0000E+00  0.0000E+00  0.0000E+00
     -5.052  0.0000E+00  0.0000E+00  0.0000E+00  0.0000E+00
     -4.987  0.0000E+00  0.0000E+00  0.0000E+00  0.0000E+00
     -4.922  0.0000E+00  0.0000E+00  0.0000E+00  0.0000E+00
     -4.857  0.0000E+00  0.0000E+00  0.0000E+00  0.0000E+00
     -4.791  0.0000E+00  0.0000E+00  0.0000E+00  0.0000E+00
     -4.726  0.1214E-05  0.1172E-05  0.7918E-07  0.7641E-07
     -4.661  0.2505E-04  0.2417E-04  0.1713E-05  0.1653E-05
     -4.596  0.8126E-04  0.7841E-04  0.7013E-05  0.6767E-05
     -4.530  0.3238E-03  0.3125E-03  0.2813E-04  0.2715E-04
     -4.465  0.1181E-02  0.1140E-02  0.1052E-03  0.1015E-03
     -4.400  0.4172E-02  0.4032E-02  0.3773E-03  0.3645E-03
     -4.335  0.1369E-01  0.1328E-01  0.1270E-02  0.1231E-02
     -4.270  0.3670E-01  0.3586E-01  0.3664E-02  0.3569E-02
     -4.204  0.7220E-01  0.7117E-01  0.8372E-02  0.8211E-02
     -4.139  0.1086E+00  0.1076E+00  0.1545E-01  0.1523E-01
     -4.074  0.1442E+00  0.1433E+00  0.2486E-01  0.2457E-01
     -4.009  0.1651E+00  0.1648E+00  0.3563E-01  0.3532E-01
     -3.943  0.1832E+00  0.1824E+00  0.4758E-01  0.4722E-01
     -3.878  0.2174E+00  0.2166E+00  0.6176E-01  0.6135E-01
     -3.813  0.2324E+00  0.2322E+00  0.7692E-01  0.7649E-01
     -3.748  0.2428E+00  0.2424E+00  0.9276E-01  0.9231E-01
     -3.683  0.2567E+00  0.2564E+00  0.1095E+00  0.1090E+00
     -3.617  0.2693E+00  0.2685E+00  0.1271E+00  0.1266E+00
     -3.552  0.3081E+00  0.3071E+00  0.1472E+00  0.1466E+00
     -3.487  0.3283E+00  0.3281E+00  0.1686E+00  0.1680E+00
     -3.422  0.3246E+00  0.3250E+00  0.1898E+00  0.1892E+00
     -3.356  0.3121E+00  0.3121E+00  0.2101E+00  0.2096E+00
     -3.291  0.3443E+00  0.3426E+00  0.2326E+00  0.2319E+00
     -3.226  0.4069E+00  0.4056E+00  0.2592E+00  0.2584E+00
     -3.161  0.4194E+00  0.4195E+00  0.2865E+00  0.2858E+00
     -3.096  0.4213E+00  0.4212E+00  0.3140E+00  0.3133E+00
     -3.030  0.4138E+00  0.4137E+00  0.3410E+00  0.3403E+00
     -2.965  0.4580E+00  0.4556E+00  0.3709E+00  0.3700E+00
     -2.900  0.5390E+00  0.5375E+00  0.4061E+00  0.4051E+00
     -2.835  0.5409E+00  0.5418E+00  0.4414E+00  0.4404E+00
     -2.770  0.4867E+00  0.4887E+00  0.4731E+00  0.4723E+00
     -2.704  0.4224E+00  0.4235E+00  0.5007E+00  0.4999E+00
     -2.639  0.4494E+00  0.4471E+00  0.5300E+00  0.5291E+00
     -2.574  0.5180E+00  0.5175E+00  0.5638E+00  0.5629E+00
     -2.509  0.4695E+00  0.4720E+00  0.5945E+00  0.5937E+00
     -2.443  0.3878E+00  0.3899E+00  0.6198E+00  0.6191E+00
     -2.378  0.3261E+00  0.3271E+00  0.6411E+00  0.6405E+00
     -2.313  0.3552E+00  0.3526E+00  0.6643E+00  0.6635E+00
     -2.248  0.4479E+00  0.4465E+00  0.6935E+00  0.6926E+00
     -2.183  0.4181E+00  0.4207E+00  0.7208E+00  0.7201E+00
     -2.117  0.3182E+00  0.3209E+00  0.7416E+00  0.7411E+00
     -2.052  0.2374E+00  0.2389E+00  0.7571E+00  0.7567E+00
     -1.987  0.2476E+00  0.2454E+00  0.7732E+00  0.7727E+00
     -1.922  0.3563E+00  0.3535E+00  0.7965E+00  0.7957E+00
     -1.856  0.3750E+00  0.3767E+00  0.8210E+00  0.8204E+00
     -1.791  0.2985E+00  0.3001E+00  0.8405E+00  0.8399E+00
     -1.726  0.2902E+00  0.2895E+00  0.8594E+00  0.8588E+00
     -1.661  0.3441E+00  0.3420E+00  0.8818E+00  0.8811E+00
     -1.596  0.4346E+00  0.4320E+00  0.9102E+00  0.9093E+00
     -1.530  0.4919E+00  0.4916E+00  0.9423E+00  0.9414E+00
     -1.465  0.4569E+00  0.4584E+00  0.9721E+00  0.9713E+00
     -1.400  0.4189E+00  0.4194E+00  0.9994E+00  0.9987E+00
     -1.335  0.4214E+00  0.4207E+00  0.1027E+01  0.1026E+01
     -1.269  0.4876E+00  0.4847E+00  0.1059E+01  0.1058E+01
     -1.204  0.5910E+00  0.5888E+00  0.1097E+01  0.1096E+01
     -1.139  0.6270E+00  0.6269E+00  0.1138E+01  0.1137E+01
     -1.074  0.6097E+00  0.6106E+00  0.1178E+01  0.1177E+01
     -1.009  0.5763E+00  0.5766E+00  0.1216E+01  0.1215E+01
     -0.943  0.6148E+00  0.6125E+00  0.1256E+01  0.1255E+01
     -0.878  0.6990E+00  0.6968E+00  0.1301E+01  0.1300E+01
     -0.813  0.7385E+00  0.7385E+00  0.1350E+01  0.1348E+01
     -0.748  0.6905E+00  0.6924E+00  0.1395E+01  0.1393E+01
     -0.682  0.6677E+00  0.6665E+00  0.1438E+01  0.1437E+01
     -0.617  0.7496E+00  0.7473E+00  0.1487E+01  0.1486E+01
     -0.552  0.7558E+00  0.7575E+00  0.1536E+01  0.1535E+01
     -0.487  0.6927E+00  0.6936E+00  0.1582E+01  0.1580E+01
     -0.422  0.6907E+00  0.6904E+00  0.1627E+01  0.1625E+01
     -0.356  0.6912E+00  0.6912E+00  0.1672E+01  0.1671E+01
     -0.291  0.6817E+00  0.6826E+00  0.1716E+01  0.1715E+01
     -0.226  0.6150E+00  0.6175E+00  0.1756E+01  0.1755E+01
     -0.161  0.5713E+00  0.5712E+00  0.1794E+01  0.1793E+01
     -0.096  0.5972E+00  0.5961E+00  0.1833E+01  0.1832E+01
     -0.030  0.6234E+00  0.6231E+00  0.1873E+01  0.1872E+01
      0.035  0.5930E+00  0.5948E+00  0.1912E+01  0.1911E+01
      0.100  0.5049E+00  0.5076E+00  0.1945E+01  0.1944E+01
      0.165  0.4636E+00  0.4629E+00  0.1975E+01  0.1974E+01
      0.231  0.5618E+00  0.5578E+00  0.2012E+01  0.2011E+01
      0.296  0.6794E+00  0.6772E+00  0.2056E+01  0.2055E+01
      0.361  0.7131E+00  0.7129E+00  0.2103E+01  0.2102E+01
      0.426  0.7187E+00  0.7187E+00  0.2150E+01  0.2148E+01
      0.491  0.6901E+00  0.6915E+00  0.2195E+01  0.2194E+01
      0.557  0.6254E+00  0.6271E+00  0.2236E+01  0.2234E+01
      0.622  0.5774E+00  0.5783E+00  0.2273E+01  0.2272E+01
      0.687  0.5340E+00  0.5359E+00  0.2308E+01  0.2307E+01
      0.752  0.4449E+00  0.4477E+00  0.2337E+01  0.2336E+01
      0.818  0.3972E+00  0.3968E+00  0.2363E+01  0.2362E+01
      0.883  0.5055E+00  0.5005E+00  0.2396E+01  0.2395E+01
      0.948  0.6797E+00  0.6763E+00  0.2440E+01  0.2439E+01
      1.013  0.6737E+00  0.6772E+00  0.2484E+01  0.2483E+01
      1.078  0.4938E+00  0.4993E+00  0.2517E+01  0.2516E+01
      1.144  0.3677E+00  0.3690E+00  0.2541E+01  0.2540E+01
      1.209  0.4012E+00  0.3989E+00  0.2567E+01  0.2566E+01
      1.274  0.4841E+00  0.4825E+00  0.2598E+01  0.2598E+01
      1.339  0.5366E+00  0.5355E+00  0.2633E+01  0.2632E+01
      1.405  0.6236E+00  0.6200E+00  0.2674E+01  0.2673E+01
      1.470  0.7743E+00  0.7706E+00  0.2725E+01  0.2723E+01
      1.535  0.8167E+00  0.8180E+00  0.2778E+01  0.2777E+01
      1.600  0.7366E+00  0.7391E+00  0.2826E+01  0.2825E+01
      1.665  0.7358E+00  0.7345E+00  0.2874E+01  0.2873E+01
      1.731  0.8407E+00  0.8386E+00  0.2929E+01  0.2927E+01
      1.796  0.8311E+00  0.8339E+00  0.2983E+01  0.2982E+01
      1.861  0.6852E+00  0.6882E+00  0.3028E+01  0.3027E+01
      1.926  0.6524E+00  0.6509E+00  0.3070E+01  0.3069E+01
      1.992  0.7414E+00  0.7390E+00  0.3119E+01  0.3118E+01
      2.057  0.7985E+00  0.7975E+00  0.3171E+01  0.3170E+01
      2.122  0.8448E+00  0.8433E+00  0.3226E+01  0.3225E+01
      2.187  0.9380E+00  0.9351E+00  0.3287E+01  0.3286E+01
      2.252  0.1049E+01  0.1047E+01  0.3356E+01  0.3354E+01
      2.318  0.1087E+01  0.1088E+01  0.3427E+01  0.3425E+01
      2.383  0.9489E+00  0.9549E+00  0.3489E+01  0.3487E+01
      2.448  0.7110E+00  0.7158E+00  0.3535E+01  0.3534E+01
      2.513  0.6602E+00  0.6589E+00  0.3578E+01  0.3577E+01
      2.579  0.7728E+00  0.7703E+00  0.3629E+01  0.3627E+01
      2.644  0.8038E+00  0.8051E+00  0.3681E+01  0.3680E+01
      2.709  0.7553E+00  0.7558E+00  0.3730E+01  0.3729E+01
      2.774  0.8322E+00  0.8281E+00  0.3785E+01  0.3783E+01
      2.839  0.1027E+01  0.1022E+01  0.3852E+01  0.3850E+01
      2.905  0.1171E+01  0.1169E+01  0.3928E+01  0.3926E+01
      2.970  0.1079E+01  0.1085E+01  0.3998E+01  0.3997E+01
      3.035  0.8560E+00  0.8595E+00  0.4054E+01  0.4053E+01
      3.100  0.8025E+00  0.8022E+00  0.4107E+01  0.4105E+01
      3.165  0.7878E+00  0.7887E+00  0.4158E+01  0.4157E+01
      3.231  0.7950E+00  0.7938E+00  0.4210E+01  0.4209E+01
      3.296  0.8580E+00  0.8575E+00  0.4266E+01  0.4265E+01
      3.361  0.8350E+00  0.8358E+00  0.4321E+01  0.4319E+01
      3.426  0.8305E+00  0.8297E+00  0.4375E+01  0.4373E+01
      3.492  0.8503E+00  0.8499E+00  0.4430E+01  0.4429E+01
      3.557  0.8597E+00  0.8594E+00  0.4486E+01  0.4485E+01
      3.622  0.8708E+00  0.8700E+00  0.4543E+01  0.4542E+01
      3.687  0.9097E+00  0.9088E+00  0.4603E+01  0.4601E+01
      3.752  0.8836E+00  0.8860E+00  0.4660E+01  0.4659E+01
      3.818  0.7539E+00  0.7566E+00  0.4709E+01  0.4708E+01
      3.883  0.7390E+00  0.7370E+00  0.4758E+01  0.4756E+01
      3.948  0.8443E+00  0.8414E+00  0.4813E+01  0.4811E+01
      4.013  0.9049E+00  0.9050E+00  0.4872E+01  0.4870E+01
      4.079  0.8598E+00  0.8623E+00  0.4928E+01  0.4927E+01
      4.144  0.7598E+00  0.7614E+00  0.4978E+01  0.4976E+01
      4.209  0.7262E+00  0.7247E+00  0.5025E+01  0.5024E+01
      4.274  0.7791E+00  0.7772E+00  0.5076E+01  0.5074E+01
      4.339  0.8130E+00  0.8137E+00  0.5129E+01  0.5127E+01
      4.405  0.7892E+00  0.7902E+00  0.5180E+01  0.5179E+01
      4.470  0.7684E+00  0.7675E+00  0.5230E+01  0.5229E+01
      4.535  0.7596E+00  0.7599E+00  0.5280E+01  0.5279E+01
      4.600  0.7391E+00  0.7391E+00  0.5328E+01  0.5327E+01
      4.666  0.8521E+00  0.8466E+00  0.5384E+01  0.5382E+01
      4.731  0.1103E+01  0.1096E+01  0.5456E+01  0.5454E+01
      4.796  0.1129E+01  0.1132E+01  0.5529E+01  0.5528E+01
      4.861  0.8661E+00  0.8732E+00  0.5586E+01  0.5585E+01
      4.926  0.7054E+00  0.7071E+00  0.5632E+01  0.5631E+01
      4.992  0.7130E+00  0.7117E+00  0.5679E+01  0.5677E+01
      5.057  0.8296E+00  0.8248E+00  0.5733E+01  0.5731E+01
      5.122  0.9955E+00  0.9928E+00  0.5798E+01  0.5796E+01
      5.187  0.1040E+01  0.1040E+01  0.5866E+01  0.5864E+01
      5.253  0.9732E+00  0.9759E+00  0.5929E+01  0.5927E+01
      5.318  0.8642E+00  0.8655E+00  0.5985E+01  0.5984E+01
      5.383  0.8870E+00  0.8846E+00  0.6043E+01  0.6042E+01
      5.448  0.9892E+00  0.9867E+00  0.6108E+01  0.6106E+01
      5.513  0.1047E+01  0.1047E+01  0.6176E+01  0.6174E+01
      5.579  0.1019E+01  0.1020E+01  0.6243E+01  0.6241E+01
      5.644  0.9708E+00  0.9725E+00  0.6306E+01  0.6304E+01
      5.709  0.9192E+00  0.9198E+00  0.6366E+01  0.6364E+01
      5.774  0.9504E+00  0.9471E+00  0.6428E+01  0.6426E+01
      5.840  0.1034E+01  0.1033E+01  0.6495E+01  0.6494E+01
      5.905  0.9744E+00  0.9783E+00  0.6559E+01  0.6557E+01
      5.970  0.9022E+00  0.9024E+00  0.6618E+01  0.6616E+01
      6.035  0.9435E+00  0.9403E+00  0.6680E+01  0.6678E+01
      6.100  0.1038E+01  0.1035E+01  0.6747E+01  0.6745E+01
      6.166  0.1100E+01  0.1102E+01  0.6819E+01  0.6817E+01
      6.231  0.1020E+01  0.1025E+01  0.6886E+01  0.6884E+01
      6.296  0.9197E+00  0.9219E+00  0.6946E+01  0.6944E+01
      6.361  0.8698E+00  0.8703E+00  0.7003E+01  0.7001E+01
      6.426  0.8516E+00  0.8502E+00  0.7058E+01  0.7056E+01
      6.492  0.9133E+00  0.9101E+00  0.7118E+01  0.7116E+01
      6.557  0.1038E+01  0.1034E+01  0.7186E+01  0.7183E+01
      6.622  0.1133E+01  0.1132E+01  0.7259E+01  0.7257E+01
      6.687  0.1112E+01  0.1114E+01  0.7332E+01  0.7330E+01
      6.753  0.1009E+01  0.1013E+01  0.7398E+01  0.7396E+01
      6.818  0.8652E+00  0.8686E+00  0.7454E+01  0.7453E+01
      6.883  0.8135E+00  0.8125E+00  0.7507E+01  0.7506E+01
      6.948  0.8637E+00  0.8603E+00  0.7564E+01  0.7562E+01
      7.013  0.9695E+00  0.9656E+00  0.7627E+01  0.7625E+01
      7.079  0.1143E+01  0.1138E+01  0.7702E+01  0.7699E+01
      7.144  0.1359E+01  0.1354E+01  0.7790E+01  0.7787E+01
      7.209  0.1412E+01  0.1415E+01  0.7883E+01  0.7880E+01
      7.274  0.1172E+01  0.1180E+01  0.7959E+01  0.7957E+01
      7.340  0.9225E+00  0.9274E+00  0.8019E+01  0.8017E+01
      7.405  0.8610E+00  0.8598E+00  0.8075E+01  0.8073E+01
      7.470  0.9692E+00  0.9644E+00  0.8139E+01  0.8136E+01
      7.535  0.1099E+01  0.1095E+01  0.8210E+01  0.8208E+01
      7.600  0.1186E+01  0.1183E+01  0.8288E+01  0.8285E+01
      7.666  0.1202E+01  0.1204E+01  0.8366E+01  0.8364E+01
      7.731  0.1080E+01  0.1085E+01  0.8437E+01  0.8435E+01
      7.796  0.9976E+00  0.9984E+00  0.8502E+01  0.8500E+01
      7.861  0.1009E+01  0.1006E+01  0.8568E+01  0.8565E+01
      7.927  0.1139E+01  0.1133E+01  0.8642E+01  0.8639E+01
      7.992  0.1288E+01  0.1284E+01  0.8726E+01  0.8723E+01
      8.057  0.1346E+01  0.1344E+01  0.8814E+01  0.8811E+01
      8.122  0.1322E+01  0.1324E+01  0.8900E+01  0.8897E+01
      8.187  0.1235E+01  0.1238E+01  0.8981E+01  0.8978E+01
      8.253  0.1194E+01  0.1194E+01  0.9059E+01  0.9056E+01
      8.318  0.1206E+01  0.1207E+01  0.9137E+01  0.9135E+01
      8.383  0.1128E+01  0.1133E+01  0.9211E+01  0.9209E+01
      8.448  0.1017E+01  0.1018E+01  0.9277E+01  0.9275E+01
      8.514  0.1013E+01  0.1011E+01  0.9343E+01  0.9341E+01
      8.579  0.1070E+01  0.1068E+01  0.9413E+01  0.9411E+01
      8.644  0.1173E+01  0.1170E+01  0.9490E+01  0.9487E+01
      8.709  0.1268E+01  0.1265E+01  0.9573E+01  0.9570E+01
      8.774  0.1330E+01  0.1329E+01  0.9659E+01  0.9656E+01
      8.840  0.1250E+01  0.1254E+01  0.9741E+01  0.9738E+01
      8.905  0.1121E+01  0.1123E+01  0.9814E+01  0.9812E+01
      8.970  0.1118E+01  0.1117E+01  0.9887E+01  0.9884E+01
      9.035  0.1115E+01  0.1114E+01  0.9960E+01  0.9957E+01
      9.101  0.1203E+01  0.1195E+01  0.1004E+02  0.1004E+02
      9.166  0.1434E+01  0.1429E+01  0.1013E+02  0.1013E+02
      9.231  0.1367E+01  0.1376E+01  0.1022E+02  0.1022E+02
      9.296  0.1100E+01  0.1106E+01  0.1029E+02  0.1029E+02
      9.361  0.1004E+01  0.1005E+01  0.1036E+02  0.1036E+02
      9.427  0.1012E+01  0.1012E+01  0.1042E+02  0.1042E+02
      9.492  0.1028E+01  0.1026E+01  0.1049E+02  0.1049E+02
      9.557  0.1095E+01  0.1092E+01  0.1056E+02  0.1056E+02
      9.622  0.1179E+01  0.1178E+01  0.1064E+02  0.1064E+02
      9.687  0.1269E+01  0.1270E+01  0.1072E+02  0.1072E+02
      9.753  0.1287E+01  0.1290E+01  0.1081E+02  0.1080E+02
      9.818  0.1153E+01  0.1160E+01  0.1088E+02  0.1088E+02
      9.883  0.9810E+00  0.9879E+00  0.1095E+02  0.1094E+02
      9.948  0.8542E+00  0.8556E+00  0.1100E+02  0.1100E+02
     10.014  0.7190E+00  0.7152E+00  0.1105E+02  0.1105E+02
     10.079  0.7676E+00  0.7613E+00  0.1110E+02  0.1110E+02
     10.144  0.9612E+00  0.9560E+00  0.1116E+02  0.1116E+02
     10.209  0.1039E+01  0.1039E+01  0.1123E+02  0.1123E+02
     10.274  0.9813E+00  0.9887E+00  0.1129E+02  0.1129E+02
     10.340  0.8349E+00  0.8540E+00  0.1135E+02  0.1135E+02
     10.405  0.6798E+00  0.7013E+00  0.1139E+02  0.1139E+02
     10.470  0.5521E+00  0.5628E+00  0.1143E+02  0.1143E+02
     10.535  0.4242E+00  0.4189E+00  0.1146E+02  0.1146E+02
     10.601  0.3214E+00  0.3087E+00  0.1148E+02  0.1148E+02
     10.666  0.2645E+00  0.2557E+00  0.1149E+02  0.1149E+02
     10.731  0.2848E+00  0.2799E+00  0.1151E+02  0.1151E+02
     10.796  0.3814E+00  0.3774E+00  0.1154E+02  0.1154E+02
     10.861  0.4682E+00  0.4677E+00  0.1157E+02  0.1157E+02
     10.927  0.4239E+00  0.4278E+00  0.1160E+02  0.1160E+02
     10.992  0.3141E+00  0.3178E+00  0.1162E+02  0.1162E+02
     11.057  0.2979E+00  0.2999E+00  0.1164E+02  0.1164E+02
     11.122  0.3736E+00  0.3788E+00  0.1166E+02  0.1166E+02
     11.188  0.3893E+00  0.3932E+00  0.1169E+02  0.1169E+02
     11.253  0.3486E+00  0.3426E+00  0.1171E+02  0.1171E+02
     11.318  0.3300E+00  0.3246E+00  0.1173E+02  0.1173E+02
     11.383  0.2883E+00  0.2871E+00  0.1175E+02  0.1175E+02
     11.448  0.2998E+00  0.2962E+00  0.1177E+02  0.1177E+02
     11.514  0.3810E+00  0.3777E+00  0.1179E+02  0.1179E+02
     11.579  0.3831E+00  0.3852E+00  0.1182E+02  0.1182E+02
     11.644  0.2627E+00  0.2687E+00  0.1184E+02  0.1183E+02
     11.709  0.1217E+00  0.1265E+00  0.1184E+02  0.1184E+02
     11.775  0.4499E-01  0.4802E-01  0.1185E+02  0.1185E+02
     11.840  0.2555E-01  0.3024E-01  0.1185E+02  0.1185E+02
     11.905  0.4870E-01  0.6148E-01  0.1185E+02  0.1185E+02
     11.970  0.1300E+00  0.1567E+00  0.1186E+02  0.1186E+02
     12.035  0.2413E+00  0.2627E+00  0.1188E+02  0.1188E+02
     12.101  0.2478E+00  0.2331E+00  0.1189E+02  0.1189E+02
     12.166  0.1639E+00  0.1349E+00  0.1190E+02  0.1190E+02
     12.231  0.1181E+00  0.1021E+00  0.1191E+02  0.1191E+02
     12.296  0.1223E+00  0.1165E+00  0.1192E+02  0.1192E+02
     12.362  0.9749E-01  0.9588E-01  0.1192E+02  0.1192E+02
     12.427  0.6644E-01  0.6516E-01  0.1193E+02  0.1193E+02
     12.492  0.8255E-01  0.8068E-01  0.1193E+02  0.1193E+02
     12.557  0.1105E+00  0.1100E+00  0.1194E+02  0.1194E+02
     12.622  0.9775E-01  0.9836E-01  0.1195E+02  0.1195E+02
     12.688  0.8697E-01  0.8654E-01  0.1195E+02  0.1195E+02
     12.753  0.1186E+00  0.1179E+00  0.1196E+02  0.1196E+02
     12.818  0.1555E+00  0.1560E+00  0.1197E+02  0.1197E+02
     12.883  0.1334E+00  0.1351E+00  0.1198E+02  0.1198E+02
     12.948  0.7717E-01  0.7804E-01  0.1198E+02  0.1198E+02
     13.014  0.5206E-01  0.5205E-01  0.1199E+02  0.1199E+02
     13.079  0.3921E-01  0.3989E-01  0.1199E+02  0.1199E+02
     13.144  0.2050E-01  0.2132E-01  0.1199E+02  0.1199E+02
     13.209  0.1170E-01  0.1210E-01  0.1199E+02  0.1199E+02
     13.275  0.1508E-01  0.1523E-01  0.1199E+02  0.1199E+02
     13.340  0.1995E-01  0.1981E-01  0.1200E+02  0.1200E+02
     13.405  0.1779E-01  0.1727E-01  0.1200E+02  0.1200E+02
     13.470  0.1842E-01  0.1778E-01  0.1200E+02  0.1200E+02
     13.535  0.1866E-01  0.1881E-01  0.1200E+02  0.1200E+02
     13.601  0.1082E-01  0.1142E-01  0.1200E+02  0.1200E+02
     13.666  0.3948E-02  0.4273E-02  0.1200E+02  0.1200E+02
     13.731  0.1146E-02  0.1254E-02  0.1200E+02  0.1200E+02
     13.796  0.3194E-03  0.3505E-03  0.1200E+02  0.1200E+02
     13.862  0.8729E-04  0.9586E-04  0.1200E+02  0.1200E+02
     13.927  0.0000E+00  0.0000E+00  0.1200E+02  0.1200E+02
     13.992  0.0000E+00  0.0000E+00  0.1200E+02  0.1200E+02
     14.057  0.0000E+00  0.0000E+00  0.1200E+02  0.1200E+02
     14.122  0.0000E+00  0.0000E+00  0.1200E+02  0.1200E+02
     14.188  0.0000E+00  0.0000E+00  0.1200E+02  0.1200E+02
     14.253  0.0000E+00  0.0000E+00  0.1200E+02  0.1200E+02
     14.318  0.0000E+00  0.0000E+00  0.1200E+02  0.1200E+02
     14.383  0.0000E+00  0.0000E+00  0.1200E+02  0.1200E+02
     14.38332194     -5.18265708  301      4.17592566      1.00000000
     -5.183  0.0000E+00  0.0000E+00  0.0000E+00  0.0000E+00  0.0000E+00  0.0000E+00  0.0000E+00  0.0000E+00  0.0000E+00  0.0000E+00  0.0000E+00  0.0000E+00  0.0000E+00  0.0000E+00  0.0000E+00  0.0000E+00  0.0000E+00  0.0000E+00
     -5.117  0.0000E+00  0.0000E+00  0.0000E+00  0.0000E+00  0.0000E+00  0.0000E+00  0.0000E+00  0.0000E+00  0.0000E+00  0.0000E+00  0.0000E+00  0.0000E+00  0.0000E+00  0.0000E+00  0.0000E+00  0.0000E+00  0.0000E+00  0.0000E+00
     -5.052  0.0000E+00  0.0000E+00  0.0000E+00  0.0000E+00  0.0000E+00  0.0000E+00  0.0000E+00  0.0000E+00  0.0000E+00  0.0000E+00  0.0000E+00  0.0000E+00  0.0000E+00  0.0000E+00  0.0000E+00  0.0000E+00  0.0000E+00  0.0000E+00
     -4.987  0.0000E+00  0.0000E+00  0.0000E+00  0.0000E+00  0.0000E+00  0.0000E+00  0.0000E+00  0.0000E+00  0.0000E+00  0.0000E+00  0.0000E+00  0.0000E+00  0.0000E+00  0.0000E+00  0.0000E+00  0.0000E+00  0.0000E+00  0.0000E+00
     -4.922  0.0000E+00  0.0000E+00  0.0000E+00  0.0000E+00  0.0000E+00  0.0000E+00  0.0000E+00  0.0000E+00  0.0000E+00  0.0000E+00  0.0000E+00  0.0000E+00  0.0000E+00  0.0000E+00  0.0000E+00  0.0000E+00  0.0000E+00  0.0000E+00
     -4.857  0.0000E+00  0.0000E+00  0.0000E+00  0.0000E+00  0.0000E+00  0.0000E+00  0.0000E+00  0.0000E+00  0.0000E+00  0.0000E+00  0.0000E+00  0.0000E+00  0.0000E+00  0.0000E+00  0.0000E+00  0.0000E+00  0.0000E+00  0.0000E+00
     -4.791  0.0000E+00  0.0000E+00  0.0000E+00  0.0000E+00  0.0000E+00  0.0000E+00  0.0000E+00  0.0000E+00  0.0000E+00  0.0000E+00  0.0000E+00  0.0000E+00  0.0000E+00  0.0000E+00  0.0000E+00  0.0000E+00  0.0000E+00  0.0000E+00
     -4.726  0.1852E-07  0.1787E-07  0.4701E-22  0.7290E-22  0.4701E-22  0.7290E-22  0.1204E-22  0.1652E-22  0.0000E+00  0.0000E+00  0.0000E+00  0.0000E+00  0.0000E+00  0.0000E+00  0.0000E+00  0.0000E+00  0.0000E+00  0.0000E+00
     -4.661  0.3751E-06  0.3619E-06  0.2103E-08  0.2030E-08  0.2103E-08  0.2030E-08  0.2103E-08  0.2029E-08  0.0000E+00  0.0000E+00  0.0000E+00  0.0000E+00  0.0000E+00  0.0000E+00  0.0000E+00  0.0000E+00  0.0000E+00  0.0000E+00
     -4.596  0.1214E-05  0.1171E-05  0.7749E-08  0.7477E-08  0.7749E-08  0.7477E-08  0.7747E-08  0.7476E-08  0.0000E+00  0.0000E+00  0.0000E+00  0.0000E+00  0.0000E+00  0.0000E+00  0.0000E+00  0.0000E+00  0.0000E+00  0.0000E+00
     -4.530  0.4813E-05  0.4644E-05  0.3749E-07  0.3617E-07  0.3749E-07  0.3617E-07  0.3746E-07  0.3615E-07  0.0000E+00  0.0000E+00  0.0000E+00  0.0000E+00  0.0000E+00  0.0000E+00  0.0000E+00  0.0000E+00  0.0000E+00  0.0000E+00
     -4.465  0.1755E-04  0.1694E-04  0.1406E-06  0.1357E-06  0.1406E-06  0.1357E-06  0.1405E-06  0.1356E-06  0.0000E+00  0.0000E+00  0.0000E+00  0.0000E+00  0.0000E+00  0.0000E+00  0.0000E+00  0.0000E+00  0.0000E+00  0.0000E+00
     -4.400  0.6194E-04  0.5987E-04  0.5013E-06  0.4841E-06  0.5013E-06  0.4841E-06  0.5010E-06  0.4838E-06  0.0000E+00  0.0000E+00  0.0000E+00  0.0000E+00  0.0000E+00  0.0000E+00  0.0000E+00  0.0000E+00  0.0000E+00  0.0000E+00
     -4.335  0.2028E-03  0.1968E-03  0.1773E-05  0.1715E-05  0.1773E-05  0.1715E-05  0.1772E-05  0.1714E-05  0.0000E+00  0.0000E+00  0.0000E+00  0.0000E+00  0.0000E+00  0.0000E+00  0.0000E+00  0.0000E+00  0.0000E+00  0.0000E+00
     -4.270  0.5413E-03  0.5289E-03  0.5451E-05  0.5298E-05  0.5451E-05  0.5298E-05  0.5447E-05  0.5294E-05  0.0000E+00  0.0000E+00  0.0000E+00  0.0000E+00  0.0000E+00  0.0000E+00  0.0000E+00  0.0000E+00  0.0000E+00  0.0000E+00
     -4.204  0.1055E-02  0.1040E-02  0.1366E-04  0.1336E-04  0.1366E-04  0.1336E-04  0.1365E-04  0.1335E-04  0.0000E+00  0.0000E+00  0.0000E+00  0.0000E+00  0.0000E+00  0.0000E+00  0.0000E+00  0.0000E+00  0.0000E+00  0.0000E+00
     -4.139  0.1560E-02  0.1547E-02  0.2800E-04  0.2751E-04  0.2800E-04  0.2751E-04  0.2798E-04  0.2749E-04  0.0000E+00  0.0000E+00  0.0000E+00  0.0000E+00  0.0000E+00  0.0000E+00  0.0000E+00  0.0000E+00  0.0000E+00  0.0000E+00
     -4.074  0.2033E-02  0.2022E-02  0.4853E-04  0.4793E-04  0.4853E-04  0.4793E-04  0.4850E-04  0.4790E-04  0.0000E+00  0.0000E+00  0.0000E+00  0.0000E+00  0.0000E+00  0.0000E+00  0.0000E+00  0.0000E+00  0.0000E+00  0.0000E+00
     -4.009  0.2280E-02  0.2277E-02  0.6923E-04  0.6866E-04  0.6923E-04  0.6866E-04  0.6919E-04  0.6862E-04  0.0000E+00  0.0000E+00  0.0000E+00  0.0000E+00  0.0000E+00  0.0000E+00  0.0000E+00  0.0000E+00  0.0000E+00  0.0000E+00
     -3.943  0.2458E-02  0.2448E-02  0.9700E-04  0.9601E-04  0.9700E-04  0.9601E-04  0.9690E-04  0.9590E-04  0.0000E+00  0.0000E+00  0.0000E+00  0.0000E+00  0.0000E+00  0.0000E+00  0.0000E+00  0.0000E+00  0.0000E+00  0.0000E+00
     -3.878  0.2839E-02  0.2830E-02  0.1365E-03  0.1355E-03  0.1365E-03  0.1355E-03  0.1363E-03  0.1353E-03  0.0000E+00  0.0000E+00  0.0000E+00  0.0000E+00  0.0000E+00  0.0000E+00  0.0000E+00  0.0000E+00  0.0000E+00  0.0000E+00
     -3.813  0.2960E-02  0.2959E-02  0.1661E-03  0.1654E-03  0.1661E-03  0.1654E-03  0.1661E-03  0.1654E-03  0.0000E+00  0.0000E+00  0.0000E+00  0.0000E+00  0.0000E+00  0.0000E+00  0.0000E+00  0.0000E+00  0.0000E+00  0.0000E+00
     -3.748  0.3003E-02  0.2999E-02  0.1977E-03  0.1966E-03  0.1977E-03  0.1966E-03  0.1975E-03  0.1965E-03  0.0000E+00  0.0000E+00  0.0000E+00  0.0000E+00  0.0000E+00  0.0000E+00  0.0000E+00  0.0000E+00  0.0000E+00  0.0000E+00
     -3.683  0.3073E-02  0.3073E-02  0.2353E-03  0.2344E-03  0.2353E-03  0.2344E-03  0.2351E-03  0.2341E-03  0.0000E+00  0.0000E+00  0.0000E+00  0.0000E+00  0.0000E+00  0.0000E+00  0.0000E+00  0.0000E+00  0.0000E+00  0.0000E+00
     -3.617  0.3092E-02  0.3085E-02  0.2805E-03  0.2787E-03  0.2805E-03  0.2787E-03  0.2800E-03  0.2783E-03  0.0000E+00  0.0000E+00  0.0000E+00  0.0000E+00  0.0000E+00  0.0000E+00  0.0000E+00  0.0000E+00  0.0000E+00  0.0000E+00
     -3.552  0.3411E-02  0.3400E-02  0.3529E-03  0.3510E-03  0.3529E-03  0.3510E-03  0.3526E-03  0.3507E-03  0.0000E+00  0.0000E+00  0.0000E+00  0.0000E+00  0.0000E+00  0.0000E+00  0.0000E+00  0.0000E+00  0.0000E+00  0.0000E+00
     -3.487  0.3531E-02  0.3530E-02  0.4018E-03  0.4009E-03  0.4018E-03  0.4009E-03  0.4017E-03  0.4008E-03  0.0000E+00  0.0000E+00  0.0000E+00  0.0000E+00  0.0000E+00  0.0000E+00  0.0000E+00  0.0000E+00  0.0000E+00  0.0000E+00
     -3.422  0.3372E-02  0.3378E-02  0.4263E-03  0.4259E-03  0.4263E-03  0.4259E-03  0.4261E-03  0.4257E-03  0.0000E+00  0.0000E+00  0.0000E+00  0.0000E+00  0.0000E+00  0.0000E+00  0.0000E+00  0.0000E+00  0.0000E+00  0.0000E+00
     -3.356  0.3082E-02  0.3087E-02  0.4472E-03  0.4459E-03  0.4472E-03  0.4459E-03  0.4465E-03  0.4453E-03  0.0000E+00  0.0000E+00  0.0000E+00  0.0000E+00  0.0000E+00  0.0000E+00  0.0000E+00  0.0000E+00  0.0000E+00  0.0000E+00
     -3.291  0.3155E-02  0.3144E-02  0.5485E-03  0.5443E-03  0.5485E-03  0.5443E-03  0.5469E-03  0.5427E-03  0.0000E+00  0.0000E+00  0.0000E+00  0.0000E+00  0.0000E+00  0.0000E+00  0.0000E+00  0.0000E+00  0.0000E+00  0.0000E+00
     -3.226  0.3524E-02  0.3517E-02  0.6928E-03  0.6898E-03  0.6928E-03  0.6898E-03  0.6919E-03  0.6888E-03  0.0000E+00  0.0000E+00  0.0000E+00  0.0000E+00  0.0000E+00  0.0000E+00  0.0000E+00  0.0000E+00  0.0000E+00  0.0000E+00
     -3.161  0.3460E-02  0.3467E-02  0.7508E-03  0.7500E-03  0.7508E-03  0.7500E-03  0.7505E-03  0.7495E-03  0.0000E+00  0.0000E+00  0.0000E+00  0.0000E+00  0.0000E+00  0.0000E+00  0.0000E+00  0.0000E+00  0.0000E+00  0.0000E+00
     -3.096  0.3242E-02  0.3251E-02  0.8025E-03  0.8009E-03  0.8025E-03  0.8009E-03  0.8014E-03  0.7998E-03  0.0000E+00  0.0000E+00  0.0000E+00  0.0000E+00  0.0000E+00  0.0000E+00  0.0000E+00  0.0000E+00  0.0000E+00  0.0000E+00
     -3.030  0.2842E-02  0.2857E-02  0.8562E-03  0.8538E-03  0.8562E-03  0.8538E-03  0.8540E-03  0.8516E-03  0.0000E+00  0.0000E+00  0.0000E+00  0.0000E+00  0.0000E+00  0.0000E+00  0.0000E+00  0.0000E+00  0.0000E+00  0.0000E+00
     -2.965  0.2707E-02  0.2704E-02  0.1034E-02  0.1026E-02  0.1034E-02  0.1026E-02  0.1030E-02  0.1023E-02  0.0000E+00  0.0000E+00  0.0000E+00  0.0000E+00  0.0000E+00  0.0000E+00  0.0000E+00  0.0000E+00  0.0000E+00  0.0000E+00
     -2.900  0.2965E-02  0.2965E-02  0.1257E-02  0.1253E-02  0.1257E-02  0.1253E-02  0.1255E-02  0.1251E-02  0.0000E+00  0.0000E+00  0.0000E+00  0.0000E+00  0.0000E+00  0.0000E+00  0.0000E+00  0.0000E+00  0.0000E+00  0.0000E+00
     -2.835  0.2776E-02  0.2792E-02  0.1296E-02  0.1296E-02  0.1296E-02  0.1296E-02  0.1296E-02  0.1296E-02  0.0000E+00  0.0000E+00  0.0000E+00  0.0000E+00  0.0000E+00  0.0000E+00  0.0000E+00  0.0000E+00  0.0000E+00  0.0000E+00
     -2.770  0.2273E-02  0.2290E-02  0.1204E-02  0.1208E-02  0.1204E-02  0.1208E-02  0.1206E-02  0.1209E-02  0.0000E+00  0.0000E+00  0.0000E+00  0.0000E+00  0.0000E+00  0.0000E+00  0.0000E+00  0.0000E+00  0.0000E+00  0.0000E+00
     -2.704  0.1852E-02  0.1862E-02  0.1062E-02  0.1064E-02  0.1062E-02  0.1064E-02  0.1064E-02  0.1066E-02  0.0000E+00  0.0000E+00  0.0000E+00  0.0000E+00  0.0000E+00  0.0000E+00  0.0000E+00  0.0000E+00  0.0000E+00  0.0000E+00
     -2.639  0.1853E-02  0.1848E-02  0.1146E-02  0.1140E-02  0.1146E-02  0.1140E-02  0.1144E-02  0.1138E-02  0.0000E+00  0.0000E+00  0.0000E+00  0.0000E+00  0.0000E+00  0.0000E+00  0.0000E+00  0.0000E+00  0.0000E+00  0.0000E+00
     -2.574  0.2100E-02  0.2101E-02  0.1322E-02  0.1321E-02  0.1322E-02  0.1321E-02  0.1323E-02  0.1321E-02  0.0000E+00  0.0000E+00  0.0000E+00  0.0000E+00  0.0000E+00  0.0000E+00  0.0000E+00  0.0000E+00  0.0000E+00  0.0000E+00
     -2.509  0.1864E-02  0.1879E-02  0.1200E-02  0.1206E-02  0.1200E-02  0.1206E-02  0.1203E-02  0.1209E-02  0.0000E+00  0.0000E+00  0.0000E+00  0.0000E+00  0.0000E+00  0.0000E+00  0.0000E+00  0.0000E+00  0.0000E+00  0.0000E+00
     -2.443  0.1427E-02  0.1442E-02  0.1004E-02  0.1009E-02  0.1004E-02  0.1009E-02  0.1006E-02  0.1011E-02  0.0000E+00  0.0000E+00  0.0000E+00  0.0000E+00  0.0000E+00  0.0000E+00  0.0000E+00  0.0000E+00  0.0000E+00  0.0000E+00
     -2.378  0.1060E-02  0.1069E-02  0.8599E-03  0.8621E-03  0.8599E-03  0.8621E-03  0.8610E-03  0.8632E-03  0.0000E+00  0.0000E+00  0.0000E+00  0.0000E+00  0.0000E+00  0.0000E+00  0.0000E+00  0.0000E+00  0.0000E+00  0.0000E+00
     -2.313  0.1064E-02  0.1059E-02  0.9422E-03  0.9352E-03  0.9422E-03  0.9352E-03  0.9404E-03  0.9335E-03  0.0000E+00  0.0000E+00  0.0000E+00  0.0000E+00  0.0000E+00  0.0000E+00  0.0000E+00  0.0000E+00  0.0000E+00  0.0000E+00
     -2.248  0.1329E-02  0.1327E-02  0.1183E-02  0.1179E-02  0.1183E-02  0.1179E-02  0.1183E-02  0.1178E-02  0.0000E+00  0.0000E+00  0.0000E+00  0.0000E+00  0.0000E+00  0.0000E+00  0.0000E+00  0.0000E+00  0.0000E+00  0.0000E+00
     -2.183  0.1189E-02  0.1202E-02  0.1106E-02  0.1113E-02  0.1106E-02  0.1113E-02  0.1109E-02  0.1115E-02  0.0000E+00  0.0000E+00  0.0000E+00  0.0000E+00  0.0000E+00  0.0000E+00  0.0000E+00  0.0000E+00  0.0000E+00  0.0000E+00
     -2.117  0.8270E-03  0.8379E-03  0.8467E-03  0.8537E-03  0.8467E-03  0.8537E-03  0.8495E-03  0.8565E-03  0.0000E+00  0.0000E+00  0.0000E+00  0.0000E+00  0.0000E+00  0.0000E+00  0.0000E+00  0.0000E+00  0.0000E+00  0.0000E+00
     -2.052  0.5935E-03  0.5992E-03  0.6278E-03  0.6318E-03  0.6278E-03  0.6318E-03  0.6298E-03  0.6339E-03  0.0000E+00  0.0000E+00  0.0000E+00  0.0000E+00  0.0000E+00  0.0000E+00  0.0000E+00  0.0000E+00  0.0000E+00  0.0000E+00
     -1.987  0.5889E-03  0.5865E-03  0.6472E-03  0.6414E-03  0.6472E-03  0.6414E-03  0.6456E-03  0.6399E-03  0.0000E+00  0.0000E+00  0.0000E+00  0.0000E+00  0.0000E+00  0.0000E+00  0.0000E+00  0.0000E+00  0.0000E+00  0.0000E+00
     -1.922  0.7908E-03  0.7872E-03  0.9264E-03  0.9189E-03  0.9264E-03  0.9189E-03  0.9238E-03  0.9163E-03  0.0000E+00  0.0000E+00  0.0000E+00  0.0000E+00  0.0000E+00  0.0000E+00  0.0000E+00  0.0000E+00  0.0000E+00  0.0000E+00