   4   4   1   0
  0.1355405E+02  0.3783959E-09  0.3785222E-09  0.3785222E-09  0.5000000E-15
  1.000000000000000E-004
  CAR 
 unknown system                          
     22.33529500     -4.18255171  301      8.00146053      1.00000000
     -4.183  0.0000E+00  0.0000E+00  0.0000E+00  0.0000E+00
     -4.094  0.0000E+00  0.0000E+00  0.0000E+00  0.0000E+00
     -4.006  0.0000E+00  0.0000E+00  0.0000E+00  0.0000E+00
     -3.917  0.0000E+00  0.0000E+00  0.0000E+00  0.0000E+00
     -3.829  0.0000E+00  0.0000E+00  0.0000E+00  0.0000E+00
     -3.741  0.0000E+00  0.0000E+00  0.0000E+00  0.0000E+00
     -3.652  0.0000E+00  0.0000E+00  0.0000E+00  0.0000E+00
     -3.564  0.0000E+00  0.0000E+00  0.0000E+00  0.0000E+00
     -3.475  0.0000E+00  0.0000E+00  0.0000E+00  0.0000E+00
     -3.387  0.4121E-05  0.4241E-05  0.3643E-06  0.3749E-06
     -3.299  0.3064E-04  0.3395E-04  0.3073E-05  0.3376E-05
     -3.210  0.1855E-03  0.1885E-03  0.1947E-04  0.2003E-04
     -3.122  0.1085E-02  0.1115E-02  0.1153E-03  0.1186E-03
     -3.033  0.5719E-02  0.5867E-02  0.6209E-03  0.6372E-03
     -2.945  0.2301E-01  0.2345E-01  0.2655E-02  0.2710E-02
     -2.857  0.5485E-01  0.5537E-01  0.7503E-02  0.7604E-02
     -2.768  0.8227E-01  0.8271E-01  0.1478E-01  0.1491E-01
     -2.680  0.1154E+00  0.1159E+00  0.2497E-01  0.2516E-01
     -2.591  0.1257E+00  0.1256E+00  0.3608E-01  0.3626E-01
     -2.503  0.1348E+00  0.1354E+00  0.4800E-01  0.4823E-01
     -2.415  0.1749E+00  0.1753E+00  0.6347E-01  0.6373E-01
     -2.326  0.1750E+00  0.1749E+00  0.7894E-01  0.7919E-01
     -2.238  0.1851E+00  0.1856E+00  0.9533E-01  0.9562E-01
     -2.150  0.1946E+00  0.1944E+00  0.1125E+00  0.1128E+00
     -2.061  0.1998E+00  0.2006E+00  0.1302E+00  0.1305E+00
     -1.973  0.2479E+00  0.2483E+00  0.1522E+00  0.1525E+00
     -1.884  0.2534E+00  0.2534E+00  0.1746E+00  0.1749E+00
     -1.796  0.2428E+00  0.2424E+00  0.1961E+00  0.1964E+00
     -1.708  0.2184E+00  0.2185E+00  0.2154E+00  0.2157E+00
     -1.619  0.2781E+00  0.2795E+00  0.2400E+00  0.2404E+00
     -1.531  0.3314E+00  0.3313E+00  0.2693E+00  0.2697E+00
     -1.442  0.3121E+00  0.3122E+00  0.2969E+00  0.2973E+00
     -1.354  0.3225E+00  0.3221E+00  0.3254E+00  0.3258E+00
     -1.266  0.2902E+00  0.2905E+00  0.3511E+00  0.3515E+00
     -1.177  0.3856E+00  0.3875E+00  0.3852E+00  0.3858E+00
     -1.089  0.4400E+00  0.4397E+00  0.4241E+00  0.4247E+00
     -1.000  0.4007E+00  0.3997E+00  0.4595E+00  0.4601E+00
     -0.912  0.3293E+00  0.3278E+00  0.4887E+00  0.4891E+00
     -0.824  0.2780E+00  0.2787E+00  0.5133E+00  0.5137E+00
     -0.735  0.3954E+00  0.3974E+00  0.5483E+00  0.5489E+00
     -0.647  0.4086E+00  0.4070E+00  0.5844E+00  0.5849E+00
     -0.558  0.3079E+00  0.3071E+00  0.6117E+00  0.6121E+00
     -0.470  0.2496E+00  0.2483E+00  0.6337E+00  0.6340E+00
     -0.382  0.2069E+00  0.2077E+00  0.6520E+00  0.6524E+00
     -0.293  0.3389E+00  0.3413E+00  0.6821E+00  0.6826E+00
     -0.205  0.3725E+00  0.3711E+00  0.7150E+00  0.7154E+00
     -0.116  0.2600E+00  0.2586E+00  0.7380E+00  0.7384E+00
     -0.028  0.1771E+00  0.1757E+00  0.7537E+00  0.7539E+00
      0.060  0.1326E+00  0.1332E+00  0.7654E+00  0.7657E+00
      0.149  0.2582E+00  0.2610E+00  0.7883E+00  0.7888E+00
      0.237  0.3388E+00  0.3379E+00  0.8183E+00  0.8187E+00
      0.325  0.2204E+00  0.2189E+00  0.8378E+00  0.8381E+00
      0.414  0.2088E+00  0.2094E+00  0.8562E+00  0.8566E+00
      0.502  0.2476E+00  0.2483E+00  0.8781E+00  0.8785E+00
      0.591  0.3268E+00  0.3286E+00  0.9071E+00  0.9076E+00
      0.679  0.4055E+00  0.4057E+00  0.9429E+00  0.9435E+00
      0.767  0.3493E+00  0.3480E+00  0.9738E+00  0.9742E+00
      0.856  0.3061E+00  0.3058E+00  0.1001E+01  0.1001E+01
      0.944  0.2961E+00  0.2961E+00  0.1027E+01  0.1027E+01
      1.033  0.3562E+00  0.3582E+00  0.1059E+01  0.1059E+01
      1.121  0.4713E+00  0.4722E+00  0.1100E+01  0.1101E+01
      1.209  0.4882E+00  0.4880E+00  0.1143E+01  0.1144E+01
      1.298  0.4459E+00  0.4446E+00  0.1183E+01  0.1183E+01
      1.386  0.3718E+00  0.3713E+00  0.1216E+01  0.1216E+01
      1.475  0.4219E+00  0.4236E+00  0.1253E+01  0.1254E+01
      1.563  0.5191E+00  0.5201E+00  0.1299E+01  0.1300E+01
      1.651  0.5376E+00  0.5372E+00  0.1347E+01  0.1347E+01
      1.740  0.4822E+00  0.4808E+00  0.1389E+01  0.1390E+01
      1.828  0.4341E+00  0.4345E+00  0.1428E+01  0.1428E+01
      1.917  0.5818E+00  0.5851E+00  0.1479E+01  0.1480E+01
      2.005  0.6654E+00  0.6639E+00  0.1538E+01  0.1539E+01
      2.093  0.5143E+00  0.5132E+00  0.1584E+01  0.1584E+01
      2.182  0.4809E+00  0.4804E+00  0.1626E+01  0.1627E+01
      2.270  0.4754E+00  0.4757E+00  0.1668E+01  0.1669E+01
      2.359  0.4976E+00  0.4975E+00  0.1712E+01  0.1713E+01
      2.447  0.4590E+00  0.4585E+00  0.1753E+01  0.1753E+01
      2.535  0.4556E+00  0.4565E+00  0.1793E+01  0.1794E+01
      2.624  0.4976E+00  0.4978E+00  0.1837E+01  0.1838E+01
      2.712  0.4538E+00  0.4528E+00  0.1877E+01  0.1878E+01
      2.800  0.4215E+00  0.4214E+00  0.1915E+01  0.1915E+01
      2.889  0.4045E+00  0.4041E+00  0.1950E+01  0.1951E+01
      2.977  0.3890E+00  0.3894E+00  0.1985E+01  0.1985E+01
      3.066  0.4738E+00  0.4764E+00  0.2027E+01  0.2027E+01
      3.154  0.6121E+00  0.6131E+00  0.2081E+01  0.2082E+01
      3.242  0.6059E+00  0.6051E+00  0.2134E+01  0.2135E+01
      3.331  0.5056E+00  0.5038E+00  0.2179E+01  0.2180E+01
      3.419  0.4263E+00  0.4255E+00  0.2217E+01  0.2217E+01
      3.508  0.3628E+00  0.3621E+00  0.2249E+01  0.2249E+01
      3.596  0.3944E+00  0.3957E+00  0.2284E+01  0.2285E+01
      3.684  0.4447E+00  0.4453E+00  0.2323E+01  0.2324E+01
      3.773  0.5048E+00  0.5065E+00  0.2368E+01  0.2369E+01
      3.861  0.5777E+00  0.5782E+00  0.2419E+01  0.2420E+01
      3.950  0.6258E+00  0.6275E+00  0.2474E+01  0.2475E+01
      4.038  0.7282E+00  0.7280E+00  0.2539E+01  0.2540E+01
      4.126  0.5804E+00  0.5774E+00  0.2590E+01  0.2591E+01
      4.215  0.4852E+00  0.4855E+00  0.2633E+01  0.2634E+01
      4.303  0.5151E+00  0.5164E+00  0.2679E+01  0.2679E+01
      4.392  0.6670E+00  0.6706E+00  0.2738E+01  0.2739E+01
      4.480  0.8392E+00  0.8400E+00  0.2812E+01  0.2813E+01
      4.568  0.7788E+00  0.7757E+00  0.2881E+01  0.2882E+01
      4.657  0.5599E+00  0.5568E+00  0.2930E+01  0.2931E+01
      4.745  0.4695E+00  0.4704E+00  0.2972E+01  0.2973E+01
      4.834  0.6230E+00  0.6266E+00  0.3027E+01  0.3028E+01
      4.922  0.7196E+00  0.7189E+00  0.3091E+01  0.3092E+01
      5.010  0.6434E+00  0.6423E+00  0.3147E+01  0.3148E+01
      5.099  0.6314E+00  0.6306E+00  0.3203E+01  0.3204E+01
      5.187  0.5711E+00  0.5699E+00  0.3254E+01  0.3255E+01
      5.275  0.5514E+00  0.5523E+00  0.3303E+01  0.3304E+01
      5.364  0.5528E+00  0.5521E+00  0.3352E+01  0.3352E+01
      5.452  0.5348E+00  0.5357E+00  0.3399E+01  0.3400E+01
      5.541  0.6561E+00  0.6592E+00  0.3457E+01  0.3458E+01
      5.629  0.7899E+00  0.7903E+00  0.3527E+01  0.3528E+01
      5.717  0.7779E+00  0.7781E+00  0.3596E+01  0.3597E+01
      5.806  0.7946E+00  0.7939E+00  0.3666E+01  0.3667E+01
      5.894  0.6774E+00  0.6756E+00  0.3726E+01  0.3727E+01
      5.983  0.6147E+00  0.6135E+00  0.3780E+01  0.3781E+01
      6.071  0.5654E+00  0.5654E+00  0.3830E+01  0.3831E+01
      6.159  0.5426E+00  0.5418E+00  0.3878E+01  0.3879E+01
      6.248  0.5024E+00  0.5024E+00  0.3923E+01  0.3923E+01
      6.336  0.5569E+00  0.5589E+00  0.3972E+01  0.3973E+01
      6.425  0.6957E+00  0.6976E+00  0.4033E+01  0.4035E+01
      6.513  0.7720E+00  0.7716E+00  0.4102E+01  0.4103E+01
      6.601  0.6651E+00  0.6627E+00  0.4161E+01  0.4162E+01
      6.690  0.5997E+00  0.6002E+00  0.4214E+01  0.4215E+01
      6.778  0.6573E+00  0.6581E+00  0.4272E+01  0.4273E+01
      6.867  0.5990E+00  0.5973E+00  0.4325E+01  0.4326E+01
      6.955  0.5197E+00  0.5181E+00  0.4371E+01  0.4372E+01
      7.043  0.4285E+00  0.4273E+00  0.4409E+01  0.4409E+01
      7.132  0.4115E+00  0.4136E+00  0.4445E+01  0.4446E+01
      7.220  0.5509E+00  0.5530E+00  0.4494E+01  0.4495E+01
      7.309  0.6202E+00  0.6203E+00  0.4549E+01  0.4550E+01
      7.397  0.6758E+00  0.6767E+00  0.4609E+01  0.4610E+01
      7.485  0.6760E+00  0.6749E+00  0.4668E+01  0.4669E+01
      7.574  0.5905E+00  0.5904E+00  0.4721E+01  0.4722E+01
      7.662  0.6943E+00  0.6971E+00  0.4782E+01  0.4783E+01
      7.750  0.8206E+00  0.8207E+00  0.4855E+01  0.4856E+01
      7.839  0.7076E+00  0.7049E+00  0.4917E+01  0.4918E+01
      7.927  0.5380E+00  0.5354E+00  0.4965E+01  0.4965E+01
      8.016  0.4667E+00  0.4657E+00  0.5006E+01  0.5007E+01
      8.104  0.4324E+00  0.4320E+00  0.5044E+01  0.5045E+01
      8.192  0.4475E+00  0.4483E+00  0.5084E+01  0.5085E+01
      8.281  0.5594E+00  0.5626E+00  0.5134E+01  0.5134E+01
      8.369  0.7631E+00  0.7663E+00  0.5201E+01  0.5202E+01
      8.458  0.9575E+00  0.9593E+00  0.5286E+01  0.5287E+01
      8.546  0.8799E+00  0.8752E+00  0.5363E+01  0.5364E+01
      8.634  0.5753E+00  0.5720E+00  0.5414E+01  0.5415E+01
      8.723  0.5449E+00  0.5463E+00  0.5463E+01  0.5463E+01
      8.811  0.6091E+00  0.6097E+00  0.5517E+01  0.5517E+01
      8.900  0.6044E+00  0.6047E+00  0.5570E+01  0.5571E+01
      8.988  0.6168E+00  0.6170E+00  0.5625E+01  0.5625E+01
      9.076  0.7043E+00  0.7058E+00  0.5687E+01  0.5688E+01
      9.165  0.7277E+00  0.7263E+00  0.5751E+01  0.5752E+01
      9.253  0.6598E+00  0.6592E+00  0.5810E+01  0.5810E+01
      9.342  0.6300E+00  0.6299E+00  0.5865E+01  0.5866E+01
      9.430  0.6224E+00  0.6236E+00  0.5920E+01  0.5921E+01
      9.518  0.6686E+00  0.6681E+00  0.5980E+01  0.5981E+01
      9.607  0.5546E+00  0.5517E+00  0.6029E+01  0.6029E+01
      9.695  0.5498E+00  0.5506E+00  0.6077E+01  0.6078E+01
      9.784  0.6842E+00  0.6841E+00  0.6138E+01  0.6139E+01
      9.872  0.6592E+00  0.6586E+00  0.6196E+01  0.6197E+01
      9.960  0.6526E+00  0.6546E+00  0.6254E+01  0.6255E+01
     10.049  0.8305E+00  0.8325E+00  0.6327E+01  0.6328E+01
     10.137  0.9190E+00  0.9173E+00  0.6409E+01  0.6410E+01
     10.225  0.7625E+00  0.7603E+00  0.6476E+01  0.6477E+01
     10.314  0.8343E+00  0.8378E+00  0.6550E+01  0.6551E+01
     10.402  0.1033E+01  0.1035E+01  0.6641E+01  0.6643E+01
     10.491  0.1042E+01  0.1042E+01  0.6734E+01  0.6735E+01
     10.579  0.1012E+01  0.1012E+01  0.6823E+01  0.6824E+01
     10.667  0.8899E+00  0.8856E+00  0.6902E+01  0.6903E+01
     10.756  0.5911E+00  0.5883E+00  0.6954E+01  0.6955E+01
     10.844  0.5238E+00  0.5248E+00  0.7001E+01  0.7001E+01
     10.933  0.6015E+00  0.6029E+00  0.7054E+01  0.7054E+01
     11.021  0.7273E+00  0.7279E+00  0.7118E+01  0.7119E+01
     11.109  0.7712E+00  0.7715E+00  0.7186E+01  0.7187E+01
     11.198  0.7934E+00  0.7949E+00  0.7257E+01  0.7257E+01
     11.286  0.8683E+00  0.8683E+00  0.7333E+01  0.7334E+01
     11.375  0.8642E+00  0.8647E+00  0.7410E+01  0.7411E+01
     11.463  0.8575E+00  0.8554E+00  0.7486E+01  0.7486E+01
     11.551  0.7251E+00  0.7238E+00  0.7550E+01  0.7550E+01
     11.640  0.7231E+00  0.7252E+00  0.7614E+01  0.7615E+01
     11.728  0.8152E+00  0.8149E+00  0.7686E+01  0.7687E+01
     11.817  0.7848E+00  0.7836E+00  0.7755E+01  0.7756E+01
     11.905  0.7363E+00  0.7369E+00  0.7820E+01  0.7821E+01
     11.993  0.8249E+00  0.8272E+00  0.7893E+01  0.7894E+01
     12.082  0.9822E+00  0.9820E+00  0.7980E+01  0.7981E+01
     12.170  0.8137E+00  0.8118E+00  0.8052E+01  0.8053E+01
     12.259  0.7004E+00  0.6993E+00  0.8114E+01  0.8115E+01
     12.347  0.6450E+00  0.6435E+00  0.8171E+01  0.8172E+01
     12.435  0.7267E+00  0.7287E+00  0.8236E+01  0.8236E+01
     12.524  0.8915E+00  0.8934E+00  0.8315E+01  0.8315E+01
     12.612  0.9046E+00  0.9039E+00  0.8395E+01  0.8395E+01
     12.700  0.7482E+00  0.7463E+00  0.8461E+01  0.8461E+01
     12.789  0.6355E+00  0.6342E+00  0.8517E+01  0.8517E+01
     12.877  0.6370E+00  0.6362E+00  0.8573E+01  0.8574E+01
     12.966  0.7270E+00  0.7282E+00  0.8638E+01  0.8638E+01
     13.054  0.7225E+00  0.7244E+00  0.8702E+01  0.8702E+01
     13.142  0.8127E+00  0.8141E+00  0.8773E+01  0.8774E+01
     13.231  0.8706E+00  0.8682E+00  0.8851E+01  0.8851E+01
     13.319  0.7299E+00  0.7285E+00  0.8915E+01  0.8916E+01
     13.408  0.5918E+00  0.5927E+00  0.8967E+01  0.8968E+01
     13.496  0.6629E+00  0.6626E+00  0.9026E+01  0.9027E+01
     13.584  0.7529E+00  0.7538E+00  0.9093E+01  0.9093E+01
     13.673  0.8068E+00  0.8072E+00  0.9164E+01  0.9165E+01
     13.761  0.6892E+00  0.6875E+00  0.9225E+01  0.9226E+01
     13.850  0.6504E+00  0.6501E+00  0.9283E+01  0.9283E+01
     13.938  0.7685E+00  0.7685E+00  0.9351E+01  0.9351E+01
     14.026  0.9008E+00  0.9018E+00  0.9430E+01  0.9431E+01
     14.115  0.9711E+00  0.9705E+00  0.9516E+01  0.9517E+01
     14.203  0.1052E+01  0.1053E+01  0.9609E+01  0.9610E+01
     14.292  0.9754E+00  0.9759E+00  0.9696E+01  0.9696E+01
     14.380  0.7819E+00  0.7780E+00  0.9765E+01  0.9765E+01
     14.468  0.6512E+00  0.6486E+00  0.9822E+01  0.9822E+01
     14.557  0.7590E+00  0.7595E+00  0.9890E+01  0.9890E+01
     14.645  0.8319E+00  0.8334E+00  0.9963E+01  0.9963E+01
     14.734  0.9522E+00  0.9533E+00  0.1005E+02  0.1005E+02
     14.822  0.9326E+00  0.9315E+00  0.1013E+02  0.1013E+02
     14.910  0.8042E+00  0.8017E+00  0.1020E+02  0.1020E+02
     14.999  0.6367E+00  0.6378E+00  0.1026E+02  0.1026E+02
     15.087  0.6579E+00  0.6597E+00  0.1032E+02  0.1032E+02
     15.175  0.7504E+00  0.7499E+00  0.1038E+02  0.1038E+02
     15.264  0.8025E+00  0.8037E+00  0.1045E+02  0.1045E+02
     15.352  0.8024E+00  0.8009E+00  0.1052E+02  0.1052E+02
     15.441  0.7757E+00  0.7750E+00  0.1059E+02  0.1059E+02
     15.529  0.9803E+00  0.9804E+00  0.1068E+02  0.1068E+02
     15.617  0.1168E+01  0.1168E+01  0.1078E+02  0.1078E+02
     15.706  0.1118E+01  0.1118E+01  0.1088E+02  0.1088E+02
     15.794  0.9093E+00  0.9109E+00  0.1096E+02  0.1096E+02
     15.883  0.9567E+00  0.9603E+00  0.1105E+02  0.1105E+02
     15.971  0.9482E+00  0.9489E+00  0.1113E+02  0.1113E+02
     16.059  0.6790E+00  0.6773E+00  0.1119E+02  0.1119E+02
     16.148  0.4101E+00  0.4088E+00  0.1123E+02  0.1123E+02
     16.236  0.3326E+00  0.3316E+00  0.1126E+02  0.1126E+02
     16.325  0.4466E+00  0.4472E+00  0.1130E+02  0.1130E+02
     16.413  0.5286E+00  0.5288E+00  0.1134E+02  0.1134E+02
     16.501  0.5329E+00  0.5309E+00  0.1139E+02  0.1139E+02
     16.590  0.4751E+00  0.4742E+00  0.1143E+02  0.1143E+02
     16.678  0.3561E+00  0.3565E+00  0.1146E+02  0.1146E+02
     16.767  0.3278E+00  0.3291E+00  0.1149E+02  0.1149E+02
     16.855  0.2748E+00  0.2738E+00  0.1152E+02  0.1152E+02
     16.943  0.1614E+00  0.1591E+00  0.1153E+02  0.1153E+02
     17.032  0.1799E+00  0.1760E+00  0.1155E+02  0.1155E+02
     17.120  0.2487E+00  0.2513E+00  0.1157E+02  0.1157E+02
     17.209  0.3261E+00  0.3314E+00  0.1160E+02  0.1160E+02
     17.297  0.3539E+00  0.3563E+00  0.1163E+02  0.1163E+02
     17.385  0.3092E+00  0.3123E+00  0.1166E+02  0.1166E+02
     17.474  0.2421E+00  0.2427E+00  0.1168E+02  0.1168E+02
     17.562  0.1910E+00  0.1859E+00  0.1169E+02  0.1170E+02
     17.650  0.1422E+00  0.1389E+00  0.1171E+02  0.1171E+02
     17.739  0.1396E+00  0.1391E+00  0.1172E+02  0.1172E+02
     17.827  0.2328E+00  0.2330E+00  0.1174E+02  0.1174E+02
     17.916  0.3193E+00  0.3196E+00  0.1177E+02  0.1177E+02
     18.004  0.1991E+00  0.1988E+00  0.1179E+02  0.1179E+02
     18.092  0.7127E-01  0.7091E-01  0.1179E+02  0.1179E+02
     18.181  0.7101E-01  0.7123E-01  0.1180E+02  0.1180E+02
     18.269  0.1654E+00  0.1657E+00  0.1181E+02  0.1181E+02
     18.358  0.2133E+00  0.2136E+00  0.1183E+02  0.1183E+02
     18.446  0.1726E+00  0.1725E+00  0.1185E+02  0.1185E+02
     18.534  0.1574E+00  0.1569E+00  0.1186E+02  0.1186E+02
     18.623  0.1484E+00  0.1479E+00  0.1187E+02  0.1187E+02
     18.711  0.1425E+00  0.1430E+00  0.1189E+02  0.1189E+02
     18.800  0.1324E+00  0.1326E+00  0.1190E+02  0.1190E+02
     18.888  0.6450E-01  0.6414E-01  0.1190E+02  0.1190E+02
     18.976  0.4847E-01  0.4861E-01  0.1191E+02  0.1191E+02
     19.065  0.1016E+00  0.1017E+00  0.1192E+02  0.1192E+02
     19.153  0.9970E-01  0.9937E-01  0.1193E+02  0.1193E+02
     19.242  0.3749E-01  0.3732E-01  0.1193E+02  0.1193E+02
     19.330  0.1671E-01  0.1689E-01  0.1193E+02  0.1193E+02
     19.418  0.3746E-01  0.3801E-01  0.1193E+02  0.1194E+02
     19.507  0.6223E-01  0.6231E-01  0.1194E+02  0.1194E+02
     19.595  0.6345E-01  0.6348E-01  0.1195E+02  0.1195E+02
     19.684  0.5945E-01  0.5896E-01  0.1195E+02  0.1195E+02
     19.772  0.5384E-01  0.5317E-01  0.1196E+02  0.1196E+02
     19.860  0.9924E-01  0.9867E-01  0.1196E+02  0.1196E+02
     19.949  0.9389E-01  0.9433E-01  0.1197E+02  0.1197E+02
     20.037  0.6605E-01  0.6654E-01  0.1198E+02  0.1198E+02
     20.125  0.5072E-01  0.5069E-01  0.1198E+02  0.1198E+02
     20.214  0.1785E-01  0.1779E-01  0.1199E+02  0.1199E+02
     20.302  0.7276E-02  0.7349E-02  0.1199E+02  0.1199E+02
     20.391  0.1814E-01  0.1845E-01  0.1199E+02  0.1199E+02
     20.479  0.3828E-01  0.3842E-01  0.1199E+02  0.1199E+02
     20.567  0.3447E-01  0.3426E-01  0.1199E+02  0.1199E+02
     20.656  0.2050E-01  0.2028E-01  0.1200E+02  0.1200E+02
     20.744  0.6434E-02  0.6315E-02  0.1200E+02  0.1200E+02
     20.833  0.1381E-02  0.1338E-02  0.1200E+02  0.1200E+02
     20.921  0.8019E-03  0.7058E-03  0.1200E+02  0.1200E+02
     21.009  0.3221E-02  0.2771E-02  0.1200E+02  0.1200E+02
     21.098  0.1184E-01  0.1080E-01  0.1200E+02  0.1200E+02
     21.186  0.1653E-01  0.1690E-01  0.1200E+02  0.1200E+02
     21.275  0.7028E-02  0.7933E-02  0.1200E+02  0.1200E+02
     21.363  0.1517E-02  0.1777E-02  0.1200E+02  0.1200E+02
     21.451  0.2707E-03  0.3196E-03  0.1200E+02  0.1200E+02
     21.540  0.0000E+00  0.0000E+00  0.1200E+02  0.1200E+02
     21.628  0.0000E+00  0.0000E+00  0.1200E+02  0.1200E+02
     21.717  0.0000E+00  0.0000E+00  0.1200E+02  0.1200E+02
     21.805  0.0000E+00  0.0000E+00  0.1200E+02  0.1200E+02
     21.893  0.0000E+00  0.0000E+00  0.1200E+02  0.1200E+02
     21.982  0.0000E+00  0.0000E+00  0.1200E+02  0.1200E+02
     22.070  0.0000E+00  0.0000E+00  0.1200E+02  0.1200E+02
     22.159  0.0000E+00  0.0000E+00  0.1200E+02  0.1200E+02
     22.247  0.0000E+00  0.0000E+00  0.1200E+02  0.1200E+02
     22.335  0.0000E+00  0.0000E+00  0.1200E+02  0.1200E+02
     22.33529500     -4.18255171  301      8.00146053      1.00000000
     -4.183  0.0000E+00  0.0000E+00  0.0000E+00  0.0000E+00  0.0000E+00  0.0000E+00  0.0000E+00  0.0000E+00  0.0000E+00  0.0000E+00  0.0000E+00  0.0000E+00  0.0000E+00  0.0000E+00  0.0000E+00  0.0000E+00  0.0000E+00  0.0000E+00
     -4.094  0.0000E+00  0.0000E+00  0.0000E+00  0.0000E+00  0.0000E+00  0.0000E+00  0.0000E+00  0.0000E+00  0.0000E+00  0.0000E+00  0.0000E+00  0.0000E+00  0.0000E+00  0.0000E+00  0.0000E+00  0.0000E+00  0.0000E+00  0.0000E+00
     -4.006  0.0000E+00  0.0000E+00  0.0000E+00  0.0000E+00  0.0000E+00  0.0000E+00  0.0000E+00  0.0000E+00  0.0000E+00  0.0000E+00  0.0000E+00  0.0000E+00  0.0000E+00  0.0000E+00  0.0000E+00  0.0000E+00  0.0000E+00  0.0000E+00
     -3.917  0.0000E+00  0.0000E+00  0.0000E+00  0.0000E+00  0.0000E+00  0.0000E+00  0.0000E+00  0.0000E+00  0.0000E+00  0.0000E+00  0.0000E+00  0.0000E+00  0.0000E+00  0.0000E+00  0.0000E+00  0.0000E+00  0.0000E+00  0.0000E+00
     -3.829  0.0000E+00  0.0000E+00  0.0000E+00  0.0000E+00  0.0000E+00  0.0000E+00  0.0000E+00  0.0000E+00  0.0000E+00  0.0000E+00  0.0000E+00  0.0000E+00  0.0000E+00  0.0000E+00  0.0000E+00  0.0000E+00  0.0000E+00  0.0000E+00
     -3.741  0.0000E+00  0.0000E+00  0.0000E+00  0.0000E+00  0.0000E+00  0.0000E+00  0.0000E+00  0.0000E+00  0.0000E+00  0.0000E+00  0.0000E+00  0.0000E+00  0.0000E+00  0.0000E+00  0.0000E+00  0.0000E+00  0.0000E+00  0.0000E+00
     -3.652  0.0000E+00  0.0000E+00  0.0000E+00  0.0000E+00  0.0000E+00  0.0000E+00  0.0000E+00  0.0000E+00  0.0000E+00  0.0000E+00  0.0000E+00  0.0000E+00  0.0000E+00  0.0000E+00  0.0000E+00  0.0000E+00  0.0000E+00  0.0000E+00
     -3.564  0.0000E+00  0.0000E+00  0.0000E+00  0.0000E+00  0.0000E+00  0.0000E+00  0.0000E+00  0.0000E+00  0.0000E+00  0.0000E+00  0.0000E+00  0.0000E+00  0.0000E+00  0.0000E+00  0.0000E+00  0.0000E+00  0.0000E+00  0.0000E+00
     -3.475  0.0000E+00  0.0000E+00  0.0000E+00  0.0000E+00  0.0000E+00  0.0000E+00  0.0000E+00  0.0000E+00  0.0000E+00  0.0000E+00  0.0000E+00  0.0000E+00  0.0000E+00  0.0000E+00  0.0000E+00  0.0000E+00  0.0000E+00  0.0000E+00
     -3.387  0.1303E-06  0.1341E-06  0.4304E-09  0.4429E-09  0.4304E-09  0.4429E-09  0.4300E-09  0.4425E-09  0.0000E+00  0.0000E+00  0.0000E+00  0.0000E+00  0.0000E+00  0.0000E+00  0.0000E+00  0.0000E+00  0.0000E+00  0.0000E+00
     -3.299  0.9623E-06  0.1064E-05  0.5392E-08  0.6662E-08  0.5392E-08  0.6662E-08  0.5389E-08  0.6659E-08  0.0000E+00  0.0000E+00  0.0000E+00  0.0000E+00  0.0000E+00  0.0000E+00  0.0000E+00  0.0000E+00  0.0000E+00  0.0000E+00
     -3.210  0.5812E-05  0.5907E-05  0.3679E-07  0.3675E-07  0.3679E-07  0.3675E-07  0.3677E-07  0.3673E-07  0.0000E+00  0.0000E+00  0.0000E+00  0.0000E+00  0.0000E+00  0.0000E+00  0.0000E+00  0.0000E+00  0.0000E+00  0.0000E+00
     -3.122  0.3392E-04  0.3489E-04  0.2344E-06  0.2412E-06  0.2344E-06  0.2412E-06  0.2343E-06  0.2410E-06  0.0000E+00  0.0000E+00  0.0000E+00  0.0000E+00  0.0000E+00  0.0000E+00  0.0000E+00  0.0000E+00  0.0000E+00  0.0000E+00
     -3.033  0.1787E-03  0.1833E-03  0.1286E-05  0.1322E-05  0.1286E-05  0.1322E-05  0.1285E-05  0.1321E-05  0.0000E+00  0.0000E+00  0.0000E+00  0.0000E+00  0.0000E+00  0.0000E+00  0.0000E+00  0.0000E+00  0.0000E+00  0.0000E+00
     -2.945  0.7160E-03  0.7295E-03  0.6183E-05  0.6326E-05  0.6183E-05  0.6326E-05  0.6179E-05  0.6322E-05  0.0000E+00  0.0000E+00  0.0000E+00  0.0000E+00  0.0000E+00  0.0000E+00  0.0000E+00  0.0000E+00  0.0000E+00  0.0000E+00
     -2.857  0.1690E-02  0.1706E-02  0.2010E-04  0.2042E-04  0.2010E-04  0.2042E-04  0.2009E-04  0.2040E-04  0.0000E+00  0.0000E+00  0.0000E+00  0.0000E+00  0.0000E+00  0.0000E+00  0.0000E+00  0.0000E+00  0.0000E+00  0.0000E+00
     -2.768  0.2487E-02  0.2499E-02  0.4575E-04  0.4632E-04  0.4575E-04  0.4632E-04  0.4571E-04  0.4627E-04  0.0000E+00  0.0000E+00  0.0000E+00  0.0000E+00  0.0000E+00  0.0000E+00  0.0000E+00  0.0000E+00  0.0000E+00  0.0000E+00
     -2.680  0.3410E-02  0.3424E-02  0.8923E-04  0.8998E-04  0.8923E-04  0.8998E-04  0.8919E-04  0.8993E-04  0.0000E+00  0.0000E+00  0.0000E+00  0.0000E+00  0.0000E+00  0.0000E+00  0.0000E+00  0.0000E+00  0.0000E+00  0.0000E+00
     -2.591  0.3642E-02  0.3637E-02  0.1203E-03  0.1207E-03  0.1203E-03  0.1207E-03  0.1203E-03  0.1207E-03  0.0000E+00  0.0000E+00  0.0000E+00  0.0000E+00  0.0000E+00  0.0000E+00  0.0000E+00  0.0000E+00  0.0000E+00  0.0000E+00
     -2.503  0.3774E-02  0.3788E-02  0.1703E-03  0.1717E-03  0.1703E-03  0.1717E-03  0.1700E-03  0.1714E-03  0.0000E+00  0.0000E+00  0.0000E+00  0.0000E+00  0.0000E+00  0.0000E+00  0.0000E+00  0.0000E+00  0.0000E+00  0.0000E+00
     -2.415  0.4767E-02  0.4775E-02  0.2612E-03  0.2623E-03  0.2612E-03  0.2623E-03  0.2610E-03  0.2620E-03  0.0000E+00  0.0000E+00  0.0000E+00  0.0000E+00  0.0000E+00  0.0000E+00  0.0000E+00  0.0000E+00  0.0000E+00  0.0000E+00
     -2.326  0.4650E-02  0.4645E-02  0.2973E-03  0.2977E-03  0.2973E-03  0.2977E-03  0.2973E-03  0.2977E-03  0.0000E+00  0.0000E+00  0.0000E+00  0.0000E+00  0.0000E+00  0.0000E+00  0.0000E+00  0.0000E+00  0.0000E+00  0.0000E+00
     -2.238  0.4769E-02  0.4778E-02  0.3608E-03  0.3623E-03  0.3608E-03  0.3623E-03  0.3605E-03  0.3620E-03  0.0000E+00  0.0000E+00  0.0000E+00  0.0000E+00  0.0000E+00  0.0000E+00  0.0000E+00  0.0000E+00  0.0000E+00  0.0000E+00
     -2.150  0.4860E-02  0.4851E-02  0.4238E-03  0.4242E-03  0.4238E-03  0.4242E-03  0.4232E-03  0.4235E-03  0.0000E+00  0.0000E+00  0.0000E+00  0.0000E+00  0.0000E+00  0.0000E+00  0.0000E+00  0.0000E+00  0.0000E+00  0.0000E+00
     -2.061  0.4736E-02  0.4751E-02  0.5064E-03  0.5091E-03  0.5064E-03  0.5091E-03  0.5052E-03  0.5080E-03  0.0000E+00  0.0000E+00  0.0000E+00  0.0000E+00  0.0000E+00  0.0000E+00  0.0000E+00  0.0000E+00  0.0000E+00  0.0000E+00
     -1.973  0.5693E-02  0.5702E-02  0.6800E-03  0.6815E-03  0.6800E-03  0.6815E-03  0.6797E-03  0.6813E-03  0.0000E+00  0.0000E+00  0.0000E+00  0.0000E+00  0.0000E+00  0.0000E+00  0.0000E+00  0.0000E+00  0.0000E+00  0.0000E+00
     -1.884  0.5658E-02  0.5657E-02  0.7410E-03  0.7418E-03  0.7410E-03  0.7418E-03  0.7407E-03  0.7415E-03  0.0000E+00  0.0000E+00  0.0000E+00  0.0000E+00  0.0000E+00  0.0000E+00  0.0000E+00  0.0000E+00  0.0000E+00  0.0000E+00
     -1.796  0.5238E-02  0.5226E-02  0.7608E-03  0.7603E-03  0.7608E-03  0.7603E-03  0.7608E-03  0.7603E-03  0.0000E+00  0.0000E+00  0.0000E+00  0.0000E+00  0.0000E+00  0.0000E+00  0.0000E+00  0.0000E+00  0.0000E+00  0.0000E+00
     -1.708  0.4447E-02  0.4443E-02  0.7535E-03  0.7556E-03  0.7535E-03  0.7556E-03  0.7515E-03  0.7535E-03  0.0000E+00  0.0000E+00  0.0000E+00  0.0000E+00  0.0000E+00  0.0000E+00  0.0000E+00  0.0000E+00  0.0000E+00  0.0000E+00
     -1.619  0.5180E-02  0.5203E-02  0.1080E-02  0.1087E-02  0.1080E-02  0.1087E-02  0.1076E-02  0.1083E-02  0.0000E+00  0.0000E+00  0.0000E+00  0.0000E+00  0.0000E+00  0.0000E+00  0.0000E+00  0.0000E+00  0.0000E+00  0.0000E+00
     -1.531  0.5926E-02  0.5923E-02  0.1347E-02  0.1348E-02  0.1347E-02  0.1348E-02  0.1347E-02  0.1348E-02  0.0000E+00  0.0000E+00  0.0000E+00  0.0000E+00  0.0000E+00  0.0000E+00  0.0000E+00  0.0000E+00  0.0000E+00  0.0000E+00
     -1.442  0.5300E-02  0.5296E-02  0.1338E-02  0.1340E-02  0.1338E-02  0.1340E-02  0.1337E-02  0.1339E-02  0.0000E+00  0.0000E+00  0.0000E+00  0.0000E+00  0.0000E+00  0.0000E+00  0.0000E+00  0.0000E+00  0.0000E+00  0.0000E+00
     -1.354  0.5100E-02  0.5086E-02  0.1470E-02  0.1470E-02  0.1470E-02  0.1470E-02  0.1468E-02  0.1468E-02  0.0000E+00  0.0000E+00  0.0000E+00  0.0000E+00  0.0000E+00  0.0000E+00  0.0000E+00  0.0000E+00  0.0000E+00  0.0000E+00
     -1.266  0.3853E-02  0.3843E-02  0.1486E-02  0.1492E-02  0.1486E-02  0.1492E-02  0.1479E-02  0.1485E-02  0.0000E+00  0.0000E+00  0.0000E+00  0.0000E+00  0.0000E+00  0.0000E+00  0.0000E+00  0.0000E+00  0.0000E+00  0.0000E+00
     -1.177  0.4478E-02  0.4498E-02  0.2115E-02  0.2125E-02  0.2115E-02  0.2125E-02  0.2108E-02  0.2119E-02  0.0000E+00  0.0000E+00  0.0000E+00  0.0000E+00  0.0000E+00  0.0000E+00  0.0000E+00  0.0000E+00  0.0000E+00  0.0000E+00
     -1.089  0.5038E-02  0.5029E-02  0.2423E-02  0.2423E-02  0.2423E-02  0.2423E-02  0.2423E-02  0.2423E-02  0.0000E+00  0.0000E+00  0.0000E+00  0.0000E+00  0.0000E+00  0.0000E+00  0.0000E+00  0.0000E+00  0.0000E+00  0.0000E+00
     -1.000  0.4043E-02  0.4021E-02  0.2316E-02  0.2312E-02  0.2316E-02  0.2312E-02  0.2316E-02  0.2314E-02  0.0000E+00  0.0000E+00  0.0000E+00  0.0000E+00  0.0000E+00  0.0000E+00  0.0000E+00  0.0000E+00  0.0000E+00  0.0000E+00
     -0.912  0.3110E-02  0.3094E-02  0.1940E-02  0.1931E-02  0.1940E-02  0.1931E-02  0.1949E-02  0.1940E-02  0.0000E+00  0.0000E+00  0.0000E+00  0.0000E+00  0.0000E+00  0.0000E+00  0.0000E+00  0.0000E+00  0.0000E+00  0.0000E+00
     -0.824  0.2447E-02  0.2448E-02  0.1667E-02  0.1672E-02  0.1667E-02  0.1672E-02  0.1664E-02  0.1669E-02  0.0000E+00  0.0000E+00  0.0000E+00  0.0000E+00  0.0000E+00  0.0000E+00  0.0000E+00  0.0000E+00  0.0000E+00  0.0000E+00
     -0.735  0.3364E-02  0.3381E-02  0.2386E-02  0.2397E-02  0.2386E-02  0.2397E-02  0.2380E-02  0.2391E-02  0.0000E+00  0.0000E+00  0.0000E+00  0.0000E+00  0.0000E+00  0.0000E+00  0.0000E+00  0.0000E+00  0.0000E+00  0.0000E+00
     -0.647  0.3513E-02  0.3498E-02  0.2449E-02  0.2439E-02  0.2449E-02  0.2439E-02  0.2457E-02  0.2447E-02  0.0000E+00  0.0000E+00  0.0000E+00  0.0000E+00  0.0000E+00  0.0000E+00  0.0000E+00  0.0000E+00  0.0000E+00  0.0000E+00
     -0.558  0.2542E-02  0.2529E-02  0.1859E-02  0.1855E-02  0.1859E-02  0.1855E-02  0.1862E-02  0.1858E-02  0.0000E+00  0.0000E+00  0.0000E+00  0.0000E+00  0.0000E+00  0.0000E+00  0.0000E+00  0.0000E+00  0.0000E+00  0.0000E+00
     -0.470  0.1772E-02  0.1757E-02  0.1550E-02  0.1542E-02  0.1550E-02  0.1542E-02  0.1554E-02  0.1546E-02  0.0000E+00  0.0000E+00  0.0000E+00  0.0000E+00  0.0000E+00  0.0000E+00  0.0000E+00  0.0000E+00  0.0000E+00  0.0000E+00
     -0.382  0.1283E-02  0.1286E-02  0.1302E-02  0.1308E-02  0.1302E-02  0.1308E-02  0.1300E-02  0.1305E-02  0.0000E+00  0.0000E+00  0.0000E+00  0.0000E+00  0.0000E+00  0.0000E+00  0.0000E+00  0.0000E+00  0.0000E+00  0.0000E+00
     -0.293  0.2134E-02  0.2150E-02  0.2114E-02  0.2128E-02  0.2114E-02  0.2128E-02  0.2107E-02  0.2121E-02  0.0000E+00  0.0000E+00  0.0000E+00  0.0000E+00  0.0000E+00  0.0000E+00  0.0000E+00  0.0000E+00  0.0000E+00  0.0000E+00
     -0.205  0.2364E-02  0.2351E-02  0.2313E-02  0.2303E-02  0.2313E-02  0.2303E-02  0.2318E-02  0.2308E-02  0.0000E+00  0.0000E+00  0.0000E+00  0.0000E+00  0.0000E+00  0.0000E+00  0.0000E+00  0.0000E+00  0.0000E+00  0.0000E+00
     -0.116  0.1427E-02  0.1415E-02  0.1637E-02  0.1628E-02  0.1637E-02  0.1628E-02  0.1641E-02  0.1633E-02  0.0000E+00  0.0000E+00  0.0000E+00  0.0000E+00  0.0000E+00  0.0000E+00  0.0000E+00  0.0000E+00  0.0000E+00  0.0000E+00
     -0.028  0.9332E-03  0.9260E-03  0.1111E-02  0.1102E-02  0.1111E-02  0.1102E-02  0.1118E-02  0.1109E-02  0.0000E+00  0.0000E+00  0.0000E+00  0.0000E+00  0.0000E+00  0.0000E+00  0.0000E+00  0.0000E+00  0.0000E+00  0.0000E+00
      0.060  0.7107E-03  0.7129E-03  0.8170E-03  0.8209E-03  0.8170E-03  0.8209E-03  0.8159E-03  0.8196E-03  0.0000E+00  0.0000E+00  0.0000E+00  0.0000E+00  0.0000E+00  0.0000E+00  0.0000E+00  0.0000E+00  0.0000E+00  0.0000E+00
      0.149  0.1204E-02  0.1214E-02  0.1588E-02  0.1605E-02  0.1588E-02  0.1605E-02  0.1578E-02  0.1595E-02  0.0000E+00  0.0000E+00  0.0000E+00  0.0000E+00  0.0000E+00  0.0000E+00  0.0000E+00  0.0000E+00  0.0000E+00  0.0000E+00
      0.237  0.1489E-02  0.1486E-02  0.2070E-02  0.2064E-02  0.2070E-02  0.2064E-02  0.2073E-02  0.2067E-02  0.0000E+00  0.0000E+00  0.0000E+00  0.0000E+00  0.0000E+00  0.0000E+00  0.0000E+00  0.0000E+00  0.0000E+00  0.0000E+00