   8   8   1   0
  0.1858893E+02  0.4112693E-09  0.4112693E-09  0.8792086E-09  0.5000000E-15
  1.000000000000000E-004
  CAR 
 unknown system                          
     12.85064031     -4.33304140  301      6.00745082      1.00000000
     -4.333  0.0000E+00  0.0000E+00  0.0000E+00  0.0000E+00
     -4.276  0.0000E+00  0.0000E+00  0.0000E+00  0.0000E+00
     -4.218  0.0000E+00  0.0000E+00  0.0000E+00  0.0000E+00
     -4.161  0.0000E+00  0.0000E+00  0.0000E+00  0.0000E+00
     -4.104  0.0000E+00  0.0000E+00  0.0000E+00  0.0000E+00
     -4.047  0.0000E+00  0.0000E+00  0.0000E+00  0.0000E+00
     -3.989  0.0000E+00  0.2343E-05  0.0000E+00  0.1342E-06
     -3.932  0.1824E-05  0.2231E-04  0.1045E-06  0.1412E-05
     -3.875  0.1722E-04  0.9506E-04  0.1091E-05  0.6857E-05
     -3.818  0.7297E-04  0.2972E-03  0.5271E-05  0.2388E-04
     -3.760  0.2278E-03  0.9474E-03  0.1832E-04  0.7815E-04
     -3.703  0.7158E-03  0.2971E-02  0.5932E-04  0.2484E-03
     -3.646  0.2270E-02  0.8842E-02  0.1893E-03  0.7548E-03
     -3.588  0.6873E-02  0.2454E-01  0.5830E-03  0.2161E-02
     -3.531  0.1947E-01  0.5782E-01  0.1698E-02  0.5472E-02
     -3.474  0.4797E-01  0.1071E+00  0.4446E-02  0.1161E-01
     -3.417  0.9403E-01  0.1562E+00  0.9832E-02  0.2056E-01
     -3.359  0.1436E+00  0.2009E+00  0.1805E-01  0.3207E-01
     -3.302  0.1870E+00  0.2489E+00  0.2877E-01  0.4632E-01
     -3.245  0.2342E+00  0.2793E+00  0.4218E-01  0.6232E-01
     -3.187  0.2708E+00  0.2943E+00  0.5769E-01  0.7918E-01
     -3.130  0.2846E+00  0.3246E+00  0.7399E-01  0.9778E-01
     -3.073  0.3099E+00  0.3547E+00  0.9174E-01  0.1181E+00
     -3.016  0.3429E+00  0.3849E+00  0.1114E+00  0.1401E+00
     -2.958  0.3690E+00  0.4191E+00  0.1325E+00  0.1642E+00
     -2.901  0.4023E+00  0.4341E+00  0.1556E+00  0.1890E+00
     -2.844  0.4247E+00  0.4301E+00  0.1799E+00  0.2137E+00
     -2.787  0.4278E+00  0.4267E+00  0.2044E+00  0.2381E+00
     -2.729  0.4180E+00  0.4707E+00  0.2284E+00  0.2651E+00
     -2.672  0.4401E+00  0.5235E+00  0.2536E+00  0.2951E+00
     -2.615  0.5011E+00  0.5354E+00  0.2823E+00  0.3258E+00
     -2.557  0.5247E+00  0.5630E+00  0.3124E+00  0.3580E+00
     -2.500  0.5349E+00  0.5926E+00  0.3430E+00  0.3920E+00
     -2.443  0.5741E+00  0.5699E+00  0.3759E+00  0.4247E+00
     -2.386  0.5746E+00  0.5449E+00  0.4089E+00  0.4559E+00
     -2.328  0.5407E+00  0.5527E+00  0.4398E+00  0.4876E+00
     -2.271  0.5360E+00  0.6029E+00  0.4706E+00  0.5221E+00
     -2.214  0.5607E+00  0.6871E+00  0.5027E+00  0.5615E+00
     -2.156  0.6210E+00  0.7468E+00  0.5383E+00  0.6043E+00
     -2.099  0.6939E+00  0.7637E+00  0.5781E+00  0.6481E+00
     -2.042  0.7378E+00  0.7449E+00  0.6203E+00  0.6907E+00
     -1.985  0.7351E+00  0.7174E+00  0.6625E+00  0.7318E+00
     -1.927  0.7046E+00  0.7111E+00  0.7028E+00  0.7726E+00
     -1.870  0.7034E+00  0.6985E+00  0.7432E+00  0.8126E+00
     -1.813  0.6976E+00  0.7162E+00  0.7831E+00  0.8537E+00
     -1.755  0.6712E+00  0.7751E+00  0.8216E+00  0.8981E+00
     -1.698  0.7191E+00  0.8212E+00  0.8628E+00  0.9452E+00
     -1.641  0.8021E+00  0.8269E+00  0.9088E+00  0.9926E+00
     -1.584  0.8288E+00  0.7790E+00  0.9563E+00  0.1037E+01
     -1.526  0.7973E+00  0.7606E+00  0.1002E+01  0.1081E+01
     -1.469  0.7601E+00  0.8037E+00  0.1046E+01  0.1127E+01
     -1.412  0.7680E+00  0.8458E+00  0.1090E+01  0.1175E+01
     -1.355  0.7984E+00  0.8366E+00  0.1135E+01  0.1223E+01
     -1.297  0.8350E+00  0.8019E+00  0.1183E+01  0.1269E+01
     -1.240  0.8325E+00  0.7967E+00  0.1231E+01  0.1315E+01
     -1.183  0.7948E+00  0.7930E+00  0.1276E+01  0.1360E+01
     -1.125  0.7901E+00  0.8200E+00  0.1322E+01  0.1407E+01
     -1.068  0.7920E+00  0.9010E+00  0.1367E+01  0.1459E+01
     -1.011  0.8189E+00  0.9340E+00  0.1414E+01  0.1513E+01
     -0.954  0.9334E+00  0.9083E+00  0.1468E+01  0.1565E+01
     -0.896  0.1014E+01  0.8504E+00  0.1526E+01  0.1613E+01
     -0.839  0.9785E+00  0.7505E+00  0.1582E+01  0.1656E+01
     -0.782  0.8877E+00  0.6901E+00  0.1633E+01  0.1696E+01
     -0.724  0.7944E+00  0.7300E+00  0.1678E+01  0.1738E+01
     -0.667  0.7670E+00  0.8209E+00  0.1722E+01  0.1785E+01
     -0.610  0.8344E+00  0.8497E+00  0.1770E+01  0.1833E+01
     -0.553  0.9145E+00  0.8650E+00  0.1822E+01  0.1883E+01
     -0.495  0.9068E+00  0.9452E+00  0.1874E+01  0.1937E+01
     -0.438  0.9215E+00  0.1085E+01  0.1927E+01  0.1999E+01
     -0.381  0.1015E+01  0.1180E+01  0.1985E+01  0.2067E+01
     -0.324  0.1100E+01  0.1130E+01  0.2048E+01  0.2132E+01
     -0.266  0.1141E+01  0.1080E+01  0.2114E+01  0.2194E+01
     -0.209  0.1139E+01  0.1074E+01  0.2179E+01  0.2255E+01
     -0.152  0.1143E+01  0.1048E+01  0.2245E+01  0.2315E+01
     -0.094  0.1098E+01  0.1034E+01  0.2307E+01  0.2375E+01
     -0.037  0.1023E+01  0.1056E+01  0.2366E+01  0.2435E+01
      0.020  0.1025E+01  0.1093E+01  0.2425E+01  0.2498E+01
      0.077  0.1106E+01  0.1071E+01  0.2488E+01  0.2559E+01
      0.135  0.1120E+01  0.1024E+01  0.2552E+01  0.2618E+01
      0.192  0.1054E+01  0.1004E+01  0.2613E+01  0.2675E+01
      0.249  0.1014E+01  0.9770E+00  0.2671E+01  0.2731E+01
      0.307  0.9982E+00  0.9776E+00  0.2728E+01  0.2787E+01
      0.364  0.1025E+01  0.9581E+00  0.2787E+01  0.2842E+01
      0.421  0.1050E+01  0.8661E+00  0.2847E+01  0.2892E+01
      0.478  0.9656E+00  0.7944E+00  0.2902E+01  0.2937E+01
      0.536  0.8858E+00  0.8534E+00  0.2953E+01  0.2986E+01
      0.593  0.9590E+00  0.9665E+00  0.3008E+01  0.3042E+01
      0.650  0.1069E+01  0.9902E+00  0.3069E+01  0.3099E+01
      0.708  0.1074E+01  0.9984E+00  0.3131E+01  0.3156E+01
      0.765  0.1065E+01  0.9973E+00  0.3192E+01  0.3213E+01
      0.822  0.1085E+01  0.9554E+00  0.3254E+01  0.3268E+01
      0.879  0.1086E+01  0.9838E+00  0.3317E+01  0.3324E+01
      0.937  0.1100E+01  0.1110E+01  0.3380E+01  0.3388E+01
      0.994  0.1222E+01  0.1220E+01  0.3450E+01  0.3458E+01
      1.051  0.1402E+01  0.1230E+01  0.3530E+01  0.3528E+01
      1.108  0.1460E+01  0.1280E+01  0.3614E+01  0.3601E+01
      1.166  0.1434E+01  0.1381E+01  0.3696E+01  0.3681E+01
      1.223  0.1430E+01  0.1448E+01  0.3778E+01  0.3763E+01
      1.280  0.1419E+01  0.1465E+01  0.3859E+01  0.3847E+01
      1.338  0.1352E+01  0.1392E+01  0.3937E+01  0.3927E+01
      1.395  0.1307E+01  0.1242E+01  0.4011E+01  0.3998E+01
      1.452  0.1262E+01  0.1099E+01  0.4084E+01  0.4061E+01
      1.509  0.1216E+01  0.1025E+01  0.4154E+01  0.4120E+01
      1.567  0.1250E+01  0.1029E+01  0.4225E+01  0.4179E+01
      1.624  0.1368E+01  0.1118E+01  0.4304E+01  0.4243E+01
      1.681  0.1502E+01  0.1286E+01  0.4390E+01  0.4317E+01
      1.739  0.1528E+01  0.1431E+01  0.4477E+01  0.4399E+01
      1.796  0.1425E+01  0.1434E+01  0.4559E+01  0.4481E+01
      1.853  0.1317E+01  0.1331E+01  0.4634E+01  0.4558E+01
      1.910  0.1302E+01  0.1238E+01  0.4709E+01  0.4628E+01
      1.968  0.1306E+01  0.1193E+01  0.4784E+01  0.4697E+01
      2.025  0.1293E+01  0.1168E+01  0.4858E+01  0.4764E+01
      2.082  0.1347E+01  0.1124E+01  0.4935E+01  0.4828E+01
      2.139  0.1398E+01  0.1078E+01  0.5015E+01  0.4890E+01
      2.197  0.1394E+01  0.1088E+01  0.5095E+01  0.4952E+01
      2.254  0.1385E+01  0.1142E+01  0.5175E+01  0.5018E+01
      2.311  0.1417E+01  0.1233E+01  0.5256E+01  0.5089E+01
      2.369  0.1437E+01  0.1308E+01  0.5338E+01  0.5163E+01
      2.426  0.1430E+01  0.1310E+01  0.5420E+01  0.5239E+01
      2.483  0.1447E+01  0.1332E+01  0.5503E+01  0.5315E+01
      2.540  0.1528E+01  0.1406E+01  0.5591E+01  0.5395E+01
      2.598  0.1676E+01  0.1427E+01  0.5687E+01  0.5477E+01
      2.655  0.1808E+01  0.1372E+01  0.5790E+01  0.5556E+01
      2.712  0.1777E+01  0.1369E+01  0.5892E+01  0.5634E+01
      2.770  0.1598E+01  0.1438E+01  0.5984E+01  0.5717E+01
      2.827  0.1449E+01  0.1514E+01  0.6067E+01  0.5804E+01
      2.884  0.1470E+01  0.1583E+01  0.6151E+01  0.5894E+01
      2.941  0.1721E+01  0.1603E+01  0.6250E+01  0.5986E+01
      2.999  0.2072E+01  0.1538E+01  0.6368E+01  0.6074E+01
      3.056  0.2297E+01  0.1462E+01  0.6500E+01  0.6158E+01
      3.113  0.2332E+01  0.1470E+01  0.6634E+01  0.6242E+01
      3.170  0.2261E+01  0.1536E+01  0.6763E+01  0.6330E+01
      3.228  0.2276E+01  0.1585E+01  0.6894E+01  0.6421E+01
      3.285  0.2428E+01  0.1549E+01  0.7033E+01  0.6510E+01
      3.342  0.2445E+01  0.1495E+01  0.7173E+01  0.6596E+01
      3.400  0.2258E+01  0.1592E+01  0.7302E+01  0.6687E+01
      3.457  0.2094E+01  0.1714E+01  0.7422E+01  0.6785E+01
      3.514  0.2065E+01  0.1716E+01  0.7541E+01  0.6883E+01
      3.571  0.2265E+01  0.1732E+01  0.7671E+01  0.6983E+01
      3.629  0.2702E+01  0.1832E+01  0.7825E+01  0.7088E+01
      3.686  0.3223E+01  0.1857E+01  0.8010E+01  0.7194E+01
      3.743  0.3648E+01  0.1668E+01  0.8219E+01  0.7290E+01
      3.801  0.3967E+01  0.1464E+01  0.8446E+01  0.7374E+01
      3.858  0.4265E+01  0.1488E+01  0.8691E+01  0.7459E+01
      3.915  0.4660E+01  0.1678E+01  0.8958E+01  0.7555E+01
      3.972  0.5239E+01  0.1832E+01  0.9258E+01  0.7660E+01
      4.030  0.5689E+01  0.1888E+01  0.9584E+01  0.7768E+01
      4.087  0.5726E+01  0.1882E+01  0.9912E+01  0.7876E+01
      4.144  0.5648E+01  0.1929E+01  0.1024E+02  0.7987E+01
      4.202  0.5600E+01  0.2049E+01  0.1056E+02  0.8104E+01
      4.259  0.5675E+01  0.2146E+01  0.1088E+02  0.8227E+01
      4.316  0.6189E+01  0.2159E+01  0.1124E+02  0.8351E+01
      4.373  0.6974E+01  0.2113E+01  0.1164E+02  0.8472E+01
      4.431  0.7370E+01  0.2071E+01  0.1206E+02  0.8591E+01
      4.488  0.7191E+01  0.2080E+01  0.1247E+02  0.8710E+01
      4.545  0.6747E+01  0.2144E+01  0.1286E+02  0.8833E+01
      4.602  0.6073E+01  0.2207E+01  0.1321E+02  0.8959E+01
      4.660  0.5187E+01  0.2227E+01  0.1350E+02  0.9087E+01
      4.717  0.4078E+01  0.2302E+01  0.1374E+02  0.9219E+01
      4.774  0.2822E+01  0.2519E+01  0.1390E+02  0.9363E+01
      4.832  0.1894E+01  0.2726E+01  0.1401E+02  0.9520E+01
      4.889  0.1904E+01  0.2823E+01  0.1412E+02  0.9681E+01
      4.946  0.3114E+01  0.2763E+01  0.1430E+02  0.9840E+01
      5.003  0.5156E+01  0.2564E+01  0.1459E+02  0.9987E+01
      5.061  0.6506E+01  0.2335E+01  0.1496E+02  0.1012E+02
      5.118  0.6056E+01  0.2280E+01  0.1531E+02  0.1025E+02
      5.175  0.4880E+01  0.2438E+01  0.1559E+02  0.1039E+02
      5.233  0.3994E+01  0.2664E+01  0.1582E+02  0.1054E+02
      5.290  0.3468E+01  0.2883E+01  0.1602E+02  0.1071E+02
      5.347  0.3114E+01  0.2953E+01  0.1620E+02  0.1088E+02
      5.404  0.2798E+01  0.2765E+01  0.1636E+02  0.1104E+02
      5.462  0.2448E+01  0.2416E+01  0.1650E+02  0.1117E+02
      5.519  0.2119E+01  0.2125E+01  0.1662E+02  0.1130E+02
      5.576  0.1861E+01  0.2105E+01  0.1673E+02  0.1142E+02
      5.633  0.1676E+01  0.2276E+01  0.1682E+02  0.1155E+02
      5.691  0.1573E+01  0.2359E+01  0.1691E+02  0.1168E+02
      5.748  0.1600E+01  0.2388E+01  0.1700E+02  0.1182E+02
      5.805  0.1755E+01  0.2490E+01  0.1710E+02  0.1196E+02
      5.863  0.1875E+01  0.2691E+01  0.1721E+02  0.1212E+02
      5.920  0.1812E+01  0.2822E+01  0.1732E+02  0.1228E+02
      5.977  0.1769E+01  0.2827E+01  0.1742E+02  0.1244E+02
      6.034  0.2005E+01  0.2783E+01  0.1753E+02  0.1260E+02
      6.092  0.2590E+01  0.2715E+01  0.1768E+02  0.1276E+02
      6.149  0.3413E+01  0.2619E+01  0.1788E+02  0.1291E+02
      6.206  0.4032E+01  0.2469E+01  0.1811E+02  0.1305E+02
      6.264  0.4114E+01  0.2247E+01  0.1834E+02  0.1318E+02
      6.321  0.3843E+01  0.2028E+01  0.1856E+02  0.1329E+02
      6.378  0.3490E+01  0.1844E+01  0.1876E+02  0.1340E+02
      6.435  0.3108E+01  0.1738E+01  0.1894E+02  0.1350E+02
      6.493  0.2593E+01  0.1731E+01  0.1909E+02  0.1360E+02
      6.550  0.2178E+01  0.1688E+01  0.1921E+02  0.1369E+02
      6.607  0.2136E+01  0.1637E+01  0.1934E+02  0.1379E+02
      6.665  0.2391E+01  0.1639E+01  0.1947E+02  0.1388E+02
      6.722  0.2582E+01  0.1668E+01  0.1962E+02  0.1398E+02
      6.779  0.2430E+01  0.1664E+01  0.1976E+02  0.1407E+02
      6.836  0.2082E+01  0.1603E+01  0.1988E+02  0.1416E+02
      6.894  0.1793E+01  0.1627E+01  0.1998E+02  0.1426E+02
      6.951  0.1641E+01  0.1775E+01  0.2008E+02  0.1436E+02
      7.008  0.1695E+01  0.1959E+01  0.2017E+02  0.1447E+02
      7.065  0.2006E+01  0.2298E+01  0.2029E+02  0.1460E+02
      7.123  0.2312E+01  0.2914E+01  0.2042E+02  0.1477E+02
      7.180  0.2392E+01  0.3823E+01  0.2056E+02  0.1499E+02
      7.237  0.2321E+01  0.4872E+01  0.2069E+02  0.1527E+02
      7.295  0.2203E+01  0.5787E+01  0.2082E+02  0.1560E+02
      7.352  0.2114E+01  0.6106E+01  0.2094E+02  0.1595E+02
      7.409  0.2079E+01  0.5830E+01  0.2106E+02  0.1628E+02
      7.466  0.2057E+01  0.5576E+01  0.2118E+02  0.1660E+02
      7.524  0.2048E+01  0.5634E+01  0.2129E+02  0.1693E+02
      7.581  0.2033E+01  0.5953E+01  0.2141E+02  0.1727E+02
      7.638  0.2062E+01  0.6330E+01  0.2153E+02  0.1763E+02
      7.696  0.2172E+01  0.6300E+01  0.2165E+02  0.1799E+02
      7.753  0.2278E+01  0.6053E+01  0.2178E+02  0.1834E+02
      7.810  0.2380E+01  0.5855E+01  0.2192E+02  0.1867E+02
      7.867  0.2466E+01  0.5437E+01  0.2206E+02  0.1899E+02
      7.925  0.2500E+01  0.4775E+01  0.2220E+02  0.1926E+02
      7.982  0.2512E+01  0.4331E+01  0.2235E+02  0.1951E+02
      8.039  0.2399E+01  0.4197E+01  0.2249E+02  0.1975E+02
      8.096  0.2079E+01  0.4051E+01  0.2261E+02  0.1998E+02
      8.154  0.1734E+01  0.3826E+01  0.2270E+02  0.2020E+02
      8.211  0.1651E+01  0.3647E+01  0.2280E+02  0.2041E+02
      8.268  0.1842E+01  0.3637E+01  0.2291E+02  0.2062E+02
      8.326  0.2076E+01  0.3740E+01  0.2302E+02  0.2083E+02
      8.383  0.2127E+01  0.3705E+01  0.2315E+02  0.2104E+02
      8.440  0.2083E+01  0.3537E+01  0.2327E+02  0.2125E+02
      8.497  0.2109E+01  0.3366E+01  0.2339E+02  0.2144E+02
      8.555  0.2196E+01  0.3217E+01  0.2351E+02  0.2162E+02
      8.612  0.2293E+01  0.3146E+01  0.2364E+02  0.2180E+02
      8.669  0.2282E+01  0.3158E+01  0.2377E+02  0.2199E+02
      8.727  0.2127E+01  0.3254E+01  0.2390E+02  0.2217E+02
      8.784  0.1928E+01  0.3406E+01  0.2401E+02  0.2237E+02
      8.841  0.1836E+01  0.3522E+01  0.2411E+02  0.2257E+02
      8.898  0.1956E+01  0.3562E+01  0.2422E+02  0.2277E+02
      8.956  0.2097E+01  0.3438E+01  0.2434E+02  0.2297E+02
      9.013  0.1970E+01  0.3201E+01  0.2446E+02  0.2315E+02
      9.070  0.1764E+01  0.3090E+01  0.2456E+02  0.2333E+02
      9.128  0.1754E+01  0.3193E+01  0.2466E+02  0.2351E+02
      9.185  0.1926E+01  0.3241E+01  0.2477E+02  0.2370E+02
      9.242  0.2101E+01  0.3146E+01  0.2489E+02  0.2388E+02
      9.299  0.2139E+01  0.2987E+01  0.2501E+02  0.2405E+02
      9.357  0.2013E+01  0.2837E+01  0.2513E+02  0.2421E+02
      9.414  0.1808E+01  0.2659E+01  0.2523E+02  0.2437E+02
      9.471  0.1675E+01  0.2433E+01  0.2533E+02  0.2451E+02
      9.528  0.1691E+01  0.2282E+01  0.2542E+02  0.2464E+02
      9.586  0.1752E+01  0.2174E+01  0.2552E+02  0.2476E+02
      9.643  0.1773E+01  0.2075E+01  0.2563E+02  0.2488E+02
      9.700  0.1775E+01  0.2073E+01  0.2573E+02  0.2500E+02
      9.758  0.1818E+01  0.2118E+01  0.2583E+02  0.2512E+02
      9.815  0.1939E+01  0.2158E+01  0.2594E+02  0.2524E+02
      9.872  0.2039E+01  0.2129E+01  0.2606E+02  0.2537E+02
      9.929  0.2006E+01  0.2002E+01  0.2618E+02  0.2548E+02
      9.987  0.1881E+01  0.1877E+01  0.2628E+02  0.2559E+02
     10.044  0.1724E+01  0.1891E+01  0.2638E+02  0.2570E+02
     10.101  0.1648E+01  0.1924E+01  0.2648E+02  0.2581E+02
     10.159  0.1718E+01  0.1866E+01  0.2657E+02  0.2591E+02
     10.216  0.1913E+01  0.1878E+01  0.2668E+02  0.2602E+02
     10.273  0.2176E+01  0.1998E+01  0.2681E+02  0.2614E+02
     10.330  0.2436E+01  0.2225E+01  0.2695E+02  0.2626E+02
     10.388  0.2572E+01  0.2525E+01  0.2710E+02  0.2641E+02
     10.445  0.2411E+01  0.2607E+01  0.2723E+02  0.2656E+02
     10.502  0.1989E+01  0.2361E+01  0.2735E+02  0.2669E+02
     10.559  0.1495E+01  0.2176E+01  0.2743E+02  0.2682E+02
     10.617  0.1142E+01  0.2272E+01  0.2750E+02  0.2695E+02
     10.674  0.9529E+00  0.2353E+01  0.2755E+02  0.2708E+02
     10.731  0.8120E+00  0.2293E+01  0.2760E+02  0.2721E+02
     10.789  0.7064E+00  0.2154E+01  0.2764E+02  0.2734E+02
     10.846  0.6859E+00  0.1849E+01  0.2768E+02  0.2744E+02
     10.903  0.7437E+00  0.1513E+01  0.2772E+02  0.2753E+02
     10.960  0.7542E+00  0.1259E+01  0.2777E+02  0.2760E+02
     11.018  0.6535E+00  0.1023E+01  0.2780E+02  0.2766E+02
     11.075  0.5571E+00  0.8228E+00  0.2784E+02  0.2771E+02
     11.132  0.4670E+00  0.7131E+00  0.2786E+02  0.2775E+02
     11.190  0.3637E+00  0.6471E+00  0.2788E+02  0.2779E+02
     11.247  0.3057E+00  0.6063E+00  0.2790E+02  0.2782E+02
     11.304  0.2682E+00  0.5694E+00  0.2792E+02  0.2785E+02
     11.361  0.2287E+00  0.5405E+00  0.2793E+02  0.2789E+02
     11.419  0.2115E+00  0.4853E+00  0.2794E+02  0.2791E+02
     11.476  0.1869E+00  0.3653E+00  0.2795E+02  0.2793E+02
     11.533  0.1332E+00  0.2418E+00  0.2796E+02  0.2795E+02
     11.591  0.8560E-01  0.1494E+00  0.2797E+02  0.2796E+02
     11.648  0.7382E-01  0.9474E-01  0.2797E+02  0.2796E+02
     11.705  0.9540E-01  0.7372E-01  0.2797E+02  0.2797E+02
     11.762  0.1038E+00  0.8000E-01  0.2798E+02  0.2797E+02
     11.820  0.7947E-01  0.1046E+00  0.2799E+02  0.2798E+02
     11.877  0.6123E-01  0.1027E+00  0.2799E+02  0.2798E+02
     11.934  0.5708E-01  0.7603E-01  0.2799E+02  0.2799E+02
     11.991  0.5278E-01  0.6542E-01  0.2800E+02  0.2799E+02
     12.049  0.4236E-01  0.6330E-01  0.2800E+02  0.2799E+02
     12.106  0.2411E-01  0.5152E-01  0.2800E+02  0.2800E+02
     12.163  0.9910E-02  0.3001E-01  0.2800E+02  0.2800E+02
     12.221  0.3477E-02  0.1256E-01  0.2800E+02  0.2800E+02
     12.278  0.1143E-02  0.4422E-02  0.2800E+02  0.2800E+02
     12.335  0.3318E-03  0.1459E-02  0.2800E+02  0.2800E+02
     12.392  0.1059E-03  0.3948E-03  0.2800E+02  0.2800E+02
     12.450  0.0000E+00  0.1261E-03  0.2800E+02  0.2800E+02
     12.507  0.0000E+00  0.0000E+00  0.2800E+02  0.2800E+02
     12.564  0.0000E+00  0.0000E+00  0.2800E+02  0.2800E+02
     12.622  0.0000E+00  0.0000E+00  0.2800E+02  0.2800E+02
     12.679  0.0000E+00  0.0000E+00  0.2800E+02  0.2800E+02
     12.736  0.0000E+00  0.0000E+00  0.2800E+02  0.2800E+02
     12.793  0.0000E+00  0.0000E+00  0.2800E+02  0.2800E+02
     12.851  0.0000E+00  0.0000E+00  0.2800E+02  0.2800E+02
     12.85064031     -4.33304140  301      6.00745082      1.00000000
     -4.333  0.0000E+00  0.0000E+00  0.0000E+00  0.0000E+00  0.0000E+00  0.0000E+00  0.0000E+00  0.0000E+00  0.0000E+00  0.0000E+00  0.0000E+00  0.0000E+00  0.0000E+00  0.0000E+00  0.0000E+00  0.0000E+00  0.0000E+00  0.0000E+00
     -4.276  0.0000E+00  0.0000E+00  0.0000E+00  0.0000E+00  0.0000E+00  0.0000E+00  0.0000E+00  0.0000E+00  0.0000E+00  0.0000E+00  0.0000E+00  0.0000E+00  0.0000E+00  0.0000E+00  0.0000E+00  0.0000E+00  0.0000E+00  0.0000E+00
     -4.218  0.0000E+00  0.0000E+00  0.0000E+00  0.0000E+00  0.0000E+00  0.0000E+00  0.0000E+00  0.0000E+00  0.0000E+00  0.0000E+00  0.0000E+00  0.0000E+00  0.0000E+00  0.0000E+00  0.0000E+00  0.0000E+00  0.0000E+00  0.0000E+00
     -4.161  0.0000E+00  0.0000E+00  0.0000E+00  0.0000E+00  0.0000E+00  0.0000E+00  0.0000E+00  0.0000E+00  0.0000E+00  0.0000E+00  0.0000E+00  0.0000E+00  0.0000E+00  0.0000E+00  0.0000E+00  0.0000E+00  0.0000E+00  0.0000E+00
     -4.104  0.0000E+00  0.0000E+00  0.0000E+00  0.0000E+00  0.0000E+00  0.0000E+00  0.0000E+00  0.0000E+00  0.0000E+00  0.0000E+00  0.0000E+00  0.0000E+00  0.0000E+00  0.0000E+00  0.0000E+00  0.0000E+00  0.0000E+00  0.0000E+00
     -4.047  0.0000E+00  0.0000E+00  0.0000E+00  0.0000E+00  0.0000E+00  0.0000E+00  0.0000E+00  0.0000E+00  0.0000E+00  0.0000E+00  0.0000E+00  0.0000E+00  0.0000E+00  0.0000E+00  0.0000E+00  0.0000E+00  0.0000E+00  0.0000E+00
     -3.989  0.0000E+00  0.7659E-07  0.0000E+00  0.3452E-20  0.0000E+00  0.1871E-19  0.0000E+00  0.3452E-20  0.0000E+00  0.2534E-19  0.0000E+00  0.4637E-20  0.0000E+00  0.2568E-10  0.0000E+00  0.4637E-20  0.0000E+00  0.4812E-18
     -3.932  0.7296E-07  0.7228E-06  0.9492E-20  0.1469E-08  0.1157E-19  0.1739E-08  0.9492E-20  0.1469E-08  0.1293E-17  0.7626E-17  0.2164E-17  0.2077E-17  0.3528E-11  0.2515E-09  0.2164E-17  0.2077E-17  0.1840E-19  0.4810E-11
     -3.875  0.6833E-06  0.3061E-05  0.1284E-08  0.1067E-07  0.1449E-08  0.1146E-07  0.1284E-08  0.1067E-07  0.1649E-16  0.4776E-10  0.1060E-15  0.4590E-10  0.3980E-10  0.1095E-08  0.1060E-15  0.4590E-10  0.5984E-11  0.2437E-10
     -3.818  0.2880E-05  0.9550E-05  0.9255E-08  0.3546E-07  0.9488E-08  0.4382E-07  0.9255E-08  0.3546E-07  0.4940E-10  0.2421E-09  0.4726E-10  0.2012E-09  0.1804E-09  0.3369E-08  0.4726E-10  0.2012E-09  0.3002E-10  0.6249E-10
     -3.760  0.8974E-05  0.3040E-04  0.3068E-07  0.1217E-06  0.3601E-07  0.1562E-06  0.3068E-07  0.1217E-06  0.2517E-09  0.6207E-09  0.2077E-09  0.7995E-09  0.5704E-09  0.1080E-07  0.2077E-09  0.7995E-09  0.7715E-10  0.4112E-09
     -3.703  0.2818E-04  0.9524E-04  0.9858E-07  0.4131E-06  0.1249E-06  0.4954E-06  0.9858E-07  0.4131E-06  0.6450E-09  0.3142E-08  0.7327E-09  0.2890E-08  0.1876E-08  0.3456E-07  0.7327E-09  0.2890E-08  0.3931E-09  0.1322E-08
     -3.646  0.8927E-04  0.2834E-03  0.3444E-06  0.1227E-05  0.4016E-06  0.1505E-05  0.3444E-06  0.1227E-05  0.2725E-08  0.8601E-08  0.2791E-08  0.8682E-08  0.6350E-08  0.1023E-06  0.2791E-08  0.8682E-08  0.1620E-08  0.3929E-08
     -3.588  0.2702E-03  0.7853E-03  0.1074E-05  0.3655E-05  0.1231E-05  0.4482E-05  0.1074E-05  0.3655E-05  0.9433E-08  0.2732E-07  0.8759E-08  0.2740E-07  0.1963E-07  0.2857E-06  0.8759E-08  0.2740E-07  0.4958E-08  0.1178E-07
     -3.531  0.7647E-03  0.1844E-02  0.3185E-05  0.9813E-05  0.3713E-05  0.1196E-04  0.3185E-05  0.9813E-05  0.2743E-07  0.8003E-07  0.2748E-07  0.7899E-07  0.5661E-07  0.6823E-06  0.2748E-07  0.7899E-07  0.1489E-07  0.3292E-07
     -3.474  0.1879E-02  0.3399E-02  0.8862E-05  0.2210E-04  0.1023E-04  0.2730E-04  0.8862E-05  0.2210E-04  0.8571E-07  0.2067E-06  0.8323E-07  0.2040E-06  0.1487E-06  0.1292E-05  0.8323E-07  0.2040E-06  0.4237E-07  0.8377E-07
     -3.417  0.3669E-02  0.4910E-02  0.2083E-04  0.4128E-04  0.2418E-04  0.5279E-04  0.2083E-04  0.4128E-04  0.2264E-06  0.4558E-06  0.2191E-06  0.4616E-06  0.3283E-06  0.1956E-05  0.2191E-06  0.4616E-06  0.1113E-06  0.1988E-06
     -3.359  0.5561E-02  0.6233E-02  0.4024E-04  0.7013E-04  0.4840E-04  0.8809E-04  0.4024E-04  0.7013E-04  0.5181E-06  0.9072E-06  0.5102E-06  0.9332E-06  0.6133E-06  0.2733E-05  0.5102E-06  0.9332E-06  0.2670E-06  0.4367E-06
     -3.302  0.7168E-02  0.7623E-02  0.6902E-04  0.1106E-03  0.8338E-04  0.1283E-03  0.6902E-04  0.1106E-03  0.1041E-05  0.1739E-05  0.1053E-05  0.1689E-05  0.1068E-05  0.3824E-05  0.1053E-05  0.1689E-05  0.6068E-06  0.7759E-06
     -3.245  0.8874E-02  0.8444E-02  0.1119E-03  0.1458E-03  0.1250E-03  0.1736E-03  0.1119E-03  0.1458E-03  0.2032E-05  0.2803E-05  0.1963E-05  0.2727E-05  0.1795E-05  0.4653E-05  0.1963E-05  0.2727E-05  0.1153E-05  0.1074E-05
     -3.187  0.1015E-01  0.8742E-02  0.1550E-03  0.1735E-03  0.1692E-03  0.2416E-03  0.1550E-03  0.1735E-03  0.3458E-05  0.4045E-05  0.3239E-05  0.4219E-05  0.2640E-05  0.5085E-05  0.3239E-05  0.4219E-05  0.1681E-05  0.1428E-05
     -3.130  0.1052E-01  0.9473E-02  0.1846E-03  0.2225E-03  0.2322E-03  0.3136E-03  0.1846E-03  0.2225E-03  0.5010E-05  0.6021E-05  0.5023E-05  0.6092E-05  0.3525E-05  0.6398E-05  0.5023E-05  0.6092E-05  0.2183E-05  0.2255E-05
     -3.073  0.1128E-01  0.1020E-01  0.2303E-03  0.2922E-03  0.3147E-03  0.3468E-03  0.2303E-03  0.2922E-03  0.7428E-05  0.8287E-05  0.7490E-05  0.7963E-05  0.5041E-05  0.8827E-05  0.7490E-05  0.7963E-05  0.3267E-05  0.3821E-05
     -3.016  0.1232E-01  0.1088E-01  0.3040E-03  0.3648E-03  0.3625E-03  0.3995E-03  0.3040E-03  0.3648E-03  0.1056E-04  0.1079E-04  0.9972E-05  0.1103E-04  0.7319E-05  0.1117E-04  0.9972E-05  0.1103E-04  0.5567E-05  0.5539E-05
     -2.958  0.1308E-01  0.1163E-01  0.3856E-03  0.4186E-03  0.3957E-03  0.5235E-03  0.3856E-03  0.4186E-03  0.1376E-04  0.1431E-04  0.1333E-04  0.1554E-04  0.9779E-05  0.1259E-04  0.1333E-04  0.1554E-04  0.8619E-05  0.6354E-05
     -2.901  0.1404E-01  0.1182E-01  0.4549E-03  0.4528E-03  0.5023E-03  0.6363E-03  0.4549E-03  0.4528E-03  0.1814E-04  0.1950E-04  0.1915E-04  0.1909E-04  0.1223E-04  0.1417E-04  0.1915E-04  0.1909E-04  0.1059E-04  0.6501E-05
     -2.844  0.1458E-01  0.1149E-01  0.4977E-03  0.4851E-03  0.6381E-03  0.6852E-03  0.4977E-03  0.4851E-03  0.2456E-04  0.2526E-04  0.2476E-04  0.2209E-04  0.1537E-04  0.1604E-04  0.2476E-04  0.2209E-04  0.1107E-04  0.6858E-05
     -2.787  0.1446E-01  0.1116E-01  0.5353E-03  0.5259E-03  0.7152E-03  0.7366E-03  0.5353E-03  0.5259E-03  0.3304E-04  0.2801E-04  0.2862E-04  0.2800E-04  0.1912E-04  0.1714E-04  0.2862E-04  0.2800E-04  0.1144E-04  0.8776E-05
     -2.729  0.1389E-01  0.1204E-01  0.5686E-03  0.6376E-03  0.7558E-03  0.8632E-03  0.5686E-03  0.6376E-03  0.3838E-04  0.3104E-04  0.3458E-04  0.3736E-04  0.2116E-04  0.2094E-04  0.3458E-04  0.3736E-04  0.1338E-04  0.1392E-04
     -2.672  0.1434E-01  0.1315E-01  0.6586E-03  0.7768E-03  0.8544E-03  0.9677E-03  0.6586E-03  0.7768E-03  0.4150E-04  0.3788E-04  0.4633E-04  0.4334E-04  0.2414E-04  0.2819E-04  0.4633E-04  0.4334E-04  0.2031E-04  0.1997E-04
     -2.615  0.1606E-01  0.1317E-01  0.8245E-03  0.8567E-03  0.9888E-03  0.1022E-02  0.8245E-03  0.8567E-03  0.4939E-04  0.4926E-04  0.5822E-04  0.4575E-04  0.3212E-04  0.3472E-04  0.5822E-04  0.4575E-04  0.3148E-04  0.2265E-04
     -2.557  0.1657E-01  0.1349E-01  0.9406E-03  0.9330E-03  0.1034E-02  0.1200E-02  0.9406E-03  0.9330E-03  0.6307E-04  0.6468E-04  0.6197E-04  0.5646E-04  0.4146E-04  0.3914E-04  0.6197E-04  0.5646E-04  0.3888E-04  0.2314E-04
     -2.500  0.1655E-01  0.1388E-01  0.1013E-02  0.9961E-03  0.1142E-02  0.1401E-02  0.1013E-02  0.9961E-03  0.8341E-04  0.7650E-04  0.7015E-04  0.7238E-04  0.4998E-04  0.4083E-04  0.7015E-04  0.7238E-04  0.4045E-04  0.2342E-04
     -2.443  0.1738E-01  0.1300E-01  0.1104E-02  0.9610E-03  0.1392E-02  0.1510E-02  0.1104E-02  0.9610E-03  0.1046E-03  0.7642E-04  0.9124E-04  0.8494E-04  0.5745E-04  0.3817E-04  0.9124E-04  0.8494E-04  0.4151E-04  0.2262E-04
     -2.386  0.1706E-01  0.1203E-01  0.1111E-02  0.9370E-03  0.1555E-02  0.1604E-02  0.1111E-02  0.9370E-03  0.1117E-03  0.7587E-04  0.1110E-03  0.9619E-04  0.5865E-04  0.3675E-04  0.1110E-03  0.9619E-04  0.4096E-04  0.2380E-04
     -2.328  0.1566E-01  0.1185E-01  0.1052E-02  0.1034E-02  0.1646E-02  0.1649E-02  0.1052E-02  0.1034E-02  0.1071E-03  0.9190E-04  0.1279E-03  0.1045E-03  0.5637E-04  0.4274E-04  0.1279E-03  0.1045E-03  0.4102E-04  0.2910E-04
     -2.271  0.1515E-01  0.1254E-01  0.1104E-02  0.1251E-02  0.1713E-02  0.1762E-02  0.1104E-02  0.1251E-02  0.1192E-03  0.1228E-03  0.1440E-03  0.1121E-03  0.6025E-04  0.5900E-04  0.1440E-03  0.1121E-03  0.4773E-04  0.3968E-04
     -2.214  0.1553E-01  0.1378E-01  0.1294E-02  0.1507E-02  0.1705E-02  0.2099E-02  0.1294E-02  0.1507E-02  0.1583E-03  0.1472E-03  0.1535E-03  0.1301E-03  0.7369E-04  0.7830E-04  0.1535E-03  0.1301E-03  0.6211E-04  0.5437E-04
     -2.156  0.1677E-01  0.1442E-01  0.1577E-02  0.1652E-02  0.1835E-02  0.2502E-02  0.1577E-02  0.1652E-02  0.2034E-03  0.1536E-03  0.1659E-03  0.1627E-03  0.9944E-04  0.8552E-04  0.1659E-03  0.1627E-03  0.8664E-04  0.6426E-04
     -2.099  0.1811E-01  0.1417E-01  0.1797E-02  0.1694E-02  0.2271E-02  0.2796E-02  0.1797E-02  0.1694E-02  0.2225E-03  0.1595E-03  0.2007E-03  0.1936E-03  0.1239E-03  0.8436E-04  0.2007E-03  0.1936E-03  0.1109E-03  0.6730E-04
     -2.042  0.1862E-01  0.1313E-01  0.1893E-02  0.1650E-02  0.2723E-02  0.3007E-02  0.1893E-02  0.1650E-02  0.2282E-03  0.1721E-03  0.2516E-03  0.2115E-03  0.1334E-03  0.8130E-04  0.2516E-03  0.2115E-03  0.1231E-03  0.6440E-04
     -1.985  0.1800E-01  0.1205E-01  0.1906E-02  0.1607E-02  0.2914E-02  0.3099E-02  0.1906E-02  0.1607E-02  0.2422E-03  0.1983E-03  0.2875E-03  0.2310E-03  0.1328E-03  0.7490E-04  0.2875E-03  0.2310E-03  0.1255E-03  0.5749E-04
     -1.927  0.1653E-01  0.1165E-01  0.1833E-02  0.1684E-02  0.3065E-02  0.3031E-02  0.1833E-02  0.1684E-02  0.2703E-03  0.2401E-03  0.3121E-03  0.2550E-03  0.1279E-03  0.7322E-04  0.3121E-03  0.2550E-03  0.1149E-03  0.5531E-04
     -1.870  0.1579E-01  0.1098E-01  0.1861E-02  0.1707E-02  0.3280E-02  0.3059E-02  0.1861E-02  0.1707E-02  0.3285E-03  0.2685E-03  0.3518E-03  0.2745E-03  0.1218E-03  0.7944E-04  0.3518E-03  0.2745E-03  0.1056E-03  0.5513E-04
     -1.813  0.1519E-01  0.1064E-01  0.1948E-02  0.1776E-02  0.3257E-02  0.3322E-02  0.1948E-02  0.1776E-02  0.3898E-03  0.2945E-03  0.3735E-03  0.3137E-03  0.1199E-03  0.9216E-04  0.3735E-03  0.3137E-03  0.1062E-03  0.6059E-04
     -1.755  0.1398E-01  0.1136E-01  0.1933E-02  0.2073E-02  0.3265E-02  0.3424E-02  0.1933E-02  0.2073E-02  0.4224E-03  0.3268E-03  0.3937E-03  0.3653E-03  0.1305E-03  0.1086E-03  0.3937E-03  0.3653E-03  0.1081E-03  0.8250E-04
     -1.698  0.1427E-01  0.1198E-01  0.2109E-02  0.2419E-02  0.3700E-02  0.3311E-02  0.2109E-02  0.2419E-02  0.4670E-03  0.3386E-03  0.4816E-03  0.4043E-03  0.1553E-03  0.1232E-03  0.4816E-03  0.4043E-03  0.1306E-03  0.1143E-03
     -1.641  0.1561E-01  0.1162E-01  0.2495E-02  0.2565E-02  0.4034E-02  0.3295E-02  0.2495E-02  0.2565E-02  0.5019E-03  0.3344E-03  0.5864E-03  0.4292E-03  0.1790E-03  0.1314E-03  0.5864E-03  0.4292E-03  0.1853E-03  0.1337E-03
     -1.584  0.1613E-01  0.1041E-01  0.2822E-02  0.2524E-02  0.3803E-02  0.3126E-02  0.2822E-02  0.2524E-02  0.5109E-03  0.3497E-03  0.6312E-03  0.4178E-03  0.1937E-03  0.1343E-03  0.6312E-03  0.4178E-03  0.2447E-03  0.1346E-03
     -1.526  0.1515E-01  0.9852E-02  0.2876E-02  0.2641E-02  0.3533E-02  0.2874E-02  0.2876E-02  0.2641E-02  0.5139E-03  0.4357E-03  0.6394E-03  0.4107E-03  0.1997E-03  0.1461E-03  0.6394E-03  0.4107E-03  0.2685E-03  0.1331E-03
     -1.469  0.1380E-01  0.1004E-01  0.2872E-02  0.2861E-02  0.3370E-02  0.3041E-02  0.2872E-02  0.2861E-02  0.5872E-03  0.5488E-03  0.6309E-03  0.4726E-03  0.2108E-03  0.1566E-03  0.6309E-03  0.4726E-03  0.2690E-03  0.1256E-03