   8   8   1   0
  0.1910526E+02  0.4150424E-09  0.4150424E-09  0.8872748E-09  0.5000000E-15
  1.000000000000000E-004
  CAR 
 unknown system                          
     12.49458892     -4.39380776  301      5.78844610      1.00000000
     -4.394  0.0000E+00  0.0000E+00  0.0000E+00  0.0000E+00
     -4.338  0.0000E+00  0.0000E+00  0.0000E+00  0.0000E+00
     -4.281  0.0000E+00  0.0000E+00  0.0000E+00  0.0000E+00
     -4.225  0.0000E+00  0.0000E+00  0.0000E+00  0.0000E+00
     -4.169  0.0000E+00  0.0000E+00  0.0000E+00  0.0000E+00
     -4.112  0.0000E+00  0.0000E+00  0.0000E+00  0.0000E+00
     -4.056  0.0000E+00  0.2770E-05  0.0000E+00  0.1560E-06
     -4.000  0.2473E-05  0.2619E-04  0.1392E-06  0.1630E-05
     -3.943  0.2316E-04  0.1232E-03  0.1443E-05  0.8564E-05
     -3.887  0.9679E-04  0.3243E-03  0.6892E-05  0.2682E-04
     -3.831  0.2960E-03  0.1069E-02  0.2356E-04  0.8701E-04
     -3.775  0.9255E-03  0.3236E-02  0.7566E-04  0.2692E-03
     -3.718  0.2850E-02  0.9461E-02  0.2361E-03  0.8018E-03
     -3.662  0.8342E-02  0.2574E-01  0.7057E-03  0.2251E-02
     -3.606  0.2295E-01  0.5965E-01  0.1997E-02  0.5609E-02
     -3.549  0.5425E-01  0.1095E+00  0.5051E-02  0.1177E-01
     -3.493  0.1022E+00  0.1595E+00  0.1080E-01  0.2075E-01
     -3.437  0.1517E+00  0.2053E+00  0.1934E-01  0.3231E-01
     -3.381  0.1962E+00  0.2536E+00  0.3039E-01  0.4658E-01
     -3.324  0.2440E+00  0.2846E+00  0.4412E-01  0.6260E-01
     -3.268  0.2778E+00  0.3010E+00  0.5976E-01  0.7955E-01
     -3.212  0.2924E+00  0.3317E+00  0.7622E-01  0.9823E-01
     -3.155  0.3206E+00  0.3623E+00  0.9427E-01  0.1186E+00
     -3.099  0.3527E+00  0.3934E+00  0.1141E+00  0.1408E+00
     -3.043  0.3802E+00  0.4275E+00  0.1355E+00  0.1648E+00
     -2.986  0.4136E+00  0.4423E+00  0.1588E+00  0.1897E+00
     -2.930  0.4336E+00  0.4384E+00  0.1832E+00  0.2144E+00
     -2.874  0.4346E+00  0.4373E+00  0.2077E+00  0.2391E+00
     -2.818  0.4269E+00  0.4826E+00  0.2318E+00  0.2663E+00
     -2.761  0.4572E+00  0.5336E+00  0.2575E+00  0.2963E+00
     -2.705  0.5159E+00  0.5468E+00  0.2866E+00  0.3271E+00
     -2.649  0.5345E+00  0.5757E+00  0.3167E+00  0.3595E+00
     -2.592  0.5500E+00  0.6026E+00  0.3476E+00  0.3935E+00
     -2.536  0.5874E+00  0.5799E+00  0.3807E+00  0.4261E+00
     -2.480  0.5797E+00  0.5566E+00  0.4134E+00  0.4575E+00
     -2.423  0.5487E+00  0.5667E+00  0.4443E+00  0.4894E+00
     -2.367  0.5491E+00  0.6203E+00  0.4752E+00  0.5243E+00
     -2.311  0.5791E+00  0.7047E+00  0.5078E+00  0.5640E+00
     -2.255  0.6440E+00  0.7623E+00  0.5441E+00  0.6070E+00
     -2.198  0.7146E+00  0.7776E+00  0.5843E+00  0.6508E+00
     -2.142  0.7524E+00  0.7577E+00  0.6267E+00  0.6934E+00
     -2.086  0.7435E+00  0.7309E+00  0.6686E+00  0.7346E+00
     -2.029  0.7155E+00  0.7240E+00  0.7089E+00  0.7754E+00
     -1.973  0.7176E+00  0.7131E+00  0.7493E+00  0.8155E+00
     -1.917  0.7054E+00  0.7347E+00  0.7890E+00  0.8569E+00
     -1.861  0.6871E+00  0.7931E+00  0.8277E+00  0.9016E+00
     -1.804  0.7464E+00  0.8380E+00  0.8698E+00  0.9488E+00
     -1.748  0.8238E+00  0.8398E+00  0.9162E+00  0.9961E+00
     -1.692  0.8401E+00  0.7914E+00  0.9635E+00  0.1041E+01
     -1.635  0.8044E+00  0.7786E+00  0.1009E+01  0.1085E+01
     -1.579  0.7733E+00  0.8234E+00  0.1052E+01  0.1131E+01
     -1.523  0.7867E+00  0.8624E+00  0.1097E+01  0.1179E+01
     -1.466  0.8182E+00  0.8490E+00  0.1143E+01  0.1227E+01
     -1.410  0.8525E+00  0.8185E+00  0.1191E+01  0.1273E+01
     -1.354  0.8406E+00  0.8149E+00  0.1238E+01  0.1319E+01
     -1.298  0.8072E+00  0.8108E+00  0.1284E+01  0.1365E+01
     -1.241  0.8062E+00  0.8435E+00  0.1329E+01  0.1412E+01
     -1.185  0.8088E+00  0.9202E+00  0.1375E+01  0.1464E+01
     -1.129  0.8495E+00  0.9430E+00  0.1422E+01  0.1517E+01
     -1.072  0.9683E+00  0.9151E+00  0.1477E+01  0.1569E+01
     -1.016  0.1028E+01  0.8517E+00  0.1535E+01  0.1617E+01
     -0.960  0.9803E+00  0.7525E+00  0.1590E+01  0.1659E+01
     -0.904  0.8850E+00  0.7006E+00  0.1640E+01  0.1699E+01
     -0.847  0.7984E+00  0.7476E+00  0.1685E+01  0.1741E+01
     -0.791  0.7858E+00  0.8302E+00  0.1729E+01  0.1788E+01
     -0.735  0.8629E+00  0.8560E+00  0.1778E+01  0.1836E+01
     -0.678  0.9311E+00  0.8841E+00  0.1830E+01  0.1886E+01
     -0.622  0.9203E+00  0.9718E+00  0.1882E+01  0.1940E+01
     -0.566  0.9501E+00  0.1111E+01  0.1936E+01  0.2003E+01
     -0.509  0.1046E+01  0.1199E+01  0.1995E+01  0.2071E+01
     -0.453  0.1128E+01  0.1146E+01  0.2058E+01  0.2135E+01
     -0.397  0.1161E+01  0.1096E+01  0.2123E+01  0.2197E+01
     -0.341  0.1157E+01  0.1086E+01  0.2189E+01  0.2258E+01
     -0.284  0.1158E+01  0.1063E+01  0.2254E+01  0.2318E+01
     -0.228  0.1104E+01  0.1055E+01  0.2316E+01  0.2377E+01
     -0.172  0.1036E+01  0.1077E+01  0.2374E+01  0.2438E+01
     -0.115  0.1052E+01  0.1109E+01  0.2434E+01  0.2500E+01
     -0.059  0.1132E+01  0.1085E+01  0.2497E+01  0.2561E+01
     -0.003  0.1129E+01  0.1040E+01  0.2561E+01  0.2620E+01
      0.053  0.1064E+01  0.1017E+01  0.2621E+01  0.2677E+01
      0.110  0.1027E+01  0.9898E+00  0.2679E+01  0.2733E+01
      0.166  0.1014E+01  0.9887E+00  0.2736E+01  0.2789E+01
      0.222  0.1046E+01  0.9651E+00  0.2795E+01  0.2843E+01
      0.279  0.1059E+01  0.8790E+00  0.2855E+01  0.2893E+01
      0.335  0.9702E+00  0.8167E+00  0.2909E+01  0.2939E+01
      0.391  0.9104E+00  0.8777E+00  0.2960E+01  0.2988E+01
      0.448  0.9974E+00  0.9854E+00  0.3017E+01  0.3044E+01
      0.504  0.1093E+01  0.1012E+01  0.3078E+01  0.3101E+01
      0.560  0.1093E+01  0.1018E+01  0.3140E+01  0.3158E+01
      0.616  0.1093E+01  0.1006E+01  0.3201E+01  0.3215E+01
      0.673  0.1109E+01  0.9686E+00  0.3264E+01  0.3269E+01
      0.729  0.1108E+01  0.1004E+01  0.3326E+01  0.3326E+01
      0.785  0.1138E+01  0.1132E+01  0.3390E+01  0.3390E+01
      0.842  0.1278E+01  0.1245E+01  0.3462E+01  0.3460E+01
      0.898  0.1445E+01  0.1263E+01  0.3544E+01  0.3531E+01
      0.954  0.1490E+01  0.1310E+01  0.3628E+01  0.3605E+01
      1.010  0.1467E+01  0.1401E+01  0.3710E+01  0.3684E+01
      1.067  0.1460E+01  0.1473E+01  0.3792E+01  0.3766E+01
      1.123  0.1433E+01  0.1492E+01  0.3873E+01  0.3851E+01
      1.179  0.1369E+01  0.1416E+01  0.3950E+01  0.3930E+01
      1.236  0.1328E+01  0.1264E+01  0.4025E+01  0.4002E+01
      1.292  0.1275E+01  0.1118E+01  0.4097E+01  0.4064E+01
      1.348  0.1239E+01  0.1044E+01  0.4167E+01  0.4123E+01
      1.405  0.1281E+01  0.1036E+01  0.4239E+01  0.4182E+01
      1.461  0.1414E+01  0.1126E+01  0.4318E+01  0.4245E+01
      1.517  0.1545E+01  0.1315E+01  0.4405E+01  0.4319E+01
      1.573  0.1534E+01  0.1459E+01  0.4492E+01  0.4401E+01
      1.630  0.1414E+01  0.1448E+01  0.4572E+01  0.4483E+01
      1.686  0.1322E+01  0.1341E+01  0.4646E+01  0.4558E+01
      1.742  0.1321E+01  0.1243E+01  0.4720E+01  0.4628E+01
      1.799  0.1316E+01  0.1191E+01  0.4794E+01  0.4696E+01
      1.855  0.1304E+01  0.1161E+01  0.4868E+01  0.4761E+01
      1.911  0.1362E+01  0.1118E+01  0.4945E+01  0.4824E+01
      1.967  0.1421E+01  0.1081E+01  0.5025E+01  0.4885E+01
      2.024  0.1421E+01  0.1092E+01  0.5105E+01  0.4946E+01
      2.080  0.1405E+01  0.1143E+01  0.5184E+01  0.5011E+01
      2.136  0.1429E+01  0.1227E+01  0.5264E+01  0.5080E+01
      2.193  0.1437E+01  0.1310E+01  0.5345E+01  0.5154E+01
      2.249  0.1429E+01  0.1334E+01  0.5426E+01  0.5229E+01
      2.305  0.1448E+01  0.1336E+01  0.5507E+01  0.5304E+01
      2.362  0.1543E+01  0.1369E+01  0.5594E+01  0.5381E+01
      2.418  0.1717E+01  0.1398E+01  0.5691E+01  0.5460E+01
      2.474  0.1841E+01  0.1382E+01  0.5795E+01  0.5538E+01
      2.530  0.1788E+01  0.1382E+01  0.5895E+01  0.5616E+01
      2.587  0.1614E+01  0.1480E+01  0.5986E+01  0.5699E+01
      2.643  0.1477E+01  0.1574E+01  0.6069E+01  0.5788E+01
      2.699  0.1490E+01  0.1609E+01  0.6153E+01  0.5878E+01
      2.756  0.1730E+01  0.1582E+01  0.6251E+01  0.5967E+01
      2.812  0.2112E+01  0.1498E+01  0.6370E+01  0.6052E+01
      2.868  0.2380E+01  0.1426E+01  0.6504E+01  0.6132E+01
      2.924  0.2421E+01  0.1431E+01  0.6640E+01  0.6213E+01
      2.981  0.2350E+01  0.1511E+01  0.6773E+01  0.6298E+01
      3.037  0.2375E+01  0.1589E+01  0.6906E+01  0.6387E+01
      3.093  0.2494E+01  0.1604E+01  0.7047E+01  0.6478E+01
      3.150  0.2457E+01  0.1554E+01  0.7185E+01  0.6565E+01
      3.206  0.2272E+01  0.1581E+01  0.7313E+01  0.6654E+01
      3.262  0.2135E+01  0.1698E+01  0.7433E+01  0.6750E+01
      3.319  0.2129E+01  0.1758E+01  0.7553E+01  0.6849E+01
      3.375  0.2352E+01  0.1760E+01  0.7686E+01  0.6948E+01
      3.431  0.2798E+01  0.1825E+01  0.7843E+01  0.7051E+01
      3.487  0.3328E+01  0.1887E+01  0.8031E+01  0.7157E+01
      3.544  0.3801E+01  0.1767E+01  0.8245E+01  0.7257E+01
      3.600  0.4199E+01  0.1532E+01  0.8481E+01  0.7343E+01
      3.656  0.4578E+01  0.1445E+01  0.8739E+01  0.7424E+01
      3.713  0.5065E+01  0.1579E+01  0.9024E+01  0.7513E+01
      3.769  0.5667E+01  0.1773E+01  0.9343E+01  0.7613E+01
      3.825  0.6016E+01  0.1878E+01  0.9682E+01  0.7719E+01
      3.882  0.6002E+01  0.1885E+01  0.1002E+02  0.7825E+01
      3.938  0.5947E+01  0.1889E+01  0.1035E+02  0.7932E+01
      3.994  0.5939E+01  0.1981E+01  0.1069E+02  0.8043E+01
      4.050  0.6199E+01  0.2091E+01  0.1104E+02  0.8161E+01
      4.107  0.6896E+01  0.2142E+01  0.1143E+02  0.8282E+01
      4.163  0.7558E+01  0.2133E+01  0.1185E+02  0.8402E+01
      4.219  0.7648E+01  0.2099E+01  0.1228E+02  0.8520E+01
      4.276  0.7344E+01  0.2092E+01  0.1270E+02  0.8638E+01
      4.332  0.6789E+01  0.2139E+01  0.1308E+02  0.8758E+01
      4.388  0.5910E+01  0.2194E+01  0.1341E+02  0.8882E+01
      4.444  0.4704E+01  0.2197E+01  0.1368E+02  0.9006E+01
      4.501  0.3285E+01  0.2186E+01  0.1386E+02  0.9129E+01
      4.557  0.2118E+01  0.2286E+01  0.1398E+02  0.9257E+01
      4.613  0.1853E+01  0.2501E+01  0.1409E+02  0.9398E+01
      4.670  0.2818E+01  0.2699E+01  0.1425E+02  0.9550E+01
      4.726  0.4794E+01  0.2775E+01  0.1452E+02  0.9707E+01
      4.782  0.6463E+01  0.2674E+01  0.1488E+02  0.9857E+01
      4.839  0.6387E+01  0.2473E+01  0.1524E+02  0.9996E+01
      4.895  0.5251E+01  0.2273E+01  0.1554E+02  0.1012E+02
      4.951  0.4260E+01  0.2246E+01  0.1577E+02  0.1025E+02
      5.007  0.3639E+01  0.2430E+01  0.1598E+02  0.1039E+02
      5.064  0.3223E+01  0.2653E+01  0.1616E+02  0.1054E+02
      5.120  0.2879E+01  0.2845E+01  0.1632E+02  0.1070E+02
      5.176  0.2528E+01  0.2925E+01  0.1647E+02  0.1086E+02
      5.233  0.2194E+01  0.2775E+01  0.1659E+02  0.1102E+02
      5.289  0.1924E+01  0.2435E+01  0.1670E+02  0.1116E+02
      5.345  0.1728E+01  0.2090E+01  0.1680E+02  0.1127E+02
      5.401  0.1600E+01  0.2007E+01  0.1689E+02  0.1139E+02
      5.458  0.1574E+01  0.2182E+01  0.1697E+02  0.1151E+02
      5.514  0.1696E+01  0.2311E+01  0.1707E+02  0.1164E+02
      5.570  0.1878E+01  0.2340E+01  0.1718E+02  0.1177E+02
      5.627  0.1937E+01  0.2409E+01  0.1729E+02  0.1191E+02
      5.683  0.1948E+01  0.2570E+01  0.1740E+02  0.1205E+02
      5.739  0.2214E+01  0.2727E+01  0.1752E+02  0.1221E+02
      5.796  0.2889E+01  0.2743E+01  0.1768E+02  0.1236E+02
      5.852  0.3737E+01  0.2687E+01  0.1789E+02  0.1251E+02
      5.908  0.4190E+01  0.2651E+01  0.1813E+02  0.1266E+02
      5.964  0.4109E+01  0.2636E+01  0.1836E+02  0.1281E+02
      6.021  0.3799E+01  0.2554E+01  0.1857E+02  0.1295E+02
      6.077  0.3470E+01  0.2343E+01  0.1877E+02  0.1309E+02
      6.133  0.3070E+01  0.2089E+01  0.1894E+02  0.1320E+02
      6.190  0.2534E+01  0.1908E+01  0.1909E+02  0.1331E+02
      6.246  0.2130E+01  0.1770E+01  0.1921E+02  0.1341E+02
      6.302  0.2101E+01  0.1703E+01  0.1932E+02  0.1351E+02
      6.358  0.2349E+01  0.1747E+01  0.1946E+02  0.1360E+02
      6.415  0.2540E+01  0.1741E+01  0.1960E+02  0.1370E+02
      6.471  0.2467E+01  0.1697E+01  0.1974E+02  0.1380E+02
      6.527  0.2198E+01  0.1732E+01  0.1986E+02  0.1390E+02
      6.584  0.1908E+01  0.1804E+01  0.1997E+02  0.1400E+02
      6.640  0.1716E+01  0.1918E+01  0.2007E+02  0.1411E+02
      6.696  0.1715E+01  0.2020E+01  0.2016E+02  0.1422E+02
      6.753  0.1959E+01  0.1992E+01  0.2027E+02  0.1433E+02
      6.809  0.2265E+01  0.1934E+01  0.2040E+02  0.1444E+02
      6.865  0.2411E+01  0.2088E+01  0.2054E+02  0.1456E+02
      6.921  0.2356E+01  0.2582E+01  0.2067E+02  0.1470E+02
      6.978  0.2236E+01  0.3442E+01  0.2080E+02  0.1490E+02
      7.034  0.2174E+01  0.4521E+01  0.2092E+02  0.1515E+02
      7.090  0.2170E+01  0.5495E+01  0.2104E+02  0.1546E+02
      7.147  0.2163E+01  0.5996E+01  0.2116E+02  0.1580E+02
      7.203  0.2099E+01  0.5833E+01  0.2128E+02  0.1613E+02
      7.259  0.1993E+01  0.5469E+01  0.2139E+02  0.1644E+02
      7.315  0.1946E+01  0.5400E+01  0.2150E+02  0.1674E+02
      7.372  0.2060E+01  0.5632E+01  0.2162E+02  0.1706E+02
      7.428  0.2252E+01  0.6131E+01  0.2174E+02  0.1740E+02
      7.484  0.2418E+01  0.6510E+01  0.2188E+02  0.1777E+02
      7.541  0.2524E+01  0.6400E+01  0.2202E+02  0.1813E+02
      7.597  0.2566E+01  0.6176E+01  0.2217E+02  0.1848E+02
      7.653  0.2526E+01  0.6040E+01  0.2231E+02  0.1882E+02
      7.710  0.2400E+01  0.5696E+01  0.2244E+02  0.1914E+02
      7.766  0.2179E+01  0.5051E+01  0.2257E+02  0.1942E+02
      7.822  0.1852E+01  0.4494E+01  0.2267E+02  0.1968E+02
      7.878  0.1638E+01  0.4186E+01  0.2276E+02  0.1991E+02
      7.935  0.1754E+01  0.4044E+01  0.2286E+02  0.2014E+02
      7.991  0.2014E+01  0.3993E+01  0.2298E+02  0.2036E+02
      8.047  0.2145E+01  0.3991E+01  0.2310E+02  0.2059E+02
      8.104  0.2128E+01  0.4015E+01  0.2322E+02  0.2082E+02
      8.160  0.2083E+01  0.3935E+01  0.2333E+02  0.2104E+02
      8.216  0.2112E+01  0.3743E+01  0.2345E+02  0.2125E+02
      8.272  0.2236E+01  0.3587E+01  0.2358E+02  0.2145E+02
      8.329  0.2307E+01  0.3465E+01  0.2371E+02  0.2165E+02
      8.385  0.2236E+01  0.3361E+01  0.2384E+02  0.2183E+02
      8.441  0.2085E+01  0.3312E+01  0.2395E+02  0.2202E+02
      8.498  0.1984E+01  0.3416E+01  0.2406E+02  0.2221E+02
      8.554  0.2007E+01  0.3556E+01  0.2418E+02  0.2241E+02
      8.610  0.2073E+01  0.3613E+01  0.2429E+02  0.2262E+02
      8.667  0.1995E+01  0.3581E+01  0.2441E+02  0.2282E+02
      8.723  0.1825E+01  0.3495E+01  0.2451E+02  0.2302E+02
      8.779  0.1750E+01  0.3378E+01  0.2461E+02  0.2321E+02
      8.835  0.1836E+01  0.3289E+01  0.2471E+02  0.2339E+02
      8.892  0.2013E+01  0.3345E+01  0.2483E+02  0.2358E+02
      8.948  0.2131E+01  0.3435E+01  0.2495E+02  0.2377E+02
      9.004  0.2130E+01  0.3325E+01  0.2507E+02  0.2396E+02
      9.061  0.1997E+01  0.3036E+01  0.2518E+02  0.2413E+02
      9.117  0.1803E+01  0.2813E+01  0.2528E+02  0.2429E+02
      9.173  0.1719E+01  0.2647E+01  0.2538E+02  0.2444E+02
      9.229  0.1763E+01  0.2467E+01  0.2548E+02  0.2458E+02
      9.286  0.1800E+01  0.2311E+01  0.2558E+02  0.2471E+02
      9.342  0.1811E+01  0.2177E+01  0.2568E+02  0.2483E+02
      9.398  0.1822E+01  0.2103E+01  0.2578E+02  0.2495E+02
      9.455  0.1902E+01  0.2181E+01  0.2589E+02  0.2507E+02
      9.511  0.2022E+01  0.2269E+01  0.2600E+02  0.2520E+02
      9.567  0.2041E+01  0.2233E+01  0.2612E+02  0.2533E+02
      9.624  0.1979E+01  0.2117E+01  0.2623E+02  0.2545E+02
      9.680  0.1855E+01  0.1991E+01  0.2633E+02  0.2556E+02
      9.736  0.1696E+01  0.1962E+01  0.2643E+02  0.2567E+02
      9.792  0.1673E+01  0.1990E+01  0.2652E+02  0.2578E+02
      9.849  0.1818E+01  0.1905E+01  0.2663E+02  0.2589E+02
      9.905  0.2031E+01  0.1860E+01  0.2674E+02  0.2599E+02
      9.961  0.2259E+01  0.2001E+01  0.2687E+02  0.2611E+02
     10.018  0.2470E+01  0.2280E+01  0.2701E+02  0.2623E+02
     10.074  0.2528E+01  0.2595E+01  0.2715E+02  0.2638E+02
     10.130  0.2285E+01  0.2691E+01  0.2728E+02  0.2653E+02
     10.187  0.1824E+01  0.2476E+01  0.2738E+02  0.2667E+02
     10.243  0.1392E+01  0.2261E+01  0.2746E+02  0.2680E+02
     10.299  0.1084E+01  0.2280E+01  0.2752E+02  0.2693E+02
     10.355  0.8995E+00  0.2332E+01  0.2757E+02  0.2706E+02
     10.412  0.7924E+00  0.2283E+01  0.2762E+02  0.2719E+02
     10.468  0.7213E+00  0.2166E+01  0.2766E+02  0.2731E+02
     10.524  0.7310E+00  0.1924E+01  0.2770E+02  0.2742E+02
     10.581  0.7914E+00  0.1595E+01  0.2774E+02  0.2751E+02
     10.637  0.7629E+00  0.1294E+01  0.2778E+02  0.2758E+02
     10.693  0.6287E+00  0.1030E+01  0.2782E+02  0.2764E+02
     10.749  0.5102E+00  0.7840E+00  0.2785E+02  0.2768E+02
     10.806  0.4136E+00  0.6524E+00  0.2787E+02  0.2772E+02
     10.862  0.3429E+00  0.6570E+00  0.2789E+02  0.2776E+02
     10.918  0.3094E+00  0.7061E+00  0.2791E+02  0.2780E+02
     10.975  0.2778E+00  0.7058E+00  0.2792E+02  0.2784E+02
     11.031  0.2343E+00  0.6623E+00  0.2794E+02  0.2787E+02
     11.087  0.1795E+00  0.5790E+00  0.2795E+02  0.2791E+02
     11.144  0.1226E+00  0.4250E+00  0.2796E+02  0.2793E+02
     11.200  0.8120E-01  0.2707E+00  0.2796E+02  0.2794E+02
     11.256  0.7788E-01  0.1753E+00  0.2796E+02  0.2795E+02
     11.312  0.1028E+00  0.1200E+00  0.2797E+02  0.2796E+02
     11.369  0.1212E+00  0.8332E-01  0.2798E+02  0.2797E+02
     11.425  0.1040E+00  0.8172E-01  0.2798E+02  0.2797E+02
     11.481  0.7190E-01  0.1053E+00  0.2799E+02  0.2798E+02
     11.538  0.5938E-01  0.1049E+00  0.2799E+02  0.2798E+02
     11.594  0.5809E-01  0.8041E-01  0.2799E+02  0.2799E+02
     11.650  0.5270E-01  0.6788E-01  0.2800E+02  0.2799E+02
     11.706  0.3787E-01  0.6171E-01  0.2800E+02  0.2799E+02
     11.763  0.1918E-01  0.4948E-01  0.2800E+02  0.2800E+02
     11.819  0.7460E-02  0.2935E-01  0.2800E+02  0.2800E+02
     11.875  0.2592E-02  0.1258E-01  0.2800E+02  0.2800E+02
     11.932  0.8606E-03  0.4535E-02  0.2800E+02  0.2800E+02
     11.988  0.2490E-03  0.1530E-02  0.2800E+02  0.2800E+02
     12.044  0.0000E+00  0.4357E-03  0.2800E+02  0.2800E+02
     12.101  0.0000E+00  0.1420E-03  0.2800E+02  0.2800E+02
     12.157  0.0000E+00  0.0000E+00  0.2800E+02  0.2800E+02
     12.213  0.0000E+00  0.0000E+00  0.2800E+02  0.2800E+02
     12.269  0.0000E+00  0.0000E+00  0.2800E+02  0.2800E+02
     12.326  0.0000E+00  0.0000E+00  0.2800E+02  0.2800E+02
     12.382  0.0000E+00  0.0000E+00  0.2800E+02  0.2800E+02
     12.438  0.0000E+00  0.0000E+00  0.2800E+02  0.2800E+02
     12.495  0.0000E+00  0.0000E+00  0.2800E+02  0.2800E+02
     12.49458892     -4.39380776  301      5.78844610      1.00000000
     -4.394  0.0000E+00  0.0000E+00  0.0000E+00  0.0000E+00  0.0000E+00  0.0000E+00  0.0000E+00  0.0000E+00  0.0000E+00  0.0000E+00  0.0000E+00  0.0000E+00  0.0000E+00  0.0000E+00  0.0000E+00  0.0000E+00  0.0000E+00  0.0000E+00
     -4.338  0.0000E+00  0.0000E+00  0.0000E+00  0.0000E+00  0.0000E+00  0.0000E+00  0.0000E+00  0.0000E+00  0.0000E+00  0.0000E+00  0.0000E+00  0.0000E+00  0.0000E+00  0.0000E+00  0.0000E+00  0.0000E+00  0.0000E+00  0.0000E+00
     -4.281  0.0000E+00  0.0000E+00  0.0000E+00  0.0000E+00  0.0000E+00  0.0000E+00  0.0000E+00  0.0000E+00  0.0000E+00  0.0000E+00  0.0000E+00  0.0000E+00  0.0000E+00  0.0000E+00  0.0000E+00  0.0000E+00  0.0000E+00  0.0000E+00
     -4.225  0.0000E+00  0.0000E+00  0.0000E+00  0.0000E+00  0.0000E+00  0.0000E+00  0.0000E+00  0.0000E+00  0.0000E+00  0.0000E+00  0.0000E+00  0.0000E+00  0.0000E+00  0.0000E+00  0.0000E+00  0.0000E+00  0.0000E+00  0.0000E+00
     -4.169  0.0000E+00  0.0000E+00  0.0000E+00  0.0000E+00  0.0000E+00  0.0000E+00  0.0000E+00  0.0000E+00  0.0000E+00  0.0000E+00  0.0000E+00  0.0000E+00  0.0000E+00  0.0000E+00  0.0000E+00  0.0000E+00  0.0000E+00  0.0000E+00
     -4.112  0.0000E+00  0.0000E+00  0.0000E+00  0.0000E+00  0.0000E+00  0.0000E+00  0.0000E+00  0.0000E+00  0.0000E+00  0.0000E+00  0.0000E+00  0.0000E+00  0.0000E+00  0.0000E+00  0.0000E+00  0.0000E+00  0.0000E+00  0.0000E+00
     -4.056  0.0000E+00  0.8643E-07  0.0000E+00  0.2990E-19  0.0000E+00  0.1596E-18  0.0000E+00  0.2990E-19  0.0000E+00  0.6576E-19  0.0000E+00  0.6783E-19  0.0000E+00  0.2486E-10  0.0000E+00  0.6783E-19  0.0000E+00  0.1409E-17
     -4.000  0.9607E-07  0.8097E-06  0.1225E-19  0.1644E-08  0.2454E-19  0.1930E-08  0.1225E-19  0.1644E-08  0.1249E-15  0.1551E-17  0.1225E-15  0.2123E-16  0.5966E-11  0.2432E-09  0.1225E-15  0.2123E-16  0.2035E-17  0.5351E-11
     -3.943  0.8925E-06  0.3776E-05  0.1660E-08  0.1525E-07  0.1865E-08  0.1571E-07  0.1660E-08  0.1525E-07  0.1925E-14  0.1033E-09  0.6039E-14  0.8746E-10  0.6473E-10  0.1182E-08  0.6039E-14  0.8746E-10  0.7777E-11  0.2717E-10
     -3.887  0.3710E-05  0.9951E-05  0.1184E-07  0.3515E-07  0.1210E-07  0.4446E-07  0.1184E-07  0.3515E-07  0.6442E-10  0.2150E-09  0.6143E-10  0.1821E-09  0.2846E-09  0.3017E-08  0.6143E-10  0.1821E-09  0.3824E-10  0.6765E-10
     -3.831  0.1133E-04  0.3271E-04  0.3851E-07  0.1339E-06  0.4530E-07  0.1800E-06  0.3851E-07  0.1339E-06  0.3224E-09  0.7128E-09  0.2653E-09  0.1014E-08  0.8735E-09  0.9965E-08  0.2653E-09  0.1014E-08  0.9576E-10  0.4459E-09
     -3.775  0.3536E-04  0.9896E-04  0.1298E-06  0.4334E-06  0.1583E-06  0.5082E-06  0.1298E-06  0.4334E-06  0.8045E-09  0.3322E-08  0.1034E-08  0.2924E-08  0.2908E-08  0.3130E-07  0.1034E-08  0.2924E-08  0.6481E-09  0.1409E-08
     -3.718  0.1088E-03  0.2893E-03  0.4332E-06  0.1268E-05  0.4925E-06  0.1549E-05  0.4332E-06  0.1268E-05  0.4070E-08  0.8971E-08  0.3678E-08  0.9041E-08  0.9486E-08  0.9065E-07  0.3678E-08  0.9041E-08  0.2047E-08  0.4094E-08
     -3.662  0.3184E-03  0.7859E-03  0.1262E-05  0.3701E-05  0.1468E-05  0.4529E-05  0.1262E-05  0.3701E-05  0.1086E-07  0.2803E-07  0.1082E-07  0.2807E-07  0.2743E-07  0.2484E-06  0.1082E-07  0.2807E-07  0.5955E-08  0.1204E-07
     -3.606  0.8749E-03  0.1815E-02  0.3705E-05  0.9753E-05  0.4314E-05  0.1187E-04  0.3705E-05  0.9753E-05  0.3398E-07  0.8054E-07  0.3364E-07  0.7931E-07  0.7775E-07  0.5845E-06  0.3364E-07  0.7931E-07  0.1762E-07  0.3307E-07
     -3.549  0.2063E-02  0.3314E-02  0.9896E-05  0.2170E-04  0.1145E-04  0.2675E-04  0.9896E-05  0.2170E-04  0.9845E-07  0.2045E-06  0.9583E-07  0.2016E-06  0.1947E-06  0.1101E-05  0.9583E-07  0.2016E-06  0.4898E-07  0.8319E-07
     -3.493  0.3868E-02  0.4781E-02  0.2245E-04  0.4038E-04  0.2622E-04  0.5143E-04  0.2245E-04  0.4038E-04  0.2543E-06  0.4485E-06  0.2471E-06  0.4544E-06  0.4081E-06  0.1676E-05  0.2471E-06  0.4544E-06  0.1251E-06  0.1949E-06
     -3.437  0.5701E-02  0.6076E-02  0.4234E-04  0.6834E-04  0.5111E-04  0.8532E-04  0.4234E-04  0.6834E-04  0.5663E-06  0.8877E-06  0.5617E-06  0.9075E-06  0.7292E-06  0.2366E-05  0.5617E-06  0.9075E-06  0.2970E-06  0.4208E-06
     -3.381  0.7294E-02  0.7411E-02  0.7196E-04  0.1070E-03  0.8622E-04  0.1241E-03  0.7196E-04  0.1070E-03  0.1127E-05  0.1688E-05  0.1141E-05  0.1636E-05  0.1230E-05  0.3321E-05  0.1141E-05  0.1636E-05  0.6575E-06  0.7409E-06
     -3.324  0.8971E-02  0.8206E-02  0.1144E-03  0.1409E-03  0.1271E-03  0.1684E-03  0.1144E-03  0.1409E-03  0.2166E-05  0.2708E-05  0.2086E-05  0.2639E-05  0.2005E-05  0.4065E-05  0.2086E-05  0.2639E-05  0.1201E-05  0.1029E-05
     -3.268  0.1011E-01  0.8528E-02  0.1546E-03  0.1687E-03  0.1716E-03  0.2337E-03  0.1546E-03  0.1687E-03  0.3589E-05  0.3924E-05  0.3400E-05  0.4075E-05  0.2855E-05  0.4525E-05  0.3400E-05  0.4075E-05  0.1706E-05  0.1384E-05
     -3.212  0.1049E-01  0.9233E-02  0.1842E-03  0.2165E-03  0.2363E-03  0.3015E-03  0.1842E-03  0.2165E-03  0.5193E-05  0.5819E-05  0.5255E-05  0.5863E-05  0.3759E-05  0.5763E-05  0.5255E-05  0.5863E-05  0.2245E-05  0.2189E-05
     -3.155  0.1132E-01  0.9933E-02  0.2329E-03  0.2834E-03  0.3140E-03  0.3349E-03  0.2329E-03  0.2834E-03  0.7730E-05  0.7992E-05  0.7723E-05  0.7696E-05  0.5358E-05  0.7949E-05  0.7723E-05  0.7696E-05  0.3442E-05  0.3670E-05
     -3.099  0.1229E-01  0.1061E-01  0.3060E-03  0.3528E-03  0.3557E-03  0.3887E-03  0.3060E-03  0.3528E-03  0.1082E-04  0.1043E-04  0.1020E-04  0.1067E-04  0.7697E-05  0.1006E-04  0.1020E-04  0.1067E-04  0.5809E-05  0.5264E-05
     -3.043  0.1307E-01  0.1131E-01  0.3845E-03  0.4043E-03  0.3962E-03  0.5068E-03  0.3845E-03  0.4043E-03  0.1410E-04  0.1386E-04  0.1385E-04  0.1493E-04  0.1018E-04  0.1143E-04  0.1385E-04  0.1493E-04  0.8710E-05  0.6031E-05
     -2.986  0.1400E-01  0.1148E-01  0.4482E-03  0.4378E-03  0.5079E-03  0.6123E-03  0.4482E-03  0.4378E-03  0.1868E-04  0.1883E-04  0.1971E-04  0.1831E-04  0.1262E-04  0.1297E-04  0.1971E-04  0.1831E-04  0.1041E-04  0.6195E-05
     -2.930  0.1444E-01  0.1117E-01  0.4888E-03  0.4696E-03  0.6333E-03  0.6603E-03  0.4888E-03  0.4696E-03  0.2536E-04  0.2422E-04  0.2497E-04  0.2133E-04  0.1576E-04  0.1471E-04  0.2497E-04  0.2133E-04  0.1084E-04  0.6604E-05
     -2.874  0.1425E-01  0.1090E-01  0.5252E-03  0.5121E-03  0.7011E-03  0.7133E-03  0.5252E-03  0.5121E-03  0.3354E-04  0.2690E-04  0.2890E-04  0.2710E-04  0.1927E-04  0.1586E-04  0.2890E-04  0.2710E-04  0.1135E-04  0.8546E-05
     -2.818  0.1376E-01  0.1176E-01  0.5618E-03  0.6211E-03  0.7456E-03  0.8346E-03  0.5618E-03  0.6211E-03  0.3825E-04  0.3002E-04  0.3556E-04  0.3589E-04  0.2120E-04  0.1953E-04  0.3556E-04  0.3589E-04  0.1380E-04  0.1344E-04
     -2.761  0.1445E-01  0.1277E-01  0.6626E-03  0.7516E-03  0.8514E-03  0.9322E-03  0.6626E-03  0.7516E-03  0.4191E-04  0.3672E-04  0.4761E-04  0.4140E-04  0.2487E-04  0.2615E-04  0.4761E-04  0.4140E-04  0.2132E-04  0.1899E-04
     -2.705  0.1606E-01  0.1281E-01  0.8211E-03  0.8287E-03  0.9716E-03  0.9922E-03  0.8211E-03  0.8287E-03  0.5054E-04  0.4775E-04  0.5825E-04  0.4417E-04  0.3320E-04  0.3211E-04  0.5825E-04  0.4417E-04  0.3198E-04  0.2144E-04
     -2.649  0.1638E-01  0.1314E-01  0.9236E-03  0.9031E-03  0.1014E-02  0.1165E-02  0.9236E-03  0.9031E-03  0.6496E-04  0.6232E-04  0.6186E-04  0.5472E-04  0.4229E-04  0.3618E-04  0.6186E-04  0.5472E-04  0.3818E-04  0.2195E-04
     -2.592  0.1650E-01  0.1344E-01  0.9974E-03  0.9591E-03  0.1145E-02  0.1350E-02  0.9974E-03  0.9591E-03  0.8553E-04  0.7307E-04  0.7211E-04  0.6962E-04  0.5057E-04  0.3763E-04  0.7211E-04  0.6962E-04  0.3951E-04  0.2217E-04
     -2.536  0.1725E-01  0.1259E-01  0.1080E-02  0.9265E-03  0.1383E-02  0.1457E-02  0.1080E-02  0.9265E-03  0.1050E-03  0.7304E-04  0.9326E-04  0.8160E-04  0.5714E-04  0.3538E-04  0.9326E-04  0.8160E-04  0.4049E-04  0.2151E-04
     -2.480  0.1669E-01  0.1170E-01  0.1071E-02  0.9108E-03  0.1525E-02  0.1546E-02  0.1071E-02  0.9108E-03  0.1097E-03  0.7347E-04  0.1120E-03  0.9219E-04  0.5733E-04  0.3456E-04  0.1120E-03  0.9219E-04  0.3981E-04  0.2287E-04
     -2.423  0.1541E-01  0.1156E-01  0.1026E-02  0.1010E-02  0.1614E-02  0.1594E-02  0.1026E-02  0.1010E-02  0.1067E-03  0.8953E-04  0.1289E-03  0.1001E-03  0.5571E-04  0.4057E-04  0.1289E-03  0.1001E-03  0.4079E-04  0.2814E-04
     -2.367  0.1506E-01  0.1226E-01  0.1098E-02  0.1222E-02  0.1668E-02  0.1720E-02  0.1098E-02  0.1222E-02  0.1229E-03  0.1187E-03  0.1440E-03  0.1080E-03  0.6092E-04  0.5581E-04  0.1440E-03  0.1080E-03  0.4844E-04  0.3842E-04
     -2.311  0.1556E-01  0.1342E-01  0.1299E-02  0.1463E-02  0.1669E-02  0.2049E-02  0.1299E-02  0.1463E-02  0.1637E-03  0.1409E-03  0.1532E-03  0.1262E-03  0.7624E-04  0.7300E-04  0.1532E-03  0.1262E-03  0.6394E-04  0.5206E-04
     -2.255  0.1685E-01  0.1398E-01  0.1571E-02  0.1597E-02  0.1841E-02  0.2425E-02  0.1571E-02  0.1597E-02  0.2051E-03  0.1471E-03  0.1683E-03  0.1572E-03  0.1024E-03  0.7916E-04  0.1683E-03  0.1572E-03  0.8853E-04  0.6096E-04
     -2.198  0.1806E-01  0.1369E-01  0.1765E-02  0.1633E-02  0.2285E-02  0.2705E-02  0.1765E-02  0.1633E-02  0.2207E-03  0.1533E-03  0.2061E-03  0.1858E-03  0.1243E-03  0.7812E-04  0.2061E-03  0.1858E-03  0.1104E-03  0.6353E-04
     -2.142  0.1841E-01  0.1266E-01  0.1847E-02  0.1590E-02  0.2687E-02  0.2903E-02  0.1847E-02  0.1590E-02  0.2276E-03  0.1660E-03  0.2552E-03  0.2027E-03  0.1316E-03  0.7508E-04  0.2552E-03  0.2027E-03  0.1208E-03  0.6052E-04
     -2.086  0.1763E-01  0.1167E-01  0.1845E-02  0.1557E-02  0.2852E-02  0.2971E-02  0.1845E-02  0.1557E-02  0.2434E-03  0.1921E-03  0.2877E-03  0.2219E-03  0.1303E-03  0.6926E-04  0.2877E-03  0.2219E-03  0.1213E-03  0.5432E-04
     -2.029  0.1623E-01  0.1127E-01  0.1780E-02  0.1629E-02  0.3019E-02  0.2907E-02  0.1780E-02  0.1629E-02  0.2752E-03  0.2312E-03  0.3143E-03  0.2444E-03  0.1252E-03  0.6816E-04  0.3143E-03  0.2444E-03  0.1102E-03  0.5245E-04
     -1.973  0.1562E-01  0.1062E-01  0.1829E-02  0.1652E-02  0.3203E-02  0.2959E-02  0.1829E-02  0.1652E-02  0.3360E-03  0.2575E-03  0.3531E-03  0.2643E-03  0.1197E-03  0.7437E-04  0.3531E-03  0.2643E-03  0.1032E-03  0.5249E-04
     -1.917  0.1488E-01  0.1038E-01  0.1895E-02  0.1737E-02  0.3157E-02  0.3198E-02  0.1895E-02  0.1737E-02  0.3915E-03  0.2835E-03  0.3712E-03  0.3025E-03  0.1197E-03  0.8669E-04  0.3712E-03  0.3025E-03  0.1040E-03  0.5881E-04
     -1.861  0.1383E-01  0.1107E-01  0.1897E-02  0.2031E-02  0.3227E-02  0.3265E-02  0.1897E-02  0.2031E-02  0.4243E-03  0.3131E-03  0.4002E-03  0.3499E-03  0.1326E-03  0.1019E-03  0.4002E-03  0.3499E-03  0.1079E-03  0.8048E-04
     -1.804  0.1437E-01  0.1160E-01  0.2109E-02  0.2354E-02  0.3672E-02  0.3170E-02  0.2109E-02  0.2354E-02  0.4693E-03  0.3235E-03  0.4944E-03  0.3865E-03  0.1576E-03  0.1151E-03  0.4944E-03  0.3865E-03  0.1351E-03  0.1099E-03
     -1.748  0.1563E-01  0.1118E-01  0.2488E-02  0.2477E-02  0.3906E-02  0.3157E-02  0.2488E-02  0.2477E-02  0.4998E-03  0.3205E-03  0.5899E-03  0.4081E-03  0.1799E-03  0.1221E-03  0.5899E-03  0.4081E-03  0.1910E-03  0.1265E-03
     -1.692  0.1590E-01  0.1002E-01  0.2768E-02  0.2447E-02  0.3649E-02  0.2976E-02  0.2768E-02  0.2447E-02  0.5068E-03  0.3396E-03  0.6268E-03  0.3960E-03  0.1934E-03  0.1251E-03  0.6268E-03  0.3960E-03  0.2445E-03  0.1271E-03
     -1.635  0.1479E-01  0.9557E-02  0.2794E-02  0.2574E-02  0.3416E-02  0.2763E-02  0.2794E-02  0.2574E-02  0.5171E-03  0.4245E-03  0.6325E-03  0.3944E-03  0.1993E-03  0.1361E-03  0.6325E-03  0.3944E-03  0.2624E-03  0.1253E-03
     -1.579  0.1360E-01  0.9713E-02  0.2821E-02  0.2781E-02  0.3261E-02  0.2955E-02  0.2821E-02  0.2781E-02  0.6079E-03  0.5278E-03  0.6264E-03  0.4569E-03  0.2129E-03  0.1444E-03  0.6264E-03  0.4569E-03  0.2629E-03  0.1175E-03