   8   8   1   0
  0.1310057E+02  0.3659919E-09  0.3659919E-09  0.7824150E-09  0.5000000E-15
  1.000000000000000E-004
  CAR 
 unknown system                          
     18.24137682     -3.17467055  301      9.40640429      1.00000000
     -3.175  0.0000E+00  0.0000E+00  0.0000E+00  0.0000E+00
     -3.103  0.0000E+00  0.0000E+00  0.0000E+00  0.0000E+00
     -3.032  0.0000E+00  0.0000E+00  0.0000E+00  0.0000E+00
     -2.961  0.0000E+00  0.0000E+00  0.0000E+00  0.0000E+00
     -2.889  0.0000E+00  0.0000E+00  0.0000E+00  0.0000E+00
     -2.818  0.0000E+00  0.0000E+00  0.0000E+00  0.0000E+00
     -2.746  0.0000E+00  0.0000E+00  0.0000E+00  0.0000E+00
     -2.675  0.0000E+00  0.0000E+00  0.0000E+00  0.0000E+00
     -2.604  0.5251E-05  0.1059E-04  0.3748E-06  0.7563E-06
     -2.532  0.3967E-04  0.5035E-04  0.3207E-05  0.4351E-05
     -2.461  0.1694E-03  0.2089E-03  0.1530E-04  0.1926E-04
     -2.389  0.6871E-03  0.8640E-03  0.6435E-04  0.8094E-04
     -2.318  0.2806E-02  0.3506E-02  0.2647E-03  0.3313E-03
     -2.247  0.1058E-01  0.1295E-01  0.1020E-02  0.1256E-02
     -2.175  0.3297E-01  0.3864E-01  0.3374E-02  0.4014E-02
     -2.104  0.7436E-01  0.8212E-01  0.8682E-02  0.9876E-02
     -2.032  0.1160E+00  0.1217E+00  0.1696E-01  0.1856E-01
     -1.961  0.1448E+00  0.1509E+00  0.2729E-01  0.2933E-01
     -1.890  0.1860E+00  0.1949E+00  0.4057E-01  0.4324E-01
     -1.818  0.2217E+00  0.2240E+00  0.5640E-01  0.5923E-01
     -1.747  0.2188E+00  0.2199E+00  0.7202E-01  0.7493E-01
     -1.676  0.2373E+00  0.2456E+00  0.8896E-01  0.9248E-01
     -1.604  0.2714E+00  0.2749E+00  0.1083E+00  0.1121E+00
     -1.533  0.2842E+00  0.2895E+00  0.1286E+00  0.1328E+00
     -1.461  0.3167E+00  0.3252E+00  0.1512E+00  0.1560E+00
     -1.390  0.3397E+00  0.3433E+00  0.1755E+00  0.1805E+00
     -1.319  0.3440E+00  0.3441E+00  0.2001E+00  0.2051E+00
     -1.247  0.3247E+00  0.3204E+00  0.2233E+00  0.2280E+00
     -1.176  0.3208E+00  0.3336E+00  0.2462E+00  0.2518E+00
     -1.104  0.3954E+00  0.4117E+00  0.2744E+00  0.2812E+00
     -1.033  0.4261E+00  0.4224E+00  0.3049E+00  0.3114E+00
     -0.962  0.4062E+00  0.4146E+00  0.3339E+00  0.3410E+00
     -0.890  0.4547E+00  0.4719E+00  0.3664E+00  0.3747E+00
     -0.819  0.4808E+00  0.4746E+00  0.4007E+00  0.4086E+00
     -0.748  0.4287E+00  0.4231E+00  0.4313E+00  0.4388E+00
     -0.676  0.4128E+00  0.4168E+00  0.4608E+00  0.4686E+00
     -0.605  0.4251E+00  0.4305E+00  0.4912E+00  0.4994E+00
     -0.533  0.4651E+00  0.4888E+00  0.5244E+00  0.5343E+00
     -0.462  0.5402E+00  0.5693E+00  0.5630E+00  0.5750E+00
     -0.391  0.5954E+00  0.6093E+00  0.6055E+00  0.6185E+00
     -0.319  0.6073E+00  0.6056E+00  0.6489E+00  0.6617E+00
     -0.248  0.5658E+00  0.5678E+00  0.6893E+00  0.7023E+00
     -0.176  0.5503E+00  0.5642E+00  0.7286E+00  0.7426E+00
     -0.105  0.5769E+00  0.5700E+00  0.7698E+00  0.7833E+00
     -0.034  0.5273E+00  0.5267E+00  0.8075E+00  0.8210E+00
      0.038  0.5328E+00  0.5713E+00  0.8456E+00  0.8618E+00
      0.109  0.6316E+00  0.6433E+00  0.8907E+00  0.9077E+00
      0.181  0.6799E+00  0.6699E+00  0.9393E+00  0.9556E+00
      0.252  0.6624E+00  0.6571E+00  0.9866E+00  0.1003E+01
      0.323  0.6055E+00  0.5933E+00  0.1030E+01  0.1045E+01
      0.395  0.5989E+00  0.6069E+00  0.1073E+01  0.1088E+01
      0.466  0.6355E+00  0.6513E+00  0.1118E+01  0.1135E+01
      0.537  0.6675E+00  0.6907E+00  0.1166E+01  0.1184E+01
      0.609  0.7000E+00  0.6739E+00  0.1216E+01  0.1232E+01
      0.680  0.6405E+00  0.6114E+00  0.1261E+01  0.1276E+01
      0.752  0.6175E+00  0.6109E+00  0.1306E+01  0.1320E+01
      0.823  0.6203E+00  0.6126E+00  0.1350E+01  0.1363E+01
      0.894  0.6072E+00  0.6204E+00  0.1393E+01  0.1408E+01
      0.966  0.6972E+00  0.7494E+00  0.1443E+01  0.1461E+01
      1.037  0.8548E+00  0.8434E+00  0.1504E+01  0.1521E+01
      1.109  0.8515E+00  0.7964E+00  0.1565E+01  0.1578E+01
      1.180  0.7699E+00  0.7281E+00  0.1620E+01  0.1630E+01
      1.251  0.6806E+00  0.6358E+00  0.1669E+01  0.1676E+01
      1.323  0.6345E+00  0.5938E+00  0.1714E+01  0.1718E+01
      1.394  0.6828E+00  0.7068E+00  0.1763E+01  0.1769E+01
      1.465  0.7788E+00  0.7977E+00  0.1818E+01  0.1826E+01
      1.537  0.7321E+00  0.6842E+00  0.1871E+01  0.1875E+01
      1.608  0.7241E+00  0.7169E+00  0.1922E+01  0.1926E+01
      1.680  0.8498E+00  0.8801E+00  0.1983E+01  0.1989E+01
      1.751  0.8853E+00  0.9127E+00  0.2046E+01  0.2054E+01
      1.822  0.9277E+00  0.9238E+00  0.2113E+01  0.2120E+01
      1.894  0.9734E+00  0.9594E+00  0.2182E+01  0.2188E+01
      1.965  0.9715E+00  0.9413E+00  0.2251E+01  0.2256E+01
      2.037  0.8899E+00  0.8642E+00  0.2315E+01  0.2317E+01
      2.108  0.8272E+00  0.8388E+00  0.2374E+01  0.2377E+01
      2.179  0.8732E+00  0.9064E+00  0.2436E+01  0.2442E+01
      2.251  0.9677E+00  0.9611E+00  0.2506E+01  0.2511E+01
      2.322  0.9127E+00  0.8876E+00  0.2571E+01  0.2574E+01
      2.394  0.8564E+00  0.8530E+00  0.2632E+01  0.2635E+01
      2.465  0.8586E+00  0.8587E+00  0.2693E+01  0.2696E+01
      2.536  0.8695E+00  0.8883E+00  0.2755E+01  0.2760E+01
      2.608  0.8920E+00  0.8744E+00  0.2819E+01  0.2822E+01
      2.679  0.8151E+00  0.7430E+00  0.2877E+01  0.2875E+01
      2.750  0.6899E+00  0.6466E+00  0.2927E+01  0.2922E+01
      2.822  0.6810E+00  0.6606E+00  0.2975E+01  0.2969E+01
      2.893  0.8261E+00  0.7905E+00  0.3034E+01  0.3025E+01
      2.965  0.9047E+00  0.8342E+00  0.3099E+01  0.3085E+01
      3.036  0.8523E+00  0.8416E+00  0.3160E+01  0.3145E+01
      3.107  0.8437E+00  0.8521E+00  0.3220E+01  0.3206E+01
      3.179  0.8392E+00  0.7648E+00  0.3280E+01  0.3260E+01
      3.250  0.7956E+00  0.7621E+00  0.3337E+01  0.3315E+01
      3.322  0.8495E+00  0.8666E+00  0.3398E+01  0.3377E+01
      3.393  0.1033E+01  0.9581E+00  0.3472E+01  0.3445E+01
      3.464  0.1110E+01  0.9380E+00  0.3551E+01  0.3512E+01
      3.536  0.1056E+01  0.9921E+00  0.3626E+01  0.3583E+01
      3.607  0.1035E+01  0.1069E+01  0.3700E+01  0.3659E+01
      3.678  0.1188E+01  0.1141E+01  0.3785E+01  0.3741E+01
      3.750  0.1247E+01  0.1282E+01  0.3874E+01  0.3833E+01
      3.821  0.1051E+01  0.1165E+01  0.3949E+01  0.3916E+01
      3.893  0.9632E+00  0.8961E+00  0.4018E+01  0.3980E+01
      3.964  0.1035E+01  0.8720E+00  0.4092E+01  0.4042E+01
      4.035  0.1107E+01  0.1019E+01  0.4171E+01  0.4115E+01
      4.107  0.1116E+01  0.1063E+01  0.4251E+01  0.4191E+01
      4.178  0.1124E+01  0.1018E+01  0.4331E+01  0.4264E+01
      4.250  0.1135E+01  0.1074E+01  0.4412E+01  0.4340E+01
      4.321  0.1227E+01  0.1139E+01  0.4500E+01  0.4422E+01
      4.392  0.1337E+01  0.1275E+01  0.4595E+01  0.4513E+01
      4.464  0.1329E+01  0.1372E+01  0.4690E+01  0.4611E+01
      4.535  0.1268E+01  0.1246E+01  0.4781E+01  0.4700E+01
      4.606  0.1216E+01  0.1127E+01  0.4868E+01  0.4780E+01
      4.678  0.1186E+01  0.1066E+01  0.4952E+01  0.4856E+01
      4.749  0.1133E+01  0.1087E+01  0.5033E+01  0.4934E+01
      4.821  0.1158E+01  0.1119E+01  0.5116E+01  0.5014E+01
      4.892  0.1183E+01  0.1085E+01  0.5201E+01  0.5091E+01
      4.963  0.1294E+01  0.1047E+01  0.5293E+01  0.5166E+01
      5.035  0.1427E+01  0.1262E+01  0.5395E+01  0.5256E+01
      5.106  0.1417E+01  0.1474E+01  0.5496E+01  0.5361E+01
      5.178  0.1425E+01  0.1369E+01  0.5598E+01  0.5459E+01
      5.249  0.1437E+01  0.1263E+01  0.5701E+01  0.5550E+01
      5.320  0.1410E+01  0.1329E+01  0.5802E+01  0.5644E+01
      5.392  0.1403E+01  0.1304E+01  0.5902E+01  0.5738E+01
      5.463  0.1383E+01  0.1249E+01  0.6001E+01  0.5827E+01
      5.535  0.1263E+01  0.1403E+01  0.6091E+01  0.5927E+01
      5.606  0.1206E+01  0.1394E+01  0.6177E+01  0.6027E+01
      5.677  0.1297E+01  0.1188E+01  0.6270E+01  0.6112E+01
      5.749  0.1346E+01  0.1196E+01  0.6366E+01  0.6197E+01
      5.820  0.1345E+01  0.1360E+01  0.6462E+01  0.6294E+01
      5.891  0.1416E+01  0.1338E+01  0.6563E+01  0.6390E+01
      5.963  0.1494E+01  0.1146E+01  0.6670E+01  0.6472E+01
      6.034  0.1468E+01  0.1132E+01  0.6775E+01  0.6552E+01
      6.106  0.1476E+01  0.1359E+01  0.6880E+01  0.6650E+01
      6.177  0.1597E+01  0.1418E+01  0.6994E+01  0.6751E+01
      6.248  0.1777E+01  0.1353E+01  0.7121E+01  0.6848E+01
      6.320  0.1852E+01  0.1481E+01  0.7253E+01  0.6953E+01
      6.391  0.1781E+01  0.1672E+01  0.7381E+01  0.7073E+01
      6.463  0.1833E+01  0.1635E+01  0.7512E+01  0.7189E+01
      6.534  0.2127E+01  0.1466E+01  0.7664E+01  0.7294E+01
      6.605  0.2409E+01  0.1591E+01  0.7836E+01  0.7408E+01
      6.677  0.2492E+01  0.1905E+01  0.8014E+01  0.7544E+01
      6.748  0.2590E+01  0.2016E+01  0.8199E+01  0.7688E+01
      6.819  0.2625E+01  0.1916E+01  0.8386E+01  0.7825E+01
      6.891  0.2453E+01  0.1995E+01  0.8561E+01  0.7967E+01
      6.962  0.2334E+01  0.2280E+01  0.8728E+01  0.8130E+01
      7.034  0.2475E+01  0.2545E+01  0.8905E+01  0.8312E+01
      7.105  0.2921E+01  0.2420E+01  0.9114E+01  0.8485E+01
      7.176  0.3422E+01  0.2031E+01  0.9358E+01  0.8630E+01
      7.248  0.3617E+01  0.1898E+01  0.9616E+01  0.8765E+01
      7.319  0.3570E+01  0.2112E+01  0.9871E+01  0.8916E+01
      7.391  0.3369E+01  0.2504E+01  0.1011E+02  0.9095E+01
      7.462  0.3256E+01  0.2938E+01  0.1034E+02  0.9305E+01
      7.533  0.3160E+01  0.3305E+01  0.1057E+02  0.9541E+01
      7.605  0.3129E+01  0.3431E+01  0.1079E+02  0.9786E+01
      7.676  0.3354E+01  0.3199E+01  0.1103E+02  0.1001E+02
      7.748  0.3644E+01  0.2849E+01  0.1129E+02  0.1022E+02
      7.819  0.3988E+01  0.2716E+01  0.1158E+02  0.1041E+02
      7.890  0.4309E+01  0.2815E+01  0.1189E+02  0.1061E+02
      7.962  0.4171E+01  0.2961E+01  0.1218E+02  0.1082E+02
      8.033  0.3683E+01  0.2814E+01  0.1245E+02  0.1103E+02
      8.104  0.3247E+01  0.2593E+01  0.1268E+02  0.1121E+02
      8.176  0.2929E+01  0.2678E+01  0.1289E+02  0.1140E+02
      8.247  0.2717E+01  0.2827E+01  0.1308E+02  0.1160E+02
      8.319  0.2544E+01  0.2893E+01  0.1326E+02  0.1181E+02
      8.390  0.2399E+01  0.3037E+01  0.1344E+02  0.1203E+02
      8.461  0.2258E+01  0.3273E+01  0.1360E+02  0.1226E+02
      8.533  0.2110E+01  0.3300E+01  0.1375E+02  0.1250E+02
      8.604  0.1832E+01  0.3013E+01  0.1388E+02  0.1271E+02
      8.676  0.1339E+01  0.2646E+01  0.1398E+02  0.1290E+02
      8.747  0.8427E+00  0.2540E+01  0.1404E+02  0.1308E+02
      8.818  0.6024E+00  0.2437E+01  0.1408E+02  0.1326E+02
      8.890  0.6385E+00  0.2176E+01  0.1412E+02  0.1341E+02
      8.961  0.9915E+00  0.1980E+01  0.1420E+02  0.1355E+02
      9.032  0.1804E+01  0.1820E+01  0.1432E+02  0.1368E+02
      9.104  0.3299E+01  0.1612E+01  0.1456E+02  0.1380E+02
      9.175  0.5185E+01  0.1415E+01  0.1493E+02  0.1390E+02
      9.247  0.5567E+01  0.1038E+01  0.1533E+02  0.1397E+02
      9.318  0.4436E+01  0.5765E+00  0.1564E+02  0.1402E+02
      9.389  0.3567E+01  0.3523E+00  0.1590E+02  0.1404E+02
      9.461  0.3070E+01  0.3104E+00  0.1612E+02  0.1406E+02
      9.532  0.2811E+01  0.2895E+00  0.1632E+02  0.1408E+02
      9.604  0.2618E+01  0.3211E+00  0.1651E+02  0.1411E+02
      9.675  0.2340E+01  0.4702E+00  0.1667E+02  0.1414E+02
      9.746  0.2030E+01  0.6562E+00  0.1682E+02  0.1419E+02
      9.818  0.1866E+01  0.8167E+00  0.1695E+02  0.1425E+02
      9.889  0.1864E+01  0.1018E+01  0.1708E+02  0.1432E+02
      9.961  0.1829E+01  0.1316E+01  0.1722E+02  0.1441E+02
     10.032  0.1650E+01  0.1654E+01  0.1733E+02  0.1453E+02
     10.103  0.1505E+01  0.2178E+01  0.1744E+02  0.1469E+02
     10.175  0.1556E+01  0.3040E+01  0.1755E+02  0.1490E+02
     10.246  0.1645E+01  0.3944E+01  0.1767E+02  0.1519E+02
     10.317  0.1547E+01  0.4850E+01  0.1778E+02  0.1553E+02
     10.389  0.1292E+01  0.5343E+01  0.1787E+02  0.1591E+02
     10.460  0.1146E+01  0.5095E+01  0.1795E+02  0.1628E+02
     10.532  0.1209E+01  0.4921E+01  0.1804E+02  0.1663E+02
     10.603  0.1408E+01  0.4961E+01  0.1814E+02  0.1698E+02
     10.674  0.1543E+01  0.4756E+01  0.1825E+02  0.1732E+02
     10.746  0.1700E+01  0.4088E+01  0.1837E+02  0.1761E+02
     10.817  0.2041E+01  0.3287E+01  0.1852E+02  0.1785E+02
     10.889  0.2332E+01  0.2398E+01  0.1869E+02  0.1802E+02
     10.960  0.2624E+01  0.1864E+01  0.1887E+02  0.1815E+02
     11.031  0.2982E+01  0.1830E+01  0.1909E+02  0.1828E+02
     11.103  0.2987E+01  0.2094E+01  0.1930E+02  0.1843E+02
     11.174  0.2797E+01  0.2315E+01  0.1950E+02  0.1860E+02
     11.245  0.2570E+01  0.2226E+01  0.1968E+02  0.1876E+02
     11.317  0.2137E+01  0.2152E+01  0.1984E+02  0.1891E+02
     11.388  0.1715E+01  0.2269E+01  0.1996E+02  0.1907E+02
     11.460  0.1604E+01  0.2442E+01  0.2007E+02  0.1925E+02
     11.531  0.1676E+01  0.2524E+01  0.2019E+02  0.1943E+02
     11.602  0.1594E+01  0.2564E+01  0.2031E+02  0.1961E+02
     11.674  0.1600E+01  0.2424E+01  0.2042E+02  0.1979E+02
     11.745  0.1769E+01  0.1975E+01  0.2055E+02  0.1993E+02
     11.817  0.1787E+01  0.1652E+01  0.2067E+02  0.2005E+02
     11.888  0.1672E+01  0.1773E+01  0.2079E+02  0.2017E+02
     11.959  0.1620E+01  0.1900E+01  0.2091E+02  0.2031E+02
     12.031  0.1731E+01  0.1896E+01  0.2103E+02  0.2044E+02
     12.102  0.1926E+01  0.1801E+01  0.2117E+02  0.2057E+02
     12.173  0.2152E+01  0.1626E+01  0.2132E+02  0.2069E+02
     12.245  0.2334E+01  0.1558E+01  0.2149E+02  0.2080E+02
     12.316  0.2535E+01  0.1878E+01  0.2167E+02  0.2093E+02
     12.388  0.2626E+01  0.2232E+01  0.2186E+02  0.2109E+02
     12.459  0.2252E+01  0.2290E+01  0.2202E+02  0.2126E+02
     12.530  0.1810E+01  0.2256E+01  0.2215E+02  0.2142E+02
     12.602  0.1684E+01  0.2352E+01  0.2227E+02  0.2159E+02
     12.673  0.1757E+01  0.2435E+01  0.2240E+02  0.2176E+02
     12.745  0.1871E+01  0.2304E+01  0.2253E+02  0.2192E+02
     12.816  0.1963E+01  0.2245E+01  0.2267E+02  0.2208E+02
     12.887  0.1879E+01  0.2302E+01  0.2280E+02  0.2225E+02
     12.959  0.1608E+01  0.2167E+01  0.2292E+02  0.2240E+02
     13.030  0.1374E+01  0.1906E+01  0.2302E+02  0.2254E+02
     13.102  0.1376E+01  0.1981E+01  0.2312E+02  0.2268E+02
     13.173  0.1553E+01  0.2111E+01  0.2323E+02  0.2283E+02
     13.244  0.1884E+01  0.1982E+01  0.2336E+02  0.2297E+02
     13.316  0.2103E+01  0.1843E+01  0.2351E+02  0.2311E+02
     13.387  0.2044E+01  0.2049E+01  0.2366E+02  0.2325E+02
     13.458  0.1903E+01  0.2192E+01  0.2379E+02  0.2341E+02
     13.530  0.1876E+01  0.2109E+01  0.2393E+02  0.2356E+02
     13.601  0.2003E+01  0.1985E+01  0.2407E+02  0.2370E+02
     13.673  0.2062E+01  0.1830E+01  0.2422E+02  0.2383E+02
     13.744  0.2066E+01  0.1871E+01  0.2437E+02  0.2397E+02
     13.815  0.1980E+01  0.2103E+01  0.2451E+02  0.2412E+02
     13.887  0.1627E+01  0.2210E+01  0.2462E+02  0.2427E+02
     13.958  0.1242E+01  0.2022E+01  0.2471E+02  0.2442E+02
     14.030  0.1100E+01  0.1753E+01  0.2479E+02  0.2454E+02
     14.101  0.1226E+01  0.1511E+01  0.2488E+02  0.2465E+02
     14.172  0.1495E+01  0.1298E+01  0.2498E+02  0.2474E+02
     14.244  0.1654E+01  0.1214E+01  0.2510E+02  0.2483E+02
     14.315  0.1651E+01  0.1290E+01  0.2522E+02  0.2492E+02
     14.386  0.1602E+01  0.1451E+01  0.2534E+02  0.2503E+02
     14.458  0.1457E+01  0.1589E+01  0.2544E+02  0.2514E+02
     14.529  0.1347E+01  0.1489E+01  0.2554E+02  0.2525E+02
     14.601  0.1413E+01  0.1312E+01  0.2564E+02  0.2534E+02
     14.672  0.1527E+01  0.1428E+01  0.2575E+02  0.2544E+02
     14.743  0.1489E+01  0.1655E+01  0.2585E+02  0.2556E+02
     14.815  0.1424E+01  0.1680E+01  0.2595E+02  0.2568E+02
     14.886  0.1437E+01  0.1661E+01  0.2606E+02  0.2580E+02
     14.958  0.1629E+01  0.1630E+01  0.2617E+02  0.2592E+02
     15.029  0.1904E+01  0.1468E+01  0.2631E+02  0.2602E+02
     15.100  0.2043E+01  0.1431E+01  0.2645E+02  0.2612E+02
     15.172  0.1957E+01  0.1738E+01  0.2659E+02  0.2625E+02
     15.243  0.1716E+01  0.1901E+01  0.2672E+02  0.2638E+02
     15.315  0.1671E+01  0.1821E+01  0.2684E+02  0.2651E+02
     15.386  0.1781E+01  0.1781E+01  0.2696E+02  0.2664E+02
     15.457  0.1758E+01  0.1876E+01  0.2709E+02  0.2677E+02
     15.529  0.1677E+01  0.1993E+01  0.2721E+02  0.2692E+02
     15.600  0.1655E+01  0.1932E+01  0.2733E+02  0.2705E+02
     15.671  0.1600E+01  0.1748E+01  0.2744E+02  0.2718E+02
     15.743  0.1317E+01  0.1455E+01  0.2754E+02  0.2728E+02
     15.814  0.1025E+01  0.1327E+01  0.2761E+02  0.2738E+02
     15.886  0.9499E+00  0.1316E+01  0.2768E+02  0.2747E+02
     15.957  0.8542E+00  0.1192E+01  0.2774E+02  0.2756E+02
     16.028  0.6338E+00  0.1076E+01  0.2778E+02  0.2763E+02
     16.100  0.4203E+00  0.9037E+00  0.2781E+02  0.2770E+02
     16.171  0.3046E+00  0.6576E+00  0.2784E+02  0.2775E+02
     16.243  0.2472E+00  0.5127E+00  0.2785E+02  0.2778E+02
     16.314  0.2303E+00  0.4570E+00  0.2787E+02  0.2781E+02
     16.385  0.2331E+00  0.3810E+00  0.2789E+02  0.2784E+02
     16.457  0.2758E+00  0.3742E+00  0.2791E+02  0.2787E+02
     16.528  0.2896E+00  0.4276E+00  0.2793E+02  0.2790E+02
     16.599  0.2674E+00  0.3953E+00  0.2795E+02  0.2793E+02
     16.671  0.1837E+00  0.2920E+00  0.2796E+02  0.2795E+02
     16.742  0.8531E-01  0.1616E+00  0.2796E+02  0.2796E+02
     16.814  0.5053E-01  0.7145E-01  0.2797E+02  0.2797E+02
     16.885  0.7665E-01  0.5923E-01  0.2797E+02  0.2797E+02
     16.956  0.9567E-01  0.9013E-01  0.2798E+02  0.2798E+02
     17.028  0.6002E-01  0.9253E-01  0.2798E+02  0.2798E+02
     17.099  0.3308E-01  0.6454E-01  0.2799E+02  0.2799E+02
     17.171  0.4558E-01  0.5484E-01  0.2799E+02  0.2799E+02
     17.242  0.6604E-01  0.5111E-01  0.2800E+02  0.2799E+02
     17.313  0.4447E-01  0.4203E-01  0.2800E+02  0.2800E+02
     17.385  0.1580E-01  0.2144E-01  0.2800E+02  0.2800E+02
     17.456  0.4242E-02  0.6811E-02  0.2800E+02  0.2800E+02
     17.528  0.1047E-02  0.1770E-02  0.2800E+02  0.2800E+02
     17.599  0.2528E-03  0.3978E-03  0.2800E+02  0.2800E+02
     17.670  0.0000E+00  0.0000E+00  0.2800E+02  0.2800E+02
     17.742  0.0000E+00  0.0000E+00  0.2800E+02  0.2800E+02
     17.813  0.0000E+00  0.0000E+00  0.2800E+02  0.2800E+02
     17.884  0.0000E+00  0.0000E+00  0.2800E+02  0.2800E+02
     17.956  0.0000E+00  0.0000E+00  0.2800E+02  0.2800E+02
     18.027  0.0000E+00  0.0000E+00  0.2800E+02  0.2800E+02
     18.099  0.0000E+00  0.0000E+00  0.2800E+02  0.2800E+02
     18.170  0.0000E+00  0.0000E+00  0.2800E+02  0.2800E+02
     18.241  0.0000E+00  0.0000E+00  0.2800E+02  0.2800E+02
     18.24137682     -3.17467055  301      9.40640429      1.00000000
     -3.175  0.0000E+00  0.0000E+00  0.0000E+00  0.0000E+00  0.0000E+00  0.0000E+00  0.0000E+00  0.0000E+00  0.0000E+00  0.0000E+00  0.0000E+00  0.0000E+00  0.0000E+00  0.0000E+00  0.0000E+00  0.0000E+00  0.0000E+00  0.0000E+00
     -3.103  0.0000E+00  0.0000E+00  0.0000E+00  0.0000E+00  0.0000E+00  0.0000E+00  0.0000E+00  0.0000E+00  0.0000E+00  0.0000E+00  0.0000E+00  0.0000E+00  0.0000E+00  0.0000E+00  0.0000E+00  0.0000E+00  0.0000E+00  0.0000E+00
     -3.032  0.0000E+00  0.0000E+00  0.0000E+00  0.0000E+00  0.0000E+00  0.0000E+00  0.0000E+00  0.0000E+00  0.0000E+00  0.0000E+00  0.0000E+00  0.0000E+00  0.0000E+00  0.0000E+00  0.0000E+00  0.0000E+00  0.0000E+00  0.0000E+00
     -2.961  0.0000E+00  0.0000E+00  0.0000E+00  0.0000E+00  0.0000E+00  0.0000E+00  0.0000E+00  0.0000E+00  0.0000E+00  0.0000E+00  0.0000E+00  0.0000E+00  0.0000E+00  0.0000E+00  0.0000E+00  0.0000E+00  0.0000E+00  0.0000E+00
     -2.889  0.0000E+00  0.0000E+00  0.0000E+00  0.0000E+00  0.0000E+00  0.0000E+00  0.0000E+00  0.0000E+00  0.0000E+00  0.0000E+00  0.0000E+00  0.0000E+00  0.0000E+00  0.0000E+00  0.0000E+00  0.0000E+00  0.0000E+00  0.0000E+00
     -2.818  0.0000E+00  0.0000E+00  0.0000E+00  0.0000E+00  0.0000E+00  0.0000E+00  0.0000E+00  0.0000E+00  0.0000E+00  0.0000E+00  0.0000E+00  0.0000E+00  0.0000E+00  0.0000E+00  0.0000E+00  0.0000E+00  0.0000E+00  0.0000E+00
     -2.746  0.0000E+00  0.0000E+00  0.0000E+00  0.0000E+00  0.0000E+00  0.0000E+00  0.0000E+00  0.0000E+00  0.0000E+00  0.0000E+00  0.0000E+00  0.0000E+00  0.0000E+00  0.0000E+00  0.0000E+00  0.0000E+00  0.0000E+00  0.0000E+00
     -2.675  0.0000E+00  0.0000E+00  0.0000E+00  0.0000E+00  0.0000E+00  0.0000E+00  0.0000E+00  0.0000E+00  0.0000E+00  0.0000E+00  0.0000E+00  0.0000E+00  0.0000E+00  0.0000E+00  0.0000E+00  0.0000E+00  0.0000E+00  0.0000E+00
     -2.604  0.3193E-06  0.6107E-06  0.1376E-17  0.1123E-08  0.1144E-08  0.1449E-08  0.1376E-17  0.1123E-08  0.1323E-14  0.5671E-16  0.1621E-14  0.4872E-15  0.1278E-10  0.3420E-09  0.1621E-14  0.4872E-15  0.1941E-15  0.4563E-11
     -2.532  0.2396E-05  0.2887E-05  0.6742E-08  0.9475E-08  0.8634E-08  0.1095E-07  0.6742E-08  0.9475E-08  0.4268E-14  0.3761E-10  0.3354E-10  0.4074E-10  0.1618E-09  0.1655E-08  0.3354E-10  0.4074E-10  0.3286E-10  0.2850E-10
     -2.461  0.1021E-04  0.1196E-04  0.3609E-07  0.4115E-07  0.4048E-07  0.5145E-07  0.3609E-07  0.4115E-07  0.2295E-09  0.2361E-09  0.1803E-09  0.2193E-09  0.7958E-09  0.6819E-08  0.1803E-09  0.2193E-09  0.1041E-09  0.1047E-09
     -2.389  0.4140E-04  0.4946E-04  0.1428E-06  0.1725E-06  0.1765E-06  0.2244E-06  0.1428E-06  0.1725E-06  0.7267E-09  0.8663E-09  0.7978E-09  0.9726E-09  0.3184E-08  0.2814E-07  0.7978E-09  0.9726E-09  0.5413E-09  0.5451E-09
     -2.318  0.1690E-03  0.2006E-03  0.6164E-06  0.7433E-06  0.7354E-06  0.9326E-06  0.6164E-06  0.7433E-06  0.3449E-08  0.4118E-08  0.3641E-08  0.4439E-08  0.1336E-07  0.1151E-06  0.3641E-08  0.4439E-08  0.2543E-08  0.2557E-08
     -2.247  0.6366E-03  0.7401E-03  0.2483E-05  0.2967E-05  0.2912E-05  0.3652E-05  0.2483E-05  0.2967E-05  0.1483E-07  0.1767E-07  0.1499E-07  0.1819E-07  0.5145E-07  0.4276E-06  0.1499E-07  0.1819E-07  0.1015E-07  0.1011E-07
     -2.175  0.1979E-02  0.2201E-02  0.9010E-05  0.1047E-04  0.1036E-04  0.1263E-04  0.9010E-05  0.1047E-04  0.5770E-07  0.6784E-07  0.5870E-07  0.7020E-07  0.1689E-06  0.1291E-05  0.5870E-07  0.7020E-07  0.3674E-07  0.3564E-07
     -2.104  0.4440E-02  0.4653E-02  0.2578E-04  0.2844E-04  0.2934E-04  0.3427E-04  0.2578E-04  0.2844E-04  0.2020E-06  0.2290E-06  0.1995E-06  0.2301E-06  0.4243E-06  0.2797E-05  0.1995E-06  0.2301E-06  0.1077E-06  0.1007E-06
     -2.032  0.6870E-02  0.6831E-02  0.5257E-04  0.5534E-04  0.6397E-04  0.7222E-04  0.5257E-04  0.5534E-04  0.5217E-06  0.5594E-06  0.5193E-06  0.5762E-06  0.7959E-06  0.4217E-05  0.5193E-06  0.5762E-06  0.2728E-06  0.2565E-06
     -1.961  0.8467E-02  0.8352E-02  0.8941E-04  0.9437E-04  0.1161E-03  0.1281E-03  0.8941E-04  0.9437E-04  0.1026E-05  0.1097E-05  0.1132E-05  0.1243E-05  0.1361E-05  0.5525E-05  0.1132E-05  0.1243E-05  0.7412E-06  0.6972E-06
     -1.890  0.1073E-01  0.1064E-01  0.1577E-03  0.1652E-03  0.1795E-03  0.1916E-03  0.1577E-03  0.1652E-03  0.2196E-05  0.2383E-05  0.2290E-05  0.2455E-05  0.2483E-05  0.8267E-05  0.2290E-05  0.2455E-05  0.1688E-05  0.1484E-05
     -1.818  0.1266E-01  0.1210E-01  0.2316E-03  0.2291E-03  0.2322E-03  0.2448E-03  0.2316E-03  0.2291E-03  0.4173E-05  0.4247E-05  0.3852E-05  0.4000E-05  0.3779E-05  0.1062E-04  0.3852E-05  0.4000E-05  0.2505E-05  0.2055E-05
     -1.747  0.1231E-01  0.1167E-01  0.2535E-03  0.2465E-03  0.3137E-03  0.3430E-03  0.2535E-03  0.2465E-03  0.5626E-05  0.5602E-05  0.5893E-05  0.6198E-05  0.4595E-05  0.1012E-04  0.5893E-05  0.6198E-05  0.2833E-05  0.2324E-05
     -1.676  0.1309E-01  0.1278E-01  0.3033E-03  0.3083E-03  0.4696E-03  0.5012E-03  0.3033E-03  0.3083E-03  0.8403E-05  0.8690E-05  0.9394E-05  0.9718E-05  0.6459E-05  0.1165E-04  0.9394E-05  0.9718E-05  0.3865E-05  0.3374E-05
     -1.604  0.1477E-01  0.1412E-01  0.4190E-03  0.4229E-03  0.5434E-03  0.5439E-03  0.4190E-03  0.4229E-03  0.1286E-04  0.1270E-04  0.1231E-04  0.1218E-04  0.9988E-05  0.1729E-04  0.1231E-04  0.1218E-04  0.7147E-05  0.6390E-05
     -1.533  0.1527E-01  0.1466E-01  0.5437E-03  0.5449E-03  0.5187E-03  0.5362E-03  0.5437E-03  0.5449E-03  0.1593E-04  0.1566E-04  0.1504E-04  0.1556E-04  0.1363E-04  0.2342E-04  0.1504E-04  0.1556E-04  0.1285E-04  0.1097E-04
     -1.461  0.1673E-01  0.1617E-01  0.6614E-03  0.6483E-03  0.6725E-03  0.7385E-03  0.6614E-03  0.6483E-03  0.2077E-04  0.2058E-04  0.2346E-04  0.2455E-04  0.1670E-04  0.2618E-04  0.2346E-04  0.2455E-04  0.1666E-04  0.1331E-04
     -1.390  0.1762E-01  0.1674E-01  0.7084E-03  0.6856E-03  0.9368E-03  0.9926E-03  0.7084E-03  0.6856E-03  0.2753E-04  0.2766E-04  0.3245E-04  0.3211E-04  0.2035E-04  0.2751E-04  0.3245E-04  0.3211E-04  0.1658E-04  0.1296E-04
     -1.319  0.1754E-01  0.1649E-01  0.7634E-03  0.7411E-03  0.1062E-02  0.1083E-02  0.7634E-03  0.7411E-03  0.4052E-04  0.4056E-04  0.3566E-04  0.3463E-04  0.2735E-04  0.3345E-04  0.3566E-04  0.3463E-04  0.1619E-04  0.1262E-04
     -1.247  0.1629E-01  0.1508E-01  0.7827E-03  0.7481E-03  0.1062E-02  0.1076E-02  0.7827E-03  0.7481E-03  0.4931E-04  0.4619E-04  0.3956E-04  0.3993E-04  0.2999E-04  0.3386E-04  0.3956E-04  0.3993E-04  0.1602E-04  0.1291E-04
     -1.176  0.1573E-01  0.1532E-01  0.8393E-03  0.8484E-03  0.1159E-02  0.1235E-02  0.8393E-03  0.8484E-03  0.4794E-04  0.4549E-04  0.5463E-04  0.5731E-04  0.2943E-04  0.3494E-04  0.5463E-04  0.5731E-04  0.2334E-04  0.2079E-04
     -1.104  0.1905E-01  0.1859E-01  0.1142E-02  0.1154E-02  0.1461E-02  0.1533E-02  0.1142E-02  0.1154E-02  0.5544E-04  0.5408E-04  0.7752E-04  0.7704E-04  0.4075E-04  0.5089E-04  0.7752E-04  0.7704E-04  0.4380E-04  0.3754E-04
     -1.033  0.2028E-01  0.1882E-01  0.1360E-02  0.1311E-02  0.1499E-02  0.1497E-02  0.1360E-02  0.1311E-02  0.6972E-04  0.6882E-04  0.7995E-04  0.7422E-04  0.5626E-04  0.6823E-04  0.7995E-04  0.7422E-04  0.5996E-04  0.4742E-04
     -0.962  0.1894E-01  0.1801E-01  0.1403E-02  0.1366E-02  0.1470E-02  0.1595E-02  0.1403E-02  0.1366E-02  0.9466E-04  0.9468E-04  0.7754E-04  0.7849E-04  0.6784E-04  0.7879E-04  0.7754E-04  0.7849E-04  0.5986E-04  0.4625E-04
     -0.890  0.2063E-01  0.1996E-01  0.1579E-02  0.1557E-02  0.1957E-02  0.2125E-02  0.1579E-02  0.1557E-02  0.1286E-03  0.1261E-03  0.1089E-03  0.1131E-03  0.8200E-04  0.8844E-04  0.1089E-03  0.1131E-03  0.6097E-04  0.4800E-04
     -0.819  0.2141E-01  0.1968E-01  0.1674E-02  0.1574E-02  0.2297E-02  0.2344E-02  0.1674E-02  0.1574E-02  0.1477E-03  0.1360E-03  0.1395E-03  0.1381E-03  0.8756E-04  0.8613E-04  0.1395E-03  0.1381E-03  0.6174E-04  0.4676E-04
     -0.748  0.1861E-01  0.1700E-01  0.1469E-02  0.1372E-02  0.2359E-02  0.2447E-02  0.1469E-02  0.1372E-02  0.1284E-03  0.1154E-03  0.1579E-03  0.1568E-03  0.7687E-04  0.7090E-04  0.1579E-03  0.1568E-03  0.5562E-04  0.4275E-04
     -0.676  0.1739E-01  0.1626E-01  0.1439E-02  0.1405E-02  0.2526E-02  0.2588E-02  0.1439E-02  0.1405E-02  0.1241E-03  0.1208E-03  0.1825E-03  0.1787E-03  0.7630E-04  0.7162E-04  0.1825E-03  0.1787E-03  0.6132E-04  0.4882E-04
     -0.605  0.1760E-01  0.1652E-01  0.1661E-02  0.1655E-02  0.2457E-02  0.2462E-02  0.1661E-02  0.1655E-02  0.1680E-03  0.1706E-03  0.1954E-03  0.1856E-03  0.8722E-04  0.9182E-04  0.1954E-03  0.1856E-03  0.7555E-04  0.6107E-04
     -0.533  0.1892E-01  0.1828E-01  0.2106E-02  0.2122E-02  0.2355E-02  0.2605E-02  0.2106E-02  0.2122E-02  0.2453E-03  0.2402E-03  0.1952E-03  0.1903E-03  0.1222E-03  0.1426E-03  0.1952E-03  0.1903E-03  0.1077E-03  0.9060E-04
     -0.462  0.2122E-01  0.2043E-01  0.2552E-02  0.2504E-02  0.2943E-02  0.3427E-02  0.2552E-02  0.2504E-02  0.2814E-03  0.2598E-03  0.2248E-03  0.2344E-03  0.1718E-03  0.1839E-03  0.2248E-03  0.2344E-03  0.1562E-03  0.1260E-03
     -0.391  0.2243E-01  0.2104E-01  0.2703E-02  0.2611E-02  0.3923E-02  0.4210E-02  0.2703E-02  0.2611E-02  0.2729E-03  0.2530E-03  0.3034E-03  0.3124E-03  0.1918E-03  0.1837E-03  0.3034E-03  0.3124E-03  0.1800E-03  0.1393E-03
     -0.319  0.2226E-01  0.2028E-01  0.2772E-02  0.2641E-02  0.4287E-02  0.4413E-02  0.2772E-02  0.2641E-02  0.2824E-03  0.2653E-03  0.3677E-03  0.3583E-03  0.1897E-03  0.1785E-03  0.3677E-03  0.3583E-03  0.1895E-03  0.1438E-03
     -0.248  0.1999E-01  0.1795E-01  0.2627E-02  0.2449E-02  0.4261E-02  0.4667E-02  0.2627E-02  0.2449E-02  0.3019E-03  0.2867E-03  0.3779E-03  0.3705E-03  0.1829E-03  0.1704E-03  0.3779E-03  0.3705E-03  0.1772E-03  0.1277E-03
     -0.176  0.1832E-01  0.1691E-01  0.2498E-02  0.2434E-02  0.4742E-02  0.5052E-02  0.2498E-02  0.2434E-02  0.3574E-03  0.3529E-03  0.4271E-03  0.4250E-03  0.1713E-03  0.1539E-03  0.4271E-03  0.4250E-03  0.1464E-03  0.1095E-03
     -0.105  0.1871E-01  0.1689E-01  0.2798E-02  0.2682E-02  0.4875E-02  0.4784E-02  0.2798E-02  0.2682E-02  0.4680E-03  0.4436E-03  0.4819E-03  0.4559E-03  0.1622E-03  0.1581E-03  0.4819E-03  0.4559E-03  0.1514E-03  0.1151E-03
     -0.034  0.1646E-01  0.1478E-01  0.2685E-02  0.2504E-02  0.4491E-02  0.4708E-02  0.2685E-02  0.2504E-02  0.4998E-03  0.4601E-03  0.4575E-03  0.4615E-03  0.1652E-03  0.1709E-03  0.4575E-03  0.4615E-03  0.1470E-03  0.1075E-03
      0.038  0.1555E-01  0.1494E-01  0.2666E-02  0.2656E-02  0.5057E-02  0.5667E-02  0.2666E-02  0.2656E-02  0.5425E-03  0.5197E-03  0.5374E-03  0.5802E-03  0.1989E-03  0.2019E-03  0.5374E-03  0.5802E-03  0.1482E-03  0.1178E-03
      0.109  0.1779E-01  0.1685E-01  0.3238E-02  0.3249E-02  0.6159E-02  0.5964E-02  0.3238E-02  0.3249E-02  0.6090E-03  0.5688E-03  0.7248E-03  0.7058E-03  0.2368E-03  0.2320E-03  0.7248E-03  0.7058E-03  0.2134E-03  0.1769E-03
      0.181  0.1941E-01  0.1789E-01  0.3906E-02  0.3843E-02  0.5872E-02  0.5327E-02  0.3906E-02  0.3843E-02  0.6175E-03  0.5659E-03  0.8071E-03  0.7521E-03  0.2582E-03  0.2626E-03  0.8071E-03  0.7521E-03  0.3257E-03  0.2603E-03
      0.252  0.1887E-01  0.1679E-01  0.4144E-02  0.3890E-02  0.5194E-02  0.5336E-02  0.4144E-02  0.3890E-02  0.5892E-03  0.5281E-03  0.8172E-03  0.7894E-03  0.2697E-03  0.2740E-03  0.8172E-03  0.7894E-03  0.3938E-03  0.2918E-03
      0.323  0.1625E-01  0.1429E-01  0.3855E-02  0.3648E-02  0.5019E-02  0.4930E-02  0.3855E-02  0.3648E-02  0.5893E-03  0.5615E-03  0.7950E-03  0.7283E-03  0.2694E-03  0.2784E-03  0.7950E-03  0.7283E-03  0.3793E-03  0.2789E-03
      0.395  0.1552E-01  0.1451E-01  0.4118E-02  0.4076E-02  0.4635E-02  0.4461E-02  0.4118E-02  0.4076E-02  0.8123E-03  0.8153E-03  0.7626E-03  0.7232E-03  0.3122E-03  0.3360E-03  0.7626E-03  0.7232E-03  0.3879E-03  0.2875E-03