   8   8   1   0
  0.1709592E+02  0.3999499E-09  0.3999499E-09  0.8550102E-09  0.5000000E-15
  1.000000000000000E-004
  CAR 
 unknown system                          
     14.01602281     -4.11504836  301      6.67873703      1.00000000
     -4.115  0.0000E+00  0.0000E+00  0.0000E+00  0.0000E+00
     -4.055  0.0000E+00  0.0000E+00  0.0000E+00  0.0000E+00
     -3.994  0.0000E+00  0.0000E+00  0.0000E+00  0.0000E+00
     -3.934  0.0000E+00  0.0000E+00  0.0000E+00  0.0000E+00
     -3.873  0.0000E+00  0.0000E+00  0.0000E+00  0.0000E+00
     -3.813  0.0000E+00  0.0000E+00  0.0000E+00  0.0000E+00
     -3.752  0.0000E+00  0.0000E+00  0.0000E+00  0.0000E+00
     -3.692  0.0000E+00  0.1476E-04  0.0000E+00  0.8923E-06
     -3.632  0.7403E-05  0.5961E-04  0.4474E-06  0.4495E-05
     -3.571  0.5588E-04  0.1987E-03  0.3825E-05  0.1650E-04
     -3.511  0.1687E-03  0.6648E-03  0.1402E-04  0.5668E-04
     -3.450  0.5642E-03  0.2234E-02  0.4812E-04  0.1917E-03
     -3.390  0.1898E-02  0.7159E-02  0.1629E-03  0.6244E-03
     -3.329  0.6117E-02  0.2115E-01  0.5326E-03  0.1903E-02
     -3.269  0.1833E-01  0.5259E-01  0.1640E-02  0.5081E-02
     -3.208  0.4683E-01  0.1004E+00  0.4470E-02  0.1115E-01
     -3.148  0.9274E-01  0.1470E+00  0.1008E-01  0.2004E-01
     -3.088  0.1397E+00  0.1882E+00  0.1852E-01  0.3141E-01
     -3.027  0.1796E+00  0.2351E+00  0.2937E-01  0.4562E-01
     -2.967  0.2258E+00  0.2643E+00  0.4302E-01  0.6159E-01
     -2.906  0.2592E+00  0.2749E+00  0.5869E-01  0.7821E-01
     -2.846  0.2684E+00  0.3043E+00  0.7491E-01  0.9660E-01
     -2.785  0.2942E+00  0.3331E+00  0.9269E-01  0.1167E+00
     -2.725  0.3258E+00  0.3603E+00  0.1124E+00  0.1385E+00
     -2.665  0.3494E+00  0.3950E+00  0.1335E+00  0.1624E+00
     -2.604  0.3830E+00  0.4105E+00  0.1567E+00  0.1872E+00
     -2.544  0.4035E+00  0.4064E+00  0.1811E+00  0.2118E+00
     -2.483  0.4048E+00  0.3966E+00  0.2055E+00  0.2358E+00
     -2.423  0.3914E+00  0.4368E+00  0.2292E+00  0.2622E+00
     -2.362  0.4142E+00  0.4949E+00  0.2542E+00  0.2921E+00
     -2.302  0.4789E+00  0.5028E+00  0.2832E+00  0.3225E+00
     -2.242  0.4971E+00  0.5260E+00  0.3132E+00  0.3543E+00
     -2.181  0.5043E+00  0.5630E+00  0.3437E+00  0.3884E+00
     -2.121  0.5479E+00  0.5421E+00  0.3769E+00  0.4211E+00
     -2.060  0.5457E+00  0.5112E+00  0.4099E+00  0.4520E+00
     -2.000  0.5078E+00  0.5141E+00  0.4406E+00  0.4831E+00
     -1.939  0.5035E+00  0.5552E+00  0.4710E+00  0.5167E+00
     -1.879  0.5270E+00  0.6381E+00  0.5029E+00  0.5553E+00
     -1.818  0.5871E+00  0.7030E+00  0.5384E+00  0.5978E+00
     -1.758  0.6604E+00  0.7235E+00  0.5783E+00  0.6415E+00
     -1.698  0.7033E+00  0.7075E+00  0.6209E+00  0.6843E+00
     -1.637  0.6984E+00  0.6776E+00  0.6631E+00  0.7253E+00
     -1.577  0.6641E+00  0.6734E+00  0.7032E+00  0.7660E+00
     -1.516  0.6658E+00  0.6585E+00  0.7435E+00  0.8058E+00
     -1.456  0.6615E+00  0.6646E+00  0.7835E+00  0.8460E+00
     -1.395  0.6289E+00  0.7241E+00  0.8215E+00  0.8898E+00
     -1.335  0.6784E+00  0.7727E+00  0.8626E+00  0.9365E+00
     -1.275  0.7644E+00  0.7885E+00  0.9088E+00  0.9842E+00
     -1.214  0.7899E+00  0.7427E+00  0.9565E+00  0.1029E+01
     -1.154  0.7556E+00  0.7107E+00  0.1002E+01  0.1072E+01
     -1.093  0.7150E+00  0.7496E+00  0.1045E+01  0.1117E+01
     -1.033  0.7258E+00  0.7973E+00  0.1089E+01  0.1166E+01
     -0.972  0.7563E+00  0.8002E+00  0.1135E+01  0.1214E+01
     -0.912  0.7952E+00  0.7560E+00  0.1183E+01  0.1260E+01
     -0.851  0.7926E+00  0.7433E+00  0.1231E+01  0.1305E+01
     -0.791  0.7488E+00  0.7422E+00  0.1276E+01  0.1350E+01
     -0.731  0.7442E+00  0.7547E+00  0.1321E+01  0.1395E+01
     -0.670  0.7441E+00  0.8388E+00  0.1366E+01  0.1446E+01
     -0.610  0.7654E+00  0.9036E+00  0.1413E+01  0.1501E+01
     -0.549  0.8876E+00  0.8840E+00  0.1466E+01  0.1554E+01
     -0.489  0.9762E+00  0.8391E+00  0.1525E+01  0.1605E+01
     -0.428  0.9387E+00  0.7418E+00  0.1582E+01  0.1650E+01
     -0.368  0.8479E+00  0.6620E+00  0.1633E+01  0.1690E+01
     -0.308  0.7552E+00  0.6825E+00  0.1679E+01  0.1731E+01
     -0.247  0.7291E+00  0.7951E+00  0.1723E+01  0.1779E+01
     -0.187  0.8007E+00  0.8362E+00  0.1772E+01  0.1830E+01
     -0.126  0.8810E+00  0.8126E+00  0.1825E+01  0.1879E+01
     -0.066  0.8570E+00  0.8764E+00  0.1877E+01  0.1932E+01
     -0.005  0.8727E+00  0.1022E+01  0.1930E+01  0.1994E+01
      0.055  0.9737E+00  0.1120E+01  0.1988E+01  0.2061E+01
      0.116  0.1047E+01  0.1078E+01  0.2052E+01  0.2126E+01
      0.176  0.1086E+01  0.1036E+01  0.2117E+01  0.2189E+01
      0.236  0.1091E+01  0.1039E+01  0.2183E+01  0.2252E+01
      0.297  0.1097E+01  0.1003E+01  0.2250E+01  0.2313E+01
      0.357  0.1039E+01  0.9759E+00  0.2312E+01  0.2372E+01
      0.418  0.9626E+00  0.1002E+01  0.2371E+01  0.2432E+01
      0.478  0.9778E+00  0.1049E+01  0.2430E+01  0.2496E+01
      0.539  0.1068E+01  0.1026E+01  0.2494E+01  0.2558E+01
      0.599  0.1066E+01  0.9785E+00  0.2559E+01  0.2617E+01
      0.659  0.9976E+00  0.9648E+00  0.2619E+01  0.2675E+01
      0.720  0.9669E+00  0.9412E+00  0.2678E+01  0.2732E+01
      0.780  0.9544E+00  0.9494E+00  0.2735E+01  0.2790E+01
      0.841  0.9918E+00  0.9271E+00  0.2795E+01  0.2846E+01
      0.901  0.1004E+01  0.8156E+00  0.2856E+01  0.2895E+01
      0.962  0.8919E+00  0.7359E+00  0.2910E+01  0.2939E+01
      1.022  0.8205E+00  0.8079E+00  0.2960E+01  0.2988E+01
      1.083  0.9209E+00  0.9284E+00  0.3015E+01  0.3044E+01
      1.143  0.1029E+01  0.9312E+00  0.3078E+01  0.3101E+01
      1.203  0.1010E+01  0.9392E+00  0.3139E+01  0.3158E+01
      1.264  0.9969E+00  0.9573E+00  0.3199E+01  0.3215E+01
      1.324  0.1024E+01  0.9136E+00  0.3261E+01  0.3271E+01
      1.385  0.1017E+01  0.9399E+00  0.3322E+01  0.3328E+01
      1.445  0.1026E+01  0.1057E+01  0.3384E+01  0.3391E+01
      1.506  0.1166E+01  0.1148E+01  0.3455E+01  0.3461E+01
      1.566  0.1345E+01  0.1149E+01  0.3536E+01  0.3530E+01
      1.626  0.1367E+01  0.1208E+01  0.3619E+01  0.3603E+01
      1.687  0.1322E+01  0.1315E+01  0.3699E+01  0.3683E+01
      1.747  0.1346E+01  0.1382E+01  0.3780E+01  0.3766E+01
      1.808  0.1358E+01  0.1398E+01  0.3862E+01  0.3851E+01
      1.868  0.1273E+01  0.1299E+01  0.3939E+01  0.3930E+01
      1.929  0.1217E+01  0.1138E+01  0.4013E+01  0.3998E+01
      1.989  0.1200E+01  0.1040E+01  0.4086E+01  0.4061E+01
      2.050  0.1160E+01  0.9904E+00  0.4156E+01  0.4121E+01
      2.110  0.1203E+01  0.1019E+01  0.4228E+01  0.4183E+01
      2.170  0.1320E+01  0.1110E+01  0.4308E+01  0.4250E+01
      2.231  0.1416E+01  0.1226E+01  0.4394E+01  0.4324E+01
      2.291  0.1454E+01  0.1352E+01  0.4482E+01  0.4406E+01
      2.352  0.1384E+01  0.1373E+01  0.4566E+01  0.4489E+01
      2.412  0.1289E+01  0.1300E+01  0.4644E+01  0.4568E+01
      2.473  0.1278E+01  0.1249E+01  0.4721E+01  0.4643E+01
      2.533  0.1286E+01  0.1234E+01  0.4799E+01  0.4718E+01
      2.593  0.1287E+01  0.1186E+01  0.4876E+01  0.4789E+01
      2.654  0.1326E+01  0.1072E+01  0.4957E+01  0.4854E+01
      2.714  0.1312E+01  0.1034E+01  0.5036E+01  0.4917E+01
      2.775  0.1303E+01  0.1104E+01  0.5115E+01  0.4983E+01
      2.835  0.1362E+01  0.1162E+01  0.5197E+01  0.5054E+01
      2.896  0.1401E+01  0.1225E+01  0.5282E+01  0.5128E+01
      2.956  0.1433E+01  0.1270E+01  0.5369E+01  0.5205E+01
      3.017  0.1460E+01  0.1302E+01  0.5457E+01  0.5283E+01
      3.077  0.1484E+01  0.1415E+01  0.5547E+01  0.5369E+01
      3.137  0.1540E+01  0.1468E+01  0.5640E+01  0.5458E+01
      3.198  0.1628E+01  0.1397E+01  0.5738E+01  0.5542E+01
      3.258  0.1691E+01  0.1360E+01  0.5840E+01  0.5624E+01
      3.319  0.1629E+01  0.1330E+01  0.5939E+01  0.5705E+01
      3.379  0.1473E+01  0.1343E+01  0.6028E+01  0.5786E+01
      3.440  0.1426E+01  0.1459E+01  0.6114E+01  0.5874E+01
      3.500  0.1574E+01  0.1572E+01  0.6209E+01  0.5969E+01
      3.560  0.1757E+01  0.1553E+01  0.6316E+01  0.6063E+01
      3.621  0.1924E+01  0.1530E+01  0.6432E+01  0.6156E+01
      3.681  0.2069E+01  0.1541E+01  0.6557E+01  0.6249E+01
      3.742  0.2076E+01  0.1530E+01  0.6683E+01  0.6341E+01
      3.802  0.1994E+01  0.1488E+01  0.6803E+01  0.6431E+01
      3.863  0.2062E+01  0.1434E+01  0.6928E+01  0.6518E+01
      3.923  0.2282E+01  0.1428E+01  0.7066E+01  0.6604E+01
      3.983  0.2317E+01  0.1523E+01  0.7206E+01  0.6697E+01
      4.044  0.2107E+01  0.1591E+01  0.7333E+01  0.6793E+01
      4.104  0.1938E+01  0.1590E+01  0.7451E+01  0.6889E+01
      4.165  0.1974E+01  0.1673E+01  0.7570E+01  0.6990E+01
      4.225  0.2251E+01  0.1801E+01  0.7706E+01  0.7099E+01
      4.286  0.2720E+01  0.1799E+01  0.7871E+01  0.7208E+01
      4.346  0.3176E+01  0.1576E+01  0.8063E+01  0.7303E+01
      4.407  0.3426E+01  0.1429E+01  0.8270E+01  0.7389E+01
      4.467  0.3516E+01  0.1558E+01  0.8482E+01  0.7484E+01
      4.527  0.3644E+01  0.1758E+01  0.8703E+01  0.7590E+01
      4.588  0.3906E+01  0.1861E+01  0.8939E+01  0.7703E+01
      4.648  0.4426E+01  0.1888E+01  0.9206E+01  0.7817E+01
      4.709  0.4939E+01  0.1906E+01  0.9505E+01  0.7932E+01
      4.769  0.5023E+01  0.2008E+01  0.9809E+01  0.8053E+01
      4.830  0.4877E+01  0.2160E+01  0.1010E+02  0.8184E+01
      4.890  0.4811E+01  0.2225E+01  0.1039E+02  0.8318E+01
      4.950  0.4731E+01  0.2150E+01  0.1068E+02  0.8448E+01
      5.011  0.4887E+01  0.2052E+01  0.1098E+02  0.8573E+01
      5.071  0.5457E+01  0.1983E+01  0.1131E+02  0.8692E+01
      5.132  0.6203E+01  0.2004E+01  0.1168E+02  0.8814E+01
      5.192  0.6546E+01  0.2140E+01  0.1208E+02  0.8943E+01
      5.253  0.6268E+01  0.2299E+01  0.1246E+02  0.9082E+01
      5.313  0.5680E+01  0.2508E+01  0.1280E+02  0.9234E+01
      5.374  0.5007E+01  0.2793E+01  0.1310E+02  0.9403E+01
      5.434  0.4411E+01  0.2940E+01  0.1337E+02  0.9580E+01
      5.494  0.3866E+01  0.2954E+01  0.1360E+02  0.9759E+01
      5.555  0.3143E+01  0.2822E+01  0.1379E+02  0.9930E+01
      5.615  0.2223E+01  0.2566E+01  0.1393E+02  0.1008E+02
      5.676  0.1487E+01  0.2404E+01  0.1402E+02  0.1023E+02
      5.736  0.1462E+01  0.2420E+01  0.1411E+02  0.1038E+02
      5.797  0.2373E+01  0.2609E+01  0.1425E+02  0.1053E+02
      5.857  0.4250E+01  0.2931E+01  0.1451E+02  0.1071E+02
      5.917  0.6099E+01  0.3025E+01  0.1488E+02  0.1089E+02
      5.978  0.6138E+01  0.2703E+01  0.1525E+02  0.1106E+02
      6.038  0.4973E+01  0.2367E+01  0.1555E+02  0.1120E+02
      6.099  0.4017E+01  0.2248E+01  0.1579E+02  0.1134E+02
      6.159  0.3431E+01  0.2332E+01  0.1600E+02  0.1148E+02
      6.220  0.3087E+01  0.2445E+01  0.1618E+02  0.1163E+02
      6.280  0.2832E+01  0.2459E+01  0.1636E+02  0.1177E+02
      6.341  0.2483E+01  0.2509E+01  0.1651E+02  0.1193E+02
      6.401  0.2119E+01  0.2704E+01  0.1663E+02  0.1209E+02
      6.461  0.1827E+01  0.2899E+01  0.1675E+02  0.1227E+02
      6.522  0.1632E+01  0.3002E+01  0.1684E+02  0.1245E+02
      6.582  0.1589E+01  0.2988E+01  0.1694E+02  0.1263E+02
      6.643  0.1701E+01  0.2807E+01  0.1704E+02  0.1280E+02
      6.703  0.1817E+01  0.2595E+01  0.1715E+02  0.1295E+02
      6.764  0.1741E+01  0.2465E+01  0.1726E+02  0.1310E+02
      6.824  0.1557E+01  0.2284E+01  0.1735E+02  0.1324E+02
      6.884  0.1537E+01  0.2035E+01  0.1745E+02  0.1336E+02
      6.945  0.1715E+01  0.1866E+01  0.1755E+02  0.1348E+02
      7.005  0.1942E+01  0.1808E+01  0.1767E+02  0.1359E+02
      7.066  0.2205E+01  0.1684E+01  0.1780E+02  0.1369E+02
      7.126  0.2558E+01  0.1543E+01  0.1795E+02  0.1378E+02
      7.187  0.3140E+01  0.1493E+01  0.1814E+02  0.1387E+02
      7.247  0.3761E+01  0.1422E+01  0.1837E+02  0.1396E+02
      7.308  0.3875E+01  0.1211E+01  0.1861E+02  0.1403E+02
      7.368  0.3530E+01  0.9694E+00  0.1882E+02  0.1409E+02
      7.428  0.3092E+01  0.9335E+00  0.1901E+02  0.1415E+02
      7.489  0.2619E+01  0.1095E+01  0.1916E+02  0.1421E+02
      7.549  0.2356E+01  0.1341E+01  0.1931E+02  0.1429E+02
      7.610  0.2407E+01  0.1656E+01  0.1945E+02  0.1439E+02
      7.670  0.2516E+01  0.2041E+01  0.1961E+02  0.1452E+02
      7.731  0.2356E+01  0.2474E+01  0.1975E+02  0.1467E+02
      7.791  0.2011E+01  0.3173E+01  0.1987E+02  0.1486E+02
      7.851  0.1776E+01  0.4248E+01  0.1998E+02  0.1512E+02
      7.912  0.1690E+01  0.5294E+01  0.2008E+02  0.1544E+02
      7.972  0.1739E+01  0.5970E+01  0.2018E+02  0.1580E+02
      8.033  0.1875E+01  0.6146E+01  0.2030E+02  0.1617E+02
      8.093  0.2080E+01  0.5928E+01  0.2042E+02  0.1653E+02
      8.154  0.2243E+01  0.5701E+01  0.2056E+02  0.1687E+02
      8.214  0.2261E+01  0.5758E+01  0.2070E+02  0.1722E+02
      8.275  0.2140E+01  0.5866E+01  0.2083E+02  0.1757E+02
      8.335  0.1918E+01  0.5536E+01  0.2094E+02  0.1791E+02
      8.395  0.1802E+01  0.5141E+01  0.2105E+02  0.1822E+02
      8.456  0.1907E+01  0.5011E+01  0.2117E+02  0.1852E+02
      8.516  0.2012E+01  0.4617E+01  0.2129E+02  0.1880E+02
      8.577  0.2069E+01  0.3873E+01  0.2141E+02  0.1904E+02
      8.637  0.2238E+01  0.3341E+01  0.2155E+02  0.1924E+02
      8.698  0.2401E+01  0.3366E+01  0.2169E+02  0.1944E+02
      8.758  0.2403E+01  0.3573E+01  0.2184E+02  0.1966E+02
      8.818  0.2304E+01  0.3536E+01  0.2198E+02  0.1987E+02
      8.879  0.2194E+01  0.3294E+01  0.2211E+02  0.2007E+02
      8.939  0.2154E+01  0.3021E+01  0.2224E+02  0.2025E+02
      9.000  0.2239E+01  0.2904E+01  0.2238E+02  0.2043E+02
      9.060  0.2295E+01  0.2963E+01  0.2251E+02  0.2061E+02
      9.121  0.2159E+01  0.3058E+01  0.2265E+02  0.2079E+02
      9.181  0.1945E+01  0.3111E+01  0.2276E+02  0.2098E+02
      9.242  0.1898E+01  0.3094E+01  0.2288E+02  0.2117E+02
      9.302  0.1918E+01  0.3012E+01  0.2299E+02  0.2135E+02
      9.362  0.1837E+01  0.2862E+01  0.2310E+02  0.2152E+02
      9.423  0.1881E+01  0.2770E+01  0.2322E+02  0.2169E+02
      9.483  0.2084E+01  0.2875E+01  0.2334E+02  0.2187E+02
      9.544  0.2290E+01  0.2988E+01  0.2348E+02  0.2205E+02
      9.604  0.2431E+01  0.3023E+01  0.2363E+02  0.2223E+02
      9.665  0.2334E+01  0.3073E+01  0.2377E+02  0.2242E+02
      9.725  0.1957E+01  0.3250E+01  0.2389E+02  0.2261E+02
      9.785  0.1695E+01  0.3398E+01  0.2399E+02  0.2282E+02
      9.846  0.1710E+01  0.3235E+01  0.2410E+02  0.2301E+02
      9.906  0.1811E+01  0.2916E+01  0.2420E+02  0.2319E+02
      9.967  0.1938E+01  0.2707E+01  0.2432E+02  0.2335E+02
     10.027  0.1978E+01  0.2681E+01  0.2444E+02  0.2352E+02
     10.088  0.1850E+01  0.2700E+01  0.2455E+02  0.2368E+02
     10.148  0.1820E+01  0.2738E+01  0.2466E+02  0.2384E+02
     10.208  0.1956E+01  0.2753E+01  0.2478E+02  0.2401E+02
     10.269  0.2012E+01  0.2693E+01  0.2490E+02  0.2417E+02
     10.329  0.1912E+01  0.2525E+01  0.2502E+02  0.2433E+02
     10.390  0.1769E+01  0.2222E+01  0.2513E+02  0.2446E+02
     10.450  0.1635E+01  0.1961E+01  0.2523E+02  0.2458E+02
     10.511  0.1622E+01  0.1940E+01  0.2532E+02  0.2470E+02
     10.571  0.1695E+01  0.2007E+01  0.2543E+02  0.2482E+02
     10.632  0.1650E+01  0.1973E+01  0.2553E+02  0.2494E+02
     10.692  0.1584E+01  0.1877E+01  0.2562E+02  0.2505E+02
     10.752  0.1669E+01  0.1858E+01  0.2572E+02  0.2516E+02
     10.813  0.1759E+01  0.1983E+01  0.2583E+02  0.2528E+02
     10.873  0.1828E+01  0.2059E+01  0.2594E+02  0.2541E+02
     10.934  0.1959E+01  0.1884E+01  0.2606E+02  0.2552E+02
     10.994  0.1957E+01  0.1693E+01  0.2618E+02  0.2562E+02
     11.055  0.1768E+01  0.1645E+01  0.2628E+02  0.2572E+02
     11.115  0.1694E+01  0.1611E+01  0.2639E+02  0.2582E+02
     11.175  0.1738E+01  0.1658E+01  0.2649E+02  0.2592E+02
     11.236  0.1740E+01  0.1867E+01  0.2660E+02  0.2603E+02
     11.296  0.1799E+01  0.2110E+01  0.2670E+02  0.2616E+02
     11.357  0.2068E+01  0.2227E+01  0.2683E+02  0.2630E+02
     11.417  0.2318E+01  0.2231E+01  0.2697E+02  0.2643E+02
     11.478  0.2307E+01  0.2209E+01  0.2711E+02  0.2657E+02
     11.538  0.2111E+01  0.2114E+01  0.2724E+02  0.2669E+02
     11.599  0.1821E+01  0.2065E+01  0.2735E+02  0.2682E+02
     11.659  0.1493E+01  0.2176E+01  0.2744E+02  0.2695E+02
     11.719  0.1181E+01  0.2254E+01  0.2751E+02  0.2709E+02
     11.780  0.9261E+00  0.2146E+01  0.2756E+02  0.2722E+02
     11.840  0.7513E+00  0.1905E+01  0.2761E+02  0.2733E+02
     11.901  0.6671E+00  0.1597E+01  0.2765E+02  0.2743E+02
     11.961  0.7109E+00  0.1311E+01  0.2769E+02  0.2751E+02
     12.022  0.8356E+00  0.1112E+01  0.2774E+02  0.2757E+02
     12.082  0.8243E+00  0.9804E+00  0.2779E+02  0.2763E+02
     12.142  0.6183E+00  0.9014E+00  0.2783E+02  0.2769E+02
     12.203  0.4155E+00  0.8255E+00  0.2786E+02  0.2774E+02
     12.263  0.3017E+00  0.7290E+00  0.2788E+02  0.2778E+02
     12.324  0.2719E+00  0.6268E+00  0.2789E+02  0.2782E+02
     12.384  0.2942E+00  0.5118E+00  0.2791E+02  0.2785E+02
     12.445  0.2764E+00  0.4173E+00  0.2793E+02  0.2788E+02
     12.505  0.2276E+00  0.3899E+00  0.2794E+02  0.2790E+02
     12.566  0.1803E+00  0.3724E+00  0.2795E+02  0.2792E+02
     12.626  0.1204E+00  0.3086E+00  0.2796E+02  0.2794E+02
     12.686  0.8035E-01  0.2138E+00  0.2796E+02  0.2795E+02
     12.747  0.6656E-01  0.1285E+00  0.2797E+02  0.2796E+02
     12.807  0.7965E-01  0.7565E-01  0.2797E+02  0.2797E+02
     12.868  0.1035E+00  0.7178E-01  0.2798E+02  0.2797E+02
     12.928  0.8741E-01  0.9878E-01  0.2798E+02  0.2798E+02
     12.989  0.5484E-01  0.9594E-01  0.2799E+02  0.2798E+02
     13.049  0.4972E-01  0.6388E-01  0.2799E+02  0.2799E+02
     13.109  0.6027E-01  0.5429E-01  0.2799E+02  0.2799E+02
     13.170  0.5628E-01  0.6456E-01  0.2800E+02  0.2799E+02
     13.230  0.3429E-01  0.5822E-01  0.2800E+02  0.2800E+02
     13.291  0.1415E-01  0.3284E-01  0.2800E+02  0.2800E+02
     13.351  0.4769E-02  0.1274E-01  0.2800E+02  0.2800E+02
     13.412  0.1480E-02  0.4191E-02  0.2800E+02  0.2800E+02
     13.472  0.4473E-03  0.1290E-02  0.2800E+02  0.2800E+02
     13.533  0.1076E-03  0.3888E-03  0.2800E+02  0.2800E+02
     13.593  0.0000E+00  0.0000E+00  0.2800E+02  0.2800E+02
     13.653  0.0000E+00  0.0000E+00  0.2800E+02  0.2800E+02
     13.714  0.0000E+00  0.0000E+00  0.2800E+02  0.2800E+02
     13.774  0.0000E+00  0.0000E+00  0.2800E+02  0.2800E+02
     13.835  0.0000E+00  0.0000E+00  0.2800E+02  0.2800E+02
     13.895  0.0000E+00  0.0000E+00  0.2800E+02  0.2800E+02
     13.956  0.0000E+00  0.0000E+00  0.2800E+02  0.2800E+02
     14.016  0.0000E+00  0.0000E+00  0.2800E+02  0.2800E+02
     14.01602281     -4.11504836  301      6.67873703      1.00000000
     -4.115  0.0000E+00  0.0000E+00  0.0000E+00  0.0000E+00  0.0000E+00  0.0000E+00  0.0000E+00  0.0000E+00  0.0000E+00  0.0000E+00  0.0000E+00  0.0000E+00  0.0000E+00  0.0000E+00  0.0000E+00  0.0000E+00  0.0000E+00  0.0000E+00
     -4.055  0.0000E+00  0.0000E+00  0.0000E+00  0.0000E+00  0.0000E+00  0.0000E+00  0.0000E+00  0.0000E+00  0.0000E+00  0.0000E+00  0.0000E+00  0.0000E+00  0.0000E+00  0.0000E+00  0.0000E+00  0.0000E+00  0.0000E+00  0.0000E+00
     -3.994  0.0000E+00  0.0000E+00  0.0000E+00  0.0000E+00  0.0000E+00  0.0000E+00  0.0000E+00  0.0000E+00  0.0000E+00  0.0000E+00  0.0000E+00  0.0000E+00  0.0000E+00  0.0000E+00  0.0000E+00  0.0000E+00  0.0000E+00  0.0000E+00
     -3.934  0.0000E+00  0.0000E+00  0.0000E+00  0.0000E+00  0.0000E+00  0.0000E+00  0.0000E+00  0.0000E+00  0.0000E+00  0.0000E+00  0.0000E+00  0.0000E+00  0.0000E+00  0.0000E+00  0.0000E+00  0.0000E+00  0.0000E+00  0.0000E+00
     -3.873  0.0000E+00  0.0000E+00  0.0000E+00  0.0000E+00  0.0000E+00  0.0000E+00  0.0000E+00  0.0000E+00  0.0000E+00  0.0000E+00  0.0000E+00  0.0000E+00  0.0000E+00  0.0000E+00  0.0000E+00  0.0000E+00  0.0000E+00  0.0000E+00
     -3.813  0.0000E+00  0.0000E+00  0.0000E+00  0.0000E+00  0.0000E+00  0.0000E+00  0.0000E+00  0.0000E+00  0.0000E+00  0.0000E+00  0.0000E+00  0.0000E+00  0.0000E+00  0.0000E+00  0.0000E+00  0.0000E+00  0.0000E+00  0.0000E+00
     -3.752  0.0000E+00  0.0000E+00  0.0000E+00  0.0000E+00  0.0000E+00  0.0000E+00  0.0000E+00  0.0000E+00  0.0000E+00  0.0000E+00  0.0000E+00  0.0000E+00  0.0000E+00  0.0000E+00  0.0000E+00  0.0000E+00  0.0000E+00  0.0000E+00
     -3.692  0.0000E+00  0.5490E-06  0.0000E+00  0.1013E-08  0.0000E+00  0.1229E-08  0.0000E+00  0.1013E-08  0.0000E+00  0.3707E-16  0.0000E+00  0.6138E-16  0.0000E+00  0.2609E-09  0.0000E+00  0.6138E-16  0.0000E+00  0.3537E-11
     -3.632  0.3241E-06  0.2202E-05  0.7715E-20  0.7606E-08  0.1101E-08  0.8351E-08  0.7715E-20  0.7606E-08  0.1268E-16  0.3308E-10  0.3220E-16  0.3279E-10  0.6832E-11  0.1075E-08  0.3220E-16  0.3279E-10  0.2900E-18  0.1883E-10
     -3.571  0.2427E-05  0.7327E-05  0.8126E-08  0.2685E-07  0.7442E-08  0.3339E-07  0.8126E-08  0.2685E-07  0.3584E-10  0.1759E-09  0.3462E-10  0.1509E-09  0.1254E-09  0.3537E-08  0.3462E-10  0.1509E-09  0.2788E-10  0.5252E-10
     -3.511  0.7313E-05  0.2450E-04  0.2524E-07  0.9164E-07  0.2957E-07  0.1222E-06  0.2524E-07  0.9164E-07  0.1891E-09  0.4905E-09  0.1587E-09  0.5631E-09  0.3682E-09  0.1177E-07  0.1587E-09  0.5631E-09  0.6545E-10  0.2602E-09
     -3.450  0.2445E-04  0.8224E-04  0.8603E-07  0.3352E-06  0.1077E-06  0.4166E-06  0.8603E-07  0.3352E-06  0.5280E-09  0.2111E-08  0.5883E-09  0.2231E-08  0.1302E-08  0.4020E-07  0.5883E-09  0.2231E-08  0.3284E-09  0.1097E-08
     -3.390  0.8218E-04  0.2634E-03  0.3141E-06  0.1110E-05  0.3674E-06  0.1351E-05  0.3141E-06  0.1110E-05  0.2265E-08  0.7670E-08  0.2325E-08  0.7445E-08  0.4650E-08  0.1295E-06  0.2325E-08  0.7445E-08  0.1393E-08  0.3578E-08
     -3.329  0.2647E-03  0.7771E-03  0.1042E-05  0.3481E-05  0.1196E-05  0.4309E-05  0.1042E-05  0.3481E-05  0.8216E-08  0.2395E-07  0.7772E-08  0.2466E-07  0.1522E-07  0.3829E-06  0.7772E-08  0.2466E-07  0.4551E-08  0.1133E-07
     -3.269  0.7922E-03  0.1926E-02  0.3293E-05  0.9978E-05  0.3812E-05  0.1221E-04  0.3293E-05  0.9978E-05  0.2578E-07  0.7745E-07  0.2561E-07  0.7770E-07  0.4680E-07  0.9627E-06  0.2561E-07  0.7770E-07  0.1451E-07  0.3316E-07
     -3.208  0.2020E-02  0.3658E-02  0.9600E-05  0.2335E-04  0.1105E-04  0.2895E-04  0.9600E-05  0.2335E-04  0.8300E-07  0.2090E-06  0.8166E-07  0.2094E-06  0.1296E-06  0.1869E-05  0.8166E-07  0.2094E-06  0.4322E-07  0.8654E-07
     -3.148  0.3981E-02  0.5307E-02  0.2317E-04  0.4415E-04  0.2687E-04  0.5724E-04  0.2317E-04  0.4415E-04  0.2333E-06  0.4722E-06  0.2262E-06  0.4861E-06  0.2977E-06  0.2806E-05  0.2262E-06  0.4861E-06  0.1144E-06  0.2110E-06
     -3.088  0.5950E-02  0.6702E-02  0.4475E-04  0.7558E-04  0.5417E-04  0.9692E-04  0.4475E-04  0.7558E-04  0.5367E-06  0.9468E-06  0.5334E-06  0.1002E-05  0.5774E-06  0.3833E-05  0.5334E-06  0.1002E-05  0.2847E-06  0.4849E-06
     -3.027  0.7567E-02  0.8267E-02  0.7678E-04  0.1219E-03  0.9355E-04  0.1416E-03  0.7678E-04  0.1219E-03  0.1081E-05  0.1867E-05  0.1114E-05  0.1846E-05  0.1049E-05  0.5365E-05  0.1114E-05  0.1846E-05  0.6676E-06  0.8919E-06
     -2.967  0.9400E-02  0.9178E-02  0.1260E-03  0.1618E-03  0.1394E-03  0.1898E-03  0.1260E-03  0.1618E-03  0.2153E-05  0.3062E-05  0.2097E-05  0.2989E-05  0.1819E-05  0.6488E-05  0.2097E-05  0.2989E-05  0.1292E-05  0.1228E-05
     -2.906  0.1068E-01  0.9376E-02  0.1730E-03  0.1885E-03  0.1862E-03  0.2662E-03  0.1730E-03  0.1885E-03  0.3667E-05  0.4352E-05  0.3443E-05  0.4652E-05  0.2686E-05  0.6769E-05  0.3443E-05  0.4652E-05  0.1847E-05  0.1577E-05
     -2.846  0.1089E-01  0.1019E-01  0.2014E-03  0.2412E-03  0.2575E-03  0.3529E-03  0.2014E-03  0.2412E-03  0.5220E-05  0.6563E-05  0.5348E-05  0.6811E-05  0.3625E-05  0.8262E-05  0.5348E-05  0.6811E-05  0.2340E-05  0.2471E-05
     -2.785  0.1174E-01  0.1100E-01  0.2522E-03  0.3198E-03  0.3524E-03  0.3855E-03  0.2522E-03  0.3198E-03  0.7829E-05  0.9090E-05  0.8012E-05  0.8786E-05  0.5322E-05  0.1145E-04  0.8012E-05  0.8786E-05  0.3524E-05  0.4325E-05
     -2.725  0.1284E-01  0.1171E-01  0.3358E-03  0.4027E-03  0.3979E-03  0.4330E-03  0.3358E-03  0.4027E-03  0.1114E-04  0.1172E-04  0.1050E-04  0.1208E-04  0.7754E-05  0.1456E-04  0.1050E-04  0.1208E-04  0.6167E-05  0.6482E-05
     -2.665  0.1359E-01  0.1260E-01  0.4269E-03  0.4644E-03  0.4274E-03  0.5767E-03  0.4269E-03  0.4644E-03  0.1436E-04  0.1552E-04  0.1401E-04  0.1744E-04  0.1028E-04  0.1615E-04  0.1401E-04  0.1744E-04  0.9694E-05  0.7484E-05
     -2.604  0.1465E-01  0.1284E-01  0.5021E-03  0.4999E-03  0.5537E-03  0.7136E-03  0.5021E-03  0.4999E-03  0.1894E-04  0.2124E-04  0.2049E-04  0.2154E-04  0.1285E-04  0.1777E-04  0.2049E-04  0.2154E-04  0.1176E-04  0.7549E-05
     -2.544  0.1518E-01  0.1249E-01  0.5448E-03  0.5349E-03  0.7090E-03  0.7664E-03  0.5448E-03  0.5349E-03  0.2576E-04  0.2821E-04  0.2639E-04  0.2449E-04  0.1637E-04  0.2015E-04  0.2639E-04  0.2449E-04  0.1207E-04  0.7749E-05
     -2.483  0.1499E-01  0.1193E-01  0.5850E-03  0.5691E-03  0.7863E-03  0.8097E-03  0.5850E-03  0.5691E-03  0.3514E-04  0.3113E-04  0.2997E-04  0.3067E-04  0.2060E-04  0.2097E-04  0.2997E-04  0.3067E-04  0.1227E-04  0.9537E-05
     -2.423  0.1425E-01  0.1284E-01  0.6145E-03  0.6886E-03  0.8207E-03  0.9539E-03  0.6145E-03  0.6886E-03  0.4026E-04  0.3376E-04  0.3607E-04  0.4191E-04  0.2235E-04  0.2499E-04  0.3607E-04  0.4191E-04  0.1413E-04  0.1548E-04
     -2.362  0.1477E-01  0.1431E-01  0.7151E-03  0.8569E-03  0.9350E-03  0.1084E-02  0.7151E-03  0.8569E-03  0.4280E-04  0.4096E-04  0.4924E-04  0.4958E-04  0.2527E-04  0.3424E-04  0.4924E-04  0.4958E-04  0.2205E-04  0.2323E-04
     -2.302  0.1681E-01  0.1426E-01  0.9097E-03  0.9452E-03  0.1092E-02  0.1119E-02  0.9097E-03  0.9452E-03  0.5108E-04  0.5329E-04  0.6221E-04  0.5069E-04  0.3417E-04  0.4265E-04  0.6221E-04  0.5069E-04  0.3507E-04  0.2671E-04
     -2.242  0.1720E-01  0.1453E-01  0.1032E-02  0.1026E-02  0.1120E-02  0.1311E-02  0.1032E-02  0.1026E-02  0.6551E-04  0.7112E-04  0.6452E-04  0.6176E-04  0.4418E-04  0.4821E-04  0.6452E-04  0.6176E-04  0.4301E-04  0.2706E-04
     -2.181  0.1708E-01  0.1519E-01  0.1105E-02  0.1112E-02  0.1237E-02  0.1564E-02  0.1105E-02  0.1112E-02  0.8755E-04  0.8627E-04  0.7271E-04  0.8103E-04  0.5333E-04  0.5083E-04  0.7271E-04  0.8103E-04  0.4405E-04  0.2757E-04
     -2.121  0.1814E-01  0.1427E-01  0.1215E-02  0.1072E-02  0.1537E-02  0.1684E-02  0.1215E-02  0.1072E-02  0.1108E-03  0.8640E-04  0.9645E-04  0.9556E-04  0.6188E-04  0.4708E-04  0.9645E-04  0.9556E-04  0.4525E-04  0.2635E-04
     -2.060  0.1772E-01  0.1302E-01  0.1213E-02  0.1020E-02  0.1708E-02  0.1791E-02  0.1213E-02  0.1020E-02  0.1172E-03  0.8242E-04  0.1170E-03  0.1087E-03  0.6271E-04  0.4346E-04  0.1170E-03  0.1087E-03  0.4428E-04  0.2693E-04
     -2.000  0.1607E-01  0.1274E-01  0.1131E-02  0.1110E-02  0.1800E-02  0.1832E-02  0.1131E-02  0.1110E-02  0.1094E-03  0.9805E-04  0.1345E-03  0.1186E-03  0.5943E-04  0.4919E-04  0.1345E-03  0.1186E-03  0.4375E-04  0.3240E-04
     -1.939  0.1555E-01  0.1338E-01  0.1187E-02  0.1343E-02  0.1874E-02  0.1904E-02  0.1187E-02  0.1343E-02  0.1215E-03  0.1340E-03  0.1516E-03  0.1252E-03  0.6325E-04  0.6834E-04  0.1516E-03  0.1252E-03  0.5093E-04  0.4384E-04
     -1.879  0.1597E-01  0.1484E-01  0.1401E-02  0.1648E-02  0.1839E-02  0.2260E-02  0.1401E-02  0.1648E-02  0.1647E-03  0.1653E-03  0.1602E-03  0.1425E-03  0.7707E-04  0.9457E-04  0.1602E-03  0.1425E-03  0.6631E-04  0.6194E-04
     -1.818  0.1736E-01  0.1573E-01  0.1726E-02  0.1828E-02  0.1970E-02  0.2752E-02  0.1726E-02  0.1828E-02  0.2145E-03  0.1723E-03  0.1712E-03  0.1798E-03  0.1057E-03  0.1055E-03  0.1712E-03  0.1798E-03  0.9401E-04  0.7530E-04
     -1.758  0.1884E-01  0.1560E-01  0.1971E-02  0.1883E-02  0.2480E-02  0.3096E-02  0.1971E-02  0.1883E-02  0.2325E-03  0.1767E-03  0.2087E-03  0.2187E-03  0.1331E-03  0.1037E-03  0.2087E-03  0.2187E-03  0.1215E-03  0.7972E-04
     -1.698  0.1939E-01  0.1452E-01  0.2069E-02  0.1842E-02  0.3002E-02  0.3335E-02  0.2069E-02  0.1842E-02  0.2358E-03  0.1892E-03  0.2650E-03  0.2392E-03  0.1428E-03  0.1006E-03  0.2650E-03  0.2392E-03  0.1344E-03  0.7743E-04
     -1.637  0.1869E-01  0.1317E-01  0.2080E-02  0.1763E-02  0.3183E-02  0.3494E-02  0.2080E-02  0.1763E-02  0.2495E-03  0.2152E-03  0.3017E-03  0.2595E-03  0.1415E-03  0.9244E-04  0.3017E-03  0.2595E-03  0.1370E-03  0.6813E-04
     -1.577  0.1701E-01  0.1277E-01  0.1981E-02  0.1850E-02  0.3335E-02  0.3433E-02  0.1981E-02  0.1850E-02  0.2773E-03  0.2648E-03  0.3244E-03  0.2886E-03  0.1359E-03  0.8889E-04  0.3244E-03  0.2886E-03  0.1238E-03  0.6478E-04
     -1.516  0.1630E-01  0.1207E-01  0.2014E-02  0.1887E-02  0.3597E-02  0.3383E-02  0.2014E-02  0.1887E-02  0.3402E-03  0.3000E-03  0.3684E-03  0.3071E-03  0.1286E-03  0.9534E-04  0.3684E-03  0.3071E-03  0.1127E-03  0.6440E-04
     -1.456  0.1573E-01  0.1143E-01  0.2123E-02  0.1905E-02  0.3545E-02  0.3701E-02  0.2123E-02  0.1905E-02  0.4067E-03  0.3254E-03  0.3891E-03  0.3479E-03  0.1255E-03  0.1090E-03  0.3891E-03  0.3479E-03  0.1143E-03  0.6710E-04
     -1.395  0.1428E-01  0.1220E-01  0.2076E-02  0.2207E-02  0.3525E-02  0.3927E-02  0.2076E-02  0.2207E-02  0.4366E-03  0.3653E-03  0.4040E-03  0.4130E-03  0.1364E-03  0.1289E-03  0.4040E-03  0.4130E-03  0.1140E-03  0.8942E-04
     -1.335  0.1464E-01  0.1308E-01  0.2265E-02  0.2619E-02  0.4056E-02  0.3762E-02  0.2265E-02  0.2619E-02  0.4846E-03  0.3814E-03  0.5008E-03  0.4601E-03  0.1642E-03  0.1474E-03  0.5008E-03  0.4601E-03  0.1369E-03  0.1286E-03
     -1.275  0.1619E-01  0.1296E-01  0.2708E-02  0.2841E-02  0.4462E-02  0.3725E-02  0.2708E-02  0.2841E-02  0.5209E-03  0.3748E-03  0.6166E-03  0.4942E-03  0.1891E-03  0.1600E-03  0.6166E-03  0.4942E-03  0.1981E-03  0.1576E-03
     -1.214  0.1680E-01  0.1157E-01  0.3084E-02  0.2770E-02  0.4155E-02  0.3594E-02  0.3084E-02  0.2770E-02  0.5268E-03  0.3773E-03  0.6605E-03  0.4861E-03  0.2040E-03  0.1623E-03  0.6605E-03  0.4861E-03  0.2663E-03  0.1599E-03
     -1.154  0.1568E-01  0.1072E-01  0.3120E-02  0.2851E-02  0.3845E-02  0.3234E-02  0.3120E-02  0.2851E-02  0.5214E-03  0.4644E-03  0.6666E-03  0.4632E-03  0.2088E-03  0.1766E-03  0.6666E-03  0.4632E-03  0.2911E-03  0.1585E-03
     -1.093  0.1413E-01  0.1101E-01  0.3086E-02  0.3117E-02  0.3663E-02  0.3322E-02  0.3086E-02  0.3117E-02  0.5939E-03  0.6073E-03  0.6514E-03  0.5221E-03  0.2199E-03  0.1948E-03  0.6514E-03  0.5221E-03  0.2893E-03  0.1522E-03