   8   8   1   0
  0.1192226E+02  0.3546726E-09  0.3546726E-09  0.7582166E-09  0.5000000E-15
  1.000000000000000E-004
  CAR 
 unknown system                          
     19.91714204     -2.74662202  301     10.60210904      1.00000000
     -2.747  0.0000E+00  0.0000E+00  0.0000E+00  0.0000E+00
     -2.671  0.0000E+00  0.0000E+00  0.0000E+00  0.0000E+00
     -2.596  0.0000E+00  0.0000E+00  0.0000E+00  0.0000E+00
     -2.520  0.0000E+00  0.0000E+00  0.0000E+00  0.0000E+00
     -2.444  0.0000E+00  0.0000E+00  0.0000E+00  0.0000E+00
     -2.369  0.0000E+00  0.0000E+00  0.0000E+00  0.0000E+00
     -2.293  0.0000E+00  0.0000E+00  0.0000E+00  0.0000E+00
     -2.218  0.0000E+00  0.0000E+00  0.0000E+00  0.0000E+00
     -2.142  0.2240E-05  0.1844E-05  0.1692E-06  0.1393E-06
     -2.067  0.3130E-04  0.2030E-04  0.2534E-05  0.1673E-05
     -1.991  0.1361E-03  0.1120E-03  0.1282E-04  0.1013E-04
     -1.916  0.6003E-03  0.5031E-03  0.5817E-04  0.4814E-04
     -1.840  0.2677E-02  0.2229E-02  0.2604E-03  0.2165E-03
     -1.765  0.1079E-01  0.9144E-02  0.1075E-02  0.9073E-03
     -1.689  0.3442E-01  0.3033E-01  0.3676E-02  0.3198E-02
     -1.613  0.7617E-01  0.7070E-01  0.9431E-02  0.8539E-02
     -1.538  0.1135E+00  0.1103E+00  0.1801E-01  0.1687E-01
     -1.462  0.1381E+00  0.1352E+00  0.2844E-01  0.2708E-01
     -1.387  0.1804E+00  0.1750E+00  0.4206E-01  0.4030E-01
     -1.311  0.2115E+00  0.2111E+00  0.5804E-01  0.5625E-01
     -1.236  0.2022E+00  0.2040E+00  0.7333E-01  0.7167E-01
     -1.160  0.2246E+00  0.2209E+00  0.9030E-01  0.8837E-01
     -1.085  0.2573E+00  0.2560E+00  0.1097E+00  0.1077E+00
     -1.009  0.2659E+00  0.2648E+00  0.1298E+00  0.1277E+00
     -0.934  0.2999E+00  0.2977E+00  0.1525E+00  0.1502E+00
     -0.858  0.3204E+00  0.3213E+00  0.1767E+00  0.1745E+00
     -0.782  0.3244E+00  0.3255E+00  0.2012E+00  0.1991E+00
     -0.707  0.3022E+00  0.3065E+00  0.2241E+00  0.2223E+00
     -0.631  0.2962E+00  0.2943E+00  0.2465E+00  0.2445E+00
     -0.556  0.3764E+00  0.3706E+00  0.2749E+00  0.2725E+00
     -0.480  0.4034E+00  0.4059E+00  0.3054E+00  0.3032E+00
     -0.405  0.3765E+00  0.3793E+00  0.3339E+00  0.3319E+00
     -0.329  0.4294E+00  0.4272E+00  0.3664E+00  0.3642E+00
     -0.254  0.4581E+00  0.4618E+00  0.4010E+00  0.3991E+00
     -0.178  0.4001E+00  0.4067E+00  0.4312E+00  0.4298E+00
     -0.103  0.3861E+00  0.3873E+00  0.4604E+00  0.4591E+00
     -0.027  0.3977E+00  0.3964E+00  0.4905E+00  0.4891E+00
      0.049  0.4333E+00  0.4323E+00  0.5232E+00  0.5218E+00
      0.124  0.5076E+00  0.5132E+00  0.5616E+00  0.5606E+00
      0.200  0.5632E+00  0.5687E+00  0.6042E+00  0.6036E+00
      0.275  0.5770E+00  0.5794E+00  0.6478E+00  0.6474E+00
      0.351  0.5332E+00  0.5451E+00  0.6881E+00  0.6886E+00
      0.426  0.5144E+00  0.5224E+00  0.7270E+00  0.7281E+00
      0.502  0.5495E+00  0.5480E+00  0.7685E+00  0.7695E+00
      0.577  0.4969E+00  0.5048E+00  0.8061E+00  0.8077E+00
      0.653  0.4946E+00  0.5068E+00  0.8435E+00  0.8460E+00
      0.728  0.5956E+00  0.5929E+00  0.8885E+00  0.8908E+00
      0.804  0.6446E+00  0.6274E+00  0.9372E+00  0.9382E+00
      0.880  0.6302E+00  0.6361E+00  0.9849E+00  0.9863E+00
      0.955  0.5711E+00  0.5764E+00  0.1028E+01  0.1030E+01
      1.031  0.5618E+00  0.5553E+00  0.1071E+01  0.1072E+01
      1.106  0.6042E+00  0.6074E+00  0.1116E+01  0.1118E+01
      1.182  0.6300E+00  0.6402E+00  0.1164E+01  0.1166E+01
      1.257  0.6708E+00  0.6610E+00  0.1215E+01  0.1216E+01
      1.333  0.6074E+00  0.5930E+00  0.1260E+01  0.1261E+01
      1.408  0.5780E+00  0.5677E+00  0.1304E+01  0.1304E+01
      1.484  0.5795E+00  0.5759E+00  0.1348E+01  0.1347E+01
      1.559  0.5630E+00  0.5643E+00  0.1391E+01  0.1390E+01
      1.635  0.6454E+00  0.6426E+00  0.1439E+01  0.1439E+01
      1.711  0.8137E+00  0.7976E+00  0.1501E+01  0.1499E+01
      1.786  0.8268E+00  0.7988E+00  0.1563E+01  0.1559E+01
      1.862  0.7427E+00  0.7282E+00  0.1619E+01  0.1614E+01
      1.937  0.6615E+00  0.6482E+00  0.1669E+01  0.1663E+01
      2.013  0.6241E+00  0.5800E+00  0.1717E+01  0.1707E+01
      2.088  0.6683E+00  0.6527E+00  0.1767E+01  0.1757E+01
      2.164  0.7433E+00  0.7694E+00  0.1823E+01  0.1815E+01
      2.239  0.6879E+00  0.6747E+00  0.1875E+01  0.1866E+01
      2.315  0.7020E+00  0.6555E+00  0.1928E+01  0.1915E+01
      2.390  0.8200E+00  0.8161E+00  0.1990E+01  0.1977E+01
      2.466  0.8287E+00  0.8519E+00  0.2053E+01  0.2041E+01
      2.542  0.8878E+00  0.8627E+00  0.2120E+01  0.2107E+01
      2.617  0.9642E+00  0.9425E+00  0.2193E+01  0.2178E+01
      2.693  0.9210E+00  0.9160E+00  0.2263E+01  0.2247E+01
      2.768  0.8273E+00  0.8285E+00  0.2325E+01  0.2310E+01
      2.844  0.8018E+00  0.8023E+00  0.2386E+01  0.2370E+01
      2.919  0.8850E+00  0.8822E+00  0.2453E+01  0.2437E+01
      2.995  0.9416E+00  0.9413E+00  0.2524E+01  0.2508E+01
      3.070  0.8480E+00  0.8552E+00  0.2588E+01  0.2573E+01
      3.146  0.8276E+00  0.8185E+00  0.2651E+01  0.2635E+01
      3.222  0.8430E+00  0.8374E+00  0.2714E+01  0.2698E+01
      3.297  0.8635E+00  0.8813E+00  0.2780E+01  0.2765E+01
      3.373  0.8248E+00  0.8268E+00  0.2842E+01  0.2827E+01
      3.448  0.7170E+00  0.6821E+00  0.2896E+01  0.2879E+01
      3.524  0.6373E+00  0.6191E+00  0.2944E+01  0.2926E+01
      3.599  0.6919E+00  0.6457E+00  0.2997E+01  0.2975E+01
      3.675  0.8333E+00  0.7647E+00  0.3060E+01  0.3032E+01
      3.750  0.8562E+00  0.7973E+00  0.3125E+01  0.3093E+01
      3.826  0.8160E+00  0.8280E+00  0.3186E+01  0.3155E+01
      3.901  0.8005E+00  0.8177E+00  0.3247E+01  0.3217E+01
      3.977  0.7701E+00  0.7062E+00  0.3305E+01  0.3270E+01
      4.053  0.7611E+00  0.7261E+00  0.3363E+01  0.3325E+01
      4.128  0.8637E+00  0.8418E+00  0.3428E+01  0.3389E+01
      4.204  0.9835E+00  0.8837E+00  0.3502E+01  0.3456E+01
      4.279  0.1014E+01  0.8481E+00  0.3579E+01  0.3520E+01
      4.355  0.9424E+00  0.9391E+00  0.3650E+01  0.3591E+01
      4.430  0.9870E+00  0.9862E+00  0.3725E+01  0.3665E+01
      4.506  0.1211E+01  0.1093E+01  0.3816E+01  0.3748E+01
      4.581  0.1146E+01  0.1244E+01  0.3903E+01  0.3842E+01
      4.657  0.9320E+00  0.1075E+01  0.3973E+01  0.3923E+01
      4.732  0.9492E+00  0.8420E+00  0.4045E+01  0.3987E+01
      4.808  0.1048E+01  0.8505E+00  0.4124E+01  0.4051E+01
      4.884  0.1100E+01  0.1012E+01  0.4208E+01  0.4128E+01
      4.959  0.1110E+01  0.1037E+01  0.4292E+01  0.4206E+01
      5.035  0.1079E+01  0.1021E+01  0.4373E+01  0.4283E+01
      5.110  0.1079E+01  0.1055E+01  0.4455E+01  0.4363E+01
      5.186  0.1290E+01  0.1109E+01  0.4552E+01  0.4447E+01
      5.261  0.1345E+01  0.1308E+01  0.4654E+01  0.4546E+01
      5.337  0.1311E+01  0.1322E+01  0.4753E+01  0.4646E+01
      5.412  0.1231E+01  0.1173E+01  0.4846E+01  0.4734E+01
      5.488  0.1139E+01  0.1082E+01  0.4932E+01  0.4816E+01
      5.563  0.1131E+01  0.1075E+01  0.5018E+01  0.4897E+01
      5.639  0.1204E+01  0.1095E+01  0.5109E+01  0.4980E+01
      5.715  0.1149E+01  0.1093E+01  0.5196E+01  0.5063E+01
      5.790  0.1183E+01  0.1042E+01  0.5285E+01  0.5142E+01
      5.866  0.1377E+01  0.1153E+01  0.5389E+01  0.5229E+01
      5.941  0.1377E+01  0.1404E+01  0.5493E+01  0.5335E+01
      6.017  0.1318E+01  0.1353E+01  0.5593E+01  0.5437E+01
      6.092  0.1418E+01  0.1205E+01  0.5700E+01  0.5528E+01
      6.168  0.1426E+01  0.1254E+01  0.5808E+01  0.5623E+01
      6.243  0.1323E+01  0.1318E+01  0.5908E+01  0.5723E+01
      6.319  0.1321E+01  0.1241E+01  0.6008E+01  0.5817E+01
      6.394  0.1196E+01  0.1300E+01  0.6098E+01  0.5915E+01
      6.470  0.1093E+01  0.1334E+01  0.6181E+01  0.6016E+01
      6.546  0.1167E+01  0.1142E+01  0.6269E+01  0.6102E+01
      6.621  0.1283E+01  0.1107E+01  0.6366E+01  0.6186E+01
      6.697  0.1365E+01  0.1256E+01  0.6469E+01  0.6281E+01
      6.772  0.1412E+01  0.1300E+01  0.6576E+01  0.6379E+01
      6.848  0.1397E+01  0.1111E+01  0.6682E+01  0.6463E+01
      6.923  0.1311E+01  0.1023E+01  0.6781E+01  0.6540E+01
      6.999  0.1294E+01  0.1200E+01  0.6879E+01  0.6631E+01
      7.074  0.1405E+01  0.1309E+01  0.6985E+01  0.6730E+01
      7.150  0.1605E+01  0.1303E+01  0.7106E+01  0.6829E+01
      7.225  0.1740E+01  0.1416E+01  0.7238E+01  0.6936E+01
      7.301  0.1796E+01  0.1579E+01  0.7374E+01  0.7055E+01
      7.377  0.1913E+01  0.1549E+01  0.7518E+01  0.7172E+01
      7.452  0.2196E+01  0.1451E+01  0.7684E+01  0.7282E+01
      7.528  0.2407E+01  0.1584E+01  0.7866E+01  0.7402E+01
      7.603  0.2380E+01  0.2007E+01  0.8046E+01  0.7553E+01
      7.679  0.2541E+01  0.2122E+01  0.8238E+01  0.7714E+01
      7.754  0.2533E+01  0.1968E+01  0.8430E+01  0.7862E+01
      7.830  0.2275E+01  0.2085E+01  0.8602E+01  0.8020E+01
      7.905  0.2239E+01  0.2433E+01  0.8771E+01  0.8204E+01
      7.981  0.2530E+01  0.2499E+01  0.8962E+01  0.8393E+01
      8.056  0.3013E+01  0.2184E+01  0.9190E+01  0.8558E+01
      8.132  0.3269E+01  0.1905E+01  0.9437E+01  0.8702E+01
      8.208  0.3355E+01  0.2004E+01  0.9691E+01  0.8853E+01
      8.283  0.3316E+01  0.2404E+01  0.9941E+01  0.9035E+01
      8.359  0.3138E+01  0.2720E+01  0.1018E+02  0.9241E+01
      8.434  0.2991E+01  0.3035E+01  0.1040E+02  0.9470E+01
      8.510  0.2790E+01  0.3217E+01  0.1062E+02  0.9713E+01
      8.585  0.2838E+01  0.3187E+01  0.1083E+02  0.9954E+01
      8.661  0.3163E+01  0.2900E+01  0.1107E+02  0.1017E+02
      8.736  0.3435E+01  0.2640E+01  0.1133E+02  0.1037E+02
      8.812  0.3786E+01  0.2675E+01  0.1162E+02  0.1058E+02
      8.887  0.4146E+01  0.2877E+01  0.1193E+02  0.1079E+02
      8.963  0.3907E+01  0.2785E+01  0.1222E+02  0.1100E+02
      9.039  0.3376E+01  0.2570E+01  0.1248E+02  0.1120E+02
      9.114  0.2966E+01  0.2741E+01  0.1270E+02  0.1140E+02
      9.190  0.2675E+01  0.2786E+01  0.1291E+02  0.1162E+02
      9.265  0.2490E+01  0.2863E+01  0.1309E+02  0.1183E+02
      9.341  0.2324E+01  0.3101E+01  0.1327E+02  0.1207E+02
      9.416  0.2179E+01  0.3261E+01  0.1344E+02  0.1231E+02
      9.492  0.2055E+01  0.3104E+01  0.1359E+02  0.1255E+02
      9.567  0.1957E+01  0.2669E+01  0.1374E+02  0.1275E+02
      9.643  0.1723E+01  0.2398E+01  0.1387E+02  0.1293E+02
      9.718  0.1247E+01  0.2373E+01  0.1396E+02  0.1311E+02
      9.794  0.7220E+00  0.2252E+01  0.1402E+02  0.1328E+02
      9.870  0.4627E+00  0.1993E+01  0.1405E+02  0.1343E+02
      9.945  0.3877E+00  0.1814E+01  0.1408E+02  0.1357E+02
     10.021  0.4655E+00  0.1699E+01  0.1412E+02  0.1370E+02
     10.096  0.6929E+00  0.1529E+01  0.1417E+02  0.1381E+02
     10.172  0.1092E+01  0.1328E+01  0.1425E+02  0.1391E+02
     10.247  0.1800E+01  0.9099E+00  0.1439E+02  0.1398E+02
     10.323  0.3225E+01  0.4691E+00  0.1463E+02  0.1402E+02
     10.398  0.5018E+01  0.2756E+00  0.1501E+02  0.1404E+02
     10.474  0.5294E+01  0.2608E+00  0.1541E+02  0.1406E+02
     10.549  0.4167E+01  0.2529E+00  0.1573E+02  0.1408E+02
     10.625  0.3404E+01  0.2535E+00  0.1598E+02  0.1410E+02
     10.701  0.2942E+01  0.3468E+00  0.1621E+02  0.1412E+02
     10.776  0.2616E+01  0.5264E+00  0.1640E+02  0.1416E+02
     10.852  0.2446E+01  0.6738E+00  0.1659E+02  0.1421E+02
     10.927  0.2150E+01  0.8035E+00  0.1675E+02  0.1427E+02
     11.003  0.1889E+01  0.1026E+01  0.1689E+02  0.1435E+02
     11.078  0.1846E+01  0.1327E+01  0.1703E+02  0.1445E+02
     11.154  0.1869E+01  0.1667E+01  0.1718E+02  0.1458E+02
     11.229  0.1758E+01  0.2152E+01  0.1731E+02  0.1474E+02
     11.305  0.1474E+01  0.2806E+01  0.1742E+02  0.1495E+02
     11.380  0.1434E+01  0.3576E+01  0.1753E+02  0.1522E+02
     11.456  0.1573E+01  0.4522E+01  0.1765E+02  0.1556E+02
     11.532  0.1522E+01  0.4961E+01  0.1776E+02  0.1594E+02
     11.607  0.1248E+01  0.4835E+01  0.1786E+02  0.1630E+02
     11.683  0.1036E+01  0.4919E+01  0.1794E+02  0.1668E+02
     11.758  0.1096E+01  0.4745E+01  0.1802E+02  0.1704E+02
     11.834  0.1278E+01  0.4203E+01  0.1811E+02  0.1735E+02
     11.909  0.1318E+01  0.3566E+01  0.1821E+02  0.1762E+02
     11.985  0.1297E+01  0.2775E+01  0.1831E+02  0.1783E+02
     12.060  0.1506E+01  0.2018E+01  0.1843E+02  0.1799E+02
     12.136  0.1907E+01  0.1537E+01  0.1857E+02  0.1810E+02
     12.211  0.2129E+01  0.1434E+01  0.1873E+02  0.1821E+02
     12.287  0.2107E+01  0.1559E+01  0.1889E+02  0.1833E+02
     12.363  0.2138E+01  0.1825E+01  0.1905E+02  0.1847E+02
     12.438  0.2395E+01  0.1994E+01  0.1923E+02  0.1862E+02
     12.514  0.2673E+01  0.1911E+01  0.1944E+02  0.1876E+02
     12.589  0.2726E+01  0.1882E+01  0.1964E+02  0.1890E+02
     12.665  0.2300E+01  0.1999E+01  0.1982E+02  0.1905E+02
     12.740  0.1551E+01  0.2031E+01  0.1993E+02  0.1921E+02
     12.816  0.1269E+01  0.1998E+01  0.2003E+02  0.1936E+02
     12.891  0.1453E+01  0.2030E+01  0.2014E+02  0.1951E+02
     12.967  0.1568E+01  0.2248E+01  0.2026E+02  0.1968E+02
     13.042  0.1621E+01  0.2300E+01  0.2038E+02  0.1986E+02
     13.118  0.1722E+01  0.1954E+01  0.2051E+02  0.2000E+02
     13.194  0.1706E+01  0.1590E+01  0.2064E+02  0.2012E+02
     13.269  0.1508E+01  0.1539E+01  0.2075E+02  0.2024E+02
     13.345  0.1536E+01  0.1524E+01  0.2087E+02  0.2036E+02
     13.420  0.1751E+01  0.1537E+01  0.2100E+02  0.2047E+02
     13.496  0.1806E+01  0.1512E+01  0.2114E+02  0.2059E+02
     13.571  0.1985E+01  0.1535E+01  0.2129E+02  0.2070E+02
     13.647  0.2429E+01  0.1725E+01  0.2147E+02  0.2083E+02
     13.722  0.2614E+01  0.1973E+01  0.2167E+02  0.2098E+02
     13.798  0.2309E+01  0.2062E+01  0.2184E+02  0.2114E+02
     13.873  0.1915E+01  0.2140E+01  0.2199E+02  0.2130E+02
     13.949  0.1706E+01  0.2305E+01  0.2212E+02  0.2147E+02
     14.025  0.1694E+01  0.2248E+01  0.2225E+02  0.2164E+02
     14.100  0.1717E+01  0.2071E+01  0.2238E+02  0.2180E+02
     14.176  0.1608E+01  0.1984E+01  0.2250E+02  0.2195E+02
     14.251  0.1470E+01  0.2098E+01  0.2261E+02  0.2211E+02
     14.327  0.1486E+01  0.2202E+01  0.2272E+02  0.2228E+02
     14.402  0.1544E+01  0.1983E+01  0.2284E+02  0.2243E+02
     14.478  0.1588E+01  0.1567E+01  0.2296E+02  0.2254E+02
     14.553  0.1608E+01  0.1510E+01  0.2308E+02  0.2266E+02
     14.629  0.1577E+01  0.1802E+01  0.2320E+02  0.2279E+02
     14.704  0.1649E+01  0.2003E+01  0.2332E+02  0.2295E+02
     14.780  0.1823E+01  0.1881E+01  0.2346E+02  0.2309E+02
     14.856  0.1788E+01  0.1802E+01  0.2360E+02  0.2322E+02
     14.931  0.1515E+01  0.1872E+01  0.2371E+02  0.2337E+02
     15.007  0.1528E+01  0.1894E+01  0.2383E+02  0.2351E+02
     15.082  0.1737E+01  0.1751E+01  0.2396E+02  0.2364E+02
     15.158  0.1918E+01  0.1568E+01  0.2410E+02  0.2376E+02
     15.233  0.2120E+01  0.1804E+01  0.2426E+02  0.2390E+02
     15.309  0.2165E+01  0.2136E+01  0.2443E+02  0.2406E+02
     15.384  0.1791E+01  0.2007E+01  0.2456E+02  0.2421E+02
     15.460  0.1265E+01  0.1920E+01  0.2466E+02  0.2436E+02
     15.535  0.1050E+01  0.1762E+01  0.2474E+02  0.2449E+02
     15.611  0.1135E+01  0.1415E+01  0.2482E+02  0.2460E+02
     15.687  0.1194E+01  0.1168E+01  0.2491E+02  0.2468E+02
     15.762  0.1220E+01  0.1108E+01  0.2500E+02  0.2477E+02
     15.838  0.1533E+01  0.1203E+01  0.2512E+02  0.2486E+02
     15.913  0.1782E+01  0.1377E+01  0.2526E+02  0.2496E+02
     15.989  0.1577E+01  0.1532E+01  0.2537E+02  0.2508E+02
     16.064  0.1350E+01  0.1427E+01  0.2548E+02  0.2519E+02
     16.140  0.1300E+01  0.1194E+01  0.2557E+02  0.2528E+02
     16.215  0.1406E+01  0.1205E+01  0.2568E+02  0.2537E+02
     16.291  0.1493E+01  0.1286E+01  0.2579E+02  0.2546E+02
     16.366  0.1311E+01  0.1483E+01  0.2589E+02  0.2558E+02
     16.442  0.1159E+01  0.1647E+01  0.2598E+02  0.2570E+02
     16.518  0.1337E+01  0.1508E+01  0.2608E+02  0.2582E+02
     16.593  0.1715E+01  0.1349E+01  0.2621E+02  0.2592E+02
     16.669  0.2012E+01  0.1467E+01  0.2636E+02  0.2603E+02
     16.744  0.1991E+01  0.1683E+01  0.2651E+02  0.2616E+02
     16.820  0.1797E+01  0.1785E+01  0.2665E+02  0.2629E+02
     16.895  0.1717E+01  0.1805E+01  0.2678E+02  0.2643E+02
     16.971  0.1827E+01  0.1959E+01  0.2692E+02  0.2658E+02
     17.046  0.1838E+01  0.1985E+01  0.2706E+02  0.2673E+02
     17.122  0.1720E+01  0.1852E+01  0.2719E+02  0.2687E+02
     17.197  0.1589E+01  0.1728E+01  0.2731E+02  0.2700E+02
     17.273  0.1259E+01  0.1748E+01  0.2740E+02  0.2713E+02
     17.349  0.9932E+00  0.1537E+01  0.2748E+02  0.2724E+02
     17.424  0.1045E+01  0.1205E+01  0.2756E+02  0.2734E+02
     17.500  0.1226E+01  0.1139E+01  0.2765E+02  0.2742E+02
     17.575  0.1124E+01  0.1322E+01  0.2773E+02  0.2752E+02
     17.651  0.7258E+00  0.1302E+01  0.2779E+02  0.2762E+02
     17.726  0.4201E+00  0.9653E+00  0.2782E+02  0.2769E+02
     17.802  0.3169E+00  0.7251E+00  0.2785E+02  0.2775E+02
     17.877  0.3036E+00  0.6309E+00  0.2787E+02  0.2780E+02
     17.953  0.3168E+00  0.5168E+00  0.2789E+02  0.2783E+02
     18.028  0.3225E+00  0.4620E+00  0.2792E+02  0.2787E+02
     18.104  0.2425E+00  0.4207E+00  0.2793E+02  0.2790E+02
     18.180  0.1536E+00  0.3554E+00  0.2795E+02  0.2793E+02
     18.255  0.1163E+00  0.2588E+00  0.2796E+02  0.2795E+02
     18.331  0.8458E-01  0.1442E+00  0.2796E+02  0.2796E+02
     18.406  0.5481E-01  0.6681E-01  0.2797E+02  0.2796E+02
     18.482  0.6486E-01  0.4349E-01  0.2797E+02  0.2797E+02
     18.557  0.9499E-01  0.7099E-01  0.2798E+02  0.2797E+02
     18.633  0.7593E-01  0.9300E-01  0.2798E+02  0.2798E+02
     18.708  0.4146E-01  0.6780E-01  0.2799E+02  0.2798E+02
     18.784  0.4580E-01  0.4819E-01  0.2799E+02  0.2799E+02
     18.859  0.6565E-01  0.6061E-01  0.2800E+02  0.2799E+02
     18.935  0.4346E-01  0.5609E-01  0.2800E+02  0.2800E+02
     19.011  0.1441E-01  0.2571E-01  0.2800E+02  0.2800E+02
     19.086  0.3552E-02  0.7235E-02  0.2800E+02  0.2800E+02
     19.162  0.8044E-03  0.1702E-02  0.2800E+02  0.2800E+02
     19.237  0.1078E-03  0.2853E-03  0.2800E+02  0.2800E+02
     19.313  0.0000E+00  0.0000E+00  0.2800E+02  0.2800E+02
     19.388  0.0000E+00  0.0000E+00  0.2800E+02  0.2800E+02
     19.464  0.0000E+00  0.0000E+00  0.2800E+02  0.2800E+02
     19.539  0.0000E+00  0.0000E+00  0.2800E+02  0.2800E+02
     19.615  0.0000E+00  0.0000E+00  0.2800E+02  0.2800E+02
     19.691  0.0000E+00  0.0000E+00  0.2800E+02  0.2800E+02
     19.766  0.0000E+00  0.0000E+00  0.2800E+02  0.2800E+02
     19.842  0.0000E+00  0.0000E+00  0.2800E+02  0.2800E+02
     19.917  0.0000E+00  0.0000E+00  0.2800E+02  0.2800E+02
     19.91714204     -2.74662202  301     10.60210904      1.00000000
     -2.747  0.0000E+00  0.0000E+00  0.0000E+00  0.0000E+00  0.0000E+00  0.0000E+00  0.0000E+00  0.0000E+00  0.0000E+00  0.0000E+00  0.0000E+00  0.0000E+00  0.0000E+00  0.0000E+00  0.0000E+00  0.0000E+00  0.0000E+00  0.0000E+00
     -2.671  0.0000E+00  0.0000E+00  0.0000E+00  0.0000E+00  0.0000E+00  0.0000E+00  0.0000E+00  0.0000E+00  0.0000E+00  0.0000E+00  0.0000E+00  0.0000E+00  0.0000E+00  0.0000E+00  0.0000E+00  0.0000E+00  0.0000E+00  0.0000E+00
     -2.596  0.0000E+00  0.0000E+00  0.0000E+00  0.0000E+00  0.0000E+00  0.0000E+00  0.0000E+00  0.0000E+00  0.0000E+00  0.0000E+00  0.0000E+00  0.0000E+00  0.0000E+00  0.0000E+00  0.0000E+00  0.0000E+00  0.0000E+00  0.0000E+00
     -2.520  0.0000E+00  0.0000E+00  0.0000E+00  0.0000E+00  0.0000E+00  0.0000E+00  0.0000E+00  0.0000E+00  0.0000E+00  0.0000E+00  0.0000E+00  0.0000E+00  0.0000E+00  0.0000E+00  0.0000E+00  0.0000E+00  0.0000E+00  0.0000E+00
     -2.444  0.0000E+00  0.0000E+00  0.0000E+00  0.0000E+00  0.0000E+00  0.0000E+00  0.0000E+00  0.0000E+00  0.0000E+00  0.0000E+00  0.0000E+00  0.0000E+00  0.0000E+00  0.0000E+00  0.0000E+00  0.0000E+00  0.0000E+00  0.0000E+00
     -2.369  0.0000E+00  0.0000E+00  0.0000E+00  0.0000E+00  0.0000E+00  0.0000E+00  0.0000E+00  0.0000E+00  0.0000E+00  0.0000E+00  0.0000E+00  0.0000E+00  0.0000E+00  0.0000E+00  0.0000E+00  0.0000E+00  0.0000E+00  0.0000E+00
     -2.293  0.0000E+00  0.0000E+00  0.0000E+00  0.0000E+00  0.0000E+00  0.0000E+00  0.0000E+00  0.0000E+00  0.0000E+00  0.0000E+00  0.0000E+00  0.0000E+00  0.0000E+00  0.0000E+00  0.0000E+00  0.0000E+00  0.0000E+00  0.0000E+00
     -2.218  0.0000E+00  0.0000E+00  0.0000E+00  0.0000E+00  0.0000E+00  0.0000E+00  0.0000E+00  0.0000E+00  0.0000E+00  0.0000E+00  0.0000E+00  0.0000E+00  0.0000E+00  0.0000E+00  0.0000E+00  0.0000E+00  0.0000E+00  0.0000E+00
     -2.142  0.1566E-06  0.1238E-06  0.1115E-19  0.1191E-18  0.2144E-19  0.5168E-18  0.1115E-19  0.1191E-18  0.9994E-16  0.1945E-17  0.1095E-14  0.1718E-15  0.1901E-10  0.7776E-10  0.1095E-14  0.1718E-15  0.5529E-16  0.8289E-16
     -2.067  0.2164E-05  0.1352E-05  0.5696E-08  0.2694E-08  0.8391E-08  0.3569E-08  0.5696E-08  0.2694E-08  0.6359E-15  0.1581E-16  0.2753E-10  0.2107E-14  0.2668E-09  0.8649E-09  0.2753E-10  0.2107E-14  0.2824E-10  0.1184E-10
     -1.991  0.9394E-05  0.7427E-05  0.3244E-07  0.2373E-07  0.3407E-07  0.2811E-07  0.3244E-07  0.2373E-07  0.1902E-09  0.8987E-10  0.1573E-09  0.1010E-09  0.1312E-08  0.4841E-08  0.1573E-09  0.1010E-09  0.9963E-10  0.7858E-10
     -1.916  0.4144E-04  0.3333E-04  0.1343E-06  0.1114E-06  0.1638E-06  0.1406E-06  0.1343E-06  0.1114E-06  0.6709E-09  0.5989E-09  0.6519E-09  0.5781E-09  0.5622E-08  0.2164E-07  0.6519E-09  0.5781E-09  0.4500E-09  0.3184E-09
     -1.840  0.1846E-03  0.1475E-03  0.6403E-06  0.5128E-06  0.7859E-06  0.6589E-06  0.6403E-06  0.5128E-06  0.3030E-08  0.2425E-08  0.3521E-08  0.2862E-08  0.2549E-07  0.9594E-07  0.3521E-08  0.2862E-08  0.2663E-08  0.1873E-08
     -1.765  0.7430E-03  0.6047E-03  0.2841E-05  0.2291E-05  0.3380E-05  0.2860E-05  0.2841E-05  0.2291E-05  0.1588E-07  0.1275E-07  0.1644E-07  0.1341E-07  0.1051E-06  0.3965E-06  0.1644E-07  0.1341E-07  0.1162E-07  0.8236E-08
     -1.689  0.2364E-02  0.2000E-02  0.1087E-04  0.8969E-05  0.1255E-04  0.1088E-04  0.1087E-04  0.8969E-05  0.6567E-07  0.5321E-07  0.6828E-07  0.5594E-07  0.3483E-06  0.1329E-05  0.6828E-07  0.5594E-07  0.4387E-07  0.3168E-07
     -1.613  0.5204E-02  0.4639E-02  0.3131E-04  0.2710E-04  0.3565E-04  0.3223E-04  0.3131E-04  0.2710E-04  0.2406E-06  0.2010E-06  0.2399E-06  0.2051E-06  0.8309E-06  0.3160E-05  0.2399E-06  0.2051E-06  0.1280E-06  0.9602E-07
     -1.538  0.7688E-02  0.7175E-02  0.6160E-04  0.5570E-04  0.7652E-04  0.7136E-04  0.6160E-04  0.5570E-04  0.6113E-06  0.5380E-06  0.6180E-06  0.5471E-06  0.1392E-05  0.5002E-05  0.6180E-06  0.5471E-06  0.3238E-06  0.2394E-06
     -1.462  0.9223E-02  0.8673E-02  0.1031E-03  0.9328E-04  0.1377E-03  0.1308E-03  0.1031E-03  0.9328E-04  0.1164E-05  0.1036E-05  0.1343E-05  0.1200E-05  0.2134E-05  0.6326E-05  0.1343E-05  0.1200E-05  0.9269E-06  0.6753E-06
     -1.387  0.1188E-01  0.1107E-01  0.1859E-03  0.1682E-03  0.2096E-03  0.2041E-03  0.1859E-03  0.1682E-03  0.2597E-05  0.2264E-05  0.2738E-05  0.2478E-05  0.3810E-05  0.9425E-05  0.2738E-05  0.2478E-05  0.2123E-05  0.1623E-05
     -1.311  0.1379E-01  0.1321E-01  0.2667E-03  0.2521E-03  0.2626E-03  0.2601E-03  0.2667E-03  0.2521E-03  0.4896E-05  0.4479E-05  0.4498E-05  0.4185E-05  0.5555E-05  0.1307E-04  0.4498E-05  0.4185E-05  0.3003E-05  0.2425E-05
     -1.236  0.1298E-01  0.1257E-01  0.2784E-03  0.2685E-03  0.3585E-03  0.3473E-03  0.2784E-03  0.2685E-03  0.6244E-05  0.5844E-05  0.6834E-05  0.6320E-05  0.6038E-05  0.1246E-04  0.6834E-05  0.6320E-05  0.3246E-05  0.2636E-05
     -1.160  0.1412E-01  0.1331E-01  0.3395E-03  0.3162E-03  0.5493E-03  0.5367E-03  0.3395E-03  0.3162E-03  0.9620E-05  0.8642E-05  0.1108E-04  0.1030E-04  0.8108E-05  0.1287E-04  0.1108E-04  0.1030E-04  0.4470E-05  0.3466E-05
     -1.085  0.1598E-01  0.1523E-01  0.4743E-03  0.4434E-03  0.6147E-03  0.6253E-03  0.4743E-03  0.4434E-03  0.1472E-04  0.1360E-04  0.1408E-04  0.1350E-04  0.1283E-04  0.1924E-04  0.1408E-04  0.1350E-04  0.8538E-05  0.6471E-05
     -1.009  0.1630E-01  0.1555E-01  0.6129E-03  0.5767E-03  0.5655E-03  0.5712E-03  0.6129E-03  0.5767E-03  0.1775E-04  0.1653E-04  0.1689E-04  0.1586E-04  0.1777E-04  0.2719E-04  0.1689E-04  0.1586E-04  0.1562E-04  0.1215E-04
     -0.934  0.1806E-01  0.1716E-01  0.7446E-03  0.7104E-03  0.7624E-03  0.7445E-03  0.7446E-03  0.7104E-03  0.2330E-04  0.2154E-04  0.2731E-04  0.2530E-04  0.2122E-04  0.3176E-04  0.2731E-04  0.2530E-04  0.1983E-04  0.1609E-04
     -0.858  0.1894E-01  0.1815E-01  0.7852E-03  0.7552E-03  0.1074E-02  0.1070E-02  0.7852E-03  0.7552E-03  0.3062E-04  0.2815E-04  0.3760E-04  0.3586E-04  0.2472E-04  0.3192E-04  0.3760E-04  0.3586E-04  0.1923E-04  0.1576E-04
     -0.782  0.1885E-01  0.1806E-01  0.8517E-03  0.8135E-03  0.1201E-02  0.1217E-02  0.8517E-03  0.8135E-03  0.4630E-04  0.4224E-04  0.4029E-04  0.3897E-04  0.3364E-04  0.3885E-04  0.4029E-04  0.3897E-04  0.1871E-04  0.1526E-04
     -0.707  0.1728E-01  0.1673E-01  0.8608E-03  0.8348E-03  0.1181E-02  0.1199E-02  0.8608E-03  0.8348E-03  0.5568E-04  0.5289E-04  0.4407E-04  0.4216E-04  0.3609E-04  0.4204E-04  0.4407E-04  0.4216E-04  0.1783E-04  0.1444E-04
     -0.631  0.1655E-01  0.1568E-01  0.9122E-03  0.8631E-03  0.1290E-02  0.1287E-02  0.9122E-03  0.8631E-03  0.5231E-04  0.4967E-04  0.6195E-04  0.5805E-04  0.3399E-04  0.3859E-04  0.6195E-04  0.5805E-04  0.2636E-04  0.2007E-04
     -0.556  0.2065E-01  0.1936E-01  0.1280E-02  0.1198E-02  0.1668E-02  0.1671E-02  0.1280E-02  0.1198E-02  0.6116E-04  0.5681E-04  0.9009E-04  0.8563E-04  0.4873E-04  0.5419E-04  0.9009E-04  0.8563E-04  0.5185E-04  0.3979E-04
     -0.480  0.2189E-01  0.2096E-01  0.1520E-02  0.1455E-02  0.1678E-02  0.1727E-02  0.1520E-02  0.1455E-02  0.7674E-04  0.7088E-04  0.9066E-04  0.8855E-04  0.6829E-04  0.7768E-04  0.9066E-04  0.8855E-04  0.7114E-04  0.5683E-04
     -0.405  0.2001E-01  0.1919E-01  0.1541E-02  0.1483E-02  0.1597E-02  0.1632E-02  0.1541E-02  0.1483E-02  0.1049E-03  0.9646E-04  0.8493E-04  0.8128E-04  0.8152E-04  0.9160E-04  0.8493E-04  0.8128E-04  0.6914E-04  0.5625E-04
     -0.329  0.2218E-01  0.2096E-01  0.1755E-02  0.1672E-02  0.2208E-02  0.2218E-02  0.1755E-02  0.1672E-02  0.1443E-03  0.1334E-03  0.1237E-03  0.1168E-03  0.9866E-04  0.1039E-03  0.1237E-03  0.1168E-03  0.7070E-04  0.5658E-04
     -0.254  0.2323E-01  0.2223E-01  0.1877E-02  0.1818E-02  0.2602E-02  0.2635E-02  0.1877E-02  0.1818E-02  0.1672E-03  0.1578E-03  0.1590E-03  0.1531E-03  0.1054E-03  0.1091E-03  0.1590E-03  0.1531E-03  0.7211E-04  0.5846E-04
     -0.178  0.1976E-01  0.1905E-01  0.1604E-02  0.1569E-02  0.2635E-02  0.2680E-02  0.1604E-02  0.1569E-02  0.1408E-03  0.1358E-03  0.1781E-03  0.1717E-03  0.8884E-04  0.8862E-04  0.1781E-03  0.1717E-03  0.6325E-04  0.5103E-04
     -0.103  0.1849E-01  0.1752E-01  0.1564E-02  0.1495E-02  0.2851E-02  0.2900E-02  0.1564E-02  0.1495E-02  0.1330E-03  0.1244E-03  0.2077E-03  0.1992E-03  0.8717E-04  0.8110E-04  0.2077E-03  0.1992E-03  0.7006E-04  0.5487E-04
     -0.027  0.1873E-01  0.1763E-01  0.1809E-02  0.1710E-02  0.2759E-02  0.2819E-02  0.1809E-02  0.1710E-02  0.1825E-03  0.1668E-03  0.2226E-03  0.2139E-03  0.9984E-04  0.9633E-04  0.2226E-03  0.2139E-03  0.8524E-04  0.6633E-04
      0.049  0.2010E-01  0.1889E-01  0.2312E-02  0.2173E-02  0.2564E-02  0.2697E-02  0.2312E-02  0.2173E-02  0.2745E-03  0.2517E-03  0.2183E-03  0.2115E-03  0.1428E-03  0.1473E-03  0.2183E-03  0.2115E-03  0.1212E-03  0.9288E-04
      0.124  0.2274E-01  0.2159E-01  0.2832E-02  0.2708E-02  0.3217E-02  0.3415E-02  0.2832E-02  0.2708E-02  0.3157E-03  0.2970E-03  0.2486E-03  0.2407E-03  0.2056E-03  0.2133E-03  0.2486E-03  0.2407E-03  0.1810E-03  0.1413E-03
      0.200  0.2414E-01  0.2289E-01  0.2986E-02  0.2884E-02  0.4420E-02  0.4543E-02  0.2986E-02  0.2884E-02  0.3007E-03  0.2835E-03  0.3424E-03  0.3298E-03  0.2284E-03  0.2253E-03  0.3424E-03  0.3298E-03  0.2091E-03  0.1660E-03
      0.275  0.2407E-01  0.2266E-01  0.3069E-02  0.2952E-02  0.4851E-02  0.4944E-02  0.3069E-02  0.2952E-02  0.3110E-03  0.2912E-03  0.4209E-03  0.4063E-03  0.2244E-03  0.2154E-03  0.4209E-03  0.4063E-03  0.2208E-03  0.1739E-03
      0.351  0.2149E-01  0.2041E-01  0.2906E-02  0.2816E-02  0.4716E-02  0.5011E-02  0.2906E-02  0.2816E-02  0.3307E-03  0.3099E-03  0.4249E-03  0.4158E-03  0.2165E-03  0.2113E-03  0.4249E-03  0.4158E-03  0.2079E-03  0.1658E-03
      0.426  0.1946E-01  0.1825E-01  0.2710E-02  0.2604E-02  0.5296E-02  0.5577E-02  0.2710E-02  0.2604E-02  0.3878E-03  0.3587E-03  0.4797E-03  0.4610E-03  0.2018E-03  0.1895E-03  0.4797E-03  0.4610E-03  0.1666E-03  0.1329E-03
      0.502  0.2028E-01  0.1880E-01  0.3106E-02  0.2951E-02  0.5510E-02  0.5599E-02  0.3106E-02  0.2951E-02  0.5224E-03  0.4804E-03  0.5530E-03  0.5282E-03  0.1927E-03  0.1867E-03  0.5530E-03  0.5282E-03  0.1756E-03  0.1369E-03
      0.577  0.1766E-01  0.1679E-01  0.2961E-02  0.2863E-02  0.4989E-02  0.5111E-02  0.2961E-02  0.2863E-02  0.5538E-03  0.5160E-03  0.5118E-03  0.5104E-03  0.1944E-03  0.1985E-03  0.5118E-03  0.5104E-03  0.1709E-03  0.1346E-03
      0.653  0.1636E-01  0.1548E-01  0.2868E-02  0.2750E-02  0.5608E-02  0.5927E-02  0.2868E-02  0.2750E-02  0.5969E-03  0.5534E-03  0.5948E-03  0.5987E-03  0.2321E-03  0.2260E-03  0.5948E-03  0.5987E-03  0.1644E-03  0.1272E-03
      0.728  0.1896E-01  0.1763E-01  0.3503E-02  0.3326E-02  0.7014E-02  0.6972E-02  0.3503E-02  0.3326E-02  0.6781E-03  0.6368E-03  0.8243E-03  0.7859E-03  0.2764E-03  0.2653E-03  0.8243E-03  0.7859E-03  0.2354E-03  0.1769E-03
      0.804  0.2085E-01  0.1926E-01  0.4265E-02  0.4045E-02  0.6697E-02  0.6259E-02  0.4265E-02  0.4045E-02  0.6841E-03  0.6418E-03  0.9230E-03  0.8560E-03  0.3013E-03  0.2978E-03  0.9230E-03  0.8560E-03  0.3701E-03  0.2791E-03
      0.880  0.2048E-01  0.1923E-01  0.4581E-02  0.4410E-02  0.5833E-02  0.5961E-02  0.4581E-02  0.4410E-02  0.6486E-03  0.6078E-03  0.9329E-03  0.9090E-03  0.3195E-03  0.3296E-03  0.9329E-03  0.9090E-03  0.4604E-03  0.3552E-03
      0.955  0.1743E-01  0.1625E-01  0.4185E-02  0.4016E-02  0.5675E-02  0.5847E-02  0.4185E-02  0.4016E-02  0.6287E-03  0.5765E-03  0.9079E-03  0.8773E-03  0.3149E-03  0.3211E-03  0.9079E-03  0.8773E-03  0.4375E-03  0.3391E-03
      1.031  0.1655E-01  0.1531E-01  0.4473E-02  0.4260E-02  0.5171E-02  0.5064E-02  0.4473E-02  0.4260E-02  0.8794E-03  0.7926E-03  0.8558E-03  0.8042E-03  0.3708E-03  0.3775E-03  0.8558E-03  0.8042E-03  0.4505E-03  0.3468E-03