   8   8   1   0
  0.1614637E+02  0.3924037E-09  0.3924037E-09  0.8388780E-09  0.5000000E-15
  1.000000000000000E-004
  CAR 
 unknown system                          
     14.85583184     -3.94695081  301      7.17010963      1.00000000
     -3.947  0.0000E+00  0.0000E+00  0.0000E+00  0.0000E+00
     -3.884  0.0000E+00  0.0000E+00  0.0000E+00  0.0000E+00
     -3.822  0.0000E+00  0.0000E+00  0.0000E+00  0.0000E+00
     -3.759  0.0000E+00  0.0000E+00  0.0000E+00  0.0000E+00
     -3.696  0.0000E+00  0.0000E+00  0.0000E+00  0.0000E+00
     -3.634  0.0000E+00  0.0000E+00  0.0000E+00  0.0000E+00
     -3.571  0.0000E+00  0.0000E+00  0.0000E+00  0.0000E+00
     -3.508  0.0000E+00  0.6097E-05  0.0000E+00  0.3821E-06
     -3.446  0.6160E-05  0.4242E-04  0.3861E-06  0.3041E-05
     -3.383  0.4264E-04  0.1543E-03  0.3059E-05  0.1271E-04
     -3.320  0.1548E-03  0.5234E-03  0.1276E-04  0.4551E-04
     -3.258  0.5248E-03  0.1837E-02  0.4565E-04  0.1606E-03
     -3.195  0.1840E-02  0.6169E-02  0.1610E-03  0.5473E-03
     -3.132  0.6177E-02  0.1907E-01  0.5482E-03  0.1743E-02
     -3.069  0.1907E-01  0.4924E-01  0.1743E-02  0.4829E-02
     -3.007  0.4908E-01  0.9614E-01  0.4820E-02  0.1085E-01
     -2.944  0.9553E-01  0.1411E+00  0.1081E-01  0.1970E-01
     -2.881  0.1397E+00  0.1798E+00  0.1957E-01  0.3096E-01
     -2.819  0.1776E+00  0.2261E+00  0.3070E-01  0.4513E-01
     -2.756  0.2236E+00  0.2548E+00  0.4471E-01  0.6110E-01
     -2.693  0.2523E+00  0.2622E+00  0.6052E-01  0.7754E-01
     -2.631  0.2585E+00  0.2909E+00  0.7672E-01  0.9578E-01
     -2.568  0.2867E+00  0.3193E+00  0.9470E-01  0.1158E+00
     -2.505  0.3161E+00  0.3442E+00  0.1145E+00  0.1374E+00
     -2.443  0.3388E+00  0.3793E+00  0.1358E+00  0.1612E+00
     -2.380  0.3725E+00  0.3952E+00  0.1591E+00  0.1859E+00
     -2.317  0.3903E+00  0.3915E+00  0.1836E+00  0.2105E+00
     -2.255  0.3893E+00  0.3775E+00  0.2080E+00  0.2342E+00
     -2.192  0.3734E+00  0.4140E+00  0.2314E+00  0.2601E+00
     -2.129  0.4020E+00  0.4764E+00  0.2566E+00  0.2900E+00
     -2.067  0.4681E+00  0.4824E+00  0.2860E+00  0.3202E+00
     -2.004  0.4780E+00  0.5012E+00  0.3159E+00  0.3517E+00
     -1.941  0.4866E+00  0.5437E+00  0.3465E+00  0.3858E+00
     -1.879  0.5332E+00  0.5248E+00  0.3799E+00  0.4187E+00
     -1.816  0.5241E+00  0.4900E+00  0.4128E+00  0.4494E+00
     -1.753  0.4848E+00  0.4903E+00  0.4432E+00  0.4801E+00
     -1.691  0.4840E+00  0.5247E+00  0.4735E+00  0.5130E+00
     -1.628  0.5084E+00  0.6051E+00  0.5054E+00  0.5510E+00
     -1.565  0.5707E+00  0.6738E+00  0.5412E+00  0.5933E+00
     -1.503  0.6426E+00  0.6972E+00  0.5815E+00  0.6370E+00
     -1.440  0.6820E+00  0.6832E+00  0.6243E+00  0.6798E+00
     -1.377  0.6721E+00  0.6520E+00  0.6664E+00  0.7207E+00
     -1.315  0.6359E+00  0.6493E+00  0.7063E+00  0.7614E+00
     -1.252  0.6434E+00  0.6345E+00  0.7466E+00  0.8012E+00
     -1.189  0.6359E+00  0.6309E+00  0.7865E+00  0.8408E+00
     -1.127  0.6014E+00  0.6914E+00  0.8242E+00  0.8841E+00
     -1.064  0.6592E+00  0.7415E+00  0.8655E+00  0.9306E+00
     -1.001  0.7448E+00  0.7624E+00  0.9122E+00  0.9785E+00
     -0.939  0.7639E+00  0.7212E+00  0.9602E+00  0.1024E+01
     -0.876  0.7251E+00  0.6804E+00  0.1006E+01  0.1066E+01
     -0.813  0.6853E+00  0.7153E+00  0.1049E+01  0.1111E+01
     -0.750  0.7017E+00  0.7643E+00  0.1093E+01  0.1159E+01
     -0.688  0.7321E+00  0.7772E+00  0.1138E+01  0.1208E+01
     -0.625  0.7723E+00  0.7307E+00  0.1187E+01  0.1254E+01
     -0.562  0.7638E+00  0.7093E+00  0.1235E+01  0.1298E+01
     -0.500  0.7184E+00  0.7114E+00  0.1280E+01  0.1343E+01
     -0.437  0.7163E+00  0.7157E+00  0.1325E+01  0.1388E+01
     -0.374  0.7138E+00  0.7920E+00  0.1370E+01  0.1437E+01
     -0.312  0.7375E+00  0.8812E+00  0.1416E+01  0.1493E+01
     -0.249  0.8704E+00  0.8711E+00  0.1470E+01  0.1547E+01
     -0.186  0.9531E+00  0.8297E+00  0.1530E+01  0.1599E+01
     -0.124  0.9073E+00  0.7382E+00  0.1587E+01  0.1646E+01
     -0.061  0.8139E+00  0.6492E+00  0.1638E+01  0.1686E+01
      0.002  0.7246E+00  0.6548E+00  0.1684E+01  0.1727E+01
      0.064  0.7072E+00  0.7775E+00  0.1728E+01  0.1776E+01
      0.127  0.7879E+00  0.8300E+00  0.1777E+01  0.1828E+01
      0.190  0.8604E+00  0.7798E+00  0.1831E+01  0.1877E+01
      0.252  0.8213E+00  0.8348E+00  0.1883E+01  0.1929E+01
      0.315  0.8512E+00  0.9858E+00  0.1936E+01  0.1991E+01
      0.378  0.9550E+00  0.1077E+01  0.1996E+01  0.2059E+01
      0.440  0.1017E+01  0.1042E+01  0.2060E+01  0.2124E+01
      0.503  0.1053E+01  0.1011E+01  0.2126E+01  0.2188E+01
      0.566  0.1061E+01  0.1018E+01  0.2192E+01  0.2251E+01
      0.628  0.1064E+01  0.9730E+00  0.2259E+01  0.2312E+01
      0.691  0.9929E+00  0.9397E+00  0.2321E+01  0.2371E+01
      0.754  0.9222E+00  0.9712E+00  0.2379E+01  0.2432E+01
      0.816  0.9583E+00  0.1025E+01  0.2439E+01  0.2497E+01
      0.879  0.1050E+01  0.9955E+00  0.2505E+01  0.2559E+01
      0.942  0.1022E+01  0.9481E+00  0.2569E+01  0.2618E+01
      1.004  0.9574E+00  0.9385E+00  0.2629E+01  0.2677E+01
      1.067  0.9356E+00  0.9199E+00  0.2688E+01  0.2735E+01
      1.130  0.9301E+00  0.9356E+00  0.2746E+01  0.2794E+01
      1.192  0.9775E+00  0.9016E+00  0.2808E+01  0.2850E+01
      1.255  0.9602E+00  0.7763E+00  0.2868E+01  0.2899E+01
      1.318  0.8282E+00  0.7039E+00  0.2920E+01  0.2943E+01
      1.381  0.7862E+00  0.7927E+00  0.2969E+01  0.2993E+01
      1.443  0.9154E+00  0.9096E+00  0.3027E+01  0.3050E+01
      1.506  0.1005E+01  0.8986E+00  0.3090E+01  0.3106E+01
      1.569  0.9639E+00  0.9111E+00  0.3150E+01  0.3163E+01
      1.631  0.9594E+00  0.9218E+00  0.3210E+01  0.3221E+01
      1.694  0.9837E+00  0.8811E+00  0.3272E+01  0.3276E+01
      1.757  0.9648E+00  0.9200E+00  0.3332E+01  0.3334E+01
      1.819  0.9899E+00  0.1028E+01  0.3394E+01  0.3399E+01
      1.882  0.1158E+01  0.1101E+01  0.3467E+01  0.3468E+01
      1.945  0.1312E+01  0.1106E+01  0.3549E+01  0.3537E+01
      2.007  0.1294E+01  0.1179E+01  0.3631E+01  0.3611E+01
      2.070  0.1255E+01  0.1270E+01  0.3709E+01  0.3691E+01
      2.133  0.1304E+01  0.1337E+01  0.3791E+01  0.3774E+01
      2.195  0.1319E+01  0.1367E+01  0.3874E+01  0.3860E+01
      2.258  0.1214E+01  0.1226E+01  0.3950E+01  0.3937E+01
      2.321  0.1153E+01  0.1051E+01  0.4022E+01  0.4003E+01
      2.383  0.1160E+01  0.1008E+01  0.4095E+01  0.4066E+01
      2.446  0.1135E+01  0.9934E+00  0.4166E+01  0.4128E+01
      2.509  0.1184E+01  0.1026E+01  0.4240E+01  0.4193E+01
      2.571  0.1290E+01  0.1100E+01  0.4321E+01  0.4262E+01
      2.634  0.1362E+01  0.1198E+01  0.4407E+01  0.4337E+01
      2.697  0.1402E+01  0.1307E+01  0.4495E+01  0.4419E+01
      2.759  0.1349E+01  0.1332E+01  0.4579E+01  0.4502E+01
      2.822  0.1281E+01  0.1303E+01  0.4660E+01  0.4584E+01
      2.885  0.1279E+01  0.1283E+01  0.4740E+01  0.4664E+01
      2.947  0.1280E+01  0.1240E+01  0.4820E+01  0.4742E+01
      3.010  0.1278E+01  0.1131E+01  0.4900E+01  0.4813E+01
      3.073  0.1282E+01  0.1023E+01  0.4981E+01  0.4877E+01
      3.135  0.1245E+01  0.1051E+01  0.5059E+01  0.4943E+01
      3.198  0.1269E+01  0.1134E+01  0.5138E+01  0.5014E+01
      3.261  0.1356E+01  0.1155E+01  0.5223E+01  0.5087E+01
      3.323  0.1404E+01  0.1202E+01  0.5312E+01  0.5162E+01
      3.386  0.1449E+01  0.1269E+01  0.5402E+01  0.5242E+01
      3.449  0.1478E+01  0.1378E+01  0.5495E+01  0.5328E+01
      3.511  0.1498E+01  0.1445E+01  0.5589E+01  0.5419E+01
      3.574  0.1532E+01  0.1414E+01  0.5685E+01  0.5508E+01
      3.637  0.1579E+01  0.1395E+01  0.5784E+01  0.5595E+01
      3.700  0.1589E+01  0.1337E+01  0.5884E+01  0.5679E+01
      3.762  0.1505E+01  0.1275E+01  0.5978E+01  0.5759E+01
      3.825  0.1434E+01  0.1375E+01  0.6068E+01  0.5845E+01
      3.888  0.1517E+01  0.1514E+01  0.6163E+01  0.5940E+01
      3.950  0.1593E+01  0.1508E+01  0.6263E+01  0.6035E+01
      4.013  0.1632E+01  0.1456E+01  0.6366E+01  0.6126E+01
      4.076  0.1771E+01  0.1469E+01  0.6477E+01  0.6218E+01
      4.138  0.1939E+01  0.1545E+01  0.6598E+01  0.6315E+01
      4.201  0.1926E+01  0.1492E+01  0.6719E+01  0.6409E+01
      4.264  0.1842E+01  0.1374E+01  0.6835E+01  0.6495E+01
      4.326  0.1947E+01  0.1386E+01  0.6957E+01  0.6582E+01
      4.389  0.2197E+01  0.1482E+01  0.7094E+01  0.6675E+01
      4.452  0.2210E+01  0.1504E+01  0.7233E+01  0.6769E+01
      4.514  0.1980E+01  0.1481E+01  0.7357E+01  0.6862E+01
      4.577  0.1854E+01  0.1606E+01  0.7473E+01  0.6963E+01
      4.640  0.1985E+01  0.1783E+01  0.7598E+01  0.7074E+01
      4.702  0.2318E+01  0.1780E+01  0.7743E+01  0.7186E+01
      4.765  0.2747E+01  0.1583E+01  0.7916E+01  0.7285E+01
      4.828  0.3099E+01  0.1444E+01  0.8110E+01  0.7376E+01
      4.890  0.3236E+01  0.1560E+01  0.8313E+01  0.7474E+01
      4.953  0.3217E+01  0.1751E+01  0.8514E+01  0.7583E+01
      5.016  0.3268E+01  0.1862E+01  0.8719E+01  0.7700E+01
      5.078  0.3482E+01  0.1901E+01  0.8938E+01  0.7819E+01
      5.141  0.3987E+01  0.1921E+01  0.9188E+01  0.7940E+01
      5.204  0.4523E+01  0.2034E+01  0.9471E+01  0.8067E+01
      5.266  0.4644E+01  0.2225E+01  0.9763E+01  0.8207E+01
      5.329  0.4456E+01  0.2280E+01  0.1004E+02  0.8350E+01
      5.392  0.4359E+01  0.2153E+01  0.1032E+02  0.8485E+01
      5.454  0.4281E+01  0.2023E+01  0.1058E+02  0.8612E+01
      5.517  0.4286E+01  0.1934E+01  0.1085E+02  0.8733E+01
      5.580  0.4635E+01  0.1959E+01  0.1114E+02  0.8856E+01
      5.642  0.5254E+01  0.2136E+01  0.1147E+02  0.8990E+01
      5.705  0.5876E+01  0.2464E+01  0.1184E+02  0.9145E+01
      5.768  0.5950E+01  0.2836E+01  0.1221E+02  0.9322E+01
      5.830  0.5418E+01  0.3057E+01  0.1255E+02  0.9514E+01
      5.893  0.4748E+01  0.3103E+01  0.1285E+02  0.9709E+01
      5.956  0.4209E+01  0.2977E+01  0.1312E+02  0.9895E+01
      6.019  0.3797E+01  0.2728E+01  0.1335E+02  0.1007E+02
      6.081  0.3458E+01  0.2519E+01  0.1357E+02  0.1022E+02
      6.144  0.2982E+01  0.2439E+01  0.1376E+02  0.1038E+02
      6.207  0.2276E+01  0.2581E+01  0.1390E+02  0.1054E+02
      6.269  0.1506E+01  0.2938E+01  0.1400E+02  0.1072E+02
      6.332  0.1176E+01  0.3035E+01  0.1407E+02  0.1091E+02
      6.395  0.1548E+01  0.2642E+01  0.1417E+02  0.1108E+02
      6.457  0.2812E+01  0.2327E+01  0.1434E+02  0.1123E+02
      6.520  0.4924E+01  0.2351E+01  0.1465E+02  0.1137E+02
      6.583  0.6240E+01  0.2502E+01  0.1504E+02  0.1153E+02
      6.645  0.5540E+01  0.2545E+01  0.1539E+02  0.1169E+02
      6.708  0.4393E+01  0.2528E+01  0.1567E+02  0.1185E+02
      6.771  0.3636E+01  0.2650E+01  0.1589E+02  0.1201E+02
      6.833  0.3174E+01  0.2879E+01  0.1609E+02  0.1219E+02
      6.896  0.2959E+01  0.3032E+01  0.1628E+02  0.1239E+02
      6.959  0.2686E+01  0.3095E+01  0.1645E+02  0.1258E+02
      7.021  0.2294E+01  0.2928E+01  0.1659E+02  0.1276E+02
      7.084  0.1936E+01  0.2651E+01  0.1671E+02  0.1293E+02
      7.147  0.1688E+01  0.2515E+01  0.1682E+02  0.1309E+02
      7.209  0.1620E+01  0.2367E+01  0.1692E+02  0.1324E+02
      7.272  0.1735E+01  0.2107E+01  0.1703E+02  0.1337E+02
      7.335  0.1812E+01  0.1929E+01  0.1714E+02  0.1349E+02
      7.397  0.1709E+01  0.1848E+01  0.1725E+02  0.1360E+02
      7.460  0.1531E+01  0.1688E+01  0.1735E+02  0.1371E+02
      7.523  0.1496E+01  0.1534E+01  0.1744E+02  0.1381E+02
      7.585  0.1623E+01  0.1446E+01  0.1754E+02  0.1390E+02
      7.648  0.1767E+01  0.1251E+01  0.1765E+02  0.1398E+02
      7.711  0.1843E+01  0.9035E+00  0.1777E+02  0.1403E+02
      7.773  0.1845E+01  0.6665E+00  0.1788E+02  0.1407E+02
      7.836  0.1980E+01  0.7001E+00  0.1801E+02  0.1412E+02
      7.899  0.2540E+01  0.8815E+00  0.1817E+02  0.1417E+02
      7.961  0.3337E+01  0.1072E+01  0.1838E+02  0.1424E+02
      8.024  0.3734E+01  0.1269E+01  0.1861E+02  0.1432E+02
      8.087  0.3601E+01  0.1616E+01  0.1884E+02  0.1442E+02
      8.150  0.3232E+01  0.2053E+01  0.1904E+02  0.1455E+02
      8.212  0.2773E+01  0.2506E+01  0.1921E+02  0.1471E+02
      8.275  0.2523E+01  0.3321E+01  0.1937E+02  0.1492E+02
      8.338  0.2526E+01  0.4446E+01  0.1953E+02  0.1519E+02
      8.400  0.2386E+01  0.5397E+01  0.1968E+02  0.1553E+02
      8.463  0.2088E+01  0.6033E+01  0.1981E+02  0.1591E+02
      8.526  0.1940E+01  0.6154E+01  0.1993E+02  0.1630E+02
      8.588  0.1894E+01  0.5823E+01  0.2005E+02  0.1666E+02
      8.651  0.1786E+01  0.5623E+01  0.2016E+02  0.1701E+02
      8.714  0.1711E+01  0.5697E+01  0.2027E+02  0.1737E+02
      8.776  0.1826E+01  0.5383E+01  0.2038E+02  0.1771E+02
      8.839  0.2046E+01  0.4713E+01  0.2051E+02  0.1800E+02
      8.902  0.2121E+01  0.4404E+01  0.2065E+02  0.1828E+02
      8.964  0.2037E+01  0.4161E+01  0.2077E+02  0.1854E+02
      9.027  0.1903E+01  0.3694E+01  0.2089E+02  0.1877E+02
      9.090  0.1730E+01  0.3252E+01  0.2100E+02  0.1898E+02
      9.152  0.1766E+01  0.2992E+01  0.2111E+02  0.1917E+02
      9.215  0.2026E+01  0.3073E+01  0.2124E+02  0.1936E+02
      9.278  0.2198E+01  0.3265E+01  0.2138E+02  0.1956E+02
      9.340  0.2254E+01  0.3183E+01  0.2152E+02  0.1976E+02
      9.403  0.2338E+01  0.2941E+01  0.2167E+02  0.1995E+02
      9.466  0.2396E+01  0.2753E+01  0.2182E+02  0.2012E+02
      9.528  0.2332E+01  0.2695E+01  0.2196E+02  0.2029E+02
      9.591  0.2134E+01  0.2640E+01  0.2210E+02  0.2045E+02
      9.654  0.2013E+01  0.2541E+01  0.2222E+02  0.2061E+02
      9.716  0.2054E+01  0.2525E+01  0.2235E+02  0.2077E+02
      9.779  0.2186E+01  0.2668E+01  0.2249E+02  0.2094E+02
      9.842  0.2226E+01  0.2828E+01  0.2263E+02  0.2112E+02
      9.904  0.2152E+01  0.2875E+01  0.2276E+02  0.2130E+02
      9.967  0.2012E+01  0.2734E+01  0.2289E+02  0.2147E+02
     10.030  0.1833E+01  0.2599E+01  0.2300E+02  0.2163E+02
     10.092  0.1621E+01  0.2684E+01  0.2311E+02  0.2180E+02
     10.155  0.1707E+01  0.2795E+01  0.2321E+02  0.2198E+02
     10.218  0.2101E+01  0.2764E+01  0.2334E+02  0.2215E+02
     10.280  0.2413E+01  0.2781E+01  0.2350E+02  0.2232E+02
     10.343  0.2440E+01  0.3034E+01  0.2365E+02  0.2251E+02
     10.406  0.2204E+01  0.3253E+01  0.2379E+02  0.2272E+02
     10.469  0.1865E+01  0.3135E+01  0.2390E+02  0.2291E+02
     10.531  0.1709E+01  0.2858E+01  0.2401E+02  0.2309E+02
     10.594  0.1748E+01  0.2713E+01  0.2412E+02  0.2326E+02
     10.657  0.1796E+01  0.2580E+01  0.2423E+02  0.2343E+02
     10.719  0.1878E+01  0.2405E+01  0.2435E+02  0.2358E+02
     10.782  0.1913E+01  0.2349E+01  0.2447E+02  0.2372E+02
     10.845  0.1845E+01  0.2438E+01  0.2459E+02  0.2388E+02
     10.907  0.1820E+01  0.2554E+01  0.2470E+02  0.2404E+02
     10.970  0.1905E+01  0.2605E+01  0.2482E+02  0.2420E+02
     11.033  0.1869E+01  0.2489E+01  0.2494E+02  0.2436E+02
     11.095  0.1700E+01  0.2099E+01  0.2504E+02  0.2449E+02
     11.158  0.1604E+01  0.1767E+01  0.2514E+02  0.2460E+02
     11.221  0.1603E+01  0.1762E+01  0.2525E+02  0.2471E+02
     11.283  0.1691E+01  0.1876E+01  0.2535E+02  0.2483E+02
     11.346  0.1659E+01  0.1815E+01  0.2546E+02  0.2494E+02
     11.409  0.1553E+01  0.1648E+01  0.2555E+02  0.2504E+02
     11.471  0.1553E+01  0.1651E+01  0.2565E+02  0.2515E+02
     11.534  0.1607E+01  0.1933E+01  0.2575E+02  0.2527E+02
     11.597  0.1618E+01  0.2102E+01  0.2585E+02  0.2540E+02
     11.659  0.1710E+01  0.1884E+01  0.2596E+02  0.2552E+02
     11.722  0.1897E+01  0.1679E+01  0.2608E+02  0.2562E+02
     11.785  0.1898E+01  0.1590E+01  0.2620E+02  0.2572E+02
     11.847  0.1788E+01  0.1488E+01  0.2631E+02  0.2582E+02
     11.910  0.1777E+01  0.1502E+01  0.2642E+02  0.2591E+02
     11.973  0.1727E+01  0.1733E+01  0.2653E+02  0.2602E+02
     12.035  0.1645E+01  0.2047E+01  0.2663E+02  0.2615E+02
     12.098  0.1858E+01  0.2212E+01  0.2675E+02  0.2629E+02
     12.161  0.2158E+01  0.2132E+01  0.2688E+02  0.2642E+02
     12.223  0.2172E+01  0.1996E+01  0.2702E+02  0.2655E+02
     12.286  0.2030E+01  0.1962E+01  0.2715E+02  0.2667E+02
     12.349  0.1832E+01  0.1984E+01  0.2726E+02  0.2679E+02
     12.411  0.1647E+01  0.2085E+01  0.2737E+02  0.2692E+02
     12.474  0.1417E+01  0.2138E+01  0.2746E+02  0.2706E+02
     12.537  0.1132E+01  0.1978E+01  0.2753E+02  0.2718E+02
     12.599  0.9482E+00  0.1730E+01  0.2759E+02  0.2729E+02
     12.662  0.8333E+00  0.1530E+01  0.2764E+02  0.2739E+02
     12.725  0.7589E+00  0.1374E+01  0.2769E+02  0.2747E+02
     12.788  0.7185E+00  0.1205E+01  0.2773E+02  0.2755E+02
     12.850  0.6749E+00  0.1051E+01  0.2777E+02  0.2761E+02
     12.913  0.6045E+00  0.9009E+00  0.2781E+02  0.2767E+02
     12.976  0.4909E+00  0.7747E+00  0.2784E+02  0.2772E+02
     13.038  0.3505E+00  0.7264E+00  0.2786E+02  0.2777E+02
     13.101  0.2758E+00  0.7172E+00  0.2788E+02  0.2781E+02
     13.164  0.2919E+00  0.6173E+00  0.2790E+02  0.2785E+02
     13.226  0.2996E+00  0.4735E+00  0.2792E+02  0.2788E+02
     13.289  0.2581E+00  0.4005E+00  0.2793E+02  0.2790E+02
     13.352  0.2134E+00  0.3762E+00  0.2795E+02  0.2793E+02
     13.414  0.1487E+00  0.3018E+00  0.2796E+02  0.2795E+02
     13.477  0.8875E-01  0.1812E+00  0.2796E+02  0.2796E+02
     13.540  0.5676E-01  0.8838E-01  0.2797E+02  0.2796E+02
     13.602  0.6308E-01  0.4798E-01  0.2797E+02  0.2797E+02
     13.665  0.9634E-01  0.5817E-01  0.2798E+02  0.2797E+02
     13.728  0.9555E-01  0.9434E-01  0.2798E+02  0.2798E+02
     13.790  0.6329E-01  0.9713E-01  0.2799E+02  0.2798E+02
     13.853  0.5320E-01  0.6883E-01  0.2799E+02  0.2799E+02
     13.916  0.5738E-01  0.5953E-01  0.2799E+02  0.2799E+02
     13.978  0.5197E-01  0.5942E-01  0.2800E+02  0.2799E+02
     14.041  0.3278E-01  0.4845E-01  0.2800E+02  0.2800E+02
     14.104  0.1356E-01  0.2668E-01  0.2800E+02  0.2800E+02
     14.166  0.4436E-02  0.9998E-02  0.2800E+02  0.2800E+02
     14.229  0.1321E-02  0.3145E-02  0.2800E+02  0.2800E+02
     14.292  0.3313E-03  0.9246E-03  0.2800E+02  0.2800E+02
     14.354  0.9495E-04  0.2298E-03  0.2800E+02  0.2800E+02
     14.417  0.0000E+00  0.0000E+00  0.2800E+02  0.2800E+02
     14.480  0.0000E+00  0.0000E+00  0.2800E+02  0.2800E+02
     14.542  0.0000E+00  0.0000E+00  0.2800E+02  0.2800E+02
     14.605  0.0000E+00  0.0000E+00  0.2800E+02  0.2800E+02
     14.668  0.0000E+00  0.0000E+00  0.2800E+02  0.2800E+02
     14.730  0.0000E+00  0.0000E+00  0.2800E+02  0.2800E+02
     14.793  0.0000E+00  0.0000E+00  0.2800E+02  0.2800E+02
     14.856  0.0000E+00  0.0000E+00  0.2800E+02  0.2800E+02
     14.85583184     -3.94695081  301      7.17010963      1.00000000
     -3.947  0.0000E+00  0.0000E+00  0.0000E+00  0.0000E+00  0.0000E+00  0.0000E+00  0.0000E+00  0.0000E+00  0.0000E+00  0.0000E+00  0.0000E+00  0.0000E+00  0.0000E+00  0.0000E+00  0.0000E+00  0.0000E+00  0.0000E+00  0.0000E+00
     -3.884  0.0000E+00  0.0000E+00  0.0000E+00  0.0000E+00  0.0000E+00  0.0000E+00  0.0000E+00  0.0000E+00  0.0000E+00  0.0000E+00  0.0000E+00  0.0000E+00  0.0000E+00  0.0000E+00  0.0000E+00  0.0000E+00  0.0000E+00  0.0000E+00
     -3.822  0.0000E+00  0.0000E+00  0.0000E+00  0.0000E+00  0.0000E+00  0.0000E+00  0.0000E+00  0.0000E+00  0.0000E+00  0.0000E+00  0.0000E+00  0.0000E+00  0.0000E+00  0.0000E+00  0.0000E+00  0.0000E+00  0.0000E+00  0.0000E+00
     -3.759  0.0000E+00  0.0000E+00  0.0000E+00  0.0000E+00  0.0000E+00  0.0000E+00  0.0000E+00  0.0000E+00  0.0000E+00  0.0000E+00  0.0000E+00  0.0000E+00  0.0000E+00  0.0000E+00  0.0000E+00  0.0000E+00  0.0000E+00  0.0000E+00
     -3.696  0.0000E+00  0.0000E+00  0.0000E+00  0.0000E+00  0.0000E+00  0.0000E+00  0.0000E+00  0.0000E+00  0.0000E+00  0.0000E+00  0.0000E+00  0.0000E+00  0.0000E+00  0.0000E+00  0.0000E+00  0.0000E+00  0.0000E+00  0.0000E+00
     -3.634  0.0000E+00  0.0000E+00  0.0000E+00  0.0000E+00  0.0000E+00  0.0000E+00  0.0000E+00  0.0000E+00  0.0000E+00  0.0000E+00  0.0000E+00  0.0000E+00  0.0000E+00  0.0000E+00  0.0000E+00  0.0000E+00  0.0000E+00  0.0000E+00
     -3.571  0.0000E+00  0.0000E+00  0.0000E+00  0.0000E+00  0.0000E+00  0.0000E+00  0.0000E+00  0.0000E+00  0.0000E+00  0.0000E+00  0.0000E+00  0.0000E+00  0.0000E+00  0.0000E+00  0.0000E+00  0.0000E+00  0.0000E+00  0.0000E+00
     -3.508  0.0000E+00  0.2498E-06  0.0000E+00  0.2183E-18  0.0000E+00  0.9555E-09  0.0000E+00  0.2183E-18  0.0000E+00  0.2846E-18  0.0000E+00  0.2160E-17  0.0000E+00  0.1099E-09  0.0000E+00  0.2160E-17  0.0000E+00  0.4415E-14
     -3.446  0.2884E-06  0.1725E-05  0.2558E-19  0.5027E-08  0.9936E-09  0.6633E-08  0.2558E-19  0.5027E-08  0.7722E-15  0.3087E-16  0.2222E-14  0.2575E-10  0.4648E-11  0.8910E-09  0.2222E-14  0.2575E-10  0.1333E-17  0.1773E-10
     -3.383  0.1982E-05  0.6254E-05  0.5530E-08  0.2372E-07  0.6865E-08  0.2739E-07  0.5530E-08  0.2372E-07  0.4949E-14  0.1656E-09  0.3047E-10  0.1220E-09  0.6707E-10  0.3355E-08  0.3047E-10  0.1220E-09  0.2542E-10  0.4437E-10
     -3.320  0.7174E-05  0.2121E-04  0.2600E-07  0.7829E-07  0.2819E-07  0.1038E-06  0.2600E-07  0.7829E-07  0.2025E-09  0.4141E-09  0.1444E-09  0.4712E-09  0.3208E-09  0.1117E-07  0.1444E-09  0.4712E-09  0.6360E-10  0.2231E-09
     -3.258  0.2432E-04  0.7435E-04  0.8571E-07  0.2959E-06  0.1064E-06  0.3692E-06  0.8571E-07  0.2959E-06  0.5063E-09  0.1811E-08  0.5543E-09  0.1919E-08  0.1093E-08  0.3971E-07  0.5543E-09  0.1919E-08  0.3216E-09  0.9619E-09
     -3.195  0.8521E-04  0.2496E-03  0.3233E-06  0.1025E-05  0.3783E-06  0.1257E-05  0.3233E-06  0.1025E-05  0.2207E-08  0.6809E-08  0.2252E-08  0.6702E-08  0.4060E-08  0.1339E-06  0.2252E-08  0.6702E-08  0.1388E-08  0.3289E-08
     -3.132  0.2859E-03  0.7709E-03  0.1119E-05  0.3374E-05  0.1288E-05  0.4156E-05  0.1119E-05  0.3374E-05  0.8288E-08  0.2245E-07  0.7869E-08  0.2302E-07  0.1386E-07  0.4148E-06  0.7869E-08  0.2302E-07  0.4743E-08  0.1090E-07
     -3.069  0.8815E-03  0.1984E-02  0.3683E-05  0.1008E-04  0.4253E-05  0.1232E-04  0.3683E-05  0.1008E-04  0.2734E-07  0.7461E-07  0.2700E-07  0.7564E-07  0.4431E-07  0.1081E-05  0.2700E-07  0.7564E-07  0.1571E-07  0.3319E-07
     -3.007  0.2263E-02  0.3853E-02  0.1098E-04  0.2432E-04  0.1257E-04  0.3009E-04  0.1098E-04  0.2432E-04  0.9073E-07  0.2131E-06  0.8862E-07  0.2129E-06  0.1259E-06  0.2144E-05  0.8862E-07  0.2129E-06  0.4788E-07  0.8809E-07
     -2.944  0.4383E-02  0.5601E-02  0.2644E-04  0.4626E-04  0.3061E-04  0.6030E-04  0.2644E-04  0.4626E-04  0.2588E-06  0.4848E-06  0.2492E-06  0.5011E-06  0.2938E-06  0.3214E-05  0.2492E-06  0.5011E-06  0.1274E-06  0.2202E-06
     -2.881  0.6357E-02  0.7042E-02  0.5010E-04  0.7956E-04  0.6114E-04  0.1032E-03  0.5010E-04  0.7956E-04  0.5874E-06  0.9797E-06  0.5846E-06  0.1048E-05  0.5818E-06  0.4358E-05  0.5846E-06  0.1048E-05  0.3196E-06  0.5261E-06
     -2.819  0.7983E-02  0.8743E-02  0.8592E-04  0.1304E-03  0.1046E-03  0.1512E-03  0.8592E-04  0.1304E-03  0.1184E-05  0.1967E-05  0.1225E-05  0.1958E-05  0.1095E-05  0.6161E-05  0.1225E-05  0.1958E-05  0.7682E-06  0.9929E-06
     -2.756  0.9930E-02  0.9731E-02  0.1410E-03  0.1740E-03  0.1534E-03  0.2009E-03  0.1410E-03  0.1740E-03  0.2384E-05  0.3271E-05  0.2292E-05  0.3175E-05  0.1915E-05  0.7492E-05  0.2292E-05  0.3175E-05  0.1457E-05  0.1361E-05
     -2.693  0.1109E-01  0.9839E-02  0.1889E-03  0.1996E-03  0.2024E-03  0.2831E-03  0.1889E-03  0.1996E-03  0.3988E-05  0.4591E-05  0.3718E-05  0.4955E-05  0.2800E-05  0.7642E-05  0.3718E-05  0.4955E-05  0.2008E-05  0.1703E-05
     -2.631  0.1118E-01  0.1072E-01  0.2158E-03  0.2549E-03  0.2834E-03  0.3816E-03  0.2158E-03  0.2549E-03  0.5573E-05  0.6984E-05  0.5782E-05  0.7334E-05  0.3833E-05  0.9224E-05  0.5782E-05  0.7334E-05  0.2504E-05  0.2647E-05
     -2.568  0.1220E-01  0.1160E-01  0.2744E-03  0.3401E-03  0.3865E-03  0.4141E-03  0.2744E-03  0.3401E-03  0.8468E-05  0.9741E-05  0.8623E-05  0.9384E-05  0.5759E-05  0.1294E-04  0.8623E-05  0.9384E-05  0.3866E-05  0.4730E-05
     -2.505  0.1328E-01  0.1231E-01  0.3666E-03  0.4310E-03  0.4233E-03  0.4553E-03  0.3666E-03  0.4310E-03  0.1189E-04  0.1247E-04  0.1107E-04  0.1281E-04  0.8311E-05  0.1663E-04  0.1107E-04  0.1281E-04  0.6917E-05  0.7275E-05
     -2.443  0.1404E-01  0.1331E-01  0.4645E-03  0.4991E-03  0.4551E-03  0.6128E-03  0.4645E-03  0.4991E-03  0.1519E-04  0.1648E-04  0.1493E-04  0.1882E-04  0.1087E-04  0.1837E-04  0.1493E-04  0.1882E-04  0.1078E-04  0.8438E-05
     -2.380  0.1518E-01  0.1360E-01  0.5409E-03  0.5356E-03  0.6048E-03  0.7692E-03  0.5409E-03  0.5356E-03  0.2007E-04  0.2259E-04  0.2207E-04  0.2342E-04  0.1358E-04  0.2002E-04  0.2207E-04  0.2342E-04  0.1269E-04  0.8438E-05
     -2.317  0.1564E-01  0.1324E-01  0.5823E-03  0.5732E-03  0.7699E-03  0.8258E-03  0.5823E-03  0.5732E-03  0.2748E-04  0.3059E-04  0.2791E-04  0.2628E-04  0.1757E-04  0.2290E-04  0.2791E-04  0.2628E-04  0.1277E-04  0.8510E-05
     -2.255  0.1535E-01  0.1251E-01  0.6244E-03  0.6018E-03  0.8396E-03  0.8610E-03  0.6244E-03  0.6018E-03  0.3758E-04  0.3374E-04  0.3122E-04  0.3253E-04  0.2208E-04  0.2350E-04  0.3122E-04  0.3253E-04  0.1287E-04  0.1014E-04
     -2.192  0.1447E-01  0.1340E-01  0.6504E-03  0.7246E-03  0.8708E-03  0.1016E-02  0.6504E-03  0.7246E-03  0.4191E-04  0.3597E-04  0.3785E-04  0.4516E-04  0.2336E-04  0.2745E-04  0.3785E-04  0.4516E-04  0.1494E-04  0.1665E-04
     -2.129  0.1525E-01  0.1517E-01  0.7707E-03  0.9168E-03  0.1007E-02  0.1169E-02  0.7707E-03  0.9168E-03  0.4432E-04  0.4346E-04  0.5255E-04  0.5442E-04  0.2665E-04  0.3814E-04  0.5255E-04  0.5442E-04  0.2426E-04  0.2585E-04
     -2.067  0.1749E-01  0.1508E-01  0.9874E-03  0.1013E-02  0.1174E-02  0.1187E-02  0.9874E-03  0.1013E-02  0.5338E-04  0.5639E-04  0.6558E-04  0.5450E-04  0.3660E-04  0.4804E-04  0.6558E-04  0.5450E-04  0.3868E-04  0.3008E-04
     -2.004  0.1760E-01  0.1526E-01  0.1103E-02  0.1095E-02  0.1180E-02  0.1382E-02  0.1103E-02  0.1095E-02  0.6893E-04  0.7601E-04  0.6618E-04  0.6540E-04  0.4691E-04  0.5450E-04  0.6618E-04  0.6540E-04  0.4619E-04  0.3026E-04
     -1.941  0.1751E-01  0.1617E-01  0.1180E-02  0.1201E-02  0.1324E-02  0.1680E-02  0.1180E-02  0.1201E-02  0.9281E-04  0.9399E-04  0.7589E-04  0.8737E-04  0.5666E-04  0.5810E-04  0.7589E-04  0.8737E-04  0.4661E-04  0.3099E-04
     -1.879  0.1877E-01  0.1524E-01  0.1303E-02  0.1160E-02  0.1662E-02  0.1809E-02  0.1303E-02  0.1160E-02  0.1171E-03  0.9469E-04  0.1021E-03  0.1034E-03  0.6581E-04  0.5381E-04  0.1021E-03  0.1034E-03  0.4804E-04  0.2952E-04
     -1.816  0.1809E-01  0.1377E-01  0.1282E-02  0.1084E-02  0.1824E-02  0.1924E-02  0.1282E-02  0.1084E-02  0.1211E-03  0.8788E-04  0.1225E-03  0.1179E-03  0.6560E-04  0.4833E-04  0.1225E-03  0.1179E-03  0.4644E-04  0.2952E-04
     -1.753  0.1629E-01  0.1341E-01  0.1185E-02  0.1168E-02  0.1920E-02  0.1970E-02  0.1185E-02  0.1168E-02  0.1110E-03  0.1027E-03  0.1406E-03  0.1294E-03  0.6187E-04  0.5350E-04  0.1406E-03  0.1294E-03  0.4596E-04  0.3510E-04
     -1.691  0.1588E-01  0.1400E-01  0.1259E-02  0.1410E-02  0.1991E-02  0.2001E-02  0.1259E-02  0.1410E-02  0.1257E-03  0.1422E-03  0.1580E-03  0.1354E-03  0.6631E-04  0.7404E-04  0.1580E-03  0.1354E-03  0.5418E-04  0.4700E-04
     -1.628  0.1638E-01  0.1559E-01  0.1503E-02  0.1749E-02  0.1932E-02  0.2355E-02  0.1503E-02  0.1749E-02  0.1741E-03  0.1795E-03  0.1653E-03  0.1513E-03  0.8132E-04  0.1055E-03  0.1653E-03  0.1513E-03  0.7107E-04  0.6764E-04
     -1.565  0.1792E-01  0.1669E-01  0.1862E-02  0.1959E-02  0.2089E-02  0.2919E-02  0.1862E-02  0.1959E-02  0.2261E-03  0.1874E-03  0.1765E-03  0.1916E-03  0.1129E-03  0.1201E-03  0.1765E-03  0.1916E-03  0.1020E-03  0.8405E-04
     -1.503  0.1945E-01  0.1666E-01  0.2110E-02  0.2024E-02  0.2678E-02  0.3309E-02  0.2110E-02  0.2024E-02  0.2402E-03  0.1903E-03  0.2184E-03  0.2371E-03  0.1415E-03  0.1178E-03  0.2184E-03  0.2371E-03  0.1309E-03  0.8967E-04
     -1.440  0.1995E-01  0.1558E-01  0.2202E-02  0.1990E-02  0.3231E-02  0.3551E-02  0.2202E-02  0.1990E-02  0.2423E-03  0.2028E-03  0.2787E-03  0.2602E-03  0.1501E-03  0.1148E-03  0.2787E-03  0.2602E-03  0.1433E-03  0.8813E-04
     -1.377  0.1910E-01  0.1403E-01  0.2205E-02  0.1884E-02  0.3377E-02  0.3768E-02  0.2205E-02  0.1884E-02  0.2569E-03  0.2284E-03  0.3133E-03  0.2804E-03  0.1479E-03  0.1057E-03  0.3133E-03  0.2804E-03  0.1453E-03  0.7698E-04
     -1.315  0.1725E-01  0.1360E-01  0.2081E-02  0.1972E-02  0.3546E-02  0.3740E-02  0.2081E-02  0.1972E-02  0.2860E-03  0.2834E-03  0.3356E-03  0.3138E-03  0.1416E-03  0.1002E-03  0.3356E-03  0.3138E-03  0.1289E-03  0.7227E-04
     -1.252  0.1669E-01  0.1293E-01  0.2142E-02  0.2031E-02  0.3837E-02  0.3617E-02  0.2142E-02  0.2031E-02  0.3558E-03  0.3254E-03  0.3841E-03  0.3317E-03  0.1336E-03  0.1068E-03  0.3841E-03  0.3317E-03  0.1181E-03  0.7231E-04
     -1.189  0.1605E-01  0.1201E-01  0.2255E-02  0.2005E-02  0.3736E-02  0.3945E-02  0.2255E-02  0.2005E-02  0.4231E-03  0.3495E-03  0.4001E-03  0.3713E-03  0.1301E-03  0.1207E-03  0.4001E-03  0.3713E-03  0.1206E-03  0.7266E-04
     -1.127  0.1444E-01  0.1280E-01  0.2181E-02  0.2303E-02  0.3730E-02  0.4304E-02  0.2181E-02  0.2303E-02  0.4502E-03  0.3950E-03  0.4150E-03  0.4482E-03  0.1429E-03  0.1431E-03  0.4150E-03  0.4482E-03  0.1189E-03  0.9459E-04
     -1.064  0.1504E-01  0.1386E-01  0.2410E-02  0.2759E-02  0.4369E-02  0.4117E-02  0.2410E-02  0.2759E-02  0.5027E-03  0.4150E-03  0.5250E-03  0.5026E-03  0.1736E-03  0.1639E-03  0.5250E-03  0.5026E-03  0.1452E-03  0.1389E-03
     -1.001  0.1673E-01  0.1395E-01  0.2903E-02  0.3048E-02  0.4779E-02  0.4023E-02  0.2903E-02  0.3048E-02  0.5370E-03  0.4078E-03  0.6452E-03  0.5418E-03  0.1983E-03  0.1801E-03  0.6452E-03  0.5418E-03  0.2139E-03  0.1764E-03
     -0.939  0.1727E-01  0.1248E-01  0.3296E-02  0.2965E-02  0.4375E-02  0.3943E-02  0.3296E-02  0.2965E-02  0.5388E-03  0.4009E-03  0.6829E-03  0.5398E-03  0.2123E-03  0.1822E-03  0.6829E-03  0.5398E-03  0.2868E-03  0.1805E-03
     -0.876  0.1595E-01  0.1138E-01  0.3292E-02  0.3007E-02  0.4059E-02  0.3521E-02  0.3292E-02  0.3007E-02  0.5290E-03  0.4853E-03  0.6859E-03  0.5053E-03  0.2158E-03  0.1971E-03  0.6859E-03  0.5053E-03  0.3081E-03  0.1786E-03
     -0.813  0.1433E-01  0.1173E-01  0.3255E-02  0.3309E-02  0.3859E-02  0.3521E-02  0.3255E-02  0.3309E-02  0.6122E-03  0.6515E-03  0.6653E-03  0.5578E-03  0.2285E-03  0.2220E-03  0.6653E-03  0.5578E-03  0.3049E-03  0.1739E-03