   8   8   1   0
  0.1661663E+02  0.3961768E-09  0.3961768E-09  0.8469441E-09  0.5000000E-15
  1.000000000000000E-004
  CAR 
 unknown system                          
     14.42872624     -4.03416251  301      6.92012919      1.00000000
     -4.034  0.0000E+00  0.0000E+00  0.0000E+00  0.0000E+00
     -3.973  0.0000E+00  0.0000E+00  0.0000E+00  0.0000E+00
     -3.911  0.0000E+00  0.0000E+00  0.0000E+00  0.0000E+00
     -3.850  0.0000E+00  0.0000E+00  0.0000E+00  0.0000E+00
     -3.788  0.0000E+00  0.0000E+00  0.0000E+00  0.0000E+00
     -3.726  0.0000E+00  0.0000E+00  0.0000E+00  0.0000E+00
     -3.665  0.0000E+00  0.0000E+00  0.0000E+00  0.0000E+00
     -3.603  0.0000E+00  0.7276E-05  0.0000E+00  0.4478E-06
     -3.542  0.6543E-05  0.5572E-04  0.4027E-06  0.3877E-05
     -3.480  0.4478E-04  0.1727E-03  0.3159E-05  0.1450E-04
     -3.419  0.1591E-03  0.5906E-03  0.1295E-04  0.5085E-04
     -3.357  0.5269E-03  0.2028E-02  0.4538E-04  0.1756E-03
     -3.296  0.1810E-02  0.6650E-02  0.1568E-03  0.5849E-03
     -3.234  0.5959E-02  0.2009E-01  0.5235E-03  0.1821E-02
     -3.173  0.1818E-01  0.5090E-01  0.1642E-02  0.4954E-02
     -3.111  0.4692E-01  0.9827E-01  0.4530E-02  0.1100E-01
     -3.049  0.9286E-01  0.1440E+00  0.1024E-01  0.1987E-01
     -2.988  0.1387E+00  0.1840E+00  0.1878E-01  0.3119E-01
     -2.926  0.1776E+00  0.2306E+00  0.2971E-01  0.4538E-01
     -2.865  0.2235E+00  0.2595E+00  0.4347E-01  0.6135E-01
     -2.803  0.2555E+00  0.2685E+00  0.5919E-01  0.7788E-01
     -2.742  0.2631E+00  0.2976E+00  0.7538E-01  0.9620E-01
     -2.680  0.2894E+00  0.3261E+00  0.9320E-01  0.1163E+00
     -2.619  0.3204E+00  0.3523E+00  0.1129E+00  0.1380E+00
     -2.557  0.3433E+00  0.3872E+00  0.1341E+00  0.1618E+00
     -2.496  0.3769E+00  0.4029E+00  0.1573E+00  0.1866E+00
     -2.434  0.3967E+00  0.3988E+00  0.1817E+00  0.2112E+00
     -2.373  0.3973E+00  0.3870E+00  0.2062E+00  0.2350E+00
     -2.311  0.3826E+00  0.4254E+00  0.2297E+00  0.2612E+00
     -2.249  0.4064E+00  0.4856E+00  0.2547E+00  0.2911E+00
     -2.188  0.4723E+00  0.4925E+00  0.2838E+00  0.3214E+00
     -2.126  0.4878E+00  0.5137E+00  0.3138E+00  0.3530E+00
     -2.065  0.4944E+00  0.5534E+00  0.3443E+00  0.3871E+00
     -2.003  0.5396E+00  0.5334E+00  0.3775E+00  0.4200E+00
     -1.942  0.5359E+00  0.5005E+00  0.4105E+00  0.4508E+00
     -1.880  0.4968E+00  0.5020E+00  0.4411E+00  0.4817E+00
     -1.819  0.4934E+00  0.5399E+00  0.4715E+00  0.5149E+00
     -1.757  0.5166E+00  0.6218E+00  0.5033E+00  0.5532E+00
     -1.696  0.5769E+00  0.6887E+00  0.5388E+00  0.5956E+00
     -1.634  0.6500E+00  0.7104E+00  0.5788E+00  0.6394E+00
     -1.572  0.6922E+00  0.6953E+00  0.6215E+00  0.6822E+00
     -1.511  0.6859E+00  0.6648E+00  0.6637E+00  0.7231E+00
     -1.449  0.6504E+00  0.6612E+00  0.7038E+00  0.7638E+00
     -1.388  0.6540E+00  0.6463E+00  0.7440E+00  0.8036E+00
     -1.326  0.6496E+00  0.6479E+00  0.7840E+00  0.8435E+00
     -1.265  0.6151E+00  0.7077E+00  0.8219E+00  0.8871E+00
     -1.203  0.6662E+00  0.7568E+00  0.8629E+00  0.9337E+00
     -1.142  0.7531E+00  0.7755E+00  0.9093E+00  0.9815E+00
     -1.080  0.7769E+00  0.7316E+00  0.9571E+00  0.1027E+01
     -1.019  0.7416E+00  0.6951E+00  0.1003E+01  0.1069E+01
     -0.957  0.7004E+00  0.7324E+00  0.1046E+01  0.1114E+01
     -0.895  0.7128E+00  0.7809E+00  0.1090E+01  0.1163E+01
     -0.834  0.7432E+00  0.7886E+00  0.1136E+01  0.1211E+01
     -0.772  0.7829E+00  0.7428E+00  0.1184E+01  0.1257E+01
     -0.711  0.7792E+00  0.7260E+00  0.1232E+01  0.1302E+01
     -0.649  0.7340E+00  0.7263E+00  0.1277E+01  0.1346E+01
     -0.588  0.7299E+00  0.7346E+00  0.1322E+01  0.1391E+01
     -0.526  0.7289E+00  0.8160E+00  0.1367E+01  0.1442E+01
     -0.465  0.7492E+00  0.8925E+00  0.1413E+01  0.1497E+01
     -0.403  0.8747E+00  0.8767E+00  0.1467E+01  0.1551E+01
     -0.342  0.9643E+00  0.8344E+00  0.1526E+01  0.1602E+01
     -0.280  0.9248E+00  0.7397E+00  0.1583E+01  0.1648E+01
     -0.218  0.8337E+00  0.6546E+00  0.1634E+01  0.1688E+01
     -0.157  0.7416E+00  0.6680E+00  0.1680E+01  0.1729E+01
     -0.095  0.7172E+00  0.7867E+00  0.1724E+01  0.1778E+01
     -0.034  0.7913E+00  0.8331E+00  0.1773E+01  0.1829E+01
      0.028  0.8706E+00  0.7960E+00  0.1827E+01  0.1878E+01
      0.089  0.8402E+00  0.8553E+00  0.1878E+01  0.1931E+01
      0.151  0.8590E+00  0.1004E+01  0.1931E+01  0.1992E+01
      0.212  0.9621E+00  0.1099E+01  0.1991E+01  0.2060E+01
      0.274  0.1030E+01  0.1060E+01  0.2054E+01  0.2125E+01
      0.335  0.1069E+01  0.1023E+01  0.2120E+01  0.2188E+01
      0.397  0.1075E+01  0.1029E+01  0.2186E+01  0.2252E+01
      0.458  0.1081E+01  0.9878E+00  0.2253E+01  0.2312E+01
      0.520  0.1019E+01  0.9576E+00  0.2315E+01  0.2371E+01
      0.582  0.9429E+00  0.9862E+00  0.2373E+01  0.2432E+01
      0.643  0.9653E+00  0.1037E+01  0.2433E+01  0.2496E+01
      0.705  0.1057E+01  0.1011E+01  0.2498E+01  0.2558E+01
      0.766  0.1046E+01  0.9634E+00  0.2562E+01  0.2618E+01
      0.828  0.9784E+00  0.9518E+00  0.2623E+01  0.2676E+01
      0.889  0.9515E+00  0.9307E+00  0.2681E+01  0.2733E+01
      0.951  0.9413E+00  0.9424E+00  0.2739E+01  0.2792E+01
      1.012  0.9832E+00  0.9146E+00  0.2800E+01  0.2848E+01
      1.074  0.9856E+00  0.7959E+00  0.2860E+01  0.2897E+01
      1.135  0.8639E+00  0.7187E+00  0.2914E+01  0.2941E+01
      1.197  0.8012E+00  0.7989E+00  0.2963E+01  0.2990E+01
      1.259  0.9135E+00  0.9187E+00  0.3019E+01  0.3047E+01
      1.320  0.1017E+01  0.9138E+00  0.3082E+01  0.3103E+01
      1.382  0.9880E+00  0.9234E+00  0.3143E+01  0.3160E+01
      1.443  0.9769E+00  0.9401E+00  0.3203E+01  0.3218E+01
      1.505  0.1004E+01  0.8981E+00  0.3265E+01  0.3273E+01
      1.566  0.9922E+00  0.9287E+00  0.3326E+01  0.3330E+01
      1.628  0.1004E+01  0.1041E+01  0.3388E+01  0.3395E+01
      1.689  0.1155E+01  0.1125E+01  0.3459E+01  0.3464E+01
      1.751  0.1328E+01  0.1126E+01  0.3541E+01  0.3533E+01
      1.812  0.1333E+01  0.1191E+01  0.3623E+01  0.3606E+01
      1.874  0.1287E+01  0.1293E+01  0.3702E+01  0.3686E+01
      1.936  0.1322E+01  0.1360E+01  0.3783E+01  0.3770E+01
      1.997  0.1339E+01  0.1382E+01  0.3866E+01  0.3855E+01
      2.059  0.1246E+01  0.1264E+01  0.3942E+01  0.3933E+01
      2.120  0.1185E+01  0.1095E+01  0.4015E+01  0.4000E+01
      2.182  0.1180E+01  0.1022E+01  0.4088E+01  0.4063E+01
      2.243  0.1146E+01  0.9894E+00  0.4159E+01  0.4124E+01
      2.305  0.1190E+01  0.1022E+01  0.4232E+01  0.4187E+01
      2.366  0.1304E+01  0.1106E+01  0.4312E+01  0.4255E+01
      2.428  0.1388E+01  0.1211E+01  0.4398E+01  0.4330E+01
      2.489  0.1428E+01  0.1328E+01  0.4486E+01  0.4411E+01
      2.551  0.1369E+01  0.1351E+01  0.4570E+01  0.4495E+01
      2.612  0.1284E+01  0.1298E+01  0.4649E+01  0.4575E+01
      2.674  0.1277E+01  0.1266E+01  0.4728E+01  0.4652E+01
      2.736  0.1284E+01  0.1246E+01  0.4807E+01  0.4729E+01
      2.797  0.1283E+01  0.1164E+01  0.4886E+01  0.4801E+01
      2.859  0.1307E+01  0.1042E+01  0.4966E+01  0.4865E+01
      2.920  0.1277E+01  0.1036E+01  0.5045E+01  0.4929E+01
      2.982  0.1282E+01  0.1118E+01  0.5124E+01  0.4998E+01
      3.043  0.1357E+01  0.1163E+01  0.5208E+01  0.5069E+01
      3.105  0.1400E+01  0.1214E+01  0.5294E+01  0.5144E+01
      3.166  0.1439E+01  0.1264E+01  0.5382E+01  0.5222E+01
      3.228  0.1470E+01  0.1332E+01  0.5473E+01  0.5304E+01
      3.289  0.1492E+01  0.1443E+01  0.5565E+01  0.5393E+01
      3.351  0.1536E+01  0.1442E+01  0.5659E+01  0.5482E+01
      3.413  0.1606E+01  0.1390E+01  0.5758E+01  0.5567E+01
      3.474  0.1640E+01  0.1357E+01  0.5859E+01  0.5651E+01
      3.536  0.1569E+01  0.1301E+01  0.5956E+01  0.5731E+01
      3.597  0.1446E+01  0.1341E+01  0.6045E+01  0.5814E+01
      3.659  0.1465E+01  0.1489E+01  0.6135E+01  0.5905E+01
      3.720  0.1601E+01  0.1550E+01  0.6234E+01  0.6001E+01
      3.782  0.1700E+01  0.1507E+01  0.6338E+01  0.6093E+01
      3.843  0.1841E+01  0.1501E+01  0.6452E+01  0.6186E+01
      3.905  0.1999E+01  0.1546E+01  0.6575E+01  0.6281E+01
      3.966  0.2002E+01  0.1523E+01  0.6698E+01  0.6375E+01
      4.028  0.1916E+01  0.1432E+01  0.6816E+01  0.6463E+01
      4.090  0.1997E+01  0.1396E+01  0.6939E+01  0.6549E+01
      4.151  0.2235E+01  0.1451E+01  0.7077E+01  0.6638E+01
      4.213  0.2269E+01  0.1531E+01  0.7216E+01  0.6733E+01
      4.274  0.2050E+01  0.1534E+01  0.7343E+01  0.6827E+01
      4.336  0.1894E+01  0.1572E+01  0.7459E+01  0.6924E+01
      4.397  0.1968E+01  0.1724E+01  0.7580E+01  0.7030E+01
      4.459  0.2270E+01  0.1818E+01  0.7720E+01  0.7142E+01
      4.520  0.2726E+01  0.1705E+01  0.7888E+01  0.7247E+01
      4.582  0.3139E+01  0.1476E+01  0.8081E+01  0.7338E+01
      4.643  0.3334E+01  0.1466E+01  0.8287E+01  0.7428E+01
      4.705  0.3365E+01  0.1662E+01  0.8494E+01  0.7531E+01
      4.766  0.3450E+01  0.1820E+01  0.8706E+01  0.7643E+01
      4.828  0.3680E+01  0.1885E+01  0.8933E+01  0.7759E+01
      4.890  0.4185E+01  0.1898E+01  0.9190E+01  0.7876E+01
      4.951  0.4716E+01  0.1953E+01  0.9481E+01  0.7996E+01
      5.013  0.4828E+01  0.2104E+01  0.9778E+01  0.8125E+01
      5.074  0.4659E+01  0.2245E+01  0.1007E+02  0.8264E+01
      5.136  0.4580E+01  0.2212E+01  0.1035E+02  0.8400E+01
      5.197  0.4495E+01  0.2094E+01  0.1062E+02  0.8529E+01
      5.259  0.4559E+01  0.1991E+01  0.1090E+02  0.8651E+01
      5.320  0.5006E+01  0.1951E+01  0.1121E+02  0.8772E+01
      5.382  0.5708E+01  0.2044E+01  0.1156E+02  0.8897E+01
      5.443  0.6241E+01  0.2240E+01  0.1195E+02  0.9035E+01
      5.505  0.6128E+01  0.2503E+01  0.1233E+02  0.9190E+01
      5.567  0.5555E+01  0.2814E+01  0.1267E+02  0.9363E+01
      5.628  0.4890E+01  0.2998E+01  0.1297E+02  0.9547E+01
      5.690  0.4322E+01  0.3022E+01  0.1324E+02  0.9733E+01
      5.751  0.3883E+01  0.2901E+01  0.1347E+02  0.9912E+01
      5.813  0.3401E+01  0.2649E+01  0.1368E+02  0.1008E+02
      5.874  0.2694E+01  0.2462E+01  0.1385E+02  0.1023E+02
      5.936  0.1838E+01  0.2427E+01  0.1396E+02  0.1038E+02
      5.997  0.1292E+01  0.2592E+01  0.1404E+02  0.1054E+02
      6.059  0.1475E+01  0.2937E+01  0.1413E+02  0.1072E+02
      6.120  0.2548E+01  0.3037E+01  0.1429E+02  0.1090E+02
      6.182  0.4548E+01  0.2674E+01  0.1457E+02  0.1107E+02
      6.244  0.6205E+01  0.2345E+01  0.1495E+02  0.1121E+02
      6.305  0.5882E+01  0.2297E+01  0.1532E+02  0.1135E+02
      6.367  0.4690E+01  0.2418E+01  0.1560E+02  0.1150E+02
      6.428  0.3833E+01  0.2499E+01  0.1584E+02  0.1166E+02
      6.490  0.3301E+01  0.2492E+01  0.1604E+02  0.1181E+02
      6.551  0.3018E+01  0.2574E+01  0.1623E+02  0.1197E+02
      6.613  0.2767E+01  0.2793E+01  0.1640E+02  0.1214E+02
      6.674  0.2396E+01  0.2966E+01  0.1655E+02  0.1232E+02
      6.736  0.2030E+01  0.3061E+01  0.1667E+02  0.1251E+02
      6.797  0.1752E+01  0.2983E+01  0.1678E+02  0.1270E+02
      6.859  0.1603E+01  0.2734E+01  0.1688E+02  0.1286E+02
      6.920  0.1646E+01  0.2545E+01  0.1698E+02  0.1302E+02
      6.982  0.1780E+01  0.2425E+01  0.1709E+02  0.1317E+02
      7.044  0.1794E+01  0.2198E+01  0.1720E+02  0.1331E+02
      7.105  0.1627E+01  0.1966E+01  0.1730E+02  0.1343E+02
      7.167  0.1494E+01  0.1862E+01  0.1739E+02  0.1354E+02
      7.228  0.1571E+01  0.1772E+01  0.1749E+02  0.1365E+02
      7.290  0.1745E+01  0.1598E+01  0.1760E+02  0.1375E+02
      7.351  0.1909E+01  0.1499E+01  0.1771E+02  0.1384E+02
      7.413  0.2033E+01  0.1418E+01  0.1784E+02  0.1393E+02
      7.474  0.2235E+01  0.1198E+01  0.1798E+02  0.1400E+02
      7.536  0.2796E+01  0.9019E+00  0.1815E+02  0.1406E+02
      7.597  0.3565E+01  0.7827E+00  0.1837E+02  0.1411E+02
      7.659  0.3832E+01  0.8796E+00  0.1861E+02  0.1416E+02
      7.721  0.3580E+01  0.1080E+01  0.1883E+02  0.1423E+02
      7.782  0.3158E+01  0.1311E+01  0.1902E+02  0.1431E+02
      7.844  0.2691E+01  0.1637E+01  0.1919E+02  0.1441E+02
      7.905  0.2447E+01  0.2060E+01  0.1934E+02  0.1454E+02
      7.967  0.2476E+01  0.2499E+01  0.1949E+02  0.1469E+02
      8.028  0.2465E+01  0.3258E+01  0.1964E+02  0.1489E+02
      8.090  0.2211E+01  0.4377E+01  0.1978E+02  0.1516E+02
      8.151  0.1950E+01  0.5373E+01  0.1990E+02  0.1549E+02
      8.213  0.1820E+01  0.6019E+01  0.2001E+02  0.1586E+02
      8.274  0.1769E+01  0.6170E+01  0.2012E+02  0.1624E+02
      8.336  0.1751E+01  0.5897E+01  0.2023E+02  0.1660E+02
      8.398  0.1825E+01  0.5665E+01  0.2034E+02  0.1695E+02
      8.459  0.2059E+01  0.5750E+01  0.2047E+02  0.1731E+02
      8.521  0.2206E+01  0.5658E+01  0.2060E+02  0.1765E+02
      8.582  0.2174E+01  0.5106E+01  0.2074E+02  0.1797E+02
      8.644  0.2035E+01  0.4748E+01  0.2086E+02  0.1826E+02
      8.705  0.1798E+01  0.4575E+01  0.2097E+02  0.1854E+02
      8.767  0.1736E+01  0.4123E+01  0.2108E+02  0.1880E+02
      8.828  0.1950E+01  0.3544E+01  0.2120E+02  0.1902E+02
      8.890  0.2098E+01  0.3159E+01  0.2133E+02  0.1921E+02
      8.951  0.2156E+01  0.3197E+01  0.2146E+02  0.1941E+02
      9.013  0.2296E+01  0.3371E+01  0.2160E+02  0.1961E+02
      9.074  0.2420E+01  0.3331E+01  0.2175E+02  0.1982E+02
      9.136  0.2407E+01  0.3156E+01  0.2190E+02  0.2001E+02
      9.198  0.2241E+01  0.2923E+01  0.2204E+02  0.2019E+02
      9.259  0.2079E+01  0.2749E+01  0.2216E+02  0.2036E+02
      9.321  0.2063E+01  0.2713E+01  0.2229E+02  0.2053E+02
      9.382  0.2182E+01  0.2755E+01  0.2243E+02  0.2070E+02
      9.444  0.2264E+01  0.2869E+01  0.2257E+02  0.2088E+02
      9.505  0.2160E+01  0.2960E+01  0.2270E+02  0.2106E+02
      9.567  0.2014E+01  0.2955E+01  0.2282E+02  0.2124E+02
      9.628  0.1943E+01  0.2863E+01  0.2294E+02  0.2142E+02
      9.690  0.1785E+01  0.2689E+01  0.2305E+02  0.2158E+02
      9.751  0.1708E+01  0.2714E+01  0.2316E+02  0.2175E+02
      9.813  0.1915E+01  0.2860E+01  0.2328E+02  0.2193E+02
      9.875  0.2241E+01  0.2900E+01  0.2341E+02  0.2211E+02
      9.936  0.2450E+01  0.2899E+01  0.2356E+02  0.2228E+02
      9.998  0.2406E+01  0.3049E+01  0.2371E+02  0.2247E+02
     10.059  0.2076E+01  0.3277E+01  0.2384E+02  0.2267E+02
     10.121  0.1741E+01  0.3271E+01  0.2395E+02  0.2287E+02
     10.182  0.1693E+01  0.3005E+01  0.2405E+02  0.2306E+02
     10.244  0.1772E+01  0.2806E+01  0.2416E+02  0.2323E+02
     10.305  0.1844E+01  0.2683E+01  0.2427E+02  0.2340E+02
     10.367  0.1948E+01  0.2534E+01  0.2439E+02  0.2355E+02
     10.428  0.1909E+01  0.2470E+01  0.2451E+02  0.2371E+02
     10.490  0.1805E+01  0.2566E+01  0.2462E+02  0.2386E+02
     10.552  0.1884E+01  0.2674E+01  0.2474E+02  0.2403E+02
     10.613  0.1994E+01  0.2679E+01  0.2486E+02  0.2419E+02
     10.675  0.1881E+01  0.2500E+01  0.2498E+02  0.2435E+02
     10.736  0.1722E+01  0.2130E+01  0.2508E+02  0.2448E+02
     10.798  0.1626E+01  0.1823E+01  0.2518E+02  0.2459E+02
     10.859  0.1620E+01  0.1830E+01  0.2528E+02  0.2470E+02
     10.921  0.1696E+01  0.1960E+01  0.2539E+02  0.2482E+02
     10.982  0.1645E+01  0.1920E+01  0.2549E+02  0.2494E+02
     11.044  0.1550E+01  0.1768E+01  0.2559E+02  0.2505E+02
     11.105  0.1604E+01  0.1746E+01  0.2568E+02  0.2516E+02
     11.167  0.1689E+01  0.1966E+01  0.2579E+02  0.2528E+02
     11.228  0.1719E+01  0.2093E+01  0.2589E+02  0.2541E+02
     11.290  0.1842E+01  0.1867E+01  0.2601E+02  0.2552E+02
     11.352  0.1944E+01  0.1668E+01  0.2613E+02  0.2563E+02
     11.413  0.1822E+01  0.1603E+01  0.2624E+02  0.2573E+02
     11.475  0.1703E+01  0.1515E+01  0.2634E+02  0.2582E+02
     11.536  0.1725E+01  0.1548E+01  0.2645E+02  0.2591E+02
     11.598  0.1699E+01  0.1831E+01  0.2655E+02  0.2603E+02
     11.659  0.1713E+01  0.2146E+01  0.2666E+02  0.2616E+02
     11.721  0.2005E+01  0.2268E+01  0.2678E+02  0.2630E+02
     11.782  0.2280E+01  0.2224E+01  0.2692E+02  0.2644E+02
     11.844  0.2306E+01  0.2125E+01  0.2707E+02  0.2657E+02
     11.905  0.2151E+01  0.2022E+01  0.2720E+02  0.2669E+02
     11.967  0.1858E+01  0.2053E+01  0.2731E+02  0.2682E+02
     12.029  0.1532E+01  0.2232E+01  0.2741E+02  0.2696E+02
     12.090  0.1254E+01  0.2266E+01  0.2748E+02  0.2709E+02
     12.152  0.1001E+01  0.2047E+01  0.2755E+02  0.2722E+02
     12.213  0.8355E+00  0.1772E+01  0.2760E+02  0.2733E+02
     12.275  0.7433E+00  0.1492E+01  0.2764E+02  0.2742E+02
     12.336  0.7301E+00  0.1238E+01  0.2769E+02  0.2750E+02
     12.398  0.7945E+00  0.1059E+01  0.2774E+02  0.2756E+02
     12.459  0.8019E+00  0.9563E+00  0.2779E+02  0.2762E+02
     12.521  0.6445E+00  0.8585E+00  0.2783E+02  0.2768E+02
     12.582  0.4264E+00  0.7692E+00  0.2785E+02  0.2772E+02
     12.644  0.2894E+00  0.7557E+00  0.2787E+02  0.2777E+02
     12.706  0.2575E+00  0.7168E+00  0.2789E+02  0.2781E+02
     12.767  0.2912E+00  0.5870E+00  0.2790E+02  0.2785E+02
     12.829  0.2920E+00  0.4796E+00  0.2792E+02  0.2788E+02
     12.890  0.2404E+00  0.4368E+00  0.2794E+02  0.2791E+02
     12.952  0.1941E+00  0.4001E+00  0.2795E+02  0.2793E+02
     13.013  0.1325E+00  0.2871E+00  0.2796E+02  0.2795E+02
     13.075  0.8338E-01  0.1563E+00  0.2796E+02  0.2796E+02
     13.136  0.6050E-01  0.8420E-01  0.2797E+02  0.2796E+02
     13.198  0.7024E-01  0.5443E-01  0.2797E+02  0.2797E+02
     13.259  0.1006E+00  0.6331E-01  0.2798E+02  0.2797E+02
     13.321  0.9439E-01  0.9612E-01  0.2798E+02  0.2798E+02
     13.382  0.6386E-01  0.9610E-01  0.2799E+02  0.2798E+02
     13.444  0.5366E-01  0.6622E-01  0.2799E+02  0.2799E+02
     13.506  0.5150E-01  0.5761E-01  0.2799E+02  0.2799E+02
     13.567  0.4722E-01  0.6270E-01  0.2800E+02  0.2799E+02
     13.629  0.3451E-01  0.5279E-01  0.2800E+02  0.2800E+02
     13.690  0.1629E-01  0.2915E-01  0.2800E+02  0.2800E+02
     13.752  0.5741E-02  0.1109E-01  0.2800E+02  0.2800E+02
     13.813  0.1781E-02  0.3569E-02  0.2800E+02  0.2800E+02
     13.875  0.4879E-03  0.1074E-02  0.2800E+02  0.2800E+02
     13.936  0.1433E-03  0.2574E-03  0.2800E+02  0.2800E+02
     13.998  0.0000E+00  0.0000E+00  0.2800E+02  0.2800E+02
     14.059  0.0000E+00  0.0000E+00  0.2800E+02  0.2800E+02
     14.121  0.0000E+00  0.0000E+00  0.2800E+02  0.2800E+02
     14.183  0.0000E+00  0.0000E+00  0.2800E+02  0.2800E+02
     14.244  0.0000E+00  0.0000E+00  0.2800E+02  0.2800E+02
     14.306  0.0000E+00  0.0000E+00  0.2800E+02  0.2800E+02
     14.367  0.0000E+00  0.0000E+00  0.2800E+02  0.2800E+02
     14.429  0.0000E+00  0.0000E+00  0.2800E+02  0.2800E+02
     14.42872624     -4.03416251  301      6.92012919      1.00000000
     -4.034  0.0000E+00  0.0000E+00  0.0000E+00  0.0000E+00  0.0000E+00  0.0000E+00  0.0000E+00  0.0000E+00  0.0000E+00  0.0000E+00  0.0000E+00  0.0000E+00  0.0000E+00  0.0000E+00  0.0000E+00  0.0000E+00  0.0000E+00  0.0000E+00
     -3.973  0.0000E+00  0.0000E+00  0.0000E+00  0.0000E+00  0.0000E+00  0.0000E+00  0.0000E+00  0.0000E+00  0.0000E+00  0.0000E+00  0.0000E+00  0.0000E+00  0.0000E+00  0.0000E+00  0.0000E+00  0.0000E+00  0.0000E+00  0.0000E+00
     -3.911  0.0000E+00  0.0000E+00  0.0000E+00  0.0000E+00  0.0000E+00  0.0000E+00  0.0000E+00  0.0000E+00  0.0000E+00  0.0000E+00  0.0000E+00  0.0000E+00  0.0000E+00  0.0000E+00  0.0000E+00  0.0000E+00  0.0000E+00  0.0000E+00
     -3.850  0.0000E+00  0.0000E+00  0.0000E+00  0.0000E+00  0.0000E+00  0.0000E+00  0.0000E+00  0.0000E+00  0.0000E+00  0.0000E+00  0.0000E+00  0.0000E+00  0.0000E+00  0.0000E+00  0.0000E+00  0.0000E+00  0.0000E+00  0.0000E+00
     -3.788  0.0000E+00  0.0000E+00  0.0000E+00  0.0000E+00  0.0000E+00  0.0000E+00  0.0000E+00  0.0000E+00  0.0000E+00  0.0000E+00  0.0000E+00  0.0000E+00  0.0000E+00  0.0000E+00  0.0000E+00  0.0000E+00  0.0000E+00  0.0000E+00
     -3.726  0.0000E+00  0.0000E+00  0.0000E+00  0.0000E+00  0.0000E+00  0.0000E+00  0.0000E+00  0.0000E+00  0.0000E+00  0.0000E+00  0.0000E+00  0.0000E+00  0.0000E+00  0.0000E+00  0.0000E+00  0.0000E+00  0.0000E+00  0.0000E+00
     -3.665  0.0000E+00  0.0000E+00  0.0000E+00  0.0000E+00  0.0000E+00  0.0000E+00  0.0000E+00  0.0000E+00  0.0000E+00  0.0000E+00  0.0000E+00  0.0000E+00  0.0000E+00  0.0000E+00  0.0000E+00  0.0000E+00  0.0000E+00  0.0000E+00
     -3.603  0.0000E+00  0.2842E-06  0.0000E+00  0.4211E-18  0.0000E+00  0.1086E-08  0.0000E+00  0.4211E-18  0.0000E+00  0.2780E-18  0.0000E+00  0.3922E-17  0.0000E+00  0.1210E-09  0.0000E+00  0.3922E-17  0.0000E+00  0.4266E-14
     -3.542  0.2961E-06  0.2158E-05  0.1888E-19  0.7636E-08  0.1014E-08  0.7459E-08  0.1888E-19  0.7636E-08  0.1371E-15  0.2924E-10  0.1970E-14  0.2915E-10  0.5584E-11  0.1142E-08  0.1970E-14  0.2915E-10  0.4294E-17  0.2015E-10
     -3.480  0.2012E-05  0.6673E-05  0.5586E-08  0.2433E-07  0.6925E-08  0.3030E-07  0.5586E-08  0.2433E-07  0.7798E-15  0.1578E-09  0.3176E-10  0.1361E-09  0.7650E-10  0.3434E-08  0.3176E-10  0.1361E-09  0.2624E-10  0.4882E-10
     -3.419  0.7131E-05  0.2281E-04  0.2583E-07  0.8478E-07  0.2797E-07  0.1128E-06  0.2583E-07  0.8478E-07  0.2062E-09  0.4529E-09  0.1477E-09  0.5163E-09  0.3501E-09  0.1169E-07  0.1477E-09  0.5163E-09  0.6356E-10  0.2422E-09
     -3.357  0.2360E-04  0.7822E-04  0.8315E-07  0.3151E-06  0.1037E-06  0.3927E-06  0.8315E-07  0.3151E-06  0.4994E-09  0.1961E-08  0.5565E-09  0.2074E-08  0.1163E-08  0.4070E-07  0.5565E-09  0.2074E-08  0.3180E-09  0.1032E-08
     -3.296  0.8102E-04  0.2564E-03  0.3085E-06  0.1067E-05  0.3610E-06  0.1305E-05  0.3085E-06  0.1067E-05  0.2159E-08  0.7248E-08  0.2227E-08  0.7078E-08  0.4234E-08  0.1341E-06  0.2227E-08  0.7078E-08  0.1358E-08  0.3446E-08
     -3.234  0.2666E-03  0.7737E-03  0.1046E-05  0.3426E-05  0.1202E-05  0.4219E-05  0.1046E-05  0.3426E-05  0.7965E-08  0.2325E-07  0.7611E-08  0.2377E-07  0.1416E-07  0.4058E-06  0.7611E-08  0.2377E-07  0.4540E-08  0.1115E-07
     -3.173  0.8124E-03  0.1954E-02  0.3377E-05  0.1002E-04  0.3907E-05  0.1229E-04  0.3377E-05  0.1002E-04  0.2564E-07  0.7572E-07  0.2561E-07  0.7696E-07  0.4446E-07  0.1039E-05  0.2561E-07  0.7696E-07  0.1477E-07  0.3327E-07
     -3.111  0.2092E-02  0.3753E-02  0.9997E-05  0.2383E-04  0.1148E-04  0.2951E-04  0.9997E-05  0.2383E-04  0.8397E-07  0.2118E-06  0.8297E-07  0.2114E-06  0.1251E-06  0.2038E-05  0.8297E-07  0.2114E-06  0.4462E-07  0.8760E-07
     -3.049  0.4121E-02  0.5450E-02  0.2426E-04  0.4517E-04  0.2810E-04  0.5876E-04  0.2426E-04  0.4517E-04  0.2390E-06  0.4787E-06  0.2325E-06  0.4939E-06  0.2908E-06  0.3055E-05  0.2325E-06  0.4939E-06  0.1185E-06  0.2154E-06
     -2.988  0.6108E-02  0.6868E-02  0.4665E-04  0.7752E-04  0.5667E-04  0.1000E-03  0.4665E-04  0.7752E-04  0.5488E-06  0.9630E-06  0.5488E-06  0.1027E-05  0.5706E-06  0.4152E-05  0.5488E-06  0.1027E-05  0.2947E-06  0.5037E-06
     -2.926  0.7728E-02  0.8499E-02  0.8011E-04  0.1260E-03  0.9776E-04  0.1463E-03  0.8011E-04  0.1260E-03  0.1109E-05  0.1917E-05  0.1149E-05  0.1904E-05  0.1056E-05  0.5833E-05  0.1149E-05  0.1904E-05  0.7027E-06  0.9392E-06
     -2.865  0.9611E-02  0.9445E-02  0.1318E-03  0.1677E-03  0.1451E-03  0.1954E-03  0.1318E-03  0.1677E-03  0.2218E-05  0.3163E-05  0.2161E-05  0.3085E-05  0.1843E-05  0.7067E-05  0.2161E-05  0.3085E-05  0.1356E-05  0.1291E-05
     -2.803  0.1087E-01  0.9602E-02  0.1800E-03  0.1939E-03  0.1929E-03  0.2748E-03  0.1800E-03  0.1939E-03  0.3778E-05  0.4473E-05  0.3540E-05  0.4810E-05  0.2718E-05  0.7289E-05  0.3540E-05  0.4810E-05  0.1921E-05  0.1638E-05
     -2.742  0.1103E-01  0.1045E-01  0.2077E-03  0.2479E-03  0.2676E-03  0.3671E-03  0.2077E-03  0.2479E-03  0.5332E-05  0.6775E-05  0.5497E-05  0.7076E-05  0.3684E-05  0.8842E-05  0.5497E-05  0.7076E-05  0.2408E-05  0.2554E-05
     -2.680  0.1193E-01  0.1129E-01  0.2611E-03  0.3297E-03  0.3671E-03  0.3996E-03  0.2611E-03  0.3297E-03  0.8037E-05  0.9415E-05  0.8241E-05  0.9094E-05  0.5466E-05  0.1231E-04  0.8241E-05  0.9094E-05  0.3644E-05  0.4514E-05
     -2.619  0.1304E-01  0.1200E-01  0.3485E-03  0.4165E-03  0.4105E-03  0.4443E-03  0.3485E-03  0.4165E-03  0.1141E-04  0.1210E-04  0.1072E-04  0.1246E-04  0.7955E-05  0.1573E-04  0.1072E-04  0.1246E-04  0.6436E-05  0.6854E-05
     -2.557  0.1378E-01  0.1295E-01  0.4429E-03  0.4812E-03  0.4391E-03  0.5950E-03  0.4429E-03  0.4812E-03  0.1464E-04  0.1601E-04  0.1431E-04  0.1814E-04  0.1051E-04  0.1740E-04  0.1431E-04  0.1814E-04  0.1014E-04  0.7927E-05
     -2.496  0.1488E-01  0.1321E-01  0.5197E-03  0.5172E-03  0.5741E-03  0.7413E-03  0.5197E-03  0.5172E-03  0.1931E-04  0.2195E-04  0.2106E-04  0.2249E-04  0.1313E-04  0.1905E-04  0.2106E-04  0.2249E-04  0.1221E-04  0.7967E-05
     -2.434  0.1540E-01  0.1285E-01  0.5623E-03  0.5534E-03  0.7360E-03  0.7958E-03  0.5623E-03  0.5534E-03  0.2633E-04  0.2942E-04  0.2704E-04  0.2540E-04  0.1683E-04  0.2167E-04  0.2704E-04  0.2540E-04  0.1244E-04  0.8102E-05
     -2.373  0.1518E-01  0.1221E-01  0.6035E-03  0.5849E-03  0.8121E-03  0.8355E-03  0.6035E-03  0.5849E-03  0.3607E-04  0.3245E-04  0.3050E-04  0.3164E-04  0.2123E-04  0.2237E-04  0.3050E-04  0.3164E-04  0.1259E-04  0.9816E-05
     -2.311  0.1437E-01  0.1312E-01  0.6312E-03  0.7064E-03  0.8442E-03  0.9851E-03  0.6312E-03  0.7064E-03  0.4102E-04  0.3488E-04  0.3671E-04  0.4357E-04  0.2283E-04  0.2639E-04  0.3671E-04  0.4357E-04  0.1445E-04  0.1604E-04
     -2.249  0.1495E-01  0.1472E-01  0.7374E-03  0.8858E-03  0.9658E-03  0.1126E-02  0.7374E-03  0.8858E-03  0.4339E-04  0.4220E-04  0.5047E-04  0.5198E-04  0.2577E-04  0.3635E-04  0.5047E-04  0.5198E-04  0.2283E-04  0.2446E-04
     -2.188  0.1711E-01  0.1466E-01  0.9430E-03  0.9778E-03  0.1130E-02  0.1153E-02  0.9430E-03  0.9778E-03  0.5189E-04  0.5480E-04  0.6375E-04  0.5259E-04  0.3509E-04  0.4546E-04  0.6375E-04  0.5259E-04  0.3657E-04  0.2828E-04
     -2.126  0.1742E-01  0.1488E-01  0.1065E-02  0.1059E-02  0.1150E-02  0.1347E-02  0.1065E-02  0.1059E-02  0.6667E-04  0.7345E-04  0.6540E-04  0.6363E-04  0.4531E-04  0.5142E-04  0.6540E-04  0.6363E-04  0.4460E-04  0.2857E-04
     -2.065  0.1727E-01  0.1566E-01  0.1139E-02  0.1155E-02  0.1273E-02  0.1622E-02  0.1139E-02  0.1155E-02  0.8940E-04  0.8995E-04  0.7378E-04  0.8421E-04  0.5472E-04  0.5447E-04  0.7378E-04  0.8421E-04  0.4539E-04  0.2919E-04
     -2.003  0.1843E-01  0.1474E-01  0.1256E-02  0.1115E-02  0.1591E-02  0.1746E-02  0.1256E-02  0.1115E-02  0.1134E-03  0.9030E-04  0.9860E-04  0.9948E-04  0.6365E-04  0.5041E-04  0.9860E-04  0.9948E-04  0.4667E-04  0.2784E-04
     -1.942  0.1795E-01  0.1338E-01  0.1250E-02  0.1050E-02  0.1763E-02  0.1857E-02  0.1250E-02  0.1050E-02  0.1193E-03  0.8502E-04  0.1194E-03  0.1133E-03  0.6426E-04  0.4591E-04  0.1194E-03  0.1133E-03  0.4549E-04  0.2817E-04
     -1.880  0.1621E-01  0.1306E-01  0.1159E-02  0.1138E-02  0.1857E-02  0.1901E-02  0.1159E-02  0.1138E-02  0.1103E-03  0.1003E-03  0.1371E-03  0.1240E-03  0.6063E-04  0.5142E-04  0.1371E-03  0.1240E-03  0.4479E-04  0.3369E-04
     -1.819  0.1570E-01  0.1368E-01  0.1218E-02  0.1376E-02  0.1932E-02  0.1954E-02  0.1218E-02  0.1376E-02  0.1228E-03  0.1380E-03  0.1545E-03  0.1303E-03  0.6454E-04  0.7135E-04  0.1545E-03  0.1303E-03  0.5227E-04  0.4539E-04
     -1.757  0.1614E-01  0.1521E-01  0.1443E-02  0.1697E-02  0.1887E-02  0.2312E-02  0.1443E-02  0.1697E-02  0.1678E-03  0.1722E-03  0.1626E-03  0.1470E-03  0.7860E-04  0.1001E-03  0.1626E-03  0.1470E-03  0.6810E-04  0.6473E-04
     -1.696  0.1759E-01  0.1620E-01  0.1784E-02  0.1892E-02  0.2019E-02  0.2839E-02  0.1784E-02  0.1892E-02  0.2192E-03  0.1796E-03  0.1733E-03  0.1859E-03  0.1084E-03  0.1128E-03  0.1733E-03  0.1859E-03  0.9711E-04  0.7952E-04
     -1.634  0.1911E-01  0.1611E-01  0.2036E-02  0.1951E-02  0.2561E-02  0.3204E-02  0.2036E-02  0.1951E-02  0.2363E-03  0.1833E-03  0.2121E-03  0.2280E-03  0.1368E-03  0.1107E-03  0.2121E-03  0.2280E-03  0.1256E-03  0.8450E-04
     -1.572  0.1966E-01  0.1503E-01  0.2133E-02  0.1913E-02  0.3107E-02  0.3446E-02  0.2133E-02  0.1913E-02  0.2388E-03  0.1958E-03  0.2705E-03  0.2497E-03  0.1464E-03  0.1076E-03  0.2705E-03  0.2497E-03  0.1386E-03  0.8251E-04
     -1.511  0.1893E-01  0.1358E-01  0.2143E-02  0.1821E-02  0.3278E-02  0.3633E-02  0.2143E-02  0.1821E-02  0.2527E-03  0.2217E-03  0.3070E-03  0.2700E-03  0.1448E-03  0.9898E-04  0.3070E-03  0.2700E-03  0.1413E-03  0.7232E-04
     -1.449  0.1716E-01  0.1317E-01  0.2032E-02  0.1910E-02  0.3432E-02  0.3583E-02  0.2032E-02  0.1910E-02  0.2804E-03  0.2740E-03  0.3291E-03  0.3011E-03  0.1389E-03  0.9462E-04  0.3291E-03  0.3011E-03  0.1269E-03  0.6837E-04
     -1.388  0.1649E-01  0.1248E-01  0.2072E-02  0.1956E-02  0.3712E-02  0.3500E-02  0.2072E-02  0.1956E-02  0.3457E-03  0.3123E-03  0.3751E-03  0.3194E-03  0.1313E-03  0.1012E-03  0.3751E-03  0.3194E-03  0.1154E-03  0.6814E-04
     -1.326  0.1592E-01  0.1171E-01  0.2188E-02  0.1953E-02  0.3645E-02  0.3828E-02  0.2188E-02  0.1953E-02  0.4138E-03  0.3372E-03  0.3948E-03  0.3600E-03  0.1278E-03  0.1150E-03  0.3948E-03  0.3600E-03  0.1173E-03  0.6973E-04
     -1.265  0.1438E-01  0.1249E-01  0.2127E-02  0.2254E-02  0.3618E-02  0.4111E-02  0.2127E-02  0.2254E-02  0.4424E-03  0.3800E-03  0.4081E-03  0.4306E-03  0.1391E-03  0.1362E-03  0.4081E-03  0.4306E-03  0.1163E-03  0.9196E-04
     -1.203  0.1479E-01  0.1346E-01  0.2326E-02  0.2687E-02  0.4191E-02  0.3932E-02  0.2326E-02  0.2687E-02  0.4921E-03  0.3978E-03  0.5092E-03  0.4810E-03  0.1681E-03  0.1559E-03  0.5092E-03  0.4810E-03  0.1397E-03  0.1337E-03
     -1.142  0.1642E-01  0.1344E-01  0.2791E-02  0.2941E-02  0.4619E-02  0.3873E-02  0.2791E-02  0.2941E-02  0.5286E-03  0.3907E-03  0.6287E-03  0.5180E-03  0.1932E-03  0.1702E-03  0.6287E-03  0.5180E-03  0.2038E-03  0.1667E-03
     -1.080  0.1703E-01  0.1200E-01  0.3181E-02  0.2863E-02  0.4275E-02  0.3766E-02  0.3181E-02  0.2863E-02  0.5329E-03  0.3886E-03  0.6712E-03  0.5123E-03  0.2079E-03  0.1723E-03  0.6712E-03  0.5123E-03  0.2749E-03  0.1697E-03
     -1.019  0.1586E-01  0.1104E-01  0.3208E-02  0.2926E-02  0.3955E-02  0.3371E-02  0.3208E-02  0.2926E-02  0.5249E-03  0.4747E-03  0.6764E-03  0.4836E-03  0.2123E-03  0.1870E-03  0.6764E-03  0.4836E-03  0.2995E-03  0.1682E-03
     -0.957  0.1425E-01  0.1136E-01  0.3165E-02  0.3210E-02  0.3766E-02  0.3422E-02  0.3165E-02  0.3210E-02  0.5987E-03  0.6290E-03  0.6588E-03  0.5402E-03  0.2237E-03  0.2085E-03  0.6588E-03  0.5402E-03  0.2968E-03  0.1625E-03