   8   8   1   0
  0.1081681E+02  0.3433533E-09  0.3433533E-09  0.7340182E-09  0.5000000E-15
  1.000000000000000E-004
  CAR 
 unknown system                          
     21.80631683     -2.24866980  301     11.92214487      1.00000000
     -2.249  0.0000E+00  0.0000E+00  0.0000E+00  0.0000E+00
     -2.168  0.0000E+00  0.0000E+00  0.0000E+00  0.0000E+00
     -2.088  0.0000E+00  0.0000E+00  0.0000E+00  0.0000E+00
     -2.008  0.0000E+00  0.0000E+00  0.0000E+00  0.0000E+00
     -1.928  0.0000E+00  0.0000E+00  0.0000E+00  0.0000E+00
     -1.848  0.0000E+00  0.0000E+00  0.0000E+00  0.0000E+00
     -1.768  0.0000E+00  0.0000E+00  0.0000E+00  0.0000E+00
     -1.687  0.0000E+00  0.0000E+00  0.0000E+00  0.0000E+00
     -1.607  0.1251E-05  0.0000E+00  0.1003E-06  0.0000E+00
     -1.527  0.1428E-04  0.8263E-05  0.1246E-05  0.6626E-06
     -1.447  0.8439E-04  0.4496E-04  0.8012E-05  0.4268E-05
     -1.367  0.4158E-03  0.2222E-03  0.4136E-04  0.2209E-04
     -1.286  0.2009E-02  0.1088E-02  0.2025E-03  0.1093E-03
     -1.206  0.8898E-02  0.5063E-02  0.9159E-03  0.5153E-03
     -1.126  0.3065E-01  0.1967E-01  0.3373E-02  0.2092E-02
     -1.046  0.7085E-01  0.5386E-01  0.9055E-02  0.6411E-02
     -0.966  0.1064E+00  0.9518E-01  0.1758E-01  0.1404E-01
     -0.886  0.1267E+00  0.1188E+00  0.2774E-01  0.2357E-01
     -0.805  0.1671E+00  0.1486E+00  0.4114E-01  0.3548E-01
     -0.725  0.2005E+00  0.1941E+00  0.5722E-01  0.5104E-01
     -0.645  0.1868E+00  0.1942E+00  0.7221E-01  0.6662E-01
     -0.565  0.2058E+00  0.1920E+00  0.8871E-01  0.8203E-01
     -0.485  0.2417E+00  0.2332E+00  0.1081E+00  0.1007E+00
     -0.404  0.2454E+00  0.2436E+00  0.1278E+00  0.1203E+00
     -0.324  0.2780E+00  0.2636E+00  0.1501E+00  0.1414E+00
     -0.244  0.3002E+00  0.2975E+00  0.1742E+00  0.1653E+00
     -0.164  0.3052E+00  0.3043E+00  0.1986E+00  0.1897E+00
     -0.084  0.2865E+00  0.2998E+00  0.2216E+00  0.2138E+00
     -0.004  0.2665E+00  0.2655E+00  0.2430E+00  0.2351E+00
      0.077  0.3448E+00  0.3105E+00  0.2707E+00  0.2600E+00
      0.157  0.3861E+00  0.3869E+00  0.3017E+00  0.2910E+00
      0.237  0.3478E+00  0.3601E+00  0.3296E+00  0.3199E+00
      0.317  0.3927E+00  0.3684E+00  0.3611E+00  0.3495E+00
      0.397  0.4403E+00  0.4386E+00  0.3964E+00  0.3846E+00
      0.478  0.3810E+00  0.4074E+00  0.4270E+00  0.4173E+00
      0.558  0.3585E+00  0.3591E+00  0.4558E+00  0.4462E+00
      0.638  0.3713E+00  0.3687E+00  0.4855E+00  0.4758E+00
      0.718  0.3950E+00  0.3806E+00  0.5173E+00  0.5063E+00
      0.798  0.4652E+00  0.4444E+00  0.5546E+00  0.5420E+00
      0.878  0.5259E+00  0.5183E+00  0.5968E+00  0.5835E+00
      0.959  0.5491E+00  0.5490E+00  0.6409E+00  0.6276E+00
      1.039  0.5106E+00  0.5324E+00  0.6818E+00  0.6703E+00
      1.119  0.4767E+00  0.4883E+00  0.7201E+00  0.7095E+00
      1.199  0.5214E+00  0.5089E+00  0.7619E+00  0.7503E+00
      1.279  0.4792E+00  0.5053E+00  0.8004E+00  0.7909E+00
      1.360  0.4510E+00  0.4525E+00  0.8366E+00  0.8272E+00
      1.440  0.5494E+00  0.5243E+00  0.8806E+00  0.8693E+00
      1.520  0.6083E+00  0.5860E+00  0.9294E+00  0.9163E+00
      1.600  0.6037E+00  0.6038E+00  0.9779E+00  0.9648E+00
      1.680  0.5474E+00  0.5781E+00  0.1022E+01  0.1011E+01
      1.760  0.5214E+00  0.5119E+00  0.1064E+01  0.1052E+01
      1.841  0.5746E+00  0.5594E+00  0.1110E+01  0.1097E+01
      1.921  0.5894E+00  0.5911E+00  0.1157E+01  0.1145E+01
      2.001  0.6420E+00  0.6294E+00  0.1209E+01  0.1195E+01
      2.081  0.5861E+00  0.5977E+00  0.1256E+01  0.1243E+01
      2.161  0.5420E+00  0.5351E+00  0.1299E+01  0.1286E+01
      2.242  0.5416E+00  0.5373E+00  0.1343E+01  0.1329E+01
      2.322  0.5242E+00  0.5305E+00  0.1385E+01  0.1372E+01
      2.402  0.5856E+00  0.5457E+00  0.1432E+01  0.1415E+01
      2.482  0.7568E+00  0.6988E+00  0.1492E+01  0.1472E+01
      2.562  0.8068E+00  0.7927E+00  0.1557E+01  0.1535E+01
      2.643  0.7280E+00  0.7388E+00  0.1615E+01  0.1594E+01
      2.723  0.6497E+00  0.6620E+00  0.1668E+01  0.1648E+01
      2.803  0.6201E+00  0.5864E+00  0.1717E+01  0.1695E+01
      2.883  0.6490E+00  0.6112E+00  0.1769E+01  0.1744E+01
      2.963  0.6997E+00  0.7180E+00  0.1826E+01  0.1801E+01
      3.043  0.6589E+00  0.6772E+00  0.1878E+01  0.1856E+01
      3.124  0.6824E+00  0.6173E+00  0.1933E+01  0.1905E+01
      3.204  0.7790E+00  0.7440E+00  0.1996E+01  0.1965E+01
      3.284  0.7748E+00  0.7972E+00  0.2058E+01  0.2029E+01
      3.364  0.8621E+00  0.7986E+00  0.2127E+01  0.2093E+01
      3.444  0.9546E+00  0.9206E+00  0.2204E+01  0.2167E+01
      3.525  0.8592E+00  0.8976E+00  0.2273E+01  0.2239E+01
      3.605  0.7830E+00  0.7958E+00  0.2335E+01  0.2303E+01
      3.685  0.8013E+00  0.7767E+00  0.2400E+01  0.2365E+01
      3.765  0.9049E+00  0.8658E+00  0.2472E+01  0.2434E+01
      3.845  0.8932E+00  0.9275E+00  0.2544E+01  0.2509E+01
      3.925  0.7998E+00  0.8248E+00  0.2608E+01  0.2575E+01
      4.006  0.8164E+00  0.7930E+00  0.2674E+01  0.2639E+01
      4.086  0.8371E+00  0.8246E+00  0.2741E+01  0.2705E+01
      4.166  0.8208E+00  0.8632E+00  0.2807E+01  0.2774E+01
      4.246  0.7229E+00  0.7593E+00  0.2865E+01  0.2835E+01
      4.326  0.6447E+00  0.6248E+00  0.2917E+01  0.2885E+01
      4.407  0.6218E+00  0.6021E+00  0.2966E+01  0.2934E+01
      4.487  0.7127E+00  0.6383E+00  0.3024E+01  0.2985E+01
      4.567  0.8186E+00  0.7408E+00  0.3089E+01  0.3044E+01
      4.647  0.8276E+00  0.7718E+00  0.3156E+01  0.3106E+01
      4.727  0.7711E+00  0.8237E+00  0.3218E+01  0.3172E+01
      4.807  0.7247E+00  0.7588E+00  0.3276E+01  0.3233E+01
      4.888  0.7289E+00  0.6495E+00  0.3334E+01  0.3285E+01
      4.968  0.7924E+00  0.7257E+00  0.3398E+01  0.3344E+01
      5.048  0.8422E+00  0.8405E+00  0.3465E+01  0.3411E+01
      5.128  0.8812E+00  0.7720E+00  0.3536E+01  0.3473E+01
      5.208  0.9192E+00  0.7552E+00  0.3610E+01  0.3534E+01
      5.289  0.8590E+00  0.9008E+00  0.3679E+01  0.3606E+01
      5.369  0.1020E+01  0.9407E+00  0.3761E+01  0.3681E+01
      5.449  0.1148E+01  0.1047E+01  0.3853E+01  0.3765E+01
      5.529  0.9913E+00  0.1149E+01  0.3932E+01  0.3858E+01
      5.609  0.8946E+00  0.9805E+00  0.4004E+01  0.3936E+01
      5.689  0.9847E+00  0.8144E+00  0.4083E+01  0.4002E+01
      5.770  0.1043E+01  0.8714E+00  0.4167E+01  0.4072E+01
      5.850  0.1090E+01  0.9864E+00  0.4254E+01  0.4151E+01
      5.930  0.1103E+01  0.1007E+01  0.4343E+01  0.4232E+01
      6.010  0.9936E+00  0.1045E+01  0.4422E+01  0.4315E+01
      6.090  0.1182E+01  0.1047E+01  0.4517E+01  0.4399E+01
      6.171  0.1358E+01  0.1136E+01  0.4626E+01  0.4491E+01
      6.251  0.1347E+01  0.1328E+01  0.4734E+01  0.4597E+01
      6.331  0.1251E+01  0.1248E+01  0.4835E+01  0.4697E+01
      6.411  0.1081E+01  0.1115E+01  0.4921E+01  0.4787E+01
      6.491  0.1148E+01  0.1063E+01  0.5014E+01  0.4872E+01
      6.571  0.1237E+01  0.1056E+01  0.5113E+01  0.4957E+01
      6.652  0.1120E+01  0.1095E+01  0.5203E+01  0.5045E+01
      6.732  0.1130E+01  0.1115E+01  0.5293E+01  0.5134E+01
      6.812  0.1310E+01  0.1117E+01  0.5399E+01  0.5224E+01
      6.892  0.1286E+01  0.1261E+01  0.5502E+01  0.5325E+01
      6.972  0.1253E+01  0.1301E+01  0.5602E+01  0.5429E+01
      7.053  0.1434E+01  0.1171E+01  0.5717E+01  0.5523E+01
      7.133  0.1351E+01  0.1170E+01  0.5826E+01  0.5617E+01
      7.213  0.1257E+01  0.1307E+01  0.5927E+01  0.5722E+01
      7.293  0.1234E+01  0.1242E+01  0.6026E+01  0.5822E+01
      7.373  0.1113E+01  0.1197E+01  0.6115E+01  0.5918E+01
      7.454  0.1047E+01  0.1264E+01  0.6199E+01  0.6019E+01
      7.534  0.1071E+01  0.1117E+01  0.6285E+01  0.6109E+01
      7.614  0.1265E+01  0.1061E+01  0.6386E+01  0.6194E+01
      7.694  0.1447E+01  0.1139E+01  0.6503E+01  0.6286E+01
      7.774  0.1393E+01  0.1206E+01  0.6614E+01  0.6382E+01
      7.854  0.1312E+01  0.1074E+01  0.6720E+01  0.6469E+01
      7.935  0.1254E+01  0.1070E+01  0.6820E+01  0.6554E+01
      8.015  0.1143E+01  0.1258E+01  0.6912E+01  0.6655E+01
      8.095  0.1215E+01  0.1215E+01  0.7009E+01  0.6753E+01
      8.175  0.1471E+01  0.1099E+01  0.7127E+01  0.6841E+01
      8.255  0.1579E+01  0.1342E+01  0.7254E+01  0.6949E+01
      8.336  0.1743E+01  0.1536E+01  0.7394E+01  0.7072E+01
      8.416  0.2041E+01  0.1370E+01  0.7558E+01  0.7182E+01
      8.496  0.2317E+01  0.1419E+01  0.7744E+01  0.7296E+01
      8.576  0.2339E+01  0.1793E+01  0.7931E+01  0.7440E+01
      8.656  0.2393E+01  0.2124E+01  0.8123E+01  0.7610E+01
      8.736  0.2554E+01  0.2247E+01  0.8328E+01  0.7790E+01
      8.817  0.2338E+01  0.2122E+01  0.8516E+01  0.7961E+01
      8.897  0.2173E+01  0.2301E+01  0.8690E+01  0.8145E+01
      8.977  0.2328E+01  0.2451E+01  0.8877E+01  0.8342E+01
      9.057  0.2842E+01  0.2223E+01  0.9105E+01  0.8520E+01
      9.137  0.3086E+01  0.2010E+01  0.9353E+01  0.8682E+01
      9.218  0.3047E+01  0.1951E+01  0.9597E+01  0.8838E+01
      9.298  0.3144E+01  0.2348E+01  0.9849E+01  0.9026E+01
      9.378  0.3042E+01  0.2684E+01  0.1009E+02  0.9242E+01
      9.458  0.2861E+01  0.2915E+01  0.1032E+02  0.9476E+01
      9.538  0.2605E+01  0.3101E+01  0.1053E+02  0.9724E+01
      9.618  0.2431E+01  0.3055E+01  0.1073E+02  0.9970E+01
      9.699  0.2751E+01  0.2761E+01  0.1095E+02  0.1019E+02
      9.779  0.3040E+01  0.2472E+01  0.1119E+02  0.1039E+02
      9.859  0.3317E+01  0.2450E+01  0.1146E+02  0.1059E+02
      9.939  0.3841E+01  0.2628E+01  0.1177E+02  0.1080E+02
     10.019  0.3947E+01  0.2684E+01  0.1208E+02  0.1101E+02
     10.100  0.3543E+01  0.2734E+01  0.1237E+02  0.1123E+02
     10.180  0.3011E+01  0.2882E+01  0.1261E+02  0.1146E+02
     10.260  0.2635E+01  0.2822E+01  0.1282E+02  0.1169E+02
     10.340  0.2399E+01  0.3015E+01  0.1301E+02  0.1193E+02
     10.420  0.2242E+01  0.3246E+01  0.1319E+02  0.1219E+02
     10.500  0.2067E+01  0.3142E+01  0.1336E+02  0.1244E+02
     10.581  0.1938E+01  0.2692E+01  0.1351E+02  0.1266E+02
     10.661  0.1872E+01  0.2302E+01  0.1366E+02  0.1284E+02
     10.741  0.1756E+01  0.2244E+01  0.1381E+02  0.1302E+02
     10.821  0.1419E+01  0.2199E+01  0.1392E+02  0.1320E+02
     10.901  0.8434E+00  0.1994E+01  0.1399E+02  0.1336E+02
     10.982  0.4403E+00  0.1758E+01  0.1402E+02  0.1350E+02
     11.062  0.3101E+00  0.1665E+01  0.1405E+02  0.1364E+02
     11.142  0.2760E+00  0.1569E+01  0.1407E+02  0.1376E+02
     11.222  0.3153E+00  0.1395E+01  0.1410E+02  0.1387E+02
     11.302  0.4567E+00  0.1040E+01  0.1413E+02  0.1396E+02
     11.382  0.6282E+00  0.5661E+00  0.1418E+02  0.1400E+02
     11.463  0.8938E+00  0.2760E+00  0.1425E+02  0.1403E+02
     11.543  0.1351E+01  0.1947E+00  0.1436E+02  0.1404E+02
     11.623  0.2314E+01  0.2155E+00  0.1455E+02  0.1406E+02
     11.703  0.3917E+01  0.2207E+00  0.1486E+02  0.1408E+02
     11.783  0.5157E+01  0.2251E+00  0.1528E+02  0.1409E+02
     11.864  0.4594E+01  0.2912E+00  0.1564E+02  0.1412E+02
     11.944  0.3536E+01  0.4605E+00  0.1593E+02  0.1415E+02
     12.024  0.3068E+01  0.5964E+00  0.1617E+02  0.1420E+02
     12.104  0.2658E+01  0.7044E+00  0.1639E+02  0.1426E+02
     12.184  0.2286E+01  0.8995E+00  0.1657E+02  0.1433E+02
     12.265  0.2062E+01  0.1181E+01  0.1674E+02  0.1443E+02
     12.345  0.1899E+01  0.1461E+01  0.1689E+02  0.1454E+02
     12.425  0.1846E+01  0.1787E+01  0.1704E+02  0.1469E+02
     12.505  0.1876E+01  0.2205E+01  0.1719E+02  0.1486E+02
     12.585  0.1646E+01  0.2779E+01  0.1732E+02  0.1509E+02
     12.665  0.1404E+01  0.3650E+01  0.1743E+02  0.1538E+02
     12.746  0.1417E+01  0.4339E+01  0.1755E+02  0.1573E+02
     12.826  0.1489E+01  0.4610E+01  0.1767E+02  0.1610E+02
     12.906  0.1428E+01  0.4933E+01  0.1778E+02  0.1649E+02
     12.986  0.1170E+01  0.4791E+01  0.1787E+02  0.1688E+02
     13.066  0.9963E+00  0.3983E+01  0.1795E+02  0.1720E+02
     13.147  0.9912E+00  0.3331E+01  0.1803E+02  0.1746E+02
     13.227  0.1071E+01  0.2753E+01  0.1812E+02  0.1768E+02
     13.307  0.1146E+01  0.2060E+01  0.1821E+02  0.1785E+02
     13.387  0.1242E+01  0.1610E+01  0.1831E+02  0.1798E+02
     13.467  0.1361E+01  0.1302E+01  0.1842E+02  0.1808E+02
     13.547  0.1619E+01  0.1174E+01  0.1855E+02  0.1818E+02
     13.628  0.1853E+01  0.1254E+01  0.1870E+02  0.1828E+02
     13.708  0.1743E+01  0.1513E+01  0.1884E+02  0.1840E+02
     13.788  0.1686E+01  0.1699E+01  0.1897E+02  0.1854E+02
     13.868  0.1903E+01  0.1710E+01  0.1913E+02  0.1867E+02
     13.948  0.2149E+01  0.1663E+01  0.1930E+02  0.1881E+02
     14.029  0.2170E+01  0.1763E+01  0.1947E+02  0.1895E+02
     14.109  0.2273E+01  0.1749E+01  0.1966E+02  0.1909E+02
     14.189  0.2149E+01  0.1693E+01  0.1983E+02  0.1923E+02
     14.269  0.1599E+01  0.1667E+01  0.1996E+02  0.1936E+02
     14.349  0.1354E+01  0.1687E+01  0.2007E+02  0.1949E+02
     14.429  0.1397E+01  0.2016E+01  0.2018E+02  0.1966E+02
     14.510  0.1391E+01  0.2301E+01  0.2029E+02  0.1984E+02
     14.590  0.1419E+01  0.1992E+01  0.2040E+02  0.2000E+02
     14.670  0.1559E+01  0.1540E+01  0.2053E+02  0.2012E+02
     14.750  0.1470E+01  0.1476E+01  0.2065E+02  0.2024E+02
     14.830  0.1445E+01  0.1362E+01  0.2076E+02  0.2035E+02
     14.911  0.1682E+01  0.1323E+01  0.2090E+02  0.2046E+02
     14.991  0.1810E+01  0.1331E+01  0.2104E+02  0.2057E+02
     15.071  0.1981E+01  0.1322E+01  0.2120E+02  0.2067E+02
     15.151  0.2083E+01  0.1506E+01  0.2137E+02  0.2079E+02
     15.231  0.2046E+01  0.1807E+01  0.2153E+02  0.2094E+02
     15.311  0.2036E+01  0.2085E+01  0.2170E+02  0.2110E+02
     15.392  0.2070E+01  0.2171E+01  0.2186E+02  0.2128E+02
     15.472  0.1930E+01  0.1949E+01  0.2202E+02  0.2144E+02
     15.552  0.1700E+01  0.1840E+01  0.2215E+02  0.2158E+02
     15.632  0.1644E+01  0.1925E+01  0.2229E+02  0.2174E+02
     15.712  0.1506E+01  0.2023E+01  0.2241E+02  0.2190E+02
     15.793  0.1236E+01  0.1876E+01  0.2251E+02  0.2205E+02
     15.873  0.1093E+01  0.1886E+01  0.2259E+02  0.2220E+02
     15.953  0.1201E+01  0.1894E+01  0.2269E+02  0.2235E+02
     16.033  0.1488E+01  0.1695E+01  0.2281E+02  0.2249E+02
     16.113  0.1671E+01  0.1409E+01  0.2294E+02  0.2260E+02
     16.193  0.1687E+01  0.1298E+01  0.2308E+02  0.2271E+02
     16.274  0.1579E+01  0.1452E+01  0.2321E+02  0.2282E+02
     16.354  0.1596E+01  0.1654E+01  0.2333E+02  0.2296E+02
     16.434  0.1656E+01  0.1788E+01  0.2347E+02  0.2310E+02
     16.514  0.1570E+01  0.1938E+01  0.2359E+02  0.2326E+02
     16.594  0.1424E+01  0.1737E+01  0.2371E+02  0.2339E+02
     16.675  0.1507E+01  0.1640E+01  0.2383E+02  0.2353E+02
     16.755  0.1830E+01  0.1658E+01  0.2397E+02  0.2366E+02
     16.835  0.1773E+01  0.1612E+01  0.2412E+02  0.2379E+02
     16.915  0.1610E+01  0.1801E+01  0.2425E+02  0.2393E+02
     16.995  0.1588E+01  0.1823E+01  0.2437E+02  0.2408E+02
     17.076  0.1403E+01  0.1565E+01  0.2449E+02  0.2421E+02
     17.156  0.1224E+01  0.1557E+01  0.2458E+02  0.2433E+02
     17.236  0.1188E+01  0.1630E+01  0.2468E+02  0.2446E+02
     17.316  0.1137E+01  0.1356E+01  0.2477E+02  0.2457E+02
     17.396  0.1364E+01  0.1157E+01  0.2488E+02  0.2466E+02
     17.476  0.1463E+01  0.1078E+01  0.2500E+02  0.2475E+02
     17.557  0.1336E+01  0.1199E+01  0.2510E+02  0.2485E+02
     17.637  0.1231E+01  0.1393E+01  0.2520E+02  0.2496E+02
     17.717  0.1277E+01  0.1307E+01  0.2531E+02  0.2506E+02
     17.797  0.1433E+01  0.1117E+01  0.2542E+02  0.2515E+02
     17.877  0.1376E+01  0.1024E+01  0.2553E+02  0.2523E+02
     17.958  0.1291E+01  0.1048E+01  0.2564E+02  0.2532E+02
     18.038  0.1227E+01  0.1157E+01  0.2573E+02  0.2541E+02
     18.118  0.1181E+01  0.1311E+01  0.2583E+02  0.2552E+02
     18.198  0.1267E+01  0.1454E+01  0.2593E+02  0.2563E+02
     18.278  0.1456E+01  0.1492E+01  0.2605E+02  0.2575E+02
     18.358  0.1676E+01  0.1421E+01  0.2618E+02  0.2587E+02
     18.439  0.1771E+01  0.1378E+01  0.2632E+02  0.2598E+02
     18.519  0.1867E+01  0.1536E+01  0.2647E+02  0.2610E+02
     18.599  0.1967E+01  0.1820E+01  0.2663E+02  0.2625E+02
     18.679  0.1807E+01  0.2032E+01  0.2678E+02  0.2641E+02
     18.759  0.1650E+01  0.2017E+01  0.2691E+02  0.2657E+02
     18.840  0.1670E+01  0.1795E+01  0.2704E+02  0.2672E+02
     18.920  0.1831E+01  0.1715E+01  0.2719E+02  0.2685E+02
     19.000  0.1586E+01  0.1740E+01  0.2732E+02  0.2699E+02
     19.080  0.1167E+01  0.1678E+01  0.2741E+02  0.2713E+02
     19.160  0.1036E+01  0.1549E+01  0.2749E+02  0.2725E+02
     19.240  0.1088E+01  0.1400E+01  0.2758E+02  0.2736E+02
     19.321  0.1066E+01  0.1310E+01  0.2767E+02  0.2747E+02
     19.401  0.9420E+00  0.1206E+01  0.2774E+02  0.2757E+02
     19.481  0.7810E+00  0.1147E+01  0.2781E+02  0.2766E+02
     19.561  0.6094E+00  0.1098E+01  0.2785E+02  0.2775E+02
     19.641  0.4494E+00  0.8850E+00  0.2789E+02  0.2782E+02
     19.722  0.3472E+00  0.6181E+00  0.2792E+02  0.2787E+02
     19.802  0.2841E+00  0.4600E+00  0.2794E+02  0.2790E+02
     19.882  0.1847E+00  0.3004E+00  0.2796E+02  0.2793E+02
     19.962  0.8238E-01  0.1992E+00  0.2796E+02  0.2794E+02
     20.042  0.2892E-01  0.1326E+00  0.2796E+02  0.2795E+02
     20.122  0.1819E-01  0.7722E-01  0.2797E+02  0.2796E+02
     20.203  0.3135E-01  0.4651E-01  0.2797E+02  0.2796E+02
     20.283  0.6999E-01  0.4083E-01  0.2797E+02  0.2797E+02
     20.363  0.8210E-01  0.7176E-01  0.2798E+02  0.2797E+02
     20.443  0.6047E-01  0.8431E-01  0.2799E+02  0.2798E+02
     20.523  0.5351E-01  0.5916E-01  0.2799E+02  0.2799E+02
     20.604  0.6082E-01  0.4532E-01  0.2800E+02  0.2799E+02
     20.684  0.4164E-01  0.5812E-01  0.2800E+02  0.2799E+02
     20.764  0.1462E-01  0.5046E-01  0.2800E+02  0.2800E+02
     20.844  0.3416E-02  0.2178E-01  0.2800E+02  0.2800E+02
     20.924  0.7115E-03  0.5573E-02  0.2800E+02  0.2800E+02
     21.004  0.1180E-03  0.1187E-02  0.2800E+02  0.2800E+02
     21.085  0.0000E+00  0.1970E-03  0.2800E+02  0.2800E+02
     21.165  0.0000E+00  0.0000E+00  0.2800E+02  0.2800E+02
     21.245  0.0000E+00  0.0000E+00  0.2800E+02  0.2800E+02
     21.325  0.0000E+00  0.0000E+00  0.2800E+02  0.2800E+02
     21.405  0.0000E+00  0.0000E+00  0.2800E+02  0.2800E+02
     21.486  0.0000E+00  0.0000E+00  0.2800E+02  0.2800E+02
     21.566  0.0000E+00  0.0000E+00  0.2800E+02  0.2800E+02
     21.646  0.0000E+00  0.0000E+00  0.2800E+02  0.2800E+02
     21.726  0.0000E+00  0.0000E+00  0.2800E+02  0.2800E+02
     21.806  0.0000E+00  0.0000E+00  0.2800E+02  0.2800E+02
     21.80631683     -2.24866980  301     11.92214487      1.00000000
     -2.249  0.0000E+00  0.0000E+00  0.0000E+00  0.0000E+00  0.0000E+00  0.0000E+00  0.0000E+00  0.0000E+00  0.0000E+00  0.0000E+00  0.0000E+00  0.0000E+00  0.0000E+00  0.0000E+00  0.0000E+00  0.0000E+00  0.0000E+00  0.0000E+00
     -2.168  0.0000E+00  0.0000E+00  0.0000E+00  0.0000E+00  0.0000E+00  0.0000E+00  0.0000E+00  0.0000E+00  0.0000E+00  0.0000E+00  0.0000E+00  0.0000E+00  0.0000E+00  0.0000E+00  0.0000E+00  0.0000E+00  0.0000E+00  0.0000E+00
     -2.088  0.0000E+00  0.0000E+00  0.0000E+00  0.0000E+00  0.0000E+00  0.0000E+00  0.0000E+00  0.0000E+00  0.0000E+00  0.0000E+00  0.0000E+00  0.0000E+00  0.0000E+00  0.0000E+00  0.0000E+00  0.0000E+00  0.0000E+00  0.0000E+00
     -2.008  0.0000E+00  0.0000E+00  0.0000E+00  0.0000E+00  0.0000E+00  0.0000E+00  0.0000E+00  0.0000E+00  0.0000E+00  0.0000E+00  0.0000E+00  0.0000E+00  0.0000E+00  0.0000E+00  0.0000E+00  0.0000E+00  0.0000E+00  0.0000E+00
     -1.928  0.0000E+00  0.0000E+00  0.0000E+00  0.0000E+00  0.0000E+00  0.0000E+00  0.0000E+00  0.0000E+00  0.0000E+00  0.0000E+00  0.0000E+00  0.0000E+00  0.0000E+00  0.0000E+00  0.0000E+00  0.0000E+00  0.0000E+00  0.0000E+00
     -1.848  0.0000E+00  0.0000E+00  0.0000E+00  0.0000E+00  0.0000E+00  0.0000E+00  0.0000E+00  0.0000E+00  0.0000E+00  0.0000E+00  0.0000E+00  0.0000E+00  0.0000E+00  0.0000E+00  0.0000E+00  0.0000E+00  0.0000E+00  0.0000E+00
     -1.768  0.0000E+00  0.0000E+00  0.0000E+00  0.0000E+00  0.0000E+00  0.0000E+00  0.0000E+00  0.0000E+00  0.0000E+00  0.0000E+00  0.0000E+00  0.0000E+00  0.0000E+00  0.0000E+00  0.0000E+00  0.0000E+00  0.0000E+00  0.0000E+00
     -1.687  0.0000E+00  0.0000E+00  0.0000E+00  0.0000E+00  0.0000E+00  0.0000E+00  0.0000E+00  0.0000E+00  0.0000E+00  0.0000E+00  0.0000E+00  0.0000E+00  0.0000E+00  0.0000E+00  0.0000E+00  0.0000E+00  0.0000E+00  0.0000E+00
     -1.607  0.1008E-06  0.0000E+00  0.1316E-18  0.0000E+00  0.1382E-18  0.0000E+00  0.1316E-18  0.0000E+00  0.5349E-18  0.0000E+00  0.2314E-14  0.0000E+00  0.2148E-10  0.0000E+00  0.2314E-14  0.0000E+00  0.6777E-16  0.0000E+00
     -1.527  0.1141E-05  0.6404E-06  0.2226E-08  0.1151E-08  0.2924E-08  0.1570E-08  0.2226E-08  0.1151E-08  0.3017E-17  0.6343E-16  0.9450E-14  0.2437E-14  0.2540E-09  0.4684E-09  0.9450E-14  0.2437E-14  0.1170E-10  0.5501E-11
     -1.447  0.6717E-05  0.3468E-05  0.2060E-07  0.1067E-07  0.2414E-07  0.1299E-07  0.2060E-07  0.1067E-07  0.7438E-10  0.3834E-10  0.8609E-10  0.4513E-10  0.1549E-08  0.2582E-08  0.8609E-10  0.4513E-10  0.8443E-10  0.3923E-10
     -1.367  0.3308E-04  0.1713E-04  0.1055E-06  0.5474E-07  0.1300E-06  0.7010E-07  0.1055E-06  0.5474E-07  0.5317E-09  0.2746E-09  0.5279E-09  0.2771E-09  0.7619E-08  0.1271E-07  0.5279E-09  0.2771E-09  0.3809E-09  0.1774E-09
     -1.286  0.1597E-03  0.8380E-04  0.5220E-06  0.2718E-06  0.6568E-06  0.3561E-06  0.5220E-06  0.2718E-06  0.2401E-08  0.1241E-08  0.2713E-08  0.1427E-08  0.3692E-07  0.6216E-07  0.2713E-08  0.1427E-08  0.2145E-08  0.1002E-08
     -1.206  0.7066E-03  0.3899E-03  0.2557E-05  0.1355E-05  0.3117E-05  0.1730E-05  0.2557E-05  0.1355E-05  0.1276E-07  0.6634E-08  0.1405E-07  0.7449E-08  0.1661E-06  0.2908E-06  0.1405E-07  0.7449E-08  0.1098E-07  0.5222E-08
     -1.126  0.2427E-02  0.1511E-02  0.1085E-04  0.6146E-05  0.1263E-04  0.7589E-05  0.1085E-04  0.6146E-05  0.6176E-07  0.3285E-07  0.6524E-07  0.3569E-07  0.5919E-06  0.1140E-05  0.6524E-07  0.3569E-07  0.4563E-07  0.2332E-07
     -1.046  0.5579E-02  0.4119E-02  0.3337E-04  0.2198E-04  0.3780E-04  0.2592E-04  0.3337E-04  0.2198E-04  0.2456E-06  0.1428E-06  0.2482E-06  0.1504E-06  0.1452E-05  0.3183E-05  0.2482E-06  0.1504E-06  0.1372E-06  0.8078E-07
     -0.966  0.8303E-02  0.7224E-02  0.6661E-04  0.5183E-04  0.8269E-04  0.6348E-04  0.6661E-04  0.5183E-04  0.6579E-06  0.4605E-06  0.6604E-06  0.4621E-06  0.2346E-05  0.5720E-05  0.6604E-06  0.4621E-06  0.3349E-06  0.2016E-06
     -0.886  0.9747E-02  0.8907E-02  0.1088E-03  0.8680E-04  0.1508E-03  0.1227E-03  0.1088E-03  0.8680E-04  0.1203E-05  0.9286E-06  0.1433E-05  0.1048E-05  0.3226E-05  0.7184E-05  0.1433E-05  0.1048E-05  0.9975E-06  0.5505E-06
     -0.805  0.1267E-01  0.1096E-01  0.2017E-03  0.1540E-03  0.2338E-03  0.2049E-03  0.2017E-03  0.1540E-03  0.2728E-05  0.1858E-05  0.3005E-05  0.2251E-05  0.5622E-05  0.9926E-05  0.3005E-05  0.2251E-05  0.2464E-05  0.1568E-05
     -0.725  0.1505E-01  0.1415E-01  0.3002E-03  0.2638E-03  0.2887E-03  0.2743E-03  0.3002E-03  0.2638E-03  0.5483E-05  0.4303E-05  0.4997E-05  0.4171E-05  0.8342E-05  0.1542E-04  0.4997E-05  0.4171E-05  0.3575E-05  0.2807E-05
     -0.645  0.1381E-01  0.1399E-01  0.3047E-03  0.3011E-03  0.3826E-03  0.3352E-03  0.3047E-03  0.3011E-03  0.6763E-05  0.6198E-05  0.7405E-05  0.6165E-05  0.8287E-05  0.1618E-04  0.7405E-05  0.6165E-05  0.3705E-05  0.3125E-05
     -0.565  0.1488E-01  0.1353E-01  0.3610E-03  0.3133E-03  0.6121E-03  0.5260E-03  0.3610E-03  0.3133E-03  0.1019E-04  0.7927E-05  0.1236E-04  0.1006E-04  0.9954E-05  0.1418E-04  0.1236E-04  0.1006E-04  0.4829E-05  0.3512E-05
     -0.485  0.1727E-01  0.1616E-01  0.5154E-03  0.4428E-03  0.7070E-03  0.7163E-03  0.5154E-03  0.4428E-03  0.1639E-04  0.1378E-04  0.1601E-04  0.1492E-04  0.1621E-04  0.2001E-04  0.1601E-04  0.1492E-04  0.9234E-05  0.5937E-05
     -0.404  0.1731E-01  0.1669E-01  0.6661E-03  0.5892E-03  0.6127E-03  0.6465E-03  0.6661E-03  0.5892E-03  0.1931E-04  0.1757E-04  0.1806E-04  0.1637E-04  0.2315E-04  0.3003E-04  0.1806E-04  0.1637E-04  0.1790E-04  0.1215E-04
     -0.324  0.1927E-01  0.1776E-01  0.8253E-03  0.7520E-03  0.8093E-03  0.6996E-03  0.8253E-03  0.7520E-03  0.2531E-04  0.2176E-04  0.2979E-04  0.2375E-04  0.2758E-04  0.3816E-04  0.2979E-04  0.2375E-04  0.2370E-04  0.1900E-04
     -0.244  0.2041E-01  0.1966E-01  0.8671E-03  0.8387E-03  0.1192E-02  0.1082E-02  0.8671E-03  0.8387E-03  0.3256E-04  0.2842E-04  0.4304E-04  0.3843E-04  0.2974E-04  0.3825E-04  0.4304E-04  0.3843E-04  0.2277E-04  0.1975E-04
     -0.164  0.2038E-01  0.1971E-01  0.9393E-03  0.8739E-03  0.1357E-02  0.1348E-02  0.9393E-03  0.8739E-03  0.5015E-04  0.4027E-04  0.4601E-04  0.4475E-04  0.4065E-04  0.4263E-04  0.4601E-04  0.4475E-04  0.2212E-04  0.1874E-04
     -0.084  0.1884E-01  0.1911E-01  0.9607E-03  0.9497E-03  0.1325E-02  0.1369E-02  0.9607E-03  0.9497E-03  0.6385E-04  0.5936E-04  0.4835E-04  0.4577E-04  0.4550E-04  0.5284E-04  0.4835E-04  0.4577E-04  0.2017E-04  0.1764E-04
     -0.004  0.1712E-01  0.1658E-01  0.9558E-03  0.8960E-03  0.1389E-02  0.1339E-02  0.9558E-03  0.8960E-03  0.5761E-04  0.5745E-04  0.6618E-04  0.5582E-04  0.3948E-04  0.4602E-04  0.6618E-04  0.5582E-04  0.2697E-04  0.1846E-04
      0.077  0.2172E-01  0.1892E-01  0.1367E-02  0.1148E-02  0.1850E-02  0.1696E-02  0.1367E-02  0.1148E-02  0.6613E-04  0.5857E-04  0.1021E-03  0.8766E-04  0.5579E-04  0.5357E-04  0.1021E-03  0.8766E-04  0.5700E-04  0.3685E-04
      0.157  0.2406E-01  0.2328E-01  0.1695E-02  0.1579E-02  0.1939E-02  0.2037E-02  0.1695E-02  0.1579E-02  0.8242E-04  0.7272E-04  0.1075E-03  0.1092E-03  0.8215E-04  0.8400E-04  0.1075E-03  0.1092E-03  0.8428E-04  0.6478E-04
      0.237  0.2128E-01  0.2138E-01  0.1687E-02  0.1646E-02  0.1696E-02  0.1755E-02  0.1687E-02  0.1646E-02  0.1118E-03  0.9484E-04  0.9188E-04  0.9116E-04  0.9792E-04  0.1058E-03  0.9188E-04  0.9116E-04  0.8200E-04  0.7125E-04
      0.317  0.2331E-01  0.2120E-01  0.1900E-02  0.1732E-02  0.2366E-02  0.2109E-02  0.1900E-02  0.1732E-02  0.1568E-03  0.1335E-03  0.1335E-03  0.1106E-03  0.1176E-03  0.1188E-03  0.1335E-03  0.1106E-03  0.8169E-04  0.6650E-04
      0.397  0.2563E-01  0.2464E-01  0.2131E-02  0.2047E-02  0.2952E-02  0.2906E-02  0.2131E-02  0.2047E-02  0.1920E-03  0.1766E-03  0.1809E-03  0.1662E-03  0.1314E-03  0.1357E-03  0.1809E-03  0.1662E-03  0.8682E-04  0.7277E-04
      0.478  0.2165E-01  0.2242E-01  0.1808E-02  0.1899E-02  0.2934E-02  0.2975E-02  0.1808E-02  0.1899E-02  0.1633E-03  0.1718E-03  0.1998E-03  0.1889E-03  0.1082E-03  0.1205E-03  0.1998E-03  0.1889E-03  0.7406E-04  0.6570E-04
      0.558  0.1969E-01  0.1906E-01  0.1682E-02  0.1612E-02  0.3193E-02  0.3152E-02  0.1682E-02  0.1612E-02  0.1418E-03  0.1352E-03  0.2346E-03  0.2167E-03  0.1000E-03  0.9481E-04  0.2346E-03  0.2167E-03  0.7913E-04  0.6151E-04
      0.638  0.2004E-01  0.1909E-01  0.1927E-02  0.1765E-02  0.3178E-02  0.3309E-02  0.1927E-02  0.1765E-02  0.1890E-03  0.1580E-03  0.2580E-03  0.2475E-03  0.1136E-03  0.1038E-03  0.2580E-03  0.2475E-03  0.9544E-04  0.7415E-04
      0.718  0.2107E-01  0.1948E-01  0.2442E-02  0.2137E-02  0.2805E-02  0.2963E-02  0.2442E-02  0.2137E-02  0.2965E-03  0.2428E-03  0.2492E-03  0.2465E-03  0.1589E-03  0.1408E-03  0.2492E-03  0.2465E-03  0.1292E-03  0.9184E-04
      0.798  0.2406E-01  0.2217E-01  0.3092E-02  0.2807E-02  0.3331E-02  0.3213E-02  0.3092E-02  0.2807E-02  0.3602E-03  0.3348E-03  0.2686E-03  0.2490E-03  0.2416E-03  0.2294E-03  0.2686E-03  0.2490E-03  0.2037E-03  0.1460E-03
      0.878  0.2594E-01  0.2466E-01  0.3297E-02  0.3186E-02  0.4810E-02  0.4563E-02  0.3297E-02  0.3186E-02  0.3376E-03  0.3307E-03  0.3742E-03  0.3289E-03  0.2760E-03  0.2776E-03  0.3742E-03  0.3289E-03  0.2450E-03  0.1971E-03
      0.959  0.2627E-01  0.2515E-01  0.3391E-02  0.3256E-02  0.5542E-02  0.5561E-02  0.3391E-02  0.3256E-02  0.3442E-03  0.3221E-03  0.4834E-03  0.4471E-03  0.2711E-03  0.2656E-03  0.4834E-03  0.4471E-03  0.2587E-03  0.2089E-03
      1.039  0.2377E-01  0.2376E-01  0.3284E-02  0.3274E-02  0.5235E-02  0.5495E-02  0.3284E-02  0.3274E-02  0.3648E-03  0.3409E-03  0.4880E-03  0.4852E-03  0.2624E-03  0.2606E-03  0.4880E-03  0.4852E-03  0.2545E-03  0.2165E-03
      1.119  0.2077E-01  0.2040E-01  0.2935E-02  0.2915E-02  0.5795E-02  0.5864E-02  0.2935E-02  0.2915E-02  0.4120E-03  0.3686E-03  0.5303E-03  0.4935E-03  0.2443E-03  0.2438E-03  0.5303E-03  0.4935E-03  0.1968E-03  0.1775E-03
      1.199  0.2205E-01  0.2026E-01  0.3395E-02  0.3073E-02  0.6305E-02  0.6509E-02  0.3395E-02  0.3073E-02  0.5741E-03  0.4859E-03  0.6446E-03  0.5980E-03  0.2345E-03  0.2229E-03  0.6446E-03  0.5980E-03  0.2026E-03  0.1576E-03
      1.279  0.1965E-01  0.1994E-01  0.3354E-02  0.3375E-02  0.5624E-02  0.5924E-02  0.3354E-02  0.3375E-02  0.6286E-03  0.5968E-03  0.5921E-03  0.6063E-03  0.2337E-03  0.2373E-03  0.5921E-03  0.6063E-03  0.2072E-03  0.1744E-03
      1.360  0.1713E-01  0.1661E-01  0.3054E-02  0.2958E-02  0.6053E-02  0.5950E-02  0.3054E-02  0.2958E-02  0.6519E-03  0.5907E-03  0.6418E-03  0.6073E-03  0.2681E-03  0.2521E-03  0.6418E-03  0.6073E-03  0.1834E-03  0.1512E-03
      1.440  0.1989E-01  0.1795E-01  0.3696E-02  0.3322E-02  0.7853E-02  0.7639E-02  0.3696E-02  0.3322E-02  0.7630E-03  0.7004E-03  0.9208E-03  0.8277E-03  0.3248E-03  0.3024E-03  0.9208E-03  0.8277E-03  0.2478E-03  0.1731E-03
      1.520  0.2226E-01  0.2035E-01  0.4551E-02  0.4097E-02  0.7853E-02  0.7782E-02  0.4551E-02  0.4097E-02  0.7704E-03  0.7348E-03  0.1073E-02  0.9930E-03  0.3526E-03  0.3349E-03  0.1073E-02  0.9930E-03  0.4032E-03  0.2751E-03
      1.600  0.2255E-01  0.2158E-01  0.5091E-02  0.4854E-02  0.6625E-02  0.6679E-02  0.5091E-02  0.4854E-02  0.7386E-03  0.7193E-03  0.1082E-02  0.1035E-02  0.3858E-03  0.3875E-03  0.1082E-02  0.1035E-02  0.5416E-03  0.4118E-03
      1.680  0.1924E-01  0.1948E-01  0.4612E-02  0.4663E-02  0.6508E-02  0.6867E-02  0.4612E-02  0.4663E-02  0.6782E-03  0.6428E-03  0.1070E-02  0.1079E-02  0.3750E-03  0.3909E-03  0.1070E-02  0.1079E-02  0.5182E-03  0.4344E-03
      1.760  0.1754E-01  0.1632E-01  0.4757E-02  0.4365E-02  0.5840E-02  0.6034E-02  0.4757E-02  0.4365E-02  0.9144E-03  0.7301E-03  0.9758E-03  0.9465E-03  0.4343E-03  0.4083E-03  0.9758E-03  0.9465E-03  0.5241E-03  0.4109E-03