   8   8   1   0
  0.1435407E+02  0.3773113E-09  0.3773113E-09  0.8066134E-09  0.5000000E-15
  1.000000000000000E-004
  CAR 
 unknown system                          
     16.68594171     -3.54413122  301      8.32721995      1.00000000
     -3.544  0.0000E+00  0.0000E+00  0.0000E+00  0.0000E+00
     -3.477  0.0000E+00  0.0000E+00  0.0000E+00  0.0000E+00
     -3.409  0.0000E+00  0.0000E+00  0.0000E+00  0.0000E+00
     -3.342  0.0000E+00  0.0000E+00  0.0000E+00  0.0000E+00
     -3.274  0.0000E+00  0.0000E+00  0.0000E+00  0.0000E+00
     -3.207  0.0000E+00  0.0000E+00  0.0000E+00  0.0000E+00
     -3.140  0.0000E+00  0.0000E+00  0.0000E+00  0.0000E+00
     -3.072  0.0000E+00  0.1626E-05  0.0000E+00  0.1096E-06
     -3.005  0.5477E-05  0.1678E-04  0.3693E-06  0.1241E-05
     -2.937  0.3975E-04  0.8235E-04  0.3050E-05  0.6794E-05
     -2.870  0.1576E-03  0.3155E-03  0.1368E-04  0.2807E-04
     -2.802  0.5899E-03  0.1204E-02  0.5346E-04  0.1093E-03
     -2.735  0.2251E-02  0.4532E-02  0.2053E-03  0.4149E-03
     -2.667  0.8114E-02  0.1537E-01  0.7524E-03  0.1451E-02
     -2.600  0.2559E-01  0.4297E-01  0.2478E-02  0.4349E-02
     -2.533  0.6239E-01  0.8791E-01  0.6685E-02  0.1028E-01
     -2.465  0.1086E+00  0.1296E+00  0.1401E-01  0.1902E-01
     -2.398  0.1438E+00  0.1629E+00  0.2370E-01  0.3001E-01
     -2.330  0.1813E+00  0.2080E+00  0.3593E-01  0.4403E-01
     -2.263  0.2251E+00  0.2365E+00  0.5111E-01  0.5998E-01
     -2.195  0.2355E+00  0.2374E+00  0.6699E-01  0.7599E-01
     -2.128  0.2435E+00  0.2646E+00  0.8341E-01  0.9384E-01
     -2.061  0.2790E+00  0.2930E+00  0.1022E+00  0.1136E+00
     -1.993  0.2983E+00  0.3123E+00  0.1224E+00  0.1347E+00
     -1.926  0.3249E+00  0.3478E+00  0.1443E+00  0.1581E+00
     -1.858  0.3554E+00  0.3649E+00  0.1683E+00  0.1828E+00
     -1.791  0.3645E+00  0.3637E+00  0.1928E+00  0.2073E+00
     -1.723  0.3544E+00  0.3427E+00  0.2167E+00  0.2304E+00
     -1.656  0.3396E+00  0.3670E+00  0.2397E+00  0.2552E+00
     -1.589  0.3953E+00  0.4390E+00  0.2663E+00  0.2848E+00
     -1.521  0.4492E+00  0.4459E+00  0.2966E+00  0.3149E+00
     -1.454  0.4363E+00  0.4504E+00  0.3261E+00  0.3453E+00
     -1.386  0.4646E+00  0.5032E+00  0.3574E+00  0.3792E+00
     -1.319  0.5073E+00  0.4947E+00  0.3917E+00  0.4126E+00
     -1.251  0.4708E+00  0.4502E+00  0.4234E+00  0.4430E+00
     -1.184  0.4405E+00  0.4462E+00  0.4531E+00  0.4731E+00
     -1.117  0.4495E+00  0.4668E+00  0.4835E+00  0.5046E+00
     -1.049  0.4814E+00  0.5355E+00  0.5160E+00  0.5407E+00
     -0.982  0.5530E+00  0.6126E+00  0.5533E+00  0.5821E+00
     -0.914  0.6172E+00  0.6457E+00  0.5949E+00  0.6256E+00
     -0.847  0.6414E+00  0.6369E+00  0.6382E+00  0.6686E+00
     -0.779  0.6126E+00  0.6020E+00  0.6795E+00  0.7092E+00
     -0.712  0.5829E+00  0.6014E+00  0.7188E+00  0.7498E+00
     -0.644  0.6056E+00  0.5950E+00  0.7597E+00  0.7900E+00
     -0.577  0.5756E+00  0.5658E+00  0.7985E+00  0.8281E+00
     -0.510  0.5558E+00  0.6218E+00  0.8361E+00  0.8701E+00
     -0.442  0.6424E+00  0.6839E+00  0.8794E+00  0.9163E+00
     -0.375  0.7109E+00  0.7090E+00  0.9274E+00  0.9641E+00
     -0.307  0.7074E+00  0.6844E+00  0.9751E+00  0.1010E+01
     -0.240  0.6566E+00  0.6282E+00  0.1019E+01  0.1053E+01
     -0.172  0.6309E+00  0.6502E+00  0.1062E+01  0.1097E+01
     -0.105  0.6626E+00  0.6953E+00  0.1107E+01  0.1143E+01
     -0.038  0.6927E+00  0.7304E+00  0.1153E+01  0.1193E+01
      0.030  0.7335E+00  0.6962E+00  0.1203E+01  0.1240E+01
      0.097  0.6947E+00  0.6487E+00  0.1250E+01  0.1284E+01
      0.165  0.6584E+00  0.6541E+00  0.1294E+01  0.1328E+01
      0.232  0.6640E+00  0.6527E+00  0.1339E+01  0.1372E+01
      0.300  0.6536E+00  0.6859E+00  0.1383E+01  0.1418E+01
      0.367  0.7070E+00  0.8156E+00  0.1431E+01  0.1473E+01
      0.434  0.8634E+00  0.8612E+00  0.1489E+01  0.1531E+01
      0.502  0.8971E+00  0.8125E+00  0.1550E+01  0.1586E+01
      0.569  0.8271E+00  0.7387E+00  0.1605E+01  0.1636E+01
      0.637  0.7313E+00  0.6430E+00  0.1655E+01  0.1679E+01
      0.704  0.6608E+00  0.6145E+00  0.1699E+01  0.1721E+01
      0.772  0.6777E+00  0.7343E+00  0.1745E+01  0.1770E+01
      0.839  0.7826E+00  0.8178E+00  0.1798E+01  0.1825E+01
      0.906  0.8025E+00  0.7249E+00  0.1852E+01  0.1874E+01
      0.974  0.7478E+00  0.7591E+00  0.1903E+01  0.1926E+01
      1.041  0.8405E+00  0.9188E+00  0.1959E+01  0.1988E+01
      1.109  0.9258E+00  0.9817E+00  0.2022E+01  0.2054E+01
      1.176  0.9672E+00  0.9750E+00  0.2087E+01  0.2120E+01
      1.244  0.9932E+00  0.9767E+00  0.2154E+01  0.2185E+01
      1.311  0.1009E+01  0.9771E+00  0.2222E+01  0.2251E+01
      1.379  0.9798E+00  0.9152E+00  0.2288E+01  0.2313E+01
      1.446  0.8892E+00  0.8779E+00  0.2348E+01  0.2372E+01
      1.513  0.8655E+00  0.9239E+00  0.2407E+01  0.2435E+01
      1.581  0.9565E+00  0.9862E+00  0.2471E+01  0.2501E+01
      1.648  0.9965E+00  0.9380E+00  0.2538E+01  0.2565E+01
      1.716  0.9147E+00  0.8908E+00  0.2600E+01  0.2625E+01
      1.783  0.8899E+00  0.8887E+00  0.2660E+01  0.2685E+01
      1.851  0.8812E+00  0.8926E+00  0.2720E+01  0.2745E+01
      1.918  0.9049E+00  0.9142E+00  0.2781E+01  0.2807E+01
      1.985  0.9244E+00  0.8277E+00  0.2843E+01  0.2862E+01
      2.053  0.8125E+00  0.6980E+00  0.2898E+01  0.2910E+01
      2.120  0.7042E+00  0.6677E+00  0.2945E+01  0.2955E+01
      2.188  0.7686E+00  0.7873E+00  0.2997E+01  0.3008E+01
      2.255  0.9199E+00  0.8711E+00  0.3059E+01  0.3067E+01
      2.323  0.9300E+00  0.8585E+00  0.3122E+01  0.3124E+01
      2.390  0.8761E+00  0.8828E+00  0.3181E+01  0.3184E+01
      2.457  0.8942E+00  0.8364E+00  0.3242E+01  0.3240E+01
      2.525  0.8808E+00  0.8062E+00  0.3301E+01  0.3295E+01
      2.592  0.8632E+00  0.8898E+00  0.3359E+01  0.3355E+01
      2.660  0.9723E+00  0.9855E+00  0.3425E+01  0.3421E+01
      2.727  0.1155E+01  0.1016E+01  0.3503E+01  0.3490E+01
      2.795  0.1192E+01  0.1039E+01  0.3583E+01  0.3560E+01
      2.862  0.1136E+01  0.1134E+01  0.3660E+01  0.3637E+01
      2.929  0.1160E+01  0.1182E+01  0.3738E+01  0.3716E+01
      2.997  0.1268E+01  0.1283E+01  0.3824E+01  0.3803E+01
      3.064  0.1227E+01  0.1291E+01  0.3906E+01  0.3890E+01
      3.132  0.1061E+01  0.1034E+01  0.3978E+01  0.3960E+01
      3.199  0.1041E+01  0.9103E+00  0.4048E+01  0.4021E+01
      3.267  0.1096E+01  0.9960E+00  0.4122E+01  0.4089E+01
      3.334  0.1115E+01  0.1049E+01  0.4197E+01  0.4159E+01
      3.402  0.1146E+01  0.1040E+01  0.4275E+01  0.4230E+01
      3.469  0.1195E+01  0.1075E+01  0.4355E+01  0.4302E+01
      3.536  0.1247E+01  0.1172E+01  0.4440E+01  0.4381E+01
      3.604  0.1315E+01  0.1246E+01  0.4528E+01  0.4465E+01
      3.671  0.1323E+01  0.1337E+01  0.4618E+01  0.4555E+01
      3.739  0.1305E+01  0.1344E+01  0.4706E+01  0.4646E+01
      3.806  0.1260E+01  0.1224E+01  0.4791E+01  0.4729E+01
      3.874  0.1228E+01  0.1118E+01  0.4874E+01  0.4804E+01
      3.941  0.1219E+01  0.1050E+01  0.4956E+01  0.4875E+01
      4.008  0.1163E+01  0.1081E+01  0.5034E+01  0.4948E+01
      4.076  0.1155E+01  0.1138E+01  0.5112E+01  0.5025E+01
      4.143  0.1233E+01  0.1104E+01  0.5195E+01  0.5099E+01
      4.211  0.1352E+01  0.1114E+01  0.5287E+01  0.5174E+01
      4.278  0.1443E+01  0.1292E+01  0.5384E+01  0.5262E+01
      4.346  0.1452E+01  0.1451E+01  0.5482E+01  0.5359E+01
      4.413  0.1483E+01  0.1395E+01  0.5582E+01  0.5454E+01
      4.480  0.1480E+01  0.1360E+01  0.5682E+01  0.5545E+01
      4.548  0.1431E+01  0.1362E+01  0.5779E+01  0.5637E+01
      4.615  0.1462E+01  0.1294E+01  0.5877E+01  0.5725E+01
      4.683  0.1434E+01  0.1276E+01  0.5974E+01  0.5811E+01
      4.750  0.1348E+01  0.1417E+01  0.6065E+01  0.5906E+01
      4.818  0.1373E+01  0.1482E+01  0.6158E+01  0.6006E+01
      4.885  0.1431E+01  0.1321E+01  0.6254E+01  0.6096E+01
      4.952  0.1404E+01  0.1286E+01  0.6349E+01  0.6182E+01
      5.020  0.1389E+01  0.1393E+01  0.6443E+01  0.6276E+01
      5.087  0.1522E+01  0.1404E+01  0.6545E+01  0.6371E+01
      5.155  0.1670E+01  0.1320E+01  0.6658E+01  0.6460E+01
      5.222  0.1665E+01  0.1308E+01  0.6770E+01  0.6548E+01
      5.290  0.1589E+01  0.1406E+01  0.6878E+01  0.6643E+01
      5.357  0.1718E+01  0.1462E+01  0.6993E+01  0.6742E+01
      5.425  0.1969E+01  0.1367E+01  0.7126E+01  0.6834E+01
      5.492  0.1972E+01  0.1471E+01  0.7259E+01  0.6934E+01
      5.559  0.1769E+01  0.1757E+01  0.7379E+01  0.7052E+01
      5.627  0.1766E+01  0.1732E+01  0.7498E+01  0.7169E+01
      5.694  0.2043E+01  0.1518E+01  0.7636E+01  0.7271E+01
      5.762  0.2380E+01  0.1508E+01  0.7796E+01  0.7373E+01
      5.829  0.2606E+01  0.1708E+01  0.7972E+01  0.7488E+01
      5.897  0.2733E+01  0.1896E+01  0.8157E+01  0.7616E+01
      5.964  0.2781E+01  0.1944E+01  0.8344E+01  0.7748E+01
      6.031  0.2667E+01  0.1933E+01  0.8524E+01  0.7878E+01
      6.099  0.2533E+01  0.2057E+01  0.8695E+01  0.8017E+01
      6.166  0.2614E+01  0.2315E+01  0.8871E+01  0.8173E+01
      6.234  0.3015E+01  0.2495E+01  0.9075E+01  0.8341E+01
      6.301  0.3610E+01  0.2308E+01  0.9318E+01  0.8497E+01
      6.369  0.3914E+01  0.2076E+01  0.9582E+01  0.8637E+01
      6.436  0.3874E+01  0.1963E+01  0.9844E+01  0.8769E+01
      6.503  0.3660E+01  0.2030E+01  0.1009E+02  0.8906E+01
      6.571  0.3568E+01  0.2348E+01  0.1033E+02  0.9065E+01
      6.638  0.3526E+01  0.2881E+01  0.1057E+02  0.9259E+01
      6.706  0.3491E+01  0.3398E+01  0.1080E+02  0.9489E+01
      6.773  0.3678E+01  0.3576E+01  0.1105E+02  0.9730E+01
      6.841  0.4026E+01  0.3253E+01  0.1132E+02  0.9949E+01
      6.908  0.4465E+01  0.2875E+01  0.1163E+02  0.1014E+02
      6.976  0.4744E+01  0.2700E+01  0.1195E+02  0.1033E+02
      7.043  0.4513E+01  0.2716E+01  0.1225E+02  0.1051E+02
      7.110  0.3981E+01  0.2942E+01  0.1252E+02  0.1071E+02
      7.178  0.3522E+01  0.3035E+01  0.1276E+02  0.1091E+02
      7.245  0.3202E+01  0.2725E+01  0.1297E+02  0.1110E+02
      7.313  0.2967E+01  0.2546E+01  0.1317E+02  0.1127E+02
      7.380  0.2786E+01  0.2698E+01  0.1336E+02  0.1145E+02
      7.448  0.2633E+01  0.2857E+01  0.1354E+02  0.1164E+02
      7.515  0.2440E+01  0.2863E+01  0.1370E+02  0.1184E+02
      7.582  0.2143E+01  0.2979E+01  0.1385E+02  0.1204E+02
      7.650  0.1654E+01  0.3243E+01  0.1396E+02  0.1226E+02
      7.717  0.1132E+01  0.3364E+01  0.1404E+02  0.1248E+02
      7.785  0.9197E+00  0.3208E+01  0.1410E+02  0.1270E+02
      7.852  0.1191E+01  0.2854E+01  0.1418E+02  0.1289E+02
      7.920  0.2215E+01  0.2678E+01  0.1433E+02  0.1307E+02
      7.987  0.4159E+01  0.2556E+01  0.1461E+02  0.1325E+02
      8.054  0.5828E+01  0.2292E+01  0.1500E+02  0.1340E+02
      8.122  0.5447E+01  0.2094E+01  0.1537E+02  0.1354E+02
      8.189  0.4268E+01  0.1916E+01  0.1566E+02  0.1367E+02
      8.257  0.3519E+01  0.1686E+01  0.1589E+02  0.1378E+02
      8.324  0.3065E+01  0.1495E+01  0.1610E+02  0.1389E+02
      8.392  0.2903E+01  0.1177E+01  0.1630E+02  0.1396E+02
      8.459  0.2725E+01  0.7232E+00  0.1648E+02  0.1401E+02
      8.526  0.2356E+01  0.4530E+00  0.1664E+02  0.1404E+02
      8.594  0.2014E+01  0.3654E+00  0.1678E+02  0.1407E+02
      8.661  0.1838E+01  0.3519E+00  0.1690E+02  0.1409E+02
      8.729  0.1850E+01  0.4462E+00  0.1703E+02  0.1412E+02
      8.796  0.1857E+01  0.6380E+00  0.1715E+02  0.1417E+02
      8.864  0.1708E+01  0.8400E+00  0.1727E+02  0.1422E+02
      8.931  0.1542E+01  0.1056E+01  0.1737E+02  0.1429E+02
      8.999  0.1558E+01  0.1335E+01  0.1748E+02  0.1438E+02
      9.066  0.1657E+01  0.1648E+01  0.1759E+02  0.1450E+02
      9.133  0.1693E+01  0.2148E+01  0.1770E+02  0.1464E+02
      9.201  0.1565E+01  0.3074E+01  0.1781E+02  0.1485E+02
      9.268  0.1359E+01  0.4175E+01  0.1790E+02  0.1513E+02
      9.336  0.1321E+01  0.5112E+01  0.1799E+02  0.1547E+02
      9.403  0.1486E+01  0.5689E+01  0.1809E+02  0.1586E+02
      9.471  0.1732E+01  0.5525E+01  0.1821E+02  0.1623E+02
      9.538  0.2056E+01  0.5112E+01  0.1834E+02  0.1657E+02
      9.605  0.2551E+01  0.5194E+01  0.1852E+02  0.1693E+02
      9.673  0.3053E+01  0.5291E+01  0.1872E+02  0.1728E+02
      9.740  0.3378E+01  0.4695E+01  0.1895E+02  0.1760E+02
      9.808  0.3381E+01  0.3793E+01  0.1918E+02  0.1785E+02
      9.875  0.3125E+01  0.3047E+01  0.1939E+02  0.1806E+02
      9.943  0.2698E+01  0.2638E+01  0.1957E+02  0.1824E+02
     10.010  0.2332E+01  0.2622E+01  0.1973E+02  0.1842E+02
     10.077  0.2091E+01  0.2687E+01  0.1987E+02  0.1860E+02
     10.145  0.1915E+01  0.2600E+01  0.2000E+02  0.1877E+02
     10.212  0.1821E+01  0.2556E+01  0.2012E+02  0.1895E+02
     10.280  0.1777E+01  0.2680E+01  0.2024E+02  0.1913E+02
     10.347  0.1740E+01  0.2908E+01  0.2036E+02  0.1932E+02
     10.415  0.1754E+01  0.3017E+01  0.2048E+02  0.1953E+02
     10.482  0.1724E+01  0.2808E+01  0.2059E+02  0.1972E+02
     10.549  0.1652E+01  0.2300E+01  0.2071E+02  0.1987E+02
     10.617  0.1710E+01  0.1861E+01  0.2082E+02  0.2000E+02
     10.684  0.1804E+01  0.1882E+01  0.2094E+02  0.2012E+02
     10.752  0.1982E+01  0.2123E+01  0.2108E+02  0.2027E+02
     10.819  0.2160E+01  0.2229E+01  0.2122E+02  0.2042E+02
     10.887  0.2213E+01  0.2135E+01  0.2137E+02  0.2056E+02
     10.954  0.2301E+01  0.1936E+01  0.2153E+02  0.2069E+02
     11.022  0.2426E+01  0.1757E+01  0.2169E+02  0.2081E+02
     11.089  0.2405E+01  0.1909E+01  0.2185E+02  0.2094E+02
     11.156  0.2307E+01  0.2350E+01  0.2201E+02  0.2110E+02
     11.224  0.2181E+01  0.2510E+01  0.2216E+02  0.2127E+02
     11.291  0.2015E+01  0.2356E+01  0.2229E+02  0.2143E+02
     11.359  0.1933E+01  0.2330E+01  0.2242E+02  0.2158E+02
     11.426  0.2017E+01  0.2456E+01  0.2256E+02  0.2175E+02
     11.494  0.2069E+01  0.2624E+01  0.2270E+02  0.2193E+02
     11.561  0.1874E+01  0.2643E+01  0.2282E+02  0.2210E+02
     11.628  0.1689E+01  0.2445E+01  0.2294E+02  0.2227E+02
     11.696  0.1581E+01  0.2303E+01  0.2304E+02  0.2242E+02
     11.763  0.1528E+01  0.2301E+01  0.2315E+02  0.2258E+02
     11.831  0.1704E+01  0.2315E+01  0.2326E+02  0.2274E+02
     11.898  0.2021E+01  0.2319E+01  0.2340E+02  0.2289E+02
     11.966  0.2287E+01  0.2309E+01  0.2355E+02  0.2305E+02
     12.033  0.2393E+01  0.2298E+01  0.2372E+02  0.2320E+02
     12.100  0.2223E+01  0.2295E+01  0.2387E+02  0.2336E+02
     12.168  0.1993E+01  0.2289E+01  0.2400E+02  0.2351E+02
     12.235  0.1857E+01  0.2228E+01  0.2412E+02  0.2366E+02
     12.303  0.1785E+01  0.2093E+01  0.2425E+02  0.2380E+02
     12.370  0.1736E+01  0.1999E+01  0.2436E+02  0.2394E+02
     12.438  0.1791E+01  0.2096E+01  0.2448E+02  0.2408E+02
     12.505  0.1849E+01  0.2201E+01  0.2461E+02  0.2423E+02
     12.572  0.1685E+01  0.2159E+01  0.2472E+02  0.2438E+02
     12.640  0.1453E+01  0.1945E+01  0.2482E+02  0.2451E+02
     12.707  0.1402E+01  0.1759E+01  0.2491E+02  0.2463E+02
     12.775  0.1572E+01  0.1591E+01  0.2502E+02  0.2473E+02
     12.842  0.1698E+01  0.1449E+01  0.2514E+02  0.2483E+02
     12.910  0.1684E+01  0.1398E+01  0.2525E+02  0.2492E+02
     12.977  0.1559E+01  0.1414E+01  0.2535E+02  0.2502E+02
     13.045  0.1482E+01  0.1479E+01  0.2545E+02  0.2512E+02
     13.112  0.1538E+01  0.1583E+01  0.2556E+02  0.2523E+02
     13.179  0.1510E+01  0.1723E+01  0.2566E+02  0.2534E+02
     13.247  0.1389E+01  0.1812E+01  0.2575E+02  0.2547E+02
     13.314  0.1344E+01  0.1712E+01  0.2584E+02  0.2558E+02
     13.382  0.1558E+01  0.1633E+01  0.2595E+02  0.2569E+02
     13.449  0.1851E+01  0.1676E+01  0.2607E+02  0.2580E+02
     13.517  0.1968E+01  0.1588E+01  0.2621E+02  0.2591E+02
     13.584  0.1898E+01  0.1517E+01  0.2634E+02  0.2601E+02
     13.651  0.1883E+01  0.1639E+01  0.2646E+02  0.2612E+02
     13.719  0.1948E+01  0.1894E+01  0.2659E+02  0.2625E+02
     13.786  0.1844E+01  0.2082E+01  0.2672E+02  0.2639E+02
     13.854  0.1660E+01  0.1902E+01  0.2683E+02  0.2652E+02
     13.921  0.1651E+01  0.1656E+01  0.2694E+02  0.2663E+02
     13.989  0.1763E+01  0.1758E+01  0.2706E+02  0.2675E+02
     14.056  0.1795E+01  0.1995E+01  0.2718E+02  0.2689E+02
     14.123  0.1784E+01  0.2004E+01  0.2730E+02  0.2702E+02
     14.191  0.1528E+01  0.1855E+01  0.2741E+02  0.2715E+02
     14.258  0.1211E+01  0.1646E+01  0.2749E+02  0.2726E+02
     14.326  0.1137E+01  0.1447E+01  0.2756E+02  0.2736E+02
     14.393  0.1047E+01  0.1354E+01  0.2763E+02  0.2745E+02
     14.461  0.8205E+00  0.1221E+01  0.2769E+02  0.2753E+02
     14.528  0.6865E+00  0.1012E+01  0.2774E+02  0.2760E+02
     14.596  0.5838E+00  0.8575E+00  0.2778E+02  0.2766E+02
     14.663  0.4478E+00  0.7885E+00  0.2781E+02  0.2771E+02
     14.730  0.3348E+00  0.6355E+00  0.2783E+02  0.2775E+02
     14.798  0.2940E+00  0.5027E+00  0.2785E+02  0.2779E+02
     14.865  0.3346E+00  0.4672E+00  0.2787E+02  0.2782E+02
     14.933  0.3585E+00  0.4307E+00  0.2790E+02  0.2785E+02
     15.000  0.3460E+00  0.4217E+00  0.2792E+02  0.2787E+02
     15.068  0.3212E+00  0.4463E+00  0.2794E+02  0.2790E+02
     15.135  0.2315E+00  0.4190E+00  0.2796E+02  0.2793E+02
     15.202  0.1078E+00  0.2897E+00  0.2796E+02  0.2795E+02
     15.270  0.4146E-01  0.1400E+00  0.2797E+02  0.2796E+02
     15.337  0.3627E-01  0.6042E-01  0.2797E+02  0.2797E+02
     15.405  0.7191E-01  0.5464E-01  0.2797E+02  0.2797E+02
     15.472  0.1008E+00  0.8914E-01  0.2798E+02  0.2798E+02
     15.540  0.7548E-01  0.9347E-01  0.2799E+02  0.2798E+02
     15.607  0.5399E-01  0.5969E-01  0.2799E+02  0.2799E+02
     15.674  0.5580E-01  0.5034E-01  0.2799E+02  0.2799E+02
     15.742  0.5262E-01  0.6091E-01  0.2800E+02  0.2799E+02
     15.809  0.3511E-01  0.5282E-01  0.2800E+02  0.2800E+02
     15.877  0.1434E-01  0.2691E-01  0.2800E+02  0.2800E+02
     15.944  0.4359E-02  0.9107E-02  0.2800E+02  0.2800E+02
     16.012  0.1183E-02  0.2566E-02  0.2800E+02  0.2800E+02
     16.079  0.2743E-03  0.6811E-03  0.2800E+02  0.2800E+02
     16.146  0.0000E+00  0.1426E-03  0.2800E+02  0.2800E+02
     16.214  0.0000E+00  0.0000E+00  0.2800E+02  0.2800E+02
     16.281  0.0000E+00  0.0000E+00  0.2800E+02  0.2800E+02
     16.349  0.0000E+00  0.0000E+00  0.2800E+02  0.2800E+02
     16.416  0.0000E+00  0.0000E+00  0.2800E+02  0.2800E+02
     16.484  0.0000E+00  0.0000E+00  0.2800E+02  0.2800E+02
     16.551  0.0000E+00  0.0000E+00  0.2800E+02  0.2800E+02
     16.619  0.0000E+00  0.0000E+00  0.2800E+02  0.2800E+02
     16.686  0.0000E+00  0.0000E+00  0.2800E+02  0.2800E+02
     16.68594171     -3.54413122  301      8.32721995      1.00000000
     -3.544  0.0000E+00  0.0000E+00  0.0000E+00  0.0000E+00  0.0000E+00  0.0000E+00  0.0000E+00  0.0000E+00  0.0000E+00  0.0000E+00  0.0000E+00  0.0000E+00  0.0000E+00  0.0000E+00  0.0000E+00  0.0000E+00  0.0000E+00  0.0000E+00
     -3.477  0.0000E+00  0.0000E+00  0.0000E+00  0.0000E+00  0.0000E+00  0.0000E+00  0.0000E+00  0.0000E+00  0.0000E+00  0.0000E+00  0.0000E+00  0.0000E+00  0.0000E+00  0.0000E+00  0.0000E+00  0.0000E+00  0.0000E+00  0.0000E+00
     -3.409  0.0000E+00  0.0000E+00  0.0000E+00  0.0000E+00  0.0000E+00  0.0000E+00  0.0000E+00  0.0000E+00  0.0000E+00  0.0000E+00  0.0000E+00  0.0000E+00  0.0000E+00  0.0000E+00  0.0000E+00  0.0000E+00  0.0000E+00  0.0000E+00
     -3.342  0.0000E+00  0.0000E+00  0.0000E+00  0.0000E+00  0.0000E+00  0.0000E+00  0.0000E+00  0.0000E+00  0.0000E+00  0.0000E+00  0.0000E+00  0.0000E+00  0.0000E+00  0.0000E+00  0.0000E+00  0.0000E+00  0.0000E+00  0.0000E+00
     -3.274  0.0000E+00  0.0000E+00  0.0000E+00  0.0000E+00  0.0000E+00  0.0000E+00  0.0000E+00  0.0000E+00  0.0000E+00  0.0000E+00  0.0000E+00  0.0000E+00  0.0000E+00  0.0000E+00  0.0000E+00  0.0000E+00  0.0000E+00  0.0000E+00
     -3.207  0.0000E+00  0.0000E+00  0.0000E+00  0.0000E+00  0.0000E+00  0.0000E+00  0.0000E+00  0.0000E+00  0.0000E+00  0.0000E+00  0.0000E+00  0.0000E+00  0.0000E+00  0.0000E+00  0.0000E+00  0.0000E+00  0.0000E+00  0.0000E+00
     -3.140  0.0000E+00  0.0000E+00  0.0000E+00  0.0000E+00  0.0000E+00  0.0000E+00  0.0000E+00  0.0000E+00  0.0000E+00  0.0000E+00  0.0000E+00  0.0000E+00  0.0000E+00  0.0000E+00  0.0000E+00  0.0000E+00  0.0000E+00  0.0000E+00
     -3.072  0.0000E+00  0.8180E-07  0.0000E+00  0.2411E-18  0.0000E+00  0.8243E-19  0.0000E+00  0.2411E-18  0.0000E+00  0.1365E-19  0.0000E+00  0.4224E-18  0.0000E+00  0.4189E-10  0.0000E+00  0.4224E-18  0.0000E+00  0.3755E-14
     -3.005  0.2940E-06  0.8370E-06  0.1976E-16  0.1695E-08  0.1042E-08  0.2137E-08  0.1976E-16  0.1695E-08  0.3869E-16  0.2095E-16  0.3537E-14  0.1093E-14  0.4695E-11  0.4380E-09  0.3537E-14  0.1093E-14  0.9095E-15  0.6402E-11
     -2.937  0.2119E-05  0.4088E-05  0.6003E-08  0.1370E-07  0.7548E-08  0.1552E-07  0.6003E-08  0.1370E-07  0.8484E-14  0.5667E-10  0.3091E-10  0.5940E-10  0.7111E-10  0.2186E-08  0.3091E-10  0.5940E-10  0.2831E-10  0.3761E-10
     -2.870  0.8384E-05  0.1564E-04  0.3029E-07  0.5519E-07  0.3330E-07  0.6862E-07  0.3029E-07  0.5519E-07  0.2077E-09  0.3347E-09  0.1563E-09  0.3014E-09  0.3623E-09  0.8301E-08  0.1563E-09  0.3014E-09  0.8071E-10  0.1253E-09
     -2.802  0.3137E-04  0.5967E-04  0.1103E-06  0.2143E-06  0.1359E-06  0.2798E-06  0.1103E-06  0.2143E-06  0.5918E-09  0.1114E-08  0.6474E-09  0.1252E-08  0.1360E-08  0.3160E-07  0.6474E-09  0.1252E-08  0.4099E-09  0.6379E-09
     -2.735  0.1196E-03  0.2243E-03  0.4472E-06  0.8837E-06  0.5268E-06  0.1084E-05  0.4472E-06  0.8837E-06  0.2692E-08  0.5574E-08  0.2796E-08  0.5639E-08  0.5426E-08  0.1206E-06  0.2796E-08  0.5639E-08  0.1847E-08  0.2999E-08
     -2.667  0.4309E-03  0.7600E-03  0.1686E-05  0.3156E-05  0.1955E-05  0.3880E-05  0.1686E-05  0.3156E-05  0.1087E-07  0.1978E-07  0.1069E-07  0.2016E-07  0.2000E-07  0.4096E-06  0.1069E-07  0.2016E-07  0.6895E-08  0.1028E-07
     -2.600  0.1356E-02  0.2118E-02  0.5911E-05  0.1034E-04  0.6802E-05  0.1252E-04  0.5911E-05  0.1034E-04  0.3944E-07  0.7107E-07  0.3961E-07  0.7296E-07  0.6679E-07  0.1158E-05  0.3961E-07  0.7296E-07  0.2424E-07  0.3425E-07
     -2.533  0.3295E-02  0.4311E-02  0.1757E-04  0.2666E-04  0.1996E-04  0.3244E-04  0.1757E-04  0.2666E-04  0.1364E-06  0.2251E-06  0.1342E-06  0.2247E-06  0.1863E-06  0.2413E-05  0.1342E-06  0.2247E-06  0.7367E-07  0.9460E-07
     -2.465  0.5697E-02  0.6299E-02  0.3918E-04  0.5130E-04  0.4610E-04  0.6685E-04  0.3918E-04  0.5130E-04  0.3771E-06  0.5286E-06  0.3674E-06  0.5452E-06  0.4114E-06  0.3630E-05  0.3674E-06  0.5452E-06  0.1900E-06  0.2409E-06
     -2.398  0.7464E-02  0.7810E-02  0.6917E-04  0.8812E-04  0.8731E-04  0.1168E-03  0.6917E-04  0.8812E-04  0.7915E-06  0.1057E-05  0.8250E-06  0.1163E-05  0.7962E-06  0.4854E-05  0.8250E-06  0.1163E-05  0.4926E-06  0.6186E-06
     -2.330  0.9283E-02  0.9839E-02  0.1197E-03  0.1499E-03  0.1420E-03  0.1729E-03  0.1197E-03  0.1499E-03  0.1618E-05  0.2222E-05  0.1698E-05  0.2242E-05  0.1515E-05  0.7107E-05  0.1698E-05  0.2242E-05  0.1177E-05  0.1247E-05
     -2.263  0.1140E-01  0.1106E-01  0.1889E-03  0.2038E-03  0.1943E-03  0.2249E-03  0.1889E-03  0.2038E-03  0.3241E-05  0.3822E-05  0.3025E-05  0.3642E-05  0.2507E-05  0.8902E-05  0.3025E-05  0.3642E-05  0.1986E-05  0.1714E-05
     -2.195  0.1178E-01  0.1091E-01  0.2261E-03  0.2257E-03  0.2545E-03  0.3171E-03  0.2261E-03  0.2257E-03  0.4823E-05  0.5196E-05  0.4698E-05  0.5678E-05  0.3403E-05  0.8766E-05  0.4698E-05  0.5678E-05  0.2428E-05  0.2028E-05
     -2.128  0.1195E-01  0.1193E-01  0.2571E-03  0.2854E-03  0.3731E-03  0.4463E-03  0.2571E-03  0.2854E-03  0.6760E-05  0.8010E-05  0.7412E-05  0.8663E-05  0.4823E-05  0.1037E-04  0.7412E-05  0.8663E-05  0.3099E-05  0.3047E-05
     -2.061  0.1349E-01  0.1304E-01  0.3465E-03  0.3864E-03  0.4752E-03  0.4823E-03  0.3465E-03  0.3864E-03  0.1058E-04  0.1143E-04  0.1046E-04  0.1093E-04  0.7427E-05  0.1505E-04  0.1046E-04  0.1093E-04  0.5289E-05  0.5644E-05
     -1.993  0.1425E-01  0.1369E-01  0.4571E-03  0.4949E-03  0.4734E-03  0.5003E-03  0.4571E-03  0.4949E-03  0.1383E-04  0.1435E-04  0.1278E-04  0.1445E-04  0.1028E-04  0.1995E-04  0.1278E-04  0.1445E-04  0.9659E-05  0.9223E-05
     -1.926  0.1527E-01  0.1497E-01  0.5684E-03  0.5811E-03  0.5513E-03  0.6837E-03  0.5684E-03  0.5811E-03  0.1772E-04  0.1890E-04  0.1858E-04  0.2210E-04  0.1304E-04  0.2219E-04  0.1858E-04  0.2210E-04  0.1379E-04  0.1095E-04
     -1.858  0.1641E-01  0.1540E-01  0.6324E-03  0.6187E-03  0.7710E-03  0.8905E-03  0.6324E-03  0.6187E-03  0.2348E-04  0.2573E-04  0.2706E-04  0.2821E-04  0.1626E-04  0.2385E-04  0.2706E-04  0.2821E-04  0.1466E-04  0.1079E-04
     -1.791  0.1654E-01  0.1508E-01  0.6752E-03  0.6654E-03  0.9262E-03  0.9631E-03  0.6752E-03  0.6654E-03  0.3331E-04  0.3648E-04  0.3160E-04  0.3088E-04  0.2173E-04  0.2829E-04  0.3160E-04  0.3088E-04  0.1438E-04  0.1062E-04
     -1.723  0.1583E-01  0.1395E-01  0.7134E-03  0.6806E-03  0.9575E-03  0.9760E-03  0.7134E-03  0.6806E-03  0.4371E-04  0.4071E-04  0.3470E-04  0.3682E-04  0.2579E-04  0.2861E-04  0.3470E-04  0.3682E-04  0.1435E-04  0.1161E-04
     -1.656  0.1487E-01  0.1459E-01  0.7417E-03  0.7976E-03  0.1006E-02  0.1139E-02  0.7417E-03  0.7976E-03  0.4460E-04  0.4163E-04  0.4485E-04  0.5237E-04  0.2566E-04  0.3139E-04  0.4485E-04  0.5237E-04  0.1838E-04  0.1909E-04
     -1.589  0.1695E-01  0.1716E-01  0.9524E-03  0.1051E-02  0.1230E-02  0.1364E-02  0.9524E-03  0.1051E-02  0.4893E-04  0.4981E-04  0.6410E-04  0.6690E-04  0.3216E-04  0.4491E-04  0.6410E-04  0.6690E-04  0.3310E-04  0.3221E-04
     -1.521  0.1901E-01  0.1717E-01  0.1191E-02  0.1175E-02  0.1359E-02  0.1346E-02  0.1191E-02  0.1175E-02  0.6067E-04  0.6403E-04  0.7301E-04  0.6503E-04  0.4496E-04  0.5856E-04  0.7301E-04  0.6503E-04  0.4941E-04  0.3909E-04
     -1.454  0.1815E-01  0.1690E-01  0.1264E-02  0.1247E-02  0.1315E-02  0.1505E-02  0.1264E-02  0.1247E-02  0.8041E-04  0.8756E-04  0.6997E-04  0.7331E-04  0.5554E-04  0.6736E-04  0.6997E-04  0.7331E-04  0.5315E-04  0.3869E-04
     -1.386  0.1883E-01  0.1841E-01  0.1380E-02  0.1402E-02  0.1623E-02  0.1927E-02  0.1380E-02  0.1402E-02  0.1094E-03  0.1132E-03  0.8958E-04  0.1022E-03  0.6729E-04  0.7425E-04  0.8958E-04  0.1022E-03  0.5297E-04  0.4004E-04
     -1.319  0.2015E-01  0.1772E-01  0.1510E-02  0.1383E-02  0.2000E-02  0.2093E-02  0.1510E-02  0.1383E-02  0.1323E-03  0.1179E-03  0.1197E-03  0.1227E-03  0.7569E-04  0.7042E-04  0.1197E-03  0.1227E-03  0.5469E-04  0.3840E-04
     -1.251  0.1829E-01  0.1563E-01  0.1392E-02  0.1241E-02  0.2095E-02  0.2209E-02  0.1392E-02  0.1241E-02  0.1245E-03  0.1035E-03  0.1380E-03  0.1401E-03  0.7044E-04  0.6015E-04  0.1380E-03  0.1401E-03  0.5053E-04  0.3651E-04
     -1.184  0.1661E-01  0.1506E-01  0.1309E-02  0.1300E-02  0.2224E-02  0.2297E-02  0.1309E-02  0.1300E-02  0.1145E-03  0.1141E-03  0.1587E-03  0.1570E-03  0.6774E-04  0.6310E-04  0.1587E-03  0.1570E-03  0.5250E-04  0.4234E-04
     -1.117  0.1660E-01  0.1545E-01  0.1461E-02  0.1549E-02  0.2241E-02  0.2227E-02  0.1461E-02  0.1549E-02  0.1431E-03  0.1608E-03  0.1744E-03  0.1628E-03  0.7500E-04  0.8385E-04  0.1744E-03  0.1628E-03  0.6399E-04  0.5461E-04
     -1.049  0.1747E-01  0.1721E-01  0.1806E-02  0.1964E-02  0.2139E-02  0.2485E-02  0.1806E-02  0.1964E-02  0.2068E-03  0.2157E-03  0.1772E-03  0.1729E-03  0.9747E-04  0.1265E-03  0.1772E-03  0.1729E-03  0.8739E-04  0.8070E-04
     -0.982  0.1947E-01  0.1889E-01  0.2230E-02  0.2262E-02  0.2488E-02  0.3211E-02  0.2230E-02  0.2262E-02  0.2536E-03  0.2287E-03  0.1951E-03  0.2170E-03  0.1384E-03  0.1544E-03  0.1951E-03  0.2170E-03  0.1276E-03  0.1067E-03
     -0.914  0.2087E-01  0.1921E-01  0.2432E-02  0.2352E-02  0.3302E-02  0.3786E-02  0.2432E-02  0.2352E-02  0.2538E-03  0.2271E-03  0.2547E-03  0.2804E-03  0.1640E-03  0.1527E-03  0.2547E-03  0.2804E-03  0.1546E-03  0.1161E-03
     -0.847  0.2102E-01  0.1828E-01  0.2506E-02  0.2351E-02  0.3794E-02  0.3992E-02  0.2506E-02  0.2351E-02  0.2584E-03  0.2396E-03  0.3190E-03  0.3141E-03  0.1667E-03  0.1491E-03  0.3190E-03  0.3141E-03  0.1644E-03  0.1177E-03
     -0.779  0.1945E-01  0.1626E-01  0.2444E-02  0.2188E-02  0.3822E-02  0.4280E-02  0.2444E-02  0.2188E-02  0.2754E-03  0.2630E-03  0.3403E-03  0.3314E-03  0.1617E-03  0.1401E-03  0.3403E-03  0.3314E-03  0.1607E-03  0.1030E-03
     -0.712  0.1751E-01  0.1557E-01  0.2288E-02  0.2238E-02  0.4131E-02  0.4472E-02  0.2288E-02  0.2238E-02  0.3147E-03  0.3276E-03  0.3711E-03  0.3774E-03  0.1531E-03  0.1287E-03  0.3711E-03  0.3774E-03  0.1356E-03  0.9229E-04
     -0.644  0.1755E-01  0.1518E-01  0.2478E-02  0.2390E-02  0.4392E-02  0.4209E-02  0.2478E-02  0.2390E-02  0.4064E-03  0.3945E-03  0.4269E-03  0.3979E-03  0.1437E-03  0.1338E-03  0.4269E-03  0.3979E-03  0.1318E-03  0.9490E-04
     -0.577  0.1619E-01  0.1356E-01  0.2507E-02  0.2267E-02  0.4108E-02  0.4359E-02  0.2507E-02  0.2267E-02  0.4585E-03  0.4142E-03  0.4207E-03  0.4219E-03  0.1422E-03  0.1474E-03  0.4207E-03  0.4219E-03  0.1329E-03  0.9005E-04
     -0.510  0.1471E-01  0.1410E-01  0.2419E-02  0.2500E-02  0.4335E-02  0.5109E-02  0.2419E-02  0.2500E-02  0.4863E-03  0.4703E-03  0.4598E-03  0.5278E-03  0.1652E-03  0.1751E-03  0.4598E-03  0.5278E-03  0.1306E-03  0.1070E-03
     -0.442  0.1626E-01  0.1565E-01  0.2833E-02  0.3041E-02  0.5268E-02  0.5104E-02  0.2833E-02  0.3041E-02  0.5499E-03  0.5051E-03  0.6116E-03  0.6163E-03  0.2012E-03  0.2009E-03  0.6116E-03  0.6163E-03  0.1750E-03  0.1609E-03
     -0.375  0.1799E-01  0.1629E-01  0.3433E-02  0.3506E-02  0.5386E-02  0.4707E-02  0.3433E-02  0.3506E-02  0.5703E-03  0.5001E-03  0.7161E-03  0.6596E-03  0.2227E-03  0.2256E-03  0.7161E-03  0.6596E-03  0.2652E-03  0.2232E-03
     -0.307  0.1800E-01  0.1494E-01  0.3777E-02  0.3469E-02  0.4753E-02  0.4722E-02  0.3777E-02  0.3469E-02  0.5580E-03  0.4736E-03  0.7327E-03  0.6806E-03  0.2344E-03  0.2309E-03  0.7327E-03  0.6806E-03  0.3385E-03  0.2390E-03
     -0.240  0.1595E-01  0.1305E-01  0.3607E-02  0.3364E-02  0.4537E-02  0.4284E-02  0.3607E-02  0.3364E-02  0.5466E-03  0.5351E-03  0.7265E-03  0.6276E-03  0.2347E-03  0.2417E-03  0.7265E-03  0.6276E-03  0.3399E-03  0.2326E-03
     -0.172  0.1462E-01  0.1338E-01  0.3681E-02  0.3743E-02  0.4247E-02  0.4009E-02  0.3681E-02  0.3743E-02  0.6908E-03  0.7568E-03  0.6941E-03  0.6489E-03  0.2585E-03  0.2846E-03  0.6941E-03  0.6489E-03  0.3395E-03  0.2347E-03