 vasp.6.4.1 05Apr23 (build Jul 24 2024 14:19:02) complex                         
 executed on             LinuxGNU date 2024.10.23  15:23:26
 running    1 mpi-ranks, with   24 threads/rank, on    1 nodes
 distrk:  each k-point on    1 cores,    1 groups
 distr:  one band on NCORE=   1 cores,    1 groups


--------------------------------------------------------------------------------------------------------


 INCAR:
   ISTART = 0
   ALGO = Fast
   EDIFF = 0.0001
   ENCUT = 520
   IBRION = -1
   ISIF = 2
   ISMEAR = -5
   ISPIN = 2
   LASPH = True
   LMAXMIX = 6
   LORBIT = 11
   LREAL = Auto
   LWAVE = False
   MAGMOM = 2*0.6
   NELM = 100
   NSW = 0
   PREC = Accurate
   SIGMA = 0.05

 POTCAR:    PAW_PBE Nb_pv 08Apr2002               
 POTCAR:    PAW_PBE Nb_pv 08Apr2002               
   SHA256 =  bac2b60850b34f8515cf56f9feae68b678e347865051052a0e1f5d2c6a691c0a Nb_pv/POTCAR          
   COPYR  = (c) Copyright 08Apr2002 Georg Kresse                                                    
   COPYR  = This file is part of the software VASP. Any use, copying, and all other rights are regul
   COPYR  = If you do not have a valid VASP license, you may not use, copy or distribute this file. 
   VRHFIN =Nb: 4p5s4d                                                                               
   LEXCH  = PE                                                                                      
   EATOM  =  1043.3917 eV,   76.6871 Ry                                                             
                                                                                                    
   TITEL  = PAW_PBE Nb_pv 08Apr2002                                                                 
   LULTRA =        F    use ultrasoft PP ?                                                          
   IUNSCR =        1    unscreen: 0-lin 1-nonlin 2-no                                               
   RPACOR =    2.200    partial core radius                                                         
   POMASS =   92.000; ZVAL   =   11.000    mass and valenz                                          
   RCORE  =    2.750    outmost cutoff radius                                                       
   RWIGS  =    2.840; RWIGS  =    1.503    wigner-seitz radius (au A)                               
   ENMAX  =  208.608; ENMIN  =  156.456 eV                                                          
   RCLOC  =    2.201    cutoff for local pot                                                        
   LCOR   =        T    correct aug charges                                                         
   LPAW   =        T    paw PP                                                                      
   EAUG   =  355.067                                                                                
   DEXC   =    0.000                                                                                
   RMAX   =    2.804    core radius for proj-oper                                                   
   RAUG   =    1.300    factor for augmentation sphere                                              
   RDEP   =    2.776    radius for radial grids                                                     
   RDEPT  =    2.198    core radius for aug-charge                                                  
                                                                                                    
   Atomic configuration                                                                             
   11 entries                                                                                       
     n  l   j            E        occ.                                                              
     1  0  0.50    -18805.2456   2.0000                                                             
     2  0  0.50     -2630.2869   2.0000                                                             
     2  1  1.50     -2348.4045   6.0000                                                             
     3  0  0.50      -438.8756   2.0000                                                             
     3  1  1.50      -346.7587   6.0000                                                             
     3  2  2.50      -196.2559  10.0000                                                             
     4  0  0.50       -58.3859   2.0000                                                             
     4  1  1.50       -34.5141   6.0000                                                             
     4  2  2.50        -3.0408   4.0000                                                             
     5  0  0.50        -3.9816   1.0000                                                             
     4  3  2.50        -1.3606   0.0000                                                             
   Description                                                                                      
     l       E           TYP  RCUT    TYP  RCUT                                                     
     1    -34.5140617     23  2.600                                                                 
     1     -1.3605826     23  2.600                                                                 
     2     -3.0407924     23  2.600                                                                 
     2     -1.4463597     23  2.600                                                                 
     0     -3.9816219     23  2.750                                                                 
     0     20.4087390     23  2.750                                                                 
  local pseudopotential read in
  partial core-charges read in
  partial kinetic energy density read in
  atomic valenz-charges read in
  non local Contribution for L=           1  read in
    real space projection operators read in
  non local Contribution for L=           1  read in
    real space projection operators read in
  non local Contribution for L=           2  read in
    real space projection operators read in
  non local Contribution for L=           2  read in
    real space projection operators read in
  non local Contribution for L=           0  read in
    real space projection operators read in
  non local Contribution for L=           0  read in
    real space projection operators read in
    PAW grid and wavefunctions read in

   number of l-projection  operators is LMAX  =           6
   number of lm-projection operators is LMMAX =          18

 -----------------------------------------------------------------------------
|                                                                             |
|               ----> ADVICE to this user running VASP <----                  |
|                                                                             |
|     You have a (more or less) 'small supercell' and for smaller cells       |
|     it is recommended to use the reciprocal-space projection scheme!        |
|     The real-space optimization is not efficient for small cells and it     |
|     is also less accurate ...                                               |
|     Therefore, set LREAL=.FALSE. in the INCAR file.                         |
|                                                                             |
 -----------------------------------------------------------------------------

 Optimization of the real space projectors (new method)

 maximal supplied QI-value         = 13.61
 optimisation between [QCUT,QGAM] = [ 11.57, 23.27] = [ 37.45,151.59] Ry 
 Optimized for a Real-space Cutoff    1.63 Angstroem

   l    n(q)    QCUT    max X(q) W(low)/X(q) W(high)/X(q)  e(spline) 
   1     11    11.565     4.545    0.12E-04    0.18E-04    0.64E-07
   1     11    11.565     6.014    0.42E-04    0.48E-04    0.13E-06
   2     10    11.565   266.542    0.24E-03    0.87E-04    0.13E-05
   2     10    11.565   232.726    0.24E-03    0.87E-04    0.13E-05
   0     11    11.565    38.050    0.76E-04    0.32E-05    0.94E-06
   0     11    11.565    16.565    0.58E-04    0.25E-05    0.73E-06
  PAW_PBE Nb_pv 08Apr2002               :
 energy of atom  1       EATOM=-1043.3917
 kinetic energy error for atom=    0.0011 (will be added to EATOM!!)


 POSCAR: Generated POSCAR
  positions in direct lattice
  velocities in cartesian coordinates
 exchange correlation table for  LEXCH =        8
   RHO(1)=    0.500       N(1)  =     2000
   RHO(2)=  100.500       N(2)  =     4000



--------------------------------------------------------------------------------------------------------


 ion  position               nearest neighbor table
   1  0.000  0.000  0.000-   2 2.88   2 2.88   2 2.88   2 2.88   2 2.88   2 2.88   2 2.88   2 2.88

   2  0.500  0.500  0.500-   1 2.88   1 2.88   1 2.88   1 2.88   1 2.88   1 2.88   1 2.88   1 2.88


  LATTYP: Found a simple orthorhombic cell.
 ALAT       =     3.2557779118
 B/A-ratio  =     1.0204081633
 C/A-ratio  =     1.0408163265
  
  Lattice vectors:
  
 A1 = (   0.0000000000,   3.2557779118,   0.0000000000)
 A2 = (   0.0000000000,   0.0000000000,   3.3222223590)
 A3 = (   3.3886668061,   0.0000000000,   0.0000000000)


Analysis of symmetry for initial positions (statically):
=====================================================================
 Subroutine PRICEL returns following result:
 
  LATTYP: Found a body centered orthorhombic cell.
 ALAT       =     3.2557779118
 B/A-ratio  =     1.0204081633
 C/A-ratio  =     1.0408163265
  
  Lattice vectors:
  
 A1 = (  -1.6943334031,   1.6278889559,   1.6611111795)
 A2 = (  -1.6943334031,  -1.6278889559,  -1.6611111795)
 A3 = (   1.6943334031,  -1.6278889559,   1.6611111795)
 
   2 primitive cells build up your supercell.
 

 Routine SETGRP: Setting up the symmetry group for a 
 simple orthorhombic supercell.


 Subroutine GETGRP returns: Found  8 space group operations
 (whereof  8 operations were pure point group operations)
 out of a pool of  8 trial point group operations.


The static configuration has the point symmetry D_2h.


Analysis of symmetry for dynamics (positions and initial velocities):
=====================================================================
 Subroutine PRICEL returns following result:
 
  LATTYP: Found a body centered orthorhombic cell.
 ALAT       =     3.2557779118
 B/A-ratio  =     1.0204081633
 C/A-ratio  =     1.0408163265
  
  Lattice vectors:
  
 A1 = (  -1.6943334031,   1.6278889559,   1.6611111795)
 A2 = (  -1.6943334031,  -1.6278889559,  -1.6611111795)
 A3 = (   1.6943334031,  -1.6278889559,   1.6611111795)
 
   2 primitive cells build up your supercell.
 

 Routine SETGRP: Setting up the symmetry group for a 
 simple orthorhombic supercell.


 Subroutine GETGRP returns: Found  8 space group operations
 (whereof  8 operations were pure point group operations)
 out of a pool of  8 trial point group operations.


The dynamic configuration has the point symmetry D_2h.


Analysis of structural, dynamic, and magnetic symmetry:
=====================================================================
 Subroutine PRICEL returns following result:
 
  LATTYP: Found a body centered orthorhombic cell.
 ALAT       =     3.2557779118
 B/A-ratio  =     1.0204081633
 C/A-ratio  =     1.0408163265
  
  Lattice vectors:
  
 A1 = (  -1.6943334031,   1.6278889559,   1.6611111795)
 A2 = (  -1.6943334031,  -1.6278889559,  -1.6611111795)
 A3 = (   1.6943334031,  -1.6278889559,   1.6611111795)
 
   2 primitive cells build up your supercell.
 

 Routine SETGRP: Setting up the symmetry group for a 
 simple orthorhombic supercell.


 Subroutine GETGRP returns: Found  8 space group operations
 (whereof  8 operations were pure point group operations)
 out of a pool of  8 trial point group operations.


The overall configuration has the point symmetry D_2h.


 Subroutine INISYM returns: Found  8 space group operations
 (whereof  8 operations are pure point group operations),
 and found     2 'primitive' translations


----------------------------------------------------------------------------------------

                                     Primitive cell                                     

  volume of cell :      18.3266

  direct lattice vectors                    reciprocal lattice vectors
    -1.694333403  1.627888956  1.661111179    -0.295101306  0.000000000  0.301003332
    -1.694333403 -1.627888956 -1.661111179    -0.295101306 -0.307146257 -0.000000000
     1.694333403 -1.627888956  1.661111179     0.000000000 -0.307146257  0.301003332

  length of vectors
     2.877512552  2.877512552  2.877512552     0.421530292  0.425938498  0.430048636

  position of ions in fractional coordinates (direct lattice)
     0.000000000  0.000000000  0.000000000

  ion indices of the primitive-cell ions
   primitive index   ion index
                 1           1

----------------------------------------------------------------------------------------



 KPOINTS: pymatgen with grid density = 869 / numbe

Automatic generation of k-mesh.
 Grid dimensions read from file:
 generate k-points for:    7    7    7

 Generating k-lattice:

  Cartesian coordinates                     Fractional coordinates (reciprocal lattice)
     0.042157329 -0.000000000  0.000000000     0.142857143  0.000000000  0.000000000
     0.000000000  0.043878037  0.000000000     0.000000000  0.142857143  0.000000000
    -0.000000000 -0.000000000  0.043000476     0.000000000  0.000000000  0.142857143

  Length of vectors
     0.042157329  0.043878037  0.043000476

  Shift w.r.t. Gamma in fractional coordinates (k-lattice)
     0.000000000  0.000000000  0.000000000

 TETIRR: Found   1000 inequivalent tetrahedra from     2058
 
 Subroutine IBZKPT returns following result:
 ===========================================
 
 Found     64 irreducible k-points:
 
 Following reciprocal coordinates:
            Coordinates               Weight
  0.000000  0.000000  0.000000      1.000000
  0.142857  0.000000  0.000000      2.000000
  0.285714  0.000000  0.000000      2.000000
  0.428571  0.000000  0.000000      2.000000
  0.000000  0.142857  0.000000      2.000000
  0.142857  0.142857  0.000000      4.000000
  0.285714  0.142857  0.000000      4.000000
  0.428571  0.142857  0.000000      4.000000
  0.000000  0.285714  0.000000      2.000000
  0.142857  0.285714  0.000000      4.000000
  0.285714  0.285714  0.000000      4.000000
  0.428571  0.285714  0.000000      4.000000
  0.000000  0.428571  0.000000      2.000000
  0.142857  0.428571  0.000000      4.000000
  0.285714  0.428571  0.000000      4.000000
  0.428571  0.428571  0.000000      4.000000
  0.000000  0.000000  0.142857      2.000000
  0.142857  0.000000  0.142857      4.000000
  0.285714  0.000000  0.142857      4.000000
  0.428571  0.000000  0.142857      4.000000
  0.000000  0.142857  0.142857      4.000000
  0.142857  0.142857  0.142857      8.000000
  0.285714  0.142857  0.142857      8.000000
  0.428571  0.142857  0.142857      8.000000
  0.000000  0.285714  0.142857      4.000000
  0.142857  0.285714  0.142857      8.000000
  0.285714  0.285714  0.142857      8.000000
  0.428571  0.285714  0.142857      8.000000
  0.000000  0.428571  0.142857      4.000000
  0.142857  0.428571  0.142857      8.000000
  0.285714  0.428571  0.142857      8.000000
  0.428571  0.428571  0.142857      8.000000
  0.000000  0.000000  0.285714      2.000000
  0.142857  0.000000  0.285714      4.000000
  0.285714  0.000000  0.285714      4.000000
  0.428571  0.000000  0.285714      4.000000
  0.000000  0.142857  0.285714      4.000000
  0.142857  0.142857  0.285714      8.000000
  0.285714  0.142857  0.285714      8.000000
  0.428571  0.142857  0.285714      8.000000
  0.000000  0.285714  0.285714      4.000000
  0.142857  0.285714  0.285714      8.000000
  0.285714  0.285714  0.285714      8.000000
  0.428571  0.285714  0.285714      8.000000
  0.000000  0.428571  0.285714      4.000000
  0.142857  0.428571  0.285714      8.000000
  0.285714  0.428571  0.285714      8.000000
  0.428571  0.428571  0.285714      8.000000
  0.000000  0.000000  0.428571      2.000000
  0.142857  0.000000  0.428571      4.000000
  0.285714  0.000000  0.428571      4.000000
  0.428571  0.000000  0.428571      4.000000
  0.000000  0.142857  0.428571      4.000000
  0.142857  0.142857  0.428571      8.000000
  0.285714  0.142857  0.428571      8.000000
  0.428571  0.142857  0.428571      8.000000
  0.000000  0.285714  0.428571      4.000000
  0.142857  0.285714  0.428571      8.000000
  0.285714  0.285714  0.428571      8.000000
  0.428571  0.285714  0.428571      8.000000
  0.000000  0.428571  0.428571      4.000000
  0.142857  0.428571  0.428571      8.000000
  0.285714  0.428571  0.428571      8.000000
  0.428571  0.428571  0.428571      8.000000
 
 Following cartesian coordinates:
            Coordinates               Weight
  0.000000  0.000000  0.000000      1.000000
  0.042157  0.000000  0.000000      2.000000
  0.084315  0.000000  0.000000      2.000000
  0.126472  0.000000  0.000000      2.000000
  0.000000  0.043878  0.000000      2.000000
  0.042157  0.043878  0.000000      4.000000
  0.084315  0.043878  0.000000      4.000000
  0.126472  0.043878  0.000000      4.000000
  0.000000  0.087756  0.000000      2.000000
  0.042157  0.087756  0.000000      4.000000
  0.084315  0.087756  0.000000      4.000000
  0.126472  0.087756  0.000000      4.000000
  0.000000  0.131634  0.000000      2.000000
  0.042157  0.131634  0.000000      4.000000
  0.084315  0.131634  0.000000      4.000000
  0.126472  0.131634  0.000000      4.000000
  0.000000  0.000000  0.043000      2.000000
  0.042157  0.000000  0.043000      4.000000
  0.084315  0.000000  0.043000      4.000000
  0.126472  0.000000  0.043000      4.000000
  0.000000  0.043878  0.043000      4.000000
  0.042157  0.043878  0.043000      8.000000
  0.084315  0.043878  0.043000      8.000000
  0.126472  0.043878  0.043000      8.000000
  0.000000  0.087756  0.043000      4.000000
  0.042157  0.087756  0.043000      8.000000
  0.084315  0.087756  0.043000      8.000000
  0.126472  0.087756  0.043000      8.000000
  0.000000  0.131634  0.043000      4.000000
  0.042157  0.131634  0.043000      8.000000
  0.084315  0.131634  0.043000      8.000000
  0.126472  0.131634  0.043000      8.000000
  0.000000  0.000000  0.086001      2.000000
  0.042157  0.000000  0.086001      4.000000
  0.084315  0.000000  0.086001      4.000000
  0.126472  0.000000  0.086001      4.000000
  0.000000  0.043878  0.086001      4.000000
  0.042157  0.043878  0.086001      8.000000
  0.084315  0.043878  0.086001      8.000000
  0.126472  0.043878  0.086001      8.000000
  0.000000  0.087756  0.086001      4.000000
  0.042157  0.087756  0.086001      8.000000
  0.084315  0.087756  0.086001      8.000000
  0.126472  0.087756  0.086001      8.000000
  0.000000  0.131634  0.086001      4.000000
  0.042157  0.131634  0.086001      8.000000
  0.084315  0.131634  0.086001      8.000000
  0.126472  0.131634  0.086001      8.000000
  0.000000  0.000000  0.129001      2.000000
  0.042157  0.000000  0.129001      4.000000
  0.084315  0.000000  0.129001      4.000000
  0.126472  0.000000  0.129001      4.000000
  0.000000  0.043878  0.129001      4.000000
  0.042157  0.043878  0.129001      8.000000
  0.084315  0.043878  0.129001      8.000000
  0.126472  0.043878  0.129001      8.000000
  0.000000  0.087756  0.129001      4.000000
  0.042157  0.087756  0.129001      8.000000
  0.084315  0.087756  0.129001      8.000000
  0.126472  0.087756  0.129001      8.000000
  0.000000  0.131634  0.129001      4.000000
  0.042157  0.131634  0.129001      8.000000
  0.084315  0.131634  0.129001      8.000000
  0.126472  0.131634  0.129001      8.000000
 


--------------------------------------------------------------------------------------------------------




 Dimension of arrays:
   k-points           NKPTS =     64   k-points in BZ     NKDIM =     64   number of bands    NBANDS=     16
   number of dos      NEDOS =    301   number of ions     NIONS =      2
   non local maximal  LDIM  =      6   non local SUM 2l+1 LMDIM =     18
   total plane-waves  NPLWV =  18816
   max r-space proj   IRMAX =   9315   max aug-charges    IRDMAX=  31802
   dimension x,y,z NGX =    28 NGY =   24 NGZ =   28
   dimension x,y,z NGXF=    56 NGYF=   48 NGZF=   56
   support grid    NGXF=    56 NGYF=   48 NGZF=   56
   ions per type =               2
   NGX,Y,Z   is equivalent  to a cutoff of  13.74, 12.25, 14.01 a.u.
   NGXF,Y,Z  is equivalent  to a cutoff of  27.47, 24.51, 28.02 a.u.

 SYSTEM =  unknown system                          
 POSCAR =  Generated POSCAR                        

 Startparameter for this run:
   NWRITE =      2    write-flag & timer
   PREC   = accura    normal or accurate (medium, high low for compatibility)
   ISTART =      0    job   : 0-new  1-cont  2-samecut
   ICHARG =      2    charge: 1-file 2-atom 10-const
   ISPIN  =      2    spin polarized calculation?
   LNONCOLLINEAR =      F non collinear calculations
   LSORBIT =      F    spin-orbit coupling
   INIWAV =      1    electr: 0-lowe 1-rand  2-diag
   LASPH  =      T    aspherical Exc in radial PAW
 Electronic Relaxation 1
   ENCUT  =  520.0 eV  38.22 Ry    6.18 a.u.   6.30  6.05  6.18*2*pi/ulx,y,z
   ENINI  =  520.0     initial cutoff
   ENAUG  =  355.1 eV  augmentation charge cutoff
   NELM   =    100;   NELMIN=  2; NELMDL= -5     # of ELM steps 
   EDIFF  = 0.1E-03   stopping-criterion for ELM
   LREAL  =      T    real-space projection
   NLSPLINE    = F    spline interpolate recip. space projectors
   LCOMPAT=      F    compatible to vasp.4.4
   GGA_COMPAT  = T    GGA compatible to vasp.4.4-vasp.4.6
   LMAXPAW     = -100 max onsite density
   LMAXMIX     =    6 max onsite mixed and CHGCAR
   VOSKOWN=      0    Vosko Wilk Nusair interpolation
   ROPT   =   -0.00025
 Ionic relaxation
   EDIFFG = 0.1E-02   stopping-criterion for IOM
   NSW    =      0    number of steps for IOM
   NBLOCK =      1;   KBLOCK =      1    inner block; outer block 
   IBRION =     -1    ionic relax: 0-MD 1-quasi-New 2-CG
   NFREE  =      0    steps in history (QN), initial steepest desc. (CG)
   ISIF   =      2    stress and relaxation
   IWAVPR =     10    prediction:  0-non 1-charg 2-wave 3-comb
   ISYM   =      2    0-nonsym 1-usesym 2-fastsym
   LCORR  =      T    Harris-Foulkes like correction to forces

   POTIM  = 0.5000    time-step for ionic-motion
   TEIN   =    0.0    initial temperature
   TEBEG  =    0.0;   TEEND  =   0.0 temperature during run
   SMASS  =  -3.00    Nose mass-parameter (am)
   estimated Nose-frequenzy (Omega)   =  0.10E-29 period in steps = 0.13E+47 mass=  -0.262E-27a.u.
   SCALEE = 1.0000    scale energy and forces
   NPACO  =    256;   APACO  = 10.0  distance and # of slots for P.C.
   PSTRESS=    0.0 pullay stress

  Mass of Ions in am
   POMASS =  92.00
  Ionic Valenz
   ZVAL   =  11.00
  Atomic Wigner-Seitz radii
   RWIGS  =  -1.00
  virtual crystal weights 
   VCA    =   1.00
   NELECT =      22.0000    total number of electrons
   NUPDOWN=      -1.0000    fix difference up-down

 DOS related values:
   EMIN   =  10.00;   EMAX   =-10.00  energy-range for DOS
   EFERMI =   0.00;   METHOD = LEGACY      
   ISMEAR =    -5;   SIGMA  =   0.05  broadening in eV -4-tet -1-fermi 0-gaus

 Electronic relaxation 2 (details)
   IALGO  =     68    algorithm
   LDIAG  =      T    sub-space diagonalisation (order eigenvalues)
   LSUBROT=      F    optimize rotation matrix (better conditioning)
   TURBO    =      0    0=normal 1=particle mesh
   IRESTART =      0    0=no restart 2=restart with 2 vectors
   NREBOOT  =      0    no. of reboots
   NMIN     =      0    reboot dimension
   EREF     =   0.00    reference energy to select bands
   IMIX   =      4    mixing-type and parameters
     AMIX     =   0.40;   BMIX     =  1.00
     AMIX_MAG =   1.60;   BMIX_MAG =  1.00
     AMIN     =   0.10
     WC   =   100.;   INIMIX=   1;  MIXPRE=   1;  MAXMIX= -45

 Intra band minimization:
   WEIMIN = 0.0000     energy-eigenvalue tresh-hold
   EBREAK =  0.16E-05  absolut break condition
   DEPER  =   0.30     relativ break condition  

   TIME   =   0.40     timestep for ELM

  volume/ion in A,a.u.               =      18.33       123.67
  Fermi-wavevector in a.u.,A,eV,Ry     =   1.380951  2.609619 25.946661  1.907026
  Thomas-Fermi vector in A             =   2.505781

 Write flags
   LWAVE        =      F    write WAVECAR
   LDOWNSAMPLE  =      F    k-point downsampling of WAVECAR
   LCHARG       =      T    write CHGCAR
   LVTOT        =      F    write LOCPOT, total local potential
   LVHAR        =      F    write LOCPOT, Hartree potential only
   LELF         =      F    write electronic localiz. function (ELF)
   LORBIT       =     11    0 simple, 1 ext, 2 COOP (PROOUT), +10 PAW based schemes


 Dipole corrections
   LMONO  =      F    monopole corrections only (constant potential shift)
   LDIPOL =      F    correct potential (dipole corrections)
   IDIPOL =      0    1-x, 2-y, 3-z, 4-all directions 
   EPSILON=  1.0000000 bulk dielectric constant

 Exchange correlation treatment:
   GGA     =    --    GGA type
   LEXCH   =     8    internal setting for exchange type
   LIBXC   =     F    Libxc                    
   VOSKOWN =     0    Vosko Wilk Nusair interpolation
   LHFCALC =     F    Hartree Fock is set to
   LHFONE  =     F    Hartree Fock one center treatment
   AEXX    =    0.0000 exact exchange contribution

 Linear response parameters
   LEPSILON=     F    determine dielectric tensor
   LRPA    =     F    only Hartree local field effects (RPA)
   LNABLA  =     F    use nabla operator in PAW spheres
   LVEL    =     F    velocity operator in full k-point grid
   CSHIFT  =0.1000    complex shift for real part using Kramers Kronig
   OMEGAMAX=  -1.0    maximum frequency
   DEG_THRESHOLD= 0.2000000E-02 threshold for treating states as degnerate
   RTIME   =   -0.100 relaxation time in fs
  (WPLASMAI=    0.000 imaginary part of plasma frequency in eV, 0.658/RTIME)
   DFIELD  = 0.0000000 0.0000000 0.0000000 field for delta impulse in time

  Optional k-point grid parameters
   LKPOINTS_OPT  =     F    use optional k-point grid
   KPOINTS_OPT_MODE=     1    mode for optional k-point grid

 Orbital magnetization related:
   ORBITALMAG=     F  switch on orbital magnetization
   LCHIMAG   =     F  perturbation theory with respect to B field
   DQ        =  0.001000  dq finite difference perturbation B field
   LLRAUG    =     F  two centre corrections for induced B field
   LBONE     =     F  B-component reconstruction in AE one-centre
   LVGVCALC  =     T  calculate vGv susceptibility
   LVGVAPPL  =     F  apply vGv susceptibility instead of pGv for G=0

 Random number generation:
   RANDOM_GENERATOR = DEFAULT
   PCG_SEED         = not used


--------------------------------------------------------------------------------------------------------


 Static calculation
 charge density and potential will be updated during run
 spin polarized calculation
 RMM-DIIS sequential band-by-band and
  variant of blocked Davidson during initial phase
 perform sub-space diagonalisation
    before iterative eigenvector-optimisation
 modified Broyden-mixing scheme, WC =      100.0
 initial mixing is a Kerker type mixing with AMIX =  0.4000 and BMIX =      1.0000
 Hartree-type preconditioning will be used
 using additional bands            5
 real space projection scheme for non local part
 use partial core corrections
 calculate Harris-corrections to forces   (improved forces if not selfconsistent)
 use gradient corrections 
 use of overlap-Matrix (Vanderbilt PP)
 Fermi weights with tetrahedron method with Bloechl corrections


--------------------------------------------------------------------------------------------------------


  energy-cutoff  :      520.00
  volume of cell :       36.65
      direct lattice vectors                 reciprocal lattice vectors
     3.388666806  0.000000000  0.000000000     0.295101306 -0.000000000  0.000000000
     0.000000000  3.255777912  0.000000000     0.000000000  0.307146257  0.000000000
     0.000000000  0.000000000  3.322222359    -0.000000000 -0.000000000  0.301003332

  length of vectors
     3.388666806  3.255777912  3.322222359     0.295101306  0.307146257  0.301003332



 k-points in units of 2pi/SCALE and weight: pymatgen with grid density = 869 / numbe
   0.00000000  0.00000000  0.00000000       0.003
   0.04215733  0.00000000  0.00000000       0.006
   0.08431466  0.00000000  0.00000000       0.006
   0.12647199  0.00000000  0.00000000       0.006
   0.00000000  0.04387804  0.00000000       0.006
   0.04215733  0.04387804  0.00000000       0.012
   0.08431466  0.04387804  0.00000000       0.012
   0.12647199  0.04387804  0.00000000       0.012
   0.00000000  0.08775607  0.00000000       0.006
   0.04215733  0.08775607  0.00000000       0.012
   0.08431466  0.08775607  0.00000000       0.012
   0.12647199  0.08775607  0.00000000       0.012
   0.00000000  0.13163411  0.00000000       0.006
   0.04215733  0.13163411  0.00000000       0.012
   0.08431466  0.13163411  0.00000000       0.012
   0.12647199  0.13163411  0.00000000       0.012
   0.00000000  0.00000000  0.04300048       0.006
   0.04215733  0.00000000  0.04300048       0.012
   0.08431466  0.00000000  0.04300048       0.012
   0.12647199  0.00000000  0.04300048       0.012
   0.00000000  0.04387804  0.04300048       0.012
   0.04215733  0.04387804  0.04300048       0.023
   0.08431466  0.04387804  0.04300048       0.023
   0.12647199  0.04387804  0.04300048       0.023
   0.00000000  0.08775607  0.04300048       0.012
   0.04215733  0.08775607  0.04300048       0.023
   0.08431466  0.08775607  0.04300048       0.023
   0.12647199  0.08775607  0.04300048       0.023
   0.00000000  0.13163411  0.04300048       0.012
   0.04215733  0.13163411  0.04300048       0.023
   0.08431466  0.13163411  0.04300048       0.023
   0.12647199  0.13163411  0.04300048       0.023
   0.00000000  0.00000000  0.08600095       0.006
   0.04215733  0.00000000  0.08600095       0.012
   0.08431466  0.00000000  0.08600095       0.012
   0.12647199  0.00000000  0.08600095       0.012
   0.00000000  0.04387804  0.08600095       0.012
   0.04215733  0.04387804  0.08600095       0.023
   0.08431466  0.04387804  0.08600095       0.023
   0.12647199  0.04387804  0.08600095       0.023
   0.00000000  0.08775607  0.08600095       0.012
   0.04215733  0.08775607  0.08600095       0.023
   0.08431466  0.08775607  0.08600095       0.023
   0.12647199  0.08775607  0.08600095       0.023
   0.00000000  0.13163411  0.08600095       0.012
   0.04215733  0.13163411  0.08600095       0.023
   0.08431466  0.13163411  0.08600095       0.023
   0.12647199  0.13163411  0.08600095       0.023
   0.00000000  0.00000000  0.12900143       0.006
   0.04215733  0.00000000  0.12900143       0.012
   0.08431466  0.00000000  0.12900143       0.012
   0.12647199  0.00000000  0.12900143       0.012
   0.00000000  0.04387804  0.12900143       0.012
   0.04215733  0.04387804  0.12900143       0.023
   0.08431466  0.04387804  0.12900143       0.023
   0.12647199  0.04387804  0.12900143       0.023
   0.00000000  0.08775607  0.12900143       0.012
   0.04215733  0.08775607  0.12900143       0.023
   0.08431466  0.08775607  0.12900143       0.023
   0.12647199  0.08775607  0.12900143       0.023
   0.00000000  0.13163411  0.12900143       0.012
   0.04215733  0.13163411  0.12900143       0.023
   0.08431466  0.13163411  0.12900143       0.023
   0.12647199  0.13163411  0.12900143       0.023

 k-points in reciprocal lattice and weights: pymatgen with grid density = 869 / numbe
   0.00000000  0.00000000  0.00000000       0.003
   0.14285714  0.00000000  0.00000000       0.006
   0.28571429  0.00000000  0.00000000       0.006
   0.42857143  0.00000000  0.00000000       0.006
   0.00000000  0.14285714  0.00000000       0.006
   0.14285714  0.14285714  0.00000000       0.012
   0.28571429  0.14285714  0.00000000       0.012
   0.42857143  0.14285714  0.00000000       0.012
   0.00000000  0.28571429  0.00000000       0.006
   0.14285714  0.28571429  0.00000000       0.012
   0.28571429  0.28571429  0.00000000       0.012
   0.42857143  0.28571429  0.00000000       0.012
   0.00000000  0.42857143  0.00000000       0.006
   0.14285714  0.42857143  0.00000000       0.012
   0.28571429  0.42857143  0.00000000       0.012
   0.42857143  0.42857143  0.00000000       0.012
   0.00000000  0.00000000  0.14285714       0.006
   0.14285714  0.00000000  0.14285714       0.012
   0.28571429  0.00000000  0.14285714       0.012
   0.42857143  0.00000000  0.14285714       0.012
   0.00000000  0.14285714  0.14285714       0.012
   0.14285714  0.14285714  0.14285714       0.023
   0.28571429  0.14285714  0.14285714       0.023
   0.42857143  0.14285714  0.14285714       0.023
   0.00000000  0.28571429  0.14285714       0.012
   0.14285714  0.28571429  0.14285714       0.023
   0.28571429  0.28571429  0.14285714       0.023
   0.42857143  0.28571429  0.14285714       0.023
   0.00000000  0.42857143  0.14285714       0.012
   0.14285714  0.42857143  0.14285714       0.023
   0.28571429  0.42857143  0.14285714       0.023
   0.42857143  0.42857143  0.14285714       0.023
   0.00000000  0.00000000  0.28571429       0.006
   0.14285714  0.00000000  0.28571429       0.012
   0.28571429  0.00000000  0.28571429       0.012
   0.42857143  0.00000000  0.28571429       0.012
   0.00000000  0.14285714  0.28571429       0.012
   0.14285714  0.14285714  0.28571429       0.023
   0.28571429  0.14285714  0.28571429       0.023
   0.42857143  0.14285714  0.28571429       0.023
   0.00000000  0.28571429  0.28571429       0.012
   0.14285714  0.28571429  0.28571429       0.023
   0.28571429  0.28571429  0.28571429       0.023
   0.42857143  0.28571429  0.28571429       0.023
   0.00000000  0.42857143  0.28571429       0.012
   0.14285714  0.42857143  0.28571429       0.023
   0.28571429  0.42857143  0.28571429       0.023
   0.42857143  0.42857143  0.28571429       0.023
   0.00000000  0.00000000  0.42857143       0.006
   0.14285714  0.00000000  0.42857143       0.012
   0.28571429  0.00000000  0.42857143       0.012
   0.42857143  0.00000000  0.42857143       0.012
   0.00000000  0.14285714  0.42857143       0.012
   0.14285714  0.14285714  0.42857143       0.023
   0.28571429  0.14285714  0.42857143       0.023
   0.42857143  0.14285714  0.42857143       0.023
   0.00000000  0.28571429  0.42857143       0.012
   0.14285714  0.28571429  0.42857143       0.023
   0.28571429  0.28571429  0.42857143       0.023
   0.42857143  0.28571429  0.42857143       0.023
   0.00000000  0.42857143  0.42857143       0.012
   0.14285714  0.42857143  0.42857143       0.023
   0.28571429  0.42857143  0.42857143       0.023
   0.42857143  0.42857143  0.42857143       0.023

 position of ions in fractional coordinates (direct lattice) 
   0.00000000  0.00000000  0.00000000
   0.50000000  0.50000000  0.50000000

 position of ions in cartesian coordinates  (Angst):
   0.00000000  0.00000000  0.00000000
   1.69433340  1.62788896  1.66111118



--------------------------------------------------------------------------------------------------------


 k-point   1 :   0.0000 0.0000 0.0000  plane waves:     981
 k-point   2 :   0.1429 0.0000 0.0000  plane waves:     981
 k-point   3 :   0.2857 0.0000 0.0000  plane waves:     983
 k-point   4 :   0.4286 0.0000 0.0000  plane waves:     984
 k-point   5 :   0.0000 0.1429 0.0000  plane waves:     988
 k-point   6 :   0.1429 0.1429 0.0000  plane waves:     994
 k-point   7 :   0.2857 0.1429 0.0000  plane waves:     986
 k-point   8 :   0.4286 0.1429 0.0000  plane waves:     989
 k-point   9 :   0.0000 0.2857 0.0000  plane waves:     974
 k-point  10 :   0.1429 0.2857 0.0000  plane waves:     991
 k-point  11 :   0.2857 0.2857 0.0000  plane waves:     992
 k-point  12 :   0.4286 0.2857 0.0000  plane waves:     981
 k-point  13 :   0.0000 0.4286 0.0000  plane waves:     988
 k-point  14 :   0.1429 0.4286 0.0000  plane waves:     986
 k-point  15 :   0.2857 0.4286 0.0000  plane waves:     985
 k-point  16 :   0.4286 0.4286 0.0000  plane waves:     987
 k-point  17 :   0.0000 0.0000 0.1429  plane waves:     985
 k-point  18 :   0.1429 0.0000 0.1429  plane waves:     978
 k-point  19 :   0.2857 0.0000 0.1429  plane waves:     986
 k-point  20 :   0.4286 0.0000 0.1429  plane waves:     983
 k-point  21 :   0.0000 0.1429 0.1429  plane waves:     981
 k-point  22 :   0.1429 0.1429 0.1429  plane waves:     984
 k-point  23 :   0.2857 0.1429 0.1429  plane waves:     985
 k-point  24 :   0.4286 0.1429 0.1429  plane waves:     986
 k-point  25 :   0.0000 0.2857 0.1429  plane waves:     983
 k-point  26 :   0.1429 0.2857 0.1429  plane waves:     990
 k-point  27 :   0.2857 0.2857 0.1429  plane waves:     992
 k-point  28 :   0.4286 0.2857 0.1429  plane waves:     986
 k-point  29 :   0.0000 0.4286 0.1429  plane waves:     989
 k-point  30 :   0.1429 0.4286 0.1429  plane waves:     990
 k-point  31 :   0.2857 0.4286 0.1429  plane waves:     986
 k-point  32 :   0.4286 0.4286 0.1429  plane waves:     990
 k-point  33 :   0.0000 0.0000 0.2857  plane waves:     984
 k-point  34 :   0.1429 0.0000 0.2857  plane waves:     989
 k-point  35 :   0.2857 0.0000 0.2857  plane waves:     985
 k-point  36 :   0.4286 0.0000 0.2857  plane waves:     975
 k-point  37 :   0.0000 0.1429 0.2857  plane waves:     984
 k-point  38 :   0.1429 0.1429 0.2857  plane waves:     984
 k-point  39 :   0.2857 0.1429 0.2857  plane waves:     983
 k-point  40 :   0.4286 0.1429 0.2857  plane waves:     976
 k-point  41 :   0.0000 0.2857 0.2857  plane waves:     992
 k-point  42 :   0.1429 0.2857 0.2857  plane waves:     990
 k-point  43 :   0.2857 0.2857 0.2857  plane waves:     985
 k-point  44 :   0.4286 0.2857 0.2857  plane waves:     987
 k-point  45 :   0.0000 0.4286 0.2857  plane waves:     997
 k-point  46 :   0.1429 0.4286 0.2857  plane waves:     986
 k-point  47 :   0.2857 0.4286 0.2857  plane waves:     988
 k-point  48 :   0.4286 0.4286 0.2857  plane waves:     991
 k-point  49 :   0.0000 0.0000 0.4286  plane waves:     992
 k-point  50 :   0.1429 0.0000 0.4286  plane waves:     982
 k-point  51 :   0.2857 0.0000 0.4286  plane waves:     975
 k-point  52 :   0.4286 0.0000 0.4286  plane waves:     984
 k-point  53 :   0.0000 0.1429 0.4286  plane waves:     985
 k-point  54 :   0.1429 0.1429 0.4286  plane waves:     985
 k-point  55 :   0.2857 0.1429 0.4286  plane waves:     988
 k-point  56 :   0.4286 0.1429 0.4286  plane waves:     985
 k-point  57 :   0.0000 0.2857 0.4286  plane waves:     995
 k-point  58 :   0.1429 0.2857 0.4286  plane waves:     987
 k-point  59 :   0.2857 0.2857 0.4286  plane waves:     986
 k-point  60 :   0.4286 0.2857 0.4286  plane waves:     993
 k-point  61 :   0.0000 0.4286 0.4286  plane waves:    1000
 k-point  62 :   0.1429 0.4286 0.4286  plane waves:     997
 k-point  63 :   0.2857 0.4286 0.4286  plane waves:     984
 k-point  64 :   0.4286 0.4286 0.4286  plane waves:     986

 maximum and minimum number of plane-waves per node :      1000      974

 maximum number of plane-waves:      1000
 maximum index in each direction: 
   IXMAX=    6   IYMAX=    6   IZMAX=    6
   IXMIN=   -6   IYMIN=   -6   IZMIN=   -6


 serial   3D FFT for wavefunctions
 parallel 3D FFT for charge:
    minimum data exchange during FFTs selected (reduces bandwidth)


 total amount of memory used by VASP MPI-rank0    87296. kBytes
=======================================================================

   base      :      30000. kBytes
   nonlr-proj:       5318. kBytes
   fftplans  :       5304. kBytes
   grid      :      12665. kBytes
   one-center:         62. kBytes
   wavefun   :      33947. kBytes

     INWAV:  cpu time      0.0069: real time      0.0000
 Broyden mixing: mesh for mixing (old mesh)
   NGX = 13   NGY = 13   NGZ = 13
  (NGX  = 56   NGY  = 48   NGZ  = 56)
  gives a total of   2197 points

 initial charge density was supplied:
 charge density of overlapping atoms calculated
 number of electron      22.0000000 magnetization       1.2000000
 keeping initial charge density in first step


--------------------------------------------------------------------------------------------------------


 Maximum index for non-local projection operator          968
 Maximum index for augmentation-charges        30639 (set IRDMAX)


--------------------------------------------------------------------------------------------------------


 First call to EWALD:  gamma=   0.534
 Maximum number of real-space cells 3x 3x 3
 Maximum number of reciprocal cells 3x 3x 3

    FEWALD:  cpu time      0.0052: real time      0.0043


--------------------------------------- Ionic step        1  -------------------------------------------




--------------------------------------- Iteration      1(   1)  ---------------------------------------


    POTLOK:  cpu time      1.3200: real time      0.1062
    SETDIJ:  cpu time      1.0771: real time      0.2526
     EDDAV:  cpu time    350.4868: real time     19.7708
 BZINTS: Fermi energy:   23.328714;   22.000000 electrons
         Band energy:-0.295996E+02;  BLOECHL correction:   -0.581148
       DOS:  cpu time      0.3228: real time      0.0511
    --------------------------------------------
      LOOP:  cpu time    353.2067: real time     20.1807

 eigenvalue-minimisations  :  4464
 total energy-change (2. order) : 0.2004327E+03  (-0.1163242E+04)
 number of electron      22.0000000 magnetization       1.2000000
 augmentation part       22.0000000 magnetization       1.2000000

 Free energy of the ion-electron system (eV)
  ---------------------------------------------------
  alpha Z        PSCENC =       247.02244180
  Ewald energy   TEWEN  =     -1908.84641101
  -Hartree energ DENC   =      -279.45115429
  -exchange      EXHF   =         0.00000000
  -V(xc)+E(xc)   XCENC  =        52.61762111
  PAW double counting   =      1671.32378679    -1639.41528309
  entropy T*S    EENTRO =         0.00000000
  eigenvalues    EBANDS =       -29.59957789
  atomic energy  EATOM  =      2086.78124273
  Solvation  Ediel_sol  =         0.00000000
  ---------------------------------------------------
  free energy    TOTEN  =       200.43266615 eV

  energy without entropy =      200.43266615  energy(sigma->0) =      200.43266615


--------------------------------------------------------------------------------------------------------




--------------------------------------- Iteration      1(   2)  ---------------------------------------


     EDDAV:  cpu time    324.9992: real time     18.5885
 BZINTS: Fermi energy:    7.052237;   22.000000 electrons
         Band energy:-0.240771E+03;  BLOECHL correction:   -0.298518
       DOS:  cpu time      0.3130: real time      0.0534
    --------------------------------------------
      LOOP:  cpu time    325.3123: real time     18.6420

 eigenvalue-minimisations  :  4392
 total energy-change (2. order) :-0.2111714E+03  (-0.2087884E+03)
 number of electron      22.0000000 magnetization       1.2000000
 augmentation part       22.0000000 magnetization       1.2000000

 Free energy of the ion-electron system (eV)
  ---------------------------------------------------
  alpha Z        PSCENC =       247.02244180
  Ewald energy   TEWEN  =     -1908.84641101
  -Hartree energ DENC   =      -279.45115429
  -exchange      EXHF   =         0.00000000
  -V(xc)+E(xc)   XCENC  =        52.61762111
  PAW double counting   =      1671.32378679    -1639.41528309
  entropy T*S    EENTRO =         0.00000000
  eigenvalues    EBANDS =      -240.77098710
  atomic energy  EATOM  =      2086.78124273
  Solvation  Ediel_sol  =         0.00000000
  ---------------------------------------------------
  free energy    TOTEN  =       -10.73874305 eV

  energy without entropy =      -10.73874305  energy(sigma->0) =      -10.73874305


--------------------------------------------------------------------------------------------------------




--------------------------------------- Iteration      1(   3)  ---------------------------------------


     EDDAV:  cpu time    465.7835: real time     26.5693
 BZINTS: Fermi energy:    5.474369;   22.000000 electrons
         Band energy:-0.251010E+03;  BLOECHL correction:   -0.210076
       DOS:  cpu time      0.2134: real time      0.0442
    --------------------------------------------
      LOOP:  cpu time    465.9969: real time     26.6135

 eigenvalue-minimisations  :  6784
 total energy-change (2. order) :-0.1023939E+02  (-0.9679717E+01)
 number of electron      22.0000000 magnetization       1.2000000
 augmentation part       22.0000000 magnetization       1.2000000

 Free energy of the ion-electron system (eV)
  ---------------------------------------------------
  alpha Z        PSCENC =       247.02244180
  Ewald energy   TEWEN  =     -1908.84641101
  -Hartree energ DENC   =      -279.45115429
  -exchange      EXHF   =         0.00000000
  -V(xc)+E(xc)   XCENC  =        52.61762111
  PAW double counting   =      1671.32378679    -1639.41528309
  entropy T*S    EENTRO =         0.00000000
  eigenvalues    EBANDS =      -251.01037581
  atomic energy  EATOM  =      2086.78124273
  Solvation  Ediel_sol  =         0.00000000
  ---------------------------------------------------
  free energy    TOTEN  =       -20.97813177 eV

  energy without entropy =      -20.97813177  energy(sigma->0) =      -20.97813177


--------------------------------------------------------------------------------------------------------




--------------------------------------- Iteration      1(   4)  ---------------------------------------


     EDDAV:  cpu time    366.3341: real time     20.9221
 BZINTS: Fermi energy:    5.449662;   22.000000 electrons
         Band energy:-0.251169E+03;  BLOECHL correction:   -0.207100
       DOS:  cpu time      0.3125: real time      0.0523
    --------------------------------------------
      LOOP:  cpu time    366.6467: real time     20.9744

 eigenvalue-minimisations  :  5120
 total energy-change (2. order) :-0.1588295E+00  (-0.1572137E+00)
 number of electron      22.0000000 magnetization       1.2000000
 augmentation part       22.0000000 magnetization       1.2000000

 Free energy of the ion-electron system (eV)
  ---------------------------------------------------
  alpha Z        PSCENC =       247.02244180
  Ewald energy   TEWEN  =     -1908.84641101
  -Hartree energ DENC   =      -279.45115429
  -exchange      EXHF   =         0.00000000
  -V(xc)+E(xc)   XCENC  =        52.61762111
  PAW double counting   =      1671.32378679    -1639.41528309
  entropy T*S    EENTRO =         0.00000000
  eigenvalues    EBANDS =      -251.16920528
  atomic energy  EATOM  =      2086.78124273
  Solvation  Ediel_sol  =         0.00000000
  ---------------------------------------------------
  free energy    TOTEN  =       -21.13696124 eV

  energy without entropy =      -21.13696124  energy(sigma->0) =      -21.13696124


--------------------------------------------------------------------------------------------------------




--------------------------------------- Iteration      1(   5)  ---------------------------------------


     EDDAV:  cpu time    439.9155: real time     25.0897
 BZINTS: Fermi energy:    5.448557;   22.000000 electrons
         Band energy:-0.251173E+03;  BLOECHL correction:   -0.206956
       DOS:  cpu time      0.3408: real time      0.0504
    CHARGE:  cpu time     25.8638: real time      1.4648
    MIXING:  cpu time      0.0010: real time      0.0010
    --------------------------------------------
      LOOP:  cpu time    466.1211: real time     26.6059

 eigenvalue-minimisations  :  6440
 total energy-change (2. order) :-0.4204097E-02  (-0.4100345E-02)
 number of electron      21.9999998 magnetization       0.3597939
 augmentation part        7.7575969 magnetization      -0.0480453

 Broyden mixing:
  rms(total) = 0.23991E+01    rms(broyden)= 0.23991E+01
  rms(prec ) = 0.28093E+01
  weight for this iteration     100.00

 Free energy of the ion-electron system (eV)
  ---------------------------------------------------
  alpha Z        PSCENC =       247.02244180
  Ewald energy   TEWEN  =     -1908.84641101
  -Hartree energ DENC   =      -279.45115429
  -exchange      EXHF   =         0.00000000
  -V(xc)+E(xc)   XCENC  =        52.61762111
  PAW double counting   =      1671.32378679    -1639.41528309
  entropy T*S    EENTRO =         0.00000000
  eigenvalues    EBANDS =      -251.17340938
  atomic energy  EATOM  =      2086.78124273
  Solvation  Ediel_sol  =         0.00000000
  ---------------------------------------------------
  free energy    TOTEN  =       -21.14116534 eV

  energy without entropy =      -21.14116534  energy(sigma->0) =      -21.14116534


--------------------------------------------------------------------------------------------------------




--------------------------------------- Iteration      1(   6)  ---------------------------------------


    POTLOK:  cpu time      1.0979: real time      0.0874
    SETDIJ:  cpu time      1.0737: real time      0.2542
    EDDIAG:  cpu time     65.4647: real time      3.7613
  RMM-DIIS:  cpu time    276.2263: real time     14.6819
    ORTHCH:  cpu time      1.1912: real time      0.0722
 BZINTS: Fermi energy:    5.099129;   22.000000 electrons
         Band energy:-0.265209E+03;  BLOECHL correction:   -0.208966
       DOS:  cpu time      0.2790: real time      0.0548
    CHARGE:  cpu time     26.3829: real time      1.5020
    MIXING:  cpu time      0.0012: real time      0.0012
    --------------------------------------------
      LOOP:  cpu time    371.7170: real time     20.4150

 eigenvalue-minimisations  :  4497
 total energy-change (2. order) : 0.8067209E+00  (-0.8017445E-01)
 number of electron      21.9999998 magnetization       0.1831069
 augmentation part        7.8845366 magnetization      -0.0441971

 Broyden mixing:
  rms(total) = 0.91218E+00    rms(broyden)= 0.91218E+00
  rms(prec ) = 0.11860E+01
  weight for this iteration     100.00

 eigenvalues of (default mixing * dielectric matrix)
  average eigenvalue GAMMA=   1.4994
  1.4994

 Free energy of the ion-electron system (eV)
  ---------------------------------------------------
  alpha Z        PSCENC =       247.02244180
  Ewald energy   TEWEN  =     -1908.84641101
  -Hartree energ DENC   =      -260.09793766
  -exchange      EXHF   =         0.00000000
  -V(xc)+E(xc)   XCENC  =        51.60285378
  PAW double counting   =      2186.56379064    -2158.15168989
  entropy T*S    EENTRO =         0.00000000
  eigenvalues    EBANDS =      -265.20873483
  atomic energy  EATOM  =      2086.78124273
  Solvation  Ediel_sol  =         0.00000000
  ---------------------------------------------------
  free energy    TOTEN  =       -20.33444443 eV

  energy without entropy =      -20.33444443  energy(sigma->0) =      -20.33444443


--------------------------------------------------------------------------------------------------------




--------------------------------------- Iteration      1(   7)  ---------------------------------------


    POTLOK:  cpu time      1.6023: real time      0.1120
    SETDIJ:  cpu time      0.9876: real time      0.2562
    EDDIAG:  cpu time     74.4761: real time      4.2428
  RMM-DIIS:  cpu time    253.7431: real time     14.3443
    ORTHCH:  cpu time      1.5289: real time      0.0875
 BZINTS: Fermi energy:    4.802638;   22.000000 electrons
         Band energy:-0.276973E+03;  BLOECHL correction:   -0.205388
       DOS:  cpu time      0.2645: real time      0.0550
    CHARGE:  cpu time     30.3582: real time      1.6648
    MIXING:  cpu time      0.0057: real time      0.0057
    --------------------------------------------
      LOOP:  cpu time    362.9662: real time     20.7684

 eigenvalue-minimisations  :  5579
 total energy-change (2. order) : 0.1475182E+00  (-0.2145078E+00)
 number of electron      21.9999998 magnetization       0.0551227
 augmentation part        8.0582977 magnetization       0.0427349

 Broyden mixing:
  rms(total) = 0.24935E+00    rms(broyden)= 0.24935E+00
  rms(prec ) = 0.26793E+00
  weight for this iteration     100.00

 eigenvalues of (default mixing * dielectric matrix)
  average eigenvalue GAMMA=   1.0727
  1.6150  0.5304

 Free energy of the ion-electron system (eV)
  ---------------------------------------------------
  alpha Z        PSCENC =       247.02244180
  Ewald energy   TEWEN  =     -1908.84641101
  -Hartree energ DENC   =      -244.38504041
  -exchange      EXHF   =         0.00000000
  -V(xc)+E(xc)   XCENC  =        50.82170655
  PAW double counting   =      2615.98757129    -2590.59522401
  entropy T*S    EENTRO =         0.00000000
  eigenvalues    EBANDS =      -276.97321313
  atomic energy  EATOM  =      2086.78124273
  Solvation  Ediel_sol  =         0.00000000
  ---------------------------------------------------
  free energy    TOTEN  =       -20.18692618 eV

  energy without entropy =      -20.18692618  energy(sigma->0) =      -20.18692618


--------------------------------------------------------------------------------------------------------




--------------------------------------- Iteration      1(   8)  ---------------------------------------


    POTLOK:  cpu time      2.1983: real time      0.1480
    SETDIJ:  cpu time      1.3467: real time      0.2646
    EDDIAG:  cpu time     71.3006: real time      4.0627
  RMM-DIIS:  cpu time    287.5114: real time     15.9214
    ORTHCH:  cpu time      1.3093: real time      0.0803
 BZINTS: Fermi energy:    4.813834;   22.000000 electrons
         Band energy:-0.276427E+03;  BLOECHL correction:   -0.205470
       DOS:  cpu time      0.3151: real time      0.0543
    CHARGE:  cpu time     22.6484: real time      1.3273
    MIXING:  cpu time      0.0012: real time      0.0012
    --------------------------------------------
      LOOP:  cpu time    386.6309: real time     21.8598

 eigenvalue-minimisations  :  5947
 total energy-change (2. order) :-0.1125373E-01  (-0.1058583E-01)
 number of electron      21.9999998 magnetization       0.0359404
 augmentation part        8.0649565 magnetization       0.0206749

 Broyden mixing:
  rms(total) = 0.11926E+00    rms(broyden)= 0.11926E+00
  rms(prec ) = 0.14796E+00
  weight for this iteration     100.00

 eigenvalues of (default mixing * dielectric matrix)
  average eigenvalue GAMMA=   1.0670
  1.8337  0.6837  0.6837

 Free energy of the ion-electron system (eV)
  ---------------------------------------------------
  alpha Z        PSCENC =       247.02244180
  Ewald energy   TEWEN  =     -1908.84641101
  -Hartree energ DENC   =      -244.74424531
  -exchange      EXHF   =         0.00000000
  -V(xc)+E(xc)   XCENC  =        50.83252537
  PAW double counting   =      2664.08101989    -2638.89762456
  entropy T*S    EENTRO =         0.00000000
  eigenvalues    EBANDS =      -276.42712883
  atomic energy  EATOM  =      2086.78124273
  Solvation  Ediel_sol  =         0.00000000
  ---------------------------------------------------
  free energy    TOTEN  =       -20.19817992 eV

  energy without entropy =      -20.19817992  energy(sigma->0) =      -20.19817992


--------------------------------------------------------------------------------------------------------




--------------------------------------- Iteration      1(   9)  ---------------------------------------


    POTLOK:  cpu time      1.2383: real time      0.1006
    SETDIJ:  cpu time      1.1372: real time      0.2447
    EDDIAG:  cpu time     71.5876: real time      4.0925
  RMM-DIIS:  cpu time    313.8141: real time     17.0376
    ORTHCH:  cpu time      1.2542: real time      0.0808
 BZINTS: Fermi energy:    4.822926;   22.000000 electrons
         Band energy:-0.276002E+03;  BLOECHL correction:   -0.205613
       DOS:  cpu time      0.3021: real time      0.0537
    CHARGE:  cpu time     24.7894: real time      1.4286
    MIXING:  cpu time      0.0027: real time      0.0027
    --------------------------------------------
      LOOP:  cpu time    414.1256: real time     23.0411

 eigenvalue-minimisations  :  5919
 total energy-change (2. order) : 0.1221359E-03  (-0.2368975E-02)
 number of electron      21.9999998 magnetization       0.0233888
 augmentation part        8.0649767 magnetization       0.0152033

 Broyden mixing:
  rms(total) = 0.98552E-01    rms(broyden)= 0.98552E-01
  rms(prec ) = 0.12504E+00
  weight for this iteration     100.00

 eigenvalues of (default mixing * dielectric matrix)
  average eigenvalue GAMMA=   1.0891
  2.0892  0.8368  0.8368  0.5937

 Free energy of the ion-electron system (eV)
  ---------------------------------------------------
  alpha Z        PSCENC =       247.02244180
  Ewald energy   TEWEN  =     -1908.84641101
  -Hartree energ DENC   =      -245.11482242
  -exchange      EXHF   =         0.00000000
  -V(xc)+E(xc)   XCENC  =        50.84974211
  PAW double counting   =      2704.75242725    -2679.64104490
  entropy T*S    EENTRO =         0.00000000
  eigenvalues    EBANDS =      -276.00163334
  atomic energy  EATOM  =      2086.78124273
  Solvation  Ediel_sol  =         0.00000000
  ---------------------------------------------------
  free energy    TOTEN  =       -20.19805778 eV

  energy without entropy =      -20.19805778  energy(sigma->0) =      -20.19805778


--------------------------------------------------------------------------------------------------------




--------------------------------------- Iteration      1(  10)  ---------------------------------------


    POTLOK:  cpu time      1.8289: real time      0.1255
    SETDIJ:  cpu time      1.0359: real time      0.2621
    EDDIAG:  cpu time     70.0301: real time      4.0179
  RMM-DIIS:  cpu time    227.2225: real time     12.6946
    ORTHCH:  cpu time      2.2385: real time      0.1250
 BZINTS: Fermi energy:    4.844377;   22.000000 electrons
         Band energy:-0.275054E+03;  BLOECHL correction:   -0.206097
       DOS:  cpu time      0.2972: real time      0.0548
    CHARGE:  cpu time     29.5236: real time      1.6416
    MIXING:  cpu time      0.0018: real time      0.0018
    --------------------------------------------
      LOOP:  cpu time    332.1786: real time     18.9233

 eigenvalue-minimisations  :  4774
 total energy-change (2. order) : 0.3212776E-02  (-0.5730377E-03)
 number of electron      21.9999998 magnetization      -0.0064186
 augmentation part        8.0566880 magnetization      -0.0048923

 Broyden mixing:
  rms(total) = 0.68360E-01    rms(broyden)= 0.68360E-01
  rms(prec ) = 0.76417E-01
  weight for this iteration     100.00

 eigenvalues of (default mixing * dielectric matrix)
  average eigenvalue GAMMA=   1.3450
  2.6184  1.3630  1.3630  0.6266  0.7540

 Free energy of the ion-electron system (eV)
  ---------------------------------------------------
  alpha Z        PSCENC =       247.02244180
  Ewald energy   TEWEN  =     -1908.84641101
  -Hartree energ DENC   =      -246.04678049
  -exchange      EXHF   =         0.00000000
  -V(xc)+E(xc)   XCENC  =        50.89421145
  PAW double counting   =      2782.29335545    -2757.23876740
  entropy T*S    EENTRO =         0.00000000
  eigenvalues    EBANDS =      -275.05413754
  atomic energy  EATOM  =      2086.78124273
  Solvation  Ediel_sol  =         0.00000000
  ---------------------------------------------------
  free energy    TOTEN  =       -20.19484501 eV

  energy without entropy =      -20.19484501  energy(sigma->0) =      -20.19484501


--------------------------------------------------------------------------------------------------------




--------------------------------------- Iteration      1(  11)  ---------------------------------------


    POTLOK:  cpu time      1.5707: real time      0.1163
    SETDIJ:  cpu time      1.0394: real time      0.2493
    EDDIAG:  cpu time     77.6131: real time      4.4286
  RMM-DIIS:  cpu time    260.6143: real time     14.5756
    ORTHCH:  cpu time      0.9143: real time      0.0578
 BZINTS: Fermi energy:    4.857007;   22.000000 electrons
         Band energy:-0.274490E+03;  BLOECHL correction:   -0.206293
       DOS:  cpu time      0.2386: real time      0.0531
    CHARGE:  cpu time     31.7284: real time      1.7635
    MIXING:  cpu time      0.1421: real time      0.0034
    --------------------------------------------
      LOOP:  cpu time    373.8608: real time     21.2476

 eigenvalue-minimisations  :  5408
 total energy-change (2. order) :-0.7488522E-04  (-0.5697538E-03)
 number of electron      21.9999998 magnetization      -0.0046677
 augmentation part        8.0496119 magnetization      -0.0003591

 Broyden mixing:
  rms(total) = 0.40655E-02    rms(broyden)= 0.40655E-02
  rms(prec ) = 0.48536E-02
  weight for this iteration     100.00

 eigenvalues of (default mixing * dielectric matrix)
  average eigenvalue GAMMA=   1.2673
  2.5856  1.4483  1.4483  0.7919  0.6170  0.7126

 Free energy of the ion-electron system (eV)
  ---------------------------------------------------
  alpha Z        PSCENC =       247.02244180
  Ewald energy   TEWEN  =     -1908.84641101
  -Hartree energ DENC   =      -246.56674958
  -exchange      EXHF   =         0.00000000
  -V(xc)+E(xc)   XCENC  =        50.91880178
  PAW double counting   =      2860.91336161    -2835.92759219
  entropy T*S    EENTRO =         0.00000000
  eigenvalues    EBANDS =      -274.49001504
  atomic energy  EATOM  =      2086.78124273
  Solvation  Ediel_sol  =         0.00000000
  ---------------------------------------------------
  free energy    TOTEN  =       -20.19491989 eV

  energy without entropy =      -20.19491989  energy(sigma->0) =      -20.19491989


--------------------------------------------------------------------------------------------------------




--------------------------------------- Iteration      1(  12)  ---------------------------------------


    POTLOK:  cpu time      1.4548: real time      0.1145
    SETDIJ:  cpu time      1.0188: real time      0.2517
    EDDIAG:  cpu time     72.9404: real time      4.1665
  RMM-DIIS:  cpu time    258.6123: real time     13.7886
    ORTHCH:  cpu time      1.8989: real time      0.1151
 BZINTS: Fermi energy:    4.857194;   22.000000 electrons
         Band energy:-0.274482E+03;  BLOECHL correction:   -0.206300
       DOS:  cpu time      0.2861: real time      0.0526
    --------------------------------------------
      LOOP:  cpu time    336.2114: real time     18.4890

 eigenvalue-minimisations  :  3938
 total energy-change (2. order) :-0.7965825E-04  (-0.6092950E-04)
 number of electron      21.9999998 magnetization      -0.0046677
 augmentation part        8.0496119 magnetization      -0.0003591

 Free energy of the ion-electron system (eV)
  ---------------------------------------------------
  alpha Z        PSCENC =       247.02244180
  Ewald energy   TEWEN  =     -1908.84641101
  -Hartree energ DENC   =      -246.59104358
  -exchange      EXHF   =         0.00000000
  -V(xc)+E(xc)   XCENC  =        50.91998510
  PAW double counting   =      2860.51566930    -2835.51455618
  entropy T*S    EENTRO =         0.00000000
  eigenvalues    EBANDS =      -274.48232771
  atomic energy  EATOM  =      2086.78124273
  Solvation  Ediel_sol  =         0.00000000
  ---------------------------------------------------
  free energy    TOTEN  =       -20.19499955 eV

  energy without entropy =      -20.19499955  energy(sigma->0) =      -20.19499955


--------------------------------------------------------------------------------------------------------




 average (electrostatic) potential at core
  the test charge radii are     1.2125
  (the norm of the test charge is              1.0000)
       1 -35.1672       2 -35.1672



 E-fermi :   4.8572     XC(G=0): -12.3448     alpha+bet :-12.7651

 Fermi energy:         4.8571935610

 spin component 1

 k-point     1 :       0.0000    0.0000    0.0000
  band No.  band energies     occupation 
      1     -25.8297      1.00000
      2     -25.7815      1.00000
      3     -25.7324      1.00000
      4     -24.9045      1.00000
      5     -24.9041      1.00000
      6     -24.9017      1.00000
      7      -1.0610      1.00000
      8       1.1666      1.00000
      9       1.2515      1.00000
     10       4.9905      0.12349
     11       5.2182     -0.01808
     12       5.4242      0.00000
     13       7.7819      0.00000
     14       8.2930      0.00000
     15      10.2524      0.00000
     16      10.3241      0.00000

 k-point     2 :       0.1429    0.0000    0.0000
  band No.  band energies     occupation 
      1     -25.8226      1.00000
      2     -25.7375      1.00000
      3     -25.6906      1.00000
      4     -24.9906      1.00000
      5     -24.9467      1.00000
      6     -24.9445      1.00000
      7      -0.6674      1.00000
      8       1.4560      1.00000
      9       1.4937      1.00000
     10       4.9995      0.25100
     11       5.2211     -0.05206
     12       5.6059      0.00000
     13       7.2561      0.00000
     14       8.4188      0.00000
     15       9.2525      0.00000
     16       9.2963      0.00000

 k-point     3 :       0.2857    0.0000    0.0000
  band No.  band energies     occupation 
      1     -25.7821      1.00000
      2     -25.6145      1.00000
      3     -25.5740      1.00000
      4     -25.2124      1.00000
      5     -25.0668      1.00000
      6     -25.0572      1.00000
      7       0.3889      1.00000
      8       2.1063      1.00000
      9       2.1893      1.00000
     10       5.1152      0.46705
     11       5.3206     -0.21486
     12       5.9680      0.00000
     13       6.1362      0.00000
     14       7.6138      0.00000
     15       7.7279      0.00000
     16       8.7407      0.00000

 k-point     4 :       0.4286    0.0000    0.0000
  band No.  band energies     occupation 
      1     -25.6696      1.00000
      2     -25.4680      1.00000
      3     -25.4373      1.00000
      4     -25.4063      1.00000
      5     -25.2417      1.00000
      6     -25.2218      1.00000
      7       1.7046      1.00000
      8       2.4950      1.00000
      9       3.1388      1.00000
     10       4.4810      1.00119
     11       5.5147     -0.31468
     12       5.6970      0.00000
     13       6.3333      0.00000
     14       6.4869      0.00000
     15       6.9666      0.00000
     16       8.0015      0.00000

 k-point     5 :       0.0000    0.1429    0.0000
  band No.  band energies     occupation 
      1     -25.7816      1.00000
      2     -25.7477      1.00000
      3     -25.7357      1.00000
      4     -25.0066      1.00000
      5     -24.9450      1.00000
      6     -24.9447      1.00000
      7      -0.6345      1.00000
      8       1.4082      1.00000
      9       1.6133      1.00000
     10       5.1458      0.11518
     11       5.1922     -0.02336
     12       5.3467      0.00000
     13       7.6493      0.00000
     14       8.1070      0.00000
     15       9.0155      0.00000
     16       9.0667      0.00000

 k-point     6 :       0.1429    0.1429    0.0000
  band No.  band energies     occupation 
      1     -25.8646      1.00000
      2     -25.6954      1.00000
      3     -25.6222      1.00000
      4     -25.1622      1.00000
      5     -24.9824      1.00000
      6     -24.9059      1.00000
      7      -0.2793      1.00000
      8       1.6635      1.00000
      9       1.8654      1.00000
     10       4.7339      0.90626
     11       5.0488      0.09296
     12       6.0160     -0.00625
     13       7.5081      0.00000
     14       7.9149      0.00000
     15       8.1215      0.00000
     16       8.1853      0.00000

 k-point     7 :       0.2857    0.1429    0.0000
  band No.  band energies     occupation 
      1     -25.8977      1.00000
      2     -25.5830      1.00000
      3     -25.4507      1.00000
      4     -25.4161      1.00000
      5     -25.0891      1.00000
      6     -24.9547      1.00000
      7       0.6473      1.00000
      8       2.1748      1.00000
      9       2.5892      1.00000
     10       4.5071      1.02151
     11       4.8425      0.72871
     12       6.4522     -0.05203
     13       6.8121      0.00000
     14       6.9242      0.00000
     15       7.0191      0.00000
     16       8.5388      0.00000

 k-point     8 :       0.4286    0.1429    0.0000
  band No.  band energies     occupation 
      1     -25.8354      1.00000
      2     -25.6647      1.00000
      3     -25.4219      1.00000
      4     -25.2629      1.00000
      5     -25.2455      1.00000
      6     -25.0858      1.00000
      7       1.7462      1.00000
      8       2.4229      1.00000
      9       3.3911      1.00000
     10       4.2879      1.00482
     11       4.6850      0.90076
     12       5.3349     -0.03652
     13       6.5012      0.00000
     14       6.5681      0.00000
     15       7.9783      0.00000
     16       8.9433      0.00000

 k-point     9 :       0.0000    0.2857    0.0000
  band No.  band energies     occupation 
      1     -25.7597      1.00000
      2     -25.6479      1.00000
      3     -25.6086      1.00000
      4     -25.2539      1.00000
      5     -25.0681      1.00000
      6     -25.0603      1.00000
      7       0.4978      1.00000
      8       2.1085      1.00000
      9       2.4181      1.00000
     10       5.0827      0.61573
     11       5.2701     -0.08337
     12       5.7816      0.00000
     13       6.2885      0.00000
     14       7.2936      0.00000
     15       7.4076      0.00000
     16       8.7757      0.00000

 k-point    10 :       0.1429    0.2857    0.0000
  band No.  band energies     occupation 
      1     -25.9061      1.00000
      2     -25.5789      1.00000
      3     -25.4777      1.00000
      4     -25.4392      1.00000
      5     -25.0846      1.00000
      6     -24.9675      1.00000
      7       0.7119      1.00000
      8       2.2045      1.00000
      9       2.7069      1.00000
     10       4.4982      1.00886
     11       4.8077      0.76090
     12       6.3676     -0.05228
     13       6.7950      0.00000
     14       6.8524      0.00000
     15       6.9044      0.00000
     16       8.5901      0.00000

 k-point    11 :       0.2857    0.2857    0.0000
  band No.  band energies     occupation 
      1     -26.0321      1.00000
      2     -25.7130      1.00000
      3     -25.4969      1.00000
      4     -25.2680      1.00000
      5     -25.1543      1.00000
      6     -24.9125      1.00000
      7       1.1397      1.00000
      8       2.1365      1.00000
      9       3.6457      1.00000
     10       3.8909      1.00000
     11       4.8542      0.86371
     12       5.0602      0.07732
     13       6.4844      0.00000
     14       7.6664      0.00000
     15       8.1231      0.00000
     16       8.3057      0.00000

 k-point    12 :       0.4286    0.2857    0.0000
  band No.  band energies     occupation 
      1     -26.0509      1.00000
      2     -25.9381      1.00000
      3     -25.3819      1.00000
      4     -25.2595      1.00000
      5     -25.0856      1.00000
      6     -24.9579      1.00000
      7       1.5018      1.00000
      8       1.8469      1.00000
      9       3.7562      1.00000
     10       4.1509      1.00000
     11       4.6463      0.79439
     12       5.1149      0.00858
     13       6.9654      0.00000
     14       7.6084      0.00000
     15       8.7766      0.00000
     16       9.4167      0.00000

 k-point    13 :       0.0000    0.4286    0.0000
  band No.  band energies     occupation 
      1     -25.6979      1.00000
      2     -25.5193      1.00000
      3     -25.4574      1.00000
      4     -25.4278      1.00000
      5     -25.2502      1.00000
      6     -25.2319      1.00000
      7       1.8919      1.00000
      8       2.7440      1.00000
      9       3.2303      1.00000
     10       4.6849      0.98732
     11       5.3121      0.02842
     12       5.4806      0.00000
     13       6.0283      0.00000
     14       6.1737      0.00000
     15       6.7060      0.00000
     16       7.8603      0.00000

 k-point    14 :       0.1429    0.4286    0.0000
  band No.  band energies     occupation 
      1     -25.8660      1.00000
      2     -25.7027      1.00000
      3     -25.4143      1.00000
      4     -25.2954      1.00000
      5     -25.2377      1.00000
      6     -25.1112      1.00000
      7       1.8407      1.00000
      8       2.5218      1.00000
      9       3.5053      1.00000
     10       4.3995      1.00178
     11       4.6181      0.95895
     12       5.2320     -0.02854
     13       6.2782      0.00000
     14       6.3484      0.00000
     15       7.8028      0.00000
     16       8.9522      0.00000

 k-point    15 :       0.2857    0.4286    0.0000
  band No.  band energies     occupation 
      1     -26.0663      1.00000
      2     -25.9549      1.00000
      3     -25.3785      1.00000
      4     -25.2560      1.00000
      5     -25.0978      1.00000
      6     -24.9689      1.00000
      7       1.5078      1.00000
      8       1.8547      1.00000
      9       3.7238      1.00000
     10       4.1126      1.00000
     11       4.6749      0.77904
     12       5.1770     -0.01772
     13       6.9964      0.00000
     14       7.4745      0.00000
     15       9.1145      0.00000
     16       9.3333      0.00000

 k-point    16 :       0.4286    0.4286    0.0000
  band No.  band energies     occupation 
      1     -26.1670      1.00000
      2     -26.1277      1.00000
      3     -25.3322      1.00000
      4     -25.2884      1.00000
      5     -24.9644      1.00000
      6     -24.9179      1.00000
      7       1.2420      1.00000
      8       1.3530      1.00000
      9       3.3037      1.00000
     10       3.4356      1.00000
     11       6.1725     -0.16150
     12       6.5311     -0.06824
     13       7.6639      0.00000
     14       8.0031      0.00000
     15       8.7665      0.00000
     16       9.6985      0.00000

 k-point    17 :       0.0000    0.0000    0.1429
  band No.  band energies     occupation 
      1     -25.7848      1.00000
      2     -25.7826      1.00000
      3     -25.6898      1.00000
      4     -24.9987      1.00000
      5     -24.9461      1.00000
      6     -24.9436      1.00000
      7      -0.6516      1.00000
      8       1.4268      1.00000
      9       1.5564      1.00000
     10       4.9648      0.37774
     11       5.3873     -0.07564
     12       5.4094      0.00000
     13       7.3954      0.00000
     14       8.3189      0.00000
     15       9.1103      0.00000
     16       9.2022      0.00000

 k-point    18 :       0.1429    0.0000    0.1429
  band No.  band energies     occupation 
      1     -25.8812      1.00000
      2     -25.6516      1.00000
      3     -25.6417      1.00000
      4     -25.1623      1.00000
      5     -24.9790      1.00000
      6     -24.9014      1.00000
      7      -0.2966      1.00000
      8       1.6816      1.00000
      9       1.8099      1.00000
     10       4.8853      0.70336
     11       4.8979      0.39767
     12       6.1007     -0.00569
     13       7.3197      0.00000
     14       8.0421      0.00000
     15       8.1950      0.00000
     16       8.2482      0.00000

 k-point    19 :       0.2857    0.0000    0.1429
  band No.  band energies     occupation 
      1     -25.9125      1.00000
      2     -25.5450      1.00000
      3     -25.4660      1.00000
      4     -25.4213      1.00000
      5     -25.0791      1.00000
      6     -24.9517      1.00000
      7       0.6286      1.00000
      8       2.1678      1.00000
      9       2.5626      1.00000
     10       4.6841      0.98844
     11       4.7452      0.86247
     12       6.6029     -0.05019
     13       6.6777      0.00000
     14       6.9560      0.00000
     15       6.9722      0.00000
     16       8.5488      0.00000

 k-point    20 :       0.4286    0.0000    0.1429
  band No.  band energies     occupation 
      1     -25.8477      1.00000
      2     -25.6739      1.00000
      3     -25.3927      1.00000
      4     -25.2721      1.00000
      5     -25.2263      1.00000
      6     -25.0881      1.00000
      7       1.7234      1.00000
      8       2.3993      1.00000
      9       3.3913      1.00000
     10       4.2819      1.00430
     11       4.8624      0.77292
     12       5.5028     -0.04992
     13       6.3100      0.00000
     14       6.4333      0.00000
     15       7.9944      0.00000
     16       8.9390      0.00000

 k-point    21 :       0.0000    0.1429    0.1429
  band No.  band energies     occupation 
      1     -25.8404      1.00000
      2     -25.7384      1.00000
      3     -25.6099      1.00000
      4     -25.1622      1.00000
      5     -24.9842      1.00000
      6     -24.9107      1.00000
      7      -0.2634      1.00000
      8       1.6615      1.00000
      9       1.9000      1.00000
     10       4.6147      1.01103
     11       5.2014     -0.02694
     12       5.9126     -0.00658
     13       7.7301      0.00000
     14       7.7896      0.00000
     15       7.9570      0.00000
     16       8.1989      0.00000

 k-point    22 :       0.1429    0.1429    0.1429
  band No.  band energies     occupation 
      1     -25.8334      1.00000
      2     -25.7911      1.00000
      3     -25.4913      1.00000
      4     -25.2937      1.00000
      5     -24.9567      1.00000
      6     -24.9468      1.00000
      7       0.0776      1.00000
      8       1.9858      1.00000
      9       2.0731      1.00000
     10       4.5022      1.05350
     11       4.7394      0.73989
     12       6.4109     -0.05576
     13       6.6284      0.00000
     14       7.6450      0.00000
     15       8.0040      0.00000
     16       9.1917      0.00000

 k-point    23 :       0.2857    0.1429    0.1429
  band No.  band energies     occupation 
      1     -25.9079      1.00000
      2     -25.6630      1.00000
      3     -25.5308      1.00000
      4     -25.3223      1.00000
      5     -25.0836      1.00000
      6     -24.9541      1.00000
      7       0.9426      1.00000
      8       2.5462      1.00000
      9       2.6673      1.00000
     10       4.2565      1.01902
     11       4.4561      1.02753
     12       5.2082      0.09743
     13       7.0917      0.00000
     14       7.7156      0.00000
     15       7.9800      0.00000
     16       8.4459      0.00000

 k-point    24 :       0.4286    0.1429    0.1429
  band No.  band energies     occupation 
      1     -25.8878      1.00000
      2     -25.7529      1.00000
      3     -25.4759      1.00000
      4     -25.2690      1.00000
      5     -25.1619      1.00000
      6     -25.0318      1.00000
      7       1.9181      1.00000
      8       2.6586      1.00000
      9       3.2275      1.00000
     10       3.8708      1.00479
     11       4.6721      0.95432
     12       4.9106      0.26336
     13       6.7048      0.00000
     14       6.9894      0.00000
     15       8.4654      0.00000
     16       8.7169      0.00000

 k-point    25 :       0.0000    0.2857    0.1429
  band No.  band energies     occupation 
      1     -25.8900      1.00000
      2     -25.6159      1.00000
      3     -25.4632      1.00000
      4     -25.4344      1.00000
      5     -25.0930      1.00000
      6     -24.9703      1.00000
      7       0.7292      1.00000
      8       2.2116      1.00000
      9       2.7284      1.00000
     10       4.3417      1.02265
     11       4.9073      0.56204
     12       6.2217     -0.05274
     13       6.7499      0.00000
     14       6.9332      0.00000
     15       7.0141      0.00000
     16       8.5869      0.00000

 k-point    26 :       0.1429    0.2857    0.1429
[...]
  band No.  band energies     occupation 
      1     -26.0093      1.00000
      2     -25.9344      1.00000
      3     -25.4875      1.00000
      4     -25.3028      1.00000
      5     -25.0692      1.00000
      6     -25.0027      1.00000
      7       1.8700      1.00000
      8       2.1647      1.00000
      9       3.4535      1.00000
     10       3.6210      1.00000
     11       4.7109      0.82571
     12       4.8176      0.48375
     13       7.4840      0.00000
     14       7.7834      0.00000
     15       8.7803      0.00000
     16       9.3109      0.00000

 k-point    59 :       0.2857    0.2857    0.4286
  band No.  band energies     occupation 
      1     -25.9378      1.00000
      2     -25.9347      1.00000
      3     -25.5958      1.00000
      4     -25.3467      1.00000
      5     -25.0797      1.00000
      6     -25.0582      1.00000
      7       2.5794      1.00000
      8       2.5998      1.00000
      9       3.4694      1.00000
     10       3.5592      1.00000
     11       4.1433      1.00607
     12       4.4693      0.99228
     13       8.0496      0.00000
     14       8.0896      0.00000
     15       8.7277      0.00000
     16       8.8076      0.00000

 k-point    60 :       0.4286    0.2857    0.4286
  band No.  band energies     occupation 
      1     -25.9473      1.00000
      2     -25.9299      1.00000
      3     -25.5463      1.00000
      4     -25.4137      1.00000
      5     -25.1337      1.00000
      6     -25.0982      1.00000
      7       2.6225      1.00000
      8       2.7614      1.00000
      9       3.3277      1.00000
     10       3.5160      1.00000
     11       4.6118      0.89561
     12       4.7800      0.79055
     13       8.3001      0.00000
     14       8.3413      0.00000
     15       8.6837      0.00000
     16       8.7211      0.00000

 k-point    61 :       0.0000    0.4286    0.4286
  band No.  band energies     occupation 
      1     -26.1608      1.00000
      2     -26.1227      1.00000
      3     -25.3530      1.00000
      4     -25.3066      1.00000
      5     -24.9824      1.00000
      6     -24.9374      1.00000
      7       1.2275      1.00000
      8       1.3329      1.00000
      9       3.0823      1.00000
     10       3.2140      1.00000
     11       6.2908     -0.16716
     12       6.6594     -0.04741
     13       7.9239      0.00000
     14       8.3324      0.00000
     15       8.8106      0.00000
     16       9.8351      0.00000

 k-point    62 :       0.1429    0.4286    0.4286
  band No.  band energies     occupation 
      1     -26.1016      1.00000
      2     -26.0761      1.00000
      3     -25.4101      1.00000
      4     -25.3376      1.00000
      5     -25.0172      1.00000
      6     -24.9990      1.00000
      7       1.6142      1.00000
      8       1.6856      1.00000
      9       3.0829      1.00000
     10       3.1921      1.00000
     11       5.9044     -0.18160
     12       6.0002     -0.11793
     13       8.1005      0.00000
     14       8.3648      0.00000
     15       8.8303      0.00000
     16       9.2800      0.00000

 k-point    63 :       0.2857    0.4286    0.4286
  band No.  band energies     occupation 
      1     -25.9533      1.00000
      2     -25.9348      1.00000
      3     -25.5398      1.00000
      4     -25.3940      1.00000
      5     -25.1712      1.00000
      6     -25.1236      1.00000
      7       2.4716      1.00000
      8       2.5992      1.00000
      9       3.1655      1.00000
     10       3.3543      1.00000
     11       4.8517      0.76267
     12       5.0106      0.37600
     13       8.4535      0.00000
     14       8.5455      0.00000
     15       8.8737      0.00000
     16       8.9606      0.00000

 k-point    64 :       0.4286    0.4286    0.4286
  band No.  band energies     occupation 
      1     -25.8053      1.00000
      2     -25.6944      1.00000
      3     -25.6724      1.00000
      4     -25.4217      1.00000
      5     -25.3865      1.00000
      6     -25.2749      1.00000
      7       3.0373      1.00000
      8       3.4322      1.00000
      9       3.4748      1.00000
     10       3.9324      1.00000
     11       4.0771      1.00000
     12       4.1279      1.08792
     13       8.6564      0.00000
     14       8.6742      0.00000
     15       8.8909      0.00000
     16       8.8955      0.00000


--------------------------------------------------------------------------------------------------------


 soft charge-density along one line, spin component           1
         0         1         2         3         4         5         6         7         8         9
 total charge-density along one line

 soft charge-density along one line, spin component           2
         0         1         2         3         4         5         6         7         8         9
 total charge-density along one line

 pseudopotential strength for first ion, spin component:           1
-28.108   0.000   0.000   5.978  -0.000  -0.000  -0.000  -0.000
  0.000 -28.106  -0.000  -0.000   5.977   0.000   0.000  -0.000
  0.000  -0.000 -28.106  -0.000   0.000   5.976  -0.000   0.000
  5.978  -0.000  -0.000   4.218   0.000   0.000   0.000   0.000
 -0.000   5.977   0.000   0.000   4.218   0.000  -0.000   0.000
 -0.000   0.000   5.976   0.000   0.000   4.218   0.000  -0.000
 -0.000   0.000  -0.000   0.000  -0.000   0.000  -6.357  -0.000
 -0.000  -0.000   0.000   0.000   0.000  -0.000  -0.000  -6.357
 -0.000  -0.000  -0.000   0.000   0.000   0.000  -0.000   0.000
  0.000   0.000  -0.000  -0.000   0.000   0.000   0.000   0.000
 -0.000  -0.000   0.000   0.000   0.000  -0.000  -0.000  -0.000
 -0.000   0.000  -0.000   0.000  -0.000   0.000  -7.214  -0.000
 -0.000  -0.000   0.000   0.000   0.000  -0.000  -0.000  -7.214
 -0.000  -0.000  -0.000   0.000   0.000   0.000  -0.000   0.000
  0.000   0.000  -0.000  -0.000   0.000   0.000   0.000   0.000
 -0.000  -0.000   0.000   0.000   0.000  -0.000  -0.000  -0.000
  0.000   0.000  -0.000   0.000  -0.000   0.000  -0.000  -0.000
 -0.000  -0.000   0.000  -0.000  -0.000  -0.000   0.000   0.000
 pseudopotential strength for first ion, spin component:           2
-28.108   0.000   0.000   5.978  -0.000  -0.000  -0.000  -0.000
  0.000 -28.106   0.000  -0.000   5.977   0.000   0.000  -0.000
  0.000   0.000 -28.106  -0.000   0.000   5.977  -0.000   0.000
  5.978  -0.000  -0.000   4.218   0.000   0.000   0.000   0.000
 -0.000   5.977   0.000   0.000   4.218   0.000  -0.000   0.000
 -0.000   0.000   5.977   0.000   0.000   4.218   0.000  -0.000
 -0.000   0.000  -0.000   0.000  -0.000   0.000  -6.357  -0.000
 -0.000  -0.000   0.000   0.000   0.000  -0.000  -0.000  -6.357
 -0.000  -0.000  -0.000   0.000   0.000   0.000  -0.000   0.000
  0.000  -0.000  -0.000  -0.000  -0.000   0.000   0.000   0.000
 -0.000  -0.000   0.000   0.000   0.000  -0.000  -0.000  -0.000
 -0.000   0.000  -0.000   0.000  -0.000   0.000  -7.214  -0.000
 -0.000  -0.000   0.000   0.000   0.000  -0.000  -0.000  -7.214
 -0.000  -0.000  -0.000   0.000   0.000   0.000  -0.000   0.000
  0.000  -0.000  -0.000  -0.000  -0.000   0.000   0.000   0.000
 -0.000  -0.000   0.000   0.000   0.000  -0.000  -0.000  -0.000
  0.000   0.000  -0.000   0.000  -0.000   0.000  -0.000  -0.000
 -0.000  -0.000   0.000  -0.000  -0.000  -0.000   0.000   0.000
 total augmentation occupancy for first ion, spin component:           1
  1.993   0.000   0.000  -0.013  -0.000  -0.000  -0.000   0.000   0.000   0.000   0.000   0.000  -0.000   0.000   0.000   0.000
  0.000   1.993   0.000  -0.000  -0.013  -0.000   0.000   0.000  -0.000   0.000   0.000   0.000  -0.000  -0.000   0.000  -0.000
  0.000   0.000   1.993  -0.000  -0.000  -0.013  -0.000   0.000  -0.000  -0.000   0.000   0.000   0.000   0.000   0.000   0.000
 -0.013  -0.000  -0.000   0.206   0.000   0.000   0.000   0.000  -0.000   0.000   0.000   0.000   0.000   0.000   0.000   0.000
 -0.000  -0.013  -0.000   0.000   0.203   0.000   0.000   0.000   0.000   0.000   0.000   0.000   0.000   0.000   0.000   0.000
 -0.000  -0.000  -0.013   0.000   0.000   0.202   0.000   0.000  -0.000   0.000   0.000   0.000   0.000   0.000   0.000   0.000
  0.000   0.000  -0.000   0.000   0.000   0.000   5.992   0.000  -0.000   0.000   0.000  -3.339  -0.000   0.000  -0.000   0.000
 -0.000   0.000   0.000   0.000   0.000   0.000   0.000   5.896   0.000   0.000  -0.000  -0.000  -3.293  -0.000  -0.000   0.000
  0.000  -0.000   0.000   0.000   0.000  -0.000  -0.000   0.000   5.624   0.000   0.083   0.000  -0.000  -3.315  -0.000  -0.041
  0.000   0.000   0.000   0.000   0.000   0.000   0.000   0.000   0.000   6.105   0.000  -0.000  -0.000  -0.000  -3.391  -0.000
  0.000   0.000   0.000   0.000   0.000   0.000   0.000  -0.000   0.083   0.000   5.625  -0.000   0.000  -0.041  -0.000  -3.316
  0.000   0.000   0.000   0.000   0.000   0.000  -3.339  -0.000   0.000  -0.000   0.000   1.899   0.000  -0.000   0.000  -0.000
  0.000   0.000  -0.000   0.000   0.000   0.000  -0.000  -3.293  -0.000  -0.000   0.000   0.000   1.877   0.000   0.000  -0.000
  0.000   0.000   0.000   0.000   0.000   0.000   0.000  -0.000  -3.315  -0.000  -0.041  -0.000   0.000   1.972   0.000   0.020
  0.000   0.000   0.000  -0.000   0.000   0.000  -0.000  -0.000  -0.000  -3.391  -0.000   0.000   0.000   0.000   1.923   0.000
  0.000  -0.000   0.000   0.000   0.000  -0.000  -0.000   0.000  -0.041  -0.000  -3.316  -0.000  -0.000   0.020   0.000   1.973
  0.000  -0.000  -0.000   0.000   0.000   0.000   0.000  -0.000  -0.005  -0.000  -0.029   0.000   0.000   0.003   0.000   0.017
  0.000  -0.000  -0.000   0.000   0.000   0.000  -0.000  -0.000   0.000  -0.000  -0.001   0.000   0.000  -0.000  -0.000   0.000
 total augmentation occupancy for first ion, spin component:           2
  0.000   0.000   0.000   0.000   0.000   0.000   0.000  -0.000   0.000   0.000   0.000   0.000  -0.000   0.000   0.000  -0.000
  0.000   0.000   0.000   0.000   0.000   0.000   0.000   0.000   0.000   0.000   0.000  -0.000  -0.000  -0.000   0.000   0.000
  0.000   0.000   0.000   0.000   0.000   0.000   0.000   0.000   0.000  -0.000   0.000  -0.000   0.000   0.000   0.000   0.000
  0.000   0.000   0.000  -0.000  -0.000  -0.000   0.000   0.000   0.000   0.000   0.000   0.000   0.000   0.000   0.000   0.000
  0.000   0.000   0.000  -0.000  -0.000  -0.000   0.000   0.000   0.000   0.000   0.000   0.000   0.000   0.000   0.000   0.000
  0.000   0.000   0.000  -0.000  -0.000  -0.000   0.000   0.000   0.000   0.000   0.000   0.000   0.000   0.000   0.000   0.000
  0.000   0.000   0.000   0.000   0.000   0.000  -0.004  -0.000   0.000  -0.000   0.000   0.002   0.000  -0.000   0.000  -0.000
 -0.000   0.000   0.000   0.000   0.000   0.000  -0.000  -0.004  -0.000  -0.000   0.000   0.000   0.003   0.000   0.000  -0.000
  0.000   0.000  -0.000   0.000   0.000   0.000   0.000  -0.000  -0.006  -0.000  -0.000  -0.000   0.000   0.005  -0.000   0.000
  0.000   0.000  -0.000   0.000   0.000   0.000  -0.000  -0.000  -0.000  -0.004  -0.000   0.000   0.000  -0.000   0.002   0.000
 -0.000   0.000   0.000   0.000   0.000   0.000   0.000   0.000  -0.000  -0.000  -0.006  -0.000  -0.000   0.000   0.000   0.005
  0.000  -0.000   0.000   0.000   0.000   0.000   0.002   0.000  -0.000   0.000  -0.000  -0.001   0.000   0.000  -0.000   0.000
  0.000  -0.000  -0.000   0.000   0.000   0.000   0.000   0.003   0.000   0.000  -0.000   0.000  -0.002   0.000  -0.000   0.000
  0.000   0.000   0.000   0.000   0.000   0.000  -0.000   0.000   0.005  -0.000   0.000   0.000   0.000  -0.004   0.000  -0.000
  0.000   0.000   0.000   0.000   0.000   0.000   0.000   0.000  -0.000   0.002   0.000  -0.000  -0.000   0.000  -0.001  -0.000
 -0.000   0.000   0.000   0.000   0.000   0.000  -0.000  -0.000   0.000   0.000   0.005   0.000   0.000  -0.000  -0.000  -0.004
  0.000   0.000   0.000   0.000   0.000   0.000   0.000  -0.000  -0.000  -0.000  -0.000  -0.000  -0.000   0.000   0.000   0.000
 -0.000   0.000   0.000   0.000   0.000   0.000  -0.000  -0.000  -0.000  -0.000   0.000  -0.000  -0.000   0.000   0.000  -0.000


------------------------ aborting loop because EDIFF is reached ----------------------------------------





 total charge

# of ion       s       p       d       tot
------------------------------------------
    1        0.419   6.290   3.084   9.792
    2        0.419   6.290   3.084   9.792
--------------------------------------------------
tot          0.837  12.580   6.167  19.585



 magnetization (x)

# of ion       s       p       d       tot
------------------------------------------
    1       -0.000  -0.000  -0.001  -0.001
    2       -0.000  -0.000  -0.001  -0.001
--------------------------------------------------
tot         -0.000  -0.000  -0.002  -0.003

    CHARGE:  cpu time     32.3988: real time      1.8237
    FORLOC:  cpu time      0.0005: real time      0.0005
    FORNL :  cpu time    130.0727: real time      7.2023
    STRESS:  cpu time    363.1958: real time     20.1487
    FORCOR:  cpu time      0.9389: real time      0.0831
    FORHAR:  cpu time      0.1518: real time      0.0084
    MIXING:  cpu time      0.0013: real time      0.0013
    OFIELD:  cpu time      0.0000: real time      0.0000

  FORCE on cell =-STRESS in cart. coord.  units (eV):
  Direction    XX          YY          ZZ          XY          YZ          ZX
  --------------------------------------------------------------------------------------
  Alpha Z   247.02244   247.02244   247.02244
  Ewald    -638.07086  -633.81869  -636.95753    -0.00000    -0.00000    -0.00000
  Hartree    81.31944    83.32966    81.94044    -0.00000    -0.00000    -0.00000
  E(xc)     -95.07192   -95.05917   -95.06762    -0.00000     0.00000    -0.00000
  Local     206.38241   200.16944   204.59863    -0.00000     0.00000    -0.00000
  n-local   -84.93507   -84.31368   -84.68583     0.80731     0.89086     0.61692
  augment    53.59406    53.49639    53.57516    -0.00000     0.00000     0.00000
  Kinetic   229.19527   229.62669   229.49665     0.25027     0.14903     0.38632
  Fock        0.00000     0.00000     0.00000     0.00000     0.00000     0.00000
  -------------------------------------------------------------------------------------
  Total      -0.56423     0.45309    -0.07767     0.00000    -0.00000    -0.00000
  in kB     -24.66357    19.80536    -3.39491     0.00000    -0.00000    -0.00000
  external pressure =       -2.75 kB  Pullay stress =        0.00 kB


 VOLUME and BASIS-vectors are now :
 -----------------------------------------------------------------------------
  energy-cutoff  :      520.00
  volume of cell :       36.65
      direct lattice vectors                 reciprocal lattice vectors
     3.388666806  0.000000000  0.000000000     0.295101306 -0.000000000  0.000000000
     0.000000000  3.255777912  0.000000000     0.000000000  0.307146257  0.000000000
     0.000000000  0.000000000  3.322222359    -0.000000000 -0.000000000  0.301003332

  length of vectors
     3.388666806  3.255777912  3.322222359     0.295101306  0.307146257  0.301003332


 FORCES acting on ions
    electron-ion (+dipol)            ewald-force                    non-local-force                 convergence-correction
 -----------------------------------------------------------------------------------------------
   -.312E-14 0.176E-13 -.303E-13   -.295E-14 -.416E-14 -.248E-14   -.140E-22 0.164E-21 0.215E-22   -.290E-14 0.259E-13 0.142E-13
   0.127E-12 0.152E-11 0.166E-11   0.313E-14 0.682E-14 0.214E-14   0.517E-22 -.362E-22 -.609E-23   -.970E-14 0.101E-13 -.509E-13
 -----------------------------------------------------------------------------------------------
   0.124E-12 0.153E-11 0.163E-11   0.177E-15 0.266E-14 -.340E-15   0.377E-22 0.127E-21 0.154E-22   -.126E-13 0.360E-13 -.366E-13


 POSITION                                       TOTAL-FORCE (eV/Angst)
 -----------------------------------------------------------------------------------
      0.00000      0.00000      0.00000         0.000000     -0.000000      0.000000
      1.69433      1.62789      1.66111        -0.000000      0.000000     -0.000000
 -----------------------------------------------------------------------------------
    total drift:                                0.000000      0.000000      0.000000


--------------------------------------------------------------------------------------------------------



  FREE ENERGIE OF THE ION-ELECTRON SYSTEM (eV)
  ---------------------------------------------------
  free  energy   TOTEN  =       -20.19499955 eV

  energy  without entropy=      -20.19499955  energy(sigma->0) =      -20.19499955



--------------------------------------------------------------------------------------------------------


    POTLOK:  cpu time      2.3630: real time      0.3490


--------------------------------------------------------------------------------------------------------


     LOOP+:  cpu time   5085.9204: real time    287.8056
 -----------------------------------------------------------------------------
|                                                                             |
|           W    W    AA    RRRRR   N    N  II  N    N   GGGG   !!!           |
|           W    W   A  A   R    R  NN   N  II  NN   N  G    G  !!!           |
|           W    W  A    A  R    R  N N  N  II  N N  N  G       !!!           |
|           W WW W  AAAAAA  RRRRR   N  N N  II  N  N N  G  GGG   !            |
|           WW  WW  A    A  R   R   N   NN  II  N   NN  G    G                |
|           W    W  A    A  R    R  N    N  II  N    N   GGGG   !!!           |
|                                                                             |
|     Tetrahedron method does not include variations of the Fermi             |
|     occupations, so forces and stress will be inaccurate. We suggest        |
|     using a different smearing scheme ISMEAR = 1 or 2 for metals in         |
|     relaxations.                                                            |
|                                                                             |
 -----------------------------------------------------------------------------

    4ORBIT:  cpu time      0.0000: real time      0.0000



 total charge

# of ion       s       p       d       tot
------------------------------------------
    1        0.419   6.290   3.084   9.792
    2        0.419   6.290   3.084   9.792
--------------------------------------------------
tot          0.837  12.580   6.167  19.585



 magnetization (x)

# of ion       s       p       d       tot
------------------------------------------
    1       -0.000  -0.000  -0.001  -0.001
    2       -0.000  -0.000  -0.001  -0.001
--------------------------------------------------
tot         -0.000  -0.000  -0.002  -0.003

 BZINTS: Fermi energy:    4.857194;   22.000000 electrons
         Band energy:-0.274482E+03;  BLOECHL correction:   -0.206300

 total amount of memory used by VASP MPI-rank0    87296. kBytes
=======================================================================

   base      :      30000. kBytes
   nonlr-proj:       5318. kBytes
   fftplans  :       5304. kBytes
   grid      :      12665. kBytes
   one-center:         62. kBytes
   wavefun   :      33947. kBytes

  
  
 General timing and accounting informations for this job:
 ========================================================
  
                  Total CPU time used (sec):     5128.229
                            User time (sec):     4916.284
                          System time (sec):      211.945
                         Elapsed time (sec):      291.002
  
                   Maximum memory used (kb):      326356.
                   Average memory used (kb):          N/A
  
                          Minor page faults:      6667397
                          Major page faults:          106
                 Voluntary context switches:      2447270
