   2   2   1   0
  0.2480331E+02  0.3293438E-09  0.3293438E-09  0.5280926E-09  0.5000000E-15
  1.000000000000000E-004
  CAR 
 unknown system                          
     19.58652428    -43.53435242  301      8.31596784      1.00000000
    -43.534  0.0000E+00  0.0000E+00  0.0000E+00  0.0000E+00
    -43.324  0.0000E+00  0.0000E+00  0.0000E+00  0.0000E+00
    -43.114  0.0000E+00  0.0000E+00  0.0000E+00  0.0000E+00
    -42.903  0.0000E+00  0.0000E+00  0.0000E+00  0.0000E+00
    -42.693  0.0000E+00  0.0000E+00  0.0000E+00  0.0000E+00
    -42.482  0.0000E+00  0.0000E+00  0.0000E+00  0.0000E+00
    -42.272  0.0000E+00  0.0000E+00  0.0000E+00  0.0000E+00
    -42.062  0.0000E+00  0.0000E+00  0.0000E+00  0.0000E+00
    -41.851  0.0000E+00  0.0000E+00  0.0000E+00  0.0000E+00
    -41.641  0.0000E+00  0.0000E+00  0.0000E+00  0.0000E+00
    -41.430  0.0000E+00  0.0000E+00  0.0000E+00  0.0000E+00
    -41.220  0.6371E-05  0.6356E-05  0.1340E-05  0.1337E-05
    -41.010  0.1454E-02  0.1451E-02  0.3073E-03  0.3066E-03
    -40.799  0.9497E-01  0.9475E-01  0.2029E-01  0.2024E-01
    -40.589  0.3338E+01  0.3334E+01  0.7227E+00  0.7216E+00
    -40.378  0.5781E+01  0.5786E+01  0.1939E+01  0.1939E+01
    -40.168  0.2472E+00  0.2502E+00  0.1999E+01  0.1999E+01
    -39.958  0.0000E+00  0.0000E+00  0.2000E+01  0.2000E+01
    -39.747  0.0000E+00  0.0000E+00  0.2000E+01  0.2000E+01
    -39.537  0.0000E+00  0.0000E+00  0.2000E+01  0.2000E+01
    -39.326  0.0000E+00  0.0000E+00  0.2000E+01  0.2000E+01
    -39.116  0.0000E+00  0.0000E+00  0.2000E+01  0.2000E+01
    -38.905  0.0000E+00  0.0000E+00  0.2000E+01  0.2000E+01
    -38.695  0.0000E+00  0.0000E+00  0.2000E+01  0.2000E+01
    -38.485  0.0000E+00  0.0000E+00  0.2000E+01  0.2000E+01
    -38.274  0.0000E+00  0.0000E+00  0.2000E+01  0.2000E+01
    -38.064  0.0000E+00  0.0000E+00  0.2000E+01  0.2000E+01
    -37.853  0.0000E+00  0.0000E+00  0.2000E+01  0.2000E+01
    -37.643  0.0000E+00  0.0000E+00  0.2000E+01  0.2000E+01
    -37.433  0.0000E+00  0.0000E+00  0.2000E+01  0.2000E+01
    -37.222  0.0000E+00  0.0000E+00  0.2000E+01  0.2000E+01
    -37.012  0.0000E+00  0.0000E+00  0.2000E+01  0.2000E+01
    -36.801  0.0000E+00  0.0000E+00  0.2000E+01  0.2000E+01
    -36.591  0.0000E+00  0.0000E+00  0.2000E+01  0.2000E+01
    -36.381  0.0000E+00  0.0000E+00  0.2000E+01  0.2000E+01
    -36.170  0.0000E+00  0.0000E+00  0.2000E+01  0.2000E+01
    -35.960  0.0000E+00  0.0000E+00  0.2000E+01  0.2000E+01
    -35.749  0.0000E+00  0.0000E+00  0.2000E+01  0.2000E+01
    -35.539  0.0000E+00  0.0000E+00  0.2000E+01  0.2000E+01
    -35.329  0.0000E+00  0.0000E+00  0.2000E+01  0.2000E+01
    -35.118  0.0000E+00  0.0000E+00  0.2000E+01  0.2000E+01
    -34.908  0.0000E+00  0.0000E+00  0.2000E+01  0.2000E+01
    -34.697  0.0000E+00  0.0000E+00  0.2000E+01  0.2000E+01
    -34.487  0.0000E+00  0.0000E+00  0.2000E+01  0.2000E+01
    -34.277  0.0000E+00  0.0000E+00  0.2000E+01  0.2000E+01
    -34.066  0.0000E+00  0.0000E+00  0.2000E+01  0.2000E+01
    -33.856  0.0000E+00  0.0000E+00  0.2000E+01  0.2000E+01
    -33.645  0.0000E+00  0.0000E+00  0.2000E+01  0.2000E+01
    -33.435  0.0000E+00  0.0000E+00  0.2000E+01  0.2000E+01
    -33.225  0.0000E+00  0.0000E+00  0.2000E+01  0.2000E+01
    -33.014  0.0000E+00  0.0000E+00  0.2000E+01  0.2000E+01
    -32.804  0.0000E+00  0.0000E+00  0.2000E+01  0.2000E+01
    -32.593  0.0000E+00  0.0000E+00  0.2000E+01  0.2000E+01
    -32.383  0.0000E+00  0.0000E+00  0.2000E+01  0.2000E+01
    -32.173  0.0000E+00  0.0000E+00  0.2000E+01  0.2000E+01
    -31.962  0.0000E+00  0.0000E+00  0.2000E+01  0.2000E+01
    -31.752  0.0000E+00  0.0000E+00  0.2000E+01  0.2000E+01
    -31.541  0.0000E+00  0.0000E+00  0.2000E+01  0.2000E+01
    -31.331  0.0000E+00  0.0000E+00  0.2000E+01  0.2000E+01
    -31.121  0.0000E+00  0.0000E+00  0.2000E+01  0.2000E+01
    -30.910  0.0000E+00  0.0000E+00  0.2000E+01  0.2000E+01
    -30.700  0.0000E+00  0.0000E+00  0.2000E+01  0.2000E+01
    -30.489  0.0000E+00  0.0000E+00  0.2000E+01  0.2000E+01
    -30.279  0.0000E+00  0.0000E+00  0.2000E+01  0.2000E+01
    -30.069  0.0000E+00  0.0000E+00  0.2000E+01  0.2000E+01
    -29.858  0.0000E+00  0.0000E+00  0.2000E+01  0.2000E+01
    -29.648  0.0000E+00  0.0000E+00  0.2000E+01  0.2000E+01
    -29.437  0.0000E+00  0.0000E+00  0.2000E+01  0.2000E+01
    -29.227  0.0000E+00  0.0000E+00  0.2000E+01  0.2000E+01
    -29.017  0.0000E+00  0.0000E+00  0.2000E+01  0.2000E+01
    -28.806  0.0000E+00  0.0000E+00  0.2000E+01  0.2000E+01
    -28.596  0.0000E+00  0.0000E+00  0.2000E+01  0.2000E+01
    -28.385  0.0000E+00  0.0000E+00  0.2000E+01  0.2000E+01
    -28.175  0.0000E+00  0.0000E+00  0.2000E+01  0.2000E+01
    -27.965  0.0000E+00  0.0000E+00  0.2000E+01  0.2000E+01
    -27.754  0.0000E+00  0.0000E+00  0.2000E+01  0.2000E+01
    -27.544  0.0000E+00  0.0000E+00  0.2000E+01  0.2000E+01
    -27.333  0.0000E+00  0.0000E+00  0.2000E+01  0.2000E+01
    -27.123  0.0000E+00  0.0000E+00  0.2000E+01  0.2000E+01
    -26.913  0.0000E+00  0.0000E+00  0.2000E+01  0.2000E+01
    -26.702  0.0000E+00  0.0000E+00  0.2000E+01  0.2000E+01
    -26.492  0.0000E+00  0.0000E+00  0.2000E+01  0.2000E+01
    -26.281  0.0000E+00  0.0000E+00  0.2000E+01  0.2000E+01
    -26.071  0.0000E+00  0.0000E+00  0.2000E+01  0.2000E+01
    -25.861  0.0000E+00  0.0000E+00  0.2000E+01  0.2000E+01
    -25.650  0.0000E+00  0.0000E+00  0.2000E+01  0.2000E+01
    -25.440  0.0000E+00  0.0000E+00  0.2000E+01  0.2000E+01
    -25.229  0.0000E+00  0.0000E+00  0.2000E+01  0.2000E+01
    -25.019  0.0000E+00  0.0000E+00  0.2000E+01  0.2000E+01
    -24.808  0.0000E+00  0.0000E+00  0.2000E+01  0.2000E+01
    -24.598  0.0000E+00  0.0000E+00  0.2000E+01  0.2000E+01
    -24.388  0.0000E+00  0.0000E+00  0.2000E+01  0.2000E+01
    -24.177  0.0000E+00  0.0000E+00  0.2000E+01  0.2000E+01
    -23.967  0.0000E+00  0.0000E+00  0.2000E+01  0.2000E+01
    -23.756  0.0000E+00  0.0000E+00  0.2000E+01  0.2000E+01
    -23.546  0.0000E+00  0.0000E+00  0.2000E+01  0.2000E+01
    -23.336  0.0000E+00  0.0000E+00  0.2000E+01  0.2000E+01
    -23.125  0.0000E+00  0.0000E+00  0.2000E+01  0.2000E+01
    -22.915  0.0000E+00  0.0000E+00  0.2000E+01  0.2000E+01
    -22.704  0.0000E+00  0.0000E+00  0.2000E+01  0.2000E+01
    -22.494  0.0000E+00  0.0000E+00  0.2000E+01  0.2000E+01
    -22.284  0.0000E+00  0.0000E+00  0.2000E+01  0.2000E+01
    -22.073  0.0000E+00  0.0000E+00  0.2000E+01  0.2000E+01
    -21.863  0.0000E+00  0.0000E+00  0.2000E+01  0.2000E+01
    -21.652  0.0000E+00  0.0000E+00  0.2000E+01  0.2000E+01
    -21.442  0.0000E+00  0.0000E+00  0.2000E+01  0.2000E+01
    -21.232  0.0000E+00  0.0000E+00  0.2000E+01  0.2000E+01
    -21.021  0.0000E+00  0.0000E+00  0.2000E+01  0.2000E+01
    -20.811  0.0000E+00  0.0000E+00  0.2000E+01  0.2000E+01
    -20.600  0.0000E+00  0.0000E+00  0.2000E+01  0.2000E+01
    -20.390  0.0000E+00  0.0000E+00  0.2000E+01  0.2000E+01
    -20.180  0.0000E+00  0.0000E+00  0.2000E+01  0.2000E+01
    -19.969  0.0000E+00  0.0000E+00  0.2000E+01  0.2000E+01
    -19.759  0.0000E+00  0.0000E+00  0.2000E+01  0.2000E+01
    -19.548  0.1695E-04  0.1695E-04  0.2000E+01  0.2000E+01
    -19.338  0.1737E-02  0.1737E-02  0.2000E+01  0.2000E+01
    -19.128  0.1104E+00  0.1103E+00  0.2024E+01  0.2024E+01
    -18.917  0.2687E+01  0.2687E+01  0.2589E+01  0.2589E+01
    -18.707  0.6002E+01  0.6002E+01  0.3852E+01  0.3852E+01
    -18.496  0.7568E+01  0.7567E+01  0.5452E+01  0.5451E+01
    -18.286  0.1019E+02  0.1019E+02  0.7601E+01  0.7601E+01
    -18.076  0.1801E+01  0.1801E+01  0.7992E+01  0.7992E+01
    -17.865  0.2198E-02  0.2199E-02  0.8000E+01  0.8000E+01
    -17.655  0.0000E+00  0.0000E+00  0.8000E+01  0.8000E+01
    -17.444  0.0000E+00  0.0000E+00  0.8000E+01  0.8000E+01
    -17.234  0.0000E+00  0.0000E+00  0.8000E+01  0.8000E+01
    -17.024  0.0000E+00  0.0000E+00  0.8000E+01  0.8000E+01
    -16.813  0.0000E+00  0.0000E+00  0.8000E+01  0.8000E+01
    -16.603  0.0000E+00  0.0000E+00  0.8000E+01  0.8000E+01
    -16.392  0.0000E+00  0.0000E+00  0.8000E+01  0.8000E+01
    -16.182  0.0000E+00  0.0000E+00  0.8000E+01  0.8000E+01
    -15.972  0.0000E+00  0.0000E+00  0.8000E+01  0.8000E+01
    -15.761  0.0000E+00  0.0000E+00  0.8000E+01  0.8000E+01
    -15.551  0.0000E+00  0.0000E+00  0.8000E+01  0.8000E+01
    -15.340  0.0000E+00  0.0000E+00  0.8000E+01  0.8000E+01
    -15.130  0.0000E+00  0.0000E+00  0.8000E+01  0.8000E+01
    -14.920  0.0000E+00  0.0000E+00  0.8000E+01  0.8000E+01
    -14.709  0.0000E+00  0.0000E+00  0.8000E+01  0.8000E+01
    -14.499  0.0000E+00  0.0000E+00  0.8000E+01  0.8000E+01
    -14.288  0.0000E+00  0.0000E+00  0.8000E+01  0.8000E+01
    -14.078  0.0000E+00  0.0000E+00  0.8000E+01  0.8000E+01
    -13.868  0.0000E+00  0.0000E+00  0.8000E+01  0.8000E+01
    -13.657  0.0000E+00  0.0000E+00  0.8000E+01  0.8000E+01
    -13.447  0.0000E+00  0.0000E+00  0.8000E+01  0.8000E+01
    -13.236  0.0000E+00  0.0000E+00  0.8000E+01  0.8000E+01
    -13.026  0.0000E+00  0.0000E+00  0.8000E+01  0.8000E+01
    -12.816  0.0000E+00  0.0000E+00  0.8000E+01  0.8000E+01
    -12.605  0.0000E+00  0.0000E+00  0.8000E+01  0.8000E+01
    -12.395  0.0000E+00  0.0000E+00  0.8000E+01  0.8000E+01
    -12.184  0.0000E+00  0.0000E+00  0.8000E+01  0.8000E+01
    -11.974  0.0000E+00  0.0000E+00  0.8000E+01  0.8000E+01
    -11.764  0.0000E+00  0.0000E+00  0.8000E+01  0.8000E+01
    -11.553  0.0000E+00  0.0000E+00  0.8000E+01  0.8000E+01
    -11.343  0.0000E+00  0.0000E+00  0.8000E+01  0.8000E+01
    -11.132  0.0000E+00  0.0000E+00  0.8000E+01  0.8000E+01
    -10.922  0.0000E+00  0.0000E+00  0.8000E+01  0.8000E+01
    -10.711  0.0000E+00  0.0000E+00  0.8000E+01  0.8000E+01
    -10.501  0.0000E+00  0.0000E+00  0.8000E+01  0.8000E+01
    -10.291  0.0000E+00  0.0000E+00  0.8000E+01  0.8000E+01
    -10.080  0.0000E+00  0.0000E+00  0.8000E+01  0.8000E+01
     -9.870  0.0000E+00  0.0000E+00  0.8000E+01  0.8000E+01
     -9.659  0.0000E+00  0.0000E+00  0.8000E+01  0.8000E+01
     -9.449  0.0000E+00  0.0000E+00  0.8000E+01  0.8000E+01
     -9.239  0.0000E+00  0.0000E+00  0.8000E+01  0.8000E+01
     -9.028  0.0000E+00  0.0000E+00  0.8000E+01  0.8000E+01
     -8.818  0.0000E+00  0.0000E+00  0.8000E+01  0.8000E+01
     -8.607  0.0000E+00  0.0000E+00  0.8000E+01  0.8000E+01
     -8.397  0.0000E+00  0.0000E+00  0.8000E+01  0.8000E+01
     -8.187  0.0000E+00  0.0000E+00  0.8000E+01  0.8000E+01
     -7.976  0.0000E+00  0.0000E+00  0.8000E+01  0.8000E+01
     -7.766  0.0000E+00  0.0000E+00  0.8000E+01  0.8000E+01
     -7.555  0.0000E+00  0.0000E+00  0.8000E+01  0.8000E+01
     -7.345  0.0000E+00  0.0000E+00  0.8000E+01  0.8000E+01
     -7.135  0.0000E+00  0.0000E+00  0.8000E+01  0.8000E+01
     -6.924  0.0000E+00  0.0000E+00  0.8000E+01  0.8000E+01
     -6.714  0.0000E+00  0.0000E+00  0.8000E+01  0.8000E+01
     -6.503  0.0000E+00  0.0000E+00  0.8000E+01  0.8000E+01
     -6.293  0.0000E+00  0.0000E+00  0.8000E+01  0.8000E+01
     -6.083  0.0000E+00  0.0000E+00  0.8000E+01  0.8000E+01
     -5.872  0.0000E+00  0.0000E+00  0.8000E+01  0.8000E+01
     -5.662  0.0000E+00  0.0000E+00  0.8000E+01  0.8000E+01
     -5.451  0.0000E+00  0.0000E+00  0.8000E+01  0.8000E+01
     -5.241  0.0000E+00  0.0000E+00  0.8000E+01  0.8000E+01
     -5.031  0.0000E+00  0.0000E+00  0.8000E+01  0.8000E+01
     -4.820  0.0000E+00  0.0000E+00  0.8000E+01  0.8000E+01
     -4.610  0.0000E+00  0.0000E+00  0.8000E+01  0.8000E+01
     -4.399  0.0000E+00  0.0000E+00  0.8000E+01  0.8000E+01
     -4.189  0.0000E+00  0.0000E+00  0.8000E+01  0.8000E+01
     -3.979  0.0000E+00  0.0000E+00  0.8000E+01  0.8000E+01
     -3.768  0.0000E+00  0.0000E+00  0.8000E+01  0.8000E+01
     -3.558  0.0000E+00  0.0000E+00  0.8000E+01  0.8000E+01
     -3.347  0.0000E+00  0.0000E+00  0.8000E+01  0.8000E+01
     -3.137  0.0000E+00  0.0000E+00  0.8000E+01  0.8000E+01
     -2.927  0.0000E+00  0.0000E+00  0.8000E+01  0.8000E+01
     -2.716  0.0000E+00  0.0000E+00  0.8000E+01  0.8000E+01
     -2.506  0.0000E+00  0.0000E+00  0.8000E+01  0.8000E+01
     -2.295  0.0000E+00  0.0000E+00  0.8000E+01  0.8000E+01
     -2.085  0.0000E+00  0.0000E+00  0.8000E+01  0.8000E+01
     -1.875  0.0000E+00  0.0000E+00  0.8000E+01  0.8000E+01
     -1.664  0.0000E+00  0.0000E+00  0.8000E+01  0.8000E+01
     -1.454  0.0000E+00  0.0000E+00  0.8000E+01  0.8000E+01
     -1.243  0.0000E+00  0.0000E+00  0.8000E+01  0.8000E+01
     -1.033  0.0000E+00  0.0000E+00  0.8000E+01  0.8000E+01
     -0.823  0.0000E+00  0.0000E+00  0.8000E+01  0.8000E+01
     -0.612  0.0000E+00  0.0000E+00  0.8000E+01  0.8000E+01
     -0.402  0.0000E+00  0.0000E+00  0.8000E+01  0.8000E+01
     -0.191  0.0000E+00  0.0000E+00  0.8000E+01  0.8000E+01
      0.019  0.0000E+00  0.0000E+00  0.8000E+01  0.8000E+01
      0.229  0.0000E+00  0.0000E+00  0.8000E+01  0.8000E+01
      0.440  0.0000E+00  0.0000E+00  0.8000E+01  0.8000E+01
      0.650  0.0000E+00  0.0000E+00  0.8000E+01  0.8000E+01
      0.861  0.0000E+00  0.0000E+00  0.8000E+01  0.8000E+01
      1.071  0.0000E+00  0.0000E+00  0.8000E+01  0.8000E+01
      1.281  0.0000E+00  0.0000E+00  0.8000E+01  0.8000E+01
      1.492  0.0000E+00  0.0000E+00  0.8000E+01  0.8000E+01
      1.702  0.0000E+00  0.0000E+00  0.8000E+01  0.8000E+01
      1.913  0.0000E+00  0.0000E+00  0.8000E+01  0.8000E+01
      2.123  0.0000E+00  0.0000E+00  0.8000E+01  0.8000E+01
      2.333  0.7809E-06  0.7844E-06  0.8000E+01  0.8000E+01
      2.544  0.5416E-04  0.5440E-04  0.8000E+01  0.8000E+01
      2.754  0.2637E-02  0.2645E-02  0.8001E+01  0.8001E+01
      2.965  0.2846E-01  0.2851E-01  0.8007E+01  0.8007E+01
      3.175  0.4771E-01  0.4772E-01  0.8017E+01  0.8017E+01
      3.385  0.9269E-01  0.9273E-01  0.8036E+01  0.8036E+01
      3.596  0.8145E-01  0.8144E-01  0.8053E+01  0.8053E+01
      3.806  0.1195E+00  0.1195E+00  0.8079E+01  0.8079E+01
      4.017  0.1338E+00  0.1338E+00  0.8107E+01  0.8107E+01
      4.227  0.1686E+00  0.1686E+00  0.8142E+01  0.8142E+01
      4.438  0.1351E+00  0.1352E+00  0.8171E+01  0.8171E+01
      4.648  0.2676E+00  0.2676E+00  0.8227E+01  0.8227E+01
      4.858  0.2270E+00  0.2270E+00  0.8275E+01  0.8275E+01
      5.069  0.2661E+00  0.2662E+00  0.8332E+01  0.8332E+01
      5.279  0.4100E+00  0.4102E+00  0.8418E+01  0.8418E+01
      5.490  0.7003E+00  0.7006E+00  0.8566E+01  0.8566E+01
      5.700  0.8476E+00  0.8476E+00  0.8745E+01  0.8745E+01
      5.910  0.1137E+01  0.1137E+01  0.8985E+01  0.8985E+01
      6.121  0.1025E+01  0.1026E+01  0.9201E+01  0.9201E+01
      6.331  0.1304E+01  0.1305E+01  0.9477E+01  0.9477E+01
      6.542  0.1361E+01  0.1361E+01  0.9765E+01  0.9765E+01
      6.752  0.1223E+01  0.1222E+01  0.1002E+02  0.1002E+02
      6.962  0.1052E+01  0.1052E+01  0.1025E+02  0.1025E+02
      7.173  0.1220E+01  0.1221E+01  0.1050E+02  0.1050E+02
      7.383  0.1440E+01  0.1440E+01  0.1081E+02  0.1081E+02
      7.594  0.1705E+01  0.1705E+01  0.1117E+02  0.1117E+02
      7.804  0.1831E+01  0.1831E+01  0.1155E+02  0.1156E+02
      8.014  0.1038E+01  0.1038E+01  0.1177E+02  0.1177E+02
      8.225  0.6956E+00  0.6955E+00  0.1192E+02  0.1192E+02
      8.435  0.1148E+01  0.1149E+01  0.1217E+02  0.1217E+02
      8.646  0.1909E+01  0.1909E+01  0.1257E+02  0.1257E+02
      8.856  0.1807E+01  0.1807E+01  0.1295E+02  0.1295E+02
      9.066  0.1862E+01  0.1862E+01  0.1334E+02  0.1334E+02
      9.277  0.1918E+01  0.1918E+01  0.1375E+02  0.1375E+02
      9.487  0.2051E+01  0.2051E+01  0.1418E+02  0.1418E+02
      9.698  0.1938E+01  0.1937E+01  0.1459E+02  0.1459E+02
      9.908  0.1395E+01  0.1395E+01  0.1489E+02  0.1489E+02
     10.118  0.9878E+00  0.9872E+00  0.1510E+02  0.1510E+02
     10.329  0.8549E+00  0.8549E+00  0.1528E+02  0.1528E+02
     10.539  0.8394E+00  0.8392E+00  0.1546E+02  0.1546E+02
     10.750  0.7390E+00  0.7391E+00  0.1562E+02  0.1562E+02
     10.960  0.8811E+00  0.8811E+00  0.1580E+02  0.1580E+02
     11.170  0.6434E+00  0.6434E+00  0.1594E+02  0.1594E+02
     11.381  0.8822E+00  0.8823E+00  0.1612E+02  0.1613E+02
     11.591  0.8840E+00  0.8839E+00  0.1631E+02  0.1631E+02
     11.802  0.8334E+00  0.8334E+00  0.1649E+02  0.1649E+02
     12.012  0.1064E+01  0.1065E+01  0.1671E+02  0.1671E+02
     12.222  0.1437E+01  0.1437E+01  0.1702E+02  0.1702E+02
     12.433  0.1703E+01  0.1703E+01  0.1738E+02  0.1738E+02
     12.643  0.1728E+01  0.1727E+01  0.1774E+02  0.1774E+02
     12.854  0.2046E+01  0.2047E+01  0.1817E+02  0.1817E+02
     13.064  0.1868E+01  0.1868E+01  0.1857E+02  0.1857E+02
     13.274  0.1071E+01  0.1070E+01  0.1880E+02  0.1880E+02
     13.485  0.6826E+00  0.6827E+00  0.1894E+02  0.1894E+02
     13.695  0.6798E+00  0.6793E+00  0.1909E+02  0.1909E+02
     13.906  0.4482E+00  0.4485E+00  0.1918E+02  0.1918E+02
     14.116  0.4870E+00  0.4861E+00  0.1928E+02  0.1928E+02
     14.326  0.5122E+00  0.5103E+00  0.1939E+02  0.1939E+02
     14.537  0.5682E+00  0.5701E+00  0.1951E+02  0.1951E+02
     14.747  0.6254E+00  0.6255E+00  0.1965E+02  0.1964E+02
     14.958  0.4427E+00  0.4325E+00  0.1974E+02  0.1974E+02
     15.168  0.4261E+00  0.4338E+00  0.1983E+02  0.1983E+02
     15.378  0.1841E+00  0.1862E+00  0.1987E+02  0.1987E+02
     15.589  0.1547E+00  0.1561E+00  0.1990E+02  0.1990E+02
     15.799  0.2015E+00  0.1999E+00  0.1994E+02  0.1994E+02
     16.010  0.9432E-01  0.9377E-01  0.1996E+02  0.1996E+02
     16.220  0.6601E-01  0.5768E-01  0.1998E+02  0.1998E+02
     16.430  0.5922E-01  0.6662E-01  0.1999E+02  0.1999E+02
     16.641  0.3585E-01  0.1459E-01  0.2000E+02  0.1999E+02
     16.851  0.7121E-02  0.2841E-01  0.2000E+02  0.2000E+02
     17.062  0.0000E+00  0.2373E-02  0.2000E+02  0.2000E+02
     17.272  0.0000E+00  0.0000E+00  0.2000E+02  0.2000E+02
     17.482  0.0000E+00  0.0000E+00  0.2000E+02  0.2000E+02
     17.693  0.0000E+00  0.0000E+00  0.2000E+02  0.2000E+02
     17.903  0.0000E+00  0.0000E+00  0.2000E+02  0.2000E+02
     18.114  0.0000E+00  0.0000E+00  0.2000E+02  0.2000E+02
     18.324  0.0000E+00  0.0000E+00  0.2000E+02  0.2000E+02
     18.535  0.0000E+00  0.0000E+00  0.2000E+02  0.2000E+02
     18.745  0.0000E+00  0.0000E+00  0.2000E+02  0.2000E+02
     18.955  0.0000E+00  0.0000E+00  0.2000E+02  0.2000E+02
     19.166  0.0000E+00  0.0000E+00  0.2000E+02  0.2000E+02
     19.376  0.0000E+00  0.0000E+00  0.2000E+02  0.2000E+02
     19.587  0.0000E+00  0.0000E+00  0.2000E+02  0.2000E+02
     19.58652428    -43.53435242  301      8.31596784      1.00000000
    -43.534  0.0000E+00  0.0000E+00  0.0000E+00  0.0000E+00  0.0000E+00  0.0000E+00  0.0000E+00  0.0000E+00  0.0000E+00  0.0000E+00  0.0000E+00  0.0000E+00  0.0000E+00  0.0000E+00  0.0000E+00  0.0000E+00  0.0000E+00  0.0000E+00
    -43.324  0.0000E+00  0.0000E+00  0.0000E+00  0.0000E+00  0.0000E+00  0.0000E+00  0.0000E+00  0.0000E+00  0.0000E+00  0.0000E+00  0.0000E+00  0.0000E+00  0.0000E+00  0.0000E+00  0.0000E+00  0.0000E+00  0.0000E+00  0.0000E+00
    -43.114  0.0000E+00  0.0000E+00  0.0000E+00  0.0000E+00  0.0000E+00  0.0000E+00  0.0000E+00  0.0000E+00  0.0000E+00  0.0000E+00  0.0000E+00  0.0000E+00  0.0000E+00  0.0000E+00  0.0000E+00  0.0000E+00  0.0000E+00  0.0000E+00
    -42.903  0.0000E+00  0.0000E+00  0.0000E+00  0.0000E+00  0.0000E+00  0.0000E+00  0.0000E+00  0.0000E+00  0.0000E+00  0.0000E+00  0.0000E+00  0.0000E+00  0.0000E+00  0.0000E+00  0.0000E+00  0.0000E+00  0.0000E+00  0.0000E+00
    -42.693  0.0000E+00  0.0000E+00  0.0000E+00  0.0000E+00  0.0000E+00  0.0000E+00  0.0000E+00  0.0000E+00  0.0000E+00  0.0000E+00  0.0000E+00  0.0000E+00  0.0000E+00  0.0000E+00  0.0000E+00  0.0000E+00  0.0000E+00  0.0000E+00
    -42.482  0.0000E+00  0.0000E+00  0.0000E+00  0.0000E+00  0.0000E+00  0.0000E+00  0.0000E+00  0.0000E+00  0.0000E+00  0.0000E+00  0.0000E+00  0.0000E+00  0.0000E+00  0.0000E+00  0.0000E+00  0.0000E+00  0.0000E+00  0.0000E+00
    -42.272  0.0000E+00  0.0000E+00  0.0000E+00  0.0000E+00  0.0000E+00  0.0000E+00  0.0000E+00  0.0000E+00  0.0000E+00  0.0000E+00  0.0000E+00  0.0000E+00  0.0000E+00  0.0000E+00  0.0000E+00  0.0000E+00  0.0000E+00  0.0000E+00
    -42.062  0.0000E+00  0.0000E+00  0.0000E+00  0.0000E+00  0.0000E+00  0.0000E+00  0.0000E+00  0.0000E+00  0.0000E+00  0.0000E+00  0.0000E+00  0.0000E+00  0.0000E+00  0.0000E+00  0.0000E+00  0.0000E+00  0.0000E+00  0.0000E+00
    -41.851  0.0000E+00  0.0000E+00  0.0000E+00  0.0000E+00  0.0000E+00  0.0000E+00  0.0000E+00  0.0000E+00  0.0000E+00  0.0000E+00  0.0000E+00  0.0000E+00  0.0000E+00  0.0000E+00  0.0000E+00  0.0000E+00  0.0000E+00  0.0000E+00
    -41.641  0.0000E+00  0.0000E+00  0.0000E+00  0.0000E+00  0.0000E+00  0.0000E+00  0.0000E+00  0.0000E+00  0.0000E+00  0.0000E+00  0.0000E+00  0.0000E+00  0.0000E+00  0.0000E+00  0.0000E+00  0.0000E+00  0.0000E+00  0.0000E+00
    -41.430  0.0000E+00  0.0000E+00  0.0000E+00  0.0000E+00  0.0000E+00  0.0000E+00  0.0000E+00  0.0000E+00  0.0000E+00  0.0000E+00  0.0000E+00  0.0000E+00  0.0000E+00  0.0000E+00  0.0000E+00  0.0000E+00  0.0000E+00  0.0000E+00
    -41.220  0.3154E-05  0.3146E-05  0.1429E-10  0.1427E-10  0.1602E-10  0.1598E-10  0.1429E-10  0.1427E-10  0.1121E-11  0.1121E-11  0.6410E-12  0.6397E-12  0.2981E-11  0.2977E-11  0.6410E-12  0.6397E-12  0.1121E-11  0.1121E-11
    -41.010  0.7213E-03  0.7196E-03  0.2811E-08  0.2806E-08  0.3295E-08  0.3288E-08  0.2811E-08  0.2806E-08  0.8903E-09  0.8891E-09  0.8053E-09  0.8041E-09  0.1431E-08  0.1428E-08  0.8053E-09  0.8041E-09  0.8903E-09  0.8891E-09
    -40.799  0.4711E-01  0.4700E-01  0.1834E-06  0.1831E-06  0.2150E-06  0.2145E-06  0.1834E-06  0.1831E-06  0.5835E-07  0.5828E-07  0.5285E-07  0.5278E-07  0.9373E-07  0.9356E-07  0.5285E-07  0.5278E-07  0.5835E-07  0.5828E-07
    -40.589  0.1657E+01  0.1654E+01  0.5768E-05  0.5765E-05  0.6901E-05  0.6894E-05  0.5768E-05  0.5765E-05  0.2333E-05  0.2332E-05  0.2245E-05  0.2244E-05  0.3645E-05  0.3641E-05  0.2245E-05  0.2244E-05  0.2333E-05  0.2332E-05
    -40.378  0.2871E+01  0.2873E+01  0.7129E-05  0.7140E-05  0.8867E-05  0.8875E-05  0.7129E-05  0.7140E-05  0.4217E-05  0.4225E-05  0.4610E-05  0.4618E-05  0.6480E-05  0.6489E-05  0.4610E-05  0.4618E-05  0.4217E-05  0.4225E-05
    -40.168  0.1228E+00  0.1243E+00  0.1790E-06  0.1854E-06  0.2366E-06  0.2425E-06  0.1790E-06  0.1854E-06  0.1715E-06  0.1745E-06  0.2131E-06  0.2145E-06  0.2593E-06  0.2655E-06  0.2131E-06  0.2145E-06  0.1715E-06  0.1745E-06
    -39.958  0.0000E+00  0.0000E+00  0.0000E+00  0.0000E+00  0.0000E+00  0.0000E+00  0.0000E+00  0.0000E+00  0.0000E+00  0.0000E+00  0.0000E+00  0.0000E+00  0.0000E+00  0.0000E+00  0.0000E+00  0.0000E+00  0.0000E+00  0.0000E+00
    -39.747  0.0000E+00  0.0000E+00  0.0000E+00  0.0000E+00  0.0000E+00  0.0000E+00  0.0000E+00  0.0000E+00  0.0000E+00  0.0000E+00  0.0000E+00  0.0000E+00  0.0000E+00  0.0000E+00  0.0000E+00  0.0000E+00  0.0000E+00  0.0000E+00
    -39.537  0.0000E+00  0.0000E+00  0.0000E+00  0.0000E+00  0.0000E+00  0.0000E+00  0.0000E+00  0.0000E+00  0.0000E+00  0.0000E+00  0.0000E+00  0.0000E+00  0.0000E+00  0.0000E+00  0.0000E+00  0.0000E+00  0.0000E+00  0.0000E+00
    -39.326  0.0000E+00  0.0000E+00  0.0000E+00  0.0000E+00  0.0000E+00  0.0000E+00  0.0000E+00  0.0000E+00  0.0000E+00  0.0000E+00  0.0000E+00  0.0000E+00  0.0000E+00  0.0000E+00  0.0000E+00  0.0000E+00  0.0000E+00  0.0000E+00
    -39.116  0.0000E+00  0.0000E+00  0.0000E+00  0.0000E+00  0.0000E+00  0.0000E+00  0.0000E+00  0.0000E+00  0.0000E+00  0.0000E+00  0.0000E+00  0.0000E+00  0.0000E+00  0.0000E+00  0.0000E+00  0.0000E+00  0.0000E+00  0.0000E+00
    -38.905  0.0000E+00  0.0000E+00  0.0000E+00  0.0000E+00  0.0000E+00  0.0000E+00  0.0000E+00  0.0000E+00  0.0000E+00  0.0000E+00  0.0000E+00  0.0000E+00  0.0000E+00  0.0000E+00  0.0000E+00  0.0000E+00  0.0000E+00  0.0000E+00
    -38.695  0.0000E+00  0.0000E+00  0.0000E+00  0.0000E+00  0.0000E+00  0.0000E+00  0.0000E+00  0.0000E+00  0.0000E+00  0.0000E+00  0.0000E+00  0.0000E+00  0.0000E+00  0.0000E+00  0.0000E+00  0.0000E+00  0.0000E+00  0.0000E+00
    -38.485  0.0000E+00  0.0000E+00  0.0000E+00  0.0000E+00  0.0000E+00  0.0000E+00  0.0000E+00  0.0000E+00  0.0000E+00  0.0000E+00  0.0000E+00  0.0000E+00  0.0000E+00  0.0000E+00  0.0000E+00  0.0000E+00  0.0000E+00  0.0000E+00
    -38.274  0.0000E+00  0.0000E+00  0.0000E+00  0.0000E+00  0.0000E+00  0.0000E+00  0.0000E+00  0.0000E+00  0.0000E+00  0.0000E+00  0.0000E+00  0.0000E+00  0.0000E+00  0.0000E+00  0.0000E+00  0.0000E+00  0.0000E+00  0.0000E+00
    -38.064  0.0000E+00  0.0000E+00  0.0000E+00  0.0000E+00  0.0000E+00  0.0000E+00  0.0000E+00  0.0000E+00  0.0000E+00  0.0000E+00  0.0000E+00  0.0000E+00  0.0000E+00  0.0000E+00  0.0000E+00  0.0000E+00  0.0000E+00  0.0000E+00
    -37.853  0.0000E+00  0.0000E+00  0.0000E+00  0.0000E+00  0.0000E+00  0.0000E+00  0.0000E+00  0.0000E+00  0.0000E+00  0.0000E+00  0.0000E+00  0.0000E+00  0.0000E+00  0.0000E+00  0.0000E+00  0.0000E+00  0.0000E+00  0.0000E+00
    -37.643  0.0000E+00  0.0000E+00  0.0000E+00  0.0000E+00  0.0000E+00  0.0000E+00  0.0000E+00  0.0000E+00  0.0000E+00  0.0000E+00  0.0000E+00  0.0000E+00  0.0000E+00  0.0000E+00  0.0000E+00  0.0000E+00  0.0000E+00  0.0000E+00
    -37.433  0.0000E+00  0.0000E+00  0.0000E+00  0.0000E+00  0.0000E+00  0.0000E+00  0.0000E+00  0.0000E+00  0.0000E+00  0.0000E+00  0.0000E+00  0.0000E+00  0.0000E+00  0.0000E+00  0.0000E+00  0.0000E+00  0.0000E+00  0.0000E+00
    -37.222  0.0000E+00  0.0000E+00  0.0000E+00  0.0000E+00  0.0000E+00  0.0000E+00  0.0000E+00  0.0000E+00  0.0000E+00  0.0000E+00  0.0000E+00  0.0000E+00  0.0000E+00  0.0000E+00  0.0000E+00  0.0000E+00  0.0000E+00  0.0000E+00
    -37.012  0.0000E+00  0.0000E+00  0.0000E+00  0.0000E+00  0.0000E+00  0.0000E+00  0.0000E+00  0.0000E+00  0.0000E+00  0.0000E+00  0.0000E+00  0.0000E+00  0.0000E+00  0.0000E+00  0.0000E+00  0.0000E+00  0.0000E+00  0.0000E+00
    -36.801  0.0000E+00  0.0000E+00  0.0000E+00  0.0000E+00  0.0000E+00  0.0000E+00  0.0000E+00  0.0000E+00  0.0000E+00  0.0000E+00  0.0000E+00  0.0000E+00  0.0000E+00  0.0000E+00  0.0000E+00  0.0000E+00  0.0000E+00  0.0000E+00
    -36.591  0.0000E+00  0.0000E+00  0.0000E+00  0.0000E+00  0.0000E+00  0.0000E+00  0.0000E+00  0.0000E+00  0.0000E+00  0.0000E+00  0.0000E+00  0.0000E+00  0.0000E+00  0.0000E+00  0.0000E+00  0.0000E+00  0.0000E+00  0.0000E+00
    -36.381  0.0000E+00  0.0000E+00  0.0000E+00  0.0000E+00  0.0000E+00  0.0000E+00  0.0000E+00  0.0000E+00  0.0000E+00  0.0000E+00  0.0000E+00  0.0000E+00  0.0000E+00  0.0000E+00  0.0000E+00  0.0000E+00  0.0000E+00  0.0000E+00
    -36.170  0.0000E+00  0.0000E+00  0.0000E+00  0.0000E+00  0.0000E+00  0.0000E+00  0.0000E+00  0.0000E+00  0.0000E+00  0.0000E+00  0.0000E+00  0.0000E+00  0.0000E+00  0.0000E+00  0.0000E+00  0.0000E+00  0.0000E+00  0.0000E+00
    -35.960  0.0000E+00  0.0000E+00  0.0000E+00  0.0000E+00  0.0000E+00  0.0000E+00  0.0000E+00  0.0000E+00  0.0000E+00  0.0000E+00  0.0000E+00  0.0000E+00  0.0000E+00  0.0000E+00  0.0000E+00  0.0000E+00  0.0000E+00  0.0000E+00
    -35.749  0.0000E+00  0.0000E+00  0.0000E+00  0.0000E+00  0.0000E+00  0.0000E+00  0.0000E+00  0.0000E+00  0.0000E+00  0.0000E+00  0.0000E+00  0.0000E+00  0.0000E+00  0.0000E+00  0.0000E+00  0.0000E+00  0.0000E+00  0.0000E+00
    -35.539  0.0000E+00  0.0000E+00  0.0000E+00  0.0000E+00  0.0000E+00  0.0000E+00  0.0000E+00  0.0000E+00  0.0000E+00  0.0000E+00  0.0000E+00  0.0000E+00  0.0000E+00  0.0000E+00  0.0000E+00  0.0000E+00  0.0000E+00  0.0000E+00
    -35.329  0.0000E+00  0.0000E+00  0.0000E+00  0.0000E+00  0.0000E+00  0.0000E+00  0.0000E+00  0.0000E+00  0.0000E+00  0.0000E+00  0.0000E+00  0.0000E+00  0.0000E+00  0.0000E+00  0.0000E+00  0.0000E+00  0.0000E+00  0.0000E+00
    -35.118  0.0000E+00  0.0000E+00  0.0000E+00  0.0000E+00  0.0000E+00  0.0000E+00  0.0000E+00  0.0000E+00  0.0000E+00  0.0000E+00  0.0000E+00  0.0000E+00  0.0000E+00  0.0000E+00  0.0000E+00  0.0000E+00  0.0000E+00  0.0000E+00
    -34.908  0.0000E+00  0.0000E+00  0.0000E+00  0.0000E+00  0.0000E+00  0.0000E+00  0.0000E+00  0.0000E+00  0.0000E+00  0.0000E+00  0.0000E+00  0.0000E+00  0.0000E+00  0.0000E+00  0.0000E+00  0.0000E+00  0.0000E+00  0.0000E+00
    -34.697  0.0000E+00  0.0000E+00  0.0000E+00  0.0000E+00  0.0000E+00  0.0000E+00  0.0000E+00  0.0000E+00  0.0000E+00  0.0000E+00  0.0000E+00  0.0000E+00  0.0000E+00  0.0000E+00  0.0000E+00  0.0000E+00  0.0000E+00  0.0000E+00
    -34.487  0.0000E+00  0.0000E+00  0.0000E+00  0.0000E+00  0.0000E+00  0.0000E+00  0.0000E+00  0.0000E+00  0.0000E+00  0.0000E+00  0.0000E+00  0.0000E+00  0.0000E+00  0.0000E+00  0.0000E+00  0.0000E+00  0.0000E+00  0.0000E+00
    -34.277  0.0000E+00  0.0000E+00  0.0000E+00  0.0000E+00  0.0000E+00  0.0000E+00  0.0000E+00  0.0000E+00  0.0000E+00  0.0000E+00  0.0000E+00  0.0000E+00  0.0000E+00  0.0000E+00  0.0000E+00  0.0000E+00  0.0000E+00  0.0000E+00
    -34.066  0.0000E+00  0.0000E+00  0.0000E+00  0.0000E+00  0.0000E+00  0.0000E+00  0.0000E+00  0.0000E+00  0.0000E+00  0.0000E+00  0.0000E+00  0.0000E+00  0.0000E+00  0.0000E+00  0.0000E+00  0.0000E+00  0.0000E+00  0.0000E+00
    -33.856  0.0000E+00  0.0000E+00  0.0000E+00  0.0000E+00  0.0000E+00  0.0000E+00  0.0000E+00  0.0000E+00  0.0000E+00  0.0000E+00  0.0000E+00  0.0000E+00  0.0000E+00  0.0000E+00  0.0000E+00  0.0000E+00  0.0000E+00  0.0000E+00
    -33.645  0.0000E+00  0.0000E+00  0.0000E+00  0.0000E+00  0.0000E+00  0.0000E+00  0.0000E+00  0.0000E+00  0.0000E+00  0.0000E+00  0.0000E+00  0.0000E+00  0.0000E+00  0.0000E+00  0.0000E+00  0.0000E+00  0.0000E+00  0.0000E+00
    -33.435  0.0000E+00  0.0000E+00  0.0000E+00  0.0000E+00  0.0000E+00  0.0000E+00  0.0000E+00  0.0000E+00  0.0000E+00  0.0000E+00  0.0000E+00  0.0000E+00  0.0000E+00  0.0000E+00  0.0000E+00  0.0000E+00  0.0000E+00  0.0000E+00
    -33.225  0.0000E+00  0.0000E+00  0.0000E+00  0.0000E+00  0.0000E+00  0.0000E+00  0.0000E+00  0.0000E+00  0.0000E+00  0.0000E+00  0.0000E+00  0.0000E+00  0.0000E+00  0.0000E+00  0.0000E+00  0.0000E+00  0.0000E+00  0.0000E+00
    -33.014  0.0000E+00  0.0000E+00  0.0000E+00  0.0000E+00  0.0000E+00  0.0000E+00  0.0000E+00  0.0000E+00  0.0000E+00  0.0000E+00  0.0000E+00  0.0000E+00  0.0000E+00  0.0000E+00  0.0000E+00  0.0000E+00  0.0000E+00  0.0000E+00