   2   2   1   0
  0.2133164E+02  0.3131995E-09  0.3131995E-09  0.5022057E-09  0.5000000E-15
  1.000000000000000E-004
  CAR 
 unknown system                          
     23.01168571    -41.61786798  301     10.00779101      1.00000000
    -41.618  0.0000E+00  0.0000E+00  0.0000E+00  0.0000E+00
    -41.402  0.0000E+00  0.0000E+00  0.0000E+00  0.0000E+00
    -41.187  0.0000E+00  0.0000E+00  0.0000E+00  0.0000E+00
    -40.972  0.0000E+00  0.0000E+00  0.0000E+00  0.0000E+00
    -40.756  0.0000E+00  0.0000E+00  0.0000E+00  0.0000E+00
    -40.541  0.0000E+00  0.0000E+00  0.0000E+00  0.0000E+00
    -40.325  0.0000E+00  0.0000E+00  0.0000E+00  0.0000E+00
    -40.110  0.0000E+00  0.0000E+00  0.0000E+00  0.0000E+00
    -39.894  0.0000E+00  0.0000E+00  0.0000E+00  0.0000E+00
    -39.679  0.0000E+00  0.0000E+00  0.0000E+00  0.0000E+00
    -39.464  0.0000E+00  0.0000E+00  0.0000E+00  0.0000E+00
    -39.248  0.1462E-05  0.1465E-05  0.3149E-06  0.3156E-06
    -39.033  0.3700E-03  0.3708E-03  0.8003E-04  0.8020E-04
    -38.817  0.2702E-01  0.2707E-01  0.5900E-02  0.5912E-02
    -38.602  0.1135E+01  0.1136E+01  0.2504E+00  0.2507E+00
    -38.386  0.6451E+01  0.6452E+01  0.1640E+01  0.1641E+01
    -38.171  0.1629E+01  0.1626E+01  0.1994E+01  0.1994E+01
    -37.956  0.0000E+00  0.0000E+00  0.2000E+01  0.2000E+01
    -37.740  0.0000E+00  0.0000E+00  0.2000E+01  0.2000E+01
    -37.525  0.0000E+00  0.0000E+00  0.2000E+01  0.2000E+01
    -37.309  0.0000E+00  0.0000E+00  0.2000E+01  0.2000E+01
    -37.094  0.0000E+00  0.0000E+00  0.2000E+01  0.2000E+01
    -36.878  0.0000E+00  0.0000E+00  0.2000E+01  0.2000E+01
    -36.663  0.0000E+00  0.0000E+00  0.2000E+01  0.2000E+01
    -36.448  0.0000E+00  0.0000E+00  0.2000E+01  0.2000E+01
    -36.232  0.0000E+00  0.0000E+00  0.2000E+01  0.2000E+01
    -36.017  0.0000E+00  0.0000E+00  0.2000E+01  0.2000E+01
    -35.801  0.0000E+00  0.0000E+00  0.2000E+01  0.2000E+01
    -35.586  0.0000E+00  0.0000E+00  0.2000E+01  0.2000E+01
    -35.370  0.0000E+00  0.0000E+00  0.2000E+01  0.2000E+01
    -35.155  0.0000E+00  0.0000E+00  0.2000E+01  0.2000E+01
    -34.939  0.0000E+00  0.0000E+00  0.2000E+01  0.2000E+01
    -34.724  0.0000E+00  0.0000E+00  0.2000E+01  0.2000E+01
    -34.509  0.0000E+00  0.0000E+00  0.2000E+01  0.2000E+01
    -34.293  0.0000E+00  0.0000E+00  0.2000E+01  0.2000E+01
    -34.078  0.0000E+00  0.0000E+00  0.2000E+01  0.2000E+01
    -33.862  0.0000E+00  0.0000E+00  0.2000E+01  0.2000E+01
    -33.647  0.0000E+00  0.0000E+00  0.2000E+01  0.2000E+01
    -33.431  0.0000E+00  0.0000E+00  0.2000E+01  0.2000E+01
    -33.216  0.0000E+00  0.0000E+00  0.2000E+01  0.2000E+01
    -33.001  0.0000E+00  0.0000E+00  0.2000E+01  0.2000E+01
    -32.785  0.0000E+00  0.0000E+00  0.2000E+01  0.2000E+01
    -32.570  0.0000E+00  0.0000E+00  0.2000E+01  0.2000E+01
    -32.354  0.0000E+00  0.0000E+00  0.2000E+01  0.2000E+01
    -32.139  0.0000E+00  0.0000E+00  0.2000E+01  0.2000E+01
    -31.923  0.0000E+00  0.0000E+00  0.2000E+01  0.2000E+01
    -31.708  0.0000E+00  0.0000E+00  0.2000E+01  0.2000E+01
    -31.493  0.0000E+00  0.0000E+00  0.2000E+01  0.2000E+01
    -31.277  0.0000E+00  0.0000E+00  0.2000E+01  0.2000E+01
    -31.062  0.0000E+00  0.0000E+00  0.2000E+01  0.2000E+01
    -30.846  0.0000E+00  0.0000E+00  0.2000E+01  0.2000E+01
    -30.631  0.0000E+00  0.0000E+00  0.2000E+01  0.2000E+01
    -30.415  0.0000E+00  0.0000E+00  0.2000E+01  0.2000E+01
    -30.200  0.0000E+00  0.0000E+00  0.2000E+01  0.2000E+01
    -29.985  0.0000E+00  0.0000E+00  0.2000E+01  0.2000E+01
    -29.769  0.0000E+00  0.0000E+00  0.2000E+01  0.2000E+01
    -29.554  0.0000E+00  0.0000E+00  0.2000E+01  0.2000E+01
    -29.338  0.0000E+00  0.0000E+00  0.2000E+01  0.2000E+01
    -29.123  0.0000E+00  0.0000E+00  0.2000E+01  0.2000E+01
    -28.907  0.0000E+00  0.0000E+00  0.2000E+01  0.2000E+01
    -28.692  0.0000E+00  0.0000E+00  0.2000E+01  0.2000E+01
    -28.477  0.0000E+00  0.0000E+00  0.2000E+01  0.2000E+01
    -28.261  0.0000E+00  0.0000E+00  0.2000E+01  0.2000E+01
    -28.046  0.0000E+00  0.0000E+00  0.2000E+01  0.2000E+01
    -27.830  0.0000E+00  0.0000E+00  0.2000E+01  0.2000E+01
    -27.615  0.0000E+00  0.0000E+00  0.2000E+01  0.2000E+01
    -27.399  0.0000E+00  0.0000E+00  0.2000E+01  0.2000E+01
    -27.184  0.0000E+00  0.0000E+00  0.2000E+01  0.2000E+01
    -26.969  0.0000E+00  0.0000E+00  0.2000E+01  0.2000E+01
    -26.753  0.0000E+00  0.0000E+00  0.2000E+01  0.2000E+01
    -26.538  0.0000E+00  0.0000E+00  0.2000E+01  0.2000E+01
    -26.322  0.0000E+00  0.0000E+00  0.2000E+01  0.2000E+01
    -26.107  0.0000E+00  0.0000E+00  0.2000E+01  0.2000E+01
    -25.891  0.0000E+00  0.0000E+00  0.2000E+01  0.2000E+01
    -25.676  0.0000E+00  0.0000E+00  0.2000E+01  0.2000E+01
    -25.460  0.0000E+00  0.0000E+00  0.2000E+01  0.2000E+01
    -25.245  0.0000E+00  0.0000E+00  0.2000E+01  0.2000E+01
    -25.030  0.0000E+00  0.0000E+00  0.2000E+01  0.2000E+01
    -24.814  0.0000E+00  0.0000E+00  0.2000E+01  0.2000E+01
    -24.599  0.0000E+00  0.0000E+00  0.2000E+01  0.2000E+01
    -24.383  0.0000E+00  0.0000E+00  0.2000E+01  0.2000E+01
    -24.168  0.0000E+00  0.0000E+00  0.2000E+01  0.2000E+01
    -23.952  0.0000E+00  0.0000E+00  0.2000E+01  0.2000E+01
    -23.737  0.0000E+00  0.0000E+00  0.2000E+01  0.2000E+01
    -23.522  0.0000E+00  0.0000E+00  0.2000E+01  0.2000E+01
    -23.306  0.0000E+00  0.0000E+00  0.2000E+01  0.2000E+01
    -23.091  0.0000E+00  0.0000E+00  0.2000E+01  0.2000E+01
    -22.875  0.0000E+00  0.0000E+00  0.2000E+01  0.2000E+01
    -22.660  0.0000E+00  0.0000E+00  0.2000E+01  0.2000E+01
    -22.444  0.0000E+00  0.0000E+00  0.2000E+01  0.2000E+01
    -22.229  0.0000E+00  0.0000E+00  0.2000E+01  0.2000E+01
    -22.014  0.0000E+00  0.0000E+00  0.2000E+01  0.2000E+01
    -21.798  0.0000E+00  0.0000E+00  0.2000E+01  0.2000E+01
    -21.583  0.0000E+00  0.0000E+00  0.2000E+01  0.2000E+01
    -21.367  0.0000E+00  0.0000E+00  0.2000E+01  0.2000E+01
    -21.152  0.0000E+00  0.0000E+00  0.2000E+01  0.2000E+01
    -20.936  0.0000E+00  0.0000E+00  0.2000E+01  0.2000E+01
    -20.721  0.0000E+00  0.0000E+00  0.2000E+01  0.2000E+01
    -20.506  0.0000E+00  0.0000E+00  0.2000E+01  0.2000E+01
    -20.290  0.0000E+00  0.0000E+00  0.2000E+01  0.2000E+01
    -20.075  0.0000E+00  0.0000E+00  0.2000E+01  0.2000E+01
    -19.859  0.0000E+00  0.0000E+00  0.2000E+01  0.2000E+01
    -19.644  0.0000E+00  0.0000E+00  0.2000E+01  0.2000E+01
    -19.428  0.0000E+00  0.0000E+00  0.2000E+01  0.2000E+01
    -19.213  0.0000E+00  0.0000E+00  0.2000E+01  0.2000E+01
    -18.998  0.0000E+00  0.0000E+00  0.2000E+01  0.2000E+01
    -18.782  0.0000E+00  0.0000E+00  0.2000E+01  0.2000E+01
    -18.567  0.0000E+00  0.0000E+00  0.2000E+01  0.2000E+01
    -18.351  0.0000E+00  0.0000E+00  0.2000E+01  0.2000E+01
    -18.136  0.0000E+00  0.0000E+00  0.2000E+01  0.2000E+01
    -17.920  0.4347E-06  0.4357E-06  0.2000E+01  0.2000E+01
    -17.705  0.1229E-03  0.1230E-03  0.2000E+01  0.2000E+01
    -17.490  0.9286E-02  0.9299E-02  0.2002E+01  0.2002E+01
    -17.274  0.4333E+00  0.4337E+00  0.2095E+01  0.2095E+01
    -17.059  0.3417E+01  0.3418E+01  0.2832E+01  0.2832E+01
    -16.843  0.3812E+01  0.3812E+01  0.3654E+01  0.3654E+01
    -16.628  0.3403E+01  0.3404E+01  0.4395E+01  0.4395E+01
    -16.412  0.5396E+01  0.5396E+01  0.5560E+01  0.5561E+01
    -16.197  0.7926E+01  0.7926E+01  0.7273E+01  0.7273E+01
    -15.981  0.3186E+01  0.3186E+01  0.7967E+01  0.7967E+01
    -15.766  0.1084E+00  0.1084E+00  0.8000E+01  0.8000E+01
    -15.551  0.0000E+00  0.0000E+00  0.8000E+01  0.8000E+01
    -15.335  0.0000E+00  0.0000E+00  0.8000E+01  0.8000E+01
    -15.120  0.0000E+00  0.0000E+00  0.8000E+01  0.8000E+01
    -14.904  0.0000E+00  0.0000E+00  0.8000E+01  0.8000E+01
    -14.689  0.0000E+00  0.0000E+00  0.8000E+01  0.8000E+01
    -14.473  0.0000E+00  0.0000E+00  0.8000E+01  0.8000E+01
    -14.258  0.0000E+00  0.0000E+00  0.8000E+01  0.8000E+01
    -14.043  0.0000E+00  0.0000E+00  0.8000E+01  0.8000E+01
    -13.827  0.0000E+00  0.0000E+00  0.8000E+01  0.8000E+01
    -13.612  0.0000E+00  0.0000E+00  0.8000E+01  0.8000E+01
    -13.396  0.0000E+00  0.0000E+00  0.8000E+01  0.8000E+01
    -13.181  0.0000E+00  0.0000E+00  0.8000E+01  0.8000E+01
    -12.965  0.0000E+00  0.0000E+00  0.8000E+01  0.8000E+01
    -12.750  0.0000E+00  0.0000E+00  0.8000E+01  0.8000E+01
    -12.535  0.0000E+00  0.0000E+00  0.8000E+01  0.8000E+01
    -12.319  0.0000E+00  0.0000E+00  0.8000E+01  0.8000E+01
    -12.104  0.0000E+00  0.0000E+00  0.8000E+01  0.8000E+01
    -11.888  0.0000E+00  0.0000E+00  0.8000E+01  0.8000E+01
    -11.673  0.0000E+00  0.0000E+00  0.8000E+01  0.8000E+01
    -11.457  0.0000E+00  0.0000E+00  0.8000E+01  0.8000E+01
    -11.242  0.0000E+00  0.0000E+00  0.8000E+01  0.8000E+01
    -11.027  0.0000E+00  0.0000E+00  0.8000E+01  0.8000E+01
    -10.811  0.0000E+00  0.0000E+00  0.8000E+01  0.8000E+01
    -10.596  0.0000E+00  0.0000E+00  0.8000E+01  0.8000E+01
    -10.380  0.0000E+00  0.0000E+00  0.8000E+01  0.8000E+01
    -10.165  0.0000E+00  0.0000E+00  0.8000E+01  0.8000E+01
     -9.949  0.0000E+00  0.0000E+00  0.8000E+01  0.8000E+01
     -9.734  0.0000E+00  0.0000E+00  0.8000E+01  0.8000E+01
     -9.519  0.0000E+00  0.0000E+00  0.8000E+01  0.8000E+01
     -9.303  0.0000E+00  0.0000E+00  0.8000E+01  0.8000E+01
     -9.088  0.0000E+00  0.0000E+00  0.8000E+01  0.8000E+01
     -8.872  0.0000E+00  0.0000E+00  0.8000E+01  0.8000E+01
     -8.657  0.0000E+00  0.0000E+00  0.8000E+01  0.8000E+01
     -8.441  0.0000E+00  0.0000E+00  0.8000E+01  0.8000E+01
     -8.226  0.0000E+00  0.0000E+00  0.8000E+01  0.8000E+01
     -8.011  0.0000E+00  0.0000E+00  0.8000E+01  0.8000E+01
     -7.795  0.0000E+00  0.0000E+00  0.8000E+01  0.8000E+01
     -7.580  0.0000E+00  0.0000E+00  0.8000E+01  0.8000E+01
     -7.364  0.0000E+00  0.0000E+00  0.8000E+01  0.8000E+01
     -7.149  0.0000E+00  0.0000E+00  0.8000E+01  0.8000E+01
     -6.933  0.0000E+00  0.0000E+00  0.8000E+01  0.8000E+01
     -6.718  0.0000E+00  0.0000E+00  0.8000E+01  0.8000E+01
     -6.502  0.0000E+00  0.0000E+00  0.8000E+01  0.8000E+01
     -6.287  0.0000E+00  0.0000E+00  0.8000E+01  0.8000E+01
     -6.072  0.0000E+00  0.0000E+00  0.8000E+01  0.8000E+01
     -5.856  0.0000E+00  0.0000E+00  0.8000E+01  0.8000E+01
     -5.641  0.0000E+00  0.0000E+00  0.8000E+01  0.8000E+01
     -5.425  0.0000E+00  0.0000E+00  0.8000E+01  0.8000E+01
     -5.210  0.0000E+00  0.0000E+00  0.8000E+01  0.8000E+01
     -4.994  0.0000E+00  0.0000E+00  0.8000E+01  0.8000E+01
     -4.779  0.0000E+00  0.0000E+00  0.8000E+01  0.8000E+01
     -4.564  0.0000E+00  0.0000E+00  0.8000E+01  0.8000E+01
     -4.348  0.0000E+00  0.0000E+00  0.8000E+01  0.8000E+01
     -4.133  0.0000E+00  0.0000E+00  0.8000E+01  0.8000E+01
     -3.917  0.0000E+00  0.0000E+00  0.8000E+01  0.8000E+01
     -3.702  0.0000E+00  0.0000E+00  0.8000E+01  0.8000E+01
     -3.486  0.0000E+00  0.0000E+00  0.8000E+01  0.8000E+01
     -3.271  0.0000E+00  0.0000E+00  0.8000E+01  0.8000E+01
     -3.056  0.0000E+00  0.0000E+00  0.8000E+01  0.8000E+01
     -2.840  0.0000E+00  0.0000E+00  0.8000E+01  0.8000E+01
     -2.625  0.0000E+00  0.0000E+00  0.8000E+01  0.8000E+01
     -2.409  0.0000E+00  0.0000E+00  0.8000E+01  0.8000E+01
     -2.194  0.0000E+00  0.0000E+00  0.8000E+01  0.8000E+01
     -1.978  0.0000E+00  0.0000E+00  0.8000E+01  0.8000E+01
     -1.763  0.0000E+00  0.0000E+00  0.8000E+01  0.8000E+01
     -1.548  0.0000E+00  0.0000E+00  0.8000E+01  0.8000E+01
     -1.332  0.0000E+00  0.0000E+00  0.8000E+01  0.8000E+01
     -1.117  0.0000E+00  0.0000E+00  0.8000E+01  0.8000E+01
     -0.901  0.0000E+00  0.0000E+00  0.8000E+01  0.8000E+01
     -0.686  0.0000E+00  0.0000E+00  0.8000E+01  0.8000E+01
     -0.470  0.0000E+00  0.0000E+00  0.8000E+01  0.8000E+01
     -0.255  0.0000E+00  0.0000E+00  0.8000E+01  0.8000E+01
     -0.040  0.0000E+00  0.0000E+00  0.8000E+01  0.8000E+01
      0.176  0.0000E+00  0.0000E+00  0.8000E+01  0.8000E+01
      0.391  0.0000E+00  0.0000E+00  0.8000E+01  0.8000E+01
      0.607  0.0000E+00  0.0000E+00  0.8000E+01  0.8000E+01
      0.822  0.0000E+00  0.0000E+00  0.8000E+01  0.8000E+01
      1.038  0.0000E+00  0.0000E+00  0.8000E+01  0.8000E+01
      1.253  0.0000E+00  0.0000E+00  0.8000E+01  0.8000E+01
      1.469  0.0000E+00  0.0000E+00  0.8000E+01  0.8000E+01
      1.684  0.0000E+00  0.0000E+00  0.8000E+01  0.8000E+01
      1.899  0.0000E+00  0.0000E+00  0.8000E+01  0.8000E+01
      2.115  0.0000E+00  0.0000E+00  0.8000E+01  0.8000E+01
      2.330  0.0000E+00  0.0000E+00  0.8000E+01  0.8000E+01
      2.546  0.0000E+00  0.0000E+00  0.8000E+01  0.8000E+01
      2.761  0.0000E+00  0.0000E+00  0.8000E+01  0.8000E+01
      2.977  0.0000E+00  0.0000E+00  0.8000E+01  0.8000E+01
      3.192  0.0000E+00  0.0000E+00  0.8000E+01  0.8000E+01
      3.407  0.0000E+00  0.0000E+00  0.8000E+01  0.8000E+01
      3.623  0.2378E-07  0.2419E-07  0.8000E+01  0.8000E+01
      3.838  0.2371E-05  0.2412E-05  0.8000E+01  0.8000E+01
      4.054  0.1745E-03  0.1774E-03  0.8000E+01  0.8000E+01
      4.269  0.5333E-02  0.5385E-02  0.8001E+01  0.8001E+01
      4.485  0.3380E-01  0.3394E-01  0.8008E+01  0.8009E+01
      4.700  0.3810E-01  0.3807E-01  0.8017E+01  0.8017E+01
      4.915  0.8340E-01  0.8358E-01  0.8035E+01  0.8035E+01
      5.131  0.7020E-01  0.7013E-01  0.8050E+01  0.8050E+01
      5.346  0.9134E-01  0.9156E-01  0.8070E+01  0.8070E+01
      5.562  0.1198E+00  0.1197E+00  0.8096E+01  0.8096E+01
      5.777  0.1571E+00  0.1573E+00  0.8130E+01  0.8130E+01
      5.993  0.1129E+00  0.1126E+00  0.8154E+01  0.8154E+01
      6.208  0.1941E+00  0.1949E+00  0.8196E+01  0.8196E+01
      6.423  0.2787E+00  0.2785E+00  0.8256E+01  0.8256E+01
      6.639  0.2676E+00  0.2681E+00  0.8314E+01  0.8315E+01
      6.854  0.7444E+00  0.7460E+00  0.8475E+01  0.8476E+01
      7.070  0.9917E+00  0.9913E+00  0.8689E+01  0.8690E+01
      7.285  0.1111E+01  0.1112E+01  0.8931E+01  0.8931E+01
      7.501  0.1122E+01  0.1121E+01  0.9173E+01  0.9174E+01
      7.716  0.1400E+01  0.1401E+01  0.9477E+01  0.9477E+01
      7.931  0.1287E+01  0.1286E+01  0.9755E+01  0.9756E+01
      8.147  0.8877E+00  0.8864E+00  0.9949E+01  0.9949E+01
      8.362  0.1007E+01  0.1007E+01  0.1017E+02  0.1017E+02
      8.578  0.1065E+01  0.1065E+01  0.1040E+02  0.1040E+02
      8.793  0.1207E+01  0.1207E+01  0.1066E+02  0.1066E+02
      9.009  0.1336E+01  0.1337E+01  0.1095E+02  0.1095E+02
      9.224  0.1337E+01  0.1336E+01  0.1124E+02  0.1124E+02
      9.439  0.1565E+01  0.1566E+01  0.1158E+02  0.1158E+02
      9.655  0.9405E+00  0.9387E+00  0.1178E+02  0.1178E+02
      9.870  0.4857E+00  0.4861E+00  0.1189E+02  0.1189E+02
     10.086  0.9286E+00  0.9295E+00  0.1209E+02  0.1209E+02
     10.301  0.1696E+01  0.1696E+01  0.1245E+02  0.1245E+02
     10.517  0.1451E+01  0.1451E+01  0.1277E+02  0.1277E+02
     10.732  0.1558E+01  0.1557E+01  0.1311E+02  0.1311E+02
     10.948  0.1430E+01  0.1430E+01  0.1342E+02  0.1342E+02
     11.163  0.1735E+01  0.1736E+01  0.1379E+02  0.1379E+02
     11.378  0.1733E+01  0.1733E+01  0.1417E+02  0.1417E+02
     11.594  0.1717E+01  0.1717E+01  0.1454E+02  0.1454E+02
     11.809  0.1333E+01  0.1332E+01  0.1483E+02  0.1483E+02
     12.025  0.1020E+01  0.1019E+01  0.1505E+02  0.1505E+02
     12.240  0.7425E+00  0.7424E+00  0.1521E+02  0.1521E+02
     12.456  0.8521E+00  0.8520E+00  0.1539E+02  0.1539E+02
     12.671  0.5020E+00  0.5019E+00  0.1550E+02  0.1550E+02
     12.886  0.7469E+00  0.7472E+00  0.1567E+02  0.1567E+02
     13.102  0.7484E+00  0.7482E+00  0.1583E+02  0.1583E+02
     13.317  0.4608E+00  0.4607E+00  0.1593E+02  0.1593E+02
     13.533  0.7155E+00  0.7157E+00  0.1608E+02  0.1608E+02
     13.748  0.7232E+00  0.7233E+00  0.1624E+02  0.1624E+02
     13.964  0.7020E+00  0.7018E+00  0.1639E+02  0.1639E+02
     14.179  0.6802E+00  0.6803E+00  0.1654E+02  0.1654E+02
     14.394  0.9062E+00  0.9065E+00  0.1674E+02  0.1674E+02
     14.610  0.1129E+01  0.1129E+01  0.1698E+02  0.1698E+02
     14.825  0.1375E+01  0.1375E+01  0.1728E+02  0.1728E+02
     15.041  0.1478E+01  0.1478E+01  0.1760E+02  0.1760E+02
     15.256  0.1278E+01  0.1278E+01  0.1787E+02  0.1787E+02
     15.472  0.1830E+01  0.1831E+01  0.1827E+02  0.1827E+02
     15.687  0.1366E+01  0.1366E+01  0.1857E+02  0.1857E+02
     15.902  0.9364E+00  0.9359E+00  0.1877E+02  0.1877E+02
     16.118  0.4572E+00  0.4573E+00  0.1887E+02  0.1887E+02
     16.333  0.6437E+00  0.6437E+00  0.1901E+02  0.1901E+02
     16.549  0.4723E+00  0.4722E+00  0.1911E+02  0.1911E+02
     16.764  0.3650E+00  0.3653E+00  0.1919E+02  0.1919E+02
     16.980  0.3947E+00  0.3967E+00  0.1928E+02  0.1928E+02
     17.195  0.3819E+00  0.3754E+00  0.1936E+02  0.1936E+02
     17.410  0.5349E+00  0.5381E+00  0.1947E+02  0.1947E+02
     17.626  0.5472E+00  0.5606E+00  0.1959E+02  0.1960E+02
     17.841  0.4462E+00  0.4453E+00  0.1969E+02  0.1969E+02
     18.057  0.4094E+00  0.3874E+00  0.1978E+02  0.1978E+02
     18.272  0.2721E+00  0.2823E+00  0.1984E+02  0.1984E+02
     18.488  0.1518E+00  0.1515E+00  0.1987E+02  0.1987E+02
     18.703  0.1259E+00  0.1258E+00  0.1990E+02  0.1990E+02
     18.918  0.1899E+00  0.1904E+00  0.1994E+02  0.1994E+02
     19.134  0.1105E+00  0.1099E+00  0.1996E+02  0.1996E+02
     19.349  0.4450E-01  0.3986E-01  0.1997E+02  0.1997E+02
     19.565  0.6264E-01  0.7568E-01  0.1999E+02  0.1999E+02
     19.780  0.2275E-01  0.4736E-01  0.1999E+02  0.2000E+02
     19.996  0.6221E-02  0.3823E-02  0.1999E+02  0.2000E+02
     20.211  0.2808E-01  0.0000E+00  0.2000E+02  0.2000E+02
     20.427  0.2186E-02  0.0000E+00  0.2000E+02  0.2000E+02
     20.642  0.0000E+00  0.0000E+00  0.2000E+02  0.2000E+02
     20.857  0.0000E+00  0.0000E+00  0.2000E+02  0.2000E+02
     21.073  0.0000E+00  0.0000E+00  0.2000E+02  0.2000E+02
     21.288  0.0000E+00  0.0000E+00  0.2000E+02  0.2000E+02
     21.504  0.0000E+00  0.0000E+00  0.2000E+02  0.2000E+02
     21.719  0.0000E+00  0.0000E+00  0.2000E+02  0.2000E+02
     21.935  0.0000E+00  0.0000E+00  0.2000E+02  0.2000E+02
     22.150  0.0000E+00  0.0000E+00  0.2000E+02  0.2000E+02
     22.365  0.0000E+00  0.0000E+00  0.2000E+02  0.2000E+02
     22.581  0.0000E+00  0.0000E+00  0.2000E+02  0.2000E+02
     22.796  0.0000E+00  0.0000E+00  0.2000E+02  0.2000E+02
     23.012  0.0000E+00  0.0000E+00  0.2000E+02  0.2000E+02
     23.01168571    -41.61786798  301     10.00779101      1.00000000
    -41.618  0.0000E+00  0.0000E+00  0.0000E+00  0.0000E+00  0.0000E+00  0.0000E+00  0.0000E+00  0.0000E+00  0.0000E+00  0.0000E+00  0.0000E+00  0.0000E+00  0.0000E+00  0.0000E+00  0.0000E+00  0.0000E+00  0.0000E+00  0.0000E+00
    -41.402  0.0000E+00  0.0000E+00  0.0000E+00  0.0000E+00  0.0000E+00  0.0000E+00  0.0000E+00  0.0000E+00  0.0000E+00  0.0000E+00  0.0000E+00  0.0000E+00  0.0000E+00  0.0000E+00  0.0000E+00  0.0000E+00  0.0000E+00  0.0000E+00
    -41.187  0.0000E+00  0.0000E+00  0.0000E+00  0.0000E+00  0.0000E+00  0.0000E+00  0.0000E+00  0.0000E+00  0.0000E+00  0.0000E+00  0.0000E+00  0.0000E+00  0.0000E+00  0.0000E+00  0.0000E+00  0.0000E+00  0.0000E+00  0.0000E+00
    -40.972  0.0000E+00  0.0000E+00  0.0000E+00  0.0000E+00  0.0000E+00  0.0000E+00  0.0000E+00  0.0000E+00  0.0000E+00  0.0000E+00  0.0000E+00  0.0000E+00  0.0000E+00  0.0000E+00  0.0000E+00  0.0000E+00  0.0000E+00  0.0000E+00
    -40.756  0.0000E+00  0.0000E+00  0.0000E+00  0.0000E+00  0.0000E+00  0.0000E+00  0.0000E+00  0.0000E+00  0.0000E+00  0.0000E+00  0.0000E+00  0.0000E+00  0.0000E+00  0.0000E+00  0.0000E+00  0.0000E+00  0.0000E+00  0.0000E+00
    -40.541  0.0000E+00  0.0000E+00  0.0000E+00  0.0000E+00  0.0000E+00  0.0000E+00  0.0000E+00  0.0000E+00  0.0000E+00  0.0000E+00  0.0000E+00  0.0000E+00  0.0000E+00  0.0000E+00  0.0000E+00  0.0000E+00  0.0000E+00  0.0000E+00
    -40.325  0.0000E+00  0.0000E+00  0.0000E+00  0.0000E+00  0.0000E+00  0.0000E+00  0.0000E+00  0.0000E+00  0.0000E+00  0.0000E+00  0.0000E+00  0.0000E+00  0.0000E+00  0.0000E+00  0.0000E+00  0.0000E+00  0.0000E+00  0.0000E+00
    -40.110  0.0000E+00  0.0000E+00  0.0000E+00  0.0000E+00  0.0000E+00  0.0000E+00  0.0000E+00  0.0000E+00  0.0000E+00  0.0000E+00  0.0000E+00  0.0000E+00  0.0000E+00  0.0000E+00  0.0000E+00  0.0000E+00  0.0000E+00  0.0000E+00
    -39.894  0.0000E+00  0.0000E+00  0.0000E+00  0.0000E+00  0.0000E+00  0.0000E+00  0.0000E+00  0.0000E+00  0.0000E+00  0.0000E+00  0.0000E+00  0.0000E+00  0.0000E+00  0.0000E+00  0.0000E+00  0.0000E+00  0.0000E+00  0.0000E+00
    -39.679  0.0000E+00  0.0000E+00  0.0000E+00  0.0000E+00  0.0000E+00  0.0000E+00  0.0000E+00  0.0000E+00  0.0000E+00  0.0000E+00  0.0000E+00  0.0000E+00  0.0000E+00  0.0000E+00  0.0000E+00  0.0000E+00  0.0000E+00  0.0000E+00
    -39.464  0.0000E+00  0.0000E+00  0.0000E+00  0.0000E+00  0.0000E+00  0.0000E+00  0.0000E+00  0.0000E+00  0.0000E+00  0.0000E+00  0.0000E+00  0.0000E+00  0.0000E+00  0.0000E+00  0.0000E+00  0.0000E+00  0.0000E+00  0.0000E+00
    -39.248  0.7213E-06  0.7228E-06  0.6968E-11  0.6995E-11  0.6495E-11  0.6516E-11  0.6968E-11  0.6995E-11  0.3028E-12  0.3048E-12  0.1129E-12  0.1134E-12  0.1026E-11  0.1031E-11  0.1129E-12  0.1134E-12  0.3028E-12  0.3048E-12
    -39.033  0.1830E-03  0.1834E-03  0.2845E-08  0.2854E-08  0.3218E-08  0.3227E-08  0.2845E-08  0.2854E-08  0.5443E-09  0.5458E-09  0.4239E-09  0.4249E-09  0.8107E-09  0.8131E-09  0.4239E-09  0.4249E-09  0.5443E-09  0.5458E-09
    -38.817  0.1336E-01  0.1339E-01  0.2068E-06  0.2075E-06  0.2335E-06  0.2341E-06  0.2068E-06  0.2075E-06  0.4013E-07  0.4024E-07  0.3107E-07  0.3115E-07  0.5919E-07  0.5936E-07  0.3107E-07  0.3115E-07  0.4013E-07  0.4024E-07
    -38.602  0.5620E+00  0.5627E+00  0.8995E-05  0.9016E-05  0.1028E-04  0.1030E-04  0.8995E-05  0.9016E-05  0.2297E-05  0.2301E-05  0.1868E-05  0.1871E-05  0.3236E-05  0.3243E-05  0.1868E-05  0.1871E-05  0.2297E-05  0.2301E-05
    -38.386  0.3202E+01  0.3203E+01  0.3270E-04  0.3271E-04  0.3988E-04  0.3988E-04  0.3270E-04  0.3271E-04  0.1761E-04  0.1761E-04  0.1802E-04  0.1802E-04  0.2457E-04  0.2457E-04  0.1802E-04  0.1802E-04  0.1761E-04  0.1761E-04
    -38.171  0.8093E+00  0.8081E+00  0.4825E-05  0.4816E-05  0.6058E-05  0.6044E-05  0.4825E-05  0.4816E-05  0.3973E-05  0.3964E-05  0.4792E-05  0.4784E-05  0.5395E-05  0.5385E-05  0.4792E-05  0.4784E-05  0.3973E-05  0.3964E-05
    -37.956  0.0000E+00  0.0000E+00  0.0000E+00  0.0000E+00  0.0000E+00  0.0000E+00  0.0000E+00  0.0000E+00  0.0000E+00  0.0000E+00  0.0000E+00  0.0000E+00  0.0000E+00  0.0000E+00  0.0000E+00  0.0000E+00  0.0000E+00  0.0000E+00
    -37.740  0.0000E+00  0.0000E+00  0.0000E+00  0.0000E+00  0.0000E+00  0.0000E+00  0.0000E+00  0.0000E+00  0.0000E+00  0.0000E+00  0.0000E+00  0.0000E+00  0.0000E+00  0.0000E+00  0.0000E+00  0.0000E+00  0.0000E+00  0.0000E+00
    -37.525  0.0000E+00  0.0000E+00  0.0000E+00  0.0000E+00  0.0000E+00  0.0000E+00  0.0000E+00  0.0000E+00  0.0000E+00  0.0000E+00  0.0000E+00  0.0000E+00  0.0000E+00  0.0000E+00  0.0000E+00  0.0000E+00  0.0000E+00  0.0000E+00
    -37.309  0.0000E+00  0.0000E+00  0.0000E+00  0.0000E+00  0.0000E+00  0.0000E+00  0.0000E+00  0.0000E+00  0.0000E+00  0.0000E+00  0.0000E+00  0.0000E+00  0.0000E+00  0.0000E+00  0.0000E+00  0.0000E+00  0.0000E+00  0.0000E+00
    -37.094  0.0000E+00  0.0000E+00  0.0000E+00  0.0000E+00  0.0000E+00  0.0000E+00  0.0000E+00  0.0000E+00  0.0000E+00  0.0000E+00  0.0000E+00  0.0000E+00  0.0000E+00  0.0000E+00  0.0000E+00  0.0000E+00  0.0000E+00  0.0000E+00
    -36.878  0.0000E+00  0.0000E+00  0.0000E+00  0.0000E+00  0.0000E+00  0.0000E+00  0.0000E+00  0.0000E+00  0.0000E+00  0.0000E+00  0.0000E+00  0.0000E+00  0.0000E+00  0.0000E+00  0.0000E+00  0.0000E+00  0.0000E+00  0.0000E+00
    -36.663  0.0000E+00  0.0000E+00  0.0000E+00  0.0000E+00  0.0000E+00  0.0000E+00  0.0000E+00  0.0000E+00  0.0000E+00  0.0000E+00  0.0000E+00  0.0000E+00  0.0000E+00  0.0000E+00  0.0000E+00  0.0000E+00  0.0000E+00  0.0000E+00
    -36.448  0.0000E+00  0.0000E+00  0.0000E+00  0.0000E+00  0.0000E+00  0.0000E+00  0.0000E+00  0.0000E+00  0.0000E+00  0.0000E+00  0.0000E+00  0.0000E+00  0.0000E+00  0.0000E+00  0.0000E+00  0.0000E+00  0.0000E+00  0.0000E+00
    -36.232  0.0000E+00  0.0000E+00  0.0000E+00  0.0000E+00  0.0000E+00  0.0000E+00  0.0000E+00  0.0000E+00  0.0000E+00  0.0000E+00  0.0000E+00  0.0000E+00  0.0000E+00  0.0000E+00  0.0000E+00  0.0000E+00  0.0000E+00  0.0000E+00
    -36.017  0.0000E+00  0.0000E+00  0.0000E+00  0.0000E+00  0.0000E+00  0.0000E+00  0.0000E+00  0.0000E+00  0.0000E+00  0.0000E+00  0.0000E+00  0.0000E+00  0.0000E+00  0.0000E+00  0.0000E+00  0.0000E+00  0.0000E+00  0.0000E+00
    -35.801  0.0000E+00  0.0000E+00  0.0000E+00  0.0000E+00  0.0000E+00  0.0000E+00  0.0000E+00  0.0000E+00  0.0000E+00  0.0000E+00  0.0000E+00  0.0000E+00  0.0000E+00  0.0000E+00  0.0000E+00  0.0000E+00  0.0000E+00  0.0000E+00
    -35.586  0.0000E+00  0.0000E+00  0.0000E+00  0.0000E+00  0.0000E+00  0.0000E+00  0.0000E+00  0.0000E+00  0.0000E+00  0.0000E+00  0.0000E+00  0.0000E+00  0.0000E+00  0.0000E+00  0.0000E+00  0.0000E+00  0.0000E+00  0.0000E+00
    -35.370  0.0000E+00  0.0000E+00  0.0000E+00  0.0000E+00  0.0000E+00  0.0000E+00  0.0000E+00  0.0000E+00  0.0000E+00  0.0000E+00  0.0000E+00  0.0000E+00  0.0000E+00  0.0000E+00  0.0000E+00  0.0000E+00  0.0000E+00  0.0000E+00
    -35.155  0.0000E+00  0.0000E+00  0.0000E+00  0.0000E+00  0.0000E+00  0.0000E+00  0.0000E+00  0.0000E+00  0.0000E+00  0.0000E+00  0.0000E+00  0.0000E+00  0.0000E+00  0.0000E+00  0.0000E+00  0.0000E+00  0.0000E+00  0.0000E+00
    -34.939  0.0000E+00  0.0000E+00  0.0000E+00  0.0000E+00  0.0000E+00  0.0000E+00  0.0000E+00  0.0000E+00  0.0000E+00  0.0000E+00  0.0000E+00  0.0000E+00  0.0000E+00  0.0000E+00  0.0000E+00  0.0000E+00  0.0000E+00  0.0000E+00
    -34.724  0.0000E+00  0.0000E+00  0.0000E+00  0.0000E+00  0.0000E+00  0.0000E+00  0.0000E+00  0.0000E+00  0.0000E+00  0.0000E+00  0.0000E+00  0.0000E+00  0.0000E+00  0.0000E+00  0.0000E+00  0.0000E+00  0.0000E+00  0.0000E+00
    -34.509  0.0000E+00  0.0000E+00  0.0000E+00  0.0000E+00  0.0000E+00  0.0000E+00  0.0000E+00  0.0000E+00  0.0000E+00  0.0000E+00  0.0000E+00  0.0000E+00  0.0000E+00  0.0000E+00  0.0000E+00  0.0000E+00  0.0000E+00  0.0000E+00
    -34.293  0.0000E+00  0.0000E+00  0.0000E+00  0.0000E+00  0.0000E+00  0.0000E+00  0.0000E+00  0.0000E+00  0.0000E+00  0.0000E+00  0.0000E+00  0.0000E+00  0.0000E+00  0.0000E+00  0.0000E+00  0.0000E+00  0.0000E+00  0.0000E+00
    -34.078  0.0000E+00  0.0000E+00  0.0000E+00  0.0000E+00  0.0000E+00  0.0000E+00  0.0000E+00  0.0000E+00  0.0000E+00  0.0000E+00  0.0000E+00  0.0000E+00  0.0000E+00  0.0000E+00  0.0000E+00  0.0000E+00  0.0000E+00  0.0000E+00
    -33.862  0.0000E+00  0.0000E+00  0.0000E+00  0.0000E+00  0.0000E+00  0.0000E+00  0.0000E+00  0.0000E+00  0.0000E+00  0.0000E+00  0.0000E+00  0.0000E+00  0.0000E+00  0.0000E+00  0.0000E+00  0.0000E+00  0.0000E+00  0.0000E+00
    -33.647  0.0000E+00  0.0000E+00  0.0000E+00  0.0000E+00  0.0000E+00  0.0000E+00  0.0000E+00  0.0000E+00  0.0000E+00  0.0000E+00  0.0000E+00  0.0000E+00  0.0000E+00  0.0000E+00  0.0000E+00  0.0000E+00  0.0000E+00  0.0000E+00
    -33.431  0.0000E+00  0.0000E+00  0.0000E+00  0.0000E+00  0.0000E+00  0.0000E+00  0.0000E+00  0.0000E+00  0.0000E+00  0.0000E+00  0.0000E+00  0.0000E+00  0.0000E+00  0.0000E+00  0.0000E+00  0.0000E+00  0.0000E+00  0.0000E+00
    -33.216  0.0000E+00  0.0000E+00  0.0000E+00  0.0000E+00  0.0000E+00  0.0000E+00  0.0000E+00  0.0000E+00  0.0000E+00  0.0000E+00  0.0000E+00  0.0000E+00  0.0000E+00  0.0000E+00  0.0000E+00  0.0000E+00  0.0000E+00  0.0000E+00
    -33.001  0.0000E+00  0.0000E+00  0.0000E+00  0.0000E+00  0.0000E+00  0.0000E+00  0.0000E+00  0.0000E+00  0.0000E+00  0.0000E+00  0.0000E+00  0.0000E+00  0.0000E+00  0.0000E+00  0.0000E+00  0.0000E+00  0.0000E+00  0.0000E+00
    -32.785  0.0000E+00  0.0000E+00  0.0000E+00  0.0000E+00  0.0000E+00  0.0000E+00  0.0000E+00  0.0000E+00  0.0000E+00  0.0000E+00  0.0000E+00  0.0000E+00  0.0000E+00  0.0000E+00  0.0000E+00  0.0000E+00  0.0000E+00  0.0000E+00
    -32.570  0.0000E+00  0.0000E+00  0.0000E+00  0.0000E+00  0.0000E+00  0.0000E+00  0.0000E+00  0.0000E+00  0.0000E+00  0.0000E+00  0.0000E+00  0.0000E+00  0.0000E+00  0.0000E+00  0.0000E+00  0.0000E+00  0.0000E+00  0.0000E+00
    -32.354  0.0000E+00  0.0000E+00  0.0000E+00  0.0000E+00  0.0000E+00  0.0000E+00  0.0000E+00  0.0000E+00  0.0000E+00  0.0000E+00  0.0000E+00  0.0000E+00  0.0000E+00  0.0000E+00  0.0000E+00  0.0000E+00  0.0000E+00  0.0000E+00
    -32.139  0.0000E+00  0.0000E+00  0.0000E+00  0.0000E+00  0.0000E+00  0.0000E+00  0.0000E+00  0.0000E+00  0.0000E+00  0.0000E+00  0.0000E+00  0.0000E+00  0.0000E+00  0.0000E+00  0.0000E+00  0.0000E+00  0.0000E+00  0.0000E+00
    -31.923  0.0000E+00  0.0000E+00  0.0000E+00  0.0000E+00  0.0000E+00  0.0000E+00  0.0000E+00  0.0000E+00  0.0000E+00  0.0000E+00  0.0000E+00  0.0000E+00  0.0000E+00  0.0000E+00  0.0000E+00  0.0000E+00  0.0000E+00  0.0000E+00
    -31.708  0.0000E+00  0.0000E+00  0.0000E+00  0.0000E+00  0.0000E+00  0.0000E+00  0.0000E+00  0.0000E+00  0.0000E+00  0.0000E+00  0.0000E+00  0.0000E+00  0.0000E+00  0.0000E+00  0.0000E+00  0.0000E+00  0.0000E+00  0.0000E+00
    -31.493  0.0000E+00  0.0000E+00  0.0000E+00  0.0000E+00  0.0000E+00  0.0000E+00  0.0000E+00  0.0000E+00  0.0000E+00  0.0000E+00  0.0000E+00  0.0000E+00  0.0000E+00  0.0000E+00  0.0000E+00  0.0000E+00  0.0000E+00  0.0000E+00
    -31.277  0.0000E+00  0.0000E+00  0.0000E+00  0.0000E+00  0.0000E+00  0.0000E+00  0.0000E+00  0.0000E+00  0.0000E+00  0.0000E+00  0.0000E+00  0.0000E+00  0.0000E+00  0.0000E+00  0.0000E+00  0.0000E+00  0.0000E+00  0.0000E+00
    -31.062  0.0000E+00  0.0000E+00  0.0000E+00  0.0000E+00  0.0000E+00  0.0000E+00  0.0000E+00  0.0000E+00  0.0000E+00  0.0000E+00  0.0000E+00  0.0000E+00  0.0000E+00  0.0000E+00  0.0000E+00  0.0000E+00  0.0000E+00  0.0000E+00
    -30.846  0.0000E+00  0.0000E+00  0.0000E+00  0.0000E+00  0.0000E+00  0.0000E+00  0.0000E+00  0.0000E+00  0.0000E+00  0.0000E+00  0.0000E+00  0.0000E+00  0.0000E+00  0.0000E+00  0.0000E+00  0.0000E+00  0.0000E+00  0.0000E+00