   2   2   1   0
  0.2199821E+02  0.3164284E-09  0.3164283E-09  0.5073831E-09  0.5000000E-15
  1.000000000000000E-004
  CAR 
 unknown system                          
     22.10046264    -42.00721443  301      9.64785431      1.00000000
    -42.007  0.0000E+00  0.0000E+00  0.0000E+00  0.0000E+00
    -41.794  0.0000E+00  0.0000E+00  0.0000E+00  0.0000E+00
    -41.580  0.0000E+00  0.0000E+00  0.0000E+00  0.0000E+00
    -41.366  0.0000E+00  0.0000E+00  0.0000E+00  0.0000E+00
    -41.152  0.0000E+00  0.0000E+00  0.0000E+00  0.0000E+00
    -40.939  0.0000E+00  0.0000E+00  0.0000E+00  0.0000E+00
    -40.725  0.0000E+00  0.0000E+00  0.0000E+00  0.0000E+00
    -40.511  0.0000E+00  0.0000E+00  0.0000E+00  0.0000E+00
    -40.298  0.0000E+00  0.0000E+00  0.0000E+00  0.0000E+00
    -40.084  0.0000E+00  0.0000E+00  0.0000E+00  0.0000E+00
    -39.870  0.0000E+00  0.0000E+00  0.0000E+00  0.0000E+00
    -39.657  0.1940E-05  0.1941E-05  0.4145E-06  0.4149E-06
    -39.443  0.5117E-03  0.5122E-03  0.1098E-03  0.1099E-03
    -39.229  0.3576E-01  0.3579E-01  0.7751E-02  0.7758E-02
    -39.016  0.1469E+01  0.1470E+01  0.3216E+00  0.3218E+00
    -38.802  0.6722E+01  0.6722E+01  0.1758E+01  0.1758E+01
    -38.588  0.1100E+01  0.1099E+01  0.1996E+01  0.1996E+01
    -38.374  0.0000E+00  0.0000E+00  0.2000E+01  0.2000E+01
    -38.161  0.0000E+00  0.0000E+00  0.2000E+01  0.2000E+01
    -37.947  0.0000E+00  0.0000E+00  0.2000E+01  0.2000E+01
    -37.733  0.0000E+00  0.0000E+00  0.2000E+01  0.2000E+01
    -37.520  0.0000E+00  0.0000E+00  0.2000E+01  0.2000E+01
    -37.306  0.0000E+00  0.0000E+00  0.2000E+01  0.2000E+01
    -37.092  0.0000E+00  0.0000E+00  0.2000E+01  0.2000E+01
    -36.879  0.0000E+00  0.0000E+00  0.2000E+01  0.2000E+01
    -36.665  0.0000E+00  0.0000E+00  0.2000E+01  0.2000E+01
    -36.451  0.0000E+00  0.0000E+00  0.2000E+01  0.2000E+01
    -36.238  0.0000E+00  0.0000E+00  0.2000E+01  0.2000E+01
    -36.024  0.0000E+00  0.0000E+00  0.2000E+01  0.2000E+01
    -35.810  0.0000E+00  0.0000E+00  0.2000E+01  0.2000E+01
    -35.596  0.0000E+00  0.0000E+00  0.2000E+01  0.2000E+01
    -35.383  0.0000E+00  0.0000E+00  0.2000E+01  0.2000E+01
    -35.169  0.0000E+00  0.0000E+00  0.2000E+01  0.2000E+01
    -34.955  0.0000E+00  0.0000E+00  0.2000E+01  0.2000E+01
    -34.742  0.0000E+00  0.0000E+00  0.2000E+01  0.2000E+01
    -34.528  0.0000E+00  0.0000E+00  0.2000E+01  0.2000E+01
    -34.314  0.0000E+00  0.0000E+00  0.2000E+01  0.2000E+01
    -34.101  0.0000E+00  0.0000E+00  0.2000E+01  0.2000E+01
    -33.887  0.0000E+00  0.0000E+00  0.2000E+01  0.2000E+01
    -33.673  0.0000E+00  0.0000E+00  0.2000E+01  0.2000E+01
    -33.460  0.0000E+00  0.0000E+00  0.2000E+01  0.2000E+01
    -33.246  0.0000E+00  0.0000E+00  0.2000E+01  0.2000E+01
    -33.032  0.0000E+00  0.0000E+00  0.2000E+01  0.2000E+01
    -32.818  0.0000E+00  0.0000E+00  0.2000E+01  0.2000E+01
    -32.605  0.0000E+00  0.0000E+00  0.2000E+01  0.2000E+01
    -32.391  0.0000E+00  0.0000E+00  0.2000E+01  0.2000E+01
    -32.177  0.0000E+00  0.0000E+00  0.2000E+01  0.2000E+01
    -31.964  0.0000E+00  0.0000E+00  0.2000E+01  0.2000E+01
    -31.750  0.0000E+00  0.0000E+00  0.2000E+01  0.2000E+01
    -31.536  0.0000E+00  0.0000E+00  0.2000E+01  0.2000E+01
    -31.323  0.0000E+00  0.0000E+00  0.2000E+01  0.2000E+01
    -31.109  0.0000E+00  0.0000E+00  0.2000E+01  0.2000E+01
    -30.895  0.0000E+00  0.0000E+00  0.2000E+01  0.2000E+01
    -30.682  0.0000E+00  0.0000E+00  0.2000E+01  0.2000E+01
    -30.468  0.0000E+00  0.0000E+00  0.2000E+01  0.2000E+01
    -30.254  0.0000E+00  0.0000E+00  0.2000E+01  0.2000E+01
    -30.040  0.0000E+00  0.0000E+00  0.2000E+01  0.2000E+01
    -29.827  0.0000E+00  0.0000E+00  0.2000E+01  0.2000E+01
    -29.613  0.0000E+00  0.0000E+00  0.2000E+01  0.2000E+01
    -29.399  0.0000E+00  0.0000E+00  0.2000E+01  0.2000E+01
    -29.186  0.0000E+00  0.0000E+00  0.2000E+01  0.2000E+01
    -28.972  0.0000E+00  0.0000E+00  0.2000E+01  0.2000E+01
    -28.758  0.0000E+00  0.0000E+00  0.2000E+01  0.2000E+01
    -28.545  0.0000E+00  0.0000E+00  0.2000E+01  0.2000E+01
    -28.331  0.0000E+00  0.0000E+00  0.2000E+01  0.2000E+01
    -28.117  0.0000E+00  0.0000E+00  0.2000E+01  0.2000E+01
    -27.904  0.0000E+00  0.0000E+00  0.2000E+01  0.2000E+01
    -27.690  0.0000E+00  0.0000E+00  0.2000E+01  0.2000E+01
    -27.476  0.0000E+00  0.0000E+00  0.2000E+01  0.2000E+01
    -27.262  0.0000E+00  0.0000E+00  0.2000E+01  0.2000E+01
    -27.049  0.0000E+00  0.0000E+00  0.2000E+01  0.2000E+01
    -26.835  0.0000E+00  0.0000E+00  0.2000E+01  0.2000E+01
    -26.621  0.0000E+00  0.0000E+00  0.2000E+01  0.2000E+01
    -26.408  0.0000E+00  0.0000E+00  0.2000E+01  0.2000E+01
    -26.194  0.0000E+00  0.0000E+00  0.2000E+01  0.2000E+01
    -25.980  0.0000E+00  0.0000E+00  0.2000E+01  0.2000E+01
    -25.767  0.0000E+00  0.0000E+00  0.2000E+01  0.2000E+01
    -25.553  0.0000E+00  0.0000E+00  0.2000E+01  0.2000E+01
    -25.339  0.0000E+00  0.0000E+00  0.2000E+01  0.2000E+01
    -25.126  0.0000E+00  0.0000E+00  0.2000E+01  0.2000E+01
    -24.912  0.0000E+00  0.0000E+00  0.2000E+01  0.2000E+01
    -24.698  0.0000E+00  0.0000E+00  0.2000E+01  0.2000E+01
    -24.484  0.0000E+00  0.0000E+00  0.2000E+01  0.2000E+01
    -24.271  0.0000E+00  0.0000E+00  0.2000E+01  0.2000E+01
    -24.057  0.0000E+00  0.0000E+00  0.2000E+01  0.2000E+01
    -23.843  0.0000E+00  0.0000E+00  0.2000E+01  0.2000E+01
    -23.630  0.0000E+00  0.0000E+00  0.2000E+01  0.2000E+01
    -23.416  0.0000E+00  0.0000E+00  0.2000E+01  0.2000E+01
    -23.202  0.0000E+00  0.0000E+00  0.2000E+01  0.2000E+01
    -22.989  0.0000E+00  0.0000E+00  0.2000E+01  0.2000E+01
    -22.775  0.0000E+00  0.0000E+00  0.2000E+01  0.2000E+01
    -22.561  0.0000E+00  0.0000E+00  0.2000E+01  0.2000E+01
    -22.348  0.0000E+00  0.0000E+00  0.2000E+01  0.2000E+01
    -22.134  0.0000E+00  0.0000E+00  0.2000E+01  0.2000E+01
    -21.920  0.0000E+00  0.0000E+00  0.2000E+01  0.2000E+01
    -21.706  0.0000E+00  0.0000E+00  0.2000E+01  0.2000E+01
    -21.493  0.0000E+00  0.0000E+00  0.2000E+01  0.2000E+01
    -21.279  0.0000E+00  0.0000E+00  0.2000E+01  0.2000E+01
    -21.065  0.0000E+00  0.0000E+00  0.2000E+01  0.2000E+01
    -20.852  0.0000E+00  0.0000E+00  0.2000E+01  0.2000E+01
    -20.638  0.0000E+00  0.0000E+00  0.2000E+01  0.2000E+01
    -20.424  0.0000E+00  0.0000E+00  0.2000E+01  0.2000E+01
    -20.211  0.0000E+00  0.0000E+00  0.2000E+01  0.2000E+01
    -19.997  0.0000E+00  0.0000E+00  0.2000E+01  0.2000E+01
    -19.783  0.0000E+00  0.0000E+00  0.2000E+01  0.2000E+01
    -19.570  0.0000E+00  0.0000E+00  0.2000E+01  0.2000E+01
    -19.356  0.0000E+00  0.0000E+00  0.2000E+01  0.2000E+01
    -19.142  0.0000E+00  0.0000E+00  0.2000E+01  0.2000E+01
    -18.928  0.0000E+00  0.0000E+00  0.2000E+01  0.2000E+01
    -18.715  0.0000E+00  0.0000E+00  0.2000E+01  0.2000E+01
    -18.501  0.0000E+00  0.0000E+00  0.2000E+01  0.2000E+01
    -18.287  0.1980E-06  0.1982E-06  0.2000E+01  0.2000E+01
    -18.074  0.1047E-03  0.1047E-03  0.2000E+01  0.2000E+01
    -17.860  0.7776E-02  0.7781E-02  0.2002E+01  0.2002E+01
    -17.646  0.3902E+00  0.3903E+00  0.2085E+01  0.2085E+01
    -17.433  0.3529E+01  0.3529E+01  0.2839E+01  0.2839E+01
    -17.219  0.4119E+01  0.4119E+01  0.3720E+01  0.3720E+01
    -17.005  0.3993E+01  0.3993E+01  0.4581E+01  0.4581E+01
    -16.792  0.6781E+01  0.6780E+01  0.6033E+01  0.6033E+01
    -16.578  0.7683E+01  0.7683E+01  0.7680E+01  0.7680E+01
    -16.364  0.1418E+01  0.1418E+01  0.7993E+01  0.7993E+01
    -16.150  0.8603E-02  0.8607E-02  0.8000E+01  0.8000E+01
    -15.937  0.0000E+00  0.0000E+00  0.8000E+01  0.8000E+01
    -15.723  0.0000E+00  0.0000E+00  0.8000E+01  0.8000E+01
    -15.509  0.0000E+00  0.0000E+00  0.8000E+01  0.8000E+01
    -15.296  0.0000E+00  0.0000E+00  0.8000E+01  0.8000E+01
    -15.082  0.0000E+00  0.0000E+00  0.8000E+01  0.8000E+01
    -14.868  0.0000E+00  0.0000E+00  0.8000E+01  0.8000E+01
    -14.655  0.0000E+00  0.0000E+00  0.8000E+01  0.8000E+01
    -14.441  0.0000E+00  0.0000E+00  0.8000E+01  0.8000E+01
    -14.227  0.0000E+00  0.0000E+00  0.8000E+01  0.8000E+01
    -14.014  0.0000E+00  0.0000E+00  0.8000E+01  0.8000E+01
    -13.800  0.0000E+00  0.0000E+00  0.8000E+01  0.8000E+01
    -13.586  0.0000E+00  0.0000E+00  0.8000E+01  0.8000E+01
    -13.372  0.0000E+00  0.0000E+00  0.8000E+01  0.8000E+01
    -13.159  0.0000E+00  0.0000E+00  0.8000E+01  0.8000E+01
    -12.945  0.0000E+00  0.0000E+00  0.8000E+01  0.8000E+01
    -12.731  0.0000E+00  0.0000E+00  0.8000E+01  0.8000E+01
    -12.518  0.0000E+00  0.0000E+00  0.8000E+01  0.8000E+01
    -12.304  0.0000E+00  0.0000E+00  0.8000E+01  0.8000E+01
    -12.090  0.0000E+00  0.0000E+00  0.8000E+01  0.8000E+01
    -11.877  0.0000E+00  0.0000E+00  0.8000E+01  0.8000E+01
    -11.663  0.0000E+00  0.0000E+00  0.8000E+01  0.8000E+01
    -11.449  0.0000E+00  0.0000E+00  0.8000E+01  0.8000E+01
    -11.236  0.0000E+00  0.0000E+00  0.8000E+01  0.8000E+01
    -11.022  0.0000E+00  0.0000E+00  0.8000E+01  0.8000E+01
    -10.808  0.0000E+00  0.0000E+00  0.8000E+01  0.8000E+01
    -10.594  0.0000E+00  0.0000E+00  0.8000E+01  0.8000E+01
    -10.381  0.0000E+00  0.0000E+00  0.8000E+01  0.8000E+01
    -10.167  0.0000E+00  0.0000E+00  0.8000E+01  0.8000E+01
     -9.953  0.0000E+00  0.0000E+00  0.8000E+01  0.8000E+01
     -9.740  0.0000E+00  0.0000E+00  0.8000E+01  0.8000E+01
     -9.526  0.0000E+00  0.0000E+00  0.8000E+01  0.8000E+01
     -9.312  0.0000E+00  0.0000E+00  0.8000E+01  0.8000E+01
     -9.099  0.0000E+00  0.0000E+00  0.8000E+01  0.8000E+01
     -8.885  0.0000E+00  0.0000E+00  0.8000E+01  0.8000E+01
     -8.671  0.0000E+00  0.0000E+00  0.8000E+01  0.8000E+01
     -8.458  0.0000E+00  0.0000E+00  0.8000E+01  0.8000E+01
     -8.244  0.0000E+00  0.0000E+00  0.8000E+01  0.8000E+01
     -8.030  0.0000E+00  0.0000E+00  0.8000E+01  0.8000E+01
     -7.816  0.0000E+00  0.0000E+00  0.8000E+01  0.8000E+01
     -7.603  0.0000E+00  0.0000E+00  0.8000E+01  0.8000E+01
     -7.389  0.0000E+00  0.0000E+00  0.8000E+01  0.8000E+01
     -7.175  0.0000E+00  0.0000E+00  0.8000E+01  0.8000E+01
     -6.962  0.0000E+00  0.0000E+00  0.8000E+01  0.8000E+01
     -6.748  0.0000E+00  0.0000E+00  0.8000E+01  0.8000E+01
     -6.534  0.0000E+00  0.0000E+00  0.8000E+01  0.8000E+01
     -6.321  0.0000E+00  0.0000E+00  0.8000E+01  0.8000E+01
     -6.107  0.0000E+00  0.0000E+00  0.8000E+01  0.8000E+01
     -5.893  0.0000E+00  0.0000E+00  0.8000E+01  0.8000E+01
     -5.680  0.0000E+00  0.0000E+00  0.8000E+01  0.8000E+01
     -5.466  0.0000E+00  0.0000E+00  0.8000E+01  0.8000E+01
     -5.252  0.0000E+00  0.0000E+00  0.8000E+01  0.8000E+01
     -5.038  0.0000E+00  0.0000E+00  0.8000E+01  0.8000E+01
     -4.825  0.0000E+00  0.0000E+00  0.8000E+01  0.8000E+01
     -4.611  0.0000E+00  0.0000E+00  0.8000E+01  0.8000E+01
     -4.397  0.0000E+00  0.0000E+00  0.8000E+01  0.8000E+01
     -4.184  0.0000E+00  0.0000E+00  0.8000E+01  0.8000E+01
     -3.970  0.0000E+00  0.0000E+00  0.8000E+01  0.8000E+01
     -3.756  0.0000E+00  0.0000E+00  0.8000E+01  0.8000E+01
     -3.543  0.0000E+00  0.0000E+00  0.8000E+01  0.8000E+01
     -3.329  0.0000E+00  0.0000E+00  0.8000E+01  0.8000E+01
     -3.115  0.0000E+00  0.0000E+00  0.8000E+01  0.8000E+01
     -2.902  0.0000E+00  0.0000E+00  0.8000E+01  0.8000E+01
     -2.688  0.0000E+00  0.0000E+00  0.8000E+01  0.8000E+01
     -2.474  0.0000E+00  0.0000E+00  0.8000E+01  0.8000E+01
     -2.260  0.0000E+00  0.0000E+00  0.8000E+01  0.8000E+01
     -2.047  0.0000E+00  0.0000E+00  0.8000E+01  0.8000E+01
     -1.833  0.0000E+00  0.0000E+00  0.8000E+01  0.8000E+01
     -1.619  0.0000E+00  0.0000E+00  0.8000E+01  0.8000E+01
     -1.406  0.0000E+00  0.0000E+00  0.8000E+01  0.8000E+01
     -1.192  0.0000E+00  0.0000E+00  0.8000E+01  0.8000E+01
     -0.978  0.0000E+00  0.0000E+00  0.8000E+01  0.8000E+01
     -0.765  0.0000E+00  0.0000E+00  0.8000E+01  0.8000E+01
     -0.551  0.0000E+00  0.0000E+00  0.8000E+01  0.8000E+01
     -0.337  0.0000E+00  0.0000E+00  0.8000E+01  0.8000E+01
     -0.124  0.0000E+00  0.0000E+00  0.8000E+01  0.8000E+01
      0.090  0.0000E+00  0.0000E+00  0.8000E+01  0.8000E+01
      0.304  0.0000E+00  0.0000E+00  0.8000E+01  0.8000E+01
      0.518  0.0000E+00  0.0000E+00  0.8000E+01  0.8000E+01
      0.731  0.0000E+00  0.0000E+00  0.8000E+01  0.8000E+01
      0.945  0.0000E+00  0.0000E+00  0.8000E+01  0.8000E+01
      1.159  0.0000E+00  0.0000E+00  0.8000E+01  0.8000E+01
      1.372  0.0000E+00  0.0000E+00  0.8000E+01  0.8000E+01
      1.586  0.0000E+00  0.0000E+00  0.8000E+01  0.8000E+01
      1.800  0.0000E+00  0.0000E+00  0.8000E+01  0.8000E+01
      2.013  0.0000E+00  0.0000E+00  0.8000E+01  0.8000E+01
      2.227  0.0000E+00  0.0000E+00  0.8000E+01  0.8000E+01
      2.441  0.0000E+00  0.0000E+00  0.8000E+01  0.8000E+01
      2.654  0.0000E+00  0.0000E+00  0.8000E+01  0.8000E+01
      2.868  0.0000E+00  0.0000E+00  0.8000E+01  0.8000E+01
      3.082  0.0000E+00  0.0000E+00  0.8000E+01  0.8000E+01
      3.296  0.2080E-07  0.2110E-07  0.8000E+01  0.8000E+01
      3.509  0.2060E-05  0.2089E-05  0.8000E+01  0.8000E+01
      3.723  0.1480E-03  0.1500E-03  0.8000E+01  0.8000E+01
      3.937  0.4927E-02  0.4969E-02  0.8001E+01  0.8001E+01
      4.150  0.3352E-01  0.3365E-01  0.8008E+01  0.8008E+01
      4.364  0.4004E-01  0.4002E-01  0.8017E+01  0.8017E+01
      4.578  0.8560E-01  0.8574E-01  0.8035E+01  0.8035E+01
      4.791  0.7208E-01  0.7202E-01  0.8051E+01  0.8051E+01
      5.005  0.9730E-01  0.9749E-01  0.8072E+01  0.8072E+01
      5.219  0.1213E+00  0.1212E+00  0.8098E+01  0.8098E+01
      5.432  0.1638E+00  0.1639E+00  0.8133E+01  0.8133E+01
      5.646  0.1088E+00  0.1086E+00  0.8156E+01  0.8156E+01
      5.860  0.2161E+00  0.2167E+00  0.8202E+01  0.8203E+01
      6.074  0.2646E+00  0.2645E+00  0.8259E+01  0.8259E+01
      6.287  0.2420E+00  0.2423E+00  0.8311E+01  0.8311E+01
      6.501  0.5737E+00  0.5750E+00  0.8434E+01  0.8434E+01
      6.715  0.1015E+01  0.1014E+01  0.8651E+01  0.8652E+01
      6.928  0.9805E+00  0.9812E+00  0.8862E+01  0.8863E+01
      7.142  0.1125E+01  0.1125E+01  0.9104E+01  0.9104E+01
      7.356  0.1286E+01  0.1286E+01  0.9380E+01  0.9381E+01
      7.569  0.1448E+01  0.1447E+01  0.9690E+01  0.9691E+01
      7.783  0.9816E+00  0.9811E+00  0.9902E+01  0.9902E+01
      7.997  0.1021E+01  0.1021E+01  0.1012E+02  0.1012E+02
      8.210  0.1010E+01  0.1010E+01  0.1034E+02  0.1034E+02
      8.424  0.1222E+01  0.1222E+01  0.1060E+02  0.1060E+02
      8.638  0.1318E+01  0.1318E+01  0.1088E+02  0.1088E+02
      8.852  0.1441E+01  0.1441E+01  0.1119E+02  0.1119E+02
      9.065  0.1580E+01  0.1581E+01  0.1153E+02  0.1153E+02
      9.279  0.1087E+01  0.1086E+01  0.1177E+02  0.1177E+02
      9.493  0.5178E+00  0.5179E+00  0.1188E+02  0.1188E+02
      9.706  0.8616E+00  0.8624E+00  0.1206E+02  0.1206E+02
      9.920  0.1709E+01  0.1709E+01  0.1243E+02  0.1243E+02
     10.134  0.1520E+01  0.1520E+01  0.1275E+02  0.1276E+02
     10.347  0.1620E+01  0.1619E+01  0.1310E+02  0.1310E+02
     10.561  0.1511E+01  0.1511E+01  0.1343E+02  0.1343E+02
     10.775  0.1785E+01  0.1785E+01  0.1381E+02  0.1381E+02
     10.988  0.1777E+01  0.1777E+01  0.1419E+02  0.1419E+02
     11.202  0.1793E+01  0.1793E+01  0.1458E+02  0.1458E+02
     11.416  0.1277E+01  0.1276E+01  0.1485E+02  0.1485E+02
     11.630  0.9995E+00  0.9990E+00  0.1507E+02  0.1507E+02
     11.843  0.7565E+00  0.7564E+00  0.1523E+02  0.1523E+02
     12.057  0.8456E+00  0.8455E+00  0.1542E+02  0.1542E+02
     12.271  0.5117E+00  0.5117E+00  0.1553E+02  0.1553E+02
     12.484  0.8109E+00  0.8110E+00  0.1570E+02  0.1570E+02
     12.698  0.7187E+00  0.7185E+00  0.1585E+02  0.1585E+02
     12.912  0.5015E+00  0.5016E+00  0.1596E+02  0.1596E+02
     13.125  0.7659E+00  0.7660E+00  0.1613E+02  0.1613E+02
     13.339  0.7764E+00  0.7763E+00  0.1629E+02  0.1629E+02
     13.553  0.6956E+00  0.6955E+00  0.1644E+02  0.1644E+02
     13.766  0.7854E+00  0.7856E+00  0.1661E+02  0.1661E+02
     13.980  0.1058E+01  0.1058E+01  0.1684E+02  0.1684E+02
     14.194  0.1339E+01  0.1340E+01  0.1712E+02  0.1712E+02
     14.408  0.1444E+01  0.1443E+01  0.1743E+02  0.1743E+02
     14.621  0.1434E+01  0.1434E+01  0.1774E+02  0.1774E+02
     14.835  0.1653E+01  0.1653E+01  0.1810E+02  0.1810E+02
     15.049  0.1712E+01  0.1712E+01  0.1846E+02  0.1846E+02
     15.262  0.1166E+01  0.1166E+01  0.1872E+02  0.1872E+02
     15.476  0.5634E+00  0.5633E+00  0.1884E+02  0.1884E+02
     15.690  0.6237E+00  0.6239E+00  0.1897E+02  0.1897E+02
     15.903  0.5603E+00  0.5601E+00  0.1909E+02  0.1909E+02
     16.117  0.3787E+00  0.3788E+00  0.1918E+02  0.1918E+02
     16.331  0.4069E+00  0.4067E+00  0.1926E+02  0.1926E+02
     16.544  0.3956E+00  0.3946E+00  0.1935E+02  0.1935E+02
     16.758  0.5595E+00  0.5592E+00  0.1947E+02  0.1947E+02
     16.972  0.5312E+00  0.5465E+00  0.1958E+02  0.1959E+02
     17.186  0.4907E+00  0.4788E+00  0.1969E+02  0.1969E+02
     17.399  0.4170E+00  0.4053E+00  0.1978E+02  0.1978E+02
     17.613  0.2860E+00  0.2916E+00  0.1984E+02  0.1984E+02
     17.827  0.1531E+00  0.1560E+00  0.1987E+02  0.1987E+02
     18.040  0.1331E+00  0.1317E+00  0.1990E+02  0.1990E+02
     18.254  0.1950E+00  0.1949E+00  0.1994E+02  0.1994E+02
     18.468  0.1005E+00  0.1027E+00  0.1996E+02  0.1996E+02
     18.681  0.4628E-01  0.5527E-01  0.1997E+02  0.1998E+02
     18.895  0.6774E-01  0.7142E-01  0.1999E+02  0.1999E+02
     19.109  0.2297E-01  0.3702E-01  0.1999E+02  0.2000E+02
     19.322  0.2820E-01  0.1468E-02  0.2000E+02  0.2000E+02
     19.536  0.2249E-02  0.0000E+00  0.2000E+02  0.2000E+02
     19.750  0.0000E+00  0.0000E+00  0.2000E+02  0.2000E+02
     19.964  0.0000E+00  0.0000E+00  0.2000E+02  0.2000E+02
     20.177  0.0000E+00  0.0000E+00  0.2000E+02  0.2000E+02
     20.391  0.0000E+00  0.0000E+00  0.2000E+02  0.2000E+02
     20.605  0.0000E+00  0.0000E+00  0.2000E+02  0.2000E+02
     20.818  0.0000E+00  0.0000E+00  0.2000E+02  0.2000E+02
     21.032  0.0000E+00  0.0000E+00  0.2000E+02  0.2000E+02
     21.246  0.0000E+00  0.0000E+00  0.2000E+02  0.2000E+02
     21.459  0.0000E+00  0.0000E+00  0.2000E+02  0.2000E+02
     21.673  0.0000E+00  0.0000E+00  0.2000E+02  0.2000E+02
     21.887  0.0000E+00  0.0000E+00  0.2000E+02  0.2000E+02
     22.100  0.0000E+00  0.0000E+00  0.2000E+02  0.2000E+02
     22.10046264    -42.00721443  301      9.64785431      1.00000000
    -42.007  0.0000E+00  0.0000E+00  0.0000E+00  0.0000E+00  0.0000E+00  0.0000E+00  0.0000E+00  0.0000E+00  0.0000E+00  0.0000E+00  0.0000E+00  0.0000E+00  0.0000E+00  0.0000E+00  0.0000E+00  0.0000E+00  0.0000E+00  0.0000E+00
    -41.794  0.0000E+00  0.0000E+00  0.0000E+00  0.0000E+00  0.0000E+00  0.0000E+00  0.0000E+00  0.0000E+00  0.0000E+00  0.0000E+00  0.0000E+00  0.0000E+00  0.0000E+00  0.0000E+00  0.0000E+00  0.0000E+00  0.0000E+00  0.0000E+00
    -41.580  0.0000E+00  0.0000E+00  0.0000E+00  0.0000E+00  0.0000E+00  0.0000E+00  0.0000E+00  0.0000E+00  0.0000E+00  0.0000E+00  0.0000E+00  0.0000E+00  0.0000E+00  0.0000E+00  0.0000E+00  0.0000E+00  0.0000E+00  0.0000E+00
    -41.366  0.0000E+00  0.0000E+00  0.0000E+00  0.0000E+00  0.0000E+00  0.0000E+00  0.0000E+00  0.0000E+00  0.0000E+00  0.0000E+00  0.0000E+00  0.0000E+00  0.0000E+00  0.0000E+00  0.0000E+00  0.0000E+00  0.0000E+00  0.0000E+00
    -41.152  0.0000E+00  0.0000E+00  0.0000E+00  0.0000E+00  0.0000E+00  0.0000E+00  0.0000E+00  0.0000E+00  0.0000E+00  0.0000E+00  0.0000E+00  0.0000E+00  0.0000E+00  0.0000E+00  0.0000E+00  0.0000E+00  0.0000E+00  0.0000E+00
    -40.939  0.0000E+00  0.0000E+00  0.0000E+00  0.0000E+00  0.0000E+00  0.0000E+00  0.0000E+00  0.0000E+00  0.0000E+00  0.0000E+00  0.0000E+00  0.0000E+00  0.0000E+00  0.0000E+00  0.0000E+00  0.0000E+00  0.0000E+00  0.0000E+00
    -40.725  0.0000E+00  0.0000E+00  0.0000E+00  0.0000E+00  0.0000E+00  0.0000E+00  0.0000E+00  0.0000E+00  0.0000E+00  0.0000E+00  0.0000E+00  0.0000E+00  0.0000E+00  0.0000E+00  0.0000E+00  0.0000E+00  0.0000E+00  0.0000E+00
    -40.511  0.0000E+00  0.0000E+00  0.0000E+00  0.0000E+00  0.0000E+00  0.0000E+00  0.0000E+00  0.0000E+00  0.0000E+00  0.0000E+00  0.0000E+00  0.0000E+00  0.0000E+00  0.0000E+00  0.0000E+00  0.0000E+00  0.0000E+00  0.0000E+00
    -40.298  0.0000E+00  0.0000E+00  0.0000E+00  0.0000E+00  0.0000E+00  0.0000E+00  0.0000E+00  0.0000E+00  0.0000E+00  0.0000E+00  0.0000E+00  0.0000E+00  0.0000E+00  0.0000E+00  0.0000E+00  0.0000E+00  0.0000E+00  0.0000E+00
    -40.084  0.0000E+00  0.0000E+00  0.0000E+00  0.0000E+00  0.0000E+00  0.0000E+00  0.0000E+00  0.0000E+00  0.0000E+00  0.0000E+00  0.0000E+00  0.0000E+00  0.0000E+00  0.0000E+00  0.0000E+00  0.0000E+00  0.0000E+00  0.0000E+00
    -39.870  0.0000E+00  0.0000E+00  0.0000E+00  0.0000E+00  0.0000E+00  0.0000E+00  0.0000E+00  0.0000E+00  0.0000E+00  0.0000E+00  0.0000E+00  0.0000E+00  0.0000E+00  0.0000E+00  0.0000E+00  0.0000E+00  0.0000E+00  0.0000E+00
    -39.657  0.9577E-06  0.9586E-06  0.7428E-11  0.7447E-11  0.8514E-11  0.8529E-11  0.7428E-11  0.7447E-11  0.3205E-12  0.3223E-12  0.1765E-12  0.1770E-12  0.1110E-11  0.1114E-11  0.1765E-12  0.1770E-12  0.3205E-12  0.3223E-12
    -39.443  0.2533E-03  0.2535E-03  0.3018E-08  0.3024E-08  0.3432E-08  0.3436E-08  0.3018E-08  0.3024E-08  0.6603E-09  0.6613E-09  0.5308E-09  0.5314E-09  0.9836E-09  0.9851E-09  0.5308E-09  0.5314E-09  0.6603E-09  0.6613E-09
    -39.229  0.1770E-01  0.1772E-01  0.2111E-06  0.2115E-06  0.2402E-06  0.2405E-06  0.2111E-06  0.2115E-06  0.4648E-07  0.4654E-07  0.3741E-07  0.3745E-07  0.6914E-07  0.6924E-07  0.3741E-07  0.3745E-07  0.4648E-07  0.4654E-07
    -39.016  0.7277E+00  0.7282E+00  0.8618E-05  0.8631E-05  0.9949E-05  0.9958E-05  0.8618E-05  0.8631E-05  0.2497E-05  0.2499E-05  0.2117E-05  0.2119E-05  0.3569E-05  0.3572E-05  0.2117E-05  0.2119E-05  0.2497E-05  0.2499E-05
    -38.802  0.3337E+01  0.3337E+01  0.2512E-04  0.2513E-04  0.3080E-04  0.3080E-04  0.2512E-04  0.2513E-04  0.1405E-04  0.1404E-04  0.1469E-04  0.1469E-04  0.1985E-04  0.1984E-04  0.1469E-04  0.1469E-04  0.1405E-04  0.1404E-04
    -38.588  0.5467E+00  0.5463E+00  0.2554E-05  0.2551E-05  0.3205E-05  0.3201E-05  0.2554E-05  0.2551E-05  0.2088E-05  0.2085E-05  0.2509E-05  0.2507E-05  0.2872E-05  0.2869E-05  0.2509E-05  0.2507E-05  0.2088E-05  0.2085E-05
    -38.374  0.0000E+00  0.0000E+00  0.0000E+00  0.0000E+00  0.0000E+00  0.0000E+00  0.0000E+00  0.0000E+00  0.0000E+00  0.0000E+00  0.0000E+00  0.0000E+00  0.0000E+00  0.0000E+00  0.0000E+00  0.0000E+00  0.0000E+00  0.0000E+00
    -38.161  0.0000E+00  0.0000E+00  0.0000E+00  0.0000E+00  0.0000E+00  0.0000E+00  0.0000E+00  0.0000E+00  0.0000E+00  0.0000E+00  0.0000E+00  0.0000E+00  0.0000E+00  0.0000E+00  0.0000E+00  0.0000E+00  0.0000E+00  0.0000E+00
    -37.947  0.0000E+00  0.0000E+00  0.0000E+00  0.0000E+00  0.0000E+00  0.0000E+00  0.0000E+00  0.0000E+00  0.0000E+00  0.0000E+00  0.0000E+00  0.0000E+00  0.0000E+00  0.0000E+00  0.0000E+00  0.0000E+00  0.0000E+00  0.0000E+00
    -37.733  0.0000E+00  0.0000E+00  0.0000E+00  0.0000E+00  0.0000E+00  0.0000E+00  0.0000E+00  0.0000E+00  0.0000E+00  0.0000E+00  0.0000E+00  0.0000E+00  0.0000E+00  0.0000E+00  0.0000E+00  0.0000E+00  0.0000E+00  0.0000E+00
    -37.520  0.0000E+00  0.0000E+00  0.0000E+00  0.0000E+00  0.0000E+00  0.0000E+00  0.0000E+00  0.0000E+00  0.0000E+00  0.0000E+00  0.0000E+00  0.0000E+00  0.0000E+00  0.0000E+00  0.0000E+00  0.0000E+00  0.0000E+00  0.0000E+00
    -37.306  0.0000E+00  0.0000E+00  0.0000E+00  0.0000E+00  0.0000E+00  0.0000E+00  0.0000E+00  0.0000E+00  0.0000E+00  0.0000E+00  0.0000E+00  0.0000E+00  0.0000E+00  0.0000E+00  0.0000E+00  0.0000E+00  0.0000E+00  0.0000E+00
    -37.092  0.0000E+00  0.0000E+00  0.0000E+00  0.0000E+00  0.0000E+00  0.0000E+00  0.0000E+00  0.0000E+00  0.0000E+00  0.0000E+00  0.0000E+00  0.0000E+00  0.0000E+00  0.0000E+00  0.0000E+00  0.0000E+00  0.0000E+00  0.0000E+00
    -36.879  0.0000E+00  0.0000E+00  0.0000E+00  0.0000E+00  0.0000E+00  0.0000E+00  0.0000E+00  0.0000E+00  0.0000E+00  0.0000E+00  0.0000E+00  0.0000E+00  0.0000E+00  0.0000E+00  0.0000E+00  0.0000E+00  0.0000E+00  0.0000E+00
    -36.665  0.0000E+00  0.0000E+00  0.0000E+00  0.0000E+00  0.0000E+00  0.0000E+00  0.0000E+00  0.0000E+00  0.0000E+00  0.0000E+00  0.0000E+00  0.0000E+00  0.0000E+00  0.0000E+00  0.0000E+00  0.0000E+00  0.0000E+00  0.0000E+00
    -36.451  0.0000E+00  0.0000E+00  0.0000E+00  0.0000E+00  0.0000E+00  0.0000E+00  0.0000E+00  0.0000E+00  0.0000E+00  0.0000E+00  0.0000E+00  0.0000E+00  0.0000E+00  0.0000E+00  0.0000E+00  0.0000E+00  0.0000E+00  0.0000E+00
    -36.238  0.0000E+00  0.0000E+00  0.0000E+00  0.0000E+00  0.0000E+00  0.0000E+00  0.0000E+00  0.0000E+00  0.0000E+00  0.0000E+00  0.0000E+00  0.0000E+00  0.0000E+00  0.0000E+00  0.0000E+00  0.0000E+00  0.0000E+00  0.0000E+00
    -36.024  0.0000E+00  0.0000E+00  0.0000E+00  0.0000E+00  0.0000E+00  0.0000E+00  0.0000E+00  0.0000E+00  0.0000E+00  0.0000E+00  0.0000E+00  0.0000E+00  0.0000E+00  0.0000E+00  0.0000E+00  0.0000E+00  0.0000E+00  0.0000E+00
    -35.810  0.0000E+00  0.0000E+00  0.0000E+00  0.0000E+00  0.0000E+00  0.0000E+00  0.0000E+00  0.0000E+00  0.0000E+00  0.0000E+00  0.0000E+00  0.0000E+00  0.0000E+00  0.0000E+00  0.0000E+00  0.0000E+00  0.0000E+00  0.0000E+00
    -35.596  0.0000E+00  0.0000E+00  0.0000E+00  0.0000E+00  0.0000E+00  0.0000E+00  0.0000E+00  0.0000E+00  0.0000E+00  0.0000E+00  0.0000E+00  0.0000E+00  0.0000E+00  0.0000E+00  0.0000E+00  0.0000E+00  0.0000E+00  0.0000E+00
    -35.383  0.0000E+00  0.0000E+00  0.0000E+00  0.0000E+00  0.0000E+00  0.0000E+00  0.0000E+00  0.0000E+00  0.0000E+00  0.0000E+00  0.0000E+00  0.0000E+00  0.0000E+00  0.0000E+00  0.0000E+00  0.0000E+00  0.0000E+00  0.0000E+00
    -35.169  0.0000E+00  0.0000E+00  0.0000E+00  0.0000E+00  0.0000E+00  0.0000E+00  0.0000E+00  0.0000E+00  0.0000E+00  0.0000E+00  0.0000E+00  0.0000E+00  0.0000E+00  0.0000E+00  0.0000E+00  0.0000E+00  0.0000E+00  0.0000E+00
    -34.955  0.0000E+00  0.0000E+00  0.0000E+00  0.0000E+00  0.0000E+00  0.0000E+00  0.0000E+00  0.0000E+00  0.0000E+00  0.0000E+00  0.0000E+00  0.0000E+00  0.0000E+00  0.0000E+00  0.0000E+00  0.0000E+00  0.0000E+00  0.0000E+00
    -34.742  0.0000E+00  0.0000E+00  0.0000E+00  0.0000E+00  0.0000E+00  0.0000E+00  0.0000E+00  0.0000E+00  0.0000E+00  0.0000E+00  0.0000E+00  0.0000E+00  0.0000E+00  0.0000E+00  0.0000E+00  0.0000E+00  0.0000E+00  0.0000E+00
    -34.528  0.0000E+00  0.0000E+00  0.0000E+00  0.0000E+00  0.0000E+00  0.0000E+00  0.0000E+00  0.0000E+00  0.0000E+00  0.0000E+00  0.0000E+00  0.0000E+00  0.0000E+00  0.0000E+00  0.0000E+00  0.0000E+00  0.0000E+00  0.0000E+00
    -34.314  0.0000E+00  0.0000E+00  0.0000E+00  0.0000E+00  0.0000E+00  0.0000E+00  0.0000E+00  0.0000E+00  0.0000E+00  0.0000E+00  0.0000E+00  0.0000E+00  0.0000E+00  0.0000E+00  0.0000E+00  0.0000E+00  0.0000E+00  0.0000E+00
    -34.101  0.0000E+00  0.0000E+00  0.0000E+00  0.0000E+00  0.0000E+00  0.0000E+00  0.0000E+00  0.0000E+00  0.0000E+00  0.0000E+00  0.0000E+00  0.0000E+00  0.0000E+00  0.0000E+00  0.0000E+00  0.0000E+00  0.0000E+00  0.0000E+00
    -33.887  0.0000E+00  0.0000E+00  0.0000E+00  0.0000E+00  0.0000E+00  0.0000E+00  0.0000E+00  0.0000E+00  0.0000E+00  0.0000E+00  0.0000E+00  0.0000E+00  0.0000E+00  0.0000E+00  0.0000E+00  0.0000E+00  0.0000E+00  0.0000E+00
    -33.673  0.0000E+00  0.0000E+00  0.0000E+00  0.0000E+00  0.0000E+00  0.0000E+00  0.0000E+00  0.0000E+00  0.0000E+00  0.0000E+00  0.0000E+00  0.0000E+00  0.0000E+00  0.0000E+00  0.0000E+00  0.0000E+00  0.0000E+00  0.0000E+00
    -33.460  0.0000E+00  0.0000E+00  0.0000E+00  0.0000E+00  0.0000E+00  0.0000E+00  0.0000E+00  0.0000E+00  0.0000E+00  0.0000E+00  0.0000E+00  0.0000E+00  0.0000E+00  0.0000E+00  0.0000E+00  0.0000E+00  0.0000E+00  0.0000E+00
    -33.246  0.0000E+00  0.0000E+00  0.0000E+00  0.0000E+00  0.0000E+00  0.0000E+00  0.0000E+00  0.0000E+00  0.0000E+00  0.0000E+00  0.0000E+00  0.0000E+00  0.0000E+00  0.0000E+00  0.0000E+00  0.0000E+00  0.0000E+00  0.0000E+00
    -33.032  0.0000E+00  0.0000E+00  0.0000E+00  0.0000E+00  0.0000E+00  0.0000E+00  0.0000E+00  0.0000E+00  0.0000E+00  0.0000E+00  0.0000E+00  0.0000E+00  0.0000E+00  0.0000E+00  0.0000E+00  0.0000E+00  0.0000E+00  0.0000E+00
    -32.818  0.0000E+00  0.0000E+00  0.0000E+00  0.0000E+00  0.0000E+00  0.0000E+00  0.0000E+00  0.0000E+00  0.0000E+00  0.0000E+00  0.0000E+00  0.0000E+00  0.0000E+00  0.0000E+00  0.0000E+00  0.0000E+00  0.0000E+00  0.0000E+00
    -32.605  0.0000E+00  0.0000E+00  0.0000E+00  0.0000E+00  0.0000E+00  0.0000E+00  0.0000E+00  0.0000E+00  0.0000E+00  0.0000E+00  0.0000E+00  0.0000E+00  0.0000E+00  0.0000E+00  0.0000E+00  0.0000E+00  0.0000E+00  0.0000E+00
    -32.391  0.0000E+00  0.0000E+00  0.0000E+00  0.0000E+00  0.0000E+00  0.0000E+00  0.0000E+00  0.0000E+00  0.0000E+00  0.0000E+00  0.0000E+00  0.0000E+00  0.0000E+00  0.0000E+00  0.0000E+00  0.0000E+00  0.0000E+00  0.0000E+00
    -32.177  0.0000E+00  0.0000E+00  0.0000E+00  0.0000E+00  0.0000E+00  0.0000E+00  0.0000E+00  0.0000E+00  0.0000E+00  0.0000E+00  0.0000E+00  0.0000E+00  0.0000E+00  0.0000E+00  0.0000E+00  0.0000E+00  0.0000E+00  0.0000E+00
    -31.964  0.0000E+00  0.0000E+00  0.0000E+00  0.0000E+00  0.0000E+00  0.0000E+00  0.0000E+00  0.0000E+00  0.0000E+00  0.0000E+00  0.0000E+00  0.0000E+00  0.0000E+00  0.0000E+00  0.0000E+00  0.0000E+00  0.0000E+00  0.0000E+00
    -31.750  0.0000E+00  0.0000E+00  0.0000E+00  0.0000E+00  0.0000E+00  0.0000E+00  0.0000E+00  0.0000E+00  0.0000E+00  0.0000E+00  0.0000E+00  0.0000E+00  0.0000E+00  0.0000E+00  0.0000E+00  0.0000E+00  0.0000E+00  0.0000E+00
    -31.536  0.0000E+00  0.0000E+00  0.0000E+00  0.0000E+00  0.0000E+00  0.0000E+00  0.0000E+00  0.0000E+00  0.0000E+00  0.0000E+00  0.0000E+00  0.0000E+00  0.0000E+00  0.0000E+00  0.0000E+00  0.0000E+00  0.0000E+00  0.0000E+00
    -31.323  0.0000E+00  0.0000E+00  0.0000E+00  0.0000E+00  0.0000E+00  0.0000E+00  0.0000E+00  0.0000E+00  0.0000E+00  0.0000E+00  0.0000E+00  0.0000E+00  0.0000E+00  0.0000E+00  0.0000E+00  0.0000E+00  0.0000E+00  0.0000E+00