   2   2   1   0
  0.2629112E+02  0.3358015E-09  0.3358015E-09  0.5384473E-09  0.5000000E-15
  1.000000000000000E-004
  CAR 
 unknown system                          
     18.43533829    -44.25071163  301      7.70912522      1.00000000
    -44.251  0.0000E+00  0.0000E+00  0.0000E+00  0.0000E+00
    -44.042  0.0000E+00  0.0000E+00  0.0000E+00  0.0000E+00
    -43.833  0.0000E+00  0.0000E+00  0.0000E+00  0.0000E+00
    -43.624  0.0000E+00  0.0000E+00  0.0000E+00  0.0000E+00
    -43.415  0.0000E+00  0.0000E+00  0.0000E+00  0.0000E+00
    -43.206  0.0000E+00  0.0000E+00  0.0000E+00  0.0000E+00
    -42.997  0.0000E+00  0.0000E+00  0.0000E+00  0.0000E+00
    -42.788  0.0000E+00  0.0000E+00  0.0000E+00  0.0000E+00
    -42.579  0.0000E+00  0.0000E+00  0.0000E+00  0.0000E+00
    -42.370  0.0000E+00  0.0000E+00  0.0000E+00  0.0000E+00
    -42.161  0.0000E+00  0.0000E+00  0.0000E+00  0.0000E+00
    -41.952  0.1198E-04  0.1193E-04  0.2503E-05  0.2494E-05
    -41.743  0.2237E-02  0.2229E-02  0.4699E-03  0.4683E-03
    -41.534  0.1416E+00  0.1411E+00  0.3005E-01  0.2995E-01
    -41.325  0.4316E+01  0.4308E+01  0.9319E+00  0.9302E+00
    -41.116  0.4931E+01  0.4939E+01  0.1962E+01  0.1962E+01
    -40.907  0.9850E-01  0.9965E-01  0.2000E+01  0.2000E+01
    -40.699  0.0000E+00  0.0000E+00  0.2000E+01  0.2000E+01
    -40.490  0.0000E+00  0.0000E+00  0.2000E+01  0.2000E+01
    -40.281  0.0000E+00  0.0000E+00  0.2000E+01  0.2000E+01
    -40.072  0.0000E+00  0.0000E+00  0.2000E+01  0.2000E+01
    -39.863  0.0000E+00  0.0000E+00  0.2000E+01  0.2000E+01
    -39.654  0.0000E+00  0.0000E+00  0.2000E+01  0.2000E+01
    -39.445  0.0000E+00  0.0000E+00  0.2000E+01  0.2000E+01
    -39.236  0.0000E+00  0.0000E+00  0.2000E+01  0.2000E+01
    -39.027  0.0000E+00  0.0000E+00  0.2000E+01  0.2000E+01
    -38.818  0.0000E+00  0.0000E+00  0.2000E+01  0.2000E+01
    -38.609  0.0000E+00  0.0000E+00  0.2000E+01  0.2000E+01
    -38.400  0.0000E+00  0.0000E+00  0.2000E+01  0.2000E+01
    -38.191  0.0000E+00  0.0000E+00  0.2000E+01  0.2000E+01
    -37.982  0.0000E+00  0.0000E+00  0.2000E+01  0.2000E+01
    -37.773  0.0000E+00  0.0000E+00  0.2000E+01  0.2000E+01
    -37.564  0.0000E+00  0.0000E+00  0.2000E+01  0.2000E+01
    -37.355  0.0000E+00  0.0000E+00  0.2000E+01  0.2000E+01
    -37.146  0.0000E+00  0.0000E+00  0.2000E+01  0.2000E+01
    -36.937  0.0000E+00  0.0000E+00  0.2000E+01  0.2000E+01
    -36.728  0.0000E+00  0.0000E+00  0.2000E+01  0.2000E+01
    -36.519  0.0000E+00  0.0000E+00  0.2000E+01  0.2000E+01
    -36.310  0.0000E+00  0.0000E+00  0.2000E+01  0.2000E+01
    -36.102  0.0000E+00  0.0000E+00  0.2000E+01  0.2000E+01
    -35.893  0.0000E+00  0.0000E+00  0.2000E+01  0.2000E+01
    -35.684  0.0000E+00  0.0000E+00  0.2000E+01  0.2000E+01
    -35.475  0.0000E+00  0.0000E+00  0.2000E+01  0.2000E+01
    -35.266  0.0000E+00  0.0000E+00  0.2000E+01  0.2000E+01
    -35.057  0.0000E+00  0.0000E+00  0.2000E+01  0.2000E+01
    -34.848  0.0000E+00  0.0000E+00  0.2000E+01  0.2000E+01
    -34.639  0.0000E+00  0.0000E+00  0.2000E+01  0.2000E+01
    -34.430  0.0000E+00  0.0000E+00  0.2000E+01  0.2000E+01
    -34.221  0.0000E+00  0.0000E+00  0.2000E+01  0.2000E+01
    -34.012  0.0000E+00  0.0000E+00  0.2000E+01  0.2000E+01
    -33.803  0.0000E+00  0.0000E+00  0.2000E+01  0.2000E+01
    -33.594  0.0000E+00  0.0000E+00  0.2000E+01  0.2000E+01
    -33.385  0.0000E+00  0.0000E+00  0.2000E+01  0.2000E+01
    -33.176  0.0000E+00  0.0000E+00  0.2000E+01  0.2000E+01
    -32.967  0.0000E+00  0.0000E+00  0.2000E+01  0.2000E+01
    -32.758  0.0000E+00  0.0000E+00  0.2000E+01  0.2000E+01
    -32.549  0.0000E+00  0.0000E+00  0.2000E+01  0.2000E+01
    -32.340  0.0000E+00  0.0000E+00  0.2000E+01  0.2000E+01
    -32.131  0.0000E+00  0.0000E+00  0.2000E+01  0.2000E+01
    -31.922  0.0000E+00  0.0000E+00  0.2000E+01  0.2000E+01
    -31.714  0.0000E+00  0.0000E+00  0.2000E+01  0.2000E+01
    -31.505  0.0000E+00  0.0000E+00  0.2000E+01  0.2000E+01
    -31.296  0.0000E+00  0.0000E+00  0.2000E+01  0.2000E+01
    -31.087  0.0000E+00  0.0000E+00  0.2000E+01  0.2000E+01
    -30.878  0.0000E+00  0.0000E+00  0.2000E+01  0.2000E+01
    -30.669  0.0000E+00  0.0000E+00  0.2000E+01  0.2000E+01
    -30.460  0.0000E+00  0.0000E+00  0.2000E+01  0.2000E+01
    -30.251  0.0000E+00  0.0000E+00  0.2000E+01  0.2000E+01
    -30.042  0.0000E+00  0.0000E+00  0.2000E+01  0.2000E+01
    -29.833  0.0000E+00  0.0000E+00  0.2000E+01  0.2000E+01
    -29.624  0.0000E+00  0.0000E+00  0.2000E+01  0.2000E+01
    -29.415  0.0000E+00  0.0000E+00  0.2000E+01  0.2000E+01
    -29.206  0.0000E+00  0.0000E+00  0.2000E+01  0.2000E+01
    -28.997  0.0000E+00  0.0000E+00  0.2000E+01  0.2000E+01
    -28.788  0.0000E+00  0.0000E+00  0.2000E+01  0.2000E+01
    -28.579  0.0000E+00  0.0000E+00  0.2000E+01  0.2000E+01
    -28.370  0.0000E+00  0.0000E+00  0.2000E+01  0.2000E+01
    -28.161  0.0000E+00  0.0000E+00  0.2000E+01  0.2000E+01
    -27.952  0.0000E+00  0.0000E+00  0.2000E+01  0.2000E+01
    -27.743  0.0000E+00  0.0000E+00  0.2000E+01  0.2000E+01
    -27.534  0.0000E+00  0.0000E+00  0.2000E+01  0.2000E+01
    -27.325  0.0000E+00  0.0000E+00  0.2000E+01  0.2000E+01
    -27.117  0.0000E+00  0.0000E+00  0.2000E+01  0.2000E+01
    -26.908  0.0000E+00  0.0000E+00  0.2000E+01  0.2000E+01
    -26.699  0.0000E+00  0.0000E+00  0.2000E+01  0.2000E+01
    -26.490  0.0000E+00  0.0000E+00  0.2000E+01  0.2000E+01
    -26.281  0.0000E+00  0.0000E+00  0.2000E+01  0.2000E+01
    -26.072  0.0000E+00  0.0000E+00  0.2000E+01  0.2000E+01
    -25.863  0.0000E+00  0.0000E+00  0.2000E+01  0.2000E+01
    -25.654  0.0000E+00  0.0000E+00  0.2000E+01  0.2000E+01
    -25.445  0.0000E+00  0.0000E+00  0.2000E+01  0.2000E+01
    -25.236  0.0000E+00  0.0000E+00  0.2000E+01  0.2000E+01
    -25.027  0.0000E+00  0.0000E+00  0.2000E+01  0.2000E+01
    -24.818  0.0000E+00  0.0000E+00  0.2000E+01  0.2000E+01
    -24.609  0.0000E+00  0.0000E+00  0.2000E+01  0.2000E+01
    -24.400  0.0000E+00  0.0000E+00  0.2000E+01  0.2000E+01
    -24.191  0.0000E+00  0.0000E+00  0.2000E+01  0.2000E+01
    -23.982  0.0000E+00  0.0000E+00  0.2000E+01  0.2000E+01
    -23.773  0.0000E+00  0.0000E+00  0.2000E+01  0.2000E+01
    -23.564  0.0000E+00  0.0000E+00  0.2000E+01  0.2000E+01
    -23.355  0.0000E+00  0.0000E+00  0.2000E+01  0.2000E+01
    -23.146  0.0000E+00  0.0000E+00  0.2000E+01  0.2000E+01
    -22.937  0.0000E+00  0.0000E+00  0.2000E+01  0.2000E+01
    -22.729  0.0000E+00  0.0000E+00  0.2000E+01  0.2000E+01
    -22.520  0.0000E+00  0.0000E+00  0.2000E+01  0.2000E+01
    -22.311  0.0000E+00  0.0000E+00  0.2000E+01  0.2000E+01
    -22.102  0.0000E+00  0.0000E+00  0.2000E+01  0.2000E+01
    -21.893  0.0000E+00  0.0000E+00  0.2000E+01  0.2000E+01
    -21.684  0.0000E+00  0.0000E+00  0.2000E+01  0.2000E+01
    -21.475  0.0000E+00  0.0000E+00  0.2000E+01  0.2000E+01
    -21.266  0.0000E+00  0.0000E+00  0.2000E+01  0.2000E+01
    -21.057  0.0000E+00  0.0000E+00  0.2000E+01  0.2000E+01
    -20.848  0.0000E+00  0.0000E+00  0.2000E+01  0.2000E+01
    -20.639  0.0000E+00  0.0000E+00  0.2000E+01  0.2000E+01
    -20.430  0.0000E+00  0.0000E+00  0.2000E+01  0.2000E+01
    -20.221  0.1349E-04  0.1348E-04  0.2000E+01  0.2000E+01
    -20.012  0.1646E-02  0.1644E-02  0.2000E+01  0.2000E+01
    -19.803  0.1034E+00  0.1033E+00  0.2022E+01  0.2022E+01
    -19.594  0.2850E+01  0.2848E+01  0.2618E+01  0.2617E+01
    -19.385  0.7215E+01  0.7214E+01  0.4125E+01  0.4125E+01
    -19.176  0.1093E+02  0.1092E+02  0.6417E+01  0.6416E+01
    -18.967  0.7164E+01  0.7167E+01  0.7921E+01  0.7921E+01
    -18.758  0.2820E+00  0.2832E+00  0.7999E+01  0.7999E+01
    -18.549  0.0000E+00  0.0000E+00  0.8000E+01  0.8000E+01
    -18.340  0.0000E+00  0.0000E+00  0.8000E+01  0.8000E+01
    -18.132  0.0000E+00  0.0000E+00  0.8000E+01  0.8000E+01
    -17.923  0.0000E+00  0.0000E+00  0.8000E+01  0.8000E+01
    -17.714  0.0000E+00  0.0000E+00  0.8000E+01  0.8000E+01
    -17.505  0.0000E+00  0.0000E+00  0.8000E+01  0.8000E+01
    -17.296  0.0000E+00  0.0000E+00  0.8000E+01  0.8000E+01
    -17.087  0.0000E+00  0.0000E+00  0.8000E+01  0.8000E+01
    -16.878  0.0000E+00  0.0000E+00  0.8000E+01  0.8000E+01
    -16.669  0.0000E+00  0.0000E+00  0.8000E+01  0.8000E+01
    -16.460  0.0000E+00  0.0000E+00  0.8000E+01  0.8000E+01
    -16.251  0.0000E+00  0.0000E+00  0.8000E+01  0.8000E+01
    -16.042  0.0000E+00  0.0000E+00  0.8000E+01  0.8000E+01
    -15.833  0.0000E+00  0.0000E+00  0.8000E+01  0.8000E+01
    -15.624  0.0000E+00  0.0000E+00  0.8000E+01  0.8000E+01
    -15.415  0.0000E+00  0.0000E+00  0.8000E+01  0.8000E+01
    -15.206  0.0000E+00  0.0000E+00  0.8000E+01  0.8000E+01
    -14.997  0.0000E+00  0.0000E+00  0.8000E+01  0.8000E+01
    -14.788  0.0000E+00  0.0000E+00  0.8000E+01  0.8000E+01
    -14.579  0.0000E+00  0.0000E+00  0.8000E+01  0.8000E+01
    -14.370  0.0000E+00  0.0000E+00  0.8000E+01  0.8000E+01
    -14.161  0.0000E+00  0.0000E+00  0.8000E+01  0.8000E+01
    -13.952  0.0000E+00  0.0000E+00  0.8000E+01  0.8000E+01
    -13.744  0.0000E+00  0.0000E+00  0.8000E+01  0.8000E+01
    -13.535  0.0000E+00  0.0000E+00  0.8000E+01  0.8000E+01
    -13.326  0.0000E+00  0.0000E+00  0.8000E+01  0.8000E+01
    -13.117  0.0000E+00  0.0000E+00  0.8000E+01  0.8000E+01
    -12.908  0.0000E+00  0.0000E+00  0.8000E+01  0.8000E+01
    -12.699  0.0000E+00  0.0000E+00  0.8000E+01  0.8000E+01
    -12.490  0.0000E+00  0.0000E+00  0.8000E+01  0.8000E+01
    -12.281  0.0000E+00  0.0000E+00  0.8000E+01  0.8000E+01
    -12.072  0.0000E+00  0.0000E+00  0.8000E+01  0.8000E+01
    -11.863  0.0000E+00  0.0000E+00  0.8000E+01  0.8000E+01
    -11.654  0.0000E+00  0.0000E+00  0.8000E+01  0.8000E+01
    -11.445  0.0000E+00  0.0000E+00  0.8000E+01  0.8000E+01
    -11.236  0.0000E+00  0.0000E+00  0.8000E+01  0.8000E+01
    -11.027  0.0000E+00  0.0000E+00  0.8000E+01  0.8000E+01
    -10.818  0.0000E+00  0.0000E+00  0.8000E+01  0.8000E+01
    -10.609  0.0000E+00  0.0000E+00  0.8000E+01  0.8000E+01
    -10.400  0.0000E+00  0.0000E+00  0.8000E+01  0.8000E+01
    -10.191  0.0000E+00  0.0000E+00  0.8000E+01  0.8000E+01
     -9.982  0.0000E+00  0.0000E+00  0.8000E+01  0.8000E+01
     -9.773  0.0000E+00  0.0000E+00  0.8000E+01  0.8000E+01
     -9.564  0.0000E+00  0.0000E+00  0.8000E+01  0.8000E+01
     -9.355  0.0000E+00  0.0000E+00  0.8000E+01  0.8000E+01
     -9.147  0.0000E+00  0.0000E+00  0.8000E+01  0.8000E+01
     -8.938  0.0000E+00  0.0000E+00  0.8000E+01  0.8000E+01
     -8.729  0.0000E+00  0.0000E+00  0.8000E+01  0.8000E+01
     -8.520  0.0000E+00  0.0000E+00  0.8000E+01  0.8000E+01
     -8.311  0.0000E+00  0.0000E+00  0.8000E+01  0.8000E+01
     -8.102  0.0000E+00  0.0000E+00  0.8000E+01  0.8000E+01
     -7.893  0.0000E+00  0.0000E+00  0.8000E+01  0.8000E+01
     -7.684  0.0000E+00  0.0000E+00  0.8000E+01  0.8000E+01
     -7.475  0.0000E+00  0.0000E+00  0.8000E+01  0.8000E+01
     -7.266  0.0000E+00  0.0000E+00  0.8000E+01  0.8000E+01
     -7.057  0.0000E+00  0.0000E+00  0.8000E+01  0.8000E+01
     -6.848  0.0000E+00  0.0000E+00  0.8000E+01  0.8000E+01
     -6.639  0.0000E+00  0.0000E+00  0.8000E+01  0.8000E+01
     -6.430  0.0000E+00  0.0000E+00  0.8000E+01  0.8000E+01
     -6.221  0.0000E+00  0.0000E+00  0.8000E+01  0.8000E+01
     -6.012  0.0000E+00  0.0000E+00  0.8000E+01  0.8000E+01
     -5.803  0.0000E+00  0.0000E+00  0.8000E+01  0.8000E+01
     -5.594  0.0000E+00  0.0000E+00  0.8000E+01  0.8000E+01
     -5.385  0.0000E+00  0.0000E+00  0.8000E+01  0.8000E+01
     -5.176  0.0000E+00  0.0000E+00  0.8000E+01  0.8000E+01
     -4.967  0.0000E+00  0.0000E+00  0.8000E+01  0.8000E+01
     -4.759  0.0000E+00  0.0000E+00  0.8000E+01  0.8000E+01
     -4.550  0.0000E+00  0.0000E+00  0.8000E+01  0.8000E+01
     -4.341  0.0000E+00  0.0000E+00  0.8000E+01  0.8000E+01
     -4.132  0.0000E+00  0.0000E+00  0.8000E+01  0.8000E+01
     -3.923  0.0000E+00  0.0000E+00  0.8000E+01  0.8000E+01
     -3.714  0.0000E+00  0.0000E+00  0.8000E+01  0.8000E+01
     -3.505  0.0000E+00  0.0000E+00  0.8000E+01  0.8000E+01
     -3.296  0.0000E+00  0.0000E+00  0.8000E+01  0.8000E+01
     -3.087  0.0000E+00  0.0000E+00  0.8000E+01  0.8000E+01
     -2.878  0.0000E+00  0.0000E+00  0.8000E+01  0.8000E+01
     -2.669  0.0000E+00  0.0000E+00  0.8000E+01  0.8000E+01
     -2.460  0.0000E+00  0.0000E+00  0.8000E+01  0.8000E+01
     -2.251  0.0000E+00  0.0000E+00  0.8000E+01  0.8000E+01
     -2.042  0.0000E+00  0.0000E+00  0.8000E+01  0.8000E+01
     -1.833  0.0000E+00  0.0000E+00  0.8000E+01  0.8000E+01
     -1.624  0.0000E+00  0.0000E+00  0.8000E+01  0.8000E+01
     -1.415  0.0000E+00  0.0000E+00  0.8000E+01  0.8000E+01
     -1.206  0.0000E+00  0.0000E+00  0.8000E+01  0.8000E+01
     -0.997  0.0000E+00  0.0000E+00  0.8000E+01  0.8000E+01
     -0.788  0.0000E+00  0.0000E+00  0.8000E+01  0.8000E+01
     -0.579  0.0000E+00  0.0000E+00  0.8000E+01  0.8000E+01
     -0.370  0.0000E+00  0.0000E+00  0.8000E+01  0.8000E+01
     -0.162  0.0000E+00  0.0000E+00  0.8000E+01  0.8000E+01
      0.047  0.0000E+00  0.0000E+00  0.8000E+01  0.8000E+01
      0.256  0.0000E+00  0.0000E+00  0.8000E+01  0.8000E+01
      0.465  0.0000E+00  0.0000E+00  0.8000E+01  0.8000E+01
      0.674  0.0000E+00  0.0000E+00  0.8000E+01  0.8000E+01
      0.883  0.0000E+00  0.0000E+00  0.8000E+01  0.8000E+01
      1.092  0.0000E+00  0.0000E+00  0.8000E+01  0.8000E+01
      1.301  0.0000E+00  0.0000E+00  0.8000E+01  0.8000E+01
      1.510  0.0000E+00  0.0000E+00  0.8000E+01  0.8000E+01
      1.719  0.3285E-07  0.3294E-07  0.8000E+01  0.8000E+01
      1.928  0.3764E-05  0.3774E-05  0.8000E+01  0.8000E+01
      2.137  0.2382E-03  0.2388E-03  0.8000E+01  0.8000E+01
      2.346  0.7760E-02  0.7773E-02  0.8002E+01  0.8002E+01
      2.555  0.4485E-01  0.4487E-01  0.8011E+01  0.8011E+01
      2.764  0.6255E-01  0.6259E-01  0.8024E+01  0.8024E+01
      2.973  0.9991E-01  0.9990E-01  0.8045E+01  0.8045E+01
      3.182  0.9785E-01  0.9789E-01  0.8066E+01  0.8066E+01
      3.391  0.1417E+00  0.1417E+00  0.8095E+01  0.8095E+01
      3.600  0.1723E+00  0.1723E+00  0.8131E+01  0.8132E+01
      3.809  0.1288E+00  0.1288E+00  0.8158E+01  0.8158E+01
      4.018  0.2459E+00  0.2460E+00  0.8210E+01  0.8210E+01
      4.227  0.2426E+00  0.2426E+00  0.8261E+01  0.8261E+01
      4.435  0.2448E+00  0.2449E+00  0.8312E+01  0.8312E+01
      4.644  0.3348E+00  0.3348E+00  0.8382E+01  0.8383E+01
      4.853  0.5029E+00  0.5030E+00  0.8488E+01  0.8488E+01
      5.062  0.6589E+00  0.6590E+00  0.8626E+01  0.8626E+01
      5.271  0.1016E+01  0.1016E+01  0.8839E+01  0.8839E+01
      5.480  0.1068E+01  0.1068E+01  0.9063E+01  0.9063E+01
      5.689  0.1025E+01  0.1025E+01  0.9279E+01  0.9279E+01
      5.898  0.1356E+01  0.1355E+01  0.9563E+01  0.9563E+01
      6.107  0.1365E+01  0.1364E+01  0.9849E+01  0.9850E+01
      6.316  0.1231E+01  0.1231E+01  0.1011E+02  0.1011E+02
      6.525  0.1096E+01  0.1096E+01  0.1034E+02  0.1034E+02
      6.734  0.1461E+01  0.1461E+01  0.1064E+02  0.1064E+02
      6.943  0.1692E+01  0.1693E+01  0.1100E+02  0.1100E+02
      7.152  0.1936E+01  0.1936E+01  0.1141E+02  0.1141E+02
      7.361  0.1457E+01  0.1457E+01  0.1171E+02  0.1171E+02
      7.570  0.7847E+00  0.7845E+00  0.1188E+02  0.1188E+02
      7.779  0.9753E+00  0.9757E+00  0.1208E+02  0.1208E+02
      7.988  0.1907E+01  0.1907E+01  0.1248E+02  0.1248E+02
      8.197  0.1945E+01  0.1945E+01  0.1289E+02  0.1289E+02
      8.406  0.2063E+01  0.2063E+01  0.1332E+02  0.1332E+02
      8.615  0.2044E+01  0.2044E+01  0.1375E+02  0.1375E+02
      8.823  0.2155E+01  0.2155E+01  0.1421E+02  0.1421E+02
      9.032  0.1993E+01  0.1993E+01  0.1462E+02  0.1463E+02
      9.241  0.1412E+01  0.1411E+01  0.1492E+02  0.1492E+02
      9.450  0.9777E+00  0.9773E+00  0.1513E+02  0.1513E+02
      9.659  0.9447E+00  0.9447E+00  0.1533E+02  0.1533E+02
      9.868  0.8102E+00  0.8101E+00  0.1550E+02  0.1550E+02
     10.077  0.9101E+00  0.9102E+00  0.1569E+02  0.1569E+02
     10.286  0.8443E+00  0.8442E+00  0.1587E+02  0.1587E+02
     10.495  0.8072E+00  0.8074E+00  0.1603E+02  0.1603E+02
     10.704  0.9760E+00  0.9761E+00  0.1624E+02  0.1624E+02
     10.913  0.9089E+00  0.9088E+00  0.1643E+02  0.1643E+02
     11.122  0.1061E+01  0.1061E+01  0.1665E+02  0.1665E+02
     11.331  0.1485E+01  0.1485E+01  0.1697E+02  0.1697E+02
     11.540  0.1836E+01  0.1836E+01  0.1735E+02  0.1735E+02
     11.749  0.1891E+01  0.1891E+01  0.1775E+02  0.1775E+02
     11.958  0.2262E+01  0.2262E+01  0.1822E+02  0.1822E+02
     12.167  0.1928E+01  0.1927E+01  0.1863E+02  0.1863E+02
     12.376  0.9738E+00  0.9734E+00  0.1883E+02  0.1883E+02
     12.585  0.8036E+00  0.8036E+00  0.1900E+02  0.1900E+02
     12.794  0.5831E+00  0.5832E+00  0.1913E+02  0.1913E+02
     13.003  0.4974E+00  0.4968E+00  0.1923E+02  0.1923E+02
     13.212  0.5141E+00  0.5149E+00  0.1934E+02  0.1934E+02
     13.420  0.6174E+00  0.6233E+00  0.1947E+02  0.1947E+02
     13.629  0.6162E+00  0.6237E+00  0.1960E+02  0.1960E+02
     13.838  0.5207E+00  0.5030E+00  0.1971E+02  0.1971E+02
     14.047  0.5059E+00  0.4919E+00  0.1981E+02  0.1981E+02
     14.256  0.2372E+00  0.2546E+00  0.1986E+02  0.1986E+02
     14.465  0.1637E+00  0.1644E+00  0.1990E+02  0.1990E+02
     14.674  0.2048E+00  0.2044E+00  0.1994E+02  0.1994E+02
     14.883  0.1006E+00  0.1017E+00  0.1996E+02  0.1996E+02
     15.092  0.7925E-01  0.8714E-01  0.1998E+02  0.1998E+02
     15.301  0.5239E-01  0.4917E-01  0.1999E+02  0.1999E+02
     15.510  0.4427E-01  0.1175E-01  0.2000E+02  0.1999E+02
     15.719  0.4783E-02  0.2851E-01  0.2000E+02  0.2000E+02
     15.928  0.0000E+00  0.2429E-02  0.2000E+02  0.2000E+02
     16.137  0.0000E+00  0.0000E+00  0.2000E+02  0.2000E+02
     16.346  0.0000E+00  0.0000E+00  0.2000E+02  0.2000E+02
     16.555  0.0000E+00  0.0000E+00  0.2000E+02  0.2000E+02
     16.764  0.0000E+00  0.0000E+00  0.2000E+02  0.2000E+02
     16.973  0.0000E+00  0.0000E+00  0.2000E+02  0.2000E+02
     17.182  0.0000E+00  0.0000E+00  0.2000E+02  0.2000E+02
     17.391  0.0000E+00  0.0000E+00  0.2000E+02  0.2000E+02
     17.600  0.0000E+00  0.0000E+00  0.2000E+02  0.2000E+02
     17.808  0.0000E+00  0.0000E+00  0.2000E+02  0.2000E+02
     18.017  0.0000E+00  0.0000E+00  0.2000E+02  0.2000E+02
     18.226  0.0000E+00  0.0000E+00  0.2000E+02  0.2000E+02
     18.435  0.0000E+00  0.0000E+00  0.2000E+02  0.2000E+02
     18.43533829    -44.25071163  301      7.70912522      1.00000000
    -44.251  0.0000E+00  0.0000E+00  0.0000E+00  0.0000E+00  0.0000E+00  0.0000E+00  0.0000E+00  0.0000E+00  0.0000E+00  0.0000E+00  0.0000E+00  0.0000E+00  0.0000E+00  0.0000E+00  0.0000E+00  0.0000E+00  0.0000E+00  0.0000E+00
    -44.042  0.0000E+00  0.0000E+00  0.0000E+00  0.0000E+00  0.0000E+00  0.0000E+00  0.0000E+00  0.0000E+00  0.0000E+00  0.0000E+00  0.0000E+00  0.0000E+00  0.0000E+00  0.0000E+00  0.0000E+00  0.0000E+00  0.0000E+00  0.0000E+00
    -43.833  0.0000E+00  0.0000E+00  0.0000E+00  0.0000E+00  0.0000E+00  0.0000E+00  0.0000E+00  0.0000E+00  0.0000E+00  0.0000E+00  0.0000E+00  0.0000E+00  0.0000E+00  0.0000E+00  0.0000E+00  0.0000E+00  0.0000E+00  0.0000E+00
    -43.624  0.0000E+00  0.0000E+00  0.0000E+00  0.0000E+00  0.0000E+00  0.0000E+00  0.0000E+00  0.0000E+00  0.0000E+00  0.0000E+00  0.0000E+00  0.0000E+00  0.0000E+00  0.0000E+00  0.0000E+00  0.0000E+00  0.0000E+00  0.0000E+00
    -43.415  0.0000E+00  0.0000E+00  0.0000E+00  0.0000E+00  0.0000E+00  0.0000E+00  0.0000E+00  0.0000E+00  0.0000E+00  0.0000E+00  0.0000E+00  0.0000E+00  0.0000E+00  0.0000E+00  0.0000E+00  0.0000E+00  0.0000E+00  0.0000E+00
    -43.206  0.0000E+00  0.0000E+00  0.0000E+00  0.0000E+00  0.0000E+00  0.0000E+00  0.0000E+00  0.0000E+00  0.0000E+00  0.0000E+00  0.0000E+00  0.0000E+00  0.0000E+00  0.0000E+00  0.0000E+00  0.0000E+00  0.0000E+00  0.0000E+00
    -42.997  0.0000E+00  0.0000E+00  0.0000E+00  0.0000E+00  0.0000E+00  0.0000E+00  0.0000E+00  0.0000E+00  0.0000E+00  0.0000E+00  0.0000E+00  0.0000E+00  0.0000E+00  0.0000E+00  0.0000E+00  0.0000E+00  0.0000E+00  0.0000E+00
    -42.788  0.0000E+00  0.0000E+00  0.0000E+00  0.0000E+00  0.0000E+00  0.0000E+00  0.0000E+00  0.0000E+00  0.0000E+00  0.0000E+00  0.0000E+00  0.0000E+00  0.0000E+00  0.0000E+00  0.0000E+00  0.0000E+00  0.0000E+00  0.0000E+00
    -42.579  0.0000E+00  0.0000E+00  0.0000E+00  0.0000E+00  0.0000E+00  0.0000E+00  0.0000E+00  0.0000E+00  0.0000E+00  0.0000E+00  0.0000E+00  0.0000E+00  0.0000E+00  0.0000E+00  0.0000E+00  0.0000E+00  0.0000E+00  0.0000E+00
    -42.370  0.0000E+00  0.0000E+00  0.0000E+00  0.0000E+00  0.0000E+00  0.0000E+00  0.0000E+00  0.0000E+00  0.0000E+00  0.0000E+00  0.0000E+00  0.0000E+00  0.0000E+00  0.0000E+00  0.0000E+00  0.0000E+00  0.0000E+00  0.0000E+00
    -42.161  0.0000E+00  0.0000E+00  0.0000E+00  0.0000E+00  0.0000E+00  0.0000E+00  0.0000E+00  0.0000E+00  0.0000E+00  0.0000E+00  0.0000E+00  0.0000E+00  0.0000E+00  0.0000E+00  0.0000E+00  0.0000E+00  0.0000E+00  0.0000E+00
    -41.952  0.5935E-05  0.5913E-05  0.1859E-10  0.1852E-10  0.2183E-10  0.2175E-10  0.1859E-10  0.1852E-10  0.2119E-11  0.2114E-11  0.1484E-11  0.1476E-11  0.4896E-11  0.4879E-11  0.1484E-11  0.1476E-11  0.2119E-11  0.2114E-11
    -41.743  0.1110E-02  0.1106E-02  0.2443E-08  0.2434E-08  0.2899E-08  0.2889E-08  0.2443E-08  0.2434E-08  0.8715E-09  0.8685E-09  0.8226E-09  0.8202E-09  0.1496E-08  0.1492E-08  0.8226E-09  0.8202E-09  0.8715E-09  0.8685E-09
    -41.534  0.7026E-01  0.7001E-01  0.1544E-06  0.1539E-06  0.1834E-06  0.1827E-06  0.1544E-06  0.1539E-06  0.5528E-07  0.5509E-07  0.5224E-07  0.5209E-07  0.9484E-07  0.9454E-07  0.5224E-07  0.5209E-07  0.5528E-07  0.5509E-07
    -41.325  0.2142E+01  0.2139E+01  0.4159E-05  0.4152E-05  0.5035E-05  0.5028E-05  0.4159E-05  0.4152E-05  0.1830E-05  0.1828E-05  0.1831E-05  0.1829E-05  0.3064E-05  0.3060E-05  0.1831E-05  0.1829E-05  0.1830E-05  0.1828E-05
    -41.116  0.2449E+01  0.2453E+01  0.3628E-05  0.3635E-05  0.4526E-05  0.4535E-05  0.3628E-05  0.3635E-05  0.2134E-05  0.2138E-05  0.2353E-05  0.2359E-05  0.3514E-05  0.3523E-05  0.2353E-05  0.2359E-05  0.2134E-05  0.2138E-05
    -40.907  0.4895E-01  0.4952E-01  0.2768E-07  0.2782E-07  0.3601E-07  0.3661E-07  0.2768E-07  0.2782E-07  0.2992E-07  0.3088E-07  0.4932E-07  0.5056E-07  0.4789E-07  0.4864E-07  0.4932E-07  0.5056E-07  0.2992E-07  0.3088E-07
    -40.699  0.0000E+00  0.0000E+00  0.0000E+00  0.0000E+00  0.0000E+00  0.0000E+00  0.0000E+00  0.0000E+00  0.0000E+00  0.0000E+00  0.0000E+00  0.0000E+00  0.0000E+00  0.0000E+00  0.0000E+00  0.0000E+00  0.0000E+00  0.0000E+00
    -40.490  0.0000E+00  0.0000E+00  0.0000E+00  0.0000E+00  0.0000E+00  0.0000E+00  0.0000E+00  0.0000E+00  0.0000E+00  0.0000E+00  0.0000E+00  0.0000E+00  0.0000E+00  0.0000E+00  0.0000E+00  0.0000E+00  0.0000E+00  0.0000E+00
    -40.281  0.0000E+00  0.0000E+00  0.0000E+00  0.0000E+00  0.0000E+00  0.0000E+00  0.0000E+00  0.0000E+00  0.0000E+00  0.0000E+00  0.0000E+00  0.0000E+00  0.0000E+00  0.0000E+00  0.0000E+00  0.0000E+00  0.0000E+00  0.0000E+00
    -40.072  0.0000E+00  0.0000E+00  0.0000E+00  0.0000E+00  0.0000E+00  0.0000E+00  0.0000E+00  0.0000E+00  0.0000E+00  0.0000E+00  0.0000E+00  0.0000E+00  0.0000E+00  0.0000E+00  0.0000E+00  0.0000E+00  0.0000E+00  0.0000E+00
    -39.863  0.0000E+00  0.0000E+00  0.0000E+00  0.0000E+00  0.0000E+00  0.0000E+00  0.0000E+00  0.0000E+00  0.0000E+00  0.0000E+00  0.0000E+00  0.0000E+00  0.0000E+00  0.0000E+00  0.0000E+00  0.0000E+00  0.0000E+00  0.0000E+00
    -39.654  0.0000E+00  0.0000E+00  0.0000E+00  0.0000E+00  0.0000E+00  0.0000E+00  0.0000E+00  0.0000E+00  0.0000E+00  0.0000E+00  0.0000E+00  0.0000E+00  0.0000E+00  0.0000E+00  0.0000E+00  0.0000E+00  0.0000E+00  0.0000E+00
    -39.445  0.0000E+00  0.0000E+00  0.0000E+00  0.0000E+00  0.0000E+00  0.0000E+00  0.0000E+00  0.0000E+00  0.0000E+00  0.0000E+00  0.0000E+00  0.0000E+00  0.0000E+00  0.0000E+00  0.0000E+00  0.0000E+00  0.0000E+00  0.0000E+00
    -39.236  0.0000E+00  0.0000E+00  0.0000E+00  0.0000E+00  0.0000E+00  0.0000E+00  0.0000E+00  0.0000E+00  0.0000E+00  0.0000E+00  0.0000E+00  0.0000E+00  0.0000E+00  0.0000E+00  0.0000E+00  0.0000E+00  0.0000E+00  0.0000E+00
    -39.027  0.0000E+00  0.0000E+00  0.0000E+00  0.0000E+00  0.0000E+00  0.0000E+00  0.0000E+00  0.0000E+00  0.0000E+00  0.0000E+00  0.0000E+00  0.0000E+00  0.0000E+00  0.0000E+00  0.0000E+00  0.0000E+00  0.0000E+00  0.0000E+00
    -38.818  0.0000E+00  0.0000E+00  0.0000E+00  0.0000E+00  0.0000E+00  0.0000E+00  0.0000E+00  0.0000E+00  0.0000E+00  0.0000E+00  0.0000E+00  0.0000E+00  0.0000E+00  0.0000E+00  0.0000E+00  0.0000E+00  0.0000E+00  0.0000E+00
    -38.609  0.0000E+00  0.0000E+00  0.0000E+00  0.0000E+00  0.0000E+00  0.0000E+00  0.0000E+00  0.0000E+00  0.0000E+00  0.0000E+00  0.0000E+00  0.0000E+00  0.0000E+00  0.0000E+00  0.0000E+00  0.0000E+00  0.0000E+00  0.0000E+00
    -38.400  0.0000E+00  0.0000E+00  0.0000E+00  0.0000E+00  0.0000E+00  0.0000E+00  0.0000E+00  0.0000E+00  0.0000E+00  0.0000E+00  0.0000E+00  0.0000E+00  0.0000E+00  0.0000E+00  0.0000E+00  0.0000E+00  0.0000E+00  0.0000E+00
    -38.191  0.0000E+00  0.0000E+00  0.0000E+00  0.0000E+00  0.0000E+00  0.0000E+00  0.0000E+00  0.0000E+00  0.0000E+00  0.0000E+00  0.0000E+00  0.0000E+00  0.0000E+00  0.0000E+00  0.0000E+00  0.0000E+00  0.0000E+00  0.0000E+00
    -37.982  0.0000E+00  0.0000E+00  0.0000E+00  0.0000E+00  0.0000E+00  0.0000E+00  0.0000E+00  0.0000E+00  0.0000E+00  0.0000E+00  0.0000E+00  0.0000E+00  0.0000E+00  0.0000E+00  0.0000E+00  0.0000E+00  0.0000E+00  0.0000E+00
    -37.773  0.0000E+00  0.0000E+00  0.0000E+00  0.0000E+00  0.0000E+00  0.0000E+00  0.0000E+00  0.0000E+00  0.0000E+00  0.0000E+00  0.0000E+00  0.0000E+00  0.0000E+00  0.0000E+00  0.0000E+00  0.0000E+00  0.0000E+00  0.0000E+00
    -37.564  0.0000E+00  0.0000E+00  0.0000E+00  0.0000E+00  0.0000E+00  0.0000E+00  0.0000E+00  0.0000E+00  0.0000E+00  0.0000E+00  0.0000E+00  0.0000E+00  0.0000E+00  0.0000E+00  0.0000E+00  0.0000E+00  0.0000E+00  0.0000E+00
    -37.355  0.0000E+00  0.0000E+00  0.0000E+00  0.0000E+00  0.0000E+00  0.0000E+00  0.0000E+00  0.0000E+00  0.0000E+00  0.0000E+00  0.0000E+00  0.0000E+00  0.0000E+00  0.0000E+00  0.0000E+00  0.0000E+00  0.0000E+00  0.0000E+00
    -37.146  0.0000E+00  0.0000E+00  0.0000E+00  0.0000E+00  0.0000E+00  0.0000E+00  0.0000E+00  0.0000E+00  0.0000E+00  0.0000E+00  0.0000E+00  0.0000E+00  0.0000E+00  0.0000E+00  0.0000E+00  0.0000E+00  0.0000E+00  0.0000E+00
    -36.937  0.0000E+00  0.0000E+00  0.0000E+00  0.0000E+00  0.0000E+00  0.0000E+00  0.0000E+00  0.0000E+00  0.0000E+00  0.0000E+00  0.0000E+00  0.0000E+00  0.0000E+00  0.0000E+00  0.0000E+00  0.0000E+00  0.0000E+00  0.0000E+00
    -36.728  0.0000E+00  0.0000E+00  0.0000E+00  0.0000E+00  0.0000E+00  0.0000E+00  0.0000E+00  0.0000E+00  0.0000E+00  0.0000E+00  0.0000E+00  0.0000E+00  0.0000E+00  0.0000E+00  0.0000E+00  0.0000E+00  0.0000E+00  0.0000E+00
    -36.519  0.0000E+00  0.0000E+00  0.0000E+00  0.0000E+00  0.0000E+00  0.0000E+00  0.0000E+00  0.0000E+00  0.0000E+00  0.0000E+00  0.0000E+00  0.0000E+00  0.0000E+00  0.0000E+00  0.0000E+00  0.0000E+00  0.0000E+00  0.0000E+00
    -36.310  0.0000E+00  0.0000E+00  0.0000E+00  0.0000E+00  0.0000E+00  0.0000E+00  0.0000E+00  0.0000E+00  0.0000E+00  0.0000E+00  0.0000E+00  0.0000E+00  0.0000E+00  0.0000E+00  0.0000E+00  0.0000E+00  0.0000E+00  0.0000E+00
    -36.102  0.0000E+00  0.0000E+00  0.0000E+00  0.0000E+00  0.0000E+00  0.0000E+00  0.0000E+00  0.0000E+00  0.0000E+00  0.0000E+00  0.0000E+00  0.0000E+00  0.0000E+00  0.0000E+00  0.0000E+00  0.0000E+00  0.0000E+00  0.0000E+00
    -35.893  0.0000E+00  0.0000E+00  0.0000E+00  0.0000E+00  0.0000E+00  0.0000E+00  0.0000E+00  0.0000E+00  0.0000E+00  0.0000E+00  0.0000E+00  0.0000E+00  0.0000E+00  0.0000E+00  0.0000E+00  0.0000E+00  0.0000E+00  0.0000E+00
    -35.684  0.0000E+00  0.0000E+00  0.0000E+00  0.0000E+00  0.0000E+00  0.0000E+00  0.0000E+00  0.0000E+00  0.0000E+00  0.0000E+00  0.0000E+00  0.0000E+00  0.0000E+00  0.0000E+00  0.0000E+00  0.0000E+00  0.0000E+00  0.0000E+00
    -35.475  0.0000E+00  0.0000E+00  0.0000E+00  0.0000E+00  0.0000E+00  0.0000E+00  0.0000E+00  0.0000E+00  0.0000E+00  0.0000E+00  0.0000E+00  0.0000E+00  0.0000E+00  0.0000E+00  0.0000E+00  0.0000E+00  0.0000E+00  0.0000E+00
    -35.266  0.0000E+00  0.0000E+00  0.0000E+00  0.0000E+00  0.0000E+00  0.0000E+00  0.0000E+00  0.0000E+00  0.0000E+00  0.0000E+00  0.0000E+00  0.0000E+00  0.0000E+00  0.0000E+00  0.0000E+00  0.0000E+00  0.0000E+00  0.0000E+00
    -35.057  0.0000E+00  0.0000E+00  0.0000E+00  0.0000E+00  0.0000E+00  0.0000E+00  0.0000E+00  0.0000E+00  0.0000E+00  0.0000E+00  0.0000E+00  0.0000E+00  0.0000E+00  0.0000E+00  0.0000E+00  0.0000E+00  0.0000E+00  0.0000E+00
    -34.848  0.0000E+00  0.0000E+00  0.0000E+00  0.0000E+00  0.0000E+00  0.0000E+00  0.0000E+00  0.0000E+00  0.0000E+00  0.0000E+00  0.0000E+00  0.0000E+00  0.0000E+00  0.0000E+00  0.0000E+00  0.0000E+00  0.0000E+00  0.0000E+00
    -34.639  0.0000E+00  0.0000E+00  0.0000E+00  0.0000E+00  0.0000E+00  0.0000E+00  0.0000E+00  0.0000E+00  0.0000E+00  0.0000E+00  0.0000E+00  0.0000E+00  0.0000E+00  0.0000E+00  0.0000E+00  0.0000E+00  0.0000E+00  0.0000E+00
    -34.430  0.0000E+00  0.0000E+00  0.0000E+00  0.0000E+00  0.0000E+00  0.0000E+00  0.0000E+00  0.0000E+00  0.0000E+00  0.0000E+00  0.0000E+00  0.0000E+00  0.0000E+00  0.0000E+00  0.0000E+00  0.0000E+00  0.0000E+00  0.0000E+00
    -34.221  0.0000E+00  0.0000E+00  0.0000E+00  0.0000E+00  0.0000E+00  0.0000E+00  0.0000E+00  0.0000E+00  0.0000E+00  0.0000E+00  0.0000E+00  0.0000E+00  0.0000E+00  0.0000E+00  0.0000E+00  0.0000E+00  0.0000E+00  0.0000E+00
    -34.012  0.0000E+00  0.0000E+00  0.0000E+00  0.0000E+00  0.0000E+00  0.0000E+00  0.0000E+00  0.0000E+00  0.0000E+00  0.0000E+00  0.0000E+00  0.0000E+00  0.0000E+00  0.0000E+00  0.0000E+00  0.0000E+00  0.0000E+00  0.0000E+00
    -33.803  0.0000E+00  0.0000E+00  0.0000E+00  0.0000E+00  0.0000E+00  0.0000E+00  0.0000E+00  0.0000E+00  0.0000E+00  0.0000E+00  0.0000E+00  0.0000E+00  0.0000E+00  0.0000E+00  0.0000E+00  0.0000E+00  0.0000E+00  0.0000E+00