   2   2   1   0
  0.2003918E+02  0.3067418E-09  0.3067417E-09  0.4918509E-09  0.5000000E-15
  1.000000000000000E-004
  CAR 
 unknown system                          
     24.04210100    -40.77658881  301     10.76896299      1.00000000
    -40.777  0.0000E+00  0.0000E+00  0.0000E+00  0.0000E+00
    -40.561  0.0000E+00  0.0000E+00  0.0000E+00  0.0000E+00
    -40.344  0.0000E+00  0.0000E+00  0.0000E+00  0.0000E+00
    -40.128  0.0000E+00  0.0000E+00  0.0000E+00  0.0000E+00
    -39.912  0.0000E+00  0.0000E+00  0.0000E+00  0.0000E+00
    -39.696  0.0000E+00  0.0000E+00  0.0000E+00  0.0000E+00
    -39.480  0.0000E+00  0.0000E+00  0.0000E+00  0.0000E+00
    -39.264  0.0000E+00  0.0000E+00  0.0000E+00  0.0000E+00
    -39.048  0.0000E+00  0.0000E+00  0.0000E+00  0.0000E+00
    -38.832  0.0000E+00  0.0000E+00  0.0000E+00  0.0000E+00
    -38.616  0.0000E+00  0.0000E+00  0.0000E+00  0.0000E+00
    -38.400  0.1006E-05  0.1009E-05  0.2173E-06  0.2180E-06
    -38.184  0.2114E-03  0.2121E-03  0.4588E-04  0.4603E-04
    -37.968  0.1629E-01  0.1634E-01  0.3566E-02  0.3577E-02
    -37.752  0.6645E+00  0.6660E+00  0.1471E+00  0.1475E+00
    -37.536  0.4930E+01  0.4935E+01  0.1212E+01  0.1214E+01
    -37.320  0.3523E+01  0.3518E+01  0.1976E+01  0.1976E+01
    -37.104  0.4674E-01  0.4659E-01  0.2000E+01  0.2000E+01
    -36.887  0.0000E+00  0.0000E+00  0.2000E+01  0.2000E+01
    -36.671  0.0000E+00  0.0000E+00  0.2000E+01  0.2000E+01
    -36.455  0.0000E+00  0.0000E+00  0.2000E+01  0.2000E+01
    -36.239  0.0000E+00  0.0000E+00  0.2000E+01  0.2000E+01
    -36.023  0.0000E+00  0.0000E+00  0.2000E+01  0.2000E+01
    -35.807  0.0000E+00  0.0000E+00  0.2000E+01  0.2000E+01
    -35.591  0.0000E+00  0.0000E+00  0.2000E+01  0.2000E+01
    -35.375  0.0000E+00  0.0000E+00  0.2000E+01  0.2000E+01
    -35.159  0.0000E+00  0.0000E+00  0.2000E+01  0.2000E+01
    -34.943  0.0000E+00  0.0000E+00  0.2000E+01  0.2000E+01
    -34.727  0.0000E+00  0.0000E+00  0.2000E+01  0.2000E+01
    -34.511  0.0000E+00  0.0000E+00  0.2000E+01  0.2000E+01
    -34.295  0.0000E+00  0.0000E+00  0.2000E+01  0.2000E+01
    -34.079  0.0000E+00  0.0000E+00  0.2000E+01  0.2000E+01
    -33.863  0.0000E+00  0.0000E+00  0.2000E+01  0.2000E+01
    -33.647  0.0000E+00  0.0000E+00  0.2000E+01  0.2000E+01
    -33.430  0.0000E+00  0.0000E+00  0.2000E+01  0.2000E+01
    -33.214  0.0000E+00  0.0000E+00  0.2000E+01  0.2000E+01
    -32.998  0.0000E+00  0.0000E+00  0.2000E+01  0.2000E+01
    -32.782  0.0000E+00  0.0000E+00  0.2000E+01  0.2000E+01
    -32.566  0.0000E+00  0.0000E+00  0.2000E+01  0.2000E+01
    -32.350  0.0000E+00  0.0000E+00  0.2000E+01  0.2000E+01
    -32.134  0.0000E+00  0.0000E+00  0.2000E+01  0.2000E+01
    -31.918  0.0000E+00  0.0000E+00  0.2000E+01  0.2000E+01
    -31.702  0.0000E+00  0.0000E+00  0.2000E+01  0.2000E+01
    -31.486  0.0000E+00  0.0000E+00  0.2000E+01  0.2000E+01
    -31.270  0.0000E+00  0.0000E+00  0.2000E+01  0.2000E+01
    -31.054  0.0000E+00  0.0000E+00  0.2000E+01  0.2000E+01
    -30.838  0.0000E+00  0.0000E+00  0.2000E+01  0.2000E+01
    -30.622  0.0000E+00  0.0000E+00  0.2000E+01  0.2000E+01
    -30.406  0.0000E+00  0.0000E+00  0.2000E+01  0.2000E+01
    -30.190  0.0000E+00  0.0000E+00  0.2000E+01  0.2000E+01
    -29.973  0.0000E+00  0.0000E+00  0.2000E+01  0.2000E+01
    -29.757  0.0000E+00  0.0000E+00  0.2000E+01  0.2000E+01
    -29.541  0.0000E+00  0.0000E+00  0.2000E+01  0.2000E+01
    -29.325  0.0000E+00  0.0000E+00  0.2000E+01  0.2000E+01
    -29.109  0.0000E+00  0.0000E+00  0.2000E+01  0.2000E+01
    -28.893  0.0000E+00  0.0000E+00  0.2000E+01  0.2000E+01
    -28.677  0.0000E+00  0.0000E+00  0.2000E+01  0.2000E+01
    -28.461  0.0000E+00  0.0000E+00  0.2000E+01  0.2000E+01
    -28.245  0.0000E+00  0.0000E+00  0.2000E+01  0.2000E+01
    -28.029  0.0000E+00  0.0000E+00  0.2000E+01  0.2000E+01
    -27.813  0.0000E+00  0.0000E+00  0.2000E+01  0.2000E+01
    -27.597  0.0000E+00  0.0000E+00  0.2000E+01  0.2000E+01
    -27.381  0.0000E+00  0.0000E+00  0.2000E+01  0.2000E+01
    -27.165  0.0000E+00  0.0000E+00  0.2000E+01  0.2000E+01
    -26.949  0.0000E+00  0.0000E+00  0.2000E+01  0.2000E+01
    -26.733  0.0000E+00  0.0000E+00  0.2000E+01  0.2000E+01
    -26.516  0.0000E+00  0.0000E+00  0.2000E+01  0.2000E+01
    -26.300  0.0000E+00  0.0000E+00  0.2000E+01  0.2000E+01
    -26.084  0.0000E+00  0.0000E+00  0.2000E+01  0.2000E+01
    -25.868  0.0000E+00  0.0000E+00  0.2000E+01  0.2000E+01
    -25.652  0.0000E+00  0.0000E+00  0.2000E+01  0.2000E+01
    -25.436  0.0000E+00  0.0000E+00  0.2000E+01  0.2000E+01
    -25.220  0.0000E+00  0.0000E+00  0.2000E+01  0.2000E+01
    -25.004  0.0000E+00  0.0000E+00  0.2000E+01  0.2000E+01
    -24.788  0.0000E+00  0.0000E+00  0.2000E+01  0.2000E+01
    -24.572  0.0000E+00  0.0000E+00  0.2000E+01  0.2000E+01
    -24.356  0.0000E+00  0.0000E+00  0.2000E+01  0.2000E+01
    -24.140  0.0000E+00  0.0000E+00  0.2000E+01  0.2000E+01
    -23.924  0.0000E+00  0.0000E+00  0.2000E+01  0.2000E+01
    -23.708  0.0000E+00  0.0000E+00  0.2000E+01  0.2000E+01
    -23.492  0.0000E+00  0.0000E+00  0.2000E+01  0.2000E+01
    -23.276  0.0000E+00  0.0000E+00  0.2000E+01  0.2000E+01
    -23.059  0.0000E+00  0.0000E+00  0.2000E+01  0.2000E+01
    -22.843  0.0000E+00  0.0000E+00  0.2000E+01  0.2000E+01
    -22.627  0.0000E+00  0.0000E+00  0.2000E+01  0.2000E+01
    -22.411  0.0000E+00  0.0000E+00  0.2000E+01  0.2000E+01
    -22.195  0.0000E+00  0.0000E+00  0.2000E+01  0.2000E+01
    -21.979  0.0000E+00  0.0000E+00  0.2000E+01  0.2000E+01
    -21.763  0.0000E+00  0.0000E+00  0.2000E+01  0.2000E+01
    -21.547  0.0000E+00  0.0000E+00  0.2000E+01  0.2000E+01
    -21.331  0.0000E+00  0.0000E+00  0.2000E+01  0.2000E+01
    -21.115  0.0000E+00  0.0000E+00  0.2000E+01  0.2000E+01
    -20.899  0.0000E+00  0.0000E+00  0.2000E+01  0.2000E+01
    -20.683  0.0000E+00  0.0000E+00  0.2000E+01  0.2000E+01
    -20.467  0.0000E+00  0.0000E+00  0.2000E+01  0.2000E+01
    -20.251  0.0000E+00  0.0000E+00  0.2000E+01  0.2000E+01
    -20.035  0.0000E+00  0.0000E+00  0.2000E+01  0.2000E+01
    -19.819  0.0000E+00  0.0000E+00  0.2000E+01  0.2000E+01
    -19.602  0.0000E+00  0.0000E+00  0.2000E+01  0.2000E+01
    -19.386  0.0000E+00  0.0000E+00  0.2000E+01  0.2000E+01
    -19.170  0.0000E+00  0.0000E+00  0.2000E+01  0.2000E+01
    -18.954  0.0000E+00  0.0000E+00  0.2000E+01  0.2000E+01
    -18.738  0.0000E+00  0.0000E+00  0.2000E+01  0.2000E+01
    -18.522  0.0000E+00  0.0000E+00  0.2000E+01  0.2000E+01
    -18.306  0.0000E+00  0.0000E+00  0.2000E+01  0.2000E+01
    -18.090  0.0000E+00  0.0000E+00  0.2000E+01  0.2000E+01
    -17.874  0.0000E+00  0.0000E+00  0.2000E+01  0.2000E+01
    -17.658  0.0000E+00  0.0000E+00  0.2000E+01  0.2000E+01
    -17.442  0.0000E+00  0.0000E+00  0.2000E+01  0.2000E+01
    -17.226  0.1709E-06  0.1715E-06  0.2000E+01  0.2000E+01
    -17.010  0.5582E-04  0.5598E-04  0.2000E+01  0.2000E+01
    -16.794  0.4468E-02  0.4480E-02  0.2001E+01  0.2001E+01
    -16.578  0.2241E+00  0.2245E+00  0.2049E+01  0.2049E+01
    -16.362  0.2271E+01  0.2272E+01  0.2540E+01  0.2540E+01
    -16.145  0.3752E+01  0.3752E+01  0.3351E+01  0.3351E+01
    -15.929  0.2564E+01  0.2564E+01  0.3911E+01  0.3911E+01
    -15.713  0.3074E+01  0.3075E+01  0.4578E+01  0.4579E+01
    -15.497  0.4695E+01  0.4696E+01  0.5596E+01  0.5597E+01
    -15.281  0.6890E+01  0.6890E+01  0.7089E+01  0.7089E+01
    -15.065  0.3837E+01  0.3835E+01  0.7924E+01  0.7924E+01
    -14.849  0.3007E+00  0.3004E+00  0.7999E+01  0.7999E+01
    -14.633  0.0000E+00  0.0000E+00  0.8000E+01  0.8000E+01
    -14.417  0.0000E+00  0.0000E+00  0.8000E+01  0.8000E+01
    -14.201  0.0000E+00  0.0000E+00  0.8000E+01  0.8000E+01
    -13.985  0.0000E+00  0.0000E+00  0.8000E+01  0.8000E+01
    -13.769  0.0000E+00  0.0000E+00  0.8000E+01  0.8000E+01
    -13.553  0.0000E+00  0.0000E+00  0.8000E+01  0.8000E+01
    -13.337  0.0000E+00  0.0000E+00  0.8000E+01  0.8000E+01
    -13.121  0.0000E+00  0.0000E+00  0.8000E+01  0.8000E+01
    -12.905  0.0000E+00  0.0000E+00  0.8000E+01  0.8000E+01
    -12.688  0.0000E+00  0.0000E+00  0.8000E+01  0.8000E+01
    -12.472  0.0000E+00  0.0000E+00  0.8000E+01  0.8000E+01
    -12.256  0.0000E+00  0.0000E+00  0.8000E+01  0.8000E+01
    -12.040  0.0000E+00  0.0000E+00  0.8000E+01  0.8000E+01
    -11.824  0.0000E+00  0.0000E+00  0.8000E+01  0.8000E+01
    -11.608  0.0000E+00  0.0000E+00  0.8000E+01  0.8000E+01
    -11.392  0.0000E+00  0.0000E+00  0.8000E+01  0.8000E+01
    -11.176  0.0000E+00  0.0000E+00  0.8000E+01  0.8000E+01
    -10.960  0.0000E+00  0.0000E+00  0.8000E+01  0.8000E+01
    -10.744  0.0000E+00  0.0000E+00  0.8000E+01  0.8000E+01
    -10.528  0.0000E+00  0.0000E+00  0.8000E+01  0.8000E+01
    -10.312  0.0000E+00  0.0000E+00  0.8000E+01  0.8000E+01
    -10.096  0.0000E+00  0.0000E+00  0.8000E+01  0.8000E+01
     -9.880  0.0000E+00  0.0000E+00  0.8000E+01  0.8000E+01
     -9.664  0.0000E+00  0.0000E+00  0.8000E+01  0.8000E+01
     -9.448  0.0000E+00  0.0000E+00  0.8000E+01  0.8000E+01
     -9.231  0.0000E+00  0.0000E+00  0.8000E+01  0.8000E+01
     -9.015  0.0000E+00  0.0000E+00  0.8000E+01  0.8000E+01
     -8.799  0.0000E+00  0.0000E+00  0.8000E+01  0.8000E+01
     -8.583  0.0000E+00  0.0000E+00  0.8000E+01  0.8000E+01
     -8.367  0.0000E+00  0.0000E+00  0.8000E+01  0.8000E+01
     -8.151  0.0000E+00  0.0000E+00  0.8000E+01  0.8000E+01
     -7.935  0.0000E+00  0.0000E+00  0.8000E+01  0.8000E+01
     -7.719  0.0000E+00  0.0000E+00  0.8000E+01  0.8000E+01
     -7.503  0.0000E+00  0.0000E+00  0.8000E+01  0.8000E+01
     -7.287  0.0000E+00  0.0000E+00  0.8000E+01  0.8000E+01
     -7.071  0.0000E+00  0.0000E+00  0.8000E+01  0.8000E+01
     -6.855  0.0000E+00  0.0000E+00  0.8000E+01  0.8000E+01
     -6.639  0.0000E+00  0.0000E+00  0.8000E+01  0.8000E+01
     -6.423  0.0000E+00  0.0000E+00  0.8000E+01  0.8000E+01
     -6.207  0.0000E+00  0.0000E+00  0.8000E+01  0.8000E+01
     -5.991  0.0000E+00  0.0000E+00  0.8000E+01  0.8000E+01
     -5.774  0.0000E+00  0.0000E+00  0.8000E+01  0.8000E+01
     -5.558  0.0000E+00  0.0000E+00  0.8000E+01  0.8000E+01
     -5.342  0.0000E+00  0.0000E+00  0.8000E+01  0.8000E+01
     -5.126  0.0000E+00  0.0000E+00  0.8000E+01  0.8000E+01
     -4.910  0.0000E+00  0.0000E+00  0.8000E+01  0.8000E+01
     -4.694  0.0000E+00  0.0000E+00  0.8000E+01  0.8000E+01
     -4.478  0.0000E+00  0.0000E+00  0.8000E+01  0.8000E+01
     -4.262  0.0000E+00  0.0000E+00  0.8000E+01  0.8000E+01
     -4.046  0.0000E+00  0.0000E+00  0.8000E+01  0.8000E+01
     -3.830  0.0000E+00  0.0000E+00  0.8000E+01  0.8000E+01
     -3.614  0.0000E+00  0.0000E+00  0.8000E+01  0.8000E+01
     -3.398  0.0000E+00  0.0000E+00  0.8000E+01  0.8000E+01
     -3.182  0.0000E+00  0.0000E+00  0.8000E+01  0.8000E+01
     -2.966  0.0000E+00  0.0000E+00  0.8000E+01  0.8000E+01
     -2.750  0.0000E+00  0.0000E+00  0.8000E+01  0.8000E+01
     -2.534  0.0000E+00  0.0000E+00  0.8000E+01  0.8000E+01
     -2.317  0.0000E+00  0.0000E+00  0.8000E+01  0.8000E+01
     -2.101  0.0000E+00  0.0000E+00  0.8000E+01  0.8000E+01
     -1.885  0.0000E+00  0.0000E+00  0.8000E+01  0.8000E+01
     -1.669  0.0000E+00  0.0000E+00  0.8000E+01  0.8000E+01
     -1.453  0.0000E+00  0.0000E+00  0.8000E+01  0.8000E+01
     -1.237  0.0000E+00  0.0000E+00  0.8000E+01  0.8000E+01
     -1.021  0.0000E+00  0.0000E+00  0.8000E+01  0.8000E+01
     -0.805  0.0000E+00  0.0000E+00  0.8000E+01  0.8000E+01
     -0.589  0.0000E+00  0.0000E+00  0.8000E+01  0.8000E+01
     -0.373  0.0000E+00  0.0000E+00  0.8000E+01  0.8000E+01
     -0.157  0.0000E+00  0.0000E+00  0.8000E+01  0.8000E+01
      0.059  0.0000E+00  0.0000E+00  0.8000E+01  0.8000E+01
      0.275  0.0000E+00  0.0000E+00  0.8000E+01  0.8000E+01
      0.491  0.0000E+00  0.0000E+00  0.8000E+01  0.8000E+01
      0.707  0.0000E+00  0.0000E+00  0.8000E+01  0.8000E+01
      0.923  0.0000E+00  0.0000E+00  0.8000E+01  0.8000E+01
      1.139  0.0000E+00  0.0000E+00  0.8000E+01  0.8000E+01
      1.356  0.0000E+00  0.0000E+00  0.8000E+01  0.8000E+01
      1.572  0.0000E+00  0.0000E+00  0.8000E+01  0.8000E+01
      1.788  0.0000E+00  0.0000E+00  0.8000E+01  0.8000E+01
      2.004  0.0000E+00  0.0000E+00  0.8000E+01  0.8000E+01
      2.220  0.0000E+00  0.0000E+00  0.8000E+01  0.8000E+01
      2.436  0.0000E+00  0.0000E+00  0.8000E+01  0.8000E+01
      2.652  0.0000E+00  0.0000E+00  0.8000E+01  0.8000E+01
      2.868  0.0000E+00  0.0000E+00  0.8000E+01  0.8000E+01
      3.084  0.0000E+00  0.0000E+00  0.8000E+01  0.8000E+01
      3.300  0.0000E+00  0.0000E+00  0.8000E+01  0.8000E+01
      3.516  0.0000E+00  0.0000E+00  0.8000E+01  0.8000E+01
      3.732  0.0000E+00  0.0000E+00  0.8000E+01  0.8000E+01
      3.948  0.0000E+00  0.0000E+00  0.8000E+01  0.8000E+01
      4.164  0.0000E+00  0.0000E+00  0.8000E+01  0.8000E+01
      4.380  0.8012E-07  0.8159E-07  0.8000E+01  0.8000E+01
      4.596  0.7651E-05  0.7790E-05  0.8000E+01  0.8000E+01
      4.813  0.5245E-03  0.5331E-03  0.8000E+01  0.8000E+01
      5.029  0.9101E-02  0.9184E-02  0.8002E+01  0.8002E+01
      5.245  0.3881E-01  0.3890E-01  0.8010E+01  0.8011E+01
      5.461  0.3342E-01  0.3344E-01  0.8018E+01  0.8018E+01
      5.677  0.8438E-01  0.8449E-01  0.8036E+01  0.8036E+01
      5.893  0.6431E-01  0.6426E-01  0.8050E+01  0.8050E+01
      6.109  0.8531E-01  0.8553E-01  0.8068E+01  0.8069E+01
      6.325  0.1160E+00  0.1159E+00  0.8094E+01  0.8094E+01
      6.541  0.1461E+00  0.1465E+00  0.8125E+01  0.8126E+01
      6.757  0.1219E+00  0.1215E+00  0.8152E+01  0.8152E+01
      6.973  0.1570E+00  0.1578E+00  0.8186E+01  0.8186E+01
      7.189  0.3405E+00  0.3407E+00  0.8260E+01  0.8260E+01
      7.405  0.5560E+00  0.5571E+00  0.8380E+01  0.8381E+01
      7.621  0.9309E+00  0.9313E+00  0.8582E+01  0.8583E+01
      7.837  0.1171E+01  0.1172E+01  0.8836E+01  0.8837E+01
      8.053  0.1187E+01  0.1187E+01  0.9093E+01  0.9094E+01
      8.270  0.1263E+01  0.1263E+01  0.9368E+01  0.9368E+01
      8.486  0.1356E+01  0.1356E+01  0.9662E+01  0.9663E+01
      8.702  0.8830E+00  0.8818E+00  0.9855E+01  0.9855E+01
      8.918  0.8703E+00  0.8704E+00  0.1004E+02  0.1004E+02
      9.134  0.9867E+00  0.9871E+00  0.1026E+02  0.1026E+02
      9.350  0.1174E+01  0.1174E+01  0.1051E+02  0.1051E+02
      9.566  0.1169E+01  0.1169E+01  0.1077E+02  0.1077E+02
      9.782  0.1312E+01  0.1312E+01  0.1105E+02  0.1105E+02
      9.998  0.1196E+01  0.1196E+01  0.1131E+02  0.1131E+02
     10.214  0.1452E+01  0.1452E+01  0.1163E+02  0.1163E+02
     10.430  0.7632E+00  0.7618E+00  0.1179E+02  0.1179E+02
     10.646  0.4657E+00  0.4663E+00  0.1190E+02  0.1190E+02
     10.862  0.9715E+00  0.9725E+00  0.1211E+02  0.1211E+02
     11.078  0.1595E+01  0.1596E+01  0.1245E+02  0.1245E+02
     11.294  0.1359E+01  0.1358E+01  0.1275E+02  0.1275E+02
     11.510  0.1490E+01  0.1489E+01  0.1307E+02  0.1307E+02
     11.727  0.1209E+01  0.1210E+01  0.1334E+02  0.1334E+02
     11.943  0.1583E+01  0.1584E+01  0.1368E+02  0.1368E+02
     12.159  0.1633E+01  0.1633E+01  0.1403E+02  0.1403E+02
     12.375  0.1665E+01  0.1665E+01  0.1440E+02  0.1440E+02
     12.591  0.1432E+01  0.1432E+01  0.1471E+02  0.1471E+02
     12.807  0.1096E+01  0.1096E+01  0.1494E+02  0.1495E+02
     13.023  0.8439E+00  0.8433E+00  0.1513E+02  0.1513E+02
     13.239  0.7455E+00  0.7457E+00  0.1529E+02  0.1529E+02
     13.455  0.7383E+00  0.7379E+00  0.1545E+02  0.1545E+02
     13.671  0.4612E+00  0.4614E+00  0.1555E+02  0.1555E+02
     13.887  0.7817E+00  0.7817E+00  0.1572E+02  0.1572E+02
     14.103  0.6289E+00  0.6286E+00  0.1586E+02  0.1586E+02
     14.319  0.4121E+00  0.4122E+00  0.1595E+02  0.1595E+02
     14.535  0.6745E+00  0.6747E+00  0.1610E+02  0.1610E+02
     14.751  0.6748E+00  0.6749E+00  0.1624E+02  0.1624E+02
     14.967  0.6563E+00  0.6561E+00  0.1638E+02  0.1638E+02
     15.184  0.5973E+00  0.5974E+00  0.1651E+02  0.1652E+02
     15.400  0.7938E+00  0.7941E+00  0.1669E+02  0.1669E+02
     15.616  0.9806E+00  0.9807E+00  0.1690E+02  0.1690E+02
     15.832  0.1245E+01  0.1245E+01  0.1717E+02  0.1717E+02
     16.048  0.1263E+01  0.1263E+01  0.1744E+02  0.1744E+02
     16.264  0.1290E+01  0.1289E+01  0.1772E+02  0.1772E+02
     16.480  0.1305E+01  0.1306E+01  0.1801E+02  0.1801E+02
     16.696  0.1649E+01  0.1649E+01  0.1837E+02  0.1837E+02
     16.912  0.1133E+01  0.1133E+01  0.1861E+02  0.1861E+02
     17.128  0.7681E+00  0.7676E+00  0.1878E+02  0.1878E+02
     17.344  0.3813E+00  0.3813E+00  0.1886E+02  0.1886E+02
     17.560  0.5872E+00  0.5876E+00  0.1899E+02  0.1899E+02
     17.776  0.4832E+00  0.4830E+00  0.1910E+02  0.1910E+02
     17.992  0.3281E+00  0.3284E+00  0.1917E+02  0.1917E+02
     18.208  0.3397E+00  0.3397E+00  0.1924E+02  0.1924E+02
     18.424  0.3755E+00  0.3713E+00  0.1932E+02  0.1932E+02
     18.641  0.4940E+00  0.4929E+00  0.1943E+02  0.1943E+02
     18.857  0.4257E+00  0.4291E+00  0.1952E+02  0.1952E+02
     19.073  0.5591E+00  0.5527E+00  0.1965E+02  0.1964E+02
     19.289  0.3593E+00  0.3713E+00  0.1972E+02  0.1972E+02
     19.505  0.3639E+00  0.3676E+00  0.1980E+02  0.1980E+02
     19.721  0.1989E+00  0.1905E+00  0.1985E+02  0.1985E+02
     19.937  0.1371E+00  0.1380E+00  0.1988E+02  0.1988E+02
     20.153  0.1227E+00  0.1212E+00  0.1990E+02  0.1990E+02
     20.369  0.1828E+00  0.1855E+00  0.1994E+02  0.1994E+02
     20.585  0.1040E+00  0.1031E+00  0.1997E+02  0.1997E+02
     20.801  0.4204E-01  0.4401E-01  0.1997E+02  0.1998E+02
     21.017  0.8035E-01  0.7028E-01  0.1999E+02  0.1999E+02
     21.233  0.3519E-01  0.4109E-01  0.2000E+02  0.2000E+02
     21.449  0.1645E-02  0.2163E-02  0.2000E+02  0.2000E+02
     21.665  0.0000E+00  0.0000E+00  0.2000E+02  0.2000E+02
     21.881  0.0000E+00  0.0000E+00  0.2000E+02  0.2000E+02
     22.098  0.0000E+00  0.0000E+00  0.2000E+02  0.2000E+02
     22.314  0.0000E+00  0.0000E+00  0.2000E+02  0.2000E+02
     22.530  0.0000E+00  0.0000E+00  0.2000E+02  0.2000E+02
     22.746  0.0000E+00  0.0000E+00  0.2000E+02  0.2000E+02
     22.962  0.0000E+00  0.0000E+00  0.2000E+02  0.2000E+02
     23.178  0.0000E+00  0.0000E+00  0.2000E+02  0.2000E+02
     23.394  0.0000E+00  0.0000E+00  0.2000E+02  0.2000E+02
     23.610  0.0000E+00  0.0000E+00  0.2000E+02  0.2000E+02
     23.826  0.0000E+00  0.0000E+00  0.2000E+02  0.2000E+02
     24.042  0.0000E+00  0.0000E+00  0.2000E+02  0.2000E+02
     24.04210100    -40.77658881  301     10.76896299      1.00000000
    -40.777  0.0000E+00  0.0000E+00  0.0000E+00  0.0000E+00  0.0000E+00  0.0000E+00  0.0000E+00  0.0000E+00  0.0000E+00  0.0000E+00  0.0000E+00  0.0000E+00  0.0000E+00  0.0000E+00  0.0000E+00  0.0000E+00  0.0000E+00  0.0000E+00
    -40.561  0.0000E+00  0.0000E+00  0.0000E+00  0.0000E+00  0.0000E+00  0.0000E+00  0.0000E+00  0.0000E+00  0.0000E+00  0.0000E+00  0.0000E+00  0.0000E+00  0.0000E+00  0.0000E+00  0.0000E+00  0.0000E+00  0.0000E+00  0.0000E+00
    -40.344  0.0000E+00  0.0000E+00  0.0000E+00  0.0000E+00  0.0000E+00  0.0000E+00  0.0000E+00  0.0000E+00  0.0000E+00  0.0000E+00  0.0000E+00  0.0000E+00  0.0000E+00  0.0000E+00  0.0000E+00  0.0000E+00  0.0000E+00  0.0000E+00
    -40.128  0.0000E+00  0.0000E+00  0.0000E+00  0.0000E+00  0.0000E+00  0.0000E+00  0.0000E+00  0.0000E+00  0.0000E+00  0.0000E+00  0.0000E+00  0.0000E+00  0.0000E+00  0.0000E+00  0.0000E+00  0.0000E+00  0.0000E+00  0.0000E+00
    -39.912  0.0000E+00  0.0000E+00  0.0000E+00  0.0000E+00  0.0000E+00  0.0000E+00  0.0000E+00  0.0000E+00  0.0000E+00  0.0000E+00  0.0000E+00  0.0000E+00  0.0000E+00  0.0000E+00  0.0000E+00  0.0000E+00  0.0000E+00  0.0000E+00
    -39.696  0.0000E+00  0.0000E+00  0.0000E+00  0.0000E+00  0.0000E+00  0.0000E+00  0.0000E+00  0.0000E+00  0.0000E+00  0.0000E+00  0.0000E+00  0.0000E+00  0.0000E+00  0.0000E+00  0.0000E+00  0.0000E+00  0.0000E+00  0.0000E+00
    -39.480  0.0000E+00  0.0000E+00  0.0000E+00  0.0000E+00  0.0000E+00  0.0000E+00  0.0000E+00  0.0000E+00  0.0000E+00  0.0000E+00  0.0000E+00  0.0000E+00  0.0000E+00  0.0000E+00  0.0000E+00  0.0000E+00  0.0000E+00  0.0000E+00
    -39.264  0.0000E+00  0.0000E+00  0.0000E+00  0.0000E+00  0.0000E+00  0.0000E+00  0.0000E+00  0.0000E+00  0.0000E+00  0.0000E+00  0.0000E+00  0.0000E+00  0.0000E+00  0.0000E+00  0.0000E+00  0.0000E+00  0.0000E+00  0.0000E+00
    -39.048  0.0000E+00  0.0000E+00  0.0000E+00  0.0000E+00  0.0000E+00  0.0000E+00  0.0000E+00  0.0000E+00  0.0000E+00  0.0000E+00  0.0000E+00  0.0000E+00  0.0000E+00  0.0000E+00  0.0000E+00  0.0000E+00  0.0000E+00  0.0000E+00
    -38.832  0.0000E+00  0.0000E+00  0.0000E+00  0.0000E+00  0.0000E+00  0.0000E+00  0.0000E+00  0.0000E+00  0.0000E+00  0.0000E+00  0.0000E+00  0.0000E+00  0.0000E+00  0.0000E+00  0.0000E+00  0.0000E+00  0.0000E+00  0.0000E+00
    -38.616  0.0000E+00  0.0000E+00  0.0000E+00  0.0000E+00  0.0000E+00  0.0000E+00  0.0000E+00  0.0000E+00  0.0000E+00  0.0000E+00  0.0000E+00  0.0000E+00  0.0000E+00  0.0000E+00  0.0000E+00  0.0000E+00  0.0000E+00  0.0000E+00
    -38.400  0.4956E-06  0.4972E-06  0.5996E-11  0.6023E-11  0.7979E-11  0.8014E-11  0.5996E-11  0.6023E-11  0.2095E-12  0.2110E-12  0.1065E-12  0.1070E-12  0.7897E-12  0.7943E-12  0.1065E-12  0.1070E-12  0.2095E-12  0.2110E-12
    -38.184  0.1043E-03  0.1047E-03  0.2675E-08  0.2686E-08  0.2966E-08  0.2978E-08  0.2675E-08  0.2686E-08  0.3411E-09  0.3426E-09  0.2158E-09  0.2166E-09  0.5016E-09  0.5038E-09  0.2158E-09  0.2166E-09  0.3411E-09  0.3426E-09
    -37.968  0.8044E-02  0.8070E-02  0.2005E-06  0.2014E-06  0.2234E-06  0.2243E-06  0.2005E-06  0.2014E-06  0.2911E-07  0.2922E-07  0.2068E-07  0.2076E-07  0.4297E-07  0.4315E-07  0.2068E-07  0.2076E-07  0.2911E-07  0.2922E-07
    -37.752  0.3285E+00  0.3292E+00  0.9219E-05  0.9249E-05  0.1035E-04  0.1038E-04  0.9219E-05  0.9249E-05  0.1733E-05  0.1738E-05  0.1285E-05  0.1289E-05  0.2402E-05  0.2410E-05  0.1285E-05  0.1289E-05  0.1733E-05  0.1738E-05
    -37.536  0.2446E+01  0.2448E+01  0.4987E-04  0.4992E-04  0.5958E-04  0.5961E-04  0.4987E-04  0.4992E-04  0.2304E-04  0.2305E-04  0.2162E-04  0.2164E-04  0.3139E-04  0.3141E-04  0.2162E-04  0.2164E-04  0.2304E-04  0.2305E-04
    -37.320  0.1751E+01  0.1748E+01  0.1799E-04  0.1797E-04  0.2277E-04  0.2272E-04  0.1799E-04  0.1797E-04  0.1473E-04  0.1469E-04  0.1761E-04  0.1758E-04  0.1993E-04  0.1988E-04  0.1761E-04  0.1758E-04  0.1473E-04  0.1469E-04
    -37.104  0.2325E-01  0.2318E-01  0.1433E-06  0.1429E-06  0.6294E-07  0.6258E-07  0.1433E-06  0.1429E-06  0.1360E-06  0.1353E-06  0.9499E-07  0.9460E-07  0.7499E-07  0.7473E-07  0.9499E-07  0.9460E-07  0.1360E-06  0.1353E-06
    -36.887  0.0000E+00  0.0000E+00  0.0000E+00  0.0000E+00  0.0000E+00  0.0000E+00  0.0000E+00  0.0000E+00  0.0000E+00  0.0000E+00  0.0000E+00  0.0000E+00  0.0000E+00  0.0000E+00  0.0000E+00  0.0000E+00  0.0000E+00  0.0000E+00
    -36.671  0.0000E+00  0.0000E+00  0.0000E+00  0.0000E+00  0.0000E+00  0.0000E+00  0.0000E+00  0.0000E+00  0.0000E+00  0.0000E+00  0.0000E+00  0.0000E+00  0.0000E+00  0.0000E+00  0.0000E+00  0.0000E+00  0.0000E+00  0.0000E+00
    -36.455  0.0000E+00  0.0000E+00  0.0000E+00  0.0000E+00  0.0000E+00  0.0000E+00  0.0000E+00  0.0000E+00  0.0000E+00  0.0000E+00  0.0000E+00  0.0000E+00  0.0000E+00  0.0000E+00  0.0000E+00  0.0000E+00  0.0000E+00  0.0000E+00
    -36.239  0.0000E+00  0.0000E+00  0.0000E+00  0.0000E+00  0.0000E+00  0.0000E+00  0.0000E+00  0.0000E+00  0.0000E+00  0.0000E+00  0.0000E+00  0.0000E+00  0.0000E+00  0.0000E+00  0.0000E+00  0.0000E+00  0.0000E+00  0.0000E+00
    -36.023  0.0000E+00  0.0000E+00  0.0000E+00  0.0000E+00  0.0000E+00  0.0000E+00  0.0000E+00  0.0000E+00  0.0000E+00  0.0000E+00  0.0000E+00  0.0000E+00  0.0000E+00  0.0000E+00  0.0000E+00  0.0000E+00  0.0000E+00  0.0000E+00
    -35.807  0.0000E+00  0.0000E+00  0.0000E+00  0.0000E+00  0.0000E+00  0.0000E+00  0.0000E+00  0.0000E+00  0.0000E+00  0.0000E+00  0.0000E+00  0.0000E+00  0.0000E+00  0.0000E+00  0.0000E+00  0.0000E+00  0.0000E+00  0.0000E+00
    -35.591  0.0000E+00  0.0000E+00  0.0000E+00  0.0000E+00  0.0000E+00  0.0000E+00  0.0000E+00  0.0000E+00  0.0000E+00  0.0000E+00  0.0000E+00  0.0000E+00  0.0000E+00  0.0000E+00  0.0000E+00  0.0000E+00  0.0000E+00  0.0000E+00
    -35.375  0.0000E+00  0.0000E+00  0.0000E+00  0.0000E+00  0.0000E+00  0.0000E+00  0.0000E+00  0.0000E+00  0.0000E+00  0.0000E+00  0.0000E+00  0.0000E+00  0.0000E+00  0.0000E+00  0.0000E+00  0.0000E+00  0.0000E+00  0.0000E+00
    -35.159  0.0000E+00  0.0000E+00  0.0000E+00  0.0000E+00  0.0000E+00  0.0000E+00  0.0000E+00  0.0000E+00  0.0000E+00  0.0000E+00  0.0000E+00  0.0000E+00  0.0000E+00  0.0000E+00  0.0000E+00  0.0000E+00  0.0000E+00  0.0000E+00
    -34.943  0.0000E+00  0.0000E+00  0.0000E+00  0.0000E+00  0.0000E+00  0.0000E+00  0.0000E+00  0.0000E+00  0.0000E+00  0.0000E+00  0.0000E+00  0.0000E+00  0.0000E+00  0.0000E+00  0.0000E+00  0.0000E+00  0.0000E+00  0.0000E+00
    -34.727  0.0000E+00  0.0000E+00  0.0000E+00  0.0000E+00  0.0000E+00  0.0000E+00  0.0000E+00  0.0000E+00  0.0000E+00  0.0000E+00  0.0000E+00  0.0000E+00  0.0000E+00  0.0000E+00  0.0000E+00  0.0000E+00  0.0000E+00  0.0000E+00
    -34.511  0.0000E+00  0.0000E+00  0.0000E+00  0.0000E+00  0.0000E+00  0.0000E+00  0.0000E+00  0.0000E+00  0.0000E+00  0.0000E+00  0.0000E+00  0.0000E+00  0.0000E+00  0.0000E+00  0.0000E+00  0.0000E+00  0.0000E+00  0.0000E+00
    -34.295  0.0000E+00  0.0000E+00  0.0000E+00  0.0000E+00  0.0000E+00  0.0000E+00  0.0000E+00  0.0000E+00  0.0000E+00  0.0000E+00  0.0000E+00  0.0000E+00  0.0000E+00  0.0000E+00  0.0000E+00  0.0000E+00  0.0000E+00  0.0000E+00
    -34.079  0.0000E+00  0.0000E+00  0.0000E+00  0.0000E+00  0.0000E+00  0.0000E+00  0.0000E+00  0.0000E+00  0.0000E+00  0.0000E+00  0.0000E+00  0.0000E+00  0.0000E+00  0.0000E+00  0.0000E+00  0.0000E+00  0.0000E+00  0.0000E+00
    -33.863  0.0000E+00  0.0000E+00  0.0000E+00  0.0000E+00  0.0000E+00  0.0000E+00  0.0000E+00  0.0000E+00  0.0000E+00  0.0000E+00  0.0000E+00  0.0000E+00  0.0000E+00  0.0000E+00  0.0000E+00  0.0000E+00  0.0000E+00  0.0000E+00
    -33.647  0.0000E+00  0.0000E+00  0.0000E+00  0.0000E+00  0.0000E+00  0.0000E+00  0.0000E+00  0.0000E+00  0.0000E+00  0.0000E+00  0.0000E+00  0.0000E+00  0.0000E+00  0.0000E+00  0.0000E+00  0.0000E+00  0.0000E+00  0.0000E+00
    -33.430  0.0000E+00  0.0000E+00  0.0000E+00  0.0000E+00  0.0000E+00  0.0000E+00  0.0000E+00  0.0000E+00  0.0000E+00  0.0000E+00  0.0000E+00  0.0000E+00  0.0000E+00  0.0000E+00  0.0000E+00  0.0000E+00  0.0000E+00  0.0000E+00
    -33.214  0.0000E+00  0.0000E+00  0.0000E+00  0.0000E+00  0.0000E+00  0.0000E+00  0.0000E+00  0.0000E+00  0.0000E+00  0.0000E+00  0.0000E+00  0.0000E+00  0.0000E+00  0.0000E+00  0.0000E+00  0.0000E+00  0.0000E+00  0.0000E+00
    -32.998  0.0000E+00  0.0000E+00  0.0000E+00  0.0000E+00  0.0000E+00  0.0000E+00  0.0000E+00  0.0000E+00  0.0000E+00  0.0000E+00  0.0000E+00  0.0000E+00  0.0000E+00  0.0000E+00  0.0000E+00  0.0000E+00  0.0000E+00  0.0000E+00
    -32.782  0.0000E+00  0.0000E+00  0.0000E+00  0.0000E+00  0.0000E+00  0.0000E+00  0.0000E+00  0.0000E+00  0.0000E+00  0.0000E+00  0.0000E+00  0.0000E+00  0.0000E+00  0.0000E+00  0.0000E+00  0.0000E+00  0.0000E+00  0.0000E+00
    -32.566  0.0000E+00  0.0000E+00  0.0000E+00  0.0000E+00  0.0000E+00  0.0000E+00  0.0000E+00  0.0000E+00  0.0000E+00  0.0000E+00  0.0000E+00  0.0000E+00  0.0000E+00  0.0000E+00  0.0000E+00  0.0000E+00  0.0000E+00  0.0000E+00
    -32.350  0.0000E+00  0.0000E+00  0.0000E+00  0.0000E+00  0.0000E+00  0.0000E+00  0.0000E+00  0.0000E+00  0.0000E+00  0.0000E+00  0.0000E+00  0.0000E+00  0.0000E+00  0.0000E+00  0.0000E+00  0.0000E+00  0.0000E+00  0.0000E+00
    -32.134  0.0000E+00  0.0000E+00  0.0000E+00  0.0000E+00  0.0000E+00  0.0000E+00  0.0000E+00  0.0000E+00  0.0000E+00  0.0000E+00  0.0000E+00  0.0000E+00  0.0000E+00  0.0000E+00  0.0000E+00  0.0000E+00  0.0000E+00  0.0000E+00
    -31.918  0.0000E+00  0.0000E+00  0.0000E+00  0.0000E+00  0.0000E+00  0.0000E+00  0.0000E+00  0.0000E+00  0.0000E+00  0.0000E+00  0.0000E+00  0.0000E+00  0.0000E+00  0.0000E+00  0.0000E+00  0.0000E+00  0.0000E+00  0.0000E+00
    -31.702  0.0000E+00  0.0000E+00  0.0000E+00  0.0000E+00  0.0000E+00  0.0000E+00  0.0000E+00  0.0000E+00  0.0000E+00  0.0000E+00  0.0000E+00  0.0000E+00  0.0000E+00  0.0000E+00  0.0000E+00  0.0000E+00  0.0000E+00  0.0000E+00
    -31.486  0.0000E+00  0.0000E+00  0.0000E+00  0.0000E+00  0.0000E+00  0.0000E+00  0.0000E+00  0.0000E+00  0.0000E+00  0.0000E+00  0.0000E+00  0.0000E+00  0.0000E+00  0.0000E+00  0.0000E+00  0.0000E+00  0.0000E+00  0.0000E+00
    -31.270  0.0000E+00  0.0000E+00  0.0000E+00  0.0000E+00  0.0000E+00  0.0000E+00  0.0000E+00  0.0000E+00  0.0000E+00  0.0000E+00  0.0000E+00  0.0000E+00  0.0000E+00  0.0000E+00  0.0000E+00  0.0000E+00  0.0000E+00  0.0000E+00
    -31.054  0.0000E+00  0.0000E+00  0.0000E+00  0.0000E+00  0.0000E+00  0.0000E+00  0.0000E+00  0.0000E+00  0.0000E+00  0.0000E+00  0.0000E+00  0.0000E+00  0.0000E+00  0.0000E+00  0.0000E+00  0.0000E+00  0.0000E+00  0.0000E+00
    -30.838  0.0000E+00  0.0000E+00  0.0000E+00  0.0000E+00  0.0000E+00  0.0000E+00  0.0000E+00  0.0000E+00  0.0000E+00  0.0000E+00  0.0000E+00  0.0000E+00  0.0000E+00  0.0000E+00  0.0000E+00  0.0000E+00  0.0000E+00  0.0000E+00
    -30.622  0.0000E+00  0.0000E+00  0.0000E+00  0.0000E+00  0.0000E+00  0.0000E+00  0.0000E+00  0.0000E+00  0.0000E+00  0.0000E+00  0.0000E+00  0.0000E+00  0.0000E+00  0.0000E+00  0.0000E+00  0.0000E+00  0.0000E+00  0.0000E+00
    -30.406  0.0000E+00  0.0000E+00  0.0000E+00  0.0000E+00  0.0000E+00  0.0000E+00  0.0000E+00  0.0000E+00  0.0000E+00  0.0000E+00  0.0000E+00  0.0000E+00  0.0000E+00  0.0000E+00  0.0000E+00  0.0000E+00  0.0000E+00  0.0000E+00
    -30.190  0.0000E+00  0.0000E+00  0.0000E+00  0.0000E+00  0.0000E+00  0.0000E+00  0.0000E+00  0.0000E+00  0.0000E+00  0.0000E+00  0.0000E+00  0.0000E+00  0.0000E+00  0.0000E+00  0.0000E+00  0.0000E+00  0.0000E+00  0.0000E+00
    -29.973  0.0000E+00  0.0000E+00  0.0000E+00  0.0000E+00  0.0000E+00  0.0000E+00  0.0000E+00  0.0000E+00  0.0000E+00  0.0000E+00  0.0000E+00  0.0000E+00  0.0000E+00  0.0000E+00  0.0000E+00  0.0000E+00  0.0000E+00  0.0000E+00