   2   2   1   0
  0.1880001E+02  0.3002841E-09  0.3002840E-09  0.4814962E-09  0.5000000E-15
  1.000000000000000E-004
  CAR 
 unknown system                          
     26.11540769    -39.95528381  301     11.58726866      1.00000000
    -39.955  0.0000E+00  0.0000E+00  0.0000E+00  0.0000E+00
    -39.735  0.0000E+00  0.0000E+00  0.0000E+00  0.0000E+00
    -39.515  0.0000E+00  0.0000E+00  0.0000E+00  0.0000E+00
    -39.295  0.0000E+00  0.0000E+00  0.0000E+00  0.0000E+00
    -39.074  0.0000E+00  0.0000E+00  0.0000E+00  0.0000E+00
    -38.854  0.0000E+00  0.0000E+00  0.0000E+00  0.0000E+00
    -38.634  0.0000E+00  0.0000E+00  0.0000E+00  0.0000E+00
    -38.414  0.0000E+00  0.0000E+00  0.0000E+00  0.0000E+00
    -38.193  0.0000E+00  0.0000E+00  0.0000E+00  0.0000E+00
    -37.973  0.0000E+00  0.0000E+00  0.0000E+00  0.0000E+00
    -37.753  0.0000E+00  0.0000E+00  0.0000E+00  0.0000E+00
    -37.533  0.3811E-06  0.3822E-06  0.8394E-07  0.8417E-07
    -37.312  0.1148E-03  0.1151E-03  0.2536E-04  0.2543E-04
    -37.092  0.9552E-02  0.9577E-02  0.2129E-02  0.2135E-02
    -36.872  0.3997E+00  0.4004E+00  0.9017E-01  0.9032E-01
    -36.652  0.2928E+01  0.2930E+01  0.7349E+00  0.7357E+00
    -36.432  0.5246E+01  0.5244E+01  0.1892E+01  0.1892E+01
    -36.211  0.4542E+00  0.4531E+00  0.1999E+01  0.1999E+01
    -35.991  0.0000E+00  0.0000E+00  0.2000E+01  0.2000E+01
    -35.771  0.0000E+00  0.0000E+00  0.2000E+01  0.2000E+01
    -35.551  0.0000E+00  0.0000E+00  0.2000E+01  0.2000E+01
    -35.330  0.0000E+00  0.0000E+00  0.2000E+01  0.2000E+01
    -35.110  0.0000E+00  0.0000E+00  0.2000E+01  0.2000E+01
    -34.890  0.0000E+00  0.0000E+00  0.2000E+01  0.2000E+01
    -34.670  0.0000E+00  0.0000E+00  0.2000E+01  0.2000E+01
    -34.449  0.0000E+00  0.0000E+00  0.2000E+01  0.2000E+01
    -34.229  0.0000E+00  0.0000E+00  0.2000E+01  0.2000E+01
    -34.009  0.0000E+00  0.0000E+00  0.2000E+01  0.2000E+01
    -33.789  0.0000E+00  0.0000E+00  0.2000E+01  0.2000E+01
    -33.568  0.0000E+00  0.0000E+00  0.2000E+01  0.2000E+01
    -33.348  0.0000E+00  0.0000E+00  0.2000E+01  0.2000E+01
    -33.128  0.0000E+00  0.0000E+00  0.2000E+01  0.2000E+01
    -32.908  0.0000E+00  0.0000E+00  0.2000E+01  0.2000E+01
    -32.688  0.0000E+00  0.0000E+00  0.2000E+01  0.2000E+01
    -32.467  0.0000E+00  0.0000E+00  0.2000E+01  0.2000E+01
    -32.247  0.0000E+00  0.0000E+00  0.2000E+01  0.2000E+01
    -32.027  0.0000E+00  0.0000E+00  0.2000E+01  0.2000E+01
    -31.807  0.0000E+00  0.0000E+00  0.2000E+01  0.2000E+01
    -31.586  0.0000E+00  0.0000E+00  0.2000E+01  0.2000E+01
    -31.366  0.0000E+00  0.0000E+00  0.2000E+01  0.2000E+01
    -31.146  0.0000E+00  0.0000E+00  0.2000E+01  0.2000E+01
    -30.926  0.0000E+00  0.0000E+00  0.2000E+01  0.2000E+01
    -30.705  0.0000E+00  0.0000E+00  0.2000E+01  0.2000E+01
    -30.485  0.0000E+00  0.0000E+00  0.2000E+01  0.2000E+01
    -30.265  0.0000E+00  0.0000E+00  0.2000E+01  0.2000E+01
    -30.045  0.0000E+00  0.0000E+00  0.2000E+01  0.2000E+01
    -29.824  0.0000E+00  0.0000E+00  0.2000E+01  0.2000E+01
    -29.604  0.0000E+00  0.0000E+00  0.2000E+01  0.2000E+01
    -29.384  0.0000E+00  0.0000E+00  0.2000E+01  0.2000E+01
    -29.164  0.0000E+00  0.0000E+00  0.2000E+01  0.2000E+01
    -28.944  0.0000E+00  0.0000E+00  0.2000E+01  0.2000E+01
    -28.723  0.0000E+00  0.0000E+00  0.2000E+01  0.2000E+01
    -28.503  0.0000E+00  0.0000E+00  0.2000E+01  0.2000E+01
    -28.283  0.0000E+00  0.0000E+00  0.2000E+01  0.2000E+01
    -28.063  0.0000E+00  0.0000E+00  0.2000E+01  0.2000E+01
    -27.842  0.0000E+00  0.0000E+00  0.2000E+01  0.2000E+01
    -27.622  0.0000E+00  0.0000E+00  0.2000E+01  0.2000E+01
    -27.402  0.0000E+00  0.0000E+00  0.2000E+01  0.2000E+01
    -27.182  0.0000E+00  0.0000E+00  0.2000E+01  0.2000E+01
    -26.961  0.0000E+00  0.0000E+00  0.2000E+01  0.2000E+01
    -26.741  0.0000E+00  0.0000E+00  0.2000E+01  0.2000E+01
    -26.521  0.0000E+00  0.0000E+00  0.2000E+01  0.2000E+01
    -26.301  0.0000E+00  0.0000E+00  0.2000E+01  0.2000E+01
    -26.080  0.0000E+00  0.0000E+00  0.2000E+01  0.2000E+01
    -25.860  0.0000E+00  0.0000E+00  0.2000E+01  0.2000E+01
    -25.640  0.0000E+00  0.0000E+00  0.2000E+01  0.2000E+01
    -25.420  0.0000E+00  0.0000E+00  0.2000E+01  0.2000E+01
    -25.199  0.0000E+00  0.0000E+00  0.2000E+01  0.2000E+01
    -24.979  0.0000E+00  0.0000E+00  0.2000E+01  0.2000E+01
    -24.759  0.0000E+00  0.0000E+00  0.2000E+01  0.2000E+01
    -24.539  0.0000E+00  0.0000E+00  0.2000E+01  0.2000E+01
    -24.319  0.0000E+00  0.0000E+00  0.2000E+01  0.2000E+01
    -24.098  0.0000E+00  0.0000E+00  0.2000E+01  0.2000E+01
    -23.878  0.0000E+00  0.0000E+00  0.2000E+01  0.2000E+01
    -23.658  0.0000E+00  0.0000E+00  0.2000E+01  0.2000E+01
    -23.438  0.0000E+00  0.0000E+00  0.2000E+01  0.2000E+01
    -23.217  0.0000E+00  0.0000E+00  0.2000E+01  0.2000E+01
    -22.997  0.0000E+00  0.0000E+00  0.2000E+01  0.2000E+01
    -22.777  0.0000E+00  0.0000E+00  0.2000E+01  0.2000E+01
    -22.557  0.0000E+00  0.0000E+00  0.2000E+01  0.2000E+01
    -22.336  0.0000E+00  0.0000E+00  0.2000E+01  0.2000E+01
    -22.116  0.0000E+00  0.0000E+00  0.2000E+01  0.2000E+01
    -21.896  0.0000E+00  0.0000E+00  0.2000E+01  0.2000E+01
    -21.676  0.0000E+00  0.0000E+00  0.2000E+01  0.2000E+01
    -21.455  0.0000E+00  0.0000E+00  0.2000E+01  0.2000E+01
    -21.235  0.0000E+00  0.0000E+00  0.2000E+01  0.2000E+01
    -21.015  0.0000E+00  0.0000E+00  0.2000E+01  0.2000E+01
    -20.795  0.0000E+00  0.0000E+00  0.2000E+01  0.2000E+01
    -20.575  0.0000E+00  0.0000E+00  0.2000E+01  0.2000E+01
    -20.354  0.0000E+00  0.0000E+00  0.2000E+01  0.2000E+01
    -20.134  0.0000E+00  0.0000E+00  0.2000E+01  0.2000E+01
    -19.914  0.0000E+00  0.0000E+00  0.2000E+01  0.2000E+01
    -19.694  0.0000E+00  0.0000E+00  0.2000E+01  0.2000E+01
    -19.473  0.0000E+00  0.0000E+00  0.2000E+01  0.2000E+01
    -19.253  0.0000E+00  0.0000E+00  0.2000E+01  0.2000E+01
    -19.033  0.0000E+00  0.0000E+00  0.2000E+01  0.2000E+01
    -18.813  0.0000E+00  0.0000E+00  0.2000E+01  0.2000E+01
    -18.592  0.0000E+00  0.0000E+00  0.2000E+01  0.2000E+01
    -18.372  0.0000E+00  0.0000E+00  0.2000E+01  0.2000E+01
    -18.152  0.0000E+00  0.0000E+00  0.2000E+01  0.2000E+01
    -17.932  0.0000E+00  0.0000E+00  0.2000E+01  0.2000E+01
    -17.711  0.0000E+00  0.0000E+00  0.2000E+01  0.2000E+01
    -17.491  0.0000E+00  0.0000E+00  0.2000E+01  0.2000E+01
    -17.271  0.0000E+00  0.0000E+00  0.2000E+01  0.2000E+01
    -17.051  0.0000E+00  0.0000E+00  0.2000E+01  0.2000E+01
    -16.831  0.0000E+00  0.0000E+00  0.2000E+01  0.2000E+01
    -16.610  0.0000E+00  0.0000E+00  0.2000E+01  0.2000E+01
    -16.390  0.3580E-05  0.3584E-05  0.2000E+01  0.2000E+01
    -16.170  0.4091E-03  0.4095E-03  0.2000E+01  0.2000E+01
    -15.950  0.2991E-01  0.2993E-01  0.2007E+01  0.2007E+01
    -15.729  0.7080E+00  0.7081E+00  0.2163E+01  0.2163E+01
    -15.509  0.2935E+01  0.2935E+01  0.2809E+01  0.2809E+01
    -15.289  0.2894E+01  0.2894E+01  0.3449E+01  0.3449E+01
    -15.069  0.2031E+01  0.2031E+01  0.3903E+01  0.3903E+01
    -14.848  0.2451E+01  0.2451E+01  0.4446E+01  0.4446E+01
    -14.628  0.3420E+01  0.3420E+01  0.5202E+01  0.5202E+01
    -14.408  0.5020E+01  0.5020E+01  0.6311E+01  0.6311E+01
    -14.188  0.5688E+01  0.5688E+01  0.7569E+01  0.7569E+01
    -13.967  0.1823E+01  0.1823E+01  0.7979E+01  0.7979E+01
    -13.747  0.7255E-01  0.7261E-01  0.8000E+01  0.8000E+01
    -13.527  0.0000E+00  0.0000E+00  0.8000E+01  0.8000E+01
    -13.307  0.0000E+00  0.0000E+00  0.8000E+01  0.8000E+01
    -13.087  0.0000E+00  0.0000E+00  0.8000E+01  0.8000E+01
    -12.866  0.0000E+00  0.0000E+00  0.8000E+01  0.8000E+01
    -12.646  0.0000E+00  0.0000E+00  0.8000E+01  0.8000E+01
    -12.426  0.0000E+00  0.0000E+00  0.8000E+01  0.8000E+01
    -12.206  0.0000E+00  0.0000E+00  0.8000E+01  0.8000E+01
    -11.985  0.0000E+00  0.0000E+00  0.8000E+01  0.8000E+01
    -11.765  0.0000E+00  0.0000E+00  0.8000E+01  0.8000E+01
    -11.545  0.0000E+00  0.0000E+00  0.8000E+01  0.8000E+01
    -11.325  0.0000E+00  0.0000E+00  0.8000E+01  0.8000E+01
    -11.104  0.0000E+00  0.0000E+00  0.8000E+01  0.8000E+01
    -10.884  0.0000E+00  0.0000E+00  0.8000E+01  0.8000E+01
    -10.664  0.0000E+00  0.0000E+00  0.8000E+01  0.8000E+01
    -10.444  0.0000E+00  0.0000E+00  0.8000E+01  0.8000E+01
    -10.223  0.0000E+00  0.0000E+00  0.8000E+01  0.8000E+01
    -10.003  0.0000E+00  0.0000E+00  0.8000E+01  0.8000E+01
     -9.783  0.0000E+00  0.0000E+00  0.8000E+01  0.8000E+01
     -9.563  0.0000E+00  0.0000E+00  0.8000E+01  0.8000E+01
     -9.343  0.0000E+00  0.0000E+00  0.8000E+01  0.8000E+01
     -9.122  0.0000E+00  0.0000E+00  0.8000E+01  0.8000E+01
     -8.902  0.0000E+00  0.0000E+00  0.8000E+01  0.8000E+01
     -8.682  0.0000E+00  0.0000E+00  0.8000E+01  0.8000E+01
     -8.462  0.0000E+00  0.0000E+00  0.8000E+01  0.8000E+01
     -8.241  0.0000E+00  0.0000E+00  0.8000E+01  0.8000E+01
     -8.021  0.0000E+00  0.0000E+00  0.8000E+01  0.8000E+01
     -7.801  0.0000E+00  0.0000E+00  0.8000E+01  0.8000E+01
     -7.581  0.0000E+00  0.0000E+00  0.8000E+01  0.8000E+01
     -7.360  0.0000E+00  0.0000E+00  0.8000E+01  0.8000E+01
     -7.140  0.0000E+00  0.0000E+00  0.8000E+01  0.8000E+01
     -6.920  0.0000E+00  0.0000E+00  0.8000E+01  0.8000E+01
     -6.700  0.0000E+00  0.0000E+00  0.8000E+01  0.8000E+01
     -6.479  0.0000E+00  0.0000E+00  0.8000E+01  0.8000E+01
     -6.259  0.0000E+00  0.0000E+00  0.8000E+01  0.8000E+01
     -6.039  0.0000E+00  0.0000E+00  0.8000E+01  0.8000E+01
     -5.819  0.0000E+00  0.0000E+00  0.8000E+01  0.8000E+01
     -5.599  0.0000E+00  0.0000E+00  0.8000E+01  0.8000E+01
     -5.378  0.0000E+00  0.0000E+00  0.8000E+01  0.8000E+01
     -5.158  0.0000E+00  0.0000E+00  0.8000E+01  0.8000E+01
     -4.938  0.0000E+00  0.0000E+00  0.8000E+01  0.8000E+01
     -4.718  0.0000E+00  0.0000E+00  0.8000E+01  0.8000E+01
     -4.497  0.0000E+00  0.0000E+00  0.8000E+01  0.8000E+01
     -4.277  0.0000E+00  0.0000E+00  0.8000E+01  0.8000E+01
     -4.057  0.0000E+00  0.0000E+00  0.8000E+01  0.8000E+01
     -3.837  0.0000E+00  0.0000E+00  0.8000E+01  0.8000E+01
     -3.616  0.0000E+00  0.0000E+00  0.8000E+01  0.8000E+01
     -3.396  0.0000E+00  0.0000E+00  0.8000E+01  0.8000E+01
     -3.176  0.0000E+00  0.0000E+00  0.8000E+01  0.8000E+01
     -2.956  0.0000E+00  0.0000E+00  0.8000E+01  0.8000E+01
     -2.735  0.0000E+00  0.0000E+00  0.8000E+01  0.8000E+01
     -2.515  0.0000E+00  0.0000E+00  0.8000E+01  0.8000E+01
     -2.295  0.0000E+00  0.0000E+00  0.8000E+01  0.8000E+01
     -2.075  0.0000E+00  0.0000E+00  0.8000E+01  0.8000E+01
     -1.855  0.0000E+00  0.0000E+00  0.8000E+01  0.8000E+01
     -1.634  0.0000E+00  0.0000E+00  0.8000E+01  0.8000E+01
     -1.414  0.0000E+00  0.0000E+00  0.8000E+01  0.8000E+01
     -1.194  0.0000E+00  0.0000E+00  0.8000E+01  0.8000E+01
     -0.974  0.0000E+00  0.0000E+00  0.8000E+01  0.8000E+01
     -0.753  0.0000E+00  0.0000E+00  0.8000E+01  0.8000E+01
     -0.533  0.0000E+00  0.0000E+00  0.8000E+01  0.8000E+01
     -0.313  0.0000E+00  0.0000E+00  0.8000E+01  0.8000E+01
     -0.093  0.0000E+00  0.0000E+00  0.8000E+01  0.8000E+01
      0.128  0.0000E+00  0.0000E+00  0.8000E+01  0.8000E+01
      0.348  0.0000E+00  0.0000E+00  0.8000E+01  0.8000E+01
      0.568  0.0000E+00  0.0000E+00  0.8000E+01  0.8000E+01
      0.788  0.0000E+00  0.0000E+00  0.8000E+01  0.8000E+01
      1.009  0.0000E+00  0.0000E+00  0.8000E+01  0.8000E+01
      1.229  0.0000E+00  0.0000E+00  0.8000E+01  0.8000E+01
      1.449  0.0000E+00  0.0000E+00  0.8000E+01  0.8000E+01
      1.669  0.0000E+00  0.0000E+00  0.8000E+01  0.8000E+01
      1.889  0.0000E+00  0.0000E+00  0.8000E+01  0.8000E+01
      2.110  0.0000E+00  0.0000E+00  0.8000E+01  0.8000E+01
      2.330  0.0000E+00  0.0000E+00  0.8000E+01  0.8000E+01
      2.550  0.0000E+00  0.0000E+00  0.8000E+01  0.8000E+01
      2.770  0.0000E+00  0.0000E+00  0.8000E+01  0.8000E+01
      2.991  0.0000E+00  0.0000E+00  0.8000E+01  0.8000E+01
      3.211  0.0000E+00  0.0000E+00  0.8000E+01  0.8000E+01
      3.431  0.0000E+00  0.0000E+00  0.8000E+01  0.8000E+01
      3.651  0.0000E+00  0.0000E+00  0.8000E+01  0.8000E+01
      3.872  0.0000E+00  0.0000E+00  0.8000E+01  0.8000E+01
      4.092  0.0000E+00  0.0000E+00  0.8000E+01  0.8000E+01
      4.312  0.0000E+00  0.0000E+00  0.8000E+01  0.8000E+01
      4.532  0.0000E+00  0.0000E+00  0.8000E+01  0.8000E+01
      4.753  0.0000E+00  0.0000E+00  0.8000E+01  0.8000E+01
      4.973  0.0000E+00  0.0000E+00  0.8000E+01  0.8000E+01
      5.193  0.1446E-06  0.1483E-06  0.8000E+01  0.8000E+01
      5.413  0.1425E-04  0.1476E-04  0.8000E+01  0.8000E+01
      5.633  0.9390E-03  0.9581E-03  0.8000E+01  0.8000E+01
      5.854  0.1144E-01  0.1157E-01  0.8003E+01  0.8003E+01
      6.074  0.3922E-01  0.3929E-01  0.8011E+01  0.8011E+01
      6.294  0.2953E-01  0.2958E-01  0.8018E+01  0.8018E+01
      6.514  0.8187E-01  0.8201E-01  0.8036E+01  0.8036E+01
      6.735  0.6027E-01  0.6020E-01  0.8049E+01  0.8049E+01
      6.955  0.7737E-01  0.7765E-01  0.8066E+01  0.8067E+01
      7.175  0.1122E+00  0.1122E+00  0.8091E+01  0.8091E+01
      7.395  0.1346E+00  0.1350E+00  0.8121E+01  0.8121E+01
      7.616  0.1355E+00  0.1349E+00  0.8151E+01  0.8151E+01
      7.836  0.1863E+00  0.1878E+00  0.8193E+01  0.8193E+01
      8.056  0.7246E+00  0.7257E+00  0.8352E+01  0.8353E+01
      8.276  0.8770E+00  0.8773E+00  0.8546E+01  0.8546E+01
      8.497  0.1136E+01  0.1136E+01  0.8797E+01  0.8798E+01
      8.717  0.1305E+01  0.1306E+01  0.9086E+01  0.9086E+01
      8.937  0.1277E+01  0.1277E+01  0.9368E+01  0.9369E+01
      9.157  0.1189E+01  0.1188E+01  0.9632E+01  0.9632E+01
      9.377  0.8638E+00  0.8632E+00  0.9825E+01  0.9825E+01
      9.598  0.8108E+00  0.8109E+00  0.1000E+02  0.1000E+02
      9.818  0.8815E+00  0.8820E+00  0.1020E+02  0.1020E+02
     10.038  0.1228E+01  0.1228E+01  0.1047E+02  0.1047E+02
     10.258  0.1122E+01  0.1122E+01  0.1072E+02  0.1072E+02
     10.479  0.1183E+01  0.1183E+01  0.1098E+02  0.1098E+02
     10.699  0.1143E+01  0.1143E+01  0.1123E+02  0.1123E+02
     10.919  0.1262E+01  0.1262E+01  0.1151E+02  0.1151E+02
     11.139  0.1018E+01  0.1017E+01  0.1174E+02  0.1174E+02
     11.360  0.4430E+00  0.4426E+00  0.1184E+02  0.1184E+02
     11.580  0.6935E+00  0.6945E+00  0.1199E+02  0.1199E+02
     11.800  0.1250E+01  0.1251E+01  0.1227E+02  0.1227E+02
     12.020  0.1477E+01  0.1476E+01  0.1259E+02  0.1259E+02
     12.241  0.1331E+01  0.1332E+01  0.1289E+02  0.1289E+02
     12.461  0.1257E+01  0.1257E+01  0.1317E+02  0.1317E+02
     12.681  0.1151E+01  0.1151E+01  0.1342E+02  0.1342E+02
     12.901  0.1575E+01  0.1575E+01  0.1377E+02  0.1377E+02
     13.122  0.1470E+01  0.1471E+01  0.1410E+02  0.1410E+02
     13.342  0.1546E+01  0.1546E+01  0.1444E+02  0.1444E+02
     13.562  0.1267E+01  0.1266E+01  0.1472E+02  0.1472E+02
     13.782  0.1055E+01  0.1055E+01  0.1496E+02  0.1496E+02
     14.002  0.8356E+00  0.8351E+00  0.1514E+02  0.1514E+02
     14.223  0.7474E+00  0.7475E+00  0.1531E+02  0.1531E+02
     14.443  0.6408E+00  0.6404E+00  0.1545E+02  0.1545E+02
     14.663  0.4817E+00  0.4819E+00  0.1556E+02  0.1556E+02
     14.883  0.7747E+00  0.7747E+00  0.1573E+02  0.1573E+02
     15.104  0.5799E+00  0.5796E+00  0.1586E+02  0.1586E+02
     15.324  0.3664E+00  0.3665E+00  0.1594E+02  0.1594E+02
     15.544  0.6075E+00  0.6076E+00  0.1607E+02  0.1607E+02
     15.764  0.5924E+00  0.5926E+00  0.1620E+02  0.1620E+02
     15.985  0.6551E+00  0.6549E+00  0.1635E+02  0.1635E+02
     16.205  0.5337E+00  0.5336E+00  0.1647E+02  0.1647E+02
     16.425  0.6466E+00  0.6469E+00  0.1661E+02  0.1661E+02
     16.645  0.8358E+00  0.8359E+00  0.1679E+02  0.1679E+02
     16.866  0.9522E+00  0.9526E+00  0.1701E+02  0.1701E+02
     17.086  0.1177E+01  0.1177E+01  0.1727E+02  0.1727E+02
     17.306  0.1259E+01  0.1259E+01  0.1755E+02  0.1755E+02
     17.526  0.1077E+01  0.1076E+01  0.1778E+02  0.1778E+02
     17.746  0.1325E+01  0.1324E+01  0.1808E+02  0.1808E+02
     17.967  0.1428E+01  0.1427E+01  0.1839E+02  0.1839E+02
     18.187  0.1007E+01  0.1007E+01  0.1862E+02  0.1862E+02
     18.407  0.6998E+00  0.6994E+00  0.1877E+02  0.1877E+02
     18.627  0.3118E+00  0.3118E+00  0.1884E+02  0.1884E+02
     18.848  0.4995E+00  0.4998E+00  0.1895E+02  0.1895E+02
     19.068  0.5274E+00  0.5273E+00  0.1907E+02  0.1907E+02
     19.288  0.2975E+00  0.2977E+00  0.1914E+02  0.1914E+02
     19.508  0.3224E+00  0.3223E+00  0.1921E+02  0.1921E+02
     19.729  0.3560E+00  0.3575E+00  0.1929E+02  0.1929E+02
     19.949  0.3358E+00  0.3377E+00  0.1936E+02  0.1936E+02
     20.169  0.4742E+00  0.4706E+00  0.1947E+02  0.1947E+02
     20.389  0.4738E+00  0.4758E+00  0.1957E+02  0.1957E+02
     20.610  0.4504E+00  0.4619E+00  0.1967E+02  0.1967E+02
     20.830  0.3621E+00  0.3542E+00  0.1975E+02  0.1975E+02
     21.050  0.2780E+00  0.2857E+00  0.1981E+02  0.1982E+02
     21.270  0.1825E+00  0.1687E+00  0.1985E+02  0.1985E+02
     21.490  0.1186E+00  0.1198E+00  0.1988E+02  0.1988E+02
     21.711  0.1199E+00  0.1193E+00  0.1991E+02  0.1991E+02
     21.931  0.1733E+00  0.1728E+00  0.1995E+02  0.1994E+02
     22.151  0.9282E-01  0.8316E-01  0.1997E+02  0.1996E+02
     22.371  0.3193E-01  0.2505E-01  0.1997E+02  0.1997E+02
     22.592  0.6564E-01  0.4581E-01  0.1999E+02  0.1998E+02
     22.812  0.2066E-01  0.5498E-01  0.1999E+02  0.1999E+02
     23.032  0.1084E-01  0.8921E-02  0.1999E+02  0.1999E+02
     23.252  0.2383E-01  0.2777E-01  0.2000E+02  0.2000E+02
     23.473  0.9452E-03  0.2021E-02  0.2000E+02  0.2000E+02
     23.693  0.0000E+00  0.0000E+00  0.2000E+02  0.2000E+02
     23.913  0.0000E+00  0.0000E+00  0.2000E+02  0.2000E+02
     24.133  0.0000E+00  0.0000E+00  0.2000E+02  0.2000E+02
     24.354  0.0000E+00  0.0000E+00  0.2000E+02  0.2000E+02
     24.574  0.0000E+00  0.0000E+00  0.2000E+02  0.2000E+02
     24.794  0.0000E+00  0.0000E+00  0.2000E+02  0.2000E+02
     25.014  0.0000E+00  0.0000E+00  0.2000E+02  0.2000E+02
     25.234  0.0000E+00  0.0000E+00  0.2000E+02  0.2000E+02
     25.455  0.0000E+00  0.0000E+00  0.2000E+02  0.2000E+02
     25.675  0.0000E+00  0.0000E+00  0.2000E+02  0.2000E+02
     25.895  0.0000E+00  0.0000E+00  0.2000E+02  0.2000E+02
     26.115  0.0000E+00  0.0000E+00  0.2000E+02  0.2000E+02
     26.11540769    -39.95528381  301     11.58726866      1.00000000
    -39.955  0.0000E+00  0.0000E+00  0.0000E+00  0.0000E+00  0.0000E+00  0.0000E+00  0.0000E+00  0.0000E+00  0.0000E+00  0.0000E+00  0.0000E+00  0.0000E+00  0.0000E+00  0.0000E+00  0.0000E+00  0.0000E+00  0.0000E+00  0.0000E+00
    -39.735  0.0000E+00  0.0000E+00  0.0000E+00  0.0000E+00  0.0000E+00  0.0000E+00  0.0000E+00  0.0000E+00  0.0000E+00  0.0000E+00  0.0000E+00  0.0000E+00  0.0000E+00  0.0000E+00  0.0000E+00  0.0000E+00  0.0000E+00  0.0000E+00
    -39.515  0.0000E+00  0.0000E+00  0.0000E+00  0.0000E+00  0.0000E+00  0.0000E+00  0.0000E+00  0.0000E+00  0.0000E+00  0.0000E+00  0.0000E+00  0.0000E+00  0.0000E+00  0.0000E+00  0.0000E+00  0.0000E+00  0.0000E+00  0.0000E+00
    -39.295  0.0000E+00  0.0000E+00  0.0000E+00  0.0000E+00  0.0000E+00  0.0000E+00  0.0000E+00  0.0000E+00  0.0000E+00  0.0000E+00  0.0000E+00  0.0000E+00  0.0000E+00  0.0000E+00  0.0000E+00  0.0000E+00  0.0000E+00  0.0000E+00
    -39.074  0.0000E+00  0.0000E+00  0.0000E+00  0.0000E+00  0.0000E+00  0.0000E+00  0.0000E+00  0.0000E+00  0.0000E+00  0.0000E+00  0.0000E+00  0.0000E+00  0.0000E+00  0.0000E+00  0.0000E+00  0.0000E+00  0.0000E+00  0.0000E+00
    -38.854  0.0000E+00  0.0000E+00  0.0000E+00  0.0000E+00  0.0000E+00  0.0000E+00  0.0000E+00  0.0000E+00  0.0000E+00  0.0000E+00  0.0000E+00  0.0000E+00  0.0000E+00  0.0000E+00  0.0000E+00  0.0000E+00  0.0000E+00  0.0000E+00
    -38.634  0.0000E+00  0.0000E+00  0.0000E+00  0.0000E+00  0.0000E+00  0.0000E+00  0.0000E+00  0.0000E+00  0.0000E+00  0.0000E+00  0.0000E+00  0.0000E+00  0.0000E+00  0.0000E+00  0.0000E+00  0.0000E+00  0.0000E+00  0.0000E+00
    -38.414  0.0000E+00  0.0000E+00  0.0000E+00  0.0000E+00  0.0000E+00  0.0000E+00  0.0000E+00  0.0000E+00  0.0000E+00  0.0000E+00  0.0000E+00  0.0000E+00  0.0000E+00  0.0000E+00  0.0000E+00  0.0000E+00  0.0000E+00  0.0000E+00
    -38.193  0.0000E+00  0.0000E+00  0.0000E+00  0.0000E+00  0.0000E+00  0.0000E+00  0.0000E+00  0.0000E+00  0.0000E+00  0.0000E+00  0.0000E+00  0.0000E+00  0.0000E+00  0.0000E+00  0.0000E+00  0.0000E+00  0.0000E+00  0.0000E+00
    -37.973  0.0000E+00  0.0000E+00  0.0000E+00  0.0000E+00  0.0000E+00  0.0000E+00  0.0000E+00  0.0000E+00  0.0000E+00  0.0000E+00  0.0000E+00  0.0000E+00  0.0000E+00  0.0000E+00  0.0000E+00  0.0000E+00  0.0000E+00  0.0000E+00
    -37.753  0.0000E+00  0.0000E+00  0.0000E+00  0.0000E+00  0.0000E+00  0.0000E+00  0.0000E+00  0.0000E+00  0.0000E+00  0.0000E+00  0.0000E+00  0.0000E+00  0.0000E+00  0.0000E+00  0.0000E+00  0.0000E+00  0.0000E+00  0.0000E+00
    -37.533  0.1874E-06  0.1879E-06  0.2334E-11  0.2341E-11  0.2506E-11  0.2512E-11  0.2334E-11  0.2341E-11  0.5945E-13  0.5941E-13  0.2450E-13  0.2457E-13  0.3631E-12  0.3637E-12  0.2450E-13  0.2457E-13  0.5945E-13  0.5941E-13
    -37.312  0.5654E-04  0.5669E-04  0.2118E-08  0.2125E-08  0.2315E-08  0.2322E-08  0.2118E-08  0.2125E-08  0.1818E-09  0.1824E-09  0.1079E-09  0.1082E-09  0.2831E-09  0.2841E-09  0.1079E-09  0.1082E-09  0.1818E-09  0.1824E-09
    -37.092  0.4707E-02  0.4719E-02  0.1766E-06  0.1772E-06  0.1948E-06  0.1954E-06  0.1766E-06  0.1772E-06  0.1860E-07  0.1865E-07  0.1202E-07  0.1206E-07  0.2796E-07  0.2805E-07  0.1202E-07  0.1206E-07  0.1860E-07  0.1865E-07
    -36.872  0.1972E+00  0.1975E+00  0.8947E-05  0.8970E-05  0.9910E-05  0.9933E-05  0.8947E-05  0.8970E-05  0.1190E-05  0.1193E-05  0.8039E-06  0.8060E-06  0.1645E-05  0.1650E-05  0.8039E-06  0.8060E-06  0.1190E-05  0.1193E-05
    -36.652  0.1450E+01  0.1451E+01  0.6322E-04  0.6329E-04  0.7294E-04  0.7302E-04  0.6322E-04  0.6329E-04  0.2190E-04  0.2192E-04  0.1776E-04  0.1778E-04  0.2866E-04  0.2869E-04  0.1776E-04  0.1778E-04  0.2190E-04  0.2192E-04
    -36.432  0.2606E+01  0.2605E+01  0.5144E-04  0.5144E-04  0.6514E-04  0.6510E-04  0.5144E-04  0.5144E-04  0.3935E-04  0.3929E-04  0.4453E-04  0.4449E-04  0.5343E-04  0.5336E-04  0.4453E-04  0.4449E-04  0.3935E-04  0.3929E-04
    -36.211  0.2259E+00  0.2253E+00  0.2447E-05  0.2445E-05  0.2837E-05  0.2830E-05  0.2447E-05  0.2445E-05  0.2576E-05  0.2567E-05  0.3426E-05  0.3416E-05  0.3139E-05  0.3128E-05  0.3426E-05  0.3416E-05  0.2576E-05  0.2567E-05
    -35.991  0.0000E+00  0.0000E+00  0.0000E+00  0.0000E+00  0.0000E+00  0.0000E+00  0.0000E+00  0.0000E+00  0.0000E+00  0.0000E+00  0.0000E+00  0.0000E+00  0.0000E+00  0.0000E+00  0.0000E+00  0.0000E+00  0.0000E+00  0.0000E+00
    -35.771  0.0000E+00  0.0000E+00  0.0000E+00  0.0000E+00  0.0000E+00  0.0000E+00  0.0000E+00  0.0000E+00  0.0000E+00  0.0000E+00  0.0000E+00  0.0000E+00  0.0000E+00  0.0000E+00  0.0000E+00  0.0000E+00  0.0000E+00  0.0000E+00
    -35.551  0.0000E+00  0.0000E+00  0.0000E+00  0.0000E+00  0.0000E+00  0.0000E+00  0.0000E+00  0.0000E+00  0.0000E+00  0.0000E+00  0.0000E+00  0.0000E+00  0.0000E+00  0.0000E+00  0.0000E+00  0.0000E+00  0.0000E+00  0.0000E+00
    -35.330  0.0000E+00  0.0000E+00  0.0000E+00  0.0000E+00  0.0000E+00  0.0000E+00  0.0000E+00  0.0000E+00  0.0000E+00  0.0000E+00  0.0000E+00  0.0000E+00  0.0000E+00  0.0000E+00  0.0000E+00  0.0000E+00  0.0000E+00  0.0000E+00
    -35.110  0.0000E+00  0.0000E+00  0.0000E+00  0.0000E+00  0.0000E+00  0.0000E+00  0.0000E+00  0.0000E+00  0.0000E+00  0.0000E+00  0.0000E+00  0.0000E+00  0.0000E+00  0.0000E+00  0.0000E+00  0.0000E+00  0.0000E+00  0.0000E+00
    -34.890  0.0000E+00  0.0000E+00  0.0000E+00  0.0000E+00  0.0000E+00  0.0000E+00  0.0000E+00  0.0000E+00  0.0000E+00  0.0000E+00  0.0000E+00  0.0000E+00  0.0000E+00  0.0000E+00  0.0000E+00  0.0000E+00  0.0000E+00  0.0000E+00
    -34.670  0.0000E+00  0.0000E+00  0.0000E+00  0.0000E+00  0.0000E+00  0.0000E+00  0.0000E+00  0.0000E+00  0.0000E+00  0.0000E+00  0.0000E+00  0.0000E+00  0.0000E+00  0.0000E+00  0.0000E+00  0.0000E+00  0.0000E+00  0.0000E+00
    -34.449  0.0000E+00  0.0000E+00  0.0000E+00  0.0000E+00  0.0000E+00  0.0000E+00  0.0000E+00  0.0000E+00  0.0000E+00  0.0000E+00  0.0000E+00  0.0000E+00  0.0000E+00  0.0000E+00  0.0000E+00  0.0000E+00  0.0000E+00  0.0000E+00
    -34.229  0.0000E+00  0.0000E+00  0.0000E+00  0.0000E+00  0.0000E+00  0.0000E+00  0.0000E+00  0.0000E+00  0.0000E+00  0.0000E+00  0.0000E+00  0.0000E+00  0.0000E+00  0.0000E+00  0.0000E+00  0.0000E+00  0.0000E+00  0.0000E+00
    -34.009  0.0000E+00  0.0000E+00  0.0000E+00  0.0000E+00  0.0000E+00  0.0000E+00  0.0000E+00  0.0000E+00  0.0000E+00  0.0000E+00  0.0000E+00  0.0000E+00  0.0000E+00  0.0000E+00  0.0000E+00  0.0000E+00  0.0000E+00  0.0000E+00
    -33.789  0.0000E+00  0.0000E+00  0.0000E+00  0.0000E+00  0.0000E+00  0.0000E+00  0.0000E+00  0.0000E+00  0.0000E+00  0.0000E+00  0.0000E+00  0.0000E+00  0.0000E+00  0.0000E+00  0.0000E+00  0.0000E+00  0.0000E+00  0.0000E+00
    -33.568  0.0000E+00  0.0000E+00  0.0000E+00  0.0000E+00  0.0000E+00  0.0000E+00  0.0000E+00  0.0000E+00  0.0000E+00  0.0000E+00  0.0000E+00  0.0000E+00  0.0000E+00  0.0000E+00  0.0000E+00  0.0000E+00  0.0000E+00  0.0000E+00
    -33.348  0.0000E+00  0.0000E+00  0.0000E+00  0.0000E+00  0.0000E+00  0.0000E+00  0.0000E+00  0.0000E+00  0.0000E+00  0.0000E+00  0.0000E+00  0.0000E+00  0.0000E+00  0.0000E+00  0.0000E+00  0.0000E+00  0.0000E+00  0.0000E+00
    -33.128  0.0000E+00  0.0000E+00  0.0000E+00  0.0000E+00  0.0000E+00  0.0000E+00  0.0000E+00  0.0000E+00  0.0000E+00  0.0000E+00  0.0000E+00  0.0000E+00  0.0000E+00  0.0000E+00  0.0000E+00  0.0000E+00  0.0000E+00  0.0000E+00
    -32.908  0.0000E+00  0.0000E+00  0.0000E+00  0.0000E+00  0.0000E+00  0.0000E+00  0.0000E+00  0.0000E+00  0.0000E+00  0.0000E+00  0.0000E+00  0.0000E+00  0.0000E+00  0.0000E+00  0.0000E+00  0.0000E+00  0.0000E+00  0.0000E+00
    -32.688  0.0000E+00  0.0000E+00  0.0000E+00  0.0000E+00  0.0000E+00  0.0000E+00  0.0000E+00  0.0000E+00  0.0000E+00  0.0000E+00  0.0000E+00  0.0000E+00  0.0000E+00  0.0000E+00  0.0000E+00  0.0000E+00  0.0000E+00  0.0000E+00
    -32.467  0.0000E+00  0.0000E+00  0.0000E+00  0.0000E+00  0.0000E+00  0.0000E+00  0.0000E+00  0.0000E+00  0.0000E+00  0.0000E+00  0.0000E+00  0.0000E+00  0.0000E+00  0.0000E+00  0.0000E+00  0.0000E+00  0.0000E+00  0.0000E+00
    -32.247  0.0000E+00  0.0000E+00  0.0000E+00  0.0000E+00  0.0000E+00  0.0000E+00  0.0000E+00  0.0000E+00  0.0000E+00  0.0000E+00  0.0000E+00  0.0000E+00  0.0000E+00  0.0000E+00  0.0000E+00  0.0000E+00  0.0000E+00  0.0000E+00
    -32.027  0.0000E+00  0.0000E+00  0.0000E+00  0.0000E+00  0.0000E+00  0.0000E+00  0.0000E+00  0.0000E+00  0.0000E+00  0.0000E+00  0.0000E+00  0.0000E+00  0.0000E+00  0.0000E+00  0.0000E+00  0.0000E+00  0.0000E+00  0.0000E+00
    -31.807  0.0000E+00  0.0000E+00  0.0000E+00  0.0000E+00  0.0000E+00  0.0000E+00  0.0000E+00  0.0000E+00  0.0000E+00  0.0000E+00  0.0000E+00  0.0000E+00  0.0000E+00  0.0000E+00  0.0000E+00  0.0000E+00  0.0000E+00  0.0000E+00
    -31.586  0.0000E+00  0.0000E+00  0.0000E+00  0.0000E+00  0.0000E+00  0.0000E+00  0.0000E+00  0.0000E+00  0.0000E+00  0.0000E+00  0.0000E+00  0.0000E+00  0.0000E+00  0.0000E+00  0.0000E+00  0.0000E+00  0.0000E+00  0.0000E+00
    -31.366  0.0000E+00  0.0000E+00  0.0000E+00  0.0000E+00  0.0000E+00  0.0000E+00  0.0000E+00  0.0000E+00  0.0000E+00  0.0000E+00  0.0000E+00  0.0000E+00  0.0000E+00  0.0000E+00  0.0000E+00  0.0000E+00  0.0000E+00  0.0000E+00
    -31.146  0.0000E+00  0.0000E+00  0.0000E+00  0.0000E+00  0.0000E+00  0.0000E+00  0.0000E+00  0.0000E+00  0.0000E+00  0.0000E+00  0.0000E+00  0.0000E+00  0.0000E+00  0.0000E+00  0.0000E+00  0.0000E+00  0.0000E+00  0.0000E+00
    -30.926  0.0000E+00  0.0000E+00  0.0000E+00  0.0000E+00  0.0000E+00  0.0000E+00  0.0000E+00  0.0000E+00  0.0000E+00  0.0000E+00  0.0000E+00  0.0000E+00  0.0000E+00  0.0000E+00  0.0000E+00  0.0000E+00  0.0000E+00  0.0000E+00
    -30.705  0.0000E+00  0.0000E+00  0.0000E+00  0.0000E+00  0.0000E+00  0.0000E+00  0.0000E+00  0.0000E+00  0.0000E+00  0.0000E+00  0.0000E+00  0.0000E+00  0.0000E+00  0.0000E+00  0.0000E+00  0.0000E+00  0.0000E+00  0.0000E+00
    -30.485  0.0000E+00  0.0000E+00  0.0000E+00  0.0000E+00  0.0000E+00  0.0000E+00  0.0000E+00  0.0000E+00  0.0000E+00  0.0000E+00  0.0000E+00  0.0000E+00  0.0000E+00  0.0000E+00  0.0000E+00  0.0000E+00  0.0000E+00  0.0000E+00
    -30.265  0.0000E+00  0.0000E+00  0.0000E+00  0.0000E+00  0.0000E+00  0.0000E+00  0.0000E+00  0.0000E+00  0.0000E+00  0.0000E+00  0.0000E+00  0.0000E+00  0.0000E+00  0.0000E+00  0.0000E+00  0.0000E+00  0.0000E+00  0.0000E+00
    -30.045  0.0000E+00  0.0000E+00  0.0000E+00  0.0000E+00  0.0000E+00  0.0000E+00  0.0000E+00  0.0000E+00  0.0000E+00  0.0000E+00  0.0000E+00  0.0000E+00  0.0000E+00  0.0000E+00  0.0000E+00  0.0000E+00  0.0000E+00  0.0000E+00
    -29.824  0.0000E+00  0.0000E+00  0.0000E+00  0.0000E+00  0.0000E+00  0.0000E+00  0.0000E+00  0.0000E+00  0.0000E+00  0.0000E+00  0.0000E+00  0.0000E+00  0.0000E+00  0.0000E+00  0.0000E+00  0.0000E+00  0.0000E+00  0.0000E+00
    -29.604  0.0000E+00  0.0000E+00  0.0000E+00  0.0000E+00  0.0000E+00  0.0000E+00  0.0000E+00  0.0000E+00  0.0000E+00  0.0000E+00  0.0000E+00  0.0000E+00  0.0000E+00  0.0000E+00  0.0000E+00  0.0000E+00  0.0000E+00  0.0000E+00
    -29.384  0.0000E+00  0.0000E+00  0.0000E+00  0.0000E+00  0.0000E+00  0.0000E+00  0.0000E+00  0.0000E+00  0.0000E+00  0.0000E+00  0.0000E+00  0.0000E+00  0.0000E+00  0.0000E+00  0.0000E+00  0.0000E+00  0.0000E+00  0.0000E+00
    -29.164  0.0000E+00  0.0000E+00  0.0000E+00  0.0000E+00  0.0000E+00  0.0000E+00  0.0000E+00  0.0000E+00  0.0000E+00  0.0000E+00  0.0000E+00  0.0000E+00  0.0000E+00  0.0000E+00  0.0000E+00  0.0000E+00  0.0000E+00  0.0000E+00
    -28.944  0.0000E+00  0.0000E+00  0.0000E+00  0.0000E+00  0.0000E+00  0.0000E+00  0.0000E+00  0.0000E+00  0.0000E+00  0.0000E+00  0.0000E+00  0.0000E+00  0.0000E+00  0.0000E+00  0.0000E+00  0.0000E+00  0.0000E+00  0.0000E+00