   2   2   1   0
  0.2267852E+02  0.3196572E-09  0.3196572E-09  0.5125604E-09  0.5000000E-15
  1.000000000000000E-004
  CAR 
 unknown system                          
     21.36056956    -42.39610973  301      9.30009355      1.00000000
    -42.396  0.0000E+00  0.0000E+00  0.0000E+00  0.0000E+00
    -42.184  0.0000E+00  0.0000E+00  0.0000E+00  0.0000E+00
    -41.971  0.0000E+00  0.0000E+00  0.0000E+00  0.0000E+00
    -41.759  0.0000E+00  0.0000E+00  0.0000E+00  0.0000E+00
    -41.546  0.0000E+00  0.0000E+00  0.0000E+00  0.0000E+00
    -41.333  0.0000E+00  0.0000E+00  0.0000E+00  0.0000E+00
    -41.121  0.0000E+00  0.0000E+00  0.0000E+00  0.0000E+00
    -40.908  0.0000E+00  0.0000E+00  0.0000E+00  0.0000E+00
    -40.696  0.0000E+00  0.0000E+00  0.0000E+00  0.0000E+00
    -40.483  0.0000E+00  0.0000E+00  0.0000E+00  0.0000E+00
    -40.271  0.0000E+00  0.0000E+00  0.0000E+00  0.0000E+00
    -40.058  0.2790E-05  0.2787E-05  0.5930E-06  0.5922E-06
    -39.846  0.6838E-03  0.6829E-03  0.1459E-03  0.1457E-03
    -39.633  0.4668E-01  0.4662E-01  0.1007E-01  0.1005E-01
    -39.421  0.1870E+01  0.1869E+01  0.4076E+00  0.4072E+00
    -39.208  0.6722E+01  0.6722E+01  0.1836E+01  0.1836E+01
    -38.996  0.7440E+00  0.7450E+00  0.1997E+01  0.1997E+01
    -38.783  0.0000E+00  0.0000E+00  0.2000E+01  0.2000E+01
    -38.571  0.0000E+00  0.0000E+00  0.2000E+01  0.2000E+01
    -38.358  0.0000E+00  0.0000E+00  0.2000E+01  0.2000E+01
    -38.146  0.0000E+00  0.0000E+00  0.2000E+01  0.2000E+01
    -37.933  0.0000E+00  0.0000E+00  0.2000E+01  0.2000E+01
    -37.721  0.0000E+00  0.0000E+00  0.2000E+01  0.2000E+01
    -37.508  0.0000E+00  0.0000E+00  0.2000E+01  0.2000E+01
    -37.296  0.0000E+00  0.0000E+00  0.2000E+01  0.2000E+01
    -37.083  0.0000E+00  0.0000E+00  0.2000E+01  0.2000E+01
    -36.871  0.0000E+00  0.0000E+00  0.2000E+01  0.2000E+01
    -36.658  0.0000E+00  0.0000E+00  0.2000E+01  0.2000E+01
    -36.445  0.0000E+00  0.0000E+00  0.2000E+01  0.2000E+01
    -36.233  0.0000E+00  0.0000E+00  0.2000E+01  0.2000E+01
    -36.020  0.0000E+00  0.0000E+00  0.2000E+01  0.2000E+01
    -35.808  0.0000E+00  0.0000E+00  0.2000E+01  0.2000E+01
    -35.595  0.0000E+00  0.0000E+00  0.2000E+01  0.2000E+01
    -35.383  0.0000E+00  0.0000E+00  0.2000E+01  0.2000E+01
    -35.170  0.0000E+00  0.0000E+00  0.2000E+01  0.2000E+01
    -34.958  0.0000E+00  0.0000E+00  0.2000E+01  0.2000E+01
    -34.745  0.0000E+00  0.0000E+00  0.2000E+01  0.2000E+01
    -34.533  0.0000E+00  0.0000E+00  0.2000E+01  0.2000E+01
    -34.320  0.0000E+00  0.0000E+00  0.2000E+01  0.2000E+01
    -34.108  0.0000E+00  0.0000E+00  0.2000E+01  0.2000E+01
    -33.895  0.0000E+00  0.0000E+00  0.2000E+01  0.2000E+01
    -33.683  0.0000E+00  0.0000E+00  0.2000E+01  0.2000E+01
    -33.470  0.0000E+00  0.0000E+00  0.2000E+01  0.2000E+01
    -33.258  0.0000E+00  0.0000E+00  0.2000E+01  0.2000E+01
    -33.045  0.0000E+00  0.0000E+00  0.2000E+01  0.2000E+01
    -32.833  0.0000E+00  0.0000E+00  0.2000E+01  0.2000E+01
    -32.620  0.0000E+00  0.0000E+00  0.2000E+01  0.2000E+01
    -32.408  0.0000E+00  0.0000E+00  0.2000E+01  0.2000E+01
    -32.195  0.0000E+00  0.0000E+00  0.2000E+01  0.2000E+01
    -31.983  0.0000E+00  0.0000E+00  0.2000E+01  0.2000E+01
    -31.770  0.0000E+00  0.0000E+00  0.2000E+01  0.2000E+01
    -31.557  0.0000E+00  0.0000E+00  0.2000E+01  0.2000E+01
    -31.345  0.0000E+00  0.0000E+00  0.2000E+01  0.2000E+01
    -31.132  0.0000E+00  0.0000E+00  0.2000E+01  0.2000E+01
    -30.920  0.0000E+00  0.0000E+00  0.2000E+01  0.2000E+01
    -30.707  0.0000E+00  0.0000E+00  0.2000E+01  0.2000E+01
    -30.495  0.0000E+00  0.0000E+00  0.2000E+01  0.2000E+01
    -30.282  0.0000E+00  0.0000E+00  0.2000E+01  0.2000E+01
    -30.070  0.0000E+00  0.0000E+00  0.2000E+01  0.2000E+01
    -29.857  0.0000E+00  0.0000E+00  0.2000E+01  0.2000E+01
    -29.645  0.0000E+00  0.0000E+00  0.2000E+01  0.2000E+01
    -29.432  0.0000E+00  0.0000E+00  0.2000E+01  0.2000E+01
    -29.220  0.0000E+00  0.0000E+00  0.2000E+01  0.2000E+01
    -29.007  0.0000E+00  0.0000E+00  0.2000E+01  0.2000E+01
    -28.795  0.0000E+00  0.0000E+00  0.2000E+01  0.2000E+01
    -28.582  0.0000E+00  0.0000E+00  0.2000E+01  0.2000E+01
    -28.370  0.0000E+00  0.0000E+00  0.2000E+01  0.2000E+01
    -28.157  0.0000E+00  0.0000E+00  0.2000E+01  0.2000E+01
    -27.945  0.0000E+00  0.0000E+00  0.2000E+01  0.2000E+01
    -27.732  0.0000E+00  0.0000E+00  0.2000E+01  0.2000E+01
    -27.520  0.0000E+00  0.0000E+00  0.2000E+01  0.2000E+01
    -27.307  0.0000E+00  0.0000E+00  0.2000E+01  0.2000E+01
    -27.095  0.0000E+00  0.0000E+00  0.2000E+01  0.2000E+01
    -26.882  0.0000E+00  0.0000E+00  0.2000E+01  0.2000E+01
    -26.669  0.0000E+00  0.0000E+00  0.2000E+01  0.2000E+01
    -26.457  0.0000E+00  0.0000E+00  0.2000E+01  0.2000E+01
    -26.244  0.0000E+00  0.0000E+00  0.2000E+01  0.2000E+01
    -26.032  0.0000E+00  0.0000E+00  0.2000E+01  0.2000E+01
    -25.819  0.0000E+00  0.0000E+00  0.2000E+01  0.2000E+01
    -25.607  0.0000E+00  0.0000E+00  0.2000E+01  0.2000E+01
    -25.394  0.0000E+00  0.0000E+00  0.2000E+01  0.2000E+01
    -25.182  0.0000E+00  0.0000E+00  0.2000E+01  0.2000E+01
    -24.969  0.0000E+00  0.0000E+00  0.2000E+01  0.2000E+01
    -24.757  0.0000E+00  0.0000E+00  0.2000E+01  0.2000E+01
    -24.544  0.0000E+00  0.0000E+00  0.2000E+01  0.2000E+01
    -24.332  0.0000E+00  0.0000E+00  0.2000E+01  0.2000E+01
    -24.119  0.0000E+00  0.0000E+00  0.2000E+01  0.2000E+01
    -23.907  0.0000E+00  0.0000E+00  0.2000E+01  0.2000E+01
    -23.694  0.0000E+00  0.0000E+00  0.2000E+01  0.2000E+01
    -23.482  0.0000E+00  0.0000E+00  0.2000E+01  0.2000E+01
    -23.269  0.0000E+00  0.0000E+00  0.2000E+01  0.2000E+01
    -23.057  0.0000E+00  0.0000E+00  0.2000E+01  0.2000E+01
    -22.844  0.0000E+00  0.0000E+00  0.2000E+01  0.2000E+01
    -22.632  0.0000E+00  0.0000E+00  0.2000E+01  0.2000E+01
    -22.419  0.0000E+00  0.0000E+00  0.2000E+01  0.2000E+01
    -22.206  0.0000E+00  0.0000E+00  0.2000E+01  0.2000E+01
    -21.994  0.0000E+00  0.0000E+00  0.2000E+01  0.2000E+01
    -21.781  0.0000E+00  0.0000E+00  0.2000E+01  0.2000E+01
    -21.569  0.0000E+00  0.0000E+00  0.2000E+01  0.2000E+01
    -21.356  0.0000E+00  0.0000E+00  0.2000E+01  0.2000E+01
    -21.144  0.0000E+00  0.0000E+00  0.2000E+01  0.2000E+01
    -20.931  0.0000E+00  0.0000E+00  0.2000E+01  0.2000E+01
    -20.719  0.0000E+00  0.0000E+00  0.2000E+01  0.2000E+01
    -20.506  0.0000E+00  0.0000E+00  0.2000E+01  0.2000E+01
    -20.294  0.0000E+00  0.0000E+00  0.2000E+01  0.2000E+01
    -20.081  0.0000E+00  0.0000E+00  0.2000E+01  0.2000E+01
    -19.869  0.0000E+00  0.0000E+00  0.2000E+01  0.2000E+01
    -19.656  0.0000E+00  0.0000E+00  0.2000E+01  0.2000E+01
    -19.444  0.0000E+00  0.0000E+00  0.2000E+01  0.2000E+01
    -19.231  0.0000E+00  0.0000E+00  0.2000E+01  0.2000E+01
    -19.019  0.0000E+00  0.0000E+00  0.2000E+01  0.2000E+01
    -18.806  0.0000E+00  0.0000E+00  0.2000E+01  0.2000E+01
    -18.594  0.1041E-05  0.1041E-05  0.2000E+01  0.2000E+01
    -18.381  0.2942E-03  0.2940E-03  0.2000E+01  0.2000E+01
    -18.169  0.2031E-01  0.2030E-01  0.2004E+01  0.2004E+01
    -17.956  0.8235E+00  0.8232E+00  0.2179E+01  0.2179E+01
    -17.744  0.4532E+01  0.4532E+01  0.3143E+01  0.3142E+01
    -17.531  0.4167E+01  0.4167E+01  0.4030E+01  0.4029E+01
    -17.318  0.5524E+01  0.5523E+01  0.5210E+01  0.5210E+01
    -17.106  0.8984E+01  0.8984E+01  0.7124E+01  0.7123E+01
    -16.893  0.3904E+01  0.3906E+01  0.7962E+01  0.7962E+01
    -16.681  0.1212E+00  0.1213E+00  0.8000E+01  0.8000E+01
    -16.468  0.0000E+00  0.0000E+00  0.8000E+01  0.8000E+01
    -16.256  0.0000E+00  0.0000E+00  0.8000E+01  0.8000E+01
    -16.043  0.0000E+00  0.0000E+00  0.8000E+01  0.8000E+01
    -15.831  0.0000E+00  0.0000E+00  0.8000E+01  0.8000E+01
    -15.618  0.0000E+00  0.0000E+00  0.8000E+01  0.8000E+01
    -15.406  0.0000E+00  0.0000E+00  0.8000E+01  0.8000E+01
    -15.193  0.0000E+00  0.0000E+00  0.8000E+01  0.8000E+01
    -14.981  0.0000E+00  0.0000E+00  0.8000E+01  0.8000E+01
    -14.768  0.0000E+00  0.0000E+00  0.8000E+01  0.8000E+01
    -14.556  0.0000E+00  0.0000E+00  0.8000E+01  0.8000E+01
    -14.343  0.0000E+00  0.0000E+00  0.8000E+01  0.8000E+01
    -14.131  0.0000E+00  0.0000E+00  0.8000E+01  0.8000E+01
    -13.918  0.0000E+00  0.0000E+00  0.8000E+01  0.8000E+01
    -13.706  0.0000E+00  0.0000E+00  0.8000E+01  0.8000E+01
    -13.493  0.0000E+00  0.0000E+00  0.8000E+01  0.8000E+01
    -13.281  0.0000E+00  0.0000E+00  0.8000E+01  0.8000E+01
    -13.068  0.0000E+00  0.0000E+00  0.8000E+01  0.8000E+01
    -12.856  0.0000E+00  0.0000E+00  0.8000E+01  0.8000E+01
    -12.643  0.0000E+00  0.0000E+00  0.8000E+01  0.8000E+01
    -12.430  0.0000E+00  0.0000E+00  0.8000E+01  0.8000E+01
    -12.218  0.0000E+00  0.0000E+00  0.8000E+01  0.8000E+01
    -12.005  0.0000E+00  0.0000E+00  0.8000E+01  0.8000E+01
    -11.793  0.0000E+00  0.0000E+00  0.8000E+01  0.8000E+01
    -11.580  0.0000E+00  0.0000E+00  0.8000E+01  0.8000E+01
    -11.368  0.0000E+00  0.0000E+00  0.8000E+01  0.8000E+01
    -11.155  0.0000E+00  0.0000E+00  0.8000E+01  0.8000E+01
    -10.943  0.0000E+00  0.0000E+00  0.8000E+01  0.8000E+01
    -10.730  0.0000E+00  0.0000E+00  0.8000E+01  0.8000E+01
    -10.518  0.0000E+00  0.0000E+00  0.8000E+01  0.8000E+01
    -10.305  0.0000E+00  0.0000E+00  0.8000E+01  0.8000E+01
    -10.093  0.0000E+00  0.0000E+00  0.8000E+01  0.8000E+01
     -9.880  0.0000E+00  0.0000E+00  0.8000E+01  0.8000E+01
     -9.668  0.0000E+00  0.0000E+00  0.8000E+01  0.8000E+01
     -9.455  0.0000E+00  0.0000E+00  0.8000E+01  0.8000E+01
     -9.243  0.0000E+00  0.0000E+00  0.8000E+01  0.8000E+01
     -9.030  0.0000E+00  0.0000E+00  0.8000E+01  0.8000E+01
     -8.818  0.0000E+00  0.0000E+00  0.8000E+01  0.8000E+01
     -8.605  0.0000E+00  0.0000E+00  0.8000E+01  0.8000E+01
     -8.393  0.0000E+00  0.0000E+00  0.8000E+01  0.8000E+01
     -8.180  0.0000E+00  0.0000E+00  0.8000E+01  0.8000E+01
     -7.968  0.0000E+00  0.0000E+00  0.8000E+01  0.8000E+01
     -7.755  0.0000E+00  0.0000E+00  0.8000E+01  0.8000E+01
     -7.542  0.0000E+00  0.0000E+00  0.8000E+01  0.8000E+01
     -7.330  0.0000E+00  0.0000E+00  0.8000E+01  0.8000E+01
     -7.117  0.0000E+00  0.0000E+00  0.8000E+01  0.8000E+01
     -6.905  0.0000E+00  0.0000E+00  0.8000E+01  0.8000E+01
     -6.692  0.0000E+00  0.0000E+00  0.8000E+01  0.8000E+01
     -6.480  0.0000E+00  0.0000E+00  0.8000E+01  0.8000E+01
     -6.267  0.0000E+00  0.0000E+00  0.8000E+01  0.8000E+01
     -6.055  0.0000E+00  0.0000E+00  0.8000E+01  0.8000E+01
     -5.842  0.0000E+00  0.0000E+00  0.8000E+01  0.8000E+01
     -5.630  0.0000E+00  0.0000E+00  0.8000E+01  0.8000E+01
     -5.417  0.0000E+00  0.0000E+00  0.8000E+01  0.8000E+01
     -5.205  0.0000E+00  0.0000E+00  0.8000E+01  0.8000E+01
     -4.992  0.0000E+00  0.0000E+00  0.8000E+01  0.8000E+01
     -4.780  0.0000E+00  0.0000E+00  0.8000E+01  0.8000E+01
     -4.567  0.0000E+00  0.0000E+00  0.8000E+01  0.8000E+01
     -4.355  0.0000E+00  0.0000E+00  0.8000E+01  0.8000E+01
     -4.142  0.0000E+00  0.0000E+00  0.8000E+01  0.8000E+01
     -3.930  0.0000E+00  0.0000E+00  0.8000E+01  0.8000E+01
     -3.717  0.0000E+00  0.0000E+00  0.8000E+01  0.8000E+01
     -3.505  0.0000E+00  0.0000E+00  0.8000E+01  0.8000E+01
     -3.292  0.0000E+00  0.0000E+00  0.8000E+01  0.8000E+01
     -3.079  0.0000E+00  0.0000E+00  0.8000E+01  0.8000E+01
     -2.867  0.0000E+00  0.0000E+00  0.8000E+01  0.8000E+01
     -2.654  0.0000E+00  0.0000E+00  0.8000E+01  0.8000E+01
     -2.442  0.0000E+00  0.0000E+00  0.8000E+01  0.8000E+01
     -2.229  0.0000E+00  0.0000E+00  0.8000E+01  0.8000E+01
     -2.017  0.0000E+00  0.0000E+00  0.8000E+01  0.8000E+01
     -1.804  0.0000E+00  0.0000E+00  0.8000E+01  0.8000E+01
     -1.592  0.0000E+00  0.0000E+00  0.8000E+01  0.8000E+01
     -1.379  0.0000E+00  0.0000E+00  0.8000E+01  0.8000E+01
     -1.167  0.0000E+00  0.0000E+00  0.8000E+01  0.8000E+01
     -0.954  0.0000E+00  0.0000E+00  0.8000E+01  0.8000E+01
     -0.742  0.0000E+00  0.0000E+00  0.8000E+01  0.8000E+01
     -0.529  0.0000E+00  0.0000E+00  0.8000E+01  0.8000E+01
     -0.317  0.0000E+00  0.0000E+00  0.8000E+01  0.8000E+01
     -0.104  0.0000E+00  0.0000E+00  0.8000E+01  0.8000E+01
      0.108  0.0000E+00  0.0000E+00  0.8000E+01  0.8000E+01
      0.321  0.0000E+00  0.0000E+00  0.8000E+01  0.8000E+01
      0.533  0.0000E+00  0.0000E+00  0.8000E+01  0.8000E+01
      0.746  0.0000E+00  0.0000E+00  0.8000E+01  0.8000E+01
      0.958  0.0000E+00  0.0000E+00  0.8000E+01  0.8000E+01
      1.171  0.0000E+00  0.0000E+00  0.8000E+01  0.8000E+01
      1.383  0.0000E+00  0.0000E+00  0.8000E+01  0.8000E+01
      1.596  0.0000E+00  0.0000E+00  0.8000E+01  0.8000E+01
      1.809  0.0000E+00  0.0000E+00  0.8000E+01  0.8000E+01
      2.021  0.0000E+00  0.0000E+00  0.8000E+01  0.8000E+01
      2.234  0.0000E+00  0.0000E+00  0.8000E+01  0.8000E+01
      2.446  0.0000E+00  0.0000E+00  0.8000E+01  0.8000E+01
      2.659  0.0000E+00  0.0000E+00  0.8000E+01  0.8000E+01
      2.871  0.0000E+00  0.0000E+00  0.8000E+01  0.8000E+01
      3.084  0.1607E-06  0.1622E-06  0.8000E+01  0.8000E+01
      3.296  0.1327E-04  0.1340E-04  0.8000E+01  0.8000E+01
      3.509  0.8180E-03  0.8250E-03  0.8000E+01  0.8000E+01
      3.721  0.1398E-01  0.1405E-01  0.8003E+01  0.8003E+01
      3.934  0.4506E-01  0.4507E-01  0.8013E+01  0.8013E+01
      4.146  0.5482E-01  0.5495E-01  0.8024E+01  0.8024E+01
      4.359  0.9037E-01  0.9031E-01  0.8044E+01  0.8044E+01
      4.571  0.7598E-01  0.7605E-01  0.8060E+01  0.8060E+01
      4.784  0.1262E+00  0.1263E+00  0.8087E+01  0.8087E+01
      4.996  0.1346E+00  0.1347E+00  0.8115E+01  0.8116E+01
      5.209  0.1477E+00  0.1475E+00  0.8147E+01  0.8147E+01
      5.421  0.1445E+00  0.1448E+00  0.8178E+01  0.8178E+01
      5.634  0.2728E+00  0.2727E+00  0.8236E+01  0.8236E+01
      5.846  0.2230E+00  0.2229E+00  0.8284E+01  0.8284E+01
      6.059  0.3065E+00  0.3068E+00  0.8349E+01  0.8349E+01
      6.271  0.7625E+00  0.7634E+00  0.8511E+01  0.8512E+01
      6.484  0.9289E+00  0.9285E+00  0.8709E+01  0.8709E+01
      6.697  0.1044E+01  0.1044E+01  0.8932E+01  0.8932E+01
      6.909  0.1136E+01  0.1136E+01  0.9174E+01  0.9175E+01
      7.122  0.1305E+01  0.1305E+01  0.9453E+01  0.9453E+01
      7.334  0.1368E+01  0.1367E+01  0.9746E+01  0.9746E+01
      7.547  0.1052E+01  0.1052E+01  0.9971E+01  0.9972E+01
      7.759  0.1022E+01  0.1022E+01  0.1019E+02  0.1019E+02
      7.972  0.1064E+01  0.1064E+01  0.1042E+02  0.1042E+02
      8.184  0.1291E+01  0.1291E+01  0.1069E+02  0.1069E+02
      8.397  0.1461E+01  0.1461E+01  0.1100E+02  0.1100E+02
      8.609  0.1470E+01  0.1470E+01  0.1132E+02  0.1132E+02
      8.822  0.1639E+01  0.1639E+01  0.1167E+02  0.1167E+02
      9.034  0.6874E+00  0.6869E+00  0.1182E+02  0.1182E+02
      9.247  0.6442E+00  0.6445E+00  0.1195E+02  0.1195E+02
      9.459  0.1306E+01  0.1307E+01  0.1223E+02  0.1223E+02
      9.672  0.1737E+01  0.1737E+01  0.1260E+02  0.1260E+02
      9.884  0.1639E+01  0.1639E+01  0.1295E+02  0.1295E+02
     10.097  0.1565E+01  0.1565E+01  0.1329E+02  0.1329E+02
     10.309  0.1765E+01  0.1765E+01  0.1366E+02  0.1367E+02
     10.522  0.1831E+01  0.1831E+01  0.1406E+02  0.1406E+02
     10.734  0.1877E+01  0.1877E+01  0.1446E+02  0.1446E+02
     10.947  0.1501E+01  0.1501E+01  0.1478E+02  0.1478E+02
     11.160  0.1097E+01  0.1097E+01  0.1501E+02  0.1501E+02
     11.372  0.7974E+00  0.7971E+00  0.1518E+02  0.1518E+02
     11.585  0.8611E+00  0.8611E+00  0.1537E+02  0.1537E+02
     11.797  0.5979E+00  0.5978E+00  0.1550E+02  0.1550E+02
     12.010  0.7678E+00  0.7680E+00  0.1566E+02  0.1566E+02
     12.222  0.7867E+00  0.7866E+00  0.1583E+02  0.1583E+02
     12.435  0.5234E+00  0.5234E+00  0.1594E+02  0.1594E+02
     12.647  0.7879E+00  0.7881E+00  0.1611E+02  0.1611E+02
     12.860  0.7987E+00  0.7987E+00  0.1628E+02  0.1628E+02
     13.072  0.7301E+00  0.7301E+00  0.1644E+02  0.1644E+02
     13.285  0.8181E+00  0.8183E+00  0.1661E+02  0.1661E+02
     13.497  0.1108E+01  0.1108E+01  0.1685E+02  0.1685E+02
     13.710  0.1417E+01  0.1417E+01  0.1715E+02  0.1715E+02
     13.922  0.1524E+01  0.1523E+01  0.1747E+02  0.1747E+02
     14.135  0.1458E+01  0.1457E+01  0.1779E+02  0.1779E+02
     14.347  0.1860E+01  0.1860E+01  0.1818E+02  0.1818E+02
     14.560  0.1639E+01  0.1639E+01  0.1853E+02  0.1853E+02
     14.772  0.1072E+01  0.1071E+01  0.1876E+02  0.1876E+02
     14.985  0.5377E+00  0.5376E+00  0.1888E+02  0.1888E+02
     15.197  0.6961E+00  0.6963E+00  0.1903E+02  0.1903E+02
     15.410  0.4614E+00  0.4612E+00  0.1913E+02  0.1913E+02
     15.622  0.4007E+00  0.4006E+00  0.1921E+02  0.1921E+02
     15.835  0.4324E+00  0.4306E+00  0.1930E+02  0.1930E+02
     16.048  0.5069E+00  0.5041E+00  0.1941E+02  0.1941E+02
     16.260  0.5037E+00  0.5099E+00  0.1952E+02  0.1952E+02
     16.473  0.5907E+00  0.5944E+00  0.1965E+02  0.1965E+02
     16.685  0.4050E+00  0.4046E+00  0.1973E+02  0.1973E+02
     16.898  0.3993E+00  0.4010E+00  0.1982E+02  0.1982E+02
     17.110  0.1942E+00  0.1884E+00  0.1986E+02  0.1986E+02
     17.323  0.1317E+00  0.1319E+00  0.1989E+02  0.1989E+02
     17.535  0.1793E+00  0.1799E+00  0.1993E+02  0.1993E+02
     17.748  0.1462E+00  0.1448E+00  0.1996E+02  0.1996E+02
     17.960  0.6059E-01  0.5809E-01  0.1997E+02  0.1997E+02
     18.173  0.6915E-01  0.8182E-01  0.1999E+02  0.1999E+02
     18.385  0.3116E-01  0.4240E-01  0.1999E+02  0.2000E+02
     18.598  0.2943E-01  0.9680E-02  0.2000E+02  0.2000E+02
     18.810  0.2292E-02  0.0000E+00  0.2000E+02  0.2000E+02
     19.023  0.0000E+00  0.0000E+00  0.2000E+02  0.2000E+02
     19.235  0.0000E+00  0.0000E+00  0.2000E+02  0.2000E+02
     19.448  0.0000E+00  0.0000E+00  0.2000E+02  0.2000E+02
     19.660  0.0000E+00  0.0000E+00  0.2000E+02  0.2000E+02
     19.873  0.0000E+00  0.0000E+00  0.2000E+02  0.2000E+02
     20.085  0.0000E+00  0.0000E+00  0.2000E+02  0.2000E+02
     20.298  0.0000E+00  0.0000E+00  0.2000E+02  0.2000E+02
     20.510  0.0000E+00  0.0000E+00  0.2000E+02  0.2000E+02
     20.723  0.0000E+00  0.0000E+00  0.2000E+02  0.2000E+02
     20.936  0.0000E+00  0.0000E+00  0.2000E+02  0.2000E+02
     21.148  0.0000E+00  0.0000E+00  0.2000E+02  0.2000E+02
     21.361  0.0000E+00  0.0000E+00  0.2000E+02  0.2000E+02
     21.36056956    -42.39610973  301      9.30009355      1.00000000
    -42.396  0.0000E+00  0.0000E+00  0.0000E+00  0.0000E+00  0.0000E+00  0.0000E+00  0.0000E+00  0.0000E+00  0.0000E+00  0.0000E+00  0.0000E+00  0.0000E+00  0.0000E+00  0.0000E+00  0.0000E+00  0.0000E+00  0.0000E+00  0.0000E+00
    -42.184  0.0000E+00  0.0000E+00  0.0000E+00  0.0000E+00  0.0000E+00  0.0000E+00  0.0000E+00  0.0000E+00  0.0000E+00  0.0000E+00  0.0000E+00  0.0000E+00  0.0000E+00  0.0000E+00  0.0000E+00  0.0000E+00  0.0000E+00  0.0000E+00
    -41.971  0.0000E+00  0.0000E+00  0.0000E+00  0.0000E+00  0.0000E+00  0.0000E+00  0.0000E+00  0.0000E+00  0.0000E+00  0.0000E+00  0.0000E+00  0.0000E+00  0.0000E+00  0.0000E+00  0.0000E+00  0.0000E+00  0.0000E+00  0.0000E+00
    -41.759  0.0000E+00  0.0000E+00  0.0000E+00  0.0000E+00  0.0000E+00  0.0000E+00  0.0000E+00  0.0000E+00  0.0000E+00  0.0000E+00  0.0000E+00  0.0000E+00  0.0000E+00  0.0000E+00  0.0000E+00  0.0000E+00  0.0000E+00  0.0000E+00
    -41.546  0.0000E+00  0.0000E+00  0.0000E+00  0.0000E+00  0.0000E+00  0.0000E+00  0.0000E+00  0.0000E+00  0.0000E+00  0.0000E+00  0.0000E+00  0.0000E+00  0.0000E+00  0.0000E+00  0.0000E+00  0.0000E+00  0.0000E+00  0.0000E+00
    -41.333  0.0000E+00  0.0000E+00  0.0000E+00  0.0000E+00  0.0000E+00  0.0000E+00  0.0000E+00  0.0000E+00  0.0000E+00  0.0000E+00  0.0000E+00  0.0000E+00  0.0000E+00  0.0000E+00  0.0000E+00  0.0000E+00  0.0000E+00  0.0000E+00
    -41.121  0.0000E+00  0.0000E+00  0.0000E+00  0.0000E+00  0.0000E+00  0.0000E+00  0.0000E+00  0.0000E+00  0.0000E+00  0.0000E+00  0.0000E+00  0.0000E+00  0.0000E+00  0.0000E+00  0.0000E+00  0.0000E+00  0.0000E+00  0.0000E+00
    -40.908  0.0000E+00  0.0000E+00  0.0000E+00  0.0000E+00  0.0000E+00  0.0000E+00  0.0000E+00  0.0000E+00  0.0000E+00  0.0000E+00  0.0000E+00  0.0000E+00  0.0000E+00  0.0000E+00  0.0000E+00  0.0000E+00  0.0000E+00  0.0000E+00
    -40.696  0.0000E+00  0.0000E+00  0.0000E+00  0.0000E+00  0.0000E+00  0.0000E+00  0.0000E+00  0.0000E+00  0.0000E+00  0.0000E+00  0.0000E+00  0.0000E+00  0.0000E+00  0.0000E+00  0.0000E+00  0.0000E+00  0.0000E+00  0.0000E+00
    -40.483  0.0000E+00  0.0000E+00  0.0000E+00  0.0000E+00  0.0000E+00  0.0000E+00  0.0000E+00  0.0000E+00  0.0000E+00  0.0000E+00  0.0000E+00  0.0000E+00  0.0000E+00  0.0000E+00  0.0000E+00  0.0000E+00  0.0000E+00  0.0000E+00
    -40.271  0.0000E+00  0.0000E+00  0.0000E+00  0.0000E+00  0.0000E+00  0.0000E+00  0.0000E+00  0.0000E+00  0.0000E+00  0.0000E+00  0.0000E+00  0.0000E+00  0.0000E+00  0.0000E+00  0.0000E+00  0.0000E+00  0.0000E+00  0.0000E+00
    -40.058  0.1379E-05  0.1377E-05  0.9450E-11  0.9451E-11  0.1209E-10  0.1208E-10  0.9450E-11  0.9451E-11  0.4799E-12  0.4812E-12  0.2723E-12  0.2724E-12  0.1539E-11  0.1539E-11  0.2723E-12  0.2724E-12  0.4799E-12  0.4812E-12
    -39.846  0.3387E-03  0.3382E-03  0.3079E-08  0.3077E-08  0.3527E-08  0.3523E-08  0.3079E-08  0.3077E-08  0.7536E-09  0.7528E-09  0.6271E-09  0.6262E-09  0.1137E-08  0.1136E-08  0.6271E-09  0.6262E-09  0.7536E-09  0.7528E-09
    -39.633  0.2312E-01  0.2309E-01  0.2102E-06  0.2101E-06  0.2410E-06  0.2407E-06  0.2102E-06  0.2101E-06  0.5176E-07  0.5170E-07  0.4312E-07  0.4306E-07  0.7802E-07  0.7793E-07  0.4312E-07  0.4306E-07  0.5176E-07  0.5170E-07
    -39.421  0.9273E+00  0.9264E+00  0.8074E-05  0.8074E-05  0.9414E-05  0.9407E-05  0.8074E-05  0.8074E-05  0.2607E-05  0.2604E-05  0.2296E-05  0.2293E-05  0.3792E-05  0.3788E-05  0.2296E-05  0.2293E-05  0.2607E-05  0.2604E-05
    -39.208  0.3337E+01  0.3338E+01  0.1878E-04  0.1880E-04  0.2314E-04  0.2314E-04  0.1878E-04  0.1880E-04  0.1078E-04  0.1077E-04  0.1145E-04  0.1145E-04  0.1547E-04  0.1546E-04  0.1145E-04  0.1145E-04  0.1078E-04  0.1077E-04
    -38.996  0.3697E+00  0.3702E+00  0.1354E-05  0.1355E-05  0.1721E-05  0.1722E-05  0.1354E-05  0.1355E-05  0.1102E-05  0.1102E-05  0.1321E-05  0.1322E-05  0.1546E-05  0.1547E-05  0.1321E-05  0.1322E-05  0.1102E-05  0.1102E-05
    -38.783  0.0000E+00  0.0000E+00  0.0000E+00  0.0000E+00  0.0000E+00  0.0000E+00  0.0000E+00  0.0000E+00  0.0000E+00  0.0000E+00  0.0000E+00  0.0000E+00  0.0000E+00  0.0000E+00  0.0000E+00  0.0000E+00  0.0000E+00  0.0000E+00
    -38.571  0.0000E+00  0.0000E+00  0.0000E+00  0.0000E+00  0.0000E+00  0.0000E+00  0.0000E+00  0.0000E+00  0.0000E+00  0.0000E+00  0.0000E+00  0.0000E+00  0.0000E+00  0.0000E+00  0.0000E+00  0.0000E+00  0.0000E+00  0.0000E+00
    -38.358  0.0000E+00  0.0000E+00  0.0000E+00  0.0000E+00  0.0000E+00  0.0000E+00  0.0000E+00  0.0000E+00  0.0000E+00  0.0000E+00  0.0000E+00  0.0000E+00  0.0000E+00  0.0000E+00  0.0000E+00  0.0000E+00  0.0000E+00  0.0000E+00
    -38.146  0.0000E+00  0.0000E+00  0.0000E+00  0.0000E+00  0.0000E+00  0.0000E+00  0.0000E+00  0.0000E+00  0.0000E+00  0.0000E+00  0.0000E+00  0.0000E+00  0.0000E+00  0.0000E+00  0.0000E+00  0.0000E+00  0.0000E+00  0.0000E+00
    -37.933  0.0000E+00  0.0000E+00  0.0000E+00  0.0000E+00  0.0000E+00  0.0000E+00  0.0000E+00  0.0000E+00  0.0000E+00  0.0000E+00  0.0000E+00  0.0000E+00  0.0000E+00  0.0000E+00  0.0000E+00  0.0000E+00  0.0000E+00  0.0000E+00
    -37.721  0.0000E+00  0.0000E+00  0.0000E+00  0.0000E+00  0.0000E+00  0.0000E+00  0.0000E+00  0.0000E+00  0.0000E+00  0.0000E+00  0.0000E+00  0.0000E+00  0.0000E+00  0.0000E+00  0.0000E+00  0.0000E+00  0.0000E+00  0.0000E+00
    -37.508  0.0000E+00  0.0000E+00  0.0000E+00  0.0000E+00  0.0000E+00  0.0000E+00  0.0000E+00  0.0000E+00  0.0000E+00  0.0000E+00  0.0000E+00  0.0000E+00  0.0000E+00  0.0000E+00  0.0000E+00  0.0000E+00  0.0000E+00  0.0000E+00
    -37.296  0.0000E+00  0.0000E+00  0.0000E+00  0.0000E+00  0.0000E+00  0.0000E+00  0.0000E+00  0.0000E+00  0.0000E+00  0.0000E+00  0.0000E+00  0.0000E+00  0.0000E+00  0.0000E+00  0.0000E+00  0.0000E+00  0.0000E+00  0.0000E+00
    -37.083  0.0000E+00  0.0000E+00  0.0000E+00  0.0000E+00  0.0000E+00  0.0000E+00  0.0000E+00  0.0000E+00  0.0000E+00  0.0000E+00  0.0000E+00  0.0000E+00  0.0000E+00  0.0000E+00  0.0000E+00  0.0000E+00  0.0000E+00  0.0000E+00
    -36.871  0.0000E+00  0.0000E+00  0.0000E+00  0.0000E+00  0.0000E+00  0.0000E+00  0.0000E+00  0.0000E+00  0.0000E+00  0.0000E+00  0.0000E+00  0.0000E+00  0.0000E+00  0.0000E+00  0.0000E+00  0.0000E+00  0.0000E+00  0.0000E+00
    -36.658  0.0000E+00  0.0000E+00  0.0000E+00  0.0000E+00  0.0000E+00  0.0000E+00  0.0000E+00  0.0000E+00  0.0000E+00  0.0000E+00  0.0000E+00  0.0000E+00  0.0000E+00  0.0000E+00  0.0000E+00  0.0000E+00  0.0000E+00  0.0000E+00
    -36.445  0.0000E+00  0.0000E+00  0.0000E+00  0.0000E+00  0.0000E+00  0.0000E+00  0.0000E+00  0.0000E+00  0.0000E+00  0.0000E+00  0.0000E+00  0.0000E+00  0.0000E+00  0.0000E+00  0.0000E+00  0.0000E+00  0.0000E+00  0.0000E+00
    -36.233  0.0000E+00  0.0000E+00  0.0000E+00  0.0000E+00  0.0000E+00  0.0000E+00  0.0000E+00  0.0000E+00  0.0000E+00  0.0000E+00  0.0000E+00  0.0000E+00  0.0000E+00  0.0000E+00  0.0000E+00  0.0000E+00  0.0000E+00  0.0000E+00
    -36.020  0.0000E+00  0.0000E+00  0.0000E+00  0.0000E+00  0.0000E+00  0.0000E+00  0.0000E+00  0.0000E+00  0.0000E+00  0.0000E+00  0.0000E+00  0.0000E+00  0.0000E+00  0.0000E+00  0.0000E+00  0.0000E+00  0.0000E+00  0.0000E+00
    -35.808  0.0000E+00  0.0000E+00  0.0000E+00  0.0000E+00  0.0000E+00  0.0000E+00  0.0000E+00  0.0000E+00  0.0000E+00  0.0000E+00  0.0000E+00  0.0000E+00  0.0000E+00  0.0000E+00  0.0000E+00  0.0000E+00  0.0000E+00  0.0000E+00
    -35.595  0.0000E+00  0.0000E+00  0.0000E+00  0.0000E+00  0.0000E+00  0.0000E+00  0.0000E+00  0.0000E+00  0.0000E+00  0.0000E+00  0.0000E+00  0.0000E+00  0.0000E+00  0.0000E+00  0.0000E+00  0.0000E+00  0.0000E+00  0.0000E+00
    -35.383  0.0000E+00  0.0000E+00  0.0000E+00  0.0000E+00  0.0000E+00  0.0000E+00  0.0000E+00  0.0000E+00  0.0000E+00  0.0000E+00  0.0000E+00  0.0000E+00  0.0000E+00  0.0000E+00  0.0000E+00  0.0000E+00  0.0000E+00  0.0000E+00
    -35.170  0.0000E+00  0.0000E+00  0.0000E+00  0.0000E+00  0.0000E+00  0.0000E+00  0.0000E+00  0.0000E+00  0.0000E+00  0.0000E+00  0.0000E+00  0.0000E+00  0.0000E+00  0.0000E+00  0.0000E+00  0.0000E+00  0.0000E+00  0.0000E+00
    -34.958  0.0000E+00  0.0000E+00  0.0000E+00  0.0000E+00  0.0000E+00  0.0000E+00  0.0000E+00  0.0000E+00  0.0000E+00  0.0000E+00  0.0000E+00  0.0000E+00  0.0000E+00  0.0000E+00  0.0000E+00  0.0000E+00  0.0000E+00  0.0000E+00
    -34.745  0.0000E+00  0.0000E+00  0.0000E+00  0.0000E+00  0.0000E+00  0.0000E+00  0.0000E+00  0.0000E+00  0.0000E+00  0.0000E+00  0.0000E+00  0.0000E+00  0.0000E+00  0.0000E+00  0.0000E+00  0.0000E+00  0.0000E+00  0.0000E+00
    -34.533  0.0000E+00  0.0000E+00  0.0000E+00  0.0000E+00  0.0000E+00  0.0000E+00  0.0000E+00  0.0000E+00  0.0000E+00  0.0000E+00  0.0000E+00  0.0000E+00  0.0000E+00  0.0000E+00  0.0000E+00  0.0000E+00  0.0000E+00  0.0000E+00
    -34.320  0.0000E+00  0.0000E+00  0.0000E+00  0.0000E+00  0.0000E+00  0.0000E+00  0.0000E+00  0.0000E+00  0.0000E+00  0.0000E+00  0.0000E+00  0.0000E+00  0.0000E+00  0.0000E+00  0.0000E+00  0.0000E+00  0.0000E+00  0.0000E+00
    -34.108  0.0000E+00  0.0000E+00  0.0000E+00  0.0000E+00  0.0000E+00  0.0000E+00  0.0000E+00  0.0000E+00  0.0000E+00  0.0000E+00  0.0000E+00  0.0000E+00  0.0000E+00  0.0000E+00  0.0000E+00  0.0000E+00  0.0000E+00  0.0000E+00
    -33.895  0.0000E+00  0.0000E+00  0.0000E+00  0.0000E+00  0.0000E+00  0.0000E+00  0.0000E+00  0.0000E+00  0.0000E+00  0.0000E+00  0.0000E+00  0.0000E+00  0.0000E+00  0.0000E+00  0.0000E+00  0.0000E+00  0.0000E+00  0.0000E+00
    -33.683  0.0000E+00  0.0000E+00  0.0000E+00  0.0000E+00  0.0000E+00  0.0000E+00  0.0000E+00  0.0000E+00  0.0000E+00  0.0000E+00  0.0000E+00  0.0000E+00  0.0000E+00  0.0000E+00  0.0000E+00  0.0000E+00  0.0000E+00  0.0000E+00
    -33.470  0.0000E+00  0.0000E+00  0.0000E+00  0.0000E+00  0.0000E+00  0.0000E+00  0.0000E+00  0.0000E+00  0.0000E+00  0.0000E+00  0.0000E+00  0.0000E+00  0.0000E+00  0.0000E+00  0.0000E+00  0.0000E+00  0.0000E+00  0.0000E+00
    -33.258  0.0000E+00  0.0000E+00  0.0000E+00  0.0000E+00  0.0000E+00  0.0000E+00  0.0000E+00  0.0000E+00  0.0000E+00  0.0000E+00  0.0000E+00  0.0000E+00  0.0000E+00  0.0000E+00  0.0000E+00  0.0000E+00  0.0000E+00  0.0000E+00
    -33.045  0.0000E+00  0.0000E+00  0.0000E+00  0.0000E+00  0.0000E+00  0.0000E+00  0.0000E+00  0.0000E+00  0.0000E+00  0.0000E+00  0.0000E+00  0.0000E+00  0.0000E+00  0.0000E+00  0.0000E+00  0.0000E+00  0.0000E+00  0.0000E+00
    -32.833  0.0000E+00  0.0000E+00  0.0000E+00  0.0000E+00  0.0000E+00  0.0000E+00  0.0000E+00  0.0000E+00  0.0000E+00  0.0000E+00  0.0000E+00  0.0000E+00  0.0000E+00  0.0000E+00  0.0000E+00  0.0000E+00  0.0000E+00  0.0000E+00
    -32.620  0.0000E+00  0.0000E+00  0.0000E+00  0.0000E+00  0.0000E+00  0.0000E+00  0.0000E+00  0.0000E+00  0.0000E+00  0.0000E+00  0.0000E+00  0.0000E+00  0.0000E+00  0.0000E+00  0.0000E+00  0.0000E+00  0.0000E+00  0.0000E+00
    -32.408  0.0000E+00  0.0000E+00  0.0000E+00  0.0000E+00  0.0000E+00  0.0000E+00  0.0000E+00  0.0000E+00  0.0000E+00  0.0000E+00  0.0000E+00  0.0000E+00  0.0000E+00  0.0000E+00  0.0000E+00  0.0000E+00  0.0000E+00  0.0000E+00
    -32.195  0.0000E+00  0.0000E+00  0.0000E+00  0.0000E+00  0.0000E+00  0.0000E+00  0.0000E+00  0.0000E+00  0.0000E+00  0.0000E+00  0.0000E+00  0.0000E+00  0.0000E+00  0.0000E+00  0.0000E+00  0.0000E+00  0.0000E+00  0.0000E+00
    -31.983  0.0000E+00  0.0000E+00  0.0000E+00  0.0000E+00  0.0000E+00  0.0000E+00  0.0000E+00  0.0000E+00  0.0000E+00  0.0000E+00  0.0000E+00  0.0000E+00  0.0000E+00  0.0000E+00  0.0000E+00  0.0000E+00  0.0000E+00  0.0000E+00
    -31.770  0.0000E+00  0.0000E+00  0.0000E+00  0.0000E+00  0.0000E+00  0.0000E+00  0.0000E+00  0.0000E+00  0.0000E+00  0.0000E+00  0.0000E+00  0.0000E+00  0.0000E+00  0.0000E+00  0.0000E+00  0.0000E+00  0.0000E+00  0.0000E+00