   2   2   1   0
  0.1820005E+02  0.2970552E-09  0.2970552E-09  0.4763188E-09  0.5000000E-15
  1.000000000000000E-004
  CAR 
 unknown system                          
     26.92347304    -39.52317192  301     12.02116687      1.00000000
    -39.523  0.0000E+00  0.0000E+00  0.0000E+00  0.0000E+00
    -39.302  0.0000E+00  0.0000E+00  0.0000E+00  0.0000E+00
    -39.080  0.0000E+00  0.0000E+00  0.0000E+00  0.0000E+00
    -38.859  0.0000E+00  0.0000E+00  0.0000E+00  0.0000E+00
    -38.637  0.0000E+00  0.0000E+00  0.0000E+00  0.0000E+00
    -38.416  0.0000E+00  0.0000E+00  0.0000E+00  0.0000E+00
    -38.194  0.0000E+00  0.0000E+00  0.0000E+00  0.0000E+00
    -37.973  0.0000E+00  0.0000E+00  0.0000E+00  0.0000E+00
    -37.751  0.0000E+00  0.0000E+00  0.0000E+00  0.0000E+00
    -37.530  0.0000E+00  0.0000E+00  0.0000E+00  0.0000E+00
    -37.308  0.0000E+00  0.0000E+00  0.0000E+00  0.0000E+00
    -37.087  0.3381E-06  0.3388E-06  0.7490E-07  0.7504E-07
    -36.865  0.8858E-04  0.8875E-04  0.1970E-04  0.1973E-04
    -36.644  0.7526E-02  0.7540E-02  0.1687E-02  0.1690E-02
    -36.422  0.3158E+00  0.3162E+00  0.7164E-01  0.7172E-01
    -36.201  0.2134E+01  0.2135E+01  0.5442E+00  0.5446E+00
    -35.979  0.5438E+01  0.5438E+01  0.1750E+01  0.1750E+01
    -35.758  0.1092E+01  0.1090E+01  0.1996E+01  0.1996E+01
    -35.536  0.0000E+00  0.0000E+00  0.2000E+01  0.2000E+01
    -35.315  0.0000E+00  0.0000E+00  0.2000E+01  0.2000E+01
    -35.093  0.0000E+00  0.0000E+00  0.2000E+01  0.2000E+01
    -34.872  0.0000E+00  0.0000E+00  0.2000E+01  0.2000E+01
    -34.650  0.0000E+00  0.0000E+00  0.2000E+01  0.2000E+01
    -34.429  0.0000E+00  0.0000E+00  0.2000E+01  0.2000E+01
    -34.207  0.0000E+00  0.0000E+00  0.2000E+01  0.2000E+01
    -33.986  0.0000E+00  0.0000E+00  0.2000E+01  0.2000E+01
    -33.764  0.0000E+00  0.0000E+00  0.2000E+01  0.2000E+01
    -33.543  0.0000E+00  0.0000E+00  0.2000E+01  0.2000E+01
    -33.321  0.0000E+00  0.0000E+00  0.2000E+01  0.2000E+01
    -33.100  0.0000E+00  0.0000E+00  0.2000E+01  0.2000E+01
    -32.879  0.0000E+00  0.0000E+00  0.2000E+01  0.2000E+01
    -32.657  0.0000E+00  0.0000E+00  0.2000E+01  0.2000E+01
    -32.436  0.0000E+00  0.0000E+00  0.2000E+01  0.2000E+01
    -32.214  0.0000E+00  0.0000E+00  0.2000E+01  0.2000E+01
    -31.993  0.0000E+00  0.0000E+00  0.2000E+01  0.2000E+01
    -31.771  0.0000E+00  0.0000E+00  0.2000E+01  0.2000E+01
    -31.550  0.0000E+00  0.0000E+00  0.2000E+01  0.2000E+01
    -31.328  0.0000E+00  0.0000E+00  0.2000E+01  0.2000E+01
    -31.107  0.0000E+00  0.0000E+00  0.2000E+01  0.2000E+01
    -30.885  0.0000E+00  0.0000E+00  0.2000E+01  0.2000E+01
    -30.664  0.0000E+00  0.0000E+00  0.2000E+01  0.2000E+01
    -30.442  0.0000E+00  0.0000E+00  0.2000E+01  0.2000E+01
    -30.221  0.0000E+00  0.0000E+00  0.2000E+01  0.2000E+01
    -29.999  0.0000E+00  0.0000E+00  0.2000E+01  0.2000E+01
    -29.778  0.0000E+00  0.0000E+00  0.2000E+01  0.2000E+01
    -29.556  0.0000E+00  0.0000E+00  0.2000E+01  0.2000E+01
    -29.335  0.0000E+00  0.0000E+00  0.2000E+01  0.2000E+01
    -29.113  0.0000E+00  0.0000E+00  0.2000E+01  0.2000E+01
    -28.892  0.0000E+00  0.0000E+00  0.2000E+01  0.2000E+01
    -28.670  0.0000E+00  0.0000E+00  0.2000E+01  0.2000E+01
    -28.449  0.0000E+00  0.0000E+00  0.2000E+01  0.2000E+01
    -28.227  0.0000E+00  0.0000E+00  0.2000E+01  0.2000E+01
    -28.006  0.0000E+00  0.0000E+00  0.2000E+01  0.2000E+01
    -27.784  0.0000E+00  0.0000E+00  0.2000E+01  0.2000E+01
    -27.563  0.0000E+00  0.0000E+00  0.2000E+01  0.2000E+01
    -27.341  0.0000E+00  0.0000E+00  0.2000E+01  0.2000E+01
    -27.120  0.0000E+00  0.0000E+00  0.2000E+01  0.2000E+01
    -26.898  0.0000E+00  0.0000E+00  0.2000E+01  0.2000E+01
    -26.677  0.0000E+00  0.0000E+00  0.2000E+01  0.2000E+01
    -26.455  0.0000E+00  0.0000E+00  0.2000E+01  0.2000E+01
    -26.234  0.0000E+00  0.0000E+00  0.2000E+01  0.2000E+01
    -26.012  0.0000E+00  0.0000E+00  0.2000E+01  0.2000E+01
    -25.791  0.0000E+00  0.0000E+00  0.2000E+01  0.2000E+01
    -25.569  0.0000E+00  0.0000E+00  0.2000E+01  0.2000E+01
    -25.348  0.0000E+00  0.0000E+00  0.2000E+01  0.2000E+01
    -25.126  0.0000E+00  0.0000E+00  0.2000E+01  0.2000E+01
    -24.905  0.0000E+00  0.0000E+00  0.2000E+01  0.2000E+01
    -24.683  0.0000E+00  0.0000E+00  0.2000E+01  0.2000E+01
    -24.462  0.0000E+00  0.0000E+00  0.2000E+01  0.2000E+01
    -24.240  0.0000E+00  0.0000E+00  0.2000E+01  0.2000E+01
    -24.019  0.0000E+00  0.0000E+00  0.2000E+01  0.2000E+01
    -23.797  0.0000E+00  0.0000E+00  0.2000E+01  0.2000E+01
    -23.576  0.0000E+00  0.0000E+00  0.2000E+01  0.2000E+01
    -23.354  0.0000E+00  0.0000E+00  0.2000E+01  0.2000E+01
    -23.133  0.0000E+00  0.0000E+00  0.2000E+01  0.2000E+01
    -22.912  0.0000E+00  0.0000E+00  0.2000E+01  0.2000E+01
    -22.690  0.0000E+00  0.0000E+00  0.2000E+01  0.2000E+01
    -22.469  0.0000E+00  0.0000E+00  0.2000E+01  0.2000E+01
    -22.247  0.0000E+00  0.0000E+00  0.2000E+01  0.2000E+01
    -22.026  0.0000E+00  0.0000E+00  0.2000E+01  0.2000E+01
    -21.804  0.0000E+00  0.0000E+00  0.2000E+01  0.2000E+01
    -21.583  0.0000E+00  0.0000E+00  0.2000E+01  0.2000E+01
    -21.361  0.0000E+00  0.0000E+00  0.2000E+01  0.2000E+01
    -21.140  0.0000E+00  0.0000E+00  0.2000E+01  0.2000E+01
    -20.918  0.0000E+00  0.0000E+00  0.2000E+01  0.2000E+01
    -20.697  0.0000E+00  0.0000E+00  0.2000E+01  0.2000E+01
    -20.475  0.0000E+00  0.0000E+00  0.2000E+01  0.2000E+01
    -20.254  0.0000E+00  0.0000E+00  0.2000E+01  0.2000E+01
    -20.032  0.0000E+00  0.0000E+00  0.2000E+01  0.2000E+01
    -19.811  0.0000E+00  0.0000E+00  0.2000E+01  0.2000E+01
    -19.589  0.0000E+00  0.0000E+00  0.2000E+01  0.2000E+01
    -19.368  0.0000E+00  0.0000E+00  0.2000E+01  0.2000E+01
    -19.146  0.0000E+00  0.0000E+00  0.2000E+01  0.2000E+01
    -18.925  0.0000E+00  0.0000E+00  0.2000E+01  0.2000E+01
    -18.703  0.0000E+00  0.0000E+00  0.2000E+01  0.2000E+01
    -18.482  0.0000E+00  0.0000E+00  0.2000E+01  0.2000E+01
    -18.260  0.0000E+00  0.0000E+00  0.2000E+01  0.2000E+01
    -18.039  0.0000E+00  0.0000E+00  0.2000E+01  0.2000E+01
    -17.817  0.0000E+00  0.0000E+00  0.2000E+01  0.2000E+01
    -17.596  0.0000E+00  0.0000E+00  0.2000E+01  0.2000E+01
    -17.374  0.0000E+00  0.0000E+00  0.2000E+01  0.2000E+01
    -17.153  0.0000E+00  0.0000E+00  0.2000E+01  0.2000E+01
    -16.931  0.0000E+00  0.0000E+00  0.2000E+01  0.2000E+01
    -16.710  0.0000E+00  0.0000E+00  0.2000E+01  0.2000E+01
    -16.488  0.0000E+00  0.0000E+00  0.2000E+01  0.2000E+01
    -16.267  0.0000E+00  0.0000E+00  0.2000E+01  0.2000E+01
    -16.045  0.1572E-05  0.1574E-05  0.2000E+01  0.2000E+01
    -15.824  0.2282E-03  0.2284E-03  0.2000E+01  0.2000E+01
    -15.602  0.1764E-01  0.1765E-01  0.2004E+01  0.2004E+01
    -15.381  0.4825E+00  0.4826E+00  0.2111E+01  0.2111E+01
    -15.159  0.2363E+01  0.2363E+01  0.2634E+01  0.2634E+01
    -14.938  0.3013E+01  0.3013E+01  0.3303E+01  0.3303E+01
    -14.716  0.1922E+01  0.1922E+01  0.3734E+01  0.3734E+01
    -14.495  0.1982E+01  0.1982E+01  0.4175E+01  0.4175E+01
    -14.273  0.2565E+01  0.2565E+01  0.4745E+01  0.4745E+01
    -14.052  0.3636E+01  0.3636E+01  0.5554E+01  0.5554E+01
    -13.830  0.5160E+01  0.5160E+01  0.6701E+01  0.6701E+01
    -13.609  0.4615E+01  0.4616E+01  0.7729E+01  0.7729E+01
    -13.387  0.1130E+01  0.1131E+01  0.7990E+01  0.7990E+01
    -13.166  0.2676E-01  0.2679E-01  0.8000E+01  0.8000E+01
    -12.945  0.0000E+00  0.0000E+00  0.8000E+01  0.8000E+01
    -12.723  0.0000E+00  0.0000E+00  0.8000E+01  0.8000E+01
    -12.502  0.0000E+00  0.0000E+00  0.8000E+01  0.8000E+01
    -12.280  0.0000E+00  0.0000E+00  0.8000E+01  0.8000E+01
    -12.059  0.0000E+00  0.0000E+00  0.8000E+01  0.8000E+01
    -11.837  0.0000E+00  0.0000E+00  0.8000E+01  0.8000E+01
    -11.616  0.0000E+00  0.0000E+00  0.8000E+01  0.8000E+01
    -11.394  0.0000E+00  0.0000E+00  0.8000E+01  0.8000E+01
    -11.173  0.0000E+00  0.0000E+00  0.8000E+01  0.8000E+01
    -10.951  0.0000E+00  0.0000E+00  0.8000E+01  0.8000E+01
    -10.730  0.0000E+00  0.0000E+00  0.8000E+01  0.8000E+01
    -10.508  0.0000E+00  0.0000E+00  0.8000E+01  0.8000E+01
    -10.287  0.0000E+00  0.0000E+00  0.8000E+01  0.8000E+01
    -10.065  0.0000E+00  0.0000E+00  0.8000E+01  0.8000E+01
     -9.844  0.0000E+00  0.0000E+00  0.8000E+01  0.8000E+01
     -9.622  0.0000E+00  0.0000E+00  0.8000E+01  0.8000E+01
     -9.401  0.0000E+00  0.0000E+00  0.8000E+01  0.8000E+01
     -9.179  0.0000E+00  0.0000E+00  0.8000E+01  0.8000E+01
     -8.958  0.0000E+00  0.0000E+00  0.8000E+01  0.8000E+01
     -8.736  0.0000E+00  0.0000E+00  0.8000E+01  0.8000E+01
     -8.515  0.0000E+00  0.0000E+00  0.8000E+01  0.8000E+01
     -8.293  0.0000E+00  0.0000E+00  0.8000E+01  0.8000E+01
     -8.072  0.0000E+00  0.0000E+00  0.8000E+01  0.8000E+01
     -7.850  0.0000E+00  0.0000E+00  0.8000E+01  0.8000E+01
     -7.629  0.0000E+00  0.0000E+00  0.8000E+01  0.8000E+01
     -7.407  0.0000E+00  0.0000E+00  0.8000E+01  0.8000E+01
     -7.186  0.0000E+00  0.0000E+00  0.8000E+01  0.8000E+01
     -6.964  0.0000E+00  0.0000E+00  0.8000E+01  0.8000E+01
     -6.743  0.0000E+00  0.0000E+00  0.8000E+01  0.8000E+01
     -6.521  0.0000E+00  0.0000E+00  0.8000E+01  0.8000E+01
     -6.300  0.0000E+00  0.0000E+00  0.8000E+01  0.8000E+01
     -6.078  0.0000E+00  0.0000E+00  0.8000E+01  0.8000E+01
     -5.857  0.0000E+00  0.0000E+00  0.8000E+01  0.8000E+01
     -5.635  0.0000E+00  0.0000E+00  0.8000E+01  0.8000E+01
     -5.414  0.0000E+00  0.0000E+00  0.8000E+01  0.8000E+01
     -5.192  0.0000E+00  0.0000E+00  0.8000E+01  0.8000E+01
     -4.971  0.0000E+00  0.0000E+00  0.8000E+01  0.8000E+01
     -4.749  0.0000E+00  0.0000E+00  0.8000E+01  0.8000E+01
     -4.528  0.0000E+00  0.0000E+00  0.8000E+01  0.8000E+01
     -4.306  0.0000E+00  0.0000E+00  0.8000E+01  0.8000E+01
     -4.085  0.0000E+00  0.0000E+00  0.8000E+01  0.8000E+01
     -3.863  0.0000E+00  0.0000E+00  0.8000E+01  0.8000E+01
     -3.642  0.0000E+00  0.0000E+00  0.8000E+01  0.8000E+01
     -3.420  0.0000E+00  0.0000E+00  0.8000E+01  0.8000E+01
     -3.199  0.0000E+00  0.0000E+00  0.8000E+01  0.8000E+01
     -2.978  0.0000E+00  0.0000E+00  0.8000E+01  0.8000E+01
     -2.756  0.0000E+00  0.0000E+00  0.8000E+01  0.8000E+01
     -2.535  0.0000E+00  0.0000E+00  0.8000E+01  0.8000E+01
     -2.313  0.0000E+00  0.0000E+00  0.8000E+01  0.8000E+01
     -2.092  0.0000E+00  0.0000E+00  0.8000E+01  0.8000E+01
     -1.870  0.0000E+00  0.0000E+00  0.8000E+01  0.8000E+01
     -1.649  0.0000E+00  0.0000E+00  0.8000E+01  0.8000E+01
     -1.427  0.0000E+00  0.0000E+00  0.8000E+01  0.8000E+01
     -1.206  0.0000E+00  0.0000E+00  0.8000E+01  0.8000E+01
     -0.984  0.0000E+00  0.0000E+00  0.8000E+01  0.8000E+01
     -0.763  0.0000E+00  0.0000E+00  0.8000E+01  0.8000E+01
     -0.541  0.0000E+00  0.0000E+00  0.8000E+01  0.8000E+01
     -0.320  0.0000E+00  0.0000E+00  0.8000E+01  0.8000E+01
     -0.098  0.0000E+00  0.0000E+00  0.8000E+01  0.8000E+01
      0.123  0.0000E+00  0.0000E+00  0.8000E+01  0.8000E+01
      0.345  0.0000E+00  0.0000E+00  0.8000E+01  0.8000E+01
      0.566  0.0000E+00  0.0000E+00  0.8000E+01  0.8000E+01
      0.788  0.0000E+00  0.0000E+00  0.8000E+01  0.8000E+01
      1.009  0.0000E+00  0.0000E+00  0.8000E+01  0.8000E+01
      1.231  0.0000E+00  0.0000E+00  0.8000E+01  0.8000E+01
      1.452  0.0000E+00  0.0000E+00  0.8000E+01  0.8000E+01
      1.674  0.0000E+00  0.0000E+00  0.8000E+01  0.8000E+01
      1.895  0.0000E+00  0.0000E+00  0.8000E+01  0.8000E+01
      2.117  0.0000E+00  0.0000E+00  0.8000E+01  0.8000E+01
      2.338  0.0000E+00  0.0000E+00  0.8000E+01  0.8000E+01
      2.560  0.0000E+00  0.0000E+00  0.8000E+01  0.8000E+01
      2.781  0.0000E+00  0.0000E+00  0.8000E+01  0.8000E+01
      3.003  0.0000E+00  0.0000E+00  0.8000E+01  0.8000E+01
      3.224  0.0000E+00  0.0000E+00  0.8000E+01  0.8000E+01
      3.446  0.0000E+00  0.0000E+00  0.8000E+01  0.8000E+01
      3.667  0.0000E+00  0.0000E+00  0.8000E+01  0.8000E+01
      3.889  0.0000E+00  0.0000E+00  0.8000E+01  0.8000E+01
      4.110  0.0000E+00  0.0000E+00  0.8000E+01  0.8000E+01
      4.332  0.0000E+00  0.0000E+00  0.8000E+01  0.8000E+01
      4.553  0.0000E+00  0.0000E+00  0.8000E+01  0.8000E+01
      4.775  0.0000E+00  0.0000E+00  0.8000E+01  0.8000E+01
      4.996  0.0000E+00  0.0000E+00  0.8000E+01  0.8000E+01
      5.218  0.0000E+00  0.0000E+00  0.8000E+01  0.8000E+01
      5.439  0.0000E+00  0.0000E+00  0.8000E+01  0.8000E+01
      5.661  0.3633E-06  0.3727E-06  0.8000E+01  0.8000E+01
      5.882  0.3193E-04  0.3274E-04  0.8000E+01  0.8000E+01
      6.104  0.1699E-02  0.1728E-02  0.8000E+01  0.8000E+01
      6.325  0.1504E-01  0.1518E-01  0.8004E+01  0.8004E+01
      6.547  0.3934E-01  0.3934E-01  0.8012E+01  0.8012E+01
      6.768  0.2904E-01  0.2920E-01  0.8019E+01  0.8019E+01
      6.989  0.8214E-01  0.8219E-01  0.8037E+01  0.8037E+01
      7.211  0.5766E-01  0.5763E-01  0.8050E+01  0.8050E+01
      7.432  0.7755E-01  0.7781E-01  0.8067E+01  0.8067E+01
      7.654  0.1100E+00  0.1099E+00  0.8092E+01  0.8092E+01
      7.875  0.1372E+00  0.1377E+00  0.8122E+01  0.8122E+01
      8.097  0.1632E+00  0.1628E+00  0.8158E+01  0.8159E+01
      8.318  0.3938E+00  0.3959E+00  0.8246E+01  0.8247E+01
      8.540  0.9462E+00  0.9467E+00  0.8456E+01  0.8457E+01
      8.761  0.1073E+01  0.1073E+01  0.8695E+01  0.8695E+01
      8.983  0.1190E+01  0.1191E+01  0.8959E+01  0.8960E+01
      9.204  0.1317E+01  0.1317E+01  0.9252E+01  0.9253E+01
      9.426  0.1271E+01  0.1271E+01  0.9536E+01  0.9537E+01
      9.647  0.9158E+00  0.9150E+00  0.9740E+01  0.9740E+01
      9.869  0.7552E+00  0.7553E+00  0.9908E+01  0.9909E+01
     10.090  0.8291E+00  0.8289E+00  0.1009E+02  0.1009E+02
     10.312  0.1083E+01  0.1085E+01  0.1033E+02  0.1034E+02
     10.533  0.1148E+01  0.1147E+01  0.1059E+02  0.1059E+02
     10.755  0.1163E+01  0.1163E+01  0.1085E+02  0.1085E+02
     10.976  0.1097E+01  0.1097E+01  0.1109E+02  0.1109E+02
     11.198  0.1169E+01  0.1170E+01  0.1135E+02  0.1135E+02
     11.419  0.1123E+01  0.1122E+01  0.1160E+02  0.1161E+02
     11.641  0.7617E+00  0.7606E+00  0.1178E+02  0.1178E+02
     11.862  0.4711E+00  0.4713E+00  0.1188E+02  0.1188E+02
     12.084  0.8418E+00  0.8429E+00  0.1207E+02  0.1207E+02
     12.305  0.1374E+01  0.1374E+01  0.1237E+02  0.1237E+02
     12.527  0.1339E+01  0.1338E+01  0.1267E+02  0.1267E+02
     12.748  0.1299E+01  0.1299E+01  0.1296E+02  0.1296E+02
     12.970  0.1144E+01  0.1143E+01  0.1322E+02  0.1322E+02
     13.191  0.1191E+01  0.1192E+01  0.1348E+02  0.1348E+02
     13.413  0.1521E+01  0.1521E+01  0.1382E+02  0.1382E+02
     13.634  0.1392E+01  0.1393E+01  0.1413E+02  0.1413E+02
     13.856  0.1475E+01  0.1474E+01  0.1446E+02  0.1446E+02
     14.077  0.1216E+01  0.1216E+01  0.1473E+02  0.1473E+02
     14.299  0.1030E+01  0.1030E+01  0.1496E+02  0.1496E+02
     14.520  0.8137E+00  0.8135E+00  0.1514E+02  0.1514E+02
     14.742  0.7465E+00  0.7465E+00  0.1531E+02  0.1531E+02
     14.963  0.6085E+00  0.6080E+00  0.1545E+02  0.1545E+02
     15.185  0.4749E+00  0.4754E+00  0.1555E+02  0.1555E+02
     15.406  0.7958E+00  0.7958E+00  0.1573E+02  0.1573E+02
     15.628  0.5509E+00  0.5505E+00  0.1585E+02  0.1585E+02
     15.849  0.3545E+00  0.3546E+00  0.1593E+02  0.1593E+02
     16.071  0.5683E+00  0.5685E+00  0.1606E+02  0.1606E+02
     16.292  0.5579E+00  0.5580E+00  0.1618E+02  0.1618E+02
     16.513  0.6560E+00  0.6558E+00  0.1633E+02  0.1633E+02
     16.735  0.5263E+00  0.5262E+00  0.1645E+02  0.1645E+02
     16.956  0.5654E+00  0.5657E+00  0.1657E+02  0.1657E+02
     17.178  0.7545E+00  0.7547E+00  0.1674E+02  0.1674E+02
     17.399  0.8720E+00  0.8721E+00  0.1693E+02  0.1693E+02
     17.621  0.1119E+01  0.1119E+01  0.1718E+02  0.1718E+02
     17.842  0.1101E+01  0.1101E+01  0.1743E+02  0.1743E+02
     18.064  0.1202E+01  0.1201E+01  0.1769E+02  0.1769E+02
     18.285  0.1006E+01  0.1006E+01  0.1792E+02  0.1792E+02
     18.507  0.1511E+01  0.1511E+01  0.1826E+02  0.1826E+02
     18.728  0.1077E+01  0.1077E+01  0.1850E+02  0.1850E+02
     18.950  0.8854E+00  0.8852E+00  0.1869E+02  0.1869E+02
     19.171  0.4771E+00  0.4758E+00  0.1880E+02  0.1880E+02
     19.393  0.3126E+00  0.3129E+00  0.1887E+02  0.1887E+02
     19.614  0.5169E+00  0.5169E+00  0.1899E+02  0.1899E+02
     19.836  0.4556E+00  0.4553E+00  0.1909E+02  0.1909E+02
     20.057  0.2730E+00  0.2730E+00  0.1915E+02  0.1915E+02
     20.279  0.3078E+00  0.3077E+00  0.1922E+02  0.1922E+02
     20.500  0.3629E+00  0.3633E+00  0.1930E+02  0.1930E+02
     20.722  0.3276E+00  0.3332E+00  0.1937E+02  0.1937E+02
     20.943  0.4502E+00  0.4452E+00  0.1947E+02  0.1947E+02
     21.165  0.4771E+00  0.4776E+00  0.1958E+02  0.1958E+02
     21.386  0.4436E+00  0.4412E+00  0.1967E+02  0.1967E+02
     21.608  0.3469E+00  0.3442E+00  0.1975E+02  0.1975E+02
     21.829  0.2755E+00  0.2767E+00  0.1981E+02  0.1981E+02
     22.051  0.1693E+00  0.1699E+00  0.1985E+02  0.1985E+02
     22.272  0.1197E+00  0.1192E+00  0.1988E+02  0.1988E+02
     22.494  0.1149E+00  0.1142E+00  0.1990E+02  0.1990E+02
     22.715  0.1340E+00  0.1382E+00  0.1993E+02  0.1993E+02
     22.937  0.1336E+00  0.1248E+00  0.1996E+02  0.1996E+02
     23.158  0.3775E-01  0.2406E-01  0.1997E+02  0.1997E+02
     23.380  0.3740E-01  0.4404E-01  0.1998E+02  0.1998E+02
     23.601  0.1678E-01  0.5957E-01  0.1998E+02  0.1999E+02
     23.823  0.2339E-01  0.3321E-01  0.1999E+02  0.2000E+02
     24.044  0.4492E-01  0.6225E-02  0.2000E+02  0.2000E+02
     24.266  0.1980E-02  0.0000E+00  0.2000E+02  0.2000E+02
     24.487  0.0000E+00  0.0000E+00  0.2000E+02  0.2000E+02
     24.709  0.0000E+00  0.0000E+00  0.2000E+02  0.2000E+02
     24.930  0.0000E+00  0.0000E+00  0.2000E+02  0.2000E+02
     25.152  0.0000E+00  0.0000E+00  0.2000E+02  0.2000E+02
     25.373  0.0000E+00  0.0000E+00  0.2000E+02  0.2000E+02
     25.595  0.0000E+00  0.0000E+00  0.2000E+02  0.2000E+02
     25.816  0.0000E+00  0.0000E+00  0.2000E+02  0.2000E+02
     26.038  0.0000E+00  0.0000E+00  0.2000E+02  0.2000E+02
     26.259  0.0000E+00  0.0000E+00  0.2000E+02  0.2000E+02
     26.480  0.0000E+00  0.0000E+00  0.2000E+02  0.2000E+02
     26.702  0.0000E+00  0.0000E+00  0.2000E+02  0.2000E+02
     26.923  0.0000E+00  0.0000E+00  0.2000E+02  0.2000E+02
     26.92347304    -39.52317192  301     12.02116687      1.00000000
    -39.523  0.0000E+00  0.0000E+00  0.0000E+00  0.0000E+00  0.0000E+00  0.0000E+00  0.0000E+00  0.0000E+00  0.0000E+00  0.0000E+00  0.0000E+00  0.0000E+00  0.0000E+00  0.0000E+00  0.0000E+00  0.0000E+00  0.0000E+00  0.0000E+00
    -39.302  0.0000E+00  0.0000E+00  0.0000E+00  0.0000E+00  0.0000E+00  0.0000E+00  0.0000E+00  0.0000E+00  0.0000E+00  0.0000E+00  0.0000E+00  0.0000E+00  0.0000E+00  0.0000E+00  0.0000E+00  0.0000E+00  0.0000E+00  0.0000E+00
    -39.080  0.0000E+00  0.0000E+00  0.0000E+00  0.0000E+00  0.0000E+00  0.0000E+00  0.0000E+00  0.0000E+00  0.0000E+00  0.0000E+00  0.0000E+00  0.0000E+00  0.0000E+00  0.0000E+00  0.0000E+00  0.0000E+00  0.0000E+00  0.0000E+00
    -38.859  0.0000E+00  0.0000E+00  0.0000E+00  0.0000E+00  0.0000E+00  0.0000E+00  0.0000E+00  0.0000E+00  0.0000E+00  0.0000E+00  0.0000E+00  0.0000E+00  0.0000E+00  0.0000E+00  0.0000E+00  0.0000E+00  0.0000E+00  0.0000E+00
    -38.637  0.0000E+00  0.0000E+00  0.0000E+00  0.0000E+00  0.0000E+00  0.0000E+00  0.0000E+00  0.0000E+00  0.0000E+00  0.0000E+00  0.0000E+00  0.0000E+00  0.0000E+00  0.0000E+00  0.0000E+00  0.0000E+00  0.0000E+00  0.0000E+00
    -38.416  0.0000E+00  0.0000E+00  0.0000E+00  0.0000E+00  0.0000E+00  0.0000E+00  0.0000E+00  0.0000E+00  0.0000E+00  0.0000E+00  0.0000E+00  0.0000E+00  0.0000E+00  0.0000E+00  0.0000E+00  0.0000E+00  0.0000E+00  0.0000E+00
    -38.194  0.0000E+00  0.0000E+00  0.0000E+00  0.0000E+00  0.0000E+00  0.0000E+00  0.0000E+00  0.0000E+00  0.0000E+00  0.0000E+00  0.0000E+00  0.0000E+00  0.0000E+00  0.0000E+00  0.0000E+00  0.0000E+00  0.0000E+00  0.0000E+00
    -37.973  0.0000E+00  0.0000E+00  0.0000E+00  0.0000E+00  0.0000E+00  0.0000E+00  0.0000E+00  0.0000E+00  0.0000E+00  0.0000E+00  0.0000E+00  0.0000E+00  0.0000E+00  0.0000E+00  0.0000E+00  0.0000E+00  0.0000E+00  0.0000E+00
    -37.751  0.0000E+00  0.0000E+00  0.0000E+00  0.0000E+00  0.0000E+00  0.0000E+00  0.0000E+00  0.0000E+00  0.0000E+00  0.0000E+00  0.0000E+00  0.0000E+00  0.0000E+00  0.0000E+00  0.0000E+00  0.0000E+00  0.0000E+00  0.0000E+00
    -37.530  0.0000E+00  0.0000E+00  0.0000E+00  0.0000E+00  0.0000E+00  0.0000E+00  0.0000E+00  0.0000E+00  0.0000E+00  0.0000E+00  0.0000E+00  0.0000E+00  0.0000E+00  0.0000E+00  0.0000E+00  0.0000E+00  0.0000E+00  0.0000E+00
    -37.308  0.0000E+00  0.0000E+00  0.0000E+00  0.0000E+00  0.0000E+00  0.0000E+00  0.0000E+00  0.0000E+00  0.0000E+00  0.0000E+00  0.0000E+00  0.0000E+00  0.0000E+00  0.0000E+00  0.0000E+00  0.0000E+00  0.0000E+00  0.0000E+00
    -37.087  0.1662E-06  0.1665E-06  0.2627E-11  0.2633E-11  0.2804E-11  0.2809E-11  0.2627E-11  0.2633E-11  0.6688E-13  0.6680E-13  0.2732E-13  0.2738E-13  0.3676E-12  0.3679E-12  0.2732E-13  0.2738E-13  0.6688E-13  0.6680E-13
    -36.865  0.4359E-04  0.4367E-04  0.1918E-08  0.1922E-08  0.2112E-08  0.2116E-08  0.1918E-08  0.1922E-08  0.1401E-09  0.1404E-09  0.8227E-10  0.8246E-10  0.2254E-09  0.2258E-09  0.8227E-10  0.8246E-10  0.1401E-09  0.1404E-09
    -36.644  0.3705E-02  0.3711E-02  0.1667E-06  0.1671E-06  0.1830E-06  0.1834E-06  0.1667E-06  0.1671E-06  0.1497E-07  0.1500E-07  0.9229E-08  0.9248E-08  0.2282E-07  0.2287E-07  0.9229E-08  0.9248E-08  0.1497E-07  0.1500E-07
    -36.422  0.1556E+00  0.1558E+00  0.8692E-05  0.8707E-05  0.9576E-05  0.9591E-05  0.8692E-05  0.8707E-05  0.9725E-06  0.9741E-06  0.6283E-06  0.6294E-06  0.1346E-05  0.1348E-05  0.6283E-06  0.6294E-06  0.9725E-06  0.9741E-06
    -36.201  0.1055E+01  0.1056E+01  0.6658E-04  0.6664E-04  0.7549E-04  0.7556E-04  0.6658E-04  0.6664E-04  0.1877E-04  0.1879E-04  0.1412E-04  0.1413E-04  0.2403E-04  0.2405E-04  0.1412E-04  0.1413E-04  0.1877E-04  0.1879E-04
    -35.979  0.2701E+01  0.2701E+01  0.7820E-04  0.7823E-04  0.9815E-04  0.9815E-04  0.7820E-04  0.7823E-04  0.5547E-04  0.5541E-04  0.5965E-04  0.5961E-04  0.7535E-04  0.7526E-04  0.5965E-04  0.5961E-04  0.5547E-04  0.5541E-04
    -35.758  0.5429E+00  0.5422E+00  0.8184E-05  0.8183E-05  0.9705E-05  0.9690E-05  0.8184E-05  0.8183E-05  0.8428E-05  0.8406E-05  0.1078E-04  0.1076E-04  0.1013E-04  0.1010E-04  0.1078E-04  0.1076E-04  0.8428E-05  0.8406E-05
    -35.536  0.0000E+00  0.0000E+00  0.0000E+00  0.0000E+00  0.0000E+00  0.0000E+00  0.0000E+00  0.0000E+00  0.0000E+00  0.0000E+00  0.0000E+00  0.0000E+00  0.0000E+00  0.0000E+00  0.0000E+00  0.0000E+00  0.0000E+00  0.0000E+00
    -35.315  0.0000E+00  0.0000E+00  0.0000E+00  0.0000E+00  0.0000E+00  0.0000E+00  0.0000E+00  0.0000E+00  0.0000E+00  0.0000E+00  0.0000E+00  0.0000E+00  0.0000E+00  0.0000E+00  0.0000E+00  0.0000E+00  0.0000E+00  0.0000E+00
    -35.093  0.0000E+00  0.0000E+00  0.0000E+00  0.0000E+00  0.0000E+00  0.0000E+00  0.0000E+00  0.0000E+00  0.0000E+00  0.0000E+00  0.0000E+00  0.0000E+00  0.0000E+00  0.0000E+00  0.0000E+00  0.0000E+00  0.0000E+00  0.0000E+00
    -34.872  0.0000E+00  0.0000E+00  0.0000E+00  0.0000E+00  0.0000E+00  0.0000E+00  0.0000E+00  0.0000E+00  0.0000E+00  0.0000E+00  0.0000E+00  0.0000E+00  0.0000E+00  0.0000E+00  0.0000E+00  0.0000E+00  0.0000E+00  0.0000E+00
    -34.650  0.0000E+00  0.0000E+00  0.0000E+00  0.0000E+00  0.0000E+00  0.0000E+00  0.0000E+00  0.0000E+00  0.0000E+00  0.0000E+00  0.0000E+00  0.0000E+00  0.0000E+00  0.0000E+00  0.0000E+00  0.0000E+00  0.0000E+00  0.0000E+00
    -34.429  0.0000E+00  0.0000E+00  0.0000E+00  0.0000E+00  0.0000E+00  0.0000E+00  0.0000E+00  0.0000E+00  0.0000E+00  0.0000E+00  0.0000E+00  0.0000E+00  0.0000E+00  0.0000E+00  0.0000E+00  0.0000E+00  0.0000E+00  0.0000E+00
    -34.207  0.0000E+00  0.0000E+00  0.0000E+00  0.0000E+00  0.0000E+00  0.0000E+00  0.0000E+00  0.0000E+00  0.0000E+00  0.0000E+00  0.0000E+00  0.0000E+00  0.0000E+00  0.0000E+00  0.0000E+00  0.0000E+00  0.0000E+00  0.0000E+00
    -33.986  0.0000E+00  0.0000E+00  0.0000E+00  0.0000E+00  0.0000E+00  0.0000E+00  0.0000E+00  0.0000E+00  0.0000E+00  0.0000E+00  0.0000E+00  0.0000E+00  0.0000E+00  0.0000E+00  0.0000E+00  0.0000E+00  0.0000E+00  0.0000E+00
    -33.764  0.0000E+00  0.0000E+00  0.0000E+00  0.0000E+00  0.0000E+00  0.0000E+00  0.0000E+00  0.0000E+00  0.0000E+00  0.0000E+00  0.0000E+00  0.0000E+00  0.0000E+00  0.0000E+00  0.0000E+00  0.0000E+00  0.0000E+00  0.0000E+00
    -33.543  0.0000E+00  0.0000E+00  0.0000E+00  0.0000E+00  0.0000E+00  0.0000E+00  0.0000E+00  0.0000E+00  0.0000E+00  0.0000E+00  0.0000E+00  0.0000E+00  0.0000E+00  0.0000E+00  0.0000E+00  0.0000E+00  0.0000E+00  0.0000E+00
    -33.321  0.0000E+00  0.0000E+00  0.0000E+00  0.0000E+00  0.0000E+00  0.0000E+00  0.0000E+00  0.0000E+00  0.0000E+00  0.0000E+00  0.0000E+00  0.0000E+00  0.0000E+00  0.0000E+00  0.0000E+00  0.0000E+00  0.0000E+00  0.0000E+00
    -33.100  0.0000E+00  0.0000E+00  0.0000E+00  0.0000E+00  0.0000E+00  0.0000E+00  0.0000E+00  0.0000E+00  0.0000E+00  0.0000E+00  0.0000E+00  0.0000E+00  0.0000E+00  0.0000E+00  0.0000E+00  0.0000E+00  0.0000E+00  0.0000E+00
    -32.879  0.0000E+00  0.0000E+00  0.0000E+00  0.0000E+00  0.0000E+00  0.0000E+00  0.0000E+00  0.0000E+00  0.0000E+00  0.0000E+00  0.0000E+00  0.0000E+00  0.0000E+00  0.0000E+00  0.0000E+00  0.0000E+00  0.0000E+00  0.0000E+00
    -32.657  0.0000E+00  0.0000E+00  0.0000E+00  0.0000E+00  0.0000E+00  0.0000E+00  0.0000E+00  0.0000E+00  0.0000E+00  0.0000E+00  0.0000E+00  0.0000E+00  0.0000E+00  0.0000E+00  0.0000E+00  0.0000E+00  0.0000E+00  0.0000E+00
    -32.436  0.0000E+00  0.0000E+00  0.0000E+00  0.0000E+00  0.0000E+00  0.0000E+00  0.0000E+00  0.0000E+00  0.0000E+00  0.0000E+00  0.0000E+00  0.0000E+00  0.0000E+00  0.0000E+00  0.0000E+00  0.0000E+00  0.0000E+00  0.0000E+00
    -32.214  0.0000E+00  0.0000E+00  0.0000E+00  0.0000E+00  0.0000E+00  0.0000E+00  0.0000E+00  0.0000E+00  0.0000E+00  0.0000E+00  0.0000E+00  0.0000E+00  0.0000E+00  0.0000E+00  0.0000E+00  0.0000E+00  0.0000E+00  0.0000E+00
    -31.993  0.0000E+00  0.0000E+00  0.0000E+00  0.0000E+00  0.0000E+00  0.0000E+00  0.0000E+00  0.0000E+00  0.0000E+00  0.0000E+00  0.0000E+00  0.0000E+00  0.0000E+00  0.0000E+00  0.0000E+00  0.0000E+00  0.0000E+00  0.0000E+00
    -31.771  0.0000E+00  0.0000E+00  0.0000E+00  0.0000E+00  0.0000E+00  0.0000E+00  0.0000E+00  0.0000E+00  0.0000E+00  0.0000E+00  0.0000E+00  0.0000E+00  0.0000E+00  0.0000E+00  0.0000E+00  0.0000E+00  0.0000E+00  0.0000E+00
    -31.550  0.0000E+00  0.0000E+00  0.0000E+00  0.0000E+00  0.0000E+00  0.0000E+00  0.0000E+00  0.0000E+00  0.0000E+00  0.0000E+00  0.0000E+00  0.0000E+00  0.0000E+00  0.0000E+00  0.0000E+00  0.0000E+00  0.0000E+00  0.0000E+00
    -31.328  0.0000E+00  0.0000E+00  0.0000E+00  0.0000E+00  0.0000E+00  0.0000E+00  0.0000E+00  0.0000E+00  0.0000E+00  0.0000E+00  0.0000E+00  0.0000E+00  0.0000E+00  0.0000E+00  0.0000E+00  0.0000E+00  0.0000E+00  0.0000E+00
    -31.107  0.0000E+00  0.0000E+00  0.0000E+00  0.0000E+00  0.0000E+00  0.0000E+00  0.0000E+00  0.0000E+00  0.0000E+00  0.0000E+00  0.0000E+00  0.0000E+00  0.0000E+00  0.0000E+00  0.0000E+00  0.0000E+00  0.0000E+00  0.0000E+00
    -30.885  0.0000E+00  0.0000E+00  0.0000E+00  0.0000E+00  0.0000E+00  0.0000E+00  0.0000E+00  0.0000E+00  0.0000E+00  0.0000E+00  0.0000E+00  0.0000E+00  0.0000E+00  0.0000E+00  0.0000E+00  0.0000E+00  0.0000E+00  0.0000E+00
    -30.664  0.0000E+00  0.0000E+00  0.0000E+00  0.0000E+00  0.0000E+00  0.0000E+00  0.0000E+00  0.0000E+00  0.0000E+00  0.0000E+00  0.0000E+00  0.0000E+00  0.0000E+00  0.0000E+00  0.0000E+00  0.0000E+00  0.0000E+00  0.0000E+00
    -30.442  0.0000E+00  0.0000E+00  0.0000E+00  0.0000E+00  0.0000E+00  0.0000E+00  0.0000E+00  0.0000E+00  0.0000E+00  0.0000E+00  0.0000E+00  0.0000E+00  0.0000E+00  0.0000E+00  0.0000E+00  0.0000E+00  0.0000E+00  0.0000E+00
    -30.221  0.0000E+00  0.0000E+00  0.0000E+00  0.0000E+00  0.0000E+00  0.0000E+00  0.0000E+00  0.0000E+00  0.0000E+00  0.0000E+00  0.0000E+00  0.0000E+00  0.0000E+00  0.0000E+00  0.0000E+00  0.0000E+00  0.0000E+00  0.0000E+00
    -29.999  0.0000E+00  0.0000E+00  0.0000E+00  0.0000E+00  0.0000E+00  0.0000E+00  0.0000E+00  0.0000E+00  0.0000E+00  0.0000E+00  0.0000E+00  0.0000E+00  0.0000E+00  0.0000E+00  0.0000E+00  0.0000E+00  0.0000E+00  0.0000E+00
    -29.778  0.0000E+00  0.0000E+00  0.0000E+00  0.0000E+00  0.0000E+00  0.0000E+00  0.0000E+00  0.0000E+00  0.0000E+00  0.0000E+00  0.0000E+00  0.0000E+00  0.0000E+00  0.0000E+00  0.0000E+00  0.0000E+00  0.0000E+00  0.0000E+00
    -29.556  0.0000E+00  0.0000E+00  0.0000E+00  0.0000E+00  0.0000E+00  0.0000E+00  0.0000E+00  0.0000E+00  0.0000E+00  0.0000E+00  0.0000E+00  0.0000E+00  0.0000E+00  0.0000E+00  0.0000E+00  0.0000E+00  0.0000E+00  0.0000E+00
    -29.335  0.0000E+00  0.0000E+00  0.0000E+00  0.0000E+00  0.0000E+00  0.0000E+00  0.0000E+00  0.0000E+00  0.0000E+00  0.0000E+00  0.0000E+00  0.0000E+00  0.0000E+00  0.0000E+00  0.0000E+00  0.0000E+00  0.0000E+00  0.0000E+00
    -29.113  0.0000E+00  0.0000E+00  0.0000E+00  0.0000E+00  0.0000E+00  0.0000E+00  0.0000E+00  0.0000E+00  0.0000E+00  0.0000E+00  0.0000E+00  0.0000E+00  0.0000E+00  0.0000E+00  0.0000E+00  0.0000E+00  0.0000E+00  0.0000E+00
    -28.892  0.0000E+00  0.0000E+00  0.0000E+00  0.0000E+00  0.0000E+00  0.0000E+00  0.0000E+00  0.0000E+00  0.0000E+00  0.0000E+00  0.0000E+00  0.0000E+00  0.0000E+00  0.0000E+00  0.0000E+00  0.0000E+00  0.0000E+00  0.0000E+00
    -28.670  0.0000E+00  0.0000E+00  0.0000E+00  0.0000E+00  0.0000E+00  0.0000E+00  0.0000E+00  0.0000E+00  0.0000E+00  0.0000E+00  0.0000E+00  0.0000E+00  0.0000E+00  0.0000E+00  0.0000E+00  0.0000E+00  0.0000E+00  0.0000E+00
    -28.449  0.0000E+00  0.0000E+00  0.0000E+00  0.0000E+00  0.0000E+00  0.0000E+00  0.0000E+00  0.0000E+00  0.0000E+00  0.0000E+00  0.0000E+00  0.0000E+00  0.0000E+00  0.0000E+00  0.0000E+00  0.0000E+00  0.0000E+00  0.0000E+00