   2   2   1   0
  0.1703871E+02  0.2905975E-09  0.2905974E-09  0.4659640E-09  0.5000000E-15
  1.000000000000000E-004
  CAR 
 unknown system                          
     29.00714708    -38.66307040  301     12.93575723      1.00000000
    -38.663  0.0000E+00  0.0000E+00  0.0000E+00  0.0000E+00
    -38.438  0.0000E+00  0.0000E+00  0.0000E+00  0.0000E+00
    -38.212  0.0000E+00  0.0000E+00  0.0000E+00  0.0000E+00
    -37.986  0.0000E+00  0.0000E+00  0.0000E+00  0.0000E+00
    -37.761  0.0000E+00  0.0000E+00  0.0000E+00  0.0000E+00
    -37.535  0.0000E+00  0.0000E+00  0.0000E+00  0.0000E+00
    -37.310  0.0000E+00  0.0000E+00  0.0000E+00  0.0000E+00
    -37.084  0.0000E+00  0.0000E+00  0.0000E+00  0.0000E+00
    -36.859  0.0000E+00  0.0000E+00  0.0000E+00  0.0000E+00
    -36.633  0.0000E+00  0.0000E+00  0.0000E+00  0.0000E+00
    -36.407  0.0000E+00  0.0000E+00  0.0000E+00  0.0000E+00
    -36.182  0.1248E-06  0.1255E-06  0.2815E-07  0.2832E-07
    -35.956  0.5093E-04  0.5123E-04  0.1152E-04  0.1158E-04
    -35.731  0.4649E-02  0.4676E-02  0.1060E-02  0.1066E-02
    -35.505  0.2039E+00  0.2046E+00  0.4705E-01  0.4721E-01
    -35.280  0.1177E+01  0.1179E+01  0.3125E+00  0.3131E+00
    -35.054  0.3733E+01  0.3738E+01  0.1155E+01  0.1157E+01
    -34.828  0.3557E+01  0.3551E+01  0.1960E+01  0.1961E+01
    -34.603  0.1312E+00  0.1305E+00  0.2000E+01  0.2000E+01
    -34.377  0.0000E+00  0.0000E+00  0.2000E+01  0.2000E+01
    -34.152  0.0000E+00  0.0000E+00  0.2000E+01  0.2000E+01
    -33.926  0.0000E+00  0.0000E+00  0.2000E+01  0.2000E+01
    -33.701  0.0000E+00  0.0000E+00  0.2000E+01  0.2000E+01
    -33.475  0.0000E+00  0.0000E+00  0.2000E+01  0.2000E+01
    -33.249  0.0000E+00  0.0000E+00  0.2000E+01  0.2000E+01
    -33.024  0.0000E+00  0.0000E+00  0.2000E+01  0.2000E+01
    -32.798  0.0000E+00  0.0000E+00  0.2000E+01  0.2000E+01
    -32.573  0.0000E+00  0.0000E+00  0.2000E+01  0.2000E+01
    -32.347  0.0000E+00  0.0000E+00  0.2000E+01  0.2000E+01
    -32.122  0.0000E+00  0.0000E+00  0.2000E+01  0.2000E+01
    -31.896  0.0000E+00  0.0000E+00  0.2000E+01  0.2000E+01
    -31.670  0.0000E+00  0.0000E+00  0.2000E+01  0.2000E+01
    -31.445  0.0000E+00  0.0000E+00  0.2000E+01  0.2000E+01
    -31.219  0.0000E+00  0.0000E+00  0.2000E+01  0.2000E+01
    -30.994  0.0000E+00  0.0000E+00  0.2000E+01  0.2000E+01
    -30.768  0.0000E+00  0.0000E+00  0.2000E+01  0.2000E+01
    -30.543  0.0000E+00  0.0000E+00  0.2000E+01  0.2000E+01
    -30.317  0.0000E+00  0.0000E+00  0.2000E+01  0.2000E+01
    -30.092  0.0000E+00  0.0000E+00  0.2000E+01  0.2000E+01
    -29.866  0.0000E+00  0.0000E+00  0.2000E+01  0.2000E+01
    -29.640  0.0000E+00  0.0000E+00  0.2000E+01  0.2000E+01
    -29.415  0.0000E+00  0.0000E+00  0.2000E+01  0.2000E+01
    -29.189  0.0000E+00  0.0000E+00  0.2000E+01  0.2000E+01
    -28.964  0.0000E+00  0.0000E+00  0.2000E+01  0.2000E+01
    -28.738  0.0000E+00  0.0000E+00  0.2000E+01  0.2000E+01
    -28.513  0.0000E+00  0.0000E+00  0.2000E+01  0.2000E+01
    -28.287  0.0000E+00  0.0000E+00  0.2000E+01  0.2000E+01
    -28.061  0.0000E+00  0.0000E+00  0.2000E+01  0.2000E+01
    -27.836  0.0000E+00  0.0000E+00  0.2000E+01  0.2000E+01
    -27.610  0.0000E+00  0.0000E+00  0.2000E+01  0.2000E+01
    -27.385  0.0000E+00  0.0000E+00  0.2000E+01  0.2000E+01
    -27.159  0.0000E+00  0.0000E+00  0.2000E+01  0.2000E+01
    -26.934  0.0000E+00  0.0000E+00  0.2000E+01  0.2000E+01
    -26.708  0.0000E+00  0.0000E+00  0.2000E+01  0.2000E+01
    -26.482  0.0000E+00  0.0000E+00  0.2000E+01  0.2000E+01
    -26.257  0.0000E+00  0.0000E+00  0.2000E+01  0.2000E+01
    -26.031  0.0000E+00  0.0000E+00  0.2000E+01  0.2000E+01
    -25.806  0.0000E+00  0.0000E+00  0.2000E+01  0.2000E+01
    -25.580  0.0000E+00  0.0000E+00  0.2000E+01  0.2000E+01
    -25.355  0.0000E+00  0.0000E+00  0.2000E+01  0.2000E+01
    -25.129  0.0000E+00  0.0000E+00  0.2000E+01  0.2000E+01
    -24.903  0.0000E+00  0.0000E+00  0.2000E+01  0.2000E+01
    -24.678  0.0000E+00  0.0000E+00  0.2000E+01  0.2000E+01
    -24.452  0.0000E+00  0.0000E+00  0.2000E+01  0.2000E+01
    -24.227  0.0000E+00  0.0000E+00  0.2000E+01  0.2000E+01
    -24.001  0.0000E+00  0.0000E+00  0.2000E+01  0.2000E+01
    -23.776  0.0000E+00  0.0000E+00  0.2000E+01  0.2000E+01
    -23.550  0.0000E+00  0.0000E+00  0.2000E+01  0.2000E+01
    -23.324  0.0000E+00  0.0000E+00  0.2000E+01  0.2000E+01
    -23.099  0.0000E+00  0.0000E+00  0.2000E+01  0.2000E+01
    -22.873  0.0000E+00  0.0000E+00  0.2000E+01  0.2000E+01
    -22.648  0.0000E+00  0.0000E+00  0.2000E+01  0.2000E+01
    -22.422  0.0000E+00  0.0000E+00  0.2000E+01  0.2000E+01
    -22.197  0.0000E+00  0.0000E+00  0.2000E+01  0.2000E+01
    -21.971  0.0000E+00  0.0000E+00  0.2000E+01  0.2000E+01
    -21.746  0.0000E+00  0.0000E+00  0.2000E+01  0.2000E+01
    -21.520  0.0000E+00  0.0000E+00  0.2000E+01  0.2000E+01
    -21.294  0.0000E+00  0.0000E+00  0.2000E+01  0.2000E+01
    -21.069  0.0000E+00  0.0000E+00  0.2000E+01  0.2000E+01
    -20.843  0.0000E+00  0.0000E+00  0.2000E+01  0.2000E+01
    -20.618  0.0000E+00  0.0000E+00  0.2000E+01  0.2000E+01
    -20.392  0.0000E+00  0.0000E+00  0.2000E+01  0.2000E+01
    -20.167  0.0000E+00  0.0000E+00  0.2000E+01  0.2000E+01
    -19.941  0.0000E+00  0.0000E+00  0.2000E+01  0.2000E+01
    -19.715  0.0000E+00  0.0000E+00  0.2000E+01  0.2000E+01
    -19.490  0.0000E+00  0.0000E+00  0.2000E+01  0.2000E+01
    -19.264  0.0000E+00  0.0000E+00  0.2000E+01  0.2000E+01
    -19.039  0.0000E+00  0.0000E+00  0.2000E+01  0.2000E+01
    -18.813  0.0000E+00  0.0000E+00  0.2000E+01  0.2000E+01
    -18.588  0.0000E+00  0.0000E+00  0.2000E+01  0.2000E+01
    -18.362  0.0000E+00  0.0000E+00  0.2000E+01  0.2000E+01
    -18.136  0.0000E+00  0.0000E+00  0.2000E+01  0.2000E+01
    -17.911  0.0000E+00  0.0000E+00  0.2000E+01  0.2000E+01
    -17.685  0.0000E+00  0.0000E+00  0.2000E+01  0.2000E+01
    -17.460  0.0000E+00  0.0000E+00  0.2000E+01  0.2000E+01
    -17.234  0.0000E+00  0.0000E+00  0.2000E+01  0.2000E+01
    -17.009  0.0000E+00  0.0000E+00  0.2000E+01  0.2000E+01
    -16.783  0.0000E+00  0.0000E+00  0.2000E+01  0.2000E+01
    -16.557  0.0000E+00  0.0000E+00  0.2000E+01  0.2000E+01
    -16.332  0.0000E+00  0.0000E+00  0.2000E+01  0.2000E+01
    -16.106  0.0000E+00  0.0000E+00  0.2000E+01  0.2000E+01
    -15.881  0.0000E+00  0.0000E+00  0.2000E+01  0.2000E+01
    -15.655  0.0000E+00  0.0000E+00  0.2000E+01  0.2000E+01
    -15.430  0.1787E-07  0.1797E-07  0.2000E+01  0.2000E+01
    -15.204  0.1416E-04  0.1423E-04  0.2000E+01  0.2000E+01
    -14.978  0.1406E-02  0.1413E-02  0.2000E+01  0.2000E+01
    -14.753  0.8021E-01  0.8046E-01  0.2018E+01  0.2018E+01
    -14.527  0.9157E+00  0.9169E+00  0.2225E+01  0.2225E+01
    -14.302  0.2485E+01  0.2486E+01  0.2786E+01  0.2786E+01
    -14.076  0.2429E+01  0.2428E+01  0.3336E+01  0.3336E+01
    -13.851  0.1574E+01  0.1574E+01  0.3697E+01  0.3697E+01
    -13.625  0.1559E+01  0.1559E+01  0.4051E+01  0.4051E+01
    -13.400  0.1944E+01  0.1944E+01  0.4492E+01  0.4492E+01
    -13.174  0.2502E+01  0.2503E+01  0.5058E+01  0.5059E+01
    -12.948  0.3328E+01  0.3328E+01  0.5812E+01  0.5812E+01
    -12.723  0.4607E+01  0.4608E+01  0.6856E+01  0.6857E+01
    -12.497  0.3835E+01  0.3833E+01  0.7726E+01  0.7727E+01
    -12.272  0.1114E+01  0.1113E+01  0.7986E+01  0.7986E+01
    -12.046  0.4627E-01  0.4617E-01  0.8000E+01  0.8000E+01
    -11.821  0.0000E+00  0.0000E+00  0.8000E+01  0.8000E+01
    -11.595  0.0000E+00  0.0000E+00  0.8000E+01  0.8000E+01
    -11.369  0.0000E+00  0.0000E+00  0.8000E+01  0.8000E+01
    -11.144  0.0000E+00  0.0000E+00  0.8000E+01  0.8000E+01
    -10.918  0.0000E+00  0.0000E+00  0.8000E+01  0.8000E+01
    -10.693  0.0000E+00  0.0000E+00  0.8000E+01  0.8000E+01
    -10.467  0.0000E+00  0.0000E+00  0.8000E+01  0.8000E+01
    -10.242  0.0000E+00  0.0000E+00  0.8000E+01  0.8000E+01
    -10.016  0.0000E+00  0.0000E+00  0.8000E+01  0.8000E+01
     -9.790  0.0000E+00  0.0000E+00  0.8000E+01  0.8000E+01
     -9.565  0.0000E+00  0.0000E+00  0.8000E+01  0.8000E+01
     -9.339  0.0000E+00  0.0000E+00  0.8000E+01  0.8000E+01
     -9.114  0.0000E+00  0.0000E+00  0.8000E+01  0.8000E+01
     -8.888  0.0000E+00  0.0000E+00  0.8000E+01  0.8000E+01
     -8.663  0.0000E+00  0.0000E+00  0.8000E+01  0.8000E+01
     -8.437  0.0000E+00  0.0000E+00  0.8000E+01  0.8000E+01
     -8.211  0.0000E+00  0.0000E+00  0.8000E+01  0.8000E+01
     -7.986  0.0000E+00  0.0000E+00  0.8000E+01  0.8000E+01
     -7.760  0.0000E+00  0.0000E+00  0.8000E+01  0.8000E+01
     -7.535  0.0000E+00  0.0000E+00  0.8000E+01  0.8000E+01
     -7.309  0.0000E+00  0.0000E+00  0.8000E+01  0.8000E+01
     -7.084  0.0000E+00  0.0000E+00  0.8000E+01  0.8000E+01
     -6.858  0.0000E+00  0.0000E+00  0.8000E+01  0.8000E+01
     -6.633  0.0000E+00  0.0000E+00  0.8000E+01  0.8000E+01
     -6.407  0.0000E+00  0.0000E+00  0.8000E+01  0.8000E+01
     -6.181  0.0000E+00  0.0000E+00  0.8000E+01  0.8000E+01
     -5.956  0.0000E+00  0.0000E+00  0.8000E+01  0.8000E+01
     -5.730  0.0000E+00  0.0000E+00  0.8000E+01  0.8000E+01
     -5.505  0.0000E+00  0.0000E+00  0.8000E+01  0.8000E+01
     -5.279  0.0000E+00  0.0000E+00  0.8000E+01  0.8000E+01
     -5.054  0.0000E+00  0.0000E+00  0.8000E+01  0.8000E+01
     -4.828  0.0000E+00  0.0000E+00  0.8000E+01  0.8000E+01
     -4.602  0.0000E+00  0.0000E+00  0.8000E+01  0.8000E+01
     -4.377  0.0000E+00  0.0000E+00  0.8000E+01  0.8000E+01
     -4.151  0.0000E+00  0.0000E+00  0.8000E+01  0.8000E+01
     -3.926  0.0000E+00  0.0000E+00  0.8000E+01  0.8000E+01
     -3.700  0.0000E+00  0.0000E+00  0.8000E+01  0.8000E+01
     -3.475  0.0000E+00  0.0000E+00  0.8000E+01  0.8000E+01
     -3.249  0.0000E+00  0.0000E+00  0.8000E+01  0.8000E+01
     -3.023  0.0000E+00  0.0000E+00  0.8000E+01  0.8000E+01
     -2.798  0.0000E+00  0.0000E+00  0.8000E+01  0.8000E+01
     -2.572  0.0000E+00  0.0000E+00  0.8000E+01  0.8000E+01
     -2.347  0.0000E+00  0.0000E+00  0.8000E+01  0.8000E+01
     -2.121  0.0000E+00  0.0000E+00  0.8000E+01  0.8000E+01
     -1.896  0.0000E+00  0.0000E+00  0.8000E+01  0.8000E+01
     -1.670  0.0000E+00  0.0000E+00  0.8000E+01  0.8000E+01
     -1.444  0.0000E+00  0.0000E+00  0.8000E+01  0.8000E+01
     -1.219  0.0000E+00  0.0000E+00  0.8000E+01  0.8000E+01
     -0.993  0.0000E+00  0.0000E+00  0.8000E+01  0.8000E+01
     -0.768  0.0000E+00  0.0000E+00  0.8000E+01  0.8000E+01
     -0.542  0.0000E+00  0.0000E+00  0.8000E+01  0.8000E+01
     -0.317  0.0000E+00  0.0000E+00  0.8000E+01  0.8000E+01
     -0.091  0.0000E+00  0.0000E+00  0.8000E+01  0.8000E+01
      0.135  0.0000E+00  0.0000E+00  0.8000E+01  0.8000E+01
      0.360  0.0000E+00  0.0000E+00  0.8000E+01  0.8000E+01
      0.586  0.0000E+00  0.0000E+00  0.8000E+01  0.8000E+01
      0.811  0.0000E+00  0.0000E+00  0.8000E+01  0.8000E+01
      1.037  0.0000E+00  0.0000E+00  0.8000E+01  0.8000E+01
      1.262  0.0000E+00  0.0000E+00  0.8000E+01  0.8000E+01
      1.488  0.0000E+00  0.0000E+00  0.8000E+01  0.8000E+01
      1.713  0.0000E+00  0.0000E+00  0.8000E+01  0.8000E+01
      1.939  0.0000E+00  0.0000E+00  0.8000E+01  0.8000E+01
      2.165  0.0000E+00  0.0000E+00  0.8000E+01  0.8000E+01
      2.390  0.0000E+00  0.0000E+00  0.8000E+01  0.8000E+01
      2.616  0.0000E+00  0.0000E+00  0.8000E+01  0.8000E+01
      2.841  0.0000E+00  0.0000E+00  0.8000E+01  0.8000E+01
      3.067  0.0000E+00  0.0000E+00  0.8000E+01  0.8000E+01
      3.292  0.0000E+00  0.0000E+00  0.8000E+01  0.8000E+01
      3.518  0.0000E+00  0.0000E+00  0.8000E+01  0.8000E+01
      3.744  0.0000E+00  0.0000E+00  0.8000E+01  0.8000E+01
      3.969  0.0000E+00  0.0000E+00  0.8000E+01  0.8000E+01
      4.195  0.0000E+00  0.0000E+00  0.8000E+01  0.8000E+01
      4.420  0.0000E+00  0.0000E+00  0.8000E+01  0.8000E+01
      4.646  0.0000E+00  0.0000E+00  0.8000E+01  0.8000E+01
      4.871  0.0000E+00  0.0000E+00  0.8000E+01  0.8000E+01
      5.097  0.0000E+00  0.0000E+00  0.8000E+01  0.8000E+01
      5.323  0.0000E+00  0.0000E+00  0.8000E+01  0.8000E+01
      5.548  0.0000E+00  0.0000E+00  0.8000E+01  0.8000E+01
      5.774  0.0000E+00  0.0000E+00  0.8000E+01  0.8000E+01
      5.999  0.0000E+00  0.0000E+00  0.8000E+01  0.8000E+01
      6.225  0.0000E+00  0.0000E+00  0.8000E+01  0.8000E+01
      6.450  0.1700E-07  0.1751E-07  0.8000E+01  0.8000E+01
      6.676  0.1753E-05  0.1805E-05  0.8000E+01  0.8000E+01
      6.902  0.1536E-03  0.1580E-03  0.8000E+01  0.8000E+01
      7.127  0.3882E-02  0.3933E-02  0.8001E+01  0.8001E+01
      7.353  0.2250E-01  0.2267E-01  0.8006E+01  0.8006E+01
      7.578  0.3481E-01  0.3470E-01  0.8014E+01  0.8014E+01
      7.804  0.3447E-01  0.3482E-01  0.8022E+01  0.8022E+01
      8.029  0.7843E-01  0.7833E-01  0.8039E+01  0.8039E+01
      8.255  0.5314E-01  0.5317E-01  0.8052E+01  0.8052E+01
      8.481  0.7924E-01  0.7950E-01  0.8069E+01  0.8070E+01
      8.706  0.1235E+00  0.1237E+00  0.8097E+01  0.8098E+01
      8.932  0.3295E+00  0.3310E+00  0.8172E+01  0.8172E+01
      9.157  0.5600E+00  0.5600E+00  0.8298E+01  0.8299E+01
      9.383  0.1047E+01  0.1050E+01  0.8535E+01  0.8537E+01
      9.608  0.1292E+01  0.1290E+01  0.8827E+01  0.8828E+01
      9.834  0.1133E+01  0.1134E+01  0.9085E+01  0.9086E+01
     10.059  0.1236E+01  0.1236E+01  0.9365E+01  0.9366E+01
     10.285  0.1116E+01  0.1115E+01  0.9619E+01  0.9620E+01
     10.511  0.6787E+00  0.6779E+00  0.9775E+01  0.9775E+01
     10.736  0.7779E+00  0.7787E+00  0.9951E+01  0.9952E+01
     10.962  0.8356E+00  0.8359E+00  0.1014E+02  0.1014E+02
     11.187  0.1080E+01  0.1081E+01  0.1039E+02  0.1039E+02
     11.413  0.1213E+01  0.1214E+01  0.1066E+02  0.1066E+02
     11.638  0.1061E+01  0.1060E+01  0.1090E+02  0.1090E+02
     11.864  0.1045E+01  0.1046E+01  0.1114E+02  0.1114E+02
     12.090  0.1155E+01  0.1155E+01  0.1140E+02  0.1140E+02
     12.315  0.8721E+00  0.8718E+00  0.1160E+02  0.1160E+02
     12.541  0.7229E+00  0.7220E+00  0.1176E+02  0.1176E+02
     12.766  0.5470E+00  0.5467E+00  0.1189E+02  0.1189E+02
     12.992  0.7425E+00  0.7442E+00  0.1206E+02  0.1206E+02
     13.217  0.1309E+01  0.1309E+01  0.1235E+02  0.1235E+02
     13.443  0.1235E+01  0.1235E+01  0.1263E+02  0.1263E+02
     13.669  0.1198E+01  0.1198E+01  0.1290E+02  0.1291E+02
     13.894  0.1124E+01  0.1123E+01  0.1316E+02  0.1316E+02
     14.120  0.1037E+01  0.1038E+01  0.1340E+02  0.1340E+02
     14.345  0.1373E+01  0.1373E+01  0.1371E+02  0.1371E+02
     14.571  0.1313E+01  0.1312E+01  0.1401E+02  0.1401E+02
     14.796  0.1205E+01  0.1205E+01  0.1428E+02  0.1428E+02
     15.022  0.1392E+01  0.1392E+01  0.1460E+02  0.1460E+02
     15.248  0.1048E+01  0.1048E+01  0.1483E+02  0.1483E+02
     15.473  0.8842E+00  0.8836E+00  0.1503E+02  0.1504E+02
     15.699  0.7533E+00  0.7535E+00  0.1521E+02  0.1521E+02
     15.924  0.7088E+00  0.7083E+00  0.1537E+02  0.1537E+02
     16.150  0.4639E+00  0.4638E+00  0.1547E+02  0.1547E+02
     16.375  0.6215E+00  0.6221E+00  0.1561E+02  0.1561E+02
     16.601  0.7390E+00  0.7385E+00  0.1578E+02  0.1578E+02
     16.827  0.4105E+00  0.4100E+00  0.1587E+02  0.1587E+02
     17.052  0.3923E+00  0.3927E+00  0.1596E+02  0.1596E+02
     17.278  0.5322E+00  0.5324E+00  0.1608E+02  0.1608E+02
     17.503  0.5350E+00  0.5354E+00  0.1621E+02  0.1621E+02
     17.729  0.6084E+00  0.6080E+00  0.1634E+02  0.1634E+02
     17.954  0.4712E+00  0.4710E+00  0.1645E+02  0.1645E+02
     18.180  0.5117E+00  0.5122E+00  0.1657E+02  0.1657E+02
     18.405  0.6873E+00  0.6875E+00  0.1672E+02  0.1672E+02
     18.631  0.7971E+00  0.7972E+00  0.1690E+02  0.1690E+02
     18.857  0.9593E+00  0.9599E+00  0.1712E+02  0.1712E+02
     19.082  0.9834E+00  0.9832E+00  0.1734E+02  0.1734E+02
     19.308  0.1179E+01  0.1179E+01  0.1761E+02  0.1761E+02
     19.533  0.9062E+00  0.9058E+00  0.1782E+02  0.1782E+02
     19.759  0.1173E+01  0.1174E+01  0.1808E+02  0.1808E+02
     19.984  0.1248E+01  0.1247E+01  0.1837E+02  0.1837E+02
     20.210  0.8814E+00  0.8815E+00  0.1857E+02  0.1857E+02
     20.436  0.7067E+00  0.7062E+00  0.1873E+02  0.1873E+02
     20.661  0.3485E+00  0.3481E+00  0.1881E+02  0.1881E+02
     20.887  0.2816E+00  0.2817E+00  0.1887E+02  0.1887E+02
     21.112  0.4646E+00  0.4655E+00  0.1898E+02  0.1898E+02
     21.338  0.4507E+00  0.4502E+00  0.1908E+02  0.1908E+02
     21.563  0.2462E+00  0.2460E+00  0.1913E+02  0.1913E+02
     21.789  0.2977E+00  0.2974E+00  0.1920E+02  0.1920E+02
     22.015  0.2897E+00  0.2889E+00  0.1927E+02  0.1927E+02
     22.240  0.3387E+00  0.3304E+00  0.1934E+02  0.1934E+02
     22.466  0.3910E+00  0.3973E+00  0.1943E+02  0.1943E+02
     22.691  0.3576E+00  0.3789E+00  0.1951E+02  0.1952E+02
     22.917  0.5222E+00  0.5218E+00  0.1963E+02  0.1964E+02
     23.142  0.3352E+00  0.3170E+00  0.1971E+02  0.1971E+02
     23.368  0.3217E+00  0.3205E+00  0.1978E+02  0.1978E+02
     23.594  0.1857E+00  0.1861E+00  0.1982E+02  0.1983E+02
     23.819  0.1905E+00  0.1906E+00  0.1987E+02  0.1987E+02
     24.045  0.7482E-01  0.7679E-01  0.1989E+02  0.1989E+02
     24.270  0.1082E+00  0.9791E-01  0.1991E+02  0.1991E+02
     24.496  0.1502E+00  0.1667E+00  0.1994E+02  0.1995E+02
     24.721  0.1062E+00  0.9735E-01  0.1997E+02  0.1997E+02
     24.947  0.2060E-01  0.1714E-01  0.1997E+02  0.1997E+02
     25.173  0.3713E-01  0.4185E-01  0.1998E+02  0.1998E+02
     25.398  0.4279E-01  0.4202E-01  0.1999E+02  0.1999E+02
     25.624  0.2810E-02  0.2925E-02  0.1999E+02  0.1999E+02
     25.849  0.5606E-02  0.2520E-01  0.1999E+02  0.2000E+02
     26.075  0.2742E-01  0.8518E-02  0.2000E+02  0.2000E+02
     26.300  0.1853E-02  0.0000E+00  0.2000E+02  0.2000E+02
     26.526  0.0000E+00  0.0000E+00  0.2000E+02  0.2000E+02
     26.751  0.0000E+00  0.0000E+00  0.2000E+02  0.2000E+02
     26.977  0.0000E+00  0.0000E+00  0.2000E+02  0.2000E+02
     27.203  0.0000E+00  0.0000E+00  0.2000E+02  0.2000E+02
     27.428  0.0000E+00  0.0000E+00  0.2000E+02  0.2000E+02
     27.654  0.0000E+00  0.0000E+00  0.2000E+02  0.2000E+02
     27.879  0.0000E+00  0.0000E+00  0.2000E+02  0.2000E+02
     28.105  0.0000E+00  0.0000E+00  0.2000E+02  0.2000E+02
     28.330  0.0000E+00  0.0000E+00  0.2000E+02  0.2000E+02
     28.556  0.0000E+00  0.0000E+00  0.2000E+02  0.2000E+02
     28.782  0.0000E+00  0.0000E+00  0.2000E+02  0.2000E+02
     29.007  0.0000E+00  0.0000E+00  0.2000E+02  0.2000E+02
     29.00714708    -38.66307040  301     12.93575723      1.00000000
    -38.663  0.0000E+00  0.0000E+00  0.0000E+00  0.0000E+00  0.0000E+00  0.0000E+00  0.0000E+00  0.0000E+00  0.0000E+00  0.0000E+00  0.0000E+00  0.0000E+00  0.0000E+00  0.0000E+00  0.0000E+00  0.0000E+00  0.0000E+00  0.0000E+00
    -38.438  0.0000E+00  0.0000E+00  0.0000E+00  0.0000E+00  0.0000E+00  0.0000E+00  0.0000E+00  0.0000E+00  0.0000E+00  0.0000E+00  0.0000E+00  0.0000E+00  0.0000E+00  0.0000E+00  0.0000E+00  0.0000E+00  0.0000E+00  0.0000E+00
    -38.212  0.0000E+00  0.0000E+00  0.0000E+00  0.0000E+00  0.0000E+00  0.0000E+00  0.0000E+00  0.0000E+00  0.0000E+00  0.0000E+00  0.0000E+00  0.0000E+00  0.0000E+00  0.0000E+00  0.0000E+00  0.0000E+00  0.0000E+00  0.0000E+00
    -37.986  0.0000E+00  0.0000E+00  0.0000E+00  0.0000E+00  0.0000E+00  0.0000E+00  0.0000E+00  0.0000E+00  0.0000E+00  0.0000E+00  0.0000E+00  0.0000E+00  0.0000E+00  0.0000E+00  0.0000E+00  0.0000E+00  0.0000E+00  0.0000E+00
    -37.761  0.0000E+00  0.0000E+00  0.0000E+00  0.0000E+00  0.0000E+00  0.0000E+00  0.0000E+00  0.0000E+00  0.0000E+00  0.0000E+00  0.0000E+00  0.0000E+00  0.0000E+00  0.0000E+00  0.0000E+00  0.0000E+00  0.0000E+00  0.0000E+00
    -37.535  0.0000E+00  0.0000E+00  0.0000E+00  0.0000E+00  0.0000E+00  0.0000E+00  0.0000E+00  0.0000E+00  0.0000E+00  0.0000E+00  0.0000E+00  0.0000E+00  0.0000E+00  0.0000E+00  0.0000E+00  0.0000E+00  0.0000E+00  0.0000E+00
    -37.310  0.0000E+00  0.0000E+00  0.0000E+00  0.0000E+00  0.0000E+00  0.0000E+00  0.0000E+00  0.0000E+00  0.0000E+00  0.0000E+00  0.0000E+00  0.0000E+00  0.0000E+00  0.0000E+00  0.0000E+00  0.0000E+00  0.0000E+00  0.0000E+00
    -37.084  0.0000E+00  0.0000E+00  0.0000E+00  0.0000E+00  0.0000E+00  0.0000E+00  0.0000E+00  0.0000E+00  0.0000E+00  0.0000E+00  0.0000E+00  0.0000E+00  0.0000E+00  0.0000E+00  0.0000E+00  0.0000E+00  0.0000E+00  0.0000E+00
    -36.859  0.0000E+00  0.0000E+00  0.0000E+00  0.0000E+00  0.0000E+00  0.0000E+00  0.0000E+00  0.0000E+00  0.0000E+00  0.0000E+00  0.0000E+00  0.0000E+00  0.0000E+00  0.0000E+00  0.0000E+00  0.0000E+00  0.0000E+00  0.0000E+00
    -36.633  0.0000E+00  0.0000E+00  0.0000E+00  0.0000E+00  0.0000E+00  0.0000E+00  0.0000E+00  0.0000E+00  0.0000E+00  0.0000E+00  0.0000E+00  0.0000E+00  0.0000E+00  0.0000E+00  0.0000E+00  0.0000E+00  0.0000E+00  0.0000E+00
    -36.407  0.0000E+00  0.0000E+00  0.0000E+00  0.0000E+00  0.0000E+00  0.0000E+00  0.0000E+00  0.0000E+00  0.0000E+00  0.0000E+00  0.0000E+00  0.0000E+00  0.0000E+00  0.0000E+00  0.0000E+00  0.0000E+00  0.0000E+00  0.0000E+00
    -36.182  0.6122E-07  0.6158E-07  0.1202E-11  0.1209E-11  0.6691E-12  0.6730E-12  0.1202E-11  0.1209E-11  0.3142E-13  0.3160E-13  0.5008E-22  0.4970E-22  0.2117E-12  0.2131E-12  0.5008E-22  0.4970E-22  0.3142E-13  0.3160E-13
    -35.956  0.2501E-04  0.2516E-04  0.1499E-08  0.1508E-08  0.1631E-08  0.1640E-08  0.1499E-08  0.1508E-08  0.8636E-10  0.8687E-10  0.4623E-10  0.4651E-10  0.1436E-09  0.1445E-09  0.4623E-10  0.4651E-10  0.8636E-10  0.8687E-10
    -35.731  0.2283E-02  0.2297E-02  0.1425E-06  0.1433E-06  0.1553E-06  0.1562E-06  0.1425E-06  0.1433E-06  0.9550E-08  0.9606E-08  0.5334E-08  0.5366E-08  0.1507E-07  0.1517E-07  0.5334E-08  0.5366E-08  0.9550E-08  0.9606E-08
    -35.505  0.1002E+00  0.1006E+00  0.8070E-05  0.8103E-05  0.8818E-05  0.8854E-05  0.8070E-05  0.8103E-05  0.6597E-06  0.6630E-06  0.3929E-06  0.3948E-06  0.9233E-06  0.9279E-06  0.3929E-06  0.3948E-06  0.6597E-06  0.6630E-06
    -35.280  0.5804E+00  0.5813E+00  0.6821E-04  0.6835E-04  0.7558E-04  0.7575E-04  0.6821E-04  0.6835E-04  0.1229E-04  0.1233E-04  0.8355E-05  0.8382E-05  0.1533E-04  0.1538E-04  0.8355E-05  0.8382E-05  0.1229E-04  0.1233E-04
    -35.054  0.1851E+01  0.1853E+01  0.1333E-03  0.1334E-03  0.1596E-03  0.1597E-03  0.1333E-03  0.1334E-03  0.7159E-04  0.7162E-04  0.6298E-04  0.6305E-04  0.9457E-04  0.9461E-04  0.6298E-04  0.6305E-04  0.7159E-04  0.7162E-04
    -34.828  0.1769E+01  0.1765E+01  0.5220E-04  0.5213E-04  0.6686E-04  0.6671E-04  0.5220E-04  0.5213E-04  0.5051E-04  0.5034E-04  0.6438E-04  0.6419E-04  0.6660E-04  0.6636E-04  0.6438E-04  0.6419E-04  0.5051E-04  0.5034E-04
    -34.603  0.6531E-01  0.6495E-01  0.1292E-05  0.1287E-05  0.9268E-06  0.9223E-06  0.1292E-05  0.1287E-05  0.1375E-05  0.1366E-05  0.1480E-05  0.1470E-05  0.9539E-06  0.9473E-06  0.1480E-05  0.1470E-05  0.1375E-05  0.1366E-05
    -34.377  0.0000E+00  0.0000E+00  0.0000E+00  0.0000E+00  0.0000E+00  0.0000E+00  0.0000E+00  0.0000E+00  0.0000E+00  0.0000E+00  0.0000E+00  0.0000E+00  0.0000E+00  0.0000E+00  0.0000E+00  0.0000E+00  0.0000E+00  0.0000E+00
    -34.152  0.0000E+00  0.0000E+00  0.0000E+00  0.0000E+00  0.0000E+00  0.0000E+00  0.0000E+00  0.0000E+00  0.0000E+00  0.0000E+00  0.0000E+00  0.0000E+00  0.0000E+00  0.0000E+00  0.0000E+00  0.0000E+00  0.0000E+00  0.0000E+00
    -33.926  0.0000E+00  0.0000E+00  0.0000E+00  0.0000E+00  0.0000E+00  0.0000E+00  0.0000E+00  0.0000E+00  0.0000E+00  0.0000E+00  0.0000E+00  0.0000E+00  0.0000E+00  0.0000E+00  0.0000E+00  0.0000E+00  0.0000E+00  0.0000E+00
    -33.701  0.0000E+00  0.0000E+00  0.0000E+00  0.0000E+00  0.0000E+00  0.0000E+00  0.0000E+00  0.0000E+00  0.0000E+00  0.0000E+00  0.0000E+00  0.0000E+00  0.0000E+00  0.0000E+00  0.0000E+00  0.0000E+00  0.0000E+00  0.0000E+00
    -33.475  0.0000E+00  0.0000E+00  0.0000E+00  0.0000E+00  0.0000E+00  0.0000E+00  0.0000E+00  0.0000E+00  0.0000E+00  0.0000E+00  0.0000E+00  0.0000E+00  0.0000E+00  0.0000E+00  0.0000E+00  0.0000E+00  0.0000E+00  0.0000E+00
    -33.249  0.0000E+00  0.0000E+00  0.0000E+00  0.0000E+00  0.0000E+00  0.0000E+00  0.0000E+00  0.0000E+00  0.0000E+00  0.0000E+00  0.0000E+00  0.0000E+00  0.0000E+00  0.0000E+00  0.0000E+00  0.0000E+00  0.0000E+00  0.0000E+00
    -33.024  0.0000E+00  0.0000E+00  0.0000E+00  0.0000E+00  0.0000E+00  0.0000E+00  0.0000E+00  0.0000E+00  0.0000E+00  0.0000E+00  0.0000E+00  0.0000E+00  0.0000E+00  0.0000E+00  0.0000E+00  0.0000E+00  0.0000E+00  0.0000E+00
    -32.798  0.0000E+00  0.0000E+00  0.0000E+00  0.0000E+00  0.0000E+00  0.0000E+00  0.0000E+00  0.0000E+00  0.0000E+00  0.0000E+00  0.0000E+00  0.0000E+00  0.0000E+00  0.0000E+00  0.0000E+00  0.0000E+00  0.0000E+00  0.0000E+00
    -32.573  0.0000E+00  0.0000E+00  0.0000E+00  0.0000E+00  0.0000E+00  0.0000E+00  0.0000E+00  0.0000E+00  0.0000E+00  0.0000E+00  0.0000E+00  0.0000E+00  0.0000E+00  0.0000E+00  0.0000E+00  0.0000E+00  0.0000E+00  0.0000E+00
    -32.347  0.0000E+00  0.0000E+00  0.0000E+00  0.0000E+00  0.0000E+00  0.0000E+00  0.0000E+00  0.0000E+00  0.0000E+00  0.0000E+00  0.0000E+00  0.0000E+00  0.0000E+00  0.0000E+00  0.0000E+00  0.0000E+00  0.0000E+00  0.0000E+00
    -32.122  0.0000E+00  0.0000E+00  0.0000E+00  0.0000E+00  0.0000E+00  0.0000E+00  0.0000E+00  0.0000E+00  0.0000E+00  0.0000E+00  0.0000E+00  0.0000E+00  0.0000E+00  0.0000E+00  0.0000E+00  0.0000E+00  0.0000E+00  0.0000E+00
    -31.896  0.0000E+00  0.0000E+00  0.0000E+00  0.0000E+00  0.0000E+00  0.0000E+00  0.0000E+00  0.0000E+00  0.0000E+00  0.0000E+00  0.0000E+00  0.0000E+00  0.0000E+00  0.0000E+00  0.0000E+00  0.0000E+00  0.0000E+00  0.0000E+00
    -31.670  0.0000E+00  0.0000E+00  0.0000E+00  0.0000E+00  0.0000E+00  0.0000E+00  0.0000E+00  0.0000E+00  0.0000E+00  0.0000E+00  0.0000E+00  0.0000E+00  0.0000E+00  0.0000E+00  0.0000E+00  0.0000E+00  0.0000E+00  0.0000E+00
    -31.445  0.0000E+00  0.0000E+00  0.0000E+00  0.0000E+00  0.0000E+00  0.0000E+00  0.0000E+00  0.0000E+00  0.0000E+00  0.0000E+00  0.0000E+00  0.0000E+00  0.0000E+00  0.0000E+00  0.0000E+00  0.0000E+00  0.0000E+00  0.0000E+00
    -31.219  0.0000E+00  0.0000E+00  0.0000E+00  0.0000E+00  0.0000E+00  0.0000E+00  0.0000E+00  0.0000E+00  0.0000E+00  0.0000E+00  0.0000E+00  0.0000E+00  0.0000E+00  0.0000E+00  0.0000E+00  0.0000E+00  0.0000E+00  0.0000E+00
    -30.994  0.0000E+00  0.0000E+00  0.0000E+00  0.0000E+00  0.0000E+00  0.0000E+00  0.0000E+00  0.0000E+00  0.0000E+00  0.0000E+00  0.0000E+00  0.0000E+00  0.0000E+00  0.0000E+00  0.0000E+00  0.0000E+00  0.0000E+00  0.0000E+00
    -30.768  0.0000E+00  0.0000E+00  0.0000E+00  0.0000E+00  0.0000E+00  0.0000E+00  0.0000E+00  0.0000E+00  0.0000E+00  0.0000E+00  0.0000E+00  0.0000E+00  0.0000E+00  0.0000E+00  0.0000E+00  0.0000E+00  0.0000E+00  0.0000E+00
    -30.543  0.0000E+00  0.0000E+00  0.0000E+00  0.0000E+00  0.0000E+00  0.0000E+00  0.0000E+00  0.0000E+00  0.0000E+00  0.0000E+00  0.0000E+00  0.0000E+00  0.0000E+00  0.0000E+00  0.0000E+00  0.0000E+00  0.0000E+00  0.0000E+00
    -30.317  0.0000E+00  0.0000E+00  0.0000E+00  0.0000E+00  0.0000E+00  0.0000E+00  0.0000E+00  0.0000E+00  0.0000E+00  0.0000E+00  0.0000E+00  0.0000E+00  0.0000E+00  0.0000E+00  0.0000E+00  0.0000E+00  0.0000E+00  0.0000E+00
    -30.092  0.0000E+00  0.0000E+00  0.0000E+00  0.0000E+00  0.0000E+00  0.0000E+00  0.0000E+00  0.0000E+00  0.0000E+00  0.0000E+00  0.0000E+00  0.0000E+00  0.0000E+00  0.0000E+00  0.0000E+00  0.0000E+00  0.0000E+00  0.0000E+00
    -29.866  0.0000E+00  0.0000E+00  0.0000E+00  0.0000E+00  0.0000E+00  0.0000E+00  0.0000E+00  0.0000E+00  0.0000E+00  0.0000E+00  0.0000E+00  0.0000E+00  0.0000E+00  0.0000E+00  0.0000E+00  0.0000E+00  0.0000E+00  0.0000E+00
    -29.640  0.0000E+00  0.0000E+00  0.0000E+00  0.0000E+00  0.0000E+00  0.0000E+00  0.0000E+00  0.0000E+00  0.0000E+00  0.0000E+00  0.0000E+00  0.0000E+00  0.0000E+00  0.0000E+00  0.0000E+00  0.0000E+00  0.0000E+00  0.0000E+00
    -29.415  0.0000E+00  0.0000E+00  0.0000E+00  0.0000E+00  0.0000E+00  0.0000E+00  0.0000E+00  0.0000E+00  0.0000E+00  0.0000E+00  0.0000E+00  0.0000E+00  0.0000E+00  0.0000E+00  0.0000E+00  0.0000E+00  0.0000E+00  0.0000E+00
    -29.189  0.0000E+00  0.0000E+00  0.0000E+00  0.0000E+00  0.0000E+00  0.0000E+00  0.0000E+00  0.0000E+00  0.0000E+00  0.0000E+00  0.0000E+00  0.0000E+00  0.0000E+00  0.0000E+00  0.0000E+00  0.0000E+00  0.0000E+00  0.0000E+00
    -28.964  0.0000E+00  0.0000E+00  0.0000E+00  0.0000E+00  0.0000E+00  0.0000E+00  0.0000E+00  0.0000E+00  0.0000E+00  0.0000E+00  0.0000E+00  0.0000E+00  0.0000E+00  0.0000E+00  0.0000E+00  0.0000E+00  0.0000E+00  0.0000E+00
    -28.738  0.0000E+00  0.0000E+00  0.0000E+00  0.0000E+00  0.0000E+00  0.0000E+00  0.0000E+00  0.0000E+00  0.0000E+00  0.0000E+00  0.0000E+00  0.0000E+00  0.0000E+00  0.0000E+00  0.0000E+00  0.0000E+00  0.0000E+00  0.0000E+00
    -28.513  0.0000E+00  0.0000E+00  0.0000E+00  0.0000E+00  0.0000E+00  0.0000E+00  0.0000E+00  0.0000E+00  0.0000E+00  0.0000E+00  0.0000E+00  0.0000E+00  0.0000E+00  0.0000E+00  0.0000E+00  0.0000E+00  0.0000E+00  0.0000E+00
    -28.287  0.0000E+00  0.0000E+00  0.0000E+00  0.0000E+00  0.0000E+00  0.0000E+00  0.0000E+00  0.0000E+00  0.0000E+00  0.0000E+00  0.0000E+00  0.0000E+00  0.0000E+00  0.0000E+00  0.0000E+00  0.0000E+00  0.0000E+00  0.0000E+00
    -28.061  0.0000E+00  0.0000E+00  0.0000E+00  0.0000E+00  0.0000E+00  0.0000E+00  0.0000E+00  0.0000E+00  0.0000E+00  0.0000E+00  0.0000E+00  0.0000E+00  0.0000E+00  0.0000E+00  0.0000E+00  0.0000E+00  0.0000E+00  0.0000E+00
    -27.836  0.0000E+00  0.0000E+00  0.0000E+00  0.0000E+00  0.0000E+00  0.0000E+00  0.0000E+00  0.0000E+00  0.0000E+00  0.0000E+00  0.0000E+00  0.0000E+00  0.0000E+00  0.0000E+00  0.0000E+00  0.0000E+00  0.0000E+00  0.0000E+00
    -27.610  0.0000E+00  0.0000E+00  0.0000E+00  0.0000E+00  0.0000E+00  0.0000E+00  0.0000E+00  0.0000E+00  0.0000E+00  0.0000E+00  0.0000E+00  0.0000E+00  0.0000E+00  0.0000E+00  0.0000E+00  0.0000E+00  0.0000E+00  0.0000E+00
    -27.385  0.0000E+00  0.0000E+00  0.0000E+00  0.0000E+00  0.0000E+00  0.0000E+00  0.0000E+00  0.0000E+00  0.0000E+00  0.0000E+00  0.0000E+00  0.0000E+00  0.0000E+00  0.0000E+00  0.0000E+00  0.0000E+00  0.0000E+00  0.0000E+00