   2   2   1   0
  0.2337271E+02  0.3228861E-09  0.3228860E-09  0.5177378E-09  0.5000000E-15
  1.000000000000000E-004
  CAR 
 unknown system                          
     20.72685543    -42.78193069  301      8.96245411      1.00000000
    -42.782  0.0000E+00  0.0000E+00  0.0000E+00  0.0000E+00
    -42.570  0.0000E+00  0.0000E+00  0.0000E+00  0.0000E+00
    -42.359  0.0000E+00  0.0000E+00  0.0000E+00  0.0000E+00
    -42.147  0.0000E+00  0.0000E+00  0.0000E+00  0.0000E+00
    -41.935  0.0000E+00  0.0000E+00  0.0000E+00  0.0000E+00
    -41.723  0.0000E+00  0.0000E+00  0.0000E+00  0.0000E+00
    -41.512  0.0000E+00  0.0000E+00  0.0000E+00  0.0000E+00
    -41.300  0.0000E+00  0.0000E+00  0.0000E+00  0.0000E+00
    -41.088  0.0000E+00  0.0000E+00  0.0000E+00  0.0000E+00
    -40.877  0.0000E+00  0.0000E+00  0.0000E+00  0.0000E+00
    -40.665  0.0000E+00  0.0000E+00  0.0000E+00  0.0000E+00
    -40.453  0.3820E-05  0.3815E-05  0.8088E-06  0.8077E-06
    -40.242  0.8943E-03  0.8930E-03  0.1901E-03  0.1899E-03
    -40.030  0.6003E-01  0.5995E-01  0.1290E-01  0.1288E-01
    -39.818  0.2329E+01  0.2327E+01  0.5059E+00  0.5055E+00
    -39.606  0.6520E+01  0.6521E+01  0.1886E+01  0.1886E+01
    -39.395  0.5079E+00  0.5086E+00  0.1998E+01  0.1998E+01
    -39.183  0.0000E+00  0.0000E+00  0.2000E+01  0.2000E+01
    -38.971  0.0000E+00  0.0000E+00  0.2000E+01  0.2000E+01
    -38.760  0.0000E+00  0.0000E+00  0.2000E+01  0.2000E+01
    -38.548  0.0000E+00  0.0000E+00  0.2000E+01  0.2000E+01
    -38.336  0.0000E+00  0.0000E+00  0.2000E+01  0.2000E+01
    -38.125  0.0000E+00  0.0000E+00  0.2000E+01  0.2000E+01
    -37.913  0.0000E+00  0.0000E+00  0.2000E+01  0.2000E+01
    -37.701  0.0000E+00  0.0000E+00  0.2000E+01  0.2000E+01
    -37.490  0.0000E+00  0.0000E+00  0.2000E+01  0.2000E+01
    -37.278  0.0000E+00  0.0000E+00  0.2000E+01  0.2000E+01
    -37.066  0.0000E+00  0.0000E+00  0.2000E+01  0.2000E+01
    -36.854  0.0000E+00  0.0000E+00  0.2000E+01  0.2000E+01
    -36.643  0.0000E+00  0.0000E+00  0.2000E+01  0.2000E+01
    -36.431  0.0000E+00  0.0000E+00  0.2000E+01  0.2000E+01
    -36.219  0.0000E+00  0.0000E+00  0.2000E+01  0.2000E+01
    -36.008  0.0000E+00  0.0000E+00  0.2000E+01  0.2000E+01
    -35.796  0.0000E+00  0.0000E+00  0.2000E+01  0.2000E+01
    -35.584  0.0000E+00  0.0000E+00  0.2000E+01  0.2000E+01
    -35.373  0.0000E+00  0.0000E+00  0.2000E+01  0.2000E+01
    -35.161  0.0000E+00  0.0000E+00  0.2000E+01  0.2000E+01
    -34.949  0.0000E+00  0.0000E+00  0.2000E+01  0.2000E+01
    -34.737  0.0000E+00  0.0000E+00  0.2000E+01  0.2000E+01
    -34.526  0.0000E+00  0.0000E+00  0.2000E+01  0.2000E+01
    -34.314  0.0000E+00  0.0000E+00  0.2000E+01  0.2000E+01
    -34.102  0.0000E+00  0.0000E+00  0.2000E+01  0.2000E+01
    -33.891  0.0000E+00  0.0000E+00  0.2000E+01  0.2000E+01
    -33.679  0.0000E+00  0.0000E+00  0.2000E+01  0.2000E+01
    -33.467  0.0000E+00  0.0000E+00  0.2000E+01  0.2000E+01
    -33.256  0.0000E+00  0.0000E+00  0.2000E+01  0.2000E+01
    -33.044  0.0000E+00  0.0000E+00  0.2000E+01  0.2000E+01
    -32.832  0.0000E+00  0.0000E+00  0.2000E+01  0.2000E+01
    -32.621  0.0000E+00  0.0000E+00  0.2000E+01  0.2000E+01
    -32.409  0.0000E+00  0.0000E+00  0.2000E+01  0.2000E+01
    -32.197  0.0000E+00  0.0000E+00  0.2000E+01  0.2000E+01
    -31.985  0.0000E+00  0.0000E+00  0.2000E+01  0.2000E+01
    -31.774  0.0000E+00  0.0000E+00  0.2000E+01  0.2000E+01
    -31.562  0.0000E+00  0.0000E+00  0.2000E+01  0.2000E+01
    -31.350  0.0000E+00  0.0000E+00  0.2000E+01  0.2000E+01
    -31.139  0.0000E+00  0.0000E+00  0.2000E+01  0.2000E+01
    -30.927  0.0000E+00  0.0000E+00  0.2000E+01  0.2000E+01
    -30.715  0.0000E+00  0.0000E+00  0.2000E+01  0.2000E+01
    -30.504  0.0000E+00  0.0000E+00  0.2000E+01  0.2000E+01
    -30.292  0.0000E+00  0.0000E+00  0.2000E+01  0.2000E+01
    -30.080  0.0000E+00  0.0000E+00  0.2000E+01  0.2000E+01
    -29.868  0.0000E+00  0.0000E+00  0.2000E+01  0.2000E+01
    -29.657  0.0000E+00  0.0000E+00  0.2000E+01  0.2000E+01
    -29.445  0.0000E+00  0.0000E+00  0.2000E+01  0.2000E+01
    -29.233  0.0000E+00  0.0000E+00  0.2000E+01  0.2000E+01
    -29.022  0.0000E+00  0.0000E+00  0.2000E+01  0.2000E+01
    -28.810  0.0000E+00  0.0000E+00  0.2000E+01  0.2000E+01
    -28.598  0.0000E+00  0.0000E+00  0.2000E+01  0.2000E+01
    -28.387  0.0000E+00  0.0000E+00  0.2000E+01  0.2000E+01
    -28.175  0.0000E+00  0.0000E+00  0.2000E+01  0.2000E+01
    -27.963  0.0000E+00  0.0000E+00  0.2000E+01  0.2000E+01
    -27.752  0.0000E+00  0.0000E+00  0.2000E+01  0.2000E+01
    -27.540  0.0000E+00  0.0000E+00  0.2000E+01  0.2000E+01
    -27.328  0.0000E+00  0.0000E+00  0.2000E+01  0.2000E+01
    -27.116  0.0000E+00  0.0000E+00  0.2000E+01  0.2000E+01
    -26.905  0.0000E+00  0.0000E+00  0.2000E+01  0.2000E+01
    -26.693  0.0000E+00  0.0000E+00  0.2000E+01  0.2000E+01
    -26.481  0.0000E+00  0.0000E+00  0.2000E+01  0.2000E+01
    -26.270  0.0000E+00  0.0000E+00  0.2000E+01  0.2000E+01
    -26.058  0.0000E+00  0.0000E+00  0.2000E+01  0.2000E+01
    -25.846  0.0000E+00  0.0000E+00  0.2000E+01  0.2000E+01
    -25.635  0.0000E+00  0.0000E+00  0.2000E+01  0.2000E+01
    -25.423  0.0000E+00  0.0000E+00  0.2000E+01  0.2000E+01
    -25.211  0.0000E+00  0.0000E+00  0.2000E+01  0.2000E+01
    -24.999  0.0000E+00  0.0000E+00  0.2000E+01  0.2000E+01
    -24.788  0.0000E+00  0.0000E+00  0.2000E+01  0.2000E+01
    -24.576  0.0000E+00  0.0000E+00  0.2000E+01  0.2000E+01
    -24.364  0.0000E+00  0.0000E+00  0.2000E+01  0.2000E+01
    -24.153  0.0000E+00  0.0000E+00  0.2000E+01  0.2000E+01
    -23.941  0.0000E+00  0.0000E+00  0.2000E+01  0.2000E+01
    -23.729  0.0000E+00  0.0000E+00  0.2000E+01  0.2000E+01
    -23.518  0.0000E+00  0.0000E+00  0.2000E+01  0.2000E+01
    -23.306  0.0000E+00  0.0000E+00  0.2000E+01  0.2000E+01
    -23.094  0.0000E+00  0.0000E+00  0.2000E+01  0.2000E+01
    -22.883  0.0000E+00  0.0000E+00  0.2000E+01  0.2000E+01
    -22.671  0.0000E+00  0.0000E+00  0.2000E+01  0.2000E+01
    -22.459  0.0000E+00  0.0000E+00  0.2000E+01  0.2000E+01
    -22.247  0.0000E+00  0.0000E+00  0.2000E+01  0.2000E+01
    -22.036  0.0000E+00  0.0000E+00  0.2000E+01  0.2000E+01
    -21.824  0.0000E+00  0.0000E+00  0.2000E+01  0.2000E+01
    -21.612  0.0000E+00  0.0000E+00  0.2000E+01  0.2000E+01
    -21.401  0.0000E+00  0.0000E+00  0.2000E+01  0.2000E+01
    -21.189  0.0000E+00  0.0000E+00  0.2000E+01  0.2000E+01
    -20.977  0.0000E+00  0.0000E+00  0.2000E+01  0.2000E+01
    -20.766  0.0000E+00  0.0000E+00  0.2000E+01  0.2000E+01
    -20.554  0.0000E+00  0.0000E+00  0.2000E+01  0.2000E+01
    -20.342  0.0000E+00  0.0000E+00  0.2000E+01  0.2000E+01
    -20.130  0.0000E+00  0.0000E+00  0.2000E+01  0.2000E+01
    -19.919  0.0000E+00  0.0000E+00  0.2000E+01  0.2000E+01
    -19.707  0.0000E+00  0.0000E+00  0.2000E+01  0.2000E+01
    -19.495  0.0000E+00  0.0000E+00  0.2000E+01  0.2000E+01
    -19.284  0.0000E+00  0.0000E+00  0.2000E+01  0.2000E+01
    -19.072  0.0000E+00  0.0000E+00  0.2000E+01  0.2000E+01
    -18.860  0.1658E-04  0.1659E-04  0.2000E+01  0.2000E+01
    -18.649  0.1635E-02  0.1636E-02  0.2000E+01  0.2000E+01
    -18.437  0.1043E+00  0.1043E+00  0.2022E+01  0.2022E+01
    -18.225  0.2334E+01  0.2334E+01  0.2517E+01  0.2517E+01
    -18.014  0.5180E+01  0.5180E+01  0.3613E+01  0.3613E+01
    -17.802  0.5015E+01  0.5015E+01  0.4681E+01  0.4681E+01
    -17.590  0.8815E+01  0.8815E+01  0.6552E+01  0.6552E+01
    -17.378  0.6329E+01  0.6329E+01  0.7898E+01  0.7898E+01
    -17.167  0.4023E+00  0.4025E+00  0.7999E+01  0.7999E+01
    -16.955  0.0000E+00  0.0000E+00  0.8000E+01  0.8000E+01
    -16.743  0.0000E+00  0.0000E+00  0.8000E+01  0.8000E+01
    -16.532  0.0000E+00  0.0000E+00  0.8000E+01  0.8000E+01
    -16.320  0.0000E+00  0.0000E+00  0.8000E+01  0.8000E+01
    -16.108  0.0000E+00  0.0000E+00  0.8000E+01  0.8000E+01
    -15.897  0.0000E+00  0.0000E+00  0.8000E+01  0.8000E+01
    -15.685  0.0000E+00  0.0000E+00  0.8000E+01  0.8000E+01
    -15.473  0.0000E+00  0.0000E+00  0.8000E+01  0.8000E+01
    -15.261  0.0000E+00  0.0000E+00  0.8000E+01  0.8000E+01
    -15.050  0.0000E+00  0.0000E+00  0.8000E+01  0.8000E+01
    -14.838  0.0000E+00  0.0000E+00  0.8000E+01  0.8000E+01
    -14.626  0.0000E+00  0.0000E+00  0.8000E+01  0.8000E+01
    -14.415  0.0000E+00  0.0000E+00  0.8000E+01  0.8000E+01
    -14.203  0.0000E+00  0.0000E+00  0.8000E+01  0.8000E+01
    -13.991  0.0000E+00  0.0000E+00  0.8000E+01  0.8000E+01
    -13.780  0.0000E+00  0.0000E+00  0.8000E+01  0.8000E+01
    -13.568  0.0000E+00  0.0000E+00  0.8000E+01  0.8000E+01
    -13.356  0.0000E+00  0.0000E+00  0.8000E+01  0.8000E+01
    -13.144  0.0000E+00  0.0000E+00  0.8000E+01  0.8000E+01
    -12.933  0.0000E+00  0.0000E+00  0.8000E+01  0.8000E+01
    -12.721  0.0000E+00  0.0000E+00  0.8000E+01  0.8000E+01
    -12.509  0.0000E+00  0.0000E+00  0.8000E+01  0.8000E+01
    -12.298  0.0000E+00  0.0000E+00  0.8000E+01  0.8000E+01
    -12.086  0.0000E+00  0.0000E+00  0.8000E+01  0.8000E+01
    -11.874  0.0000E+00  0.0000E+00  0.8000E+01  0.8000E+01
    -11.663  0.0000E+00  0.0000E+00  0.8000E+01  0.8000E+01
    -11.451  0.0000E+00  0.0000E+00  0.8000E+01  0.8000E+01
    -11.239  0.0000E+00  0.0000E+00  0.8000E+01  0.8000E+01
    -11.028  0.0000E+00  0.0000E+00  0.8000E+01  0.8000E+01
    -10.816  0.0000E+00  0.0000E+00  0.8000E+01  0.8000E+01
    -10.604  0.0000E+00  0.0000E+00  0.8000E+01  0.8000E+01
    -10.392  0.0000E+00  0.0000E+00  0.8000E+01  0.8000E+01
    -10.181  0.0000E+00  0.0000E+00  0.8000E+01  0.8000E+01
     -9.969  0.0000E+00  0.0000E+00  0.8000E+01  0.8000E+01
     -9.757  0.0000E+00  0.0000E+00  0.8000E+01  0.8000E+01
     -9.546  0.0000E+00  0.0000E+00  0.8000E+01  0.8000E+01
     -9.334  0.0000E+00  0.0000E+00  0.8000E+01  0.8000E+01
     -9.122  0.0000E+00  0.0000E+00  0.8000E+01  0.8000E+01
     -8.911  0.0000E+00  0.0000E+00  0.8000E+01  0.8000E+01
     -8.699  0.0000E+00  0.0000E+00  0.8000E+01  0.8000E+01
     -8.487  0.0000E+00  0.0000E+00  0.8000E+01  0.8000E+01
     -8.275  0.0000E+00  0.0000E+00  0.8000E+01  0.8000E+01
     -8.064  0.0000E+00  0.0000E+00  0.8000E+01  0.8000E+01
     -7.852  0.0000E+00  0.0000E+00  0.8000E+01  0.8000E+01
     -7.640  0.0000E+00  0.0000E+00  0.8000E+01  0.8000E+01
     -7.429  0.0000E+00  0.0000E+00  0.8000E+01  0.8000E+01
     -7.217  0.0000E+00  0.0000E+00  0.8000E+01  0.8000E+01
     -7.005  0.0000E+00  0.0000E+00  0.8000E+01  0.8000E+01
     -6.794  0.0000E+00  0.0000E+00  0.8000E+01  0.8000E+01
     -6.582  0.0000E+00  0.0000E+00  0.8000E+01  0.8000E+01
     -6.370  0.0000E+00  0.0000E+00  0.8000E+01  0.8000E+01
     -6.159  0.0000E+00  0.0000E+00  0.8000E+01  0.8000E+01
     -5.947  0.0000E+00  0.0000E+00  0.8000E+01  0.8000E+01
     -5.735  0.0000E+00  0.0000E+00  0.8000E+01  0.8000E+01
     -5.523  0.0000E+00  0.0000E+00  0.8000E+01  0.8000E+01
     -5.312  0.0000E+00  0.0000E+00  0.8000E+01  0.8000E+01
     -5.100  0.0000E+00  0.0000E+00  0.8000E+01  0.8000E+01
     -4.888  0.0000E+00  0.0000E+00  0.8000E+01  0.8000E+01
     -4.677  0.0000E+00  0.0000E+00  0.8000E+01  0.8000E+01
     -4.465  0.0000E+00  0.0000E+00  0.8000E+01  0.8000E+01
     -4.253  0.0000E+00  0.0000E+00  0.8000E+01  0.8000E+01
     -4.042  0.0000E+00  0.0000E+00  0.8000E+01  0.8000E+01
     -3.830  0.0000E+00  0.0000E+00  0.8000E+01  0.8000E+01
     -3.618  0.0000E+00  0.0000E+00  0.8000E+01  0.8000E+01
     -3.406  0.0000E+00  0.0000E+00  0.8000E+01  0.8000E+01
     -3.195  0.0000E+00  0.0000E+00  0.8000E+01  0.8000E+01
     -2.983  0.0000E+00  0.0000E+00  0.8000E+01  0.8000E+01
     -2.771  0.0000E+00  0.0000E+00  0.8000E+01  0.8000E+01
     -2.560  0.0000E+00  0.0000E+00  0.8000E+01  0.8000E+01
     -2.348  0.0000E+00  0.0000E+00  0.8000E+01  0.8000E+01
     -2.136  0.0000E+00  0.0000E+00  0.8000E+01  0.8000E+01
     -1.925  0.0000E+00  0.0000E+00  0.8000E+01  0.8000E+01
     -1.713  0.0000E+00  0.0000E+00  0.8000E+01  0.8000E+01
     -1.501  0.0000E+00  0.0000E+00  0.8000E+01  0.8000E+01
     -1.290  0.0000E+00  0.0000E+00  0.8000E+01  0.8000E+01
     -1.078  0.0000E+00  0.0000E+00  0.8000E+01  0.8000E+01
     -0.866  0.0000E+00  0.0000E+00  0.8000E+01  0.8000E+01
     -0.654  0.0000E+00  0.0000E+00  0.8000E+01  0.8000E+01
     -0.443  0.0000E+00  0.0000E+00  0.8000E+01  0.8000E+01
     -0.231  0.0000E+00  0.0000E+00  0.8000E+01  0.8000E+01
     -0.019  0.0000E+00  0.0000E+00  0.8000E+01  0.8000E+01
      0.192  0.0000E+00  0.0000E+00  0.8000E+01  0.8000E+01
      0.404  0.0000E+00  0.0000E+00  0.8000E+01  0.8000E+01
      0.616  0.0000E+00  0.0000E+00  0.8000E+01  0.8000E+01
      0.827  0.0000E+00  0.0000E+00  0.8000E+01  0.8000E+01
      1.039  0.0000E+00  0.0000E+00  0.8000E+01  0.8000E+01
      1.251  0.0000E+00  0.0000E+00  0.8000E+01  0.8000E+01
      1.463  0.0000E+00  0.0000E+00  0.8000E+01  0.8000E+01
      1.674  0.0000E+00  0.0000E+00  0.8000E+01  0.8000E+01
      1.886  0.0000E+00  0.0000E+00  0.8000E+01  0.8000E+01
      2.098  0.0000E+00  0.0000E+00  0.8000E+01  0.8000E+01
      2.309  0.0000E+00  0.0000E+00  0.8000E+01  0.8000E+01
      2.521  0.0000E+00  0.0000E+00  0.8000E+01  0.8000E+01
      2.733  0.3614E-07  0.3638E-07  0.8000E+01  0.8000E+01
      2.944  0.3643E-05  0.3667E-05  0.8000E+01  0.8000E+01
      3.156  0.2511E-03  0.2527E-03  0.8000E+01  0.8000E+01
      3.368  0.7230E-02  0.7257E-02  0.8002E+01  0.8002E+01
      3.579  0.4060E-01  0.4064E-01  0.8010E+01  0.8010E+01
      3.791  0.4636E-01  0.4640E-01  0.8020E+01  0.8020E+01
      4.003  0.9501E-01  0.9502E-01  0.8040E+01  0.8040E+01
      4.215  0.7563E-01  0.7564E-01  0.8056E+01  0.8056E+01
      4.426  0.1221E+00  0.1222E+00  0.8082E+01  0.8082E+01
      4.638  0.1298E+00  0.1299E+00  0.8110E+01  0.8110E+01
      4.850  0.1615E+00  0.1614E+00  0.8144E+01  0.8144E+01
      5.061  0.1307E+00  0.1308E+00  0.8172E+01  0.8172E+01
      5.273  0.2690E+00  0.2690E+00  0.8229E+01  0.8229E+01
      5.485  0.2261E+00  0.2260E+00  0.8277E+01  0.8277E+01
      5.696  0.2724E+00  0.2725E+00  0.8335E+01  0.8335E+01
      5.908  0.5298E+00  0.5303E+00  0.8447E+01  0.8447E+01
      6.120  0.9372E+00  0.9374E+00  0.8646E+01  0.8646E+01
      6.332  0.8775E+00  0.8778E+00  0.8833E+01  0.8833E+01
      6.543  0.1162E+01  0.1162E+01  0.9080E+01  0.9080E+01
      6.755  0.1175E+01  0.1175E+01  0.9330E+01  0.9330E+01
      6.967  0.1451E+01  0.1451E+01  0.9638E+01  0.9639E+01
      7.178  0.1165E+01  0.1164E+01  0.9887E+01  0.9887E+01
      7.390  0.1058E+01  0.1058E+01  0.1011E+02  0.1011E+02
      7.602  0.1014E+01  0.1014E+01  0.1033E+02  0.1033E+02
      7.813  0.1284E+01  0.1285E+01  0.1060E+02  0.1060E+02
      8.025  0.1408E+01  0.1408E+01  0.1090E+02  0.1090E+02
      8.237  0.1567E+01  0.1566E+01  0.1123E+02  0.1123E+02
      8.448  0.1733E+01  0.1733E+01  0.1160E+02  0.1160E+02
      8.660  0.8823E+00  0.8817E+00  0.1179E+02  0.1179E+02
      8.872  0.6326E+00  0.6326E+00  0.1193E+02  0.1193E+02
      9.084  0.1135E+01  0.1136E+01  0.1217E+02  0.1217E+02
      9.295  0.1823E+01  0.1823E+01  0.1255E+02  0.1255E+02
      9.507  0.1666E+01  0.1667E+01  0.1291E+02  0.1291E+02
      9.719  0.1668E+01  0.1668E+01  0.1326E+02  0.1326E+02
      9.930  0.1815E+01  0.1815E+01  0.1365E+02  0.1365E+02
     10.142  0.1892E+01  0.1892E+01  0.1405E+02  0.1405E+02
     10.354  0.1929E+01  0.1929E+01  0.1446E+02  0.1446E+02
     10.565  0.1521E+01  0.1520E+01  0.1479E+02  0.1479E+02
     10.777  0.1110E+01  0.1110E+01  0.1502E+02  0.1502E+02
     10.989  0.7943E+00  0.7940E+00  0.1519E+02  0.1519E+02
     11.201  0.8826E+00  0.8826E+00  0.1538E+02  0.1538E+02
     11.412  0.6036E+00  0.6036E+00  0.1551E+02  0.1551E+02
     11.624  0.8282E+00  0.8283E+00  0.1569E+02  0.1569E+02
     11.836  0.7703E+00  0.7702E+00  0.1585E+02  0.1585E+02
     12.047  0.5828E+00  0.5830E+00  0.1598E+02  0.1598E+02
     12.259  0.8309E+00  0.8310E+00  0.1615E+02  0.1615E+02
     12.471  0.8217E+00  0.8216E+00  0.1633E+02  0.1633E+02
     12.682  0.7609E+00  0.7609E+00  0.1649E+02  0.1649E+02
     12.894  0.9614E+00  0.9617E+00  0.1669E+02  0.1669E+02
     13.106  0.1268E+01  0.1268E+01  0.1696E+02  0.1696E+02
     13.317  0.1546E+01  0.1546E+01  0.1729E+02  0.1729E+02
     13.529  0.1644E+01  0.1644E+01  0.1764E+02  0.1764E+02
     13.741  0.1601E+01  0.1601E+01  0.1798E+02  0.1798E+02
     13.953  0.2007E+01  0.2007E+01  0.1841E+02  0.1841E+02
     14.164  0.1358E+01  0.1358E+01  0.1870E+02  0.1870E+02
     14.376  0.6754E+00  0.6752E+00  0.1884E+02  0.1884E+02
     14.588  0.6887E+00  0.6889E+00  0.1899E+02  0.1899E+02
     14.799  0.5580E+00  0.5578E+00  0.1911E+02  0.1911E+02
     15.011  0.4148E+00  0.4150E+00  0.1920E+02  0.1920E+02
     15.223  0.4494E+00  0.4482E+00  0.1929E+02  0.1929E+02
     15.434  0.4825E+00  0.4797E+00  0.1939E+02  0.1939E+02
     15.646  0.5365E+00  0.5416E+00  0.1951E+02  0.1951E+02
     15.858  0.5946E+00  0.5939E+00  0.1963E+02  0.1963E+02
     16.070  0.4141E+00  0.4231E+00  0.1972E+02  0.1972E+02
     16.281  0.4410E+00  0.4171E+00  0.1982E+02  0.1981E+02
     16.493  0.2071E+00  0.2181E+00  0.1986E+02  0.1986E+02
     16.705  0.1362E+00  0.1399E+00  0.1989E+02  0.1989E+02
     16.916  0.1906E+00  0.1873E+00  0.1993E+02  0.1993E+02
     17.128  0.1355E+00  0.1379E+00  0.1996E+02  0.1996E+02
     17.340  0.6021E-01  0.6080E-01  0.1997E+02  0.1997E+02
     17.551  0.7438E-01  0.7760E-01  0.1999E+02  0.1999E+02
     17.763  0.4071E-01  0.2337E-01  0.2000E+02  0.1999E+02
     17.975  0.1582E-01  0.2815E-01  0.2000E+02  0.2000E+02
     18.187  0.1161E-02  0.2210E-02  0.2000E+02  0.2000E+02
     18.398  0.0000E+00  0.0000E+00  0.2000E+02  0.2000E+02
     18.610  0.0000E+00  0.0000E+00  0.2000E+02  0.2000E+02
     18.822  0.0000E+00  0.0000E+00  0.2000E+02  0.2000E+02
     19.033  0.0000E+00  0.0000E+00  0.2000E+02  0.2000E+02
     19.245  0.0000E+00  0.0000E+00  0.2000E+02  0.2000E+02
     19.457  0.0000E+00  0.0000E+00  0.2000E+02  0.2000E+02
     19.668  0.0000E+00  0.0000E+00  0.2000E+02  0.2000E+02
     19.880  0.0000E+00  0.0000E+00  0.2000E+02  0.2000E+02
     20.092  0.0000E+00  0.0000E+00  0.2000E+02  0.2000E+02
     20.303  0.0000E+00  0.0000E+00  0.2000E+02  0.2000E+02
     20.515  0.0000E+00  0.0000E+00  0.2000E+02  0.2000E+02
     20.727  0.0000E+00  0.0000E+00  0.2000E+02  0.2000E+02
     20.72685543    -42.78193069  301      8.96245411      1.00000000
    -42.782  0.0000E+00  0.0000E+00  0.0000E+00  0.0000E+00  0.0000E+00  0.0000E+00  0.0000E+00  0.0000E+00  0.0000E+00  0.0000E+00  0.0000E+00  0.0000E+00  0.0000E+00  0.0000E+00  0.0000E+00  0.0000E+00  0.0000E+00  0.0000E+00
    -42.570  0.0000E+00  0.0000E+00  0.0000E+00  0.0000E+00  0.0000E+00  0.0000E+00  0.0000E+00  0.0000E+00  0.0000E+00  0.0000E+00  0.0000E+00  0.0000E+00  0.0000E+00  0.0000E+00  0.0000E+00  0.0000E+00  0.0000E+00  0.0000E+00
    -42.359  0.0000E+00  0.0000E+00  0.0000E+00  0.0000E+00  0.0000E+00  0.0000E+00  0.0000E+00  0.0000E+00  0.0000E+00  0.0000E+00  0.0000E+00  0.0000E+00  0.0000E+00  0.0000E+00  0.0000E+00  0.0000E+00  0.0000E+00  0.0000E+00
    -42.147  0.0000E+00  0.0000E+00  0.0000E+00  0.0000E+00  0.0000E+00  0.0000E+00  0.0000E+00  0.0000E+00  0.0000E+00  0.0000E+00  0.0000E+00  0.0000E+00  0.0000E+00  0.0000E+00  0.0000E+00  0.0000E+00  0.0000E+00  0.0000E+00
    -41.935  0.0000E+00  0.0000E+00  0.0000E+00  0.0000E+00  0.0000E+00  0.0000E+00  0.0000E+00  0.0000E+00  0.0000E+00  0.0000E+00  0.0000E+00  0.0000E+00  0.0000E+00  0.0000E+00  0.0000E+00  0.0000E+00  0.0000E+00  0.0000E+00
    -41.723  0.0000E+00  0.0000E+00  0.0000E+00  0.0000E+00  0.0000E+00  0.0000E+00  0.0000E+00  0.0000E+00  0.0000E+00  0.0000E+00  0.0000E+00  0.0000E+00  0.0000E+00  0.0000E+00  0.0000E+00  0.0000E+00  0.0000E+00  0.0000E+00
    -41.512  0.0000E+00  0.0000E+00  0.0000E+00  0.0000E+00  0.0000E+00  0.0000E+00  0.0000E+00  0.0000E+00  0.0000E+00  0.0000E+00  0.0000E+00  0.0000E+00  0.0000E+00  0.0000E+00  0.0000E+00  0.0000E+00  0.0000E+00  0.0000E+00
    -41.300  0.0000E+00  0.0000E+00  0.0000E+00  0.0000E+00  0.0000E+00  0.0000E+00  0.0000E+00  0.0000E+00  0.0000E+00  0.0000E+00  0.0000E+00  0.0000E+00  0.0000E+00  0.0000E+00  0.0000E+00  0.0000E+00  0.0000E+00  0.0000E+00
    -41.088  0.0000E+00  0.0000E+00  0.0000E+00  0.0000E+00  0.0000E+00  0.0000E+00  0.0000E+00  0.0000E+00  0.0000E+00  0.0000E+00  0.0000E+00  0.0000E+00  0.0000E+00  0.0000E+00  0.0000E+00  0.0000E+00  0.0000E+00  0.0000E+00
    -40.877  0.0000E+00  0.0000E+00  0.0000E+00  0.0000E+00  0.0000E+00  0.0000E+00  0.0000E+00  0.0000E+00  0.0000E+00  0.0000E+00  0.0000E+00  0.0000E+00  0.0000E+00  0.0000E+00  0.0000E+00  0.0000E+00  0.0000E+00  0.0000E+00
    -40.665  0.0000E+00  0.0000E+00  0.0000E+00  0.0000E+00  0.0000E+00  0.0000E+00  0.0000E+00  0.0000E+00  0.0000E+00  0.0000E+00  0.0000E+00  0.0000E+00  0.0000E+00  0.0000E+00  0.0000E+00  0.0000E+00  0.0000E+00  0.0000E+00
    -40.453  0.1889E-05  0.1886E-05  0.1203E-10  0.1202E-10  0.1326E-10  0.1324E-10  0.1203E-10  0.1202E-10  0.7472E-12  0.7488E-12  0.3745E-12  0.3744E-12  0.2090E-11  0.2089E-11  0.3745E-12  0.3744E-12  0.7472E-12  0.7488E-12
    -40.242  0.4432E-03  0.4426E-03  0.3050E-08  0.3047E-08  0.3522E-08  0.3517E-08  0.3050E-08  0.3047E-08  0.8238E-09  0.8227E-09  0.7070E-09  0.7058E-09  0.1264E-08  0.1262E-08  0.7070E-09  0.7058E-09  0.8238E-09  0.8227E-09
    -40.030  0.2975E-01  0.2971E-01  0.2047E-06  0.2045E-06  0.2364E-06  0.2361E-06  0.2047E-06  0.2045E-06  0.5559E-07  0.5552E-07  0.4776E-07  0.4769E-07  0.8524E-07  0.8509E-07  0.4776E-07  0.4769E-07  0.5559E-07  0.5552E-07
    -39.818  0.1155E+01  0.1154E+01  0.7386E-05  0.7384E-05  0.8694E-05  0.8685E-05  0.7386E-05  0.7384E-05  0.2612E-05  0.2609E-05  0.2379E-05  0.2376E-05  0.3878E-05  0.3872E-05  0.2379E-05  0.2376E-05  0.2612E-05  0.2609E-05
    -39.606  0.3238E+01  0.3238E+01  0.1377E-04  0.1378E-04  0.1703E-04  0.1702E-04  0.1377E-04  0.1378E-04  0.8034E-05  0.8031E-05  0.8641E-05  0.8639E-05  0.1175E-04  0.1174E-04  0.8641E-05  0.8639E-05  0.8034E-05  0.8031E-05
    -39.395  0.2524E+00  0.2527E+00  0.7072E-06  0.7077E-06  0.8996E-06  0.8995E-06  0.7072E-06  0.7077E-06  0.5900E-06  0.5902E-06  0.7061E-06  0.7067E-06  0.8444E-06  0.8447E-06  0.7061E-06  0.7067E-06  0.5900E-06  0.5902E-06
    -39.183  0.0000E+00  0.0000E+00  0.0000E+00  0.0000E+00  0.0000E+00  0.0000E+00  0.0000E+00  0.0000E+00  0.0000E+00  0.0000E+00  0.0000E+00  0.0000E+00  0.0000E+00  0.0000E+00  0.0000E+00  0.0000E+00  0.0000E+00  0.0000E+00
    -38.971  0.0000E+00  0.0000E+00  0.0000E+00  0.0000E+00  0.0000E+00  0.0000E+00  0.0000E+00  0.0000E+00  0.0000E+00  0.0000E+00  0.0000E+00  0.0000E+00  0.0000E+00  0.0000E+00  0.0000E+00  0.0000E+00  0.0000E+00  0.0000E+00
    -38.760  0.0000E+00  0.0000E+00  0.0000E+00  0.0000E+00  0.0000E+00  0.0000E+00  0.0000E+00  0.0000E+00  0.0000E+00  0.0000E+00  0.0000E+00  0.0000E+00  0.0000E+00  0.0000E+00  0.0000E+00  0.0000E+00  0.0000E+00  0.0000E+00
    -38.548  0.0000E+00  0.0000E+00  0.0000E+00  0.0000E+00  0.0000E+00  0.0000E+00  0.0000E+00  0.0000E+00  0.0000E+00  0.0000E+00  0.0000E+00  0.0000E+00  0.0000E+00  0.0000E+00  0.0000E+00  0.0000E+00  0.0000E+00  0.0000E+00
    -38.336  0.0000E+00  0.0000E+00  0.0000E+00  0.0000E+00  0.0000E+00  0.0000E+00  0.0000E+00  0.0000E+00  0.0000E+00  0.0000E+00  0.0000E+00  0.0000E+00  0.0000E+00  0.0000E+00  0.0000E+00  0.0000E+00  0.0000E+00  0.0000E+00
    -38.125  0.0000E+00  0.0000E+00  0.0000E+00  0.0000E+00  0.0000E+00  0.0000E+00  0.0000E+00  0.0000E+00  0.0000E+00  0.0000E+00  0.0000E+00  0.0000E+00  0.0000E+00  0.0000E+00  0.0000E+00  0.0000E+00  0.0000E+00  0.0000E+00
    -37.913  0.0000E+00  0.0000E+00  0.0000E+00  0.0000E+00  0.0000E+00  0.0000E+00  0.0000E+00  0.0000E+00  0.0000E+00  0.0000E+00  0.0000E+00  0.0000E+00  0.0000E+00  0.0000E+00  0.0000E+00  0.0000E+00  0.0000E+00  0.0000E+00
    -37.701  0.0000E+00  0.0000E+00  0.0000E+00  0.0000E+00  0.0000E+00  0.0000E+00  0.0000E+00  0.0000E+00  0.0000E+00  0.0000E+00  0.0000E+00  0.0000E+00  0.0000E+00  0.0000E+00  0.0000E+00  0.0000E+00  0.0000E+00  0.0000E+00
    -37.490  0.0000E+00  0.0000E+00  0.0000E+00  0.0000E+00  0.0000E+00  0.0000E+00  0.0000E+00  0.0000E+00  0.0000E+00  0.0000E+00  0.0000E+00  0.0000E+00  0.0000E+00  0.0000E+00  0.0000E+00  0.0000E+00  0.0000E+00  0.0000E+00
    -37.278  0.0000E+00  0.0000E+00  0.0000E+00  0.0000E+00  0.0000E+00  0.0000E+00  0.0000E+00  0.0000E+00  0.0000E+00  0.0000E+00  0.0000E+00  0.0000E+00  0.0000E+00  0.0000E+00  0.0000E+00  0.0000E+00  0.0000E+00  0.0000E+00
    -37.066  0.0000E+00  0.0000E+00  0.0000E+00  0.0000E+00  0.0000E+00  0.0000E+00  0.0000E+00  0.0000E+00  0.0000E+00  0.0000E+00  0.0000E+00  0.0000E+00  0.0000E+00  0.0000E+00  0.0000E+00  0.0000E+00  0.0000E+00  0.0000E+00
    -36.854  0.0000E+00  0.0000E+00  0.0000E+00  0.0000E+00  0.0000E+00  0.0000E+00  0.0000E+00  0.0000E+00  0.0000E+00  0.0000E+00  0.0000E+00  0.0000E+00  0.0000E+00  0.0000E+00  0.0000E+00  0.0000E+00  0.0000E+00  0.0000E+00
    -36.643  0.0000E+00  0.0000E+00  0.0000E+00  0.0000E+00  0.0000E+00  0.0000E+00  0.0000E+00  0.0000E+00  0.0000E+00  0.0000E+00  0.0000E+00  0.0000E+00  0.0000E+00  0.0000E+00  0.0000E+00  0.0000E+00  0.0000E+00  0.0000E+00
    -36.431  0.0000E+00  0.0000E+00  0.0000E+00  0.0000E+00  0.0000E+00  0.0000E+00  0.0000E+00  0.0000E+00  0.0000E+00  0.0000E+00  0.0000E+00  0.0000E+00  0.0000E+00  0.0000E+00  0.0000E+00  0.0000E+00  0.0000E+00  0.0000E+00
    -36.219  0.0000E+00  0.0000E+00  0.0000E+00  0.0000E+00  0.0000E+00  0.0000E+00  0.0000E+00  0.0000E+00  0.0000E+00  0.0000E+00  0.0000E+00  0.0000E+00  0.0000E+00  0.0000E+00  0.0000E+00  0.0000E+00  0.0000E+00  0.0000E+00
    -36.008  0.0000E+00  0.0000E+00  0.0000E+00  0.0000E+00  0.0000E+00  0.0000E+00  0.0000E+00  0.0000E+00  0.0000E+00  0.0000E+00  0.0000E+00  0.0000E+00  0.0000E+00  0.0000E+00  0.0000E+00  0.0000E+00  0.0000E+00  0.0000E+00
    -35.796  0.0000E+00  0.0000E+00  0.0000E+00  0.0000E+00  0.0000E+00  0.0000E+00  0.0000E+00  0.0000E+00  0.0000E+00  0.0000E+00  0.0000E+00  0.0000E+00  0.0000E+00  0.0000E+00  0.0000E+00  0.0000E+00  0.0000E+00  0.0000E+00
    -35.584  0.0000E+00  0.0000E+00  0.0000E+00  0.0000E+00  0.0000E+00  0.0000E+00  0.0000E+00  0.0000E+00  0.0000E+00  0.0000E+00  0.0000E+00  0.0000E+00  0.0000E+00  0.0000E+00  0.0000E+00  0.0000E+00  0.0000E+00  0.0000E+00
    -35.373  0.0000E+00  0.0000E+00  0.0000E+00  0.0000E+00  0.0000E+00  0.0000E+00  0.0000E+00  0.0000E+00  0.0000E+00  0.0000E+00  0.0000E+00  0.0000E+00  0.0000E+00  0.0000E+00  0.0000E+00  0.0000E+00  0.0000E+00  0.0000E+00
    -35.161  0.0000E+00  0.0000E+00  0.0000E+00  0.0000E+00  0.0000E+00  0.0000E+00  0.0000E+00  0.0000E+00  0.0000E+00  0.0000E+00  0.0000E+00  0.0000E+00  0.0000E+00  0.0000E+00  0.0000E+00  0.0000E+00  0.0000E+00  0.0000E+00
    -34.949  0.0000E+00  0.0000E+00  0.0000E+00  0.0000E+00  0.0000E+00  0.0000E+00  0.0000E+00  0.0000E+00  0.0000E+00  0.0000E+00  0.0000E+00  0.0000E+00  0.0000E+00  0.0000E+00  0.0000E+00  0.0000E+00  0.0000E+00  0.0000E+00
    -34.737  0.0000E+00  0.0000E+00  0.0000E+00  0.0000E+00  0.0000E+00  0.0000E+00  0.0000E+00  0.0000E+00  0.0000E+00  0.0000E+00  0.0000E+00  0.0000E+00  0.0000E+00  0.0000E+00  0.0000E+00  0.0000E+00  0.0000E+00  0.0000E+00
    -34.526  0.0000E+00  0.0000E+00  0.0000E+00  0.0000E+00  0.0000E+00  0.0000E+00  0.0000E+00  0.0000E+00  0.0000E+00  0.0000E+00  0.0000E+00  0.0000E+00  0.0000E+00  0.0000E+00  0.0000E+00  0.0000E+00  0.0000E+00  0.0000E+00
    -34.314  0.0000E+00  0.0000E+00  0.0000E+00  0.0000E+00  0.0000E+00  0.0000E+00  0.0000E+00  0.0000E+00  0.0000E+00  0.0000E+00  0.0000E+00  0.0000E+00  0.0000E+00  0.0000E+00  0.0000E+00  0.0000E+00  0.0000E+00  0.0000E+00
    -34.102  0.0000E+00  0.0000E+00  0.0000E+00  0.0000E+00  0.0000E+00  0.0000E+00  0.0000E+00  0.0000E+00  0.0000E+00  0.0000E+00  0.0000E+00  0.0000E+00  0.0000E+00  0.0000E+00  0.0000E+00  0.0000E+00  0.0000E+00  0.0000E+00
    -33.891  0.0000E+00  0.0000E+00  0.0000E+00  0.0000E+00  0.0000E+00  0.0000E+00  0.0000E+00  0.0000E+00  0.0000E+00  0.0000E+00  0.0000E+00  0.0000E+00  0.0000E+00  0.0000E+00  0.0000E+00  0.0000E+00  0.0000E+00  0.0000E+00
    -33.679  0.0000E+00  0.0000E+00  0.0000E+00  0.0000E+00  0.0000E+00  0.0000E+00  0.0000E+00  0.0000E+00  0.0000E+00  0.0000E+00  0.0000E+00  0.0000E+00  0.0000E+00  0.0000E+00  0.0000E+00  0.0000E+00  0.0000E+00  0.0000E+00
    -33.467  0.0000E+00  0.0000E+00  0.0000E+00  0.0000E+00  0.0000E+00  0.0000E+00  0.0000E+00  0.0000E+00  0.0000E+00  0.0000E+00  0.0000E+00  0.0000E+00  0.0000E+00  0.0000E+00  0.0000E+00  0.0000E+00  0.0000E+00  0.0000E+00
    -33.256  0.0000E+00  0.0000E+00  0.0000E+00  0.0000E+00  0.0000E+00  0.0000E+00  0.0000E+00  0.0000E+00  0.0000E+00  0.0000E+00  0.0000E+00  0.0000E+00  0.0000E+00  0.0000E+00  0.0000E+00  0.0000E+00  0.0000E+00  0.0000E+00
    -33.044  0.0000E+00  0.0000E+00  0.0000E+00  0.0000E+00  0.0000E+00  0.0000E+00  0.0000E+00  0.0000E+00  0.0000E+00  0.0000E+00  0.0000E+00  0.0000E+00  0.0000E+00  0.0000E+00  0.0000E+00  0.0000E+00  0.0000E+00  0.0000E+00
    -32.832  0.0000E+00  0.0000E+00  0.0000E+00  0.0000E+00  0.0000E+00  0.0000E+00  0.0000E+00  0.0000E+00  0.0000E+00  0.0000E+00  0.0000E+00  0.0000E+00  0.0000E+00  0.0000E+00  0.0000E+00  0.0000E+00  0.0000E+00  0.0000E+00
    -32.621  0.0000E+00  0.0000E+00  0.0000E+00  0.0000E+00  0.0000E+00  0.0000E+00  0.0000E+00  0.0000E+00  0.0000E+00  0.0000E+00  0.0000E+00  0.0000E+00  0.0000E+00  0.0000E+00  0.0000E+00  0.0000E+00  0.0000E+00  0.0000E+00
    -32.409  0.0000E+00  0.0000E+00  0.0000E+00  0.0000E+00  0.0000E+00  0.0000E+00  0.0000E+00  0.0000E+00  0.0000E+00  0.0000E+00  0.0000E+00  0.0000E+00  0.0000E+00  0.0000E+00  0.0000E+00  0.0000E+00  0.0000E+00  0.0000E+00
    -32.197  0.0000E+00  0.0000E+00  0.0000E+00  0.0000E+00  0.0000E+00  0.0000E+00  0.0000E+00  0.0000E+00  0.0000E+00  0.0000E+00  0.0000E+00  0.0000E+00  0.0000E+00  0.0000E+00  0.0000E+00  0.0000E+00  0.0000E+00  0.0000E+00