   2   2   1   0
  0.2067868E+02  0.3099706E-09  0.3099706E-09  0.4970283E-09  0.5000000E-15
  1.000000000000000E-004
  CAR 
 unknown system                          
     23.56238756    -41.20283361  301     10.38184376      1.00000000
    -41.203  0.0000E+00  0.0000E+00  0.0000E+00  0.0000E+00
    -40.987  0.0000E+00  0.0000E+00  0.0000E+00  0.0000E+00
    -40.771  0.0000E+00  0.0000E+00  0.0000E+00  0.0000E+00
    -40.555  0.0000E+00  0.0000E+00  0.0000E+00  0.0000E+00
    -40.339  0.0000E+00  0.0000E+00  0.0000E+00  0.0000E+00
    -40.123  0.0000E+00  0.0000E+00  0.0000E+00  0.0000E+00
    -39.908  0.0000E+00  0.0000E+00  0.0000E+00  0.0000E+00
    -39.692  0.0000E+00  0.0000E+00  0.0000E+00  0.0000E+00
    -39.476  0.0000E+00  0.0000E+00  0.0000E+00  0.0000E+00
    -39.260  0.0000E+00  0.0000E+00  0.0000E+00  0.0000E+00
    -39.044  0.0000E+00  0.0000E+00  0.0000E+00  0.0000E+00
    -38.828  0.1174E-05  0.1177E-05  0.2535E-06  0.2541E-06
    -38.612  0.2753E-03  0.2759E-03  0.5969E-04  0.5982E-04
    -38.396  0.2089E-01  0.2094E-01  0.4570E-02  0.4580E-02
    -38.180  0.8690E+00  0.8703E+00  0.1922E+00  0.1925E+00
    -37.965  0.5853E+01  0.5855E+01  0.1456E+01  0.1457E+01
    -37.749  0.2456E+01  0.2453E+01  0.1988E+01  0.1988E+01
    -37.533  0.0000E+00  0.0000E+00  0.2000E+01  0.2000E+01
    -37.317  0.0000E+00  0.0000E+00  0.2000E+01  0.2000E+01
    -37.101  0.0000E+00  0.0000E+00  0.2000E+01  0.2000E+01
    -36.885  0.0000E+00  0.0000E+00  0.2000E+01  0.2000E+01
    -36.669  0.0000E+00  0.0000E+00  0.2000E+01  0.2000E+01
    -36.453  0.0000E+00  0.0000E+00  0.2000E+01  0.2000E+01
    -36.237  0.0000E+00  0.0000E+00  0.2000E+01  0.2000E+01
    -36.022  0.0000E+00  0.0000E+00  0.2000E+01  0.2000E+01
    -35.806  0.0000E+00  0.0000E+00  0.2000E+01  0.2000E+01
    -35.590  0.0000E+00  0.0000E+00  0.2000E+01  0.2000E+01
    -35.374  0.0000E+00  0.0000E+00  0.2000E+01  0.2000E+01
    -35.158  0.0000E+00  0.0000E+00  0.2000E+01  0.2000E+01
    -34.942  0.0000E+00  0.0000E+00  0.2000E+01  0.2000E+01
    -34.726  0.0000E+00  0.0000E+00  0.2000E+01  0.2000E+01
    -34.510  0.0000E+00  0.0000E+00  0.2000E+01  0.2000E+01
    -34.295  0.0000E+00  0.0000E+00  0.2000E+01  0.2000E+01
    -34.079  0.0000E+00  0.0000E+00  0.2000E+01  0.2000E+01
    -33.863  0.0000E+00  0.0000E+00  0.2000E+01  0.2000E+01
    -33.647  0.0000E+00  0.0000E+00  0.2000E+01  0.2000E+01
    -33.431  0.0000E+00  0.0000E+00  0.2000E+01  0.2000E+01
    -33.215  0.0000E+00  0.0000E+00  0.2000E+01  0.2000E+01
    -32.999  0.0000E+00  0.0000E+00  0.2000E+01  0.2000E+01
    -32.783  0.0000E+00  0.0000E+00  0.2000E+01  0.2000E+01
    -32.567  0.0000E+00  0.0000E+00  0.2000E+01  0.2000E+01
    -32.352  0.0000E+00  0.0000E+00  0.2000E+01  0.2000E+01
    -32.136  0.0000E+00  0.0000E+00  0.2000E+01  0.2000E+01
    -31.920  0.0000E+00  0.0000E+00  0.2000E+01  0.2000E+01
    -31.704  0.0000E+00  0.0000E+00  0.2000E+01  0.2000E+01
    -31.488  0.0000E+00  0.0000E+00  0.2000E+01  0.2000E+01
    -31.272  0.0000E+00  0.0000E+00  0.2000E+01  0.2000E+01
    -31.056  0.0000E+00  0.0000E+00  0.2000E+01  0.2000E+01
    -30.840  0.0000E+00  0.0000E+00  0.2000E+01  0.2000E+01
    -30.625  0.0000E+00  0.0000E+00  0.2000E+01  0.2000E+01
    -30.409  0.0000E+00  0.0000E+00  0.2000E+01  0.2000E+01
    -30.193  0.0000E+00  0.0000E+00  0.2000E+01  0.2000E+01
    -29.977  0.0000E+00  0.0000E+00  0.2000E+01  0.2000E+01
    -29.761  0.0000E+00  0.0000E+00  0.2000E+01  0.2000E+01
    -29.545  0.0000E+00  0.0000E+00  0.2000E+01  0.2000E+01
    -29.329  0.0000E+00  0.0000E+00  0.2000E+01  0.2000E+01
    -29.113  0.0000E+00  0.0000E+00  0.2000E+01  0.2000E+01
    -28.897  0.0000E+00  0.0000E+00  0.2000E+01  0.2000E+01
    -28.682  0.0000E+00  0.0000E+00  0.2000E+01  0.2000E+01
    -28.466  0.0000E+00  0.0000E+00  0.2000E+01  0.2000E+01
    -28.250  0.0000E+00  0.0000E+00  0.2000E+01  0.2000E+01
    -28.034  0.0000E+00  0.0000E+00  0.2000E+01  0.2000E+01
    -27.818  0.0000E+00  0.0000E+00  0.2000E+01  0.2000E+01
    -27.602  0.0000E+00  0.0000E+00  0.2000E+01  0.2000E+01
    -27.386  0.0000E+00  0.0000E+00  0.2000E+01  0.2000E+01
    -27.170  0.0000E+00  0.0000E+00  0.2000E+01  0.2000E+01
    -26.954  0.0000E+00  0.0000E+00  0.2000E+01  0.2000E+01
    -26.739  0.0000E+00  0.0000E+00  0.2000E+01  0.2000E+01
    -26.523  0.0000E+00  0.0000E+00  0.2000E+01  0.2000E+01
    -26.307  0.0000E+00  0.0000E+00  0.2000E+01  0.2000E+01
    -26.091  0.0000E+00  0.0000E+00  0.2000E+01  0.2000E+01
    -25.875  0.0000E+00  0.0000E+00  0.2000E+01  0.2000E+01
    -25.659  0.0000E+00  0.0000E+00  0.2000E+01  0.2000E+01
    -25.443  0.0000E+00  0.0000E+00  0.2000E+01  0.2000E+01
    -25.227  0.0000E+00  0.0000E+00  0.2000E+01  0.2000E+01
    -25.012  0.0000E+00  0.0000E+00  0.2000E+01  0.2000E+01
    -24.796  0.0000E+00  0.0000E+00  0.2000E+01  0.2000E+01
    -24.580  0.0000E+00  0.0000E+00  0.2000E+01  0.2000E+01
    -24.364  0.0000E+00  0.0000E+00  0.2000E+01  0.2000E+01
    -24.148  0.0000E+00  0.0000E+00  0.2000E+01  0.2000E+01
    -23.932  0.0000E+00  0.0000E+00  0.2000E+01  0.2000E+01
    -23.716  0.0000E+00  0.0000E+00  0.2000E+01  0.2000E+01
    -23.500  0.0000E+00  0.0000E+00  0.2000E+01  0.2000E+01
    -23.284  0.0000E+00  0.0000E+00  0.2000E+01  0.2000E+01
    -23.069  0.0000E+00  0.0000E+00  0.2000E+01  0.2000E+01
    -22.853  0.0000E+00  0.0000E+00  0.2000E+01  0.2000E+01
    -22.637  0.0000E+00  0.0000E+00  0.2000E+01  0.2000E+01
    -22.421  0.0000E+00  0.0000E+00  0.2000E+01  0.2000E+01
    -22.205  0.0000E+00  0.0000E+00  0.2000E+01  0.2000E+01
    -21.989  0.0000E+00  0.0000E+00  0.2000E+01  0.2000E+01
    -21.773  0.0000E+00  0.0000E+00  0.2000E+01  0.2000E+01
    -21.557  0.0000E+00  0.0000E+00  0.2000E+01  0.2000E+01
    -21.341  0.0000E+00  0.0000E+00  0.2000E+01  0.2000E+01
    -21.126  0.0000E+00  0.0000E+00  0.2000E+01  0.2000E+01
    -20.910  0.0000E+00  0.0000E+00  0.2000E+01  0.2000E+01
    -20.694  0.0000E+00  0.0000E+00  0.2000E+01  0.2000E+01
    -20.478  0.0000E+00  0.0000E+00  0.2000E+01  0.2000E+01
    -20.262  0.0000E+00  0.0000E+00  0.2000E+01  0.2000E+01
    -20.046  0.0000E+00  0.0000E+00  0.2000E+01  0.2000E+01
    -19.830  0.0000E+00  0.0000E+00  0.2000E+01  0.2000E+01
    -19.614  0.0000E+00  0.0000E+00  0.2000E+01  0.2000E+01
    -19.399  0.0000E+00  0.0000E+00  0.2000E+01  0.2000E+01
    -19.183  0.0000E+00  0.0000E+00  0.2000E+01  0.2000E+01
    -18.967  0.0000E+00  0.0000E+00  0.2000E+01  0.2000E+01
    -18.751  0.0000E+00  0.0000E+00  0.2000E+01  0.2000E+01
    -18.535  0.0000E+00  0.0000E+00  0.2000E+01  0.2000E+01
    -18.319  0.0000E+00  0.0000E+00  0.2000E+01  0.2000E+01
    -18.103  0.0000E+00  0.0000E+00  0.2000E+01  0.2000E+01
    -17.887  0.0000E+00  0.0000E+00  0.2000E+01  0.2000E+01
    -17.671  0.0000E+00  0.0000E+00  0.2000E+01  0.2000E+01
    -17.456  0.8931E-05  0.8945E-05  0.2000E+01  0.2000E+01
    -17.240  0.9438E-03  0.9452E-03  0.2000E+01  0.2000E+01
    -17.024  0.6302E-01  0.6309E-01  0.2014E+01  0.2014E+01
    -16.808  0.1357E+01  0.1358E+01  0.2307E+01  0.2307E+01
    -16.592  0.4062E+01  0.4062E+01  0.3184E+01  0.3184E+01
    -16.376  0.2998E+01  0.2998E+01  0.3834E+01  0.3835E+01
    -16.160  0.3307E+01  0.3307E+01  0.4553E+01  0.4553E+01
    -15.944  0.5230E+01  0.5230E+01  0.5686E+01  0.5686E+01
    -15.729  0.7422E+01  0.7422E+01  0.7292E+01  0.7292E+01
    -15.513  0.3073E+01  0.3073E+01  0.7963E+01  0.7963E+01
    -15.297  0.1272E+00  0.1272E+00  0.8000E+01  0.8000E+01
    -15.081  0.0000E+00  0.0000E+00  0.8000E+01  0.8000E+01
    -14.865  0.0000E+00  0.0000E+00  0.8000E+01  0.8000E+01
    -14.649  0.0000E+00  0.0000E+00  0.8000E+01  0.8000E+01
    -14.433  0.0000E+00  0.0000E+00  0.8000E+01  0.8000E+01
    -14.217  0.0000E+00  0.0000E+00  0.8000E+01  0.8000E+01
    -14.001  0.0000E+00  0.0000E+00  0.8000E+01  0.8000E+01
    -13.786  0.0000E+00  0.0000E+00  0.8000E+01  0.8000E+01
    -13.570  0.0000E+00  0.0000E+00  0.8000E+01  0.8000E+01
    -13.354  0.0000E+00  0.0000E+00  0.8000E+01  0.8000E+01
    -13.138  0.0000E+00  0.0000E+00  0.8000E+01  0.8000E+01
    -12.922  0.0000E+00  0.0000E+00  0.8000E+01  0.8000E+01
    -12.706  0.0000E+00  0.0000E+00  0.8000E+01  0.8000E+01
    -12.490  0.0000E+00  0.0000E+00  0.8000E+01  0.8000E+01
    -12.274  0.0000E+00  0.0000E+00  0.8000E+01  0.8000E+01
    -12.058  0.0000E+00  0.0000E+00  0.8000E+01  0.8000E+01
    -11.843  0.0000E+00  0.0000E+00  0.8000E+01  0.8000E+01
    -11.627  0.0000E+00  0.0000E+00  0.8000E+01  0.8000E+01
    -11.411  0.0000E+00  0.0000E+00  0.8000E+01  0.8000E+01
    -11.195  0.0000E+00  0.0000E+00  0.8000E+01  0.8000E+01
    -10.979  0.0000E+00  0.0000E+00  0.8000E+01  0.8000E+01
    -10.763  0.0000E+00  0.0000E+00  0.8000E+01  0.8000E+01
    -10.547  0.0000E+00  0.0000E+00  0.8000E+01  0.8000E+01
    -10.331  0.0000E+00  0.0000E+00  0.8000E+01  0.8000E+01
    -10.116  0.0000E+00  0.0000E+00  0.8000E+01  0.8000E+01
     -9.900  0.0000E+00  0.0000E+00  0.8000E+01  0.8000E+01
     -9.684  0.0000E+00  0.0000E+00  0.8000E+01  0.8000E+01
     -9.468  0.0000E+00  0.0000E+00  0.8000E+01  0.8000E+01
     -9.252  0.0000E+00  0.0000E+00  0.8000E+01  0.8000E+01
     -9.036  0.0000E+00  0.0000E+00  0.8000E+01  0.8000E+01
     -8.820  0.0000E+00  0.0000E+00  0.8000E+01  0.8000E+01
     -8.604  0.0000E+00  0.0000E+00  0.8000E+01  0.8000E+01
     -8.388  0.0000E+00  0.0000E+00  0.8000E+01  0.8000E+01
     -8.173  0.0000E+00  0.0000E+00  0.8000E+01  0.8000E+01
     -7.957  0.0000E+00  0.0000E+00  0.8000E+01  0.8000E+01
     -7.741  0.0000E+00  0.0000E+00  0.8000E+01  0.8000E+01
     -7.525  0.0000E+00  0.0000E+00  0.8000E+01  0.8000E+01
     -7.309  0.0000E+00  0.0000E+00  0.8000E+01  0.8000E+01
     -7.093  0.0000E+00  0.0000E+00  0.8000E+01  0.8000E+01
     -6.877  0.0000E+00  0.0000E+00  0.8000E+01  0.8000E+01
     -6.661  0.0000E+00  0.0000E+00  0.8000E+01  0.8000E+01
     -6.445  0.0000E+00  0.0000E+00  0.8000E+01  0.8000E+01
     -6.230  0.0000E+00  0.0000E+00  0.8000E+01  0.8000E+01
     -6.014  0.0000E+00  0.0000E+00  0.8000E+01  0.8000E+01
     -5.798  0.0000E+00  0.0000E+00  0.8000E+01  0.8000E+01
     -5.582  0.0000E+00  0.0000E+00  0.8000E+01  0.8000E+01
     -5.366  0.0000E+00  0.0000E+00  0.8000E+01  0.8000E+01
     -5.150  0.0000E+00  0.0000E+00  0.8000E+01  0.8000E+01
     -4.934  0.0000E+00  0.0000E+00  0.8000E+01  0.8000E+01
     -4.718  0.0000E+00  0.0000E+00  0.8000E+01  0.8000E+01
     -4.503  0.0000E+00  0.0000E+00  0.8000E+01  0.8000E+01
     -4.287  0.0000E+00  0.0000E+00  0.8000E+01  0.8000E+01
     -4.071  0.0000E+00  0.0000E+00  0.8000E+01  0.8000E+01
     -3.855  0.0000E+00  0.0000E+00  0.8000E+01  0.8000E+01
     -3.639  0.0000E+00  0.0000E+00  0.8000E+01  0.8000E+01
     -3.423  0.0000E+00  0.0000E+00  0.8000E+01  0.8000E+01
     -3.207  0.0000E+00  0.0000E+00  0.8000E+01  0.8000E+01
     -2.991  0.0000E+00  0.0000E+00  0.8000E+01  0.8000E+01
     -2.775  0.0000E+00  0.0000E+00  0.8000E+01  0.8000E+01
     -2.560  0.0000E+00  0.0000E+00  0.8000E+01  0.8000E+01
     -2.344  0.0000E+00  0.0000E+00  0.8000E+01  0.8000E+01
     -2.128  0.0000E+00  0.0000E+00  0.8000E+01  0.8000E+01
     -1.912  0.0000E+00  0.0000E+00  0.8000E+01  0.8000E+01
     -1.696  0.0000E+00  0.0000E+00  0.8000E+01  0.8000E+01
     -1.480  0.0000E+00  0.0000E+00  0.8000E+01  0.8000E+01
     -1.264  0.0000E+00  0.0000E+00  0.8000E+01  0.8000E+01
     -1.048  0.0000E+00  0.0000E+00  0.8000E+01  0.8000E+01
     -0.833  0.0000E+00  0.0000E+00  0.8000E+01  0.8000E+01
     -0.617  0.0000E+00  0.0000E+00  0.8000E+01  0.8000E+01
     -0.401  0.0000E+00  0.0000E+00  0.8000E+01  0.8000E+01
     -0.185  0.0000E+00  0.0000E+00  0.8000E+01  0.8000E+01
      0.031  0.0000E+00  0.0000E+00  0.8000E+01  0.8000E+01
      0.247  0.0000E+00  0.0000E+00  0.8000E+01  0.8000E+01
      0.463  0.0000E+00  0.0000E+00  0.8000E+01  0.8000E+01
      0.679  0.0000E+00  0.0000E+00  0.8000E+01  0.8000E+01
      0.895  0.0000E+00  0.0000E+00  0.8000E+01  0.8000E+01
      1.110  0.0000E+00  0.0000E+00  0.8000E+01  0.8000E+01
      1.326  0.0000E+00  0.0000E+00  0.8000E+01  0.8000E+01
      1.542  0.0000E+00  0.0000E+00  0.8000E+01  0.8000E+01
      1.758  0.0000E+00  0.0000E+00  0.8000E+01  0.8000E+01
      1.974  0.0000E+00  0.0000E+00  0.8000E+01  0.8000E+01
      2.190  0.0000E+00  0.0000E+00  0.8000E+01  0.8000E+01
      2.406  0.0000E+00  0.0000E+00  0.8000E+01  0.8000E+01
      2.622  0.0000E+00  0.0000E+00  0.8000E+01  0.8000E+01
      2.838  0.0000E+00  0.0000E+00  0.8000E+01  0.8000E+01
      3.053  0.0000E+00  0.0000E+00  0.8000E+01  0.8000E+01
      3.269  0.0000E+00  0.0000E+00  0.8000E+01  0.8000E+01
      3.485  0.0000E+00  0.0000E+00  0.8000E+01  0.8000E+01
      3.701  0.0000E+00  0.0000E+00  0.8000E+01  0.8000E+01
      3.917  0.0000E+00  0.0000E+00  0.8000E+01  0.8000E+01
      4.133  0.9655E-06  0.9842E-06  0.8000E+01  0.8000E+01
      4.349  0.7192E-04  0.7329E-04  0.8000E+01  0.8000E+01
      4.565  0.2996E-02  0.3032E-02  0.8001E+01  0.8001E+01
      4.780  0.2472E-01  0.2487E-01  0.8006E+01  0.8006E+01
      4.996  0.3983E-01  0.3977E-01  0.8015E+01  0.8015E+01
      5.212  0.6432E-01  0.6465E-01  0.8029E+01  0.8029E+01
      5.428  0.7793E-01  0.7776E-01  0.8045E+01  0.8045E+01
      5.644  0.7092E-01  0.7109E-01  0.8061E+01  0.8061E+01
      5.860  0.1193E+00  0.1194E+00  0.8087E+01  0.8087E+01
      6.076  0.1246E+00  0.1249E+00  0.8114E+01  0.8114E+01
      6.292  0.1496E+00  0.1493E+00  0.8146E+01  0.8146E+01
      6.508  0.1167E+00  0.1172E+00  0.8171E+01  0.8172E+01
      6.723  0.2882E+00  0.2884E+00  0.8234E+01  0.8234E+01
      6.939  0.2961E+00  0.2962E+00  0.8298E+01  0.8298E+01
      7.155  0.7278E+00  0.7295E+00  0.8455E+01  0.8456E+01
      7.371  0.9939E+00  0.9941E+00  0.8670E+01  0.8671E+01
      7.587  0.1143E+01  0.1143E+01  0.8918E+01  0.8919E+01
      7.803  0.1154E+01  0.1154E+01  0.9169E+01  0.9170E+01
      8.019  0.1371E+01  0.1372E+01  0.9466E+01  0.9467E+01
      8.235  0.1295E+01  0.1293E+01  0.9747E+01  0.9747E+01
      8.451  0.8224E+00  0.8223E+00  0.9927E+01  0.9927E+01
      8.666  0.9763E+00  0.9765E+00  0.1014E+02  0.1014E+02
      8.882  0.1061E+01  0.1061E+01  0.1037E+02  0.1037E+02
      9.098  0.1169E+01  0.1169E+01  0.1062E+02  0.1062E+02
      9.314  0.1260E+01  0.1261E+01  0.1090E+02  0.1090E+02
      9.530  0.1319E+01  0.1318E+01  0.1118E+02  0.1118E+02
      9.746  0.1416E+01  0.1417E+01  0.1149E+02  0.1149E+02
      9.962  0.1184E+01  0.1183E+01  0.1175E+02  0.1175E+02
     10.178  0.4523E+00  0.4520E+00  0.1185E+02  0.1185E+02
     10.393  0.7565E+00  0.7574E+00  0.1201E+02  0.1201E+02
     10.609  0.1434E+01  0.1435E+01  0.1232E+02  0.1232E+02
     10.825  0.1522E+01  0.1522E+01  0.1265E+02  0.1265E+02
     11.041  0.1551E+01  0.1552E+01  0.1299E+02  0.1299E+02
     11.257  0.1295E+01  0.1294E+01  0.1327E+02  0.1327E+02
     11.473  0.1547E+01  0.1548E+01  0.1360E+02  0.1361E+02
     11.689  0.1706E+01  0.1706E+01  0.1398E+02  0.1398E+02
     11.905  0.1716E+01  0.1716E+01  0.1435E+02  0.1435E+02
     12.121  0.1543E+01  0.1543E+01  0.1468E+02  0.1468E+02
     12.336  0.1119E+01  0.1119E+01  0.1493E+02  0.1493E+02
     12.552  0.8785E+00  0.8780E+00  0.1512E+02  0.1512E+02
     12.768  0.7570E+00  0.7572E+00  0.1528E+02  0.1528E+02
     12.984  0.7654E+00  0.7650E+00  0.1545E+02  0.1545E+02
     13.200  0.4725E+00  0.4727E+00  0.1555E+02  0.1555E+02
     13.416  0.7930E+00  0.7930E+00  0.1572E+02  0.1572E+02
     13.632  0.6422E+00  0.6419E+00  0.1586E+02  0.1586E+02
     13.848  0.4497E+00  0.4499E+00  0.1596E+02  0.1596E+02
     14.063  0.7050E+00  0.7051E+00  0.1611E+02  0.1611E+02
     14.279  0.7215E+00  0.7215E+00  0.1627E+02  0.1627E+02
     14.495  0.6567E+00  0.6566E+00  0.1641E+02  0.1641E+02
     14.711  0.6603E+00  0.6605E+00  0.1656E+02  0.1656E+02
     14.927  0.8876E+00  0.8879E+00  0.1675E+02  0.1675E+02
     15.143  0.1083E+01  0.1081E+01  0.1698E+02  0.1698E+02
     15.359  0.1325E+01  0.1325E+01  0.1727E+02  0.1727E+02
     15.575  0.1422E+01  0.1422E+01  0.1758E+02  0.1758E+02
     15.791  0.1206E+01  0.1206E+01  0.1784E+02  0.1784E+02
     16.006  0.1717E+01  0.1717E+01  0.1821E+02  0.1821E+02
     16.222  0.1387E+01  0.1387E+01  0.1851E+02  0.1851E+02
     16.438  0.1008E+01  0.1008E+01  0.1873E+02  0.1873E+02
     16.654  0.4665E+00  0.4664E+00  0.1884E+02  0.1884E+02
     16.870  0.5565E+00  0.5567E+00  0.1896E+02  0.1896E+02
     17.086  0.5657E+00  0.5655E+00  0.1908E+02  0.1908E+02
     17.302  0.3431E+00  0.3433E+00  0.1915E+02  0.1915E+02
     17.518  0.3569E+00  0.3575E+00  0.1923E+02  0.1923E+02
     17.734  0.3845E+00  0.3883E+00  0.1932E+02  0.1932E+02
     17.949  0.4965E+00  0.4938E+00  0.1942E+02  0.1942E+02
     18.165  0.4474E+00  0.4465E+00  0.1952E+02  0.1952E+02
     18.381  0.5652E+00  0.5694E+00  0.1964E+02  0.1964E+02
     18.597  0.3785E+00  0.3659E+00  0.1973E+02  0.1972E+02
     18.813  0.3720E+00  0.3613E+00  0.1981E+02  0.1980E+02
     19.029  0.1984E+00  0.2157E+00  0.1985E+02  0.1985E+02
     19.245  0.1348E+00  0.1346E+00  0.1988E+02  0.1988E+02
     19.461  0.1288E+00  0.1296E+00  0.1991E+02  0.1991E+02
     19.676  0.1931E+00  0.1928E+00  0.1995E+02  0.1995E+02
     19.892  0.8063E-01  0.8018E-01  0.1997E+02  0.1997E+02
     20.108  0.3733E-01  0.3008E-01  0.1997E+02  0.1997E+02
     20.324  0.8398E-01  0.4821E-01  0.1999E+02  0.1998E+02
     20.540  0.3103E-01  0.4158E-01  0.2000E+02  0.1999E+02
     20.756  0.0000E+00  0.3101E-01  0.2000E+02  0.2000E+02
     20.972  0.0000E+00  0.2170E-02  0.2000E+02  0.2000E+02
     21.188  0.0000E+00  0.0000E+00  0.2000E+02  0.2000E+02
     21.404  0.0000E+00  0.0000E+00  0.2000E+02  0.2000E+02
     21.619  0.0000E+00  0.0000E+00  0.2000E+02  0.2000E+02
     21.835  0.0000E+00  0.0000E+00  0.2000E+02  0.2000E+02
     22.051  0.0000E+00  0.0000E+00  0.2000E+02  0.2000E+02
     22.267  0.0000E+00  0.0000E+00  0.2000E+02  0.2000E+02
     22.483  0.0000E+00  0.0000E+00  0.2000E+02  0.2000E+02
     22.699  0.0000E+00  0.0000E+00  0.2000E+02  0.2000E+02
     22.915  0.0000E+00  0.0000E+00  0.2000E+02  0.2000E+02
     23.131  0.0000E+00  0.0000E+00  0.2000E+02  0.2000E+02
     23.347  0.0000E+00  0.0000E+00  0.2000E+02  0.2000E+02
     23.562  0.0000E+00  0.0000E+00  0.2000E+02  0.2000E+02
     23.56238756    -41.20283361  301     10.38184376      1.00000000
    -41.203  0.0000E+00  0.0000E+00  0.0000E+00  0.0000E+00  0.0000E+00  0.0000E+00  0.0000E+00  0.0000E+00  0.0000E+00  0.0000E+00  0.0000E+00  0.0000E+00  0.0000E+00  0.0000E+00  0.0000E+00  0.0000E+00  0.0000E+00  0.0000E+00
    -40.987  0.0000E+00  0.0000E+00  0.0000E+00  0.0000E+00  0.0000E+00  0.0000E+00  0.0000E+00  0.0000E+00  0.0000E+00  0.0000E+00  0.0000E+00  0.0000E+00  0.0000E+00  0.0000E+00  0.0000E+00  0.0000E+00  0.0000E+00  0.0000E+00
    -40.771  0.0000E+00  0.0000E+00  0.0000E+00  0.0000E+00  0.0000E+00  0.0000E+00  0.0000E+00  0.0000E+00  0.0000E+00  0.0000E+00  0.0000E+00  0.0000E+00  0.0000E+00  0.0000E+00  0.0000E+00  0.0000E+00  0.0000E+00  0.0000E+00
    -40.555  0.0000E+00  0.0000E+00  0.0000E+00  0.0000E+00  0.0000E+00  0.0000E+00  0.0000E+00  0.0000E+00  0.0000E+00  0.0000E+00  0.0000E+00  0.0000E+00  0.0000E+00  0.0000E+00  0.0000E+00  0.0000E+00  0.0000E+00  0.0000E+00
    -40.339  0.0000E+00  0.0000E+00  0.0000E+00  0.0000E+00  0.0000E+00  0.0000E+00  0.0000E+00  0.0000E+00  0.0000E+00  0.0000E+00  0.0000E+00  0.0000E+00  0.0000E+00  0.0000E+00  0.0000E+00  0.0000E+00  0.0000E+00  0.0000E+00
    -40.123  0.0000E+00  0.0000E+00  0.0000E+00  0.0000E+00  0.0000E+00  0.0000E+00  0.0000E+00  0.0000E+00  0.0000E+00  0.0000E+00  0.0000E+00  0.0000E+00  0.0000E+00  0.0000E+00  0.0000E+00  0.0000E+00  0.0000E+00  0.0000E+00
    -39.908  0.0000E+00  0.0000E+00  0.0000E+00  0.0000E+00  0.0000E+00  0.0000E+00  0.0000E+00  0.0000E+00  0.0000E+00  0.0000E+00  0.0000E+00  0.0000E+00  0.0000E+00  0.0000E+00  0.0000E+00  0.0000E+00  0.0000E+00  0.0000E+00
    -39.692  0.0000E+00  0.0000E+00  0.0000E+00  0.0000E+00  0.0000E+00  0.0000E+00  0.0000E+00  0.0000E+00  0.0000E+00  0.0000E+00  0.0000E+00  0.0000E+00  0.0000E+00  0.0000E+00  0.0000E+00  0.0000E+00  0.0000E+00  0.0000E+00
    -39.476  0.0000E+00  0.0000E+00  0.0000E+00  0.0000E+00  0.0000E+00  0.0000E+00  0.0000E+00  0.0000E+00  0.0000E+00  0.0000E+00  0.0000E+00  0.0000E+00  0.0000E+00  0.0000E+00  0.0000E+00  0.0000E+00  0.0000E+00  0.0000E+00
    -39.260  0.0000E+00  0.0000E+00  0.0000E+00  0.0000E+00  0.0000E+00  0.0000E+00  0.0000E+00  0.0000E+00  0.0000E+00  0.0000E+00  0.0000E+00  0.0000E+00  0.0000E+00  0.0000E+00  0.0000E+00  0.0000E+00  0.0000E+00  0.0000E+00
    -39.044  0.0000E+00  0.0000E+00  0.0000E+00  0.0000E+00  0.0000E+00  0.0000E+00  0.0000E+00  0.0000E+00  0.0000E+00  0.0000E+00  0.0000E+00  0.0000E+00  0.0000E+00  0.0000E+00  0.0000E+00  0.0000E+00  0.0000E+00  0.0000E+00
    -38.828  0.5790E-06  0.5803E-06  0.6189E-11  0.6213E-11  0.6836E-11  0.6859E-11  0.6189E-11  0.6213E-11  0.2426E-12  0.2443E-12  0.9271E-13  0.9309E-13  0.8868E-12  0.8915E-12  0.9271E-13  0.9309E-13  0.2426E-12  0.2443E-12
    -38.612  0.1360E-03  0.1363E-03  0.2768E-08  0.2778E-08  0.3093E-08  0.3101E-08  0.2768E-08  0.2778E-08  0.4425E-09  0.4437E-09  0.3008E-09  0.3016E-09  0.6549E-09  0.6569E-09  0.3008E-09  0.3016E-09  0.4425E-09  0.4437E-09
    -38.396  0.1033E-01  0.1035E-01  0.2045E-06  0.2052E-06  0.2293E-06  0.2299E-06  0.2045E-06  0.2052E-06  0.3451E-07  0.3461E-07  0.2565E-07  0.2571E-07  0.5077E-07  0.5092E-07  0.2565E-07  0.2571E-07  0.3451E-07  0.3461E-07
    -38.180  0.4300E+00  0.4306E+00  0.9194E-05  0.9217E-05  0.1041E-04  0.1043E-04  0.9194E-05  0.9217E-05  0.2030E-05  0.2034E-05  0.1578E-05  0.1581E-05  0.2831E-05  0.2838E-05  0.1578E-05  0.1581E-05  0.2030E-05  0.2034E-05
    -37.965  0.2905E+01  0.2906E+01  0.4129E-04  0.4132E-04  0.4995E-04  0.4996E-04  0.4129E-04  0.4132E-04  0.2093E-04  0.2093E-04  0.2070E-04  0.2070E-04  0.2888E-04  0.2888E-04  0.2070E-04  0.2070E-04  0.2093E-04  0.2093E-04
    -37.749  0.1220E+01  0.1219E+01  0.9444E-05  0.9433E-05  0.1185E-04  0.1183E-04  0.9444E-05  0.9433E-05  0.7787E-05  0.7771E-05  0.9390E-05  0.9374E-05  0.1052E-04  0.1050E-04  0.9390E-05  0.9374E-05  0.7787E-05  0.7771E-05
    -37.533  0.0000E+00  0.0000E+00  0.0000E+00  0.0000E+00  0.0000E+00  0.0000E+00  0.0000E+00  0.0000E+00  0.0000E+00  0.0000E+00  0.0000E+00  0.0000E+00  0.0000E+00  0.0000E+00  0.0000E+00  0.0000E+00  0.0000E+00  0.0000E+00
    -37.317  0.0000E+00  0.0000E+00  0.0000E+00  0.0000E+00  0.0000E+00  0.0000E+00  0.0000E+00  0.0000E+00  0.0000E+00  0.0000E+00  0.0000E+00  0.0000E+00  0.0000E+00  0.0000E+00  0.0000E+00  0.0000E+00  0.0000E+00  0.0000E+00
    -37.101  0.0000E+00  0.0000E+00  0.0000E+00  0.0000E+00  0.0000E+00  0.0000E+00  0.0000E+00  0.0000E+00  0.0000E+00  0.0000E+00  0.0000E+00  0.0000E+00  0.0000E+00  0.0000E+00  0.0000E+00  0.0000E+00  0.0000E+00  0.0000E+00
    -36.885  0.0000E+00  0.0000E+00  0.0000E+00  0.0000E+00  0.0000E+00  0.0000E+00  0.0000E+00  0.0000E+00  0.0000E+00  0.0000E+00  0.0000E+00  0.0000E+00  0.0000E+00  0.0000E+00  0.0000E+00  0.0000E+00  0.0000E+00  0.0000E+00
    -36.669  0.0000E+00  0.0000E+00  0.0000E+00  0.0000E+00  0.0000E+00  0.0000E+00  0.0000E+00  0.0000E+00  0.0000E+00  0.0000E+00  0.0000E+00  0.0000E+00  0.0000E+00  0.0000E+00  0.0000E+00  0.0000E+00  0.0000E+00  0.0000E+00
    -36.453  0.0000E+00  0.0000E+00  0.0000E+00  0.0000E+00  0.0000E+00  0.0000E+00  0.0000E+00  0.0000E+00  0.0000E+00  0.0000E+00  0.0000E+00  0.0000E+00  0.0000E+00  0.0000E+00  0.0000E+00  0.0000E+00  0.0000E+00  0.0000E+00
    -36.237  0.0000E+00  0.0000E+00  0.0000E+00  0.0000E+00  0.0000E+00  0.0000E+00  0.0000E+00  0.0000E+00  0.0000E+00  0.0000E+00  0.0000E+00  0.0000E+00  0.0000E+00  0.0000E+00  0.0000E+00  0.0000E+00  0.0000E+00  0.0000E+00
    -36.022  0.0000E+00  0.0000E+00  0.0000E+00  0.0000E+00  0.0000E+00  0.0000E+00  0.0000E+00  0.0000E+00  0.0000E+00  0.0000E+00  0.0000E+00  0.0000E+00  0.0000E+00  0.0000E+00  0.0000E+00  0.0000E+00  0.0000E+00  0.0000E+00
    -35.806  0.0000E+00  0.0000E+00  0.0000E+00  0.0000E+00  0.0000E+00  0.0000E+00  0.0000E+00  0.0000E+00  0.0000E+00  0.0000E+00  0.0000E+00  0.0000E+00  0.0000E+00  0.0000E+00  0.0000E+00  0.0000E+00  0.0000E+00  0.0000E+00
    -35.590  0.0000E+00  0.0000E+00  0.0000E+00  0.0000E+00  0.0000E+00  0.0000E+00  0.0000E+00  0.0000E+00  0.0000E+00  0.0000E+00  0.0000E+00  0.0000E+00  0.0000E+00  0.0000E+00  0.0000E+00  0.0000E+00  0.0000E+00  0.0000E+00
    -35.374  0.0000E+00  0.0000E+00  0.0000E+00  0.0000E+00  0.0000E+00  0.0000E+00  0.0000E+00  0.0000E+00  0.0000E+00  0.0000E+00  0.0000E+00  0.0000E+00  0.0000E+00  0.0000E+00  0.0000E+00  0.0000E+00  0.0000E+00  0.0000E+00
    -35.158  0.0000E+00  0.0000E+00  0.0000E+00  0.0000E+00  0.0000E+00  0.0000E+00  0.0000E+00  0.0000E+00  0.0000E+00  0.0000E+00  0.0000E+00  0.0000E+00  0.0000E+00  0.0000E+00  0.0000E+00  0.0000E+00  0.0000E+00  0.0000E+00
    -34.942  0.0000E+00  0.0000E+00  0.0000E+00  0.0000E+00  0.0000E+00  0.0000E+00  0.0000E+00  0.0000E+00  0.0000E+00  0.0000E+00  0.0000E+00  0.0000E+00  0.0000E+00  0.0000E+00  0.0000E+00  0.0000E+00  0.0000E+00  0.0000E+00
    -34.726  0.0000E+00  0.0000E+00  0.0000E+00  0.0000E+00  0.0000E+00  0.0000E+00  0.0000E+00  0.0000E+00  0.0000E+00  0.0000E+00  0.0000E+00  0.0000E+00  0.0000E+00  0.0000E+00  0.0000E+00  0.0000E+00  0.0000E+00  0.0000E+00
    -34.510  0.0000E+00  0.0000E+00  0.0000E+00  0.0000E+00  0.0000E+00  0.0000E+00  0.0000E+00  0.0000E+00  0.0000E+00  0.0000E+00  0.0000E+00  0.0000E+00  0.0000E+00  0.0000E+00  0.0000E+00  0.0000E+00  0.0000E+00  0.0000E+00
    -34.295  0.0000E+00  0.0000E+00  0.0000E+00  0.0000E+00  0.0000E+00  0.0000E+00  0.0000E+00  0.0000E+00  0.0000E+00  0.0000E+00  0.0000E+00  0.0000E+00  0.0000E+00  0.0000E+00  0.0000E+00  0.0000E+00  0.0000E+00  0.0000E+00
    -34.079  0.0000E+00  0.0000E+00  0.0000E+00  0.0000E+00  0.0000E+00  0.0000E+00  0.0000E+00  0.0000E+00  0.0000E+00  0.0000E+00  0.0000E+00  0.0000E+00  0.0000E+00  0.0000E+00  0.0000E+00  0.0000E+00  0.0000E+00  0.0000E+00
    -33.863  0.0000E+00  0.0000E+00  0.0000E+00  0.0000E+00  0.0000E+00  0.0000E+00  0.0000E+00  0.0000E+00  0.0000E+00  0.0000E+00  0.0000E+00  0.0000E+00  0.0000E+00  0.0000E+00  0.0000E+00  0.0000E+00  0.0000E+00  0.0000E+00
    -33.647  0.0000E+00  0.0000E+00  0.0000E+00  0.0000E+00  0.0000E+00  0.0000E+00  0.0000E+00  0.0000E+00  0.0000E+00  0.0000E+00  0.0000E+00  0.0000E+00  0.0000E+00  0.0000E+00  0.0000E+00  0.0000E+00  0.0000E+00  0.0000E+00
    -33.431  0.0000E+00  0.0000E+00  0.0000E+00  0.0000E+00  0.0000E+00  0.0000E+00  0.0000E+00  0.0000E+00  0.0000E+00  0.0000E+00  0.0000E+00  0.0000E+00  0.0000E+00  0.0000E+00  0.0000E+00  0.0000E+00  0.0000E+00  0.0000E+00
    -33.215  0.0000E+00  0.0000E+00  0.0000E+00  0.0000E+00  0.0000E+00  0.0000E+00  0.0000E+00  0.0000E+00  0.0000E+00  0.0000E+00  0.0000E+00  0.0000E+00  0.0000E+00  0.0000E+00  0.0000E+00  0.0000E+00  0.0000E+00  0.0000E+00
    -32.999  0.0000E+00  0.0000E+00  0.0000E+00  0.0000E+00  0.0000E+00  0.0000E+00  0.0000E+00  0.0000E+00  0.0000E+00  0.0000E+00  0.0000E+00  0.0000E+00  0.0000E+00  0.0000E+00  0.0000E+00  0.0000E+00  0.0000E+00  0.0000E+00
    -32.783  0.0000E+00  0.0000E+00  0.0000E+00  0.0000E+00  0.0000E+00  0.0000E+00  0.0000E+00  0.0000E+00  0.0000E+00  0.0000E+00  0.0000E+00  0.0000E+00  0.0000E+00  0.0000E+00  0.0000E+00  0.0000E+00  0.0000E+00  0.0000E+00
    -32.567  0.0000E+00  0.0000E+00  0.0000E+00  0.0000E+00  0.0000E+00  0.0000E+00  0.0000E+00  0.0000E+00  0.0000E+00  0.0000E+00  0.0000E+00  0.0000E+00  0.0000E+00  0.0000E+00  0.0000E+00  0.0000E+00  0.0000E+00  0.0000E+00
    -32.352  0.0000E+00  0.0000E+00  0.0000E+00  0.0000E+00  0.0000E+00  0.0000E+00  0.0000E+00  0.0000E+00  0.0000E+00  0.0000E+00  0.0000E+00  0.0000E+00  0.0000E+00  0.0000E+00  0.0000E+00  0.0000E+00  0.0000E+00  0.0000E+00
    -32.136  0.0000E+00  0.0000E+00  0.0000E+00  0.0000E+00  0.0000E+00  0.0000E+00  0.0000E+00  0.0000E+00  0.0000E+00  0.0000E+00  0.0000E+00  0.0000E+00  0.0000E+00  0.0000E+00  0.0000E+00  0.0000E+00  0.0000E+00  0.0000E+00
    -31.920  0.0000E+00  0.0000E+00  0.0000E+00  0.0000E+00  0.0000E+00  0.0000E+00  0.0000E+00  0.0000E+00  0.0000E+00  0.0000E+00  0.0000E+00  0.0000E+00  0.0000E+00  0.0000E+00  0.0000E+00  0.0000E+00  0.0000E+00  0.0000E+00
    -31.704  0.0000E+00  0.0000E+00  0.0000E+00  0.0000E+00  0.0000E+00  0.0000E+00  0.0000E+00  0.0000E+00  0.0000E+00  0.0000E+00  0.0000E+00  0.0000E+00  0.0000E+00  0.0000E+00  0.0000E+00  0.0000E+00  0.0000E+00  0.0000E+00
    -31.488  0.0000E+00  0.0000E+00  0.0000E+00  0.0000E+00  0.0000E+00  0.0000E+00  0.0000E+00  0.0000E+00  0.0000E+00  0.0000E+00  0.0000E+00  0.0000E+00  0.0000E+00  0.0000E+00  0.0000E+00  0.0000E+00  0.0000E+00  0.0000E+00
    -31.272  0.0000E+00  0.0000E+00  0.0000E+00  0.0000E+00  0.0000E+00  0.0000E+00  0.0000E+00  0.0000E+00  0.0000E+00  0.0000E+00  0.0000E+00  0.0000E+00  0.0000E+00  0.0000E+00  0.0000E+00  0.0000E+00  0.0000E+00  0.0000E+00
    -31.056  0.0000E+00  0.0000E+00  0.0000E+00  0.0000E+00  0.0000E+00  0.0000E+00  0.0000E+00  0.0000E+00  0.0000E+00  0.0000E+00  0.0000E+00  0.0000E+00  0.0000E+00  0.0000E+00  0.0000E+00  0.0000E+00  0.0000E+00  0.0000E+00
    -30.840  0.0000E+00  0.0000E+00  0.0000E+00  0.0000E+00  0.0000E+00  0.0000E+00  0.0000E+00  0.0000E+00  0.0000E+00  0.0000E+00  0.0000E+00  0.0000E+00  0.0000E+00  0.0000E+00  0.0000E+00  0.0000E+00  0.0000E+00  0.0000E+00
    -30.625  0.0000E+00  0.0000E+00  0.0000E+00  0.0000E+00  0.0000E+00  0.0000E+00  0.0000E+00  0.0000E+00  0.0000E+00  0.0000E+00  0.0000E+00  0.0000E+00  0.0000E+00  0.0000E+00  0.0000E+00  0.0000E+00  0.0000E+00  0.0000E+00
    -30.409  0.0000E+00  0.0000E+00  0.0000E+00  0.0000E+00  0.0000E+00  0.0000E+00  0.0000E+00  0.0000E+00  0.0000E+00  0.0000E+00  0.0000E+00  0.0000E+00  0.0000E+00  0.0000E+00  0.0000E+00  0.0000E+00  0.0000E+00  0.0000E+00