 vasp.6.1.0 28Jan20 (build Jun 11 2020 16:13:15) complex                        
  
 executed on             LinuxIFC date 2021.04.16  00:08:24
 running on    4 total cores
 distrk:  each k-point on    4 cores,    1 groups
 distr:  one band on NCORE=   1 cores,    4 groups


--------------------------------------------------------------------------------------------------------


 INCAR:
 POTCAR:    PAW_PBE Zr_sv 04Jan2005               
 POTCAR:    PAW_PBE Zr_sv 04Jan2005               
   SHA256 =  25aed69cb10325f9d37c5c68912b61a17387d1f8e4f1d804860ffa10c8a4bf76 Zr_sv/POTCAR          
   COPYR  = (c) Copyright 04Jan2005 Georg Kresse                                                    
   COPYR  = This file is part of the software VASP. Any use, copying, and all other rights are regul
   COPYR  = If you do not have a valid VASP license, you may not use, copy or distribute this file. 
   VRHFIN =Zr: 4s4p5s4d                                                                             
   LEXCH  = PE                                                                                      
   EATOM  =  1284.2219 eV,   94.3876 Ry                                                             
                                                                                                    
   TITEL  = PAW_PBE Zr_sv 04Jan2005                                                                 
   LULTRA =        F    use ultrasoft PP ?                                                          
   IUNSCR =        1    unscreen: 0-lin 1-nonlin 2-no                                               
   RPACOR =    2.200    partial core radius                                                         
   POMASS =   91.224; ZVAL   =   12.000    mass and valenz                                          
   RCORE  =    2.500    outmost cutoff radius                                                       
   RWIGS  =    3.070; RWIGS  =    1.625    wigner-seitz radius (au A)                               
   ENMAX  =  229.898; ENMIN  =  172.424 eV                                                          
   ICORE  =        3    local potential                                                             
   LCOR   =        T    correct aug charges                                                         
   LPAW   =        T    paw PP                                                                      
   EAUG   =  461.257                                                                                
   DEXC   =    0.000                                                                                
   RMAX   =    2.561    core radius for proj-oper                                                   
   RAUG   =    1.300    factor for augmentation sphere                                              
   RDEP   =    2.597    radius for radial grids                                                     
   RDEPT  =    2.007    core radius for aug-charge                                                  
                                                                                                    
   Atomic configuration                                                                             
   11 entries                                                                                       
     n  l   j            E        occ.                                                              
     1  0  0.50    -17820.0161   2.0000                                                             
     2  0  0.50     -2467.0882   2.0000                                                             
     2  1  1.50     -2199.6095   6.0000                                                             
     3  0  0.50      -402.4863   2.0000                                                             
     3  1  1.50      -315.3675   6.0000                                                             
     3  2  2.50      -172.4472  10.0000                                                             
     4  0  0.50       -52.4146   2.0000                                                             
     5  0  0.50        -3.8421   1.0000                                                             
     4  1  1.50       -30.5054   6.0000                                                             
     4  2  2.50        -2.3341   3.0000                                                             
     4  3  2.50        -1.3606   0.0000                                                             
   Description                                                                                      
     l       E           TYP  RCUT    TYP  RCUT                                                     
     0    -52.4145962     23  2.200                                                                 
     0     -3.8421270     23  2.500                                                                 
     1    -30.5053914     23  2.200                                                                 
     1     20.4087390     23  2.200                                                                 
     2     -2.3340816     23  2.500                                                                 
     2     -0.6120942     23  2.500                                                                 
     3     -4.0817478     23  2.500                                                                 
  local pseudopotential read in
  partial core-charges read in
  partial kinetic energy density read in
  atomic valenz-charges read in
  non local Contribution for L=           0  read in
    real space projection operators read in
  non local Contribution for L=           0  read in
    real space projection operators read in
  non local Contribution for L=           1  read in
    real space projection operators read in
  non local Contribution for L=           1  read in
    real space projection operators read in
  non local Contribution for L=           2  read in
    real space projection operators read in
  non local Contribution for L=           2  read in
    real space projection operators read in
    PAW grid and wavefunctions read in
 
   number of l-projection  operators is LMAX  =           6
   number of lm-projection operators is LMMAX =          18
 
  PAW_PBE Zr_sv 04Jan2005               :
 energy of atom  1       EATOM=-1284.2219
 kinetic energy error for atom=    0.0043 (will be added to EATOM!!)
 
 
 POSCAR: Zr2
  positions in direct lattice
  velocities in cartesian coordinates
 exchange correlation table for  LEXCH =        8
   RHO(1)=    0.500       N(1)  =     2000
   RHO(2)=  100.500       N(2)  =     4000
 


--------------------------------------------------------------------------------------------------------


 ion  position               nearest neighbor table
   1  0.333  0.667  0.250-   2 3.19   2 3.19   2 3.19   2 3.19   2 3.19   2 3.19
   2  0.667  0.333  0.750-   1 3.19   1 3.19   1 3.19   1 3.19   1 3.19   1 3.19
 
 -----------------------------------------------------------------------------
|                                                                             |
|           W    W    AA    RRRRR   N    N  II  N    N   GGGG   !!!           |
|           W    W   A  A   R    R  NN   N  II  NN   N  G    G  !!!           |
|           W    W  A    A  R    R  N N  N  II  N N  N  G       !!!           |
|           W WW W  AAAAAA  RRRRR   N  N N  II  N  N N  G  GGG   !            |
|           WW  WW  A    A  R   R   N   NN  II  N   NN  G    G                |
|           W    W  A    A  R    R  N    N  II  N    N   GGGG   !!!           |
|                                                                             |
|     The determination of the symmetry of your systems shows a strong        |
|     dependence on the tolerance parameter SYMPREC. This is often the        |
|     result of "noise" in the structural parameters (lattice vectors         |
|     and/or ionic positions). Set NWRITE=3 for more details.                 |
|                                                                             |
 -----------------------------------------------------------------------------

  LATTYP: Found a hexagonal cell.
 ALAT       =     3.2288608796
 C/A-ratio  =     1.6034689044
  
  Lattice vectors:
  
 A1 = (   3.2288608878,   0.0000000040,   0.0000000000)
 A2 = (  -1.6144299333,   2.7962752459,   0.0000000000)
 A3 = (   0.0000000000,   0.0000000000,   5.1773780171)


Analysis of symmetry for initial positions (statically):
=====================================================================
 Subroutine PRICEL returns:
 Original cell was already a primitive cell.
 

 Routine SETGRP: Setting up the symmetry group for a 
 hexagonal supercell.


 Subroutine GETGRP returns: Found 24 space group operations
 (whereof 12 operations were pure point group operations)
 out of a pool of 24 trial point group operations.


The static configuration has the point symmetry D_3d.
 The point group associated with its full space group is D_6h.


Analysis of symmetry for dynamics (positions and initial velocities):
=====================================================================
 Subroutine PRICEL returns:
 Original cell was already a primitive cell.
 

 Routine SETGRP: Setting up the symmetry group for a 
 hexagonal supercell.


 Subroutine GETGRP returns: Found 24 space group operations
 (whereof 12 operations were pure point group operations)
 out of a pool of 24 trial point group operations.


The dynamic configuration has the point symmetry D_3d.
 The point group associated with its full space group is D_6h.


 Subroutine INISYM returns: Found 24 space group operations
 (whereof 12 operations are pure point group operations),
 and found     1 'primitive' translations


----------------------------------------------------------------------------------------

                                     Primitive cell                                     

  volume of cell :      46.7454

  direct lattice vectors                    reciprocal lattice vectors
     3.228860888  0.000000004  0.000000000     0.309706746  0.178809236  0.000000000
    -1.614429933  2.796275246  0.000000000    -0.000000000  0.357618586  0.000000000
     0.000000000  0.000000000  5.177378017     0.000000000  0.000000000  0.193147960

  length of vectors
     3.228860888  3.228860366  5.177378017     0.357618528  0.357618586  0.193147960

  position of ions in fractional coordinates (direct lattice)
     0.333333000  0.666667000  0.250000000
     0.666667000  0.333333000  0.750000000

  ion indices of the primitive-cell ions
   primitive index   ion index
                 1           1
                 2           2

----------------------------------------------------------------------------------------

 
 
 KPOINTS: k points                                

Automatic generation of k-mesh.
Space group operators:
 irot       det(A)        alpha          n_x          n_y          n_z        tau_x        tau_y        tau_z
    1     1.000000     0.000000     1.000000     0.000000     0.000000     0.000000     0.000000     0.000000
    2    -1.000000     0.000000     1.000000     0.000000     0.000000     0.000000     0.000000     0.000000
    3     1.000000   120.000000     0.000000     0.000000    -1.000000     0.000000     0.000000     0.000000
    4    -1.000000   120.000000     0.000000     0.000000    -1.000000     0.000000     0.000000     0.000000
    5     1.000000   120.000000     0.000000     0.000000     1.000000     0.000000     0.000000     0.000000
    6    -1.000000   120.000000     0.000000     0.000000     1.000000     0.000000     0.000000     0.000000
    7     1.000000   180.000000     1.000000    -0.000000     0.000000     0.000000     0.000000     0.000000
    8    -1.000000   180.000000     1.000000    -0.000000     0.000000     0.000000     0.000000     0.000000
    9     1.000000   180.000000     0.500000    -0.866025     0.000000     0.000000     0.000000     0.000000
   10    -1.000000   180.000000     0.500000    -0.866025     0.000000     0.000000     0.000000     0.000000
   11     1.000000   180.000000    -0.500000    -0.866025     0.000000     0.000000     0.000000     0.000000
   12    -1.000000   180.000000    -0.500000    -0.866025     0.000000     0.000000     0.000000     0.000000
   13     1.000000    60.000000     0.000000     0.000000    -1.000000     0.000001     0.000000    -0.500000
   14    -1.000000    60.000000     0.000000     0.000000    -1.000000     0.000000     0.000000    -0.500000
   15     1.000000   180.000000     0.000000     0.000000     1.000000     0.000000     0.000000    -0.500000
   16    -1.000000   180.000000     0.000000     0.000000     1.000000     0.000000     0.000000    -0.500000
   17     1.000000    60.000000     0.000000     0.000000     1.000000    -0.000000     0.000001    -0.500000
   18    -1.000000    60.000000     0.000000     0.000000     1.000000     0.000000     0.000000    -0.500000
   19     1.000000   180.000000     0.866025    -0.500000     0.000000     0.000000     0.000000    -0.500000
   20    -1.000000   180.000000     0.866025    -0.500000     0.000000     0.000000     0.000000    -0.500000
   21     1.000000   180.000000     0.000000    -1.000000     0.000000     0.000001     0.000000    -0.500000
   22    -1.000000   180.000000     0.000000    -1.000000     0.000000     0.000000     0.000000    -0.500000
   23     1.000000   180.000000     0.866025     0.500000     0.000000    -0.000000     0.000001    -0.500000
   24    -1.000000   180.000000     0.866025     0.500000     0.000000     0.000000     0.000000    -0.500000
 
 Subroutine IBZKPT returns following result:
 ===========================================
 
 Found    105 irreducible k-points:
 
 Following reciprocal coordinates:
            Coordinates               Weight
  0.000000  0.000000  0.000000      1.000000
  0.076923 -0.000000  0.000000      6.000000
  0.153846 -0.000000  0.000000      6.000000
  0.230769 -0.000000  0.000000      6.000000
  0.307692 -0.000000  0.000000      6.000000
  0.384615 -0.000000  0.000000      6.000000
  0.461538 -0.000000  0.000000      6.000000
  0.076923  0.076923  0.000000      6.000000
  0.153846  0.076923  0.000000     12.000000
  0.230769  0.076923  0.000000     12.000000
  0.307692  0.076923  0.000000     12.000000
  0.384615  0.076923  0.000000     12.000000
  0.461538  0.076923  0.000000      6.000000
  0.153846  0.153846  0.000000      6.000000
  0.230769  0.153846  0.000000     12.000000
  0.307692  0.153846  0.000000     12.000000
  0.384615  0.153846  0.000000     12.000000
  0.230769  0.230769  0.000000      6.000000
  0.307692  0.230769  0.000000     12.000000
  0.384615  0.230769  0.000000      6.000000
  0.307692  0.307692  0.000000      6.000000
  0.000000  0.000000  0.111111      2.000000
  0.076923 -0.000000  0.111111     12.000000
  0.153846 -0.000000  0.111111     12.000000
  0.230769 -0.000000  0.111111     12.000000
  0.307692 -0.000000  0.111111     12.000000
  0.384615 -0.000000  0.111111     12.000000
  0.461538 -0.000000  0.111111     12.000000
  0.076923  0.076923  0.111111     12.000000
  0.153846  0.076923  0.111111     24.000000
  0.230769  0.076923  0.111111     24.000000
  0.307692  0.076923  0.111111     24.000000
  0.384615  0.076923  0.111111     24.000000
  0.461538  0.076923  0.111111     12.000000
  0.153846  0.153846  0.111111     12.000000
  0.230769  0.153846  0.111111     24.000000
  0.307692  0.153846  0.111111     24.000000
  0.384615  0.153846  0.111111     24.000000
  0.230769  0.230769  0.111111     12.000000
  0.307692  0.230769  0.111111     24.000000
  0.384615  0.230769  0.111111     12.000000
  0.307692  0.307692  0.111111     12.000000
  0.000000  0.000000  0.222222      2.000000
  0.076923 -0.000000  0.222222     12.000000
  0.153846 -0.000000  0.222222     12.000000
  0.230769 -0.000000  0.222222     12.000000
  0.307692 -0.000000  0.222222     12.000000
  0.384615 -0.000000  0.222222     12.000000
  0.461538 -0.000000  0.222222     12.000000
  0.076923  0.076923  0.222222     12.000000
  0.153846  0.076923  0.222222     24.000000
  0.230769  0.076923  0.222222     24.000000
  0.307692  0.076923  0.222222     24.000000
  0.384615  0.076923  0.222222     24.000000
  0.461538  0.076923  0.222222     12.000000
  0.153846  0.153846  0.222222     12.000000
  0.230769  0.153846  0.222222     24.000000
  0.307692  0.153846  0.222222     24.000000
  0.384615  0.153846  0.222222     24.000000
  0.230769  0.230769  0.222222     12.000000
  0.307692  0.230769  0.222222     24.000000
  0.384615  0.230769  0.222222     12.000000
  0.307692  0.307692  0.222222     12.000000
  0.000000  0.000000  0.333333      2.000000
  0.076923 -0.000000  0.333333     12.000000
  0.153846 -0.000000  0.333333     12.000000
  0.230769 -0.000000  0.333333     12.000000
  0.307692 -0.000000  0.333333     12.000000
  0.384615 -0.000000  0.333333     12.000000
  0.461538 -0.000000  0.333333     12.000000
  0.076923  0.076923  0.333333     12.000000
  0.153846  0.076923  0.333333     24.000000
  0.230769  0.076923  0.333333     24.000000
  0.307692  0.076923  0.333333     24.000000
  0.384615  0.076923  0.333333     24.000000
  0.461538  0.076923  0.333333     12.000000
  0.153846  0.153846  0.333333     12.000000
  0.230769  0.153846  0.333333     24.000000
  0.307692  0.153846  0.333333     24.000000
  0.384615  0.153846  0.333333     24.000000
  0.230769  0.230769  0.333333     12.000000
  0.307692  0.230769  0.333333     24.000000
  0.384615  0.230769  0.333333     12.000000
  0.307692  0.307692  0.333333     12.000000
  0.000000  0.000000  0.444444      2.000000
  0.076923 -0.000000  0.444444     12.000000
  0.153846 -0.000000  0.444444     12.000000
  0.230769 -0.000000  0.444444     12.000000
  0.307692 -0.000000  0.444444     12.000000
  0.384615 -0.000000  0.444444     12.000000
  0.461538 -0.000000  0.444444     12.000000
  0.076923  0.076923  0.444444     12.000000
  0.153846  0.076923  0.444444     24.000000
  0.230769  0.076923  0.444444     24.000000
  0.307692  0.076923  0.444444     24.000000
  0.384615  0.076923  0.444444     24.000000
  0.461538  0.076923  0.444444     12.000000
  0.153846  0.153846  0.444444     12.000000
  0.230769  0.153846  0.444444     24.000000
  0.307692  0.153846  0.444444     24.000000
  0.384615  0.153846  0.444444     24.000000
  0.230769  0.230769  0.444444     12.000000
  0.307692  0.230769  0.444444     24.000000
  0.384615  0.230769  0.444444     12.000000
  0.307692  0.307692  0.444444     12.000000
 
 Following cartesian coordinates:
            Coordinates               Weight
  0.000000  0.000000  0.000000      1.000000
  0.023824  0.013755  0.000000      6.000000
  0.047647  0.027509  0.000000      6.000000
  0.071471  0.041264  0.000000      6.000000
  0.095294  0.055018  0.000000      6.000000
  0.119118  0.068773  0.000000      6.000000
  0.142942  0.082527  0.000000      6.000000
  0.023824  0.041264  0.000000      6.000000
  0.047647  0.055018  0.000000     12.000000
  0.071471  0.068773  0.000000     12.000000
  0.095294  0.082527  0.000000     12.000000
  0.119118  0.096282  0.000000     12.000000
  0.142942  0.110036  0.000000      6.000000
  0.047647  0.082527  0.000000      6.000000
  0.071471  0.096282  0.000000     12.000000
  0.095294  0.110036  0.000000     12.000000
  0.119118  0.123791  0.000000     12.000000
  0.071471  0.123791  0.000000      6.000000
  0.095294  0.137546  0.000000     12.000000
  0.119118  0.151300  0.000000      6.000000
  0.095294  0.165055  0.000000      6.000000
  0.000000  0.000000  0.021461      2.000000
  0.023824  0.013755  0.021461     12.000000
  0.047647  0.027509  0.021461     12.000000
  0.071471  0.041264  0.021461     12.000000
  0.095294  0.055018  0.021461     12.000000
  0.119118  0.068773  0.021461     12.000000
  0.142942  0.082527  0.021461     12.000000
  0.023824  0.041264  0.021461     12.000000
  0.047647  0.055018  0.021461     24.000000
  0.071471  0.068773  0.021461     24.000000
  0.095294  0.082527  0.021461     24.000000
  0.119118  0.096282  0.021461     24.000000
  0.142942  0.110036  0.021461     12.000000
  0.047647  0.082527  0.021461     12.000000
  0.071471  0.096282  0.021461     24.000000
  0.095294  0.110036  0.021461     24.000000
  0.119118  0.123791  0.021461     24.000000
  0.071471  0.123791  0.021461     12.000000
  0.095294  0.137546  0.021461     24.000000
  0.119118  0.151300  0.021461     12.000000
  0.095294  0.165055  0.021461     12.000000
  0.000000  0.000000  0.042922      2.000000
  0.023824  0.013755  0.042922     12.000000
  0.047647  0.027509  0.042922     12.000000
  0.071471  0.041264  0.042922     12.000000
  0.095294  0.055018  0.042922     12.000000
  0.119118  0.068773  0.042922     12.000000
  0.142942  0.082527  0.042922     12.000000
  0.023824  0.041264  0.042922     12.000000
  0.047647  0.055018  0.042922     24.000000
  0.071471  0.068773  0.042922     24.000000
  0.095294  0.082527  0.042922     24.000000
  0.119118  0.096282  0.042922     24.000000
  0.142942  0.110036  0.042922     12.000000
  0.047647  0.082527  0.042922     12.000000
  0.071471  0.096282  0.042922     24.000000
  0.095294  0.110036  0.042922     24.000000
  0.119118  0.123791  0.042922     24.000000
  0.071471  0.123791  0.042922     12.000000
  0.095294  0.137546  0.042922     24.000000
  0.119118  0.151300  0.042922     12.000000
  0.095294  0.165055  0.042922     12.000000
  0.000000  0.000000  0.064383      2.000000
  0.023824  0.013755  0.064383     12.000000
  0.047647  0.027509  0.064383     12.000000
  0.071471  0.041264  0.064383     12.000000
  0.095294  0.055018  0.064383     12.000000
  0.119118  0.068773  0.064383     12.000000
  0.142942  0.082527  0.064383     12.000000
  0.023824  0.041264  0.064383     12.000000
  0.047647  0.055018  0.064383     24.000000
  0.071471  0.068773  0.064383     24.000000
  0.095294  0.082527  0.064383     24.000000
  0.119118  0.096282  0.064383     24.000000
  0.142942  0.110036  0.064383     12.000000
  0.047647  0.082527  0.064383     12.000000
  0.071471  0.096282  0.064383     24.000000
  0.095294  0.110036  0.064383     24.000000
  0.119118  0.123791  0.064383     24.000000
  0.071471  0.123791  0.064383     12.000000
  0.095294  0.137546  0.064383     24.000000
  0.119118  0.151300  0.064383     12.000000
  0.095294  0.165055  0.064383     12.000000
  0.000000  0.000000  0.085844      2.000000
  0.023824  0.013755  0.085844     12.000000
  0.047647  0.027509  0.085844     12.000000
  0.071471  0.041264  0.085844     12.000000
  0.095294  0.055018  0.085844     12.000000
  0.119118  0.068773  0.085844     12.000000
  0.142942  0.082527  0.085844     12.000000
  0.023824  0.041264  0.085844     12.000000
  0.047647  0.055018  0.085844     24.000000
  0.071471  0.068773  0.085844     24.000000
  0.095294  0.082527  0.085844     24.000000
  0.119118  0.096282  0.085844     24.000000
  0.142942  0.110036  0.085844     12.000000
  0.047647  0.082527  0.085844     12.000000
  0.071471  0.096282  0.085844     24.000000
  0.095294  0.110036  0.085844     24.000000
  0.119118  0.123791  0.085844     24.000000
  0.071471  0.123791  0.085844     12.000000
  0.095294  0.137546  0.085844     24.000000
  0.119118  0.151300  0.085844     12.000000
  0.095294  0.165055  0.085844     12.000000
 
 
 Subroutine IBZKPT_HF returns following result:
 ==============================================
 
 Found   1521 k-points in 1st BZ
 the following   1521 k-points will be used (e.g. in the exchange kernel)
 Following reciprocal coordinates:   # in IRBZ
  0.000000  0.000000  0.000000    0.00065746   1 t-inv F
  0.076923 -0.000000  0.000000    0.00065746   2 t-inv F
  0.153846 -0.000000  0.000000    0.00065746   3 t-inv F
  0.230769 -0.000000  0.000000    0.00065746   4 t-inv F
  0.307692 -0.000000  0.000000    0.00065746   5 t-inv F
  0.384615 -0.000000  0.000000    0.00065746   6 t-inv F
  0.461538 -0.000000  0.000000    0.00065746   7 t-inv F
  0.076923  0.076923  0.000000    0.00065746   8 t-inv F
  0.153846  0.076923  0.000000    0.00065746   9 t-inv F
  0.230769  0.076923  0.000000    0.00065746  10 t-inv F
  0.307692  0.076923  0.000000    0.00065746  11 t-inv F
  0.384615  0.076923  0.000000    0.00065746  12 t-inv F
  0.461538  0.076923  0.000000    0.00065746  13 t-inv F
  0.153846  0.153846  0.000000    0.00065746  14 t-inv F
  0.230769  0.153846  0.000000    0.00065746  15 t-inv F
  0.307692  0.153846  0.000000    0.00065746  16 t-inv F
  0.384615  0.153846  0.000000    0.00065746  17 t-inv F
  0.230769  0.230769  0.000000    0.00065746  18 t-inv F
  0.307692  0.230769  0.000000    0.00065746  19 t-inv F
  0.384615  0.230769  0.000000    0.00065746  20 t-inv F
  0.307692  0.307692  0.000000    0.00065746  21 t-inv F
  0.000000  0.000000  0.111111    0.00065746  22 t-inv F
  0.076923 -0.000000  0.111111    0.00065746  23 t-inv F
  0.153846 -0.000000  0.111111    0.00065746  24 t-inv F
  0.230769 -0.000000  0.111111    0.00065746  25 t-inv F
  0.307692 -0.000000  0.111111    0.00065746  26 t-inv F
  0.384615 -0.000000  0.111111    0.00065746  27 t-inv F
  0.461538 -0.000000  0.111111    0.00065746  28 t-inv F
  0.076923  0.076923  0.111111    0.00065746  29 t-inv F
  0.153846  0.076923  0.111111    0.00065746  30 t-inv F
  0.230769  0.076923  0.111111    0.00065746  31 t-inv F
  0.307692  0.076923  0.111111    0.00065746  32 t-inv F
  0.384615  0.076923  0.111111    0.00065746  33 t-inv F
  0.461538  0.076923  0.111111    0.00065746  34 t-inv F
  0.153846  0.153846  0.111111    0.00065746  35 t-inv F
  0.230769  0.153846  0.111111    0.00065746  36 t-inv F
  0.307692  0.153846  0.111111    0.00065746  37 t-inv F
  0.384615  0.153846  0.111111    0.00065746  38 t-inv F
  0.230769  0.230769  0.111111    0.00065746  39 t-inv F
  0.307692  0.230769  0.111111    0.00065746  40 t-inv F
  0.384615  0.230769  0.111111    0.00065746  41 t-inv F
  0.307692  0.307692  0.111111    0.00065746  42 t-inv F
  0.000000  0.000000  0.222222    0.00065746  43 t-inv F
  0.076923 -0.000000  0.222222    0.00065746  44 t-inv F
  0.153846 -0.000000  0.222222    0.00065746  45 t-inv F
  0.230769 -0.000000  0.222222    0.00065746  46 t-inv F
  0.307692 -0.000000  0.222222    0.00065746  47 t-inv F
  0.384615 -0.000000  0.222222    0.00065746  48 t-inv F
  0.461538 -0.000000  0.222222    0.00065746  49 t-inv F
  0.076923  0.076923  0.222222    0.00065746  50 t-inv F
  0.153846  0.076923  0.222222    0.00065746  51 t-inv F
  0.230769  0.076923  0.222222    0.00065746  52 t-inv F
  0.307692  0.076923  0.222222    0.00065746  53 t-inv F
  0.384615  0.076923  0.222222    0.00065746  54 t-inv F
  0.461538  0.076923  0.222222    0.00065746  55 t-inv F
  0.153846  0.153846  0.222222    0.00065746  56 t-inv F
  0.230769  0.153846  0.222222    0.00065746  57 t-inv F
  0.307692  0.153846  0.222222    0.00065746  58 t-inv F
  0.384615  0.153846  0.222222    0.00065746  59 t-inv F
  0.230769  0.230769  0.222222    0.00065746  60 t-inv F
  0.307692  0.230769  0.222222    0.00065746  61 t-inv F
  0.384615  0.230769  0.222222    0.00065746  62 t-inv F
  0.307692  0.307692  0.222222    0.00065746  63 t-inv F
  0.000000  0.000000  0.333333    0.00065746  64 t-inv F
  0.076923 -0.000000  0.333333    0.00065746  65 t-inv F
  0.153846 -0.000000  0.333333    0.00065746  66 t-inv F
  0.230769 -0.000000  0.333333    0.00065746  67 t-inv F
  0.307692 -0.000000  0.333333    0.00065746  68 t-inv F
  0.384615 -0.000000  0.333333    0.00065746  69 t-inv F
  0.461538 -0.000000  0.333333    0.00065746  70 t-inv F
  0.076923  0.076923  0.333333    0.00065746  71 t-inv F
  0.153846  0.076923  0.333333    0.00065746  72 t-inv F
  0.230769  0.076923  0.333333    0.00065746  73 t-inv F
  0.307692  0.076923  0.333333    0.00065746  74 t-inv F
  0.384615  0.076923  0.333333    0.00065746  75 t-inv F
  0.461538  0.076923  0.333333    0.00065746  76 t-inv F
  0.153846  0.153846  0.333333    0.00065746  77 t-inv F
  0.230769  0.153846  0.333333    0.00065746  78 t-inv F
  0.307692  0.153846  0.333333    0.00065746  79 t-inv F
  0.384615  0.153846  0.333333    0.00065746  80 t-inv F
  0.230769  0.230769  0.333333    0.00065746  81 t-inv F
  0.307692  0.230769  0.333333    0.00065746  82 t-inv F
  0.384615  0.230769  0.333333    0.00065746  83 t-inv F
  0.307692  0.307692  0.333333    0.00065746  84 t-inv F
  0.000000  0.000000  0.444444    0.00065746  85 t-inv F
  0.076923 -0.000000  0.444444    0.00065746  86 t-inv F
  0.153846 -0.000000  0.444444    0.00065746  87 t-inv F
  0.230769 -0.000000  0.444444    0.00065746  88 t-inv F
  0.307692 -0.000000  0.444444    0.00065746  89 t-inv F
  0.384615 -0.000000  0.444444    0.00065746  90 t-inv F
  0.461538 -0.000000  0.444444    0.00065746  91 t-inv F
  0.076923  0.076923  0.444444    0.00065746  92 t-inv F
  0.153846  0.076923  0.444444    0.00065746  93 t-inv F
  0.230769  0.076923  0.444444    0.00065746  94 t-inv F
  0.307692  0.076923  0.444444    0.00065746  95 t-inv F
  0.384615  0.076923  0.444444    0.00065746  96 t-inv F
  0.461538  0.076923  0.444444    0.00065746  97 t-inv F
  0.153846  0.153846  0.444444    0.00065746  98 t-inv F
  0.230769  0.153846  0.444444    0.00065746  99 t-inv F
  0.307692  0.153846  0.444444    0.00065746 100 t-inv F
  0.384615  0.153846  0.444444    0.00065746 101 t-inv F
  0.230769  0.230769  0.444444    0.00065746 102 t-inv F
  0.307692  0.230769  0.444444    0.00065746 103 t-inv F
  0.384615  0.230769  0.444444    0.00065746 104 t-inv F
  0.307692  0.307692  0.444444    0.00065746 105 t-inv F
 -0.076923  0.000000  0.000000    0.00065746   2 t-inv F
 -0.076923  0.076923  0.000000    0.00065746   2 t-inv F
  0.076923 -0.076923  0.000000    0.00065746   2 t-inv F
 -0.000000 -0.076923  0.000000    0.00065746   2 t-inv F
  0.000000  0.076923  0.000000    0.00065746   2 t-inv F
 -0.153846  0.000000  0.000000    0.00065746   3 t-inv F
 -0.153846  0.153846  0.000000    0.00065746   3 t-inv F
  0.153846 -0.153846  0.000000    0.00065746   3 t-inv F
 -0.000000 -0.153846  0.000000    0.00065746   3 t-inv F
  0.000000  0.153846  0.000000    0.00065746   3 t-inv F
 -0.230769  0.000000  0.000000    0.00065746   4 t-inv F
 -0.230769  0.230769  0.000000    0.00065746   4 t-inv F
  0.230769 -0.230769  0.000000    0.00065746   4 t-inv F
 -0.000000 -0.230769  0.000000    0.00065746   4 t-inv F
  0.000000  0.230769  0.000000    0.00065746   4 t-inv F
 -0.307692  0.000000  0.000000    0.00065746   5 t-inv F
 -0.307692  0.307692  0.000000    0.00065746   5 t-inv F
  0.307692 -0.307692  0.000000    0.00065746   5 t-inv F
 -0.000000 -0.307692  0.000000    0.00065746   5 t-inv F
  0.000000  0.307692  0.000000    0.00065746   5 t-inv F
 -0.384615  0.000000  0.000000    0.00065746   6 t-inv F
 -0.384615  0.384615  0.000000    0.00065746   6 t-inv F
  0.384615 -0.384615  0.000000    0.00065746   6 t-inv F
 -0.000000 -0.384615  0.000000    0.00065746   6 t-inv F
  0.000000  0.384615  0.000000    0.00065746   6 t-inv F
 -0.461538  0.000000  0.000000    0.00065746   7 t-inv F
 -0.461538  0.461538  0.000000    0.00065746   7 t-inv F
  0.461538 -0.461538  0.000000    0.00065746   7 t-inv F
 -0.000000 -0.461538  0.000000    0.00065746   7 t-inv F
  0.000000  0.461538  0.000000    0.00065746   7 t-inv F
 -0.076923 -0.076923  0.000000    0.00065746   8 t-inv F
 -0.153846  0.076923  0.000000    0.00065746   8 t-inv F
  0.153846 -0.076923  0.000000    0.00065746   8 t-inv F
  0.076923 -0.153846  0.000000    0.00065746   8 t-inv F
 -0.076923  0.153846  0.000000    0.00065746   8 t-inv F
 -0.153846 -0.076923  0.000000    0.00065746   9 t-inv F
 -0.230769  0.153846  0.000000    0.00065746   9 t-inv F
  0.230769 -0.153846  0.000000    0.00065746   9 t-inv F
  0.076923 -0.230769  0.000000    0.00065746   9 t-inv F
 -0.076923  0.230769  0.000000    0.00065746   9 t-inv F
  0.153846 -0.230769  0.000000    0.00065746   9 t-inv F
 -0.153846  0.230769  0.000000    0.00065746   9 t-inv F
 -0.230769  0.076923  0.000000    0.00065746   9 t-inv F
  0.230769 -0.076923  0.000000    0.00065746   9 t-inv F
  0.076923  0.153846  0.000000    0.00065746   9 t-inv F
 -0.076923 -0.153846  0.000000    0.00065746   9 t-inv F
 -0.230769 -0.076923  0.000000    0.00065746  10 t-inv F
 -0.307692  0.230769  0.000000    0.00065746  10 t-inv F
  0.307692 -0.230769  0.000000    0.00065746  10 t-inv F
  0.076923 -0.307692  0.000000    0.00065746  10 t-inv F
 -0.076923  0.307692  0.000000    0.00065746  10 t-inv F
  0.230769 -0.307692  0.000000    0.00065746  10 t-inv F
 -0.230769  0.307692  0.000000    0.00065746  10 t-inv F
 -0.307692  0.076923  0.000000    0.00065746  10 t-inv F
  0.307692 -0.076923  0.000000    0.00065746  10 t-inv F
  0.076923  0.230769  0.000000    0.00065746  10 t-inv F
 -0.076923 -0.230769  0.000000    0.00065746  10 t-inv F
 -0.307692 -0.076923  0.000000    0.00065746  11 t-inv F
 -0.384615  0.307692  0.000000    0.00065746  11 t-inv F
  0.384615 -0.307692  0.000000    0.00065746  11 t-inv F
  0.076923 -0.384615  0.000000    0.00065746  11 t-inv F
 -0.076923  0.384615  0.000000    0.00065746  11 t-inv F
  0.307692 -0.384615  0.000000    0.00065746  11 t-inv F
 -0.307692  0.384615  0.000000    0.00065746  11 t-inv F
 -0.384615  0.076923  0.000000    0.00065746  11 t-inv F
  0.384615 -0.076923  0.000000    0.00065746  11 t-inv F
  0.076923  0.307692  0.000000    0.00065746  11 t-inv F
 -0.076923 -0.307692  0.000000    0.00065746  11 t-inv F
 -0.384615 -0.076923  0.000000    0.00065746  12 t-inv F
 -0.461538  0.384615  0.000000    0.00065746  12 t-inv F
  0.461538 -0.384615  0.000000    0.00065746  12 t-inv F
  0.076923 -0.461538  0.000000    0.00065746  12 t-inv F
 -0.076923  0.461538  0.000000    0.00065746  12 t-inv F
  0.384615 -0.461538  0.000000    0.00065746  12 t-inv F
 -0.384615  0.461538  0.000000    0.00065746  12 t-inv F
 -0.461538  0.076923  0.000000    0.00065746  12 t-inv F
  0.461538 -0.076923  0.000000    0.00065746  12 t-inv F
  0.076923  0.384615  0.000000    0.00065746  12 t-inv F
 -0.076923 -0.384615  0.000000    0.00065746  12 t-inv F
 -0.461538 -0.076923  0.000000    0.00065746  13 t-inv F
 -0.538462  0.461538  0.000000    0.00065746  13 t-inv F
  0.538462 -0.461538  0.000000    0.00065746  13 t-inv F
  0.076923 -0.538462  0.000000    0.00065746  13 t-inv F
 -0.076923  0.538462  0.000000    0.00065746  13 t-inv F
 -0.153846 -0.153846  0.000000    0.00065746  14 t-inv F
 -0.307692  0.153846  0.000000    0.00065746  14 t-inv F
  0.307692 -0.153846  0.000000    0.00065746  14 t-inv F
  0.153846 -0.307692  0.000000    0.00065746  14 t-inv F
 -0.153846  0.307692  0.000000    0.00065746  14 t-inv F
 -0.230769 -0.153846  0.000000    0.00065746  15 t-inv F
 -0.384615  0.230769  0.000000    0.00065746  15 t-inv F
  0.384615 -0.230769  0.000000    0.00065746  15 t-inv F
  0.153846 -0.384615  0.000000    0.00065746  15 t-inv F
 -0.153846  0.384615  0.000000    0.00065746  15 t-inv F
  0.230769 -0.384615  0.000000    0.00065746  15 t-inv F
 -0.230769  0.384615  0.000000    0.00065746  15 t-inv F
 -0.384615  0.153846  0.000000    0.00065746  15 t-inv F
  0.384615 -0.153846  0.000000    0.00065746  15 t-inv F
  0.153846  0.230769  0.000000    0.00065746  15 t-inv F
 -0.153846 -0.230769  0.000000    0.00065746  15 t-inv F
 -0.307692 -0.153846  0.000000    0.00065746  16 t-inv F
 -0.461538  0.307692  0.000000    0.00065746  16 t-inv F
  0.461538 -0.307692  0.000000    0.00065746  16 t-inv F
  0.153846 -0.461538  0.000000    0.00065746  16 t-inv F
 -0.153846  0.461538  0.000000    0.00065746  16 t-inv F
  0.307692 -0.461538  0.000000    0.00065746  16 t-inv F
 -0.307692  0.461538  0.000000    0.00065746  16 t-inv F
 -0.461538  0.153846  0.000000    0.00065746  16 t-inv F
  0.461538 -0.153846  0.000000    0.00065746  16 t-inv F
  0.153846  0.307692  0.000000    0.00065746  16 t-inv F
 -0.153846 -0.307692  0.000000    0.00065746  16 t-inv F
 -0.384615 -0.153846  0.000000    0.00065746  17 t-inv F
 -0.538462  0.384615  0.000000    0.00065746  17 t-inv F
  0.538462 -0.384615  0.000000    0.00065746  17 t-inv F
  0.153846 -0.538462  0.000000    0.00065746  17 t-inv F
 -0.153846  0.538462  0.000000    0.00065746  17 t-inv F
  0.384615 -0.538462  0.000000    0.00065746  17 t-inv F
 -0.384615  0.538462  0.000000    0.00065746  17 t-inv F
 -0.538462  0.153846  0.000000    0.00065746  17 t-inv F
  0.538462 -0.153846  0.000000    0.00065746  17 t-inv F
  0.153846  0.384615  0.000000    0.00065746  17 t-inv F
 -0.153846 -0.384615  0.000000    0.00065746  17 t-inv F
 -0.230769 -0.230769  0.000000    0.00065746  18 t-inv F
 -0.461538  0.230769  0.000000    0.00065746  18 t-inv F
  0.461538 -0.230769  0.000000    0.00065746  18 t-inv F
  0.230769 -0.461538  0.000000    0.00065746  18 t-inv F
 -0.230769  0.461538  0.000000    0.00065746  18 t-inv F
 -0.307692 -0.230769  0.000000    0.00065746  19 t-inv F
 -0.538462  0.307692  0.000000    0.00065746  19 t-inv F
  0.538462 -0.307692  0.000000    0.00065746  19 t-inv F
  0.230769 -0.538462  0.000000    0.00065746  19 t-inv F
 -0.230769  0.538462  0.000000    0.00065746  19 t-inv F
  0.307692 -0.538462  0.000000    0.00065746  19 t-inv F
 -0.307692  0.538462  0.000000    0.00065746  19 t-inv F
 -0.538462  0.230769  0.000000    0.00065746  19 t-inv F
  0.538462 -0.230769  0.000000    0.00065746  19 t-inv F
  0.230769  0.307692  0.000000    0.00065746  19 t-inv F
 -0.230769 -0.307692  0.000000    0.00065746  19 t-inv F
 -0.384615 -0.230769  0.000000    0.00065746  20 t-inv F
 -0.615385  0.384615  0.000000    0.00065746  20 t-inv F
  0.615385 -0.384615  0.000000    0.00065746  20 t-inv F
  0.230769 -0.615385  0.000000    0.00065746  20 t-inv F
 -0.230769  0.615385  0.000000    0.00065746  20 t-inv F
 -0.307692 -0.307692  0.000000    0.00065746  21 t-inv F
 -0.615385  0.307692  0.000000    0.00065746  21 t-inv F
  0.615385 -0.307692  0.000000    0.00065746  21 t-inv F
  0.307692 -0.615385  0.000000    0.00065746  21 t-inv F
 -0.307692  0.615385  0.000000    0.00065746  21 t-inv F
  0.000000  0.000000 -0.111111    0.00065746  22 t-inv F
 -0.076923  0.000000 -0.111111    0.00065746  23 t-inv F
 -0.076923  0.076923  0.111111    0.00065746  23 t-inv F
  0.076923 -0.076923 -0.111111    0.00065746  23 t-inv F
 -0.000000 -0.076923  0.111111    0.00065746  23 t-inv F
  0.000000  0.076923 -0.111111    0.00065746  23 t-inv F
  0.000000  0.076923  0.111111    0.00065746  23 t-inv F
 -0.000000 -0.076923 -0.111111    0.00065746  23 t-inv F
 -0.076923  0.000000  0.111111    0.00065746  23 t-inv F
  0.076923 -0.000000 -0.111111    0.00065746  23 t-inv F
  0.076923 -0.076923  0.111111    0.00065746  23 t-inv F
 -0.076923  0.076923 -0.111111    0.00065746  23 t-inv F
 -0.153846  0.000000 -0.111111    0.00065746  24 t-inv F
 -0.153846  0.153846  0.111111    0.00065746  24 t-inv F
  0.153846 -0.153846 -0.111111    0.00065746  24 t-inv F
 -0.000000 -0.153846  0.111111    0.00065746  24 t-inv F
  0.000000  0.153846 -0.111111    0.00065746  24 t-inv F
  0.000000  0.153846  0.111111    0.00065746  24 t-inv F
 -0.000000 -0.153846 -0.111111    0.00065746  24 t-inv F
 -0.153846  0.000000  0.111111    0.00065746  24 t-inv F
  0.153846 -0.000000 -0.111111    0.00065746  24 t-inv F
  0.153846 -0.153846  0.111111    0.00065746  24 t-inv F
 -0.153846  0.153846 -0.111111    0.00065746  24 t-inv F
 -0.230769  0.000000 -0.111111    0.00065746  25 t-inv F
 -0.230769  0.230769  0.111111    0.00065746  25 t-inv F
  0.230769 -0.230769 -0.111111    0.00065746  25 t-inv F
 -0.000000 -0.230769  0.111111    0.00065746  25 t-inv F
  0.000000  0.230769 -0.111111    0.00065746  25 t-inv F
  0.000000  0.230769  0.111111    0.00065746  25 t-inv F
 -0.000000 -0.230769 -0.111111    0.00065746  25 t-inv F
 -0.230769  0.000000  0.111111    0.00065746  25 t-inv F
  0.230769 -0.000000 -0.111111    0.00065746  25 t-inv F
  0.230769 -0.230769  0.111111    0.00065746  25 t-inv F
 -0.230769  0.230769 -0.111111    0.00065746  25 t-inv F
 -0.307692  0.000000 -0.111111    0.00065746  26 t-inv F
 -0.307692  0.307692  0.111111    0.00065746  26 t-inv F
  0.307692 -0.307692 -0.111111    0.00065746  26 t-inv F
 -0.000000 -0.307692  0.111111    0.00065746  26 t-inv F
  0.000000  0.307692 -0.111111    0.00065746  26 t-inv F
  0.000000  0.307692  0.111111    0.00065746  26 t-inv F
 -0.000000 -0.307692 -0.111111    0.00065746  26 t-inv F
 -0.307692  0.000000  0.111111    0.00065746  26 t-inv F
  0.307692 -0.000000 -0.111111    0.00065746  26 t-inv F
  0.307692 -0.307692  0.111111    0.00065746  26 t-inv F
 -0.307692  0.307692 -0.111111    0.00065746  26 t-inv F
 -0.384615  0.000000 -0.111111    0.00065746  27 t-inv F
 -0.384615  0.384615  0.111111    0.00065746  27 t-inv F
  0.384615 -0.384615 -0.111111    0.00065746  27 t-inv F
 -0.000000 -0.384615  0.111111    0.00065746  27 t-inv F
  0.000000  0.384615 -0.111111    0.00065746  27 t-inv F
  0.000000  0.384615  0.111111    0.00065746  27 t-inv F
 -0.000000 -0.384615 -0.111111    0.00065746  27 t-inv F
 -0.384615  0.000000  0.111111    0.00065746  27 t-inv F
  0.384615 -0.000000 -0.111111    0.00065746  27 t-inv F
  0.384615 -0.384615  0.111111    0.00065746  27 t-inv F
 -0.384615  0.384615 -0.111111    0.00065746  27 t-inv F
 -0.461538  0.000000 -0.111111    0.00065746  28 t-inv F
 -0.461538  0.461538  0.111111    0.00065746  28 t-inv F
  0.461538 -0.461538 -0.111111    0.00065746  28 t-inv F
 -0.000000 -0.461538  0.111111    0.00065746  28 t-inv F
  0.000000  0.461538 -0.111111    0.00065746  28 t-inv F
  0.000000  0.461538  0.111111    0.00065746  28 t-inv F
 -0.000000 -0.461538 -0.111111    0.00065746  28 t-inv F
 -0.461538  0.000000  0.111111    0.00065746  28 t-inv F
  0.461538 -0.000000 -0.111111    0.00065746  28 t-inv F
  0.461538 -0.461538  0.111111    0.00065746  28 t-inv F
 -0.461538  0.461538 -0.111111    0.00065746  28 t-inv F
 -0.076923 -0.076923 -0.111111    0.00065746  29 t-inv F
 -0.153846  0.076923  0.111111    0.00065746  29 t-inv F
  0.153846 -0.076923 -0.111111    0.00065746  29 t-inv F
  0.076923 -0.153846  0.111111    0.00065746  29 t-inv F
 -0.076923  0.153846 -0.111111    0.00065746  29 t-inv F
  0.076923 -0.153846 -0.111111    0.00065746  29 t-inv F
 -0.076923  0.153846  0.111111    0.00065746  29 t-inv F
 -0.153846  0.076923 -0.111111    0.00065746  29 t-inv F
  0.153846 -0.076923  0.111111    0.00065746  29 t-inv F
  0.076923  0.076923 -0.111111    0.00065746  29 t-inv F
 -0.076923 -0.076923  0.111111    0.00065746  29 t-inv F
 -0.153846 -0.076923 -0.111111    0.00065746  30 t-inv F
 -0.230769  0.153846  0.111111    0.00065746  30 t-inv F
  0.230769 -0.153846 -0.111111    0.00065746  30 t-inv F
  0.076923 -0.230769  0.111111    0.00065746  30 t-inv F
 -0.076923  0.230769 -0.111111    0.00065746  30 t-inv F
  0.153846 -0.230769 -0.111111    0.00065746  30 t-inv F
 -0.153846  0.230769  0.111111    0.00065746  30 t-inv F
 -0.230769  0.076923 -0.111111    0.00065746  30 t-inv F
  0.230769 -0.076923  0.111111    0.00065746  30 t-inv F
  0.076923  0.153846 -0.111111    0.00065746  30 t-inv F
 -0.076923 -0.153846  0.111111    0.00065746  30 t-inv F
 -0.076923  0.230769  0.111111    0.00065746  30 t-inv F
  0.076923 -0.230769 -0.111111    0.00065746  30 t-inv F
 -0.153846 -0.076923  0.111111    0.00065746  30 t-inv F
  0.153846  0.076923 -0.111111    0.00065746  30 t-inv F
  0.230769 -0.153846  0.111111    0.00065746  30 t-inv F
 -0.230769  0.153846 -0.111111    0.00065746  30 t-inv F
 -0.076923 -0.153846 -0.111111    0.00065746  30 t-inv F
  0.076923  0.153846  0.111111    0.00065746  30 t-inv F
 -0.153846  0.230769 -0.111111    0.00065746  30 t-inv F
  0.153846 -0.230769  0.111111    0.00065746  30 t-inv F
  0.230769 -0.076923 -0.111111    0.00065746  30 t-inv F
 -0.230769  0.076923  0.111111    0.00065746  30 t-inv F
 -0.230769 -0.076923 -0.111111    0.00065746  31 t-inv F
 -0.307692  0.230769  0.111111    0.00065746  31 t-inv F
  0.307692 -0.230769 -0.111111    0.00065746  31 t-inv F
  0.076923 -0.307692  0.111111    0.00065746  31 t-inv F
 -0.076923  0.307692 -0.111111    0.00065746  31 t-inv F
  0.230769 -0.307692 -0.111111    0.00065746  31 t-inv F
 -0.230769  0.307692  0.111111    0.00065746  31 t-inv F
 -0.307692  0.076923 -0.111111    0.00065746  31 t-inv F
  0.307692 -0.076923  0.111111    0.00065746  31 t-inv F
  0.076923  0.230769 -0.111111    0.00065746  31 t-inv F
 -0.076923 -0.230769  0.111111    0.00065746  31 t-inv F
 -0.076923  0.307692  0.111111    0.00065746  31 t-inv F
  0.076923 -0.307692 -0.111111    0.00065746  31 t-inv F
 -0.230769 -0.076923  0.111111    0.00065746  31 t-inv F
  0.230769  0.076923 -0.111111    0.00065746  31 t-inv F
  0.307692 -0.230769  0.111111    0.00065746  31 t-inv F
 -0.307692  0.230769 -0.111111    0.00065746  31 t-inv F
 -0.076923 -0.230769 -0.111111    0.00065746  31 t-inv F
  0.076923  0.230769  0.111111    0.00065746  31 t-inv F
 -0.230769  0.307692 -0.111111    0.00065746  31 t-inv F
  0.230769 -0.307692  0.111111    0.00065746  31 t-inv F
  0.307692 -0.076923 -0.111111    0.00065746  31 t-inv F
 -0.307692  0.076923  0.111111    0.00065746  31 t-inv F
 -0.307692 -0.076923 -0.111111    0.00065746  32 t-inv F
 -0.384615  0.307692  0.111111    0.00065746  32 t-inv F
  0.384615 -0.307692 -0.111111    0.00065746  32 t-inv F
  0.076923 -0.384615  0.111111    0.00065746  32 t-inv F
 -0.076923  0.384615 -0.111111    0.00065746  32 t-inv F
  0.307692 -0.384615 -0.111111    0.00065746  32 t-inv F
 -0.307692  0.384615  0.111111    0.00065746  32 t-inv F
 -0.384615  0.076923 -0.111111    0.00065746  32 t-inv F
  0.384615 -0.076923  0.111111    0.00065746  32 t-inv F
  0.076923  0.307692 -0.111111    0.00065746  32 t-inv F
 -0.076923 -0.307692  0.111111    0.00065746  32 t-inv F
 -0.076923  0.384615  0.111111    0.00065746  32 t-inv F
  0.076923 -0.384615 -0.111111    0.00065746  32 t-inv F
 -0.307692 -0.076923  0.111111    0.00065746  32 t-inv F
  0.307692  0.076923 -0.111111    0.00065746  32 t-inv F
  0.384615 -0.307692  0.111111    0.00065746  32 t-inv F
 -0.384615  0.307692 -0.111111    0.00065746  32 t-inv F
 -0.076923 -0.307692 -0.111111    0.00065746  32 t-inv F
  0.076923  0.307692  0.111111    0.00065746  32 t-inv F
 -0.307692  0.384615 -0.111111    0.00065746  32 t-inv F
  0.307692 -0.384615  0.111111    0.00065746  32 t-inv F
  0.384615 -0.076923 -0.111111    0.00065746  32 t-inv F
 -0.384615  0.076923  0.111111    0.00065746  32 t-inv F
 -0.384615 -0.076923 -0.111111    0.00065746  33 t-inv F
 -0.461538  0.384615  0.111111    0.00065746  33 t-inv F
  0.461538 -0.384615 -0.111111    0.00065746  33 t-inv F
  0.076923 -0.461538  0.111111    0.00065746  33 t-inv F
 -0.076923  0.461538 -0.111111    0.00065746  33 t-inv F
  0.384615 -0.461538 -0.111111    0.00065746  33 t-inv F
 -0.384615  0.461538  0.111111    0.00065746  33 t-inv F
 -0.461538  0.076923 -0.111111    0.00065746  33 t-inv F
  0.461538 -0.076923  0.111111    0.00065746  33 t-inv F
  0.076923  0.384615 -0.111111    0.00065746  33 t-inv F
 -0.076923 -0.384615  0.111111    0.00065746  33 t-inv F
 -0.076923  0.461538  0.111111    0.00065746  33 t-inv F
  0.076923 -0.461538 -0.111111    0.00065746  33 t-inv F
 -0.384615 -0.076923  0.111111    0.00065746  33 t-inv F
  0.384615  0.076923 -0.111111    0.00065746  33 t-inv F
  0.461538 -0.384615  0.111111    0.00065746  33 t-inv F
 -0.461538  0.384615 -0.111111    0.00065746  33 t-inv F
 -0.076923 -0.384615 -0.111111    0.00065746  33 t-inv F
  0.076923  0.384615  0.111111    0.00065746  33 t-inv F
 -0.384615  0.461538 -0.111111    0.00065746  33 t-inv F
  0.384615 -0.461538  0.111111    0.00065746  33 t-inv F
  0.461538 -0.076923 -0.111111    0.00065746  33 t-inv F
 -0.461538  0.076923  0.111111    0.00065746  33 t-inv F
 -0.461538 -0.076923 -0.111111    0.00065746  34 t-inv F
 -0.538462  0.461538  0.111111    0.00065746  34 t-inv F
  0.538462 -0.461538 -0.111111    0.00065746  34 t-inv F
  0.076923 -0.538462  0.111111    0.00065746  34 t-inv F
 -0.076923  0.538462 -0.111111    0.00065746  34 t-inv F
  0.461538 -0.538462 -0.111111    0.00065746  34 t-inv F
 -0.461538  0.538462  0.111111    0.00065746  34 t-inv F
 -0.538462  0.076923 -0.111111    0.00065746  34 t-inv F
  0.538462 -0.076923  0.111111    0.00065746  34 t-inv F
  0.076923  0.461538 -0.111111    0.00065746  34 t-inv F
 -0.076923 -0.461538  0.111111    0.00065746  34 t-inv F
 -0.153846 -0.153846 -0.111111    0.00065746  35 t-inv F
 -0.307692  0.153846  0.111111    0.00065746  35 t-inv F
  0.307692 -0.153846 -0.111111    0.00065746  35 t-inv F
  0.153846 -0.307692  0.111111    0.00065746  35 t-inv F
 -0.153846  0.307692 -0.111111    0.00065746  35 t-inv F
  0.153846 -0.307692 -0.111111    0.00065746  35 t-inv F
 -0.153846  0.307692  0.111111    0.00065746  35 t-inv F
 -0.307692  0.153846 -0.111111    0.00065746  35 t-inv F
  0.307692 -0.153846  0.111111    0.00065746  35 t-inv F
  0.153846  0.153846 -0.111111    0.00065746  35 t-inv F
 -0.153846 -0.153846  0.111111    0.00065746  35 t-inv F
 -0.230769 -0.153846 -0.111111    0.00065746  36 t-inv F
 -0.384615  0.230769  0.111111    0.00065746  36 t-inv F
  0.384615 -0.230769 -0.111111    0.00065746  36 t-inv F
  0.153846 -0.384615  0.111111    0.00065746  36 t-inv F
 -0.153846  0.384615 -0.111111    0.00065746  36 t-inv F
  0.230769 -0.384615 -0.111111    0.00065746  36 t-inv F
 -0.230769  0.384615  0.111111    0.00065746  36 t-inv F
 -0.384615  0.153846 -0.111111    0.00065746  36 t-inv F
  0.384615 -0.153846  0.111111    0.00065746  36 t-inv F
  0.153846  0.230769 -0.111111    0.00065746  36 t-inv F
 -0.153846 -0.230769  0.111111    0.00065746  36 t-inv F
 -0.153846  0.384615  0.111111    0.00065746  36 t-inv F
  0.153846 -0.384615 -0.111111    0.00065746  36 t-inv F
 -0.230769 -0.153846  0.111111    0.00065746  36 t-inv F
  0.230769  0.153846 -0.111111    0.00065746  36 t-inv F
  0.384615 -0.230769  0.111111    0.00065746  36 t-inv F
 -0.384615  0.230769 -0.111111    0.00065746  36 t-inv F
 -0.153846 -0.230769 -0.111111    0.00065746  36 t-inv F
  0.153846  0.230769  0.111111    0.00065746  36 t-inv F
 -0.230769  0.384615 -0.111111    0.00065746  36 t-inv F
  0.230769 -0.384615  0.111111    0.00065746  36 t-inv F
  0.384615 -0.153846 -0.111111    0.00065746  36 t-inv F
 -0.384615  0.153846  0.111111    0.00065746  36 t-inv F
 -0.307692 -0.153846 -0.111111    0.00065746  37 t-inv F
 -0.461538  0.307692  0.111111    0.00065746  37 t-inv F
  0.461538 -0.307692 -0.111111    0.00065746  37 t-inv F
  0.153846 -0.461538  0.111111    0.00065746  37 t-inv F
 -0.153846  0.461538 -0.111111    0.00065746  37 t-inv F
  0.307692 -0.461538 -0.111111    0.00065746  37 t-inv F
 -0.307692  0.461538  0.111111    0.00065746  37 t-inv F
 -0.461538  0.153846 -0.111111    0.00065746  37 t-inv F
  0.461538 -0.153846  0.111111    0.00065746  37 t-inv F
  0.153846  0.307692 -0.111111    0.00065746  37 t-inv F
 -0.153846 -0.307692  0.111111    0.00065746  37 t-inv F
 -0.153846  0.461538  0.111111    0.00065746  37 t-inv F
  0.153846 -0.461538 -0.111111    0.00065746  37 t-inv F
 -0.307692 -0.153846  0.111111    0.00065746  37 t-inv F
  0.307692  0.153846 -0.111111    0.00065746  37 t-inv F
  0.461538 -0.307692  0.111111    0.00065746  37 t-inv F
 -0.461538  0.307692 -0.111111    0.00065746  37 t-inv F
 -0.153846 -0.307692 -0.111111    0.00065746  37 t-inv F
  0.153846  0.307692  0.111111    0.00065746  37 t-inv F
 -0.307692  0.461538 -0.111111    0.00065746  37 t-inv F
  0.307692 -0.461538  0.111111    0.00065746  37 t-inv F
  0.461538 -0.153846 -0.111111    0.00065746  37 t-inv F
 -0.461538  0.153846  0.111111    0.00065746  37 t-inv F
 -0.384615 -0.153846 -0.111111    0.00065746  38 t-inv F
 -0.538462  0.384615  0.111111    0.00065746  38 t-inv F
  0.538462 -0.384615 -0.111111    0.00065746  38 t-inv F
  0.153846 -0.538462  0.111111    0.00065746  38 t-inv F
 -0.153846  0.538462 -0.111111    0.00065746  38 t-inv F
  0.384615 -0.538462 -0.111111    0.00065746  38 t-inv F
 -0.384615  0.538462  0.111111    0.00065746  38 t-inv F
 -0.538462  0.153846 -0.111111    0.00065746  38 t-inv F
  0.538462 -0.153846  0.111111    0.00065746  38 t-inv F
  0.153846  0.384615 -0.111111    0.00065746  38 t-inv F
 -0.153846 -0.384615  0.111111    0.00065746  38 t-inv F
 -0.153846  0.538462  0.111111    0.00065746  38 t-inv F
  0.153846 -0.538462 -0.111111    0.00065746  38 t-inv F
 -0.384615 -0.153846  0.111111    0.00065746  38 t-inv F
  0.384615  0.153846 -0.111111    0.00065746  38 t-inv F
  0.538462 -0.384615  0.111111    0.00065746  38 t-inv F
 -0.538462  0.384615 -0.111111    0.00065746  38 t-inv F
 -0.153846 -0.384615 -0.111111    0.00065746  38 t-inv F
  0.153846  0.384615  0.111111    0.00065746  38 t-inv F
 -0.384615  0.538462 -0.111111    0.00065746  38 t-inv F
  0.384615 -0.538462  0.111111    0.00065746  38 t-inv F
  0.538462 -0.153846 -0.111111    0.00065746  38 t-inv F
 -0.538462  0.153846  0.111111    0.00065746  38 t-inv F
 -0.230769 -0.230769 -0.111111    0.00065746  39 t-inv F
 -0.461538  0.230769  0.111111    0.00065746  39 t-inv F
  0.461538 -0.230769 -0.111111    0.00065746  39 t-inv F
  0.230769 -0.461538  0.111111    0.00065746  39 t-inv F
 -0.230769  0.461538 -0.111111    0.00065746  39 t-inv F
  0.230769 -0.461538 -0.111111    0.00065746  39 t-inv F
 -0.230769  0.461538  0.111111    0.00065746  39 t-inv F
 -0.461538  0.230769 -0.111111    0.00065746  39 t-inv F
  0.461538 -0.230769  0.111111    0.00065746  39 t-inv F
  0.230769  0.230769 -0.111111    0.00065746  39 t-inv F
 -0.230769 -0.230769  0.111111    0.00065746  39 t-inv F
 -0.307692 -0.230769 -0.111111    0.00065746  40 t-inv F
 -0.538462  0.307692  0.111111    0.00065746  40 t-inv F
  0.538462 -0.307692 -0.111111    0.00065746  40 t-inv F
  0.230769 -0.538462  0.111111    0.00065746  40 t-inv F
 -0.230769  0.538462 -0.111111    0.00065746  40 t-inv F
  0.307692 -0.538462 -0.111111    0.00065746  40 t-inv F
 -0.307692  0.538462  0.111111    0.00065746  40 t-inv F
 -0.538462  0.230769 -0.111111    0.00065746  40 t-inv F
  0.538462 -0.230769  0.111111    0.00065746  40 t-inv F
  0.230769  0.307692 -0.111111    0.00065746  40 t-inv F
 -0.230769 -0.307692  0.111111    0.00065746  40 t-inv F
 -0.230769  0.538462  0.111111    0.00065746  40 t-inv F
  0.230769 -0.538462 -0.111111    0.00065746  40 t-inv F
 -0.307692 -0.230769  0.111111    0.00065746  40 t-inv F
  0.307692  0.230769 -0.111111    0.00065746  40 t-inv F
  0.538462 -0.307692  0.111111    0.00065746  40 t-inv F
 -0.538462  0.307692 -0.111111    0.00065746  40 t-inv F
 -0.230769 -0.307692 -0.111111    0.00065746  40 t-inv F
  0.230769  0.307692  0.111111    0.00065746  40 t-inv F
 -0.307692  0.538462 -0.111111    0.00065746  40 t-inv F
  0.307692 -0.538462  0.111111    0.00065746  40 t-inv F
  0.538462 -0.230769 -0.111111    0.00065746  40 t-inv F
 -0.538462  0.230769  0.111111    0.00065746  40 t-inv F
 -0.384615 -0.230769 -0.111111    0.00065746  41 t-inv F
 -0.615385  0.384615  0.111111    0.00065746  41 t-inv F
  0.615385 -0.384615 -0.111111    0.00065746  41 t-inv F
  0.230769 -0.615385  0.111111    0.00065746  41 t-inv F
 -0.230769  0.615385 -0.111111    0.00065746  41 t-inv F
  0.384615 -0.615385 -0.111111    0.00065746  41 t-inv F
 -0.384615  0.615385  0.111111    0.00065746  41 t-inv F
 -0.615385  0.230769 -0.111111    0.00065746  41 t-inv F
  0.615385 -0.230769  0.111111    0.00065746  41 t-inv F
  0.230769  0.384615 -0.111111    0.00065746  41 t-inv F
 -0.230769 -0.384615  0.111111    0.00065746  41 t-inv F
 -0.307692 -0.307692 -0.111111    0.00065746  42 t-inv F
 -0.615385  0.307692  0.111111    0.00065746  42 t-inv F
  0.615385 -0.307692 -0.111111    0.00065746  42 t-inv F
  0.307692 -0.615385  0.111111    0.00065746  42 t-inv F
 -0.307692  0.615385 -0.111111    0.00065746  42 t-inv F
  0.307692 -0.615385 -0.111111    0.00065746  42 t-inv F
 -0.307692  0.615385  0.111111    0.00065746  42 t-inv F
 -0.615385  0.307692 -0.111111    0.00065746  42 t-inv F
  0.615385 -0.307692  0.111111    0.00065746  42 t-inv F
  0.307692  0.307692 -0.111111    0.00065746  42 t-inv F
 -0.307692 -0.307692  0.111111    0.00065746  42 t-inv F
  0.000000  0.000000 -0.222222    0.00065746  43 t-inv F
 -0.076923  0.000000 -0.222222    0.00065746  44 t-inv F
 -0.076923  0.076923  0.222222    0.00065746  44 t-inv F
  0.076923 -0.076923 -0.222222    0.00065746  44 t-inv F
 -0.000000 -0.076923  0.222222    0.00065746  44 t-inv F
  0.000000  0.076923 -0.222222    0.00065746  44 t-inv F
  0.000000  0.076923  0.222222    0.00065746  44 t-inv F
 -0.000000 -0.076923 -0.222222    0.00065746  44 t-inv F
 -0.076923  0.000000  0.222222    0.00065746  44 t-inv F
  0.076923 -0.000000 -0.222222    0.00065746  44 t-inv F
  0.076923 -0.076923  0.222222    0.00065746  44 t-inv F
 -0.076923  0.076923 -0.222222    0.00065746  44 t-inv F
 -0.153846  0.000000 -0.222222    0.00065746  45 t-inv F
 -0.153846  0.153846  0.222222    0.00065746  45 t-inv F
  0.153846 -0.153846 -0.222222    0.00065746  45 t-inv F
 -0.000000 -0.153846  0.222222    0.00065746  45 t-inv F
  0.000000  0.153846 -0.222222    0.00065746  45 t-inv F
  0.000000  0.153846  0.222222    0.00065746  45 t-inv F
 -0.000000 -0.153846 -0.222222    0.00065746  45 t-inv F
 -0.153846  0.000000  0.222222    0.00065746  45 t-inv F
  0.153846 -0.000000 -0.222222    0.00065746  45 t-inv F
  0.153846 -0.153846  0.222222    0.00065746  45 t-inv F
 -0.153846  0.153846 -0.222222    0.00065746  45 t-inv F
 -0.230769  0.000000 -0.222222    0.00065746  46 t-inv F
 -0.230769  0.230769  0.222222    0.00065746  46 t-inv F
  0.230769 -0.230769 -0.222222    0.00065746  46 t-inv F
 -0.000000 -0.230769  0.222222    0.00065746  46 t-inv F
  0.000000  0.230769 -0.222222    0.00065746  46 t-inv F
  0.000000  0.230769  0.222222    0.00065746  46 t-inv F
 -0.000000 -0.230769 -0.222222    0.00065746  46 t-inv F
 -0.230769  0.000000  0.222222    0.00065746  46 t-inv F
  0.230769 -0.000000 -0.222222    0.00065746  46 t-inv F
  0.230769 -0.230769  0.222222    0.00065746  46 t-inv F
 -0.230769  0.230769 -0.222222    0.00065746  46 t-inv F
 -0.307692  0.000000 -0.222222    0.00065746  47 t-inv F
 -0.307692  0.307692  0.222222    0.00065746  47 t-inv F
  0.307692 -0.307692 -0.222222    0.00065746  47 t-inv F
 -0.000000 -0.307692  0.222222    0.00065746  47 t-inv F
  0.000000  0.307692 -0.222222    0.00065746  47 t-inv F
  0.000000  0.307692  0.222222    0.00065746  47 t-inv F
 -0.000000 -0.307692 -0.222222    0.00065746  47 t-inv F
 -0.307692  0.000000  0.222222    0.00065746  47 t-inv F
  0.307692 -0.000000 -0.222222    0.00065746  47 t-inv F
  0.307692 -0.307692  0.222222    0.00065746  47 t-inv F
 -0.307692  0.307692 -0.222222    0.00065746  47 t-inv F
 -0.384615  0.000000 -0.222222    0.00065746  48 t-inv F
 -0.384615  0.384615  0.222222    0.00065746  48 t-inv F
  0.384615 -0.384615 -0.222222    0.00065746  48 t-inv F
 -0.000000 -0.384615  0.222222    0.00065746  48 t-inv F
  0.000000  0.384615 -0.222222    0.00065746  48 t-inv F
  0.000000  0.384615  0.222222    0.00065746  48 t-inv F
 -0.000000 -0.384615 -0.222222    0.00065746  48 t-inv F
 -0.384615  0.000000  0.222222    0.00065746  48 t-inv F
  0.384615 -0.000000 -0.222222    0.00065746  48 t-inv F
  0.384615 -0.384615  0.222222    0.00065746  48 t-inv F
 -0.384615  0.384615 -0.222222    0.00065746  48 t-inv F
 -0.461538  0.000000 -0.222222    0.00065746  49 t-inv F
 -0.461538  0.461538  0.222222    0.00065746  49 t-inv F
  0.461538 -0.461538 -0.222222    0.00065746  49 t-inv F
 -0.000000 -0.461538  0.222222    0.00065746  49 t-inv F
  0.000000  0.461538 -0.222222    0.00065746  49 t-inv F
  0.000000  0.461538  0.222222    0.00065746  49 t-inv F
 -0.000000 -0.461538 -0.222222    0.00065746  49 t-inv F
 -0.461538  0.000000  0.222222    0.00065746  49 t-inv F
  0.461538 -0.000000 -0.222222    0.00065746  49 t-inv F
  0.461538 -0.461538  0.222222    0.00065746  49 t-inv F
 -0.461538  0.461538 -0.222222    0.00065746  49 t-inv F
 -0.076923 -0.076923 -0.222222    0.00065746  50 t-inv F
 -0.153846  0.076923  0.222222    0.00065746  50 t-inv F
  0.153846 -0.076923 -0.222222    0.00065746  50 t-inv F
  0.076923 -0.153846  0.222222    0.00065746  50 t-inv F
 -0.076923  0.153846 -0.222222    0.00065746  50 t-inv F
  0.076923 -0.153846 -0.222222    0.00065746  50 t-inv F
 -0.076923  0.153846  0.222222    0.00065746  50 t-inv F
 -0.153846  0.076923 -0.222222    0.00065746  50 t-inv F
  0.153846 -0.076923  0.222222    0.00065746  50 t-inv F
  0.076923  0.076923 -0.222222    0.00065746  50 t-inv F
 -0.076923 -0.076923  0.222222    0.00065746  50 t-inv F
 -0.153846 -0.076923 -0.222222    0.00065746  51 t-inv F
 -0.230769  0.153846  0.222222    0.00065746  51 t-inv F
  0.230769 -0.153846 -0.222222    0.00065746  51 t-inv F
  0.076923 -0.230769  0.222222    0.00065746  51 t-inv F
 -0.076923  0.230769 -0.222222    0.00065746  51 t-inv F
  0.153846 -0.230769 -0.222222    0.00065746  51 t-inv F
 -0.153846  0.230769  0.222222    0.00065746  51 t-inv F
 -0.230769  0.076923 -0.222222    0.00065746  51 t-inv F
  0.230769 -0.076923  0.222222    0.00065746  51 t-inv F
  0.076923  0.153846 -0.222222    0.00065746  51 t-inv F
 -0.076923 -0.153846  0.222222    0.00065746  51 t-inv F
 -0.076923  0.230769  0.222222    0.00065746  51 t-inv F
  0.076923 -0.230769 -0.222222    0.00065746  51 t-inv F
 -0.153846 -0.076923  0.222222    0.00065746  51 t-inv F
  0.153846  0.076923 -0.222222    0.00065746  51 t-inv F
  0.230769 -0.153846  0.222222    0.00065746  51 t-inv F
 -0.230769  0.153846 -0.222222    0.00065746  51 t-inv F
 -0.076923 -0.153846 -0.222222    0.00065746  51 t-inv F
  0.076923  0.153846  0.222222    0.00065746  51 t-inv F
 -0.153846  0.230769 -0.222222    0.00065746  51 t-inv F
  0.153846 -0.230769  0.222222    0.00065746  51 t-inv F
  0.230769 -0.076923 -0.222222    0.00065746  51 t-inv F
 -0.230769  0.076923  0.222222    0.00065746  51 t-inv F
 -0.230769 -0.076923 -0.222222    0.00065746  52 t-inv F
 -0.307692  0.230769  0.222222    0.00065746  52 t-inv F
  0.307692 -0.230769 -0.222222    0.00065746  52 t-inv F
  0.076923 -0.307692  0.222222    0.00065746  52 t-inv F
 -0.076923  0.307692 -0.222222    0.00065746  52 t-inv F
  0.230769 -0.307692 -0.222222    0.00065746  52 t-inv F
 -0.230769  0.307692  0.222222    0.00065746  52 t-inv F
 -0.307692  0.076923 -0.222222    0.00065746  52 t-inv F
  0.307692 -0.076923  0.222222    0.00065746  52 t-inv F
  0.076923  0.230769 -0.222222    0.00065746  52 t-inv F
 -0.076923 -0.230769  0.222222    0.00065746  52 t-inv F
 -0.076923  0.307692  0.222222    0.00065746  52 t-inv F
  0.076923 -0.307692 -0.222222    0.00065746  52 t-inv F
 -0.230769 -0.076923  0.222222    0.00065746  52 t-inv F
  0.230769  0.076923 -0.222222    0.00065746  52 t-inv F
  0.307692 -0.230769  0.222222    0.00065746  52 t-inv F
 -0.307692  0.230769 -0.222222    0.00065746  52 t-inv F
 -0.076923 -0.230769 -0.222222    0.00065746  52 t-inv F
  0.076923  0.230769  0.222222    0.00065746  52 t-inv F
 -0.230769  0.307692 -0.222222    0.00065746  52 t-inv F
  0.230769 -0.307692  0.222222    0.00065746  52 t-inv F
  0.307692 -0.076923 -0.222222    0.00065746  52 t-inv F
 -0.307692  0.076923  0.222222    0.00065746  52 t-inv F
 -0.307692 -0.076923 -0.222222    0.00065746  53 t-inv F
 -0.384615  0.307692  0.222222    0.00065746  53 t-inv F
  0.384615 -0.307692 -0.222222    0.00065746  53 t-inv F
  0.076923 -0.384615  0.222222    0.00065746  53 t-inv F
 -0.076923  0.384615 -0.222222    0.00065746  53 t-inv F
  0.307692 -0.384615 -0.222222    0.00065746  53 t-inv F
 -0.307692  0.384615  0.222222    0.00065746  53 t-inv F
 -0.384615  0.076923 -0.222222    0.00065746  53 t-inv F
  0.384615 -0.076923  0.222222    0.00065746  53 t-inv F
  0.076923  0.307692 -0.222222    0.00065746  53 t-inv F
 -0.076923 -0.307692  0.222222    0.00065746  53 t-inv F
 -0.076923  0.384615  0.222222    0.00065746  53 t-inv F
  0.076923 -0.384615 -0.222222    0.00065746  53 t-inv F
 -0.307692 -0.076923  0.222222    0.00065746  53 t-inv F
  0.307692  0.076923 -0.222222    0.00065746  53 t-inv F
  0.384615 -0.307692  0.222222    0.00065746  53 t-inv F
 -0.384615  0.307692 -0.222222    0.00065746  53 t-inv F
 -0.076923 -0.307692 -0.222222    0.00065746  53 t-inv F
  0.076923  0.307692  0.222222    0.00065746  53 t-inv F
 -0.307692  0.384615 -0.222222    0.00065746  53 t-inv F
  0.307692 -0.384615  0.222222    0.00065746  53 t-inv F
  0.384615 -0.076923 -0.222222    0.00065746  53 t-inv F
 -0.384615  0.076923  0.222222    0.00065746  53 t-inv F
 -0.384615 -0.076923 -0.222222    0.00065746  54 t-inv F
 -0.461538  0.384615  0.222222    0.00065746  54 t-inv F
  0.461538 -0.384615 -0.222222    0.00065746  54 t-inv F
  0.076923 -0.461538  0.222222    0.00065746  54 t-inv F
 -0.076923  0.461538 -0.222222    0.00065746  54 t-inv F
  0.384615 -0.461538 -0.222222    0.00065746  54 t-inv F
 -0.384615  0.461538  0.222222    0.00065746  54 t-inv F
 -0.461538  0.076923 -0.222222    0.00065746  54 t-inv F
  0.461538 -0.076923  0.222222    0.00065746  54 t-inv F
  0.076923  0.384615 -0.222222    0.00065746  54 t-inv F
 -0.076923 -0.384615  0.222222    0.00065746  54 t-inv F
 -0.076923  0.461538  0.222222    0.00065746  54 t-inv F
  0.076923 -0.461538 -0.222222    0.00065746  54 t-inv F
 -0.384615 -0.076923  0.222222    0.00065746  54 t-inv F
  0.384615  0.076923 -0.222222    0.00065746  54 t-inv F
  0.461538 -0.384615  0.222222    0.00065746  54 t-inv F
 -0.461538  0.384615 -0.222222    0.00065746  54 t-inv F
 -0.076923 -0.384615 -0.222222    0.00065746  54 t-inv F
  0.076923  0.384615  0.222222    0.00065746  54 t-inv F
 -0.384615  0.461538 -0.222222    0.00065746  54 t-inv F
  0.384615 -0.461538  0.222222    0.00065746  54 t-inv F
  0.461538 -0.076923 -0.222222    0.00065746  54 t-inv F
 -0.461538  0.076923  0.222222    0.00065746  54 t-inv F
 -0.461538 -0.076923 -0.222222    0.00065746  55 t-inv F
 -0.538462  0.461538  0.222222    0.00065746  55 t-inv F
  0.538462 -0.461538 -0.222222    0.00065746  55 t-inv F
  0.076923 -0.538462  0.222222    0.00065746  55 t-inv F
 -0.076923  0.538462 -0.222222    0.00065746  55 t-inv F
  0.461538 -0.538462 -0.222222    0.00065746  55 t-inv F
 -0.461538  0.538462  0.222222    0.00065746  55 t-inv F
 -0.538462  0.076923 -0.222222    0.00065746  55 t-inv F
  0.538462 -0.076923  0.222222    0.00065746  55 t-inv F
  0.076923  0.461538 -0.222222    0.00065746  55 t-inv F
 -0.076923 -0.461538  0.222222    0.00065746  55 t-inv F
 -0.153846 -0.153846 -0.222222    0.00065746  56 t-inv F
 -0.307692  0.153846  0.222222    0.00065746  56 t-inv F
  0.307692 -0.153846 -0.222222    0.00065746  56 t-inv F
  0.153846 -0.307692  0.222222    0.00065746  56 t-inv F
 -0.153846  0.307692 -0.222222    0.00065746  56 t-inv F
  0.153846 -0.307692 -0.222222    0.00065746  56 t-inv F
 -0.153846  0.307692  0.222222    0.00065746  56 t-inv F
 -0.307692  0.153846 -0.222222    0.00065746  56 t-inv F
  0.307692 -0.153846  0.222222    0.00065746  56 t-inv F
  0.153846  0.153846 -0.222222    0.00065746  56 t-inv F
 -0.153846 -0.153846  0.222222    0.00065746  56 t-inv F
 -0.230769 -0.153846 -0.222222    0.00065746  57 t-inv F
 -0.384615  0.230769  0.222222    0.00065746  57 t-inv F
  0.384615 -0.230769 -0.222222    0.00065746  57 t-inv F
  0.153846 -0.384615  0.222222    0.00065746  57 t-inv F
 -0.153846  0.384615 -0.222222    0.00065746  57 t-inv F
  0.230769 -0.384615 -0.222222    0.00065746  57 t-inv F
 -0.230769  0.384615  0.222222    0.00065746  57 t-inv F
 -0.384615  0.153846 -0.222222    0.00065746  57 t-inv F
  0.384615 -0.153846  0.222222    0.00065746  57 t-inv F
  0.153846  0.230769 -0.222222    0.00065746  57 t-inv F
 -0.153846 -0.230769  0.222222    0.00065746  57 t-inv F
 -0.153846  0.384615  0.222222    0.00065746  57 t-inv F
  0.153846 -0.384615 -0.222222    0.00065746  57 t-inv F
 -0.230769 -0.153846  0.222222    0.00065746  57 t-inv F
  0.230769  0.153846 -0.222222    0.00065746  57 t-inv F
  0.384615 -0.230769  0.222222    0.00065746  57 t-inv F
 -0.384615  0.230769 -0.222222    0.00065746  57 t-inv F
 -0.153846 -0.230769 -0.222222    0.00065746  57 t-inv F
  0.153846  0.230769  0.222222    0.00065746  57 t-inv F
 -0.230769  0.384615 -0.222222    0.00065746  57 t-inv F
  0.230769 -0.384615  0.222222    0.00065746  57 t-inv F
  0.384615 -0.153846 -0.222222    0.00065746  57 t-inv F
 -0.384615  0.153846  0.222222    0.00065746  57 t-inv F
 -0.307692 -0.153846 -0.222222    0.00065746  58 t-inv F
 -0.461538  0.307692  0.222222    0.00065746  58 t-inv F
  0.461538 -0.307692 -0.222222    0.00065746  58 t-inv F
  0.153846 -0.461538  0.222222    0.00065746  58 t-inv F
 -0.153846  0.461538 -0.222222    0.00065746  58 t-inv F
  0.307692 -0.461538 -0.222222    0.00065746  58 t-inv F
 -0.307692  0.461538  0.222222    0.00065746  58 t-inv F
 -0.461538  0.153846 -0.222222    0.00065746  58 t-inv F
  0.461538 -0.153846  0.222222    0.00065746  58 t-inv F
  0.153846  0.307692 -0.222222    0.00065746  58 t-inv F
 -0.153846 -0.307692  0.222222    0.00065746  58 t-inv F
 -0.153846  0.461538  0.222222    0.00065746  58 t-inv F
  0.153846 -0.461538 -0.222222    0.00065746  58 t-inv F
 -0.307692 -0.153846  0.222222    0.00065746  58 t-inv F
  0.307692  0.153846 -0.222222    0.00065746  58 t-inv F
  0.461538 -0.307692  0.222222    0.00065746  58 t-inv F
 -0.461538  0.307692 -0.222222    0.00065746  58 t-inv F
 -0.153846 -0.307692 -0.222222    0.00065746  58 t-inv F
  0.153846  0.307692  0.222222    0.00065746  58 t-inv F
 -0.307692  0.461538 -0.222222    0.00065746  58 t-inv F
  0.307692 -0.461538  0.222222    0.00065746  58 t-inv F
  0.461538 -0.153846 -0.222222    0.00065746  58 t-inv F
 -0.461538  0.153846  0.222222    0.00065746  58 t-inv F
 -0.384615 -0.153846 -0.222222    0.00065746  59 t-inv F
 -0.538462  0.384615  0.222222    0.00065746  59 t-inv F
  0.538462 -0.384615 -0.222222    0.00065746  59 t-inv F
  0.153846 -0.538462  0.222222    0.00065746  59 t-inv F
 -0.153846  0.538462 -0.222222    0.00065746  59 t-inv F
  0.384615 -0.538462 -0.222222    0.00065746  59 t-inv F
 -0.384615  0.538462  0.222222    0.00065746  59 t-inv F
 -0.538462  0.153846 -0.222222    0.00065746  59 t-inv F
  0.538462 -0.153846  0.222222    0.00065746  59 t-inv F
  0.153846  0.384615 -0.222222    0.00065746  59 t-inv F
 -0.153846 -0.384615  0.222222    0.00065746  59 t-inv F
 -0.153846  0.538462  0.222222    0.00065746  59 t-inv F
  0.153846 -0.538462 -0.222222    0.00065746  59 t-inv F
 -0.384615 -0.153846  0.222222    0.00065746  59 t-inv F
  0.384615  0.153846 -0.222222    0.00065746  59 t-inv F
  0.538462 -0.384615  0.222222    0.00065746  59 t-inv F
 -0.538462  0.384615 -0.222222    0.00065746  59 t-inv F
 -0.153846 -0.384615 -0.222222    0.00065746  59 t-inv F
  0.153846  0.384615  0.222222    0.00065746  59 t-inv F
 -0.384615  0.538462 -0.222222    0.00065746  59 t-inv F
  0.384615 -0.538462  0.222222    0.00065746  59 t-inv F
  0.538462 -0.153846 -0.222222    0.00065746  59 t-inv F
 -0.538462  0.153846  0.222222    0.00065746  59 t-inv F
 -0.230769 -0.230769 -0.222222    0.00065746  60 t-inv F
 -0.461538  0.230769  0.222222    0.00065746  60 t-inv F
  0.461538 -0.230769 -0.222222    0.00065746  60 t-inv F
  0.230769 -0.461538  0.222222    0.00065746  60 t-inv F
 -0.230769  0.461538 -0.222222    0.00065746  60 t-inv F
  0.230769 -0.461538 -0.222222    0.00065746  60 t-inv F
 -0.230769  0.461538  0.222222    0.00065746  60 t-inv F
 -0.461538  0.230769 -0.222222    0.00065746  60 t-inv F
  0.461538 -0.230769  0.222222    0.00065746  60 t-inv F
  0.230769  0.230769 -0.222222    0.00065746  60 t-inv F
 -0.230769 -0.230769  0.222222    0.00065746  60 t-inv F
 -0.307692 -0.230769 -0.222222    0.00065746  61 t-inv F
 -0.538462  0.307692  0.222222    0.00065746  61 t-inv F
  0.538462 -0.307692 -0.222222    0.00065746  61 t-inv F
  0.230769 -0.538462  0.222222    0.00065746  61 t-inv F
 -0.230769  0.538462 -0.222222    0.00065746  61 t-inv F
  0.307692 -0.538462 -0.222222    0.00065746  61 t-inv F
 -0.307692  0.538462  0.222222    0.00065746  61 t-inv F
 -0.538462  0.230769 -0.222222    0.00065746  61 t-inv F
  0.538462 -0.230769  0.222222    0.00065746  61 t-inv F
  0.230769  0.307692 -0.222222    0.00065746  61 t-inv F
 -0.230769 -0.307692  0.222222    0.00065746  61 t-inv F
 -0.230769  0.538462  0.222222    0.00065746  61 t-inv F
  0.230769 -0.538462 -0.222222    0.00065746  61 t-inv F
 -0.307692 -0.230769  0.222222    0.00065746  61 t-inv F
  0.307692  0.230769 -0.222222    0.00065746  61 t-inv F
  0.538462 -0.307692  0.222222    0.00065746  61 t-inv F
 -0.538462  0.307692 -0.222222    0.00065746  61 t-inv F
 -0.230769 -0.307692 -0.222222    0.00065746  61 t-inv F
  0.230769  0.307692  0.222222    0.00065746  61 t-inv F
 -0.307692  0.538462 -0.222222    0.00065746  61 t-inv F
  0.307692 -0.538462  0.222222    0.00065746  61 t-inv F
  0.538462 -0.230769 -0.222222    0.00065746  61 t-inv F
 -0.538462  0.230769  0.222222    0.00065746  61 t-inv F
 -0.384615 -0.230769 -0.222222    0.00065746  62 t-inv F
 -0.615385  0.384615  0.222222    0.00065746  62 t-inv F
  0.615385 -0.384615 -0.222222    0.00065746  62 t-inv F
  0.230769 -0.615385  0.222222    0.00065746  62 t-inv F
 -0.230769  0.615385 -0.222222    0.00065746  62 t-inv F
  0.384615 -0.615385 -0.222222    0.00065746  62 t-inv F
 -0.384615  0.615385  0.222222    0.00065746  62 t-inv F
 -0.615385  0.230769 -0.222222    0.00065746  62 t-inv F
  0.615385 -0.230769  0.222222    0.00065746  62 t-inv F
  0.230769  0.384615 -0.222222    0.00065746  62 t-inv F
 -0.230769 -0.384615  0.222222    0.00065746  62 t-inv F
 -0.307692 -0.307692 -0.222222    0.00065746  63 t-inv F
 -0.615385  0.307692  0.222222    0.00065746  63 t-inv F
  0.615385 -0.307692 -0.222222    0.00065746  63 t-inv F
  0.307692 -0.615385  0.222222    0.00065746  63 t-inv F
 -0.307692  0.615385 -0.222222    0.00065746  63 t-inv F
  0.307692 -0.615385 -0.222222    0.00065746  63 t-inv F
 -0.307692  0.615385  0.222222    0.00065746  63 t-inv F
 -0.615385  0.307692 -0.222222    0.00065746  63 t-inv F
  0.615385 -0.307692  0.222222    0.00065746  63 t-inv F
  0.307692  0.307692 -0.222222    0.00065746  63 t-inv F
 -0.307692 -0.307692  0.222222    0.00065746  63 t-inv F
  0.000000  0.000000 -0.333333    0.00065746  64 t-inv F
 -0.076923  0.000000 -0.333333    0.00065746  65 t-inv F
 -0.076923  0.076923  0.333333    0.00065746  65 t-inv F
  0.076923 -0.076923 -0.333333    0.00065746  65 t-inv F
 -0.000000 -0.076923  0.333333    0.00065746  65 t-inv F
  0.000000  0.076923 -0.333333    0.00065746  65 t-inv F
  0.000000  0.076923  0.333333    0.00065746  65 t-inv F
 -0.000000 -0.076923 -0.333333    0.00065746  65 t-inv F
 -0.076923  0.000000  0.333333    0.00065746  65 t-inv F
  0.076923 -0.000000 -0.333333    0.00065746  65 t-inv F
  0.076923 -0.076923  0.333333    0.00065746  65 t-inv F
 -0.076923  0.076923 -0.333333    0.00065746  65 t-inv F
 -0.153846  0.000000 -0.333333    0.00065746  66 t-inv F
 -0.153846  0.153846  0.333333    0.00065746  66 t-inv F
  0.153846 -0.153846 -0.333333    0.00065746  66 t-inv F
 -0.000000 -0.153846  0.333333    0.00065746  66 t-inv F
  0.000000  0.153846 -0.333333    0.00065746  66 t-inv F
  0.000000  0.153846  0.333333    0.00065746  66 t-inv F
 -0.000000 -0.153846 -0.333333    0.00065746  66 t-inv F
 -0.153846  0.000000  0.333333    0.00065746  66 t-inv F
  0.153846 -0.000000 -0.333333    0.00065746  66 t-inv F
  0.153846 -0.153846  0.333333    0.00065746  66 t-inv F
 -0.153846  0.153846 -0.333333    0.00065746  66 t-inv F
 -0.230769  0.000000 -0.333333    0.00065746  67 t-inv F
 -0.230769  0.230769  0.333333    0.00065746  67 t-inv F
  0.230769 -0.230769 -0.333333    0.00065746  67 t-inv F
 -0.000000 -0.230769  0.333333    0.00065746  67 t-inv F
  0.000000  0.230769 -0.333333    0.00065746  67 t-inv F
  0.000000  0.230769  0.333333    0.00065746  67 t-inv F
 -0.000000 -0.230769 -0.333333    0.00065746  67 t-inv F
 -0.230769  0.000000  0.333333    0.00065746  67 t-inv F
  0.230769 -0.000000 -0.333333    0.00065746  67 t-inv F
  0.230769 -0.230769  0.333333    0.00065746  67 t-inv F
 -0.230769  0.230769 -0.333333    0.00065746  67 t-inv F
 -0.307692  0.000000 -0.333333    0.00065746  68 t-inv F
 -0.307692  0.307692  0.333333    0.00065746  68 t-inv F
  0.307692 -0.307692 -0.333333    0.00065746  68 t-inv F
 -0.000000 -0.307692  0.333333    0.00065746  68 t-inv F
  0.000000  0.307692 -0.333333    0.00065746  68 t-inv F
  0.000000  0.307692  0.333333    0.00065746  68 t-inv F
 -0.000000 -0.307692 -0.333333    0.00065746  68 t-inv F
 -0.307692  0.000000  0.333333    0.00065746  68 t-inv F
  0.307692 -0.000000 -0.333333    0.00065746  68 t-inv F
  0.307692 -0.307692  0.333333    0.00065746  68 t-inv F
 -0.307692  0.307692 -0.333333    0.00065746  68 t-inv F
 -0.384615  0.000000 -0.333333    0.00065746  69 t-inv F
 -0.384615  0.384615  0.333333    0.00065746  69 t-inv F
  0.384615 -0.384615 -0.333333    0.00065746  69 t-inv F
 -0.000000 -0.384615  0.333333    0.00065746  69 t-inv F
  0.000000  0.384615 -0.333333    0.00065746  69 t-inv F
  0.000000  0.384615  0.333333    0.00065746  69 t-inv F
 -0.000000 -0.384615 -0.333333    0.00065746  69 t-inv F
 -0.384615  0.000000  0.333333    0.00065746  69 t-inv F
  0.384615 -0.000000 -0.333333    0.00065746  69 t-inv F
  0.384615 -0.384615  0.333333    0.00065746  69 t-inv F
 -0.384615  0.384615 -0.333333    0.00065746  69 t-inv F
 -0.461538  0.000000 -0.333333    0.00065746  70 t-inv F
 -0.461538  0.461538  0.333333    0.00065746  70 t-inv F
  0.461538 -0.461538 -0.333333    0.00065746  70 t-inv F
 -0.000000 -0.461538  0.333333    0.00065746  70 t-inv F
  0.000000  0.461538 -0.333333    0.00065746  70 t-inv F
  0.000000  0.461538  0.333333    0.00065746  70 t-inv F
 -0.000000 -0.461538 -0.333333    0.00065746  70 t-inv F
 -0.461538  0.000000  0.333333    0.00065746  70 t-inv F
  0.461538 -0.000000 -0.333333    0.00065746  70 t-inv F
  0.461538 -0.461538  0.333333    0.00065746  70 t-inv F
 -0.461538  0.461538 -0.333333    0.00065746  70 t-inv F
 -0.076923 -0.076923 -0.333333    0.00065746  71 t-inv F
 -0.153846  0.076923  0.333333    0.00065746  71 t-inv F
  0.153846 -0.076923 -0.333333    0.00065746  71 t-inv F
  0.076923 -0.153846  0.333333    0.00065746  71 t-inv F
 -0.076923  0.153846 -0.333333    0.00065746  71 t-inv F
  0.076923 -0.153846 -0.333333    0.00065746  71 t-inv F
 -0.076923  0.153846  0.333333    0.00065746  71 t-inv F
 -0.153846  0.076923 -0.333333    0.00065746  71 t-inv F
  0.153846 -0.076923  0.333333    0.00065746  71 t-inv F
  0.076923  0.076923 -0.333333    0.00065746  71 t-inv F
 -0.076923 -0.076923  0.333333    0.00065746  71 t-inv F
 -0.153846 -0.076923 -0.333333    0.00065746  72 t-inv F
 -0.230769  0.153846  0.333333    0.00065746  72 t-inv F
  0.230769 -0.153846 -0.333333    0.00065746  72 t-inv F
  0.076923 -0.230769  0.333333    0.00065746  72 t-inv F
 -0.076923  0.230769 -0.333333    0.00065746  72 t-inv F
  0.153846 -0.230769 -0.333333    0.00065746  72 t-inv F
 -0.153846  0.230769  0.333333    0.00065746  72 t-inv F
 -0.230769  0.076923 -0.333333    0.00065746  72 t-inv F
  0.230769 -0.076923  0.333333    0.00065746  72 t-inv F
  0.076923  0.153846 -0.333333    0.00065746  72 t-inv F
 -0.076923 -0.153846  0.333333    0.00065746  72 t-inv F
 -0.076923  0.230769  0.333333    0.00065746  72 t-inv F
  0.076923 -0.230769 -0.333333    0.00065746  72 t-inv F
 -0.153846 -0.076923  0.333333    0.00065746  72 t-inv F
  0.153846  0.076923 -0.333333    0.00065746  72 t-inv F
  0.230769 -0.153846  0.333333    0.00065746  72 t-inv F
 -0.230769  0.153846 -0.333333    0.00065746  72 t-inv F
 -0.076923 -0.153846 -0.333333    0.00065746  72 t-inv F
  0.076923  0.153846  0.333333    0.00065746  72 t-inv F
 -0.153846  0.230769 -0.333333    0.00065746  72 t-inv F
  0.153846 -0.230769  0.333333    0.00065746  72 t-inv F
  0.230769 -0.076923 -0.333333    0.00065746  72 t-inv F
[...]
          X           Y           Z          XY          YZ          ZX
  --------------------------------------------------------------------------------
  x    -0.00000     0.00000     0.00000    -1.94320     0.00000     0.00000
  y    -1.94320     1.94320     0.00000     0.00000     0.00000     0.00000
  z     0.00000    -0.00000    -0.00000    -0.00000     0.00000    -0.00000

 INTERNAL STRAIN TENSOR FOR ION    2 for displacements in x,y,z  (eV/Angst):
          X           Y           Z          XY          YZ          ZX
  --------------------------------------------------------------------------------
  x     0.00000    -0.00000     0.00000     1.94320     0.00000     0.00000
  y     1.94320    -1.94320    -0.00000    -0.00000     0.00000     0.00000
  z    -0.00000     0.00000     0.00000     0.00000     0.00000     0.00000


--------------------------------------------------------------------------------------------------------


 
 Eigenvectors and eigenvalues of the dynamical matrix
 ----------------------------------------------------
 
 
   1 f  =    4.642588 THz    29.170239 2PiTHz  154.860055 cm-1    19.200207 meV
             X         Y         Z           dx          dy          dz
     -0.000001  1.864184  1.294345    -0.000000    0.000000   -0.707107  
      1.614432  0.932091  3.883034     0.000000    0.000000    0.707107  
 
   2 f  =    2.128986 THz    13.376816 2PiTHz   71.015338 cm-1     8.804783 meV
             X         Y         Z           dx          dy          dz
     -0.000001  1.864184  1.294345    -0.614780   -0.349350   -0.000000  
      1.614432  0.932091  3.883034     0.614780    0.349350    0.000000  
 
   3 f  =    2.128986 THz    13.376813 2PiTHz   71.015323 cm-1     8.804781 meV
             X         Y         Z           dx          dy          dz
     -0.000001  1.864184  1.294345    -0.349350    0.614780    0.000000  
      1.614432  0.932091  3.883034     0.349350   -0.614780    0.000000  
 
   4 f  =    0.000000 THz     0.000000 2PiTHz    0.000001 cm-1     0.000000 meV
             X         Y         Z           dx          dy          dz
     -0.000001  1.864184  1.294345    -0.476806    0.522164    0.000000  
      1.614432  0.932091  3.883034    -0.476806    0.522164    0.000000  
 
   5 f  =    0.000000 THz     0.000000 2PiTHz    0.000000 cm-1     0.000000 meV
             X         Y         Z           dx          dy          dz
     -0.000001  1.864184  1.294345     0.000000   -0.000000    0.707107  
      1.614432  0.932091  3.883034    -0.000000    0.000000    0.707107  
 
   6 f/i=    0.000000 THz     0.000000 2PiTHz    0.000001 cm-1     0.000000 meV
             X         Y         Z           dx          dy          dz
     -0.000001  1.864184  1.294345     0.522164    0.476806    0.000000  
      1.614432  0.932091  3.883034     0.522164    0.476806    0.000000  
 


--------------------------------------------------------------------------------------------------------



 ELASTIC MODULI CONTR FROM IONIC RELAXATION (kBar)
 Direction    XX          YY          ZZ          XY          YZ          ZX
 --------------------------------------------------------------------------------
 XX        -152.9967    152.9966      0.0000     -0.0000      0.0000      0.0000
 YY         152.9966   -152.9966     -0.0000     -0.0000      0.0000     -0.0000
 ZZ           0.0000     -0.0000     -0.0000     -0.0000      0.0000     -0.0000
 XY          -0.0000     -0.0000     -0.0000   -152.9966      0.0000     -0.0000
 YZ           0.0000      0.0000      0.0000      0.0000      0.0000      0.0000
 ZX           0.0000     -0.0000     -0.0000     -0.0000      0.0000     -0.0000
 --------------------------------------------------------------------------------


 TOTAL ELASTIC MODULI (kBar)
 Direction    XX          YY          ZZ          XY          YZ          ZX
 --------------------------------------------------------------------------------
 XX        1324.2550    728.0650    675.3385      0.0002      0.0000      0.0000
 YY         728.0650   1324.2544    675.3383      0.0002     -0.0000     -0.0000
 ZZ         675.3385    675.3383   1613.1248      0.0001     -0.0000     -0.0000
 XY           0.0002      0.0002      0.0001    298.0948     -0.0000      0.0000
 YZ           0.0000     -0.0000     -0.0000      0.0000    250.5554      0.0000
 ZX           0.0000     -0.0000     -0.0000      0.0000      0.0000    250.5558
 --------------------------------------------------------------------------------



--------------------------------------------------------------------------------------------------------


  LATTYP: Found a hexagonal cell.
 ALAT       =     3.2288608796
 C/A-ratio  =     1.6034689044
  
  Lattice vectors:
  
 A1 = (   3.2288608878,   0.0000000040,   0.0000000000)
 A2 = (  -1.6144299333,   2.7962752459,   0.0000000000)
 A3 = (   0.0000000000,   0.0000000000,   5.1773780171)


Analysis of symmetry for initial positions (statically):
=====================================================================
 Subroutine PRICEL returns:
 Original cell was already a primitive cell.
 

 Routine SETGRP: Setting up the symmetry group for a 
 hexagonal supercell.


 Subroutine GETGRP returns: Found 24 space group operations
 (whereof 12 operations were pure point group operations)
 out of a pool of 24 trial point group operations.


The static configuration has the point symmetry D_3d.
 The point group associated with its full space group is D_6h.


Analysis of symmetry for dynamics (positions and initial velocities):
=====================================================================
 Subroutine PRICEL returns:
 Original cell was already a primitive cell.
 

 Routine SETGRP: Setting up the symmetry group for a 
 hexagonal supercell.


 Subroutine GETGRP returns: Found 24 space group operations
 (whereof 12 operations were pure point group operations)
 out of a pool of 24 trial point group operations.


The dynamic configuration has the point symmetry D_3d.
 The point group associated with its full space group is D_6h.


 Subroutine INISYM returns: Found 24 space group operations
 (whereof 12 operations are pure point group operations),
 and found     1 'primitive' translations

 
 KPOINTS: k points                                

Automatic generation of k-mesh.
Space group operators:
 irot       det(A)        alpha          n_x          n_y          n_z        tau_x        tau_y        tau_z
    1     1.000000     0.000000     1.000000     0.000000     0.000000     0.000000     0.000000     0.000000
    2    -1.000000     0.000000     1.000000     0.000000     0.000000     0.000000     0.000000     0.000000
    3     1.000000   120.000000     0.000000     0.000000    -1.000000     0.000000     0.000000     0.000000
    4    -1.000000   120.000000     0.000000     0.000000    -1.000000     0.000000     0.000000     0.000000
    5     1.000000   120.000000     0.000000     0.000000     1.000000     0.000000     0.000000     0.000000
    6    -1.000000   120.000000     0.000000     0.000000     1.000000     0.000000     0.000000     0.000000
    7     1.000000   180.000000     1.000000    -0.000000     0.000000     0.000000     0.000000     0.000000
    8    -1.000000   180.000000     1.000000    -0.000000     0.000000     0.000000     0.000000     0.000000
    9     1.000000   180.000000     0.500000    -0.866025     0.000000     0.000000     0.000000     0.000000
   10    -1.000000   180.000000     0.500000    -0.866025     0.000000     0.000000     0.000000     0.000000
   11     1.000000   180.000000    -0.500000    -0.866025     0.000000     0.000000     0.000000     0.000000
   12    -1.000000   180.000000    -0.500000    -0.866025     0.000000     0.000000     0.000000     0.000000
   13     1.000000    60.000000     0.000000     0.000000    -1.000000     0.000001     0.000000    -0.500000
   14    -1.000000    60.000000     0.000000     0.000000    -1.000000     0.000000     0.000000    -0.500000
   15     1.000000   180.000000     0.000000     0.000000     1.000000     0.000000     0.000000    -0.500000
   16    -1.000000   180.000000     0.000000     0.000000     1.000000     0.000000     0.000000    -0.500000
   17     1.000000    60.000000     0.000000     0.000000     1.000000    -0.000000     0.000001    -0.500000
   18    -1.000000    60.000000     0.000000     0.000000     1.000000     0.000000     0.000000    -0.500000
   19     1.000000   180.000000     0.866025    -0.500000     0.000000     0.000000     0.000000    -0.500000
   20    -1.000000   180.000000     0.866025    -0.500000     0.000000     0.000000     0.000000    -0.500000
   21     1.000000   180.000000     0.000000    -1.000000     0.000000     0.000001     0.000000    -0.500000
   22    -1.000000   180.000000     0.000000    -1.000000     0.000000     0.000000     0.000000    -0.500000
   23     1.000000   180.000000     0.866025     0.500000     0.000000    -0.000000     0.000001    -0.500000
   24    -1.000000   180.000000     0.866025     0.500000     0.000000     0.000000     0.000000    -0.500000
 
 Subroutine IBZKPT returns following result:
 ===========================================
 
 Found    105 irreducible k-points:
 
 Following reciprocal coordinates:
            Coordinates               Weight
  0.000000  0.000000  0.000000      1.000000
  0.076923 -0.000000  0.000000      6.000000
  0.153846 -0.000000  0.000000      6.000000
  0.230769 -0.000000  0.000000      6.000000
  0.307692 -0.000000  0.000000      6.000000
  0.384615 -0.000000  0.000000      6.000000
  0.461538 -0.000000  0.000000      6.000000
  0.076923  0.076923  0.000000      6.000000
  0.153846  0.076923  0.000000     12.000000
  0.230769  0.076923  0.000000     12.000000
  0.307692  0.076923  0.000000     12.000000
  0.384615  0.076923  0.000000     12.000000
  0.461538  0.076923  0.000000      6.000000
  0.153846  0.153846  0.000000      6.000000
  0.230769  0.153846  0.000000     12.000000
  0.307692  0.153846  0.000000     12.000000
  0.384615  0.153846  0.000000     12.000000
  0.230769  0.230769  0.000000      6.000000
  0.307692  0.230769  0.000000     12.000000
  0.384615  0.230769  0.000000      6.000000
  0.307692  0.307692  0.000000      6.000000
  0.000000  0.000000  0.111111      2.000000
  0.076923 -0.000000  0.111111     12.000000
  0.153846 -0.000000  0.111111     12.000000
  0.230769 -0.000000  0.111111     12.000000
  0.307692 -0.000000  0.111111     12.000000
  0.384615 -0.000000  0.111111     12.000000
  0.461538 -0.000000  0.111111     12.000000
  0.076923  0.076923  0.111111     12.000000
  0.153846  0.076923  0.111111     24.000000
  0.230769  0.076923  0.111111     24.000000
  0.307692  0.076923  0.111111     24.000000
  0.384615  0.076923  0.111111     24.000000
  0.461538  0.076923  0.111111     12.000000
  0.153846  0.153846  0.111111     12.000000
  0.230769  0.153846  0.111111     24.000000
  0.307692  0.153846  0.111111     24.000000
  0.384615  0.153846  0.111111     24.000000
  0.230769  0.230769  0.111111     12.000000
  0.307692  0.230769  0.111111     24.000000
  0.384615  0.230769  0.111111     12.000000
  0.307692  0.307692  0.111111     12.000000
  0.000000  0.000000  0.222222      2.000000
  0.076923 -0.000000  0.222222     12.000000
  0.153846 -0.000000  0.222222     12.000000
  0.230769 -0.000000  0.222222     12.000000
  0.307692 -0.000000  0.222222     12.000000
  0.384615 -0.000000  0.222222     12.000000
  0.461538 -0.000000  0.222222     12.000000
  0.076923  0.076923  0.222222     12.000000
  0.153846  0.076923  0.222222     24.000000
  0.230769  0.076923  0.222222     24.000000
  0.307692  0.076923  0.222222     24.000000
  0.384615  0.076923  0.222222     24.000000
  0.461538  0.076923  0.222222     12.000000
  0.153846  0.153846  0.222222     12.000000
  0.230769  0.153846  0.222222     24.000000
  0.307692  0.153846  0.222222     24.000000
  0.384615  0.153846  0.222222     24.000000
  0.230769  0.230769  0.222222     12.000000
  0.307692  0.230769  0.222222     24.000000
  0.384615  0.230769  0.222222     12.000000
  0.307692  0.307692  0.222222     12.000000
  0.000000  0.000000  0.333333      2.000000
  0.076923 -0.000000  0.333333     12.000000
  0.153846 -0.000000  0.333333     12.000000
  0.230769 -0.000000  0.333333     12.000000
  0.307692 -0.000000  0.333333     12.000000
  0.384615 -0.000000  0.333333     12.000000
  0.461538 -0.000000  0.333333     12.000000
  0.076923  0.076923  0.333333     12.000000
  0.153846  0.076923  0.333333     24.000000
  0.230769  0.076923  0.333333     24.000000
  0.307692  0.076923  0.333333     24.000000
  0.384615  0.076923  0.333333     24.000000
  0.461538  0.076923  0.333333     12.000000
  0.153846  0.153846  0.333333     12.000000
  0.230769  0.153846  0.333333     24.000000
  0.307692  0.153846  0.333333     24.000000
  0.384615  0.153846  0.333333     24.000000
  0.230769  0.230769  0.333333     12.000000
  0.307692  0.230769  0.333333     24.000000
  0.384615  0.230769  0.333333     12.000000
  0.307692  0.307692  0.333333     12.000000
  0.000000  0.000000  0.444444      2.000000
  0.076923 -0.000000  0.444444     12.000000
  0.153846 -0.000000  0.444444     12.000000
  0.230769 -0.000000  0.444444     12.000000
  0.307692 -0.000000  0.444444     12.000000
  0.384615 -0.000000  0.444444     12.000000
  0.461538 -0.000000  0.444444     12.000000
  0.076923  0.076923  0.444444     12.000000
  0.153846  0.076923  0.444444     24.000000
  0.230769  0.076923  0.444444     24.000000
  0.307692  0.076923  0.444444     24.000000
  0.384615  0.076923  0.444444     24.000000
  0.461538  0.076923  0.444444     12.000000
  0.153846  0.153846  0.444444     12.000000
  0.230769  0.153846  0.444444     24.000000
  0.307692  0.153846  0.444444     24.000000
  0.384615  0.153846  0.444444     24.000000
  0.230769  0.230769  0.444444     12.000000
  0.307692  0.230769  0.444444     24.000000
  0.384615  0.230769  0.444444     12.000000
  0.307692  0.307692  0.444444     12.000000
 
 Following cartesian coordinates:
            Coordinates               Weight
  0.000000  0.000000  0.000000      1.000000
  0.023824  0.013755  0.000000      6.000000
  0.047647  0.027509  0.000000      6.000000
  0.071471  0.041264  0.000000      6.000000
  0.095294  0.055018  0.000000      6.000000
  0.119118  0.068773  0.000000      6.000000
  0.142942  0.082527  0.000000      6.000000
  0.023824  0.041264  0.000000      6.000000
  0.047647  0.055018  0.000000     12.000000
  0.071471  0.068773  0.000000     12.000000
  0.095294  0.082527  0.000000     12.000000
  0.119118  0.096282  0.000000     12.000000
  0.142942  0.110036  0.000000      6.000000
  0.047647  0.082527  0.000000      6.000000
  0.071471  0.096282  0.000000     12.000000
  0.095294  0.110036  0.000000     12.000000
  0.119118  0.123791  0.000000     12.000000
  0.071471  0.123791  0.000000      6.000000
  0.095294  0.137546  0.000000     12.000000
  0.119118  0.151300  0.000000      6.000000
  0.095294  0.165055  0.000000      6.000000
  0.000000  0.000000  0.021461      2.000000
  0.023824  0.013755  0.021461     12.000000
  0.047647  0.027509  0.021461     12.000000
  0.071471  0.041264  0.021461     12.000000
  0.095294  0.055018  0.021461     12.000000
  0.119118  0.068773  0.021461     12.000000
  0.142942  0.082527  0.021461     12.000000
  0.023824  0.041264  0.021461     12.000000
  0.047647  0.055018  0.021461     24.000000
  0.071471  0.068773  0.021461     24.000000
  0.095294  0.082527  0.021461     24.000000
  0.119118  0.096282  0.021461     24.000000
  0.142942  0.110036  0.021461     12.000000
  0.047647  0.082527  0.021461     12.000000
  0.071471  0.096282  0.021461     24.000000
  0.095294  0.110036  0.021461     24.000000
  0.119118  0.123791  0.021461     24.000000
  0.071471  0.123791  0.021461     12.000000
  0.095294  0.137546  0.021461     24.000000
  0.119118  0.151300  0.021461     12.000000
  0.095294  0.165055  0.021461     12.000000
  0.000000  0.000000  0.042922      2.000000
  0.023824  0.013755  0.042922     12.000000
  0.047647  0.027509  0.042922     12.000000
  0.071471  0.041264  0.042922     12.000000
  0.095294  0.055018  0.042922     12.000000
  0.119118  0.068773  0.042922     12.000000
  0.142942  0.082527  0.042922     12.000000
  0.023824  0.041264  0.042922     12.000000
  0.047647  0.055018  0.042922     24.000000
  0.071471  0.068773  0.042922     24.000000
  0.095294  0.082527  0.042922     24.000000
  0.119118  0.096282  0.042922     24.000000
  0.142942  0.110036  0.042922     12.000000
  0.047647  0.082527  0.042922     12.000000
  0.071471  0.096282  0.042922     24.000000
  0.095294  0.110036  0.042922     24.000000
  0.119118  0.123791  0.042922     24.000000
  0.071471  0.123791  0.042922     12.000000
  0.095294  0.137546  0.042922     24.000000
  0.119118  0.151300  0.042922     12.000000
  0.095294  0.165055  0.042922     12.000000
  0.000000  0.000000  0.064383      2.000000
  0.023824  0.013755  0.064383     12.000000
  0.047647  0.027509  0.064383     12.000000
  0.071471  0.041264  0.064383     12.000000
  0.095294  0.055018  0.064383     12.000000
  0.119118  0.068773  0.064383     12.000000
  0.142942  0.082527  0.064383     12.000000
  0.023824  0.041264  0.064383     12.000000
  0.047647  0.055018  0.064383     24.000000
  0.071471  0.068773  0.064383     24.000000
  0.095294  0.082527  0.064383     24.000000
  0.119118  0.096282  0.064383     24.000000
  0.142942  0.110036  0.064383     12.000000
  0.047647  0.082527  0.064383     12.000000
  0.071471  0.096282  0.064383     24.000000
  0.095294  0.110036  0.064383     24.000000
  0.119118  0.123791  0.064383     24.000000
  0.071471  0.123791  0.064383     12.000000
  0.095294  0.137546  0.064383     24.000000
  0.119118  0.151300  0.064383     12.000000
  0.095294  0.165055  0.064383     12.000000
  0.000000  0.000000  0.085844      2.000000
  0.023824  0.013755  0.085844     12.000000
  0.047647  0.027509  0.085844     12.000000
  0.071471  0.041264  0.085844     12.000000
  0.095294  0.055018  0.085844     12.000000
  0.119118  0.068773  0.085844     12.000000
  0.142942  0.082527  0.085844     12.000000
  0.023824  0.041264  0.085844     12.000000
  0.047647  0.055018  0.085844     24.000000
  0.071471  0.068773  0.085844     24.000000
  0.095294  0.082527  0.085844     24.000000
  0.119118  0.096282  0.085844     24.000000
  0.142942  0.110036  0.085844     12.000000
  0.047647  0.082527  0.085844     12.000000
  0.071471  0.096282  0.085844     24.000000
  0.095294  0.110036  0.085844     24.000000
  0.119118  0.123791  0.085844     24.000000
  0.071471  0.123791  0.085844     12.000000
  0.095294  0.137546  0.085844     24.000000
  0.119118  0.151300  0.085844     12.000000
  0.095294  0.165055  0.085844     12.000000
 
 writing wavefunctions
     LOOP+:  cpu time   81.8290: real time   82.0324
    4ORBIT:  cpu time    0.0000: real time    0.0000

 total amount of memory used by VASP MPI-rank0    60329. kBytes
=======================================================================

   base      :      30000. kBytes
   nonl-proj :      19394. kBytes
   fftplans  :        714. kBytes
   grid      :       1347. kBytes
   one-center:         31. kBytes
   wavefun   :       8843. kBytes
 
  
  
 General timing and accounting informations for this job:
 ========================================================
  
                  Total CPU time used (sec):     3163.323
                            User time (sec):     1076.923
                          System time (sec):     2086.400
                         Elapsed time (sec):     3168.596
  
                   Maximum memory used (kb):      298868.
                   Average memory used (kb):           0.
  
                          Minor page faults:       342159
                          Major page faults:           98
                 Voluntary context switches:         1323
