 vasp.6.4.1 05Apr23 (build Jul 24 2024 14:19:02) complex                         
 executed on             LinuxGNU date 2024.10.23  13:30:40
 running    1 mpi-ranks, with   24 threads/rank, on    1 nodes
 distrk:  each k-point on    1 cores,    1 groups
 distr:  one band on NCORE=   1 cores,    1 groups


--------------------------------------------------------------------------------------------------------


 INCAR:
   ISTART = 0
   ALGO = Fast
   EDIFF = 0.0001
   ENCUT = 520
   IBRION = -1
   ISIF = 2
   ISMEAR = -5
   ISPIN = 2
   LASPH = True
   LMAXMIX = 6
   LORBIT = 11
   LREAL = Auto
   LWAVE = False
   MAGMOM = 2*0.6
   NELM = 100
   NSW = 0
   PREC = Accurate
   SIGMA = 0.05

 POTCAR:    PAW_PBE Nb_pv 08Apr2002               
 POTCAR:    PAW_PBE Nb_pv 08Apr2002               
   SHA256 =  bac2b60850b34f8515cf56f9feae68b678e347865051052a0e1f5d2c6a691c0a Nb_pv/POTCAR          
   COPYR  = (c) Copyright 08Apr2002 Georg Kresse                                                    
   COPYR  = This file is part of the software VASP. Any use, copying, and all other rights are regul
   COPYR  = If you do not have a valid VASP license, you may not use, copy or distribute this file. 
   VRHFIN =Nb: 4p5s4d                                                                               
   LEXCH  = PE                                                                                      
   EATOM  =  1043.3917 eV,   76.6871 Ry                                                             
                                                                                                    
   TITEL  = PAW_PBE Nb_pv 08Apr2002                                                                 
   LULTRA =        F    use ultrasoft PP ?                                                          
   IUNSCR =        1    unscreen: 0-lin 1-nonlin 2-no                                               
   RPACOR =    2.200    partial core radius                                                         
   POMASS =   92.000; ZVAL   =   11.000    mass and valenz                                          
   RCORE  =    2.750    outmost cutoff radius                                                       
   RWIGS  =    2.840; RWIGS  =    1.503    wigner-seitz radius (au A)                               
   ENMAX  =  208.608; ENMIN  =  156.456 eV                                                          
   RCLOC  =    2.201    cutoff for local pot                                                        
   LCOR   =        T    correct aug charges                                                         
   LPAW   =        T    paw PP                                                                      
   EAUG   =  355.067                                                                                
   DEXC   =    0.000                                                                                
   RMAX   =    2.804    core radius for proj-oper                                                   
   RAUG   =    1.300    factor for augmentation sphere                                              
   RDEP   =    2.776    radius for radial grids                                                     
   RDEPT  =    2.198    core radius for aug-charge                                                  
                                                                                                    
   Atomic configuration                                                                             
   11 entries                                                                                       
     n  l   j            E        occ.                                                              
     1  0  0.50    -18805.2456   2.0000                                                             
     2  0  0.50     -2630.2869   2.0000                                                             
     2  1  1.50     -2348.4045   6.0000                                                             
     3  0  0.50      -438.8756   2.0000                                                             
     3  1  1.50      -346.7587   6.0000                                                             
     3  2  2.50      -196.2559  10.0000                                                             
     4  0  0.50       -58.3859   2.0000                                                             
     4  1  1.50       -34.5141   6.0000                                                             
     4  2  2.50        -3.0408   4.0000                                                             
     5  0  0.50        -3.9816   1.0000                                                             
     4  3  2.50        -1.3606   0.0000                                                             
   Description                                                                                      
     l       E           TYP  RCUT    TYP  RCUT                                                     
     1    -34.5140617     23  2.600                                                                 
     1     -1.3605826     23  2.600                                                                 
     2     -3.0407924     23  2.600                                                                 
     2     -1.4463597     23  2.600                                                                 
     0     -3.9816219     23  2.750                                                                 
     0     20.4087390     23  2.750                                                                 
  local pseudopotential read in
  partial core-charges read in
  partial kinetic energy density read in
  atomic valenz-charges read in
  non local Contribution for L=           1  read in
    real space projection operators read in
  non local Contribution for L=           1  read in
    real space projection operators read in
  non local Contribution for L=           2  read in
    real space projection operators read in
  non local Contribution for L=           2  read in
    real space projection operators read in
  non local Contribution for L=           0  read in
    real space projection operators read in
  non local Contribution for L=           0  read in
    real space projection operators read in
    PAW grid and wavefunctions read in

   number of l-projection  operators is LMAX  =           6
   number of lm-projection operators is LMMAX =          18

 -----------------------------------------------------------------------------
|                                                                             |
|               ----> ADVICE to this user running VASP <----                  |
|                                                                             |
|     You have a (more or less) 'small supercell' and for smaller cells       |
|     it is recommended to use the reciprocal-space projection scheme!        |
|     The real-space optimization is not efficient for small cells and it     |
|     is also less accurate ...                                               |
|     Therefore, set LREAL=.FALSE. in the INCAR file.                         |
|                                                                             |
 -----------------------------------------------------------------------------

 Optimization of the real space projectors (new method)

 maximal supplied QI-value         = 13.61
 optimisation between [QCUT,QGAM] = [ 11.57, 23.27] = [ 37.45,151.59] Ry 
 Optimized for a Real-space Cutoff    1.63 Angstroem

   l    n(q)    QCUT    max X(q) W(low)/X(q) W(high)/X(q)  e(spline) 
   1     11    11.565     4.545    0.12E-04    0.18E-04    0.64E-07
   1     11    11.565     6.014    0.42E-04    0.48E-04    0.13E-06
   2     10    11.565   266.542    0.24E-03    0.87E-04    0.13E-05
   2     10    11.565   232.726    0.24E-03    0.87E-04    0.13E-05
   0     11    11.565    38.050    0.76E-04    0.32E-05    0.94E-06
   0     11    11.565    16.565    0.58E-04    0.25E-05    0.73E-06
  PAW_PBE Nb_pv 08Apr2002               :
 energy of atom  1       EATOM=-1043.3917
 kinetic energy error for atom=    0.0011 (will be added to EATOM!!)


 POSCAR: Generated POSCAR
  positions in direct lattice
  velocities in cartesian coordinates
 exchange correlation table for  LEXCH =        8
   RHO(1)=    0.500       N(1)  =     2000
   RHO(2)=  100.500       N(2)  =     4000



--------------------------------------------------------------------------------------------------------


 ion  position               nearest neighbor table
   1  0.000  0.000  0.000-   2 2.86   2 2.86   2 2.86   2 2.86   2 2.90   2 2.90   2 2.90   2 2.90

   2  0.500  0.500  0.500-   1 2.86   1 2.86   1 2.86   1 2.86   1 2.90   1 2.90   1 2.90   1 2.90


  LATTYP: Found a base centered orthorhombic cell.
 ALAT       =     4.6508833702
 B/A-ratio  =     1.0202020202
 C/A-ratio  =     0.7142492739
  
  Lattice vectors:
  
 A1 = (   0.0000000000,  -0.0332189007,  -3.3218900703)
 A2 = (   0.0000000000,   3.3218900703,   0.0332189007)
 A3 = (   3.3218900703,   0.0000000000,   0.0000000000)


Analysis of symmetry for initial positions (statically):
=====================================================================
 Subroutine PRICEL returns following result:
 
  LATTYP: Found a face centered orthorhombic cell.
 ALAT       =     3.3218900703
 B/A-ratio  =     1.4000714267
 C/A-ratio  =     1.4283556980
  
  Lattice vectors:
  
 A1 = (   0.0000000000,   3.3218900703,   0.0332189007)
 A2 = (   1.6609450351,   1.6775544855,   1.6775544855)
 A3 = (   1.6609450351,   1.6443355848,  -1.6443355848)
 
   2 primitive cells build up your supercell.
 

 Routine SETGRP: Setting up the symmetry group for a 
 base centered orthorhombic supercell.


 Subroutine GETGRP returns: Found  8 space group operations
 (whereof  8 operations were pure point group operations)
 out of a pool of  8 trial point group operations.


The static configuration has the point symmetry D_2h.


Analysis of symmetry for dynamics (positions and initial velocities):
=====================================================================
 Subroutine PRICEL returns following result:
 
  LATTYP: Found a face centered orthorhombic cell.
 ALAT       =     3.3218900703
 B/A-ratio  =     1.4000714267
 C/A-ratio  =     1.4283556980
  
  Lattice vectors:
  
 A1 = (   0.0000000000,   3.3218900703,   0.0332189007)
 A2 = (   1.6609450351,   1.6775544855,   1.6775544855)
 A3 = (   1.6609450351,   1.6443355848,  -1.6443355848)
 
   2 primitive cells build up your supercell.
 

 Routine SETGRP: Setting up the symmetry group for a 
 base centered orthorhombic supercell.


 Subroutine GETGRP returns: Found  8 space group operations
 (whereof  8 operations were pure point group operations)
 out of a pool of  8 trial point group operations.


The dynamic configuration has the point symmetry D_2h.


Analysis of structural, dynamic, and magnetic symmetry:
=====================================================================
 Subroutine PRICEL returns following result:
 
  LATTYP: Found a face centered orthorhombic cell.
 ALAT       =     3.3218900703
 B/A-ratio  =     1.4000714267
 C/A-ratio  =     1.4283556980
  
  Lattice vectors:
  
 A1 = (   0.0000000000,   3.3218900703,   0.0332189007)
 A2 = (   1.6609450351,   1.6775544855,   1.6775544855)
 A3 = (   1.6609450351,   1.6443355848,  -1.6443355848)
 
   2 primitive cells build up your supercell.
 

 Routine SETGRP: Setting up the symmetry group for a 
 base centered orthorhombic supercell.


 Subroutine GETGRP returns: Found  8 space group operations
 (whereof  8 operations were pure point group operations)
 out of a pool of  8 trial point group operations.


The overall configuration has the point symmetry D_2h.


 Subroutine INISYM returns: Found  8 space group operations
 (whereof  8 operations are pure point group operations),
 and found     2 'primitive' translations


----------------------------------------------------------------------------------------

                                     Primitive cell                                     

  volume of cell :      18.3266

  direct lattice vectors                    reciprocal lattice vectors
     0.000000000  3.321890070  0.033218901    -0.301033441  0.301063548 -0.003010635
     1.660945035  1.677554485  1.677554485     0.301033441 -0.003010635  0.301063548
     1.660945035  1.644335585 -1.644335585     0.301033441  0.003010635 -0.301063548

  length of vectors
     3.322056161  2.896051884  2.857694427     0.425757509  0.425757509  0.425757509

  position of ions in fractional coordinates (direct lattice)
     0.000000000  0.000000000  0.000000000

  ion indices of the primitive-cell ions
   primitive index   ion index
                 1           1

----------------------------------------------------------------------------------------



 KPOINTS: pymatgen with grid density = 869 / numbe

Automatic generation of k-mesh.
 Grid dimensions read from file:
 generate k-points for:    7    7    7

 Generating k-lattice:

  Cartesian coordinates                     Fractional coordinates (reciprocal lattice)
     0.043004777 -0.000000000  0.000000000     0.142857143 -0.000000000 -0.000000000
     0.000000000  0.043009078 -0.000430091    -0.000000000  0.142857143 -0.000000000
    -0.000000000 -0.000430091  0.043009078     0.000000000  0.000000000  0.142857143

  Length of vectors
     0.043004777  0.043011229  0.043011229

  Shift w.r.t. Gamma in fractional coordinates (k-lattice)
     0.000000000  0.000000000  0.000000000

 TETIRR: Found    517 inequivalent tetrahedra from     2058
 
 Subroutine IBZKPT returns following result:
 ===========================================
 
 Found     64 irreducible k-points:
 
 Following reciprocal coordinates:
            Coordinates               Weight
  0.000000  0.000000  0.000000      1.000000
  0.142857  0.000000  0.000000      2.000000
  0.285714  0.000000  0.000000      2.000000
  0.428571  0.000000  0.000000      2.000000
  0.000000  0.142857  0.000000      4.000000
  0.142857  0.142857  0.000000      8.000000
  0.285714  0.142857  0.000000      8.000000
  0.428571  0.142857  0.000000      8.000000
  0.000000  0.285714  0.000000      4.000000
  0.142857  0.285714  0.000000      8.000000
  0.285714  0.285714  0.000000      8.000000
  0.428571  0.285714  0.000000      8.000000
  0.000000  0.428571  0.000000      4.000000
  0.142857  0.428571  0.000000      8.000000
  0.285714  0.428571  0.000000      8.000000
  0.428571  0.428571  0.000000      8.000000
  0.000000  0.142857  0.142857      2.000000
  0.142857  0.142857  0.142857      4.000000
  0.285714  0.142857  0.142857      4.000000
  0.428571  0.142857  0.142857      4.000000
  0.000000  0.285714  0.142857      4.000000
  0.142857  0.285714  0.142857      8.000000
  0.285714  0.285714  0.142857      8.000000
  0.428571  0.285714  0.142857      8.000000
  0.000000  0.428571  0.142857      4.000000
  0.142857  0.428571  0.142857      8.000000
  0.285714  0.428571  0.142857      8.000000
  0.428571  0.428571  0.142857      8.000000
  0.000000 -0.428571  0.142857      4.000000
  0.142857 -0.428571  0.142857      8.000000
  0.285714 -0.428571  0.142857      8.000000
  0.428571 -0.428571  0.142857      8.000000
  0.000000 -0.285714  0.142857      4.000000
  0.142857 -0.285714  0.142857      8.000000
  0.285714 -0.285714  0.142857      8.000000
  0.428571 -0.285714  0.142857      8.000000
  0.000000 -0.142857  0.142857      2.000000
  0.142857 -0.142857  0.142857      4.000000
  0.285714 -0.142857  0.142857      4.000000
  0.428571 -0.142857  0.142857      4.000000
  0.000000  0.285714  0.285714      2.000000
  0.142857  0.285714  0.285714      4.000000
  0.285714  0.285714  0.285714      4.000000
  0.428571  0.285714  0.285714      4.000000
  0.000000  0.428571  0.285714      4.000000
  0.142857  0.428571  0.285714      8.000000
  0.285714  0.428571  0.285714      8.000000
  0.428571  0.428571  0.285714      8.000000
  0.000000 -0.428571  0.285714      4.000000
  0.142857 -0.428571  0.285714      8.000000
  0.285714 -0.428571  0.285714      8.000000
  0.428571 -0.428571  0.285714      8.000000
  0.000000 -0.285714  0.285714      2.000000
  0.142857 -0.285714  0.285714      4.000000
  0.285714 -0.285714  0.285714      4.000000
  0.428571 -0.285714  0.285714      4.000000
  0.000000  0.428571  0.428571      2.000000
  0.142857  0.428571  0.428571      4.000000
  0.285714  0.428571  0.428571      4.000000
  0.428571  0.428571  0.428571      4.000000
  0.000000 -0.428571  0.428571      2.000000
  0.142857 -0.428571  0.428571      4.000000
  0.285714 -0.428571  0.428571      4.000000
  0.428571 -0.428571  0.428571      4.000000
 
 Following cartesian coordinates:
            Coordinates               Weight
  0.000000  0.000000  0.000000      1.000000
  0.043005  0.000000  0.000000      2.000000
  0.086010  0.000000  0.000000      2.000000
  0.129014  0.000000  0.000000      2.000000
  0.000000  0.043009 -0.000430      4.000000
  0.043005  0.043009 -0.000430      8.000000
  0.086010  0.043009 -0.000430      8.000000
  0.129014  0.043009 -0.000430      8.000000
  0.000000  0.086018 -0.000860      4.000000
  0.043005  0.086018 -0.000860      8.000000
  0.086010  0.086018 -0.000860      8.000000
  0.129014  0.086018 -0.000860      8.000000
  0.000000  0.129027 -0.001290      4.000000
  0.043005  0.129027 -0.001290      8.000000
  0.086010  0.129027 -0.001290      8.000000
  0.129014  0.129027 -0.001290      8.000000
  0.000000  0.042579  0.042579      2.000000
  0.043005  0.042579  0.042579      4.000000
  0.086010  0.042579  0.042579      4.000000
  0.129014  0.042579  0.042579      4.000000
  0.000000  0.085588  0.042149      4.000000
  0.043005  0.085588  0.042149      8.000000
  0.086010  0.085588  0.042149      8.000000
  0.129014  0.085588  0.042149      8.000000
  0.000000  0.128597  0.041719      4.000000
  0.043005  0.128597  0.041719      8.000000
  0.086010  0.128597  0.041719      8.000000
  0.129014  0.128597  0.041719      8.000000
  0.000000 -0.129457  0.044299      4.000000
  0.043005 -0.129457  0.044299      8.000000
  0.086010 -0.129457  0.044299      8.000000
  0.129014 -0.129457  0.044299      8.000000
  0.000000 -0.086448  0.043869      4.000000
  0.043005 -0.086448  0.043869      8.000000
  0.086010 -0.086448  0.043869      8.000000
  0.129014 -0.086448  0.043869      8.000000
  0.000000 -0.043439  0.043439      2.000000
  0.043005 -0.043439  0.043439      4.000000
  0.086010 -0.043439  0.043439      4.000000
  0.129014 -0.043439  0.043439      4.000000
  0.000000  0.085158  0.085158      2.000000
  0.043005  0.085158  0.085158      4.000000
  0.086010  0.085158  0.085158      4.000000
  0.129014  0.085158  0.085158      4.000000
  0.000000  0.128167  0.084728      4.000000
  0.043005  0.128167  0.084728      8.000000
  0.086010  0.128167  0.084728      8.000000
  0.129014  0.128167  0.084728      8.000000
  0.000000 -0.129887  0.087308      4.000000
  0.043005 -0.129887  0.087308      8.000000
  0.086010 -0.129887  0.087308      8.000000
  0.129014 -0.129887  0.087308      8.000000
  0.000000 -0.086878  0.086878      2.000000
  0.043005 -0.086878  0.086878      4.000000
  0.086010 -0.086878  0.086878      4.000000
  0.129014 -0.086878  0.086878      4.000000
  0.000000  0.127737  0.127737      2.000000
  0.043005  0.127737  0.127737      4.000000
  0.086010  0.127737  0.127737      4.000000
  0.129014  0.127737  0.127737      4.000000
  0.000000 -0.130318  0.130318      2.000000
  0.043005 -0.130318  0.130318      4.000000
  0.086010 -0.130318  0.130318      4.000000
  0.129014 -0.130318  0.130318      4.000000
 


--------------------------------------------------------------------------------------------------------




 Dimension of arrays:
   k-points           NKPTS =     64   k-points in BZ     NKDIM =     64   number of bands    NBANDS=     16
   number of dos      NEDOS =    301   number of ions     NIONS =      2
   non local maximal  LDIM  =      6   non local SUM 2l+1 LMDIM =     18
   total plane-waves  NPLWV =  21952
   max r-space proj   IRMAX =  10859   max aug-charges    IRDMAX=  37069
   dimension x,y,z NGX =    28 NGY =   28 NGZ =   28
   dimension x,y,z NGXF=    56 NGYF=   56 NGZF=   56
   support grid    NGXF=    56 NGYF=   56 NGZF=   56
   ions per type =               2
   NGX,Y,Z   is equivalent  to a cutoff of  14.01, 14.01, 14.01 a.u.
   NGXF,Y,Z  is equivalent  to a cutoff of  28.03, 28.02, 28.02 a.u.

 SYSTEM =  unknown system                          
 POSCAR =  Generated POSCAR                        

 Startparameter for this run:
   NWRITE =      2    write-flag & timer
   PREC   = accura    normal or accurate (medium, high low for compatibility)
   ISTART =      0    job   : 0-new  1-cont  2-samecut
   ICHARG =      2    charge: 1-file 2-atom 10-const
   ISPIN  =      2    spin polarized calculation?
   LNONCOLLINEAR =      F non collinear calculations
   LSORBIT =      F    spin-orbit coupling
   INIWAV =      1    electr: 0-lowe 1-rand  2-diag
   LASPH  =      T    aspherical Exc in radial PAW
 Electronic Relaxation 1
   ENCUT  =  520.0 eV  38.22 Ry    6.18 a.u.   6.18  6.18  6.18*2*pi/ulx,y,z
   ENINI  =  520.0     initial cutoff
   ENAUG  =  355.1 eV  augmentation charge cutoff
   NELM   =    100;   NELMIN=  2; NELMDL= -5     # of ELM steps 
   EDIFF  = 0.1E-03   stopping-criterion for ELM
   LREAL  =      T    real-space projection
   NLSPLINE    = F    spline interpolate recip. space projectors
   LCOMPAT=      F    compatible to vasp.4.4
   GGA_COMPAT  = T    GGA compatible to vasp.4.4-vasp.4.6
   LMAXPAW     = -100 max onsite density
   LMAXMIX     =    6 max onsite mixed and CHGCAR
   VOSKOWN=      0    Vosko Wilk Nusair interpolation
   ROPT   =   -0.00025
 Ionic relaxation
   EDIFFG = 0.1E-02   stopping-criterion for IOM
   NSW    =      0    number of steps for IOM
   NBLOCK =      1;   KBLOCK =      1    inner block; outer block 
   IBRION =     -1    ionic relax: 0-MD 1-quasi-New 2-CG
   NFREE  =      0    steps in history (QN), initial steepest desc. (CG)
   ISIF   =      2    stress and relaxation
   IWAVPR =     10    prediction:  0-non 1-charg 2-wave 3-comb
   ISYM   =      2    0-nonsym 1-usesym 2-fastsym
   LCORR  =      T    Harris-Foulkes like correction to forces

   POTIM  = 0.5000    time-step for ionic-motion
   TEIN   =    0.0    initial temperature
   TEBEG  =    0.0;   TEEND  =   0.0 temperature during run
   SMASS  =  -3.00    Nose mass-parameter (am)
   estimated Nose-frequenzy (Omega)   =  0.10E-29 period in steps = 0.13E+47 mass=  -0.252E-27a.u.
   SCALEE = 1.0000    scale energy and forces
   NPACO  =    256;   APACO  = 10.0  distance and # of slots for P.C.
   PSTRESS=    0.0 pullay stress

  Mass of Ions in am
   POMASS =  92.00
  Ionic Valenz
   ZVAL   =  11.00
  Atomic Wigner-Seitz radii
   RWIGS  =  -1.00
  virtual crystal weights 
   VCA    =   1.00
   NELECT =      22.0000    total number of electrons
   NUPDOWN=      -1.0000    fix difference up-down

 DOS related values:
   EMIN   =  10.00;   EMAX   =-10.00  energy-range for DOS
   EFERMI =   0.00;   METHOD = LEGACY      
   ISMEAR =    -5;   SIGMA  =   0.05  broadening in eV -4-tet -1-fermi 0-gaus

 Electronic relaxation 2 (details)
   IALGO  =     68    algorithm
   LDIAG  =      T    sub-space diagonalisation (order eigenvalues)
   LSUBROT=      F    optimize rotation matrix (better conditioning)
   TURBO    =      0    0=normal 1=particle mesh
   IRESTART =      0    0=no restart 2=restart with 2 vectors
   NREBOOT  =      0    no. of reboots
   NMIN     =      0    reboot dimension
   EREF     =   0.00    reference energy to select bands
   IMIX   =      4    mixing-type and parameters
     AMIX     =   0.40;   BMIX     =  1.00
     AMIX_MAG =   1.60;   BMIX_MAG =  1.00
     AMIN     =   0.10
     WC   =   100.;   INIMIX=   1;  MIXPRE=   1;  MAXMIX= -45

 Intra band minimization:
   WEIMIN = 0.0000     energy-eigenvalue tresh-hold
   EBREAK =  0.16E-05  absolut break condition
   DEPER  =   0.30     relativ break condition  

   TIME   =   0.40     timestep for ELM

  volume/ion in A,a.u.               =      18.33       123.67
  Fermi-wavevector in a.u.,A,eV,Ry     =   1.380951  2.609619 25.946661  1.907026
  Thomas-Fermi vector in A             =   2.505781

 Write flags
   LWAVE        =      F    write WAVECAR
   LDOWNSAMPLE  =      F    k-point downsampling of WAVECAR
   LCHARG       =      T    write CHGCAR
   LVTOT        =      F    write LOCPOT, total local potential
   LVHAR        =      F    write LOCPOT, Hartree potential only
   LELF         =      F    write electronic localiz. function (ELF)
   LORBIT       =     11    0 simple, 1 ext, 2 COOP (PROOUT), +10 PAW based schemes


 Dipole corrections
   LMONO  =      F    monopole corrections only (constant potential shift)
   LDIPOL =      F    correct potential (dipole corrections)
   IDIPOL =      0    1-x, 2-y, 3-z, 4-all directions 
   EPSILON=  1.0000000 bulk dielectric constant

 Exchange correlation treatment:
   GGA     =    --    GGA type
   LEXCH   =     8    internal setting for exchange type
   LIBXC   =     F    Libxc                    
   VOSKOWN =     0    Vosko Wilk Nusair interpolation
   LHFCALC =     F    Hartree Fock is set to
   LHFONE  =     F    Hartree Fock one center treatment
   AEXX    =    0.0000 exact exchange contribution

 Linear response parameters
   LEPSILON=     F    determine dielectric tensor
   LRPA    =     F    only Hartree local field effects (RPA)
   LNABLA  =     F    use nabla operator in PAW spheres
   LVEL    =     F    velocity operator in full k-point grid
   CSHIFT  =0.1000    complex shift for real part using Kramers Kronig
   OMEGAMAX=  -1.0    maximum frequency
   DEG_THRESHOLD= 0.2000000E-02 threshold for treating states as degnerate
   RTIME   =   -0.100 relaxation time in fs
  (WPLASMAI=    0.000 imaginary part of plasma frequency in eV, 0.658/RTIME)
   DFIELD  = 0.0000000 0.0000000 0.0000000 field for delta impulse in time

  Optional k-point grid parameters
   LKPOINTS_OPT  =     F    use optional k-point grid
   KPOINTS_OPT_MODE=     1    mode for optional k-point grid

 Orbital magnetization related:
   ORBITALMAG=     F  switch on orbital magnetization
   LCHIMAG   =     F  perturbation theory with respect to B field
   DQ        =  0.001000  dq finite difference perturbation B field
   LLRAUG    =     F  two centre corrections for induced B field
   LBONE     =     F  B-component reconstruction in AE one-centre
   LVGVCALC  =     T  calculate vGv susceptibility
   LVGVAPPL  =     F  apply vGv susceptibility instead of pGv for G=0

 Random number generation:
   RANDOM_GENERATOR = DEFAULT
   PCG_SEED         = not used


--------------------------------------------------------------------------------------------------------


 Static calculation
 charge density and potential will be updated during run
 spin polarized calculation
 RMM-DIIS sequential band-by-band and
  variant of blocked Davidson during initial phase
 perform sub-space diagonalisation
    before iterative eigenvector-optimisation
 modified Broyden-mixing scheme, WC =      100.0
 initial mixing is a Kerker type mixing with AMIX =  0.4000 and BMIX =      1.0000
 Hartree-type preconditioning will be used
 using additional bands            5
 real space projection scheme for non local part
 use partial core corrections
 calculate Harris-corrections to forces   (improved forces if not selfconsistent)
 use gradient corrections 
 use of overlap-Matrix (Vanderbilt PP)
 Fermi weights with tetrahedron method with Bloechl corrections


--------------------------------------------------------------------------------------------------------


  energy-cutoff  :      520.00
  volume of cell :       36.65
      direct lattice vectors                 reciprocal lattice vectors
     3.321890070  0.000000000  0.000000000     0.301033441 -0.000000000  0.000000000
     0.000000000  3.321890070  0.033218901     0.000000000  0.301063548 -0.003010635
     0.000000000  0.033218901  3.321890070    -0.000000000 -0.003010635  0.301063548

  length of vectors
     3.321890070  3.322056161  3.322056161     0.301033441  0.301078601  0.301078601



 k-points in units of 2pi/SCALE and weight: pymatgen with grid density = 869 / numbe
   0.00000000  0.00000000  0.00000000       0.003
   0.04300478  0.00000000  0.00000000       0.006
   0.08600955  0.00000000  0.00000000       0.006
   0.12901433  0.00000000  0.00000000       0.006
   0.00000000  0.04300908 -0.00043009       0.012
   0.04300478  0.04300908 -0.00043009       0.023
   0.08600955  0.04300908 -0.00043009       0.023
   0.12901433  0.04300908 -0.00043009       0.023
   0.00000000  0.08601816 -0.00086018       0.012
   0.04300478  0.08601816 -0.00086018       0.023
   0.08600955  0.08601816 -0.00086018       0.023
   0.12901433  0.08601816 -0.00086018       0.023
   0.00000000  0.12902723 -0.00129027       0.012
   0.04300478  0.12902723 -0.00129027       0.023
   0.08600955  0.12902723 -0.00129027       0.023
   0.12901433  0.12902723 -0.00129027       0.023
   0.00000000  0.04257899  0.04257899       0.006
   0.04300478  0.04257899  0.04257899       0.012
   0.08600955  0.04257899  0.04257899       0.012
   0.12901433  0.04257899  0.04257899       0.012
   0.00000000  0.08558807  0.04214890       0.012
   0.04300478  0.08558807  0.04214890       0.023
   0.08600955  0.08558807  0.04214890       0.023
   0.12901433  0.08558807  0.04214890       0.023
   0.00000000  0.12859714  0.04171881       0.012
   0.04300478  0.12859714  0.04171881       0.023
   0.08600955  0.12859714  0.04171881       0.023
   0.12901433  0.12859714  0.04171881       0.023
   0.00000000 -0.12945733  0.04429935       0.012
   0.04300478 -0.12945733  0.04429935       0.023
   0.08600955 -0.12945733  0.04429935       0.023
   0.12901433 -0.12945733  0.04429935       0.023
   0.00000000 -0.08644825  0.04386926       0.012
   0.04300478 -0.08644825  0.04386926       0.023
   0.08600955 -0.08644825  0.04386926       0.023
   0.12901433 -0.08644825  0.04386926       0.023
   0.00000000 -0.04343917  0.04343917       0.006
   0.04300478 -0.04343917  0.04343917       0.012
   0.08600955 -0.04343917  0.04343917       0.012
   0.12901433 -0.04343917  0.04343917       0.012
   0.00000000  0.08515797  0.08515797       0.006
   0.04300478  0.08515797  0.08515797       0.012
   0.08600955  0.08515797  0.08515797       0.012
   0.12901433  0.08515797  0.08515797       0.012
   0.00000000  0.12816705  0.08472788       0.012
   0.04300478  0.12816705  0.08472788       0.023
   0.08600955  0.12816705  0.08472788       0.023
   0.12901433  0.12816705  0.08472788       0.023
   0.00000000 -0.12988742  0.08730843       0.012
   0.04300478 -0.12988742  0.08730843       0.023
   0.08600955 -0.12988742  0.08730843       0.023
   0.12901433 -0.12988742  0.08730843       0.023
   0.00000000 -0.08687834  0.08687834       0.006
   0.04300478 -0.08687834  0.08687834       0.012
   0.08600955 -0.08687834  0.08687834       0.012
   0.12901433 -0.08687834  0.08687834       0.012
   0.00000000  0.12773696  0.12773696       0.006
   0.04300478  0.12773696  0.12773696       0.012
   0.08600955  0.12773696  0.12773696       0.012
   0.12901433  0.12773696  0.12773696       0.012
   0.00000000 -0.13031751  0.13031751       0.006
   0.04300478 -0.13031751  0.13031751       0.012
   0.08600955 -0.13031751  0.13031751       0.012
   0.12901433 -0.13031751  0.13031751       0.012

 k-points in reciprocal lattice and weights: pymatgen with grid density = 869 / numbe
   0.00000000  0.00000000  0.00000000       0.003
   0.14285714  0.00000000  0.00000000       0.006
   0.28571429  0.00000000  0.00000000       0.006
   0.42857143  0.00000000  0.00000000       0.006
   0.00000000  0.14285714  0.00000000       0.012
   0.14285714  0.14285714  0.00000000       0.023
   0.28571429  0.14285714  0.00000000       0.023
   0.42857143  0.14285714  0.00000000       0.023
   0.00000000  0.28571429  0.00000000       0.012
   0.14285714  0.28571429  0.00000000       0.023
   0.28571429  0.28571429  0.00000000       0.023
   0.42857143  0.28571429  0.00000000       0.023
   0.00000000  0.42857143  0.00000000       0.012
   0.14285714  0.42857143  0.00000000       0.023
   0.28571429  0.42857143  0.00000000       0.023
   0.42857143  0.42857143  0.00000000       0.023
   0.00000000  0.14285714  0.14285714       0.006
   0.14285714  0.14285714  0.14285714       0.012
   0.28571429  0.14285714  0.14285714       0.012
   0.42857143  0.14285714  0.14285714       0.012
   0.00000000  0.28571429  0.14285714       0.012
   0.14285714  0.28571429  0.14285714       0.023
   0.28571429  0.28571429  0.14285714       0.023
   0.42857143  0.28571429  0.14285714       0.023
   0.00000000  0.42857143  0.14285714       0.012
   0.14285714  0.42857143  0.14285714       0.023
   0.28571429  0.42857143  0.14285714       0.023
   0.42857143  0.42857143  0.14285714       0.023
   0.00000000 -0.42857143  0.14285714       0.012
   0.14285714 -0.42857143  0.14285714       0.023
   0.28571429 -0.42857143  0.14285714       0.023
   0.42857143 -0.42857143  0.14285714       0.023
   0.00000000 -0.28571429  0.14285714       0.012
   0.14285714 -0.28571429  0.14285714       0.023
   0.28571429 -0.28571429  0.14285714       0.023
   0.42857143 -0.28571429  0.14285714       0.023
   0.00000000 -0.14285714  0.14285714       0.006
   0.14285714 -0.14285714  0.14285714       0.012
   0.28571429 -0.14285714  0.14285714       0.012
   0.42857143 -0.14285714  0.14285714       0.012
   0.00000000  0.28571429  0.28571429       0.006
   0.14285714  0.28571429  0.28571429       0.012
   0.28571429  0.28571429  0.28571429       0.012
   0.42857143  0.28571429  0.28571429       0.012
   0.00000000  0.42857143  0.28571429       0.012
   0.14285714  0.42857143  0.28571429       0.023
   0.28571429  0.42857143  0.28571429       0.023
   0.42857143  0.42857143  0.28571429       0.023
   0.00000000 -0.42857143  0.28571429       0.012
   0.14285714 -0.42857143  0.28571429       0.023
   0.28571429 -0.42857143  0.28571429       0.023
   0.42857143 -0.42857143  0.28571429       0.023
   0.00000000 -0.28571429  0.28571429       0.006
   0.14285714 -0.28571429  0.28571429       0.012
   0.28571429 -0.28571429  0.28571429       0.012
   0.42857143 -0.28571429  0.28571429       0.012
   0.00000000  0.42857143  0.42857143       0.006
   0.14285714  0.42857143  0.42857143       0.012
   0.28571429  0.42857143  0.42857143       0.012
   0.42857143  0.42857143  0.42857143       0.012
   0.00000000 -0.42857143  0.42857143       0.006
   0.14285714 -0.42857143  0.42857143       0.012
   0.28571429 -0.42857143  0.42857143       0.012
   0.42857143 -0.42857143  0.42857143       0.012

 position of ions in fractional coordinates (direct lattice) 
   0.00000000  0.00000000  0.00000000
   0.50000000  0.50000000  0.50000000

 position of ions in cartesian coordinates  (Angst):
   0.00000000  0.00000000  0.00000000
   1.66094504  1.67755449  1.67755449



--------------------------------------------------------------------------------------------------------


 k-point   1 :   0.0000 0.0000 0.0000  plane waves:     989
 k-point   2 :   0.1429 0.0000 0.0000  plane waves:     989
 k-point   3 :   0.2857 0.0000 0.0000  plane waves:     988
 k-point   4 :   0.4286 0.0000 0.0000  plane waves:     992
 k-point   5 :   0.0000 0.1429 0.0000  plane waves:     984
 k-point   6 :   0.1429 0.1429 0.0000  plane waves:     978
 k-point   7 :   0.2857 0.1429 0.0000  plane waves:     987
 k-point   8 :   0.4286 0.1429 0.0000  plane waves:     987
 k-point   9 :   0.0000 0.2857 0.0000  plane waves:     986
 k-point  10 :   0.1429 0.2857 0.0000  plane waves:     987
 k-point  11 :   0.2857 0.2857 0.0000  plane waves:     992
 k-point  12 :   0.4286 0.2857 0.0000  plane waves:     982
 k-point  13 :   0.0000 0.4286 0.0000  plane waves:     986
 k-point  14 :   0.1429 0.4286 0.0000  plane waves:     986
 k-point  15 :   0.2857 0.4286 0.0000  plane waves:     984
 k-point  16 :   0.4286 0.4286 0.0000  plane waves:     993
 k-point  17 :   0.0000 0.1429 0.1429  plane waves:     983
 k-point  18 :   0.1429 0.1429 0.1429  plane waves:     981
 k-point  19 :   0.2857 0.1429 0.1429  plane waves:     990
 k-point  20 :   0.4286 0.1429 0.1429  plane waves:     992
 k-point  21 :   0.0000 0.2857 0.1429  plane waves:     989
 k-point  22 :   0.1429 0.2857 0.1429  plane waves:     992
 k-point  23 :   0.2857 0.2857 0.1429  plane waves:     992
 k-point  24 :   0.4286 0.2857 0.1429  plane waves:     986
 k-point  25 :   0.0000 0.4286 0.1429  plane waves:     987
 k-point  26 :   0.1429 0.4286 0.1429  plane waves:     984
 k-point  27 :   0.2857 0.4286 0.1429  plane waves:     987
 k-point  28 :   0.4286 0.4286 0.1429  plane waves:     990
 k-point  29 :   0.0000-0.4286 0.1429  plane waves:     983
 k-point  30 :   0.1429-0.4286 0.1429  plane waves:     983
 k-point  31 :   0.2857-0.4286 0.1429  plane waves:     992
 k-point  32 :   0.4286-0.4286 0.1429  plane waves:     994
 k-point  33 :   0.0000-0.2857 0.1429  plane waves:     985
 k-point  34 :   0.1429-0.2857 0.1429  plane waves:     980
 k-point  35 :   0.2857-0.2857 0.1429  plane waves:     984
 k-point  36 :   0.4286-0.2857 0.1429  plane waves:     984
 k-point  37 :   0.0000-0.1429 0.1429  plane waves:     985
 k-point  38 :   0.1429-0.1429 0.1429  plane waves:     973
 k-point  39 :   0.2857-0.1429 0.1429  plane waves:     979
 k-point  40 :   0.4286-0.1429 0.1429  plane waves:     982
 k-point  41 :   0.0000 0.2857 0.2857  plane waves:     989
 k-point  42 :   0.1429 0.2857 0.2857  plane waves:     993
 k-point  43 :   0.2857 0.2857 0.2857  plane waves:     987
 k-point  44 :   0.4286 0.2857 0.2857  plane waves:     987
 k-point  45 :   0.0000 0.4286 0.2857  plane waves:     983
 k-point  46 :   0.1429 0.4286 0.2857  plane waves:     986
 k-point  47 :   0.2857 0.4286 0.2857  plane waves:     987
 k-point  48 :   0.4286 0.4286 0.2857  plane waves:     991
 k-point  49 :   0.0000-0.4286 0.2857  plane waves:     982
 k-point  50 :   0.1429-0.4286 0.2857  plane waves:     992
 k-point  51 :   0.2857-0.4286 0.2857  plane waves:     986
 k-point  52 :   0.4286-0.4286 0.2857  plane waves:     992
 k-point  53 :   0.0000-0.2857 0.2857  plane waves:     987
 k-point  54 :   0.1429-0.2857 0.2857  plane waves:     986
 k-point  55 :   0.2857-0.2857 0.2857  plane waves:     989
 k-point  56 :   0.4286-0.2857 0.2857  plane waves:     990
 k-point  57 :   0.0000 0.4286 0.4286  plane waves:     992
 k-point  58 :   0.1429 0.4286 0.4286  plane waves:     993
 k-point  59 :   0.2857 0.4286 0.4286  plane waves:     991
 k-point  60 :   0.4286 0.4286 0.4286  plane waves:     990
 k-point  61 :   0.0000-0.4286 0.4286  plane waves:     984
 k-point  62 :   0.1429-0.4286 0.4286  plane waves:     985
 k-point  63 :   0.2857-0.4286 0.4286  plane waves:     991
 k-point  64 :   0.4286-0.4286 0.4286  plane waves:     997

 maximum and minimum number of plane-waves per node :       997      973

 maximum number of plane-waves:       997
 maximum index in each direction: 
   IXMAX=    6   IYMAX=    6   IZMAX=    6
   IXMIN=   -6   IYMIN=   -6   IZMIN=   -6


 serial   3D FFT for wavefunctions
 parallel 3D FFT for charge:
    minimum data exchange during FFTs selected (reduces bandwidth)


 total amount of memory used by VASP MPI-rank0    91145. kBytes
=======================================================================

   base      :      30000. kBytes
   nonlr-proj:       6266. kBytes
   fftplans  :       6192. kBytes
   grid      :      14776. kBytes
   one-center:         62. kBytes
   wavefun   :      33849. kBytes

     INWAV:  cpu time      0.0039: real time      0.0001
 Broyden mixing: mesh for mixing (old mesh)
   NGX = 13   NGY = 13   NGZ = 13
  (NGX  = 56   NGY  = 56   NGZ  = 56)
  gives a total of   2197 points

 initial charge density was supplied:
 charge density of overlapping atoms calculated
 number of electron      22.0000000 magnetization       1.2000000
 keeping initial charge density in first step


--------------------------------------------------------------------------------------------------------


 Maximum index for non-local projection operator         1138
 Maximum index for augmentation-charges        35805 (set IRDMAX)


--------------------------------------------------------------------------------------------------------


 First call to EWALD:  gamma=   0.534
 Maximum number of real-space cells 3x 3x 3
 Maximum number of reciprocal cells 3x 3x 3

    FEWALD:  cpu time      0.1147: real time      0.0045


--------------------------------------- Ionic step        1  -------------------------------------------




--------------------------------------- Iteration      1(   1)  ---------------------------------------


    POTLOK:  cpu time      2.3281: real time      0.1652
    SETDIJ:  cpu time      1.1712: real time      0.2574
     EDDAV:  cpu time    324.3937: real time     18.5845
 BZINTS: Fermi energy:   23.421007;   22.000000 electrons
         Band energy:-0.305327E+02;  BLOECHL correction:   -0.723482
       DOS:  cpu time      0.2344: real time      0.0290
    --------------------------------------------
      LOOP:  cpu time    328.1275: real time     19.0361

 eigenvalue-minimisations  :  4512
 total energy-change (2. order) : 0.1995157E+03  (-0.1164054E+04)
 number of electron      22.0000000 magnetization       1.2000000
 augmentation part       22.0000000 magnetization       1.2000000

 Free energy of the ion-electron system (eV)
  ---------------------------------------------------
  alpha Z        PSCENC =       247.02244180
  Ewald energy   TEWEN  =     -1908.81069913
  -Hartree energ DENC   =      -279.47105396
  -exchange      EXHF   =         0.00000000
  -V(xc)+E(xc)   XCENC  =        52.61804104
  PAW double counting   =      1671.32378679    -1639.41528309
  entropy T*S    EENTRO =         0.00000000
  eigenvalues    EBANDS =       -30.53273655
  atomic energy  EATOM  =      2086.78124273
  Solvation  Ediel_sol  =         0.00000000
  ---------------------------------------------------
  free energy    TOTEN  =       199.51573963 eV

  energy without entropy =      199.51573963  energy(sigma->0) =      199.51573963


--------------------------------------------------------------------------------------------------------




--------------------------------------- Iteration      1(   2)  ---------------------------------------


     EDDAV:  cpu time    313.1811: real time     17.9472
 BZINTS: Fermi energy:    7.142897;   22.000000 electrons
         Band energy:-0.240498E+03;  BLOECHL correction:   -0.275710
       DOS:  cpu time      0.3108: real time      0.0287
    --------------------------------------------
      LOOP:  cpu time    313.4919: real time     17.9759

 eigenvalue-minimisations  :  4296
 total energy-change (2. order) :-0.2099655E+03  (-0.2078855E+03)
 number of electron      22.0000000 magnetization       1.2000000
 augmentation part       22.0000000 magnetization       1.2000000

 Free energy of the ion-electron system (eV)
  ---------------------------------------------------
  alpha Z        PSCENC =       247.02244180
  Ewald energy   TEWEN  =     -1908.81069913
  -Hartree energ DENC   =      -279.47105396
  -exchange      EXHF   =         0.00000000
  -V(xc)+E(xc)   XCENC  =        52.61804104
  PAW double counting   =      1671.32378679    -1639.41528309
  entropy T*S    EENTRO =         0.00000000
  eigenvalues    EBANDS =      -240.49819290
  atomic energy  EATOM  =      2086.78124273
  Solvation  Ediel_sol  =         0.00000000
  ---------------------------------------------------
  free energy    TOTEN  =       -10.44971672 eV

  energy without entropy =      -10.44971672  energy(sigma->0) =      -10.44971672


--------------------------------------------------------------------------------------------------------




--------------------------------------- Iteration      1(   3)  ---------------------------------------


     EDDAV:  cpu time    441.5271: real time     25.4072
 BZINTS: Fermi energy:    5.464614;   22.000000 electrons
         Band energy:-0.251025E+03;  BLOECHL correction:   -0.211342
       DOS:  cpu time      0.2489: real time      0.0275
    --------------------------------------------
      LOOP:  cpu time    441.7759: real time     25.4347

 eigenvalue-minimisations  :  6840
 total energy-change (2. order) :-0.1052698E+02  (-0.9881699E+01)
 number of electron      22.0000000 magnetization       1.2000000
 augmentation part       22.0000000 magnetization       1.2000000

 Free energy of the ion-electron system (eV)
  ---------------------------------------------------
  alpha Z        PSCENC =       247.02244180
  Ewald energy   TEWEN  =     -1908.81069913
  -Hartree energ DENC   =      -279.47105396
  -exchange      EXHF   =         0.00000000
  -V(xc)+E(xc)   XCENC  =        52.61804104
  PAW double counting   =      1671.32378679    -1639.41528309
  entropy T*S    EENTRO =         0.00000000
  eigenvalues    EBANDS =      -251.02517420
  atomic energy  EATOM  =      2086.78124273
  Solvation  Ediel_sol  =         0.00000000
  ---------------------------------------------------
  free energy    TOTEN  =       -20.97669802 eV

  energy without entropy =      -20.97669802  energy(sigma->0) =      -20.97669802


--------------------------------------------------------------------------------------------------------




--------------------------------------- Iteration      1(   4)  ---------------------------------------


     EDDAV:  cpu time    332.6073: real time     19.2191
 BZINTS: Fermi energy:    5.443940;   22.000000 electrons
         Band energy:-0.251193E+03;  BLOECHL correction:   -0.207730
       DOS:  cpu time      0.2386: real time      0.0315
    --------------------------------------------
      LOOP:  cpu time    332.8459: real time     19.2505

 eigenvalue-minimisations  :  5000
 total energy-change (2. order) :-0.1683238E+00  (-0.1664203E+00)
 number of electron      22.0000000 magnetization       1.2000000
 augmentation part       22.0000000 magnetization       1.2000000

 Free energy of the ion-electron system (eV)
  ---------------------------------------------------
  alpha Z        PSCENC =       247.02244180
  Ewald energy   TEWEN  =     -1908.81069913
  -Hartree energ DENC   =      -279.47105396
  -exchange      EXHF   =         0.00000000
  -V(xc)+E(xc)   XCENC  =        52.61804104
  PAW double counting   =      1671.32378679    -1639.41528309
  entropy T*S    EENTRO =         0.00000000
  eigenvalues    EBANDS =      -251.19349801
  atomic energy  EATOM  =      2086.78124273
  Solvation  Ediel_sol  =         0.00000000
  ---------------------------------------------------
  free energy    TOTEN  =       -21.14502183 eV

  energy without entropy =      -21.14502183  energy(sigma->0) =      -21.14502183


--------------------------------------------------------------------------------------------------------




--------------------------------------- Iteration      1(   5)  ---------------------------------------


     EDDAV:  cpu time    428.8222: real time     24.6242
 BZINTS: Fermi energy:    5.443085;   22.000000 electrons
         Band energy:-0.251198E+03;  BLOECHL correction:   -0.207687
       DOS:  cpu time      0.2923: real time      0.0308
    CHARGE:  cpu time     25.0598: real time      1.4424
    MIXING:  cpu time      0.0925: real time      0.0012
    --------------------------------------------
      LOOP:  cpu time    454.2668: real time     26.0986

 eigenvalue-minimisations  :  6464
 total energy-change (2. order) :-0.4482016E-02  (-0.4439015E-02)
 number of electron      22.0000001 magnetization       0.3424254
 augmentation part        7.7579237 magnetization      -0.0593562

 Broyden mixing:
  rms(total) = 0.24009E+01    rms(broyden)= 0.24009E+01
  rms(prec ) = 0.28257E+01
  weight for this iteration     100.00

 Free energy of the ion-electron system (eV)
  ---------------------------------------------------
  alpha Z        PSCENC =       247.02244180
  Ewald energy   TEWEN  =     -1908.81069913
  -Hartree energ DENC   =      -279.47105396
  -exchange      EXHF   =         0.00000000
  -V(xc)+E(xc)   XCENC  =        52.61804104
  PAW double counting   =      1671.32378679    -1639.41528309
  entropy T*S    EENTRO =         0.00000000
  eigenvalues    EBANDS =      -251.19798003
  atomic energy  EATOM  =      2086.78124273
  Solvation  Ediel_sol  =         0.00000000
  ---------------------------------------------------
  free energy    TOTEN  =       -21.14950385 eV

  energy without entropy =      -21.14950385  energy(sigma->0) =      -21.14950385


--------------------------------------------------------------------------------------------------------




--------------------------------------- Iteration      1(   6)  ---------------------------------------


    POTLOK:  cpu time      1.6415: real time      0.1229
    SETDIJ:  cpu time      1.1444: real time      0.2626
    EDDIAG:  cpu time     68.4289: real time      3.9547
  RMM-DIIS:  cpu time    218.9327: real time     12.2269
    ORTHCH:  cpu time      1.4245: real time      0.0836
 BZINTS: Fermi energy:    5.093388;   22.000000 electrons
         Band energy:-0.265229E+03;  BLOECHL correction:   -0.210252
       DOS:  cpu time      0.2373: real time      0.0283
    CHARGE:  cpu time     21.2993: real time      1.2439
    MIXING:  cpu time      0.0023: real time      0.0023
    --------------------------------------------
      LOOP:  cpu time    313.1109: real time     17.9251

 eigenvalue-minimisations  :  4494
 total energy-change (2. order) : 0.8019979E+00  (-0.8039586E-01)
 number of electron      22.0000001 magnetization       0.1512530
 augmentation part        7.8850945 magnetization      -0.0576226

 Broyden mixing:
  rms(total) = 0.91371E+00    rms(broyden)= 0.91371E+00
  rms(prec ) = 0.11956E+01
  weight for this iteration     100.00

 eigenvalues of (default mixing * dielectric matrix)
  average eigenvalue GAMMA=   1.5015
  1.5015

 Free energy of the ion-electron system (eV)
  ---------------------------------------------------
  alpha Z        PSCENC =       247.02244180
  Ewald energy   TEWEN  =     -1908.81069913
  -Hartree energ DENC   =      -260.13213870
  -exchange      EXHF   =         0.00000000
  -V(xc)+E(xc)   XCENC  =        51.60343348
  PAW double counting   =      2187.01598224    -2158.59924619
  entropy T*S    EENTRO =         0.00000000
  eigenvalues    EBANDS =      -265.22852216
  atomic energy  EATOM  =      2086.78124273
  Solvation  Ediel_sol  =         0.00000000
  ---------------------------------------------------
  free energy    TOTEN  =       -20.34750593 eV

  energy without entropy =      -20.34750593  energy(sigma->0) =      -20.34750593


--------------------------------------------------------------------------------------------------------




--------------------------------------- Iteration      1(   7)  ---------------------------------------


    POTLOK:  cpu time      1.9085: real time      0.1471
    SETDIJ:  cpu time      1.1033: real time      0.2516
    EDDIAG:  cpu time     66.2249: real time      3.8101
  RMM-DIIS:  cpu time    252.9314: real time     14.2711
    ORTHCH:  cpu time      1.8998: real time      0.1132
 BZINTS: Fermi energy:    4.800954;   22.000000 electrons
         Band energy:-0.276985E+03;  BLOECHL correction:   -0.207909
       DOS:  cpu time      0.3299: real time      0.0267
    CHARGE:  cpu time     24.9392: real time      1.3990
    MIXING:  cpu time      0.0012: real time      0.0012
    --------------------------------------------
      LOOP:  cpu time    349.3383: real time     20.0200

 eigenvalue-minimisations  :  5563
 total energy-change (2. order) : 0.1475717E+00  (-0.2141760E+00)
 number of electron      22.0000001 magnetization       0.0318360
 augmentation part        8.0572393 magnetization       0.0338759

 Broyden mixing:
  rms(total) = 0.24254E+00    rms(broyden)= 0.24254E+00
  rms(prec ) = 0.26108E+00
  weight for this iteration     100.00

 eigenvalues of (default mixing * dielectric matrix)
  average eigenvalue GAMMA=   1.0777
  1.6177  0.5377

 Free energy of the ion-electron system (eV)
  ---------------------------------------------------
  alpha Z        PSCENC =       247.02244180
  Ewald energy   TEWEN  =     -1908.81069913
  -Hartree energ DENC   =      -244.43121564
  -exchange      EXHF   =         0.00000000
  -V(xc)+E(xc)   XCENC  =        50.82315098
  PAW double counting   =      2618.30640163    -2592.90594406
  entropy T*S    EENTRO =         0.00000000
  eigenvalues    EBANDS =      -276.98531255
  atomic energy  EATOM  =      2086.78124273
  Solvation  Ediel_sol  =         0.00000000
  ---------------------------------------------------
  free energy    TOTEN  =       -20.19993424 eV

  energy without entropy =      -20.19993424  energy(sigma->0) =      -20.19993424


--------------------------------------------------------------------------------------------------------




--------------------------------------- Iteration      1(   8)  ---------------------------------------


    POTLOK:  cpu time      1.3100: real time      0.1092
    SETDIJ:  cpu time      1.0715: real time      0.2462
    EDDIAG:  cpu time     72.8246: real time      4.1715
  RMM-DIIS:  cpu time    285.4804: real time     15.9221
    ORTHCH:  cpu time      1.1220: real time      0.0744
 BZINTS: Fermi energy:    4.811959;   22.000000 electrons
         Band energy:-0.276448E+03;  BLOECHL correction:   -0.208049
       DOS:  cpu time      0.3313: real time      0.0328
    CHARGE:  cpu time     23.1096: real time      1.3600
    MIXING:  cpu time      0.0016: real time      0.0016
    --------------------------------------------
      LOOP:  cpu time    385.2510: real time     21.9177

 eigenvalue-minimisations  :  5970
 total energy-change (2. order) :-0.1124402E-01  (-0.1055068E-01)
 number of electron      22.0000001 magnetization       0.0197176
 augmentation part        8.0638825 magnetization       0.0144603

 Broyden mixing:
  rms(total) = 0.11846E+00    rms(broyden)= 0.11846E+00
  rms(prec ) = 0.14641E+00
  weight for this iteration     100.00

 eigenvalues of (default mixing * dielectric matrix)
  average eigenvalue GAMMA=   1.0683
  1.8352  0.6849  0.6849

 Free energy of the ion-electron system (eV)
  ---------------------------------------------------
  alpha Z        PSCENC =       247.02244180
  Ewald energy   TEWEN  =     -1908.81069913
  -Hartree energ DENC   =      -244.77103989
  -exchange      EXHF   =         0.00000000
  -V(xc)+E(xc)   XCENC  =        50.83318293
  PAW double counting   =      2666.59167260    -2641.40987506
  entropy T*S    EENTRO =         0.00000000
  eigenvalues    EBANDS =      -276.44810423
  atomic energy  EATOM  =      2086.78124273
  Solvation  Ediel_sol  =         0.00000000
  ---------------------------------------------------
  free energy    TOTEN  =       -20.21117825 eV

  energy without entropy =      -20.21117825  energy(sigma->0) =      -20.21117825


--------------------------------------------------------------------------------------------------------




--------------------------------------- Iteration      1(   9)  ---------------------------------------


    POTLOK:  cpu time      2.3344: real time      0.1577
    SETDIJ:  cpu time      1.0739: real time      0.2614
    EDDIAG:  cpu time     67.9833: real time      3.9321
  RMM-DIIS:  cpu time    262.8317: real time     14.9456
    ORTHCH:  cpu time      1.1019: real time      0.0700
 BZINTS: Fermi energy:    4.820753;   22.000000 electrons
         Band energy:-0.276036E+03;  BLOECHL correction:   -0.208178
       DOS:  cpu time      0.3503: real time      0.0282
    CHARGE:  cpu time     22.2933: real time      1.2975
    MIXING:  cpu time      0.0024: real time      0.0024
    --------------------------------------------
      LOOP:  cpu time    357.9713: real time     20.6948

 eigenvalue-minimisations  :  5920
 total energy-change (2. order) : 0.9357918E-04  (-0.2390821E-02)
 number of electron      22.0000001 magnetization       0.0171126
 augmentation part        8.0641600 magnetization       0.0159971

 Broyden mixing:
  rms(total) = 0.95347E-01    rms(broyden)= 0.95347E-01
  rms(prec ) = 0.12195E+00
  weight for this iteration     100.00

 eigenvalues of (default mixing * dielectric matrix)
  average eigenvalue GAMMA=   1.0955
  2.0935  0.8425  0.8425  0.6035

 Free energy of the ion-electron system (eV)
  ---------------------------------------------------
  alpha Z        PSCENC =       247.02244180
  Ewald energy   TEWEN  =     -1908.81069913
  -Hartree energ DENC   =      -245.12331603
  -exchange      EXHF   =         0.00000000
  -V(xc)+E(xc)   XCENC  =        50.84953674
  PAW double counting   =      2706.82226520    -2681.71669208
  entropy T*S    EENTRO =         0.00000000
  eigenvalues    EBANDS =      -276.03586390
  atomic energy  EATOM  =      2086.78124273
  Solvation  Ediel_sol  =         0.00000000
  ---------------------------------------------------
  free energy    TOTEN  =       -20.21108467 eV

  energy without entropy =      -20.21108467  energy(sigma->0) =      -20.21108467


--------------------------------------------------------------------------------------------------------




--------------------------------------- Iteration      1(  10)  ---------------------------------------


    POTLOK:  cpu time      1.1069: real time      0.1029
    SETDIJ:  cpu time      1.0713: real time      0.2541
    EDDIAG:  cpu time     66.9838: real time      3.9137
  RMM-DIIS:  cpu time    233.3999: real time     12.9354
    ORTHCH:  cpu time      1.1329: real time      0.0726
 BZINTS: Fermi energy:    4.842515;   22.000000 electrons
         Band energy:-0.275070E+03;  BLOECHL correction:   -0.208488
       DOS:  cpu time      0.2884: real time      0.0323
    CHARGE:  cpu time     23.4411: real time      1.3491
    MIXING:  cpu time      0.0014: real time      0.0014
    --------------------------------------------
      LOOP:  cpu time    327.4256: real time     18.6614

 eigenvalue-minimisations  :  4736
 total energy-change (2. order) : 0.3392365E-02  (-0.5922439E-03)
 number of electron      22.0000001 magnetization      -0.0063461
 augmentation part        8.0557117 magnetization      -0.0023767

 Broyden mixing:
  rms(total) = 0.67513E-01    rms(broyden)= 0.67513E-01
  rms(prec ) = 0.74624E-01
  weight for this iteration     100.00

 eigenvalues of (default mixing * dielectric matrix)
  average eigenvalue GAMMA=   1.3564
  2.6564  1.3694  1.3694  0.6282  0.7585

 Free energy of the ion-electron system (eV)
  ---------------------------------------------------
  alpha Z        PSCENC =       247.02244180
  Ewald energy   TEWEN  =     -1908.81069913
  -Hartree energ DENC   =      -246.06998978
  -exchange      EXHF   =         0.00000000
  -V(xc)+E(xc)   XCENC  =        50.89467977
  PAW double counting   =      2784.40909771    -2759.36444282
  entropy T*S    EENTRO =         0.00000000
  eigenvalues    EBANDS =      -275.07002258
  atomic energy  EATOM  =      2086.78124273
  Solvation  Ediel_sol  =         0.00000000
  ---------------------------------------------------
  free energy    TOTEN  =       -20.20769231 eV

  energy without entropy =      -20.20769231  energy(sigma->0) =      -20.20769231


--------------------------------------------------------------------------------------------------------




--------------------------------------- Iteration      1(  11)  ---------------------------------------


    POTLOK:  cpu time      1.0917: real time      0.0988
    SETDIJ:  cpu time      1.0999: real time      0.2463
    EDDIAG:  cpu time     66.7334: real time      3.8606
  RMM-DIIS:  cpu time    322.2935: real time     17.2830
    ORTHCH:  cpu time      1.2657: real time      0.0763
 BZINTS: Fermi energy:    4.853740;   22.000000 electrons
         Band energy:-0.274563E+03;  BLOECHL correction:   -0.208639
       DOS:  cpu time      0.2908: real time      0.0338
    CHARGE:  cpu time     24.5498: real time      1.4178
    MIXING:  cpu time      0.0015: real time      0.0015
    --------------------------------------------
      LOOP:  cpu time    417.3262: real time     23.0181

 eigenvalue-minimisations  :  5423
 total energy-change (2. order) :-0.1063253E-03  (-0.5286590E-03)
 number of electron      22.0000001 magnetization      -0.0045313
 augmentation part        8.0492411 magnetization      -0.0003062

 Broyden mixing:
  rms(total) = 0.40784E-02    rms(broyden)= 0.40784E-02
  rms(prec ) = 0.48754E-02
  weight for this iteration     100.00

 eigenvalues of (default mixing * dielectric matrix)
  average eigenvalue GAMMA=   1.2737
  2.5941  1.4540  1.4540  0.7961  0.6198  0.7246

 Free energy of the ion-electron system (eV)
  ---------------------------------------------------
  alpha Z        PSCENC =       247.02244180
  Ewald energy   TEWEN  =     -1908.81069913
  -Hartree energ DENC   =      -246.52091314
  -exchange      EXHF   =         0.00000000
  -V(xc)+E(xc)   XCENC  =        50.91589591
  PAW double counting   =      2861.31375612    -2836.34631116
  entropy T*S    EENTRO =         0.00000000
  eigenvalues    EBANDS =      -274.56321176
  atomic energy  EATOM  =      2086.78124273
  Solvation  Ediel_sol  =         0.00000000
  ---------------------------------------------------
  free energy    TOTEN  =       -20.20779863 eV

  energy without entropy =      -20.20779863  energy(sigma->0) =      -20.20779863


--------------------------------------------------------------------------------------------------------




--------------------------------------- Iteration      1(  12)  ---------------------------------------


    POTLOK:  cpu time      1.6681: real time      0.1277
    SETDIJ:  cpu time      1.0960: real time      0.2529
    EDDIAG:  cpu time     67.3548: real time      3.8734
  RMM-DIIS:  cpu time    816.1461: real time     38.1703
    ORTHCH:  cpu time      1.2745: real time      0.0877
 BZINTS: Fermi energy:    4.853968;   22.000000 electrons
         Band energy:-0.274553E+03;  BLOECHL correction:   -0.208644
       DOS:  cpu time      0.3001: real time      0.0290
    --------------------------------------------
      LOOP:  cpu time    887.8395: real time     42.5410

 eigenvalue-minimisations  :  3920
 total energy-change (2. order) :-0.7562568E-04  (-0.5789326E-04)
 number of electron      22.0000001 magnetization      -0.0045313
 augmentation part        8.0492411 magnetization      -0.0003062

 Free energy of the ion-electron system (eV)
  ---------------------------------------------------
  alpha Z        PSCENC =       247.02244180
  Ewald energy   TEWEN  =     -1908.81069913
  -Hartree energ DENC   =      -246.54840522
  -exchange      EXHF   =         0.00000000
  -V(xc)+E(xc)   XCENC  =        50.91723256
  PAW double counting   =      2860.50242781    -2835.51864837
  entropy T*S    EENTRO =         0.00000000
  eigenvalues    EBANDS =      -274.55346644
  atomic energy  EATOM  =      2086.78124273
  Solvation  Ediel_sol  =         0.00000000
  ---------------------------------------------------
  free energy    TOTEN  =       -20.20787426 eV

  energy without entropy =      -20.20787426  energy(sigma->0) =      -20.20787426


--------------------------------------------------------------------------------------------------------




 average (electrostatic) potential at core
  the test charge radii are     1.2125
  (the norm of the test charge is              1.0000)
       1 -35.1713       2 -35.1713



 E-fermi :   4.8540     XC(G=0): -12.3452     alpha+bet :-12.7651

 Fermi energy:         4.8539683401

 spin component 1

 k-point     1 :       0.0000    0.0000    0.0000
  band No.  band energies     occupation 
      1     -25.8200      1.00000
      2     -25.7877      1.00000
      3     -25.7539      1.00000
      4     -24.9397      1.00000
      5     -24.9062      1.00000
      6     -24.8747      1.00000
      7      -1.0609      1.00000
      8       1.2056      1.00000
      9       1.2080      1.00000
     10       5.0540      0.03733
     11       5.1890     -0.02645
     12       5.3416      0.00000
     13       8.0490      0.00000
     14       8.0622      0.00000
     15      10.1373      0.00000
     16      10.3108      0.00000

 k-point     2 :       0.1429    0.0000    0.0000
  band No.  band energies     occupation 
      1     -25.7908      1.00000
      2     -25.7723      1.00000
      3     -25.7119      1.00000
      4     -25.0010      1.00000
      5     -24.9779      1.00000
      6     -24.9202      1.00000
      7      -0.6513      1.00000
      8       1.4351      1.00000
      9       1.5446      1.00000
     10       5.0418      0.25025
     11       5.2911     -0.05438
     12       5.3818      0.00000
     13       7.4793      0.00000
     14       8.2663      0.00000
     15       9.0228      0.00000
     16       9.2910      0.00000

 k-point     3 :       0.2857    0.0000    0.0000
  band No.  band energies     occupation 
      1     -25.7743      1.00000
      2     -25.6389      1.00000
      3     -25.5950      1.00000
      4     -25.2343      1.00000
      5     -25.0864      1.00000
      6     -25.0486      1.00000
      7       0.4424      1.00000
      8       2.1056      1.00000
      9       2.2976      1.00000
     10       5.1132      0.52443
     11       5.2694     -0.11170
     12       5.9445      0.00000
     13       6.1323      0.00000
     14       7.4289      0.00000
     15       7.5962      0.00000
     16       8.7752      0.00000

 k-point     4 :       0.4286    0.0000    0.0000
  band No.  band energies     occupation 
      1     -25.6850      1.00000
      2     -25.4941      1.00000
      3     -25.4472      1.00000
      4     -25.4282      1.00000
      5     -25.2465      1.00000
      6     -25.2364      1.00000
      7       1.7968      1.00000
      8       2.6160      1.00000
      9       3.1821      1.00000
     10       4.5821      0.99418
     11       5.4775     -0.20817
     12       5.5223      0.00000
     13       6.2243      0.00000
     14       6.2891      0.00000
     15       6.8251      0.00000
     16       7.9193      0.00000

 k-point     5 :       0.0000    0.1429    0.0000
  band No.  band energies     occupation 
      1     -25.8042      1.00000
      2     -25.7428      1.00000
      3     -25.7280      1.00000
      4     -25.0150      1.00000
      5     -24.9482      1.00000
      6     -24.9360      1.00000
      7      -0.6512      1.00000
      8       1.4335      1.00000
      9       1.5459      1.00000
     10       5.1073      0.11716
     11       5.1588      0.00125
     12       5.4484      0.00000
     13       7.4890      0.00000
     14       8.2561      0.00000
     15       9.1344      0.00000
     16       9.1564      0.00000

 k-point     6 :       0.1429    0.1429    0.0000
  band No.  band energies     occupation 
      1     -25.8688      1.00000
      2     -25.7004      1.00000
      3     -25.6292      1.00000
      4     -25.1666      1.00000
      5     -24.9920      1.00000
      6     -24.9017      1.00000
      7      -0.2801      1.00000
      8       1.6741      1.00000
      9       1.8471      1.00000
     10       4.7294      0.88318
     11       5.0457      0.14068
     12       5.9916     -0.00620
     13       7.5658      0.00000
     14       7.8933      0.00000
     15       8.0886      0.00000
     16       8.2200      0.00000

 k-point     7 :       0.2857    0.1429    0.0000
  band No.  band energies     occupation 
      1     -25.9075      1.00000
      2     -25.5854      1.00000
      3     -25.4679      1.00000
      4     -25.4306      1.00000
      5     -25.0947      1.00000
      6     -24.9597      1.00000
      7       0.6780      1.00000
      8       2.1909      1.00000
      9       2.6370      1.00000
     10       4.4957      1.01414
     11       4.8272      0.74408
     12       6.4047     -0.05169
     13       6.8221      0.00000
     14       6.8842      0.00000
     15       6.9553      0.00000
     16       8.5776      0.00000

 k-point     8 :       0.4286    0.1429    0.0000
  band No.  band energies     occupation 
      1     -25.8549      1.00000
      2     -25.6867      1.00000
      3     -25.4227      1.00000
      4     -25.2818      1.00000
      5     -25.2474      1.00000
      6     -25.0996      1.00000
      7       1.7926      1.00000
      8       2.4713      1.00000
      9       3.4423      1.00000
     10       4.3412      1.00301
     11       4.6486      0.92607
     12       5.2826     -0.03387
     13       6.3893      0.00000
     14       6.4686      0.00000
     15       7.8874      0.00000
     16       9.0220      0.00000

 k-point     9 :       0.0000    0.2857    0.0000
  band No.  band energies     occupation 
      1     -25.7763      1.00000
      2     -25.6174      1.00000
      3     -25.6144      1.00000
      4     -25.2373      1.00000
      5     -25.0669      1.00000
      6     -25.0651      1.00000
      7       0.4427      1.00000
      8       2.1044      1.00000
      9       2.2971      1.00000
     10       5.1805      0.38866
     11       5.1819     -0.00916
     12       5.9592      0.00000
     13       6.1446      0.00000
     14       7.5075      0.00000
     15       7.5154      0.00000
     16       8.7655      0.00000

 k-point    10 :       0.1429    0.2857    0.0000
  band No.  band energies     occupation 
      1     -25.9074      1.00000
      2     -25.5849      1.00000
      3     -25.4685      1.00000
      4     -25.4308      1.00000
      5     -25.0947      1.00000
      6     -24.9594      1.00000
      7       0.6782      1.00000
      8       2.1904      1.00000
      9       2.6360      1.00000
     10       4.4969      1.01218
     11       4.8237      0.75232
     12       6.4106     -0.04851
     13       6.8387      0.00000
     14       6.8750      0.00000
     15       6.9503      0.00000
     16       8.5711      0.00000

 k-point    11 :       0.2857    0.2857    0.0000
  band No.  band energies     occupation 
      1     -26.0379      1.00000
      2     -25.7164      1.00000
      3     -25.5014      1.00000
      4     -25.2693      1.00000
      5     -25.1616      1.00000
      6     -24.9104      1.00000
      7       1.1376      1.00000
      8       2.1325      1.00000
      9       3.6365      1.00000
     10       3.8842      1.00000
     11       4.8505      0.86537
     12       5.0610      0.07501
     13       6.4990      0.00000
     14       7.6785      0.00000
     15       8.1064      0.00000
     16       8.3192      0.00000

 k-point    12 :       0.4286    0.2857    0.0000
  band No.  band energies     occupation 
      1     -26.0633      1.00000
      2     -25.9503      1.00000
      3     -25.3856      1.00000
      4     -25.2642      1.00000
      5     -25.0911      1.00000
      6     -24.9617      1.00000
      7       1.5034      1.00000
      8       1.8481      1.00000
      9       3.7342      1.00000
     10       4.1249      1.00000
     11       4.6594      0.78698
     12       5.1397     -0.00365
     13       6.9980      0.00000
     14       7.5638      0.00000
     15       8.9213      0.00000
     16       9.3813      0.00000

 k-point    13 :       0.0000    0.4286    0.0000
  band No.  band energies     occupation 
      1     -25.6850      1.00000
      2     -25.4945      1.00000
      3     -25.4378      1.00000
      4     -25.4376      1.00000
      5     -25.2412      1.00000
      6     -25.2411      1.00000
      7       1.7967      1.00000
      8       2.6144      1.00000
      9       3.1812      1.00000
     10       4.5775      0.99194
     11       5.4982     -0.23389
     12       5.5075     -0.00017
     13       6.2555      0.00000
     14       6.2613      0.00000
     15       6.8268      0.00000
     16       7.9204      0.00000

 k-point    14 :       0.1429    0.4286    0.0000
  band No.  band energies     occupation 
      1     -25.8545      1.00000
      2     -25.6865      1.00000
      3     -25.4236      1.00000
      4     -25.2812      1.00000
      5     -25.2485      1.00000
      6     -25.0985      1.00000
      7       1.7922      1.00000
      8       2.4696      1.00000
      9       3.4428      1.00000
     10       4.3418      1.00384
     11       4.6483      0.92363
     12       5.2834     -0.03261
     13       6.3905      0.00000
     14       6.4694      0.00000
     15       7.8894      0.00000
     16       9.1866      0.00000

 k-point    15 :       0.2857    0.4286    0.0000
  band No.  band energies     occupation 
      1     -26.0632      1.00000
      2     -25.9502      1.00000
      3     -25.3861      1.00000
      4     -25.2647      1.00000
      5     -25.0907      1.00000
      6     -24.9613      1.00000
      7       1.5031      1.00000
      8       1.8476      1.00000
      9       3.7345      1.00000
     10       4.1275      1.00000
     11       4.6566      0.78694
     12       5.1406     -0.00375
     13       6.9994      0.00000
     14       7.5634      0.00000
     15       8.9200      0.00000
     16       9.3919      0.00000

 k-point    16 :       0.4286    0.4286    0.0000
  band No.  band energies     occupation 
      1     -26.1712      1.00000
      2     -26.1316      1.00000
      3     -25.3386      1.00000
      4     -25.2952      1.00000
      5     -24.9618      1.00000
      6     -24.9149      1.00000
      7       1.2404      1.00000
      8       1.3508      1.00000
      9       3.2986      1.00000
     10       3.4311      1.00000
     11       6.1719     -0.16186
     12       6.5243     -0.07096
     13       7.6911      0.00000
     14       8.1004      0.00000
     15       8.6611      0.00000
     16       9.6549      0.00000

 k-point    17 :       0.0000    0.1429    0.1429
  band No.  band energies     occupation 
      1     -25.8945      1.00000
      2     -25.7073      1.00000
      3     -25.6087      1.00000
      4     -25.1884      1.00000
      5     -24.9786      1.00000
      6     -24.8781      1.00000
      7      -0.2948      1.00000
      8       1.6460      1.00000
      9       1.8518      1.00000
     10       4.6301      0.95558
     11       4.9646      0.37753
     12       6.1042     -0.01548
     13       7.6765      0.00000
     14       7.8285      0.00000
     15       8.1122      0.00000
     16       8.1732      0.00000

 k-point    18 :       0.1429    0.1429    0.1429
  band No.  band energies     occupation 
      1     -25.8435      1.00000
      2     -25.8060      1.00000
      3     -25.4933      1.00000
      4     -25.3009      1.00000
      5     -24.9659      1.00000
      6     -24.9274      1.00000
      7       0.0650      1.00000
      8       2.0002      1.00000
      9       2.0339      1.00000
     10       4.5278      1.03593
     11       4.6041      0.88719
     12       6.3594     -0.06646
     13       6.6711      0.00000
     14       7.8312      0.00000
     15       7.9235      0.00000
     16       9.3031      0.00000

 k-point    19 :       0.2857    0.1429    0.1429
  band No.  band energies     occupation 
      1     -25.8906      1.00000
      2     -25.7009      1.00000
      3     -25.5290      1.00000
      4     -25.3396      1.00000
      5     -25.0664      1.00000
      6     -24.9907      1.00000
      7       0.9645      1.00000
      8       2.5483      1.00000
      9       2.7191      1.00000
     10       4.2945      1.02580
     11       4.3530      1.04100
     12       5.1376      0.17344
     13       7.1526      0.00000
     14       7.6589      0.00000
     15       7.8775      0.00000
     16       8.5164      0.00000

 k-point    20 :       0.4286    0.1429    0.1429
  band No.  band energies     occupation 
      1     -25.8801      1.00000
      2     -25.7498      1.00000
      3     -25.4955      1.00000
      4     -25.2689      1.00000
      5     -25.1934      1.00000
      6     -25.0713      1.00000
      7       1.9423      1.00000
      8       2.6814      1.00000
      9       3.2717      1.00000
     10       3.9242      1.00924
     11       4.6259      0.93925
     12       4.8892      0.33987
     13       6.6181      0.00000
     14       6.8465      0.00000
     15       8.5457      0.00000
     16       8.9238      0.00000

 k-point    21 :       0.0000    0.2857    0.1429
  band No.  band energies     occupation 
      1     -25.9285      1.00000
      2     -25.5973      1.00000
      3     -25.4574      1.00000
      4     -25.4420      1.00000
      5     -25.0788      1.00000
      6     -24.9378      1.00000
      7       0.6570      1.00000
      8       2.1423      1.00000
      9       2.6433      1.00000
     10       4.4154      1.02163
     11       4.7335      0.86454
     12       6.3688     -0.06179
     13       6.9250      0.00000
     14       6.9566      0.00000
     15       6.9784      0.00000
     16       8.6296      0.00000

 k-point    22 :       0.1429    0.2857    0.1429
  band No.  band energies     occupation 
      1     -25.9258      1.00000
      2     -25.6777      1.00000
      3     -25.5380      1.00000
      4     -25.3396      1.00000
      5     -25.0886      1.00000
      6     -24.9442      1.00000
      7       0.9504      1.00000
      8       2.4972      1.00000
      9       2.7317      1.00000
     10       4.2726      1.01840
     11       4.2766      1.07588
     12       5.1705      0.09587
     13       7.2976      0.00000
     14       7.6803      0.00000
     15       7.8321      0.00000
     16       8.4970      0.00000

 k-point    23 :       0.2857    0.2857    0.1429
  band No.  band energies     occupation 
      1     -25.9795      1.00000
      2     -25.7410      1.00000
      3     -25.6355      1.00000
      4     -25.1956      1.00000
      5     -25.1536      1.00000
      6     -24.9683      1.00000
      7       1.5235      1.00000
      8       2.5456      1.00000
      9       3.6296      1.00000
     10       3.7594      1.00000
     11       4.1980      1.04296
     12       4.2941      0.91128
     13       7.4535      0.00000
     14       7.7909      0.00000
     15       8.3597      0.00000
     16       8.9819      0.00000

 k-point    24 :       0.4286    0.2857    0.1429
  band No.  band energies     occupation 
      1     -26.0083      1.00000
      2     -25.9246      1.00000
      3     -25.4746      1.00000
      4     -25.2938      1.00000
      5     -25.0855      1.00000
      6     -25.0123      1.00000
      7       1.8722      1.00000
      8       2.1920      1.00000
      9       3.6190      1.00000
     10       3.7531      1.00000
     11       4.6630      0.90469
     12       4.7685      0.55470
     13       7.3312      0.00000
     14       7.5687      0.00000
     15       8.7831      0.00000
     16       9.2533      0.00000

 k-point    25 :       0.0000    0.4286    0.1429
  band No.  band energies     occupation 
      1     -25.8667      1.00000
      2     -25.6853      1.00000
      3     -25.4370      1.00000
      4     -25.2851      1.00000
      5     -25.2320      1.00000
      6     -25.0852      1.00000
      7       1.7876      1.00000
      8       2.4352      1.00000
      9       3.4464      1.00000
     10       4.2985      1.00669
     11       4.6019      0.95825
     12       5.2846     -0.03867
     13       6.4336      0.00000
     14       6.5018      0.00000
     15       7.9010      0.00000
     16       9.0897      0.00000

[...]
  band No.  band energies     occupation 
      1     -26.1238      1.00000
      2     -26.0706      1.00000
      3     -25.4261      1.00000
      4     -25.3048      1.00000
      5     -25.0235      1.00000
      6     -24.9583      1.00000
      7       1.6472      1.00000
      8       1.7128      1.00000
      9       3.2273      1.00000
     10       3.3741      1.00000
     11       5.7512     -0.08630
     12       5.8769     -0.07441
     13       7.8407      0.00000
     14       8.2661      0.00000
     15       8.8007      0.00000
     16       9.0538      0.00000

 k-point    59 :       0.2857    0.4286    0.4286
  band No.  band energies     occupation 
      1     -25.9464      1.00000
      2     -25.9426      1.00000
      3     -25.5562      1.00000
      4     -25.3915      1.00000
      5     -25.1393      1.00000
      6     -25.1356      1.00000
      7       2.5514      1.00000
      8       2.6799      1.00000
      9       3.2527      1.00000
     10       3.4038      1.00000
     11       4.6345      0.85840
     12       5.0030      0.44590
     13       8.3398      0.00000
     14       8.5605      0.00000
     15       8.7349      0.00000
     16       8.8187      0.00000

 k-point    60 :       0.4286    0.4286    0.4286
  band No.  band energies     occupation 
      1     -25.7951      1.00000
      2     -25.6884      1.00000
      3     -25.6813      1.00000
      4     -25.4119      1.00000
      5     -25.4002      1.00000
      6     -25.2960      1.00000
      7       3.0312      1.00000
      8       3.4508      1.00000
      9       3.5151      1.00000
     10       3.9895      1.00000
     11       3.9997      1.00000
     12       4.1166      1.07541
     13       8.7309      0.00000
     14       8.7489      0.00000
     15       8.7936      0.00000
     16       8.8216      0.00000

 k-point    61 :       0.0000   -0.4286    0.4286
  band No.  band energies     occupation 
      1     -26.1558      1.00000
      2     -26.1445      1.00000
      3     -25.3236      1.00000
      4     -25.3054      1.00000
      5     -24.9439      1.00000
      6     -24.9436      1.00000
      7       1.2361      1.00000
      8       1.3635      1.00000
      9       3.3424      1.00000
     10       3.3946      1.00000
     11       6.0922     -0.20151
     12       6.6378     -0.03243
     13       7.7726      0.00000
     14       8.0229      0.00000
     15       8.5333      0.00000
     16       9.7065      0.00000

 k-point    62 :       0.1429   -0.4286    0.4286
  band No.  band energies     occupation 
      1     -26.0961      1.00000
      2     -26.0955      1.00000
      3     -25.3763      1.00000
      4     -25.3582      1.00000
      5     -25.0037      1.00000
      6     -24.9784      1.00000
      7       1.6445      1.00000
      8       1.7358      1.00000
      9       3.2849      1.00000
     10       3.3399      1.00000
     11       5.6827     -0.11393
     12       5.9878     -0.20194
     13       7.9971      0.00000
     14       8.0724      0.00000
     15       8.5803      0.00000
     16       9.1926      0.00000

 k-point    63 :       0.2857   -0.4286    0.4286
  band No.  band energies     occupation 
      1     -25.9682      1.00000
      2     -25.9283      1.00000
      3     -25.5336      1.00000
      4     -25.4178      1.00000
      5     -25.1718      1.00000
      6     -25.0911      1.00000
      7       2.5366      1.00000
      8       2.6751      1.00000
      9       3.2359      1.00000
     10       3.4647      1.00000
     11       4.7865      0.83867
     12       4.8311      0.66611
     13       8.3893      0.00000
     14       8.4720      0.00000
     15       8.6814      0.00000
     16       8.8956      0.00000

 k-point    64 :       0.4286   -0.4286    0.4286
  band No.  band energies     occupation 
      1     -25.8216      1.00000
      2     -25.6895      1.00000
      3     -25.6853      1.00000
      4     -25.4151      1.00000
      5     -25.3997      1.00000
      6     -25.2598      1.00000
      7       3.0518      1.00000
      8       3.4143      1.00000
      9       3.4735      1.00000
     10       3.9431      1.00000
     11       4.0681      1.00000
     12       4.1205      1.16425
     13       8.7458      0.00000
     14       8.7697      0.00000
     15       8.8061      0.00000
     16       8.8204      0.00000


--------------------------------------------------------------------------------------------------------


 soft charge-density along one line, spin component           1
         0         1         2         3         4         5         6         7         8         9
 total charge-density along one line

 soft charge-density along one line, spin component           2
         0         1         2         3         4         5         6         7         8         9
 total charge-density along one line

 pseudopotential strength for first ion, spin component:           1
-28.109  -0.003   0.000   5.978   0.002  -0.000  -0.000  -0.000
 -0.003 -28.109  -0.000   0.002   5.978   0.000  -0.000  -0.000
  0.000  -0.000 -28.108  -0.000   0.000   5.978  -0.000  -0.000
  5.978   0.002  -0.000   4.217  -0.001   0.000   0.000   0.000
  0.002   5.978   0.000  -0.001   4.217  -0.000   0.000   0.000
 -0.000   0.000   5.978   0.000  -0.000   4.217   0.000   0.000
 -0.000  -0.000  -0.000   0.000   0.000   0.000  -6.358  -0.000
 -0.000  -0.000  -0.000   0.000   0.000   0.000  -0.000  -6.358
  0.000  -0.000  -0.000  -0.000   0.000   0.000  -0.000  -0.000
 -0.000  -0.000  -0.000   0.000   0.000   0.000  -0.001   0.000
  0.000  -0.000   0.000  -0.000   0.000  -0.000  -0.000   0.001
 -0.000  -0.000  -0.000   0.000   0.000   0.000  -7.215  -0.000
 -0.000  -0.000  -0.000   0.000   0.000   0.000  -0.000  -7.215
  0.000  -0.000  -0.000  -0.000   0.000   0.000  -0.000  -0.001
 -0.000  -0.000  -0.000   0.000   0.000   0.000  -0.001   0.000
  0.000  -0.000   0.000  -0.000   0.000  -0.000  -0.000   0.001
  0.000   0.000  -0.000   0.000  -0.000   0.000  -0.000   0.001
 -0.000  -0.000   0.000  -0.000  -0.000  -0.000   0.000  -0.003
 pseudopotential strength for first ion, spin component:           2
-28.109  -0.003   0.000   5.979   0.003  -0.000  -0.000  -0.000
 -0.003 -28.109  -0.000   0.003   5.979   0.000   0.000  -0.000
  0.000  -0.000 -28.108  -0.000   0.000   5.978  -0.000   0.000
  5.979   0.003  -0.000   4.217  -0.001   0.000   0.000   0.000
  0.003   5.979   0.000  -0.001   4.217  -0.000  -0.000   0.000
 -0.000   0.000   5.978   0.000  -0.000   4.217   0.000  -0.000
 -0.000   0.000  -0.000   0.000  -0.000   0.000  -6.358  -0.000
 -0.000  -0.000   0.000   0.000   0.000  -0.000  -0.000  -6.358
  0.000  -0.000  -0.000  -0.000   0.000   0.000  -0.000  -0.000
  0.000  -0.000  -0.000  -0.000   0.000   0.000  -0.001   0.000
  0.000  -0.000   0.000  -0.000   0.000  -0.000  -0.000   0.001
 -0.000   0.000  -0.000   0.000  -0.000   0.000  -7.215  -0.000
 -0.000  -0.000   0.000   0.000   0.000  -0.000  -0.000  -7.215
  0.000  -0.000  -0.000  -0.000   0.000   0.000  -0.000  -0.001
  0.000  -0.000  -0.000  -0.000   0.000   0.000  -0.001   0.000
  0.000  -0.000   0.000  -0.000   0.000  -0.000  -0.000   0.001
  0.000   0.000   0.000   0.000  -0.000   0.000  -0.000   0.001
 -0.000  -0.000   0.000  -0.000  -0.000  -0.000   0.000  -0.003
 total augmentation occupancy for first ion, spin component:           1
  1.993  -0.000   0.000  -0.013  -0.001  -0.000   0.000   0.000   0.000   0.000   0.000   0.000   0.000   0.000   0.000   0.000
 -0.000   1.993   0.000  -0.001  -0.013  -0.000   0.000   0.000  -0.000   0.000   0.000   0.000  -0.000  -0.000   0.000   0.000
  0.000   0.000   1.993  -0.000  -0.000  -0.013   0.000  -0.000   0.000  -0.000  -0.000  -0.000  -0.000   0.000   0.000  -0.000
 -0.013  -0.001  -0.000   0.204   0.004   0.000   0.000   0.000   0.000   0.000   0.000   0.000   0.000   0.000   0.000  -0.000
 -0.001  -0.013  -0.000   0.004   0.204   0.000   0.000   0.000   0.000   0.000   0.000   0.000   0.000   0.000   0.000   0.000
 -0.000  -0.000  -0.013   0.000   0.000   0.204   0.000   0.000  -0.000   0.000  -0.000   0.000   0.000  -0.000   0.000   0.000
 -0.000   0.000   0.000   0.000   0.000   0.000   5.995   0.000  -0.000  -0.107   0.000  -3.340  -0.000   0.000   0.053  -0.000
  0.000   0.000  -0.000   0.000   0.000   0.000   0.000   5.985  -0.027   0.000   0.047  -0.000  -3.334   0.019  -0.000  -0.034
  0.000  -0.000   0.000   0.000   0.000   0.000  -0.000  -0.027   5.627   0.000  -0.003   0.000   0.019  -3.317  -0.000   0.001
  0.000   0.000   0.000   0.000   0.000   0.000  -0.107   0.000   0.000   5.995   0.000   0.053  -0.000  -0.000  -3.340  -0.000
 -0.000  -0.000   0.000   0.000   0.000   0.000   0.000   0.047  -0.003   0.000   5.630  -0.000  -0.033   0.001  -0.000  -3.319
  0.000   0.000  -0.000   0.000   0.000   0.000  -3.340  -0.000   0.000   0.053  -0.000   1.898   0.000  -0.000  -0.028  -0.000
  0.000   0.000  -0.000   0.000   0.000   0.000  -0.000  -3.334   0.019  -0.000  -0.033   0.000   1.895  -0.013   0.000   0.022
  0.000  -0.000   0.000   0.000  -0.000  -0.000   0.000   0.019  -3.317  -0.000   0.001  -0.000  -0.013   1.974   0.000  -0.001
  0.000   0.000  -0.000   0.000   0.000   0.000   0.053  -0.000  -0.000  -3.340  -0.000  -0.028   0.000   0.000   1.898   0.000
  0.000   0.000  -0.000   0.000   0.000   0.000  -0.000  -0.034   0.001  -0.000  -3.319  -0.000   0.022  -0.001   0.000   1.974
  0.000   0.000  -0.000   0.000   0.000   0.000  -0.000  -0.029  -0.000  -0.000   0.000  -0.000   0.013  -0.000   0.000   0.000
  0.000   0.000  -0.000   0.000   0.000  -0.000   0.000  -0.001  -0.000  -0.000   0.000   0.000   0.000   0.000   0.000  -0.000
 total augmentation occupancy for first ion, spin component:           2
  0.000  -0.000   0.000   0.000   0.000   0.000   0.000   0.000  -0.000   0.000   0.000  -0.000  -0.000   0.000   0.000   0.000
 -0.000   0.000   0.000   0.000   0.000   0.000   0.000   0.000   0.000  -0.000   0.000   0.000  -0.000   0.000  -0.000  -0.000
  0.000   0.000   0.000   0.000   0.000   0.000   0.000   0.000   0.000   0.000   0.000  -0.000   0.000   0.000  -0.000   0.000
  0.000   0.000   0.000  -0.000   0.000  -0.000   0.000   0.000   0.000   0.000   0.000   0.000   0.000   0.000   0.000   0.000
  0.000   0.000   0.000   0.000  -0.000  -0.000   0.000   0.000   0.000   0.000   0.000   0.000   0.000   0.000   0.000   0.000
  0.000   0.000   0.000  -0.000  -0.000  -0.000   0.000   0.000   0.000   0.000   0.000   0.000   0.000  -0.000   0.000  -0.000
 -0.000   0.000   0.000   0.000   0.000   0.000   0.000   0.000   0.000  -0.000   0.000   0.001   0.000  -0.000  -0.000  -0.000
  0.000   0.000   0.000   0.000   0.000   0.000   0.000  -0.010  -0.000  -0.000   0.000   0.000   0.004   0.000   0.000  -0.000
  0.000   0.000   0.000   0.000  -0.000   0.000   0.000  -0.000  -0.006   0.000   0.000  -0.000   0.000   0.005  -0.000  -0.000
  0.000   0.000   0.000   0.000   0.000  -0.000  -0.000  -0.000   0.000   0.000  -0.000  -0.000   0.000  -0.000   0.001   0.000
  0.000   0.000   0.000   0.000   0.000  -0.000   0.000   0.000   0.000  -0.000  -0.006  -0.000  -0.000  -0.000   0.000   0.005
  0.000   0.000   0.000   0.000   0.000   0.000   0.001   0.000  -0.000  -0.000  -0.000  -0.001  -0.000   0.000   0.000   0.000
  0.000   0.000   0.000   0.000   0.000   0.000   0.000   0.004   0.000   0.000  -0.000  -0.000  -0.001  -0.000  -0.000   0.000
  0.000   0.000   0.000   0.000   0.000  -0.000  -0.000   0.000   0.005  -0.000  -0.000   0.000  -0.000  -0.004   0.000   0.000
  0.000  -0.000   0.000   0.000   0.000   0.000  -0.000   0.000  -0.000   0.001   0.000   0.000  -0.000   0.000  -0.001  -0.000
  0.000   0.000   0.000   0.000   0.000  -0.000  -0.000  -0.000  -0.000   0.000   0.005   0.000   0.000   0.000  -0.000  -0.004
  0.000  -0.000  -0.000   0.000   0.000   0.000  -0.000  -0.000  -0.000  -0.000   0.000   0.000   0.000   0.000   0.000  -0.000
  0.000  -0.000  -0.000   0.000   0.000   0.000   0.000  -0.000   0.000  -0.000  -0.000  -0.000   0.000  -0.000   0.000   0.000


------------------------ aborting loop because EDIFF is reached ----------------------------------------





 total charge

# of ion       s       p       d       tot
------------------------------------------
    1        0.419   6.291   3.082   9.792
    2        0.419   6.291   3.082   9.792
--------------------------------------------------
tot          0.838  12.581   6.164  19.584



 magnetization (x)

# of ion       s       p       d       tot
------------------------------------------
    1       -0.000  -0.000  -0.001  -0.001
    2       -0.000  -0.000  -0.001  -0.001
--------------------------------------------------
tot         -0.000  -0.000  -0.002  -0.002

    CHARGE:  cpu time     27.2554: real time      1.5347
    FORLOC:  cpu time      0.0005: real time      0.0005
    FORNL :  cpu time    145.2703: real time      7.8084
    STRESS:  cpu time    347.2091: real time     19.4648
    FORCOR:  cpu time      1.4793: real time      0.1155
    FORHAR:  cpu time      0.1575: real time      0.0101
    MIXING:  cpu time      0.0025: real time      0.0025
    OFIELD:  cpu time      0.0000: real time      0.0000

  FORCE on cell =-STRESS in cart. coord.  units (eV):
  Direction    XX          YY          ZZ          XY          YZ          ZX
  --------------------------------------------------------------------------------------
  Alpha Z   247.02244   247.02244   247.02244
  Ewald    -636.05083  -636.37986  -636.37986     0.00000    -7.79042     0.00000
  Hartree    82.29795    82.12441    82.12441    -0.00000    -3.03061    -0.00000
  E(xc)     -95.06254   -95.06174   -95.06174    -0.00000     0.00315     0.00000
  Local     203.32783   203.86932   203.86932     0.00000    10.61900    -0.00000
  n-local   -84.58543   -88.05943   -81.06127     1.05902     0.26447    -0.41954
  augment    53.57425    53.55817    53.55817     0.00000    -0.02883    -0.00000
  Kinetic   229.42207   222.28825   236.44482     0.01247    -0.05412    -0.89831
  Fock        0.00000     0.00000     0.00000     0.00000     0.00000     0.00000
  -------------------------------------------------------------------------------------
  Total      -0.05425    -0.06108    -0.06108     0.00000    -0.01620     0.00000
  in kB      -2.37118    -2.66988    -2.66988     0.00000    -0.70816     0.00000
  external pressure =       -2.57 kB  Pullay stress =        0.00 kB


 VOLUME and BASIS-vectors are now :
 -----------------------------------------------------------------------------
  energy-cutoff  :      520.00
  volume of cell :       36.65
      direct lattice vectors                 reciprocal lattice vectors
     3.321890070  0.000000000  0.000000000     0.301033441 -0.000000000  0.000000000
     0.000000000  3.321890070  0.033218901     0.000000000  0.301063548 -0.003010635
     0.000000000  0.033218901  3.321890070    -0.000000000 -0.003010635  0.301063548

  length of vectors
     3.321890070  3.322056161  3.322056161     0.301033441  0.301078601  0.301078601


 FORCES acting on ions
    electron-ion (+dipol)            ewald-force                    non-local-force                 convergence-correction
 -----------------------------------------------------------------------------------------------
   -.692E-15 -.112E-13 -.151E-13   -.666E-14 -.144E-14 -.384E-14   -.193E-21 0.297E-21 -.329E-21   -.340E-14 -.206E-13 0.329E-13
   0.122E-12 0.150E-11 0.162E-11   0.572E-14 0.171E-14 0.421E-14   -.202E-22 -.160E-21 0.215E-21   -.323E-13 -.505E-13 -.326E-13
 -----------------------------------------------------------------------------------------------
   0.121E-12 0.149E-11 0.161E-11   -.939E-15 0.274E-15 0.370E-15   -.213E-21 0.137E-21 -.114E-21   -.357E-13 -.710E-13 0.258E-15


 POSITION                                       TOTAL-FORCE (eV/Angst)
 -----------------------------------------------------------------------------------
      0.00000      0.00000      0.00000        -0.000000     -0.000000     -0.000000
      1.66095      1.67755      1.67755         0.000000      0.000000      0.000000
 -----------------------------------------------------------------------------------
    total drift:                                0.000000      0.000000      0.000000


--------------------------------------------------------------------------------------------------------



  FREE ENERGIE OF THE ION-ELECTRON SYSTEM (eV)
  ---------------------------------------------------
  free  energy   TOTEN  =       -20.20787426 eV

  energy  without entropy=      -20.20787426  energy(sigma->0) =      -20.20787426



--------------------------------------------------------------------------------------------------------


    POTLOK:  cpu time      3.9734: real time      0.4558


--------------------------------------------------------------------------------------------------------


     LOOP+:  cpu time   5436.0721: real time    302.4242
 -----------------------------------------------------------------------------
|                                                                             |
|           W    W    AA    RRRRR   N    N  II  N    N   GGGG   !!!           |
|           W    W   A  A   R    R  NN   N  II  NN   N  G    G  !!!           |
|           W    W  A    A  R    R  N N  N  II  N N  N  G       !!!           |
|           W WW W  AAAAAA  RRRRR   N  N N  II  N  N N  G  GGG   !            |
|           WW  WW  A    A  R   R   N   NN  II  N   NN  G    G                |
|           W    W  A    A  R    R  N    N  II  N    N   GGGG   !!!           |
|                                                                             |
|     Tetrahedron method does not include variations of the Fermi             |
|     occupations, so forces and stress will be inaccurate. We suggest        |
|     using a different smearing scheme ISMEAR = 1 or 2 for metals in         |
|     relaxations.                                                            |
|                                                                             |
 -----------------------------------------------------------------------------

    4ORBIT:  cpu time      0.0000: real time      0.0000



 total charge

# of ion       s       p       d       tot
------------------------------------------
    1        0.419   6.291   3.082   9.792
    2        0.419   6.291   3.082   9.792
--------------------------------------------------
tot          0.838  12.581   6.164  19.584



 magnetization (x)

# of ion       s       p       d       tot
------------------------------------------
    1       -0.000  -0.000  -0.001  -0.001
    2       -0.000  -0.000  -0.001  -0.001
--------------------------------------------------
tot         -0.000  -0.000  -0.002  -0.002

 BZINTS: Fermi energy:    4.853968;   22.000000 electrons
         Band energy:-0.274553E+03;  BLOECHL correction:   -0.208644

 total amount of memory used by VASP MPI-rank0    91145. kBytes
=======================================================================

   base      :      30000. kBytes
   nonlr-proj:       6266. kBytes
   fftplans  :       6192. kBytes
   grid      :      14776. kBytes
   one-center:         62. kBytes
   wavefun   :      33849. kBytes

  
  
 General timing and accounting informations for this job:
 ========================================================
  
                  Total CPU time used (sec):     5481.245
                            User time (sec):     5260.499
                          System time (sec):      220.747
                         Elapsed time (sec):      305.594
  
                   Maximum memory used (kb):      325676.
                   Average memory used (kb):          N/A
  
                          Minor page faults:      7141556
                          Major page faults:          106
                 Voluntary context switches:      2433928
