   8   8   1   0
  0.2389072E+02  0.4543884E-09  0.4543884E-09  0.9256882E-09  0.5000000E-15
  1.000000000000000E-004
  CAR 
 unknown system                          
     10.82146816    -38.44947812  301      4.46884986      1.00000000
    -38.449  0.0000E+00  0.0000E+00  0.0000E+00  0.0000E+00
    -38.285  0.0000E+00  0.0000E+00  0.0000E+00  0.0000E+00
    -38.121  0.0000E+00  0.0000E+00  0.0000E+00  0.0000E+00
    -37.957  0.0000E+00  0.0000E+00  0.0000E+00  0.0000E+00
    -37.793  0.0000E+00  0.0000E+00  0.0000E+00  0.0000E+00
    -37.628  0.0000E+00  0.0000E+00  0.0000E+00  0.0000E+00
    -37.464  0.0000E+00  0.0000E+00  0.0000E+00  0.0000E+00
    -37.300  0.0000E+00  0.0000E+00  0.0000E+00  0.0000E+00
    -37.136  0.0000E+00  0.0000E+00  0.0000E+00  0.0000E+00
    -36.971  0.0000E+00  0.0000E+00  0.0000E+00  0.0000E+00
    -36.807  0.0000E+00  0.0000E+00  0.0000E+00  0.0000E+00
    -36.643  0.2078E-02  0.2080E-02  0.3413E-03  0.3416E-03
    -36.479  0.5317E-01  0.5322E-01  0.9073E-02  0.9083E-02
    -36.314  0.1266E+01  0.1267E+01  0.2170E+00  0.2172E+00
    -36.150  0.7991E+01  0.7992E+01  0.1529E+01  0.1530E+01
    -35.986  0.2727E+01  0.2725E+01  0.1977E+01  0.1977E+01
    -35.822  0.1335E+00  0.1334E+00  0.1999E+01  0.1999E+01
    -35.657  0.0000E+00  0.0000E+00  0.2000E+01  0.2000E+01
    -35.493  0.0000E+00  0.0000E+00  0.2000E+01  0.2000E+01
    -35.329  0.0000E+00  0.0000E+00  0.2000E+01  0.2000E+01
    -35.165  0.0000E+00  0.0000E+00  0.2000E+01  0.2000E+01
    -35.001  0.0000E+00  0.0000E+00  0.2000E+01  0.2000E+01
    -34.836  0.0000E+00  0.0000E+00  0.2000E+01  0.2000E+01
    -34.672  0.0000E+00  0.0000E+00  0.2000E+01  0.2000E+01
    -34.508  0.0000E+00  0.0000E+00  0.2000E+01  0.2000E+01
    -34.344  0.0000E+00  0.0000E+00  0.2000E+01  0.2000E+01
    -34.179  0.0000E+00  0.0000E+00  0.2000E+01  0.2000E+01
    -34.015  0.0000E+00  0.0000E+00  0.2000E+01  0.2000E+01
    -33.851  0.0000E+00  0.0000E+00  0.2000E+01  0.2000E+01
    -33.687  0.0000E+00  0.0000E+00  0.2000E+01  0.2000E+01
    -33.522  0.0000E+00  0.0000E+00  0.2000E+01  0.2000E+01
    -33.358  0.0000E+00  0.0000E+00  0.2000E+01  0.2000E+01
    -33.194  0.0000E+00  0.0000E+00  0.2000E+01  0.2000E+01
    -33.030  0.0000E+00  0.0000E+00  0.2000E+01  0.2000E+01
    -32.865  0.0000E+00  0.0000E+00  0.2000E+01  0.2000E+01
    -32.701  0.0000E+00  0.0000E+00  0.2000E+01  0.2000E+01
    -32.537  0.0000E+00  0.0000E+00  0.2000E+01  0.2000E+01
    -32.373  0.0000E+00  0.0000E+00  0.2000E+01  0.2000E+01
    -32.208  0.0000E+00  0.0000E+00  0.2000E+01  0.2000E+01
    -32.044  0.0000E+00  0.0000E+00  0.2000E+01  0.2000E+01
    -31.880  0.0000E+00  0.0000E+00  0.2000E+01  0.2000E+01
    -31.716  0.0000E+00  0.0000E+00  0.2000E+01  0.2000E+01
    -31.552  0.0000E+00  0.0000E+00  0.2000E+01  0.2000E+01
    -31.387  0.0000E+00  0.0000E+00  0.2000E+01  0.2000E+01
    -31.223  0.0000E+00  0.0000E+00  0.2000E+01  0.2000E+01
    -31.059  0.0000E+00  0.0000E+00  0.2000E+01  0.2000E+01
    -30.895  0.0000E+00  0.0000E+00  0.2000E+01  0.2000E+01
    -30.730  0.0000E+00  0.0000E+00  0.2000E+01  0.2000E+01
    -30.566  0.0000E+00  0.0000E+00  0.2000E+01  0.2000E+01
    -30.402  0.0000E+00  0.0000E+00  0.2000E+01  0.2000E+01
    -30.238  0.0000E+00  0.0000E+00  0.2000E+01  0.2000E+01
    -30.073  0.0000E+00  0.0000E+00  0.2000E+01  0.2000E+01
    -29.909  0.0000E+00  0.0000E+00  0.2000E+01  0.2000E+01
    -29.745  0.0000E+00  0.0000E+00  0.2000E+01  0.2000E+01
    -29.581  0.0000E+00  0.0000E+00  0.2000E+01  0.2000E+01
    -29.416  0.0000E+00  0.0000E+00  0.2000E+01  0.2000E+01
    -29.252  0.0000E+00  0.0000E+00  0.2000E+01  0.2000E+01
    -29.088  0.0000E+00  0.0000E+00  0.2000E+01  0.2000E+01
    -28.924  0.0000E+00  0.0000E+00  0.2000E+01  0.2000E+01
    -28.760  0.0000E+00  0.0000E+00  0.2000E+01  0.2000E+01
    -28.595  0.0000E+00  0.0000E+00  0.2000E+01  0.2000E+01
    -28.431  0.0000E+00  0.0000E+00  0.2000E+01  0.2000E+01
    -28.267  0.0000E+00  0.0000E+00  0.2000E+01  0.2000E+01
    -28.103  0.0000E+00  0.0000E+00  0.2000E+01  0.2000E+01
    -27.938  0.0000E+00  0.0000E+00  0.2000E+01  0.2000E+01
    -27.774  0.0000E+00  0.0000E+00  0.2000E+01  0.2000E+01
    -27.610  0.0000E+00  0.0000E+00  0.2000E+01  0.2000E+01
    -27.446  0.0000E+00  0.0000E+00  0.2000E+01  0.2000E+01
    -27.281  0.0000E+00  0.0000E+00  0.2000E+01  0.2000E+01
    -27.117  0.0000E+00  0.0000E+00  0.2000E+01  0.2000E+01
    -26.953  0.0000E+00  0.0000E+00  0.2000E+01  0.2000E+01
    -26.789  0.0000E+00  0.0000E+00  0.2000E+01  0.2000E+01
    -26.624  0.0000E+00  0.0000E+00  0.2000E+01  0.2000E+01
    -26.460  0.0000E+00  0.0000E+00  0.2000E+01  0.2000E+01
    -26.296  0.0000E+00  0.0000E+00  0.2000E+01  0.2000E+01
    -26.132  0.0000E+00  0.0000E+00  0.2000E+01  0.2000E+01
    -25.968  0.0000E+00  0.0000E+00  0.2000E+01  0.2000E+01
    -25.803  0.0000E+00  0.0000E+00  0.2000E+01  0.2000E+01
    -25.639  0.0000E+00  0.0000E+00  0.2000E+01  0.2000E+01
    -25.475  0.0000E+00  0.0000E+00  0.2000E+01  0.2000E+01
    -25.311  0.0000E+00  0.0000E+00  0.2000E+01  0.2000E+01
    -25.146  0.0000E+00  0.0000E+00  0.2000E+01  0.2000E+01
    -24.982  0.0000E+00  0.0000E+00  0.2000E+01  0.2000E+01
    -24.818  0.0000E+00  0.0000E+00  0.2000E+01  0.2000E+01
    -24.654  0.0000E+00  0.0000E+00  0.2000E+01  0.2000E+01
    -24.489  0.0000E+00  0.0000E+00  0.2000E+01  0.2000E+01
    -24.325  0.0000E+00  0.0000E+00  0.2000E+01  0.2000E+01
    -24.161  0.0000E+00  0.0000E+00  0.2000E+01  0.2000E+01
    -23.997  0.0000E+00  0.0000E+00  0.2000E+01  0.2000E+01
    -23.832  0.0000E+00  0.0000E+00  0.2000E+01  0.2000E+01
    -23.668  0.0000E+00  0.0000E+00  0.2000E+01  0.2000E+01
    -23.504  0.0000E+00  0.0000E+00  0.2000E+01  0.2000E+01
    -23.340  0.0000E+00  0.0000E+00  0.2000E+01  0.2000E+01
    -23.175  0.0000E+00  0.0000E+00  0.2000E+01  0.2000E+01
    -23.011  0.0000E+00  0.0000E+00  0.2000E+01  0.2000E+01
    -22.847  0.0000E+00  0.0000E+00  0.2000E+01  0.2000E+01
    -22.683  0.0000E+00  0.0000E+00  0.2000E+01  0.2000E+01
    -22.519  0.0000E+00  0.0000E+00  0.2000E+01  0.2000E+01
    -22.354  0.0000E+00  0.0000E+00  0.2000E+01  0.2000E+01
    -22.190  0.0000E+00  0.0000E+00  0.2000E+01  0.2000E+01
    -22.026  0.0000E+00  0.0000E+00  0.2000E+01  0.2000E+01
    -21.862  0.0000E+00  0.0000E+00  0.2000E+01  0.2000E+01
    -21.697  0.0000E+00  0.0000E+00  0.2000E+01  0.2000E+01
    -21.533  0.0000E+00  0.0000E+00  0.2000E+01  0.2000E+01
    -21.369  0.0000E+00  0.0000E+00  0.2000E+01  0.2000E+01
    -21.205  0.0000E+00  0.0000E+00  0.2000E+01  0.2000E+01
    -21.040  0.0000E+00  0.0000E+00  0.2000E+01  0.2000E+01
    -20.876  0.0000E+00  0.0000E+00  0.2000E+01  0.2000E+01
    -20.712  0.0000E+00  0.0000E+00  0.2000E+01  0.2000E+01
    -20.548  0.0000E+00  0.0000E+00  0.2000E+01  0.2000E+01
    -20.383  0.0000E+00  0.0000E+00  0.2000E+01  0.2000E+01
    -20.219  0.0000E+00  0.0000E+00  0.2000E+01  0.2000E+01
    -20.055  0.0000E+00  0.0000E+00  0.2000E+01  0.2000E+01
    -19.891  0.0000E+00  0.0000E+00  0.2000E+01  0.2000E+01
    -19.727  0.0000E+00  0.0000E+00  0.2000E+01  0.2000E+01
    -19.562  0.0000E+00  0.0000E+00  0.2000E+01  0.2000E+01
    -19.398  0.0000E+00  0.0000E+00  0.2000E+01  0.2000E+01
    -19.234  0.0000E+00  0.0000E+00  0.2000E+01  0.2000E+01
    -19.070  0.0000E+00  0.0000E+00  0.2000E+01  0.2000E+01
    -18.905  0.0000E+00  0.0000E+00  0.2000E+01  0.2000E+01
    -18.741  0.0000E+00  0.0000E+00  0.2000E+01  0.2000E+01
    -18.577  0.0000E+00  0.0000E+00  0.2000E+01  0.2000E+01
    -18.413  0.0000E+00  0.0000E+00  0.2000E+01  0.2000E+01
    -18.248  0.0000E+00  0.0000E+00  0.2000E+01  0.2000E+01
    -18.084  0.0000E+00  0.0000E+00  0.2000E+01  0.2000E+01
    -17.920  0.0000E+00  0.0000E+00  0.2000E+01  0.2000E+01
    -17.756  0.2542E-02  0.2540E-02  0.2000E+01  0.2000E+01
    -17.591  0.6518E-01  0.6515E-01  0.2011E+01  0.2011E+01
    -17.427  0.1648E+01  0.1647E+01  0.2282E+01  0.2282E+01
    -17.263  0.1840E+02  0.1840E+02  0.5304E+01  0.5303E+01
    -17.099  0.1528E+02  0.1528E+02  0.7813E+01  0.7813E+01
    -16.934  0.1096E+01  0.1096E+01  0.7993E+01  0.7993E+01
    -16.770  0.0000E+00  0.0000E+00  0.8000E+01  0.8000E+01
    -16.606  0.0000E+00  0.0000E+00  0.8000E+01  0.8000E+01
    -16.442  0.0000E+00  0.0000E+00  0.8000E+01  0.8000E+01
    -16.278  0.0000E+00  0.0000E+00  0.8000E+01  0.8000E+01
    -16.113  0.0000E+00  0.0000E+00  0.8000E+01  0.8000E+01
    -15.949  0.0000E+00  0.0000E+00  0.8000E+01  0.8000E+01
    -15.785  0.0000E+00  0.0000E+00  0.8000E+01  0.8000E+01
    -15.621  0.0000E+00  0.0000E+00  0.8000E+01  0.8000E+01
    -15.456  0.0000E+00  0.0000E+00  0.8000E+01  0.8000E+01
    -15.292  0.0000E+00  0.0000E+00  0.8000E+01  0.8000E+01
    -15.128  0.0000E+00  0.0000E+00  0.8000E+01  0.8000E+01
    -14.964  0.0000E+00  0.0000E+00  0.8000E+01  0.8000E+01
    -14.799  0.0000E+00  0.0000E+00  0.8000E+01  0.8000E+01
    -14.635  0.0000E+00  0.0000E+00  0.8000E+01  0.8000E+01
    -14.471  0.0000E+00  0.0000E+00  0.8000E+01  0.8000E+01
    -14.307  0.0000E+00  0.0000E+00  0.8000E+01  0.8000E+01
    -14.142  0.0000E+00  0.0000E+00  0.8000E+01  0.8000E+01
    -13.978  0.0000E+00  0.0000E+00  0.8000E+01  0.8000E+01
    -13.814  0.0000E+00  0.0000E+00  0.8000E+01  0.8000E+01
    -13.650  0.0000E+00  0.0000E+00  0.8000E+01  0.8000E+01
    -13.486  0.0000E+00  0.0000E+00  0.8000E+01  0.8000E+01
    -13.321  0.0000E+00  0.0000E+00  0.8000E+01  0.8000E+01
    -13.157  0.0000E+00  0.0000E+00  0.8000E+01  0.8000E+01
    -12.993  0.0000E+00  0.0000E+00  0.8000E+01  0.8000E+01
    -12.829  0.0000E+00  0.0000E+00  0.8000E+01  0.8000E+01
    -12.664  0.0000E+00  0.0000E+00  0.8000E+01  0.8000E+01
    -12.500  0.0000E+00  0.0000E+00  0.8000E+01  0.8000E+01
    -12.336  0.0000E+00  0.0000E+00  0.8000E+01  0.8000E+01
    -12.172  0.0000E+00  0.0000E+00  0.8000E+01  0.8000E+01
    -12.007  0.0000E+00  0.0000E+00  0.8000E+01  0.8000E+01
    -11.843  0.0000E+00  0.0000E+00  0.8000E+01  0.8000E+01
    -11.679  0.0000E+00  0.0000E+00  0.8000E+01  0.8000E+01
    -11.515  0.0000E+00  0.0000E+00  0.8000E+01  0.8000E+01
    -11.350  0.0000E+00  0.0000E+00  0.8000E+01  0.8000E+01
    -11.186  0.0000E+00  0.0000E+00  0.8000E+01  0.8000E+01
    -11.022  0.0000E+00  0.0000E+00  0.8000E+01  0.8000E+01
    -10.858  0.0000E+00  0.0000E+00  0.8000E+01  0.8000E+01
    -10.694  0.0000E+00  0.0000E+00  0.8000E+01  0.8000E+01
    -10.529  0.0000E+00  0.0000E+00  0.8000E+01  0.8000E+01
    -10.365  0.0000E+00  0.0000E+00  0.8000E+01  0.8000E+01
    -10.201  0.0000E+00  0.0000E+00  0.8000E+01  0.8000E+01
    -10.037  0.0000E+00  0.0000E+00  0.8000E+01  0.8000E+01
     -9.872  0.0000E+00  0.0000E+00  0.8000E+01  0.8000E+01
     -9.708  0.0000E+00  0.0000E+00  0.8000E+01  0.8000E+01
     -9.544  0.0000E+00  0.0000E+00  0.8000E+01  0.8000E+01
     -9.380  0.0000E+00  0.0000E+00  0.8000E+01  0.8000E+01
     -9.215  0.0000E+00  0.0000E+00  0.8000E+01  0.8000E+01
     -9.051  0.0000E+00  0.0000E+00  0.8000E+01  0.8000E+01
     -8.887  0.0000E+00  0.0000E+00  0.8000E+01  0.8000E+01
     -8.723  0.0000E+00  0.0000E+00  0.8000E+01  0.8000E+01
     -8.558  0.0000E+00  0.0000E+00  0.8000E+01  0.8000E+01
     -8.394  0.0000E+00  0.0000E+00  0.8000E+01  0.8000E+01
     -8.230  0.0000E+00  0.0000E+00  0.8000E+01  0.8000E+01
     -8.066  0.0000E+00  0.0000E+00  0.8000E+01  0.8000E+01
     -7.901  0.0000E+00  0.0000E+00  0.8000E+01  0.8000E+01
     -7.737  0.0000E+00  0.0000E+00  0.8000E+01  0.8000E+01
     -7.573  0.0000E+00  0.0000E+00  0.8000E+01  0.8000E+01
     -7.409  0.0000E+00  0.0000E+00  0.8000E+01  0.8000E+01
     -7.245  0.0000E+00  0.0000E+00  0.8000E+01  0.8000E+01
     -7.080  0.0000E+00  0.0000E+00  0.8000E+01  0.8000E+01
     -6.916  0.0000E+00  0.0000E+00  0.8000E+01  0.8000E+01
     -6.752  0.0000E+00  0.0000E+00  0.8000E+01  0.8000E+01
     -6.588  0.0000E+00  0.0000E+00  0.8000E+01  0.8000E+01
     -6.423  0.0000E+00  0.0000E+00  0.8000E+01  0.8000E+01
     -6.259  0.0000E+00  0.0000E+00  0.8000E+01  0.8000E+01
     -6.095  0.0000E+00  0.0000E+00  0.8000E+01  0.8000E+01
     -5.931  0.0000E+00  0.0000E+00  0.8000E+01  0.8000E+01
     -5.766  0.0000E+00  0.0000E+00  0.8000E+01  0.8000E+01
     -5.602  0.0000E+00  0.0000E+00  0.8000E+01  0.8000E+01
     -5.438  0.0000E+00  0.0000E+00  0.8000E+01  0.8000E+01
     -5.274  0.0000E+00  0.0000E+00  0.8000E+01  0.8000E+01
     -5.109  0.0000E+00  0.0000E+00  0.8000E+01  0.8000E+01
     -4.945  0.0000E+00  0.0000E+00  0.8000E+01  0.8000E+01
     -4.781  0.0000E+00  0.0000E+00  0.8000E+01  0.8000E+01
     -4.617  0.0000E+00  0.0000E+00  0.8000E+01  0.8000E+01
     -4.453  0.0000E+00  0.0000E+00  0.8000E+01  0.8000E+01
     -4.288  0.0000E+00  0.0000E+00  0.8000E+01  0.8000E+01
     -4.124  0.3018E-06  0.2984E-06  0.8000E+01  0.8000E+01
     -3.960  0.2867E-04  0.2834E-04  0.8000E+01  0.8000E+01
     -3.796  0.7880E-03  0.7790E-03  0.8000E+01  0.8000E+01
     -3.631  0.1781E-01  0.1764E-01  0.8003E+01  0.8003E+01
     -3.467  0.1362E+00  0.1356E+00  0.8025E+01  0.8025E+01
     -3.303  0.2954E+00  0.2950E+00  0.8074E+01  0.8074E+01
     -3.139  0.4093E+00  0.4089E+00  0.8141E+01  0.8141E+01
     -2.974  0.4903E+00  0.4901E+00  0.8222E+01  0.8222E+01
     -2.810  0.5860E+00  0.5855E+00  0.8318E+01  0.8318E+01
     -2.646  0.6459E+00  0.6458E+00  0.8425E+01  0.8424E+01
     -2.482  0.7243E+00  0.7239E+00  0.8544E+01  0.8543E+01
     -2.317  0.8341E+00  0.8339E+00  0.8681E+01  0.8681E+01
     -2.153  0.8730E+00  0.8729E+00  0.8825E+01  0.8824E+01
     -1.989  0.9958E+00  0.9952E+00  0.8989E+01  0.8988E+01
     -1.825  0.9980E+00  0.9981E+00  0.9153E+01  0.9153E+01
     -1.661  0.1041E+01  0.1042E+01  0.9325E+01  0.9324E+01
     -1.496  0.1079E+01  0.1079E+01  0.9502E+01  0.9502E+01
     -1.332  0.9492E+00  0.9510E+00  0.9659E+01  0.9658E+01
     -1.168  0.8706E+00  0.8698E+00  0.9802E+01  0.9802E+01
     -1.004  0.1204E+01  0.1203E+01  0.1000E+02  0.1000E+02
     -0.839  0.1315E+01  0.1315E+01  0.1022E+02  0.1022E+02
     -0.675  0.1375E+01  0.1375E+01  0.1044E+02  0.1044E+02
     -0.511  0.1246E+01  0.1246E+01  0.1065E+02  0.1065E+02
     -0.347  0.1249E+01  0.1250E+01  0.1085E+02  0.1085E+02
     -0.182  0.1034E+01  0.1034E+01  0.1102E+02  0.1102E+02
     -0.018  0.1104E+01  0.1104E+01  0.1121E+02  0.1121E+02
      0.146  0.1381E+01  0.1380E+01  0.1143E+02  0.1143E+02
      0.310  0.1532E+01  0.1532E+01  0.1169E+02  0.1168E+02
      0.475  0.1466E+01  0.1466E+01  0.1193E+02  0.1193E+02
      0.639  0.1609E+01  0.1609E+01  0.1219E+02  0.1219E+02
      0.803  0.1383E+01  0.1384E+01  0.1242E+02  0.1242E+02
      0.967  0.1396E+01  0.1396E+01  0.1265E+02  0.1265E+02
      1.132  0.1275E+01  0.1276E+01  0.1286E+02  0.1286E+02
      1.296  0.9651E+00  0.9646E+00  0.1302E+02  0.1302E+02
      1.460  0.1410E+01  0.1409E+01  0.1325E+02  0.1325E+02
      1.624  0.1215E+01  0.1217E+01  0.1345E+02  0.1345E+02
      1.788  0.1004E+01  0.1003E+01  0.1362E+02  0.1361E+02
      1.953  0.1511E+01  0.1510E+01  0.1386E+02  0.1386E+02
      2.117  0.1396E+01  0.1396E+01  0.1409E+02  0.1409E+02
      2.281  0.1322E+01  0.1321E+01  0.1431E+02  0.1431E+02
      2.445  0.1791E+01  0.1789E+01  0.1461E+02  0.1461E+02
      2.610  0.1989E+01  0.1989E+01  0.1493E+02  0.1493E+02
      2.774  0.1863E+01  0.1863E+01  0.1524E+02  0.1524E+02
      2.938  0.1822E+01  0.1822E+01  0.1554E+02  0.1554E+02
      3.102  0.1870E+01  0.1869E+01  0.1585E+02  0.1585E+02
      3.267  0.2106E+01  0.2107E+01  0.1620E+02  0.1619E+02
      3.431  0.2317E+01  0.2316E+01  0.1658E+02  0.1658E+02
      3.595  0.2309E+01  0.2309E+01  0.1696E+02  0.1696E+02
      3.759  0.2520E+01  0.2518E+01  0.1737E+02  0.1737E+02
      3.924  0.2578E+01  0.2579E+01  0.1780E+02  0.1780E+02
      4.088  0.2324E+01  0.2324E+01  0.1818E+02  0.1818E+02
      4.252  0.2090E+01  0.2091E+01  0.1852E+02  0.1852E+02
      4.416  0.2180E+01  0.2179E+01  0.1888E+02  0.1888E+02
      4.580  0.2146E+01  0.2147E+01  0.1924E+02  0.1923E+02
      4.745  0.2182E+01  0.2182E+01  0.1959E+02  0.1959E+02
      4.909  0.2269E+01  0.2269E+01  0.1997E+02  0.1997E+02
      5.073  0.2266E+01  0.2265E+01  0.2034E+02  0.2034E+02
      5.237  0.2357E+01  0.2359E+01  0.2073E+02  0.2073E+02
      5.402  0.1837E+01  0.1838E+01  0.2103E+02  0.2103E+02
      5.566  0.1809E+01  0.1809E+01  0.2133E+02  0.2133E+02
      5.730  0.1877E+01  0.1877E+01  0.2164E+02  0.2164E+02
      5.894  0.1763E+01  0.1764E+01  0.2193E+02  0.2193E+02
      6.059  0.1805E+01  0.1804E+01  0.2223E+02  0.2223E+02
      6.223  0.2330E+01  0.2329E+01  0.2261E+02  0.2261E+02
      6.387  0.2426E+01  0.2426E+01  0.2301E+02  0.2301E+02
      6.551  0.2531E+01  0.2531E+01  0.2343E+02  0.2343E+02
      6.716  0.2921E+01  0.2919E+01  0.2391E+02  0.2391E+02
      6.880  0.3537E+01  0.3534E+01  0.2449E+02  0.2449E+02
      7.044  0.3762E+01  0.3744E+01  0.2511E+02  0.2510E+02
      7.208  0.3270E+01  0.3226E+01  0.2565E+02  0.2564E+02
      7.373  0.2879E+01  0.2891E+01  0.2612E+02  0.2611E+02
      7.537  0.2951E+01  0.2970E+01  0.2661E+02  0.2660E+02
      7.701  0.2638E+01  0.2699E+01  0.2704E+02  0.2705E+02
      7.865  0.1871E+01  0.1810E+01  0.2735E+02  0.2734E+02
      8.029  0.1344E+01  0.1407E+01  0.2757E+02  0.2758E+02
      8.194  0.9533E+00  0.9515E+00  0.2773E+02  0.2773E+02
      8.358  0.7409E+00  0.8448E+00  0.2785E+02  0.2787E+02
      8.522  0.6145E+00  0.5825E+00  0.2795E+02  0.2797E+02
      8.686  0.2539E+00  0.1689E+00  0.2800E+02  0.2800E+02
      8.851  0.1843E-01  0.1004E-01  0.2800E+02  0.2800E+02
      9.015  0.0000E+00  0.0000E+00  0.2800E+02  0.2800E+02
      9.179  0.0000E+00  0.0000E+00  0.2800E+02  0.2800E+02
      9.343  0.0000E+00  0.0000E+00  0.2800E+02  0.2800E+02
      9.508  0.0000E+00  0.0000E+00  0.2800E+02  0.2800E+02
      9.672  0.0000E+00  0.0000E+00  0.2800E+02  0.2800E+02
      9.836  0.0000E+00  0.0000E+00  0.2800E+02  0.2800E+02
     10.000  0.0000E+00  0.0000E+00  0.2800E+02  0.2800E+02
     10.165  0.0000E+00  0.0000E+00  0.2800E+02  0.2800E+02
     10.329  0.0000E+00  0.0000E+00  0.2800E+02  0.2800E+02
     10.493  0.0000E+00  0.0000E+00  0.2800E+02  0.2800E+02
     10.657  0.0000E+00  0.0000E+00  0.2800E+02  0.2800E+02
     10.821  0.0000E+00  0.0000E+00  0.2800E+02  0.2800E+02
     10.82146816    -38.44947812  301      4.46884986      1.00000000
    -38.449  0.0000E+00  0.0000E+00  0.0000E+00  0.0000E+00  0.0000E+00  0.0000E+00  0.0000E+00  0.0000E+00  0.0000E+00  0.0000E+00  0.0000E+00  0.0000E+00  0.0000E+00  0.0000E+00  0.0000E+00  0.0000E+00  0.0000E+00  0.0000E+00
    -38.285  0.0000E+00  0.0000E+00  0.0000E+00  0.0000E+00  0.0000E+00  0.0000E+00  0.0000E+00  0.0000E+00  0.0000E+00  0.0000E+00  0.0000E+00  0.0000E+00  0.0000E+00  0.0000E+00  0.0000E+00  0.0000E+00  0.0000E+00  0.0000E+00
    -38.121  0.0000E+00  0.0000E+00  0.0000E+00  0.0000E+00  0.0000E+00  0.0000E+00  0.0000E+00  0.0000E+00  0.0000E+00  0.0000E+00  0.0000E+00  0.0000E+00  0.0000E+00  0.0000E+00  0.0000E+00  0.0000E+00  0.0000E+00  0.0000E+00
    -37.957  0.0000E+00  0.0000E+00  0.0000E+00  0.0000E+00  0.0000E+00  0.0000E+00  0.0000E+00  0.0000E+00  0.0000E+00  0.0000E+00  0.0000E+00  0.0000E+00  0.0000E+00  0.0000E+00  0.0000E+00  0.0000E+00  0.0000E+00  0.0000E+00
    -37.793  0.0000E+00  0.0000E+00  0.0000E+00  0.0000E+00  0.0000E+00  0.0000E+00  0.0000E+00  0.0000E+00  0.0000E+00  0.0000E+00  0.0000E+00  0.0000E+00  0.0000E+00  0.0000E+00  0.0000E+00  0.0000E+00  0.0000E+00  0.0000E+00
    -37.628  0.0000E+00  0.0000E+00  0.0000E+00  0.0000E+00  0.0000E+00  0.0000E+00  0.0000E+00  0.0000E+00  0.0000E+00  0.0000E+00  0.0000E+00  0.0000E+00  0.0000E+00  0.0000E+00  0.0000E+00  0.0000E+00  0.0000E+00  0.0000E+00
    -37.464  0.0000E+00  0.0000E+00  0.0000E+00  0.0000E+00  0.0000E+00  0.0000E+00  0.0000E+00  0.0000E+00  0.0000E+00  0.0000E+00  0.0000E+00  0.0000E+00  0.0000E+00  0.0000E+00  0.0000E+00  0.0000E+00  0.0000E+00  0.0000E+00
    -37.300  0.0000E+00  0.0000E+00  0.0000E+00  0.0000E+00  0.0000E+00  0.0000E+00  0.0000E+00  0.0000E+00  0.0000E+00  0.0000E+00  0.0000E+00  0.0000E+00  0.0000E+00  0.0000E+00  0.0000E+00  0.0000E+00  0.0000E+00  0.0000E+00
    -37.136  0.0000E+00  0.0000E+00  0.0000E+00  0.0000E+00  0.0000E+00  0.0000E+00  0.0000E+00  0.0000E+00  0.0000E+00  0.0000E+00  0.0000E+00  0.0000E+00  0.0000E+00  0.0000E+00  0.0000E+00  0.0000E+00  0.0000E+00  0.0000E+00
    -36.971  0.0000E+00  0.0000E+00  0.0000E+00  0.0000E+00  0.0000E+00  0.0000E+00  0.0000E+00  0.0000E+00  0.0000E+00  0.0000E+00  0.0000E+00  0.0000E+00  0.0000E+00  0.0000E+00  0.0000E+00  0.0000E+00  0.0000E+00  0.0000E+00
    -36.807  0.0000E+00  0.0000E+00  0.0000E+00  0.0000E+00  0.0000E+00  0.0000E+00  0.0000E+00  0.0000E+00  0.0000E+00  0.0000E+00  0.0000E+00  0.0000E+00  0.0000E+00  0.0000E+00  0.0000E+00  0.0000E+00  0.0000E+00  0.0000E+00
    -36.643  0.1024E-02  0.1025E-02  0.7499E-12  0.7232E-12  0.1990E-13  0.8314E-14  0.7499E-12  0.7232E-12  0.1568E-14  0.6481E-15  0.3101E-14  0.1842E-14  0.3092E-09  0.3109E-09  0.3101E-14  0.1842E-14  0.4801E-12  0.4906E-12
    -36.479  0.2620E-01  0.2623E-01  0.1919E-10  0.1850E-10  0.5091E-12  0.2127E-12  0.1919E-10  0.1850E-10  0.4011E-13  0.1658E-13  0.7934E-13  0.4714E-13  0.7910E-08  0.7955E-08  0.7934E-13  0.4714E-13  0.1228E-10  0.1255E-10
    -36.314  0.6238E+00  0.6244E+00  0.4568E-09  0.4405E-09  0.1211E-10  0.5061E-11  0.4568E-09  0.4405E-09  0.9552E-12  0.3949E-12  0.1889E-11  0.1122E-11  0.1883E-06  0.1894E-06  0.1889E-11  0.1122E-11  0.2925E-09  0.2988E-09
    -36.150  0.3938E+01  0.3938E+01  0.2883E-08  0.2778E-08  0.7624E-10  0.3181E-10  0.2883E-08  0.2778E-08  0.6040E-11  0.2500E-11  0.1193E-10  0.7077E-11  0.1189E-05  0.1195E-05  0.1193E-10  0.7077E-11  0.1847E-08  0.1885E-08
    -35.986  0.1344E+01  0.1343E+01  0.9836E-09  0.9469E-09  0.2593E-10  0.1080E-10  0.9836E-09  0.9469E-09  0.2066E-11  0.8557E-12  0.4077E-11  0.2413E-11  0.4059E-06  0.4075E-06  0.4077E-11  0.2413E-11  0.6303E-09  0.6428E-09
    -35.822  0.6580E-01  0.6573E-01  0.4815E-10  0.4634E-10  0.1268E-11  0.5281E-12  0.4815E-10  0.4634E-10  0.1012E-12  0.4192E-13  0.1996E-12  0.1181E-12  0.1987E-07  0.1994E-07  0.1996E-12  0.1181E-12  0.3086E-10  0.3146E-10
    -35.657  0.0000E+00  0.0000E+00  0.0000E+00  0.0000E+00  0.0000E+00  0.0000E+00  0.0000E+00  0.0000E+00  0.0000E+00  0.0000E+00  0.0000E+00  0.0000E+00  0.0000E+00  0.0000E+00  0.0000E+00  0.0000E+00  0.0000E+00  0.0000E+00
    -35.493  0.0000E+00  0.0000E+00  0.0000E+00  0.0000E+00  0.0000E+00  0.0000E+00  0.0000E+00  0.0000E+00  0.0000E+00  0.0000E+00  0.0000E+00  0.0000E+00  0.0000E+00  0.0000E+00  0.0000E+00  0.0000E+00  0.0000E+00  0.0000E+00
    -35.329  0.0000E+00  0.0000E+00  0.0000E+00  0.0000E+00  0.0000E+00  0.0000E+00  0.0000E+00  0.0000E+00  0.0000E+00  0.0000E+00  0.0000E+00  0.0000E+00  0.0000E+00  0.0000E+00  0.0000E+00  0.0000E+00  0.0000E+00  0.0000E+00
    -35.165  0.0000E+00  0.0000E+00  0.0000E+00  0.0000E+00  0.0000E+00  0.0000E+00  0.0000E+00  0.0000E+00  0.0000E+00  0.0000E+00  0.0000E+00  0.0000E+00  0.0000E+00  0.0000E+00  0.0000E+00  0.0000E+00  0.0000E+00  0.0000E+00
    -35.001  0.0000E+00  0.0000E+00  0.0000E+00  0.0000E+00  0.0000E+00  0.0000E+00  0.0000E+00  0.0000E+00  0.0000E+00  0.0000E+00  0.0000E+00  0.0000E+00  0.0000E+00  0.0000E+00  0.0000E+00  0.0000E+00  0.0000E+00  0.0000E+00
    -34.836  0.0000E+00  0.0000E+00  0.0000E+00  0.0000E+00  0.0000E+00  0.0000E+00  0.0000E+00  0.0000E+00  0.0000E+00  0.0000E+00  0.0000E+00  0.0000E+00  0.0000E+00  0.0000E+00  0.0000E+00  0.0000E+00  0.0000E+00  0.0000E+00
    -34.672  0.0000E+00  0.0000E+00  0.0000E+00  0.0000E+00  0.0000E+00  0.0000E+00  0.0000E+00  0.0000E+00  0.0000E+00  0.0000E+00  0.0000E+00  0.0000E+00  0.0000E+00  0.0000E+00  0.0000E+00  0.0000E+00  0.0000E+00  0.0000E+00
    -34.508  0.0000E+00  0.0000E+00  0.0000E+00  0.0000E+00  0.0000E+00  0.0000E+00  0.0000E+00  0.0000E+00  0.0000E+00  0.0000E+00  0.0000E+00  0.0000E+00  0.0000E+00  0.0000E+00  0.0000E+00  0.0000E+00  0.0000E+00  0.0000E+00
    -34.344  0.0000E+00  0.0000E+00  0.0000E+00  0.0000E+00  0.0000E+00  0.0000E+00  0.0000E+00  0.0000E+00  0.0000E+00  0.0000E+00  0.0000E+00  0.0000E+00  0.0000E+00  0.0000E+00  0.0000E+00  0.0000E+00  0.0000E+00  0.0000E+00
    -34.179  0.0000E+00  0.0000E+00  0.0000E+00  0.0000E+00  0.0000E+00  0.0000E+00  0.0000E+00  0.0000E+00  0.0000E+00  0.0000E+00  0.0000E+00  0.0000E+00  0.0000E+00  0.0000E+00  0.0000E+00  0.0000E+00  0.0000E+00  0.0000E+00
    -34.015  0.0000E+00  0.0000E+00  0.0000E+00  0.0000E+00  0.0000E+00  0.0000E+00  0.0000E+00  0.0000E+00  0.0000E+00  0.0000E+00  0.0000E+00  0.0000E+00  0.0000E+00  0.0000E+00  0.0000E+00  0.0000E+00  0.0000E+00  0.0000E+00
    -33.851  0.0000E+00  0.0000E+00  0.0000E+00  0.0000E+00  0.0000E+00  0.0000E+00  0.0000E+00  0.0000E+00  0.0000E+00  0.0000E+00  0.0000E+00  0.0000E+00  0.0000E+00  0.0000E+00  0.0000E+00  0.0000E+00  0.0000E+00  0.0000E+00
    -33.687  0.0000E+00  0.0000E+00  0.0000E+00  0.0000E+00  0.0000E+00  0.0000E+00  0.0000E+00  0.0000E+00  0.0000E+00  0.0000E+00  0.0000E+00  0.0000E+00  0.0000E+00  0.0000E+00  0.0000E+00  0.0000E+00  0.0000E+00  0.0000E+00
    -33.522  0.0000E+00  0.0000E+00  0.0000E+00  0.0000E+00  0.0000E+00  0.0000E+00  0.0000E+00  0.0000E+00  0.0000E+00  0.0000E+00  0.0000E+00  0.0000E+00  0.0000E+00  0.0000E+00  0.0000E+00  0.0000E+00  0.0000E+00  0.0000E+00
    -33.358  0.0000E+00  0.0000E+00  0.0000E+00  0.0000E+00  0.0000E+00  0.0000E+00  0.0000E+00  0.0000E+00  0.0000E+00  0.0000E+00  0.0000E+00  0.0000E+00  0.0000E+00  0.0000E+00  0.0000E+00  0.0000E+00  0.0000E+00  0.0000E+00
    -33.194  0.0000E+00  0.0000E+00  0.0000E+00  0.0000E+00  0.0000E+00  0.0000E+00  0.0000E+00  0.0000E+00  0.0000E+00  0.0000E+00  0.0000E+00  0.0000E+00  0.0000E+00  0.0000E+00  0.0000E+00  0.0000E+00  0.0000E+00  0.0000E+00
    -33.030  0.0000E+00  0.0000E+00  0.0000E+00  0.0000E+00  0.0000E+00  0.0000E+00  0.0000E+00  0.0000E+00  0.0000E+00  0.0000E+00  0.0000E+00  0.0000E+00  0.0000E+00  0.0000E+00  0.0000E+00  0.0000E+00  0.0000E+00  0.0000E+00
    -32.865  0.0000E+00  0.0000E+00  0.0000E+00  0.0000E+00  0.0000E+00  0.0000E+00  0.0000E+00  0.0000E+00  0.0000E+00  0.0000E+00  0.0000E+00  0.0000E+00  0.0000E+00  0.0000E+00  0.0000E+00  0.0000E+00  0.0000E+00  0.0000E+00
    -32.701  0.0000E+00  0.0000E+00  0.0000E+00  0.0000E+00  0.0000E+00  0.0000E+00  0.0000E+00  0.0000E+00  0.0000E+00  0.0000E+00  0.0000E+00  0.0000E+00  0.0000E+00  0.0000E+00  0.0000E+00  0.0000E+00  0.0000E+00  0.0000E+00
    -32.537  0.0000E+00  0.0000E+00  0.0000E+00  0.0000E+00  0.0000E+00  0.0000E+00  0.0000E+00  0.0000E+00  0.0000E+00  0.0000E+00  0.0000E+00  0.0000E+00  0.0000E+00  0.0000E+00  0.0000E+00  0.0000E+00  0.0000E+00  0.0000E+00
    -32.373  0.0000E+00  0.0000E+00  0.0000E+00  0.0000E+00  0.0000E+00  0.0000E+00  0.0000E+00  0.0000E+00  0.0000E+00  0.0000E+00  0.0000E+00  0.0000E+00  0.0000E+00  0.0000E+00  0.0000E+00  0.0000E+00  0.0000E+00  0.0000E+00
    -32.208  0.0000E+00  0.0000E+00  0.0000E+00  0.0000E+00  0.0000E+00  0.0000E+00  0.0000E+00  0.0000E+00  0.0000E+00  0.0000E+00  0.0000E+00  0.0000E+00  0.0000E+00  0.0000E+00  0.0000E+00  0.0000E+00  0.0000E+00  0.0000E+00
    -32.044  0.0000E+00  0.0000E+00  0.0000E+00  0.0000E+00  0.0000E+00  0.0000E+00  0.0000E+00  0.0000E+00  0.0000E+00  0.0000E+00  0.0000E+00  0.0000E+00  0.0000E+00  0.0000E+00  0.0000E+00  0.0000E+00  0.0000E+00  0.0000E+00
    -31.880  0.0000E+00  0.0000E+00  0.0000E+00  0.0000E+00  0.0000E+00  0.0000E+00  0.0000E+00  0.0000E+00  0.0000E+00  0.0000E+00  0.0000E+00  0.0000E+00  0.0000E+00  0.0000E+00  0.0000E+00  0.0000E+00  0.0000E+00  0.0000E+00
    -31.716  0.0000E+00  0.0000E+00  0.0000E+00  0.0000E+00  0.0000E+00  0.0000E+00  0.0000E+00  0.0000E+00  0.0000E+00  0.0000E+00  0.0000E+00  0.0000E+00  0.0000E+00  0.0000E+00  0.0000E+00  0.0000E+00  0.0000E+00  0.0000E+00
    -31.552  0.0000E+00  0.0000E+00  0.0000E+00  0.0000E+00  0.0000E+00  0.0000E+00  0.0000E+00  0.0000E+00  0.0000E+00  0.0000E+00  0.0000E+00  0.0000E+00  0.0000E+00  0.0000E+00  0.0000E+00  0.0000E+00  0.0000E+00  0.0000E+00
    -31.387  0.0000E+00  0.0000E+00  0.0000E+00  0.0000E+00  0.0000E+00  0.0000E+00  0.0000E+00  0.0000E+00  0.0000E+00  0.0000E+00  0.0000E+00  0.0000E+00  0.0000E+00  0.0000E+00  0.0000E+00  0.0000E+00  0.0000E+00  0.0000E+00
    -31.223  0.0000E+00  0.0000E+00  0.0000E+00  0.0000E+00  0.0000E+00  0.0000E+00  0.0000E+00  0.0000E+00  0.0000E+00  0.0000E+00  0.0000E+00  0.0000E+00  0.0000E+00  0.0000E+00  0.0000E+00  0.0000E+00  0.0000E+00  0.0000E+00
    -31.059  0.0000E+00  0.0000E+00  0.0000E+00  0.0000E+00  0.0000E+00  0.0000E+00  0.0000E+00  0.0000E+00  0.0000E+00  0.0000E+00  0.0000E+00  0.0000E+00  0.0000E+00  0.0000E+00  0.0000E+00  0.0000E+00  0.0000E+00  0.0000E+00
    -30.895  0.0000E+00  0.0000E+00  0.0000E+00  0.0000E+00  0.0000E+00  0.0000E+00  0.0000E+00  0.0000E+00  0.0000E+00  0.0000E+00  0.0000E+00  0.0000E+00  0.0000E+00  0.0000E+00  0.0000E+00  0.0000E+00  0.0000E+00  0.0000E+00
    -30.730  0.0000E+00  0.0000E+00  0.0000E+00  0.0000E+00  0.0000E+00  0.0000E+00  0.0000E+00  0.0000E+00  0.0000E+00  0.0000E+00  0.0000E+00  0.0000E+00  0.0000E+00  0.0000E+00  0.0000E+00  0.0000E+00  0.0000E+00  0.0000E+00
    -30.566  0.0000E+00  0.0000E+00  0.0000E+00  0.0000E+00  0.0000E+00  0.0000E+00  0.0000E+00  0.0000E+00  0.0000E+00  0.0000E+00  0.0000E+00  0.0000E+00  0.0000E+00  0.0000E+00  0.0000E+00  0.0000E+00  0.0000E+00  0.0000E+00
    -30.402  0.0000E+00  0.0000E+00  0.0000E+00  0.0000E+00  0.0000E+00  0.0000E+00  0.0000E+00  0.0000E+00  0.0000E+00  0.0000E+00  0.0000E+00  0.0000E+00  0.0000E+00  0.0000E+00  0.0000E+00  0.0000E+00  0.0000E+00  0.0000E+00
    -30.238  0.0000E+00  0.0000E+00  0.0000E+00  0.0000E+00  0.0000E+00  0.0000E+00  0.0000E+00  0.0000E+00  0.0000E+00  0.0000E+00  0.0000E+00  0.0000E+00  0.0000E+00  0.0000E+00  0.0000E+00  0.0000E+00  0.0000E+00  0.0000E+00