   8   8   1   0
  0.2746878E+02  0.4760260E-09  0.4760260E-09  0.9697686E-09  0.5000000E-15
  1.000000000000000E-004
  CAR 
 unknown system                          
      9.49190486    -39.86802647  301      3.54468724      1.00000000
    -39.868  0.0000E+00  0.0000E+00  0.0000E+00  0.0000E+00
    -39.703  0.0000E+00  0.0000E+00  0.0000E+00  0.0000E+00
    -39.539  0.0000E+00  0.0000E+00  0.0000E+00  0.0000E+00
    -39.374  0.0000E+00  0.0000E+00  0.0000E+00  0.0000E+00
    -39.210  0.0000E+00  0.0000E+00  0.0000E+00  0.0000E+00
    -39.045  0.0000E+00  0.0000E+00  0.0000E+00  0.0000E+00
    -38.881  0.0000E+00  0.0000E+00  0.0000E+00  0.0000E+00
    -38.716  0.0000E+00  0.0000E+00  0.0000E+00  0.0000E+00
    -38.552  0.0000E+00  0.0000E+00  0.0000E+00  0.0000E+00
    -38.387  0.0000E+00  0.0000E+00  0.0000E+00  0.0000E+00
    -38.223  0.0000E+00  0.0000E+00  0.0000E+00  0.0000E+00
    -38.058  0.2062E-02  0.2058E-02  0.3393E-03  0.3386E-03
    -37.894  0.5308E-01  0.5298E-01  0.9073E-02  0.9056E-02
    -37.729  0.1271E+01  0.1268E+01  0.2181E+00  0.2177E+00
    -37.565  0.7995E+01  0.7993E+01  0.1534E+01  0.1533E+01
    -37.400  0.2699E+01  0.2703E+01  0.1978E+01  0.1978E+01
    -37.235  0.1310E+00  0.1312E+00  0.1999E+01  0.1999E+01
    -37.071  0.0000E+00  0.0000E+00  0.2000E+01  0.2000E+01
    -36.906  0.0000E+00  0.0000E+00  0.2000E+01  0.2000E+01
    -36.742  0.0000E+00  0.0000E+00  0.2000E+01  0.2000E+01
    -36.577  0.0000E+00  0.0000E+00  0.2000E+01  0.2000E+01
    -36.413  0.0000E+00  0.0000E+00  0.2000E+01  0.2000E+01
    -36.248  0.0000E+00  0.0000E+00  0.2000E+01  0.2000E+01
    -36.084  0.0000E+00  0.0000E+00  0.2000E+01  0.2000E+01
    -35.919  0.0000E+00  0.0000E+00  0.2000E+01  0.2000E+01
    -35.755  0.0000E+00  0.0000E+00  0.2000E+01  0.2000E+01
    -35.590  0.0000E+00  0.0000E+00  0.2000E+01  0.2000E+01
    -35.426  0.0000E+00  0.0000E+00  0.2000E+01  0.2000E+01
    -35.261  0.0000E+00  0.0000E+00  0.2000E+01  0.2000E+01
    -35.097  0.0000E+00  0.0000E+00  0.2000E+01  0.2000E+01
    -34.932  0.0000E+00  0.0000E+00  0.2000E+01  0.2000E+01
    -34.768  0.0000E+00  0.0000E+00  0.2000E+01  0.2000E+01
    -34.603  0.0000E+00  0.0000E+00  0.2000E+01  0.2000E+01
    -34.438  0.0000E+00  0.0000E+00  0.2000E+01  0.2000E+01
    -34.274  0.0000E+00  0.0000E+00  0.2000E+01  0.2000E+01
    -34.109  0.0000E+00  0.0000E+00  0.2000E+01  0.2000E+01
    -33.945  0.0000E+00  0.0000E+00  0.2000E+01  0.2000E+01
    -33.780  0.0000E+00  0.0000E+00  0.2000E+01  0.2000E+01
    -33.616  0.0000E+00  0.0000E+00  0.2000E+01  0.2000E+01
    -33.451  0.0000E+00  0.0000E+00  0.2000E+01  0.2000E+01
    -33.287  0.0000E+00  0.0000E+00  0.2000E+01  0.2000E+01
    -33.122  0.0000E+00  0.0000E+00  0.2000E+01  0.2000E+01
    -32.958  0.0000E+00  0.0000E+00  0.2000E+01  0.2000E+01
    -32.793  0.0000E+00  0.0000E+00  0.2000E+01  0.2000E+01
    -32.629  0.0000E+00  0.0000E+00  0.2000E+01  0.2000E+01
    -32.464  0.0000E+00  0.0000E+00  0.2000E+01  0.2000E+01
    -32.300  0.0000E+00  0.0000E+00  0.2000E+01  0.2000E+01
    -32.135  0.0000E+00  0.0000E+00  0.2000E+01  0.2000E+01
    -31.970  0.0000E+00  0.0000E+00  0.2000E+01  0.2000E+01
    -31.806  0.0000E+00  0.0000E+00  0.2000E+01  0.2000E+01
    -31.641  0.0000E+00  0.0000E+00  0.2000E+01  0.2000E+01
    -31.477  0.0000E+00  0.0000E+00  0.2000E+01  0.2000E+01
    -31.312  0.0000E+00  0.0000E+00  0.2000E+01  0.2000E+01
    -31.148  0.0000E+00  0.0000E+00  0.2000E+01  0.2000E+01
    -30.983  0.0000E+00  0.0000E+00  0.2000E+01  0.2000E+01
    -30.819  0.0000E+00  0.0000E+00  0.2000E+01  0.2000E+01
    -30.654  0.0000E+00  0.0000E+00  0.2000E+01  0.2000E+01
    -30.490  0.0000E+00  0.0000E+00  0.2000E+01  0.2000E+01
    -30.325  0.0000E+00  0.0000E+00  0.2000E+01  0.2000E+01
    -30.161  0.0000E+00  0.0000E+00  0.2000E+01  0.2000E+01
    -29.996  0.0000E+00  0.0000E+00  0.2000E+01  0.2000E+01
    -29.832  0.0000E+00  0.0000E+00  0.2000E+01  0.2000E+01
    -29.667  0.0000E+00  0.0000E+00  0.2000E+01  0.2000E+01
    -29.502  0.0000E+00  0.0000E+00  0.2000E+01  0.2000E+01
    -29.338  0.0000E+00  0.0000E+00  0.2000E+01  0.2000E+01
    -29.173  0.0000E+00  0.0000E+00  0.2000E+01  0.2000E+01
    -29.009  0.0000E+00  0.0000E+00  0.2000E+01  0.2000E+01
    -28.844  0.0000E+00  0.0000E+00  0.2000E+01  0.2000E+01
    -28.680  0.0000E+00  0.0000E+00  0.2000E+01  0.2000E+01
    -28.515  0.0000E+00  0.0000E+00  0.2000E+01  0.2000E+01
    -28.351  0.0000E+00  0.0000E+00  0.2000E+01  0.2000E+01
    -28.186  0.0000E+00  0.0000E+00  0.2000E+01  0.2000E+01
    -28.022  0.0000E+00  0.0000E+00  0.2000E+01  0.2000E+01
    -27.857  0.0000E+00  0.0000E+00  0.2000E+01  0.2000E+01
    -27.693  0.0000E+00  0.0000E+00  0.2000E+01  0.2000E+01
    -27.528  0.0000E+00  0.0000E+00  0.2000E+01  0.2000E+01
    -27.364  0.0000E+00  0.0000E+00  0.2000E+01  0.2000E+01
    -27.199  0.0000E+00  0.0000E+00  0.2000E+01  0.2000E+01
    -27.034  0.0000E+00  0.0000E+00  0.2000E+01  0.2000E+01
    -26.870  0.0000E+00  0.0000E+00  0.2000E+01  0.2000E+01
    -26.705  0.0000E+00  0.0000E+00  0.2000E+01  0.2000E+01
    -26.541  0.0000E+00  0.0000E+00  0.2000E+01  0.2000E+01
    -26.376  0.0000E+00  0.0000E+00  0.2000E+01  0.2000E+01
    -26.212  0.0000E+00  0.0000E+00  0.2000E+01  0.2000E+01
    -26.047  0.0000E+00  0.0000E+00  0.2000E+01  0.2000E+01
    -25.883  0.0000E+00  0.0000E+00  0.2000E+01  0.2000E+01
    -25.718  0.0000E+00  0.0000E+00  0.2000E+01  0.2000E+01
    -25.554  0.0000E+00  0.0000E+00  0.2000E+01  0.2000E+01
    -25.389  0.0000E+00  0.0000E+00  0.2000E+01  0.2000E+01
    -25.225  0.0000E+00  0.0000E+00  0.2000E+01  0.2000E+01
    -25.060  0.0000E+00  0.0000E+00  0.2000E+01  0.2000E+01
    -24.896  0.0000E+00  0.0000E+00  0.2000E+01  0.2000E+01
    -24.731  0.0000E+00  0.0000E+00  0.2000E+01  0.2000E+01
    -24.566  0.0000E+00  0.0000E+00  0.2000E+01  0.2000E+01
    -24.402  0.0000E+00  0.0000E+00  0.2000E+01  0.2000E+01
    -24.237  0.0000E+00  0.0000E+00  0.2000E+01  0.2000E+01
    -24.073  0.0000E+00  0.0000E+00  0.2000E+01  0.2000E+01
    -23.908  0.0000E+00  0.0000E+00  0.2000E+01  0.2000E+01
    -23.744  0.0000E+00  0.0000E+00  0.2000E+01  0.2000E+01
    -23.579  0.0000E+00  0.0000E+00  0.2000E+01  0.2000E+01
    -23.415  0.0000E+00  0.0000E+00  0.2000E+01  0.2000E+01
    -23.250  0.0000E+00  0.0000E+00  0.2000E+01  0.2000E+01
    -23.086  0.0000E+00  0.0000E+00  0.2000E+01  0.2000E+01
    -22.921  0.0000E+00  0.0000E+00  0.2000E+01  0.2000E+01
    -22.757  0.0000E+00  0.0000E+00  0.2000E+01  0.2000E+01
    -22.592  0.0000E+00  0.0000E+00  0.2000E+01  0.2000E+01
    -22.428  0.0000E+00  0.0000E+00  0.2000E+01  0.2000E+01
    -22.263  0.0000E+00  0.0000E+00  0.2000E+01  0.2000E+01
    -22.098  0.0000E+00  0.0000E+00  0.2000E+01  0.2000E+01
    -21.934  0.0000E+00  0.0000E+00  0.2000E+01  0.2000E+01
    -21.769  0.0000E+00  0.0000E+00  0.2000E+01  0.2000E+01
    -21.605  0.0000E+00  0.0000E+00  0.2000E+01  0.2000E+01
    -21.440  0.0000E+00  0.0000E+00  0.2000E+01  0.2000E+01
    -21.276  0.0000E+00  0.0000E+00  0.2000E+01  0.2000E+01
    -21.111  0.0000E+00  0.0000E+00  0.2000E+01  0.2000E+01
    -20.947  0.0000E+00  0.0000E+00  0.2000E+01  0.2000E+01
    -20.782  0.0000E+00  0.0000E+00  0.2000E+01  0.2000E+01
    -20.618  0.0000E+00  0.0000E+00  0.2000E+01  0.2000E+01
    -20.453  0.0000E+00  0.0000E+00  0.2000E+01  0.2000E+01
    -20.289  0.0000E+00  0.0000E+00  0.2000E+01  0.2000E+01
    -20.124  0.0000E+00  0.0000E+00  0.2000E+01  0.2000E+01
    -19.960  0.0000E+00  0.0000E+00  0.2000E+01  0.2000E+01
    -19.795  0.0000E+00  0.0000E+00  0.2000E+01  0.2000E+01
    -19.630  0.0000E+00  0.0000E+00  0.2000E+01  0.2000E+01
    -19.466  0.0000E+00  0.0000E+00  0.2000E+01  0.2000E+01
    -19.301  0.0000E+00  0.0000E+00  0.2000E+01  0.2000E+01
    -19.137  0.1991E-02  0.1981E-02  0.2000E+01  0.2000E+01
    -18.972  0.5142E-01  0.5115E-01  0.2009E+01  0.2009E+01
    -18.808  0.1325E+01  0.1318E+01  0.2227E+01  0.2226E+01
    -18.643  0.1703E+02  0.1699E+02  0.5028E+01  0.5021E+01
    -18.479  0.1674E+02  0.1678E+02  0.7782E+01  0.7781E+01
    -18.314  0.1272E+01  0.1278E+01  0.7992E+01  0.7992E+01
    -18.150  0.0000E+00  0.0000E+00  0.8000E+01  0.8000E+01
    -17.985  0.0000E+00  0.0000E+00  0.8000E+01  0.8000E+01
    -17.821  0.0000E+00  0.0000E+00  0.8000E+01  0.8000E+01
    -17.656  0.0000E+00  0.0000E+00  0.8000E+01  0.8000E+01
    -17.492  0.0000E+00  0.0000E+00  0.8000E+01  0.8000E+01
    -17.327  0.0000E+00  0.0000E+00  0.8000E+01  0.8000E+01
    -17.162  0.0000E+00  0.0000E+00  0.8000E+01  0.8000E+01
    -16.998  0.0000E+00  0.0000E+00  0.8000E+01  0.8000E+01
    -16.833  0.0000E+00  0.0000E+00  0.8000E+01  0.8000E+01
    -16.669  0.0000E+00  0.0000E+00  0.8000E+01  0.8000E+01
    -16.504  0.0000E+00  0.0000E+00  0.8000E+01  0.8000E+01
    -16.340  0.0000E+00  0.0000E+00  0.8000E+01  0.8000E+01
    -16.175  0.0000E+00  0.0000E+00  0.8000E+01  0.8000E+01
    -16.011  0.0000E+00  0.0000E+00  0.8000E+01  0.8000E+01
    -15.846  0.0000E+00  0.0000E+00  0.8000E+01  0.8000E+01
    -15.682  0.0000E+00  0.0000E+00  0.8000E+01  0.8000E+01
    -15.517  0.0000E+00  0.0000E+00  0.8000E+01  0.8000E+01
    -15.353  0.0000E+00  0.0000E+00  0.8000E+01  0.8000E+01
    -15.188  0.0000E+00  0.0000E+00  0.8000E+01  0.8000E+01
    -15.024  0.0000E+00  0.0000E+00  0.8000E+01  0.8000E+01
    -14.859  0.0000E+00  0.0000E+00  0.8000E+01  0.8000E+01
    -14.694  0.0000E+00  0.0000E+00  0.8000E+01  0.8000E+01
    -14.530  0.0000E+00  0.0000E+00  0.8000E+01  0.8000E+01
    -14.365  0.0000E+00  0.0000E+00  0.8000E+01  0.8000E+01
    -14.201  0.0000E+00  0.0000E+00  0.8000E+01  0.8000E+01
    -14.036  0.0000E+00  0.0000E+00  0.8000E+01  0.8000E+01
    -13.872  0.0000E+00  0.0000E+00  0.8000E+01  0.8000E+01
    -13.707  0.0000E+00  0.0000E+00  0.8000E+01  0.8000E+01
    -13.543  0.0000E+00  0.0000E+00  0.8000E+01  0.8000E+01
    -13.378  0.0000E+00  0.0000E+00  0.8000E+01  0.8000E+01
    -13.214  0.0000E+00  0.0000E+00  0.8000E+01  0.8000E+01
    -13.049  0.0000E+00  0.0000E+00  0.8000E+01  0.8000E+01
    -12.885  0.0000E+00  0.0000E+00  0.8000E+01  0.8000E+01
    -12.720  0.0000E+00  0.0000E+00  0.8000E+01  0.8000E+01
    -12.556  0.0000E+00  0.0000E+00  0.8000E+01  0.8000E+01
    -12.391  0.0000E+00  0.0000E+00  0.8000E+01  0.8000E+01
    -12.226  0.0000E+00  0.0000E+00  0.8000E+01  0.8000E+01
    -12.062  0.0000E+00  0.0000E+00  0.8000E+01  0.8000E+01
    -11.897  0.0000E+00  0.0000E+00  0.8000E+01  0.8000E+01
    -11.733  0.0000E+00  0.0000E+00  0.8000E+01  0.8000E+01
    -11.568  0.0000E+00  0.0000E+00  0.8000E+01  0.8000E+01
    -11.404  0.0000E+00  0.0000E+00  0.8000E+01  0.8000E+01
    -11.239  0.0000E+00  0.0000E+00  0.8000E+01  0.8000E+01
    -11.075  0.0000E+00  0.0000E+00  0.8000E+01  0.8000E+01
    -10.910  0.0000E+00  0.0000E+00  0.8000E+01  0.8000E+01
    -10.746  0.0000E+00  0.0000E+00  0.8000E+01  0.8000E+01
    -10.581  0.0000E+00  0.0000E+00  0.8000E+01  0.8000E+01
    -10.417  0.0000E+00  0.0000E+00  0.8000E+01  0.8000E+01
    -10.252  0.0000E+00  0.0000E+00  0.8000E+01  0.8000E+01
    -10.088  0.0000E+00  0.0000E+00  0.8000E+01  0.8000E+01
     -9.923  0.0000E+00  0.0000E+00  0.8000E+01  0.8000E+01
     -9.758  0.0000E+00  0.0000E+00  0.8000E+01  0.8000E+01
     -9.594  0.0000E+00  0.0000E+00  0.8000E+01  0.8000E+01
     -9.429  0.0000E+00  0.0000E+00  0.8000E+01  0.8000E+01
     -9.265  0.0000E+00  0.0000E+00  0.8000E+01  0.8000E+01
     -9.100  0.0000E+00  0.0000E+00  0.8000E+01  0.8000E+01
     -8.936  0.0000E+00  0.0000E+00  0.8000E+01  0.8000E+01
     -8.771  0.0000E+00  0.0000E+00  0.8000E+01  0.8000E+01
     -8.607  0.0000E+00  0.0000E+00  0.8000E+01  0.8000E+01
     -8.442  0.0000E+00  0.0000E+00  0.8000E+01  0.8000E+01
     -8.278  0.0000E+00  0.0000E+00  0.8000E+01  0.8000E+01
     -8.113  0.0000E+00  0.0000E+00  0.8000E+01  0.8000E+01
     -7.949  0.0000E+00  0.0000E+00  0.8000E+01  0.8000E+01
     -7.784  0.0000E+00  0.0000E+00  0.8000E+01  0.8000E+01
     -7.620  0.0000E+00  0.0000E+00  0.8000E+01  0.8000E+01
     -7.455  0.0000E+00  0.0000E+00  0.8000E+01  0.8000E+01
     -7.290  0.0000E+00  0.0000E+00  0.8000E+01  0.8000E+01
     -7.126  0.0000E+00  0.0000E+00  0.8000E+01  0.8000E+01
     -6.961  0.0000E+00  0.0000E+00  0.8000E+01  0.8000E+01
     -6.797  0.0000E+00  0.0000E+00  0.8000E+01  0.8000E+01
     -6.632  0.0000E+00  0.0000E+00  0.8000E+01  0.8000E+01
     -6.468  0.0000E+00  0.0000E+00  0.8000E+01  0.8000E+01
     -6.303  0.0000E+00  0.0000E+00  0.8000E+01  0.8000E+01
     -6.139  0.0000E+00  0.0000E+00  0.8000E+01  0.8000E+01
     -5.974  0.0000E+00  0.0000E+00  0.8000E+01  0.8000E+01
     -5.810  0.0000E+00  0.0000E+00  0.8000E+01  0.8000E+01
     -5.645  0.0000E+00  0.0000E+00  0.8000E+01  0.8000E+01
     -5.481  0.0000E+00  0.0000E+00  0.8000E+01  0.8000E+01
     -5.316  0.0000E+00  0.0000E+00  0.8000E+01  0.8000E+01
     -5.152  0.0000E+00  0.0000E+00  0.8000E+01  0.8000E+01
     -4.987  0.0000E+00  0.0000E+00  0.8000E+01  0.8000E+01
     -4.822  0.0000E+00  0.0000E+00  0.8000E+01  0.8000E+01
     -4.658  0.0000E+00  0.0000E+00  0.8000E+01  0.8000E+01
     -4.493  0.0000E+00  0.0000E+00  0.8000E+01  0.8000E+01
     -4.329  0.1292E-04  0.1259E-04  0.8000E+01  0.8000E+01
     -4.164  0.3793E-03  0.3697E-03  0.8000E+01  0.8000E+01
     -4.000  0.9453E-02  0.9231E-02  0.8002E+01  0.8002E+01
     -3.835  0.1092E+00  0.1078E+00  0.8020E+01  0.8019E+01
     -3.671  0.3078E+00  0.3065E+00  0.8070E+01  0.8070E+01
     -3.506  0.4552E+00  0.4542E+00  0.8145E+01  0.8144E+01
     -3.342  0.5578E+00  0.5572E+00  0.8237E+01  0.8236E+01
     -3.177  0.6780E+00  0.6771E+00  0.8349E+01  0.8348E+01
     -3.013  0.7419E+00  0.7412E+00  0.8471E+01  0.8470E+01
     -2.848  0.8745E+00  0.8741E+00  0.8615E+01  0.8614E+01
     -2.684  0.9656E+00  0.9653E+00  0.8775E+01  0.8773E+01
     -2.519  0.1059E+01  0.1057E+01  0.8949E+01  0.8948E+01
     -2.354  0.1130E+01  0.1131E+01  0.9135E+01  0.9134E+01
     -2.190  0.1171E+01  0.1171E+01  0.9328E+01  0.9327E+01
     -2.025  0.1188E+01  0.1188E+01  0.9524E+01  0.9523E+01
     -1.861  0.9857E+00  0.9877E+00  0.9687E+01  0.9686E+01
     -1.696  0.1003E+01  0.1000E+01  0.9853E+01  0.9851E+01
     -1.532  0.1374E+01  0.1372E+01  0.1008E+02  0.1008E+02
     -1.367  0.1485E+01  0.1485E+01  0.1032E+02  0.1032E+02
     -1.203  0.1427E+01  0.1428E+01  0.1056E+02  0.1056E+02
     -1.038  0.1424E+01  0.1424E+01  0.1079E+02  0.1079E+02
     -0.874  0.1262E+01  0.1263E+01  0.1100E+02  0.1100E+02
     -0.709  0.1253E+01  0.1253E+01  0.1121E+02  0.1121E+02
     -0.545  0.1555E+01  0.1552E+01  0.1147E+02  0.1146E+02
     -0.380  0.1693E+01  0.1692E+01  0.1174E+02  0.1174E+02
     -0.216  0.1658E+01  0.1659E+01  0.1202E+02  0.1202E+02
     -0.051  0.1703E+01  0.1703E+01  0.1230E+02  0.1230E+02
      0.114  0.1566E+01  0.1566E+01  0.1256E+02  0.1256E+02
      0.278  0.1517E+01  0.1519E+01  0.1281E+02  0.1281E+02
      0.443  0.1172E+01  0.1173E+01  0.1300E+02  0.1300E+02
      0.607  0.1539E+01  0.1536E+01  0.1326E+02  0.1325E+02
      0.772  0.1241E+01  0.1246E+01  0.1346E+02  0.1346E+02
      0.936  0.9482E+00  0.9472E+00  0.1362E+02  0.1362E+02
      1.101  0.1183E+01  0.1182E+01  0.1381E+02  0.1381E+02
      1.265  0.1172E+01  0.1172E+01  0.1401E+02  0.1400E+02
      1.430  0.1245E+01  0.1246E+01  0.1421E+02  0.1421E+02
      1.594  0.1264E+01  0.1261E+01  0.1442E+02  0.1442E+02
      1.759  0.1803E+01  0.1799E+01  0.1472E+02  0.1471E+02
      1.923  0.2187E+01  0.2186E+01  0.1508E+02  0.1507E+02
      2.088  0.2021E+01  0.2022E+01  0.1541E+02  0.1541E+02
      2.252  0.2012E+01  0.2010E+01  0.1574E+02  0.1574E+02
      2.417  0.2307E+01  0.2306E+01  0.1612E+02  0.1612E+02
      2.582  0.2393E+01  0.2391E+01  0.1652E+02  0.1651E+02
      2.746  0.2448E+01  0.2450E+01  0.1692E+02  0.1692E+02
      2.911  0.2664E+01  0.2661E+01  0.1736E+02  0.1736E+02
      3.075  0.2743E+01  0.2745E+01  0.1781E+02  0.1781E+02
      3.240  0.2604E+01  0.2605E+01  0.1824E+02  0.1824E+02
      3.404  0.2406E+01  0.2405E+01  0.1864E+02  0.1864E+02
      3.569  0.2525E+01  0.2527E+01  0.1906E+02  0.1905E+02
      3.733  0.2199E+01  0.2199E+01  0.1942E+02  0.1942E+02
      3.898  0.2501E+01  0.2499E+01  0.1983E+02  0.1983E+02
      4.062  0.2601E+01  0.2601E+01  0.2026E+02  0.2026E+02
      4.227  0.2567E+01  0.2569E+01  0.2069E+02  0.2068E+02
      4.391  0.2135E+01  0.2142E+01  0.2104E+02  0.2103E+02
      4.556  0.2034E+01  0.2032E+01  0.2137E+02  0.2137E+02
      4.720  0.2244E+01  0.2244E+01  0.2174E+02  0.2174E+02
      4.885  0.2078E+01  0.2079E+01  0.2209E+02  0.2208E+02
      5.050  0.2270E+01  0.2267E+01  0.2246E+02  0.2246E+02
      5.214  0.2768E+01  0.2765E+01  0.2292E+02  0.2291E+02
      5.379  0.2595E+01  0.2598E+01  0.2335E+02  0.2334E+02
      5.543  0.2805E+01  0.2800E+01  0.2381E+02  0.2380E+02
      5.708  0.3719E+01  0.3713E+01  0.2442E+02  0.2442E+02
      5.872  0.4297E+01  0.4294E+01  0.2513E+02  0.2512E+02
      6.037  0.3626E+01  0.3614E+01  0.2573E+02  0.2572E+02
      6.201  0.3140E+01  0.3094E+01  0.2625E+02  0.2623E+02
      6.366  0.3194E+01  0.3171E+01  0.2677E+02  0.2675E+02
      6.530  0.2722E+01  0.2611E+01  0.2722E+02  0.2718E+02
      6.695  0.1709E+01  0.1720E+01  0.2750E+02  0.2747E+02
      6.859  0.1198E+01  0.1286E+01  0.2770E+02  0.2768E+02
      7.024  0.9508E+00  0.1078E+01  0.2786E+02  0.2786E+02
      7.188  0.6020E+00  0.5919E+00  0.2796E+02  0.2796E+02
      7.353  0.2258E+00  0.2325E+00  0.2800E+02  0.2800E+02
      7.518  0.1640E-01  0.1961E-01  0.2800E+02  0.2800E+02
      7.682  0.0000E+00  0.0000E+00  0.2800E+02  0.2800E+02
      7.847  0.0000E+00  0.0000E+00  0.2800E+02  0.2800E+02
      8.011  0.0000E+00  0.0000E+00  0.2800E+02  0.2800E+02
      8.176  0.0000E+00  0.0000E+00  0.2800E+02  0.2800E+02
      8.340  0.0000E+00  0.0000E+00  0.2800E+02  0.2800E+02
      8.505  0.0000E+00  0.0000E+00  0.2800E+02  0.2800E+02
      8.669  0.0000E+00  0.0000E+00  0.2800E+02  0.2800E+02
      8.834  0.0000E+00  0.0000E+00  0.2800E+02  0.2800E+02
      8.998  0.0000E+00  0.0000E+00  0.2800E+02  0.2800E+02
      9.163  0.0000E+00  0.0000E+00  0.2800E+02  0.2800E+02
      9.327  0.0000E+00  0.0000E+00  0.2800E+02  0.2800E+02
      9.492  0.0000E+00  0.0000E+00  0.2800E+02  0.2800E+02
      9.49190486    -39.86802647  301      3.54468724      1.00000000
    -39.868  0.0000E+00  0.0000E+00  0.0000E+00  0.0000E+00  0.0000E+00  0.0000E+00  0.0000E+00  0.0000E+00  0.0000E+00  0.0000E+00  0.0000E+00  0.0000E+00  0.0000E+00  0.0000E+00  0.0000E+00  0.0000E+00  0.0000E+00  0.0000E+00
    -39.703  0.0000E+00  0.0000E+00  0.0000E+00  0.0000E+00  0.0000E+00  0.0000E+00  0.0000E+00  0.0000E+00  0.0000E+00  0.0000E+00  0.0000E+00  0.0000E+00  0.0000E+00  0.0000E+00  0.0000E+00  0.0000E+00  0.0000E+00  0.0000E+00
    -39.539  0.0000E+00  0.0000E+00  0.0000E+00  0.0000E+00  0.0000E+00  0.0000E+00  0.0000E+00  0.0000E+00  0.0000E+00  0.0000E+00  0.0000E+00  0.0000E+00  0.0000E+00  0.0000E+00  0.0000E+00  0.0000E+00  0.0000E+00  0.0000E+00
    -39.374  0.0000E+00  0.0000E+00  0.0000E+00  0.0000E+00  0.0000E+00  0.0000E+00  0.0000E+00  0.0000E+00  0.0000E+00  0.0000E+00  0.0000E+00  0.0000E+00  0.0000E+00  0.0000E+00  0.0000E+00  0.0000E+00  0.0000E+00  0.0000E+00
    -39.210  0.0000E+00  0.0000E+00  0.0000E+00  0.0000E+00  0.0000E+00  0.0000E+00  0.0000E+00  0.0000E+00  0.0000E+00  0.0000E+00  0.0000E+00  0.0000E+00  0.0000E+00  0.0000E+00  0.0000E+00  0.0000E+00  0.0000E+00  0.0000E+00
    -39.045  0.0000E+00  0.0000E+00  0.0000E+00  0.0000E+00  0.0000E+00  0.0000E+00  0.0000E+00  0.0000E+00  0.0000E+00  0.0000E+00  0.0000E+00  0.0000E+00  0.0000E+00  0.0000E+00  0.0000E+00  0.0000E+00  0.0000E+00  0.0000E+00
    -38.881  0.0000E+00  0.0000E+00  0.0000E+00  0.0000E+00  0.0000E+00  0.0000E+00  0.0000E+00  0.0000E+00  0.0000E+00  0.0000E+00  0.0000E+00  0.0000E+00  0.0000E+00  0.0000E+00  0.0000E+00  0.0000E+00  0.0000E+00  0.0000E+00
    -38.716  0.0000E+00  0.0000E+00  0.0000E+00  0.0000E+00  0.0000E+00  0.0000E+00  0.0000E+00  0.0000E+00  0.0000E+00  0.0000E+00  0.0000E+00  0.0000E+00  0.0000E+00  0.0000E+00  0.0000E+00  0.0000E+00  0.0000E+00  0.0000E+00
    -38.552  0.0000E+00  0.0000E+00  0.0000E+00  0.0000E+00  0.0000E+00  0.0000E+00  0.0000E+00  0.0000E+00  0.0000E+00  0.0000E+00  0.0000E+00  0.0000E+00  0.0000E+00  0.0000E+00  0.0000E+00  0.0000E+00  0.0000E+00  0.0000E+00
    -38.387  0.0000E+00  0.0000E+00  0.0000E+00  0.0000E+00  0.0000E+00  0.0000E+00  0.0000E+00  0.0000E+00  0.0000E+00  0.0000E+00  0.0000E+00  0.0000E+00  0.0000E+00  0.0000E+00  0.0000E+00  0.0000E+00  0.0000E+00  0.0000E+00
    -38.223  0.0000E+00  0.0000E+00  0.0000E+00  0.0000E+00  0.0000E+00  0.0000E+00  0.0000E+00  0.0000E+00  0.0000E+00  0.0000E+00  0.0000E+00  0.0000E+00  0.0000E+00  0.0000E+00  0.0000E+00  0.0000E+00  0.0000E+00  0.0000E+00
    -38.058  0.1017E-02  0.1015E-02  0.1397E-12  0.1384E-12  0.9690E-14  0.3282E-14  0.1397E-12  0.1384E-12  0.1045E-14  0.3542E-15  0.6765E-15  0.2350E-15  0.1719E-09  0.1717E-09  0.6765E-15  0.2350E-15  0.7531E-13  0.7986E-13
    -37.894  0.2617E-01  0.2612E-01  0.3597E-11  0.3564E-11  0.2494E-12  0.8450E-13  0.3597E-11  0.3564E-11  0.2691E-13  0.9119E-14  0.1742E-13  0.6050E-14  0.4425E-08  0.4420E-08  0.1742E-13  0.6050E-14  0.1939E-11  0.2056E-11
    -37.729  0.6264E+00  0.6253E+00  0.8610E-10  0.8533E-10  0.5970E-11  0.2022E-11  0.8610E-10  0.8533E-10  0.6442E-12  0.2183E-12  0.4169E-12  0.1449E-12  0.1059E-06  0.1058E-06  0.4169E-12  0.1449E-12  0.4641E-10  0.4922E-10
    -37.565  0.3942E+01  0.3941E+01  0.5417E-09  0.5377E-09  0.3752E-10  0.1273E-10  0.5417E-09  0.5377E-09  0.4056E-11  0.1377E-11  0.2627E-11  0.9132E-12  0.6665E-06  0.6668E-06  0.2627E-11  0.9132E-12  0.2920E-09  0.3102E-09
    -37.400  0.1330E+01  0.1332E+01  0.1829E-09  0.1818E-09  0.1265E-10  0.4296E-11  0.1829E-09  0.1818E-09  0.1370E-11  0.4657E-12  0.8880E-12  0.3089E-12  0.2250E-06  0.2255E-06  0.8880E-12  0.3089E-12  0.9858E-10  0.1049E-09
    -37.235  0.6457E-01  0.6469E-01  0.8874E-11  0.8826E-11  0.6137E-12  0.2085E-12  0.8874E-11  0.8826E-11  0.6649E-13  0.2261E-13  0.4311E-13  0.1500E-13  0.1092E-07  0.1095E-07  0.4311E-13  0.1500E-13  0.4784E-11  0.5092E-11
    -37.071  0.0000E+00  0.0000E+00  0.0000E+00  0.0000E+00  0.0000E+00  0.0000E+00  0.0000E+00  0.0000E+00  0.0000E+00  0.0000E+00  0.0000E+00  0.0000E+00  0.0000E+00  0.0000E+00  0.0000E+00  0.0000E+00  0.0000E+00  0.0000E+00
    -36.906  0.0000E+00  0.0000E+00  0.0000E+00  0.0000E+00  0.0000E+00  0.0000E+00  0.0000E+00  0.0000E+00  0.0000E+00  0.0000E+00  0.0000E+00  0.0000E+00  0.0000E+00  0.0000E+00  0.0000E+00  0.0000E+00  0.0000E+00  0.0000E+00
    -36.742  0.0000E+00  0.0000E+00  0.0000E+00  0.0000E+00  0.0000E+00  0.0000E+00  0.0000E+00  0.0000E+00  0.0000E+00  0.0000E+00  0.0000E+00  0.0000E+00  0.0000E+00  0.0000E+00  0.0000E+00  0.0000E+00  0.0000E+00  0.0000E+00
    -36.577  0.0000E+00  0.0000E+00  0.0000E+00  0.0000E+00  0.0000E+00  0.0000E+00  0.0000E+00  0.0000E+00  0.0000E+00  0.0000E+00  0.0000E+00  0.0000E+00  0.0000E+00  0.0000E+00  0.0000E+00  0.0000E+00  0.0000E+00  0.0000E+00
    -36.413  0.0000E+00  0.0000E+00  0.0000E+00  0.0000E+00  0.0000E+00  0.0000E+00  0.0000E+00  0.0000E+00  0.0000E+00  0.0000E+00  0.0000E+00  0.0000E+00  0.0000E+00  0.0000E+00  0.0000E+00  0.0000E+00  0.0000E+00  0.0000E+00
    -36.248  0.0000E+00  0.0000E+00  0.0000E+00  0.0000E+00  0.0000E+00  0.0000E+00  0.0000E+00  0.0000E+00  0.0000E+00  0.0000E+00  0.0000E+00  0.0000E+00  0.0000E+00  0.0000E+00  0.0000E+00  0.0000E+00  0.0000E+00  0.0000E+00
    -36.084  0.0000E+00  0.0000E+00  0.0000E+00  0.0000E+00  0.0000E+00  0.0000E+00  0.0000E+00  0.0000E+00  0.0000E+00  0.0000E+00  0.0000E+00  0.0000E+00  0.0000E+00  0.0000E+00  0.0000E+00  0.0000E+00  0.0000E+00  0.0000E+00
    -35.919  0.0000E+00  0.0000E+00  0.0000E+00  0.0000E+00  0.0000E+00  0.0000E+00  0.0000E+00  0.0000E+00  0.0000E+00  0.0000E+00  0.0000E+00  0.0000E+00  0.0000E+00  0.0000E+00  0.0000E+00  0.0000E+00  0.0000E+00  0.0000E+00
    -35.755  0.0000E+00  0.0000E+00  0.0000E+00  0.0000E+00  0.0000E+00  0.0000E+00  0.0000E+00  0.0000E+00  0.0000E+00  0.0000E+00  0.0000E+00  0.0000E+00  0.0000E+00  0.0000E+00  0.0000E+00  0.0000E+00  0.0000E+00  0.0000E+00
    -35.590  0.0000E+00  0.0000E+00  0.0000E+00  0.0000E+00  0.0000E+00  0.0000E+00  0.0000E+00  0.0000E+00  0.0000E+00  0.0000E+00  0.0000E+00  0.0000E+00  0.0000E+00  0.0000E+00  0.0000E+00  0.0000E+00  0.0000E+00  0.0000E+00
    -35.426  0.0000E+00  0.0000E+00  0.0000E+00  0.0000E+00  0.0000E+00  0.0000E+00  0.0000E+00  0.0000E+00  0.0000E+00  0.0000E+00  0.0000E+00  0.0000E+00  0.0000E+00  0.0000E+00  0.0000E+00  0.0000E+00  0.0000E+00  0.0000E+00
    -35.261  0.0000E+00  0.0000E+00  0.0000E+00  0.0000E+00  0.0000E+00  0.0000E+00  0.0000E+00  0.0000E+00  0.0000E+00  0.0000E+00  0.0000E+00  0.0000E+00  0.0000E+00  0.0000E+00  0.0000E+00  0.0000E+00  0.0000E+00  0.0000E+00
    -35.097  0.0000E+00  0.0000E+00  0.0000E+00  0.0000E+00  0.0000E+00  0.0000E+00  0.0000E+00  0.0000E+00  0.0000E+00  0.0000E+00  0.0000E+00  0.0000E+00  0.0000E+00  0.0000E+00  0.0000E+00  0.0000E+00  0.0000E+00  0.0000E+00
    -34.932  0.0000E+00  0.0000E+00  0.0000E+00  0.0000E+00  0.0000E+00  0.0000E+00  0.0000E+00  0.0000E+00  0.0000E+00  0.0000E+00  0.0000E+00  0.0000E+00  0.0000E+00  0.0000E+00  0.0000E+00  0.0000E+00  0.0000E+00  0.0000E+00
    -34.768  0.0000E+00  0.0000E+00  0.0000E+00  0.0000E+00  0.0000E+00  0.0000E+00  0.0000E+00  0.0000E+00  0.0000E+00  0.0000E+00  0.0000E+00  0.0000E+00  0.0000E+00  0.0000E+00  0.0000E+00  0.0000E+00  0.0000E+00  0.0000E+00
    -34.603  0.0000E+00  0.0000E+00  0.0000E+00  0.0000E+00  0.0000E+00  0.0000E+00  0.0000E+00  0.0000E+00  0.0000E+00  0.0000E+00  0.0000E+00  0.0000E+00  0.0000E+00  0.0000E+00  0.0000E+00  0.0000E+00  0.0000E+00  0.0000E+00
    -34.438  0.0000E+00  0.0000E+00  0.0000E+00  0.0000E+00  0.0000E+00  0.0000E+00  0.0000E+00  0.0000E+00  0.0000E+00  0.0000E+00  0.0000E+00  0.0000E+00  0.0000E+00  0.0000E+00  0.0000E+00  0.0000E+00  0.0000E+00  0.0000E+00
    -34.274  0.0000E+00  0.0000E+00  0.0000E+00  0.0000E+00  0.0000E+00  0.0000E+00  0.0000E+00  0.0000E+00  0.0000E+00  0.0000E+00  0.0000E+00  0.0000E+00  0.0000E+00  0.0000E+00  0.0000E+00  0.0000E+00  0.0000E+00  0.0000E+00
    -34.109  0.0000E+00  0.0000E+00  0.0000E+00  0.0000E+00  0.0000E+00  0.0000E+00  0.0000E+00  0.0000E+00  0.0000E+00  0.0000E+00  0.0000E+00  0.0000E+00  0.0000E+00  0.0000E+00  0.0000E+00  0.0000E+00  0.0000E+00  0.0000E+00
    -33.945  0.0000E+00  0.0000E+00  0.0000E+00  0.0000E+00  0.0000E+00  0.0000E+00  0.0000E+00  0.0000E+00  0.0000E+00  0.0000E+00  0.0000E+00  0.0000E+00  0.0000E+00  0.0000E+00  0.0000E+00  0.0000E+00  0.0000E+00  0.0000E+00
    -33.780  0.0000E+00  0.0000E+00  0.0000E+00  0.0000E+00  0.0000E+00  0.0000E+00  0.0000E+00  0.0000E+00  0.0000E+00  0.0000E+00  0.0000E+00  0.0000E+00  0.0000E+00  0.0000E+00  0.0000E+00  0.0000E+00  0.0000E+00  0.0000E+00
    -33.616  0.0000E+00  0.0000E+00  0.0000E+00  0.0000E+00  0.0000E+00  0.0000E+00  0.0000E+00  0.0000E+00  0.0000E+00  0.0000E+00  0.0000E+00  0.0000E+00  0.0000E+00  0.0000E+00  0.0000E+00  0.0000E+00  0.0000E+00  0.0000E+00
    -33.451  0.0000E+00  0.0000E+00  0.0000E+00  0.0000E+00  0.0000E+00  0.0000E+00  0.0000E+00  0.0000E+00  0.0000E+00  0.0000E+00  0.0000E+00  0.0000E+00  0.0000E+00  0.0000E+00  0.0000E+00  0.0000E+00  0.0000E+00  0.0000E+00
    -33.287  0.0000E+00  0.0000E+00  0.0000E+00  0.0000E+00  0.0000E+00  0.0000E+00  0.0000E+00  0.0000E+00  0.0000E+00  0.0000E+00  0.0000E+00  0.0000E+00  0.0000E+00  0.0000E+00  0.0000E+00  0.0000E+00  0.0000E+00  0.0000E+00
    -33.122  0.0000E+00  0.0000E+00  0.0000E+00  0.0000E+00  0.0000E+00  0.0000E+00  0.0000E+00  0.0000E+00  0.0000E+00  0.0000E+00  0.0000E+00  0.0000E+00  0.0000E+00  0.0000E+00  0.0000E+00  0.0000E+00  0.0000E+00  0.0000E+00
    -32.958  0.0000E+00  0.0000E+00  0.0000E+00  0.0000E+00  0.0000E+00  0.0000E+00  0.0000E+00  0.0000E+00  0.0000E+00  0.0000E+00  0.0000E+00  0.0000E+00  0.0000E+00  0.0000E+00  0.0000E+00  0.0000E+00  0.0000E+00  0.0000E+00
    -32.793  0.0000E+00  0.0000E+00  0.0000E+00  0.0000E+00  0.0000E+00  0.0000E+00  0.0000E+00  0.0000E+00  0.0000E+00  0.0000E+00  0.0000E+00  0.0000E+00  0.0000E+00  0.0000E+00  0.0000E+00  0.0000E+00  0.0000E+00  0.0000E+00
    -32.629  0.0000E+00  0.0000E+00  0.0000E+00  0.0000E+00  0.0000E+00  0.0000E+00  0.0000E+00  0.0000E+00  0.0000E+00  0.0000E+00  0.0000E+00  0.0000E+00  0.0000E+00  0.0000E+00  0.0000E+00  0.0000E+00  0.0000E+00  0.0000E+00
    -32.464  0.0000E+00  0.0000E+00  0.0000E+00  0.0000E+00  0.0000E+00  0.0000E+00  0.0000E+00  0.0000E+00  0.0000E+00  0.0000E+00  0.0000E+00  0.0000E+00  0.0000E+00  0.0000E+00  0.0000E+00  0.0000E+00  0.0000E+00  0.0000E+00
    -32.300  0.0000E+00  0.0000E+00  0.0000E+00  0.0000E+00  0.0000E+00  0.0000E+00  0.0000E+00  0.0000E+00  0.0000E+00  0.0000E+00  0.0000E+00  0.0000E+00  0.0000E+00  0.0000E+00  0.0000E+00  0.0000E+00  0.0000E+00  0.0000E+00
    -32.135  0.0000E+00  0.0000E+00  0.0000E+00  0.0000E+00  0.0000E+00  0.0000E+00  0.0000E+00  0.0000E+00  0.0000E+00  0.0000E+00  0.0000E+00  0.0000E+00  0.0000E+00  0.0000E+00  0.0000E+00  0.0000E+00  0.0000E+00  0.0000E+00
    -31.970  0.0000E+00  0.0000E+00  0.0000E+00  0.0000E+00  0.0000E+00  0.0000E+00  0.0000E+00  0.0000E+00  0.0000E+00  0.0000E+00  0.0000E+00  0.0000E+00  0.0000E+00  0.0000E+00  0.0000E+00  0.0000E+00  0.0000E+00  0.0000E+00
    -31.806  0.0000E+00  0.0000E+00  0.0000E+00  0.0000E+00  0.0000E+00  0.0000E+00  0.0000E+00  0.0000E+00  0.0000E+00  0.0000E+00  0.0000E+00  0.0000E+00  0.0000E+00  0.0000E+00  0.0000E+00  0.0000E+00  0.0000E+00  0.0000E+00
    -31.641  0.0000E+00  0.0000E+00  0.0000E+00  0.0000E+00  0.0000E+00  0.0000E+00  0.0000E+00  0.0000E+00  0.0000E+00  0.0000E+00  0.0000E+00  0.0000E+00  0.0000E+00  0.0000E+00  0.0000E+00  0.0000E+00  0.0000E+00  0.0000E+00