   8   8   1   0
  0.2672642E+02  0.4716985E-09  0.4716985E-09  0.9609525E-09  0.5000000E-15
  1.000000000000000E-004
  CAR 
 unknown system                          
      9.76418380    -39.59794660  301      3.71681322      1.00000000
    -39.598  0.0000E+00  0.0000E+00  0.0000E+00  0.0000E+00
    -39.433  0.0000E+00  0.0000E+00  0.0000E+00  0.0000E+00
    -39.269  0.0000E+00  0.0000E+00  0.0000E+00  0.0000E+00
    -39.104  0.0000E+00  0.0000E+00  0.0000E+00  0.0000E+00
    -38.940  0.0000E+00  0.0000E+00  0.0000E+00  0.0000E+00
    -38.775  0.0000E+00  0.0000E+00  0.0000E+00  0.0000E+00
    -38.611  0.0000E+00  0.0000E+00  0.0000E+00  0.0000E+00
    -38.446  0.0000E+00  0.0000E+00  0.0000E+00  0.0000E+00
    -38.282  0.0000E+00  0.0000E+00  0.0000E+00  0.0000E+00
    -38.117  0.0000E+00  0.0000E+00  0.0000E+00  0.0000E+00
    -37.953  0.0000E+00  0.0000E+00  0.0000E+00  0.0000E+00
    -37.788  0.2059E-02  0.2056E-02  0.3387E-03  0.3383E-03
    -37.623  0.5300E-01  0.5294E-01  0.9060E-02  0.9049E-02
    -37.459  0.1269E+01  0.1268E+01  0.2179E+00  0.2176E+00
    -37.294  0.7994E+01  0.7993E+01  0.1533E+01  0.1533E+01
    -37.130  0.2701E+01  0.2703E+01  0.1978E+01  0.1978E+01
    -36.965  0.1311E+00  0.1313E+00  0.1999E+01  0.1999E+01
    -36.801  0.0000E+00  0.0000E+00  0.2000E+01  0.2000E+01
    -36.636  0.0000E+00  0.0000E+00  0.2000E+01  0.2000E+01
    -36.472  0.0000E+00  0.0000E+00  0.2000E+01  0.2000E+01
    -36.307  0.0000E+00  0.0000E+00  0.2000E+01  0.2000E+01
    -36.143  0.0000E+00  0.0000E+00  0.2000E+01  0.2000E+01
    -35.978  0.0000E+00  0.0000E+00  0.2000E+01  0.2000E+01
    -35.814  0.0000E+00  0.0000E+00  0.2000E+01  0.2000E+01
    -35.649  0.0000E+00  0.0000E+00  0.2000E+01  0.2000E+01
    -35.484  0.0000E+00  0.0000E+00  0.2000E+01  0.2000E+01
    -35.320  0.0000E+00  0.0000E+00  0.2000E+01  0.2000E+01
    -35.155  0.0000E+00  0.0000E+00  0.2000E+01  0.2000E+01
    -34.991  0.0000E+00  0.0000E+00  0.2000E+01  0.2000E+01
    -34.826  0.0000E+00  0.0000E+00  0.2000E+01  0.2000E+01
    -34.662  0.0000E+00  0.0000E+00  0.2000E+01  0.2000E+01
    -34.497  0.0000E+00  0.0000E+00  0.2000E+01  0.2000E+01
    -34.333  0.0000E+00  0.0000E+00  0.2000E+01  0.2000E+01
    -34.168  0.0000E+00  0.0000E+00  0.2000E+01  0.2000E+01
    -34.004  0.0000E+00  0.0000E+00  0.2000E+01  0.2000E+01
    -33.839  0.0000E+00  0.0000E+00  0.2000E+01  0.2000E+01
    -33.674  0.0000E+00  0.0000E+00  0.2000E+01  0.2000E+01
    -33.510  0.0000E+00  0.0000E+00  0.2000E+01  0.2000E+01
    -33.345  0.0000E+00  0.0000E+00  0.2000E+01  0.2000E+01
    -33.181  0.0000E+00  0.0000E+00  0.2000E+01  0.2000E+01
    -33.016  0.0000E+00  0.0000E+00  0.2000E+01  0.2000E+01
    -32.852  0.0000E+00  0.0000E+00  0.2000E+01  0.2000E+01
    -32.687  0.0000E+00  0.0000E+00  0.2000E+01  0.2000E+01
    -32.523  0.0000E+00  0.0000E+00  0.2000E+01  0.2000E+01
    -32.358  0.0000E+00  0.0000E+00  0.2000E+01  0.2000E+01
    -32.194  0.0000E+00  0.0000E+00  0.2000E+01  0.2000E+01
    -32.029  0.0000E+00  0.0000E+00  0.2000E+01  0.2000E+01
    -31.865  0.0000E+00  0.0000E+00  0.2000E+01  0.2000E+01
    -31.700  0.0000E+00  0.0000E+00  0.2000E+01  0.2000E+01
    -31.535  0.0000E+00  0.0000E+00  0.2000E+01  0.2000E+01
    -31.371  0.0000E+00  0.0000E+00  0.2000E+01  0.2000E+01
    -31.206  0.0000E+00  0.0000E+00  0.2000E+01  0.2000E+01
    -31.042  0.0000E+00  0.0000E+00  0.2000E+01  0.2000E+01
    -30.877  0.0000E+00  0.0000E+00  0.2000E+01  0.2000E+01
    -30.713  0.0000E+00  0.0000E+00  0.2000E+01  0.2000E+01
    -30.548  0.0000E+00  0.0000E+00  0.2000E+01  0.2000E+01
    -30.384  0.0000E+00  0.0000E+00  0.2000E+01  0.2000E+01
    -30.219  0.0000E+00  0.0000E+00  0.2000E+01  0.2000E+01
    -30.055  0.0000E+00  0.0000E+00  0.2000E+01  0.2000E+01
    -29.890  0.0000E+00  0.0000E+00  0.2000E+01  0.2000E+01
    -29.726  0.0000E+00  0.0000E+00  0.2000E+01  0.2000E+01
    -29.561  0.0000E+00  0.0000E+00  0.2000E+01  0.2000E+01
    -29.396  0.0000E+00  0.0000E+00  0.2000E+01  0.2000E+01
    -29.232  0.0000E+00  0.0000E+00  0.2000E+01  0.2000E+01
    -29.067  0.0000E+00  0.0000E+00  0.2000E+01  0.2000E+01
    -28.903  0.0000E+00  0.0000E+00  0.2000E+01  0.2000E+01
    -28.738  0.0000E+00  0.0000E+00  0.2000E+01  0.2000E+01
    -28.574  0.0000E+00  0.0000E+00  0.2000E+01  0.2000E+01
    -28.409  0.0000E+00  0.0000E+00  0.2000E+01  0.2000E+01
    -28.245  0.0000E+00  0.0000E+00  0.2000E+01  0.2000E+01
    -28.080  0.0000E+00  0.0000E+00  0.2000E+01  0.2000E+01
    -27.916  0.0000E+00  0.0000E+00  0.2000E+01  0.2000E+01
    -27.751  0.0000E+00  0.0000E+00  0.2000E+01  0.2000E+01
    -27.586  0.0000E+00  0.0000E+00  0.2000E+01  0.2000E+01
    -27.422  0.0000E+00  0.0000E+00  0.2000E+01  0.2000E+01
    -27.257  0.0000E+00  0.0000E+00  0.2000E+01  0.2000E+01
    -27.093  0.0000E+00  0.0000E+00  0.2000E+01  0.2000E+01
    -26.928  0.0000E+00  0.0000E+00  0.2000E+01  0.2000E+01
    -26.764  0.0000E+00  0.0000E+00  0.2000E+01  0.2000E+01
    -26.599  0.0000E+00  0.0000E+00  0.2000E+01  0.2000E+01
    -26.435  0.0000E+00  0.0000E+00  0.2000E+01  0.2000E+01
    -26.270  0.0000E+00  0.0000E+00  0.2000E+01  0.2000E+01
    -26.106  0.0000E+00  0.0000E+00  0.2000E+01  0.2000E+01
    -25.941  0.0000E+00  0.0000E+00  0.2000E+01  0.2000E+01
    -25.777  0.0000E+00  0.0000E+00  0.2000E+01  0.2000E+01
    -25.612  0.0000E+00  0.0000E+00  0.2000E+01  0.2000E+01
    -25.447  0.0000E+00  0.0000E+00  0.2000E+01  0.2000E+01
    -25.283  0.0000E+00  0.0000E+00  0.2000E+01  0.2000E+01
    -25.118  0.0000E+00  0.0000E+00  0.2000E+01  0.2000E+01
    -24.954  0.0000E+00  0.0000E+00  0.2000E+01  0.2000E+01
    -24.789  0.0000E+00  0.0000E+00  0.2000E+01  0.2000E+01
    -24.625  0.0000E+00  0.0000E+00  0.2000E+01  0.2000E+01
    -24.460  0.0000E+00  0.0000E+00  0.2000E+01  0.2000E+01
    -24.296  0.0000E+00  0.0000E+00  0.2000E+01  0.2000E+01
    -24.131  0.0000E+00  0.0000E+00  0.2000E+01  0.2000E+01
    -23.967  0.0000E+00  0.0000E+00  0.2000E+01  0.2000E+01
    -23.802  0.0000E+00  0.0000E+00  0.2000E+01  0.2000E+01
    -23.638  0.0000E+00  0.0000E+00  0.2000E+01  0.2000E+01
    -23.473  0.0000E+00  0.0000E+00  0.2000E+01  0.2000E+01
    -23.308  0.0000E+00  0.0000E+00  0.2000E+01  0.2000E+01
    -23.144  0.0000E+00  0.0000E+00  0.2000E+01  0.2000E+01
    -22.979  0.0000E+00  0.0000E+00  0.2000E+01  0.2000E+01
    -22.815  0.0000E+00  0.0000E+00  0.2000E+01  0.2000E+01
    -22.650  0.0000E+00  0.0000E+00  0.2000E+01  0.2000E+01
    -22.486  0.0000E+00  0.0000E+00  0.2000E+01  0.2000E+01
    -22.321  0.0000E+00  0.0000E+00  0.2000E+01  0.2000E+01
    -22.157  0.0000E+00  0.0000E+00  0.2000E+01  0.2000E+01
    -21.992  0.0000E+00  0.0000E+00  0.2000E+01  0.2000E+01
    -21.828  0.0000E+00  0.0000E+00  0.2000E+01  0.2000E+01
    -21.663  0.0000E+00  0.0000E+00  0.2000E+01  0.2000E+01
    -21.498  0.0000E+00  0.0000E+00  0.2000E+01  0.2000E+01
    -21.334  0.0000E+00  0.0000E+00  0.2000E+01  0.2000E+01
    -21.169  0.0000E+00  0.0000E+00  0.2000E+01  0.2000E+01
    -21.005  0.0000E+00  0.0000E+00  0.2000E+01  0.2000E+01
    -20.840  0.0000E+00  0.0000E+00  0.2000E+01  0.2000E+01
    -20.676  0.0000E+00  0.0000E+00  0.2000E+01  0.2000E+01
    -20.511  0.0000E+00  0.0000E+00  0.2000E+01  0.2000E+01
    -20.347  0.0000E+00  0.0000E+00  0.2000E+01  0.2000E+01
    -20.182  0.0000E+00  0.0000E+00  0.2000E+01  0.2000E+01
    -20.018  0.0000E+00  0.0000E+00  0.2000E+01  0.2000E+01
    -19.853  0.0000E+00  0.0000E+00  0.2000E+01  0.2000E+01
    -19.689  0.0000E+00  0.0000E+00  0.2000E+01  0.2000E+01
    -19.524  0.0000E+00  0.0000E+00  0.2000E+01  0.2000E+01
    -19.359  0.0000E+00  0.0000E+00  0.2000E+01  0.2000E+01
    -19.195  0.0000E+00  0.0000E+00  0.2000E+01  0.2000E+01
    -19.030  0.0000E+00  0.0000E+00  0.2000E+01  0.2000E+01
    -18.866  0.2369E-02  0.2359E-02  0.2000E+01  0.2000E+01
    -18.701  0.6115E-01  0.6090E-01  0.2010E+01  0.2010E+01
    -18.537  0.1563E+01  0.1557E+01  0.2268E+01  0.2267E+01
    -18.372  0.1828E+02  0.1826E+02  0.5276E+01  0.5270E+01
    -18.208  0.1543E+02  0.1546E+02  0.7814E+01  0.7814E+01
    -18.043  0.1085E+01  0.1089E+01  0.7993E+01  0.7993E+01
    -17.879  0.0000E+00  0.0000E+00  0.8000E+01  0.8000E+01
    -17.714  0.0000E+00  0.0000E+00  0.8000E+01  0.8000E+01
    -17.550  0.0000E+00  0.0000E+00  0.8000E+01  0.8000E+01
    -17.385  0.0000E+00  0.0000E+00  0.8000E+01  0.8000E+01
    -17.220  0.0000E+00  0.0000E+00  0.8000E+01  0.8000E+01
    -17.056  0.0000E+00  0.0000E+00  0.8000E+01  0.8000E+01
    -16.891  0.0000E+00  0.0000E+00  0.8000E+01  0.8000E+01
    -16.727  0.0000E+00  0.0000E+00  0.8000E+01  0.8000E+01
    -16.562  0.0000E+00  0.0000E+00  0.8000E+01  0.8000E+01
    -16.398  0.0000E+00  0.0000E+00  0.8000E+01  0.8000E+01
    -16.233  0.0000E+00  0.0000E+00  0.8000E+01  0.8000E+01
    -16.069  0.0000E+00  0.0000E+00  0.8000E+01  0.8000E+01
    -15.904  0.0000E+00  0.0000E+00  0.8000E+01  0.8000E+01
    -15.740  0.0000E+00  0.0000E+00  0.8000E+01  0.8000E+01
    -15.575  0.0000E+00  0.0000E+00  0.8000E+01  0.8000E+01
    -15.411  0.0000E+00  0.0000E+00  0.8000E+01  0.8000E+01
    -15.246  0.0000E+00  0.0000E+00  0.8000E+01  0.8000E+01
    -15.081  0.0000E+00  0.0000E+00  0.8000E+01  0.8000E+01
    -14.917  0.0000E+00  0.0000E+00  0.8000E+01  0.8000E+01
    -14.752  0.0000E+00  0.0000E+00  0.8000E+01  0.8000E+01
    -14.588  0.0000E+00  0.0000E+00  0.8000E+01  0.8000E+01
    -14.423  0.0000E+00  0.0000E+00  0.8000E+01  0.8000E+01
    -14.259  0.0000E+00  0.0000E+00  0.8000E+01  0.8000E+01
    -14.094  0.0000E+00  0.0000E+00  0.8000E+01  0.8000E+01
    -13.930  0.0000E+00  0.0000E+00  0.8000E+01  0.8000E+01
    -13.765  0.0000E+00  0.0000E+00  0.8000E+01  0.8000E+01
    -13.601  0.0000E+00  0.0000E+00  0.8000E+01  0.8000E+01
    -13.436  0.0000E+00  0.0000E+00  0.8000E+01  0.8000E+01
    -13.271  0.0000E+00  0.0000E+00  0.8000E+01  0.8000E+01
    -13.107  0.0000E+00  0.0000E+00  0.8000E+01  0.8000E+01
    -12.942  0.0000E+00  0.0000E+00  0.8000E+01  0.8000E+01
    -12.778  0.0000E+00  0.0000E+00  0.8000E+01  0.8000E+01
    -12.613  0.0000E+00  0.0000E+00  0.8000E+01  0.8000E+01
    -12.449  0.0000E+00  0.0000E+00  0.8000E+01  0.8000E+01
    -12.284  0.0000E+00  0.0000E+00  0.8000E+01  0.8000E+01
    -12.120  0.0000E+00  0.0000E+00  0.8000E+01  0.8000E+01
    -11.955  0.0000E+00  0.0000E+00  0.8000E+01  0.8000E+01
    -11.791  0.0000E+00  0.0000E+00  0.8000E+01  0.8000E+01
    -11.626  0.0000E+00  0.0000E+00  0.8000E+01  0.8000E+01
    -11.462  0.0000E+00  0.0000E+00  0.8000E+01  0.8000E+01
    -11.297  0.0000E+00  0.0000E+00  0.8000E+01  0.8000E+01
    -11.132  0.0000E+00  0.0000E+00  0.8000E+01  0.8000E+01
    -10.968  0.0000E+00  0.0000E+00  0.8000E+01  0.8000E+01
    -10.803  0.0000E+00  0.0000E+00  0.8000E+01  0.8000E+01
    -10.639  0.0000E+00  0.0000E+00  0.8000E+01  0.8000E+01
    -10.474  0.0000E+00  0.0000E+00  0.8000E+01  0.8000E+01
    -10.310  0.0000E+00  0.0000E+00  0.8000E+01  0.8000E+01
    -10.145  0.0000E+00  0.0000E+00  0.8000E+01  0.8000E+01
     -9.981  0.0000E+00  0.0000E+00  0.8000E+01  0.8000E+01
     -9.816  0.0000E+00  0.0000E+00  0.8000E+01  0.8000E+01
     -9.652  0.0000E+00  0.0000E+00  0.8000E+01  0.8000E+01
     -9.487  0.0000E+00  0.0000E+00  0.8000E+01  0.8000E+01
     -9.323  0.0000E+00  0.0000E+00  0.8000E+01  0.8000E+01
     -9.158  0.0000E+00  0.0000E+00  0.8000E+01  0.8000E+01
     -8.993  0.0000E+00  0.0000E+00  0.8000E+01  0.8000E+01
     -8.829  0.0000E+00  0.0000E+00  0.8000E+01  0.8000E+01
     -8.664  0.0000E+00  0.0000E+00  0.8000E+01  0.8000E+01
     -8.500  0.0000E+00  0.0000E+00  0.8000E+01  0.8000E+01
     -8.335  0.0000E+00  0.0000E+00  0.8000E+01  0.8000E+01
     -8.171  0.0000E+00  0.0000E+00  0.8000E+01  0.8000E+01
     -8.006  0.0000E+00  0.0000E+00  0.8000E+01  0.8000E+01
     -7.842  0.0000E+00  0.0000E+00  0.8000E+01  0.8000E+01
     -7.677  0.0000E+00  0.0000E+00  0.8000E+01  0.8000E+01
     -7.513  0.0000E+00  0.0000E+00  0.8000E+01  0.8000E+01
     -7.348  0.0000E+00  0.0000E+00  0.8000E+01  0.8000E+01
     -7.183  0.0000E+00  0.0000E+00  0.8000E+01  0.8000E+01
     -7.019  0.0000E+00  0.0000E+00  0.8000E+01  0.8000E+01
     -6.854  0.0000E+00  0.0000E+00  0.8000E+01  0.8000E+01
     -6.690  0.0000E+00  0.0000E+00  0.8000E+01  0.8000E+01
     -6.525  0.0000E+00  0.0000E+00  0.8000E+01  0.8000E+01
     -6.361  0.0000E+00  0.0000E+00  0.8000E+01  0.8000E+01
     -6.196  0.0000E+00  0.0000E+00  0.8000E+01  0.8000E+01
     -6.032  0.0000E+00  0.0000E+00  0.8000E+01  0.8000E+01
     -5.867  0.0000E+00  0.0000E+00  0.8000E+01  0.8000E+01
     -5.703  0.0000E+00  0.0000E+00  0.8000E+01  0.8000E+01
     -5.538  0.0000E+00  0.0000E+00  0.8000E+01  0.8000E+01
     -5.374  0.0000E+00  0.0000E+00  0.8000E+01  0.8000E+01
     -5.209  0.0000E+00  0.0000E+00  0.8000E+01  0.8000E+01
     -5.044  0.0000E+00  0.0000E+00  0.8000E+01  0.8000E+01
     -4.880  0.0000E+00  0.0000E+00  0.8000E+01  0.8000E+01
     -4.715  0.0000E+00  0.0000E+00  0.8000E+01  0.8000E+01
     -4.551  0.0000E+00  0.0000E+00  0.8000E+01  0.8000E+01
     -4.386  0.6144E-06  0.6009E-06  0.8000E+01  0.8000E+01
     -4.222  0.3566E-04  0.3487E-04  0.8000E+01  0.8000E+01
     -4.057  0.9597E-03  0.9387E-03  0.8000E+01  0.8000E+01
     -3.893  0.2165E-01  0.2125E-01  0.8004E+01  0.8004E+01
     -3.728  0.1615E+00  0.1601E+00  0.8030E+01  0.8030E+01
     -3.564  0.3425E+00  0.3416E+00  0.8087E+01  0.8086E+01
     -3.399  0.4767E+00  0.4759E+00  0.8165E+01  0.8165E+01
     -3.235  0.5645E+00  0.5638E+00  0.8258E+01  0.8258E+01
     -3.070  0.6834E+00  0.6828E+00  0.8371E+01  0.8370E+01
     -2.905  0.7404E+00  0.7398E+00  0.8493E+01  0.8492E+01
     -2.741  0.8768E+00  0.8760E+00  0.8638E+01  0.8637E+01
     -2.576  0.9492E+00  0.9490E+00  0.8794E+01  0.8793E+01
     -2.412  0.1054E+01  0.1053E+01  0.8968E+01  0.8967E+01
     -2.247  0.1101E+01  0.1101E+01  0.9149E+01  0.9148E+01
     -2.083  0.1149E+01  0.1149E+01  0.9339E+01  0.9337E+01
     -1.918  0.1164E+01  0.1165E+01  0.9531E+01  0.9530E+01
     -1.754  0.9591E+00  0.9609E+00  0.9689E+01  0.9688E+01
     -1.589  0.9914E+00  0.9892E+00  0.9853E+01  0.9852E+01
     -1.425  0.1352E+01  0.1350E+01  0.1008E+02  0.1007E+02
     -1.260  0.1451E+01  0.1451E+01  0.1031E+02  0.1031E+02
     -1.095  0.1407E+01  0.1408E+01  0.1055E+02  0.1055E+02
     -0.931  0.1390E+01  0.1390E+01  0.1078E+02  0.1077E+02
     -0.766  0.1230E+01  0.1230E+01  0.1098E+02  0.1098E+02
     -0.602  0.1216E+01  0.1216E+01  0.1118E+02  0.1118E+02
     -0.437  0.1459E+01  0.1456E+01  0.1142E+02  0.1142E+02
     -0.273  0.1660E+01  0.1660E+01  0.1169E+02  0.1169E+02
     -0.108  0.1627E+01  0.1628E+01  0.1196E+02  0.1196E+02
      0.056  0.1681E+01  0.1681E+01  0.1224E+02  0.1224E+02
      0.221  0.1523E+01  0.1523E+01  0.1249E+02  0.1249E+02
      0.385  0.1542E+01  0.1543E+01  0.1275E+02  0.1274E+02
      0.550  0.1188E+01  0.1190E+01  0.1294E+02  0.1294E+02
      0.714  0.1337E+01  0.1333E+01  0.1316E+02  0.1316E+02
      0.879  0.1435E+01  0.1439E+01  0.1340E+02  0.1340E+02
      1.044  0.9424E+00  0.9429E+00  0.1355E+02  0.1355E+02
      1.208  0.1157E+01  0.1155E+01  0.1375E+02  0.1374E+02
      1.373  0.1290E+01  0.1290E+01  0.1396E+02  0.1396E+02
      1.537  0.1243E+01  0.1243E+01  0.1416E+02  0.1416E+02
      1.702  0.1264E+01  0.1262E+01  0.1437E+02  0.1437E+02
      1.866  0.1758E+01  0.1755E+01  0.1466E+02  0.1466E+02
      2.031  0.2100E+01  0.2098E+01  0.1501E+02  0.1500E+02
      2.195  0.2014E+01  0.2016E+01  0.1534E+02  0.1534E+02
      2.360  0.1938E+01  0.1938E+01  0.1566E+02  0.1566E+02
      2.524  0.2224E+01  0.2221E+01  0.1603E+02  0.1602E+02
      2.689  0.2271E+01  0.2270E+01  0.1640E+02  0.1640E+02
      2.853  0.2458E+01  0.2459E+01  0.1681E+02  0.1680E+02
      3.018  0.2517E+01  0.2514E+01  0.1722E+02  0.1722E+02
      3.183  0.2765E+01  0.2766E+01  0.1768E+02  0.1767E+02
      3.347  0.2575E+01  0.2575E+01  0.1810E+02  0.1810E+02
      3.512  0.2349E+01  0.2351E+01  0.1849E+02  0.1849E+02
      3.676  0.2511E+01  0.2508E+01  0.1890E+02  0.1890E+02
      3.841  0.2215E+01  0.2218E+01  0.1927E+02  0.1927E+02
      4.005  0.2329E+01  0.2326E+01  0.1965E+02  0.1965E+02
      4.170  0.2507E+01  0.2508E+01  0.2007E+02  0.2006E+02
      4.334  0.2554E+01  0.2555E+01  0.2049E+02  0.2049E+02
      4.499  0.2372E+01  0.2375E+01  0.2088E+02  0.2088E+02
      4.663  0.1908E+01  0.1908E+01  0.2119E+02  0.2119E+02
      4.828  0.2110E+01  0.2108E+01  0.2154E+02  0.2154E+02
      4.993  0.2132E+01  0.2134E+01  0.2189E+02  0.2189E+02
      5.157  0.1986E+01  0.1985E+01  0.2222E+02  0.2222E+02
      5.322  0.2440E+01  0.2437E+01  0.2262E+02  0.2262E+02
      5.486  0.2755E+01  0.2756E+01  0.2308E+02  0.2307E+02
      5.651  0.2510E+01  0.2510E+01  0.2349E+02  0.2349E+02
      5.815  0.3077E+01  0.3070E+01  0.2400E+02  0.2400E+02
      5.980  0.3939E+01  0.3937E+01  0.2465E+02  0.2464E+02
      6.144  0.4132E+01  0.4131E+01  0.2533E+02  0.2533E+02
      6.309  0.3271E+01  0.3271E+01  0.2587E+02  0.2587E+02
      6.473  0.3032E+01  0.3075E+01  0.2637E+02  0.2637E+02
      6.638  0.3266E+01  0.3241E+01  0.2691E+02  0.2691E+02
      6.802  0.2282E+01  0.2173E+01  0.2729E+02  0.2727E+02
      6.967  0.1505E+01  0.1576E+01  0.2753E+02  0.2753E+02
      7.132  0.1127E+01  0.1216E+01  0.2772E+02  0.2773E+02
      7.296  0.8799E+00  0.9579E+00  0.2787E+02  0.2789E+02
      7.461  0.5939E+00  0.5086E+00  0.2796E+02  0.2797E+02
      7.625  0.1986E+00  0.1636E+00  0.2800E+02  0.2800E+02
      7.790  0.1200E-01  0.1162E-01  0.2800E+02  0.2800E+02
      7.954  0.0000E+00  0.0000E+00  0.2800E+02  0.2800E+02
      8.119  0.0000E+00  0.0000E+00  0.2800E+02  0.2800E+02
      8.283  0.0000E+00  0.0000E+00  0.2800E+02  0.2800E+02
      8.448  0.0000E+00  0.0000E+00  0.2800E+02  0.2800E+02
      8.612  0.0000E+00  0.0000E+00  0.2800E+02  0.2800E+02
      8.777  0.0000E+00  0.0000E+00  0.2800E+02  0.2800E+02
      8.941  0.0000E+00  0.0000E+00  0.2800E+02  0.2800E+02
      9.106  0.0000E+00  0.0000E+00  0.2800E+02  0.2800E+02
      9.271  0.0000E+00  0.0000E+00  0.2800E+02  0.2800E+02
      9.435  0.0000E+00  0.0000E+00  0.2800E+02  0.2800E+02
      9.600  0.0000E+00  0.0000E+00  0.2800E+02  0.2800E+02
      9.764  0.0000E+00  0.0000E+00  0.2800E+02  0.2800E+02
      9.76418380    -39.59794660  301      3.71681322      1.00000000
    -39.598  0.0000E+00  0.0000E+00  0.0000E+00  0.0000E+00  0.0000E+00  0.0000E+00  0.0000E+00  0.0000E+00  0.0000E+00  0.0000E+00  0.0000E+00  0.0000E+00  0.0000E+00  0.0000E+00  0.0000E+00  0.0000E+00  0.0000E+00  0.0000E+00
    -39.433  0.0000E+00  0.0000E+00  0.0000E+00  0.0000E+00  0.0000E+00  0.0000E+00  0.0000E+00  0.0000E+00  0.0000E+00  0.0000E+00  0.0000E+00  0.0000E+00  0.0000E+00  0.0000E+00  0.0000E+00  0.0000E+00  0.0000E+00  0.0000E+00
    -39.269  0.0000E+00  0.0000E+00  0.0000E+00  0.0000E+00  0.0000E+00  0.0000E+00  0.0000E+00  0.0000E+00  0.0000E+00  0.0000E+00  0.0000E+00  0.0000E+00  0.0000E+00  0.0000E+00  0.0000E+00  0.0000E+00  0.0000E+00  0.0000E+00
    -39.104  0.0000E+00  0.0000E+00  0.0000E+00  0.0000E+00  0.0000E+00  0.0000E+00  0.0000E+00  0.0000E+00  0.0000E+00  0.0000E+00  0.0000E+00  0.0000E+00  0.0000E+00  0.0000E+00  0.0000E+00  0.0000E+00  0.0000E+00  0.0000E+00
    -38.940  0.0000E+00  0.0000E+00  0.0000E+00  0.0000E+00  0.0000E+00  0.0000E+00  0.0000E+00  0.0000E+00  0.0000E+00  0.0000E+00  0.0000E+00  0.0000E+00  0.0000E+00  0.0000E+00  0.0000E+00  0.0000E+00  0.0000E+00  0.0000E+00
    -38.775  0.0000E+00  0.0000E+00  0.0000E+00  0.0000E+00  0.0000E+00  0.0000E+00  0.0000E+00  0.0000E+00  0.0000E+00  0.0000E+00  0.0000E+00  0.0000E+00  0.0000E+00  0.0000E+00  0.0000E+00  0.0000E+00  0.0000E+00  0.0000E+00
    -38.611  0.0000E+00  0.0000E+00  0.0000E+00  0.0000E+00  0.0000E+00  0.0000E+00  0.0000E+00  0.0000E+00  0.0000E+00  0.0000E+00  0.0000E+00  0.0000E+00  0.0000E+00  0.0000E+00  0.0000E+00  0.0000E+00  0.0000E+00  0.0000E+00
    -38.446  0.0000E+00  0.0000E+00  0.0000E+00  0.0000E+00  0.0000E+00  0.0000E+00  0.0000E+00  0.0000E+00  0.0000E+00  0.0000E+00  0.0000E+00  0.0000E+00  0.0000E+00  0.0000E+00  0.0000E+00  0.0000E+00  0.0000E+00  0.0000E+00
    -38.282  0.0000E+00  0.0000E+00  0.0000E+00  0.0000E+00  0.0000E+00  0.0000E+00  0.0000E+00  0.0000E+00  0.0000E+00  0.0000E+00  0.0000E+00  0.0000E+00  0.0000E+00  0.0000E+00  0.0000E+00  0.0000E+00  0.0000E+00  0.0000E+00
    -38.117  0.0000E+00  0.0000E+00  0.0000E+00  0.0000E+00  0.0000E+00  0.0000E+00  0.0000E+00  0.0000E+00  0.0000E+00  0.0000E+00  0.0000E+00  0.0000E+00  0.0000E+00  0.0000E+00  0.0000E+00  0.0000E+00  0.0000E+00  0.0000E+00
    -37.953  0.0000E+00  0.0000E+00  0.0000E+00  0.0000E+00  0.0000E+00  0.0000E+00  0.0000E+00  0.0000E+00  0.0000E+00  0.0000E+00  0.0000E+00  0.0000E+00  0.0000E+00  0.0000E+00  0.0000E+00  0.0000E+00  0.0000E+00  0.0000E+00
    -37.788  0.1015E-02  0.1014E-02  0.1949E-12  0.1914E-12  0.9699E-14  0.3487E-14  0.1949E-12  0.1914E-12  0.1115E-14  0.3182E-15  0.9128E-15  0.3028E-15  0.1915E-09  0.1919E-09  0.9128E-15  0.3028E-15  0.1157E-12  0.1202E-12
    -37.623  0.2613E-01  0.2610E-01  0.5018E-11  0.4929E-11  0.2497E-12  0.8979E-13  0.5018E-11  0.4929E-11  0.2870E-13  0.8194E-14  0.2350E-13  0.7796E-14  0.4931E-08  0.4940E-08  0.2350E-13  0.7796E-14  0.2980E-11  0.3094E-11
    -37.459  0.6256E+00  0.6249E+00  0.1201E-09  0.1180E-09  0.5978E-11  0.2150E-11  0.1201E-09  0.1180E-09  0.6872E-12  0.1962E-12  0.5627E-12  0.1867E-12  0.1181E-06  0.1183E-06  0.5627E-12  0.1867E-12  0.7135E-10  0.7408E-10
    -37.294  0.3941E+01  0.3940E+01  0.7568E-09  0.7441E-09  0.3761E-10  0.1353E-10  0.7568E-09  0.7441E-09  0.4330E-11  0.1237E-11  0.3547E-11  0.1176E-11  0.7437E-06  0.7458E-06  0.3547E-11  0.1176E-11  0.4494E-09  0.4671E-09
    -37.130  0.1332E+01  0.1333E+01  0.2557E-09  0.2517E-09  0.1269E-10  0.4569E-11  0.2557E-09  0.2517E-09  0.1464E-11  0.4184E-12  0.1200E-11  0.3976E-12  0.2513E-06  0.2523E-06  0.1200E-11  0.3976E-12  0.1519E-09  0.1580E-09
    -36.965  0.6463E-01  0.6470E-01  0.1241E-10  0.1222E-10  0.6159E-12  0.2217E-12  0.1241E-10  0.1222E-10  0.7105E-13  0.2032E-13  0.5823E-13  0.1930E-13  0.1220E-07  0.1225E-07  0.5823E-13  0.1930E-13  0.7371E-11  0.7671E-11
    -36.801  0.0000E+00  0.0000E+00  0.0000E+00  0.0000E+00  0.0000E+00  0.0000E+00  0.0000E+00  0.0000E+00  0.0000E+00  0.0000E+00  0.0000E+00  0.0000E+00  0.0000E+00  0.0000E+00  0.0000E+00  0.0000E+00  0.0000E+00  0.0000E+00
    -36.636  0.0000E+00  0.0000E+00  0.0000E+00  0.0000E+00  0.0000E+00  0.0000E+00  0.0000E+00  0.0000E+00  0.0000E+00  0.0000E+00  0.0000E+00  0.0000E+00  0.0000E+00  0.0000E+00  0.0000E+00  0.0000E+00  0.0000E+00  0.0000E+00
    -36.472  0.0000E+00  0.0000E+00  0.0000E+00  0.0000E+00  0.0000E+00  0.0000E+00  0.0000E+00  0.0000E+00  0.0000E+00  0.0000E+00  0.0000E+00  0.0000E+00  0.0000E+00  0.0000E+00  0.0000E+00  0.0000E+00  0.0000E+00  0.0000E+00
    -36.307  0.0000E+00  0.0000E+00  0.0000E+00  0.0000E+00  0.0000E+00  0.0000E+00  0.0000E+00  0.0000E+00  0.0000E+00  0.0000E+00  0.0000E+00  0.0000E+00  0.0000E+00  0.0000E+00  0.0000E+00  0.0000E+00  0.0000E+00  0.0000E+00
    -36.143  0.0000E+00  0.0000E+00  0.0000E+00  0.0000E+00  0.0000E+00  0.0000E+00  0.0000E+00  0.0000E+00  0.0000E+00  0.0000E+00  0.0000E+00  0.0000E+00  0.0000E+00  0.0000E+00  0.0000E+00  0.0000E+00  0.0000E+00  0.0000E+00
    -35.978  0.0000E+00  0.0000E+00  0.0000E+00  0.0000E+00  0.0000E+00  0.0000E+00  0.0000E+00  0.0000E+00  0.0000E+00  0.0000E+00  0.0000E+00  0.0000E+00  0.0000E+00  0.0000E+00  0.0000E+00  0.0000E+00  0.0000E+00  0.0000E+00
    -35.814  0.0000E+00  0.0000E+00  0.0000E+00  0.0000E+00  0.0000E+00  0.0000E+00  0.0000E+00  0.0000E+00  0.0000E+00  0.0000E+00  0.0000E+00  0.0000E+00  0.0000E+00  0.0000E+00  0.0000E+00  0.0000E+00  0.0000E+00  0.0000E+00
    -35.649  0.0000E+00  0.0000E+00  0.0000E+00  0.0000E+00  0.0000E+00  0.0000E+00  0.0000E+00  0.0000E+00  0.0000E+00  0.0000E+00  0.0000E+00  0.0000E+00  0.0000E+00  0.0000E+00  0.0000E+00  0.0000E+00  0.0000E+00  0.0000E+00
    -35.484  0.0000E+00  0.0000E+00  0.0000E+00  0.0000E+00  0.0000E+00  0.0000E+00  0.0000E+00  0.0000E+00  0.0000E+00  0.0000E+00  0.0000E+00  0.0000E+00  0.0000E+00  0.0000E+00  0.0000E+00  0.0000E+00  0.0000E+00  0.0000E+00
    -35.320  0.0000E+00  0.0000E+00  0.0000E+00  0.0000E+00  0.0000E+00  0.0000E+00  0.0000E+00  0.0000E+00  0.0000E+00  0.0000E+00  0.0000E+00  0.0000E+00  0.0000E+00  0.0000E+00  0.0000E+00  0.0000E+00  0.0000E+00  0.0000E+00
    -35.155  0.0000E+00  0.0000E+00  0.0000E+00  0.0000E+00  0.0000E+00  0.0000E+00  0.0000E+00  0.0000E+00  0.0000E+00  0.0000E+00  0.0000E+00  0.0000E+00  0.0000E+00  0.0000E+00  0.0000E+00  0.0000E+00  0.0000E+00  0.0000E+00
    -34.991  0.0000E+00  0.0000E+00  0.0000E+00  0.0000E+00  0.0000E+00  0.0000E+00  0.0000E+00  0.0000E+00  0.0000E+00  0.0000E+00  0.0000E+00  0.0000E+00  0.0000E+00  0.0000E+00  0.0000E+00  0.0000E+00  0.0000E+00  0.0000E+00
    -34.826  0.0000E+00  0.0000E+00  0.0000E+00  0.0000E+00  0.0000E+00  0.0000E+00  0.0000E+00  0.0000E+00  0.0000E+00  0.0000E+00  0.0000E+00  0.0000E+00  0.0000E+00  0.0000E+00  0.0000E+00  0.0000E+00  0.0000E+00  0.0000E+00
    -34.662  0.0000E+00  0.0000E+00  0.0000E+00  0.0000E+00  0.0000E+00  0.0000E+00  0.0000E+00  0.0000E+00  0.0000E+00  0.0000E+00  0.0000E+00  0.0000E+00  0.0000E+00  0.0000E+00  0.0000E+00  0.0000E+00  0.0000E+00  0.0000E+00
    -34.497  0.0000E+00  0.0000E+00  0.0000E+00  0.0000E+00  0.0000E+00  0.0000E+00  0.0000E+00  0.0000E+00  0.0000E+00  0.0000E+00  0.0000E+00  0.0000E+00  0.0000E+00  0.0000E+00  0.0000E+00  0.0000E+00  0.0000E+00  0.0000E+00
    -34.333  0.0000E+00  0.0000E+00  0.0000E+00  0.0000E+00  0.0000E+00  0.0000E+00  0.0000E+00  0.0000E+00  0.0000E+00  0.0000E+00  0.0000E+00  0.0000E+00  0.0000E+00  0.0000E+00  0.0000E+00  0.0000E+00  0.0000E+00  0.0000E+00
    -34.168  0.0000E+00  0.0000E+00  0.0000E+00  0.0000E+00  0.0000E+00  0.0000E+00  0.0000E+00  0.0000E+00  0.0000E+00  0.0000E+00  0.0000E+00  0.0000E+00  0.0000E+00  0.0000E+00  0.0000E+00  0.0000E+00  0.0000E+00  0.0000E+00
    -34.004  0.0000E+00  0.0000E+00  0.0000E+00  0.0000E+00  0.0000E+00  0.0000E+00  0.0000E+00  0.0000E+00  0.0000E+00  0.0000E+00  0.0000E+00  0.0000E+00  0.0000E+00  0.0000E+00  0.0000E+00  0.0000E+00  0.0000E+00  0.0000E+00
    -33.839  0.0000E+00  0.0000E+00  0.0000E+00  0.0000E+00  0.0000E+00  0.0000E+00  0.0000E+00  0.0000E+00  0.0000E+00  0.0000E+00  0.0000E+00  0.0000E+00  0.0000E+00  0.0000E+00  0.0000E+00  0.0000E+00  0.0000E+00  0.0000E+00
    -33.674  0.0000E+00  0.0000E+00  0.0000E+00  0.0000E+00  0.0000E+00  0.0000E+00  0.0000E+00  0.0000E+00  0.0000E+00  0.0000E+00  0.0000E+00  0.0000E+00  0.0000E+00  0.0000E+00  0.0000E+00  0.0000E+00  0.0000E+00  0.0000E+00
    -33.510  0.0000E+00  0.0000E+00  0.0000E+00  0.0000E+00  0.0000E+00  0.0000E+00  0.0000E+00  0.0000E+00  0.0000E+00  0.0000E+00  0.0000E+00  0.0000E+00  0.0000E+00  0.0000E+00  0.0000E+00  0.0000E+00  0.0000E+00  0.0000E+00
    -33.345  0.0000E+00  0.0000E+00  0.0000E+00  0.0000E+00  0.0000E+00  0.0000E+00  0.0000E+00  0.0000E+00  0.0000E+00  0.0000E+00  0.0000E+00  0.0000E+00  0.0000E+00  0.0000E+00  0.0000E+00  0.0000E+00  0.0000E+00  0.0000E+00
    -33.181  0.0000E+00  0.0000E+00  0.0000E+00  0.0000E+00  0.0000E+00  0.0000E+00  0.0000E+00  0.0000E+00  0.0000E+00  0.0000E+00  0.0000E+00  0.0000E+00  0.0000E+00  0.0000E+00  0.0000E+00  0.0000E+00  0.0000E+00  0.0000E+00
    -33.016  0.0000E+00  0.0000E+00  0.0000E+00  0.0000E+00  0.0000E+00  0.0000E+00  0.0000E+00  0.0000E+00  0.0000E+00  0.0000E+00  0.0000E+00  0.0000E+00  0.0000E+00  0.0000E+00  0.0000E+00  0.0000E+00  0.0000E+00  0.0000E+00
    -32.852  0.0000E+00  0.0000E+00  0.0000E+00  0.0000E+00  0.0000E+00  0.0000E+00  0.0000E+00  0.0000E+00  0.0000E+00  0.0000E+00  0.0000E+00  0.0000E+00  0.0000E+00  0.0000E+00  0.0000E+00  0.0000E+00  0.0000E+00  0.0000E+00
    -32.687  0.0000E+00  0.0000E+00  0.0000E+00  0.0000E+00  0.0000E+00  0.0000E+00  0.0000E+00  0.0000E+00  0.0000E+00  0.0000E+00  0.0000E+00  0.0000E+00  0.0000E+00  0.0000E+00  0.0000E+00  0.0000E+00  0.0000E+00  0.0000E+00
    -32.523  0.0000E+00  0.0000E+00  0.0000E+00  0.0000E+00  0.0000E+00  0.0000E+00  0.0000E+00  0.0000E+00  0.0000E+00  0.0000E+00  0.0000E+00  0.0000E+00  0.0000E+00  0.0000E+00  0.0000E+00  0.0000E+00  0.0000E+00  0.0000E+00
    -32.358  0.0000E+00  0.0000E+00  0.0000E+00  0.0000E+00  0.0000E+00  0.0000E+00  0.0000E+00  0.0000E+00  0.0000E+00  0.0000E+00  0.0000E+00  0.0000E+00  0.0000E+00  0.0000E+00  0.0000E+00  0.0000E+00  0.0000E+00  0.0000E+00
    -32.194  0.0000E+00  0.0000E+00  0.0000E+00  0.0000E+00  0.0000E+00  0.0000E+00  0.0000E+00  0.0000E+00  0.0000E+00  0.0000E+00  0.0000E+00  0.0000E+00  0.0000E+00  0.0000E+00  0.0000E+00  0.0000E+00  0.0000E+00  0.0000E+00
    -32.029  0.0000E+00  0.0000E+00  0.0000E+00  0.0000E+00  0.0000E+00  0.0000E+00  0.0000E+00  0.0000E+00  0.0000E+00  0.0000E+00  0.0000E+00  0.0000E+00  0.0000E+00  0.0000E+00  0.0000E+00  0.0000E+00  0.0000E+00  0.0000E+00
    -31.865  0.0000E+00  0.0000E+00  0.0000E+00  0.0000E+00  0.0000E+00  0.0000E+00  0.0000E+00  0.0000E+00  0.0000E+00  0.0000E+00  0.0000E+00  0.0000E+00  0.0000E+00  0.0000E+00  0.0000E+00  0.0000E+00  0.0000E+00  0.0000E+00
    -31.700  0.0000E+00  0.0000E+00  0.0000E+00  0.0000E+00  0.0000E+00  0.0000E+00  0.0000E+00  0.0000E+00  0.0000E+00  0.0000E+00  0.0000E+00  0.0000E+00  0.0000E+00  0.0000E+00  0.0000E+00  0.0000E+00  0.0000E+00  0.0000E+00
    -31.535  0.0000E+00  0.0000E+00  0.0000E+00  0.0000E+00  0.0000E+00  0.0000E+00  0.0000E+00  0.0000E+00  0.0000E+00  0.0000E+00  0.0000E+00  0.0000E+00  0.0000E+00  0.0000E+00  0.0000E+00  0.0000E+00  0.0000E+00  0.0000E+00
    -31.371  0.0000E+00  0.0000E+00  0.0000E+00  0.0000E+00  0.0000E+00  0.0000E+00  0.0000E+00  0.0000E+00  0.0000E+00  0.0000E+00  0.0000E+00  0.0000E+00  0.0000E+00  0.0000E+00  0.0000E+00  0.0000E+00  0.0000E+00  0.0000E+00