   8   8   1   0
  0.1769425E+02  0.4111133E-09  0.4111133E-09  0.8375274E-09  0.5000000E-15
  1.000000000000000E-004
  CAR 
 unknown system                          
     14.04271972    -35.14664057  301      6.81398858      1.00000000
    -35.147  0.0000E+00  0.0000E+00  0.0000E+00  0.0000E+00
    -34.983  0.0000E+00  0.0000E+00  0.0000E+00  0.0000E+00
    -34.819  0.0000E+00  0.0000E+00  0.0000E+00  0.0000E+00
    -34.655  0.0000E+00  0.0000E+00  0.0000E+00  0.0000E+00
    -34.491  0.0000E+00  0.0000E+00  0.0000E+00  0.0000E+00
    -34.327  0.0000E+00  0.0000E+00  0.0000E+00  0.0000E+00
    -34.163  0.0000E+00  0.0000E+00  0.0000E+00  0.0000E+00
    -33.999  0.0000E+00  0.0000E+00  0.0000E+00  0.0000E+00
    -33.835  0.0000E+00  0.0000E+00  0.0000E+00  0.0000E+00
    -33.671  0.0000E+00  0.0000E+00  0.0000E+00  0.0000E+00
    -33.507  0.0000E+00  0.0000E+00  0.0000E+00  0.0000E+00
    -33.343  0.1973E-02  0.1939E-02  0.3236E-03  0.3179E-03
    -33.179  0.5022E-01  0.4935E-01  0.8558E-02  0.8409E-02
    -33.015  0.1197E+01  0.1178E+01  0.2048E+00  0.2016E+00
    -32.851  0.7920E+01  0.7899E+01  0.1503E+01  0.1497E+01
    -32.687  0.2879E+01  0.2916E+01  0.1975E+01  0.1975E+01
    -32.523  0.1442E+00  0.1467E+00  0.1999E+01  0.1999E+01
    -32.359  0.0000E+00  0.0000E+00  0.2000E+01  0.2000E+01
    -32.195  0.0000E+00  0.0000E+00  0.2000E+01  0.2000E+01
    -32.031  0.0000E+00  0.0000E+00  0.2000E+01  0.2000E+01
    -31.867  0.0000E+00  0.0000E+00  0.2000E+01  0.2000E+01
    -31.703  0.0000E+00  0.0000E+00  0.2000E+01  0.2000E+01
    -31.539  0.0000E+00  0.0000E+00  0.2000E+01  0.2000E+01
    -31.375  0.0000E+00  0.0000E+00  0.2000E+01  0.2000E+01
    -31.211  0.0000E+00  0.0000E+00  0.2000E+01  0.2000E+01
    -31.048  0.0000E+00  0.0000E+00  0.2000E+01  0.2000E+01
    -30.884  0.0000E+00  0.0000E+00  0.2000E+01  0.2000E+01
    -30.720  0.0000E+00  0.0000E+00  0.2000E+01  0.2000E+01
    -30.556  0.0000E+00  0.0000E+00  0.2000E+01  0.2000E+01
    -30.392  0.0000E+00  0.0000E+00  0.2000E+01  0.2000E+01
    -30.228  0.0000E+00  0.0000E+00  0.2000E+01  0.2000E+01
    -30.064  0.0000E+00  0.0000E+00  0.2000E+01  0.2000E+01
    -29.900  0.0000E+00  0.0000E+00  0.2000E+01  0.2000E+01
    -29.736  0.0000E+00  0.0000E+00  0.2000E+01  0.2000E+01
    -29.572  0.0000E+00  0.0000E+00  0.2000E+01  0.2000E+01
    -29.408  0.0000E+00  0.0000E+00  0.2000E+01  0.2000E+01
    -29.244  0.0000E+00  0.0000E+00  0.2000E+01  0.2000E+01
    -29.080  0.0000E+00  0.0000E+00  0.2000E+01  0.2000E+01
    -28.916  0.0000E+00  0.0000E+00  0.2000E+01  0.2000E+01
    -28.752  0.0000E+00  0.0000E+00  0.2000E+01  0.2000E+01
    -28.588  0.0000E+00  0.0000E+00  0.2000E+01  0.2000E+01
    -28.424  0.0000E+00  0.0000E+00  0.2000E+01  0.2000E+01
    -28.260  0.0000E+00  0.0000E+00  0.2000E+01  0.2000E+01
    -28.096  0.0000E+00  0.0000E+00  0.2000E+01  0.2000E+01
    -27.932  0.0000E+00  0.0000E+00  0.2000E+01  0.2000E+01
    -27.768  0.0000E+00  0.0000E+00  0.2000E+01  0.2000E+01
    -27.604  0.0000E+00  0.0000E+00  0.2000E+01  0.2000E+01
    -27.440  0.0000E+00  0.0000E+00  0.2000E+01  0.2000E+01
    -27.276  0.0000E+00  0.0000E+00  0.2000E+01  0.2000E+01
    -27.112  0.0000E+00  0.0000E+00  0.2000E+01  0.2000E+01
    -26.948  0.0000E+00  0.0000E+00  0.2000E+01  0.2000E+01
    -26.784  0.0000E+00  0.0000E+00  0.2000E+01  0.2000E+01
    -26.620  0.0000E+00  0.0000E+00  0.2000E+01  0.2000E+01
    -26.457  0.0000E+00  0.0000E+00  0.2000E+01  0.2000E+01
    -26.293  0.0000E+00  0.0000E+00  0.2000E+01  0.2000E+01
    -26.129  0.0000E+00  0.0000E+00  0.2000E+01  0.2000E+01
    -25.965  0.0000E+00  0.0000E+00  0.2000E+01  0.2000E+01
    -25.801  0.0000E+00  0.0000E+00  0.2000E+01  0.2000E+01
    -25.637  0.0000E+00  0.0000E+00  0.2000E+01  0.2000E+01
    -25.473  0.0000E+00  0.0000E+00  0.2000E+01  0.2000E+01
    -25.309  0.0000E+00  0.0000E+00  0.2000E+01  0.2000E+01
    -25.145  0.0000E+00  0.0000E+00  0.2000E+01  0.2000E+01
    -24.981  0.0000E+00  0.0000E+00  0.2000E+01  0.2000E+01
    -24.817  0.0000E+00  0.0000E+00  0.2000E+01  0.2000E+01
    -24.653  0.0000E+00  0.0000E+00  0.2000E+01  0.2000E+01
    -24.489  0.0000E+00  0.0000E+00  0.2000E+01  0.2000E+01
    -24.325  0.0000E+00  0.0000E+00  0.2000E+01  0.2000E+01
    -24.161  0.0000E+00  0.0000E+00  0.2000E+01  0.2000E+01
    -23.997  0.0000E+00  0.0000E+00  0.2000E+01  0.2000E+01
    -23.833  0.0000E+00  0.0000E+00  0.2000E+01  0.2000E+01
    -23.669  0.0000E+00  0.0000E+00  0.2000E+01  0.2000E+01
    -23.505  0.0000E+00  0.0000E+00  0.2000E+01  0.2000E+01
    -23.341  0.0000E+00  0.0000E+00  0.2000E+01  0.2000E+01
    -23.177  0.0000E+00  0.0000E+00  0.2000E+01  0.2000E+01
    -23.013  0.0000E+00  0.0000E+00  0.2000E+01  0.2000E+01
    -22.849  0.0000E+00  0.0000E+00  0.2000E+01  0.2000E+01
    -22.685  0.0000E+00  0.0000E+00  0.2000E+01  0.2000E+01
    -22.521  0.0000E+00  0.0000E+00  0.2000E+01  0.2000E+01
    -22.357  0.0000E+00  0.0000E+00  0.2000E+01  0.2000E+01
    -22.193  0.0000E+00  0.0000E+00  0.2000E+01  0.2000E+01
    -22.029  0.0000E+00  0.0000E+00  0.2000E+01  0.2000E+01
    -21.866  0.0000E+00  0.0000E+00  0.2000E+01  0.2000E+01
    -21.702  0.0000E+00  0.0000E+00  0.2000E+01  0.2000E+01
    -21.538  0.0000E+00  0.0000E+00  0.2000E+01  0.2000E+01
    -21.374  0.0000E+00  0.0000E+00  0.2000E+01  0.2000E+01
    -21.210  0.0000E+00  0.0000E+00  0.2000E+01  0.2000E+01
    -21.046  0.0000E+00  0.0000E+00  0.2000E+01  0.2000E+01
    -20.882  0.0000E+00  0.0000E+00  0.2000E+01  0.2000E+01
    -20.718  0.0000E+00  0.0000E+00  0.2000E+01  0.2000E+01
    -20.554  0.0000E+00  0.0000E+00  0.2000E+01  0.2000E+01
    -20.390  0.0000E+00  0.0000E+00  0.2000E+01  0.2000E+01
    -20.226  0.0000E+00  0.0000E+00  0.2000E+01  0.2000E+01
    -20.062  0.0000E+00  0.0000E+00  0.2000E+01  0.2000E+01
    -19.898  0.0000E+00  0.0000E+00  0.2000E+01  0.2000E+01
    -19.734  0.0000E+00  0.0000E+00  0.2000E+01  0.2000E+01
    -19.570  0.0000E+00  0.0000E+00  0.2000E+01  0.2000E+01
    -19.406  0.0000E+00  0.0000E+00  0.2000E+01  0.2000E+01
    -19.242  0.0000E+00  0.0000E+00  0.2000E+01  0.2000E+01
    -19.078  0.0000E+00  0.0000E+00  0.2000E+01  0.2000E+01
    -18.914  0.0000E+00  0.0000E+00  0.2000E+01  0.2000E+01
    -18.750  0.0000E+00  0.0000E+00  0.2000E+01  0.2000E+01
    -18.586  0.0000E+00  0.0000E+00  0.2000E+01  0.2000E+01
    -18.422  0.0000E+00  0.0000E+00  0.2000E+01  0.2000E+01
    -18.258  0.0000E+00  0.0000E+00  0.2000E+01  0.2000E+01
    -18.094  0.0000E+00  0.0000E+00  0.2000E+01  0.2000E+01
    -17.930  0.0000E+00  0.0000E+00  0.2000E+01  0.2000E+01
    -17.766  0.0000E+00  0.0000E+00  0.2000E+01  0.2000E+01
    -17.602  0.0000E+00  0.0000E+00  0.2000E+01  0.2000E+01
    -17.438  0.0000E+00  0.0000E+00  0.2000E+01  0.2000E+01
    -17.275  0.0000E+00  0.0000E+00  0.2000E+01  0.2000E+01
    -17.111  0.0000E+00  0.0000E+00  0.2000E+01  0.2000E+01
    -16.947  0.0000E+00  0.0000E+00  0.2000E+01  0.2000E+01
    -16.783  0.0000E+00  0.0000E+00  0.2000E+01  0.2000E+01
    -16.619  0.0000E+00  0.0000E+00  0.2000E+01  0.2000E+01
    -16.455  0.0000E+00  0.0000E+00  0.2000E+01  0.2000E+01
    -16.291  0.0000E+00  0.0000E+00  0.2000E+01  0.2000E+01
    -16.127  0.0000E+00  0.0000E+00  0.2000E+01  0.2000E+01
    -15.963  0.0000E+00  0.0000E+00  0.2000E+01  0.2000E+01
    -15.799  0.0000E+00  0.0000E+00  0.2000E+01  0.2000E+01
    -15.635  0.0000E+00  0.0000E+00  0.2000E+01  0.2000E+01
    -15.471  0.0000E+00  0.0000E+00  0.2000E+01  0.2000E+01
    -15.307  0.0000E+00  0.0000E+00  0.2000E+01  0.2000E+01
    -15.143  0.0000E+00  0.0000E+00  0.2000E+01  0.2000E+01
    -14.979  0.0000E+00  0.0000E+00  0.2000E+01  0.2000E+01
    -14.815  0.0000E+00  0.0000E+00  0.2000E+01  0.2000E+01
    -14.651  0.1151E-02  0.1120E-02  0.2000E+01  0.2000E+01
    -14.487  0.3143E-01  0.3078E-01  0.2005E+01  0.2005E+01
    -14.323  0.8045E+00  0.7882E+00  0.2137E+01  0.2134E+01
    -14.159  0.1168E+02  0.1155E+02  0.4053E+01  0.4028E+01
    -13.995  0.2055E+02  0.2064E+02  0.7423E+01  0.7413E+01
    -13.831  0.3366E+01  0.3422E+01  0.7974E+01  0.7974E+01
    -13.667  0.5822E-01  0.6038E-01  0.8000E+01  0.8000E+01
    -13.503  0.0000E+00  0.0000E+00  0.8000E+01  0.8000E+01
    -13.339  0.0000E+00  0.0000E+00  0.8000E+01  0.8000E+01
    -13.175  0.0000E+00  0.0000E+00  0.8000E+01  0.8000E+01
    -13.011  0.0000E+00  0.0000E+00  0.8000E+01  0.8000E+01
    -12.847  0.0000E+00  0.0000E+00  0.8000E+01  0.8000E+01
    -12.683  0.0000E+00  0.0000E+00  0.8000E+01  0.8000E+01
    -12.520  0.0000E+00  0.0000E+00  0.8000E+01  0.8000E+01
    -12.356  0.0000E+00  0.0000E+00  0.8000E+01  0.8000E+01
    -12.192  0.0000E+00  0.0000E+00  0.8000E+01  0.8000E+01
    -12.028  0.0000E+00  0.0000E+00  0.8000E+01  0.8000E+01
    -11.864  0.0000E+00  0.0000E+00  0.8000E+01  0.8000E+01
    -11.700  0.0000E+00  0.0000E+00  0.8000E+01  0.8000E+01
    -11.536  0.0000E+00  0.0000E+00  0.8000E+01  0.8000E+01
    -11.372  0.0000E+00  0.0000E+00  0.8000E+01  0.8000E+01
    -11.208  0.0000E+00  0.0000E+00  0.8000E+01  0.8000E+01
    -11.044  0.0000E+00  0.0000E+00  0.8000E+01  0.8000E+01
    -10.880  0.0000E+00  0.0000E+00  0.8000E+01  0.8000E+01
    -10.716  0.0000E+00  0.0000E+00  0.8000E+01  0.8000E+01
    -10.552  0.0000E+00  0.0000E+00  0.8000E+01  0.8000E+01
    -10.388  0.0000E+00  0.0000E+00  0.8000E+01  0.8000E+01
    -10.224  0.0000E+00  0.0000E+00  0.8000E+01  0.8000E+01
    -10.060  0.0000E+00  0.0000E+00  0.8000E+01  0.8000E+01
     -9.896  0.0000E+00  0.0000E+00  0.8000E+01  0.8000E+01
     -9.732  0.0000E+00  0.0000E+00  0.8000E+01  0.8000E+01
     -9.568  0.0000E+00  0.0000E+00  0.8000E+01  0.8000E+01
     -9.404  0.0000E+00  0.0000E+00  0.8000E+01  0.8000E+01
     -9.240  0.0000E+00  0.0000E+00  0.8000E+01  0.8000E+01
     -9.076  0.0000E+00  0.0000E+00  0.8000E+01  0.8000E+01
     -8.912  0.0000E+00  0.0000E+00  0.8000E+01  0.8000E+01
     -8.748  0.0000E+00  0.0000E+00  0.8000E+01  0.8000E+01
     -8.584  0.0000E+00  0.0000E+00  0.8000E+01  0.8000E+01
     -8.420  0.0000E+00  0.0000E+00  0.8000E+01  0.8000E+01
     -8.256  0.0000E+00  0.0000E+00  0.8000E+01  0.8000E+01
     -8.092  0.0000E+00  0.0000E+00  0.8000E+01  0.8000E+01
     -7.929  0.0000E+00  0.0000E+00  0.8000E+01  0.8000E+01
     -7.765  0.0000E+00  0.0000E+00  0.8000E+01  0.8000E+01
     -7.601  0.0000E+00  0.0000E+00  0.8000E+01  0.8000E+01
     -7.437  0.0000E+00  0.0000E+00  0.8000E+01  0.8000E+01
     -7.273  0.0000E+00  0.0000E+00  0.8000E+01  0.8000E+01
     -7.109  0.0000E+00  0.0000E+00  0.8000E+01  0.8000E+01
     -6.945  0.0000E+00  0.0000E+00  0.8000E+01  0.8000E+01
     -6.781  0.0000E+00  0.0000E+00  0.8000E+01  0.8000E+01
     -6.617  0.0000E+00  0.0000E+00  0.8000E+01  0.8000E+01
     -6.453  0.0000E+00  0.0000E+00  0.8000E+01  0.8000E+01
     -6.289  0.0000E+00  0.0000E+00  0.8000E+01  0.8000E+01
     -6.125  0.0000E+00  0.0000E+00  0.8000E+01  0.8000E+01
     -5.961  0.0000E+00  0.0000E+00  0.8000E+01  0.8000E+01
     -5.797  0.0000E+00  0.0000E+00  0.8000E+01  0.8000E+01
     -5.633  0.0000E+00  0.0000E+00  0.8000E+01  0.8000E+01
     -5.469  0.0000E+00  0.0000E+00  0.8000E+01  0.8000E+01
     -5.305  0.0000E+00  0.0000E+00  0.8000E+01  0.8000E+01
     -5.141  0.0000E+00  0.0000E+00  0.8000E+01  0.8000E+01
     -4.977  0.0000E+00  0.0000E+00  0.8000E+01  0.8000E+01
     -4.813  0.0000E+00  0.0000E+00  0.8000E+01  0.8000E+01
     -4.649  0.0000E+00  0.0000E+00  0.8000E+01  0.8000E+01
     -4.485  0.0000E+00  0.0000E+00  0.8000E+01  0.8000E+01
     -4.321  0.0000E+00  0.0000E+00  0.8000E+01  0.8000E+01
     -4.157  0.0000E+00  0.0000E+00  0.8000E+01  0.8000E+01
     -3.993  0.0000E+00  0.0000E+00  0.8000E+01  0.8000E+01
     -3.829  0.0000E+00  0.0000E+00  0.8000E+01  0.8000E+01
     -3.665  0.0000E+00  0.0000E+00  0.8000E+01  0.8000E+01
     -3.501  0.0000E+00  0.0000E+00  0.8000E+01  0.8000E+01
     -3.338  0.0000E+00  0.0000E+00  0.8000E+01  0.8000E+01
     -3.174  0.1335E-06  0.1274E-06  0.8000E+01  0.8000E+01
     -3.010  0.1704E-04  0.1627E-04  0.8000E+01  0.8000E+01
     -2.846  0.4557E-03  0.4352E-03  0.8000E+01  0.8000E+01
     -2.682  0.1042E-01  0.1001E-01  0.8002E+01  0.8002E+01
     -2.518  0.8630E-01  0.8473E-01  0.8016E+01  0.8016E+01
     -2.354  0.1969E+00  0.1954E+00  0.8048E+01  0.8048E+01
     -2.190  0.2608E+00  0.2600E+00  0.8091E+01  0.8090E+01
     -2.026  0.3401E+00  0.3393E+00  0.8147E+01  0.8146E+01
     -1.862  0.3851E+00  0.3848E+00  0.8210E+01  0.8209E+01
     -1.698  0.4308E+00  0.4290E+00  0.8281E+01  0.8280E+01
     -1.534  0.5028E+00  0.5026E+00  0.8363E+01  0.8362E+01
     -1.370  0.5122E+00  0.5121E+00  0.8447E+01  0.8446E+01
     -1.206  0.5935E+00  0.5922E+00  0.8545E+01  0.8544E+01
     -1.042  0.6620E+00  0.6609E+00  0.8654E+01  0.8652E+01
     -0.878  0.6991E+00  0.6988E+00  0.8769E+01  0.8767E+01
     -0.714  0.7058E+00  0.7044E+00  0.8885E+01  0.8883E+01
     -0.550  0.8577E+00  0.8576E+00  0.9025E+01  0.9024E+01
     -0.386  0.7993E+00  0.7999E+00  0.9157E+01  0.9155E+01
     -0.222  0.8236E+00  0.8238E+00  0.9292E+01  0.9290E+01
     -0.058  0.8222E+00  0.8204E+00  0.9427E+01  0.9425E+01
      0.106  0.9791E+00  0.9802E+00  0.9588E+01  0.9587E+01
      0.270  0.7522E+00  0.7523E+00  0.9712E+01  0.9710E+01
      0.434  0.9092E+00  0.9072E+00  0.9862E+01  0.9859E+01
      0.598  0.1078E+01  0.1076E+01  0.1004E+02  0.1004E+02
      0.762  0.1113E+01  0.1112E+01  0.1022E+02  0.1022E+02
      0.926  0.1206E+01  0.1207E+01  0.1042E+02  0.1042E+02
      1.090  0.1108E+01  0.1109E+01  0.1060E+02  0.1060E+02
      1.253  0.1078E+01  0.1080E+01  0.1078E+02  0.1078E+02
      1.417  0.8597E+00  0.8636E+00  0.1092E+02  0.1092E+02
      1.581  0.8054E+00  0.8031E+00  0.1105E+02  0.1105E+02
      1.745  0.8395E+00  0.8399E+00  0.1119E+02  0.1119E+02
      1.909  0.1024E+01  0.1020E+01  0.1136E+02  0.1136E+02
      2.073  0.1118E+01  0.1116E+01  0.1154E+02  0.1154E+02
      2.237  0.1185E+01  0.1186E+01  0.1174E+02  0.1173E+02
      2.401  0.1241E+01  0.1237E+01  0.1194E+02  0.1194E+02
      2.565  0.1568E+01  0.1568E+01  0.1220E+02  0.1220E+02
      2.729  0.1057E+01  0.1065E+01  0.1237E+02  0.1237E+02
      2.893  0.1073E+01  0.1067E+01  0.1255E+02  0.1255E+02
      3.057  0.1239E+01  0.1240E+01  0.1275E+02  0.1275E+02
      3.221  0.1205E+01  0.1209E+01  0.1295E+02  0.1295E+02
      3.385  0.8140E+00  0.8142E+00  0.1309E+02  0.1308E+02
      3.549  0.1340E+01  0.1329E+01  0.1331E+02  0.1330E+02
      3.713  0.1422E+01  0.1427E+01  0.1354E+02  0.1354E+02
      3.877  0.1178E+01  0.1182E+01  0.1373E+02  0.1373E+02
      4.041  0.1058E+01  0.1054E+01  0.1391E+02  0.1390E+02
      4.205  0.1577E+01  0.1570E+01  0.1417E+02  0.1416E+02
      4.369  0.1680E+01  0.1682E+01  0.1444E+02  0.1444E+02
      4.533  0.1508E+01  0.1511E+01  0.1469E+02  0.1469E+02
      4.697  0.1460E+01  0.1458E+01  0.1493E+02  0.1493E+02
      4.861  0.1622E+01  0.1618E+01  0.1520E+02  0.1519E+02
      5.025  0.1668E+01  0.1670E+01  0.1547E+02  0.1547E+02
      5.189  0.1650E+01  0.1649E+01  0.1574E+02  0.1574E+02
      5.353  0.1761E+01  0.1759E+01  0.1603E+02  0.1603E+02
      5.517  0.2105E+01  0.2098E+01  0.1638E+02  0.1637E+02
      5.681  0.2318E+01  0.2319E+01  0.1676E+02  0.1675E+02
      5.844  0.2240E+01  0.2241E+01  0.1713E+02  0.1712E+02
      6.008  0.2206E+01  0.2201E+01  0.1749E+02  0.1748E+02
      6.172  0.2305E+01  0.2311E+01  0.1787E+02  0.1786E+02
      6.336  0.1786E+01  0.1788E+01  0.1816E+02  0.1816E+02
      6.500  0.1723E+01  0.1726E+01  0.1844E+02  0.1844E+02
      6.664  0.1750E+01  0.1747E+01  0.1873E+02  0.1873E+02
      6.828  0.1808E+01  0.1806E+01  0.1903E+02  0.1902E+02
      6.992  0.1918E+01  0.1915E+01  0.1934E+02  0.1934E+02
      7.156  0.2117E+01  0.2119E+01  0.1969E+02  0.1969E+02
      7.320  0.1689E+01  0.1696E+01  0.1997E+02  0.1997E+02
      7.484  0.1664E+01  0.1657E+01  0.2024E+02  0.2024E+02
      7.648  0.1919E+01  0.1923E+01  0.2056E+02  0.2056E+02
      7.812  0.1678E+01  0.1680E+01  0.2084E+02  0.2083E+02
      7.976  0.1615E+01  0.1620E+01  0.2110E+02  0.2110E+02
      8.140  0.1351E+01  0.1351E+01  0.2132E+02  0.2132E+02
      8.304  0.1367E+01  0.1370E+01  0.2155E+02  0.2155E+02
      8.468  0.1256E+01  0.1254E+01  0.2175E+02  0.2175E+02
      8.632  0.1294E+01  0.1294E+01  0.2197E+02  0.2196E+02
      8.796  0.1287E+01  0.1286E+01  0.2218E+02  0.2218E+02
      8.960  0.1515E+01  0.1509E+01  0.2243E+02  0.2242E+02
      9.124  0.2030E+01  0.2023E+01  0.2276E+02  0.2276E+02
      9.288  0.2153E+01  0.2152E+01  0.2311E+02  0.2311E+02
      9.452  0.2443E+01  0.2429E+01  0.2352E+02  0.2351E+02
      9.616  0.3093E+01  0.3088E+01  0.2402E+02  0.2402E+02
      9.780  0.2702E+01  0.2707E+01  0.2447E+02  0.2446E+02
      9.944  0.2471E+01  0.2475E+01  0.2488E+02  0.2487E+02
     10.108  0.2770E+01  0.2761E+01  0.2533E+02  0.2532E+02
     10.272  0.3051E+01  0.3056E+01  0.2583E+02  0.2582E+02
     10.435  0.2518E+01  0.2486E+01  0.2625E+02  0.2623E+02
     10.599  0.2394E+01  0.2398E+01  0.2664E+02  0.2663E+02
     10.763  0.1702E+01  0.1694E+01  0.2692E+02  0.2691E+02
     10.927  0.1535E+01  0.1534E+01  0.2717E+02  0.2716E+02
     11.091  0.1410E+01  0.1368E+01  0.2741E+02  0.2738E+02
     11.255  0.1335E+01  0.1341E+01  0.2763E+02  0.2761E+02
     11.419  0.9079E+00  0.1081E+01  0.2777E+02  0.2778E+02
     11.583  0.7004E+00  0.6638E+00  0.2789E+02  0.2789E+02
     11.747  0.4677E+00  0.4780E+00  0.2797E+02  0.2797E+02
     11.911  0.1838E+00  0.1631E+00  0.2800E+02  0.2800E+02
     12.075  0.1397E-01  0.8816E-02  0.2800E+02  0.2800E+02
     12.239  0.0000E+00  0.0000E+00  0.2800E+02  0.2800E+02
     12.403  0.0000E+00  0.0000E+00  0.2800E+02  0.2800E+02
     12.567  0.0000E+00  0.0000E+00  0.2800E+02  0.2800E+02
     12.731  0.0000E+00  0.0000E+00  0.2800E+02  0.2800E+02
     12.895  0.0000E+00  0.0000E+00  0.2800E+02  0.2800E+02
     13.059  0.0000E+00  0.0000E+00  0.2800E+02  0.2800E+02
     13.223  0.0000E+00  0.0000E+00  0.2800E+02  0.2800E+02
     13.387  0.0000E+00  0.0000E+00  0.2800E+02  0.2800E+02
     13.551  0.0000E+00  0.0000E+00  0.2800E+02  0.2800E+02
     13.715  0.0000E+00  0.0000E+00  0.2800E+02  0.2800E+02
     13.879  0.0000E+00  0.0000E+00  0.2800E+02  0.2800E+02
     14.043  0.0000E+00  0.0000E+00  0.2800E+02  0.2800E+02
     14.04271972    -35.14664057  301      6.81398858      1.00000000
    -35.147  0.0000E+00  0.0000E+00  0.0000E+00  0.0000E+00  0.0000E+00  0.0000E+00  0.0000E+00  0.0000E+00  0.0000E+00  0.0000E+00  0.0000E+00  0.0000E+00  0.0000E+00  0.0000E+00  0.0000E+00  0.0000E+00  0.0000E+00  0.0000E+00
    -34.983  0.0000E+00  0.0000E+00  0.0000E+00  0.0000E+00  0.0000E+00  0.0000E+00  0.0000E+00  0.0000E+00  0.0000E+00  0.0000E+00  0.0000E+00  0.0000E+00  0.0000E+00  0.0000E+00  0.0000E+00  0.0000E+00  0.0000E+00  0.0000E+00
    -34.819  0.0000E+00  0.0000E+00  0.0000E+00  0.0000E+00  0.0000E+00  0.0000E+00  0.0000E+00  0.0000E+00  0.0000E+00  0.0000E+00  0.0000E+00  0.0000E+00  0.0000E+00  0.0000E+00  0.0000E+00  0.0000E+00  0.0000E+00  0.0000E+00
    -34.655  0.0000E+00  0.0000E+00  0.0000E+00  0.0000E+00  0.0000E+00  0.0000E+00  0.0000E+00  0.0000E+00  0.0000E+00  0.0000E+00  0.0000E+00  0.0000E+00  0.0000E+00  0.0000E+00  0.0000E+00  0.0000E+00  0.0000E+00  0.0000E+00
    -34.491  0.0000E+00  0.0000E+00  0.0000E+00  0.0000E+00  0.0000E+00  0.0000E+00  0.0000E+00  0.0000E+00  0.0000E+00  0.0000E+00  0.0000E+00  0.0000E+00  0.0000E+00  0.0000E+00  0.0000E+00  0.0000E+00  0.0000E+00  0.0000E+00
    -34.327  0.0000E+00  0.0000E+00  0.0000E+00  0.0000E+00  0.0000E+00  0.0000E+00  0.0000E+00  0.0000E+00  0.0000E+00  0.0000E+00  0.0000E+00  0.0000E+00  0.0000E+00  0.0000E+00  0.0000E+00  0.0000E+00  0.0000E+00  0.0000E+00
    -34.163  0.0000E+00  0.0000E+00  0.0000E+00  0.0000E+00  0.0000E+00  0.0000E+00  0.0000E+00  0.0000E+00  0.0000E+00  0.0000E+00  0.0000E+00  0.0000E+00  0.0000E+00  0.0000E+00  0.0000E+00  0.0000E+00  0.0000E+00  0.0000E+00
    -33.999  0.0000E+00  0.0000E+00  0.0000E+00  0.0000E+00  0.0000E+00  0.0000E+00  0.0000E+00  0.0000E+00  0.0000E+00  0.0000E+00  0.0000E+00  0.0000E+00  0.0000E+00  0.0000E+00  0.0000E+00  0.0000E+00  0.0000E+00  0.0000E+00
    -33.835  0.0000E+00  0.0000E+00  0.0000E+00  0.0000E+00  0.0000E+00  0.0000E+00  0.0000E+00  0.0000E+00  0.0000E+00  0.0000E+00  0.0000E+00  0.0000E+00  0.0000E+00  0.0000E+00  0.0000E+00  0.0000E+00  0.0000E+00  0.0000E+00
    -33.671  0.0000E+00  0.0000E+00  0.0000E+00  0.0000E+00  0.0000E+00  0.0000E+00  0.0000E+00  0.0000E+00  0.0000E+00  0.0000E+00  0.0000E+00  0.0000E+00  0.0000E+00  0.0000E+00  0.0000E+00  0.0000E+00  0.0000E+00  0.0000E+00
    -33.507  0.0000E+00  0.0000E+00  0.0000E+00  0.0000E+00  0.0000E+00  0.0000E+00  0.0000E+00  0.0000E+00  0.0000E+00  0.0000E+00  0.0000E+00  0.0000E+00  0.0000E+00  0.0000E+00  0.0000E+00  0.0000E+00  0.0000E+00  0.0000E+00
    -33.343  0.9712E-03  0.9542E-03  0.1866E-10  0.1857E-10  0.2084E-12  0.2084E-12  0.1866E-10  0.1857E-10  0.1329E-13  0.1227E-13  0.3155E-13  0.3681E-13  0.1009E-08  0.9911E-09  0.3155E-13  0.3681E-13  0.1262E-10  0.1238E-10
    -33.179  0.2471E-01  0.2428E-01  0.4747E-09  0.4725E-09  0.5303E-11  0.5304E-11  0.4747E-09  0.4725E-09  0.3381E-12  0.3123E-12  0.8029E-12  0.9369E-12  0.2568E-07  0.2522E-07  0.8029E-12  0.9369E-12  0.3212E-09  0.3151E-09
    -33.015  0.5891E+00  0.5799E+00  0.1132E-07  0.1128E-07  0.1260E-09  0.1263E-09  0.1132E-07  0.1128E-07  0.8068E-11  0.7469E-11  0.1916E-10  0.2238E-10  0.6123E-06  0.6025E-06  0.1916E-10  0.2238E-10  0.7659E-08  0.7527E-08
    -32.851  0.3898E+01  0.3887E+01  0.7480E-07  0.7557E-07  0.8117E-09  0.8262E-09  0.7480E-07  0.7557E-07  0.5377E-10  0.5060E-10  0.1275E-09  0.1506E-09  0.4061E-05  0.4048E-05  0.1275E-09  0.1506E-09  0.5071E-07  0.5050E-07
    -32.687  0.1417E+01  0.1435E+01  0.2715E-07  0.2786E-07  0.2859E-09  0.2963E-09  0.2715E-07  0.2786E-07  0.1971E-10  0.1891E-10  0.4663E-10  0.5577E-10  0.1480E-05  0.1499E-05  0.4663E-10  0.5577E-10  0.1843E-07  0.1864E-07
    -32.523  0.7095E-01  0.7220E-01  0.1359E-08  0.1401E-08  0.1419E-10  0.1479E-10  0.1359E-08  0.1401E-08  0.9894E-12  0.9545E-12  0.2339E-11  0.2808E-11  0.7419E-07  0.7546E-07  0.2339E-11  0.2808E-11  0.9230E-09  0.9377E-09
    -32.359  0.0000E+00  0.0000E+00  0.0000E+00  0.0000E+00  0.0000E+00  0.0000E+00  0.0000E+00  0.0000E+00  0.0000E+00  0.0000E+00  0.0000E+00  0.0000E+00  0.0000E+00  0.0000E+00  0.0000E+00  0.0000E+00  0.0000E+00  0.0000E+00
    -32.195  0.0000E+00  0.0000E+00  0.0000E+00  0.0000E+00  0.0000E+00  0.0000E+00  0.0000E+00  0.0000E+00  0.0000E+00  0.0000E+00  0.0000E+00  0.0000E+00  0.0000E+00  0.0000E+00  0.0000E+00  0.0000E+00  0.0000E+00  0.0000E+00
    -32.031  0.0000E+00  0.0000E+00  0.0000E+00  0.0000E+00  0.0000E+00  0.0000E+00  0.0000E+00  0.0000E+00  0.0000E+00  0.0000E+00  0.0000E+00  0.0000E+00  0.0000E+00  0.0000E+00  0.0000E+00  0.0000E+00  0.0000E+00  0.0000E+00
    -31.867  0.0000E+00  0.0000E+00  0.0000E+00  0.0000E+00  0.0000E+00  0.0000E+00  0.0000E+00  0.0000E+00  0.0000E+00  0.0000E+00  0.0000E+00  0.0000E+00  0.0000E+00  0.0000E+00  0.0000E+00  0.0000E+00  0.0000E+00  0.0000E+00
    -31.703  0.0000E+00  0.0000E+00  0.0000E+00  0.0000E+00  0.0000E+00  0.0000E+00  0.0000E+00  0.0000E+00  0.0000E+00  0.0000E+00  0.0000E+00  0.0000E+00  0.0000E+00  0.0000E+00  0.0000E+00  0.0000E+00  0.0000E+00  0.0000E+00
    -31.539  0.0000E+00  0.0000E+00  0.0000E+00  0.0000E+00  0.0000E+00  0.0000E+00  0.0000E+00  0.0000E+00  0.0000E+00  0.0000E+00  0.0000E+00  0.0000E+00  0.0000E+00  0.0000E+00  0.0000E+00  0.0000E+00  0.0000E+00  0.0000E+00
    -31.375  0.0000E+00  0.0000E+00  0.0000E+00  0.0000E+00  0.0000E+00  0.0000E+00  0.0000E+00  0.0000E+00  0.0000E+00  0.0000E+00  0.0000E+00  0.0000E+00  0.0000E+00  0.0000E+00  0.0000E+00  0.0000E+00  0.0000E+00  0.0000E+00
    -31.211  0.0000E+00  0.0000E+00  0.0000E+00  0.0000E+00  0.0000E+00  0.0000E+00  0.0000E+00  0.0000E+00  0.0000E+00  0.0000E+00  0.0000E+00  0.0000E+00  0.0000E+00  0.0000E+00  0.0000E+00  0.0000E+00  0.0000E+00  0.0000E+00
    -31.048  0.0000E+00  0.0000E+00  0.0000E+00  0.0000E+00  0.0000E+00  0.0000E+00  0.0000E+00  0.0000E+00  0.0000E+00  0.0000E+00  0.0000E+00  0.0000E+00  0.0000E+00  0.0000E+00  0.0000E+00  0.0000E+00  0.0000E+00  0.0000E+00
    -30.884  0.0000E+00  0.0000E+00  0.0000E+00  0.0000E+00  0.0000E+00  0.0000E+00  0.0000E+00  0.0000E+00  0.0000E+00  0.0000E+00  0.0000E+00  0.0000E+00  0.0000E+00  0.0000E+00  0.0000E+00  0.0000E+00  0.0000E+00  0.0000E+00
    -30.720  0.0000E+00  0.0000E+00  0.0000E+00  0.0000E+00  0.0000E+00  0.0000E+00  0.0000E+00  0.0000E+00  0.0000E+00  0.0000E+00  0.0000E+00  0.0000E+00  0.0000E+00  0.0000E+00  0.0000E+00  0.0000E+00  0.0000E+00  0.0000E+00
    -30.556  0.0000E+00  0.0000E+00  0.0000E+00  0.0000E+00  0.0000E+00  0.0000E+00  0.0000E+00  0.0000E+00  0.0000E+00  0.0000E+00  0.0000E+00  0.0000E+00  0.0000E+00  0.0000E+00  0.0000E+00  0.0000E+00  0.0000E+00  0.0000E+00
    -30.392  0.0000E+00  0.0000E+00  0.0000E+00  0.0000E+00  0.0000E+00  0.0000E+00  0.0000E+00  0.0000E+00  0.0000E+00  0.0000E+00  0.0000E+00  0.0000E+00  0.0000E+00  0.0000E+00  0.0000E+00  0.0000E+00  0.0000E+00  0.0000E+00
    -30.228  0.0000E+00  0.0000E+00  0.0000E+00  0.0000E+00  0.0000E+00  0.0000E+00  0.0000E+00  0.0000E+00  0.0000E+00  0.0000E+00  0.0000E+00  0.0000E+00  0.0000E+00  0.0000E+00  0.0000E+00  0.0000E+00  0.0000E+00  0.0000E+00
    -30.064  0.0000E+00  0.0000E+00  0.0000E+00  0.0000E+00  0.0000E+00  0.0000E+00  0.0000E+00  0.0000E+00  0.0000E+00  0.0000E+00  0.0000E+00  0.0000E+00  0.0000E+00  0.0000E+00  0.0000E+00  0.0000E+00  0.0000E+00  0.0000E+00
    -29.900  0.0000E+00  0.0000E+00  0.0000E+00  0.0000E+00  0.0000E+00  0.0000E+00  0.0000E+00  0.0000E+00  0.0000E+00  0.0000E+00  0.0000E+00  0.0000E+00  0.0000E+00  0.0000E+00  0.0000E+00  0.0000E+00  0.0000E+00  0.0000E+00
    -29.736  0.0000E+00  0.0000E+00  0.0000E+00  0.0000E+00  0.0000E+00  0.0000E+00  0.0000E+00  0.0000E+00  0.0000E+00  0.0000E+00  0.0000E+00  0.0000E+00  0.0000E+00  0.0000E+00  0.0000E+00  0.0000E+00  0.0000E+00  0.0000E+00
    -29.572  0.0000E+00  0.0000E+00  0.0000E+00  0.0000E+00  0.0000E+00  0.0000E+00  0.0000E+00  0.0000E+00  0.0000E+00  0.0000E+00  0.0000E+00  0.0000E+00  0.0000E+00  0.0000E+00  0.0000E+00  0.0000E+00  0.0000E+00  0.0000E+00
    -29.408  0.0000E+00  0.0000E+00  0.0000E+00  0.0000E+00  0.0000E+00  0.0000E+00  0.0000E+00  0.0000E+00  0.0000E+00  0.0000E+00  0.0000E+00  0.0000E+00  0.0000E+00  0.0000E+00  0.0000E+00  0.0000E+00  0.0000E+00  0.0000E+00
    -29.244  0.0000E+00  0.0000E+00  0.0000E+00  0.0000E+00  0.0000E+00  0.0000E+00  0.0000E+00  0.0000E+00  0.0000E+00  0.0000E+00  0.0000E+00  0.0000E+00  0.0000E+00  0.0000E+00  0.0000E+00  0.0000E+00  0.0000E+00  0.0000E+00
    -29.080  0.0000E+00  0.0000E+00  0.0000E+00  0.0000E+00  0.0000E+00  0.0000E+00  0.0000E+00  0.0000E+00  0.0000E+00  0.0000E+00  0.0000E+00  0.0000E+00  0.0000E+00  0.0000E+00  0.0000E+00  0.0000E+00  0.0000E+00  0.0000E+00
    -28.916  0.0000E+00  0.0000E+00  0.0000E+00  0.0000E+00  0.0000E+00  0.0000E+00  0.0000E+00  0.0000E+00  0.0000E+00  0.0000E+00  0.0000E+00  0.0000E+00  0.0000E+00  0.0000E+00  0.0000E+00  0.0000E+00  0.0000E+00  0.0000E+00
    -28.752  0.0000E+00  0.0000E+00  0.0000E+00  0.0000E+00  0.0000E+00  0.0000E+00  0.0000E+00  0.0000E+00  0.0000E+00  0.0000E+00  0.0000E+00  0.0000E+00  0.0000E+00  0.0000E+00  0.0000E+00  0.0000E+00  0.0000E+00  0.0000E+00
    -28.588  0.0000E+00  0.0000E+00  0.0000E+00  0.0000E+00  0.0000E+00  0.0000E+00  0.0000E+00  0.0000E+00  0.0000E+00  0.0000E+00  0.0000E+00  0.0000E+00  0.0000E+00  0.0000E+00  0.0000E+00  0.0000E+00  0.0000E+00  0.0000E+00
    -28.424  0.0000E+00  0.0000E+00  0.0000E+00  0.0000E+00  0.0000E+00  0.0000E+00  0.0000E+00  0.0000E+00  0.0000E+00  0.0000E+00  0.0000E+00  0.0000E+00  0.0000E+00  0.0000E+00  0.0000E+00  0.0000E+00  0.0000E+00  0.0000E+00
    -28.260  0.0000E+00  0.0000E+00  0.0000E+00  0.0000E+00  0.0000E+00  0.0000E+00  0.0000E+00  0.0000E+00  0.0000E+00  0.0000E+00  0.0000E+00  0.0000E+00  0.0000E+00  0.0000E+00  0.0000E+00  0.0000E+00  0.0000E+00  0.0000E+00
    -28.096  0.0000E+00  0.0000E+00  0.0000E+00  0.0000E+00  0.0000E+00  0.0000E+00  0.0000E+00  0.0000E+00  0.0000E+00  0.0000E+00  0.0000E+00  0.0000E+00  0.0000E+00  0.0000E+00  0.0000E+00  0.0000E+00  0.0000E+00  0.0000E+00
    -27.932  0.0000E+00  0.0000E+00  0.0000E+00  0.0000E+00  0.0000E+00  0.0000E+00  0.0000E+00  0.0000E+00  0.0000E+00  0.0000E+00  0.0000E+00  0.0000E+00  0.0000E+00  0.0000E+00  0.0000E+00  0.0000E+00  0.0000E+00  0.0000E+00
    -27.768  0.0000E+00  0.0000E+00  0.0000E+00  0.0000E+00  0.0000E+00  0.0000E+00  0.0000E+00  0.0000E+00  0.0000E+00  0.0000E+00  0.0000E+00  0.0000E+00  0.0000E+00  0.0000E+00  0.0000E+00  0.0000E+00  0.0000E+00  0.0000E+00
    -27.604  0.0000E+00  0.0000E+00  0.0000E+00  0.0000E+00  0.0000E+00  0.0000E+00  0.0000E+00  0.0000E+00  0.0000E+00  0.0000E+00  0.0000E+00  0.0000E+00  0.0000E+00  0.0000E+00  0.0000E+00  0.0000E+00  0.0000E+00  0.0000E+00
    -27.440  0.0000E+00  0.0000E+00  0.0000E+00  0.0000E+00  0.0000E+00  0.0000E+00  0.0000E+00  0.0000E+00  0.0000E+00  0.0000E+00  0.0000E+00  0.0000E+00  0.0000E+00  0.0000E+00  0.0000E+00  0.0000E+00  0.0000E+00  0.0000E+00
    -27.276  0.0000E+00  0.0000E+00  0.0000E+00  0.0000E+00  0.0000E+00  0.0000E+00  0.0000E+00  0.0000E+00  0.0000E+00  0.0000E+00  0.0000E+00  0.0000E+00  0.0000E+00  0.0000E+00  0.0000E+00  0.0000E+00  0.0000E+00  0.0000E+00
    -27.112  0.0000E+00  0.0000E+00  0.0000E+00  0.0000E+00  0.0000E+00  0.0000E+00  0.0000E+00  0.0000E+00  0.0000E+00  0.0000E+00  0.0000E+00  0.0000E+00  0.0000E+00  0.0000E+00  0.0000E+00  0.0000E+00  0.0000E+00  0.0000E+00
    -26.948  0.0000E+00  0.0000E+00  0.0000E+00  0.0000E+00  0.0000E+00  0.0000E+00  0.0000E+00  0.0000E+00  0.0000E+00  0.0000E+00  0.0000E+00  0.0000E+00  0.0000E+00  0.0000E+00  0.0000E+00  0.0000E+00  0.0000E+00  0.0000E+00