   8   8   1   0
  0.2002474E+02  0.4284234E-09  0.4284234E-09  0.8727917E-09  0.5000000E-15
  1.000000000000000E-004
  CAR 
 unknown system                          
     12.67348793    -36.54824729  301      5.78389306      1.00000000
    -36.548  0.0000E+00  0.0000E+00  0.0000E+00  0.0000E+00
    -36.384  0.0000E+00  0.0000E+00  0.0000E+00  0.0000E+00
    -36.220  0.0000E+00  0.0000E+00  0.0000E+00  0.0000E+00
    -36.056  0.0000E+00  0.0000E+00  0.0000E+00  0.0000E+00
    -35.892  0.0000E+00  0.0000E+00  0.0000E+00  0.0000E+00
    -35.728  0.0000E+00  0.0000E+00  0.0000E+00  0.0000E+00
    -35.564  0.0000E+00  0.0000E+00  0.0000E+00  0.0000E+00
    -35.400  0.0000E+00  0.0000E+00  0.0000E+00  0.0000E+00
    -35.236  0.0000E+00  0.0000E+00  0.0000E+00  0.0000E+00
    -35.072  0.0000E+00  0.0000E+00  0.0000E+00  0.0000E+00
    -34.908  0.0000E+00  0.0000E+00  0.0000E+00  0.0000E+00
    -34.743  0.2044E-02  0.2023E-02  0.3354E-03  0.3319E-03
    -34.579  0.5213E-01  0.5158E-01  0.8888E-02  0.8796E-02
    -34.415  0.1240E+01  0.1229E+01  0.2124E+00  0.2104E+00
    -34.251  0.7966E+01  0.7955E+01  0.1519E+01  0.1515E+01
    -34.087  0.2786E+01  0.2808E+01  0.1977E+01  0.1976E+01
    -33.923  0.1378E+00  0.1392E+00  0.1999E+01  0.1999E+01
    -33.759  0.0000E+00  0.0000E+00  0.2000E+01  0.2000E+01
    -33.595  0.0000E+00  0.0000E+00  0.2000E+01  0.2000E+01
    -33.431  0.0000E+00  0.0000E+00  0.2000E+01  0.2000E+01
    -33.267  0.0000E+00  0.0000E+00  0.2000E+01  0.2000E+01
    -33.103  0.0000E+00  0.0000E+00  0.2000E+01  0.2000E+01
    -32.939  0.0000E+00  0.0000E+00  0.2000E+01  0.2000E+01
    -32.775  0.0000E+00  0.0000E+00  0.2000E+01  0.2000E+01
    -32.611  0.0000E+00  0.0000E+00  0.2000E+01  0.2000E+01
    -32.446  0.0000E+00  0.0000E+00  0.2000E+01  0.2000E+01
    -32.282  0.0000E+00  0.0000E+00  0.2000E+01  0.2000E+01
    -32.118  0.0000E+00  0.0000E+00  0.2000E+01  0.2000E+01
    -31.954  0.0000E+00  0.0000E+00  0.2000E+01  0.2000E+01
    -31.790  0.0000E+00  0.0000E+00  0.2000E+01  0.2000E+01
    -31.626  0.0000E+00  0.0000E+00  0.2000E+01  0.2000E+01
    -31.462  0.0000E+00  0.0000E+00  0.2000E+01  0.2000E+01
    -31.298  0.0000E+00  0.0000E+00  0.2000E+01  0.2000E+01
    -31.134  0.0000E+00  0.0000E+00  0.2000E+01  0.2000E+01
    -30.970  0.0000E+00  0.0000E+00  0.2000E+01  0.2000E+01
    -30.806  0.0000E+00  0.0000E+00  0.2000E+01  0.2000E+01
    -30.642  0.0000E+00  0.0000E+00  0.2000E+01  0.2000E+01
    -30.478  0.0000E+00  0.0000E+00  0.2000E+01  0.2000E+01
    -30.313  0.0000E+00  0.0000E+00  0.2000E+01  0.2000E+01
    -30.149  0.0000E+00  0.0000E+00  0.2000E+01  0.2000E+01
    -29.985  0.0000E+00  0.0000E+00  0.2000E+01  0.2000E+01
    -29.821  0.0000E+00  0.0000E+00  0.2000E+01  0.2000E+01
    -29.657  0.0000E+00  0.0000E+00  0.2000E+01  0.2000E+01
    -29.493  0.0000E+00  0.0000E+00  0.2000E+01  0.2000E+01
    -29.329  0.0000E+00  0.0000E+00  0.2000E+01  0.2000E+01
    -29.165  0.0000E+00  0.0000E+00  0.2000E+01  0.2000E+01
    -29.001  0.0000E+00  0.0000E+00  0.2000E+01  0.2000E+01
    -28.837  0.0000E+00  0.0000E+00  0.2000E+01  0.2000E+01
    -28.673  0.0000E+00  0.0000E+00  0.2000E+01  0.2000E+01
    -28.509  0.0000E+00  0.0000E+00  0.2000E+01  0.2000E+01
    -28.345  0.0000E+00  0.0000E+00  0.2000E+01  0.2000E+01
    -28.181  0.0000E+00  0.0000E+00  0.2000E+01  0.2000E+01
    -28.016  0.0000E+00  0.0000E+00  0.2000E+01  0.2000E+01
    -27.852  0.0000E+00  0.0000E+00  0.2000E+01  0.2000E+01
    -27.688  0.0000E+00  0.0000E+00  0.2000E+01  0.2000E+01
    -27.524  0.0000E+00  0.0000E+00  0.2000E+01  0.2000E+01
    -27.360  0.0000E+00  0.0000E+00  0.2000E+01  0.2000E+01
    -27.196  0.0000E+00  0.0000E+00  0.2000E+01  0.2000E+01
    -27.032  0.0000E+00  0.0000E+00  0.2000E+01  0.2000E+01
    -26.868  0.0000E+00  0.0000E+00  0.2000E+01  0.2000E+01
    -26.704  0.0000E+00  0.0000E+00  0.2000E+01  0.2000E+01
    -26.540  0.0000E+00  0.0000E+00  0.2000E+01  0.2000E+01
    -26.376  0.0000E+00  0.0000E+00  0.2000E+01  0.2000E+01
    -26.212  0.0000E+00  0.0000E+00  0.2000E+01  0.2000E+01
    -26.048  0.0000E+00  0.0000E+00  0.2000E+01  0.2000E+01
    -25.884  0.0000E+00  0.0000E+00  0.2000E+01  0.2000E+01
    -25.719  0.0000E+00  0.0000E+00  0.2000E+01  0.2000E+01
    -25.555  0.0000E+00  0.0000E+00  0.2000E+01  0.2000E+01
    -25.391  0.0000E+00  0.0000E+00  0.2000E+01  0.2000E+01
    -25.227  0.0000E+00  0.0000E+00  0.2000E+01  0.2000E+01
    -25.063  0.0000E+00  0.0000E+00  0.2000E+01  0.2000E+01
    -24.899  0.0000E+00  0.0000E+00  0.2000E+01  0.2000E+01
    -24.735  0.0000E+00  0.0000E+00  0.2000E+01  0.2000E+01
    -24.571  0.0000E+00  0.0000E+00  0.2000E+01  0.2000E+01
    -24.407  0.0000E+00  0.0000E+00  0.2000E+01  0.2000E+01
    -24.243  0.0000E+00  0.0000E+00  0.2000E+01  0.2000E+01
    -24.079  0.0000E+00  0.0000E+00  0.2000E+01  0.2000E+01
    -23.915  0.0000E+00  0.0000E+00  0.2000E+01  0.2000E+01
    -23.751  0.0000E+00  0.0000E+00  0.2000E+01  0.2000E+01
    -23.587  0.0000E+00  0.0000E+00  0.2000E+01  0.2000E+01
    -23.422  0.0000E+00  0.0000E+00  0.2000E+01  0.2000E+01
    -23.258  0.0000E+00  0.0000E+00  0.2000E+01  0.2000E+01
    -23.094  0.0000E+00  0.0000E+00  0.2000E+01  0.2000E+01
    -22.930  0.0000E+00  0.0000E+00  0.2000E+01  0.2000E+01
    -22.766  0.0000E+00  0.0000E+00  0.2000E+01  0.2000E+01
    -22.602  0.0000E+00  0.0000E+00  0.2000E+01  0.2000E+01
    -22.438  0.0000E+00  0.0000E+00  0.2000E+01  0.2000E+01
    -22.274  0.0000E+00  0.0000E+00  0.2000E+01  0.2000E+01
    -22.110  0.0000E+00  0.0000E+00  0.2000E+01  0.2000E+01
    -21.946  0.0000E+00  0.0000E+00  0.2000E+01  0.2000E+01
    -21.782  0.0000E+00  0.0000E+00  0.2000E+01  0.2000E+01
    -21.618  0.0000E+00  0.0000E+00  0.2000E+01  0.2000E+01
    -21.454  0.0000E+00  0.0000E+00  0.2000E+01  0.2000E+01
    -21.290  0.0000E+00  0.0000E+00  0.2000E+01  0.2000E+01
    -21.125  0.0000E+00  0.0000E+00  0.2000E+01  0.2000E+01
    -20.961  0.0000E+00  0.0000E+00  0.2000E+01  0.2000E+01
    -20.797  0.0000E+00  0.0000E+00  0.2000E+01  0.2000E+01
    -20.633  0.0000E+00  0.0000E+00  0.2000E+01  0.2000E+01
    -20.469  0.0000E+00  0.0000E+00  0.2000E+01  0.2000E+01
    -20.305  0.0000E+00  0.0000E+00  0.2000E+01  0.2000E+01
    -20.141  0.0000E+00  0.0000E+00  0.2000E+01  0.2000E+01
    -19.977  0.0000E+00  0.0000E+00  0.2000E+01  0.2000E+01
    -19.813  0.0000E+00  0.0000E+00  0.2000E+01  0.2000E+01
    -19.649  0.0000E+00  0.0000E+00  0.2000E+01  0.2000E+01
    -19.485  0.0000E+00  0.0000E+00  0.2000E+01  0.2000E+01
    -19.321  0.0000E+00  0.0000E+00  0.2000E+01  0.2000E+01
    -19.157  0.0000E+00  0.0000E+00  0.2000E+01  0.2000E+01
    -18.992  0.0000E+00  0.0000E+00  0.2000E+01  0.2000E+01
    -18.828  0.0000E+00  0.0000E+00  0.2000E+01  0.2000E+01
    -18.664  0.0000E+00  0.0000E+00  0.2000E+01  0.2000E+01
    -18.500  0.0000E+00  0.0000E+00  0.2000E+01  0.2000E+01
    -18.336  0.0000E+00  0.0000E+00  0.2000E+01  0.2000E+01
    -18.172  0.0000E+00  0.0000E+00  0.2000E+01  0.2000E+01
    -18.008  0.0000E+00  0.0000E+00  0.2000E+01  0.2000E+01
    -17.844  0.0000E+00  0.0000E+00  0.2000E+01  0.2000E+01
    -17.680  0.0000E+00  0.0000E+00  0.2000E+01  0.2000E+01
    -17.516  0.0000E+00  0.0000E+00  0.2000E+01  0.2000E+01
    -17.352  0.0000E+00  0.0000E+00  0.2000E+01  0.2000E+01
    -17.188  0.0000E+00  0.0000E+00  0.2000E+01  0.2000E+01
    -17.024  0.0000E+00  0.0000E+00  0.2000E+01  0.2000E+01
    -16.860  0.0000E+00  0.0000E+00  0.2000E+01  0.2000E+01
    -16.695  0.0000E+00  0.0000E+00  0.2000E+01  0.2000E+01
    -16.531  0.0000E+00  0.0000E+00  0.2000E+01  0.2000E+01
    -16.367  0.0000E+00  0.0000E+00  0.2000E+01  0.2000E+01
    -16.203  0.0000E+00  0.0000E+00  0.2000E+01  0.2000E+01
    -16.039  0.1903E-03  0.1875E-03  0.2000E+01  0.2000E+01
    -15.875  0.8626E-02  0.8504E-02  0.2001E+01  0.2001E+01
    -15.711  0.2240E+00  0.2208E+00  0.2038E+01  0.2038E+01
    -15.547  0.4905E+01  0.4849E+01  0.2843E+01  0.2833E+01
    -15.383  0.2334E+02  0.2332E+02  0.6673E+01  0.6659E+01
    -15.219  0.7677E+01  0.7753E+01  0.7932E+01  0.7931E+01
    -15.055  0.3073E+00  0.3173E+00  0.7998E+01  0.7998E+01
    -14.891  0.0000E+00  0.0000E+00  0.8000E+01  0.8000E+01
    -14.727  0.0000E+00  0.0000E+00  0.8000E+01  0.8000E+01
    -14.563  0.0000E+00  0.0000E+00  0.8000E+01  0.8000E+01
    -14.398  0.0000E+00  0.0000E+00  0.8000E+01  0.8000E+01
    -14.234  0.0000E+00  0.0000E+00  0.8000E+01  0.8000E+01
    -14.070  0.0000E+00  0.0000E+00  0.8000E+01  0.8000E+01
    -13.906  0.0000E+00  0.0000E+00  0.8000E+01  0.8000E+01
    -13.742  0.0000E+00  0.0000E+00  0.8000E+01  0.8000E+01
    -13.578  0.0000E+00  0.0000E+00  0.8000E+01  0.8000E+01
    -13.414  0.0000E+00  0.0000E+00  0.8000E+01  0.8000E+01
    -13.250  0.0000E+00  0.0000E+00  0.8000E+01  0.8000E+01
    -13.086  0.0000E+00  0.0000E+00  0.8000E+01  0.8000E+01
    -12.922  0.0000E+00  0.0000E+00  0.8000E+01  0.8000E+01
    -12.758  0.0000E+00  0.0000E+00  0.8000E+01  0.8000E+01
    -12.594  0.0000E+00  0.0000E+00  0.8000E+01  0.8000E+01
    -12.430  0.0000E+00  0.0000E+00  0.8000E+01  0.8000E+01
    -12.266  0.0000E+00  0.0000E+00  0.8000E+01  0.8000E+01
    -12.101  0.0000E+00  0.0000E+00  0.8000E+01  0.8000E+01
    -11.937  0.0000E+00  0.0000E+00  0.8000E+01  0.8000E+01
    -11.773  0.0000E+00  0.0000E+00  0.8000E+01  0.8000E+01
    -11.609  0.0000E+00  0.0000E+00  0.8000E+01  0.8000E+01
    -11.445  0.0000E+00  0.0000E+00  0.8000E+01  0.8000E+01
    -11.281  0.0000E+00  0.0000E+00  0.8000E+01  0.8000E+01
    -11.117  0.0000E+00  0.0000E+00  0.8000E+01  0.8000E+01
    -10.953  0.0000E+00  0.0000E+00  0.8000E+01  0.8000E+01
    -10.789  0.0000E+00  0.0000E+00  0.8000E+01  0.8000E+01
    -10.625  0.0000E+00  0.0000E+00  0.8000E+01  0.8000E+01
    -10.461  0.0000E+00  0.0000E+00  0.8000E+01  0.8000E+01
    -10.297  0.0000E+00  0.0000E+00  0.8000E+01  0.8000E+01
    -10.133  0.0000E+00  0.0000E+00  0.8000E+01  0.8000E+01
     -9.969  0.0000E+00  0.0000E+00  0.8000E+01  0.8000E+01
     -9.804  0.0000E+00  0.0000E+00  0.8000E+01  0.8000E+01
     -9.640  0.0000E+00  0.0000E+00  0.8000E+01  0.8000E+01
     -9.476  0.0000E+00  0.0000E+00  0.8000E+01  0.8000E+01
     -9.312  0.0000E+00  0.0000E+00  0.8000E+01  0.8000E+01
     -9.148  0.0000E+00  0.0000E+00  0.8000E+01  0.8000E+01
     -8.984  0.0000E+00  0.0000E+00  0.8000E+01  0.8000E+01
     -8.820  0.0000E+00  0.0000E+00  0.8000E+01  0.8000E+01
     -8.656  0.0000E+00  0.0000E+00  0.8000E+01  0.8000E+01
     -8.492  0.0000E+00  0.0000E+00  0.8000E+01  0.8000E+01
     -8.328  0.0000E+00  0.0000E+00  0.8000E+01  0.8000E+01
     -8.164  0.0000E+00  0.0000E+00  0.8000E+01  0.8000E+01
     -8.000  0.0000E+00  0.0000E+00  0.8000E+01  0.8000E+01
     -7.836  0.0000E+00  0.0000E+00  0.8000E+01  0.8000E+01
     -7.671  0.0000E+00  0.0000E+00  0.8000E+01  0.8000E+01
     -7.507  0.0000E+00  0.0000E+00  0.8000E+01  0.8000E+01
     -7.343  0.0000E+00  0.0000E+00  0.8000E+01  0.8000E+01
     -7.179  0.0000E+00  0.0000E+00  0.8000E+01  0.8000E+01
     -7.015  0.0000E+00  0.0000E+00  0.8000E+01  0.8000E+01
     -6.851  0.0000E+00  0.0000E+00  0.8000E+01  0.8000E+01
     -6.687  0.0000E+00  0.0000E+00  0.8000E+01  0.8000E+01
     -6.523  0.0000E+00  0.0000E+00  0.8000E+01  0.8000E+01
     -6.359  0.0000E+00  0.0000E+00  0.8000E+01  0.8000E+01
     -6.195  0.0000E+00  0.0000E+00  0.8000E+01  0.8000E+01
     -6.031  0.0000E+00  0.0000E+00  0.8000E+01  0.8000E+01
     -5.867  0.0000E+00  0.0000E+00  0.8000E+01  0.8000E+01
     -5.703  0.0000E+00  0.0000E+00  0.8000E+01  0.8000E+01
     -5.539  0.0000E+00  0.0000E+00  0.8000E+01  0.8000E+01
     -5.374  0.0000E+00  0.0000E+00  0.8000E+01  0.8000E+01
     -5.210  0.0000E+00  0.0000E+00  0.8000E+01  0.8000E+01
     -5.046  0.0000E+00  0.0000E+00  0.8000E+01  0.8000E+01
     -4.882  0.0000E+00  0.0000E+00  0.8000E+01  0.8000E+01
     -4.718  0.0000E+00  0.0000E+00  0.8000E+01  0.8000E+01
     -4.554  0.0000E+00  0.0000E+00  0.8000E+01  0.8000E+01
     -4.390  0.0000E+00  0.0000E+00  0.8000E+01  0.8000E+01
     -4.226  0.0000E+00  0.0000E+00  0.8000E+01  0.8000E+01
     -4.062  0.0000E+00  0.0000E+00  0.8000E+01  0.8000E+01
     -3.898  0.0000E+00  0.0000E+00  0.8000E+01  0.8000E+01
     -3.734  0.0000E+00  0.0000E+00  0.8000E+01  0.8000E+01
     -3.570  0.1191E-05  0.1143E-05  0.8000E+01  0.8000E+01
     -3.406  0.5484E-04  0.5262E-04  0.8000E+01  0.8000E+01
     -3.242  0.1446E-02  0.1388E-02  0.8000E+01  0.8000E+01
     -3.077  0.2785E-01  0.2700E-01  0.8005E+01  0.8005E+01
     -2.913  0.1429E+00  0.1412E+00  0.8028E+01  0.8028E+01
     -2.749  0.2613E+00  0.2604E+00  0.8071E+01  0.8071E+01
     -2.585  0.3438E+00  0.3426E+00  0.8128E+01  0.8127E+01
     -2.421  0.4146E+00  0.4140E+00  0.8196E+01  0.8195E+01
     -2.257  0.4610E+00  0.4597E+00  0.8272E+01  0.8271E+01
     -2.093  0.5525E+00  0.5522E+00  0.8362E+01  0.8361E+01
     -1.929  0.5684E+00  0.5684E+00  0.8456E+01  0.8455E+01
     -1.765  0.6604E+00  0.6591E+00  0.8564E+01  0.8563E+01
     -1.601  0.7392E+00  0.7385E+00  0.8686E+01  0.8684E+01
     -1.437  0.7629E+00  0.7630E+00  0.8811E+01  0.8810E+01
     -1.273  0.8530E+00  0.8512E+00  0.8952E+01  0.8950E+01
     -1.109  0.8947E+00  0.8964E+00  0.9099E+01  0.9097E+01
     -0.945  0.8845E+00  0.8839E+00  0.9244E+01  0.9243E+01
     -0.780  0.9018E+00  0.9023E+00  0.9393E+01  0.9391E+01
     -0.616  0.1014E+01  0.1014E+01  0.9560E+01  0.9558E+01
     -0.452  0.7926E+00  0.7949E+00  0.9690E+01  0.9688E+01
     -0.288  0.8939E+00  0.8905E+00  0.9837E+01  0.9835E+01
     -0.124  0.1133E+01  0.1130E+01  0.1002E+02  0.1002E+02
      0.040  0.1176E+01  0.1176E+01  0.1022E+02  0.1021E+02
      0.204  0.1264E+01  0.1264E+01  0.1042E+02  0.1042E+02
      0.368  0.1140E+01  0.1140E+01  0.1061E+02  0.1061E+02
      0.532  0.1158E+01  0.1161E+01  0.1080E+02  0.1080E+02
      0.696  0.8722E+00  0.8747E+00  0.1095E+02  0.1094E+02
      0.860  0.9143E+00  0.9127E+00  0.1110E+02  0.1109E+02
      1.024  0.9833E+00  0.9811E+00  0.1126E+02  0.1126E+02
      1.188  0.1268E+01  0.1265E+01  0.1147E+02  0.1146E+02
      1.352  0.1316E+01  0.1316E+01  0.1168E+02  0.1168E+02
      1.517  0.1278E+01  0.1278E+01  0.1189E+02  0.1189E+02
      1.681  0.1541E+01  0.1537E+01  0.1215E+02  0.1214E+02
      1.845  0.1286E+01  0.1293E+01  0.1236E+02  0.1236E+02
      2.009  0.1116E+01  0.1112E+01  0.1254E+02  0.1254E+02
      2.173  0.1294E+01  0.1296E+01  0.1275E+02  0.1275E+02
      2.337  0.1049E+01  0.1053E+01  0.1293E+02  0.1293E+02
      2.501  0.9639E+00  0.9599E+00  0.1309E+02  0.1308E+02
      2.665  0.1401E+01  0.1397E+01  0.1332E+02  0.1331E+02
      2.829  0.1320E+01  0.1321E+01  0.1353E+02  0.1353E+02
      2.993  0.1154E+01  0.1158E+01  0.1372E+02  0.1372E+02
      3.157  0.1218E+01  0.1212E+01  0.1392E+02  0.1392E+02
      3.321  0.1678E+01  0.1672E+01  0.1420E+02  0.1420E+02
      3.485  0.1733E+01  0.1737E+01  0.1448E+02  0.1448E+02
      3.650  0.1606E+01  0.1605E+01  0.1475E+02  0.1474E+02
      3.814  0.1725E+01  0.1724E+01  0.1503E+02  0.1503E+02
      3.978  0.1690E+01  0.1691E+01  0.1531E+02  0.1531E+02
      4.142  0.1731E+01  0.1732E+01  0.1560E+02  0.1559E+02
      4.306  0.1740E+01  0.1738E+01  0.1588E+02  0.1588E+02
      4.470  0.1955E+01  0.1954E+01  0.1620E+02  0.1620E+02
      4.634  0.2249E+01  0.2247E+01  0.1657E+02  0.1657E+02
      4.798  0.2241E+01  0.2241E+01  0.1694E+02  0.1694E+02
      4.962  0.2267E+01  0.2266E+01  0.1731E+02  0.1731E+02
      5.126  0.2490E+01  0.2487E+01  0.1772E+02  0.1772E+02
      5.290  0.2051E+01  0.2058E+01  0.1806E+02  0.1806E+02
      5.454  0.1991E+01  0.1991E+01  0.1839E+02  0.1839E+02
      5.618  0.1771E+01  0.1772E+01  0.1868E+02  0.1868E+02
      5.782  0.1936E+01  0.1934E+01  0.1900E+02  0.1900E+02
      5.947  0.1939E+01  0.1938E+01  0.1932E+02  0.1931E+02
      6.111  0.2142E+01  0.2140E+01  0.1967E+02  0.1967E+02
      6.275  0.1937E+01  0.1943E+01  0.1999E+02  0.1999E+02
      6.439  0.1785E+01  0.1778E+01  0.2028E+02  0.2028E+02
      6.603  0.2111E+01  0.2113E+01  0.2063E+02  0.2063E+02
      6.767  0.1869E+01  0.1872E+01  0.2094E+02  0.2093E+02
      6.931  0.1551E+01  0.1557E+01  0.2119E+02  0.2119E+02
      7.095  0.1524E+01  0.1521E+01  0.2144E+02  0.2144E+02
      7.259  0.1492E+01  0.1496E+01  0.2169E+02  0.2169E+02
      7.423  0.1373E+01  0.1372E+01  0.2192E+02  0.2191E+02
      7.587  0.1508E+01  0.1504E+01  0.2216E+02  0.2216E+02
      7.751  0.1870E+01  0.1866E+01  0.2247E+02  0.2247E+02
      7.915  0.2202E+01  0.2197E+01  0.2283E+02  0.2283E+02
      8.079  0.2295E+01  0.2296E+01  0.2321E+02  0.2321E+02
      8.244  0.2671E+01  0.2657E+01  0.2365E+02  0.2364E+02
      8.408  0.3209E+01  0.3202E+01  0.2418E+02  0.2417E+02
      8.572  0.2828E+01  0.2807E+01  0.2464E+02  0.2463E+02
      8.736  0.3173E+01  0.3156E+01  0.2516E+02  0.2515E+02
      8.900  0.2894E+01  0.2933E+01  0.2564E+02  0.2563E+02
      9.064  0.2887E+01  0.2885E+01  0.2611E+02  0.2611E+02
      9.228  0.2637E+01  0.2584E+01  0.2655E+02  0.2653E+02
      9.392  0.2163E+01  0.2163E+01  0.2690E+02  0.2689E+02
      9.556  0.1718E+01  0.1720E+01  0.2719E+02  0.2717E+02
      9.720  0.1531E+01  0.1433E+01  0.2744E+02  0.2741E+02
      9.884  0.1171E+01  0.1237E+01  0.2763E+02  0.2761E+02
     10.048  0.8054E+00  0.9224E+00  0.2777E+02  0.2776E+02
     10.212  0.7314E+00  0.7572E+00  0.2789E+02  0.2789E+02
     10.376  0.5451E+00  0.5382E+00  0.2798E+02  0.2798E+02
     10.541  0.1331E+00  0.1361E+00  0.2800E+02  0.2800E+02
     10.705  0.7901E-02  0.6505E-02  0.2800E+02  0.2800E+02
     10.869  0.0000E+00  0.0000E+00  0.2800E+02  0.2800E+02
     11.033  0.0000E+00  0.0000E+00  0.2800E+02  0.2800E+02
     11.197  0.0000E+00  0.0000E+00  0.2800E+02  0.2800E+02
     11.361  0.0000E+00  0.0000E+00  0.2800E+02  0.2800E+02
     11.525  0.0000E+00  0.0000E+00  0.2800E+02  0.2800E+02
     11.689  0.0000E+00  0.0000E+00  0.2800E+02  0.2800E+02
     11.853  0.0000E+00  0.0000E+00  0.2800E+02  0.2800E+02
     12.017  0.0000E+00  0.0000E+00  0.2800E+02  0.2800E+02
     12.181  0.0000E+00  0.0000E+00  0.2800E+02  0.2800E+02
     12.345  0.0000E+00  0.0000E+00  0.2800E+02  0.2800E+02
     12.509  0.0000E+00  0.0000E+00  0.2800E+02  0.2800E+02
     12.673  0.0000E+00  0.0000E+00  0.2800E+02  0.2800E+02
     12.67348793    -36.54824729  301      5.78389306      1.00000000
    -36.548  0.0000E+00  0.0000E+00  0.0000E+00  0.0000E+00  0.0000E+00  0.0000E+00  0.0000E+00  0.0000E+00  0.0000E+00  0.0000E+00  0.0000E+00  0.0000E+00  0.0000E+00  0.0000E+00  0.0000E+00  0.0000E+00  0.0000E+00  0.0000E+00
    -36.384  0.0000E+00  0.0000E+00  0.0000E+00  0.0000E+00  0.0000E+00  0.0000E+00  0.0000E+00  0.0000E+00  0.0000E+00  0.0000E+00  0.0000E+00  0.0000E+00  0.0000E+00  0.0000E+00  0.0000E+00  0.0000E+00  0.0000E+00  0.0000E+00
    -36.220  0.0000E+00  0.0000E+00  0.0000E+00  0.0000E+00  0.0000E+00  0.0000E+00  0.0000E+00  0.0000E+00  0.0000E+00  0.0000E+00  0.0000E+00  0.0000E+00  0.0000E+00  0.0000E+00  0.0000E+00  0.0000E+00  0.0000E+00  0.0000E+00
    -36.056  0.0000E+00  0.0000E+00  0.0000E+00  0.0000E+00  0.0000E+00  0.0000E+00  0.0000E+00  0.0000E+00  0.0000E+00  0.0000E+00  0.0000E+00  0.0000E+00  0.0000E+00  0.0000E+00  0.0000E+00  0.0000E+00  0.0000E+00  0.0000E+00
    -35.892  0.0000E+00  0.0000E+00  0.0000E+00  0.0000E+00  0.0000E+00  0.0000E+00  0.0000E+00  0.0000E+00  0.0000E+00  0.0000E+00  0.0000E+00  0.0000E+00  0.0000E+00  0.0000E+00  0.0000E+00  0.0000E+00  0.0000E+00  0.0000E+00
    -35.728  0.0000E+00  0.0000E+00  0.0000E+00  0.0000E+00  0.0000E+00  0.0000E+00  0.0000E+00  0.0000E+00  0.0000E+00  0.0000E+00  0.0000E+00  0.0000E+00  0.0000E+00  0.0000E+00  0.0000E+00  0.0000E+00  0.0000E+00  0.0000E+00
    -35.564  0.0000E+00  0.0000E+00  0.0000E+00  0.0000E+00  0.0000E+00  0.0000E+00  0.0000E+00  0.0000E+00  0.0000E+00  0.0000E+00  0.0000E+00  0.0000E+00  0.0000E+00  0.0000E+00  0.0000E+00  0.0000E+00  0.0000E+00  0.0000E+00
    -35.400  0.0000E+00  0.0000E+00  0.0000E+00  0.0000E+00  0.0000E+00  0.0000E+00  0.0000E+00  0.0000E+00  0.0000E+00  0.0000E+00  0.0000E+00  0.0000E+00  0.0000E+00  0.0000E+00  0.0000E+00  0.0000E+00  0.0000E+00  0.0000E+00
    -35.236  0.0000E+00  0.0000E+00  0.0000E+00  0.0000E+00  0.0000E+00  0.0000E+00  0.0000E+00  0.0000E+00  0.0000E+00  0.0000E+00  0.0000E+00  0.0000E+00  0.0000E+00  0.0000E+00  0.0000E+00  0.0000E+00  0.0000E+00  0.0000E+00
    -35.072  0.0000E+00  0.0000E+00  0.0000E+00  0.0000E+00  0.0000E+00  0.0000E+00  0.0000E+00  0.0000E+00  0.0000E+00  0.0000E+00  0.0000E+00  0.0000E+00  0.0000E+00  0.0000E+00  0.0000E+00  0.0000E+00  0.0000E+00  0.0000E+00
    -34.908  0.0000E+00  0.0000E+00  0.0000E+00  0.0000E+00  0.0000E+00  0.0000E+00  0.0000E+00  0.0000E+00  0.0000E+00  0.0000E+00  0.0000E+00  0.0000E+00  0.0000E+00  0.0000E+00  0.0000E+00  0.0000E+00  0.0000E+00  0.0000E+00
    -34.743  0.1007E-02  0.9962E-03  0.4999E-11  0.5030E-11  0.5368E-13  0.6421E-13  0.4999E-11  0.5030E-11  0.3301E-14  0.2863E-14  0.4268E-14  0.5971E-14  0.6349E-09  0.6304E-09  0.4268E-14  0.5971E-14  0.3263E-11  0.3198E-11
    -34.579  0.2567E-01  0.2540E-01  0.1275E-09  0.1283E-09  0.1369E-11  0.1637E-11  0.1275E-09  0.1283E-09  0.8418E-13  0.7301E-13  0.1088E-12  0.1523E-12  0.1619E-07  0.1608E-07  0.1088E-12  0.1523E-12  0.8321E-10  0.8156E-10
    -34.415  0.6107E+00  0.6051E+00  0.3033E-08  0.3055E-08  0.3251E-10  0.3894E-10  0.3033E-08  0.3055E-08  0.2003E-11  0.1740E-11  0.2591E-11  0.3630E-11  0.3852E-06  0.3829E-06  0.2591E-11  0.3630E-11  0.1980E-08  0.1943E-08
    -34.251  0.3923E+01  0.3917E+01  0.1948E-07  0.1977E-07  0.2061E-09  0.2496E-09  0.1948E-07  0.1977E-07  0.1288E-10  0.1131E-10  0.1672E-10  0.2362E-10  0.2476E-05  0.2481E-05  0.1672E-10  0.2362E-10  0.1272E-07  0.1258E-07
    -34.087  0.1372E+01  0.1383E+01  0.6809E-08  0.6977E-08  0.7102E-10  0.8710E-10  0.6809E-08  0.6977E-08  0.4510E-11  0.4014E-11  0.5882E-11  0.8389E-11  0.8670E-06  0.8767E-06  0.5882E-11  0.8389E-11  0.4449E-08  0.4441E-08
    -33.923  0.6784E-01  0.6855E-01  0.3366E-09  0.3458E-09  0.3497E-11  0.4303E-11  0.3366E-09  0.3458E-09  0.2231E-12  0.1992E-12  0.2913E-12  0.4165E-12  0.4288E-07  0.4347E-07  0.2913E-12  0.4165E-12  0.2199E-09  0.2201E-09
    -33.759  0.0000E+00  0.0000E+00  0.0000E+00  0.0000E+00  0.0000E+00  0.0000E+00  0.0000E+00  0.0000E+00  0.0000E+00  0.0000E+00  0.0000E+00  0.0000E+00  0.0000E+00  0.0000E+00  0.0000E+00  0.0000E+00  0.0000E+00  0.0000E+00
    -33.595  0.0000E+00  0.0000E+00  0.0000E+00  0.0000E+00  0.0000E+00  0.0000E+00  0.0000E+00  0.0000E+00  0.0000E+00  0.0000E+00  0.0000E+00  0.0000E+00  0.0000E+00  0.0000E+00  0.0000E+00  0.0000E+00  0.0000E+00  0.0000E+00
    -33.431  0.0000E+00  0.0000E+00  0.0000E+00  0.0000E+00  0.0000E+00  0.0000E+00  0.0000E+00  0.0000E+00  0.0000E+00  0.0000E+00  0.0000E+00  0.0000E+00  0.0000E+00  0.0000E+00  0.0000E+00  0.0000E+00  0.0000E+00  0.0000E+00
    -33.267  0.0000E+00  0.0000E+00  0.0000E+00  0.0000E+00  0.0000E+00  0.0000E+00  0.0000E+00  0.0000E+00  0.0000E+00  0.0000E+00  0.0000E+00  0.0000E+00  0.0000E+00  0.0000E+00  0.0000E+00  0.0000E+00  0.0000E+00  0.0000E+00
    -33.103  0.0000E+00  0.0000E+00  0.0000E+00  0.0000E+00  0.0000E+00  0.0000E+00  0.0000E+00  0.0000E+00  0.0000E+00  0.0000E+00  0.0000E+00  0.0000E+00  0.0000E+00  0.0000E+00  0.0000E+00  0.0000E+00  0.0000E+00  0.0000E+00
    -32.939  0.0000E+00  0.0000E+00  0.0000E+00  0.0000E+00  0.0000E+00  0.0000E+00  0.0000E+00  0.0000E+00  0.0000E+00  0.0000E+00  0.0000E+00  0.0000E+00  0.0000E+00  0.0000E+00  0.0000E+00  0.0000E+00  0.0000E+00  0.0000E+00
    -32.775  0.0000E+00  0.0000E+00  0.0000E+00  0.0000E+00  0.0000E+00  0.0000E+00  0.0000E+00  0.0000E+00  0.0000E+00  0.0000E+00  0.0000E+00  0.0000E+00  0.0000E+00  0.0000E+00  0.0000E+00  0.0000E+00  0.0000E+00  0.0000E+00
    -32.611  0.0000E+00  0.0000E+00  0.0000E+00  0.0000E+00  0.0000E+00  0.0000E+00  0.0000E+00  0.0000E+00  0.0000E+00  0.0000E+00  0.0000E+00  0.0000E+00  0.0000E+00  0.0000E+00  0.0000E+00  0.0000E+00  0.0000E+00  0.0000E+00
    -32.446  0.0000E+00  0.0000E+00  0.0000E+00  0.0000E+00  0.0000E+00  0.0000E+00  0.0000E+00  0.0000E+00  0.0000E+00  0.0000E+00  0.0000E+00  0.0000E+00  0.0000E+00  0.0000E+00  0.0000E+00  0.0000E+00  0.0000E+00  0.0000E+00
    -32.282  0.0000E+00  0.0000E+00  0.0000E+00  0.0000E+00  0.0000E+00  0.0000E+00  0.0000E+00  0.0000E+00  0.0000E+00  0.0000E+00  0.0000E+00  0.0000E+00  0.0000E+00  0.0000E+00  0.0000E+00  0.0000E+00  0.0000E+00  0.0000E+00
    -32.118  0.0000E+00  0.0000E+00  0.0000E+00  0.0000E+00  0.0000E+00  0.0000E+00  0.0000E+00  0.0000E+00  0.0000E+00  0.0000E+00  0.0000E+00  0.0000E+00  0.0000E+00  0.0000E+00  0.0000E+00  0.0000E+00  0.0000E+00  0.0000E+00
    -31.954  0.0000E+00  0.0000E+00  0.0000E+00  0.0000E+00  0.0000E+00  0.0000E+00  0.0000E+00  0.0000E+00  0.0000E+00  0.0000E+00  0.0000E+00  0.0000E+00  0.0000E+00  0.0000E+00  0.0000E+00  0.0000E+00  0.0000E+00  0.0000E+00
    -31.790  0.0000E+00  0.0000E+00  0.0000E+00  0.0000E+00  0.0000E+00  0.0000E+00  0.0000E+00  0.0000E+00  0.0000E+00  0.0000E+00  0.0000E+00  0.0000E+00  0.0000E+00  0.0000E+00  0.0000E+00  0.0000E+00  0.0000E+00  0.0000E+00
    -31.626  0.0000E+00  0.0000E+00  0.0000E+00  0.0000E+00  0.0000E+00  0.0000E+00  0.0000E+00  0.0000E+00  0.0000E+00  0.0000E+00  0.0000E+00  0.0000E+00  0.0000E+00  0.0000E+00  0.0000E+00  0.0000E+00  0.0000E+00  0.0000E+00
    -31.462  0.0000E+00  0.0000E+00  0.0000E+00  0.0000E+00  0.0000E+00  0.0000E+00  0.0000E+00  0.0000E+00  0.0000E+00  0.0000E+00  0.0000E+00  0.0000E+00  0.0000E+00  0.0000E+00  0.0000E+00  0.0000E+00  0.0000E+00  0.0000E+00
    -31.298  0.0000E+00  0.0000E+00  0.0000E+00  0.0000E+00  0.0000E+00  0.0000E+00  0.0000E+00  0.0000E+00  0.0000E+00  0.0000E+00  0.0000E+00  0.0000E+00  0.0000E+00  0.0000E+00  0.0000E+00  0.0000E+00  0.0000E+00  0.0000E+00
    -31.134  0.0000E+00  0.0000E+00  0.0000E+00  0.0000E+00  0.0000E+00  0.0000E+00  0.0000E+00  0.0000E+00  0.0000E+00  0.0000E+00  0.0000E+00  0.0000E+00  0.0000E+00  0.0000E+00  0.0000E+00  0.0000E+00  0.0000E+00  0.0000E+00
    -30.970  0.0000E+00  0.0000E+00  0.0000E+00  0.0000E+00  0.0000E+00  0.0000E+00  0.0000E+00  0.0000E+00  0.0000E+00  0.0000E+00  0.0000E+00  0.0000E+00  0.0000E+00  0.0000E+00  0.0000E+00  0.0000E+00  0.0000E+00  0.0000E+00
    -30.806  0.0000E+00  0.0000E+00  0.0000E+00  0.0000E+00  0.0000E+00  0.0000E+00  0.0000E+00  0.0000E+00  0.0000E+00  0.0000E+00  0.0000E+00  0.0000E+00  0.0000E+00  0.0000E+00  0.0000E+00  0.0000E+00  0.0000E+00  0.0000E+00
    -30.642  0.0000E+00  0.0000E+00  0.0000E+00  0.0000E+00  0.0000E+00  0.0000E+00  0.0000E+00  0.0000E+00  0.0000E+00  0.0000E+00  0.0000E+00  0.0000E+00  0.0000E+00  0.0000E+00  0.0000E+00  0.0000E+00  0.0000E+00  0.0000E+00
    -30.478  0.0000E+00  0.0000E+00  0.0000E+00  0.0000E+00  0.0000E+00  0.0000E+00  0.0000E+00  0.0000E+00  0.0000E+00  0.0000E+00  0.0000E+00  0.0000E+00  0.0000E+00  0.0000E+00  0.0000E+00  0.0000E+00  0.0000E+00  0.0000E+00
    -30.313  0.0000E+00  0.0000E+00  0.0000E+00  0.0000E+00  0.0000E+00  0.0000E+00  0.0000E+00  0.0000E+00  0.0000E+00  0.0000E+00  0.0000E+00  0.0000E+00  0.0000E+00  0.0000E+00  0.0000E+00  0.0000E+00  0.0000E+00  0.0000E+00
    -30.149  0.0000E+00  0.0000E+00  0.0000E+00  0.0000E+00  0.0000E+00  0.0000E+00  0.0000E+00  0.0000E+00  0.0000E+00  0.0000E+00  0.0000E+00  0.0000E+00  0.0000E+00  0.0000E+00  0.0000E+00  0.0000E+00  0.0000E+00  0.0000E+00
    -29.985  0.0000E+00  0.0000E+00  0.0000E+00  0.0000E+00  0.0000E+00  0.0000E+00  0.0000E+00  0.0000E+00  0.0000E+00  0.0000E+00  0.0000E+00  0.0000E+00  0.0000E+00  0.0000E+00  0.0000E+00  0.0000E+00  0.0000E+00  0.0000E+00
    -29.821  0.0000E+00  0.0000E+00  0.0000E+00  0.0000E+00  0.0000E+00  0.0000E+00  0.0000E+00  0.0000E+00  0.0000E+00  0.0000E+00  0.0000E+00  0.0000E+00  0.0000E+00  0.0000E+00  0.0000E+00  0.0000E+00  0.0000E+00  0.0000E+00
    -29.657  0.0000E+00  0.0000E+00  0.0000E+00  0.0000E+00  0.0000E+00  0.0000E+00  0.0000E+00  0.0000E+00  0.0000E+00  0.0000E+00  0.0000E+00  0.0000E+00  0.0000E+00  0.0000E+00  0.0000E+00  0.0000E+00  0.0000E+00  0.0000E+00
    -29.493  0.0000E+00  0.0000E+00  0.0000E+00  0.0000E+00  0.0000E+00  0.0000E+00  0.0000E+00  0.0000E+00  0.0000E+00  0.0000E+00  0.0000E+00  0.0000E+00  0.0000E+00  0.0000E+00  0.0000E+00  0.0000E+00  0.0000E+00  0.0000E+00
    -29.329  0.0000E+00  0.0000E+00  0.0000E+00  0.0000E+00  0.0000E+00  0.0000E+00  0.0000E+00  0.0000E+00  0.0000E+00  0.0000E+00  0.0000E+00  0.0000E+00  0.0000E+00  0.0000E+00  0.0000E+00  0.0000E+00  0.0000E+00  0.0000E+00
    -29.165  0.0000E+00  0.0000E+00  0.0000E+00  0.0000E+00  0.0000E+00  0.0000E+00  0.0000E+00  0.0000E+00  0.0000E+00  0.0000E+00  0.0000E+00  0.0000E+00  0.0000E+00  0.0000E+00  0.0000E+00  0.0000E+00  0.0000E+00  0.0000E+00
    -29.001  0.0000E+00  0.0000E+00  0.0000E+00  0.0000E+00  0.0000E+00  0.0000E+00  0.0000E+00  0.0000E+00  0.0000E+00  0.0000E+00  0.0000E+00  0.0000E+00  0.0000E+00  0.0000E+00  0.0000E+00  0.0000E+00  0.0000E+00  0.0000E+00
    -28.837  0.0000E+00  0.0000E+00  0.0000E+00  0.0000E+00  0.0000E+00  0.0000E+00  0.0000E+00  0.0000E+00  0.0000E+00  0.0000E+00  0.0000E+00  0.0000E+00  0.0000E+00  0.0000E+00  0.0000E+00  0.0000E+00  0.0000E+00  0.0000E+00
    -28.673  0.0000E+00  0.0000E+00  0.0000E+00  0.0000E+00  0.0000E+00  0.0000E+00  0.0000E+00  0.0000E+00  0.0000E+00  0.0000E+00  0.0000E+00  0.0000E+00  0.0000E+00  0.0000E+00  0.0000E+00  0.0000E+00  0.0000E+00  0.0000E+00
    -28.509  0.0000E+00  0.0000E+00  0.0000E+00  0.0000E+00  0.0000E+00  0.0000E+00  0.0000E+00  0.0000E+00  0.0000E+00  0.0000E+00  0.0000E+00  0.0000E+00  0.0000E+00  0.0000E+00  0.0000E+00  0.0000E+00  0.0000E+00  0.0000E+00
    -28.345  0.0000E+00  0.0000E+00  0.0000E+00  0.0000E+00  0.0000E+00  0.0000E+00  0.0000E+00  0.0000E+00  0.0000E+00  0.0000E+00  0.0000E+00  0.0000E+00  0.0000E+00  0.0000E+00  0.0000E+00  0.0000E+00  0.0000E+00  0.0000E+00