   8   8   1   0
  0.1714134E+02  0.4067858E-09  0.4067858E-09  0.8287113E-09  0.5000000E-15
  1.000000000000000E-004
  CAR 
 unknown system                          
     14.37599316    -34.77644040  301      7.09447199      1.00000000
    -34.776  0.0000E+00  0.0000E+00  0.0000E+00  0.0000E+00
    -34.613  0.0000E+00  0.0000E+00  0.0000E+00  0.0000E+00
    -34.449  0.0000E+00  0.0000E+00  0.0000E+00  0.0000E+00
    -34.285  0.0000E+00  0.0000E+00  0.0000E+00  0.0000E+00
    -34.121  0.0000E+00  0.0000E+00  0.0000E+00  0.0000E+00
    -33.957  0.0000E+00  0.0000E+00  0.0000E+00  0.0000E+00
    -33.793  0.0000E+00  0.0000E+00  0.0000E+00  0.0000E+00
    -33.630  0.0000E+00  0.0000E+00  0.0000E+00  0.0000E+00
    -33.466  0.0000E+00  0.0000E+00  0.0000E+00  0.0000E+00
    -33.302  0.0000E+00  0.0000E+00  0.0000E+00  0.0000E+00
    -33.138  0.0000E+00  0.0000E+00  0.0000E+00  0.0000E+00
    -32.974  0.1957E-02  0.1919E-02  0.3206E-03  0.3144E-03
    -32.810  0.4968E-01  0.4871E-01  0.8460E-02  0.8295E-02
    -32.647  0.1183E+01  0.1162E+01  0.2023E+00  0.1987E+00
    -32.483  0.7903E+01  0.7879E+01  0.1497E+01  0.1490E+01
    -32.319  0.2917E+01  0.2959E+01  0.1975E+01  0.1974E+01
    -32.155  0.1471E+00  0.1500E+00  0.1999E+01  0.1999E+01
    -31.991  0.0000E+00  0.0000E+00  0.2000E+01  0.2000E+01
    -31.827  0.0000E+00  0.0000E+00  0.2000E+01  0.2000E+01
    -31.663  0.0000E+00  0.0000E+00  0.2000E+01  0.2000E+01
    -31.500  0.0000E+00  0.0000E+00  0.2000E+01  0.2000E+01
    -31.336  0.0000E+00  0.0000E+00  0.2000E+01  0.2000E+01
    -31.172  0.0000E+00  0.0000E+00  0.2000E+01  0.2000E+01
    -31.008  0.0000E+00  0.0000E+00  0.2000E+01  0.2000E+01
    -30.844  0.0000E+00  0.0000E+00  0.2000E+01  0.2000E+01
    -30.680  0.0000E+00  0.0000E+00  0.2000E+01  0.2000E+01
    -30.517  0.0000E+00  0.0000E+00  0.2000E+01  0.2000E+01
    -30.353  0.0000E+00  0.0000E+00  0.2000E+01  0.2000E+01
    -30.189  0.0000E+00  0.0000E+00  0.2000E+01  0.2000E+01
    -30.025  0.0000E+00  0.0000E+00  0.2000E+01  0.2000E+01
    -29.861  0.0000E+00  0.0000E+00  0.2000E+01  0.2000E+01
    -29.697  0.0000E+00  0.0000E+00  0.2000E+01  0.2000E+01
    -29.534  0.0000E+00  0.0000E+00  0.2000E+01  0.2000E+01
    -29.370  0.0000E+00  0.0000E+00  0.2000E+01  0.2000E+01
    -29.206  0.0000E+00  0.0000E+00  0.2000E+01  0.2000E+01
    -29.042  0.0000E+00  0.0000E+00  0.2000E+01  0.2000E+01
    -28.878  0.0000E+00  0.0000E+00  0.2000E+01  0.2000E+01
    -28.714  0.0000E+00  0.0000E+00  0.2000E+01  0.2000E+01
    -28.550  0.0000E+00  0.0000E+00  0.2000E+01  0.2000E+01
    -28.387  0.0000E+00  0.0000E+00  0.2000E+01  0.2000E+01
    -28.223  0.0000E+00  0.0000E+00  0.2000E+01  0.2000E+01
    -28.059  0.0000E+00  0.0000E+00  0.2000E+01  0.2000E+01
    -27.895  0.0000E+00  0.0000E+00  0.2000E+01  0.2000E+01
    -27.731  0.0000E+00  0.0000E+00  0.2000E+01  0.2000E+01
    -27.567  0.0000E+00  0.0000E+00  0.2000E+01  0.2000E+01
    -27.404  0.0000E+00  0.0000E+00  0.2000E+01  0.2000E+01
    -27.240  0.0000E+00  0.0000E+00  0.2000E+01  0.2000E+01
    -27.076  0.0000E+00  0.0000E+00  0.2000E+01  0.2000E+01
    -26.912  0.0000E+00  0.0000E+00  0.2000E+01  0.2000E+01
    -26.748  0.0000E+00  0.0000E+00  0.2000E+01  0.2000E+01
    -26.584  0.0000E+00  0.0000E+00  0.2000E+01  0.2000E+01
    -26.421  0.0000E+00  0.0000E+00  0.2000E+01  0.2000E+01
    -26.257  0.0000E+00  0.0000E+00  0.2000E+01  0.2000E+01
    -26.093  0.0000E+00  0.0000E+00  0.2000E+01  0.2000E+01
    -25.929  0.0000E+00  0.0000E+00  0.2000E+01  0.2000E+01
    -25.765  0.0000E+00  0.0000E+00  0.2000E+01  0.2000E+01
    -25.601  0.0000E+00  0.0000E+00  0.2000E+01  0.2000E+01
    -25.437  0.0000E+00  0.0000E+00  0.2000E+01  0.2000E+01
    -25.274  0.0000E+00  0.0000E+00  0.2000E+01  0.2000E+01
    -25.110  0.0000E+00  0.0000E+00  0.2000E+01  0.2000E+01
    -24.946  0.0000E+00  0.0000E+00  0.2000E+01  0.2000E+01
    -24.782  0.0000E+00  0.0000E+00  0.2000E+01  0.2000E+01
    -24.618  0.0000E+00  0.0000E+00  0.2000E+01  0.2000E+01
    -24.454  0.0000E+00  0.0000E+00  0.2000E+01  0.2000E+01
    -24.291  0.0000E+00  0.0000E+00  0.2000E+01  0.2000E+01
    -24.127  0.0000E+00  0.0000E+00  0.2000E+01  0.2000E+01
    -23.963  0.0000E+00  0.0000E+00  0.2000E+01  0.2000E+01
    -23.799  0.0000E+00  0.0000E+00  0.2000E+01  0.2000E+01
    -23.635  0.0000E+00  0.0000E+00  0.2000E+01  0.2000E+01
    -23.471  0.0000E+00  0.0000E+00  0.2000E+01  0.2000E+01
    -23.308  0.0000E+00  0.0000E+00  0.2000E+01  0.2000E+01
    -23.144  0.0000E+00  0.0000E+00  0.2000E+01  0.2000E+01
    -22.980  0.0000E+00  0.0000E+00  0.2000E+01  0.2000E+01
    -22.816  0.0000E+00  0.0000E+00  0.2000E+01  0.2000E+01
    -22.652  0.0000E+00  0.0000E+00  0.2000E+01  0.2000E+01
    -22.488  0.0000E+00  0.0000E+00  0.2000E+01  0.2000E+01
    -22.324  0.0000E+00  0.0000E+00  0.2000E+01  0.2000E+01
    -22.161  0.0000E+00  0.0000E+00  0.2000E+01  0.2000E+01
    -21.997  0.0000E+00  0.0000E+00  0.2000E+01  0.2000E+01
    -21.833  0.0000E+00  0.0000E+00  0.2000E+01  0.2000E+01
    -21.669  0.0000E+00  0.0000E+00  0.2000E+01  0.2000E+01
    -21.505  0.0000E+00  0.0000E+00  0.2000E+01  0.2000E+01
    -21.341  0.0000E+00  0.0000E+00  0.2000E+01  0.2000E+01
    -21.178  0.0000E+00  0.0000E+00  0.2000E+01  0.2000E+01
    -21.014  0.0000E+00  0.0000E+00  0.2000E+01  0.2000E+01
    -20.850  0.0000E+00  0.0000E+00  0.2000E+01  0.2000E+01
    -20.686  0.0000E+00  0.0000E+00  0.2000E+01  0.2000E+01
    -20.522  0.0000E+00  0.0000E+00  0.2000E+01  0.2000E+01
    -20.358  0.0000E+00  0.0000E+00  0.2000E+01  0.2000E+01
    -20.195  0.0000E+00  0.0000E+00  0.2000E+01  0.2000E+01
    -20.031  0.0000E+00  0.0000E+00  0.2000E+01  0.2000E+01
    -19.867  0.0000E+00  0.0000E+00  0.2000E+01  0.2000E+01
    -19.703  0.0000E+00  0.0000E+00  0.2000E+01  0.2000E+01
    -19.539  0.0000E+00  0.0000E+00  0.2000E+01  0.2000E+01
    -19.375  0.0000E+00  0.0000E+00  0.2000E+01  0.2000E+01
    -19.212  0.0000E+00  0.0000E+00  0.2000E+01  0.2000E+01
    -19.048  0.0000E+00  0.0000E+00  0.2000E+01  0.2000E+01
    -18.884  0.0000E+00  0.0000E+00  0.2000E+01  0.2000E+01
    -18.720  0.0000E+00  0.0000E+00  0.2000E+01  0.2000E+01
    -18.556  0.0000E+00  0.0000E+00  0.2000E+01  0.2000E+01
    -18.392  0.0000E+00  0.0000E+00  0.2000E+01  0.2000E+01
    -18.228  0.0000E+00  0.0000E+00  0.2000E+01  0.2000E+01
    -18.065  0.0000E+00  0.0000E+00  0.2000E+01  0.2000E+01
    -17.901  0.0000E+00  0.0000E+00  0.2000E+01  0.2000E+01
    -17.737  0.0000E+00  0.0000E+00  0.2000E+01  0.2000E+01
    -17.573  0.0000E+00  0.0000E+00  0.2000E+01  0.2000E+01
    -17.409  0.0000E+00  0.0000E+00  0.2000E+01  0.2000E+01
    -17.245  0.0000E+00  0.0000E+00  0.2000E+01  0.2000E+01
    -17.082  0.0000E+00  0.0000E+00  0.2000E+01  0.2000E+01
    -16.918  0.0000E+00  0.0000E+00  0.2000E+01  0.2000E+01
    -16.754  0.0000E+00  0.0000E+00  0.2000E+01  0.2000E+01
    -16.590  0.0000E+00  0.0000E+00  0.2000E+01  0.2000E+01
    -16.426  0.0000E+00  0.0000E+00  0.2000E+01  0.2000E+01
    -16.262  0.0000E+00  0.0000E+00  0.2000E+01  0.2000E+01
    -16.099  0.0000E+00  0.0000E+00  0.2000E+01  0.2000E+01
    -15.935  0.0000E+00  0.0000E+00  0.2000E+01  0.2000E+01
    -15.771  0.0000E+00  0.0000E+00  0.2000E+01  0.2000E+01
    -15.607  0.0000E+00  0.0000E+00  0.2000E+01  0.2000E+01
    -15.443  0.0000E+00  0.0000E+00  0.2000E+01  0.2000E+01
    -15.279  0.0000E+00  0.0000E+00  0.2000E+01  0.2000E+01
    -15.115  0.0000E+00  0.0000E+00  0.2000E+01  0.2000E+01
    -14.952  0.0000E+00  0.0000E+00  0.2000E+01  0.2000E+01
    -14.788  0.0000E+00  0.0000E+00  0.2000E+01  0.2000E+01
    -14.624  0.0000E+00  0.0000E+00  0.2000E+01  0.2000E+01
    -14.460  0.0000E+00  0.0000E+00  0.2000E+01  0.2000E+01
    -14.296  0.1419E-02  0.1385E-02  0.2000E+01  0.2000E+01
    -14.132  0.3814E-01  0.3725E-01  0.2006E+01  0.2006E+01
    -13.969  0.9657E+00  0.9440E+00  0.2165E+01  0.2161E+01
    -13.805  0.1268E+02  0.1253E+02  0.4242E+01  0.4214E+01
    -13.641  0.1963E+02  0.1973E+02  0.7458E+01  0.7448E+01
    -13.477  0.3163E+01  0.3222E+01  0.7976E+01  0.7975E+01
    -13.313  0.5940E-01  0.6067E-01  0.8000E+01  0.8000E+01
    -13.149  0.0000E+00  0.0000E+00  0.8000E+01  0.8000E+01
    -12.986  0.0000E+00  0.0000E+00  0.8000E+01  0.8000E+01
    -12.822  0.0000E+00  0.0000E+00  0.8000E+01  0.8000E+01
    -12.658  0.0000E+00  0.0000E+00  0.8000E+01  0.8000E+01
    -12.494  0.0000E+00  0.0000E+00  0.8000E+01  0.8000E+01
    -12.330  0.0000E+00  0.0000E+00  0.8000E+01  0.8000E+01
    -12.166  0.0000E+00  0.0000E+00  0.8000E+01  0.8000E+01
    -12.002  0.0000E+00  0.0000E+00  0.8000E+01  0.8000E+01
    -11.839  0.0000E+00  0.0000E+00  0.8000E+01  0.8000E+01
    -11.675  0.0000E+00  0.0000E+00  0.8000E+01  0.8000E+01
    -11.511  0.0000E+00  0.0000E+00  0.8000E+01  0.8000E+01
    -11.347  0.0000E+00  0.0000E+00  0.8000E+01  0.8000E+01
    -11.183  0.0000E+00  0.0000E+00  0.8000E+01  0.8000E+01
    -11.019  0.0000E+00  0.0000E+00  0.8000E+01  0.8000E+01
    -10.856  0.0000E+00  0.0000E+00  0.8000E+01  0.8000E+01
    -10.692  0.0000E+00  0.0000E+00  0.8000E+01  0.8000E+01
    -10.528  0.0000E+00  0.0000E+00  0.8000E+01  0.8000E+01
    -10.364  0.0000E+00  0.0000E+00  0.8000E+01  0.8000E+01
    -10.200  0.0000E+00  0.0000E+00  0.8000E+01  0.8000E+01
    -10.036  0.0000E+00  0.0000E+00  0.8000E+01  0.8000E+01
     -9.873  0.0000E+00  0.0000E+00  0.8000E+01  0.8000E+01
     -9.709  0.0000E+00  0.0000E+00  0.8000E+01  0.8000E+01
     -9.545  0.0000E+00  0.0000E+00  0.8000E+01  0.8000E+01
     -9.381  0.0000E+00  0.0000E+00  0.8000E+01  0.8000E+01
     -9.217  0.0000E+00  0.0000E+00  0.8000E+01  0.8000E+01
     -9.053  0.0000E+00  0.0000E+00  0.8000E+01  0.8000E+01
     -8.889  0.0000E+00  0.0000E+00  0.8000E+01  0.8000E+01
     -8.726  0.0000E+00  0.0000E+00  0.8000E+01  0.8000E+01
     -8.562  0.0000E+00  0.0000E+00  0.8000E+01  0.8000E+01
     -8.398  0.0000E+00  0.0000E+00  0.8000E+01  0.8000E+01
     -8.234  0.0000E+00  0.0000E+00  0.8000E+01  0.8000E+01
     -8.070  0.0000E+00  0.0000E+00  0.8000E+01  0.8000E+01
     -7.906  0.0000E+00  0.0000E+00  0.8000E+01  0.8000E+01
     -7.743  0.0000E+00  0.0000E+00  0.8000E+01  0.8000E+01
     -7.579  0.0000E+00  0.0000E+00  0.8000E+01  0.8000E+01
     -7.415  0.0000E+00  0.0000E+00  0.8000E+01  0.8000E+01
     -7.251  0.0000E+00  0.0000E+00  0.8000E+01  0.8000E+01
     -7.087  0.0000E+00  0.0000E+00  0.8000E+01  0.8000E+01
     -6.923  0.0000E+00  0.0000E+00  0.8000E+01  0.8000E+01
     -6.760  0.0000E+00  0.0000E+00  0.8000E+01  0.8000E+01
     -6.596  0.0000E+00  0.0000E+00  0.8000E+01  0.8000E+01
     -6.432  0.0000E+00  0.0000E+00  0.8000E+01  0.8000E+01
     -6.268  0.0000E+00  0.0000E+00  0.8000E+01  0.8000E+01
     -6.104  0.0000E+00  0.0000E+00  0.8000E+01  0.8000E+01
     -5.940  0.0000E+00  0.0000E+00  0.8000E+01  0.8000E+01
     -5.777  0.0000E+00  0.0000E+00  0.8000E+01  0.8000E+01
     -5.613  0.0000E+00  0.0000E+00  0.8000E+01  0.8000E+01
     -5.449  0.0000E+00  0.0000E+00  0.8000E+01  0.8000E+01
     -5.285  0.0000E+00  0.0000E+00  0.8000E+01  0.8000E+01
     -5.121  0.0000E+00  0.0000E+00  0.8000E+01  0.8000E+01
     -4.957  0.0000E+00  0.0000E+00  0.8000E+01  0.8000E+01
     -4.793  0.0000E+00  0.0000E+00  0.8000E+01  0.8000E+01
     -4.630  0.0000E+00  0.0000E+00  0.8000E+01  0.8000E+01
     -4.466  0.0000E+00  0.0000E+00  0.8000E+01  0.8000E+01
     -4.302  0.0000E+00  0.0000E+00  0.8000E+01  0.8000E+01
     -4.138  0.0000E+00  0.0000E+00  0.8000E+01  0.8000E+01
     -3.974  0.0000E+00  0.0000E+00  0.8000E+01  0.8000E+01
     -3.810  0.0000E+00  0.0000E+00  0.8000E+01  0.8000E+01
     -3.647  0.0000E+00  0.0000E+00  0.8000E+01  0.8000E+01
     -3.483  0.0000E+00  0.0000E+00  0.8000E+01  0.8000E+01
     -3.319  0.0000E+00  0.0000E+00  0.8000E+01  0.8000E+01
     -3.155  0.0000E+00  0.0000E+00  0.8000E+01  0.8000E+01
     -2.991  0.1187E-05  0.1127E-05  0.8000E+01  0.8000E+01
     -2.827  0.4865E-04  0.4619E-04  0.8000E+01  0.8000E+01
     -2.664  0.1270E-02  0.1207E-02  0.8000E+01  0.8000E+01
     -2.500  0.2381E-01  0.2291E-01  0.8004E+01  0.8004E+01
     -2.336  0.1175E+00  0.1158E+00  0.8023E+01  0.8023E+01
     -2.172  0.2184E+00  0.2171E+00  0.8059E+01  0.8059E+01
     -2.008  0.2697E+00  0.2687E+00  0.8103E+01  0.8103E+01
     -1.844  0.3418E+00  0.3411E+00  0.8159E+01  0.8159E+01
     -1.680  0.3772E+00  0.3771E+00  0.8221E+01  0.8220E+01
     -1.517  0.4423E+00  0.4402E+00  0.8294E+01  0.8293E+01
     -1.353  0.4907E+00  0.4905E+00  0.8375E+01  0.8373E+01
     -1.189  0.4994E+00  0.4994E+00  0.8457E+01  0.8455E+01
     -1.025  0.5888E+00  0.5876E+00  0.8553E+01  0.8552E+01
     -0.861  0.6520E+00  0.6508E+00  0.8660E+01  0.8659E+01
     -0.697  0.6855E+00  0.6852E+00  0.8773E+01  0.8771E+01
     -0.534  0.6900E+00  0.6881E+00  0.8886E+01  0.8884E+01
     -0.370  0.8435E+00  0.8434E+00  0.9024E+01  0.9022E+01
     -0.206  0.7840E+00  0.7845E+00  0.9153E+01  0.9151E+01
     -0.042  0.8079E+00  0.8081E+00  0.9286E+01  0.9284E+01
      0.122  0.7902E+00  0.7887E+00  0.9416E+01  0.9414E+01
      0.286  0.9769E+00  0.9769E+00  0.9576E+01  0.9574E+01
      0.449  0.7576E+00  0.7589E+00  0.9701E+01  0.9699E+01
      0.613  0.8919E+00  0.8899E+00  0.9847E+01  0.9845E+01
      0.777  0.1043E+01  0.1040E+01  0.1002E+02  0.1002E+02
      0.941  0.1093E+01  0.1092E+01  0.1020E+02  0.1020E+02
      1.105  0.1193E+01  0.1193E+01  0.1039E+02  0.1039E+02
      1.269  0.1119E+01  0.1120E+01  0.1058E+02  0.1058E+02
      1.433  0.1063E+01  0.1062E+01  0.1075E+02  0.1075E+02
      1.596  0.9019E+00  0.9062E+00  0.1090E+02  0.1090E+02
      1.760  0.7663E+00  0.7642E+00  0.1103E+02  0.1102E+02
      1.924  0.8336E+00  0.8347E+00  0.1116E+02  0.1116E+02
      2.088  0.9245E+00  0.9199E+00  0.1131E+02  0.1131E+02
      2.252  0.1040E+01  0.1039E+01  0.1149E+02  0.1148E+02
      2.416  0.1162E+01  0.1161E+01  0.1168E+02  0.1167E+02
      2.579  0.1146E+01  0.1144E+01  0.1186E+02  0.1186E+02
      2.743  0.1513E+01  0.1509E+01  0.1211E+02  0.1211E+02
      2.907  0.1262E+01  0.1272E+01  0.1232E+02  0.1232E+02
      3.071  0.9408E+00  0.9375E+00  0.1247E+02  0.1247E+02
      3.235  0.1220E+01  0.1218E+01  0.1268E+02  0.1267E+02
      3.399  0.1282E+01  0.1282E+01  0.1289E+02  0.1288E+02
      3.562  0.9255E+00  0.9342E+00  0.1304E+02  0.1304E+02
      3.726  0.1001E+01  0.9883E+00  0.1320E+02  0.1320E+02
      3.890  0.1536E+01  0.1538E+01  0.1345E+02  0.1345E+02
      4.054  0.1268E+01  0.1270E+01  0.1366E+02  0.1366E+02
      4.218  0.1045E+01  0.1049E+01  0.1383E+02  0.1383E+02
      4.382  0.1311E+01  0.1302E+01  0.1405E+02  0.1405E+02
      4.546  0.1679E+01  0.1678E+01  0.1433E+02  0.1432E+02
      4.709  0.1541E+01  0.1544E+01  0.1458E+02  0.1457E+02
      4.873  0.1388E+01  0.1388E+01  0.1481E+02  0.1480E+02
      5.037  0.1482E+01  0.1482E+01  0.1505E+02  0.1505E+02
      5.201  0.1698E+01  0.1697E+01  0.1533E+02  0.1532E+02
      5.365  0.1623E+01  0.1623E+01  0.1560E+02  0.1559E+02
      5.529  0.1681E+01  0.1679E+01  0.1587E+02  0.1587E+02
      5.692  0.1834E+01  0.1828E+01  0.1617E+02  0.1617E+02
      5.856  0.2303E+01  0.2298E+01  0.1655E+02  0.1654E+02
      6.020  0.2299E+01  0.2303E+01  0.1693E+02  0.1692E+02
      6.184  0.2176E+01  0.2177E+01  0.1729E+02  0.1728E+02
      6.348  0.2327E+01  0.2324E+01  0.1767E+02  0.1766E+02
      6.512  0.1973E+01  0.1983E+01  0.1799E+02  0.1799E+02
      6.675  0.1754E+01  0.1753E+01  0.1828E+02  0.1828E+02
      6.839  0.1618E+01  0.1618E+01  0.1855E+02  0.1854E+02
      7.003  0.1775E+01  0.1775E+01  0.1884E+02  0.1883E+02
      7.167  0.1828E+01  0.1827E+01  0.1914E+02  0.1913E+02
      7.331  0.2021E+01  0.2016E+01  0.1947E+02  0.1946E+02
      7.495  0.2004E+01  0.2012E+01  0.1980E+02  0.1979E+02
      7.658  0.1511E+01  0.1515E+01  0.2005E+02  0.2004E+02
      7.822  0.1805E+01  0.1798E+01  0.2034E+02  0.2034E+02
      7.986  0.1805E+01  0.1811E+01  0.2064E+02  0.2064E+02
      8.150  0.1638E+01  0.1637E+01  0.2091E+02  0.2090E+02
      8.314  0.1470E+01  0.1477E+01  0.2115E+02  0.2115E+02
      8.478  0.1373E+01  0.1371E+01  0.2138E+02  0.2137E+02
      8.642  0.1228E+01  0.1235E+01  0.2158E+02  0.2158E+02
      8.805  0.1265E+01  0.1262E+01  0.2179E+02  0.2178E+02
      8.969  0.1258E+01  0.1259E+01  0.2199E+02  0.2199E+02
      9.133  0.1281E+01  0.1279E+01  0.2220E+02  0.2220E+02
      9.297  0.1465E+01  0.1460E+01  0.2244E+02  0.2244E+02
      9.461  0.1986E+01  0.1978E+01  0.2277E+02  0.2276E+02
      9.625  0.2087E+01  0.2085E+01  0.2311E+02  0.2311E+02
      9.788  0.2434E+01  0.2423E+01  0.2351E+02  0.2351E+02
      9.952  0.2996E+01  0.2990E+01  0.2400E+02  0.2400E+02
     10.116  0.2703E+01  0.2686E+01  0.2445E+02  0.2444E+02
     10.280  0.2452E+01  0.2452E+01  0.2485E+02  0.2484E+02
     10.444  0.2605E+01  0.2630E+01  0.2528E+02  0.2527E+02
     10.608  0.3009E+01  0.2977E+01  0.2577E+02  0.2576E+02
     10.771  0.2547E+01  0.2544E+01  0.2619E+02  0.2618E+02
     10.935  0.2397E+01  0.2388E+01  0.2659E+02  0.2657E+02
     11.099  0.1785E+01  0.1735E+01  0.2688E+02  0.2686E+02
     11.263  0.1453E+01  0.1502E+01  0.2712E+02  0.2710E+02
     11.427  0.1328E+01  0.1368E+01  0.2734E+02  0.2733E+02
     11.591  0.1440E+01  0.1465E+01  0.2757E+02  0.2757E+02
     11.755  0.1105E+01  0.1122E+01  0.2776E+02  0.2775E+02
     11.918  0.7380E+00  0.7124E+00  0.2788E+02  0.2787E+02
     12.082  0.5505E+00  0.5460E+00  0.2797E+02  0.2796E+02
     12.246  0.1809E+00  0.2104E+00  0.2800E+02  0.2800E+02
     12.410  0.1325E-01  0.1848E-01  0.2800E+02  0.2800E+02
     12.574  0.0000E+00  0.0000E+00  0.2800E+02  0.2800E+02
     12.738  0.0000E+00  0.0000E+00  0.2800E+02  0.2800E+02
     12.901  0.0000E+00  0.0000E+00  0.2800E+02  0.2800E+02
     13.065  0.0000E+00  0.0000E+00  0.2800E+02  0.2800E+02
     13.229  0.0000E+00  0.0000E+00  0.2800E+02  0.2800E+02
     13.393  0.0000E+00  0.0000E+00  0.2800E+02  0.2800E+02
     13.557  0.0000E+00  0.0000E+00  0.2800E+02  0.2800E+02
     13.721  0.0000E+00  0.0000E+00  0.2800E+02  0.2800E+02
     13.884  0.0000E+00  0.0000E+00  0.2800E+02  0.2800E+02
     14.048  0.0000E+00  0.0000E+00  0.2800E+02  0.2800E+02
     14.212  0.0000E+00  0.0000E+00  0.2800E+02  0.2800E+02
     14.376  0.0000E+00  0.0000E+00  0.2800E+02  0.2800E+02
     14.37599316    -34.77644040  301      7.09447199      1.00000000
    -34.776  0.0000E+00  0.0000E+00  0.0000E+00  0.0000E+00  0.0000E+00  0.0000E+00  0.0000E+00  0.0000E+00  0.0000E+00  0.0000E+00  0.0000E+00  0.0000E+00  0.0000E+00  0.0000E+00  0.0000E+00  0.0000E+00  0.0000E+00  0.0000E+00
    -34.613  0.0000E+00  0.0000E+00  0.0000E+00  0.0000E+00  0.0000E+00  0.0000E+00  0.0000E+00  0.0000E+00  0.0000E+00  0.0000E+00  0.0000E+00  0.0000E+00  0.0000E+00  0.0000E+00  0.0000E+00  0.0000E+00  0.0000E+00  0.0000E+00
    -34.449  0.0000E+00  0.0000E+00  0.0000E+00  0.0000E+00  0.0000E+00  0.0000E+00  0.0000E+00  0.0000E+00  0.0000E+00  0.0000E+00  0.0000E+00  0.0000E+00  0.0000E+00  0.0000E+00  0.0000E+00  0.0000E+00  0.0000E+00  0.0000E+00
    -34.285  0.0000E+00  0.0000E+00  0.0000E+00  0.0000E+00  0.0000E+00  0.0000E+00  0.0000E+00  0.0000E+00  0.0000E+00  0.0000E+00  0.0000E+00  0.0000E+00  0.0000E+00  0.0000E+00  0.0000E+00  0.0000E+00  0.0000E+00  0.0000E+00
    -34.121  0.0000E+00  0.0000E+00  0.0000E+00  0.0000E+00  0.0000E+00  0.0000E+00  0.0000E+00  0.0000E+00  0.0000E+00  0.0000E+00  0.0000E+00  0.0000E+00  0.0000E+00  0.0000E+00  0.0000E+00  0.0000E+00  0.0000E+00  0.0000E+00
    -33.957  0.0000E+00  0.0000E+00  0.0000E+00  0.0000E+00  0.0000E+00  0.0000E+00  0.0000E+00  0.0000E+00  0.0000E+00  0.0000E+00  0.0000E+00  0.0000E+00  0.0000E+00  0.0000E+00  0.0000E+00  0.0000E+00  0.0000E+00  0.0000E+00
    -33.793  0.0000E+00  0.0000E+00  0.0000E+00  0.0000E+00  0.0000E+00  0.0000E+00  0.0000E+00  0.0000E+00  0.0000E+00  0.0000E+00  0.0000E+00  0.0000E+00  0.0000E+00  0.0000E+00  0.0000E+00  0.0000E+00  0.0000E+00  0.0000E+00
    -33.630  0.0000E+00  0.0000E+00  0.0000E+00  0.0000E+00  0.0000E+00  0.0000E+00  0.0000E+00  0.0000E+00  0.0000E+00  0.0000E+00  0.0000E+00  0.0000E+00  0.0000E+00  0.0000E+00  0.0000E+00  0.0000E+00  0.0000E+00  0.0000E+00
    -33.466  0.0000E+00  0.0000E+00  0.0000E+00  0.0000E+00  0.0000E+00  0.0000E+00  0.0000E+00  0.0000E+00  0.0000E+00  0.0000E+00  0.0000E+00  0.0000E+00  0.0000E+00  0.0000E+00  0.0000E+00  0.0000E+00  0.0000E+00  0.0000E+00
    -33.302  0.0000E+00  0.0000E+00  0.0000E+00  0.0000E+00  0.0000E+00  0.0000E+00  0.0000E+00  0.0000E+00  0.0000E+00  0.0000E+00  0.0000E+00  0.0000E+00  0.0000E+00  0.0000E+00  0.0000E+00  0.0000E+00  0.0000E+00  0.0000E+00
    -33.138  0.0000E+00  0.0000E+00  0.0000E+00  0.0000E+00  0.0000E+00  0.0000E+00  0.0000E+00  0.0000E+00  0.0000E+00  0.0000E+00  0.0000E+00  0.0000E+00  0.0000E+00  0.0000E+00  0.0000E+00  0.0000E+00  0.0000E+00  0.0000E+00
    -32.974  0.9629E-03  0.9440E-03  0.2592E-10  0.2573E-10  0.3040E-12  0.2966E-12  0.2592E-10  0.2573E-10  0.2058E-13  0.1866E-13  0.4465E-13  0.5053E-13  0.1139E-08  0.1116E-08  0.4465E-13  0.5053E-13  0.1739E-10  0.1706E-10
    -32.810  0.2444E-01  0.2396E-01  0.6580E-09  0.6532E-09  0.7716E-11  0.7528E-11  0.6580E-09  0.6532E-09  0.5225E-12  0.4738E-12  0.1133E-11  0.1283E-11  0.2892E-07  0.2832E-07  0.1133E-11  0.1283E-11  0.4414E-09  0.4331E-09
    -32.647  0.5820E+00  0.5718E+00  0.1567E-07  0.1558E-07  0.1830E-09  0.1789E-09  0.1567E-07  0.1558E-07  0.1245E-10  0.1132E-10  0.2702E-10  0.3063E-10  0.6888E-06  0.6759E-06  0.2702E-10  0.3063E-10  0.1051E-07  0.1034E-07
    -32.483  0.3888E+01  0.3877E+01  0.1046E-06  0.1055E-06  0.1185E-08  0.1178E-08  0.1046E-06  0.1055E-06  0.8390E-10  0.7761E-10  0.1818E-09  0.2085E-09  0.4617E-05  0.4597E-05  0.1818E-09  0.2085E-09  0.7033E-07  0.7016E-07
    -32.319  0.1435E+01  0.1456E+01  0.3853E-07  0.3958E-07  0.4212E-09  0.4272E-09  0.3853E-07  0.3958E-07  0.3125E-10  0.2952E-10  0.6762E-10  0.7866E-10  0.1710E-05  0.1733E-05  0.6762E-10  0.7866E-10  0.2596E-07  0.2636E-07
    -32.155  0.7236E-01  0.7379E-01  0.1942E-08  0.2005E-08  0.2101E-10  0.2143E-10  0.1942E-08  0.2005E-08  0.1580E-11  0.1502E-11  0.3417E-11  0.3991E-11  0.8633E-07  0.8793E-07  0.3417E-11  0.3991E-11  0.1309E-08  0.1335E-08
    -31.991  0.0000E+00  0.0000E+00  0.0000E+00  0.0000E+00  0.0000E+00  0.0000E+00  0.0000E+00  0.0000E+00  0.0000E+00  0.0000E+00  0.0000E+00  0.0000E+00  0.0000E+00  0.0000E+00  0.0000E+00  0.0000E+00  0.0000E+00  0.0000E+00
    -31.827  0.0000E+00  0.0000E+00  0.0000E+00  0.0000E+00  0.0000E+00  0.0000E+00  0.0000E+00  0.0000E+00  0.0000E+00  0.0000E+00  0.0000E+00  0.0000E+00  0.0000E+00  0.0000E+00  0.0000E+00  0.0000E+00  0.0000E+00  0.0000E+00
    -31.663  0.0000E+00  0.0000E+00  0.0000E+00  0.0000E+00  0.0000E+00  0.0000E+00  0.0000E+00  0.0000E+00  0.0000E+00  0.0000E+00  0.0000E+00  0.0000E+00  0.0000E+00  0.0000E+00  0.0000E+00  0.0000E+00  0.0000E+00  0.0000E+00
    -31.500  0.0000E+00  0.0000E+00  0.0000E+00  0.0000E+00  0.0000E+00  0.0000E+00  0.0000E+00  0.0000E+00  0.0000E+00  0.0000E+00  0.0000E+00  0.0000E+00  0.0000E+00  0.0000E+00  0.0000E+00  0.0000E+00  0.0000E+00  0.0000E+00
    -31.336  0.0000E+00  0.0000E+00  0.0000E+00  0.0000E+00  0.0000E+00  0.0000E+00  0.0000E+00  0.0000E+00  0.0000E+00  0.0000E+00  0.0000E+00  0.0000E+00  0.0000E+00  0.0000E+00  0.0000E+00  0.0000E+00  0.0000E+00  0.0000E+00
    -31.172  0.0000E+00  0.0000E+00  0.0000E+00  0.0000E+00  0.0000E+00  0.0000E+00  0.0000E+00  0.0000E+00  0.0000E+00  0.0000E+00  0.0000E+00  0.0000E+00  0.0000E+00  0.0000E+00  0.0000E+00  0.0000E+00  0.0000E+00  0.0000E+00
    -31.008  0.0000E+00  0.0000E+00  0.0000E+00  0.0000E+00  0.0000E+00  0.0000E+00  0.0000E+00  0.0000E+00  0.0000E+00  0.0000E+00  0.0000E+00  0.0000E+00  0.0000E+00  0.0000E+00  0.0000E+00  0.0000E+00  0.0000E+00  0.0000E+00
    -30.844  0.0000E+00  0.0000E+00  0.0000E+00  0.0000E+00  0.0000E+00  0.0000E+00  0.0000E+00  0.0000E+00  0.0000E+00  0.0000E+00  0.0000E+00  0.0000E+00  0.0000E+00  0.0000E+00  0.0000E+00  0.0000E+00  0.0000E+00  0.0000E+00
    -30.680  0.0000E+00  0.0000E+00  0.0000E+00  0.0000E+00  0.0000E+00  0.0000E+00  0.0000E+00  0.0000E+00  0.0000E+00  0.0000E+00  0.0000E+00  0.0000E+00  0.0000E+00  0.0000E+00  0.0000E+00  0.0000E+00  0.0000E+00  0.0000E+00
    -30.517  0.0000E+00  0.0000E+00  0.0000E+00  0.0000E+00  0.0000E+00  0.0000E+00  0.0000E+00  0.0000E+00  0.0000E+00  0.0000E+00  0.0000E+00  0.0000E+00  0.0000E+00  0.0000E+00  0.0000E+00  0.0000E+00  0.0000E+00  0.0000E+00
    -30.353  0.0000E+00  0.0000E+00  0.0000E+00  0.0000E+00  0.0000E+00  0.0000E+00  0.0000E+00  0.0000E+00  0.0000E+00  0.0000E+00  0.0000E+00  0.0000E+00  0.0000E+00  0.0000E+00  0.0000E+00  0.0000E+00  0.0000E+00  0.0000E+00
    -30.189  0.0000E+00  0.0000E+00  0.0000E+00  0.0000E+00  0.0000E+00  0.0000E+00  0.0000E+00  0.0000E+00  0.0000E+00  0.0000E+00  0.0000E+00  0.0000E+00  0.0000E+00  0.0000E+00  0.0000E+00  0.0000E+00  0.0000E+00  0.0000E+00
    -30.025  0.0000E+00  0.0000E+00  0.0000E+00  0.0000E+00  0.0000E+00  0.0000E+00  0.0000E+00  0.0000E+00  0.0000E+00  0.0000E+00  0.0000E+00  0.0000E+00  0.0000E+00  0.0000E+00  0.0000E+00  0.0000E+00  0.0000E+00  0.0000E+00
    -29.861  0.0000E+00  0.0000E+00  0.0000E+00  0.0000E+00  0.0000E+00  0.0000E+00  0.0000E+00  0.0000E+00  0.0000E+00  0.0000E+00  0.0000E+00  0.0000E+00  0.0000E+00  0.0000E+00  0.0000E+00  0.0000E+00  0.0000E+00  0.0000E+00
    -29.697  0.0000E+00  0.0000E+00  0.0000E+00  0.0000E+00  0.0000E+00  0.0000E+00  0.0000E+00  0.0000E+00  0.0000E+00  0.0000E+00  0.0000E+00  0.0000E+00  0.0000E+00  0.0000E+00  0.0000E+00  0.0000E+00  0.0000E+00  0.0000E+00
    -29.534  0.0000E+00  0.0000E+00  0.0000E+00  0.0000E+00  0.0000E+00  0.0000E+00  0.0000E+00  0.0000E+00  0.0000E+00  0.0000E+00  0.0000E+00  0.0000E+00  0.0000E+00  0.0000E+00  0.0000E+00  0.0000E+00  0.0000E+00  0.0000E+00
    -29.370  0.0000E+00  0.0000E+00  0.0000E+00  0.0000E+00  0.0000E+00  0.0000E+00  0.0000E+00  0.0000E+00  0.0000E+00  0.0000E+00  0.0000E+00  0.0000E+00  0.0000E+00  0.0000E+00  0.0000E+00  0.0000E+00  0.0000E+00  0.0000E+00
    -29.206  0.0000E+00  0.0000E+00  0.0000E+00  0.0000E+00  0.0000E+00  0.0000E+00  0.0000E+00  0.0000E+00  0.0000E+00  0.0000E+00  0.0000E+00  0.0000E+00  0.0000E+00  0.0000E+00  0.0000E+00  0.0000E+00  0.0000E+00  0.0000E+00
    -29.042  0.0000E+00  0.0000E+00  0.0000E+00  0.0000E+00  0.0000E+00  0.0000E+00  0.0000E+00  0.0000E+00  0.0000E+00  0.0000E+00  0.0000E+00  0.0000E+00  0.0000E+00  0.0000E+00  0.0000E+00  0.0000E+00  0.0000E+00  0.0000E+00
    -28.878  0.0000E+00  0.0000E+00  0.0000E+00  0.0000E+00  0.0000E+00  0.0000E+00  0.0000E+00  0.0000E+00  0.0000E+00  0.0000E+00  0.0000E+00  0.0000E+00  0.0000E+00  0.0000E+00  0.0000E+00  0.0000E+00  0.0000E+00  0.0000E+00
    -28.714  0.0000E+00  0.0000E+00  0.0000E+00  0.0000E+00  0.0000E+00  0.0000E+00  0.0000E+00  0.0000E+00  0.0000E+00  0.0000E+00  0.0000E+00  0.0000E+00  0.0000E+00  0.0000E+00  0.0000E+00  0.0000E+00  0.0000E+00  0.0000E+00
    -28.550  0.0000E+00  0.0000E+00  0.0000E+00  0.0000E+00  0.0000E+00  0.0000E+00  0.0000E+00  0.0000E+00  0.0000E+00  0.0000E+00  0.0000E+00  0.0000E+00  0.0000E+00  0.0000E+00  0.0000E+00  0.0000E+00  0.0000E+00  0.0000E+00
    -28.387  0.0000E+00  0.0000E+00  0.0000E+00  0.0000E+00  0.0000E+00  0.0000E+00  0.0000E+00  0.0000E+00  0.0000E+00  0.0000E+00  0.0000E+00  0.0000E+00  0.0000E+00  0.0000E+00  0.0000E+00  0.0000E+00  0.0000E+00  0.0000E+00
    -28.223  0.0000E+00  0.0000E+00  0.0000E+00  0.0000E+00  0.0000E+00  0.0000E+00  0.0000E+00  0.0000E+00  0.0000E+00  0.0000E+00  0.0000E+00  0.0000E+00  0.0000E+00  0.0000E+00  0.0000E+00  0.0000E+00  0.0000E+00  0.0000E+00
    -28.059  0.0000E+00  0.0000E+00  0.0000E+00  0.0000E+00  0.0000E+00  0.0000E+00  0.0000E+00  0.0000E+00  0.0000E+00  0.0000E+00  0.0000E+00  0.0000E+00  0.0000E+00  0.0000E+00  0.0000E+00  0.0000E+00  0.0000E+00  0.0000E+00
    -27.895  0.0000E+00  0.0000E+00  0.0000E+00  0.0000E+00  0.0000E+00  0.0000E+00  0.0000E+00  0.0000E+00  0.0000E+00  0.0000E+00  0.0000E+00  0.0000E+00  0.0000E+00  0.0000E+00  0.0000E+00  0.0000E+00  0.0000E+00  0.0000E+00
    -27.731  0.0000E+00  0.0000E+00  0.0000E+00  0.0000E+00  0.0000E+00  0.0000E+00  0.0000E+00  0.0000E+00  0.0000E+00  0.0000E+00  0.0000E+00  0.0000E+00  0.0000E+00  0.0000E+00  0.0000E+00  0.0000E+00  0.0000E+00  0.0000E+00
    -27.567  0.0000E+00  0.0000E+00  0.0000E+00  0.0000E+00  0.0000E+00  0.0000E+00  0.0000E+00  0.0000E+00  0.0000E+00  0.0000E+00  0.0000E+00  0.0000E+00  0.0000E+00  0.0000E+00  0.0000E+00  0.0000E+00  0.0000E+00  0.0000E+00
    -27.404  0.0000E+00  0.0000E+00  0.0000E+00  0.0000E+00  0.0000E+00  0.0000E+00  0.0000E+00  0.0000E+00  0.0000E+00  0.0000E+00  0.0000E+00  0.0000E+00  0.0000E+00  0.0000E+00  0.0000E+00  0.0000E+00  0.0000E+00  0.0000E+00
    -27.240  0.0000E+00  0.0000E+00  0.0000E+00  0.0000E+00  0.0000E+00  0.0000E+00  0.0000E+00  0.0000E+00  0.0000E+00  0.0000E+00  0.0000E+00  0.0000E+00  0.0000E+00  0.0000E+00  0.0000E+00  0.0000E+00  0.0000E+00  0.0000E+00
    -27.076  0.0000E+00  0.0000E+00  0.0000E+00  0.0000E+00  0.0000E+00  0.0000E+00  0.0000E+00  0.0000E+00  0.0000E+00  0.0000E+00  0.0000E+00  0.0000E+00  0.0000E+00  0.0000E+00  0.0000E+00  0.0000E+00  0.0000E+00  0.0000E+00
    -26.912  0.0000E+00  0.0000E+00  0.0000E+00  0.0000E+00  0.0000E+00  0.0000E+00  0.0000E+00  0.0000E+00  0.0000E+00  0.0000E+00  0.0000E+00  0.0000E+00  0.0000E+00  0.0000E+00  0.0000E+00  0.0000E+00  0.0000E+00  0.0000E+00
    -26.748  0.0000E+00  0.0000E+00  0.0000E+00  0.0000E+00  0.0000E+00  0.0000E+00  0.0000E+00  0.0000E+00  0.0000E+00  0.0000E+00  0.0000E+00  0.0000E+00  0.0000E+00  0.0000E+00  0.0000E+00  0.0000E+00  0.0000E+00  0.0000E+00
    -26.584  0.0000E+00  0.0000E+00  0.0000E+00  0.0000E+00  0.0000E+00  0.0000E+00  0.0000E+00  0.0000E+00  0.0000E+00  0.0000E+00  0.0000E+00  0.0000E+00  0.0000E+00  0.0000E+00  0.0000E+00  0.0000E+00  0.0000E+00  0.0000E+00