   8   8   1   0
  0.2457983E+02  0.4587159E-09  0.4587159E-09  0.9345043E-09  0.5000000E-15
  1.000000000000000E-004
  CAR 
 unknown system                          
     10.55617815    -38.74624911  301      4.27137264      1.00000000
    -38.746  0.0000E+00  0.0000E+00  0.0000E+00  0.0000E+00
    -38.582  0.0000E+00  0.0000E+00  0.0000E+00  0.0000E+00
    -38.418  0.0000E+00  0.0000E+00  0.0000E+00  0.0000E+00
    -38.253  0.0000E+00  0.0000E+00  0.0000E+00  0.0000E+00
    -38.089  0.0000E+00  0.0000E+00  0.0000E+00  0.0000E+00
    -37.925  0.0000E+00  0.0000E+00  0.0000E+00  0.0000E+00
    -37.760  0.0000E+00  0.0000E+00  0.0000E+00  0.0000E+00
    -37.596  0.0000E+00  0.0000E+00  0.0000E+00  0.0000E+00
    -37.432  0.0000E+00  0.0000E+00  0.0000E+00  0.0000E+00
    -37.267  0.0000E+00  0.0000E+00  0.0000E+00  0.0000E+00
    -37.103  0.0000E+00  0.0000E+00  0.0000E+00  0.0000E+00
    -36.938  0.2072E-02  0.2072E-02  0.3405E-03  0.3406E-03
    -36.774  0.5312E-01  0.5314E-01  0.9071E-02  0.9073E-02
    -36.610  0.1267E+01  0.1268E+01  0.2173E+00  0.2174E+00
    -36.445  0.7992E+01  0.7992E+01  0.1531E+01  0.1531E+01
    -36.281  0.2718E+01  0.2717E+01  0.1977E+01  0.1977E+01
    -36.117  0.1326E+00  0.1326E+00  0.1999E+01  0.1999E+01
    -35.952  0.0000E+00  0.0000E+00  0.2000E+01  0.2000E+01
    -35.788  0.0000E+00  0.0000E+00  0.2000E+01  0.2000E+01
    -35.624  0.0000E+00  0.0000E+00  0.2000E+01  0.2000E+01
    -35.459  0.0000E+00  0.0000E+00  0.2000E+01  0.2000E+01
    -35.295  0.0000E+00  0.0000E+00  0.2000E+01  0.2000E+01
    -35.131  0.0000E+00  0.0000E+00  0.2000E+01  0.2000E+01
    -34.966  0.0000E+00  0.0000E+00  0.2000E+01  0.2000E+01
    -34.802  0.0000E+00  0.0000E+00  0.2000E+01  0.2000E+01
    -34.638  0.0000E+00  0.0000E+00  0.2000E+01  0.2000E+01
    -34.473  0.0000E+00  0.0000E+00  0.2000E+01  0.2000E+01
    -34.309  0.0000E+00  0.0000E+00  0.2000E+01  0.2000E+01
    -34.145  0.0000E+00  0.0000E+00  0.2000E+01  0.2000E+01
    -33.980  0.0000E+00  0.0000E+00  0.2000E+01  0.2000E+01
    -33.816  0.0000E+00  0.0000E+00  0.2000E+01  0.2000E+01
    -33.652  0.0000E+00  0.0000E+00  0.2000E+01  0.2000E+01
    -33.487  0.0000E+00  0.0000E+00  0.2000E+01  0.2000E+01
    -33.323  0.0000E+00  0.0000E+00  0.2000E+01  0.2000E+01
    -33.159  0.0000E+00  0.0000E+00  0.2000E+01  0.2000E+01
    -32.994  0.0000E+00  0.0000E+00  0.2000E+01  0.2000E+01
    -32.830  0.0000E+00  0.0000E+00  0.2000E+01  0.2000E+01
    -32.666  0.0000E+00  0.0000E+00  0.2000E+01  0.2000E+01
    -32.501  0.0000E+00  0.0000E+00  0.2000E+01  0.2000E+01
    -32.337  0.0000E+00  0.0000E+00  0.2000E+01  0.2000E+01
    -32.173  0.0000E+00  0.0000E+00  0.2000E+01  0.2000E+01
    -32.008  0.0000E+00  0.0000E+00  0.2000E+01  0.2000E+01
    -31.844  0.0000E+00  0.0000E+00  0.2000E+01  0.2000E+01
    -31.680  0.0000E+00  0.0000E+00  0.2000E+01  0.2000E+01
    -31.515  0.0000E+00  0.0000E+00  0.2000E+01  0.2000E+01
    -31.351  0.0000E+00  0.0000E+00  0.2000E+01  0.2000E+01
    -31.187  0.0000E+00  0.0000E+00  0.2000E+01  0.2000E+01
    -31.022  0.0000E+00  0.0000E+00  0.2000E+01  0.2000E+01
    -30.858  0.0000E+00  0.0000E+00  0.2000E+01  0.2000E+01
    -30.694  0.0000E+00  0.0000E+00  0.2000E+01  0.2000E+01
    -30.529  0.0000E+00  0.0000E+00  0.2000E+01  0.2000E+01
    -30.365  0.0000E+00  0.0000E+00  0.2000E+01  0.2000E+01
    -30.200  0.0000E+00  0.0000E+00  0.2000E+01  0.2000E+01
    -30.036  0.0000E+00  0.0000E+00  0.2000E+01  0.2000E+01
    -29.872  0.0000E+00  0.0000E+00  0.2000E+01  0.2000E+01
    -29.707  0.0000E+00  0.0000E+00  0.2000E+01  0.2000E+01
    -29.543  0.0000E+00  0.0000E+00  0.2000E+01  0.2000E+01
    -29.379  0.0000E+00  0.0000E+00  0.2000E+01  0.2000E+01
    -29.214  0.0000E+00  0.0000E+00  0.2000E+01  0.2000E+01
    -29.050  0.0000E+00  0.0000E+00  0.2000E+01  0.2000E+01
    -28.886  0.0000E+00  0.0000E+00  0.2000E+01  0.2000E+01
    -28.721  0.0000E+00  0.0000E+00  0.2000E+01  0.2000E+01
    -28.557  0.0000E+00  0.0000E+00  0.2000E+01  0.2000E+01
    -28.393  0.0000E+00  0.0000E+00  0.2000E+01  0.2000E+01
    -28.228  0.0000E+00  0.0000E+00  0.2000E+01  0.2000E+01
    -28.064  0.0000E+00  0.0000E+00  0.2000E+01  0.2000E+01
    -27.900  0.0000E+00  0.0000E+00  0.2000E+01  0.2000E+01
    -27.735  0.0000E+00  0.0000E+00  0.2000E+01  0.2000E+01
    -27.571  0.0000E+00  0.0000E+00  0.2000E+01  0.2000E+01
    -27.407  0.0000E+00  0.0000E+00  0.2000E+01  0.2000E+01
    -27.242  0.0000E+00  0.0000E+00  0.2000E+01  0.2000E+01
    -27.078  0.0000E+00  0.0000E+00  0.2000E+01  0.2000E+01
    -26.914  0.0000E+00  0.0000E+00  0.2000E+01  0.2000E+01
    -26.749  0.0000E+00  0.0000E+00  0.2000E+01  0.2000E+01
    -26.585  0.0000E+00  0.0000E+00  0.2000E+01  0.2000E+01
    -26.421  0.0000E+00  0.0000E+00  0.2000E+01  0.2000E+01
    -26.256  0.0000E+00  0.0000E+00  0.2000E+01  0.2000E+01
    -26.092  0.0000E+00  0.0000E+00  0.2000E+01  0.2000E+01
    -25.928  0.0000E+00  0.0000E+00  0.2000E+01  0.2000E+01
    -25.763  0.0000E+00  0.0000E+00  0.2000E+01  0.2000E+01
    -25.599  0.0000E+00  0.0000E+00  0.2000E+01  0.2000E+01
    -25.435  0.0000E+00  0.0000E+00  0.2000E+01  0.2000E+01
    -25.270  0.0000E+00  0.0000E+00  0.2000E+01  0.2000E+01
    -25.106  0.0000E+00  0.0000E+00  0.2000E+01  0.2000E+01
    -24.942  0.0000E+00  0.0000E+00  0.2000E+01  0.2000E+01
    -24.777  0.0000E+00  0.0000E+00  0.2000E+01  0.2000E+01
    -24.613  0.0000E+00  0.0000E+00  0.2000E+01  0.2000E+01
    -24.449  0.0000E+00  0.0000E+00  0.2000E+01  0.2000E+01
    -24.284  0.0000E+00  0.0000E+00  0.2000E+01  0.2000E+01
    -24.120  0.0000E+00  0.0000E+00  0.2000E+01  0.2000E+01
    -23.956  0.0000E+00  0.0000E+00  0.2000E+01  0.2000E+01
    -23.791  0.0000E+00  0.0000E+00  0.2000E+01  0.2000E+01
    -23.627  0.0000E+00  0.0000E+00  0.2000E+01  0.2000E+01
    -23.462  0.0000E+00  0.0000E+00  0.2000E+01  0.2000E+01
    -23.298  0.0000E+00  0.0000E+00  0.2000E+01  0.2000E+01
    -23.134  0.0000E+00  0.0000E+00  0.2000E+01  0.2000E+01
    -22.969  0.0000E+00  0.0000E+00  0.2000E+01  0.2000E+01
    -22.805  0.0000E+00  0.0000E+00  0.2000E+01  0.2000E+01
    -22.641  0.0000E+00  0.0000E+00  0.2000E+01  0.2000E+01
    -22.476  0.0000E+00  0.0000E+00  0.2000E+01  0.2000E+01
    -22.312  0.0000E+00  0.0000E+00  0.2000E+01  0.2000E+01
    -22.148  0.0000E+00  0.0000E+00  0.2000E+01  0.2000E+01
    -21.983  0.0000E+00  0.0000E+00  0.2000E+01  0.2000E+01
    -21.819  0.0000E+00  0.0000E+00  0.2000E+01  0.2000E+01
    -21.655  0.0000E+00  0.0000E+00  0.2000E+01  0.2000E+01
    -21.490  0.0000E+00  0.0000E+00  0.2000E+01  0.2000E+01
    -21.326  0.0000E+00  0.0000E+00  0.2000E+01  0.2000E+01
    -21.162  0.0000E+00  0.0000E+00  0.2000E+01  0.2000E+01
    -20.997  0.0000E+00  0.0000E+00  0.2000E+01  0.2000E+01
    -20.833  0.0000E+00  0.0000E+00  0.2000E+01  0.2000E+01
    -20.669  0.0000E+00  0.0000E+00  0.2000E+01  0.2000E+01
    -20.504  0.0000E+00  0.0000E+00  0.2000E+01  0.2000E+01
    -20.340  0.0000E+00  0.0000E+00  0.2000E+01  0.2000E+01
    -20.176  0.0000E+00  0.0000E+00  0.2000E+01  0.2000E+01
    -20.011  0.0000E+00  0.0000E+00  0.2000E+01  0.2000E+01
    -19.847  0.0000E+00  0.0000E+00  0.2000E+01  0.2000E+01
    -19.683  0.0000E+00  0.0000E+00  0.2000E+01  0.2000E+01
    -19.518  0.0000E+00  0.0000E+00  0.2000E+01  0.2000E+01
    -19.354  0.0000E+00  0.0000E+00  0.2000E+01  0.2000E+01
    -19.190  0.0000E+00  0.0000E+00  0.2000E+01  0.2000E+01
    -19.025  0.0000E+00  0.0000E+00  0.2000E+01  0.2000E+01
    -18.861  0.0000E+00  0.0000E+00  0.2000E+01  0.2000E+01
    -18.697  0.0000E+00  0.0000E+00  0.2000E+01  0.2000E+01
    -18.532  0.0000E+00  0.0000E+00  0.2000E+01  0.2000E+01
    -18.368  0.0000E+00  0.0000E+00  0.2000E+01  0.2000E+01
    -18.204  0.0000E+00  0.0000E+00  0.2000E+01  0.2000E+01
    -18.039  0.2613E-02  0.2609E-02  0.2000E+01  0.2000E+01
    -17.875  0.6715E-01  0.6705E-01  0.2011E+01  0.2011E+01
    -17.711  0.1699E+01  0.1697E+01  0.2291E+01  0.2290E+01
    -17.546  0.1872E+02  0.1871E+02  0.5368E+01  0.5366E+01
    -17.382  0.1494E+02  0.1495E+02  0.7822E+01  0.7822E+01
    -17.218  0.1040E+01  0.1041E+01  0.7993E+01  0.7993E+01
    -17.053  0.0000E+00  0.0000E+00  0.8000E+01  0.8000E+01
    -16.889  0.0000E+00  0.0000E+00  0.8000E+01  0.8000E+01
    -16.724  0.0000E+00  0.0000E+00  0.8000E+01  0.8000E+01
    -16.560  0.0000E+00  0.0000E+00  0.8000E+01  0.8000E+01
    -16.396  0.0000E+00  0.0000E+00  0.8000E+01  0.8000E+01
    -16.231  0.0000E+00  0.0000E+00  0.8000E+01  0.8000E+01
    -16.067  0.0000E+00  0.0000E+00  0.8000E+01  0.8000E+01
    -15.903  0.0000E+00  0.0000E+00  0.8000E+01  0.8000E+01
    -15.738  0.0000E+00  0.0000E+00  0.8000E+01  0.8000E+01
    -15.574  0.0000E+00  0.0000E+00  0.8000E+01  0.8000E+01
    -15.410  0.0000E+00  0.0000E+00  0.8000E+01  0.8000E+01
    -15.245  0.0000E+00  0.0000E+00  0.8000E+01  0.8000E+01
    -15.081  0.0000E+00  0.0000E+00  0.8000E+01  0.8000E+01
    -14.917  0.0000E+00  0.0000E+00  0.8000E+01  0.8000E+01
    -14.752  0.0000E+00  0.0000E+00  0.8000E+01  0.8000E+01
    -14.588  0.0000E+00  0.0000E+00  0.8000E+01  0.8000E+01
    -14.424  0.0000E+00  0.0000E+00  0.8000E+01  0.8000E+01
    -14.259  0.0000E+00  0.0000E+00  0.8000E+01  0.8000E+01
    -14.095  0.0000E+00  0.0000E+00  0.8000E+01  0.8000E+01
    -13.931  0.0000E+00  0.0000E+00  0.8000E+01  0.8000E+01
    -13.766  0.0000E+00  0.0000E+00  0.8000E+01  0.8000E+01
    -13.602  0.0000E+00  0.0000E+00  0.8000E+01  0.8000E+01
    -13.438  0.0000E+00  0.0000E+00  0.8000E+01  0.8000E+01
    -13.273  0.0000E+00  0.0000E+00  0.8000E+01  0.8000E+01
    -13.109  0.0000E+00  0.0000E+00  0.8000E+01  0.8000E+01
    -12.945  0.0000E+00  0.0000E+00  0.8000E+01  0.8000E+01
    -12.780  0.0000E+00  0.0000E+00  0.8000E+01  0.8000E+01
    -12.616  0.0000E+00  0.0000E+00  0.8000E+01  0.8000E+01
    -12.452  0.0000E+00  0.0000E+00  0.8000E+01  0.8000E+01
    -12.287  0.0000E+00  0.0000E+00  0.8000E+01  0.8000E+01
    -12.123  0.0000E+00  0.0000E+00  0.8000E+01  0.8000E+01
    -11.959  0.0000E+00  0.0000E+00  0.8000E+01  0.8000E+01
    -11.794  0.0000E+00  0.0000E+00  0.8000E+01  0.8000E+01
    -11.630  0.0000E+00  0.0000E+00  0.8000E+01  0.8000E+01
    -11.466  0.0000E+00  0.0000E+00  0.8000E+01  0.8000E+01
    -11.301  0.0000E+00  0.0000E+00  0.8000E+01  0.8000E+01
    -11.137  0.0000E+00  0.0000E+00  0.8000E+01  0.8000E+01
    -10.973  0.0000E+00  0.0000E+00  0.8000E+01  0.8000E+01
    -10.808  0.0000E+00  0.0000E+00  0.8000E+01  0.8000E+01
    -10.644  0.0000E+00  0.0000E+00  0.8000E+01  0.8000E+01
    -10.480  0.0000E+00  0.0000E+00  0.8000E+01  0.8000E+01
    -10.315  0.0000E+00  0.0000E+00  0.8000E+01  0.8000E+01
    -10.151  0.0000E+00  0.0000E+00  0.8000E+01  0.8000E+01
     -9.986  0.0000E+00  0.0000E+00  0.8000E+01  0.8000E+01
     -9.822  0.0000E+00  0.0000E+00  0.8000E+01  0.8000E+01
     -9.658  0.0000E+00  0.0000E+00  0.8000E+01  0.8000E+01
     -9.493  0.0000E+00  0.0000E+00  0.8000E+01  0.8000E+01
     -9.329  0.0000E+00  0.0000E+00  0.8000E+01  0.8000E+01
     -9.165  0.0000E+00  0.0000E+00  0.8000E+01  0.8000E+01
     -9.000  0.0000E+00  0.0000E+00  0.8000E+01  0.8000E+01
     -8.836  0.0000E+00  0.0000E+00  0.8000E+01  0.8000E+01
     -8.672  0.0000E+00  0.0000E+00  0.8000E+01  0.8000E+01
     -8.507  0.0000E+00  0.0000E+00  0.8000E+01  0.8000E+01
     -8.343  0.0000E+00  0.0000E+00  0.8000E+01  0.8000E+01
     -8.179  0.0000E+00  0.0000E+00  0.8000E+01  0.8000E+01
     -8.014  0.0000E+00  0.0000E+00  0.8000E+01  0.8000E+01
     -7.850  0.0000E+00  0.0000E+00  0.8000E+01  0.8000E+01
     -7.686  0.0000E+00  0.0000E+00  0.8000E+01  0.8000E+01
     -7.521  0.0000E+00  0.0000E+00  0.8000E+01  0.8000E+01
     -7.357  0.0000E+00  0.0000E+00  0.8000E+01  0.8000E+01
     -7.193  0.0000E+00  0.0000E+00  0.8000E+01  0.8000E+01
     -7.028  0.0000E+00  0.0000E+00  0.8000E+01  0.8000E+01
     -6.864  0.0000E+00  0.0000E+00  0.8000E+01  0.8000E+01
     -6.700  0.0000E+00  0.0000E+00  0.8000E+01  0.8000E+01
     -6.535  0.0000E+00  0.0000E+00  0.8000E+01  0.8000E+01
     -6.371  0.0000E+00  0.0000E+00  0.8000E+01  0.8000E+01
     -6.207  0.0000E+00  0.0000E+00  0.8000E+01  0.8000E+01
     -6.042  0.0000E+00  0.0000E+00  0.8000E+01  0.8000E+01
     -5.878  0.0000E+00  0.0000E+00  0.8000E+01  0.8000E+01
     -5.714  0.0000E+00  0.0000E+00  0.8000E+01  0.8000E+01
     -5.549  0.0000E+00  0.0000E+00  0.8000E+01  0.8000E+01
     -5.385  0.0000E+00  0.0000E+00  0.8000E+01  0.8000E+01
     -5.221  0.0000E+00  0.0000E+00  0.8000E+01  0.8000E+01
     -5.056  0.0000E+00  0.0000E+00  0.8000E+01  0.8000E+01
     -4.892  0.0000E+00  0.0000E+00  0.8000E+01  0.8000E+01
     -4.728  0.0000E+00  0.0000E+00  0.8000E+01  0.8000E+01
     -4.563  0.0000E+00  0.0000E+00  0.8000E+01  0.8000E+01
     -4.399  0.0000E+00  0.0000E+00  0.8000E+01  0.8000E+01
     -4.235  0.6930E-07  0.6830E-07  0.8000E+01  0.8000E+01
     -4.070  0.1288E-04  0.1269E-04  0.8000E+01  0.8000E+01
     -3.906  0.3733E-03  0.3679E-03  0.8000E+01  0.8000E+01
     -3.742  0.9203E-02  0.9080E-02  0.8002E+01  0.8002E+01
     -3.577  0.1007E+00  0.9999E-01  0.8018E+01  0.8018E+01
     -3.413  0.2740E+00  0.2733E+00  0.8063E+01  0.8063E+01
     -3.249  0.3968E+00  0.3963E+00  0.8128E+01  0.8128E+01
     -3.084  0.4927E+00  0.4925E+00  0.8209E+01  0.8209E+01
     -2.920  0.5816E+00  0.5810E+00  0.8305E+01  0.8305E+01
     -2.755  0.6575E+00  0.6580E+00  0.8414E+01  0.8413E+01
     -2.591  0.7288E+00  0.7282E+00  0.8534E+01  0.8533E+01
     -2.427  0.8473E+00  0.8469E+00  0.8673E+01  0.8673E+01
     -2.262  0.8916E+00  0.8915E+00  0.8820E+01  0.8819E+01
     -2.098  0.1013E+01  0.1012E+01  0.8987E+01  0.8986E+01
     -1.934  0.1022E+01  0.1023E+01  0.9155E+01  0.9155E+01
     -1.769  0.1069E+01  0.1068E+01  0.9331E+01  0.9331E+01
     -1.605  0.1102E+01  0.1102E+01  0.9513E+01  0.9512E+01
     -1.441  0.9440E+00  0.9453E+00  0.9669E+01  0.9668E+01
     -1.276  0.9019E+00  0.9008E+00  0.9817E+01  0.9817E+01
     -1.112  0.1247E+01  0.1245E+01  0.1002E+02  0.1002E+02
     -0.948  0.1345E+01  0.1344E+01  0.1024E+02  0.1024E+02
     -0.783  0.1388E+01  0.1388E+01  0.1047E+02  0.1047E+02
     -0.619  0.1276E+01  0.1276E+01  0.1068E+02  0.1068E+02
     -0.455  0.1230E+01  0.1231E+01  0.1089E+02  0.1088E+02
     -0.290  0.1089E+01  0.1088E+01  0.1106E+02  0.1106E+02
     -0.126  0.1152E+01  0.1152E+01  0.1125E+02  0.1125E+02
      0.038  0.1491E+01  0.1490E+01  0.1150E+02  0.1150E+02
      0.203  0.1562E+01  0.1562E+01  0.1176E+02  0.1176E+02
      0.367  0.1506E+01  0.1506E+01  0.1201E+02  0.1200E+02
      0.531  0.1624E+01  0.1625E+01  0.1227E+02  0.1227E+02
      0.696  0.1360E+01  0.1360E+01  0.1250E+02  0.1250E+02
      0.860  0.1458E+01  0.1459E+01  0.1274E+02  0.1274E+02
      1.024  0.1108E+01  0.1110E+01  0.1292E+02  0.1292E+02
      1.189  0.1144E+01  0.1142E+01  0.1311E+02  0.1311E+02
      1.353  0.1467E+01  0.1469E+01  0.1335E+02  0.1335E+02
      1.517  0.9920E+00  0.9933E+00  0.1351E+02  0.1351E+02
      1.682  0.1183E+01  0.1180E+01  0.1371E+02  0.1371E+02
      1.846  0.1524E+01  0.1525E+01  0.1396E+02  0.1396E+02
      2.010  0.1253E+01  0.1253E+01  0.1417E+02  0.1417E+02
      2.175  0.1458E+01  0.1456E+01  0.1441E+02  0.1441E+02
      2.339  0.1878E+01  0.1877E+01  0.1472E+02  0.1471E+02
      2.503  0.2005E+01  0.2006E+01  0.1505E+02  0.1504E+02
      2.668  0.1863E+01  0.1863E+01  0.1535E+02  0.1535E+02
      2.832  0.1842E+01  0.1842E+01  0.1566E+02  0.1566E+02
      2.996  0.2062E+01  0.2060E+01  0.1600E+02  0.1599E+02
      3.161  0.2152E+01  0.2151E+01  0.1635E+02  0.1635E+02
      3.325  0.2400E+01  0.2400E+01  0.1675E+02  0.1674E+02
      3.489  0.2356E+01  0.2355E+01  0.1713E+02  0.1713E+02
      3.654  0.2705E+01  0.2704E+01  0.1758E+02  0.1758E+02
      3.818  0.2406E+01  0.2407E+01  0.1798E+02  0.1797E+02
      3.983  0.2341E+01  0.2342E+01  0.1836E+02  0.1836E+02
      4.147  0.2085E+01  0.2083E+01  0.1871E+02  0.1870E+02
      4.311  0.2323E+01  0.2324E+01  0.1909E+02  0.1909E+02
      4.476  0.2094E+01  0.2093E+01  0.1943E+02  0.1943E+02
      4.640  0.2330E+01  0.2330E+01  0.1982E+02  0.1982E+02
      4.804  0.2293E+01  0.2293E+01  0.2019E+02  0.2019E+02
      4.969  0.2450E+01  0.2451E+01  0.2060E+02  0.2060E+02
      5.133  0.2043E+01  0.2046E+01  0.2094E+02  0.2093E+02
      5.297  0.1822E+01  0.1821E+01  0.2124E+02  0.2123E+02
      5.462  0.1921E+01  0.1921E+01  0.2155E+02  0.2155E+02
      5.626  0.1904E+01  0.1904E+01  0.2187E+02  0.2187E+02
      5.790  0.1772E+01  0.1772E+01  0.2216E+02  0.2216E+02
      5.955  0.2290E+01  0.2288E+01  0.2254E+02  0.2253E+02
      6.119  0.2478E+01  0.2478E+01  0.2294E+02  0.2294E+02
      6.283  0.2534E+01  0.2535E+01  0.2336E+02  0.2336E+02
      6.448  0.2795E+01  0.2792E+01  0.2382E+02  0.2382E+02
      6.612  0.3534E+01  0.3532E+01  0.2440E+02  0.2440E+02
      6.776  0.3855E+01  0.3852E+01  0.2504E+02  0.2504E+02
      6.941  0.3456E+01  0.3454E+01  0.2561E+02  0.2560E+02
      7.105  0.2931E+01  0.2919E+01  0.2609E+02  0.2609E+02
      7.269  0.2955E+01  0.2953E+01  0.2658E+02  0.2657E+02
      7.434  0.2765E+01  0.2735E+01  0.2703E+02  0.2702E+02
      7.598  0.1859E+01  0.1910E+01  0.2734E+02  0.2734E+02
      7.762  0.1376E+01  0.1355E+01  0.2757E+02  0.2756E+02
      7.927  0.1018E+01  0.9882E+00  0.2774E+02  0.2773E+02
      8.091  0.8020E+00  0.8847E+00  0.2787E+02  0.2787E+02
      8.255  0.5970E+00  0.5498E+00  0.2797E+02  0.2796E+02
      8.420  0.1793E+00  0.2056E+00  0.2800E+02  0.2800E+02
      8.584  0.1131E-01  0.1339E-01  0.2800E+02  0.2800E+02
      8.748  0.0000E+00  0.0000E+00  0.2800E+02  0.2800E+02
      8.913  0.0000E+00  0.0000E+00  0.2800E+02  0.2800E+02
      9.077  0.0000E+00  0.0000E+00  0.2800E+02  0.2800E+02
      9.241  0.0000E+00  0.0000E+00  0.2800E+02  0.2800E+02
      9.406  0.0000E+00  0.0000E+00  0.2800E+02  0.2800E+02
      9.570  0.0000E+00  0.0000E+00  0.2800E+02  0.2800E+02
      9.734  0.0000E+00  0.0000E+00  0.2800E+02  0.2800E+02
      9.899  0.0000E+00  0.0000E+00  0.2800E+02  0.2800E+02
     10.063  0.0000E+00  0.0000E+00  0.2800E+02  0.2800E+02
     10.227  0.0000E+00  0.0000E+00  0.2800E+02  0.2800E+02
     10.392  0.0000E+00  0.0000E+00  0.2800E+02  0.2800E+02
     10.556  0.0000E+00  0.0000E+00  0.2800E+02  0.2800E+02
     10.55617815    -38.74624911  301      4.27137264      1.00000000
    -38.746  0.0000E+00  0.0000E+00  0.0000E+00  0.0000E+00  0.0000E+00  0.0000E+00  0.0000E+00  0.0000E+00  0.0000E+00  0.0000E+00  0.0000E+00  0.0000E+00  0.0000E+00  0.0000E+00  0.0000E+00  0.0000E+00  0.0000E+00  0.0000E+00
    -38.582  0.0000E+00  0.0000E+00  0.0000E+00  0.0000E+00  0.0000E+00  0.0000E+00  0.0000E+00  0.0000E+00  0.0000E+00  0.0000E+00  0.0000E+00  0.0000E+00  0.0000E+00  0.0000E+00  0.0000E+00  0.0000E+00  0.0000E+00  0.0000E+00
    -38.418  0.0000E+00  0.0000E+00  0.0000E+00  0.0000E+00  0.0000E+00  0.0000E+00  0.0000E+00  0.0000E+00  0.0000E+00  0.0000E+00  0.0000E+00  0.0000E+00  0.0000E+00  0.0000E+00  0.0000E+00  0.0000E+00  0.0000E+00  0.0000E+00
    -38.253  0.0000E+00  0.0000E+00  0.0000E+00  0.0000E+00  0.0000E+00  0.0000E+00  0.0000E+00  0.0000E+00  0.0000E+00  0.0000E+00  0.0000E+00  0.0000E+00  0.0000E+00  0.0000E+00  0.0000E+00  0.0000E+00  0.0000E+00  0.0000E+00
    -38.089  0.0000E+00  0.0000E+00  0.0000E+00  0.0000E+00  0.0000E+00  0.0000E+00  0.0000E+00  0.0000E+00  0.0000E+00  0.0000E+00  0.0000E+00  0.0000E+00  0.0000E+00  0.0000E+00  0.0000E+00  0.0000E+00  0.0000E+00  0.0000E+00
    -37.925  0.0000E+00  0.0000E+00  0.0000E+00  0.0000E+00  0.0000E+00  0.0000E+00  0.0000E+00  0.0000E+00  0.0000E+00  0.0000E+00  0.0000E+00  0.0000E+00  0.0000E+00  0.0000E+00  0.0000E+00  0.0000E+00  0.0000E+00  0.0000E+00
    -37.760  0.0000E+00  0.0000E+00  0.0000E+00  0.0000E+00  0.0000E+00  0.0000E+00  0.0000E+00  0.0000E+00  0.0000E+00  0.0000E+00  0.0000E+00  0.0000E+00  0.0000E+00  0.0000E+00  0.0000E+00  0.0000E+00  0.0000E+00  0.0000E+00
    -37.596  0.0000E+00  0.0000E+00  0.0000E+00  0.0000E+00  0.0000E+00  0.0000E+00  0.0000E+00  0.0000E+00  0.0000E+00  0.0000E+00  0.0000E+00  0.0000E+00  0.0000E+00  0.0000E+00  0.0000E+00  0.0000E+00  0.0000E+00  0.0000E+00
    -37.432  0.0000E+00  0.0000E+00  0.0000E+00  0.0000E+00  0.0000E+00  0.0000E+00  0.0000E+00  0.0000E+00  0.0000E+00  0.0000E+00  0.0000E+00  0.0000E+00  0.0000E+00  0.0000E+00  0.0000E+00  0.0000E+00  0.0000E+00  0.0000E+00
    -37.267  0.0000E+00  0.0000E+00  0.0000E+00  0.0000E+00  0.0000E+00  0.0000E+00  0.0000E+00  0.0000E+00  0.0000E+00  0.0000E+00  0.0000E+00  0.0000E+00  0.0000E+00  0.0000E+00  0.0000E+00  0.0000E+00  0.0000E+00  0.0000E+00
    -37.103  0.0000E+00  0.0000E+00  0.0000E+00  0.0000E+00  0.0000E+00  0.0000E+00  0.0000E+00  0.0000E+00  0.0000E+00  0.0000E+00  0.0000E+00  0.0000E+00  0.0000E+00  0.0000E+00  0.0000E+00  0.0000E+00  0.0000E+00  0.0000E+00
    -36.938  0.1021E-02  0.1021E-02  0.5328E-12  0.5153E-12  0.1510E-13  0.6348E-14  0.5328E-12  0.5153E-12  0.1237E-14  0.5941E-15  0.2337E-14  0.1551E-14  0.2739E-09  0.2747E-09  0.2337E-14  0.1551E-14  0.3525E-12  0.3605E-12
    -36.774  0.2618E-01  0.2619E-01  0.1366E-10  0.1321E-10  0.3872E-12  0.1628E-12  0.1366E-10  0.1321E-10  0.3172E-13  0.1523E-13  0.5993E-13  0.3977E-13  0.7023E-08  0.7044E-08  0.5993E-13  0.3977E-13  0.9039E-11  0.9243E-11
    -36.610  0.6246E+00  0.6247E+00  0.3259E-09  0.3152E-09  0.9235E-11  0.3881E-11  0.3259E-09  0.3152E-09  0.7568E-12  0.3635E-12  0.1430E-11  0.9486E-12  0.1675E-06  0.1680E-06  0.1430E-11  0.9486E-12  0.2156E-09  0.2205E-09
    -36.445  0.3939E+01  0.3939E+01  0.2055E-08  0.1987E-08  0.5815E-10  0.2440E-10  0.2055E-08  0.1987E-08  0.4781E-11  0.2299E-11  0.9022E-11  0.5980E-11  0.1057E-05  0.1060E-05  0.9022E-11  0.5980E-11  0.1360E-08  0.1390E-08
    -36.281  0.1339E+01  0.1339E+01  0.6986E-09  0.6755E-09  0.1974E-10  0.8266E-11  0.6986E-09  0.6755E-09  0.1629E-11  0.7844E-12  0.3070E-11  0.2032E-11  0.3594E-06  0.3603E-06  0.3070E-11  0.2032E-11  0.4625E-09  0.4727E-09
    -36.117  0.6537E-01  0.6536E-01  0.3409E-10  0.3296E-10  0.9628E-12  0.4030E-12  0.3409E-10  0.3296E-10  0.7953E-13  0.3832E-13  0.1499E-12  0.9919E-13  0.1754E-07  0.1759E-07  0.1499E-12  0.9919E-13  0.2258E-10  0.2307E-10
    -35.952  0.0000E+00  0.0000E+00  0.0000E+00  0.0000E+00  0.0000E+00  0.0000E+00  0.0000E+00  0.0000E+00  0.0000E+00  0.0000E+00  0.0000E+00  0.0000E+00  0.0000E+00  0.0000E+00  0.0000E+00  0.0000E+00  0.0000E+00  0.0000E+00
    -35.788  0.0000E+00  0.0000E+00  0.0000E+00  0.0000E+00  0.0000E+00  0.0000E+00  0.0000E+00  0.0000E+00  0.0000E+00  0.0000E+00  0.0000E+00  0.0000E+00  0.0000E+00  0.0000E+00  0.0000E+00  0.0000E+00  0.0000E+00  0.0000E+00
    -35.624  0.0000E+00  0.0000E+00  0.0000E+00  0.0000E+00  0.0000E+00  0.0000E+00  0.0000E+00  0.0000E+00  0.0000E+00  0.0000E+00  0.0000E+00  0.0000E+00  0.0000E+00  0.0000E+00  0.0000E+00  0.0000E+00  0.0000E+00  0.0000E+00
    -35.459  0.0000E+00  0.0000E+00  0.0000E+00  0.0000E+00  0.0000E+00  0.0000E+00  0.0000E+00  0.0000E+00  0.0000E+00  0.0000E+00  0.0000E+00  0.0000E+00  0.0000E+00  0.0000E+00  0.0000E+00  0.0000E+00  0.0000E+00  0.0000E+00
    -35.295  0.0000E+00  0.0000E+00  0.0000E+00  0.0000E+00  0.0000E+00  0.0000E+00  0.0000E+00  0.0000E+00  0.0000E+00  0.0000E+00  0.0000E+00  0.0000E+00  0.0000E+00  0.0000E+00  0.0000E+00  0.0000E+00  0.0000E+00  0.0000E+00
    -35.131  0.0000E+00  0.0000E+00  0.0000E+00  0.0000E+00  0.0000E+00  0.0000E+00  0.0000E+00  0.0000E+00  0.0000E+00  0.0000E+00  0.0000E+00  0.0000E+00  0.0000E+00  0.0000E+00  0.0000E+00  0.0000E+00  0.0000E+00  0.0000E+00
    -34.966  0.0000E+00  0.0000E+00  0.0000E+00  0.0000E+00  0.0000E+00  0.0000E+00  0.0000E+00  0.0000E+00  0.0000E+00  0.0000E+00  0.0000E+00  0.0000E+00  0.0000E+00  0.0000E+00  0.0000E+00  0.0000E+00  0.0000E+00  0.0000E+00
    -34.802  0.0000E+00  0.0000E+00  0.0000E+00  0.0000E+00  0.0000E+00  0.0000E+00  0.0000E+00  0.0000E+00  0.0000E+00  0.0000E+00  0.0000E+00  0.0000E+00  0.0000E+00  0.0000E+00  0.0000E+00  0.0000E+00  0.0000E+00  0.0000E+00
    -34.638  0.0000E+00  0.0000E+00  0.0000E+00  0.0000E+00  0.0000E+00  0.0000E+00  0.0000E+00  0.0000E+00  0.0000E+00  0.0000E+00  0.0000E+00  0.0000E+00  0.0000E+00  0.0000E+00  0.0000E+00  0.0000E+00  0.0000E+00  0.0000E+00
    -34.473  0.0000E+00  0.0000E+00  0.0000E+00  0.0000E+00  0.0000E+00  0.0000E+00  0.0000E+00  0.0000E+00  0.0000E+00  0.0000E+00  0.0000E+00  0.0000E+00  0.0000E+00  0.0000E+00  0.0000E+00  0.0000E+00  0.0000E+00  0.0000E+00
    -34.309  0.0000E+00  0.0000E+00  0.0000E+00  0.0000E+00  0.0000E+00  0.0000E+00  0.0000E+00  0.0000E+00  0.0000E+00  0.0000E+00  0.0000E+00  0.0000E+00  0.0000E+00  0.0000E+00  0.0000E+00  0.0000E+00  0.0000E+00  0.0000E+00
    -34.145  0.0000E+00  0.0000E+00  0.0000E+00  0.0000E+00  0.0000E+00  0.0000E+00  0.0000E+00  0.0000E+00  0.0000E+00  0.0000E+00  0.0000E+00  0.0000E+00  0.0000E+00  0.0000E+00  0.0000E+00  0.0000E+00  0.0000E+00  0.0000E+00
    -33.980  0.0000E+00  0.0000E+00  0.0000E+00  0.0000E+00  0.0000E+00  0.0000E+00  0.0000E+00  0.0000E+00  0.0000E+00  0.0000E+00  0.0000E+00  0.0000E+00  0.0000E+00  0.0000E+00  0.0000E+00  0.0000E+00  0.0000E+00  0.0000E+00
    -33.816  0.0000E+00  0.0000E+00  0.0000E+00  0.0000E+00  0.0000E+00  0.0000E+00  0.0000E+00  0.0000E+00  0.0000E+00  0.0000E+00  0.0000E+00  0.0000E+00  0.0000E+00  0.0000E+00  0.0000E+00  0.0000E+00  0.0000E+00  0.0000E+00
    -33.652  0.0000E+00  0.0000E+00  0.0000E+00  0.0000E+00  0.0000E+00  0.0000E+00  0.0000E+00  0.0000E+00  0.0000E+00  0.0000E+00  0.0000E+00  0.0000E+00  0.0000E+00  0.0000E+00  0.0000E+00  0.0000E+00  0.0000E+00  0.0000E+00
    -33.487  0.0000E+00  0.0000E+00  0.0000E+00  0.0000E+00  0.0000E+00  0.0000E+00  0.0000E+00  0.0000E+00  0.0000E+00  0.0000E+00  0.0000E+00  0.0000E+00  0.0000E+00  0.0000E+00  0.0000E+00  0.0000E+00  0.0000E+00  0.0000E+00
    -33.323  0.0000E+00  0.0000E+00  0.0000E+00  0.0000E+00  0.0000E+00  0.0000E+00  0.0000E+00  0.0000E+00  0.0000E+00  0.0000E+00  0.0000E+00  0.0000E+00  0.0000E+00  0.0000E+00  0.0000E+00  0.0000E+00  0.0000E+00  0.0000E+00
    -33.159  0.0000E+00  0.0000E+00  0.0000E+00  0.0000E+00  0.0000E+00  0.0000E+00  0.0000E+00  0.0000E+00  0.0000E+00  0.0000E+00  0.0000E+00  0.0000E+00  0.0000E+00  0.0000E+00  0.0000E+00  0.0000E+00  0.0000E+00  0.0000E+00
    -32.994  0.0000E+00  0.0000E+00  0.0000E+00  0.0000E+00  0.0000E+00  0.0000E+00  0.0000E+00  0.0000E+00  0.0000E+00  0.0000E+00  0.0000E+00  0.0000E+00  0.0000E+00  0.0000E+00  0.0000E+00  0.0000E+00  0.0000E+00  0.0000E+00
    -32.830  0.0000E+00  0.0000E+00  0.0000E+00  0.0000E+00  0.0000E+00  0.0000E+00  0.0000E+00  0.0000E+00  0.0000E+00  0.0000E+00  0.0000E+00  0.0000E+00  0.0000E+00  0.0000E+00  0.0000E+00  0.0000E+00  0.0000E+00  0.0000E+00
    -32.666  0.0000E+00  0.0000E+00  0.0000E+00  0.0000E+00  0.0000E+00  0.0000E+00  0.0000E+00  0.0000E+00  0.0000E+00  0.0000E+00  0.0000E+00  0.0000E+00  0.0000E+00  0.0000E+00  0.0000E+00  0.0000E+00  0.0000E+00  0.0000E+00
    -32.501  0.0000E+00  0.0000E+00  0.0000E+00  0.0000E+00  0.0000E+00  0.0000E+00  0.0000E+00  0.0000E+00  0.0000E+00  0.0000E+00  0.0000E+00  0.0000E+00  0.0000E+00  0.0000E+00  0.0000E+00  0.0000E+00  0.0000E+00  0.0000E+00
    -32.337  0.0000E+00  0.0000E+00  0.0000E+00  0.0000E+00  0.0000E+00  0.0000E+00  0.0000E+00  0.0000E+00  0.0000E+00  0.0000E+00  0.0000E+00  0.0000E+00  0.0000E+00  0.0000E+00  0.0000E+00  0.0000E+00  0.0000E+00  0.0000E+00
    -32.173  0.0000E+00  0.0000E+00  0.0000E+00  0.0000E+00  0.0000E+00  0.0000E+00  0.0000E+00  0.0000E+00  0.0000E+00  0.0000E+00  0.0000E+00  0.0000E+00  0.0000E+00  0.0000E+00  0.0000E+00  0.0000E+00  0.0000E+00  0.0000E+00
    -32.008  0.0000E+00  0.0000E+00  0.0000E+00  0.0000E+00  0.0000E+00  0.0000E+00  0.0000E+00  0.0000E+00  0.0000E+00  0.0000E+00  0.0000E+00  0.0000E+00  0.0000E+00  0.0000E+00  0.0000E+00  0.0000E+00  0.0000E+00  0.0000E+00
    -31.844  0.0000E+00  0.0000E+00  0.0000E+00  0.0000E+00  0.0000E+00  0.0000E+00  0.0000E+00  0.0000E+00  0.0000E+00  0.0000E+00  0.0000E+00  0.0000E+00  0.0000E+00  0.0000E+00  0.0000E+00  0.0000E+00  0.0000E+00  0.0000E+00
    -31.680  0.0000E+00  0.0000E+00  0.0000E+00  0.0000E+00  0.0000E+00  0.0000E+00  0.0000E+00  0.0000E+00  0.0000E+00  0.0000E+00  0.0000E+00  0.0000E+00  0.0000E+00  0.0000E+00  0.0000E+00  0.0000E+00  0.0000E+00  0.0000E+00
    -31.515  0.0000E+00  0.0000E+00  0.0000E+00  0.0000E+00  0.0000E+00  0.0000E+00  0.0000E+00  0.0000E+00  0.0000E+00  0.0000E+00  0.0000E+00  0.0000E+00  0.0000E+00  0.0000E+00  0.0000E+00  0.0000E+00  0.0000E+00  0.0000E+00
    -31.351  0.0000E+00  0.0000E+00  0.0000E+00  0.0000E+00  0.0000E+00  0.0000E+00  0.0000E+00  0.0000E+00  0.0000E+00  0.0000E+00  0.0000E+00  0.0000E+00  0.0000E+00  0.0000E+00  0.0000E+00  0.0000E+00  0.0000E+00  0.0000E+00
    -31.187  0.0000E+00  0.0000E+00  0.0000E+00  0.0000E+00  0.0000E+00  0.0000E+00  0.0000E+00  0.0000E+00  0.0000E+00  0.0000E+00  0.0000E+00  0.0000E+00  0.0000E+00  0.0000E+00  0.0000E+00  0.0000E+00  0.0000E+00  0.0000E+00
    -31.022  0.0000E+00  0.0000E+00  0.0000E+00  0.0000E+00  0.0000E+00  0.0000E+00  0.0000E+00  0.0000E+00  0.0000E+00  0.0000E+00  0.0000E+00  0.0000E+00  0.0000E+00  0.0000E+00  0.0000E+00  0.0000E+00  0.0000E+00  0.0000E+00
    -30.858  0.0000E+00  0.0000E+00  0.0000E+00  0.0000E+00  0.0000E+00  0.0000E+00  0.0000E+00  0.0000E+00  0.0000E+00  0.0000E+00  0.0000E+00  0.0000E+00  0.0000E+00  0.0000E+00  0.0000E+00  0.0000E+00  0.0000E+00  0.0000E+00
    -30.694  0.0000E+00  0.0000E+00  0.0000E+00  0.0000E+00  0.0000E+00  0.0000E+00  0.0000E+00  0.0000E+00  0.0000E+00  0.0000E+00  0.0000E+00  0.0000E+00  0.0000E+00  0.0000E+00  0.0000E+00  0.0000E+00  0.0000E+00  0.0000E+00
    -30.529  0.0000E+00  0.0000E+00  0.0000E+00  0.0000E+00  0.0000E+00  0.0000E+00  0.0000E+00  0.0000E+00  0.0000E+00  0.0000E+00  0.0000E+00  0.0000E+00  0.0000E+00  0.0000E+00  0.0000E+00  0.0000E+00  0.0000E+00  0.0000E+00