   8   8   1   0
  0.1942404E+02  0.4240959E-09  0.4240959E-09  0.8639756E-09  0.5000000E-15
  1.000000000000000E-004
  CAR 
 unknown system                          
     12.95529983    -36.20541493  301      6.02846408      1.00000000
    -36.205  0.0000E+00  0.0000E+00  0.0000E+00  0.0000E+00
    -36.042  0.0000E+00  0.0000E+00  0.0000E+00  0.0000E+00
    -35.878  0.0000E+00  0.0000E+00  0.0000E+00  0.0000E+00
    -35.714  0.0000E+00  0.0000E+00  0.0000E+00  0.0000E+00
    -35.550  0.0000E+00  0.0000E+00  0.0000E+00  0.0000E+00
    -35.386  0.0000E+00  0.0000E+00  0.0000E+00  0.0000E+00
    -35.222  0.0000E+00  0.0000E+00  0.0000E+00  0.0000E+00
    -35.058  0.0000E+00  0.0000E+00  0.0000E+00  0.0000E+00
    -34.894  0.0000E+00  0.0000E+00  0.0000E+00  0.0000E+00
    -34.731  0.0000E+00  0.0000E+00  0.0000E+00  0.0000E+00
    -34.567  0.0000E+00  0.0000E+00  0.0000E+00  0.0000E+00
    -34.403  0.2052E-02  0.2030E-02  0.3363E-03  0.3327E-03
    -34.239  0.5212E-01  0.5155E-01  0.8877E-02  0.8781E-02
    -34.075  0.1236E+01  0.1224E+01  0.2114E+00  0.2093E+00
    -33.911  0.7961E+01  0.7949E+01  0.1516E+01  0.1512E+01
    -33.747  0.2809E+01  0.2832E+01  0.1976E+01  0.1976E+01
    -33.584  0.1398E+00  0.1413E+00  0.1999E+01  0.1999E+01
    -33.420  0.0000E+00  0.0000E+00  0.2000E+01  0.2000E+01
    -33.256  0.0000E+00  0.0000E+00  0.2000E+01  0.2000E+01
    -33.092  0.0000E+00  0.0000E+00  0.2000E+01  0.2000E+01
    -32.928  0.0000E+00  0.0000E+00  0.2000E+01  0.2000E+01
    -32.764  0.0000E+00  0.0000E+00  0.2000E+01  0.2000E+01
    -32.600  0.0000E+00  0.0000E+00  0.2000E+01  0.2000E+01
    -32.436  0.0000E+00  0.0000E+00  0.2000E+01  0.2000E+01
    -32.273  0.0000E+00  0.0000E+00  0.2000E+01  0.2000E+01
    -32.109  0.0000E+00  0.0000E+00  0.2000E+01  0.2000E+01
    -31.945  0.0000E+00  0.0000E+00  0.2000E+01  0.2000E+01
    -31.781  0.0000E+00  0.0000E+00  0.2000E+01  0.2000E+01
    -31.617  0.0000E+00  0.0000E+00  0.2000E+01  0.2000E+01
    -31.453  0.0000E+00  0.0000E+00  0.2000E+01  0.2000E+01
    -31.289  0.0000E+00  0.0000E+00  0.2000E+01  0.2000E+01
    -31.125  0.0000E+00  0.0000E+00  0.2000E+01  0.2000E+01
    -30.962  0.0000E+00  0.0000E+00  0.2000E+01  0.2000E+01
    -30.798  0.0000E+00  0.0000E+00  0.2000E+01  0.2000E+01
    -30.634  0.0000E+00  0.0000E+00  0.2000E+01  0.2000E+01
    -30.470  0.0000E+00  0.0000E+00  0.2000E+01  0.2000E+01
    -30.306  0.0000E+00  0.0000E+00  0.2000E+01  0.2000E+01
    -30.142  0.0000E+00  0.0000E+00  0.2000E+01  0.2000E+01
    -29.978  0.0000E+00  0.0000E+00  0.2000E+01  0.2000E+01
    -29.815  0.0000E+00  0.0000E+00  0.2000E+01  0.2000E+01
    -29.651  0.0000E+00  0.0000E+00  0.2000E+01  0.2000E+01
    -29.487  0.0000E+00  0.0000E+00  0.2000E+01  0.2000E+01
    -29.323  0.0000E+00  0.0000E+00  0.2000E+01  0.2000E+01
    -29.159  0.0000E+00  0.0000E+00  0.2000E+01  0.2000E+01
    -28.995  0.0000E+00  0.0000E+00  0.2000E+01  0.2000E+01
    -28.831  0.0000E+00  0.0000E+00  0.2000E+01  0.2000E+01
    -28.667  0.0000E+00  0.0000E+00  0.2000E+01  0.2000E+01
    -28.504  0.0000E+00  0.0000E+00  0.2000E+01  0.2000E+01
    -28.340  0.0000E+00  0.0000E+00  0.2000E+01  0.2000E+01
    -28.176  0.0000E+00  0.0000E+00  0.2000E+01  0.2000E+01
    -28.012  0.0000E+00  0.0000E+00  0.2000E+01  0.2000E+01
    -27.848  0.0000E+00  0.0000E+00  0.2000E+01  0.2000E+01
    -27.684  0.0000E+00  0.0000E+00  0.2000E+01  0.2000E+01
    -27.520  0.0000E+00  0.0000E+00  0.2000E+01  0.2000E+01
    -27.356  0.0000E+00  0.0000E+00  0.2000E+01  0.2000E+01
    -27.193  0.0000E+00  0.0000E+00  0.2000E+01  0.2000E+01
    -27.029  0.0000E+00  0.0000E+00  0.2000E+01  0.2000E+01
    -26.865  0.0000E+00  0.0000E+00  0.2000E+01  0.2000E+01
    -26.701  0.0000E+00  0.0000E+00  0.2000E+01  0.2000E+01
    -26.537  0.0000E+00  0.0000E+00  0.2000E+01  0.2000E+01
    -26.373  0.0000E+00  0.0000E+00  0.2000E+01  0.2000E+01
    -26.209  0.0000E+00  0.0000E+00  0.2000E+01  0.2000E+01
    -26.046  0.0000E+00  0.0000E+00  0.2000E+01  0.2000E+01
    -25.882  0.0000E+00  0.0000E+00  0.2000E+01  0.2000E+01
    -25.718  0.0000E+00  0.0000E+00  0.2000E+01  0.2000E+01
    -25.554  0.0000E+00  0.0000E+00  0.2000E+01  0.2000E+01
    -25.390  0.0000E+00  0.0000E+00  0.2000E+01  0.2000E+01
    -25.226  0.0000E+00  0.0000E+00  0.2000E+01  0.2000E+01
    -25.062  0.0000E+00  0.0000E+00  0.2000E+01  0.2000E+01
    -24.898  0.0000E+00  0.0000E+00  0.2000E+01  0.2000E+01
    -24.735  0.0000E+00  0.0000E+00  0.2000E+01  0.2000E+01
    -24.571  0.0000E+00  0.0000E+00  0.2000E+01  0.2000E+01
    -24.407  0.0000E+00  0.0000E+00  0.2000E+01  0.2000E+01
    -24.243  0.0000E+00  0.0000E+00  0.2000E+01  0.2000E+01
    -24.079  0.0000E+00  0.0000E+00  0.2000E+01  0.2000E+01
    -23.915  0.0000E+00  0.0000E+00  0.2000E+01  0.2000E+01
    -23.751  0.0000E+00  0.0000E+00  0.2000E+01  0.2000E+01
    -23.587  0.0000E+00  0.0000E+00  0.2000E+01  0.2000E+01
    -23.424  0.0000E+00  0.0000E+00  0.2000E+01  0.2000E+01
    -23.260  0.0000E+00  0.0000E+00  0.2000E+01  0.2000E+01
    -23.096  0.0000E+00  0.0000E+00  0.2000E+01  0.2000E+01
    -22.932  0.0000E+00  0.0000E+00  0.2000E+01  0.2000E+01
    -22.768  0.0000E+00  0.0000E+00  0.2000E+01  0.2000E+01
    -22.604  0.0000E+00  0.0000E+00  0.2000E+01  0.2000E+01
    -22.440  0.0000E+00  0.0000E+00  0.2000E+01  0.2000E+01
    -22.277  0.0000E+00  0.0000E+00  0.2000E+01  0.2000E+01
    -22.113  0.0000E+00  0.0000E+00  0.2000E+01  0.2000E+01
    -21.949  0.0000E+00  0.0000E+00  0.2000E+01  0.2000E+01
    -21.785  0.0000E+00  0.0000E+00  0.2000E+01  0.2000E+01
    -21.621  0.0000E+00  0.0000E+00  0.2000E+01  0.2000E+01
    -21.457  0.0000E+00  0.0000E+00  0.2000E+01  0.2000E+01
    -21.293  0.0000E+00  0.0000E+00  0.2000E+01  0.2000E+01
    -21.129  0.0000E+00  0.0000E+00  0.2000E+01  0.2000E+01
    -20.966  0.0000E+00  0.0000E+00  0.2000E+01  0.2000E+01
    -20.802  0.0000E+00  0.0000E+00  0.2000E+01  0.2000E+01
    -20.638  0.0000E+00  0.0000E+00  0.2000E+01  0.2000E+01
    -20.474  0.0000E+00  0.0000E+00  0.2000E+01  0.2000E+01
    -20.310  0.0000E+00  0.0000E+00  0.2000E+01  0.2000E+01
    -20.146  0.0000E+00  0.0000E+00  0.2000E+01  0.2000E+01
    -19.982  0.0000E+00  0.0000E+00  0.2000E+01  0.2000E+01
    -19.819  0.0000E+00  0.0000E+00  0.2000E+01  0.2000E+01
    -19.655  0.0000E+00  0.0000E+00  0.2000E+01  0.2000E+01
    -19.491  0.0000E+00  0.0000E+00  0.2000E+01  0.2000E+01
    -19.327  0.0000E+00  0.0000E+00  0.2000E+01  0.2000E+01
    -19.163  0.0000E+00  0.0000E+00  0.2000E+01  0.2000E+01
    -18.999  0.0000E+00  0.0000E+00  0.2000E+01  0.2000E+01
    -18.835  0.0000E+00  0.0000E+00  0.2000E+01  0.2000E+01
    -18.671  0.0000E+00  0.0000E+00  0.2000E+01  0.2000E+01
    -18.508  0.0000E+00  0.0000E+00  0.2000E+01  0.2000E+01
    -18.344  0.0000E+00  0.0000E+00  0.2000E+01  0.2000E+01
    -18.180  0.0000E+00  0.0000E+00  0.2000E+01  0.2000E+01
    -18.016  0.0000E+00  0.0000E+00  0.2000E+01  0.2000E+01
    -17.852  0.0000E+00  0.0000E+00  0.2000E+01  0.2000E+01
    -17.688  0.0000E+00  0.0000E+00  0.2000E+01  0.2000E+01
    -17.524  0.0000E+00  0.0000E+00  0.2000E+01  0.2000E+01
    -17.360  0.0000E+00  0.0000E+00  0.2000E+01  0.2000E+01
    -17.197  0.0000E+00  0.0000E+00  0.2000E+01  0.2000E+01
    -17.033  0.0000E+00  0.0000E+00  0.2000E+01  0.2000E+01
    -16.869  0.0000E+00  0.0000E+00  0.2000E+01  0.2000E+01
    -16.705  0.0000E+00  0.0000E+00  0.2000E+01  0.2000E+01
    -16.541  0.0000E+00  0.0000E+00  0.2000E+01  0.2000E+01
    -16.377  0.0000E+00  0.0000E+00  0.2000E+01  0.2000E+01
    -16.213  0.0000E+00  0.0000E+00  0.2000E+01  0.2000E+01
    -16.050  0.0000E+00  0.0000E+00  0.2000E+01  0.2000E+01
    -15.886  0.0000E+00  0.0000E+00  0.2000E+01  0.2000E+01
    -15.722  0.1583E-03  0.1488E-03  0.2000E+01  0.2000E+01
    -15.558  0.7733E-02  0.7628E-02  0.2001E+01  0.2001E+01
    -15.394  0.1997E+00  0.1969E+00  0.2034E+01  0.2034E+01
    -15.230  0.4424E+01  0.4371E+01  0.2759E+01  0.2750E+01
    -15.066  0.2285E+02  0.2282E+02  0.6504E+01  0.6490E+01
    -14.902  0.8633E+01  0.8714E+01  0.7919E+01  0.7918E+01
    -14.739  0.4042E+00  0.4111E+00  0.7997E+01  0.7997E+01
    -14.575  0.0000E+00  0.0000E+00  0.8000E+01  0.8000E+01
    -14.411  0.0000E+00  0.0000E+00  0.8000E+01  0.8000E+01
    -14.247  0.0000E+00  0.0000E+00  0.8000E+01  0.8000E+01
    -14.083  0.0000E+00  0.0000E+00  0.8000E+01  0.8000E+01
    -13.919  0.0000E+00  0.0000E+00  0.8000E+01  0.8000E+01
    -13.755  0.0000E+00  0.0000E+00  0.8000E+01  0.8000E+01
    -13.591  0.0000E+00  0.0000E+00  0.8000E+01  0.8000E+01
    -13.428  0.0000E+00  0.0000E+00  0.8000E+01  0.8000E+01
    -13.264  0.0000E+00  0.0000E+00  0.8000E+01  0.8000E+01
    -13.100  0.0000E+00  0.0000E+00  0.8000E+01  0.8000E+01
    -12.936  0.0000E+00  0.0000E+00  0.8000E+01  0.8000E+01
    -12.772  0.0000E+00  0.0000E+00  0.8000E+01  0.8000E+01
    -12.608  0.0000E+00  0.0000E+00  0.8000E+01  0.8000E+01
    -12.444  0.0000E+00  0.0000E+00  0.8000E+01  0.8000E+01
    -12.281  0.0000E+00  0.0000E+00  0.8000E+01  0.8000E+01
    -12.117  0.0000E+00  0.0000E+00  0.8000E+01  0.8000E+01
    -11.953  0.0000E+00  0.0000E+00  0.8000E+01  0.8000E+01
    -11.789  0.0000E+00  0.0000E+00  0.8000E+01  0.8000E+01
    -11.625  0.0000E+00  0.0000E+00  0.8000E+01  0.8000E+01
    -11.461  0.0000E+00  0.0000E+00  0.8000E+01  0.8000E+01
    -11.297  0.0000E+00  0.0000E+00  0.8000E+01  0.8000E+01
    -11.133  0.0000E+00  0.0000E+00  0.8000E+01  0.8000E+01
    -10.970  0.0000E+00  0.0000E+00  0.8000E+01  0.8000E+01
    -10.806  0.0000E+00  0.0000E+00  0.8000E+01  0.8000E+01
    -10.642  0.0000E+00  0.0000E+00  0.8000E+01  0.8000E+01
    -10.478  0.0000E+00  0.0000E+00  0.8000E+01  0.8000E+01
    -10.314  0.0000E+00  0.0000E+00  0.8000E+01  0.8000E+01
    -10.150  0.0000E+00  0.0000E+00  0.8000E+01  0.8000E+01
     -9.986  0.0000E+00  0.0000E+00  0.8000E+01  0.8000E+01
     -9.822  0.0000E+00  0.0000E+00  0.8000E+01  0.8000E+01
     -9.659  0.0000E+00  0.0000E+00  0.8000E+01  0.8000E+01
     -9.495  0.0000E+00  0.0000E+00  0.8000E+01  0.8000E+01
     -9.331  0.0000E+00  0.0000E+00  0.8000E+01  0.8000E+01
     -9.167  0.0000E+00  0.0000E+00  0.8000E+01  0.8000E+01
     -9.003  0.0000E+00  0.0000E+00  0.8000E+01  0.8000E+01
     -8.839  0.0000E+00  0.0000E+00  0.8000E+01  0.8000E+01
     -8.675  0.0000E+00  0.0000E+00  0.8000E+01  0.8000E+01
     -8.512  0.0000E+00  0.0000E+00  0.8000E+01  0.8000E+01
     -8.348  0.0000E+00  0.0000E+00  0.8000E+01  0.8000E+01
     -8.184  0.0000E+00  0.0000E+00  0.8000E+01  0.8000E+01
     -8.020  0.0000E+00  0.0000E+00  0.8000E+01  0.8000E+01
     -7.856  0.0000E+00  0.0000E+00  0.8000E+01  0.8000E+01
     -7.692  0.0000E+00  0.0000E+00  0.8000E+01  0.8000E+01
     -7.528  0.0000E+00  0.0000E+00  0.8000E+01  0.8000E+01
     -7.364  0.0000E+00  0.0000E+00  0.8000E+01  0.8000E+01
     -7.201  0.0000E+00  0.0000E+00  0.8000E+01  0.8000E+01
     -7.037  0.0000E+00  0.0000E+00  0.8000E+01  0.8000E+01
     -6.873  0.0000E+00  0.0000E+00  0.8000E+01  0.8000E+01
     -6.709  0.0000E+00  0.0000E+00  0.8000E+01  0.8000E+01
     -6.545  0.0000E+00  0.0000E+00  0.8000E+01  0.8000E+01
     -6.381  0.0000E+00  0.0000E+00  0.8000E+01  0.8000E+01
     -6.217  0.0000E+00  0.0000E+00  0.8000E+01  0.8000E+01
     -6.054  0.0000E+00  0.0000E+00  0.8000E+01  0.8000E+01
     -5.890  0.0000E+00  0.0000E+00  0.8000E+01  0.8000E+01
     -5.726  0.0000E+00  0.0000E+00  0.8000E+01  0.8000E+01
     -5.562  0.0000E+00  0.0000E+00  0.8000E+01  0.8000E+01
     -5.398  0.0000E+00  0.0000E+00  0.8000E+01  0.8000E+01
     -5.234  0.0000E+00  0.0000E+00  0.8000E+01  0.8000E+01
     -5.070  0.0000E+00  0.0000E+00  0.8000E+01  0.8000E+01
     -4.906  0.0000E+00  0.0000E+00  0.8000E+01  0.8000E+01
     -4.743  0.0000E+00  0.0000E+00  0.8000E+01  0.8000E+01
     -4.579  0.0000E+00  0.0000E+00  0.8000E+01  0.8000E+01
     -4.415  0.0000E+00  0.0000E+00  0.8000E+01  0.8000E+01
     -4.251  0.0000E+00  0.0000E+00  0.8000E+01  0.8000E+01
     -4.087  0.0000E+00  0.0000E+00  0.8000E+01  0.8000E+01
     -3.923  0.0000E+00  0.0000E+00  0.8000E+01  0.8000E+01
     -3.759  0.0000E+00  0.0000E+00  0.8000E+01  0.8000E+01
     -3.595  0.0000E+00  0.0000E+00  0.8000E+01  0.8000E+01
     -3.432  0.3632E-05  0.3489E-05  0.8000E+01  0.8000E+01
     -3.268  0.1076E-03  0.1033E-03  0.8000E+01  0.8000E+01
     -3.104  0.2763E-02  0.2658E-02  0.8000E+01  0.8000E+01
     -2.940  0.4353E-01  0.4242E-01  0.8008E+01  0.8007E+01
     -2.776  0.1647E+00  0.1632E+00  0.8035E+01  0.8034E+01
     -2.612  0.2664E+00  0.2656E+00  0.8078E+01  0.8078E+01
     -2.448  0.3488E+00  0.3477E+00  0.8135E+01  0.8135E+01
     -2.285  0.4093E+00  0.4088E+00  0.8203E+01  0.8202E+01
     -2.121  0.4579E+00  0.4565E+00  0.8278E+01  0.8277E+01
     -1.957  0.5411E+00  0.5409E+00  0.8367E+01  0.8366E+01
     -1.793  0.5553E+00  0.5549E+00  0.8458E+01  0.8457E+01
     -1.629  0.6468E+00  0.6457E+00  0.8564E+01  0.8563E+01
     -1.465  0.7227E+00  0.7221E+00  0.8683E+01  0.8681E+01
     -1.301  0.7461E+00  0.7469E+00  0.8805E+01  0.8804E+01
     -1.137  0.8234E+00  0.8209E+00  0.8941E+01  0.8939E+01
     -0.974  0.8850E+00  0.8863E+00  0.9086E+01  0.9084E+01
     -0.810  0.8603E+00  0.8598E+00  0.9227E+01  0.9225E+01
     -0.646  0.8756E+00  0.8758E+00  0.9371E+01  0.9369E+01
     -0.482  0.9899E+00  0.9884E+00  0.9533E+01  0.9532E+01
     -0.318  0.8246E+00  0.8279E+00  0.9669E+01  0.9668E+01
     -0.154  0.8481E+00  0.8450E+00  0.9808E+01  0.9806E+01
      0.010  0.1075E+01  0.1073E+01  0.9985E+01  0.9983E+01
      0.174  0.1158E+01  0.1158E+01  0.1017E+02  0.1017E+02
      0.337  0.1239E+01  0.1238E+01  0.1038E+02  0.1038E+02
      0.501  0.1152E+01  0.1154E+01  0.1057E+02  0.1057E+02
      0.665  0.1151E+01  0.1150E+01  0.1076E+02  0.1075E+02
      0.829  0.9312E+00  0.9352E+00  0.1091E+02  0.1091E+02
      0.993  0.8505E+00  0.8485E+00  0.1105E+02  0.1105E+02
      1.157  0.9217E+00  0.9210E+00  0.1120E+02  0.1120E+02
      1.321  0.1152E+01  0.1148E+01  0.1139E+02  0.1139E+02
      1.484  0.1266E+01  0.1265E+01  0.1160E+02  0.1160E+02
      1.648  0.1268E+01  0.1269E+01  0.1181E+02  0.1180E+02
      1.812  0.1373E+01  0.1370E+01  0.1203E+02  0.1203E+02
      1.976  0.1518E+01  0.1523E+01  0.1228E+02  0.1228E+02
      2.140  0.1022E+01  0.1022E+01  0.1245E+02  0.1245E+02
      2.304  0.1261E+01  0.1259E+01  0.1266E+02  0.1265E+02
      2.468  0.1197E+01  0.1199E+01  0.1285E+02  0.1285E+02
      2.632  0.9358E+00  0.9392E+00  0.1301E+02  0.1301E+02
      2.795  0.1144E+01  0.1137E+01  0.1320E+02  0.1319E+02
      2.959  0.1425E+01  0.1426E+01  0.1343E+02  0.1343E+02
      3.123  0.1312E+01  0.1315E+01  0.1364E+02  0.1364E+02
      3.287  0.1015E+01  0.1015E+01  0.1381E+02  0.1381E+02
      3.451  0.1436E+01  0.1430E+01  0.1405E+02  0.1404E+02
      3.615  0.1833E+01  0.1832E+01  0.1435E+02  0.1434E+02
      3.779  0.1605E+01  0.1607E+01  0.1461E+02  0.1461E+02
      3.943  0.1582E+01  0.1580E+01  0.1487E+02  0.1487E+02
      4.106  0.1699E+01  0.1698E+01  0.1515E+02  0.1515E+02
      4.270  0.1689E+01  0.1689E+01  0.1543E+02  0.1542E+02
      4.434  0.1710E+01  0.1709E+01  0.1571E+02  0.1571E+02
      4.598  0.1798E+01  0.1795E+01  0.1600E+02  0.1600E+02
      4.762  0.2056E+01  0.2052E+01  0.1634E+02  0.1634E+02
      4.926  0.2270E+01  0.2272E+01  0.1672E+02  0.1671E+02
      5.090  0.2263E+01  0.2262E+01  0.1709E+02  0.1708E+02
      5.253  0.2256E+01  0.2253E+01  0.1746E+02  0.1745E+02
      5.417  0.2444E+01  0.2448E+01  0.1786E+02  0.1785E+02
      5.581  0.1899E+01  0.1901E+01  0.1817E+02  0.1817E+02
      5.745  0.1883E+01  0.1885E+01  0.1848E+02  0.1848E+02
      5.909  0.1768E+01  0.1766E+01  0.1877E+02  0.1877E+02
      6.073  0.1921E+01  0.1921E+01  0.1909E+02  0.1908E+02
      6.237  0.1980E+01  0.1977E+01  0.1941E+02  0.1941E+02
      6.401  0.2121E+01  0.2122E+01  0.1976E+02  0.1976E+02
      6.564  0.1760E+01  0.1765E+01  0.2005E+02  0.2005E+02
      6.728  0.1857E+01  0.1851E+01  0.2035E+02  0.2035E+02
      6.892  0.2009E+01  0.2011E+01  0.2068E+02  0.2068E+02
      7.056  0.1788E+01  0.1790E+01  0.2098E+02  0.2097E+02
      7.220  0.1500E+01  0.1505E+01  0.2122E+02  0.2122E+02
      7.384  0.1520E+01  0.1518E+01  0.2147E+02  0.2147E+02
      7.548  0.1394E+01  0.1397E+01  0.2170E+02  0.2170E+02
      7.711  0.1343E+01  0.1342E+01  0.2192E+02  0.2192E+02
      7.875  0.1471E+01  0.1469E+01  0.2217E+02  0.2216E+02
      8.039  0.1755E+01  0.1750E+01  0.2245E+02  0.2245E+02
      8.203  0.2187E+01  0.2183E+01  0.2281E+02  0.2281E+02
      8.367  0.2271E+01  0.2272E+01  0.2319E+02  0.2318E+02
      8.531  0.2589E+01  0.2579E+01  0.2361E+02  0.2361E+02
      8.695  0.3227E+01  0.3231E+01  0.2414E+02  0.2414E+02
      8.859  0.2690E+01  0.2708E+01  0.2458E+02  0.2458E+02
      9.022  0.3007E+01  0.3009E+01  0.2508E+02  0.2508E+02
      9.186  0.2984E+01  0.2964E+01  0.2557E+02  0.2556E+02
      9.350  0.2854E+01  0.2842E+01  0.2604E+02  0.2603E+02
      9.514  0.2687E+01  0.2608E+01  0.2648E+02  0.2646E+02
      9.678  0.2215E+01  0.2086E+01  0.2684E+02  0.2680E+02
      9.842  0.1818E+01  0.1731E+01  0.2714E+02  0.2709E+02
     10.006  0.1425E+01  0.1562E+01  0.2738E+02  0.2734E+02
     10.170  0.1293E+01  0.1461E+01  0.2759E+02  0.2758E+02
     10.333  0.8929E+00  0.9318E+00  0.2774E+02  0.2774E+02
     10.497  0.6968E+00  0.7158E+00  0.2785E+02  0.2785E+02
     10.661  0.6316E+00  0.6252E+00  0.2795E+02  0.2796E+02
     10.825  0.2533E+00  0.2436E+00  0.2800E+02  0.2800E+02
     10.989  0.2017E-01  0.1752E-01  0.2800E+02  0.2800E+02
     11.153  0.0000E+00  0.0000E+00  0.2800E+02  0.2800E+02
     11.317  0.0000E+00  0.0000E+00  0.2800E+02  0.2800E+02
     11.480  0.0000E+00  0.0000E+00  0.2800E+02  0.2800E+02
     11.644  0.0000E+00  0.0000E+00  0.2800E+02  0.2800E+02
     11.808  0.0000E+00  0.0000E+00  0.2800E+02  0.2800E+02
     11.972  0.0000E+00  0.0000E+00  0.2800E+02  0.2800E+02
     12.136  0.0000E+00  0.0000E+00  0.2800E+02  0.2800E+02
     12.300  0.0000E+00  0.0000E+00  0.2800E+02  0.2800E+02
     12.464  0.0000E+00  0.0000E+00  0.2800E+02  0.2800E+02
     12.628  0.0000E+00  0.0000E+00  0.2800E+02  0.2800E+02
     12.791  0.0000E+00  0.0000E+00  0.2800E+02  0.2800E+02
     12.955  0.0000E+00  0.0000E+00  0.2800E+02  0.2800E+02
     12.95529983    -36.20541493  301      6.02846408      1.00000000
    -36.205  0.0000E+00  0.0000E+00  0.0000E+00  0.0000E+00  0.0000E+00  0.0000E+00  0.0000E+00  0.0000E+00  0.0000E+00  0.0000E+00  0.0000E+00  0.0000E+00  0.0000E+00  0.0000E+00  0.0000E+00  0.0000E+00  0.0000E+00  0.0000E+00
    -36.042  0.0000E+00  0.0000E+00  0.0000E+00  0.0000E+00  0.0000E+00  0.0000E+00  0.0000E+00  0.0000E+00  0.0000E+00  0.0000E+00  0.0000E+00  0.0000E+00  0.0000E+00  0.0000E+00  0.0000E+00  0.0000E+00  0.0000E+00  0.0000E+00
    -35.878  0.0000E+00  0.0000E+00  0.0000E+00  0.0000E+00  0.0000E+00  0.0000E+00  0.0000E+00  0.0000E+00  0.0000E+00  0.0000E+00  0.0000E+00  0.0000E+00  0.0000E+00  0.0000E+00  0.0000E+00  0.0000E+00  0.0000E+00  0.0000E+00
    -35.714  0.0000E+00  0.0000E+00  0.0000E+00  0.0000E+00  0.0000E+00  0.0000E+00  0.0000E+00  0.0000E+00  0.0000E+00  0.0000E+00  0.0000E+00  0.0000E+00  0.0000E+00  0.0000E+00  0.0000E+00  0.0000E+00  0.0000E+00  0.0000E+00
    -35.550  0.0000E+00  0.0000E+00  0.0000E+00  0.0000E+00  0.0000E+00  0.0000E+00  0.0000E+00  0.0000E+00  0.0000E+00  0.0000E+00  0.0000E+00  0.0000E+00  0.0000E+00  0.0000E+00  0.0000E+00  0.0000E+00  0.0000E+00  0.0000E+00
    -35.386  0.0000E+00  0.0000E+00  0.0000E+00  0.0000E+00  0.0000E+00  0.0000E+00  0.0000E+00  0.0000E+00  0.0000E+00  0.0000E+00  0.0000E+00  0.0000E+00  0.0000E+00  0.0000E+00  0.0000E+00  0.0000E+00  0.0000E+00  0.0000E+00
    -35.222  0.0000E+00  0.0000E+00  0.0000E+00  0.0000E+00  0.0000E+00  0.0000E+00  0.0000E+00  0.0000E+00  0.0000E+00  0.0000E+00  0.0000E+00  0.0000E+00  0.0000E+00  0.0000E+00  0.0000E+00  0.0000E+00  0.0000E+00  0.0000E+00
    -35.058  0.0000E+00  0.0000E+00  0.0000E+00  0.0000E+00  0.0000E+00  0.0000E+00  0.0000E+00  0.0000E+00  0.0000E+00  0.0000E+00  0.0000E+00  0.0000E+00  0.0000E+00  0.0000E+00  0.0000E+00  0.0000E+00  0.0000E+00  0.0000E+00
    -34.894  0.0000E+00  0.0000E+00  0.0000E+00  0.0000E+00  0.0000E+00  0.0000E+00  0.0000E+00  0.0000E+00  0.0000E+00  0.0000E+00  0.0000E+00  0.0000E+00  0.0000E+00  0.0000E+00  0.0000E+00  0.0000E+00  0.0000E+00  0.0000E+00
    -34.731  0.0000E+00  0.0000E+00  0.0000E+00  0.0000E+00  0.0000E+00  0.0000E+00  0.0000E+00  0.0000E+00  0.0000E+00  0.0000E+00  0.0000E+00  0.0000E+00  0.0000E+00  0.0000E+00  0.0000E+00  0.0000E+00  0.0000E+00  0.0000E+00
    -34.567  0.0000E+00  0.0000E+00  0.0000E+00  0.0000E+00  0.0000E+00  0.0000E+00  0.0000E+00  0.0000E+00  0.0000E+00  0.0000E+00  0.0000E+00  0.0000E+00  0.0000E+00  0.0000E+00  0.0000E+00  0.0000E+00  0.0000E+00  0.0000E+00
    -34.403  0.1011E-02  0.9996E-03  0.7030E-11  0.7087E-11  0.7463E-13  0.8756E-13  0.7030E-11  0.7087E-11  0.3961E-14  0.3495E-14  0.7807E-14  0.1036E-13  0.7219E-09  0.7144E-09  0.7807E-14  0.1036E-13  0.4665E-11  0.4579E-11
    -34.239  0.2566E-01  0.2538E-01  0.1785E-09  0.1800E-09  0.1895E-11  0.2223E-11  0.1785E-09  0.1800E-09  0.1006E-12  0.8875E-13  0.1983E-12  0.2631E-12  0.1833E-07  0.1814E-07  0.1983E-12  0.2631E-12  0.1185E-09  0.1163E-09
    -34.075  0.6084E+00  0.6025E+00  0.4232E-08  0.4271E-08  0.4483E-10  0.5269E-10  0.4232E-08  0.4271E-08  0.2385E-11  0.2108E-11  0.4704E-11  0.6249E-11  0.4346E-06  0.4307E-06  0.4704E-11  0.6249E-11  0.2808E-08  0.2760E-08
    -33.911  0.3920E+01  0.3914E+01  0.2725E-07  0.2773E-07  0.2845E-09  0.3381E-09  0.2725E-07  0.2773E-07  0.1540E-10  0.1376E-10  0.3047E-10  0.4078E-10  0.2803E-05  0.2801E-05  0.3047E-10  0.4078E-10  0.1810E-07  0.1794E-07
    -33.747  0.1383E+01  0.1394E+01  0.9612E-08  0.9875E-08  0.9864E-10  0.1187E-09  0.9612E-08  0.9875E-08  0.5444E-11  0.4933E-11  0.1082E-10  0.1460E-10  0.9904E-06  0.9990E-06  0.1082E-10  0.1460E-10  0.6386E-08  0.6390E-08
    -33.584  0.6883E-01  0.6957E-01  0.4782E-09  0.4926E-09  0.4884E-11  0.5899E-11  0.4782E-09  0.4926E-09  0.2711E-12  0.2465E-12  0.5392E-12  0.7296E-12  0.4930E-07  0.4986E-07  0.5392E-12  0.7296E-12  0.3178E-09  0.3188E-09
    -33.420  0.0000E+00  0.0000E+00  0.0000E+00  0.0000E+00  0.0000E+00  0.0000E+00  0.0000E+00  0.0000E+00  0.0000E+00  0.0000E+00  0.0000E+00  0.0000E+00  0.0000E+00  0.0000E+00  0.0000E+00  0.0000E+00  0.0000E+00  0.0000E+00
    -33.256  0.0000E+00  0.0000E+00  0.0000E+00  0.0000E+00  0.0000E+00  0.0000E+00  0.0000E+00  0.0000E+00  0.0000E+00  0.0000E+00  0.0000E+00  0.0000E+00  0.0000E+00  0.0000E+00  0.0000E+00  0.0000E+00  0.0000E+00  0.0000E+00
    -33.092  0.0000E+00  0.0000E+00  0.0000E+00  0.0000E+00  0.0000E+00  0.0000E+00  0.0000E+00  0.0000E+00  0.0000E+00  0.0000E+00  0.0000E+00  0.0000E+00  0.0000E+00  0.0000E+00  0.0000E+00  0.0000E+00  0.0000E+00  0.0000E+00
    -32.928  0.0000E+00  0.0000E+00  0.0000E+00  0.0000E+00  0.0000E+00  0.0000E+00  0.0000E+00  0.0000E+00  0.0000E+00  0.0000E+00  0.0000E+00  0.0000E+00  0.0000E+00  0.0000E+00  0.0000E+00  0.0000E+00  0.0000E+00  0.0000E+00
    -32.764  0.0000E+00  0.0000E+00  0.0000E+00  0.0000E+00  0.0000E+00  0.0000E+00  0.0000E+00  0.0000E+00  0.0000E+00  0.0000E+00  0.0000E+00  0.0000E+00  0.0000E+00  0.0000E+00  0.0000E+00  0.0000E+00  0.0000E+00  0.0000E+00
    -32.600  0.0000E+00  0.0000E+00  0.0000E+00  0.0000E+00  0.0000E+00  0.0000E+00  0.0000E+00  0.0000E+00  0.0000E+00  0.0000E+00  0.0000E+00  0.0000E+00  0.0000E+00  0.0000E+00  0.0000E+00  0.0000E+00  0.0000E+00  0.0000E+00
    -32.436  0.0000E+00  0.0000E+00  0.0000E+00  0.0000E+00  0.0000E+00  0.0000E+00  0.0000E+00  0.0000E+00  0.0000E+00  0.0000E+00  0.0000E+00  0.0000E+00  0.0000E+00  0.0000E+00  0.0000E+00  0.0000E+00  0.0000E+00  0.0000E+00
    -32.273  0.0000E+00  0.0000E+00  0.0000E+00  0.0000E+00  0.0000E+00  0.0000E+00  0.0000E+00  0.0000E+00  0.0000E+00  0.0000E+00  0.0000E+00  0.0000E+00  0.0000E+00  0.0000E+00  0.0000E+00  0.0000E+00  0.0000E+00  0.0000E+00
    -32.109  0.0000E+00  0.0000E+00  0.0000E+00  0.0000E+00  0.0000E+00  0.0000E+00  0.0000E+00  0.0000E+00  0.0000E+00  0.0000E+00  0.0000E+00  0.0000E+00  0.0000E+00  0.0000E+00  0.0000E+00  0.0000E+00  0.0000E+00  0.0000E+00
    -31.945  0.0000E+00  0.0000E+00  0.0000E+00  0.0000E+00  0.0000E+00  0.0000E+00  0.0000E+00  0.0000E+00  0.0000E+00  0.0000E+00  0.0000E+00  0.0000E+00  0.0000E+00  0.0000E+00  0.0000E+00  0.0000E+00  0.0000E+00  0.0000E+00
    -31.781  0.0000E+00  0.0000E+00  0.0000E+00  0.0000E+00  0.0000E+00  0.0000E+00  0.0000E+00  0.0000E+00  0.0000E+00  0.0000E+00  0.0000E+00  0.0000E+00  0.0000E+00  0.0000E+00  0.0000E+00  0.0000E+00  0.0000E+00  0.0000E+00
    -31.617  0.0000E+00  0.0000E+00  0.0000E+00  0.0000E+00  0.0000E+00  0.0000E+00  0.0000E+00  0.0000E+00  0.0000E+00  0.0000E+00  0.0000E+00  0.0000E+00  0.0000E+00  0.0000E+00  0.0000E+00  0.0000E+00  0.0000E+00  0.0000E+00
    -31.453  0.0000E+00  0.0000E+00  0.0000E+00  0.0000E+00  0.0000E+00  0.0000E+00  0.0000E+00  0.0000E+00  0.0000E+00  0.0000E+00  0.0000E+00  0.0000E+00  0.0000E+00  0.0000E+00  0.0000E+00  0.0000E+00  0.0000E+00  0.0000E+00
    -31.289  0.0000E+00  0.0000E+00  0.0000E+00  0.0000E+00  0.0000E+00  0.0000E+00  0.0000E+00  0.0000E+00  0.0000E+00  0.0000E+00  0.0000E+00  0.0000E+00  0.0000E+00  0.0000E+00  0.0000E+00  0.0000E+00  0.0000E+00  0.0000E+00
    -31.125  0.0000E+00  0.0000E+00  0.0000E+00  0.0000E+00  0.0000E+00  0.0000E+00  0.0000E+00  0.0000E+00  0.0000E+00  0.0000E+00  0.0000E+00  0.0000E+00  0.0000E+00  0.0000E+00  0.0000E+00  0.0000E+00  0.0000E+00  0.0000E+00
    -30.962  0.0000E+00  0.0000E+00  0.0000E+00  0.0000E+00  0.0000E+00  0.0000E+00  0.0000E+00  0.0000E+00  0.0000E+00  0.0000E+00  0.0000E+00  0.0000E+00  0.0000E+00  0.0000E+00  0.0000E+00  0.0000E+00  0.0000E+00  0.0000E+00
    -30.798  0.0000E+00  0.0000E+00  0.0000E+00  0.0000E+00  0.0000E+00  0.0000E+00  0.0000E+00  0.0000E+00  0.0000E+00  0.0000E+00  0.0000E+00  0.0000E+00  0.0000E+00  0.0000E+00  0.0000E+00  0.0000E+00  0.0000E+00  0.0000E+00
    -30.634  0.0000E+00  0.0000E+00  0.0000E+00  0.0000E+00  0.0000E+00  0.0000E+00  0.0000E+00  0.0000E+00  0.0000E+00  0.0000E+00  0.0000E+00  0.0000E+00  0.0000E+00  0.0000E+00  0.0000E+00  0.0000E+00  0.0000E+00  0.0000E+00
    -30.470  0.0000E+00  0.0000E+00  0.0000E+00  0.0000E+00  0.0000E+00  0.0000E+00  0.0000E+00  0.0000E+00  0.0000E+00  0.0000E+00  0.0000E+00  0.0000E+00  0.0000E+00  0.0000E+00  0.0000E+00  0.0000E+00  0.0000E+00  0.0000E+00
    -30.306  0.0000E+00  0.0000E+00  0.0000E+00  0.0000E+00  0.0000E+00  0.0000E+00  0.0000E+00  0.0000E+00  0.0000E+00  0.0000E+00  0.0000E+00  0.0000E+00  0.0000E+00  0.0000E+00  0.0000E+00  0.0000E+00  0.0000E+00  0.0000E+00
    -30.142  0.0000E+00  0.0000E+00  0.0000E+00  0.0000E+00  0.0000E+00  0.0000E+00  0.0000E+00  0.0000E+00  0.0000E+00  0.0000E+00  0.0000E+00  0.0000E+00  0.0000E+00  0.0000E+00  0.0000E+00  0.0000E+00  0.0000E+00  0.0000E+00
    -29.978  0.0000E+00  0.0000E+00  0.0000E+00  0.0000E+00  0.0000E+00  0.0000E+00  0.0000E+00  0.0000E+00  0.0000E+00  0.0000E+00  0.0000E+00  0.0000E+00  0.0000E+00  0.0000E+00  0.0000E+00  0.0000E+00  0.0000E+00  0.0000E+00
    -29.815  0.0000E+00  0.0000E+00  0.0000E+00  0.0000E+00  0.0000E+00  0.0000E+00  0.0000E+00  0.0000E+00  0.0000E+00  0.0000E+00  0.0000E+00  0.0000E+00  0.0000E+00  0.0000E+00  0.0000E+00  0.0000E+00  0.0000E+00  0.0000E+00
    -29.651  0.0000E+00  0.0000E+00  0.0000E+00  0.0000E+00  0.0000E+00  0.0000E+00  0.0000E+00  0.0000E+00  0.0000E+00  0.0000E+00  0.0000E+00  0.0000E+00  0.0000E+00  0.0000E+00  0.0000E+00  0.0000E+00  0.0000E+00  0.0000E+00
    -29.487  0.0000E+00  0.0000E+00  0.0000E+00  0.0000E+00  0.0000E+00  0.0000E+00  0.0000E+00  0.0000E+00  0.0000E+00  0.0000E+00  0.0000E+00  0.0000E+00  0.0000E+00  0.0000E+00  0.0000E+00  0.0000E+00  0.0000E+00  0.0000E+00
    -29.323  0.0000E+00  0.0000E+00  0.0000E+00  0.0000E+00  0.0000E+00  0.0000E+00  0.0000E+00  0.0000E+00  0.0000E+00  0.0000E+00  0.0000E+00  0.0000E+00  0.0000E+00  0.0000E+00  0.0000E+00  0.0000E+00  0.0000E+00  0.0000E+00
    -29.159  0.0000E+00  0.0000E+00  0.0000E+00  0.0000E+00  0.0000E+00  0.0000E+00  0.0000E+00  0.0000E+00  0.0000E+00  0.0000E+00  0.0000E+00  0.0000E+00  0.0000E+00  0.0000E+00  0.0000E+00  0.0000E+00  0.0000E+00  0.0000E+00
    -28.995  0.0000E+00  0.0000E+00  0.0000E+00  0.0000E+00  0.0000E+00  0.0000E+00  0.0000E+00  0.0000E+00  0.0000E+00  0.0000E+00  0.0000E+00  0.0000E+00  0.0000E+00  0.0000E+00  0.0000E+00  0.0000E+00  0.0000E+00  0.0000E+00
    -28.831  0.0000E+00  0.0000E+00  0.0000E+00  0.0000E+00  0.0000E+00  0.0000E+00  0.0000E+00  0.0000E+00  0.0000E+00  0.0000E+00  0.0000E+00  0.0000E+00  0.0000E+00  0.0000E+00  0.0000E+00  0.0000E+00  0.0000E+00  0.0000E+00
    -28.667  0.0000E+00  0.0000E+00  0.0000E+00  0.0000E+00  0.0000E+00  0.0000E+00  0.0000E+00  0.0000E+00  0.0000E+00  0.0000E+00  0.0000E+00  0.0000E+00  0.0000E+00  0.0000E+00  0.0000E+00  0.0000E+00  0.0000E+00  0.0000E+00
    -28.504  0.0000E+00  0.0000E+00  0.0000E+00  0.0000E+00  0.0000E+00  0.0000E+00  0.0000E+00  0.0000E+00  0.0000E+00  0.0000E+00  0.0000E+00  0.0000E+00  0.0000E+00  0.0000E+00  0.0000E+00  0.0000E+00  0.0000E+00  0.0000E+00
    -28.340  0.0000E+00  0.0000E+00  0.0000E+00  0.0000E+00  0.0000E+00  0.0000E+00  0.0000E+00  0.0000E+00  0.0000E+00  0.0000E+00  0.0000E+00  0.0000E+00  0.0000E+00  0.0000E+00  0.0000E+00  0.0000E+00  0.0000E+00  0.0000E+00
    -28.176  0.0000E+00  0.0000E+00  0.0000E+00  0.0000E+00  0.0000E+00  0.0000E+00  0.0000E+00  0.0000E+00  0.0000E+00  0.0000E+00  0.0000E+00  0.0000E+00  0.0000E+00  0.0000E+00  0.0000E+00  0.0000E+00  0.0000E+00  0.0000E+00
    -28.012  0.0000E+00  0.0000E+00  0.0000E+00  0.0000E+00  0.0000E+00  0.0000E+00  0.0000E+00  0.0000E+00  0.0000E+00  0.0000E+00  0.0000E+00  0.0000E+00  0.0000E+00  0.0000E+00  0.0000E+00  0.0000E+00  0.0000E+00  0.0000E+00