   8   8   1   0
  0.2255137E+02  0.4457334E-09  0.4457334E-09  0.9080560E-09  0.5000000E-15
  1.000000000000000E-004
  CAR 
 unknown system                          
     11.39490578    -37.84138029  301      4.88107957      1.00000000
    -37.841  0.0000E+00  0.0000E+00  0.0000E+00  0.0000E+00
    -37.677  0.0000E+00  0.0000E+00  0.0000E+00  0.0000E+00
    -37.513  0.0000E+00  0.0000E+00  0.0000E+00  0.0000E+00
    -37.349  0.0000E+00  0.0000E+00  0.0000E+00  0.0000E+00
    -37.185  0.0000E+00  0.0000E+00  0.0000E+00  0.0000E+00
    -37.021  0.0000E+00  0.0000E+00  0.0000E+00  0.0000E+00
    -36.857  0.0000E+00  0.0000E+00  0.0000E+00  0.0000E+00
    -36.693  0.0000E+00  0.0000E+00  0.0000E+00  0.0000E+00
    -36.528  0.0000E+00  0.0000E+00  0.0000E+00  0.0000E+00
    -36.364  0.0000E+00  0.0000E+00  0.0000E+00  0.0000E+00
    -36.200  0.0000E+00  0.0000E+00  0.0000E+00  0.0000E+00
    -36.036  0.2082E-02  0.2071E-02  0.3416E-03  0.3398E-03
    -35.872  0.5313E-01  0.5285E-01  0.9061E-02  0.9014E-02
    -35.708  0.1263E+01  0.1257E+01  0.2163E+00  0.2153E+00
    -35.544  0.7987E+01  0.7982E+01  0.1527E+01  0.1525E+01
    -35.380  0.2741E+01  0.2752E+01  0.1977E+01  0.1977E+01
    -35.215  0.1347E+00  0.1354E+00  0.1999E+01  0.1999E+01
    -35.051  0.0000E+00  0.0000E+00  0.2000E+01  0.2000E+01
    -34.887  0.0000E+00  0.0000E+00  0.2000E+01  0.2000E+01
    -34.723  0.0000E+00  0.0000E+00  0.2000E+01  0.2000E+01
    -34.559  0.0000E+00  0.0000E+00  0.2000E+01  0.2000E+01
    -34.395  0.0000E+00  0.0000E+00  0.2000E+01  0.2000E+01
    -34.231  0.0000E+00  0.0000E+00  0.2000E+01  0.2000E+01
    -34.067  0.0000E+00  0.0000E+00  0.2000E+01  0.2000E+01
    -33.902  0.0000E+00  0.0000E+00  0.2000E+01  0.2000E+01
    -33.738  0.0000E+00  0.0000E+00  0.2000E+01  0.2000E+01
    -33.574  0.0000E+00  0.0000E+00  0.2000E+01  0.2000E+01
    -33.410  0.0000E+00  0.0000E+00  0.2000E+01  0.2000E+01
    -33.246  0.0000E+00  0.0000E+00  0.2000E+01  0.2000E+01
    -33.082  0.0000E+00  0.0000E+00  0.2000E+01  0.2000E+01
    -32.918  0.0000E+00  0.0000E+00  0.2000E+01  0.2000E+01
    -32.754  0.0000E+00  0.0000E+00  0.2000E+01  0.2000E+01
    -32.590  0.0000E+00  0.0000E+00  0.2000E+01  0.2000E+01
    -32.425  0.0000E+00  0.0000E+00  0.2000E+01  0.2000E+01
    -32.261  0.0000E+00  0.0000E+00  0.2000E+01  0.2000E+01
    -32.097  0.0000E+00  0.0000E+00  0.2000E+01  0.2000E+01
    -31.933  0.0000E+00  0.0000E+00  0.2000E+01  0.2000E+01
    -31.769  0.0000E+00  0.0000E+00  0.2000E+01  0.2000E+01
    -31.605  0.0000E+00  0.0000E+00  0.2000E+01  0.2000E+01
    -31.441  0.0000E+00  0.0000E+00  0.2000E+01  0.2000E+01
    -31.277  0.0000E+00  0.0000E+00  0.2000E+01  0.2000E+01
    -31.112  0.0000E+00  0.0000E+00  0.2000E+01  0.2000E+01
    -30.948  0.0000E+00  0.0000E+00  0.2000E+01  0.2000E+01
    -30.784  0.0000E+00  0.0000E+00  0.2000E+01  0.2000E+01
    -30.620  0.0000E+00  0.0000E+00  0.2000E+01  0.2000E+01
    -30.456  0.0000E+00  0.0000E+00  0.2000E+01  0.2000E+01
    -30.292  0.0000E+00  0.0000E+00  0.2000E+01  0.2000E+01
    -30.128  0.0000E+00  0.0000E+00  0.2000E+01  0.2000E+01
    -29.964  0.0000E+00  0.0000E+00  0.2000E+01  0.2000E+01
    -29.799  0.0000E+00  0.0000E+00  0.2000E+01  0.2000E+01
    -29.635  0.0000E+00  0.0000E+00  0.2000E+01  0.2000E+01
    -29.471  0.0000E+00  0.0000E+00  0.2000E+01  0.2000E+01
    -29.307  0.0000E+00  0.0000E+00  0.2000E+01  0.2000E+01
    -29.143  0.0000E+00  0.0000E+00  0.2000E+01  0.2000E+01
    -28.979  0.0000E+00  0.0000E+00  0.2000E+01  0.2000E+01
    -28.815  0.0000E+00  0.0000E+00  0.2000E+01  0.2000E+01
    -28.651  0.0000E+00  0.0000E+00  0.2000E+01  0.2000E+01
    -28.486  0.0000E+00  0.0000E+00  0.2000E+01  0.2000E+01
    -28.322  0.0000E+00  0.0000E+00  0.2000E+01  0.2000E+01
    -28.158  0.0000E+00  0.0000E+00  0.2000E+01  0.2000E+01
    -27.994  0.0000E+00  0.0000E+00  0.2000E+01  0.2000E+01
    -27.830  0.0000E+00  0.0000E+00  0.2000E+01  0.2000E+01
    -27.666  0.0000E+00  0.0000E+00  0.2000E+01  0.2000E+01
    -27.502  0.0000E+00  0.0000E+00  0.2000E+01  0.2000E+01
    -27.338  0.0000E+00  0.0000E+00  0.2000E+01  0.2000E+01
    -27.174  0.0000E+00  0.0000E+00  0.2000E+01  0.2000E+01
    -27.009  0.0000E+00  0.0000E+00  0.2000E+01  0.2000E+01
    -26.845  0.0000E+00  0.0000E+00  0.2000E+01  0.2000E+01
    -26.681  0.0000E+00  0.0000E+00  0.2000E+01  0.2000E+01
    -26.517  0.0000E+00  0.0000E+00  0.2000E+01  0.2000E+01
    -26.353  0.0000E+00  0.0000E+00  0.2000E+01  0.2000E+01
    -26.189  0.0000E+00  0.0000E+00  0.2000E+01  0.2000E+01
    -26.025  0.0000E+00  0.0000E+00  0.2000E+01  0.2000E+01
    -25.861  0.0000E+00  0.0000E+00  0.2000E+01  0.2000E+01
    -25.696  0.0000E+00  0.0000E+00  0.2000E+01  0.2000E+01
    -25.532  0.0000E+00  0.0000E+00  0.2000E+01  0.2000E+01
    -25.368  0.0000E+00  0.0000E+00  0.2000E+01  0.2000E+01
    -25.204  0.0000E+00  0.0000E+00  0.2000E+01  0.2000E+01
    -25.040  0.0000E+00  0.0000E+00  0.2000E+01  0.2000E+01
    -24.876  0.0000E+00  0.0000E+00  0.2000E+01  0.2000E+01
    -24.712  0.0000E+00  0.0000E+00  0.2000E+01  0.2000E+01
    -24.548  0.0000E+00  0.0000E+00  0.2000E+01  0.2000E+01
    -24.383  0.0000E+00  0.0000E+00  0.2000E+01  0.2000E+01
    -24.219  0.0000E+00  0.0000E+00  0.2000E+01  0.2000E+01
    -24.055  0.0000E+00  0.0000E+00  0.2000E+01  0.2000E+01
    -23.891  0.0000E+00  0.0000E+00  0.2000E+01  0.2000E+01
    -23.727  0.0000E+00  0.0000E+00  0.2000E+01  0.2000E+01
    -23.563  0.0000E+00  0.0000E+00  0.2000E+01  0.2000E+01
    -23.399  0.0000E+00  0.0000E+00  0.2000E+01  0.2000E+01
    -23.235  0.0000E+00  0.0000E+00  0.2000E+01  0.2000E+01
    -23.070  0.0000E+00  0.0000E+00  0.2000E+01  0.2000E+01
    -22.906  0.0000E+00  0.0000E+00  0.2000E+01  0.2000E+01
    -22.742  0.0000E+00  0.0000E+00  0.2000E+01  0.2000E+01
    -22.578  0.0000E+00  0.0000E+00  0.2000E+01  0.2000E+01
    -22.414  0.0000E+00  0.0000E+00  0.2000E+01  0.2000E+01
    -22.250  0.0000E+00  0.0000E+00  0.2000E+01  0.2000E+01
    -22.086  0.0000E+00  0.0000E+00  0.2000E+01  0.2000E+01
    -21.922  0.0000E+00  0.0000E+00  0.2000E+01  0.2000E+01
    -21.758  0.0000E+00  0.0000E+00  0.2000E+01  0.2000E+01
    -21.593  0.0000E+00  0.0000E+00  0.2000E+01  0.2000E+01
    -21.429  0.0000E+00  0.0000E+00  0.2000E+01  0.2000E+01
    -21.265  0.0000E+00  0.0000E+00  0.2000E+01  0.2000E+01
    -21.101  0.0000E+00  0.0000E+00  0.2000E+01  0.2000E+01
    -20.937  0.0000E+00  0.0000E+00  0.2000E+01  0.2000E+01
    -20.773  0.0000E+00  0.0000E+00  0.2000E+01  0.2000E+01
    -20.609  0.0000E+00  0.0000E+00  0.2000E+01  0.2000E+01
    -20.445  0.0000E+00  0.0000E+00  0.2000E+01  0.2000E+01
    -20.280  0.0000E+00  0.0000E+00  0.2000E+01  0.2000E+01
    -20.116  0.0000E+00  0.0000E+00  0.2000E+01  0.2000E+01
    -19.952  0.0000E+00  0.0000E+00  0.2000E+01  0.2000E+01
    -19.788  0.0000E+00  0.0000E+00  0.2000E+01  0.2000E+01
    -19.624  0.0000E+00  0.0000E+00  0.2000E+01  0.2000E+01
    -19.460  0.0000E+00  0.0000E+00  0.2000E+01  0.2000E+01
    -19.296  0.0000E+00  0.0000E+00  0.2000E+01  0.2000E+01
    -19.132  0.0000E+00  0.0000E+00  0.2000E+01  0.2000E+01
    -18.967  0.0000E+00  0.0000E+00  0.2000E+01  0.2000E+01
    -18.803  0.0000E+00  0.0000E+00  0.2000E+01  0.2000E+01
    -18.639  0.0000E+00  0.0000E+00  0.2000E+01  0.2000E+01
    -18.475  0.0000E+00  0.0000E+00  0.2000E+01  0.2000E+01
    -18.311  0.0000E+00  0.0000E+00  0.2000E+01  0.2000E+01
    -18.147  0.0000E+00  0.0000E+00  0.2000E+01  0.2000E+01
    -17.983  0.0000E+00  0.0000E+00  0.2000E+01  0.2000E+01
    -17.819  0.0000E+00  0.0000E+00  0.2000E+01  0.2000E+01
    -17.655  0.0000E+00  0.0000E+00  0.2000E+01  0.2000E+01
    -17.490  0.0000E+00  0.0000E+00  0.2000E+01  0.2000E+01
    -17.326  0.0000E+00  0.0000E+00  0.2000E+01  0.2000E+01
    -17.162  0.3117E-02  0.3081E-02  0.2001E+01  0.2001E+01
    -16.998  0.7969E-01  0.7879E-01  0.2014E+01  0.2013E+01
    -16.834  0.1982E+01  0.1961E+01  0.2339E+01  0.2335E+01
    -16.670  0.1954E+02  0.1947E+02  0.5546E+01  0.5531E+01
    -16.506  0.1397E+02  0.1405E+02  0.7838E+01  0.7837E+01
    -16.342  0.9473E+00  0.9567E+00  0.7994E+01  0.7994E+01
    -16.177  0.0000E+00  0.0000E+00  0.8000E+01  0.8000E+01
    -16.013  0.0000E+00  0.0000E+00  0.8000E+01  0.8000E+01
    -15.849  0.0000E+00  0.0000E+00  0.8000E+01  0.8000E+01
    -15.685  0.0000E+00  0.0000E+00  0.8000E+01  0.8000E+01
    -15.521  0.0000E+00  0.0000E+00  0.8000E+01  0.8000E+01
    -15.357  0.0000E+00  0.0000E+00  0.8000E+01  0.8000E+01
    -15.193  0.0000E+00  0.0000E+00  0.8000E+01  0.8000E+01
    -15.029  0.0000E+00  0.0000E+00  0.8000E+01  0.8000E+01
    -14.864  0.0000E+00  0.0000E+00  0.8000E+01  0.8000E+01
    -14.700  0.0000E+00  0.0000E+00  0.8000E+01  0.8000E+01
    -14.536  0.0000E+00  0.0000E+00  0.8000E+01  0.8000E+01
    -14.372  0.0000E+00  0.0000E+00  0.8000E+01  0.8000E+01
    -14.208  0.0000E+00  0.0000E+00  0.8000E+01  0.8000E+01
    -14.044  0.0000E+00  0.0000E+00  0.8000E+01  0.8000E+01
    -13.880  0.0000E+00  0.0000E+00  0.8000E+01  0.8000E+01
    -13.716  0.0000E+00  0.0000E+00  0.8000E+01  0.8000E+01
    -13.551  0.0000E+00  0.0000E+00  0.8000E+01  0.8000E+01
    -13.387  0.0000E+00  0.0000E+00  0.8000E+01  0.8000E+01
    -13.223  0.0000E+00  0.0000E+00  0.8000E+01  0.8000E+01
    -13.059  0.0000E+00  0.0000E+00  0.8000E+01  0.8000E+01
    -12.895  0.0000E+00  0.0000E+00  0.8000E+01  0.8000E+01
    -12.731  0.0000E+00  0.0000E+00  0.8000E+01  0.8000E+01
    -12.567  0.0000E+00  0.0000E+00  0.8000E+01  0.8000E+01
    -12.403  0.0000E+00  0.0000E+00  0.8000E+01  0.8000E+01
    -12.239  0.0000E+00  0.0000E+00  0.8000E+01  0.8000E+01
    -12.074  0.0000E+00  0.0000E+00  0.8000E+01  0.8000E+01
    -11.910  0.0000E+00  0.0000E+00  0.8000E+01  0.8000E+01
    -11.746  0.0000E+00  0.0000E+00  0.8000E+01  0.8000E+01
    -11.582  0.0000E+00  0.0000E+00  0.8000E+01  0.8000E+01
    -11.418  0.0000E+00  0.0000E+00  0.8000E+01  0.8000E+01
    -11.254  0.0000E+00  0.0000E+00  0.8000E+01  0.8000E+01
    -11.090  0.0000E+00  0.0000E+00  0.8000E+01  0.8000E+01
    -10.926  0.0000E+00  0.0000E+00  0.8000E+01  0.8000E+01
    -10.761  0.0000E+00  0.0000E+00  0.8000E+01  0.8000E+01
    -10.597  0.0000E+00  0.0000E+00  0.8000E+01  0.8000E+01
    -10.433  0.0000E+00  0.0000E+00  0.8000E+01  0.8000E+01
    -10.269  0.0000E+00  0.0000E+00  0.8000E+01  0.8000E+01
    -10.105  0.0000E+00  0.0000E+00  0.8000E+01  0.8000E+01
     -9.941  0.0000E+00  0.0000E+00  0.8000E+01  0.8000E+01
     -9.777  0.0000E+00  0.0000E+00  0.8000E+01  0.8000E+01
     -9.613  0.0000E+00  0.0000E+00  0.8000E+01  0.8000E+01
     -9.448  0.0000E+00  0.0000E+00  0.8000E+01  0.8000E+01
     -9.284  0.0000E+00  0.0000E+00  0.8000E+01  0.8000E+01
     -9.120  0.0000E+00  0.0000E+00  0.8000E+01  0.8000E+01
     -8.956  0.0000E+00  0.0000E+00  0.8000E+01  0.8000E+01
     -8.792  0.0000E+00  0.0000E+00  0.8000E+01  0.8000E+01
     -8.628  0.0000E+00  0.0000E+00  0.8000E+01  0.8000E+01
     -8.464  0.0000E+00  0.0000E+00  0.8000E+01  0.8000E+01
     -8.300  0.0000E+00  0.0000E+00  0.8000E+01  0.8000E+01
     -8.135  0.0000E+00  0.0000E+00  0.8000E+01  0.8000E+01
     -7.971  0.0000E+00  0.0000E+00  0.8000E+01  0.8000E+01
     -7.807  0.0000E+00  0.0000E+00  0.8000E+01  0.8000E+01
     -7.643  0.0000E+00  0.0000E+00  0.8000E+01  0.8000E+01
     -7.479  0.0000E+00  0.0000E+00  0.8000E+01  0.8000E+01
     -7.315  0.0000E+00  0.0000E+00  0.8000E+01  0.8000E+01
     -7.151  0.0000E+00  0.0000E+00  0.8000E+01  0.8000E+01
     -6.987  0.0000E+00  0.0000E+00  0.8000E+01  0.8000E+01
     -6.823  0.0000E+00  0.0000E+00  0.8000E+01  0.8000E+01
     -6.658  0.0000E+00  0.0000E+00  0.8000E+01  0.8000E+01
     -6.494  0.0000E+00  0.0000E+00  0.8000E+01  0.8000E+01
     -6.330  0.0000E+00  0.0000E+00  0.8000E+01  0.8000E+01
     -6.166  0.0000E+00  0.0000E+00  0.8000E+01  0.8000E+01
     -6.002  0.0000E+00  0.0000E+00  0.8000E+01  0.8000E+01
     -5.838  0.0000E+00  0.0000E+00  0.8000E+01  0.8000E+01
     -5.674  0.0000E+00  0.0000E+00  0.8000E+01  0.8000E+01
     -5.510  0.0000E+00  0.0000E+00  0.8000E+01  0.8000E+01
     -5.345  0.0000E+00  0.0000E+00  0.8000E+01  0.8000E+01
     -5.181  0.0000E+00  0.0000E+00  0.8000E+01  0.8000E+01
     -5.017  0.0000E+00  0.0000E+00  0.8000E+01  0.8000E+01
     -4.853  0.0000E+00  0.0000E+00  0.8000E+01  0.8000E+01
     -4.689  0.0000E+00  0.0000E+00  0.8000E+01  0.8000E+01
     -4.525  0.0000E+00  0.0000E+00  0.8000E+01  0.8000E+01
     -4.361  0.0000E+00  0.0000E+00  0.8000E+01  0.8000E+01
     -4.197  0.0000E+00  0.0000E+00  0.8000E+01  0.8000E+01
     -4.032  0.0000E+00  0.0000E+00  0.8000E+01  0.8000E+01
     -3.868  0.7584E-05  0.7226E-05  0.8000E+01  0.8000E+01
     -3.704  0.2162E-03  0.2060E-03  0.8000E+01  0.8000E+01
     -3.540  0.5455E-02  0.5211E-02  0.8001E+01  0.8001E+01
     -3.376  0.7166E-01  0.6976E-01  0.8013E+01  0.8012E+01
     -3.212  0.2270E+00  0.2248E+00  0.8050E+01  0.8049E+01
     -3.048  0.3383E+00  0.3369E+00  0.8105E+01  0.8105E+01
     -2.884  0.4373E+00  0.4362E+00  0.8177E+01  0.8176E+01
     -2.719  0.4938E+00  0.4929E+00  0.8258E+01  0.8257E+01
     -2.555  0.5985E+00  0.5975E+00  0.8357E+01  0.8355E+01
     -2.391  0.6276E+00  0.6270E+00  0.8460E+01  0.8459E+01
     -2.227  0.7301E+00  0.7284E+00  0.8580E+01  0.8578E+01
     -2.063  0.8151E+00  0.8142E+00  0.8714E+01  0.8712E+01
     -1.899  0.8388E+00  0.8384E+00  0.8852E+01  0.8850E+01
     -1.735  0.9788E+00  0.9773E+00  0.9014E+01  0.9011E+01
     -1.571  0.9512E+00  0.9514E+00  0.9170E+01  0.9168E+01
     -1.407  0.9945E+00  0.9939E+00  0.9334E+01  0.9332E+01
     -1.242  0.1042E+01  0.1041E+01  0.9505E+01  0.9503E+01
     -1.078  0.9214E+00  0.9258E+00  0.9657E+01  0.9655E+01
     -0.914  0.8468E+00  0.8435E+00  0.9797E+01  0.9794E+01
     -0.750  0.1158E+01  0.1154E+01  0.9987E+01  0.9984E+01
     -0.586  0.1265E+01  0.1265E+01  0.1019E+02  0.1019E+02
     -0.422  0.1333E+01  0.1332E+01  0.1041E+02  0.1041E+02
     -0.258  0.1207E+01  0.1208E+01  0.1061E+02  0.1061E+02
     -0.094  0.1238E+01  0.1240E+01  0.1082E+02  0.1081E+02
      0.071  0.9612E+00  0.9623E+00  0.1097E+02  0.1097E+02
      0.235  0.1045E+01  0.1044E+01  0.1115E+02  0.1114E+02
      0.399  0.1191E+01  0.1185E+01  0.1134E+02  0.1134E+02
      0.563  0.1450E+01  0.1448E+01  0.1158E+02  0.1158E+02
      0.727  0.1437E+01  0.1439E+01  0.1182E+02  0.1181E+02
      0.891  0.1467E+01  0.1463E+01  0.1206E+02  0.1205E+02
      1.055  0.1532E+01  0.1537E+01  0.1231E+02  0.1231E+02
      1.219  0.1220E+01  0.1219E+01  0.1251E+02  0.1251E+02
      1.384  0.1384E+01  0.1386E+01  0.1274E+02  0.1274E+02
      1.548  0.1054E+01  0.1061E+01  0.1291E+02  0.1291E+02
      1.712  0.1025E+01  0.1018E+01  0.1308E+02  0.1308E+02
      1.876  0.1474E+01  0.1473E+01  0.1332E+02  0.1332E+02
      2.040  0.1086E+01  0.1091E+01  0.1350E+02  0.1350E+02
      2.204  0.1217E+01  0.1212E+01  0.1370E+02  0.1370E+02
      2.368  0.1447E+01  0.1446E+01  0.1394E+02  0.1394E+02
      2.532  0.1464E+01  0.1464E+01  0.1418E+02  0.1418E+02
      2.696  0.1560E+01  0.1558E+01  0.1444E+02  0.1443E+02
      2.861  0.1863E+01  0.1858E+01  0.1474E+02  0.1474E+02
      3.025  0.1894E+01  0.1895E+01  0.1506E+02  0.1505E+02
      3.189  0.1766E+01  0.1767E+01  0.1535E+02  0.1534E+02
      3.353  0.1774E+01  0.1776E+01  0.1564E+02  0.1563E+02
      3.517  0.1904E+01  0.1899E+01  0.1595E+02  0.1595E+02
      3.681  0.2063E+01  0.2062E+01  0.1629E+02  0.1629E+02
      3.845  0.2339E+01  0.2337E+01  0.1668E+02  0.1667E+02
      4.009  0.2262E+01  0.2261E+01  0.1705E+02  0.1704E+02
      4.174  0.2515E+01  0.2511E+01  0.1746E+02  0.1746E+02
      4.338  0.2451E+01  0.2459E+01  0.1787E+02  0.1786E+02
      4.502  0.2217E+01  0.2214E+01  0.1823E+02  0.1822E+02
      4.666  0.1981E+01  0.1986E+01  0.1856E+02  0.1855E+02
      4.830  0.2049E+01  0.2044E+01  0.1889E+02  0.1889E+02
      4.994  0.2045E+01  0.2048E+01  0.1923E+02  0.1923E+02
      5.158  0.2193E+01  0.2188E+01  0.1959E+02  0.1959E+02
      5.322  0.2180E+01  0.2186E+01  0.1995E+02  0.1995E+02
      5.487  0.2024E+01  0.2017E+01  0.2028E+02  0.2028E+02
      5.651  0.2380E+01  0.2384E+01  0.2067E+02  0.2067E+02
      5.815  0.1829E+01  0.1837E+01  0.2098E+02  0.2097E+02
      5.979  0.1680E+01  0.1680E+01  0.2125E+02  0.2125E+02
      6.143  0.1778E+01  0.1776E+01  0.2154E+02  0.2154E+02
      6.307  0.1669E+01  0.1674E+01  0.2182E+02  0.2182E+02
      6.471  0.1592E+01  0.1587E+01  0.2208E+02  0.2208E+02
      6.635  0.2052E+01  0.2046E+01  0.2242E+02  0.2241E+02
      6.800  0.2275E+01  0.2272E+01  0.2279E+02  0.2279E+02
      6.964  0.2404E+01  0.2402E+01  0.2319E+02  0.2318E+02
      7.128  0.2654E+01  0.2647E+01  0.2363E+02  0.2362E+02
      7.292  0.3175E+01  0.3167E+01  0.2415E+02  0.2414E+02
      7.456  0.3438E+01  0.3437E+01  0.2471E+02  0.2470E+02
      7.620  0.3531E+01  0.3520E+01  0.2529E+02  0.2528E+02
      7.784  0.2901E+01  0.2908E+01  0.2577E+02  0.2576E+02
      7.948  0.2867E+01  0.2880E+01  0.2624E+02  0.2624E+02
      8.112  0.2823E+01  0.2818E+01  0.2671E+02  0.2670E+02
      8.277  0.2369E+01  0.2311E+01  0.2710E+02  0.2708E+02
      8.441  0.1610E+01  0.1705E+01  0.2736E+02  0.2736E+02
      8.605  0.1211E+01  0.1238E+01  0.2756E+02  0.2757E+02
      8.769  0.9638E+00  0.9605E+00  0.2772E+02  0.2772E+02
      8.933  0.7574E+00  0.7899E+00  0.2785E+02  0.2785E+02
      9.097  0.6534E+00  0.6227E+00  0.2796E+02  0.2796E+02
      9.261  0.2502E+00  0.2379E+00  0.2800E+02  0.2800E+02
      9.425  0.1963E-01  0.1828E-01  0.2800E+02  0.2800E+02
      9.590  0.0000E+00  0.0000E+00  0.2800E+02  0.2800E+02
      9.754  0.0000E+00  0.0000E+00  0.2800E+02  0.2800E+02
      9.918  0.0000E+00  0.0000E+00  0.2800E+02  0.2800E+02
     10.082  0.0000E+00  0.0000E+00  0.2800E+02  0.2800E+02
     10.246  0.0000E+00  0.0000E+00  0.2800E+02  0.2800E+02
     10.410  0.0000E+00  0.0000E+00  0.2800E+02  0.2800E+02
     10.574  0.0000E+00  0.0000E+00  0.2800E+02  0.2800E+02
     10.738  0.0000E+00  0.0000E+00  0.2800E+02  0.2800E+02
     10.903  0.0000E+00  0.0000E+00  0.2800E+02  0.2800E+02
     11.067  0.0000E+00  0.0000E+00  0.2800E+02  0.2800E+02
     11.231  0.0000E+00  0.0000E+00  0.2800E+02  0.2800E+02
     11.395  0.0000E+00  0.0000E+00  0.2800E+02  0.2800E+02
     11.39490578    -37.84138029  301      4.88107957      1.00000000
    -37.841  0.0000E+00  0.0000E+00  0.0000E+00  0.0000E+00  0.0000E+00  0.0000E+00  0.0000E+00  0.0000E+00  0.0000E+00  0.0000E+00  0.0000E+00  0.0000E+00  0.0000E+00  0.0000E+00  0.0000E+00  0.0000E+00  0.0000E+00  0.0000E+00
    -37.677  0.0000E+00  0.0000E+00  0.0000E+00  0.0000E+00  0.0000E+00  0.0000E+00  0.0000E+00  0.0000E+00  0.0000E+00  0.0000E+00  0.0000E+00  0.0000E+00  0.0000E+00  0.0000E+00  0.0000E+00  0.0000E+00  0.0000E+00  0.0000E+00
    -37.513  0.0000E+00  0.0000E+00  0.0000E+00  0.0000E+00  0.0000E+00  0.0000E+00  0.0000E+00  0.0000E+00  0.0000E+00  0.0000E+00  0.0000E+00  0.0000E+00  0.0000E+00  0.0000E+00  0.0000E+00  0.0000E+00  0.0000E+00  0.0000E+00
    -37.349  0.0000E+00  0.0000E+00  0.0000E+00  0.0000E+00  0.0000E+00  0.0000E+00  0.0000E+00  0.0000E+00  0.0000E+00  0.0000E+00  0.0000E+00  0.0000E+00  0.0000E+00  0.0000E+00  0.0000E+00  0.0000E+00  0.0000E+00  0.0000E+00
    -37.185  0.0000E+00  0.0000E+00  0.0000E+00  0.0000E+00  0.0000E+00  0.0000E+00  0.0000E+00  0.0000E+00  0.0000E+00  0.0000E+00  0.0000E+00  0.0000E+00  0.0000E+00  0.0000E+00  0.0000E+00  0.0000E+00  0.0000E+00  0.0000E+00
    -37.021  0.0000E+00  0.0000E+00  0.0000E+00  0.0000E+00  0.0000E+00  0.0000E+00  0.0000E+00  0.0000E+00  0.0000E+00  0.0000E+00  0.0000E+00  0.0000E+00  0.0000E+00  0.0000E+00  0.0000E+00  0.0000E+00  0.0000E+00  0.0000E+00
    -36.857  0.0000E+00  0.0000E+00  0.0000E+00  0.0000E+00  0.0000E+00  0.0000E+00  0.0000E+00  0.0000E+00  0.0000E+00  0.0000E+00  0.0000E+00  0.0000E+00  0.0000E+00  0.0000E+00  0.0000E+00  0.0000E+00  0.0000E+00  0.0000E+00
    -36.693  0.0000E+00  0.0000E+00  0.0000E+00  0.0000E+00  0.0000E+00  0.0000E+00  0.0000E+00  0.0000E+00  0.0000E+00  0.0000E+00  0.0000E+00  0.0000E+00  0.0000E+00  0.0000E+00  0.0000E+00  0.0000E+00  0.0000E+00  0.0000E+00
    -36.528  0.0000E+00  0.0000E+00  0.0000E+00  0.0000E+00  0.0000E+00  0.0000E+00  0.0000E+00  0.0000E+00  0.0000E+00  0.0000E+00  0.0000E+00  0.0000E+00  0.0000E+00  0.0000E+00  0.0000E+00  0.0000E+00  0.0000E+00  0.0000E+00
    -36.364  0.0000E+00  0.0000E+00  0.0000E+00  0.0000E+00  0.0000E+00  0.0000E+00  0.0000E+00  0.0000E+00  0.0000E+00  0.0000E+00  0.0000E+00  0.0000E+00  0.0000E+00  0.0000E+00  0.0000E+00  0.0000E+00  0.0000E+00  0.0000E+00
    -36.200  0.0000E+00  0.0000E+00  0.0000E+00  0.0000E+00  0.0000E+00  0.0000E+00  0.0000E+00  0.0000E+00  0.0000E+00  0.0000E+00  0.0000E+00  0.0000E+00  0.0000E+00  0.0000E+00  0.0000E+00  0.0000E+00  0.0000E+00  0.0000E+00
    -36.036  0.1026E-02  0.1020E-02  0.1314E-11  0.1319E-11  0.2316E-13  0.2644E-13  0.1314E-11  0.1319E-11  0.1957E-14  0.1563E-14  0.1647E-14  0.1871E-14  0.3992E-09  0.3973E-09  0.1647E-14  0.1871E-14  0.8899E-12  0.8699E-12
    -35.872  0.2618E-01  0.2604E-01  0.3353E-10  0.3368E-10  0.5912E-12  0.6748E-12  0.3353E-10  0.3368E-10  0.4995E-13  0.3988E-13  0.4205E-13  0.4776E-13  0.1019E-07  0.1014E-07  0.4205E-13  0.4776E-13  0.2271E-10  0.2220E-10
    -35.708  0.6221E+00  0.6192E+00  0.7967E-09  0.8007E-09  0.1404E-10  0.1604E-10  0.7967E-09  0.8007E-09  0.1187E-11  0.9482E-12  0.9991E-12  0.1136E-11  0.2421E-06  0.2412E-06  0.9991E-12  0.1136E-11  0.5397E-09  0.5280E-09
    -35.544  0.3936E+01  0.3933E+01  0.5040E-08  0.5085E-08  0.8833E-10  0.1014E-09  0.5040E-08  0.5085E-08  0.7494E-11  0.6020E-11  0.6315E-11  0.7235E-11  0.1532E-05  0.1532E-05  0.6315E-11  0.7235E-11  0.3415E-08  0.3353E-08
    -35.380  0.1351E+01  0.1356E+01  0.1729E-08  0.1753E-08  0.3012E-10  0.3478E-10  0.1729E-08  0.1753E-08  0.2567E-11  0.2074E-11  0.2165E-11  0.2502E-11  0.5260E-06  0.5284E-06  0.2165E-11  0.2502E-11  0.1172E-08  0.1156E-08
    -35.215  0.6637E-01  0.6671E-01  0.8498E-10  0.8624E-10  0.1478E-11  0.1709E-11  0.8498E-10  0.8624E-10  0.1261E-12  0.1020E-12  0.1064E-12  0.1232E-12  0.2585E-07  0.2600E-07  0.1064E-12  0.1232E-12  0.5758E-10  0.5687E-10
    -35.051  0.0000E+00  0.0000E+00  0.0000E+00  0.0000E+00  0.0000E+00  0.0000E+00  0.0000E+00  0.0000E+00  0.0000E+00  0.0000E+00  0.0000E+00  0.0000E+00  0.0000E+00  0.0000E+00  0.0000E+00  0.0000E+00  0.0000E+00  0.0000E+00
    -34.887  0.0000E+00  0.0000E+00  0.0000E+00  0.0000E+00  0.0000E+00  0.0000E+00  0.0000E+00  0.0000E+00  0.0000E+00  0.0000E+00  0.0000E+00  0.0000E+00  0.0000E+00  0.0000E+00  0.0000E+00  0.0000E+00  0.0000E+00  0.0000E+00
    -34.723  0.0000E+00  0.0000E+00  0.0000E+00  0.0000E+00  0.0000E+00  0.0000E+00  0.0000E+00  0.0000E+00  0.0000E+00  0.0000E+00  0.0000E+00  0.0000E+00  0.0000E+00  0.0000E+00  0.0000E+00  0.0000E+00  0.0000E+00  0.0000E+00
    -34.559  0.0000E+00  0.0000E+00  0.0000E+00  0.0000E+00  0.0000E+00  0.0000E+00  0.0000E+00  0.0000E+00  0.0000E+00  0.0000E+00  0.0000E+00  0.0000E+00  0.0000E+00  0.0000E+00  0.0000E+00  0.0000E+00  0.0000E+00  0.0000E+00
    -34.395  0.0000E+00  0.0000E+00  0.0000E+00  0.0000E+00  0.0000E+00  0.0000E+00  0.0000E+00  0.0000E+00  0.0000E+00  0.0000E+00  0.0000E+00  0.0000E+00  0.0000E+00  0.0000E+00  0.0000E+00  0.0000E+00  0.0000E+00  0.0000E+00
    -34.231  0.0000E+00  0.0000E+00  0.0000E+00  0.0000E+00  0.0000E+00  0.0000E+00  0.0000E+00  0.0000E+00  0.0000E+00  0.0000E+00  0.0000E+00  0.0000E+00  0.0000E+00  0.0000E+00  0.0000E+00  0.0000E+00  0.0000E+00  0.0000E+00
    -34.067  0.0000E+00  0.0000E+00  0.0000E+00  0.0000E+00  0.0000E+00  0.0000E+00  0.0000E+00  0.0000E+00  0.0000E+00  0.0000E+00  0.0000E+00  0.0000E+00  0.0000E+00  0.0000E+00  0.0000E+00  0.0000E+00  0.0000E+00  0.0000E+00
    -33.902  0.0000E+00  0.0000E+00  0.0000E+00  0.0000E+00  0.0000E+00  0.0000E+00  0.0000E+00  0.0000E+00  0.0000E+00  0.0000E+00  0.0000E+00  0.0000E+00  0.0000E+00  0.0000E+00  0.0000E+00  0.0000E+00  0.0000E+00  0.0000E+00
    -33.738  0.0000E+00  0.0000E+00  0.0000E+00  0.0000E+00  0.0000E+00  0.0000E+00  0.0000E+00  0.0000E+00  0.0000E+00  0.0000E+00  0.0000E+00  0.0000E+00  0.0000E+00  0.0000E+00  0.0000E+00  0.0000E+00  0.0000E+00  0.0000E+00
    -33.574  0.0000E+00  0.0000E+00  0.0000E+00  0.0000E+00  0.0000E+00  0.0000E+00  0.0000E+00  0.0000E+00  0.0000E+00  0.0000E+00  0.0000E+00  0.0000E+00  0.0000E+00  0.0000E+00  0.0000E+00  0.0000E+00  0.0000E+00  0.0000E+00
    -33.410  0.0000E+00  0.0000E+00  0.0000E+00  0.0000E+00  0.0000E+00  0.0000E+00  0.0000E+00  0.0000E+00  0.0000E+00  0.0000E+00  0.0000E+00  0.0000E+00  0.0000E+00  0.0000E+00  0.0000E+00  0.0000E+00  0.0000E+00  0.0000E+00
    -33.246  0.0000E+00  0.0000E+00  0.0000E+00  0.0000E+00  0.0000E+00  0.0000E+00  0.0000E+00  0.0000E+00  0.0000E+00  0.0000E+00  0.0000E+00  0.0000E+00  0.0000E+00  0.0000E+00  0.0000E+00  0.0000E+00  0.0000E+00  0.0000E+00
    -33.082  0.0000E+00  0.0000E+00  0.0000E+00  0.0000E+00  0.0000E+00  0.0000E+00  0.0000E+00  0.0000E+00  0.0000E+00  0.0000E+00  0.0000E+00  0.0000E+00  0.0000E+00  0.0000E+00  0.0000E+00  0.0000E+00  0.0000E+00  0.0000E+00
    -32.918  0.0000E+00  0.0000E+00  0.0000E+00  0.0000E+00  0.0000E+00  0.0000E+00  0.0000E+00  0.0000E+00  0.0000E+00  0.0000E+00  0.0000E+00  0.0000E+00  0.0000E+00  0.0000E+00  0.0000E+00  0.0000E+00  0.0000E+00  0.0000E+00
    -32.754  0.0000E+00  0.0000E+00  0.0000E+00  0.0000E+00  0.0000E+00  0.0000E+00  0.0000E+00  0.0000E+00  0.0000E+00  0.0000E+00  0.0000E+00  0.0000E+00  0.0000E+00  0.0000E+00  0.0000E+00  0.0000E+00  0.0000E+00  0.0000E+00
    -32.590  0.0000E+00  0.0000E+00  0.0000E+00  0.0000E+00  0.0000E+00  0.0000E+00  0.0000E+00  0.0000E+00  0.0000E+00  0.0000E+00  0.0000E+00  0.0000E+00  0.0000E+00  0.0000E+00  0.0000E+00  0.0000E+00  0.0000E+00  0.0000E+00
    -32.425  0.0000E+00  0.0000E+00  0.0000E+00  0.0000E+00  0.0000E+00  0.0000E+00  0.0000E+00  0.0000E+00  0.0000E+00  0.0000E+00  0.0000E+00  0.0000E+00  0.0000E+00  0.0000E+00  0.0000E+00  0.0000E+00  0.0000E+00  0.0000E+00
    -32.261  0.0000E+00  0.0000E+00  0.0000E+00  0.0000E+00  0.0000E+00  0.0000E+00  0.0000E+00  0.0000E+00  0.0000E+00  0.0000E+00  0.0000E+00  0.0000E+00  0.0000E+00  0.0000E+00  0.0000E+00  0.0000E+00  0.0000E+00  0.0000E+00
    -32.097  0.0000E+00  0.0000E+00  0.0000E+00  0.0000E+00  0.0000E+00  0.0000E+00  0.0000E+00  0.0000E+00  0.0000E+00  0.0000E+00  0.0000E+00  0.0000E+00  0.0000E+00  0.0000E+00  0.0000E+00  0.0000E+00  0.0000E+00  0.0000E+00
    -31.933  0.0000E+00  0.0000E+00  0.0000E+00  0.0000E+00  0.0000E+00  0.0000E+00  0.0000E+00  0.0000E+00  0.0000E+00  0.0000E+00  0.0000E+00  0.0000E+00  0.0000E+00  0.0000E+00  0.0000E+00  0.0000E+00  0.0000E+00  0.0000E+00
    -31.769  0.0000E+00  0.0000E+00  0.0000E+00  0.0000E+00  0.0000E+00  0.0000E+00  0.0000E+00  0.0000E+00  0.0000E+00  0.0000E+00  0.0000E+00  0.0000E+00  0.0000E+00  0.0000E+00  0.0000E+00  0.0000E+00  0.0000E+00  0.0000E+00
    -31.605  0.0000E+00  0.0000E+00  0.0000E+00  0.0000E+00  0.0000E+00  0.0000E+00  0.0000E+00  0.0000E+00  0.0000E+00  0.0000E+00  0.0000E+00  0.0000E+00  0.0000E+00  0.0000E+00  0.0000E+00  0.0000E+00  0.0000E+00  0.0000E+00
    -31.441  0.0000E+00  0.0000E+00  0.0000E+00  0.0000E+00  0.0000E+00  0.0000E+00  0.0000E+00  0.0000E+00  0.0000E+00  0.0000E+00  0.0000E+00  0.0000E+00  0.0000E+00  0.0000E+00  0.0000E+00  0.0000E+00  0.0000E+00  0.0000E+00
    -31.277  0.0000E+00  0.0000E+00  0.0000E+00  0.0000E+00  0.0000E+00  0.0000E+00  0.0000E+00  0.0000E+00  0.0000E+00  0.0000E+00  0.0000E+00  0.0000E+00  0.0000E+00  0.0000E+00  0.0000E+00  0.0000E+00  0.0000E+00  0.0000E+00
    -31.112  0.0000E+00  0.0000E+00  0.0000E+00  0.0000E+00  0.0000E+00  0.0000E+00  0.0000E+00  0.0000E+00  0.0000E+00  0.0000E+00  0.0000E+00  0.0000E+00  0.0000E+00  0.0000E+00  0.0000E+00  0.0000E+00  0.0000E+00  0.0000E+00
    -30.948  0.0000E+00  0.0000E+00  0.0000E+00  0.0000E+00  0.0000E+00  0.0000E+00  0.0000E+00  0.0000E+00  0.0000E+00  0.0000E+00  0.0000E+00  0.0000E+00  0.0000E+00  0.0000E+00  0.0000E+00  0.0000E+00  0.0000E+00  0.0000E+00
    -30.784  0.0000E+00  0.0000E+00  0.0000E+00  0.0000E+00  0.0000E+00  0.0000E+00  0.0000E+00  0.0000E+00  0.0000E+00  0.0000E+00  0.0000E+00  0.0000E+00  0.0000E+00  0.0000E+00  0.0000E+00  0.0000E+00  0.0000E+00  0.0000E+00
    -30.620  0.0000E+00  0.0000E+00  0.0000E+00  0.0000E+00  0.0000E+00  0.0000E+00  0.0000E+00  0.0000E+00  0.0000E+00  0.0000E+00  0.0000E+00  0.0000E+00  0.0000E+00  0.0000E+00  0.0000E+00  0.0000E+00  0.0000E+00  0.0000E+00
    -30.456  0.0000E+00  0.0000E+00  0.0000E+00  0.0000E+00  0.0000E+00  0.0000E+00  0.0000E+00  0.0000E+00  0.0000E+00  0.0000E+00  0.0000E+00  0.0000E+00  0.0000E+00  0.0000E+00  0.0000E+00  0.0000E+00  0.0000E+00  0.0000E+00
    -30.292  0.0000E+00  0.0000E+00  0.0000E+00  0.0000E+00  0.0000E+00  0.0000E+00  0.0000E+00  0.0000E+00  0.0000E+00  0.0000E+00  0.0000E+00  0.0000E+00  0.0000E+00  0.0000E+00  0.0000E+00  0.0000E+00  0.0000E+00  0.0000E+00
    -30.128  0.0000E+00  0.0000E+00  0.0000E+00  0.0000E+00  0.0000E+00  0.0000E+00  0.0000E+00  0.0000E+00  0.0000E+00  0.0000E+00  0.0000E+00  0.0000E+00  0.0000E+00  0.0000E+00  0.0000E+00  0.0000E+00  0.0000E+00  0.0000E+00
    -29.964  0.0000E+00  0.0000E+00  0.0000E+00  0.0000E+00  0.0000E+00  0.0000E+00  0.0000E+00  0.0000E+00  0.0000E+00  0.0000E+00  0.0000E+00  0.0000E+00  0.0000E+00  0.0000E+00  0.0000E+00  0.0000E+00  0.0000E+00  0.0000E+00
    -29.799  0.0000E+00  0.0000E+00  0.0000E+00  0.0000E+00  0.0000E+00  0.0000E+00  0.0000E+00  0.0000E+00  0.0000E+00  0.0000E+00  0.0000E+00  0.0000E+00  0.0000E+00  0.0000E+00  0.0000E+00  0.0000E+00  0.0000E+00  0.0000E+00
    -29.635  0.0000E+00  0.0000E+00  0.0000E+00  0.0000E+00  0.0000E+00  0.0000E+00  0.0000E+00  0.0000E+00  0.0000E+00  0.0000E+00  0.0000E+00  0.0000E+00  0.0000E+00  0.0000E+00  0.0000E+00  0.0000E+00  0.0000E+00  0.0000E+00