   8   8   1   0
  0.2190089E+02  0.4414059E-09  0.4414059E-09  0.8992399E-09  0.5000000E-15
  1.000000000000000E-004
  CAR 
 unknown system                          
     11.72852773    -37.52899895  301      5.09622408      1.00000000
    -37.529  0.0000E+00  0.0000E+00  0.0000E+00  0.0000E+00
    -37.365  0.0000E+00  0.0000E+00  0.0000E+00  0.0000E+00
    -37.201  0.0000E+00  0.0000E+00  0.0000E+00  0.0000E+00
    -37.036  0.0000E+00  0.0000E+00  0.0000E+00  0.0000E+00
    -36.872  0.0000E+00  0.0000E+00  0.0000E+00  0.0000E+00
    -36.708  0.0000E+00  0.0000E+00  0.0000E+00  0.0000E+00
    -36.544  0.0000E+00  0.0000E+00  0.0000E+00  0.0000E+00
    -36.380  0.0000E+00  0.0000E+00  0.0000E+00  0.0000E+00
    -36.215  0.0000E+00  0.0000E+00  0.0000E+00  0.0000E+00
    -36.051  0.0000E+00  0.0000E+00  0.0000E+00  0.0000E+00
    -35.887  0.0000E+00  0.0000E+00  0.0000E+00  0.0000E+00
    -35.723  0.2065E-02  0.2055E-02  0.3390E-03  0.3374E-03
    -35.559  0.5278E-01  0.5254E-01  0.9005E-02  0.8963E-02
    -35.395  0.1257E+01  0.1251E+01  0.2153E+00  0.2144E+00
    -35.230  0.7982E+01  0.7977E+01  0.1526E+01  0.1524E+01
    -35.066  0.2747E+01  0.2757E+01  0.1977E+01  0.1977E+01
    -34.902  0.1349E+00  0.1355E+00  0.1999E+01  0.1999E+01
    -34.738  0.0000E+00  0.0000E+00  0.2000E+01  0.2000E+01
    -34.574  0.0000E+00  0.0000E+00  0.2000E+01  0.2000E+01
    -34.409  0.0000E+00  0.0000E+00  0.2000E+01  0.2000E+01
    -34.245  0.0000E+00  0.0000E+00  0.2000E+01  0.2000E+01
    -34.081  0.0000E+00  0.0000E+00  0.2000E+01  0.2000E+01
    -33.917  0.0000E+00  0.0000E+00  0.2000E+01  0.2000E+01
    -33.753  0.0000E+00  0.0000E+00  0.2000E+01  0.2000E+01
    -33.588  0.0000E+00  0.0000E+00  0.2000E+01  0.2000E+01
    -33.424  0.0000E+00  0.0000E+00  0.2000E+01  0.2000E+01
    -33.260  0.0000E+00  0.0000E+00  0.2000E+01  0.2000E+01
    -33.096  0.0000E+00  0.0000E+00  0.2000E+01  0.2000E+01
    -32.932  0.0000E+00  0.0000E+00  0.2000E+01  0.2000E+01
    -32.767  0.0000E+00  0.0000E+00  0.2000E+01  0.2000E+01
    -32.603  0.0000E+00  0.0000E+00  0.2000E+01  0.2000E+01
    -32.439  0.0000E+00  0.0000E+00  0.2000E+01  0.2000E+01
    -32.275  0.0000E+00  0.0000E+00  0.2000E+01  0.2000E+01
    -32.111  0.0000E+00  0.0000E+00  0.2000E+01  0.2000E+01
    -31.946  0.0000E+00  0.0000E+00  0.2000E+01  0.2000E+01
    -31.782  0.0000E+00  0.0000E+00  0.2000E+01  0.2000E+01
    -31.618  0.0000E+00  0.0000E+00  0.2000E+01  0.2000E+01
    -31.454  0.0000E+00  0.0000E+00  0.2000E+01  0.2000E+01
    -31.290  0.0000E+00  0.0000E+00  0.2000E+01  0.2000E+01
    -31.126  0.0000E+00  0.0000E+00  0.2000E+01  0.2000E+01
    -30.961  0.0000E+00  0.0000E+00  0.2000E+01  0.2000E+01
    -30.797  0.0000E+00  0.0000E+00  0.2000E+01  0.2000E+01
    -30.633  0.0000E+00  0.0000E+00  0.2000E+01  0.2000E+01
    -30.469  0.0000E+00  0.0000E+00  0.2000E+01  0.2000E+01
    -30.305  0.0000E+00  0.0000E+00  0.2000E+01  0.2000E+01
    -30.140  0.0000E+00  0.0000E+00  0.2000E+01  0.2000E+01
    -29.976  0.0000E+00  0.0000E+00  0.2000E+01  0.2000E+01
    -29.812  0.0000E+00  0.0000E+00  0.2000E+01  0.2000E+01
    -29.648  0.0000E+00  0.0000E+00  0.2000E+01  0.2000E+01
    -29.484  0.0000E+00  0.0000E+00  0.2000E+01  0.2000E+01
    -29.319  0.0000E+00  0.0000E+00  0.2000E+01  0.2000E+01
    -29.155  0.0000E+00  0.0000E+00  0.2000E+01  0.2000E+01
    -28.991  0.0000E+00  0.0000E+00  0.2000E+01  0.2000E+01
    -28.827  0.0000E+00  0.0000E+00  0.2000E+01  0.2000E+01
    -28.663  0.0000E+00  0.0000E+00  0.2000E+01  0.2000E+01
    -28.498  0.0000E+00  0.0000E+00  0.2000E+01  0.2000E+01
    -28.334  0.0000E+00  0.0000E+00  0.2000E+01  0.2000E+01
    -28.170  0.0000E+00  0.0000E+00  0.2000E+01  0.2000E+01
    -28.006  0.0000E+00  0.0000E+00  0.2000E+01  0.2000E+01
    -27.842  0.0000E+00  0.0000E+00  0.2000E+01  0.2000E+01
    -27.677  0.0000E+00  0.0000E+00  0.2000E+01  0.2000E+01
    -27.513  0.0000E+00  0.0000E+00  0.2000E+01  0.2000E+01
    -27.349  0.0000E+00  0.0000E+00  0.2000E+01  0.2000E+01
    -27.185  0.0000E+00  0.0000E+00  0.2000E+01  0.2000E+01
    -27.021  0.0000E+00  0.0000E+00  0.2000E+01  0.2000E+01
    -26.857  0.0000E+00  0.0000E+00  0.2000E+01  0.2000E+01
    -26.692  0.0000E+00  0.0000E+00  0.2000E+01  0.2000E+01
    -26.528  0.0000E+00  0.0000E+00  0.2000E+01  0.2000E+01
    -26.364  0.0000E+00  0.0000E+00  0.2000E+01  0.2000E+01
    -26.200  0.0000E+00  0.0000E+00  0.2000E+01  0.2000E+01
    -26.036  0.0000E+00  0.0000E+00  0.2000E+01  0.2000E+01
    -25.871  0.0000E+00  0.0000E+00  0.2000E+01  0.2000E+01
    -25.707  0.0000E+00  0.0000E+00  0.2000E+01  0.2000E+01
    -25.543  0.0000E+00  0.0000E+00  0.2000E+01  0.2000E+01
    -25.379  0.0000E+00  0.0000E+00  0.2000E+01  0.2000E+01
    -25.215  0.0000E+00  0.0000E+00  0.2000E+01  0.2000E+01
    -25.050  0.0000E+00  0.0000E+00  0.2000E+01  0.2000E+01
    -24.886  0.0000E+00  0.0000E+00  0.2000E+01  0.2000E+01
    -24.722  0.0000E+00  0.0000E+00  0.2000E+01  0.2000E+01
    -24.558  0.0000E+00  0.0000E+00  0.2000E+01  0.2000E+01
    -24.394  0.0000E+00  0.0000E+00  0.2000E+01  0.2000E+01
    -24.229  0.0000E+00  0.0000E+00  0.2000E+01  0.2000E+01
    -24.065  0.0000E+00  0.0000E+00  0.2000E+01  0.2000E+01
    -23.901  0.0000E+00  0.0000E+00  0.2000E+01  0.2000E+01
    -23.737  0.0000E+00  0.0000E+00  0.2000E+01  0.2000E+01
    -23.573  0.0000E+00  0.0000E+00  0.2000E+01  0.2000E+01
    -23.409  0.0000E+00  0.0000E+00  0.2000E+01  0.2000E+01
    -23.244  0.0000E+00  0.0000E+00  0.2000E+01  0.2000E+01
    -23.080  0.0000E+00  0.0000E+00  0.2000E+01  0.2000E+01
    -22.916  0.0000E+00  0.0000E+00  0.2000E+01  0.2000E+01
    -22.752  0.0000E+00  0.0000E+00  0.2000E+01  0.2000E+01
    -22.588  0.0000E+00  0.0000E+00  0.2000E+01  0.2000E+01
    -22.423  0.0000E+00  0.0000E+00  0.2000E+01  0.2000E+01
    -22.259  0.0000E+00  0.0000E+00  0.2000E+01  0.2000E+01
    -22.095  0.0000E+00  0.0000E+00  0.2000E+01  0.2000E+01
    -21.931  0.0000E+00  0.0000E+00  0.2000E+01  0.2000E+01
    -21.767  0.0000E+00  0.0000E+00  0.2000E+01  0.2000E+01
    -21.602  0.0000E+00  0.0000E+00  0.2000E+01  0.2000E+01
    -21.438  0.0000E+00  0.0000E+00  0.2000E+01  0.2000E+01
    -21.274  0.0000E+00  0.0000E+00  0.2000E+01  0.2000E+01
    -21.110  0.0000E+00  0.0000E+00  0.2000E+01  0.2000E+01
    -20.946  0.0000E+00  0.0000E+00  0.2000E+01  0.2000E+01
    -20.781  0.0000E+00  0.0000E+00  0.2000E+01  0.2000E+01
    -20.617  0.0000E+00  0.0000E+00  0.2000E+01  0.2000E+01
    -20.453  0.0000E+00  0.0000E+00  0.2000E+01  0.2000E+01
    -20.289  0.0000E+00  0.0000E+00  0.2000E+01  0.2000E+01
    -20.125  0.0000E+00  0.0000E+00  0.2000E+01  0.2000E+01
    -19.960  0.0000E+00  0.0000E+00  0.2000E+01  0.2000E+01
    -19.796  0.0000E+00  0.0000E+00  0.2000E+01  0.2000E+01
    -19.632  0.0000E+00  0.0000E+00  0.2000E+01  0.2000E+01
    -19.468  0.0000E+00  0.0000E+00  0.2000E+01  0.2000E+01
    -19.304  0.0000E+00  0.0000E+00  0.2000E+01  0.2000E+01
    -19.140  0.0000E+00  0.0000E+00  0.2000E+01  0.2000E+01
    -18.975  0.0000E+00  0.0000E+00  0.2000E+01  0.2000E+01
    -18.811  0.0000E+00  0.0000E+00  0.2000E+01  0.2000E+01
    -18.647  0.0000E+00  0.0000E+00  0.2000E+01  0.2000E+01
    -18.483  0.0000E+00  0.0000E+00  0.2000E+01  0.2000E+01
    -18.319  0.0000E+00  0.0000E+00  0.2000E+01  0.2000E+01
    -18.154  0.0000E+00  0.0000E+00  0.2000E+01  0.2000E+01
    -17.990  0.0000E+00  0.0000E+00  0.2000E+01  0.2000E+01
    -17.826  0.0000E+00  0.0000E+00  0.2000E+01  0.2000E+01
    -17.662  0.0000E+00  0.0000E+00  0.2000E+01  0.2000E+01
    -17.498  0.0000E+00  0.0000E+00  0.2000E+01  0.2000E+01
    -17.333  0.0000E+00  0.0000E+00  0.2000E+01  0.2000E+01
    -17.169  0.0000E+00  0.0000E+00  0.2000E+01  0.2000E+01
    -17.005  0.0000E+00  0.0000E+00  0.2000E+01  0.2000E+01
    -16.841  0.4721E-02  0.4674E-02  0.2001E+01  0.2001E+01
    -16.677  0.1207E+00  0.1195E+00  0.2021E+01  0.2020E+01
    -16.512  0.2903E+01  0.2877E+01  0.2497E+01  0.2493E+01
    -16.348  0.2182E+02  0.2177E+02  0.6079E+01  0.6068E+01
    -16.184  0.1103E+02  0.1109E+02  0.7890E+01  0.7889E+01
    -16.020  0.6288E+00  0.6382E+00  0.7996E+01  0.7996E+01
    -15.856  0.0000E+00  0.0000E+00  0.8000E+01  0.8000E+01
    -15.691  0.0000E+00  0.0000E+00  0.8000E+01  0.8000E+01
    -15.527  0.0000E+00  0.0000E+00  0.8000E+01  0.8000E+01
    -15.363  0.0000E+00  0.0000E+00  0.8000E+01  0.8000E+01
    -15.199  0.0000E+00  0.0000E+00  0.8000E+01  0.8000E+01
    -15.035  0.0000E+00  0.0000E+00  0.8000E+01  0.8000E+01
    -14.871  0.0000E+00  0.0000E+00  0.8000E+01  0.8000E+01
    -14.706  0.0000E+00  0.0000E+00  0.8000E+01  0.8000E+01
    -14.542  0.0000E+00  0.0000E+00  0.8000E+01  0.8000E+01
    -14.378  0.0000E+00  0.0000E+00  0.8000E+01  0.8000E+01
    -14.214  0.0000E+00  0.0000E+00  0.8000E+01  0.8000E+01
    -14.050  0.0000E+00  0.0000E+00  0.8000E+01  0.8000E+01
    -13.885  0.0000E+00  0.0000E+00  0.8000E+01  0.8000E+01
    -13.721  0.0000E+00  0.0000E+00  0.8000E+01  0.8000E+01
    -13.557  0.0000E+00  0.0000E+00  0.8000E+01  0.8000E+01
    -13.393  0.0000E+00  0.0000E+00  0.8000E+01  0.8000E+01
    -13.229  0.0000E+00  0.0000E+00  0.8000E+01  0.8000E+01
    -13.064  0.0000E+00  0.0000E+00  0.8000E+01  0.8000E+01
    -12.900  0.0000E+00  0.0000E+00  0.8000E+01  0.8000E+01
    -12.736  0.0000E+00  0.0000E+00  0.8000E+01  0.8000E+01
    -12.572  0.0000E+00  0.0000E+00  0.8000E+01  0.8000E+01
    -12.408  0.0000E+00  0.0000E+00  0.8000E+01  0.8000E+01
    -12.243  0.0000E+00  0.0000E+00  0.8000E+01  0.8000E+01
    -12.079  0.0000E+00  0.0000E+00  0.8000E+01  0.8000E+01
    -11.915  0.0000E+00  0.0000E+00  0.8000E+01  0.8000E+01
    -11.751  0.0000E+00  0.0000E+00  0.8000E+01  0.8000E+01
    -11.587  0.0000E+00  0.0000E+00  0.8000E+01  0.8000E+01
    -11.423  0.0000E+00  0.0000E+00  0.8000E+01  0.8000E+01
    -11.258  0.0000E+00  0.0000E+00  0.8000E+01  0.8000E+01
    -11.094  0.0000E+00  0.0000E+00  0.8000E+01  0.8000E+01
    -10.930  0.0000E+00  0.0000E+00  0.8000E+01  0.8000E+01
    -10.766  0.0000E+00  0.0000E+00  0.8000E+01  0.8000E+01
    -10.602  0.0000E+00  0.0000E+00  0.8000E+01  0.8000E+01
    -10.437  0.0000E+00  0.0000E+00  0.8000E+01  0.8000E+01
    -10.273  0.0000E+00  0.0000E+00  0.8000E+01  0.8000E+01
    -10.109  0.0000E+00  0.0000E+00  0.8000E+01  0.8000E+01
     -9.945  0.0000E+00  0.0000E+00  0.8000E+01  0.8000E+01
     -9.781  0.0000E+00  0.0000E+00  0.8000E+01  0.8000E+01
     -9.616  0.0000E+00  0.0000E+00  0.8000E+01  0.8000E+01
     -9.452  0.0000E+00  0.0000E+00  0.8000E+01  0.8000E+01
     -9.288  0.0000E+00  0.0000E+00  0.8000E+01  0.8000E+01
     -9.124  0.0000E+00  0.0000E+00  0.8000E+01  0.8000E+01
     -8.960  0.0000E+00  0.0000E+00  0.8000E+01  0.8000E+01
     -8.795  0.0000E+00  0.0000E+00  0.8000E+01  0.8000E+01
     -8.631  0.0000E+00  0.0000E+00  0.8000E+01  0.8000E+01
     -8.467  0.0000E+00  0.0000E+00  0.8000E+01  0.8000E+01
     -8.303  0.0000E+00  0.0000E+00  0.8000E+01  0.8000E+01
     -8.139  0.0000E+00  0.0000E+00  0.8000E+01  0.8000E+01
     -7.974  0.0000E+00  0.0000E+00  0.8000E+01  0.8000E+01
     -7.810  0.0000E+00  0.0000E+00  0.8000E+01  0.8000E+01
     -7.646  0.0000E+00  0.0000E+00  0.8000E+01  0.8000E+01
     -7.482  0.0000E+00  0.0000E+00  0.8000E+01  0.8000E+01
     -7.318  0.0000E+00  0.0000E+00  0.8000E+01  0.8000E+01
     -7.154  0.0000E+00  0.0000E+00  0.8000E+01  0.8000E+01
     -6.989  0.0000E+00  0.0000E+00  0.8000E+01  0.8000E+01
     -6.825  0.0000E+00  0.0000E+00  0.8000E+01  0.8000E+01
     -6.661  0.0000E+00  0.0000E+00  0.8000E+01  0.8000E+01
     -6.497  0.0000E+00  0.0000E+00  0.8000E+01  0.8000E+01
     -6.333  0.0000E+00  0.0000E+00  0.8000E+01  0.8000E+01
     -6.168  0.0000E+00  0.0000E+00  0.8000E+01  0.8000E+01
     -6.004  0.0000E+00  0.0000E+00  0.8000E+01  0.8000E+01
     -5.840  0.0000E+00  0.0000E+00  0.8000E+01  0.8000E+01
     -5.676  0.0000E+00  0.0000E+00  0.8000E+01  0.8000E+01
     -5.512  0.0000E+00  0.0000E+00  0.8000E+01  0.8000E+01
     -5.347  0.0000E+00  0.0000E+00  0.8000E+01  0.8000E+01
     -5.183  0.0000E+00  0.0000E+00  0.8000E+01  0.8000E+01
     -5.019  0.0000E+00  0.0000E+00  0.8000E+01  0.8000E+01
     -4.855  0.0000E+00  0.0000E+00  0.8000E+01  0.8000E+01
     -4.691  0.0000E+00  0.0000E+00  0.8000E+01  0.8000E+01
     -4.526  0.0000E+00  0.0000E+00  0.8000E+01  0.8000E+01
     -4.362  0.0000E+00  0.0000E+00  0.8000E+01  0.8000E+01
     -4.198  0.0000E+00  0.0000E+00  0.8000E+01  0.8000E+01
     -4.034  0.0000E+00  0.0000E+00  0.8000E+01  0.8000E+01
     -3.870  0.7786E-06  0.7444E-06  0.8000E+01  0.8000E+01
     -3.705  0.3814E-04  0.3596E-04  0.8000E+01  0.8000E+01
     -3.541  0.1024E-02  0.9796E-03  0.8000E+01  0.8000E+01
     -3.377  0.2178E-01  0.2100E-01  0.8004E+01  0.8004E+01
     -3.213  0.1393E+00  0.1372E+00  0.8027E+01  0.8026E+01
     -3.049  0.2777E+00  0.2764E+00  0.8072E+01  0.8072E+01
     -2.885  0.3755E+00  0.3741E+00  0.8134E+01  0.8133E+01
     -2.720  0.4511E+00  0.4508E+00  0.8208E+01  0.8207E+01
     -2.556  0.5228E+00  0.5215E+00  0.8294E+01  0.8293E+01
     -2.392  0.5979E+00  0.5976E+00  0.8393E+01  0.8391E+01
     -2.228  0.6359E+00  0.6346E+00  0.8497E+01  0.8496E+01
     -2.064  0.7483E+00  0.7470E+00  0.8620E+01  0.8618E+01
     -1.899  0.8102E+00  0.8098E+00  0.8754E+01  0.8752E+01
     -1.735  0.8414E+00  0.8405E+00  0.8892E+01  0.8890E+01
     -1.571  0.9724E+00  0.9725E+00  0.9052E+01  0.9050E+01
     -1.407  0.9324E+00  0.9321E+00  0.9205E+01  0.9203E+01
     -1.243  0.9767E+00  0.9766E+00  0.9366E+01  0.9364E+01
     -1.078  0.1042E+01  0.1041E+01  0.9538E+01  0.9535E+01
     -0.914  0.8545E+00  0.8581E+00  0.9678E+01  0.9677E+01
     -0.750  0.8834E+00  0.8794E+00  0.9824E+01  0.9821E+01
     -0.586  0.1178E+01  0.1175E+01  0.1002E+02  0.1001E+02
     -0.422  0.1242E+01  0.1242E+01  0.1022E+02  0.1022E+02
     -0.257  0.1315E+01  0.1315E+01  0.1044E+02  0.1044E+02
     -0.093  0.1184E+01  0.1184E+01  0.1063E+02  0.1063E+02
      0.071  0.1201E+01  0.1203E+01  0.1083E+02  0.1083E+02
      0.235  0.9233E+00  0.9238E+00  0.1098E+02  0.1098E+02
      0.399  0.1019E+01  0.1018E+01  0.1115E+02  0.1115E+02
      0.563  0.1168E+01  0.1163E+01  0.1134E+02  0.1134E+02
      0.728  0.1414E+01  0.1413E+01  0.1158E+02  0.1157E+02
      0.892  0.1406E+01  0.1407E+01  0.1181E+02  0.1180E+02
      1.056  0.1431E+01  0.1428E+01  0.1204E+02  0.1204E+02
      1.220  0.1542E+01  0.1546E+01  0.1230E+02  0.1229E+02
      1.384  0.1175E+01  0.1174E+01  0.1249E+02  0.1249E+02
      1.549  0.1362E+01  0.1361E+01  0.1271E+02  0.1271E+02
      1.713  0.1105E+01  0.1111E+01  0.1290E+02  0.1289E+02
      1.877  0.9505E+00  0.9459E+00  0.1305E+02  0.1305E+02
      2.041  0.1434E+01  0.1430E+01  0.1329E+02  0.1328E+02
      2.205  0.1182E+01  0.1188E+01  0.1348E+02  0.1348E+02
      2.370  0.1190E+01  0.1187E+01  0.1368E+02  0.1368E+02
      2.534  0.1359E+01  0.1356E+01  0.1390E+02  0.1390E+02
      2.698  0.1517E+01  0.1515E+01  0.1415E+02  0.1415E+02
      2.862  0.1618E+01  0.1619E+01  0.1442E+02  0.1441E+02
      3.026  0.1764E+01  0.1759E+01  0.1471E+02  0.1470E+02
      3.191  0.1866E+01  0.1867E+01  0.1502E+02  0.1501E+02
      3.355  0.1751E+01  0.1752E+01  0.1530E+02  0.1530E+02
      3.519  0.1773E+01  0.1774E+01  0.1560E+02  0.1559E+02
      3.683  0.1812E+01  0.1808E+01  0.1589E+02  0.1589E+02
      3.847  0.2028E+01  0.2027E+01  0.1623E+02  0.1622E+02
      4.012  0.2289E+01  0.2287E+01  0.1660E+02  0.1660E+02
      4.176  0.2251E+01  0.2251E+01  0.1697E+02  0.1697E+02
      4.340  0.2407E+01  0.2404E+01  0.1737E+02  0.1737E+02
      4.504  0.2535E+01  0.2538E+01  0.1779E+02  0.1778E+02
      4.668  0.2134E+01  0.2134E+01  0.1814E+02  0.1813E+02
      4.832  0.2063E+01  0.2069E+01  0.1848E+02  0.1847E+02
      4.997  0.1911E+01  0.1907E+01  0.1879E+02  0.1879E+02
      5.161  0.2050E+01  0.2052E+01  0.1913E+02  0.1913E+02
      5.325  0.2072E+01  0.2068E+01  0.1947E+02  0.1947E+02
      5.489  0.2248E+01  0.2250E+01  0.1984E+02  0.1984E+02
      5.653  0.1868E+01  0.1870E+01  0.2015E+02  0.2015E+02
      5.818  0.2299E+01  0.2293E+01  0.2053E+02  0.2052E+02
      5.982  0.2055E+01  0.2064E+01  0.2087E+02  0.2086E+02
      6.146  0.1643E+01  0.1644E+01  0.2114E+02  0.2113E+02
      6.310  0.1656E+01  0.1654E+01  0.2141E+02  0.2141E+02
      6.474  0.1721E+01  0.1723E+01  0.2169E+02  0.2169E+02
      6.639  0.1483E+01  0.1484E+01  0.2194E+02  0.2193E+02
      6.803  0.1765E+01  0.1756E+01  0.2223E+02  0.2222E+02
      6.967  0.2106E+01  0.2105E+01  0.2257E+02  0.2257E+02
      7.131  0.2332E+01  0.2330E+01  0.2296E+02  0.2295E+02
      7.295  0.2407E+01  0.2403E+01  0.2335E+02  0.2335E+02
      7.460  0.2930E+01  0.2922E+01  0.2384E+02  0.2383E+02
      7.624  0.3216E+01  0.3213E+01  0.2437E+02  0.2436E+02
      7.788  0.3410E+01  0.3395E+01  0.2493E+02  0.2492E+02
      7.952  0.3251E+01  0.3268E+01  0.2546E+02  0.2545E+02
      8.116  0.2806E+01  0.2803E+01  0.2592E+02  0.2592E+02
      8.281  0.2823E+01  0.2794E+01  0.2639E+02  0.2638E+02
      8.445  0.2673E+01  0.2706E+01  0.2683E+02  0.2682E+02
      8.609  0.2097E+01  0.2023E+01  0.2717E+02  0.2715E+02
      8.773  0.1631E+01  0.1558E+01  0.2744E+02  0.2741E+02
      8.937  0.1128E+01  0.1267E+01  0.2763E+02  0.2762E+02
      9.101  0.7812E+00  0.8393E+00  0.2776E+02  0.2776E+02
      9.266  0.6772E+00  0.6102E+00  0.2787E+02  0.2786E+02
      9.430  0.5657E+00  0.6298E+00  0.2796E+02  0.2796E+02
      9.594  0.2060E+00  0.2060E+00  0.2800E+02  0.2800E+02
      9.758  0.1575E-01  0.1157E-01  0.2800E+02  0.2800E+02
      9.922  0.0000E+00  0.0000E+00  0.2800E+02  0.2800E+02
     10.087  0.0000E+00  0.0000E+00  0.2800E+02  0.2800E+02
     10.251  0.0000E+00  0.0000E+00  0.2800E+02  0.2800E+02
     10.415  0.0000E+00  0.0000E+00  0.2800E+02  0.2800E+02
     10.579  0.0000E+00  0.0000E+00  0.2800E+02  0.2800E+02
     10.743  0.0000E+00  0.0000E+00  0.2800E+02  0.2800E+02
     10.908  0.0000E+00  0.0000E+00  0.2800E+02  0.2800E+02
     11.072  0.0000E+00  0.0000E+00  0.2800E+02  0.2800E+02
     11.236  0.0000E+00  0.0000E+00  0.2800E+02  0.2800E+02
     11.400  0.0000E+00  0.0000E+00  0.2800E+02  0.2800E+02
     11.564  0.0000E+00  0.0000E+00  0.2800E+02  0.2800E+02
     11.729  0.0000E+00  0.0000E+00  0.2800E+02  0.2800E+02
     11.72852773    -37.52899895  301      5.09622408      1.00000000
    -37.529  0.0000E+00  0.0000E+00  0.0000E+00  0.0000E+00  0.0000E+00  0.0000E+00  0.0000E+00  0.0000E+00  0.0000E+00  0.0000E+00  0.0000E+00  0.0000E+00  0.0000E+00  0.0000E+00  0.0000E+00  0.0000E+00  0.0000E+00  0.0000E+00
    -37.365  0.0000E+00  0.0000E+00  0.0000E+00  0.0000E+00  0.0000E+00  0.0000E+00  0.0000E+00  0.0000E+00  0.0000E+00  0.0000E+00  0.0000E+00  0.0000E+00  0.0000E+00  0.0000E+00  0.0000E+00  0.0000E+00  0.0000E+00  0.0000E+00
    -37.201  0.0000E+00  0.0000E+00  0.0000E+00  0.0000E+00  0.0000E+00  0.0000E+00  0.0000E+00  0.0000E+00  0.0000E+00  0.0000E+00  0.0000E+00  0.0000E+00  0.0000E+00  0.0000E+00  0.0000E+00  0.0000E+00  0.0000E+00  0.0000E+00
    -37.036  0.0000E+00  0.0000E+00  0.0000E+00  0.0000E+00  0.0000E+00  0.0000E+00  0.0000E+00  0.0000E+00  0.0000E+00  0.0000E+00  0.0000E+00  0.0000E+00  0.0000E+00  0.0000E+00  0.0000E+00  0.0000E+00  0.0000E+00  0.0000E+00
    -36.872  0.0000E+00  0.0000E+00  0.0000E+00  0.0000E+00  0.0000E+00  0.0000E+00  0.0000E+00  0.0000E+00  0.0000E+00  0.0000E+00  0.0000E+00  0.0000E+00  0.0000E+00  0.0000E+00  0.0000E+00  0.0000E+00  0.0000E+00  0.0000E+00
    -36.708  0.0000E+00  0.0000E+00  0.0000E+00  0.0000E+00  0.0000E+00  0.0000E+00  0.0000E+00  0.0000E+00  0.0000E+00  0.0000E+00  0.0000E+00  0.0000E+00  0.0000E+00  0.0000E+00  0.0000E+00  0.0000E+00  0.0000E+00  0.0000E+00
    -36.544  0.0000E+00  0.0000E+00  0.0000E+00  0.0000E+00  0.0000E+00  0.0000E+00  0.0000E+00  0.0000E+00  0.0000E+00  0.0000E+00  0.0000E+00  0.0000E+00  0.0000E+00  0.0000E+00  0.0000E+00  0.0000E+00  0.0000E+00  0.0000E+00
    -36.380  0.0000E+00  0.0000E+00  0.0000E+00  0.0000E+00  0.0000E+00  0.0000E+00  0.0000E+00  0.0000E+00  0.0000E+00  0.0000E+00  0.0000E+00  0.0000E+00  0.0000E+00  0.0000E+00  0.0000E+00  0.0000E+00  0.0000E+00  0.0000E+00
    -36.215  0.0000E+00  0.0000E+00  0.0000E+00  0.0000E+00  0.0000E+00  0.0000E+00  0.0000E+00  0.0000E+00  0.0000E+00  0.0000E+00  0.0000E+00  0.0000E+00  0.0000E+00  0.0000E+00  0.0000E+00  0.0000E+00  0.0000E+00  0.0000E+00
    -36.051  0.0000E+00  0.0000E+00  0.0000E+00  0.0000E+00  0.0000E+00  0.0000E+00  0.0000E+00  0.0000E+00  0.0000E+00  0.0000E+00  0.0000E+00  0.0000E+00  0.0000E+00  0.0000E+00  0.0000E+00  0.0000E+00  0.0000E+00  0.0000E+00
    -35.887  0.0000E+00  0.0000E+00  0.0000E+00  0.0000E+00  0.0000E+00  0.0000E+00  0.0000E+00  0.0000E+00  0.0000E+00  0.0000E+00  0.0000E+00  0.0000E+00  0.0000E+00  0.0000E+00  0.0000E+00  0.0000E+00  0.0000E+00  0.0000E+00
    -35.723  0.1017E-02  0.1012E-02  0.1830E-11  0.1837E-11  0.2839E-13  0.3192E-13  0.1830E-11  0.1837E-11  0.2357E-14  0.2138E-14  0.1603E-14  0.2035E-14  0.4482E-09  0.4459E-09  0.1603E-14  0.2035E-14  0.1210E-11  0.1178E-11
    -35.559  0.2600E-01  0.2588E-01  0.4677E-10  0.4695E-10  0.7258E-12  0.8159E-12  0.4677E-10  0.4695E-10  0.6025E-13  0.5465E-13  0.4098E-13  0.5202E-13  0.1146E-07  0.1140E-07  0.4098E-13  0.5202E-13  0.3093E-10  0.3010E-10
    -35.395  0.6191E+00  0.6165E+00  0.1114E-08  0.1118E-08  0.1726E-10  0.1942E-10  0.1114E-08  0.1118E-08  0.1434E-11  0.1302E-11  0.9758E-12  0.1240E-11  0.2728E-06  0.2716E-06  0.9758E-12  0.1240E-11  0.7363E-09  0.7171E-09
    -35.230  0.3932E+01  0.3930E+01  0.7073E-08  0.7127E-08  0.1090E-09  0.1232E-09  0.7073E-08  0.7127E-08  0.9100E-11  0.8302E-11  0.6198E-11  0.7931E-11  0.1733E-05  0.1732E-05  0.6198E-11  0.7931E-11  0.4677E-08  0.4571E-08
    -35.066  0.1353E+01  0.1358E+01  0.2434E-08  0.2463E-08  0.3723E-10  0.4231E-10  0.2434E-08  0.2463E-08  0.3128E-11  0.2870E-11  0.2133E-11  0.2752E-11  0.5968E-06  0.5986E-06  0.2133E-11  0.2752E-11  0.1610E-08  0.1580E-08
    -34.902  0.6647E-01  0.6677E-01  0.1195E-09  0.1211E-09  0.1825E-11  0.2077E-11  0.1195E-09  0.1211E-09  0.1535E-12  0.1411E-12  0.1048E-12  0.1355E-12  0.2931E-07  0.2944E-07  0.1048E-12  0.1355E-12  0.7905E-10  0.7766E-10
    -34.738  0.0000E+00  0.0000E+00  0.0000E+00  0.0000E+00  0.0000E+00  0.0000E+00  0.0000E+00  0.0000E+00  0.0000E+00  0.0000E+00  0.0000E+00  0.0000E+00  0.0000E+00  0.0000E+00  0.0000E+00  0.0000E+00  0.0000E+00  0.0000E+00
    -34.574  0.0000E+00  0.0000E+00  0.0000E+00  0.0000E+00  0.0000E+00  0.0000E+00  0.0000E+00  0.0000E+00  0.0000E+00  0.0000E+00  0.0000E+00  0.0000E+00  0.0000E+00  0.0000E+00  0.0000E+00  0.0000E+00  0.0000E+00  0.0000E+00
    -34.409  0.0000E+00  0.0000E+00  0.0000E+00  0.0000E+00  0.0000E+00  0.0000E+00  0.0000E+00  0.0000E+00  0.0000E+00  0.0000E+00  0.0000E+00  0.0000E+00  0.0000E+00  0.0000E+00  0.0000E+00  0.0000E+00  0.0000E+00  0.0000E+00
    -34.245  0.0000E+00  0.0000E+00  0.0000E+00  0.0000E+00  0.0000E+00  0.0000E+00  0.0000E+00  0.0000E+00  0.0000E+00  0.0000E+00  0.0000E+00  0.0000E+00  0.0000E+00  0.0000E+00  0.0000E+00  0.0000E+00  0.0000E+00  0.0000E+00
    -34.081  0.0000E+00  0.0000E+00  0.0000E+00  0.0000E+00  0.0000E+00  0.0000E+00  0.0000E+00  0.0000E+00  0.0000E+00  0.0000E+00  0.0000E+00  0.0000E+00  0.0000E+00  0.0000E+00  0.0000E+00  0.0000E+00  0.0000E+00  0.0000E+00
    -33.917  0.0000E+00  0.0000E+00  0.0000E+00  0.0000E+00  0.0000E+00  0.0000E+00  0.0000E+00  0.0000E+00  0.0000E+00  0.0000E+00  0.0000E+00  0.0000E+00  0.0000E+00  0.0000E+00  0.0000E+00  0.0000E+00  0.0000E+00  0.0000E+00
    -33.753  0.0000E+00  0.0000E+00  0.0000E+00  0.0000E+00  0.0000E+00  0.0000E+00  0.0000E+00  0.0000E+00  0.0000E+00  0.0000E+00  0.0000E+00  0.0000E+00  0.0000E+00  0.0000E+00  0.0000E+00  0.0000E+00  0.0000E+00  0.0000E+00
    -33.588  0.0000E+00  0.0000E+00  0.0000E+00  0.0000E+00  0.0000E+00  0.0000E+00  0.0000E+00  0.0000E+00  0.0000E+00  0.0000E+00  0.0000E+00  0.0000E+00  0.0000E+00  0.0000E+00  0.0000E+00  0.0000E+00  0.0000E+00  0.0000E+00
    -33.424  0.0000E+00  0.0000E+00  0.0000E+00  0.0000E+00  0.0000E+00  0.0000E+00  0.0000E+00  0.0000E+00  0.0000E+00  0.0000E+00  0.0000E+00  0.0000E+00  0.0000E+00  0.0000E+00  0.0000E+00  0.0000E+00  0.0000E+00  0.0000E+00
    -33.260  0.0000E+00  0.0000E+00  0.0000E+00  0.0000E+00  0.0000E+00  0.0000E+00  0.0000E+00  0.0000E+00  0.0000E+00  0.0000E+00  0.0000E+00  0.0000E+00  0.0000E+00  0.0000E+00  0.0000E+00  0.0000E+00  0.0000E+00  0.0000E+00
    -33.096  0.0000E+00  0.0000E+00  0.0000E+00  0.0000E+00  0.0000E+00  0.0000E+00  0.0000E+00  0.0000E+00  0.0000E+00  0.0000E+00  0.0000E+00  0.0000E+00  0.0000E+00  0.0000E+00  0.0000E+00  0.0000E+00  0.0000E+00  0.0000E+00
    -32.932  0.0000E+00  0.0000E+00  0.0000E+00  0.0000E+00  0.0000E+00  0.0000E+00  0.0000E+00  0.0000E+00  0.0000E+00  0.0000E+00  0.0000E+00  0.0000E+00  0.0000E+00  0.0000E+00  0.0000E+00  0.0000E+00  0.0000E+00  0.0000E+00
    -32.767  0.0000E+00  0.0000E+00  0.0000E+00  0.0000E+00  0.0000E+00  0.0000E+00  0.0000E+00  0.0000E+00  0.0000E+00  0.0000E+00  0.0000E+00  0.0000E+00  0.0000E+00  0.0000E+00  0.0000E+00  0.0000E+00  0.0000E+00  0.0000E+00
    -32.603  0.0000E+00  0.0000E+00  0.0000E+00  0.0000E+00  0.0000E+00  0.0000E+00  0.0000E+00  0.0000E+00  0.0000E+00  0.0000E+00  0.0000E+00  0.0000E+00  0.0000E+00  0.0000E+00  0.0000E+00  0.0000E+00  0.0000E+00  0.0000E+00
    -32.439  0.0000E+00  0.0000E+00  0.0000E+00  0.0000E+00  0.0000E+00  0.0000E+00  0.0000E+00  0.0000E+00  0.0000E+00  0.0000E+00  0.0000E+00  0.0000E+00  0.0000E+00  0.0000E+00  0.0000E+00  0.0000E+00  0.0000E+00  0.0000E+00
    -32.275  0.0000E+00  0.0000E+00  0.0000E+00  0.0000E+00  0.0000E+00  0.0000E+00  0.0000E+00  0.0000E+00  0.0000E+00  0.0000E+00  0.0000E+00  0.0000E+00  0.0000E+00  0.0000E+00  0.0000E+00  0.0000E+00  0.0000E+00  0.0000E+00
    -32.111  0.0000E+00  0.0000E+00  0.0000E+00  0.0000E+00  0.0000E+00  0.0000E+00  0.0000E+00  0.0000E+00  0.0000E+00  0.0000E+00  0.0000E+00  0.0000E+00  0.0000E+00  0.0000E+00  0.0000E+00  0.0000E+00  0.0000E+00  0.0000E+00
    -31.946  0.0000E+00  0.0000E+00  0.0000E+00  0.0000E+00  0.0000E+00  0.0000E+00  0.0000E+00  0.0000E+00  0.0000E+00  0.0000E+00  0.0000E+00  0.0000E+00  0.0000E+00  0.0000E+00  0.0000E+00  0.0000E+00  0.0000E+00  0.0000E+00
    -31.782  0.0000E+00  0.0000E+00  0.0000E+00  0.0000E+00  0.0000E+00  0.0000E+00  0.0000E+00  0.0000E+00  0.0000E+00  0.0000E+00  0.0000E+00  0.0000E+00  0.0000E+00  0.0000E+00  0.0000E+00  0.0000E+00  0.0000E+00  0.0000E+00
    -31.618  0.0000E+00  0.0000E+00  0.0000E+00  0.0000E+00  0.0000E+00  0.0000E+00  0.0000E+00  0.0000E+00  0.0000E+00  0.0000E+00  0.0000E+00  0.0000E+00  0.0000E+00  0.0000E+00  0.0000E+00  0.0000E+00  0.0000E+00  0.0000E+00
    -31.454  0.0000E+00  0.0000E+00  0.0000E+00  0.0000E+00  0.0000E+00  0.0000E+00  0.0000E+00  0.0000E+00  0.0000E+00  0.0000E+00  0.0000E+00  0.0000E+00  0.0000E+00  0.0000E+00  0.0000E+00  0.0000E+00  0.0000E+00  0.0000E+00
    -31.290  0.0000E+00  0.0000E+00  0.0000E+00  0.0000E+00  0.0000E+00  0.0000E+00  0.0000E+00  0.0000E+00  0.0000E+00  0.0000E+00  0.0000E+00  0.0000E+00  0.0000E+00  0.0000E+00  0.0000E+00  0.0000E+00  0.0000E+00  0.0000E+00
    -31.126  0.0000E+00  0.0000E+00  0.0000E+00  0.0000E+00  0.0000E+00  0.0000E+00  0.0000E+00  0.0000E+00  0.0000E+00  0.0000E+00  0.0000E+00  0.0000E+00  0.0000E+00  0.0000E+00  0.0000E+00  0.0000E+00  0.0000E+00  0.0000E+00
    -30.961  0.0000E+00  0.0000E+00  0.0000E+00  0.0000E+00  0.0000E+00  0.0000E+00  0.0000E+00  0.0000E+00  0.0000E+00  0.0000E+00  0.0000E+00  0.0000E+00  0.0000E+00  0.0000E+00  0.0000E+00  0.0000E+00  0.0000E+00  0.0000E+00
    -30.797  0.0000E+00  0.0000E+00  0.0000E+00  0.0000E+00  0.0000E+00  0.0000E+00  0.0000E+00  0.0000E+00  0.0000E+00  0.0000E+00  0.0000E+00  0.0000E+00  0.0000E+00  0.0000E+00  0.0000E+00  0.0000E+00  0.0000E+00  0.0000E+00
    -30.633  0.0000E+00  0.0000E+00  0.0000E+00  0.0000E+00  0.0000E+00  0.0000E+00  0.0000E+00  0.0000E+00  0.0000E+00  0.0000E+00  0.0000E+00  0.0000E+00  0.0000E+00  0.0000E+00  0.0000E+00  0.0000E+00  0.0000E+00  0.0000E+00
    -30.469  0.0000E+00  0.0000E+00  0.0000E+00  0.0000E+00  0.0000E+00  0.0000E+00  0.0000E+00  0.0000E+00  0.0000E+00  0.0000E+00  0.0000E+00  0.0000E+00  0.0000E+00  0.0000E+00  0.0000E+00  0.0000E+00  0.0000E+00  0.0000E+00
    -30.305  0.0000E+00  0.0000E+00  0.0000E+00  0.0000E+00  0.0000E+00  0.0000E+00  0.0000E+00  0.0000E+00  0.0000E+00  0.0000E+00  0.0000E+00  0.0000E+00  0.0000E+00  0.0000E+00  0.0000E+00  0.0000E+00  0.0000E+00  0.0000E+00
    -30.140  0.0000E+00  0.0000E+00  0.0000E+00  0.0000E+00  0.0000E+00  0.0000E+00  0.0000E+00  0.0000E+00  0.0000E+00  0.0000E+00  0.0000E+00  0.0000E+00  0.0000E+00  0.0000E+00  0.0000E+00  0.0000E+00  0.0000E+00  0.0000E+00
    -29.976  0.0000E+00  0.0000E+00  0.0000E+00  0.0000E+00  0.0000E+00  0.0000E+00  0.0000E+00  0.0000E+00  0.0000E+00  0.0000E+00  0.0000E+00  0.0000E+00  0.0000E+00  0.0000E+00  0.0000E+00  0.0000E+00  0.0000E+00  0.0000E+00
    -29.812  0.0000E+00  0.0000E+00  0.0000E+00  0.0000E+00  0.0000E+00  0.0000E+00  0.0000E+00  0.0000E+00  0.0000E+00  0.0000E+00  0.0000E+00  0.0000E+00  0.0000E+00  0.0000E+00  0.0000E+00  0.0000E+00  0.0000E+00  0.0000E+00
    -29.648  0.0000E+00  0.0000E+00  0.0000E+00  0.0000E+00  0.0000E+00  0.0000E+00  0.0000E+00  0.0000E+00  0.0000E+00  0.0000E+00  0.0000E+00  0.0000E+00  0.0000E+00  0.0000E+00  0.0000E+00  0.0000E+00  0.0000E+00  0.0000E+00
    -29.484  0.0000E+00  0.0000E+00  0.0000E+00  0.0000E+00  0.0000E+00  0.0000E+00  0.0000E+00  0.0000E+00  0.0000E+00  0.0000E+00  0.0000E+00  0.0000E+00  0.0000E+00  0.0000E+00  0.0000E+00  0.0000E+00  0.0000E+00  0.0000E+00
    -29.319  0.0000E+00  0.0000E+00  0.0000E+00  0.0000E+00  0.0000E+00  0.0000E+00  0.0000E+00  0.0000E+00  0.0000E+00  0.0000E+00  0.0000E+00  0.0000E+00  0.0000E+00  0.0000E+00  0.0000E+00  0.0000E+00  0.0000E+00  0.0000E+00