   8   8   1   0
  0.2528207E+02  0.4630434E-09  0.4630434E-09  0.9433203E-09  0.5000000E-15
  1.000000000000000E-004
  CAR 
 unknown system                          
     10.26599670    -39.03542660  301      4.08001786      1.00000000
    -39.035  0.0000E+00  0.0000E+00  0.0000E+00  0.0000E+00
    -38.871  0.0000E+00  0.0000E+00  0.0000E+00  0.0000E+00
    -38.707  0.0000E+00  0.0000E+00  0.0000E+00  0.0000E+00
    -38.542  0.0000E+00  0.0000E+00  0.0000E+00  0.0000E+00
    -38.378  0.0000E+00  0.0000E+00  0.0000E+00  0.0000E+00
    -38.214  0.0000E+00  0.0000E+00  0.0000E+00  0.0000E+00
    -38.049  0.0000E+00  0.0000E+00  0.0000E+00  0.0000E+00
    -37.885  0.0000E+00  0.0000E+00  0.0000E+00  0.0000E+00
    -37.721  0.0000E+00  0.0000E+00  0.0000E+00  0.0000E+00
    -37.556  0.0000E+00  0.0000E+00  0.0000E+00  0.0000E+00
    -37.392  0.0000E+00  0.0000E+00  0.0000E+00  0.0000E+00
    -37.228  0.2077E-02  0.2077E-02  0.3413E-03  0.3413E-03
    -37.063  0.5325E-01  0.5325E-01  0.9092E-02  0.9092E-02
    -36.899  0.1270E+01  0.1270E+01  0.2178E+00  0.2178E+00
    -36.735  0.7994E+01  0.7994E+01  0.1532E+01  0.1532E+01
    -36.570  0.2713E+01  0.2713E+01  0.1977E+01  0.1977E+01
    -36.406  0.1324E+00  0.1324E+00  0.1999E+01  0.1999E+01
    -36.242  0.0000E+00  0.0000E+00  0.2000E+01  0.2000E+01
    -36.077  0.0000E+00  0.0000E+00  0.2000E+01  0.2000E+01
    -35.913  0.0000E+00  0.0000E+00  0.2000E+01  0.2000E+01
    -35.749  0.0000E+00  0.0000E+00  0.2000E+01  0.2000E+01
    -35.584  0.0000E+00  0.0000E+00  0.2000E+01  0.2000E+01
    -35.420  0.0000E+00  0.0000E+00  0.2000E+01  0.2000E+01
    -35.256  0.0000E+00  0.0000E+00  0.2000E+01  0.2000E+01
    -35.091  0.0000E+00  0.0000E+00  0.2000E+01  0.2000E+01
    -34.927  0.0000E+00  0.0000E+00  0.2000E+01  0.2000E+01
    -34.763  0.0000E+00  0.0000E+00  0.2000E+01  0.2000E+01
    -34.598  0.0000E+00  0.0000E+00  0.2000E+01  0.2000E+01
    -34.434  0.0000E+00  0.0000E+00  0.2000E+01  0.2000E+01
    -34.270  0.0000E+00  0.0000E+00  0.2000E+01  0.2000E+01
    -34.105  0.0000E+00  0.0000E+00  0.2000E+01  0.2000E+01
    -33.941  0.0000E+00  0.0000E+00  0.2000E+01  0.2000E+01
    -33.777  0.0000E+00  0.0000E+00  0.2000E+01  0.2000E+01
    -33.612  0.0000E+00  0.0000E+00  0.2000E+01  0.2000E+01
    -33.448  0.0000E+00  0.0000E+00  0.2000E+01  0.2000E+01
    -33.284  0.0000E+00  0.0000E+00  0.2000E+01  0.2000E+01
    -33.119  0.0000E+00  0.0000E+00  0.2000E+01  0.2000E+01
    -32.955  0.0000E+00  0.0000E+00  0.2000E+01  0.2000E+01
    -32.791  0.0000E+00  0.0000E+00  0.2000E+01  0.2000E+01
    -32.626  0.0000E+00  0.0000E+00  0.2000E+01  0.2000E+01
    -32.462  0.0000E+00  0.0000E+00  0.2000E+01  0.2000E+01
    -32.298  0.0000E+00  0.0000E+00  0.2000E+01  0.2000E+01
    -32.133  0.0000E+00  0.0000E+00  0.2000E+01  0.2000E+01
    -31.969  0.0000E+00  0.0000E+00  0.2000E+01  0.2000E+01
    -31.805  0.0000E+00  0.0000E+00  0.2000E+01  0.2000E+01
    -31.640  0.0000E+00  0.0000E+00  0.2000E+01  0.2000E+01
    -31.476  0.0000E+00  0.0000E+00  0.2000E+01  0.2000E+01
    -31.312  0.0000E+00  0.0000E+00  0.2000E+01  0.2000E+01
    -31.147  0.0000E+00  0.0000E+00  0.2000E+01  0.2000E+01
    -30.983  0.0000E+00  0.0000E+00  0.2000E+01  0.2000E+01
    -30.819  0.0000E+00  0.0000E+00  0.2000E+01  0.2000E+01
    -30.654  0.0000E+00  0.0000E+00  0.2000E+01  0.2000E+01
    -30.490  0.0000E+00  0.0000E+00  0.2000E+01  0.2000E+01
    -30.326  0.0000E+00  0.0000E+00  0.2000E+01  0.2000E+01
    -30.161  0.0000E+00  0.0000E+00  0.2000E+01  0.2000E+01
    -29.997  0.0000E+00  0.0000E+00  0.2000E+01  0.2000E+01
    -29.832  0.0000E+00  0.0000E+00  0.2000E+01  0.2000E+01
    -29.668  0.0000E+00  0.0000E+00  0.2000E+01  0.2000E+01
    -29.504  0.0000E+00  0.0000E+00  0.2000E+01  0.2000E+01
    -29.339  0.0000E+00  0.0000E+00  0.2000E+01  0.2000E+01
    -29.175  0.0000E+00  0.0000E+00  0.2000E+01  0.2000E+01
    -29.011  0.0000E+00  0.0000E+00  0.2000E+01  0.2000E+01
    -28.846  0.0000E+00  0.0000E+00  0.2000E+01  0.2000E+01
    -28.682  0.0000E+00  0.0000E+00  0.2000E+01  0.2000E+01
    -28.518  0.0000E+00  0.0000E+00  0.2000E+01  0.2000E+01
    -28.353  0.0000E+00  0.0000E+00  0.2000E+01  0.2000E+01
    -28.189  0.0000E+00  0.0000E+00  0.2000E+01  0.2000E+01
    -28.025  0.0000E+00  0.0000E+00  0.2000E+01  0.2000E+01
    -27.860  0.0000E+00  0.0000E+00  0.2000E+01  0.2000E+01
    -27.696  0.0000E+00  0.0000E+00  0.2000E+01  0.2000E+01
    -27.532  0.0000E+00  0.0000E+00  0.2000E+01  0.2000E+01
    -27.367  0.0000E+00  0.0000E+00  0.2000E+01  0.2000E+01
    -27.203  0.0000E+00  0.0000E+00  0.2000E+01  0.2000E+01
    -27.039  0.0000E+00  0.0000E+00  0.2000E+01  0.2000E+01
    -26.874  0.0000E+00  0.0000E+00  0.2000E+01  0.2000E+01
    -26.710  0.0000E+00  0.0000E+00  0.2000E+01  0.2000E+01
    -26.546  0.0000E+00  0.0000E+00  0.2000E+01  0.2000E+01
    -26.381  0.0000E+00  0.0000E+00  0.2000E+01  0.2000E+01
    -26.217  0.0000E+00  0.0000E+00  0.2000E+01  0.2000E+01
    -26.053  0.0000E+00  0.0000E+00  0.2000E+01  0.2000E+01
    -25.888  0.0000E+00  0.0000E+00  0.2000E+01  0.2000E+01
    -25.724  0.0000E+00  0.0000E+00  0.2000E+01  0.2000E+01
    -25.560  0.0000E+00  0.0000E+00  0.2000E+01  0.2000E+01
    -25.395  0.0000E+00  0.0000E+00  0.2000E+01  0.2000E+01
    -25.231  0.0000E+00  0.0000E+00  0.2000E+01  0.2000E+01
    -25.067  0.0000E+00  0.0000E+00  0.2000E+01  0.2000E+01
    -24.902  0.0000E+00  0.0000E+00  0.2000E+01  0.2000E+01
    -24.738  0.0000E+00  0.0000E+00  0.2000E+01  0.2000E+01
    -24.574  0.0000E+00  0.0000E+00  0.2000E+01  0.2000E+01
    -24.409  0.0000E+00  0.0000E+00  0.2000E+01  0.2000E+01
    -24.245  0.0000E+00  0.0000E+00  0.2000E+01  0.2000E+01
    -24.081  0.0000E+00  0.0000E+00  0.2000E+01  0.2000E+01
    -23.916  0.0000E+00  0.0000E+00  0.2000E+01  0.2000E+01
    -23.752  0.0000E+00  0.0000E+00  0.2000E+01  0.2000E+01
    -23.588  0.0000E+00  0.0000E+00  0.2000E+01  0.2000E+01
    -23.423  0.0000E+00  0.0000E+00  0.2000E+01  0.2000E+01
    -23.259  0.0000E+00  0.0000E+00  0.2000E+01  0.2000E+01
    -23.095  0.0000E+00  0.0000E+00  0.2000E+01  0.2000E+01
    -22.930  0.0000E+00  0.0000E+00  0.2000E+01  0.2000E+01
    -22.766  0.0000E+00  0.0000E+00  0.2000E+01  0.2000E+01
    -22.602  0.0000E+00  0.0000E+00  0.2000E+01  0.2000E+01
    -22.437  0.0000E+00  0.0000E+00  0.2000E+01  0.2000E+01
    -22.273  0.0000E+00  0.0000E+00  0.2000E+01  0.2000E+01
    -22.109  0.0000E+00  0.0000E+00  0.2000E+01  0.2000E+01
    -21.944  0.0000E+00  0.0000E+00  0.2000E+01  0.2000E+01
    -21.780  0.0000E+00  0.0000E+00  0.2000E+01  0.2000E+01
    -21.616  0.0000E+00  0.0000E+00  0.2000E+01  0.2000E+01
    -21.451  0.0000E+00  0.0000E+00  0.2000E+01  0.2000E+01
    -21.287  0.0000E+00  0.0000E+00  0.2000E+01  0.2000E+01
    -21.123  0.0000E+00  0.0000E+00  0.2000E+01  0.2000E+01
    -20.958  0.0000E+00  0.0000E+00  0.2000E+01  0.2000E+01
    -20.794  0.0000E+00  0.0000E+00  0.2000E+01  0.2000E+01
    -20.630  0.0000E+00  0.0000E+00  0.2000E+01  0.2000E+01
    -20.465  0.0000E+00  0.0000E+00  0.2000E+01  0.2000E+01
    -20.301  0.0000E+00  0.0000E+00  0.2000E+01  0.2000E+01
    -20.137  0.0000E+00  0.0000E+00  0.2000E+01  0.2000E+01
    -19.972  0.0000E+00  0.0000E+00  0.2000E+01  0.2000E+01
    -19.808  0.0000E+00  0.0000E+00  0.2000E+01  0.2000E+01
    -19.644  0.0000E+00  0.0000E+00  0.2000E+01  0.2000E+01
    -19.479  0.0000E+00  0.0000E+00  0.2000E+01  0.2000E+01
    -19.315  0.0000E+00  0.0000E+00  0.2000E+01  0.2000E+01
    -19.151  0.0000E+00  0.0000E+00  0.2000E+01  0.2000E+01
    -18.986  0.0000E+00  0.0000E+00  0.2000E+01  0.2000E+01
    -18.822  0.0000E+00  0.0000E+00  0.2000E+01  0.2000E+01
    -18.658  0.0000E+00  0.0000E+00  0.2000E+01  0.2000E+01
    -18.493  0.0000E+00  0.0000E+00  0.2000E+01  0.2000E+01
    -18.329  0.2136E-02  0.2131E-02  0.2000E+01  0.2000E+01
    -18.164  0.5492E-01  0.5480E-01  0.2009E+01  0.2009E+01
    -18.000  0.1404E+01  0.1401E+01  0.2240E+01  0.2240E+01
    -17.836  0.1732E+02  0.1731E+02  0.5087E+01  0.5084E+01
    -17.671  0.1643E+02  0.1645E+02  0.7787E+01  0.7787E+01
    -17.507  0.1246E+01  0.1249E+01  0.7992E+01  0.7992E+01
    -17.343  0.0000E+00  0.0000E+00  0.8000E+01  0.8000E+01
    -17.178  0.0000E+00  0.0000E+00  0.8000E+01  0.8000E+01
    -17.014  0.0000E+00  0.0000E+00  0.8000E+01  0.8000E+01
    -16.850  0.0000E+00  0.0000E+00  0.8000E+01  0.8000E+01
    -16.685  0.0000E+00  0.0000E+00  0.8000E+01  0.8000E+01
    -16.521  0.0000E+00  0.0000E+00  0.8000E+01  0.8000E+01
    -16.357  0.0000E+00  0.0000E+00  0.8000E+01  0.8000E+01
    -16.192  0.0000E+00  0.0000E+00  0.8000E+01  0.8000E+01
    -16.028  0.0000E+00  0.0000E+00  0.8000E+01  0.8000E+01
    -15.864  0.0000E+00  0.0000E+00  0.8000E+01  0.8000E+01
    -15.699  0.0000E+00  0.0000E+00  0.8000E+01  0.8000E+01
    -15.535  0.0000E+00  0.0000E+00  0.8000E+01  0.8000E+01
    -15.371  0.0000E+00  0.0000E+00  0.8000E+01  0.8000E+01
    -15.206  0.0000E+00  0.0000E+00  0.8000E+01  0.8000E+01
    -15.042  0.0000E+00  0.0000E+00  0.8000E+01  0.8000E+01
    -14.878  0.0000E+00  0.0000E+00  0.8000E+01  0.8000E+01
    -14.713  0.0000E+00  0.0000E+00  0.8000E+01  0.8000E+01
    -14.549  0.0000E+00  0.0000E+00  0.8000E+01  0.8000E+01
    -14.385  0.0000E+00  0.0000E+00  0.8000E+01  0.8000E+01
    -14.220  0.0000E+00  0.0000E+00  0.8000E+01  0.8000E+01
    -14.056  0.0000E+00  0.0000E+00  0.8000E+01  0.8000E+01
    -13.892  0.0000E+00  0.0000E+00  0.8000E+01  0.8000E+01
    -13.727  0.0000E+00  0.0000E+00  0.8000E+01  0.8000E+01
    -13.563  0.0000E+00  0.0000E+00  0.8000E+01  0.8000E+01
    -13.399  0.0000E+00  0.0000E+00  0.8000E+01  0.8000E+01
    -13.234  0.0000E+00  0.0000E+00  0.8000E+01  0.8000E+01
    -13.070  0.0000E+00  0.0000E+00  0.8000E+01  0.8000E+01
    -12.906  0.0000E+00  0.0000E+00  0.8000E+01  0.8000E+01
    -12.741  0.0000E+00  0.0000E+00  0.8000E+01  0.8000E+01
    -12.577  0.0000E+00  0.0000E+00  0.8000E+01  0.8000E+01
    -12.413  0.0000E+00  0.0000E+00  0.8000E+01  0.8000E+01
    -12.248  0.0000E+00  0.0000E+00  0.8000E+01  0.8000E+01
    -12.084  0.0000E+00  0.0000E+00  0.8000E+01  0.8000E+01
    -11.920  0.0000E+00  0.0000E+00  0.8000E+01  0.8000E+01
    -11.755  0.0000E+00  0.0000E+00  0.8000E+01  0.8000E+01
    -11.591  0.0000E+00  0.0000E+00  0.8000E+01  0.8000E+01
    -11.427  0.0000E+00  0.0000E+00  0.8000E+01  0.8000E+01
    -11.262  0.0000E+00  0.0000E+00  0.8000E+01  0.8000E+01
    -11.098  0.0000E+00  0.0000E+00  0.8000E+01  0.8000E+01
    -10.934  0.0000E+00  0.0000E+00  0.8000E+01  0.8000E+01
    -10.769  0.0000E+00  0.0000E+00  0.8000E+01  0.8000E+01
    -10.605  0.0000E+00  0.0000E+00  0.8000E+01  0.8000E+01
    -10.441  0.0000E+00  0.0000E+00  0.8000E+01  0.8000E+01
    -10.276  0.0000E+00  0.0000E+00  0.8000E+01  0.8000E+01
    -10.112  0.0000E+00  0.0000E+00  0.8000E+01  0.8000E+01
     -9.948  0.0000E+00  0.0000E+00  0.8000E+01  0.8000E+01
     -9.783  0.0000E+00  0.0000E+00  0.8000E+01  0.8000E+01
     -9.619  0.0000E+00  0.0000E+00  0.8000E+01  0.8000E+01
     -9.455  0.0000E+00  0.0000E+00  0.8000E+01  0.8000E+01
     -9.290  0.0000E+00  0.0000E+00  0.8000E+01  0.8000E+01
     -9.126  0.0000E+00  0.0000E+00  0.8000E+01  0.8000E+01
     -8.962  0.0000E+00  0.0000E+00  0.8000E+01  0.8000E+01
     -8.797  0.0000E+00  0.0000E+00  0.8000E+01  0.8000E+01
     -8.633  0.0000E+00  0.0000E+00  0.8000E+01  0.8000E+01
     -8.469  0.0000E+00  0.0000E+00  0.8000E+01  0.8000E+01
     -8.304  0.0000E+00  0.0000E+00  0.8000E+01  0.8000E+01
     -8.140  0.0000E+00  0.0000E+00  0.8000E+01  0.8000E+01
     -7.976  0.0000E+00  0.0000E+00  0.8000E+01  0.8000E+01
     -7.811  0.0000E+00  0.0000E+00  0.8000E+01  0.8000E+01
     -7.647  0.0000E+00  0.0000E+00  0.8000E+01  0.8000E+01
     -7.483  0.0000E+00  0.0000E+00  0.8000E+01  0.8000E+01
     -7.318  0.0000E+00  0.0000E+00  0.8000E+01  0.8000E+01
     -7.154  0.0000E+00  0.0000E+00  0.8000E+01  0.8000E+01
     -6.990  0.0000E+00  0.0000E+00  0.8000E+01  0.8000E+01
     -6.825  0.0000E+00  0.0000E+00  0.8000E+01  0.8000E+01
     -6.661  0.0000E+00  0.0000E+00  0.8000E+01  0.8000E+01
     -6.496  0.0000E+00  0.0000E+00  0.8000E+01  0.8000E+01
     -6.332  0.0000E+00  0.0000E+00  0.8000E+01  0.8000E+01
     -6.168  0.0000E+00  0.0000E+00  0.8000E+01  0.8000E+01
     -6.003  0.0000E+00  0.0000E+00  0.8000E+01  0.8000E+01
     -5.839  0.0000E+00  0.0000E+00  0.8000E+01  0.8000E+01
     -5.675  0.0000E+00  0.0000E+00  0.8000E+01  0.8000E+01
     -5.510  0.0000E+00  0.0000E+00  0.8000E+01  0.8000E+01
     -5.346  0.0000E+00  0.0000E+00  0.8000E+01  0.8000E+01
     -5.182  0.0000E+00  0.0000E+00  0.8000E+01  0.8000E+01
     -5.017  0.0000E+00  0.0000E+00  0.8000E+01  0.8000E+01
     -4.853  0.0000E+00  0.0000E+00  0.8000E+01  0.8000E+01
     -4.689  0.0000E+00  0.0000E+00  0.8000E+01  0.8000E+01
     -4.524  0.0000E+00  0.0000E+00  0.8000E+01  0.8000E+01
     -4.360  0.0000E+00  0.0000E+00  0.8000E+01  0.8000E+01
     -4.196  0.3652E-05  0.3590E-05  0.8000E+01  0.8000E+01
     -4.031  0.1218E-03  0.1197E-03  0.8000E+01  0.8000E+01
     -3.867  0.3171E-02  0.3118E-02  0.8001E+01  0.8001E+01
     -3.703  0.5358E-01  0.5296E-01  0.8009E+01  0.8009E+01
     -3.538  0.2243E+00  0.2233E+00  0.8046E+01  0.8046E+01
     -3.374  0.3684E+00  0.3678E+00  0.8107E+01  0.8106E+01
     -3.210  0.4831E+00  0.4826E+00  0.8186E+01  0.8186E+01
     -3.045  0.5630E+00  0.5623E+00  0.8279E+01  0.8278E+01
     -2.881  0.6657E+00  0.6654E+00  0.8388E+01  0.8388E+01
     -2.717  0.7198E+00  0.7192E+00  0.8507E+01  0.8506E+01
     -2.552  0.8492E+00  0.8486E+00  0.8647E+01  0.8646E+01
     -2.388  0.9088E+00  0.9087E+00  0.8796E+01  0.8796E+01
     -2.224  0.1008E+01  0.1008E+01  0.8962E+01  0.8961E+01
     -2.059  0.1054E+01  0.1054E+01  0.9136E+01  0.9135E+01
     -1.895  0.1088E+01  0.1087E+01  0.9315E+01  0.9314E+01
     -1.731  0.1120E+01  0.1120E+01  0.9499E+01  0.9498E+01
     -1.566  0.9806E+00  0.9829E+00  0.9661E+01  0.9660E+01
     -1.402  0.9005E+00  0.8992E+00  0.9810E+01  0.9809E+01
     -1.238  0.1253E+01  0.1251E+01  0.1002E+02  0.1001E+02
     -1.073  0.1372E+01  0.1372E+01  0.1024E+02  0.1024E+02
     -0.909  0.1410E+01  0.1411E+01  0.1047E+02  0.1047E+02
     -0.745  0.1303E+01  0.1302E+01  0.1069E+02  0.1069E+02
     -0.580  0.1252E+01  0.1253E+01  0.1089E+02  0.1089E+02
     -0.416  0.1131E+01  0.1130E+01  0.1108E+02  0.1108E+02
     -0.252  0.1200E+01  0.1199E+01  0.1128E+02  0.1128E+02
     -0.087  0.1551E+01  0.1549E+01  0.1153E+02  0.1153E+02
      0.077  0.1589E+01  0.1589E+01  0.1180E+02  0.1179E+02
      0.241  0.1555E+01  0.1555E+01  0.1205E+02  0.1205E+02
      0.406  0.1611E+01  0.1612E+01  0.1232E+02  0.1232E+02
      0.570  0.1411E+01  0.1411E+01  0.1255E+02  0.1255E+02
      0.734  0.1450E+01  0.1452E+01  0.1279E+02  0.1279E+02
      0.899  0.1051E+01  0.1052E+01  0.1296E+02  0.1296E+02
      1.063  0.1326E+01  0.1323E+01  0.1318E+02  0.1318E+02
      1.227  0.1354E+01  0.1357E+01  0.1340E+02  0.1340E+02
      1.392  0.9498E+00  0.9498E+00  0.1356E+02  0.1356E+02
      1.556  0.1293E+01  0.1291E+01  0.1377E+02  0.1377E+02
      1.720  0.1438E+01  0.1440E+01  0.1401E+02  0.1401E+02
      1.885  0.1199E+01  0.1199E+01  0.1421E+02  0.1421E+02
      2.049  0.1530E+01  0.1527E+01  0.1446E+02  0.1446E+02
      2.213  0.1920E+01  0.1919E+01  0.1478E+02  0.1477E+02
      2.378  0.2019E+01  0.2020E+01  0.1511E+02  0.1511E+02
      2.542  0.1894E+01  0.1894E+01  0.1542E+02  0.1542E+02
      2.706  0.1873E+01  0.1873E+01  0.1573E+02  0.1573E+02
      2.871  0.2175E+01  0.2174E+01  0.1609E+02  0.1609E+02
      3.035  0.2249E+01  0.2247E+01  0.1646E+02  0.1646E+02
      3.199  0.2397E+01  0.2398E+01  0.1685E+02  0.1685E+02
      3.364  0.2478E+01  0.2476E+01  0.1726E+02  0.1726E+02
      3.528  0.2707E+01  0.2708E+01  0.1771E+02  0.1770E+02
      3.692  0.2438E+01  0.2437E+01  0.1811E+02  0.1811E+02
      3.857  0.2234E+01  0.2236E+01  0.1848E+02  0.1848E+02
      4.021  0.2331E+01  0.2328E+01  0.1886E+02  0.1886E+02
      4.185  0.2221E+01  0.2223E+01  0.1923E+02  0.1923E+02
      4.350  0.2184E+01  0.2182E+01  0.1959E+02  0.1958E+02
      4.514  0.2419E+01  0.2419E+01  0.1998E+02  0.1998E+02
      4.679  0.2413E+01  0.2413E+01  0.2038E+02  0.2038E+02
      4.843  0.2367E+01  0.2369E+01  0.2077E+02  0.2077E+02
      5.007  0.1898E+01  0.1900E+01  0.2109E+02  0.2108E+02
      5.172  0.1933E+01  0.1933E+01  0.2140E+02  0.2140E+02
      5.336  0.2006E+01  0.2006E+01  0.2173E+02  0.2173E+02
      5.500  0.1868E+01  0.1870E+01  0.2204E+02  0.2204E+02
      5.665  0.2072E+01  0.2069E+01  0.2238E+02  0.2238E+02
      5.829  0.2516E+01  0.2516E+01  0.2280E+02  0.2280E+02
      5.993  0.2591E+01  0.2592E+01  0.2322E+02  0.2322E+02
      6.158  0.2589E+01  0.2588E+01  0.2365E+02  0.2365E+02
      6.322  0.3346E+01  0.3344E+01  0.2420E+02  0.2420E+02
      6.486  0.3906E+01  0.3900E+01  0.2484E+02  0.2484E+02
      6.651  0.3768E+01  0.3777E+01  0.2547E+02  0.2546E+02
      6.815  0.3057E+01  0.3028E+01  0.2597E+02  0.2596E+02
      6.979  0.3007E+01  0.2910E+01  0.2646E+02  0.2644E+02
      7.144  0.3074E+01  0.3118E+01  0.2697E+02  0.2696E+02
      7.308  0.2147E+01  0.2051E+01  0.2733E+02  0.2729E+02
      7.472  0.1349E+01  0.1387E+01  0.2755E+02  0.2752E+02
      7.637  0.9043E+00  0.1054E+01  0.2770E+02  0.2770E+02
      7.801  0.9128E+00  0.9599E+00  0.2785E+02  0.2786E+02
      7.965  0.6733E+00  0.6420E+00  0.2796E+02  0.2796E+02
      8.130  0.2235E+00  0.2106E+00  0.2800E+02  0.2800E+02
      8.294  0.1555E-01  0.1446E-01  0.2800E+02  0.2800E+02
      8.458  0.0000E+00  0.0000E+00  0.2800E+02  0.2800E+02
      8.623  0.0000E+00  0.0000E+00  0.2800E+02  0.2800E+02
      8.787  0.0000E+00  0.0000E+00  0.2800E+02  0.2800E+02
      8.951  0.0000E+00  0.0000E+00  0.2800E+02  0.2800E+02
      9.116  0.0000E+00  0.0000E+00  0.2800E+02  0.2800E+02
      9.280  0.0000E+00  0.0000E+00  0.2800E+02  0.2800E+02
      9.444  0.0000E+00  0.0000E+00  0.2800E+02  0.2800E+02
      9.609  0.0000E+00  0.0000E+00  0.2800E+02  0.2800E+02
      9.773  0.0000E+00  0.0000E+00  0.2800E+02  0.2800E+02
      9.937  0.0000E+00  0.0000E+00  0.2800E+02  0.2800E+02
     10.102  0.0000E+00  0.0000E+00  0.2800E+02  0.2800E+02
     10.266  0.0000E+00  0.0000E+00  0.2800E+02  0.2800E+02
     10.26599670    -39.03542660  301      4.08001786      1.00000000
    -39.035  0.0000E+00  0.0000E+00  0.0000E+00  0.0000E+00  0.0000E+00  0.0000E+00  0.0000E+00  0.0000E+00  0.0000E+00  0.0000E+00  0.0000E+00  0.0000E+00  0.0000E+00  0.0000E+00  0.0000E+00  0.0000E+00  0.0000E+00  0.0000E+00
    -38.871  0.0000E+00  0.0000E+00  0.0000E+00  0.0000E+00  0.0000E+00  0.0000E+00  0.0000E+00  0.0000E+00  0.0000E+00  0.0000E+00  0.0000E+00  0.0000E+00  0.0000E+00  0.0000E+00  0.0000E+00  0.0000E+00  0.0000E+00  0.0000E+00
    -38.707  0.0000E+00  0.0000E+00  0.0000E+00  0.0000E+00  0.0000E+00  0.0000E+00  0.0000E+00  0.0000E+00  0.0000E+00  0.0000E+00  0.0000E+00  0.0000E+00  0.0000E+00  0.0000E+00  0.0000E+00  0.0000E+00  0.0000E+00  0.0000E+00
    -38.542  0.0000E+00  0.0000E+00  0.0000E+00  0.0000E+00  0.0000E+00  0.0000E+00  0.0000E+00  0.0000E+00  0.0000E+00  0.0000E+00  0.0000E+00  0.0000E+00  0.0000E+00  0.0000E+00  0.0000E+00  0.0000E+00  0.0000E+00  0.0000E+00
    -38.378  0.0000E+00  0.0000E+00  0.0000E+00  0.0000E+00  0.0000E+00  0.0000E+00  0.0000E+00  0.0000E+00  0.0000E+00  0.0000E+00  0.0000E+00  0.0000E+00  0.0000E+00  0.0000E+00  0.0000E+00  0.0000E+00  0.0000E+00  0.0000E+00
    -38.214  0.0000E+00  0.0000E+00  0.0000E+00  0.0000E+00  0.0000E+00  0.0000E+00  0.0000E+00  0.0000E+00  0.0000E+00  0.0000E+00  0.0000E+00  0.0000E+00  0.0000E+00  0.0000E+00  0.0000E+00  0.0000E+00  0.0000E+00  0.0000E+00
    -38.049  0.0000E+00  0.0000E+00  0.0000E+00  0.0000E+00  0.0000E+00  0.0000E+00  0.0000E+00  0.0000E+00  0.0000E+00  0.0000E+00  0.0000E+00  0.0000E+00  0.0000E+00  0.0000E+00  0.0000E+00  0.0000E+00  0.0000E+00  0.0000E+00
    -37.885  0.0000E+00  0.0000E+00  0.0000E+00  0.0000E+00  0.0000E+00  0.0000E+00  0.0000E+00  0.0000E+00  0.0000E+00  0.0000E+00  0.0000E+00  0.0000E+00  0.0000E+00  0.0000E+00  0.0000E+00  0.0000E+00  0.0000E+00  0.0000E+00
    -37.721  0.0000E+00  0.0000E+00  0.0000E+00  0.0000E+00  0.0000E+00  0.0000E+00  0.0000E+00  0.0000E+00  0.0000E+00  0.0000E+00  0.0000E+00  0.0000E+00  0.0000E+00  0.0000E+00  0.0000E+00  0.0000E+00  0.0000E+00  0.0000E+00
    -37.556  0.0000E+00  0.0000E+00  0.0000E+00  0.0000E+00  0.0000E+00  0.0000E+00  0.0000E+00  0.0000E+00  0.0000E+00  0.0000E+00  0.0000E+00  0.0000E+00  0.0000E+00  0.0000E+00  0.0000E+00  0.0000E+00  0.0000E+00  0.0000E+00
    -37.392  0.0000E+00  0.0000E+00  0.0000E+00  0.0000E+00  0.0000E+00  0.0000E+00  0.0000E+00  0.0000E+00  0.0000E+00  0.0000E+00  0.0000E+00  0.0000E+00  0.0000E+00  0.0000E+00  0.0000E+00  0.0000E+00  0.0000E+00  0.0000E+00
    -37.228  0.1024E-02  0.1024E-02  0.3860E-12  0.3697E-12  0.1364E-13  0.4431E-14  0.3860E-12  0.3697E-12  0.1122E-14  0.3965E-15  0.1610E-14  0.9766E-15  0.2439E-09  0.2448E-09  0.1610E-14  0.9766E-15  0.2533E-12  0.2595E-12
    -37.063  0.2625E-01  0.2624E-01  0.9896E-11  0.9478E-11  0.3497E-12  0.1136E-12  0.9896E-11  0.9478E-11  0.2877E-13  0.1017E-13  0.4129E-13  0.2504E-13  0.6254E-08  0.6276E-08  0.4129E-13  0.2504E-13  0.6495E-11  0.6654E-11
    -36.899  0.6259E+00  0.6258E+00  0.2360E-09  0.2260E-09  0.8337E-11  0.2708E-11  0.2360E-09  0.2260E-09  0.6862E-12  0.2425E-12  0.9847E-12  0.5971E-12  0.1492E-06  0.1497E-06  0.9847E-12  0.5971E-12  0.1549E-09  0.1587E-09
    -36.735  0.3940E+01  0.3940E+01  0.1485E-08  0.1423E-08  0.5239E-10  0.1701E-10  0.1485E-08  0.1423E-08  0.4325E-11  0.1530E-11  0.6203E-11  0.3756E-11  0.9391E-06  0.9424E-06  0.6203E-11  0.3756E-11  0.9752E-09  0.9992E-09
    -36.570  0.1337E+01  0.1337E+01  0.5040E-09  0.4829E-09  0.1774E-10  0.5758E-11  0.5040E-09  0.4829E-09  0.1470E-11  0.5208E-12  0.2106E-11  0.1274E-11  0.3187E-06  0.3199E-06  0.2106E-11  0.1274E-11  0.3310E-09  0.3391E-09
    -36.406  0.6524E-01  0.6524E-01  0.2459E-10  0.2356E-10  0.8652E-12  0.2807E-12  0.2459E-10  0.2356E-10  0.7174E-13  0.2542E-13  0.1028E-12  0.6213E-13  0.1555E-07  0.1561E-07  0.1028E-12  0.6213E-13  0.1615E-10  0.1655E-10
    -36.242  0.0000E+00  0.0000E+00  0.0000E+00  0.0000E+00  0.0000E+00  0.0000E+00  0.0000E+00  0.0000E+00  0.0000E+00  0.0000E+00  0.0000E+00  0.0000E+00  0.0000E+00  0.0000E+00  0.0000E+00  0.0000E+00  0.0000E+00  0.0000E+00
    -36.077  0.0000E+00  0.0000E+00  0.0000E+00  0.0000E+00  0.0000E+00  0.0000E+00  0.0000E+00  0.0000E+00  0.0000E+00  0.0000E+00  0.0000E+00  0.0000E+00  0.0000E+00  0.0000E+00  0.0000E+00  0.0000E+00  0.0000E+00  0.0000E+00
    -35.913  0.0000E+00  0.0000E+00  0.0000E+00  0.0000E+00  0.0000E+00  0.0000E+00  0.0000E+00  0.0000E+00  0.0000E+00  0.0000E+00  0.0000E+00  0.0000E+00  0.0000E+00  0.0000E+00  0.0000E+00  0.0000E+00  0.0000E+00  0.0000E+00
    -35.749  0.0000E+00  0.0000E+00  0.0000E+00  0.0000E+00  0.0000E+00  0.0000E+00  0.0000E+00  0.0000E+00  0.0000E+00  0.0000E+00  0.0000E+00  0.0000E+00  0.0000E+00  0.0000E+00  0.0000E+00  0.0000E+00  0.0000E+00  0.0000E+00
    -35.584  0.0000E+00  0.0000E+00  0.0000E+00  0.0000E+00  0.0000E+00  0.0000E+00  0.0000E+00  0.0000E+00  0.0000E+00  0.0000E+00  0.0000E+00  0.0000E+00  0.0000E+00  0.0000E+00  0.0000E+00  0.0000E+00  0.0000E+00  0.0000E+00
    -35.420  0.0000E+00  0.0000E+00  0.0000E+00  0.0000E+00  0.0000E+00  0.0000E+00  0.0000E+00  0.0000E+00  0.0000E+00  0.0000E+00  0.0000E+00  0.0000E+00  0.0000E+00  0.0000E+00  0.0000E+00  0.0000E+00  0.0000E+00  0.0000E+00
    -35.256  0.0000E+00  0.0000E+00  0.0000E+00  0.0000E+00  0.0000E+00  0.0000E+00  0.0000E+00  0.0000E+00  0.0000E+00  0.0000E+00  0.0000E+00  0.0000E+00  0.0000E+00  0.0000E+00  0.0000E+00  0.0000E+00  0.0000E+00  0.0000E+00
    -35.091  0.0000E+00  0.0000E+00  0.0000E+00  0.0000E+00  0.0000E+00  0.0000E+00  0.0000E+00  0.0000E+00  0.0000E+00  0.0000E+00  0.0000E+00  0.0000E+00  0.0000E+00  0.0000E+00  0.0000E+00  0.0000E+00  0.0000E+00  0.0000E+00
    -34.927  0.0000E+00  0.0000E+00  0.0000E+00  0.0000E+00  0.0000E+00  0.0000E+00  0.0000E+00  0.0000E+00  0.0000E+00  0.0000E+00  0.0000E+00  0.0000E+00  0.0000E+00  0.0000E+00  0.0000E+00  0.0000E+00  0.0000E+00  0.0000E+00
    -34.763  0.0000E+00  0.0000E+00  0.0000E+00  0.0000E+00  0.0000E+00  0.0000E+00  0.0000E+00  0.0000E+00  0.0000E+00  0.0000E+00  0.0000E+00  0.0000E+00  0.0000E+00  0.0000E+00  0.0000E+00  0.0000E+00  0.0000E+00  0.0000E+00
    -34.598  0.0000E+00  0.0000E+00  0.0000E+00  0.0000E+00  0.0000E+00  0.0000E+00  0.0000E+00  0.0000E+00  0.0000E+00  0.0000E+00  0.0000E+00  0.0000E+00  0.0000E+00  0.0000E+00  0.0000E+00  0.0000E+00  0.0000E+00  0.0000E+00
    -34.434  0.0000E+00  0.0000E+00  0.0000E+00  0.0000E+00  0.0000E+00  0.0000E+00  0.0000E+00  0.0000E+00  0.0000E+00  0.0000E+00  0.0000E+00  0.0000E+00  0.0000E+00  0.0000E+00  0.0000E+00  0.0000E+00  0.0000E+00  0.0000E+00
    -34.270  0.0000E+00  0.0000E+00  0.0000E+00  0.0000E+00  0.0000E+00  0.0000E+00  0.0000E+00  0.0000E+00  0.0000E+00  0.0000E+00  0.0000E+00  0.0000E+00  0.0000E+00  0.0000E+00  0.0000E+00  0.0000E+00  0.0000E+00  0.0000E+00
    -34.105  0.0000E+00  0.0000E+00  0.0000E+00  0.0000E+00  0.0000E+00  0.0000E+00  0.0000E+00  0.0000E+00  0.0000E+00  0.0000E+00  0.0000E+00  0.0000E+00  0.0000E+00  0.0000E+00  0.0000E+00  0.0000E+00  0.0000E+00  0.0000E+00
    -33.941  0.0000E+00  0.0000E+00  0.0000E+00  0.0000E+00  0.0000E+00  0.0000E+00  0.0000E+00  0.0000E+00  0.0000E+00  0.0000E+00  0.0000E+00  0.0000E+00  0.0000E+00  0.0000E+00  0.0000E+00  0.0000E+00  0.0000E+00  0.0000E+00
    -33.777  0.0000E+00  0.0000E+00  0.0000E+00  0.0000E+00  0.0000E+00  0.0000E+00  0.0000E+00  0.0000E+00  0.0000E+00  0.0000E+00  0.0000E+00  0.0000E+00  0.0000E+00  0.0000E+00  0.0000E+00  0.0000E+00  0.0000E+00  0.0000E+00
    -33.612  0.0000E+00  0.0000E+00  0.0000E+00  0.0000E+00  0.0000E+00  0.0000E+00  0.0000E+00  0.0000E+00  0.0000E+00  0.0000E+00  0.0000E+00  0.0000E+00  0.0000E+00  0.0000E+00  0.0000E+00  0.0000E+00  0.0000E+00  0.0000E+00
    -33.448  0.0000E+00  0.0000E+00  0.0000E+00  0.0000E+00  0.0000E+00  0.0000E+00  0.0000E+00  0.0000E+00  0.0000E+00  0.0000E+00  0.0000E+00  0.0000E+00  0.0000E+00  0.0000E+00  0.0000E+00  0.0000E+00  0.0000E+00  0.0000E+00
    -33.284  0.0000E+00  0.0000E+00  0.0000E+00  0.0000E+00  0.0000E+00  0.0000E+00  0.0000E+00  0.0000E+00  0.0000E+00  0.0000E+00  0.0000E+00  0.0000E+00  0.0000E+00  0.0000E+00  0.0000E+00  0.0000E+00  0.0000E+00  0.0000E+00
    -33.119  0.0000E+00  0.0000E+00  0.0000E+00  0.0000E+00  0.0000E+00  0.0000E+00  0.0000E+00  0.0000E+00  0.0000E+00  0.0000E+00  0.0000E+00  0.0000E+00  0.0000E+00  0.0000E+00  0.0000E+00  0.0000E+00  0.0000E+00  0.0000E+00
    -32.955  0.0000E+00  0.0000E+00  0.0000E+00  0.0000E+00  0.0000E+00  0.0000E+00  0.0000E+00  0.0000E+00  0.0000E+00  0.0000E+00  0.0000E+00  0.0000E+00  0.0000E+00  0.0000E+00  0.0000E+00  0.0000E+00  0.0000E+00  0.0000E+00
    -32.791  0.0000E+00  0.0000E+00  0.0000E+00  0.0000E+00  0.0000E+00  0.0000E+00  0.0000E+00  0.0000E+00  0.0000E+00  0.0000E+00  0.0000E+00  0.0000E+00  0.0000E+00  0.0000E+00  0.0000E+00  0.0000E+00  0.0000E+00  0.0000E+00
    -32.626  0.0000E+00  0.0000E+00  0.0000E+00  0.0000E+00  0.0000E+00  0.0000E+00  0.0000E+00  0.0000E+00  0.0000E+00  0.0000E+00  0.0000E+00  0.0000E+00  0.0000E+00  0.0000E+00  0.0000E+00  0.0000E+00  0.0000E+00  0.0000E+00
    -32.462  0.0000E+00  0.0000E+00  0.0000E+00  0.0000E+00  0.0000E+00  0.0000E+00  0.0000E+00  0.0000E+00  0.0000E+00  0.0000E+00  0.0000E+00  0.0000E+00  0.0000E+00  0.0000E+00  0.0000E+00  0.0000E+00  0.0000E+00  0.0000E+00
    -32.298  0.0000E+00  0.0000E+00  0.0000E+00  0.0000E+00  0.0000E+00  0.0000E+00  0.0000E+00  0.0000E+00  0.0000E+00  0.0000E+00  0.0000E+00  0.0000E+00  0.0000E+00  0.0000E+00  0.0000E+00  0.0000E+00  0.0000E+00  0.0000E+00
    -32.133  0.0000E+00  0.0000E+00  0.0000E+00  0.0000E+00  0.0000E+00  0.0000E+00  0.0000E+00  0.0000E+00  0.0000E+00  0.0000E+00  0.0000E+00  0.0000E+00  0.0000E+00  0.0000E+00  0.0000E+00  0.0000E+00  0.0000E+00  0.0000E+00
    -31.969  0.0000E+00  0.0000E+00  0.0000E+00  0.0000E+00  0.0000E+00  0.0000E+00  0.0000E+00  0.0000E+00  0.0000E+00  0.0000E+00  0.0000E+00  0.0000E+00  0.0000E+00  0.0000E+00  0.0000E+00  0.0000E+00  0.0000E+00  0.0000E+00
    -31.805  0.0000E+00  0.0000E+00  0.0000E+00  0.0000E+00  0.0000E+00  0.0000E+00  0.0000E+00  0.0000E+00  0.0000E+00  0.0000E+00  0.0000E+00  0.0000E+00  0.0000E+00  0.0000E+00  0.0000E+00  0.0000E+00  0.0000E+00  0.0000E+00
    -31.640  0.0000E+00  0.0000E+00  0.0000E+00  0.0000E+00  0.0000E+00  0.0000E+00  0.0000E+00  0.0000E+00  0.0000E+00  0.0000E+00  0.0000E+00  0.0000E+00  0.0000E+00  0.0000E+00  0.0000E+00  0.0000E+00  0.0000E+00  0.0000E+00
    -31.476  0.0000E+00  0.0000E+00  0.0000E+00  0.0000E+00  0.0000E+00  0.0000E+00  0.0000E+00  0.0000E+00  0.0000E+00  0.0000E+00  0.0000E+00  0.0000E+00  0.0000E+00  0.0000E+00  0.0000E+00  0.0000E+00  0.0000E+00  0.0000E+00
    -31.312  0.0000E+00  0.0000E+00  0.0000E+00  0.0000E+00  0.0000E+00  0.0000E+00  0.0000E+00  0.0000E+00  0.0000E+00  0.0000E+00  0.0000E+00  0.0000E+00  0.0000E+00  0.0000E+00  0.0000E+00  0.0000E+00  0.0000E+00  0.0000E+00
    -31.147  0.0000E+00  0.0000E+00  0.0000E+00  0.0000E+00  0.0000E+00  0.0000E+00  0.0000E+00  0.0000E+00  0.0000E+00  0.0000E+00  0.0000E+00  0.0000E+00  0.0000E+00  0.0000E+00  0.0000E+00  0.0000E+00  0.0000E+00  0.0000E+00
    -30.983  0.0000E+00  0.0000E+00  0.0000E+00  0.0000E+00  0.0000E+00  0.0000E+00  0.0000E+00  0.0000E+00  0.0000E+00  0.0000E+00  0.0000E+00  0.0000E+00  0.0000E+00  0.0000E+00  0.0000E+00  0.0000E+00  0.0000E+00  0.0000E+00
    -30.819  0.0000E+00  0.0000E+00  0.0000E+00  0.0000E+00  0.0000E+00  0.0000E+00  0.0000E+00  0.0000E+00  0.0000E+00  0.0000E+00  0.0000E+00  0.0000E+00  0.0000E+00  0.0000E+00  0.0000E+00  0.0000E+00  0.0000E+00  0.0000E+00