   8   8   1   0
  0.2126304E+02  0.4370784E-09  0.4370784E-09  0.8904239E-09  0.5000000E-15
  1.000000000000000E-004
  CAR 
 unknown system                          
     12.04793310    -37.20879013  301      5.31811705      1.00000000
    -37.209  0.0000E+00  0.0000E+00  0.0000E+00  0.0000E+00
    -37.045  0.0000E+00  0.0000E+00  0.0000E+00  0.0000E+00
    -36.880  0.0000E+00  0.0000E+00  0.0000E+00  0.0000E+00
    -36.716  0.0000E+00  0.0000E+00  0.0000E+00  0.0000E+00
    -36.552  0.0000E+00  0.0000E+00  0.0000E+00  0.0000E+00
    -36.388  0.0000E+00  0.0000E+00  0.0000E+00  0.0000E+00
    -36.224  0.0000E+00  0.0000E+00  0.0000E+00  0.0000E+00
    -36.059  0.0000E+00  0.0000E+00  0.0000E+00  0.0000E+00
    -35.895  0.0000E+00  0.0000E+00  0.0000E+00  0.0000E+00
    -35.731  0.0000E+00  0.0000E+00  0.0000E+00  0.0000E+00
    -35.567  0.0000E+00  0.0000E+00  0.0000E+00  0.0000E+00
    -35.403  0.2055E-02  0.2044E-02  0.3375E-03  0.3355E-03
    -35.239  0.5254E-01  0.5224E-01  0.8963E-02  0.8913E-02
    -35.074  0.1251E+01  0.1245E+01  0.2144E+00  0.2133E+00
    -34.910  0.7977E+01  0.7971E+01  0.1524E+01  0.1522E+01
    -34.746  0.2757E+01  0.2769E+01  0.1977E+01  0.1977E+01
    -34.582  0.1356E+00  0.1363E+00  0.1999E+01  0.1999E+01
    -34.418  0.0000E+00  0.0000E+00  0.2000E+01  0.2000E+01
    -34.253  0.0000E+00  0.0000E+00  0.2000E+01  0.2000E+01
    -34.089  0.0000E+00  0.0000E+00  0.2000E+01  0.2000E+01
    -33.925  0.0000E+00  0.0000E+00  0.2000E+01  0.2000E+01
    -33.761  0.0000E+00  0.0000E+00  0.2000E+01  0.2000E+01
    -33.597  0.0000E+00  0.0000E+00  0.2000E+01  0.2000E+01
    -33.432  0.0000E+00  0.0000E+00  0.2000E+01  0.2000E+01
    -33.268  0.0000E+00  0.0000E+00  0.2000E+01  0.2000E+01
    -33.104  0.0000E+00  0.0000E+00  0.2000E+01  0.2000E+01
    -32.940  0.0000E+00  0.0000E+00  0.2000E+01  0.2000E+01
    -32.776  0.0000E+00  0.0000E+00  0.2000E+01  0.2000E+01
    -32.611  0.0000E+00  0.0000E+00  0.2000E+01  0.2000E+01
    -32.447  0.0000E+00  0.0000E+00  0.2000E+01  0.2000E+01
    -32.283  0.0000E+00  0.0000E+00  0.2000E+01  0.2000E+01
    -32.119  0.0000E+00  0.0000E+00  0.2000E+01  0.2000E+01
    -31.955  0.0000E+00  0.0000E+00  0.2000E+01  0.2000E+01
    -31.791  0.0000E+00  0.0000E+00  0.2000E+01  0.2000E+01
    -31.626  0.0000E+00  0.0000E+00  0.2000E+01  0.2000E+01
    -31.462  0.0000E+00  0.0000E+00  0.2000E+01  0.2000E+01
    -31.298  0.0000E+00  0.0000E+00  0.2000E+01  0.2000E+01
    -31.134  0.0000E+00  0.0000E+00  0.2000E+01  0.2000E+01
    -30.970  0.0000E+00  0.0000E+00  0.2000E+01  0.2000E+01
    -30.805  0.0000E+00  0.0000E+00  0.2000E+01  0.2000E+01
    -30.641  0.0000E+00  0.0000E+00  0.2000E+01  0.2000E+01
    -30.477  0.0000E+00  0.0000E+00  0.2000E+01  0.2000E+01
    -30.313  0.0000E+00  0.0000E+00  0.2000E+01  0.2000E+01
    -30.149  0.0000E+00  0.0000E+00  0.2000E+01  0.2000E+01
    -29.984  0.0000E+00  0.0000E+00  0.2000E+01  0.2000E+01
    -29.820  0.0000E+00  0.0000E+00  0.2000E+01  0.2000E+01
    -29.656  0.0000E+00  0.0000E+00  0.2000E+01  0.2000E+01
    -29.492  0.0000E+00  0.0000E+00  0.2000E+01  0.2000E+01
    -29.328  0.0000E+00  0.0000E+00  0.2000E+01  0.2000E+01
    -29.164  0.0000E+00  0.0000E+00  0.2000E+01  0.2000E+01
    -28.999  0.0000E+00  0.0000E+00  0.2000E+01  0.2000E+01
    -28.835  0.0000E+00  0.0000E+00  0.2000E+01  0.2000E+01
    -28.671  0.0000E+00  0.0000E+00  0.2000E+01  0.2000E+01
    -28.507  0.0000E+00  0.0000E+00  0.2000E+01  0.2000E+01
    -28.343  0.0000E+00  0.0000E+00  0.2000E+01  0.2000E+01
    -28.178  0.0000E+00  0.0000E+00  0.2000E+01  0.2000E+01
    -28.014  0.0000E+00  0.0000E+00  0.2000E+01  0.2000E+01
    -27.850  0.0000E+00  0.0000E+00  0.2000E+01  0.2000E+01
    -27.686  0.0000E+00  0.0000E+00  0.2000E+01  0.2000E+01
    -27.522  0.0000E+00  0.0000E+00  0.2000E+01  0.2000E+01
    -27.357  0.0000E+00  0.0000E+00  0.2000E+01  0.2000E+01
    -27.193  0.0000E+00  0.0000E+00  0.2000E+01  0.2000E+01
    -27.029  0.0000E+00  0.0000E+00  0.2000E+01  0.2000E+01
    -26.865  0.0000E+00  0.0000E+00  0.2000E+01  0.2000E+01
    -26.701  0.0000E+00  0.0000E+00  0.2000E+01  0.2000E+01
    -26.537  0.0000E+00  0.0000E+00  0.2000E+01  0.2000E+01
    -26.372  0.0000E+00  0.0000E+00  0.2000E+01  0.2000E+01
    -26.208  0.0000E+00  0.0000E+00  0.2000E+01  0.2000E+01
    -26.044  0.0000E+00  0.0000E+00  0.2000E+01  0.2000E+01
    -25.880  0.0000E+00  0.0000E+00  0.2000E+01  0.2000E+01
    -25.716  0.0000E+00  0.0000E+00  0.2000E+01  0.2000E+01
    -25.551  0.0000E+00  0.0000E+00  0.2000E+01  0.2000E+01
    -25.387  0.0000E+00  0.0000E+00  0.2000E+01  0.2000E+01
    -25.223  0.0000E+00  0.0000E+00  0.2000E+01  0.2000E+01
    -25.059  0.0000E+00  0.0000E+00  0.2000E+01  0.2000E+01
    -24.895  0.0000E+00  0.0000E+00  0.2000E+01  0.2000E+01
    -24.730  0.0000E+00  0.0000E+00  0.2000E+01  0.2000E+01
    -24.566  0.0000E+00  0.0000E+00  0.2000E+01  0.2000E+01
    -24.402  0.0000E+00  0.0000E+00  0.2000E+01  0.2000E+01
    -24.238  0.0000E+00  0.0000E+00  0.2000E+01  0.2000E+01
    -24.074  0.0000E+00  0.0000E+00  0.2000E+01  0.2000E+01
    -23.909  0.0000E+00  0.0000E+00  0.2000E+01  0.2000E+01
    -23.745  0.0000E+00  0.0000E+00  0.2000E+01  0.2000E+01
    -23.581  0.0000E+00  0.0000E+00  0.2000E+01  0.2000E+01
    -23.417  0.0000E+00  0.0000E+00  0.2000E+01  0.2000E+01
    -23.253  0.0000E+00  0.0000E+00  0.2000E+01  0.2000E+01
    -23.089  0.0000E+00  0.0000E+00  0.2000E+01  0.2000E+01
    -22.924  0.0000E+00  0.0000E+00  0.2000E+01  0.2000E+01
    -22.760  0.0000E+00  0.0000E+00  0.2000E+01  0.2000E+01
    -22.596  0.0000E+00  0.0000E+00  0.2000E+01  0.2000E+01
    -22.432  0.0000E+00  0.0000E+00  0.2000E+01  0.2000E+01
    -22.268  0.0000E+00  0.0000E+00  0.2000E+01  0.2000E+01
    -22.103  0.0000E+00  0.0000E+00  0.2000E+01  0.2000E+01
    -21.939  0.0000E+00  0.0000E+00  0.2000E+01  0.2000E+01
    -21.775  0.0000E+00  0.0000E+00  0.2000E+01  0.2000E+01
    -21.611  0.0000E+00  0.0000E+00  0.2000E+01  0.2000E+01
    -21.447  0.0000E+00  0.0000E+00  0.2000E+01  0.2000E+01
    -21.282  0.0000E+00  0.0000E+00  0.2000E+01  0.2000E+01
    -21.118  0.0000E+00  0.0000E+00  0.2000E+01  0.2000E+01
    -20.954  0.0000E+00  0.0000E+00  0.2000E+01  0.2000E+01
    -20.790  0.0000E+00  0.0000E+00  0.2000E+01  0.2000E+01
    -20.626  0.0000E+00  0.0000E+00  0.2000E+01  0.2000E+01
    -20.462  0.0000E+00  0.0000E+00  0.2000E+01  0.2000E+01
    -20.297  0.0000E+00  0.0000E+00  0.2000E+01  0.2000E+01
    -20.133  0.0000E+00  0.0000E+00  0.2000E+01  0.2000E+01
    -19.969  0.0000E+00  0.0000E+00  0.2000E+01  0.2000E+01
    -19.805  0.0000E+00  0.0000E+00  0.2000E+01  0.2000E+01
    -19.641  0.0000E+00  0.0000E+00  0.2000E+01  0.2000E+01
    -19.476  0.0000E+00  0.0000E+00  0.2000E+01  0.2000E+01
    -19.312  0.0000E+00  0.0000E+00  0.2000E+01  0.2000E+01
    -19.148  0.0000E+00  0.0000E+00  0.2000E+01  0.2000E+01
    -18.984  0.0000E+00  0.0000E+00  0.2000E+01  0.2000E+01
    -18.820  0.0000E+00  0.0000E+00  0.2000E+01  0.2000E+01
    -18.655  0.0000E+00  0.0000E+00  0.2000E+01  0.2000E+01
    -18.491  0.0000E+00  0.0000E+00  0.2000E+01  0.2000E+01
    -18.327  0.0000E+00  0.0000E+00  0.2000E+01  0.2000E+01
    -18.163  0.0000E+00  0.0000E+00  0.2000E+01  0.2000E+01
    -17.999  0.0000E+00  0.0000E+00  0.2000E+01  0.2000E+01
    -17.834  0.0000E+00  0.0000E+00  0.2000E+01  0.2000E+01
    -17.670  0.0000E+00  0.0000E+00  0.2000E+01  0.2000E+01
    -17.506  0.0000E+00  0.0000E+00  0.2000E+01  0.2000E+01
    -17.342  0.0000E+00  0.0000E+00  0.2000E+01  0.2000E+01
    -17.178  0.0000E+00  0.0000E+00  0.2000E+01  0.2000E+01
    -17.014  0.0000E+00  0.0000E+00  0.2000E+01  0.2000E+01
    -16.849  0.0000E+00  0.0000E+00  0.2000E+01  0.2000E+01
    -16.685  0.2053E-05  0.1771E-05  0.2000E+01  0.2000E+01
    -16.521  0.6184E-02  0.6121E-02  0.2001E+01  0.2001E+01
    -16.357  0.1579E+00  0.1563E+00  0.2027E+01  0.2027E+01
    -16.193  0.3677E+01  0.3645E+01  0.2631E+01  0.2625E+01
    -16.028  0.2280E+02  0.2277E+02  0.6374E+01  0.6363E+01
    -15.864  0.9372E+01  0.9432E+01  0.7913E+01  0.7912E+01
    -15.700  0.4289E+00  0.4326E+00  0.7997E+01  0.7997E+01
    -15.536  0.0000E+00  0.0000E+00  0.8000E+01  0.8000E+01
    -15.372  0.0000E+00  0.0000E+00  0.8000E+01  0.8000E+01
    -15.207  0.0000E+00  0.0000E+00  0.8000E+01  0.8000E+01
    -15.043  0.0000E+00  0.0000E+00  0.8000E+01  0.8000E+01
    -14.879  0.0000E+00  0.0000E+00  0.8000E+01  0.8000E+01
    -14.715  0.0000E+00  0.0000E+00  0.8000E+01  0.8000E+01
    -14.551  0.0000E+00  0.0000E+00  0.8000E+01  0.8000E+01
    -14.387  0.0000E+00  0.0000E+00  0.8000E+01  0.8000E+01
    -14.222  0.0000E+00  0.0000E+00  0.8000E+01  0.8000E+01
    -14.058  0.0000E+00  0.0000E+00  0.8000E+01  0.8000E+01
    -13.894  0.0000E+00  0.0000E+00  0.8000E+01  0.8000E+01
    -13.730  0.0000E+00  0.0000E+00  0.8000E+01  0.8000E+01
    -13.566  0.0000E+00  0.0000E+00  0.8000E+01  0.8000E+01
    -13.401  0.0000E+00  0.0000E+00  0.8000E+01  0.8000E+01
    -13.237  0.0000E+00  0.0000E+00  0.8000E+01  0.8000E+01
    -13.073  0.0000E+00  0.0000E+00  0.8000E+01  0.8000E+01
    -12.909  0.0000E+00  0.0000E+00  0.8000E+01  0.8000E+01
    -12.745  0.0000E+00  0.0000E+00  0.8000E+01  0.8000E+01
    -12.580  0.0000E+00  0.0000E+00  0.8000E+01  0.8000E+01
    -12.416  0.0000E+00  0.0000E+00  0.8000E+01  0.8000E+01
    -12.252  0.0000E+00  0.0000E+00  0.8000E+01  0.8000E+01
    -12.088  0.0000E+00  0.0000E+00  0.8000E+01  0.8000E+01
    -11.924  0.0000E+00  0.0000E+00  0.8000E+01  0.8000E+01
    -11.759  0.0000E+00  0.0000E+00  0.8000E+01  0.8000E+01
    -11.595  0.0000E+00  0.0000E+00  0.8000E+01  0.8000E+01
    -11.431  0.0000E+00  0.0000E+00  0.8000E+01  0.8000E+01
    -11.267  0.0000E+00  0.0000E+00  0.8000E+01  0.8000E+01
    -11.103  0.0000E+00  0.0000E+00  0.8000E+01  0.8000E+01
    -10.939  0.0000E+00  0.0000E+00  0.8000E+01  0.8000E+01
    -10.774  0.0000E+00  0.0000E+00  0.8000E+01  0.8000E+01
    -10.610  0.0000E+00  0.0000E+00  0.8000E+01  0.8000E+01
    -10.446  0.0000E+00  0.0000E+00  0.8000E+01  0.8000E+01
    -10.282  0.0000E+00  0.0000E+00  0.8000E+01  0.8000E+01
    -10.118  0.0000E+00  0.0000E+00  0.8000E+01  0.8000E+01
     -9.953  0.0000E+00  0.0000E+00  0.8000E+01  0.8000E+01
     -9.789  0.0000E+00  0.0000E+00  0.8000E+01  0.8000E+01
     -9.625  0.0000E+00  0.0000E+00  0.8000E+01  0.8000E+01
     -9.461  0.0000E+00  0.0000E+00  0.8000E+01  0.8000E+01
     -9.297  0.0000E+00  0.0000E+00  0.8000E+01  0.8000E+01
     -9.132  0.0000E+00  0.0000E+00  0.8000E+01  0.8000E+01
     -8.968  0.0000E+00  0.0000E+00  0.8000E+01  0.8000E+01
     -8.804  0.0000E+00  0.0000E+00  0.8000E+01  0.8000E+01
     -8.640  0.0000E+00  0.0000E+00  0.8000E+01  0.8000E+01
     -8.476  0.0000E+00  0.0000E+00  0.8000E+01  0.8000E+01
     -8.312  0.0000E+00  0.0000E+00  0.8000E+01  0.8000E+01
     -8.147  0.0000E+00  0.0000E+00  0.8000E+01  0.8000E+01
     -7.983  0.0000E+00  0.0000E+00  0.8000E+01  0.8000E+01
     -7.819  0.0000E+00  0.0000E+00  0.8000E+01  0.8000E+01
     -7.655  0.0000E+00  0.0000E+00  0.8000E+01  0.8000E+01
     -7.491  0.0000E+00  0.0000E+00  0.8000E+01  0.8000E+01
     -7.326  0.0000E+00  0.0000E+00  0.8000E+01  0.8000E+01
     -7.162  0.0000E+00  0.0000E+00  0.8000E+01  0.8000E+01
     -6.998  0.0000E+00  0.0000E+00  0.8000E+01  0.8000E+01
     -6.834  0.0000E+00  0.0000E+00  0.8000E+01  0.8000E+01
     -6.670  0.0000E+00  0.0000E+00  0.8000E+01  0.8000E+01
     -6.505  0.0000E+00  0.0000E+00  0.8000E+01  0.8000E+01
     -6.341  0.0000E+00  0.0000E+00  0.8000E+01  0.8000E+01
     -6.177  0.0000E+00  0.0000E+00  0.8000E+01  0.8000E+01
     -6.013  0.0000E+00  0.0000E+00  0.8000E+01  0.8000E+01
     -5.849  0.0000E+00  0.0000E+00  0.8000E+01  0.8000E+01
     -5.684  0.0000E+00  0.0000E+00  0.8000E+01  0.8000E+01
     -5.520  0.0000E+00  0.0000E+00  0.8000E+01  0.8000E+01
     -5.356  0.0000E+00  0.0000E+00  0.8000E+01  0.8000E+01
     -5.192  0.0000E+00  0.0000E+00  0.8000E+01  0.8000E+01
     -5.028  0.0000E+00  0.0000E+00  0.8000E+01  0.8000E+01
     -4.864  0.0000E+00  0.0000E+00  0.8000E+01  0.8000E+01
     -4.699  0.0000E+00  0.0000E+00  0.8000E+01  0.8000E+01
     -4.535  0.0000E+00  0.0000E+00  0.8000E+01  0.8000E+01
     -4.371  0.0000E+00  0.0000E+00  0.8000E+01  0.8000E+01
     -4.207  0.0000E+00  0.0000E+00  0.8000E+01  0.8000E+01
     -4.043  0.0000E+00  0.0000E+00  0.8000E+01  0.8000E+01
     -3.878  0.0000E+00  0.0000E+00  0.8000E+01  0.8000E+01
     -3.714  0.4720E-05  0.4523E-05  0.8000E+01  0.8000E+01
     -3.550  0.1464E-03  0.1403E-03  0.8000E+01  0.8000E+01
     -3.386  0.3735E-02  0.3586E-02  0.8001E+01  0.8001E+01
     -3.222  0.5534E-01  0.5393E-01  0.8010E+01  0.8009E+01
     -3.057  0.1962E+00  0.1943E+00  0.8042E+01  0.8041E+01
     -2.893  0.3039E+00  0.3028E+00  0.8092E+01  0.8091E+01
     -2.729  0.3992E+00  0.3981E+00  0.8157E+01  0.8157E+01
     -2.565  0.4528E+00  0.4523E+00  0.8232E+01  0.8231E+01
     -2.401  0.5466E+00  0.5452E+00  0.8322E+01  0.8321E+01
     -2.237  0.5882E+00  0.5879E+00  0.8419E+01  0.8417E+01
     -2.072  0.6483E+00  0.6467E+00  0.8525E+01  0.8524E+01
     -1.908  0.7512E+00  0.7501E+00  0.8649E+01  0.8647E+01
     -1.744  0.7967E+00  0.7966E+00  0.8780E+01  0.8778E+01
     -1.580  0.8490E+00  0.8468E+00  0.8920E+01  0.8918E+01
     -1.416  0.9483E+00  0.9491E+00  0.9075E+01  0.9074E+01
     -1.251  0.9175E+00  0.9170E+00  0.9226E+01  0.9224E+01
     -1.087  0.9527E+00  0.9527E+00  0.9383E+01  0.9381E+01
     -0.923  0.1035E+01  0.1034E+01  0.9553E+01  0.9551E+01
     -0.759  0.8195E+00  0.8223E+00  0.9688E+01  0.9687E+01
     -0.595  0.8996E+00  0.8965E+00  0.9836E+01  0.9834E+01
     -0.430  0.1173E+01  0.1170E+01  0.1003E+02  0.1003E+02
     -0.266  0.1219E+01  0.1219E+01  0.1023E+02  0.1023E+02
     -0.102  0.1296E+01  0.1297E+01  0.1044E+02  0.1044E+02
      0.062  0.1166E+01  0.1166E+01  0.1063E+02  0.1063E+02
      0.226  0.1179E+01  0.1181E+01  0.1083E+02  0.1083E+02
      0.391  0.8947E+00  0.8954E+00  0.1098E+02  0.1097E+02
      0.555  0.9887E+00  0.9885E+00  0.1114E+02  0.1114E+02
      0.719  0.1113E+01  0.1109E+01  0.1132E+02  0.1132E+02
      0.883  0.1373E+01  0.1372E+01  0.1155E+02  0.1154E+02
      1.047  0.1382E+01  0.1383E+01  0.1178E+02  0.1177E+02
      1.211  0.1372E+01  0.1369E+01  0.1200E+02  0.1200E+02
      1.376  0.1578E+01  0.1581E+01  0.1226E+02  0.1226E+02
      1.540  0.1150E+01  0.1152E+01  0.1245E+02  0.1245E+02
      1.704  0.1316E+01  0.1314E+01  0.1267E+02  0.1266E+02
      1.868  0.1192E+01  0.1197E+01  0.1286E+02  0.1286E+02
      2.032  0.8939E+00  0.8932E+00  0.1301E+02  0.1301E+02
      2.197  0.1321E+01  0.1314E+01  0.1323E+02  0.1322E+02
      2.361  0.1313E+01  0.1318E+01  0.1344E+02  0.1344E+02
      2.525  0.1195E+01  0.1194E+01  0.1364E+02  0.1364E+02
      2.689  0.1222E+01  0.1220E+01  0.1384E+02  0.1384E+02
      2.853  0.1504E+01  0.1500E+01  0.1409E+02  0.1409E+02
      3.018  0.1724E+01  0.1724E+01  0.1437E+02  0.1437E+02
      3.182  0.1622E+01  0.1619E+01  0.1464E+02  0.1464E+02
      3.346  0.1830E+01  0.1830E+01  0.1494E+02  0.1494E+02
      3.510  0.1747E+01  0.1749E+01  0.1523E+02  0.1523E+02
      3.674  0.1769E+01  0.1769E+01  0.1552E+02  0.1552E+02
      3.838  0.1732E+01  0.1731E+01  0.1581E+02  0.1580E+02
      4.003  0.1972E+01  0.1970E+01  0.1613E+02  0.1613E+02
      4.167  0.2189E+01  0.2185E+01  0.1649E+02  0.1648E+02
      4.331  0.2264E+01  0.2266E+01  0.1686E+02  0.1686E+02
      4.495  0.2310E+01  0.2308E+01  0.1724E+02  0.1724E+02
      4.659  0.2521E+01  0.2519E+01  0.1766E+02  0.1765E+02
      4.824  0.2185E+01  0.2191E+01  0.1802E+02  0.1801E+02
      4.988  0.2112E+01  0.2112E+01  0.1837E+02  0.1836E+02
      5.152  0.1828E+01  0.1829E+01  0.1867E+02  0.1866E+02
      5.316  0.2016E+01  0.2014E+01  0.1900E+02  0.1899E+02
      5.480  0.1968E+01  0.1968E+01  0.1932E+02  0.1932E+02
      5.645  0.2199E+01  0.2196E+01  0.1968E+02  0.1968E+02
      5.809  0.2009E+01  0.2016E+01  0.2001E+02  0.2001E+02
      5.973  0.1940E+01  0.1932E+01  0.2033E+02  0.2033E+02
      6.137  0.2249E+01  0.2252E+01  0.2070E+02  0.2070E+02
      6.301  0.1791E+01  0.1797E+01  0.2100E+02  0.2100E+02
      6.466  0.1572E+01  0.1572E+01  0.2126E+02  0.2126E+02
      6.630  0.1670E+01  0.1668E+01  0.2153E+02  0.2153E+02
      6.794  0.1550E+01  0.1553E+01  0.2179E+02  0.2179E+02
      6.958  0.1444E+01  0.1442E+01  0.2203E+02  0.2202E+02
      7.122  0.1900E+01  0.1894E+01  0.2234E+02  0.2233E+02
      7.286  0.2095E+01  0.2092E+01  0.2268E+02  0.2268E+02
      7.451  0.2364E+01  0.2363E+01  0.2307E+02  0.2307E+02
      7.615  0.2463E+01  0.2455E+01  0.2348E+02  0.2347E+02
      7.779  0.3114E+01  0.3106E+01  0.2399E+02  0.2398E+02
      7.943  0.3126E+01  0.3130E+01  0.2450E+02  0.2450E+02
      8.107  0.3352E+01  0.3349E+01  0.2506E+02  0.2505E+02
      8.272  0.3036E+01  0.3009E+01  0.2556E+02  0.2554E+02
      8.436  0.2874E+01  0.2884E+01  0.2603E+02  0.2602E+02
      8.600  0.2758E+01  0.2772E+01  0.2648E+02  0.2648E+02
      8.764  0.2471E+01  0.2494E+01  0.2689E+02  0.2689E+02
      8.928  0.1911E+01  0.1847E+01  0.2721E+02  0.2719E+02
      9.093  0.1468E+01  0.1411E+01  0.2745E+02  0.2742E+02
      9.257  0.1130E+01  0.1242E+01  0.2763E+02  0.2763E+02
      9.421  0.8220E+00  0.8329E+00  0.2777E+02  0.2777E+02
      9.585  0.7758E+00  0.7397E+00  0.2790E+02  0.2789E+02
      9.749  0.4917E+00  0.5077E+00  0.2798E+02  0.2797E+02
      9.913  0.1193E+00  0.1548E+00  0.2800E+02  0.2800E+02
     10.078  0.6188E-02  0.1304E-01  0.2800E+02  0.2800E+02
     10.242  0.0000E+00  0.0000E+00  0.2800E+02  0.2800E+02
     10.406  0.0000E+00  0.0000E+00  0.2800E+02  0.2800E+02
     10.570  0.0000E+00  0.0000E+00  0.2800E+02  0.2800E+02
     10.734  0.0000E+00  0.0000E+00  0.2800E+02  0.2800E+02
     10.899  0.0000E+00  0.0000E+00  0.2800E+02  0.2800E+02
     11.063  0.0000E+00  0.0000E+00  0.2800E+02  0.2800E+02
     11.227  0.0000E+00  0.0000E+00  0.2800E+02  0.2800E+02
     11.391  0.0000E+00  0.0000E+00  0.2800E+02  0.2800E+02
     11.555  0.0000E+00  0.0000E+00  0.2800E+02  0.2800E+02
     11.720  0.0000E+00  0.0000E+00  0.2800E+02  0.2800E+02
     11.884  0.0000E+00  0.0000E+00  0.2800E+02  0.2800E+02
     12.048  0.0000E+00  0.0000E+00  0.2800E+02  0.2800E+02
     12.04793310    -37.20879013  301      5.31811705      1.00000000
    -37.209  0.0000E+00  0.0000E+00  0.0000E+00  0.0000E+00  0.0000E+00  0.0000E+00  0.0000E+00  0.0000E+00  0.0000E+00  0.0000E+00  0.0000E+00  0.0000E+00  0.0000E+00  0.0000E+00  0.0000E+00  0.0000E+00  0.0000E+00  0.0000E+00
    -37.045  0.0000E+00  0.0000E+00  0.0000E+00  0.0000E+00  0.0000E+00  0.0000E+00  0.0000E+00  0.0000E+00  0.0000E+00  0.0000E+00  0.0000E+00  0.0000E+00  0.0000E+00  0.0000E+00  0.0000E+00  0.0000E+00  0.0000E+00  0.0000E+00
    -36.880  0.0000E+00  0.0000E+00  0.0000E+00  0.0000E+00  0.0000E+00  0.0000E+00  0.0000E+00  0.0000E+00  0.0000E+00  0.0000E+00  0.0000E+00  0.0000E+00  0.0000E+00  0.0000E+00  0.0000E+00  0.0000E+00  0.0000E+00  0.0000E+00
    -36.716  0.0000E+00  0.0000E+00  0.0000E+00  0.0000E+00  0.0000E+00  0.0000E+00  0.0000E+00  0.0000E+00  0.0000E+00  0.0000E+00  0.0000E+00  0.0000E+00  0.0000E+00  0.0000E+00  0.0000E+00  0.0000E+00  0.0000E+00  0.0000E+00
    -36.552  0.0000E+00  0.0000E+00  0.0000E+00  0.0000E+00  0.0000E+00  0.0000E+00  0.0000E+00  0.0000E+00  0.0000E+00  0.0000E+00  0.0000E+00  0.0000E+00  0.0000E+00  0.0000E+00  0.0000E+00  0.0000E+00  0.0000E+00  0.0000E+00
    -36.388  0.0000E+00  0.0000E+00  0.0000E+00  0.0000E+00  0.0000E+00  0.0000E+00  0.0000E+00  0.0000E+00  0.0000E+00  0.0000E+00  0.0000E+00  0.0000E+00  0.0000E+00  0.0000E+00  0.0000E+00  0.0000E+00  0.0000E+00  0.0000E+00
    -36.224  0.0000E+00  0.0000E+00  0.0000E+00  0.0000E+00  0.0000E+00  0.0000E+00  0.0000E+00  0.0000E+00  0.0000E+00  0.0000E+00  0.0000E+00  0.0000E+00  0.0000E+00  0.0000E+00  0.0000E+00  0.0000E+00  0.0000E+00  0.0000E+00
    -36.059  0.0000E+00  0.0000E+00  0.0000E+00  0.0000E+00  0.0000E+00  0.0000E+00  0.0000E+00  0.0000E+00  0.0000E+00  0.0000E+00  0.0000E+00  0.0000E+00  0.0000E+00  0.0000E+00  0.0000E+00  0.0000E+00  0.0000E+00  0.0000E+00
    -35.895  0.0000E+00  0.0000E+00  0.0000E+00  0.0000E+00  0.0000E+00  0.0000E+00  0.0000E+00  0.0000E+00  0.0000E+00  0.0000E+00  0.0000E+00  0.0000E+00  0.0000E+00  0.0000E+00  0.0000E+00  0.0000E+00  0.0000E+00  0.0000E+00
    -35.731  0.0000E+00  0.0000E+00  0.0000E+00  0.0000E+00  0.0000E+00  0.0000E+00  0.0000E+00  0.0000E+00  0.0000E+00  0.0000E+00  0.0000E+00  0.0000E+00  0.0000E+00  0.0000E+00  0.0000E+00  0.0000E+00  0.0000E+00  0.0000E+00
    -35.567  0.0000E+00  0.0000E+00  0.0000E+00  0.0000E+00  0.0000E+00  0.0000E+00  0.0000E+00  0.0000E+00  0.0000E+00  0.0000E+00  0.0000E+00  0.0000E+00  0.0000E+00  0.0000E+00  0.0000E+00  0.0000E+00  0.0000E+00  0.0000E+00
    -35.403  0.1012E-02  0.1007E-02  0.2558E-11  0.2588E-11  0.3340E-13  0.4153E-13  0.2558E-11  0.2588E-11  0.2715E-14  0.2396E-14  0.1808E-14  0.2597E-14  0.5026E-09  0.5006E-09  0.1808E-14  0.2597E-14  0.1655E-11  0.1621E-11
    -35.239  0.2588E-01  0.2573E-01  0.6539E-10  0.6615E-10  0.8537E-12  0.1061E-11  0.6539E-10  0.6615E-10  0.6940E-13  0.6124E-13  0.4621E-13  0.6639E-13  0.1285E-07  0.1280E-07  0.4621E-13  0.6639E-13  0.4231E-10  0.4143E-10
    -35.074  0.6164E+00  0.6133E+00  0.1558E-08  0.1577E-08  0.2031E-10  0.2528E-10  0.1558E-08  0.1577E-08  0.1653E-11  0.1460E-11  0.1101E-11  0.1583E-11  0.3060E-06  0.3050E-06  0.1101E-11  0.1583E-11  0.1008E-08  0.9875E-09
    -34.910  0.3929E+01  0.3927E+01  0.9927E-08  0.1009E-07  0.1283E-09  0.1607E-09  0.9927E-08  0.1009E-07  0.1054E-10  0.9368E-11  0.7024E-11  0.1018E-10  0.1952E-05  0.1953E-05  0.7024E-11  0.1018E-10  0.6425E-08  0.6322E-08
    -34.746  0.1358E+01  0.1364E+01  0.3431E-08  0.3505E-08  0.4391E-10  0.5541E-10  0.3431E-08  0.3505E-08  0.3641E-11  0.3262E-11  0.2430E-11  0.3552E-11  0.6749E-06  0.6789E-06  0.2430E-11  0.3552E-11  0.2221E-08  0.2196E-08
    -34.582  0.6678E-01  0.6716E-01  0.1687E-09  0.1725E-09  0.2153E-11  0.2722E-11  0.1687E-09  0.1725E-09  0.1790E-12  0.1607E-12  0.1195E-12  0.1751E-12  0.3319E-07  0.3343E-07  0.1195E-12  0.1751E-12  0.1092E-09  0.1081E-09
    -34.418  0.0000E+00  0.0000E+00  0.0000E+00  0.0000E+00  0.0000E+00  0.0000E+00  0.0000E+00  0.0000E+00  0.0000E+00  0.0000E+00  0.0000E+00  0.0000E+00  0.0000E+00  0.0000E+00  0.0000E+00  0.0000E+00  0.0000E+00  0.0000E+00
    -34.253  0.0000E+00  0.0000E+00  0.0000E+00  0.0000E+00  0.0000E+00  0.0000E+00  0.0000E+00  0.0000E+00  0.0000E+00  0.0000E+00  0.0000E+00  0.0000E+00  0.0000E+00  0.0000E+00  0.0000E+00  0.0000E+00  0.0000E+00  0.0000E+00
    -34.089  0.0000E+00  0.0000E+00  0.0000E+00  0.0000E+00  0.0000E+00  0.0000E+00  0.0000E+00  0.0000E+00  0.0000E+00  0.0000E+00  0.0000E+00  0.0000E+00  0.0000E+00  0.0000E+00  0.0000E+00  0.0000E+00  0.0000E+00  0.0000E+00
    -33.925  0.0000E+00  0.0000E+00  0.0000E+00  0.0000E+00  0.0000E+00  0.0000E+00  0.0000E+00  0.0000E+00  0.0000E+00  0.0000E+00  0.0000E+00  0.0000E+00  0.0000E+00  0.0000E+00  0.0000E+00  0.0000E+00  0.0000E+00  0.0000E+00
    -33.761  0.0000E+00  0.0000E+00  0.0000E+00  0.0000E+00  0.0000E+00  0.0000E+00  0.0000E+00  0.0000E+00  0.0000E+00  0.0000E+00  0.0000E+00  0.0000E+00  0.0000E+00  0.0000E+00  0.0000E+00  0.0000E+00  0.0000E+00  0.0000E+00
    -33.597  0.0000E+00  0.0000E+00  0.0000E+00  0.0000E+00  0.0000E+00  0.0000E+00  0.0000E+00  0.0000E+00  0.0000E+00  0.0000E+00  0.0000E+00  0.0000E+00  0.0000E+00  0.0000E+00  0.0000E+00  0.0000E+00  0.0000E+00  0.0000E+00
    -33.432  0.0000E+00  0.0000E+00  0.0000E+00  0.0000E+00  0.0000E+00  0.0000E+00  0.0000E+00  0.0000E+00  0.0000E+00  0.0000E+00  0.0000E+00  0.0000E+00  0.0000E+00  0.0000E+00  0.0000E+00  0.0000E+00  0.0000E+00  0.0000E+00
    -33.268  0.0000E+00  0.0000E+00  0.0000E+00  0.0000E+00  0.0000E+00  0.0000E+00  0.0000E+00  0.0000E+00  0.0000E+00  0.0000E+00  0.0000E+00  0.0000E+00  0.0000E+00  0.0000E+00  0.0000E+00  0.0000E+00  0.0000E+00  0.0000E+00
    -33.104  0.0000E+00  0.0000E+00  0.0000E+00  0.0000E+00  0.0000E+00  0.0000E+00  0.0000E+00  0.0000E+00  0.0000E+00  0.0000E+00  0.0000E+00  0.0000E+00  0.0000E+00  0.0000E+00  0.0000E+00  0.0000E+00  0.0000E+00  0.0000E+00
    -32.940  0.0000E+00  0.0000E+00  0.0000E+00  0.0000E+00  0.0000E+00  0.0000E+00  0.0000E+00  0.0000E+00  0.0000E+00  0.0000E+00  0.0000E+00  0.0000E+00  0.0000E+00  0.0000E+00  0.0000E+00  0.0000E+00  0.0000E+00  0.0000E+00
    -32.776  0.0000E+00  0.0000E+00  0.0000E+00  0.0000E+00  0.0000E+00  0.0000E+00  0.0000E+00  0.0000E+00  0.0000E+00  0.0000E+00  0.0000E+00  0.0000E+00  0.0000E+00  0.0000E+00  0.0000E+00  0.0000E+00  0.0000E+00  0.0000E+00
    -32.611  0.0000E+00  0.0000E+00  0.0000E+00  0.0000E+00  0.0000E+00  0.0000E+00  0.0000E+00  0.0000E+00  0.0000E+00  0.0000E+00  0.0000E+00  0.0000E+00  0.0000E+00  0.0000E+00  0.0000E+00  0.0000E+00  0.0000E+00  0.0000E+00
    -32.447  0.0000E+00  0.0000E+00  0.0000E+00  0.0000E+00  0.0000E+00  0.0000E+00  0.0000E+00  0.0000E+00  0.0000E+00  0.0000E+00  0.0000E+00  0.0000E+00  0.0000E+00  0.0000E+00  0.0000E+00  0.0000E+00  0.0000E+00  0.0000E+00
    -32.283  0.0000E+00  0.0000E+00  0.0000E+00  0.0000E+00  0.0000E+00  0.0000E+00  0.0000E+00  0.0000E+00  0.0000E+00  0.0000E+00  0.0000E+00  0.0000E+00  0.0000E+00  0.0000E+00  0.0000E+00  0.0000E+00  0.0000E+00  0.0000E+00
    -32.119  0.0000E+00  0.0000E+00  0.0000E+00  0.0000E+00  0.0000E+00  0.0000E+00  0.0000E+00  0.0000E+00  0.0000E+00  0.0000E+00  0.0000E+00  0.0000E+00  0.0000E+00  0.0000E+00  0.0000E+00  0.0000E+00  0.0000E+00  0.0000E+00
    -31.955  0.0000E+00  0.0000E+00  0.0000E+00  0.0000E+00  0.0000E+00  0.0000E+00  0.0000E+00  0.0000E+00  0.0000E+00  0.0000E+00  0.0000E+00  0.0000E+00  0.0000E+00  0.0000E+00  0.0000E+00  0.0000E+00  0.0000E+00  0.0000E+00
    -31.791  0.0000E+00  0.0000E+00  0.0000E+00  0.0000E+00  0.0000E+00  0.0000E+00  0.0000E+00  0.0000E+00  0.0000E+00  0.0000E+00  0.0000E+00  0.0000E+00  0.0000E+00  0.0000E+00  0.0000E+00  0.0000E+00  0.0000E+00  0.0000E+00
    -31.626  0.0000E+00  0.0000E+00  0.0000E+00  0.0000E+00  0.0000E+00  0.0000E+00  0.0000E+00  0.0000E+00  0.0000E+00  0.0000E+00  0.0000E+00  0.0000E+00  0.0000E+00  0.0000E+00  0.0000E+00  0.0000E+00  0.0000E+00  0.0000E+00
    -31.462  0.0000E+00  0.0000E+00  0.0000E+00  0.0000E+00  0.0000E+00  0.0000E+00  0.0000E+00  0.0000E+00  0.0000E+00  0.0000E+00  0.0000E+00  0.0000E+00  0.0000E+00  0.0000E+00  0.0000E+00  0.0000E+00  0.0000E+00  0.0000E+00
    -31.298  0.0000E+00  0.0000E+00  0.0000E+00  0.0000E+00  0.0000E+00  0.0000E+00  0.0000E+00  0.0000E+00  0.0000E+00  0.0000E+00  0.0000E+00  0.0000E+00  0.0000E+00  0.0000E+00  0.0000E+00  0.0000E+00  0.0000E+00  0.0000E+00
    -31.134  0.0000E+00  0.0000E+00  0.0000E+00  0.0000E+00  0.0000E+00  0.0000E+00  0.0000E+00  0.0000E+00  0.0000E+00  0.0000E+00  0.0000E+00  0.0000E+00  0.0000E+00  0.0000E+00  0.0000E+00  0.0000E+00  0.0000E+00  0.0000E+00
    -30.970  0.0000E+00  0.0000E+00  0.0000E+00  0.0000E+00  0.0000E+00  0.0000E+00  0.0000E+00  0.0000E+00  0.0000E+00  0.0000E+00  0.0000E+00  0.0000E+00  0.0000E+00  0.0000E+00  0.0000E+00  0.0000E+00  0.0000E+00  0.0000E+00
    -30.805  0.0000E+00  0.0000E+00  0.0000E+00  0.0000E+00  0.0000E+00  0.0000E+00  0.0000E+00  0.0000E+00  0.0000E+00  0.0000E+00  0.0000E+00  0.0000E+00  0.0000E+00  0.0000E+00  0.0000E+00  0.0000E+00  0.0000E+00  0.0000E+00
    -30.641  0.0000E+00  0.0000E+00  0.0000E+00  0.0000E+00  0.0000E+00  0.0000E+00  0.0000E+00  0.0000E+00  0.0000E+00  0.0000E+00  0.0000E+00  0.0000E+00  0.0000E+00  0.0000E+00  0.0000E+00  0.0000E+00  0.0000E+00  0.0000E+00
    -30.477  0.0000E+00  0.0000E+00  0.0000E+00  0.0000E+00  0.0000E+00  0.0000E+00  0.0000E+00  0.0000E+00  0.0000E+00  0.0000E+00  0.0000E+00  0.0000E+00  0.0000E+00  0.0000E+00  0.0000E+00  0.0000E+00  0.0000E+00  0.0000E+00
    -30.313  0.0000E+00  0.0000E+00  0.0000E+00  0.0000E+00  0.0000E+00  0.0000E+00  0.0000E+00  0.0000E+00  0.0000E+00  0.0000E+00  0.0000E+00  0.0000E+00  0.0000E+00  0.0000E+00  0.0000E+00  0.0000E+00  0.0000E+00  0.0000E+00
    -30.149  0.0000E+00  0.0000E+00  0.0000E+00  0.0000E+00  0.0000E+00  0.0000E+00  0.0000E+00  0.0000E+00  0.0000E+00  0.0000E+00  0.0000E+00  0.0000E+00  0.0000E+00  0.0000E+00  0.0000E+00  0.0000E+00  0.0000E+00  0.0000E+00
    -29.984  0.0000E+00  0.0000E+00  0.0000E+00  0.0000E+00  0.0000E+00  0.0000E+00  0.0000E+00  0.0000E+00  0.0000E+00  0.0000E+00  0.0000E+00  0.0000E+00  0.0000E+00  0.0000E+00  0.0000E+00  0.0000E+00  0.0000E+00  0.0000E+00
    -29.820  0.0000E+00  0.0000E+00  0.0000E+00  0.0000E+00  0.0000E+00  0.0000E+00  0.0000E+00  0.0000E+00  0.0000E+00  0.0000E+00  0.0000E+00  0.0000E+00  0.0000E+00  0.0000E+00  0.0000E+00  0.0000E+00  0.0000E+00  0.0000E+00
    -29.656  0.0000E+00  0.0000E+00  0.0000E+00  0.0000E+00  0.0000E+00  0.0000E+00  0.0000E+00  0.0000E+00  0.0000E+00  0.0000E+00  0.0000E+00  0.0000E+00  0.0000E+00  0.0000E+00  0.0000E+00  0.0000E+00  0.0000E+00  0.0000E+00
    -29.492  0.0000E+00  0.0000E+00  0.0000E+00  0.0000E+00  0.0000E+00  0.0000E+00  0.0000E+00  0.0000E+00  0.0000E+00  0.0000E+00  0.0000E+00  0.0000E+00  0.0000E+00  0.0000E+00  0.0000E+00  0.0000E+00  0.0000E+00  0.0000E+00
    -29.328  0.0000E+00  0.0000E+00  0.0000E+00  0.0000E+00  0.0000E+00  0.0000E+00  0.0000E+00  0.0000E+00  0.0000E+00  0.0000E+00  0.0000E+00  0.0000E+00  0.0000E+00  0.0000E+00  0.0000E+00  0.0000E+00  0.0000E+00  0.0000E+00
    -29.164  0.0000E+00  0.0000E+00  0.0000E+00  0.0000E+00  0.0000E+00  0.0000E+00  0.0000E+00  0.0000E+00  0.0000E+00  0.0000E+00  0.0000E+00  0.0000E+00  0.0000E+00  0.0000E+00  0.0000E+00  0.0000E+00  0.0000E+00  0.0000E+00
    -28.999  0.0000E+00  0.0000E+00  0.0000E+00  0.0000E+00  0.0000E+00  0.0000E+00  0.0000E+00  0.0000E+00  0.0000E+00  0.0000E+00  0.0000E+00  0.0000E+00  0.0000E+00  0.0000E+00  0.0000E+00  0.0000E+00  0.0000E+00  0.0000E+00