   8   8   1   0
  0.1555197E+02  0.3938033E-09  0.3938033E-09  0.8022631E-09  0.5000000E-15
  1.000000000000000E-004
  CAR 
 unknown system                          
     15.55853823    -33.62685753  301      7.99935352      1.00000000
    -33.627  0.0000E+00  0.0000E+00  0.0000E+00  0.0000E+00
    -33.463  0.0000E+00  0.0000E+00  0.0000E+00  0.0000E+00
    -33.299  0.0000E+00  0.0000E+00  0.0000E+00  0.0000E+00
    -33.135  0.0000E+00  0.0000E+00  0.0000E+00  0.0000E+00
    -32.971  0.0000E+00  0.0000E+00  0.0000E+00  0.0000E+00
    -32.807  0.0000E+00  0.0000E+00  0.0000E+00  0.0000E+00
    -32.643  0.0000E+00  0.0000E+00  0.0000E+00  0.0000E+00
    -32.479  0.0000E+00  0.0000E+00  0.0000E+00  0.0000E+00
    -32.315  0.0000E+00  0.0000E+00  0.0000E+00  0.0000E+00
    -32.151  0.0000E+00  0.0000E+00  0.0000E+00  0.0000E+00
    -31.987  0.0000E+00  0.0000E+00  0.0000E+00  0.0000E+00
    -31.823  0.1820E-02  0.1747E-02  0.2984E-03  0.2864E-03
    -31.659  0.4632E-01  0.4446E-01  0.7892E-02  0.7575E-02
    -31.495  0.1112E+01  0.1072E+01  0.1903E+00  0.1833E+00
    -31.332  0.7813E+01  0.7757E+01  0.1471E+01  0.1455E+01
    -31.168  0.3062E+01  0.3154E+01  0.1973E+01  0.1972E+01
    -31.004  0.1569E+00  0.1634E+00  0.1999E+01  0.1999E+01
    -30.840  0.0000E+00  0.0000E+00  0.2000E+01  0.2000E+01
    -30.676  0.0000E+00  0.0000E+00  0.2000E+01  0.2000E+01
    -30.512  0.0000E+00  0.0000E+00  0.2000E+01  0.2000E+01
    -30.348  0.0000E+00  0.0000E+00  0.2000E+01  0.2000E+01
    -30.184  0.0000E+00  0.0000E+00  0.2000E+01  0.2000E+01
    -30.020  0.0000E+00  0.0000E+00  0.2000E+01  0.2000E+01
    -29.856  0.0000E+00  0.0000E+00  0.2000E+01  0.2000E+01
    -29.692  0.0000E+00  0.0000E+00  0.2000E+01  0.2000E+01
    -29.528  0.0000E+00  0.0000E+00  0.2000E+01  0.2000E+01
    -29.364  0.0000E+00  0.0000E+00  0.2000E+01  0.2000E+01
    -29.200  0.0000E+00  0.0000E+00  0.2000E+01  0.2000E+01
    -29.036  0.0000E+00  0.0000E+00  0.2000E+01  0.2000E+01
    -28.872  0.0000E+00  0.0000E+00  0.2000E+01  0.2000E+01
    -28.708  0.0000E+00  0.0000E+00  0.2000E+01  0.2000E+01
    -28.544  0.0000E+00  0.0000E+00  0.2000E+01  0.2000E+01
    -28.380  0.0000E+00  0.0000E+00  0.2000E+01  0.2000E+01
    -28.216  0.0000E+00  0.0000E+00  0.2000E+01  0.2000E+01
    -28.053  0.0000E+00  0.0000E+00  0.2000E+01  0.2000E+01
    -27.889  0.0000E+00  0.0000E+00  0.2000E+01  0.2000E+01
    -27.725  0.0000E+00  0.0000E+00  0.2000E+01  0.2000E+01
    -27.561  0.0000E+00  0.0000E+00  0.2000E+01  0.2000E+01
    -27.397  0.0000E+00  0.0000E+00  0.2000E+01  0.2000E+01
    -27.233  0.0000E+00  0.0000E+00  0.2000E+01  0.2000E+01
    -27.069  0.0000E+00  0.0000E+00  0.2000E+01  0.2000E+01
    -26.905  0.0000E+00  0.0000E+00  0.2000E+01  0.2000E+01
    -26.741  0.0000E+00  0.0000E+00  0.2000E+01  0.2000E+01
    -26.577  0.0000E+00  0.0000E+00  0.2000E+01  0.2000E+01
    -26.413  0.0000E+00  0.0000E+00  0.2000E+01  0.2000E+01
    -26.249  0.0000E+00  0.0000E+00  0.2000E+01  0.2000E+01
    -26.085  0.0000E+00  0.0000E+00  0.2000E+01  0.2000E+01
    -25.921  0.0000E+00  0.0000E+00  0.2000E+01  0.2000E+01
    -25.757  0.0000E+00  0.0000E+00  0.2000E+01  0.2000E+01
    -25.593  0.0000E+00  0.0000E+00  0.2000E+01  0.2000E+01
    -25.429  0.0000E+00  0.0000E+00  0.2000E+01  0.2000E+01
    -25.265  0.0000E+00  0.0000E+00  0.2000E+01  0.2000E+01
    -25.101  0.0000E+00  0.0000E+00  0.2000E+01  0.2000E+01
    -24.937  0.0000E+00  0.0000E+00  0.2000E+01  0.2000E+01
    -24.773  0.0000E+00  0.0000E+00  0.2000E+01  0.2000E+01
    -24.610  0.0000E+00  0.0000E+00  0.2000E+01  0.2000E+01
    -24.446  0.0000E+00  0.0000E+00  0.2000E+01  0.2000E+01
    -24.282  0.0000E+00  0.0000E+00  0.2000E+01  0.2000E+01
    -24.118  0.0000E+00  0.0000E+00  0.2000E+01  0.2000E+01
    -23.954  0.0000E+00  0.0000E+00  0.2000E+01  0.2000E+01
    -23.790  0.0000E+00  0.0000E+00  0.2000E+01  0.2000E+01
    -23.626  0.0000E+00  0.0000E+00  0.2000E+01  0.2000E+01
    -23.462  0.0000E+00  0.0000E+00  0.2000E+01  0.2000E+01
    -23.298  0.0000E+00  0.0000E+00  0.2000E+01  0.2000E+01
    -23.134  0.0000E+00  0.0000E+00  0.2000E+01  0.2000E+01
    -22.970  0.0000E+00  0.0000E+00  0.2000E+01  0.2000E+01
    -22.806  0.0000E+00  0.0000E+00  0.2000E+01  0.2000E+01
    -22.642  0.0000E+00  0.0000E+00  0.2000E+01  0.2000E+01
    -22.478  0.0000E+00  0.0000E+00  0.2000E+01  0.2000E+01
    -22.314  0.0000E+00  0.0000E+00  0.2000E+01  0.2000E+01
    -22.150  0.0000E+00  0.0000E+00  0.2000E+01  0.2000E+01
    -21.986  0.0000E+00  0.0000E+00  0.2000E+01  0.2000E+01
    -21.822  0.0000E+00  0.0000E+00  0.2000E+01  0.2000E+01
    -21.658  0.0000E+00  0.0000E+00  0.2000E+01  0.2000E+01
    -21.494  0.0000E+00  0.0000E+00  0.2000E+01  0.2000E+01
    -21.331  0.0000E+00  0.0000E+00  0.2000E+01  0.2000E+01
    -21.167  0.0000E+00  0.0000E+00  0.2000E+01  0.2000E+01
    -21.003  0.0000E+00  0.0000E+00  0.2000E+01  0.2000E+01
    -20.839  0.0000E+00  0.0000E+00  0.2000E+01  0.2000E+01
    -20.675  0.0000E+00  0.0000E+00  0.2000E+01  0.2000E+01
    -20.511  0.0000E+00  0.0000E+00  0.2000E+01  0.2000E+01
    -20.347  0.0000E+00  0.0000E+00  0.2000E+01  0.2000E+01
    -20.183  0.0000E+00  0.0000E+00  0.2000E+01  0.2000E+01
    -20.019  0.0000E+00  0.0000E+00  0.2000E+01  0.2000E+01
    -19.855  0.0000E+00  0.0000E+00  0.2000E+01  0.2000E+01
    -19.691  0.0000E+00  0.0000E+00  0.2000E+01  0.2000E+01
    -19.527  0.0000E+00  0.0000E+00  0.2000E+01  0.2000E+01
    -19.363  0.0000E+00  0.0000E+00  0.2000E+01  0.2000E+01
    -19.199  0.0000E+00  0.0000E+00  0.2000E+01  0.2000E+01
    -19.035  0.0000E+00  0.0000E+00  0.2000E+01  0.2000E+01
    -18.871  0.0000E+00  0.0000E+00  0.2000E+01  0.2000E+01
    -18.707  0.0000E+00  0.0000E+00  0.2000E+01  0.2000E+01
    -18.543  0.0000E+00  0.0000E+00  0.2000E+01  0.2000E+01
    -18.379  0.0000E+00  0.0000E+00  0.2000E+01  0.2000E+01
    -18.215  0.0000E+00  0.0000E+00  0.2000E+01  0.2000E+01
    -18.051  0.0000E+00  0.0000E+00  0.2000E+01  0.2000E+01
    -17.888  0.0000E+00  0.0000E+00  0.2000E+01  0.2000E+01
    -17.724  0.0000E+00  0.0000E+00  0.2000E+01  0.2000E+01
    -17.560  0.0000E+00  0.0000E+00  0.2000E+01  0.2000E+01
    -17.396  0.0000E+00  0.0000E+00  0.2000E+01  0.2000E+01
    -17.232  0.0000E+00  0.0000E+00  0.2000E+01  0.2000E+01
    -17.068  0.0000E+00  0.0000E+00  0.2000E+01  0.2000E+01
    -16.904  0.0000E+00  0.0000E+00  0.2000E+01  0.2000E+01
    -16.740  0.0000E+00  0.0000E+00  0.2000E+01  0.2000E+01
    -16.576  0.0000E+00  0.0000E+00  0.2000E+01  0.2000E+01
    -16.412  0.0000E+00  0.0000E+00  0.2000E+01  0.2000E+01
    -16.248  0.0000E+00  0.0000E+00  0.2000E+01  0.2000E+01
    -16.084  0.0000E+00  0.0000E+00  0.2000E+01  0.2000E+01
    -15.920  0.0000E+00  0.0000E+00  0.2000E+01  0.2000E+01
    -15.756  0.0000E+00  0.0000E+00  0.2000E+01  0.2000E+01
    -15.592  0.0000E+00  0.0000E+00  0.2000E+01  0.2000E+01
    -15.428  0.0000E+00  0.0000E+00  0.2000E+01  0.2000E+01
    -15.264  0.0000E+00  0.0000E+00  0.2000E+01  0.2000E+01
    -15.100  0.0000E+00  0.0000E+00  0.2000E+01  0.2000E+01
    -14.936  0.0000E+00  0.0000E+00  0.2000E+01  0.2000E+01
    -14.772  0.0000E+00  0.0000E+00  0.2000E+01  0.2000E+01
    -14.609  0.0000E+00  0.0000E+00  0.2000E+01  0.2000E+01
    -14.445  0.0000E+00  0.0000E+00  0.2000E+01  0.2000E+01
    -14.281  0.0000E+00  0.0000E+00  0.2000E+01  0.2000E+01
    -14.117  0.0000E+00  0.0000E+00  0.2000E+01  0.2000E+01
    -13.953  0.0000E+00  0.0000E+00  0.2000E+01  0.2000E+01
    -13.789  0.0000E+00  0.0000E+00  0.2000E+01  0.2000E+01
    -13.625  0.0000E+00  0.0000E+00  0.2000E+01  0.2000E+01
    -13.461  0.0000E+00  0.0000E+00  0.2000E+01  0.2000E+01
    -13.297  0.2738E-03  0.2513E-03  0.2000E+01  0.2000E+01
    -13.133  0.9791E-02  0.9349E-02  0.2002E+01  0.2002E+01
    -12.969  0.2537E+00  0.2422E+00  0.2043E+01  0.2041E+01
    -12.805  0.5066E+01  0.4889E+01  0.2874E+01  0.2843E+01
    -12.641  0.1996E+02  0.1988E+02  0.6146E+01  0.6103E+01
    -12.477  0.1035E+02  0.1057E+02  0.7843E+01  0.7836E+01
    -12.313  0.8331E+00  0.8705E+00  0.7994E+01  0.7994E+01
    -12.149  0.0000E+00  0.0000E+00  0.8000E+01  0.8000E+01
    -11.985  0.0000E+00  0.0000E+00  0.8000E+01  0.8000E+01
    -11.821  0.0000E+00  0.0000E+00  0.8000E+01  0.8000E+01
    -11.657  0.0000E+00  0.0000E+00  0.8000E+01  0.8000E+01
    -11.493  0.0000E+00  0.0000E+00  0.8000E+01  0.8000E+01
    -11.329  0.0000E+00  0.0000E+00  0.8000E+01  0.8000E+01
    -11.166  0.0000E+00  0.0000E+00  0.8000E+01  0.8000E+01
    -11.002  0.0000E+00  0.0000E+00  0.8000E+01  0.8000E+01
    -10.838  0.0000E+00  0.0000E+00  0.8000E+01  0.8000E+01
    -10.674  0.0000E+00  0.0000E+00  0.8000E+01  0.8000E+01
    -10.510  0.0000E+00  0.0000E+00  0.8000E+01  0.8000E+01
    -10.346  0.0000E+00  0.0000E+00  0.8000E+01  0.8000E+01
    -10.182  0.0000E+00  0.0000E+00  0.8000E+01  0.8000E+01
    -10.018  0.0000E+00  0.0000E+00  0.8000E+01  0.8000E+01
     -9.854  0.0000E+00  0.0000E+00  0.8000E+01  0.8000E+01
     -9.690  0.0000E+00  0.0000E+00  0.8000E+01  0.8000E+01
     -9.526  0.0000E+00  0.0000E+00  0.8000E+01  0.8000E+01
     -9.362  0.0000E+00  0.0000E+00  0.8000E+01  0.8000E+01
     -9.198  0.0000E+00  0.0000E+00  0.8000E+01  0.8000E+01
     -9.034  0.0000E+00  0.0000E+00  0.8000E+01  0.8000E+01
     -8.870  0.0000E+00  0.0000E+00  0.8000E+01  0.8000E+01
     -8.706  0.0000E+00  0.0000E+00  0.8000E+01  0.8000E+01
     -8.542  0.0000E+00  0.0000E+00  0.8000E+01  0.8000E+01
     -8.378  0.0000E+00  0.0000E+00  0.8000E+01  0.8000E+01
     -8.214  0.0000E+00  0.0000E+00  0.8000E+01  0.8000E+01
     -8.050  0.0000E+00  0.0000E+00  0.8000E+01  0.8000E+01
     -7.887  0.0000E+00  0.0000E+00  0.8000E+01  0.8000E+01
     -7.723  0.0000E+00  0.0000E+00  0.8000E+01  0.8000E+01
     -7.559  0.0000E+00  0.0000E+00  0.8000E+01  0.8000E+01
     -7.395  0.0000E+00  0.0000E+00  0.8000E+01  0.8000E+01
     -7.231  0.0000E+00  0.0000E+00  0.8000E+01  0.8000E+01
     -7.067  0.0000E+00  0.0000E+00  0.8000E+01  0.8000E+01
     -6.903  0.0000E+00  0.0000E+00  0.8000E+01  0.8000E+01
     -6.739  0.0000E+00  0.0000E+00  0.8000E+01  0.8000E+01
     -6.575  0.0000E+00  0.0000E+00  0.8000E+01  0.8000E+01
     -6.411  0.0000E+00  0.0000E+00  0.8000E+01  0.8000E+01
     -6.247  0.0000E+00  0.0000E+00  0.8000E+01  0.8000E+01
     -6.083  0.0000E+00  0.0000E+00  0.8000E+01  0.8000E+01
     -5.919  0.0000E+00  0.0000E+00  0.8000E+01  0.8000E+01
     -5.755  0.0000E+00  0.0000E+00  0.8000E+01  0.8000E+01
     -5.591  0.0000E+00  0.0000E+00  0.8000E+01  0.8000E+01
     -5.427  0.0000E+00  0.0000E+00  0.8000E+01  0.8000E+01
     -5.263  0.0000E+00  0.0000E+00  0.8000E+01  0.8000E+01
     -5.099  0.0000E+00  0.0000E+00  0.8000E+01  0.8000E+01
     -4.935  0.0000E+00  0.0000E+00  0.8000E+01  0.8000E+01
     -4.771  0.0000E+00  0.0000E+00  0.8000E+01  0.8000E+01
     -4.607  0.0000E+00  0.0000E+00  0.8000E+01  0.8000E+01
     -4.444  0.0000E+00  0.0000E+00  0.8000E+01  0.8000E+01
     -4.280  0.0000E+00  0.0000E+00  0.8000E+01  0.8000E+01
     -4.116  0.0000E+00  0.0000E+00  0.8000E+01  0.8000E+01
     -3.952  0.0000E+00  0.0000E+00  0.8000E+01  0.8000E+01
     -3.788  0.0000E+00  0.0000E+00  0.8000E+01  0.8000E+01
     -3.624  0.0000E+00  0.0000E+00  0.8000E+01  0.8000E+01
     -3.460  0.0000E+00  0.0000E+00  0.8000E+01  0.8000E+01
     -3.296  0.0000E+00  0.0000E+00  0.8000E+01  0.8000E+01
     -3.132  0.0000E+00  0.0000E+00  0.8000E+01  0.8000E+01
     -2.968  0.0000E+00  0.0000E+00  0.8000E+01  0.8000E+01
     -2.804  0.0000E+00  0.0000E+00  0.8000E+01  0.8000E+01
     -2.640  0.7986E-07  0.7456E-07  0.8000E+01  0.8000E+01
     -2.476  0.8065E-05  0.7530E-05  0.8000E+01  0.8000E+01
     -2.312  0.2254E-03  0.2105E-03  0.8000E+01  0.8000E+01
     -2.148  0.5432E-02  0.5103E-02  0.8001E+01  0.8001E+01
     -1.984  0.5745E-01  0.5557E-01  0.8010E+01  0.8010E+01
     -1.820  0.1451E+00  0.1433E+00  0.8034E+01  0.8033E+01
     -1.656  0.2181E+00  0.2177E+00  0.8070E+01  0.8069E+01
     -1.492  0.2674E+00  0.2654E+00  0.8114E+01  0.8113E+01
     -1.328  0.3190E+00  0.3182E+00  0.8166E+01  0.8165E+01
     -1.164  0.3470E+00  0.3473E+00  0.8223E+01  0.8222E+01
     -1.001  0.4100E+00  0.4070E+00  0.8291E+01  0.8289E+01
     -0.837  0.4523E+00  0.4523E+00  0.8365E+01  0.8363E+01
     -0.673  0.4583E+00  0.4587E+00  0.8440E+01  0.8439E+01
     -0.509  0.5337E+00  0.5316E+00  0.8528E+01  0.8526E+01
     -0.345  0.5808E+00  0.5793E+00  0.8623E+01  0.8621E+01
     -0.181  0.6339E+00  0.6337E+00  0.8727E+01  0.8725E+01
     -0.017  0.6316E+00  0.6327E+00  0.8831E+01  0.8829E+01
      0.147  0.7505E+00  0.7463E+00  0.8954E+01  0.8952E+01
      0.311  0.7794E+00  0.7808E+00  0.9083E+01  0.9080E+01
      0.475  0.7467E+00  0.7459E+00  0.9205E+01  0.9203E+01
      0.639  0.7377E+00  0.7396E+00  0.9326E+01  0.9324E+01
      0.803  0.7797E+00  0.7749E+00  0.9454E+01  0.9451E+01
      0.967  0.9328E+00  0.9370E+00  0.9608E+01  0.9605E+01
      1.131  0.7912E+00  0.7889E+00  0.9738E+01  0.9735E+01
      1.295  0.8893E+00  0.8884E+00  0.9884E+01  0.9881E+01
      1.459  0.1011E+01  0.1009E+01  0.1005E+02  0.1005E+02
      1.623  0.1099E+01  0.1096E+01  0.1023E+02  0.1023E+02
      1.787  0.1160E+01  0.1160E+01  0.1042E+02  0.1042E+02
      1.951  0.1088E+01  0.1091E+01  0.1060E+02  0.1060E+02
      2.115  0.1000E+01  0.1000E+01  0.1076E+02  0.1076E+02
      2.278  0.8680E+00  0.8734E+00  0.1091E+02  0.1091E+02
      2.442  0.7422E+00  0.7389E+00  0.1103E+02  0.1103E+02
      2.606  0.7968E+00  0.7991E+00  0.1116E+02  0.1116E+02
      2.770  0.8386E+00  0.8349E+00  0.1130E+02  0.1130E+02
      2.934  0.8385E+00  0.8398E+00  0.1144E+02  0.1143E+02
      3.098  0.9952E+00  0.9900E+00  0.1160E+02  0.1160E+02
      3.262  0.1039E+01  0.1037E+01  0.1177E+02  0.1177E+02
      3.426  0.1349E+01  0.1341E+01  0.1199E+02  0.1199E+02
      3.590  0.1410E+01  0.1418E+01  0.1222E+02  0.1222E+02
      3.754  0.9928E+00  0.9985E+00  0.1239E+02  0.1238E+02
      3.918  0.1007E+01  0.9994E+00  0.1255E+02  0.1255E+02
      4.082  0.1296E+01  0.1294E+01  0.1277E+02  0.1276E+02
      4.246  0.1309E+01  0.1316E+01  0.1298E+02  0.1298E+02
      4.410  0.7021E+00  0.7070E+00  0.1310E+02  0.1309E+02
      4.574  0.1285E+01  0.1268E+01  0.1331E+02  0.1330E+02
      4.738  0.1345E+01  0.1351E+01  0.1353E+02  0.1352E+02
      4.902  0.1324E+01  0.1327E+01  0.1375E+02  0.1374E+02
      5.066  0.1002E+01  0.1000E+01  0.1391E+02  0.1391E+02
      5.230  0.1356E+01  0.1350E+01  0.1413E+02  0.1413E+02
      5.394  0.1491E+01  0.1491E+01  0.1438E+02  0.1437E+02
      5.558  0.1428E+01  0.1434E+01  0.1461E+02  0.1461E+02
      5.721  0.1200E+01  0.1198E+01  0.1481E+02  0.1481E+02
      5.885  0.1432E+01  0.1430E+01  0.1505E+02  0.1504E+02
      6.049  0.1566E+01  0.1561E+01  0.1530E+02  0.1530E+02
      6.213  0.1676E+01  0.1678E+01  0.1558E+02  0.1557E+02
      6.377  0.1646E+01  0.1645E+01  0.1585E+02  0.1584E+02
      6.541  0.1743E+01  0.1736E+01  0.1614E+02  0.1613E+02
      6.705  0.2311E+01  0.2300E+01  0.1651E+02  0.1651E+02
      6.869  0.2412E+01  0.2418E+01  0.1691E+02  0.1690E+02
      7.033  0.2251E+01  0.2250E+01  0.1728E+02  0.1727E+02
      7.197  0.2174E+01  0.2177E+01  0.1764E+02  0.1763E+02
      7.361  0.1863E+01  0.1871E+01  0.1794E+02  0.1794E+02
      7.525  0.1655E+01  0.1655E+01  0.1822E+02  0.1821E+02
      7.689  0.1575E+01  0.1577E+01  0.1848E+02  0.1847E+02
      7.853  0.1699E+01  0.1695E+01  0.1875E+02  0.1875E+02
      8.017  0.1692E+01  0.1692E+01  0.1903E+02  0.1903E+02
      8.181  0.1962E+01  0.1952E+01  0.1936E+02  0.1935E+02
      8.345  0.2040E+01  0.2048E+01  0.1969E+02  0.1968E+02
      8.509  0.1592E+01  0.1602E+01  0.1995E+02  0.1995E+02
      8.673  0.1578E+01  0.1567E+01  0.2021E+02  0.2021E+02
      8.837  0.1834E+01  0.1838E+01  0.2051E+02  0.2051E+02
      9.000  0.1580E+01  0.1582E+01  0.2077E+02  0.2077E+02
      9.164  0.1565E+01  0.1570E+01  0.2103E+02  0.2103E+02
      9.328  0.1258E+01  0.1260E+01  0.2124E+02  0.2123E+02
      9.492  0.1302E+01  0.1307E+01  0.2145E+02  0.2145E+02
      9.656  0.9934E+00  0.9966E+00  0.2161E+02  0.2161E+02
      9.820  0.1115E+01  0.1112E+01  0.2180E+02  0.2179E+02
      9.984  0.1188E+01  0.1189E+01  0.2199E+02  0.2199E+02
     10.148  0.1207E+01  0.1200E+01  0.2219E+02  0.2219E+02
     10.312  0.1492E+01  0.1491E+01  0.2244E+02  0.2243E+02
     10.476  0.1628E+01  0.1621E+01  0.2270E+02  0.2270E+02
     10.640  0.1781E+01  0.1780E+01  0.2300E+02  0.2299E+02
     10.804  0.2093E+01  0.2081E+01  0.2334E+02  0.2333E+02
     10.968  0.2570E+01  0.2565E+01  0.2376E+02  0.2375E+02
     11.132  0.2690E+01  0.2695E+01  0.2421E+02  0.2420E+02
     11.296  0.2556E+01  0.2559E+01  0.2463E+02  0.2462E+02
     11.460  0.2561E+01  0.2566E+01  0.2505E+02  0.2504E+02
     11.624  0.2324E+01  0.2317E+01  0.2543E+02  0.2542E+02
     11.788  0.2538E+01  0.2499E+01  0.2585E+02  0.2583E+02
     11.952  0.2596E+01  0.2575E+01  0.2627E+02  0.2625E+02
     12.116  0.2086E+01  0.2100E+01  0.2662E+02  0.2660E+02
     12.280  0.1682E+01  0.1702E+01  0.2689E+02  0.2688E+02
     12.443  0.1453E+01  0.1505E+01  0.2713E+02  0.2713E+02
     12.607  0.1375E+01  0.1411E+01  0.2736E+02  0.2736E+02
     12.771  0.1453E+01  0.1440E+01  0.2760E+02  0.2760E+02
     12.935  0.1073E+01  0.1077E+01  0.2777E+02  0.2777E+02
     13.099  0.6947E+00  0.6980E+00  0.2789E+02  0.2789E+02
     13.263  0.4810E+00  0.4784E+00  0.2797E+02  0.2797E+02
     13.427  0.1818E+00  0.1830E+00  0.2800E+02  0.2800E+02
     13.591  0.1503E-01  0.1470E-01  0.2800E+02  0.2800E+02
     13.755  0.0000E+00  0.0000E+00  0.2800E+02  0.2800E+02
     13.919  0.0000E+00  0.0000E+00  0.2800E+02  0.2800E+02
     14.083  0.0000E+00  0.0000E+00  0.2800E+02  0.2800E+02
     14.247  0.0000E+00  0.0000E+00  0.2800E+02  0.2800E+02
     14.411  0.0000E+00  0.0000E+00  0.2800E+02  0.2800E+02
     14.575  0.0000E+00  0.0000E+00  0.2800E+02  0.2800E+02
     14.739  0.0000E+00  0.0000E+00  0.2800E+02  0.2800E+02
     14.903  0.0000E+00  0.0000E+00  0.2800E+02  0.2800E+02
     15.067  0.0000E+00  0.0000E+00  0.2800E+02  0.2800E+02
     15.231  0.0000E+00  0.0000E+00  0.2800E+02  0.2800E+02
     15.395  0.0000E+00  0.0000E+00  0.2800E+02  0.2800E+02
     15.559  0.0000E+00  0.0000E+00  0.2800E+02  0.2800E+02
     15.55853823    -33.62685753  301      7.99935352      1.00000000
    -33.627  0.0000E+00  0.0000E+00  0.0000E+00  0.0000E+00  0.0000E+00  0.0000E+00  0.0000E+00  0.0000E+00  0.0000E+00  0.0000E+00  0.0000E+00  0.0000E+00  0.0000E+00  0.0000E+00  0.0000E+00  0.0000E+00  0.0000E+00  0.0000E+00
    -33.463  0.0000E+00  0.0000E+00  0.0000E+00  0.0000E+00  0.0000E+00  0.0000E+00  0.0000E+00  0.0000E+00  0.0000E+00  0.0000E+00  0.0000E+00  0.0000E+00  0.0000E+00  0.0000E+00  0.0000E+00  0.0000E+00  0.0000E+00  0.0000E+00
    -33.299  0.0000E+00  0.0000E+00  0.0000E+00  0.0000E+00  0.0000E+00  0.0000E+00  0.0000E+00  0.0000E+00  0.0000E+00  0.0000E+00  0.0000E+00  0.0000E+00  0.0000E+00  0.0000E+00  0.0000E+00  0.0000E+00  0.0000E+00  0.0000E+00
    -33.135  0.0000E+00  0.0000E+00  0.0000E+00  0.0000E+00  0.0000E+00  0.0000E+00  0.0000E+00  0.0000E+00  0.0000E+00  0.0000E+00  0.0000E+00  0.0000E+00  0.0000E+00  0.0000E+00  0.0000E+00  0.0000E+00  0.0000E+00  0.0000E+00
    -32.971  0.0000E+00  0.0000E+00  0.0000E+00  0.0000E+00  0.0000E+00  0.0000E+00  0.0000E+00  0.0000E+00  0.0000E+00  0.0000E+00  0.0000E+00  0.0000E+00  0.0000E+00  0.0000E+00  0.0000E+00  0.0000E+00  0.0000E+00  0.0000E+00
    -32.807  0.0000E+00  0.0000E+00  0.0000E+00  0.0000E+00  0.0000E+00  0.0000E+00  0.0000E+00  0.0000E+00  0.0000E+00  0.0000E+00  0.0000E+00  0.0000E+00  0.0000E+00  0.0000E+00  0.0000E+00  0.0000E+00  0.0000E+00  0.0000E+00
    -32.643  0.0000E+00  0.0000E+00  0.0000E+00  0.0000E+00  0.0000E+00  0.0000E+00  0.0000E+00  0.0000E+00  0.0000E+00  0.0000E+00  0.0000E+00  0.0000E+00  0.0000E+00  0.0000E+00  0.0000E+00  0.0000E+00  0.0000E+00  0.0000E+00
    -32.479  0.0000E+00  0.0000E+00  0.0000E+00  0.0000E+00  0.0000E+00  0.0000E+00  0.0000E+00  0.0000E+00  0.0000E+00  0.0000E+00  0.0000E+00  0.0000E+00  0.0000E+00  0.0000E+00  0.0000E+00  0.0000E+00  0.0000E+00  0.0000E+00
    -32.315  0.0000E+00  0.0000E+00  0.0000E+00  0.0000E+00  0.0000E+00  0.0000E+00  0.0000E+00  0.0000E+00  0.0000E+00  0.0000E+00  0.0000E+00  0.0000E+00  0.0000E+00  0.0000E+00  0.0000E+00  0.0000E+00  0.0000E+00  0.0000E+00
    -32.151  0.0000E+00  0.0000E+00  0.0000E+00  0.0000E+00  0.0000E+00  0.0000E+00  0.0000E+00  0.0000E+00  0.0000E+00  0.0000E+00  0.0000E+00  0.0000E+00  0.0000E+00  0.0000E+00  0.0000E+00  0.0000E+00  0.0000E+00  0.0000E+00
    -31.987  0.0000E+00  0.0000E+00  0.0000E+00  0.0000E+00  0.0000E+00  0.0000E+00  0.0000E+00  0.0000E+00  0.0000E+00  0.0000E+00  0.0000E+00  0.0000E+00  0.0000E+00  0.0000E+00  0.0000E+00  0.0000E+00  0.0000E+00  0.0000E+00
    -31.823  0.8948E-03  0.8588E-03  0.6626E-10  0.6427E-10  0.9400E-12  0.8746E-12  0.6626E-10  0.6427E-10  0.5095E-13  0.4695E-13  0.1310E-12  0.1378E-12  0.1573E-08  0.1507E-08  0.1310E-12  0.1378E-12  0.4271E-10  0.4117E-10
    -31.659  0.2277E-01  0.2186E-01  0.1686E-08  0.1636E-08  0.2391E-10  0.2226E-10  0.1686E-08  0.1636E-08  0.1297E-11  0.1195E-11  0.3333E-11  0.3506E-11  0.4004E-07  0.3835E-07  0.3333E-11  0.3506E-11  0.1087E-08  0.1048E-08
    -31.495  0.5469E+00  0.5270E+00  0.4049E-07  0.3943E-07  0.5706E-09  0.5332E-09  0.4049E-07  0.3943E-07  0.3119E-10  0.2888E-10  0.8015E-10  0.8458E-10  0.9625E-06  0.9254E-06  0.8015E-10  0.8458E-10  0.2612E-07  0.2528E-07
    -31.332  0.3841E+01  0.3814E+01  0.2839E-06  0.2848E-06  0.3809E-08  0.3674E-08  0.2839E-06  0.2848E-06  0.2220E-09  0.2123E-09  0.5673E-09  0.6141E-09  0.6807E-05  0.6743E-05  0.5673E-09  0.6141E-09  0.1840E-06  0.1835E-06
    -31.168  0.1506E+01  0.1551E+01  0.1109E-06  0.1154E-06  0.1402E-08  0.1404E-08  0.1109E-06  0.1154E-06  0.8835E-10  0.8796E-10  0.2240E-09  0.2501E-09  0.2690E-05  0.2765E-05  0.2240E-09  0.2501E-09  0.7215E-07  0.7464E-07
    -31.004  0.7716E-01  0.8035E-01  0.5676E-08  0.5974E-08  0.7051E-10  0.7141E-10  0.5676E-08  0.5974E-08  0.4547E-11  0.4582E-11  0.1150E-10  0.1296E-10  0.1382E-06  0.1436E-06  0.1150E-10  0.1296E-10  0.3694E-08  0.3864E-08
    -30.840  0.0000E+00  0.0000E+00  0.0000E+00  0.0000E+00  0.0000E+00  0.0000E+00  0.0000E+00  0.0000E+00  0.0000E+00  0.0000E+00  0.0000E+00  0.0000E+00  0.0000E+00  0.0000E+00  0.0000E+00  0.0000E+00  0.0000E+00  0.0000E+00
    -30.676  0.0000E+00  0.0000E+00  0.0000E+00  0.0000E+00  0.0000E+00  0.0000E+00  0.0000E+00  0.0000E+00  0.0000E+00  0.0000E+00  0.0000E+00  0.0000E+00  0.0000E+00  0.0000E+00  0.0000E+00  0.0000E+00  0.0000E+00  0.0000E+00
    -30.512  0.0000E+00  0.0000E+00  0.0000E+00  0.0000E+00  0.0000E+00  0.0000E+00  0.0000E+00  0.0000E+00  0.0000E+00  0.0000E+00  0.0000E+00  0.0000E+00  0.0000E+00  0.0000E+00  0.0000E+00  0.0000E+00  0.0000E+00  0.0000E+00
    -30.348  0.0000E+00  0.0000E+00  0.0000E+00  0.0000E+00  0.0000E+00  0.0000E+00  0.0000E+00  0.0000E+00  0.0000E+00  0.0000E+00  0.0000E+00  0.0000E+00  0.0000E+00  0.0000E+00  0.0000E+00  0.0000E+00  0.0000E+00  0.0000E+00
    -30.184  0.0000E+00  0.0000E+00  0.0000E+00  0.0000E+00  0.0000E+00  0.0000E+00  0.0000E+00  0.0000E+00  0.0000E+00  0.0000E+00  0.0000E+00  0.0000E+00  0.0000E+00  0.0000E+00  0.0000E+00  0.0000E+00  0.0000E+00  0.0000E+00
    -30.020  0.0000E+00  0.0000E+00  0.0000E+00  0.0000E+00  0.0000E+00  0.0000E+00  0.0000E+00  0.0000E+00  0.0000E+00  0.0000E+00  0.0000E+00  0.0000E+00  0.0000E+00  0.0000E+00  0.0000E+00  0.0000E+00  0.0000E+00  0.0000E+00
    -29.856  0.0000E+00  0.0000E+00  0.0000E+00  0.0000E+00  0.0000E+00  0.0000E+00  0.0000E+00  0.0000E+00  0.0000E+00  0.0000E+00  0.0000E+00  0.0000E+00  0.0000E+00  0.0000E+00  0.0000E+00  0.0000E+00  0.0000E+00  0.0000E+00
    -29.692  0.0000E+00  0.0000E+00  0.0000E+00  0.0000E+00  0.0000E+00  0.0000E+00  0.0000E+00  0.0000E+00  0.0000E+00  0.0000E+00  0.0000E+00  0.0000E+00  0.0000E+00  0.0000E+00  0.0000E+00  0.0000E+00  0.0000E+00  0.0000E+00
    -29.528  0.0000E+00  0.0000E+00  0.0000E+00  0.0000E+00  0.0000E+00  0.0000E+00  0.0000E+00  0.0000E+00  0.0000E+00  0.0000E+00  0.0000E+00  0.0000E+00  0.0000E+00  0.0000E+00  0.0000E+00  0.0000E+00  0.0000E+00  0.0000E+00
    -29.364  0.0000E+00  0.0000E+00  0.0000E+00  0.0000E+00  0.0000E+00  0.0000E+00  0.0000E+00  0.0000E+00  0.0000E+00  0.0000E+00  0.0000E+00  0.0000E+00  0.0000E+00  0.0000E+00  0.0000E+00  0.0000E+00  0.0000E+00  0.0000E+00
    -29.200  0.0000E+00  0.0000E+00  0.0000E+00  0.0000E+00  0.0000E+00  0.0000E+00  0.0000E+00  0.0000E+00  0.0000E+00  0.0000E+00  0.0000E+00  0.0000E+00  0.0000E+00  0.0000E+00  0.0000E+00  0.0000E+00  0.0000E+00  0.0000E+00
    -29.036  0.0000E+00  0.0000E+00  0.0000E+00  0.0000E+00  0.0000E+00  0.0000E+00  0.0000E+00  0.0000E+00  0.0000E+00  0.0000E+00  0.0000E+00  0.0000E+00  0.0000E+00  0.0000E+00  0.0000E+00  0.0000E+00  0.0000E+00  0.0000E+00
    -28.872  0.0000E+00  0.0000E+00  0.0000E+00  0.0000E+00  0.0000E+00  0.0000E+00  0.0000E+00  0.0000E+00  0.0000E+00  0.0000E+00  0.0000E+00  0.0000E+00  0.0000E+00  0.0000E+00  0.0000E+00  0.0000E+00  0.0000E+00  0.0000E+00
    -28.708  0.0000E+00  0.0000E+00  0.0000E+00  0.0000E+00  0.0000E+00  0.0000E+00  0.0000E+00  0.0000E+00  0.0000E+00  0.0000E+00  0.0000E+00  0.0000E+00  0.0000E+00  0.0000E+00  0.0000E+00  0.0000E+00  0.0000E+00  0.0000E+00
    -28.544  0.0000E+00  0.0000E+00  0.0000E+00  0.0000E+00  0.0000E+00  0.0000E+00  0.0000E+00  0.0000E+00  0.0000E+00  0.0000E+00  0.0000E+00  0.0000E+00  0.0000E+00  0.0000E+00  0.0000E+00  0.0000E+00  0.0000E+00  0.0000E+00
    -28.380  0.0000E+00  0.0000E+00  0.0000E+00  0.0000E+00  0.0000E+00  0.0000E+00  0.0000E+00  0.0000E+00  0.0000E+00  0.0000E+00  0.0000E+00  0.0000E+00  0.0000E+00  0.0000E+00  0.0000E+00  0.0000E+00  0.0000E+00  0.0000E+00
    -28.216  0.0000E+00  0.0000E+00  0.0000E+00  0.0000E+00  0.0000E+00  0.0000E+00  0.0000E+00  0.0000E+00  0.0000E+00  0.0000E+00  0.0000E+00  0.0000E+00  0.0000E+00  0.0000E+00  0.0000E+00  0.0000E+00  0.0000E+00  0.0000E+00
    -28.053  0.0000E+00  0.0000E+00  0.0000E+00  0.0000E+00  0.0000E+00  0.0000E+00  0.0000E+00  0.0000E+00  0.0000E+00  0.0000E+00  0.0000E+00  0.0000E+00  0.0000E+00  0.0000E+00  0.0000E+00  0.0000E+00  0.0000E+00  0.0000E+00
    -27.889  0.0000E+00  0.0000E+00  0.0000E+00  0.0000E+00  0.0000E+00  0.0000E+00  0.0000E+00  0.0000E+00  0.0000E+00  0.0000E+00  0.0000E+00  0.0000E+00  0.0000E+00  0.0000E+00  0.0000E+00  0.0000E+00  0.0000E+00  0.0000E+00
    -27.725  0.0000E+00  0.0000E+00  0.0000E+00  0.0000E+00  0.0000E+00  0.0000E+00  0.0000E+00  0.0000E+00  0.0000E+00  0.0000E+00  0.0000E+00  0.0000E+00  0.0000E+00  0.0000E+00  0.0000E+00  0.0000E+00  0.0000E+00  0.0000E+00
    -27.561  0.0000E+00  0.0000E+00  0.0000E+00  0.0000E+00  0.0000E+00  0.0000E+00  0.0000E+00  0.0000E+00  0.0000E+00  0.0000E+00  0.0000E+00  0.0000E+00  0.0000E+00  0.0000E+00  0.0000E+00  0.0000E+00  0.0000E+00  0.0000E+00
    -27.397  0.0000E+00  0.0000E+00  0.0000E+00  0.0000E+00  0.0000E+00  0.0000E+00  0.0000E+00  0.0000E+00  0.0000E+00  0.0000E+00  0.0000E+00  0.0000E+00  0.0000E+00  0.0000E+00  0.0000E+00  0.0000E+00  0.0000E+00  0.0000E+00
    -27.233  0.0000E+00  0.0000E+00  0.0000E+00  0.0000E+00  0.0000E+00  0.0000E+00  0.0000E+00  0.0000E+00  0.0000E+00  0.0000E+00  0.0000E+00  0.0000E+00  0.0000E+00  0.0000E+00  0.0000E+00  0.0000E+00  0.0000E+00  0.0000E+00
    -27.069  0.0000E+00  0.0000E+00  0.0000E+00  0.0000E+00  0.0000E+00  0.0000E+00  0.0000E+00  0.0000E+00  0.0000E+00  0.0000E+00  0.0000E+00  0.0000E+00  0.0000E+00  0.0000E+00  0.0000E+00  0.0000E+00  0.0000E+00  0.0000E+00
    -26.905  0.0000E+00  0.0000E+00  0.0000E+00  0.0000E+00  0.0000E+00  0.0000E+00  0.0000E+00  0.0000E+00  0.0000E+00  0.0000E+00  0.0000E+00  0.0000E+00  0.0000E+00  0.0000E+00  0.0000E+00  0.0000E+00  0.0000E+00  0.0000E+00
    -26.741  0.0000E+00  0.0000E+00  0.0000E+00  0.0000E+00  0.0000E+00  0.0000E+00  0.0000E+00  0.0000E+00  0.0000E+00  0.0000E+00  0.0000E+00  0.0000E+00  0.0000E+00  0.0000E+00  0.0000E+00  0.0000E+00  0.0000E+00  0.0000E+00
    -26.577  0.0000E+00  0.0000E+00  0.0000E+00  0.0000E+00  0.0000E+00  0.0000E+00  0.0000E+00  0.0000E+00  0.0000E+00  0.0000E+00  0.0000E+00  0.0000E+00  0.0000E+00  0.0000E+00  0.0000E+00  0.0000E+00  0.0000E+00  0.0000E+00
    -26.413  0.0000E+00  0.0000E+00  0.0000E+00  0.0000E+00  0.0000E+00  0.0000E+00  0.0000E+00  0.0000E+00  0.0000E+00  0.0000E+00  0.0000E+00  0.0000E+00  0.0000E+00  0.0000E+00  0.0000E+00  0.0000E+00  0.0000E+00  0.0000E+00
    -26.249  0.0000E+00  0.0000E+00  0.0000E+00  0.0000E+00  0.0000E+00  0.0000E+00  0.0000E+00  0.0000E+00  0.0000E+00  0.0000E+00  0.0000E+00  0.0000E+00  0.0000E+00  0.0000E+00  0.0000E+00  0.0000E+00  0.0000E+00  0.0000E+00
    -26.085  0.0000E+00  0.0000E+00  0.0000E+00  0.0000E+00  0.0000E+00  0.0000E+00  0.0000E+00  0.0000E+00  0.0000E+00  0.0000E+00  0.0000E+00  0.0000E+00  0.0000E+00  0.0000E+00  0.0000E+00  0.0000E+00  0.0000E+00  0.0000E+00
    -25.921  0.0000E+00  0.0000E+00  0.0000E+00  0.0000E+00  0.0000E+00  0.0000E+00  0.0000E+00  0.0000E+00  0.0000E+00  0.0000E+00  0.0000E+00  0.0000E+00  0.0000E+00  0.0000E+00  0.0000E+00  0.0000E+00  0.0000E+00  0.0000E+00
    -25.757  0.0000E+00  0.0000E+00  0.0000E+00  0.0000E+00  0.0000E+00  0.0000E+00  0.0000E+00  0.0000E+00  0.0000E+00  0.0000E+00  0.0000E+00  0.0000E+00  0.0000E+00  0.0000E+00  0.0000E+00  0.0000E+00  0.0000E+00  0.0000E+00
    -25.593  0.0000E+00  0.0000E+00  0.0000E+00  0.0000E+00  0.0000E+00  0.0000E+00  0.0000E+00  0.0000E+00  0.0000E+00  0.0000E+00  0.0000E+00  0.0000E+00  0.0000E+00  0.0000E+00  0.0000E+00  0.0000E+00  0.0000E+00  0.0000E+00
    -25.429  0.0000E+00  0.0000E+00  0.0000E+00  0.0000E+00  0.0000E+00  0.0000E+00  0.0000E+00  0.0000E+00  0.0000E+00  0.0000E+00  0.0000E+00  0.0000E+00  0.0000E+00  0.0000E+00  0.0000E+00  0.0000E+00  0.0000E+00  0.0000E+00