  16  16   1   0
  0.1859105E+02  0.4220680E-09  0.4220680E-09  0.1669779E-08  0.5000000E-15
  1.000000000000000E-004
  CAR 
 unknown system                          
     13.38933930    -35.64597453  301      6.44215411      1.00000000
    -35.646  0.0000E+00  0.0000E+00  0.0000E+00  0.0000E+00
    -35.483  0.0000E+00  0.0000E+00  0.0000E+00  0.0000E+00
    -35.319  0.0000E+00  0.0000E+00  0.0000E+00  0.0000E+00
    -35.156  0.0000E+00  0.0000E+00  0.0000E+00  0.0000E+00
    -34.992  0.0000E+00  0.0000E+00  0.0000E+00  0.0000E+00
    -34.829  0.0000E+00  0.0000E+00  0.0000E+00  0.0000E+00
    -34.665  0.0000E+00  0.0000E+00  0.0000E+00  0.0000E+00
    -34.502  0.0000E+00  0.0000E+00  0.0000E+00  0.0000E+00
    -34.338  0.0000E+00  0.0000E+00  0.0000E+00  0.0000E+00
    -34.175  0.0000E+00  0.0000E+00  0.0000E+00  0.0000E+00
    -34.011  0.0000E+00  0.0000E+00  0.0000E+00  0.0000E+00
    -33.848  0.4079E-02  0.4112E-02  0.6667E-03  0.6721E-03
    -33.685  0.1027E+00  0.1035E+00  0.1745E-01  0.1759E-01
    -33.521  0.2421E+01  0.2438E+01  0.4131E+00  0.4161E+00
    -33.358  0.1587E+02  0.1588E+02  0.3006E+01  0.3012E+01
    -33.194  0.5775E+01  0.5741E+01  0.3950E+01  0.3951E+01
    -33.031  0.2923E+00  0.2900E+00  0.3998E+01  0.3998E+01
    -32.867  0.0000E+00  0.0000E+00  0.4000E+01  0.4000E+01
    -32.704  0.0000E+00  0.0000E+00  0.4000E+01  0.4000E+01
    -32.540  0.0000E+00  0.0000E+00  0.4000E+01  0.4000E+01
    -32.377  0.0000E+00  0.0000E+00  0.4000E+01  0.4000E+01
    -32.214  0.0000E+00  0.0000E+00  0.4000E+01  0.4000E+01
    -32.050  0.0000E+00  0.0000E+00  0.4000E+01  0.4000E+01
    -31.887  0.0000E+00  0.0000E+00  0.4000E+01  0.4000E+01
    -31.723  0.0000E+00  0.0000E+00  0.4000E+01  0.4000E+01
    -31.560  0.0000E+00  0.0000E+00  0.4000E+01  0.4000E+01
    -31.396  0.0000E+00  0.0000E+00  0.4000E+01  0.4000E+01
    -31.233  0.0000E+00  0.0000E+00  0.4000E+01  0.4000E+01
    -31.069  0.0000E+00  0.0000E+00  0.4000E+01  0.4000E+01
    -30.906  0.0000E+00  0.0000E+00  0.4000E+01  0.4000E+01
    -30.742  0.0000E+00  0.0000E+00  0.4000E+01  0.4000E+01
    -30.579  0.0000E+00  0.0000E+00  0.4000E+01  0.4000E+01
    -30.416  0.0000E+00  0.0000E+00  0.4000E+01  0.4000E+01
    -30.252  0.0000E+00  0.0000E+00  0.4000E+01  0.4000E+01
    -30.089  0.0000E+00  0.0000E+00  0.4000E+01  0.4000E+01
    -29.925  0.0000E+00  0.0000E+00  0.4000E+01  0.4000E+01
    -29.762  0.0000E+00  0.0000E+00  0.4000E+01  0.4000E+01
    -29.598  0.0000E+00  0.0000E+00  0.4000E+01  0.4000E+01
    -29.435  0.0000E+00  0.0000E+00  0.4000E+01  0.4000E+01
    -29.271  0.0000E+00  0.0000E+00  0.4000E+01  0.4000E+01
    -29.108  0.0000E+00  0.0000E+00  0.4000E+01  0.4000E+01
    -28.944  0.0000E+00  0.0000E+00  0.4000E+01  0.4000E+01
    -28.781  0.0000E+00  0.0000E+00  0.4000E+01  0.4000E+01
    -28.618  0.0000E+00  0.0000E+00  0.4000E+01  0.4000E+01
    -28.454  0.0000E+00  0.0000E+00  0.4000E+01  0.4000E+01
    -28.291  0.0000E+00  0.0000E+00  0.4000E+01  0.4000E+01
    -28.127  0.0000E+00  0.0000E+00  0.4000E+01  0.4000E+01
    -27.964  0.0000E+00  0.0000E+00  0.4000E+01  0.4000E+01
    -27.800  0.0000E+00  0.0000E+00  0.4000E+01  0.4000E+01
    -27.637  0.0000E+00  0.0000E+00  0.4000E+01  0.4000E+01
    -27.473  0.0000E+00  0.0000E+00  0.4000E+01  0.4000E+01
    -27.310  0.0000E+00  0.0000E+00  0.4000E+01  0.4000E+01
    -27.147  0.0000E+00  0.0000E+00  0.4000E+01  0.4000E+01
    -26.983  0.0000E+00  0.0000E+00  0.4000E+01  0.4000E+01
    -26.820  0.0000E+00  0.0000E+00  0.4000E+01  0.4000E+01
    -26.656  0.0000E+00  0.0000E+00  0.4000E+01  0.4000E+01
    -26.493  0.0000E+00  0.0000E+00  0.4000E+01  0.4000E+01
    -26.329  0.0000E+00  0.0000E+00  0.4000E+01  0.4000E+01
    -26.166  0.0000E+00  0.0000E+00  0.4000E+01  0.4000E+01
    -26.002  0.0000E+00  0.0000E+00  0.4000E+01  0.4000E+01
    -25.839  0.0000E+00  0.0000E+00  0.4000E+01  0.4000E+01
    -25.675  0.0000E+00  0.0000E+00  0.4000E+01  0.4000E+01
    -25.512  0.0000E+00  0.0000E+00  0.4000E+01  0.4000E+01
    -25.349  0.0000E+00  0.0000E+00  0.4000E+01  0.4000E+01
    -25.185  0.0000E+00  0.0000E+00  0.4000E+01  0.4000E+01
    -25.022  0.0000E+00  0.0000E+00  0.4000E+01  0.4000E+01
    -24.858  0.0000E+00  0.0000E+00  0.4000E+01  0.4000E+01
    -24.695  0.0000E+00  0.0000E+00  0.4000E+01  0.4000E+01
    -24.531  0.0000E+00  0.0000E+00  0.4000E+01  0.4000E+01
    -24.368  0.0000E+00  0.0000E+00  0.4000E+01  0.4000E+01
    -24.204  0.0000E+00  0.0000E+00  0.4000E+01  0.4000E+01
    -24.041  0.0000E+00  0.0000E+00  0.4000E+01  0.4000E+01
    -23.877  0.0000E+00  0.0000E+00  0.4000E+01  0.4000E+01
    -23.714  0.0000E+00  0.0000E+00  0.4000E+01  0.4000E+01
    -23.551  0.0000E+00  0.0000E+00  0.4000E+01  0.4000E+01
    -23.387  0.0000E+00  0.0000E+00  0.4000E+01  0.4000E+01
    -23.224  0.0000E+00  0.0000E+00  0.4000E+01  0.4000E+01
    -23.060  0.0000E+00  0.0000E+00  0.4000E+01  0.4000E+01
    -22.897  0.0000E+00  0.0000E+00  0.4000E+01  0.4000E+01
    -22.733  0.0000E+00  0.0000E+00  0.4000E+01  0.4000E+01
    -22.570  0.0000E+00  0.0000E+00  0.4000E+01  0.4000E+01
    -22.406  0.0000E+00  0.0000E+00  0.4000E+01  0.4000E+01
    -22.243  0.0000E+00  0.0000E+00  0.4000E+01  0.4000E+01
    -22.080  0.0000E+00  0.0000E+00  0.4000E+01  0.4000E+01
    -21.916  0.0000E+00  0.0000E+00  0.4000E+01  0.4000E+01
    -21.753  0.0000E+00  0.0000E+00  0.4000E+01  0.4000E+01
    -21.589  0.0000E+00  0.0000E+00  0.4000E+01  0.4000E+01
    -21.426  0.0000E+00  0.0000E+00  0.4000E+01  0.4000E+01
    -21.262  0.0000E+00  0.0000E+00  0.4000E+01  0.4000E+01
    -21.099  0.0000E+00  0.0000E+00  0.4000E+01  0.4000E+01
    -20.935  0.0000E+00  0.0000E+00  0.4000E+01  0.4000E+01
    -20.772  0.0000E+00  0.0000E+00  0.4000E+01  0.4000E+01
    -20.608  0.0000E+00  0.0000E+00  0.4000E+01  0.4000E+01
    -20.445  0.0000E+00  0.0000E+00  0.4000E+01  0.4000E+01
    -20.282  0.0000E+00  0.0000E+00  0.4000E+01  0.4000E+01
    -20.118  0.0000E+00  0.0000E+00  0.4000E+01  0.4000E+01
    -19.955  0.0000E+00  0.0000E+00  0.4000E+01  0.4000E+01
    -19.791  0.0000E+00  0.0000E+00  0.4000E+01  0.4000E+01
    -19.628  0.0000E+00  0.0000E+00  0.4000E+01  0.4000E+01
    -19.464  0.0000E+00  0.0000E+00  0.4000E+01  0.4000E+01
    -19.301  0.0000E+00  0.0000E+00  0.4000E+01  0.4000E+01
    -19.137  0.0000E+00  0.0000E+00  0.4000E+01  0.4000E+01
    -18.974  0.0000E+00  0.0000E+00  0.4000E+01  0.4000E+01
    -18.811  0.0000E+00  0.0000E+00  0.4000E+01  0.4000E+01
    -18.647  0.0000E+00  0.0000E+00  0.4000E+01  0.4000E+01
    -18.484  0.0000E+00  0.0000E+00  0.4000E+01  0.4000E+01
    -18.320  0.0000E+00  0.0000E+00  0.4000E+01  0.4000E+01
    -18.157  0.0000E+00  0.0000E+00  0.4000E+01  0.4000E+01
    -17.993  0.0000E+00  0.0000E+00  0.4000E+01  0.4000E+01
    -17.830  0.0000E+00  0.0000E+00  0.4000E+01  0.4000E+01
    -17.666  0.0000E+00  0.0000E+00  0.4000E+01  0.4000E+01
    -17.503  0.0000E+00  0.0000E+00  0.4000E+01  0.4000E+01
    -17.339  0.0000E+00  0.0000E+00  0.4000E+01  0.4000E+01
    -17.176  0.0000E+00  0.0000E+00  0.4000E+01  0.4000E+01
    -17.013  0.0000E+00  0.0000E+00  0.4000E+01  0.4000E+01
    -16.849  0.0000E+00  0.0000E+00  0.4000E+01  0.4000E+01
    -16.686  0.0000E+00  0.0000E+00  0.4000E+01  0.4000E+01
    -16.522  0.0000E+00  0.0000E+00  0.4000E+01  0.4000E+01
    -16.359  0.0000E+00  0.0000E+00  0.4000E+01  0.4000E+01
    -16.195  0.0000E+00  0.0000E+00  0.4000E+01  0.4000E+01
    -16.032  0.0000E+00  0.0000E+00  0.4000E+01  0.4000E+01
    -15.868  0.0000E+00  0.0000E+00  0.4000E+01  0.4000E+01
    -15.705  0.0000E+00  0.0000E+00  0.4000E+01  0.4000E+01
    -15.541  0.0000E+00  0.0000E+00  0.4000E+01  0.4000E+01
    -15.378  0.0000E+00  0.0000E+00  0.4000E+01  0.4000E+01
    -15.215  0.2225E-04  0.2363E-04  0.4000E+01  0.4000E+01
    -15.051  0.1001E-01  0.1007E-01  0.4002E+01  0.4002E+01
    -14.888  0.2524E+00  0.2541E+00  0.4043E+01  0.4043E+01
    -14.724  0.5898E+01  0.5933E+01  0.5007E+01  0.5013E+01
    -14.561  0.4260E+02  0.4267E+02  0.1197E+02  0.1199E+02
    -14.397  0.2313E+02  0.2303E+02  0.1575E+02  0.1575E+02
    -14.234  0.1389E+01  0.1379E+01  0.1599E+02  0.1599E+02
    -14.070  0.0000E+00  0.0000E+00  0.1600E+02  0.1600E+02
    -13.907  0.0000E+00  0.0000E+00  0.1600E+02  0.1600E+02
    -13.744  0.0000E+00  0.0000E+00  0.1600E+02  0.1600E+02
    -13.580  0.0000E+00  0.0000E+00  0.1600E+02  0.1600E+02
    -13.417  0.0000E+00  0.0000E+00  0.1600E+02  0.1600E+02
    -13.253  0.0000E+00  0.0000E+00  0.1600E+02  0.1600E+02
    -13.090  0.0000E+00  0.0000E+00  0.1600E+02  0.1600E+02
    -12.926  0.0000E+00  0.0000E+00  0.1600E+02  0.1600E+02
    -12.763  0.0000E+00  0.0000E+00  0.1600E+02  0.1600E+02
    -12.599  0.0000E+00  0.0000E+00  0.1600E+02  0.1600E+02
    -12.436  0.0000E+00  0.0000E+00  0.1600E+02  0.1600E+02
    -12.272  0.0000E+00  0.0000E+00  0.1600E+02  0.1600E+02
    -12.109  0.0000E+00  0.0000E+00  0.1600E+02  0.1600E+02
    -11.946  0.0000E+00  0.0000E+00  0.1600E+02  0.1600E+02
    -11.782  0.0000E+00  0.0000E+00  0.1600E+02  0.1600E+02
    -11.619  0.0000E+00  0.0000E+00  0.1600E+02  0.1600E+02
    -11.455  0.0000E+00  0.0000E+00  0.1600E+02  0.1600E+02
    -11.292  0.0000E+00  0.0000E+00  0.1600E+02  0.1600E+02
    -11.128  0.0000E+00  0.0000E+00  0.1600E+02  0.1600E+02
    -10.965  0.0000E+00  0.0000E+00  0.1600E+02  0.1600E+02
    -10.801  0.0000E+00  0.0000E+00  0.1600E+02  0.1600E+02
    -10.638  0.0000E+00  0.0000E+00  0.1600E+02  0.1600E+02
    -10.475  0.0000E+00  0.0000E+00  0.1600E+02  0.1600E+02
    -10.311  0.0000E+00  0.0000E+00  0.1600E+02  0.1600E+02
    -10.148  0.0000E+00  0.0000E+00  0.1600E+02  0.1600E+02
     -9.984  0.0000E+00  0.0000E+00  0.1600E+02  0.1600E+02
     -9.821  0.0000E+00  0.0000E+00  0.1600E+02  0.1600E+02
     -9.657  0.0000E+00  0.0000E+00  0.1600E+02  0.1600E+02
     -9.494  0.0000E+00  0.0000E+00  0.1600E+02  0.1600E+02
     -9.330  0.0000E+00  0.0000E+00  0.1600E+02  0.1600E+02
     -9.167  0.0000E+00  0.0000E+00  0.1600E+02  0.1600E+02
     -9.003  0.0000E+00  0.0000E+00  0.1600E+02  0.1600E+02
     -8.840  0.0000E+00  0.0000E+00  0.1600E+02  0.1600E+02
     -8.677  0.0000E+00  0.0000E+00  0.1600E+02  0.1600E+02
     -8.513  0.0000E+00  0.0000E+00  0.1600E+02  0.1600E+02
     -8.350  0.0000E+00  0.0000E+00  0.1600E+02  0.1600E+02
     -8.186  0.0000E+00  0.0000E+00  0.1600E+02  0.1600E+02
     -8.023  0.0000E+00  0.0000E+00  0.1600E+02  0.1600E+02
     -7.859  0.0000E+00  0.0000E+00  0.1600E+02  0.1600E+02
     -7.696  0.0000E+00  0.0000E+00  0.1600E+02  0.1600E+02
     -7.532  0.0000E+00  0.0000E+00  0.1600E+02  0.1600E+02
     -7.369  0.0000E+00  0.0000E+00  0.1600E+02  0.1600E+02
     -7.205  0.0000E+00  0.0000E+00  0.1600E+02  0.1600E+02
     -7.042  0.0000E+00  0.0000E+00  0.1600E+02  0.1600E+02
     -6.879  0.0000E+00  0.0000E+00  0.1600E+02  0.1600E+02
     -6.715  0.0000E+00  0.0000E+00  0.1600E+02  0.1600E+02
     -6.552  0.0000E+00  0.0000E+00  0.1600E+02  0.1600E+02
     -6.388  0.0000E+00  0.0000E+00  0.1600E+02  0.1600E+02
     -6.225  0.0000E+00  0.0000E+00  0.1600E+02  0.1600E+02
     -6.061  0.0000E+00  0.0000E+00  0.1600E+02  0.1600E+02
     -5.898  0.0000E+00  0.0000E+00  0.1600E+02  0.1600E+02
     -5.734  0.0000E+00  0.0000E+00  0.1600E+02  0.1600E+02
     -5.571  0.0000E+00  0.0000E+00  0.1600E+02  0.1600E+02
     -5.408  0.0000E+00  0.0000E+00  0.1600E+02  0.1600E+02
     -5.244  0.0000E+00  0.0000E+00  0.1600E+02  0.1600E+02
     -5.081  0.0000E+00  0.0000E+00  0.1600E+02  0.1600E+02
     -4.917  0.0000E+00  0.0000E+00  0.1600E+02  0.1600E+02
     -4.754  0.0000E+00  0.0000E+00  0.1600E+02  0.1600E+02
     -4.590  0.0000E+00  0.0000E+00  0.1600E+02  0.1600E+02
     -4.427  0.0000E+00  0.0000E+00  0.1600E+02  0.1600E+02
     -4.263  0.0000E+00  0.0000E+00  0.1600E+02  0.1600E+02
     -4.100  0.0000E+00  0.0000E+00  0.1600E+02  0.1600E+02
     -3.936  0.0000E+00  0.0000E+00  0.1600E+02  0.1600E+02
     -3.773  0.0000E+00  0.0000E+00  0.1600E+02  0.1600E+02
     -3.610  0.0000E+00  0.0000E+00  0.1600E+02  0.1600E+02
     -3.446  0.2008E-06  0.2008E-06  0.1600E+02  0.1600E+02
     -3.283  0.2469E-04  0.2469E-04  0.1600E+02  0.1600E+02
     -3.119  0.6610E-03  0.6610E-03  0.1600E+02  0.1600E+02
     -2.956  0.1573E-01  0.1573E-01  0.1600E+02  0.1600E+02
     -2.792  0.1622E+00  0.1622E+00  0.1603E+02  0.1603E+02
     -2.629  0.4296E+00  0.4296E+00  0.1610E+02  0.1610E+02
     -2.465  0.6246E+00  0.6246E+00  0.1620E+02  0.1620E+02
     -2.302  0.7544E+00  0.7544E+00  0.1632E+02  0.1632E+02
     -2.139  0.7323E+00  0.7323E+00  0.1644E+02  0.1644E+02
     -1.975  0.8175E+00  0.8174E+00  0.1658E+02  0.1658E+02
     -1.812  0.9550E+00  0.9549E+00  0.1674E+02  0.1674E+02
     -1.648  0.1016E+01  0.1016E+01  0.1690E+02  0.1690E+02
     -1.485  0.1232E+01  0.1232E+01  0.1710E+02  0.1710E+02
     -1.321  0.1295E+01  0.1294E+01  0.1732E+02  0.1732E+02
     -1.158  0.1390E+01  0.1390E+01  0.1754E+02  0.1754E+02
     -0.994  0.1546E+01  0.1546E+01  0.1780E+02  0.1780E+02
     -0.831  0.1830E+01  0.1830E+01  0.1810E+02  0.1810E+02
     -0.667  0.1709E+01  0.1708E+01  0.1838E+02  0.1838E+02
     -0.504  0.1821E+01  0.1821E+01  0.1868E+02  0.1867E+02
     -0.341  0.1745E+01  0.1745E+01  0.1896E+02  0.1896E+02
     -0.177  0.1758E+01  0.1758E+01  0.1925E+02  0.1925E+02
     -0.014  0.1527E+01  0.1527E+01  0.1950E+02  0.1950E+02
      0.150  0.1669E+01  0.1670E+01  0.1977E+02  0.1977E+02
      0.313  0.2068E+01  0.2068E+01  0.2011E+02  0.2011E+02
      0.477  0.2348E+01  0.2348E+01  0.2050E+02  0.2050E+02
      0.640  0.1894E+01  0.1894E+01  0.2081E+02  0.2081E+02
      0.804  0.2003E+01  0.2003E+01  0.2114E+02  0.2114E+02
      0.967  0.1910E+01  0.1909E+01  0.2145E+02  0.2145E+02
      1.131  0.2138E+01  0.2138E+01  0.2180E+02  0.2180E+02
      1.294  0.2184E+01  0.2184E+01  0.2216E+02  0.2216E+02
      1.457  0.1904E+01  0.1904E+01  0.2247E+02  0.2247E+02
      1.621  0.2004E+01  0.2004E+01  0.2280E+02  0.2280E+02
      1.784  0.2560E+01  0.2560E+01  0.2322E+02  0.2322E+02
      1.948  0.2682E+01  0.2682E+01  0.2366E+02  0.2366E+02
      2.111  0.2467E+01  0.2467E+01  0.2406E+02  0.2406E+02
      2.275  0.2798E+01  0.2798E+01  0.2452E+02  0.2452E+02
      2.438  0.2468E+01  0.2468E+01  0.2492E+02  0.2492E+02
      2.602  0.2338E+01  0.2337E+01  0.2531E+02  0.2531E+02
      2.765  0.2372E+01  0.2372E+01  0.2569E+02  0.2569E+02
      2.928  0.2611E+01  0.2611E+01  0.2612E+02  0.2612E+02
      3.092  0.2236E+01  0.2236E+01  0.2649E+02  0.2649E+02
      3.255  0.2412E+01  0.2411E+01  0.2688E+02  0.2688E+02
      3.419  0.2567E+01  0.2568E+01  0.2730E+02  0.2730E+02
      3.582  0.1973E+01  0.1974E+01  0.2763E+02  0.2763E+02
      3.746  0.2721E+01  0.2721E+01  0.2807E+02  0.2807E+02
      3.909  0.3277E+01  0.3277E+01  0.2861E+02  0.2861E+02
      4.073  0.3496E+01  0.3496E+01  0.2918E+02  0.2918E+02
      4.236  0.3488E+01  0.3488E+01  0.2975E+02  0.2975E+02
      4.400  0.3554E+01  0.3554E+01  0.3034E+02  0.3034E+02
      4.563  0.3725E+01  0.3725E+01  0.3095E+02  0.3095E+02
      4.726  0.5022E+01  0.5022E+01  0.3177E+02  0.3177E+02
      4.890  0.4294E+01  0.4294E+01  0.3247E+02  0.3247E+02
      5.053  0.4820E+01  0.4820E+01  0.3326E+02  0.3326E+02
      5.217  0.3652E+01  0.3652E+01  0.3386E+02  0.3386E+02
      5.380  0.3415E+01  0.3415E+01  0.3442E+02  0.3442E+02
      5.544  0.3190E+01  0.3189E+01  0.3494E+02  0.3494E+02
      5.707  0.3240E+01  0.3240E+01  0.3547E+02  0.3548E+02
      5.871  0.3034E+01  0.3034E+01  0.3597E+02  0.3597E+02
      6.034  0.3315E+01  0.3316E+01  0.3651E+02  0.3652E+02
      6.197  0.3791E+01  0.3791E+01  0.3714E+02  0.3714E+02
      6.361  0.3460E+01  0.3460E+01  0.3770E+02  0.3770E+02
      6.524  0.3538E+01  0.3537E+01  0.3828E+02  0.3828E+02
      6.688  0.3465E+01  0.3465E+01  0.3885E+02  0.3885E+02
      6.851  0.3892E+01  0.3892E+01  0.3949E+02  0.3949E+02
      7.015  0.3740E+01  0.3740E+01  0.4010E+02  0.4010E+02
      7.178  0.3942E+01  0.3942E+01  0.4075E+02  0.4075E+02
      7.342  0.3274E+01  0.3273E+01  0.4128E+02  0.4128E+02
      7.505  0.3087E+01  0.3087E+01  0.4179E+02  0.4179E+02
      7.669  0.3331E+01  0.3330E+01  0.4233E+02  0.4234E+02
      7.832  0.3396E+01  0.3397E+01  0.4289E+02  0.4289E+02
      7.995  0.3402E+01  0.3402E+01  0.4345E+02  0.4345E+02
      8.159  0.3722E+01  0.3722E+01  0.4406E+02  0.4406E+02
      8.322  0.3455E+01  0.3454E+01  0.4462E+02  0.4462E+02
      8.486  0.3056E+01  0.3056E+01  0.4513E+02  0.4513E+02
      8.649  0.3394E+01  0.3394E+01  0.4568E+02  0.4568E+02
      8.813  0.4297E+01  0.4287E+01  0.4639E+02  0.4638E+02
      8.976  0.4220E+01  0.4230E+01  0.4708E+02  0.4708E+02
      9.140  0.4920E+01  0.4919E+01  0.4788E+02  0.4788E+02
      9.303  0.4654E+01  0.4608E+01  0.4865E+02  0.4864E+02
      9.467  0.4280E+01  0.4352E+01  0.4935E+02  0.4935E+02
      9.630  0.3498E+01  0.3506E+01  0.4992E+02  0.4993E+02
      9.793  0.3178E+01  0.3058E+01  0.5044E+02  0.5043E+02
      9.957  0.2293E+01  0.2362E+01  0.5082E+02  0.5082E+02
     10.120  0.1944E+01  0.1833E+01  0.5114E+02  0.5112E+02
     10.284  0.1724E+01  0.1689E+01  0.5142E+02  0.5139E+02
     10.447  0.8344E+00  0.9225E+00  0.5156E+02  0.5155E+02
     10.611  0.1004E+01  0.1123E+01  0.5172E+02  0.5173E+02
     10.774  0.8094E+00  0.7726E+00  0.5186E+02  0.5186E+02
     10.938  0.4514E+00  0.4966E+00  0.5193E+02  0.5194E+02
     11.101  0.2905E+00  0.2777E+00  0.5198E+02  0.5198E+02
     11.264  0.1214E+00  0.8863E-01  0.5200E+02  0.5200E+02
     11.428  0.1279E-01  0.8101E-02  0.5200E+02  0.5200E+02
     11.591  0.0000E+00  0.0000E+00  0.5200E+02  0.5200E+02
     11.755  0.0000E+00  0.0000E+00  0.5200E+02  0.5200E+02
     11.918  0.0000E+00  0.0000E+00  0.5200E+02  0.5200E+02
     12.082  0.0000E+00  0.0000E+00  0.5200E+02  0.5200E+02
     12.245  0.0000E+00  0.0000E+00  0.5200E+02  0.5200E+02
     12.409  0.0000E+00  0.0000E+00  0.5200E+02  0.5200E+02
     12.572  0.0000E+00  0.0000E+00  0.5200E+02  0.5200E+02
     12.736  0.0000E+00  0.0000E+00  0.5200E+02  0.5200E+02
     12.899  0.0000E+00  0.0000E+00  0.5200E+02  0.5200E+02
     13.062  0.0000E+00  0.0000E+00  0.5200E+02  0.5200E+02
     13.226  0.0000E+00  0.0000E+00  0.5200E+02  0.5200E+02
     13.389  0.0000E+00  0.0000E+00  0.5200E+02  0.5200E+02
     13.38933930    -35.64597453  301      6.44215411      1.00000000
    -35.646  0.0000E+00  0.0000E+00  0.0000E+00  0.0000E+00  0.0000E+00  0.0000E+00  0.0000E+00  0.0000E+00  0.0000E+00  0.0000E+00  0.0000E+00  0.0000E+00  0.0000E+00  0.0000E+00  0.0000E+00  0.0000E+00  0.0000E+00  0.0000E+00
    -35.483  0.0000E+00  0.0000E+00  0.0000E+00  0.0000E+00  0.0000E+00  0.0000E+00  0.0000E+00  0.0000E+00  0.0000E+00  0.0000E+00  0.0000E+00  0.0000E+00  0.0000E+00  0.0000E+00  0.0000E+00  0.0000E+00  0.0000E+00  0.0000E+00
    -35.319  0.0000E+00  0.0000E+00  0.0000E+00  0.0000E+00  0.0000E+00  0.0000E+00  0.0000E+00  0.0000E+00  0.0000E+00  0.0000E+00  0.0000E+00  0.0000E+00  0.0000E+00  0.0000E+00  0.0000E+00  0.0000E+00  0.0000E+00  0.0000E+00
    -35.156  0.0000E+00  0.0000E+00  0.0000E+00  0.0000E+00  0.0000E+00  0.0000E+00  0.0000E+00  0.0000E+00  0.0000E+00  0.0000E+00  0.0000E+00  0.0000E+00  0.0000E+00  0.0000E+00  0.0000E+00  0.0000E+00  0.0000E+00  0.0000E+00
    -34.992  0.0000E+00  0.0000E+00  0.0000E+00  0.0000E+00  0.0000E+00  0.0000E+00  0.0000E+00  0.0000E+00  0.0000E+00  0.0000E+00  0.0000E+00  0.0000E+00  0.0000E+00  0.0000E+00  0.0000E+00  0.0000E+00  0.0000E+00  0.0000E+00
    -34.829  0.0000E+00  0.0000E+00  0.0000E+00  0.0000E+00  0.0000E+00  0.0000E+00  0.0000E+00  0.0000E+00  0.0000E+00  0.0000E+00  0.0000E+00  0.0000E+00  0.0000E+00  0.0000E+00  0.0000E+00  0.0000E+00  0.0000E+00  0.0000E+00
    -34.665  0.0000E+00  0.0000E+00  0.0000E+00  0.0000E+00  0.0000E+00  0.0000E+00  0.0000E+00  0.0000E+00  0.0000E+00  0.0000E+00  0.0000E+00  0.0000E+00  0.0000E+00  0.0000E+00  0.0000E+00  0.0000E+00  0.0000E+00  0.0000E+00
    -34.502  0.0000E+00  0.0000E+00  0.0000E+00  0.0000E+00  0.0000E+00  0.0000E+00  0.0000E+00  0.0000E+00  0.0000E+00  0.0000E+00  0.0000E+00  0.0000E+00  0.0000E+00  0.0000E+00  0.0000E+00  0.0000E+00  0.0000E+00  0.0000E+00
    -34.338  0.0000E+00  0.0000E+00  0.0000E+00  0.0000E+00  0.0000E+00  0.0000E+00  0.0000E+00  0.0000E+00  0.0000E+00  0.0000E+00  0.0000E+00  0.0000E+00  0.0000E+00  0.0000E+00  0.0000E+00  0.0000E+00  0.0000E+00  0.0000E+00
    -34.175  0.0000E+00  0.0000E+00  0.0000E+00  0.0000E+00  0.0000E+00  0.0000E+00  0.0000E+00  0.0000E+00  0.0000E+00  0.0000E+00  0.0000E+00  0.0000E+00  0.0000E+00  0.0000E+00  0.0000E+00  0.0000E+00  0.0000E+00  0.0000E+00
    -34.011  0.0000E+00  0.0000E+00  0.0000E+00  0.0000E+00  0.0000E+00  0.0000E+00  0.0000E+00  0.0000E+00  0.0000E+00  0.0000E+00  0.0000E+00  0.0000E+00  0.0000E+00  0.0000E+00  0.0000E+00  0.0000E+00  0.0000E+00  0.0000E+00
    -33.848  0.1004E-02  0.1012E-02  0.9179E-11  0.9199E-11  0.6248E-09  0.6306E-09  0.9179E-11  0.9199E-11  0.4468E-14  0.2885E-14  0.1543E-13  0.1240E-13  0.3118E-09  0.3095E-09  0.1543E-13  0.1240E-13  0.5847E-11  0.5979E-11
    -33.685  0.2527E-01  0.2548E-01  0.2311E-09  0.2316E-09  0.1573E-07  0.1587E-07  0.2311E-09  0.2316E-09  0.1125E-12  0.7262E-13  0.3883E-12  0.3122E-12  0.7848E-08  0.7791E-08  0.3883E-12  0.3122E-12  0.1472E-09  0.1505E-09
    -33.521  0.5958E+00  0.6000E+00  0.5447E-08  0.5454E-08  0.3709E-06  0.3741E-06  0.5447E-08  0.5454E-08  0.2656E-11  0.1712E-11  0.9156E-11  0.7354E-11  0.1850E-06  0.1835E-06  0.9156E-11  0.7354E-11  0.3470E-08  0.3545E-08
    -33.358  0.3905E+01  0.3909E+01  0.3568E-07  0.3550E-07  0.2439E-05  0.2445E-05  0.3568E-07  0.3550E-07  0.1764E-10  0.1125E-10  0.6008E-10  0.4791E-10  0.1212E-05  0.1195E-05  0.6008E-10  0.4791E-10  0.2275E-07  0.2310E-07
    -33.194  0.1421E+01  0.1413E+01  0.1298E-07  0.1282E-07  0.8914E-06  0.8871E-06  0.1298E-07  0.1282E-07  0.6520E-11  0.4106E-11  0.2190E-10  0.1731E-10  0.4412E-06  0.4319E-06  0.2190E-10  0.1731E-10  0.8281E-08  0.8348E-08
    -33.031  0.7193E-01  0.7136E-01  0.6564E-09  0.6472E-09  0.4516E-07  0.4485E-07  0.6564E-09  0.6472E-09  0.3314E-12  0.2079E-12  0.1109E-11  0.8744E-12  0.2233E-07  0.2181E-07  0.1109E-11  0.8744E-12  0.4190E-09  0.4216E-09
    -32.867  0.0000E+00  0.0000E+00  0.0000E+00  0.0000E+00  0.0000E+00  0.0000E+00  0.0000E+00  0.0000E+00  0.0000E+00  0.0000E+00  0.0000E+00  0.0000E+00  0.0000E+00  0.0000E+00  0.0000E+00  0.0000E+00  0.0000E+00  0.0000E+00
    -32.704  0.0000E+00  0.0000E+00  0.0000E+00  0.0000E+00  0.0000E+00  0.0000E+00  0.0000E+00  0.0000E+00  0.0000E+00  0.0000E+00  0.0000E+00  0.0000E+00  0.0000E+00  0.0000E+00  0.0000E+00  0.0000E+00  0.0000E+00  0.0000E+00
    -32.540  0.0000E+00  0.0000E+00  0.0000E+00  0.0000E+00  0.0000E+00  0.0000E+00  0.0000E+00  0.0000E+00  0.0000E+00  0.0000E+00  0.0000E+00  0.0000E+00  0.0000E+00  0.0000E+00  0.0000E+00  0.0000E+00  0.0000E+00  0.0000E+00
    -32.377  0.0000E+00  0.0000E+00  0.0000E+00  0.0000E+00  0.0000E+00  0.0000E+00  0.0000E+00  0.0000E+00  0.0000E+00  0.0000E+00  0.0000E+00  0.0000E+00  0.0000E+00  0.0000E+00  0.0000E+00  0.0000E+00  0.0000E+00  0.0000E+00
    -32.214  0.0000E+00  0.0000E+00  0.0000E+00  0.0000E+00  0.0000E+00  0.0000E+00  0.0000E+00  0.0000E+00  0.0000E+00  0.0000E+00  0.0000E+00  0.0000E+00  0.0000E+00  0.0000E+00  0.0000E+00  0.0000E+00  0.0000E+00  0.0000E+00
    -32.050  0.0000E+00  0.0000E+00  0.0000E+00  0.0000E+00  0.0000E+00  0.0000E+00  0.0000E+00  0.0000E+00  0.0000E+00  0.0000E+00  0.0000E+00  0.0000E+00  0.0000E+00  0.0000E+00  0.0000E+00  0.0000E+00  0.0000E+00  0.0000E+00
    -31.887  0.0000E+00  0.0000E+00  0.0000E+00  0.0000E+00  0.0000E+00  0.0000E+00  0.0000E+00  0.0000E+00  0.0000E+00  0.0000E+00  0.0000E+00  0.0000E+00  0.0000E+00  0.0000E+00  0.0000E+00  0.0000E+00  0.0000E+00  0.0000E+00
    -31.723  0.0000E+00  0.0000E+00  0.0000E+00  0.0000E+00  0.0000E+00  0.0000E+00  0.0000E+00  0.0000E+00  0.0000E+00  0.0000E+00  0.0000E+00  0.0000E+00  0.0000E+00  0.0000E+00  0.0000E+00  0.0000E+00  0.0000E+00  0.0000E+00
    -31.560  0.0000E+00  0.0000E+00  0.0000E+00  0.0000E+00  0.0000E+00  0.0000E+00  0.0000E+00  0.0000E+00  0.0000E+00  0.0000E+00  0.0000E+00  0.0000E+00  0.0000E+00  0.0000E+00  0.0000E+00  0.0000E+00  0.0000E+00  0.0000E+00
    -31.396  0.0000E+00  0.0000E+00  0.0000E+00  0.0000E+00  0.0000E+00  0.0000E+00  0.0000E+00  0.0000E+00  0.0000E+00  0.0000E+00  0.0000E+00  0.0000E+00  0.0000E+00  0.0000E+00  0.0000E+00  0.0000E+00  0.0000E+00  0.0000E+00
    -31.233  0.0000E+00  0.0000E+00  0.0000E+00  0.0000E+00  0.0000E+00  0.0000E+00  0.0000E+00  0.0000E+00  0.0000E+00  0.0000E+00  0.0000E+00  0.0000E+00  0.0000E+00  0.0000E+00  0.0000E+00  0.0000E+00  0.0000E+00  0.0000E+00
    -31.069  0.0000E+00  0.0000E+00  0.0000E+00  0.0000E+00  0.0000E+00  0.0000E+00  0.0000E+00  0.0000E+00  0.0000E+00  0.0000E+00  0.0000E+00  0.0000E+00  0.0000E+00  0.0000E+00  0.0000E+00  0.0000E+00  0.0000E+00  0.0000E+00
    -30.906  0.0000E+00  0.0000E+00  0.0000E+00  0.0000E+00  0.0000E+00  0.0000E+00  0.0000E+00  0.0000E+00  0.0000E+00  0.0000E+00  0.0000E+00  0.0000E+00  0.0000E+00  0.0000E+00  0.0000E+00  0.0000E+00  0.0000E+00  0.0000E+00
    -30.742  0.0000E+00  0.0000E+00  0.0000E+00  0.0000E+00  0.0000E+00  0.0000E+00  0.0000E+00  0.0000E+00  0.0000E+00  0.0000E+00  0.0000E+00  0.0000E+00  0.0000E+00  0.0000E+00  0.0000E+00  0.0000E+00  0.0000E+00  0.0000E+00
    -30.579  0.0000E+00  0.0000E+00  0.0000E+00  0.0000E+00  0.0000E+00  0.0000E+00  0.0000E+00  0.0000E+00  0.0000E+00  0.0000E+00  0.0000E+00  0.0000E+00  0.0000E+00  0.0000E+00  0.0000E+00  0.0000E+00  0.0000E+00  0.0000E+00
    -30.416  0.0000E+00  0.0000E+00  0.0000E+00  0.0000E+00  0.0000E+00  0.0000E+00  0.0000E+00  0.0000E+00  0.0000E+00  0.0000E+00  0.0000E+00  0.0000E+00  0.0000E+00  0.0000E+00  0.0000E+00  0.0000E+00  0.0000E+00  0.0000E+00
    -30.252  0.0000E+00  0.0000E+00  0.0000E+00  0.0000E+00  0.0000E+00  0.0000E+00  0.0000E+00  0.0000E+00  0.0000E+00  0.0000E+00  0.0000E+00  0.0000E+00  0.0000E+00  0.0000E+00  0.0000E+00  0.0000E+00  0.0000E+00  0.0000E+00
    -30.089  0.0000E+00  0.0000E+00  0.0000E+00  0.0000E+00  0.0000E+00  0.0000E+00  0.0000E+00  0.0000E+00  0.0000E+00  0.0000E+00  0.0000E+00  0.0000E+00  0.0000E+00  0.0000E+00  0.0000E+00  0.0000E+00  0.0000E+00  0.0000E+00
    -29.925  0.0000E+00  0.0000E+00  0.0000E+00  0.0000E+00  0.0000E+00  0.0000E+00  0.0000E+00  0.0000E+00  0.0000E+00  0.0000E+00  0.0000E+00  0.0000E+00  0.0000E+00  0.0000E+00  0.0000E+00  0.0000E+00  0.0000E+00  0.0000E+00
    -29.762  0.0000E+00  0.0000E+00  0.0000E+00  0.0000E+00  0.0000E+00  0.0000E+00  0.0000E+00  0.0000E+00  0.0000E+00  0.0000E+00  0.0000E+00  0.0000E+00  0.0000E+00  0.0000E+00  0.0000E+00  0.0000E+00  0.0000E+00  0.0000E+00
    -29.598  0.0000E+00  0.0000E+00  0.0000E+00  0.0000E+00  0.0000E+00  0.0000E+00  0.0000E+00  0.0000E+00  0.0000E+00  0.0000E+00  0.0000E+00  0.0000E+00  0.0000E+00  0.0000E+00  0.0000E+00  0.0000E+00  0.0000E+00  0.0000E+00
    -29.435  0.0000E+00  0.0000E+00  0.0000E+00  0.0000E+00  0.0000E+00  0.0000E+00  0.0000E+00  0.0000E+00  0.0000E+00  0.0000E+00  0.0000E+00  0.0000E+00  0.0000E+00  0.0000E+00  0.0000E+00  0.0000E+00  0.0000E+00  0.0000E+00
    -29.271  0.0000E+00  0.0000E+00  0.0000E+00  0.0000E+00  0.0000E+00  0.0000E+00  0.0000E+00  0.0000E+00  0.0000E+00  0.0000E+00  0.0000E+00  0.0000E+00  0.0000E+00  0.0000E+00  0.0000E+00  0.0000E+00  0.0000E+00  0.0000E+00
    -29.108  0.0000E+00  0.0000E+00  0.0000E+00  0.0000E+00  0.0000E+00  0.0000E+00  0.0000E+00  0.0000E+00  0.0000E+00  0.0000E+00  0.0000E+00  0.0000E+00  0.0000E+00  0.0000E+00  0.0000E+00  0.0000E+00  0.0000E+00  0.0000E+00
    -28.944  0.0000E+00  0.0000E+00  0.0000E+00  0.0000E+00  0.0000E+00  0.0000E+00  0.0000E+00  0.0000E+00  0.0000E+00  0.0000E+00  0.0000E+00  0.0000E+00  0.0000E+00  0.0000E+00  0.0000E+00  0.0000E+00  0.0000E+00  0.0000E+00
    -28.781  0.0000E+00  0.0000E+00  0.0000E+00  0.0000E+00  0.0000E+00  0.0000E+00  0.0000E+00  0.0000E+00  0.0000E+00  0.0000E+00  0.0000E+00  0.0000E+00  0.0000E+00  0.0000E+00  0.0000E+00  0.0000E+00  0.0000E+00  0.0000E+00
    -28.618  0.0000E+00  0.0000E+00  0.0000E+00  0.0000E+00  0.0000E+00  0.0000E+00  0.0000E+00  0.0000E+00  0.0000E+00  0.0000E+00  0.0000E+00  0.0000E+00  0.0000E+00  0.0000E+00  0.0000E+00  0.0000E+00  0.0000E+00  0.0000E+00
    -28.454  0.0000E+00  0.0000E+00  0.0000E+00  0.0000E+00  0.0000E+00  0.0000E+00  0.0000E+00  0.0000E+00  0.0000E+00  0.0000E+00  0.0000E+00  0.0000E+00  0.0000E+00  0.0000E+00  0.0000E+00  0.0000E+00  0.0000E+00  0.0000E+00
    -28.291  0.0000E+00  0.0000E+00  0.0000E+00  0.0000E+00  0.0000E+00  0.0000E+00  0.0000E+00  0.0000E+00  0.0000E+00  0.0000E+00  0.0000E+00  0.0000E+00  0.0000E+00  0.0000E+00  0.0000E+00  0.0000E+00  0.0000E+00  0.0000E+00
    -28.127  0.0000E+00  0.0000E+00  0.0000E+00  0.0000E+00  0.0000E+00  0.0000E+00  0.0000E+00  0.0000E+00  0.0000E+00  0.0000E+00  0.0000E+00  0.0000E+00  0.0000E+00  0.0000E+00  0.0000E+00  0.0000E+00  0.0000E+00  0.0000E+00
    -27.964  0.0000E+00  0.0000E+00  0.0000E+00  0.0000E+00  0.0000E+00  0.0000E+00  0.0000E+00  0.0000E+00  0.0000E+00  0.0000E+00  0.0000E+00  0.0000E+00  0.0000E+00  0.0000E+00  0.0000E+00  0.0000E+00  0.0000E+00  0.0000E+00
    -27.800  0.0000E+00  0.0000E+00  0.0000E+00  0.0000E+00  0.0000E+00  0.0000E+00  0.0000E+00  0.0000E+00  0.0000E+00  0.0000E+00  0.0000E+00  0.0000E+00  0.0000E+00  0.0000E+00  0.0000E+00  0.0000E+00  0.0000E+00  0.0000E+00
    -27.637  0.0000E+00  0.0000E+00  0.0000E+00  0.0000E+00  0.0000E+00  0.0000E+00  0.0000E+00  0.0000E+00  0.0000E+00  0.0000E+00  0.0000E+00  0.0000E+00  0.0000E+00  0.0000E+00  0.0000E+00  0.0000E+00  0.0000E+00  0.0000E+00
    -27.473  0.0000E+00  0.0000E+00  0.0000E+00  0.0000E+00  0.0000E+00  0.0000E+00  0.0000E+00  0.0000E+00  0.0000E+00  0.0000E+00  0.0000E+00  0.0000E+00  0.0000E+00  0.0000E+00  0.0000E+00  0.0000E+00  0.0000E+00  0.0000E+00