  16  16   1   0
  0.1586179E+02  0.4003120E-09  0.4003120E-09  0.1583708E-08  0.5000000E-15
  1.000000000000000E-004
  CAR 
 unknown system                          
     15.15205999    -33.78274592  301      7.84945244      1.00000000
    -33.783  0.0000E+00  0.0000E+00  0.0000E+00  0.0000E+00
    -33.620  0.0000E+00  0.0000E+00  0.0000E+00  0.0000E+00
    -33.457  0.0000E+00  0.0000E+00  0.0000E+00  0.0000E+00
    -33.293  0.0000E+00  0.0000E+00  0.0000E+00  0.0000E+00
    -33.130  0.0000E+00  0.0000E+00  0.0000E+00  0.0000E+00
    -32.967  0.0000E+00  0.0000E+00  0.0000E+00  0.0000E+00
    -32.804  0.0000E+00  0.0000E+00  0.0000E+00  0.0000E+00
    -32.641  0.0000E+00  0.0000E+00  0.0000E+00  0.0000E+00
    -32.478  0.0000E+00  0.0000E+00  0.0000E+00  0.0000E+00
    -32.315  0.0000E+00  0.0000E+00  0.0000E+00  0.0000E+00
    -32.152  0.0000E+00  0.0000E+00  0.0000E+00  0.0000E+00
    -31.988  0.3780E-02  0.3807E-02  0.6166E-03  0.6210E-03
    -31.825  0.9453E-01  0.9521E-01  0.1604E-01  0.1615E-01
    -31.662  0.2233E+01  0.2247E+01  0.3803E+00  0.3827E+00
    -31.499  0.1562E+02  0.1564E+02  0.2929E+01  0.2934E+01
    -31.336  0.6228E+01  0.6196E+01  0.3945E+01  0.3945E+01
    -31.173  0.3261E+00  0.3238E+00  0.3998E+01  0.3998E+01
    -31.010  0.0000E+00  0.0000E+00  0.4000E+01  0.4000E+01
    -30.847  0.0000E+00  0.0000E+00  0.4000E+01  0.4000E+01
    -30.684  0.0000E+00  0.0000E+00  0.4000E+01  0.4000E+01
    -30.520  0.0000E+00  0.0000E+00  0.4000E+01  0.4000E+01
    -30.357  0.0000E+00  0.0000E+00  0.4000E+01  0.4000E+01
    -30.194  0.0000E+00  0.0000E+00  0.4000E+01  0.4000E+01
    -30.031  0.0000E+00  0.0000E+00  0.4000E+01  0.4000E+01
    -29.868  0.0000E+00  0.0000E+00  0.4000E+01  0.4000E+01
    -29.705  0.0000E+00  0.0000E+00  0.4000E+01  0.4000E+01
    -29.542  0.0000E+00  0.0000E+00  0.4000E+01  0.4000E+01
    -29.379  0.0000E+00  0.0000E+00  0.4000E+01  0.4000E+01
    -29.215  0.0000E+00  0.0000E+00  0.4000E+01  0.4000E+01
    -29.052  0.0000E+00  0.0000E+00  0.4000E+01  0.4000E+01
    -28.889  0.0000E+00  0.0000E+00  0.4000E+01  0.4000E+01
    -28.726  0.0000E+00  0.0000E+00  0.4000E+01  0.4000E+01
    -28.563  0.0000E+00  0.0000E+00  0.4000E+01  0.4000E+01
    -28.400  0.0000E+00  0.0000E+00  0.4000E+01  0.4000E+01
    -28.237  0.0000E+00  0.0000E+00  0.4000E+01  0.4000E+01
    -28.074  0.0000E+00  0.0000E+00  0.4000E+01  0.4000E+01
    -27.911  0.0000E+00  0.0000E+00  0.4000E+01  0.4000E+01
    -27.747  0.0000E+00  0.0000E+00  0.4000E+01  0.4000E+01
    -27.584  0.0000E+00  0.0000E+00  0.4000E+01  0.4000E+01
    -27.421  0.0000E+00  0.0000E+00  0.4000E+01  0.4000E+01
    -27.258  0.0000E+00  0.0000E+00  0.4000E+01  0.4000E+01
    -27.095  0.0000E+00  0.0000E+00  0.4000E+01  0.4000E+01
    -26.932  0.0000E+00  0.0000E+00  0.4000E+01  0.4000E+01
    -26.769  0.0000E+00  0.0000E+00  0.4000E+01  0.4000E+01
    -26.606  0.0000E+00  0.0000E+00  0.4000E+01  0.4000E+01
    -26.443  0.0000E+00  0.0000E+00  0.4000E+01  0.4000E+01
    -26.279  0.0000E+00  0.0000E+00  0.4000E+01  0.4000E+01
    -26.116  0.0000E+00  0.0000E+00  0.4000E+01  0.4000E+01
    -25.953  0.0000E+00  0.0000E+00  0.4000E+01  0.4000E+01
    -25.790  0.0000E+00  0.0000E+00  0.4000E+01  0.4000E+01
    -25.627  0.0000E+00  0.0000E+00  0.4000E+01  0.4000E+01
    -25.464  0.0000E+00  0.0000E+00  0.4000E+01  0.4000E+01
    -25.301  0.0000E+00  0.0000E+00  0.4000E+01  0.4000E+01
    -25.138  0.0000E+00  0.0000E+00  0.4000E+01  0.4000E+01
    -24.974  0.0000E+00  0.0000E+00  0.4000E+01  0.4000E+01
    -24.811  0.0000E+00  0.0000E+00  0.4000E+01  0.4000E+01
    -24.648  0.0000E+00  0.0000E+00  0.4000E+01  0.4000E+01
    -24.485  0.0000E+00  0.0000E+00  0.4000E+01  0.4000E+01
    -24.322  0.0000E+00  0.0000E+00  0.4000E+01  0.4000E+01
    -24.159  0.0000E+00  0.0000E+00  0.4000E+01  0.4000E+01
    -23.996  0.0000E+00  0.0000E+00  0.4000E+01  0.4000E+01
    -23.833  0.0000E+00  0.0000E+00  0.4000E+01  0.4000E+01
    -23.670  0.0000E+00  0.0000E+00  0.4000E+01  0.4000E+01
    -23.506  0.0000E+00  0.0000E+00  0.4000E+01  0.4000E+01
    -23.343  0.0000E+00  0.0000E+00  0.4000E+01  0.4000E+01
    -23.180  0.0000E+00  0.0000E+00  0.4000E+01  0.4000E+01
    -23.017  0.0000E+00  0.0000E+00  0.4000E+01  0.4000E+01
    -22.854  0.0000E+00  0.0000E+00  0.4000E+01  0.4000E+01
    -22.691  0.0000E+00  0.0000E+00  0.4000E+01  0.4000E+01
    -22.528  0.0000E+00  0.0000E+00  0.4000E+01  0.4000E+01
    -22.365  0.0000E+00  0.0000E+00  0.4000E+01  0.4000E+01
    -22.202  0.0000E+00  0.0000E+00  0.4000E+01  0.4000E+01
    -22.038  0.0000E+00  0.0000E+00  0.4000E+01  0.4000E+01
    -21.875  0.0000E+00  0.0000E+00  0.4000E+01  0.4000E+01
    -21.712  0.0000E+00  0.0000E+00  0.4000E+01  0.4000E+01
    -21.549  0.0000E+00  0.0000E+00  0.4000E+01  0.4000E+01
    -21.386  0.0000E+00  0.0000E+00  0.4000E+01  0.4000E+01
    -21.223  0.0000E+00  0.0000E+00  0.4000E+01  0.4000E+01
    -21.060  0.0000E+00  0.0000E+00  0.4000E+01  0.4000E+01
    -20.897  0.0000E+00  0.0000E+00  0.4000E+01  0.4000E+01
    -20.733  0.0000E+00  0.0000E+00  0.4000E+01  0.4000E+01
    -20.570  0.0000E+00  0.0000E+00  0.4000E+01  0.4000E+01
    -20.407  0.0000E+00  0.0000E+00  0.4000E+01  0.4000E+01
    -20.244  0.0000E+00  0.0000E+00  0.4000E+01  0.4000E+01
    -20.081  0.0000E+00  0.0000E+00  0.4000E+01  0.4000E+01
    -19.918  0.0000E+00  0.0000E+00  0.4000E+01  0.4000E+01
    -19.755  0.0000E+00  0.0000E+00  0.4000E+01  0.4000E+01
    -19.592  0.0000E+00  0.0000E+00  0.4000E+01  0.4000E+01
    -19.429  0.0000E+00  0.0000E+00  0.4000E+01  0.4000E+01
    -19.265  0.0000E+00  0.0000E+00  0.4000E+01  0.4000E+01
    -19.102  0.0000E+00  0.0000E+00  0.4000E+01  0.4000E+01
    -18.939  0.0000E+00  0.0000E+00  0.4000E+01  0.4000E+01
    -18.776  0.0000E+00  0.0000E+00  0.4000E+01  0.4000E+01
    -18.613  0.0000E+00  0.0000E+00  0.4000E+01  0.4000E+01
    -18.450  0.0000E+00  0.0000E+00  0.4000E+01  0.4000E+01
    -18.287  0.0000E+00  0.0000E+00  0.4000E+01  0.4000E+01
    -18.124  0.0000E+00  0.0000E+00  0.4000E+01  0.4000E+01
    -17.960  0.0000E+00  0.0000E+00  0.4000E+01  0.4000E+01
    -17.797  0.0000E+00  0.0000E+00  0.4000E+01  0.4000E+01
    -17.634  0.0000E+00  0.0000E+00  0.4000E+01  0.4000E+01
    -17.471  0.0000E+00  0.0000E+00  0.4000E+01  0.4000E+01
    -17.308  0.0000E+00  0.0000E+00  0.4000E+01  0.4000E+01
    -17.145  0.0000E+00  0.0000E+00  0.4000E+01  0.4000E+01
    -16.982  0.0000E+00  0.0000E+00  0.4000E+01  0.4000E+01
    -16.819  0.0000E+00  0.0000E+00  0.4000E+01  0.4000E+01
    -16.656  0.0000E+00  0.0000E+00  0.4000E+01  0.4000E+01
    -16.492  0.0000E+00  0.0000E+00  0.4000E+01  0.4000E+01
    -16.329  0.0000E+00  0.0000E+00  0.4000E+01  0.4000E+01
    -16.166  0.0000E+00  0.0000E+00  0.4000E+01  0.4000E+01
    -16.003  0.0000E+00  0.0000E+00  0.4000E+01  0.4000E+01
    -15.840  0.0000E+00  0.0000E+00  0.4000E+01  0.4000E+01
    -15.677  0.0000E+00  0.0000E+00  0.4000E+01  0.4000E+01
    -15.514  0.0000E+00  0.0000E+00  0.4000E+01  0.4000E+01
    -15.351  0.0000E+00  0.0000E+00  0.4000E+01  0.4000E+01
    -15.188  0.0000E+00  0.0000E+00  0.4000E+01  0.4000E+01
    -15.024  0.0000E+00  0.0000E+00  0.4000E+01  0.4000E+01
    -14.861  0.0000E+00  0.0000E+00  0.4000E+01  0.4000E+01
    -14.698  0.0000E+00  0.0000E+00  0.4000E+01  0.4000E+01
    -14.535  0.0000E+00  0.0000E+00  0.4000E+01  0.4000E+01
    -14.372  0.0000E+00  0.0000E+00  0.4000E+01  0.4000E+01
    -14.209  0.0000E+00  0.0000E+00  0.4000E+01  0.4000E+01
    -14.046  0.0000E+00  0.0000E+00  0.4000E+01  0.4000E+01
    -13.883  0.0000E+00  0.0000E+00  0.4000E+01  0.4000E+01
    -13.719  0.0000E+00  0.0000E+00  0.4000E+01  0.4000E+01
    -13.556  0.0000E+00  0.0000E+00  0.4000E+01  0.4000E+01
    -13.393  0.1946E-02  0.1960E-02  0.4000E+01  0.4000E+01
    -13.230  0.5350E-01  0.5383E-01  0.4009E+01  0.4009E+01
    -13.067  0.1340E+01  0.1348E+01  0.4228E+01  0.4229E+01
    -12.904  0.1923E+02  0.1929E+02  0.7364E+01  0.7376E+01
    -12.741  0.4213E+02  0.4211E+02  0.1424E+02  0.1424E+02
    -12.578  0.1027E+02  0.1022E+02  0.1591E+02  0.1591E+02
    -12.415  0.3506E+00  0.3475E+00  0.1600E+02  0.1600E+02
    -12.251  0.0000E+00  0.0000E+00  0.1600E+02  0.1600E+02
    -12.088  0.0000E+00  0.0000E+00  0.1600E+02  0.1600E+02
    -11.925  0.0000E+00  0.0000E+00  0.1600E+02  0.1600E+02
    -11.762  0.0000E+00  0.0000E+00  0.1600E+02  0.1600E+02
    -11.599  0.0000E+00  0.0000E+00  0.1600E+02  0.1600E+02
    -11.436  0.0000E+00  0.0000E+00  0.1600E+02  0.1600E+02
    -11.273  0.0000E+00  0.0000E+00  0.1600E+02  0.1600E+02
    -11.110  0.0000E+00  0.0000E+00  0.1600E+02  0.1600E+02
    -10.947  0.0000E+00  0.0000E+00  0.1600E+02  0.1600E+02
    -10.783  0.0000E+00  0.0000E+00  0.1600E+02  0.1600E+02
    -10.620  0.0000E+00  0.0000E+00  0.1600E+02  0.1600E+02
    -10.457  0.0000E+00  0.0000E+00  0.1600E+02  0.1600E+02
    -10.294  0.0000E+00  0.0000E+00  0.1600E+02  0.1600E+02
    -10.131  0.0000E+00  0.0000E+00  0.1600E+02  0.1600E+02
     -9.968  0.0000E+00  0.0000E+00  0.1600E+02  0.1600E+02
     -9.805  0.0000E+00  0.0000E+00  0.1600E+02  0.1600E+02
     -9.642  0.0000E+00  0.0000E+00  0.1600E+02  0.1600E+02
     -9.478  0.0000E+00  0.0000E+00  0.1600E+02  0.1600E+02
     -9.315  0.0000E+00  0.0000E+00  0.1600E+02  0.1600E+02
     -9.152  0.0000E+00  0.0000E+00  0.1600E+02  0.1600E+02
     -8.989  0.0000E+00  0.0000E+00  0.1600E+02  0.1600E+02
     -8.826  0.0000E+00  0.0000E+00  0.1600E+02  0.1600E+02
     -8.663  0.0000E+00  0.0000E+00  0.1600E+02  0.1600E+02
     -8.500  0.0000E+00  0.0000E+00  0.1600E+02  0.1600E+02
     -8.337  0.0000E+00  0.0000E+00  0.1600E+02  0.1600E+02
     -8.174  0.0000E+00  0.0000E+00  0.1600E+02  0.1600E+02
     -8.010  0.0000E+00  0.0000E+00  0.1600E+02  0.1600E+02
     -7.847  0.0000E+00  0.0000E+00  0.1600E+02  0.1600E+02
     -7.684  0.0000E+00  0.0000E+00  0.1600E+02  0.1600E+02
     -7.521  0.0000E+00  0.0000E+00  0.1600E+02  0.1600E+02
     -7.358  0.0000E+00  0.0000E+00  0.1600E+02  0.1600E+02
     -7.195  0.0000E+00  0.0000E+00  0.1600E+02  0.1600E+02
     -7.032  0.0000E+00  0.0000E+00  0.1600E+02  0.1600E+02
     -6.869  0.0000E+00  0.0000E+00  0.1600E+02  0.1600E+02
     -6.705  0.0000E+00  0.0000E+00  0.1600E+02  0.1600E+02
     -6.542  0.0000E+00  0.0000E+00  0.1600E+02  0.1600E+02
     -6.379  0.0000E+00  0.0000E+00  0.1600E+02  0.1600E+02
     -6.216  0.0000E+00  0.0000E+00  0.1600E+02  0.1600E+02
     -6.053  0.0000E+00  0.0000E+00  0.1600E+02  0.1600E+02
     -5.890  0.0000E+00  0.0000E+00  0.1600E+02  0.1600E+02
     -5.727  0.0000E+00  0.0000E+00  0.1600E+02  0.1600E+02
     -5.564  0.0000E+00  0.0000E+00  0.1600E+02  0.1600E+02
     -5.401  0.0000E+00  0.0000E+00  0.1600E+02  0.1600E+02
     -5.237  0.0000E+00  0.0000E+00  0.1600E+02  0.1600E+02
     -5.074  0.0000E+00  0.0000E+00  0.1600E+02  0.1600E+02
     -4.911  0.0000E+00  0.0000E+00  0.1600E+02  0.1600E+02
     -4.748  0.0000E+00  0.0000E+00  0.1600E+02  0.1600E+02
     -4.585  0.0000E+00  0.0000E+00  0.1600E+02  0.1600E+02
     -4.422  0.0000E+00  0.0000E+00  0.1600E+02  0.1600E+02
     -4.259  0.0000E+00  0.0000E+00  0.1600E+02  0.1600E+02
     -4.096  0.0000E+00  0.0000E+00  0.1600E+02  0.1600E+02
     -3.933  0.0000E+00  0.0000E+00  0.1600E+02  0.1600E+02
     -3.769  0.0000E+00  0.0000E+00  0.1600E+02  0.1600E+02
     -3.606  0.0000E+00  0.0000E+00  0.1600E+02  0.1600E+02
     -3.443  0.0000E+00  0.0000E+00  0.1600E+02  0.1600E+02
     -3.280  0.0000E+00  0.0000E+00  0.1600E+02  0.1600E+02
     -3.117  0.0000E+00  0.0000E+00  0.1600E+02  0.1600E+02
     -2.954  0.0000E+00  0.0000E+00  0.1600E+02  0.1600E+02
     -2.791  0.2153E-06  0.2155E-06  0.1600E+02  0.1600E+02
     -2.628  0.2024E-04  0.2026E-04  0.1600E+02  0.1600E+02
     -2.464  0.5512E-03  0.5516E-03  0.1600E+02  0.1600E+02
     -2.301  0.1294E-01  0.1295E-01  0.1600E+02  0.1600E+02
     -2.138  0.1313E+00  0.1314E+00  0.1602E+02  0.1602E+02
     -1.975  0.3276E+00  0.3277E+00  0.1608E+02  0.1608E+02
     -1.812  0.5168E+00  0.5168E+00  0.1616E+02  0.1616E+02
     -1.649  0.6212E+00  0.6212E+00  0.1626E+02  0.1626E+02
     -1.486  0.6538E+00  0.6538E+00  0.1637E+02  0.1637E+02
     -1.323  0.6399E+00  0.6398E+00  0.1647E+02  0.1647E+02
     -1.160  0.7744E+00  0.7744E+00  0.1660E+02  0.1660E+02
     -0.996  0.8556E+00  0.8555E+00  0.1674E+02  0.1674E+02
     -0.833  0.8804E+00  0.8803E+00  0.1689E+02  0.1689E+02
     -0.670  0.1108E+01  0.1108E+01  0.1707E+02  0.1707E+02
     -0.507  0.1115E+01  0.1115E+01  0.1725E+02  0.1725E+02
     -0.344  0.1218E+01  0.1218E+01  0.1745E+02  0.1745E+02
     -0.181  0.1287E+01  0.1287E+01  0.1766E+02  0.1766E+02
     -0.018  0.1518E+01  0.1517E+01  0.1791E+02  0.1791E+02
      0.145  0.1665E+01  0.1665E+01  0.1818E+02  0.1818E+02
      0.309  0.1594E+01  0.1594E+01  0.1844E+02  0.1844E+02
      0.472  0.1687E+01  0.1687E+01  0.1871E+02  0.1871E+02
      0.635  0.1666E+01  0.1666E+01  0.1899E+02  0.1899E+02
      0.798  0.1702E+01  0.1702E+01  0.1927E+02  0.1927E+02
      0.961  0.1587E+01  0.1587E+01  0.1952E+02  0.1952E+02
      1.124  0.1667E+01  0.1667E+01  0.1980E+02  0.1980E+02
      1.287  0.1785E+01  0.1785E+01  0.2009E+02  0.2009E+02
      1.450  0.2076E+01  0.2077E+01  0.2043E+02  0.2043E+02
      1.613  0.1711E+01  0.1711E+01  0.2071E+02  0.2071E+02
      1.777  0.1595E+01  0.1595E+01  0.2097E+02  0.2097E+02
      1.940  0.1728E+01  0.1728E+01  0.2125E+02  0.2125E+02
      2.103  0.1833E+01  0.1833E+01  0.2155E+02  0.2155E+02
      2.266  0.1906E+01  0.1905E+01  0.2186E+02  0.2186E+02
      2.429  0.1915E+01  0.1916E+01  0.2218E+02  0.2218E+02
      2.592  0.1665E+01  0.1665E+01  0.2245E+02  0.2245E+02
      2.755  0.1878E+01  0.1878E+01  0.2276E+02  0.2276E+02
      2.918  0.2080E+01  0.2080E+01  0.2310E+02  0.2310E+02
      3.081  0.2414E+01  0.2414E+01  0.2349E+02  0.2349E+02
      3.245  0.2333E+01  0.2333E+01  0.2387E+02  0.2387E+02
      3.408  0.2685E+01  0.2685E+01  0.2431E+02  0.2431E+02
      3.571  0.2390E+01  0.2390E+01  0.2470E+02  0.2470E+02
      3.734  0.2231E+01  0.2231E+01  0.2507E+02  0.2507E+02
      3.897  0.2355E+01  0.2355E+01  0.2545E+02  0.2545E+02
      4.060  0.2318E+01  0.2318E+01  0.2583E+02  0.2583E+02
      4.223  0.2538E+01  0.2538E+01  0.2625E+02  0.2625E+02
      4.386  0.2341E+01  0.2341E+01  0.2663E+02  0.2663E+02
      4.550  0.2331E+01  0.2331E+01  0.2701E+02  0.2701E+02
      4.713  0.2326E+01  0.2326E+01  0.2739E+02  0.2739E+02
      4.876  0.2296E+01  0.2296E+01  0.2777E+02  0.2777E+02
      5.039  0.2717E+01  0.2717E+01  0.2821E+02  0.2821E+02
      5.202  0.3150E+01  0.3150E+01  0.2873E+02  0.2873E+02
      5.365  0.3228E+01  0.3229E+01  0.2925E+02  0.2925E+02
      5.528  0.3379E+01  0.3379E+01  0.2981E+02  0.2981E+02
      5.691  0.3309E+01  0.3309E+01  0.3035E+02  0.3035E+02
      5.854  0.3866E+01  0.3867E+01  0.3098E+02  0.3098E+02
      6.018  0.5021E+01  0.5021E+01  0.3180E+02  0.3180E+02
      6.181  0.4325E+01  0.4325E+01  0.3251E+02  0.3251E+02
      6.344  0.4876E+01  0.4876E+01  0.3330E+02  0.3331E+02
      6.507  0.3473E+01  0.3473E+01  0.3387E+02  0.3387E+02
      6.670  0.3263E+01  0.3263E+01  0.3441E+02  0.3441E+02
      6.833  0.3182E+01  0.3182E+01  0.3493E+02  0.3493E+02
      6.996  0.2811E+01  0.2811E+01  0.3539E+02  0.3539E+02
      7.159  0.2330E+01  0.2330E+01  0.3577E+02  0.3577E+02
      7.322  0.2686E+01  0.2686E+01  0.3621E+02  0.3621E+02
      7.486  0.3263E+01  0.3264E+01  0.3674E+02  0.3674E+02
      7.649  0.3763E+01  0.3762E+01  0.3736E+02  0.3736E+02
      7.812  0.3145E+01  0.3145E+01  0.3787E+02  0.3787E+02
      7.975  0.3333E+01  0.3333E+01  0.3842E+02  0.3842E+02
      8.138  0.2924E+01  0.2924E+01  0.3890E+02  0.3890E+02
      8.301  0.3286E+01  0.3287E+01  0.3943E+02  0.3943E+02
      8.464  0.3649E+01  0.3649E+01  0.4003E+02  0.4003E+02
      8.627  0.3539E+01  0.3539E+01  0.4061E+02  0.4061E+02
      8.791  0.3012E+01  0.3011E+01  0.4110E+02  0.4110E+02
      8.954  0.2631E+01  0.2630E+01  0.4153E+02  0.4153E+02
      9.117  0.2527E+01  0.2527E+01  0.4194E+02  0.4195E+02
      9.280  0.2844E+01  0.2844E+01  0.4241E+02  0.4241E+02
      9.443  0.3322E+01  0.3322E+01  0.4295E+02  0.4295E+02
      9.606  0.3189E+01  0.3189E+01  0.4347E+02  0.4347E+02
      9.769  0.3372E+01  0.3372E+01  0.4402E+02  0.4402E+02
      9.932  0.2827E+01  0.2827E+01  0.4449E+02  0.4449E+02
     10.095  0.2920E+01  0.2920E+01  0.4496E+02  0.4496E+02
     10.259  0.3003E+01  0.3003E+01  0.4546E+02  0.4546E+02
     10.422  0.3698E+01  0.3710E+01  0.4606E+02  0.4606E+02
     10.585  0.3974E+01  0.4007E+01  0.4671E+02  0.4672E+02
     10.748  0.4254E+01  0.4169E+01  0.4741E+02  0.4740E+02
     10.911  0.4566E+01  0.4500E+01  0.4815E+02  0.4813E+02
     11.074  0.3847E+01  0.3969E+01  0.4878E+02  0.4878E+02
     11.237  0.3467E+01  0.3456E+01  0.4935E+02  0.4935E+02
     11.400  0.3262E+01  0.3205E+01  0.4988E+02  0.4987E+02
     11.564  0.2983E+01  0.2943E+01  0.5037E+02  0.5036E+02
     11.727  0.2110E+01  0.2187E+01  0.5072E+02  0.5071E+02
     11.890  0.1422E+01  0.1373E+01  0.5095E+02  0.5094E+02
     12.053  0.1854E+01  0.1959E+01  0.5125E+02  0.5126E+02
     12.216  0.1423E+01  0.1437E+01  0.5149E+02  0.5149E+02
     12.379  0.1197E+01  0.1050E+01  0.5168E+02  0.5167E+02
     12.542  0.7334E+00  0.7894E+00  0.5180E+02  0.5180E+02
     12.705  0.6607E+00  0.4847E+00  0.5191E+02  0.5188E+02
     12.868  0.4403E+00  0.5257E+00  0.5198E+02  0.5196E+02
     13.032  0.9922E-01  0.2152E+00  0.5200E+02  0.5200E+02
     13.195  0.4164E-02  0.1579E-01  0.5200E+02  0.5200E+02
     13.358  0.0000E+00  0.0000E+00  0.5200E+02  0.5200E+02
     13.521  0.0000E+00  0.0000E+00  0.5200E+02  0.5200E+02
     13.684  0.0000E+00  0.0000E+00  0.5200E+02  0.5200E+02
     13.847  0.0000E+00  0.0000E+00  0.5200E+02  0.5200E+02
     14.010  0.0000E+00  0.0000E+00  0.5200E+02  0.5200E+02
     14.173  0.0000E+00  0.0000E+00  0.5200E+02  0.5200E+02
     14.336  0.0000E+00  0.0000E+00  0.5200E+02  0.5200E+02
     14.500  0.0000E+00  0.0000E+00  0.5200E+02  0.5200E+02
     14.663  0.0000E+00  0.0000E+00  0.5200E+02  0.5200E+02
     14.826  0.0000E+00  0.0000E+00  0.5200E+02  0.5200E+02
     14.989  0.0000E+00  0.0000E+00  0.5200E+02  0.5200E+02
     15.152  0.0000E+00  0.0000E+00  0.5200E+02  0.5200E+02
     15.15205999    -33.78274592  301      7.84945244      1.00000000
    -33.783  0.0000E+00  0.0000E+00  0.0000E+00  0.0000E+00  0.0000E+00  0.0000E+00  0.0000E+00  0.0000E+00  0.0000E+00  0.0000E+00  0.0000E+00  0.0000E+00  0.0000E+00  0.0000E+00  0.0000E+00  0.0000E+00  0.0000E+00  0.0000E+00
    -33.620  0.0000E+00  0.0000E+00  0.0000E+00  0.0000E+00  0.0000E+00  0.0000E+00  0.0000E+00  0.0000E+00  0.0000E+00  0.0000E+00  0.0000E+00  0.0000E+00  0.0000E+00  0.0000E+00  0.0000E+00  0.0000E+00  0.0000E+00  0.0000E+00
    -33.457  0.0000E+00  0.0000E+00  0.0000E+00  0.0000E+00  0.0000E+00  0.0000E+00  0.0000E+00  0.0000E+00  0.0000E+00  0.0000E+00  0.0000E+00  0.0000E+00  0.0000E+00  0.0000E+00  0.0000E+00  0.0000E+00  0.0000E+00  0.0000E+00
    -33.293  0.0000E+00  0.0000E+00  0.0000E+00  0.0000E+00  0.0000E+00  0.0000E+00  0.0000E+00  0.0000E+00  0.0000E+00  0.0000E+00  0.0000E+00  0.0000E+00  0.0000E+00  0.0000E+00  0.0000E+00  0.0000E+00  0.0000E+00  0.0000E+00
    -33.130  0.0000E+00  0.0000E+00  0.0000E+00  0.0000E+00  0.0000E+00  0.0000E+00  0.0000E+00  0.0000E+00  0.0000E+00  0.0000E+00  0.0000E+00  0.0000E+00  0.0000E+00  0.0000E+00  0.0000E+00  0.0000E+00  0.0000E+00  0.0000E+00
    -32.967  0.0000E+00  0.0000E+00  0.0000E+00  0.0000E+00  0.0000E+00  0.0000E+00  0.0000E+00  0.0000E+00  0.0000E+00  0.0000E+00  0.0000E+00  0.0000E+00  0.0000E+00  0.0000E+00  0.0000E+00  0.0000E+00  0.0000E+00  0.0000E+00
    -32.804  0.0000E+00  0.0000E+00  0.0000E+00  0.0000E+00  0.0000E+00  0.0000E+00  0.0000E+00  0.0000E+00  0.0000E+00  0.0000E+00  0.0000E+00  0.0000E+00  0.0000E+00  0.0000E+00  0.0000E+00  0.0000E+00  0.0000E+00  0.0000E+00
    -32.641  0.0000E+00  0.0000E+00  0.0000E+00  0.0000E+00  0.0000E+00  0.0000E+00  0.0000E+00  0.0000E+00  0.0000E+00  0.0000E+00  0.0000E+00  0.0000E+00  0.0000E+00  0.0000E+00  0.0000E+00  0.0000E+00  0.0000E+00  0.0000E+00
    -32.478  0.0000E+00  0.0000E+00  0.0000E+00  0.0000E+00  0.0000E+00  0.0000E+00  0.0000E+00  0.0000E+00  0.0000E+00  0.0000E+00  0.0000E+00  0.0000E+00  0.0000E+00  0.0000E+00  0.0000E+00  0.0000E+00  0.0000E+00  0.0000E+00
    -32.315  0.0000E+00  0.0000E+00  0.0000E+00  0.0000E+00  0.0000E+00  0.0000E+00  0.0000E+00  0.0000E+00  0.0000E+00  0.0000E+00  0.0000E+00  0.0000E+00  0.0000E+00  0.0000E+00  0.0000E+00  0.0000E+00  0.0000E+00  0.0000E+00
    -32.152  0.0000E+00  0.0000E+00  0.0000E+00  0.0000E+00  0.0000E+00  0.0000E+00  0.0000E+00  0.0000E+00  0.0000E+00  0.0000E+00  0.0000E+00  0.0000E+00  0.0000E+00  0.0000E+00  0.0000E+00  0.0000E+00  0.0000E+00  0.0000E+00
    -31.988  0.9293E-03  0.9359E-03  0.4571E-10  0.4618E-10  0.4553E-09  0.4601E-09  0.4571E-10  0.4618E-10  0.3051E-13  0.2774E-13  0.7938E-13  0.7905E-13  0.5172E-09  0.5183E-09  0.7938E-13  0.7905E-13  0.2917E-10  0.2969E-10
    -31.825  0.2324E-01  0.2341E-01  0.1143E-08  0.1155E-08  0.1139E-07  0.1151E-07  0.1143E-08  0.1155E-08  0.7630E-12  0.6938E-12  0.1985E-11  0.1977E-11  0.1293E-07  0.1296E-07  0.1985E-11  0.1977E-11  0.7294E-09  0.7425E-09
    -31.662  0.5489E+00  0.5525E+00  0.2700E-07  0.2725E-07  0.2696E-06  0.2722E-06  0.2700E-07  0.2725E-07  0.1805E-10  0.1640E-10  0.4691E-10  0.4669E-10  0.3055E-06  0.3060E-06  0.4691E-10  0.4669E-10  0.1723E-07  0.1753E-07
    -31.499  0.3841E+01  0.3846E+01  0.1885E-06  0.1893E-06  0.1919E-05  0.1929E-05  0.1885E-06  0.1893E-06  0.1280E-09  0.1156E-09  0.3293E-09  0.3259E-09  0.2138E-05  0.2130E-05  0.3293E-09  0.3259E-09  0.1207E-06  0.1222E-06
    -31.336  0.1531E+01  0.1523E+01  0.7490E-07  0.7471E-07  0.7812E-06  0.7801E-06  0.7490E-07  0.7471E-07  0.5181E-10  0.4648E-10  0.1315E-09  0.1294E-09  0.8521E-06  0.8436E-06  0.1315E-09  0.1294E-09  0.4809E-07  0.4836E-07
    -31.173  0.8016E-01  0.7959E-01  0.3917E-08  0.3899E-08  0.4115E-07  0.4101E-07  0.3917E-08  0.3899E-08  0.2724E-11  0.2439E-11  0.6888E-11  0.6760E-11  0.4461E-07  0.4408E-07  0.6888E-11  0.6760E-11  0.2516E-08  0.2524E-08
    -31.010  0.0000E+00  0.0000E+00  0.0000E+00  0.0000E+00  0.0000E+00  0.0000E+00  0.0000E+00  0.0000E+00  0.0000E+00  0.0000E+00  0.0000E+00  0.0000E+00  0.0000E+00  0.0000E+00  0.0000E+00  0.0000E+00  0.0000E+00  0.0000E+00
    -30.847  0.0000E+00  0.0000E+00  0.0000E+00  0.0000E+00  0.0000E+00  0.0000E+00  0.0000E+00  0.0000E+00  0.0000E+00  0.0000E+00  0.0000E+00  0.0000E+00  0.0000E+00  0.0000E+00  0.0000E+00  0.0000E+00  0.0000E+00  0.0000E+00
    -30.684  0.0000E+00  0.0000E+00  0.0000E+00  0.0000E+00  0.0000E+00  0.0000E+00  0.0000E+00  0.0000E+00  0.0000E+00  0.0000E+00  0.0000E+00  0.0000E+00  0.0000E+00  0.0000E+00  0.0000E+00  0.0000E+00  0.0000E+00  0.0000E+00
    -30.520  0.0000E+00  0.0000E+00  0.0000E+00  0.0000E+00  0.0000E+00  0.0000E+00  0.0000E+00  0.0000E+00  0.0000E+00  0.0000E+00  0.0000E+00  0.0000E+00  0.0000E+00  0.0000E+00  0.0000E+00  0.0000E+00  0.0000E+00  0.0000E+00
    -30.357  0.0000E+00  0.0000E+00  0.0000E+00  0.0000E+00  0.0000E+00  0.0000E+00  0.0000E+00  0.0000E+00  0.0000E+00  0.0000E+00  0.0000E+00  0.0000E+00  0.0000E+00  0.0000E+00  0.0000E+00  0.0000E+00  0.0000E+00  0.0000E+00
    -30.194  0.0000E+00  0.0000E+00  0.0000E+00  0.0000E+00  0.0000E+00  0.0000E+00  0.0000E+00  0.0000E+00  0.0000E+00  0.0000E+00  0.0000E+00  0.0000E+00  0.0000E+00  0.0000E+00  0.0000E+00  0.0000E+00  0.0000E+00  0.0000E+00
    -30.031  0.0000E+00  0.0000E+00  0.0000E+00  0.0000E+00  0.0000E+00  0.0000E+00  0.0000E+00  0.0000E+00  0.0000E+00  0.0000E+00  0.0000E+00  0.0000E+00  0.0000E+00  0.0000E+00  0.0000E+00  0.0000E+00  0.0000E+00  0.0000E+00
    -29.868  0.0000E+00  0.0000E+00  0.0000E+00  0.0000E+00  0.0000E+00  0.0000E+00  0.0000E+00  0.0000E+00  0.0000E+00  0.0000E+00  0.0000E+00  0.0000E+00  0.0000E+00  0.0000E+00  0.0000E+00  0.0000E+00  0.0000E+00  0.0000E+00
    -29.705  0.0000E+00  0.0000E+00  0.0000E+00  0.0000E+00  0.0000E+00  0.0000E+00  0.0000E+00  0.0000E+00  0.0000E+00  0.0000E+00  0.0000E+00  0.0000E+00  0.0000E+00  0.0000E+00  0.0000E+00  0.0000E+00  0.0000E+00  0.0000E+00
    -29.542  0.0000E+00  0.0000E+00  0.0000E+00  0.0000E+00  0.0000E+00  0.0000E+00  0.0000E+00  0.0000E+00  0.0000E+00  0.0000E+00  0.0000E+00  0.0000E+00  0.0000E+00  0.0000E+00  0.0000E+00  0.0000E+00  0.0000E+00  0.0000E+00
    -29.379  0.0000E+00  0.0000E+00  0.0000E+00  0.0000E+00  0.0000E+00  0.0000E+00  0.0000E+00  0.0000E+00  0.0000E+00  0.0000E+00  0.0000E+00  0.0000E+00  0.0000E+00  0.0000E+00  0.0000E+00  0.0000E+00  0.0000E+00  0.0000E+00
    -29.215  0.0000E+00  0.0000E+00  0.0000E+00  0.0000E+00  0.0000E+00  0.0000E+00  0.0000E+00  0.0000E+00  0.0000E+00  0.0000E+00  0.0000E+00  0.0000E+00  0.0000E+00  0.0000E+00  0.0000E+00  0.0000E+00  0.0000E+00  0.0000E+00
    -29.052  0.0000E+00  0.0000E+00  0.0000E+00  0.0000E+00  0.0000E+00  0.0000E+00  0.0000E+00  0.0000E+00  0.0000E+00  0.0000E+00  0.0000E+00  0.0000E+00  0.0000E+00  0.0000E+00  0.0000E+00  0.0000E+00  0.0000E+00  0.0000E+00
    -28.889  0.0000E+00  0.0000E+00  0.0000E+00  0.0000E+00  0.0000E+00  0.0000E+00  0.0000E+00  0.0000E+00  0.0000E+00  0.0000E+00  0.0000E+00  0.0000E+00  0.0000E+00  0.0000E+00  0.0000E+00  0.0000E+00  0.0000E+00  0.0000E+00
    -28.726  0.0000E+00  0.0000E+00  0.0000E+00  0.0000E+00  0.0000E+00  0.0000E+00  0.0000E+00  0.0000E+00  0.0000E+00  0.0000E+00  0.0000E+00  0.0000E+00  0.0000E+00  0.0000E+00  0.0000E+00  0.0000E+00  0.0000E+00  0.0000E+00
    -28.563  0.0000E+00  0.0000E+00  0.0000E+00  0.0000E+00  0.0000E+00  0.0000E+00  0.0000E+00  0.0000E+00  0.0000E+00  0.0000E+00  0.0000E+00  0.0000E+00  0.0000E+00  0.0000E+00  0.0000E+00  0.0000E+00  0.0000E+00  0.0000E+00
    -28.400  0.0000E+00  0.0000E+00  0.0000E+00  0.0000E+00  0.0000E+00  0.0000E+00  0.0000E+00  0.0000E+00  0.0000E+00  0.0000E+00  0.0000E+00  0.0000E+00  0.0000E+00  0.0000E+00  0.0000E+00  0.0000E+00  0.0000E+00  0.0000E+00
    -28.237  0.0000E+00  0.0000E+00  0.0000E+00  0.0000E+00  0.0000E+00  0.0000E+00  0.0000E+00  0.0000E+00  0.0000E+00  0.0000E+00  0.0000E+00  0.0000E+00  0.0000E+00  0.0000E+00  0.0000E+00  0.0000E+00  0.0000E+00  0.0000E+00
    -28.074  0.0000E+00  0.0000E+00  0.0000E+00  0.0000E+00  0.0000E+00  0.0000E+00  0.0000E+00  0.0000E+00  0.0000E+00  0.0000E+00  0.0000E+00  0.0000E+00  0.0000E+00  0.0000E+00  0.0000E+00  0.0000E+00  0.0000E+00  0.0000E+00
    -27.911  0.0000E+00  0.0000E+00  0.0000E+00  0.0000E+00  0.0000E+00  0.0000E+00  0.0000E+00  0.0000E+00  0.0000E+00  0.0000E+00  0.0000E+00  0.0000E+00  0.0000E+00  0.0000E+00  0.0000E+00  0.0000E+00  0.0000E+00  0.0000E+00
    -27.747  0.0000E+00  0.0000E+00  0.0000E+00  0.0000E+00  0.0000E+00  0.0000E+00  0.0000E+00  0.0000E+00  0.0000E+00  0.0000E+00  0.0000E+00  0.0000E+00  0.0000E+00  0.0000E+00  0.0000E+00  0.0000E+00  0.0000E+00  0.0000E+00
    -27.584  0.0000E+00  0.0000E+00  0.0000E+00  0.0000E+00  0.0000E+00  0.0000E+00  0.0000E+00  0.0000E+00  0.0000E+00  0.0000E+00  0.0000E+00  0.0000E+00  0.0000E+00  0.0000E+00  0.0000E+00  0.0000E+00  0.0000E+00  0.0000E+00
    -27.421  0.0000E+00  0.0000E+00  0.0000E+00  0.0000E+00  0.0000E+00  0.0000E+00  0.0000E+00  0.0000E+00  0.0000E+00  0.0000E+00  0.0000E+00  0.0000E+00  0.0000E+00  0.0000E+00  0.0000E+00  0.0000E+00  0.0000E+00  0.0000E+00
    -27.258  0.0000E+00  0.0000E+00  0.0000E+00  0.0000E+00  0.0000E+00  0.0000E+00  0.0000E+00  0.0000E+00  0.0000E+00  0.0000E+00  0.0000E+00  0.0000E+00  0.0000E+00  0.0000E+00  0.0000E+00  0.0000E+00  0.0000E+00  0.0000E+00
    -27.095  0.0000E+00  0.0000E+00  0.0000E+00  0.0000E+00  0.0000E+00  0.0000E+00  0.0000E+00  0.0000E+00  0.0000E+00  0.0000E+00  0.0000E+00  0.0000E+00  0.0000E+00  0.0000E+00  0.0000E+00  0.0000E+00  0.0000E+00  0.0000E+00
    -26.932  0.0000E+00  0.0000E+00  0.0000E+00  0.0000E+00  0.0000E+00  0.0000E+00  0.0000E+00  0.0000E+00  0.0000E+00  0.0000E+00  0.0000E+00  0.0000E+00  0.0000E+00  0.0000E+00  0.0000E+00  0.0000E+00  0.0000E+00  0.0000E+00
    -26.769  0.0000E+00  0.0000E+00  0.0000E+00  0.0000E+00  0.0000E+00  0.0000E+00  0.0000E+00  0.0000E+00  0.0000E+00  0.0000E+00  0.0000E+00  0.0000E+00  0.0000E+00  0.0000E+00  0.0000E+00  0.0000E+00  0.0000E+00  0.0000E+00
    -26.606  0.0000E+00  0.0000E+00  0.0000E+00  0.0000E+00  0.0000E+00  0.0000E+00  0.0000E+00  0.0000E+00  0.0000E+00  0.0000E+00  0.0000E+00  0.0000E+00  0.0000E+00  0.0000E+00  0.0000E+00  0.0000E+00  0.0000E+00  0.0000E+00
    -26.443  0.0000E+00  0.0000E+00  0.0000E+00  0.0000E+00  0.0000E+00  0.0000E+00  0.0000E+00  0.0000E+00  0.0000E+00  0.0000E+00  0.0000E+00  0.0000E+00  0.0000E+00  0.0000E+00  0.0000E+00  0.0000E+00  0.0000E+00  0.0000E+00
    -26.279  0.0000E+00  0.0000E+00  0.0000E+00  0.0000E+00  0.0000E+00  0.0000E+00  0.0000E+00  0.0000E+00  0.0000E+00  0.0000E+00  0.0000E+00  0.0000E+00  0.0000E+00  0.0000E+00  0.0000E+00  0.0000E+00  0.0000E+00  0.0000E+00
    -26.116  0.0000E+00  0.0000E+00  0.0000E+00  0.0000E+00  0.0000E+00  0.0000E+00  0.0000E+00  0.0000E+00  0.0000E+00  0.0000E+00  0.0000E+00  0.0000E+00  0.0000E+00  0.0000E+00  0.0000E+00  0.0000E+00  0.0000E+00  0.0000E+00
    -25.953  0.0000E+00  0.0000E+00  0.0000E+00  0.0000E+00  0.0000E+00  0.0000E+00  0.0000E+00  0.0000E+00  0.0000E+00  0.0000E+00  0.0000E+00  0.0000E+00  0.0000E+00  0.0000E+00  0.0000E+00  0.0000E+00  0.0000E+00  0.0000E+00
    -25.790  0.0000E+00  0.0000E+00  0.0000E+00  0.0000E+00  0.0000E+00  0.0000E+00  0.0000E+00  0.0000E+00  0.0000E+00  0.0000E+00  0.0000E+00  0.0000E+00  0.0000E+00  0.0000E+00  0.0000E+00  0.0000E+00  0.0000E+00  0.0000E+00
    -25.627  0.0000E+00  0.0000E+00  0.0000E+00  0.0000E+00  0.0000E+00  0.0000E+00  0.0000E+00  0.0000E+00  0.0000E+00  0.0000E+00  0.0000E+00  0.0000E+00  0.0000E+00  0.0000E+00  0.0000E+00  0.0000E+00  0.0000E+00  0.0000E+00