  16  16   1   0
  0.2637960E+02  0.4742826E-09  0.4742826E-09  0.1876349E-08  0.5000000E-15
  1.000000000000000E-004
  CAR 
 unknown system                          
      9.66954524    -39.43181876  301      3.84514402      1.00000000
    -39.432  0.0000E+00  0.0000E+00  0.0000E+00  0.0000E+00
    -39.268  0.0000E+00  0.0000E+00  0.0000E+00  0.0000E+00
    -39.104  0.0000E+00  0.0000E+00  0.0000E+00  0.0000E+00
    -38.941  0.0000E+00  0.0000E+00  0.0000E+00  0.0000E+00
    -38.777  0.0000E+00  0.0000E+00  0.0000E+00  0.0000E+00
    -38.613  0.0000E+00  0.0000E+00  0.0000E+00  0.0000E+00
    -38.450  0.0000E+00  0.0000E+00  0.0000E+00  0.0000E+00
    -38.286  0.0000E+00  0.0000E+00  0.0000E+00  0.0000E+00
    -38.122  0.0000E+00  0.0000E+00  0.0000E+00  0.0000E+00
    -37.959  0.0000E+00  0.0000E+00  0.0000E+00  0.0000E+00
    -37.795  0.0000E+00  0.0000E+00  0.0000E+00  0.0000E+00
    -37.631  0.4304E-02  0.4325E-02  0.7045E-03  0.7079E-03
    -37.468  0.1088E+00  0.1094E+00  0.1852E-01  0.1861E-01
    -37.304  0.2559E+01  0.2570E+01  0.4374E+00  0.4393E+00
    -37.140  0.1600E+02  0.1601E+02  0.3057E+01  0.3060E+01
    -36.977  0.5479E+01  0.5460E+01  0.3954E+01  0.3954E+01
    -36.813  0.2714E+00  0.2702E+00  0.3998E+01  0.3998E+01
    -36.649  0.0000E+00  0.0000E+00  0.4000E+01  0.4000E+01
    -36.486  0.0000E+00  0.0000E+00  0.4000E+01  0.4000E+01
    -36.322  0.0000E+00  0.0000E+00  0.4000E+01  0.4000E+01
    -36.158  0.0000E+00  0.0000E+00  0.4000E+01  0.4000E+01
    -35.995  0.0000E+00  0.0000E+00  0.4000E+01  0.4000E+01
    -35.831  0.0000E+00  0.0000E+00  0.4000E+01  0.4000E+01
    -35.667  0.0000E+00  0.0000E+00  0.4000E+01  0.4000E+01
    -35.504  0.0000E+00  0.0000E+00  0.4000E+01  0.4000E+01
    -35.340  0.0000E+00  0.0000E+00  0.4000E+01  0.4000E+01
    -35.176  0.0000E+00  0.0000E+00  0.4000E+01  0.4000E+01
    -35.013  0.0000E+00  0.0000E+00  0.4000E+01  0.4000E+01
    -34.849  0.0000E+00  0.0000E+00  0.4000E+01  0.4000E+01
    -34.685  0.0000E+00  0.0000E+00  0.4000E+01  0.4000E+01
    -34.522  0.0000E+00  0.0000E+00  0.4000E+01  0.4000E+01
    -34.358  0.0000E+00  0.0000E+00  0.4000E+01  0.4000E+01
    -34.194  0.0000E+00  0.0000E+00  0.4000E+01  0.4000E+01
    -34.031  0.0000E+00  0.0000E+00  0.4000E+01  0.4000E+01
    -33.867  0.0000E+00  0.0000E+00  0.4000E+01  0.4000E+01
    -33.703  0.0000E+00  0.0000E+00  0.4000E+01  0.4000E+01
    -33.540  0.0000E+00  0.0000E+00  0.4000E+01  0.4000E+01
    -33.376  0.0000E+00  0.0000E+00  0.4000E+01  0.4000E+01
    -33.212  0.0000E+00  0.0000E+00  0.4000E+01  0.4000E+01
    -33.049  0.0000E+00  0.0000E+00  0.4000E+01  0.4000E+01
    -32.885  0.0000E+00  0.0000E+00  0.4000E+01  0.4000E+01
    -32.721  0.0000E+00  0.0000E+00  0.4000E+01  0.4000E+01
    -32.558  0.0000E+00  0.0000E+00  0.4000E+01  0.4000E+01
    -32.394  0.0000E+00  0.0000E+00  0.4000E+01  0.4000E+01
    -32.230  0.0000E+00  0.0000E+00  0.4000E+01  0.4000E+01
    -32.067  0.0000E+00  0.0000E+00  0.4000E+01  0.4000E+01
    -31.903  0.0000E+00  0.0000E+00  0.4000E+01  0.4000E+01
    -31.739  0.0000E+00  0.0000E+00  0.4000E+01  0.4000E+01
    -31.576  0.0000E+00  0.0000E+00  0.4000E+01  0.4000E+01
    -31.412  0.0000E+00  0.0000E+00  0.4000E+01  0.4000E+01
    -31.248  0.0000E+00  0.0000E+00  0.4000E+01  0.4000E+01
    -31.085  0.0000E+00  0.0000E+00  0.4000E+01  0.4000E+01
    -30.921  0.0000E+00  0.0000E+00  0.4000E+01  0.4000E+01
    -30.757  0.0000E+00  0.0000E+00  0.4000E+01  0.4000E+01
    -30.594  0.0000E+00  0.0000E+00  0.4000E+01  0.4000E+01
    -30.430  0.0000E+00  0.0000E+00  0.4000E+01  0.4000E+01
    -30.266  0.0000E+00  0.0000E+00  0.4000E+01  0.4000E+01
    -30.103  0.0000E+00  0.0000E+00  0.4000E+01  0.4000E+01
    -29.939  0.0000E+00  0.0000E+00  0.4000E+01  0.4000E+01
    -29.775  0.0000E+00  0.0000E+00  0.4000E+01  0.4000E+01
    -29.612  0.0000E+00  0.0000E+00  0.4000E+01  0.4000E+01
    -29.448  0.0000E+00  0.0000E+00  0.4000E+01  0.4000E+01
    -29.284  0.0000E+00  0.0000E+00  0.4000E+01  0.4000E+01
    -29.121  0.0000E+00  0.0000E+00  0.4000E+01  0.4000E+01
    -28.957  0.0000E+00  0.0000E+00  0.4000E+01  0.4000E+01
    -28.793  0.0000E+00  0.0000E+00  0.4000E+01  0.4000E+01
    -28.630  0.0000E+00  0.0000E+00  0.4000E+01  0.4000E+01
    -28.466  0.0000E+00  0.0000E+00  0.4000E+01  0.4000E+01
    -28.302  0.0000E+00  0.0000E+00  0.4000E+01  0.4000E+01
    -28.139  0.0000E+00  0.0000E+00  0.4000E+01  0.4000E+01
    -27.975  0.0000E+00  0.0000E+00  0.4000E+01  0.4000E+01
    -27.811  0.0000E+00  0.0000E+00  0.4000E+01  0.4000E+01
    -27.647  0.0000E+00  0.0000E+00  0.4000E+01  0.4000E+01
    -27.484  0.0000E+00  0.0000E+00  0.4000E+01  0.4000E+01
    -27.320  0.0000E+00  0.0000E+00  0.4000E+01  0.4000E+01
    -27.156  0.0000E+00  0.0000E+00  0.4000E+01  0.4000E+01
    -26.993  0.0000E+00  0.0000E+00  0.4000E+01  0.4000E+01
    -26.829  0.0000E+00  0.0000E+00  0.4000E+01  0.4000E+01
    -26.665  0.0000E+00  0.0000E+00  0.4000E+01  0.4000E+01
    -26.502  0.0000E+00  0.0000E+00  0.4000E+01  0.4000E+01
    -26.338  0.0000E+00  0.0000E+00  0.4000E+01  0.4000E+01
    -26.174  0.0000E+00  0.0000E+00  0.4000E+01  0.4000E+01
    -26.011  0.0000E+00  0.0000E+00  0.4000E+01  0.4000E+01
    -25.847  0.0000E+00  0.0000E+00  0.4000E+01  0.4000E+01
    -25.683  0.0000E+00  0.0000E+00  0.4000E+01  0.4000E+01
    -25.520  0.0000E+00  0.0000E+00  0.4000E+01  0.4000E+01
    -25.356  0.0000E+00  0.0000E+00  0.4000E+01  0.4000E+01
    -25.192  0.0000E+00  0.0000E+00  0.4000E+01  0.4000E+01
    -25.029  0.0000E+00  0.0000E+00  0.4000E+01  0.4000E+01
    -24.865  0.0000E+00  0.0000E+00  0.4000E+01  0.4000E+01
    -24.701  0.0000E+00  0.0000E+00  0.4000E+01  0.4000E+01
    -24.538  0.0000E+00  0.0000E+00  0.4000E+01  0.4000E+01
    -24.374  0.0000E+00  0.0000E+00  0.4000E+01  0.4000E+01
    -24.210  0.0000E+00  0.0000E+00  0.4000E+01  0.4000E+01
    -24.047  0.0000E+00  0.0000E+00  0.4000E+01  0.4000E+01
    -23.883  0.0000E+00  0.0000E+00  0.4000E+01  0.4000E+01
    -23.719  0.0000E+00  0.0000E+00  0.4000E+01  0.4000E+01
    -23.556  0.0000E+00  0.0000E+00  0.4000E+01  0.4000E+01
    -23.392  0.0000E+00  0.0000E+00  0.4000E+01  0.4000E+01
    -23.228  0.0000E+00  0.0000E+00  0.4000E+01  0.4000E+01
    -23.065  0.0000E+00  0.0000E+00  0.4000E+01  0.4000E+01
    -22.901  0.0000E+00  0.0000E+00  0.4000E+01  0.4000E+01
    -22.737  0.0000E+00  0.0000E+00  0.4000E+01  0.4000E+01
    -22.574  0.0000E+00  0.0000E+00  0.4000E+01  0.4000E+01
    -22.410  0.0000E+00  0.0000E+00  0.4000E+01  0.4000E+01
    -22.246  0.0000E+00  0.0000E+00  0.4000E+01  0.4000E+01
    -22.083  0.0000E+00  0.0000E+00  0.4000E+01  0.4000E+01
    -21.919  0.0000E+00  0.0000E+00  0.4000E+01  0.4000E+01
    -21.755  0.0000E+00  0.0000E+00  0.4000E+01  0.4000E+01
    -21.592  0.0000E+00  0.0000E+00  0.4000E+01  0.4000E+01
    -21.428  0.0000E+00  0.0000E+00  0.4000E+01  0.4000E+01
    -21.264  0.0000E+00  0.0000E+00  0.4000E+01  0.4000E+01
    -21.101  0.0000E+00  0.0000E+00  0.4000E+01  0.4000E+01
    -20.937  0.0000E+00  0.0000E+00  0.4000E+01  0.4000E+01
    -20.773  0.0000E+00  0.0000E+00  0.4000E+01  0.4000E+01
    -20.610  0.0000E+00  0.0000E+00  0.4000E+01  0.4000E+01
    -20.446  0.0000E+00  0.0000E+00  0.4000E+01  0.4000E+01
    -20.282  0.0000E+00  0.0000E+00  0.4000E+01  0.4000E+01
    -20.119  0.0000E+00  0.0000E+00  0.4000E+01  0.4000E+01
    -19.955  0.0000E+00  0.0000E+00  0.4000E+01  0.4000E+01
    -19.791  0.0000E+00  0.0000E+00  0.4000E+01  0.4000E+01
    -19.628  0.0000E+00  0.0000E+00  0.4000E+01  0.4000E+01
    -19.464  0.0000E+00  0.0000E+00  0.4000E+01  0.4000E+01
    -19.300  0.0000E+00  0.0000E+00  0.4000E+01  0.4000E+01
    -19.137  0.0000E+00  0.0000E+00  0.4000E+01  0.4000E+01
    -18.973  0.0000E+00  0.0000E+00  0.4000E+01  0.4000E+01
    -18.809  0.1635E-03  0.1640E-03  0.4000E+01  0.4000E+01
    -18.646  0.1866E-01  0.1872E-01  0.4003E+01  0.4003E+01
    -18.482  0.4749E+00  0.4764E+00  0.4081E+01  0.4081E+01
    -18.318  0.1058E+02  0.1061E+02  0.5812E+01  0.5817E+01
    -18.155  0.4909E+02  0.4909E+02  0.1385E+02  0.1385E+02
    -17.991  0.1255E+02  0.1252E+02  0.1590E+02  0.1590E+02
    -17.827  0.2930E+00  0.2851E+00  0.1600E+02  0.1600E+02
    -17.664  0.0000E+00  0.0000E+00  0.1600E+02  0.1600E+02
    -17.500  0.0000E+00  0.0000E+00  0.1600E+02  0.1600E+02
    -17.336  0.0000E+00  0.0000E+00  0.1600E+02  0.1600E+02
    -17.173  0.0000E+00  0.0000E+00  0.1600E+02  0.1600E+02
    -17.009  0.0000E+00  0.0000E+00  0.1600E+02  0.1600E+02
    -16.845  0.0000E+00  0.0000E+00  0.1600E+02  0.1600E+02
    -16.682  0.0000E+00  0.0000E+00  0.1600E+02  0.1600E+02
    -16.518  0.0000E+00  0.0000E+00  0.1600E+02  0.1600E+02
    -16.354  0.0000E+00  0.0000E+00  0.1600E+02  0.1600E+02
    -16.191  0.0000E+00  0.0000E+00  0.1600E+02  0.1600E+02
    -16.027  0.0000E+00  0.0000E+00  0.1600E+02  0.1600E+02
    -15.863  0.0000E+00  0.0000E+00  0.1600E+02  0.1600E+02
    -15.699  0.0000E+00  0.0000E+00  0.1600E+02  0.1600E+02
    -15.536  0.0000E+00  0.0000E+00  0.1600E+02  0.1600E+02
    -15.372  0.0000E+00  0.0000E+00  0.1600E+02  0.1600E+02
    -15.208  0.0000E+00  0.0000E+00  0.1600E+02  0.1600E+02
    -15.045  0.0000E+00  0.0000E+00  0.1600E+02  0.1600E+02
    -14.881  0.0000E+00  0.0000E+00  0.1600E+02  0.1600E+02
    -14.717  0.0000E+00  0.0000E+00  0.1600E+02  0.1600E+02
    -14.554  0.0000E+00  0.0000E+00  0.1600E+02  0.1600E+02
    -14.390  0.0000E+00  0.0000E+00  0.1600E+02  0.1600E+02
    -14.226  0.0000E+00  0.0000E+00  0.1600E+02  0.1600E+02
    -14.063  0.0000E+00  0.0000E+00  0.1600E+02  0.1600E+02
    -13.899  0.0000E+00  0.0000E+00  0.1600E+02  0.1600E+02
    -13.735  0.0000E+00  0.0000E+00  0.1600E+02  0.1600E+02
    -13.572  0.0000E+00  0.0000E+00  0.1600E+02  0.1600E+02
    -13.408  0.0000E+00  0.0000E+00  0.1600E+02  0.1600E+02
    -13.244  0.0000E+00  0.0000E+00  0.1600E+02  0.1600E+02
    -13.081  0.0000E+00  0.0000E+00  0.1600E+02  0.1600E+02
    -12.917  0.0000E+00  0.0000E+00  0.1600E+02  0.1600E+02
    -12.753  0.0000E+00  0.0000E+00  0.1600E+02  0.1600E+02
    -12.590  0.0000E+00  0.0000E+00  0.1600E+02  0.1600E+02
    -12.426  0.0000E+00  0.0000E+00  0.1600E+02  0.1600E+02
    -12.262  0.0000E+00  0.0000E+00  0.1600E+02  0.1600E+02
    -12.099  0.0000E+00  0.0000E+00  0.1600E+02  0.1600E+02
    -11.935  0.0000E+00  0.0000E+00  0.1600E+02  0.1600E+02
    -11.771  0.0000E+00  0.0000E+00  0.1600E+02  0.1600E+02
    -11.608  0.0000E+00  0.0000E+00  0.1600E+02  0.1600E+02
    -11.444  0.0000E+00  0.0000E+00  0.1600E+02  0.1600E+02
    -11.280  0.0000E+00  0.0000E+00  0.1600E+02  0.1600E+02
    -11.117  0.0000E+00  0.0000E+00  0.1600E+02  0.1600E+02
    -10.953  0.0000E+00  0.0000E+00  0.1600E+02  0.1600E+02
    -10.789  0.0000E+00  0.0000E+00  0.1600E+02  0.1600E+02
    -10.626  0.0000E+00  0.0000E+00  0.1600E+02  0.1600E+02
    -10.462  0.0000E+00  0.0000E+00  0.1600E+02  0.1600E+02
    -10.298  0.0000E+00  0.0000E+00  0.1600E+02  0.1600E+02
    -10.135  0.0000E+00  0.0000E+00  0.1600E+02  0.1600E+02
     -9.971  0.0000E+00  0.0000E+00  0.1600E+02  0.1600E+02
     -9.807  0.0000E+00  0.0000E+00  0.1600E+02  0.1600E+02
     -9.644  0.0000E+00  0.0000E+00  0.1600E+02  0.1600E+02
     -9.480  0.0000E+00  0.0000E+00  0.1600E+02  0.1600E+02
     -9.316  0.0000E+00  0.0000E+00  0.1600E+02  0.1600E+02
     -9.153  0.0000E+00  0.0000E+00  0.1600E+02  0.1600E+02
     -8.989  0.0000E+00  0.0000E+00  0.1600E+02  0.1600E+02
     -8.825  0.0000E+00  0.0000E+00  0.1600E+02  0.1600E+02
     -8.662  0.0000E+00  0.0000E+00  0.1600E+02  0.1600E+02
     -8.498  0.0000E+00  0.0000E+00  0.1600E+02  0.1600E+02
     -8.334  0.0000E+00  0.0000E+00  0.1600E+02  0.1600E+02
     -8.171  0.0000E+00  0.0000E+00  0.1600E+02  0.1600E+02
     -8.007  0.0000E+00  0.0000E+00  0.1600E+02  0.1600E+02
     -7.843  0.0000E+00  0.0000E+00  0.1600E+02  0.1600E+02
     -7.680  0.0000E+00  0.0000E+00  0.1600E+02  0.1600E+02
     -7.516  0.0000E+00  0.0000E+00  0.1600E+02  0.1600E+02
     -7.352  0.0000E+00  0.0000E+00  0.1600E+02  0.1600E+02
     -7.189  0.0000E+00  0.0000E+00  0.1600E+02  0.1600E+02
     -7.025  0.0000E+00  0.0000E+00  0.1600E+02  0.1600E+02
     -6.861  0.0000E+00  0.0000E+00  0.1600E+02  0.1600E+02
     -6.698  0.0000E+00  0.0000E+00  0.1600E+02  0.1600E+02
     -6.534  0.0000E+00  0.0000E+00  0.1600E+02  0.1600E+02
     -6.370  0.0000E+00  0.0000E+00  0.1600E+02  0.1600E+02
     -6.207  0.0000E+00  0.0000E+00  0.1600E+02  0.1600E+02
     -6.043  0.0000E+00  0.0000E+00  0.1600E+02  0.1600E+02
     -5.879  0.0000E+00  0.0000E+00  0.1600E+02  0.1600E+02
     -5.716  0.0000E+00  0.0000E+00  0.1600E+02  0.1600E+02
     -5.552  0.0000E+00  0.0000E+00  0.1600E+02  0.1600E+02
     -5.388  0.0000E+00  0.0000E+00  0.1600E+02  0.1600E+02
     -5.225  0.0000E+00  0.0000E+00  0.1600E+02  0.1600E+02
     -5.061  0.0000E+00  0.0000E+00  0.1600E+02  0.1600E+02
     -4.897  0.0000E+00  0.0000E+00  0.1600E+02  0.1600E+02
     -4.734  0.0000E+00  0.0000E+00  0.1600E+02  0.1600E+02
     -4.570  0.0000E+00  0.0000E+00  0.1600E+02  0.1600E+02
     -4.406  0.9794E-06  0.9793E-06  0.1600E+02  0.1600E+02
     -4.243  0.6840E-04  0.6839E-04  0.1600E+02  0.1600E+02
     -4.079  0.1819E-02  0.1819E-02  0.1600E+02  0.1600E+02
     -3.915  0.4112E-01  0.4111E-01  0.1601E+02  0.1601E+02
     -3.751  0.3280E+00  0.3280E+00  0.1606E+02  0.1606E+02
     -3.588  0.7458E+00  0.7459E+00  0.1618E+02  0.1618E+02
     -3.424  0.9627E+00  0.9627E+00  0.1634E+02  0.1634E+02
     -3.260  0.9964E+00  0.9963E+00  0.1650E+02  0.1650E+02
     -3.097  0.1200E+01  0.1200E+01  0.1670E+02  0.1670E+02
     -2.933  0.1370E+01  0.1369E+01  0.1693E+02  0.1693E+02
     -2.769  0.1610E+01  0.1610E+01  0.1719E+02  0.1719E+02
     -2.606  0.1788E+01  0.1787E+01  0.1748E+02  0.1748E+02
     -2.442  0.2028E+01  0.2028E+01  0.1782E+02  0.1781E+02
     -2.278  0.2263E+01  0.2263E+01  0.1819E+02  0.1819E+02
     -2.115  0.2254E+01  0.2254E+01  0.1856E+02  0.1856E+02
     -1.951  0.2136E+01  0.2136E+01  0.1891E+02  0.1891E+02
     -1.787  0.2072E+01  0.2073E+01  0.1925E+02  0.1925E+02
     -1.624  0.1790E+01  0.1790E+01  0.1954E+02  0.1954E+02
     -1.460  0.2059E+01  0.2059E+01  0.1988E+02  0.1988E+02
     -1.296  0.2930E+01  0.2929E+01  0.2036E+02  0.2036E+02
     -1.133  0.2955E+01  0.2955E+01  0.2084E+02  0.2084E+02
     -0.969  0.2573E+01  0.2574E+01  0.2127E+02  0.2127E+02
     -0.805  0.2847E+01  0.2846E+01  0.2173E+02  0.2173E+02
     -0.642  0.2891E+01  0.2891E+01  0.2221E+02  0.2221E+02
     -0.478  0.2340E+01  0.2340E+01  0.2259E+02  0.2259E+02
     -0.314  0.2936E+01  0.2936E+01  0.2307E+02  0.2307E+02
     -0.151  0.3450E+01  0.3451E+01  0.2364E+02  0.2364E+02
      0.013  0.3214E+01  0.3214E+01  0.2417E+02  0.2417E+02
      0.177  0.3224E+01  0.3225E+01  0.2469E+02  0.2469E+02
      0.340  0.3387E+01  0.3386E+01  0.2525E+02  0.2525E+02
      0.504  0.2591E+01  0.2591E+01  0.2568E+02  0.2568E+02
      0.668  0.2409E+01  0.2409E+01  0.2607E+02  0.2607E+02
      0.831  0.2459E+01  0.2458E+01  0.2647E+02  0.2647E+02
      0.995  0.2567E+01  0.2567E+01  0.2690E+02  0.2690E+02
      1.159  0.1724E+01  0.1726E+01  0.2718E+02  0.2718E+02
      1.322  0.1802E+01  0.1803E+01  0.2748E+02  0.2748E+02
      1.486  0.2636E+01  0.2636E+01  0.2791E+02  0.2791E+02
      1.650  0.3119E+01  0.3122E+01  0.2842E+02  0.2842E+02
      1.813  0.3148E+01  0.3148E+01  0.2893E+02  0.2894E+02
      1.977  0.4128E+01  0.4129E+01  0.2961E+02  0.2961E+02
      2.141  0.3886E+01  0.3886E+01  0.3025E+02  0.3025E+02
      2.304  0.3844E+01  0.3843E+01  0.3088E+02  0.3088E+02
      2.468  0.4738E+01  0.4739E+01  0.3166E+02  0.3166E+02
      2.632  0.4956E+01  0.4955E+01  0.3247E+02  0.3247E+02
      2.795  0.5063E+01  0.5061E+01  0.3330E+02  0.3330E+02
      2.959  0.4642E+01  0.4643E+01  0.3406E+02  0.3406E+02
      3.123  0.4263E+01  0.4265E+01  0.3476E+02  0.3476E+02
      3.286  0.4398E+01  0.4399E+01  0.3548E+02  0.3548E+02
      3.450  0.4158E+01  0.4162E+01  0.3617E+02  0.3617E+02
      3.614  0.5041E+01  0.5040E+01  0.3699E+02  0.3699E+02
      3.777  0.4405E+01  0.4405E+01  0.3772E+02  0.3772E+02
      3.941  0.4506E+01  0.4507E+01  0.3845E+02  0.3846E+02
      4.105  0.4682E+01  0.4683E+01  0.3922E+02  0.3922E+02
      4.268  0.5153E+01  0.5153E+01  0.4007E+02  0.4007E+02
      4.432  0.4822E+01  0.4820E+01  0.4086E+02  0.4086E+02
      4.596  0.4828E+01  0.4830E+01  0.4165E+02  0.4165E+02
      4.759  0.4549E+01  0.4548E+01  0.4240E+02  0.4240E+02
      4.923  0.4230E+01  0.4230E+01  0.4309E+02  0.4309E+02
      5.087  0.3906E+01  0.3907E+01  0.4373E+02  0.4373E+02
      5.250  0.4152E+01  0.4153E+01  0.4442E+02  0.4442E+02
      5.414  0.4333E+01  0.4336E+01  0.4513E+02  0.4513E+02
      5.578  0.5511E+01  0.5510E+01  0.4603E+02  0.4603E+02
      5.741  0.5254E+01  0.5256E+01  0.4689E+02  0.4689E+02
      5.905  0.4923E+01  0.4947E+01  0.4770E+02  0.4771E+02
      6.069  0.6074E+01  0.6063E+01  0.4870E+02  0.4870E+02
      6.232  0.5671E+01  0.5389E+01  0.4963E+02  0.4958E+02
      6.396  0.4250E+01  0.4369E+01  0.5032E+02  0.5030E+02
      6.560  0.3185E+01  0.3471E+01  0.5085E+02  0.5087E+02
      6.723  0.2444E+01  0.2259E+01  0.5125E+02  0.5124E+02
      6.887  0.1780E+01  0.1822E+01  0.5154E+02  0.5154E+02
      7.051  0.1498E+01  0.1383E+01  0.5179E+02  0.5177E+02
      7.214  0.6526E+00  0.5758E+00  0.5190E+02  0.5187E+02
      7.378  0.4663E+00  0.5941E+00  0.5197E+02  0.5196E+02
      7.542  0.1483E+00  0.2114E+00  0.5200E+02  0.5200E+02
      7.705  0.1339E-01  0.1174E-01  0.5200E+02  0.5200E+02
      7.869  0.0000E+00  0.0000E+00  0.5200E+02  0.5200E+02
      8.033  0.0000E+00  0.0000E+00  0.5200E+02  0.5200E+02
      8.197  0.0000E+00  0.0000E+00  0.5200E+02  0.5200E+02
      8.360  0.0000E+00  0.0000E+00  0.5200E+02  0.5200E+02
      8.524  0.0000E+00  0.0000E+00  0.5200E+02  0.5200E+02
      8.688  0.0000E+00  0.0000E+00  0.5200E+02  0.5200E+02
      8.851  0.0000E+00  0.0000E+00  0.5200E+02  0.5200E+02
      9.015  0.0000E+00  0.0000E+00  0.5200E+02  0.5200E+02
      9.179  0.0000E+00  0.0000E+00  0.5200E+02  0.5200E+02
      9.342  0.0000E+00  0.0000E+00  0.5200E+02  0.5200E+02
      9.506  0.0000E+00  0.0000E+00  0.5200E+02  0.5200E+02
      9.670  0.0000E+00  0.0000E+00  0.5200E+02  0.5200E+02
      9.66954524    -39.43181876  301      3.84514402      1.00000000
    -39.432  0.0000E+00  0.0000E+00  0.0000E+00  0.0000E+00  0.0000E+00  0.0000E+00  0.0000E+00  0.0000E+00  0.0000E+00  0.0000E+00  0.0000E+00  0.0000E+00  0.0000E+00  0.0000E+00  0.0000E+00  0.0000E+00  0.0000E+00  0.0000E+00
    -39.268  0.0000E+00  0.0000E+00  0.0000E+00  0.0000E+00  0.0000E+00  0.0000E+00  0.0000E+00  0.0000E+00  0.0000E+00  0.0000E+00  0.0000E+00  0.0000E+00  0.0000E+00  0.0000E+00  0.0000E+00  0.0000E+00  0.0000E+00  0.0000E+00
    -39.104  0.0000E+00  0.0000E+00  0.0000E+00  0.0000E+00  0.0000E+00  0.0000E+00  0.0000E+00  0.0000E+00  0.0000E+00  0.0000E+00  0.0000E+00  0.0000E+00  0.0000E+00  0.0000E+00  0.0000E+00  0.0000E+00  0.0000E+00  0.0000E+00
    -38.941  0.0000E+00  0.0000E+00  0.0000E+00  0.0000E+00  0.0000E+00  0.0000E+00  0.0000E+00  0.0000E+00  0.0000E+00  0.0000E+00  0.0000E+00  0.0000E+00  0.0000E+00  0.0000E+00  0.0000E+00  0.0000E+00  0.0000E+00  0.0000E+00
    -38.777  0.0000E+00  0.0000E+00  0.0000E+00  0.0000E+00  0.0000E+00  0.0000E+00  0.0000E+00  0.0000E+00  0.0000E+00  0.0000E+00  0.0000E+00  0.0000E+00  0.0000E+00  0.0000E+00  0.0000E+00  0.0000E+00  0.0000E+00  0.0000E+00
    -38.613  0.0000E+00  0.0000E+00  0.0000E+00  0.0000E+00  0.0000E+00  0.0000E+00  0.0000E+00  0.0000E+00  0.0000E+00  0.0000E+00  0.0000E+00  0.0000E+00  0.0000E+00  0.0000E+00  0.0000E+00  0.0000E+00  0.0000E+00  0.0000E+00
    -38.450  0.0000E+00  0.0000E+00  0.0000E+00  0.0000E+00  0.0000E+00  0.0000E+00  0.0000E+00  0.0000E+00  0.0000E+00  0.0000E+00  0.0000E+00  0.0000E+00  0.0000E+00  0.0000E+00  0.0000E+00  0.0000E+00  0.0000E+00  0.0000E+00
    -38.286  0.0000E+00  0.0000E+00  0.0000E+00  0.0000E+00  0.0000E+00  0.0000E+00  0.0000E+00  0.0000E+00  0.0000E+00  0.0000E+00  0.0000E+00  0.0000E+00  0.0000E+00  0.0000E+00  0.0000E+00  0.0000E+00  0.0000E+00  0.0000E+00
    -38.122  0.0000E+00  0.0000E+00  0.0000E+00  0.0000E+00  0.0000E+00  0.0000E+00  0.0000E+00  0.0000E+00  0.0000E+00  0.0000E+00  0.0000E+00  0.0000E+00  0.0000E+00  0.0000E+00  0.0000E+00  0.0000E+00  0.0000E+00  0.0000E+00
    -37.959  0.0000E+00  0.0000E+00  0.0000E+00  0.0000E+00  0.0000E+00  0.0000E+00  0.0000E+00  0.0000E+00  0.0000E+00  0.0000E+00  0.0000E+00  0.0000E+00  0.0000E+00  0.0000E+00  0.0000E+00  0.0000E+00  0.0000E+00  0.0000E+00
    -37.795  0.0000E+00  0.0000E+00  0.0000E+00  0.0000E+00  0.0000E+00  0.0000E+00  0.0000E+00  0.0000E+00  0.0000E+00  0.0000E+00  0.0000E+00  0.0000E+00  0.0000E+00  0.0000E+00  0.0000E+00  0.0000E+00  0.0000E+00  0.0000E+00
    -37.631  0.1061E-02  0.1066E-02  0.1699E-12  0.1644E-12  0.4657E-09  0.4720E-09  0.1699E-12  0.1644E-12  0.2298E-15  0.5057E-15  0.1688E-15  0.5039E-15  0.8218E-10  0.8173E-10  0.1688E-15  0.5039E-15  0.9582E-13  0.1023E-12
    -37.468  0.2682E-01  0.2695E-01  0.4296E-11  0.4158E-11  0.1177E-07  0.1193E-07  0.4296E-11  0.4158E-11  0.5809E-14  0.1278E-13  0.4268E-14  0.1274E-13  0.2078E-08  0.2066E-08  0.4268E-14  0.1274E-13  0.2423E-11  0.2586E-11
    -37.304  0.6308E+00  0.6335E+00  0.1010E-09  0.9773E-10  0.2769E-06  0.2805E-06  0.1010E-09  0.9773E-10  0.1366E-12  0.3006E-12  0.1004E-12  0.2995E-12  0.4887E-07  0.4857E-07  0.1004E-12  0.2995E-12  0.5698E-10  0.6078E-10
    -37.140  0.3945E+01  0.3947E+01  0.6318E-09  0.6088E-09  0.1732E-05  0.1748E-05  0.6318E-09  0.6088E-09  0.8545E-12  0.1875E-11  0.6271E-12  0.1866E-11  0.3056E-06  0.3026E-06  0.6271E-12  0.1866E-11  0.3563E-09  0.3786E-09
    -36.977  0.1351E+01  0.1346E+01  0.2163E-09  0.2075E-09  0.5929E-06  0.5960E-06  0.2163E-09  0.2075E-09  0.2926E-12  0.6400E-12  0.2145E-12  0.6362E-12  0.1046E-06  0.1032E-06  0.2145E-12  0.6362E-12  0.1220E-09  0.1291E-09
    -36.813  0.6690E-01  0.6658E-01  0.1071E-10  0.1027E-10  0.2937E-07  0.2949E-07  0.1071E-10  0.1027E-10  0.1450E-13  0.3168E-13  0.1062E-13  0.3148E-13  0.5182E-08  0.5105E-08  0.1062E-13  0.3148E-13  0.6042E-11  0.6387E-11
    -36.649  0.0000E+00  0.0000E+00  0.0000E+00  0.0000E+00  0.0000E+00  0.0000E+00  0.0000E+00  0.0000E+00  0.0000E+00  0.0000E+00  0.0000E+00  0.0000E+00  0.0000E+00  0.0000E+00  0.0000E+00  0.0000E+00  0.0000E+00  0.0000E+00
    -36.486  0.0000E+00  0.0000E+00  0.0000E+00  0.0000E+00  0.0000E+00  0.0000E+00  0.0000E+00  0.0000E+00  0.0000E+00  0.0000E+00  0.0000E+00  0.0000E+00  0.0000E+00  0.0000E+00  0.0000E+00  0.0000E+00  0.0000E+00  0.0000E+00
    -36.322  0.0000E+00  0.0000E+00  0.0000E+00  0.0000E+00  0.0000E+00  0.0000E+00  0.0000E+00  0.0000E+00  0.0000E+00  0.0000E+00  0.0000E+00  0.0000E+00  0.0000E+00  0.0000E+00  0.0000E+00  0.0000E+00  0.0000E+00  0.0000E+00
    -36.158  0.0000E+00  0.0000E+00  0.0000E+00  0.0000E+00  0.0000E+00  0.0000E+00  0.0000E+00  0.0000E+00  0.0000E+00  0.0000E+00  0.0000E+00  0.0000E+00  0.0000E+00  0.0000E+00  0.0000E+00  0.0000E+00  0.0000E+00  0.0000E+00
    -35.995  0.0000E+00  0.0000E+00  0.0000E+00  0.0000E+00  0.0000E+00  0.0000E+00  0.0000E+00  0.0000E+00  0.0000E+00  0.0000E+00  0.0000E+00  0.0000E+00  0.0000E+00  0.0000E+00  0.0000E+00  0.0000E+00  0.0000E+00  0.0000E+00
    -35.831  0.0000E+00  0.0000E+00  0.0000E+00  0.0000E+00  0.0000E+00  0.0000E+00  0.0000E+00  0.0000E+00  0.0000E+00  0.0000E+00  0.0000E+00  0.0000E+00  0.0000E+00  0.0000E+00  0.0000E+00  0.0000E+00  0.0000E+00  0.0000E+00
    -35.667  0.0000E+00  0.0000E+00  0.0000E+00  0.0000E+00  0.0000E+00  0.0000E+00  0.0000E+00  0.0000E+00  0.0000E+00  0.0000E+00  0.0000E+00  0.0000E+00  0.0000E+00  0.0000E+00  0.0000E+00  0.0000E+00  0.0000E+00  0.0000E+00
    -35.504  0.0000E+00  0.0000E+00  0.0000E+00  0.0000E+00  0.0000E+00  0.0000E+00  0.0000E+00  0.0000E+00  0.0000E+00  0.0000E+00  0.0000E+00  0.0000E+00  0.0000E+00  0.0000E+00  0.0000E+00  0.0000E+00  0.0000E+00  0.0000E+00
    -35.340  0.0000E+00  0.0000E+00  0.0000E+00  0.0000E+00  0.0000E+00  0.0000E+00  0.0000E+00  0.0000E+00  0.0000E+00  0.0000E+00  0.0000E+00  0.0000E+00  0.0000E+00  0.0000E+00  0.0000E+00  0.0000E+00  0.0000E+00  0.0000E+00
    -35.176  0.0000E+00  0.0000E+00  0.0000E+00  0.0000E+00  0.0000E+00  0.0000E+00  0.0000E+00  0.0000E+00  0.0000E+00  0.0000E+00  0.0000E+00  0.0000E+00  0.0000E+00  0.0000E+00  0.0000E+00  0.0000E+00  0.0000E+00  0.0000E+00
    -35.013  0.0000E+00  0.0000E+00  0.0000E+00  0.0000E+00  0.0000E+00  0.0000E+00  0.0000E+00  0.0000E+00  0.0000E+00  0.0000E+00  0.0000E+00  0.0000E+00  0.0000E+00  0.0000E+00  0.0000E+00  0.0000E+00  0.0000E+00  0.0000E+00
    -34.849  0.0000E+00  0.0000E+00  0.0000E+00  0.0000E+00  0.0000E+00  0.0000E+00  0.0000E+00  0.0000E+00  0.0000E+00  0.0000E+00  0.0000E+00  0.0000E+00  0.0000E+00  0.0000E+00  0.0000E+00  0.0000E+00  0.0000E+00  0.0000E+00
    -34.685  0.0000E+00  0.0000E+00  0.0000E+00  0.0000E+00  0.0000E+00  0.0000E+00  0.0000E+00  0.0000E+00  0.0000E+00  0.0000E+00  0.0000E+00  0.0000E+00  0.0000E+00  0.0000E+00  0.0000E+00  0.0000E+00  0.0000E+00  0.0000E+00
    -34.522  0.0000E+00  0.0000E+00  0.0000E+00  0.0000E+00  0.0000E+00  0.0000E+00  0.0000E+00  0.0000E+00  0.0000E+00  0.0000E+00  0.0000E+00  0.0000E+00  0.0000E+00  0.0000E+00  0.0000E+00  0.0000E+00  0.0000E+00  0.0000E+00
    -34.358  0.0000E+00  0.0000E+00  0.0000E+00  0.0000E+00  0.0000E+00  0.0000E+00  0.0000E+00  0.0000E+00  0.0000E+00  0.0000E+00  0.0000E+00  0.0000E+00  0.0000E+00  0.0000E+00  0.0000E+00  0.0000E+00  0.0000E+00  0.0000E+00
    -34.194  0.0000E+00  0.0000E+00  0.0000E+00  0.0000E+00  0.0000E+00  0.0000E+00  0.0000E+00  0.0000E+00  0.0000E+00  0.0000E+00  0.0000E+00  0.0000E+00  0.0000E+00  0.0000E+00  0.0000E+00  0.0000E+00  0.0000E+00  0.0000E+00
    -34.031  0.0000E+00  0.0000E+00  0.0000E+00  0.0000E+00  0.0000E+00  0.0000E+00  0.0000E+00  0.0000E+00  0.0000E+00  0.0000E+00  0.0000E+00  0.0000E+00  0.0000E+00  0.0000E+00  0.0000E+00  0.0000E+00  0.0000E+00  0.0000E+00
    -33.867  0.0000E+00  0.0000E+00  0.0000E+00  0.0000E+00  0.0000E+00  0.0000E+00  0.0000E+00  0.0000E+00  0.0000E+00  0.0000E+00  0.0000E+00  0.0000E+00  0.0000E+00  0.0000E+00  0.0000E+00  0.0000E+00  0.0000E+00  0.0000E+00
    -33.703  0.0000E+00  0.0000E+00  0.0000E+00  0.0000E+00  0.0000E+00  0.0000E+00  0.0000E+00  0.0000E+00  0.0000E+00  0.0000E+00  0.0000E+00  0.0000E+00  0.0000E+00  0.0000E+00  0.0000E+00  0.0000E+00  0.0000E+00  0.0000E+00
    -33.540  0.0000E+00  0.0000E+00  0.0000E+00  0.0000E+00  0.0000E+00  0.0000E+00  0.0000E+00  0.0000E+00  0.0000E+00  0.0000E+00  0.0000E+00  0.0000E+00  0.0000E+00  0.0000E+00  0.0000E+00  0.0000E+00  0.0000E+00  0.0000E+00
    -33.376  0.0000E+00  0.0000E+00  0.0000E+00  0.0000E+00  0.0000E+00  0.0000E+00  0.0000E+00  0.0000E+00  0.0000E+00  0.0000E+00  0.0000E+00  0.0000E+00  0.0000E+00  0.0000E+00  0.0000E+00  0.0000E+00  0.0000E+00  0.0000E+00
    -33.212  0.0000E+00  0.0000E+00  0.0000E+00  0.0000E+00  0.0000E+00  0.0000E+00  0.0000E+00  0.0000E+00  0.0000E+00  0.0000E+00  0.0000E+00  0.0000E+00  0.0000E+00  0.0000E+00  0.0000E+00  0.0000E+00  0.0000E+00  0.0000E+00
    -33.049  0.0000E+00  0.0000E+00  0.0000E+00  0.0000E+00  0.0000E+00  0.0000E+00  0.0000E+00  0.0000E+00  0.0000E+00  0.0000E+00  0.0000E+00  0.0000E+00  0.0000E+00  0.0000E+00  0.0000E+00  0.0000E+00  0.0000E+00  0.0000E+00
    -32.885  0.0000E+00  0.0000E+00  0.0000E+00  0.0000E+00  0.0000E+00  0.0000E+00  0.0000E+00  0.0000E+00  0.0000E+00  0.0000E+00  0.0000E+00  0.0000E+00  0.0000E+00  0.0000E+00  0.0000E+00  0.0000E+00  0.0000E+00  0.0000E+00
    -32.721  0.0000E+00  0.0000E+00  0.0000E+00  0.0000E+00  0.0000E+00  0.0000E+00  0.0000E+00  0.0000E+00  0.0000E+00  0.0000E+00  0.0000E+00  0.0000E+00  0.0000E+00  0.0000E+00  0.0000E+00  0.0000E+00  0.0000E+00  0.0000E+00
    -32.558  0.0000E+00  0.0000E+00  0.0000E+00  0.0000E+00  0.0000E+00  0.0000E+00  0.0000E+00  0.0000E+00  0.0000E+00  0.0000E+00  0.0000E+00  0.0000E+00  0.0000E+00  0.0000E+00  0.0000E+00  0.0000E+00  0.0000E+00  0.0000E+00
    -32.394  0.0000E+00  0.0000E+00  0.0000E+00  0.0000E+00  0.0000E+00  0.0000E+00  0.0000E+00  0.0000E+00  0.0000E+00  0.0000E+00  0.0000E+00  0.0000E+00  0.0000E+00  0.0000E+00  0.0000E+00  0.0000E+00  0.0000E+00  0.0000E+00
    -32.230  0.0000E+00  0.0000E+00  0.0000E+00  0.0000E+00  0.0000E+00  0.0000E+00  0.0000E+00  0.0000E+00  0.0000E+00  0.0000E+00  0.0000E+00  0.0000E+00  0.0000E+00  0.0000E+00  0.0000E+00  0.0000E+00  0.0000E+00  0.0000E+00
    -32.067  0.0000E+00  0.0000E+00  0.0000E+00  0.0000E+00  0.0000E+00  0.0000E+00  0.0000E+00  0.0000E+00  0.0000E+00  0.0000E+00  0.0000E+00  0.0000E+00  0.0000E+00  0.0000E+00  0.0000E+00  0.0000E+00  0.0000E+00  0.0000E+00
    -31.903  0.0000E+00  0.0000E+00  0.0000E+00  0.0000E+00  0.0000E+00  0.0000E+00  0.0000E+00  0.0000E+00  0.0000E+00  0.0000E+00  0.0000E+00  0.0000E+00  0.0000E+00  0.0000E+00  0.0000E+00  0.0000E+00  0.0000E+00  0.0000E+00
    -31.739  0.0000E+00  0.0000E+00  0.0000E+00  0.0000E+00  0.0000E+00  0.0000E+00  0.0000E+00  0.0000E+00  0.0000E+00  0.0000E+00  0.0000E+00  0.0000E+00  0.0000E+00  0.0000E+00  0.0000E+00  0.0000E+00  0.0000E+00  0.0000E+00
    -31.576  0.0000E+00  0.0000E+00  0.0000E+00  0.0000E+00  0.0000E+00  0.0000E+00  0.0000E+00  0.0000E+00  0.0000E+00  0.0000E+00  0.0000E+00  0.0000E+00  0.0000E+00  0.0000E+00  0.0000E+00  0.0000E+00  0.0000E+00  0.0000E+00
    -31.412  0.0000E+00  0.0000E+00  0.0000E+00  0.0000E+00  0.0000E+00  0.0000E+00  0.0000E+00  0.0000E+00  0.0000E+00  0.0000E+00  0.0000E+00  0.0000E+00  0.0000E+00  0.0000E+00  0.0000E+00  0.0000E+00  0.0000E+00  0.0000E+00
    -31.248  0.0000E+00  0.0000E+00  0.0000E+00  0.0000E+00  0.0000E+00  0.0000E+00  0.0000E+00  0.0000E+00  0.0000E+00  0.0000E+00  0.0000E+00  0.0000E+00  0.0000E+00  0.0000E+00  0.0000E+00  0.0000E+00  0.0000E+00  0.0000E+00