  16  16   1   0
  0.2291336E+02  0.4525266E-09  0.4525266E-09  0.1790278E-08  0.5000000E-15
  1.000000000000000E-004
  CAR 
 unknown system                          
     11.08098568    -37.96421282  301      4.81521628      1.00000000
    -37.964  0.0000E+00  0.0000E+00  0.0000E+00  0.0000E+00
    -37.801  0.0000E+00  0.0000E+00  0.0000E+00  0.0000E+00
    -37.637  0.0000E+00  0.0000E+00  0.0000E+00  0.0000E+00
    -37.474  0.0000E+00  0.0000E+00  0.0000E+00  0.0000E+00
    -37.310  0.0000E+00  0.0000E+00  0.0000E+00  0.0000E+00
    -37.147  0.0000E+00  0.0000E+00  0.0000E+00  0.0000E+00
    -36.983  0.0000E+00  0.0000E+00  0.0000E+00  0.0000E+00
    -36.820  0.0000E+00  0.0000E+00  0.0000E+00  0.0000E+00
    -36.656  0.0000E+00  0.0000E+00  0.0000E+00  0.0000E+00
    -36.493  0.0000E+00  0.0000E+00  0.0000E+00  0.0000E+00
    -36.329  0.0000E+00  0.0000E+00  0.0000E+00  0.0000E+00
    -36.166  0.4290E-02  0.4318E-02  0.7013E-03  0.7059E-03
    -36.002  0.1080E+00  0.1087E+00  0.1837E-01  0.1848E-01
    -35.839  0.2535E+01  0.2550E+01  0.4328E+00  0.4353E+00
    -35.675  0.1598E+02  0.1600E+02  0.3046E+01  0.3050E+01
    -35.512  0.5550E+01  0.5523E+01  0.3953E+01  0.3953E+01
    -35.348  0.2770E+00  0.2752E+00  0.3998E+01  0.3998E+01
    -35.185  0.0000E+00  0.0000E+00  0.4000E+01  0.4000E+01
    -35.022  0.0000E+00  0.0000E+00  0.4000E+01  0.4000E+01
    -34.858  0.0000E+00  0.0000E+00  0.4000E+01  0.4000E+01
    -34.695  0.0000E+00  0.0000E+00  0.4000E+01  0.4000E+01
    -34.531  0.0000E+00  0.0000E+00  0.4000E+01  0.4000E+01
    -34.368  0.0000E+00  0.0000E+00  0.4000E+01  0.4000E+01
    -34.204  0.0000E+00  0.0000E+00  0.4000E+01  0.4000E+01
    -34.041  0.0000E+00  0.0000E+00  0.4000E+01  0.4000E+01
    -33.877  0.0000E+00  0.0000E+00  0.4000E+01  0.4000E+01
    -33.714  0.0000E+00  0.0000E+00  0.4000E+01  0.4000E+01
    -33.550  0.0000E+00  0.0000E+00  0.4000E+01  0.4000E+01
    -33.387  0.0000E+00  0.0000E+00  0.4000E+01  0.4000E+01
    -33.223  0.0000E+00  0.0000E+00  0.4000E+01  0.4000E+01
    -33.060  0.0000E+00  0.0000E+00  0.4000E+01  0.4000E+01
    -32.896  0.0000E+00  0.0000E+00  0.4000E+01  0.4000E+01
    -32.733  0.0000E+00  0.0000E+00  0.4000E+01  0.4000E+01
    -32.569  0.0000E+00  0.0000E+00  0.4000E+01  0.4000E+01
    -32.406  0.0000E+00  0.0000E+00  0.4000E+01  0.4000E+01
    -32.242  0.0000E+00  0.0000E+00  0.4000E+01  0.4000E+01
    -32.079  0.0000E+00  0.0000E+00  0.4000E+01  0.4000E+01
    -31.915  0.0000E+00  0.0000E+00  0.4000E+01  0.4000E+01
    -31.752  0.0000E+00  0.0000E+00  0.4000E+01  0.4000E+01
    -31.588  0.0000E+00  0.0000E+00  0.4000E+01  0.4000E+01
    -31.425  0.0000E+00  0.0000E+00  0.4000E+01  0.4000E+01
    -31.261  0.0000E+00  0.0000E+00  0.4000E+01  0.4000E+01
    -31.098  0.0000E+00  0.0000E+00  0.4000E+01  0.4000E+01
    -30.934  0.0000E+00  0.0000E+00  0.4000E+01  0.4000E+01
    -30.771  0.0000E+00  0.0000E+00  0.4000E+01  0.4000E+01
    -30.607  0.0000E+00  0.0000E+00  0.4000E+01  0.4000E+01
    -30.444  0.0000E+00  0.0000E+00  0.4000E+01  0.4000E+01
    -30.280  0.0000E+00  0.0000E+00  0.4000E+01  0.4000E+01
    -30.117  0.0000E+00  0.0000E+00  0.4000E+01  0.4000E+01
    -29.953  0.0000E+00  0.0000E+00  0.4000E+01  0.4000E+01
    -29.790  0.0000E+00  0.0000E+00  0.4000E+01  0.4000E+01
    -29.627  0.0000E+00  0.0000E+00  0.4000E+01  0.4000E+01
    -29.463  0.0000E+00  0.0000E+00  0.4000E+01  0.4000E+01
    -29.300  0.0000E+00  0.0000E+00  0.4000E+01  0.4000E+01
    -29.136  0.0000E+00  0.0000E+00  0.4000E+01  0.4000E+01
    -28.973  0.0000E+00  0.0000E+00  0.4000E+01  0.4000E+01
    -28.809  0.0000E+00  0.0000E+00  0.4000E+01  0.4000E+01
    -28.646  0.0000E+00  0.0000E+00  0.4000E+01  0.4000E+01
    -28.482  0.0000E+00  0.0000E+00  0.4000E+01  0.4000E+01
    -28.319  0.0000E+00  0.0000E+00  0.4000E+01  0.4000E+01
    -28.155  0.0000E+00  0.0000E+00  0.4000E+01  0.4000E+01
    -27.992  0.0000E+00  0.0000E+00  0.4000E+01  0.4000E+01
    -27.828  0.0000E+00  0.0000E+00  0.4000E+01  0.4000E+01
    -27.665  0.0000E+00  0.0000E+00  0.4000E+01  0.4000E+01
    -27.501  0.0000E+00  0.0000E+00  0.4000E+01  0.4000E+01
    -27.338  0.0000E+00  0.0000E+00  0.4000E+01  0.4000E+01
    -27.174  0.0000E+00  0.0000E+00  0.4000E+01  0.4000E+01
    -27.011  0.0000E+00  0.0000E+00  0.4000E+01  0.4000E+01
    -26.847  0.0000E+00  0.0000E+00  0.4000E+01  0.4000E+01
    -26.684  0.0000E+00  0.0000E+00  0.4000E+01  0.4000E+01
    -26.520  0.0000E+00  0.0000E+00  0.4000E+01  0.4000E+01
    -26.357  0.0000E+00  0.0000E+00  0.4000E+01  0.4000E+01
    -26.193  0.0000E+00  0.0000E+00  0.4000E+01  0.4000E+01
    -26.030  0.0000E+00  0.0000E+00  0.4000E+01  0.4000E+01
    -25.866  0.0000E+00  0.0000E+00  0.4000E+01  0.4000E+01
    -25.703  0.0000E+00  0.0000E+00  0.4000E+01  0.4000E+01
    -25.539  0.0000E+00  0.0000E+00  0.4000E+01  0.4000E+01
    -25.376  0.0000E+00  0.0000E+00  0.4000E+01  0.4000E+01
    -25.212  0.0000E+00  0.0000E+00  0.4000E+01  0.4000E+01
    -25.049  0.0000E+00  0.0000E+00  0.4000E+01  0.4000E+01
    -24.885  0.0000E+00  0.0000E+00  0.4000E+01  0.4000E+01
    -24.722  0.0000E+00  0.0000E+00  0.4000E+01  0.4000E+01
    -24.559  0.0000E+00  0.0000E+00  0.4000E+01  0.4000E+01
    -24.395  0.0000E+00  0.0000E+00  0.4000E+01  0.4000E+01
    -24.232  0.0000E+00  0.0000E+00  0.4000E+01  0.4000E+01
    -24.068  0.0000E+00  0.0000E+00  0.4000E+01  0.4000E+01
    -23.905  0.0000E+00  0.0000E+00  0.4000E+01  0.4000E+01
    -23.741  0.0000E+00  0.0000E+00  0.4000E+01  0.4000E+01
    -23.578  0.0000E+00  0.0000E+00  0.4000E+01  0.4000E+01
    -23.414  0.0000E+00  0.0000E+00  0.4000E+01  0.4000E+01
    -23.251  0.0000E+00  0.0000E+00  0.4000E+01  0.4000E+01
    -23.087  0.0000E+00  0.0000E+00  0.4000E+01  0.4000E+01
    -22.924  0.0000E+00  0.0000E+00  0.4000E+01  0.4000E+01
    -22.760  0.0000E+00  0.0000E+00  0.4000E+01  0.4000E+01
    -22.597  0.0000E+00  0.0000E+00  0.4000E+01  0.4000E+01
    -22.433  0.0000E+00  0.0000E+00  0.4000E+01  0.4000E+01
    -22.270  0.0000E+00  0.0000E+00  0.4000E+01  0.4000E+01
    -22.106  0.0000E+00  0.0000E+00  0.4000E+01  0.4000E+01
    -21.943  0.0000E+00  0.0000E+00  0.4000E+01  0.4000E+01
    -21.779  0.0000E+00  0.0000E+00  0.4000E+01  0.4000E+01
    -21.616  0.0000E+00  0.0000E+00  0.4000E+01  0.4000E+01
    -21.452  0.0000E+00  0.0000E+00  0.4000E+01  0.4000E+01
    -21.289  0.0000E+00  0.0000E+00  0.4000E+01  0.4000E+01
    -21.125  0.0000E+00  0.0000E+00  0.4000E+01  0.4000E+01
    -20.962  0.0000E+00  0.0000E+00  0.4000E+01  0.4000E+01
    -20.798  0.0000E+00  0.0000E+00  0.4000E+01  0.4000E+01
    -20.635  0.0000E+00  0.0000E+00  0.4000E+01  0.4000E+01
    -20.471  0.0000E+00  0.0000E+00  0.4000E+01  0.4000E+01
    -20.308  0.0000E+00  0.0000E+00  0.4000E+01  0.4000E+01
    -20.144  0.0000E+00  0.0000E+00  0.4000E+01  0.4000E+01
    -19.981  0.0000E+00  0.0000E+00  0.4000E+01  0.4000E+01
    -19.817  0.0000E+00  0.0000E+00  0.4000E+01  0.4000E+01
    -19.654  0.0000E+00  0.0000E+00  0.4000E+01  0.4000E+01
    -19.491  0.0000E+00  0.0000E+00  0.4000E+01  0.4000E+01
    -19.327  0.0000E+00  0.0000E+00  0.4000E+01  0.4000E+01
    -19.164  0.0000E+00  0.0000E+00  0.4000E+01  0.4000E+01
    -19.000  0.0000E+00  0.0000E+00  0.4000E+01  0.4000E+01
    -18.837  0.0000E+00  0.0000E+00  0.4000E+01  0.4000E+01
    -18.673  0.0000E+00  0.0000E+00  0.4000E+01  0.4000E+01
    -18.510  0.0000E+00  0.0000E+00  0.4000E+01  0.4000E+01
    -18.346  0.0000E+00  0.0000E+00  0.4000E+01  0.4000E+01
    -18.183  0.0000E+00  0.0000E+00  0.4000E+01  0.4000E+01
    -18.019  0.0000E+00  0.0000E+00  0.4000E+01  0.4000E+01
    -17.856  0.0000E+00  0.0000E+00  0.4000E+01  0.4000E+01
    -17.692  0.0000E+00  0.0000E+00  0.4000E+01  0.4000E+01
    -17.529  0.0000E+00  0.0000E+00  0.4000E+01  0.4000E+01
    -17.365  0.1046E-02  0.1051E-02  0.4000E+01  0.4000E+01
    -17.202  0.3209E-01  0.3225E-01  0.4005E+01  0.4005E+01
    -17.038  0.8278E+00  0.8317E+00  0.4141E+01  0.4141E+01
    -16.875  0.1632E+02  0.1638E+02  0.6809E+01  0.6819E+01
    -16.711  0.4768E+02  0.4765E+02  0.1460E+02  0.1461E+02
    -16.548  0.8171E+01  0.8136E+01  0.1594E+02  0.1594E+02
    -16.384  0.0000E+00  0.0000E+00  0.1600E+02  0.1600E+02
    -16.221  0.0000E+00  0.0000E+00  0.1600E+02  0.1600E+02
    -16.057  0.0000E+00  0.0000E+00  0.1600E+02  0.1600E+02
    -15.894  0.0000E+00  0.0000E+00  0.1600E+02  0.1600E+02
    -15.730  0.0000E+00  0.0000E+00  0.1600E+02  0.1600E+02
    -15.567  0.0000E+00  0.0000E+00  0.1600E+02  0.1600E+02
    -15.403  0.0000E+00  0.0000E+00  0.1600E+02  0.1600E+02
    -15.240  0.0000E+00  0.0000E+00  0.1600E+02  0.1600E+02
    -15.076  0.0000E+00  0.0000E+00  0.1600E+02  0.1600E+02
    -14.913  0.0000E+00  0.0000E+00  0.1600E+02  0.1600E+02
    -14.749  0.0000E+00  0.0000E+00  0.1600E+02  0.1600E+02
    -14.586  0.0000E+00  0.0000E+00  0.1600E+02  0.1600E+02
    -14.423  0.0000E+00  0.0000E+00  0.1600E+02  0.1600E+02
    -14.259  0.0000E+00  0.0000E+00  0.1600E+02  0.1600E+02
    -14.096  0.0000E+00  0.0000E+00  0.1600E+02  0.1600E+02
    -13.932  0.0000E+00  0.0000E+00  0.1600E+02  0.1600E+02
    -13.769  0.0000E+00  0.0000E+00  0.1600E+02  0.1600E+02
    -13.605  0.0000E+00  0.0000E+00  0.1600E+02  0.1600E+02
    -13.442  0.0000E+00  0.0000E+00  0.1600E+02  0.1600E+02
    -13.278  0.0000E+00  0.0000E+00  0.1600E+02  0.1600E+02
    -13.115  0.0000E+00  0.0000E+00  0.1600E+02  0.1600E+02
    -12.951  0.0000E+00  0.0000E+00  0.1600E+02  0.1600E+02
    -12.788  0.0000E+00  0.0000E+00  0.1600E+02  0.1600E+02
    -12.624  0.0000E+00  0.0000E+00  0.1600E+02  0.1600E+02
    -12.461  0.0000E+00  0.0000E+00  0.1600E+02  0.1600E+02
    -12.297  0.0000E+00  0.0000E+00  0.1600E+02  0.1600E+02
    -12.134  0.0000E+00  0.0000E+00  0.1600E+02  0.1600E+02
    -11.970  0.0000E+00  0.0000E+00  0.1600E+02  0.1600E+02
    -11.807  0.0000E+00  0.0000E+00  0.1600E+02  0.1600E+02
    -11.643  0.0000E+00  0.0000E+00  0.1600E+02  0.1600E+02
    -11.480  0.0000E+00  0.0000E+00  0.1600E+02  0.1600E+02
    -11.316  0.0000E+00  0.0000E+00  0.1600E+02  0.1600E+02
    -11.153  0.0000E+00  0.0000E+00  0.1600E+02  0.1600E+02
    -10.989  0.0000E+00  0.0000E+00  0.1600E+02  0.1600E+02
    -10.826  0.0000E+00  0.0000E+00  0.1600E+02  0.1600E+02
    -10.662  0.0000E+00  0.0000E+00  0.1600E+02  0.1600E+02
    -10.499  0.0000E+00  0.0000E+00  0.1600E+02  0.1600E+02
    -10.335  0.0000E+00  0.0000E+00  0.1600E+02  0.1600E+02
    -10.172  0.0000E+00  0.0000E+00  0.1600E+02  0.1600E+02
    -10.008  0.0000E+00  0.0000E+00  0.1600E+02  0.1600E+02
     -9.845  0.0000E+00  0.0000E+00  0.1600E+02  0.1600E+02
     -9.681  0.0000E+00  0.0000E+00  0.1600E+02  0.1600E+02
     -9.518  0.0000E+00  0.0000E+00  0.1600E+02  0.1600E+02
     -9.355  0.0000E+00  0.0000E+00  0.1600E+02  0.1600E+02
     -9.191  0.0000E+00  0.0000E+00  0.1600E+02  0.1600E+02
     -9.028  0.0000E+00  0.0000E+00  0.1600E+02  0.1600E+02
     -8.864  0.0000E+00  0.0000E+00  0.1600E+02  0.1600E+02
     -8.701  0.0000E+00  0.0000E+00  0.1600E+02  0.1600E+02
     -8.537  0.0000E+00  0.0000E+00  0.1600E+02  0.1600E+02
     -8.374  0.0000E+00  0.0000E+00  0.1600E+02  0.1600E+02
     -8.210  0.0000E+00  0.0000E+00  0.1600E+02  0.1600E+02
     -8.047  0.0000E+00  0.0000E+00  0.1600E+02  0.1600E+02
     -7.883  0.0000E+00  0.0000E+00  0.1600E+02  0.1600E+02
     -7.720  0.0000E+00  0.0000E+00  0.1600E+02  0.1600E+02
     -7.556  0.0000E+00  0.0000E+00  0.1600E+02  0.1600E+02
     -7.393  0.0000E+00  0.0000E+00  0.1600E+02  0.1600E+02
     -7.229  0.0000E+00  0.0000E+00  0.1600E+02  0.1600E+02
     -7.066  0.0000E+00  0.0000E+00  0.1600E+02  0.1600E+02
     -6.902  0.0000E+00  0.0000E+00  0.1600E+02  0.1600E+02
     -6.739  0.0000E+00  0.0000E+00  0.1600E+02  0.1600E+02
     -6.575  0.0000E+00  0.0000E+00  0.1600E+02  0.1600E+02
     -6.412  0.0000E+00  0.0000E+00  0.1600E+02  0.1600E+02
     -6.248  0.0000E+00  0.0000E+00  0.1600E+02  0.1600E+02
     -6.085  0.0000E+00  0.0000E+00  0.1600E+02  0.1600E+02
     -5.921  0.0000E+00  0.0000E+00  0.1600E+02  0.1600E+02
     -5.758  0.0000E+00  0.0000E+00  0.1600E+02  0.1600E+02
     -5.594  0.0000E+00  0.0000E+00  0.1600E+02  0.1600E+02
     -5.431  0.0000E+00  0.0000E+00  0.1600E+02  0.1600E+02
     -5.267  0.0000E+00  0.0000E+00  0.1600E+02  0.1600E+02
     -5.104  0.0000E+00  0.0000E+00  0.1600E+02  0.1600E+02
     -4.940  0.0000E+00  0.0000E+00  0.1600E+02  0.1600E+02
     -4.777  0.0000E+00  0.0000E+00  0.1600E+02  0.1600E+02
     -4.613  0.0000E+00  0.0000E+00  0.1600E+02  0.1600E+02
     -4.450  0.0000E+00  0.0000E+00  0.1600E+02  0.1600E+02
     -4.287  0.0000E+00  0.0000E+00  0.1600E+02  0.1600E+02
     -4.123  0.0000E+00  0.0000E+00  0.1600E+02  0.1600E+02
     -3.960  0.1865E-04  0.1864E-04  0.1600E+02  0.1600E+02
     -3.796  0.5197E-03  0.5194E-03  0.1600E+02  0.1600E+02
     -3.633  0.1290E-01  0.1289E-01  0.1600E+02  0.1600E+02
     -3.469  0.1645E+00  0.1645E+00  0.1603E+02  0.1603E+02
     -3.306  0.5240E+00  0.5240E+00  0.1611E+02  0.1611E+02
     -3.142  0.7824E+00  0.7824E+00  0.1624E+02  0.1624E+02
     -2.979  0.8810E+00  0.8809E+00  0.1639E+02  0.1639E+02
     -2.815  0.9060E+00  0.9058E+00  0.1654E+02  0.1654E+02
     -2.652  0.1094E+01  0.1094E+01  0.1671E+02  0.1671E+02
     -2.488  0.1212E+01  0.1212E+01  0.1691E+02  0.1691E+02
     -2.325  0.1434E+01  0.1434E+01  0.1715E+02  0.1715E+02
     -2.161  0.1559E+01  0.1558E+01  0.1740E+02  0.1740E+02
     -1.998  0.1714E+01  0.1713E+01  0.1768E+02  0.1768E+02
     -1.834  0.2012E+01  0.2012E+01  0.1801E+02  0.1801E+02
     -1.671  0.1994E+01  0.1994E+01  0.1834E+02  0.1834E+02
     -1.507  0.2051E+01  0.2051E+01  0.1868E+02  0.1868E+02
     -1.344  0.1957E+01  0.1957E+01  0.1900E+02  0.1900E+02
     -1.180  0.1823E+01  0.1824E+01  0.1930E+02  0.1930E+02
     -1.017  0.1689E+01  0.1689E+01  0.1957E+02  0.1957E+02
     -0.853  0.1870E+01  0.1870E+01  0.1988E+02  0.1988E+02
     -0.690  0.2697E+01  0.2696E+01  0.2032E+02  0.2032E+02
     -0.526  0.2520E+01  0.2520E+01  0.2073E+02  0.2073E+02
     -0.363  0.2445E+01  0.2446E+01  0.2113E+02  0.2113E+02
     -0.199  0.2186E+01  0.2186E+01  0.2149E+02  0.2149E+02
     -0.036  0.2674E+01  0.2674E+01  0.2193E+02  0.2193E+02
      0.128  0.2397E+01  0.2398E+01  0.2232E+02  0.2232E+02
      0.291  0.2098E+01  0.2098E+01  0.2267E+02  0.2267E+02
      0.455  0.2813E+01  0.2815E+01  0.2313E+02  0.2313E+02
      0.618  0.3167E+01  0.3167E+01  0.2365E+02  0.2365E+02
      0.781  0.2816E+01  0.2816E+01  0.2411E+02  0.2411E+02
      0.945  0.2982E+01  0.2982E+01  0.2460E+02  0.2460E+02
      1.108  0.2974E+01  0.2974E+01  0.2508E+02  0.2508E+02
      1.272  0.2546E+01  0.2546E+01  0.2550E+02  0.2550E+02
      1.435  0.2359E+01  0.2360E+01  0.2589E+02  0.2589E+02
      1.599  0.2318E+01  0.2318E+01  0.2627E+02  0.2627E+02
      1.762  0.2504E+01  0.2503E+01  0.2668E+02  0.2668E+02
      1.926  0.2341E+01  0.2342E+01  0.2706E+02  0.2706E+02
      2.089  0.1938E+01  0.1938E+01  0.2738E+02  0.2738E+02
      2.253  0.2302E+01  0.2302E+01  0.2776E+02  0.2776E+02
      2.416  0.3215E+01  0.3215E+01  0.2828E+02  0.2828E+02
      2.580  0.3453E+01  0.3452E+01  0.2885E+02  0.2885E+02
      2.743  0.3703E+01  0.3704E+01  0.2946E+02  0.2946E+02
      2.907  0.3750E+01  0.3751E+01  0.3007E+02  0.3007E+02
      3.070  0.3838E+01  0.3837E+01  0.3070E+02  0.3070E+02
      3.234  0.4409E+01  0.4409E+01  0.3142E+02  0.3142E+02
      3.397  0.4798E+01  0.4798E+01  0.3221E+02  0.3221E+02
      3.561  0.4872E+01  0.4871E+01  0.3301E+02  0.3301E+02
      3.724  0.4422E+01  0.4421E+01  0.3373E+02  0.3373E+02
      3.888  0.3762E+01  0.3763E+01  0.3435E+02  0.3435E+02
      4.051  0.3780E+01  0.3781E+01  0.3497E+02  0.3497E+02
      4.215  0.3803E+01  0.3804E+01  0.3559E+02  0.3559E+02
      4.378  0.3921E+01  0.3923E+01  0.3623E+02  0.3623E+02
      4.542  0.4125E+01  0.4124E+01  0.3691E+02  0.3691E+02
      4.705  0.3992E+01  0.3992E+01  0.3756E+02  0.3756E+02
      4.869  0.4063E+01  0.4064E+01  0.3823E+02  0.3823E+02
      5.032  0.4195E+01  0.4195E+01  0.3892E+02  0.3892E+02
      5.196  0.4408E+01  0.4409E+01  0.3964E+02  0.3964E+02
      5.359  0.4674E+01  0.4672E+01  0.4040E+02  0.4041E+02
      5.523  0.4369E+01  0.4371E+01  0.4112E+02  0.4112E+02
      5.686  0.3838E+01  0.3837E+01  0.4175E+02  0.4175E+02
      5.849  0.4045E+01  0.4045E+01  0.4241E+02  0.4241E+02
      6.013  0.3863E+01  0.3863E+01  0.4305E+02  0.4305E+02
      6.176  0.3783E+01  0.3783E+01  0.4367E+02  0.4367E+02
      6.340  0.3765E+01  0.3765E+01  0.4428E+02  0.4428E+02
      6.503  0.3752E+01  0.3753E+01  0.4490E+02  0.4490E+02
      6.667  0.4363E+01  0.4362E+01  0.4561E+02  0.4561E+02
      6.830  0.4741E+01  0.4739E+01  0.4639E+02  0.4639E+02
      6.994  0.4814E+01  0.4807E+01  0.4718E+02  0.4718E+02
      7.157  0.4988E+01  0.4920E+01  0.4800E+02  0.4798E+02
      7.321  0.5740E+01  0.5622E+01  0.4894E+02  0.4891E+02
      7.484  0.4607E+01  0.4652E+01  0.4969E+02  0.4967E+02
      7.648  0.3733E+01  0.3865E+01  0.5031E+02  0.5030E+02
      7.811  0.3043E+01  0.3205E+01  0.5081E+02  0.5083E+02
      7.975  0.2107E+01  0.2160E+01  0.5115E+02  0.5118E+02
      8.138  0.1820E+01  0.1628E+01  0.5145E+02  0.5145E+02
      8.302  0.1291E+01  0.1421E+01  0.5166E+02  0.5168E+02
      8.465  0.8953E+00  0.8971E+00  0.5181E+02  0.5183E+02
      8.629  0.4574E+00  0.4270E+00  0.5189E+02  0.5190E+02
      8.792  0.4167E+00  0.4800E+00  0.5195E+02  0.5198E+02
      8.956  0.2540E+00  0.1106E+00  0.5200E+02  0.5200E+02
      9.119  0.2516E-01  0.1583E-02  0.5200E+02  0.5200E+02
      9.283  0.0000E+00  0.0000E+00  0.5200E+02  0.5200E+02
      9.446  0.0000E+00  0.0000E+00  0.5200E+02  0.5200E+02
      9.610  0.0000E+00  0.0000E+00  0.5200E+02  0.5200E+02
      9.773  0.0000E+00  0.0000E+00  0.5200E+02  0.5200E+02
      9.937  0.0000E+00  0.0000E+00  0.5200E+02  0.5200E+02
     10.100  0.0000E+00  0.0000E+00  0.5200E+02  0.5200E+02
     10.264  0.0000E+00  0.0000E+00  0.5200E+02  0.5200E+02
     10.427  0.0000E+00  0.0000E+00  0.5200E+02  0.5200E+02
     10.591  0.0000E+00  0.0000E+00  0.5200E+02  0.5200E+02
     10.754  0.0000E+00  0.0000E+00  0.5200E+02  0.5200E+02
     10.918  0.0000E+00  0.0000E+00  0.5200E+02  0.5200E+02
     11.081  0.0000E+00  0.0000E+00  0.5200E+02  0.5200E+02
     11.08098568    -37.96421282  301      4.81521628      1.00000000
    -37.964  0.0000E+00  0.0000E+00  0.0000E+00  0.0000E+00  0.0000E+00  0.0000E+00  0.0000E+00  0.0000E+00  0.0000E+00  0.0000E+00  0.0000E+00  0.0000E+00  0.0000E+00  0.0000E+00  0.0000E+00  0.0000E+00  0.0000E+00  0.0000E+00
    -37.801  0.0000E+00  0.0000E+00  0.0000E+00  0.0000E+00  0.0000E+00  0.0000E+00  0.0000E+00  0.0000E+00  0.0000E+00  0.0000E+00  0.0000E+00  0.0000E+00  0.0000E+00  0.0000E+00  0.0000E+00  0.0000E+00  0.0000E+00  0.0000E+00
    -37.637  0.0000E+00  0.0000E+00  0.0000E+00  0.0000E+00  0.0000E+00  0.0000E+00  0.0000E+00  0.0000E+00  0.0000E+00  0.0000E+00  0.0000E+00  0.0000E+00  0.0000E+00  0.0000E+00  0.0000E+00  0.0000E+00  0.0000E+00  0.0000E+00
    -37.474  0.0000E+00  0.0000E+00  0.0000E+00  0.0000E+00  0.0000E+00  0.0000E+00  0.0000E+00  0.0000E+00  0.0000E+00  0.0000E+00  0.0000E+00  0.0000E+00  0.0000E+00  0.0000E+00  0.0000E+00  0.0000E+00  0.0000E+00  0.0000E+00
    -37.310  0.0000E+00  0.0000E+00  0.0000E+00  0.0000E+00  0.0000E+00  0.0000E+00  0.0000E+00  0.0000E+00  0.0000E+00  0.0000E+00  0.0000E+00  0.0000E+00  0.0000E+00  0.0000E+00  0.0000E+00  0.0000E+00  0.0000E+00  0.0000E+00
    -37.147  0.0000E+00  0.0000E+00  0.0000E+00  0.0000E+00  0.0000E+00  0.0000E+00  0.0000E+00  0.0000E+00  0.0000E+00  0.0000E+00  0.0000E+00  0.0000E+00  0.0000E+00  0.0000E+00  0.0000E+00  0.0000E+00  0.0000E+00  0.0000E+00
    -36.983  0.0000E+00  0.0000E+00  0.0000E+00  0.0000E+00  0.0000E+00  0.0000E+00  0.0000E+00  0.0000E+00  0.0000E+00  0.0000E+00  0.0000E+00  0.0000E+00  0.0000E+00  0.0000E+00  0.0000E+00  0.0000E+00  0.0000E+00  0.0000E+00
    -36.820  0.0000E+00  0.0000E+00  0.0000E+00  0.0000E+00  0.0000E+00  0.0000E+00  0.0000E+00  0.0000E+00  0.0000E+00  0.0000E+00  0.0000E+00  0.0000E+00  0.0000E+00  0.0000E+00  0.0000E+00  0.0000E+00  0.0000E+00  0.0000E+00
    -36.656  0.0000E+00  0.0000E+00  0.0000E+00  0.0000E+00  0.0000E+00  0.0000E+00  0.0000E+00  0.0000E+00  0.0000E+00  0.0000E+00  0.0000E+00  0.0000E+00  0.0000E+00  0.0000E+00  0.0000E+00  0.0000E+00  0.0000E+00  0.0000E+00
    -36.493  0.0000E+00  0.0000E+00  0.0000E+00  0.0000E+00  0.0000E+00  0.0000E+00  0.0000E+00  0.0000E+00  0.0000E+00  0.0000E+00  0.0000E+00  0.0000E+00  0.0000E+00  0.0000E+00  0.0000E+00  0.0000E+00  0.0000E+00  0.0000E+00
    -36.329  0.0000E+00  0.0000E+00  0.0000E+00  0.0000E+00  0.0000E+00  0.0000E+00  0.0000E+00  0.0000E+00  0.0000E+00  0.0000E+00  0.0000E+00  0.0000E+00  0.0000E+00  0.0000E+00  0.0000E+00  0.0000E+00  0.0000E+00  0.0000E+00
    -36.166  0.1057E-02  0.1064E-02  0.8710E-12  0.8854E-12  0.6308E-09  0.6399E-09  0.8710E-12  0.8854E-12  0.3186E-15  0.3659E-15  0.8563E-15  0.8279E-15  0.1458E-09  0.1456E-09  0.8563E-15  0.8279E-15  0.6077E-12  0.6156E-12
    -36.002  0.2662E-01  0.2679E-01  0.2194E-10  0.2230E-10  0.1589E-07  0.1612E-07  0.2194E-10  0.2230E-10  0.8026E-14  0.9215E-14  0.2157E-13  0.2085E-13  0.3673E-08  0.3667E-08  0.2157E-13  0.2085E-13  0.1531E-10  0.1550E-10
    -35.839  0.6245E+00  0.6281E+00  0.5147E-09  0.5228E-09  0.3727E-06  0.3779E-06  0.5147E-09  0.5228E-09  0.1883E-12  0.2161E-12  0.5060E-12  0.4890E-12  0.8617E-07  0.8596E-07  0.5060E-12  0.4890E-12  0.3591E-09  0.3635E-09
    -35.675  0.3937E+01  0.3940E+01  0.3244E-08  0.3279E-08  0.2351E-05  0.2372E-05  0.3244E-08  0.3279E-08  0.1187E-11  0.1359E-11  0.3188E-11  0.3073E-11  0.5433E-06  0.5393E-06  0.3188E-11  0.3073E-11  0.2264E-08  0.2280E-08
    -35.512  0.1367E+01  0.1361E+01  0.1126E-08  0.1132E-08  0.8167E-06  0.8192E-06  0.1126E-08  0.1132E-08  0.4122E-12  0.4708E-12  0.1106E-11  0.1063E-11  0.1886E-06  0.1862E-06  0.1106E-11  0.1063E-11  0.7862E-09  0.7874E-09
    -35.348  0.6825E-01  0.6781E-01  0.5620E-10  0.5641E-10  0.4077E-07  0.4083E-07  0.5620E-10  0.5641E-10  0.2057E-13  0.2348E-13  0.5520E-13  0.5301E-13  0.9415E-08  0.9279E-08  0.5520E-13  0.5301E-13  0.3924E-10  0.3924E-10
    -35.185  0.0000E+00  0.0000E+00  0.0000E+00  0.0000E+00  0.0000E+00  0.0000E+00  0.0000E+00  0.0000E+00  0.0000E+00  0.0000E+00  0.0000E+00  0.0000E+00  0.0000E+00  0.0000E+00  0.0000E+00  0.0000E+00  0.0000E+00  0.0000E+00
    -35.022  0.0000E+00  0.0000E+00  0.0000E+00  0.0000E+00  0.0000E+00  0.0000E+00  0.0000E+00  0.0000E+00  0.0000E+00  0.0000E+00  0.0000E+00  0.0000E+00  0.0000E+00  0.0000E+00  0.0000E+00  0.0000E+00  0.0000E+00  0.0000E+00
    -34.858  0.0000E+00  0.0000E+00  0.0000E+00  0.0000E+00  0.0000E+00  0.0000E+00  0.0000E+00  0.0000E+00  0.0000E+00  0.0000E+00  0.0000E+00  0.0000E+00  0.0000E+00  0.0000E+00  0.0000E+00  0.0000E+00  0.0000E+00  0.0000E+00
    -34.695  0.0000E+00  0.0000E+00  0.0000E+00  0.0000E+00  0.0000E+00  0.0000E+00  0.0000E+00  0.0000E+00  0.0000E+00  0.0000E+00  0.0000E+00  0.0000E+00  0.0000E+00  0.0000E+00  0.0000E+00  0.0000E+00  0.0000E+00  0.0000E+00
    -34.531  0.0000E+00  0.0000E+00  0.0000E+00  0.0000E+00  0.0000E+00  0.0000E+00  0.0000E+00  0.0000E+00  0.0000E+00  0.0000E+00  0.0000E+00  0.0000E+00  0.0000E+00  0.0000E+00  0.0000E+00  0.0000E+00  0.0000E+00  0.0000E+00
    -34.368  0.0000E+00  0.0000E+00  0.0000E+00  0.0000E+00  0.0000E+00  0.0000E+00  0.0000E+00  0.0000E+00  0.0000E+00  0.0000E+00  0.0000E+00  0.0000E+00  0.0000E+00  0.0000E+00  0.0000E+00  0.0000E+00  0.0000E+00  0.0000E+00
    -34.204  0.0000E+00  0.0000E+00  0.0000E+00  0.0000E+00  0.0000E+00  0.0000E+00  0.0000E+00  0.0000E+00  0.0000E+00  0.0000E+00  0.0000E+00  0.0000E+00  0.0000E+00  0.0000E+00  0.0000E+00  0.0000E+00  0.0000E+00  0.0000E+00
    -34.041  0.0000E+00  0.0000E+00  0.0000E+00  0.0000E+00  0.0000E+00  0.0000E+00  0.0000E+00  0.0000E+00  0.0000E+00  0.0000E+00  0.0000E+00  0.0000E+00  0.0000E+00  0.0000E+00  0.0000E+00  0.0000E+00  0.0000E+00  0.0000E+00
    -33.877  0.0000E+00  0.0000E+00  0.0000E+00  0.0000E+00  0.0000E+00  0.0000E+00  0.0000E+00  0.0000E+00  0.0000E+00  0.0000E+00  0.0000E+00  0.0000E+00  0.0000E+00  0.0000E+00  0.0000E+00  0.0000E+00  0.0000E+00  0.0000E+00
    -33.714  0.0000E+00  0.0000E+00  0.0000E+00  0.0000E+00  0.0000E+00  0.0000E+00  0.0000E+00  0.0000E+00  0.0000E+00  0.0000E+00  0.0000E+00  0.0000E+00  0.0000E+00  0.0000E+00  0.0000E+00  0.0000E+00  0.0000E+00  0.0000E+00
    -33.550  0.0000E+00  0.0000E+00  0.0000E+00  0.0000E+00  0.0000E+00  0.0000E+00  0.0000E+00  0.0000E+00  0.0000E+00  0.0000E+00  0.0000E+00  0.0000E+00  0.0000E+00  0.0000E+00  0.0000E+00  0.0000E+00  0.0000E+00  0.0000E+00
    -33.387  0.0000E+00  0.0000E+00  0.0000E+00  0.0000E+00  0.0000E+00  0.0000E+00  0.0000E+00  0.0000E+00  0.0000E+00  0.0000E+00  0.0000E+00  0.0000E+00  0.0000E+00  0.0000E+00  0.0000E+00  0.0000E+00  0.0000E+00  0.0000E+00
    -33.223  0.0000E+00  0.0000E+00  0.0000E+00  0.0000E+00  0.0000E+00  0.0000E+00  0.0000E+00  0.0000E+00  0.0000E+00  0.0000E+00  0.0000E+00  0.0000E+00  0.0000E+00  0.0000E+00  0.0000E+00  0.0000E+00  0.0000E+00  0.0000E+00
    -33.060  0.0000E+00  0.0000E+00  0.0000E+00  0.0000E+00  0.0000E+00  0.0000E+00  0.0000E+00  0.0000E+00  0.0000E+00  0.0000E+00  0.0000E+00  0.0000E+00  0.0000E+00  0.0000E+00  0.0000E+00  0.0000E+00  0.0000E+00  0.0000E+00
    -32.896  0.0000E+00  0.0000E+00  0.0000E+00  0.0000E+00  0.0000E+00  0.0000E+00  0.0000E+00  0.0000E+00  0.0000E+00  0.0000E+00  0.0000E+00  0.0000E+00  0.0000E+00  0.0000E+00  0.0000E+00  0.0000E+00  0.0000E+00  0.0000E+00
    -32.733  0.0000E+00  0.0000E+00  0.0000E+00  0.0000E+00  0.0000E+00  0.0000E+00  0.0000E+00  0.0000E+00  0.0000E+00  0.0000E+00  0.0000E+00  0.0000E+00  0.0000E+00  0.0000E+00  0.0000E+00  0.0000E+00  0.0000E+00  0.0000E+00
    -32.569  0.0000E+00  0.0000E+00  0.0000E+00  0.0000E+00  0.0000E+00  0.0000E+00  0.0000E+00  0.0000E+00  0.0000E+00  0.0000E+00  0.0000E+00  0.0000E+00  0.0000E+00  0.0000E+00  0.0000E+00  0.0000E+00  0.0000E+00  0.0000E+00
    -32.406  0.0000E+00  0.0000E+00  0.0000E+00  0.0000E+00  0.0000E+00  0.0000E+00  0.0000E+00  0.0000E+00  0.0000E+00  0.0000E+00  0.0000E+00  0.0000E+00  0.0000E+00  0.0000E+00  0.0000E+00  0.0000E+00  0.0000E+00  0.0000E+00
    -32.242  0.0000E+00  0.0000E+00  0.0000E+00  0.0000E+00  0.0000E+00  0.0000E+00  0.0000E+00  0.0000E+00  0.0000E+00  0.0000E+00  0.0000E+00  0.0000E+00  0.0000E+00  0.0000E+00  0.0000E+00  0.0000E+00  0.0000E+00  0.0000E+00
    -32.079  0.0000E+00  0.0000E+00  0.0000E+00  0.0000E+00  0.0000E+00  0.0000E+00  0.0000E+00  0.0000E+00  0.0000E+00  0.0000E+00  0.0000E+00  0.0000E+00  0.0000E+00  0.0000E+00  0.0000E+00  0.0000E+00  0.0000E+00  0.0000E+00
    -31.915  0.0000E+00  0.0000E+00  0.0000E+00  0.0000E+00  0.0000E+00  0.0000E+00  0.0000E+00  0.0000E+00  0.0000E+00  0.0000E+00  0.0000E+00  0.0000E+00  0.0000E+00  0.0000E+00  0.0000E+00  0.0000E+00  0.0000E+00  0.0000E+00
    -31.752  0.0000E+00  0.0000E+00  0.0000E+00  0.0000E+00  0.0000E+00  0.0000E+00  0.0000E+00  0.0000E+00  0.0000E+00  0.0000E+00  0.0000E+00  0.0000E+00  0.0000E+00  0.0000E+00  0.0000E+00  0.0000E+00  0.0000E+00  0.0000E+00
    -31.588  0.0000E+00  0.0000E+00  0.0000E+00  0.0000E+00  0.0000E+00  0.0000E+00  0.0000E+00  0.0000E+00  0.0000E+00  0.0000E+00  0.0000E+00  0.0000E+00  0.0000E+00  0.0000E+00  0.0000E+00  0.0000E+00  0.0000E+00  0.0000E+00
    -31.425  0.0000E+00  0.0000E+00  0.0000E+00  0.0000E+00  0.0000E+00  0.0000E+00  0.0000E+00  0.0000E+00  0.0000E+00  0.0000E+00  0.0000E+00  0.0000E+00  0.0000E+00  0.0000E+00  0.0000E+00  0.0000E+00  0.0000E+00  0.0000E+00
    -31.261  0.0000E+00  0.0000E+00  0.0000E+00  0.0000E+00  0.0000E+00  0.0000E+00  0.0000E+00  0.0000E+00  0.0000E+00  0.0000E+00  0.0000E+00  0.0000E+00  0.0000E+00  0.0000E+00  0.0000E+00  0.0000E+00  0.0000E+00  0.0000E+00
    -31.098  0.0000E+00  0.0000E+00  0.0000E+00  0.0000E+00  0.0000E+00  0.0000E+00  0.0000E+00  0.0000E+00  0.0000E+00  0.0000E+00  0.0000E+00  0.0000E+00  0.0000E+00  0.0000E+00  0.0000E+00  0.0000E+00  0.0000E+00  0.0000E+00
    -30.934  0.0000E+00  0.0000E+00  0.0000E+00  0.0000E+00  0.0000E+00  0.0000E+00  0.0000E+00  0.0000E+00  0.0000E+00  0.0000E+00  0.0000E+00  0.0000E+00  0.0000E+00  0.0000E+00  0.0000E+00  0.0000E+00  0.0000E+00  0.0000E+00
    -30.771  0.0000E+00  0.0000E+00  0.0000E+00  0.0000E+00  0.0000E+00  0.0000E+00  0.0000E+00  0.0000E+00  0.0000E+00  0.0000E+00  0.0000E+00  0.0000E+00  0.0000E+00  0.0000E+00  0.0000E+00  0.0000E+00  0.0000E+00  0.0000E+00
    -30.607  0.0000E+00  0.0000E+00  0.0000E+00  0.0000E+00  0.0000E+00  0.0000E+00  0.0000E+00  0.0000E+00  0.0000E+00  0.0000E+00  0.0000E+00  0.0000E+00  0.0000E+00  0.0000E+00  0.0000E+00  0.0000E+00  0.0000E+00  0.0000E+00
    -30.444  0.0000E+00  0.0000E+00  0.0000E+00  0.0000E+00  0.0000E+00  0.0000E+00  0.0000E+00  0.0000E+00  0.0000E+00  0.0000E+00  0.0000E+00  0.0000E+00  0.0000E+00  0.0000E+00  0.0000E+00  0.0000E+00  0.0000E+00  0.0000E+00
    -30.280  0.0000E+00  0.0000E+00  0.0000E+00  0.0000E+00  0.0000E+00  0.0000E+00  0.0000E+00  0.0000E+00  0.0000E+00  0.0000E+00  0.0000E+00  0.0000E+00  0.0000E+00  0.0000E+00  0.0000E+00  0.0000E+00  0.0000E+00  0.0000E+00
    -30.117  0.0000E+00  0.0000E+00  0.0000E+00  0.0000E+00  0.0000E+00  0.0000E+00  0.0000E+00  0.0000E+00  0.0000E+00  0.0000E+00  0.0000E+00  0.0000E+00  0.0000E+00  0.0000E+00  0.0000E+00  0.0000E+00  0.0000E+00  0.0000E+00
    -29.953  0.0000E+00  0.0000E+00  0.0000E+00  0.0000E+00  0.0000E+00  0.0000E+00  0.0000E+00  0.0000E+00  0.0000E+00  0.0000E+00  0.0000E+00  0.0000E+00  0.0000E+00  0.0000E+00  0.0000E+00  0.0000E+00  0.0000E+00  0.0000E+00
    -29.790  0.0000E+00  0.0000E+00  0.0000E+00  0.0000E+00  0.0000E+00  0.0000E+00  0.0000E+00  0.0000E+00  0.0000E+00  0.0000E+00  0.0000E+00  0.0000E+00  0.0000E+00  0.0000E+00  0.0000E+00  0.0000E+00  0.0000E+00  0.0000E+00