  16  16   1   0
  0.2161669E+02  0.4438241E-09  0.4438241E-09  0.1755850E-08  0.5000000E-15
  1.000000000000000E-004
  CAR 
 unknown system                          
     11.66112082    -37.33037002  301      5.24643201      1.00000000
    -37.330  0.0000E+00  0.0000E+00  0.0000E+00  0.0000E+00
    -37.167  0.0000E+00  0.0000E+00  0.0000E+00  0.0000E+00
    -37.004  0.0000E+00  0.0000E+00  0.0000E+00  0.0000E+00
    -36.840  0.0000E+00  0.0000E+00  0.0000E+00  0.0000E+00
    -36.677  0.0000E+00  0.0000E+00  0.0000E+00  0.0000E+00
    -36.514  0.0000E+00  0.0000E+00  0.0000E+00  0.0000E+00
    -36.351  0.0000E+00  0.0000E+00  0.0000E+00  0.0000E+00
    -36.187  0.0000E+00  0.0000E+00  0.0000E+00  0.0000E+00
    -36.024  0.0000E+00  0.0000E+00  0.0000E+00  0.0000E+00
    -35.861  0.0000E+00  0.0000E+00  0.0000E+00  0.0000E+00
    -35.697  0.0000E+00  0.0000E+00  0.0000E+00  0.0000E+00
    -35.534  0.4295E-02  0.4324E-02  0.7014E-03  0.7062E-03
    -35.371  0.1078E+00  0.1085E+00  0.1830E-01  0.1843E-01
    -35.207  0.2522E+01  0.2537E+01  0.4301E+00  0.4327E+00
    -35.044  0.1597E+02  0.1598E+02  0.3038E+01  0.3043E+01
    -34.881  0.5600E+01  0.5571E+01  0.3952E+01  0.3953E+01
    -34.717  0.2812E+00  0.2793E+00  0.3998E+01  0.3998E+01
    -34.554  0.0000E+00  0.0000E+00  0.4000E+01  0.4000E+01
    -34.391  0.0000E+00  0.0000E+00  0.4000E+01  0.4000E+01
    -34.228  0.0000E+00  0.0000E+00  0.4000E+01  0.4000E+01
    -34.064  0.0000E+00  0.0000E+00  0.4000E+01  0.4000E+01
    -33.901  0.0000E+00  0.0000E+00  0.4000E+01  0.4000E+01
    -33.738  0.0000E+00  0.0000E+00  0.4000E+01  0.4000E+01
    -33.574  0.0000E+00  0.0000E+00  0.4000E+01  0.4000E+01
    -33.411  0.0000E+00  0.0000E+00  0.4000E+01  0.4000E+01
    -33.248  0.0000E+00  0.0000E+00  0.4000E+01  0.4000E+01
    -33.084  0.0000E+00  0.0000E+00  0.4000E+01  0.4000E+01
    -32.921  0.0000E+00  0.0000E+00  0.4000E+01  0.4000E+01
    -32.758  0.0000E+00  0.0000E+00  0.4000E+01  0.4000E+01
    -32.595  0.0000E+00  0.0000E+00  0.4000E+01  0.4000E+01
    -32.431  0.0000E+00  0.0000E+00  0.4000E+01  0.4000E+01
    -32.268  0.0000E+00  0.0000E+00  0.4000E+01  0.4000E+01
    -32.105  0.0000E+00  0.0000E+00  0.4000E+01  0.4000E+01
    -31.941  0.0000E+00  0.0000E+00  0.4000E+01  0.4000E+01
    -31.778  0.0000E+00  0.0000E+00  0.4000E+01  0.4000E+01
    -31.615  0.0000E+00  0.0000E+00  0.4000E+01  0.4000E+01
    -31.451  0.0000E+00  0.0000E+00  0.4000E+01  0.4000E+01
    -31.288  0.0000E+00  0.0000E+00  0.4000E+01  0.4000E+01
    -31.125  0.0000E+00  0.0000E+00  0.4000E+01  0.4000E+01
    -30.961  0.0000E+00  0.0000E+00  0.4000E+01  0.4000E+01
    -30.798  0.0000E+00  0.0000E+00  0.4000E+01  0.4000E+01
    -30.635  0.0000E+00  0.0000E+00  0.4000E+01  0.4000E+01
    -30.472  0.0000E+00  0.0000E+00  0.4000E+01  0.4000E+01
    -30.308  0.0000E+00  0.0000E+00  0.4000E+01  0.4000E+01
    -30.145  0.0000E+00  0.0000E+00  0.4000E+01  0.4000E+01
    -29.982  0.0000E+00  0.0000E+00  0.4000E+01  0.4000E+01
    -29.818  0.0000E+00  0.0000E+00  0.4000E+01  0.4000E+01
    -29.655  0.0000E+00  0.0000E+00  0.4000E+01  0.4000E+01
    -29.492  0.0000E+00  0.0000E+00  0.4000E+01  0.4000E+01
    -29.328  0.0000E+00  0.0000E+00  0.4000E+01  0.4000E+01
    -29.165  0.0000E+00  0.0000E+00  0.4000E+01  0.4000E+01
    -29.002  0.0000E+00  0.0000E+00  0.4000E+01  0.4000E+01
    -28.839  0.0000E+00  0.0000E+00  0.4000E+01  0.4000E+01
    -28.675  0.0000E+00  0.0000E+00  0.4000E+01  0.4000E+01
    -28.512  0.0000E+00  0.0000E+00  0.4000E+01  0.4000E+01
    -28.349  0.0000E+00  0.0000E+00  0.4000E+01  0.4000E+01
    -28.185  0.0000E+00  0.0000E+00  0.4000E+01  0.4000E+01
    -28.022  0.0000E+00  0.0000E+00  0.4000E+01  0.4000E+01
    -27.859  0.0000E+00  0.0000E+00  0.4000E+01  0.4000E+01
    -27.695  0.0000E+00  0.0000E+00  0.4000E+01  0.4000E+01
    -27.532  0.0000E+00  0.0000E+00  0.4000E+01  0.4000E+01
    -27.369  0.0000E+00  0.0000E+00  0.4000E+01  0.4000E+01
    -27.205  0.0000E+00  0.0000E+00  0.4000E+01  0.4000E+01
    -27.042  0.0000E+00  0.0000E+00  0.4000E+01  0.4000E+01
    -26.879  0.0000E+00  0.0000E+00  0.4000E+01  0.4000E+01
    -26.716  0.0000E+00  0.0000E+00  0.4000E+01  0.4000E+01
    -26.552  0.0000E+00  0.0000E+00  0.4000E+01  0.4000E+01
    -26.389  0.0000E+00  0.0000E+00  0.4000E+01  0.4000E+01
    -26.226  0.0000E+00  0.0000E+00  0.4000E+01  0.4000E+01
    -26.062  0.0000E+00  0.0000E+00  0.4000E+01  0.4000E+01
    -25.899  0.0000E+00  0.0000E+00  0.4000E+01  0.4000E+01
    -25.736  0.0000E+00  0.0000E+00  0.4000E+01  0.4000E+01
    -25.572  0.0000E+00  0.0000E+00  0.4000E+01  0.4000E+01
    -25.409  0.0000E+00  0.0000E+00  0.4000E+01  0.4000E+01
    -25.246  0.0000E+00  0.0000E+00  0.4000E+01  0.4000E+01
    -25.082  0.0000E+00  0.0000E+00  0.4000E+01  0.4000E+01
    -24.919  0.0000E+00  0.0000E+00  0.4000E+01  0.4000E+01
    -24.756  0.0000E+00  0.0000E+00  0.4000E+01  0.4000E+01
    -24.593  0.0000E+00  0.0000E+00  0.4000E+01  0.4000E+01
    -24.429  0.0000E+00  0.0000E+00  0.4000E+01  0.4000E+01
    -24.266  0.0000E+00  0.0000E+00  0.4000E+01  0.4000E+01
    -24.103  0.0000E+00  0.0000E+00  0.4000E+01  0.4000E+01
    -23.939  0.0000E+00  0.0000E+00  0.4000E+01  0.4000E+01
    -23.776  0.0000E+00  0.0000E+00  0.4000E+01  0.4000E+01
    -23.613  0.0000E+00  0.0000E+00  0.4000E+01  0.4000E+01
    -23.449  0.0000E+00  0.0000E+00  0.4000E+01  0.4000E+01
    -23.286  0.0000E+00  0.0000E+00  0.4000E+01  0.4000E+01
    -23.123  0.0000E+00  0.0000E+00  0.4000E+01  0.4000E+01
    -22.960  0.0000E+00  0.0000E+00  0.4000E+01  0.4000E+01
    -22.796  0.0000E+00  0.0000E+00  0.4000E+01  0.4000E+01
    -22.633  0.0000E+00  0.0000E+00  0.4000E+01  0.4000E+01
    -22.470  0.0000E+00  0.0000E+00  0.4000E+01  0.4000E+01
    -22.306  0.0000E+00  0.0000E+00  0.4000E+01  0.4000E+01
    -22.143  0.0000E+00  0.0000E+00  0.4000E+01  0.4000E+01
    -21.980  0.0000E+00  0.0000E+00  0.4000E+01  0.4000E+01
    -21.816  0.0000E+00  0.0000E+00  0.4000E+01  0.4000E+01
    -21.653  0.0000E+00  0.0000E+00  0.4000E+01  0.4000E+01
    -21.490  0.0000E+00  0.0000E+00  0.4000E+01  0.4000E+01
    -21.326  0.0000E+00  0.0000E+00  0.4000E+01  0.4000E+01
    -21.163  0.0000E+00  0.0000E+00  0.4000E+01  0.4000E+01
    -21.000  0.0000E+00  0.0000E+00  0.4000E+01  0.4000E+01
    -20.837  0.0000E+00  0.0000E+00  0.4000E+01  0.4000E+01
    -20.673  0.0000E+00  0.0000E+00  0.4000E+01  0.4000E+01
    -20.510  0.0000E+00  0.0000E+00  0.4000E+01  0.4000E+01
    -20.347  0.0000E+00  0.0000E+00  0.4000E+01  0.4000E+01
    -20.183  0.0000E+00  0.0000E+00  0.4000E+01  0.4000E+01
    -20.020  0.0000E+00  0.0000E+00  0.4000E+01  0.4000E+01
    -19.857  0.0000E+00  0.0000E+00  0.4000E+01  0.4000E+01
    -19.693  0.0000E+00  0.0000E+00  0.4000E+01  0.4000E+01
    -19.530  0.0000E+00  0.0000E+00  0.4000E+01  0.4000E+01
    -19.367  0.0000E+00  0.0000E+00  0.4000E+01  0.4000E+01
    -19.204  0.0000E+00  0.0000E+00  0.4000E+01  0.4000E+01
    -19.040  0.0000E+00  0.0000E+00  0.4000E+01  0.4000E+01
    -18.877  0.0000E+00  0.0000E+00  0.4000E+01  0.4000E+01
    -18.714  0.0000E+00  0.0000E+00  0.4000E+01  0.4000E+01
    -18.550  0.0000E+00  0.0000E+00  0.4000E+01  0.4000E+01
    -18.387  0.0000E+00  0.0000E+00  0.4000E+01  0.4000E+01
    -18.224  0.0000E+00  0.0000E+00  0.4000E+01  0.4000E+01
    -18.060  0.0000E+00  0.0000E+00  0.4000E+01  0.4000E+01
    -17.897  0.0000E+00  0.0000E+00  0.4000E+01  0.4000E+01
    -17.734  0.0000E+00  0.0000E+00  0.4000E+01  0.4000E+01
    -17.570  0.0000E+00  0.0000E+00  0.4000E+01  0.4000E+01
    -17.407  0.0000E+00  0.0000E+00  0.4000E+01  0.4000E+01
    -17.244  0.0000E+00  0.0000E+00  0.4000E+01  0.4000E+01
    -17.081  0.0000E+00  0.0000E+00  0.4000E+01  0.4000E+01
    -16.917  0.0000E+00  0.0000E+00  0.4000E+01  0.4000E+01
    -16.754  0.1200E-02  0.1209E-02  0.4000E+01  0.4000E+01
    -16.591  0.3548E-01  0.3567E-01  0.4006E+01  0.4006E+01
    -16.427  0.9111E+00  0.9159E+00  0.4155E+01  0.4156E+01
    -16.264  0.1735E+02  0.1742E+02  0.6989E+01  0.7000E+01
    -16.101  0.4704E+02  0.4701E+02  0.1467E+02  0.1468E+02
    -15.937  0.7791E+01  0.7754E+01  0.1594E+02  0.1594E+02
    -15.774  0.0000E+00  0.0000E+00  0.1600E+02  0.1600E+02
    -15.611  0.0000E+00  0.0000E+00  0.1600E+02  0.1600E+02
    -15.448  0.0000E+00  0.0000E+00  0.1600E+02  0.1600E+02
    -15.284  0.0000E+00  0.0000E+00  0.1600E+02  0.1600E+02
    -15.121  0.0000E+00  0.0000E+00  0.1600E+02  0.1600E+02
    -14.958  0.0000E+00  0.0000E+00  0.1600E+02  0.1600E+02
    -14.794  0.0000E+00  0.0000E+00  0.1600E+02  0.1600E+02
    -14.631  0.0000E+00  0.0000E+00  0.1600E+02  0.1600E+02
    -14.468  0.0000E+00  0.0000E+00  0.1600E+02  0.1600E+02
    -14.304  0.0000E+00  0.0000E+00  0.1600E+02  0.1600E+02
    -14.141  0.0000E+00  0.0000E+00  0.1600E+02  0.1600E+02
    -13.978  0.0000E+00  0.0000E+00  0.1600E+02  0.1600E+02
    -13.814  0.0000E+00  0.0000E+00  0.1600E+02  0.1600E+02
    -13.651  0.0000E+00  0.0000E+00  0.1600E+02  0.1600E+02
    -13.488  0.0000E+00  0.0000E+00  0.1600E+02  0.1600E+02
    -13.325  0.0000E+00  0.0000E+00  0.1600E+02  0.1600E+02
    -13.161  0.0000E+00  0.0000E+00  0.1600E+02  0.1600E+02
    -12.998  0.0000E+00  0.0000E+00  0.1600E+02  0.1600E+02
    -12.835  0.0000E+00  0.0000E+00  0.1600E+02  0.1600E+02
    -12.671  0.0000E+00  0.0000E+00  0.1600E+02  0.1600E+02
    -12.508  0.0000E+00  0.0000E+00  0.1600E+02  0.1600E+02
    -12.345  0.0000E+00  0.0000E+00  0.1600E+02  0.1600E+02
    -12.181  0.0000E+00  0.0000E+00  0.1600E+02  0.1600E+02
    -12.018  0.0000E+00  0.0000E+00  0.1600E+02  0.1600E+02
    -11.855  0.0000E+00  0.0000E+00  0.1600E+02  0.1600E+02
    -11.691  0.0000E+00  0.0000E+00  0.1600E+02  0.1600E+02
    -11.528  0.0000E+00  0.0000E+00  0.1600E+02  0.1600E+02
    -11.365  0.0000E+00  0.0000E+00  0.1600E+02  0.1600E+02
    -11.202  0.0000E+00  0.0000E+00  0.1600E+02  0.1600E+02
    -11.038  0.0000E+00  0.0000E+00  0.1600E+02  0.1600E+02
    -10.875  0.0000E+00  0.0000E+00  0.1600E+02  0.1600E+02
    -10.712  0.0000E+00  0.0000E+00  0.1600E+02  0.1600E+02
    -10.548  0.0000E+00  0.0000E+00  0.1600E+02  0.1600E+02
    -10.385  0.0000E+00  0.0000E+00  0.1600E+02  0.1600E+02
    -10.222  0.0000E+00  0.0000E+00  0.1600E+02  0.1600E+02
    -10.058  0.0000E+00  0.0000E+00  0.1600E+02  0.1600E+02
     -9.895  0.0000E+00  0.0000E+00  0.1600E+02  0.1600E+02
     -9.732  0.0000E+00  0.0000E+00  0.1600E+02  0.1600E+02
     -9.569  0.0000E+00  0.0000E+00  0.1600E+02  0.1600E+02
     -9.405  0.0000E+00  0.0000E+00  0.1600E+02  0.1600E+02
     -9.242  0.0000E+00  0.0000E+00  0.1600E+02  0.1600E+02
     -9.079  0.0000E+00  0.0000E+00  0.1600E+02  0.1600E+02
     -8.915  0.0000E+00  0.0000E+00  0.1600E+02  0.1600E+02
     -8.752  0.0000E+00  0.0000E+00  0.1600E+02  0.1600E+02
     -8.589  0.0000E+00  0.0000E+00  0.1600E+02  0.1600E+02
     -8.425  0.0000E+00  0.0000E+00  0.1600E+02  0.1600E+02
     -8.262  0.0000E+00  0.0000E+00  0.1600E+02  0.1600E+02
     -8.099  0.0000E+00  0.0000E+00  0.1600E+02  0.1600E+02
     -7.935  0.0000E+00  0.0000E+00  0.1600E+02  0.1600E+02
     -7.772  0.0000E+00  0.0000E+00  0.1600E+02  0.1600E+02
     -7.609  0.0000E+00  0.0000E+00  0.1600E+02  0.1600E+02
     -7.446  0.0000E+00  0.0000E+00  0.1600E+02  0.1600E+02
     -7.282  0.0000E+00  0.0000E+00  0.1600E+02  0.1600E+02
     -7.119  0.0000E+00  0.0000E+00  0.1600E+02  0.1600E+02
     -6.956  0.0000E+00  0.0000E+00  0.1600E+02  0.1600E+02
     -6.792  0.0000E+00  0.0000E+00  0.1600E+02  0.1600E+02
     -6.629  0.0000E+00  0.0000E+00  0.1600E+02  0.1600E+02
     -6.466  0.0000E+00  0.0000E+00  0.1600E+02  0.1600E+02
     -6.302  0.0000E+00  0.0000E+00  0.1600E+02  0.1600E+02
     -6.139  0.0000E+00  0.0000E+00  0.1600E+02  0.1600E+02
     -5.976  0.0000E+00  0.0000E+00  0.1600E+02  0.1600E+02
     -5.813  0.0000E+00  0.0000E+00  0.1600E+02  0.1600E+02
     -5.649  0.0000E+00  0.0000E+00  0.1600E+02  0.1600E+02
     -5.486  0.0000E+00  0.0000E+00  0.1600E+02  0.1600E+02
     -5.323  0.0000E+00  0.0000E+00  0.1600E+02  0.1600E+02
     -5.159  0.0000E+00  0.0000E+00  0.1600E+02  0.1600E+02
     -4.996  0.0000E+00  0.0000E+00  0.1600E+02  0.1600E+02
     -4.833  0.0000E+00  0.0000E+00  0.1600E+02  0.1600E+02
     -4.669  0.0000E+00  0.0000E+00  0.1600E+02  0.1600E+02
     -4.506  0.0000E+00  0.0000E+00  0.1600E+02  0.1600E+02
     -4.343  0.0000E+00  0.0000E+00  0.1600E+02  0.1600E+02
     -4.179  0.0000E+00  0.0000E+00  0.1600E+02  0.1600E+02
     -4.016  0.0000E+00  0.0000E+00  0.1600E+02  0.1600E+02
     -3.853  0.5427E-05  0.5423E-05  0.1600E+02  0.1600E+02
     -3.690  0.1604E-03  0.1602E-03  0.1600E+02  0.1600E+02
     -3.526  0.4174E-02  0.4171E-02  0.1600E+02  0.1600E+02
     -3.363  0.7593E-01  0.7589E-01  0.1601E+02  0.1601E+02
     -3.200  0.3656E+00  0.3656E+00  0.1607E+02  0.1607E+02
     -3.036  0.6678E+00  0.6678E+00  0.1618E+02  0.1618E+02
     -2.873  0.8293E+00  0.8292E+00  0.1632E+02  0.1632E+02
     -2.710  0.8298E+00  0.8297E+00  0.1645E+02  0.1645E+02
     -2.546  0.9430E+00  0.9427E+00  0.1661E+02  0.1661E+02
     -2.383  0.1088E+01  0.1088E+01  0.1679E+02  0.1679E+02
     -2.220  0.1241E+01  0.1241E+01  0.1699E+02  0.1699E+02
     -2.056  0.1396E+01  0.1396E+01  0.1722E+02  0.1722E+02
     -1.893  0.1523E+01  0.1523E+01  0.1747E+02  0.1747E+02
     -1.730  0.1685E+01  0.1685E+01  0.1774E+02  0.1774E+02
     -1.567  0.1975E+01  0.1975E+01  0.1806E+02  0.1806E+02
     -1.403  0.1904E+01  0.1904E+01  0.1838E+02  0.1838E+02
     -1.240  0.1971E+01  0.1971E+01  0.1870E+02  0.1870E+02
     -1.077  0.1898E+01  0.1898E+01  0.1901E+02  0.1901E+02
     -0.913  0.1764E+01  0.1765E+01  0.1930E+02  0.1930E+02
     -0.750  0.1648E+01  0.1648E+01  0.1957E+02  0.1957E+02
     -0.587  0.1790E+01  0.1790E+01  0.1986E+02  0.1986E+02
     -0.423  0.2580E+01  0.2580E+01  0.2028E+02  0.2028E+02
     -0.260  0.2391E+01  0.2392E+01  0.2067E+02  0.2067E+02
     -0.097  0.2369E+01  0.2370E+01  0.2106E+02  0.2106E+02
      0.066  0.2005E+01  0.2005E+01  0.2139E+02  0.2139E+02
      0.230  0.2510E+01  0.2510E+01  0.2180E+02  0.2180E+02
      0.393  0.2437E+01  0.2437E+01  0.2220E+02  0.2220E+02
      0.556  0.2007E+01  0.2008E+01  0.2253E+02  0.2253E+02
      0.720  0.2337E+01  0.2337E+01  0.2291E+02  0.2291E+02
      0.883  0.3043E+01  0.3043E+01  0.2341E+02  0.2341E+02
      1.046  0.2869E+01  0.2869E+01  0.2388E+02  0.2388E+02
      1.210  0.2717E+01  0.2718E+01  0.2432E+02  0.2432E+02
      1.373  0.2968E+01  0.2968E+01  0.2481E+02  0.2481E+02
      1.536  0.2659E+01  0.2658E+01  0.2525E+02  0.2525E+02
      1.700  0.2355E+01  0.2355E+01  0.2563E+02  0.2563E+02
      1.863  0.2360E+01  0.2360E+01  0.2602E+02  0.2602E+02
      2.026  0.2472E+01  0.2472E+01  0.2642E+02  0.2642E+02
      2.189  0.2354E+01  0.2354E+01  0.2681E+02  0.2681E+02
      2.353  0.2383E+01  0.2383E+01  0.2720E+02  0.2720E+02
      2.516  0.1969E+01  0.1970E+01  0.2752E+02  0.2752E+02
      2.679  0.2632E+01  0.2633E+01  0.2795E+02  0.2795E+02
      2.843  0.3302E+01  0.3301E+01  0.2849E+02  0.2849E+02
      3.006  0.3676E+01  0.3676E+01  0.2909E+02  0.2909E+02
      3.169  0.3529E+01  0.3530E+01  0.2967E+02  0.2967E+02
      3.333  0.3817E+01  0.3816E+01  0.3030E+02  0.3030E+02
      3.496  0.3767E+01  0.3766E+01  0.3091E+02  0.3091E+02
      3.659  0.4872E+01  0.4872E+01  0.3171E+02  0.3171E+02
      3.822  0.4530E+01  0.4530E+01  0.3245E+02  0.3245E+02
      3.986  0.4862E+01  0.4861E+01  0.3325E+02  0.3325E+02
      4.149  0.3995E+01  0.3995E+01  0.3390E+02  0.3390E+02
      4.312  0.3552E+01  0.3553E+01  0.3448E+02  0.3448E+02
      4.476  0.3622E+01  0.3623E+01  0.3508E+02  0.3508E+02
      4.639  0.3610E+01  0.3611E+01  0.3567E+02  0.3567E+02
      4.802  0.3745E+01  0.3746E+01  0.3628E+02  0.3628E+02
      4.966  0.3937E+01  0.3937E+01  0.3693E+02  0.3693E+02
      5.129  0.3807E+01  0.3808E+01  0.3755E+02  0.3755E+02
      5.292  0.3878E+01  0.3878E+01  0.3818E+02  0.3818E+02
      5.456  0.4007E+01  0.4007E+01  0.3884E+02  0.3884E+02
      5.619  0.4268E+01  0.4269E+01  0.3954E+02  0.3954E+02
      5.782  0.4297E+01  0.4295E+01  0.4024E+02  0.4024E+02
      5.945  0.4399E+01  0.4400E+01  0.4096E+02  0.4096E+02
      6.109  0.3665E+01  0.3664E+01  0.4156E+02  0.4156E+02
      6.272  0.3713E+01  0.3713E+01  0.4217E+02  0.4217E+02
      6.435  0.3710E+01  0.3710E+01  0.4278E+02  0.4278E+02
      6.599  0.3833E+01  0.3834E+01  0.4341E+02  0.4341E+02
      6.762  0.3662E+01  0.3662E+01  0.4400E+02  0.4400E+02
      6.925  0.3785E+01  0.3786E+01  0.4462E+02  0.4463E+02
      7.089  0.3468E+01  0.3467E+01  0.4519E+02  0.4519E+02
      7.252  0.4364E+01  0.4365E+01  0.4591E+02  0.4591E+02
      7.415  0.4678E+01  0.4670E+01  0.4667E+02  0.4667E+02
      7.578  0.4597E+01  0.4609E+01  0.4742E+02  0.4743E+02
      7.742  0.5232E+01  0.5265E+01  0.4828E+02  0.4829E+02
      7.905  0.5138E+01  0.5161E+01  0.4912E+02  0.4913E+02
      8.068  0.4206E+01  0.4147E+01  0.4981E+02  0.4981E+02
      8.232  0.3800E+01  0.3655E+01  0.5043E+02  0.5041E+02
      8.395  0.2791E+01  0.2675E+01  0.5089E+02  0.5085E+02
      8.558  0.1879E+01  0.1968E+01  0.5120E+02  0.5117E+02
      8.722  0.1395E+01  0.1568E+01  0.5143E+02  0.5143E+02
      8.885  0.1286E+01  0.1473E+01  0.5164E+02  0.5167E+02
      9.048  0.9453E+00  0.8587E+00  0.5179E+02  0.5181E+02
      9.212  0.5887E+00  0.5838E+00  0.5189E+02  0.5191E+02
      9.375  0.4444E+00  0.4530E+00  0.5196E+02  0.5198E+02
      9.538  0.1996E+00  0.1025E+00  0.5200E+02  0.5200E+02
      9.701  0.1811E-01  0.4613E-02  0.5200E+02  0.5200E+02
      9.865  0.0000E+00  0.0000E+00  0.5200E+02  0.5200E+02
     10.028  0.0000E+00  0.0000E+00  0.5200E+02  0.5200E+02
     10.191  0.0000E+00  0.0000E+00  0.5200E+02  0.5200E+02
     10.355  0.0000E+00  0.0000E+00  0.5200E+02  0.5200E+02
     10.518  0.0000E+00  0.0000E+00  0.5200E+02  0.5200E+02
     10.681  0.0000E+00  0.0000E+00  0.5200E+02  0.5200E+02
     10.845  0.0000E+00  0.0000E+00  0.5200E+02  0.5200E+02
     11.008  0.0000E+00  0.0000E+00  0.5200E+02  0.5200E+02
     11.171  0.0000E+00  0.0000E+00  0.5200E+02  0.5200E+02
     11.335  0.0000E+00  0.0000E+00  0.5200E+02  0.5200E+02
     11.498  0.0000E+00  0.0000E+00  0.5200E+02  0.5200E+02
     11.661  0.0000E+00  0.0000E+00  0.5200E+02  0.5200E+02
     11.66112082    -37.33037002  301      5.24643201      1.00000000
    -37.330  0.0000E+00  0.0000E+00  0.0000E+00  0.0000E+00  0.0000E+00  0.0000E+00  0.0000E+00  0.0000E+00  0.0000E+00  0.0000E+00  0.0000E+00  0.0000E+00  0.0000E+00  0.0000E+00  0.0000E+00  0.0000E+00  0.0000E+00  0.0000E+00
    -37.167  0.0000E+00  0.0000E+00  0.0000E+00  0.0000E+00  0.0000E+00  0.0000E+00  0.0000E+00  0.0000E+00  0.0000E+00  0.0000E+00  0.0000E+00  0.0000E+00  0.0000E+00  0.0000E+00  0.0000E+00  0.0000E+00  0.0000E+00  0.0000E+00
    -37.004  0.0000E+00  0.0000E+00  0.0000E+00  0.0000E+00  0.0000E+00  0.0000E+00  0.0000E+00  0.0000E+00  0.0000E+00  0.0000E+00  0.0000E+00  0.0000E+00  0.0000E+00  0.0000E+00  0.0000E+00  0.0000E+00  0.0000E+00  0.0000E+00
    -36.840  0.0000E+00  0.0000E+00  0.0000E+00  0.0000E+00  0.0000E+00  0.0000E+00  0.0000E+00  0.0000E+00  0.0000E+00  0.0000E+00  0.0000E+00  0.0000E+00  0.0000E+00  0.0000E+00  0.0000E+00  0.0000E+00  0.0000E+00  0.0000E+00
    -36.677  0.0000E+00  0.0000E+00  0.0000E+00  0.0000E+00  0.0000E+00  0.0000E+00  0.0000E+00  0.0000E+00  0.0000E+00  0.0000E+00  0.0000E+00  0.0000E+00  0.0000E+00  0.0000E+00  0.0000E+00  0.0000E+00  0.0000E+00  0.0000E+00
    -36.514  0.0000E+00  0.0000E+00  0.0000E+00  0.0000E+00  0.0000E+00  0.0000E+00  0.0000E+00  0.0000E+00  0.0000E+00  0.0000E+00  0.0000E+00  0.0000E+00  0.0000E+00  0.0000E+00  0.0000E+00  0.0000E+00  0.0000E+00  0.0000E+00
    -36.351  0.0000E+00  0.0000E+00  0.0000E+00  0.0000E+00  0.0000E+00  0.0000E+00  0.0000E+00  0.0000E+00  0.0000E+00  0.0000E+00  0.0000E+00  0.0000E+00  0.0000E+00  0.0000E+00  0.0000E+00  0.0000E+00  0.0000E+00  0.0000E+00
    -36.187  0.0000E+00  0.0000E+00  0.0000E+00  0.0000E+00  0.0000E+00  0.0000E+00  0.0000E+00  0.0000E+00  0.0000E+00  0.0000E+00  0.0000E+00  0.0000E+00  0.0000E+00  0.0000E+00  0.0000E+00  0.0000E+00  0.0000E+00  0.0000E+00
    -36.024  0.0000E+00  0.0000E+00  0.0000E+00  0.0000E+00  0.0000E+00  0.0000E+00  0.0000E+00  0.0000E+00  0.0000E+00  0.0000E+00  0.0000E+00  0.0000E+00  0.0000E+00  0.0000E+00  0.0000E+00  0.0000E+00  0.0000E+00  0.0000E+00
    -35.861  0.0000E+00  0.0000E+00  0.0000E+00  0.0000E+00  0.0000E+00  0.0000E+00  0.0000E+00  0.0000E+00  0.0000E+00  0.0000E+00  0.0000E+00  0.0000E+00  0.0000E+00  0.0000E+00  0.0000E+00  0.0000E+00  0.0000E+00  0.0000E+00
    -35.697  0.0000E+00  0.0000E+00  0.0000E+00  0.0000E+00  0.0000E+00  0.0000E+00  0.0000E+00  0.0000E+00  0.0000E+00  0.0000E+00  0.0000E+00  0.0000E+00  0.0000E+00  0.0000E+00  0.0000E+00  0.0000E+00  0.0000E+00  0.0000E+00
    -35.534  0.1058E-02  0.1065E-02  0.1766E-11  0.1761E-11  0.6630E-09  0.6720E-09  0.1766E-11  0.1761E-11  0.7672E-15  0.5862E-15  0.1538E-14  0.9586E-15  0.1871E-09  0.1863E-09  0.1538E-14  0.9586E-15  0.1145E-11  0.1144E-11
    -35.371  0.2655E-01  0.2673E-01  0.4432E-10  0.4419E-10  0.1664E-07  0.1686E-07  0.4432E-10  0.4419E-10  0.1925E-13  0.1471E-13  0.3860E-13  0.2405E-13  0.4695E-08  0.4674E-08  0.3860E-13  0.2405E-13  0.2872E-10  0.2871E-10
    -35.207  0.6211E+00  0.6248E+00  0.1037E-08  0.1033E-08  0.3892E-06  0.3942E-06  0.1037E-08  0.1033E-08  0.4506E-12  0.3440E-12  0.9032E-12  0.5625E-12  0.1098E-06  0.1093E-06  0.9032E-12  0.5625E-12  0.6720E-09  0.6712E-09
    -35.044  0.3933E+01  0.3936E+01  0.6564E-08  0.6507E-08  0.2467E-05  0.2485E-05  0.6564E-08  0.6507E-08  0.2863E-11  0.2170E-11  0.5733E-11  0.3549E-11  0.6955E-06  0.6884E-06  0.5733E-11  0.3549E-11  0.4255E-08  0.4229E-08
    -34.881  0.1379E+01  0.1372E+01  0.2301E-08  0.2267E-08  0.8656E-06  0.8670E-06  0.2301E-08  0.2267E-08  0.1008E-11  0.7575E-12  0.2016E-11  0.1239E-11  0.2439E-06  0.2400E-06  0.2016E-11  0.1239E-11  0.1492E-08  0.1474E-08
    -34.717  0.6926E-01  0.6880E-01  0.1156E-09  0.1137E-09  0.4348E-07  0.4348E-07  0.1156E-09  0.1137E-09  0.5067E-13  0.3799E-13  0.1013E-12  0.6217E-13  0.1225E-07  0.1203E-07  0.1013E-12  0.6217E-13  0.7493E-10  0.7389E-10
    -34.554  0.0000E+00  0.0000E+00  0.0000E+00  0.0000E+00  0.0000E+00  0.0000E+00  0.0000E+00  0.0000E+00  0.0000E+00  0.0000E+00  0.0000E+00  0.0000E+00  0.0000E+00  0.0000E+00  0.0000E+00  0.0000E+00  0.0000E+00  0.0000E+00
    -34.391  0.0000E+00  0.0000E+00  0.0000E+00  0.0000E+00  0.0000E+00  0.0000E+00  0.0000E+00  0.0000E+00  0.0000E+00  0.0000E+00  0.0000E+00  0.0000E+00  0.0000E+00  0.0000E+00  0.0000E+00  0.0000E+00  0.0000E+00  0.0000E+00
    -34.228  0.0000E+00  0.0000E+00  0.0000E+00  0.0000E+00  0.0000E+00  0.0000E+00  0.0000E+00  0.0000E+00  0.0000E+00  0.0000E+00  0.0000E+00  0.0000E+00  0.0000E+00  0.0000E+00  0.0000E+00  0.0000E+00  0.0000E+00  0.0000E+00
    -34.064  0.0000E+00  0.0000E+00  0.0000E+00  0.0000E+00  0.0000E+00  0.0000E+00  0.0000E+00  0.0000E+00  0.0000E+00  0.0000E+00  0.0000E+00  0.0000E+00  0.0000E+00  0.0000E+00  0.0000E+00  0.0000E+00  0.0000E+00  0.0000E+00
    -33.901  0.0000E+00  0.0000E+00  0.0000E+00  0.0000E+00  0.0000E+00  0.0000E+00  0.0000E+00  0.0000E+00  0.0000E+00  0.0000E+00  0.0000E+00  0.0000E+00  0.0000E+00  0.0000E+00  0.0000E+00  0.0000E+00  0.0000E+00  0.0000E+00
    -33.738  0.0000E+00  0.0000E+00  0.0000E+00  0.0000E+00  0.0000E+00  0.0000E+00  0.0000E+00  0.0000E+00  0.0000E+00  0.0000E+00  0.0000E+00  0.0000E+00  0.0000E+00  0.0000E+00  0.0000E+00  0.0000E+00  0.0000E+00  0.0000E+00
    -33.574  0.0000E+00  0.0000E+00  0.0000E+00  0.0000E+00  0.0000E+00  0.0000E+00  0.0000E+00  0.0000E+00  0.0000E+00  0.0000E+00  0.0000E+00  0.0000E+00  0.0000E+00  0.0000E+00  0.0000E+00  0.0000E+00  0.0000E+00  0.0000E+00
    -33.411  0.0000E+00  0.0000E+00  0.0000E+00  0.0000E+00  0.0000E+00  0.0000E+00  0.0000E+00  0.0000E+00  0.0000E+00  0.0000E+00  0.0000E+00  0.0000E+00  0.0000E+00  0.0000E+00  0.0000E+00  0.0000E+00  0.0000E+00  0.0000E+00
    -33.248  0.0000E+00  0.0000E+00  0.0000E+00  0.0000E+00  0.0000E+00  0.0000E+00  0.0000E+00  0.0000E+00  0.0000E+00  0.0000E+00  0.0000E+00  0.0000E+00  0.0000E+00  0.0000E+00  0.0000E+00  0.0000E+00  0.0000E+00  0.0000E+00
    -33.084  0.0000E+00  0.0000E+00  0.0000E+00  0.0000E+00  0.0000E+00  0.0000E+00  0.0000E+00  0.0000E+00  0.0000E+00  0.0000E+00  0.0000E+00  0.0000E+00  0.0000E+00  0.0000E+00  0.0000E+00  0.0000E+00  0.0000E+00  0.0000E+00
    -32.921  0.0000E+00  0.0000E+00  0.0000E+00  0.0000E+00  0.0000E+00  0.0000E+00  0.0000E+00  0.0000E+00  0.0000E+00  0.0000E+00  0.0000E+00  0.0000E+00  0.0000E+00  0.0000E+00  0.0000E+00  0.0000E+00  0.0000E+00  0.0000E+00
    -32.758  0.0000E+00  0.0000E+00  0.0000E+00  0.0000E+00  0.0000E+00  0.0000E+00  0.0000E+00  0.0000E+00  0.0000E+00  0.0000E+00  0.0000E+00  0.0000E+00  0.0000E+00  0.0000E+00  0.0000E+00  0.0000E+00  0.0000E+00  0.0000E+00
    -32.595  0.0000E+00  0.0000E+00  0.0000E+00  0.0000E+00  0.0000E+00  0.0000E+00  0.0000E+00  0.0000E+00  0.0000E+00  0.0000E+00  0.0000E+00  0.0000E+00  0.0000E+00  0.0000E+00  0.0000E+00  0.0000E+00  0.0000E+00  0.0000E+00
    -32.431  0.0000E+00  0.0000E+00  0.0000E+00  0.0000E+00  0.0000E+00  0.0000E+00  0.0000E+00  0.0000E+00  0.0000E+00  0.0000E+00  0.0000E+00  0.0000E+00  0.0000E+00  0.0000E+00  0.0000E+00  0.0000E+00  0.0000E+00  0.0000E+00
    -32.268  0.0000E+00  0.0000E+00  0.0000E+00  0.0000E+00  0.0000E+00  0.0000E+00  0.0000E+00  0.0000E+00  0.0000E+00  0.0000E+00  0.0000E+00  0.0000E+00  0.0000E+00  0.0000E+00  0.0000E+00  0.0000E+00  0.0000E+00  0.0000E+00
    -32.105  0.0000E+00  0.0000E+00  0.0000E+00  0.0000E+00  0.0000E+00  0.0000E+00  0.0000E+00  0.0000E+00  0.0000E+00  0.0000E+00  0.0000E+00  0.0000E+00  0.0000E+00  0.0000E+00  0.0000E+00  0.0000E+00  0.0000E+00  0.0000E+00
    -31.941  0.0000E+00  0.0000E+00  0.0000E+00  0.0000E+00  0.0000E+00  0.0000E+00  0.0000E+00  0.0000E+00  0.0000E+00  0.0000E+00  0.0000E+00  0.0000E+00  0.0000E+00  0.0000E+00  0.0000E+00  0.0000E+00  0.0000E+00  0.0000E+00
    -31.778  0.0000E+00  0.0000E+00  0.0000E+00  0.0000E+00  0.0000E+00  0.0000E+00  0.0000E+00  0.0000E+00  0.0000E+00  0.0000E+00  0.0000E+00  0.0000E+00  0.0000E+00  0.0000E+00  0.0000E+00  0.0000E+00  0.0000E+00  0.0000E+00
    -31.615  0.0000E+00  0.0000E+00  0.0000E+00  0.0000E+00  0.0000E+00  0.0000E+00  0.0000E+00  0.0000E+00  0.0000E+00  0.0000E+00  0.0000E+00  0.0000E+00  0.0000E+00  0.0000E+00  0.0000E+00  0.0000E+00  0.0000E+00  0.0000E+00
    -31.451  0.0000E+00  0.0000E+00  0.0000E+00  0.0000E+00  0.0000E+00  0.0000E+00  0.0000E+00  0.0000E+00  0.0000E+00  0.0000E+00  0.0000E+00  0.0000E+00  0.0000E+00  0.0000E+00  0.0000E+00  0.0000E+00  0.0000E+00  0.0000E+00
    -31.288  0.0000E+00  0.0000E+00  0.0000E+00  0.0000E+00  0.0000E+00  0.0000E+00  0.0000E+00  0.0000E+00  0.0000E+00  0.0000E+00  0.0000E+00  0.0000E+00  0.0000E+00  0.0000E+00  0.0000E+00  0.0000E+00  0.0000E+00  0.0000E+00
    -31.125  0.0000E+00  0.0000E+00  0.0000E+00  0.0000E+00  0.0000E+00  0.0000E+00  0.0000E+00  0.0000E+00  0.0000E+00  0.0000E+00  0.0000E+00  0.0000E+00  0.0000E+00  0.0000E+00  0.0000E+00  0.0000E+00  0.0000E+00  0.0000E+00
    -30.961  0.0000E+00  0.0000E+00  0.0000E+00  0.0000E+00  0.0000E+00  0.0000E+00  0.0000E+00  0.0000E+00  0.0000E+00  0.0000E+00  0.0000E+00  0.0000E+00  0.0000E+00  0.0000E+00  0.0000E+00  0.0000E+00  0.0000E+00  0.0000E+00
    -30.798  0.0000E+00  0.0000E+00  0.0000E+00  0.0000E+00  0.0000E+00  0.0000E+00  0.0000E+00  0.0000E+00  0.0000E+00  0.0000E+00  0.0000E+00  0.0000E+00  0.0000E+00  0.0000E+00  0.0000E+00  0.0000E+00  0.0000E+00  0.0000E+00
    -30.635  0.0000E+00  0.0000E+00  0.0000E+00  0.0000E+00  0.0000E+00  0.0000E+00  0.0000E+00  0.0000E+00  0.0000E+00  0.0000E+00  0.0000E+00  0.0000E+00  0.0000E+00  0.0000E+00  0.0000E+00  0.0000E+00  0.0000E+00  0.0000E+00
    -30.472  0.0000E+00  0.0000E+00  0.0000E+00  0.0000E+00  0.0000E+00  0.0000E+00  0.0000E+00  0.0000E+00  0.0000E+00  0.0000E+00  0.0000E+00  0.0000E+00  0.0000E+00  0.0000E+00  0.0000E+00  0.0000E+00  0.0000E+00  0.0000E+00
    -30.308  0.0000E+00  0.0000E+00  0.0000E+00  0.0000E+00  0.0000E+00  0.0000E+00  0.0000E+00  0.0000E+00  0.0000E+00  0.0000E+00  0.0000E+00  0.0000E+00  0.0000E+00  0.0000E+00  0.0000E+00  0.0000E+00  0.0000E+00  0.0000E+00
    -30.145  0.0000E+00  0.0000E+00  0.0000E+00  0.0000E+00  0.0000E+00  0.0000E+00  0.0000E+00  0.0000E+00  0.0000E+00  0.0000E+00  0.0000E+00  0.0000E+00  0.0000E+00  0.0000E+00  0.0000E+00  0.0000E+00  0.0000E+00  0.0000E+00
    -29.982  0.0000E+00  0.0000E+00  0.0000E+00  0.0000E+00  0.0000E+00  0.0000E+00  0.0000E+00  0.0000E+00  0.0000E+00  0.0000E+00  0.0000E+00  0.0000E+00  0.0000E+00  0.0000E+00  0.0000E+00  0.0000E+00  0.0000E+00  0.0000E+00
    -29.818  0.0000E+00  0.0000E+00  0.0000E+00  0.0000E+00  0.0000E+00  0.0000E+00  0.0000E+00  0.0000E+00  0.0000E+00  0.0000E+00  0.0000E+00  0.0000E+00  0.0000E+00  0.0000E+00  0.0000E+00  0.0000E+00  0.0000E+00  0.0000E+00
    -29.655  0.0000E+00  0.0000E+00  0.0000E+00  0.0000E+00  0.0000E+00  0.0000E+00  0.0000E+00  0.0000E+00  0.0000E+00  0.0000E+00  0.0000E+00  0.0000E+00  0.0000E+00  0.0000E+00  0.0000E+00  0.0000E+00  0.0000E+00  0.0000E+00
    -29.492  0.0000E+00  0.0000E+00  0.0000E+00  0.0000E+00  0.0000E+00  0.0000E+00  0.0000E+00  0.0000E+00  0.0000E+00  0.0000E+00  0.0000E+00  0.0000E+00  0.0000E+00  0.0000E+00  0.0000E+00  0.0000E+00  0.0000E+00  0.0000E+00
    -29.328  0.0000E+00  0.0000E+00  0.0000E+00  0.0000E+00  0.0000E+00  0.0000E+00  0.0000E+00  0.0000E+00  0.0000E+00  0.0000E+00  0.0000E+00  0.0000E+00  0.0000E+00  0.0000E+00  0.0000E+00  0.0000E+00  0.0000E+00  0.0000E+00
    -29.165  0.0000E+00  0.0000E+00  0.0000E+00  0.0000E+00  0.0000E+00  0.0000E+00  0.0000E+00  0.0000E+00  0.0000E+00  0.0000E+00  0.0000E+00  0.0000E+00  0.0000E+00  0.0000E+00  0.0000E+00  0.0000E+00  0.0000E+00  0.0000E+00