  16  16   1   0
  0.1976489E+02  0.4307705E-09  0.4307705E-09  0.1704207E-08  0.5000000E-15
  1.000000000000000E-004
  CAR 
 unknown system                          
     12.62777738    -36.33687372  301      5.94084856      1.00000000
    -36.337  0.0000E+00  0.0000E+00  0.0000E+00  0.0000E+00
    -36.174  0.0000E+00  0.0000E+00  0.0000E+00  0.0000E+00
    -36.010  0.0000E+00  0.0000E+00  0.0000E+00  0.0000E+00
    -35.847  0.0000E+00  0.0000E+00  0.0000E+00  0.0000E+00
    -35.684  0.0000E+00  0.0000E+00  0.0000E+00  0.0000E+00
    -35.521  0.0000E+00  0.0000E+00  0.0000E+00  0.0000E+00
    -35.358  0.0000E+00  0.0000E+00  0.0000E+00  0.0000E+00
    -35.194  0.0000E+00  0.0000E+00  0.0000E+00  0.0000E+00
    -35.031  0.0000E+00  0.0000E+00  0.0000E+00  0.0000E+00
    -34.868  0.0000E+00  0.0000E+00  0.0000E+00  0.0000E+00
    -34.705  0.0000E+00  0.0000E+00  0.0000E+00  0.0000E+00
    -34.542  0.4227E-02  0.4258E-02  0.6900E-03  0.6949E-03
    -34.378  0.1059E+00  0.1067E+00  0.1797E-01  0.1810E-01
    -34.215  0.2478E+01  0.2494E+01  0.4224E+00  0.4251E+00
    -34.052  0.1592E+02  0.1594E+02  0.3022E+01  0.3027E+01
    -33.889  0.5695E+01  0.5665E+01  0.3951E+01  0.3951E+01
    -33.725  0.2881E+00  0.2860E+00  0.3998E+01  0.3998E+01
    -33.562  0.0000E+00  0.0000E+00  0.4000E+01  0.4000E+01
    -33.399  0.0000E+00  0.0000E+00  0.4000E+01  0.4000E+01
    -33.236  0.0000E+00  0.0000E+00  0.4000E+01  0.4000E+01
    -33.073  0.0000E+00  0.0000E+00  0.4000E+01  0.4000E+01
    -32.909  0.0000E+00  0.0000E+00  0.4000E+01  0.4000E+01
    -32.746  0.0000E+00  0.0000E+00  0.4000E+01  0.4000E+01
    -32.583  0.0000E+00  0.0000E+00  0.4000E+01  0.4000E+01
    -32.420  0.0000E+00  0.0000E+00  0.4000E+01  0.4000E+01
    -32.256  0.0000E+00  0.0000E+00  0.4000E+01  0.4000E+01
    -32.093  0.0000E+00  0.0000E+00  0.4000E+01  0.4000E+01
    -31.930  0.0000E+00  0.0000E+00  0.4000E+01  0.4000E+01
    -31.767  0.0000E+00  0.0000E+00  0.4000E+01  0.4000E+01
    -31.604  0.0000E+00  0.0000E+00  0.4000E+01  0.4000E+01
    -31.440  0.0000E+00  0.0000E+00  0.4000E+01  0.4000E+01
    -31.277  0.0000E+00  0.0000E+00  0.4000E+01  0.4000E+01
    -31.114  0.0000E+00  0.0000E+00  0.4000E+01  0.4000E+01
    -30.951  0.0000E+00  0.0000E+00  0.4000E+01  0.4000E+01
    -30.788  0.0000E+00  0.0000E+00  0.4000E+01  0.4000E+01
    -30.624  0.0000E+00  0.0000E+00  0.4000E+01  0.4000E+01
    -30.461  0.0000E+00  0.0000E+00  0.4000E+01  0.4000E+01
    -30.298  0.0000E+00  0.0000E+00  0.4000E+01  0.4000E+01
    -30.135  0.0000E+00  0.0000E+00  0.4000E+01  0.4000E+01
    -29.971  0.0000E+00  0.0000E+00  0.4000E+01  0.4000E+01
    -29.808  0.0000E+00  0.0000E+00  0.4000E+01  0.4000E+01
    -29.645  0.0000E+00  0.0000E+00  0.4000E+01  0.4000E+01
    -29.482  0.0000E+00  0.0000E+00  0.4000E+01  0.4000E+01
    -29.319  0.0000E+00  0.0000E+00  0.4000E+01  0.4000E+01
    -29.155  0.0000E+00  0.0000E+00  0.4000E+01  0.4000E+01
    -28.992  0.0000E+00  0.0000E+00  0.4000E+01  0.4000E+01
    -28.829  0.0000E+00  0.0000E+00  0.4000E+01  0.4000E+01
    -28.666  0.0000E+00  0.0000E+00  0.4000E+01  0.4000E+01
    -28.503  0.0000E+00  0.0000E+00  0.4000E+01  0.4000E+01
    -28.339  0.0000E+00  0.0000E+00  0.4000E+01  0.4000E+01
    -28.176  0.0000E+00  0.0000E+00  0.4000E+01  0.4000E+01
    -28.013  0.0000E+00  0.0000E+00  0.4000E+01  0.4000E+01
    -27.850  0.0000E+00  0.0000E+00  0.4000E+01  0.4000E+01
    -27.686  0.0000E+00  0.0000E+00  0.4000E+01  0.4000E+01
    -27.523  0.0000E+00  0.0000E+00  0.4000E+01  0.4000E+01
    -27.360  0.0000E+00  0.0000E+00  0.4000E+01  0.4000E+01
    -27.197  0.0000E+00  0.0000E+00  0.4000E+01  0.4000E+01
    -27.034  0.0000E+00  0.0000E+00  0.4000E+01  0.4000E+01
    -26.870  0.0000E+00  0.0000E+00  0.4000E+01  0.4000E+01
    -26.707  0.0000E+00  0.0000E+00  0.4000E+01  0.4000E+01
    -26.544  0.0000E+00  0.0000E+00  0.4000E+01  0.4000E+01
    -26.381  0.0000E+00  0.0000E+00  0.4000E+01  0.4000E+01
    -26.218  0.0000E+00  0.0000E+00  0.4000E+01  0.4000E+01
    -26.054  0.0000E+00  0.0000E+00  0.4000E+01  0.4000E+01
    -25.891  0.0000E+00  0.0000E+00  0.4000E+01  0.4000E+01
    -25.728  0.0000E+00  0.0000E+00  0.4000E+01  0.4000E+01
    -25.565  0.0000E+00  0.0000E+00  0.4000E+01  0.4000E+01
    -25.401  0.0000E+00  0.0000E+00  0.4000E+01  0.4000E+01
    -25.238  0.0000E+00  0.0000E+00  0.4000E+01  0.4000E+01
    -25.075  0.0000E+00  0.0000E+00  0.4000E+01  0.4000E+01
    -24.912  0.0000E+00  0.0000E+00  0.4000E+01  0.4000E+01
    -24.749  0.0000E+00  0.0000E+00  0.4000E+01  0.4000E+01
    -24.585  0.0000E+00  0.0000E+00  0.4000E+01  0.4000E+01
    -24.422  0.0000E+00  0.0000E+00  0.4000E+01  0.4000E+01
    -24.259  0.0000E+00  0.0000E+00  0.4000E+01  0.4000E+01
    -24.096  0.0000E+00  0.0000E+00  0.4000E+01  0.4000E+01
    -23.932  0.0000E+00  0.0000E+00  0.4000E+01  0.4000E+01
    -23.769  0.0000E+00  0.0000E+00  0.4000E+01  0.4000E+01
    -23.606  0.0000E+00  0.0000E+00  0.4000E+01  0.4000E+01
    -23.443  0.0000E+00  0.0000E+00  0.4000E+01  0.4000E+01
    -23.280  0.0000E+00  0.0000E+00  0.4000E+01  0.4000E+01
    -23.116  0.0000E+00  0.0000E+00  0.4000E+01  0.4000E+01
    -22.953  0.0000E+00  0.0000E+00  0.4000E+01  0.4000E+01
    -22.790  0.0000E+00  0.0000E+00  0.4000E+01  0.4000E+01
    -22.627  0.0000E+00  0.0000E+00  0.4000E+01  0.4000E+01
    -22.464  0.0000E+00  0.0000E+00  0.4000E+01  0.4000E+01
    -22.300  0.0000E+00  0.0000E+00  0.4000E+01  0.4000E+01
    -22.137  0.0000E+00  0.0000E+00  0.4000E+01  0.4000E+01
    -21.974  0.0000E+00  0.0000E+00  0.4000E+01  0.4000E+01
    -21.811  0.0000E+00  0.0000E+00  0.4000E+01  0.4000E+01
    -21.647  0.0000E+00  0.0000E+00  0.4000E+01  0.4000E+01
    -21.484  0.0000E+00  0.0000E+00  0.4000E+01  0.4000E+01
    -21.321  0.0000E+00  0.0000E+00  0.4000E+01  0.4000E+01
    -21.158  0.0000E+00  0.0000E+00  0.4000E+01  0.4000E+01
    -20.995  0.0000E+00  0.0000E+00  0.4000E+01  0.4000E+01
    -20.831  0.0000E+00  0.0000E+00  0.4000E+01  0.4000E+01
    -20.668  0.0000E+00  0.0000E+00  0.4000E+01  0.4000E+01
    -20.505  0.0000E+00  0.0000E+00  0.4000E+01  0.4000E+01
    -20.342  0.0000E+00  0.0000E+00  0.4000E+01  0.4000E+01
    -20.179  0.0000E+00  0.0000E+00  0.4000E+01  0.4000E+01
    -20.015  0.0000E+00  0.0000E+00  0.4000E+01  0.4000E+01
    -19.852  0.0000E+00  0.0000E+00  0.4000E+01  0.4000E+01
    -19.689  0.0000E+00  0.0000E+00  0.4000E+01  0.4000E+01
    -19.526  0.0000E+00  0.0000E+00  0.4000E+01  0.4000E+01
    -19.362  0.0000E+00  0.0000E+00  0.4000E+01  0.4000E+01
    -19.199  0.0000E+00  0.0000E+00  0.4000E+01  0.4000E+01
    -19.036  0.0000E+00  0.0000E+00  0.4000E+01  0.4000E+01
    -18.873  0.0000E+00  0.0000E+00  0.4000E+01  0.4000E+01
    -18.710  0.0000E+00  0.0000E+00  0.4000E+01  0.4000E+01
    -18.546  0.0000E+00  0.0000E+00  0.4000E+01  0.4000E+01
    -18.383  0.0000E+00  0.0000E+00  0.4000E+01  0.4000E+01
    -18.220  0.0000E+00  0.0000E+00  0.4000E+01  0.4000E+01
    -18.057  0.0000E+00  0.0000E+00  0.4000E+01  0.4000E+01
    -17.894  0.0000E+00  0.0000E+00  0.4000E+01  0.4000E+01
    -17.730  0.0000E+00  0.0000E+00  0.4000E+01  0.4000E+01
    -17.567  0.0000E+00  0.0000E+00  0.4000E+01  0.4000E+01
    -17.404  0.0000E+00  0.0000E+00  0.4000E+01  0.4000E+01
    -17.241  0.0000E+00  0.0000E+00  0.4000E+01  0.4000E+01
    -17.077  0.0000E+00  0.0000E+00  0.4000E+01  0.4000E+01
    -16.914  0.0000E+00  0.0000E+00  0.4000E+01  0.4000E+01
    -16.751  0.0000E+00  0.0000E+00  0.4000E+01  0.4000E+01
    -16.588  0.0000E+00  0.0000E+00  0.4000E+01  0.4000E+01
    -16.425  0.0000E+00  0.0000E+00  0.4000E+01  0.4000E+01
    -16.261  0.0000E+00  0.0000E+00  0.4000E+01  0.4000E+01
    -16.098  0.0000E+00  0.0000E+00  0.4000E+01  0.4000E+01
    -15.935  0.0000E+00  0.0000E+00  0.4000E+01  0.4000E+01
    -15.772  0.2846E-02  0.2863E-02  0.4000E+01  0.4000E+01
    -15.609  0.7153E-01  0.7195E-01  0.4012E+01  0.4012E+01
    -15.445  0.1812E+01  0.1822E+01  0.4308E+01  0.4310E+01
    -15.282  0.2661E+02  0.2670E+02  0.8651E+01  0.8667E+01
    -15.119  0.4034E+02  0.4027E+02  0.1523E+02  0.1524E+02
    -14.956  0.4494E+01  0.4469E+01  0.1597E+02  0.1597E+02
    -14.792  0.0000E+00  0.0000E+00  0.1600E+02  0.1600E+02
    -14.629  0.0000E+00  0.0000E+00  0.1600E+02  0.1600E+02
    -14.466  0.0000E+00  0.0000E+00  0.1600E+02  0.1600E+02
    -14.303  0.0000E+00  0.0000E+00  0.1600E+02  0.1600E+02
    -14.140  0.0000E+00  0.0000E+00  0.1600E+02  0.1600E+02
    -13.976  0.0000E+00  0.0000E+00  0.1600E+02  0.1600E+02
    -13.813  0.0000E+00  0.0000E+00  0.1600E+02  0.1600E+02
    -13.650  0.0000E+00  0.0000E+00  0.1600E+02  0.1600E+02
    -13.487  0.0000E+00  0.0000E+00  0.1600E+02  0.1600E+02
    -13.323  0.0000E+00  0.0000E+00  0.1600E+02  0.1600E+02
    -13.160  0.0000E+00  0.0000E+00  0.1600E+02  0.1600E+02
    -12.997  0.0000E+00  0.0000E+00  0.1600E+02  0.1600E+02
    -12.834  0.0000E+00  0.0000E+00  0.1600E+02  0.1600E+02
    -12.671  0.0000E+00  0.0000E+00  0.1600E+02  0.1600E+02
    -12.507  0.0000E+00  0.0000E+00  0.1600E+02  0.1600E+02
    -12.344  0.0000E+00  0.0000E+00  0.1600E+02  0.1600E+02
    -12.181  0.0000E+00  0.0000E+00  0.1600E+02  0.1600E+02
    -12.018  0.0000E+00  0.0000E+00  0.1600E+02  0.1600E+02
    -11.855  0.0000E+00  0.0000E+00  0.1600E+02  0.1600E+02
    -11.691  0.0000E+00  0.0000E+00  0.1600E+02  0.1600E+02
    -11.528  0.0000E+00  0.0000E+00  0.1600E+02  0.1600E+02
    -11.365  0.0000E+00  0.0000E+00  0.1600E+02  0.1600E+02
    -11.202  0.0000E+00  0.0000E+00  0.1600E+02  0.1600E+02
    -11.038  0.0000E+00  0.0000E+00  0.1600E+02  0.1600E+02
    -10.875  0.0000E+00  0.0000E+00  0.1600E+02  0.1600E+02
    -10.712  0.0000E+00  0.0000E+00  0.1600E+02  0.1600E+02
    -10.549  0.0000E+00  0.0000E+00  0.1600E+02  0.1600E+02
    -10.386  0.0000E+00  0.0000E+00  0.1600E+02  0.1600E+02
    -10.222  0.0000E+00  0.0000E+00  0.1600E+02  0.1600E+02
    -10.059  0.0000E+00  0.0000E+00  0.1600E+02  0.1600E+02
     -9.896  0.0000E+00  0.0000E+00  0.1600E+02  0.1600E+02
     -9.733  0.0000E+00  0.0000E+00  0.1600E+02  0.1600E+02
     -9.570  0.0000E+00  0.0000E+00  0.1600E+02  0.1600E+02
     -9.406  0.0000E+00  0.0000E+00  0.1600E+02  0.1600E+02
     -9.243  0.0000E+00  0.0000E+00  0.1600E+02  0.1600E+02
     -9.080  0.0000E+00  0.0000E+00  0.1600E+02  0.1600E+02
     -8.917  0.0000E+00  0.0000E+00  0.1600E+02  0.1600E+02
     -8.753  0.0000E+00  0.0000E+00  0.1600E+02  0.1600E+02
     -8.590  0.0000E+00  0.0000E+00  0.1600E+02  0.1600E+02
     -8.427  0.0000E+00  0.0000E+00  0.1600E+02  0.1600E+02
     -8.264  0.0000E+00  0.0000E+00  0.1600E+02  0.1600E+02
     -8.101  0.0000E+00  0.0000E+00  0.1600E+02  0.1600E+02
     -7.937  0.0000E+00  0.0000E+00  0.1600E+02  0.1600E+02
     -7.774  0.0000E+00  0.0000E+00  0.1600E+02  0.1600E+02
     -7.611  0.0000E+00  0.0000E+00  0.1600E+02  0.1600E+02
     -7.448  0.0000E+00  0.0000E+00  0.1600E+02  0.1600E+02
     -7.285  0.0000E+00  0.0000E+00  0.1600E+02  0.1600E+02
     -7.121  0.0000E+00  0.0000E+00  0.1600E+02  0.1600E+02
     -6.958  0.0000E+00  0.0000E+00  0.1600E+02  0.1600E+02
     -6.795  0.0000E+00  0.0000E+00  0.1600E+02  0.1600E+02
     -6.632  0.0000E+00  0.0000E+00  0.1600E+02  0.1600E+02
     -6.468  0.0000E+00  0.0000E+00  0.1600E+02  0.1600E+02
     -6.305  0.0000E+00  0.0000E+00  0.1600E+02  0.1600E+02
     -6.142  0.0000E+00  0.0000E+00  0.1600E+02  0.1600E+02
     -5.979  0.0000E+00  0.0000E+00  0.1600E+02  0.1600E+02
     -5.816  0.0000E+00  0.0000E+00  0.1600E+02  0.1600E+02
     -5.652  0.0000E+00  0.0000E+00  0.1600E+02  0.1600E+02
     -5.489  0.0000E+00  0.0000E+00  0.1600E+02  0.1600E+02
     -5.326  0.0000E+00  0.0000E+00  0.1600E+02  0.1600E+02
     -5.163  0.0000E+00  0.0000E+00  0.1600E+02  0.1600E+02
     -4.999  0.0000E+00  0.0000E+00  0.1600E+02  0.1600E+02
     -4.836  0.0000E+00  0.0000E+00  0.1600E+02  0.1600E+02
     -4.673  0.0000E+00  0.0000E+00  0.1600E+02  0.1600E+02
     -4.510  0.0000E+00  0.0000E+00  0.1600E+02  0.1600E+02
     -4.347  0.0000E+00  0.0000E+00  0.1600E+02  0.1600E+02
     -4.183  0.0000E+00  0.0000E+00  0.1600E+02  0.1600E+02
     -4.020  0.0000E+00  0.0000E+00  0.1600E+02  0.1600E+02
     -3.857  0.0000E+00  0.0000E+00  0.1600E+02  0.1600E+02
     -3.694  0.0000E+00  0.0000E+00  0.1600E+02  0.1600E+02
     -3.531  0.1222E-04  0.1221E-04  0.1600E+02  0.1600E+02
     -3.367  0.3546E-03  0.3543E-03  0.1600E+02  0.1600E+02
     -3.204  0.8793E-02  0.8787E-02  0.1600E+02  0.1600E+02
     -3.041  0.1208E+00  0.1207E+00  0.1602E+02  0.1602E+02
     -2.878  0.4043E+00  0.4043E+00  0.1609E+02  0.1609E+02
     -2.714  0.6443E+00  0.6443E+00  0.1619E+02  0.1619E+02
     -2.551  0.7834E+00  0.7834E+00  0.1632E+02  0.1632E+02
     -2.388  0.7695E+00  0.7695E+00  0.1645E+02  0.1645E+02
     -2.225  0.8639E+00  0.8637E+00  0.1659E+02  0.1659E+02
     -2.062  0.1006E+01  0.1005E+01  0.1675E+02  0.1675E+02
     -1.898  0.1095E+01  0.1095E+01  0.1693E+02  0.1693E+02
     -1.735  0.1291E+01  0.1291E+01  0.1714E+02  0.1714E+02
     -1.572  0.1384E+01  0.1384E+01  0.1737E+02  0.1737E+02
     -1.409  0.1489E+01  0.1489E+01  0.1761E+02  0.1761E+02
     -1.246  0.1717E+01  0.1716E+01  0.1789E+02  0.1789E+02
     -1.082  0.1863E+01  0.1863E+01  0.1820E+02  0.1820E+02
     -0.919  0.1842E+01  0.1842E+01  0.1850E+02  0.1850E+02
     -0.756  0.1819E+01  0.1819E+01  0.1880E+02  0.1880E+02
     -0.593  0.1852E+01  0.1852E+01  0.1910E+02  0.1910E+02
     -0.429  0.1580E+01  0.1581E+01  0.1936E+02  0.1936E+02
     -0.266  0.1685E+01  0.1685E+01  0.1963E+02  0.1963E+02
     -0.103  0.1757E+01  0.1756E+01  0.1992E+02  0.1992E+02
      0.060  0.2532E+01  0.2532E+01  0.2034E+02  0.2034E+02
      0.223  0.2119E+01  0.2120E+01  0.2068E+02  0.2068E+02
      0.387  0.2174E+01  0.2174E+01  0.2104E+02  0.2104E+02
      0.550  0.1895E+01  0.1894E+01  0.2135E+02  0.2135E+02
      0.713  0.2275E+01  0.2275E+01  0.2172E+02  0.2172E+02
      0.876  0.2270E+01  0.2270E+01  0.2209E+02  0.2209E+02
      1.039  0.2037E+01  0.2037E+01  0.2242E+02  0.2242E+02
      1.203  0.2013E+01  0.2014E+01  0.2275E+02  0.2275E+02
      1.366  0.2644E+01  0.2644E+01  0.2319E+02  0.2319E+02
      1.529  0.2826E+01  0.2826E+01  0.2365E+02  0.2365E+02
      1.692  0.2531E+01  0.2531E+01  0.2406E+02  0.2406E+02
      1.856  0.2838E+01  0.2838E+01  0.2453E+02  0.2453E+02
      2.019  0.2600E+01  0.2600E+01  0.2495E+02  0.2495E+02
      2.182  0.2433E+01  0.2433E+01  0.2535E+02  0.2535E+02
      2.345  0.2294E+01  0.2294E+01  0.2573E+02  0.2573E+02
      2.508  0.2603E+01  0.2603E+01  0.2615E+02  0.2615E+02
      2.672  0.2268E+01  0.2268E+01  0.2652E+02  0.2652E+02
      2.835  0.2414E+01  0.2413E+01  0.2692E+02  0.2692E+02
      2.998  0.2512E+01  0.2513E+01  0.2733E+02  0.2733E+02
      3.161  0.1931E+01  0.1932E+01  0.2765E+02  0.2765E+02
      3.324  0.2863E+01  0.2863E+01  0.2811E+02  0.2811E+02
      3.488  0.3371E+01  0.3370E+01  0.2867E+02  0.2867E+02
      3.651  0.3596E+01  0.3597E+01  0.2925E+02  0.2925E+02
      3.814  0.3526E+01  0.3527E+01  0.2983E+02  0.2983E+02
      3.977  0.3624E+01  0.3624E+01  0.3042E+02  0.3042E+02
      4.141  0.3900E+01  0.3899E+01  0.3106E+02  0.3106E+02
      4.304  0.5011E+01  0.5011E+01  0.3188E+02  0.3188E+02
      4.467  0.4366E+01  0.4366E+01  0.3259E+02  0.3260E+02
      4.630  0.4764E+01  0.4764E+01  0.3337E+02  0.3337E+02
      4.793  0.3636E+01  0.3636E+01  0.3397E+02  0.3397E+02
      4.957  0.3433E+01  0.3433E+01  0.3453E+02  0.3453E+02
      5.120  0.3290E+01  0.3291E+01  0.3507E+02  0.3507E+02
      5.283  0.3440E+01  0.3440E+01  0.3563E+02  0.3563E+02
      5.446  0.3260E+01  0.3261E+01  0.3617E+02  0.3617E+02
      5.610  0.3739E+01  0.3740E+01  0.3678E+02  0.3678E+02
      5.773  0.3655E+01  0.3655E+01  0.3738E+02  0.3738E+02
      5.936  0.3689E+01  0.3689E+01  0.3798E+02  0.3798E+02
      6.099  0.3539E+01  0.3538E+01  0.3856E+02  0.3856E+02
      6.262  0.3973E+01  0.3973E+01  0.3921E+02  0.3921E+02
      6.426  0.4013E+01  0.4012E+01  0.3987E+02  0.3987E+02
      6.589  0.3986E+01  0.3985E+01  0.4052E+02  0.4052E+02
      6.752  0.3834E+01  0.3834E+01  0.4115E+02  0.4115E+02
      6.915  0.3313E+01  0.3313E+01  0.4169E+02  0.4169E+02
      7.078  0.3465E+01  0.3464E+01  0.4226E+02  0.4226E+02
      7.242  0.3417E+01  0.3417E+01  0.4282E+02  0.4282E+02
      7.405  0.3621E+01  0.3620E+01  0.4341E+02  0.4341E+02
      7.568  0.3709E+01  0.3709E+01  0.4402E+02  0.4402E+02
      7.731  0.3684E+01  0.3685E+01  0.4462E+02  0.4462E+02
      7.895  0.3104E+01  0.3104E+01  0.4513E+02  0.4513E+02
      8.058  0.3719E+01  0.3719E+01  0.4574E+02  0.4574E+02
      8.221  0.4396E+01  0.4382E+01  0.4645E+02  0.4645E+02
      8.384  0.4568E+01  0.4533E+01  0.4720E+02  0.4719E+02
      8.547  0.4958E+01  0.4950E+01  0.4801E+02  0.4800E+02
      8.711  0.5105E+01  0.4985E+01  0.4885E+02  0.4882E+02
      8.874  0.4290E+01  0.4220E+01  0.4955E+02  0.4951E+02
      9.037  0.3264E+01  0.3565E+01  0.5008E+02  0.5009E+02
      9.200  0.2998E+01  0.3072E+01  0.5057E+02  0.5060E+02
      9.363  0.2081E+01  0.1970E+01  0.5092E+02  0.5092E+02
      9.527  0.1855E+01  0.1972E+01  0.5122E+02  0.5124E+02
      9.690  0.1678E+01  0.1588E+01  0.5149E+02  0.5150E+02
      9.853  0.1046E+01  0.8936E+00  0.5167E+02  0.5165E+02
     10.016  0.9026E+00  0.7103E+00  0.5181E+02  0.5177E+02
     10.180  0.5513E+00  0.6774E+00  0.5190E+02  0.5188E+02
     10.343  0.3525E+00  0.5036E+00  0.5196E+02  0.5196E+02
     10.506  0.2088E+00  0.2284E+00  0.5200E+02  0.5200E+02
     10.669  0.1810E-01  0.1978E-01  0.5200E+02  0.5200E+02
     10.832  0.0000E+00  0.0000E+00  0.5200E+02  0.5200E+02
     10.996  0.0000E+00  0.0000E+00  0.5200E+02  0.5200E+02
     11.159  0.0000E+00  0.0000E+00  0.5200E+02  0.5200E+02
     11.322  0.0000E+00  0.0000E+00  0.5200E+02  0.5200E+02
     11.485  0.0000E+00  0.0000E+00  0.5200E+02  0.5200E+02
     11.648  0.0000E+00  0.0000E+00  0.5200E+02  0.5200E+02
     11.812  0.0000E+00  0.0000E+00  0.5200E+02  0.5200E+02
     11.975  0.0000E+00  0.0000E+00  0.5200E+02  0.5200E+02
     12.138  0.0000E+00  0.0000E+00  0.5200E+02  0.5200E+02
     12.301  0.0000E+00  0.0000E+00  0.5200E+02  0.5200E+02
     12.465  0.0000E+00  0.0000E+00  0.5200E+02  0.5200E+02
     12.628  0.0000E+00  0.0000E+00  0.5200E+02  0.5200E+02
     12.62777738    -36.33687372  301      5.94084856      1.00000000
    -36.337  0.0000E+00  0.0000E+00  0.0000E+00  0.0000E+00  0.0000E+00  0.0000E+00  0.0000E+00  0.0000E+00  0.0000E+00  0.0000E+00  0.0000E+00  0.0000E+00  0.0000E+00  0.0000E+00  0.0000E+00  0.0000E+00  0.0000E+00  0.0000E+00
    -36.174  0.0000E+00  0.0000E+00  0.0000E+00  0.0000E+00  0.0000E+00  0.0000E+00  0.0000E+00  0.0000E+00  0.0000E+00  0.0000E+00  0.0000E+00  0.0000E+00  0.0000E+00  0.0000E+00  0.0000E+00  0.0000E+00  0.0000E+00  0.0000E+00
    -36.010  0.0000E+00  0.0000E+00  0.0000E+00  0.0000E+00  0.0000E+00  0.0000E+00  0.0000E+00  0.0000E+00  0.0000E+00  0.0000E+00  0.0000E+00  0.0000E+00  0.0000E+00  0.0000E+00  0.0000E+00  0.0000E+00  0.0000E+00  0.0000E+00
    -35.847  0.0000E+00  0.0000E+00  0.0000E+00  0.0000E+00  0.0000E+00  0.0000E+00  0.0000E+00  0.0000E+00  0.0000E+00  0.0000E+00  0.0000E+00  0.0000E+00  0.0000E+00  0.0000E+00  0.0000E+00  0.0000E+00  0.0000E+00  0.0000E+00
    -35.684  0.0000E+00  0.0000E+00  0.0000E+00  0.0000E+00  0.0000E+00  0.0000E+00  0.0000E+00  0.0000E+00  0.0000E+00  0.0000E+00  0.0000E+00  0.0000E+00  0.0000E+00  0.0000E+00  0.0000E+00  0.0000E+00  0.0000E+00  0.0000E+00
    -35.521  0.0000E+00  0.0000E+00  0.0000E+00  0.0000E+00  0.0000E+00  0.0000E+00  0.0000E+00  0.0000E+00  0.0000E+00  0.0000E+00  0.0000E+00  0.0000E+00  0.0000E+00  0.0000E+00  0.0000E+00  0.0000E+00  0.0000E+00  0.0000E+00
    -35.358  0.0000E+00  0.0000E+00  0.0000E+00  0.0000E+00  0.0000E+00  0.0000E+00  0.0000E+00  0.0000E+00  0.0000E+00  0.0000E+00  0.0000E+00  0.0000E+00  0.0000E+00  0.0000E+00  0.0000E+00  0.0000E+00  0.0000E+00  0.0000E+00
    -35.194  0.0000E+00  0.0000E+00  0.0000E+00  0.0000E+00  0.0000E+00  0.0000E+00  0.0000E+00  0.0000E+00  0.0000E+00  0.0000E+00  0.0000E+00  0.0000E+00  0.0000E+00  0.0000E+00  0.0000E+00  0.0000E+00  0.0000E+00  0.0000E+00
    -35.031  0.0000E+00  0.0000E+00  0.0000E+00  0.0000E+00  0.0000E+00  0.0000E+00  0.0000E+00  0.0000E+00  0.0000E+00  0.0000E+00  0.0000E+00  0.0000E+00  0.0000E+00  0.0000E+00  0.0000E+00  0.0000E+00  0.0000E+00  0.0000E+00
    -34.868  0.0000E+00  0.0000E+00  0.0000E+00  0.0000E+00  0.0000E+00  0.0000E+00  0.0000E+00  0.0000E+00  0.0000E+00  0.0000E+00  0.0000E+00  0.0000E+00  0.0000E+00  0.0000E+00  0.0000E+00  0.0000E+00  0.0000E+00  0.0000E+00
    -34.705  0.0000E+00  0.0000E+00  0.0000E+00  0.0000E+00  0.0000E+00  0.0000E+00  0.0000E+00  0.0000E+00  0.0000E+00  0.0000E+00  0.0000E+00  0.0000E+00  0.0000E+00  0.0000E+00  0.0000E+00  0.0000E+00  0.0000E+00  0.0000E+00
    -34.542  0.1041E-02  0.1048E-02  0.4838E-11  0.4821E-11  0.6689E-09  0.6754E-09  0.4838E-11  0.4821E-11  0.2452E-14  0.1418E-14  0.6376E-14  0.3524E-14  0.2594E-09  0.2575E-09  0.6376E-14  0.3524E-14  0.3006E-11  0.3051E-11
    -34.378  0.2607E-01  0.2626E-01  0.1212E-09  0.1207E-09  0.1676E-07  0.1692E-07  0.1212E-09  0.1207E-09  0.6143E-13  0.3553E-13  0.1597E-12  0.8828E-13  0.6498E-08  0.6451E-08  0.1597E-12  0.8828E-13  0.7529E-10  0.7641E-10
    -34.215  0.6101E+00  0.6140E+00  0.2836E-08  0.2823E-08  0.3922E-06  0.3957E-06  0.2836E-08  0.2823E-08  0.1439E-11  0.8315E-12  0.3740E-11  0.2065E-11  0.1521E-06  0.1508E-06  0.3740E-11  0.2065E-11  0.1762E-08  0.1787E-08
    -34.052  0.3921E+01  0.3924E+01  0.1822E-07  0.1804E-07  0.2525E-05  0.2533E-05  0.1822E-07  0.1804E-07  0.9342E-11  0.5347E-11  0.2412E-10  0.1324E-10  0.9771E-06  0.9641E-06  0.2412E-10  0.1324E-10  0.1133E-07  0.1142E-07
    -33.889  0.1402E+01  0.1395E+01  0.6512E-08  0.6405E-08  0.9047E-06  0.9021E-06  0.6512E-08  0.6405E-08  0.3380E-11  0.1913E-11  0.8664E-11  0.4719E-11  0.3494E-06  0.3425E-06  0.8664E-11  0.4719E-11  0.4050E-08  0.4059E-08
    -33.725  0.7092E-01  0.7042E-01  0.3293E-09  0.3233E-09  0.4579E-07  0.4558E-07  0.3293E-09  0.3233E-09  0.1715E-12  0.9681E-13  0.4387E-12  0.2385E-12  0.1767E-07  0.1730E-07  0.4387E-12  0.2385E-12  0.2049E-09  0.2049E-09
    -33.562  0.0000E+00  0.0000E+00  0.0000E+00  0.0000E+00  0.0000E+00  0.0000E+00  0.0000E+00  0.0000E+00  0.0000E+00  0.0000E+00  0.0000E+00  0.0000E+00  0.0000E+00  0.0000E+00  0.0000E+00  0.0000E+00  0.0000E+00  0.0000E+00
    -33.399  0.0000E+00  0.0000E+00  0.0000E+00  0.0000E+00  0.0000E+00  0.0000E+00  0.0000E+00  0.0000E+00  0.0000E+00  0.0000E+00  0.0000E+00  0.0000E+00  0.0000E+00  0.0000E+00  0.0000E+00  0.0000E+00  0.0000E+00  0.0000E+00
    -33.236  0.0000E+00  0.0000E+00  0.0000E+00  0.0000E+00  0.0000E+00  0.0000E+00  0.0000E+00  0.0000E+00  0.0000E+00  0.0000E+00  0.0000E+00  0.0000E+00  0.0000E+00  0.0000E+00  0.0000E+00  0.0000E+00  0.0000E+00  0.0000E+00
    -33.073  0.0000E+00  0.0000E+00  0.0000E+00  0.0000E+00  0.0000E+00  0.0000E+00  0.0000E+00  0.0000E+00  0.0000E+00  0.0000E+00  0.0000E+00  0.0000E+00  0.0000E+00  0.0000E+00  0.0000E+00  0.0000E+00  0.0000E+00  0.0000E+00
    -32.909  0.0000E+00  0.0000E+00  0.0000E+00  0.0000E+00  0.0000E+00  0.0000E+00  0.0000E+00  0.0000E+00  0.0000E+00  0.0000E+00  0.0000E+00  0.0000E+00  0.0000E+00  0.0000E+00  0.0000E+00  0.0000E+00  0.0000E+00  0.0000E+00
    -32.746  0.0000E+00  0.0000E+00  0.0000E+00  0.0000E+00  0.0000E+00  0.0000E+00  0.0000E+00  0.0000E+00  0.0000E+00  0.0000E+00  0.0000E+00  0.0000E+00  0.0000E+00  0.0000E+00  0.0000E+00  0.0000E+00  0.0000E+00  0.0000E+00
    -32.583  0.0000E+00  0.0000E+00  0.0000E+00  0.0000E+00  0.0000E+00  0.0000E+00  0.0000E+00  0.0000E+00  0.0000E+00  0.0000E+00  0.0000E+00  0.0000E+00  0.0000E+00  0.0000E+00  0.0000E+00  0.0000E+00  0.0000E+00  0.0000E+00
    -32.420  0.0000E+00  0.0000E+00  0.0000E+00  0.0000E+00  0.0000E+00  0.0000E+00  0.0000E+00  0.0000E+00  0.0000E+00  0.0000E+00  0.0000E+00  0.0000E+00  0.0000E+00  0.0000E+00  0.0000E+00  0.0000E+00  0.0000E+00  0.0000E+00
    -32.256  0.0000E+00  0.0000E+00  0.0000E+00  0.0000E+00  0.0000E+00  0.0000E+00  0.0000E+00  0.0000E+00  0.0000E+00  0.0000E+00  0.0000E+00  0.0000E+00  0.0000E+00  0.0000E+00  0.0000E+00  0.0000E+00  0.0000E+00  0.0000E+00
    -32.093  0.0000E+00  0.0000E+00  0.0000E+00  0.0000E+00  0.0000E+00  0.0000E+00  0.0000E+00  0.0000E+00  0.0000E+00  0.0000E+00  0.0000E+00  0.0000E+00  0.0000E+00  0.0000E+00  0.0000E+00  0.0000E+00  0.0000E+00  0.0000E+00
    -31.930  0.0000E+00  0.0000E+00  0.0000E+00  0.0000E+00  0.0000E+00  0.0000E+00  0.0000E+00  0.0000E+00  0.0000E+00  0.0000E+00  0.0000E+00  0.0000E+00  0.0000E+00  0.0000E+00  0.0000E+00  0.0000E+00  0.0000E+00  0.0000E+00
    -31.767  0.0000E+00  0.0000E+00  0.0000E+00  0.0000E+00  0.0000E+00  0.0000E+00  0.0000E+00  0.0000E+00  0.0000E+00  0.0000E+00  0.0000E+00  0.0000E+00  0.0000E+00  0.0000E+00  0.0000E+00  0.0000E+00  0.0000E+00  0.0000E+00
    -31.604  0.0000E+00  0.0000E+00  0.0000E+00  0.0000E+00  0.0000E+00  0.0000E+00  0.0000E+00  0.0000E+00  0.0000E+00  0.0000E+00  0.0000E+00  0.0000E+00  0.0000E+00  0.0000E+00  0.0000E+00  0.0000E+00  0.0000E+00  0.0000E+00
    -31.440  0.0000E+00  0.0000E+00  0.0000E+00  0.0000E+00  0.0000E+00  0.0000E+00  0.0000E+00  0.0000E+00  0.0000E+00  0.0000E+00  0.0000E+00  0.0000E+00  0.0000E+00  0.0000E+00  0.0000E+00  0.0000E+00  0.0000E+00  0.0000E+00
    -31.277  0.0000E+00  0.0000E+00  0.0000E+00  0.0000E+00  0.0000E+00  0.0000E+00  0.0000E+00  0.0000E+00  0.0000E+00  0.0000E+00  0.0000E+00  0.0000E+00  0.0000E+00  0.0000E+00  0.0000E+00  0.0000E+00  0.0000E+00  0.0000E+00
    -31.114  0.0000E+00  0.0000E+00  0.0000E+00  0.0000E+00  0.0000E+00  0.0000E+00  0.0000E+00  0.0000E+00  0.0000E+00  0.0000E+00  0.0000E+00  0.0000E+00  0.0000E+00  0.0000E+00  0.0000E+00  0.0000E+00  0.0000E+00  0.0000E+00
    -30.951  0.0000E+00  0.0000E+00  0.0000E+00  0.0000E+00  0.0000E+00  0.0000E+00  0.0000E+00  0.0000E+00  0.0000E+00  0.0000E+00  0.0000E+00  0.0000E+00  0.0000E+00  0.0000E+00  0.0000E+00  0.0000E+00  0.0000E+00  0.0000E+00
    -30.788  0.0000E+00  0.0000E+00  0.0000E+00  0.0000E+00  0.0000E+00  0.0000E+00  0.0000E+00  0.0000E+00  0.0000E+00  0.0000E+00  0.0000E+00  0.0000E+00  0.0000E+00  0.0000E+00  0.0000E+00  0.0000E+00  0.0000E+00  0.0000E+00
    -30.624  0.0000E+00  0.0000E+00  0.0000E+00  0.0000E+00  0.0000E+00  0.0000E+00  0.0000E+00  0.0000E+00  0.0000E+00  0.0000E+00  0.0000E+00  0.0000E+00  0.0000E+00  0.0000E+00  0.0000E+00  0.0000E+00  0.0000E+00  0.0000E+00
    -30.461  0.0000E+00  0.0000E+00  0.0000E+00  0.0000E+00  0.0000E+00  0.0000E+00  0.0000E+00  0.0000E+00  0.0000E+00  0.0000E+00  0.0000E+00  0.0000E+00  0.0000E+00  0.0000E+00  0.0000E+00  0.0000E+00  0.0000E+00  0.0000E+00
    -30.298  0.0000E+00  0.0000E+00  0.0000E+00  0.0000E+00  0.0000E+00  0.0000E+00  0.0000E+00  0.0000E+00  0.0000E+00  0.0000E+00  0.0000E+00  0.0000E+00  0.0000E+00  0.0000E+00  0.0000E+00  0.0000E+00  0.0000E+00  0.0000E+00
    -30.135  0.0000E+00  0.0000E+00  0.0000E+00  0.0000E+00  0.0000E+00  0.0000E+00  0.0000E+00  0.0000E+00  0.0000E+00  0.0000E+00  0.0000E+00  0.0000E+00  0.0000E+00  0.0000E+00  0.0000E+00  0.0000E+00  0.0000E+00  0.0000E+00
    -29.971  0.0000E+00  0.0000E+00  0.0000E+00  0.0000E+00  0.0000E+00  0.0000E+00  0.0000E+00  0.0000E+00  0.0000E+00  0.0000E+00  0.0000E+00  0.0000E+00  0.0000E+00  0.0000E+00  0.0000E+00  0.0000E+00  0.0000E+00  0.0000E+00
    -29.808  0.0000E+00  0.0000E+00  0.0000E+00  0.0000E+00  0.0000E+00  0.0000E+00  0.0000E+00  0.0000E+00  0.0000E+00  0.0000E+00  0.0000E+00  0.0000E+00  0.0000E+00  0.0000E+00  0.0000E+00  0.0000E+00  0.0000E+00  0.0000E+00
    -29.645  0.0000E+00  0.0000E+00  0.0000E+00  0.0000E+00  0.0000E+00  0.0000E+00  0.0000E+00  0.0000E+00  0.0000E+00  0.0000E+00  0.0000E+00  0.0000E+00  0.0000E+00  0.0000E+00  0.0000E+00  0.0000E+00  0.0000E+00  0.0000E+00
    -29.482  0.0000E+00  0.0000E+00  0.0000E+00  0.0000E+00  0.0000E+00  0.0000E+00  0.0000E+00  0.0000E+00  0.0000E+00  0.0000E+00  0.0000E+00  0.0000E+00  0.0000E+00  0.0000E+00  0.0000E+00  0.0000E+00  0.0000E+00  0.0000E+00
    -29.319  0.0000E+00  0.0000E+00  0.0000E+00  0.0000E+00  0.0000E+00  0.0000E+00  0.0000E+00  0.0000E+00  0.0000E+00  0.0000E+00  0.0000E+00  0.0000E+00  0.0000E+00  0.0000E+00  0.0000E+00  0.0000E+00  0.0000E+00  0.0000E+00
    -29.155  0.0000E+00  0.0000E+00  0.0000E+00  0.0000E+00  0.0000E+00  0.0000E+00  0.0000E+00  0.0000E+00  0.0000E+00  0.0000E+00  0.0000E+00  0.0000E+00  0.0000E+00  0.0000E+00  0.0000E+00  0.0000E+00  0.0000E+00  0.0000E+00
    -28.992  0.0000E+00  0.0000E+00  0.0000E+00  0.0000E+00  0.0000E+00  0.0000E+00  0.0000E+00  0.0000E+00  0.0000E+00  0.0000E+00  0.0000E+00  0.0000E+00  0.0000E+00  0.0000E+00  0.0000E+00  0.0000E+00  0.0000E+00  0.0000E+00
    -28.829  0.0000E+00  0.0000E+00  0.0000E+00  0.0000E+00  0.0000E+00  0.0000E+00  0.0000E+00  0.0000E+00  0.0000E+00  0.0000E+00  0.0000E+00  0.0000E+00  0.0000E+00  0.0000E+00  0.0000E+00  0.0000E+00  0.0000E+00  0.0000E+00
    -28.666  0.0000E+00  0.0000E+00  0.0000E+00  0.0000E+00  0.0000E+00  0.0000E+00  0.0000E+00  0.0000E+00  0.0000E+00  0.0000E+00  0.0000E+00  0.0000E+00  0.0000E+00  0.0000E+00  0.0000E+00  0.0000E+00  0.0000E+00  0.0000E+00
    -28.503  0.0000E+00  0.0000E+00  0.0000E+00  0.0000E+00  0.0000E+00  0.0000E+00  0.0000E+00  0.0000E+00  0.0000E+00  0.0000E+00  0.0000E+00  0.0000E+00  0.0000E+00  0.0000E+00  0.0000E+00  0.0000E+00  0.0000E+00  0.0000E+00
    -28.339  0.0000E+00  0.0000E+00  0.0000E+00  0.0000E+00  0.0000E+00  0.0000E+00  0.0000E+00  0.0000E+00  0.0000E+00  0.0000E+00  0.0000E+00  0.0000E+00  0.0000E+00  0.0000E+00  0.0000E+00  0.0000E+00  0.0000E+00  0.0000E+00
    -28.176  0.0000E+00  0.0000E+00  0.0000E+00  0.0000E+00  0.0000E+00  0.0000E+00  0.0000E+00  0.0000E+00  0.0000E+00  0.0000E+00  0.0000E+00  0.0000E+00  0.0000E+00  0.0000E+00  0.0000E+00  0.0000E+00  0.0000E+00  0.0000E+00