  16  16   1   0
  0.1535016E+02  0.3959607E-09  0.3959607E-09  0.1566494E-08  0.5000000E-15
  1.000000000000000E-004
  CAR 
 unknown system                          
     15.58278182    -33.39246555  301      8.15930442      1.00000000
    -33.392  0.0000E+00  0.0000E+00  0.0000E+00  0.0000E+00
    -33.229  0.0000E+00  0.0000E+00  0.0000E+00  0.0000E+00
    -33.066  0.0000E+00  0.0000E+00  0.0000E+00  0.0000E+00
    -32.903  0.0000E+00  0.0000E+00  0.0000E+00  0.0000E+00
    -32.739  0.0000E+00  0.0000E+00  0.0000E+00  0.0000E+00
    -32.576  0.0000E+00  0.0000E+00  0.0000E+00  0.0000E+00
    -32.413  0.0000E+00  0.0000E+00  0.0000E+00  0.0000E+00
    -32.250  0.0000E+00  0.0000E+00  0.0000E+00  0.0000E+00
    -32.086  0.0000E+00  0.0000E+00  0.0000E+00  0.0000E+00
    -31.923  0.0000E+00  0.0000E+00  0.0000E+00  0.0000E+00
    -31.760  0.0000E+00  0.0000E+00  0.0000E+00  0.0000E+00
    -31.597  0.3597E-02  0.3662E-02  0.5873E-03  0.5979E-03
    -31.433  0.9024E-01  0.9186E-01  0.1532E-01  0.1559E-01
    -31.270  0.2145E+01  0.2180E+01  0.3656E+00  0.3715E+00
    -31.107  0.1550E+02  0.1555E+02  0.2895E+01  0.2910E+01
    -30.944  0.6413E+01  0.6332E+01  0.3942E+01  0.3943E+01
    -30.780  0.3389E+00  0.3329E+00  0.3998E+01  0.3998E+01
    -30.617  0.0000E+00  0.0000E+00  0.4000E+01  0.4000E+01
    -30.454  0.0000E+00  0.0000E+00  0.4000E+01  0.4000E+01
    -30.291  0.0000E+00  0.0000E+00  0.4000E+01  0.4000E+01
    -30.127  0.0000E+00  0.0000E+00  0.4000E+01  0.4000E+01
    -29.964  0.0000E+00  0.0000E+00  0.4000E+01  0.4000E+01
    -29.801  0.0000E+00  0.0000E+00  0.4000E+01  0.4000E+01
    -29.638  0.0000E+00  0.0000E+00  0.4000E+01  0.4000E+01
    -29.474  0.0000E+00  0.0000E+00  0.4000E+01  0.4000E+01
    -29.311  0.0000E+00  0.0000E+00  0.4000E+01  0.4000E+01
    -29.148  0.0000E+00  0.0000E+00  0.4000E+01  0.4000E+01
    -28.985  0.0000E+00  0.0000E+00  0.4000E+01  0.4000E+01
    -28.821  0.0000E+00  0.0000E+00  0.4000E+01  0.4000E+01
    -28.658  0.0000E+00  0.0000E+00  0.4000E+01  0.4000E+01
    -28.495  0.0000E+00  0.0000E+00  0.4000E+01  0.4000E+01
    -28.332  0.0000E+00  0.0000E+00  0.4000E+01  0.4000E+01
    -28.168  0.0000E+00  0.0000E+00  0.4000E+01  0.4000E+01
    -28.005  0.0000E+00  0.0000E+00  0.4000E+01  0.4000E+01
    -27.842  0.0000E+00  0.0000E+00  0.4000E+01  0.4000E+01
    -27.679  0.0000E+00  0.0000E+00  0.4000E+01  0.4000E+01
    -27.515  0.0000E+00  0.0000E+00  0.4000E+01  0.4000E+01
    -27.352  0.0000E+00  0.0000E+00  0.4000E+01  0.4000E+01
    -27.189  0.0000E+00  0.0000E+00  0.4000E+01  0.4000E+01
    -27.026  0.0000E+00  0.0000E+00  0.4000E+01  0.4000E+01
    -26.862  0.0000E+00  0.0000E+00  0.4000E+01  0.4000E+01
    -26.699  0.0000E+00  0.0000E+00  0.4000E+01  0.4000E+01
    -26.536  0.0000E+00  0.0000E+00  0.4000E+01  0.4000E+01
    -26.373  0.0000E+00  0.0000E+00  0.4000E+01  0.4000E+01
    -26.209  0.0000E+00  0.0000E+00  0.4000E+01  0.4000E+01
    -26.046  0.0000E+00  0.0000E+00  0.4000E+01  0.4000E+01
    -25.883  0.0000E+00  0.0000E+00  0.4000E+01  0.4000E+01
    -25.720  0.0000E+00  0.0000E+00  0.4000E+01  0.4000E+01
    -25.556  0.0000E+00  0.0000E+00  0.4000E+01  0.4000E+01
    -25.393  0.0000E+00  0.0000E+00  0.4000E+01  0.4000E+01
    -25.230  0.0000E+00  0.0000E+00  0.4000E+01  0.4000E+01
    -25.067  0.0000E+00  0.0000E+00  0.4000E+01  0.4000E+01
    -24.903  0.0000E+00  0.0000E+00  0.4000E+01  0.4000E+01
    -24.740  0.0000E+00  0.0000E+00  0.4000E+01  0.4000E+01
    -24.577  0.0000E+00  0.0000E+00  0.4000E+01  0.4000E+01
    -24.414  0.0000E+00  0.0000E+00  0.4000E+01  0.4000E+01
    -24.250  0.0000E+00  0.0000E+00  0.4000E+01  0.4000E+01
    -24.087  0.0000E+00  0.0000E+00  0.4000E+01  0.4000E+01
    -23.924  0.0000E+00  0.0000E+00  0.4000E+01  0.4000E+01
    -23.761  0.0000E+00  0.0000E+00  0.4000E+01  0.4000E+01
    -23.597  0.0000E+00  0.0000E+00  0.4000E+01  0.4000E+01
    -23.434  0.0000E+00  0.0000E+00  0.4000E+01  0.4000E+01
    -23.271  0.0000E+00  0.0000E+00  0.4000E+01  0.4000E+01
    -23.108  0.0000E+00  0.0000E+00  0.4000E+01  0.4000E+01
    -22.944  0.0000E+00  0.0000E+00  0.4000E+01  0.4000E+01
    -22.781  0.0000E+00  0.0000E+00  0.4000E+01  0.4000E+01
    -22.618  0.0000E+00  0.0000E+00  0.4000E+01  0.4000E+01
    -22.455  0.0000E+00  0.0000E+00  0.4000E+01  0.4000E+01
    -22.291  0.0000E+00  0.0000E+00  0.4000E+01  0.4000E+01
    -22.128  0.0000E+00  0.0000E+00  0.4000E+01  0.4000E+01
    -21.965  0.0000E+00  0.0000E+00  0.4000E+01  0.4000E+01
    -21.802  0.0000E+00  0.0000E+00  0.4000E+01  0.4000E+01
    -21.638  0.0000E+00  0.0000E+00  0.4000E+01  0.4000E+01
    -21.475  0.0000E+00  0.0000E+00  0.4000E+01  0.4000E+01
    -21.312  0.0000E+00  0.0000E+00  0.4000E+01  0.4000E+01
    -21.149  0.0000E+00  0.0000E+00  0.4000E+01  0.4000E+01
    -20.985  0.0000E+00  0.0000E+00  0.4000E+01  0.4000E+01
    -20.822  0.0000E+00  0.0000E+00  0.4000E+01  0.4000E+01
    -20.659  0.0000E+00  0.0000E+00  0.4000E+01  0.4000E+01
    -20.496  0.0000E+00  0.0000E+00  0.4000E+01  0.4000E+01
    -20.332  0.0000E+00  0.0000E+00  0.4000E+01  0.4000E+01
    -20.169  0.0000E+00  0.0000E+00  0.4000E+01  0.4000E+01
    -20.006  0.0000E+00  0.0000E+00  0.4000E+01  0.4000E+01
    -19.843  0.0000E+00  0.0000E+00  0.4000E+01  0.4000E+01
    -19.679  0.0000E+00  0.0000E+00  0.4000E+01  0.4000E+01
    -19.516  0.0000E+00  0.0000E+00  0.4000E+01  0.4000E+01
    -19.353  0.0000E+00  0.0000E+00  0.4000E+01  0.4000E+01
    -19.190  0.0000E+00  0.0000E+00  0.4000E+01  0.4000E+01
    -19.026  0.0000E+00  0.0000E+00  0.4000E+01  0.4000E+01
    -18.863  0.0000E+00  0.0000E+00  0.4000E+01  0.4000E+01
    -18.700  0.0000E+00  0.0000E+00  0.4000E+01  0.4000E+01
    -18.537  0.0000E+00  0.0000E+00  0.4000E+01  0.4000E+01
    -18.373  0.0000E+00  0.0000E+00  0.4000E+01  0.4000E+01
    -18.210  0.0000E+00  0.0000E+00  0.4000E+01  0.4000E+01
    -18.047  0.0000E+00  0.0000E+00  0.4000E+01  0.4000E+01
    -17.884  0.0000E+00  0.0000E+00  0.4000E+01  0.4000E+01
    -17.720  0.0000E+00  0.0000E+00  0.4000E+01  0.4000E+01
    -17.557  0.0000E+00  0.0000E+00  0.4000E+01  0.4000E+01
    -17.394  0.0000E+00  0.0000E+00  0.4000E+01  0.4000E+01
    -17.231  0.0000E+00  0.0000E+00  0.4000E+01  0.4000E+01
    -17.067  0.0000E+00  0.0000E+00  0.4000E+01  0.4000E+01
    -16.904  0.0000E+00  0.0000E+00  0.4000E+01  0.4000E+01
    -16.741  0.0000E+00  0.0000E+00  0.4000E+01  0.4000E+01
    -16.578  0.0000E+00  0.0000E+00  0.4000E+01  0.4000E+01
    -16.414  0.0000E+00  0.0000E+00  0.4000E+01  0.4000E+01
    -16.251  0.0000E+00  0.0000E+00  0.4000E+01  0.4000E+01
    -16.088  0.0000E+00  0.0000E+00  0.4000E+01  0.4000E+01
    -15.925  0.0000E+00  0.0000E+00  0.4000E+01  0.4000E+01
    -15.761  0.0000E+00  0.0000E+00  0.4000E+01  0.4000E+01
    -15.598  0.0000E+00  0.0000E+00  0.4000E+01  0.4000E+01
    -15.435  0.0000E+00  0.0000E+00  0.4000E+01  0.4000E+01
    -15.272  0.0000E+00  0.0000E+00  0.4000E+01  0.4000E+01
    -15.108  0.0000E+00  0.0000E+00  0.4000E+01  0.4000E+01
    -14.945  0.0000E+00  0.0000E+00  0.4000E+01  0.4000E+01
    -14.782  0.0000E+00  0.0000E+00  0.4000E+01  0.4000E+01
    -14.619  0.0000E+00  0.0000E+00  0.4000E+01  0.4000E+01
    -14.455  0.0000E+00  0.0000E+00  0.4000E+01  0.4000E+01
    -14.292  0.0000E+00  0.0000E+00  0.4000E+01  0.4000E+01
    -14.129  0.0000E+00  0.0000E+00  0.4000E+01  0.4000E+01
    -13.966  0.0000E+00  0.0000E+00  0.4000E+01  0.4000E+01
    -13.802  0.0000E+00  0.0000E+00  0.4000E+01  0.4000E+01
    -13.639  0.0000E+00  0.0000E+00  0.4000E+01  0.4000E+01
    -13.476  0.0000E+00  0.0000E+00  0.4000E+01  0.4000E+01
    -13.313  0.0000E+00  0.0000E+00  0.4000E+01  0.4000E+01
    -13.149  0.1448E-04  0.1471E-04  0.4000E+01  0.4000E+01
    -12.986  0.5194E-02  0.5274E-02  0.4001E+01  0.4001E+01
    -12.823  0.1342E+00  0.1362E+00  0.4023E+01  0.4023E+01
    -12.660  0.3173E+01  0.3216E+01  0.4541E+01  0.4548E+01
    -12.496  0.2860E+02  0.2875E+02  0.9209E+01  0.9242E+01
    -12.333  0.3555E+02  0.3542E+02  0.1501E+02  0.1502E+02
    -12.170  0.5749E+01  0.5678E+01  0.1596E+02  0.1596E+02
    -12.007  0.1270E+00  0.1225E+00  0.1600E+02  0.1600E+02
    -11.843  0.0000E+00  0.0000E+00  0.1600E+02  0.1600E+02
    -11.680  0.0000E+00  0.0000E+00  0.1600E+02  0.1600E+02
    -11.517  0.0000E+00  0.0000E+00  0.1600E+02  0.1600E+02
    -11.354  0.0000E+00  0.0000E+00  0.1600E+02  0.1600E+02
    -11.190  0.0000E+00  0.0000E+00  0.1600E+02  0.1600E+02
    -11.027  0.0000E+00  0.0000E+00  0.1600E+02  0.1600E+02
    -10.864  0.0000E+00  0.0000E+00  0.1600E+02  0.1600E+02
    -10.701  0.0000E+00  0.0000E+00  0.1600E+02  0.1600E+02
    -10.537  0.0000E+00  0.0000E+00  0.1600E+02  0.1600E+02
    -10.374  0.0000E+00  0.0000E+00  0.1600E+02  0.1600E+02
    -10.211  0.0000E+00  0.0000E+00  0.1600E+02  0.1600E+02
    -10.048  0.0000E+00  0.0000E+00  0.1600E+02  0.1600E+02
     -9.884  0.0000E+00  0.0000E+00  0.1600E+02  0.1600E+02
     -9.721  0.0000E+00  0.0000E+00  0.1600E+02  0.1600E+02
     -9.558  0.0000E+00  0.0000E+00  0.1600E+02  0.1600E+02
     -9.395  0.0000E+00  0.0000E+00  0.1600E+02  0.1600E+02
     -9.231  0.0000E+00  0.0000E+00  0.1600E+02  0.1600E+02
     -9.068  0.0000E+00  0.0000E+00  0.1600E+02  0.1600E+02
     -8.905  0.0000E+00  0.0000E+00  0.1600E+02  0.1600E+02
     -8.742  0.0000E+00  0.0000E+00  0.1600E+02  0.1600E+02
     -8.578  0.0000E+00  0.0000E+00  0.1600E+02  0.1600E+02
     -8.415  0.0000E+00  0.0000E+00  0.1600E+02  0.1600E+02
     -8.252  0.0000E+00  0.0000E+00  0.1600E+02  0.1600E+02
     -8.089  0.0000E+00  0.0000E+00  0.1600E+02  0.1600E+02
     -7.925  0.0000E+00  0.0000E+00  0.1600E+02  0.1600E+02
     -7.762  0.0000E+00  0.0000E+00  0.1600E+02  0.1600E+02
     -7.599  0.0000E+00  0.0000E+00  0.1600E+02  0.1600E+02
     -7.436  0.0000E+00  0.0000E+00  0.1600E+02  0.1600E+02
     -7.272  0.0000E+00  0.0000E+00  0.1600E+02  0.1600E+02
     -7.109  0.0000E+00  0.0000E+00  0.1600E+02  0.1600E+02
     -6.946  0.0000E+00  0.0000E+00  0.1600E+02  0.1600E+02
     -6.783  0.0000E+00  0.0000E+00  0.1600E+02  0.1600E+02
     -6.619  0.0000E+00  0.0000E+00  0.1600E+02  0.1600E+02
     -6.456  0.0000E+00  0.0000E+00  0.1600E+02  0.1600E+02
     -6.293  0.0000E+00  0.0000E+00  0.1600E+02  0.1600E+02
     -6.130  0.0000E+00  0.0000E+00  0.1600E+02  0.1600E+02
     -5.966  0.0000E+00  0.0000E+00  0.1600E+02  0.1600E+02
     -5.803  0.0000E+00  0.0000E+00  0.1600E+02  0.1600E+02
     -5.640  0.0000E+00  0.0000E+00  0.1600E+02  0.1600E+02
     -5.477  0.0000E+00  0.0000E+00  0.1600E+02  0.1600E+02
     -5.313  0.0000E+00  0.0000E+00  0.1600E+02  0.1600E+02
     -5.150  0.0000E+00  0.0000E+00  0.1600E+02  0.1600E+02
     -4.987  0.0000E+00  0.0000E+00  0.1600E+02  0.1600E+02
     -4.824  0.0000E+00  0.0000E+00  0.1600E+02  0.1600E+02
     -4.660  0.0000E+00  0.0000E+00  0.1600E+02  0.1600E+02
     -4.497  0.0000E+00  0.0000E+00  0.1600E+02  0.1600E+02
     -4.334  0.0000E+00  0.0000E+00  0.1600E+02  0.1600E+02
     -4.171  0.0000E+00  0.0000E+00  0.1600E+02  0.1600E+02
     -4.007  0.0000E+00  0.0000E+00  0.1600E+02  0.1600E+02
     -3.844  0.0000E+00  0.0000E+00  0.1600E+02  0.1600E+02
     -3.681  0.0000E+00  0.0000E+00  0.1600E+02  0.1600E+02
     -3.518  0.0000E+00  0.0000E+00  0.1600E+02  0.1600E+02
     -3.354  0.0000E+00  0.0000E+00  0.1600E+02  0.1600E+02
     -3.191  0.0000E+00  0.0000E+00  0.1600E+02  0.1600E+02
     -3.028  0.0000E+00  0.0000E+00  0.1600E+02  0.1600E+02
     -2.865  0.0000E+00  0.0000E+00  0.1600E+02  0.1600E+02
     -2.701  0.0000E+00  0.0000E+00  0.1600E+02  0.1600E+02
     -2.538  0.3928E-05  0.3942E-05  0.1600E+02  0.1600E+02
     -2.375  0.1408E-03  0.1413E-03  0.1600E+02  0.1600E+02
     -2.212  0.3578E-02  0.3591E-02  0.1600E+02  0.1600E+02
     -2.048  0.5853E-01  0.5868E-01  0.1601E+02  0.1601E+02
     -1.885  0.2403E+00  0.2405E+00  0.1605E+02  0.1605E+02
     -1.722  0.4369E+00  0.4372E+00  0.1612E+02  0.1612E+02
     -1.559  0.5246E+00  0.5248E+00  0.1621E+02  0.1621E+02
     -1.395  0.6591E+00  0.6591E+00  0.1631E+02  0.1631E+02
     -1.232  0.6286E+00  0.6286E+00  0.1642E+02  0.1642E+02
     -1.069  0.6448E+00  0.6449E+00  0.1652E+02  0.1652E+02
     -0.906  0.8024E+00  0.8023E+00  0.1665E+02  0.1665E+02
     -0.742  0.8570E+00  0.8569E+00  0.1679E+02  0.1679E+02
     -0.579  0.9258E+00  0.9259E+00  0.1695E+02  0.1695E+02
     -0.416  0.1080E+01  0.1080E+01  0.1712E+02  0.1712E+02
     -0.253  0.1140E+01  0.1140E+01  0.1731E+02  0.1731E+02
     -0.089  0.1208E+01  0.1207E+01  0.1751E+02  0.1751E+02
      0.074  0.1288E+01  0.1288E+01  0.1772E+02  0.1772E+02
      0.237  0.1586E+01  0.1586E+01  0.1798E+02  0.1798E+02
      0.400  0.1578E+01  0.1577E+01  0.1824E+02  0.1824E+02
      0.564  0.1618E+01  0.1617E+01  0.1850E+02  0.1850E+02
      0.727  0.1656E+01  0.1656E+01  0.1877E+02  0.1877E+02
      0.890  0.1693E+01  0.1693E+01  0.1905E+02  0.1905E+02
      1.053  0.1656E+01  0.1656E+01  0.1932E+02  0.1932E+02
      1.217  0.1660E+01  0.1660E+01  0.1959E+02  0.1959E+02
      1.380  0.1629E+01  0.1628E+01  0.1986E+02  0.1986E+02
      1.543  0.1826E+01  0.1828E+01  0.2016E+02  0.2016E+02
      1.706  0.1940E+01  0.1941E+01  0.2047E+02  0.2047E+02
      1.870  0.1647E+01  0.1647E+01  0.2074E+02  0.2074E+02
      2.033  0.1566E+01  0.1566E+01  0.2100E+02  0.2100E+02
      2.196  0.1657E+01  0.1658E+01  0.2127E+02  0.2127E+02
      2.359  0.1817E+01  0.1817E+01  0.2157E+02  0.2157E+02
      2.523  0.1899E+01  0.1899E+01  0.2188E+02  0.2188E+02
      2.686  0.1851E+01  0.1851E+01  0.2218E+02  0.2218E+02
      2.849  0.1586E+01  0.1587E+01  0.2244E+02  0.2244E+02
      3.012  0.1860E+01  0.1860E+01  0.2275E+02  0.2275E+02
      3.176  0.2005E+01  0.2006E+01  0.2307E+02  0.2307E+02
      3.339  0.2328E+01  0.2329E+01  0.2345E+02  0.2345E+02
      3.502  0.2329E+01  0.2329E+01  0.2383E+02  0.2384E+02
      3.665  0.2662E+01  0.2663E+01  0.2427E+02  0.2427E+02
      3.829  0.2403E+01  0.2401E+01  0.2466E+02  0.2466E+02
      3.992  0.2198E+01  0.2198E+01  0.2502E+02  0.2502E+02
      4.155  0.2356E+01  0.2355E+01  0.2541E+02  0.2541E+02
      4.318  0.2265E+01  0.2266E+01  0.2578E+02  0.2578E+02
      4.482  0.2512E+01  0.2513E+01  0.2619E+02  0.2619E+02
      4.645  0.2443E+01  0.2439E+01  0.2659E+02  0.2659E+02
      4.808  0.2195E+01  0.2196E+01  0.2695E+02  0.2695E+02
      4.971  0.2390E+01  0.2390E+01  0.2734E+02  0.2734E+02
      5.135  0.2245E+01  0.2247E+01  0.2771E+02  0.2771E+02
      5.298  0.2678E+01  0.2679E+01  0.2815E+02  0.2815E+02
      5.461  0.3068E+01  0.3068E+01  0.2865E+02  0.2865E+02
      5.624  0.3120E+01  0.3121E+01  0.2916E+02  0.2916E+02
      5.788  0.3370E+01  0.3371E+01  0.2971E+02  0.2971E+02
      5.951  0.3212E+01  0.3213E+01  0.3024E+02  0.3024E+02
      6.114  0.3710E+01  0.3713E+01  0.3084E+02  0.3085E+02
      6.277  0.4954E+01  0.4955E+01  0.3165E+02  0.3166E+02
      6.441  0.4429E+01  0.4426E+01  0.3238E+02  0.3238E+02
      6.604  0.4890E+01  0.4889E+01  0.3318E+02  0.3318E+02
      6.767  0.3762E+01  0.3759E+01  0.3380E+02  0.3380E+02
      6.930  0.3177E+01  0.3178E+01  0.3432E+02  0.3432E+02
      7.094  0.3237E+01  0.3235E+01  0.3485E+02  0.3485E+02
      7.257  0.2823E+01  0.2823E+01  0.3531E+02  0.3531E+02
      7.420  0.2278E+01  0.2278E+01  0.3568E+02  0.3568E+02
      7.583  0.2490E+01  0.2493E+01  0.3609E+02  0.3609E+02
      7.747  0.2950E+01  0.2955E+01  0.3657E+02  0.3657E+02
      7.910  0.3854E+01  0.3854E+01  0.3720E+02  0.3720E+02
      8.073  0.3130E+01  0.3128E+01  0.3771E+02  0.3771E+02
      8.236  0.3321E+01  0.3321E+01  0.3826E+02  0.3826E+02
      8.400  0.2965E+01  0.2962E+01  0.3874E+02  0.3874E+02
      8.563  0.2943E+01  0.2945E+01  0.3922E+02  0.3923E+02
      8.726  0.3557E+01  0.3554E+01  0.3981E+02  0.3981E+02
      8.889  0.3567E+01  0.3568E+01  0.4039E+02  0.4039E+02
      9.053  0.3218E+01  0.3213E+01  0.4092E+02  0.4092E+02
      9.216  0.2640E+01  0.2640E+01  0.4135E+02  0.4135E+02
      9.379  0.2434E+01  0.2433E+01  0.4175E+02  0.4175E+02
      9.543  0.2595E+01  0.2595E+01  0.4217E+02  0.4217E+02
      9.706  0.3031E+01  0.3032E+01  0.4267E+02  0.4267E+02
      9.869  0.3223E+01  0.3224E+01  0.4320E+02  0.4320E+02
     10.032  0.3212E+01  0.3212E+01  0.4372E+02  0.4372E+02
     10.196  0.3082E+01  0.3081E+01  0.4423E+02  0.4423E+02
     10.359  0.2575E+01  0.2576E+01  0.4465E+02  0.4465E+02
     10.522  0.3111E+01  0.3110E+01  0.4516E+02  0.4516E+02
     10.685  0.3064E+01  0.3058E+01  0.4566E+02  0.4566E+02
     10.849  0.3877E+01  0.3860E+01  0.4629E+02  0.4629E+02
     11.012  0.3894E+01  0.3886E+01  0.4693E+02  0.4693E+02
     11.175  0.4436E+01  0.4353E+01  0.4766E+02  0.4764E+02
     11.338  0.4362E+01  0.4401E+01  0.4837E+02  0.4836E+02
     11.502  0.3346E+01  0.3372E+01  0.4892E+02  0.4891E+02
     11.665  0.3441E+01  0.3408E+01  0.4948E+02  0.4947E+02
     11.828  0.2957E+01  0.3000E+01  0.4997E+02  0.4996E+02
     11.991  0.2929E+01  0.2775E+01  0.5045E+02  0.5042E+02
     12.155  0.1808E+01  0.1857E+01  0.5074E+02  0.5072E+02
     12.318  0.1604E+01  0.1677E+01  0.5100E+02  0.5099E+02
     12.481  0.1831E+01  0.1846E+01  0.5130E+02  0.5130E+02
     12.644  0.1234E+01  0.1271E+01  0.5151E+02  0.5150E+02
     12.808  0.9520E+00  0.1076E+01  0.5166E+02  0.5168E+02
     12.971  0.9986E+00  0.7649E+00  0.5183E+02  0.5181E+02
     13.134  0.7385E+00  0.6383E+00  0.5195E+02  0.5191E+02
     13.297  0.2911E+00  0.3931E+00  0.5199E+02  0.5198E+02
     13.461  0.2804E-01  0.1280E+00  0.5200E+02  0.5200E+02
     13.624  0.4783E-03  0.1188E-01  0.5200E+02  0.5200E+02
     13.787  0.0000E+00  0.0000E+00  0.5200E+02  0.5200E+02
     13.950  0.0000E+00  0.0000E+00  0.5200E+02  0.5200E+02
     14.114  0.0000E+00  0.0000E+00  0.5200E+02  0.5200E+02
     14.277  0.0000E+00  0.0000E+00  0.5200E+02  0.5200E+02
     14.440  0.0000E+00  0.0000E+00  0.5200E+02  0.5200E+02
     14.603  0.0000E+00  0.0000E+00  0.5200E+02  0.5200E+02
     14.767  0.0000E+00  0.0000E+00  0.5200E+02  0.5200E+02
     14.930  0.0000E+00  0.0000E+00  0.5200E+02  0.5200E+02
     15.093  0.0000E+00  0.0000E+00  0.5200E+02  0.5200E+02
     15.256  0.0000E+00  0.0000E+00  0.5200E+02  0.5200E+02
     15.420  0.0000E+00  0.0000E+00  0.5200E+02  0.5200E+02
     15.583  0.0000E+00  0.0000E+00  0.5200E+02  0.5200E+02
     15.58278182    -33.39246555  301      8.15930442      1.00000000
    -33.392  0.0000E+00  0.0000E+00  0.0000E+00  0.0000E+00  0.0000E+00  0.0000E+00  0.0000E+00  0.0000E+00  0.0000E+00  0.0000E+00  0.0000E+00  0.0000E+00  0.0000E+00  0.0000E+00  0.0000E+00  0.0000E+00  0.0000E+00  0.0000E+00
    -33.229  0.0000E+00  0.0000E+00  0.0000E+00  0.0000E+00  0.0000E+00  0.0000E+00  0.0000E+00  0.0000E+00  0.0000E+00  0.0000E+00  0.0000E+00  0.0000E+00  0.0000E+00  0.0000E+00  0.0000E+00  0.0000E+00  0.0000E+00  0.0000E+00
    -33.066  0.0000E+00  0.0000E+00  0.0000E+00  0.0000E+00  0.0000E+00  0.0000E+00  0.0000E+00  0.0000E+00  0.0000E+00  0.0000E+00  0.0000E+00  0.0000E+00  0.0000E+00  0.0000E+00  0.0000E+00  0.0000E+00  0.0000E+00  0.0000E+00
    -32.903  0.0000E+00  0.0000E+00  0.0000E+00  0.0000E+00  0.0000E+00  0.0000E+00  0.0000E+00  0.0000E+00  0.0000E+00  0.0000E+00  0.0000E+00  0.0000E+00  0.0000E+00  0.0000E+00  0.0000E+00  0.0000E+00  0.0000E+00  0.0000E+00
    -32.739  0.0000E+00  0.0000E+00  0.0000E+00  0.0000E+00  0.0000E+00  0.0000E+00  0.0000E+00  0.0000E+00  0.0000E+00  0.0000E+00  0.0000E+00  0.0000E+00  0.0000E+00  0.0000E+00  0.0000E+00  0.0000E+00  0.0000E+00  0.0000E+00
    -32.576  0.0000E+00  0.0000E+00  0.0000E+00  0.0000E+00  0.0000E+00  0.0000E+00  0.0000E+00  0.0000E+00  0.0000E+00  0.0000E+00  0.0000E+00  0.0000E+00  0.0000E+00  0.0000E+00  0.0000E+00  0.0000E+00  0.0000E+00  0.0000E+00
    -32.413  0.0000E+00  0.0000E+00  0.0000E+00  0.0000E+00  0.0000E+00  0.0000E+00  0.0000E+00  0.0000E+00  0.0000E+00  0.0000E+00  0.0000E+00  0.0000E+00  0.0000E+00  0.0000E+00  0.0000E+00  0.0000E+00  0.0000E+00  0.0000E+00
    -32.250  0.0000E+00  0.0000E+00  0.0000E+00  0.0000E+00  0.0000E+00  0.0000E+00  0.0000E+00  0.0000E+00  0.0000E+00  0.0000E+00  0.0000E+00  0.0000E+00  0.0000E+00  0.0000E+00  0.0000E+00  0.0000E+00  0.0000E+00  0.0000E+00
    -32.086  0.0000E+00  0.0000E+00  0.0000E+00  0.0000E+00  0.0000E+00  0.0000E+00  0.0000E+00  0.0000E+00  0.0000E+00  0.0000E+00  0.0000E+00  0.0000E+00  0.0000E+00  0.0000E+00  0.0000E+00  0.0000E+00  0.0000E+00  0.0000E+00
    -31.923  0.0000E+00  0.0000E+00  0.0000E+00  0.0000E+00  0.0000E+00  0.0000E+00  0.0000E+00  0.0000E+00  0.0000E+00  0.0000E+00  0.0000E+00  0.0000E+00  0.0000E+00  0.0000E+00  0.0000E+00  0.0000E+00  0.0000E+00  0.0000E+00
    -31.760  0.0000E+00  0.0000E+00  0.0000E+00  0.0000E+00  0.0000E+00  0.0000E+00  0.0000E+00  0.0000E+00  0.0000E+00  0.0000E+00  0.0000E+00  0.0000E+00  0.0000E+00  0.0000E+00  0.0000E+00  0.0000E+00  0.0000E+00  0.0000E+00
    -31.597  0.8842E-03  0.9001E-03  0.6061E-10  0.6178E-10  0.4152E-09  0.4223E-09  0.6061E-10  0.6178E-10  0.3430E-13  0.4070E-13  0.1006E-12  0.1186E-12  0.5551E-09  0.5715E-09  0.1006E-12  0.1186E-12  0.3851E-10  0.3884E-10
    -31.433  0.2218E-01  0.2258E-01  0.1520E-08  0.1550E-08  0.1042E-07  0.1059E-07  0.1520E-08  0.1550E-08  0.8603E-12  0.1021E-11  0.2524E-11  0.2976E-11  0.1392E-07  0.1433E-07  0.2524E-11  0.2976E-11  0.9661E-09  0.9741E-09
    -31.270  0.5273E+00  0.5359E+00  0.3614E-07  0.3677E-07  0.2484E-06  0.2522E-06  0.3614E-07  0.3677E-07  0.2048E-10  0.2428E-10  0.6005E-10  0.7066E-10  0.3310E-06  0.3402E-06  0.6005E-10  0.7066E-10  0.2298E-07  0.2313E-07
    -31.107  0.3809E+01  0.3821E+01  0.2603E-06  0.2615E-06  0.1838E-05  0.1842E-05  0.2603E-06  0.2615E-06  0.1493E-09  0.1756E-09  0.4352E-09  0.5049E-09  0.2392E-05  0.2427E-05  0.4352E-09  0.5049E-09  0.1663E-06  0.1652E-06
    -30.944  0.1576E+01  0.1556E+01  0.1073E-06  0.1061E-06  0.7827E-06  0.7717E-06  0.1073E-06  0.1061E-06  0.6241E-10  0.7274E-10  0.1805E-09  0.2058E-09  0.9897E-06  0.9883E-06  0.1805E-09  0.2058E-09  0.6874E-07  0.6723E-07
    -30.780  0.8329E-01  0.8183E-01  0.5658E-08  0.5568E-08  0.4172E-07  0.4092E-07  0.5658E-08  0.5568E-08  0.3308E-11  0.3843E-11  0.9537E-11  0.1081E-10  0.5229E-07  0.5196E-07  0.9537E-11  0.1081E-10  0.3628E-08  0.3531E-08
    -30.617  0.0000E+00  0.0000E+00  0.0000E+00  0.0000E+00  0.0000E+00  0.0000E+00  0.0000E+00  0.0000E+00  0.0000E+00  0.0000E+00  0.0000E+00  0.0000E+00  0.0000E+00  0.0000E+00  0.0000E+00  0.0000E+00  0.0000E+00  0.0000E+00
    -30.454  0.0000E+00  0.0000E+00  0.0000E+00  0.0000E+00  0.0000E+00  0.0000E+00  0.0000E+00  0.0000E+00  0.0000E+00  0.0000E+00  0.0000E+00  0.0000E+00  0.0000E+00  0.0000E+00  0.0000E+00  0.0000E+00  0.0000E+00  0.0000E+00
    -30.291  0.0000E+00  0.0000E+00  0.0000E+00  0.0000E+00  0.0000E+00  0.0000E+00  0.0000E+00  0.0000E+00  0.0000E+00  0.0000E+00  0.0000E+00  0.0000E+00  0.0000E+00  0.0000E+00  0.0000E+00  0.0000E+00  0.0000E+00  0.0000E+00
    -30.127  0.0000E+00  0.0000E+00  0.0000E+00  0.0000E+00  0.0000E+00  0.0000E+00  0.0000E+00  0.0000E+00  0.0000E+00  0.0000E+00  0.0000E+00  0.0000E+00  0.0000E+00  0.0000E+00  0.0000E+00  0.0000E+00  0.0000E+00  0.0000E+00
    -29.964  0.0000E+00  0.0000E+00  0.0000E+00  0.0000E+00  0.0000E+00  0.0000E+00  0.0000E+00  0.0000E+00  0.0000E+00  0.0000E+00  0.0000E+00  0.0000E+00  0.0000E+00  0.0000E+00  0.0000E+00  0.0000E+00  0.0000E+00  0.0000E+00
    -29.801  0.0000E+00  0.0000E+00  0.0000E+00  0.0000E+00  0.0000E+00  0.0000E+00  0.0000E+00  0.0000E+00  0.0000E+00  0.0000E+00  0.0000E+00  0.0000E+00  0.0000E+00  0.0000E+00  0.0000E+00  0.0000E+00  0.0000E+00  0.0000E+00
    -29.638  0.0000E+00  0.0000E+00  0.0000E+00  0.0000E+00  0.0000E+00  0.0000E+00  0.0000E+00  0.0000E+00  0.0000E+00  0.0000E+00  0.0000E+00  0.0000E+00  0.0000E+00  0.0000E+00  0.0000E+00  0.0000E+00  0.0000E+00  0.0000E+00
    -29.474  0.0000E+00  0.0000E+00  0.0000E+00  0.0000E+00  0.0000E+00  0.0000E+00  0.0000E+00  0.0000E+00  0.0000E+00  0.0000E+00  0.0000E+00  0.0000E+00  0.0000E+00  0.0000E+00  0.0000E+00  0.0000E+00  0.0000E+00  0.0000E+00
    -29.311  0.0000E+00  0.0000E+00  0.0000E+00  0.0000E+00  0.0000E+00  0.0000E+00  0.0000E+00  0.0000E+00  0.0000E+00  0.0000E+00  0.0000E+00  0.0000E+00  0.0000E+00  0.0000E+00  0.0000E+00  0.0000E+00  0.0000E+00  0.0000E+00
    -29.148  0.0000E+00  0.0000E+00  0.0000E+00  0.0000E+00  0.0000E+00  0.0000E+00  0.0000E+00  0.0000E+00  0.0000E+00  0.0000E+00  0.0000E+00  0.0000E+00  0.0000E+00  0.0000E+00  0.0000E+00  0.0000E+00  0.0000E+00  0.0000E+00
    -28.985  0.0000E+00  0.0000E+00  0.0000E+00  0.0000E+00  0.0000E+00  0.0000E+00  0.0000E+00  0.0000E+00  0.0000E+00  0.0000E+00  0.0000E+00  0.0000E+00  0.0000E+00  0.0000E+00  0.0000E+00  0.0000E+00  0.0000E+00  0.0000E+00
    -28.821  0.0000E+00  0.0000E+00  0.0000E+00  0.0000E+00  0.0000E+00  0.0000E+00  0.0000E+00  0.0000E+00  0.0000E+00  0.0000E+00  0.0000E+00  0.0000E+00  0.0000E+00  0.0000E+00  0.0000E+00  0.0000E+00  0.0000E+00  0.0000E+00
    -28.658  0.0000E+00  0.0000E+00  0.0000E+00  0.0000E+00  0.0000E+00  0.0000E+00  0.0000E+00  0.0000E+00  0.0000E+00  0.0000E+00  0.0000E+00  0.0000E+00  0.0000E+00  0.0000E+00  0.0000E+00  0.0000E+00  0.0000E+00  0.0000E+00
    -28.495  0.0000E+00  0.0000E+00  0.0000E+00  0.0000E+00  0.0000E+00  0.0000E+00  0.0000E+00  0.0000E+00  0.0000E+00  0.0000E+00  0.0000E+00  0.0000E+00  0.0000E+00  0.0000E+00  0.0000E+00  0.0000E+00  0.0000E+00  0.0000E+00
    -28.332  0.0000E+00  0.0000E+00  0.0000E+00  0.0000E+00  0.0000E+00  0.0000E+00  0.0000E+00  0.0000E+00  0.0000E+00  0.0000E+00  0.0000E+00  0.0000E+00  0.0000E+00  0.0000E+00  0.0000E+00  0.0000E+00  0.0000E+00  0.0000E+00
    -28.168  0.0000E+00  0.0000E+00  0.0000E+00  0.0000E+00  0.0000E+00  0.0000E+00  0.0000E+00  0.0000E+00  0.0000E+00  0.0000E+00  0.0000E+00  0.0000E+00  0.0000E+00  0.0000E+00  0.0000E+00  0.0000E+00  0.0000E+00  0.0000E+00
    -28.005  0.0000E+00  0.0000E+00  0.0000E+00  0.0000E+00  0.0000E+00  0.0000E+00  0.0000E+00  0.0000E+00  0.0000E+00  0.0000E+00  0.0000E+00  0.0000E+00  0.0000E+00  0.0000E+00  0.0000E+00  0.0000E+00  0.0000E+00  0.0000E+00
    -27.842  0.0000E+00  0.0000E+00  0.0000E+00  0.0000E+00  0.0000E+00  0.0000E+00  0.0000E+00  0.0000E+00  0.0000E+00  0.0000E+00  0.0000E+00  0.0000E+00  0.0000E+00  0.0000E+00  0.0000E+00  0.0000E+00  0.0000E+00  0.0000E+00
    -27.679  0.0000E+00  0.0000E+00  0.0000E+00  0.0000E+00  0.0000E+00  0.0000E+00  0.0000E+00  0.0000E+00  0.0000E+00  0.0000E+00  0.0000E+00  0.0000E+00  0.0000E+00  0.0000E+00  0.0000E+00  0.0000E+00  0.0000E+00  0.0000E+00
    -27.515  0.0000E+00  0.0000E+00  0.0000E+00  0.0000E+00  0.0000E+00  0.0000E+00  0.0000E+00  0.0000E+00  0.0000E+00  0.0000E+00  0.0000E+00  0.0000E+00  0.0000E+00  0.0000E+00  0.0000E+00  0.0000E+00  0.0000E+00  0.0000E+00
    -27.352  0.0000E+00  0.0000E+00  0.0000E+00  0.0000E+00  0.0000E+00  0.0000E+00  0.0000E+00  0.0000E+00  0.0000E+00  0.0000E+00  0.0000E+00  0.0000E+00  0.0000E+00  0.0000E+00  0.0000E+00  0.0000E+00  0.0000E+00  0.0000E+00
    -27.189  0.0000E+00  0.0000E+00  0.0000E+00  0.0000E+00  0.0000E+00  0.0000E+00  0.0000E+00  0.0000E+00  0.0000E+00  0.0000E+00  0.0000E+00  0.0000E+00  0.0000E+00  0.0000E+00  0.0000E+00  0.0000E+00  0.0000E+00  0.0000E+00
    -27.026  0.0000E+00  0.0000E+00  0.0000E+00  0.0000E+00  0.0000E+00  0.0000E+00  0.0000E+00  0.0000E+00  0.0000E+00  0.0000E+00  0.0000E+00  0.0000E+00  0.0000E+00  0.0000E+00  0.0000E+00  0.0000E+00  0.0000E+00  0.0000E+00
    -26.862  0.0000E+00  0.0000E+00  0.0000E+00  0.0000E+00  0.0000E+00  0.0000E+00  0.0000E+00  0.0000E+00  0.0000E+00  0.0000E+00  0.0000E+00  0.0000E+00  0.0000E+00  0.0000E+00  0.0000E+00  0.0000E+00  0.0000E+00  0.0000E+00
    -26.699  0.0000E+00  0.0000E+00  0.0000E+00  0.0000E+00  0.0000E+00  0.0000E+00  0.0000E+00  0.0000E+00  0.0000E+00  0.0000E+00  0.0000E+00  0.0000E+00  0.0000E+00  0.0000E+00  0.0000E+00  0.0000E+00  0.0000E+00  0.0000E+00
    -26.536  0.0000E+00  0.0000E+00  0.0000E+00  0.0000E+00  0.0000E+00  0.0000E+00  0.0000E+00  0.0000E+00  0.0000E+00  0.0000E+00  0.0000E+00  0.0000E+00  0.0000E+00  0.0000E+00  0.0000E+00  0.0000E+00  0.0000E+00  0.0000E+00
    -26.373  0.0000E+00  0.0000E+00  0.0000E+00  0.0000E+00  0.0000E+00  0.0000E+00  0.0000E+00  0.0000E+00  0.0000E+00  0.0000E+00  0.0000E+00  0.0000E+00  0.0000E+00  0.0000E+00  0.0000E+00  0.0000E+00  0.0000E+00  0.0000E+00
    -26.209  0.0000E+00  0.0000E+00  0.0000E+00  0.0000E+00  0.0000E+00  0.0000E+00  0.0000E+00  0.0000E+00  0.0000E+00  0.0000E+00  0.0000E+00  0.0000E+00  0.0000E+00  0.0000E+00  0.0000E+00  0.0000E+00  0.0000E+00  0.0000E+00
    -26.046  0.0000E+00  0.0000E+00  0.0000E+00  0.0000E+00  0.0000E+00  0.0000E+00  0.0000E+00  0.0000E+00  0.0000E+00  0.0000E+00  0.0000E+00  0.0000E+00  0.0000E+00  0.0000E+00  0.0000E+00  0.0000E+00  0.0000E+00  0.0000E+00
    -25.883  0.0000E+00  0.0000E+00  0.0000E+00  0.0000E+00  0.0000E+00  0.0000E+00  0.0000E+00  0.0000E+00  0.0000E+00  0.0000E+00  0.0000E+00  0.0000E+00  0.0000E+00  0.0000E+00  0.0000E+00  0.0000E+00  0.0000E+00  0.0000E+00
    -25.720  0.0000E+00  0.0000E+00  0.0000E+00  0.0000E+00  0.0000E+00  0.0000E+00  0.0000E+00  0.0000E+00  0.0000E+00  0.0000E+00  0.0000E+00  0.0000E+00  0.0000E+00  0.0000E+00  0.0000E+00  0.0000E+00  0.0000E+00  0.0000E+00
    -25.556  0.0000E+00  0.0000E+00  0.0000E+00  0.0000E+00  0.0000E+00  0.0000E+00  0.0000E+00  0.0000E+00  0.0000E+00  0.0000E+00  0.0000E+00  0.0000E+00  0.0000E+00  0.0000E+00  0.0000E+00  0.0000E+00  0.0000E+00  0.0000E+00
    -25.393  0.0000E+00  0.0000E+00  0.0000E+00  0.0000E+00  0.0000E+00  0.0000E+00  0.0000E+00  0.0000E+00  0.0000E+00  0.0000E+00  0.0000E+00  0.0000E+00  0.0000E+00  0.0000E+00  0.0000E+00  0.0000E+00  0.0000E+00  0.0000E+00
    -25.230  0.0000E+00  0.0000E+00  0.0000E+00  0.0000E+00  0.0000E+00  0.0000E+00  0.0000E+00  0.0000E+00  0.0000E+00  0.0000E+00  0.0000E+00  0.0000E+00  0.0000E+00  0.0000E+00  0.0000E+00  0.0000E+00  0.0000E+00  0.0000E+00