  16  16   1   0
  0.2358070E+02  0.4568778E-09  0.4568778E-09  0.1807493E-08  0.5000000E-15
  1.000000000000000E-004
  CAR 
 unknown system                          
     10.81631954    -38.27235522  301      4.60889252      1.00000000
    -38.272  0.0000E+00  0.0000E+00  0.0000E+00  0.0000E+00
    -38.109  0.0000E+00  0.0000E+00  0.0000E+00  0.0000E+00
    -37.945  0.0000E+00  0.0000E+00  0.0000E+00  0.0000E+00
    -37.781  0.0000E+00  0.0000E+00  0.0000E+00  0.0000E+00
    -37.618  0.0000E+00  0.0000E+00  0.0000E+00  0.0000E+00
    -37.454  0.0000E+00  0.0000E+00  0.0000E+00  0.0000E+00
    -37.291  0.0000E+00  0.0000E+00  0.0000E+00  0.0000E+00
    -37.127  0.0000E+00  0.0000E+00  0.0000E+00  0.0000E+00
    -36.963  0.0000E+00  0.0000E+00  0.0000E+00  0.0000E+00
    -36.800  0.0000E+00  0.0000E+00  0.0000E+00  0.0000E+00
    -36.636  0.0000E+00  0.0000E+00  0.0000E+00  0.0000E+00
    -36.472  0.4271E-02  0.4296E-02  0.6988E-03  0.7030E-03
    -36.309  0.1079E+00  0.1085E+00  0.1835E-01  0.1846E-01
    -36.145  0.2538E+01  0.2551E+01  0.4336E+00  0.4359E+00
    -35.982  0.1599E+02  0.1600E+02  0.3049E+01  0.3054E+01
    -35.818  0.5525E+01  0.5500E+01  0.3953E+01  0.3954E+01
    -35.654  0.2746E+00  0.2730E+00  0.3998E+01  0.3998E+01
    -35.491  0.0000E+00  0.0000E+00  0.4000E+01  0.4000E+01
    -35.327  0.0000E+00  0.0000E+00  0.4000E+01  0.4000E+01
    -35.163  0.0000E+00  0.0000E+00  0.4000E+01  0.4000E+01
    -35.000  0.0000E+00  0.0000E+00  0.4000E+01  0.4000E+01
    -34.836  0.0000E+00  0.0000E+00  0.4000E+01  0.4000E+01
    -34.673  0.0000E+00  0.0000E+00  0.4000E+01  0.4000E+01
    -34.509  0.0000E+00  0.0000E+00  0.4000E+01  0.4000E+01
    -34.345  0.0000E+00  0.0000E+00  0.4000E+01  0.4000E+01
    -34.182  0.0000E+00  0.0000E+00  0.4000E+01  0.4000E+01
    -34.018  0.0000E+00  0.0000E+00  0.4000E+01  0.4000E+01
    -33.854  0.0000E+00  0.0000E+00  0.4000E+01  0.4000E+01
    -33.691  0.0000E+00  0.0000E+00  0.4000E+01  0.4000E+01
    -33.527  0.0000E+00  0.0000E+00  0.4000E+01  0.4000E+01
    -33.363  0.0000E+00  0.0000E+00  0.4000E+01  0.4000E+01
    -33.200  0.0000E+00  0.0000E+00  0.4000E+01  0.4000E+01
    -33.036  0.0000E+00  0.0000E+00  0.4000E+01  0.4000E+01
    -32.873  0.0000E+00  0.0000E+00  0.4000E+01  0.4000E+01
    -32.709  0.0000E+00  0.0000E+00  0.4000E+01  0.4000E+01
    -32.545  0.0000E+00  0.0000E+00  0.4000E+01  0.4000E+01
    -32.382  0.0000E+00  0.0000E+00  0.4000E+01  0.4000E+01
    -32.218  0.0000E+00  0.0000E+00  0.4000E+01  0.4000E+01
    -32.054  0.0000E+00  0.0000E+00  0.4000E+01  0.4000E+01
    -31.891  0.0000E+00  0.0000E+00  0.4000E+01  0.4000E+01
    -31.727  0.0000E+00  0.0000E+00  0.4000E+01  0.4000E+01
    -31.564  0.0000E+00  0.0000E+00  0.4000E+01  0.4000E+01
    -31.400  0.0000E+00  0.0000E+00  0.4000E+01  0.4000E+01
    -31.236  0.0000E+00  0.0000E+00  0.4000E+01  0.4000E+01
    -31.073  0.0000E+00  0.0000E+00  0.4000E+01  0.4000E+01
    -30.909  0.0000E+00  0.0000E+00  0.4000E+01  0.4000E+01
    -30.745  0.0000E+00  0.0000E+00  0.4000E+01  0.4000E+01
    -30.582  0.0000E+00  0.0000E+00  0.4000E+01  0.4000E+01
    -30.418  0.0000E+00  0.0000E+00  0.4000E+01  0.4000E+01
    -30.255  0.0000E+00  0.0000E+00  0.4000E+01  0.4000E+01
    -30.091  0.0000E+00  0.0000E+00  0.4000E+01  0.4000E+01
    -29.927  0.0000E+00  0.0000E+00  0.4000E+01  0.4000E+01
    -29.764  0.0000E+00  0.0000E+00  0.4000E+01  0.4000E+01
    -29.600  0.0000E+00  0.0000E+00  0.4000E+01  0.4000E+01
    -29.436  0.0000E+00  0.0000E+00  0.4000E+01  0.4000E+01
    -29.273  0.0000E+00  0.0000E+00  0.4000E+01  0.4000E+01
    -29.109  0.0000E+00  0.0000E+00  0.4000E+01  0.4000E+01
    -28.946  0.0000E+00  0.0000E+00  0.4000E+01  0.4000E+01
    -28.782  0.0000E+00  0.0000E+00  0.4000E+01  0.4000E+01
    -28.618  0.0000E+00  0.0000E+00  0.4000E+01  0.4000E+01
    -28.455  0.0000E+00  0.0000E+00  0.4000E+01  0.4000E+01
    -28.291  0.0000E+00  0.0000E+00  0.4000E+01  0.4000E+01
    -28.127  0.0000E+00  0.0000E+00  0.4000E+01  0.4000E+01
    -27.964  0.0000E+00  0.0000E+00  0.4000E+01  0.4000E+01
    -27.800  0.0000E+00  0.0000E+00  0.4000E+01  0.4000E+01
    -27.636  0.0000E+00  0.0000E+00  0.4000E+01  0.4000E+01
    -27.473  0.0000E+00  0.0000E+00  0.4000E+01  0.4000E+01
    -27.309  0.0000E+00  0.0000E+00  0.4000E+01  0.4000E+01
    -27.146  0.0000E+00  0.0000E+00  0.4000E+01  0.4000E+01
    -26.982  0.0000E+00  0.0000E+00  0.4000E+01  0.4000E+01
    -26.818  0.0000E+00  0.0000E+00  0.4000E+01  0.4000E+01
    -26.655  0.0000E+00  0.0000E+00  0.4000E+01  0.4000E+01
    -26.491  0.0000E+00  0.0000E+00  0.4000E+01  0.4000E+01
    -26.327  0.0000E+00  0.0000E+00  0.4000E+01  0.4000E+01
    -26.164  0.0000E+00  0.0000E+00  0.4000E+01  0.4000E+01
    -26.000  0.0000E+00  0.0000E+00  0.4000E+01  0.4000E+01
    -25.837  0.0000E+00  0.0000E+00  0.4000E+01  0.4000E+01
    -25.673  0.0000E+00  0.0000E+00  0.4000E+01  0.4000E+01
    -25.509  0.0000E+00  0.0000E+00  0.4000E+01  0.4000E+01
    -25.346  0.0000E+00  0.0000E+00  0.4000E+01  0.4000E+01
    -25.182  0.0000E+00  0.0000E+00  0.4000E+01  0.4000E+01
    -25.018  0.0000E+00  0.0000E+00  0.4000E+01  0.4000E+01
    -24.855  0.0000E+00  0.0000E+00  0.4000E+01  0.4000E+01
    -24.691  0.0000E+00  0.0000E+00  0.4000E+01  0.4000E+01
    -24.528  0.0000E+00  0.0000E+00  0.4000E+01  0.4000E+01
    -24.364  0.0000E+00  0.0000E+00  0.4000E+01  0.4000E+01
    -24.200  0.0000E+00  0.0000E+00  0.4000E+01  0.4000E+01
    -24.037  0.0000E+00  0.0000E+00  0.4000E+01  0.4000E+01
    -23.873  0.0000E+00  0.0000E+00  0.4000E+01  0.4000E+01
    -23.709  0.0000E+00  0.0000E+00  0.4000E+01  0.4000E+01
    -23.546  0.0000E+00  0.0000E+00  0.4000E+01  0.4000E+01
    -23.382  0.0000E+00  0.0000E+00  0.4000E+01  0.4000E+01
    -23.218  0.0000E+00  0.0000E+00  0.4000E+01  0.4000E+01
    -23.055  0.0000E+00  0.0000E+00  0.4000E+01  0.4000E+01
    -22.891  0.0000E+00  0.0000E+00  0.4000E+01  0.4000E+01
    -22.728  0.0000E+00  0.0000E+00  0.4000E+01  0.4000E+01
    -22.564  0.0000E+00  0.0000E+00  0.4000E+01  0.4000E+01
    -22.400  0.0000E+00  0.0000E+00  0.4000E+01  0.4000E+01
    -22.237  0.0000E+00  0.0000E+00  0.4000E+01  0.4000E+01
    -22.073  0.0000E+00  0.0000E+00  0.4000E+01  0.4000E+01
    -21.909  0.0000E+00  0.0000E+00  0.4000E+01  0.4000E+01
    -21.746  0.0000E+00  0.0000E+00  0.4000E+01  0.4000E+01
    -21.582  0.0000E+00  0.0000E+00  0.4000E+01  0.4000E+01
    -21.419  0.0000E+00  0.0000E+00  0.4000E+01  0.4000E+01
    -21.255  0.0000E+00  0.0000E+00  0.4000E+01  0.4000E+01
    -21.091  0.0000E+00  0.0000E+00  0.4000E+01  0.4000E+01
    -20.928  0.0000E+00  0.0000E+00  0.4000E+01  0.4000E+01
    -20.764  0.0000E+00  0.0000E+00  0.4000E+01  0.4000E+01
    -20.600  0.0000E+00  0.0000E+00  0.4000E+01  0.4000E+01
    -20.437  0.0000E+00  0.0000E+00  0.4000E+01  0.4000E+01
    -20.273  0.0000E+00  0.0000E+00  0.4000E+01  0.4000E+01
    -20.110  0.0000E+00  0.0000E+00  0.4000E+01  0.4000E+01
    -19.946  0.0000E+00  0.0000E+00  0.4000E+01  0.4000E+01
    -19.782  0.0000E+00  0.0000E+00  0.4000E+01  0.4000E+01
    -19.619  0.0000E+00  0.0000E+00  0.4000E+01  0.4000E+01
    -19.455  0.0000E+00  0.0000E+00  0.4000E+01  0.4000E+01
    -19.291  0.0000E+00  0.0000E+00  0.4000E+01  0.4000E+01
    -19.128  0.0000E+00  0.0000E+00  0.4000E+01  0.4000E+01
    -18.964  0.0000E+00  0.0000E+00  0.4000E+01  0.4000E+01
    -18.801  0.0000E+00  0.0000E+00  0.4000E+01  0.4000E+01
    -18.637  0.0000E+00  0.0000E+00  0.4000E+01  0.4000E+01
    -18.473  0.0000E+00  0.0000E+00  0.4000E+01  0.4000E+01
    -18.310  0.0000E+00  0.0000E+00  0.4000E+01  0.4000E+01
    -18.146  0.0000E+00  0.0000E+00  0.4000E+01  0.4000E+01
    -17.982  0.0000E+00  0.0000E+00  0.4000E+01  0.4000E+01
    -17.819  0.0000E+00  0.0000E+00  0.4000E+01  0.4000E+01
    -17.655  0.1327E-02  0.1336E-02  0.4000E+01  0.4000E+01
    -17.491  0.3533E-01  0.3547E-01  0.4006E+01  0.4006E+01
    -17.328  0.9172E+00  0.9209E+00  0.4156E+01  0.4157E+01
    -17.164  0.1769E+02  0.1775E+02  0.7051E+01  0.7061E+01
    -17.001  0.4703E+02  0.4701E+02  0.1475E+02  0.1475E+02
    -16.837  0.7330E+01  0.7302E+01  0.1595E+02  0.1595E+02
    -16.673  0.0000E+00  0.0000E+00  0.1600E+02  0.1600E+02
    -16.510  0.0000E+00  0.0000E+00  0.1600E+02  0.1600E+02
    -16.346  0.0000E+00  0.0000E+00  0.1600E+02  0.1600E+02
    -16.182  0.0000E+00  0.0000E+00  0.1600E+02  0.1600E+02
    -16.019  0.0000E+00  0.0000E+00  0.1600E+02  0.1600E+02
    -15.855  0.0000E+00  0.0000E+00  0.1600E+02  0.1600E+02
    -15.692  0.0000E+00  0.0000E+00  0.1600E+02  0.1600E+02
    -15.528  0.0000E+00  0.0000E+00  0.1600E+02  0.1600E+02
    -15.364  0.0000E+00  0.0000E+00  0.1600E+02  0.1600E+02
    -15.201  0.0000E+00  0.0000E+00  0.1600E+02  0.1600E+02
    -15.037  0.0000E+00  0.0000E+00  0.1600E+02  0.1600E+02
    -14.873  0.0000E+00  0.0000E+00  0.1600E+02  0.1600E+02
    -14.710  0.0000E+00  0.0000E+00  0.1600E+02  0.1600E+02
    -14.546  0.0000E+00  0.0000E+00  0.1600E+02  0.1600E+02
    -14.383  0.0000E+00  0.0000E+00  0.1600E+02  0.1600E+02
    -14.219  0.0000E+00  0.0000E+00  0.1600E+02  0.1600E+02
    -14.055  0.0000E+00  0.0000E+00  0.1600E+02  0.1600E+02
    -13.892  0.0000E+00  0.0000E+00  0.1600E+02  0.1600E+02
    -13.728  0.0000E+00  0.0000E+00  0.1600E+02  0.1600E+02
    -13.564  0.0000E+00  0.0000E+00  0.1600E+02  0.1600E+02
    -13.401  0.0000E+00  0.0000E+00  0.1600E+02  0.1600E+02
    -13.237  0.0000E+00  0.0000E+00  0.1600E+02  0.1600E+02
    -13.074  0.0000E+00  0.0000E+00  0.1600E+02  0.1600E+02
    -12.910  0.0000E+00  0.0000E+00  0.1600E+02  0.1600E+02
    -12.746  0.0000E+00  0.0000E+00  0.1600E+02  0.1600E+02
    -12.583  0.0000E+00  0.0000E+00  0.1600E+02  0.1600E+02
    -12.419  0.0000E+00  0.0000E+00  0.1600E+02  0.1600E+02
    -12.255  0.0000E+00  0.0000E+00  0.1600E+02  0.1600E+02
    -12.092  0.0000E+00  0.0000E+00  0.1600E+02  0.1600E+02
    -11.928  0.0000E+00  0.0000E+00  0.1600E+02  0.1600E+02
    -11.764  0.0000E+00  0.0000E+00  0.1600E+02  0.1600E+02
    -11.601  0.0000E+00  0.0000E+00  0.1600E+02  0.1600E+02
    -11.437  0.0000E+00  0.0000E+00  0.1600E+02  0.1600E+02
    -11.274  0.0000E+00  0.0000E+00  0.1600E+02  0.1600E+02
    -11.110  0.0000E+00  0.0000E+00  0.1600E+02  0.1600E+02
    -10.946  0.0000E+00  0.0000E+00  0.1600E+02  0.1600E+02
    -10.783  0.0000E+00  0.0000E+00  0.1600E+02  0.1600E+02
    -10.619  0.0000E+00  0.0000E+00  0.1600E+02  0.1600E+02
    -10.455  0.0000E+00  0.0000E+00  0.1600E+02  0.1600E+02
    -10.292  0.0000E+00  0.0000E+00  0.1600E+02  0.1600E+02
    -10.128  0.0000E+00  0.0000E+00  0.1600E+02  0.1600E+02
     -9.965  0.0000E+00  0.0000E+00  0.1600E+02  0.1600E+02
     -9.801  0.0000E+00  0.0000E+00  0.1600E+02  0.1600E+02
     -9.637  0.0000E+00  0.0000E+00  0.1600E+02  0.1600E+02
     -9.474  0.0000E+00  0.0000E+00  0.1600E+02  0.1600E+02
     -9.310  0.0000E+00  0.0000E+00  0.1600E+02  0.1600E+02
     -9.146  0.0000E+00  0.0000E+00  0.1600E+02  0.1600E+02
     -8.983  0.0000E+00  0.0000E+00  0.1600E+02  0.1600E+02
     -8.819  0.0000E+00  0.0000E+00  0.1600E+02  0.1600E+02
     -8.656  0.0000E+00  0.0000E+00  0.1600E+02  0.1600E+02
     -8.492  0.0000E+00  0.0000E+00  0.1600E+02  0.1600E+02
     -8.328  0.0000E+00  0.0000E+00  0.1600E+02  0.1600E+02
     -8.165  0.0000E+00  0.0000E+00  0.1600E+02  0.1600E+02
     -8.001  0.0000E+00  0.0000E+00  0.1600E+02  0.1600E+02
     -7.837  0.0000E+00  0.0000E+00  0.1600E+02  0.1600E+02
     -7.674  0.0000E+00  0.0000E+00  0.1600E+02  0.1600E+02
     -7.510  0.0000E+00  0.0000E+00  0.1600E+02  0.1600E+02
     -7.346  0.0000E+00  0.0000E+00  0.1600E+02  0.1600E+02
     -7.183  0.0000E+00  0.0000E+00  0.1600E+02  0.1600E+02
     -7.019  0.0000E+00  0.0000E+00  0.1600E+02  0.1600E+02
     -6.856  0.0000E+00  0.0000E+00  0.1600E+02  0.1600E+02
     -6.692  0.0000E+00  0.0000E+00  0.1600E+02  0.1600E+02
     -6.528  0.0000E+00  0.0000E+00  0.1600E+02  0.1600E+02
     -6.365  0.0000E+00  0.0000E+00  0.1600E+02  0.1600E+02
     -6.201  0.0000E+00  0.0000E+00  0.1600E+02  0.1600E+02
     -6.037  0.0000E+00  0.0000E+00  0.1600E+02  0.1600E+02
     -5.874  0.0000E+00  0.0000E+00  0.1600E+02  0.1600E+02
     -5.710  0.0000E+00  0.0000E+00  0.1600E+02  0.1600E+02
     -5.547  0.0000E+00  0.0000E+00  0.1600E+02  0.1600E+02
     -5.383  0.0000E+00  0.0000E+00  0.1600E+02  0.1600E+02
     -5.219  0.0000E+00  0.0000E+00  0.1600E+02  0.1600E+02
     -5.056  0.0000E+00  0.0000E+00  0.1600E+02  0.1600E+02
     -4.892  0.0000E+00  0.0000E+00  0.1600E+02  0.1600E+02
     -4.728  0.0000E+00  0.0000E+00  0.1600E+02  0.1600E+02
     -4.565  0.0000E+00  0.0000E+00  0.1600E+02  0.1600E+02
     -4.401  0.0000E+00  0.0000E+00  0.1600E+02  0.1600E+02
     -4.238  0.0000E+00  0.0000E+00  0.1600E+02  0.1600E+02
     -4.074  0.7800E-05  0.7797E-05  0.1600E+02  0.1600E+02
     -3.910  0.2434E-03  0.2433E-03  0.1600E+02  0.1600E+02
     -3.747  0.6240E-02  0.6237E-02  0.1600E+02  0.1600E+02
     -3.583  0.1051E+00  0.1050E+00  0.1602E+02  0.1602E+02
     -3.419  0.4501E+00  0.4501E+00  0.1609E+02  0.1609E+02
     -3.256  0.7608E+00  0.7608E+00  0.1622E+02  0.1622E+02
     -3.092  0.8997E+00  0.8996E+00  0.1636E+02  0.1636E+02
     -2.929  0.9095E+00  0.9093E+00  0.1651E+02  0.1651E+02
     -2.765  0.1098E+01  0.1098E+01  0.1669E+02  0.1669E+02
     -2.601  0.1223E+01  0.1223E+01  0.1689E+02  0.1689E+02
     -2.438  0.1455E+01  0.1454E+01  0.1713E+02  0.1713E+02
     -2.274  0.1585E+01  0.1584E+01  0.1739E+02  0.1739E+02
     -2.110  0.1749E+01  0.1748E+01  0.1768E+02  0.1768E+02
     -1.947  0.2050E+01  0.2049E+01  0.1801E+02  0.1801E+02
     -1.783  0.2038E+01  0.2038E+01  0.1835E+02  0.1835E+02
     -1.619  0.2083E+01  0.2083E+01  0.1869E+02  0.1869E+02
     -1.456  0.1997E+01  0.1997E+01  0.1902E+02  0.1902E+02
     -1.292  0.1811E+01  0.1812E+01  0.1932E+02  0.1932E+02
     -1.129  0.1741E+01  0.1741E+01  0.1960E+02  0.1960E+02
     -0.965  0.1951E+01  0.1950E+01  0.1992E+02  0.1992E+02
     -0.801  0.2793E+01  0.2792E+01  0.2038E+02  0.2038E+02
     -0.638  0.2581E+01  0.2582E+01  0.2080E+02  0.2080E+02
     -0.474  0.2410E+01  0.2411E+01  0.2120E+02  0.2120E+02
     -0.310  0.2390E+01  0.2390E+01  0.2159E+02  0.2159E+02
     -0.147  0.2723E+01  0.2723E+01  0.2204E+02  0.2204E+02
      0.017  0.2284E+01  0.2285E+01  0.2241E+02  0.2241E+02
      0.180  0.2261E+01  0.2261E+01  0.2278E+02  0.2278E+02
      0.344  0.3091E+01  0.3092E+01  0.2329E+02  0.2329E+02
      0.508  0.3172E+01  0.3172E+01  0.2381E+02  0.2381E+02
      0.671  0.2811E+01  0.2811E+01  0.2427E+02  0.2427E+02
      0.835  0.3123E+01  0.3123E+01  0.2478E+02  0.2478E+02
      0.999  0.2937E+01  0.2936E+01  0.2527E+02  0.2527E+02
      1.162  0.2418E+01  0.2418E+01  0.2566E+02  0.2566E+02
      1.326  0.2340E+01  0.2340E+01  0.2605E+02  0.2605E+02
      1.489  0.2372E+01  0.2372E+01  0.2644E+02  0.2644E+02
      1.653  0.2573E+01  0.2573E+01  0.2686E+02  0.2686E+02
      1.817  0.1990E+01  0.1991E+01  0.2718E+02  0.2718E+02
      1.980  0.1978E+01  0.1977E+01  0.2751E+02  0.2751E+02
      2.144  0.2690E+01  0.2691E+01  0.2795E+02  0.2795E+02
      2.308  0.3343E+01  0.3343E+01  0.2850E+02  0.2850E+02
      2.471  0.3545E+01  0.3545E+01  0.2908E+02  0.2908E+02
      2.635  0.3729E+01  0.3731E+01  0.2969E+02  0.2969E+02
      2.799  0.3924E+01  0.3924E+01  0.3033E+02  0.3033E+02
      2.962  0.3858E+01  0.3856E+01  0.3097E+02  0.3097E+02
      3.126  0.4837E+01  0.4837E+01  0.3176E+02  0.3176E+02
      3.289  0.4725E+01  0.4724E+01  0.3253E+02  0.3253E+02
      3.453  0.4849E+01  0.4848E+01  0.3333E+02  0.3333E+02
      3.617  0.4173E+01  0.4173E+01  0.3401E+02  0.3401E+02
      3.780  0.3836E+01  0.3837E+01  0.3464E+02  0.3464E+02
      3.944  0.3903E+01  0.3904E+01  0.3528E+02  0.3528E+02
      4.108  0.3910E+01  0.3913E+01  0.3593E+02  0.3593E+02
      4.271  0.4154E+01  0.4155E+01  0.3661E+02  0.3661E+02
      4.435  0.4243E+01  0.4242E+01  0.3730E+02  0.3730E+02
      4.598  0.3973E+01  0.3974E+01  0.3796E+02  0.3796E+02
      4.762  0.4344E+01  0.4344E+01  0.3867E+02  0.3867E+02
      4.926  0.4288E+01  0.4289E+01  0.3937E+02  0.3937E+02
      5.089  0.4864E+01  0.4862E+01  0.4017E+02  0.4017E+02
      5.253  0.4469E+01  0.4469E+01  0.4090E+02  0.4090E+02
      5.417  0.4162E+01  0.4161E+01  0.4158E+02  0.4159E+02
      5.580  0.4098E+01  0.4098E+01  0.4226E+02  0.4226E+02
      5.744  0.3985E+01  0.3985E+01  0.4291E+02  0.4291E+02
      5.907  0.3860E+01  0.3860E+01  0.4354E+02  0.4354E+02
      6.071  0.3744E+01  0.3743E+01  0.4416E+02  0.4416E+02
      6.235  0.3852E+01  0.3853E+01  0.4479E+02  0.4479E+02
      6.398  0.4387E+01  0.4386E+01  0.4551E+02  0.4551E+02
      6.562  0.4887E+01  0.4884E+01  0.4631E+02  0.4631E+02
      6.726  0.4901E+01  0.4891E+01  0.4711E+02  0.4711E+02
      6.889  0.4860E+01  0.4807E+01  0.4791E+02  0.4790E+02
      7.053  0.5871E+01  0.5855E+01  0.4887E+02  0.4886E+02
      7.216  0.4864E+01  0.4824E+01  0.4967E+02  0.4965E+02
      7.380  0.4065E+01  0.3802E+01  0.5034E+02  0.5028E+02
      7.544  0.3084E+01  0.3083E+01  0.5085E+02  0.5079E+02
      7.707  0.2089E+01  0.2152E+01  0.5119E+02  0.5114E+02
      7.871  0.1570E+01  0.1829E+01  0.5145E+02  0.5144E+02
      8.035  0.1366E+01  0.1415E+01  0.5167E+02  0.5167E+02
      8.198  0.9379E+00  0.9184E+00  0.5183E+02  0.5182E+02
      8.362  0.4445E+00  0.5568E+00  0.5190E+02  0.5192E+02
      8.526  0.3478E+00  0.3404E+00  0.5196E+02  0.5197E+02
      8.689  0.2179E+00  0.1572E+00  0.5200E+02  0.5200E+02
      8.853  0.2450E-01  0.1064E-01  0.5200E+02  0.5200E+02
      9.016  0.0000E+00  0.0000E+00  0.5200E+02  0.5200E+02
      9.180  0.0000E+00  0.0000E+00  0.5200E+02  0.5200E+02
      9.344  0.0000E+00  0.0000E+00  0.5200E+02  0.5200E+02
      9.507  0.0000E+00  0.0000E+00  0.5200E+02  0.5200E+02
      9.671  0.0000E+00  0.0000E+00  0.5200E+02  0.5200E+02
      9.835  0.0000E+00  0.0000E+00  0.5200E+02  0.5200E+02
      9.998  0.0000E+00  0.0000E+00  0.5200E+02  0.5200E+02
     10.162  0.0000E+00  0.0000E+00  0.5200E+02  0.5200E+02
     10.325  0.0000E+00  0.0000E+00  0.5200E+02  0.5200E+02
     10.489  0.0000E+00  0.0000E+00  0.5200E+02  0.5200E+02
     10.653  0.0000E+00  0.0000E+00  0.5200E+02  0.5200E+02
     10.816  0.0000E+00  0.0000E+00  0.5200E+02  0.5200E+02
     10.81631954    -38.27235522  301      4.60889252      1.00000000
    -38.272  0.0000E+00  0.0000E+00  0.0000E+00  0.0000E+00  0.0000E+00  0.0000E+00  0.0000E+00  0.0000E+00  0.0000E+00  0.0000E+00  0.0000E+00  0.0000E+00  0.0000E+00  0.0000E+00  0.0000E+00  0.0000E+00  0.0000E+00  0.0000E+00
    -38.109  0.0000E+00  0.0000E+00  0.0000E+00  0.0000E+00  0.0000E+00  0.0000E+00  0.0000E+00  0.0000E+00  0.0000E+00  0.0000E+00  0.0000E+00  0.0000E+00  0.0000E+00  0.0000E+00  0.0000E+00  0.0000E+00  0.0000E+00  0.0000E+00
    -37.945  0.0000E+00  0.0000E+00  0.0000E+00  0.0000E+00  0.0000E+00  0.0000E+00  0.0000E+00  0.0000E+00  0.0000E+00  0.0000E+00  0.0000E+00  0.0000E+00  0.0000E+00  0.0000E+00  0.0000E+00  0.0000E+00  0.0000E+00  0.0000E+00
    -37.781  0.0000E+00  0.0000E+00  0.0000E+00  0.0000E+00  0.0000E+00  0.0000E+00  0.0000E+00  0.0000E+00  0.0000E+00  0.0000E+00  0.0000E+00  0.0000E+00  0.0000E+00  0.0000E+00  0.0000E+00  0.0000E+00  0.0000E+00  0.0000E+00
    -37.618  0.0000E+00  0.0000E+00  0.0000E+00  0.0000E+00  0.0000E+00  0.0000E+00  0.0000E+00  0.0000E+00  0.0000E+00  0.0000E+00  0.0000E+00  0.0000E+00  0.0000E+00  0.0000E+00  0.0000E+00  0.0000E+00  0.0000E+00  0.0000E+00
    -37.454  0.0000E+00  0.0000E+00  0.0000E+00  0.0000E+00  0.0000E+00  0.0000E+00  0.0000E+00  0.0000E+00  0.0000E+00  0.0000E+00  0.0000E+00  0.0000E+00  0.0000E+00  0.0000E+00  0.0000E+00  0.0000E+00  0.0000E+00  0.0000E+00
    -37.291  0.0000E+00  0.0000E+00  0.0000E+00  0.0000E+00  0.0000E+00  0.0000E+00  0.0000E+00  0.0000E+00  0.0000E+00  0.0000E+00  0.0000E+00  0.0000E+00  0.0000E+00  0.0000E+00  0.0000E+00  0.0000E+00  0.0000E+00  0.0000E+00
    -37.127  0.0000E+00  0.0000E+00  0.0000E+00  0.0000E+00  0.0000E+00  0.0000E+00  0.0000E+00  0.0000E+00  0.0000E+00  0.0000E+00  0.0000E+00  0.0000E+00  0.0000E+00  0.0000E+00  0.0000E+00  0.0000E+00  0.0000E+00  0.0000E+00
    -36.963  0.0000E+00  0.0000E+00  0.0000E+00  0.0000E+00  0.0000E+00  0.0000E+00  0.0000E+00  0.0000E+00  0.0000E+00  0.0000E+00  0.0000E+00  0.0000E+00  0.0000E+00  0.0000E+00  0.0000E+00  0.0000E+00  0.0000E+00  0.0000E+00
    -36.800  0.0000E+00  0.0000E+00  0.0000E+00  0.0000E+00  0.0000E+00  0.0000E+00  0.0000E+00  0.0000E+00  0.0000E+00  0.0000E+00  0.0000E+00  0.0000E+00  0.0000E+00  0.0000E+00  0.0000E+00  0.0000E+00  0.0000E+00  0.0000E+00
    -36.636  0.0000E+00  0.0000E+00  0.0000E+00  0.0000E+00  0.0000E+00  0.0000E+00  0.0000E+00  0.0000E+00  0.0000E+00  0.0000E+00  0.0000E+00  0.0000E+00  0.0000E+00  0.0000E+00  0.0000E+00  0.0000E+00  0.0000E+00  0.0000E+00
    -36.472  0.1052E-02  0.1058E-02  0.6152E-12  0.6249E-12  0.6050E-09  0.6129E-09  0.6152E-12  0.6249E-12  0.2526E-15  0.4020E-15  0.7932E-15  0.7874E-15  0.1292E-09  0.1289E-09  0.7932E-15  0.7874E-15  0.4368E-12  0.4494E-12
    -36.309  0.2658E-01  0.2674E-01  0.1554E-10  0.1579E-10  0.1528E-07  0.1548E-07  0.1554E-10  0.1579E-10  0.6381E-14  0.1015E-13  0.2004E-13  0.1989E-13  0.3263E-08  0.3257E-08  0.2004E-13  0.1989E-13  0.1104E-10  0.1135E-10
    -36.145  0.6253E+00  0.6286E+00  0.3656E-09  0.3711E-09  0.3595E-06  0.3640E-06  0.3656E-09  0.3711E-09  0.1501E-12  0.2388E-12  0.4714E-12  0.4678E-12  0.7675E-07  0.7657E-07  0.4714E-12  0.4678E-12  0.2596E-09  0.2669E-09
    -35.982  0.3939E+01  0.3941E+01  0.2302E-08  0.2327E-08  0.2265E-05  0.2283E-05  0.2302E-08  0.2327E-08  0.9455E-12  0.1501E-11  0.2970E-11  0.2941E-11  0.4834E-06  0.4801E-06  0.2970E-11  0.2941E-11  0.1635E-08  0.1674E-08
    -35.818  0.1361E+01  0.1355E+01  0.7953E-09  0.7997E-09  0.7830E-06  0.7852E-06  0.7953E-09  0.7997E-09  0.3268E-12  0.5173E-12  0.1027E-11  0.1014E-11  0.1670E-06  0.1651E-06  0.1027E-11  0.1014E-11  0.5651E-09  0.5754E-09
    -35.654  0.6766E-01  0.6726E-01  0.3953E-10  0.3969E-10  0.3892E-07  0.3898E-07  0.3953E-10  0.3969E-10  0.1624E-13  0.2570E-13  0.5104E-13  0.5037E-13  0.8303E-08  0.8193E-08  0.5104E-13  0.5037E-13  0.2809E-10  0.2856E-10
    -35.491  0.0000E+00  0.0000E+00  0.0000E+00  0.0000E+00  0.0000E+00  0.0000E+00  0.0000E+00  0.0000E+00  0.0000E+00  0.0000E+00  0.0000E+00  0.0000E+00  0.0000E+00  0.0000E+00  0.0000E+00  0.0000E+00  0.0000E+00  0.0000E+00
    -35.327  0.0000E+00  0.0000E+00  0.0000E+00  0.0000E+00  0.0000E+00  0.0000E+00  0.0000E+00  0.0000E+00  0.0000E+00  0.0000E+00  0.0000E+00  0.0000E+00  0.0000E+00  0.0000E+00  0.0000E+00  0.0000E+00  0.0000E+00  0.0000E+00
    -35.163  0.0000E+00  0.0000E+00  0.0000E+00  0.0000E+00  0.0000E+00  0.0000E+00  0.0000E+00  0.0000E+00  0.0000E+00  0.0000E+00  0.0000E+00  0.0000E+00  0.0000E+00  0.0000E+00  0.0000E+00  0.0000E+00  0.0000E+00  0.0000E+00
    -35.000  0.0000E+00  0.0000E+00  0.0000E+00  0.0000E+00  0.0000E+00  0.0000E+00  0.0000E+00  0.0000E+00  0.0000E+00  0.0000E+00  0.0000E+00  0.0000E+00  0.0000E+00  0.0000E+00  0.0000E+00  0.0000E+00  0.0000E+00  0.0000E+00
    -34.836  0.0000E+00  0.0000E+00  0.0000E+00  0.0000E+00  0.0000E+00  0.0000E+00  0.0000E+00  0.0000E+00  0.0000E+00  0.0000E+00  0.0000E+00  0.0000E+00  0.0000E+00  0.0000E+00  0.0000E+00  0.0000E+00  0.0000E+00  0.0000E+00
    -34.673  0.0000E+00  0.0000E+00  0.0000E+00  0.0000E+00  0.0000E+00  0.0000E+00  0.0000E+00  0.0000E+00  0.0000E+00  0.0000E+00  0.0000E+00  0.0000E+00  0.0000E+00  0.0000E+00  0.0000E+00  0.0000E+00  0.0000E+00  0.0000E+00
    -34.509  0.0000E+00  0.0000E+00  0.0000E+00  0.0000E+00  0.0000E+00  0.0000E+00  0.0000E+00  0.0000E+00  0.0000E+00  0.0000E+00  0.0000E+00  0.0000E+00  0.0000E+00  0.0000E+00  0.0000E+00  0.0000E+00  0.0000E+00  0.0000E+00
    -34.345  0.0000E+00  0.0000E+00  0.0000E+00  0.0000E+00  0.0000E+00  0.0000E+00  0.0000E+00  0.0000E+00  0.0000E+00  0.0000E+00  0.0000E+00  0.0000E+00  0.0000E+00  0.0000E+00  0.0000E+00  0.0000E+00  0.0000E+00  0.0000E+00
    -34.182  0.0000E+00  0.0000E+00  0.0000E+00  0.0000E+00  0.0000E+00  0.0000E+00  0.0000E+00  0.0000E+00  0.0000E+00  0.0000E+00  0.0000E+00  0.0000E+00  0.0000E+00  0.0000E+00  0.0000E+00  0.0000E+00  0.0000E+00  0.0000E+00
    -34.018  0.0000E+00  0.0000E+00  0.0000E+00  0.0000E+00  0.0000E+00  0.0000E+00  0.0000E+00  0.0000E+00  0.0000E+00  0.0000E+00  0.0000E+00  0.0000E+00  0.0000E+00  0.0000E+00  0.0000E+00  0.0000E+00  0.0000E+00  0.0000E+00
    -33.854  0.0000E+00  0.0000E+00  0.0000E+00  0.0000E+00  0.0000E+00  0.0000E+00  0.0000E+00  0.0000E+00  0.0000E+00  0.0000E+00  0.0000E+00  0.0000E+00  0.0000E+00  0.0000E+00  0.0000E+00  0.0000E+00  0.0000E+00  0.0000E+00
    -33.691  0.0000E+00  0.0000E+00  0.0000E+00  0.0000E+00  0.0000E+00  0.0000E+00  0.0000E+00  0.0000E+00  0.0000E+00  0.0000E+00  0.0000E+00  0.0000E+00  0.0000E+00  0.0000E+00  0.0000E+00  0.0000E+00  0.0000E+00  0.0000E+00
    -33.527  0.0000E+00  0.0000E+00  0.0000E+00  0.0000E+00  0.0000E+00  0.0000E+00  0.0000E+00  0.0000E+00  0.0000E+00  0.0000E+00  0.0000E+00  0.0000E+00  0.0000E+00  0.0000E+00  0.0000E+00  0.0000E+00  0.0000E+00  0.0000E+00
    -33.363  0.0000E+00  0.0000E+00  0.0000E+00  0.0000E+00  0.0000E+00  0.0000E+00  0.0000E+00  0.0000E+00  0.0000E+00  0.0000E+00  0.0000E+00  0.0000E+00  0.0000E+00  0.0000E+00  0.0000E+00  0.0000E+00  0.0000E+00  0.0000E+00
    -33.200  0.0000E+00  0.0000E+00  0.0000E+00  0.0000E+00  0.0000E+00  0.0000E+00  0.0000E+00  0.0000E+00  0.0000E+00  0.0000E+00  0.0000E+00  0.0000E+00  0.0000E+00  0.0000E+00  0.0000E+00  0.0000E+00  0.0000E+00  0.0000E+00
    -33.036  0.0000E+00  0.0000E+00  0.0000E+00  0.0000E+00  0.0000E+00  0.0000E+00  0.0000E+00  0.0000E+00  0.0000E+00  0.0000E+00  0.0000E+00  0.0000E+00  0.0000E+00  0.0000E+00  0.0000E+00  0.0000E+00  0.0000E+00  0.0000E+00
    -32.873  0.0000E+00  0.0000E+00  0.0000E+00  0.0000E+00  0.0000E+00  0.0000E+00  0.0000E+00  0.0000E+00  0.0000E+00  0.0000E+00  0.0000E+00  0.0000E+00  0.0000E+00  0.0000E+00  0.0000E+00  0.0000E+00  0.0000E+00  0.0000E+00
    -32.709  0.0000E+00  0.0000E+00  0.0000E+00  0.0000E+00  0.0000E+00  0.0000E+00  0.0000E+00  0.0000E+00  0.0000E+00  0.0000E+00  0.0000E+00  0.0000E+00  0.0000E+00  0.0000E+00  0.0000E+00  0.0000E+00  0.0000E+00  0.0000E+00
    -32.545  0.0000E+00  0.0000E+00  0.0000E+00  0.0000E+00  0.0000E+00  0.0000E+00  0.0000E+00  0.0000E+00  0.0000E+00  0.0000E+00  0.0000E+00  0.0000E+00  0.0000E+00  0.0000E+00  0.0000E+00  0.0000E+00  0.0000E+00  0.0000E+00
    -32.382  0.0000E+00  0.0000E+00  0.0000E+00  0.0000E+00  0.0000E+00  0.0000E+00  0.0000E+00  0.0000E+00  0.0000E+00  0.0000E+00  0.0000E+00  0.0000E+00  0.0000E+00  0.0000E+00  0.0000E+00  0.0000E+00  0.0000E+00  0.0000E+00
    -32.218  0.0000E+00  0.0000E+00  0.0000E+00  0.0000E+00  0.0000E+00  0.0000E+00  0.0000E+00  0.0000E+00  0.0000E+00  0.0000E+00  0.0000E+00  0.0000E+00  0.0000E+00  0.0000E+00  0.0000E+00  0.0000E+00  0.0000E+00  0.0000E+00
    -32.054  0.0000E+00  0.0000E+00  0.0000E+00  0.0000E+00  0.0000E+00  0.0000E+00  0.0000E+00  0.0000E+00  0.0000E+00  0.0000E+00  0.0000E+00  0.0000E+00  0.0000E+00  0.0000E+00  0.0000E+00  0.0000E+00  0.0000E+00  0.0000E+00
    -31.891  0.0000E+00  0.0000E+00  0.0000E+00  0.0000E+00  0.0000E+00  0.0000E+00  0.0000E+00  0.0000E+00  0.0000E+00  0.0000E+00  0.0000E+00  0.0000E+00  0.0000E+00  0.0000E+00  0.0000E+00  0.0000E+00  0.0000E+00  0.0000E+00
    -31.727  0.0000E+00  0.0000E+00  0.0000E+00  0.0000E+00  0.0000E+00  0.0000E+00  0.0000E+00  0.0000E+00  0.0000E+00  0.0000E+00  0.0000E+00  0.0000E+00  0.0000E+00  0.0000E+00  0.0000E+00  0.0000E+00  0.0000E+00  0.0000E+00
    -31.564  0.0000E+00  0.0000E+00  0.0000E+00  0.0000E+00  0.0000E+00  0.0000E+00  0.0000E+00  0.0000E+00  0.0000E+00  0.0000E+00  0.0000E+00  0.0000E+00  0.0000E+00  0.0000E+00  0.0000E+00  0.0000E+00  0.0000E+00  0.0000E+00
    -31.400  0.0000E+00  0.0000E+00  0.0000E+00  0.0000E+00  0.0000E+00  0.0000E+00  0.0000E+00  0.0000E+00  0.0000E+00  0.0000E+00  0.0000E+00  0.0000E+00  0.0000E+00  0.0000E+00  0.0000E+00  0.0000E+00  0.0000E+00  0.0000E+00
    -31.236  0.0000E+00  0.0000E+00  0.0000E+00  0.0000E+00  0.0000E+00  0.0000E+00  0.0000E+00  0.0000E+00  0.0000E+00  0.0000E+00  0.0000E+00  0.0000E+00  0.0000E+00  0.0000E+00  0.0000E+00  0.0000E+00  0.0000E+00  0.0000E+00
    -31.073  0.0000E+00  0.0000E+00  0.0000E+00  0.0000E+00  0.0000E+00  0.0000E+00  0.0000E+00  0.0000E+00  0.0000E+00  0.0000E+00  0.0000E+00  0.0000E+00  0.0000E+00  0.0000E+00  0.0000E+00  0.0000E+00  0.0000E+00  0.0000E+00
    -30.909  0.0000E+00  0.0000E+00  0.0000E+00  0.0000E+00  0.0000E+00  0.0000E+00  0.0000E+00  0.0000E+00  0.0000E+00  0.0000E+00  0.0000E+00  0.0000E+00  0.0000E+00  0.0000E+00  0.0000E+00  0.0000E+00  0.0000E+00  0.0000E+00
    -30.745  0.0000E+00  0.0000E+00  0.0000E+00  0.0000E+00  0.0000E+00  0.0000E+00  0.0000E+00  0.0000E+00  0.0000E+00  0.0000E+00  0.0000E+00  0.0000E+00  0.0000E+00  0.0000E+00  0.0000E+00  0.0000E+00  0.0000E+00  0.0000E+00
    -30.582  0.0000E+00  0.0000E+00  0.0000E+00  0.0000E+00  0.0000E+00  0.0000E+00  0.0000E+00  0.0000E+00  0.0000E+00  0.0000E+00  0.0000E+00  0.0000E+00  0.0000E+00  0.0000E+00  0.0000E+00  0.0000E+00  0.0000E+00  0.0000E+00
    -30.418  0.0000E+00  0.0000E+00  0.0000E+00  0.0000E+00  0.0000E+00  0.0000E+00  0.0000E+00  0.0000E+00  0.0000E+00  0.0000E+00  0.0000E+00  0.0000E+00  0.0000E+00  0.0000E+00  0.0000E+00  0.0000E+00  0.0000E+00  0.0000E+00
    -30.255  0.0000E+00  0.0000E+00  0.0000E+00  0.0000E+00  0.0000E+00  0.0000E+00  0.0000E+00  0.0000E+00  0.0000E+00  0.0000E+00  0.0000E+00  0.0000E+00  0.0000E+00  0.0000E+00  0.0000E+00  0.0000E+00  0.0000E+00  0.0000E+00
    -30.091  0.0000E+00  0.0000E+00  0.0000E+00  0.0000E+00  0.0000E+00  0.0000E+00  0.0000E+00  0.0000E+00  0.0000E+00  0.0000E+00  0.0000E+00  0.0000E+00  0.0000E+00  0.0000E+00  0.0000E+00  0.0000E+00  0.0000E+00  0.0000E+00