  16  16   1   0
  0.2495399E+02  0.4655802E-09  0.4655802E-09  0.1841921E-08  0.5000000E-15
  1.000000000000000E-004
  CAR 
 unknown system                          
     10.22768760    -38.86460639  301      4.21561654      1.00000000
    -38.865  0.0000E+00  0.0000E+00  0.0000E+00  0.0000E+00
    -38.701  0.0000E+00  0.0000E+00  0.0000E+00  0.0000E+00
    -38.537  0.0000E+00  0.0000E+00  0.0000E+00  0.0000E+00
    -38.374  0.0000E+00  0.0000E+00  0.0000E+00  0.0000E+00
    -38.210  0.0000E+00  0.0000E+00  0.0000E+00  0.0000E+00
    -38.046  0.0000E+00  0.0000E+00  0.0000E+00  0.0000E+00
    -37.883  0.0000E+00  0.0000E+00  0.0000E+00  0.0000E+00
    -37.719  0.0000E+00  0.0000E+00  0.0000E+00  0.0000E+00
    -37.555  0.0000E+00  0.0000E+00  0.0000E+00  0.0000E+00
    -37.392  0.0000E+00  0.0000E+00  0.0000E+00  0.0000E+00
    -37.228  0.0000E+00  0.0000E+00  0.0000E+00  0.0000E+00
    -37.065  0.4295E-02  0.4316E-02  0.7028E-03  0.7063E-03
    -36.901  0.1085E+00  0.1091E+00  0.1846E-01  0.1855E-01
    -36.737  0.2552E+01  0.2563E+01  0.4360E+00  0.4380E+00
    -36.574  0.1600E+02  0.1601E+02  0.3054E+01  0.3058E+01
    -36.410  0.5498E+01  0.5477E+01  0.3954E+01  0.3954E+01
    -36.246  0.2728E+00  0.2714E+00  0.3998E+01  0.3998E+01
    -36.083  0.0000E+00  0.0000E+00  0.4000E+01  0.4000E+01
    -35.919  0.0000E+00  0.0000E+00  0.4000E+01  0.4000E+01
    -35.755  0.0000E+00  0.0000E+00  0.4000E+01  0.4000E+01
    -35.592  0.0000E+00  0.0000E+00  0.4000E+01  0.4000E+01
    -35.428  0.0000E+00  0.0000E+00  0.4000E+01  0.4000E+01
    -35.265  0.0000E+00  0.0000E+00  0.4000E+01  0.4000E+01
    -35.101  0.0000E+00  0.0000E+00  0.4000E+01  0.4000E+01
    -34.937  0.0000E+00  0.0000E+00  0.4000E+01  0.4000E+01
    -34.774  0.0000E+00  0.0000E+00  0.4000E+01  0.4000E+01
    -34.610  0.0000E+00  0.0000E+00  0.4000E+01  0.4000E+01
    -34.446  0.0000E+00  0.0000E+00  0.4000E+01  0.4000E+01
    -34.283  0.0000E+00  0.0000E+00  0.4000E+01  0.4000E+01
    -34.119  0.0000E+00  0.0000E+00  0.4000E+01  0.4000E+01
    -33.955  0.0000E+00  0.0000E+00  0.4000E+01  0.4000E+01
    -33.792  0.0000E+00  0.0000E+00  0.4000E+01  0.4000E+01
    -33.628  0.0000E+00  0.0000E+00  0.4000E+01  0.4000E+01
    -33.464  0.0000E+00  0.0000E+00  0.4000E+01  0.4000E+01
    -33.301  0.0000E+00  0.0000E+00  0.4000E+01  0.4000E+01
    -33.137  0.0000E+00  0.0000E+00  0.4000E+01  0.4000E+01
    -32.974  0.0000E+00  0.0000E+00  0.4000E+01  0.4000E+01
    -32.810  0.0000E+00  0.0000E+00  0.4000E+01  0.4000E+01
    -32.646  0.0000E+00  0.0000E+00  0.4000E+01  0.4000E+01
    -32.483  0.0000E+00  0.0000E+00  0.4000E+01  0.4000E+01
    -32.319  0.0000E+00  0.0000E+00  0.4000E+01  0.4000E+01
    -32.155  0.0000E+00  0.0000E+00  0.4000E+01  0.4000E+01
    -31.992  0.0000E+00  0.0000E+00  0.4000E+01  0.4000E+01
    -31.828  0.0000E+00  0.0000E+00  0.4000E+01  0.4000E+01
    -31.664  0.0000E+00  0.0000E+00  0.4000E+01  0.4000E+01
    -31.501  0.0000E+00  0.0000E+00  0.4000E+01  0.4000E+01
    -31.337  0.0000E+00  0.0000E+00  0.4000E+01  0.4000E+01
    -31.173  0.0000E+00  0.0000E+00  0.4000E+01  0.4000E+01
    -31.010  0.0000E+00  0.0000E+00  0.4000E+01  0.4000E+01
    -30.846  0.0000E+00  0.0000E+00  0.4000E+01  0.4000E+01
    -30.683  0.0000E+00  0.0000E+00  0.4000E+01  0.4000E+01
    -30.519  0.0000E+00  0.0000E+00  0.4000E+01  0.4000E+01
    -30.355  0.0000E+00  0.0000E+00  0.4000E+01  0.4000E+01
    -30.192  0.0000E+00  0.0000E+00  0.4000E+01  0.4000E+01
    -30.028  0.0000E+00  0.0000E+00  0.4000E+01  0.4000E+01
    -29.864  0.0000E+00  0.0000E+00  0.4000E+01  0.4000E+01
    -29.701  0.0000E+00  0.0000E+00  0.4000E+01  0.4000E+01
    -29.537  0.0000E+00  0.0000E+00  0.4000E+01  0.4000E+01
    -29.373  0.0000E+00  0.0000E+00  0.4000E+01  0.4000E+01
    -29.210  0.0000E+00  0.0000E+00  0.4000E+01  0.4000E+01
    -29.046  0.0000E+00  0.0000E+00  0.4000E+01  0.4000E+01
    -28.883  0.0000E+00  0.0000E+00  0.4000E+01  0.4000E+01
    -28.719  0.0000E+00  0.0000E+00  0.4000E+01  0.4000E+01
    -28.555  0.0000E+00  0.0000E+00  0.4000E+01  0.4000E+01
    -28.392  0.0000E+00  0.0000E+00  0.4000E+01  0.4000E+01
    -28.228  0.0000E+00  0.0000E+00  0.4000E+01  0.4000E+01
    -28.064  0.0000E+00  0.0000E+00  0.4000E+01  0.4000E+01
    -27.901  0.0000E+00  0.0000E+00  0.4000E+01  0.4000E+01
    -27.737  0.0000E+00  0.0000E+00  0.4000E+01  0.4000E+01
    -27.573  0.0000E+00  0.0000E+00  0.4000E+01  0.4000E+01
    -27.410  0.0000E+00  0.0000E+00  0.4000E+01  0.4000E+01
    -27.246  0.0000E+00  0.0000E+00  0.4000E+01  0.4000E+01
    -27.082  0.0000E+00  0.0000E+00  0.4000E+01  0.4000E+01
    -26.919  0.0000E+00  0.0000E+00  0.4000E+01  0.4000E+01
    -26.755  0.0000E+00  0.0000E+00  0.4000E+01  0.4000E+01
    -26.592  0.0000E+00  0.0000E+00  0.4000E+01  0.4000E+01
    -26.428  0.0000E+00  0.0000E+00  0.4000E+01  0.4000E+01
    -26.264  0.0000E+00  0.0000E+00  0.4000E+01  0.4000E+01
    -26.101  0.0000E+00  0.0000E+00  0.4000E+01  0.4000E+01
    -25.937  0.0000E+00  0.0000E+00  0.4000E+01  0.4000E+01
    -25.773  0.0000E+00  0.0000E+00  0.4000E+01  0.4000E+01
    -25.610  0.0000E+00  0.0000E+00  0.4000E+01  0.4000E+01
    -25.446  0.0000E+00  0.0000E+00  0.4000E+01  0.4000E+01
    -25.282  0.0000E+00  0.0000E+00  0.4000E+01  0.4000E+01
    -25.119  0.0000E+00  0.0000E+00  0.4000E+01  0.4000E+01
    -24.955  0.0000E+00  0.0000E+00  0.4000E+01  0.4000E+01
    -24.791  0.0000E+00  0.0000E+00  0.4000E+01  0.4000E+01
    -24.628  0.0000E+00  0.0000E+00  0.4000E+01  0.4000E+01
    -24.464  0.0000E+00  0.0000E+00  0.4000E+01  0.4000E+01
    -24.301  0.0000E+00  0.0000E+00  0.4000E+01  0.4000E+01
    -24.137  0.0000E+00  0.0000E+00  0.4000E+01  0.4000E+01
    -23.973  0.0000E+00  0.0000E+00  0.4000E+01  0.4000E+01
    -23.810  0.0000E+00  0.0000E+00  0.4000E+01  0.4000E+01
    -23.646  0.0000E+00  0.0000E+00  0.4000E+01  0.4000E+01
    -23.482  0.0000E+00  0.0000E+00  0.4000E+01  0.4000E+01
    -23.319  0.0000E+00  0.0000E+00  0.4000E+01  0.4000E+01
    -23.155  0.0000E+00  0.0000E+00  0.4000E+01  0.4000E+01
    -22.991  0.0000E+00  0.0000E+00  0.4000E+01  0.4000E+01
    -22.828  0.0000E+00  0.0000E+00  0.4000E+01  0.4000E+01
    -22.664  0.0000E+00  0.0000E+00  0.4000E+01  0.4000E+01
    -22.501  0.0000E+00  0.0000E+00  0.4000E+01  0.4000E+01
    -22.337  0.0000E+00  0.0000E+00  0.4000E+01  0.4000E+01
    -22.173  0.0000E+00  0.0000E+00  0.4000E+01  0.4000E+01
    -22.010  0.0000E+00  0.0000E+00  0.4000E+01  0.4000E+01
    -21.846  0.0000E+00  0.0000E+00  0.4000E+01  0.4000E+01
    -21.682  0.0000E+00  0.0000E+00  0.4000E+01  0.4000E+01
    -21.519  0.0000E+00  0.0000E+00  0.4000E+01  0.4000E+01
    -21.355  0.0000E+00  0.0000E+00  0.4000E+01  0.4000E+01
    -21.191  0.0000E+00  0.0000E+00  0.4000E+01  0.4000E+01
    -21.028  0.0000E+00  0.0000E+00  0.4000E+01  0.4000E+01
    -20.864  0.0000E+00  0.0000E+00  0.4000E+01  0.4000E+01
    -20.700  0.0000E+00  0.0000E+00  0.4000E+01  0.4000E+01
    -20.537  0.0000E+00  0.0000E+00  0.4000E+01  0.4000E+01
    -20.373  0.0000E+00  0.0000E+00  0.4000E+01  0.4000E+01
    -20.210  0.0000E+00  0.0000E+00  0.4000E+01  0.4000E+01
    -20.046  0.0000E+00  0.0000E+00  0.4000E+01  0.4000E+01
    -19.882  0.0000E+00  0.0000E+00  0.4000E+01  0.4000E+01
    -19.719  0.0000E+00  0.0000E+00  0.4000E+01  0.4000E+01
    -19.555  0.0000E+00  0.0000E+00  0.4000E+01  0.4000E+01
    -19.391  0.0000E+00  0.0000E+00  0.4000E+01  0.4000E+01
    -19.228  0.0000E+00  0.0000E+00  0.4000E+01  0.4000E+01
    -19.064  0.0000E+00  0.0000E+00  0.4000E+01  0.4000E+01
    -18.900  0.0000E+00  0.0000E+00  0.4000E+01  0.4000E+01
    -18.737  0.0000E+00  0.0000E+00  0.4000E+01  0.4000E+01
    -18.573  0.0000E+00  0.0000E+00  0.4000E+01  0.4000E+01
    -18.409  0.0000E+00  0.0000E+00  0.4000E+01  0.4000E+01
    -18.246  0.4879E-03  0.4992E-03  0.4000E+01  0.4000E+01
    -18.082  0.2459E-01  0.2466E-01  0.4004E+01  0.4004E+01
    -17.919  0.6305E+00  0.6325E+00  0.4107E+01  0.4108E+01
    -17.755  0.1332E+02  0.1336E+02  0.6287E+01  0.6293E+01
    -17.591  0.4887E+02  0.4886E+02  0.1428E+02  0.1429E+02
    -17.428  0.1002E+02  0.9992E+01  0.1592E+02  0.1592E+02
    -17.264  0.0000E+00  0.0000E+00  0.1600E+02  0.1600E+02
    -17.100  0.0000E+00  0.0000E+00  0.1600E+02  0.1600E+02
    -16.937  0.0000E+00  0.0000E+00  0.1600E+02  0.1600E+02
    -16.773  0.0000E+00  0.0000E+00  0.1600E+02  0.1600E+02
    -16.609  0.0000E+00  0.0000E+00  0.1600E+02  0.1600E+02
    -16.446  0.0000E+00  0.0000E+00  0.1600E+02  0.1600E+02
    -16.282  0.0000E+00  0.0000E+00  0.1600E+02  0.1600E+02
    -16.119  0.0000E+00  0.0000E+00  0.1600E+02  0.1600E+02
    -15.955  0.0000E+00  0.0000E+00  0.1600E+02  0.1600E+02
    -15.791  0.0000E+00  0.0000E+00  0.1600E+02  0.1600E+02
    -15.628  0.0000E+00  0.0000E+00  0.1600E+02  0.1600E+02
    -15.464  0.0000E+00  0.0000E+00  0.1600E+02  0.1600E+02
    -15.300  0.0000E+00  0.0000E+00  0.1600E+02  0.1600E+02
    -15.137  0.0000E+00  0.0000E+00  0.1600E+02  0.1600E+02
    -14.973  0.0000E+00  0.0000E+00  0.1600E+02  0.1600E+02
    -14.809  0.0000E+00  0.0000E+00  0.1600E+02  0.1600E+02
    -14.646  0.0000E+00  0.0000E+00  0.1600E+02  0.1600E+02
    -14.482  0.0000E+00  0.0000E+00  0.1600E+02  0.1600E+02
    -14.318  0.0000E+00  0.0000E+00  0.1600E+02  0.1600E+02
    -14.155  0.0000E+00  0.0000E+00  0.1600E+02  0.1600E+02
    -13.991  0.0000E+00  0.0000E+00  0.1600E+02  0.1600E+02
    -13.828  0.0000E+00  0.0000E+00  0.1600E+02  0.1600E+02
    -13.664  0.0000E+00  0.0000E+00  0.1600E+02  0.1600E+02
    -13.500  0.0000E+00  0.0000E+00  0.1600E+02  0.1600E+02
    -13.337  0.0000E+00  0.0000E+00  0.1600E+02  0.1600E+02
    -13.173  0.0000E+00  0.0000E+00  0.1600E+02  0.1600E+02
    -13.009  0.0000E+00  0.0000E+00  0.1600E+02  0.1600E+02
    -12.846  0.0000E+00  0.0000E+00  0.1600E+02  0.1600E+02
    -12.682  0.0000E+00  0.0000E+00  0.1600E+02  0.1600E+02
    -12.518  0.0000E+00  0.0000E+00  0.1600E+02  0.1600E+02
    -12.355  0.0000E+00  0.0000E+00  0.1600E+02  0.1600E+02
    -12.191  0.0000E+00  0.0000E+00  0.1600E+02  0.1600E+02
    -12.027  0.0000E+00  0.0000E+00  0.1600E+02  0.1600E+02
    -11.864  0.0000E+00  0.0000E+00  0.1600E+02  0.1600E+02
    -11.700  0.0000E+00  0.0000E+00  0.1600E+02  0.1600E+02
    -11.537  0.0000E+00  0.0000E+00  0.1600E+02  0.1600E+02
    -11.373  0.0000E+00  0.0000E+00  0.1600E+02  0.1600E+02
    -11.209  0.0000E+00  0.0000E+00  0.1600E+02  0.1600E+02
    -11.046  0.0000E+00  0.0000E+00  0.1600E+02  0.1600E+02
    -10.882  0.0000E+00  0.0000E+00  0.1600E+02  0.1600E+02
    -10.718  0.0000E+00  0.0000E+00  0.1600E+02  0.1600E+02
    -10.555  0.0000E+00  0.0000E+00  0.1600E+02  0.1600E+02
    -10.391  0.0000E+00  0.0000E+00  0.1600E+02  0.1600E+02
    -10.227  0.0000E+00  0.0000E+00  0.1600E+02  0.1600E+02
    -10.064  0.0000E+00  0.0000E+00  0.1600E+02  0.1600E+02
     -9.900  0.0000E+00  0.0000E+00  0.1600E+02  0.1600E+02
     -9.737  0.0000E+00  0.0000E+00  0.1600E+02  0.1600E+02
     -9.573  0.0000E+00  0.0000E+00  0.1600E+02  0.1600E+02
     -9.409  0.0000E+00  0.0000E+00  0.1600E+02  0.1600E+02
     -9.246  0.0000E+00  0.0000E+00  0.1600E+02  0.1600E+02
     -9.082  0.0000E+00  0.0000E+00  0.1600E+02  0.1600E+02
     -8.918  0.0000E+00  0.0000E+00  0.1600E+02  0.1600E+02
     -8.755  0.0000E+00  0.0000E+00  0.1600E+02  0.1600E+02
     -8.591  0.0000E+00  0.0000E+00  0.1600E+02  0.1600E+02
     -8.427  0.0000E+00  0.0000E+00  0.1600E+02  0.1600E+02
     -8.264  0.0000E+00  0.0000E+00  0.1600E+02  0.1600E+02
     -8.100  0.0000E+00  0.0000E+00  0.1600E+02  0.1600E+02
     -7.936  0.0000E+00  0.0000E+00  0.1600E+02  0.1600E+02
     -7.773  0.0000E+00  0.0000E+00  0.1600E+02  0.1600E+02
     -7.609  0.0000E+00  0.0000E+00  0.1600E+02  0.1600E+02
     -7.446  0.0000E+00  0.0000E+00  0.1600E+02  0.1600E+02
     -7.282  0.0000E+00  0.0000E+00  0.1600E+02  0.1600E+02
     -7.118  0.0000E+00  0.0000E+00  0.1600E+02  0.1600E+02
     -6.955  0.0000E+00  0.0000E+00  0.1600E+02  0.1600E+02
     -6.791  0.0000E+00  0.0000E+00  0.1600E+02  0.1600E+02
     -6.627  0.0000E+00  0.0000E+00  0.1600E+02  0.1600E+02
     -6.464  0.0000E+00  0.0000E+00  0.1600E+02  0.1600E+02
     -6.300  0.0000E+00  0.0000E+00  0.1600E+02  0.1600E+02
     -6.136  0.0000E+00  0.0000E+00  0.1600E+02  0.1600E+02
     -5.973  0.0000E+00  0.0000E+00  0.1600E+02  0.1600E+02
     -5.809  0.0000E+00  0.0000E+00  0.1600E+02  0.1600E+02
     -5.645  0.0000E+00  0.0000E+00  0.1600E+02  0.1600E+02
     -5.482  0.0000E+00  0.0000E+00  0.1600E+02  0.1600E+02
     -5.318  0.0000E+00  0.0000E+00  0.1600E+02  0.1600E+02
     -5.155  0.0000E+00  0.0000E+00  0.1600E+02  0.1600E+02
     -4.991  0.0000E+00  0.0000E+00  0.1600E+02  0.1600E+02
     -4.827  0.0000E+00  0.0000E+00  0.1600E+02  0.1600E+02
     -4.664  0.0000E+00  0.0000E+00  0.1600E+02  0.1600E+02
     -4.500  0.0000E+00  0.0000E+00  0.1600E+02  0.1600E+02
     -4.336  0.0000E+00  0.0000E+00  0.1600E+02  0.1600E+02
     -4.173  0.1985E-04  0.1985E-04  0.1600E+02  0.1600E+02
     -4.009  0.5681E-03  0.5681E-03  0.1600E+02  0.1600E+02
     -3.845  0.1418E-01  0.1418E-01  0.1600E+02  0.1600E+02
     -3.682  0.1820E+00  0.1820E+00  0.1603E+02  0.1603E+02
     -3.518  0.5835E+00  0.5836E+00  0.1613E+02  0.1613E+02
     -3.355  0.8615E+00  0.8615E+00  0.1627E+02  0.1627E+02
     -3.191  0.9382E+00  0.9382E+00  0.1642E+02  0.1642E+02
     -3.027  0.1028E+01  0.1028E+01  0.1659E+02  0.1659E+02
     -2.864  0.1216E+01  0.1216E+01  0.1679E+02  0.1679E+02
     -2.700  0.1417E+01  0.1417E+01  0.1702E+02  0.1702E+02
     -2.536  0.1588E+01  0.1588E+01  0.1728E+02  0.1728E+02
     -2.373  0.1761E+01  0.1760E+01  0.1757E+02  0.1757E+02
     -2.209  0.2028E+01  0.2028E+01  0.1790E+02  0.1790E+02
     -2.045  0.2156E+01  0.2156E+01  0.1826E+02  0.1826E+02
     -1.882  0.2174E+01  0.2174E+01  0.1861E+02  0.1861E+02
     -1.718  0.2055E+01  0.2055E+01  0.1895E+02  0.1895E+02
     -1.554  0.1959E+01  0.1960E+01  0.1927E+02  0.1927E+02
     -1.391  0.1747E+01  0.1747E+01  0.1956E+02  0.1956E+02
     -1.227  0.1988E+01  0.1988E+01  0.1989E+02  0.1989E+02
     -1.064  0.2840E+01  0.2840E+01  0.2035E+02  0.2035E+02
     -0.900  0.2775E+01  0.2775E+01  0.2081E+02  0.2081E+02
     -0.736  0.2507E+01  0.2508E+01  0.2122E+02  0.2122E+02
     -0.573  0.2582E+01  0.2581E+01  0.2164E+02  0.2164E+02
     -0.409  0.2841E+01  0.2841E+01  0.2211E+02  0.2211E+02
     -0.245  0.2286E+01  0.2287E+01  0.2248E+02  0.2248E+02
     -0.082  0.2539E+01  0.2539E+01  0.2290E+02  0.2290E+02
      0.082  0.3298E+01  0.3300E+01  0.2344E+02  0.2344E+02
      0.246  0.3233E+01  0.3233E+01  0.2397E+02  0.2397E+02
      0.409  0.2942E+01  0.2942E+01  0.2445E+02  0.2445E+02
      0.573  0.3304E+01  0.3304E+01  0.2499E+02  0.2499E+02
      0.737  0.2808E+01  0.2807E+01  0.2546E+02  0.2545E+02
      0.900  0.2431E+01  0.2431E+01  0.2585E+02  0.2585E+02
      1.064  0.2300E+01  0.2300E+01  0.2623E+02  0.2623E+02
      1.227  0.2529E+01  0.2528E+01  0.2665E+02  0.2665E+02
      1.391  0.2360E+01  0.2360E+01  0.2703E+02  0.2703E+02
      1.555  0.1632E+01  0.1634E+01  0.2730E+02  0.2730E+02
      1.718  0.2266E+01  0.2266E+01  0.2767E+02  0.2767E+02
      1.882  0.3090E+01  0.3092E+01  0.2818E+02  0.2818E+02
      2.046  0.3208E+01  0.3208E+01  0.2871E+02  0.2871E+02
      2.209  0.3706E+01  0.3707E+01  0.2931E+02  0.2931E+02
      2.373  0.3898E+01  0.3900E+01  0.2995E+02  0.2995E+02
      2.537  0.3937E+01  0.3936E+01  0.3060E+02  0.3060E+02
      2.700  0.4154E+01  0.4153E+01  0.3128E+02  0.3128E+02
      2.864  0.4922E+01  0.4921E+01  0.3209E+02  0.3209E+02
      3.027  0.4951E+01  0.4949E+01  0.3290E+02  0.3290E+02
      3.191  0.4732E+01  0.4731E+01  0.3368E+02  0.3368E+02
      3.355  0.4132E+01  0.4133E+01  0.3435E+02  0.3435E+02
      3.518  0.4059E+01  0.4060E+01  0.3502E+02  0.3502E+02
      3.682  0.4138E+01  0.4140E+01  0.3570E+02  0.3570E+02
      3.846  0.4161E+01  0.4164E+01  0.3638E+02  0.3638E+02
      4.009  0.4659E+01  0.4658E+01  0.3715E+02  0.3715E+02
      4.173  0.4132E+01  0.4133E+01  0.3782E+02  0.3782E+02
      4.337  0.4462E+01  0.4463E+01  0.3855E+02  0.3856E+02
      4.500  0.4441E+01  0.4442E+01  0.3928E+02  0.3928E+02
      4.664  0.5048E+01  0.5047E+01  0.4011E+02  0.4011E+02
      4.828  0.4629E+01  0.4628E+01  0.4087E+02  0.4087E+02
      4.991  0.4488E+01  0.4488E+01  0.4161E+02  0.4161E+02
      5.155  0.4339E+01  0.4339E+01  0.4232E+02  0.4232E+02
      5.318  0.4134E+01  0.4133E+01  0.4300E+02  0.4300E+02
      5.482  0.3870E+01  0.3871E+01  0.4363E+02  0.4363E+02
      5.646  0.3862E+01  0.3861E+01  0.4427E+02  0.4427E+02
      5.809  0.4079E+01  0.4081E+01  0.4494E+02  0.4494E+02
      5.973  0.4989E+01  0.4988E+01  0.4575E+02  0.4575E+02
      6.137  0.5085E+01  0.5082E+01  0.4659E+02  0.4659E+02
      6.300  0.4960E+01  0.4944E+01  0.4740E+02  0.4740E+02
      6.464  0.5357E+01  0.5192E+01  0.4828E+02  0.4825E+02
      6.628  0.5840E+01  0.5868E+01  0.4924E+02  0.4921E+02
      6.791  0.4645E+01  0.4642E+01  0.5000E+02  0.4998E+02
      6.955  0.3718E+01  0.3616E+01  0.5061E+02  0.5057E+02
      7.119  0.2863E+01  0.2853E+01  0.5108E+02  0.5104E+02
      7.282  0.1753E+01  0.1818E+01  0.5137E+02  0.5134E+02
      7.446  0.1433E+01  0.1892E+01  0.5161E+02  0.5165E+02
      7.609  0.1020E+01  0.1052E+01  0.5177E+02  0.5182E+02
      7.773  0.6639E+00  0.6766E+00  0.5188E+02  0.5193E+02
      7.937  0.5455E+00  0.2760E+00  0.5197E+02  0.5198E+02
      8.100  0.1513E+00  0.1142E+00  0.5200E+02  0.5200E+02
      8.264  0.1001E-01  0.1033E-01  0.5200E+02  0.5200E+02
      8.428  0.0000E+00  0.0000E+00  0.5200E+02  0.5200E+02
      8.591  0.0000E+00  0.0000E+00  0.5200E+02  0.5200E+02
      8.755  0.0000E+00  0.0000E+00  0.5200E+02  0.5200E+02
      8.919  0.0000E+00  0.0000E+00  0.5200E+02  0.5200E+02
      9.082  0.0000E+00  0.0000E+00  0.5200E+02  0.5200E+02
      9.246  0.0000E+00  0.0000E+00  0.5200E+02  0.5200E+02
      9.409  0.0000E+00  0.0000E+00  0.5200E+02  0.5200E+02
      9.573  0.0000E+00  0.0000E+00  0.5200E+02  0.5200E+02
      9.737  0.0000E+00  0.0000E+00  0.5200E+02  0.5200E+02
      9.900  0.0000E+00  0.0000E+00  0.5200E+02  0.5200E+02
     10.064  0.0000E+00  0.0000E+00  0.5200E+02  0.5200E+02
     10.228  0.0000E+00  0.0000E+00  0.5200E+02  0.5200E+02
     10.22768760    -38.86460639  301      4.21561654      1.00000000
    -38.865  0.0000E+00  0.0000E+00  0.0000E+00  0.0000E+00  0.0000E+00  0.0000E+00  0.0000E+00  0.0000E+00  0.0000E+00  0.0000E+00  0.0000E+00  0.0000E+00  0.0000E+00  0.0000E+00  0.0000E+00  0.0000E+00  0.0000E+00  0.0000E+00
    -38.701  0.0000E+00  0.0000E+00  0.0000E+00  0.0000E+00  0.0000E+00  0.0000E+00  0.0000E+00  0.0000E+00  0.0000E+00  0.0000E+00  0.0000E+00  0.0000E+00  0.0000E+00  0.0000E+00  0.0000E+00  0.0000E+00  0.0000E+00  0.0000E+00
    -38.537  0.0000E+00  0.0000E+00  0.0000E+00  0.0000E+00  0.0000E+00  0.0000E+00  0.0000E+00  0.0000E+00  0.0000E+00  0.0000E+00  0.0000E+00  0.0000E+00  0.0000E+00  0.0000E+00  0.0000E+00  0.0000E+00  0.0000E+00  0.0000E+00
    -38.374  0.0000E+00  0.0000E+00  0.0000E+00  0.0000E+00  0.0000E+00  0.0000E+00  0.0000E+00  0.0000E+00  0.0000E+00  0.0000E+00  0.0000E+00  0.0000E+00  0.0000E+00  0.0000E+00  0.0000E+00  0.0000E+00  0.0000E+00  0.0000E+00
    -38.210  0.0000E+00  0.0000E+00  0.0000E+00  0.0000E+00  0.0000E+00  0.0000E+00  0.0000E+00  0.0000E+00  0.0000E+00  0.0000E+00  0.0000E+00  0.0000E+00  0.0000E+00  0.0000E+00  0.0000E+00  0.0000E+00  0.0000E+00  0.0000E+00
    -38.046  0.0000E+00  0.0000E+00  0.0000E+00  0.0000E+00  0.0000E+00  0.0000E+00  0.0000E+00  0.0000E+00  0.0000E+00  0.0000E+00  0.0000E+00  0.0000E+00  0.0000E+00  0.0000E+00  0.0000E+00  0.0000E+00  0.0000E+00  0.0000E+00
    -37.883  0.0000E+00  0.0000E+00  0.0000E+00  0.0000E+00  0.0000E+00  0.0000E+00  0.0000E+00  0.0000E+00  0.0000E+00  0.0000E+00  0.0000E+00  0.0000E+00  0.0000E+00  0.0000E+00  0.0000E+00  0.0000E+00  0.0000E+00  0.0000E+00
    -37.719  0.0000E+00  0.0000E+00  0.0000E+00  0.0000E+00  0.0000E+00  0.0000E+00  0.0000E+00  0.0000E+00  0.0000E+00  0.0000E+00  0.0000E+00  0.0000E+00  0.0000E+00  0.0000E+00  0.0000E+00  0.0000E+00  0.0000E+00  0.0000E+00
    -37.555  0.0000E+00  0.0000E+00  0.0000E+00  0.0000E+00  0.0000E+00  0.0000E+00  0.0000E+00  0.0000E+00  0.0000E+00  0.0000E+00  0.0000E+00  0.0000E+00  0.0000E+00  0.0000E+00  0.0000E+00  0.0000E+00  0.0000E+00  0.0000E+00
    -37.392  0.0000E+00  0.0000E+00  0.0000E+00  0.0000E+00  0.0000E+00  0.0000E+00  0.0000E+00  0.0000E+00  0.0000E+00  0.0000E+00  0.0000E+00  0.0000E+00  0.0000E+00  0.0000E+00  0.0000E+00  0.0000E+00  0.0000E+00  0.0000E+00
    -37.228  0.0000E+00  0.0000E+00  0.0000E+00  0.0000E+00  0.0000E+00  0.0000E+00  0.0000E+00  0.0000E+00  0.0000E+00  0.0000E+00  0.0000E+00  0.0000E+00  0.0000E+00  0.0000E+00  0.0000E+00  0.0000E+00  0.0000E+00  0.0000E+00
    -37.065  0.1058E-02  0.1064E-02  0.3222E-12  0.3204E-12  0.5423E-09  0.5494E-09  0.3222E-12  0.3204E-12  0.1027E-15  0.4005E-15  0.3856E-15  0.6987E-15  0.1032E-09  0.1027E-09  0.3856E-15  0.6987E-15  0.2185E-12  0.2281E-12
    -36.901  0.2674E-01  0.2688E-01  0.8140E-11  0.8096E-11  0.1370E-07  0.1388E-07  0.8140E-11  0.8096E-11  0.2594E-14  0.1012E-13  0.9742E-14  0.1766E-13  0.2609E-08  0.2596E-08  0.9742E-14  0.1766E-13  0.5521E-11  0.5763E-11
    -36.737  0.6289E+00  0.6316E+00  0.1914E-09  0.1903E-09  0.3222E-06  0.3263E-06  0.1914E-09  0.1903E-09  0.6099E-13  0.2379E-12  0.2291E-12  0.4150E-12  0.6134E-07  0.6101E-07  0.2291E-12  0.4150E-12  0.1298E-09  0.1354E-09
    -36.574  0.3942E+01  0.3945E+01  0.1200E-08  0.1188E-08  0.2020E-05  0.2038E-05  0.1200E-08  0.1188E-08  0.3820E-12  0.1488E-11  0.1436E-11  0.2594E-11  0.3845E-06  0.3810E-06  0.1436E-11  0.2594E-11  0.8139E-09  0.8459E-09
    -36.410  0.1355E+01  0.1350E+01  0.4121E-09  0.4064E-09  0.6943E-06  0.6974E-06  0.4121E-09  0.4064E-09  0.1311E-12  0.5099E-12  0.4933E-12  0.8882E-12  0.1321E-06  0.1304E-06  0.4933E-12  0.8882E-12  0.2797E-09  0.2894E-09
    -36.246  0.6722E-01  0.6689E-01  0.2045E-10  0.2014E-10  0.3445E-07  0.3456E-07  0.2045E-10  0.2014E-10  0.6503E-14  0.2528E-13  0.2448E-13  0.4403E-13  0.6556E-08  0.6461E-08  0.2448E-13  0.4403E-13  0.1388E-10  0.1434E-10
    -36.083  0.0000E+00  0.0000E+00  0.0000E+00  0.0000E+00  0.0000E+00  0.0000E+00  0.0000E+00  0.0000E+00  0.0000E+00  0.0000E+00  0.0000E+00  0.0000E+00  0.0000E+00  0.0000E+00  0.0000E+00  0.0000E+00  0.0000E+00  0.0000E+00
    -35.919  0.0000E+00  0.0000E+00  0.0000E+00  0.0000E+00  0.0000E+00  0.0000E+00  0.0000E+00  0.0000E+00  0.0000E+00  0.0000E+00  0.0000E+00  0.0000E+00  0.0000E+00  0.0000E+00  0.0000E+00  0.0000E+00  0.0000E+00  0.0000E+00
    -35.755  0.0000E+00  0.0000E+00  0.0000E+00  0.0000E+00  0.0000E+00  0.0000E+00  0.0000E+00  0.0000E+00  0.0000E+00  0.0000E+00  0.0000E+00  0.0000E+00  0.0000E+00  0.0000E+00  0.0000E+00  0.0000E+00  0.0000E+00  0.0000E+00
    -35.592  0.0000E+00  0.0000E+00  0.0000E+00  0.0000E+00  0.0000E+00  0.0000E+00  0.0000E+00  0.0000E+00  0.0000E+00  0.0000E+00  0.0000E+00  0.0000E+00  0.0000E+00  0.0000E+00  0.0000E+00  0.0000E+00  0.0000E+00  0.0000E+00
    -35.428  0.0000E+00  0.0000E+00  0.0000E+00  0.0000E+00  0.0000E+00  0.0000E+00  0.0000E+00  0.0000E+00  0.0000E+00  0.0000E+00  0.0000E+00  0.0000E+00  0.0000E+00  0.0000E+00  0.0000E+00  0.0000E+00  0.0000E+00  0.0000E+00
    -35.265  0.0000E+00  0.0000E+00  0.0000E+00  0.0000E+00  0.0000E+00  0.0000E+00  0.0000E+00  0.0000E+00  0.0000E+00  0.0000E+00  0.0000E+00  0.0000E+00  0.0000E+00  0.0000E+00  0.0000E+00  0.0000E+00  0.0000E+00  0.0000E+00
    -35.101  0.0000E+00  0.0000E+00  0.0000E+00  0.0000E+00  0.0000E+00  0.0000E+00  0.0000E+00  0.0000E+00  0.0000E+00  0.0000E+00  0.0000E+00  0.0000E+00  0.0000E+00  0.0000E+00  0.0000E+00  0.0000E+00  0.0000E+00  0.0000E+00
    -34.937  0.0000E+00  0.0000E+00  0.0000E+00  0.0000E+00  0.0000E+00  0.0000E+00  0.0000E+00  0.0000E+00  0.0000E+00  0.0000E+00  0.0000E+00  0.0000E+00  0.0000E+00  0.0000E+00  0.0000E+00  0.0000E+00  0.0000E+00  0.0000E+00
    -34.774  0.0000E+00  0.0000E+00  0.0000E+00  0.0000E+00  0.0000E+00  0.0000E+00  0.0000E+00  0.0000E+00  0.0000E+00  0.0000E+00  0.0000E+00  0.0000E+00  0.0000E+00  0.0000E+00  0.0000E+00  0.0000E+00  0.0000E+00  0.0000E+00
    -34.610  0.0000E+00  0.0000E+00  0.0000E+00  0.0000E+00  0.0000E+00  0.0000E+00  0.0000E+00  0.0000E+00  0.0000E+00  0.0000E+00  0.0000E+00  0.0000E+00  0.0000E+00  0.0000E+00  0.0000E+00  0.0000E+00  0.0000E+00  0.0000E+00
    -34.446  0.0000E+00  0.0000E+00  0.0000E+00  0.0000E+00  0.0000E+00  0.0000E+00  0.0000E+00  0.0000E+00  0.0000E+00  0.0000E+00  0.0000E+00  0.0000E+00  0.0000E+00  0.0000E+00  0.0000E+00  0.0000E+00  0.0000E+00  0.0000E+00
    -34.283  0.0000E+00  0.0000E+00  0.0000E+00  0.0000E+00  0.0000E+00  0.0000E+00  0.0000E+00  0.0000E+00  0.0000E+00  0.0000E+00  0.0000E+00  0.0000E+00  0.0000E+00  0.0000E+00  0.0000E+00  0.0000E+00  0.0000E+00  0.0000E+00
    -34.119  0.0000E+00  0.0000E+00  0.0000E+00  0.0000E+00  0.0000E+00  0.0000E+00  0.0000E+00  0.0000E+00  0.0000E+00  0.0000E+00  0.0000E+00  0.0000E+00  0.0000E+00  0.0000E+00  0.0000E+00  0.0000E+00  0.0000E+00  0.0000E+00
    -33.955  0.0000E+00  0.0000E+00  0.0000E+00  0.0000E+00  0.0000E+00  0.0000E+00  0.0000E+00  0.0000E+00  0.0000E+00  0.0000E+00  0.0000E+00  0.0000E+00  0.0000E+00  0.0000E+00  0.0000E+00  0.0000E+00  0.0000E+00  0.0000E+00
    -33.792  0.0000E+00  0.0000E+00  0.0000E+00  0.0000E+00  0.0000E+00  0.0000E+00  0.0000E+00  0.0000E+00  0.0000E+00  0.0000E+00  0.0000E+00  0.0000E+00  0.0000E+00  0.0000E+00  0.0000E+00  0.0000E+00  0.0000E+00  0.0000E+00
    -33.628  0.0000E+00  0.0000E+00  0.0000E+00  0.0000E+00  0.0000E+00  0.0000E+00  0.0000E+00  0.0000E+00  0.0000E+00  0.0000E+00  0.0000E+00  0.0000E+00  0.0000E+00  0.0000E+00  0.0000E+00  0.0000E+00  0.0000E+00  0.0000E+00
    -33.464  0.0000E+00  0.0000E+00  0.0000E+00  0.0000E+00  0.0000E+00  0.0000E+00  0.0000E+00  0.0000E+00  0.0000E+00  0.0000E+00  0.0000E+00  0.0000E+00  0.0000E+00  0.0000E+00  0.0000E+00  0.0000E+00  0.0000E+00  0.0000E+00
    -33.301  0.0000E+00  0.0000E+00  0.0000E+00  0.0000E+00  0.0000E+00  0.0000E+00  0.0000E+00  0.0000E+00  0.0000E+00  0.0000E+00  0.0000E+00  0.0000E+00  0.0000E+00  0.0000E+00  0.0000E+00  0.0000E+00  0.0000E+00  0.0000E+00
    -33.137  0.0000E+00  0.0000E+00  0.0000E+00  0.0000E+00  0.0000E+00  0.0000E+00  0.0000E+00  0.0000E+00  0.0000E+00  0.0000E+00  0.0000E+00  0.0000E+00  0.0000E+00  0.0000E+00  0.0000E+00  0.0000E+00  0.0000E+00  0.0000E+00
    -32.974  0.0000E+00  0.0000E+00  0.0000E+00  0.0000E+00  0.0000E+00  0.0000E+00  0.0000E+00  0.0000E+00  0.0000E+00  0.0000E+00  0.0000E+00  0.0000E+00  0.0000E+00  0.0000E+00  0.0000E+00  0.0000E+00  0.0000E+00  0.0000E+00
    -32.810  0.0000E+00  0.0000E+00  0.0000E+00  0.0000E+00  0.0000E+00  0.0000E+00  0.0000E+00  0.0000E+00  0.0000E+00  0.0000E+00  0.0000E+00  0.0000E+00  0.0000E+00  0.0000E+00  0.0000E+00  0.0000E+00  0.0000E+00  0.0000E+00
    -32.646  0.0000E+00  0.0000E+00  0.0000E+00  0.0000E+00  0.0000E+00  0.0000E+00  0.0000E+00  0.0000E+00  0.0000E+00  0.0000E+00  0.0000E+00  0.0000E+00  0.0000E+00  0.0000E+00  0.0000E+00  0.0000E+00  0.0000E+00  0.0000E+00
    -32.483  0.0000E+00  0.0000E+00  0.0000E+00  0.0000E+00  0.0000E+00  0.0000E+00  0.0000E+00  0.0000E+00  0.0000E+00  0.0000E+00  0.0000E+00  0.0000E+00  0.0000E+00  0.0000E+00  0.0000E+00  0.0000E+00  0.0000E+00  0.0000E+00
    -32.319  0.0000E+00  0.0000E+00  0.0000E+00  0.0000E+00  0.0000E+00  0.0000E+00  0.0000E+00  0.0000E+00  0.0000E+00  0.0000E+00  0.0000E+00  0.0000E+00  0.0000E+00  0.0000E+00  0.0000E+00  0.0000E+00  0.0000E+00  0.0000E+00
    -32.155  0.0000E+00  0.0000E+00  0.0000E+00  0.0000E+00  0.0000E+00  0.0000E+00  0.0000E+00  0.0000E+00  0.0000E+00  0.0000E+00  0.0000E+00  0.0000E+00  0.0000E+00  0.0000E+00  0.0000E+00  0.0000E+00  0.0000E+00  0.0000E+00
    -31.992  0.0000E+00  0.0000E+00  0.0000E+00  0.0000E+00  0.0000E+00  0.0000E+00  0.0000E+00  0.0000E+00  0.0000E+00  0.0000E+00  0.0000E+00  0.0000E+00  0.0000E+00  0.0000E+00  0.0000E+00  0.0000E+00  0.0000E+00  0.0000E+00
    -31.828  0.0000E+00  0.0000E+00  0.0000E+00  0.0000E+00  0.0000E+00  0.0000E+00  0.0000E+00  0.0000E+00  0.0000E+00  0.0000E+00  0.0000E+00  0.0000E+00  0.0000E+00  0.0000E+00  0.0000E+00  0.0000E+00  0.0000E+00  0.0000E+00
    -31.664  0.0000E+00  0.0000E+00  0.0000E+00  0.0000E+00  0.0000E+00  0.0000E+00  0.0000E+00  0.0000E+00  0.0000E+00  0.0000E+00  0.0000E+00  0.0000E+00  0.0000E+00  0.0000E+00  0.0000E+00  0.0000E+00  0.0000E+00  0.0000E+00
    -31.501  0.0000E+00  0.0000E+00  0.0000E+00  0.0000E+00  0.0000E+00  0.0000E+00  0.0000E+00  0.0000E+00  0.0000E+00  0.0000E+00  0.0000E+00  0.0000E+00  0.0000E+00  0.0000E+00  0.0000E+00  0.0000E+00  0.0000E+00  0.0000E+00
    -31.337  0.0000E+00  0.0000E+00  0.0000E+00  0.0000E+00  0.0000E+00  0.0000E+00  0.0000E+00  0.0000E+00  0.0000E+00  0.0000E+00  0.0000E+00  0.0000E+00  0.0000E+00  0.0000E+00  0.0000E+00  0.0000E+00  0.0000E+00  0.0000E+00
    -31.173  0.0000E+00  0.0000E+00  0.0000E+00  0.0000E+00  0.0000E+00  0.0000E+00  0.0000E+00  0.0000E+00  0.0000E+00  0.0000E+00  0.0000E+00  0.0000E+00  0.0000E+00  0.0000E+00  0.0000E+00  0.0000E+00  0.0000E+00  0.0000E+00
    -31.010  0.0000E+00  0.0000E+00  0.0000E+00  0.0000E+00  0.0000E+00  0.0000E+00  0.0000E+00  0.0000E+00  0.0000E+00  0.0000E+00  0.0000E+00  0.0000E+00  0.0000E+00  0.0000E+00  0.0000E+00  0.0000E+00  0.0000E+00  0.0000E+00
    -30.846  0.0000E+00  0.0000E+00  0.0000E+00  0.0000E+00  0.0000E+00  0.0000E+00  0.0000E+00  0.0000E+00  0.0000E+00  0.0000E+00  0.0000E+00  0.0000E+00  0.0000E+00  0.0000E+00  0.0000E+00  0.0000E+00  0.0000E+00  0.0000E+00
    -30.683  0.0000E+00  0.0000E+00  0.0000E+00  0.0000E+00  0.0000E+00  0.0000E+00  0.0000E+00  0.0000E+00  0.0000E+00  0.0000E+00  0.0000E+00  0.0000E+00  0.0000E+00  0.0000E+00  0.0000E+00  0.0000E+00  0.0000E+00  0.0000E+00