  16  16   1   0
  0.2036989E+02  0.4351217E-09  0.4351217E-09  0.1721422E-08  0.5000000E-15
  1.000000000000000E-004
  CAR 
 unknown system                          
     12.27999233    -36.67353085  301      5.70199953      1.00000000
    -36.674  0.0000E+00  0.0000E+00  0.0000E+00  0.0000E+00
    -36.510  0.0000E+00  0.0000E+00  0.0000E+00  0.0000E+00
    -36.347  0.0000E+00  0.0000E+00  0.0000E+00  0.0000E+00
    -36.184  0.0000E+00  0.0000E+00  0.0000E+00  0.0000E+00
    -36.021  0.0000E+00  0.0000E+00  0.0000E+00  0.0000E+00
    -35.858  0.0000E+00  0.0000E+00  0.0000E+00  0.0000E+00
    -35.694  0.0000E+00  0.0000E+00  0.0000E+00  0.0000E+00
    -35.531  0.0000E+00  0.0000E+00  0.0000E+00  0.0000E+00
    -35.368  0.0000E+00  0.0000E+00  0.0000E+00  0.0000E+00
    -35.205  0.0000E+00  0.0000E+00  0.0000E+00  0.0000E+00
    -35.042  0.0000E+00  0.0000E+00  0.0000E+00  0.0000E+00
    -34.879  0.4273E-02  0.4302E-02  0.6972E-03  0.7020E-03
    -34.715  0.1069E+00  0.1077E+00  0.1815E-01  0.1827E-01
    -34.552  0.2498E+01  0.2514E+01  0.4258E+00  0.4284E+00
    -34.389  0.1594E+02  0.1596E+02  0.3028E+01  0.3033E+01
    -34.226  0.5661E+01  0.5632E+01  0.3951E+01  0.3952E+01
    -34.063  0.2860E+00  0.2840E+00  0.3998E+01  0.3998E+01
    -33.899  0.0000E+00  0.0000E+00  0.4000E+01  0.4000E+01
    -33.736  0.0000E+00  0.0000E+00  0.4000E+01  0.4000E+01
    -33.573  0.0000E+00  0.0000E+00  0.4000E+01  0.4000E+01
    -33.410  0.0000E+00  0.0000E+00  0.4000E+01  0.4000E+01
    -33.247  0.0000E+00  0.0000E+00  0.4000E+01  0.4000E+01
    -33.084  0.0000E+00  0.0000E+00  0.4000E+01  0.4000E+01
    -32.920  0.0000E+00  0.0000E+00  0.4000E+01  0.4000E+01
    -32.757  0.0000E+00  0.0000E+00  0.4000E+01  0.4000E+01
    -32.594  0.0000E+00  0.0000E+00  0.4000E+01  0.4000E+01
    -32.431  0.0000E+00  0.0000E+00  0.4000E+01  0.4000E+01
    -32.268  0.0000E+00  0.0000E+00  0.4000E+01  0.4000E+01
    -32.105  0.0000E+00  0.0000E+00  0.4000E+01  0.4000E+01
    -31.941  0.0000E+00  0.0000E+00  0.4000E+01  0.4000E+01
    -31.778  0.0000E+00  0.0000E+00  0.4000E+01  0.4000E+01
    -31.615  0.0000E+00  0.0000E+00  0.4000E+01  0.4000E+01
    -31.452  0.0000E+00  0.0000E+00  0.4000E+01  0.4000E+01
    -31.289  0.0000E+00  0.0000E+00  0.4000E+01  0.4000E+01
    -31.125  0.0000E+00  0.0000E+00  0.4000E+01  0.4000E+01
    -30.962  0.0000E+00  0.0000E+00  0.4000E+01  0.4000E+01
    -30.799  0.0000E+00  0.0000E+00  0.4000E+01  0.4000E+01
    -30.636  0.0000E+00  0.0000E+00  0.4000E+01  0.4000E+01
    -30.473  0.0000E+00  0.0000E+00  0.4000E+01  0.4000E+01
    -30.310  0.0000E+00  0.0000E+00  0.4000E+01  0.4000E+01
    -30.146  0.0000E+00  0.0000E+00  0.4000E+01  0.4000E+01
    -29.983  0.0000E+00  0.0000E+00  0.4000E+01  0.4000E+01
    -29.820  0.0000E+00  0.0000E+00  0.4000E+01  0.4000E+01
    -29.657  0.0000E+00  0.0000E+00  0.4000E+01  0.4000E+01
    -29.494  0.0000E+00  0.0000E+00  0.4000E+01  0.4000E+01
    -29.331  0.0000E+00  0.0000E+00  0.4000E+01  0.4000E+01
    -29.167  0.0000E+00  0.0000E+00  0.4000E+01  0.4000E+01
    -29.004  0.0000E+00  0.0000E+00  0.4000E+01  0.4000E+01
    -28.841  0.0000E+00  0.0000E+00  0.4000E+01  0.4000E+01
    -28.678  0.0000E+00  0.0000E+00  0.4000E+01  0.4000E+01
    -28.515  0.0000E+00  0.0000E+00  0.4000E+01  0.4000E+01
    -28.351  0.0000E+00  0.0000E+00  0.4000E+01  0.4000E+01
    -28.188  0.0000E+00  0.0000E+00  0.4000E+01  0.4000E+01
    -28.025  0.0000E+00  0.0000E+00  0.4000E+01  0.4000E+01
    -27.862  0.0000E+00  0.0000E+00  0.4000E+01  0.4000E+01
    -27.699  0.0000E+00  0.0000E+00  0.4000E+01  0.4000E+01
    -27.536  0.0000E+00  0.0000E+00  0.4000E+01  0.4000E+01
    -27.372  0.0000E+00  0.0000E+00  0.4000E+01  0.4000E+01
    -27.209  0.0000E+00  0.0000E+00  0.4000E+01  0.4000E+01
    -27.046  0.0000E+00  0.0000E+00  0.4000E+01  0.4000E+01
    -26.883  0.0000E+00  0.0000E+00  0.4000E+01  0.4000E+01
    -26.720  0.0000E+00  0.0000E+00  0.4000E+01  0.4000E+01
    -26.556  0.0000E+00  0.0000E+00  0.4000E+01  0.4000E+01
    -26.393  0.0000E+00  0.0000E+00  0.4000E+01  0.4000E+01
    -26.230  0.0000E+00  0.0000E+00  0.4000E+01  0.4000E+01
    -26.067  0.0000E+00  0.0000E+00  0.4000E+01  0.4000E+01
    -25.904  0.0000E+00  0.0000E+00  0.4000E+01  0.4000E+01
    -25.741  0.0000E+00  0.0000E+00  0.4000E+01  0.4000E+01
    -25.577  0.0000E+00  0.0000E+00  0.4000E+01  0.4000E+01
    -25.414  0.0000E+00  0.0000E+00  0.4000E+01  0.4000E+01
    -25.251  0.0000E+00  0.0000E+00  0.4000E+01  0.4000E+01
    -25.088  0.0000E+00  0.0000E+00  0.4000E+01  0.4000E+01
    -24.925  0.0000E+00  0.0000E+00  0.4000E+01  0.4000E+01
    -24.762  0.0000E+00  0.0000E+00  0.4000E+01  0.4000E+01
    -24.598  0.0000E+00  0.0000E+00  0.4000E+01  0.4000E+01
    -24.435  0.0000E+00  0.0000E+00  0.4000E+01  0.4000E+01
    -24.272  0.0000E+00  0.0000E+00  0.4000E+01  0.4000E+01
    -24.109  0.0000E+00  0.0000E+00  0.4000E+01  0.4000E+01
    -23.946  0.0000E+00  0.0000E+00  0.4000E+01  0.4000E+01
    -23.782  0.0000E+00  0.0000E+00  0.4000E+01  0.4000E+01
    -23.619  0.0000E+00  0.0000E+00  0.4000E+01  0.4000E+01
    -23.456  0.0000E+00  0.0000E+00  0.4000E+01  0.4000E+01
    -23.293  0.0000E+00  0.0000E+00  0.4000E+01  0.4000E+01
    -23.130  0.0000E+00  0.0000E+00  0.4000E+01  0.4000E+01
    -22.967  0.0000E+00  0.0000E+00  0.4000E+01  0.4000E+01
    -22.803  0.0000E+00  0.0000E+00  0.4000E+01  0.4000E+01
    -22.640  0.0000E+00  0.0000E+00  0.4000E+01  0.4000E+01
    -22.477  0.0000E+00  0.0000E+00  0.4000E+01  0.4000E+01
    -22.314  0.0000E+00  0.0000E+00  0.4000E+01  0.4000E+01
    -22.151  0.0000E+00  0.0000E+00  0.4000E+01  0.4000E+01
    -21.987  0.0000E+00  0.0000E+00  0.4000E+01  0.4000E+01
    -21.824  0.0000E+00  0.0000E+00  0.4000E+01  0.4000E+01
    -21.661  0.0000E+00  0.0000E+00  0.4000E+01  0.4000E+01
    -21.498  0.0000E+00  0.0000E+00  0.4000E+01  0.4000E+01
    -21.335  0.0000E+00  0.0000E+00  0.4000E+01  0.4000E+01
    -21.172  0.0000E+00  0.0000E+00  0.4000E+01  0.4000E+01
    -21.008  0.0000E+00  0.0000E+00  0.4000E+01  0.4000E+01
    -20.845  0.0000E+00  0.0000E+00  0.4000E+01  0.4000E+01
    -20.682  0.0000E+00  0.0000E+00  0.4000E+01  0.4000E+01
    -20.519  0.0000E+00  0.0000E+00  0.4000E+01  0.4000E+01
    -20.356  0.0000E+00  0.0000E+00  0.4000E+01  0.4000E+01
    -20.193  0.0000E+00  0.0000E+00  0.4000E+01  0.4000E+01
    -20.029  0.0000E+00  0.0000E+00  0.4000E+01  0.4000E+01
    -19.866  0.0000E+00  0.0000E+00  0.4000E+01  0.4000E+01
    -19.703  0.0000E+00  0.0000E+00  0.4000E+01  0.4000E+01
    -19.540  0.0000E+00  0.0000E+00  0.4000E+01  0.4000E+01
    -19.377  0.0000E+00  0.0000E+00  0.4000E+01  0.4000E+01
    -19.213  0.0000E+00  0.0000E+00  0.4000E+01  0.4000E+01
    -19.050  0.0000E+00  0.0000E+00  0.4000E+01  0.4000E+01
    -18.887  0.0000E+00  0.0000E+00  0.4000E+01  0.4000E+01
    -18.724  0.0000E+00  0.0000E+00  0.4000E+01  0.4000E+01
    -18.561  0.0000E+00  0.0000E+00  0.4000E+01  0.4000E+01
    -18.398  0.0000E+00  0.0000E+00  0.4000E+01  0.4000E+01
    -18.234  0.0000E+00  0.0000E+00  0.4000E+01  0.4000E+01
    -18.071  0.0000E+00  0.0000E+00  0.4000E+01  0.4000E+01
    -17.908  0.0000E+00  0.0000E+00  0.4000E+01  0.4000E+01
    -17.745  0.0000E+00  0.0000E+00  0.4000E+01  0.4000E+01
    -17.582  0.0000E+00  0.0000E+00  0.4000E+01  0.4000E+01
    -17.418  0.0000E+00  0.0000E+00  0.4000E+01  0.4000E+01
    -17.255  0.0000E+00  0.0000E+00  0.4000E+01  0.4000E+01
    -17.092  0.0000E+00  0.0000E+00  0.4000E+01  0.4000E+01
    -16.929  0.0000E+00  0.0000E+00  0.4000E+01  0.4000E+01
    -16.766  0.0000E+00  0.0000E+00  0.4000E+01  0.4000E+01
    -16.603  0.0000E+00  0.0000E+00  0.4000E+01  0.4000E+01
    -16.439  0.0000E+00  0.0000E+00  0.4000E+01  0.4000E+01
    -16.276  0.0000E+00  0.0000E+00  0.4000E+01  0.4000E+01
    -16.113  0.1802E-02  0.1820E-02  0.4000E+01  0.4000E+01
    -15.950  0.4760E-01  0.4785E-01  0.4008E+01  0.4008E+01
    -15.787  0.1216E+01  0.1223E+01  0.4207E+01  0.4208E+01
    -15.624  0.2095E+02  0.2103E+02  0.7626E+01  0.7640E+01
    -15.460  0.4472E+02  0.4467E+02  0.1492E+02  0.1493E+02
    -15.297  0.6321E+01  0.6289E+01  0.1595E+02  0.1595E+02
    -15.134  0.0000E+00  0.0000E+00  0.1600E+02  0.1600E+02
    -14.971  0.0000E+00  0.0000E+00  0.1600E+02  0.1600E+02
    -14.808  0.0000E+00  0.0000E+00  0.1600E+02  0.1600E+02
    -14.644  0.0000E+00  0.0000E+00  0.1600E+02  0.1600E+02
    -14.481  0.0000E+00  0.0000E+00  0.1600E+02  0.1600E+02
    -14.318  0.0000E+00  0.0000E+00  0.1600E+02  0.1600E+02
    -14.155  0.0000E+00  0.0000E+00  0.1600E+02  0.1600E+02
    -13.992  0.0000E+00  0.0000E+00  0.1600E+02  0.1600E+02
    -13.829  0.0000E+00  0.0000E+00  0.1600E+02  0.1600E+02
    -13.665  0.0000E+00  0.0000E+00  0.1600E+02  0.1600E+02
    -13.502  0.0000E+00  0.0000E+00  0.1600E+02  0.1600E+02
    -13.339  0.0000E+00  0.0000E+00  0.1600E+02  0.1600E+02
    -13.176  0.0000E+00  0.0000E+00  0.1600E+02  0.1600E+02
    -13.013  0.0000E+00  0.0000E+00  0.1600E+02  0.1600E+02
    -12.849  0.0000E+00  0.0000E+00  0.1600E+02  0.1600E+02
    -12.686  0.0000E+00  0.0000E+00  0.1600E+02  0.1600E+02
    -12.523  0.0000E+00  0.0000E+00  0.1600E+02  0.1600E+02
    -12.360  0.0000E+00  0.0000E+00  0.1600E+02  0.1600E+02
    -12.197  0.0000E+00  0.0000E+00  0.1600E+02  0.1600E+02
    -12.034  0.0000E+00  0.0000E+00  0.1600E+02  0.1600E+02
    -11.870  0.0000E+00  0.0000E+00  0.1600E+02  0.1600E+02
    -11.707  0.0000E+00  0.0000E+00  0.1600E+02  0.1600E+02
    -11.544  0.0000E+00  0.0000E+00  0.1600E+02  0.1600E+02
    -11.381  0.0000E+00  0.0000E+00  0.1600E+02  0.1600E+02
    -11.218  0.0000E+00  0.0000E+00  0.1600E+02  0.1600E+02
    -11.055  0.0000E+00  0.0000E+00  0.1600E+02  0.1600E+02
    -10.891  0.0000E+00  0.0000E+00  0.1600E+02  0.1600E+02
    -10.728  0.0000E+00  0.0000E+00  0.1600E+02  0.1600E+02
    -10.565  0.0000E+00  0.0000E+00  0.1600E+02  0.1600E+02
    -10.402  0.0000E+00  0.0000E+00  0.1600E+02  0.1600E+02
    -10.239  0.0000E+00  0.0000E+00  0.1600E+02  0.1600E+02
    -10.075  0.0000E+00  0.0000E+00  0.1600E+02  0.1600E+02
     -9.912  0.0000E+00  0.0000E+00  0.1600E+02  0.1600E+02
     -9.749  0.0000E+00  0.0000E+00  0.1600E+02  0.1600E+02
     -9.586  0.0000E+00  0.0000E+00  0.1600E+02  0.1600E+02
     -9.423  0.0000E+00  0.0000E+00  0.1600E+02  0.1600E+02
     -9.260  0.0000E+00  0.0000E+00  0.1600E+02  0.1600E+02
     -9.096  0.0000E+00  0.0000E+00  0.1600E+02  0.1600E+02
     -8.933  0.0000E+00  0.0000E+00  0.1600E+02  0.1600E+02
     -8.770  0.0000E+00  0.0000E+00  0.1600E+02  0.1600E+02
     -8.607  0.0000E+00  0.0000E+00  0.1600E+02  0.1600E+02
     -8.444  0.0000E+00  0.0000E+00  0.1600E+02  0.1600E+02
     -8.280  0.0000E+00  0.0000E+00  0.1600E+02  0.1600E+02
     -8.117  0.0000E+00  0.0000E+00  0.1600E+02  0.1600E+02
     -7.954  0.0000E+00  0.0000E+00  0.1600E+02  0.1600E+02
     -7.791  0.0000E+00  0.0000E+00  0.1600E+02  0.1600E+02
     -7.628  0.0000E+00  0.0000E+00  0.1600E+02  0.1600E+02
     -7.465  0.0000E+00  0.0000E+00  0.1600E+02  0.1600E+02
     -7.301  0.0000E+00  0.0000E+00  0.1600E+02  0.1600E+02
     -7.138  0.0000E+00  0.0000E+00  0.1600E+02  0.1600E+02
     -6.975  0.0000E+00  0.0000E+00  0.1600E+02  0.1600E+02
     -6.812  0.0000E+00  0.0000E+00  0.1600E+02  0.1600E+02
     -6.649  0.0000E+00  0.0000E+00  0.1600E+02  0.1600E+02
     -6.486  0.0000E+00  0.0000E+00  0.1600E+02  0.1600E+02
     -6.322  0.0000E+00  0.0000E+00  0.1600E+02  0.1600E+02
     -6.159  0.0000E+00  0.0000E+00  0.1600E+02  0.1600E+02
     -5.996  0.0000E+00  0.0000E+00  0.1600E+02  0.1600E+02
     -5.833  0.0000E+00  0.0000E+00  0.1600E+02  0.1600E+02
     -5.670  0.0000E+00  0.0000E+00  0.1600E+02  0.1600E+02
     -5.506  0.0000E+00  0.0000E+00  0.1600E+02  0.1600E+02
     -5.343  0.0000E+00  0.0000E+00  0.1600E+02  0.1600E+02
     -5.180  0.0000E+00  0.0000E+00  0.1600E+02  0.1600E+02
     -5.017  0.0000E+00  0.0000E+00  0.1600E+02  0.1600E+02
     -4.854  0.0000E+00  0.0000E+00  0.1600E+02  0.1600E+02
     -4.691  0.0000E+00  0.0000E+00  0.1600E+02  0.1600E+02
     -4.527  0.0000E+00  0.0000E+00  0.1600E+02  0.1600E+02
     -4.364  0.0000E+00  0.0000E+00  0.1600E+02  0.1600E+02
     -4.201  0.0000E+00  0.0000E+00  0.1600E+02  0.1600E+02
     -4.038  0.0000E+00  0.0000E+00  0.1600E+02  0.1600E+02
     -3.875  0.0000E+00  0.0000E+00  0.1600E+02  0.1600E+02
     -3.711  0.1576E-05  0.1575E-05  0.1600E+02  0.1600E+02
     -3.548  0.6740E-04  0.6735E-04  0.1600E+02  0.1600E+02
     -3.385  0.1802E-02  0.1801E-02  0.1600E+02  0.1600E+02
     -3.222  0.3842E-01  0.3839E-01  0.1601E+02  0.1601E+02
     -3.059  0.2625E+00  0.2624E+00  0.1605E+02  0.1605E+02
     -2.896  0.5697E+00  0.5697E+00  0.1614E+02  0.1614E+02
     -2.732  0.7443E+00  0.7442E+00  0.1626E+02  0.1626E+02
     -2.569  0.8013E+00  0.8013E+00  0.1639E+02  0.1639E+02
     -2.406  0.8173E+00  0.8172E+00  0.1653E+02  0.1653E+02
     -2.243  0.9910E+00  0.9908E+00  0.1669E+02  0.1669E+02
     -2.080  0.1072E+01  0.1072E+01  0.1687E+02  0.1687E+02
     -1.917  0.1290E+01  0.1290E+01  0.1708E+02  0.1708E+02
     -1.753  0.1369E+01  0.1369E+01  0.1730E+02  0.1730E+02
     -1.590  0.1488E+01  0.1488E+01  0.1754E+02  0.1754E+02
     -1.427  0.1675E+01  0.1675E+01  0.1782E+02  0.1782E+02
     -1.264  0.1922E+01  0.1922E+01  0.1813E+02  0.1813E+02
     -1.101  0.1841E+01  0.1841E+01  0.1843E+02  0.1843E+02
     -0.937  0.1882E+01  0.1882E+01  0.1874E+02  0.1874E+02
     -0.774  0.1854E+01  0.1854E+01  0.1904E+02  0.1904E+02
     -0.611  0.1677E+01  0.1678E+01  0.1932E+02  0.1932E+02
     -0.448  0.1646E+01  0.1646E+01  0.1959E+02  0.1959E+02
     -0.285  0.1734E+01  0.1735E+01  0.1987E+02  0.1987E+02
     -0.122  0.2509E+01  0.2510E+01  0.2028E+02  0.2028E+02
      0.042  0.2255E+01  0.2255E+01  0.2065E+02  0.2065E+02
      0.205  0.2233E+01  0.2233E+01  0.2102E+02  0.2102E+02
      0.368  0.1930E+01  0.1930E+01  0.2133E+02  0.2133E+02
      0.531  0.2331E+01  0.2331E+01  0.2171E+02  0.2171E+02
      0.694  0.2332E+01  0.2332E+01  0.2209E+02  0.2209E+02
      0.858  0.2057E+01  0.2057E+01  0.2243E+02  0.2243E+02
      1.021  0.2058E+01  0.2058E+01  0.2277E+02  0.2277E+02
      1.184  0.2748E+01  0.2748E+01  0.2322E+02  0.2322E+02
      1.347  0.2869E+01  0.2869E+01  0.2369E+02  0.2369E+02
      1.510  0.2572E+01  0.2571E+01  0.2411E+02  0.2411E+02
      1.673  0.2883E+01  0.2883E+01  0.2458E+02  0.2458E+02
      1.837  0.2630E+01  0.2629E+01  0.2501E+02  0.2501E+02
      2.000  0.2467E+01  0.2466E+01  0.2541E+02  0.2541E+02
      2.163  0.2291E+01  0.2291E+01  0.2579E+02  0.2579E+02
      2.326  0.2560E+01  0.2560E+01  0.2621E+02  0.2621E+02
      2.489  0.2271E+01  0.2272E+01  0.2658E+02  0.2658E+02
      2.652  0.2480E+01  0.2480E+01  0.2698E+02  0.2698E+02
      2.816  0.2358E+01  0.2358E+01  0.2737E+02  0.2737E+02
      2.979  0.2002E+01  0.2002E+01  0.2770E+02  0.2770E+02
      3.142  0.3005E+01  0.3005E+01  0.2819E+02  0.2819E+02
      3.305  0.3458E+01  0.3458E+01  0.2875E+02  0.2875E+02
      3.468  0.3603E+01  0.3604E+01  0.2934E+02  0.2934E+02
      3.632  0.3581E+01  0.3581E+01  0.2993E+02  0.2993E+02
      3.795  0.3656E+01  0.3655E+01  0.3053E+02  0.3053E+02
      3.958  0.4110E+01  0.4110E+01  0.3120E+02  0.3120E+02
      4.121  0.4934E+01  0.4934E+01  0.3201E+02  0.3201E+02
      4.284  0.4505E+01  0.4505E+01  0.3274E+02  0.3274E+02
      4.447  0.4612E+01  0.4612E+01  0.3350E+02  0.3350E+02
      4.611  0.3596E+01  0.3596E+01  0.3409E+02  0.3409E+02
      4.774  0.3431E+01  0.3431E+01  0.3465E+02  0.3465E+02
      4.937  0.3444E+01  0.3445E+01  0.3521E+02  0.3521E+02
      5.100  0.3473E+01  0.3474E+01  0.3578E+02  0.3578E+02
      5.263  0.3492E+01  0.3493E+01  0.3635E+02  0.3635E+02
      5.426  0.3835E+01  0.3834E+01  0.3698E+02  0.3698E+02
      5.590  0.3642E+01  0.3642E+01  0.3757E+02  0.3757E+02
      5.753  0.3769E+01  0.3767E+01  0.3819E+02  0.3819E+02
      5.916  0.3718E+01  0.3718E+01  0.3880E+02  0.3880E+02
      6.079  0.4204E+01  0.4204E+01  0.3948E+02  0.3949E+02
      6.242  0.3968E+01  0.3967E+01  0.4013E+02  0.4013E+02
      6.406  0.4273E+01  0.4274E+01  0.4083E+02  0.4083E+02
      6.569  0.3542E+01  0.3541E+01  0.4141E+02  0.4141E+02
      6.732  0.3473E+01  0.3472E+01  0.4198E+02  0.4198E+02
      6.895  0.3486E+01  0.3486E+01  0.4255E+02  0.4255E+02
      7.058  0.3748E+01  0.3749E+01  0.4316E+02  0.4316E+02
      7.221  0.3540E+01  0.3539E+01  0.4374E+02  0.4374E+02
      7.385  0.3843E+01  0.3844E+01  0.4437E+02  0.4437E+02
      7.548  0.3384E+01  0.3384E+01  0.4492E+02  0.4492E+02
      7.711  0.3499E+01  0.3500E+01  0.4550E+02  0.4550E+02
      7.874  0.4306E+01  0.4307E+01  0.4620E+02  0.4620E+02
      8.037  0.4608E+01  0.4605E+01  0.4695E+02  0.4695E+02
      8.201  0.4668E+01  0.4670E+01  0.4772E+02  0.4772E+02
      8.364  0.5238E+01  0.5326E+01  0.4857E+02  0.4859E+02
      8.527  0.4616E+01  0.4684E+01  0.4933E+02  0.4935E+02
      8.690  0.3862E+01  0.3577E+01  0.4996E+02  0.4994E+02
      8.853  0.3247E+01  0.3278E+01  0.5049E+02  0.5048E+02
      9.016  0.2401E+01  0.2408E+01  0.5089E+02  0.5087E+02
      9.180  0.1917E+01  0.1830E+01  0.5120E+02  0.5117E+02
      9.343  0.1757E+01  0.1784E+01  0.5149E+02  0.5146E+02
      9.506  0.1141E+01  0.1127E+01  0.5168E+02  0.5165E+02
      9.669  0.7731E+00  0.8652E+00  0.5180E+02  0.5179E+02
      9.832  0.4983E+00  0.5893E+00  0.5189E+02  0.5189E+02
      9.995  0.4345E+00  0.3685E+00  0.5196E+02  0.5195E+02
     10.159  0.2349E+00  0.2790E+00  0.5200E+02  0.5199E+02
     10.322  0.2242E-01  0.3078E-01  0.5200E+02  0.5200E+02
     10.485  0.0000E+00  0.0000E+00  0.5200E+02  0.5200E+02
     10.648  0.0000E+00  0.0000E+00  0.5200E+02  0.5200E+02
     10.811  0.0000E+00  0.0000E+00  0.5200E+02  0.5200E+02
     10.975  0.0000E+00  0.0000E+00  0.5200E+02  0.5200E+02
     11.138  0.0000E+00  0.0000E+00  0.5200E+02  0.5200E+02
     11.301  0.0000E+00  0.0000E+00  0.5200E+02  0.5200E+02
     11.464  0.0000E+00  0.0000E+00  0.5200E+02  0.5200E+02
     11.627  0.0000E+00  0.0000E+00  0.5200E+02  0.5200E+02
     11.790  0.0000E+00  0.0000E+00  0.5200E+02  0.5200E+02
     11.954  0.0000E+00  0.0000E+00  0.5200E+02  0.5200E+02
     12.117  0.0000E+00  0.0000E+00  0.5200E+02  0.5200E+02
     12.280  0.0000E+00  0.0000E+00  0.5200E+02  0.5200E+02
     12.27999233    -36.67353085  301      5.70199953      1.00000000
    -36.674  0.0000E+00  0.0000E+00  0.0000E+00  0.0000E+00  0.0000E+00  0.0000E+00  0.0000E+00  0.0000E+00  0.0000E+00  0.0000E+00  0.0000E+00  0.0000E+00  0.0000E+00  0.0000E+00  0.0000E+00  0.0000E+00  0.0000E+00  0.0000E+00
    -36.510  0.0000E+00  0.0000E+00  0.0000E+00  0.0000E+00  0.0000E+00  0.0000E+00  0.0000E+00  0.0000E+00  0.0000E+00  0.0000E+00  0.0000E+00  0.0000E+00  0.0000E+00  0.0000E+00  0.0000E+00  0.0000E+00  0.0000E+00  0.0000E+00
    -36.347  0.0000E+00  0.0000E+00  0.0000E+00  0.0000E+00  0.0000E+00  0.0000E+00  0.0000E+00  0.0000E+00  0.0000E+00  0.0000E+00  0.0000E+00  0.0000E+00  0.0000E+00  0.0000E+00  0.0000E+00  0.0000E+00  0.0000E+00  0.0000E+00
    -36.184  0.0000E+00  0.0000E+00  0.0000E+00  0.0000E+00  0.0000E+00  0.0000E+00  0.0000E+00  0.0000E+00  0.0000E+00  0.0000E+00  0.0000E+00  0.0000E+00  0.0000E+00  0.0000E+00  0.0000E+00  0.0000E+00  0.0000E+00  0.0000E+00
    -36.021  0.0000E+00  0.0000E+00  0.0000E+00  0.0000E+00  0.0000E+00  0.0000E+00  0.0000E+00  0.0000E+00  0.0000E+00  0.0000E+00  0.0000E+00  0.0000E+00  0.0000E+00  0.0000E+00  0.0000E+00  0.0000E+00  0.0000E+00  0.0000E+00
    -35.858  0.0000E+00  0.0000E+00  0.0000E+00  0.0000E+00  0.0000E+00  0.0000E+00  0.0000E+00  0.0000E+00  0.0000E+00  0.0000E+00  0.0000E+00  0.0000E+00  0.0000E+00  0.0000E+00  0.0000E+00  0.0000E+00  0.0000E+00  0.0000E+00
    -35.694  0.0000E+00  0.0000E+00  0.0000E+00  0.0000E+00  0.0000E+00  0.0000E+00  0.0000E+00  0.0000E+00  0.0000E+00  0.0000E+00  0.0000E+00  0.0000E+00  0.0000E+00  0.0000E+00  0.0000E+00  0.0000E+00  0.0000E+00  0.0000E+00
    -35.531  0.0000E+00  0.0000E+00  0.0000E+00  0.0000E+00  0.0000E+00  0.0000E+00  0.0000E+00  0.0000E+00  0.0000E+00  0.0000E+00  0.0000E+00  0.0000E+00  0.0000E+00  0.0000E+00  0.0000E+00  0.0000E+00  0.0000E+00  0.0000E+00
    -35.368  0.0000E+00  0.0000E+00  0.0000E+00  0.0000E+00  0.0000E+00  0.0000E+00  0.0000E+00  0.0000E+00  0.0000E+00  0.0000E+00  0.0000E+00  0.0000E+00  0.0000E+00  0.0000E+00  0.0000E+00  0.0000E+00  0.0000E+00  0.0000E+00
    -35.205  0.0000E+00  0.0000E+00  0.0000E+00  0.0000E+00  0.0000E+00  0.0000E+00  0.0000E+00  0.0000E+00  0.0000E+00  0.0000E+00  0.0000E+00  0.0000E+00  0.0000E+00  0.0000E+00  0.0000E+00  0.0000E+00  0.0000E+00  0.0000E+00
    -35.042  0.0000E+00  0.0000E+00  0.0000E+00  0.0000E+00  0.0000E+00  0.0000E+00  0.0000E+00  0.0000E+00  0.0000E+00  0.0000E+00  0.0000E+00  0.0000E+00  0.0000E+00  0.0000E+00  0.0000E+00  0.0000E+00  0.0000E+00  0.0000E+00
    -34.879  0.1052E-02  0.1059E-02  0.3484E-11  0.3467E-11  0.6766E-09  0.6834E-09  0.3484E-11  0.3467E-11  0.1796E-14  0.1198E-14  0.3781E-14  0.1979E-14  0.2349E-09  0.2331E-09  0.3781E-14  0.1979E-14  0.2159E-11  0.2190E-11
    -34.715  0.2633E-01  0.2651E-01  0.8721E-10  0.8676E-10  0.1694E-07  0.1711E-07  0.8721E-10  0.8676E-10  0.4494E-13  0.2998E-13  0.9464E-13  0.4952E-13  0.5878E-08  0.5835E-08  0.9464E-13  0.4952E-13  0.5404E-10  0.5480E-10
    -34.552  0.6152E+00  0.6189E+00  0.2037E-08  0.2025E-08  0.3957E-06  0.3994E-06  0.2037E-08  0.2025E-08  0.1051E-11  0.7004E-12  0.2212E-11  0.1157E-11  0.1373E-06  0.1362E-06  0.2212E-11  0.1157E-11  0.1262E-08  0.1279E-08
    -34.389  0.3926E+01  0.3930E+01  0.1300E-07  0.1285E-07  0.2529E-05  0.2539E-05  0.1300E-07  0.1285E-07  0.6763E-11  0.4470E-11  0.1418E-10  0.7372E-11  0.8764E-06  0.8648E-06  0.1418E-10  0.7372E-11  0.8058E-08  0.8124E-08
    -34.226  0.1394E+01  0.1387E+01  0.4613E-08  0.4534E-08  0.8990E-06  0.8973E-06  0.4613E-08  0.4534E-08  0.2424E-11  0.1587E-11  0.5060E-11  0.2613E-11  0.3111E-06  0.3052E-06  0.5060E-11  0.2613E-11  0.2861E-08  0.2867E-08
    -34.063  0.7042E-01  0.6994E-01  0.2330E-09  0.2286E-09  0.4543E-07  0.4527E-07  0.2330E-09  0.2286E-09  0.1228E-12  0.8015E-13  0.2560E-12  0.1319E-12  0.1571E-07  0.1539E-07  0.2560E-12  0.1319E-12  0.1445E-09  0.1446E-09
    -33.899  0.0000E+00  0.0000E+00  0.0000E+00  0.0000E+00  0.0000E+00  0.0000E+00  0.0000E+00  0.0000E+00  0.0000E+00  0.0000E+00  0.0000E+00  0.0000E+00  0.0000E+00  0.0000E+00  0.0000E+00  0.0000E+00  0.0000E+00  0.0000E+00
    -33.736  0.0000E+00  0.0000E+00  0.0000E+00  0.0000E+00  0.0000E+00  0.0000E+00  0.0000E+00  0.0000E+00  0.0000E+00  0.0000E+00  0.0000E+00  0.0000E+00  0.0000E+00  0.0000E+00  0.0000E+00  0.0000E+00  0.0000E+00  0.0000E+00
    -33.573  0.0000E+00  0.0000E+00  0.0000E+00  0.0000E+00  0.0000E+00  0.0000E+00  0.0000E+00  0.0000E+00  0.0000E+00  0.0000E+00  0.0000E+00  0.0000E+00  0.0000E+00  0.0000E+00  0.0000E+00  0.0000E+00  0.0000E+00  0.0000E+00
    -33.410  0.0000E+00  0.0000E+00  0.0000E+00  0.0000E+00  0.0000E+00  0.0000E+00  0.0000E+00  0.0000E+00  0.0000E+00  0.0000E+00  0.0000E+00  0.0000E+00  0.0000E+00  0.0000E+00  0.0000E+00  0.0000E+00  0.0000E+00  0.0000E+00
    -33.247  0.0000E+00  0.0000E+00  0.0000E+00  0.0000E+00  0.0000E+00  0.0000E+00  0.0000E+00  0.0000E+00  0.0000E+00  0.0000E+00  0.0000E+00  0.0000E+00  0.0000E+00  0.0000E+00  0.0000E+00  0.0000E+00  0.0000E+00  0.0000E+00
    -33.084  0.0000E+00  0.0000E+00  0.0000E+00  0.0000E+00  0.0000E+00  0.0000E+00  0.0000E+00  0.0000E+00  0.0000E+00  0.0000E+00  0.0000E+00  0.0000E+00  0.0000E+00  0.0000E+00  0.0000E+00  0.0000E+00  0.0000E+00  0.0000E+00
    -32.920  0.0000E+00  0.0000E+00  0.0000E+00  0.0000E+00  0.0000E+00  0.0000E+00  0.0000E+00  0.0000E+00  0.0000E+00  0.0000E+00  0.0000E+00  0.0000E+00  0.0000E+00  0.0000E+00  0.0000E+00  0.0000E+00  0.0000E+00  0.0000E+00
    -32.757  0.0000E+00  0.0000E+00  0.0000E+00  0.0000E+00  0.0000E+00  0.0000E+00  0.0000E+00  0.0000E+00  0.0000E+00  0.0000E+00  0.0000E+00  0.0000E+00  0.0000E+00  0.0000E+00  0.0000E+00  0.0000E+00  0.0000E+00  0.0000E+00
    -32.594  0.0000E+00  0.0000E+00  0.0000E+00  0.0000E+00  0.0000E+00  0.0000E+00  0.0000E+00  0.0000E+00  0.0000E+00  0.0000E+00  0.0000E+00  0.0000E+00  0.0000E+00  0.0000E+00  0.0000E+00  0.0000E+00  0.0000E+00  0.0000E+00
    -32.431  0.0000E+00  0.0000E+00  0.0000E+00  0.0000E+00  0.0000E+00  0.0000E+00  0.0000E+00  0.0000E+00  0.0000E+00  0.0000E+00  0.0000E+00  0.0000E+00  0.0000E+00  0.0000E+00  0.0000E+00  0.0000E+00  0.0000E+00  0.0000E+00
    -32.268  0.0000E+00  0.0000E+00  0.0000E+00  0.0000E+00  0.0000E+00  0.0000E+00  0.0000E+00  0.0000E+00  0.0000E+00  0.0000E+00  0.0000E+00  0.0000E+00  0.0000E+00  0.0000E+00  0.0000E+00  0.0000E+00  0.0000E+00  0.0000E+00
    -32.105  0.0000E+00  0.0000E+00  0.0000E+00  0.0000E+00  0.0000E+00  0.0000E+00  0.0000E+00  0.0000E+00  0.0000E+00  0.0000E+00  0.0000E+00  0.0000E+00  0.0000E+00  0.0000E+00  0.0000E+00  0.0000E+00  0.0000E+00  0.0000E+00
    -31.941  0.0000E+00  0.0000E+00  0.0000E+00  0.0000E+00  0.0000E+00  0.0000E+00  0.0000E+00  0.0000E+00  0.0000E+00  0.0000E+00  0.0000E+00  0.0000E+00  0.0000E+00  0.0000E+00  0.0000E+00  0.0000E+00  0.0000E+00  0.0000E+00
    -31.778  0.0000E+00  0.0000E+00  0.0000E+00  0.0000E+00  0.0000E+00  0.0000E+00  0.0000E+00  0.0000E+00  0.0000E+00  0.0000E+00  0.0000E+00  0.0000E+00  0.0000E+00  0.0000E+00  0.0000E+00  0.0000E+00  0.0000E+00  0.0000E+00
    -31.615  0.0000E+00  0.0000E+00  0.0000E+00  0.0000E+00  0.0000E+00  0.0000E+00  0.0000E+00  0.0000E+00  0.0000E+00  0.0000E+00  0.0000E+00  0.0000E+00  0.0000E+00  0.0000E+00  0.0000E+00  0.0000E+00  0.0000E+00  0.0000E+00
    -31.452  0.0000E+00  0.0000E+00  0.0000E+00  0.0000E+00  0.0000E+00  0.0000E+00  0.0000E+00  0.0000E+00  0.0000E+00  0.0000E+00  0.0000E+00  0.0000E+00  0.0000E+00  0.0000E+00  0.0000E+00  0.0000E+00  0.0000E+00  0.0000E+00
    -31.289  0.0000E+00  0.0000E+00  0.0000E+00  0.0000E+00  0.0000E+00  0.0000E+00  0.0000E+00  0.0000E+00  0.0000E+00  0.0000E+00  0.0000E+00  0.0000E+00  0.0000E+00  0.0000E+00  0.0000E+00  0.0000E+00  0.0000E+00  0.0000E+00
    -31.125  0.0000E+00  0.0000E+00  0.0000E+00  0.0000E+00  0.0000E+00  0.0000E+00  0.0000E+00  0.0000E+00  0.0000E+00  0.0000E+00  0.0000E+00  0.0000E+00  0.0000E+00  0.0000E+00  0.0000E+00  0.0000E+00  0.0000E+00  0.0000E+00
    -30.962  0.0000E+00  0.0000E+00  0.0000E+00  0.0000E+00  0.0000E+00  0.0000E+00  0.0000E+00  0.0000E+00  0.0000E+00  0.0000E+00  0.0000E+00  0.0000E+00  0.0000E+00  0.0000E+00  0.0000E+00  0.0000E+00  0.0000E+00  0.0000E+00
    -30.799  0.0000E+00  0.0000E+00  0.0000E+00  0.0000E+00  0.0000E+00  0.0000E+00  0.0000E+00  0.0000E+00  0.0000E+00  0.0000E+00  0.0000E+00  0.0000E+00  0.0000E+00  0.0000E+00  0.0000E+00  0.0000E+00  0.0000E+00  0.0000E+00
    -30.636  0.0000E+00  0.0000E+00  0.0000E+00  0.0000E+00  0.0000E+00  0.0000E+00  0.0000E+00  0.0000E+00  0.0000E+00  0.0000E+00  0.0000E+00  0.0000E+00  0.0000E+00  0.0000E+00  0.0000E+00  0.0000E+00  0.0000E+00  0.0000E+00
    -30.473  0.0000E+00  0.0000E+00  0.0000E+00  0.0000E+00  0.0000E+00  0.0000E+00  0.0000E+00  0.0000E+00  0.0000E+00  0.0000E+00  0.0000E+00  0.0000E+00  0.0000E+00  0.0000E+00  0.0000E+00  0.0000E+00  0.0000E+00  0.0000E+00
    -30.310  0.0000E+00  0.0000E+00  0.0000E+00  0.0000E+00  0.0000E+00  0.0000E+00  0.0000E+00  0.0000E+00  0.0000E+00  0.0000E+00  0.0000E+00  0.0000E+00  0.0000E+00  0.0000E+00  0.0000E+00  0.0000E+00  0.0000E+00  0.0000E+00
    -30.146  0.0000E+00  0.0000E+00  0.0000E+00  0.0000E+00  0.0000E+00  0.0000E+00  0.0000E+00  0.0000E+00  0.0000E+00  0.0000E+00  0.0000E+00  0.0000E+00  0.0000E+00  0.0000E+00  0.0000E+00  0.0000E+00  0.0000E+00  0.0000E+00
    -29.983  0.0000E+00  0.0000E+00  0.0000E+00  0.0000E+00  0.0000E+00  0.0000E+00  0.0000E+00  0.0000E+00  0.0000E+00  0.0000E+00  0.0000E+00  0.0000E+00  0.0000E+00  0.0000E+00  0.0000E+00  0.0000E+00  0.0000E+00  0.0000E+00
    -29.820  0.0000E+00  0.0000E+00  0.0000E+00  0.0000E+00  0.0000E+00  0.0000E+00  0.0000E+00  0.0000E+00  0.0000E+00  0.0000E+00  0.0000E+00  0.0000E+00  0.0000E+00  0.0000E+00  0.0000E+00  0.0000E+00  0.0000E+00  0.0000E+00
    -29.657  0.0000E+00  0.0000E+00  0.0000E+00  0.0000E+00  0.0000E+00  0.0000E+00  0.0000E+00  0.0000E+00  0.0000E+00  0.0000E+00  0.0000E+00  0.0000E+00  0.0000E+00  0.0000E+00  0.0000E+00  0.0000E+00  0.0000E+00  0.0000E+00
    -29.494  0.0000E+00  0.0000E+00  0.0000E+00  0.0000E+00  0.0000E+00  0.0000E+00  0.0000E+00  0.0000E+00  0.0000E+00  0.0000E+00  0.0000E+00  0.0000E+00  0.0000E+00  0.0000E+00  0.0000E+00  0.0000E+00  0.0000E+00  0.0000E+00
    -29.331  0.0000E+00  0.0000E+00  0.0000E+00  0.0000E+00  0.0000E+00  0.0000E+00  0.0000E+00  0.0000E+00  0.0000E+00  0.0000E+00  0.0000E+00  0.0000E+00  0.0000E+00  0.0000E+00  0.0000E+00  0.0000E+00  0.0000E+00  0.0000E+00
    -29.167  0.0000E+00  0.0000E+00  0.0000E+00  0.0000E+00  0.0000E+00  0.0000E+00  0.0000E+00  0.0000E+00  0.0000E+00  0.0000E+00  0.0000E+00  0.0000E+00  0.0000E+00  0.0000E+00  0.0000E+00  0.0000E+00  0.0000E+00  0.0000E+00
    -29.004  0.0000E+00  0.0000E+00  0.0000E+00  0.0000E+00  0.0000E+00  0.0000E+00  0.0000E+00  0.0000E+00  0.0000E+00  0.0000E+00  0.0000E+00  0.0000E+00  0.0000E+00  0.0000E+00  0.0000E+00  0.0000E+00  0.0000E+00  0.0000E+00
    -28.841  0.0000E+00  0.0000E+00  0.0000E+00  0.0000E+00  0.0000E+00  0.0000E+00  0.0000E+00  0.0000E+00  0.0000E+00  0.0000E+00  0.0000E+00  0.0000E+00  0.0000E+00  0.0000E+00  0.0000E+00  0.0000E+00  0.0000E+00  0.0000E+00
    -28.678  0.0000E+00  0.0000E+00  0.0000E+00  0.0000E+00  0.0000E+00  0.0000E+00  0.0000E+00  0.0000E+00  0.0000E+00  0.0000E+00  0.0000E+00  0.0000E+00  0.0000E+00  0.0000E+00  0.0000E+00  0.0000E+00  0.0000E+00  0.0000E+00
    -28.515  0.0000E+00  0.0000E+00  0.0000E+00  0.0000E+00  0.0000E+00  0.0000E+00  0.0000E+00  0.0000E+00  0.0000E+00  0.0000E+00  0.0000E+00  0.0000E+00  0.0000E+00  0.0000E+00  0.0000E+00  0.0000E+00  0.0000E+00  0.0000E+00