  16  16   1   0
  0.1484965E+02  0.3916095E-09  0.3916095E-09  0.1549279E-08  0.5000000E-15
  1.000000000000000E-004
  CAR 
 unknown system                          
     15.95527908    -32.98904613  301      8.47982313      1.00000000
    -32.989  0.0000E+00  0.0000E+00  0.0000E+00  0.0000E+00
    -32.826  0.0000E+00  0.0000E+00  0.0000E+00  0.0000E+00
    -32.663  0.0000E+00  0.0000E+00  0.0000E+00  0.0000E+00
    -32.500  0.0000E+00  0.0000E+00  0.0000E+00  0.0000E+00
    -32.336  0.0000E+00  0.0000E+00  0.0000E+00  0.0000E+00
    -32.173  0.0000E+00  0.0000E+00  0.0000E+00  0.0000E+00
    -32.010  0.0000E+00  0.0000E+00  0.0000E+00  0.0000E+00
    -31.847  0.0000E+00  0.0000E+00  0.0000E+00  0.0000E+00
    -31.684  0.0000E+00  0.0000E+00  0.0000E+00  0.0000E+00
    -31.521  0.0000E+00  0.0000E+00  0.0000E+00  0.0000E+00
    -31.358  0.0000E+00  0.0000E+00  0.0000E+00  0.0000E+00
    -31.194  0.3488E-02  0.3553E-02  0.5691E-03  0.5797E-03
    -31.031  0.8732E-01  0.8894E-01  0.1482E-01  0.1509E-01
    -30.868  0.2078E+01  0.2113E+01  0.3538E+00  0.3598E+00
    -30.705  0.1538E+02  0.1544E+02  0.2864E+01  0.2879E+01
    -30.542  0.6598E+01  0.6513E+01  0.3940E+01  0.3941E+01
    -30.379  0.3535E+00  0.3471E+00  0.3998E+01  0.3998E+01
    -30.216  0.0000E+00  0.0000E+00  0.4000E+01  0.4000E+01
    -30.052  0.0000E+00  0.0000E+00  0.4000E+01  0.4000E+01
    -29.889  0.0000E+00  0.0000E+00  0.4000E+01  0.4000E+01
    -29.726  0.0000E+00  0.0000E+00  0.4000E+01  0.4000E+01
    -29.563  0.0000E+00  0.0000E+00  0.4000E+01  0.4000E+01
    -29.400  0.0000E+00  0.0000E+00  0.4000E+01  0.4000E+01
    -29.237  0.0000E+00  0.0000E+00  0.4000E+01  0.4000E+01
    -29.074  0.0000E+00  0.0000E+00  0.4000E+01  0.4000E+01
    -28.910  0.0000E+00  0.0000E+00  0.4000E+01  0.4000E+01
    -28.747  0.0000E+00  0.0000E+00  0.4000E+01  0.4000E+01
    -28.584  0.0000E+00  0.0000E+00  0.4000E+01  0.4000E+01
    -28.421  0.0000E+00  0.0000E+00  0.4000E+01  0.4000E+01
    -28.258  0.0000E+00  0.0000E+00  0.4000E+01  0.4000E+01
    -28.095  0.0000E+00  0.0000E+00  0.4000E+01  0.4000E+01
    -27.931  0.0000E+00  0.0000E+00  0.4000E+01  0.4000E+01
    -27.768  0.0000E+00  0.0000E+00  0.4000E+01  0.4000E+01
    -27.605  0.0000E+00  0.0000E+00  0.4000E+01  0.4000E+01
    -27.442  0.0000E+00  0.0000E+00  0.4000E+01  0.4000E+01
    -27.279  0.0000E+00  0.0000E+00  0.4000E+01  0.4000E+01
    -27.116  0.0000E+00  0.0000E+00  0.4000E+01  0.4000E+01
    -26.953  0.0000E+00  0.0000E+00  0.4000E+01  0.4000E+01
    -26.789  0.0000E+00  0.0000E+00  0.4000E+01  0.4000E+01
    -26.626  0.0000E+00  0.0000E+00  0.4000E+01  0.4000E+01
    -26.463  0.0000E+00  0.0000E+00  0.4000E+01  0.4000E+01
    -26.300  0.0000E+00  0.0000E+00  0.4000E+01  0.4000E+01
    -26.137  0.0000E+00  0.0000E+00  0.4000E+01  0.4000E+01
    -25.974  0.0000E+00  0.0000E+00  0.4000E+01  0.4000E+01
    -25.811  0.0000E+00  0.0000E+00  0.4000E+01  0.4000E+01
    -25.647  0.0000E+00  0.0000E+00  0.4000E+01  0.4000E+01
    -25.484  0.0000E+00  0.0000E+00  0.4000E+01  0.4000E+01
    -25.321  0.0000E+00  0.0000E+00  0.4000E+01  0.4000E+01
    -25.158  0.0000E+00  0.0000E+00  0.4000E+01  0.4000E+01
    -24.995  0.0000E+00  0.0000E+00  0.4000E+01  0.4000E+01
    -24.832  0.0000E+00  0.0000E+00  0.4000E+01  0.4000E+01
    -24.669  0.0000E+00  0.0000E+00  0.4000E+01  0.4000E+01
    -24.505  0.0000E+00  0.0000E+00  0.4000E+01  0.4000E+01
    -24.342  0.0000E+00  0.0000E+00  0.4000E+01  0.4000E+01
    -24.179  0.0000E+00  0.0000E+00  0.4000E+01  0.4000E+01
    -24.016  0.0000E+00  0.0000E+00  0.4000E+01  0.4000E+01
    -23.853  0.0000E+00  0.0000E+00  0.4000E+01  0.4000E+01
    -23.690  0.0000E+00  0.0000E+00  0.4000E+01  0.4000E+01
    -23.526  0.0000E+00  0.0000E+00  0.4000E+01  0.4000E+01
    -23.363  0.0000E+00  0.0000E+00  0.4000E+01  0.4000E+01
    -23.200  0.0000E+00  0.0000E+00  0.4000E+01  0.4000E+01
    -23.037  0.0000E+00  0.0000E+00  0.4000E+01  0.4000E+01
    -22.874  0.0000E+00  0.0000E+00  0.4000E+01  0.4000E+01
    -22.711  0.0000E+00  0.0000E+00  0.4000E+01  0.4000E+01
    -22.548  0.0000E+00  0.0000E+00  0.4000E+01  0.4000E+01
    -22.384  0.0000E+00  0.0000E+00  0.4000E+01  0.4000E+01
    -22.221  0.0000E+00  0.0000E+00  0.4000E+01  0.4000E+01
    -22.058  0.0000E+00  0.0000E+00  0.4000E+01  0.4000E+01
    -21.895  0.0000E+00  0.0000E+00  0.4000E+01  0.4000E+01
    -21.732  0.0000E+00  0.0000E+00  0.4000E+01  0.4000E+01
    -21.569  0.0000E+00  0.0000E+00  0.4000E+01  0.4000E+01
    -21.406  0.0000E+00  0.0000E+00  0.4000E+01  0.4000E+01
    -21.242  0.0000E+00  0.0000E+00  0.4000E+01  0.4000E+01
    -21.079  0.0000E+00  0.0000E+00  0.4000E+01  0.4000E+01
    -20.916  0.0000E+00  0.0000E+00  0.4000E+01  0.4000E+01
    -20.753  0.0000E+00  0.0000E+00  0.4000E+01  0.4000E+01
    -20.590  0.0000E+00  0.0000E+00  0.4000E+01  0.4000E+01
    -20.427  0.0000E+00  0.0000E+00  0.4000E+01  0.4000E+01
    -20.264  0.0000E+00  0.0000E+00  0.4000E+01  0.4000E+01
    -20.100  0.0000E+00  0.0000E+00  0.4000E+01  0.4000E+01
    -19.937  0.0000E+00  0.0000E+00  0.4000E+01  0.4000E+01
    -19.774  0.0000E+00  0.0000E+00  0.4000E+01  0.4000E+01
    -19.611  0.0000E+00  0.0000E+00  0.4000E+01  0.4000E+01
    -19.448  0.0000E+00  0.0000E+00  0.4000E+01  0.4000E+01
    -19.285  0.0000E+00  0.0000E+00  0.4000E+01  0.4000E+01
    -19.121  0.0000E+00  0.0000E+00  0.4000E+01  0.4000E+01
    -18.958  0.0000E+00  0.0000E+00  0.4000E+01  0.4000E+01
    -18.795  0.0000E+00  0.0000E+00  0.4000E+01  0.4000E+01
    -18.632  0.0000E+00  0.0000E+00  0.4000E+01  0.4000E+01
    -18.469  0.0000E+00  0.0000E+00  0.4000E+01  0.4000E+01
    -18.306  0.0000E+00  0.0000E+00  0.4000E+01  0.4000E+01
    -18.143  0.0000E+00  0.0000E+00  0.4000E+01  0.4000E+01
    -17.979  0.0000E+00  0.0000E+00  0.4000E+01  0.4000E+01
    -17.816  0.0000E+00  0.0000E+00  0.4000E+01  0.4000E+01
    -17.653  0.0000E+00  0.0000E+00  0.4000E+01  0.4000E+01
    -17.490  0.0000E+00  0.0000E+00  0.4000E+01  0.4000E+01
    -17.327  0.0000E+00  0.0000E+00  0.4000E+01  0.4000E+01
    -17.164  0.0000E+00  0.0000E+00  0.4000E+01  0.4000E+01
    -17.001  0.0000E+00  0.0000E+00  0.4000E+01  0.4000E+01
    -16.837  0.0000E+00  0.0000E+00  0.4000E+01  0.4000E+01
    -16.674  0.0000E+00  0.0000E+00  0.4000E+01  0.4000E+01
    -16.511  0.0000E+00  0.0000E+00  0.4000E+01  0.4000E+01
    -16.348  0.0000E+00  0.0000E+00  0.4000E+01  0.4000E+01
    -16.185  0.0000E+00  0.0000E+00  0.4000E+01  0.4000E+01
    -16.022  0.0000E+00  0.0000E+00  0.4000E+01  0.4000E+01
    -15.859  0.0000E+00  0.0000E+00  0.4000E+01  0.4000E+01
    -15.695  0.0000E+00  0.0000E+00  0.4000E+01  0.4000E+01
    -15.532  0.0000E+00  0.0000E+00  0.4000E+01  0.4000E+01
    -15.369  0.0000E+00  0.0000E+00  0.4000E+01  0.4000E+01
    -15.206  0.0000E+00  0.0000E+00  0.4000E+01  0.4000E+01
    -15.043  0.0000E+00  0.0000E+00  0.4000E+01  0.4000E+01
    -14.880  0.0000E+00  0.0000E+00  0.4000E+01  0.4000E+01
    -14.716  0.0000E+00  0.0000E+00  0.4000E+01  0.4000E+01
    -14.553  0.0000E+00  0.0000E+00  0.4000E+01  0.4000E+01
    -14.390  0.0000E+00  0.0000E+00  0.4000E+01  0.4000E+01
    -14.227  0.0000E+00  0.0000E+00  0.4000E+01  0.4000E+01
    -14.064  0.0000E+00  0.0000E+00  0.4000E+01  0.4000E+01
    -13.901  0.0000E+00  0.0000E+00  0.4000E+01  0.4000E+01
    -13.738  0.0000E+00  0.0000E+00  0.4000E+01  0.4000E+01
    -13.574  0.0000E+00  0.0000E+00  0.4000E+01  0.4000E+01
    -13.411  0.0000E+00  0.0000E+00  0.4000E+01  0.4000E+01
    -13.248  0.0000E+00  0.0000E+00  0.4000E+01  0.4000E+01
    -13.085  0.0000E+00  0.0000E+00  0.4000E+01  0.4000E+01
    -12.922  0.0000E+00  0.0000E+00  0.4000E+01  0.4000E+01
    -12.759  0.1208E-03  0.1296E-03  0.4000E+01  0.4000E+01
    -12.596  0.8301E-02  0.8424E-02  0.4001E+01  0.4001E+01
    -12.432  0.2130E+00  0.2163E+00  0.4036E+01  0.4037E+01
    -12.269  0.4701E+01  0.4763E+01  0.4803E+01  0.4814E+01
    -12.106  0.3144E+02  0.3158E+02  0.9933E+01  0.9966E+01
    -11.943  0.3203E+02  0.3189E+02  0.1516E+02  0.1517E+02
    -11.780  0.4861E+01  0.4800E+01  0.1596E+02  0.1596E+02
    -11.617  0.1027E+00  0.9939E-01  0.1600E+02  0.1600E+02
    -11.454  0.0000E+00  0.0000E+00  0.1600E+02  0.1600E+02
    -11.290  0.0000E+00  0.0000E+00  0.1600E+02  0.1600E+02
    -11.127  0.0000E+00  0.0000E+00  0.1600E+02  0.1600E+02
    -10.964  0.0000E+00  0.0000E+00  0.1600E+02  0.1600E+02
    -10.801  0.0000E+00  0.0000E+00  0.1600E+02  0.1600E+02
    -10.638  0.0000E+00  0.0000E+00  0.1600E+02  0.1600E+02
    -10.475  0.0000E+00  0.0000E+00  0.1600E+02  0.1600E+02
    -10.312  0.0000E+00  0.0000E+00  0.1600E+02  0.1600E+02
    -10.148  0.0000E+00  0.0000E+00  0.1600E+02  0.1600E+02
     -9.985  0.0000E+00  0.0000E+00  0.1600E+02  0.1600E+02
     -9.822  0.0000E+00  0.0000E+00  0.1600E+02  0.1600E+02
     -9.659  0.0000E+00  0.0000E+00  0.1600E+02  0.1600E+02
     -9.496  0.0000E+00  0.0000E+00  0.1600E+02  0.1600E+02
     -9.333  0.0000E+00  0.0000E+00  0.1600E+02  0.1600E+02
     -9.169  0.0000E+00  0.0000E+00  0.1600E+02  0.1600E+02
     -9.006  0.0000E+00  0.0000E+00  0.1600E+02  0.1600E+02
     -8.843  0.0000E+00  0.0000E+00  0.1600E+02  0.1600E+02
     -8.680  0.0000E+00  0.0000E+00  0.1600E+02  0.1600E+02
     -8.517  0.0000E+00  0.0000E+00  0.1600E+02  0.1600E+02
     -8.354  0.0000E+00  0.0000E+00  0.1600E+02  0.1600E+02
     -8.191  0.0000E+00  0.0000E+00  0.1600E+02  0.1600E+02
     -8.027  0.0000E+00  0.0000E+00  0.1600E+02  0.1600E+02
     -7.864  0.0000E+00  0.0000E+00  0.1600E+02  0.1600E+02
     -7.701  0.0000E+00  0.0000E+00  0.1600E+02  0.1600E+02
     -7.538  0.0000E+00  0.0000E+00  0.1600E+02  0.1600E+02
     -7.375  0.0000E+00  0.0000E+00  0.1600E+02  0.1600E+02
     -7.212  0.0000E+00  0.0000E+00  0.1600E+02  0.1600E+02
     -7.049  0.0000E+00  0.0000E+00  0.1600E+02  0.1600E+02
     -6.885  0.0000E+00  0.0000E+00  0.1600E+02  0.1600E+02
     -6.722  0.0000E+00  0.0000E+00  0.1600E+02  0.1600E+02
     -6.559  0.0000E+00  0.0000E+00  0.1600E+02  0.1600E+02
     -6.396  0.0000E+00  0.0000E+00  0.1600E+02  0.1600E+02
     -6.233  0.0000E+00  0.0000E+00  0.1600E+02  0.1600E+02
     -6.070  0.0000E+00  0.0000E+00  0.1600E+02  0.1600E+02
     -5.907  0.0000E+00  0.0000E+00  0.1600E+02  0.1600E+02
     -5.743  0.0000E+00  0.0000E+00  0.1600E+02  0.1600E+02
     -5.580  0.0000E+00  0.0000E+00  0.1600E+02  0.1600E+02
     -5.417  0.0000E+00  0.0000E+00  0.1600E+02  0.1600E+02
     -5.254  0.0000E+00  0.0000E+00  0.1600E+02  0.1600E+02
     -5.091  0.0000E+00  0.0000E+00  0.1600E+02  0.1600E+02
     -4.928  0.0000E+00  0.0000E+00  0.1600E+02  0.1600E+02
     -4.764  0.0000E+00  0.0000E+00  0.1600E+02  0.1600E+02
     -4.601  0.0000E+00  0.0000E+00  0.1600E+02  0.1600E+02
     -4.438  0.0000E+00  0.0000E+00  0.1600E+02  0.1600E+02
     -4.275  0.0000E+00  0.0000E+00  0.1600E+02  0.1600E+02
     -4.112  0.0000E+00  0.0000E+00  0.1600E+02  0.1600E+02
     -3.949  0.0000E+00  0.0000E+00  0.1600E+02  0.1600E+02
     -3.786  0.0000E+00  0.0000E+00  0.1600E+02  0.1600E+02
     -3.622  0.0000E+00  0.0000E+00  0.1600E+02  0.1600E+02
     -3.459  0.0000E+00  0.0000E+00  0.1600E+02  0.1600E+02
     -3.296  0.0000E+00  0.0000E+00  0.1600E+02  0.1600E+02
     -3.133  0.0000E+00  0.0000E+00  0.1600E+02  0.1600E+02
     -2.970  0.0000E+00  0.0000E+00  0.1600E+02  0.1600E+02
     -2.807  0.0000E+00  0.0000E+00  0.1600E+02  0.1600E+02
     -2.644  0.0000E+00  0.0000E+00  0.1600E+02  0.1600E+02
     -2.480  0.1753E-06  0.1760E-06  0.1600E+02  0.1600E+02
     -2.317  0.1508E-04  0.1514E-04  0.1600E+02  0.1600E+02
     -2.154  0.4046E-03  0.4061E-03  0.1600E+02  0.1600E+02
     -1.991  0.9663E-02  0.9696E-02  0.1600E+02  0.1600E+02
     -1.828  0.1070E+00  0.1072E+00  0.1602E+02  0.1602E+02
     -1.665  0.2804E+00  0.2806E+00  0.1606E+02  0.1606E+02
     -1.502  0.4716E+00  0.4718E+00  0.1614E+02  0.1614E+02
     -1.338  0.5356E+00  0.5359E+00  0.1623E+02  0.1623E+02
     -1.175  0.6359E+00  0.6358E+00  0.1633E+02  0.1633E+02
     -1.012  0.6135E+00  0.6134E+00  0.1643E+02  0.1643E+02
     -0.849  0.6521E+00  0.6523E+00  0.1654E+02  0.1654E+02
     -0.686  0.7867E+00  0.7867E+00  0.1667E+02  0.1667E+02
     -0.523  0.8370E+00  0.8369E+00  0.1681E+02  0.1681E+02
     -0.359  0.9266E+00  0.9267E+00  0.1696E+02  0.1696E+02
     -0.196  0.1050E+01  0.1050E+01  0.1713E+02  0.1713E+02
     -0.033  0.1121E+01  0.1121E+01  0.1731E+02  0.1731E+02
      0.130  0.1184E+01  0.1183E+01  0.1751E+02  0.1751E+02
      0.293  0.1254E+01  0.1254E+01  0.1771E+02  0.1771E+02
      0.456  0.1545E+01  0.1545E+01  0.1796E+02  0.1796E+02
      0.619  0.1570E+01  0.1569E+01  0.1822E+02  0.1822E+02
      0.783  0.1582E+01  0.1582E+01  0.1848E+02  0.1848E+02
      0.946  0.1645E+01  0.1645E+01  0.1875E+02  0.1875E+02
      1.109  0.1673E+01  0.1673E+01  0.1902E+02  0.1902E+02
      1.272  0.1699E+01  0.1699E+01  0.1930E+02  0.1930E+02
      1.435  0.1672E+01  0.1672E+01  0.1957E+02  0.1957E+02
      1.598  0.1669E+01  0.1669E+01  0.1985E+02  0.1984E+02
      1.761  0.1686E+01  0.1687E+01  0.2012E+02  0.2012E+02
      1.925  0.1897E+01  0.1898E+01  0.2043E+02  0.2043E+02
      2.088  0.1666E+01  0.1665E+01  0.2070E+02  0.2070E+02
      2.251  0.1478E+01  0.1479E+01  0.2095E+02  0.2095E+02
      2.414  0.1608E+01  0.1608E+01  0.2121E+02  0.2121E+02
      2.577  0.1720E+01  0.1721E+01  0.2149E+02  0.2149E+02
      2.740  0.1848E+01  0.1847E+01  0.2179E+02  0.2179E+02
      2.903  0.1920E+01  0.1920E+01  0.2211E+02  0.2211E+02
      3.067  0.1481E+01  0.1482E+01  0.2235E+02  0.2235E+02
      3.230  0.1730E+01  0.1731E+01  0.2263E+02  0.2263E+02
      3.393  0.1937E+01  0.1937E+01  0.2295E+02  0.2295E+02
      3.556  0.2115E+01  0.2117E+01  0.2329E+02  0.2329E+02
      3.719  0.2320E+01  0.2320E+01  0.2367E+02  0.2367E+02
      3.882  0.2508E+01  0.2510E+01  0.2408E+02  0.2408E+02
      4.045  0.2598E+01  0.2597E+01  0.2451E+02  0.2451E+02
      4.209  0.2129E+01  0.2128E+01  0.2486E+02  0.2486E+02
      4.372  0.2411E+01  0.2411E+01  0.2525E+02  0.2525E+02
      4.535  0.2210E+01  0.2211E+01  0.2561E+02  0.2561E+02
      4.698  0.2297E+01  0.2299E+01  0.2599E+02  0.2599E+02
      4.861  0.2663E+01  0.2661E+01  0.2642E+02  0.2642E+02
      5.024  0.2178E+01  0.2178E+01  0.2678E+02  0.2678E+02
      5.188  0.2303E+01  0.2305E+01  0.2716E+02  0.2716E+02
      5.351  0.2248E+01  0.2247E+01  0.2752E+02  0.2752E+02
      5.514  0.2543E+01  0.2545E+01  0.2794E+02  0.2794E+02
      5.677  0.2823E+01  0.2824E+01  0.2840E+02  0.2840E+02
      5.840  0.3013E+01  0.3011E+01  0.2889E+02  0.2889E+02
      6.003  0.3322E+01  0.3324E+01  0.2944E+02  0.2944E+02
      6.166  0.3154E+01  0.3154E+01  0.2995E+02  0.2995E+02
      6.330  0.3310E+01  0.3311E+01  0.3049E+02  0.3050E+02
      6.493  0.4403E+01  0.4406E+01  0.3121E+02  0.3122E+02
      6.656  0.4831E+01  0.4829E+01  0.3200E+02  0.3200E+02
      6.819  0.4597E+01  0.4597E+01  0.3275E+02  0.3276E+02
      6.982  0.4680E+01  0.4678E+01  0.3352E+02  0.3352E+02
      7.145  0.3226E+01  0.3226E+01  0.3405E+02  0.3405E+02
      7.308  0.3234E+01  0.3232E+01  0.3458E+02  0.3458E+02
      7.472  0.3067E+01  0.3066E+01  0.3508E+02  0.3508E+02
      7.635  0.2405E+01  0.2405E+01  0.3547E+02  0.3547E+02
      7.798  0.2264E+01  0.2265E+01  0.3584E+02  0.3585E+02
      7.961  0.2492E+01  0.2496E+01  0.3625E+02  0.3625E+02
      8.124  0.3250E+01  0.3255E+01  0.3678E+02  0.3679E+02
      8.287  0.3744E+01  0.3741E+01  0.3739E+02  0.3740E+02
      8.450  0.3091E+01  0.3092E+01  0.3790E+02  0.3790E+02
      8.614  0.3207E+01  0.3205E+01  0.3843E+02  0.3843E+02
      8.777  0.2749E+01  0.2748E+01  0.3888E+02  0.3888E+02
      8.940  0.3094E+01  0.3095E+01  0.3938E+02  0.3938E+02
      9.103  0.3478E+01  0.3475E+01  0.3995E+02  0.3995E+02
      9.266  0.3557E+01  0.3558E+01  0.4053E+02  0.4053E+02
      9.429  0.2941E+01  0.2937E+01  0.4101E+02  0.4101E+02
      9.593  0.2540E+01  0.2539E+01  0.4143E+02  0.4143E+02
      9.756  0.2395E+01  0.2395E+01  0.4182E+02  0.4182E+02
      9.919  0.2540E+01  0.2540E+01  0.4224E+02  0.4224E+02
     10.082  0.2957E+01  0.2958E+01  0.4272E+02  0.4272E+02
     10.245  0.3217E+01  0.3218E+01  0.4325E+02  0.4325E+02
     10.408  0.3173E+01  0.3173E+01  0.4376E+02  0.4377E+02
     10.571  0.2882E+01  0.2882E+01  0.4424E+02  0.4424E+02
     10.735  0.2471E+01  0.2471E+01  0.4464E+02  0.4464E+02
     10.898  0.3129E+01  0.3131E+01  0.4515E+02  0.4515E+02
     11.061  0.3020E+01  0.3016E+01  0.4565E+02  0.4565E+02
     11.224  0.3807E+01  0.3763E+01  0.4627E+02  0.4626E+02
     11.387  0.3831E+01  0.3805E+01  0.4690E+02  0.4688E+02
     11.550  0.4369E+01  0.4383E+01  0.4761E+02  0.4760E+02
     11.713  0.4254E+01  0.4309E+01  0.4831E+02  0.4831E+02
     11.877  0.3268E+01  0.3245E+01  0.4884E+02  0.4884E+02
     12.040  0.3391E+01  0.3382E+01  0.4940E+02  0.4939E+02
     12.203  0.3064E+01  0.3094E+01  0.4990E+02  0.4990E+02
     12.366  0.2894E+01  0.2815E+01  0.5037E+02  0.5036E+02
     12.529  0.2012E+01  0.2015E+01  0.5070E+02  0.5069E+02
     12.692  0.1381E+01  0.1550E+01  0.5093E+02  0.5094E+02
     12.855  0.1675E+01  0.1865E+01  0.5120E+02  0.5125E+02
     13.019  0.1391E+01  0.1375E+01  0.5143E+02  0.5147E+02
     13.182  0.1032E+01  0.9564E+00  0.5160E+02  0.5163E+02
     13.345  0.1024E+01  0.1023E+01  0.5176E+02  0.5180E+02
     13.508  0.7189E+00  0.8494E+00  0.5188E+02  0.5194E+02
     13.671  0.5614E+00  0.3376E+00  0.5197E+02  0.5199E+02
     13.834  0.1433E+00  0.4840E-01  0.5200E+02  0.5200E+02
     13.998  0.7764E-02  0.1384E-02  0.5200E+02  0.5200E+02
     14.161  0.0000E+00  0.0000E+00  0.5200E+02  0.5200E+02
     14.324  0.0000E+00  0.0000E+00  0.5200E+02  0.5200E+02
     14.487  0.0000E+00  0.0000E+00  0.5200E+02  0.5200E+02
     14.650  0.0000E+00  0.0000E+00  0.5200E+02  0.5200E+02
     14.813  0.0000E+00  0.0000E+00  0.5200E+02  0.5200E+02
     14.976  0.0000E+00  0.0000E+00  0.5200E+02  0.5200E+02
     15.140  0.0000E+00  0.0000E+00  0.5200E+02  0.5200E+02
     15.303  0.0000E+00  0.0000E+00  0.5200E+02  0.5200E+02
     15.466  0.0000E+00  0.0000E+00  0.5200E+02  0.5200E+02
     15.629  0.0000E+00  0.0000E+00  0.5200E+02  0.5200E+02
     15.792  0.0000E+00  0.0000E+00  0.5200E+02  0.5200E+02
     15.955  0.0000E+00  0.0000E+00  0.5200E+02  0.5200E+02
     15.95527908    -32.98904613  301      8.47982313      1.00000000
    -32.989  0.0000E+00  0.0000E+00  0.0000E+00  0.0000E+00  0.0000E+00  0.0000E+00  0.0000E+00  0.0000E+00  0.0000E+00  0.0000E+00  0.0000E+00  0.0000E+00  0.0000E+00  0.0000E+00  0.0000E+00  0.0000E+00  0.0000E+00  0.0000E+00
    -32.826  0.0000E+00  0.0000E+00  0.0000E+00  0.0000E+00  0.0000E+00  0.0000E+00  0.0000E+00  0.0000E+00  0.0000E+00  0.0000E+00  0.0000E+00  0.0000E+00  0.0000E+00  0.0000E+00  0.0000E+00  0.0000E+00  0.0000E+00  0.0000E+00
    -32.663  0.0000E+00  0.0000E+00  0.0000E+00  0.0000E+00  0.0000E+00  0.0000E+00  0.0000E+00  0.0000E+00  0.0000E+00  0.0000E+00  0.0000E+00  0.0000E+00  0.0000E+00  0.0000E+00  0.0000E+00  0.0000E+00  0.0000E+00  0.0000E+00
    -32.500  0.0000E+00  0.0000E+00  0.0000E+00  0.0000E+00  0.0000E+00  0.0000E+00  0.0000E+00  0.0000E+00  0.0000E+00  0.0000E+00  0.0000E+00  0.0000E+00  0.0000E+00  0.0000E+00  0.0000E+00  0.0000E+00  0.0000E+00  0.0000E+00
    -32.336  0.0000E+00  0.0000E+00  0.0000E+00  0.0000E+00  0.0000E+00  0.0000E+00  0.0000E+00  0.0000E+00  0.0000E+00  0.0000E+00  0.0000E+00  0.0000E+00  0.0000E+00  0.0000E+00  0.0000E+00  0.0000E+00  0.0000E+00  0.0000E+00
    -32.173  0.0000E+00  0.0000E+00  0.0000E+00  0.0000E+00  0.0000E+00  0.0000E+00  0.0000E+00  0.0000E+00  0.0000E+00  0.0000E+00  0.0000E+00  0.0000E+00  0.0000E+00  0.0000E+00  0.0000E+00  0.0000E+00  0.0000E+00  0.0000E+00
    -32.010  0.0000E+00  0.0000E+00  0.0000E+00  0.0000E+00  0.0000E+00  0.0000E+00  0.0000E+00  0.0000E+00  0.0000E+00  0.0000E+00  0.0000E+00  0.0000E+00  0.0000E+00  0.0000E+00  0.0000E+00  0.0000E+00  0.0000E+00  0.0000E+00
    -31.847  0.0000E+00  0.0000E+00  0.0000E+00  0.0000E+00  0.0000E+00  0.0000E+00  0.0000E+00  0.0000E+00  0.0000E+00  0.0000E+00  0.0000E+00  0.0000E+00  0.0000E+00  0.0000E+00  0.0000E+00  0.0000E+00  0.0000E+00  0.0000E+00
    -31.684  0.0000E+00  0.0000E+00  0.0000E+00  0.0000E+00  0.0000E+00  0.0000E+00  0.0000E+00  0.0000E+00  0.0000E+00  0.0000E+00  0.0000E+00  0.0000E+00  0.0000E+00  0.0000E+00  0.0000E+00  0.0000E+00  0.0000E+00  0.0000E+00
    -31.521  0.0000E+00  0.0000E+00  0.0000E+00  0.0000E+00  0.0000E+00  0.0000E+00  0.0000E+00  0.0000E+00  0.0000E+00  0.0000E+00  0.0000E+00  0.0000E+00  0.0000E+00  0.0000E+00  0.0000E+00  0.0000E+00  0.0000E+00  0.0000E+00
    -31.358  0.0000E+00  0.0000E+00  0.0000E+00  0.0000E+00  0.0000E+00  0.0000E+00  0.0000E+00  0.0000E+00  0.0000E+00  0.0000E+00  0.0000E+00  0.0000E+00  0.0000E+00  0.0000E+00  0.0000E+00  0.0000E+00  0.0000E+00  0.0000E+00
    -31.194  0.8571E-03  0.8730E-03  0.8227E-10  0.8379E-10  0.3906E-09  0.3970E-09  0.8227E-10  0.8379E-10  0.4799E-13  0.5640E-13  0.1553E-12  0.1764E-12  0.6202E-09  0.6372E-09  0.1553E-12  0.1764E-12  0.5167E-10  0.5217E-10
    -31.031  0.2145E-01  0.2185E-01  0.2059E-08  0.2097E-08  0.9780E-08  0.9938E-08  0.2059E-08  0.2097E-08  0.1201E-11  0.1412E-11  0.3889E-11  0.4415E-11  0.1553E-07  0.1595E-07  0.3889E-11  0.4415E-11  0.1293E-08  0.1306E-08
    -30.868  0.5106E+00  0.5192E+00  0.4900E-07  0.4982E-07  0.2337E-06  0.2371E-06  0.4900E-07  0.4982E-07  0.2864E-10  0.3363E-10  0.9261E-10  0.1050E-09  0.3695E-06  0.3790E-06  0.9261E-10  0.1050E-09  0.3080E-07  0.3105E-07
    -30.705  0.3780E+01  0.3793E+01  0.3615E-06  0.3628E-06  0.1785E-05  0.1787E-05  0.3615E-06  0.3628E-06  0.2150E-09  0.2503E-09  0.6882E-09  0.7688E-09  0.2736E-05  0.2770E-05  0.6882E-09  0.7688E-09  0.2286E-06  0.2274E-06
    -30.542  0.1621E+01  0.1600E+01  0.1542E-06  0.1522E-06  0.7956E-06  0.7830E-06  0.1542E-06  0.1522E-06  0.9375E-10  0.1080E-09  0.2957E-09  0.3244E-09  0.1174E-05  0.1169E-05  0.2957E-09  0.3244E-09  0.9792E-07  0.9580E-07
    -30.379  0.8687E-01  0.8530E-01  0.8245E-08  0.8097E-08  0.4313E-07  0.4221E-07  0.8245E-08  0.8097E-08  0.5049E-11  0.5793E-11  0.1584E-10  0.1728E-10  0.6288E-07  0.6228E-07  0.1584E-10  0.1728E-10  0.5238E-08  0.5098E-08
    -30.216  0.0000E+00  0.0000E+00  0.0000E+00  0.0000E+00  0.0000E+00  0.0000E+00  0.0000E+00  0.0000E+00  0.0000E+00  0.0000E+00  0.0000E+00  0.0000E+00  0.0000E+00  0.0000E+00  0.0000E+00  0.0000E+00  0.0000E+00  0.0000E+00
    -30.052  0.0000E+00  0.0000E+00  0.0000E+00  0.0000E+00  0.0000E+00  0.0000E+00  0.0000E+00  0.0000E+00  0.0000E+00  0.0000E+00  0.0000E+00  0.0000E+00  0.0000E+00  0.0000E+00  0.0000E+00  0.0000E+00  0.0000E+00  0.0000E+00
    -29.889  0.0000E+00  0.0000E+00  0.0000E+00  0.0000E+00  0.0000E+00  0.0000E+00  0.0000E+00  0.0000E+00  0.0000E+00  0.0000E+00  0.0000E+00  0.0000E+00  0.0000E+00  0.0000E+00  0.0000E+00  0.0000E+00  0.0000E+00  0.0000E+00
    -29.726  0.0000E+00  0.0000E+00  0.0000E+00  0.0000E+00  0.0000E+00  0.0000E+00  0.0000E+00  0.0000E+00  0.0000E+00  0.0000E+00  0.0000E+00  0.0000E+00  0.0000E+00  0.0000E+00  0.0000E+00  0.0000E+00  0.0000E+00  0.0000E+00
    -29.563  0.0000E+00  0.0000E+00  0.0000E+00  0.0000E+00  0.0000E+00  0.0000E+00  0.0000E+00  0.0000E+00  0.0000E+00  0.0000E+00  0.0000E+00  0.0000E+00  0.0000E+00  0.0000E+00  0.0000E+00  0.0000E+00  0.0000E+00  0.0000E+00
    -29.400  0.0000E+00  0.0000E+00  0.0000E+00  0.0000E+00  0.0000E+00  0.0000E+00  0.0000E+00  0.0000E+00  0.0000E+00  0.0000E+00  0.0000E+00  0.0000E+00  0.0000E+00  0.0000E+00  0.0000E+00  0.0000E+00  0.0000E+00  0.0000E+00
    -29.237  0.0000E+00  0.0000E+00  0.0000E+00  0.0000E+00  0.0000E+00  0.0000E+00  0.0000E+00  0.0000E+00  0.0000E+00  0.0000E+00  0.0000E+00  0.0000E+00  0.0000E+00  0.0000E+00  0.0000E+00  0.0000E+00  0.0000E+00  0.0000E+00
    -29.074  0.0000E+00  0.0000E+00  0.0000E+00  0.0000E+00  0.0000E+00  0.0000E+00  0.0000E+00  0.0000E+00  0.0000E+00  0.0000E+00  0.0000E+00  0.0000E+00  0.0000E+00  0.0000E+00  0.0000E+00  0.0000E+00  0.0000E+00  0.0000E+00
    -28.910  0.0000E+00  0.0000E+00  0.0000E+00  0.0000E+00  0.0000E+00  0.0000E+00  0.0000E+00  0.0000E+00  0.0000E+00  0.0000E+00  0.0000E+00  0.0000E+00  0.0000E+00  0.0000E+00  0.0000E+00  0.0000E+00  0.0000E+00  0.0000E+00
    -28.747  0.0000E+00  0.0000E+00  0.0000E+00  0.0000E+00  0.0000E+00  0.0000E+00  0.0000E+00  0.0000E+00  0.0000E+00  0.0000E+00  0.0000E+00  0.0000E+00  0.0000E+00  0.0000E+00  0.0000E+00  0.0000E+00  0.0000E+00  0.0000E+00
    -28.584  0.0000E+00  0.0000E+00  0.0000E+00  0.0000E+00  0.0000E+00  0.0000E+00  0.0000E+00  0.0000E+00  0.0000E+00  0.0000E+00  0.0000E+00  0.0000E+00  0.0000E+00  0.0000E+00  0.0000E+00  0.0000E+00  0.0000E+00  0.0000E+00
    -28.421  0.0000E+00  0.0000E+00  0.0000E+00  0.0000E+00  0.0000E+00  0.0000E+00  0.0000E+00  0.0000E+00  0.0000E+00  0.0000E+00  0.0000E+00  0.0000E+00  0.0000E+00  0.0000E+00  0.0000E+00  0.0000E+00  0.0000E+00  0.0000E+00
    -28.258  0.0000E+00  0.0000E+00  0.0000E+00  0.0000E+00  0.0000E+00  0.0000E+00  0.0000E+00  0.0000E+00  0.0000E+00  0.0000E+00  0.0000E+00  0.0000E+00  0.0000E+00  0.0000E+00  0.0000E+00  0.0000E+00  0.0000E+00  0.0000E+00
    -28.095  0.0000E+00  0.0000E+00  0.0000E+00  0.0000E+00  0.0000E+00  0.0000E+00  0.0000E+00  0.0000E+00  0.0000E+00  0.0000E+00  0.0000E+00  0.0000E+00  0.0000E+00  0.0000E+00  0.0000E+00  0.0000E+00  0.0000E+00  0.0000E+00
    -27.931  0.0000E+00  0.0000E+00  0.0000E+00  0.0000E+00  0.0000E+00  0.0000E+00  0.0000E+00  0.0000E+00  0.0000E+00  0.0000E+00  0.0000E+00  0.0000E+00  0.0000E+00  0.0000E+00  0.0000E+00  0.0000E+00  0.0000E+00  0.0000E+00
    -27.768  0.0000E+00  0.0000E+00  0.0000E+00  0.0000E+00  0.0000E+00  0.0000E+00  0.0000E+00  0.0000E+00  0.0000E+00  0.0000E+00  0.0000E+00  0.0000E+00  0.0000E+00  0.0000E+00  0.0000E+00  0.0000E+00  0.0000E+00  0.0000E+00
    -27.605  0.0000E+00  0.0000E+00  0.0000E+00  0.0000E+00  0.0000E+00  0.0000E+00  0.0000E+00  0.0000E+00  0.0000E+00  0.0000E+00  0.0000E+00  0.0000E+00  0.0000E+00  0.0000E+00  0.0000E+00  0.0000E+00  0.0000E+00  0.0000E+00
    -27.442  0.0000E+00  0.0000E+00  0.0000E+00  0.0000E+00  0.0000E+00  0.0000E+00  0.0000E+00  0.0000E+00  0.0000E+00  0.0000E+00  0.0000E+00  0.0000E+00  0.0000E+00  0.0000E+00  0.0000E+00  0.0000E+00  0.0000E+00  0.0000E+00
    -27.279  0.0000E+00  0.0000E+00  0.0000E+00  0.0000E+00  0.0000E+00  0.0000E+00  0.0000E+00  0.0000E+00  0.0000E+00  0.0000E+00  0.0000E+00  0.0000E+00  0.0000E+00  0.0000E+00  0.0000E+00  0.0000E+00  0.0000E+00  0.0000E+00
    -27.116  0.0000E+00  0.0000E+00  0.0000E+00  0.0000E+00  0.0000E+00  0.0000E+00  0.0000E+00  0.0000E+00  0.0000E+00  0.0000E+00  0.0000E+00  0.0000E+00  0.0000E+00  0.0000E+00  0.0000E+00  0.0000E+00  0.0000E+00  0.0000E+00
    -26.953  0.0000E+00  0.0000E+00  0.0000E+00  0.0000E+00  0.0000E+00  0.0000E+00  0.0000E+00  0.0000E+00  0.0000E+00  0.0000E+00  0.0000E+00  0.0000E+00  0.0000E+00  0.0000E+00  0.0000E+00  0.0000E+00  0.0000E+00  0.0000E+00
    -26.789  0.0000E+00  0.0000E+00  0.0000E+00  0.0000E+00  0.0000E+00  0.0000E+00  0.0000E+00  0.0000E+00  0.0000E+00  0.0000E+00  0.0000E+00  0.0000E+00  0.0000E+00  0.0000E+00  0.0000E+00  0.0000E+00  0.0000E+00  0.0000E+00
    -26.626  0.0000E+00  0.0000E+00  0.0000E+00  0.0000E+00  0.0000E+00  0.0000E+00  0.0000E+00  0.0000E+00  0.0000E+00  0.0000E+00  0.0000E+00  0.0000E+00  0.0000E+00  0.0000E+00  0.0000E+00  0.0000E+00  0.0000E+00  0.0000E+00
    -26.463  0.0000E+00  0.0000E+00  0.0000E+00  0.0000E+00  0.0000E+00  0.0000E+00  0.0000E+00  0.0000E+00  0.0000E+00  0.0000E+00  0.0000E+00  0.0000E+00  0.0000E+00  0.0000E+00  0.0000E+00  0.0000E+00  0.0000E+00  0.0000E+00
    -26.300  0.0000E+00  0.0000E+00  0.0000E+00  0.0000E+00  0.0000E+00  0.0000E+00  0.0000E+00  0.0000E+00  0.0000E+00  0.0000E+00  0.0000E+00  0.0000E+00  0.0000E+00  0.0000E+00  0.0000E+00  0.0000E+00  0.0000E+00  0.0000E+00
    -26.137  0.0000E+00  0.0000E+00  0.0000E+00  0.0000E+00  0.0000E+00  0.0000E+00  0.0000E+00  0.0000E+00  0.0000E+00  0.0000E+00  0.0000E+00  0.0000E+00  0.0000E+00  0.0000E+00  0.0000E+00  0.0000E+00  0.0000E+00  0.0000E+00
    -25.974  0.0000E+00  0.0000E+00  0.0000E+00  0.0000E+00  0.0000E+00  0.0000E+00  0.0000E+00  0.0000E+00  0.0000E+00  0.0000E+00  0.0000E+00  0.0000E+00  0.0000E+00  0.0000E+00  0.0000E+00  0.0000E+00  0.0000E+00  0.0000E+00
    -25.811  0.0000E+00  0.0000E+00  0.0000E+00  0.0000E+00  0.0000E+00  0.0000E+00  0.0000E+00  0.0000E+00  0.0000E+00  0.0000E+00  0.0000E+00  0.0000E+00  0.0000E+00  0.0000E+00  0.0000E+00  0.0000E+00  0.0000E+00  0.0000E+00
    -25.647  0.0000E+00  0.0000E+00  0.0000E+00  0.0000E+00  0.0000E+00  0.0000E+00  0.0000E+00  0.0000E+00  0.0000E+00  0.0000E+00  0.0000E+00  0.0000E+00  0.0000E+00  0.0000E+00  0.0000E+00  0.0000E+00  0.0000E+00  0.0000E+00
    -25.484  0.0000E+00  0.0000E+00  0.0000E+00  0.0000E+00  0.0000E+00  0.0000E+00  0.0000E+00  0.0000E+00  0.0000E+00  0.0000E+00  0.0000E+00  0.0000E+00  0.0000E+00  0.0000E+00  0.0000E+00  0.0000E+00  0.0000E+00  0.0000E+00
    -25.321  0.0000E+00  0.0000E+00  0.0000E+00  0.0000E+00  0.0000E+00  0.0000E+00  0.0000E+00  0.0000E+00  0.0000E+00  0.0000E+00  0.0000E+00  0.0000E+00  0.0000E+00  0.0000E+00  0.0000E+00  0.0000E+00  0.0000E+00  0.0000E+00
    -25.158  0.0000E+00  0.0000E+00  0.0000E+00  0.0000E+00  0.0000E+00  0.0000E+00  0.0000E+00  0.0000E+00  0.0000E+00  0.0000E+00  0.0000E+00  0.0000E+00  0.0000E+00  0.0000E+00  0.0000E+00  0.0000E+00  0.0000E+00  0.0000E+00
    -24.995  0.0000E+00  0.0000E+00  0.0000E+00  0.0000E+00  0.0000E+00  0.0000E+00  0.0000E+00  0.0000E+00  0.0000E+00  0.0000E+00  0.0000E+00  0.0000E+00  0.0000E+00  0.0000E+00  0.0000E+00  0.0000E+00  0.0000E+00  0.0000E+00
    -24.832  0.0000E+00  0.0000E+00  0.0000E+00  0.0000E+00  0.0000E+00  0.0000E+00  0.0000E+00  0.0000E+00  0.0000E+00  0.0000E+00  0.0000E+00  0.0000E+00  0.0000E+00  0.0000E+00  0.0000E+00  0.0000E+00  0.0000E+00  0.0000E+00