  16  16   1   0
  0.2566020E+02  0.4699314E-09  0.4699314E-09  0.1859135E-08  0.5000000E-15
  1.000000000000000E-004
  CAR 
 unknown system                          
      9.93080475    -39.15061716  301      4.02772384      1.00000000
    -39.151  0.0000E+00  0.0000E+00  0.0000E+00  0.0000E+00
    -38.987  0.0000E+00  0.0000E+00  0.0000E+00  0.0000E+00
    -38.823  0.0000E+00  0.0000E+00  0.0000E+00  0.0000E+00
    -38.660  0.0000E+00  0.0000E+00  0.0000E+00  0.0000E+00
    -38.496  0.0000E+00  0.0000E+00  0.0000E+00  0.0000E+00
    -38.333  0.0000E+00  0.0000E+00  0.0000E+00  0.0000E+00
    -38.169  0.0000E+00  0.0000E+00  0.0000E+00  0.0000E+00
    -38.005  0.0000E+00  0.0000E+00  0.0000E+00  0.0000E+00
    -37.842  0.0000E+00  0.0000E+00  0.0000E+00  0.0000E+00
    -37.678  0.0000E+00  0.0000E+00  0.0000E+00  0.0000E+00
    -37.515  0.0000E+00  0.0000E+00  0.0000E+00  0.0000E+00
    -37.351  0.4314E-02  0.4334E-02  0.7058E-03  0.7091E-03
    -37.187  0.1089E+00  0.1094E+00  0.1853E-01  0.1861E-01
    -37.024  0.2559E+01  0.2569E+01  0.4371E+00  0.4390E+00
    -36.860  0.1600E+02  0.1601E+02  0.3055E+01  0.3059E+01
    -36.697  0.5490E+01  0.5471E+01  0.3954E+01  0.3954E+01
    -36.533  0.2725E+00  0.2712E+00  0.3998E+01  0.3998E+01
    -36.369  0.0000E+00  0.0000E+00  0.4000E+01  0.4000E+01
    -36.206  0.0000E+00  0.0000E+00  0.4000E+01  0.4000E+01
    -36.042  0.0000E+00  0.0000E+00  0.4000E+01  0.4000E+01
    -35.879  0.0000E+00  0.0000E+00  0.4000E+01  0.4000E+01
    -35.715  0.0000E+00  0.0000E+00  0.4000E+01  0.4000E+01
    -35.551  0.0000E+00  0.0000E+00  0.4000E+01  0.4000E+01
    -35.388  0.0000E+00  0.0000E+00  0.4000E+01  0.4000E+01
    -35.224  0.0000E+00  0.0000E+00  0.4000E+01  0.4000E+01
    -35.060  0.0000E+00  0.0000E+00  0.4000E+01  0.4000E+01
    -34.897  0.0000E+00  0.0000E+00  0.4000E+01  0.4000E+01
    -34.733  0.0000E+00  0.0000E+00  0.4000E+01  0.4000E+01
    -34.570  0.0000E+00  0.0000E+00  0.4000E+01  0.4000E+01
    -34.406  0.0000E+00  0.0000E+00  0.4000E+01  0.4000E+01
    -34.242  0.0000E+00  0.0000E+00  0.4000E+01  0.4000E+01
    -34.079  0.0000E+00  0.0000E+00  0.4000E+01  0.4000E+01
    -33.915  0.0000E+00  0.0000E+00  0.4000E+01  0.4000E+01
    -33.752  0.0000E+00  0.0000E+00  0.4000E+01  0.4000E+01
    -33.588  0.0000E+00  0.0000E+00  0.4000E+01  0.4000E+01
    -33.424  0.0000E+00  0.0000E+00  0.4000E+01  0.4000E+01
    -33.261  0.0000E+00  0.0000E+00  0.4000E+01  0.4000E+01
    -33.097  0.0000E+00  0.0000E+00  0.4000E+01  0.4000E+01
    -32.934  0.0000E+00  0.0000E+00  0.4000E+01  0.4000E+01
    -32.770  0.0000E+00  0.0000E+00  0.4000E+01  0.4000E+01
    -32.606  0.0000E+00  0.0000E+00  0.4000E+01  0.4000E+01
    -32.443  0.0000E+00  0.0000E+00  0.4000E+01  0.4000E+01
    -32.279  0.0000E+00  0.0000E+00  0.4000E+01  0.4000E+01
    -32.116  0.0000E+00  0.0000E+00  0.4000E+01  0.4000E+01
    -31.952  0.0000E+00  0.0000E+00  0.4000E+01  0.4000E+01
    -31.788  0.0000E+00  0.0000E+00  0.4000E+01  0.4000E+01
    -31.625  0.0000E+00  0.0000E+00  0.4000E+01  0.4000E+01
    -31.461  0.0000E+00  0.0000E+00  0.4000E+01  0.4000E+01
    -31.298  0.0000E+00  0.0000E+00  0.4000E+01  0.4000E+01
    -31.134  0.0000E+00  0.0000E+00  0.4000E+01  0.4000E+01
    -30.970  0.0000E+00  0.0000E+00  0.4000E+01  0.4000E+01
    -30.807  0.0000E+00  0.0000E+00  0.4000E+01  0.4000E+01
    -30.643  0.0000E+00  0.0000E+00  0.4000E+01  0.4000E+01
    -30.480  0.0000E+00  0.0000E+00  0.4000E+01  0.4000E+01
    -30.316  0.0000E+00  0.0000E+00  0.4000E+01  0.4000E+01
    -30.152  0.0000E+00  0.0000E+00  0.4000E+01  0.4000E+01
    -29.989  0.0000E+00  0.0000E+00  0.4000E+01  0.4000E+01
    -29.825  0.0000E+00  0.0000E+00  0.4000E+01  0.4000E+01
    -29.662  0.0000E+00  0.0000E+00  0.4000E+01  0.4000E+01
    -29.498  0.0000E+00  0.0000E+00  0.4000E+01  0.4000E+01
    -29.334  0.0000E+00  0.0000E+00  0.4000E+01  0.4000E+01
    -29.171  0.0000E+00  0.0000E+00  0.4000E+01  0.4000E+01
    -29.007  0.0000E+00  0.0000E+00  0.4000E+01  0.4000E+01
    -28.844  0.0000E+00  0.0000E+00  0.4000E+01  0.4000E+01
    -28.680  0.0000E+00  0.0000E+00  0.4000E+01  0.4000E+01
    -28.516  0.0000E+00  0.0000E+00  0.4000E+01  0.4000E+01
    -28.353  0.0000E+00  0.0000E+00  0.4000E+01  0.4000E+01
    -28.189  0.0000E+00  0.0000E+00  0.4000E+01  0.4000E+01
    -28.025  0.0000E+00  0.0000E+00  0.4000E+01  0.4000E+01
    -27.862  0.0000E+00  0.0000E+00  0.4000E+01  0.4000E+01
    -27.698  0.0000E+00  0.0000E+00  0.4000E+01  0.4000E+01
    -27.535  0.0000E+00  0.0000E+00  0.4000E+01  0.4000E+01
    -27.371  0.0000E+00  0.0000E+00  0.4000E+01  0.4000E+01
    -27.207  0.0000E+00  0.0000E+00  0.4000E+01  0.4000E+01
    -27.044  0.0000E+00  0.0000E+00  0.4000E+01  0.4000E+01
    -26.880  0.0000E+00  0.0000E+00  0.4000E+01  0.4000E+01
    -26.717  0.0000E+00  0.0000E+00  0.4000E+01  0.4000E+01
    -26.553  0.0000E+00  0.0000E+00  0.4000E+01  0.4000E+01
    -26.389  0.0000E+00  0.0000E+00  0.4000E+01  0.4000E+01
    -26.226  0.0000E+00  0.0000E+00  0.4000E+01  0.4000E+01
    -26.062  0.0000E+00  0.0000E+00  0.4000E+01  0.4000E+01
    -25.899  0.0000E+00  0.0000E+00  0.4000E+01  0.4000E+01
    -25.735  0.0000E+00  0.0000E+00  0.4000E+01  0.4000E+01
    -25.571  0.0000E+00  0.0000E+00  0.4000E+01  0.4000E+01
    -25.408  0.0000E+00  0.0000E+00  0.4000E+01  0.4000E+01
    -25.244  0.0000E+00  0.0000E+00  0.4000E+01  0.4000E+01
    -25.081  0.0000E+00  0.0000E+00  0.4000E+01  0.4000E+01
    -24.917  0.0000E+00  0.0000E+00  0.4000E+01  0.4000E+01
    -24.753  0.0000E+00  0.0000E+00  0.4000E+01  0.4000E+01
    -24.590  0.0000E+00  0.0000E+00  0.4000E+01  0.4000E+01
    -24.426  0.0000E+00  0.0000E+00  0.4000E+01  0.4000E+01
    -24.263  0.0000E+00  0.0000E+00  0.4000E+01  0.4000E+01
    -24.099  0.0000E+00  0.0000E+00  0.4000E+01  0.4000E+01
    -23.935  0.0000E+00  0.0000E+00  0.4000E+01  0.4000E+01
    -23.772  0.0000E+00  0.0000E+00  0.4000E+01  0.4000E+01
    -23.608  0.0000E+00  0.0000E+00  0.4000E+01  0.4000E+01
    -23.445  0.0000E+00  0.0000E+00  0.4000E+01  0.4000E+01
    -23.281  0.0000E+00  0.0000E+00  0.4000E+01  0.4000E+01
    -23.117  0.0000E+00  0.0000E+00  0.4000E+01  0.4000E+01
    -22.954  0.0000E+00  0.0000E+00  0.4000E+01  0.4000E+01
    -22.790  0.0000E+00  0.0000E+00  0.4000E+01  0.4000E+01
    -22.627  0.0000E+00  0.0000E+00  0.4000E+01  0.4000E+01
    -22.463  0.0000E+00  0.0000E+00  0.4000E+01  0.4000E+01
    -22.299  0.0000E+00  0.0000E+00  0.4000E+01  0.4000E+01
    -22.136  0.0000E+00  0.0000E+00  0.4000E+01  0.4000E+01
    -21.972  0.0000E+00  0.0000E+00  0.4000E+01  0.4000E+01
    -21.809  0.0000E+00  0.0000E+00  0.4000E+01  0.4000E+01
    -21.645  0.0000E+00  0.0000E+00  0.4000E+01  0.4000E+01
    -21.481  0.0000E+00  0.0000E+00  0.4000E+01  0.4000E+01
    -21.318  0.0000E+00  0.0000E+00  0.4000E+01  0.4000E+01
    -21.154  0.0000E+00  0.0000E+00  0.4000E+01  0.4000E+01
    -20.990  0.0000E+00  0.0000E+00  0.4000E+01  0.4000E+01
    -20.827  0.0000E+00  0.0000E+00  0.4000E+01  0.4000E+01
    -20.663  0.0000E+00  0.0000E+00  0.4000E+01  0.4000E+01
    -20.500  0.0000E+00  0.0000E+00  0.4000E+01  0.4000E+01
    -20.336  0.0000E+00  0.0000E+00  0.4000E+01  0.4000E+01
    -20.172  0.0000E+00  0.0000E+00  0.4000E+01  0.4000E+01
    -20.009  0.0000E+00  0.0000E+00  0.4000E+01  0.4000E+01
    -19.845  0.0000E+00  0.0000E+00  0.4000E+01  0.4000E+01
    -19.682  0.0000E+00  0.0000E+00  0.4000E+01  0.4000E+01
    -19.518  0.0000E+00  0.0000E+00  0.4000E+01  0.4000E+01
    -19.354  0.0000E+00  0.0000E+00  0.4000E+01  0.4000E+01
    -19.191  0.0000E+00  0.0000E+00  0.4000E+01  0.4000E+01
    -19.027  0.0000E+00  0.0000E+00  0.4000E+01  0.4000E+01
    -18.864  0.0000E+00  0.0000E+00  0.4000E+01  0.4000E+01
    -18.700  0.0000E+00  0.0000E+00  0.4000E+01  0.4000E+01
    -18.536  0.1713E-03  0.1718E-03  0.4000E+01  0.4000E+01
    -18.373  0.1906E-01  0.1912E-01  0.4003E+01  0.4003E+01
    -18.209  0.4843E+00  0.4858E+00  0.4082E+01  0.4083E+01
    -18.046  0.1073E+02  0.1076E+02  0.5838E+01  0.5843E+01
    -17.882  0.4907E+02  0.4907E+02  0.1387E+02  0.1387E+02
    -17.718  0.1244E+02  0.1241E+02  0.1590E+02  0.1590E+02
    -17.555  0.2725E+00  0.2708E+00  0.1600E+02  0.1600E+02
    -17.391  0.0000E+00  0.0000E+00  0.1600E+02  0.1600E+02
    -17.228  0.0000E+00  0.0000E+00  0.1600E+02  0.1600E+02
    -17.064  0.0000E+00  0.0000E+00  0.1600E+02  0.1600E+02
    -16.900  0.0000E+00  0.0000E+00  0.1600E+02  0.1600E+02
    -16.737  0.0000E+00  0.0000E+00  0.1600E+02  0.1600E+02
    -16.573  0.0000E+00  0.0000E+00  0.1600E+02  0.1600E+02
    -16.410  0.0000E+00  0.0000E+00  0.1600E+02  0.1600E+02
    -16.246  0.0000E+00  0.0000E+00  0.1600E+02  0.1600E+02
    -16.082  0.0000E+00  0.0000E+00  0.1600E+02  0.1600E+02
    -15.919  0.0000E+00  0.0000E+00  0.1600E+02  0.1600E+02
    -15.755  0.0000E+00  0.0000E+00  0.1600E+02  0.1600E+02
    -15.592  0.0000E+00  0.0000E+00  0.1600E+02  0.1600E+02
    -15.428  0.0000E+00  0.0000E+00  0.1600E+02  0.1600E+02
    -15.264  0.0000E+00  0.0000E+00  0.1600E+02  0.1600E+02
    -15.101  0.0000E+00  0.0000E+00  0.1600E+02  0.1600E+02
    -14.937  0.0000E+00  0.0000E+00  0.1600E+02  0.1600E+02
    -14.774  0.0000E+00  0.0000E+00  0.1600E+02  0.1600E+02
    -14.610  0.0000E+00  0.0000E+00  0.1600E+02  0.1600E+02
    -14.446  0.0000E+00  0.0000E+00  0.1600E+02  0.1600E+02
    -14.283  0.0000E+00  0.0000E+00  0.1600E+02  0.1600E+02
    -14.119  0.0000E+00  0.0000E+00  0.1600E+02  0.1600E+02
    -13.955  0.0000E+00  0.0000E+00  0.1600E+02  0.1600E+02
    -13.792  0.0000E+00  0.0000E+00  0.1600E+02  0.1600E+02
    -13.628  0.0000E+00  0.0000E+00  0.1600E+02  0.1600E+02
    -13.465  0.0000E+00  0.0000E+00  0.1600E+02  0.1600E+02
    -13.301  0.0000E+00  0.0000E+00  0.1600E+02  0.1600E+02
    -13.137  0.0000E+00  0.0000E+00  0.1600E+02  0.1600E+02
    -12.974  0.0000E+00  0.0000E+00  0.1600E+02  0.1600E+02
    -12.810  0.0000E+00  0.0000E+00  0.1600E+02  0.1600E+02
    -12.647  0.0000E+00  0.0000E+00  0.1600E+02  0.1600E+02
    -12.483  0.0000E+00  0.0000E+00  0.1600E+02  0.1600E+02
    -12.319  0.0000E+00  0.0000E+00  0.1600E+02  0.1600E+02
    -12.156  0.0000E+00  0.0000E+00  0.1600E+02  0.1600E+02
    -11.992  0.0000E+00  0.0000E+00  0.1600E+02  0.1600E+02
    -11.829  0.0000E+00  0.0000E+00  0.1600E+02  0.1600E+02
    -11.665  0.0000E+00  0.0000E+00  0.1600E+02  0.1600E+02
    -11.501  0.0000E+00  0.0000E+00  0.1600E+02  0.1600E+02
    -11.338  0.0000E+00  0.0000E+00  0.1600E+02  0.1600E+02
    -11.174  0.0000E+00  0.0000E+00  0.1600E+02  0.1600E+02
    -11.011  0.0000E+00  0.0000E+00  0.1600E+02  0.1600E+02
    -10.847  0.0000E+00  0.0000E+00  0.1600E+02  0.1600E+02
    -10.683  0.0000E+00  0.0000E+00  0.1600E+02  0.1600E+02
    -10.520  0.0000E+00  0.0000E+00  0.1600E+02  0.1600E+02
    -10.356  0.0000E+00  0.0000E+00  0.1600E+02  0.1600E+02
    -10.193  0.0000E+00  0.0000E+00  0.1600E+02  0.1600E+02
    -10.029  0.0000E+00  0.0000E+00  0.1600E+02  0.1600E+02
     -9.865  0.0000E+00  0.0000E+00  0.1600E+02  0.1600E+02
     -9.702  0.0000E+00  0.0000E+00  0.1600E+02  0.1600E+02
     -9.538  0.0000E+00  0.0000E+00  0.1600E+02  0.1600E+02
     -9.375  0.0000E+00  0.0000E+00  0.1600E+02  0.1600E+02
     -9.211  0.0000E+00  0.0000E+00  0.1600E+02  0.1600E+02
     -9.047  0.0000E+00  0.0000E+00  0.1600E+02  0.1600E+02
     -8.884  0.0000E+00  0.0000E+00  0.1600E+02  0.1600E+02
     -8.720  0.0000E+00  0.0000E+00  0.1600E+02  0.1600E+02
     -8.557  0.0000E+00  0.0000E+00  0.1600E+02  0.1600E+02
     -8.393  0.0000E+00  0.0000E+00  0.1600E+02  0.1600E+02
     -8.229  0.0000E+00  0.0000E+00  0.1600E+02  0.1600E+02
     -8.066  0.0000E+00  0.0000E+00  0.1600E+02  0.1600E+02
     -7.902  0.0000E+00  0.0000E+00  0.1600E+02  0.1600E+02
     -7.739  0.0000E+00  0.0000E+00  0.1600E+02  0.1600E+02
     -7.575  0.0000E+00  0.0000E+00  0.1600E+02  0.1600E+02
     -7.411  0.0000E+00  0.0000E+00  0.1600E+02  0.1600E+02
     -7.248  0.0000E+00  0.0000E+00  0.1600E+02  0.1600E+02
     -7.084  0.0000E+00  0.0000E+00  0.1600E+02  0.1600E+02
     -6.920  0.0000E+00  0.0000E+00  0.1600E+02  0.1600E+02
     -6.757  0.0000E+00  0.0000E+00  0.1600E+02  0.1600E+02
     -6.593  0.0000E+00  0.0000E+00  0.1600E+02  0.1600E+02
     -6.430  0.0000E+00  0.0000E+00  0.1600E+02  0.1600E+02
     -6.266  0.0000E+00  0.0000E+00  0.1600E+02  0.1600E+02
     -6.102  0.0000E+00  0.0000E+00  0.1600E+02  0.1600E+02
     -5.939  0.0000E+00  0.0000E+00  0.1600E+02  0.1600E+02
     -5.775  0.0000E+00  0.0000E+00  0.1600E+02  0.1600E+02
     -5.612  0.0000E+00  0.0000E+00  0.1600E+02  0.1600E+02
     -5.448  0.0000E+00  0.0000E+00  0.1600E+02  0.1600E+02
     -5.284  0.0000E+00  0.0000E+00  0.1600E+02  0.1600E+02
     -5.121  0.0000E+00  0.0000E+00  0.1600E+02  0.1600E+02
     -4.957  0.0000E+00  0.0000E+00  0.1600E+02  0.1600E+02
     -4.794  0.0000E+00  0.0000E+00  0.1600E+02  0.1600E+02
     -4.630  0.0000E+00  0.0000E+00  0.1600E+02  0.1600E+02
     -4.466  0.0000E+00  0.0000E+00  0.1600E+02  0.1600E+02
     -4.303  0.4862E-05  0.4862E-05  0.1600E+02  0.1600E+02
     -4.139  0.1568E-03  0.1568E-03  0.1600E+02  0.1600E+02
     -3.976  0.4072E-02  0.4072E-02  0.1600E+02  0.1600E+02
     -3.812  0.7909E-01  0.7909E-01  0.1601E+02  0.1601E+02
     -3.648  0.4290E+00  0.4291E+00  0.1608E+02  0.1608E+02
     -3.485  0.7969E+00  0.7969E+00  0.1621E+02  0.1621E+02
     -3.321  0.9570E+00  0.9570E+00  0.1637E+02  0.1637E+02
     -3.158  0.9933E+00  0.9932E+00  0.1653E+02  0.1653E+02
     -2.994  0.1203E+01  0.1203E+01  0.1673E+02  0.1673E+02
     -2.830  0.1371E+01  0.1371E+01  0.1696E+02  0.1696E+02
     -2.667  0.1591E+01  0.1591E+01  0.1722E+02  0.1722E+02
     -2.503  0.1761E+01  0.1761E+01  0.1751E+02  0.1750E+02
     -2.340  0.2004E+01  0.2003E+01  0.1783E+02  0.1783E+02
     -2.176  0.2217E+01  0.2217E+01  0.1820E+02  0.1820E+02
     -2.012  0.2212E+01  0.2211E+01  0.1856E+02  0.1856E+02
     -1.849  0.2097E+01  0.2097E+01  0.1890E+02  0.1890E+02
     -1.685  0.2049E+01  0.2049E+01  0.1924E+02  0.1924E+02
     -1.522  0.1747E+01  0.1747E+01  0.1953E+02  0.1953E+02
     -1.358  0.1998E+01  0.1998E+01  0.1985E+02  0.1985E+02
     -1.194  0.2828E+01  0.2827E+01  0.2032E+02  0.2032E+02
     -1.031  0.2878E+01  0.2878E+01  0.2079E+02  0.2079E+02
     -0.867  0.2584E+01  0.2585E+01  0.2121E+02  0.2121E+02
     -0.704  0.2651E+01  0.2650E+01  0.2165E+02  0.2165E+02
     -0.540  0.2903E+01  0.2903E+01  0.2213E+02  0.2212E+02
     -0.376  0.2324E+01  0.2325E+01  0.2251E+02  0.2251E+02
     -0.213  0.2663E+01  0.2663E+01  0.2294E+02  0.2294E+02
     -0.049  0.3366E+01  0.3368E+01  0.2349E+02  0.2349E+02
      0.115  0.3272E+01  0.3271E+01  0.2403E+02  0.2403E+02
      0.278  0.3027E+01  0.3027E+01  0.2453E+02  0.2453E+02
      0.442  0.3390E+01  0.3390E+01  0.2508E+02  0.2508E+02
      0.605  0.2736E+01  0.2735E+01  0.2553E+02  0.2553E+02
      0.769  0.2443E+01  0.2443E+01  0.2593E+02  0.2593E+02
      0.933  0.2330E+01  0.2330E+01  0.2632E+02  0.2632E+02
      1.096  0.2608E+01  0.2607E+01  0.2674E+02  0.2674E+02
      1.260  0.2115E+01  0.2116E+01  0.2709E+02  0.2709E+02
      1.423  0.1631E+01  0.1633E+01  0.2736E+02  0.2736E+02
      1.587  0.2376E+01  0.2376E+01  0.2775E+02  0.2775E+02
      1.751  0.3153E+01  0.3156E+01  0.2826E+02  0.2826E+02
      1.914  0.3112E+01  0.3112E+01  0.2877E+02  0.2877E+02
      2.078  0.3861E+01  0.3862E+01  0.2941E+02  0.2941E+02
      2.241  0.3929E+01  0.3930E+01  0.3005E+02  0.3005E+02
      2.405  0.3897E+01  0.3895E+01  0.3069E+02  0.3069E+02
      2.569  0.4332E+01  0.4332E+01  0.3140E+02  0.3140E+02
      2.732  0.4935E+01  0.4934E+01  0.3221E+02  0.3221E+02
      2.896  0.5035E+01  0.5034E+01  0.3304E+02  0.3304E+02
      3.059  0.4724E+01  0.4723E+01  0.3381E+02  0.3381E+02
      3.223  0.4185E+01  0.4187E+01  0.3450E+02  0.3450E+02
      3.387  0.4223E+01  0.4224E+01  0.3519E+02  0.3519E+02
      3.550  0.4128E+01  0.4131E+01  0.3587E+02  0.3587E+02
      3.714  0.4519E+01  0.4521E+01  0.3661E+02  0.3661E+02
      3.877  0.4715E+01  0.4714E+01  0.3738E+02  0.3738E+02
      4.041  0.4119E+01  0.4120E+01  0.3806E+02  0.3806E+02
      4.205  0.4674E+01  0.4673E+01  0.3883E+02  0.3883E+02
      4.368  0.4685E+01  0.4686E+01  0.3959E+02  0.3959E+02
      4.532  0.5125E+01  0.5123E+01  0.4043E+02  0.4044E+02
      4.695  0.4561E+01  0.4562E+01  0.4118E+02  0.4118E+02
      4.859  0.4604E+01  0.4603E+01  0.4194E+02  0.4194E+02
      5.023  0.4371E+01  0.4370E+01  0.4265E+02  0.4266E+02
      5.186  0.4028E+01  0.4028E+01  0.4332E+02  0.4332E+02
      5.350  0.3847E+01  0.3846E+01  0.4395E+02  0.4395E+02
      5.513  0.4142E+01  0.4143E+01  0.4463E+02  0.4463E+02
      5.677  0.4519E+01  0.4522E+01  0.4537E+02  0.4537E+02
      5.841  0.5405E+01  0.5401E+01  0.4625E+02  0.4625E+02
      6.004  0.5115E+01  0.5110E+01  0.4709E+02  0.4709E+02
      6.168  0.4934E+01  0.4927E+01  0.4790E+02  0.4790E+02
      6.332  0.6225E+01  0.6207E+01  0.4892E+02  0.4892E+02
      6.495  0.5184E+01  0.4956E+01  0.4977E+02  0.4973E+02
      6.659  0.4074E+01  0.4112E+01  0.5044E+02  0.5041E+02
      6.822  0.3097E+01  0.3148E+01  0.5095E+02  0.5092E+02
      6.986  0.1968E+01  0.2032E+01  0.5127E+02  0.5126E+02
      7.150  0.1689E+01  0.1672E+01  0.5155E+02  0.5153E+02
      7.313  0.1363E+01  0.1350E+01  0.5178E+02  0.5175E+02
      7.477  0.8612E+00  0.7764E+00  0.5192E+02  0.5188E+02
      7.640  0.4386E+00  0.5433E+00  0.5199E+02  0.5197E+02
      7.804  0.5992E-01  0.1551E+00  0.5200E+02  0.5200E+02
      7.968  0.1678E-02  0.1169E-01  0.5200E+02  0.5200E+02
      8.131  0.0000E+00  0.0000E+00  0.5200E+02  0.5200E+02
      8.295  0.0000E+00  0.0000E+00  0.5200E+02  0.5200E+02
      8.458  0.0000E+00  0.0000E+00  0.5200E+02  0.5200E+02
      8.622  0.0000E+00  0.0000E+00  0.5200E+02  0.5200E+02
      8.786  0.0000E+00  0.0000E+00  0.5200E+02  0.5200E+02
      8.949  0.0000E+00  0.0000E+00  0.5200E+02  0.5200E+02
      9.113  0.0000E+00  0.0000E+00  0.5200E+02  0.5200E+02
      9.276  0.0000E+00  0.0000E+00  0.5200E+02  0.5200E+02
      9.440  0.0000E+00  0.0000E+00  0.5200E+02  0.5200E+02
      9.604  0.0000E+00  0.0000E+00  0.5200E+02  0.5200E+02
      9.767  0.0000E+00  0.0000E+00  0.5200E+02  0.5200E+02
      9.931  0.0000E+00  0.0000E+00  0.5200E+02  0.5200E+02
      9.93080475    -39.15061716  301      4.02772384      1.00000000
    -39.151  0.0000E+00  0.0000E+00  0.0000E+00  0.0000E+00  0.0000E+00  0.0000E+00  0.0000E+00  0.0000E+00  0.0000E+00  0.0000E+00  0.0000E+00  0.0000E+00  0.0000E+00  0.0000E+00  0.0000E+00  0.0000E+00  0.0000E+00  0.0000E+00
    -38.987  0.0000E+00  0.0000E+00  0.0000E+00  0.0000E+00  0.0000E+00  0.0000E+00  0.0000E+00  0.0000E+00  0.0000E+00  0.0000E+00  0.0000E+00  0.0000E+00  0.0000E+00  0.0000E+00  0.0000E+00  0.0000E+00  0.0000E+00  0.0000E+00
    -38.823  0.0000E+00  0.0000E+00  0.0000E+00  0.0000E+00  0.0000E+00  0.0000E+00  0.0000E+00  0.0000E+00  0.0000E+00  0.0000E+00  0.0000E+00  0.0000E+00  0.0000E+00  0.0000E+00  0.0000E+00  0.0000E+00  0.0000E+00  0.0000E+00
    -38.660  0.0000E+00  0.0000E+00  0.0000E+00  0.0000E+00  0.0000E+00  0.0000E+00  0.0000E+00  0.0000E+00  0.0000E+00  0.0000E+00  0.0000E+00  0.0000E+00  0.0000E+00  0.0000E+00  0.0000E+00  0.0000E+00  0.0000E+00  0.0000E+00
    -38.496  0.0000E+00  0.0000E+00  0.0000E+00  0.0000E+00  0.0000E+00  0.0000E+00  0.0000E+00  0.0000E+00  0.0000E+00  0.0000E+00  0.0000E+00  0.0000E+00  0.0000E+00  0.0000E+00  0.0000E+00  0.0000E+00  0.0000E+00  0.0000E+00
    -38.333  0.0000E+00  0.0000E+00  0.0000E+00  0.0000E+00  0.0000E+00  0.0000E+00  0.0000E+00  0.0000E+00  0.0000E+00  0.0000E+00  0.0000E+00  0.0000E+00  0.0000E+00  0.0000E+00  0.0000E+00  0.0000E+00  0.0000E+00  0.0000E+00
    -38.169  0.0000E+00  0.0000E+00  0.0000E+00  0.0000E+00  0.0000E+00  0.0000E+00  0.0000E+00  0.0000E+00  0.0000E+00  0.0000E+00  0.0000E+00  0.0000E+00  0.0000E+00  0.0000E+00  0.0000E+00  0.0000E+00  0.0000E+00  0.0000E+00
    -38.005  0.0000E+00  0.0000E+00  0.0000E+00  0.0000E+00  0.0000E+00  0.0000E+00  0.0000E+00  0.0000E+00  0.0000E+00  0.0000E+00  0.0000E+00  0.0000E+00  0.0000E+00  0.0000E+00  0.0000E+00  0.0000E+00  0.0000E+00  0.0000E+00
    -37.842  0.0000E+00  0.0000E+00  0.0000E+00  0.0000E+00  0.0000E+00  0.0000E+00  0.0000E+00  0.0000E+00  0.0000E+00  0.0000E+00  0.0000E+00  0.0000E+00  0.0000E+00  0.0000E+00  0.0000E+00  0.0000E+00  0.0000E+00  0.0000E+00
    -37.678  0.0000E+00  0.0000E+00  0.0000E+00  0.0000E+00  0.0000E+00  0.0000E+00  0.0000E+00  0.0000E+00  0.0000E+00  0.0000E+00  0.0000E+00  0.0000E+00  0.0000E+00  0.0000E+00  0.0000E+00  0.0000E+00  0.0000E+00  0.0000E+00
    -37.515  0.0000E+00  0.0000E+00  0.0000E+00  0.0000E+00  0.0000E+00  0.0000E+00  0.0000E+00  0.0000E+00  0.0000E+00  0.0000E+00  0.0000E+00  0.0000E+00  0.0000E+00  0.0000E+00  0.0000E+00  0.0000E+00  0.0000E+00  0.0000E+00
    -37.351  0.1063E-02  0.1068E-02  0.2334E-12  0.2291E-12  0.5065E-09  0.5133E-09  0.2334E-12  0.2291E-12  0.1628E-15  0.4858E-15  0.2039E-15  0.5655E-15  0.9262E-10  0.9205E-10  0.2039E-15  0.5655E-15  0.1470E-12  0.1556E-12
    -37.187  0.2685E-01  0.2697E-01  0.5893E-11  0.5783E-11  0.1279E-07  0.1296E-07  0.5893E-11  0.5783E-11  0.4110E-14  0.1227E-13  0.5148E-14  0.1428E-13  0.2339E-08  0.2324E-08  0.5148E-14  0.1428E-13  0.3712E-11  0.3928E-11
    -37.024  0.6306E+00  0.6332E+00  0.1384E-09  0.1358E-09  0.3004E-06  0.3043E-06  0.1384E-09  0.1358E-09  0.9653E-13  0.2880E-12  0.1209E-12  0.3352E-12  0.5493E-07  0.5456E-07  0.1209E-12  0.3352E-12  0.8720E-10  0.9222E-10
    -36.860  0.3944E+01  0.3946E+01  0.8656E-09  0.8462E-09  0.1879E-05  0.1896E-05  0.8656E-09  0.8462E-09  0.6034E-12  0.1797E-11  0.7558E-12  0.2090E-11  0.3436E-06  0.3401E-06  0.7558E-12  0.2090E-11  0.5454E-09  0.5748E-09
    -36.697  0.1353E+01  0.1348E+01  0.2969E-09  0.2890E-09  0.6448E-06  0.6480E-06  0.2969E-09  0.2890E-09  0.2069E-12  0.6149E-12  0.2590E-12  0.7146E-12  0.1179E-06  0.1162E-06  0.2590E-12  0.7146E-12  0.1871E-09  0.1964E-09
    -36.533  0.6715E-01  0.6684E-01  0.1473E-10  0.1433E-10  0.3200E-07  0.3212E-07  0.1473E-10  0.1433E-10  0.1026E-13  0.3050E-13  0.1285E-13  0.3543E-13  0.5849E-08  0.5759E-08  0.1285E-13  0.3543E-13  0.9285E-11  0.9734E-11
    -36.369  0.0000E+00  0.0000E+00  0.0000E+00  0.0000E+00  0.0000E+00  0.0000E+00  0.0000E+00  0.0000E+00  0.0000E+00  0.0000E+00  0.0000E+00  0.0000E+00  0.0000E+00  0.0000E+00  0.0000E+00  0.0000E+00  0.0000E+00  0.0000E+00
    -36.206  0.0000E+00  0.0000E+00  0.0000E+00  0.0000E+00  0.0000E+00  0.0000E+00  0.0000E+00  0.0000E+00  0.0000E+00  0.0000E+00  0.0000E+00  0.0000E+00  0.0000E+00  0.0000E+00  0.0000E+00  0.0000E+00  0.0000E+00  0.0000E+00
    -36.042  0.0000E+00  0.0000E+00  0.0000E+00  0.0000E+00  0.0000E+00  0.0000E+00  0.0000E+00  0.0000E+00  0.0000E+00  0.0000E+00  0.0000E+00  0.0000E+00  0.0000E+00  0.0000E+00  0.0000E+00  0.0000E+00  0.0000E+00  0.0000E+00
    -35.879  0.0000E+00  0.0000E+00  0.0000E+00  0.0000E+00  0.0000E+00  0.0000E+00  0.0000E+00  0.0000E+00  0.0000E+00  0.0000E+00  0.0000E+00  0.0000E+00  0.0000E+00  0.0000E+00  0.0000E+00  0.0000E+00  0.0000E+00  0.0000E+00
    -35.715  0.0000E+00  0.0000E+00  0.0000E+00  0.0000E+00  0.0000E+00  0.0000E+00  0.0000E+00  0.0000E+00  0.0000E+00  0.0000E+00  0.0000E+00  0.0000E+00  0.0000E+00  0.0000E+00  0.0000E+00  0.0000E+00  0.0000E+00  0.0000E+00
    -35.551  0.0000E+00  0.0000E+00  0.0000E+00  0.0000E+00  0.0000E+00  0.0000E+00  0.0000E+00  0.0000E+00  0.0000E+00  0.0000E+00  0.0000E+00  0.0000E+00  0.0000E+00  0.0000E+00  0.0000E+00  0.0000E+00  0.0000E+00  0.0000E+00
    -35.388  0.0000E+00  0.0000E+00  0.0000E+00  0.0000E+00  0.0000E+00  0.0000E+00  0.0000E+00  0.0000E+00  0.0000E+00  0.0000E+00  0.0000E+00  0.0000E+00  0.0000E+00  0.0000E+00  0.0000E+00  0.0000E+00  0.0000E+00  0.0000E+00
    -35.224  0.0000E+00  0.0000E+00  0.0000E+00  0.0000E+00  0.0000E+00  0.0000E+00  0.0000E+00  0.0000E+00  0.0000E+00  0.0000E+00  0.0000E+00  0.0000E+00  0.0000E+00  0.0000E+00  0.0000E+00  0.0000E+00  0.0000E+00  0.0000E+00
    -35.060  0.0000E+00  0.0000E+00  0.0000E+00  0.0000E+00  0.0000E+00  0.0000E+00  0.0000E+00  0.0000E+00  0.0000E+00  0.0000E+00  0.0000E+00  0.0000E+00  0.0000E+00  0.0000E+00  0.0000E+00  0.0000E+00  0.0000E+00  0.0000E+00
    -34.897  0.0000E+00  0.0000E+00  0.0000E+00  0.0000E+00  0.0000E+00  0.0000E+00  0.0000E+00  0.0000E+00  0.0000E+00  0.0000E+00  0.0000E+00  0.0000E+00  0.0000E+00  0.0000E+00  0.0000E+00  0.0000E+00  0.0000E+00  0.0000E+00
    -34.733  0.0000E+00  0.0000E+00  0.0000E+00  0.0000E+00  0.0000E+00  0.0000E+00  0.0000E+00  0.0000E+00  0.0000E+00  0.0000E+00  0.0000E+00  0.0000E+00  0.0000E+00  0.0000E+00  0.0000E+00  0.0000E+00  0.0000E+00  0.0000E+00
    -34.570  0.0000E+00  0.0000E+00  0.0000E+00  0.0000E+00  0.0000E+00  0.0000E+00  0.0000E+00  0.0000E+00  0.0000E+00  0.0000E+00  0.0000E+00  0.0000E+00  0.0000E+00  0.0000E+00  0.0000E+00  0.0000E+00  0.0000E+00  0.0000E+00
    -34.406  0.0000E+00  0.0000E+00  0.0000E+00  0.0000E+00  0.0000E+00  0.0000E+00  0.0000E+00  0.0000E+00  0.0000E+00  0.0000E+00  0.0000E+00  0.0000E+00  0.0000E+00  0.0000E+00  0.0000E+00  0.0000E+00  0.0000E+00  0.0000E+00
    -34.242  0.0000E+00  0.0000E+00  0.0000E+00  0.0000E+00  0.0000E+00  0.0000E+00  0.0000E+00  0.0000E+00  0.0000E+00  0.0000E+00  0.0000E+00  0.0000E+00  0.0000E+00  0.0000E+00  0.0000E+00  0.0000E+00  0.0000E+00  0.0000E+00
    -34.079  0.0000E+00  0.0000E+00  0.0000E+00  0.0000E+00  0.0000E+00  0.0000E+00  0.0000E+00  0.0000E+00  0.0000E+00  0.0000E+00  0.0000E+00  0.0000E+00  0.0000E+00  0.0000E+00  0.0000E+00  0.0000E+00  0.0000E+00  0.0000E+00
    -33.915  0.0000E+00  0.0000E+00  0.0000E+00  0.0000E+00  0.0000E+00  0.0000E+00  0.0000E+00  0.0000E+00  0.0000E+00  0.0000E+00  0.0000E+00  0.0000E+00  0.0000E+00  0.0000E+00  0.0000E+00  0.0000E+00  0.0000E+00  0.0000E+00
    -33.752  0.0000E+00  0.0000E+00  0.0000E+00  0.0000E+00  0.0000E+00  0.0000E+00  0.0000E+00  0.0000E+00  0.0000E+00  0.0000E+00  0.0000E+00  0.0000E+00  0.0000E+00  0.0000E+00  0.0000E+00  0.0000E+00  0.0000E+00  0.0000E+00
    -33.588  0.0000E+00  0.0000E+00  0.0000E+00  0.0000E+00  0.0000E+00  0.0000E+00  0.0000E+00  0.0000E+00  0.0000E+00  0.0000E+00  0.0000E+00  0.0000E+00  0.0000E+00  0.0000E+00  0.0000E+00  0.0000E+00  0.0000E+00  0.0000E+00
    -33.424  0.0000E+00  0.0000E+00  0.0000E+00  0.0000E+00  0.0000E+00  0.0000E+00  0.0000E+00  0.0000E+00  0.0000E+00  0.0000E+00  0.0000E+00  0.0000E+00  0.0000E+00  0.0000E+00  0.0000E+00  0.0000E+00  0.0000E+00  0.0000E+00
    -33.261  0.0000E+00  0.0000E+00  0.0000E+00  0.0000E+00  0.0000E+00  0.0000E+00  0.0000E+00  0.0000E+00  0.0000E+00  0.0000E+00  0.0000E+00  0.0000E+00  0.0000E+00  0.0000E+00  0.0000E+00  0.0000E+00  0.0000E+00  0.0000E+00
    -33.097  0.0000E+00  0.0000E+00  0.0000E+00  0.0000E+00  0.0000E+00  0.0000E+00  0.0000E+00  0.0000E+00  0.0000E+00  0.0000E+00  0.0000E+00  0.0000E+00  0.0000E+00  0.0000E+00  0.0000E+00  0.0000E+00  0.0000E+00  0.0000E+00
    -32.934  0.0000E+00  0.0000E+00  0.0000E+00  0.0000E+00  0.0000E+00  0.0000E+00  0.0000E+00  0.0000E+00  0.0000E+00  0.0000E+00  0.0000E+00  0.0000E+00  0.0000E+00  0.0000E+00  0.0000E+00  0.0000E+00  0.0000E+00  0.0000E+00
    -32.770  0.0000E+00  0.0000E+00  0.0000E+00  0.0000E+00  0.0000E+00  0.0000E+00  0.0000E+00  0.0000E+00  0.0000E+00  0.0000E+00  0.0000E+00  0.0000E+00  0.0000E+00  0.0000E+00  0.0000E+00  0.0000E+00  0.0000E+00  0.0000E+00
    -32.606  0.0000E+00  0.0000E+00  0.0000E+00  0.0000E+00  0.0000E+00  0.0000E+00  0.0000E+00  0.0000E+00  0.0000E+00  0.0000E+00  0.0000E+00  0.0000E+00  0.0000E+00  0.0000E+00  0.0000E+00  0.0000E+00  0.0000E+00  0.0000E+00
    -32.443  0.0000E+00  0.0000E+00  0.0000E+00  0.0000E+00  0.0000E+00  0.0000E+00  0.0000E+00  0.0000E+00  0.0000E+00  0.0000E+00  0.0000E+00  0.0000E+00  0.0000E+00  0.0000E+00  0.0000E+00  0.0000E+00  0.0000E+00  0.0000E+00
    -32.279  0.0000E+00  0.0000E+00  0.0000E+00  0.0000E+00  0.0000E+00  0.0000E+00  0.0000E+00  0.0000E+00  0.0000E+00  0.0000E+00  0.0000E+00  0.0000E+00  0.0000E+00  0.0000E+00  0.0000E+00  0.0000E+00  0.0000E+00  0.0000E+00
    -32.116  0.0000E+00  0.0000E+00  0.0000E+00  0.0000E+00  0.0000E+00  0.0000E+00  0.0000E+00  0.0000E+00  0.0000E+00  0.0000E+00  0.0000E+00  0.0000E+00  0.0000E+00  0.0000E+00  0.0000E+00  0.0000E+00  0.0000E+00  0.0000E+00
    -31.952  0.0000E+00  0.0000E+00  0.0000E+00  0.0000E+00  0.0000E+00  0.0000E+00  0.0000E+00  0.0000E+00  0.0000E+00  0.0000E+00  0.0000E+00  0.0000E+00  0.0000E+00  0.0000E+00  0.0000E+00  0.0000E+00  0.0000E+00  0.0000E+00
    -31.788  0.0000E+00  0.0000E+00  0.0000E+00  0.0000E+00  0.0000E+00  0.0000E+00  0.0000E+00  0.0000E+00  0.0000E+00  0.0000E+00  0.0000E+00  0.0000E+00  0.0000E+00  0.0000E+00  0.0000E+00  0.0000E+00  0.0000E+00  0.0000E+00
    -31.625  0.0000E+00  0.0000E+00  0.0000E+00  0.0000E+00  0.0000E+00  0.0000E+00  0.0000E+00  0.0000E+00  0.0000E+00  0.0000E+00  0.0000E+00  0.0000E+00  0.0000E+00  0.0000E+00  0.0000E+00  0.0000E+00  0.0000E+00  0.0000E+00
    -31.461  0.0000E+00  0.0000E+00  0.0000E+00  0.0000E+00  0.0000E+00  0.0000E+00  0.0000E+00  0.0000E+00  0.0000E+00  0.0000E+00  0.0000E+00  0.0000E+00  0.0000E+00  0.0000E+00  0.0000E+00  0.0000E+00  0.0000E+00  0.0000E+00
    -31.298  0.0000E+00  0.0000E+00  0.0000E+00  0.0000E+00  0.0000E+00  0.0000E+00  0.0000E+00  0.0000E+00  0.0000E+00  0.0000E+00  0.0000E+00  0.0000E+00  0.0000E+00  0.0000E+00  0.0000E+00  0.0000E+00  0.0000E+00  0.0000E+00
    -31.134  0.0000E+00  0.0000E+00  0.0000E+00  0.0000E+00  0.0000E+00  0.0000E+00  0.0000E+00  0.0000E+00  0.0000E+00  0.0000E+00  0.0000E+00  0.0000E+00  0.0000E+00  0.0000E+00  0.0000E+00  0.0000E+00  0.0000E+00  0.0000E+00
    -30.970  0.0000E+00  0.0000E+00  0.0000E+00  0.0000E+00  0.0000E+00  0.0000E+00  0.0000E+00  0.0000E+00  0.0000E+00  0.0000E+00  0.0000E+00  0.0000E+00  0.0000E+00  0.0000E+00  0.0000E+00  0.0000E+00  0.0000E+00  0.0000E+00