   2   2   1   0
  0.2272501E+02  0.3568711E-09  0.3568711E-09  0.3568711E-09  0.5000000E-15
   1.0000000000000000E-004
  CAR 
 unknown system                          
      9.17643806    -29.54921921  301      3.29352629      1.00000000
    -29.549  0.0000E+00  0.0000E+00  0.0000E+00  0.0000E+00
    -29.420  0.0000E+00  0.0000E+00  0.0000E+00  0.0000E+00
    -29.291  0.0000E+00  0.0000E+00  0.0000E+00  0.0000E+00
    -29.162  0.0000E+00  0.0000E+00  0.0000E+00  0.0000E+00
    -29.033  0.0000E+00  0.0000E+00  0.0000E+00  0.0000E+00
    -28.904  0.0000E+00  0.0000E+00  0.0000E+00  0.0000E+00
    -28.775  0.0000E+00  0.0000E+00  0.0000E+00  0.0000E+00
    -28.646  0.0000E+00  0.0000E+00  0.0000E+00  0.0000E+00
    -28.517  0.0000E+00  0.0000E+00  0.0000E+00  0.0000E+00
    -28.387  0.0000E+00  0.0000E+00  0.0000E+00  0.0000E+00
    -28.258  0.0000E+00  0.0000E+00  0.0000E+00  0.0000E+00
    -28.129  0.0000E+00  0.0000E+00  0.0000E+00  0.0000E+00
    -28.000  0.0000E+00  0.0000E+00  0.0000E+00  0.0000E+00
    -27.871  0.0000E+00  0.0000E+00  0.0000E+00  0.0000E+00
    -27.742  0.5024E+01  0.5111E+01  0.1214E+00  0.1117E+00
    -27.613  0.1051E+02  0.1203E+02  0.1474E+01  0.1461E+01
    -27.484  0.1049E+02  0.1037E+02  0.2319E+01  0.2301E+01
    -27.355  0.2584E+02  0.2484E+02  0.3641E+01  0.3600E+01
    -27.226  0.2082E+02  0.2085E+02  0.5189E+01  0.5158E+01
    -27.097  0.2936E+01  0.2936E+01  0.6000E+01  0.6000E+01
    -26.968  0.0000E+00  0.0000E+00  0.6000E+01  0.6000E+01
    -26.838  0.0000E+00  0.0000E+00  0.6000E+01  0.6000E+01
    -26.709  0.0000E+00  0.0000E+00  0.6000E+01  0.6000E+01
    -26.580  0.0000E+00  0.0000E+00  0.6000E+01  0.6000E+01
    -26.451  0.0000E+00  0.0000E+00  0.6000E+01  0.6000E+01
    -26.322  0.0000E+00  0.0000E+00  0.6000E+01  0.6000E+01
    -26.193  0.0000E+00  0.0000E+00  0.6000E+01  0.6000E+01
    -26.064  0.0000E+00  0.0000E+00  0.6000E+01  0.6000E+01
    -25.935  0.0000E+00  0.0000E+00  0.6000E+01  0.6000E+01
    -25.806  0.0000E+00  0.0000E+00  0.6000E+01  0.6000E+01
    -25.677  0.0000E+00  0.0000E+00  0.6000E+01  0.6000E+01
    -25.548  0.0000E+00  0.0000E+00  0.6000E+01  0.6000E+01
    -25.418  0.0000E+00  0.0000E+00  0.6000E+01  0.6000E+01
    -25.289  0.0000E+00  0.0000E+00  0.6000E+01  0.6000E+01
    -25.160  0.0000E+00  0.0000E+00  0.6000E+01  0.6000E+01
    -25.031  0.0000E+00  0.0000E+00  0.6000E+01  0.6000E+01
    -24.902  0.0000E+00  0.0000E+00  0.6000E+01  0.6000E+01
    -24.773  0.0000E+00  0.0000E+00  0.6000E+01  0.6000E+01
    -24.644  0.0000E+00  0.0000E+00  0.6000E+01  0.6000E+01
    -24.515  0.0000E+00  0.0000E+00  0.6000E+01  0.6000E+01
    -24.386  0.0000E+00  0.0000E+00  0.6000E+01  0.6000E+01
    -24.257  0.0000E+00  0.0000E+00  0.6000E+01  0.6000E+01
    -24.128  0.0000E+00  0.0000E+00  0.6000E+01  0.6000E+01
    -23.999  0.0000E+00  0.0000E+00  0.6000E+01  0.6000E+01
    -23.869  0.0000E+00  0.0000E+00  0.6000E+01  0.6000E+01
    -23.740  0.0000E+00  0.0000E+00  0.6000E+01  0.6000E+01
    -23.611  0.0000E+00  0.0000E+00  0.6000E+01  0.6000E+01
    -23.482  0.0000E+00  0.0000E+00  0.6000E+01  0.6000E+01
    -23.353  0.0000E+00  0.0000E+00  0.6000E+01  0.6000E+01
    -23.224  0.0000E+00  0.0000E+00  0.6000E+01  0.6000E+01
    -23.095  0.0000E+00  0.0000E+00  0.6000E+01  0.6000E+01
    -22.966  0.0000E+00  0.0000E+00  0.6000E+01  0.6000E+01
    -22.837  0.0000E+00  0.0000E+00  0.6000E+01  0.6000E+01
    -22.708  0.0000E+00  0.0000E+00  0.6000E+01  0.6000E+01
    -22.579  0.0000E+00  0.0000E+00  0.6000E+01  0.6000E+01
    -22.450  0.0000E+00  0.0000E+00  0.6000E+01  0.6000E+01
    -22.320  0.0000E+00  0.0000E+00  0.6000E+01  0.6000E+01
    -22.191  0.0000E+00  0.0000E+00  0.6000E+01  0.6000E+01
    -22.062  0.0000E+00  0.0000E+00  0.6000E+01  0.6000E+01
    -21.933  0.0000E+00  0.0000E+00  0.6000E+01  0.6000E+01
    -21.804  0.0000E+00  0.0000E+00  0.6000E+01  0.6000E+01
    -21.675  0.0000E+00  0.0000E+00  0.6000E+01  0.6000E+01
    -21.546  0.0000E+00  0.0000E+00  0.6000E+01  0.6000E+01
    -21.417  0.0000E+00  0.0000E+00  0.6000E+01  0.6000E+01
    -21.288  0.0000E+00  0.0000E+00  0.6000E+01  0.6000E+01
    -21.159  0.0000E+00  0.0000E+00  0.6000E+01  0.6000E+01
    -21.030  0.0000E+00  0.0000E+00  0.6000E+01  0.6000E+01
    -20.900  0.0000E+00  0.0000E+00  0.6000E+01  0.6000E+01
    -20.771  0.0000E+00  0.0000E+00  0.6000E+01  0.6000E+01
    -20.642  0.0000E+00  0.0000E+00  0.6000E+01  0.6000E+01
    -20.513  0.0000E+00  0.0000E+00  0.6000E+01  0.6000E+01
    -20.384  0.0000E+00  0.0000E+00  0.6000E+01  0.6000E+01
    -20.255  0.0000E+00  0.0000E+00  0.6000E+01  0.6000E+01
    -20.126  0.0000E+00  0.0000E+00  0.6000E+01  0.6000E+01
    -19.997  0.0000E+00  0.0000E+00  0.6000E+01  0.6000E+01
    -19.868  0.0000E+00  0.0000E+00  0.6000E+01  0.6000E+01
    -19.739  0.0000E+00  0.0000E+00  0.6000E+01  0.6000E+01
    -19.610  0.0000E+00  0.0000E+00  0.6000E+01  0.6000E+01
    -19.481  0.0000E+00  0.0000E+00  0.6000E+01  0.6000E+01
    -19.351  0.0000E+00  0.0000E+00  0.6000E+01  0.6000E+01
    -19.222  0.0000E+00  0.0000E+00  0.6000E+01  0.6000E+01
    -19.093  0.0000E+00  0.0000E+00  0.6000E+01  0.6000E+01
    -18.964  0.0000E+00  0.0000E+00  0.6000E+01  0.6000E+01
    -18.835  0.0000E+00  0.0000E+00  0.6000E+01  0.6000E+01
    -18.706  0.0000E+00  0.0000E+00  0.6000E+01  0.6000E+01
    -18.577  0.0000E+00  0.0000E+00  0.6000E+01  0.6000E+01
    -18.448  0.0000E+00  0.0000E+00  0.6000E+01  0.6000E+01
    -18.319  0.0000E+00  0.0000E+00  0.6000E+01  0.6000E+01
    -18.190  0.0000E+00  0.0000E+00  0.6000E+01  0.6000E+01
    -18.061  0.0000E+00  0.0000E+00  0.6000E+01  0.6000E+01
    -17.932  0.0000E+00  0.0000E+00  0.6000E+01  0.6000E+01
    -17.802  0.0000E+00  0.0000E+00  0.6000E+01  0.6000E+01
    -17.673  0.0000E+00  0.0000E+00  0.6000E+01  0.6000E+01
    -17.544  0.0000E+00  0.0000E+00  0.6000E+01  0.6000E+01
    -17.415  0.0000E+00  0.0000E+00  0.6000E+01  0.6000E+01
    -17.286  0.0000E+00  0.0000E+00  0.6000E+01  0.6000E+01
    -17.157  0.0000E+00  0.0000E+00  0.6000E+01  0.6000E+01
    -17.028  0.0000E+00  0.0000E+00  0.6000E+01  0.6000E+01
    -16.899  0.0000E+00  0.0000E+00  0.6000E+01  0.6000E+01
    -16.770  0.0000E+00  0.0000E+00  0.6000E+01  0.6000E+01
    -16.641  0.0000E+00  0.0000E+00  0.6000E+01  0.6000E+01
    -16.512  0.0000E+00  0.0000E+00  0.6000E+01  0.6000E+01
    -16.382  0.0000E+00  0.0000E+00  0.6000E+01  0.6000E+01
    -16.253  0.0000E+00  0.0000E+00  0.6000E+01  0.6000E+01
    -16.124  0.0000E+00  0.0000E+00  0.6000E+01  0.6000E+01
    -15.995  0.0000E+00  0.0000E+00  0.6000E+01  0.6000E+01
    -15.866  0.0000E+00  0.0000E+00  0.6000E+01  0.6000E+01
    -15.737  0.0000E+00  0.0000E+00  0.6000E+01  0.6000E+01
    -15.608  0.0000E+00  0.0000E+00  0.6000E+01  0.6000E+01
    -15.479  0.0000E+00  0.0000E+00  0.6000E+01  0.6000E+01
    -15.350  0.0000E+00  0.0000E+00  0.6000E+01  0.6000E+01
    -15.221  0.0000E+00  0.0000E+00  0.6000E+01  0.6000E+01
    -15.092  0.0000E+00  0.0000E+00  0.6000E+01  0.6000E+01
    -14.963  0.0000E+00  0.0000E+00  0.6000E+01  0.6000E+01
    -14.833  0.0000E+00  0.0000E+00  0.6000E+01  0.6000E+01
    -14.704  0.0000E+00  0.0000E+00  0.6000E+01  0.6000E+01
    -14.575  0.0000E+00  0.0000E+00  0.6000E+01  0.6000E+01
    -14.446  0.0000E+00  0.0000E+00  0.6000E+01  0.6000E+01
    -14.317  0.0000E+00  0.0000E+00  0.6000E+01  0.6000E+01
    -14.188  0.0000E+00  0.0000E+00  0.6000E+01  0.6000E+01
    -14.059  0.0000E+00  0.0000E+00  0.6000E+01  0.6000E+01
    -13.930  0.0000E+00  0.0000E+00  0.6000E+01  0.6000E+01
    -13.801  0.0000E+00  0.0000E+00  0.6000E+01  0.6000E+01
    -13.672  0.0000E+00  0.0000E+00  0.6000E+01  0.6000E+01
    -13.543  0.0000E+00  0.0000E+00  0.6000E+01  0.6000E+01
    -13.414  0.0000E+00  0.0000E+00  0.6000E+01  0.6000E+01
    -13.284  0.0000E+00  0.0000E+00  0.6000E+01  0.6000E+01
    -13.155  0.0000E+00  0.0000E+00  0.6000E+01  0.6000E+01
    -13.026  0.0000E+00  0.0000E+00  0.6000E+01  0.6000E+01
    -12.897  0.0000E+00  0.0000E+00  0.6000E+01  0.6000E+01
    -12.768  0.0000E+00  0.0000E+00  0.6000E+01  0.6000E+01
    -12.639  0.0000E+00  0.0000E+00  0.6000E+01  0.6000E+01
    -12.510  0.0000E+00  0.0000E+00  0.6000E+01  0.6000E+01
    -12.381  0.0000E+00  0.0000E+00  0.6000E+01  0.6000E+01
    -12.252  0.0000E+00  0.0000E+00  0.6000E+01  0.6000E+01
    -12.123  0.0000E+00  0.0000E+00  0.6000E+01  0.6000E+01
    -11.994  0.0000E+00  0.0000E+00  0.6000E+01  0.6000E+01
    -11.865  0.0000E+00  0.0000E+00  0.6000E+01  0.6000E+01
    -11.735  0.0000E+00  0.0000E+00  0.6000E+01  0.6000E+01
    -11.606  0.0000E+00  0.0000E+00  0.6000E+01  0.6000E+01
    -11.477  0.0000E+00  0.0000E+00  0.6000E+01  0.6000E+01
    -11.348  0.0000E+00  0.0000E+00  0.6000E+01  0.6000E+01
    -11.219  0.0000E+00  0.0000E+00  0.6000E+01  0.6000E+01
    -11.090  0.0000E+00  0.0000E+00  0.6000E+01  0.6000E+01
    -10.961  0.0000E+00  0.0000E+00  0.6000E+01  0.6000E+01
    -10.832  0.0000E+00  0.0000E+00  0.6000E+01  0.6000E+01
    -10.703  0.0000E+00  0.0000E+00  0.6000E+01  0.6000E+01
    -10.574  0.0000E+00  0.0000E+00  0.6000E+01  0.6000E+01
    -10.445  0.0000E+00  0.0000E+00  0.6000E+01  0.6000E+01
    -10.315  0.0000E+00  0.0000E+00  0.6000E+01  0.6000E+01
    -10.186  0.0000E+00  0.0000E+00  0.6000E+01  0.6000E+01
    -10.057  0.0000E+00  0.0000E+00  0.6000E+01  0.6000E+01
     -9.928  0.0000E+00  0.0000E+00  0.6000E+01  0.6000E+01
     -9.799  0.0000E+00  0.0000E+00  0.6000E+01  0.6000E+01
     -9.670  0.0000E+00  0.0000E+00  0.6000E+01  0.6000E+01
     -9.541  0.0000E+00  0.0000E+00  0.6000E+01  0.6000E+01
     -9.412  0.0000E+00  0.0000E+00  0.6000E+01  0.6000E+01
     -9.283  0.0000E+00  0.0000E+00  0.6000E+01  0.6000E+01
     -9.154  0.0000E+00  0.0000E+00  0.6000E+01  0.6000E+01
     -9.025  0.0000E+00  0.0000E+00  0.6000E+01  0.6000E+01
     -8.896  0.0000E+00  0.0000E+00  0.6000E+01  0.6000E+01
     -8.766  0.0000E+00  0.0000E+00  0.6000E+01  0.6000E+01
     -8.637  0.0000E+00  0.0000E+00  0.6000E+01  0.6000E+01
     -8.508  0.0000E+00  0.0000E+00  0.6000E+01  0.6000E+01
     -8.379  0.0000E+00  0.0000E+00  0.6000E+01  0.6000E+01
     -8.250  0.0000E+00  0.0000E+00  0.6000E+01  0.6000E+01
     -8.121  0.0000E+00  0.0000E+00  0.6000E+01  0.6000E+01
     -7.992  0.0000E+00  0.0000E+00  0.6000E+01  0.6000E+01
     -7.863  0.0000E+00  0.0000E+00  0.6000E+01  0.6000E+01
     -7.734  0.0000E+00  0.0000E+00  0.6000E+01  0.6000E+01
     -7.605  0.0000E+00  0.0000E+00  0.6000E+01  0.6000E+01
     -7.476  0.0000E+00  0.0000E+00  0.6000E+01  0.6000E+01
     -7.347  0.0000E+00  0.0000E+00  0.6000E+01  0.6000E+01
     -7.217  0.0000E+00  0.0000E+00  0.6000E+01  0.6000E+01
     -7.088  0.0000E+00  0.0000E+00  0.6000E+01  0.6000E+01
     -6.959  0.0000E+00  0.0000E+00  0.6000E+01  0.6000E+01
     -6.830  0.0000E+00  0.0000E+00  0.6000E+01  0.6000E+01
     -6.701  0.0000E+00  0.0000E+00  0.6000E+01  0.6000E+01
     -6.572  0.0000E+00  0.0000E+00  0.6000E+01  0.6000E+01
     -6.443  0.0000E+00  0.0000E+00  0.6000E+01  0.6000E+01
     -6.314  0.0000E+00  0.0000E+00  0.6000E+01  0.6000E+01
     -6.185  0.0000E+00  0.0000E+00  0.6000E+01  0.6000E+01
     -6.056  0.0000E+00  0.0000E+00  0.6000E+01  0.6000E+01
     -5.927  0.0000E+00  0.0000E+00  0.6000E+01  0.6000E+01
     -5.797  0.0000E+00  0.0000E+00  0.6000E+01  0.6000E+01
     -5.668  0.0000E+00  0.0000E+00  0.6000E+01  0.6000E+01
     -5.539  0.0000E+00  0.0000E+00  0.6000E+01  0.6000E+01
     -5.410  0.0000E+00  0.0000E+00  0.6000E+01  0.6000E+01
     -5.281  0.0000E+00  0.0000E+00  0.6000E+01  0.6000E+01
     -5.152  0.0000E+00  0.0000E+00  0.6000E+01  0.6000E+01
     -5.023  0.0000E+00  0.0000E+00  0.6000E+01  0.6000E+01
     -4.894  0.0000E+00  0.0000E+00  0.6000E+01  0.6000E+01
     -4.765  0.0000E+00  0.0000E+00  0.6000E+01  0.6000E+01
     -4.636  0.0000E+00  0.0000E+00  0.6000E+01  0.6000E+01
     -4.507  0.0000E+00  0.0000E+00  0.6000E+01  0.6000E+01
     -4.378  0.0000E+00  0.0000E+00  0.6000E+01  0.6000E+01
     -4.248  0.0000E+00  0.0000E+00  0.6000E+01  0.6000E+01
     -4.119  0.0000E+00  0.0000E+00  0.6000E+01  0.6000E+01
     -3.990  0.0000E+00  0.0000E+00  0.6000E+01  0.6000E+01
     -3.861  0.0000E+00  0.0000E+00  0.6000E+01  0.6000E+01
     -3.732  0.0000E+00  0.0000E+00  0.6000E+01  0.6000E+01
     -3.603  0.0000E+00  0.0000E+00  0.6000E+01  0.6000E+01
     -3.474  0.0000E+00  0.0000E+00  0.6000E+01  0.6000E+01
     -3.345  0.0000E+00  0.0000E+00  0.6000E+01  0.6000E+01
     -3.216  0.0000E+00  0.0000E+00  0.6000E+01  0.6000E+01
     -3.087  0.0000E+00  0.0000E+00  0.6000E+01  0.6000E+01
     -2.958  0.0000E+00  0.0000E+00  0.6000E+01  0.6000E+01
     -2.829  0.0000E+00  0.0000E+00  0.6000E+01  0.6000E+01
     -2.699  0.0000E+00  0.0000E+00  0.6000E+01  0.6000E+01
     -2.570  0.0000E+00  0.0000E+00  0.6000E+01  0.6000E+01
     -2.441  0.0000E+00  0.0000E+00  0.6000E+01  0.6000E+01
     -2.312  0.0000E+00  0.0000E+00  0.6000E+01  0.6000E+01
     -2.183  0.0000E+00  0.0000E+00  0.6000E+01  0.6000E+01
     -2.054  0.6409E-03  0.5844E-03  0.6000E+01  0.6000E+01
     -1.925  0.1054E-01  0.1030E-01  0.6001E+01  0.6001E+01
     -1.796  0.3239E-01  0.3198E-01  0.6003E+01  0.6003E+01
     -1.667  0.6053E-01  0.6019E-01  0.6009E+01  0.6009E+01
     -1.538  0.7695E-01  0.7680E-01  0.6018E+01  0.6018E+01
     -1.409  0.8220E-01  0.8213E-01  0.6029E+01  0.6029E+01
     -1.279  0.9020E-01  0.9004E-01  0.6040E+01  0.6040E+01
     -1.150  0.1041E+00  0.1039E+00  0.6052E+01  0.6052E+01
     -1.021  0.1206E+00  0.1204E+00  0.6067E+01  0.6066E+01
     -0.892  0.1382E+00  0.1379E+00  0.6083E+01  0.6083E+01
     -0.763  0.1540E+00  0.1538E+00  0.6102E+01  0.6102E+01
     -0.634  0.1652E+00  0.1649E+00  0.6123E+01  0.6123E+01
     -0.505  0.1861E+00  0.1858E+00  0.6146E+01  0.6145E+01
     -0.376  0.2095E+00  0.2091E+00  0.6171E+01  0.6171E+01
     -0.247  0.2308E+00  0.2304E+00  0.6200E+01  0.6199E+01
     -0.118  0.2528E+00  0.2524E+00  0.6231E+01  0.6230E+01
      0.011  0.2825E+00  0.2819E+00  0.6265E+01  0.6264E+01
      0.140  0.3317E+00  0.3308E+00  0.6304E+01  0.6304E+01
      0.270  0.3990E+00  0.3978E+00  0.6351E+01  0.6351E+01
      0.399  0.7242E+00  0.7171E+00  0.6418E+01  0.6416E+01
      0.528  0.1092E+01  0.1098E+01  0.6559E+01  0.6557E+01
      0.657  0.9439E+00  0.9454E+00  0.6689E+01  0.6687E+01
      0.786  0.6647E+00  0.6622E+00  0.6793E+01  0.6792E+01
      0.915  0.8524E+00  0.8490E+00  0.6890E+01  0.6888E+01
      1.044  0.1087E+01  0.1085E+01  0.7016E+01  0.7014E+01
      1.173  0.1364E+01  0.1360E+01  0.7173E+01  0.7171E+01
      1.302  0.2646E+01  0.2642E+01  0.7425E+01  0.7420E+01
      1.431  0.1861E+01  0.1866E+01  0.7722E+01  0.7718E+01
      1.560  0.1317E+01  0.1321E+01  0.7938E+01  0.7935E+01
      1.689  0.6548E+00  0.6579E+00  0.8061E+01  0.8060E+01
      1.819  0.5096E+00  0.5117E+00  0.8135E+01  0.8134E+01
      1.948  0.4424E+00  0.4424E+00  0.8197E+01  0.8197E+01
      2.077  0.4581E+00  0.4574E+00  0.8254E+01  0.8253E+01
      2.206  0.2254E+01  0.2242E+01  0.8428E+01  0.8424E+01
      2.335  0.4510E+01  0.4504E+01  0.8893E+01  0.8884E+01
      2.464  0.1926E+01  0.1951E+01  0.9284E+01  0.9279E+01
      2.593  0.1313E+01  0.1303E+01  0.9466E+01  0.9463E+01
      2.722  0.1558E+01  0.1553E+01  0.9648E+01  0.9645E+01
      2.851  0.1750E+01  0.1749E+01  0.9864E+01  0.9860E+01
      2.980  0.2355E+01  0.2345E+01  0.1012E+02  0.1012E+02
      3.109  0.3782E+01  0.3814E+01  0.1049E+02  0.1048E+02
      3.239  0.2549E+01  0.2563E+01  0.1088E+02  0.1087E+02
      3.368  0.1960E+01  0.1962E+01  0.1115E+02  0.1115E+02
      3.497  0.1610E+01  0.1616E+01  0.1138E+02  0.1138E+02
      3.626  0.1079E+01  0.1137E+01  0.1157E+02  0.1156E+02
      3.755  0.7556E+00  0.7594E+00  0.1167E+02  0.1167E+02
      3.884  0.6013E+00  0.6023E+00  0.1176E+02  0.1176E+02
      4.013  0.5290E+00  0.5300E+00  0.1183E+02  0.1183E+02
      4.142  0.4558E+00  0.4569E+00  0.1190E+02  0.1189E+02
      4.271  0.3566E+00  0.3576E+00  0.1194E+02  0.1194E+02
      4.400  0.2239E+00  0.2271E+00  0.1198E+02  0.1198E+02
      4.529  0.3885E+00  0.3847E+00  0.1202E+02  0.1202E+02
      4.658  0.6243E+00  0.6195E+00  0.1208E+02  0.1208E+02
      4.788  0.9067E+00  0.9022E+00  0.1218E+02  0.1218E+02
      4.917  0.1138E+01  0.1135E+01  0.1232E+02  0.1231E+02
      5.046  0.1359E+01  0.1356E+01  0.1248E+02  0.1247E+02
      5.175  0.1592E+01  0.1588E+01  0.1267E+02  0.1266E+02
      5.304  0.1878E+01  0.1874E+01  0.1289E+02  0.1289E+02
      5.433  0.1907E+01  0.1890E+01  0.1313E+02  0.1312E+02
      5.562  0.2493E+01  0.2500E+01  0.1344E+02  0.1343E+02
      5.691  0.1981E+01  0.1981E+01  0.1372E+02  0.1372E+02
      5.820  0.2023E+01  0.2030E+01  0.1398E+02  0.1397E+02
      5.949  0.1571E+01  0.1575E+01  0.1420E+02  0.1420E+02
      6.078  0.1698E+01  0.1685E+01  0.1440E+02  0.1440E+02
      6.207  0.2716E+01  0.2714E+01  0.1468E+02  0.1468E+02
      6.337  0.4806E+01  0.4848E+01  0.1536E+02  0.1536E+02
      6.466  0.1845E+01  0.1904E+01  0.1562E+02  0.1562E+02
      6.595  0.1361E+01  0.1311E+01  0.1583E+02  0.1583E+02
      6.724  0.5249E+00  0.5345E+00  0.1595E+02  0.1595E+02
      6.853  0.1770E+00  0.1769E+00  0.1599E+02  0.1599E+02
      6.982  0.1131E-01  0.1142E-01  0.1600E+02  0.1600E+02
      7.111  0.5556E-02  0.5637E-02  0.1600E+02  0.1600E+02
      7.240  0.1825E-02  0.1876E-02  0.1600E+02  0.1600E+02
      7.369  0.1187E-03  0.1333E-03  0.1600E+02  0.1600E+02
      7.498  0.0000E+00  0.0000E+00  0.1600E+02  0.1600E+02
      7.627  0.0000E+00  0.0000E+00  0.1600E+02  0.1600E+02
      7.756  0.0000E+00  0.0000E+00  0.1600E+02  0.1600E+02
      7.886  0.0000E+00  0.0000E+00  0.1600E+02  0.1600E+02
      8.015  0.0000E+00  0.0000E+00  0.1600E+02  0.1600E+02
      8.144  0.0000E+00  0.0000E+00  0.1600E+02  0.1600E+02
      8.273  0.0000E+00  0.0000E+00  0.1600E+02  0.1600E+02
      8.402  0.0000E+00  0.0000E+00  0.1600E+02  0.1600E+02
      8.531  0.0000E+00  0.0000E+00  0.1600E+02  0.1600E+02
      8.660  0.0000E+00  0.0000E+00  0.1600E+02  0.1600E+02
      8.789  0.0000E+00  0.0000E+00  0.1600E+02  0.1600E+02
      8.918  0.0000E+00  0.0000E+00  0.1600E+02  0.1600E+02
      9.047  0.0000E+00  0.0000E+00  0.1600E+02  0.1600E+02
      9.176  0.0000E+00  0.0000E+00  0.1600E+02  0.1600E+02
      9.17643806    -29.54921921  301      3.29352629      1.00000000
    -29.549  0.0000E+00  0.0000E+00  0.0000E+00  0.0000E+00  0.0000E+00  0.0000E+00  0.0000E+00  0.0000E+00  0.0000E+00  0.0000E+00  0.0000E+00  0.0000E+00  0.0000E+00  0.0000E+00  0.0000E+00  0.0000E+00  0.0000E+00  0.0000E+00
    -29.420  0.0000E+00  0.0000E+00  0.0000E+00  0.0000E+00  0.0000E+00  0.0000E+00  0.0000E+00  0.0000E+00  0.0000E+00  0.0000E+00  0.0000E+00  0.0000E+00  0.0000E+00  0.0000E+00  0.0000E+00  0.0000E+00  0.0000E+00  0.0000E+00
    -29.291  0.0000E+00  0.0000E+00  0.0000E+00  0.0000E+00  0.0000E+00  0.0000E+00  0.0000E+00  0.0000E+00  0.0000E+00  0.0000E+00  0.0000E+00  0.0000E+00  0.0000E+00  0.0000E+00  0.0000E+00  0.0000E+00  0.0000E+00  0.0000E+00
    -29.162  0.0000E+00  0.0000E+00  0.0000E+00  0.0000E+00  0.0000E+00  0.0000E+00  0.0000E+00  0.0000E+00  0.0000E+00  0.0000E+00  0.0000E+00  0.0000E+00  0.0000E+00  0.0000E+00  0.0000E+00  0.0000E+00  0.0000E+00  0.0000E+00
    -29.033  0.0000E+00  0.0000E+00  0.0000E+00  0.0000E+00  0.0000E+00  0.0000E+00  0.0000E+00  0.0000E+00  0.0000E+00  0.0000E+00  0.0000E+00  0.0000E+00  0.0000E+00  0.0000E+00  0.0000E+00  0.0000E+00  0.0000E+00  0.0000E+00
    -28.904  0.0000E+00  0.0000E+00  0.0000E+00  0.0000E+00  0.0000E+00  0.0000E+00  0.0000E+00  0.0000E+00  0.0000E+00  0.0000E+00  0.0000E+00  0.0000E+00  0.0000E+00  0.0000E+00  0.0000E+00  0.0000E+00  0.0000E+00  0.0000E+00
    -28.775  0.0000E+00  0.0000E+00  0.0000E+00  0.0000E+00  0.0000E+00  0.0000E+00  0.0000E+00  0.0000E+00  0.0000E+00  0.0000E+00  0.0000E+00  0.0000E+00  0.0000E+00  0.0000E+00  0.0000E+00  0.0000E+00  0.0000E+00  0.0000E+00
    -28.646  0.0000E+00  0.0000E+00  0.0000E+00  0.0000E+00  0.0000E+00  0.0000E+00  0.0000E+00  0.0000E+00  0.0000E+00  0.0000E+00  0.0000E+00  0.0000E+00  0.0000E+00  0.0000E+00  0.0000E+00  0.0000E+00  0.0000E+00  0.0000E+00
    -28.517  0.0000E+00  0.0000E+00  0.0000E+00  0.0000E+00  0.0000E+00  0.0000E+00  0.0000E+00  0.0000E+00  0.0000E+00  0.0000E+00  0.0000E+00  0.0000E+00  0.0000E+00  0.0000E+00  0.0000E+00  0.0000E+00  0.0000E+00  0.0000E+00
    -28.387  0.0000E+00  0.0000E+00  0.0000E+00  0.0000E+00  0.0000E+00  0.0000E+00  0.0000E+00  0.0000E+00  0.0000E+00  0.0000E+00  0.0000E+00  0.0000E+00  0.0000E+00  0.0000E+00  0.0000E+00  0.0000E+00  0.0000E+00  0.0000E+00
    -28.258  0.0000E+00  0.0000E+00  0.0000E+00  0.0000E+00  0.0000E+00  0.0000E+00  0.0000E+00  0.0000E+00  0.0000E+00  0.0000E+00  0.0000E+00  0.0000E+00  0.0000E+00  0.0000E+00  0.0000E+00  0.0000E+00  0.0000E+00  0.0000E+00
    -28.129  0.0000E+00  0.0000E+00  0.0000E+00  0.0000E+00  0.0000E+00  0.0000E+00  0.0000E+00  0.0000E+00  0.0000E+00  0.0000E+00  0.0000E+00  0.0000E+00  0.0000E+00  0.0000E+00  0.0000E+00  0.0000E+00  0.0000E+00  0.0000E+00
    -28.000  0.0000E+00  0.0000E+00  0.0000E+00  0.0000E+00  0.0000E+00  0.0000E+00  0.0000E+00  0.0000E+00  0.0000E+00  0.0000E+00  0.0000E+00  0.0000E+00  0.0000E+00  0.0000E+00  0.0000E+00  0.0000E+00  0.0000E+00  0.0000E+00
    -27.871  0.0000E+00  0.0000E+00  0.0000E+00  0.0000E+00  0.0000E+00  0.0000E+00  0.0000E+00  0.0000E+00  0.0000E+00  0.0000E+00  0.0000E+00  0.0000E+00  0.0000E+00  0.0000E+00  0.0000E+00  0.0000E+00  0.0000E+00  0.0000E+00
    -27.742  0.1947E-03  0.1991E-03  0.8198E+00  0.8339E+00  0.8198E+00  0.8339E+00  0.8198E+00  0.8339E+00  0.8001E-04  0.7864E-04  0.8001E-04  0.7864E-04  0.3369E-04  0.3212E-04  0.8001E-04  0.7864E-04  0.3369E-04  0.3212E-04
    -27.613  0.1058E-02  0.1138E-02  0.1720E+01  0.1969E+01  0.1720E+01  0.1969E+01  0.1720E+01  0.1969E+01  0.2371E-03  0.2752E-03  0.2371E-03  0.2752E-03  0.1184E-03  0.1304E-03  0.2371E-03  0.2752E-03  0.1184E-03  0.1304E-03
    -27.484  0.6169E-03  0.6095E-03  0.1726E+01  0.1706E+01  0.1726E+01  0.1706E+01  0.1726E+01  0.1706E+01  0.6041E-03  0.6030E-03  0.6041E-03  0.6030E-03  0.5568E-04  0.5495E-04  0.6041E-03  0.6030E-03  0.5568E-04  0.5495E-04
    -27.355  0.1108E-02  0.1044E-02  0.4268E+01  0.4103E+01  0.4268E+01  0.4103E+01  0.4268E+01  0.4103E+01  0.1235E-02  0.1185E-02  0.1235E-02  0.1185E-02  0.6209E-04  0.5661E-04  0.1235E-02  0.1185E-02  0.6209E-04  0.5661E-04
    -27.226  0.5026E-03  0.5091E-03  0.3450E+01  0.3455E+01  0.3450E+01  0.3455E+01  0.3450E+01  0.3455E+01  0.5273E-03  0.5320E-03  0.5273E-03  0.5320E-03  0.1686E-04  0.1653E-04  0.5273E-03  0.5320E-03  0.1686E-04  0.1653E-04
    -27.097  0.2437E-04  0.2437E-04  0.4871E+00  0.4871E+00  0.4871E+00  0.4871E+00  0.4871E+00  0.4871E+00  0.3123E-04  0.3098E-04  0.3123E-04  0.3098E-04  0.7757E-06  0.7453E-06  0.3123E-04  0.3098E-04  0.7757E-06  0.7453E-06
    -26.968  0.0000E+00  0.0000E+00  0.0000E+00  0.0000E+00  0.0000E+00  0.0000E+00  0.0000E+00  0.0000E+00  0.0000E+00  0.0000E+00  0.0000E+00  0.0000E+00  0.0000E+00  0.0000E+00  0.0000E+00  0.0000E+00  0.0000E+00  0.0000E+00
    -26.838  0.0000E+00  0.0000E+00  0.0000E+00  0.0000E+00  0.0000E+00  0.0000E+00  0.0000E+00  0.0000E+00  0.0000E+00  0.0000E+00  0.0000E+00  0.0000E+00  0.0000E+00  0.0000E+00  0.0000E+00  0.0000E+00  0.0000E+00  0.0000E+00
    -26.709  0.0000E+00  0.0000E+00  0.0000E+00  0.0000E+00  0.0000E+00  0.0000E+00  0.0000E+00  0.0000E+00  0.0000E+00  0.0000E+00  0.0000E+00  0.0000E+00  0.0000E+00  0.0000E+00  0.0000E+00  0.0000E+00  0.0000E+00  0.0000E+00
    -26.580  0.0000E+00  0.0000E+00  0.0000E+00  0.0000E+00  0.0000E+00  0.0000E+00  0.0000E+00  0.0000E+00  0.0000E+00  0.0000E+00  0.0000E+00  0.0000E+00  0.0000E+00  0.0000E+00  0.0000E+00  0.0000E+00  0.0000E+00  0.0000E+00
    -26.451  0.0000E+00  0.0000E+00  0.0000E+00  0.0000E+00  0.0000E+00  0.0000E+00  0.0000E+00  0.0000E+00  0.0000E+00  0.0000E+00  0.0000E+00  0.0000E+00  0.0000E+00  0.0000E+00  0.0000E+00  0.0000E+00  0.0000E+00  0.0000E+00
    -26.322  0.0000E+00  0.0000E+00  0.0000E+00  0.0000E+00  0.0000E+00  0.0000E+00  0.0000E+00  0.0000E+00  0.0000E+00  0.0000E+00  0.0000E+00  0.0000E+00  0.0000E+00  0.0000E+00  0.0000E+00  0.0000E+00  0.0000E+00  0.0000E+00
    -26.193  0.0000E+00  0.0000E+00  0.0000E+00  0.0000E+00  0.0000E+00  0.0000E+00  0.0000E+00  0.0000E+00  0.0000E+00  0.0000E+00  0.0000E+00  0.0000E+00  0.0000E+00  0.0000E+00  0.0000E+00  0.0000E+00  0.0000E+00  0.0000E+00
    -26.064  0.0000E+00  0.0000E+00  0.0000E+00  0.0000E+00  0.0000E+00  0.0000E+00  0.0000E+00  0.0000E+00  0.0000E+00  0.0000E+00  0.0000E+00  0.0000E+00  0.0000E+00  0.0000E+00  0.0000E+00  0.0000E+00  0.0000E+00  0.0000E+00
    -25.935  0.0000E+00  0.0000E+00  0.0000E+00  0.0000E+00  0.0000E+00  0.0000E+00  0.0000E+00  0.0000E+00  0.0000E+00  0.0000E+00  0.0000E+00  0.0000E+00  0.0000E+00  0.0000E+00  0.0000E+00  0.0000E+00  0.0000E+00  0.0000E+00
    -25.806  0.0000E+00  0.0000E+00  0.0000E+00  0.0000E+00  0.0000E+00  0.0000E+00  0.0000E+00  0.0000E+00  0.0000E+00  0.0000E+00  0.0000E+00  0.0000E+00  0.0000E+00  0.0000E+00  0.0000E+00  0.0000E+00  0.0000E+00  0.0000E+00
    -25.677  0.0000E+00  0.0000E+00  0.0000E+00  0.0000E+00  0.0000E+00  0.0000E+00  0.0000E+00  0.0000E+00  0.0000E+00  0.0000E+00  0.0000E+00  0.0000E+00  0.0000E+00  0.0000E+00  0.0000E+00  0.0000E+00  0.0000E+00  0.0000E+00
    -25.548  0.0000E+00  0.0000E+00  0.0000E+00  0.0000E+00  0.0000E+00  0.0000E+00  0.0000E+00  0.0000E+00  0.0000E+00  0.0000E+00  0.0000E+00  0.0000E+00  0.0000E+00  0.0000E+00  0.0000E+00  0.0000E+00  0.0000E+00  0.0000E+00
    -25.418  0.0000E+00  0.0000E+00  0.0000E+00  0.0000E+00  0.0000E+00  0.0000E+00  0.0000E+00  0.0000E+00  0.0000E+00  0.0000E+00  0.0000E+00  0.0000E+00  0.0000E+00  0.0000E+00  0.0000E+00  0.0000E+00  0.0000E+00  0.0000E+00
    -25.289  0.0000E+00  0.0000E+00  0.0000E+00  0.0000E+00  0.0000E+00  0.0000E+00  0.0000E+00  0.0000E+00  0.0000E+00  0.0000E+00  0.0000E+00  0.0000E+00  0.0000E+00  0.0000E+00  0.0000E+00  0.0000E+00  0.0000E+00  0.0000E+00
    -25.160  0.0000E+00  0.0000E+00  0.0000E+00  0.0000E+00  0.0000E+00  0.0000E+00  0.0000E+00  0.0000E+00  0.0000E+00  0.0000E+00  0.0000E+00  0.0000E+00  0.0000E+00  0.0000E+00  0.0000E+00  0.0000E+00  0.0000E+00  0.0000E+00
    -25.031  0.0000E+00  0.0000E+00  0.0000E+00  0.0000E+00  0.0000E+00  0.0000E+00  0.0000E+00  0.0000E+00  0.0000E+00  0.0000E+00  0.0000E+00  0.0000E+00  0.0000E+00  0.0000E+00  0.0000E+00  0.0000E+00  0.0000E+00  0.0000E+00
    -24.902  0.0000E+00  0.0000E+00  0.0000E+00  0.0000E+00  0.0000E+00  0.0000E+00  0.0000E+00  0.0000E+00  0.0000E+00  0.0000E+00  0.0000E+00  0.0000E+00  0.0000E+00  0.0000E+00  0.0000E+00  0.0000E+00  0.0000E+00  0.0000E+00
    -24.773  0.0000E+00  0.0000E+00  0.0000E+00  0.0000E+00  0.0000E+00  0.0000E+00  0.0000E+00  0.0000E+00  0.0000E+00  0.0000E+00  0.0000E+00  0.0000E+00  0.0000E+00  0.0000E+00  0.0000E+00  0.0000E+00  0.0000E+00  0.0000E+00
    -24.644  0.0000E+00  0.0000E+00  0.0000E+00  0.0000E+00  0.0000E+00  0.0000E+00  0.0000E+00  0.0000E+00  0.0000E+00  0.0000E+00  0.0000E+00  0.0000E+00  0.0000E+00  0.0000E+00  0.0000E+00  0.0000E+00  0.0000E+00  0.0000E+00
    -24.515  0.0000E+00  0.0000E+00  0.0000E+00  0.0000E+00  0.0000E+00  0.0000E+00  0.0000E+00  0.0000E+00  0.0000E+00  0.0000E+00  0.0000E+00  0.0000E+00  0.0000E+00  0.0000E+00  0.0000E+00  0.0000E+00  0.0000E+00  0.0000E+00
    -24.386  0.0000E+00  0.0000E+00  0.0000E+00  0.0000E+00  0.0000E+00  0.0000E+00  0.0000E+00  0.0000E+00  0.0000E+00  0.0000E+00  0.0000E+00  0.0000E+00  0.0000E+00  0.0000E+00  0.0000E+00  0.0000E+00  0.0000E+00  0.0000E+00
    -24.257  0.0000E+00  0.0000E+00  0.0000E+00  0.0000E+00  0.0000E+00  0.0000E+00  0.0000E+00  0.0000E+00  0.0000E+00  0.0000E+00  0.0000E+00  0.0000E+00  0.0000E+00  0.0000E+00  0.0000E+00  0.0000E+00  0.0000E+00  0.0000E+00
    -24.128  0.0000E+00  0.0000E+00  0.0000E+00  0.0000E+00  0.0000E+00  0.0000E+00  0.0000E+00  0.0000E+00  0.0000E+00  0.0000E+00  0.0000E+00  0.0000E+00  0.0000E+00  0.0000E+00  0.0000E+00  0.0000E+00  0.0000E+00  0.0000E+00
    -23.999  0.0000E+00  0.0000E+00  0.0000E+00  0.0000E+00  0.0000E+00  0.0000E+00  0.0000E+00  0.0000E+00  0.0000E+00  0.0000E+00  0.0000E+00  0.0000E+00  0.0000E+00  0.0000E+00  0.0000E+00  0.0000E+00  0.0000E+00  0.0000E+00
    -23.869  0.0000E+00  0.0000E+00  0.0000E+00  0.0000E+00  0.0000E+00  0.0000E+00  0.0000E+00  0.0000E+00  0.0000E+00  0.0000E+00  0.0000E+00  0.0000E+00  0.0000E+00  0.0000E+00  0.0000E+00  0.0000E+00  0.0000E+00  0.0000E+00
    -23.740  0.0000E+00  0.0000E+00  0.0000E+00  0.0000E+00  0.0000E+00  0.0000E+00  0.0000E+00  0.0000E+00  0.0000E+00  0.0000E+00  0.0000E+00  0.0000E+00  0.0000E+00  0.0000E+00  0.0000E+00  0.0000E+00  0.0000E+00  0.0000E+00
    -23.611  0.0000E+00  0.0000E+00  0.0000E+00  0.0000E+00  0.0000E+00  0.0000E+00  0.0000E+00  0.0000E+00  0.0000E+00  0.0000E+00  0.0000E+00  0.0000E+00  0.0000E+00  0.0000E+00  0.0000E+00  0.0000E+00  0.0000E+00  0.0000E+00
    -23.482  0.0000E+00  0.0000E+00  0.0000E+00  0.0000E+00  0.0000E+00  0.0000E+00  0.0000E+00  0.0000E+00  0.0000E+00  0.0000E+00  0.0000E+00  0.0000E+00  0.0000E+00  0.0000E+00  0.0000E+00  0.0000E+00  0.0000E+00  0.0000E+00
    -23.353  0.0000E+00  0.0000E+00  0.0000E+00  0.0000E+00  0.0000E+00  0.0000E+00  0.0000E+00  0.0000E+00  0.0000E+00  0.0000E+00  0.0000E+00  0.0000E+00  0.0000E+00  0.0000E+00  0.0000E+00  0.0000E+00  0.0000E+00  0.0000E+00
    -23.224  0.0000E+00  0.0000E+00  0.0000E+00  0.0000E+00  0.0000E+00  0.0000E+00  0.0000E+00  0.0000E+00  0.0000E+00  0.0000E+00  0.0000E+00  0.0000E+00  0.0000E+00  0.0000E+00  0.0000E+00  0.0000E+00  0.0000E+00  0.0000E+00
    -23.095  0.0000E+00  0.0000E+00  0.0000E+00  0.0000E+00  0.0000E+00  0.0000E+00  0.0000E+00  0.0000E+00  0.0000E+00  0.0000E+00  0.0000E+00  0.0000E+00  0.0000E+00  0.0000E+00  0.0000E+00  0.0000E+00  0.0000E+00  0.0000E+00