   2   2   1   0
  0.1447803E+02  0.3070764E-09  0.3070764E-09  0.3070764E-09  0.5000000E-15
   1.0000000000000000E-004
  CAR 
 unknown system                          
     16.04572295    -26.48502429  301      7.01983758      1.00000000
    -26.485  0.0000E+00  0.0000E+00  0.0000E+00  0.0000E+00
    -26.343  0.0000E+00  0.0000E+00  0.0000E+00  0.0000E+00
    -26.201  0.0000E+00  0.0000E+00  0.0000E+00  0.0000E+00
    -26.060  0.0000E+00  0.0000E+00  0.0000E+00  0.0000E+00
    -25.918  0.0000E+00  0.0000E+00  0.0000E+00  0.0000E+00
    -25.776  0.0000E+00  0.0000E+00  0.0000E+00  0.0000E+00
    -25.634  0.0000E+00  0.0000E+00  0.0000E+00  0.0000E+00
    -25.493  0.0000E+00  0.0000E+00  0.0000E+00  0.0000E+00
    -25.351  0.0000E+00  0.0000E+00  0.0000E+00  0.0000E+00
    -25.209  0.0000E+00  0.0000E+00  0.0000E+00  0.0000E+00
    -25.067  0.0000E+00  0.0000E+00  0.0000E+00  0.0000E+00
    -24.926  0.0000E+00  0.0000E+00  0.0000E+00  0.0000E+00
    -24.784  0.0000E+00  0.0000E+00  0.0000E+00  0.0000E+00
    -24.642  0.0000E+00  0.0000E+00  0.0000E+00  0.0000E+00
    -24.500  0.3240E+00  0.3164E+00  0.1201E-01  0.1138E-01
    -24.358  0.1343E+01  0.1329E+01  0.1314E+00  0.1290E+00
    -24.217  0.2515E+01  0.2495E+01  0.3861E+00  0.3812E+00
    -24.075  0.3535E+01  0.3544E+01  0.8742E+00  0.8679E+00
    -23.933  0.2330E+01  0.2347E+01  0.1273E+01  0.1269E+01
    -23.791  0.1486E+01  0.1493E+01  0.1533E+01  0.1530E+01
    -23.650  0.1455E+01  0.1444E+01  0.1718E+01  0.1715E+01
    -23.508  0.1604E+01  0.1603E+01  0.1943E+01  0.1940E+01
    -23.366  0.1943E+01  0.1938E+01  0.2176E+01  0.2172E+01
    -23.224  0.2013E+01  0.2007E+01  0.2446E+01  0.2442E+01
    -23.083  0.2097E+01  0.2099E+01  0.2755E+01  0.2751E+01
    -22.941  0.2391E+01  0.2390E+01  0.3097E+01  0.3093E+01
    -22.799  0.3286E+01  0.3244E+01  0.3444E+01  0.3437E+01
    -22.657  0.2817E+01  0.2990E+01  0.3941E+01  0.3937E+01
    -22.515  0.1870E+01  0.1841E+01  0.4175E+01  0.4171E+01
    -22.374  0.4835E+01  0.4830E+01  0.4673E+01  0.4662E+01
    -22.232  0.4009E+01  0.4004E+01  0.5251E+01  0.5242E+01
    -22.090  0.3936E+01  0.3964E+01  0.5857E+01  0.5849E+01
    -21.948  0.8226E-01  0.1645E+00  0.6000E+01  0.6000E+01
    -21.807  0.0000E+00  0.0000E+00  0.6000E+01  0.6000E+01
    -21.665  0.0000E+00  0.0000E+00  0.6000E+01  0.6000E+01
    -21.523  0.0000E+00  0.0000E+00  0.6000E+01  0.6000E+01
    -21.381  0.0000E+00  0.0000E+00  0.6000E+01  0.6000E+01
    -21.240  0.0000E+00  0.0000E+00  0.6000E+01  0.6000E+01
    -21.098  0.0000E+00  0.0000E+00  0.6000E+01  0.6000E+01
    -20.956  0.0000E+00  0.0000E+00  0.6000E+01  0.6000E+01
    -20.814  0.0000E+00  0.0000E+00  0.6000E+01  0.6000E+01
    -20.672  0.0000E+00  0.0000E+00  0.6000E+01  0.6000E+01
    -20.531  0.0000E+00  0.0000E+00  0.6000E+01  0.6000E+01
    -20.389  0.0000E+00  0.0000E+00  0.6000E+01  0.6000E+01
    -20.247  0.0000E+00  0.0000E+00  0.6000E+01  0.6000E+01
    -20.105  0.0000E+00  0.0000E+00  0.6000E+01  0.6000E+01
    -19.964  0.0000E+00  0.0000E+00  0.6000E+01  0.6000E+01
    -19.822  0.0000E+00  0.0000E+00  0.6000E+01  0.6000E+01
    -19.680  0.0000E+00  0.0000E+00  0.6000E+01  0.6000E+01
    -19.538  0.0000E+00  0.0000E+00  0.6000E+01  0.6000E+01
    -19.397  0.0000E+00  0.0000E+00  0.6000E+01  0.6000E+01
    -19.255  0.0000E+00  0.0000E+00  0.6000E+01  0.6000E+01
    -19.113  0.0000E+00  0.0000E+00  0.6000E+01  0.6000E+01
    -18.971  0.0000E+00  0.0000E+00  0.6000E+01  0.6000E+01
    -18.829  0.0000E+00  0.0000E+00  0.6000E+01  0.6000E+01
    -18.688  0.0000E+00  0.0000E+00  0.6000E+01  0.6000E+01
    -18.546  0.0000E+00  0.0000E+00  0.6000E+01  0.6000E+01
    -18.404  0.0000E+00  0.0000E+00  0.6000E+01  0.6000E+01
    -18.262  0.0000E+00  0.0000E+00  0.6000E+01  0.6000E+01
    -18.121  0.0000E+00  0.0000E+00  0.6000E+01  0.6000E+01
    -17.979  0.0000E+00  0.0000E+00  0.6000E+01  0.6000E+01
    -17.837  0.0000E+00  0.0000E+00  0.6000E+01  0.6000E+01
    -17.695  0.0000E+00  0.0000E+00  0.6000E+01  0.6000E+01
    -17.554  0.0000E+00  0.0000E+00  0.6000E+01  0.6000E+01
    -17.412  0.0000E+00  0.0000E+00  0.6000E+01  0.6000E+01
    -17.270  0.0000E+00  0.0000E+00  0.6000E+01  0.6000E+01
    -17.128  0.0000E+00  0.0000E+00  0.6000E+01  0.6000E+01
    -16.986  0.0000E+00  0.0000E+00  0.6000E+01  0.6000E+01
    -16.845  0.0000E+00  0.0000E+00  0.6000E+01  0.6000E+01
    -16.703  0.0000E+00  0.0000E+00  0.6000E+01  0.6000E+01
    -16.561  0.0000E+00  0.0000E+00  0.6000E+01  0.6000E+01
    -16.419  0.0000E+00  0.0000E+00  0.6000E+01  0.6000E+01
    -16.278  0.0000E+00  0.0000E+00  0.6000E+01  0.6000E+01
    -16.136  0.0000E+00  0.0000E+00  0.6000E+01  0.6000E+01
    -15.994  0.0000E+00  0.0000E+00  0.6000E+01  0.6000E+01
    -15.852  0.0000E+00  0.0000E+00  0.6000E+01  0.6000E+01
    -15.711  0.0000E+00  0.0000E+00  0.6000E+01  0.6000E+01
    -15.569  0.0000E+00  0.0000E+00  0.6000E+01  0.6000E+01
    -15.427  0.0000E+00  0.0000E+00  0.6000E+01  0.6000E+01
    -15.285  0.0000E+00  0.0000E+00  0.6000E+01  0.6000E+01
    -15.143  0.0000E+00  0.0000E+00  0.6000E+01  0.6000E+01
    -15.002  0.0000E+00  0.0000E+00  0.6000E+01  0.6000E+01
    -14.860  0.0000E+00  0.0000E+00  0.6000E+01  0.6000E+01
    -14.718  0.0000E+00  0.0000E+00  0.6000E+01  0.6000E+01
    -14.576  0.0000E+00  0.0000E+00  0.6000E+01  0.6000E+01
    -14.435  0.0000E+00  0.0000E+00  0.6000E+01  0.6000E+01
    -14.293  0.0000E+00  0.0000E+00  0.6000E+01  0.6000E+01
    -14.151  0.0000E+00  0.0000E+00  0.6000E+01  0.6000E+01
    -14.009  0.0000E+00  0.0000E+00  0.6000E+01  0.6000E+01
    -13.868  0.0000E+00  0.0000E+00  0.6000E+01  0.6000E+01
    -13.726  0.0000E+00  0.0000E+00  0.6000E+01  0.6000E+01
    -13.584  0.0000E+00  0.0000E+00  0.6000E+01  0.6000E+01
    -13.442  0.0000E+00  0.0000E+00  0.6000E+01  0.6000E+01
    -13.300  0.0000E+00  0.0000E+00  0.6000E+01  0.6000E+01
    -13.159  0.0000E+00  0.0000E+00  0.6000E+01  0.6000E+01
    -13.017  0.0000E+00  0.0000E+00  0.6000E+01  0.6000E+01
    -12.875  0.0000E+00  0.0000E+00  0.6000E+01  0.6000E+01
    -12.733  0.0000E+00  0.0000E+00  0.6000E+01  0.6000E+01
    -12.592  0.0000E+00  0.0000E+00  0.6000E+01  0.6000E+01
    -12.450  0.0000E+00  0.0000E+00  0.6000E+01  0.6000E+01
    -12.308  0.0000E+00  0.0000E+00  0.6000E+01  0.6000E+01
    -12.166  0.0000E+00  0.0000E+00  0.6000E+01  0.6000E+01
    -12.025  0.0000E+00  0.0000E+00  0.6000E+01  0.6000E+01
    -11.883  0.0000E+00  0.0000E+00  0.6000E+01  0.6000E+01
    -11.741  0.0000E+00  0.0000E+00  0.6000E+01  0.6000E+01
    -11.599  0.0000E+00  0.0000E+00  0.6000E+01  0.6000E+01
    -11.457  0.0000E+00  0.0000E+00  0.6000E+01  0.6000E+01
    -11.316  0.0000E+00  0.0000E+00  0.6000E+01  0.6000E+01
    -11.174  0.0000E+00  0.0000E+00  0.6000E+01  0.6000E+01
    -11.032  0.0000E+00  0.0000E+00  0.6000E+01  0.6000E+01
    -10.890  0.0000E+00  0.0000E+00  0.6000E+01  0.6000E+01
    -10.749  0.0000E+00  0.0000E+00  0.6000E+01  0.6000E+01
    -10.607  0.0000E+00  0.0000E+00  0.6000E+01  0.6000E+01
    -10.465  0.0000E+00  0.0000E+00  0.6000E+01  0.6000E+01
    -10.323  0.0000E+00  0.0000E+00  0.6000E+01  0.6000E+01
    -10.182  0.0000E+00  0.0000E+00  0.6000E+01  0.6000E+01
    -10.040  0.0000E+00  0.0000E+00  0.6000E+01  0.6000E+01
     -9.898  0.0000E+00  0.0000E+00  0.6000E+01  0.6000E+01
     -9.756  0.0000E+00  0.0000E+00  0.6000E+01  0.6000E+01
     -9.614  0.0000E+00  0.0000E+00  0.6000E+01  0.6000E+01
     -9.473  0.0000E+00  0.0000E+00  0.6000E+01  0.6000E+01
     -9.331  0.0000E+00  0.0000E+00  0.6000E+01  0.6000E+01
     -9.189  0.0000E+00  0.0000E+00  0.6000E+01  0.6000E+01
     -9.047  0.0000E+00  0.0000E+00  0.6000E+01  0.6000E+01
     -8.906  0.0000E+00  0.0000E+00  0.6000E+01  0.6000E+01
     -8.764  0.0000E+00  0.0000E+00  0.6000E+01  0.6000E+01
     -8.622  0.0000E+00  0.0000E+00  0.6000E+01  0.6000E+01
     -8.480  0.0000E+00  0.0000E+00  0.6000E+01  0.6000E+01
     -8.339  0.0000E+00  0.0000E+00  0.6000E+01  0.6000E+01
     -8.197  0.0000E+00  0.0000E+00  0.6000E+01  0.6000E+01
     -8.055  0.0000E+00  0.0000E+00  0.6000E+01  0.6000E+01
     -7.913  0.0000E+00  0.0000E+00  0.6000E+01  0.6000E+01
     -7.771  0.0000E+00  0.0000E+00  0.6000E+01  0.6000E+01
     -7.630  0.0000E+00  0.0000E+00  0.6000E+01  0.6000E+01
     -7.488  0.0000E+00  0.0000E+00  0.6000E+01  0.6000E+01
     -7.346  0.0000E+00  0.0000E+00  0.6000E+01  0.6000E+01
     -7.204  0.0000E+00  0.0000E+00  0.6000E+01  0.6000E+01
     -7.063  0.0000E+00  0.0000E+00  0.6000E+01  0.6000E+01
     -6.921  0.0000E+00  0.0000E+00  0.6000E+01  0.6000E+01
     -6.779  0.0000E+00  0.0000E+00  0.6000E+01  0.6000E+01
     -6.637  0.0000E+00  0.0000E+00  0.6000E+01  0.6000E+01
     -6.496  0.0000E+00  0.0000E+00  0.6000E+01  0.6000E+01
     -6.354  0.0000E+00  0.0000E+00  0.6000E+01  0.6000E+01
     -6.212  0.0000E+00  0.0000E+00  0.6000E+01  0.6000E+01
     -6.070  0.0000E+00  0.0000E+00  0.6000E+01  0.6000E+01
     -5.928  0.0000E+00  0.0000E+00  0.6000E+01  0.6000E+01
     -5.787  0.0000E+00  0.0000E+00  0.6000E+01  0.6000E+01
     -5.645  0.0000E+00  0.0000E+00  0.6000E+01  0.6000E+01
     -5.503  0.0000E+00  0.0000E+00  0.6000E+01  0.6000E+01
     -5.361  0.0000E+00  0.0000E+00  0.6000E+01  0.6000E+01
     -5.220  0.0000E+00  0.0000E+00  0.6000E+01  0.6000E+01
     -5.078  0.0000E+00  0.0000E+00  0.6000E+01  0.6000E+01
     -4.936  0.0000E+00  0.0000E+00  0.6000E+01  0.6000E+01
     -4.794  0.0000E+00  0.0000E+00  0.6000E+01  0.6000E+01
     -4.653  0.0000E+00  0.0000E+00  0.6000E+01  0.6000E+01
     -4.511  0.0000E+00  0.0000E+00  0.6000E+01  0.6000E+01
     -4.369  0.0000E+00  0.0000E+00  0.6000E+01  0.6000E+01
     -4.227  0.0000E+00  0.0000E+00  0.6000E+01  0.6000E+01
     -4.085  0.0000E+00  0.0000E+00  0.6000E+01  0.6000E+01
     -3.944  0.0000E+00  0.0000E+00  0.6000E+01  0.6000E+01
     -3.802  0.0000E+00  0.0000E+00  0.6000E+01  0.6000E+01
     -3.660  0.0000E+00  0.0000E+00  0.6000E+01  0.6000E+01
     -3.518  0.0000E+00  0.0000E+00  0.6000E+01  0.6000E+01
     -3.377  0.0000E+00  0.0000E+00  0.6000E+01  0.6000E+01
     -3.235  0.0000E+00  0.0000E+00  0.6000E+01  0.6000E+01
     -3.093  0.0000E+00  0.0000E+00  0.6000E+01  0.6000E+01
     -2.951  0.0000E+00  0.0000E+00  0.6000E+01  0.6000E+01
     -2.810  0.0000E+00  0.0000E+00  0.6000E+01  0.6000E+01
     -2.668  0.0000E+00  0.0000E+00  0.6000E+01  0.6000E+01
     -2.526  0.0000E+00  0.0000E+00  0.6000E+01  0.6000E+01
     -2.384  0.0000E+00  0.0000E+00  0.6000E+01  0.6000E+01
     -2.242  0.0000E+00  0.0000E+00  0.6000E+01  0.6000E+01
     -2.101  0.0000E+00  0.0000E+00  0.6000E+01  0.6000E+01
     -1.959  0.0000E+00  0.0000E+00  0.6000E+01  0.6000E+01
     -1.817  0.0000E+00  0.0000E+00  0.6000E+01  0.6000E+01
     -1.675  0.0000E+00  0.0000E+00  0.6000E+01  0.6000E+01
     -1.534  0.0000E+00  0.0000E+00  0.6000E+01  0.6000E+01
     -1.392  0.0000E+00  0.0000E+00  0.6000E+01  0.6000E+01
     -1.250  0.0000E+00  0.0000E+00  0.6000E+01  0.6000E+01
     -1.108  0.0000E+00  0.0000E+00  0.6000E+01  0.6000E+01
     -0.967  0.0000E+00  0.0000E+00  0.6000E+01  0.6000E+01
     -0.825  0.0000E+00  0.0000E+00  0.6000E+01  0.6000E+01
     -0.683  0.0000E+00  0.0000E+00  0.6000E+01  0.6000E+01
     -0.541  0.0000E+00  0.0000E+00  0.6000E+01  0.6000E+01
     -0.399  0.0000E+00  0.0000E+00  0.6000E+01  0.6000E+01
     -0.258  0.0000E+00  0.0000E+00  0.6000E+01  0.6000E+01
     -0.116  0.0000E+00  0.0000E+00  0.6000E+01  0.6000E+01
      0.026  0.0000E+00  0.0000E+00  0.6000E+01  0.6000E+01
      0.168  0.0000E+00  0.0000E+00  0.6000E+01  0.6000E+01
      0.309  0.0000E+00  0.0000E+00  0.6000E+01  0.6000E+01
      0.451  0.0000E+00  0.0000E+00  0.6000E+01  0.6000E+01
      0.593  0.0000E+00  0.0000E+00  0.6000E+01  0.6000E+01
      0.735  0.7638E-04  0.8643E-04  0.6000E+01  0.6000E+01
      0.876  0.2388E-02  0.2443E-02  0.6000E+01  0.6000E+01
      1.018  0.7922E-02  0.8020E-02  0.6001E+01  0.6001E+01
      1.160  0.1668E-01  0.1682E-01  0.6003E+01  0.6003E+01
      1.302  0.2954E-01  0.2974E-01  0.6006E+01  0.6006E+01
      1.443  0.4228E-01  0.4242E-01  0.6011E+01  0.6011E+01
      1.585  0.5103E-01  0.5111E-01  0.6018E+01  0.6018E+01
      1.727  0.6040E-01  0.6032E-01  0.6025E+01  0.6025E+01
      1.869  0.8909E-01  0.8887E-01  0.6036E+01  0.6036E+01
      2.011  0.1289E+00  0.1288E+00  0.6051E+01  0.6051E+01
      2.152  0.1668E+00  0.1668E+00  0.6072E+01  0.6072E+01
      2.294  0.2514E+00  0.2514E+00  0.6101E+01  0.6101E+01
      2.436  0.3976E+00  0.3976E+00  0.6148E+01  0.6148E+01
      2.578  0.5353E+00  0.5354E+00  0.6214E+01  0.6214E+01
      2.719  0.6860E+00  0.6862E+00  0.6300E+01  0.6300E+01
      2.861  0.9945E+00  0.9943E+00  0.6419E+01  0.6420E+01
      3.003  0.1119E+01  0.1119E+01  0.6568E+01  0.6568E+01
      3.145  0.1338E+01  0.1338E+01  0.6745E+01  0.6745E+01
      3.286  0.1379E+01  0.1379E+01  0.6938E+01  0.6938E+01
      3.428  0.1421E+01  0.1421E+01  0.7144E+01  0.7144E+01
      3.570  0.1437E+01  0.1437E+01  0.7351E+01  0.7351E+01
      3.712  0.1282E+01  0.1283E+01  0.7545E+01  0.7545E+01
      3.854  0.1165E+01  0.1163E+01  0.7726E+01  0.7726E+01
      3.995  0.1038E+01  0.1037E+01  0.7891E+01  0.7891E+01
      4.137  0.7985E+00  0.7992E+00  0.8012E+01  0.8012E+01
      4.279  0.5464E+00  0.5469E+00  0.8108E+01  0.8108E+01
      4.421  0.4344E+00  0.4345E+00  0.8177E+01  0.8177E+01
      4.562  0.9844E+00  0.9845E+00  0.8282E+01  0.8282E+01
      4.704  0.1427E+01  0.1427E+01  0.8444E+01  0.8444E+01
      4.846  0.1666E+01  0.1666E+01  0.8654E+01  0.8654E+01
      4.988  0.2331E+01  0.2328E+01  0.8924E+01  0.8924E+01
      5.129  0.1450E+01  0.1448E+01  0.9182E+01  0.9182E+01
      5.271  0.1083E+01  0.1085E+01  0.9392E+01  0.9391E+01
      5.413  0.6849E+00  0.6850E+00  0.9498E+01  0.9497E+01
      5.555  0.6418E+00  0.6417E+00  0.9592E+01  0.9592E+01
      5.697  0.6045E+00  0.6044E+00  0.9680E+01  0.9679E+01
      5.838  0.6363E+00  0.6363E+00  0.9766E+01  0.9766E+01
      5.980  0.8171E+00  0.8146E+00  0.9864E+01  0.9864E+01
      6.122  0.6152E+00  0.6155E+00  0.9969E+01  0.9969E+01
      6.264  0.7466E+00  0.7468E+00  0.1007E+02  0.1007E+02
      6.405  0.1009E+01  0.1009E+01  0.1019E+02  0.1019E+02
      6.547  0.1313E+01  0.1314E+01  0.1035E+02  0.1035E+02
      6.689  0.1486E+01  0.1486E+01  0.1055E+02  0.1055E+02
      6.831  0.1513E+01  0.1514E+01  0.1076E+02  0.1076E+02
      6.972  0.1155E+01  0.1155E+01  0.1095E+02  0.1095E+02
      7.114  0.1036E+01  0.1036E+01  0.1110E+02  0.1110E+02
      7.256  0.1004E+01  0.1004E+01  0.1125E+02  0.1125E+02
      7.398  0.7969E+00  0.7967E+00  0.1138E+02  0.1138E+02
      7.540  0.6056E+00  0.6055E+00  0.1148E+02  0.1148E+02
      7.681  0.5087E+00  0.5085E+00  0.1155E+02  0.1155E+02
      7.823  0.4706E+00  0.4705E+00  0.1162E+02  0.1162E+02
      7.965  0.4351E+00  0.4351E+00  0.1169E+02  0.1169E+02
      8.107  0.3988E+00  0.3988E+00  0.1175E+02  0.1175E+02
      8.248  0.3679E+00  0.3679E+00  0.1180E+02  0.1180E+02
      8.390  0.3360E+00  0.3360E+00  0.1185E+02  0.1185E+02
      8.532  0.3013E+00  0.3012E+00  0.1190E+02  0.1190E+02
      8.674  0.4620E+00  0.4592E+00  0.1194E+02  0.1194E+02
      8.815  0.5597E+00  0.5580E+00  0.1202E+02  0.1202E+02
      8.957  0.5833E+00  0.5825E+00  0.1210E+02  0.1210E+02
      9.099  0.6150E+00  0.6131E+00  0.1218E+02  0.1218E+02
      9.241  0.6860E+00  0.6849E+00  0.1228E+02  0.1228E+02
      9.383  0.7255E+00  0.7248E+00  0.1238E+02  0.1238E+02
      9.524  0.7474E+00  0.7469E+00  0.1248E+02  0.1248E+02
      9.666  0.7980E+00  0.7972E+00  0.1259E+02  0.1259E+02
      9.808  0.8532E+00  0.8525E+00  0.1271E+02  0.1271E+02
      9.950  0.9219E+00  0.9178E+00  0.1283E+02  0.1283E+02
     10.091  0.9075E+00  0.9065E+00  0.1296E+02  0.1296E+02
     10.233  0.9727E+00  0.9707E+00  0.1310E+02  0.1310E+02
     10.375  0.1324E+01  0.1326E+01  0.1326E+02  0.1326E+02
     10.517  0.1654E+01  0.1662E+01  0.1346E+02  0.1345E+02
     10.658  0.1115E+01  0.1115E+01  0.1363E+02  0.1363E+02
     10.800  0.1028E+01  0.1027E+01  0.1378E+02  0.1378E+02
     10.942  0.9661E+00  0.9670E+00  0.1392E+02  0.1392E+02
     11.084  0.8549E+00  0.8580E+00  0.1405E+02  0.1405E+02
     11.226  0.8748E+00  0.8745E+00  0.1418E+02  0.1418E+02
     11.367  0.8088E+00  0.8046E+00  0.1429E+02  0.1429E+02
     11.509  0.1022E+01  0.1016E+01  0.1442E+02  0.1442E+02
     11.651  0.1047E+01  0.1042E+01  0.1457E+02  0.1457E+02
     11.793  0.1805E+01  0.1776E+01  0.1475E+02  0.1474E+02
     11.934  0.3238E+01  0.3393E+01  0.1512E+02  0.1511E+02
     12.076  0.1559E+01  0.1570E+01  0.1538E+02  0.1538E+02
     12.218  0.8474E+00  0.8515E+00  0.1551E+02  0.1551E+02
     12.360  0.7827E+00  0.7844E+00  0.1564E+02  0.1564E+02
     12.501  0.7008E+00  0.7024E+00  0.1574E+02  0.1574E+02
     12.643  0.6055E+00  0.6057E+00  0.1583E+02  0.1583E+02
     12.785  0.3755E+00  0.3818E+00  0.1591E+02  0.1591E+02
     12.927  0.1927E+00  0.1935E+00  0.1595E+02  0.1595E+02
     13.069  0.1354E+00  0.1360E+00  0.1597E+02  0.1597E+02
     13.210  0.8660E-01  0.8713E-01  0.1599E+02  0.1599E+02
     13.352  0.4634E-01  0.4676E-01  0.1600E+02  0.1600E+02
     13.494  0.3255E-02  0.3269E-02  0.1600E+02  0.1600E+02
     13.636  0.1931E-02  0.1943E-02  0.1600E+02  0.1600E+02
     13.777  0.9502E-03  0.9592E-03  0.1600E+02  0.1600E+02
     13.919  0.3136E-03  0.3193E-03  0.1600E+02  0.1600E+02
     14.061  0.2112E-04  0.2270E-04  0.1600E+02  0.1600E+02
     14.203  0.0000E+00  0.0000E+00  0.1600E+02  0.1600E+02
     14.344  0.0000E+00  0.0000E+00  0.1600E+02  0.1600E+02
     14.486  0.0000E+00  0.0000E+00  0.1600E+02  0.1600E+02
     14.628  0.0000E+00  0.0000E+00  0.1600E+02  0.1600E+02
     14.770  0.0000E+00  0.0000E+00  0.1600E+02  0.1600E+02
     14.912  0.0000E+00  0.0000E+00  0.1600E+02  0.1600E+02
     15.053  0.0000E+00  0.0000E+00  0.1600E+02  0.1600E+02
     15.195  0.0000E+00  0.0000E+00  0.1600E+02  0.1600E+02
     15.337  0.0000E+00  0.0000E+00  0.1600E+02  0.1600E+02
     15.479  0.0000E+00  0.0000E+00  0.1600E+02  0.1600E+02
     15.620  0.0000E+00  0.0000E+00  0.1600E+02  0.1600E+02
     15.762  0.0000E+00  0.0000E+00  0.1600E+02  0.1600E+02
     15.904  0.0000E+00  0.0000E+00  0.1600E+02  0.1600E+02
     16.046  0.0000E+00  0.0000E+00  0.1600E+02  0.1600E+02
     16.04572295    -26.48502429  301      7.01983758      1.00000000
    -26.485  0.0000E+00  0.0000E+00  0.0000E+00  0.0000E+00  0.0000E+00  0.0000E+00  0.0000E+00  0.0000E+00  0.0000E+00  0.0000E+00  0.0000E+00  0.0000E+00  0.0000E+00  0.0000E+00  0.0000E+00  0.0000E+00  0.0000E+00  0.0000E+00
    -26.343  0.0000E+00  0.0000E+00  0.0000E+00  0.0000E+00  0.0000E+00  0.0000E+00  0.0000E+00  0.0000E+00  0.0000E+00  0.0000E+00  0.0000E+00  0.0000E+00  0.0000E+00  0.0000E+00  0.0000E+00  0.0000E+00  0.0000E+00  0.0000E+00
    -26.201  0.0000E+00  0.0000E+00  0.0000E+00  0.0000E+00  0.0000E+00  0.0000E+00  0.0000E+00  0.0000E+00  0.0000E+00  0.0000E+00  0.0000E+00  0.0000E+00  0.0000E+00  0.0000E+00  0.0000E+00  0.0000E+00  0.0000E+00  0.0000E+00
    -26.060  0.0000E+00  0.0000E+00  0.0000E+00  0.0000E+00  0.0000E+00  0.0000E+00  0.0000E+00  0.0000E+00  0.0000E+00  0.0000E+00  0.0000E+00  0.0000E+00  0.0000E+00  0.0000E+00  0.0000E+00  0.0000E+00  0.0000E+00  0.0000E+00
    -25.918  0.0000E+00  0.0000E+00  0.0000E+00  0.0000E+00  0.0000E+00  0.0000E+00  0.0000E+00  0.0000E+00  0.0000E+00  0.0000E+00  0.0000E+00  0.0000E+00  0.0000E+00  0.0000E+00  0.0000E+00  0.0000E+00  0.0000E+00  0.0000E+00
    -25.776  0.0000E+00  0.0000E+00  0.0000E+00  0.0000E+00  0.0000E+00  0.0000E+00  0.0000E+00  0.0000E+00  0.0000E+00  0.0000E+00  0.0000E+00  0.0000E+00  0.0000E+00  0.0000E+00  0.0000E+00  0.0000E+00  0.0000E+00  0.0000E+00
    -25.634  0.0000E+00  0.0000E+00  0.0000E+00  0.0000E+00  0.0000E+00  0.0000E+00  0.0000E+00  0.0000E+00  0.0000E+00  0.0000E+00  0.0000E+00  0.0000E+00  0.0000E+00  0.0000E+00  0.0000E+00  0.0000E+00  0.0000E+00  0.0000E+00
    -25.493  0.0000E+00  0.0000E+00  0.0000E+00  0.0000E+00  0.0000E+00  0.0000E+00  0.0000E+00  0.0000E+00  0.0000E+00  0.0000E+00  0.0000E+00  0.0000E+00  0.0000E+00  0.0000E+00  0.0000E+00  0.0000E+00  0.0000E+00  0.0000E+00
    -25.351  0.0000E+00  0.0000E+00  0.0000E+00  0.0000E+00  0.0000E+00  0.0000E+00  0.0000E+00  0.0000E+00  0.0000E+00  0.0000E+00  0.0000E+00  0.0000E+00  0.0000E+00  0.0000E+00  0.0000E+00  0.0000E+00  0.0000E+00  0.0000E+00
    -25.209  0.0000E+00  0.0000E+00  0.0000E+00  0.0000E+00  0.0000E+00  0.0000E+00  0.0000E+00  0.0000E+00  0.0000E+00  0.0000E+00  0.0000E+00  0.0000E+00  0.0000E+00  0.0000E+00  0.0000E+00  0.0000E+00  0.0000E+00  0.0000E+00
    -25.067  0.0000E+00  0.0000E+00  0.0000E+00  0.0000E+00  0.0000E+00  0.0000E+00  0.0000E+00  0.0000E+00  0.0000E+00  0.0000E+00  0.0000E+00  0.0000E+00  0.0000E+00  0.0000E+00  0.0000E+00  0.0000E+00  0.0000E+00  0.0000E+00
    -24.926  0.0000E+00  0.0000E+00  0.0000E+00  0.0000E+00  0.0000E+00  0.0000E+00  0.0000E+00  0.0000E+00  0.0000E+00  0.0000E+00  0.0000E+00  0.0000E+00  0.0000E+00  0.0000E+00  0.0000E+00  0.0000E+00  0.0000E+00  0.0000E+00
    -24.784  0.0000E+00  0.0000E+00  0.0000E+00  0.0000E+00  0.0000E+00  0.0000E+00  0.0000E+00  0.0000E+00  0.0000E+00  0.0000E+00  0.0000E+00  0.0000E+00  0.0000E+00  0.0000E+00  0.0000E+00  0.0000E+00  0.0000E+00  0.0000E+00
    -24.642  0.0000E+00  0.0000E+00  0.0000E+00  0.0000E+00  0.0000E+00  0.0000E+00  0.0000E+00  0.0000E+00  0.0000E+00  0.0000E+00  0.0000E+00  0.0000E+00  0.0000E+00  0.0000E+00  0.0000E+00  0.0000E+00  0.0000E+00  0.0000E+00
    -24.500  0.4192E-04  0.3992E-04  0.5287E-01  0.5163E-01  0.5287E-01  0.5163E-01  0.5287E-01  0.5163E-01  0.5511E-04  0.5363E-04  0.5511E-04  0.5363E-04  0.4816E-04  0.4659E-04  0.5511E-04  0.5363E-04  0.4816E-04  0.4659E-04
    -24.358  0.8812E-03  0.8685E-03  0.2190E+00  0.2167E+00  0.2190E+00  0.2167E+00  0.2190E+00  0.2167E+00  0.3738E-03  0.3688E-03  0.3738E-03  0.3688E-03  0.1992E-03  0.1958E-03  0.3738E-03  0.3688E-03  0.1992E-03  0.1958E-03
    -24.217  0.2419E-02  0.2392E-02  0.4103E+00  0.4071E+00  0.4103E+00  0.4071E+00  0.4103E+00  0.4071E+00  0.8689E-03  0.8607E-03  0.8689E-03  0.8607E-03  0.5783E-03  0.5721E-03  0.8689E-03  0.8607E-03  0.5783E-03  0.5721E-03
    -24.075  0.4368E-02  0.4374E-02  0.5769E+00  0.5784E+00  0.5769E+00  0.5784E+00  0.5769E+00  0.5784E+00  0.1650E-02  0.1653E-02  0.1650E-02  0.1653E-02  0.8566E-03  0.8543E-03  0.1650E-02  0.1653E-02  0.8566E-03  0.8543E-03
    -23.933  0.3850E-02  0.3860E-02  0.3808E+00  0.3836E+00  0.3808E+00  0.3836E+00  0.3808E+00  0.3836E+00  0.8318E-03  0.8365E-03  0.8318E-03  0.8365E-03  0.7351E-03  0.7403E-03  0.8318E-03  0.8365E-03  0.7351E-03  0.7403E-03
    -23.791  0.2905E-02  0.2915E-02  0.2430E+00  0.2442E+00  0.2430E+00  0.2442E+00  0.2430E+00  0.2442E+00  0.5037E-03  0.5023E-03  0.5037E-03  0.5023E-03  0.3757E-03  0.3798E-03  0.5037E-03  0.5023E-03  0.3757E-03  0.3798E-03
    -23.650  0.2639E-02  0.2642E-02  0.2385E+00  0.2368E+00  0.2385E+00  0.2368E+00  0.2385E+00  0.2368E+00  0.7018E-03  0.6947E-03  0.7018E-03  0.6947E-03  0.1981E-03  0.1980E-03  0.7018E-03  0.6947E-03  0.1981E-03  0.1980E-03
    -23.508  0.1733E-02  0.1741E-02  0.2634E+00  0.2633E+00  0.2634E+00  0.2633E+00  0.2634E+00  0.2633E+00  0.1218E-02  0.1209E-02  0.1218E-02  0.1209E-02  0.2033E-03  0.2026E-03  0.1218E-02  0.1209E-02  0.2033E-03  0.2026E-03
    -23.366  0.1796E-02  0.1794E-02  0.3190E+00  0.3182E+00  0.3190E+00  0.3182E+00  0.3190E+00  0.3182E+00  0.1930E-02  0.1914E-02  0.1930E-02  0.1914E-02  0.2995E-03  0.2974E-03  0.1930E-02  0.1914E-02  0.2995E-03  0.2974E-03
    -23.224  0.1820E-02  0.1816E-02  0.3312E+00  0.3302E+00  0.3312E+00  0.3302E+00  0.3312E+00  0.3302E+00  0.1809E-02  0.1801E-02  0.1809E-02  0.1801E-02  0.2832E-03  0.2827E-03  0.1809E-02  0.1801E-02  0.2832E-03  0.2827E-03
    -23.083  0.6406E-03  0.6394E-03  0.3460E+00  0.3464E+00  0.3460E+00  0.3464E+00  0.3460E+00  0.3464E+00  0.1945E-02  0.1945E-02  0.1945E-02  0.1945E-02  0.2052E-03  0.2069E-03  0.1945E-02  0.1945E-02  0.2052E-03  0.2069E-03
    -22.941  0.1622E-02  0.1596E-02  0.3939E+00  0.3938E+00  0.3939E+00  0.3938E+00  0.3939E+00  0.3938E+00  0.2369E-02  0.2374E-02  0.2369E-02  0.2374E-02  0.1583E-03  0.1589E-03  0.2369E-02  0.2374E-02  0.1583E-03  0.1589E-03
    -22.799  0.3087E-02  0.3081E-02  0.5422E+00  0.5353E+00  0.5422E+00  0.5353E+00  0.5422E+00  0.5353E+00  0.2554E-02  0.2534E-02  0.2554E-02  0.2534E-02  0.2077E-03  0.2058E-03  0.2554E-02  0.2534E-02  0.2077E-03  0.2058E-03
    -22.657  0.1827E-02  0.1837E-02  0.4655E+00  0.4942E+00  0.4655E+00  0.4942E+00  0.4655E+00  0.4942E+00  0.2258E-02  0.2430E-02  0.2258E-02  0.2430E-02  0.1392E-03  0.1402E-03  0.2258E-02  0.2430E-02  0.1392E-03  0.1402E-03
    -22.515  0.9237E-03  0.9184E-03  0.3094E+00  0.3045E+00  0.3094E+00  0.3045E+00  0.3094E+00  0.3045E+00  0.1405E-02  0.1386E-02  0.1405E-02  0.1386E-02  0.4450E-04  0.4377E-04  0.1405E-02  0.1386E-02  0.4450E-04  0.4377E-04
    -22.374  0.1707E-02  0.1704E-02  0.8010E+00  0.8000E+00  0.8010E+00  0.8000E+00  0.8010E+00  0.8000E+00  0.2798E-02  0.2809E-02  0.2798E-02  0.2809E-02  0.1330E-03  0.1328E-03  0.2798E-02  0.2809E-02  0.1330E-03  0.1328E-03
    -22.232  0.1219E-02  0.1226E-02  0.6650E+00  0.6642E+00  0.6650E+00  0.6642E+00  0.6650E+00  0.6642E+00  0.1377E-02  0.1380E-02  0.1377E-02  0.1380E-02  0.6829E-04  0.6849E-04  0.1377E-02  0.1380E-02  0.6829E-04  0.6849E-04
    -22.090  0.4982E-03  0.5056E-03  0.6539E+00  0.6587E+00  0.6539E+00  0.6587E+00  0.6539E+00  0.6587E+00  0.7634E-03  0.7702E-03  0.7634E-03  0.7702E-03  0.2679E-04  0.2730E-04  0.7634E-03  0.7702E-03  0.2679E-04  0.2730E-04
    -21.948  0.1899E-14  0.1098E-15  0.1370E-01  0.2740E-01  0.1370E-01  0.2740E-01  0.1370E-01  0.2740E-01  0.8660E-05  0.1811E-04  0.8660E-05  0.1811E-04  0.4999E-08  0.5440E-07  0.8660E-05  0.1811E-04  0.4999E-08  0.5440E-07
    -21.807  0.0000E+00  0.0000E+00  0.0000E+00  0.0000E+00  0.0000E+00  0.0000E+00  0.0000E+00  0.0000E+00  0.0000E+00  0.0000E+00  0.0000E+00  0.0000E+00  0.0000E+00  0.0000E+00  0.0000E+00  0.0000E+00  0.0000E+00  0.0000E+00
    -21.665  0.0000E+00  0.0000E+00  0.0000E+00  0.0000E+00  0.0000E+00  0.0000E+00  0.0000E+00  0.0000E+00  0.0000E+00  0.0000E+00  0.0000E+00  0.0000E+00  0.0000E+00  0.0000E+00  0.0000E+00  0.0000E+00  0.0000E+00  0.0000E+00
    -21.523  0.0000E+00  0.0000E+00  0.0000E+00  0.0000E+00  0.0000E+00  0.0000E+00  0.0000E+00  0.0000E+00  0.0000E+00  0.0000E+00  0.0000E+00  0.0000E+00  0.0000E+00  0.0000E+00  0.0000E+00  0.0000E+00  0.0000E+00  0.0000E+00
    -21.381  0.0000E+00  0.0000E+00  0.0000E+00  0.0000E+00  0.0000E+00  0.0000E+00  0.0000E+00  0.0000E+00  0.0000E+00  0.0000E+00  0.0000E+00  0.0000E+00  0.0000E+00  0.0000E+00  0.0000E+00  0.0000E+00  0.0000E+00  0.0000E+00
    -21.240  0.0000E+00  0.0000E+00  0.0000E+00  0.0000E+00  0.0000E+00  0.0000E+00  0.0000E+00  0.0000E+00  0.0000E+00  0.0000E+00  0.0000E+00  0.0000E+00  0.0000E+00  0.0000E+00  0.0000E+00  0.0000E+00  0.0000E+00  0.0000E+00
    -21.098  0.0000E+00  0.0000E+00  0.0000E+00  0.0000E+00  0.0000E+00  0.0000E+00  0.0000E+00  0.0000E+00  0.0000E+00  0.0000E+00  0.0000E+00  0.0000E+00  0.0000E+00  0.0000E+00  0.0000E+00  0.0000E+00  0.0000E+00  0.0000E+00
    -20.956  0.0000E+00  0.0000E+00  0.0000E+00  0.0000E+00  0.0000E+00  0.0000E+00  0.0000E+00  0.0000E+00  0.0000E+00  0.0000E+00  0.0000E+00  0.0000E+00  0.0000E+00  0.0000E+00  0.0000E+00  0.0000E+00  0.0000E+00  0.0000E+00
    -20.814  0.0000E+00  0.0000E+00  0.0000E+00  0.0000E+00  0.0000E+00  0.0000E+00  0.0000E+00  0.0000E+00  0.0000E+00  0.0000E+00  0.0000E+00  0.0000E+00  0.0000E+00  0.0000E+00  0.0000E+00  0.0000E+00  0.0000E+00  0.0000E+00
    -20.672  0.0000E+00  0.0000E+00  0.0000E+00  0.0000E+00  0.0000E+00  0.0000E+00  0.0000E+00  0.0000E+00  0.0000E+00  0.0000E+00  0.0000E+00  0.0000E+00  0.0000E+00  0.0000E+00  0.0000E+00  0.0000E+00  0.0000E+00  0.0000E+00
    -20.531  0.0000E+00  0.0000E+00  0.0000E+00  0.0000E+00  0.0000E+00  0.0000E+00  0.0000E+00  0.0000E+00  0.0000E+00  0.0000E+00  0.0000E+00  0.0000E+00  0.0000E+00  0.0000E+00  0.0000E+00  0.0000E+00  0.0000E+00  0.0000E+00
    -20.389  0.0000E+00  0.0000E+00  0.0000E+00  0.0000E+00  0.0000E+00  0.0000E+00  0.0000E+00  0.0000E+00  0.0000E+00  0.0000E+00  0.0000E+00  0.0000E+00  0.0000E+00  0.0000E+00  0.0000E+00  0.0000E+00  0.0000E+00  0.0000E+00
    -20.247  0.0000E+00  0.0000E+00  0.0000E+00  0.0000E+00  0.0000E+00  0.0000E+00  0.0000E+00  0.0000E+00  0.0000E+00  0.0000E+00  0.0000E+00  0.0000E+00  0.0000E+00  0.0000E+00  0.0000E+00  0.0000E+00  0.0000E+00  0.0000E+00
    -20.105  0.0000E+00  0.0000E+00  0.0000E+00  0.0000E+00  0.0000E+00  0.0000E+00  0.0000E+00  0.0000E+00  0.0000E+00  0.0000E+00  0.0000E+00  0.0000E+00  0.0000E+00  0.0000E+00  0.0000E+00  0.0000E+00  0.0000E+00  0.0000E+00
    -19.964  0.0000E+00  0.0000E+00  0.0000E+00  0.0000E+00  0.0000E+00  0.0000E+00  0.0000E+00  0.0000E+00  0.0000E+00  0.0000E+00  0.0000E+00  0.0000E+00  0.0000E+00  0.0000E+00  0.0000E+00  0.0000E+00  0.0000E+00  0.0000E+00
    -19.822  0.0000E+00  0.0000E+00  0.0000E+00  0.0000E+00  0.0000E+00  0.0000E+00  0.0000E+00  0.0000E+00  0.0000E+00  0.0000E+00  0.0000E+00  0.0000E+00  0.0000E+00  0.0000E+00  0.0000E+00  0.0000E+00  0.0000E+00  0.0000E+00
    -19.680  0.0000E+00  0.0000E+00  0.0000E+00  0.0000E+00  0.0000E+00  0.0000E+00  0.0000E+00  0.0000E+00  0.0000E+00  0.0000E+00  0.0000E+00  0.0000E+00  0.0000E+00  0.0000E+00  0.0000E+00  0.0000E+00  0.0000E+00  0.0000E+00
    -19.538  0.0000E+00  0.0000E+00  0.0000E+00  0.0000E+00  0.0000E+00  0.0000E+00  0.0000E+00  0.0000E+00  0.0000E+00  0.0000E+00  0.0000E+00  0.0000E+00  0.0000E+00  0.0000E+00  0.0000E+00  0.0000E+00  0.0000E+00  0.0000E+00
    -19.397  0.0000E+00  0.0000E+00  0.0000E+00  0.0000E+00  0.0000E+00  0.0000E+00  0.0000E+00  0.0000E+00  0.0000E+00  0.0000E+00  0.0000E+00  0.0000E+00  0.0000E+00  0.0000E+00  0.0000E+00  0.0000E+00  0.0000E+00  0.0000E+00