   4   4   1   0
  0.1800928E+02  0.4160883E-09  0.4160883E-09  0.4160883E-09  0.5000000E-15
  1.000000000000000E-004
  CAR 
 unknown system                          
     18.05959736     -4.45133845  301      7.11468182      1.00000000
     -4.451  0.0000E+00  0.0000E+00  0.0000E+00  0.0000E+00
     -4.376  0.0000E+00  0.0000E+00  0.0000E+00  0.0000E+00
     -4.301  0.0000E+00  0.0000E+00  0.0000E+00  0.0000E+00
     -4.226  0.0000E+00  0.0000E+00  0.0000E+00  0.0000E+00
     -4.151  0.0000E+00  0.0000E+00  0.0000E+00  0.0000E+00
     -4.076  0.0000E+00  0.0000E+00  0.0000E+00  0.0000E+00
     -4.001  0.0000E+00  0.0000E+00  0.0000E+00  0.0000E+00
     -3.926  0.0000E+00  0.0000E+00  0.0000E+00  0.0000E+00
     -3.851  0.4091E-05  0.1247E-05  0.3070E-06  0.9356E-07
     -3.776  0.2340E-04  0.2541E-04  0.2063E-05  0.2000E-05
     -3.701  0.1056E-03  0.1024E-03  0.9985E-05  0.9681E-05
     -3.626  0.4902E-03  0.4754E-03  0.4677E-04  0.4535E-04
     -3.551  0.2135E-02  0.2073E-02  0.2070E-03  0.2009E-03
     -3.476  0.8535E-02  0.8308E-02  0.8474E-03  0.8243E-03
     -3.401  0.2712E-01  0.2658E-01  0.2882E-02  0.2818E-02
     -3.326  0.5792E-01  0.5727E-01  0.7228E-02  0.7116E-02
     -3.251  0.8611E-01  0.8556E-01  0.1369E-01  0.1354E-01
     -3.176  0.1171E+00  0.1164E+00  0.2248E-01  0.2227E-01
     -3.101  0.1365E+00  0.1365E+00  0.3272E-01  0.3252E-01
     -3.026  0.1379E+00  0.1377E+00  0.4308E-01  0.4285E-01
     -2.951  0.1704E+00  0.1696E+00  0.5586E-01  0.5557E-01
     -2.876  0.1918E+00  0.1918E+00  0.7026E-01  0.6997E-01
     -2.801  0.1908E+00  0.1907E+00  0.8459E-01  0.8428E-01
     -2.726  0.2058E+00  0.2055E+00  0.1000E+00  0.9971E-01
     -2.650  0.1995E+00  0.1998E+00  0.1150E+00  0.1147E+00
     -2.575  0.2166E+00  0.2155E+00  0.1313E+00  0.1309E+00
     -2.500  0.2652E+00  0.2647E+00  0.1512E+00  0.1508E+00
     -2.425  0.2708E+00  0.2709E+00  0.1715E+00  0.1711E+00
     -2.350  0.2639E+00  0.2643E+00  0.1913E+00  0.1909E+00
     -2.275  0.2284E+00  0.2292E+00  0.2085E+00  0.2081E+00
     -2.200  0.2303E+00  0.2293E+00  0.2258E+00  0.2254E+00
     -2.125  0.3079E+00  0.3063E+00  0.2489E+00  0.2484E+00
     -2.050  0.3380E+00  0.3383E+00  0.2743E+00  0.2738E+00
     -1.975  0.3262E+00  0.3261E+00  0.2987E+00  0.2982E+00
     -1.900  0.3192E+00  0.3201E+00  0.3227E+00  0.3223E+00
     -1.825  0.2653E+00  0.2659E+00  0.3426E+00  0.3422E+00
     -1.750  0.2946E+00  0.2931E+00  0.3647E+00  0.3642E+00
     -1.675  0.3546E+00  0.3540E+00  0.3914E+00  0.3908E+00
     -1.600  0.3523E+00  0.3527E+00  0.4178E+00  0.4173E+00
     -1.525  0.3411E+00  0.3412E+00  0.4434E+00  0.4429E+00
     -1.450  0.3383E+00  0.3381E+00  0.4688E+00  0.4683E+00
     -1.375  0.3865E+00  0.3848E+00  0.4978E+00  0.4972E+00
     -1.300  0.4286E+00  0.4290E+00  0.5300E+00  0.5294E+00
     -1.225  0.3829E+00  0.3837E+00  0.5588E+00  0.5582E+00
     -1.150  0.3720E+00  0.3722E+00  0.5867E+00  0.5861E+00
     -1.075  0.3272E+00  0.3287E+00  0.6113E+00  0.6108E+00
     -1.000  0.2990E+00  0.2980E+00  0.6337E+00  0.6332E+00
     -0.925  0.4048E+00  0.4023E+00  0.6641E+00  0.6634E+00
     -0.850  0.4740E+00  0.4737E+00  0.6997E+00  0.6990E+00
     -0.775  0.4853E+00  0.4848E+00  0.7361E+00  0.7354E+00
     -0.700  0.4914E+00  0.4922E+00  0.7730E+00  0.7723E+00
     -0.624  0.4183E+00  0.4198E+00  0.8044E+00  0.8038E+00
     -0.549  0.3833E+00  0.3834E+00  0.8332E+00  0.8326E+00
     -0.474  0.3871E+00  0.3869E+00  0.8623E+00  0.8617E+00
     -0.399  0.4088E+00  0.4080E+00  0.8930E+00  0.8923E+00
     -0.324  0.4533E+00  0.4529E+00  0.9270E+00  0.9263E+00
     -0.249  0.4248E+00  0.4257E+00  0.9589E+00  0.9583E+00
     -0.174  0.4561E+00  0.4539E+00  0.9932E+00  0.9924E+00
     -0.099  0.5487E+00  0.5481E+00  0.1034E+01  0.1034E+01
     -0.024  0.5318E+00  0.5323E+00  0.1074E+01  0.1073E+01
      0.051  0.5075E+00  0.5084E+00  0.1112E+01  0.1112E+01
      0.126  0.4241E+00  0.4259E+00  0.1144E+01  0.1144E+01
      0.201  0.4153E+00  0.4137E+00  0.1175E+01  0.1175E+01
      0.276  0.5398E+00  0.5380E+00  0.1216E+01  0.1215E+01
      0.351  0.5747E+00  0.5755E+00  0.1259E+01  0.1258E+01
      0.426  0.5203E+00  0.5214E+00  0.1298E+01  0.1297E+01
      0.501  0.4439E+00  0.4458E+00  0.1332E+01  0.1331E+01
      0.576  0.4052E+00  0.4043E+00  0.1362E+01  0.1361E+01
      0.651  0.5030E+00  0.5009E+00  0.1400E+01  0.1399E+01
      0.726  0.5551E+00  0.5549E+00  0.1441E+01  0.1441E+01
      0.801  0.5581E+00  0.5580E+00  0.1483E+01  0.1483E+01
      0.876  0.5651E+00  0.5653E+00  0.1526E+01  0.1525E+01
      0.951  0.5569E+00  0.5562E+00  0.1568E+01  0.1567E+01
      1.026  0.6701E+00  0.6672E+00  0.1618E+01  0.1617E+01
      1.101  0.6891E+00  0.6917E+00  0.1670E+01  0.1669E+01
      1.176  0.5080E+00  0.5112E+00  0.1708E+01  0.1707E+01
      1.251  0.4369E+00  0.4373E+00  0.1741E+01  0.1740E+01
      1.326  0.4078E+00  0.4085E+00  0.1771E+01  0.1771E+01
      1.402  0.4422E+00  0.4398E+00  0.1804E+01  0.1804E+01
      1.477  0.5932E+00  0.5903E+00  0.1849E+01  0.1848E+01
      1.552  0.6842E+00  0.6831E+00  0.1900E+01  0.1899E+01
      1.627  0.7078E+00  0.7086E+00  0.1954E+01  0.1953E+01
      1.702  0.6060E+00  0.6082E+00  0.1999E+01  0.1998E+01
      1.777  0.5873E+00  0.5860E+00  0.2043E+01  0.2042E+01
      1.852  0.6452E+00  0.6451E+00  0.2092E+01  0.2091E+01
      1.927  0.6269E+00  0.6275E+00  0.2139E+01  0.2138E+01
      2.002  0.6234E+00  0.6233E+00  0.2186E+01  0.2185E+01
      2.077  0.5983E+00  0.6002E+00  0.2230E+01  0.2230E+01
      2.152  0.5049E+00  0.5054E+00  0.2268E+01  0.2268E+01
      2.227  0.5826E+00  0.5800E+00  0.2312E+01  0.2311E+01
      2.302  0.6704E+00  0.6694E+00  0.2362E+01  0.2361E+01
      2.377  0.7030E+00  0.7030E+00  0.2415E+01  0.2414E+01
      2.452  0.6348E+00  0.6374E+00  0.2463E+01  0.2462E+01
      2.527  0.5413E+00  0.5415E+00  0.2504E+01  0.2503E+01
      2.602  0.6159E+00  0.6138E+00  0.2550E+01  0.2549E+01
      2.677  0.6670E+00  0.6672E+00  0.2600E+01  0.2599E+01
      2.752  0.6867E+00  0.6852E+00  0.2651E+01  0.2650E+01
      2.827  0.7457E+00  0.7463E+00  0.2707E+01  0.2706E+01
      2.902  0.6394E+00  0.6412E+00  0.2755E+01  0.2755E+01
      2.977  0.6636E+00  0.6615E+00  0.2805E+01  0.2804E+01
      3.052  0.7376E+00  0.7372E+00  0.2861E+01  0.2860E+01
      3.127  0.7209E+00  0.7213E+00  0.2915E+01  0.2914E+01
      3.202  0.7180E+00  0.7181E+00  0.2969E+01  0.2968E+01
      3.277  0.6678E+00  0.6692E+00  0.3019E+01  0.3018E+01
      3.352  0.6654E+00  0.6642E+00  0.3069E+01  0.3068E+01
      3.427  0.7101E+00  0.7101E+00  0.3122E+01  0.3121E+01
      3.503  0.6668E+00  0.6682E+00  0.3172E+01  0.3171E+01
      3.578  0.5860E+00  0.5879E+00  0.3216E+01  0.3215E+01
      3.653  0.5280E+00  0.5278E+00  0.3256E+01  0.3255E+01
      3.728  0.6698E+00  0.6653E+00  0.3306E+01  0.3305E+01
      3.803  0.8834E+00  0.8812E+00  0.3373E+01  0.3371E+01
      3.878  0.8731E+00  0.8746E+00  0.3438E+01  0.3437E+01
      3.953  0.8412E+00  0.8410E+00  0.3501E+01  0.3500E+01
      4.028  0.8201E+00  0.8212E+00  0.3563E+01  0.3562E+01
      4.103  0.8119E+00  0.8112E+00  0.3624E+01  0.3623E+01
      4.178  0.8188E+00  0.8198E+00  0.3685E+01  0.3684E+01
      4.253  0.7119E+00  0.7147E+00  0.3739E+01  0.3738E+01
      4.328  0.5995E+00  0.6010E+00  0.3784E+01  0.3783E+01
      4.403  0.6151E+00  0.6140E+00  0.3830E+01  0.3829E+01
      4.478  0.7511E+00  0.7479E+00  0.3886E+01  0.3885E+01
      4.553  0.8900E+00  0.8890E+00  0.3953E+01  0.3952E+01
      4.628  0.8559E+00  0.8572E+00  0.4017E+01  0.4016E+01
      4.703  0.8240E+00  0.8235E+00  0.4079E+01  0.4078E+01
      4.778  0.8342E+00  0.8347E+00  0.4142E+01  0.4141E+01
      4.853  0.8200E+00  0.8207E+00  0.4204E+01  0.4202E+01
      4.928  0.8003E+00  0.8001E+00  0.4264E+01  0.4263E+01
      5.003  0.8218E+00  0.8212E+00  0.4325E+01  0.4324E+01
      5.078  0.8150E+00  0.8158E+00  0.4387E+01  0.4386E+01
      5.153  0.7200E+00  0.7232E+00  0.4441E+01  0.4440E+01
      5.228  0.5838E+00  0.5859E+00  0.4485E+01  0.4484E+01
      5.303  0.5804E+00  0.5787E+00  0.4528E+01  0.4527E+01
      5.378  0.7025E+00  0.6998E+00  0.4581E+01  0.4580E+01
      5.453  0.7911E+00  0.7895E+00  0.4640E+01  0.4639E+01
      5.529  0.8515E+00  0.8505E+00  0.4704E+01  0.4703E+01
      5.604  0.8946E+00  0.8940E+00  0.4771E+01  0.4770E+01
      5.679  0.9105E+00  0.9102E+00  0.4840E+01  0.4838E+01
      5.754  0.8330E+00  0.8349E+00  0.4902E+01  0.4901E+01
      5.829  0.7190E+00  0.7209E+00  0.4956E+01  0.4955E+01
      5.904  0.6484E+00  0.6491E+00  0.5005E+01  0.5004E+01
      5.979  0.6697E+00  0.6680E+00  0.5055E+01  0.5054E+01
      6.054  0.8087E+00  0.8064E+00  0.5116E+01  0.5115E+01
      6.129  0.8806E+00  0.8810E+00  0.5182E+01  0.5181E+01
      6.204  0.7621E+00  0.7651E+00  0.5239E+01  0.5238E+01
      6.279  0.6629E+00  0.6625E+00  0.5289E+01  0.5288E+01
      6.354  0.7420E+00  0.7389E+00  0.5345E+01  0.5344E+01
      6.429  0.8405E+00  0.8395E+00  0.5408E+01  0.5407E+01
      6.504  0.8197E+00  0.8202E+00  0.5470E+01  0.5468E+01
      6.579  0.8338E+00  0.8323E+00  0.5532E+01  0.5531E+01
      6.654  0.9274E+00  0.9259E+00  0.5602E+01  0.5600E+01
      6.729  0.9933E+00  0.9927E+00  0.5676E+01  0.5675E+01
      6.804  0.1033E+01  0.1032E+01  0.5754E+01  0.5752E+01
      6.879  0.1025E+01  0.1027E+01  0.5831E+01  0.5829E+01
      6.954  0.8195E+00  0.8243E+00  0.5892E+01  0.5891E+01
      7.029  0.6481E+00  0.6499E+00  0.5941E+01  0.5940E+01
      7.104  0.6839E+00  0.6816E+00  0.5992E+01  0.5991E+01
      7.179  0.8451E+00  0.8418E+00  0.6056E+01  0.6055E+01
      7.254  0.8460E+00  0.8477E+00  0.6120E+01  0.6118E+01
      7.329  0.7552E+00  0.7560E+00  0.6176E+01  0.6175E+01
      7.404  0.7915E+00  0.7913E+00  0.6236E+01  0.6234E+01
      7.479  0.8501E+00  0.8490E+00  0.6299E+01  0.6298E+01
      7.554  0.9285E+00  0.9254E+00  0.6369E+01  0.6368E+01
      7.630  0.1007E+01  0.1007E+01  0.6445E+01  0.6443E+01
      7.705  0.9799E+00  0.9813E+00  0.6518E+01  0.6517E+01
      7.780  0.9361E+00  0.9363E+00  0.6589E+01  0.6587E+01
      7.855  0.9334E+00  0.9341E+00  0.6659E+01  0.6657E+01
      7.930  0.8934E+00  0.8931E+00  0.6726E+01  0.6724E+01
      8.005  0.8206E+00  0.8211E+00  0.6788E+01  0.6786E+01
      8.080  0.8066E+00  0.8053E+00  0.6848E+01  0.6847E+01
      8.155  0.9070E+00  0.9063E+00  0.6916E+01  0.6915E+01
      8.230  0.9071E+00  0.9093E+00  0.6984E+01  0.6983E+01
      8.305  0.8905E+00  0.8891E+00  0.7051E+01  0.7050E+01
      8.380  0.1003E+01  0.1001E+01  0.7127E+01  0.7125E+01
      8.455  0.9988E+00  0.9998E+00  0.7202E+01  0.7200E+01
      8.530  0.1007E+01  0.1005E+01  0.7277E+01  0.7275E+01
      8.605  0.1017E+01  0.1018E+01  0.7353E+01  0.7352E+01
      8.680  0.9690E+00  0.9682E+00  0.7426E+01  0.7425E+01
      8.755  0.9408E+00  0.9415E+00  0.7497E+01  0.7495E+01
      8.830  0.8538E+00  0.8558E+00  0.7561E+01  0.7560E+01
      8.905  0.7964E+00  0.7965E+00  0.7621E+01  0.7619E+01
      8.980  0.8303E+00  0.8304E+00  0.7683E+01  0.7682E+01
      9.055  0.8803E+00  0.8796E+00  0.7749E+01  0.7748E+01
      9.130  0.9241E+00  0.9246E+00  0.7819E+01  0.7817E+01
      9.205  0.8443E+00  0.8468E+00  0.7882E+01  0.7881E+01
      9.280  0.7988E+00  0.7969E+00  0.7942E+01  0.7941E+01
      9.355  0.9544E+00  0.9492E+00  0.8014E+01  0.8012E+01
      9.430  0.1150E+01  0.1146E+01  0.8100E+01  0.8098E+01
      9.505  0.1278E+01  0.1277E+01  0.8196E+01  0.8194E+01
      9.580  0.1250E+01  0.1252E+01  0.8290E+01  0.8288E+01
      9.656  0.1154E+01  0.1156E+01  0.8377E+01  0.8375E+01
      9.731  0.1016E+01  0.1020E+01  0.8453E+01  0.8451E+01
      9.806  0.9573E+00  0.9573E+00  0.8525E+01  0.8523E+01
      9.881  0.8916E+00  0.8948E+00  0.8592E+01  0.8590E+01
      9.956  0.7360E+00  0.7380E+00  0.8647E+01  0.8646E+01
     10.031  0.7754E+00  0.7721E+00  0.8705E+01  0.8704E+01
     10.106  0.9617E+00  0.9580E+00  0.8778E+01  0.8776E+01
     10.181  0.1035E+01  0.1033E+01  0.8855E+01  0.8853E+01
     10.256  0.1042E+01  0.1041E+01  0.8934E+01  0.8932E+01
     10.331  0.1058E+01  0.1057E+01  0.9013E+01  0.9011E+01
     10.406  0.1131E+01  0.1130E+01  0.9098E+01  0.9096E+01
     10.481  0.1163E+01  0.1165E+01  0.9185E+01  0.9183E+01
     10.556  0.1060E+01  0.1062E+01  0.9265E+01  0.9263E+01
     10.631  0.9630E+00  0.9632E+00  0.9337E+01  0.9335E+01
     10.706  0.9214E+00  0.9216E+00  0.9406E+01  0.9405E+01
     10.781  0.9431E+00  0.9428E+00  0.9477E+01  0.9475E+01
     10.856  0.9196E+00  0.9203E+00  0.9546E+01  0.9544E+01
     10.931  0.9247E+00  0.9221E+00  0.9616E+01  0.9614E+01
     11.006  0.9897E+00  0.9878E+00  0.9690E+01  0.9688E+01
     11.081  0.1175E+01  0.1169E+01  0.9778E+01  0.9776E+01
     11.156  0.1397E+01  0.1396E+01  0.9883E+01  0.9880E+01
     11.231  0.1326E+01  0.1332E+01  0.9983E+01  0.9980E+01
     11.306  0.1118E+01  0.1123E+01  0.1007E+02  0.1006E+02
     11.381  0.1022E+01  0.1022E+01  0.1014E+02  0.1014E+02
     11.456  0.1038E+01  0.1035E+01  0.1022E+02  0.1022E+02
     11.531  0.1125E+01  0.1123E+01  0.1031E+02  0.1030E+02
     11.606  0.1121E+01  0.1122E+01  0.1039E+02  0.1039E+02
     11.681  0.1045E+01  0.1048E+01  0.1047E+02  0.1047E+02
     11.757  0.8572E+00  0.8616E+00  0.1053E+02  0.1053E+02
     11.832  0.8332E+00  0.8291E+00  0.1060E+02  0.1059E+02
     11.907  0.1059E+01  0.1055E+01  0.1067E+02  0.1067E+02
     11.982  0.1023E+01  0.1029E+01  0.1075E+02  0.1075E+02
     12.057  0.8280E+00  0.8355E+00  0.1081E+02  0.1081E+02
     12.132  0.7150E+00  0.7236E+00  0.1087E+02  0.1087E+02
     12.207  0.7124E+00  0.7092E+00  0.1092E+02  0.1092E+02
     12.282  0.8542E+00  0.8437E+00  0.1099E+02  0.1098E+02
     12.357  0.9914E+00  0.9943E+00  0.1106E+02  0.1106E+02
     12.432  0.9383E+00  0.9450E+00  0.1113E+02  0.1113E+02
     12.507  0.7897E+00  0.7872E+00  0.1119E+02  0.1119E+02
     12.582  0.7233E+00  0.7195E+00  0.1124E+02  0.1124E+02
     12.657  0.6272E+00  0.6301E+00  0.1129E+02  0.1129E+02
     12.732  0.4156E+00  0.4194E+00  0.1132E+02  0.1132E+02
     12.807  0.3478E+00  0.3478E+00  0.1135E+02  0.1135E+02
     12.882  0.3509E+00  0.3515E+00  0.1137E+02  0.1137E+02
     12.957  0.3109E+00  0.3097E+00  0.1140E+02  0.1140E+02
     13.032  0.3463E+00  0.3433E+00  0.1142E+02  0.1142E+02
     13.107  0.4261E+00  0.4259E+00  0.1146E+02  0.1146E+02
     13.182  0.3963E+00  0.4000E+00  0.1149E+02  0.1149E+02
     13.257  0.3039E+00  0.3065E+00  0.1151E+02  0.1151E+02
     13.332  0.2594E+00  0.2613E+00  0.1153E+02  0.1153E+02
     13.407  0.2753E+00  0.2771E+00  0.1155E+02  0.1155E+02
     13.482  0.3624E+00  0.3619E+00  0.1158E+02  0.1158E+02
     13.557  0.3740E+00  0.3777E+00  0.1160E+02  0.1160E+02
     13.632  0.3216E+00  0.3264E+00  0.1163E+02  0.1163E+02
     13.707  0.3389E+00  0.3346E+00  0.1165E+02  0.1165E+02
     13.783  0.2874E+00  0.2837E+00  0.1168E+02  0.1168E+02
     13.858  0.2063E+00  0.2064E+00  0.1169E+02  0.1169E+02
     13.933  0.1687E+00  0.1696E+00  0.1170E+02  0.1170E+02
     14.008  0.1788E+00  0.1776E+00  0.1172E+02  0.1172E+02
     14.083  0.1965E+00  0.1948E+00  0.1173E+02  0.1173E+02
     14.158  0.1979E+00  0.1949E+00  0.1175E+02  0.1175E+02
     14.233  0.2196E+00  0.2120E+00  0.1176E+02  0.1176E+02
     14.308  0.2020E+00  0.1930E+00  0.1178E+02  0.1178E+02
     14.383  0.1550E+00  0.1620E+00  0.1179E+02  0.1179E+02
     14.458  0.1252E+00  0.1344E+00  0.1180E+02  0.1180E+02
     14.533  0.1856E+00  0.1867E+00  0.1181E+02  0.1181E+02
     14.608  0.2633E+00  0.2633E+00  0.1183E+02  0.1183E+02
     14.683  0.2302E+00  0.2330E+00  0.1185E+02  0.1185E+02
     14.758  0.1106E+00  0.1135E+00  0.1186E+02  0.1186E+02
     14.833  0.3774E-01  0.3878E-01  0.1186E+02  0.1186E+02
     14.908  0.3183E-01  0.3195E-01  0.1186E+02  0.1186E+02
     14.983  0.8770E-01  0.8796E-01  0.1187E+02  0.1187E+02
     15.058  0.1980E+00  0.2014E+00  0.1189E+02  0.1189E+02
     15.133  0.2310E+00  0.2334E+00  0.1190E+02  0.1190E+02
     15.208  0.1295E+00  0.1263E+00  0.1191E+02  0.1191E+02
     15.283  0.4503E-01  0.4289E-01  0.1192E+02  0.1192E+02
     15.358  0.2975E-01  0.2845E-01  0.1192E+02  0.1192E+02
     15.433  0.7304E-01  0.7085E-01  0.1192E+02  0.1192E+02
     15.508  0.1518E+00  0.1502E+00  0.1193E+02  0.1193E+02
     15.583  0.1408E+00  0.1426E+00  0.1195E+02  0.1195E+02
     15.658  0.6711E-01  0.6879E-01  0.1195E+02  0.1195E+02
     15.733  0.2426E-01  0.2488E-01  0.1195E+02  0.1195E+02
     15.809  0.1517E-01  0.1488E-01  0.1195E+02  0.1195E+02
     15.884  0.3713E-01  0.3555E-01  0.1196E+02  0.1196E+02
     15.959  0.8897E-01  0.8703E-01  0.1196E+02  0.1196E+02
     16.034  0.9579E-01  0.9725E-01  0.1197E+02  0.1197E+02
     16.109  0.4304E-01  0.4496E-01  0.1197E+02  0.1197E+02
     16.184  0.1199E-01  0.1271E-01  0.1197E+02  0.1197E+02
     16.259  0.3421E-02  0.3817E-02  0.1197E+02  0.1197E+02
     16.334  0.3428E-02  0.4437E-02  0.1197E+02  0.1197E+02
     16.409  0.1133E-01  0.1475E-01  0.1198E+02  0.1198E+02
     16.484  0.3445E-01  0.4028E-01  0.1198E+02  0.1198E+02
     16.559  0.5216E-01  0.5052E-01  0.1198E+02  0.1198E+02
     16.634  0.3140E-01  0.2572E-01  0.1198E+02  0.1198E+02
     16.709  0.1057E-01  0.8232E-02  0.1199E+02  0.1199E+02
     16.784  0.5832E-02  0.5413E-02  0.1199E+02  0.1199E+02
     16.859  0.1407E-01  0.1475E-01  0.1199E+02  0.1199E+02
     16.934  0.3834E-01  0.4074E-01  0.1199E+02  0.1199E+02
     17.009  0.5994E-01  0.6171E-01  0.1199E+02  0.1199E+02
     17.084  0.4901E-01  0.4654E-01  0.1200E+02  0.1200E+02
     17.159  0.2114E-01  0.1915E-01  0.1200E+02  0.1200E+02
     17.234  0.5883E-02  0.5276E-02  0.1200E+02  0.1200E+02
     17.309  0.1388E-02  0.1242E-02  0.1200E+02  0.1200E+02
     17.384  0.2597E-03  0.2276E-03  0.1200E+02  0.1200E+02
     17.459  0.0000E+00  0.0000E+00  0.1200E+02  0.1200E+02
     17.534  0.0000E+00  0.0000E+00  0.1200E+02  0.1200E+02
     17.609  0.0000E+00  0.0000E+00  0.1200E+02  0.1200E+02
     17.684  0.0000E+00  0.0000E+00  0.1200E+02  0.1200E+02
     17.759  0.0000E+00  0.0000E+00  0.1200E+02  0.1200E+02
     17.834  0.0000E+00  0.0000E+00  0.1200E+02  0.1200E+02
     17.910  0.0000E+00  0.0000E+00  0.1200E+02  0.1200E+02
     17.985  0.0000E+00  0.0000E+00  0.1200E+02  0.1200E+02
     18.060  0.0000E+00  0.0000E+00  0.1200E+02  0.1200E+02
     18.05959736     -4.45133845  301      7.11468182      1.00000000
     -4.451  0.0000E+00  0.0000E+00  0.0000E+00  0.0000E+00  0.0000E+00  0.0000E+00  0.0000E+00  0.0000E+00  0.0000E+00  0.0000E+00  0.0000E+00  0.0000E+00  0.0000E+00  0.0000E+00  0.0000E+00  0.0000E+00  0.0000E+00  0.0000E+00
     -4.376  0.0000E+00  0.0000E+00  0.0000E+00  0.0000E+00  0.0000E+00  0.0000E+00  0.0000E+00  0.0000E+00  0.0000E+00  0.0000E+00  0.0000E+00  0.0000E+00  0.0000E+00  0.0000E+00  0.0000E+00  0.0000E+00  0.0000E+00  0.0000E+00
     -4.301  0.0000E+00  0.0000E+00  0.0000E+00  0.0000E+00  0.0000E+00  0.0000E+00  0.0000E+00  0.0000E+00  0.0000E+00  0.0000E+00  0.0000E+00  0.0000E+00  0.0000E+00  0.0000E+00  0.0000E+00  0.0000E+00  0.0000E+00  0.0000E+00
     -4.226  0.0000E+00  0.0000E+00  0.0000E+00  0.0000E+00  0.0000E+00  0.0000E+00  0.0000E+00  0.0000E+00  0.0000E+00  0.0000E+00  0.0000E+00  0.0000E+00  0.0000E+00  0.0000E+00  0.0000E+00  0.0000E+00  0.0000E+00  0.0000E+00
     -4.151  0.0000E+00  0.0000E+00  0.0000E+00  0.0000E+00  0.0000E+00  0.0000E+00  0.0000E+00  0.0000E+00  0.0000E+00  0.0000E+00  0.0000E+00  0.0000E+00  0.0000E+00  0.0000E+00  0.0000E+00  0.0000E+00  0.0000E+00  0.0000E+00
     -4.076  0.0000E+00  0.0000E+00  0.0000E+00  0.0000E+00  0.0000E+00  0.0000E+00  0.0000E+00  0.0000E+00  0.0000E+00  0.0000E+00  0.0000E+00  0.0000E+00  0.0000E+00  0.0000E+00  0.0000E+00  0.0000E+00  0.0000E+00  0.0000E+00
     -4.001  0.0000E+00  0.0000E+00  0.0000E+00  0.0000E+00  0.0000E+00  0.0000E+00  0.0000E+00  0.0000E+00  0.0000E+00  0.0000E+00  0.0000E+00  0.0000E+00  0.0000E+00  0.0000E+00  0.0000E+00  0.0000E+00  0.0000E+00  0.0000E+00
     -3.926  0.0000E+00  0.0000E+00  0.0000E+00  0.0000E+00  0.0000E+00  0.0000E+00  0.0000E+00  0.0000E+00  0.0000E+00  0.0000E+00  0.0000E+00  0.0000E+00  0.0000E+00  0.0000E+00  0.0000E+00  0.0000E+00  0.0000E+00  0.0000E+00
     -3.851  0.2618E-06  0.7991E-07  0.2245E-09  0.6643E-22  0.2245E-09  0.6639E-22  0.2245E-09  0.6650E-22  0.0000E+00  0.0000E+00  0.0000E+00  0.0000E+00  0.0000E+00  0.0000E+00  0.0000E+00  0.0000E+00  0.0000E+00  0.0000E+00
     -3.776  0.1495E-05  0.1621E-05  0.2244E-08  0.2393E-08  0.2244E-08  0.2393E-08  0.2244E-08  0.2393E-08  0.0000E+00  0.0000E+00  0.0000E+00  0.0000E+00  0.0000E+00  0.0000E+00  0.0000E+00  0.0000E+00  0.0000E+00  0.0000E+00
     -3.701  0.6742E-05  0.6530E-05  0.1098E-07  0.1064E-07  0.1098E-07  0.1064E-07  0.1098E-07  0.1064E-07  0.0000E+00  0.0000E+00  0.0000E+00  0.0000E+00  0.0000E+00  0.0000E+00  0.0000E+00  0.0000E+00  0.0000E+00  0.0000E+00
     -3.626  0.3128E-04  0.3031E-04  0.5762E-07  0.5585E-07  0.5762E-07  0.5585E-07  0.5762E-07  0.5585E-07  0.0000E+00  0.0000E+00  0.0000E+00  0.0000E+00  0.0000E+00  0.0000E+00  0.0000E+00  0.0000E+00  0.0000E+00  0.0000E+00
     -3.551  0.1362E-03  0.1321E-03  0.2580E-06  0.2502E-06  0.2580E-06  0.2502E-06  0.2580E-06  0.2502E-06  0.0000E+00  0.0000E+00  0.0000E+00  0.0000E+00  0.0000E+00  0.0000E+00  0.0000E+00  0.0000E+00  0.0000E+00  0.0000E+00
     -3.476  0.5444E-03  0.5295E-03  0.1089E-05  0.1057E-05  0.1089E-05  0.1057E-05  0.1089E-05  0.1057E-05  0.0000E+00  0.0000E+00  0.0000E+00  0.0000E+00  0.0000E+00  0.0000E+00  0.0000E+00  0.0000E+00  0.0000E+00  0.0000E+00
     -3.401  0.1728E-02  0.1692E-02  0.4052E-05  0.3952E-05  0.4052E-05  0.3952E-05  0.4052E-05  0.3952E-05  0.0000E+00  0.0000E+00  0.0000E+00  0.0000E+00  0.0000E+00  0.0000E+00  0.0000E+00  0.0000E+00  0.0000E+00  0.0000E+00
     -3.326  0.3683E-02  0.3639E-02  0.1132E-04  0.1111E-04  0.1132E-04  0.1111E-04  0.1132E-04  0.1111E-04  0.0000E+00  0.0000E+00  0.0000E+00  0.0000E+00  0.0000E+00  0.0000E+00  0.0000E+00  0.0000E+00  0.0000E+00  0.0000E+00
     -3.251  0.5456E-02  0.5416E-02  0.2401E-04  0.2366E-04  0.2401E-04  0.2366E-04  0.2401E-04  0.2366E-04  0.0000E+00  0.0000E+00  0.0000E+00  0.0000E+00  0.0000E+00  0.0000E+00  0.0000E+00  0.0000E+00  0.0000E+00  0.0000E+00
     -3.176  0.7385E-02  0.7336E-02  0.4465E-04  0.4415E-04  0.4465E-04  0.4415E-04  0.4465E-04  0.4415E-04  0.0000E+00  0.0000E+00  0.0000E+00  0.0000E+00  0.0000E+00  0.0000E+00  0.0000E+00  0.0000E+00  0.0000E+00  0.0000E+00
     -3.101  0.8576E-02  0.8565E-02  0.6383E-04  0.6352E-04  0.6383E-04  0.6352E-04  0.6383E-04  0.6352E-04  0.0000E+00  0.0000E+00  0.0000E+00  0.0000E+00  0.0000E+00  0.0000E+00  0.0000E+00  0.0000E+00  0.0000E+00  0.0000E+00
     -3.026  0.8614E-02  0.8588E-02  0.8194E-04  0.8131E-04  0.8194E-04  0.8131E-04  0.8194E-04  0.8131E-04  0.0000E+00  0.0000E+00  0.0000E+00  0.0000E+00  0.0000E+00  0.0000E+00  0.0000E+00  0.0000E+00  0.0000E+00  0.0000E+00
     -2.951  0.1058E-01  0.1052E-01  0.1227E-03  0.1218E-03  0.1227E-03  0.1218E-03  0.1227E-03  0.1218E-03  0.0000E+00  0.0000E+00  0.0000E+00  0.0000E+00  0.0000E+00  0.0000E+00  0.0000E+00  0.0000E+00  0.0000E+00  0.0000E+00
     -2.876  0.1185E-01  0.1184E-01  0.1561E-03  0.1556E-03  0.1561E-03  0.1556E-03  0.1561E-03  0.1556E-03  0.0000E+00  0.0000E+00  0.0000E+00  0.0000E+00  0.0000E+00  0.0000E+00  0.0000E+00  0.0000E+00  0.0000E+00  0.0000E+00
     -2.801  0.1173E-01  0.1171E-01  0.1771E-03  0.1764E-03  0.1771E-03  0.1764E-03  0.1771E-03  0.1764E-03  0.0000E+00  0.0000E+00  0.0000E+00  0.0000E+00  0.0000E+00  0.0000E+00  0.0000E+00  0.0000E+00  0.0000E+00  0.0000E+00
     -2.726  0.1258E-01  0.1255E-01  0.2149E-03  0.2141E-03  0.2149E-03  0.2141E-03  0.2149E-03  0.2141E-03  0.0000E+00  0.0000E+00  0.0000E+00  0.0000E+00  0.0000E+00  0.0000E+00  0.0000E+00  0.0000E+00  0.0000E+00  0.0000E+00
     -2.650  0.1214E-01  0.1214E-01  0.2297E-03  0.2294E-03  0.2297E-03  0.2294E-03  0.2297E-03  0.2294E-03  0.0000E+00  0.0000E+00  0.0000E+00  0.0000E+00  0.0000E+00  0.0000E+00  0.0000E+00  0.0000E+00  0.0000E+00  0.0000E+00
     -2.575  0.1308E-01  0.1301E-01  0.2810E-03  0.2790E-03  0.2810E-03  0.2790E-03  0.2810E-03  0.2790E-03  0.0000E+00  0.0000E+00  0.0000E+00  0.0000E+00  0.0000E+00  0.0000E+00  0.0000E+00  0.0000E+00  0.0000E+00  0.0000E+00
     -2.500  0.1594E-01  0.1589E-01  0.3707E-03  0.3693E-03  0.3707E-03  0.3693E-03  0.3707E-03  0.3693E-03  0.0000E+00  0.0000E+00  0.0000E+00  0.0000E+00  0.0000E+00  0.0000E+00  0.0000E+00  0.0000E+00  0.0000E+00  0.0000E+00
     -2.425  0.1620E-01  0.1619E-01  0.4046E-03  0.4040E-03  0.4046E-03  0.4040E-03  0.4046E-03  0.4040E-03  0.0000E+00  0.0000E+00  0.0000E+00  0.0000E+00  0.0000E+00  0.0000E+00  0.0000E+00  0.0000E+00  0.0000E+00  0.0000E+00
     -2.350  0.1570E-01  0.1571E-01  0.4214E-03  0.4213E-03  0.4214E-03  0.4213E-03  0.4214E-03  0.4213E-03  0.0000E+00  0.0000E+00  0.0000E+00  0.0000E+00  0.0000E+00  0.0000E+00  0.0000E+00  0.0000E+00  0.0000E+00  0.0000E+00
     -2.275  0.1352E-01  0.1355E-01  0.3890E-03  0.3896E-03  0.3890E-03  0.3896E-03  0.3890E-03  0.3896E-03  0.0000E+00  0.0000E+00  0.0000E+00  0.0000E+00  0.0000E+00  0.0000E+00  0.0000E+00  0.0000E+00  0.0000E+00  0.0000E+00
     -2.200  0.1353E-01  0.1345E-01  0.4291E-03  0.4262E-03  0.4291E-03  0.4262E-03  0.4291E-03  0.4262E-03  0.0000E+00  0.0000E+00  0.0000E+00  0.0000E+00  0.0000E+00  0.0000E+00  0.0000E+00  0.0000E+00  0.0000E+00  0.0000E+00
     -2.125  0.1797E-01  0.1787E-01  0.6092E-03  0.6053E-03  0.6092E-03  0.6053E-03  0.6092E-03  0.6053E-03  0.0000E+00  0.0000E+00  0.0000E+00  0.0000E+00  0.0000E+00  0.0000E+00  0.0000E+00  0.0000E+00  0.0000E+00  0.0000E+00
     -2.050  0.1965E-01  0.1965E-01  0.6963E-03  0.6960E-03  0.6963E-03  0.6960E-03  0.6963E-03  0.6960E-03  0.0000E+00  0.0000E+00  0.0000E+00  0.0000E+00  0.0000E+00  0.0000E+00  0.0000E+00  0.0000E+00  0.0000E+00  0.0000E+00
     -1.975  0.1886E-01  0.1883E-01  0.7075E-03  0.7062E-03  0.7075E-03  0.7062E-03  0.7075E-03  0.7062E-03  0.0000E+00  0.0000E+00  0.0000E+00  0.0000E+00  0.0000E+00  0.0000E+00  0.0000E+00  0.0000E+00  0.0000E+00  0.0000E+00
     -1.900  0.1836E-01  0.1839E-01  0.7228E-03  0.7238E-03  0.7228E-03  0.7238E-03  0.7228E-03  0.7238E-03  0.0000E+00  0.0000E+00  0.0000E+00  0.0000E+00  0.0000E+00  0.0000E+00  0.0000E+00  0.0000E+00  0.0000E+00  0.0000E+00
     -1.825  0.1517E-01  0.1519E-01  0.6312E-03  0.6316E-03  0.6312E-03  0.6316E-03  0.6312E-03  0.6316E-03  0.0000E+00  0.0000E+00  0.0000E+00  0.0000E+00  0.0000E+00  0.0000E+00  0.0000E+00  0.0000E+00  0.0000E+00  0.0000E+00
     -1.750  0.1671E-01  0.1662E-01  0.7440E-03  0.7393E-03  0.7440E-03  0.7393E-03  0.7440E-03  0.7393E-03  0.0000E+00  0.0000E+00  0.0000E+00  0.0000E+00  0.0000E+00  0.0000E+00  0.0000E+00  0.0000E+00  0.0000E+00  0.0000E+00
     -1.675  0.2002E-01  0.1997E-01  0.9290E-03  0.9264E-03  0.9290E-03  0.9264E-03  0.9290E-03  0.9264E-03  0.0000E+00  0.0000E+00  0.0000E+00  0.0000E+00  0.0000E+00  0.0000E+00  0.0000E+00  0.0000E+00  0.0000E+00  0.0000E+00
     -1.600  0.1979E-01  0.1979E-01  0.9570E-03  0.9569E-03  0.9570E-03  0.9569E-03  0.9570E-03  0.9569E-03  0.0000E+00  0.0000E+00  0.0000E+00  0.0000E+00  0.0000E+00  0.0000E+00  0.0000E+00  0.0000E+00  0.0000E+00  0.0000E+00
     -1.525  0.1904E-01  0.1902E-01  0.9667E-03  0.9657E-03  0.9667E-03  0.9657E-03  0.9667E-03  0.9657E-03  0.0000E+00  0.0000E+00  0.0000E+00  0.0000E+00  0.0000E+00  0.0000E+00  0.0000E+00  0.0000E+00  0.0000E+00  0.0000E+00
     -1.450  0.1876E-01  0.1874E-01  0.9982E-03  0.9966E-03  0.9982E-03  0.9966E-03  0.9982E-03  0.9966E-03  0.0000E+00  0.0000E+00  0.0000E+00  0.0000E+00  0.0000E+00  0.0000E+00  0.0000E+00  0.0000E+00  0.0000E+00  0.0000E+00
     -1.375  0.2129E-01  0.2118E-01  0.1187E-02  0.1181E-02  0.1187E-02  0.1181E-02  0.1187E-02  0.1181E-02  0.0000E+00  0.0000E+00  0.0000E+00  0.0000E+00  0.0000E+00  0.0000E+00  0.0000E+00  0.0000E+00  0.0000E+00  0.0000E+00
     -1.300  0.2351E-01  0.2351E-01  0.1350E-02  0.1350E-02  0.1350E-02  0.1350E-02  0.1350E-02  0.1350E-02  0.0000E+00  0.0000E+00  0.0000E+00  0.0000E+00  0.0000E+00  0.0000E+00  0.0000E+00  0.0000E+00  0.0000E+00  0.0000E+00
     -1.225  0.2089E-01  0.2092E-01  0.1242E-02  0.1243E-02  0.1242E-02  0.1243E-02  0.1242E-02  0.1243E-02  0.0000E+00  0.0000E+00  0.0000E+00  0.0000E+00  0.0000E+00  0.0000E+00  0.0000E+00  0.0000E+00  0.0000E+00  0.0000E+00
     -1.150  0.2017E-01  0.2016E-01  0.1249E-02  0.1248E-02  0.1249E-02  0.1248E-02  0.1249E-02  0.1248E-02  0.0000E+00  0.0000E+00  0.0000E+00  0.0000E+00  0.0000E+00  0.0000E+00  0.0000E+00  0.0000E+00  0.0000E+00  0.0000E+00
     -1.075  0.1765E-01  0.1771E-01  0.1130E-02  0.1134E-02  0.1130E-02  0.1134E-02  0.1130E-02  0.1134E-02  0.0000E+00  0.0000E+00  0.0000E+00  0.0000E+00  0.0000E+00  0.0000E+00  0.0000E+00  0.0000E+00  0.0000E+00  0.0000E+00
     -1.000  0.1598E-01  0.1592E-01  0.1077E-02  0.1072E-02  0.1077E-02  0.1072E-02  0.1077E-02  0.1072E-02  0.0000E+00  0.0000E+00  0.0000E+00  0.0000E+00  0.0000E+00  0.0000E+00  0.0000E+00  0.0000E+00  0.0000E+00  0.0000E+00
     -0.925  0.2149E-01  0.2133E-01  0.1508E-02  0.1498E-02  0.1508E-02  0.1498E-02  0.1508E-02  0.1498E-02  0.0000E+00  0.0000E+00  0.0000E+00  0.0000E+00  0.0000E+00  0.0000E+00  0.0000E+00  0.0000E+00  0.0000E+00  0.0000E+00
     -0.850  0.2504E-01  0.2500E-01  0.1806E-02  0.1803E-02  0.1806E-02  0.1803E-02  0.1806E-02  0.1803E-02  0.0000E+00  0.0000E+00  0.0000E+00  0.0000E+00  0.0000E+00  0.0000E+00  0.0000E+00  0.0000E+00  0.0000E+00  0.0000E+00
     -0.775  0.2548E-01  0.2543E-01  0.1899E-02  0.1896E-02  0.1899E-02  0.1896E-02  0.1899E-02  0.1896E-02  0.0000E+00  0.0000E+00  0.0000E+00  0.0000E+00  0.0000E+00  0.0000E+00  0.0000E+00  0.0000E+00  0.0000E+00  0.0000E+00
     -0.700  0.2566E-01  0.2568E-01  0.1967E-02  0.1968E-02  0.1967E-02  0.1968E-02  0.1967E-02  0.1968E-02  0.0000E+00  0.0000E+00  0.0000E+00  0.0000E+00  0.0000E+00  0.0000E+00  0.0000E+00  0.0000E+00  0.0000E+00  0.0000E+00