   4   4   1   0
  0.1907887E+02  0.4241677E-09  0.4241677E-09  0.4241677E-09  0.5000000E-15
  1.000000000000000E-004
  CAR 
 unknown system                          
     17.03060885     -4.58723679  301      6.55628297      1.00000000
     -4.587  0.0000E+00  0.0000E+00  0.0000E+00  0.0000E+00
     -4.515  0.0000E+00  0.0000E+00  0.0000E+00  0.0000E+00
     -4.443  0.0000E+00  0.0000E+00  0.0000E+00  0.0000E+00
     -4.371  0.0000E+00  0.0000E+00  0.0000E+00  0.0000E+00
     -4.299  0.0000E+00  0.0000E+00  0.0000E+00  0.0000E+00
     -4.227  0.0000E+00  0.0000E+00  0.0000E+00  0.0000E+00
     -4.155  0.0000E+00  0.0000E+00  0.0000E+00  0.0000E+00
     -4.083  0.0000E+00  0.0000E+00  0.0000E+00  0.0000E+00
     -4.011  0.6119E-05  0.5934E-05  0.4410E-06  0.4276E-06
     -3.939  0.3329E-04  0.3228E-04  0.2839E-05  0.2754E-05
     -3.867  0.1454E-03  0.1410E-03  0.1331E-04  0.1291E-04
     -3.795  0.6171E-03  0.5986E-03  0.5778E-04  0.5605E-04
     -3.723  0.2543E-02  0.2469E-02  0.2410E-03  0.2340E-03
     -3.650  0.9550E-02  0.9300E-02  0.9292E-03  0.9041E-03
     -3.578  0.2886E-01  0.2828E-01  0.3009E-02  0.2942E-02
     -3.506  0.6009E-01  0.5940E-01  0.7339E-02  0.7223E-02
     -3.434  0.8950E-01  0.8889E-01  0.1379E-01  0.1363E-01
     -3.362  0.1210E+00  0.1203E+00  0.2251E-01  0.2230E-01
     -3.290  0.1410E+00  0.1410E+00  0.3267E-01  0.3245E-01
     -3.218  0.1446E+00  0.1443E+00  0.4309E-01  0.4285E-01
     -3.146  0.1761E+00  0.1753E+00  0.5579E-01  0.5549E-01
     -3.074  0.1983E+00  0.1982E+00  0.7008E-01  0.6977E-01
     -3.002  0.1989E+00  0.1987E+00  0.8441E-01  0.8410E-01
     -2.930  0.2127E+00  0.2125E+00  0.9975E-01  0.9942E-01
     -2.858  0.2086E+00  0.2089E+00  0.1148E+00  0.1145E+00
     -2.786  0.2254E+00  0.2244E+00  0.1310E+00  0.1306E+00
     -2.714  0.2728E+00  0.2722E+00  0.1507E+00  0.1503E+00
     -2.642  0.2807E+00  0.2808E+00  0.1710E+00  0.1705E+00
     -2.570  0.2734E+00  0.2738E+00  0.1907E+00  0.1903E+00
     -2.498  0.2401E+00  0.2409E+00  0.2080E+00  0.2076E+00
     -2.425  0.2411E+00  0.2401E+00  0.2254E+00  0.2250E+00
     -2.353  0.3151E+00  0.3135E+00  0.2481E+00  0.2476E+00
     -2.281  0.3492E+00  0.3496E+00  0.2733E+00  0.2728E+00
     -2.209  0.3387E+00  0.3387E+00  0.2977E+00  0.2972E+00
     -2.137  0.3311E+00  0.3321E+00  0.3216E+00  0.3211E+00
     -2.065  0.2807E+00  0.2814E+00  0.3418E+00  0.3414E+00
     -1.993  0.3043E+00  0.3029E+00  0.3638E+00  0.3632E+00
     -1.921  0.3639E+00  0.3632E+00  0.3900E+00  0.3894E+00
     -1.849  0.3662E+00  0.3665E+00  0.4164E+00  0.4159E+00
     -1.777  0.3547E+00  0.3548E+00  0.4420E+00  0.4415E+00
     -1.705  0.3530E+00  0.3529E+00  0.4674E+00  0.4669E+00
     -1.633  0.3964E+00  0.3948E+00  0.4960E+00  0.4953E+00
     -1.561  0.4421E+00  0.4423E+00  0.5279E+00  0.5272E+00
     -1.489  0.4013E+00  0.4021E+00  0.5568E+00  0.5562E+00
     -1.417  0.3857E+00  0.3858E+00  0.5846E+00  0.5840E+00
     -1.345  0.3456E+00  0.3470E+00  0.6096E+00  0.6091E+00
     -1.273  0.3135E+00  0.3128E+00  0.6322E+00  0.6316E+00
     -1.200  0.4093E+00  0.4067E+00  0.6617E+00  0.6610E+00
     -1.128  0.4874E+00  0.4868E+00  0.6968E+00  0.6961E+00
     -1.056  0.5012E+00  0.5008E+00  0.7330E+00  0.7322E+00
     -0.984  0.5097E+00  0.5102E+00  0.7697E+00  0.7690E+00
     -0.912  0.4427E+00  0.4443E+00  0.8016E+00  0.8010E+00
     -0.840  0.4009E+00  0.4012E+00  0.8305E+00  0.8299E+00
     -0.768  0.4016E+00  0.4013E+00  0.8595E+00  0.8589E+00
     -0.696  0.4219E+00  0.4212E+00  0.8899E+00  0.8892E+00
     -0.624  0.4647E+00  0.4641E+00  0.9234E+00  0.9227E+00
     -0.552  0.4472E+00  0.4481E+00  0.9557E+00  0.9550E+00
     -0.480  0.4649E+00  0.4630E+00  0.9892E+00  0.9884E+00
     -0.408  0.5599E+00  0.5588E+00  0.1030E+01  0.1029E+01
     -0.336  0.5543E+00  0.5549E+00  0.1070E+01  0.1069E+01
     -0.264  0.5298E+00  0.5306E+00  0.1108E+01  0.1107E+01
     -0.192  0.4542E+00  0.4561E+00  0.1140E+01  0.1140E+01
     -0.120  0.4276E+00  0.4264E+00  0.1171E+01  0.1171E+01
     -0.047  0.5415E+00  0.5388E+00  0.1210E+01  0.1209E+01
      0.025  0.5963E+00  0.5969E+00  0.1253E+01  0.1252E+01
      0.097  0.5475E+00  0.5487E+00  0.1293E+01  0.1292E+01
      0.169  0.4745E+00  0.4764E+00  0.1327E+01  0.1326E+01
      0.241  0.4215E+00  0.4212E+00  0.1357E+01  0.1357E+01
      0.313  0.5039E+00  0.5016E+00  0.1394E+01  0.1393E+01
      0.385  0.5706E+00  0.5701E+00  0.1435E+01  0.1434E+01
      0.457  0.5779E+00  0.5778E+00  0.1477E+01  0.1476E+01
      0.529  0.5867E+00  0.5866E+00  0.1519E+01  0.1518E+01
      0.601  0.5791E+00  0.5788E+00  0.1561E+01  0.1560E+01
      0.673  0.6682E+00  0.6652E+00  0.1609E+01  0.1608E+01
      0.745  0.7224E+00  0.7240E+00  0.1661E+01  0.1660E+01
      0.817  0.5608E+00  0.5646E+00  0.1701E+01  0.1701E+01
      0.889  0.4608E+00  0.4615E+00  0.1735E+01  0.1734E+01
      0.961  0.4327E+00  0.4334E+00  0.1766E+01  0.1765E+01
      1.033  0.4448E+00  0.4430E+00  0.1798E+01  0.1797E+01
      1.105  0.5841E+00  0.5808E+00  0.1840E+01  0.1839E+01
      1.178  0.6927E+00  0.6913E+00  0.1890E+01  0.1889E+01
      1.250  0.7314E+00  0.7315E+00  0.1943E+01  0.1942E+01
      1.322  0.6537E+00  0.6561E+00  0.1990E+01  0.1989E+01
      1.394  0.6019E+00  0.6012E+00  0.2033E+01  0.2032E+01
      1.466  0.6604E+00  0.6595E+00  0.2081E+01  0.2080E+01
      1.538  0.6581E+00  0.6587E+00  0.2128E+01  0.2127E+01
      1.610  0.6449E+00  0.6446E+00  0.2175E+01  0.2174E+01
      1.682  0.6361E+00  0.6375E+00  0.2221E+01  0.2220E+01
      1.754  0.5408E+00  0.5422E+00  0.2260E+01  0.2259E+01
      1.826  0.5781E+00  0.5757E+00  0.2301E+01  0.2300E+01
      1.898  0.6789E+00  0.6775E+00  0.2350E+01  0.2349E+01
      1.970  0.7183E+00  0.7179E+00  0.2402E+01  0.2401E+01
      2.042  0.6845E+00  0.6865E+00  0.2451E+01  0.2451E+01
      2.114  0.5807E+00  0.5819E+00  0.2493E+01  0.2492E+01
      2.186  0.6174E+00  0.6154E+00  0.2538E+01  0.2537E+01
      2.258  0.6888E+00  0.6884E+00  0.2588E+01  0.2587E+01
      2.330  0.6938E+00  0.6930E+00  0.2638E+01  0.2636E+01
      2.403  0.7598E+00  0.7591E+00  0.2692E+01  0.2691E+01
      2.475  0.6965E+00  0.6988E+00  0.2743E+01  0.2742E+01
      2.547  0.6661E+00  0.6647E+00  0.2791E+01  0.2790E+01
      2.619  0.7489E+00  0.7478E+00  0.2845E+01  0.2843E+01
      2.691  0.7536E+00  0.7541E+00  0.2899E+01  0.2898E+01
      2.763  0.7343E+00  0.7344E+00  0.2952E+01  0.2951E+01
      2.835  0.7024E+00  0.7037E+00  0.3003E+01  0.3002E+01
      2.907  0.6707E+00  0.6702E+00  0.3051E+01  0.3050E+01
      2.979  0.7273E+00  0.7264E+00  0.3103E+01  0.3102E+01
      3.051  0.7163E+00  0.7174E+00  0.3155E+01  0.3154E+01
      3.123  0.6330E+00  0.6351E+00  0.3201E+01  0.3200E+01
      3.195  0.5448E+00  0.5458E+00  0.3240E+01  0.3239E+01
      3.267  0.6115E+00  0.6079E+00  0.3284E+01  0.3283E+01
      3.339  0.8389E+00  0.8347E+00  0.3345E+01  0.3343E+01
      3.411  0.9224E+00  0.9230E+00  0.3411E+01  0.3410E+01
      3.483  0.8814E+00  0.8817E+00  0.3475E+01  0.3473E+01
      3.555  0.8613E+00  0.8622E+00  0.3537E+01  0.3536E+01
      3.628  0.8251E+00  0.8250E+00  0.3596E+01  0.3595E+01
      3.700  0.8584E+00  0.8582E+00  0.3658E+01  0.3657E+01
      3.772  0.7907E+00  0.7933E+00  0.3715E+01  0.3714E+01
      3.844  0.6572E+00  0.6596E+00  0.3763E+01  0.3762E+01
      3.916  0.6030E+00  0.6029E+00  0.3806E+01  0.3805E+01
      3.988  0.6820E+00  0.6793E+00  0.3855E+01  0.3854E+01
      4.060  0.8622E+00  0.8591E+00  0.3917E+01  0.3916E+01
      4.132  0.9152E+00  0.9160E+00  0.3983E+01  0.3982E+01
      4.204  0.8675E+00  0.8679E+00  0.4046E+01  0.4045E+01
      4.276  0.8620E+00  0.8623E+00  0.4108E+01  0.4107E+01
      4.348  0.8270E+00  0.8280E+00  0.4168E+01  0.4167E+01
      4.420  0.8334E+00  0.8331E+00  0.4228E+01  0.4227E+01
      4.492  0.8553E+00  0.8547E+00  0.4289E+01  0.4288E+01
      4.564  0.8625E+00  0.8626E+00  0.4352E+01  0.4351E+01
      4.636  0.8059E+00  0.8080E+00  0.4410E+01  0.4409E+01
      4.708  0.6528E+00  0.6561E+00  0.4457E+01  0.4456E+01
      4.780  0.5802E+00  0.5799E+00  0.4499E+01  0.4498E+01
      4.853  0.6747E+00  0.6717E+00  0.4547E+01  0.4546E+01
      4.925  0.8142E+00  0.8113E+00  0.4606E+01  0.4605E+01
      4.997  0.8799E+00  0.8787E+00  0.4670E+01  0.4668E+01
      5.069  0.8903E+00  0.8902E+00  0.4734E+01  0.4733E+01
      5.141  0.9440E+00  0.9425E+00  0.4802E+01  0.4800E+01
      5.213  0.9514E+00  0.9531E+00  0.4870E+01  0.4869E+01
      5.285  0.8034E+00  0.8060E+00  0.4928E+01  0.4927E+01
      5.357  0.7261E+00  0.7267E+00  0.4981E+01  0.4980E+01
      5.429  0.6700E+00  0.6708E+00  0.5029E+01  0.5028E+01
      5.501  0.7134E+00  0.7117E+00  0.5081E+01  0.5079E+01
      5.573  0.8645E+00  0.8623E+00  0.5143E+01  0.5142E+01
      5.645  0.8774E+00  0.8792E+00  0.5206E+01  0.5205E+01
      5.717  0.7592E+00  0.7604E+00  0.5261E+01  0.5260E+01
      5.789  0.7349E+00  0.7333E+00  0.5314E+01  0.5313E+01
      5.861  0.8504E+00  0.8476E+00  0.5375E+01  0.5374E+01
      5.933  0.9060E+00  0.9066E+00  0.5441E+01  0.5439E+01
      6.006  0.8544E+00  0.8551E+00  0.5502E+01  0.5501E+01
      6.078  0.8940E+00  0.8920E+00  0.5567E+01  0.5565E+01
      6.150  0.9868E+00  0.9846E+00  0.5638E+01  0.5636E+01
      6.222  0.1059E+01  0.1058E+01  0.5714E+01  0.5712E+01
      6.294  0.1074E+01  0.1075E+01  0.5792E+01  0.5790E+01
      6.366  0.9753E+00  0.9790E+00  0.5862E+01  0.5861E+01
      6.438  0.7717E+00  0.7751E+00  0.5918E+01  0.5916E+01
      6.510  0.6664E+00  0.6659E+00  0.5966E+01  0.5964E+01
      6.582  0.7952E+00  0.7907E+00  0.6023E+01  0.6021E+01
      6.654  0.9335E+00  0.9332E+00  0.6090E+01  0.6089E+01
      6.726  0.8446E+00  0.8474E+00  0.6151E+01  0.6150E+01
      6.798  0.7666E+00  0.7674E+00  0.6206E+01  0.6205E+01
      6.870  0.7999E+00  0.7988E+00  0.6264E+01  0.6263E+01
      6.942  0.9174E+00  0.9145E+00  0.6330E+01  0.6329E+01
      7.014  0.1036E+01  0.1034E+01  0.6405E+01  0.6403E+01
      7.086  0.1036E+01  0.1036E+01  0.6480E+01  0.6478E+01
      7.158  0.9920E+00  0.9928E+00  0.6551E+01  0.6550E+01
      7.231  0.9512E+00  0.9512E+00  0.6620E+01  0.6618E+01
      7.303  0.9799E+00  0.9782E+00  0.6690E+01  0.6689E+01
      7.375  0.1001E+01  0.1001E+01  0.6763E+01  0.6761E+01
      7.447  0.8902E+00  0.8922E+00  0.6827E+01  0.6825E+01
      7.519  0.8432E+00  0.8432E+00  0.6888E+01  0.6886E+01
      7.591  0.8700E+00  0.8705E+00  0.6950E+01  0.6949E+01
      7.663  0.8976E+00  0.8964E+00  0.7015E+01  0.7014E+01
      7.735  0.9690E+00  0.9683E+00  0.7085E+01  0.7083E+01
      7.807  0.1006E+01  0.1005E+01  0.7157E+01  0.7156E+01
      7.879  0.1087E+01  0.1085E+01  0.7236E+01  0.7234E+01
      7.951  0.1115E+01  0.1115E+01  0.7316E+01  0.7315E+01
      8.023  0.1046E+01  0.1048E+01  0.7392E+01  0.7390E+01
      8.095  0.1014E+01  0.1014E+01  0.7465E+01  0.7463E+01
      8.167  0.9677E+00  0.9688E+00  0.7535E+01  0.7533E+01
      8.239  0.8877E+00  0.8888E+00  0.7599E+01  0.7597E+01
      8.311  0.8200E+00  0.8215E+00  0.7658E+01  0.7656E+01
      8.383  0.7914E+00  0.7919E+00  0.7715E+01  0.7714E+01
      8.456  0.8591E+00  0.8584E+00  0.7777E+01  0.7775E+01
      8.528  0.9040E+00  0.9043E+00  0.7842E+01  0.7841E+01
      8.600  0.9147E+00  0.9137E+00  0.7908E+01  0.7907E+01
      8.672  0.9721E+00  0.9682E+00  0.7978E+01  0.7976E+01
      8.744  0.1153E+01  0.1149E+01  0.8061E+01  0.8059E+01
      8.816  0.1307E+01  0.1305E+01  0.8155E+01  0.8153E+01
      8.888  0.1295E+01  0.1296E+01  0.8249E+01  0.8247E+01
      8.960  0.1243E+01  0.1245E+01  0.8338E+01  0.8336E+01
      9.032  0.1060E+01  0.1064E+01  0.8415E+01  0.8413E+01
      9.104  0.9667E+00  0.9662E+00  0.8485E+01  0.8483E+01
      9.176  0.9965E+00  0.9977E+00  0.8556E+01  0.8555E+01
      9.248  0.8718E+00  0.8756E+00  0.8619E+01  0.8618E+01
      9.320  0.7831E+00  0.7828E+00  0.8676E+01  0.8675E+01
      9.392  0.8945E+00  0.8895E+00  0.8740E+01  0.8739E+01
      9.464  0.1102E+01  0.1098E+01  0.8820E+01  0.8818E+01
      9.536  0.1160E+01  0.1161E+01  0.8903E+01  0.8902E+01
      9.608  0.1068E+01  0.1070E+01  0.8980E+01  0.8979E+01
      9.681  0.1091E+01  0.1090E+01  0.9059E+01  0.9057E+01
      9.753  0.1116E+01  0.1118E+01  0.9140E+01  0.9138E+01
      9.825  0.1071E+01  0.1072E+01  0.9217E+01  0.9215E+01
      9.897  0.1125E+01  0.1125E+01  0.9298E+01  0.9296E+01
      9.969  0.1040E+01  0.1043E+01  0.9373E+01  0.9371E+01
     10.041  0.9510E+00  0.9510E+00  0.9442E+01  0.9440E+01
     10.113  0.9605E+00  0.9596E+00  0.9511E+01  0.9509E+01
     10.185  0.1013E+01  0.1010E+01  0.9584E+01  0.9582E+01
     10.257  0.1059E+01  0.1057E+01  0.9660E+01  0.9658E+01
     10.329  0.1144E+01  0.1140E+01  0.9743E+01  0.9741E+01
     10.401  0.1331E+01  0.1329E+01  0.9839E+01  0.9836E+01
     10.473  0.1306E+01  0.1310E+01  0.9933E+01  0.9931E+01
     10.545  0.1159E+01  0.1161E+01  0.1002E+02  0.1001E+02
     10.617  0.1103E+01  0.1102E+01  0.1010E+02  0.1009E+02
     10.689  0.1143E+01  0.1140E+01  0.1018E+02  0.1018E+02
     10.761  0.1227E+01  0.1226E+01  0.1027E+02  0.1026E+02
     10.833  0.1166E+01  0.1170E+01  0.1035E+02  0.1035E+02
     10.906  0.1115E+01  0.1118E+01  0.1043E+02  0.1043E+02
     10.978  0.1014E+01  0.1021E+01  0.1050E+02  0.1050E+02
     11.050  0.8632E+00  0.8692E+00  0.1057E+02  0.1057E+02
     11.122  0.1013E+01  0.1018E+01  0.1064E+02  0.1064E+02
     11.194  0.1097E+01  0.1099E+01  0.1072E+02  0.1072E+02
     11.266  0.9059E+00  0.9049E+00  0.1078E+02  0.1078E+02
     11.338  0.7843E+00  0.7910E+00  0.1084E+02  0.1084E+02
     11.410  0.7512E+00  0.7549E+00  0.1090E+02  0.1090E+02
     11.482  0.8022E+00  0.7929E+00  0.1095E+02  0.1095E+02
     11.554  0.9128E+00  0.9014E+00  0.1102E+02  0.1102E+02
     11.626  0.1008E+01  0.1000E+01  0.1109E+02  0.1109E+02
     11.698  0.9540E+00  0.9562E+00  0.1116E+02  0.1116E+02
     11.770  0.8036E+00  0.8066E+00  0.1122E+02  0.1122E+02
     11.842  0.7043E+00  0.7076E+00  0.1127E+02  0.1127E+02
     11.914  0.5241E+00  0.5293E+00  0.1131E+02  0.1131E+02
     11.986  0.3794E+00  0.3810E+00  0.1133E+02  0.1133E+02
     12.059  0.3567E+00  0.3568E+00  0.1136E+02  0.1136E+02
     12.131  0.3442E+00  0.3444E+00  0.1138E+02  0.1138E+02
     12.203  0.3597E+00  0.3586E+00  0.1141E+02  0.1141E+02
     12.275  0.4181E+00  0.4163E+00  0.1144E+02  0.1144E+02
     12.347  0.4464E+00  0.4473E+00  0.1147E+02  0.1147E+02
     12.419  0.3577E+00  0.3599E+00  0.1150E+02  0.1150E+02
     12.491  0.2821E+00  0.2827E+00  0.1152E+02  0.1152E+02
     12.563  0.2621E+00  0.2600E+00  0.1154E+02  0.1154E+02
     12.635  0.3139E+00  0.3071E+00  0.1156E+02  0.1156E+02
     12.707  0.4035E+00  0.3994E+00  0.1159E+02  0.1159E+02
     12.779  0.3707E+00  0.3755E+00  0.1162E+02  0.1162E+02
     12.851  0.3508E+00  0.3544E+00  0.1164E+02  0.1164E+02
     12.923  0.3295E+00  0.3341E+00  0.1167E+02  0.1167E+02
     12.995  0.2496E+00  0.2564E+00  0.1168E+02  0.1168E+02
     13.067  0.1875E+00  0.1964E+00  0.1170E+02  0.1170E+02
     13.139  0.1796E+00  0.1814E+00  0.1171E+02  0.1171E+02
     13.211  0.2057E+00  0.1977E+00  0.1172E+02  0.1173E+02
     13.284  0.2087E+00  0.2022E+00  0.1174E+02  0.1174E+02
     13.356  0.2189E+00  0.2136E+00  0.1176E+02  0.1176E+02
     13.428  0.2186E+00  0.2126E+00  0.1177E+02  0.1177E+02
     13.500  0.1849E+00  0.1846E+00  0.1178E+02  0.1178E+02
     13.572  0.1390E+00  0.1461E+00  0.1179E+02  0.1179E+02
     13.644  0.1514E+00  0.1538E+00  0.1181E+02  0.1181E+02
     13.716  0.2309E+00  0.2302E+00  0.1182E+02  0.1182E+02
     13.788  0.2598E+00  0.2607E+00  0.1184E+02  0.1184E+02
     13.860  0.1835E+00  0.1863E+00  0.1185E+02  0.1185E+02
     13.932  0.7806E-01  0.7981E-01  0.1186E+02  0.1186E+02
     14.004  0.3801E-01  0.3768E-01  0.1186E+02  0.1186E+02
     14.076  0.6741E-01  0.6414E-01  0.1187E+02  0.1187E+02
     14.148  0.1643E+00  0.1568E+00  0.1188E+02  0.1188E+02
     14.220  0.2402E+00  0.2357E+00  0.1190E+02  0.1190E+02
     14.292  0.1767E+00  0.1837E+00  0.1191E+02  0.1191E+02
     14.364  0.7131E-01  0.7781E-01  0.1191E+02  0.1191E+02
     14.436  0.2991E-01  0.3183E-01  0.1192E+02  0.1192E+02
     14.509  0.4555E-01  0.4492E-01  0.1192E+02  0.1192E+02
     14.581  0.1139E+00  0.1120E+00  0.1193E+02  0.1193E+02
     14.653  0.1643E+00  0.1644E+00  0.1194E+02  0.1194E+02
     14.725  0.1115E+00  0.1134E+00  0.1195E+02  0.1195E+02
     14.797  0.4618E-01  0.4733E-01  0.1195E+02  0.1195E+02
     14.869  0.2044E-01  0.2060E-01  0.1195E+02  0.1195E+02
     14.941  0.3092E-01  0.3013E-01  0.1196E+02  0.1196E+02
     15.013  0.7632E-01  0.7485E-01  0.1196E+02  0.1196E+02
     15.085  0.1039E+00  0.1042E+00  0.1197E+02  0.1197E+02
     15.157  0.6029E-01  0.6178E-01  0.1197E+02  0.1197E+02
     15.229  0.1974E-01  0.2043E-01  0.1197E+02  0.1197E+02
     15.301  0.6068E-02  0.6241E-02  0.1197E+02  0.1197E+02
     15.373  0.5480E-02  0.5443E-02  0.1197E+02  0.1197E+02
     15.445  0.1564E-01  0.1537E-01  0.1198E+02  0.1198E+02
     15.517  0.4064E-01  0.4025E-01  0.1198E+02  0.1198E+02
     15.589  0.5106E-01  0.5121E-01  0.1198E+02  0.1198E+02
     15.661  0.2764E-01  0.2799E-01  0.1198E+02  0.1198E+02
     15.734  0.9823E-02  0.9797E-02  0.1199E+02  0.1199E+02
     15.806  0.7419E-02  0.6706E-02  0.1199E+02  0.1199E+02
     15.878  0.1910E-01  0.1659E-01  0.1199E+02  0.1199E+02
     15.950  0.4547E-01  0.4052E-01  0.1199E+02  0.1199E+02
     16.022  0.6062E-01  0.5841E-01  0.1199E+02  0.1199E+02
     16.094  0.4426E-01  0.4890E-01  0.1200E+02  0.1200E+02
     16.166  0.1889E-01  0.2300E-01  0.1200E+02  0.1200E+02
     16.238  0.5532E-02  0.6970E-02  0.1200E+02  0.1200E+02
     16.310  0.1388E-02  0.1764E-02  0.1200E+02  0.1200E+02
     16.382  0.2779E-03  0.3619E-03  0.1200E+02  0.1200E+02
     16.454  0.0000E+00  0.0000E+00  0.1200E+02  0.1200E+02
     16.526  0.0000E+00  0.0000E+00  0.1200E+02  0.1200E+02
     16.598  0.0000E+00  0.0000E+00  0.1200E+02  0.1200E+02
     16.670  0.0000E+00  0.0000E+00  0.1200E+02  0.1200E+02
     16.742  0.0000E+00  0.0000E+00  0.1200E+02  0.1200E+02
     16.814  0.0000E+00  0.0000E+00  0.1200E+02  0.1200E+02
     16.886  0.0000E+00  0.0000E+00  0.1200E+02  0.1200E+02
     16.959  0.0000E+00  0.0000E+00  0.1200E+02  0.1200E+02
     17.031  0.0000E+00  0.0000E+00  0.1200E+02  0.1200E+02
     17.03060885     -4.58723679  301      6.55628297      1.00000000
     -4.587  0.0000E+00  0.0000E+00  0.0000E+00  0.0000E+00  0.0000E+00  0.0000E+00  0.0000E+00  0.0000E+00  0.0000E+00  0.0000E+00  0.0000E+00  0.0000E+00  0.0000E+00  0.0000E+00  0.0000E+00  0.0000E+00  0.0000E+00  0.0000E+00
     -4.515  0.0000E+00  0.0000E+00  0.0000E+00  0.0000E+00  0.0000E+00  0.0000E+00  0.0000E+00  0.0000E+00  0.0000E+00  0.0000E+00  0.0000E+00  0.0000E+00  0.0000E+00  0.0000E+00  0.0000E+00  0.0000E+00  0.0000E+00  0.0000E+00
     -4.443  0.0000E+00  0.0000E+00  0.0000E+00  0.0000E+00  0.0000E+00  0.0000E+00  0.0000E+00  0.0000E+00  0.0000E+00  0.0000E+00  0.0000E+00  0.0000E+00  0.0000E+00  0.0000E+00  0.0000E+00  0.0000E+00  0.0000E+00  0.0000E+00
     -4.371  0.0000E+00  0.0000E+00  0.0000E+00  0.0000E+00  0.0000E+00  0.0000E+00  0.0000E+00  0.0000E+00  0.0000E+00  0.0000E+00  0.0000E+00  0.0000E+00  0.0000E+00  0.0000E+00  0.0000E+00  0.0000E+00  0.0000E+00  0.0000E+00
     -4.299  0.0000E+00  0.0000E+00  0.0000E+00  0.0000E+00  0.0000E+00  0.0000E+00  0.0000E+00  0.0000E+00  0.0000E+00  0.0000E+00  0.0000E+00  0.0000E+00  0.0000E+00  0.0000E+00  0.0000E+00  0.0000E+00  0.0000E+00  0.0000E+00
     -4.227  0.0000E+00  0.0000E+00  0.0000E+00  0.0000E+00  0.0000E+00  0.0000E+00  0.0000E+00  0.0000E+00  0.0000E+00  0.0000E+00  0.0000E+00  0.0000E+00  0.0000E+00  0.0000E+00  0.0000E+00  0.0000E+00  0.0000E+00  0.0000E+00
     -4.155  0.0000E+00  0.0000E+00  0.0000E+00  0.0000E+00  0.0000E+00  0.0000E+00  0.0000E+00  0.0000E+00  0.0000E+00  0.0000E+00  0.0000E+00  0.0000E+00  0.0000E+00  0.0000E+00  0.0000E+00  0.0000E+00  0.0000E+00  0.0000E+00
     -4.083  0.0000E+00  0.0000E+00  0.0000E+00  0.0000E+00  0.0000E+00  0.0000E+00  0.0000E+00  0.0000E+00  0.0000E+00  0.0000E+00  0.0000E+00  0.0000E+00  0.0000E+00  0.0000E+00  0.0000E+00  0.0000E+00  0.0000E+00  0.0000E+00
     -4.011  0.3797E-06  0.3679E-06  0.3120E-09  0.3024E-09  0.3120E-09  0.3024E-09  0.3120E-09  0.3024E-09  0.0000E+00  0.0000E+00  0.0000E+00  0.0000E+00  0.0000E+00  0.0000E+00  0.0000E+00  0.0000E+00  0.0000E+00  0.0000E+00
     -3.939  0.2062E-05  0.1997E-05  0.2995E-08  0.2903E-08  0.2995E-08  0.2903E-08  0.2995E-08  0.2903E-08  0.0000E+00  0.0000E+00  0.0000E+00  0.0000E+00  0.0000E+00  0.0000E+00  0.0000E+00  0.0000E+00  0.0000E+00  0.0000E+00
     -3.867  0.8998E-05  0.8718E-05  0.1502E-07  0.1456E-07  0.1502E-07  0.1456E-07  0.1502E-07  0.1456E-07  0.0000E+00  0.0000E+00  0.0000E+00  0.0000E+00  0.0000E+00  0.0000E+00  0.0000E+00  0.0000E+00  0.0000E+00  0.0000E+00
     -3.795  0.3819E-04  0.3701E-04  0.6845E-07  0.6636E-07  0.6845E-07  0.6636E-07  0.6845E-07  0.6636E-07  0.0000E+00  0.0000E+00  0.0000E+00  0.0000E+00  0.0000E+00  0.0000E+00  0.0000E+00  0.0000E+00  0.0000E+00  0.0000E+00
     -3.723  0.1573E-03  0.1526E-03  0.2938E-06  0.2850E-06  0.2938E-06  0.2850E-06  0.2938E-06  0.2850E-06  0.0000E+00  0.0000E+00  0.0000E+00  0.0000E+00  0.0000E+00  0.0000E+00  0.0000E+00  0.0000E+00  0.0000E+00  0.0000E+00
     -3.650  0.5907E-03  0.5746E-03  0.1164E-05  0.1131E-05  0.1164E-05  0.1131E-05  0.1164E-05  0.1131E-05  0.0000E+00  0.0000E+00  0.0000E+00  0.0000E+00  0.0000E+00  0.0000E+00  0.0000E+00  0.0000E+00  0.0000E+00  0.0000E+00
     -3.578  0.1783E-02  0.1746E-02  0.4110E-05  0.4010E-05  0.4110E-05  0.4010E-05  0.4110E-05  0.4010E-05  0.0000E+00  0.0000E+00  0.0000E+00  0.0000E+00  0.0000E+00  0.0000E+00  0.0000E+00  0.0000E+00  0.0000E+00  0.0000E+00
     -3.506  0.3706E-02  0.3660E-02  0.1107E-04  0.1087E-04  0.1107E-04  0.1087E-04  0.1107E-04  0.1087E-04  0.0000E+00  0.0000E+00  0.0000E+00  0.0000E+00  0.0000E+00  0.0000E+00  0.0000E+00  0.0000E+00  0.0000E+00  0.0000E+00
     -3.434  0.5501E-02  0.5459E-02  0.2324E-04  0.2290E-04  0.2324E-04  0.2290E-04  0.2324E-04  0.2290E-04  0.0000E+00  0.0000E+00  0.0000E+00  0.0000E+00  0.0000E+00  0.0000E+00  0.0000E+00  0.0000E+00  0.0000E+00  0.0000E+00
     -3.362  0.7406E-02  0.7357E-02  0.4250E-04  0.4202E-04  0.4250E-04  0.4202E-04  0.4250E-04  0.4202E-04  0.0000E+00  0.0000E+00  0.0000E+00  0.0000E+00  0.0000E+00  0.0000E+00  0.0000E+00  0.0000E+00  0.0000E+00  0.0000E+00
     -3.290  0.8600E-02  0.8587E-02  0.6081E-04  0.6048E-04  0.6081E-04  0.6048E-04  0.6081E-04  0.6048E-04  0.0000E+00  0.0000E+00  0.0000E+00  0.0000E+00  0.0000E+00  0.0000E+00  0.0000E+00  0.0000E+00  0.0000E+00  0.0000E+00
     -3.218  0.8769E-02  0.8742E-02  0.7888E-04  0.7827E-04  0.7888E-04  0.7827E-04  0.7888E-04  0.7827E-04  0.0000E+00  0.0000E+00  0.0000E+00  0.0000E+00  0.0000E+00  0.0000E+00  0.0000E+00  0.0000E+00  0.0000E+00  0.0000E+00
     -3.146  0.1063E-01  0.1057E-01  0.1164E-03  0.1155E-03  0.1164E-03  0.1155E-03  0.1164E-03  0.1155E-03  0.0000E+00  0.0000E+00  0.0000E+00  0.0000E+00  0.0000E+00  0.0000E+00  0.0000E+00  0.0000E+00  0.0000E+00  0.0000E+00
     -3.074  0.1191E-01  0.1189E-01  0.1481E-03  0.1476E-03  0.1481E-03  0.1476E-03  0.1481E-03  0.1476E-03  0.0000E+00  0.0000E+00  0.0000E+00  0.0000E+00  0.0000E+00  0.0000E+00  0.0000E+00  0.0000E+00  0.0000E+00  0.0000E+00
     -3.002  0.1189E-01  0.1187E-01  0.1692E-03  0.1685E-03  0.1692E-03  0.1685E-03  0.1692E-03  0.1685E-03  0.0000E+00  0.0000E+00  0.0000E+00  0.0000E+00  0.0000E+00  0.0000E+00  0.0000E+00  0.0000E+00  0.0000E+00  0.0000E+00
     -2.930  0.1265E-01  0.1263E-01  0.2036E-03  0.2028E-03  0.2036E-03  0.2028E-03  0.2036E-03  0.2028E-03  0.0000E+00  0.0000E+00  0.0000E+00  0.0000E+00  0.0000E+00  0.0000E+00  0.0000E+00  0.0000E+00  0.0000E+00  0.0000E+00
     -2.858  0.1235E-01  0.1235E-01  0.2204E-03  0.2200E-03  0.2204E-03  0.2200E-03  0.2204E-03  0.2200E-03  0.0000E+00  0.0000E+00  0.0000E+00  0.0000E+00  0.0000E+00  0.0000E+00  0.0000E+00  0.0000E+00  0.0000E+00  0.0000E+00
     -2.786  0.1326E-01  0.1318E-01  0.2678E-03  0.2660E-03  0.2678E-03  0.2660E-03  0.2678E-03  0.2660E-03  0.0000E+00  0.0000E+00  0.0000E+00  0.0000E+00  0.0000E+00  0.0000E+00  0.0000E+00  0.0000E+00  0.0000E+00  0.0000E+00
     -2.714  0.1597E-01  0.1592E-01  0.3498E-03  0.3484E-03  0.3498E-03  0.3484E-03  0.3498E-03  0.3484E-03  0.0000E+00  0.0000E+00  0.0000E+00  0.0000E+00  0.0000E+00  0.0000E+00  0.0000E+00  0.0000E+00  0.0000E+00  0.0000E+00
     -2.642  0.1636E-01  0.1635E-01  0.3844E-03  0.3838E-03  0.3844E-03  0.3838E-03  0.3844E-03  0.3838E-03  0.0000E+00  0.0000E+00  0.0000E+00  0.0000E+00  0.0000E+00  0.0000E+00  0.0000E+00  0.0000E+00  0.0000E+00  0.0000E+00
     -2.570  0.1586E-01  0.1587E-01  0.4001E-03  0.4000E-03  0.4001E-03  0.4000E-03  0.4001E-03  0.4000E-03  0.0000E+00  0.0000E+00  0.0000E+00  0.0000E+00  0.0000E+00  0.0000E+00  0.0000E+00  0.0000E+00  0.0000E+00  0.0000E+00
     -2.498  0.1386E-01  0.1390E-01  0.3750E-03  0.3755E-03  0.3750E-03  0.3755E-03  0.3750E-03  0.3755E-03  0.0000E+00  0.0000E+00  0.0000E+00  0.0000E+00  0.0000E+00  0.0000E+00  0.0000E+00  0.0000E+00  0.0000E+00  0.0000E+00
     -2.425  0.1382E-01  0.1375E-01  0.4112E-03  0.4086E-03  0.4112E-03  0.4086E-03  0.4112E-03  0.4086E-03  0.0000E+00  0.0000E+00  0.0000E+00  0.0000E+00  0.0000E+00  0.0000E+00  0.0000E+00  0.0000E+00  0.0000E+00  0.0000E+00
     -2.353  0.1796E-01  0.1786E-01  0.5718E-03  0.5681E-03  0.5718E-03  0.5681E-03  0.5718E-03  0.5681E-03  0.0000E+00  0.0000E+00  0.0000E+00  0.0000E+00  0.0000E+00  0.0000E+00  0.0000E+00  0.0000E+00  0.0000E+00  0.0000E+00
     -2.281  0.1983E-01  0.1983E-01  0.6600E-03  0.6596E-03  0.6600E-03  0.6596E-03  0.6600E-03  0.6596E-03  0.0000E+00  0.0000E+00  0.0000E+00  0.0000E+00  0.0000E+00  0.0000E+00  0.0000E+00  0.0000E+00  0.0000E+00  0.0000E+00
     -2.209  0.1914E-01  0.1912E-01  0.6731E-03  0.6720E-03  0.6731E-03  0.6720E-03  0.6731E-03  0.6720E-03  0.0000E+00  0.0000E+00  0.0000E+00  0.0000E+00  0.0000E+00  0.0000E+00  0.0000E+00  0.0000E+00  0.0000E+00  0.0000E+00
     -2.137  0.1862E-01  0.1866E-01  0.6874E-03  0.6885E-03  0.6874E-03  0.6885E-03  0.6874E-03  0.6885E-03  0.0000E+00  0.0000E+00  0.0000E+00  0.0000E+00  0.0000E+00  0.0000E+00  0.0000E+00  0.0000E+00  0.0000E+00  0.0000E+00
     -2.065  0.1570E-01  0.1573E-01  0.6118E-03  0.6122E-03  0.6118E-03  0.6122E-03  0.6118E-03  0.6122E-03  0.0000E+00  0.0000E+00  0.0000E+00  0.0000E+00  0.0000E+00  0.0000E+00  0.0000E+00  0.0000E+00  0.0000E+00  0.0000E+00
     -1.993  0.1691E-01  0.1681E-01  0.7038E-03  0.6996E-03  0.7038E-03  0.6996E-03  0.7038E-03  0.6996E-03  0.0000E+00  0.0000E+00  0.0000E+00  0.0000E+00  0.0000E+00  0.0000E+00  0.0000E+00  0.0000E+00  0.0000E+00  0.0000E+00
     -1.921  0.2012E-01  0.2006E-01  0.8741E-03  0.8714E-03  0.8741E-03  0.8714E-03  0.8741E-03  0.8714E-03  0.0000E+00  0.0000E+00  0.0000E+00  0.0000E+00  0.0000E+00  0.0000E+00  0.0000E+00  0.0000E+00  0.0000E+00  0.0000E+00
     -1.849  0.2015E-01  0.2015E-01  0.9119E-03  0.9116E-03  0.9119E-03  0.9116E-03  0.9119E-03  0.9116E-03  0.0000E+00  0.0000E+00  0.0000E+00  0.0000E+00  0.0000E+00  0.0000E+00  0.0000E+00  0.0000E+00  0.0000E+00  0.0000E+00
     -1.777  0.1941E-01  0.1939E-01  0.9213E-03  0.9203E-03  0.9213E-03  0.9203E-03  0.9213E-03  0.9203E-03  0.0000E+00  0.0000E+00  0.0000E+00  0.0000E+00  0.0000E+00  0.0000E+00  0.0000E+00  0.0000E+00  0.0000E+00  0.0000E+00
     -1.705  0.1920E-01  0.1918E-01  0.9549E-03  0.9533E-03  0.9549E-03  0.9533E-03  0.9549E-03  0.9533E-03  0.0000E+00  0.0000E+00  0.0000E+00  0.0000E+00  0.0000E+00  0.0000E+00  0.0000E+00  0.0000E+00  0.0000E+00  0.0000E+00
     -1.633  0.2143E-01  0.2133E-01  0.1116E-02  0.1111E-02  0.1116E-02  0.1111E-02  0.1116E-02  0.1111E-02  0.0000E+00  0.0000E+00  0.0000E+00  0.0000E+00  0.0000E+00  0.0000E+00  0.0000E+00  0.0000E+00  0.0000E+00  0.0000E+00
     -1.561  0.2381E-01  0.2380E-01  0.1277E-02  0.1276E-02  0.1277E-02  0.1276E-02  0.1277E-02  0.1276E-02  0.0000E+00  0.0000E+00  0.0000E+00  0.0000E+00  0.0000E+00  0.0000E+00  0.0000E+00  0.0000E+00  0.0000E+00  0.0000E+00
     -1.489  0.2151E-01  0.2154E-01  0.1193E-02  0.1194E-02  0.1193E-02  0.1194E-02  0.1193E-02  0.1194E-02  0.0000E+00  0.0000E+00  0.0000E+00  0.0000E+00  0.0000E+00  0.0000E+00  0.0000E+00  0.0000E+00  0.0000E+00  0.0000E+00
     -1.417  0.2056E-01  0.2055E-01  0.1186E-02  0.1185E-02  0.1186E-02  0.1185E-02  0.1186E-02  0.1185E-02  0.0000E+00  0.0000E+00  0.0000E+00  0.0000E+00  0.0000E+00  0.0000E+00  0.0000E+00  0.0000E+00  0.0000E+00  0.0000E+00
     -1.345  0.1833E-01  0.1839E-01  0.1093E-02  0.1097E-02  0.1093E-02  0.1097E-02  0.1093E-02  0.1097E-02  0.0000E+00  0.0000E+00  0.0000E+00  0.0000E+00  0.0000E+00  0.0000E+00  0.0000E+00  0.0000E+00  0.0000E+00  0.0000E+00
     -1.273  0.1650E-01  0.1645E-01  0.1034E-02  0.1030E-02  0.1034E-02  0.1030E-02  0.1034E-02  0.1030E-02  0.0000E+00  0.0000E+00  0.0000E+00  0.0000E+00  0.0000E+00  0.0000E+00  0.0000E+00  0.0000E+00  0.0000E+00  0.0000E+00
     -1.200  0.2140E-01  0.2124E-01  0.1398E-02  0.1388E-02  0.1398E-02  0.1388E-02  0.1398E-02  0.1388E-02  0.0000E+00  0.0000E+00  0.0000E+00  0.0000E+00  0.0000E+00  0.0000E+00  0.0000E+00  0.0000E+00  0.0000E+00  0.0000E+00
     -1.128  0.2537E-01  0.2531E-01  0.1702E-02  0.1699E-02  0.1702E-02  0.1699E-02  0.1702E-02  0.1699E-02  0.0000E+00  0.0000E+00  0.0000E+00  0.0000E+00  0.0000E+00  0.0000E+00  0.0000E+00  0.0000E+00  0.0000E+00  0.0000E+00
     -1.056  0.2595E-01  0.2590E-01  0.1798E-02  0.1795E-02  0.1798E-02  0.1795E-02  0.1798E-02  0.1795E-02  0.0000E+00  0.0000E+00  0.0000E+00  0.0000E+00  0.0000E+00  0.0000E+00  0.0000E+00  0.0000E+00  0.0000E+00  0.0000E+00
     -0.984  0.2626E-01  0.2626E-01  0.1870E-02  0.1871E-02  0.1870E-02  0.1871E-02  0.1870E-02  0.1871E-02  0.0000E+00  0.0000E+00  0.0000E+00  0.0000E+00  0.0000E+00  0.0000E+00  0.0000E+00  0.0000E+00  0.0000E+00  0.0000E+00