   4   4   1   0
  0.1551183E+02  0.3958898E-09  0.3958898E-09  0.3958898E-09  0.5000000E-15
  1.000000000000000E-004
  CAR 
 unknown system                          
     20.79803832     -4.03893802  301      8.64003753      1.00000000
     -4.039  0.0000E+00  0.0000E+00  0.0000E+00  0.0000E+00
     -3.956  0.0000E+00  0.0000E+00  0.0000E+00  0.0000E+00
     -3.873  0.0000E+00  0.0000E+00  0.0000E+00  0.0000E+00
     -3.791  0.0000E+00  0.0000E+00  0.0000E+00  0.0000E+00
     -3.708  0.0000E+00  0.0000E+00  0.0000E+00  0.0000E+00
     -3.625  0.0000E+00  0.0000E+00  0.0000E+00  0.0000E+00
     -3.542  0.0000E+00  0.0000E+00  0.0000E+00  0.0000E+00
     -3.459  0.0000E+00  0.0000E+00  0.0000E+00  0.0000E+00
     -3.377  0.4864E-06  0.4660E-06  0.4027E-07  0.3858E-07
     -3.294  0.7060E-05  0.6764E-05  0.6248E-06  0.5986E-06
     -3.211  0.5281E-04  0.5060E-04  0.4997E-05  0.4788E-05
     -3.128  0.2593E-03  0.2485E-03  0.2646E-04  0.2536E-04
     -3.045  0.1365E-02  0.1309E-02  0.1395E-03  0.1337E-03
     -2.963  0.6380E-02  0.6143E-02  0.6677E-03  0.6424E-03
     -2.880  0.2316E-01  0.2252E-01  0.2585E-02  0.2507E-02
     -2.797  0.5272E-01  0.5195E-01  0.6950E-02  0.6808E-02
     -2.714  0.7773E-01  0.7714E-01  0.1339E-01  0.1319E-01
     -2.632  0.1071E+00  0.1063E+00  0.2226E-01  0.2199E-01
     -2.549  0.1259E+00  0.1260E+00  0.3268E-01  0.3242E-01
     -2.466  0.1214E+00  0.1211E+00  0.4274E-01  0.4245E-01
     -2.383  0.1556E+00  0.1545E+00  0.5562E-01  0.5525E-01
     -2.300  0.1764E+00  0.1764E+00  0.7023E-01  0.6986E-01
     -2.218  0.1710E+00  0.1709E+00  0.8440E-01  0.8403E-01
     -2.135  0.1889E+00  0.1884E+00  0.1000E+00  0.9963E-01
     -2.052  0.1785E+00  0.1791E+00  0.1148E+00  0.1145E+00
     -1.969  0.1927E+00  0.1913E+00  0.1308E+00  0.1303E+00
     -1.886  0.2454E+00  0.2448E+00  0.1511E+00  0.1506E+00
     -1.804  0.2467E+00  0.2469E+00  0.1716E+00  0.1710E+00
     -1.721  0.2424E+00  0.2427E+00  0.1917E+00  0.1912E+00
     -1.638  0.2032E+00  0.2044E+00  0.2085E+00  0.2081E+00
     -1.555  0.2009E+00  0.1995E+00  0.2252E+00  0.2246E+00
     -1.472  0.2847E+00  0.2826E+00  0.2487E+00  0.2481E+00
     -1.390  0.3115E+00  0.3121E+00  0.2745E+00  0.2739E+00
     -1.307  0.2950E+00  0.2947E+00  0.2990E+00  0.2983E+00
     -1.224  0.2952E+00  0.2963E+00  0.3234E+00  0.3229E+00
     -1.141  0.2311E+00  0.2321E+00  0.3426E+00  0.3421E+00
     -1.059  0.2652E+00  0.2631E+00  0.3646E+00  0.3639E+00
     -0.976  0.3290E+00  0.3283E+00  0.3918E+00  0.3911E+00
     -0.893  0.3201E+00  0.3207E+00  0.4184E+00  0.4177E+00
     -0.810  0.3091E+00  0.3091E+00  0.4440E+00  0.4433E+00
     -0.727  0.3022E+00  0.3023E+00  0.4690E+00  0.4684E+00
     -0.645  0.3538E+00  0.3513E+00  0.4983E+00  0.4975E+00
     -0.562  0.3983E+00  0.3990E+00  0.5314E+00  0.5306E+00
     -0.479  0.3430E+00  0.3439E+00  0.5598E+00  0.5591E+00
     -0.396  0.3417E+00  0.3416E+00  0.5881E+00  0.5874E+00
     -0.313  0.2927E+00  0.2950E+00  0.6123E+00  0.6118E+00
     -0.231  0.2592E+00  0.2578E+00  0.6339E+00  0.6332E+00
     -0.148  0.3781E+00  0.3748E+00  0.6652E+00  0.6643E+00
     -0.065  0.4377E+00  0.4377E+00  0.7014E+00  0.7005E+00
      0.018  0.4433E+00  0.4425E+00  0.7382E+00  0.7372E+00
      0.101  0.4539E+00  0.4551E+00  0.7758E+00  0.7749E+00
      0.183  0.3715E+00  0.3733E+00  0.8065E+00  0.8058E+00
      0.266  0.3449E+00  0.3449E+00  0.8351E+00  0.8344E+00
      0.349  0.3514E+00  0.3511E+00  0.8643E+00  0.8635E+00
      0.432  0.3719E+00  0.3709E+00  0.8951E+00  0.8943E+00
      0.515  0.4223E+00  0.4218E+00  0.9301E+00  0.9292E+00
      0.597  0.3758E+00  0.3772E+00  0.9612E+00  0.9605E+00
      0.680  0.4209E+00  0.4175E+00  0.9961E+00  0.9951E+00
      0.763  0.5132E+00  0.5130E+00  0.1039E+01  0.1038E+01
      0.846  0.4822E+00  0.4828E+00  0.1079E+01  0.1078E+01
      0.928  0.4638E+00  0.4650E+00  0.1117E+01  0.1116E+01
      1.011  0.3683E+00  0.3706E+00  0.1148E+01  0.1147E+01
      1.094  0.3771E+00  0.3742E+00  0.1179E+01  0.1178E+01
      1.177  0.5162E+00  0.5134E+00  0.1222E+01  0.1220E+01
      1.260  0.5252E+00  0.5267E+00  0.1265E+01  0.1264E+01
      1.342  0.4707E+00  0.4719E+00  0.1304E+01  0.1303E+01
      1.425  0.3874E+00  0.3900E+00  0.1336E+01  0.1335E+01
      1.508  0.3659E+00  0.3643E+00  0.1366E+01  0.1366E+01
      1.591  0.4797E+00  0.4774E+00  0.1406E+01  0.1405E+01
      1.674  0.5117E+00  0.5118E+00  0.1449E+01  0.1448E+01
      1.756  0.5104E+00  0.5100E+00  0.1491E+01  0.1490E+01
      1.839  0.5153E+00  0.5159E+00  0.1534E+01  0.1533E+01
      1.922  0.5050E+00  0.5033E+00  0.1575E+01  0.1574E+01
      2.005  0.6524E+00  0.6490E+00  0.1629E+01  0.1628E+01
      2.088  0.6150E+00  0.6198E+00  0.1680E+01  0.1679E+01
      2.170  0.4241E+00  0.4269E+00  0.1716E+01  0.1715E+01
      2.253  0.3949E+00  0.3951E+00  0.1748E+01  0.1747E+01
      2.336  0.3575E+00  0.3582E+00  0.1778E+01  0.1777E+01
      2.419  0.4273E+00  0.4234E+00  0.1813E+01  0.1812E+01
      2.501  0.5813E+00  0.5786E+00  0.1861E+01  0.1860E+01
      2.584  0.6463E+00  0.6451E+00  0.1915E+01  0.1914E+01
      2.667  0.6439E+00  0.6462E+00  0.1968E+01  0.1967E+01
      2.750  0.5190E+00  0.5208E+00  0.2011E+01  0.2010E+01
      2.833  0.5582E+00  0.5560E+00  0.2058E+01  0.2056E+01
      2.915  0.5978E+00  0.5982E+00  0.2107E+01  0.2106E+01
      2.998  0.5673E+00  0.5677E+00  0.2154E+01  0.2153E+01
      3.081  0.5865E+00  0.5861E+00  0.2203E+01  0.2202E+01
      3.164  0.5094E+00  0.5130E+00  0.2245E+01  0.2244E+01
      3.247  0.4570E+00  0.4550E+00  0.2283E+01  0.2282E+01
      3.329  0.5820E+00  0.5795E+00  0.2331E+01  0.2330E+01
      3.412  0.6357E+00  0.6349E+00  0.2384E+01  0.2382E+01
      3.495  0.6452E+00  0.6466E+00  0.2437E+01  0.2436E+01
      3.578  0.5369E+00  0.5399E+00  0.2482E+01  0.2481E+01
      3.661  0.5263E+00  0.5240E+00  0.2525E+01  0.2524E+01
      3.743  0.6287E+00  0.6276E+00  0.2577E+01  0.2576E+01
      3.826  0.6117E+00  0.6121E+00  0.2628E+01  0.2627E+01
      3.909  0.6742E+00  0.6723E+00  0.2684E+01  0.2683E+01
      3.992  0.6369E+00  0.6401E+00  0.2737E+01  0.2736E+01
      4.074  0.5753E+00  0.5740E+00  0.2784E+01  0.2783E+01
      4.157  0.6684E+00  0.6668E+00  0.2840E+01  0.2838E+01
      4.240  0.6794E+00  0.6802E+00  0.2896E+01  0.2895E+01
      4.323  0.6319E+00  0.6329E+00  0.2948E+01  0.2947E+01
      4.406  0.5827E+00  0.5839E+00  0.2997E+01  0.2996E+01
      4.488  0.5666E+00  0.5651E+00  0.3044E+01  0.3042E+01
      4.571  0.6566E+00  0.6551E+00  0.3098E+01  0.3097E+01
      4.654  0.6724E+00  0.6731E+00  0.3154E+01  0.3152E+01
      4.737  0.5716E+00  0.5759E+00  0.3201E+01  0.3200E+01
      4.820  0.4270E+00  0.4278E+00  0.3236E+01  0.3236E+01
      4.902  0.5576E+00  0.5523E+00  0.3283E+01  0.3281E+01
      4.985  0.7732E+00  0.7695E+00  0.3347E+01  0.3345E+01
      5.068  0.8353E+00  0.8362E+00  0.3416E+01  0.3414E+01
      5.151  0.7847E+00  0.7856E+00  0.3481E+01  0.3479E+01
      5.234  0.7521E+00  0.7531E+00  0.3543E+01  0.3542E+01
      5.316  0.7210E+00  0.7214E+00  0.3603E+01  0.3602E+01
      5.399  0.7112E+00  0.7111E+00  0.3662E+01  0.3661E+01
      5.482  0.6802E+00  0.6811E+00  0.3718E+01  0.3717E+01
      5.565  0.6223E+00  0.6245E+00  0.3770E+01  0.3769E+01
      5.647  0.5909E+00  0.5910E+00  0.3819E+01  0.3818E+01
      5.730  0.6718E+00  0.6698E+00  0.3874E+01  0.3873E+01
      5.813  0.7559E+00  0.7533E+00  0.3937E+01  0.3936E+01
      5.896  0.8227E+00  0.8230E+00  0.4005E+01  0.4004E+01
      5.979  0.7188E+00  0.7210E+00  0.4065E+01  0.4064E+01
      6.061  0.7467E+00  0.7442E+00  0.4127E+01  0.4125E+01
      6.144  0.8327E+00  0.8331E+00  0.4196E+01  0.4194E+01
      6.227  0.7628E+00  0.7640E+00  0.4259E+01  0.4258E+01
      6.310  0.7104E+00  0.7118E+00  0.4318E+01  0.4317E+01
      6.393  0.6324E+00  0.6331E+00  0.4370E+01  0.4369E+01
      6.475  0.6582E+00  0.6577E+00  0.4425E+01  0.4424E+01
      6.558  0.6139E+00  0.6166E+00  0.4476E+01  0.4475E+01
      6.641  0.5566E+00  0.5561E+00  0.4522E+01  0.4521E+01
      6.724  0.6295E+00  0.6276E+00  0.4574E+01  0.4573E+01
      6.807  0.6755E+00  0.6745E+00  0.4630E+01  0.4629E+01
      6.889  0.7742E+00  0.7721E+00  0.4694E+01  0.4693E+01
      6.972  0.8052E+00  0.8064E+00  0.4761E+01  0.4759E+01
      7.055  0.7376E+00  0.7362E+00  0.4822E+01  0.4820E+01
      7.138  0.7511E+00  0.7517E+00  0.4884E+01  0.4883E+01
      7.220  0.6666E+00  0.6678E+00  0.4939E+01  0.4938E+01
      7.303  0.6645E+00  0.6645E+00  0.4994E+01  0.4993E+01
      7.386  0.6434E+00  0.6450E+00  0.5048E+01  0.5046E+01
      7.469  0.7120E+00  0.7081E+00  0.5107E+01  0.5105E+01
      7.552  0.8680E+00  0.8651E+00  0.5179E+01  0.5177E+01
      7.634  0.8074E+00  0.8118E+00  0.5245E+01  0.5244E+01
      7.717  0.6308E+00  0.6339E+00  0.5298E+01  0.5297E+01
      7.800  0.6057E+00  0.6035E+00  0.5348E+01  0.5347E+01
      7.883  0.7508E+00  0.7476E+00  0.5410E+01  0.5409E+01
      7.966  0.7248E+00  0.7273E+00  0.5470E+01  0.5469E+01
      8.048  0.6583E+00  0.6583E+00  0.5525E+01  0.5523E+01
      8.131  0.8103E+00  0.8057E+00  0.5592E+01  0.5590E+01
      8.214  0.8983E+00  0.8999E+00  0.5666E+01  0.5665E+01
      8.297  0.8124E+00  0.8110E+00  0.5734E+01  0.5732E+01
      8.380  0.8803E+00  0.8769E+00  0.5807E+01  0.5805E+01
      8.462  0.8042E+00  0.8080E+00  0.5873E+01  0.5871E+01
      8.545  0.6832E+00  0.6853E+00  0.5930E+01  0.5928E+01
      8.628  0.7413E+00  0.7393E+00  0.5991E+01  0.5990E+01
      8.711  0.7805E+00  0.7818E+00  0.6056E+01  0.6054E+01
      8.793  0.6303E+00  0.6360E+00  0.6108E+01  0.6107E+01
      8.876  0.5202E+00  0.5201E+00  0.6151E+01  0.6150E+01
      8.959  0.6292E+00  0.6242E+00  0.6203E+01  0.6202E+01
      9.042  0.7320E+00  0.7295E+00  0.6264E+01  0.6262E+01
      9.125  0.7927E+00  0.7904E+00  0.6330E+01  0.6328E+01
      9.207  0.9310E+00  0.9269E+00  0.6407E+01  0.6405E+01
      9.290  0.1061E+01  0.1058E+01  0.6495E+01  0.6492E+01
      9.373  0.1029E+01  0.1032E+01  0.6580E+01  0.6578E+01
      9.456  0.8735E+00  0.8775E+00  0.6652E+01  0.6651E+01
      9.539  0.7414E+00  0.7428E+00  0.6714E+01  0.6712E+01
      9.621  0.7133E+00  0.7135E+00  0.6773E+01  0.6771E+01
      9.704  0.8264E+00  0.8230E+00  0.6841E+01  0.6839E+01
      9.787  0.9201E+00  0.9204E+00  0.6918E+01  0.6916E+01
      9.870  0.7632E+00  0.7701E+00  0.6981E+01  0.6979E+01
      9.953  0.6102E+00  0.6121E+00  0.7031E+01  0.7030E+01
     10.035  0.6736E+00  0.6688E+00  0.7087E+01  0.7086E+01
     10.118  0.8488E+00  0.8426E+00  0.7158E+01  0.7155E+01
     10.201  0.9564E+00  0.9554E+00  0.7237E+01  0.7235E+01
     10.284  0.8964E+00  0.8974E+00  0.7311E+01  0.7309E+01
     10.367  0.9457E+00  0.9444E+00  0.7389E+01  0.7387E+01
     10.449  0.8761E+00  0.8797E+00  0.7462E+01  0.7460E+01
     10.532  0.7376E+00  0.7402E+00  0.7523E+01  0.7521E+01
     10.615  0.6792E+00  0.6809E+00  0.7579E+01  0.7578E+01
     10.698  0.7458E+00  0.7430E+00  0.7641E+01  0.7639E+01
     10.780  0.8551E+00  0.8527E+00  0.7712E+01  0.7710E+01
     10.863  0.8417E+00  0.8398E+00  0.7782E+01  0.7780E+01
     10.946  0.8218E+00  0.8209E+00  0.7850E+01  0.7848E+01
     11.029  0.8229E+00  0.8242E+00  0.7918E+01  0.7916E+01
     11.112  0.8757E+00  0.8766E+00  0.7991E+01  0.7989E+01
     11.194  0.9086E+00  0.9089E+00  0.8066E+01  0.8064E+01
     11.277  0.9264E+00  0.9250E+00  0.8143E+01  0.8141E+01
     11.360  0.9218E+00  0.9224E+00  0.8219E+01  0.8217E+01
     11.443  0.8575E+00  0.8565E+00  0.8290E+01  0.8288E+01
     11.526  0.9738E+00  0.9664E+00  0.8371E+01  0.8368E+01
     11.608  0.1061E+01  0.1060E+01  0.8459E+01  0.8456E+01
     11.691  0.9911E+00  0.9953E+00  0.8541E+01  0.8538E+01
     11.774  0.8947E+00  0.8978E+00  0.8615E+01  0.8613E+01
     11.857  0.8878E+00  0.8906E+00  0.8689E+01  0.8686E+01
     11.940  0.7152E+00  0.7222E+00  0.8748E+01  0.8746E+01
     12.022  0.6603E+00  0.6585E+00  0.8803E+01  0.8801E+01
     12.105  0.7535E+00  0.7492E+00  0.8865E+01  0.8863E+01
     12.188  0.8574E+00  0.8567E+00  0.8936E+01  0.8934E+01
     12.271  0.9741E+00  0.9700E+00  0.9017E+01  0.9014E+01
     12.353  0.1033E+01  0.1028E+01  0.9102E+01  0.9100E+01
     12.436  0.9721E+00  0.9720E+00  0.9183E+01  0.9180E+01
     12.519  0.9489E+00  0.9488E+00  0.9262E+01  0.9259E+01
     12.602  0.1016E+01  0.1014E+01  0.9346E+01  0.9343E+01
     12.685  0.9926E+00  0.9967E+00  0.9428E+01  0.9425E+01
     12.767  0.7958E+00  0.8033E+00  0.9494E+01  0.9492E+01
     12.850  0.7137E+00  0.7124E+00  0.9553E+01  0.9551E+01
     12.933  0.8376E+00  0.8340E+00  0.9622E+01  0.9620E+01
     13.016  0.1048E+01  0.1039E+01  0.9709E+01  0.9706E+01
     13.099  0.1256E+01  0.1255E+01  0.9813E+01  0.9810E+01
     13.181  0.1185E+01  0.1188E+01  0.9911E+01  0.9908E+01
     13.264  0.1076E+01  0.1078E+01  0.1000E+02  0.9998E+01
     13.347  0.9643E+00  0.9657E+00  0.1008E+02  0.1008E+02
     13.430  0.9022E+00  0.9053E+00  0.1016E+02  0.1015E+02
     13.513  0.7885E+00  0.7901E+00  0.1022E+02  0.1022E+02
     13.595  0.9209E+00  0.9130E+00  0.1030E+02  0.1029E+02
     13.678  0.9731E+00  0.9749E+00  0.1038E+02  0.1037E+02
     13.761  0.8345E+00  0.8368E+00  0.1045E+02  0.1044E+02
     13.844  0.8478E+00  0.8471E+00  0.1052E+02  0.1051E+02
     13.926  0.7920E+00  0.7993E+00  0.1058E+02  0.1058E+02
     14.009  0.7672E+00  0.7702E+00  0.1065E+02  0.1064E+02
     14.092  0.9096E+00  0.9057E+00  0.1072E+02  0.1072E+02
     14.175  0.1124E+01  0.1121E+01  0.1081E+02  0.1081E+02
     14.258  0.1048E+01  0.1051E+01  0.1090E+02  0.1090E+02
     14.340  0.8304E+00  0.8370E+00  0.1097E+02  0.1097E+02
     14.423  0.6225E+00  0.6303E+00  0.1102E+02  0.1102E+02
     14.506  0.6315E+00  0.6345E+00  0.1107E+02  0.1107E+02
     14.589  0.7116E+00  0.7051E+00  0.1113E+02  0.1113E+02
     14.672  0.7867E+00  0.7772E+00  0.1120E+02  0.1120E+02
     14.754  0.7777E+00  0.7805E+00  0.1126E+02  0.1126E+02
     14.837  0.5328E+00  0.5429E+00  0.1131E+02  0.1131E+02
     14.920  0.2549E+00  0.2620E+00  0.1133E+02  0.1133E+02
     15.003  0.1316E+00  0.1325E+00  0.1134E+02  0.1134E+02
     15.086  0.2136E+00  0.2055E+00  0.1136E+02  0.1136E+02
     15.168  0.4707E+00  0.4606E+00  0.1140E+02  0.1139E+02
     15.251  0.5515E+00  0.5483E+00  0.1144E+02  0.1144E+02
     15.334  0.4569E+00  0.4521E+00  0.1148E+02  0.1148E+02
     15.417  0.3355E+00  0.3238E+00  0.1151E+02  0.1150E+02
     15.499  0.2370E+00  0.2283E+00  0.1153E+02  0.1152E+02
     15.582  0.2234E+00  0.2457E+00  0.1155E+02  0.1154E+02
     15.665  0.2834E+00  0.2974E+00  0.1157E+02  0.1157E+02
     15.748  0.2633E+00  0.2692E+00  0.1159E+02  0.1159E+02
     15.831  0.2128E+00  0.2114E+00  0.1161E+02  0.1161E+02
     15.913  0.2488E+00  0.2371E+00  0.1163E+02  0.1163E+02
     15.996  0.3073E+00  0.2941E+00  0.1165E+02  0.1165E+02
     16.079  0.2830E+00  0.2861E+00  0.1168E+02  0.1168E+02
     16.162  0.1858E+00  0.1999E+00  0.1169E+02  0.1169E+02
     16.245  0.2086E+00  0.2148E+00  0.1171E+02  0.1171E+02
     16.327  0.2609E+00  0.2643E+00  0.1173E+02  0.1173E+02
     16.410  0.1991E+00  0.2012E+00  0.1175E+02  0.1175E+02
     16.493  0.1254E+00  0.1211E+00  0.1176E+02  0.1176E+02
     16.576  0.1186E+00  0.9489E-01  0.1177E+02  0.1177E+02
     16.659  0.1650E+00  0.1465E+00  0.1178E+02  0.1178E+02
     16.741  0.1221E+00  0.1487E+00  0.1179E+02  0.1179E+02
     16.824  0.1267E+00  0.1424E+00  0.1180E+02  0.1180E+02
     16.907  0.1802E+00  0.1845E+00  0.1182E+02  0.1182E+02
     16.990  0.1377E+00  0.1402E+00  0.1183E+02  0.1183E+02
     17.072  0.1417E+00  0.1396E+00  0.1184E+02  0.1184E+02
     17.155  0.1587E+00  0.1606E+00  0.1185E+02  0.1185E+02
     17.238  0.8885E-01  0.9204E-01  0.1186E+02  0.1186E+02
     17.321  0.8847E-01  0.9061E-01  0.1187E+02  0.1187E+02
     17.404  0.1512E+00  0.1632E+00  0.1188E+02  0.1188E+02
     17.486  0.1857E+00  0.2019E+00  0.1190E+02  0.1190E+02
     17.569  0.1556E+00  0.1433E+00  0.1191E+02  0.1191E+02
     17.652  0.5993E-01  0.4766E-01  0.1191E+02  0.1192E+02
     17.735  0.1727E-01  0.1369E-01  0.1192E+02  0.1192E+02
     17.818  0.1954E-01  0.1798E-01  0.1192E+02  0.1192E+02
     17.900  0.5874E-01  0.5641E-01  0.1192E+02  0.1192E+02
     17.983  0.1144E+00  0.1128E+00  0.1193E+02  0.1193E+02
     18.066  0.1345E+00  0.1352E+00  0.1194E+02  0.1194E+02
     18.149  0.7966E-01  0.8195E-01  0.1195E+02  0.1195E+02
     18.232  0.2882E-01  0.2984E-01  0.1195E+02  0.1195E+02
     18.314  0.2278E-01  0.2233E-01  0.1195E+02  0.1195E+02
     18.397  0.6372E-01  0.6142E-01  0.1196E+02  0.1196E+02
     18.480  0.1034E+00  0.1035E+00  0.1197E+02  0.1197E+02
     18.563  0.5725E-01  0.5959E-01  0.1197E+02  0.1197E+02
     18.646  0.1517E-01  0.1606E-01  0.1197E+02  0.1197E+02
     18.728  0.3198E-02  0.3361E-02  0.1197E+02  0.1197E+02
     18.811  0.1070E-02  0.9177E-03  0.1197E+02  0.1197E+02
     18.894  0.2397E-02  0.1429E-02  0.1197E+02  0.1197E+02
     18.977  0.1125E-01  0.7006E-02  0.1198E+02  0.1198E+02
     19.059  0.3692E-01  0.2709E-01  0.1198E+02  0.1198E+02
     19.142  0.5026E-01  0.5147E-01  0.1198E+02  0.1198E+02
     19.225  0.2358E-01  0.3309E-01  0.1198E+02  0.1198E+02
     19.308  0.6677E-02  0.1023E-01  0.1199E+02  0.1199E+02
     19.391  0.5760E-02  0.6478E-02  0.1199E+02  0.1199E+02
     19.473  0.1916E-01  0.1967E-01  0.1199E+02  0.1199E+02
     19.556  0.4477E-01  0.4882E-01  0.1199E+02  0.1199E+02
     19.639  0.5209E-01  0.5365E-01  0.1200E+02  0.1200E+02
     19.722  0.3667E-01  0.3269E-01  0.1200E+02  0.1200E+02
     19.805  0.1371E-01  0.1221E-01  0.1200E+02  0.1200E+02
     19.887  0.3211E-02  0.2904E-02  0.1200E+02  0.1200E+02
     19.970  0.5851E-03  0.5168E-03  0.1200E+02  0.1200E+02
     20.053  0.8103E-04  0.8612E-04  0.1200E+02  0.1200E+02
     20.136  0.0000E+00  0.0000E+00  0.1200E+02  0.1200E+02
     20.219  0.0000E+00  0.0000E+00  0.1200E+02  0.1200E+02
     20.301  0.0000E+00  0.0000E+00  0.1200E+02  0.1200E+02
     20.384  0.0000E+00  0.0000E+00  0.1200E+02  0.1200E+02
     20.467  0.0000E+00  0.0000E+00  0.1200E+02  0.1200E+02
     20.550  0.0000E+00  0.0000E+00  0.1200E+02  0.1200E+02
     20.632  0.0000E+00  0.0000E+00  0.1200E+02  0.1200E+02
     20.715  0.0000E+00  0.0000E+00  0.1200E+02  0.1200E+02
     20.798  0.0000E+00  0.0000E+00  0.1200E+02  0.1200E+02
     20.79803832     -4.03893802  301      8.64003753      1.00000000
     -4.039  0.0000E+00  0.0000E+00  0.0000E+00  0.0000E+00  0.0000E+00  0.0000E+00  0.0000E+00  0.0000E+00  0.0000E+00  0.0000E+00  0.0000E+00  0.0000E+00  0.0000E+00  0.0000E+00  0.0000E+00  0.0000E+00  0.0000E+00  0.0000E+00
     -3.956  0.0000E+00  0.0000E+00  0.0000E+00  0.0000E+00  0.0000E+00  0.0000E+00  0.0000E+00  0.0000E+00  0.0000E+00  0.0000E+00  0.0000E+00  0.0000E+00  0.0000E+00  0.0000E+00  0.0000E+00  0.0000E+00  0.0000E+00  0.0000E+00
     -3.873  0.0000E+00  0.0000E+00  0.0000E+00  0.0000E+00  0.0000E+00  0.0000E+00  0.0000E+00  0.0000E+00  0.0000E+00  0.0000E+00  0.0000E+00  0.0000E+00  0.0000E+00  0.0000E+00  0.0000E+00  0.0000E+00  0.0000E+00  0.0000E+00
     -3.791  0.0000E+00  0.0000E+00  0.0000E+00  0.0000E+00  0.0000E+00  0.0000E+00  0.0000E+00  0.0000E+00  0.0000E+00  0.0000E+00  0.0000E+00  0.0000E+00  0.0000E+00  0.0000E+00  0.0000E+00  0.0000E+00  0.0000E+00  0.0000E+00
     -3.708  0.0000E+00  0.0000E+00  0.0000E+00  0.0000E+00  0.0000E+00  0.0000E+00  0.0000E+00  0.0000E+00  0.0000E+00  0.0000E+00  0.0000E+00  0.0000E+00  0.0000E+00  0.0000E+00  0.0000E+00  0.0000E+00  0.0000E+00  0.0000E+00
     -3.625  0.0000E+00  0.0000E+00  0.0000E+00  0.0000E+00  0.0000E+00  0.0000E+00  0.0000E+00  0.0000E+00  0.0000E+00  0.0000E+00  0.0000E+00  0.0000E+00  0.0000E+00  0.0000E+00  0.0000E+00  0.0000E+00  0.0000E+00  0.0000E+00
     -3.542  0.0000E+00  0.0000E+00  0.0000E+00  0.0000E+00  0.0000E+00  0.0000E+00  0.0000E+00  0.0000E+00  0.0000E+00  0.0000E+00  0.0000E+00  0.0000E+00  0.0000E+00  0.0000E+00  0.0000E+00  0.0000E+00  0.0000E+00  0.0000E+00
     -3.459  0.0000E+00  0.0000E+00  0.0000E+00  0.0000E+00  0.0000E+00  0.0000E+00  0.0000E+00  0.0000E+00  0.0000E+00  0.0000E+00  0.0000E+00  0.0000E+00  0.0000E+00  0.0000E+00  0.0000E+00  0.0000E+00  0.0000E+00  0.0000E+00
     -3.377  0.3422E-07  0.3276E-07  0.1055E-25  0.2717E-23  0.1055E-25  0.2717E-23  0.1055E-25  0.2717E-23  0.0000E+00  0.0000E+00  0.0000E+00  0.0000E+00  0.0000E+00  0.0000E+00  0.0000E+00  0.0000E+00  0.0000E+00  0.0000E+00
     -3.294  0.4952E-06  0.4740E-06  0.5015E-09  0.4803E-09  0.5015E-09  0.4803E-09  0.5015E-09  0.4803E-09  0.0000E+00  0.0000E+00  0.0000E+00  0.0000E+00  0.0000E+00  0.0000E+00  0.0000E+00  0.0000E+00  0.0000E+00  0.0000E+00
     -3.211  0.3696E-05  0.3538E-05  0.6676E-08  0.6394E-08  0.6676E-08  0.6394E-08  0.6676E-08  0.6394E-08  0.0000E+00  0.0000E+00  0.0000E+00  0.0000E+00  0.0000E+00  0.0000E+00  0.0000E+00  0.0000E+00  0.0000E+00  0.0000E+00
     -3.128  0.1815E-04  0.1737E-04  0.3227E-07  0.3091E-07  0.3227E-07  0.3091E-07  0.3227E-07  0.3091E-07  0.0000E+00  0.0000E+00  0.0000E+00  0.0000E+00  0.0000E+00  0.0000E+00  0.0000E+00  0.0000E+00  0.0000E+00  0.0000E+00
     -3.045  0.9547E-04  0.9149E-04  0.1882E-06  0.1804E-06  0.1882E-06  0.1804E-06  0.1882E-06  0.1804E-06  0.0000E+00  0.0000E+00  0.0000E+00  0.0000E+00  0.0000E+00  0.0000E+00  0.0000E+00  0.0000E+00  0.0000E+00  0.0000E+00
     -2.963  0.4461E-03  0.4292E-03  0.9181E-06  0.8814E-06  0.9181E-06  0.8814E-06  0.9181E-06  0.8814E-06  0.0000E+00  0.0000E+00  0.0000E+00  0.0000E+00  0.0000E+00  0.0000E+00  0.0000E+00  0.0000E+00  0.0000E+00  0.0000E+00
     -2.880  0.1618E-02  0.1572E-02  0.3965E-05  0.3831E-05  0.3965E-05  0.3831E-05  0.3965E-05  0.3831E-05  0.0000E+00  0.0000E+00  0.0000E+00  0.0000E+00  0.0000E+00  0.0000E+00  0.0000E+00  0.0000E+00  0.0000E+00  0.0000E+00
     -2.797  0.3674E-02  0.3617E-02  0.1204E-04  0.1176E-04  0.1204E-04  0.1176E-04  0.1204E-04  0.1176E-04  0.0000E+00  0.0000E+00  0.0000E+00  0.0000E+00  0.0000E+00  0.0000E+00  0.0000E+00  0.0000E+00  0.0000E+00  0.0000E+00
     -2.714  0.5391E-02  0.5346E-02  0.2612E-04  0.2564E-04  0.2612E-04  0.2564E-04  0.2612E-04  0.2564E-04  0.0000E+00  0.0000E+00  0.0000E+00  0.0000E+00  0.0000E+00  0.0000E+00  0.0000E+00  0.0000E+00  0.0000E+00  0.0000E+00
     -2.632  0.7387E-02  0.7321E-02  0.5059E-04  0.4984E-04  0.5059E-04  0.4984E-04  0.5059E-04  0.4984E-04  0.0000E+00  0.0000E+00  0.0000E+00  0.0000E+00  0.0000E+00  0.0000E+00  0.0000E+00  0.0000E+00  0.0000E+00  0.0000E+00
     -2.549  0.8644E-02  0.8641E-02  0.7263E-04  0.7227E-04  0.7263E-04  0.7227E-04  0.7263E-04  0.7227E-04  0.0000E+00  0.0000E+00  0.0000E+00  0.0000E+00  0.0000E+00  0.0000E+00  0.0000E+00  0.0000E+00  0.0000E+00  0.0000E+00
     -2.466  0.8277E-02  0.8251E-02  0.8956E-04  0.8869E-04  0.8956E-04  0.8869E-04  0.8956E-04  0.8869E-04  0.0000E+00  0.0000E+00  0.0000E+00  0.0000E+00  0.0000E+00  0.0000E+00  0.0000E+00  0.0000E+00  0.0000E+00  0.0000E+00
     -2.383  0.1053E-01  0.1045E-01  0.1400E-03  0.1385E-03  0.1400E-03  0.1385E-03  0.1400E-03  0.1385E-03  0.0000E+00  0.0000E+00  0.0000E+00  0.0000E+00  0.0000E+00  0.0000E+00  0.0000E+00  0.0000E+00  0.0000E+00  0.0000E+00
     -2.300  0.1188E-01  0.1187E-01  0.1786E-03  0.1780E-03  0.1786E-03  0.1780E-03  0.1786E-03  0.1780E-03  0.0000E+00  0.0000E+00  0.0000E+00  0.0000E+00  0.0000E+00  0.0000E+00  0.0000E+00  0.0000E+00  0.0000E+00  0.0000E+00
     -2.218  0.1144E-01  0.1142E-01  0.1980E-03  0.1971E-03  0.1980E-03  0.1971E-03  0.1980E-03  0.1971E-03  0.0000E+00  0.0000E+00  0.0000E+00  0.0000E+00  0.0000E+00  0.0000E+00  0.0000E+00  0.0000E+00  0.0000E+00  0.0000E+00
     -2.135  0.1255E-01  0.1251E-01  0.2466E-03  0.2453E-03  0.2466E-03  0.2453E-03  0.2466E-03  0.2453E-03  0.0000E+00  0.0000E+00  0.0000E+00  0.0000E+00  0.0000E+00  0.0000E+00  0.0000E+00  0.0000E+00  0.0000E+00  0.0000E+00
     -2.052  0.1179E-01  0.1182E-01  0.2554E-03  0.2554E-03  0.2554E-03  0.2554E-03  0.2554E-03  0.2554E-03  0.0000E+00  0.0000E+00  0.0000E+00  0.0000E+00  0.0000E+00  0.0000E+00  0.0000E+00  0.0000E+00  0.0000E+00  0.0000E+00
     -1.969  0.1262E-01  0.1251E-01  0.3126E-03  0.3093E-03  0.3126E-03  0.3093E-03  0.3126E-03  0.3093E-03  0.0000E+00  0.0000E+00  0.0000E+00  0.0000E+00  0.0000E+00  0.0000E+00  0.0000E+00  0.0000E+00  0.0000E+00  0.0000E+00
     -1.886  0.1598E-01  0.1592E-01  0.4278E-03  0.4258E-03  0.4278E-03  0.4258E-03  0.4278E-03  0.4258E-03  0.0000E+00  0.0000E+00  0.0000E+00  0.0000E+00  0.0000E+00  0.0000E+00  0.0000E+00  0.0000E+00  0.0000E+00  0.0000E+00
     -1.804  0.1597E-01  0.1597E-01  0.4600E-03  0.4592E-03  0.4600E-03  0.4592E-03  0.4600E-03  0.4592E-03  0.0000E+00  0.0000E+00  0.0000E+00  0.0000E+00  0.0000E+00  0.0000E+00  0.0000E+00  0.0000E+00  0.0000E+00  0.0000E+00
     -1.721  0.1559E-01  0.1560E-01  0.4837E-03  0.4836E-03  0.4837E-03  0.4836E-03  0.4837E-03  0.4836E-03  0.0000E+00  0.0000E+00  0.0000E+00  0.0000E+00  0.0000E+00  0.0000E+00  0.0000E+00  0.0000E+00  0.0000E+00  0.0000E+00
     -1.638  0.1299E-01  0.1306E-01  0.4311E-03  0.4327E-03  0.4311E-03  0.4327E-03  0.4311E-03  0.4327E-03  0.0000E+00  0.0000E+00  0.0000E+00  0.0000E+00  0.0000E+00  0.0000E+00  0.0000E+00  0.0000E+00  0.0000E+00  0.0000E+00
     -1.555  0.1272E-01  0.1262E-01  0.4674E-03  0.4630E-03  0.4674E-03  0.4630E-03  0.4674E-03  0.4630E-03  0.0000E+00  0.0000E+00  0.0000E+00  0.0000E+00  0.0000E+00  0.0000E+00  0.0000E+00  0.0000E+00  0.0000E+00  0.0000E+00
     -1.472  0.1790E-01  0.1775E-01  0.7027E-03  0.6965E-03  0.7027E-03  0.6965E-03  0.7027E-03  0.6965E-03  0.0000E+00  0.0000E+00  0.0000E+00  0.0000E+00  0.0000E+00  0.0000E+00  0.0000E+00  0.0000E+00  0.0000E+00  0.0000E+00
     -1.390  0.1949E-01  0.1952E-01  0.7990E-03  0.7995E-03  0.7990E-03  0.7995E-03  0.7990E-03  0.7995E-03  0.0000E+00  0.0000E+00  0.0000E+00  0.0000E+00  0.0000E+00  0.0000E+00  0.0000E+00  0.0000E+00  0.0000E+00  0.0000E+00
     -1.307  0.1833E-01  0.1829E-01  0.7991E-03  0.7967E-03  0.7991E-03  0.7967E-03  0.7991E-03  0.7967E-03  0.0000E+00  0.0000E+00  0.0000E+00  0.0000E+00  0.0000E+00  0.0000E+00  0.0000E+00  0.0000E+00  0.0000E+00  0.0000E+00
     -1.224  0.1823E-01  0.1829E-01  0.8335E-03  0.8357E-03  0.8335E-03  0.8357E-03  0.8335E-03  0.8357E-03  0.0000E+00  0.0000E+00  0.0000E+00  0.0000E+00  0.0000E+00  0.0000E+00  0.0000E+00  0.0000E+00  0.0000E+00  0.0000E+00
     -1.141  0.1417E-01  0.1422E-01  0.6853E-03  0.6867E-03  0.6853E-03  0.6867E-03  0.6853E-03  0.6867E-03  0.0000E+00  0.0000E+00  0.0000E+00  0.0000E+00  0.0000E+00  0.0000E+00  0.0000E+00  0.0000E+00  0.0000E+00  0.0000E+00
     -1.059  0.1611E-01  0.1596E-01  0.8366E-03  0.8287E-03  0.8366E-03  0.8287E-03  0.8366E-03  0.8287E-03  0.0000E+00  0.0000E+00  0.0000E+00  0.0000E+00  0.0000E+00  0.0000E+00  0.0000E+00  0.0000E+00  0.0000E+00  0.0000E+00
     -0.976  0.1987E-01  0.1981E-01  0.1074E-02  0.1071E-02  0.1074E-02  0.1071E-02  0.1074E-02  0.1071E-02  0.0000E+00  0.0000E+00  0.0000E+00  0.0000E+00  0.0000E+00  0.0000E+00  0.0000E+00  0.0000E+00  0.0000E+00  0.0000E+00
     -0.893  0.1921E-01  0.1923E-01  0.1084E-02  0.1084E-02  0.1084E-02  0.1084E-02  0.1084E-02  0.1084E-02  0.0000E+00  0.0000E+00  0.0000E+00  0.0000E+00  0.0000E+00  0.0000E+00  0.0000E+00  0.0000E+00  0.0000E+00  0.0000E+00
     -0.810  0.1841E-01  0.1839E-01  0.1092E-02  0.1090E-02  0.1092E-02  0.1090E-02  0.1092E-02  0.1090E-02  0.0000E+00  0.0000E+00  0.0000E+00  0.0000E+00  0.0000E+00  0.0000E+00  0.0000E+00  0.0000E+00  0.0000E+00  0.0000E+00
     -0.727  0.1786E-01  0.1785E-01  0.1110E-02  0.1109E-02  0.1110E-02  0.1109E-02  0.1110E-02  0.1109E-02  0.0000E+00  0.0000E+00  0.0000E+00  0.0000E+00  0.0000E+00  0.0000E+00  0.0000E+00  0.0000E+00  0.0000E+00  0.0000E+00
     -0.645  0.2073E-01  0.2057E-01  0.1355E-02  0.1344E-02  0.1355E-02  0.1344E-02  0.1355E-02  0.1344E-02  0.0000E+00  0.0000E+00  0.0000E+00  0.0000E+00  0.0000E+00  0.0000E+00  0.0000E+00  0.0000E+00  0.0000E+00  0.0000E+00
     -0.562  0.2322E-01  0.2324E-01  0.1562E-02  0.1564E-02  0.1562E-02  0.1564E-02  0.1562E-02  0.1564E-02  0.0000E+00  0.0000E+00  0.0000E+00  0.0000E+00  0.0000E+00  0.0000E+00  0.0000E+00  0.0000E+00  0.0000E+00  0.0000E+00
     -0.479  0.1986E-01  0.1990E-01  0.1388E-02  0.1390E-02  0.1388E-02  0.1390E-02  0.1388E-02  0.1390E-02  0.0000E+00  0.0000E+00  0.0000E+00  0.0000E+00  0.0000E+00  0.0000E+00  0.0000E+00  0.0000E+00  0.0000E+00  0.0000E+00
     -0.396  0.1962E-01  0.1960E-01  0.1431E-02  0.1430E-02  0.1431E-02  0.1430E-02  0.1431E-02  0.1430E-02  0.0000E+00  0.0000E+00  0.0000E+00  0.0000E+00  0.0000E+00  0.0000E+00  0.0000E+00  0.0000E+00  0.0000E+00  0.0000E+00
     -0.313  0.1671E-01  0.1682E-01  0.1258E-02  0.1266E-02  0.1258E-02  0.1266E-02  0.1258E-02  0.1266E-02  0.0000E+00  0.0000E+00  0.0000E+00  0.0000E+00  0.0000E+00  0.0000E+00  0.0000E+00  0.0000E+00  0.0000E+00  0.0000E+00
     -0.231  0.1464E-01  0.1454E-01  0.1165E-02  0.1157E-02  0.1165E-02  0.1157E-02  0.1165E-02  0.1157E-02  0.0000E+00  0.0000E+00  0.0000E+00  0.0000E+00  0.0000E+00  0.0000E+00  0.0000E+00  0.0000E+00  0.0000E+00  0.0000E+00
     -0.148  0.2116E-01  0.2096E-01  0.1754E-02  0.1738E-02  0.1754E-02  0.1738E-02  0.1754E-02  0.1738E-02  0.0000E+00  0.0000E+00  0.0000E+00  0.0000E+00  0.0000E+00  0.0000E+00  0.0000E+00  0.0000E+00  0.0000E+00  0.0000E+00
     -0.065  0.2436E-01  0.2434E-01  0.2074E-02  0.2072E-02  0.2074E-02  0.2072E-02  0.2074E-02  0.2072E-02  0.0000E+00  0.0000E+00  0.0000E+00  0.0000E+00  0.0000E+00  0.0000E+00  0.0000E+00  0.0000E+00  0.0000E+00  0.0000E+00
      0.018  0.2449E-01  0.2442E-01  0.2160E-02  0.2154E-02  0.2160E-02  0.2154E-02  0.2160E-02  0.2154E-02  0.0000E+00  0.0000E+00  0.0000E+00  0.0000E+00  0.0000E+00  0.0000E+00  0.0000E+00  0.0000E+00  0.0000E+00  0.0000E+00
      0.101  0.2491E-01  0.2495E-01  0.2261E-02  0.2265E-02  0.2261E-02  0.2265E-02  0.2261E-02  0.2265E-02  0.0000E+00  0.0000E+00  0.0000E+00  0.0000E+00  0.0000E+00  0.0000E+00  0.0000E+00  0.0000E+00  0.0000E+00  0.0000E+00