   4   4   1   0
  0.1853893E+02  0.4201280E-09  0.4201280E-09  0.4201280E-09  0.5000000E-15
  1.000000000000000E-004
  CAR 
 unknown system                          
     17.53990615     -4.52115786  301      6.83256146      1.00000000
     -4.521  0.0000E+00  0.0000E+00  0.0000E+00  0.0000E+00
     -4.448  0.0000E+00  0.0000E+00  0.0000E+00  0.0000E+00
     -4.374  0.0000E+00  0.0000E+00  0.0000E+00  0.0000E+00
     -4.301  0.0000E+00  0.0000E+00  0.0000E+00  0.0000E+00
     -4.227  0.0000E+00  0.0000E+00  0.0000E+00  0.0000E+00
     -4.153  0.0000E+00  0.0000E+00  0.0000E+00  0.0000E+00
     -4.080  0.0000E+00  0.0000E+00  0.0000E+00  0.0000E+00
     -4.006  0.0000E+00  0.0000E+00  0.0000E+00  0.0000E+00
     -3.933  0.5010E-05  0.4857E-05  0.3684E-06  0.3572E-06
     -3.859  0.2794E-04  0.2709E-04  0.2423E-05  0.2349E-05
     -3.786  0.1256E-03  0.1218E-03  0.1166E-04  0.1130E-04
     -3.712  0.5489E-03  0.5323E-03  0.5203E-04  0.5045E-04
     -3.639  0.2332E-02  0.2263E-02  0.2235E-03  0.2169E-03
     -3.565  0.9032E-02  0.8792E-02  0.8877E-03  0.8634E-03
     -3.492  0.2798E-01  0.2742E-01  0.2945E-02  0.2880E-02
     -3.418  0.5899E-01  0.5832E-01  0.7284E-02  0.7169E-02
     -3.345  0.8781E-01  0.8723E-01  0.1374E-01  0.1358E-01
     -3.271  0.1191E+00  0.1184E+00  0.2250E-01  0.2229E-01
     -3.197  0.1388E+00  0.1387E+00  0.3270E-01  0.3249E-01
     -3.124  0.1413E+00  0.1410E+00  0.4309E-01  0.4285E-01
     -3.050  0.1733E+00  0.1725E+00  0.5583E-01  0.5554E-01
     -2.977  0.1951E+00  0.1950E+00  0.7018E-01  0.6988E-01
     -2.903  0.1949E+00  0.1947E+00  0.8451E-01  0.8420E-01
     -2.830  0.2092E+00  0.2090E+00  0.9991E-01  0.9958E-01
     -2.756  0.2041E+00  0.2043E+00  0.1149E+00  0.1146E+00
     -2.683  0.2210E+00  0.2200E+00  0.1312E+00  0.1308E+00
     -2.609  0.2691E+00  0.2684E+00  0.1510E+00  0.1505E+00
     -2.536  0.2757E+00  0.2758E+00  0.1713E+00  0.1708E+00
     -2.462  0.2686E+00  0.2690E+00  0.1910E+00  0.1906E+00
     -2.389  0.2341E+00  0.2349E+00  0.2083E+00  0.2079E+00
     -2.315  0.2357E+00  0.2347E+00  0.2256E+00  0.2252E+00
     -2.242  0.3116E+00  0.3100E+00  0.2485E+00  0.2480E+00
     -2.168  0.3436E+00  0.3438E+00  0.2738E+00  0.2733E+00
     -2.094  0.3324E+00  0.3323E+00  0.2983E+00  0.2977E+00
     -2.021  0.3250E+00  0.3259E+00  0.3222E+00  0.3217E+00
     -1.947  0.2729E+00  0.2735E+00  0.3423E+00  0.3419E+00
     -1.874  0.2994E+00  0.2979E+00  0.3643E+00  0.3638E+00
     -1.800  0.3593E+00  0.3586E+00  0.3908E+00  0.3902E+00
     -1.727  0.3592E+00  0.3596E+00  0.4172E+00  0.4166E+00
     -1.653  0.3478E+00  0.3479E+00  0.4428E+00  0.4422E+00
     -1.580  0.3456E+00  0.3455E+00  0.4682E+00  0.4677E+00
     -1.506  0.3915E+00  0.3899E+00  0.4970E+00  0.4963E+00
     -1.433  0.4352E+00  0.4355E+00  0.5290E+00  0.5284E+00
     -1.359  0.3919E+00  0.3928E+00  0.5579E+00  0.5573E+00
     -1.286  0.3786E+00  0.3788E+00  0.5857E+00  0.5852E+00
     -1.212  0.3362E+00  0.3377E+00  0.6105E+00  0.6100E+00
     -1.138  0.3061E+00  0.3052E+00  0.6330E+00  0.6325E+00
     -1.065  0.4073E+00  0.4047E+00  0.6630E+00  0.6623E+00
     -0.991  0.4808E+00  0.4803E+00  0.6984E+00  0.6976E+00
     -0.918  0.4933E+00  0.4928E+00  0.7347E+00  0.7339E+00
     -0.844  0.5003E+00  0.5010E+00  0.7715E+00  0.7708E+00
     -0.771  0.4301E+00  0.4317E+00  0.8031E+00  0.8025E+00
     -0.697  0.3917E+00  0.3919E+00  0.8320E+00  0.8314E+00
     -0.624  0.3943E+00  0.3940E+00  0.8610E+00  0.8604E+00
     -0.550  0.4153E+00  0.4145E+00  0.8916E+00  0.8909E+00
     -0.477  0.4591E+00  0.4586E+00  0.9253E+00  0.9246E+00
     -0.403  0.4359E+00  0.4368E+00  0.9574E+00  0.9568E+00
     -0.330  0.4605E+00  0.4584E+00  0.9913E+00  0.9905E+00
     -0.256  0.5546E+00  0.5537E+00  0.1032E+01  0.1031E+01
     -0.182  0.5429E+00  0.5435E+00  0.1072E+01  0.1071E+01
     -0.109  0.5182E+00  0.5191E+00  0.1110E+01  0.1109E+01
     -0.035  0.4388E+00  0.4406E+00  0.1142E+01  0.1142E+01
      0.038  0.4212E+00  0.4197E+00  0.1173E+01  0.1173E+01
      0.112  0.5414E+00  0.5388E+00  0.1213E+01  0.1212E+01
      0.185  0.5857E+00  0.5863E+00  0.1256E+01  0.1256E+01
      0.259  0.5339E+00  0.5350E+00  0.1296E+01  0.1295E+01
      0.332  0.4589E+00  0.4608E+00  0.1329E+01  0.1329E+01
      0.406  0.4130E+00  0.4124E+00  0.1360E+01  0.1359E+01
      0.479  0.5038E+00  0.5016E+00  0.1397E+01  0.1396E+01
      0.553  0.5634E+00  0.5630E+00  0.1438E+01  0.1438E+01
      0.626  0.5679E+00  0.5678E+00  0.1480E+01  0.1479E+01
      0.700  0.5761E+00  0.5761E+00  0.1523E+01  0.1522E+01
      0.773  0.5676E+00  0.5671E+00  0.1564E+01  0.1563E+01
      0.847  0.6696E+00  0.6667E+00  0.1614E+01  0.1612E+01
      0.921  0.7065E+00  0.7086E+00  0.1666E+01  0.1665E+01
      0.994  0.5334E+00  0.5369E+00  0.1705E+01  0.1704E+01
      1.068  0.4481E+00  0.4485E+00  0.1738E+01  0.1737E+01
      1.141  0.4200E+00  0.4207E+00  0.1769E+01  0.1768E+01
      1.215  0.4429E+00  0.4408E+00  0.1801E+01  0.1800E+01
      1.288  0.5889E+00  0.5858E+00  0.1845E+01  0.1844E+01
      1.362  0.6890E+00  0.6878E+00  0.1895E+01  0.1894E+01
      1.435  0.7201E+00  0.7205E+00  0.1948E+01  0.1947E+01
      1.509  0.6293E+00  0.6317E+00  0.1995E+01  0.1994E+01
      1.582  0.5935E+00  0.5925E+00  0.2038E+01  0.2037E+01
      1.656  0.6534E+00  0.6528E+00  0.2086E+01  0.2085E+01
      1.729  0.6419E+00  0.6425E+00  0.2134E+01  0.2133E+01
      1.803  0.6340E+00  0.6336E+00  0.2180E+01  0.2179E+01
      1.877  0.6176E+00  0.6192E+00  0.2226E+01  0.2225E+01
      1.950  0.5215E+00  0.5225E+00  0.2264E+01  0.2263E+01
      2.024  0.5798E+00  0.5773E+00  0.2307E+01  0.2306E+01
      2.097  0.6752E+00  0.6740E+00  0.2356E+01  0.2355E+01
      2.171  0.7112E+00  0.7109E+00  0.2409E+01  0.2408E+01
      2.244  0.6604E+00  0.6631E+00  0.2457E+01  0.2456E+01
      2.318  0.5583E+00  0.5590E+00  0.2498E+01  0.2498E+01
      2.391  0.6146E+00  0.6126E+00  0.2544E+01  0.2543E+01
      2.465  0.6780E+00  0.6779E+00  0.2594E+01  0.2593E+01
      2.538  0.6884E+00  0.6872E+00  0.2644E+01  0.2643E+01
      2.612  0.7558E+00  0.7557E+00  0.2700E+01  0.2699E+01
      2.685  0.6674E+00  0.6696E+00  0.2749E+01  0.2748E+01
      2.759  0.6625E+00  0.6606E+00  0.2798E+01  0.2797E+01
      2.833  0.7443E+00  0.7435E+00  0.2853E+01  0.2851E+01
      2.906  0.7372E+00  0.7377E+00  0.2907E+01  0.2906E+01
      2.980  0.7277E+00  0.7277E+00  0.2960E+01  0.2959E+01
      3.053  0.6883E+00  0.6898E+00  0.3011E+01  0.3010E+01
      3.127  0.6677E+00  0.6668E+00  0.3060E+01  0.3059E+01
      3.200  0.7198E+00  0.7194E+00  0.3113E+01  0.3112E+01
      3.274  0.6894E+00  0.6907E+00  0.3164E+01  0.3163E+01
      3.347  0.6100E+00  0.6119E+00  0.3209E+01  0.3208E+01
      3.421  0.5360E+00  0.5365E+00  0.3248E+01  0.3247E+01
      3.494  0.6381E+00  0.6339E+00  0.3295E+01  0.3294E+01
      3.568  0.8663E+00  0.8630E+00  0.3359E+01  0.3358E+01
      3.641  0.9002E+00  0.9014E+00  0.3425E+01  0.3424E+01
      3.715  0.8591E+00  0.8591E+00  0.3488E+01  0.3487E+01
      3.789  0.8415E+00  0.8425E+00  0.3550E+01  0.3549E+01
      3.862  0.8185E+00  0.8182E+00  0.3610E+01  0.3609E+01
      3.936  0.8418E+00  0.8423E+00  0.3672E+01  0.3671E+01
      4.009  0.7497E+00  0.7524E+00  0.3728E+01  0.3727E+01
      4.083  0.6246E+00  0.6265E+00  0.3774E+01  0.3773E+01
      4.156  0.6041E+00  0.6035E+00  0.3818E+01  0.3817E+01
      4.230  0.7171E+00  0.7140E+00  0.3871E+01  0.3870E+01
      4.303  0.8851E+00  0.8831E+00  0.3936E+01  0.3935E+01
      4.377  0.8860E+00  0.8873E+00  0.4001E+01  0.4000E+01
      4.450  0.8466E+00  0.8465E+00  0.4064E+01  0.4062E+01
      4.524  0.8451E+00  0.8456E+00  0.4126E+01  0.4125E+01
      4.597  0.8212E+00  0.8219E+00  0.4186E+01  0.4185E+01
      4.671  0.8213E+00  0.8211E+00  0.4247E+01  0.4245E+01
      4.744  0.8363E+00  0.8355E+00  0.4308E+01  0.4307E+01
      4.818  0.8450E+00  0.8454E+00  0.4370E+01  0.4369E+01
      4.892  0.7633E+00  0.7660E+00  0.4426E+01  0.4426E+01
      4.965  0.6132E+00  0.6159E+00  0.4472E+01  0.4471E+01
      5.039  0.5783E+00  0.5772E+00  0.4514E+01  0.4513E+01
      5.112  0.6883E+00  0.6852E+00  0.4565E+01  0.4564E+01
      5.186  0.8047E+00  0.8026E+00  0.4624E+01  0.4623E+01
      5.259  0.8590E+00  0.8579E+00  0.4687E+01  0.4686E+01
      5.333  0.8939E+00  0.8934E+00  0.4753E+01  0.4752E+01
      5.406  0.9404E+00  0.9395E+00  0.4822E+01  0.4821E+01
      5.480  0.8912E+00  0.8933E+00  0.4888E+01  0.4887E+01
      5.553  0.7561E+00  0.7583E+00  0.4943E+01  0.4942E+01
      5.627  0.6799E+00  0.6806E+00  0.4993E+01  0.4993E+01
      5.700  0.6589E+00  0.6583E+00  0.5042E+01  0.5041E+01
      5.774  0.7659E+00  0.7635E+00  0.5098E+01  0.5097E+01
      5.848  0.8826E+00  0.8817E+00  0.5163E+01  0.5162E+01
      5.921  0.8240E+00  0.8268E+00  0.5224E+01  0.5223E+01
      5.995  0.6891E+00  0.6897E+00  0.5275E+01  0.5274E+01
      6.068  0.7296E+00  0.7267E+00  0.5328E+01  0.5327E+01
      6.142  0.8633E+00  0.8608E+00  0.5392E+01  0.5390E+01
      6.215  0.8766E+00  0.8775E+00  0.5456E+01  0.5455E+01
      6.289  0.8421E+00  0.8422E+00  0.5518E+01  0.5517E+01
      6.362  0.8895E+00  0.8877E+00  0.5584E+01  0.5582E+01
      6.436  0.9926E+00  0.9905E+00  0.5657E+01  0.5655E+01
      6.509  0.1067E+01  0.1066E+01  0.5735E+01  0.5734E+01
      6.583  0.1055E+01  0.1057E+01  0.5813E+01  0.5811E+01
      6.656  0.8991E+00  0.9036E+00  0.5879E+01  0.5878E+01
      6.730  0.6877E+00  0.6903E+00  0.5930E+01  0.5929E+01
      6.804  0.6591E+00  0.6575E+00  0.5978E+01  0.5977E+01
      6.877  0.8314E+00  0.8273E+00  0.6039E+01  0.6038E+01
      6.951  0.9018E+00  0.9026E+00  0.6106E+01  0.6104E+01
      7.024  0.8007E+00  0.8027E+00  0.6165E+01  0.6164E+01
      7.098  0.7746E+00  0.7750E+00  0.6222E+01  0.6221E+01
      7.171  0.8311E+00  0.8298E+00  0.6283E+01  0.6282E+01
      7.245  0.9351E+00  0.9324E+00  0.6352E+01  0.6350E+01
      7.318  0.1012E+01  0.1011E+01  0.6426E+01  0.6425E+01
      7.392  0.1007E+01  0.1008E+01  0.6500E+01  0.6499E+01
      7.465  0.9518E+00  0.9527E+00  0.6570E+01  0.6569E+01
      7.539  0.9320E+00  0.9320E+00  0.6639E+01  0.6637E+01
      7.612  0.9540E+00  0.9526E+00  0.6709E+01  0.6708E+01
      7.686  0.9167E+00  0.9176E+00  0.6777E+01  0.6775E+01
      7.760  0.8293E+00  0.8296E+00  0.6838E+01  0.6836E+01
      7.833  0.8711E+00  0.8704E+00  0.6902E+01  0.6900E+01
      7.907  0.8978E+00  0.8996E+00  0.6968E+01  0.6966E+01
      7.980  0.9018E+00  0.9006E+00  0.7034E+01  0.7033E+01
      8.054  0.9820E+00  0.9809E+00  0.7107E+01  0.7105E+01
      8.127  0.1020E+01  0.1020E+01  0.7182E+01  0.7180E+01
      8.201  0.1049E+01  0.1047E+01  0.7259E+01  0.7257E+01
      8.274  0.1060E+01  0.1060E+01  0.7337E+01  0.7335E+01
      8.348  0.1011E+01  0.1011E+01  0.7411E+01  0.7409E+01
      8.421  0.9759E+00  0.9764E+00  0.7483E+01  0.7481E+01
      8.495  0.9066E+00  0.9082E+00  0.7550E+01  0.7548E+01
      8.568  0.8256E+00  0.8262E+00  0.7610E+01  0.7609E+01
      8.642  0.8148E+00  0.8153E+00  0.7670E+01  0.7669E+01
      8.715  0.8403E+00  0.8402E+00  0.7732E+01  0.7731E+01
      8.789  0.8986E+00  0.8983E+00  0.7798E+01  0.7797E+01
      8.863  0.8928E+00  0.8940E+00  0.7864E+01  0.7863E+01
      8.936  0.8464E+00  0.8452E+00  0.7926E+01  0.7925E+01
      9.010  0.9552E+00  0.9501E+00  0.7997E+01  0.7995E+01
      9.083  0.1177E+01  0.1172E+01  0.8083E+01  0.8081E+01
      9.157  0.1299E+01  0.1298E+01  0.8179E+01  0.8177E+01
      9.230  0.1272E+01  0.1274E+01  0.8272E+01  0.8270E+01
      9.304  0.1189E+01  0.1192E+01  0.8360E+01  0.8358E+01
      9.377  0.1009E+01  0.1014E+01  0.8434E+01  0.8433E+01
      9.451  0.9588E+00  0.9577E+00  0.8505E+01  0.8503E+01
      9.524  0.9587E+00  0.9606E+00  0.8575E+01  0.8574E+01
      9.598  0.8164E+00  0.8196E+00  0.8635E+01  0.8634E+01
      9.671  0.7682E+00  0.7672E+00  0.8692E+01  0.8691E+01
      9.745  0.9244E+00  0.9195E+00  0.8760E+01  0.8758E+01
      9.819  0.1090E+01  0.1087E+01  0.8840E+01  0.8838E+01
      9.892  0.1099E+01  0.1100E+01  0.8921E+01  0.8919E+01
      9.966  0.1062E+01  0.1062E+01  0.8999E+01  0.8997E+01
     10.039  0.1108E+01  0.1107E+01  0.9081E+01  0.9079E+01
     10.113  0.1117E+01  0.1119E+01  0.9163E+01  0.9161E+01
     10.186  0.1085E+01  0.1086E+01  0.9243E+01  0.9241E+01
     10.260  0.1066E+01  0.1067E+01  0.9321E+01  0.9320E+01
     10.333  0.9622E+00  0.9641E+00  0.9392E+01  0.9391E+01
     10.407  0.9255E+00  0.9251E+00  0.9460E+01  0.9459E+01
     10.480  0.9461E+00  0.9457E+00  0.9530E+01  0.9528E+01
     10.554  0.9716E+00  0.9695E+00  0.9601E+01  0.9600E+01
     10.627  0.1015E+01  0.1013E+01  0.9676E+01  0.9674E+01
     10.701  0.1173E+01  0.1167E+01  0.9762E+01  0.9760E+01
     10.775  0.1369E+01  0.1367E+01  0.9863E+01  0.9861E+01
     10.848  0.1308E+01  0.1313E+01  0.9959E+01  0.9957E+01
     10.922  0.1141E+01  0.1145E+01  0.1004E+02  0.1004E+02
     10.995  0.1069E+01  0.1069E+01  0.1012E+02  0.1012E+02
     11.069  0.1109E+01  0.1106E+01  0.1020E+02  0.1020E+02
     11.142  0.1165E+01  0.1164E+01  0.1029E+02  0.1029E+02
     11.216  0.1126E+01  0.1127E+01  0.1037E+02  0.1037E+02
     11.289  0.1095E+01  0.1096E+01  0.1045E+02  0.1045E+02
     11.363  0.9341E+00  0.9394E+00  0.1052E+02  0.1052E+02
     11.436  0.8473E+00  0.8455E+00  0.1058E+02  0.1058E+02
     11.510  0.1046E+01  0.1041E+01  0.1066E+02  0.1066E+02
     11.583  0.1054E+01  0.1060E+01  0.1074E+02  0.1074E+02
     11.657  0.8531E+00  0.8611E+00  0.1080E+02  0.1080E+02
     11.730  0.7438E+00  0.7502E+00  0.1086E+02  0.1086E+02
     11.804  0.7112E+00  0.7190E+00  0.1091E+02  0.1091E+02
     11.878  0.7758E+00  0.8060E+00  0.1097E+02  0.1097E+02
     11.951  0.9033E+00  0.9583E+00  0.1103E+02  0.1104E+02
     12.025  0.9945E+00  0.1008E+01  0.1111E+02  0.1111E+02
     12.098  0.9281E+00  0.8724E+00  0.1117E+02  0.1118E+02
     12.172  0.7856E+00  0.7434E+00  0.1123E+02  0.1123E+02
     12.245  0.6731E+00  0.6624E+00  0.1128E+02  0.1128E+02
     12.319  0.4747E+00  0.4759E+00  0.1132E+02  0.1132E+02
     12.392  0.3616E+00  0.3613E+00  0.1134E+02  0.1134E+02
     12.466  0.3548E+00  0.3552E+00  0.1137E+02  0.1137E+02
     12.539  0.3274E+00  0.3275E+00  0.1139E+02  0.1139E+02
     12.613  0.3443E+00  0.3429E+00  0.1142E+02  0.1142E+02
     12.686  0.4193E+00  0.4173E+00  0.1145E+02  0.1145E+02
     12.760  0.4229E+00  0.4250E+00  0.1148E+02  0.1148E+02
     12.834  0.3272E+00  0.3298E+00  0.1150E+02  0.1150E+02
     12.907  0.2692E+00  0.2705E+00  0.1152E+02  0.1152E+02
     12.981  0.2627E+00  0.2634E+00  0.1154E+02  0.1154E+02
     13.054  0.3374E+00  0.3359E+00  0.1157E+02  0.1157E+02
     13.128  0.4052E+00  0.4020E+00  0.1160E+02  0.1160E+02
     13.201  0.3527E+00  0.3478E+00  0.1162E+02  0.1162E+02
     13.275  0.3442E+00  0.3447E+00  0.1165E+02  0.1165E+02
     13.348  0.3025E+00  0.3065E+00  0.1167E+02  0.1167E+02
     13.422  0.2279E+00  0.2275E+00  0.1169E+02  0.1169E+02
     13.495  0.1811E+00  0.1777E+00  0.1170E+02  0.1170E+02
     13.569  0.1740E+00  0.1762E+00  0.1171E+02  0.1171E+02
     13.642  0.1929E+00  0.1972E+00  0.1173E+02  0.1173E+02
     13.716  0.1972E+00  0.1994E+00  0.1174E+02  0.1174E+02
     13.790  0.2148E+00  0.2171E+00  0.1176E+02  0.1176E+02
     13.863  0.2032E+00  0.2083E+00  0.1177E+02  0.1177E+02
     13.937  0.1728E+00  0.1733E+00  0.1179E+02  0.1179E+02
     14.010  0.1389E+00  0.1351E+00  0.1180E+02  0.1180E+02
     14.084  0.1724E+00  0.1685E+00  0.1181E+02  0.1181E+02
     14.157  0.2549E+00  0.2529E+00  0.1183E+02  0.1183E+02
     14.231  0.2513E+00  0.2529E+00  0.1185E+02  0.1185E+02
     14.304  0.1414E+00  0.1445E+00  0.1186E+02  0.1186E+02
     14.378  0.5138E-01  0.5255E-01  0.1186E+02  0.1186E+02
     14.451  0.3229E-01  0.3120E-01  0.1186E+02  0.1186E+02
     14.525  0.7679E-01  0.7161E-01  0.1187E+02  0.1187E+02
     14.598  0.1849E+00  0.1740E+00  0.1188E+02  0.1188E+02
     14.672  0.2409E+00  0.2369E+00  0.1190E+02  0.1190E+02
     14.746  0.1498E+00  0.1611E+00  0.1191E+02  0.1191E+02
     14.819  0.5429E-01  0.6195E-01  0.1192E+02  0.1192E+02
     14.893  0.2833E-01  0.3020E-01  0.1192E+02  0.1192E+02
     14.966  0.5918E-01  0.5813E-01  0.1192E+02  0.1192E+02
     15.040  0.1376E+00  0.1357E+00  0.1193E+02  0.1193E+02
     15.113  0.1561E+00  0.1572E+00  0.1194E+02  0.1194E+02
     15.187  0.8535E-01  0.8720E-01  0.1195E+02  0.1195E+02
     15.260  0.3225E-01  0.3310E-01  0.1195E+02  0.1195E+02
     15.334  0.1662E-01  0.1660E-01  0.1195E+02  0.1195E+02
     15.407  0.3339E-01  0.3245E-01  0.1196E+02  0.1196E+02
     15.481  0.8255E-01  0.8110E-01  0.1196E+02  0.1196E+02
     15.554  0.1008E+00  0.1015E+00  0.1197E+02  0.1197E+02
     15.628  0.5149E-01  0.5291E-01  0.1197E+02  0.1197E+02
     15.701  0.1555E-01  0.1603E-01  0.1197E+02  0.1197E+02
     15.775  0.4754E-02  0.4523E-02  0.1197E+02  0.1197E+02
     15.849  0.5047E-02  0.3514E-02  0.1197E+02  0.1197E+02
     15.922  0.1570E-01  0.1033E-01  0.1198E+02  0.1198E+02
     15.996  0.4119E-01  0.3190E-01  0.1198E+02  0.1198E+02
     16.069  0.5045E-01  0.5227E-01  0.1198E+02  0.1198E+02
     16.143  0.2597E-01  0.3515E-01  0.1198E+02  0.1198E+02
     16.216  0.8752E-02  0.1289E-01  0.1199E+02  0.1199E+02
     16.290  0.6467E-02  0.7361E-02  0.1199E+02  0.1199E+02
     16.363  0.1762E-01  0.1688E-01  0.1199E+02  0.1199E+02
     16.437  0.4547E-01  0.4264E-01  0.1199E+02  0.1199E+02
     16.510  0.6241E-01  0.6083E-01  0.1200E+02  0.1199E+02
     16.584  0.4312E-01  0.4591E-01  0.1200E+02  0.1200E+02
     16.657  0.1743E-01  0.1951E-01  0.1200E+02  0.1200E+02
     16.731  0.4905E-02  0.5570E-02  0.1200E+02  0.1200E+02
     16.805  0.1190E-02  0.1356E-02  0.1200E+02  0.1200E+02
     16.878  0.1722E-03  0.2623E-03  0.1200E+02  0.1200E+02
     16.952  0.0000E+00  0.0000E+00  0.1200E+02  0.1200E+02
     17.025  0.0000E+00  0.0000E+00  0.1200E+02  0.1200E+02
     17.099  0.0000E+00  0.0000E+00  0.1200E+02  0.1200E+02
     17.172  0.0000E+00  0.0000E+00  0.1200E+02  0.1200E+02
     17.246  0.0000E+00  0.0000E+00  0.1200E+02  0.1200E+02
     17.319  0.0000E+00  0.0000E+00  0.1200E+02  0.1200E+02
     17.393  0.0000E+00  0.0000E+00  0.1200E+02  0.1200E+02
     17.466  0.0000E+00  0.0000E+00  0.1200E+02  0.1200E+02
     17.540  0.0000E+00  0.0000E+00  0.1200E+02  0.1200E+02
     17.53990615     -4.52115786  301      6.83256146      1.00000000
     -4.521  0.0000E+00  0.0000E+00  0.0000E+00  0.0000E+00  0.0000E+00  0.0000E+00  0.0000E+00  0.0000E+00  0.0000E+00  0.0000E+00  0.0000E+00  0.0000E+00  0.0000E+00  0.0000E+00  0.0000E+00  0.0000E+00  0.0000E+00  0.0000E+00
     -4.448  0.0000E+00  0.0000E+00  0.0000E+00  0.0000E+00  0.0000E+00  0.0000E+00  0.0000E+00  0.0000E+00  0.0000E+00  0.0000E+00  0.0000E+00  0.0000E+00  0.0000E+00  0.0000E+00  0.0000E+00  0.0000E+00  0.0000E+00  0.0000E+00
     -4.374  0.0000E+00  0.0000E+00  0.0000E+00  0.0000E+00  0.0000E+00  0.0000E+00  0.0000E+00  0.0000E+00  0.0000E+00  0.0000E+00  0.0000E+00  0.0000E+00  0.0000E+00  0.0000E+00  0.0000E+00  0.0000E+00  0.0000E+00  0.0000E+00
     -4.301  0.0000E+00  0.0000E+00  0.0000E+00  0.0000E+00  0.0000E+00  0.0000E+00  0.0000E+00  0.0000E+00  0.0000E+00  0.0000E+00  0.0000E+00  0.0000E+00  0.0000E+00  0.0000E+00  0.0000E+00  0.0000E+00  0.0000E+00  0.0000E+00
     -4.227  0.0000E+00  0.0000E+00  0.0000E+00  0.0000E+00  0.0000E+00  0.0000E+00  0.0000E+00  0.0000E+00  0.0000E+00  0.0000E+00  0.0000E+00  0.0000E+00  0.0000E+00  0.0000E+00  0.0000E+00  0.0000E+00  0.0000E+00  0.0000E+00
     -4.153  0.0000E+00  0.0000E+00  0.0000E+00  0.0000E+00  0.0000E+00  0.0000E+00  0.0000E+00  0.0000E+00  0.0000E+00  0.0000E+00  0.0000E+00  0.0000E+00  0.0000E+00  0.0000E+00  0.0000E+00  0.0000E+00  0.0000E+00  0.0000E+00
     -4.080  0.0000E+00  0.0000E+00  0.0000E+00  0.0000E+00  0.0000E+00  0.0000E+00  0.0000E+00  0.0000E+00  0.0000E+00  0.0000E+00  0.0000E+00  0.0000E+00  0.0000E+00  0.0000E+00  0.0000E+00  0.0000E+00  0.0000E+00  0.0000E+00
     -4.006  0.0000E+00  0.0000E+00  0.0000E+00  0.0000E+00  0.0000E+00  0.0000E+00  0.0000E+00  0.0000E+00  0.0000E+00  0.0000E+00  0.0000E+00  0.0000E+00  0.0000E+00  0.0000E+00  0.0000E+00  0.0000E+00  0.0000E+00  0.0000E+00
     -3.933  0.3156E-06  0.3056E-06  0.2651E-09  0.2569E-09  0.2651E-09  0.2569E-09  0.2651E-09  0.2569E-09  0.0000E+00  0.0000E+00  0.0000E+00  0.0000E+00  0.0000E+00  0.0000E+00  0.0000E+00  0.0000E+00  0.0000E+00  0.0000E+00
     -3.859  0.1757E-05  0.1701E-05  0.2596E-08  0.2516E-08  0.2596E-08  0.2516E-08  0.2596E-08  0.2516E-08  0.0000E+00  0.0000E+00  0.0000E+00  0.0000E+00  0.0000E+00  0.0000E+00  0.0000E+00  0.0000E+00  0.0000E+00  0.0000E+00
     -3.786  0.7892E-05  0.7644E-05  0.1335E-07  0.1294E-07  0.1335E-07  0.1294E-07  0.1335E-07  0.1294E-07  0.0000E+00  0.0000E+00  0.0000E+00  0.0000E+00  0.0000E+00  0.0000E+00  0.0000E+00  0.0000E+00  0.0000E+00  0.0000E+00
     -3.712  0.3448E-04  0.3340E-04  0.6238E-07  0.6046E-07  0.6238E-07  0.6046E-07  0.6238E-07  0.6046E-07  0.0000E+00  0.0000E+00  0.0000E+00  0.0000E+00  0.0000E+00  0.0000E+00  0.0000E+00  0.0000E+00  0.0000E+00  0.0000E+00
     -3.639  0.1464E-03  0.1420E-03  0.2755E-06  0.2671E-06  0.2755E-06  0.2671E-06  0.2755E-06  0.2671E-06  0.0000E+00  0.0000E+00  0.0000E+00  0.0000E+00  0.0000E+00  0.0000E+00  0.0000E+00  0.0000E+00  0.0000E+00  0.0000E+00
     -3.565  0.5670E-03  0.5514E-03  0.1126E-05  0.1094E-05  0.1126E-05  0.1094E-05  0.1126E-05  0.1094E-05  0.0000E+00  0.0000E+00  0.0000E+00  0.0000E+00  0.0000E+00  0.0000E+00  0.0000E+00  0.0000E+00  0.0000E+00  0.0000E+00
     -3.492  0.1755E-02  0.1718E-02  0.4085E-05  0.3984E-05  0.4085E-05  0.3984E-05  0.4085E-05  0.3984E-05  0.0000E+00  0.0000E+00  0.0000E+00  0.0000E+00  0.0000E+00  0.0000E+00  0.0000E+00  0.0000E+00  0.0000E+00  0.0000E+00
     -3.418  0.3693E-02  0.3647E-02  0.1119E-04  0.1098E-04  0.1119E-04  0.1098E-04  0.1119E-04  0.1098E-04  0.0000E+00  0.0000E+00  0.0000E+00  0.0000E+00  0.0000E+00  0.0000E+00  0.0000E+00  0.0000E+00  0.0000E+00  0.0000E+00
     -3.345  0.5477E-02  0.5435E-02  0.2362E-04  0.2328E-04  0.2362E-04  0.2328E-04  0.2362E-04  0.2328E-04  0.0000E+00  0.0000E+00  0.0000E+00  0.0000E+00  0.0000E+00  0.0000E+00  0.0000E+00  0.0000E+00  0.0000E+00  0.0000E+00
     -3.271  0.7392E-02  0.7343E-02  0.4355E-04  0.4306E-04  0.4355E-04  0.4306E-04  0.4355E-04  0.4306E-04  0.0000E+00  0.0000E+00  0.0000E+00  0.0000E+00  0.0000E+00  0.0000E+00  0.0000E+00  0.0000E+00  0.0000E+00  0.0000E+00
     -3.197  0.8584E-02  0.8572E-02  0.6229E-04  0.6196E-04  0.6229E-04  0.6196E-04  0.6229E-04  0.6196E-04  0.0000E+00  0.0000E+00  0.0000E+00  0.0000E+00  0.0000E+00  0.0000E+00  0.0000E+00  0.0000E+00  0.0000E+00  0.0000E+00
     -3.124  0.8689E-02  0.8663E-02  0.8039E-04  0.7977E-04  0.8039E-04  0.7977E-04  0.8039E-04  0.7977E-04  0.0000E+00  0.0000E+00  0.0000E+00  0.0000E+00  0.0000E+00  0.0000E+00  0.0000E+00  0.0000E+00  0.0000E+00  0.0000E+00
     -3.050  0.1060E-01  0.1054E-01  0.1195E-03  0.1185E-03  0.1195E-03  0.1185E-03  0.1195E-03  0.1185E-03  0.0000E+00  0.0000E+00  0.0000E+00  0.0000E+00  0.0000E+00  0.0000E+00  0.0000E+00  0.0000E+00  0.0000E+00  0.0000E+00
     -2.977  0.1188E-01  0.1186E-01  0.1520E-03  0.1515E-03  0.1520E-03  0.1515E-03  0.1520E-03  0.1515E-03  0.0000E+00  0.0000E+00  0.0000E+00  0.0000E+00  0.0000E+00  0.0000E+00  0.0000E+00  0.0000E+00  0.0000E+00  0.0000E+00
     -2.903  0.1181E-01  0.1179E-01  0.1731E-03  0.1724E-03  0.1731E-03  0.1724E-03  0.1731E-03  0.1724E-03  0.0000E+00  0.0000E+00  0.0000E+00  0.0000E+00  0.0000E+00  0.0000E+00  0.0000E+00  0.0000E+00  0.0000E+00  0.0000E+00
     -2.830  0.1261E-01  0.1258E-01  0.2091E-03  0.2084E-03  0.2091E-03  0.2084E-03  0.2091E-03  0.2084E-03  0.0000E+00  0.0000E+00  0.0000E+00  0.0000E+00  0.0000E+00  0.0000E+00  0.0000E+00  0.0000E+00  0.0000E+00  0.0000E+00
     -2.756  0.1224E-01  0.1224E-01  0.2250E-03  0.2246E-03  0.2250E-03  0.2246E-03  0.2250E-03  0.2246E-03  0.0000E+00  0.0000E+00  0.0000E+00  0.0000E+00  0.0000E+00  0.0000E+00  0.0000E+00  0.0000E+00  0.0000E+00  0.0000E+00
     -2.683  0.1317E-01  0.1309E-01  0.2744E-03  0.2724E-03  0.2744E-03  0.2724E-03  0.2744E-03  0.2724E-03  0.0000E+00  0.0000E+00  0.0000E+00  0.0000E+00  0.0000E+00  0.0000E+00  0.0000E+00  0.0000E+00  0.0000E+00  0.0000E+00
     -2.609  0.1595E-01  0.1590E-01  0.3601E-03  0.3587E-03  0.3601E-03  0.3587E-03  0.3601E-03  0.3587E-03  0.0000E+00  0.0000E+00  0.0000E+00  0.0000E+00  0.0000E+00  0.0000E+00  0.0000E+00  0.0000E+00  0.0000E+00  0.0000E+00
     -2.536  0.1627E-01  0.1626E-01  0.3944E-03  0.3937E-03  0.3944E-03  0.3937E-03  0.3944E-03  0.3937E-03  0.0000E+00  0.0000E+00  0.0000E+00  0.0000E+00  0.0000E+00  0.0000E+00  0.0000E+00  0.0000E+00  0.0000E+00  0.0000E+00
     -2.462  0.1578E-01  0.1578E-01  0.4105E-03  0.4104E-03  0.4105E-03  0.4104E-03  0.4105E-03  0.4104E-03  0.0000E+00  0.0000E+00  0.0000E+00  0.0000E+00  0.0000E+00  0.0000E+00  0.0000E+00  0.0000E+00  0.0000E+00  0.0000E+00
     -2.389  0.1368E-01  0.1372E-01  0.3819E-03  0.3824E-03  0.3819E-03  0.3824E-03  0.3819E-03  0.3824E-03  0.0000E+00  0.0000E+00  0.0000E+00  0.0000E+00  0.0000E+00  0.0000E+00  0.0000E+00  0.0000E+00  0.0000E+00  0.0000E+00
     -2.315  0.1367E-01  0.1360E-01  0.4201E-03  0.4174E-03  0.4201E-03  0.4174E-03  0.4201E-03  0.4174E-03  0.0000E+00  0.0000E+00  0.0000E+00  0.0000E+00  0.0000E+00  0.0000E+00  0.0000E+00  0.0000E+00  0.0000E+00  0.0000E+00
     -2.242  0.1797E-01  0.1786E-01  0.5903E-03  0.5865E-03  0.5903E-03  0.5865E-03  0.5903E-03  0.5865E-03  0.0000E+00  0.0000E+00  0.0000E+00  0.0000E+00  0.0000E+00  0.0000E+00  0.0000E+00  0.0000E+00  0.0000E+00  0.0000E+00
     -2.168  0.1973E-01  0.1973E-01  0.6779E-03  0.6774E-03  0.6779E-03  0.6774E-03  0.6779E-03  0.6774E-03  0.0000E+00  0.0000E+00  0.0000E+00  0.0000E+00  0.0000E+00  0.0000E+00  0.0000E+00  0.0000E+00  0.0000E+00  0.0000E+00
     -2.094  0.1899E-01  0.1897E-01  0.6900E-03  0.6888E-03  0.6900E-03  0.6888E-03  0.6900E-03  0.6888E-03  0.0000E+00  0.0000E+00  0.0000E+00  0.0000E+00  0.0000E+00  0.0000E+00  0.0000E+00  0.0000E+00  0.0000E+00  0.0000E+00
     -2.021  0.1848E-01  0.1851E-01  0.7046E-03  0.7055E-03  0.7046E-03  0.7055E-03  0.7046E-03  0.7055E-03  0.0000E+00  0.0000E+00  0.0000E+00  0.0000E+00  0.0000E+00  0.0000E+00  0.0000E+00  0.0000E+00  0.0000E+00  0.0000E+00
     -1.947  0.1543E-01  0.1545E-01  0.6213E-03  0.6218E-03  0.6213E-03  0.6218E-03  0.6213E-03  0.6218E-03  0.0000E+00  0.0000E+00  0.0000E+00  0.0000E+00  0.0000E+00  0.0000E+00  0.0000E+00  0.0000E+00  0.0000E+00  0.0000E+00
     -1.874  0.1680E-01  0.1670E-01  0.7235E-03  0.7190E-03  0.7235E-03  0.7190E-03  0.7235E-03  0.7190E-03  0.0000E+00  0.0000E+00  0.0000E+00  0.0000E+00  0.0000E+00  0.0000E+00  0.0000E+00  0.0000E+00  0.0000E+00  0.0000E+00
     -1.800  0.2007E-01  0.2001E-01  0.9012E-03  0.8985E-03  0.9012E-03  0.8985E-03  0.9012E-03  0.8985E-03  0.0000E+00  0.0000E+00  0.0000E+00  0.0000E+00  0.0000E+00  0.0000E+00  0.0000E+00  0.0000E+00  0.0000E+00  0.0000E+00
     -1.727  0.1996E-01  0.1996E-01  0.9340E-03  0.9339E-03  0.9340E-03  0.9339E-03  0.9340E-03  0.9339E-03  0.0000E+00  0.0000E+00  0.0000E+00  0.0000E+00  0.0000E+00  0.0000E+00  0.0000E+00  0.0000E+00  0.0000E+00  0.0000E+00
     -1.653  0.1921E-01  0.1920E-01  0.9437E-03  0.9426E-03  0.9437E-03  0.9426E-03  0.9437E-03  0.9426E-03  0.0000E+00  0.0000E+00  0.0000E+00  0.0000E+00  0.0000E+00  0.0000E+00  0.0000E+00  0.0000E+00  0.0000E+00  0.0000E+00
     -1.580  0.1897E-01  0.1895E-01  0.9763E-03  0.9747E-03  0.9763E-03  0.9747E-03  0.9763E-03  0.9747E-03  0.0000E+00  0.0000E+00  0.0000E+00  0.0000E+00  0.0000E+00  0.0000E+00  0.0000E+00  0.0000E+00  0.0000E+00  0.0000E+00
     -1.506  0.2136E-01  0.2125E-01  0.1151E-02  0.1145E-02  0.1151E-02  0.1145E-02  0.1151E-02  0.1145E-02  0.0000E+00  0.0000E+00  0.0000E+00  0.0000E+00  0.0000E+00  0.0000E+00  0.0000E+00  0.0000E+00  0.0000E+00  0.0000E+00
     -1.433  0.2364E-01  0.2363E-01  0.1313E-02  0.1312E-02  0.1313E-02  0.1312E-02  0.1313E-02  0.1312E-02  0.0000E+00  0.0000E+00  0.0000E+00  0.0000E+00  0.0000E+00  0.0000E+00  0.0000E+00  0.0000E+00  0.0000E+00  0.0000E+00
     -1.359  0.2119E-01  0.2121E-01  0.1217E-02  0.1218E-02  0.1217E-02  0.1218E-02  0.1217E-02  0.1218E-02  0.0000E+00  0.0000E+00  0.0000E+00  0.0000E+00  0.0000E+00  0.0000E+00  0.0000E+00  0.0000E+00  0.0000E+00  0.0000E+00
     -1.286  0.2034E-01  0.2033E-01  0.1217E-02  0.1216E-02  0.1217E-02  0.1216E-02  0.1217E-02  0.1216E-02  0.0000E+00  0.0000E+00  0.0000E+00  0.0000E+00  0.0000E+00  0.0000E+00  0.0000E+00  0.0000E+00  0.0000E+00  0.0000E+00
     -1.212  0.1797E-01  0.1804E-01  0.1111E-02  0.1115E-02  0.1111E-02  0.1115E-02  0.1111E-02  0.1115E-02  0.0000E+00  0.0000E+00  0.0000E+00  0.0000E+00  0.0000E+00  0.0000E+00  0.0000E+00  0.0000E+00  0.0000E+00  0.0000E+00
     -1.138  0.1623E-01  0.1617E-01  0.1055E-02  0.1050E-02  0.1055E-02  0.1050E-02  0.1055E-02  0.1050E-02  0.0000E+00  0.0000E+00  0.0000E+00  0.0000E+00  0.0000E+00  0.0000E+00  0.0000E+00  0.0000E+00  0.0000E+00  0.0000E+00
     -1.065  0.2145E-01  0.2129E-01  0.1453E-02  0.1443E-02  0.1453E-02  0.1443E-02  0.1453E-02  0.1443E-02  0.0000E+00  0.0000E+00  0.0000E+00  0.0000E+00  0.0000E+00  0.0000E+00  0.0000E+00  0.0000E+00  0.0000E+00  0.0000E+00
     -0.991  0.2520E-01  0.2515E-01  0.1754E-02  0.1750E-02  0.1754E-02  0.1750E-02  0.1754E-02  0.1750E-02  0.0000E+00  0.0000E+00  0.0000E+00  0.0000E+00  0.0000E+00  0.0000E+00  0.0000E+00  0.0000E+00  0.0000E+00  0.0000E+00
     -0.918  0.2570E-01  0.2565E-01  0.1848E-02  0.1844E-02  0.1848E-02  0.1844E-02  0.1848E-02  0.1844E-02  0.0000E+00  0.0000E+00  0.0000E+00  0.0000E+00  0.0000E+00  0.0000E+00  0.0000E+00  0.0000E+00  0.0000E+00  0.0000E+00
     -0.844  0.2594E-01  0.2595E-01  0.1917E-02  0.1918E-02  0.1917E-02  0.1918E-02  0.1917E-02  0.1918E-02  0.0000E+00  0.0000E+00  0.0000E+00  0.0000E+00  0.0000E+00  0.0000E+00  0.0000E+00  0.0000E+00  0.0000E+00  0.0000E+00