   4   4   1   0
  0.1504180E+02  0.3918501E-09  0.3918501E-09  0.3918501E-09  0.5000000E-15
  1.000000000000000E-004
  CAR 
 unknown system                          
     21.37222051     -3.94162199  301      8.97425327      1.00000000
     -3.942  0.0000E+00  0.0000E+00  0.0000E+00  0.0000E+00
     -3.857  0.0000E+00  0.0000E+00  0.0000E+00  0.0000E+00
     -3.773  0.0000E+00  0.0000E+00  0.0000E+00  0.0000E+00
     -3.688  0.0000E+00  0.0000E+00  0.0000E+00  0.0000E+00
     -3.604  0.0000E+00  0.0000E+00  0.0000E+00  0.0000E+00
     -3.520  0.0000E+00  0.0000E+00  0.0000E+00  0.0000E+00
     -3.435  0.0000E+00  0.0000E+00  0.0000E+00  0.0000E+00
     -3.351  0.0000E+00  0.0000E+00  0.0000E+00  0.0000E+00
     -3.267  0.3990E-06  0.3827E-06  0.3367E-07  0.3229E-07
     -3.182  0.5895E-05  0.5655E-05  0.5311E-06  0.5094E-06
     -3.098  0.4506E-04  0.4323E-04  0.4333E-05  0.4157E-05
     -3.013  0.2292E-03  0.2199E-03  0.2367E-04  0.2271E-04
     -2.929  0.1243E-02  0.1194E-02  0.1286E-03  0.1235E-03
     -2.845  0.6011E-02  0.5794E-02  0.6358E-03  0.6123E-03
     -2.760  0.2242E-01  0.2181E-01  0.2527E-02  0.2453E-02
     -2.676  0.5171E-01  0.5099E-01  0.6891E-02  0.6755E-02
     -2.592  0.7604E-01  0.7550E-01  0.1331E-01  0.1313E-01
     -2.507  0.1051E+00  0.1042E+00  0.2217E-01  0.2192E-01
     -2.423  0.1239E+00  0.1240E+00  0.3263E-01  0.3238E-01
     -2.338  0.1181E+00  0.1179E+00  0.4260E-01  0.4233E-01
     -2.254  0.1525E+00  0.1514E+00  0.5547E-01  0.5512E-01
     -2.170  0.1734E+00  0.1735E+00  0.7011E-01  0.6976E-01
     -2.085  0.1671E+00  0.1671E+00  0.8422E-01  0.8387E-01
     -2.001  0.1855E+00  0.1851E+00  0.9989E-01  0.9949E-01
     -1.917  0.1747E+00  0.1754E+00  0.1146E+00  0.1143E+00
     -1.832  0.1874E+00  0.1860E+00  0.1305E+00  0.1300E+00
     -1.748  0.2413E+00  0.2407E+00  0.1508E+00  0.1503E+00
     -1.663  0.2421E+00  0.2422E+00  0.1713E+00  0.1708E+00
     -1.579  0.2385E+00  0.2388E+00  0.1914E+00  0.1910E+00
     -1.495  0.1992E+00  0.2004E+00  0.2082E+00  0.2079E+00
     -1.410  0.1944E+00  0.1931E+00  0.2247E+00  0.2242E+00
     -1.326  0.2788E+00  0.2767E+00  0.2482E+00  0.2476E+00
     -1.241  0.3069E+00  0.3075E+00  0.2741E+00  0.2735E+00
     -1.157  0.2886E+00  0.2883E+00  0.2985E+00  0.2979E+00
     -1.073  0.2916E+00  0.2927E+00  0.3231E+00  0.3226E+00
     -0.988  0.2254E+00  0.2264E+00  0.3421E+00  0.3417E+00
     -0.904  0.2578E+00  0.2558E+00  0.3640E+00  0.3633E+00
     -0.820  0.3235E+00  0.3229E+00  0.3913E+00  0.3906E+00
     -0.735  0.3145E+00  0.3152E+00  0.4179E+00  0.4172E+00
     -0.651  0.3031E+00  0.3031E+00  0.4434E+00  0.4428E+00
     -0.566  0.2954E+00  0.2956E+00  0.4684E+00  0.4678E+00
     -0.482  0.3449E+00  0.3426E+00  0.4975E+00  0.4967E+00
     -0.398  0.3934E+00  0.3940E+00  0.5307E+00  0.5300E+00
     -0.313  0.3363E+00  0.3372E+00  0.5591E+00  0.5584E+00
     -0.229  0.3360E+00  0.3358E+00  0.5875E+00  0.5868E+00
     -0.145  0.2889E+00  0.2911E+00  0.6119E+00  0.6114E+00
     -0.060  0.2501E+00  0.2489E+00  0.6331E+00  0.6325E+00
      0.024  0.3689E+00  0.3657E+00  0.6642E+00  0.6633E+00
      0.109  0.4306E+00  0.4307E+00  0.7006E+00  0.6997E+00
      0.193  0.4341E+00  0.4333E+00  0.7372E+00  0.7363E+00
      0.277  0.4484E+00  0.4495E+00  0.7751E+00  0.7742E+00
      0.362  0.3651E+00  0.3669E+00  0.8059E+00  0.8052E+00
      0.446  0.3379E+00  0.3378E+00  0.8344E+00  0.8337E+00
      0.530  0.3443E+00  0.3440E+00  0.8635E+00  0.8628E+00
      0.615  0.3634E+00  0.3624E+00  0.8942E+00  0.8934E+00
      0.699  0.4159E+00  0.4153E+00  0.9293E+00  0.9285E+00
      0.784  0.3685E+00  0.3700E+00  0.9605E+00  0.9597E+00
      0.868  0.4090E+00  0.4058E+00  0.9950E+00  0.9940E+00
      0.952  0.5060E+00  0.5057E+00  0.1038E+01  0.1037E+01
      1.037  0.4735E+00  0.4741E+00  0.1078E+01  0.1077E+01
      1.121  0.4580E+00  0.4591E+00  0.1116E+01  0.1116E+01
      1.206  0.3615E+00  0.3639E+00  0.1147E+01  0.1146E+01
      1.290  0.3654E+00  0.3627E+00  0.1178E+01  0.1177E+01
      1.374  0.5068E+00  0.5043E+00  0.1221E+01  0.1219E+01
      1.459  0.5182E+00  0.5197E+00  0.1264E+01  0.1263E+01
      1.543  0.4633E+00  0.4644E+00  0.1303E+01  0.1303E+01
      1.627  0.3811E+00  0.3837E+00  0.1336E+01  0.1335E+01
      1.712  0.3552E+00  0.3534E+00  0.1366E+01  0.1365E+01
      1.796  0.4709E+00  0.4687E+00  0.1405E+01  0.1404E+01
      1.881  0.5032E+00  0.5033E+00  0.1448E+01  0.1447E+01
      1.965  0.5009E+00  0.5006E+00  0.1490E+01  0.1489E+01
      2.049  0.5071E+00  0.5077E+00  0.1533E+01  0.1532E+01
      2.134  0.4924E+00  0.4909E+00  0.1575E+01  0.1573E+01
      2.218  0.6425E+00  0.6391E+00  0.1629E+01  0.1627E+01
      2.302  0.6089E+00  0.6136E+00  0.1680E+01  0.1679E+01
      2.387  0.4150E+00  0.4177E+00  0.1715E+01  0.1715E+01
      2.471  0.3884E+00  0.3885E+00  0.1748E+01  0.1747E+01
      2.556  0.3497E+00  0.3504E+00  0.1778E+01  0.1777E+01
      2.640  0.4167E+00  0.4137E+00  0.1813E+01  0.1812E+01
      2.724  0.5725E+00  0.5699E+00  0.1861E+01  0.1860E+01
      2.809  0.6356E+00  0.6344E+00  0.1915E+01  0.1914E+01
      2.893  0.6350E+00  0.6373E+00  0.1969E+01  0.1967E+01
      2.977  0.5071E+00  0.5088E+00  0.2011E+01  0.2010E+01
      3.062  0.5493E+00  0.5472E+00  0.2058E+01  0.2057E+01
      3.146  0.5893E+00  0.5897E+00  0.2108E+01  0.2106E+01
      3.231  0.5583E+00  0.5587E+00  0.2155E+01  0.2154E+01
      3.315  0.5798E+00  0.5794E+00  0.2204E+01  0.2202E+01
      3.399  0.4977E+00  0.5012E+00  0.2246E+01  0.2245E+01
      3.484  0.4483E+00  0.4462E+00  0.2283E+01  0.2282E+01
      3.568  0.5767E+00  0.5745E+00  0.2332E+01  0.2331E+01
      3.653  0.6257E+00  0.6250E+00  0.2385E+01  0.2384E+01
      3.737  0.6343E+00  0.6353E+00  0.2439E+01  0.2438E+01
      3.821  0.5289E+00  0.5315E+00  0.2483E+01  0.2482E+01
      3.906  0.5286E+00  0.5264E+00  0.2528E+01  0.2527E+01
      3.990  0.6278E+00  0.6271E+00  0.2581E+01  0.2580E+01
      4.074  0.6006E+00  0.6011E+00  0.2632E+01  0.2631E+01
      4.159  0.6610E+00  0.6592E+00  0.2687E+01  0.2686E+01
      4.243  0.6212E+00  0.6240E+00  0.2740E+01  0.2739E+01
      4.328  0.5718E+00  0.5705E+00  0.2788E+01  0.2787E+01
      4.412  0.6611E+00  0.6597E+00  0.2844E+01  0.2843E+01
      4.496  0.6709E+00  0.6718E+00  0.2901E+01  0.2900E+01
      4.581  0.6105E+00  0.6118E+00  0.2952E+01  0.2951E+01
      4.665  0.5501E+00  0.5513E+00  0.2999E+01  0.2998E+01
      4.749  0.5513E+00  0.5492E+00  0.3045E+01  0.3044E+01
      4.834  0.6514E+00  0.6500E+00  0.3100E+01  0.3099E+01
      4.918  0.6572E+00  0.6579E+00  0.3156E+01  0.3155E+01
      5.003  0.5549E+00  0.5591E+00  0.3203E+01  0.3202E+01
      5.087  0.4075E+00  0.4081E+00  0.3237E+01  0.3236E+01
      5.171  0.5580E+00  0.5526E+00  0.3284E+01  0.3283E+01
      5.256  0.7707E+00  0.7677E+00  0.3349E+01  0.3348E+01
      5.340  0.8175E+00  0.8183E+00  0.3418E+01  0.3417E+01
      5.424  0.7752E+00  0.7759E+00  0.3484E+01  0.3482E+01
      5.509  0.7426E+00  0.7436E+00  0.3546E+01  0.3545E+01
      5.593  0.7054E+00  0.7063E+00  0.3606E+01  0.3605E+01
      5.678  0.6638E+00  0.6638E+00  0.3662E+01  0.3661E+01
      5.762  0.6509E+00  0.6510E+00  0.3717E+01  0.3716E+01
      5.846  0.6347E+00  0.6360E+00  0.3771E+01  0.3770E+01
      5.931  0.6088E+00  0.6097E+00  0.3822E+01  0.3821E+01
      6.015  0.6598E+00  0.6584E+00  0.3878E+01  0.3877E+01
      6.100  0.7349E+00  0.7324E+00  0.3940E+01  0.3939E+01
      6.184  0.8034E+00  0.8034E+00  0.4008E+01  0.4006E+01
      6.268  0.7048E+00  0.7073E+00  0.4067E+01  0.4066E+01
      6.353  0.7307E+00  0.7283E+00  0.4129E+01  0.4128E+01
      6.437  0.8237E+00  0.8235E+00  0.4199E+01  0.4197E+01
      6.521  0.7630E+00  0.7646E+00  0.4263E+01  0.4262E+01
      6.606  0.6732E+00  0.6755E+00  0.4320E+01  0.4319E+01
      6.690  0.5944E+00  0.5946E+00  0.4370E+01  0.4369E+01
      6.775  0.6363E+00  0.6354E+00  0.4424E+01  0.4423E+01
      6.859  0.6146E+00  0.6166E+00  0.4476E+01  0.4475E+01
      6.943  0.5712E+00  0.5709E+00  0.4524E+01  0.4523E+01
      7.028  0.6238E+00  0.6223E+00  0.4577E+01  0.4576E+01
      7.112  0.6587E+00  0.6577E+00  0.4632E+01  0.4631E+01
      7.196  0.7660E+00  0.7639E+00  0.4697E+01  0.4696E+01
      7.281  0.7859E+00  0.7876E+00  0.4763E+01  0.4762E+01
      7.365  0.7079E+00  0.7066E+00  0.4823E+01  0.4822E+01
      7.450  0.7319E+00  0.7317E+00  0.4885E+01  0.4884E+01
      7.534  0.6605E+00  0.6616E+00  0.4941E+01  0.4939E+01
      7.618  0.6645E+00  0.6640E+00  0.4997E+01  0.4996E+01
      7.703  0.6424E+00  0.6439E+00  0.5051E+01  0.5050E+01
      7.787  0.7117E+00  0.7081E+00  0.5111E+01  0.5110E+01
      7.872  0.8704E+00  0.8676E+00  0.5185E+01  0.5183E+01
      7.956  0.8012E+00  0.8061E+00  0.5252E+01  0.5251E+01
      8.040  0.5954E+00  0.5982E+00  0.5303E+01  0.5302E+01
      8.125  0.6090E+00  0.6059E+00  0.5354E+01  0.5353E+01
      8.209  0.7649E+00  0.7627E+00  0.5419E+01  0.5417E+01
      8.293  0.6851E+00  0.6881E+00  0.5477E+01  0.5475E+01
      8.378  0.6422E+00  0.6412E+00  0.5531E+01  0.5529E+01
      8.462  0.8179E+00  0.8136E+00  0.5600E+01  0.5598E+01
      8.547  0.8733E+00  0.8755E+00  0.5674E+01  0.5672E+01
      8.631  0.7844E+00  0.7834E+00  0.5740E+01  0.5738E+01
      8.715  0.8420E+00  0.8395E+00  0.5811E+01  0.5809E+01
      8.800  0.7478E+00  0.7513E+00  0.5874E+01  0.5873E+01
      8.884  0.6805E+00  0.6799E+00  0.5932E+01  0.5930E+01
      8.968  0.7663E+00  0.7653E+00  0.5996E+01  0.5995E+01
      9.053  0.7445E+00  0.7468E+00  0.6059E+01  0.6058E+01
      9.137  0.6046E+00  0.6095E+00  0.6110E+01  0.6109E+01
      9.222  0.5157E+00  0.5162E+00  0.6154E+01  0.6153E+01
      9.306  0.6008E+00  0.5966E+00  0.6205E+01  0.6203E+01
      9.390  0.6881E+00  0.6854E+00  0.6263E+01  0.6261E+01
      9.475  0.7499E+00  0.7472E+00  0.6326E+01  0.6324E+01
      9.559  0.9233E+00  0.9187E+00  0.6404E+01  0.6402E+01
      9.643  0.1057E+01  0.1056E+01  0.6493E+01  0.6491E+01
      9.728  0.1026E+01  0.1028E+01  0.6580E+01  0.6578E+01
      9.812  0.8753E+00  0.8801E+00  0.6654E+01  0.6652E+01
      9.897  0.7383E+00  0.7385E+00  0.6716E+01  0.6714E+01
      9.981  0.7701E+00  0.7703E+00  0.6781E+01  0.6780E+01
     10.065  0.8378E+00  0.8374E+00  0.6852E+01  0.6850E+01
     10.150  0.8534E+00  0.8542E+00  0.6924E+01  0.6922E+01
     10.234  0.7182E+00  0.7235E+00  0.6985E+01  0.6983E+01
     10.319  0.5863E+00  0.5873E+00  0.7034E+01  0.7033E+01
     10.403  0.6515E+00  0.6481E+00  0.7089E+01  0.7088E+01
     10.487  0.8063E+00  0.8015E+00  0.7157E+01  0.7156E+01
     10.572  0.9170E+00  0.9152E+00  0.7235E+01  0.7233E+01
     10.656  0.8528E+00  0.8539E+00  0.7307E+01  0.7305E+01
     10.740  0.9310E+00  0.9278E+00  0.7385E+01  0.7383E+01
     10.825  0.9047E+00  0.9087E+00  0.7462E+01  0.7460E+01
     10.909  0.7373E+00  0.7421E+00  0.7524E+01  0.7523E+01
     10.994  0.6426E+00  0.6417E+00  0.7578E+01  0.7577E+01
     11.078  0.7438E+00  0.7411E+00  0.7641E+01  0.7639E+01
     11.162  0.8127E+00  0.8136E+00  0.7710E+01  0.7708E+01
     11.247  0.7521E+00  0.7510E+00  0.7773E+01  0.7772E+01
     11.331  0.7517E+00  0.7479E+00  0.7837E+01  0.7835E+01
     11.415  0.8476E+00  0.8434E+00  0.7908E+01  0.7906E+01
     11.500  0.9542E+00  0.9551E+00  0.7989E+01  0.7987E+01
     11.584  0.9493E+00  0.9521E+00  0.8069E+01  0.8067E+01
     11.669  0.9461E+00  0.9486E+00  0.8149E+01  0.8147E+01
     11.753  0.8236E+00  0.8262E+00  0.8219E+01  0.8217E+01
     11.837  0.7746E+00  0.7718E+00  0.8284E+01  0.8282E+01
     11.922  0.8792E+00  0.8750E+00  0.8358E+01  0.8356E+01
     12.006  0.9338E+00  0.9287E+00  0.8437E+01  0.8434E+01
     12.090  0.9947E+00  0.9933E+00  0.8521E+01  0.8518E+01
     12.175  0.9504E+00  0.9552E+00  0.8601E+01  0.8599E+01
     12.259  0.8638E+00  0.8670E+00  0.8674E+01  0.8672E+01
     12.344  0.7707E+00  0.7724E+00  0.8740E+01  0.8737E+01
     12.428  0.7105E+00  0.7134E+00  0.8800E+01  0.8798E+01
     12.512  0.7404E+00  0.7389E+00  0.8862E+01  0.8860E+01
     12.597  0.8761E+00  0.8744E+00  0.8936E+01  0.8934E+01
     12.681  0.9526E+00  0.9524E+00  0.9017E+01  0.9014E+01
     12.766  0.8501E+00  0.8511E+00  0.9088E+01  0.9086E+01
     12.850  0.7963E+00  0.7910E+00  0.9156E+01  0.9153E+01
     12.934  0.9353E+00  0.9287E+00  0.9235E+01  0.9231E+01
     13.019  0.1087E+01  0.1083E+01  0.9326E+01  0.9323E+01
     13.103  0.1056E+01  0.1062E+01  0.9416E+01  0.9413E+01
     13.187  0.8458E+00  0.8549E+00  0.9487E+01  0.9485E+01
     13.272  0.6699E+00  0.6744E+00  0.9544E+01  0.9542E+01
     13.356  0.7721E+00  0.7667E+00  0.9609E+01  0.9607E+01
     13.441  0.1000E+01  0.9902E+00  0.9693E+01  0.9690E+01
     13.525  0.1264E+01  0.1258E+01  0.9800E+01  0.9796E+01
     13.609  0.1205E+01  0.1213E+01  0.9902E+01  0.9899E+01
     13.694  0.1017E+01  0.1021E+01  0.9988E+01  0.9985E+01
     13.778  0.9143E+00  0.9163E+00  0.1006E+02  0.1006E+02
     13.862  0.8486E+00  0.8474E+00  0.1014E+02  0.1013E+02
     13.947  0.8521E+00  0.8530E+00  0.1021E+02  0.1021E+02
     14.031  0.8322E+00  0.8343E+00  0.1028E+02  0.1028E+02
     14.116  0.8134E+00  0.8102E+00  0.1035E+02  0.1034E+02
     14.200  0.8392E+00  0.8392E+00  0.1042E+02  0.1042E+02
     14.284  0.8613E+00  0.8583E+00  0.1049E+02  0.1049E+02
     14.369  0.9447E+00  0.9474E+00  0.1057E+02  0.1057E+02
     14.453  0.8064E+00  0.8156E+00  0.1064E+02  0.1064E+02
     14.537  0.7999E+00  0.7949E+00  0.1071E+02  0.1070E+02
     14.622  0.1105E+01  0.1093E+01  0.1080E+02  0.1080E+02
     14.706  0.1119E+01  0.1122E+01  0.1089E+02  0.1089E+02
     14.791  0.8128E+00  0.8235E+00  0.1096E+02  0.1096E+02
     14.875  0.5700E+00  0.5767E+00  0.1101E+02  0.1101E+02
     14.959  0.5744E+00  0.5750E+00  0.1106E+02  0.1106E+02
     15.044  0.7122E+00  0.7087E+00  0.1112E+02  0.1112E+02
     15.128  0.8225E+00  0.8184E+00  0.1119E+02  0.1119E+02
     15.213  0.7765E+00  0.7815E+00  0.1125E+02  0.1125E+02
     15.297  0.5126E+00  0.5187E+00  0.1130E+02  0.1130E+02
     15.381  0.2901E+00  0.2965E+00  0.1132E+02  0.1132E+02
     15.466  0.1509E+00  0.1541E+00  0.1134E+02  0.1134E+02
     15.550  0.1692E+00  0.1650E+00  0.1135E+02  0.1135E+02
     15.634  0.4055E+00  0.3960E+00  0.1138E+02  0.1138E+02
     15.719  0.5755E+00  0.5765E+00  0.1143E+02  0.1143E+02
     15.803  0.5380E+00  0.5449E+00  0.1148E+02  0.1148E+02
     15.888  0.3649E+00  0.3698E+00  0.1151E+02  0.1151E+02
     15.972  0.2178E+00  0.2177E+00  0.1153E+02  0.1153E+02
     16.056  0.2131E+00  0.2114E+00  0.1155E+02  0.1154E+02
     16.141  0.2415E+00  0.2394E+00  0.1157E+02  0.1157E+02
     16.225  0.2607E+00  0.2615E+00  0.1159E+02  0.1159E+02
     16.309  0.2094E+00  0.2096E+00  0.1161E+02  0.1160E+02
     16.394  0.2461E+00  0.2426E+00  0.1163E+02  0.1163E+02
     16.478  0.2903E+00  0.2911E+00  0.1165E+02  0.1165E+02
     16.563  0.2481E+00  0.2501E+00  0.1167E+02  0.1167E+02
     16.647  0.2120E+00  0.2114E+00  0.1169E+02  0.1169E+02
     16.731  0.2383E+00  0.2355E+00  0.1171E+02  0.1171E+02
     16.816  0.2706E+00  0.2724E+00  0.1173E+02  0.1173E+02
     16.900  0.2092E+00  0.2145E+00  0.1175E+02  0.1175E+02
     16.984  0.1020E+00  0.1058E+00  0.1176E+02  0.1176E+02
     17.069  0.8470E-01  0.8546E-01  0.1177E+02  0.1177E+02
     17.153  0.1555E+00  0.1553E+00  0.1178E+02  0.1178E+02
     17.238  0.1415E+00  0.1406E+00  0.1179E+02  0.1179E+02
     17.322  0.1318E+00  0.1284E+00  0.1180E+02  0.1180E+02
     17.406  0.1805E+00  0.1800E+00  0.1182E+02  0.1182E+02
     17.491  0.1165E+00  0.1192E+00  0.1183E+02  0.1183E+02
     17.575  0.8837E-01  0.8648E-01  0.1183E+02  0.1183E+02
     17.660  0.1544E+00  0.1520E+00  0.1185E+02  0.1185E+02
     17.744  0.1434E+00  0.1464E+00  0.1186E+02  0.1186E+02
     17.828  0.1190E+00  0.1195E+00  0.1187E+02  0.1187E+02
     17.913  0.1374E+00  0.1392E+00  0.1188E+02  0.1188E+02
     17.997  0.1454E+00  0.1491E+00  0.1189E+02  0.1189E+02
     18.081  0.1576E+00  0.1593E+00  0.1191E+02  0.1191E+02
     18.166  0.8082E-01  0.7883E-01  0.1191E+02  0.1191E+02
     18.250  0.2332E-01  0.2260E-01  0.1192E+02  0.1192E+02
     18.335  0.1895E-01  0.1795E-01  0.1192E+02  0.1192E+02
     18.419  0.5012E-01  0.4830E-01  0.1192E+02  0.1192E+02
     18.503  0.8611E-01  0.8406E-01  0.1193E+02  0.1193E+02
     18.588  0.1212E+00  0.1191E+00  0.1194E+02  0.1194E+02
     18.672  0.1054E+00  0.1086E+00  0.1195E+02  0.1195E+02
     18.756  0.4378E-01  0.4631E-01  0.1195E+02  0.1195E+02
     18.841  0.2786E-01  0.2767E-01  0.1195E+02  0.1195E+02
     18.925  0.6882E-01  0.6675E-01  0.1196E+02  0.1196E+02
     19.010  0.1023E+00  0.1028E+00  0.1197E+02  0.1197E+02
     19.094  0.5087E-01  0.5294E-01  0.1197E+02  0.1197E+02
     19.178  0.1254E-01  0.1323E-01  0.1197E+02  0.1197E+02
     19.263  0.2661E-02  0.2708E-02  0.1197E+02  0.1197E+02
     19.347  0.1561E-02  0.1053E-02  0.1197E+02  0.1197E+02
     19.431  0.5647E-02  0.2975E-02  0.1198E+02  0.1197E+02
     19.516  0.2357E-01  0.1397E-01  0.1198E+02  0.1198E+02
     19.600  0.5044E-01  0.4196E-01  0.1198E+02  0.1198E+02
     19.685  0.3560E-01  0.4684E-01  0.1198E+02  0.1198E+02
     19.769  0.1051E-01  0.1830E-01  0.1199E+02  0.1199E+02
     19.853  0.3205E-02  0.5197E-02  0.1199E+02  0.1199E+02
     19.938  0.5936E-02  0.6658E-02  0.1199E+02  0.1199E+02
     20.022  0.2196E-01  0.2388E-01  0.1199E+02  0.1199E+02
     20.107  0.4550E-01  0.5108E-01  0.1199E+02  0.1199E+02
     20.191  0.4822E-01  0.4748E-01  0.1200E+02  0.1200E+02
     20.275  0.3399E-01  0.2877E-01  0.1200E+02  0.1200E+02
     20.360  0.1255E-01  0.1094E-01  0.1200E+02  0.1200E+02
     20.444  0.2847E-02  0.2546E-02  0.1200E+02  0.1200E+02
     20.528  0.5138E-03  0.4055E-03  0.1200E+02  0.1200E+02
     20.613  0.7106E-04  0.7585E-04  0.1200E+02  0.1200E+02
     20.697  0.0000E+00  0.0000E+00  0.1200E+02  0.1200E+02
     20.782  0.0000E+00  0.0000E+00  0.1200E+02  0.1200E+02
     20.866  0.0000E+00  0.0000E+00  0.1200E+02  0.1200E+02
     20.950  0.0000E+00  0.0000E+00  0.1200E+02  0.1200E+02
     21.035  0.0000E+00  0.0000E+00  0.1200E+02  0.1200E+02
     21.119  0.0000E+00  0.0000E+00  0.1200E+02  0.1200E+02
     21.203  0.0000E+00  0.0000E+00  0.1200E+02  0.1200E+02
     21.288  0.0000E+00  0.0000E+00  0.1200E+02  0.1200E+02
     21.372  0.0000E+00  0.0000E+00  0.1200E+02  0.1200E+02
     21.37222051     -3.94162199  301      8.97425327      1.00000000
     -3.942  0.0000E+00  0.0000E+00  0.0000E+00  0.0000E+00  0.0000E+00  0.0000E+00  0.0000E+00  0.0000E+00  0.0000E+00  0.0000E+00  0.0000E+00  0.0000E+00  0.0000E+00  0.0000E+00  0.0000E+00  0.0000E+00  0.0000E+00  0.0000E+00
     -3.857  0.0000E+00  0.0000E+00  0.0000E+00  0.0000E+00  0.0000E+00  0.0000E+00  0.0000E+00  0.0000E+00  0.0000E+00  0.0000E+00  0.0000E+00  0.0000E+00  0.0000E+00  0.0000E+00  0.0000E+00  0.0000E+00  0.0000E+00  0.0000E+00
     -3.773  0.0000E+00  0.0000E+00  0.0000E+00  0.0000E+00  0.0000E+00  0.0000E+00  0.0000E+00  0.0000E+00  0.0000E+00  0.0000E+00  0.0000E+00  0.0000E+00  0.0000E+00  0.0000E+00  0.0000E+00  0.0000E+00  0.0000E+00  0.0000E+00
     -3.688  0.0000E+00  0.0000E+00  0.0000E+00  0.0000E+00  0.0000E+00  0.0000E+00  0.0000E+00  0.0000E+00  0.0000E+00  0.0000E+00  0.0000E+00  0.0000E+00  0.0000E+00  0.0000E+00  0.0000E+00  0.0000E+00  0.0000E+00  0.0000E+00
     -3.604  0.0000E+00  0.0000E+00  0.0000E+00  0.0000E+00  0.0000E+00  0.0000E+00  0.0000E+00  0.0000E+00  0.0000E+00  0.0000E+00  0.0000E+00  0.0000E+00  0.0000E+00  0.0000E+00  0.0000E+00  0.0000E+00  0.0000E+00  0.0000E+00
     -3.520  0.0000E+00  0.0000E+00  0.0000E+00  0.0000E+00  0.0000E+00  0.0000E+00  0.0000E+00  0.0000E+00  0.0000E+00  0.0000E+00  0.0000E+00  0.0000E+00  0.0000E+00  0.0000E+00  0.0000E+00  0.0000E+00  0.0000E+00  0.0000E+00
     -3.435  0.0000E+00  0.0000E+00  0.0000E+00  0.0000E+00  0.0000E+00  0.0000E+00  0.0000E+00  0.0000E+00  0.0000E+00  0.0000E+00  0.0000E+00  0.0000E+00  0.0000E+00  0.0000E+00  0.0000E+00  0.0000E+00  0.0000E+00  0.0000E+00
     -3.351  0.0000E+00  0.0000E+00  0.0000E+00  0.0000E+00  0.0000E+00  0.0000E+00  0.0000E+00  0.0000E+00  0.0000E+00  0.0000E+00  0.0000E+00  0.0000E+00  0.0000E+00  0.0000E+00  0.0000E+00  0.0000E+00  0.0000E+00  0.0000E+00
     -3.267  0.2867E-07  0.2747E-07  0.1120E-24  0.9156E-25  0.1120E-24  0.9156E-25  0.1120E-24  0.9156E-25  0.0000E+00  0.0000E+00  0.0000E+00  0.0000E+00  0.0000E+00  0.0000E+00  0.0000E+00  0.0000E+00  0.0000E+00  0.0000E+00
     -3.182  0.4222E-06  0.4047E-06  0.4347E-09  0.4169E-09  0.4347E-09  0.4169E-09  0.4347E-09  0.4169E-09  0.0000E+00  0.0000E+00  0.0000E+00  0.0000E+00  0.0000E+00  0.0000E+00  0.0000E+00  0.0000E+00  0.0000E+00  0.0000E+00
     -3.098  0.3220E-05  0.3086E-05  0.5873E-08  0.5632E-08  0.5873E-08  0.5632E-08  0.5873E-08  0.5632E-08  0.0000E+00  0.0000E+00  0.0000E+00  0.0000E+00  0.0000E+00  0.0000E+00  0.0000E+00  0.0000E+00  0.0000E+00  0.0000E+00
     -3.013  0.1638E-04  0.1570E-04  0.2940E-07  0.2819E-07  0.2940E-07  0.2819E-07  0.2940E-07  0.2819E-07  0.0000E+00  0.0000E+00  0.0000E+00  0.0000E+00  0.0000E+00  0.0000E+00  0.0000E+00  0.0000E+00  0.0000E+00  0.0000E+00
     -2.929  0.8881E-04  0.8521E-04  0.1755E-06  0.1684E-06  0.1755E-06  0.1684E-06  0.1755E-06  0.1684E-06  0.0000E+00  0.0000E+00  0.0000E+00  0.0000E+00  0.0000E+00  0.0000E+00  0.0000E+00  0.0000E+00  0.0000E+00  0.0000E+00
     -2.845  0.4292E-03  0.4134E-03  0.8871E-06  0.8526E-06  0.8871E-06  0.8526E-06  0.8871E-06  0.8526E-06  0.0000E+00  0.0000E+00  0.0000E+00  0.0000E+00  0.0000E+00  0.0000E+00  0.0000E+00  0.0000E+00  0.0000E+00  0.0000E+00
     -2.760  0.1599E-02  0.1555E-02  0.3948E-05  0.3818E-05  0.3948E-05  0.3818E-05  0.3948E-05  0.3818E-05  0.0000E+00  0.0000E+00  0.0000E+00  0.0000E+00  0.0000E+00  0.0000E+00  0.0000E+00  0.0000E+00  0.0000E+00  0.0000E+00
     -2.676  0.3679E-02  0.3625E-02  0.1220E-04  0.1192E-04  0.1220E-04  0.1192E-04  0.1220E-04  0.1192E-04  0.0000E+00  0.0000E+00  0.0000E+00  0.0000E+00  0.0000E+00  0.0000E+00  0.0000E+00  0.0000E+00  0.0000E+00  0.0000E+00
     -2.592  0.5385E-02  0.5342E-02  0.2653E-04  0.2607E-04  0.2653E-04  0.2607E-04  0.2653E-04  0.2607E-04  0.0000E+00  0.0000E+00  0.0000E+00  0.0000E+00  0.0000E+00  0.0000E+00  0.0000E+00  0.0000E+00  0.0000E+00  0.0000E+00
     -2.507  0.7394E-02  0.7329E-02  0.5183E-04  0.5108E-04  0.5183E-04  0.5108E-04  0.5183E-04  0.5108E-04  0.0000E+00  0.0000E+00  0.0000E+00  0.0000E+00  0.0000E+00  0.0000E+00  0.0000E+00  0.0000E+00  0.0000E+00  0.0000E+00
     -2.423  0.8682E-02  0.8681E-02  0.7460E-04  0.7426E-04  0.7460E-04  0.7426E-04  0.7460E-04  0.7426E-04  0.0000E+00  0.0000E+00  0.0000E+00  0.0000E+00  0.0000E+00  0.0000E+00  0.0000E+00  0.0000E+00  0.0000E+00  0.0000E+00
     -2.338  0.8216E-02  0.8193E-02  0.9099E-04  0.9015E-04  0.9099E-04  0.9015E-04  0.9099E-04  0.9015E-04  0.0000E+00  0.0000E+00  0.0000E+00  0.0000E+00  0.0000E+00  0.0000E+00  0.0000E+00  0.0000E+00  0.0000E+00  0.0000E+00
     -2.254  0.1052E-01  0.1044E-01  0.1435E-03  0.1420E-03  0.1435E-03  0.1420E-03  0.1435E-03  0.1420E-03  0.0000E+00  0.0000E+00  0.0000E+00  0.0000E+00  0.0000E+00  0.0000E+00  0.0000E+00  0.0000E+00  0.0000E+00  0.0000E+00
     -2.170  0.1191E-01  0.1190E-01  0.1836E-03  0.1830E-03  0.1836E-03  0.1830E-03  0.1836E-03  0.1830E-03  0.0000E+00  0.0000E+00  0.0000E+00  0.0000E+00  0.0000E+00  0.0000E+00  0.0000E+00  0.0000E+00  0.0000E+00  0.0000E+00
     -2.085  0.1140E-01  0.1139E-01  0.2023E-03  0.2014E-03  0.2023E-03  0.2014E-03  0.2023E-03  0.2014E-03  0.0000E+00  0.0000E+00  0.0000E+00  0.0000E+00  0.0000E+00  0.0000E+00  0.0000E+00  0.0000E+00  0.0000E+00  0.0000E+00
     -2.001  0.1257E-01  0.1253E-01  0.2534E-03  0.2522E-03  0.2534E-03  0.2522E-03  0.2534E-03  0.2522E-03  0.0000E+00  0.0000E+00  0.0000E+00  0.0000E+00  0.0000E+00  0.0000E+00  0.0000E+00  0.0000E+00  0.0000E+00  0.0000E+00
     -1.917  0.1177E-01  0.1180E-01  0.2612E-03  0.2614E-03  0.2612E-03  0.2614E-03  0.2612E-03  0.2614E-03  0.0000E+00  0.0000E+00  0.0000E+00  0.0000E+00  0.0000E+00  0.0000E+00  0.0000E+00  0.0000E+00  0.0000E+00  0.0000E+00
     -1.832  0.1251E-01  0.1241E-01  0.3181E-03  0.3148E-03  0.3181E-03  0.3148E-03  0.3181E-03  0.3148E-03  0.0000E+00  0.0000E+00  0.0000E+00  0.0000E+00  0.0000E+00  0.0000E+00  0.0000E+00  0.0000E+00  0.0000E+00  0.0000E+00
     -1.748  0.1601E-01  0.1596E-01  0.4399E-03  0.4380E-03  0.4399E-03  0.4380E-03  0.4399E-03  0.4380E-03  0.0000E+00  0.0000E+00  0.0000E+00  0.0000E+00  0.0000E+00  0.0000E+00  0.0000E+00  0.0000E+00  0.0000E+00  0.0000E+00
     -1.663  0.1596E-01  0.1596E-01  0.4720E-03  0.4712E-03  0.4720E-03  0.4712E-03  0.4720E-03  0.4712E-03  0.0000E+00  0.0000E+00  0.0000E+00  0.0000E+00  0.0000E+00  0.0000E+00  0.0000E+00  0.0000E+00  0.0000E+00  0.0000E+00
     -1.579  0.1563E-01  0.1564E-01  0.4981E-03  0.4979E-03  0.4981E-03  0.4979E-03  0.4981E-03  0.4979E-03  0.0000E+00  0.0000E+00  0.0000E+00  0.0000E+00  0.0000E+00  0.0000E+00  0.0000E+00  0.0000E+00  0.0000E+00  0.0000E+00
     -1.495  0.1297E-01  0.1304E-01  0.4418E-03  0.4435E-03  0.4418E-03  0.4435E-03  0.4418E-03  0.4435E-03  0.0000E+00  0.0000E+00  0.0000E+00  0.0000E+00  0.0000E+00  0.0000E+00  0.0000E+00  0.0000E+00  0.0000E+00  0.0000E+00
     -1.410  0.1253E-01  0.1244E-01  0.4728E-03  0.4685E-03  0.4728E-03  0.4685E-03  0.4728E-03  0.4685E-03  0.0000E+00  0.0000E+00  0.0000E+00  0.0000E+00  0.0000E+00  0.0000E+00  0.0000E+00  0.0000E+00  0.0000E+00  0.0000E+00
     -1.326  0.1784E-01  0.1769E-01  0.7198E-03  0.7135E-03  0.7198E-03  0.7135E-03  0.7198E-03  0.7135E-03  0.0000E+00  0.0000E+00  0.0000E+00  0.0000E+00  0.0000E+00  0.0000E+00  0.0000E+00  0.0000E+00  0.0000E+00  0.0000E+00
     -1.241  0.1954E-01  0.1957E-01  0.8230E-03  0.8235E-03  0.8230E-03  0.8235E-03  0.8230E-03  0.8235E-03  0.0000E+00  0.0000E+00  0.0000E+00  0.0000E+00  0.0000E+00  0.0000E+00  0.0000E+00  0.0000E+00  0.0000E+00  0.0000E+00
     -1.157  0.1824E-01  0.1821E-01  0.8176E-03  0.8152E-03  0.8176E-03  0.8152E-03  0.8176E-03  0.8152E-03  0.0000E+00  0.0000E+00  0.0000E+00  0.0000E+00  0.0000E+00  0.0000E+00  0.0000E+00  0.0000E+00  0.0000E+00  0.0000E+00
     -1.073  0.1832E-01  0.1837E-01  0.8613E-03  0.8634E-03  0.8613E-03  0.8634E-03  0.8613E-03  0.8634E-03  0.0000E+00  0.0000E+00  0.0000E+00  0.0000E+00  0.0000E+00  0.0000E+00  0.0000E+00  0.0000E+00  0.0000E+00  0.0000E+00
     -0.988  0.1406E-01  0.1411E-01  0.6984E-03  0.7000E-03  0.6984E-03  0.7000E-03  0.6984E-03  0.7000E-03  0.0000E+00  0.0000E+00  0.0000E+00  0.0000E+00  0.0000E+00  0.0000E+00  0.0000E+00  0.0000E+00  0.0000E+00  0.0000E+00
     -0.904  0.1592E-01  0.1578E-01  0.8506E-03  0.8426E-03  0.8506E-03  0.8426E-03  0.8506E-03  0.8426E-03  0.0000E+00  0.0000E+00  0.0000E+00  0.0000E+00  0.0000E+00  0.0000E+00  0.0000E+00  0.0000E+00  0.0000E+00  0.0000E+00
     -0.820  0.1986E-01  0.1980E-01  0.1105E-02  0.1101E-02  0.1105E-02  0.1101E-02  0.1105E-02  0.1101E-02  0.0000E+00  0.0000E+00  0.0000E+00  0.0000E+00  0.0000E+00  0.0000E+00  0.0000E+00  0.0000E+00  0.0000E+00  0.0000E+00
     -0.735  0.1918E-01  0.1920E-01  0.1113E-02  0.1114E-02  0.1113E-02  0.1114E-02  0.1113E-02  0.1114E-02  0.0000E+00  0.0000E+00  0.0000E+00  0.0000E+00  0.0000E+00  0.0000E+00  0.0000E+00  0.0000E+00  0.0000E+00  0.0000E+00
     -0.651  0.1834E-01  0.1832E-01  0.1119E-02  0.1117E-02  0.1119E-02  0.1117E-02  0.1119E-02  0.1117E-02  0.0000E+00  0.0000E+00  0.0000E+00  0.0000E+00  0.0000E+00  0.0000E+00  0.0000E+00  0.0000E+00  0.0000E+00  0.0000E+00
     -0.566  0.1773E-01  0.1773E-01  0.1134E-02  0.1133E-02  0.1134E-02  0.1133E-02  0.1134E-02  0.1133E-02  0.0000E+00  0.0000E+00  0.0000E+00  0.0000E+00  0.0000E+00  0.0000E+00  0.0000E+00  0.0000E+00  0.0000E+00  0.0000E+00
     -0.482  0.2052E-01  0.2036E-01  0.1381E-02  0.1370E-02  0.1381E-02  0.1370E-02  0.1381E-02  0.1370E-02  0.0000E+00  0.0000E+00  0.0000E+00  0.0000E+00  0.0000E+00  0.0000E+00  0.0000E+00  0.0000E+00  0.0000E+00  0.0000E+00
     -0.398  0.2328E-01  0.2329E-01  0.1614E-02  0.1615E-02  0.1614E-02  0.1615E-02  0.1614E-02  0.1615E-02  0.0000E+00  0.0000E+00  0.0000E+00  0.0000E+00  0.0000E+00  0.0000E+00  0.0000E+00  0.0000E+00  0.0000E+00  0.0000E+00
     -0.313  0.1976E-01  0.1980E-01  0.1422E-02  0.1425E-02  0.1422E-02  0.1425E-02  0.1422E-02  0.1425E-02  0.0000E+00  0.0000E+00  0.0000E+00  0.0000E+00  0.0000E+00  0.0000E+00  0.0000E+00  0.0000E+00  0.0000E+00  0.0000E+00
     -0.229  0.1958E-01  0.1955E-01  0.1472E-02  0.1470E-02  0.1472E-02  0.1470E-02  0.1472E-02  0.1470E-02  0.0000E+00  0.0000E+00  0.0000E+00  0.0000E+00  0.0000E+00  0.0000E+00  0.0000E+00  0.0000E+00  0.0000E+00  0.0000E+00
     -0.145  0.1673E-01  0.1684E-01  0.1298E-02  0.1306E-02  0.1298E-02  0.1306E-02  0.1298E-02  0.1306E-02  0.0000E+00  0.0000E+00  0.0000E+00  0.0000E+00  0.0000E+00  0.0000E+00  0.0000E+00  0.0000E+00  0.0000E+00  0.0000E+00
     -0.060  0.1432E-01  0.1424E-01  0.1174E-02  0.1167E-02  0.1174E-02  0.1167E-02  0.1174E-02  0.1167E-02  0.0000E+00  0.0000E+00  0.0000E+00  0.0000E+00  0.0000E+00  0.0000E+00  0.0000E+00  0.0000E+00  0.0000E+00  0.0000E+00
      0.024  0.2093E-01  0.2073E-01  0.1790E-02  0.1773E-02  0.1790E-02  0.1773E-02  0.1790E-02  0.1773E-02  0.0000E+00  0.0000E+00  0.0000E+00  0.0000E+00  0.0000E+00  0.0000E+00  0.0000E+00  0.0000E+00  0.0000E+00  0.0000E+00
      0.109  0.2429E-01  0.2427E-01  0.2132E-02  0.2130E-02  0.2132E-02  0.2130E-02  0.2132E-02  0.2130E-02  0.0000E+00  0.0000E+00  0.0000E+00  0.0000E+00  0.0000E+00  0.0000E+00  0.0000E+00  0.0000E+00  0.0000E+00  0.0000E+00
      0.193  0.2429E-01  0.2422E-01  0.2210E-02  0.2204E-02  0.2210E-02  0.2204E-02  0.2210E-02  0.2204E-02  0.0000E+00  0.0000E+00  0.0000E+00  0.0000E+00  0.0000E+00  0.0000E+00  0.0000E+00  0.0000E+00  0.0000E+00  0.0000E+00
      0.277  0.2492E-01  0.2495E-01  0.2334E-02  0.2338E-02  0.2334E-02  0.2338E-02  0.2334E-02  0.2338E-02  0.0000E+00  0.0000E+00  0.0000E+00  0.0000E+00  0.0000E+00  0.0000E+00  0.0000E+00  0.0000E+00  0.0000E+00  0.0000E+00