   8   8   1   0
  0.2182381E+02  0.4402546E-09  0.4402546E-09  0.9007677E-09  0.5000000E-15
  1.000000000000000E-004
  CAR 
 unknown system                          
     11.47242160     -4.90606757  301      4.73643959      1.00000000
     -4.906  0.0000E+00  0.0000E+00  0.0000E+00  0.0000E+00
     -4.851  0.0000E+00  0.0000E+00  0.0000E+00  0.0000E+00
     -4.797  0.0000E+00  0.0000E+00  0.0000E+00  0.0000E+00
     -4.742  0.0000E+00  0.0000E+00  0.0000E+00  0.0000E+00
     -4.688  0.0000E+00  0.0000E+00  0.0000E+00  0.0000E+00
     -4.633  0.0000E+00  0.0000E+00  0.0000E+00  0.0000E+00
     -4.578  0.7269E-05  0.7243E-05  0.3969E-06  0.3954E-06
     -4.524  0.5725E-04  0.5704E-04  0.3522E-05  0.3510E-05
     -4.469  0.1524E-03  0.1519E-03  0.1184E-04  0.1180E-04
     -4.415  0.4568E-03  0.4552E-03  0.3678E-04  0.3665E-04
     -4.360  0.1404E-02  0.1399E-02  0.1135E-03  0.1130E-03
     -4.306  0.4110E-02  0.4096E-02  0.3379E-03  0.3367E-03
     -4.251  0.1163E-01  0.1159E-01  0.9729E-03  0.9695E-03
     -4.196  0.3063E-01  0.3054E-01  0.2645E-02  0.2637E-02
     -4.142  0.6881E-01  0.6865E-01  0.6402E-02  0.6385E-02
     -4.087  0.1239E+00  0.1237E+00  0.1316E-01  0.1314E-01
     -4.033  0.1804E+00  0.1802E+00  0.2301E-01  0.2297E-01
     -3.978  0.2353E+00  0.2351E+00  0.3586E-01  0.3581E-01
     -3.923  0.2854E+00  0.2852E+00  0.5144E-01  0.5138E-01
     -3.869  0.3116E+00  0.3115E+00  0.6845E-01  0.6839E-01
     -3.814  0.3394E+00  0.3393E+00  0.8698E-01  0.8691E-01
     -3.760  0.3848E+00  0.3847E+00  0.1080E+00  0.1079E+00
     -3.705  0.4170E+00  0.4169E+00  0.1308E+00  0.1307E+00
     -3.650  0.4399E+00  0.4398E+00  0.1548E+00  0.1547E+00
     -3.596  0.4638E+00  0.4637E+00  0.1801E+00  0.1800E+00
     -3.541  0.4747E+00  0.4747E+00  0.2060E+00  0.2059E+00
     -3.487  0.4795E+00  0.4795E+00  0.2322E+00  0.2321E+00
     -3.432  0.5237E+00  0.5234E+00  0.2608E+00  0.2607E+00
     -3.377  0.5805E+00  0.5804E+00  0.2925E+00  0.2924E+00
     -3.323  0.5918E+00  0.5918E+00  0.3249E+00  0.3248E+00
     -3.268  0.5940E+00  0.5939E+00  0.3573E+00  0.3572E+00
     -3.214  0.6058E+00  0.6057E+00  0.3904E+00  0.3903E+00
     -3.159  0.6005E+00  0.6005E+00  0.4232E+00  0.4231E+00
     -3.104  0.6175E+00  0.6174E+00  0.4569E+00  0.4568E+00
     -3.050  0.6687E+00  0.6685E+00  0.4934E+00  0.4933E+00
     -2.995  0.7105E+00  0.7104E+00  0.5323E+00  0.5321E+00
     -2.941  0.7192E+00  0.7192E+00  0.5715E+00  0.5714E+00
     -2.886  0.7444E+00  0.7442E+00  0.6122E+00  0.6120E+00
     -2.831  0.7703E+00  0.7703E+00  0.6543E+00  0.6541E+00
     -2.777  0.7621E+00  0.7621E+00  0.6959E+00  0.6957E+00
     -2.722  0.7766E+00  0.7765E+00  0.7383E+00  0.7382E+00
     -2.668  0.7878E+00  0.7878E+00  0.7814E+00  0.7812E+00
     -2.613  0.7627E+00  0.7627E+00  0.8230E+00  0.8229E+00
     -2.558  0.8049E+00  0.8045E+00  0.8670E+00  0.8668E+00
     -2.504  0.9082E+00  0.9078E+00  0.9166E+00  0.9164E+00
     -2.449  0.9568E+00  0.9567E+00  0.9689E+00  0.9686E+00
     -2.395  0.9302E+00  0.9304E+00  0.1020E+01  0.1019E+01
     -2.340  0.8860E+00  0.8862E+00  0.1068E+01  0.1068E+01
     -2.286  0.8444E+00  0.8445E+00  0.1114E+01  0.1114E+01
     -2.231  0.8344E+00  0.8342E+00  0.1160E+01  0.1160E+01
     -2.176  0.8877E+00  0.8874E+00  0.1208E+01  0.1208E+01
     -2.122  0.9439E+00  0.9440E+00  0.1260E+01  0.1260E+01
     -2.067  0.9654E+00  0.9655E+00  0.1313E+01  0.1312E+01
     -2.013  0.9698E+00  0.9699E+00  0.1366E+01  0.1365E+01
     -1.958  0.9472E+00  0.9473E+00  0.1417E+01  0.1417E+01
     -1.903  0.9477E+00  0.9475E+00  0.1469E+01  0.1469E+01
     -1.849  0.9965E+00  0.9963E+00  0.1523E+01  0.1523E+01
     -1.794  0.9826E+00  0.9830E+00  0.1577E+01  0.1577E+01
     -1.740  0.8552E+00  0.8558E+00  0.1624E+01  0.1624E+01
     -1.685  0.7546E+00  0.7550E+00  0.1665E+01  0.1665E+01
     -1.630  0.7464E+00  0.7464E+00  0.1706E+01  0.1706E+01
     -1.576  0.7885E+00  0.7882E+00  0.1749E+01  0.1749E+01
     -1.521  0.8953E+00  0.8948E+00  0.1798E+01  0.1798E+01
     -1.467  0.1021E+01  0.1021E+01  0.1854E+01  0.1853E+01
     -1.412  0.1059E+01  0.1059E+01  0.1911E+01  0.1911E+01
     -1.357  0.1081E+01  0.1080E+01  0.1971E+01  0.1970E+01
     -1.303  0.1105E+01  0.1105E+01  0.2031E+01  0.2031E+01
     -1.248  0.1052E+01  0.1052E+01  0.2088E+01  0.2088E+01
     -1.194  0.1039E+01  0.1039E+01  0.2145E+01  0.2145E+01
     -1.139  0.1123E+01  0.1123E+01  0.2206E+01  0.2206E+01
     -1.084  0.1152E+01  0.1152E+01  0.2269E+01  0.2269E+01
     -1.030  0.1130E+01  0.1130E+01  0.2331E+01  0.2331E+01
     -0.975  0.1165E+01  0.1165E+01  0.2395E+01  0.2394E+01
     -0.921  0.1187E+01  0.1187E+01  0.2460E+01  0.2459E+01
     -0.866  0.1134E+01  0.1134E+01  0.2521E+01  0.2521E+01
     -0.811  0.1062E+01  0.1062E+01  0.2579E+01  0.2579E+01
     -0.757  0.9965E+00  0.9967E+00  0.2634E+01  0.2634E+01
     -0.702  0.9663E+00  0.9662E+00  0.2687E+01  0.2687E+01
     -0.648  0.1002E+01  0.1002E+01  0.2741E+01  0.2741E+01
     -0.593  0.1031E+01  0.1031E+01  0.2798E+01  0.2798E+01
     -0.538  0.1048E+01  0.1048E+01  0.2855E+01  0.2855E+01
     -0.484  0.1080E+01  0.1080E+01  0.2914E+01  0.2914E+01
     -0.429  0.1129E+01  0.1129E+01  0.2976E+01  0.2976E+01
     -0.375  0.1237E+01  0.1237E+01  0.3043E+01  0.3043E+01
     -0.320  0.1370E+01  0.1370E+01  0.3118E+01  0.3118E+01
     -0.265  0.1384E+01  0.1385E+01  0.3194E+01  0.3193E+01
     -0.211  0.1238E+01  0.1238E+01  0.3261E+01  0.3261E+01
     -0.156  0.1096E+01  0.1096E+01  0.3321E+01  0.3321E+01
     -0.102  0.1133E+01  0.1132E+01  0.3383E+01  0.3383E+01
     -0.047  0.1341E+01  0.1341E+01  0.3456E+01  0.3456E+01
      0.007  0.1537E+01  0.1537E+01  0.3540E+01  0.3540E+01
      0.062  0.1512E+01  0.1513E+01  0.3623E+01  0.3623E+01
      0.117  0.1328E+01  0.1328E+01  0.3695E+01  0.3695E+01
      0.171  0.1171E+01  0.1171E+01  0.3759E+01  0.3759E+01
      0.226  0.1120E+01  0.1120E+01  0.3821E+01  0.3820E+01
      0.280  0.1149E+01  0.1149E+01  0.3883E+01  0.3883E+01
      0.335  0.1203E+01  0.1202E+01  0.3949E+01  0.3949E+01
      0.390  0.1252E+01  0.1252E+01  0.4017E+01  0.4017E+01
      0.444  0.1323E+01  0.1323E+01  0.4090E+01  0.4090E+01
      0.499  0.1433E+01  0.1433E+01  0.4168E+01  0.4168E+01
      0.553  0.1511E+01  0.1511E+01  0.4251E+01  0.4250E+01
      0.608  0.1481E+01  0.1481E+01  0.4331E+01  0.4331E+01
      0.663  0.1418E+01  0.1418E+01  0.4409E+01  0.4409E+01
      0.717  0.1395E+01  0.1394E+01  0.4485E+01  0.4485E+01
      0.772  0.1332E+01  0.1332E+01  0.4558E+01  0.4558E+01
      0.826  0.1225E+01  0.1226E+01  0.4625E+01  0.4625E+01
      0.881  0.1092E+01  0.1092E+01  0.4684E+01  0.4684E+01
      0.936  0.9914E+00  0.9914E+00  0.4739E+01  0.4738E+01
      0.990  0.1018E+01  0.1017E+01  0.4794E+01  0.4794E+01
      1.045  0.1140E+01  0.1139E+01  0.4856E+01  0.4856E+01
      1.099  0.1313E+01  0.1312E+01  0.4928E+01  0.4928E+01
      1.154  0.1516E+01  0.1516E+01  0.5011E+01  0.5011E+01
      1.209  0.1662E+01  0.1662E+01  0.5102E+01  0.5102E+01
      1.263  0.1697E+01  0.1697E+01  0.5195E+01  0.5194E+01
      1.318  0.1661E+01  0.1661E+01  0.5285E+01  0.5285E+01
      1.372  0.1556E+01  0.1556E+01  0.5370E+01  0.5370E+01
      1.427  0.1411E+01  0.1411E+01  0.5447E+01  0.5447E+01
      1.482  0.1330E+01  0.1330E+01  0.5520E+01  0.5520E+01
      1.536  0.1317E+01  0.1317E+01  0.5592E+01  0.5592E+01
      1.591  0.1369E+01  0.1369E+01  0.5667E+01  0.5666E+01
      1.645  0.1472E+01  0.1472E+01  0.5747E+01  0.5747E+01
      1.700  0.1565E+01  0.1565E+01  0.5833E+01  0.5832E+01
      1.755  0.1601E+01  0.1601E+01  0.5920E+01  0.5920E+01
      1.809  0.1598E+01  0.1598E+01  0.6007E+01  0.6007E+01
      1.864  0.1579E+01  0.1579E+01  0.6094E+01  0.6093E+01
      1.918  0.1531E+01  0.1531E+01  0.6177E+01  0.6177E+01
      1.973  0.1502E+01  0.1502E+01  0.6259E+01  0.6259E+01
      2.027  0.1502E+01  0.1502E+01  0.6341E+01  0.6341E+01
      2.082  0.1446E+01  0.1447E+01  0.6420E+01  0.6420E+01
      2.137  0.1353E+01  0.1354E+01  0.6494E+01  0.6494E+01
      2.191  0.1308E+01  0.1309E+01  0.6566E+01  0.6566E+01
      2.246  0.1343E+01  0.1343E+01  0.6639E+01  0.6639E+01
      2.300  0.1511E+01  0.1511E+01  0.6722E+01  0.6721E+01
      2.355  0.1725E+01  0.1725E+01  0.6816E+01  0.6816E+01
      2.410  0.1819E+01  0.1819E+01  0.6915E+01  0.6915E+01
      2.464  0.1841E+01  0.1841E+01  0.7016E+01  0.7016E+01
      2.519  0.1901E+01  0.1901E+01  0.7120E+01  0.7119E+01
      2.573  0.1870E+01  0.1871E+01  0.7222E+01  0.7222E+01
      2.628  0.1698E+01  0.1699E+01  0.7315E+01  0.7314E+01
      2.683  0.1576E+01  0.1577E+01  0.7401E+01  0.7400E+01
      2.737  0.1599E+01  0.1599E+01  0.7488E+01  0.7488E+01
      2.792  0.1716E+01  0.1716E+01  0.7582E+01  0.7582E+01
      2.846  0.1780E+01  0.1779E+01  0.7679E+01  0.7679E+01
      2.901  0.1722E+01  0.1723E+01  0.7773E+01  0.7773E+01
      2.956  0.1630E+01  0.1630E+01  0.7862E+01  0.7862E+01
      3.010  0.1573E+01  0.1573E+01  0.7948E+01  0.7948E+01
      3.065  0.1612E+01  0.1612E+01  0.8036E+01  0.8036E+01
      3.119  0.1787E+01  0.1786E+01  0.8134E+01  0.8134E+01
      3.174  0.1918E+01  0.1918E+01  0.8239E+01  0.8238E+01
      3.229  0.1908E+01  0.1908E+01  0.8343E+01  0.8343E+01
      3.283  0.2009E+01  0.2009E+01  0.8453E+01  0.8452E+01
      3.338  0.2167E+01  0.2167E+01  0.8571E+01  0.8571E+01
      3.392  0.2094E+01  0.2095E+01  0.8685E+01  0.8685E+01
      3.447  0.1855E+01  0.1855E+01  0.8787E+01  0.8786E+01
      3.502  0.1621E+01  0.1622E+01  0.8875E+01  0.8875E+01
      3.556  0.1489E+01  0.1489E+01  0.8957E+01  0.8956E+01
      3.611  0.1477E+01  0.1476E+01  0.9037E+01  0.9037E+01
      3.665  0.1512E+01  0.1512E+01  0.9120E+01  0.9120E+01
      3.720  0.1503E+01  0.1503E+01  0.9202E+01  0.9202E+01
      3.775  0.1503E+01  0.1503E+01  0.9284E+01  0.9284E+01
      3.829  0.1658E+01  0.1657E+01  0.9375E+01  0.9374E+01
      3.884  0.1930E+01  0.1930E+01  0.9480E+01  0.9480E+01
      3.938  0.2079E+01  0.2078E+01  0.9594E+01  0.9593E+01
      3.993  0.2035E+01  0.2035E+01  0.9705E+01  0.9704E+01
      4.048  0.1962E+01  0.1962E+01  0.9812E+01  0.9812E+01
      4.102  0.1941E+01  0.1941E+01  0.9918E+01  0.9918E+01
      4.157  0.1927E+01  0.1927E+01  0.1002E+02  0.1002E+02
      4.211  0.1842E+01  0.1842E+01  0.1012E+02  0.1012E+02
      4.266  0.1705E+01  0.1705E+01  0.1022E+02  0.1022E+02
      4.320  0.1595E+01  0.1595E+01  0.1030E+02  0.1030E+02
      4.375  0.1568E+01  0.1568E+01  0.1039E+02  0.1039E+02
      4.430  0.1647E+01  0.1647E+01  0.1048E+02  0.1048E+02
      4.484  0.1745E+01  0.1745E+01  0.1058E+02  0.1057E+02
      4.539  0.1774E+01  0.1774E+01  0.1067E+02  0.1067E+02
      4.593  0.1672E+01  0.1673E+01  0.1076E+02  0.1076E+02
      4.648  0.1569E+01  0.1569E+01  0.1085E+02  0.1085E+02
      4.703  0.1649E+01  0.1649E+01  0.1094E+02  0.1094E+02
      4.757  0.1840E+01  0.1839E+01  0.1104E+02  0.1104E+02
      4.812  0.2014E+01  0.2014E+01  0.1115E+02  0.1115E+02
      4.866  0.2065E+01  0.2065E+01  0.1126E+02  0.1126E+02
      4.921  0.2008E+01  0.2008E+01  0.1137E+02  0.1137E+02
      4.976  0.1998E+01  0.1998E+01  0.1148E+02  0.1148E+02
      5.030  0.2007E+01  0.2007E+01  0.1159E+02  0.1159E+02
      5.085  0.1930E+01  0.1930E+01  0.1170E+02  0.1170E+02
      5.139  0.1860E+01  0.1861E+01  0.1180E+02  0.1180E+02
      5.194  0.1889E+01  0.1889E+01  0.1190E+02  0.1190E+02
      5.249  0.1925E+01  0.1924E+01  0.1201E+02  0.1201E+02
      5.303  0.1915E+01  0.1915E+01  0.1211E+02  0.1211E+02
      5.358  0.1905E+01  0.1905E+01  0.1222E+02  0.1221E+02
      5.412  0.1906E+01  0.1906E+01  0.1232E+02  0.1232E+02
      5.467  0.1949E+01  0.1948E+01  0.1243E+02  0.1243E+02
      5.522  0.2049E+01  0.2049E+01  0.1254E+02  0.1254E+02
      5.576  0.2097E+01  0.2097E+01  0.1265E+02  0.1265E+02
      5.631  0.2027E+01  0.2027E+01  0.1276E+02  0.1276E+02
      5.685  0.1993E+01  0.1993E+01  0.1287E+02  0.1287E+02
      5.740  0.2023E+01  0.2023E+01  0.1298E+02  0.1298E+02
      5.795  0.2022E+01  0.2021E+01  0.1309E+02  0.1309E+02
      5.849  0.1948E+01  0.1948E+01  0.1320E+02  0.1320E+02
      5.904  0.1806E+01  0.1806E+01  0.1330E+02  0.1330E+02
      5.958  0.1706E+01  0.1706E+01  0.1339E+02  0.1339E+02
      6.013  0.1791E+01  0.1791E+01  0.1349E+02  0.1349E+02
      6.068  0.1957E+01  0.1957E+01  0.1360E+02  0.1360E+02
      6.122  0.2109E+01  0.2109E+01  0.1371E+02  0.1371E+02
      6.177  0.2296E+01  0.2295E+01  0.1384E+02  0.1384E+02
      6.231  0.2413E+01  0.2413E+01  0.1397E+02  0.1397E+02
      6.286  0.2303E+01  0.2304E+01  0.1409E+02  0.1409E+02
      6.340  0.2067E+01  0.2067E+01  0.1421E+02  0.1421E+02
      6.395  0.1951E+01  0.1951E+01  0.1431E+02  0.1431E+02
      6.450  0.2024E+01  0.2024E+01  0.1442E+02  0.1442E+02
      6.504  0.2110E+01  0.2110E+01  0.1454E+02  0.1454E+02
      6.559  0.2053E+01  0.2053E+01  0.1465E+02  0.1465E+02
      6.613  0.1963E+01  0.1963E+01  0.1476E+02  0.1476E+02
      6.668  0.2031E+01  0.2030E+01  0.1487E+02  0.1487E+02
      6.723  0.2260E+01  0.2259E+01  0.1499E+02  0.1499E+02
      6.777  0.2460E+01  0.2460E+01  0.1513E+02  0.1513E+02
      6.832  0.2409E+01  0.2409E+01  0.1526E+02  0.1526E+02
      6.886  0.2181E+01  0.2182E+01  0.1538E+02  0.1538E+02
      6.941  0.1956E+01  0.1957E+01  0.1549E+02  0.1548E+02
      6.996  0.1842E+01  0.1843E+01  0.1559E+02  0.1559E+02
      7.050  0.1793E+01  0.1794E+01  0.1568E+02  0.1568E+02
      7.105  0.1772E+01  0.1772E+01  0.1578E+02  0.1578E+02
      7.159  0.1903E+01  0.1902E+01  0.1588E+02  0.1588E+02
      7.214  0.2130E+01  0.2129E+01  0.1600E+02  0.1600E+02
      7.269  0.2319E+01  0.2318E+01  0.1613E+02  0.1613E+02
      7.323  0.2480E+01  0.2479E+01  0.1626E+02  0.1626E+02
      7.378  0.2572E+01  0.2572E+01  0.1640E+02  0.1640E+02
      7.432  0.2528E+01  0.2529E+01  0.1654E+02  0.1654E+02
      7.487  0.2469E+01  0.2470E+01  0.1668E+02  0.1668E+02
      7.542  0.2481E+01  0.2481E+01  0.1681E+02  0.1681E+02
      7.596  0.2478E+01  0.2477E+01  0.1695E+02  0.1695E+02
      7.651  0.2396E+01  0.2393E+01  0.1708E+02  0.1708E+02
      7.705  0.2316E+01  0.2309E+01  0.1720E+02  0.1720E+02
      7.760  0.2241E+01  0.2227E+01  0.1733E+02  0.1733E+02
      7.815  0.2113E+01  0.2091E+01  0.1744E+02  0.1744E+02
      7.869  0.2039E+01  0.2014E+01  0.1755E+02  0.1755E+02
      7.924  0.2058E+01  0.2038E+01  0.1767E+02  0.1766E+02
      7.978  0.2040E+01  0.2041E+01  0.1778E+02  0.1777E+02
      8.033  0.2016E+01  0.2041E+01  0.1789E+02  0.1788E+02
      8.088  0.2016E+01  0.2048E+01  0.1800E+02  0.1800E+02
      8.142  0.1979E+01  0.2000E+01  0.1811E+02  0.1811E+02
      8.197  0.2010E+01  0.2019E+01  0.1822E+02  0.1822E+02
      8.251  0.2119E+01  0.2121E+01  0.1833E+02  0.1833E+02
      8.306  0.2179E+01  0.2180E+01  0.1845E+02  0.1845E+02
      8.361  0.2125E+01  0.2124E+01  0.1857E+02  0.1857E+02
      8.415  0.2027E+01  0.2007E+01  0.1868E+02  0.1868E+02
      8.470  0.1958E+01  0.1915E+01  0.1878E+02  0.1878E+02
      8.524  0.1876E+01  0.1850E+01  0.1889E+02  0.1888E+02
      8.579  0.1727E+01  0.1752E+01  0.1898E+02  0.1898E+02
      8.633  0.1521E+01  0.1578E+01  0.1906E+02  0.1906E+02
      8.688  0.1280E+01  0.1341E+01  0.1913E+02  0.1914E+02
      8.743  0.1071E+01  0.1106E+01  0.1919E+02  0.1920E+02
      8.797  0.9464E+00  0.9379E+00  0.1924E+02  0.1925E+02
      8.852  0.9108E+00  0.8971E+00  0.1929E+02  0.1930E+02
      8.906  0.9502E+00  0.9566E+00  0.1935E+02  0.1935E+02
      8.961  0.1026E+01  0.1021E+01  0.1940E+02  0.1941E+02
      9.016  0.1085E+01  0.1058E+01  0.1946E+02  0.1946E+02
      9.070  0.1091E+01  0.1070E+01  0.1952E+02  0.1952E+02
      9.125  0.1003E+01  0.9959E+00  0.1958E+02  0.1958E+02
      9.179  0.7869E+00  0.7848E+00  0.1962E+02  0.1962E+02
      9.234  0.5592E+00  0.5580E+00  0.1965E+02  0.1965E+02
      9.289  0.4188E+00  0.4188E+00  0.1967E+02  0.1967E+02
      9.343  0.3378E+00  0.3389E+00  0.1969E+02  0.1969E+02
      9.398  0.3123E+00  0.3139E+00  0.1971E+02  0.1971E+02
      9.452  0.3283E+00  0.3303E+00  0.1973E+02  0.1973E+02
      9.507  0.3568E+00  0.3607E+00  0.1975E+02  0.1975E+02
      9.562  0.3866E+00  0.3939E+00  0.1977E+02  0.1977E+02
      9.616  0.4161E+00  0.4229E+00  0.1979E+02  0.1979E+02
      9.671  0.4082E+00  0.4116E+00  0.1981E+02  0.1981E+02
      9.725  0.3632E+00  0.3702E+00  0.1983E+02  0.1983E+02
      9.780  0.3214E+00  0.3248E+00  0.1985E+02  0.1985E+02
      9.835  0.2989E+00  0.2771E+00  0.1987E+02  0.1987E+02
      9.889  0.2526E+00  0.2227E+00  0.1988E+02  0.1988E+02
      9.944  0.1860E+00  0.1776E+00  0.1989E+02  0.1989E+02
      9.998  0.1633E+00  0.1629E+00  0.1990E+02  0.1990E+02
     10.053  0.2009E+00  0.1848E+00  0.1991E+02  0.1991E+02
     10.108  0.2489E+00  0.2063E+00  0.1992E+02  0.1992E+02
     10.162  0.2507E+00  0.1963E+00  0.1994E+02  0.1993E+02
     10.217  0.2063E+00  0.1831E+00  0.1995E+02  0.1994E+02
     10.271  0.1550E+00  0.1859E+00  0.1996E+02  0.1995E+02
     10.326  0.1032E+00  0.1600E+00  0.1996E+02  0.1996E+02
     10.381  0.6308E-01  0.1047E+00  0.1997E+02  0.1996E+02
     10.435  0.5319E-01  0.7192E-01  0.1997E+02  0.1997E+02
     10.490  0.7234E-01  0.7801E-01  0.1997E+02  0.1997E+02
     10.544  0.1026E+00  0.1051E+00  0.1998E+02  0.1998E+02
     10.599  0.1204E+00  0.1310E+00  0.1998E+02  0.1998E+02
     10.653  0.1033E+00  0.1242E+00  0.1999E+02  0.1999E+02
     10.708  0.7359E-01  0.8343E-01  0.1999E+02  0.2000E+02
     10.763  0.5166E-01  0.4143E-01  0.2000E+02  0.2000E+02
     10.817  0.3024E-01  0.1661E-01  0.2000E+02  0.2000E+02
     10.872  0.1351E-01  0.5968E-02  0.2000E+02  0.2000E+02
     10.926  0.5051E-02  0.2017E-02  0.2000E+02  0.2000E+02
     10.981  0.1707E-02  0.6157E-03  0.2000E+02  0.2000E+02
     11.036  0.5166E-03  0.1293E-03  0.2000E+02  0.2000E+02
     11.090  0.1743E-03  0.0000E+00  0.2000E+02  0.2000E+02
     11.145  0.0000E+00  0.0000E+00  0.2000E+02  0.2000E+02
     11.199  0.0000E+00  0.0000E+00  0.2000E+02  0.2000E+02
     11.254  0.0000E+00  0.0000E+00  0.2000E+02  0.2000E+02
     11.309  0.0000E+00  0.0000E+00  0.2000E+02  0.2000E+02
     11.363  0.0000E+00  0.0000E+00  0.2000E+02  0.2000E+02
     11.418  0.0000E+00  0.0000E+00  0.2000E+02  0.2000E+02
     11.472  0.0000E+00  0.0000E+00  0.2000E+02  0.2000E+02
     11.47242160     -4.90606757  301      4.73643959      1.00000000
     -4.906  0.0000E+00  0.0000E+00  0.0000E+00  0.0000E+00  0.0000E+00  0.0000E+00  0.0000E+00  0.0000E+00  0.0000E+00  0.0000E+00  0.0000E+00  0.0000E+00  0.0000E+00  0.0000E+00  0.0000E+00  0.0000E+00  0.0000E+00  0.0000E+00
     -4.851  0.0000E+00  0.0000E+00  0.0000E+00  0.0000E+00  0.0000E+00  0.0000E+00  0.0000E+00  0.0000E+00  0.0000E+00  0.0000E+00  0.0000E+00  0.0000E+00  0.0000E+00  0.0000E+00  0.0000E+00  0.0000E+00  0.0000E+00  0.0000E+00
     -4.797  0.0000E+00  0.0000E+00  0.0000E+00  0.0000E+00  0.0000E+00  0.0000E+00  0.0000E+00  0.0000E+00  0.0000E+00  0.0000E+00  0.0000E+00  0.0000E+00  0.0000E+00  0.0000E+00  0.0000E+00  0.0000E+00  0.0000E+00  0.0000E+00
     -4.742  0.0000E+00  0.0000E+00  0.0000E+00  0.0000E+00  0.0000E+00  0.0000E+00  0.0000E+00  0.0000E+00  0.0000E+00  0.0000E+00  0.0000E+00  0.0000E+00  0.0000E+00  0.0000E+00  0.0000E+00  0.0000E+00  0.0000E+00  0.0000E+00
     -4.688  0.0000E+00  0.0000E+00  0.0000E+00  0.0000E+00  0.0000E+00  0.0000E+00  0.0000E+00  0.0000E+00  0.0000E+00  0.0000E+00  0.0000E+00  0.0000E+00  0.0000E+00  0.0000E+00  0.0000E+00  0.0000E+00  0.0000E+00  0.0000E+00
     -4.633  0.0000E+00  0.0000E+00  0.0000E+00  0.0000E+00  0.0000E+00  0.0000E+00  0.0000E+00  0.0000E+00  0.0000E+00  0.0000E+00  0.0000E+00  0.0000E+00  0.0000E+00  0.0000E+00  0.0000E+00  0.0000E+00  0.0000E+00  0.0000E+00
     -4.578  0.9898E-07  0.9869E-07  0.5402E-20  0.2843E-20  0.2350E-09  0.2341E-09  0.5402E-20  0.2843E-20  0.1697E-21  0.5617E-21  0.1933E-21  0.6332E-21  0.2588E-12  0.2480E-12  0.1933E-21  0.6332E-21  0.3186E-21  0.5397E-21
     -4.524  0.7742E-06  0.7719E-06  0.1846E-08  0.1839E-08  0.1608E-08  0.1602E-08  0.1846E-08  0.1839E-08  0.1680E-11  0.1679E-11  0.1535E-11  0.1529E-11  0.4994E-11  0.4850E-11  0.1535E-11  0.1529E-11  0.1023E-11  0.1021E-11
     -4.469  0.2057E-05  0.2051E-05  0.5203E-08  0.5184E-08  0.5976E-08  0.5952E-08  0.5203E-08  0.5184E-08  0.8170E-11  0.8166E-11  0.6803E-11  0.6778E-11  0.1283E-10  0.1248E-10  0.6803E-11  0.6778E-11  0.2025E-11  0.2020E-11
     -4.415  0.6160E-05  0.6142E-05  0.1619E-07  0.1613E-07  0.2003E-07  0.1995E-07  0.1619E-07  0.1613E-07  0.1949E-10  0.1948E-10  0.2269E-10  0.2261E-10  0.4262E-10  0.4159E-10  0.2269E-10  0.2261E-10  0.1158E-10  0.1155E-10
     -4.360  0.1891E-04  0.1886E-04  0.5694E-07  0.5673E-07  0.6257E-07  0.6231E-07  0.5694E-07  0.5673E-07  0.8742E-10  0.8733E-10  0.8756E-10  0.8725E-10  0.1449E-09  0.1415E-09  0.8756E-10  0.8725E-10  0.5024E-10  0.5011E-10
     -4.306  0.5535E-04  0.5519E-04  0.1713E-06  0.1707E-06  0.1822E-06  0.1815E-06  0.1713E-06  0.1707E-06  0.3009E-09  0.3005E-09  0.2677E-09  0.2667E-09  0.4293E-09  0.4193E-09  0.2677E-09  0.2667E-09  0.1472E-09  0.1468E-09
     -4.251  0.1566E-03  0.1561E-03  0.4915E-06  0.4898E-06  0.5372E-06  0.5351E-06  0.4915E-06  0.4898E-06  0.8463E-09  0.8454E-09  0.7988E-09  0.7959E-09  0.1228E-08  0.1201E-08  0.7988E-09  0.7959E-09  0.4254E-09  0.4243E-09
     -4.196  0.4118E-03  0.4108E-03  0.1392E-05  0.1387E-05  0.1536E-05  0.1530E-05  0.1392E-05  0.1387E-05  0.2574E-08  0.2571E-08  0.2465E-08  0.2456E-08  0.3421E-08  0.3348E-08  0.2465E-08  0.2456E-08  0.1240E-08  0.1237E-08
     -4.142  0.9229E-03  0.9214E-03  0.3534E-05  0.3524E-05  0.3864E-05  0.3851E-05  0.3534E-05  0.3524E-05  0.6953E-08  0.6947E-08  0.6571E-08  0.6549E-08  0.8361E-08  0.8198E-08  0.6571E-08  0.6549E-08  0.3401E-08  0.3392E-08
     -4.087  0.1654E-02  0.1653E-02  0.7726E-05  0.7708E-05  0.8538E-05  0.8514E-05  0.7726E-05  0.7708E-05  0.1735E-07  0.1734E-07  0.1644E-07  0.1639E-07  0.1783E-07  0.1754E-07  0.1644E-07  0.1639E-07  0.8503E-08  0.8483E-08
     -4.033  0.2392E-02  0.2391E-02  0.1444E-04  0.1441E-04  0.1617E-04  0.1613E-04  0.1444E-04  0.1441E-04  0.3766E-07  0.3764E-07  0.3624E-07  0.3614E-07  0.3387E-07  0.3345E-07  0.3624E-07  0.3614E-07  0.1964E-07  0.1959E-07
     -3.978  0.3092E-02  0.3092E-02  0.2446E-04  0.2442E-04  0.2672E-04  0.2667E-04  0.2446E-04  0.2442E-04  0.7551E-07  0.7546E-07  0.7195E-07  0.7178E-07  0.5977E-07  0.5919E-07  0.7195E-07  0.7178E-07  0.4001E-07  0.3993E-07
     -3.923  0.3716E-02  0.3717E-02  0.3658E-04  0.3654E-04  0.3870E-04  0.3864E-04  0.3658E-04  0.3654E-04  0.1360E-06  0.1360E-06  0.1269E-06  0.1267E-06  0.9378E-07  0.9304E-07  0.1269E-06  0.1267E-06  0.6558E-07  0.6548E-07
     -3.869  0.4015E-02  0.4017E-02  0.4719E-04  0.4714E-04  0.5253E-04  0.5244E-04  0.4719E-04  0.4714E-04  0.2128E-06  0.2127E-06  0.2020E-06  0.2015E-06  0.1349E-06  0.1340E-06  0.2020E-06  0.2015E-06  0.9400E-07  0.9378E-07
     -3.814  0.4316E-02  0.4316E-02  0.6036E-04  0.6029E-04  0.7245E-04  0.7233E-04  0.6036E-04  0.6029E-04  0.3197E-06  0.3195E-06  0.3083E-06  0.3076E-06  0.2034E-06  0.2024E-06  0.3083E-06  0.3076E-06  0.1453E-06  0.1448E-06
     -3.760  0.4834E-02  0.4835E-02  0.8058E-04  0.8048E-04  0.9181E-04  0.9170E-04  0.8058E-04  0.8048E-04  0.4638E-06  0.4636E-06  0.4362E-06  0.4353E-06  0.3039E-06  0.3027E-06  0.4362E-06  0.4353E-06  0.2411E-06  0.2403E-06
     -3.705  0.5180E-02  0.5181E-02  0.1019E-03  0.1018E-03  0.1043E-03  0.1042E-03  0.1019E-03  0.1018E-03  0.6239E-06  0.6235E-06  0.5913E-06  0.5901E-06  0.3992E-06  0.3978E-06  0.5913E-06  0.5901E-06  0.3569E-06  0.3559E-06
     -3.650  0.5394E-02  0.5396E-02  0.1197E-03  0.1196E-03  0.1243E-03  0.1241E-03  0.1197E-03  0.1196E-03  0.8418E-06  0.8412E-06  0.8272E-06  0.8255E-06  0.4835E-06  0.4818E-06  0.8272E-06  0.8255E-06  0.4319E-06  0.4311E-06
     -3.596  0.5609E-02  0.5611E-02  0.1350E-03  0.1350E-03  0.1546E-03  0.1544E-03  0.1350E-03  0.1350E-03  0.1153E-05  0.1152E-05  0.1085E-05  0.1083E-05  0.6150E-06  0.6131E-06  0.1085E-05  0.1083E-05  0.4719E-06  0.4711E-06
     -3.541  0.5660E-02  0.5663E-02  0.1479E-03  0.1478E-03  0.1807E-03  0.1805E-03  0.1479E-03  0.1478E-03  0.1468E-05  0.1467E-05  0.1281E-05  0.1280E-05  0.8038E-06  0.8018E-06  0.1281E-05  0.1280E-05  0.5349E-06  0.5340E-06
     -3.487  0.5626E-02  0.5628E-02  0.1630E-03  0.1629E-03  0.2031E-03  0.2029E-03  0.1630E-03  0.1629E-03  0.1663E-05  0.1662E-05  0.1560E-05  0.1557E-05  0.9791E-06  0.9772E-06  0.1560E-05  0.1557E-05  0.7093E-06  0.7076E-06
     -3.432  0.6047E-02  0.6047E-02  0.1999E-03  0.1997E-03  0.2302E-03  0.2300E-03  0.1999E-03  0.1997E-03  0.1955E-05  0.1954E-05  0.2056E-05  0.2053E-05  0.1190E-05  0.1187E-05  0.2056E-05  0.2053E-05  0.1081E-05  0.1078E-05
     -3.377  0.6618E-02  0.6620E-02  0.2441E-03  0.2439E-03  0.2569E-03  0.2567E-03  0.2441E-03  0.2439E-03  0.2480E-05  0.2478E-05  0.2545E-05  0.2542E-05  0.1469E-05  0.1466E-05  0.2545E-05  0.2542E-05  0.1456E-05  0.1453E-05
     -3.323  0.6656E-02  0.6660E-02  0.2680E-03  0.2679E-03  0.2697E-03  0.2695E-03  0.2680E-03  0.2679E-03  0.3176E-05  0.3174E-05  0.2840E-05  0.2837E-05  0.1699E-05  0.1695E-05  0.2840E-05  0.2837E-05  0.1591E-05  0.1589E-05
     -3.268  0.6565E-02  0.6568E-02  0.2838E-03  0.2837E-03  0.2964E-03  0.2961E-03  0.2838E-03  0.2837E-03  0.3948E-05  0.3945E-05  0.3260E-05  0.3256E-05  0.1938E-05  0.1934E-05  0.3260E-05  0.3256E-05  0.1609E-05  0.1608E-05
     -3.214  0.6561E-02  0.6564E-02  0.2905E-03  0.2904E-03  0.3583E-03  0.3579E-03  0.2905E-03  0.2904E-03  0.4405E-05  0.4405E-05  0.3948E-05  0.3943E-05  0.2235E-05  0.2231E-05  0.3948E-05  0.3943E-05  0.1589E-05  0.1588E-05
     -3.159  0.6363E-02  0.6366E-02  0.2885E-03  0.2884E-03  0.4142E-03  0.4138E-03  0.2885E-03  0.2884E-03  0.4434E-05  0.4433E-05  0.4708E-05  0.4702E-05  0.2430E-05  0.2427E-05  0.4708E-05  0.4702E-05  0.1650E-05  0.1649E-05
     -3.104  0.6412E-02  0.6414E-02  0.3186E-03  0.3184E-03  0.4443E-03  0.4440E-03  0.3186E-03  0.3184E-03  0.4975E-05  0.4971E-05  0.5500E-05  0.5494E-05  0.2714E-05  0.2709E-05  0.5500E-05  0.5494E-05  0.2076E-05  0.2073E-05
     -3.050  0.6832E-02  0.6834E-02  0.3860E-03  0.3857E-03  0.4582E-03  0.4580E-03  0.3860E-03  0.3857E-03  0.6463E-05  0.6457E-05  0.6146E-05  0.6141E-05  0.3332E-05  0.3325E-05  0.6146E-05  0.6141E-05  0.2841E-05  0.2837E-05
     -2.995  0.7153E-02  0.7156E-02  0.4534E-03  0.4532E-03  0.4564E-03  0.4562E-03  0.4534E-03  0.4532E-03  0.7977E-05  0.7973E-05  0.6642E-05  0.6637E-05  0.3897E-05  0.3889E-05  0.6642E-05  0.6637E-05  0.3668E-05  0.3663E-05
     -2.941  0.7080E-02  0.7083E-02  0.4866E-03  0.4864E-03  0.4760E-03  0.4755E-03  0.4866E-03  0.4864E-03  0.8624E-05  0.8621E-05  0.7310E-05  0.7303E-05  0.4163E-05  0.4155E-05  0.7310E-05  0.7303E-05  0.4194E-05  0.4191E-05
     -2.886  0.7085E-02  0.7087E-02  0.5049E-03  0.5048E-03  0.5783E-03  0.5774E-03  0.5049E-03  0.5048E-03  0.8973E-05  0.8970E-05  0.8652E-05  0.8642E-05  0.4628E-05  0.4619E-05  0.8652E-05  0.8642E-05  0.4457E-05  0.4455E-05
     -2.831  0.7081E-02  0.7085E-02  0.5101E-03  0.5101E-03  0.7078E-03  0.7070E-03  0.5101E-03  0.5101E-03  0.9461E-05  0.9457E-05  0.1027E-04  0.1026E-04  0.5118E-05  0.5111E-05  0.1027E-04  0.1026E-04  0.4407E-05  0.4408E-05
     -2.777  0.6800E-02  0.6804E-02  0.5072E-03  0.5071E-03  0.7682E-03  0.7677E-03  0.5072E-03  0.5071E-03  0.1088E-04  0.1087E-04  0.1155E-04  0.1155E-04  0.5144E-05  0.5139E-05  0.1155E-04  0.1155E-04  0.3996E-05  0.3997E-05
     -2.722  0.6741E-02  0.6744E-02  0.5423E-03  0.5421E-03  0.8049E-03  0.8043E-03  0.5423E-03  0.5421E-03  0.1363E-04  0.1362E-04  0.1293E-04  0.1291E-04  0.5275E-05  0.5268E-05  0.1293E-04  0.1291E-04  0.3895E-05  0.3895E-05
     -2.668  0.6623E-02  0.6628E-02  0.5769E-03  0.5768E-03  0.8400E-03  0.8395E-03  0.5769E-03  0.5768E-03  0.1570E-04  0.1570E-04  0.1364E-04  0.1364E-04  0.5723E-05  0.5715E-05  0.1364E-04  0.1364E-04  0.4200E-05  0.4199E-05
     -2.613  0.6142E-02  0.6146E-02  0.5971E-03  0.5969E-03  0.8316E-03  0.8311E-03  0.5971E-03  0.5969E-03  0.1624E-04  0.1623E-04  0.1347E-04  0.1346E-04  0.6114E-05  0.6106E-05  0.1347E-04  0.1346E-04  0.5020E-05  0.5016E-05
     -2.558  0.6177E-02  0.6178E-02  0.6737E-03  0.6733E-03  0.9012E-03  0.9003E-03  0.6737E-03  0.6733E-03  0.1641E-04  0.1640E-04  0.1560E-04  0.1558E-04  0.6805E-05  0.6794E-05  0.1560E-04  0.1558E-04  0.6801E-05  0.6795E-05
     -2.504  0.6713E-02  0.6714E-02  0.7846E-03  0.7842E-03  0.1060E-02  0.1059E-02  0.7846E-03  0.7842E-03  0.1719E-04  0.1718E-04  0.2011E-04  0.2008E-04  0.7688E-05  0.7675E-05  0.2011E-04  0.2008E-04  0.8648E-05  0.8645E-05
     -2.449  0.6848E-02  0.6852E-02  0.8493E-03  0.8492E-03  0.1150E-02  0.1149E-02  0.8493E-03  0.8492E-03  0.1893E-04  0.1891E-04  0.2315E-04  0.2314E-04  0.8016E-05  0.8006E-05  0.2315E-04  0.2314E-04  0.9360E-05  0.9361E-05
     -2.395  0.6494E-02  0.6499E-02  0.8773E-03  0.8772E-03  0.1084E-02  0.1084E-02  0.8773E-03  0.8772E-03  0.2244E-04  0.2242E-04  0.2299E-04  0.2298E-04  0.8090E-05  0.8079E-05  0.2299E-04  0.2298E-04  0.9282E-05  0.9284E-05
     -2.340  0.6067E-02  0.6072E-02  0.8984E-03  0.8983E-03  0.9670E-03  0.9672E-03  0.8984E-03  0.8983E-03  0.2720E-04  0.2718E-04  0.2210E-04  0.2209E-04  0.8114E-05  0.8103E-05  0.2210E-04  0.2209E-04  0.8643E-05  0.8647E-05
     -2.286  0.5525E-02  0.5531E-02  0.8986E-03  0.8986E-03  0.9262E-03  0.9258E-03  0.8986E-03  0.8986E-03  0.2957E-04  0.2956E-04  0.2243E-04  0.2241E-04  0.7738E-05  0.7728E-05  0.2243E-04  0.2241E-04  0.7723E-05  0.7727E-05
     -2.231  0.5087E-02  0.5091E-02  0.9052E-03  0.9050E-03  0.9926E-03  0.9917E-03  0.9052E-03  0.9050E-03  0.3031E-04  0.3029E-04  0.2523E-04  0.2519E-04  0.7523E-05  0.7512E-05  0.2523E-04  0.2519E-04  0.7073E-05  0.7075E-05
     -2.176  0.5106E-02  0.5108E-02  0.9702E-03  0.9698E-03  0.1136E-02  0.1135E-02  0.9702E-03  0.9698E-03  0.3295E-04  0.3293E-04  0.3075E-04  0.3071E-04  0.8253E-05  0.8240E-05  0.3075E-04  0.3071E-04  0.6837E-05  0.6837E-05