   8   8   1   0
  0.2121763E+02  0.4361401E-09  0.4361401E-09  0.8923493E-09  0.5000000E-15
  1.000000000000000E-004
  CAR 
 unknown system                          
     11.76078996     -4.85613518  301      4.95509369      1.00000000
     -4.856  0.0000E+00  0.0000E+00  0.0000E+00  0.0000E+00
     -4.801  0.0000E+00  0.0000E+00  0.0000E+00  0.0000E+00
     -4.745  0.0000E+00  0.0000E+00  0.0000E+00  0.0000E+00
     -4.690  0.0000E+00  0.0000E+00  0.0000E+00  0.0000E+00
     -4.635  0.0000E+00  0.0000E+00  0.0000E+00  0.0000E+00
     -4.579  0.0000E+00  0.0000E+00  0.0000E+00  0.0000E+00
     -4.524  0.3233E-05  0.3227E-05  0.1791E-06  0.1787E-06
     -4.468  0.4652E-04  0.4644E-04  0.2756E-05  0.2751E-05
     -4.413  0.1382E-03  0.1379E-03  0.1041E-04  0.1039E-04
     -4.358  0.4134E-03  0.4127E-03  0.3331E-04  0.3325E-04
     -4.302  0.1279E-02  0.1277E-02  0.1042E-03  0.1040E-03
     -4.247  0.3806E-02  0.3800E-02  0.3150E-03  0.3144E-03
     -4.191  0.1096E-01  0.1094E-01  0.9218E-03  0.9203E-03
     -4.136  0.2930E-01  0.2926E-01  0.2545E-02  0.2541E-02
     -4.081  0.6675E-01  0.6668E-01  0.6242E-02  0.6234E-02
     -4.025  0.1210E+00  0.1210E+00  0.1295E-01  0.1293E-01
     -3.970  0.1764E+00  0.1763E+00  0.2272E-01  0.2270E-01
     -3.915  0.2302E+00  0.2301E+00  0.3547E-01  0.3544E-01
     -3.859  0.2799E+00  0.2798E+00  0.5097E-01  0.5094E-01
     -3.804  0.3051E+00  0.3050E+00  0.6787E-01  0.6784E-01
     -3.748  0.3309E+00  0.3309E+00  0.8620E-01  0.8616E-01
     -3.693  0.3763E+00  0.3762E+00  0.1070E+00  0.1070E+00
     -3.638  0.4083E+00  0.4082E+00  0.1297E+00  0.1296E+00
     -3.582  0.4302E+00  0.4302E+00  0.1535E+00  0.1535E+00
     -3.527  0.4541E+00  0.4541E+00  0.1787E+00  0.1786E+00
     -3.471  0.4654E+00  0.4654E+00  0.2045E+00  0.2044E+00
     -3.416  0.4676E+00  0.4676E+00  0.2304E+00  0.2303E+00
     -3.361  0.5086E+00  0.5085E+00  0.2585E+00  0.2585E+00
     -3.305  0.5680E+00  0.5679E+00  0.2900E+00  0.2900E+00
     -3.250  0.5811E+00  0.5811E+00  0.3222E+00  0.3222E+00
     -3.194  0.5809E+00  0.5809E+00  0.3544E+00  0.3544E+00
     -3.139  0.5939E+00  0.5939E+00  0.3873E+00  0.3873E+00
     -3.084  0.5882E+00  0.5882E+00  0.4199E+00  0.4199E+00
     -3.028  0.6005E+00  0.6004E+00  0.4532E+00  0.4531E+00
     -2.973  0.6497E+00  0.6496E+00  0.4892E+00  0.4891E+00
     -2.917  0.6952E+00  0.6951E+00  0.5277E+00  0.5276E+00
     -2.862  0.7037E+00  0.7036E+00  0.5667E+00  0.5666E+00
     -2.807  0.7247E+00  0.7246E+00  0.6069E+00  0.6068E+00
     -2.751  0.7550E+00  0.7549E+00  0.6487E+00  0.6486E+00
     -2.696  0.7475E+00  0.7475E+00  0.6901E+00  0.6900E+00
     -2.641  0.7567E+00  0.7566E+00  0.7321E+00  0.7320E+00
     -2.585  0.7750E+00  0.7750E+00  0.7750E+00  0.7749E+00
     -2.530  0.7469E+00  0.7469E+00  0.8164E+00  0.8163E+00
     -2.474  0.7725E+00  0.7723E+00  0.8592E+00  0.8591E+00
     -2.419  0.8755E+00  0.8752E+00  0.9078E+00  0.9076E+00
     -2.364  0.9389E+00  0.9388E+00  0.9598E+00  0.9597E+00
     -2.308  0.9202E+00  0.9203E+00  0.1011E+01  0.1011E+01
     -2.253  0.8760E+00  0.8761E+00  0.1059E+01  0.1059E+01
     -2.197  0.8324E+00  0.8325E+00  0.1105E+01  0.1105E+01
     -2.142  0.8111E+00  0.8110E+00  0.1150E+01  0.1150E+01
     -2.087  0.8546E+00  0.8544E+00  0.1198E+01  0.1198E+01
     -2.031  0.9171E+00  0.9171E+00  0.1249E+01  0.1248E+01
     -1.976  0.9428E+00  0.9429E+00  0.1301E+01  0.1301E+01
     -1.920  0.9528E+00  0.9529E+00  0.1354E+01  0.1354E+01
     -1.865  0.9342E+00  0.9343E+00  0.1405E+01  0.1405E+01
     -1.810  0.9221E+00  0.9221E+00  0.1457E+01  0.1456E+01
     -1.754  0.9681E+00  0.9680E+00  0.1510E+01  0.1510E+01
     -1.699  0.9845E+00  0.9846E+00  0.1565E+01  0.1565E+01
     -1.644  0.8756E+00  0.8760E+00  0.1613E+01  0.1613E+01
     -1.588  0.7552E+00  0.7556E+00  0.1655E+01  0.1655E+01
     -1.533  0.7283E+00  0.7284E+00  0.1696E+01  0.1695E+01
     -1.477  0.7593E+00  0.7592E+00  0.1738E+01  0.1738E+01
     -1.422  0.8482E+00  0.8480E+00  0.1785E+01  0.1785E+01
     -1.367  0.9821E+00  0.9818E+00  0.1839E+01  0.1839E+01
     -1.311  0.1037E+01  0.1037E+01  0.1897E+01  0.1896E+01
     -1.256  0.1051E+01  0.1051E+01  0.1955E+01  0.1955E+01
     -1.200  0.1088E+01  0.1088E+01  0.2015E+01  0.2015E+01
     -1.145  0.1049E+01  0.1049E+01  0.2073E+01  0.2073E+01
     -1.090  0.1005E+01  0.1005E+01  0.2129E+01  0.2129E+01
     -1.034  0.1078E+01  0.1078E+01  0.2189E+01  0.2188E+01
     -0.979  0.1135E+01  0.1135E+01  0.2251E+01  0.2251E+01
     -0.923  0.1108E+01  0.1108E+01  0.2313E+01  0.2313E+01
     -0.868  0.1124E+01  0.1124E+01  0.2375E+01  0.2375E+01
     -0.813  0.1167E+01  0.1167E+01  0.2440E+01  0.2440E+01
     -0.757  0.1135E+01  0.1135E+01  0.2503E+01  0.2503E+01
     -0.702  0.1064E+01  0.1064E+01  0.2562E+01  0.2562E+01
     -0.647  0.9967E+00  0.9969E+00  0.2617E+01  0.2617E+01
     -0.591  0.9480E+00  0.9480E+00  0.2669E+01  0.2669E+01
     -0.536  0.9678E+00  0.9677E+00  0.2723E+01  0.2723E+01
     -0.480  0.1006E+01  0.1006E+01  0.2779E+01  0.2779E+01
     -0.425  0.1016E+01  0.1017E+01  0.2835E+01  0.2835E+01
     -0.370  0.1046E+01  0.1046E+01  0.2893E+01  0.2893E+01
     -0.314  0.1093E+01  0.1093E+01  0.2954E+01  0.2954E+01
     -0.259  0.1178E+01  0.1178E+01  0.3019E+01  0.3019E+01
     -0.203  0.1315E+01  0.1315E+01  0.3092E+01  0.3092E+01
     -0.148  0.1387E+01  0.1388E+01  0.3169E+01  0.3169E+01
     -0.093  0.1281E+01  0.1281E+01  0.3240E+01  0.3240E+01
     -0.037  0.1102E+01  0.1103E+01  0.3301E+01  0.3301E+01
      0.018  0.1060E+01  0.1060E+01  0.3360E+01  0.3360E+01
      0.074  0.1214E+01  0.1214E+01  0.3427E+01  0.3427E+01
      0.129  0.1452E+01  0.1452E+01  0.3507E+01  0.3507E+01
      0.184  0.1529E+01  0.1529E+01  0.3592E+01  0.3592E+01
      0.240  0.1381E+01  0.1381E+01  0.3669E+01  0.3669E+01
      0.295  0.1191E+01  0.1191E+01  0.3735E+01  0.3735E+01
      0.351  0.1092E+01  0.1092E+01  0.3795E+01  0.3795E+01
      0.406  0.1099E+01  0.1099E+01  0.3856E+01  0.3856E+01
      0.461  0.1157E+01  0.1157E+01  0.3920E+01  0.3920E+01
      0.517  0.1220E+01  0.1220E+01  0.3988E+01  0.3988E+01
      0.572  0.1272E+01  0.1272E+01  0.4058E+01  0.4058E+01
      0.627  0.1357E+01  0.1357E+01  0.4134E+01  0.4133E+01
      0.683  0.1454E+01  0.1454E+01  0.4214E+01  0.4214E+01
      0.738  0.1472E+01  0.1472E+01  0.4296E+01  0.4296E+01
      0.794  0.1402E+01  0.1402E+01  0.4373E+01  0.4373E+01
      0.849  0.1379E+01  0.1378E+01  0.4450E+01  0.4450E+01
      0.904  0.1349E+01  0.1349E+01  0.4525E+01  0.4524E+01
      0.960  0.1266E+01  0.1266E+01  0.4595E+01  0.4595E+01
      1.015  0.1163E+01  0.1163E+01  0.4659E+01  0.4659E+01
      1.071  0.1039E+01  0.1039E+01  0.4717E+01  0.4717E+01
      1.126  0.9800E+00  0.9797E+00  0.4771E+01  0.4771E+01
      1.181  0.1058E+01  0.1058E+01  0.4830E+01  0.4830E+01
      1.237  0.1216E+01  0.1216E+01  0.4897E+01  0.4897E+01
      1.292  0.1410E+01  0.1410E+01  0.4975E+01  0.4975E+01
      1.348  0.1592E+01  0.1592E+01  0.5064E+01  0.5063E+01
      1.403  0.1673E+01  0.1673E+01  0.5156E+01  0.5156E+01
      1.458  0.1646E+01  0.1646E+01  0.5247E+01  0.5247E+01
      1.514  0.1585E+01  0.1585E+01  0.5335E+01  0.5335E+01
      1.569  0.1463E+01  0.1463E+01  0.5416E+01  0.5416E+01
      1.624  0.1343E+01  0.1343E+01  0.5491E+01  0.5491E+01
      1.680  0.1305E+01  0.1305E+01  0.5563E+01  0.5563E+01
      1.735  0.1352E+01  0.1352E+01  0.5638E+01  0.5638E+01
      1.791  0.1422E+01  0.1423E+01  0.5717E+01  0.5717E+01
      1.846  0.1483E+01  0.1483E+01  0.5799E+01  0.5799E+01
      1.901  0.1535E+01  0.1536E+01  0.5884E+01  0.5884E+01
      1.957  0.1553E+01  0.1553E+01  0.5970E+01  0.5970E+01
      2.012  0.1578E+01  0.1578E+01  0.6058E+01  0.6058E+01
      2.068  0.1596E+01  0.1596E+01  0.6146E+01  0.6146E+01
      2.123  0.1556E+01  0.1556E+01  0.6232E+01  0.6232E+01
      2.178  0.1503E+01  0.1503E+01  0.6316E+01  0.6316E+01
      2.234  0.1466E+01  0.1466E+01  0.6397E+01  0.6397E+01
      2.289  0.1382E+01  0.1382E+01  0.6474E+01  0.6473E+01
      2.345  0.1316E+01  0.1316E+01  0.6547E+01  0.6546E+01
      2.400  0.1321E+01  0.1321E+01  0.6620E+01  0.6620E+01
      2.455  0.1423E+01  0.1422E+01  0.6699E+01  0.6699E+01
      2.511  0.1591E+01  0.1590E+01  0.6787E+01  0.6787E+01
      2.566  0.1727E+01  0.1727E+01  0.6882E+01  0.6882E+01
      2.621  0.1793E+01  0.1793E+01  0.6982E+01  0.6982E+01
      2.677  0.1854E+01  0.1853E+01  0.7085E+01  0.7084E+01
      2.732  0.1875E+01  0.1875E+01  0.7188E+01  0.7188E+01
      2.788  0.1758E+01  0.1758E+01  0.7286E+01  0.7286E+01
      2.843  0.1619E+01  0.1620E+01  0.7376E+01  0.7376E+01
      2.898  0.1583E+01  0.1583E+01  0.7463E+01  0.7463E+01
      2.954  0.1653E+01  0.1653E+01  0.7555E+01  0.7555E+01
      3.009  0.1730E+01  0.1730E+01  0.7651E+01  0.7651E+01
      3.065  0.1710E+01  0.1710E+01  0.7746E+01  0.7746E+01
      3.120  0.1618E+01  0.1618E+01  0.7835E+01  0.7835E+01
      3.175  0.1532E+01  0.1533E+01  0.7920E+01  0.7920E+01
      3.231  0.1520E+01  0.1520E+01  0.8005E+01  0.8004E+01
      3.286  0.1657E+01  0.1656E+01  0.8096E+01  0.8096E+01
      3.342  0.1845E+01  0.1845E+01  0.8199E+01  0.8198E+01
      3.397  0.1887E+01  0.1887E+01  0.8303E+01  0.8303E+01
      3.452  0.1943E+01  0.1943E+01  0.8411E+01  0.8411E+01
      3.508  0.2128E+01  0.2128E+01  0.8529E+01  0.8529E+01
      3.563  0.2152E+01  0.2152E+01  0.8648E+01  0.8648E+01
      3.618  0.1939E+01  0.1940E+01  0.8755E+01  0.8755E+01
      3.674  0.1668E+01  0.1668E+01  0.8848E+01  0.8848E+01
      3.729  0.1474E+01  0.1474E+01  0.8930E+01  0.8930E+01
      3.785  0.1433E+01  0.1433E+01  0.9009E+01  0.9009E+01
      3.840  0.1485E+01  0.1484E+01  0.9091E+01  0.9091E+01
      3.895  0.1473E+01  0.1473E+01  0.9173E+01  0.9173E+01
      3.951  0.1422E+01  0.1422E+01  0.9252E+01  0.9252E+01
      4.006  0.1515E+01  0.1515E+01  0.9336E+01  0.9336E+01
      4.062  0.1764E+01  0.1764E+01  0.9434E+01  0.9434E+01
      4.117  0.1977E+01  0.1977E+01  0.9543E+01  0.9543E+01
      4.172  0.2005E+01  0.2005E+01  0.9654E+01  0.9654E+01
      4.228  0.1946E+01  0.1946E+01  0.9762E+01  0.9762E+01
      4.283  0.1947E+01  0.1947E+01  0.9870E+01  0.9870E+01
      4.339  0.1966E+01  0.1966E+01  0.9979E+01  0.9979E+01
      4.394  0.1879E+01  0.1879E+01  0.1008E+02  0.1008E+02
      4.449  0.1698E+01  0.1698E+01  0.1018E+02  0.1018E+02
      4.505  0.1542E+01  0.1542E+01  0.1026E+02  0.1026E+02
      4.560  0.1488E+01  0.1488E+01  0.1035E+02  0.1035E+02
      4.616  0.1570E+01  0.1571E+01  0.1043E+02  0.1043E+02
      4.671  0.1684E+01  0.1684E+01  0.1053E+02  0.1053E+02
      4.726  0.1722E+01  0.1722E+01  0.1062E+02  0.1062E+02
      4.782  0.1673E+01  0.1673E+01  0.1071E+02  0.1071E+02
      4.837  0.1581E+01  0.1581E+01  0.1080E+02  0.1080E+02
      4.892  0.1602E+01  0.1602E+01  0.1089E+02  0.1089E+02
      4.948  0.1742E+01  0.1742E+01  0.1099E+02  0.1099E+02
      5.003  0.1905E+01  0.1905E+01  0.1109E+02  0.1109E+02
      5.059  0.2003E+01  0.2003E+01  0.1120E+02  0.1120E+02
      5.114  0.1993E+01  0.1993E+01  0.1131E+02  0.1131E+02
      5.169  0.1972E+01  0.1972E+01  0.1142E+02  0.1142E+02
      5.225  0.1952E+01  0.1952E+01  0.1153E+02  0.1153E+02
      5.280  0.1879E+01  0.1879E+01  0.1164E+02  0.1164E+02
      5.336  0.1811E+01  0.1811E+01  0.1174E+02  0.1174E+02
      5.391  0.1823E+01  0.1823E+01  0.1184E+02  0.1184E+02
      5.446  0.1887E+01  0.1887E+01  0.1194E+02  0.1194E+02
      5.502  0.1901E+01  0.1901E+01  0.1205E+02  0.1205E+02
      5.557  0.1865E+01  0.1865E+01  0.1215E+02  0.1215E+02
      5.613  0.1839E+01  0.1839E+01  0.1225E+02  0.1225E+02
      5.668  0.1882E+01  0.1882E+01  0.1236E+02  0.1236E+02
      5.723  0.1991E+01  0.1990E+01  0.1247E+02  0.1247E+02
      5.779  0.2073E+01  0.2073E+01  0.1258E+02  0.1258E+02
      5.834  0.2046E+01  0.2047E+01  0.1269E+02  0.1269E+02
      5.889  0.1958E+01  0.1958E+01  0.1280E+02  0.1280E+02
      5.945  0.1967E+01  0.1967E+01  0.1291E+02  0.1291E+02
      6.000  0.2011E+01  0.2011E+01  0.1302E+02  0.1302E+02
      6.056  0.1974E+01  0.1974E+01  0.1313E+02  0.1313E+02
      6.111  0.1862E+01  0.1862E+01  0.1324E+02  0.1324E+02
      6.166  0.1716E+01  0.1716E+01  0.1333E+02  0.1333E+02
      6.222  0.1677E+01  0.1677E+01  0.1342E+02  0.1342E+02
      6.277  0.1793E+01  0.1792E+01  0.1352E+02  0.1352E+02
      6.333  0.1939E+01  0.1939E+01  0.1363E+02  0.1363E+02
      6.388  0.2120E+01  0.2120E+01  0.1375E+02  0.1375E+02
      6.443  0.2310E+01  0.2309E+01  0.1388E+02  0.1388E+02
      6.499  0.2376E+01  0.2376E+01  0.1401E+02  0.1401E+02
      6.554  0.2219E+01  0.2219E+01  0.1413E+02  0.1413E+02
      6.610  0.1973E+01  0.1974E+01  0.1424E+02  0.1424E+02
      6.665  0.1903E+01  0.1903E+01  0.1435E+02  0.1435E+02
      6.720  0.2030E+01  0.2030E+01  0.1446E+02  0.1446E+02
      6.776  0.2103E+01  0.2103E+01  0.1458E+02  0.1458E+02
      6.831  0.2004E+01  0.2004E+01  0.1469E+02  0.1469E+02
      6.886  0.1928E+01  0.1928E+01  0.1479E+02  0.1479E+02
      6.942  0.2045E+01  0.2044E+01  0.1491E+02  0.1491E+02
      6.997  0.2297E+01  0.2296E+01  0.1503E+02  0.1503E+02
      7.053  0.2426E+01  0.2426E+01  0.1517E+02  0.1517E+02
      7.108  0.2319E+01  0.2319E+01  0.1530E+02  0.1530E+02
      7.163  0.2086E+01  0.2087E+01  0.1541E+02  0.1541E+02
      7.219  0.1869E+01  0.1869E+01  0.1552E+02  0.1552E+02
      7.274  0.1774E+01  0.1775E+01  0.1561E+02  0.1561E+02
      7.330  0.1756E+01  0.1756E+01  0.1571E+02  0.1571E+02
      7.385  0.1790E+01  0.1790E+01  0.1581E+02  0.1581E+02
      7.440  0.1914E+01  0.1913E+01  0.1592E+02  0.1592E+02
      7.496  0.2080E+01  0.2079E+01  0.1603E+02  0.1603E+02
      7.551  0.2263E+01  0.2262E+01  0.1616E+02  0.1616E+02
      7.607  0.2409E+01  0.2408E+01  0.1629E+02  0.1629E+02
      7.662  0.2459E+01  0.2459E+01  0.1643E+02  0.1643E+02
      7.717  0.2466E+01  0.2467E+01  0.1656E+02  0.1656E+02
      7.773  0.2502E+01  0.2502E+01  0.1670E+02  0.1670E+02
      7.828  0.2537E+01  0.2537E+01  0.1684E+02  0.1684E+02
      7.884  0.2484E+01  0.2484E+01  0.1698E+02  0.1698E+02
      7.939  0.2340E+01  0.2340E+01  0.1711E+02  0.1711E+02
      7.994  0.2218E+01  0.2219E+01  0.1723E+02  0.1723E+02
      8.050  0.2134E+01  0.2135E+01  0.1735E+02  0.1735E+02
      8.105  0.2031E+01  0.2032E+01  0.1746E+02  0.1746E+02
      8.160  0.2013E+01  0.2014E+01  0.1758E+02  0.1758E+02
      8.216  0.2052E+01  0.2051E+01  0.1769E+02  0.1769E+02
      8.271  0.2012E+01  0.2010E+01  0.1780E+02  0.1780E+02
      8.327  0.1966E+01  0.1963E+01  0.1791E+02  0.1791E+02
      8.382  0.1945E+01  0.1942E+01  0.1802E+02  0.1802E+02
      8.437  0.1919E+01  0.1917E+01  0.1812E+02  0.1812E+02
      8.493  0.1961E+01  0.1961E+01  0.1823E+02  0.1823E+02
      8.548  0.2055E+01  0.2050E+01  0.1835E+02  0.1835E+02
      8.604  0.2133E+01  0.2125E+01  0.1847E+02  0.1846E+02
      8.659  0.2102E+01  0.2095E+01  0.1858E+02  0.1858E+02
      8.714  0.1974E+01  0.1965E+01  0.1869E+02  0.1869E+02
      8.770  0.1854E+01  0.1836E+01  0.1879E+02  0.1879E+02
      8.825  0.1767E+01  0.1730E+01  0.1889E+02  0.1889E+02
      8.881  0.1658E+01  0.1630E+01  0.1898E+02  0.1898E+02
      8.936  0.1487E+01  0.1502E+01  0.1907E+02  0.1906E+02
      8.991  0.1261E+01  0.1324E+01  0.1914E+02  0.1913E+02
      9.047  0.1067E+01  0.1123E+01  0.1920E+02  0.1920E+02
      9.102  0.9577E+00  0.9696E+00  0.1925E+02  0.1925E+02
      9.157  0.9288E+00  0.9199E+00  0.1930E+02  0.1930E+02
      9.213  0.9694E+00  0.9638E+00  0.1935E+02  0.1935E+02
      9.268  0.1010E+01  0.1008E+01  0.1941E+02  0.1941E+02
      9.324  0.1021E+01  0.1017E+01  0.1947E+02  0.1947E+02
      9.379  0.1016E+01  0.1012E+01  0.1952E+02  0.1952E+02
      9.434  0.9562E+00  0.9562E+00  0.1958E+02  0.1958E+02
      9.490  0.7655E+00  0.7675E+00  0.1962E+02  0.1962E+02
      9.545  0.5459E+00  0.5462E+00  0.1965E+02  0.1965E+02
      9.601  0.4084E+00  0.4085E+00  0.1967E+02  0.1967E+02
      9.656  0.3267E+00  0.3273E+00  0.1969E+02  0.1969E+02
      9.711  0.2989E+00  0.3000E+00  0.1971E+02  0.1971E+02
      9.767  0.3226E+00  0.3236E+00  0.1972E+02  0.1972E+02
      9.822  0.3599E+00  0.3600E+00  0.1974E+02  0.1974E+02
      9.878  0.3815E+00  0.3800E+00  0.1976E+02  0.1976E+02
      9.933  0.3982E+00  0.3965E+00  0.1979E+02  0.1979E+02
      9.988  0.4045E+00  0.4057E+00  0.1981E+02  0.1981E+02
     10.044  0.3879E+00  0.3907E+00  0.1983E+02  0.1983E+02
     10.099  0.3557E+00  0.3544E+00  0.1985E+02  0.1985E+02
     10.154  0.3122E+00  0.3059E+00  0.1987E+02  0.1987E+02
     10.210  0.2413E+00  0.2385E+00  0.1988E+02  0.1988E+02
     10.265  0.1605E+00  0.1627E+00  0.1989E+02  0.1989E+02
     10.321  0.1339E+00  0.1353E+00  0.1990E+02  0.1990E+02
     10.376  0.1675E+00  0.1656E+00  0.1991E+02  0.1991E+02
     10.431  0.2103E+00  0.2032E+00  0.1992E+02  0.1992E+02
     10.487  0.2249E+00  0.2118E+00  0.1993E+02  0.1993E+02
     10.542  0.2170E+00  0.2089E+00  0.1994E+02  0.1994E+02
     10.598  0.1884E+00  0.1971E+00  0.1995E+02  0.1995E+02
     10.653  0.1311E+00  0.1440E+00  0.1996E+02  0.1996E+02
     10.708  0.7574E-01  0.8243E-01  0.1996E+02  0.1996E+02
     10.764  0.5405E-01  0.5577E-01  0.1997E+02  0.1997E+02
     10.819  0.6677E-01  0.6664E-01  0.1997E+02  0.1997E+02
     10.875  0.9689E-01  0.9726E-01  0.1998E+02  0.1998E+02
     10.930  0.1268E+00  0.1278E+00  0.1998E+02  0.1998E+02
     10.985  0.1262E+00  0.1261E+00  0.1999E+02  0.1999E+02
     11.041  0.8844E-01  0.8859E-01  0.2000E+02  0.2000E+02
     11.096  0.4532E-01  0.4637E-01  0.2000E+02  0.2000E+02
     11.152  0.1839E-01  0.1919E-01  0.2000E+02  0.2000E+02
     11.207  0.6577E-02  0.6930E-02  0.2000E+02  0.2000E+02
     11.262  0.2199E-02  0.2324E-02  0.2000E+02  0.2000E+02
     11.318  0.6599E-03  0.7762E-03  0.2000E+02  0.2000E+02
     11.373  0.1412E-03  0.1584E-03  0.2000E+02  0.2000E+02
     11.428  0.0000E+00  0.0000E+00  0.2000E+02  0.2000E+02
     11.484  0.0000E+00  0.0000E+00  0.2000E+02  0.2000E+02
     11.539  0.0000E+00  0.0000E+00  0.2000E+02  0.2000E+02
     11.595  0.0000E+00  0.0000E+00  0.2000E+02  0.2000E+02
     11.650  0.0000E+00  0.0000E+00  0.2000E+02  0.2000E+02
     11.705  0.0000E+00  0.0000E+00  0.2000E+02  0.2000E+02
     11.761  0.0000E+00  0.0000E+00  0.2000E+02  0.2000E+02
     11.76078996     -4.85613518  301      4.95509369      1.00000000
     -4.856  0.0000E+00  0.0000E+00  0.0000E+00  0.0000E+00  0.0000E+00  0.0000E+00  0.0000E+00  0.0000E+00  0.0000E+00  0.0000E+00  0.0000E+00  0.0000E+00  0.0000E+00  0.0000E+00  0.0000E+00  0.0000E+00  0.0000E+00  0.0000E+00
     -4.801  0.0000E+00  0.0000E+00  0.0000E+00  0.0000E+00  0.0000E+00  0.0000E+00  0.0000E+00  0.0000E+00  0.0000E+00  0.0000E+00  0.0000E+00  0.0000E+00  0.0000E+00  0.0000E+00  0.0000E+00  0.0000E+00  0.0000E+00  0.0000E+00
     -4.745  0.0000E+00  0.0000E+00  0.0000E+00  0.0000E+00  0.0000E+00  0.0000E+00  0.0000E+00  0.0000E+00  0.0000E+00  0.0000E+00  0.0000E+00  0.0000E+00  0.0000E+00  0.0000E+00  0.0000E+00  0.0000E+00  0.0000E+00  0.0000E+00
     -4.690  0.0000E+00  0.0000E+00  0.0000E+00  0.0000E+00  0.0000E+00  0.0000E+00  0.0000E+00  0.0000E+00  0.0000E+00  0.0000E+00  0.0000E+00  0.0000E+00  0.0000E+00  0.0000E+00  0.0000E+00  0.0000E+00  0.0000E+00  0.0000E+00
     -4.635  0.0000E+00  0.0000E+00  0.0000E+00  0.0000E+00  0.0000E+00  0.0000E+00  0.0000E+00  0.0000E+00  0.0000E+00  0.0000E+00  0.0000E+00  0.0000E+00  0.0000E+00  0.0000E+00  0.0000E+00  0.0000E+00  0.0000E+00  0.0000E+00
     -4.579  0.0000E+00  0.0000E+00  0.0000E+00  0.0000E+00  0.0000E+00  0.0000E+00  0.0000E+00  0.0000E+00  0.0000E+00  0.0000E+00  0.0000E+00  0.0000E+00  0.0000E+00  0.0000E+00  0.0000E+00  0.0000E+00  0.0000E+00  0.0000E+00
     -4.524  0.4553E-07  0.4547E-07  0.2921E-21  0.1385E-21  0.1623E-20  0.8004E-21  0.2921E-21  0.1385E-21  0.8006E-22  0.1811E-21  0.4480E-22  0.1894E-21  0.2247E-12  0.2176E-12  0.4480E-22  0.1894E-21  0.2655E-21  0.6267E-21
     -4.468  0.6487E-06  0.6479E-06  0.1180E-08  0.1178E-08  0.1670E-08  0.1666E-08  0.1180E-08  0.1178E-08  0.2994E-20  0.5819E-20  0.1400E-11  0.1397E-11  0.3302E-11  0.3207E-11  0.1400E-11  0.1397E-11  0.9516E-12  0.9509E-12
     -4.413  0.1922E-05  0.1919E-05  0.5252E-08  0.5243E-08  0.4634E-08  0.4623E-08  0.5252E-08  0.5243E-08  0.9001E-11  0.9010E-11  0.6259E-11  0.6248E-11  0.1329E-10  0.1295E-10  0.6259E-11  0.6248E-11  0.1928E-11  0.1927E-11
     -4.358  0.5742E-05  0.5735E-05  0.1504E-07  0.1501E-07  0.1935E-07  0.1931E-07  0.1504E-07  0.1501E-07  0.1824E-10  0.1826E-10  0.2110E-10  0.2106E-10  0.4211E-10  0.4124E-10  0.2110E-10  0.2106E-10  0.1090E-10  0.1089E-10
     -4.302  0.1775E-04  0.1773E-04  0.5328E-07  0.5319E-07  0.5863E-07  0.5850E-07  0.5328E-07  0.5319E-07  0.8164E-10  0.8170E-10  0.8187E-10  0.8173E-10  0.1423E-09  0.1394E-09  0.8187E-10  0.8173E-10  0.4738E-10  0.4734E-10
     -4.247  0.5280E-04  0.5274E-04  0.1627E-06  0.1624E-06  0.1738E-06  0.1734E-06  0.1627E-06  0.1624E-06  0.2837E-09  0.2839E-09  0.2540E-09  0.2535E-09  0.4283E-09  0.4195E-09  0.2540E-09  0.2535E-09  0.1411E-09  0.1410E-09
     -4.191  0.1519E-03  0.1518E-03  0.4752E-06  0.4744E-06  0.5200E-06  0.5189E-06  0.4752E-06  0.4744E-06  0.8127E-09  0.8132E-09  0.7694E-09  0.7680E-09  0.1245E-08  0.1221E-08  0.7694E-09  0.7680E-09  0.4147E-09  0.4143E-09
     -4.136  0.4058E-03  0.4055E-03  0.1365E-05  0.1363E-05  0.1499E-05  0.1496E-05  0.1365E-05  0.1363E-05  0.2498E-08  0.2499E-08  0.2377E-08  0.2373E-08  0.3495E-08  0.3429E-08  0.2377E-08  0.2373E-08  0.1225E-08  0.1224E-08
     -4.081  0.9225E-03  0.9220E-03  0.3522E-05  0.3517E-05  0.3859E-05  0.3852E-05  0.3522E-05  0.3517E-05  0.6878E-08  0.6882E-08  0.6532E-08  0.6521E-08  0.8692E-08  0.8542E-08  0.6532E-08  0.6521E-08  0.3394E-08  0.3392E-08
     -4.025  0.1666E-02  0.1665E-02  0.7771E-05  0.7761E-05  0.8592E-05  0.8578E-05  0.7771E-05  0.7761E-05  0.1734E-07  0.1736E-07  0.1646E-07  0.1644E-07  0.1857E-07  0.1830E-07  0.1646E-07  0.1644E-07  0.8564E-08  0.8558E-08
     -3.970  0.2410E-02  0.2411E-02  0.1457E-04  0.1456E-04  0.1636E-04  0.1634E-04  0.1457E-04  0.1456E-04  0.3777E-07  0.3779E-07  0.3653E-07  0.3648E-07  0.3521E-07  0.3482E-07  0.3653E-07  0.3648E-07  0.1999E-07  0.1997E-07
     -3.915  0.3116E-02  0.3117E-02  0.2482E-04  0.2479E-04  0.2717E-04  0.2714E-04  0.2482E-04  0.2479E-04  0.7643E-07  0.7648E-07  0.7299E-07  0.7289E-07  0.6237E-07  0.6184E-07  0.7299E-07  0.7289E-07  0.4126E-07  0.4123E-07
     -3.859  0.3756E-02  0.3757E-02  0.3733E-04  0.3730E-04  0.3938E-04  0.3934E-04  0.3733E-04  0.3730E-04  0.1386E-06  0.1387E-06  0.1294E-06  0.1292E-06  0.9792E-07  0.9723E-07  0.1294E-06  0.1292E-06  0.6798E-07  0.6794E-07
     -3.804  0.4051E-02  0.4053E-02  0.4803E-04  0.4801E-04  0.5327E-04  0.5321E-04  0.4803E-04  0.4801E-04  0.2169E-06  0.2169E-06  0.2058E-06  0.2055E-06  0.1397E-06  0.1390E-06  0.2058E-06  0.2055E-06  0.9651E-07  0.9640E-07
     -3.748  0.4336E-02  0.4337E-02  0.6113E-04  0.6109E-04  0.7366E-04  0.7357E-04  0.6113E-04  0.6109E-04  0.3252E-06  0.3252E-06  0.3146E-06  0.3142E-06  0.2100E-06  0.2091E-06  0.3146E-06  0.3142E-06  0.1483E-06  0.1480E-06
     -3.693  0.4871E-02  0.4872E-02  0.8183E-04  0.8178E-04  0.9397E-04  0.9388E-04  0.8183E-04  0.8178E-04  0.4741E-06  0.4740E-06  0.4464E-06  0.4458E-06  0.3162E-06  0.3152E-06  0.4464E-06  0.4458E-06  0.2477E-06  0.2472E-06
     -3.638  0.5227E-02  0.5229E-02  0.1039E-03  0.1038E-03  0.1062E-03  0.1061E-03  0.1039E-03  0.1038E-03  0.6361E-06  0.6360E-06  0.6019E-06  0.6011E-06  0.4173E-06  0.4160E-06  0.6019E-06  0.6011E-06  0.3716E-06  0.3710E-06
     -3.582  0.5438E-02  0.5440E-02  0.1222E-03  0.1221E-03  0.1259E-03  0.1258E-03  0.1222E-03  0.1221E-03  0.8560E-06  0.8559E-06  0.8442E-06  0.8431E-06  0.5027E-06  0.5013E-06  0.8442E-06  0.8431E-06  0.4524E-06  0.4518E-06
     -3.527  0.5661E-02  0.5663E-02  0.1379E-03  0.1379E-03  0.1572E-03  0.1570E-03  0.1379E-03  0.1379E-03  0.1176E-05  0.1175E-05  0.1115E-05  0.1114E-05  0.6357E-06  0.6341E-06  0.1115E-05  0.1114E-05  0.4920E-06  0.4915E-06
     -3.471  0.5722E-02  0.5724E-02  0.1510E-03  0.1510E-03  0.1843E-03  0.1841E-03  0.1510E-03  0.1510E-03  0.1510E-05  0.1510E-05  0.1314E-05  0.1313E-05  0.8342E-06  0.8326E-06  0.1314E-05  0.1313E-05  0.5512E-06  0.5506E-06
     -3.416  0.5658E-02  0.5660E-02  0.1649E-03  0.1649E-03  0.2069E-03  0.2067E-03  0.1649E-03  0.1649E-03  0.1707E-05  0.1707E-05  0.1584E-05  0.1583E-05  0.1017E-05  0.1016E-05  0.1584E-05  0.1583E-05  0.7194E-06  0.7184E-06
     -3.361  0.6056E-02  0.6057E-02  0.2016E-03  0.2015E-03  0.2344E-03  0.2342E-03  0.2016E-03  0.2015E-03  0.1987E-05  0.1987E-05  0.2094E-05  0.2092E-05  0.1231E-05  0.1229E-05  0.2094E-05  0.2092E-05  0.1104E-05  0.1102E-05
     -3.305  0.6677E-02  0.6679E-02  0.2486E-03  0.2484E-03  0.2627E-03  0.2625E-03  0.2486E-03  0.2484E-03  0.2515E-05  0.2514E-05  0.2619E-05  0.2617E-05  0.1527E-05  0.1524E-05  0.2619E-05  0.2617E-05  0.1518E-05  0.1516E-05
     -3.250  0.6743E-02  0.6746E-02  0.2742E-03  0.2741E-03  0.2755E-03  0.2753E-03  0.2742E-03  0.2741E-03  0.3225E-05  0.3224E-05  0.2920E-05  0.2918E-05  0.1771E-05  0.1768E-05  0.2920E-05  0.2918E-05  0.1673E-05  0.1672E-05
     -3.194  0.6627E-02  0.6630E-02  0.2904E-03  0.2903E-03  0.2989E-03  0.2986E-03  0.2904E-03  0.2903E-03  0.4038E-05  0.4037E-05  0.3320E-05  0.3318E-05  0.2012E-05  0.2008E-05  0.3320E-05  0.3318E-05  0.1693E-05  0.1692E-05
     -3.139  0.6641E-02  0.6644E-02  0.2986E-03  0.2986E-03  0.3616E-03  0.3612E-03  0.2986E-03  0.2986E-03  0.4563E-05  0.4563E-05  0.4023E-05  0.4020E-05  0.2329E-05  0.2326E-05  0.4023E-05  0.4020E-05  0.1670E-05  0.1669E-05
     -3.084  0.6435E-02  0.6438E-02  0.2941E-03  0.2941E-03  0.4220E-03  0.4217E-03  0.2941E-03  0.2941E-03  0.4565E-05  0.4565E-05  0.4805E-05  0.4801E-05  0.2535E-05  0.2533E-05  0.4805E-05  0.4801E-05  0.1700E-05  0.1699E-05
     -3.028  0.6437E-02  0.6439E-02  0.3202E-03  0.3201E-03  0.4546E-03  0.4544E-03  0.3202E-03  0.3201E-03  0.5010E-05  0.5009E-05  0.5633E-05  0.5629E-05  0.2795E-05  0.2792E-05  0.5633E-05  0.5629E-05  0.2104E-05  0.2102E-05
     -2.973  0.6853E-02  0.6855E-02  0.3876E-03  0.3875E-03  0.4701E-03  0.4699E-03  0.3876E-03  0.3875E-03  0.6497E-05  0.6494E-05  0.6320E-05  0.6317E-05  0.3427E-05  0.3423E-05  0.6320E-05  0.6317E-05  0.2888E-05  0.2885E-05
     -2.917  0.7230E-02  0.7233E-02  0.4605E-03  0.4604E-03  0.4681E-03  0.4679E-03  0.4605E-03  0.4604E-03  0.8165E-05  0.8163E-05  0.6829E-05  0.6825E-05  0.4068E-05  0.4062E-05  0.6829E-05  0.6825E-05  0.3781E-05  0.3778E-05
     -2.862  0.7168E-02  0.7172E-02  0.4975E-03  0.4975E-03  0.4786E-03  0.4783E-03  0.4975E-03  0.4975E-03  0.8901E-05  0.8900E-05  0.7444E-05  0.7439E-05  0.4342E-05  0.4336E-05  0.7444E-05  0.7439E-05  0.4378E-05  0.4375E-05
     -2.807  0.7145E-02  0.7148E-02  0.5165E-03  0.5164E-03  0.5741E-03  0.5734E-03  0.5165E-03  0.5164E-03  0.9239E-05  0.9238E-05  0.8753E-05  0.8746E-05  0.4790E-05  0.4782E-05  0.8753E-05  0.8746E-05  0.4679E-05  0.4677E-05
     -2.751  0.7187E-02  0.7190E-02  0.5245E-03  0.5244E-03  0.7138E-03  0.7132E-03  0.5245E-03  0.5244E-03  0.9670E-05  0.9668E-05  0.1046E-04  0.1046E-04  0.5367E-05  0.5360E-05  0.1046E-04  0.1046E-04  0.4692E-05  0.4693E-05
     -2.696  0.6906E-02  0.6909E-02  0.5178E-03  0.5177E-03  0.7851E-03  0.7846E-03  0.5178E-03  0.5177E-03  0.1091E-04  0.1091E-04  0.1182E-04  0.1181E-04  0.5430E-05  0.5426E-05  0.1182E-04  0.1181E-04  0.4251E-05  0.4252E-05
     -2.641  0.6806E-02  0.6808E-02  0.5491E-03  0.5489E-03  0.8186E-03  0.8180E-03  0.5491E-03  0.5489E-03  0.1371E-04  0.1371E-04  0.1322E-04  0.1321E-04  0.5498E-05  0.5493E-05  0.1322E-04  0.1321E-04  0.4063E-05  0.4063E-05
     -2.585  0.6764E-02  0.6767E-02  0.5896E-03  0.5896E-03  0.8607E-03  0.8602E-03  0.5896E-03  0.5896E-03  0.1613E-04  0.1613E-04  0.1418E-04  0.1417E-04  0.5970E-05  0.5965E-05  0.1418E-04  0.1417E-04  0.4334E-05  0.4333E-05
     -2.530  0.6258E-02  0.6262E-02  0.6050E-03  0.6049E-03  0.8494E-03  0.8490E-03  0.6050E-03  0.6049E-03  0.1680E-04  0.1680E-04  0.1384E-04  0.1384E-04  0.6372E-05  0.6366E-05  0.1384E-04  0.1384E-04  0.5050E-05  0.5049E-05
     -2.474  0.6165E-02  0.6167E-02  0.6720E-03  0.6718E-03  0.8996E-03  0.8989E-03  0.6720E-03  0.6718E-03  0.1690E-04  0.1690E-04  0.1547E-04  0.1546E-04  0.7013E-05  0.7003E-05  0.1547E-04  0.1546E-04  0.6802E-05  0.6799E-05
     -2.419  0.6720E-02  0.6721E-02  0.7890E-03  0.7888E-03  0.1064E-02  0.1063E-02  0.7890E-03  0.7888E-03  0.1754E-04  0.1754E-04  0.2011E-04  0.2009E-04  0.7991E-05  0.7981E-05  0.2011E-04  0.2009E-04  0.8898E-05  0.8897E-05
     -2.364  0.6978E-02  0.6981E-02  0.8657E-03  0.8656E-03  0.1183E-02  0.1182E-02  0.8657E-03  0.8656E-03  0.1911E-04  0.1911E-04  0.2386E-04  0.2385E-04  0.8442E-05  0.8433E-05  0.2386E-04  0.2385E-04  0.9851E-05  0.9852E-05
     -2.308  0.6657E-02  0.6661E-02  0.8956E-03  0.8956E-03  0.1138E-02  0.1138E-02  0.8956E-03  0.8956E-03  0.2235E-04  0.2234E-04  0.2409E-04  0.2408E-04  0.8510E-05  0.8501E-05  0.2409E-04  0.2408E-04  0.9859E-05  0.9861E-05
     -2.253  0.6230E-02  0.6234E-02  0.9191E-03  0.9190E-03  0.1010E-02  0.1010E-02  0.9191E-03  0.9190E-03  0.2740E-04  0.2739E-04  0.2298E-04  0.2297E-04  0.8599E-05  0.8588E-05  0.2298E-04  0.2297E-04  0.9289E-05  0.9292E-05
     -2.197  0.5702E-02  0.5706E-02  0.9215E-03  0.9215E-03  0.9463E-03  0.9460E-03  0.9215E-03  0.9215E-03  0.3048E-04  0.3048E-04  0.2295E-04  0.2294E-04  0.8256E-05  0.8246E-05  0.2295E-04  0.2294E-04  0.8295E-05  0.8297E-05
     -2.142  0.5188E-02  0.5191E-02  0.9200E-03  0.9199E-03  0.9925E-03  0.9918E-03  0.9200E-03  0.9199E-03  0.3103E-04  0.3102E-04  0.2519E-04  0.2517E-04  0.7881E-05  0.7871E-05  0.2519E-04  0.2517E-04  0.7555E-05  0.7557E-05
     -2.087  0.5141E-02  0.5143E-02  0.9719E-03  0.9717E-03  0.1139E-02  0.1139E-02  0.9719E-03  0.9717E-03  0.3338E-04  0.3337E-04  0.3077E-04  0.3074E-04  0.8454E-05  0.8443E-05  0.3077E-04  0.3074E-04  0.7185E-05  0.7186E-05