   8   8   1   0
  0.1387212E+02  0.3785367E-09  0.3785367E-09  0.7744918E-09  0.5000000E-15
  1.000000000000000E-004
  CAR 
 unknown system                          
     18.02719432     -3.84504102  301      8.78969205      1.00000000
     -3.845  0.0000E+00  0.0000E+00  0.0000E+00  0.0000E+00
     -3.772  0.0000E+00  0.0000E+00  0.0000E+00  0.0000E+00
     -3.699  0.0000E+00  0.0000E+00  0.0000E+00  0.0000E+00
     -3.626  0.0000E+00  0.0000E+00  0.0000E+00  0.0000E+00
     -3.553  0.0000E+00  0.0000E+00  0.0000E+00  0.0000E+00
     -3.481  0.0000E+00  0.0000E+00  0.0000E+00  0.0000E+00
     -3.408  0.0000E+00  0.0000E+00  0.0000E+00  0.0000E+00
     -3.335  0.0000E+00  0.0000E+00  0.0000E+00  0.0000E+00
     -3.262  0.9129E-05  0.5116E-05  0.6656E-06  0.3730E-06
     -3.189  0.4653E-04  0.4732E-04  0.4058E-05  0.3823E-05
     -3.116  0.2003E-03  0.1887E-03  0.1866E-04  0.1758E-04
     -3.043  0.8557E-03  0.8065E-03  0.8105E-04  0.7638E-04
     -2.970  0.3601E-02  0.3400E-02  0.3436E-03  0.3243E-03
     -2.897  0.1377E-01  0.1307E-01  0.1347E-02  0.1278E-02
     -2.824  0.4217E-01  0.4054E-01  0.4422E-02  0.4233E-02
     -2.751  0.8991E-01  0.8787E-01  0.1098E-01  0.1064E-01
     -2.679  0.1321E+00  0.1307E+00  0.2061E-01  0.2017E-01
     -2.606  0.1702E+00  0.1683E+00  0.3302E-01  0.3244E-01
     -2.533  0.2200E+00  0.2184E+00  0.4906E-01  0.4836E-01
     -2.460  0.2292E+00  0.2297E+00  0.6577E-01  0.6511E-01
     -2.387  0.2335E+00  0.2321E+00  0.8280E-01  0.8204E-01
     -2.314  0.2852E+00  0.2832E+00  0.1036E+00  0.1027E+00
     -2.241  0.3093E+00  0.3090E+00  0.1262E+00  0.1252E+00
     -2.168  0.3184E+00  0.3178E+00  0.1494E+00  0.1484E+00
     -2.095  0.3414E+00  0.3405E+00  0.1743E+00  0.1732E+00
     -2.022  0.3568E+00  0.3570E+00  0.2003E+00  0.1993E+00
     -1.949  0.3345E+00  0.3353E+00  0.2247E+00  0.2237E+00
     -1.877  0.3573E+00  0.3545E+00  0.2508E+00  0.2496E+00
     -1.804  0.4391E+00  0.4364E+00  0.2828E+00  0.2814E+00
     -1.731  0.4497E+00  0.4511E+00  0.3156E+00  0.3143E+00
     -1.658  0.4222E+00  0.4220E+00  0.3464E+00  0.3451E+00
     -1.585  0.4537E+00  0.4526E+00  0.3795E+00  0.3781E+00
     -1.512  0.4394E+00  0.4408E+00  0.4116E+00  0.4103E+00
     -1.439  0.4274E+00  0.4266E+00  0.4427E+00  0.4414E+00
     -1.366  0.4698E+00  0.4673E+00  0.4770E+00  0.4755E+00
     -1.293  0.5339E+00  0.5321E+00  0.5160E+00  0.5143E+00
     -1.220  0.5291E+00  0.5308E+00  0.5546E+00  0.5531E+00
     -1.147  0.5181E+00  0.5167E+00  0.5924E+00  0.5908E+00
     -1.075  0.5739E+00  0.5718E+00  0.6342E+00  0.6325E+00
     -1.002  0.5696E+00  0.5715E+00  0.6758E+00  0.6742E+00
     -0.929  0.5425E+00  0.5415E+00  0.7154E+00  0.7137E+00
     -0.856  0.6014E+00  0.5996E+00  0.7592E+00  0.7574E+00
     -0.783  0.5640E+00  0.5678E+00  0.8004E+00  0.7988E+00
     -0.710  0.5105E+00  0.5097E+00  0.8376E+00  0.8360E+00
     -0.637  0.6128E+00  0.6066E+00  0.8824E+00  0.8803E+00
     -0.564  0.7275E+00  0.7252E+00  0.9354E+00  0.9332E+00
     -0.491  0.7207E+00  0.7224E+00  0.9880E+00  0.9859E+00
     -0.418  0.6798E+00  0.6814E+00  0.1038E+01  0.1036E+01
     -0.345  0.6386E+00  0.6409E+00  0.1084E+01  0.1082E+01
     -0.273  0.5775E+00  0.5797E+00  0.1126E+01  0.1125E+01
     -0.200  0.5880E+00  0.5850E+00  0.1169E+01  0.1167E+01
     -0.127  0.6768E+00  0.6740E+00  0.1219E+01  0.1217E+01
     -0.054  0.6999E+00  0.7007E+00  0.1270E+01  0.1268E+01
      0.019  0.7095E+00  0.7084E+00  0.1321E+01  0.1319E+01
      0.092  0.7224E+00  0.7238E+00  0.1374E+01  0.1372E+01
      0.165  0.6718E+00  0.6732E+00  0.1423E+01  0.1421E+01
      0.238  0.7058E+00  0.7023E+00  0.1475E+01  0.1472E+01
      0.311  0.7911E+00  0.7883E+00  0.1532E+01  0.1530E+01
      0.384  0.7827E+00  0.7864E+00  0.1589E+01  0.1587E+01
      0.456  0.6383E+00  0.6450E+00  0.1636E+01  0.1634E+01
      0.529  0.5503E+00  0.5516E+00  0.1676E+01  0.1675E+01
      0.602  0.5680E+00  0.5659E+00  0.1718E+01  0.1716E+01
      0.675  0.6597E+00  0.6547E+00  0.1766E+01  0.1764E+01
      0.748  0.7598E+00  0.7572E+00  0.1821E+01  0.1819E+01
      0.821  0.7790E+00  0.7794E+00  0.1878E+01  0.1876E+01
      0.894  0.7923E+00  0.7907E+00  0.1936E+01  0.1933E+01
      0.967  0.8478E+00  0.8463E+00  0.1998E+01  0.1995E+01
      1.040  0.8197E+00  0.8231E+00  0.2057E+01  0.2055E+01
      1.113  0.7433E+00  0.7437E+00  0.2112E+01  0.2109E+01
      1.186  0.8102E+00  0.8053E+00  0.2171E+01  0.2168E+01
      1.258  0.8902E+00  0.8897E+00  0.2236E+01  0.2233E+01
      1.331  0.8328E+00  0.8366E+00  0.2297E+01  0.2294E+01
      1.404  0.8014E+00  0.7992E+00  0.2355E+01  0.2353E+01
      1.477  0.8978E+00  0.8947E+00  0.2421E+01  0.2418E+01
      1.550  0.9090E+00  0.9103E+00  0.2487E+01  0.2484E+01
      1.623  0.8555E+00  0.8583E+00  0.2549E+01  0.2547E+01
      1.696  0.7800E+00  0.7831E+00  0.2606E+01  0.2604E+01
      1.769  0.7451E+00  0.7458E+00  0.2660E+01  0.2658E+01
      1.842  0.7488E+00  0.7476E+00  0.2715E+01  0.2713E+01
      1.915  0.7647E+00  0.7645E+00  0.2771E+01  0.2769E+01
      1.988  0.7510E+00  0.7520E+00  0.2826E+01  0.2824E+01
      2.060  0.7867E+00  0.7834E+00  0.2883E+01  0.2881E+01
      2.133  0.9170E+00  0.9122E+00  0.2950E+01  0.2947E+01
      2.206  0.9991E+00  0.9971E+00  0.3023E+01  0.3020E+01
      2.279  0.1054E+01  0.1052E+01  0.3100E+01  0.3097E+01
      2.352  0.1086E+01  0.1087E+01  0.3179E+01  0.3176E+01
      2.425  0.9749E+00  0.9822E+00  0.3250E+01  0.3248E+01
      2.498  0.8159E+00  0.8203E+00  0.3310E+01  0.3308E+01
      2.571  0.8051E+00  0.8031E+00  0.3368E+01  0.3366E+01
      2.644  0.9104E+00  0.9037E+00  0.3435E+01  0.3432E+01
      2.717  0.1105E+01  0.1098E+01  0.3516E+01  0.3512E+01
      2.790  0.1162E+01  0.1164E+01  0.3600E+01  0.3597E+01
      2.862  0.1054E+01  0.1060E+01  0.3677E+01  0.3674E+01
      2.935  0.9024E+00  0.9084E+00  0.3743E+01  0.3741E+01
      3.008  0.7932E+00  0.7956E+00  0.3801E+01  0.3799E+01
      3.081  0.7849E+00  0.7826E+00  0.3858E+01  0.3856E+01
      3.154  0.9130E+00  0.9056E+00  0.3925E+01  0.3922E+01
      3.227  0.1090E+01  0.1086E+01  0.4004E+01  0.4001E+01
      3.300  0.1107E+01  0.1109E+01  0.4085E+01  0.4082E+01
      3.373  0.1123E+01  0.1121E+01  0.4167E+01  0.4164E+01
      3.446  0.1120E+01  0.1122E+01  0.4249E+01  0.4246E+01
      3.519  0.1048E+01  0.1047E+01  0.4325E+01  0.4322E+01
      3.592  0.1172E+01  0.1165E+01  0.4411E+01  0.4407E+01
      3.664  0.1253E+01  0.1255E+01  0.4502E+01  0.4499E+01
      3.737  0.1106E+01  0.1113E+01  0.4583E+01  0.4580E+01
      3.810  0.1001E+01  0.1002E+01  0.4656E+01  0.4653E+01
      3.883  0.9384E+00  0.9423E+00  0.4724E+01  0.4722E+01
      3.956  0.8259E+00  0.8280E+00  0.4784E+01  0.4782E+01
      4.029  0.8940E+00  0.8875E+00  0.4850E+01  0.4847E+01
      4.102  0.1141E+01  0.1132E+01  0.4933E+01  0.4930E+01
      4.175  0.1305E+01  0.1302E+01  0.5028E+01  0.5025E+01
      4.248  0.1363E+01  0.1360E+01  0.5128E+01  0.5124E+01
      4.321  0.1402E+01  0.1403E+01  0.5230E+01  0.5226E+01
      4.394  0.1300E+01  0.1305E+01  0.5325E+01  0.5321E+01
      4.466  0.1212E+01  0.1214E+01  0.5413E+01  0.5410E+01
      4.539  0.1210E+01  0.1210E+01  0.5501E+01  0.5498E+01
      4.612  0.1214E+01  0.1215E+01  0.5590E+01  0.5587E+01
      4.685  0.1121E+01  0.1127E+01  0.5672E+01  0.5669E+01
      4.758  0.1034E+01  0.1035E+01  0.5747E+01  0.5745E+01
      4.831  0.1088E+01  0.1085E+01  0.5827E+01  0.5824E+01
      4.904  0.1141E+01  0.1140E+01  0.5910E+01  0.5907E+01
      4.977  0.1186E+01  0.1184E+01  0.5997E+01  0.5993E+01
      5.050  0.1235E+01  0.1234E+01  0.6087E+01  0.6083E+01
      5.123  0.1304E+01  0.1301E+01  0.6182E+01  0.6178E+01
      5.195  0.1355E+01  0.1356E+01  0.6281E+01  0.6277E+01
      5.268  0.1239E+01  0.1246E+01  0.6371E+01  0.6368E+01
      5.341  0.1051E+01  0.1058E+01  0.6448E+01  0.6445E+01
      5.414  0.9195E+00  0.9218E+00  0.6515E+01  0.6512E+01
      5.487  0.8483E+00  0.8506E+00  0.6577E+01  0.6575E+01
      5.560  0.8128E+00  0.8128E+00  0.6636E+01  0.6634E+01
      5.633  0.8699E+00  0.8660E+00  0.6700E+01  0.6697E+01
      5.706  0.1061E+01  0.1050E+01  0.6777E+01  0.6774E+01
      5.779  0.1481E+01  0.1463E+01  0.6885E+01  0.6880E+01
      5.852  0.1926E+01  0.1915E+01  0.7026E+01  0.7020E+01
      5.925  0.1913E+01  0.1924E+01  0.7165E+01  0.7160E+01
      5.997  0.1499E+01  0.1514E+01  0.7274E+01  0.7271E+01
      6.070  0.1221E+01  0.1227E+01  0.7363E+01  0.7360E+01
      6.143  0.1115E+01  0.1116E+01  0.7445E+01  0.7442E+01
      6.216  0.1159E+01  0.1156E+01  0.7529E+01  0.7526E+01
      6.289  0.1197E+01  0.1198E+01  0.7617E+01  0.7614E+01
      6.362  0.1135E+01  0.1137E+01  0.7700E+01  0.7697E+01
      6.435  0.1141E+01  0.1138E+01  0.7783E+01  0.7780E+01
      6.508  0.1209E+01  0.1207E+01  0.7871E+01  0.7868E+01
      6.581  0.1292E+01  0.1288E+01  0.7965E+01  0.7962E+01
      6.654  0.1403E+01  0.1401E+01  0.8068E+01  0.8064E+01
      6.727  0.1412E+01  0.1412E+01  0.8171E+01  0.8167E+01
      6.799  0.1464E+01  0.1460E+01  0.8277E+01  0.8273E+01
      6.872  0.1544E+01  0.1543E+01  0.8390E+01  0.8386E+01
      6.945  0.1489E+01  0.1493E+01  0.8499E+01  0.8495E+01
      7.018  0.1352E+01  0.1357E+01  0.8597E+01  0.8594E+01
      7.091  0.1245E+01  0.1248E+01  0.8688E+01  0.8685E+01
      7.164  0.1164E+01  0.1164E+01  0.8773E+01  0.8770E+01
      7.237  0.1282E+01  0.1276E+01  0.8867E+01  0.8863E+01
      7.310  0.1313E+01  0.1315E+01  0.8962E+01  0.8959E+01
      7.383  0.1263E+01  0.1264E+01  0.9055E+01  0.9051E+01
      7.456  0.1214E+01  0.1217E+01  0.9143E+01  0.9140E+01
      7.529  0.1087E+01  0.1091E+01  0.9222E+01  0.9220E+01
      7.601  0.1043E+01  0.1043E+01  0.9299E+01  0.9296E+01
      7.674  0.1060E+01  0.1059E+01  0.9376E+01  0.9373E+01
      7.747  0.1193E+01  0.1185E+01  0.9463E+01  0.9459E+01
      7.820  0.1504E+01  0.1493E+01  0.9573E+01  0.9568E+01
      7.893  0.1707E+01  0.1703E+01  0.9697E+01  0.9693E+01
      7.966  0.1764E+01  0.1763E+01  0.9826E+01  0.9821E+01
      8.039  0.1764E+01  0.1766E+01  0.9955E+01  0.9950E+01
      8.112  0.1677E+01  0.1681E+01  0.1008E+02  0.1007E+02
      8.185  0.1499E+01  0.1506E+01  0.1019E+02  0.1018E+02
      8.258  0.1298E+01  0.1304E+01  0.1028E+02  0.1028E+02
      8.331  0.1166E+01  0.1169E+01  0.1037E+02  0.1036E+02
      8.403  0.1134E+01  0.1131E+01  0.1045E+02  0.1045E+02
      8.476  0.1239E+01  0.1234E+01  0.1054E+02  0.1054E+02
      8.549  0.1312E+01  0.1311E+01  0.1064E+02  0.1063E+02
      8.622  0.1443E+01  0.1437E+01  0.1074E+02  0.1074E+02
      8.695  0.1599E+01  0.1596E+01  0.1086E+02  0.1085E+02
      8.768  0.1558E+01  0.1564E+01  0.1097E+02  0.1097E+02
      8.841  0.1381E+01  0.1386E+01  0.1107E+02  0.1107E+02
      8.914  0.1328E+01  0.1327E+01  0.1117E+02  0.1116E+02
      8.987  0.1343E+01  0.1343E+01  0.1127E+02  0.1126E+02
      9.060  0.1297E+01  0.1297E+01  0.1136E+02  0.1136E+02
      9.132  0.1357E+01  0.1351E+01  0.1146E+02  0.1146E+02
      9.205  0.1397E+01  0.1401E+01  0.1156E+02  0.1156E+02
      9.278  0.1239E+01  0.1244E+01  0.1165E+02  0.1165E+02
      9.351  0.1234E+01  0.1231E+01  0.1174E+02  0.1174E+02
      9.424  0.1323E+01  0.1323E+01  0.1184E+02  0.1184E+02
      9.497  0.1242E+01  0.1245E+01  0.1193E+02  0.1193E+02
      9.570  0.1186E+01  0.1185E+01  0.1202E+02  0.1201E+02
      9.643  0.1273E+01  0.1266E+01  0.1211E+02  0.1211E+02
      9.716  0.1428E+01  0.1423E+01  0.1221E+02  0.1221E+02
      9.789  0.1459E+01  0.1462E+01  0.1232E+02  0.1232E+02
      9.862  0.1318E+01  0.1323E+01  0.1242E+02  0.1241E+02
      9.934  0.1302E+01  0.1300E+01  0.1251E+02  0.1251E+02
     10.007  0.1381E+01  0.1378E+01  0.1261E+02  0.1261E+02
     10.080  0.1397E+01  0.1397E+01  0.1271E+02  0.1271E+02
     10.153  0.1379E+01  0.1379E+01  0.1281E+02  0.1281E+02
     10.226  0.1457E+01  0.1451E+01  0.1292E+02  0.1292E+02
     10.299  0.1574E+01  0.1571E+01  0.1304E+02  0.1303E+02
     10.372  0.1538E+01  0.1538E+01  0.1315E+02  0.1314E+02
     10.445  0.1624E+01  0.1616E+01  0.1327E+02  0.1326E+02
     10.518  0.1758E+01  0.1755E+01  0.1339E+02  0.1339E+02
     10.591  0.1711E+01  0.1716E+01  0.1352E+02  0.1351E+02
     10.664  0.1577E+01  0.1584E+01  0.1363E+02  0.1363E+02
     10.736  0.1391E+01  0.1400E+01  0.1374E+02  0.1373E+02
     10.809  0.1355E+01  0.1349E+01  0.1383E+02  0.1383E+02
     10.882  0.1608E+01  0.1599E+01  0.1395E+02  0.1395E+02
     10.955  0.1673E+01  0.1680E+01  0.1407E+02  0.1407E+02
     11.028  0.1437E+01  0.1448E+01  0.1418E+02  0.1417E+02
     11.101  0.1309E+01  0.1307E+01  0.1427E+02  0.1427E+02
     11.174  0.1483E+01  0.1472E+01  0.1438E+02  0.1438E+02
     11.247  0.1599E+01  0.1600E+01  0.1450E+02  0.1449E+02
     11.320  0.1485E+01  0.1490E+01  0.1461E+02  0.1460E+02
     11.393  0.1495E+01  0.1492E+01  0.1472E+02  0.1471E+02
     11.466  0.1639E+01  0.1631E+01  0.1484E+02  0.1483E+02
     11.538  0.1876E+01  0.1866E+01  0.1497E+02  0.1497E+02
     11.611  0.1952E+01  0.1954E+01  0.1512E+02  0.1511E+02
     11.684  0.1694E+01  0.1708E+01  0.1524E+02  0.1523E+02
     11.757  0.1383E+01  0.1391E+01  0.1534E+02  0.1534E+02
     11.830  0.1292E+01  0.1294E+01  0.1543E+02  0.1543E+02
     11.903  0.1305E+01  0.1306E+01  0.1553E+02  0.1553E+02
     11.976  0.1327E+01  0.1325E+01  0.1563E+02  0.1562E+02
     12.049  0.1419E+01  0.1412E+01  0.1573E+02  0.1573E+02
     12.122  0.1621E+01  0.1610E+01  0.1585E+02  0.1584E+02
     12.195  0.1825E+01  0.1819E+01  0.1598E+02  0.1598E+02
     12.268  0.1822E+01  0.1826E+01  0.1611E+02  0.1611E+02
     12.340  0.1696E+01  0.1702E+01  0.1624E+02  0.1623E+02
     12.413  0.1594E+01  0.1597E+01  0.1635E+02  0.1635E+02
     12.486  0.1555E+01  0.1557E+01  0.1647E+02  0.1646E+02
     12.559  0.1476E+01  0.1477E+01  0.1658E+02  0.1657E+02
     12.632  0.1538E+01  0.1533E+01  0.1669E+02  0.1668E+02
     12.705  0.1652E+01  0.1647E+01  0.1681E+02  0.1680E+02
     12.778  0.1773E+01  0.1768E+01  0.1694E+02  0.1693E+02
     12.851  0.1819E+01  0.1819E+01  0.1707E+02  0.1706E+02
     12.924  0.1763E+01  0.1768E+01  0.1720E+02  0.1719E+02
     12.997  0.1553E+01  0.1561E+01  0.1731E+02  0.1731E+02
     13.069  0.1369E+01  0.1373E+01  0.1741E+02  0.1741E+02
     13.142  0.1280E+01  0.1280E+01  0.1751E+02  0.1750E+02
     13.215  0.1300E+01  0.1299E+01  0.1760E+02  0.1760E+02
     13.288  0.1389E+01  0.1381E+01  0.1770E+02  0.1770E+02
     13.361  0.1600E+01  0.1589E+01  0.1782E+02  0.1781E+02
     13.434  0.1700E+01  0.1699E+01  0.1794E+02  0.1794E+02
     13.507  0.1584E+01  0.1590E+01  0.1806E+02  0.1805E+02
     13.580  0.1515E+01  0.1509E+01  0.1817E+02  0.1816E+02
     13.653  0.1540E+01  0.1543E+01  0.1828E+02  0.1827E+02
     13.726  0.1526E+01  0.1551E+01  0.1839E+02  0.1839E+02
     13.799  0.1499E+01  0.1522E+01  0.1850E+02  0.1850E+02
     13.871  0.1475E+01  0.1462E+01  0.1861E+02  0.1861E+02
     13.944  0.1433E+01  0.1407E+01  0.1871E+02  0.1871E+02
     14.017  0.1246E+01  0.1230E+01  0.1880E+02  0.1880E+02
     14.090  0.1083E+01  0.1037E+01  0.1888E+02  0.1887E+02
     14.163  0.1157E+01  0.1126E+01  0.1897E+02  0.1896E+02
     14.236  0.1149E+01  0.1192E+01  0.1905E+02  0.1904E+02
     14.309  0.1062E+01  0.1114E+01  0.1913E+02  0.1912E+02
     14.382  0.1011E+01  0.1045E+01  0.1920E+02  0.1920E+02
     14.455  0.8856E+00  0.9109E+00  0.1927E+02  0.1927E+02
     14.528  0.8157E+00  0.8432E+00  0.1933E+02  0.1933E+02
     14.601  0.8637E+00  0.8713E+00  0.1939E+02  0.1939E+02
     14.673  0.8040E+00  0.7778E+00  0.1945E+02  0.1945E+02
     14.746  0.6104E+00  0.5961E+00  0.1949E+02  0.1949E+02
     14.819  0.4372E+00  0.4357E+00  0.1953E+02  0.1952E+02
     14.892  0.3830E+00  0.3811E+00  0.1955E+02  0.1955E+02
     14.965  0.4085E+00  0.4047E+00  0.1958E+02  0.1958E+02
     15.038  0.4497E+00  0.4458E+00  0.1962E+02  0.1961E+02
     15.111  0.4352E+00  0.4324E+00  0.1965E+02  0.1965E+02
     15.184  0.4206E+00  0.4240E+00  0.1968E+02  0.1968E+02
     15.257  0.3648E+00  0.3801E+00  0.1971E+02  0.1970E+02
     15.330  0.2790E+00  0.3056E+00  0.1973E+02  0.1973E+02
     15.403  0.2101E+00  0.2157E+00  0.1974E+02  0.1974E+02
     15.475  0.1985E+00  0.1801E+00  0.1976E+02  0.1976E+02
     15.548  0.2240E+00  0.2119E+00  0.1977E+02  0.1977E+02
     15.621  0.2550E+00  0.2529E+00  0.1979E+02  0.1979E+02
     15.694  0.2335E+00  0.2387E+00  0.1981E+02  0.1981E+02
     15.767  0.2255E+00  0.2299E+00  0.1982E+02  0.1982E+02
     15.840  0.2851E+00  0.2791E+00  0.1984E+02  0.1984E+02
     15.913  0.3143E+00  0.3091E+00  0.1987E+02  0.1987E+02
     15.986  0.2274E+00  0.2309E+00  0.1988E+02  0.1988E+02
     16.059  0.1324E+00  0.1353E+00  0.1989E+02  0.1989E+02
     16.132  0.1433E+00  0.1424E+00  0.1990E+02  0.1990E+02
     16.205  0.1938E+00  0.1943E+00  0.1992E+02  0.1992E+02
     16.277  0.1770E+00  0.1853E+00  0.1993E+02  0.1993E+02
     16.350  0.1469E+00  0.1521E+00  0.1994E+02  0.1994E+02
     16.423  0.1285E+00  0.1304E+00  0.1995E+02  0.1995E+02
     16.496  0.9912E-01  0.1149E+00  0.1996E+02  0.1996E+02
     16.569  0.8810E-01  0.9954E-01  0.1996E+02  0.1997E+02
     16.642  0.8104E-01  0.6652E-01  0.1997E+02  0.1997E+02
     16.715  0.7080E-01  0.6420E-01  0.1998E+02  0.1998E+02
     16.788  0.9399E-01  0.9724E-01  0.1998E+02  0.1998E+02
     16.861  0.8866E-01  0.8324E-01  0.1999E+02  0.1999E+02
     16.934  0.4838E-01  0.4607E-01  0.1999E+02  0.1999E+02
     17.006  0.3490E-01  0.3888E-01  0.2000E+02  0.2000E+02
     17.079  0.3502E-01  0.2929E-01  0.2000E+02  0.2000E+02
     17.152  0.1915E-01  0.1164E-01  0.2000E+02  0.2000E+02
     17.225  0.5870E-02  0.3070E-02  0.2000E+02  0.2000E+02
     17.298  0.1484E-02  0.7449E-03  0.2000E+02  0.2000E+02
     17.371  0.3523E-03  0.1751E-03  0.2000E+02  0.2000E+02
     17.444  0.0000E+00  0.0000E+00  0.2000E+02  0.2000E+02
     17.517  0.0000E+00  0.0000E+00  0.2000E+02  0.2000E+02
     17.590  0.0000E+00  0.0000E+00  0.2000E+02  0.2000E+02
     17.663  0.0000E+00  0.0000E+00  0.2000E+02  0.2000E+02
     17.736  0.0000E+00  0.0000E+00  0.2000E+02  0.2000E+02
     17.808  0.0000E+00  0.0000E+00  0.2000E+02  0.2000E+02
     17.881  0.0000E+00  0.0000E+00  0.2000E+02  0.2000E+02
     17.954  0.0000E+00  0.0000E+00  0.2000E+02  0.2000E+02
     18.027  0.0000E+00  0.0000E+00  0.2000E+02  0.2000E+02
     18.02719432     -3.84504102  301      8.78969205      1.00000000
     -3.845  0.0000E+00  0.0000E+00  0.0000E+00  0.0000E+00  0.0000E+00  0.0000E+00  0.0000E+00  0.0000E+00  0.0000E+00  0.0000E+00  0.0000E+00  0.0000E+00  0.0000E+00  0.0000E+00  0.0000E+00  0.0000E+00  0.0000E+00  0.0000E+00
     -3.772  0.0000E+00  0.0000E+00  0.0000E+00  0.0000E+00  0.0000E+00  0.0000E+00  0.0000E+00  0.0000E+00  0.0000E+00  0.0000E+00  0.0000E+00  0.0000E+00  0.0000E+00  0.0000E+00  0.0000E+00  0.0000E+00  0.0000E+00  0.0000E+00
     -3.699  0.0000E+00  0.0000E+00  0.0000E+00  0.0000E+00  0.0000E+00  0.0000E+00  0.0000E+00  0.0000E+00  0.0000E+00  0.0000E+00  0.0000E+00  0.0000E+00  0.0000E+00  0.0000E+00  0.0000E+00  0.0000E+00  0.0000E+00  0.0000E+00
     -3.626  0.0000E+00  0.0000E+00  0.0000E+00  0.0000E+00  0.0000E+00  0.0000E+00  0.0000E+00  0.0000E+00  0.0000E+00  0.0000E+00  0.0000E+00  0.0000E+00  0.0000E+00  0.0000E+00  0.0000E+00  0.0000E+00  0.0000E+00  0.0000E+00
     -3.553  0.0000E+00  0.0000E+00  0.0000E+00  0.0000E+00  0.0000E+00  0.0000E+00  0.0000E+00  0.0000E+00  0.0000E+00  0.0000E+00  0.0000E+00  0.0000E+00  0.0000E+00  0.0000E+00  0.0000E+00  0.0000E+00  0.0000E+00  0.0000E+00
     -3.481  0.0000E+00  0.0000E+00  0.0000E+00  0.0000E+00  0.0000E+00  0.0000E+00  0.0000E+00  0.0000E+00  0.0000E+00  0.0000E+00  0.0000E+00  0.0000E+00  0.0000E+00  0.0000E+00  0.0000E+00  0.0000E+00  0.0000E+00  0.0000E+00
     -3.408  0.0000E+00  0.0000E+00  0.0000E+00  0.0000E+00  0.0000E+00  0.0000E+00  0.0000E+00  0.0000E+00  0.0000E+00  0.0000E+00  0.0000E+00  0.0000E+00  0.0000E+00  0.0000E+00  0.0000E+00  0.0000E+00  0.0000E+00  0.0000E+00
     -3.335  0.0000E+00  0.0000E+00  0.0000E+00  0.0000E+00  0.0000E+00  0.0000E+00  0.0000E+00  0.0000E+00  0.0000E+00  0.0000E+00  0.0000E+00  0.0000E+00  0.0000E+00  0.0000E+00  0.0000E+00  0.0000E+00  0.0000E+00  0.0000E+00
     -3.262  0.2085E-06  0.1171E-06  0.2903E-09  0.1336E-20  0.3273E-09  0.3082E-09  0.2903E-09  0.1336E-20  0.9925E-21  0.9171E-21  0.1919E-20  0.2215E-21  0.3294E-11  0.1097E-11  0.1919E-20  0.2215E-21  0.3253E-12  0.3525E-21
     -3.189  0.1058E-05  0.1076E-05  0.2610E-08  0.2732E-08  0.2740E-08  0.2580E-08  0.2610E-08  0.2732E-08  0.2664E-11  0.2512E-11  0.2664E-11  0.2510E-11  0.1741E-10  0.1804E-10  0.2664E-11  0.2510E-11  0.2087E-11  0.2273E-11
     -3.116  0.4552E-05  0.4287E-05  0.1188E-07  0.1119E-07  0.1344E-07  0.1265E-07  0.1188E-07  0.1119E-07  0.1723E-10  0.1624E-10  0.1555E-10  0.1465E-10  0.7502E-10  0.6939E-10  0.1555E-10  0.1465E-10  0.7946E-11  0.7490E-11
     -3.043  0.1944E-04  0.1832E-04  0.5183E-07  0.4884E-07  0.6043E-07  0.5692E-07  0.5183E-07  0.4884E-07  0.6551E-10  0.6176E-10  0.6998E-10  0.6595E-10  0.3284E-09  0.3041E-09  0.6998E-10  0.6595E-10  0.4561E-10  0.4300E-10
     -2.970  0.8177E-04  0.7719E-04  0.2340E-06  0.2207E-06  0.2611E-06  0.2462E-06  0.2340E-06  0.2207E-06  0.3322E-09  0.3133E-09  0.3363E-09  0.3170E-09  0.1425E-08  0.1322E-08  0.3363E-09  0.3170E-09  0.2306E-09  0.2176E-09
     -2.897  0.3123E-03  0.2965E-03  0.9640E-06  0.9114E-06  0.1058E-05  0.1000E-05  0.9640E-06  0.9114E-06  0.1489E-08  0.1405E-08  0.1435E-08  0.1355E-08  0.5556E-08  0.5180E-08  0.1435E-08  0.1355E-08  0.9445E-09  0.8935E-09
     -2.824  0.9547E-03  0.9176E-03  0.3467E-05  0.3304E-05  0.3769E-05  0.3593E-05  0.3467E-05  0.3304E-05  0.5837E-08  0.5532E-08  0.5667E-08  0.5373E-08  0.1782E-07  0.1680E-07  0.5667E-08  0.5373E-08  0.3436E-08  0.3273E-08
     -2.751  0.2026E-02  0.1980E-02  0.9491E-05  0.9172E-05  0.1039E-04  0.1002E-04  0.9491E-05  0.9172E-05  0.1965E-07  0.1883E-07  0.1885E-07  0.1806E-07  0.4219E-07  0.4039E-07  0.1885E-07  0.1806E-07  0.1035E-07  0.9934E-08
     -2.679  0.2955E-02  0.2923E-02  0.1889E-04  0.1844E-04  0.2188E-04  0.2129E-04  0.1889E-04  0.1844E-04  0.4792E-07  0.4646E-07  0.4732E-07  0.4576E-07  0.7663E-07  0.7406E-07  0.4732E-07  0.4576E-07  0.2895E-07  0.2777E-07
     -2.606  0.3765E-02  0.3722E-02  0.3429E-04  0.3346E-04  0.3941E-04  0.3857E-04  0.3429E-04  0.3346E-04  0.1031E-06  0.9984E-07  0.1054E-06  0.1022E-06  0.1369E-06  0.1325E-06  0.1054E-06  0.1022E-06  0.7668E-07  0.7417E-07
     -2.533  0.4820E-02  0.4785E-02  0.5769E-04  0.5681E-04  0.5865E-04  0.5797E-04  0.5769E-04  0.5681E-04  0.2206E-06  0.2150E-06  0.2071E-06  0.2026E-06  0.2275E-06  0.2224E-06  0.2071E-06  0.2026E-06  0.1411E-06  0.1391E-06
     -2.460  0.4973E-02  0.4984E-02  0.7082E-04  0.7060E-04  0.7381E-04  0.7302E-04  0.7082E-04  0.7060E-04  0.3435E-06  0.3394E-06  0.3248E-06  0.3196E-06  0.2881E-06  0.2844E-06  0.3248E-06  0.3196E-06  0.1761E-06  0.1752E-06
     -2.387  0.4989E-02  0.4960E-02  0.8297E-04  0.8201E-04  0.1079E-03  0.1059E-03  0.8297E-04  0.8201E-04  0.4997E-06  0.4902E-06  0.5154E-06  0.5056E-06  0.3974E-06  0.3886E-06  0.5154E-06  0.5056E-06  0.2420E-06  0.2373E-06
     -2.314  0.6015E-02  0.5973E-02  0.1194E-03  0.1177E-03  0.1507E-03  0.1496E-03  0.1194E-03  0.1177E-03  0.7968E-06  0.7856E-06  0.7661E-06  0.7582E-06  0.6737E-06  0.6600E-06  0.7661E-06  0.7582E-06  0.4595E-06  0.4476E-06
     -2.241  0.6460E-02  0.6454E-02  0.1573E-03  0.1560E-03  0.1558E-03  0.1560E-03  0.1573E-03  0.1560E-03  0.1029E-05  0.1020E-05  0.9531E-06  0.9441E-06  0.9395E-06  0.9302E-06  0.9531E-06  0.9441E-06  0.8102E-06  0.7974E-06
     -2.168  0.6567E-02  0.6553E-02  0.1848E-03  0.1839E-03  0.1745E-03  0.1726E-03  0.1848E-03  0.1839E-03  0.1341E-05  0.1325E-05  0.1393E-05  0.1368E-05  0.1051E-05  0.1046E-05  0.1393E-05  0.1368E-05  0.1009E-05  0.1007E-05
     -2.095  0.6937E-02  0.6919E-02  0.2069E-03  0.2059E-03  0.2368E-03  0.2342E-03  0.2069E-03  0.2059E-03  0.1910E-05  0.1880E-05  0.2029E-05  0.2009E-05  0.1236E-05  0.1221E-05  0.2029E-05  0.2009E-05  0.1021E-05  0.1021E-05
     -2.022  0.7156E-02  0.7160E-02  0.2302E-03  0.2298E-03  0.2813E-03  0.2800E-03  0.2302E-03  0.2298E-03  0.2733E-05  0.2708E-05  0.2287E-05  0.2286E-05  0.1760E-05  0.1738E-05  0.2287E-05  0.2286E-05  0.1057E-05  0.1057E-05
     -1.949  0.6605E-02  0.6623E-02  0.2268E-03  0.2268E-03  0.3068E-03  0.3056E-03  0.2268E-03  0.2268E-03  0.2906E-05  0.2913E-05  0.2468E-05  0.2450E-05  0.2125E-05  0.2118E-05  0.2468E-05  0.2450E-05  0.1178E-05  0.1165E-05
     -1.877  0.6933E-02  0.6879E-02  0.2753E-03  0.2714E-03  0.3452E-03  0.3430E-03  0.2753E-03  0.2714E-03  0.3077E-05  0.3055E-05  0.3465E-05  0.3411E-05  0.2415E-05  0.2394E-05  0.3465E-05  0.3411E-05  0.2047E-05  0.1993E-05
     -1.804  0.8419E-02  0.8367E-02  0.3830E-03  0.3795E-03  0.4079E-03  0.4054E-03  0.3830E-03  0.3795E-03  0.4010E-05  0.3968E-05  0.4804E-05  0.4765E-05  0.3234E-05  0.3196E-05  0.4804E-05  0.4765E-05  0.3431E-05  0.3389E-05
     -1.731  0.8529E-02  0.8555E-02  0.4220E-03  0.4220E-03  0.4212E-03  0.4224E-03  0.4220E-03  0.4220E-03  0.5239E-05  0.5188E-05  0.5174E-05  0.5183E-05  0.3845E-05  0.3834E-05  0.5174E-05  0.5183E-05  0.3784E-05  0.3794E-05
     -1.658  0.7885E-02  0.7882E-02  0.4339E-03  0.4324E-03  0.4010E-03  0.3996E-03  0.4339E-03  0.4324E-03  0.6861E-05  0.6789E-05  0.5364E-05  0.5333E-05  0.4102E-05  0.4080E-05  0.5364E-05  0.5333E-05  0.3647E-05  0.3646E-05
     -1.585  0.8307E-02  0.8289E-02  0.4711E-03  0.4710E-03  0.5148E-03  0.5080E-03  0.4711E-03  0.4710E-03  0.8513E-05  0.8488E-05  0.6819E-05  0.6758E-05  0.5016E-05  0.4977E-05  0.6819E-05  0.6758E-05  0.3669E-05  0.3683E-05
     -1.512  0.7867E-02  0.7896E-02  0.4258E-03  0.4283E-03  0.6487E-03  0.6447E-03  0.4258E-03  0.4283E-03  0.7807E-05  0.7877E-05  0.8164E-05  0.8114E-05  0.5460E-05  0.5470E-05  0.8164E-05  0.8114E-05  0.3206E-05  0.3218E-05
     -1.439  0.7489E-02  0.7477E-02  0.4271E-03  0.4245E-03  0.6997E-03  0.6985E-03  0.4271E-03  0.4245E-03  0.7296E-05  0.7265E-05  0.9829E-05  0.9761E-05  0.5370E-05  0.5365E-05  0.9829E-05  0.9761E-05  0.3753E-05  0.3703E-05
     -1.366  0.8109E-02  0.8064E-02  0.5362E-03  0.5305E-03  0.7232E-03  0.7218E-03  0.5362E-03  0.5305E-03  0.9910E-05  0.9753E-05  0.1124E-04  0.1120E-04  0.6718E-05  0.6628E-05  0.1124E-04  0.1120E-04  0.5477E-05  0.5395E-05
     -1.293  0.9118E-02  0.9084E-02  0.6952E-03  0.6895E-03  0.7275E-03  0.7289E-03  0.6952E-03  0.6895E-03  0.1445E-04  0.1431E-04  0.1208E-04  0.1206E-04  0.9131E-05  0.9064E-05  0.1208E-04  0.1206E-04  0.7868E-05  0.7772E-05
     -1.220  0.8932E-02  0.8962E-02  0.7626E-03  0.7628E-03  0.6490E-03  0.6515E-03  0.7626E-03  0.7628E-03  0.1587E-04  0.1590E-04  0.1232E-04  0.1232E-04  0.9377E-05  0.9405E-05  0.1232E-04  0.1232E-04  0.9602E-05  0.9571E-05
     -1.147  0.8501E-02  0.8486E-02  0.7668E-03  0.7655E-03  0.7225E-03  0.7130E-03  0.7668E-03  0.7655E-03  0.1577E-04  0.1576E-04  0.1404E-04  0.1392E-04  0.9513E-05  0.9452E-05  0.1404E-04  0.1392E-04  0.1014E-04  0.1011E-04
     -1.075  0.9063E-02  0.9038E-02  0.8109E-03  0.8103E-03  0.1032E-02  0.1017E-02  0.8109E-03  0.8103E-03  0.1616E-04  0.1618E-04  0.1804E-04  0.1788E-04  0.1187E-04  0.1178E-04  0.1804E-04  0.1788E-04  0.1106E-04  0.1105E-04
     -1.002  0.8703E-02  0.8738E-02  0.7612E-03  0.7646E-03  0.1233E-02  0.1230E-02  0.7612E-03  0.7646E-03  0.1637E-04  0.1632E-04  0.2077E-04  0.2073E-04  0.1248E-04  0.1253E-04  0.2077E-04  0.2073E-04  0.9744E-05  0.9848E-05
     -0.929  0.8115E-02  0.8100E-02  0.7661E-03  0.7615E-03  0.1191E-02  0.1190E-02  0.7661E-03  0.7615E-03  0.2137E-04  0.2105E-04  0.2236E-04  0.2224E-04  0.1145E-04  0.1147E-04  0.2236E-04  0.2224E-04  0.8210E-05  0.8214E-05
     -0.856  0.8816E-02  0.8794E-02  0.9065E-03  0.9032E-03  0.1306E-02  0.1298E-02  0.9065E-03  0.9032E-03  0.2884E-04  0.2867E-04  0.2661E-04  0.2649E-04  0.1294E-04  0.1286E-04  0.2661E-04  0.2649E-04  0.9037E-05  0.9012E-05
     -0.783  0.8017E-02  0.8078E-02  0.8789E-03  0.8822E-03  0.1277E-02  0.1284E-02  0.8789E-03  0.8822E-03  0.2999E-04  0.3004E-04  0.2459E-04  0.2483E-04  0.1419E-04  0.1419E-04  0.2459E-04  0.2483E-04  0.9272E-05  0.9260E-05
     -0.710  0.6932E-02  0.6934E-02  0.8820E-03  0.8775E-03  0.1138E-02  0.1134E-02  0.8820E-03  0.8775E-03  0.2901E-04  0.2908E-04  0.2179E-04  0.2168E-04  0.1426E-04  0.1423E-04  0.2179E-04  0.2168E-04  0.1182E-04  0.1162E-04
     -0.637  0.7914E-02  0.7841E-02  0.1103E-02  0.1092E-02  0.1465E-02  0.1444E-02  0.1103E-02  0.1092E-02  0.2857E-04  0.2854E-04  0.3105E-04  0.3049E-04  0.1681E-04  0.1666E-04  0.3105E-04  0.3049E-04  0.1862E-04  0.1834E-04
     -0.564  0.9139E-02  0.9115E-02  0.1305E-02  0.1301E-02  0.1864E-02  0.1852E-02  0.1305E-02  0.1301E-02  0.3055E-04  0.3050E-04  0.4358E-04  0.4320E-04  0.1910E-04  0.1909E-04  0.4358E-04  0.4320E-04  0.2281E-04  0.2278E-04
     -0.491  0.8748E-02  0.8776E-02  0.1324E-02  0.1324E-02  0.1917E-02  0.1921E-02  0.1324E-02  0.1324E-02  0.3322E-04  0.3302E-04  0.4652E-04  0.4663E-04  0.1867E-04  0.1869E-04  0.4652E-04  0.4663E-04  0.2266E-04  0.2268E-04
     -0.418  0.8093E-02  0.8106E-02  0.1368E-02  0.1366E-02  0.1671E-02  0.1682E-02  0.1368E-02  0.1366E-02  0.4359E-04  0.4304E-04  0.4191E-04  0.4211E-04  0.1966E-04  0.1960E-04  0.4191E-04  0.4211E-04  0.2244E-04  0.2250E-04
     -0.345  0.7596E-02  0.7622E-02  0.1384E-02  0.1386E-02  0.1419E-02  0.1427E-02  0.1384E-02  0.1386E-02  0.5516E-04  0.5497E-04  0.3934E-04  0.3940E-04  0.1986E-04  0.1991E-04  0.3934E-04  0.3940E-04  0.1945E-04  0.1961E-04
     -0.273  0.6533E-02  0.6575E-02  0.1309E-02  0.1312E-02  0.1322E-02  0.1321E-02  0.1309E-02  0.1312E-02  0.5267E-04  0.5295E-04  0.3868E-04  0.3863E-04  0.1740E-04  0.1750E-04  0.3868E-04  0.3863E-04  0.1727E-04  0.1732E-04
     -0.200  0.6162E-02  0.6143E-02  0.1324E-02  0.1320E-02  0.1545E-02  0.1526E-02  0.1324E-02  0.1320E-02  0.5280E-04  0.5255E-04  0.4734E-04  0.4665E-04  0.1721E-04  0.1712E-04  0.4734E-04  0.4665E-04  0.1664E-04  0.1669E-04