   8   8   1   0
  0.2062278E+02  0.4320255E-09  0.4320255E-09  0.8839309E-09  0.5000000E-15
  1.000000000000000E-004
  CAR 
 unknown system                          
     12.22541010     -4.81165627  301      5.18022794      1.00000000
     -4.812  0.0000E+00  0.0000E+00  0.0000E+00  0.0000E+00
     -4.755  0.0000E+00  0.0000E+00  0.0000E+00  0.0000E+00
     -4.698  0.0000E+00  0.0000E+00  0.0000E+00  0.0000E+00
     -4.641  0.0000E+00  0.0000E+00  0.0000E+00  0.0000E+00
     -4.584  0.0000E+00  0.0000E+00  0.0000E+00  0.0000E+00
     -4.528  0.0000E+00  0.0000E+00  0.0000E+00  0.0000E+00
     -4.471  0.2546E-05  0.2544E-05  0.1446E-06  0.1444E-06
     -4.414  0.2531E-04  0.2528E-04  0.1582E-05  0.1580E-05
     -4.357  0.1251E-03  0.1249E-03  0.8684E-05  0.8676E-05
     -4.301  0.3374E-03  0.3371E-03  0.2785E-04  0.2782E-04
     -4.244  0.1121E-02  0.1120E-02  0.9151E-04  0.9142E-04
     -4.187  0.3399E-02  0.3396E-02  0.2845E-03  0.2843E-03
     -4.130  0.1007E-01  0.1007E-01  0.8567E-03  0.8559E-03
     -4.073  0.2774E-01  0.2772E-01  0.2432E-02  0.2430E-02
     -4.017  0.6469E-01  0.6465E-01  0.6106E-02  0.6101E-02
     -3.960  0.1188E+00  0.1187E+00  0.1285E-01  0.1285E-01
     -3.903  0.1735E+00  0.1735E+00  0.2271E-01  0.2270E-01
     -3.846  0.2266E+00  0.2266E+00  0.3558E-01  0.3556E-01
     -3.789  0.2761E+00  0.2760E+00  0.5126E-01  0.5124E-01
     -3.733  0.2995E+00  0.2995E+00  0.6826E-01  0.6825E-01
     -3.676  0.3250E+00  0.3249E+00  0.8672E-01  0.8670E-01
     -3.619  0.3709E+00  0.3709E+00  0.1078E+00  0.1078E+00
     -3.562  0.4015E+00  0.4015E+00  0.1306E+00  0.1306E+00
     -3.505  0.4228E+00  0.4228E+00  0.1546E+00  0.1546E+00
     -3.449  0.4467E+00  0.4466E+00  0.1800E+00  0.1800E+00
     -3.392  0.4564E+00  0.4564E+00  0.2059E+00  0.2059E+00
     -3.335  0.4580E+00  0.4580E+00  0.2319E+00  0.2319E+00
     -3.278  0.5023E+00  0.5023E+00  0.2605E+00  0.2604E+00
     -3.222  0.5612E+00  0.5612E+00  0.2924E+00  0.2923E+00
     -3.165  0.5696E+00  0.5696E+00  0.3247E+00  0.3247E+00
     -3.108  0.5701E+00  0.5700E+00  0.3571E+00  0.3571E+00
     -3.051  0.5830E+00  0.5830E+00  0.3902E+00  0.3902E+00
     -2.994  0.5751E+00  0.5750E+00  0.4229E+00  0.4229E+00
     -2.938  0.5907E+00  0.5906E+00  0.4565E+00  0.4564E+00
     -2.881  0.6427E+00  0.6426E+00  0.4930E+00  0.4930E+00
     -2.824  0.6849E+00  0.6849E+00  0.5319E+00  0.5319E+00
     -2.767  0.6897E+00  0.6897E+00  0.5711E+00  0.5711E+00
     -2.710  0.7142E+00  0.7141E+00  0.6117E+00  0.6116E+00
     -2.654  0.7418E+00  0.7418E+00  0.6539E+00  0.6538E+00
     -2.597  0.7305E+00  0.7305E+00  0.6953E+00  0.6953E+00
     -2.540  0.7456E+00  0.7455E+00  0.7377E+00  0.7377E+00
     -2.483  0.7585E+00  0.7585E+00  0.7808E+00  0.7807E+00
     -2.426  0.7265E+00  0.7265E+00  0.8221E+00  0.8220E+00
     -2.370  0.7662E+00  0.7660E+00  0.8656E+00  0.8656E+00
     -2.313  0.8741E+00  0.8739E+00  0.9153E+00  0.9152E+00
     -2.256  0.9241E+00  0.9240E+00  0.9678E+00  0.9677E+00
     -2.199  0.8963E+00  0.8964E+00  0.1019E+01  0.1019E+01
     -2.143  0.8511E+00  0.8511E+00  0.1067E+01  0.1067E+01
     -2.086  0.8073E+00  0.8073E+00  0.1113E+01  0.1113E+01
     -2.029  0.7938E+00  0.7937E+00  0.1158E+01  0.1158E+01
     -1.972  0.8485E+00  0.8484E+00  0.1206E+01  0.1206E+01
     -1.915  0.9058E+00  0.9058E+00  0.1258E+01  0.1258E+01
     -1.859  0.9264E+00  0.9265E+00  0.1310E+01  0.1310E+01
     -1.802  0.9340E+00  0.9341E+00  0.1363E+01  0.1363E+01
     -1.745  0.9096E+00  0.9097E+00  0.1415E+01  0.1415E+01
     -1.688  0.9081E+00  0.9080E+00  0.1467E+01  0.1467E+01
     -1.631  0.9630E+00  0.9629E+00  0.1521E+01  0.1521E+01
     -1.575  0.9575E+00  0.9576E+00  0.1576E+01  0.1576E+01
     -1.518  0.8300E+00  0.8303E+00  0.1623E+01  0.1623E+01
     -1.461  0.7271E+00  0.7273E+00  0.1664E+01  0.1664E+01
     -1.404  0.7181E+00  0.7181E+00  0.1705E+01  0.1705E+01
     -1.347  0.7603E+00  0.7601E+00  0.1748E+01  0.1748E+01
     -1.291  0.8697E+00  0.8694E+00  0.1798E+01  0.1798E+01
     -1.234  0.9918E+00  0.9918E+00  0.1854E+01  0.1854E+01
     -1.177  0.1018E+01  0.1018E+01  0.1912E+01  0.1912E+01
     -1.120  0.1042E+01  0.1042E+01  0.1971E+01  0.1971E+01
     -1.064  0.1070E+01  0.1070E+01  0.2032E+01  0.2032E+01
     -1.007  0.1006E+01  0.1006E+01  0.2089E+01  0.2089E+01
     -0.950  0.9926E+00  0.9924E+00  0.2146E+01  0.2146E+01
     -0.893  0.1087E+01  0.1086E+01  0.2207E+01  0.2207E+01
     -0.836  0.1110E+01  0.1111E+01  0.2270E+01  0.2270E+01
     -0.780  0.1078E+01  0.1078E+01  0.2332E+01  0.2332E+01
     -0.723  0.1117E+01  0.1117E+01  0.2395E+01  0.2395E+01
     -0.666  0.1145E+01  0.1145E+01  0.2460E+01  0.2460E+01
     -0.609  0.1093E+01  0.1093E+01  0.2522E+01  0.2522E+01
     -0.552  0.1023E+01  0.1023E+01  0.2580E+01  0.2580E+01
     -0.496  0.9565E+00  0.9566E+00  0.2635E+01  0.2635E+01
     -0.439  0.9277E+00  0.9277E+00  0.2688E+01  0.2687E+01
     -0.382  0.9669E+00  0.9669E+00  0.2742E+01  0.2742E+01
     -0.325  0.9889E+00  0.9890E+00  0.2799E+01  0.2799E+01
     -0.268  0.9991E+00  0.9991E+00  0.2855E+01  0.2855E+01
     -0.212  0.1043E+01  0.1044E+01  0.2915E+01  0.2915E+01
     -0.155  0.1104E+01  0.1104E+01  0.2977E+01  0.2977E+01
     -0.098  0.1213E+01  0.1214E+01  0.3046E+01  0.3046E+01
     -0.041  0.1347E+01  0.1347E+01  0.3123E+01  0.3123E+01
      0.016  0.1350E+01  0.1350E+01  0.3200E+01  0.3200E+01
      0.072  0.1179E+01  0.1179E+01  0.3267E+01  0.3267E+01
      0.129  0.1032E+01  0.1032E+01  0.3325E+01  0.3325E+01
      0.186  0.1068E+01  0.1068E+01  0.3386E+01  0.3386E+01
      0.243  0.1283E+01  0.1283E+01  0.3459E+01  0.3459E+01
      0.299  0.1490E+01  0.1490E+01  0.3544E+01  0.3544E+01
      0.356  0.1463E+01  0.1463E+01  0.3627E+01  0.3627E+01
      0.413  0.1268E+01  0.1268E+01  0.3699E+01  0.3699E+01
      0.470  0.1101E+01  0.1101E+01  0.3761E+01  0.3761E+01
      0.527  0.1053E+01  0.1053E+01  0.3821E+01  0.3821E+01
      0.583  0.1093E+01  0.1093E+01  0.3883E+01  0.3883E+01
      0.640  0.1171E+01  0.1171E+01  0.3950E+01  0.3950E+01
      0.697  0.1234E+01  0.1235E+01  0.4020E+01  0.4020E+01
      0.754  0.1286E+01  0.1287E+01  0.4093E+01  0.4093E+01
      0.811  0.1375E+01  0.1375E+01  0.4171E+01  0.4171E+01
      0.867  0.1445E+01  0.1445E+01  0.4253E+01  0.4253E+01
      0.924  0.1404E+01  0.1404E+01  0.4333E+01  0.4333E+01
      0.981  0.1357E+01  0.1356E+01  0.4410E+01  0.4410E+01
      1.038  0.1352E+01  0.1352E+01  0.4487E+01  0.4487E+01
      1.095  0.1289E+01  0.1289E+01  0.4560E+01  0.4560E+01
      1.151  0.1210E+01  0.1210E+01  0.4629E+01  0.4629E+01
      1.208  0.1121E+01  0.1121E+01  0.4693E+01  0.4693E+01
      1.265  0.9938E+00  0.9936E+00  0.4749E+01  0.4749E+01
      1.322  0.9822E+00  0.9820E+00  0.4805E+01  0.4805E+01
      1.378  0.1125E+01  0.1125E+01  0.4869E+01  0.4869E+01
      1.435  0.1313E+01  0.1314E+01  0.4944E+01  0.4943E+01
      1.492  0.1509E+01  0.1509E+01  0.5029E+01  0.5029E+01
      1.549  0.1649E+01  0.1649E+01  0.5123E+01  0.5123E+01
      1.606  0.1635E+01  0.1635E+01  0.5216E+01  0.5216E+01
      1.662  0.1564E+01  0.1564E+01  0.5305E+01  0.5305E+01
      1.719  0.1491E+01  0.1490E+01  0.5389E+01  0.5389E+01
      1.776  0.1376E+01  0.1376E+01  0.5468E+01  0.5468E+01
      1.833  0.1301E+01  0.1301E+01  0.5541E+01  0.5541E+01
      1.890  0.1340E+01  0.1340E+01  0.5618E+01  0.5618E+01
      1.946  0.1408E+01  0.1408E+01  0.5698E+01  0.5698E+01
      2.003  0.1427E+01  0.1427E+01  0.5779E+01  0.5779E+01
      2.060  0.1472E+01  0.1472E+01  0.5862E+01  0.5862E+01
      2.117  0.1505E+01  0.1505E+01  0.5948E+01  0.5948E+01
      2.174  0.1529E+01  0.1529E+01  0.6035E+01  0.6035E+01
      2.230  0.1604E+01  0.1604E+01  0.6126E+01  0.6126E+01
      2.287  0.1610E+01  0.1610E+01  0.6217E+01  0.6217E+01
      2.344  0.1521E+01  0.1521E+01  0.6304E+01  0.6304E+01
      2.401  0.1455E+01  0.1455E+01  0.6387E+01  0.6387E+01
      2.457  0.1386E+01  0.1386E+01  0.6465E+01  0.6465E+01
      2.514  0.1333E+01  0.1333E+01  0.6541E+01  0.6541E+01
      2.571  0.1335E+01  0.1335E+01  0.6617E+01  0.6617E+01
      2.628  0.1398E+01  0.1398E+01  0.6696E+01  0.6696E+01
      2.685  0.1504E+01  0.1504E+01  0.6782E+01  0.6782E+01
      2.741  0.1618E+01  0.1618E+01  0.6874E+01  0.6874E+01
      2.798  0.1742E+01  0.1742E+01  0.6973E+01  0.6973E+01
      2.855  0.1838E+01  0.1838E+01  0.7077E+01  0.7077E+01
      2.912  0.1862E+01  0.1862E+01  0.7183E+01  0.7183E+01
      2.969  0.1760E+01  0.1760E+01  0.7283E+01  0.7283E+01
      3.025  0.1628E+01  0.1628E+01  0.7375E+01  0.7375E+01
      3.082  0.1583E+01  0.1583E+01  0.7465E+01  0.7465E+01
      3.139  0.1629E+01  0.1629E+01  0.7558E+01  0.7558E+01
      3.196  0.1689E+01  0.1689E+01  0.7654E+01  0.7654E+01
      3.253  0.1675E+01  0.1675E+01  0.7749E+01  0.7749E+01
      3.309  0.1585E+01  0.1585E+01  0.7839E+01  0.7839E+01
      3.366  0.1489E+01  0.1489E+01  0.7924E+01  0.7924E+01
      3.423  0.1456E+01  0.1456E+01  0.8007E+01  0.8007E+01
      3.480  0.1597E+01  0.1596E+01  0.8097E+01  0.8097E+01
      3.537  0.1801E+01  0.1801E+01  0.8200E+01  0.8200E+01
      3.593  0.1858E+01  0.1859E+01  0.8305E+01  0.8305E+01
      3.650  0.1945E+01  0.1945E+01  0.8416E+01  0.8416E+01
      3.707  0.2134E+01  0.2134E+01  0.8537E+01  0.8537E+01
      3.764  0.2132E+01  0.2132E+01  0.8658E+01  0.8658E+01
      3.820  0.1897E+01  0.1897E+01  0.8766E+01  0.8766E+01
      3.877  0.1611E+01  0.1611E+01  0.8857E+01  0.8857E+01
      3.934  0.1428E+01  0.1428E+01  0.8939E+01  0.8939E+01
      3.991  0.1419E+01  0.1419E+01  0.9019E+01  0.9019E+01
      4.048  0.1472E+01  0.1472E+01  0.9103E+01  0.9103E+01
      4.104  0.1416E+01  0.1416E+01  0.9183E+01  0.9183E+01
      4.161  0.1361E+01  0.1361E+01  0.9261E+01  0.9261E+01
      4.218  0.1481E+01  0.1481E+01  0.9345E+01  0.9345E+01
      4.275  0.1736E+01  0.1736E+01  0.9444E+01  0.9444E+01
      4.332  0.1922E+01  0.1922E+01  0.9553E+01  0.9553E+01
      4.388  0.1944E+01  0.1944E+01  0.9663E+01  0.9663E+01
      4.445  0.1910E+01  0.1910E+01  0.9772E+01  0.9772E+01
      4.502  0.1955E+01  0.1955E+01  0.9883E+01  0.9883E+01
      4.559  0.1985E+01  0.1985E+01  0.9996E+01  0.9996E+01
      4.616  0.1842E+01  0.1842E+01  0.1010E+02  0.1010E+02
      4.672  0.1617E+01  0.1617E+01  0.1019E+02  0.1019E+02
      4.729  0.1443E+01  0.1443E+01  0.1027E+02  0.1027E+02
      4.786  0.1416E+01  0.1416E+01  0.1035E+02  0.1035E+02
      4.843  0.1565E+01  0.1566E+01  0.1044E+02  0.1044E+02
      4.899  0.1689E+01  0.1689E+01  0.1054E+02  0.1054E+02
      4.956  0.1673E+01  0.1673E+01  0.1063E+02  0.1063E+02
      5.013  0.1580E+01  0.1580E+01  0.1072E+02  0.1072E+02
      5.070  0.1534E+01  0.1534E+01  0.1081E+02  0.1081E+02
      5.127  0.1634E+01  0.1634E+01  0.1090E+02  0.1090E+02
      5.183  0.1784E+01  0.1784E+01  0.1101E+02  0.1101E+02
      5.240  0.1915E+01  0.1915E+01  0.1111E+02  0.1111E+02
      5.297  0.1951E+01  0.1951E+01  0.1123E+02  0.1123E+02
      5.354  0.1923E+01  0.1923E+01  0.1133E+02  0.1133E+02
      5.411  0.1927E+01  0.1927E+01  0.1144E+02  0.1144E+02
      5.467  0.1879E+01  0.1879E+01  0.1155E+02  0.1155E+02
      5.524  0.1784E+01  0.1784E+01  0.1165E+02  0.1165E+02
      5.581  0.1745E+01  0.1745E+01  0.1175E+02  0.1175E+02
      5.638  0.1791E+01  0.1791E+01  0.1185E+02  0.1185E+02
      5.695  0.1866E+01  0.1866E+01  0.1196E+02  0.1196E+02
      5.751  0.1877E+01  0.1877E+01  0.1207E+02  0.1207E+02
      5.808  0.1814E+01  0.1814E+01  0.1217E+02  0.1217E+02
      5.865  0.1773E+01  0.1774E+01  0.1227E+02  0.1227E+02
      5.922  0.1856E+01  0.1856E+01  0.1238E+02  0.1238E+02
      5.978  0.2000E+01  0.2000E+01  0.1249E+02  0.1249E+02
      6.035  0.2061E+01  0.2061E+01  0.1261E+02  0.1261E+02
      6.092  0.2004E+01  0.2004E+01  0.1272E+02  0.1272E+02
      6.149  0.1934E+01  0.1934E+01  0.1283E+02  0.1283E+02
      6.206  0.1959E+01  0.1959E+01  0.1294E+02  0.1294E+02
      6.262  0.1974E+01  0.1974E+01  0.1305E+02  0.1305E+02
      6.319  0.1909E+01  0.1909E+01  0.1316E+02  0.1316E+02
      6.376  0.1778E+01  0.1778E+01  0.1326E+02  0.1326E+02
      6.433  0.1648E+01  0.1648E+01  0.1336E+02  0.1336E+02
      6.490  0.1667E+01  0.1666E+01  0.1345E+02  0.1345E+02
      6.546  0.1793E+01  0.1793E+01  0.1355E+02  0.1355E+02
      6.603  0.1935E+01  0.1934E+01  0.1366E+02  0.1366E+02
      6.660  0.2118E+01  0.2118E+01  0.1378E+02  0.1378E+02
      6.717  0.2272E+01  0.2272E+01  0.1391E+02  0.1391E+02
      6.774  0.2307E+01  0.2307E+01  0.1404E+02  0.1404E+02
      6.830  0.2152E+01  0.2152E+01  0.1417E+02  0.1417E+02
      6.887  0.1933E+01  0.1934E+01  0.1428E+02  0.1428E+02
      6.944  0.1903E+01  0.1903E+01  0.1438E+02  0.1438E+02
      7.001  0.2031E+01  0.2031E+01  0.1450E+02  0.1450E+02
      7.057  0.2040E+01  0.2040E+01  0.1462E+02  0.1462E+02
      7.114  0.1932E+01  0.1932E+01  0.1473E+02  0.1473E+02
      7.171  0.1906E+01  0.1906E+01  0.1483E+02  0.1483E+02
      7.228  0.2088E+01  0.2087E+01  0.1495E+02  0.1495E+02
      7.285  0.2322E+01  0.2322E+01  0.1508E+02  0.1508E+02
      7.341  0.2371E+01  0.2371E+01  0.1522E+02  0.1522E+02
      7.398  0.2224E+01  0.2224E+01  0.1535E+02  0.1534E+02
      7.455  0.1972E+01  0.1973E+01  0.1546E+02  0.1546E+02
      7.512  0.1768E+01  0.1769E+01  0.1556E+02  0.1556E+02
      7.569  0.1706E+01  0.1707E+01  0.1565E+02  0.1565E+02
      7.625  0.1758E+01  0.1758E+01  0.1575E+02  0.1575E+02
      7.682  0.1839E+01  0.1839E+01  0.1586E+02  0.1586E+02
      7.739  0.1907E+01  0.1906E+01  0.1597E+02  0.1597E+02
      7.796  0.2031E+01  0.2030E+01  0.1608E+02  0.1608E+02
      7.853  0.2231E+01  0.2230E+01  0.1621E+02  0.1621E+02
      7.909  0.2347E+01  0.2346E+01  0.1634E+02  0.1634E+02
      7.966  0.2396E+01  0.2396E+01  0.1648E+02  0.1648E+02
      8.023  0.2457E+01  0.2457E+01  0.1662E+02  0.1662E+02
      8.080  0.2541E+01  0.2541E+01  0.1676E+02  0.1676E+02
      8.137  0.2552E+01  0.2552E+01  0.1691E+02  0.1691E+02
      8.193  0.2434E+01  0.2434E+01  0.1705E+02  0.1705E+02
      8.250  0.2235E+01  0.2234E+01  0.1717E+02  0.1717E+02
      8.307  0.2077E+01  0.2076E+01  0.1729E+02  0.1729E+02
      8.364  0.1975E+01  0.1973E+01  0.1740E+02  0.1740E+02
      8.420  0.1959E+01  0.1958E+01  0.1751E+02  0.1751E+02
      8.477  0.2043E+01  0.2046E+01  0.1763E+02  0.1763E+02
      8.534  0.2038E+01  0.2046E+01  0.1775E+02  0.1775E+02
      8.591  0.1928E+01  0.1941E+01  0.1786E+02  0.1786E+02
      8.648  0.1858E+01  0.1886E+01  0.1796E+02  0.1796E+02
      8.704  0.1829E+01  0.1877E+01  0.1807E+02  0.1807E+02
      8.761  0.1869E+01  0.1908E+01  0.1817E+02  0.1818E+02
      8.818  0.1953E+01  0.1940E+01  0.1828E+02  0.1829E+02
      8.875  0.2054E+01  0.1994E+01  0.1840E+02  0.1840E+02
      8.932  0.2119E+01  0.2063E+01  0.1852E+02  0.1852E+02
      8.988  0.2037E+01  0.2018E+01  0.1864E+02  0.1864E+02
      9.045  0.1894E+01  0.1891E+01  0.1874E+02  0.1874E+02
      9.102  0.1766E+01  0.1759E+01  0.1884E+02  0.1884E+02
      9.159  0.1651E+01  0.1645E+01  0.1894E+02  0.1894E+02
      9.216  0.1526E+01  0.1531E+01  0.1902E+02  0.1902E+02
      9.272  0.1360E+01  0.1371E+01  0.1910E+02  0.1910E+02
      9.329  0.1171E+01  0.1178E+01  0.1917E+02  0.1917E+02
      9.386  0.1009E+01  0.1009E+01  0.1923E+02  0.1923E+02
      9.443  0.9101E+00  0.9031E+00  0.1928E+02  0.1928E+02
      9.499  0.9117E+00  0.8934E+00  0.1933E+02  0.1933E+02
      9.556  0.9537E+00  0.9297E+00  0.1938E+02  0.1938E+02
      9.613  0.9852E+00  0.9849E+00  0.1944E+02  0.1944E+02
      9.670  0.9948E+00  0.1021E+01  0.1950E+02  0.1949E+02
      9.727  0.9726E+00  0.9968E+00  0.1955E+02  0.1955E+02
      9.783  0.8429E+00  0.8546E+00  0.1960E+02  0.1960E+02
      9.840  0.6217E+00  0.6224E+00  0.1963E+02  0.1963E+02
      9.897  0.4518E+00  0.4503E+00  0.1966E+02  0.1966E+02
      9.954  0.3535E+00  0.3539E+00  0.1968E+02  0.1968E+02
     10.011  0.2986E+00  0.3009E+00  0.1970E+02  0.1970E+02
     10.067  0.3042E+00  0.3039E+00  0.1971E+02  0.1972E+02
     10.124  0.3407E+00  0.3313E+00  0.1973E+02  0.1973E+02
     10.181  0.3592E+00  0.3488E+00  0.1975E+02  0.1975E+02
     10.238  0.3582E+00  0.3566E+00  0.1977E+02  0.1977E+02
     10.295  0.3717E+00  0.3746E+00  0.1980E+02  0.1980E+02
     10.351  0.3925E+00  0.3991E+00  0.1982E+02  0.1982E+02
     10.408  0.3919E+00  0.3998E+00  0.1984E+02  0.1984E+02
     10.465  0.3594E+00  0.3639E+00  0.1986E+02  0.1986E+02
     10.522  0.2850E+00  0.2853E+00  0.1988E+02  0.1988E+02
     10.578  0.1782E+00  0.1784E+00  0.1989E+02  0.1989E+02
     10.635  0.1172E+00  0.1205E+00  0.1989E+02  0.1989E+02
     10.692  0.1352E+00  0.1388E+00  0.1990E+02  0.1990E+02
     10.749  0.1921E+00  0.1891E+00  0.1991E+02  0.1991E+02
     10.806  0.2244E+00  0.2185E+00  0.1993E+02  0.1993E+02
     10.862  0.2201E+00  0.2209E+00  0.1994E+02  0.1994E+02
     10.919  0.1994E+00  0.2058E+00  0.1995E+02  0.1995E+02
     10.976  0.1554E+00  0.1545E+00  0.1996E+02  0.1996E+02
     11.033  0.9519E-01  0.8924E-01  0.1996E+02  0.1996E+02
     11.090  0.5773E-01  0.5220E-01  0.1997E+02  0.1997E+02
     11.146  0.5850E-01  0.5118E-01  0.1997E+02  0.1997E+02
     11.203  0.8302E-01  0.6885E-01  0.1997E+02  0.1997E+02
     11.260  0.1144E+00  0.9401E-01  0.1998E+02  0.1998E+02
     11.317  0.1263E+00  0.1124E+00  0.1999E+02  0.1999E+02
     11.374  0.1000E+00  0.9590E-01  0.1999E+02  0.1999E+02
     11.430  0.5966E-01  0.6772E-01  0.2000E+02  0.1999E+02
     11.487  0.2721E-01  0.4850E-01  0.2000E+02  0.2000E+02
     11.544  0.1017E-01  0.2823E-01  0.2000E+02  0.2000E+02
     11.601  0.3409E-02  0.1210E-01  0.2000E+02  0.2000E+02
     11.658  0.1115E-02  0.4349E-02  0.2000E+02  0.2000E+02
     11.714  0.2414E-03  0.1273E-02  0.2000E+02  0.2000E+02
     11.771  0.0000E+00  0.4146E-03  0.2000E+02  0.2000E+02
     11.828  0.0000E+00  0.1338E-03  0.2000E+02  0.2000E+02
     11.885  0.0000E+00  0.0000E+00  0.2000E+02  0.2000E+02
     11.941  0.0000E+00  0.0000E+00  0.2000E+02  0.2000E+02
     11.998  0.0000E+00  0.0000E+00  0.2000E+02  0.2000E+02
     12.055  0.0000E+00  0.0000E+00  0.2000E+02  0.2000E+02
     12.112  0.0000E+00  0.0000E+00  0.2000E+02  0.2000E+02
     12.169  0.0000E+00  0.0000E+00  0.2000E+02  0.2000E+02
     12.225  0.0000E+00  0.0000E+00  0.2000E+02  0.2000E+02
     12.22541010     -4.81165627  301      5.18022794      1.00000000
     -4.812  0.0000E+00  0.0000E+00  0.0000E+00  0.0000E+00  0.0000E+00  0.0000E+00  0.0000E+00  0.0000E+00  0.0000E+00  0.0000E+00  0.0000E+00  0.0000E+00  0.0000E+00  0.0000E+00  0.0000E+00  0.0000E+00  0.0000E+00  0.0000E+00
     -4.755  0.0000E+00  0.0000E+00  0.0000E+00  0.0000E+00  0.0000E+00  0.0000E+00  0.0000E+00  0.0000E+00  0.0000E+00  0.0000E+00  0.0000E+00  0.0000E+00  0.0000E+00  0.0000E+00  0.0000E+00  0.0000E+00  0.0000E+00  0.0000E+00
     -4.698  0.0000E+00  0.0000E+00  0.0000E+00  0.0000E+00  0.0000E+00  0.0000E+00  0.0000E+00  0.0000E+00  0.0000E+00  0.0000E+00  0.0000E+00  0.0000E+00  0.0000E+00  0.0000E+00  0.0000E+00  0.0000E+00  0.0000E+00  0.0000E+00
     -4.641  0.0000E+00  0.0000E+00  0.0000E+00  0.0000E+00  0.0000E+00  0.0000E+00  0.0000E+00  0.0000E+00  0.0000E+00  0.0000E+00  0.0000E+00  0.0000E+00  0.0000E+00  0.0000E+00  0.0000E+00  0.0000E+00  0.0000E+00  0.0000E+00
     -4.584  0.0000E+00  0.0000E+00  0.0000E+00  0.0000E+00  0.0000E+00  0.0000E+00  0.0000E+00  0.0000E+00  0.0000E+00  0.0000E+00  0.0000E+00  0.0000E+00  0.0000E+00  0.0000E+00  0.0000E+00  0.0000E+00  0.0000E+00  0.0000E+00
     -4.528  0.0000E+00  0.0000E+00  0.0000E+00  0.0000E+00  0.0000E+00  0.0000E+00  0.0000E+00  0.0000E+00  0.0000E+00  0.0000E+00  0.0000E+00  0.0000E+00  0.0000E+00  0.0000E+00  0.0000E+00  0.0000E+00  0.0000E+00  0.0000E+00
     -4.471  0.3695E-07  0.3694E-07  0.2420E-20  0.4679E-21  0.4129E-20  0.1692E-20  0.2420E-20  0.4679E-21  0.2545E-22  0.2430E-21  0.1605E-21  0.1584E-21  0.2011E-12  0.1957E-12  0.1605E-21  0.1584E-21  0.1930E-21  0.5374E-21
     -4.414  0.3648E-06  0.3647E-06  0.5054E-09  0.5049E-09  0.5363E-09  0.5355E-09  0.5054E-09  0.5049E-09  0.5616E-21  0.1105E-20  0.9443E-21  0.1223E-20  0.2419E-11  0.2365E-11  0.9443E-21  0.1223E-20  0.4086E-12  0.4086E-12
     -4.357  0.1792E-05  0.1791E-05  0.4923E-08  0.4918E-08  0.4800E-08  0.4793E-08  0.4923E-08  0.4918E-08  0.7577E-11  0.7589E-11  0.6462E-11  0.6456E-11  0.1247E-10  0.1220E-10  0.6462E-11  0.6456E-11  0.2037E-11  0.2037E-11
     -4.301  0.4836E-05  0.4834E-05  0.1267E-07  0.1266E-07  0.1340E-07  0.1338E-07  0.1267E-07  0.1266E-07  0.1601E-10  0.1603E-10  0.1365E-10  0.1364E-10  0.3741E-10  0.3668E-10  0.1365E-10  0.1364E-10  0.9099E-11  0.9099E-11
     -4.244  0.1603E-04  0.1602E-04  0.4793E-07  0.4788E-07  0.5568E-07  0.5560E-07  0.4793E-07  0.4788E-07  0.7226E-10  0.7235E-10  0.7706E-10  0.7699E-10  0.1351E-09  0.1327E-09  0.7706E-10  0.7699E-10  0.4225E-10  0.4224E-10
     -4.187  0.4861E-04  0.4859E-04  0.1491E-06  0.1490E-06  0.1597E-06  0.1595E-06  0.1491E-06  0.1490E-06  0.2568E-09  0.2571E-09  0.2310E-09  0.2308E-09  0.4142E-09  0.4068E-09  0.2310E-09  0.2308E-09  0.1286E-09  0.1286E-09
     -4.130  0.1440E-03  0.1440E-03  0.4470E-06  0.4466E-06  0.4915E-06  0.4908E-06  0.4470E-06  0.4466E-06  0.7366E-09  0.7375E-09  0.7195E-09  0.7188E-09  0.1232E-08  0.1210E-08  0.7195E-09  0.7188E-09  0.3893E-09  0.3893E-09
     -4.073  0.3961E-03  0.3960E-03  0.1327E-05  0.1326E-05  0.1455E-05  0.1453E-05  0.1327E-05  0.1326E-05  0.2415E-08  0.2417E-08  0.2277E-08  0.2275E-08  0.3572E-08  0.3513E-08  0.2277E-08  0.2275E-08  0.1181E-08  0.1180E-08
     -4.017  0.9216E-03  0.9215E-03  0.3509E-05  0.3506E-05  0.3843E-05  0.3838E-05  0.3509E-05  0.3506E-05  0.6779E-08  0.6787E-08  0.6439E-08  0.6433E-08  0.9040E-08  0.8902E-08  0.6439E-08  0.6433E-08  0.3351E-08  0.3350E-08
     -3.960  0.1685E-02  0.1685E-02  0.7874E-05  0.7869E-05  0.8709E-05  0.8699E-05  0.7874E-05  0.7869E-05  0.1745E-07  0.1747E-07  0.1657E-07  0.1655E-07  0.1950E-07  0.1925E-07  0.1657E-07  0.1655E-07  0.8635E-08  0.8634E-08
     -3.903  0.2444E-02  0.2444E-02  0.1489E-04  0.1488E-04  0.1676E-04  0.1674E-04  0.1489E-04  0.1488E-04  0.3850E-07  0.3854E-07  0.3728E-07  0.3725E-07  0.3712E-07  0.3676E-07  0.3728E-07  0.3725E-07  0.2058E-07  0.2058E-07
     -3.846  0.3163E-02  0.3164E-02  0.2555E-04  0.2554E-04  0.2799E-04  0.2796E-04  0.2555E-04  0.2554E-04  0.7870E-07  0.7877E-07  0.7531E-07  0.7526E-07  0.6597E-07  0.6549E-07  0.7531E-07  0.7526E-07  0.4319E-07  0.4319E-07
     -3.789  0.3817E-02  0.3819E-02  0.3861E-04  0.3859E-04  0.4062E-04  0.4059E-04  0.3861E-04  0.3859E-04  0.1441E-06  0.1442E-06  0.1344E-06  0.1343E-06  0.1039E-06  0.1032E-06  0.1344E-06  0.1343E-06  0.7142E-07  0.7140E-07
     -3.733  0.4098E-02  0.4100E-02  0.4947E-04  0.4945E-04  0.5492E-04  0.5487E-04  0.4947E-04  0.4945E-04  0.2255E-06  0.2256E-06  0.2144E-06  0.2142E-06  0.1474E-06  0.1468E-06  0.2144E-06  0.2142E-06  0.1009E-06  0.1008E-06
     -3.676  0.4387E-02  0.4388E-02  0.6299E-04  0.6296E-04  0.7639E-04  0.7631E-04  0.6299E-04  0.6296E-04  0.3392E-06  0.3393E-06  0.3290E-06  0.3287E-06  0.2224E-06  0.2217E-06  0.3290E-06  0.3287E-06  0.1556E-06  0.1554E-06
     -3.619  0.4946E-02  0.4947E-02  0.8483E-04  0.8478E-04  0.9736E-04  0.9728E-04  0.8483E-04  0.8478E-04  0.4960E-06  0.4961E-06  0.4668E-06  0.4664E-06  0.3371E-06  0.3363E-06  0.4668E-06  0.4664E-06  0.2638E-06  0.2634E-06
     -3.562  0.5296E-02  0.5297E-02  0.1076E-03  0.1076E-03  0.1094E-03  0.1093E-03  0.1076E-03  0.1076E-03  0.6639E-06  0.6640E-06  0.6292E-06  0.6287E-06  0.4433E-06  0.4421E-06  0.6292E-06  0.6287E-06  0.3963E-06  0.3958E-06
     -3.505  0.5505E-02  0.5506E-02  0.1263E-03  0.1263E-03  0.1303E-03  0.1302E-03  0.1263E-03  0.1263E-03  0.8960E-06  0.8961E-06  0.8887E-06  0.8879E-06  0.5317E-06  0.5305E-06  0.8887E-06  0.8879E-06  0.4788E-06  0.4784E-06
     -3.449  0.5735E-02  0.5737E-02  0.1425E-03  0.1424E-03  0.1633E-03  0.1631E-03  0.1425E-03  0.1424E-03  0.1237E-05  0.1237E-05  0.1172E-05  0.1171E-05  0.6755E-06  0.6742E-06  0.1172E-05  0.1171E-05  0.5175E-06  0.5171E-06
     -3.392  0.5778E-02  0.5780E-02  0.1556E-03  0.1555E-03  0.1908E-03  0.1906E-03  0.1556E-03  0.1555E-03  0.1585E-05  0.1585E-05  0.1372E-05  0.1371E-05  0.8892E-06  0.8880E-06  0.1372E-05  0.1371E-05  0.5794E-06  0.5789E-06
     -3.335  0.5706E-02  0.5708E-02  0.1699E-03  0.1698E-03  0.2139E-03  0.2137E-03  0.1699E-03  0.1698E-03  0.1776E-05  0.1776E-05  0.1661E-05  0.1659E-05  0.1079E-05  0.1078E-05  0.1661E-05  0.1659E-05  0.7654E-06  0.7646E-06
     -3.278  0.6159E-02  0.6160E-02  0.2100E-03  0.2099E-03  0.2429E-03  0.2427E-03  0.2100E-03  0.2099E-03  0.2078E-05  0.2078E-05  0.2214E-05  0.2212E-05  0.1310E-05  0.1309E-05  0.2214E-05  0.2212E-05  0.1192E-05  0.1191E-05
     -3.222  0.6794E-02  0.6796E-02  0.2587E-03  0.2587E-03  0.2720E-03  0.2718E-03  0.2587E-03  0.2587E-03  0.2646E-05  0.2646E-05  0.2756E-05  0.2754E-05  0.1630E-05  0.1627E-05  0.2756E-05  0.2754E-05  0.1628E-05  0.1626E-05
     -3.165  0.6806E-02  0.6809E-02  0.2832E-03  0.2831E-03  0.2831E-03  0.2829E-03  0.2832E-03  0.2831E-03  0.3403E-05  0.3403E-05  0.3047E-05  0.3046E-05  0.1880E-05  0.1877E-05  0.3047E-05  0.3046E-05  0.1768E-05  0.1767E-05
     -3.108  0.6694E-02  0.6696E-02  0.2998E-03  0.2998E-03  0.3093E-03  0.3091E-03  0.2998E-03  0.2998E-03  0.4262E-05  0.4262E-05  0.3485E-05  0.3483E-05  0.2140E-05  0.2137E-05  0.3485E-05  0.3483E-05  0.1782E-05  0.1781E-05
     -3.051  0.6709E-02  0.6711E-02  0.3066E-03  0.3065E-03  0.3778E-03  0.3775E-03  0.3066E-03  0.3065E-03  0.4760E-05  0.4761E-05  0.4242E-05  0.4239E-05  0.2480E-05  0.2477E-05  0.4242E-05  0.4239E-05  0.1747E-05  0.1747E-05
     -2.994  0.6473E-02  0.6476E-02  0.3009E-03  0.3009E-03  0.4388E-03  0.4385E-03  0.3009E-03  0.3009E-03  0.4709E-05  0.4710E-05  0.5064E-05  0.5062E-05  0.2679E-05  0.2677E-05  0.5064E-05  0.5062E-05  0.1790E-05  0.1790E-05
     -2.938  0.6517E-02  0.6519E-02  0.3324E-03  0.3323E-03  0.4698E-03  0.4695E-03  0.3324E-03  0.3323E-03  0.5256E-05  0.5255E-05  0.5931E-05  0.5929E-05  0.2974E-05  0.2971E-05  0.5931E-05  0.5929E-05  0.2263E-05  0.2262E-05
     -2.881  0.6980E-02  0.6982E-02  0.4061E-03  0.4059E-03  0.4841E-03  0.4838E-03  0.4061E-03  0.4059E-03  0.6921E-05  0.6920E-05  0.6625E-05  0.6623E-05  0.3690E-05  0.3686E-05  0.6625E-05  0.6623E-05  0.3131E-05  0.3130E-05
     -2.824  0.7336E-02  0.7339E-02  0.4802E-03  0.4801E-03  0.4787E-03  0.4785E-03  0.4802E-03  0.4801E-03  0.8625E-05  0.8624E-05  0.7130E-05  0.7127E-05  0.4340E-05  0.4335E-05  0.7130E-05  0.7127E-05  0.4076E-05  0.4074E-05
     -2.767  0.7228E-02  0.7231E-02  0.5138E-03  0.5137E-03  0.4934E-03  0.4931E-03  0.5138E-03  0.5137E-03  0.9271E-05  0.9272E-05  0.7804E-05  0.7801E-05  0.4593E-05  0.4587E-05  0.7804E-05  0.7801E-05  0.4662E-05  0.4660E-05
     -2.710  0.7236E-02  0.7238E-02  0.5327E-03  0.5326E-03  0.6041E-03  0.6035E-03  0.5327E-03  0.5326E-03  0.9601E-05  0.9601E-05  0.9273E-05  0.9269E-05  0.5118E-05  0.5112E-05  0.9273E-05  0.9269E-05  0.4961E-05  0.4960E-05
     -2.654  0.7258E-02  0.7260E-02  0.5378E-03  0.5377E-03  0.7488E-03  0.7482E-03  0.5378E-03  0.5377E-03  0.1005E-04  0.1005E-04  0.1107E-04  0.1106E-04  0.5710E-05  0.5705E-05  0.1107E-04  0.1106E-04  0.4917E-05  0.4917E-05
     -2.597  0.6940E-02  0.6943E-02  0.5310E-03  0.5309E-03  0.8109E-03  0.8105E-03  0.5310E-03  0.5309E-03  0.1153E-04  0.1153E-04  0.1243E-04  0.1242E-04  0.5706E-05  0.5703E-05  0.1243E-04  0.1242E-04  0.4404E-05  0.4404E-05
     -2.540  0.6900E-02  0.6902E-02  0.5704E-03  0.5703E-03  0.8465E-03  0.8459E-03  0.5704E-03  0.5703E-03  0.1464E-04  0.1464E-04  0.1394E-04  0.1394E-04  0.5835E-05  0.5831E-05  0.1394E-04  0.1394E-04  0.4276E-05  0.4276E-05
     -2.483  0.6805E-02  0.6809E-02  0.6080E-03  0.6080E-03  0.8856E-03  0.8851E-03  0.6080E-03  0.6080E-03  0.1695E-04  0.1695E-04  0.1474E-04  0.1473E-04  0.6366E-05  0.6362E-05  0.1474E-04  0.1473E-04  0.4598E-05  0.4599E-05
     -2.426  0.6248E-02  0.6251E-02  0.6232E-03  0.6231E-03  0.8664E-03  0.8659E-03  0.6232E-03  0.6231E-03  0.1743E-04  0.1743E-04  0.1428E-04  0.1427E-04  0.6771E-05  0.6766E-05  0.1428E-04  0.1427E-04  0.5458E-05  0.5458E-05
     -2.370  0.6274E-02  0.6276E-02  0.7040E-03  0.7038E-03  0.9389E-03  0.9382E-03  0.7040E-03  0.7038E-03  0.1750E-04  0.1750E-04  0.1651E-04  0.1650E-04  0.7524E-05  0.7516E-05  0.1651E-04  0.1650E-04  0.7495E-05  0.7494E-05
     -2.313  0.6898E-02  0.6899E-02  0.8273E-03  0.8271E-03  0.1121E-02  0.1120E-02  0.8273E-03  0.8271E-03  0.1828E-04  0.1828E-04  0.2167E-04  0.2166E-04  0.8559E-05  0.8551E-05  0.2167E-04  0.2166E-04  0.9664E-05  0.9664E-05
     -2.256  0.7061E-02  0.7063E-02  0.8957E-03  0.8957E-03  0.1226E-02  0.1225E-02  0.8957E-03  0.8957E-03  0.2006E-04  0.2006E-04  0.2516E-04  0.2515E-04  0.8919E-05  0.8911E-05  0.2516E-04  0.2515E-04  0.1046E-04  0.1046E-04
     -2.199  0.6679E-02  0.6682E-02  0.9234E-03  0.9233E-03  0.1154E-02  0.1154E-02  0.9234E-03  0.9233E-03  0.2385E-04  0.2385E-04  0.2486E-04  0.2485E-04  0.9000E-05  0.8992E-05  0.2486E-04  0.2485E-04  0.1037E-04  0.1037E-04
     -2.143  0.6237E-02  0.6240E-02  0.9453E-03  0.9453E-03  0.1019E-02  0.1019E-02  0.9453E-03  0.9453E-03  0.2925E-04  0.2924E-04  0.2368E-04  0.2367E-04  0.9067E-05  0.9057E-05  0.2368E-04  0.2367E-04  0.9641E-05  0.9643E-05
     -2.086  0.5670E-02  0.5673E-02  0.9424E-03  0.9424E-03  0.9664E-03  0.9660E-03  0.9424E-03  0.9424E-03  0.3179E-04  0.3178E-04  0.2386E-04  0.2385E-04  0.8607E-05  0.8597E-05  0.2386E-04  0.2385E-04  0.8577E-05  0.8578E-05
     -2.029  0.5191E-02  0.5193E-02  0.9436E-03  0.9436E-03  0.1036E-02  0.1035E-02  0.9436E-03  0.9436E-03  0.3224E-04  0.3224E-04  0.2679E-04  0.2677E-04  0.8295E-05  0.8286E-05  0.2679E-04  0.2677E-04  0.7861E-05  0.7862E-05
     -1.972  0.5243E-02  0.5245E-02  0.1010E-02  0.1009E-02  0.1202E-02  0.1201E-02  0.1010E-02  0.1009E-02  0.3514E-04  0.3513E-04  0.3315E-04  0.3313E-04  0.9128E-05  0.9120E-05  0.3315E-04  0.3313E-04  0.7560E-05  0.7560E-05