   8   8   1   0
  0.1625902E+02  0.3991093E-09  0.3991093E-09  0.8165838E-09  0.5000000E-15
  1.000000000000000E-004
  CAR 
 unknown system                          
     15.50117662     -4.30198347  301      7.22437801      1.00000000
     -4.302  0.0000E+00  0.0000E+00  0.0000E+00  0.0000E+00
     -4.236  0.0000E+00  0.0000E+00  0.0000E+00  0.0000E+00
     -4.170  0.0000E+00  0.0000E+00  0.0000E+00  0.0000E+00
     -4.104  0.0000E+00  0.0000E+00  0.0000E+00  0.0000E+00
     -4.038  0.0000E+00  0.0000E+00  0.0000E+00  0.0000E+00
     -3.972  0.0000E+00  0.0000E+00  0.0000E+00  0.0000E+00
     -3.906  0.0000E+00  0.0000E+00  0.0000E+00  0.0000E+00
     -3.840  0.2006E-05  0.1972E-05  0.1324E-06  0.1302E-06
     -3.774  0.2170E-04  0.2133E-04  0.1565E-05  0.1538E-05
     -3.708  0.1187E-03  0.1167E-03  0.9399E-05  0.9242E-05
     -3.642  0.4007E-03  0.3940E-03  0.3585E-04  0.3525E-04
     -3.576  0.1542E-02  0.1517E-02  0.1377E-03  0.1354E-03
     -3.510  0.5535E-02  0.5447E-02  0.5031E-03  0.4949E-03
     -3.444  0.1834E-01  0.1808E-01  0.1714E-02  0.1688E-02
     -3.378  0.5007E-01  0.4952E-01  0.5019E-02  0.4957E-02
     -3.312  0.1001E+00  0.9943E-01  0.1163E-01  0.1152E-01
     -3.246  0.1470E+00  0.1465E+00  0.2133E-01  0.2119E-01
     -3.180  0.1914E+00  0.1908E+00  0.3397E-01  0.3378E-01
     -3.114  0.2404E+00  0.2399E+00  0.4983E-01  0.4962E-01
     -3.048  0.2542E+00  0.2542E+00  0.6661E-01  0.6640E-01
     -2.982  0.2675E+00  0.2670E+00  0.8427E-01  0.8403E-01
     -2.916  0.3162E+00  0.3156E+00  0.1051E+00  0.1049E+00
     -2.850  0.3426E+00  0.3424E+00  0.1278E+00  0.1275E+00
     -2.784  0.3566E+00  0.3564E+00  0.1513E+00  0.1510E+00
     -2.718  0.3802E+00  0.3799E+00  0.1764E+00  0.1761E+00
     -2.652  0.3918E+00  0.3919E+00  0.2023E+00  0.2020E+00
     -2.586  0.3777E+00  0.3778E+00  0.2272E+00  0.2269E+00
     -2.520  0.4109E+00  0.4100E+00  0.2544E+00  0.2540E+00
     -2.454  0.4840E+00  0.4833E+00  0.2864E+00  0.2859E+00
     -2.388  0.4914E+00  0.4917E+00  0.3188E+00  0.3184E+00
     -2.322  0.4769E+00  0.4768E+00  0.3503E+00  0.3499E+00
     -2.256  0.5005E+00  0.5004E+00  0.3834E+00  0.3830E+00
     -2.190  0.4864E+00  0.4867E+00  0.4155E+00  0.4151E+00
     -2.124  0.4853E+00  0.4850E+00  0.4475E+00  0.4471E+00
     -2.058  0.5330E+00  0.5324E+00  0.4828E+00  0.4823E+00
     -1.992  0.5886E+00  0.5883E+00  0.5216E+00  0.5211E+00
     -1.926  0.5840E+00  0.5842E+00  0.5602E+00  0.5597E+00
     -1.860  0.5897E+00  0.5893E+00  0.5991E+00  0.5987E+00
     -1.794  0.6364E+00  0.6361E+00  0.6412E+00  0.6407E+00
     -1.728  0.6232E+00  0.6237E+00  0.6823E+00  0.6819E+00
     -1.662  0.6174E+00  0.6169E+00  0.7231E+00  0.7226E+00
     -1.596  0.6597E+00  0.6596E+00  0.7667E+00  0.7662E+00
     -1.530  0.6142E+00  0.6151E+00  0.8073E+00  0.8068E+00
     -1.464  0.5979E+00  0.5973E+00  0.8468E+00  0.8463E+00
     -1.398  0.7104E+00  0.7088E+00  0.8937E+00  0.8931E+00
     -1.332  0.8002E+00  0.7998E+00  0.9465E+00  0.9459E+00
     -1.265  0.7861E+00  0.7866E+00  0.9984E+00  0.9978E+00
     -1.199  0.7423E+00  0.7427E+00  0.1047E+01  0.1047E+01
     -1.133  0.6959E+00  0.6965E+00  0.1093E+01  0.1093E+01
     -1.067  0.6489E+00  0.6493E+00  0.1136E+01  0.1136E+01
     -1.001  0.6797E+00  0.6789E+00  0.1181E+01  0.1181E+01
     -0.935  0.7571E+00  0.7565E+00  0.1231E+01  0.1231E+01
     -0.869  0.7781E+00  0.7779E+00  0.1283E+01  0.1282E+01
     -0.803  0.7966E+00  0.7962E+00  0.1335E+01  0.1335E+01
     -0.737  0.7895E+00  0.7899E+00  0.1387E+01  0.1387E+01
     -0.671  0.7533E+00  0.7533E+00  0.1437E+01  0.1437E+01
     -0.605  0.8006E+00  0.7997E+00  0.1490E+01  0.1489E+01
     -0.539  0.8674E+00  0.8672E+00  0.1547E+01  0.1547E+01
     -0.473  0.8078E+00  0.8092E+00  0.1601E+01  0.1600E+01
     -0.407  0.6640E+00  0.6650E+00  0.1645E+01  0.1644E+01
     -0.341  0.6095E+00  0.6094E+00  0.1685E+01  0.1684E+01
     -0.275  0.6336E+00  0.6329E+00  0.1727E+01  0.1726E+01
     -0.209  0.7229E+00  0.7214E+00  0.1774E+01  0.1774E+01
     -0.143  0.8403E+00  0.8393E+00  0.1830E+01  0.1829E+01
     -0.077  0.8684E+00  0.8685E+00  0.1887E+01  0.1887E+01
     -0.011  0.8768E+00  0.8761E+00  0.1945E+01  0.1944E+01
      0.055  0.9356E+00  0.9352E+00  0.2007E+01  0.2006E+01
      0.121  0.8914E+00  0.8928E+00  0.2066E+01  0.2065E+01
      0.187  0.8179E+00  0.8180E+00  0.2120E+01  0.2119E+01
      0.253  0.9014E+00  0.8998E+00  0.2179E+01  0.2179E+01
      0.319  0.9774E+00  0.9774E+00  0.2244E+01  0.2243E+01
      0.385  0.9137E+00  0.9146E+00  0.2304E+01  0.2304E+01
      0.451  0.9081E+00  0.9073E+00  0.2364E+01  0.2364E+01
      0.517  0.9881E+00  0.9877E+00  0.2430E+01  0.2429E+01
      0.583  0.9798E+00  0.9805E+00  0.2494E+01  0.2494E+01
      0.649  0.9198E+00  0.9206E+00  0.2555E+01  0.2554E+01
      0.715  0.8501E+00  0.8508E+00  0.2611E+01  0.2611E+01
      0.781  0.8063E+00  0.8063E+00  0.2664E+01  0.2664E+01
      0.847  0.8250E+00  0.8246E+00  0.2719E+01  0.2718E+01
      0.913  0.8430E+00  0.8432E+00  0.2775E+01  0.2774E+01
      0.979  0.8234E+00  0.8232E+00  0.2829E+01  0.2828E+01
      1.045  0.8721E+00  0.8706E+00  0.2887E+01  0.2886E+01
      1.111  0.9814E+00  0.9798E+00  0.2951E+01  0.2951E+01
      1.177  0.1060E+01  0.1059E+01  0.3022E+01  0.3021E+01
      1.243  0.1161E+01  0.1159E+01  0.3098E+01  0.3097E+01
      1.309  0.1217E+01  0.1218E+01  0.3179E+01  0.3178E+01
      1.375  0.1064E+01  0.1067E+01  0.3249E+01  0.3248E+01
      1.441  0.8983E+00  0.8992E+00  0.3308E+01  0.3307E+01
      1.507  0.8740E+00  0.8735E+00  0.3366E+01  0.3365E+01
      1.573  0.9823E+00  0.9801E+00  0.3431E+01  0.3430E+01
      1.639  0.1205E+01  0.1203E+01  0.3510E+01  0.3509E+01
      1.705  0.1298E+01  0.1298E+01  0.3596E+01  0.3595E+01
      1.771  0.1180E+01  0.1182E+01  0.3674E+01  0.3673E+01
      1.837  0.9840E+00  0.9864E+00  0.3739E+01  0.3738E+01
      1.903  0.8745E+00  0.8750E+00  0.3797E+01  0.3796E+01
      1.969  0.8733E+00  0.8730E+00  0.3854E+01  0.3854E+01
      2.035  0.9674E+00  0.9655E+00  0.3918E+01  0.3918E+01
      2.101  0.1134E+01  0.1132E+01  0.3993E+01  0.3992E+01
      2.167  0.1182E+01  0.1182E+01  0.4071E+01  0.4070E+01
      2.233  0.1175E+01  0.1173E+01  0.4149E+01  0.4148E+01
      2.299  0.1231E+01  0.1230E+01  0.4230E+01  0.4229E+01
      2.365  0.1201E+01  0.1202E+01  0.4310E+01  0.4309E+01
      2.431  0.1173E+01  0.1173E+01  0.4387E+01  0.4386E+01
      2.497  0.1234E+01  0.1234E+01  0.4469E+01  0.4468E+01
      2.563  0.1236E+01  0.1236E+01  0.4550E+01  0.4549E+01
      2.629  0.1161E+01  0.1162E+01  0.4627E+01  0.4626E+01
      2.695  0.1058E+01  0.1060E+01  0.4697E+01  0.4696E+01
      2.761  0.9005E+00  0.9026E+00  0.4756E+01  0.4756E+01
      2.827  0.8629E+00  0.8619E+00  0.4813E+01  0.4813E+01
      2.893  0.1052E+01  0.1048E+01  0.4883E+01  0.4882E+01
      2.959  0.1308E+01  0.1305E+01  0.4969E+01  0.4968E+01
      3.025  0.1422E+01  0.1420E+01  0.5063E+01  0.5062E+01
      3.091  0.1484E+01  0.1483E+01  0.5161E+01  0.5160E+01
      3.157  0.1493E+01  0.1494E+01  0.5260E+01  0.5258E+01
      3.223  0.1338E+01  0.1340E+01  0.5348E+01  0.5347E+01
      3.289  0.1224E+01  0.1224E+01  0.5429E+01  0.5428E+01
      3.355  0.1304E+01  0.1302E+01  0.5515E+01  0.5514E+01
      3.421  0.1353E+01  0.1353E+01  0.5604E+01  0.5603E+01
      3.487  0.1190E+01  0.1192E+01  0.5683E+01  0.5682E+01
      3.553  0.1111E+01  0.1110E+01  0.5756E+01  0.5755E+01
      3.619  0.1212E+01  0.1211E+01  0.5837E+01  0.5835E+01
      3.685  0.1308E+01  0.1307E+01  0.5923E+01  0.5922E+01
      3.751  0.1364E+01  0.1363E+01  0.6013E+01  0.6012E+01
      3.817  0.1436E+01  0.1434E+01  0.6108E+01  0.6107E+01
      3.883  0.1435E+01  0.1436E+01  0.6203E+01  0.6201E+01
      3.949  0.1344E+01  0.1345E+01  0.6291E+01  0.6290E+01
      4.015  0.1289E+01  0.1290E+01  0.6377E+01  0.6375E+01
      4.081  0.1204E+01  0.1206E+01  0.6456E+01  0.6455E+01
      4.147  0.1126E+01  0.1127E+01  0.6530E+01  0.6529E+01
      4.213  0.1141E+01  0.1140E+01  0.6606E+01  0.6605E+01
      4.279  0.1152E+01  0.1152E+01  0.6682E+01  0.6681E+01
      4.345  0.1162E+01  0.1161E+01  0.6759E+01  0.6758E+01
      4.411  0.1292E+01  0.1289E+01  0.6844E+01  0.6843E+01
      4.477  0.1584E+01  0.1579E+01  0.6949E+01  0.6947E+01
      4.543  0.1809E+01  0.1807E+01  0.7068E+01  0.7066E+01
      4.609  0.1836E+01  0.1837E+01  0.7189E+01  0.7188E+01
      4.675  0.1666E+01  0.1669E+01  0.7299E+01  0.7298E+01
      4.741  0.1455E+01  0.1457E+01  0.7396E+01  0.7394E+01
      4.807  0.1329E+01  0.1329E+01  0.7483E+01  0.7482E+01
      4.873  0.1304E+01  0.1305E+01  0.7569E+01  0.7568E+01
      4.939  0.1249E+01  0.1250E+01  0.7652E+01  0.7651E+01
      5.006  0.1282E+01  0.1281E+01  0.7737E+01  0.7736E+01
      5.072  0.1412E+01  0.1411E+01  0.7830E+01  0.7829E+01
      5.138  0.1386E+01  0.1387E+01  0.7922E+01  0.7920E+01
      5.204  0.1286E+01  0.1286E+01  0.8006E+01  0.8005E+01
      5.270  0.1348E+01  0.1346E+01  0.8096E+01  0.8094E+01
      5.336  0.1561E+01  0.1558E+01  0.8199E+01  0.8197E+01
      5.402  0.1684E+01  0.1683E+01  0.8310E+01  0.8308E+01
      5.468  0.1763E+01  0.1762E+01  0.8426E+01  0.8425E+01
      5.534  0.1778E+01  0.1779E+01  0.8544E+01  0.8542E+01
      5.600  0.1596E+01  0.1599E+01  0.8649E+01  0.8648E+01
      5.666  0.1400E+01  0.1401E+01  0.8742E+01  0.8740E+01
      5.732  0.1377E+01  0.1376E+01  0.8833E+01  0.8831E+01
      5.798  0.1393E+01  0.1394E+01  0.8925E+01  0.8923E+01
      5.864  0.1376E+01  0.1377E+01  0.9016E+01  0.9014E+01
      5.930  0.1317E+01  0.1319E+01  0.9103E+01  0.9102E+01
      5.996  0.1203E+01  0.1205E+01  0.9182E+01  0.9181E+01
      6.062  0.1103E+01  0.1104E+01  0.9255E+01  0.9254E+01
      6.128  0.1126E+01  0.1124E+01  0.9329E+01  0.9328E+01
      6.194  0.1261E+01  0.1257E+01  0.9413E+01  0.9411E+01
      6.260  0.1484E+01  0.1480E+01  0.9511E+01  0.9509E+01
      6.326  0.1708E+01  0.1705E+01  0.9623E+01  0.9622E+01
      6.392  0.1829E+01  0.1829E+01  0.9744E+01  0.9743E+01
      6.458  0.1830E+01  0.1830E+01  0.9865E+01  0.9863E+01
      6.524  0.1799E+01  0.1799E+01  0.9984E+01  0.9982E+01
      6.590  0.1701E+01  0.1703E+01  0.1010E+02  0.1009E+02
      6.656  0.1464E+01  0.1468E+01  0.1019E+02  0.1019E+02
      6.722  0.1276E+01  0.1277E+01  0.1028E+02  0.1028E+02
      6.788  0.1251E+01  0.1250E+01  0.1036E+02  0.1036E+02
      6.854  0.1276E+01  0.1275E+01  0.1044E+02  0.1044E+02
      6.920  0.1309E+01  0.1308E+01  0.1053E+02  0.1053E+02
      6.986  0.1413E+01  0.1411E+01  0.1062E+02  0.1062E+02
      7.052  0.1580E+01  0.1579E+01  0.1073E+02  0.1073E+02
      7.118  0.1637E+01  0.1638E+01  0.1084E+02  0.1084E+02
      7.184  0.1548E+01  0.1550E+01  0.1094E+02  0.1094E+02
      7.250  0.1539E+01  0.1538E+01  0.1104E+02  0.1104E+02
      7.316  0.1590E+01  0.1590E+01  0.1115E+02  0.1114E+02
      7.382  0.1508E+01  0.1510E+01  0.1125E+02  0.1124E+02
      7.448  0.1348E+01  0.1350E+01  0.1133E+02  0.1133E+02
      7.514  0.1338E+01  0.1336E+01  0.1142E+02  0.1142E+02
      7.580  0.1441E+01  0.1441E+01  0.1152E+02  0.1152E+02
      7.646  0.1438E+01  0.1439E+01  0.1161E+02  0.1161E+02
      7.712  0.1498E+01  0.1495E+01  0.1171E+02  0.1171E+02
      7.778  0.1641E+01  0.1639E+01  0.1182E+02  0.1182E+02
      7.844  0.1699E+01  0.1700E+01  0.1193E+02  0.1193E+02
      7.910  0.1577E+01  0.1581E+01  0.1204E+02  0.1204E+02
      7.976  0.1364E+01  0.1367E+01  0.1213E+02  0.1213E+02
      8.042  0.1251E+01  0.1251E+01  0.1221E+02  0.1221E+02
      8.108  0.1356E+01  0.1353E+01  0.1230E+02  0.1230E+02
      8.174  0.1546E+01  0.1544E+01  0.1240E+02  0.1240E+02
      8.240  0.1665E+01  0.1663E+01  0.1251E+02  0.1251E+02
      8.306  0.1765E+01  0.1764E+01  0.1263E+02  0.1263E+02
      8.372  0.1809E+01  0.1808E+01  0.1275E+02  0.1275E+02
      8.438  0.1810E+01  0.1811E+01  0.1287E+02  0.1286E+02
      8.504  0.1748E+01  0.1750E+01  0.1298E+02  0.1298E+02
      8.570  0.1665E+01  0.1666E+01  0.1309E+02  0.1309E+02
      8.636  0.1579E+01  0.1580E+01  0.1320E+02  0.1319E+02
      8.702  0.1520E+01  0.1520E+01  0.1330E+02  0.1330E+02
      8.768  0.1593E+01  0.1592E+01  0.1340E+02  0.1340E+02
      8.834  0.1662E+01  0.1662E+01  0.1351E+02  0.1351E+02
      8.900  0.1641E+01  0.1641E+01  0.1362E+02  0.1362E+02
      8.966  0.1596E+01  0.1597E+01  0.1373E+02  0.1372E+02
      9.032  0.1546E+01  0.1547E+01  0.1383E+02  0.1383E+02
      9.098  0.1584E+01  0.1583E+01  0.1393E+02  0.1393E+02
      9.164  0.1701E+01  0.1699E+01  0.1404E+02  0.1404E+02
      9.230  0.1876E+01  0.1873E+01  0.1417E+02  0.1417E+02
      9.296  0.1959E+01  0.1959E+01  0.1430E+02  0.1430E+02
      9.362  0.1813E+01  0.1816E+01  0.1442E+02  0.1442E+02
      9.428  0.1671E+01  0.1672E+01  0.1453E+02  0.1453E+02
      9.494  0.1622E+01  0.1622E+01  0.1464E+02  0.1463E+02
      9.560  0.1721E+01  0.1718E+01  0.1475E+02  0.1475E+02
      9.626  0.1956E+01  0.1954E+01  0.1488E+02  0.1488E+02
      9.692  0.2012E+01  0.2013E+01  0.1501E+02  0.1501E+02
      9.758  0.1931E+01  0.1931E+01  0.1514E+02  0.1514E+02
      9.824  0.1846E+01  0.1848E+01  0.1526E+02  0.1526E+02
      9.890  0.1621E+01  0.1626E+01  0.1537E+02  0.1537E+02
      9.956  0.1364E+01  0.1367E+01  0.1546E+02  0.1546E+02
     10.022  0.1476E+01  0.1471E+01  0.1556E+02  0.1555E+02
     10.088  0.1790E+01  0.1787E+01  0.1567E+02  0.1567E+02
     10.154  0.1830E+01  0.1832E+01  0.1579E+02  0.1579E+02
     10.220  0.1701E+01  0.1703E+01  0.1591E+02  0.1591E+02
     10.286  0.1639E+01  0.1639E+01  0.1602E+02  0.1601E+02
     10.352  0.1678E+01  0.1677E+01  0.1613E+02  0.1612E+02
     10.418  0.1736E+01  0.1735E+01  0.1624E+02  0.1624E+02
     10.484  0.1769E+01  0.1768E+01  0.1636E+02  0.1636E+02
     10.550  0.1865E+01  0.1864E+01  0.1648E+02  0.1648E+02
     10.616  0.1936E+01  0.1936E+01  0.1661E+02  0.1661E+02
     10.682  0.2005E+01  0.2003E+01  0.1674E+02  0.1674E+02
     10.748  0.2143E+01  0.2141E+01  0.1688E+02  0.1688E+02
     10.814  0.2133E+01  0.2135E+01  0.1702E+02  0.1702E+02
     10.880  0.1961E+01  0.1963E+01  0.1715E+02  0.1715E+02
     10.946  0.1872E+01  0.1872E+01  0.1728E+02  0.1727E+02
     11.012  0.1843E+01  0.1845E+01  0.1740E+02  0.1740E+02
     11.078  0.1619E+01  0.1623E+01  0.1751E+02  0.1750E+02
     11.144  0.1417E+01  0.1418E+01  0.1760E+02  0.1760E+02
     11.210  0.1451E+01  0.1449E+01  0.1770E+02  0.1769E+02
     11.277  0.1635E+01  0.1633E+01  0.1780E+02  0.1780E+02
     11.343  0.1809E+01  0.1809E+01  0.1792E+02  0.1792E+02
     11.409  0.1887E+01  0.1888E+01  0.1805E+02  0.1805E+02
     11.475  0.1845E+01  0.1845E+01  0.1817E+02  0.1817E+02
     11.541  0.1699E+01  0.1701E+01  0.1828E+02  0.1828E+02
     11.607  0.1550E+01  0.1555E+01  0.1838E+02  0.1838E+02
     11.673  0.1477E+01  0.1477E+01  0.1848E+02  0.1848E+02
     11.739  0.1529E+01  0.1511E+01  0.1858E+02  0.1858E+02
     11.805  0.1509E+01  0.1474E+01  0.1868E+02  0.1868E+02
     11.871  0.1385E+01  0.1339E+01  0.1877E+02  0.1877E+02
     11.937  0.1321E+01  0.1307E+01  0.1886E+02  0.1885E+02
     12.003  0.1400E+01  0.1439E+01  0.1895E+02  0.1895E+02
     12.069  0.1472E+01  0.1518E+01  0.1905E+02  0.1905E+02
     12.135  0.1326E+01  0.1356E+01  0.1914E+02  0.1914E+02
     12.201  0.1072E+01  0.1085E+01  0.1921E+02  0.1921E+02
     12.267  0.9766E+00  0.9797E+00  0.1927E+02  0.1927E+02
     12.333  0.9179E+00  0.9128E+00  0.1933E+02  0.1933E+02
     12.399  0.7656E+00  0.7625E+00  0.1938E+02  0.1938E+02
     12.465  0.6734E+00  0.6742E+00  0.1943E+02  0.1943E+02
     12.531  0.6560E+00  0.6583E+00  0.1947E+02  0.1947E+02
     12.597  0.5774E+00  0.5791E+00  0.1951E+02  0.1951E+02
     12.663  0.4789E+00  0.4777E+00  0.1954E+02  0.1954E+02
     12.729  0.5120E+00  0.5113E+00  0.1958E+02  0.1958E+02
     12.795  0.5843E+00  0.5859E+00  0.1961E+02  0.1961E+02
     12.861  0.5708E+00  0.5705E+00  0.1965E+02  0.1965E+02
     12.927  0.4809E+00  0.4797E+00  0.1968E+02  0.1968E+02
     12.993  0.3274E+00  0.3251E+00  0.1971E+02  0.1971E+02
     13.059  0.2552E+00  0.2494E+00  0.1972E+02  0.1972E+02
     13.125  0.2730E+00  0.2713E+00  0.1974E+02  0.1974E+02
     13.191  0.2611E+00  0.2655E+00  0.1976E+02  0.1976E+02
     13.257  0.2379E+00  0.2406E+00  0.1977E+02  0.1977E+02
     13.323  0.2605E+00  0.2607E+00  0.1979E+02  0.1979E+02
     13.389  0.3089E+00  0.3081E+00  0.1981E+02  0.1981E+02
     13.455  0.3579E+00  0.3582E+00  0.1983E+02  0.1983E+02
     13.521  0.3318E+00  0.3364E+00  0.1986E+02  0.1986E+02
     13.587  0.2163E+00  0.2284E+00  0.1987E+02  0.1987E+02
     13.653  0.1172E+00  0.1385E+00  0.1988E+02  0.1988E+02
     13.719  0.1063E+00  0.1163E+00  0.1989E+02  0.1989E+02
     13.785  0.1467E+00  0.1293E+00  0.1990E+02  0.1990E+02
     13.851  0.2197E+00  0.2034E+00  0.1991E+02  0.1991E+02
     13.917  0.2748E+00  0.2699E+00  0.1993E+02  0.1993E+02
     13.983  0.2334E+00  0.2358E+00  0.1994E+02  0.1994E+02
     14.049  0.1716E+00  0.1722E+00  0.1996E+02  0.1996E+02
     14.115  0.1135E+00  0.1097E+00  0.1996E+02  0.1996E+02
     14.181  0.6611E-01  0.6323E-01  0.1997E+02  0.1997E+02
     14.247  0.5136E-01  0.4958E-01  0.1997E+02  0.1997E+02
     14.313  0.4557E-01  0.4275E-01  0.1997E+02  0.1997E+02
     14.379  0.6017E-01  0.5340E-01  0.1998E+02  0.1998E+02
     14.445  0.9878E-01  0.9122E-01  0.1998E+02  0.1998E+02
     14.511  0.1049E+00  0.1021E+00  0.1999E+02  0.1999E+02
     14.577  0.7458E-01  0.7375E-01  0.2000E+02  0.1999E+02
     14.643  0.4144E-01  0.4928E-01  0.2000E+02  0.2000E+02
     14.709  0.1627E-01  0.2517E-01  0.2000E+02  0.2000E+02
     14.775  0.4982E-02  0.8858E-02  0.2000E+02  0.2000E+02
     14.841  0.1320E-02  0.2500E-02  0.2000E+02  0.2000E+02
     14.907  0.2945E-03  0.6111E-03  0.2000E+02  0.2000E+02
     14.973  0.0000E+00  0.1645E-03  0.2000E+02  0.2000E+02
     15.039  0.0000E+00  0.0000E+00  0.2000E+02  0.2000E+02
     15.105  0.0000E+00  0.0000E+00  0.2000E+02  0.2000E+02
     15.171  0.0000E+00  0.0000E+00  0.2000E+02  0.2000E+02
     15.237  0.0000E+00  0.0000E+00  0.2000E+02  0.2000E+02
     15.303  0.0000E+00  0.0000E+00  0.2000E+02  0.2000E+02
     15.369  0.0000E+00  0.0000E+00  0.2000E+02  0.2000E+02
     15.435  0.0000E+00  0.0000E+00  0.2000E+02  0.2000E+02
     15.501  0.0000E+00  0.0000E+00  0.2000E+02  0.2000E+02
     15.50117662     -4.30198347  301      7.22437801      1.00000000
     -4.302  0.0000E+00  0.0000E+00  0.0000E+00  0.0000E+00  0.0000E+00  0.0000E+00  0.0000E+00  0.0000E+00  0.0000E+00  0.0000E+00  0.0000E+00  0.0000E+00  0.0000E+00  0.0000E+00  0.0000E+00  0.0000E+00  0.0000E+00  0.0000E+00
     -4.236  0.0000E+00  0.0000E+00  0.0000E+00  0.0000E+00  0.0000E+00  0.0000E+00  0.0000E+00  0.0000E+00  0.0000E+00  0.0000E+00  0.0000E+00  0.0000E+00  0.0000E+00  0.0000E+00  0.0000E+00  0.0000E+00  0.0000E+00  0.0000E+00
     -4.170  0.0000E+00  0.0000E+00  0.0000E+00  0.0000E+00  0.0000E+00  0.0000E+00  0.0000E+00  0.0000E+00  0.0000E+00  0.0000E+00  0.0000E+00  0.0000E+00  0.0000E+00  0.0000E+00  0.0000E+00  0.0000E+00  0.0000E+00  0.0000E+00
     -4.104  0.0000E+00  0.0000E+00  0.0000E+00  0.0000E+00  0.0000E+00  0.0000E+00  0.0000E+00  0.0000E+00  0.0000E+00  0.0000E+00  0.0000E+00  0.0000E+00  0.0000E+00  0.0000E+00  0.0000E+00  0.0000E+00  0.0000E+00  0.0000E+00
     -4.038  0.0000E+00  0.0000E+00  0.0000E+00  0.0000E+00  0.0000E+00  0.0000E+00  0.0000E+00  0.0000E+00  0.0000E+00  0.0000E+00  0.0000E+00  0.0000E+00  0.0000E+00  0.0000E+00  0.0000E+00  0.0000E+00  0.0000E+00  0.0000E+00
     -3.972  0.0000E+00  0.0000E+00  0.0000E+00  0.0000E+00  0.0000E+00  0.0000E+00  0.0000E+00  0.0000E+00  0.0000E+00  0.0000E+00  0.0000E+00  0.0000E+00  0.0000E+00  0.0000E+00  0.0000E+00  0.0000E+00  0.0000E+00  0.0000E+00
     -3.906  0.0000E+00  0.0000E+00  0.0000E+00  0.0000E+00  0.0000E+00  0.0000E+00  0.0000E+00  0.0000E+00  0.0000E+00  0.0000E+00  0.0000E+00  0.0000E+00  0.0000E+00  0.0000E+00  0.0000E+00  0.0000E+00  0.0000E+00  0.0000E+00
     -3.840  0.3800E-07  0.3736E-07  0.1053E-21  0.2765E-22  0.1076E-20  0.3321E-21  0.1053E-21  0.2765E-22  0.2409E-22  0.3295E-22  0.3027E-22  0.5071E-22  0.3466E-12  0.3456E-12  0.3027E-22  0.5071E-22  0.3432E-22  0.3362E-21
     -3.774  0.4084E-06  0.4015E-06  0.6032E-09  0.5929E-09  0.6621E-09  0.6509E-09  0.6032E-09  0.5929E-09  0.3261E-21  0.7858E-21  0.2359E-21  0.4829E-21  0.4355E-11  0.4335E-11  0.2359E-21  0.4829E-21  0.5967E-12  0.5865E-12
     -3.708  0.2222E-05  0.2185E-05  0.6226E-08  0.6119E-08  0.6235E-08  0.6129E-08  0.6226E-08  0.6119E-08  0.9420E-11  0.9266E-11  0.8282E-11  0.8142E-11  0.2481E-10  0.2470E-10  0.8282E-11  0.8142E-11  0.3434E-11  0.3375E-11
     -3.642  0.7504E-05  0.7379E-05  0.1999E-07  0.1965E-07  0.2144E-07  0.2108E-07  0.1999E-07  0.1965E-07  0.2583E-10  0.2541E-10  0.2271E-10  0.2233E-10  0.8821E-10  0.8772E-10  0.2271E-10  0.2233E-10  0.1604E-10  0.1576E-10
     -3.576  0.2884E-04  0.2836E-04  0.8398E-07  0.8255E-07  0.9606E-07  0.9444E-07  0.8398E-07  0.8255E-07  0.1226E-09  0.1206E-09  0.1276E-09  0.1254E-09  0.3536E-09  0.3515E-09  0.1276E-09  0.1254E-09  0.7870E-10  0.7735E-10
     -3.510  0.1035E-03  0.1019E-03  0.3109E-06  0.3057E-06  0.3392E-06  0.3335E-06  0.3109E-06  0.3057E-06  0.4972E-09  0.4892E-09  0.4644E-09  0.4567E-09  0.1286E-08  0.1278E-08  0.4644E-09  0.4567E-09  0.2882E-09  0.2833E-09
     -3.444  0.3427E-03  0.3378E-03  0.1093E-05  0.1076E-05  0.1200E-05  0.1181E-05  0.1093E-05  0.1076E-05  0.1751E-08  0.1724E-08  0.1701E-08  0.1673E-08  0.4341E-08  0.4322E-08  0.1701E-08  0.1673E-08  0.1021E-08  0.1005E-08
     -3.378  0.9333E-03  0.9231E-03  0.3466E-05  0.3418E-05  0.3779E-05  0.3728E-05  0.3466E-05  0.3418E-05  0.6257E-08  0.6166E-08  0.5950E-08  0.5861E-08  0.1266E-07  0.1263E-07  0.5950E-08  0.5861E-08  0.3327E-08  0.3279E-08
     -3.312  0.1858E-02  0.1846E-02  0.8691E-05  0.8601E-05  0.9569E-05  0.9468E-05  0.8691E-05  0.8601E-05  0.1840E-07  0.1818E-07  0.1748E-07  0.1726E-07  0.2895E-07  0.2895E-07  0.1748E-07  0.1726E-07  0.9572E-08  0.9449E-08
     -3.246  0.2709E-02  0.2700E-02  0.1704E-04  0.1691E-04  0.1951E-04  0.1935E-04  0.1704E-04  0.1691E-04  0.4340E-07  0.4300E-07  0.4234E-07  0.4191E-07  0.5470E-07  0.5465E-07  0.4234E-07  0.4191E-07  0.2532E-07  0.2501E-07
     -3.180  0.3490E-02  0.3479E-02  0.3042E-04  0.3019E-04  0.3411E-04  0.3389E-04  0.3042E-04  0.3019E-04  0.9212E-07  0.9131E-07  0.9121E-07  0.9040E-07  0.9912E-07  0.9890E-07  0.9121E-07  0.9040E-07  0.6051E-07  0.5993E-07
     -3.114  0.4343E-02  0.4334E-02  0.4871E-04  0.4847E-04  0.5002E-04  0.4981E-04  0.4871E-04  0.4847E-04  0.1842E-06  0.1830E-06  0.1716E-06  0.1705E-06  0.1602E-06  0.1602E-06  0.1716E-06  0.1705E-06  0.1056E-06  0.1051E-06
     -3.048  0.4547E-02  0.4548E-02  0.6069E-04  0.6054E-04  0.6530E-04  0.6503E-04  0.6069E-04  0.6054E-04  0.2864E-06  0.2853E-06  0.2720E-06  0.2707E-06  0.2136E-06  0.2137E-06  0.2720E-06  0.2707E-06  0.1385E-06  0.1381E-06
     -2.982  0.4715E-02  0.4707E-02  0.7421E-04  0.7388E-04  0.9387E-04  0.9336E-04  0.7421E-04  0.7388E-04  0.4272E-06  0.4247E-06  0.4273E-06  0.4250E-06  0.3128E-06  0.3115E-06  0.4273E-06  0.4250E-06  0.2024E-06  0.2011E-06
     -2.916  0.5504E-02  0.5495E-02  0.1037E-03  0.1032E-03  0.1252E-03  0.1249E-03  0.1037E-03  0.1032E-03  0.6513E-06  0.6492E-06  0.6187E-06  0.6170E-06  0.5062E-06  0.5045E-06  0.6187E-06  0.6170E-06  0.3688E-06  0.3662E-06
     -2.850  0.5903E-02  0.5900E-02  0.1344E-03  0.1340E-03  0.1340E-03  0.1339E-03  0.1344E-03  0.1340E-03  0.8547E-06  0.8524E-06  0.8011E-06  0.7986E-06  0.6842E-06  0.6839E-06  0.8011E-06  0.7986E-06  0.6060E-06  0.6035E-06
     -2.784  0.6067E-02  0.6063E-02  0.1578E-03  0.1575E-03  0.1550E-03  0.1545E-03  0.1578E-03  0.1575E-03  0.1133E-05  0.1129E-05  0.1160E-05  0.1155E-05  0.7845E-06  0.7849E-06  0.1160E-05  0.1155E-05  0.7419E-06  0.7415E-06
     -2.718  0.6376E-02  0.6372E-02  0.1777E-03  0.1773E-03  0.2028E-03  0.2022E-03  0.1777E-03  0.1773E-03  0.1606E-05  0.1600E-05  0.1613E-05  0.1610E-05  0.9650E-06  0.9627E-06  0.1613E-05  0.1610E-05  0.7710E-06  0.7709E-06
     -2.652  0.6484E-02  0.6486E-02  0.1947E-03  0.1945E-03  0.2390E-03  0.2386E-03  0.1947E-03  0.1945E-03  0.2179E-05  0.2174E-05  0.1835E-05  0.1834E-05  0.1328E-05  0.1324E-05  0.1835E-05  0.1834E-05  0.8151E-06  0.8145E-06
     -2.586  0.6152E-02  0.6155E-02  0.2003E-03  0.2000E-03  0.2638E-03  0.2634E-03  0.2003E-03  0.2000E-03  0.2354E-05  0.2355E-05  0.2094E-05  0.2089E-05  0.1602E-05  0.1600E-05  0.2094E-05  0.2089E-05  0.9886E-06  0.9841E-06
     -2.520  0.6582E-02  0.6569E-02  0.2477E-03  0.2466E-03  0.2989E-03  0.2982E-03  0.2477E-03  0.2466E-03  0.2614E-05  0.2608E-05  0.2891E-05  0.2880E-05  0.1885E-05  0.1881E-05  0.2891E-05  0.2880E-05  0.1662E-05  0.1651E-05
     -2.454  0.7659E-02  0.7650E-02  0.3260E-03  0.3250E-03  0.3451E-03  0.3446E-03  0.3260E-03  0.3250E-03  0.3370E-05  0.3360E-05  0.3814E-05  0.3808E-05  0.2445E-05  0.2440E-05  0.3814E-05  0.3808E-05  0.2537E-05  0.2529E-05
     -2.388  0.7688E-02  0.7694E-02  0.3572E-03  0.3569E-03  0.3538E-03  0.3539E-03  0.3572E-03  0.3569E-03  0.4381E-05  0.4368E-05  0.4123E-05  0.4123E-05  0.2848E-05  0.2848E-05  0.4123E-05  0.4123E-05  0.2769E-05  0.2770E-05
     -2.322  0.7341E-02  0.7340E-02  0.3745E-03  0.3739E-03  0.3596E-03  0.3590E-03  0.3745E-03  0.3739E-03  0.5676E-05  0.5660E-05  0.4488E-05  0.4479E-05  0.3142E-05  0.3140E-05  0.4488E-05  0.4479E-05  0.2735E-05  0.2734E-05
     -2.256  0.7552E-02  0.7552E-02  0.3935E-03  0.3935E-03  0.4544E-03  0.4528E-03  0.3935E-03  0.3935E-03  0.6693E-05  0.6691E-05  0.5586E-05  0.5573E-05  0.3763E-05  0.3758E-05  0.5586E-05  0.5573E-05  0.2688E-05  0.2691E-05
     -2.190  0.7178E-02  0.7185E-02  0.3659E-03  0.3660E-03  0.5517E-03  0.5508E-03  0.3659E-03  0.3660E-03  0.6258E-05  0.6268E-05  0.6692E-05  0.6681E-05  0.4055E-05  0.4056E-05  0.6692E-05  0.6681E-05  0.2500E-05  0.2500E-05
     -2.124  0.7016E-02  0.7013E-02  0.3844E-03  0.3834E-03  0.5931E-03  0.5926E-03  0.3844E-03  0.3834E-03  0.6348E-05  0.6335E-05  0.7976E-05  0.7963E-05  0.4208E-05  0.4202E-05  0.7976E-05  0.7963E-05  0.3045E-05  0.3032E-05
     -2.058  0.7588E-02  0.7581E-02  0.4792E-03  0.4776E-03  0.6139E-03  0.6137E-03  0.4792E-03  0.4776E-03  0.8601E-05  0.8564E-05  0.9018E-05  0.9014E-05  0.5310E-05  0.5292E-05  0.9018E-05  0.9014E-05  0.4364E-05  0.4343E-05
     -1.992  0.8288E-02  0.8283E-02  0.5982E-03  0.5967E-03  0.6067E-03  0.6071E-03  0.5982E-03  0.5967E-03  0.1170E-04  0.1168E-04  0.9658E-05  0.9656E-05  0.6733E-05  0.6727E-05  0.9658E-05  0.9656E-05  0.6043E-05  0.6022E-05
     -1.926  0.8098E-02  0.8104E-02  0.6465E-03  0.6461E-03  0.5702E-03  0.5701E-03  0.6465E-03  0.6461E-03  0.1267E-04  0.1267E-04  0.1011E-04  0.1010E-04  0.6925E-05  0.6934E-05  0.1011E-04  0.1010E-04  0.7146E-05  0.7136E-05
     -1.860  0.7927E-02  0.7924E-02  0.6622E-03  0.6616E-03  0.6725E-03  0.6702E-03  0.6622E-03  0.6616E-03  0.1284E-04  0.1284E-04  0.1182E-04  0.1179E-04  0.7420E-05  0.7412E-05  0.1182E-04  0.1179E-04  0.7634E-05  0.7625E-05
     -1.794  0.8243E-02  0.8242E-02  0.6850E-03  0.6847E-03  0.9096E-03  0.9069E-03  0.6850E-03  0.6847E-03  0.1314E-04  0.1315E-04  0.1473E-04  0.1471E-04  0.8878E-05  0.8870E-05  0.1473E-04  0.1471E-04  0.8000E-05  0.8000E-05
     -1.728  0.7829E-02  0.7836E-02  0.6503E-03  0.6504E-03  0.1030E-02  0.1030E-02  0.6503E-03  0.6504E-03  0.1403E-04  0.1400E-04  0.1665E-04  0.1664E-04  0.9028E-05  0.9037E-05  0.1665E-04  0.1664E-04  0.6984E-05  0.6999E-05
     -1.662  0.7585E-02  0.7580E-02  0.6829E-03  0.6813E-03  0.1031E-02  0.1030E-02  0.6829E-03  0.6813E-03  0.1843E-04  0.1836E-04  0.1846E-04  0.1844E-04  0.8707E-05  0.8703E-05  0.1846E-04  0.1844E-04  0.6311E-05  0.6307E-05
     -1.596  0.7912E-02  0.7912E-02  0.7675E-03  0.7667E-03  0.1116E-02  0.1116E-02  0.7675E-03  0.7667E-03  0.2317E-04  0.2315E-04  0.2090E-04  0.2090E-04  0.9742E-05  0.9729E-05  0.2090E-04  0.2090E-04  0.6773E-05  0.6766E-05
     -1.530  0.7116E-02  0.7129E-02  0.7524E-03  0.7522E-03  0.1068E-02  0.1069E-02  0.7524E-03  0.7522E-03  0.2394E-04  0.2395E-04  0.1914E-04  0.1919E-04  0.1040E-04  0.1040E-04  0.1914E-04  0.1919E-04  0.7307E-05  0.7290E-05
     -1.464  0.6590E-02  0.6586E-02  0.8013E-03  0.7993E-03  0.1049E-02  0.1048E-02  0.8013E-03  0.7993E-03  0.2340E-04  0.2341E-04  0.1924E-04  0.1920E-04  0.1093E-04  0.1092E-04  0.1924E-04  0.1920E-04  0.9902E-05  0.9847E-05
     -1.398  0.7498E-02  0.7483E-02  0.9850E-03  0.9822E-03  0.1324E-02  0.1320E-02  0.9850E-03  0.9822E-03  0.2366E-04  0.2365E-04  0.2696E-04  0.2686E-04  0.1288E-04  0.1286E-04  0.2696E-04  0.2686E-04  0.1442E-04  0.1436E-04
     -1.332  0.8202E-02  0.8200E-02  0.1116E-02  0.1115E-02  0.1579E-02  0.1577E-02  0.1116E-02  0.1115E-02  0.2533E-04  0.2531E-04  0.3495E-04  0.3491E-04  0.1400E-04  0.1401E-04  0.3495E-04  0.3491E-04  0.1663E-04  0.1661E-04
     -1.265  0.7799E-02  0.7805E-02  0.1141E-02  0.1141E-02  0.1572E-02  0.1573E-02  0.1141E-02  0.1141E-02  0.2875E-04  0.2869E-04  0.3593E-04  0.3597E-04  0.1392E-04  0.1392E-04  0.3593E-04  0.3597E-04  0.1663E-04  0.1662E-04
     -1.199  0.7268E-02  0.7272E-02  0.1176E-02  0.1175E-02  0.1359E-02  0.1361E-02  0.1176E-02  0.1175E-02  0.3724E-04  0.3713E-04  0.3290E-04  0.3294E-04  0.1447E-04  0.1447E-04  0.3290E-04  0.3294E-04  0.1601E-04  0.1602E-04
     -1.133  0.6716E-02  0.6725E-02  0.1177E-02  0.1177E-02  0.1193E-02  0.1194E-02  0.1177E-02  0.1177E-02  0.4388E-04  0.4387E-04  0.3156E-04  0.3158E-04  0.1411E-04  0.1413E-04  0.3156E-04  0.3158E-04  0.1396E-04  0.1398E-04
     -1.067  0.5880E-02  0.5887E-02  0.1137E-02  0.1137E-02  0.1183E-02  0.1182E-02  0.1137E-02  0.1137E-02  0.4243E-04  0.4246E-04  0.3262E-04  0.3259E-04  0.1271E-04  0.1273E-04  0.3262E-04  0.3259E-04  0.1267E-04  0.1268E-04
     -1.001  0.5758E-02  0.5753E-02  0.1173E-02  0.1171E-02  0.1410E-02  0.1406E-02  0.1173E-02  0.1171E-02  0.4460E-04  0.4455E-04  0.4118E-04  0.4106E-04  0.1324E-04  0.1322E-04  0.4118E-04  0.4106E-04  0.1196E-04  0.1196E-04