   8   8   1   0
  0.1781473E+02  0.4114529E-09  0.4114529E-09  0.8418390E-09  0.5000000E-15
  1.000000000000000E-004
  CAR 
 unknown system                          
     14.12180866     -4.51714071  301      6.40298666      1.00000000
     -4.517  0.0000E+00  0.0000E+00  0.0000E+00  0.0000E+00
     -4.455  0.0000E+00  0.0000E+00  0.0000E+00  0.0000E+00
     -4.393  0.0000E+00  0.0000E+00  0.0000E+00  0.0000E+00
     -4.331  0.0000E+00  0.0000E+00  0.0000E+00  0.0000E+00
     -4.269  0.0000E+00  0.0000E+00  0.0000E+00  0.0000E+00
     -4.206  0.0000E+00  0.0000E+00  0.0000E+00  0.0000E+00
     -4.144  0.0000E+00  0.0000E+00  0.0000E+00  0.0000E+00
     -4.082  0.6643E-05  0.6593E-05  0.4127E-06  0.4096E-06
     -4.020  0.5563E-04  0.5521E-04  0.3869E-05  0.3840E-05
     -3.958  0.1752E-03  0.1739E-03  0.1475E-04  0.1464E-04
     -3.896  0.6072E-03  0.6027E-03  0.5248E-04  0.5209E-04
     -3.834  0.2125E-02  0.2109E-02  0.1845E-03  0.1831E-03
     -3.772  0.7065E-02  0.7015E-02  0.6234E-03  0.6190E-03
     -3.709  0.2161E-01  0.2147E-01  0.1966E-02  0.1953E-02
     -3.647  0.5527E-01  0.5500E-01  0.5400E-02  0.5370E-02
     -3.585  0.1066E+00  0.1062E+00  0.1202E-01  0.1197E-01
     -3.523  0.1563E+00  0.1560E+00  0.2173E-01  0.2167E-01
     -3.461  0.2039E+00  0.2036E+00  0.3440E-01  0.3432E-01
     -3.399  0.2528E+00  0.2526E+00  0.5011E-01  0.5001E-01
     -3.337  0.2703E+00  0.2703E+00  0.6691E-01  0.6680E-01
     -3.275  0.2878E+00  0.2876E+00  0.8479E-01  0.8467E-01
     -3.212  0.3349E+00  0.3347E+00  0.1056E+00  0.1055E+00
     -3.150  0.3634E+00  0.3633E+00  0.1282E+00  0.1280E+00
     -3.088  0.3801E+00  0.3800E+00  0.1518E+00  0.1517E+00
     -3.026  0.4037E+00  0.4036E+00  0.1769E+00  0.1767E+00
     -2.964  0.4147E+00  0.4147E+00  0.2027E+00  0.2025E+00
     -2.902  0.4062E+00  0.4062E+00  0.2279E+00  0.2278E+00
     -2.840  0.4415E+00  0.4411E+00  0.2554E+00  0.2552E+00
     -2.778  0.5101E+00  0.5098E+00  0.2871E+00  0.2869E+00
     -2.715  0.5198E+00  0.5201E+00  0.3194E+00  0.3192E+00
     -2.653  0.5105E+00  0.5104E+00  0.3511E+00  0.3509E+00
     -2.591  0.5298E+00  0.5298E+00  0.3841E+00  0.3839E+00
     -2.529  0.5184E+00  0.5185E+00  0.4163E+00  0.4161E+00
     -2.467  0.5211E+00  0.5209E+00  0.4487E+00  0.4485E+00
     -2.405  0.5692E+00  0.5688E+00  0.4841E+00  0.4838E+00
     -2.343  0.6213E+00  0.6211E+00  0.5227E+00  0.5225E+00
     -2.280  0.6215E+00  0.6216E+00  0.5613E+00  0.5611E+00
     -2.218  0.6322E+00  0.6320E+00  0.6006E+00  0.6004E+00
     -2.156  0.6734E+00  0.6733E+00  0.6425E+00  0.6422E+00
     -2.094  0.6625E+00  0.6626E+00  0.6837E+00  0.6834E+00
     -2.032  0.6614E+00  0.6612E+00  0.7248E+00  0.7245E+00
     -1.970  0.6955E+00  0.6955E+00  0.7680E+00  0.7678E+00
     -1.908  0.6557E+00  0.6560E+00  0.8088E+00  0.8086E+00
     -1.846  0.6512E+00  0.6509E+00  0.8493E+00  0.8490E+00
     -1.783  0.7593E+00  0.7588E+00  0.8965E+00  0.8962E+00
     -1.721  0.8432E+00  0.8430E+00  0.9489E+00  0.9486E+00
     -1.659  0.8305E+00  0.8308E+00  0.1001E+01  0.1000E+01
     -1.597  0.7858E+00  0.7861E+00  0.1049E+01  0.1049E+01
     -1.535  0.7393E+00  0.7396E+00  0.1095E+01  0.1095E+01
     -1.473  0.6992E+00  0.6993E+00  0.1139E+01  0.1139E+01
     -1.411  0.7316E+00  0.7312E+00  0.1184E+01  0.1184E+01
     -1.349  0.8039E+00  0.8036E+00  0.1234E+01  0.1234E+01
     -1.286  0.8289E+00  0.8289E+00  0.1286E+01  0.1286E+01
     -1.224  0.8465E+00  0.8464E+00  0.1338E+01  0.1338E+01
     -1.162  0.8369E+00  0.8371E+00  0.1390E+01  0.1390E+01
     -1.100  0.8067E+00  0.8067E+00  0.1441E+01  0.1440E+01
     -1.038  0.8512E+00  0.8507E+00  0.1494E+01  0.1493E+01
     -0.976  0.9084E+00  0.9083E+00  0.1550E+01  0.1550E+01
     -0.914  0.8367E+00  0.8375E+00  0.1602E+01  0.1602E+01
     -0.851  0.6972E+00  0.6977E+00  0.1645E+01  0.1645E+01
     -0.789  0.6472E+00  0.6472E+00  0.1686E+01  0.1685E+01
     -0.727  0.6699E+00  0.6696E+00  0.1727E+01  0.1727E+01
     -0.665  0.7524E+00  0.7516E+00  0.1774E+01  0.1774E+01
     -0.603  0.8799E+00  0.8792E+00  0.1829E+01  0.1828E+01
     -0.541  0.9234E+00  0.9235E+00  0.1886E+01  0.1886E+01
     -0.479  0.9279E+00  0.9277E+00  0.1944E+01  0.1943E+01
     -0.417  0.9837E+00  0.9835E+00  0.2005E+01  0.2005E+01
     -0.354  0.9486E+00  0.9491E+00  0.2064E+01  0.2064E+01
     -0.292  0.8731E+00  0.8731E+00  0.2118E+01  0.2118E+01
     -0.230  0.9460E+00  0.9452E+00  0.2177E+01  0.2177E+01
     -0.168  0.1028E+01  0.1028E+01  0.2241E+01  0.2241E+01
     -0.106  0.9779E+00  0.9783E+00  0.2302E+01  0.2301E+01
     -0.044  0.9699E+00  0.9696E+00  0.2362E+01  0.2362E+01
      0.018  0.1040E+01  0.1040E+01  0.2427E+01  0.2426E+01
      0.080  0.1033E+01  0.1033E+01  0.2491E+01  0.2491E+01
      0.143  0.9707E+00  0.9711E+00  0.2551E+01  0.2551E+01
      0.205  0.9023E+00  0.9027E+00  0.2607E+01  0.2607E+01
      0.267  0.8496E+00  0.8497E+00  0.2660E+01  0.2660E+01
      0.329  0.8649E+00  0.8646E+00  0.2714E+01  0.2714E+01
      0.391  0.8956E+00  0.8956E+00  0.2770E+01  0.2769E+01
      0.453  0.8784E+00  0.8784E+00  0.2824E+01  0.2824E+01
      0.515  0.9167E+00  0.9162E+00  0.2881E+01  0.2881E+01
      0.578  0.1005E+01  0.1005E+01  0.2944E+01  0.2943E+01
      0.640  0.1087E+01  0.1086E+01  0.3011E+01  0.3011E+01
      0.702  0.1202E+01  0.1201E+01  0.3086E+01  0.3086E+01
      0.764  0.1288E+01  0.1288E+01  0.3166E+01  0.3166E+01
      0.826  0.1162E+01  0.1163E+01  0.3238E+01  0.3238E+01
      0.888  0.9718E+00  0.9725E+00  0.3299E+01  0.3298E+01
      0.950  0.9148E+00  0.9146E+00  0.3356E+01  0.3355E+01
      1.012  0.1014E+01  0.1013E+01  0.3419E+01  0.3418E+01
      1.075  0.1250E+01  0.1248E+01  0.3496E+01  0.3496E+01
      1.137  0.1381E+01  0.1381E+01  0.3582E+01  0.3582E+01
      1.199  0.1276E+01  0.1277E+01  0.3662E+01  0.3661E+01
      1.261  0.1068E+01  0.1070E+01  0.3728E+01  0.3728E+01
      1.323  0.9381E+00  0.9384E+00  0.3786E+01  0.3786E+01
      1.385  0.9337E+00  0.9335E+00  0.3844E+01  0.3844E+01
      1.447  0.1001E+01  0.1001E+01  0.3907E+01  0.3906E+01
      1.509  0.1144E+01  0.1143E+01  0.3978E+01  0.3977E+01
      1.572  0.1212E+01  0.1212E+01  0.4053E+01  0.4053E+01
      1.634  0.1213E+01  0.1212E+01  0.4129E+01  0.4128E+01
      1.696  0.1277E+01  0.1277E+01  0.4208E+01  0.4207E+01
      1.758  0.1301E+01  0.1301E+01  0.4289E+01  0.4288E+01
      1.820  0.1242E+01  0.1243E+01  0.4366E+01  0.4366E+01
      1.882  0.1249E+01  0.1249E+01  0.4444E+01  0.4443E+01
      1.944  0.1252E+01  0.1252E+01  0.4522E+01  0.4521E+01
      2.006  0.1211E+01  0.1211E+01  0.4597E+01  0.4596E+01
      2.069  0.1170E+01  0.1170E+01  0.4670E+01  0.4669E+01
      2.131  0.1026E+01  0.1027E+01  0.4733E+01  0.4733E+01
      2.193  0.8772E+00  0.8775E+00  0.4788E+01  0.4788E+01
      2.255  0.9620E+00  0.9608E+00  0.4848E+01  0.4847E+01
      2.317  0.1220E+01  0.1218E+01  0.4924E+01  0.4923E+01
      2.379  0.1415E+01  0.1413E+01  0.5012E+01  0.5011E+01
      2.441  0.1529E+01  0.1529E+01  0.5107E+01  0.5106E+01
      2.504  0.1575E+01  0.1575E+01  0.5204E+01  0.5204E+01
      2.566  0.1463E+01  0.1464E+01  0.5295E+01  0.5295E+01
      2.628  0.1307E+01  0.1307E+01  0.5377E+01  0.5376E+01
      2.690  0.1285E+01  0.1285E+01  0.5456E+01  0.5456E+01
      2.752  0.1378E+01  0.1377E+01  0.5542E+01  0.5542E+01
      2.814  0.1363E+01  0.1364E+01  0.5627E+01  0.5626E+01
      2.876  0.1243E+01  0.1243E+01  0.5704E+01  0.5704E+01
      2.938  0.1224E+01  0.1223E+01  0.5780E+01  0.5780E+01
      3.001  0.1325E+01  0.1324E+01  0.5863E+01  0.5862E+01
      3.063  0.1433E+01  0.1432E+01  0.5952E+01  0.5951E+01
      3.125  0.1442E+01  0.1442E+01  0.6041E+01  0.6041E+01
      3.187  0.1456E+01  0.1455E+01  0.6132E+01  0.6131E+01
      3.249  0.1473E+01  0.1473E+01  0.6223E+01  0.6223E+01
      3.311  0.1400E+01  0.1400E+01  0.6310E+01  0.6310E+01
      3.373  0.1334E+01  0.1334E+01  0.6393E+01  0.6393E+01
      3.435  0.1322E+01  0.1322E+01  0.6476E+01  0.6475E+01
      3.498  0.1338E+01  0.1338E+01  0.6559E+01  0.6558E+01
      3.560  0.1338E+01  0.1338E+01  0.6642E+01  0.6641E+01
      3.622  0.1284E+01  0.1284E+01  0.6722E+01  0.6721E+01
      3.684  0.1243E+01  0.1243E+01  0.6799E+01  0.6799E+01
      3.746  0.1341E+01  0.1340E+01  0.6882E+01  0.6882E+01
      3.808  0.1594E+01  0.1592E+01  0.6982E+01  0.6981E+01
      3.870  0.1823E+01  0.1822E+01  0.7095E+01  0.7094E+01
      3.933  0.1875E+01  0.1875E+01  0.7211E+01  0.7211E+01
      3.995  0.1720E+01  0.1721E+01  0.7318E+01  0.7318E+01
      4.057  0.1513E+01  0.1514E+01  0.7412E+01  0.7412E+01
      4.119  0.1415E+01  0.1416E+01  0.7500E+01  0.7500E+01
      4.181  0.1419E+01  0.1419E+01  0.7589E+01  0.7588E+01
      4.243  0.1424E+01  0.1424E+01  0.7677E+01  0.7677E+01
      4.305  0.1469E+01  0.1469E+01  0.7768E+01  0.7768E+01
      4.367  0.1507E+01  0.1507E+01  0.7862E+01  0.7862E+01
      4.430  0.1388E+01  0.1390E+01  0.7949E+01  0.7948E+01
      4.492  0.1274E+01  0.1273E+01  0.8028E+01  0.8027E+01
      4.554  0.1399E+01  0.1397E+01  0.8115E+01  0.8114E+01
      4.616  0.1637E+01  0.1636E+01  0.8216E+01  0.8216E+01
      4.678  0.1803E+01  0.1802E+01  0.8328E+01  0.8328E+01
      4.740  0.1913E+01  0.1912E+01  0.8447E+01  0.8447E+01
      4.802  0.1927E+01  0.1927E+01  0.8567E+01  0.8566E+01
      4.864  0.1765E+01  0.1766E+01  0.8677E+01  0.8676E+01
      4.927  0.1584E+01  0.1585E+01  0.8775E+01  0.8775E+01
      4.989  0.1455E+01  0.1456E+01  0.8866E+01  0.8865E+01
      5.051  0.1415E+01  0.1415E+01  0.8954E+01  0.8953E+01
      5.113  0.1415E+01  0.1416E+01  0.9042E+01  0.9041E+01
      5.175  0.1329E+01  0.1330E+01  0.9124E+01  0.9124E+01
      5.237  0.1195E+01  0.1195E+01  0.9199E+01  0.9198E+01
      5.299  0.1174E+01  0.1174E+01  0.9272E+01  0.9271E+01
      5.362  0.1264E+01  0.1262E+01  0.9350E+01  0.9350E+01
      5.424  0.1442E+01  0.1440E+01  0.9440E+01  0.9439E+01
      5.486  0.1666E+01  0.1664E+01  0.9544E+01  0.9543E+01
      5.548  0.1801E+01  0.1801E+01  0.9656E+01  0.9655E+01
      5.610  0.1841E+01  0.1842E+01  0.9770E+01  0.9769E+01
      5.672  0.1900E+01  0.1900E+01  0.9888E+01  0.9887E+01
      5.734  0.1899E+01  0.1899E+01  0.1001E+02  0.1001E+02
      5.796  0.1718E+01  0.1719E+01  0.1011E+02  0.1011E+02
      5.859  0.1472E+01  0.1473E+01  0.1020E+02  0.1020E+02
      5.921  0.1283E+01  0.1284E+01  0.1028E+02  0.1028E+02
      5.983  0.1265E+01  0.1265E+01  0.1036E+02  0.1036E+02
      6.045  0.1360E+01  0.1359E+01  0.1045E+02  0.1045E+02
      6.107  0.1435E+01  0.1434E+01  0.1054E+02  0.1054E+02
      6.169  0.1534E+01  0.1533E+01  0.1063E+02  0.1063E+02
      6.231  0.1609E+01  0.1610E+01  0.1073E+02  0.1073E+02
      6.293  0.1568E+01  0.1569E+01  0.1083E+02  0.1083E+02
      6.356  0.1537E+01  0.1537E+01  0.1093E+02  0.1092E+02
      6.418  0.1601E+01  0.1600E+01  0.1102E+02  0.1102E+02
      6.480  0.1708E+01  0.1708E+01  0.1113E+02  0.1113E+02
      6.542  0.1667E+01  0.1668E+01  0.1123E+02  0.1123E+02
      6.604  0.1519E+01  0.1519E+01  0.1133E+02  0.1133E+02
      6.666  0.1524E+01  0.1523E+01  0.1142E+02  0.1142E+02
      6.728  0.1615E+01  0.1615E+01  0.1152E+02  0.1152E+02
      6.790  0.1633E+01  0.1633E+01  0.1163E+02  0.1162E+02
      6.853  0.1668E+01  0.1667E+01  0.1173E+02  0.1173E+02
      6.915  0.1691E+01  0.1691E+01  0.1183E+02  0.1183E+02
      6.977  0.1667E+01  0.1667E+01  0.1194E+02  0.1194E+02
      7.039  0.1638E+01  0.1638E+01  0.1204E+02  0.1204E+02
      7.101  0.1561E+01  0.1562E+01  0.1214E+02  0.1214E+02
      7.163  0.1443E+01  0.1444E+01  0.1223E+02  0.1223E+02
      7.225  0.1470E+01  0.1470E+01  0.1232E+02  0.1232E+02
      7.288  0.1678E+01  0.1676E+01  0.1242E+02  0.1242E+02
      7.350  0.1864E+01  0.1863E+01  0.1254E+02  0.1254E+02
      7.412  0.2005E+01  0.2004E+01  0.1266E+02  0.1266E+02
      7.474  0.2027E+01  0.2028E+01  0.1279E+02  0.1279E+02
      7.536  0.1893E+01  0.1894E+01  0.1291E+02  0.1291E+02
      7.598  0.1771E+01  0.1772E+01  0.1302E+02  0.1302E+02
      7.660  0.1690E+01  0.1690E+01  0.1312E+02  0.1312E+02
      7.722  0.1563E+01  0.1564E+01  0.1322E+02  0.1322E+02
      7.785  0.1490E+01  0.1490E+01  0.1331E+02  0.1331E+02
      7.847  0.1618E+01  0.1617E+01  0.1341E+02  0.1341E+02
      7.909  0.1762E+01  0.1762E+01  0.1352E+02  0.1352E+02
      7.971  0.1728E+01  0.1729E+01  0.1363E+02  0.1363E+02
      8.033  0.1678E+01  0.1678E+01  0.1373E+02  0.1373E+02
      8.095  0.1688E+01  0.1688E+01  0.1384E+02  0.1384E+02
      8.157  0.1779E+01  0.1779E+01  0.1395E+02  0.1395E+02
      8.219  0.1952E+01  0.1950E+01  0.1407E+02  0.1407E+02
      8.282  0.2149E+01  0.2148E+01  0.1420E+02  0.1420E+02
      8.344  0.2179E+01  0.2180E+01  0.1434E+02  0.1434E+02
      8.406  0.1960E+01  0.1962E+01  0.1446E+02  0.1446E+02
      8.468  0.1725E+01  0.1726E+01  0.1457E+02  0.1457E+02
      8.530  0.1642E+01  0.1642E+01  0.1467E+02  0.1467E+02
      8.592  0.1764E+01  0.1763E+01  0.1478E+02  0.1478E+02
      8.654  0.1949E+01  0.1949E+01  0.1490E+02  0.1490E+02
      8.717  0.2001E+01  0.2002E+01  0.1503E+02  0.1502E+02
      8.779  0.1971E+01  0.1971E+01  0.1515E+02  0.1515E+02
      8.841  0.1986E+01  0.1986E+01  0.1527E+02  0.1527E+02
      8.903  0.1921E+01  0.1921E+01  0.1539E+02  0.1539E+02
      8.965  0.1759E+01  0.1760E+01  0.1550E+02  0.1550E+02
      9.027  0.1679E+01  0.1679E+01  0.1561E+02  0.1560E+02
      9.089  0.1739E+01  0.1739E+01  0.1571E+02  0.1571E+02
      9.151  0.1789E+01  0.1790E+01  0.1582E+02  0.1582E+02
      9.214  0.1684E+01  0.1684E+01  0.1593E+02  0.1593E+02
      9.276  0.1597E+01  0.1597E+01  0.1603E+02  0.1603E+02
      9.338  0.1636E+01  0.1635E+01  0.1613E+02  0.1613E+02
      9.400  0.1742E+01  0.1740E+01  0.1624E+02  0.1624E+02
      9.462  0.1951E+01  0.1949E+01  0.1636E+02  0.1636E+02
      9.524  0.2260E+01  0.2258E+01  0.1650E+02  0.1650E+02
      9.586  0.2478E+01  0.2477E+01  0.1665E+02  0.1665E+02
      9.648  0.2508E+01  0.2508E+01  0.1681E+02  0.1681E+02
      9.711  0.2404E+01  0.2406E+01  0.1696E+02  0.1696E+02
      9.773  0.2107E+01  0.2110E+01  0.1709E+02  0.1709E+02
      9.835  0.1773E+01  0.1775E+01  0.1720E+02  0.1720E+02
      9.897  0.1691E+01  0.1691E+01  0.1731E+02  0.1731E+02
      9.959  0.1805E+01  0.1804E+01  0.1742E+02  0.1742E+02
     10.021  0.1903E+01  0.1903E+01  0.1754E+02  0.1754E+02
     10.083  0.1862E+01  0.1863E+01  0.1765E+02  0.1765E+02
     10.145  0.1709E+01  0.1710E+01  0.1776E+02  0.1776E+02
     10.208  0.1664E+01  0.1664E+01  0.1786E+02  0.1786E+02
     10.270  0.1788E+01  0.1787E+01  0.1797E+02  0.1797E+02
     10.332  0.1864E+01  0.1864E+01  0.1809E+02  0.1809E+02
     10.394  0.1795E+01  0.1796E+01  0.1820E+02  0.1820E+02
     10.456  0.1748E+01  0.1749E+01  0.1831E+02  0.1831E+02
     10.518  0.1781E+01  0.1782E+01  0.1842E+02  0.1842E+02
     10.580  0.1862E+01  0.1868E+01  0.1854E+02  0.1854E+02
     10.643  0.1760E+01  0.1772E+01  0.1865E+02  0.1865E+02
     10.705  0.1458E+01  0.1473E+01  0.1874E+02  0.1874E+02
     10.767  0.1220E+01  0.1220E+01  0.1881E+02  0.1881E+02
     10.829  0.1207E+01  0.1188E+01  0.1889E+02  0.1889E+02
     10.891  0.1437E+01  0.1418E+01  0.1898E+02  0.1898E+02
     10.953  0.1661E+01  0.1641E+01  0.1908E+02  0.1908E+02
     11.015  0.1514E+01  0.1505E+01  0.1917E+02  0.1917E+02
     11.077  0.1107E+01  0.1120E+01  0.1924E+02  0.1924E+02
     11.140  0.8070E+00  0.8154E+00  0.1929E+02  0.1929E+02
     11.202  0.7707E+00  0.7469E+00  0.1934E+02  0.1934E+02
     11.264  0.8354E+00  0.7901E+00  0.1939E+02  0.1939E+02
     11.326  0.8056E+00  0.8040E+00  0.1944E+02  0.1944E+02
     11.388  0.7318E+00  0.7713E+00  0.1949E+02  0.1948E+02
     11.450  0.6969E+00  0.7274E+00  0.1953E+02  0.1953E+02
     11.512  0.6600E+00  0.6745E+00  0.1957E+02  0.1957E+02
     11.574  0.5815E+00  0.5876E+00  0.1961E+02  0.1961E+02
     11.637  0.4902E+00  0.4895E+00  0.1964E+02  0.1964E+02
     11.699  0.4389E+00  0.4335E+00  0.1967E+02  0.1967E+02
     11.761  0.3751E+00  0.3616E+00  0.1969E+02  0.1969E+02
     11.823  0.3150E+00  0.2883E+00  0.1971E+02  0.1971E+02
     11.885  0.2992E+00  0.2733E+00  0.1973E+02  0.1972E+02
     11.947  0.2967E+00  0.2943E+00  0.1975E+02  0.1974E+02
     12.009  0.3182E+00  0.3414E+00  0.1977E+02  0.1976E+02
     12.072  0.3369E+00  0.3653E+00  0.1979E+02  0.1979E+02
     12.134  0.3208E+00  0.3370E+00  0.1981E+02  0.1981E+02
     12.196  0.3208E+00  0.3277E+00  0.1983E+02  0.1983E+02
     12.258  0.3235E+00  0.3280E+00  0.1985E+02  0.1985E+02
     12.320  0.2721E+00  0.2781E+00  0.1986E+02  0.1986E+02
     12.382  0.1722E+00  0.1847E+00  0.1988E+02  0.1988E+02
     12.444  0.1188E+00  0.1323E+00  0.1988E+02  0.1988E+02
     12.506  0.1301E+00  0.1231E+00  0.1989E+02  0.1989E+02
     12.569  0.1710E+00  0.1502E+00  0.1990E+02  0.1990E+02
     12.631  0.2265E+00  0.2070E+00  0.1992E+02  0.1991E+02
     12.693  0.2385E+00  0.2132E+00  0.1993E+02  0.1993E+02
     12.755  0.2223E+00  0.1963E+00  0.1994E+02  0.1994E+02
     12.817  0.1868E+00  0.1960E+00  0.1996E+02  0.1995E+02
     12.879  0.1144E+00  0.1438E+00  0.1996E+02  0.1996E+02
     12.941  0.6040E-01  0.7732E-01  0.1997E+02  0.1997E+02
     13.003  0.4931E-01  0.5466E-01  0.1997E+02  0.1997E+02
     13.066  0.5682E-01  0.5580E-01  0.1997E+02  0.1997E+02
     13.128  0.7572E-01  0.6949E-01  0.1998E+02  0.1998E+02
     13.190  0.1100E+00  0.1028E+00  0.1998E+02  0.1998E+02
     13.252  0.1156E+00  0.1173E+00  0.1999E+02  0.1999E+02
     13.314  0.7845E-01  0.8636E-01  0.2000E+02  0.2000E+02
     13.376  0.3641E-01  0.4220E-01  0.2000E+02  0.2000E+02
     13.438  0.1278E-01  0.1522E-01  0.2000E+02  0.2000E+02
     13.501  0.3945E-02  0.4746E-02  0.2000E+02  0.2000E+02
     13.563  0.1076E-02  0.1403E-02  0.2000E+02  0.2000E+02
     13.625  0.2081E-03  0.2427E-03  0.2000E+02  0.2000E+02
     13.687  0.0000E+00  0.0000E+00  0.2000E+02  0.2000E+02
     13.749  0.0000E+00  0.0000E+00  0.2000E+02  0.2000E+02
     13.811  0.0000E+00  0.0000E+00  0.2000E+02  0.2000E+02
     13.873  0.0000E+00  0.0000E+00  0.2000E+02  0.2000E+02
     13.935  0.0000E+00  0.0000E+00  0.2000E+02  0.2000E+02
     13.998  0.0000E+00  0.0000E+00  0.2000E+02  0.2000E+02
     14.060  0.0000E+00  0.0000E+00  0.2000E+02  0.2000E+02
     14.122  0.0000E+00  0.0000E+00  0.2000E+02  0.2000E+02
     14.12180866     -4.51714071  301      6.40298666      1.00000000
     -4.517  0.0000E+00  0.0000E+00  0.0000E+00  0.0000E+00  0.0000E+00  0.0000E+00  0.0000E+00  0.0000E+00  0.0000E+00  0.0000E+00  0.0000E+00  0.0000E+00  0.0000E+00  0.0000E+00  0.0000E+00  0.0000E+00  0.0000E+00  0.0000E+00
     -4.455  0.0000E+00  0.0000E+00  0.0000E+00  0.0000E+00  0.0000E+00  0.0000E+00  0.0000E+00  0.0000E+00  0.0000E+00  0.0000E+00  0.0000E+00  0.0000E+00  0.0000E+00  0.0000E+00  0.0000E+00  0.0000E+00  0.0000E+00  0.0000E+00
     -4.393  0.0000E+00  0.0000E+00  0.0000E+00  0.0000E+00  0.0000E+00  0.0000E+00  0.0000E+00  0.0000E+00  0.0000E+00  0.0000E+00  0.0000E+00  0.0000E+00  0.0000E+00  0.0000E+00  0.0000E+00  0.0000E+00  0.0000E+00  0.0000E+00
     -4.331  0.0000E+00  0.0000E+00  0.0000E+00  0.0000E+00  0.0000E+00  0.0000E+00  0.0000E+00  0.0000E+00  0.0000E+00  0.0000E+00  0.0000E+00  0.0000E+00  0.0000E+00  0.0000E+00  0.0000E+00  0.0000E+00  0.0000E+00  0.0000E+00
     -4.269  0.0000E+00  0.0000E+00  0.0000E+00  0.0000E+00  0.0000E+00  0.0000E+00  0.0000E+00  0.0000E+00  0.0000E+00  0.0000E+00  0.0000E+00  0.0000E+00  0.0000E+00  0.0000E+00  0.0000E+00  0.0000E+00  0.0000E+00  0.0000E+00
     -4.206  0.0000E+00  0.0000E+00  0.0000E+00  0.0000E+00  0.0000E+00  0.0000E+00  0.0000E+00  0.0000E+00  0.0000E+00  0.0000E+00  0.0000E+00  0.0000E+00  0.0000E+00  0.0000E+00  0.0000E+00  0.0000E+00  0.0000E+00  0.0000E+00
     -4.144  0.0000E+00  0.0000E+00  0.0000E+00  0.0000E+00  0.0000E+00  0.0000E+00  0.0000E+00  0.0000E+00  0.0000E+00  0.0000E+00  0.0000E+00  0.0000E+00  0.0000E+00  0.0000E+00  0.0000E+00  0.0000E+00  0.0000E+00  0.0000E+00
     -4.082  0.1128E-06  0.1119E-06  0.3708E-21  0.8054E-21  0.2844E-09  0.2822E-09  0.3708E-21  0.8054E-21  0.1038E-21  0.1145E-21  0.4895E-22  0.1051E-21  0.5094E-12  0.5038E-12  0.4895E-22  0.1051E-21  0.7276E-22  0.1625E-21
     -4.020  0.9382E-06  0.9313E-06  0.2341E-08  0.2323E-08  0.2107E-08  0.2090E-08  0.2341E-08  0.2323E-08  0.2151E-11  0.2137E-11  0.2033E-11  0.2018E-11  0.9193E-11  0.9103E-11  0.2033E-11  0.2018E-11  0.1545E-11  0.1533E-11
     -3.958  0.2950E-05  0.2928E-05  0.7697E-08  0.7637E-08  0.8729E-08  0.8661E-08  0.7697E-08  0.7637E-08  0.1174E-10  0.1166E-10  0.1006E-10  0.9988E-11  0.2780E-10  0.2753E-10  0.1006E-10  0.9988E-11  0.3804E-11  0.3776E-11
     -3.896  0.1022E-04  0.1015E-04  0.2744E-07  0.2723E-07  0.3280E-07  0.3254E-07  0.2744E-07  0.2723E-07  0.3420E-10  0.3397E-10  0.3773E-10  0.3745E-10  0.1022E-09  0.1012E-09  0.3773E-10  0.3745E-10  0.2115E-10  0.2099E-10
     -3.834  0.3572E-04  0.3547E-04  0.1058E-06  0.1050E-06  0.1169E-06  0.1160E-06  0.1058E-06  0.1050E-06  0.1574E-09  0.1564E-09  0.1576E-09  0.1564E-09  0.3805E-09  0.3770E-09  0.1576E-09  0.1564E-09  0.9678E-10  0.9606E-10
     -3.772  0.1188E-03  0.1179E-03  0.3642E-06  0.3615E-06  0.3943E-06  0.3913E-06  0.3642E-06  0.3615E-06  0.6006E-09  0.5968E-09  0.5540E-09  0.5499E-09  0.1283E-08  0.1272E-08  0.5540E-09  0.5499E-09  0.3288E-09  0.3264E-09
     -3.709  0.3629E-03  0.3607E-03  0.1180E-05  0.1172E-05  0.1291E-05  0.1281E-05  0.1180E-05  0.1172E-05  0.1965E-08  0.1953E-08  0.1876E-08  0.1863E-08  0.4021E-08  0.3988E-08  0.1876E-08  0.1863E-08  0.1076E-08  0.1069E-08
     -3.647  0.9261E-03  0.9218E-03  0.3478E-05  0.3457E-05  0.3807E-05  0.3783E-05  0.3478E-05  0.3457E-05  0.6431E-08  0.6394E-08  0.6159E-08  0.6118E-08  0.1108E-07  0.1101E-07  0.6159E-08  0.6118E-08  0.3321E-08  0.3300E-08
     -3.585  0.1778E-02  0.1773E-02  0.8309E-05  0.8268E-05  0.9167E-05  0.9120E-05  0.8309E-05  0.8268E-05  0.1776E-07  0.1768E-07  0.1690E-07  0.1680E-07  0.2465E-07  0.2452E-07  0.1690E-07  0.1680E-07  0.9141E-08  0.9089E-08
     -3.523  0.2589E-02  0.2585E-02  0.1609E-04  0.1603E-04  0.1829E-04  0.1821E-04  0.1609E-04  0.1603E-04  0.4098E-07  0.4083E-07  0.3983E-07  0.3964E-07  0.4682E-07  0.4663E-07  0.3983E-07  0.3964E-07  0.2330E-07  0.2318E-07
     -3.461  0.3345E-02  0.3341E-02  0.2829E-04  0.2819E-04  0.3140E-04  0.3130E-04  0.2829E-04  0.2819E-04  0.8569E-07  0.8539E-07  0.8370E-07  0.8336E-07  0.8413E-07  0.8386E-07  0.8370E-07  0.8336E-07  0.5268E-07  0.5247E-07
     -3.399  0.4109E-02  0.4106E-02  0.4424E-04  0.4413E-04  0.4583E-04  0.4572E-04  0.4424E-04  0.4413E-04  0.1654E-06  0.1650E-06  0.1541E-06  0.1537E-06  0.1342E-06  0.1340E-06  0.1541E-06  0.1537E-06  0.8993E-07  0.8976E-07
     -3.337  0.4350E-02  0.4350E-02  0.5577E-04  0.5568E-04  0.6074E-04  0.6060E-04  0.5577E-04  0.5568E-04  0.2578E-06  0.2574E-06  0.2452E-06  0.2446E-06  0.1834E-06  0.1831E-06  0.2452E-06  0.2446E-06  0.1213E-06  0.1212E-06
     -3.275  0.4566E-02  0.4563E-02  0.6928E-04  0.6912E-04  0.8612E-04  0.8588E-04  0.6928E-04  0.6912E-04  0.3862E-06  0.3854E-06  0.3816E-06  0.3808E-06  0.2716E-06  0.2709E-06  0.3816E-06  0.3808E-06  0.1810E-06  0.1805E-06
     -3.212  0.5248E-02  0.5244E-02  0.9522E-04  0.9500E-04  0.1129E-03  0.1127E-03  0.9522E-04  0.9500E-04  0.5780E-06  0.5772E-06  0.5479E-06  0.5472E-06  0.4281E-06  0.4272E-06  0.5479E-06  0.5472E-06  0.3207E-06  0.3197E-06
     -3.150  0.5634E-02  0.5633E-02  0.1226E-03  0.1224E-03  0.1234E-03  0.1232E-03  0.1226E-03  0.1224E-03  0.7656E-06  0.7649E-06  0.7217E-06  0.7206E-06  0.5734E-06  0.5729E-06  0.7217E-06  0.7206E-06  0.5094E-06  0.5086E-06
     -3.088  0.5819E-02  0.5818E-02  0.1441E-03  0.1439E-03  0.1440E-03  0.1437E-03  0.1441E-03  0.1439E-03  0.1020E-05  0.1019E-05  0.1033E-05  0.1032E-05  0.6693E-06  0.6689E-06  0.1033E-05  0.1032E-05  0.6233E-06  0.6233E-06
     -3.026  0.6095E-02  0.6094E-02  0.1624E-03  0.1623E-03  0.1850E-03  0.1847E-03  0.1624E-03  0.1623E-03  0.1433E-05  0.1431E-05  0.1410E-05  0.1408E-05  0.8327E-06  0.8314E-06  0.1410E-05  0.1408E-05  0.6575E-06  0.6576E-06
     -2.964  0.6177E-02  0.6178E-02  0.1776E-03  0.1774E-03  0.2178E-03  0.2175E-03  0.1776E-03  0.1774E-03  0.1903E-05  0.1902E-05  0.1623E-05  0.1623E-05  0.1124E-05  0.1123E-05  0.1623E-05  0.1623E-05  0.7068E-06  0.7066E-06
     -2.902  0.5955E-02  0.5956E-02  0.1868E-03  0.1867E-03  0.2420E-03  0.2417E-03  0.1868E-03  0.1867E-03  0.2092E-05  0.2093E-05  0.1892E-05  0.1890E-05  0.1363E-05  0.1362E-05  0.1892E-05  0.1890E-05  0.8827E-06  0.8810E-06
     -2.840  0.6367E-02  0.6363E-02  0.2300E-03  0.2295E-03  0.2741E-03  0.2737E-03  0.2300E-03  0.2295E-03  0.2361E-05  0.2360E-05  0.2570E-05  0.2566E-05  0.1623E-05  0.1621E-05  0.2570E-05  0.2566E-05  0.1437E-05  0.1433E-05
     -2.778  0.7266E-02  0.7263E-02  0.2956E-03  0.2952E-03  0.3130E-03  0.3127E-03  0.2956E-03  0.2952E-03  0.3021E-05  0.3017E-05  0.3327E-05  0.3325E-05  0.2069E-05  0.2066E-05  0.3327E-05  0.3325E-05  0.2116E-05  0.2113E-05
     -2.715  0.7317E-02  0.7323E-02  0.3253E-03  0.3252E-03  0.3233E-03  0.3232E-03  0.3253E-03  0.3252E-03  0.3912E-05  0.3908E-05  0.3639E-05  0.3639E-05  0.2407E-05  0.2407E-05  0.3639E-05  0.3639E-05  0.2326E-05  0.2327E-05
     -2.653  0.7069E-02  0.7070E-02  0.3426E-03  0.3424E-03  0.3367E-03  0.3363E-03  0.3426E-03  0.3424E-03  0.5017E-05  0.5011E-05  0.4024E-05  0.4020E-05  0.2687E-05  0.2685E-05  0.4024E-05  0.4020E-05  0.2318E-05  0.2318E-05
     -2.591  0.7193E-02  0.7194E-02  0.3568E-03  0.3567E-03  0.4182E-03  0.4174E-03  0.3568E-03  0.3567E-03  0.5827E-05  0.5827E-05  0.4953E-05  0.4948E-05  0.3175E-05  0.3173E-05  0.4953E-05  0.4948E-05  0.2275E-05  0.2276E-05
     -2.529  0.6885E-02  0.6888E-02  0.3385E-03  0.3385E-03  0.5011E-03  0.5006E-03  0.3385E-03  0.3385E-03  0.5580E-05  0.5584E-05  0.5934E-05  0.5929E-05  0.3432E-05  0.3432E-05  0.5934E-05  0.5929E-05  0.2181E-05  0.2181E-05
     -2.467  0.6781E-02  0.6780E-02  0.3594E-03  0.3589E-03  0.5399E-03  0.5395E-03  0.3594E-03  0.3589E-03  0.5811E-05  0.5807E-05  0.7031E-05  0.7026E-05  0.3640E-05  0.3638E-05  0.7031E-05  0.7026E-05  0.2663E-05  0.2658E-05
     -2.405  0.7291E-02  0.7288E-02  0.4431E-03  0.4424E-03  0.5592E-03  0.5589E-03  0.4431E-03  0.4424E-03  0.7740E-05  0.7727E-05  0.7939E-05  0.7937E-05  0.4546E-05  0.4539E-05  0.7939E-05  0.7937E-05  0.3759E-05  0.3752E-05
     -2.343  0.7864E-02  0.7863E-02  0.5439E-03  0.5433E-03  0.5525E-03  0.5525E-03  0.5439E-03  0.5433E-03  0.1025E-04  0.1024E-04  0.8519E-05  0.8518E-05  0.5630E-05  0.5627E-05  0.8519E-05  0.8518E-05  0.5115E-05  0.5107E-05
     -2.280  0.7737E-02  0.7740E-02  0.5891E-03  0.5888E-03  0.5343E-03  0.5340E-03  0.5891E-03  0.5888E-03  0.1116E-04  0.1117E-04  0.9041E-05  0.9039E-05  0.5879E-05  0.5880E-05  0.9041E-05  0.9039E-05  0.6020E-05  0.6016E-05
     -2.218  0.7626E-02  0.7625E-02  0.6071E-03  0.6067E-03  0.6333E-03  0.6321E-03  0.6071E-03  0.6067E-03  0.1141E-04  0.1141E-04  0.1058E-04  0.1057E-04  0.6371E-05  0.6367E-05  0.1058E-04  0.1057E-04  0.6453E-05  0.6450E-05
     -2.156  0.7833E-02  0.7834E-02  0.6233E-03  0.6232E-03  0.8321E-03  0.8308E-03  0.6233E-03  0.6232E-03  0.1174E-04  0.1174E-04  0.1300E-04  0.1299E-04  0.7442E-05  0.7439E-05  0.1300E-04  0.1299E-04  0.6660E-05  0.6661E-05
     -2.094  0.7476E-02  0.7479E-02  0.6001E-03  0.6000E-03  0.9342E-03  0.9337E-03  0.6001E-03  0.6000E-03  0.1276E-04  0.1275E-04  0.1470E-04  0.1470E-04  0.7562E-05  0.7566E-05  0.1470E-04  0.1470E-04  0.5898E-05  0.5904E-05
     -2.032  0.7289E-02  0.7288E-02  0.6315E-03  0.6308E-03  0.9502E-03  0.9497E-03  0.6315E-03  0.6308E-03  0.1649E-04  0.1647E-04  0.1639E-04  0.1638E-04  0.7418E-05  0.7417E-05  0.1639E-04  0.1638E-04  0.5420E-05  0.5420E-05
     -1.970  0.7471E-02  0.7472E-02  0.6976E-03  0.6972E-03  0.1017E-02  0.1017E-02  0.6976E-03  0.6972E-03  0.2031E-04  0.2031E-04  0.1820E-04  0.1820E-04  0.8198E-05  0.8193E-05  0.1820E-04  0.1820E-04  0.5765E-05  0.5763E-05
     -1.908  0.6792E-02  0.6798E-02  0.6950E-03  0.6948E-03  0.9840E-03  0.9842E-03  0.6950E-03  0.6948E-03  0.2111E-04  0.2111E-04  0.1703E-04  0.1704E-04  0.8743E-05  0.8742E-05  0.1703E-04  0.1704E-04  0.6379E-05  0.6371E-05
     -1.846  0.6418E-02  0.6417E-02  0.7501E-03  0.7492E-03  0.9929E-03  0.9919E-03  0.7501E-03  0.7492E-03  0.2083E-04  0.2084E-04  0.1772E-04  0.1770E-04  0.9345E-05  0.9339E-05  0.1772E-04  0.1770E-04  0.8627E-05  0.8607E-05
     -1.783  0.7178E-02  0.7175E-02  0.9065E-03  0.9056E-03  0.1220E-02  0.1219E-02  0.9065E-03  0.9056E-03  0.2120E-04  0.2121E-04  0.2413E-04  0.2409E-04  0.1089E-04  0.1088E-04  0.2413E-04  0.2409E-04  0.1213E-04  0.1211E-04
     -1.721  0.7731E-02  0.7731E-02  0.1018E-02  0.1018E-02  0.1427E-02  0.1426E-02  0.1018E-02  0.1018E-02  0.2276E-04  0.2276E-04  0.3048E-04  0.3046E-04  0.1175E-04  0.1175E-04  0.3048E-04  0.3046E-04  0.1386E-04  0.1386E-04
     -1.659  0.7383E-02  0.7386E-02  0.1048E-02  0.1047E-02  0.1412E-02  0.1412E-02  0.1048E-02  0.1047E-02  0.2610E-04  0.2607E-04  0.3128E-04  0.3130E-04  0.1175E-04  0.1175E-04  0.3128E-04  0.3130E-04  0.1392E-04  0.1392E-04
     -1.597  0.6894E-02  0.6897E-02  0.1078E-02  0.1077E-02  0.1229E-02  0.1230E-02  0.1078E-02  0.1077E-02  0.3316E-04  0.3312E-04  0.2902E-04  0.2904E-04  0.1210E-04  0.1209E-04  0.2902E-04  0.2904E-04  0.1332E-04  0.1332E-04
     -1.535  0.6351E-02  0.6355E-02  0.1080E-02  0.1079E-02  0.1098E-02  0.1098E-02  0.1080E-02  0.1079E-02  0.3843E-04  0.3843E-04  0.2811E-04  0.2812E-04  0.1174E-04  0.1174E-04  0.2811E-04  0.2812E-04  0.1173E-04  0.1174E-04
     -1.473  0.5630E-02  0.5634E-02  0.1054E-02  0.1053E-02  0.1109E-02  0.1108E-02  0.1054E-02  0.1053E-02  0.3789E-04  0.3791E-04  0.2958E-04  0.2956E-04  0.1077E-04  0.1078E-04  0.2958E-04  0.2956E-04  0.1064E-04  0.1064E-04
     -1.411  0.5518E-02  0.5516E-02  0.1091E-02  0.1090E-02  0.1304E-02  0.1302E-02  0.1091E-02  0.1090E-02  0.4005E-04  0.4004E-04  0.3691E-04  0.3686E-04  0.1127E-04  0.1125E-04  0.3691E-04  0.3686E-04  0.1001E-04  0.1001E-04