   8   8   1   0
  0.2371141E+02  0.4525982E-09  0.4525982E-09  0.9260229E-09  0.5000000E-15
  1.000000000000000E-004
  CAR 
 unknown system                          
     10.40753578     -5.03014502  301      4.11088449      1.00000000
     -5.030  0.0000E+00  0.0000E+00  0.0000E+00  0.0000E+00
     -4.979  0.0000E+00  0.0000E+00  0.0000E+00  0.0000E+00
     -4.927  0.0000E+00  0.0000E+00  0.0000E+00  0.0000E+00
     -4.876  0.0000E+00  0.0000E+00  0.0000E+00  0.0000E+00
     -4.824  0.0000E+00  0.0000E+00  0.0000E+00  0.0000E+00
     -4.773  0.2266E-05  0.2235E-05  0.1166E-06  0.1150E-06
     -4.721  0.2137E-04  0.2108E-04  0.1216E-05  0.1200E-05
     -4.670  0.8638E-04  0.8519E-04  0.5661E-05  0.5584E-05
     -4.618  0.2410E-03  0.2377E-03  0.1806E-04  0.1782E-04
     -4.567  0.7149E-03  0.7052E-03  0.5485E-04  0.5410E-04
     -4.516  0.1984E-02  0.1957E-02  0.1570E-03  0.1548E-03
     -4.464  0.5385E-02  0.5313E-02  0.4341E-03  0.4282E-03
     -4.413  0.1435E-01  0.1417E-01  0.1173E-02  0.1157E-02
     -4.361  0.3535E-01  0.3495E-01  0.2992E-02  0.2956E-02
     -4.310  0.7545E-01  0.7478E-01  0.6874E-02  0.6804E-02
     -4.258  0.1320E+00  0.1312E+00  0.1366E-01  0.1355E-01
     -4.207  0.1910E+00  0.1902E+00  0.2349E-01  0.2334E-01
     -4.155  0.2485E+00  0.2478E+00  0.3628E-01  0.3609E-01
     -4.104  0.2998E+00  0.2993E+00  0.5171E-01  0.5149E-01
     -4.052  0.3304E+00  0.3301E+00  0.6872E-01  0.6848E-01
     -4.001  0.3615E+00  0.3609E+00  0.8732E-01  0.8705E-01
     -3.950  0.4066E+00  0.4060E+00  0.1082E+00  0.1079E+00
     -3.898  0.4411E+00  0.4407E+00  0.1309E+00  0.1306E+00
     -3.847  0.4662E+00  0.4659E+00  0.1549E+00  0.1546E+00
     -3.795  0.4906E+00  0.4903E+00  0.1802E+00  0.1798E+00
     -3.744  0.5034E+00  0.5033E+00  0.2061E+00  0.2058E+00
     -3.692  0.5131E+00  0.5127E+00  0.2325E+00  0.2321E+00
     -3.641  0.5567E+00  0.5559E+00  0.2612E+00  0.2608E+00
     -3.589  0.6111E+00  0.6106E+00  0.2926E+00  0.2922E+00
     -3.538  0.6263E+00  0.6263E+00  0.3249E+00  0.3244E+00
     -3.486  0.6311E+00  0.6309E+00  0.3574E+00  0.3569E+00
     -3.435  0.6418E+00  0.6418E+00  0.3904E+00  0.3899E+00
     -3.383  0.6406E+00  0.6405E+00  0.4234E+00  0.4229E+00
     -3.332  0.6591E+00  0.6586E+00  0.4573E+00  0.4568E+00
     -3.281  0.7089E+00  0.7081E+00  0.4938E+00  0.4933E+00
     -3.229  0.7510E+00  0.7507E+00  0.5325E+00  0.5319E+00
     -3.178  0.7654E+00  0.7652E+00  0.5719E+00  0.5713E+00
     -3.126  0.7913E+00  0.7908E+00  0.6126E+00  0.6120E+00
     -3.075  0.8155E+00  0.8153E+00  0.6546E+00  0.6540E+00
     -3.023  0.8118E+00  0.8118E+00  0.6964E+00  0.6958E+00
     -2.972  0.8258E+00  0.8254E+00  0.7389E+00  0.7383E+00
     -2.920  0.8355E+00  0.8356E+00  0.7819E+00  0.7813E+00
     -2.869  0.8199E+00  0.8199E+00  0.8241E+00  0.8235E+00
     -2.817  0.8646E+00  0.8633E+00  0.8686E+00  0.8680E+00
     -2.766  0.9615E+00  0.9603E+00  0.9181E+00  0.9174E+00
     -2.714  0.1008E+01  0.1008E+01  0.9700E+00  0.9693E+00
     -2.663  0.9840E+00  0.9846E+00  0.1021E+01  0.1020E+01
     -2.612  0.9420E+00  0.9426E+00  0.1069E+01  0.1069E+01
     -2.560  0.9049E+00  0.9052E+00  0.1116E+01  0.1115E+01
     -2.509  0.8986E+00  0.8982E+00  0.1162E+01  0.1161E+01
     -2.457  0.9498E+00  0.9488E+00  0.1211E+01  0.1210E+01
     -2.406  0.1005E+01  0.1004E+01  0.1263E+01  0.1262E+01
     -2.354  0.1026E+01  0.1026E+01  0.1316E+01  0.1315E+01
     -2.303  0.1026E+01  0.1027E+01  0.1368E+01  0.1368E+01
     -2.251  0.1006E+01  0.1006E+01  0.1420E+01  0.1419E+01
     -2.200  0.1009E+01  0.1009E+01  0.1472E+01  0.1471E+01
     -2.148  0.1048E+01  0.1047E+01  0.1526E+01  0.1525E+01
     -2.097  0.1023E+01  0.1024E+01  0.1579E+01  0.1578E+01
     -2.046  0.8973E+00  0.8993E+00  0.1625E+01  0.1624E+01
     -1.994  0.7990E+00  0.7999E+00  0.1666E+01  0.1666E+01
     -1.943  0.7905E+00  0.7903E+00  0.1707E+01  0.1706E+01
     -1.891  0.8337E+00  0.8327E+00  0.1750E+01  0.1749E+01
     -1.840  0.9369E+00  0.9351E+00  0.1798E+01  0.1797E+01
     -1.788  0.1065E+01  0.1064E+01  0.1853E+01  0.1852E+01
     -1.737  0.1120E+01  0.1119E+01  0.1910E+01  0.1910E+01
     -1.685  0.1141E+01  0.1140E+01  0.1969E+01  0.1968E+01
     -1.634  0.1160E+01  0.1160E+01  0.2029E+01  0.2028E+01
     -1.582  0.1125E+01  0.1126E+01  0.2087E+01  0.2086E+01
     -1.531  0.1116E+01  0.1115E+01  0.2144E+01  0.2143E+01
     -1.479  0.1183E+01  0.1182E+01  0.2205E+01  0.2204E+01
     -1.428  0.1218E+01  0.1218E+01  0.2268E+01  0.2267E+01
     -1.377  0.1213E+01  0.1213E+01  0.2330E+01  0.2329E+01
     -1.325  0.1242E+01  0.1241E+01  0.2394E+01  0.2393E+01
     -1.274  0.1256E+01  0.1256E+01  0.2459E+01  0.2458E+01
     -1.222  0.1199E+01  0.1200E+01  0.2521E+01  0.2520E+01
     -1.171  0.1125E+01  0.1126E+01  0.2579E+01  0.2578E+01
     -1.119  0.1062E+01  0.1063E+01  0.2633E+01  0.2632E+01
     -1.068  0.1034E+01  0.1034E+01  0.2686E+01  0.2686E+01
     -1.016  0.1064E+01  0.1064E+01  0.2741E+01  0.2740E+01
     -0.965  0.1098E+01  0.1098E+01  0.2798E+01  0.2797E+01
     -0.913  0.1123E+01  0.1123E+01  0.2856E+01  0.2855E+01
     -0.862  0.1144E+01  0.1144E+01  0.2914E+01  0.2914E+01
     -0.811  0.1176E+01  0.1175E+01  0.2975E+01  0.2974E+01
     -0.759  0.1275E+01  0.1273E+01  0.3041E+01  0.3040E+01
     -0.708  0.1401E+01  0.1400E+01  0.3113E+01  0.3112E+01
     -0.656  0.1420E+01  0.1421E+01  0.3186E+01  0.3185E+01
     -0.605  0.1312E+01  0.1314E+01  0.3253E+01  0.3253E+01
     -0.553  0.1213E+01  0.1213E+01  0.3316E+01  0.3315E+01
     -0.502  0.1262E+01  0.1260E+01  0.3381E+01  0.3380E+01
     -0.450  0.1450E+01  0.1447E+01  0.3455E+01  0.3454E+01
     -0.399  0.1608E+01  0.1607E+01  0.3538E+01  0.3537E+01
     -0.347  0.1582E+01  0.1584E+01  0.3620E+01  0.3619E+01
     -0.296  0.1423E+01  0.1425E+01  0.3693E+01  0.3692E+01
     -0.244  0.1292E+01  0.1293E+01  0.3760E+01  0.3759E+01
     -0.193  0.1239E+01  0.1239E+01  0.3823E+01  0.3823E+01
     -0.142  0.1236E+01  0.1236E+01  0.3887E+01  0.3886E+01
     -0.090  0.1262E+01  0.1261E+01  0.3952E+01  0.3951E+01
     -0.039  0.1306E+01  0.1305E+01  0.4019E+01  0.4018E+01
      0.013  0.1393E+01  0.1392E+01  0.4091E+01  0.4090E+01
      0.064  0.1526E+01  0.1525E+01  0.4170E+01  0.4169E+01
      0.116  0.1608E+01  0.1608E+01  0.4252E+01  0.4251E+01
      0.167  0.1608E+01  0.1608E+01  0.4335E+01  0.4334E+01
      0.219  0.1563E+01  0.1563E+01  0.4416E+01  0.4415E+01
      0.270  0.1472E+01  0.1473E+01  0.4491E+01  0.4490E+01
      0.322  0.1338E+01  0.1340E+01  0.4560E+01  0.4559E+01
      0.373  0.1214E+01  0.1215E+01  0.4623E+01  0.4622E+01
      0.425  0.1099E+01  0.1101E+01  0.4679E+01  0.4679E+01
      0.476  0.1021E+01  0.1021E+01  0.4732E+01  0.4731E+01
      0.527  0.1040E+01  0.1039E+01  0.4785E+01  0.4785E+01
      0.579  0.1151E+01  0.1149E+01  0.4845E+01  0.4844E+01
      0.630  0.1325E+01  0.1323E+01  0.4913E+01  0.4912E+01
      0.682  0.1553E+01  0.1550E+01  0.4993E+01  0.4992E+01
      0.733  0.1756E+01  0.1755E+01  0.5083E+01  0.5082E+01
      0.785  0.1799E+01  0.1800E+01  0.5176E+01  0.5175E+01
      0.836  0.1702E+01  0.1703E+01  0.5264E+01  0.5263E+01
      0.888  0.1578E+01  0.1579E+01  0.5345E+01  0.5344E+01
      0.939  0.1493E+01  0.1493E+01  0.5422E+01  0.5421E+01
      0.991  0.1421E+01  0.1422E+01  0.5495E+01  0.5494E+01
      1.042  0.1349E+01  0.1349E+01  0.5564E+01  0.5563E+01
      1.093  0.1390E+01  0.1389E+01  0.5636E+01  0.5635E+01
      1.145  0.1537E+01  0.1536E+01  0.5715E+01  0.5714E+01
      1.196  0.1652E+01  0.1652E+01  0.5800E+01  0.5799E+01
      1.248  0.1657E+01  0.1658E+01  0.5885E+01  0.5884E+01
      1.299  0.1597E+01  0.1598E+01  0.5968E+01  0.5967E+01
      1.351  0.1535E+01  0.1535E+01  0.6047E+01  0.6046E+01
      1.402  0.1472E+01  0.1473E+01  0.6123E+01  0.6122E+01
      1.454  0.1428E+01  0.1429E+01  0.6196E+01  0.6195E+01
      1.505  0.1404E+01  0.1404E+01  0.6268E+01  0.6267E+01
      1.557  0.1395E+01  0.1395E+01  0.6340E+01  0.6339E+01
      1.608  0.1413E+01  0.1413E+01  0.6413E+01  0.6412E+01
      1.660  0.1422E+01  0.1422E+01  0.6486E+01  0.6485E+01
      1.711  0.1418E+01  0.1418E+01  0.6559E+01  0.6558E+01
      1.762  0.1483E+01  0.1482E+01  0.6636E+01  0.6635E+01
      1.814  0.1619E+01  0.1617E+01  0.6719E+01  0.6718E+01
      1.865  0.1774E+01  0.1772E+01  0.6810E+01  0.6809E+01
      1.917  0.1910E+01  0.1908E+01  0.6909E+01  0.6907E+01
      1.968  0.1995E+01  0.1995E+01  0.7011E+01  0.7010E+01
      2.020  0.2000E+01  0.2000E+01  0.7114E+01  0.7113E+01
      2.071  0.1897E+01  0.1899E+01  0.7212E+01  0.7211E+01
      2.123  0.1710E+01  0.1712E+01  0.7300E+01  0.7299E+01
      2.174  0.1576E+01  0.1577E+01  0.7381E+01  0.7380E+01
      2.226  0.1615E+01  0.1614E+01  0.7464E+01  0.7463E+01
      2.277  0.1801E+01  0.1799E+01  0.7557E+01  0.7556E+01
      2.328  0.1946E+01  0.1945E+01  0.7657E+01  0.7656E+01
      2.380  0.1883E+01  0.1885E+01  0.7754E+01  0.7753E+01
      2.431  0.1735E+01  0.1737E+01  0.7844E+01  0.7842E+01
      2.483  0.1686E+01  0.1686E+01  0.7930E+01  0.7929E+01
      2.534  0.1776E+01  0.1775E+01  0.8022E+01  0.8021E+01
      2.586  0.1933E+01  0.1932E+01  0.8121E+01  0.8120E+01
      2.637  0.2008E+01  0.2008E+01  0.8225E+01  0.8223E+01
      2.689  0.2002E+01  0.2002E+01  0.8328E+01  0.8326E+01
      2.740  0.2034E+01  0.2033E+01  0.8432E+01  0.8431E+01
      2.792  0.2098E+01  0.2098E+01  0.8541E+01  0.8539E+01
      2.843  0.2074E+01  0.2076E+01  0.8647E+01  0.8646E+01
      2.895  0.1923E+01  0.1925E+01  0.8746E+01  0.8745E+01
      2.946  0.1766E+01  0.1768E+01  0.8837E+01  0.8836E+01
      2.997  0.1678E+01  0.1679E+01  0.8924E+01  0.8923E+01
      3.049  0.1642E+01  0.1643E+01  0.9008E+01  0.9007E+01
      3.100  0.1621E+01  0.1621E+01  0.9092E+01  0.9091E+01
      3.152  0.1618E+01  0.1617E+01  0.9175E+01  0.9174E+01
      3.203  0.1666E+01  0.1665E+01  0.9261E+01  0.9260E+01
      3.255  0.1808E+01  0.1806E+01  0.9354E+01  0.9353E+01
      3.306  0.2057E+01  0.2054E+01  0.9460E+01  0.9458E+01
      3.358  0.2234E+01  0.2233E+01  0.9575E+01  0.9573E+01
      3.409  0.2199E+01  0.2200E+01  0.9688E+01  0.9687E+01
      3.461  0.2076E+01  0.2077E+01  0.9795E+01  0.9794E+01
      3.512  0.2012E+01  0.2013E+01  0.9898E+01  0.9897E+01
      3.563  0.2014E+01  0.2014E+01  0.1000E+02  0.1000E+02
      3.615  0.2015E+01  0.2015E+01  0.1011E+02  0.1010E+02
      3.666  0.1945E+01  0.1946E+01  0.1021E+02  0.1020E+02
      3.718  0.1831E+01  0.1832E+01  0.1030E+02  0.1030E+02
      3.769  0.1765E+01  0.1765E+01  0.1039E+02  0.1039E+02
      3.821  0.1738E+01  0.1739E+01  0.1048E+02  0.1048E+02
      3.872  0.1725E+01  0.1725E+01  0.1057E+02  0.1057E+02
      3.924  0.1760E+01  0.1760E+01  0.1066E+02  0.1066E+02
      3.975  0.1806E+01  0.1806E+01  0.1075E+02  0.1075E+02
      4.027  0.1796E+01  0.1797E+01  0.1085E+02  0.1084E+02
      4.078  0.1807E+01  0.1806E+01  0.1094E+02  0.1094E+02
      4.130  0.1910E+01  0.1908E+01  0.1104E+02  0.1104E+02
      4.181  0.2015E+01  0.2014E+01  0.1114E+02  0.1114E+02
      4.232  0.2046E+01  0.2045E+01  0.1125E+02  0.1124E+02
      4.284  0.2078E+01  0.2077E+01  0.1135E+02  0.1135E+02
      4.335  0.2181E+01  0.2180E+01  0.1147E+02  0.1146E+02
      4.387  0.2252E+01  0.2252E+01  0.1158E+02  0.1158E+02
      4.438  0.2163E+01  0.2166E+01  0.1169E+02  0.1169E+02
      4.490  0.2014E+01  0.2016E+01  0.1180E+02  0.1180E+02
      4.541  0.1991E+01  0.1991E+01  0.1190E+02  0.1190E+02
      4.593  0.2040E+01  0.2039E+01  0.1200E+02  0.1200E+02
      4.644  0.2065E+01  0.2065E+01  0.1211E+02  0.1211E+02
      4.696  0.2060E+01  0.2060E+01  0.1222E+02  0.1222E+02
      4.747  0.1997E+01  0.1998E+01  0.1232E+02  0.1232E+02
      4.799  0.1941E+01  0.1942E+01  0.1242E+02  0.1242E+02
      4.850  0.1992E+01  0.1991E+01  0.1252E+02  0.1252E+02
      4.901  0.2116E+01  0.2114E+01  0.1263E+02  0.1263E+02
      4.953  0.2184E+01  0.2184E+01  0.1274E+02  0.1274E+02
      5.004  0.2170E+01  0.2171E+01  0.1285E+02  0.1285E+02
      5.056  0.2147E+01  0.2147E+01  0.1297E+02  0.1296E+02
      5.107  0.2118E+01  0.2118E+01  0.1307E+02  0.1307E+02
      5.159  0.2032E+01  0.2033E+01  0.1318E+02  0.1318E+02
      5.210  0.1911E+01  0.1913E+01  0.1328E+02  0.1328E+02
      5.262  0.1854E+01  0.1853E+01  0.1337E+02  0.1337E+02
      5.313  0.1974E+01  0.1972E+01  0.1347E+02  0.1347E+02
      5.365  0.2185E+01  0.2182E+01  0.1359E+02  0.1359E+02
      5.416  0.2302E+01  0.2302E+01  0.1371E+02  0.1370E+02
      5.467  0.2355E+01  0.2354E+01  0.1383E+02  0.1383E+02
      5.519  0.2399E+01  0.2398E+01  0.1395E+02  0.1395E+02
      5.570  0.2336E+01  0.2338E+01  0.1407E+02  0.1407E+02
      5.622  0.2225E+01  0.2226E+01  0.1419E+02  0.1418E+02
      5.673  0.2190E+01  0.2190E+01  0.1430E+02  0.1430E+02
      5.725  0.2165E+01  0.2166E+01  0.1441E+02  0.1441E+02
      5.776  0.2114E+01  0.2115E+01  0.1452E+02  0.1452E+02
      5.828  0.2070E+01  0.2071E+01  0.1462E+02  0.1462E+02
      5.879  0.2054E+01  0.2054E+01  0.1473E+02  0.1473E+02
      5.931  0.2090E+01  0.2088E+01  0.1484E+02  0.1484E+02
      5.982  0.2249E+01  0.2246E+01  0.1495E+02  0.1495E+02
      6.034  0.2493E+01  0.2490E+01  0.1508E+02  0.1508E+02
      6.085  0.2589E+01  0.2589E+01  0.1522E+02  0.1521E+02
      6.136  0.2409E+01  0.2413E+01  0.1534E+02  0.1534E+02
      6.188  0.2152E+01  0.2155E+01  0.1545E+02  0.1545E+02
      6.239  0.2006E+01  0.2007E+01  0.1555E+02  0.1555E+02
      6.291  0.1940E+01  0.1940E+01  0.1565E+02  0.1565E+02
      6.342  0.1917E+01  0.1916E+01  0.1575E+02  0.1575E+02
      6.394  0.2039E+01  0.2036E+01  0.1586E+02  0.1586E+02
      6.445  0.2307E+01  0.2303E+01  0.1598E+02  0.1597E+02
      6.497  0.2551E+01  0.2548E+01  0.1611E+02  0.1611E+02
      6.548  0.2695E+01  0.2694E+01  0.1625E+02  0.1624E+02
      6.600  0.2718E+01  0.2718E+01  0.1639E+02  0.1638E+02
      6.651  0.2621E+01  0.2623E+01  0.1652E+02  0.1652E+02
      6.702  0.2482E+01  0.2484E+01  0.1665E+02  0.1665E+02
      6.754  0.2419E+01  0.2420E+01  0.1677E+02  0.1677E+02
      6.805  0.2452E+01  0.2451E+01  0.1690E+02  0.1690E+02
      6.857  0.2517E+01  0.2516E+01  0.1703E+02  0.1703E+02
      6.908  0.2513E+01  0.2514E+01  0.1716E+02  0.1716E+02
      6.960  0.2382E+01  0.2384E+01  0.1728E+02  0.1728E+02
      7.011  0.2225E+01  0.2226E+01  0.1740E+02  0.1739E+02
      7.063  0.2187E+01  0.2187E+01  0.1751E+02  0.1751E+02
      7.114  0.2226E+01  0.2227E+01  0.1762E+02  0.1762E+02
      7.166  0.2203E+01  0.2205E+01  0.1774E+02  0.1774E+02
      7.217  0.2134E+01  0.2137E+01  0.1785E+02  0.1785E+02
      7.269  0.2123E+01  0.2127E+01  0.1796E+02  0.1795E+02
      7.320  0.2201E+01  0.2205E+01  0.1807E+02  0.1807E+02
      7.371  0.2274E+01  0.2274E+01  0.1819E+02  0.1819E+02
      7.423  0.2307E+01  0.2298E+01  0.1830E+02  0.1830E+02
      7.474  0.2292E+01  0.2279E+01  0.1842E+02  0.1842E+02
      7.526  0.2244E+01  0.2227E+01  0.1854E+02  0.1854E+02
      7.577  0.2181E+01  0.2162E+01  0.1865E+02  0.1865E+02
      7.629  0.2130E+01  0.2124E+01  0.1876E+02  0.1876E+02
      7.680  0.2094E+01  0.2112E+01  0.1887E+02  0.1887E+02
      7.732  0.1954E+01  0.1987E+01  0.1897E+02  0.1897E+02
      7.783  0.1714E+01  0.1742E+01  0.1906E+02  0.1906E+02
      7.835  0.1460E+01  0.1477E+01  0.1913E+02  0.1913E+02
      7.886  0.1213E+01  0.1214E+01  0.1919E+02  0.1920E+02
      7.938  0.1028E+01  0.1018E+01  0.1925E+02  0.1925E+02
      7.989  0.9380E+00  0.9357E+00  0.1930E+02  0.1930E+02
      8.040  0.9210E+00  0.9330E+00  0.1934E+02  0.1934E+02
      8.092  0.9966E+00  0.1003E+01  0.1940E+02  0.1940E+02
      8.143  0.1127E+01  0.1115E+01  0.1945E+02  0.1945E+02
      8.195  0.1185E+01  0.1163E+01  0.1951E+02  0.1951E+02
      8.246  0.1077E+01  0.1053E+01  0.1957E+02  0.1957E+02
      8.298  0.8493E+00  0.8399E+00  0.1961E+02  0.1961E+02
      8.349  0.6422E+00  0.6548E+00  0.1965E+02  0.1964E+02
      8.401  0.5049E+00  0.5226E+00  0.1967E+02  0.1967E+02
      8.452  0.4043E+00  0.4139E+00  0.1969E+02  0.1969E+02
      8.504  0.3543E+00  0.3566E+00  0.1971E+02  0.1971E+02
      8.555  0.3598E+00  0.3576E+00  0.1973E+02  0.1973E+02
      8.606  0.3964E+00  0.3963E+00  0.1975E+02  0.1975E+02
      8.658  0.4327E+00  0.4366E+00  0.1977E+02  0.1977E+02
      8.709  0.4478E+00  0.4444E+00  0.1980E+02  0.1980E+02
      8.761  0.4412E+00  0.4271E+00  0.1982E+02  0.1982E+02
      8.812  0.4000E+00  0.3831E+00  0.1984E+02  0.1984E+02
      8.864  0.3296E+00  0.3240E+00  0.1986E+02  0.1985E+02
      8.915  0.2564E+00  0.2631E+00  0.1987E+02  0.1987E+02
      8.967  0.2017E+00  0.2074E+00  0.1988E+02  0.1988E+02
      9.018  0.1864E+00  0.1902E+00  0.1989E+02  0.1989E+02
      9.070  0.2123E+00  0.2183E+00  0.1990E+02  0.1990E+02
      9.121  0.2647E+00  0.2690E+00  0.1991E+02  0.1991E+02
      9.173  0.2845E+00  0.2838E+00  0.1993E+02  0.1993E+02
      9.224  0.2367E+00  0.2303E+00  0.1994E+02  0.1994E+02
      9.275  0.1782E+00  0.1701E+00  0.1995E+02  0.1995E+02
      9.327  0.1397E+00  0.1411E+00  0.1996E+02  0.1996E+02
      9.378  0.1021E+00  0.1115E+00  0.1996E+02  0.1996E+02
      9.430  0.7113E-01  0.7731E-01  0.1997E+02  0.1997E+02
      9.481  0.6774E-01  0.6679E-01  0.1997E+02  0.1997E+02
      9.533  0.9235E-01  0.8506E-01  0.1997E+02  0.1997E+02
      9.584  0.1242E+00  0.1158E+00  0.1998E+02  0.1998E+02
      9.636  0.1322E+00  0.1330E+00  0.1999E+02  0.1999E+02
      9.687  0.1065E+00  0.1157E+00  0.1999E+02  0.1999E+02
      9.739  0.7076E-01  0.7910E-01  0.2000E+02  0.2000E+02
      9.790  0.3878E-01  0.4380E-01  0.2000E+02  0.2000E+02
      9.841  0.1741E-01  0.1981E-01  0.2000E+02  0.2000E+02
      9.893  0.6862E-02  0.7842E-02  0.2000E+02  0.2000E+02
      9.944  0.2498E-02  0.2865E-02  0.2000E+02  0.2000E+02
      9.996  0.9053E-03  0.1039E-02  0.2000E+02  0.2000E+02
     10.047  0.2341E-03  0.2545E-03  0.2000E+02  0.2000E+02
     10.099  0.8386E-04  0.9116E-04  0.2000E+02  0.2000E+02
     10.150  0.0000E+00  0.0000E+00  0.2000E+02  0.2000E+02
     10.202  0.0000E+00  0.0000E+00  0.2000E+02  0.2000E+02
     10.253  0.0000E+00  0.0000E+00  0.2000E+02  0.2000E+02
     10.305  0.0000E+00  0.0000E+00  0.2000E+02  0.2000E+02
     10.356  0.0000E+00  0.0000E+00  0.2000E+02  0.2000E+02
     10.408  0.0000E+00  0.0000E+00  0.2000E+02  0.2000E+02
     10.40753578     -5.03014502  301      4.11088449      1.00000000
     -5.030  0.0000E+00  0.0000E+00  0.0000E+00  0.0000E+00  0.0000E+00  0.0000E+00  0.0000E+00  0.0000E+00  0.0000E+00  0.0000E+00  0.0000E+00  0.0000E+00  0.0000E+00  0.0000E+00  0.0000E+00  0.0000E+00  0.0000E+00  0.0000E+00
     -4.979  0.0000E+00  0.0000E+00  0.0000E+00  0.0000E+00  0.0000E+00  0.0000E+00  0.0000E+00  0.0000E+00  0.0000E+00  0.0000E+00  0.0000E+00  0.0000E+00  0.0000E+00  0.0000E+00  0.0000E+00  0.0000E+00  0.0000E+00  0.0000E+00
     -4.927  0.0000E+00  0.0000E+00  0.0000E+00  0.0000E+00  0.0000E+00  0.0000E+00  0.0000E+00  0.0000E+00  0.0000E+00  0.0000E+00  0.0000E+00  0.0000E+00  0.0000E+00  0.0000E+00  0.0000E+00  0.0000E+00  0.0000E+00  0.0000E+00
     -4.876  0.0000E+00  0.0000E+00  0.0000E+00  0.0000E+00  0.0000E+00  0.0000E+00  0.0000E+00  0.0000E+00  0.0000E+00  0.0000E+00  0.0000E+00  0.0000E+00  0.0000E+00  0.0000E+00  0.0000E+00  0.0000E+00  0.0000E+00  0.0000E+00
     -4.824  0.0000E+00  0.0000E+00  0.0000E+00  0.0000E+00  0.0000E+00  0.0000E+00  0.0000E+00  0.0000E+00  0.0000E+00  0.0000E+00  0.0000E+00  0.0000E+00  0.0000E+00  0.0000E+00  0.0000E+00  0.0000E+00  0.0000E+00  0.0000E+00
     -4.773  0.2846E-07  0.2809E-07  0.3833E-21  0.1964E-20  0.7664E-21  0.7699E-21  0.3833E-21  0.1964E-20  0.2149E-21  0.8685E-22  0.1536E-21  0.8267E-22  0.1110E-12  0.1057E-12  0.1536E-21  0.8267E-22  0.3730E-21  0.4413E-22
     -4.721  0.2665E-06  0.2631E-06  0.3513E-09  0.3465E-09  0.3657E-09  0.3605E-09  0.3513E-09  0.3465E-09  0.1784E-20  0.7613E-20  0.1671E-20  0.8475E-21  0.1323E-11  0.1268E-11  0.1671E-20  0.8475E-21  0.2579E-12  0.2547E-12
     -4.670  0.1072E-05  0.1058E-05  0.2458E-08  0.2424E-08  0.2416E-08  0.2382E-08  0.2458E-08  0.2424E-08  0.2549E-11  0.2524E-11  0.2296E-11  0.2265E-11  0.5598E-11  0.5371E-11  0.2296E-11  0.2265E-11  0.1181E-11  0.1166E-11
     -4.618  0.2986E-05  0.2947E-05  0.7409E-08  0.7307E-08  0.8573E-08  0.8452E-08  0.7409E-08  0.7307E-08  0.1175E-10  0.1163E-10  0.9674E-11  0.9542E-11  0.1604E-10  0.1543E-10  0.9674E-11  0.9542E-11  0.2585E-11  0.2554E-11
     -4.567  0.8835E-05  0.8721E-05  0.2690E-07  0.2653E-07  0.2851E-07  0.2811E-07  0.2690E-07  0.2653E-07  0.3852E-10  0.3812E-10  0.3647E-10  0.3598E-10  0.6311E-10  0.6104E-10  0.3647E-10  0.3598E-10  0.2576E-10  0.2543E-10
     -4.516  0.2451E-04  0.2420E-04  0.7620E-07  0.7515E-07  0.8247E-07  0.8131E-07  0.7620E-07  0.7515E-07  0.1382E-09  0.1367E-09  0.1267E-09  0.1250E-09  0.1692E-09  0.1636E-09  0.1267E-09  0.1250E-09  0.6310E-10  0.6231E-10
     -4.464  0.6652E-04  0.6569E-04  0.2040E-06  0.2012E-06  0.2242E-06  0.2211E-06  0.2040E-06  0.2012E-06  0.3416E-09  0.3381E-09  0.3362E-09  0.3317E-09  0.4579E-09  0.4428E-09  0.3362E-09  0.3317E-09  0.1726E-09  0.1704E-09
     -4.413  0.1772E-03  0.1751E-03  0.5653E-06  0.5578E-06  0.6259E-06  0.6174E-06  0.5653E-06  0.5578E-06  0.1025E-08  0.1015E-08  0.9909E-09  0.9774E-09  0.1268E-08  0.1227E-08  0.9909E-09  0.9774E-09  0.4773E-09  0.4714E-09
     -4.361  0.4359E-03  0.4313E-03  0.1490E-05  0.1472E-05  0.1633E-05  0.1612E-05  0.1490E-05  0.1472E-05  0.2827E-08  0.2798E-08  0.2669E-08  0.2634E-08  0.3301E-08  0.3202E-08  0.2669E-08  0.2634E-08  0.1334E-08  0.1318E-08
     -4.310  0.9282E-03  0.9207E-03  0.3587E-05  0.3548E-05  0.3914E-05  0.3870E-05  0.3587E-05  0.3548E-05  0.7310E-08  0.7242E-08  0.6835E-08  0.6750E-08  0.7739E-08  0.7532E-08  0.6835E-08  0.6750E-08  0.3462E-08  0.3422E-08
     -4.258  0.1616E-02  0.1608E-02  0.7531E-05  0.7463E-05  0.8333E-05  0.8254E-05  0.7531E-05  0.7463E-05  0.1722E-07  0.1708E-07  0.1646E-07  0.1627E-07  0.1602E-07  0.1565E-07  0.1646E-07  0.1627E-07  0.8194E-08  0.8106E-08
     -4.207  0.2324E-02  0.2316E-02  0.1380E-04  0.1370E-04  0.1536E-04  0.1524E-04  0.1380E-04  0.1370E-04  0.3645E-07  0.3620E-07  0.3485E-07  0.3451E-07  0.3009E-07  0.2954E-07  0.3485E-07  0.3451E-07  0.1817E-07  0.1800E-07
     -4.155  0.2997E-02  0.2990E-02  0.2294E-04  0.2280E-04  0.2499E-04  0.2484E-04  0.2294E-04  0.2280E-04  0.7121E-07  0.7076E-07  0.6738E-07  0.6679E-07  0.5236E-07  0.5158E-07  0.6738E-07  0.6679E-07  0.3553E-07  0.3525E-07
     -4.104  0.3583E-02  0.3579E-02  0.3386E-04  0.3371E-04  0.3611E-04  0.3594E-04  0.3386E-04  0.3371E-04  0.1253E-06  0.1247E-06  0.1171E-06  0.1162E-06  0.8177E-07  0.8079E-07  0.1171E-06  0.1162E-06  0.5777E-07  0.5741E-07
     -4.052  0.3906E-02  0.3906E-02  0.4408E-04  0.4394E-04  0.4922E-04  0.4899E-04  0.4408E-04  0.4394E-04  0.1960E-06  0.1951E-06  0.1859E-06  0.1845E-06  0.1191E-06  0.1178E-06  0.1859E-06  0.1845E-06  0.8438E-07  0.8378E-07
     -4.001  0.4218E-02  0.4215E-02  0.5662E-04  0.5640E-04  0.6698E-04  0.6669E-04  0.5662E-04  0.5640E-04  0.2928E-06  0.2915E-06  0.2805E-06  0.2786E-06  0.1785E-06  0.1768E-06  0.2805E-06  0.2786E-06  0.1302E-06  0.1289E-06
     -3.950  0.4688E-02  0.4684E-02  0.7476E-04  0.7448E-04  0.8440E-04  0.8416E-04  0.7476E-04  0.7448E-04  0.4213E-06  0.4197E-06  0.3962E-06  0.3938E-06  0.2620E-06  0.2599E-06  0.3962E-06  0.3938E-06  0.2103E-06  0.2083E-06
     -3.898  0.5027E-02  0.5027E-02  0.9404E-04  0.9378E-04  0.9724E-04  0.9701E-04  0.9404E-04  0.9378E-04  0.5698E-06  0.5679E-06  0.5399E-06  0.5366E-06  0.3440E-06  0.3419E-06  0.5399E-06  0.5366E-06  0.3052E-06  0.3030E-06
     -3.847  0.5245E-02  0.5245E-02  0.1105E-03  0.1103E-03  0.1160E-03  0.1156E-03  0.1105E-03  0.1103E-03  0.7675E-06  0.7646E-06  0.7460E-06  0.7417E-06  0.4217E-06  0.4193E-06  0.7460E-06  0.7417E-06  0.3707E-06  0.3689E-06
     -3.795  0.5444E-02  0.5445E-02  0.1250E-03  0.1248E-03  0.1427E-03  0.1423E-03  0.1250E-03  0.1248E-03  0.1040E-05  0.1036E-05  0.9719E-06  0.9677E-06  0.5363E-06  0.5330E-06  0.9719E-06  0.9677E-06  0.4119E-06  0.4103E-06
     -3.744  0.5506E-02  0.5509E-02  0.1375E-03  0.1374E-03  0.1668E-03  0.1665E-03  0.1375E-03  0.1374E-03  0.1314E-05  0.1311E-05  0.1161E-05  0.1157E-05  0.6940E-06  0.6904E-06  0.1161E-05  0.1157E-05  0.4749E-06  0.4726E-06
     -3.692  0.5522E-02  0.5523E-02  0.1532E-03  0.1529E-03  0.1883E-03  0.1879E-03  0.1532E-03  0.1529E-03  0.1512E-05  0.1510E-05  0.1422E-05  0.1415E-05  0.8497E-06  0.8460E-06  0.1422E-05  0.1415E-05  0.6311E-06  0.6266E-06
     -3.641  0.5897E-02  0.5893E-02  0.1859E-03  0.1853E-03  0.2129E-03  0.2125E-03  0.1859E-03  0.1853E-03  0.1787E-05  0.1783E-05  0.1846E-05  0.1838E-05  0.1032E-05  0.1028E-05  0.1846E-05  0.1838E-05  0.9322E-06  0.9256E-06
     -3.589  0.6387E-02  0.6387E-02  0.2242E-03  0.2237E-03  0.2369E-03  0.2365E-03  0.2242E-03  0.2237E-03  0.2255E-05  0.2247E-05  0.2271E-05  0.2264E-05  0.1263E-05  0.1258E-05  0.2271E-05  0.2264E-05  0.1233E-05  0.1227E-05
     -3.538  0.6457E-02  0.6461E-02  0.2472E-03  0.2469E-03  0.2514E-03  0.2511E-03  0.2472E-03  0.2469E-03  0.2866E-05  0.2857E-05  0.2563E-05  0.2557E-05  0.1465E-05  0.1460E-05  0.2563E-05  0.2557E-05  0.1359E-05  0.1356E-05
     -3.486  0.6392E-02  0.6396E-02  0.2621E-03  0.2619E-03  0.2781E-03  0.2774E-03  0.2621E-03  0.2619E-03  0.3528E-05  0.3519E-05  0.2956E-05  0.2946E-05  0.1675E-05  0.1668E-05  0.2956E-05  0.2946E-05  0.1386E-05  0.1384E-05
     -3.435  0.6370E-02  0.6374E-02  0.2690E-03  0.2689E-03  0.3314E-03  0.3305E-03  0.2690E-03  0.2689E-03  0.3940E-05  0.3937E-05  0.3557E-05  0.3545E-05  0.1921E-05  0.1914E-05  0.3557E-05  0.3545E-05  0.1384E-05  0.1382E-05
     -3.383  0.6220E-02  0.6224E-02  0.2712E-03  0.2710E-03  0.3809E-03  0.3802E-03  0.2712E-03  0.2710E-03  0.4059E-05  0.4056E-05  0.4233E-05  0.4220E-05  0.2107E-05  0.2100E-05  0.4233E-05  0.4220E-05  0.1461E-05  0.1457E-05
     -3.332  0.6270E-02  0.6270E-02  0.2993E-03  0.2986E-03  0.4094E-03  0.4089E-03  0.2993E-03  0.2986E-03  0.4580E-05  0.4567E-05  0.4923E-05  0.4910E-05  0.2368E-05  0.2359E-05  0.4923E-05  0.4910E-05  0.1822E-05  0.1814E-05
     -3.281  0.6630E-02  0.6628E-02  0.3579E-03  0.3570E-03  0.4233E-03  0.4231E-03  0.3579E-03  0.3570E-03  0.5836E-05  0.5815E-05  0.5510E-05  0.5498E-05  0.2865E-05  0.2852E-05  0.5510E-05  0.5498E-05  0.2453E-05  0.2442E-05
     -3.229  0.6911E-02  0.6914E-02  0.4170E-03  0.4164E-03  0.4266E-03  0.4263E-03  0.4170E-03  0.4164E-03  0.7120E-05  0.7104E-05  0.5995E-05  0.5983E-05  0.3331E-05  0.3319E-05  0.5995E-05  0.5983E-05  0.3131E-05  0.3120E-05
     -3.178  0.6880E-02  0.6885E-02  0.4492E-03  0.4489E-03  0.4513E-03  0.4503E-03  0.4492E-03  0.4489E-03  0.7757E-05  0.7748E-05  0.6643E-05  0.6626E-05  0.3598E-05  0.3586E-05  0.6643E-05  0.6626E-05  0.3579E-05  0.3571E-05
     -3.126  0.6879E-02  0.6882E-02  0.4669E-03  0.4667E-03  0.5415E-03  0.5396E-03  0.4669E-03  0.4667E-03  0.8132E-05  0.8123E-05  0.7813E-05  0.7787E-05  0.3983E-05  0.3969E-05  0.7813E-05  0.7787E-05  0.3798E-05  0.3794E-05
     -3.075  0.6848E-02  0.6853E-02  0.4729E-03  0.4729E-03  0.6516E-03  0.6501E-03  0.4729E-03  0.4729E-03  0.8659E-05  0.8644E-05  0.9202E-05  0.9177E-05  0.4359E-05  0.4348E-05  0.9202E-05  0.9177E-05  0.3756E-05  0.3757E-05
     -3.023  0.6611E-02  0.6618E-02  0.4744E-03  0.4742E-03  0.7101E-03  0.7093E-03  0.4744E-03  0.4742E-03  0.9963E-05  0.9933E-05  0.1039E-04  0.1036E-04  0.4414E-05  0.4407E-05  0.1039E-04  0.1036E-04  0.3462E-05  0.3465E-05
     -2.972  0.6530E-02  0.6534E-02  0.5041E-03  0.5036E-03  0.7479E-03  0.7470E-03  0.5041E-03  0.5036E-03  0.1226E-04  0.1222E-04  0.1157E-04  0.1155E-04  0.4541E-05  0.4530E-05  0.1157E-04  0.1155E-04  0.3396E-05  0.3394E-05
     -2.920  0.6388E-02  0.6396E-02  0.5353E-03  0.5350E-03  0.7794E-03  0.7789E-03  0.5353E-03  0.5350E-03  0.1404E-04  0.1402E-04  0.1222E-04  0.1221E-04  0.4894E-05  0.4882E-05  0.1222E-04  0.1221E-04  0.3675E-05  0.3668E-05
     -2.869  0.6002E-02  0.6010E-02  0.5609E-03  0.5604E-03  0.7826E-03  0.7821E-03  0.5609E-03  0.5604E-03  0.1465E-04  0.1463E-04  0.1237E-04  0.1235E-04  0.5259E-05  0.5245E-05  0.1237E-04  0.1235E-04  0.4417E-05  0.4402E-05
     -2.817  0.6036E-02  0.6035E-02  0.6308E-03  0.6295E-03  0.8466E-03  0.8447E-03  0.6308E-03  0.6295E-03  0.1493E-04  0.1492E-04  0.1431E-04  0.1425E-04  0.5856E-05  0.5835E-05  0.1431E-04  0.1425E-04  0.5863E-05  0.5840E-05
     -2.766  0.6462E-02  0.6460E-02  0.7264E-03  0.7253E-03  0.9765E-03  0.9744E-03  0.7264E-03  0.7253E-03  0.1573E-04  0.1570E-04  0.1799E-04  0.1793E-04  0.6556E-05  0.6538E-05  0.1799E-04  0.1793E-04  0.7323E-05  0.7308E-05
     -2.714  0.6559E-02  0.6565E-02  0.7859E-03  0.7854E-03  0.1047E-02  0.1047E-02  0.7859E-03  0.7854E-03  0.1737E-04  0.1733E-04  0.2049E-04  0.2046E-04  0.6845E-05  0.6832E-05  0.2049E-04  0.2046E-04  0.7931E-05  0.7927E-05
     -2.663  0.6241E-02  0.6251E-02  0.8143E-03  0.8140E-03  0.9907E-03  0.9920E-03  0.8143E-03  0.8140E-03  0.2048E-04  0.2041E-04  0.2052E-04  0.2051E-04  0.6904E-05  0.6891E-05  0.2052E-04  0.2051E-04  0.7870E-05  0.7873E-05
     -2.612  0.5834E-02  0.5844E-02  0.8346E-03  0.8345E-03  0.8981E-03  0.8989E-03  0.8346E-03  0.8345E-03  0.2445E-04  0.2438E-04  0.1999E-04  0.1998E-04  0.6893E-05  0.6882E-05  0.1999E-04  0.1998E-04  0.7352E-05  0.7361E-05
     -2.560  0.5338E-02  0.5349E-02  0.8401E-03  0.8401E-03  0.8709E-03  0.8704E-03  0.8401E-03  0.8401E-03  0.2665E-04  0.2661E-04  0.2051E-04  0.2047E-04  0.6625E-05  0.6617E-05  0.2051E-04  0.2047E-04  0.6614E-05  0.6622E-05
     -2.509  0.4941E-02  0.4947E-02  0.8527E-03  0.8522E-03  0.9299E-03  0.9282E-03  0.8527E-03  0.8522E-03  0.2766E-04  0.2762E-04  0.2302E-04  0.2295E-04  0.6508E-05  0.6493E-05  0.2302E-04  0.2295E-04  0.6061E-05  0.6065E-05
     -2.457  0.4913E-02  0.4915E-02  0.9161E-03  0.9150E-03  0.1044E-02  0.1042E-02  0.9161E-03  0.9150E-03  0.3000E-04  0.2995E-04  0.2748E-04  0.2739E-04  0.7119E-05  0.7096E-05  0.2748E-04  0.2739E-04  0.5903E-05  0.5901E-05