   8   8   1   0
  0.1890513E+02  0.4196819E-09  0.4196819E-09  0.8586757E-09  0.5000000E-15
  1.000000000000000E-004
  CAR 
 unknown system                          
     13.31340641     -4.64387343  301      5.89574455      1.00000000
     -4.644  0.0000E+00  0.0000E+00  0.0000E+00  0.0000E+00
     -4.584  0.0000E+00  0.0000E+00  0.0000E+00  0.0000E+00
     -4.524  0.0000E+00  0.0000E+00  0.0000E+00  0.0000E+00
     -4.464  0.0000E+00  0.0000E+00  0.0000E+00  0.0000E+00
     -4.404  0.0000E+00  0.0000E+00  0.0000E+00  0.0000E+00
     -4.345  0.0000E+00  0.0000E+00  0.0000E+00  0.0000E+00
     -4.285  0.1512E-05  0.1508E-05  0.9051E-07  0.9028E-07
     -4.225  0.1542E-04  0.1538E-04  0.1013E-05  0.1011E-05
     -4.165  0.7035E-04  0.7017E-04  0.5224E-05  0.5211E-05
     -4.105  0.2329E-03  0.2323E-03  0.1917E-04  0.1912E-04
     -4.045  0.7844E-03  0.7824E-03  0.6612E-04  0.6595E-04
     -3.985  0.2605E-02  0.2599E-02  0.2221E-03  0.2215E-03
     -3.926  0.8182E-02  0.8162E-02  0.7118E-03  0.7101E-03
     -3.866  0.2396E-01  0.2391E-01  0.2146E-02  0.2141E-02
     -3.806  0.5888E-01  0.5878E-01  0.5671E-02  0.5660E-02
     -3.746  0.1113E+00  0.1111E+00  0.1233E-01  0.1231E-01
     -3.686  0.1629E+00  0.1628E+00  0.2208E-01  0.2206E-01
     -3.626  0.2128E+00  0.2127E+00  0.3482E-01  0.3479E-01
     -3.566  0.2617E+00  0.2617E+00  0.5049E-01  0.5045E-01
     -3.507  0.2816E+00  0.2816E+00  0.6734E-01  0.6731E-01
     -3.447  0.3023E+00  0.3022E+00  0.8543E-01  0.8539E-01
     -3.387  0.3487E+00  0.3486E+00  0.1063E+00  0.1063E+00
     -3.327  0.3780E+00  0.3780E+00  0.1289E+00  0.1289E+00
     -3.267  0.3966E+00  0.3966E+00  0.1527E+00  0.1526E+00
     -3.207  0.4204E+00  0.4203E+00  0.1779E+00  0.1778E+00
     -3.147  0.4309E+00  0.4309E+00  0.2037E+00  0.2036E+00
     -3.088  0.4261E+00  0.4260E+00  0.2292E+00  0.2291E+00
     -3.028  0.4648E+00  0.4647E+00  0.2570E+00  0.2569E+00
     -2.968  0.5297E+00  0.5296E+00  0.2887E+00  0.2887E+00
     -2.908  0.5392E+00  0.5392E+00  0.3210E+00  0.3210E+00
     -2.848  0.5337E+00  0.5337E+00  0.3530E+00  0.3529E+00
     -2.788  0.5506E+00  0.5506E+00  0.3860E+00  0.3859E+00
     -2.728  0.5402E+00  0.5402E+00  0.4183E+00  0.4182E+00
     -2.669  0.5474E+00  0.5473E+00  0.4511E+00  0.4510E+00
     -2.609  0.5971E+00  0.5969E+00  0.4868E+00  0.4868E+00
     -2.549  0.6457E+00  0.6456E+00  0.5255E+00  0.5254E+00
     -2.489  0.6475E+00  0.6475E+00  0.5643E+00  0.5642E+00
     -2.429  0.6635E+00  0.6634E+00  0.6040E+00  0.6040E+00
     -2.369  0.7002E+00  0.7002E+00  0.6460E+00  0.6459E+00
     -2.309  0.6886E+00  0.6887E+00  0.6872E+00  0.6871E+00
     -2.250  0.6939E+00  0.6938E+00  0.7288E+00  0.7287E+00
     -2.190  0.7205E+00  0.7205E+00  0.7719E+00  0.7718E+00
     -2.130  0.6821E+00  0.6822E+00  0.8128E+00  0.8127E+00
     -2.070  0.6931E+00  0.6929E+00  0.8543E+00  0.8542E+00
     -2.010  0.8023E+00  0.8020E+00  0.9023E+00  0.9022E+00
     -1.950  0.8752E+00  0.8751E+00  0.9548E+00  0.9546E+00
     -1.890  0.8576E+00  0.8577E+00  0.1006E+01  0.1006E+01
     -1.831  0.8124E+00  0.8125E+00  0.1055E+01  0.1055E+01
     -1.771  0.7662E+00  0.7663E+00  0.1101E+01  0.1101E+01
     -1.711  0.7341E+00  0.7341E+00  0.1145E+01  0.1145E+01
     -1.651  0.7746E+00  0.7744E+00  0.1191E+01  0.1191E+01
     -1.591  0.8420E+00  0.8420E+00  0.1241E+01  0.1241E+01
     -1.531  0.8660E+00  0.8661E+00  0.1293E+01  0.1293E+01
     -1.471  0.8820E+00  0.8820E+00  0.1346E+01  0.1346E+01
     -1.412  0.8659E+00  0.8660E+00  0.1398E+01  0.1398E+01
     -1.352  0.8441E+00  0.8441E+00  0.1449E+01  0.1448E+01
     -1.292  0.8939E+00  0.8938E+00  0.1502E+01  0.1502E+01
     -1.232  0.9344E+00  0.9344E+00  0.1558E+01  0.1558E+01
     -1.172  0.8403E+00  0.8406E+00  0.1608E+01  0.1608E+01
     -1.112  0.7091E+00  0.7094E+00  0.1651E+01  0.1651E+01
     -1.052  0.6732E+00  0.6732E+00  0.1691E+01  0.1691E+01
     -0.993  0.7014E+00  0.7013E+00  0.1733E+01  0.1733E+01
     -0.933  0.7900E+00  0.7896E+00  0.1781E+01  0.1780E+01
     -0.873  0.9199E+00  0.9197E+00  0.1836E+01  0.1836E+01
     -0.813  0.9598E+00  0.9599E+00  0.1893E+01  0.1893E+01
     -0.753  0.9701E+00  0.9700E+00  0.1951E+01  0.1951E+01
     -0.693  0.1020E+01  0.1020E+01  0.2012E+01  0.2012E+01
     -0.633  0.9740E+00  0.9742E+00  0.2071E+01  0.2071E+01
     -0.574  0.9136E+00  0.9135E+00  0.2125E+01  0.2125E+01
     -0.514  0.9966E+00  0.9963E+00  0.2185E+01  0.2185E+01
     -0.454  0.1062E+01  0.1062E+01  0.2249E+01  0.2249E+01
     -0.394  0.1014E+01  0.1014E+01  0.2309E+01  0.2309E+01
     -0.334  0.1024E+01  0.1024E+01  0.2371E+01  0.2371E+01
     -0.274  0.1083E+01  0.1083E+01  0.2436E+01  0.2436E+01
     -0.214  0.1062E+01  0.1062E+01  0.2499E+01  0.2499E+01
     -0.155  0.9951E+00  0.9953E+00  0.2559E+01  0.2559E+01
     -0.095  0.9270E+00  0.9272E+00  0.2614E+01  0.2614E+01
     -0.035  0.8776E+00  0.8776E+00  0.2667E+01  0.2667E+01
      0.025  0.9004E+00  0.9003E+00  0.2721E+01  0.2721E+01
      0.085  0.9307E+00  0.9308E+00  0.2777E+01  0.2777E+01
      0.145  0.9209E+00  0.9209E+00  0.2832E+01  0.2832E+01
      0.205  0.9638E+00  0.9637E+00  0.2890E+01  0.2889E+01
      0.264  0.1039E+01  0.1039E+01  0.2952E+01  0.2952E+01
      0.324  0.1123E+01  0.1123E+01  0.3019E+01  0.3019E+01
      0.384  0.1253E+01  0.1252E+01  0.3094E+01  0.3094E+01
      0.444  0.1324E+01  0.1324E+01  0.3173E+01  0.3173E+01
      0.504  0.1186E+01  0.1187E+01  0.3244E+01  0.3244E+01
      0.564  0.1000E+01  0.1000E+01  0.3304E+01  0.3304E+01
      0.624  0.9545E+00  0.9544E+00  0.3361E+01  0.3361E+01
      0.683  0.1088E+01  0.1088E+01  0.3427E+01  0.3426E+01
      0.743  0.1334E+01  0.1334E+01  0.3506E+01  0.3506E+01
      0.803  0.1432E+01  0.1433E+01  0.3592E+01  0.3592E+01
      0.863  0.1294E+01  0.1295E+01  0.3670E+01  0.3670E+01
      0.923  0.1087E+01  0.1087E+01  0.3735E+01  0.3735E+01
      0.983  0.9768E+00  0.9769E+00  0.3793E+01  0.3793E+01
      1.043  0.9862E+00  0.9861E+00  0.3853E+01  0.3852E+01
      1.102  0.1061E+01  0.1061E+01  0.3916E+01  0.3916E+01
      1.162  0.1181E+01  0.1181E+01  0.3987E+01  0.3987E+01
      1.222  0.1230E+01  0.1230E+01  0.4061E+01  0.4060E+01
      1.282  0.1256E+01  0.1256E+01  0.4136E+01  0.4136E+01
      1.342  0.1335E+01  0.1335E+01  0.4216E+01  0.4216E+01
      1.402  0.1346E+01  0.1346E+01  0.4296E+01  0.4296E+01
      1.462  0.1287E+01  0.1287E+01  0.4373E+01  0.4373E+01
      1.521  0.1296E+01  0.1296E+01  0.4451E+01  0.4451E+01
      1.581  0.1268E+01  0.1268E+01  0.4527E+01  0.4527E+01
      1.641  0.1206E+01  0.1206E+01  0.4599E+01  0.4599E+01
      1.701  0.1186E+01  0.1186E+01  0.4670E+01  0.4670E+01
      1.761  0.1057E+01  0.1057E+01  0.4734E+01  0.4733E+01
      1.821  0.9089E+00  0.9090E+00  0.4788E+01  0.4788E+01
      1.881  0.9886E+00  0.9882E+00  0.4847E+01  0.4847E+01
      1.940  0.1217E+01  0.1217E+01  0.4920E+01  0.4920E+01
      2.000  0.1428E+01  0.1427E+01  0.5006E+01  0.5005E+01
      2.060  0.1580E+01  0.1580E+01  0.5100E+01  0.5100E+01
      2.120  0.1609E+01  0.1609E+01  0.5197E+01  0.5196E+01
      2.180  0.1490E+01  0.1490E+01  0.5286E+01  0.5286E+01
      2.240  0.1373E+01  0.1374E+01  0.5368E+01  0.5368E+01
      2.300  0.1345E+01  0.1345E+01  0.5449E+01  0.5448E+01
      2.359  0.1358E+01  0.1358E+01  0.5530E+01  0.5530E+01
      2.419  0.1362E+01  0.1362E+01  0.5612E+01  0.5611E+01
      2.479  0.1330E+01  0.1331E+01  0.5691E+01  0.5691E+01
      2.539  0.1314E+01  0.1314E+01  0.5770E+01  0.5770E+01
      2.599  0.1355E+01  0.1355E+01  0.5851E+01  0.5851E+01
      2.659  0.1434E+01  0.1434E+01  0.5937E+01  0.5937E+01
      2.719  0.1468E+01  0.1468E+01  0.6025E+01  0.6025E+01
      2.778  0.1502E+01  0.1502E+01  0.6115E+01  0.6115E+01
      2.838  0.1534E+01  0.1534E+01  0.6207E+01  0.6207E+01
      2.898  0.1500E+01  0.1500E+01  0.6297E+01  0.6297E+01
      2.958  0.1427E+01  0.1427E+01  0.6382E+01  0.6382E+01
      3.018  0.1353E+01  0.1353E+01  0.6463E+01  0.6463E+01
      3.078  0.1359E+01  0.1359E+01  0.6545E+01  0.6544E+01
      3.138  0.1384E+01  0.1383E+01  0.6627E+01  0.6627E+01
      3.197  0.1359E+01  0.1359E+01  0.6709E+01  0.6709E+01
      3.257  0.1320E+01  0.1320E+01  0.6788E+01  0.6788E+01
      3.317  0.1369E+01  0.1369E+01  0.6870E+01  0.6870E+01
      3.377  0.1585E+01  0.1585E+01  0.6965E+01  0.6965E+01
      3.437  0.1812E+01  0.1812E+01  0.7073E+01  0.7073E+01
      3.497  0.1882E+01  0.1882E+01  0.7186E+01  0.7186E+01
      3.557  0.1769E+01  0.1769E+01  0.7292E+01  0.7292E+01
      3.616  0.1585E+01  0.1585E+01  0.7387E+01  0.7387E+01
      3.676  0.1499E+01  0.1499E+01  0.7477E+01  0.7477E+01
      3.736  0.1516E+01  0.1516E+01  0.7568E+01  0.7567E+01
      3.796  0.1555E+01  0.1555E+01  0.7661E+01  0.7661E+01
      3.856  0.1562E+01  0.1562E+01  0.7754E+01  0.7754E+01
      3.916  0.1525E+01  0.1525E+01  0.7846E+01  0.7846E+01
      3.976  0.1431E+01  0.1432E+01  0.7931E+01  0.7931E+01
      4.035  0.1323E+01  0.1323E+01  0.8011E+01  0.8010E+01
      4.095  0.1420E+01  0.1420E+01  0.8096E+01  0.8095E+01
      4.155  0.1653E+01  0.1653E+01  0.8195E+01  0.8194E+01
      4.215  0.1809E+01  0.1809E+01  0.8303E+01  0.8303E+01
      4.275  0.1922E+01  0.1922E+01  0.8418E+01  0.8418E+01
      4.335  0.2039E+01  0.2039E+01  0.8540E+01  0.8540E+01
      4.395  0.1983E+01  0.1983E+01  0.8659E+01  0.8659E+01
      4.454  0.1766E+01  0.1766E+01  0.8765E+01  0.8765E+01
      4.514  0.1523E+01  0.1523E+01  0.8856E+01  0.8856E+01
      4.574  0.1393E+01  0.1393E+01  0.8939E+01  0.8939E+01
      4.634  0.1419E+01  0.1419E+01  0.9024E+01  0.9024E+01
      4.694  0.1408E+01  0.1408E+01  0.9109E+01  0.9109E+01
      4.754  0.1269E+01  0.1269E+01  0.9185E+01  0.9185E+01
      4.814  0.1225E+01  0.1225E+01  0.9258E+01  0.9258E+01
      4.873  0.1328E+01  0.1327E+01  0.9338E+01  0.9338E+01
      4.933  0.1525E+01  0.1524E+01  0.9429E+01  0.9429E+01
      4.993  0.1744E+01  0.1743E+01  0.9533E+01  0.9533E+01
      5.053  0.1825E+01  0.1826E+01  0.9643E+01  0.9643E+01
      5.113  0.1840E+01  0.1841E+01  0.9753E+01  0.9753E+01
      5.173  0.1937E+01  0.1937E+01  0.9869E+01  0.9869E+01
      5.233  0.1970E+01  0.1970E+01  0.9987E+01  0.9987E+01
      5.292  0.1810E+01  0.1810E+01  0.1010E+02  0.1010E+02
      5.352  0.1555E+01  0.1555E+01  0.1019E+02  0.1019E+02
      5.412  0.1330E+01  0.1331E+01  0.1027E+02  0.1027E+02
      5.472  0.1266E+01  0.1266E+01  0.1034E+02  0.1034E+02
      5.532  0.1412E+01  0.1412E+01  0.1043E+02  0.1043E+02
      5.592  0.1555E+01  0.1555E+01  0.1052E+02  0.1052E+02
      5.652  0.1590E+01  0.1589E+01  0.1062E+02  0.1062E+02
      5.711  0.1587E+01  0.1587E+01  0.1071E+02  0.1071E+02
      5.771  0.1526E+01  0.1527E+01  0.1080E+02  0.1080E+02
      5.831  0.1508E+01  0.1508E+01  0.1089E+02  0.1089E+02
      5.891  0.1638E+01  0.1638E+01  0.1099E+02  0.1099E+02
      5.951  0.1798E+01  0.1798E+01  0.1110E+02  0.1110E+02
      6.011  0.1829E+01  0.1829E+01  0.1121E+02  0.1121E+02
      6.071  0.1734E+01  0.1734E+01  0.1131E+02  0.1131E+02
      6.130  0.1705E+01  0.1705E+01  0.1142E+02  0.1141E+02
      6.190  0.1740E+01  0.1740E+01  0.1152E+02  0.1152E+02
      6.250  0.1669E+01  0.1669E+01  0.1162E+02  0.1162E+02
      6.310  0.1630E+01  0.1630E+01  0.1172E+02  0.1172E+02
      6.370  0.1689E+01  0.1689E+01  0.1182E+02  0.1182E+02
      6.430  0.1754E+01  0.1754E+01  0.1192E+02  0.1192E+02
      6.490  0.1744E+01  0.1744E+01  0.1203E+02  0.1203E+02
      6.549  0.1672E+01  0.1673E+01  0.1213E+02  0.1213E+02
      6.609  0.1628E+01  0.1628E+01  0.1223E+02  0.1223E+02
      6.669  0.1655E+01  0.1655E+01  0.1232E+02  0.1232E+02
      6.729  0.1747E+01  0.1747E+01  0.1243E+02  0.1243E+02
      6.789  0.1918E+01  0.1917E+01  0.1254E+02  0.1254E+02
      6.849  0.2017E+01  0.2016E+01  0.1266E+02  0.1266E+02
      6.909  0.1992E+01  0.1992E+01  0.1278E+02  0.1278E+02
      6.969  0.1943E+01  0.1943E+01  0.1290E+02  0.1290E+02
      7.028  0.1883E+01  0.1883E+01  0.1301E+02  0.1301E+02
      7.088  0.1792E+01  0.1793E+01  0.1312E+02  0.1312E+02
      7.148  0.1654E+01  0.1654E+01  0.1322E+02  0.1322E+02
      7.208  0.1544E+01  0.1544E+01  0.1331E+02  0.1331E+02
      7.268  0.1581E+01  0.1580E+01  0.1341E+02  0.1341E+02
      7.328  0.1728E+01  0.1727E+01  0.1351E+02  0.1351E+02
      7.388  0.1828E+01  0.1828E+01  0.1362E+02  0.1362E+02
      7.447  0.1846E+01  0.1846E+01  0.1373E+02  0.1373E+02
      7.507  0.1843E+01  0.1843E+01  0.1384E+02  0.1384E+02
      7.567  0.1933E+01  0.1933E+01  0.1396E+02  0.1396E+02
      7.627  0.2126E+01  0.2126E+01  0.1408E+02  0.1408E+02
      7.687  0.2228E+01  0.2229E+01  0.1422E+02  0.1422E+02
      7.747  0.2118E+01  0.2119E+01  0.1434E+02  0.1434E+02
      7.807  0.1925E+01  0.1925E+01  0.1446E+02  0.1446E+02
      7.866  0.1789E+01  0.1789E+01  0.1457E+02  0.1457E+02
      7.926  0.1760E+01  0.1760E+01  0.1467E+02  0.1467E+02
      7.986  0.1792E+01  0.1791E+01  0.1478E+02  0.1478E+02
      8.046  0.1915E+01  0.1914E+01  0.1489E+02  0.1489E+02
      8.106  0.2083E+01  0.2082E+01  0.1502E+02  0.1502E+02
      8.166  0.2180E+01  0.2180E+01  0.1515E+02  0.1515E+02
      8.226  0.2165E+01  0.2165E+01  0.1528E+02  0.1528E+02
      8.285  0.2017E+01  0.2017E+01  0.1540E+02  0.1540E+02
      8.345  0.1826E+01  0.1826E+01  0.1551E+02  0.1551E+02
      8.405  0.1681E+01  0.1682E+01  0.1561E+02  0.1561E+02
      8.465  0.1706E+01  0.1706E+01  0.1571E+02  0.1571E+02
      8.525  0.1806E+01  0.1807E+01  0.1582E+02  0.1582E+02
      8.585  0.1723E+01  0.1723E+01  0.1592E+02  0.1592E+02
      8.645  0.1657E+01  0.1657E+01  0.1602E+02  0.1602E+02
      8.704  0.1773E+01  0.1772E+01  0.1613E+02  0.1613E+02
      8.764  0.1934E+01  0.1933E+01  0.1624E+02  0.1624E+02
      8.824  0.2158E+01  0.2157E+01  0.1637E+02  0.1637E+02
      8.884  0.2459E+01  0.2458E+01  0.1652E+02  0.1652E+02
      8.944  0.2547E+01  0.2547E+01  0.1667E+02  0.1667E+02
      9.004  0.2489E+01  0.2489E+01  0.1682E+02  0.1682E+02
      9.064  0.2417E+01  0.2418E+01  0.1697E+02  0.1697E+02
      9.123  0.2228E+01  0.2228E+01  0.1710E+02  0.1710E+02
      9.183  0.1947E+01  0.1948E+01  0.1722E+02  0.1722E+02
      9.243  0.1763E+01  0.1762E+01  0.1732E+02  0.1732E+02
      9.303  0.1794E+01  0.1790E+01  0.1743E+02  0.1743E+02
      9.363  0.1965E+01  0.1955E+01  0.1755E+02  0.1755E+02
      9.423  0.2041E+01  0.2024E+01  0.1767E+02  0.1767E+02
      9.483  0.1870E+01  0.1863E+01  0.1778E+02  0.1778E+02
      9.542  0.1714E+01  0.1727E+01  0.1789E+02  0.1788E+02
      9.602  0.1762E+01  0.1778E+01  0.1799E+02  0.1799E+02
      9.662  0.1829E+01  0.1837E+01  0.1810E+02  0.1810E+02
      9.722  0.1853E+01  0.1854E+01  0.1821E+02  0.1821E+02
      9.782  0.1897E+01  0.1890E+01  0.1833E+02  0.1832E+02
      9.842  0.1909E+01  0.1893E+01  0.1844E+02  0.1844E+02
      9.902  0.1855E+01  0.1840E+01  0.1855E+02  0.1855E+02
      9.961  0.1789E+01  0.1793E+01  0.1866E+02  0.1866E+02
     10.021  0.1622E+01  0.1637E+01  0.1875E+02  0.1875E+02
     10.081  0.1430E+01  0.1405E+01  0.1884E+02  0.1884E+02
     10.141  0.1374E+01  0.1305E+01  0.1892E+02  0.1892E+02
     10.201  0.1434E+01  0.1408E+01  0.1901E+02  0.1900E+02
     10.261  0.1498E+01  0.1525E+01  0.1910E+02  0.1909E+02
     10.321  0.1371E+01  0.1405E+01  0.1918E+02  0.1918E+02
     10.380  0.1077E+01  0.1100E+01  0.1925E+02  0.1924E+02
     10.440  0.8299E+00  0.8308E+00  0.1930E+02  0.1929E+02
     10.500  0.7896E+00  0.7751E+00  0.1934E+02  0.1934E+02
     10.560  0.8943E+00  0.9052E+00  0.1940E+02  0.1939E+02
     10.620  0.9415E+00  0.9859E+00  0.1945E+02  0.1945E+02
     10.680  0.8528E+00  0.8934E+00  0.1950E+02  0.1950E+02
     10.740  0.7741E+00  0.7809E+00  0.1955E+02  0.1955E+02
     10.799  0.7150E+00  0.7023E+00  0.1959E+02  0.1959E+02
     10.859  0.5820E+00  0.5730E+00  0.1963E+02  0.1963E+02
     10.919  0.4588E+00  0.4554E+00  0.1966E+02  0.1965E+02
     10.979  0.3724E+00  0.3732E+00  0.1968E+02  0.1968E+02
     11.039  0.3053E+00  0.3086E+00  0.1970E+02  0.1970E+02
     11.099  0.2946E+00  0.2964E+00  0.1971E+02  0.1971E+02
     11.159  0.3209E+00  0.3200E+00  0.1973E+02  0.1973E+02
     11.218  0.3428E+00  0.3414E+00  0.1975E+02  0.1975E+02
     11.278  0.3402E+00  0.3392E+00  0.1977E+02  0.1977E+02
     11.338  0.3383E+00  0.3391E+00  0.1979E+02  0.1979E+02
     11.398  0.3403E+00  0.3454E+00  0.1981E+02  0.1981E+02
     11.458  0.3329E+00  0.3460E+00  0.1983E+02  0.1984E+02
     11.518  0.3164E+00  0.3401E+00  0.1985E+02  0.1986E+02
     11.578  0.2626E+00  0.2924E+00  0.1987E+02  0.1987E+02
     11.637  0.1897E+00  0.1954E+00  0.1988E+02  0.1988E+02
     11.697  0.1467E+00  0.1162E+00  0.1989E+02  0.1989E+02
     11.757  0.1414E+00  0.1126E+00  0.1990E+02  0.1990E+02
     11.817  0.1790E+00  0.1674E+00  0.1991E+02  0.1991E+02
     11.877  0.2038E+00  0.2060E+00  0.1992E+02  0.1992E+02
     11.937  0.1840E+00  0.2017E+00  0.1993E+02  0.1993E+02
     11.997  0.1663E+00  0.2013E+00  0.1994E+02  0.1995E+02
     12.056  0.1601E+00  0.1810E+00  0.1995E+02  0.1996E+02
     12.116  0.1364E+00  0.1126E+00  0.1996E+02  0.1996E+02
     12.176  0.9460E-01  0.6089E-01  0.1996E+02  0.1997E+02
     12.236  0.6938E-01  0.5226E-01  0.1997E+02  0.1997E+02
     12.296  0.6940E-01  0.6595E-01  0.1997E+02  0.1997E+02
     12.356  0.8519E-01  0.9243E-01  0.1998E+02  0.1998E+02
     12.416  0.1103E+00  0.1233E+00  0.1998E+02  0.1999E+02
     12.475  0.1117E+00  0.1139E+00  0.1999E+02  0.1999E+02
     12.535  0.7933E-01  0.6844E-01  0.2000E+02  0.2000E+02
     12.595  0.4002E-01  0.2916E-01  0.2000E+02  0.2000E+02
     12.655  0.1519E-01  0.1000E-01  0.2000E+02  0.2000E+02
     12.715  0.4993E-02  0.3161E-02  0.2000E+02  0.2000E+02
     12.775  0.1474E-02  0.9685E-03  0.2000E+02  0.2000E+02
     12.835  0.3049E-03  0.1666E-03  0.2000E+02  0.2000E+02
     12.894  0.9241E-04  0.0000E+00  0.2000E+02  0.2000E+02
     12.954  0.0000E+00  0.0000E+00  0.2000E+02  0.2000E+02
     13.014  0.0000E+00  0.0000E+00  0.2000E+02  0.2000E+02
     13.074  0.0000E+00  0.0000E+00  0.2000E+02  0.2000E+02
     13.134  0.0000E+00  0.0000E+00  0.2000E+02  0.2000E+02
     13.194  0.0000E+00  0.0000E+00  0.2000E+02  0.2000E+02
     13.254  0.0000E+00  0.0000E+00  0.2000E+02  0.2000E+02
     13.313  0.0000E+00  0.0000E+00  0.2000E+02  0.2000E+02
     13.31340641     -4.64387343  301      5.89574455      1.00000000
     -4.644  0.0000E+00  0.0000E+00  0.0000E+00  0.0000E+00  0.0000E+00  0.0000E+00  0.0000E+00  0.0000E+00  0.0000E+00  0.0000E+00  0.0000E+00  0.0000E+00  0.0000E+00  0.0000E+00  0.0000E+00  0.0000E+00  0.0000E+00  0.0000E+00
     -4.584  0.0000E+00  0.0000E+00  0.0000E+00  0.0000E+00  0.0000E+00  0.0000E+00  0.0000E+00  0.0000E+00  0.0000E+00  0.0000E+00  0.0000E+00  0.0000E+00  0.0000E+00  0.0000E+00  0.0000E+00  0.0000E+00  0.0000E+00  0.0000E+00
     -4.524  0.0000E+00  0.0000E+00  0.0000E+00  0.0000E+00  0.0000E+00  0.0000E+00  0.0000E+00  0.0000E+00  0.0000E+00  0.0000E+00  0.0000E+00  0.0000E+00  0.0000E+00  0.0000E+00  0.0000E+00  0.0000E+00  0.0000E+00  0.0000E+00
     -4.464  0.0000E+00  0.0000E+00  0.0000E+00  0.0000E+00  0.0000E+00  0.0000E+00  0.0000E+00  0.0000E+00  0.0000E+00  0.0000E+00  0.0000E+00  0.0000E+00  0.0000E+00  0.0000E+00  0.0000E+00  0.0000E+00  0.0000E+00  0.0000E+00
     -4.404  0.0000E+00  0.0000E+00  0.0000E+00  0.0000E+00  0.0000E+00  0.0000E+00  0.0000E+00  0.0000E+00  0.0000E+00  0.0000E+00  0.0000E+00  0.0000E+00  0.0000E+00  0.0000E+00  0.0000E+00  0.0000E+00  0.0000E+00  0.0000E+00
     -4.345  0.0000E+00  0.0000E+00  0.0000E+00  0.0000E+00  0.0000E+00  0.0000E+00  0.0000E+00  0.0000E+00  0.0000E+00  0.0000E+00  0.0000E+00  0.0000E+00  0.0000E+00  0.0000E+00  0.0000E+00  0.0000E+00  0.0000E+00  0.0000E+00
     -4.285  0.2411E-07  0.2406E-07  0.2188E-21  0.6433E-21  0.7046E-21  0.3379E-20  0.2188E-21  0.6433E-21  0.8335E-22  0.1218E-21  0.3102E-22  0.1859E-21  0.1599E-12  0.1575E-12  0.3102E-22  0.1859E-21  0.2829E-22  0.1371E-21
     -4.225  0.2443E-06  0.2437E-06  0.3476E-09  0.3466E-09  0.3733E-09  0.3722E-09  0.3476E-09  0.3466E-09  0.5708E-21  0.7074E-21  0.6072E-21  0.6702E-21  0.1946E-11  0.1920E-11  0.6072E-21  0.6702E-21  0.3050E-12  0.3044E-12
     -4.165  0.1110E-05  0.1107E-05  0.2680E-08  0.2673E-08  0.2700E-08  0.2692E-08  0.2680E-08  0.2673E-08  0.2776E-11  0.2773E-11  0.2613E-11  0.2607E-11  0.9227E-11  0.9104E-11  0.2613E-11  0.2607E-11  0.1594E-11  0.1591E-11
     -4.105  0.3669E-05  0.3661E-05  0.9502E-08  0.9477E-08  0.1082E-07  0.1079E-07  0.9502E-08  0.9477E-08  0.1463E-10  0.1462E-10  0.1250E-10  0.1246E-10  0.3089E-10  0.3050E-10  0.1250E-10  0.1246E-10  0.4383E-11  0.4374E-11
     -4.045  0.1234E-04  0.1231E-04  0.3482E-07  0.3473E-07  0.4026E-07  0.4014E-07  0.3482E-07  0.3473E-07  0.4016E-10  0.4013E-10  0.5106E-10  0.5093E-10  0.1145E-09  0.1132E-09  0.5106E-10  0.5093E-10  0.3250E-10  0.3243E-10
     -3.985  0.4095E-04  0.4087E-04  0.1262E-06  0.1259E-06  0.1356E-06  0.1352E-06  0.1262E-06  0.1259E-06  0.2202E-09  0.2199E-09  0.1961E-09  0.1956E-09  0.4075E-09  0.4030E-09  0.1961E-09  0.1956E-09  0.1130E-09  0.1127E-09
     -3.926  0.1286E-03  0.1284E-03  0.3946E-06  0.3936E-06  0.4322E-06  0.4309E-06  0.3946E-06  0.3936E-06  0.6354E-09  0.6347E-09  0.6228E-09  0.6212E-09  0.1256E-08  0.1242E-08  0.6228E-09  0.6212E-09  0.3522E-09  0.3513E-09
     -3.866  0.3763E-03  0.3756E-03  0.1238E-05  0.1235E-05  0.1364E-05  0.1361E-05  0.1238E-05  0.1235E-05  0.2129E-08  0.2126E-08  0.2064E-08  0.2059E-08  0.3839E-08  0.3798E-08  0.2064E-08  0.2059E-08  0.1115E-08  0.1113E-08
     -3.806  0.9225E-03  0.9214E-03  0.3479E-05  0.3471E-05  0.3808E-05  0.3798E-05  0.3479E-05  0.3471E-05  0.6543E-08  0.6536E-08  0.6239E-08  0.6225E-08  0.1016E-07  0.1006E-07  0.6239E-08  0.6225E-08  0.3300E-08  0.3294E-08
     -3.746  0.1736E-02  0.1735E-02  0.8112E-05  0.8098E-05  0.8954E-05  0.8936E-05  0.8112E-05  0.8098E-05  0.1756E-07  0.1755E-07  0.1674E-07  0.1670E-07  0.2237E-07  0.2219E-07  0.1674E-07  0.1670E-07  0.8981E-08  0.8963E-08
     -3.686  0.2523E-02  0.2523E-02  0.1554E-04  0.1552E-04  0.1760E-04  0.1757E-04  0.1554E-04  0.1552E-04  0.3971E-07  0.3969E-07  0.3866E-07  0.3860E-07  0.4242E-07  0.4216E-07  0.3866E-07  0.3860E-07  0.2206E-07  0.2202E-07
     -3.626  0.3264E-02  0.3264E-02  0.2709E-04  0.2705E-04  0.2990E-04  0.2986E-04  0.2709E-04  0.2705E-04  0.8227E-07  0.8221E-07  0.8018E-07  0.8006E-07  0.7587E-07  0.7554E-07  0.8018E-07  0.8006E-07  0.4845E-07  0.4838E-07
     -3.566  0.3979E-02  0.3979E-02  0.4174E-04  0.4170E-04  0.4350E-04  0.4345E-04  0.4174E-04  0.4170E-04  0.1555E-06  0.1554E-06  0.1453E-06  0.1452E-06  0.1202E-06  0.1198E-06  0.1453E-06  0.1452E-06  0.8146E-07  0.8138E-07
     -3.507  0.4238E-02  0.4238E-02  0.5296E-04  0.5293E-04  0.5819E-04  0.5812E-04  0.5296E-04  0.5293E-04  0.2426E-06  0.2425E-06  0.2314E-06  0.2312E-06  0.1670E-06  0.1666E-06  0.2314E-06  0.2312E-06  0.1119E-06  0.1119E-06
     -3.447  0.4486E-02  0.4485E-02  0.6652E-04  0.6646E-04  0.8186E-04  0.8174E-04  0.6652E-04  0.6646E-04  0.3647E-06  0.3646E-06  0.3581E-06  0.3579E-06  0.2497E-06  0.2492E-06  0.3581E-06  0.3579E-06  0.1696E-06  0.1694E-06
     -3.387  0.5112E-02  0.5112E-02  0.9061E-04  0.9052E-04  0.1061E-03  0.1059E-03  0.9061E-04  0.9052E-04  0.5401E-06  0.5401E-06  0.5114E-06  0.5112E-06  0.3871E-06  0.3865E-06  0.5114E-06  0.5112E-06  0.2948E-06  0.2945E-06
     -3.327  0.5483E-02  0.5483E-02  0.1160E-03  0.1159E-03  0.1172E-03  0.1171E-03  0.1160E-03  0.1159E-03  0.7188E-06  0.7188E-06  0.6801E-06  0.6798E-06  0.5144E-06  0.5137E-06  0.6801E-06  0.6798E-06  0.4581E-06  0.4579E-06
     -3.267  0.5680E-02  0.5680E-02  0.1363E-03  0.1362E-03  0.1379E-03  0.1378E-03  0.1363E-03  0.1362E-03  0.9629E-06  0.9627E-06  0.9685E-06  0.9679E-06  0.6070E-06  0.6063E-06  0.9685E-06  0.9679E-06  0.5578E-06  0.5579E-06
     -3.207  0.5937E-02  0.5937E-02  0.1538E-03  0.1537E-03  0.1754E-03  0.1752E-03  0.1538E-03  0.1537E-03  0.1345E-05  0.1345E-05  0.1303E-05  0.1303E-05  0.7623E-06  0.7614E-06  0.1303E-05  0.1303E-05  0.5944E-06  0.5945E-06
     -3.147  0.6003E-02  0.6004E-02  0.1679E-03  0.1678E-03  0.2059E-03  0.2058E-03  0.1679E-03  0.1678E-03  0.1760E-05  0.1760E-05  0.1510E-05  0.1510E-05  0.1018E-05  0.1017E-05  0.1510E-05  0.1510E-05  0.6484E-06  0.6483E-06
     -3.088  0.5841E-02  0.5842E-02  0.1793E-03  0.1792E-03  0.2297E-03  0.2295E-03  0.1793E-03  0.1792E-03  0.1949E-05  0.1950E-05  0.1787E-05  0.1787E-05  0.1235E-05  0.1234E-05  0.1787E-05  0.1787E-05  0.8284E-06  0.8278E-06
     -3.028  0.6270E-02  0.6269E-02  0.2210E-03  0.2208E-03  0.2605E-03  0.2603E-03  0.2210E-03  0.2208E-03  0.2231E-05  0.2231E-05  0.2409E-05  0.2407E-05  0.1482E-05  0.1481E-05  0.2409E-05  0.2407E-05  0.1325E-05  0.1324E-05
     -2.968  0.7057E-02  0.7057E-02  0.2793E-03  0.2791E-03  0.2952E-03  0.2949E-03  0.2793E-03  0.2791E-03  0.2848E-05  0.2847E-05  0.3071E-05  0.3070E-05  0.1871E-05  0.1870E-05  0.3071E-05  0.3070E-05  0.1895E-05  0.1894E-05
     -2.908  0.7096E-02  0.7098E-02  0.3070E-03  0.3068E-03  0.3056E-03  0.3054E-03  0.3070E-03  0.3068E-03  0.3678E-05  0.3677E-05  0.3373E-05  0.3373E-05  0.2169E-05  0.2167E-05  0.3373E-05  0.3373E-05  0.2076E-05  0.2076E-05
     -2.848  0.6908E-02  0.6909E-02  0.3242E-03  0.3241E-03  0.3244E-03  0.3241E-03  0.3242E-03  0.3241E-03  0.4678E-05  0.4677E-05  0.3781E-05  0.3780E-05  0.2441E-05  0.2440E-05  0.3781E-05  0.3780E-05  0.2080E-05  0.2080E-05
     -2.788  0.6985E-02  0.6986E-02  0.3351E-03  0.3350E-03  0.4001E-03  0.3997E-03  0.3351E-03  0.3350E-03  0.5353E-05  0.5354E-05  0.4630E-05  0.4628E-05  0.2863E-05  0.2862E-05  0.4630E-05  0.4628E-05  0.2038E-05  0.2038E-05
     -2.728  0.6704E-02  0.6706E-02  0.3219E-03  0.3218E-03  0.4736E-03  0.4733E-03  0.3219E-03  0.3218E-03  0.5188E-05  0.5190E-05  0.5540E-05  0.5538E-05  0.3092E-05  0.3092E-05  0.5540E-05  0.5538E-05  0.2002E-05  0.2002E-05
     -2.669  0.6657E-02  0.6658E-02  0.3468E-03  0.3466E-03  0.5094E-03  0.5091E-03  0.3468E-03  0.3466E-03  0.5548E-05  0.5547E-05  0.6537E-05  0.6535E-05  0.3339E-05  0.3338E-05  0.6537E-05  0.6535E-05  0.2474E-05  0.2473E-05
     -2.609  0.7148E-02  0.7148E-02  0.4260E-03  0.4257E-03  0.5271E-03  0.5268E-03  0.4260E-03  0.4257E-03  0.7353E-05  0.7350E-05  0.7354E-05  0.7353E-05  0.4160E-05  0.4158E-05  0.7354E-05  0.7353E-05  0.3466E-05  0.3464E-05
     -2.549  0.7634E-02  0.7635E-02  0.5156E-03  0.5154E-03  0.5204E-03  0.5202E-03  0.5156E-03  0.5154E-03  0.9517E-05  0.9516E-05  0.7897E-05  0.7896E-05  0.5048E-05  0.5045E-05  0.7897E-05  0.7896E-05  0.4641E-05  0.4639E-05
     -2.489  0.7515E-02  0.7518E-02  0.5562E-03  0.5560E-03  0.5149E-03  0.5145E-03  0.5562E-03  0.5560E-03  0.1032E-04  0.1032E-04  0.8474E-05  0.8473E-05  0.5297E-05  0.5295E-05  0.8474E-05  0.8473E-05  0.5409E-05  0.5408E-05
     -2.429  0.7455E-02  0.7456E-02  0.5750E-03  0.5749E-03  0.6182E-03  0.6175E-03  0.5750E-03  0.5749E-03  0.1061E-04  0.1061E-04  0.9976E-05  0.9972E-05  0.5811E-05  0.5807E-05  0.9976E-05  0.9972E-05  0.5791E-05  0.5791E-05
     -2.369  0.7592E-02  0.7593E-02  0.5867E-03  0.5866E-03  0.7950E-03  0.7943E-03  0.5867E-03  0.5866E-03  0.1097E-04  0.1097E-04  0.1212E-04  0.1212E-04  0.6675E-05  0.6673E-05  0.1212E-04  0.1212E-04  0.5891E-05  0.5892E-05
     -2.309  0.7247E-02  0.7249E-02  0.5696E-03  0.5695E-03  0.8801E-03  0.8797E-03  0.5696E-03  0.5695E-03  0.1216E-04  0.1215E-04  0.1367E-04  0.1367E-04  0.6734E-05  0.6735E-05  0.1367E-04  0.1367E-04  0.5235E-05  0.5237E-05
     -2.250  0.7125E-02  0.7126E-02  0.6047E-03  0.6044E-03  0.9049E-03  0.9044E-03  0.6047E-03  0.6044E-03  0.1563E-04  0.1563E-04  0.1530E-04  0.1530E-04  0.6712E-05  0.6711E-05  0.1530E-04  0.1530E-04  0.4911E-05  0.4911E-05
     -2.190  0.7198E-02  0.7200E-02  0.6584E-03  0.6582E-03  0.9610E-03  0.9606E-03  0.6584E-03  0.6582E-03  0.1881E-04  0.1881E-04  0.1668E-04  0.1668E-04  0.7376E-05  0.7374E-05  0.1668E-04  0.1668E-04  0.5225E-05  0.5225E-05
     -2.130  0.6557E-02  0.6560E-02  0.6619E-03  0.6617E-03  0.9316E-03  0.9313E-03  0.6619E-03  0.6617E-03  0.1949E-04  0.1949E-04  0.1576E-04  0.1576E-04  0.7843E-05  0.7841E-05  0.1576E-04  0.1576E-04  0.5923E-05  0.5921E-05
     -2.070  0.6338E-02  0.6339E-02  0.7271E-03  0.7268E-03  0.9666E-03  0.9659E-03  0.7271E-03  0.7268E-03  0.1935E-04  0.1935E-04  0.1707E-04  0.1706E-04  0.8511E-05  0.8507E-05  0.1707E-04  0.1706E-04  0.8082E-05  0.8076E-05
     -2.010  0.7051E-02  0.7050E-02  0.8707E-03  0.8702E-03  0.1175E-02  0.1174E-02  0.8707E-03  0.8702E-03  0.1988E-04  0.1988E-04  0.2296E-04  0.2295E-04  0.9851E-05  0.9845E-05  0.2296E-04  0.2295E-04  0.1102E-04  0.1101E-04
     -1.950  0.7454E-02  0.7455E-02  0.9645E-03  0.9642E-03  0.1343E-02  0.1342E-02  0.9645E-03  0.9642E-03  0.2147E-04  0.2147E-04  0.2815E-04  0.2815E-04  0.1049E-04  0.1049E-04  0.2815E-04  0.2815E-04  0.1235E-04  0.1235E-04
     -1.890  0.7096E-02  0.7098E-02  0.9936E-03  0.9934E-03  0.1306E-02  0.1306E-02  0.9936E-03  0.9934E-03  0.2495E-04  0.2495E-04  0.2850E-04  0.2850E-04  0.1053E-04  0.1053E-04  0.2850E-04  0.2850E-04  0.1237E-04  0.1237E-04
     -1.831  0.6633E-02  0.6635E-02  0.1021E-02  0.1021E-02  0.1140E-02  0.1140E-02  0.1021E-02  0.1021E-02  0.3136E-04  0.3136E-04  0.2667E-04  0.2667E-04  0.1077E-04  0.1076E-04  0.2667E-04  0.2667E-04  0.1172E-04  0.1172E-04
     -1.771  0.6081E-02  0.6083E-02  0.1020E-02  0.1020E-02  0.1039E-02  0.1039E-02  0.1020E-02  0.1020E-02  0.3549E-04  0.3549E-04  0.2617E-04  0.2617E-04  0.1035E-04  0.1035E-04  0.2617E-04  0.2617E-04  0.1036E-04  0.1036E-04
     -1.711  0.5444E-02  0.5446E-02  0.1004E-02  0.1004E-02  0.1073E-02  0.1072E-02  0.1004E-02  0.1004E-02  0.3531E-04  0.3531E-04  0.2816E-04  0.2815E-04  0.9646E-05  0.9641E-05  0.2816E-04  0.2815E-04  0.9433E-05  0.9434E-05
     -1.651  0.5398E-02  0.5398E-02  0.1051E-02  0.1051E-02  0.1259E-02  0.1258E-02  0.1051E-02  0.1051E-02  0.3780E-04  0.3780E-04  0.3515E-04  0.3513E-04  0.1027E-04  0.1026E-04  0.3515E-04  0.3513E-04  0.8900E-05  0.8899E-05