   8   8   1   0
  0.1479663E+02  0.3867657E-09  0.3867657E-09  0.7913286E-09  0.5000000E-15
  1.000000000000000E-004
  CAR 
 unknown system                          
     16.92777375     -4.04282225  301      8.13056729      1.00000000
     -4.043  0.0000E+00  0.0000E+00  0.0000E+00  0.0000E+00
     -3.973  0.0000E+00  0.0000E+00  0.0000E+00  0.0000E+00
     -3.903  0.0000E+00  0.0000E+00  0.0000E+00  0.0000E+00
     -3.833  0.0000E+00  0.0000E+00  0.0000E+00  0.0000E+00
     -3.763  0.0000E+00  0.0000E+00  0.0000E+00  0.0000E+00
     -3.693  0.0000E+00  0.0000E+00  0.0000E+00  0.0000E+00
     -3.623  0.0000E+00  0.0000E+00  0.0000E+00  0.0000E+00
     -3.554  0.1130E-05  0.1069E-05  0.7900E-07  0.7471E-07
     -3.484  0.1266E-04  0.1198E-04  0.9642E-06  0.9118E-06
     -3.414  0.6696E-04  0.6333E-04  0.5645E-05  0.5338E-05
     -3.344  0.2712E-03  0.2565E-03  0.2460E-04  0.2327E-04
     -3.274  0.1099E-02  0.1040E-02  0.1014E-03  0.9598E-04
     -3.204  0.4335E-02  0.4109E-02  0.4045E-03  0.3832E-03
     -3.134  0.1552E-01  0.1478E-01  0.1489E-02  0.1417E-02
     -3.064  0.4523E-01  0.4361E-01  0.4651E-02  0.4465E-02
     -2.994  0.9377E-01  0.9174E-01  0.1121E-01  0.1088E-01
     -2.924  0.1378E+00  0.1363E+00  0.2084E-01  0.2041E-01
     -2.854  0.1784E+00  0.1764E+00  0.3331E-01  0.3274E-01
     -2.785  0.2278E+00  0.2262E+00  0.4923E-01  0.4855E-01
     -2.715  0.2390E+00  0.2393E+00  0.6593E-01  0.6528E-01
     -2.645  0.2466E+00  0.2452E+00  0.8317E-01  0.8242E-01
     -2.575  0.2967E+00  0.2948E+00  0.1039E+00  0.1030E+00
     -2.505  0.3222E+00  0.3218E+00  0.1265E+00  0.1255E+00
     -2.435  0.3331E+00  0.3324E+00  0.1497E+00  0.1488E+00
     -2.365  0.3563E+00  0.3553E+00  0.1747E+00  0.1736E+00
     -2.295  0.3706E+00  0.3707E+00  0.2006E+00  0.1996E+00
     -2.225  0.3515E+00  0.3521E+00  0.2252E+00  0.2242E+00
     -2.155  0.3769E+00  0.3742E+00  0.2515E+00  0.2504E+00
     -2.086  0.4554E+00  0.4529E+00  0.2834E+00  0.2820E+00
     -2.016  0.4665E+00  0.4677E+00  0.3160E+00  0.3147E+00
     -1.946  0.4436E+00  0.4433E+00  0.3470E+00  0.3457E+00
     -1.876  0.4715E+00  0.4706E+00  0.3800E+00  0.3787E+00
     -1.806  0.4585E+00  0.4597E+00  0.4121E+00  0.4108E+00
     -1.736  0.4490E+00  0.4482E+00  0.4435E+00  0.4422E+00
     -1.666  0.4925E+00  0.4900E+00  0.4779E+00  0.4765E+00
     -1.596  0.5541E+00  0.5524E+00  0.5167E+00  0.5151E+00
     -1.526  0.5514E+00  0.5527E+00  0.5552E+00  0.5537E+00
     -1.456  0.5447E+00  0.5434E+00  0.5934E+00  0.5918E+00
     -1.387  0.5972E+00  0.5952E+00  0.6351E+00  0.6334E+00
     -1.317  0.5920E+00  0.5937E+00  0.6765E+00  0.6749E+00
     -1.247  0.5704E+00  0.5694E+00  0.7164E+00  0.7147E+00
     -1.177  0.6233E+00  0.6218E+00  0.7600E+00  0.7582E+00
     -1.107  0.5867E+00  0.5900E+00  0.8011E+00  0.7995E+00
     -1.037  0.5421E+00  0.5410E+00  0.8390E+00  0.8374E+00
     -0.967  0.6439E+00  0.6379E+00  0.8840E+00  0.8820E+00
     -0.897  0.7536E+00  0.7514E+00  0.9368E+00  0.9345E+00
     -0.827  0.7488E+00  0.7503E+00  0.9891E+00  0.9870E+00
     -0.757  0.7068E+00  0.7085E+00  0.1039E+01  0.1037E+01
     -0.688  0.6639E+00  0.6662E+00  0.1085E+01  0.1083E+01
     -0.618  0.6072E+00  0.6089E+00  0.1127E+01  0.1126E+01
     -0.548  0.6188E+00  0.6161E+00  0.1171E+01  0.1169E+01
     -0.478  0.7038E+00  0.7010E+00  0.1220E+01  0.1218E+01
     -0.408  0.7296E+00  0.7301E+00  0.1271E+01  0.1269E+01
     -0.338  0.7419E+00  0.7410E+00  0.1323E+01  0.1321E+01
     -0.268  0.7512E+00  0.7527E+00  0.1375E+01  0.1373E+01
     -0.198  0.7047E+00  0.7059E+00  0.1425E+01  0.1423E+01
     -0.128  0.7368E+00  0.7336E+00  0.1476E+01  0.1474E+01
     -0.058  0.8185E+00  0.8158E+00  0.1534E+01  0.1531E+01
      0.011  0.8025E+00  0.8065E+00  0.1590E+01  0.1588E+01
      0.081  0.6583E+00  0.6648E+00  0.1636E+01  0.1634E+01
      0.151  0.5747E+00  0.5760E+00  0.1676E+01  0.1674E+01
      0.221  0.5892E+00  0.5874E+00  0.1717E+01  0.1716E+01
      0.291  0.6730E+00  0.6682E+00  0.1764E+01  0.1762E+01
      0.361  0.7842E+00  0.7804E+00  0.1819E+01  0.1817E+01
      0.431  0.8155E+00  0.8160E+00  0.1876E+01  0.1874E+01
      0.501  0.8200E+00  0.8189E+00  0.1934E+01  0.1931E+01
      0.571  0.8789E+00  0.8770E+00  0.1995E+01  0.1993E+01
      0.641  0.8582E+00  0.8613E+00  0.2055E+01  0.2053E+01
      0.711  0.7735E+00  0.7744E+00  0.2109E+01  0.2107E+01
      0.780  0.8315E+00  0.8267E+00  0.2167E+01  0.2165E+01
      0.850  0.9240E+00  0.9230E+00  0.2232E+01  0.2229E+01
      0.920  0.8737E+00  0.8775E+00  0.2293E+01  0.2291E+01
      0.990  0.8359E+00  0.8341E+00  0.2352E+01  0.2349E+01
      1.060  0.9252E+00  0.9220E+00  0.2416E+01  0.2414E+01
      1.130  0.9412E+00  0.9422E+00  0.2482E+01  0.2479E+01
      1.200  0.8887E+00  0.8912E+00  0.2544E+01  0.2542E+01
      1.270  0.8153E+00  0.8186E+00  0.2601E+01  0.2599E+01
      1.340  0.7711E+00  0.7721E+00  0.2655E+01  0.2653E+01
      1.410  0.7761E+00  0.7746E+00  0.2709E+01  0.2707E+01
      1.479  0.7952E+00  0.7950E+00  0.2765E+01  0.2763E+01
      1.549  0.7791E+00  0.7798E+00  0.2820E+01  0.2817E+01
      1.619  0.8066E+00  0.8038E+00  0.2876E+01  0.2874E+01
      1.689  0.9266E+00  0.9220E+00  0.2941E+01  0.2938E+01
      1.759  0.1015E+01  0.1013E+01  0.3012E+01  0.3009E+01
      1.829  0.1084E+01  0.1081E+01  0.3088E+01  0.3085E+01
      1.899  0.1144E+01  0.1144E+01  0.3168E+01  0.3165E+01
      1.969  0.1036E+01  0.1043E+01  0.3240E+01  0.3238E+01
      2.039  0.8619E+00  0.8671E+00  0.3300E+01  0.3298E+01
      2.109  0.8274E+00  0.8265E+00  0.3358E+01  0.3356E+01
      2.178  0.9115E+00  0.9053E+00  0.3422E+01  0.3419E+01
      2.248  0.1110E+01  0.1102E+01  0.3500E+01  0.3496E+01
      2.318  0.1219E+01  0.1220E+01  0.3585E+01  0.3582E+01
      2.388  0.1131E+01  0.1136E+01  0.3664E+01  0.3661E+01
      2.458  0.9618E+00  0.9683E+00  0.3731E+01  0.3729E+01
      2.528  0.8351E+00  0.8380E+00  0.3790E+01  0.3788E+01
      2.598  0.8110E+00  0.8097E+00  0.3846E+01  0.3844E+01
      2.668  0.9021E+00  0.8957E+00  0.3910E+01  0.3907E+01
      2.738  0.1082E+01  0.1077E+01  0.3985E+01  0.3982E+01
      2.808  0.1144E+01  0.1146E+01  0.4065E+01  0.4062E+01
      2.877  0.1136E+01  0.1135E+01  0.4145E+01  0.4142E+01
      2.947  0.1173E+01  0.1173E+01  0.4227E+01  0.4224E+01
      3.017  0.1109E+01  0.1111E+01  0.4304E+01  0.4302E+01
      3.087  0.1133E+01  0.1128E+01  0.4384E+01  0.4380E+01
      3.157  0.1252E+01  0.1249E+01  0.4471E+01  0.4468E+01
      3.227  0.1205E+01  0.1210E+01  0.4555E+01  0.4553E+01
      3.297  0.1069E+01  0.1074E+01  0.4630E+01  0.4628E+01
      3.367  0.9966E+00  0.9995E+00  0.4700E+01  0.4698E+01
      3.437  0.8727E+00  0.8764E+00  0.4761E+01  0.4759E+01
      3.507  0.8551E+00  0.8517E+00  0.4821E+01  0.4818E+01
      3.576  0.1056E+01  0.1047E+01  0.4895E+01  0.4892E+01
      3.646  0.1288E+01  0.1283E+01  0.4985E+01  0.4981E+01
      3.716  0.1359E+01  0.1358E+01  0.5080E+01  0.5076E+01
      3.786  0.1443E+01  0.1439E+01  0.5181E+01  0.5177E+01
      3.856  0.1419E+01  0.1424E+01  0.5280E+01  0.5277E+01
      3.926  0.1259E+01  0.1264E+01  0.5368E+01  0.5365E+01
      3.996  0.1213E+01  0.1212E+01  0.5453E+01  0.5450E+01
      4.066  0.1275E+01  0.1273E+01  0.5542E+01  0.5539E+01
      4.136  0.1240E+01  0.1245E+01  0.5629E+01  0.5626E+01
      4.206  0.1090E+01  0.1095E+01  0.5705E+01  0.5703E+01
      4.276  0.1085E+01  0.1083E+01  0.5781E+01  0.5778E+01
      4.345  0.1155E+01  0.1153E+01  0.5862E+01  0.5859E+01
      4.415  0.1190E+01  0.1187E+01  0.5945E+01  0.5942E+01
      4.485  0.1282E+01  0.1277E+01  0.6035E+01  0.6031E+01
      4.555  0.1372E+01  0.1370E+01  0.6131E+01  0.6127E+01
      4.625  0.1407E+01  0.1409E+01  0.6229E+01  0.6226E+01
      4.695  0.1315E+01  0.1319E+01  0.6321E+01  0.6318E+01
      4.765  0.1181E+01  0.1185E+01  0.6404E+01  0.6401E+01
      4.835  0.1078E+01  0.1081E+01  0.6479E+01  0.6476E+01
      4.905  0.9635E+00  0.9674E+00  0.6547E+01  0.6544E+01
      4.975  0.8961E+00  0.8967E+00  0.6609E+01  0.6607E+01
      5.044  0.9252E+00  0.9228E+00  0.6674E+01  0.6672E+01
      5.114  0.1038E+01  0.1031E+01  0.6747E+01  0.6744E+01
      5.184  0.1331E+01  0.1317E+01  0.6840E+01  0.6836E+01
      5.254  0.1738E+01  0.1725E+01  0.6961E+01  0.6956E+01
      5.324  0.1953E+01  0.1953E+01  0.7098E+01  0.7093E+01
      5.394  0.1754E+01  0.1766E+01  0.7221E+01  0.7217E+01
      5.464  0.1431E+01  0.1440E+01  0.7321E+01  0.7317E+01
      5.534  0.1257E+01  0.1262E+01  0.7408E+01  0.7405E+01
      5.604  0.1206E+01  0.1206E+01  0.7493E+01  0.7490E+01
      5.674  0.1230E+01  0.1230E+01  0.7579E+01  0.7576E+01
      5.743  0.1177E+01  0.1179E+01  0.7661E+01  0.7658E+01
      5.813  0.1186E+01  0.1183E+01  0.7744E+01  0.7741E+01
      5.883  0.1266E+01  0.1264E+01  0.7833E+01  0.7830E+01
      5.953  0.1275E+01  0.1275E+01  0.7922E+01  0.7919E+01
      6.023  0.1340E+01  0.1337E+01  0.8016E+01  0.8012E+01
      6.093  0.1416E+01  0.1413E+01  0.8115E+01  0.8111E+01
      6.163  0.1521E+01  0.1517E+01  0.8221E+01  0.8217E+01
      6.233  0.1578E+01  0.1577E+01  0.8332E+01  0.8328E+01
      6.303  0.1614E+01  0.1613E+01  0.8444E+01  0.8440E+01
      6.373  0.1561E+01  0.1566E+01  0.8554E+01  0.8550E+01
      6.442  0.1404E+01  0.1410E+01  0.8652E+01  0.8649E+01
      6.512  0.1255E+01  0.1259E+01  0.8740E+01  0.8737E+01
      6.582  0.1273E+01  0.1269E+01  0.8829E+01  0.8825E+01
      6.652  0.1350E+01  0.1350E+01  0.8923E+01  0.8920E+01
      6.722  0.1296E+01  0.1298E+01  0.9014E+01  0.9011E+01
      6.792  0.1278E+01  0.1278E+01  0.9103E+01  0.9100E+01
      6.862  0.1187E+01  0.1192E+01  0.9186E+01  0.9183E+01
      6.932  0.1062E+01  0.1064E+01  0.9261E+01  0.9258E+01
      7.002  0.1074E+01  0.1072E+01  0.9336E+01  0.9333E+01
      7.072  0.1160E+01  0.1156E+01  0.9417E+01  0.9414E+01
      7.141  0.1391E+01  0.1381E+01  0.9514E+01  0.9510E+01
      7.211  0.1665E+01  0.1657E+01  0.9631E+01  0.9626E+01
      7.281  0.1792E+01  0.1790E+01  0.9756E+01  0.9752E+01
      7.351  0.1778E+01  0.1779E+01  0.9880E+01  0.9876E+01
      7.421  0.1743E+01  0.1746E+01  0.1000E+02  0.9998E+01
      7.491  0.1629E+01  0.1635E+01  0.1012E+02  0.1011E+02
      7.561  0.1412E+01  0.1418E+01  0.1021E+02  0.1021E+02
      7.631  0.1253E+01  0.1256E+01  0.1030E+02  0.1030E+02
      7.701  0.1198E+01  0.1199E+01  0.1039E+02  0.1038E+02
      7.771  0.1204E+01  0.1203E+01  0.1047E+02  0.1047E+02
      7.841  0.1274E+01  0.1271E+01  0.1056E+02  0.1056E+02
      7.910  0.1380E+01  0.1376E+01  0.1066E+02  0.1065E+02
      7.980  0.1561E+01  0.1555E+01  0.1077E+02  0.1076E+02
      8.050  0.1633E+01  0.1635E+01  0.1088E+02  0.1088E+02
      8.120  0.1526E+01  0.1531E+01  0.1099E+02  0.1098E+02
      8.190  0.1436E+01  0.1438E+01  0.1109E+02  0.1108E+02
      8.260  0.1429E+01  0.1430E+01  0.1119E+02  0.1118E+02
      8.330  0.1358E+01  0.1361E+01  0.1128E+02  0.1128E+02
      8.400  0.1263E+01  0.1262E+01  0.1137E+02  0.1137E+02
      8.470  0.1382E+01  0.1375E+01  0.1147E+02  0.1146E+02
      8.540  0.1442E+01  0.1446E+01  0.1157E+02  0.1156E+02
      8.609  0.1290E+01  0.1294E+01  0.1166E+02  0.1165E+02
      8.679  0.1319E+01  0.1315E+01  0.1175E+02  0.1175E+02
      8.749  0.1422E+01  0.1421E+01  0.1185E+02  0.1185E+02
      8.819  0.1380E+01  0.1381E+01  0.1195E+02  0.1194E+02
      8.889  0.1357E+01  0.1355E+01  0.1204E+02  0.1204E+02
      8.959  0.1389E+01  0.1387E+01  0.1214E+02  0.1213E+02
      9.029  0.1374E+01  0.1376E+01  0.1223E+02  0.1223E+02
      9.099  0.1411E+01  0.1409E+01  0.1233E+02  0.1233E+02
      9.169  0.1433E+01  0.1433E+01  0.1243E+02  0.1243E+02
      9.239  0.1428E+01  0.1427E+01  0.1253E+02  0.1253E+02
      9.308  0.1469E+01  0.1467E+01  0.1264E+02  0.1263E+02
      9.378  0.1514E+01  0.1511E+01  0.1274E+02  0.1274E+02
      9.448  0.1583E+01  0.1581E+01  0.1285E+02  0.1285E+02
      9.518  0.1635E+01  0.1633E+01  0.1297E+02  0.1296E+02
      9.588  0.1640E+01  0.1642E+01  0.1308E+02  0.1308E+02
      9.658  0.1591E+01  0.1591E+01  0.1319E+02  0.1319E+02
      9.728  0.1624E+01  0.1622E+01  0.1331E+02  0.1330E+02
      9.798  0.1660E+01  0.1659E+01  0.1342E+02  0.1342E+02
      9.868  0.1646E+01  0.1647E+01  0.1354E+02  0.1353E+02
      9.938  0.1560E+01  0.1564E+01  0.1365E+02  0.1364E+02
     10.007  0.1469E+01  0.1471E+01  0.1375E+02  0.1375E+02
     10.077  0.1474E+01  0.1472E+01  0.1385E+02  0.1385E+02
     10.147  0.1597E+01  0.1595E+01  0.1396E+02  0.1396E+02
     10.217  0.1632E+01  0.1634E+01  0.1408E+02  0.1407E+02
     10.287  0.1571E+01  0.1574E+01  0.1419E+02  0.1418E+02
     10.357  0.1576E+01  0.1572E+01  0.1430E+02  0.1429E+02
     10.427  0.1629E+01  0.1629E+01  0.1441E+02  0.1441E+02
     10.497  0.1559E+01  0.1563E+01  0.1452E+02  0.1452E+02
     10.567  0.1519E+01  0.1518E+01  0.1463E+02  0.1462E+02
     10.637  0.1617E+01  0.1612E+01  0.1474E+02  0.1474E+02
     10.706  0.1766E+01  0.1758E+01  0.1487E+02  0.1486E+02
     10.776  0.2008E+01  0.1998E+01  0.1501E+02  0.1500E+02
     10.846  0.2079E+01  0.2083E+01  0.1515E+02  0.1515E+02
     10.916  0.1790E+01  0.1807E+01  0.1528E+02  0.1527E+02
     10.986  0.1381E+01  0.1394E+01  0.1537E+02  0.1537E+02
     11.056  0.1190E+01  0.1193E+01  0.1546E+02  0.1545E+02
     11.126  0.1266E+01  0.1260E+01  0.1554E+02  0.1554E+02
     11.196  0.1482E+01  0.1473E+01  0.1565E+02  0.1564E+02
     11.266  0.1637E+01  0.1633E+01  0.1576E+02  0.1576E+02
     11.336  0.1713E+01  0.1706E+01  0.1588E+02  0.1588E+02
     11.406  0.1893E+01  0.1886E+01  0.1601E+02  0.1601E+02
     11.475  0.1864E+01  0.1871E+01  0.1615E+02  0.1614E+02
     11.545  0.1717E+01  0.1723E+01  0.1627E+02  0.1626E+02
     11.615  0.1647E+01  0.1650E+01  0.1638E+02  0.1638E+02
     11.685  0.1598E+01  0.1600E+01  0.1649E+02  0.1649E+02
     11.755  0.1564E+01  0.1562E+01  0.1660E+02  0.1660E+02
     11.825  0.1667E+01  0.1661E+01  0.1672E+02  0.1671E+02
     11.895  0.1810E+01  0.1805E+01  0.1685E+02  0.1684E+02
     11.965  0.1889E+01  0.1888E+01  0.1698E+02  0.1697E+02
     12.035  0.1889E+01  0.1888E+01  0.1711E+02  0.1710E+02
     12.105  0.1889E+01  0.1891E+01  0.1724E+02  0.1724E+02
     12.174  0.1702E+01  0.1712E+01  0.1736E+02  0.1736E+02
     12.244  0.1448E+01  0.1455E+01  0.1746E+02  0.1746E+02
     12.314  0.1347E+01  0.1349E+01  0.1756E+02  0.1755E+02
     12.384  0.1412E+01  0.1415E+01  0.1765E+02  0.1765E+02
     12.454  0.1456E+01  0.1460E+01  0.1776E+02  0.1775E+02
     12.524  0.1633E+01  0.1620E+01  0.1787E+02  0.1787E+02
     12.594  0.1857E+01  0.1849E+01  0.1800E+02  0.1800E+02
     12.664  0.1801E+01  0.1805E+01  0.1813E+02  0.1812E+02
     12.734  0.1606E+01  0.1614E+01  0.1824E+02  0.1824E+02
     12.804  0.1423E+01  0.1430E+01  0.1834E+02  0.1834E+02
     12.873  0.1400E+01  0.1407E+01  0.1844E+02  0.1843E+02
     12.943  0.1469E+01  0.1483E+01  0.1854E+02  0.1854E+02
     13.013  0.1431E+01  0.1439E+01  0.1864E+02  0.1864E+02
     13.083  0.1344E+01  0.1332E+01  0.1873E+02  0.1873E+02
     13.153  0.1291E+01  0.1277E+01  0.1882E+02  0.1882E+02
     13.223  0.1293E+01  0.1281E+01  0.1891E+02  0.1891E+02
     13.293  0.1351E+01  0.1347E+01  0.1901E+02  0.1900E+02
     13.363  0.1405E+01  0.1416E+01  0.1911E+02  0.1910E+02
     13.433  0.1212E+01  0.1222E+01  0.1919E+02  0.1919E+02
     13.503  0.8787E+00  0.8647E+00  0.1925E+02  0.1925E+02
     13.572  0.7122E+00  0.6644E+00  0.1930E+02  0.1930E+02
     13.642  0.7090E+00  0.6607E+00  0.1935E+02  0.1934E+02
     13.712  0.7886E+00  0.7928E+00  0.1941E+02  0.1940E+02
     13.782  0.8195E+00  0.8732E+00  0.1947E+02  0.1946E+02
     13.852  0.6413E+00  0.6921E+00  0.1951E+02  0.1951E+02
     13.922  0.4227E+00  0.4447E+00  0.1954E+02  0.1954E+02
     13.992  0.3593E+00  0.3605E+00  0.1956E+02  0.1956E+02
     14.062  0.4344E+00  0.4253E+00  0.1960E+02  0.1959E+02
     14.132  0.5216E+00  0.5183E+00  0.1963E+02  0.1963E+02
     14.202  0.5128E+00  0.5183E+00  0.1967E+02  0.1967E+02
     14.271  0.4196E+00  0.4279E+00  0.1970E+02  0.1970E+02
     14.341  0.3345E+00  0.3395E+00  0.1972E+02  0.1972E+02
     14.411  0.2572E+00  0.2612E+00  0.1974E+02  0.1974E+02
     14.481  0.1746E+00  0.1771E+00  0.1975E+02  0.1975E+02
     14.551  0.1479E+00  0.1462E+00  0.1976E+02  0.1976E+02
     14.621  0.1811E+00  0.1736E+00  0.1977E+02  0.1977E+02
     14.691  0.2667E+00  0.2495E+00  0.1979E+02  0.1979E+02
     14.761  0.3448E+00  0.3336E+00  0.1982E+02  0.1981E+02
     14.831  0.3289E+00  0.3435E+00  0.1984E+02  0.1984E+02
     14.901  0.2741E+00  0.2921E+00  0.1986E+02  0.1986E+02
     14.971  0.2344E+00  0.2428E+00  0.1988E+02  0.1987E+02
     15.040  0.2047E+00  0.2070E+00  0.1989E+02  0.1989E+02
     15.110  0.1673E+00  0.1656E+00  0.1990E+02  0.1990E+02
     15.180  0.1450E+00  0.1416E+00  0.1991E+02  0.1991E+02
     15.250  0.1713E+00  0.1667E+00  0.1992E+02  0.1992E+02
     15.320  0.1731E+00  0.1626E+00  0.1994E+02  0.1993E+02
     15.390  0.1716E+00  0.1383E+00  0.1995E+02  0.1994E+02
     15.460  0.1637E+00  0.1134E+00  0.1996E+02  0.1995E+02
     15.530  0.1157E+00  0.1062E+00  0.1997E+02  0.1996E+02
     15.600  0.6216E-01  0.1076E+00  0.1997E+02  0.1997E+02
     15.670  0.3565E-01  0.7398E-01  0.1997E+02  0.1997E+02
     15.739  0.5317E-01  0.5670E-01  0.1998E+02  0.1998E+02
     15.809  0.9592E-01  0.8600E-01  0.1998E+02  0.1998E+02
     15.879  0.9187E-01  0.1028E+00  0.1999E+02  0.1999E+02
     15.949  0.5977E-01  0.7566E-01  0.1999E+02  0.1999E+02
     16.019  0.4260E-01  0.4940E-01  0.2000E+02  0.2000E+02
     16.089  0.2154E-01  0.2387E-01  0.2000E+02  0.2000E+02
     16.159  0.7019E-02  0.7714E-02  0.2000E+02  0.2000E+02
     16.229  0.1710E-02  0.2005E-02  0.2000E+02  0.2000E+02
     16.299  0.4321E-03  0.4479E-03  0.2000E+02  0.2000E+02
     16.369  0.1074E-03  0.1113E-03  0.2000E+02  0.2000E+02
     16.438  0.0000E+00  0.0000E+00  0.2000E+02  0.2000E+02
     16.508  0.0000E+00  0.0000E+00  0.2000E+02  0.2000E+02
     16.578  0.0000E+00  0.0000E+00  0.2000E+02  0.2000E+02
     16.648  0.0000E+00  0.0000E+00  0.2000E+02  0.2000E+02
     16.718  0.0000E+00  0.0000E+00  0.2000E+02  0.2000E+02
     16.788  0.0000E+00  0.0000E+00  0.2000E+02  0.2000E+02
     16.858  0.0000E+00  0.0000E+00  0.2000E+02  0.2000E+02
     16.928  0.0000E+00  0.0000E+00  0.2000E+02  0.2000E+02
     16.92777375     -4.04282225  301      8.13056729      1.00000000
     -4.043  0.0000E+00  0.0000E+00  0.0000E+00  0.0000E+00  0.0000E+00  0.0000E+00  0.0000E+00  0.0000E+00  0.0000E+00  0.0000E+00  0.0000E+00  0.0000E+00  0.0000E+00  0.0000E+00  0.0000E+00  0.0000E+00  0.0000E+00  0.0000E+00
     -3.973  0.0000E+00  0.0000E+00  0.0000E+00  0.0000E+00  0.0000E+00  0.0000E+00  0.0000E+00  0.0000E+00  0.0000E+00  0.0000E+00  0.0000E+00  0.0000E+00  0.0000E+00  0.0000E+00  0.0000E+00  0.0000E+00  0.0000E+00  0.0000E+00
     -3.903  0.0000E+00  0.0000E+00  0.0000E+00  0.0000E+00  0.0000E+00  0.0000E+00  0.0000E+00  0.0000E+00  0.0000E+00  0.0000E+00  0.0000E+00  0.0000E+00  0.0000E+00  0.0000E+00  0.0000E+00  0.0000E+00  0.0000E+00  0.0000E+00
     -3.833  0.0000E+00  0.0000E+00  0.0000E+00  0.0000E+00  0.0000E+00  0.0000E+00  0.0000E+00  0.0000E+00  0.0000E+00  0.0000E+00  0.0000E+00  0.0000E+00  0.0000E+00  0.0000E+00  0.0000E+00  0.0000E+00  0.0000E+00  0.0000E+00
     -3.763  0.0000E+00  0.0000E+00  0.0000E+00  0.0000E+00  0.0000E+00  0.0000E+00  0.0000E+00  0.0000E+00  0.0000E+00  0.0000E+00  0.0000E+00  0.0000E+00  0.0000E+00  0.0000E+00  0.0000E+00  0.0000E+00  0.0000E+00  0.0000E+00
     -3.693  0.0000E+00  0.0000E+00  0.0000E+00  0.0000E+00  0.0000E+00  0.0000E+00  0.0000E+00  0.0000E+00  0.0000E+00  0.0000E+00  0.0000E+00  0.0000E+00  0.0000E+00  0.0000E+00  0.0000E+00  0.0000E+00  0.0000E+00  0.0000E+00
     -3.623  0.0000E+00  0.0000E+00  0.0000E+00  0.0000E+00  0.0000E+00  0.0000E+00  0.0000E+00  0.0000E+00  0.0000E+00  0.0000E+00  0.0000E+00  0.0000E+00  0.0000E+00  0.0000E+00  0.0000E+00  0.0000E+00  0.0000E+00  0.0000E+00
     -3.554  0.2397E-07  0.2266E-07  0.1317E-21  0.2508E-21  0.2312E-20  0.8426E-21  0.1317E-21  0.2508E-21  0.7362E-22  0.3858E-22  0.4378E-22  0.6323E-22  0.2913E-12  0.2651E-12  0.4378E-22  0.6323E-22  0.6320E-22  0.2133E-22
     -3.484  0.2669E-06  0.2523E-06  0.4010E-09  0.3793E-09  0.4466E-09  0.4222E-09  0.4010E-09  0.3793E-09  0.2817E-20  0.1502E-20  0.1301E-20  0.8385E-21  0.3678E-11  0.3362E-11  0.1301E-20  0.8385E-21  0.4161E-12  0.3940E-12
     -3.414  0.1406E-05  0.1329E-05  0.3474E-08  0.3285E-08  0.3608E-08  0.3411E-08  0.3474E-08  0.3285E-08  0.3532E-11  0.3345E-11  0.3474E-11  0.3287E-11  0.2003E-10  0.1832E-10  0.3474E-11  0.3287E-11  0.2560E-11  0.2424E-11
     -3.344  0.5688E-05  0.5379E-05  0.1492E-07  0.1411E-07  0.1685E-07  0.1593E-07  0.1492E-07  0.1411E-07  0.2180E-10  0.2064E-10  0.1937E-10  0.1832E-10  0.8130E-10  0.7443E-10  0.1937E-10  0.1832E-10  0.9055E-11  0.8575E-11
     -3.274  0.2304E-04  0.2180E-04  0.6391E-07  0.6046E-07  0.7300E-07  0.6901E-07  0.6391E-07  0.6046E-07  0.7705E-10  0.7296E-10  0.8956E-10  0.8474E-10  0.3444E-09  0.3160E-09  0.8956E-10  0.8474E-10  0.6145E-10  0.5819E-10
     -3.204  0.9080E-04  0.8606E-04  0.2690E-06  0.2547E-06  0.2947E-06  0.2789E-06  0.2690E-06  0.2547E-06  0.4224E-09  0.4000E-09  0.3953E-09  0.3741E-09  0.1407E-08  0.1293E-08  0.3953E-09  0.3741E-09  0.2546E-09  0.2413E-09
     -3.134  0.3248E-03  0.3094E-03  0.1016E-05  0.9621E-06  0.1116E-05  0.1055E-05  0.1016E-05  0.9621E-06  0.1563E-08  0.1482E-08  0.1534E-08  0.1428E-08  0.5075E-08  0.4689E-08  0.1534E-08  0.1428E-08  0.9587E-09  0.9017E-09
     -3.064  0.9447E-03  0.9107E-03  0.3465E-05  0.3316E-05  0.3776E-05  0.3614E-05  0.3465E-05  0.3316E-05  0.5944E-08  0.5657E-08  0.5758E-08  0.5504E-08  0.1563E-07  0.1460E-07  0.5758E-08  0.5504E-08  0.3336E-08  0.3197E-08
     -2.994  0.1950E-02  0.1908E-02  0.9120E-05  0.8831E-05  0.1001E-04  0.9669E-05  0.9120E-05  0.8831E-05  0.1889E-07  0.1815E-07  0.1802E-07  0.1730E-07  0.3625E-07  0.3438E-07  0.1802E-07  0.1730E-07  0.9817E-08  0.9438E-08
     -2.924  0.2844E-02  0.2814E-02  0.1806E-04  0.1764E-04  0.2081E-04  0.2027E-04  0.1806E-04  0.1764E-04  0.4550E-07  0.4415E-07  0.4467E-07  0.4324E-07  0.6681E-07  0.6407E-07  0.4467E-07  0.4324E-07  0.2712E-07  0.2608E-07
     -2.854  0.3642E-02  0.3603E-02  0.3255E-04  0.3181E-04  0.3702E-04  0.3627E-04  0.3255E-04  0.3181E-04  0.9759E-07  0.9463E-07  0.9821E-07  0.9535E-07  0.1197E-06  0.1154E-06  0.9821E-07  0.9535E-07  0.6860E-07  0.6651E-07
     -2.785  0.4607E-02  0.4576E-02  0.5365E-04  0.5288E-04  0.5477E-04  0.5414E-04  0.5365E-04  0.5288E-04  0.2030E-06  0.1981E-06  0.1898E-06  0.1858E-06  0.1963E-06  0.1912E-06  0.1898E-06  0.1858E-06  0.1238E-06  0.1221E-06
     -2.715  0.4786E-02  0.4794E-02  0.6632E-04  0.6606E-04  0.6998E-04  0.6921E-04  0.6632E-04  0.6606E-04  0.3163E-06  0.3123E-06  0.2993E-06  0.2945E-06  0.2536E-06  0.2491E-06  0.2993E-06  0.2945E-06  0.1578E-06  0.1568E-06
     -2.645  0.4865E-02  0.4840E-02  0.7900E-04  0.7813E-04  0.1015E-03  0.9981E-04  0.7900E-04  0.7813E-04  0.4648E-06  0.4564E-06  0.4733E-06  0.4647E-06  0.3578E-06  0.3494E-06  0.4733E-06  0.4647E-06  0.2223E-06  0.2181E-06
     -2.575  0.5780E-02  0.5744E-02  0.1122E-03  0.1107E-03  0.1393E-03  0.1383E-03  0.1122E-03  0.1107E-03  0.7276E-06  0.7178E-06  0.6963E-06  0.6891E-06  0.5949E-06  0.5826E-06  0.6963E-06  0.6891E-06  0.4150E-06  0.4049E-06
     -2.505  0.6214E-02  0.6207E-02  0.1470E-03  0.1458E-03  0.1463E-03  0.1463E-03  0.1470E-03  0.1458E-03  0.9470E-06  0.9389E-06  0.8817E-06  0.8728E-06  0.8214E-06  0.8119E-06  0.8817E-06  0.8728E-06  0.7127E-06  0.7023E-06
     -2.435  0.6343E-02  0.6332E-02  0.1728E-03  0.1720E-03  0.1655E-03  0.1638E-03  0.1728E-03  0.1720E-03  0.1242E-05  0.1227E-05  0.1282E-05  0.1260E-05  0.9284E-06  0.9217E-06  0.1282E-05  0.1260E-05  0.8850E-06  0.8835E-06
     -2.365  0.6688E-02  0.6670E-02  0.1939E-03  0.1930E-03  0.2212E-03  0.2189E-03  0.1939E-03  0.1930E-03  0.1765E-05  0.1739E-05  0.1835E-05  0.1818E-05  0.1109E-05  0.1094E-05  0.1835E-05  0.1818E-05  0.9062E-06  0.9063E-06
     -2.295  0.6864E-02  0.6869E-02  0.2144E-03  0.2141E-03  0.2624E-03  0.2612E-03  0.2144E-03  0.2141E-03  0.2476E-05  0.2455E-05  0.2081E-05  0.2079E-05  0.1555E-05  0.1535E-05  0.2081E-05  0.2079E-05  0.9448E-06  0.9442E-06
     -2.225  0.6410E-02  0.6424E-02  0.2150E-03  0.2148E-03  0.2877E-03  0.2865E-03  0.2150E-03  0.2148E-03  0.2659E-05  0.2662E-05  0.2293E-05  0.2274E-05  0.1882E-05  0.1874E-05  0.2293E-05  0.2274E-05  0.1085E-05  0.1073E-05
     -2.155  0.6757E-02  0.6710E-02  0.2617E-03  0.2584E-03  0.3243E-03  0.3224E-03  0.2617E-03  0.2584E-03  0.2861E-05  0.2841E-05  0.3188E-05  0.3142E-05  0.2168E-05  0.2148E-05  0.3188E-05  0.3142E-05  0.1853E-05  0.1809E-05
     -2.086  0.8066E-02  0.8023E-02  0.3565E-03  0.3535E-03  0.3798E-03  0.3777E-03  0.3565E-03  0.3535E-03  0.3702E-05  0.3665E-05  0.4346E-05  0.4312E-05  0.2864E-05  0.2831E-05  0.4346E-05  0.4312E-05  0.3007E-05  0.2974E-05
     -2.016  0.8172E-02  0.8195E-02  0.3935E-03  0.3934E-03  0.3921E-03  0.3929E-03  0.3935E-03  0.3934E-03  0.4828E-05  0.4781E-05  0.4704E-05  0.4707E-05  0.3389E-05  0.3375E-05  0.4704E-05  0.4707E-05  0.3326E-05  0.3333E-05
     -1.946  0.7651E-02  0.7649E-02  0.4076E-03  0.4064E-03  0.3822E-03  0.3806E-03  0.4076E-03  0.4064E-03  0.6300E-05  0.6237E-05  0.4957E-05  0.4927E-05  0.3662E-05  0.3638E-05  0.4957E-05  0.4927E-05  0.3238E-05  0.3238E-05
     -1.876  0.7974E-02  0.7962E-02  0.4373E-03  0.4374E-03  0.4853E-03  0.4794E-03  0.4373E-03  0.4374E-03  0.7691E-05  0.7671E-05  0.6235E-05  0.6180E-05  0.4433E-05  0.4398E-05  0.6235E-05  0.6180E-05  0.3230E-05  0.3242E-05
     -1.806  0.7583E-02  0.7608E-02  0.4007E-03  0.4026E-03  0.6045E-03  0.6008E-03  0.4007E-03  0.4026E-03  0.7145E-05  0.7197E-05  0.7478E-05  0.7430E-05  0.4821E-05  0.4826E-05  0.7478E-05  0.7430E-05  0.2890E-05  0.2898E-05
     -1.736  0.7270E-02  0.7260E-02  0.4064E-03  0.4041E-03  0.6528E-03  0.6515E-03  0.4064E-03  0.4041E-03  0.6842E-05  0.6811E-05  0.8963E-05  0.8903E-05  0.4833E-05  0.4825E-05  0.8963E-05  0.8903E-05  0.3400E-05  0.3358E-05
     -1.666  0.7852E-02  0.7814E-02  0.5072E-03  0.5021E-03  0.6757E-03  0.6744E-03  0.5072E-03  0.5021E-03  0.9221E-05  0.9084E-05  0.1023E-04  0.1019E-04  0.6035E-05  0.5959E-05  0.1023E-04  0.1019E-04  0.4920E-05  0.4850E-05
     -1.596  0.8739E-02  0.8713E-02  0.6490E-03  0.6443E-03  0.6764E-03  0.6777E-03  0.6490E-03  0.6443E-03  0.1313E-04  0.1301E-04  0.1099E-04  0.1097E-04  0.8013E-05  0.7955E-05  0.1099E-04  0.1097E-04  0.6985E-05  0.6907E-05
     -1.526  0.8590E-02  0.8613E-02  0.7117E-03  0.7116E-03  0.6153E-03  0.6165E-03  0.7117E-03  0.7116E-03  0.1446E-04  0.1447E-04  0.1132E-04  0.1130E-04  0.8286E-05  0.8294E-05  0.1132E-04  0.1130E-04  0.8470E-05  0.8444E-05
     -1.456  0.8241E-02  0.8232E-02  0.7205E-03  0.7196E-03  0.6932E-03  0.6847E-03  0.7205E-03  0.7196E-03  0.1447E-04  0.1446E-04  0.1296E-04  0.1285E-04  0.8541E-05  0.8483E-05  0.1296E-04  0.1285E-04  0.8998E-05  0.8978E-05
     -1.387  0.8700E-02  0.8682E-02  0.7563E-03  0.7561E-03  0.9695E-03  0.9567E-03  0.7563E-03  0.7561E-03  0.1482E-04  0.1483E-04  0.1645E-04  0.1631E-04  0.1048E-04  0.1041E-04  0.1645E-04  0.1631E-04  0.9689E-05  0.9689E-05
     -1.317  0.8352E-02  0.8383E-02  0.7147E-03  0.7175E-03  0.1144E-02  0.1141E-02  0.7147E-03  0.7175E-03  0.1524E-04  0.1518E-04  0.1888E-04  0.1884E-04  0.1095E-04  0.1099E-04  0.1888E-04  0.1884E-04  0.8569E-05  0.8654E-05
     -1.247  0.7873E-02  0.7863E-02  0.7260E-03  0.7223E-03  0.1121E-02  0.1120E-02  0.7260E-03  0.7223E-03  0.1980E-04  0.1953E-04  0.2053E-04  0.2042E-04  0.1022E-04  0.1023E-04  0.2053E-04  0.2042E-04  0.7365E-05  0.7374E-05
     -1.177  0.8421E-02  0.8408E-02  0.8433E-03  0.8408E-03  0.1221E-02  0.1214E-02  0.8433E-03  0.8408E-03  0.2617E-04  0.2602E-04  0.2402E-04  0.2393E-04  0.1145E-04  0.1138E-04  0.2402E-04  0.2393E-04  0.7988E-05  0.7971E-05
     -1.107  0.7680E-02  0.7734E-02  0.8249E-03  0.8274E-03  0.1192E-02  0.1197E-02  0.8249E-03  0.8274E-03  0.2734E-04  0.2738E-04  0.2232E-04  0.2250E-04  0.1247E-04  0.1247E-04  0.2232E-04  0.2250E-04  0.8333E-05  0.8315E-05
     -1.037  0.6772E-02  0.6773E-02  0.8405E-03  0.8363E-03  0.1095E-02  0.1090E-02  0.8405E-03  0.8363E-03  0.2657E-04  0.2663E-04  0.2049E-04  0.2037E-04  0.1272E-04  0.1268E-04  0.2049E-04  0.2037E-04  0.1076E-04  0.1059E-04
     -0.967  0.7663E-02  0.7601E-02  0.1040E-02  0.1031E-02  0.1387E-02  0.1368E-02  0.1040E-02  0.1031E-02  0.2636E-04  0.2633E-04  0.2872E-04  0.2823E-04  0.1494E-04  0.1481E-04  0.2872E-04  0.2823E-04  0.1649E-04  0.1627E-04
     -0.897  0.8720E-02  0.8702E-02  0.1218E-02  0.1215E-02  0.1731E-02  0.1721E-02  0.1218E-02  0.1215E-02  0.2812E-04  0.2807E-04  0.3944E-04  0.3911E-04  0.1681E-04  0.1679E-04  0.3944E-04  0.3911E-04  0.1998E-04  0.1996E-04
     -0.827  0.8374E-02  0.8402E-02  0.1244E-02  0.1244E-02  0.1777E-02  0.1780E-02  0.1244E-02  0.1244E-02  0.3092E-04  0.3074E-04  0.4199E-04  0.4206E-04  0.1656E-04  0.1656E-04  0.4199E-04  0.4206E-04  0.1998E-04  0.2000E-04
     -0.757  0.7765E-02  0.7781E-02  0.1283E-02  0.1281E-02  0.1551E-02  0.1562E-02  0.1283E-02  0.1281E-02  0.4017E-04  0.3971E-04  0.3814E-04  0.3829E-04  0.1732E-04  0.1726E-04  0.3814E-04  0.3829E-04  0.1964E-04  0.1970E-04
     -0.688  0.7264E-02  0.7291E-02  0.1296E-02  0.1298E-02  0.1327E-02  0.1334E-02  0.1296E-02  0.1298E-02  0.4998E-04  0.4983E-04  0.3594E-04  0.3598E-04  0.1737E-04  0.1740E-04  0.3594E-04  0.3598E-04  0.1715E-04  0.1728E-04
     -0.618  0.6301E-02  0.6338E-02  0.1237E-02  0.1239E-02  0.1258E-02  0.1255E-02  0.1237E-02  0.1239E-02  0.4833E-04  0.4853E-04  0.3583E-04  0.3573E-04  0.1539E-04  0.1545E-04  0.3583E-04  0.3573E-04  0.1529E-04  0.1534E-04
     -0.548  0.5960E-02  0.5948E-02  0.1252E-02  0.1249E-02  0.1466E-02  0.1449E-02  0.1252E-02  0.1249E-02  0.4882E-04  0.4864E-04  0.4382E-04  0.4321E-04  0.1531E-04  0.1524E-04  0.4382E-04  0.4321E-04  0.1457E-04  0.1462E-04