   8   8   1   0
  0.1342466E+02  0.3744221E-09  0.3744221E-09  0.7660735E-09  0.5000000E-15
  1.000000000000000E-004
  CAR 
 unknown system                          
     18.54904805     -3.73287851  301      9.13797015      1.00000000
     -3.733  0.0000E+00  0.0000E+00  0.0000E+00  0.0000E+00
     -3.659  0.0000E+00  0.0000E+00  0.0000E+00  0.0000E+00
     -3.584  0.0000E+00  0.0000E+00  0.0000E+00  0.0000E+00
     -3.510  0.0000E+00  0.0000E+00  0.0000E+00  0.0000E+00
     -3.436  0.0000E+00  0.0000E+00  0.0000E+00  0.0000E+00
     -3.362  0.0000E+00  0.0000E+00  0.0000E+00  0.0000E+00
     -3.287  0.0000E+00  0.0000E+00  0.0000E+00  0.0000E+00
     -3.213  0.0000E+00  0.0000E+00  0.0000E+00  0.0000E+00
     -3.139  0.4528E-05  0.4423E-05  0.3363E-06  0.3285E-06
     -3.064  0.4235E-04  0.4137E-04  0.3482E-05  0.3401E-05
     -2.990  0.1739E-03  0.1682E-03  0.1640E-04  0.1589E-04
     -2.916  0.7638E-03  0.7480E-03  0.7313E-04  0.7145E-04
     -2.842  0.3303E-02  0.3230E-02  0.3185E-03  0.3113E-03
     -2.767  0.1299E-01  0.1273E-01  0.1283E-02  0.1257E-02
     -2.693  0.4071E-01  0.4009E-01  0.4306E-02  0.4234E-02
     -2.619  0.8789E-01  0.8712E-01  0.1083E-01  0.1070E-01
     -2.545  0.1291E+00  0.1286E+00  0.2043E-01  0.2026E-01
     -2.470  0.1657E+00  0.1650E+00  0.3274E-01  0.3251E-01
     -2.396  0.2158E+00  0.2152E+00  0.4876E-01  0.4850E-01
     -2.322  0.2246E+00  0.2248E+00  0.6545E-01  0.6520E-01
     -2.247  0.2265E+00  0.2260E+00  0.8227E-01  0.8199E-01
     -2.173  0.2786E+00  0.2779E+00  0.1030E+00  0.1026E+00
     -2.099  0.3029E+00  0.3028E+00  0.1255E+00  0.1251E+00
     -2.025  0.3108E+00  0.3106E+00  0.1486E+00  0.1482E+00
     -1.950  0.3333E+00  0.3329E+00  0.1734E+00  0.1730E+00
     -1.876  0.3503E+00  0.3503E+00  0.1994E+00  0.1990E+00
     -1.802  0.3268E+00  0.3272E+00  0.2237E+00  0.2233E+00
     -1.728  0.3451E+00  0.3441E+00  0.2493E+00  0.2489E+00
     -1.653  0.4284E+00  0.4274E+00  0.2811E+00  0.2806E+00
     -1.579  0.4430E+00  0.4436E+00  0.3141E+00  0.3136E+00
     -1.505  0.4114E+00  0.4114E+00  0.3446E+00  0.3442E+00
     -1.430  0.4436E+00  0.4432E+00  0.3776E+00  0.3771E+00
     -1.356  0.4320E+00  0.4326E+00  0.4097E+00  0.4092E+00
     -1.282  0.4159E+00  0.4156E+00  0.4406E+00  0.4401E+00
     -1.208  0.4553E+00  0.4544E+00  0.4745E+00  0.4739E+00
     -1.133  0.5214E+00  0.5206E+00  0.5132E+00  0.5126E+00
     -1.059  0.5209E+00  0.5214E+00  0.5519E+00  0.5514E+00
     -0.985  0.5029E+00  0.5027E+00  0.5893E+00  0.5887E+00
     -0.911  0.5588E+00  0.5582E+00  0.6308E+00  0.6302E+00
     -0.836  0.5621E+00  0.5629E+00  0.6726E+00  0.6720E+00
     -0.762  0.5270E+00  0.5269E+00  0.7118E+00  0.7112E+00
     -0.688  0.5870E+00  0.5863E+00  0.7554E+00  0.7548E+00
     -0.613  0.5605E+00  0.5619E+00  0.7970E+00  0.7965E+00
     -0.539  0.4940E+00  0.4940E+00  0.8338E+00  0.8332E+00
     -0.465  0.5847E+00  0.5827E+00  0.8772E+00  0.8766E+00
     -0.391  0.7096E+00  0.7088E+00  0.9300E+00  0.9292E+00
     -0.316  0.7106E+00  0.7112E+00  0.9828E+00  0.9821E+00
     -0.242  0.6699E+00  0.6702E+00  0.1033E+01  0.1032E+01
     -0.168  0.6317E+00  0.6323E+00  0.1080E+01  0.1079E+01
     -0.093  0.5683E+00  0.5692E+00  0.1122E+01  0.1121E+01
     -0.019  0.5658E+00  0.5652E+00  0.1164E+01  0.1163E+01
      0.055  0.6559E+00  0.6548E+00  0.1213E+01  0.1212E+01
      0.129  0.6874E+00  0.6873E+00  0.1264E+01  0.1263E+01
      0.204  0.6905E+00  0.6897E+00  0.1315E+01  0.1314E+01
      0.278  0.7115E+00  0.7116E+00  0.1368E+01  0.1367E+01
      0.352  0.6602E+00  0.6606E+00  0.1417E+01  0.1416E+01
      0.426  0.6808E+00  0.6798E+00  0.1468E+01  0.1467E+01
      0.501  0.7689E+00  0.7683E+00  0.1525E+01  0.1524E+01
      0.575  0.7825E+00  0.7832E+00  0.1583E+01  0.1582E+01
      0.649  0.6489E+00  0.6504E+00  0.1631E+01  0.1630E+01
      0.724  0.5427E+00  0.5428E+00  0.1671E+01  0.1671E+01
      0.798  0.5511E+00  0.5504E+00  0.1712E+01  0.1712E+01
      0.872  0.6376E+00  0.6358E+00  0.1760E+01  0.1759E+01
      0.946  0.7389E+00  0.7385E+00  0.1815E+01  0.1814E+01
      1.021  0.7616E+00  0.7616E+00  0.1871E+01  0.1870E+01
      1.095  0.7740E+00  0.7729E+00  0.1929E+01  0.1928E+01
      1.169  0.8268E+00  0.8260E+00  0.1990E+01  0.1989E+01
      1.243  0.8121E+00  0.8137E+00  0.2051E+01  0.2050E+01
      1.318  0.7318E+00  0.7327E+00  0.2105E+01  0.2104E+01
      1.392  0.7826E+00  0.7809E+00  0.2163E+01  0.2162E+01
      1.466  0.8704E+00  0.8699E+00  0.2228E+01  0.2227E+01
      1.541  0.8277E+00  0.8289E+00  0.2289E+01  0.2289E+01
      1.615  0.7773E+00  0.7768E+00  0.2347E+01  0.2346E+01
      1.689  0.8715E+00  0.8700E+00  0.2412E+01  0.2411E+01
      1.763  0.8980E+00  0.8988E+00  0.2479E+01  0.2478E+01
      1.838  0.8504E+00  0.8515E+00  0.2542E+01  0.2541E+01
      1.912  0.7744E+00  0.7746E+00  0.2599E+01  0.2599E+01
      1.986  0.7350E+00  0.7349E+00  0.2654E+01  0.2653E+01
      2.060  0.7312E+00  0.7316E+00  0.2708E+01  0.2708E+01
      2.135  0.7491E+00  0.7491E+00  0.2764E+01  0.2763E+01
      2.209  0.7410E+00  0.7410E+00  0.2819E+01  0.2818E+01
      2.283  0.7628E+00  0.7609E+00  0.2876E+01  0.2875E+01
      2.358  0.8893E+00  0.8866E+00  0.2942E+01  0.2941E+01
      2.432  0.9807E+00  0.9791E+00  0.3015E+01  0.3014E+01
      2.506  0.1027E+01  0.1026E+01  0.3091E+01  0.3090E+01
      2.580  0.1059E+01  0.1060E+01  0.3170E+01  0.3169E+01
      2.655  0.9798E+00  0.9819E+00  0.3243E+01  0.3242E+01
      2.729  0.8159E+00  0.8170E+00  0.3303E+01  0.3302E+01
      2.803  0.7844E+00  0.7833E+00  0.3362E+01  0.3361E+01
      2.877  0.8788E+00  0.8773E+00  0.3427E+01  0.3426E+01
      2.952  0.1068E+01  0.1066E+01  0.3506E+01  0.3505E+01
      3.026  0.1142E+01  0.1142E+01  0.3591E+01  0.3590E+01
      3.100  0.1044E+01  0.1047E+01  0.3669E+01  0.3668E+01
      3.175  0.9040E+00  0.9061E+00  0.3736E+01  0.3735E+01
      3.249  0.7873E+00  0.7887E+00  0.3795E+01  0.3794E+01
      3.323  0.7632E+00  0.7634E+00  0.3851E+01  0.3850E+01
      3.397  0.8808E+00  0.8782E+00  0.3917E+01  0.3916E+01
      3.472  0.1067E+01  0.1065E+01  0.3996E+01  0.3995E+01
      3.546  0.1096E+01  0.1094E+01  0.4078E+01  0.4076E+01
      3.620  0.1104E+01  0.1102E+01  0.4160E+01  0.4158E+01
      3.694  0.1105E+01  0.1108E+01  0.4242E+01  0.4240E+01
      3.769  0.1029E+01  0.1030E+01  0.4318E+01  0.4317E+01
      3.843  0.1153E+01  0.1150E+01  0.4404E+01  0.4402E+01
      3.917  0.1247E+01  0.1247E+01  0.4497E+01  0.4495E+01
      3.992  0.1096E+01  0.1098E+01  0.4578E+01  0.4577E+01
      4.066  0.9890E+00  0.9899E+00  0.4652E+01  0.4650E+01
      4.140  0.9328E+00  0.9358E+00  0.4721E+01  0.4720E+01
      4.214  0.8207E+00  0.8219E+00  0.4782E+01  0.4781E+01
      4.289  0.8751E+00  0.8714E+00  0.4847E+01  0.4846E+01
      4.363  0.1115E+01  0.1110E+01  0.4930E+01  0.4928E+01
      4.437  0.1293E+01  0.1291E+01  0.5026E+01  0.5024E+01
      4.511  0.1349E+01  0.1347E+01  0.5126E+01  0.5124E+01
      4.586  0.1374E+01  0.1376E+01  0.5228E+01  0.5227E+01
      4.660  0.1282E+01  0.1284E+01  0.5324E+01  0.5322E+01
      4.734  0.1204E+01  0.1205E+01  0.5413E+01  0.5412E+01
      4.809  0.1194E+01  0.1194E+01  0.5502E+01  0.5500E+01
      4.883  0.1189E+01  0.1190E+01  0.5590E+01  0.5589E+01
      4.957  0.1098E+01  0.1100E+01  0.5672E+01  0.5671E+01
      5.031  0.1013E+01  0.1013E+01  0.5747E+01  0.5746E+01
      5.106  0.1072E+01  0.1070E+01  0.5827E+01  0.5825E+01
      5.180  0.1140E+01  0.1140E+01  0.5912E+01  0.5910E+01
      5.254  0.1173E+01  0.1173E+01  0.5999E+01  0.5997E+01
      5.328  0.1192E+01  0.1191E+01  0.6087E+01  0.6086E+01
      5.403  0.1240E+01  0.1238E+01  0.6179E+01  0.6178E+01
      5.477  0.1306E+01  0.1306E+01  0.6277E+01  0.6275E+01
      5.551  0.1254E+01  0.1257E+01  0.6370E+01  0.6368E+01
      5.626  0.1038E+01  0.1042E+01  0.6447E+01  0.6446E+01
      5.700  0.8702E+00  0.8718E+00  0.6512E+01  0.6511E+01
      5.774  0.8163E+00  0.8166E+00  0.6572E+01  0.6571E+01
      5.848  0.7877E+00  0.7869E+00  0.6631E+01  0.6630E+01
      5.923  0.8354E+00  0.8332E+00  0.6693E+01  0.6692E+01
      5.997  0.1013E+01  0.1008E+01  0.6768E+01  0.6767E+01
      6.071  0.1420E+01  0.1411E+01  0.6874E+01  0.6872E+01
      6.145  0.1868E+01  0.1863E+01  0.7013E+01  0.7010E+01
      6.220  0.1897E+01  0.1902E+01  0.7154E+01  0.7151E+01
      6.294  0.1501E+01  0.1509E+01  0.7265E+01  0.7263E+01
      6.368  0.1201E+01  0.1205E+01  0.7354E+01  0.7353E+01
      6.443  0.1084E+01  0.1084E+01  0.7435E+01  0.7433E+01
      6.517  0.1128E+01  0.1126E+01  0.7519E+01  0.7517E+01
      6.591  0.1181E+01  0.1182E+01  0.7607E+01  0.7605E+01
      6.665  0.1125E+01  0.1127E+01  0.7690E+01  0.7689E+01
      6.740  0.1098E+01  0.1097E+01  0.7772E+01  0.7770E+01
      6.814  0.1185E+01  0.1183E+01  0.7860E+01  0.7858E+01
      6.888  0.1289E+01  0.1287E+01  0.7956E+01  0.7954E+01
      6.962  0.1382E+01  0.1380E+01  0.8059E+01  0.8057E+01
      7.037  0.1381E+01  0.1382E+01  0.8161E+01  0.8159E+01
      7.111  0.1402E+01  0.1400E+01  0.8265E+01  0.8263E+01
      7.185  0.1515E+01  0.1514E+01  0.8378E+01  0.8376E+01
      7.260  0.1448E+01  0.1451E+01  0.8486E+01  0.8484E+01
      7.334  0.1309E+01  0.1311E+01  0.8583E+01  0.8581E+01
      7.408  0.1209E+01  0.1210E+01  0.8673E+01  0.8671E+01
      7.482  0.1140E+01  0.1139E+01  0.8758E+01  0.8756E+01
      7.557  0.1235E+01  0.1231E+01  0.8849E+01  0.8847E+01
      7.631  0.1313E+01  0.1315E+01  0.8947E+01  0.8945E+01
      7.705  0.1267E+01  0.1269E+01  0.9041E+01  0.9039E+01
      7.779  0.1208E+01  0.1210E+01  0.9131E+01  0.9129E+01
      7.854  0.1086E+01  0.1089E+01  0.9212E+01  0.9210E+01
      7.928  0.1028E+01  0.1028E+01  0.9288E+01  0.9287E+01
      8.002  0.1039E+01  0.1038E+01  0.9365E+01  0.9364E+01
      8.077  0.1141E+01  0.1135E+01  0.9450E+01  0.9448E+01
      8.151  0.1449E+01  0.1442E+01  0.9558E+01  0.9555E+01
      8.225  0.1662E+01  0.1660E+01  0.9681E+01  0.9679E+01
      8.299  0.1747E+01  0.1746E+01  0.9811E+01  0.9809E+01
      8.374  0.1778E+01  0.1778E+01  0.9943E+01  0.9941E+01
      8.448  0.1690E+01  0.1693E+01  0.1007E+02  0.1007E+02
      8.522  0.1518E+01  0.1523E+01  0.1018E+02  0.1018E+02
      8.596  0.1307E+01  0.1312E+01  0.1028E+02  0.1028E+02
      8.671  0.1151E+01  0.1154E+01  0.1036E+02  0.1036E+02
      8.745  0.1110E+01  0.1107E+01  0.1045E+02  0.1045E+02
      8.819  0.1225E+01  0.1221E+01  0.1054E+02  0.1054E+02
      8.894  0.1294E+01  0.1292E+01  0.1063E+02  0.1063E+02
      8.968  0.1400E+01  0.1397E+01  0.1074E+02  0.1074E+02
      9.042  0.1567E+01  0.1565E+01  0.1085E+02  0.1085E+02
      9.116  0.1554E+01  0.1557E+01  0.1097E+02  0.1097E+02
      9.191  0.1356E+01  0.1359E+01  0.1107E+02  0.1107E+02
      9.265  0.1289E+01  0.1288E+01  0.1117E+02  0.1116E+02
      9.339  0.1341E+01  0.1341E+01  0.1127E+02  0.1126E+02
      9.413  0.1318E+01  0.1320E+01  0.1136E+02  0.1136E+02
      9.488  0.1343E+01  0.1343E+01  0.1146E+02  0.1146E+02
      9.562  0.1344E+01  0.1347E+01  0.1156E+02  0.1156E+02
      9.636  0.1217E+01  0.1220E+01  0.1165E+02  0.1165E+02
      9.711  0.1206E+01  0.1204E+01  0.1174E+02  0.1174E+02
      9.785  0.1282E+01  0.1282E+01  0.1184E+02  0.1184E+02
      9.859  0.1198E+01  0.1200E+01  0.1193E+02  0.1193E+02
      9.933  0.1150E+01  0.1150E+01  0.1201E+02  0.1201E+02
     10.008  0.1241E+01  0.1239E+01  0.1211E+02  0.1210E+02
     10.082  0.1382E+01  0.1380E+01  0.1221E+02  0.1221E+02
     10.156  0.1392E+01  0.1394E+01  0.1231E+02  0.1231E+02
     10.230  0.1291E+01  0.1292E+01  0.1241E+02  0.1241E+02
     10.305  0.1295E+01  0.1293E+01  0.1251E+02  0.1250E+02
     10.379  0.1347E+01  0.1346E+01  0.1261E+02  0.1260E+02
     10.453  0.1350E+01  0.1350E+01  0.1271E+02  0.1270E+02
     10.528  0.1332E+01  0.1332E+01  0.1280E+02  0.1280E+02
     10.602  0.1374E+01  0.1372E+01  0.1291E+02  0.1290E+02
     10.676  0.1482E+01  0.1479E+01  0.1302E+02  0.1301E+02
     10.750  0.1515E+01  0.1515E+01  0.1313E+02  0.1313E+02
     10.825  0.1598E+01  0.1596E+01  0.1325E+02  0.1325E+02
     10.899  0.1760E+01  0.1760E+01  0.1338E+02  0.1338E+02
     10.973  0.1751E+01  0.1753E+01  0.1351E+02  0.1351E+02
     11.047  0.1603E+01  0.1605E+01  0.1363E+02  0.1363E+02
     11.122  0.1380E+01  0.1384E+01  0.1373E+02  0.1373E+02
     11.196  0.1312E+01  0.1310E+01  0.1383E+02  0.1383E+02
     11.270  0.1599E+01  0.1594E+01  0.1395E+02  0.1394E+02
     11.345  0.1679E+01  0.1681E+01  0.1407E+02  0.1407E+02
     11.419  0.1399E+01  0.1404E+01  0.1418E+02  0.1417E+02
     11.493  0.1232E+01  0.1232E+01  0.1427E+02  0.1427E+02
     11.567  0.1377E+01  0.1372E+01  0.1437E+02  0.1437E+02
     11.642  0.1577E+01  0.1576E+01  0.1449E+02  0.1448E+02
     11.716  0.1504E+01  0.1507E+01  0.1460E+02  0.1460E+02
     11.790  0.1455E+01  0.1453E+01  0.1471E+02  0.1470E+02
     11.864  0.1598E+01  0.1592E+01  0.1483E+02  0.1482E+02
     11.939  0.1835E+01  0.1832E+01  0.1496E+02  0.1496E+02
     12.013  0.1872E+01  0.1876E+01  0.1510E+02  0.1510E+02
     12.087  0.1625E+01  0.1631E+01  0.1522E+02  0.1522E+02
     12.162  0.1357E+01  0.1360E+01  0.1532E+02  0.1532E+02
     12.236  0.1312E+01  0.1311E+01  0.1542E+02  0.1542E+02
     12.310  0.1325E+01  0.1326E+01  0.1552E+02  0.1552E+02
     12.384  0.1294E+01  0.1293E+01  0.1562E+02  0.1561E+02
     12.459  0.1357E+01  0.1354E+01  0.1572E+02  0.1571E+02
     12.533  0.1591E+01  0.1586E+01  0.1583E+02  0.1583E+02
     12.607  0.1780E+01  0.1780E+01  0.1597E+02  0.1596E+02
     12.681  0.1770E+01  0.1771E+01  0.1610E+02  0.1610E+02
     12.756  0.1631E+01  0.1633E+01  0.1622E+02  0.1622E+02
     12.830  0.1510E+01  0.1511E+01  0.1633E+02  0.1633E+02
     12.904  0.1519E+01  0.1520E+01  0.1644E+02  0.1644E+02
     12.979  0.1450E+01  0.1452E+01  0.1655E+02  0.1655E+02
     13.053  0.1525E+01  0.1521E+01  0.1667E+02  0.1666E+02
     13.127  0.1666E+01  0.1663E+01  0.1679E+02  0.1679E+02
     13.201  0.1732E+01  0.1730E+01  0.1692E+02  0.1692E+02
     13.276  0.1750E+01  0.1751E+01  0.1705E+02  0.1705E+02
     13.350  0.1667E+01  0.1671E+01  0.1717E+02  0.1717E+02
     13.424  0.1475E+01  0.1479E+01  0.1728E+02  0.1728E+02
     13.498  0.1363E+01  0.1366E+01  0.1738E+02  0.1738E+02
     13.573  0.1290E+01  0.1291E+01  0.1748E+02  0.1748E+02
     13.647  0.1250E+01  0.1249E+01  0.1757E+02  0.1757E+02
     13.721  0.1329E+01  0.1325E+01  0.1767E+02  0.1767E+02
     13.796  0.1502E+01  0.1498E+01  0.1778E+02  0.1778E+02
     13.870  0.1586E+01  0.1585E+01  0.1790E+02  0.1790E+02
     13.944  0.1535E+01  0.1537E+01  0.1801E+02  0.1801E+02
     14.018  0.1460E+01  0.1462E+01  0.1812E+02  0.1812E+02
     14.093  0.1540E+01  0.1541E+01  0.1824E+02  0.1824E+02
     14.167  0.1631E+01  0.1637E+01  0.1836E+02  0.1836E+02
     14.241  0.1599E+01  0.1603E+01  0.1848E+02  0.1848E+02
     14.315  0.1553E+01  0.1543E+01  0.1859E+02  0.1859E+02
     14.390  0.1390E+01  0.1383E+01  0.1870E+02  0.1869E+02
     14.464  0.1200E+01  0.1182E+01  0.1879E+02  0.1878E+02
     14.538  0.1144E+01  0.1115E+01  0.1887E+02  0.1886E+02
     14.613  0.1111E+01  0.1120E+01  0.1895E+02  0.1895E+02
     14.687  0.9949E+00  0.1025E+01  0.1903E+02  0.1902E+02
     14.761  0.9251E+00  0.9447E+00  0.1910E+02  0.1909E+02
     14.835  0.9796E+00  0.9751E+00  0.1917E+02  0.1917E+02
     14.910  0.1003E+01  0.9691E+00  0.1924E+02  0.1924E+02
     14.984  0.9522E+00  0.9223E+00  0.1931E+02  0.1931E+02
     15.058  0.8920E+00  0.9144E+00  0.1938E+02  0.1938E+02
     15.132  0.7746E+00  0.8057E+00  0.1944E+02  0.1944E+02
     15.207  0.6124E+00  0.6313E+00  0.1948E+02  0.1948E+02
     15.281  0.4514E+00  0.4603E+00  0.1952E+02  0.1952E+02
     15.355  0.3388E+00  0.3438E+00  0.1954E+02  0.1954E+02
     15.430  0.3134E+00  0.3169E+00  0.1957E+02  0.1957E+02
     15.504  0.4229E+00  0.4353E+00  0.1960E+02  0.1960E+02
     15.578  0.4548E+00  0.4911E+00  0.1963E+02  0.1963E+02
     15.652  0.4139E+00  0.4316E+00  0.1966E+02  0.1967E+02
     15.727  0.4063E+00  0.3683E+00  0.1969E+02  0.1969E+02
     15.801  0.3579E+00  0.3234E+00  0.1972E+02  0.1972E+02
     15.875  0.2377E+00  0.2337E+00  0.1974E+02  0.1974E+02
     15.949  0.1739E+00  0.1777E+00  0.1975E+02  0.1975E+02
     16.024  0.2309E+00  0.2305E+00  0.1977E+02  0.1977E+02
     16.098  0.2871E+00  0.2860E+00  0.1979E+02  0.1979E+02
     16.172  0.2378E+00  0.2325E+00  0.1981E+02  0.1980E+02
     16.247  0.2065E+00  0.1910E+00  0.1982E+02  0.1982E+02
     16.321  0.2349E+00  0.2275E+00  0.1984E+02  0.1984E+02
     16.395  0.2700E+00  0.2786E+00  0.1986E+02  0.1986E+02
     16.469  0.2436E+00  0.2540E+00  0.1988E+02  0.1988E+02
     16.544  0.1560E+00  0.1637E+00  0.1989E+02  0.1989E+02
     16.618  0.1113E+00  0.1047E+00  0.1990E+02  0.1990E+02
     16.692  0.1695E+00  0.1423E+00  0.1991E+02  0.1991E+02
     16.766  0.2229E+00  0.2043E+00  0.1993E+02  0.1992E+02
     16.841  0.1887E+00  0.2154E+00  0.1994E+02  0.1994E+02
     16.915  0.1449E+00  0.1707E+00  0.1995E+02  0.1995E+02
     16.989  0.9600E-01  0.1098E+00  0.1996E+02  0.1996E+02
     17.064  0.7087E-01  0.8280E-01  0.1996E+02  0.1996E+02
     17.138  0.8757E-01  0.8438E-01  0.1997E+02  0.1997E+02
     17.212  0.9891E-01  0.7697E-01  0.1998E+02  0.1998E+02
     17.286  0.1085E+00  0.9082E-01  0.1998E+02  0.1998E+02
     17.361  0.7938E-01  0.8344E-01  0.1999E+02  0.1999E+02
     17.435  0.3945E-01  0.5149E-01  0.1999E+02  0.1999E+02
     17.509  0.3384E-01  0.3714E-01  0.2000E+02  0.2000E+02
     17.583  0.3265E-01  0.3566E-01  0.2000E+02  0.2000E+02
     17.658  0.1538E-01  0.1896E-01  0.2000E+02  0.2000E+02
     17.732  0.4384E-02  0.5722E-02  0.2000E+02  0.2000E+02
     17.806  0.1056E-02  0.1369E-02  0.2000E+02  0.2000E+02
     17.881  0.2425E-03  0.3158E-03  0.2000E+02  0.2000E+02
     17.955  0.0000E+00  0.0000E+00  0.2000E+02  0.2000E+02
     18.029  0.0000E+00  0.0000E+00  0.2000E+02  0.2000E+02
     18.103  0.0000E+00  0.0000E+00  0.2000E+02  0.2000E+02
     18.178  0.0000E+00  0.0000E+00  0.2000E+02  0.2000E+02
     18.252  0.0000E+00  0.0000E+00  0.2000E+02  0.2000E+02
     18.326  0.0000E+00  0.0000E+00  0.2000E+02  0.2000E+02
     18.401  0.0000E+00  0.0000E+00  0.2000E+02  0.2000E+02
     18.475  0.0000E+00  0.0000E+00  0.2000E+02  0.2000E+02
     18.549  0.0000E+00  0.0000E+00  0.2000E+02  0.2000E+02
     18.54904805     -3.73287851  301      9.13797015      1.00000000
     -3.733  0.0000E+00  0.0000E+00  0.0000E+00  0.0000E+00  0.0000E+00  0.0000E+00  0.0000E+00  0.0000E+00  0.0000E+00  0.0000E+00  0.0000E+00  0.0000E+00  0.0000E+00  0.0000E+00  0.0000E+00  0.0000E+00  0.0000E+00  0.0000E+00
     -3.659  0.0000E+00  0.0000E+00  0.0000E+00  0.0000E+00  0.0000E+00  0.0000E+00  0.0000E+00  0.0000E+00  0.0000E+00  0.0000E+00  0.0000E+00  0.0000E+00  0.0000E+00  0.0000E+00  0.0000E+00  0.0000E+00  0.0000E+00  0.0000E+00
     -3.584  0.0000E+00  0.0000E+00  0.0000E+00  0.0000E+00  0.0000E+00  0.0000E+00  0.0000E+00  0.0000E+00  0.0000E+00  0.0000E+00  0.0000E+00  0.0000E+00  0.0000E+00  0.0000E+00  0.0000E+00  0.0000E+00  0.0000E+00  0.0000E+00
     -3.510  0.0000E+00  0.0000E+00  0.0000E+00  0.0000E+00  0.0000E+00  0.0000E+00  0.0000E+00  0.0000E+00  0.0000E+00  0.0000E+00  0.0000E+00  0.0000E+00  0.0000E+00  0.0000E+00  0.0000E+00  0.0000E+00  0.0000E+00  0.0000E+00
     -3.436  0.0000E+00  0.0000E+00  0.0000E+00  0.0000E+00  0.0000E+00  0.0000E+00  0.0000E+00  0.0000E+00  0.0000E+00  0.0000E+00  0.0000E+00  0.0000E+00  0.0000E+00  0.0000E+00  0.0000E+00  0.0000E+00  0.0000E+00  0.0000E+00
     -3.362  0.0000E+00  0.0000E+00  0.0000E+00  0.0000E+00  0.0000E+00  0.0000E+00  0.0000E+00  0.0000E+00  0.0000E+00  0.0000E+00  0.0000E+00  0.0000E+00  0.0000E+00  0.0000E+00  0.0000E+00  0.0000E+00  0.0000E+00  0.0000E+00
     -3.287  0.0000E+00  0.0000E+00  0.0000E+00  0.0000E+00  0.0000E+00  0.0000E+00  0.0000E+00  0.0000E+00  0.0000E+00  0.0000E+00  0.0000E+00  0.0000E+00  0.0000E+00  0.0000E+00  0.0000E+00  0.0000E+00  0.0000E+00  0.0000E+00
     -3.213  0.0000E+00  0.0000E+00  0.0000E+00  0.0000E+00  0.0000E+00  0.0000E+00  0.0000E+00  0.0000E+00  0.0000E+00  0.0000E+00  0.0000E+00  0.0000E+00  0.0000E+00  0.0000E+00  0.0000E+00  0.0000E+00  0.0000E+00  0.0000E+00
     -3.139  0.1080E-06  0.1055E-06  0.1213E-20  0.6926E-21  0.2849E-09  0.2783E-09  0.1213E-20  0.6926E-21  0.3905E-21  0.5176E-22  0.1798E-21  0.7379E-22  0.1065E-11  0.1090E-11  0.1798E-21  0.7379E-22  0.4671E-22  0.1717E-21
     -3.064  0.1004E-05  0.9811E-06  0.2547E-08  0.2487E-08  0.2419E-08  0.2364E-08  0.2547E-08  0.2487E-08  0.2328E-11  0.2273E-11  0.2336E-11  0.2282E-11  0.1753E-10  0.1774E-10  0.2336E-11  0.2282E-11  0.2165E-11  0.2113E-11
     -2.990  0.4121E-05  0.3986E-05  0.1072E-07  0.1047E-07  0.1212E-07  0.1082E-07  0.1072E-07  0.1047E-07  0.1541E-10  0.1504E-10  0.1392E-10  0.1360E-10  0.6946E-10  0.6958E-10  0.1392E-10  0.1360E-10  0.7391E-11  0.7214E-11
     -2.916  0.1809E-04  0.1772E-04  0.4801E-07  0.4688E-07  0.5582E-07  0.5557E-07  0.4801E-07  0.4688E-07  0.6054E-10  0.5910E-10  0.6418E-10  0.6270E-10  0.3122E-09  0.3163E-09  0.6418E-10  0.6270E-10  0.4279E-10  0.4178E-10
     -2.842  0.7820E-04  0.7645E-04  0.2218E-06  0.2166E-06  0.2476E-06  0.2421E-06  0.2218E-06  0.2166E-06  0.3118E-09  0.3045E-09  0.3147E-09  0.3075E-09  0.1389E-08  0.1404E-08  0.3147E-09  0.3075E-09  0.2197E-09  0.2146E-09
     -2.767  0.3072E-03  0.3010E-03  0.9395E-06  0.9185E-06  0.1033E-05  0.1010E-05  0.9395E-06  0.9185E-06  0.1430E-08  0.1397E-08  0.1380E-08  0.1349E-08  0.5561E-08  0.5629E-08  0.1380E-08  0.1349E-08  0.9255E-09  0.9048E-09
     -2.693  0.9608E-03  0.9461E-03  0.3473E-05  0.3406E-05  0.3772E-05  0.3703E-05  0.3473E-05  0.3406E-05  0.5782E-08  0.5658E-08  0.5606E-08  0.5490E-08  0.1824E-07  0.1852E-07  0.5606E-08  0.5490E-08  0.3450E-08  0.3383E-08
     -2.619  0.2065E-02  0.2047E-02  0.9673E-05  0.9540E-05  0.1055E-04  0.1040E-04  0.9673E-05  0.9540E-05  0.1993E-07  0.1959E-07  0.1901E-07  0.1869E-07  0.4367E-07  0.4444E-07  0.1901E-07  0.1869E-07  0.1049E-07  0.1032E-07
     -2.545  0.3012E-02  0.3000E-02  0.1929E-04  0.1910E-04  0.2236E-04  0.2214E-04  0.1929E-04  0.1910E-04  0.4902E-07  0.4842E-07  0.4826E-07  0.4764E-07  0.7938E-07  0.8047E-07  0.4826E-07  0.4764E-07  0.2951E-07  0.2902E-07
     -2.470  0.3822E-02  0.3805E-02  0.3504E-04  0.3468E-04  0.4049E-04  0.4016E-04  0.3504E-04  0.3468E-04  0.1052E-06  0.1038E-06  0.1081E-06  0.1068E-06  0.1424E-06  0.1432E-06  0.1081E-06  0.1068E-06  0.7986E-07  0.7877E-07
     -2.396  0.4929E-02  0.4915E-02  0.5966E-04  0.5926E-04  0.6055E-04  0.6029E-04  0.5966E-04  0.5926E-04  0.2284E-06  0.2261E-06  0.2148E-06  0.2129E-06  0.2392E-06  0.2410E-06  0.2148E-06  0.2129E-06  0.1492E-06  0.1483E-06
     -2.322  0.5082E-02  0.5087E-02  0.7324E-04  0.7310E-04  0.7553E-04  0.7524E-04  0.7324E-04  0.7310E-04  0.3571E-06  0.3555E-06  0.3361E-06  0.3341E-06  0.3016E-06  0.3042E-06  0.3361E-06  0.3341E-06  0.1848E-06  0.1844E-06
     -2.247  0.5044E-02  0.5034E-02  0.8465E-04  0.8421E-04  0.1103E-03  0.1096E-03  0.8465E-04  0.8421E-04  0.5141E-06  0.5102E-06  0.5331E-06  0.5292E-06  0.4114E-06  0.4107E-06  0.5331E-06  0.5292E-06  0.2495E-06  0.2475E-06
     -2.173  0.6126E-02  0.6109E-02  0.1225E-03  0.1218E-03  0.1564E-03  0.1559E-03  0.1225E-03  0.1218E-03  0.8299E-06  0.8252E-06  0.8004E-06  0.7973E-06  0.7061E-06  0.7038E-06  0.8004E-06  0.7973E-06  0.4762E-06  0.4711E-06
     -2.099  0.6594E-02  0.6593E-02  0.1621E-03  0.1615E-03  0.1610E-03  0.1611E-03  0.1621E-03  0.1615E-03  0.1069E-05  0.1066E-05  0.9867E-06  0.9833E-06  0.9936E-06  0.9957E-06  0.9867E-06  0.9833E-06  0.8547E-06  0.8489E-06
     -2.025  0.6682E-02  0.6678E-02  0.1908E-03  0.1903E-03  0.1778E-03  0.1771E-03  0.1908E-03  0.1903E-03  0.1386E-05  0.1380E-05  0.1437E-05  0.1427E-05  0.1109E-05  0.1114E-05  0.1437E-05  0.1427E-05  0.1076E-05  0.1075E-05
     -1.950  0.7060E-02  0.7052E-02  0.2132E-03  0.2126E-03  0.2432E-03  0.2422E-03  0.2132E-03  0.2126E-03  0.1969E-05  0.1956E-05  0.2122E-05  0.2114E-05  0.1288E-05  0.1287E-05  0.2122E-05  0.2114E-05  0.1083E-05  0.1082E-05
     -1.876  0.7323E-02  0.7325E-02  0.2386E-03  0.2382E-03  0.2904E-03  0.2900E-03  0.2386E-03  0.2382E-03  0.2859E-05  0.2848E-05  0.2402E-05  0.2402E-05  0.1851E-05  0.1846E-05  0.2402E-05  0.2402E-05  0.1120E-05  0.1120E-05
     -1.802  0.6728E-02  0.6738E-02  0.2333E-03  0.2332E-03  0.3158E-03  0.3154E-03  0.2333E-03  0.2332E-03  0.3054E-05  0.3057E-05  0.2547E-05  0.2541E-05  0.2254E-05  0.2253E-05  0.2547E-05  0.2541E-05  0.1218E-05  0.1212E-05
     -1.728  0.6982E-02  0.6962E-02  0.2789E-03  0.2771E-03  0.3543E-03  0.3535E-03  0.2789E-03  0.2771E-03  0.3178E-05  0.3168E-05  0.3565E-05  0.3543E-05  0.2528E-05  0.2523E-05  0.3565E-05  0.3543E-05  0.2100E-05  0.2077E-05
     -1.653  0.8562E-02  0.8542E-02  0.3939E-03  0.3922E-03  0.4204E-03  0.4195E-03  0.3939E-03  0.3922E-03  0.4143E-05  0.4125E-05  0.5019E-05  0.5003E-05  0.3395E-05  0.3386E-05  0.5019E-05  0.5003E-05  0.3628E-05  0.3607E-05
     -1.579  0.8760E-02  0.8771E-02  0.4377E-03  0.4374E-03  0.4385E-03  0.4391E-03  0.4377E-03  0.4374E-03  0.5418E-05  0.5396E-05  0.5449E-05  0.5452E-05  0.4082E-05  0.4088E-05  0.5449E-05  0.5452E-05  0.4056E-05  0.4058E-05
     -1.505  0.8013E-02  0.8014E-02  0.4463E-03  0.4454E-03  0.4092E-03  0.4090E-03  0.4463E-03  0.4454E-03  0.7092E-05  0.7060E-05  0.5550E-05  0.5539E-05  0.4308E-05  0.4312E-05  0.5550E-05  0.5539E-05  0.3873E-05  0.3870E-05
     -1.430  0.8471E-02  0.8466E-02  0.4895E-03  0.4890E-03  0.5220E-03  0.5197E-03  0.4895E-03  0.4890E-03  0.8949E-05  0.8933E-05  0.7068E-05  0.7044E-05  0.5281E-05  0.5275E-05  0.7068E-05  0.7044E-05  0.3936E-05  0.3939E-05
     -1.356  0.8068E-02  0.8082E-02  0.4430E-03  0.4437E-03  0.6674E-03  0.6660E-03  0.4430E-03  0.4437E-03  0.8280E-05  0.8305E-05  0.8478E-05  0.8461E-05  0.5833E-05  0.5834E-05  0.8478E-05  0.8461E-05  0.3400E-05  0.3405E-05
     -1.282  0.7598E-02  0.7596E-02  0.4348E-03  0.4336E-03  0.7234E-03  0.7231E-03  0.4348E-03  0.4336E-03  0.7508E-05  0.7495E-05  0.1021E-04  0.1019E-04  0.5665E-05  0.5658E-05  0.1021E-04  0.1019E-04  0.3878E-05  0.3856E-05
     -1.208  0.8193E-02  0.8178E-02  0.5439E-03  0.5412E-03  0.7465E-03  0.7463E-03  0.5439E-03  0.5412E-03  0.1006E-04  0.9996E-05  0.1174E-04  0.1173E-04  0.6954E-05  0.6920E-05  0.1174E-04  0.1173E-04  0.5670E-05  0.5633E-05
     -1.133  0.9280E-02  0.9267E-02  0.7117E-03  0.7087E-03  0.7576E-03  0.7583E-03  0.7117E-03  0.7087E-03  0.1496E-04  0.1490E-04  0.1266E-04  0.1265E-04  0.9638E-05  0.9620E-05  0.1266E-04  0.1265E-04  0.8213E-05  0.8166E-05
     -1.059  0.9175E-02  0.9187E-02  0.7910E-03  0.7903E-03  0.6719E-03  0.6732E-03  0.7910E-03  0.7903E-03  0.1671E-04  0.1672E-04  0.1287E-04  0.1287E-04  0.1002E-04  0.1006E-04  0.1287E-04  0.1287E-04  0.1019E-04  0.1017E-04
     -0.985  0.8624E-02  0.8623E-02  0.7898E-03  0.7888E-03  0.7223E-03  0.7200E-03  0.7898E-03  0.7888E-03  0.1648E-04  0.1647E-04  0.1443E-04  0.1439E-04  0.9922E-05  0.9927E-05  0.1443E-04  0.1439E-04  0.1073E-04  0.1072E-04
     -0.911  0.9222E-02  0.9214E-02  0.8395E-03  0.8385E-03  0.1040E-02  0.1036E-02  0.8395E-03  0.8385E-03  0.1694E-04  0.1694E-04  0.1862E-04  0.1857E-04  0.1246E-04  0.1244E-04  0.1862E-04  0.1857E-04  0.1181E-04  0.1179E-04
     -0.836  0.8969E-02  0.8984E-02  0.7934E-03  0.7942E-03  0.1277E-02  0.1277E-02  0.7934E-03  0.7942E-03  0.1692E-04  0.1690E-04  0.2173E-04  0.2172E-04  0.1343E-04  0.1345E-04  0.2173E-04  0.2172E-04  0.1061E-04  0.1064E-04
     -0.762  0.8226E-02  0.8225E-02  0.7791E-03  0.7769E-03  0.1228E-02  0.1230E-02  0.7791E-03  0.7769E-03  0.2163E-04  0.2150E-04  0.2311E-04  0.2309E-04  0.1216E-04  0.1217E-04  0.2311E-04  0.2309E-04  0.8688E-05  0.8684E-05
     -0.688  0.8992E-02  0.8982E-02  0.9344E-03  0.9320E-03  0.1336E-02  0.1335E-02  0.9344E-03  0.9320E-03  0.2998E-04  0.2989E-04  0.2776E-04  0.2773E-04  0.1360E-04  0.1357E-04  0.2776E-04  0.2773E-04  0.9581E-05  0.9558E-05
     -0.613  0.8337E-02  0.8359E-02  0.9161E-03  0.9167E-03  0.1339E-02  0.1343E-02  0.9161E-03  0.9167E-03  0.3156E-04  0.3157E-04  0.2635E-04  0.2645E-04  0.1516E-04  0.1516E-04  0.2635E-04  0.2645E-04  0.9796E-05  0.9784E-05
     -0.539  0.7039E-02  0.7041E-02  0.8959E-03  0.8938E-03  0.1154E-02  0.1155E-02  0.8959E-03  0.8938E-03  0.3051E-04  0.3053E-04  0.2229E-04  0.2228E-04  0.1506E-04  0.1506E-04  0.2229E-04  0.2228E-04  0.1200E-04  0.1191E-04
     -0.465  0.7903E-02  0.7877E-02  0.1112E-02  0.1107E-02  0.1461E-02  0.1456E-02  0.1112E-02  0.1107E-02  0.2974E-04  0.2973E-04  0.3109E-04  0.3092E-04  0.1750E-04  0.1747E-04  0.3109E-04  0.3092E-04  0.1919E-04  0.1905E-04
     -0.391  0.9323E-02  0.9311E-02  0.1344E-02  0.1341E-02  0.1911E-02  0.1907E-02  0.1344E-02  0.1341E-02  0.3178E-04  0.3175E-04  0.4496E-04  0.4484E-04  0.2035E-04  0.2035E-04  0.4496E-04  0.4484E-04  0.2433E-04  0.2428E-04
     -0.316  0.9029E-02  0.9037E-02  0.1368E-02  0.1367E-02  0.2002E-02  0.2005E-02  0.1368E-02  0.1367E-02  0.3407E-04  0.3400E-04  0.4924E-04  0.4931E-04  0.1988E-04  0.1989E-04  0.4924E-04  0.4931E-04  0.2422E-04  0.2420E-04
     -0.242  0.8313E-02  0.8316E-02  0.1409E-02  0.1407E-02  0.1765E-02  0.1768E-02  0.1409E-02  0.1407E-02  0.4415E-04  0.4392E-04  0.4446E-04  0.4455E-04  0.2080E-04  0.2079E-04  0.4446E-04  0.4455E-04  0.2415E-04  0.2414E-04
     -0.168  0.7848E-02  0.7857E-02  0.1437E-02  0.1437E-02  0.1491E-02  0.1492E-02  0.1437E-02  0.1437E-02  0.5755E-04  0.5743E-04  0.4137E-04  0.4140E-04  0.2137E-04  0.2143E-04  0.4137E-04  0.4140E-04  0.2116E-04  0.2120E-04
     -0.093  0.6772E-02  0.6788E-02  0.1356E-02  0.1356E-02  0.1357E-02  0.1358E-02  0.1356E-02  0.1356E-02  0.5581E-04  0.5591E-04  0.4016E-04  0.4019E-04  0.1876E-04  0.1883E-04  0.4016E-04  0.4019E-04  0.1847E-04  0.1847E-04
     -0.019  0.6232E-02  0.6227E-02  0.1354E-02  0.1352E-02  0.1539E-02  0.1536E-02  0.1354E-02  0.1352E-02  0.5435E-04  0.5425E-04  0.4747E-04  0.4731E-04  0.1802E-04  0.1801E-04  0.4747E-04  0.4731E-04  0.1793E-04  0.1792E-04