   8   8   1   0
  0.2003915E+02  0.4279110E-09  0.4279110E-09  0.8755125E-09  0.5000000E-15
  1.000000000000000E-004
  CAR 
 unknown system                          
     12.50886333     -4.75541170  301      5.41244444      1.00000000
     -4.755  0.0000E+00  0.0000E+00  0.0000E+00  0.0000E+00
     -4.698  0.0000E+00  0.0000E+00  0.0000E+00  0.0000E+00
     -4.640  0.0000E+00  0.0000E+00  0.0000E+00  0.0000E+00
     -4.583  0.0000E+00  0.0000E+00  0.0000E+00  0.0000E+00
     -4.525  0.0000E+00  0.0000E+00  0.0000E+00  0.0000E+00
     -4.468  0.0000E+00  0.0000E+00  0.0000E+00  0.0000E+00
     -4.410  0.2238E-05  0.2236E-05  0.1288E-06  0.1287E-06
     -4.353  0.2231E-04  0.2229E-04  0.1413E-05  0.1411E-05
     -4.295  0.9837E-04  0.9827E-04  0.7074E-05  0.7067E-05
     -4.237  0.3170E-03  0.3167E-03  0.2532E-04  0.2529E-04
     -4.180  0.1011E-02  0.1010E-02  0.8349E-04  0.8341E-04
     -4.122  0.3166E-02  0.3163E-02  0.2657E-03  0.2654E-03
     -4.065  0.9499E-02  0.9491E-02  0.8123E-03  0.8116E-03
     -4.007  0.2655E-01  0.2653E-01  0.2340E-02  0.2338E-02
     -3.950  0.6273E-01  0.6269E-01  0.5950E-02  0.5946E-02
     -3.892  0.1160E+00  0.1160E+00  0.1263E-01  0.1262E-01
     -3.835  0.1695E+00  0.1695E+00  0.2238E-01  0.2237E-01
     -3.777  0.2213E+00  0.2213E+00  0.3512E-01  0.3511E-01
     -3.720  0.2706E+00  0.2706E+00  0.5069E-01  0.5068E-01
     -3.662  0.2931E+00  0.2931E+00  0.6756E-01  0.6755E-01
     -3.604  0.3164E+00  0.3164E+00  0.8577E-01  0.8575E-01
     -3.547  0.3622E+00  0.3621E+00  0.1066E+00  0.1066E+00
     -3.489  0.3929E+00  0.3929E+00  0.1292E+00  0.1292E+00
     -3.432  0.4131E+00  0.4131E+00  0.1530E+00  0.1530E+00
     -3.374  0.4369E+00  0.4369E+00  0.1782E+00  0.1781E+00
     -3.317  0.4478E+00  0.4478E+00  0.2039E+00  0.2039E+00
     -3.259  0.4464E+00  0.4464E+00  0.2296E+00  0.2296E+00
     -3.202  0.4862E+00  0.4861E+00  0.2576E+00  0.2576E+00
     -3.144  0.5482E+00  0.5481E+00  0.2892E+00  0.2892E+00
     -3.087  0.5598E+00  0.5598E+00  0.3214E+00  0.3214E+00
     -3.029  0.5569E+00  0.5569E+00  0.3535E+00  0.3535E+00
     -2.971  0.5718E+00  0.5717E+00  0.3864E+00  0.3864E+00
     -2.914  0.5637E+00  0.5637E+00  0.4189E+00  0.4188E+00
     -2.856  0.5732E+00  0.5732E+00  0.4519E+00  0.4518E+00
     -2.799  0.6224E+00  0.6223E+00  0.4877E+00  0.4877E+00
     -2.741  0.6697E+00  0.6697E+00  0.5263E+00  0.5262E+00
     -2.684  0.6751E+00  0.6751E+00  0.5651E+00  0.5651E+00
     -2.626  0.6934E+00  0.6934E+00  0.6051E+00  0.6050E+00
     -2.569  0.7269E+00  0.7268E+00  0.6469E+00  0.6469E+00
     -2.511  0.7175E+00  0.7175E+00  0.6882E+00  0.6882E+00
     -2.454  0.7245E+00  0.7245E+00  0.7299E+00  0.7299E+00
     -2.396  0.7472E+00  0.7472E+00  0.7730E+00  0.7729E+00
     -2.338  0.7138E+00  0.7138E+00  0.8141E+00  0.8140E+00
     -2.281  0.7312E+00  0.7311E+00  0.8562E+00  0.8561E+00
     -2.223  0.8371E+00  0.8369E+00  0.9044E+00  0.9043E+00
     -2.166  0.9062E+00  0.9061E+00  0.9566E+00  0.9565E+00
     -2.108  0.8889E+00  0.8890E+00  0.1008E+01  0.1008E+01
     -2.051  0.8439E+00  0.8440E+00  0.1056E+01  0.1056E+01
     -1.993  0.7988E+00  0.7989E+00  0.1102E+01  0.1102E+01
     -1.936  0.7714E+00  0.7714E+00  0.1147E+01  0.1147E+01
     -1.878  0.8128E+00  0.8127E+00  0.1194E+01  0.1193E+01
     -1.820  0.8779E+00  0.8779E+00  0.1244E+01  0.1244E+01
     -1.763  0.9037E+00  0.9038E+00  0.1296E+01  0.1296E+01
     -1.705  0.9169E+00  0.9170E+00  0.1349E+01  0.1349E+01
     -1.648  0.8999E+00  0.9001E+00  0.1401E+01  0.1401E+01
     -1.590  0.8823E+00  0.8823E+00  0.1452E+01  0.1452E+01
     -1.533  0.9295E+00  0.9294E+00  0.1505E+01  0.1505E+01
     -1.475  0.9602E+00  0.9602E+00  0.1560E+01  0.1560E+01
     -1.418  0.8601E+00  0.8603E+00  0.1610E+01  0.1610E+01
     -1.360  0.7332E+00  0.7334E+00  0.1652E+01  0.1652E+01
     -1.303  0.7002E+00  0.7002E+00  0.1692E+01  0.1692E+01
     -1.245  0.7285E+00  0.7284E+00  0.1734E+01  0.1734E+01
     -1.187  0.8152E+00  0.8150E+00  0.1781E+01  0.1781E+01
     -1.130  0.9483E+00  0.9481E+00  0.1836E+01  0.1836E+01
     -1.072  0.9981E+00  0.9981E+00  0.1893E+01  0.1893E+01
     -1.015  0.1009E+01  0.1009E+01  0.1952E+01  0.1951E+01
     -0.957  0.1053E+01  0.1053E+01  0.2012E+01  0.2012E+01
     -0.900  0.1013E+01  0.1013E+01  0.2070E+01  0.2070E+01
     -0.842  0.9573E+00  0.9572E+00  0.2126E+01  0.2126E+01
     -0.785  0.1033E+01  0.1033E+01  0.2185E+01  0.2185E+01
     -0.727  0.1098E+01  0.1098E+01  0.2248E+01  0.2248E+01
     -0.670  0.1061E+01  0.1061E+01  0.2309E+01  0.2309E+01
     -0.612  0.1071E+01  0.1071E+01  0.2371E+01  0.2371E+01
     -0.554  0.1123E+01  0.1123E+01  0.2436E+01  0.2436E+01
     -0.497  0.1099E+01  0.1099E+01  0.2499E+01  0.2499E+01
     -0.439  0.1031E+01  0.1031E+01  0.2558E+01  0.2558E+01
     -0.382  0.9631E+00  0.9632E+00  0.2614E+01  0.2614E+01
     -0.324  0.9117E+00  0.9117E+00  0.2666E+01  0.2666E+01
     -0.267  0.9306E+00  0.9305E+00  0.2720E+01  0.2720E+01
     -0.209  0.9671E+00  0.9672E+00  0.2776E+01  0.2776E+01
     -0.152  0.9673E+00  0.9674E+00  0.2831E+01  0.2831E+01
     -0.094  0.1002E+01  0.1002E+01  0.2889E+01  0.2889E+01
     -0.037  0.1062E+01  0.1062E+01  0.2950E+01  0.2950E+01
      0.021  0.1146E+01  0.1146E+01  0.3016E+01  0.3016E+01
      0.079  0.1280E+01  0.1280E+01  0.3090E+01  0.3090E+01
      0.136  0.1359E+01  0.1359E+01  0.3168E+01  0.3168E+01
      0.194  0.1243E+01  0.1243E+01  0.3240E+01  0.3240E+01
      0.251  0.1054E+01  0.1054E+01  0.3300E+01  0.3300E+01
      0.309  0.9990E+00  0.9990E+00  0.3358E+01  0.3358E+01
      0.366  0.1136E+01  0.1136E+01  0.3423E+01  0.3423E+01
      0.424  0.1384E+01  0.1383E+01  0.3503E+01  0.3503E+01
      0.481  0.1484E+01  0.1484E+01  0.3588E+01  0.3588E+01
      0.539  0.1346E+01  0.1346E+01  0.3666E+01  0.3666E+01
      0.597  0.1143E+01  0.1143E+01  0.3732E+01  0.3732E+01
      0.654  0.1031E+01  0.1031E+01  0.3791E+01  0.3791E+01
      0.712  0.1038E+01  0.1038E+01  0.3851E+01  0.3851E+01
      0.769  0.1105E+01  0.1105E+01  0.3915E+01  0.3914E+01
      0.827  0.1196E+01  0.1196E+01  0.3983E+01  0.3983E+01
      0.884  0.1246E+01  0.1247E+01  0.4055E+01  0.4055E+01
      0.942  0.1300E+01  0.1300E+01  0.4130E+01  0.4130E+01
      0.999  0.1387E+01  0.1387E+01  0.4210E+01  0.4210E+01
      1.057  0.1407E+01  0.1407E+01  0.4291E+01  0.4291E+01
      1.114  0.1342E+01  0.1342E+01  0.4368E+01  0.4368E+01
      1.172  0.1338E+01  0.1338E+01  0.4445E+01  0.4445E+01
      1.230  0.1310E+01  0.1310E+01  0.4521E+01  0.4521E+01
      1.287  0.1230E+01  0.1230E+01  0.4591E+01  0.4591E+01
      1.345  0.1185E+01  0.1185E+01  0.4660E+01  0.4660E+01
      1.402  0.1079E+01  0.1079E+01  0.4722E+01  0.4722E+01
      1.460  0.9492E+00  0.9491E+00  0.4776E+01  0.4776E+01
      1.517  0.1007E+01  0.1007E+01  0.4834E+01  0.4834E+01
      1.575  0.1198E+01  0.1198E+01  0.4903E+01  0.4903E+01
      1.632  0.1395E+01  0.1395E+01  0.4984E+01  0.4984E+01
      1.690  0.1581E+01  0.1581E+01  0.5075E+01  0.5075E+01
      1.747  0.1649E+01  0.1649E+01  0.5170E+01  0.5170E+01
      1.805  0.1563E+01  0.1563E+01  0.5260E+01  0.5260E+01
      1.863  0.1485E+01  0.1485E+01  0.5345E+01  0.5345E+01
      1.920  0.1420E+01  0.1420E+01  0.5427E+01  0.5427E+01
      1.978  0.1336E+01  0.1336E+01  0.5504E+01  0.5504E+01
      2.035  0.1317E+01  0.1317E+01  0.5580E+01  0.5580E+01
      2.093  0.1379E+01  0.1379E+01  0.5659E+01  0.5659E+01
      2.150  0.1397E+01  0.1397E+01  0.5740E+01  0.5740E+01
      2.208  0.1400E+01  0.1400E+01  0.5820E+01  0.5820E+01
      2.265  0.1456E+01  0.1456E+01  0.5904E+01  0.5904E+01
      2.323  0.1479E+01  0.1479E+01  0.5989E+01  0.5989E+01
      2.380  0.1533E+01  0.1533E+01  0.6078E+01  0.6077E+01
      2.438  0.1615E+01  0.1615E+01  0.6170E+01  0.6170E+01
      2.496  0.1579E+01  0.1579E+01  0.6261E+01  0.6261E+01
      2.553  0.1488E+01  0.1488E+01  0.6347E+01  0.6347E+01
      2.611  0.1400E+01  0.1400E+01  0.6428E+01  0.6428E+01
      2.668  0.1349E+01  0.1349E+01  0.6505E+01  0.6505E+01
      2.726  0.1356E+01  0.1355E+01  0.6583E+01  0.6583E+01
      2.783  0.1370E+01  0.1370E+01  0.6662E+01  0.6662E+01
      2.841  0.1412E+01  0.1412E+01  0.6744E+01  0.6744E+01
      2.898  0.1468E+01  0.1468E+01  0.6828E+01  0.6828E+01
      2.956  0.1596E+01  0.1596E+01  0.6920E+01  0.6920E+01
      3.014  0.1771E+01  0.1771E+01  0.7022E+01  0.7022E+01
      3.071  0.1864E+01  0.1864E+01  0.7129E+01  0.7129E+01
      3.129  0.1826E+01  0.1826E+01  0.7234E+01  0.7234E+01
      3.186  0.1685E+01  0.1685E+01  0.7331E+01  0.7331E+01
      3.244  0.1579E+01  0.1580E+01  0.7422E+01  0.7422E+01
      3.301  0.1577E+01  0.1577E+01  0.7513E+01  0.7513E+01
      3.359  0.1628E+01  0.1628E+01  0.7607E+01  0.7607E+01
      3.416  0.1655E+01  0.1655E+01  0.7702E+01  0.7702E+01
      3.474  0.1607E+01  0.1607E+01  0.7795E+01  0.7795E+01
      3.531  0.1513E+01  0.1513E+01  0.7882E+01  0.7882E+01
      3.589  0.1420E+01  0.1420E+01  0.7964E+01  0.7964E+01
      3.647  0.1432E+01  0.1432E+01  0.8046E+01  0.8046E+01
      3.704  0.1636E+01  0.1636E+01  0.8140E+01  0.8140E+01
      3.762  0.1806E+01  0.1806E+01  0.8244E+01  0.8244E+01
      3.819  0.1864E+01  0.1864E+01  0.8352E+01  0.8352E+01
      3.877  0.2019E+01  0.2020E+01  0.8468E+01  0.8468E+01
      3.934  0.2149E+01  0.2149E+01  0.8592E+01  0.8592E+01
      3.992  0.2019E+01  0.2020E+01  0.8708E+01  0.8708E+01
      4.049  0.1736E+01  0.1736E+01  0.8808E+01  0.8808E+01
      4.107  0.1481E+01  0.1481E+01  0.8893E+01  0.8893E+01
      4.164  0.1388E+01  0.1388E+01  0.8973E+01  0.8973E+01
      4.222  0.1444E+01  0.1444E+01  0.9056E+01  0.9056E+01
      4.280  0.1428E+01  0.1428E+01  0.9138E+01  0.9138E+01
      4.337  0.1322E+01  0.1322E+01  0.9215E+01  0.9215E+01
      4.395  0.1335E+01  0.1335E+01  0.9292E+01  0.9292E+01
      4.452  0.1515E+01  0.1515E+01  0.9379E+01  0.9379E+01
      4.510  0.1761E+01  0.1761E+01  0.9480E+01  0.9480E+01
      4.567  0.1888E+01  0.1888E+01  0.9589E+01  0.9589E+01
      4.625  0.1886E+01  0.1886E+01  0.9697E+01  0.9697E+01
      4.682  0.1903E+01  0.1903E+01  0.9807E+01  0.9807E+01
      4.740  0.1984E+01  0.1984E+01  0.9921E+01  0.9921E+01
      4.797  0.1959E+01  0.1959E+01  0.1003E+02  0.1003E+02
      4.855  0.1745E+01  0.1745E+01  0.1013E+02  0.1013E+02
      4.913  0.1503E+01  0.1503E+01  0.1022E+02  0.1022E+02
      4.970  0.1345E+01  0.1345E+01  0.1030E+02  0.1030E+02
      5.028  0.1392E+01  0.1392E+01  0.1038E+02  0.1038E+02
      5.085  0.1586E+01  0.1586E+01  0.1047E+02  0.1047E+02
      5.143  0.1678E+01  0.1678E+01  0.1057E+02  0.1057E+02
      5.200  0.1622E+01  0.1622E+01  0.1066E+02  0.1066E+02
      5.258  0.1519E+01  0.1519E+01  0.1075E+02  0.1075E+02
      5.315  0.1505E+01  0.1505E+01  0.1083E+02  0.1083E+02
      5.373  0.1646E+01  0.1646E+01  0.1093E+02  0.1093E+02
      5.431  0.1823E+01  0.1823E+01  0.1103E+02  0.1103E+02
      5.488  0.1921E+01  0.1921E+01  0.1114E+02  0.1114E+02
      5.546  0.1892E+01  0.1892E+01  0.1125E+02  0.1125E+02
      5.603  0.1851E+01  0.1851E+01  0.1136E+02  0.1136E+02
      5.661  0.1866E+01  0.1865E+01  0.1147E+02  0.1147E+02
      5.718  0.1801E+01  0.1800E+01  0.1157E+02  0.1157E+02
      5.776  0.1709E+01  0.1708E+01  0.1167E+02  0.1167E+02
      5.833  0.1709E+01  0.1709E+01  0.1177E+02  0.1177E+02
      5.891  0.1771E+01  0.1770E+01  0.1187E+02  0.1187E+02
      5.948  0.1831E+01  0.1831E+01  0.1198E+02  0.1198E+02
      6.006  0.1829E+01  0.1829E+01  0.1208E+02  0.1208E+02
      6.064  0.1769E+01  0.1769E+01  0.1218E+02  0.1218E+02
      6.121  0.1737E+01  0.1737E+01  0.1228E+02  0.1228E+02
      6.179  0.1807E+01  0.1807E+01  0.1239E+02  0.1239E+02
      6.236  0.1955E+01  0.1955E+01  0.1250E+02  0.1250E+02
      6.294  0.2038E+01  0.2038E+01  0.1262E+02  0.1262E+02
      6.351  0.1995E+01  0.1996E+01  0.1273E+02  0.1273E+02
      6.409  0.1947E+01  0.1947E+01  0.1284E+02  0.1284E+02
      6.466  0.1952E+01  0.1952E+01  0.1296E+02  0.1296E+02
      6.524  0.1921E+01  0.1921E+01  0.1307E+02  0.1307E+02
      6.581  0.1838E+01  0.1838E+01  0.1317E+02  0.1317E+02
      6.639  0.1713E+01  0.1713E+01  0.1327E+02  0.1327E+02
      6.697  0.1605E+01  0.1605E+01  0.1336E+02  0.1336E+02
      6.754  0.1650E+01  0.1650E+01  0.1346E+02  0.1346E+02
      6.812  0.1789E+01  0.1789E+01  0.1356E+02  0.1356E+02
      6.869  0.1914E+01  0.1914E+01  0.1367E+02  0.1367E+02
      6.927  0.2036E+01  0.2036E+01  0.1379E+02  0.1379E+02
      6.984  0.2155E+01  0.2155E+01  0.1391E+02  0.1391E+02
      7.042  0.2241E+01  0.2241E+01  0.1404E+02  0.1404E+02
      7.099  0.2179E+01  0.2180E+01  0.1417E+02  0.1417E+02
      7.157  0.1990E+01  0.1990E+01  0.1428E+02  0.1428E+02
      7.214  0.1907E+01  0.1907E+01  0.1439E+02  0.1439E+02
      7.272  0.1975E+01  0.1974E+01  0.1451E+02  0.1451E+02
      7.330  0.1962E+01  0.1962E+01  0.1462E+02  0.1462E+02
      7.387  0.1881E+01  0.1881E+01  0.1473E+02  0.1473E+02
      7.445  0.1876E+01  0.1876E+01  0.1484E+02  0.1483E+02
      7.502  0.2051E+01  0.2050E+01  0.1495E+02  0.1495E+02
      7.560  0.2268E+01  0.2268E+01  0.1508E+02  0.1508E+02
      7.617  0.2329E+01  0.2329E+01  0.1522E+02  0.1522E+02
      7.675  0.2203E+01  0.2204E+01  0.1534E+02  0.1534E+02
      7.732  0.1959E+01  0.1959E+01  0.1546E+02  0.1546E+02
      7.790  0.1748E+01  0.1749E+01  0.1556E+02  0.1556E+02
      7.848  0.1664E+01  0.1664E+01  0.1565E+02  0.1565E+02
      7.905  0.1751E+01  0.1752E+01  0.1575E+02  0.1575E+02
      7.963  0.1835E+01  0.1835E+01  0.1586E+02  0.1586E+02
      8.020  0.1825E+01  0.1825E+01  0.1597E+02  0.1597E+02
      8.078  0.1901E+01  0.1900E+01  0.1608E+02  0.1607E+02
      8.135  0.2104E+01  0.2103E+01  0.1620E+02  0.1620E+02
      8.193  0.2252E+01  0.2252E+01  0.1633E+02  0.1633E+02
      8.250  0.2358E+01  0.2358E+01  0.1646E+02  0.1646E+02
      8.308  0.2456E+01  0.2456E+01  0.1660E+02  0.1660E+02
      8.365  0.2525E+01  0.2526E+01  0.1675E+02  0.1675E+02
      8.423  0.2536E+01  0.2536E+01  0.1689E+02  0.1689E+02
      8.481  0.2445E+01  0.2445E+01  0.1704E+02  0.1704E+02
      8.538  0.2230E+01  0.2230E+01  0.1716E+02  0.1716E+02
      8.596  0.1998E+01  0.1998E+01  0.1728E+02  0.1728E+02
      8.653  0.1871E+01  0.1871E+01  0.1739E+02  0.1739E+02
      8.711  0.1896E+01  0.1896E+01  0.1750E+02  0.1750E+02
      8.768  0.2035E+01  0.2035E+01  0.1761E+02  0.1761E+02
      8.826  0.2053E+01  0.2053E+01  0.1773E+02  0.1773E+02
      8.883  0.1902E+01  0.1902E+01  0.1784E+02  0.1784E+02
      8.941  0.1821E+01  0.1821E+01  0.1795E+02  0.1795E+02
      8.998  0.1841E+01  0.1841E+01  0.1805E+02  0.1805E+02
      9.056  0.1894E+01  0.1896E+01  0.1816E+02  0.1816E+02
      9.114  0.1913E+01  0.1915E+01  0.1827E+02  0.1827E+02
      9.171  0.1927E+01  0.1930E+01  0.1838E+02  0.1838E+02
      9.229  0.1968E+01  0.1974E+01  0.1850E+02  0.1850E+02
      9.286  0.1946E+01  0.1948E+01  0.1861E+02  0.1861E+02
      9.344  0.1870E+01  0.1862E+01  0.1871E+02  0.1872E+02
      9.401  0.1708E+01  0.1695E+01  0.1881E+02  0.1881E+02
      9.459  0.1556E+01  0.1533E+01  0.1890E+02  0.1890E+02
      9.516  0.1490E+01  0.1479E+01  0.1899E+02  0.1899E+02
      9.574  0.1434E+01  0.1457E+01  0.1907E+02  0.1907E+02
      9.631  0.1300E+01  0.1327E+01  0.1915E+02  0.1915E+02
      9.689  0.1096E+01  0.1114E+01  0.1921E+02  0.1921E+02
      9.747  0.9287E+00  0.9398E+00  0.1926E+02  0.1926E+02
      9.804  0.9029E+00  0.9072E+00  0.1931E+02  0.1932E+02
      9.862  0.9547E+00  0.9525E+00  0.1937E+02  0.1937E+02
      9.919  0.9751E+00  0.9749E+00  0.1943E+02  0.1943E+02
      9.977  0.9595E+00  0.9588E+00  0.1948E+02  0.1948E+02
     10.034  0.9293E+00  0.9267E+00  0.1953E+02  0.1954E+02
     10.092  0.8535E+00  0.8441E+00  0.1958E+02  0.1959E+02
     10.149  0.6709E+00  0.6586E+00  0.1962E+02  0.1962E+02
     10.207  0.4867E+00  0.4793E+00  0.1965E+02  0.1965E+02
     10.265  0.3781E+00  0.3755E+00  0.1967E+02  0.1967E+02
     10.322  0.3059E+00  0.3059E+00  0.1969E+02  0.1969E+02
     10.380  0.2837E+00  0.2872E+00  0.1971E+02  0.1971E+02
     10.437  0.3144E+00  0.3243E+00  0.1972E+02  0.1973E+02
     10.495  0.3449E+00  0.3629E+00  0.1974E+02  0.1975E+02
     10.552  0.3441E+00  0.3656E+00  0.1976E+02  0.1977E+02
     10.610  0.3450E+00  0.3517E+00  0.1978E+02  0.1979E+02
     10.667  0.3668E+00  0.3484E+00  0.1981E+02  0.1981E+02
     10.725  0.3934E+00  0.3697E+00  0.1983E+02  0.1983E+02
     10.782  0.3926E+00  0.3795E+00  0.1985E+02  0.1985E+02
     10.840  0.3430E+00  0.3396E+00  0.1987E+02  0.1987E+02
     10.898  0.2316E+00  0.2304E+00  0.1988E+02  0.1988E+02
     10.955  0.1331E+00  0.1323E+00  0.1989E+02  0.1989E+02
     11.013  0.1145E+00  0.1146E+00  0.1990E+02  0.1990E+02
     11.070  0.1574E+00  0.1586E+00  0.1991E+02  0.1991E+02
     11.128  0.1983E+00  0.2020E+00  0.1992E+02  0.1992E+02
     11.185  0.2042E+00  0.2123E+00  0.1993E+02  0.1993E+02
     11.243  0.2026E+00  0.2107E+00  0.1994E+02  0.1994E+02
     11.300  0.1939E+00  0.1904E+00  0.1995E+02  0.1995E+02
     11.358  0.1371E+00  0.1274E+00  0.1996E+02  0.1996E+02
     11.415  0.7516E-01  0.6890E-01  0.1997E+02  0.1997E+02
     11.473  0.5343E-01  0.4965E-01  0.1997E+02  0.1997E+02
     11.531  0.6629E-01  0.6147E-01  0.1997E+02  0.1997E+02
     11.588  0.9353E-01  0.8540E-01  0.1998E+02  0.1998E+02
     11.646  0.1221E+00  0.1149E+00  0.1998E+02  0.1998E+02
     11.703  0.1208E+00  0.1232E+00  0.1999E+02  0.1999E+02
     11.761  0.8325E-01  0.9146E-01  0.2000E+02  0.2000E+02
     11.818  0.4125E-01  0.4751E-01  0.2000E+02  0.2000E+02
     11.876  0.1598E-01  0.1888E-01  0.2000E+02  0.2000E+02
     11.933  0.5386E-02  0.6441E-02  0.2000E+02  0.2000E+02
     11.991  0.1748E-02  0.2097E-02  0.2000E+02  0.2000E+02
     12.048  0.5128E-03  0.6197E-03  0.2000E+02  0.2000E+02
     12.106  0.1058E-03  0.1221E-03  0.2000E+02  0.2000E+02
     12.164  0.0000E+00  0.0000E+00  0.2000E+02  0.2000E+02
     12.221  0.0000E+00  0.0000E+00  0.2000E+02  0.2000E+02
     12.279  0.0000E+00  0.0000E+00  0.2000E+02  0.2000E+02
     12.336  0.0000E+00  0.0000E+00  0.2000E+02  0.2000E+02
     12.394  0.0000E+00  0.0000E+00  0.2000E+02  0.2000E+02
     12.451  0.0000E+00  0.0000E+00  0.2000E+02  0.2000E+02
     12.509  0.0000E+00  0.0000E+00  0.2000E+02  0.2000E+02
     12.50886333     -4.75541170  301      5.41244444      1.00000000
     -4.755  0.0000E+00  0.0000E+00  0.0000E+00  0.0000E+00  0.0000E+00  0.0000E+00  0.0000E+00  0.0000E+00  0.0000E+00  0.0000E+00  0.0000E+00  0.0000E+00  0.0000E+00  0.0000E+00  0.0000E+00  0.0000E+00  0.0000E+00  0.0000E+00
     -4.698  0.0000E+00  0.0000E+00  0.0000E+00  0.0000E+00  0.0000E+00  0.0000E+00  0.0000E+00  0.0000E+00  0.0000E+00  0.0000E+00  0.0000E+00  0.0000E+00  0.0000E+00  0.0000E+00  0.0000E+00  0.0000E+00  0.0000E+00  0.0000E+00
     -4.640  0.0000E+00  0.0000E+00  0.0000E+00  0.0000E+00  0.0000E+00  0.0000E+00  0.0000E+00  0.0000E+00  0.0000E+00  0.0000E+00  0.0000E+00  0.0000E+00  0.0000E+00  0.0000E+00  0.0000E+00  0.0000E+00  0.0000E+00  0.0000E+00
     -4.583  0.0000E+00  0.0000E+00  0.0000E+00  0.0000E+00  0.0000E+00  0.0000E+00  0.0000E+00  0.0000E+00  0.0000E+00  0.0000E+00  0.0000E+00  0.0000E+00  0.0000E+00  0.0000E+00  0.0000E+00  0.0000E+00  0.0000E+00  0.0000E+00
     -4.525  0.0000E+00  0.0000E+00  0.0000E+00  0.0000E+00  0.0000E+00  0.0000E+00  0.0000E+00  0.0000E+00  0.0000E+00  0.0000E+00  0.0000E+00  0.0000E+00  0.0000E+00  0.0000E+00  0.0000E+00  0.0000E+00  0.0000E+00  0.0000E+00
     -4.468  0.0000E+00  0.0000E+00  0.0000E+00  0.0000E+00  0.0000E+00  0.0000E+00  0.0000E+00  0.0000E+00  0.0000E+00  0.0000E+00  0.0000E+00  0.0000E+00  0.0000E+00  0.0000E+00  0.0000E+00  0.0000E+00  0.0000E+00  0.0000E+00
     -4.410  0.3349E-07  0.3348E-07  0.5544E-21  0.2312E-21  0.2127E-20  0.4580E-21  0.5544E-21  0.2312E-21  0.8896E-22  0.2199E-21  0.5589E-22  0.8673E-21  0.1926E-12  0.1881E-12  0.5589E-22  0.8673E-21  0.9988E-22  0.1084E-21
     -4.353  0.3317E-06  0.3316E-06  0.4642E-09  0.4637E-09  0.4941E-09  0.4934E-09  0.4642E-09  0.4637E-09  0.8789E-21  0.4376E-20  0.4653E-21  0.2510E-20  0.2331E-11  0.2285E-11  0.4653E-21  0.2510E-20  0.3891E-12  0.3891E-12
     -4.295  0.1456E-05  0.1455E-05  0.3481E-08  0.3477E-08  0.3482E-08  0.3478E-08  0.3481E-08  0.3477E-08  0.3613E-11  0.3617E-11  0.3344E-11  0.3341E-11  0.1070E-10  0.1050E-10  0.3344E-11  0.3341E-11  0.1960E-11  0.1960E-11
     -4.237  0.4683E-05  0.4681E-05  0.1288E-07  0.1287E-07  0.1348E-07  0.1346E-07  0.1288E-07  0.1287E-07  0.1835E-10  0.1838E-10  0.1545E-10  0.1544E-10  0.3802E-10  0.3736E-10  0.1545E-10  0.1544E-10  0.8674E-11  0.8672E-11
     -4.180  0.1491E-04  0.1491E-04  0.4401E-07  0.4396E-07  0.4849E-07  0.4842E-07  0.4401E-07  0.4396E-07  0.6434E-10  0.6441E-10  0.6157E-10  0.6152E-10  0.1322E-09  0.1301E-09  0.6157E-10  0.6152E-10  0.4016E-10  0.4014E-10
     -4.122  0.4668E-04  0.4666E-04  0.1431E-06  0.1430E-06  0.1563E-06  0.1561E-06  0.1431E-06  0.1430E-06  0.2457E-09  0.2459E-09  0.2295E-09  0.2293E-09  0.4146E-09  0.4082E-09  0.2295E-09  0.2293E-09  0.1242E-09  0.1241E-09
     -4.065  0.1401E-03  0.1400E-03  0.4334E-06  0.4329E-06  0.4764E-06  0.4758E-06  0.4334E-06  0.4329E-06  0.7095E-09  0.7101E-09  0.6923E-09  0.6917E-09  0.1251E-08  0.1232E-08  0.6923E-09  0.6917E-09  0.3819E-09  0.3817E-09
     -4.007  0.3910E-03  0.3909E-03  0.1303E-05  0.1301E-05  0.1430E-05  0.1428E-05  0.1303E-05  0.1301E-05  0.2345E-08  0.2347E-08  0.2216E-08  0.2213E-08  0.3660E-08  0.3607E-08  0.2216E-08  0.2213E-08  0.1156E-08  0.1156E-08
     -3.950  0.9218E-03  0.9218E-03  0.3503E-05  0.3500E-05  0.3830E-05  0.3826E-05  0.3503E-05  0.3500E-05  0.6699E-08  0.6705E-08  0.6366E-08  0.6360E-08  0.9394E-08  0.9268E-08  0.6366E-08  0.6360E-08  0.3375E-08  0.3373E-08
     -3.892  0.1698E-02  0.1698E-02  0.7923E-05  0.7918E-05  0.8754E-05  0.8744E-05  0.7923E-05  0.7918E-05  0.1744E-07  0.1745E-07  0.1651E-07  0.1650E-07  0.2030E-07  0.2007E-07  0.1651E-07  0.1650E-07  0.8706E-08  0.8701E-08
     -3.835  0.2463E-02  0.2464E-02  0.1503E-04  0.1502E-04  0.1696E-04  0.1694E-04  0.1503E-04  0.1502E-04  0.3867E-07  0.3870E-07  0.3753E-07  0.3750E-07  0.3858E-07  0.3825E-07  0.3753E-07  0.3750E-07  0.2095E-07  0.2093E-07
     -3.777  0.3186E-02  0.3186E-02  0.2588E-04  0.2586E-04  0.2844E-04  0.2841E-04  0.2588E-04  0.2586E-04  0.7904E-07  0.7908E-07  0.7612E-07  0.7607E-07  0.6855E-07  0.6812E-07  0.7612E-07  0.7607E-07  0.4447E-07  0.4445E-07
     -3.720  0.3860E-02  0.3862E-02  0.3940E-04  0.3938E-04  0.4131E-04  0.4127E-04  0.3940E-04  0.3938E-04  0.1467E-06  0.1467E-06  0.1366E-06  0.1365E-06  0.1083E-06  0.1077E-06  0.1366E-06  0.1365E-06  0.7407E-07  0.7403E-07
     -3.662  0.4138E-02  0.4140E-02  0.5035E-04  0.5033E-04  0.5561E-04  0.5556E-04  0.5035E-04  0.5033E-04  0.2289E-06  0.2290E-06  0.2176E-06  0.2175E-06  0.1525E-06  0.1520E-06  0.2176E-06  0.2175E-06  0.1036E-06  0.1035E-06
     -3.604  0.4406E-02  0.4407E-02  0.6368E-04  0.6365E-04  0.7755E-04  0.7747E-04  0.6368E-04  0.6365E-04  0.3442E-06  0.3443E-06  0.3351E-06  0.3349E-06  0.2287E-06  0.2281E-06  0.3351E-06  0.3349E-06  0.1581E-06  0.1580E-06
     -3.547  0.4983E-02  0.4984E-02  0.8595E-04  0.8590E-04  0.9964E-04  0.9955E-04  0.8595E-04  0.8590E-04  0.5052E-06  0.5054E-06  0.4766E-06  0.4763E-06  0.3493E-06  0.3486E-06  0.4766E-06  0.4763E-06  0.2696E-06  0.2694E-06
     -3.489  0.5348E-02  0.5349E-02  0.1096E-03  0.1095E-03  0.1114E-03  0.1114E-03  0.1096E-03  0.1095E-03  0.6756E-06  0.6757E-06  0.6388E-06  0.6384E-06  0.4624E-06  0.4614E-06  0.6388E-06  0.6384E-06  0.4113E-06  0.4111E-06
     -3.432  0.5552E-02  0.5553E-02  0.1289E-03  0.1288E-03  0.1316E-03  0.1315E-03  0.1289E-03  0.1288E-03  0.9073E-06  0.9074E-06  0.9027E-06  0.9021E-06  0.5515E-06  0.5504E-06  0.9027E-06  0.9021E-06  0.5014E-06  0.5012E-06
     -3.374  0.5791E-02  0.5792E-02  0.1454E-03  0.1453E-03  0.1658E-03  0.1656E-03  0.1454E-03  0.1453E-03  0.1256E-05  0.1256E-05  0.1203E-05  0.1203E-05  0.6950E-06  0.6939E-06  0.1203E-05  0.1203E-05  0.5396E-06  0.5394E-06
     -3.317  0.5853E-02  0.5854E-02  0.1589E-03  0.1589E-03  0.1945E-03  0.1943E-03  0.1589E-03  0.1589E-03  0.1628E-05  0.1628E-05  0.1407E-05  0.1406E-05  0.9196E-06  0.9185E-06  0.1407E-05  0.1406E-05  0.5964E-06  0.5961E-06
     -3.259  0.5743E-02  0.5745E-02  0.1717E-03  0.1716E-03  0.2177E-03  0.2175E-03  0.1717E-03  0.1716E-03  0.1821E-05  0.1822E-05  0.1680E-05  0.1680E-05  0.1119E-05  0.1118E-05  0.1680E-05  0.1680E-05  0.7702E-06  0.7697E-06
     -3.202  0.6155E-02  0.6156E-02  0.2107E-03  0.2106E-03  0.2467E-03  0.2465E-03  0.2107E-03  0.2106E-03  0.2103E-05  0.2103E-05  0.2242E-05  0.2241E-05  0.1349E-05  0.1347E-05  0.2242E-05  0.2241E-05  0.1207E-05  0.1206E-05
     -3.144  0.6852E-02  0.6854E-02  0.2629E-03  0.2628E-03  0.2780E-03  0.2778E-03  0.2629E-03  0.2628E-03  0.2669E-05  0.2669E-05  0.2830E-05  0.2828E-05  0.1686E-05  0.1684E-05  0.2830E-05  0.2828E-05  0.1691E-05  0.1690E-05
     -3.087  0.6910E-02  0.6913E-02  0.2897E-03  0.2897E-03  0.2897E-03  0.2896E-03  0.2897E-03  0.2897E-03  0.3437E-05  0.3437E-05  0.3134E-05  0.3133E-05  0.1956E-05  0.1954E-05  0.3134E-05  0.3133E-05  0.1861E-05  0.1860E-05
     -3.029  0.6759E-02  0.6761E-02  0.3065E-03  0.3064E-03  0.3109E-03  0.3106E-03  0.3065E-03  0.3064E-03  0.4337E-05  0.4337E-05  0.3536E-05  0.3535E-05  0.2213E-05  0.2210E-05  0.3536E-05  0.3535E-05  0.1874E-05  0.1873E-05
     -2.971  0.6803E-02  0.6805E-02  0.3159E-03  0.3159E-03  0.3795E-03  0.3792E-03  0.3159E-03  0.3159E-03  0.4933E-05  0.4934E-05  0.4306E-05  0.4304E-05  0.2578E-05  0.2576E-05  0.4306E-05  0.4304E-05  0.1841E-05  0.1841E-05
     -2.914  0.6562E-02  0.6564E-02  0.3073E-03  0.3073E-03  0.4463E-03  0.4460E-03  0.3073E-03  0.3073E-03  0.4860E-05  0.4860E-05  0.5149E-05  0.5147E-05  0.2796E-05  0.2795E-05  0.5149E-05  0.5147E-05  0.1840E-05  0.1840E-05
     -2.856  0.6539E-02  0.6541E-02  0.3326E-03  0.3325E-03  0.4806E-03  0.4803E-03  0.3326E-03  0.3325E-03  0.5262E-05  0.5262E-05  0.6056E-05  0.6054E-05  0.3050E-05  0.3049E-05  0.6056E-05  0.6054E-05  0.2273E-05  0.2272E-05
     -2.799  0.6986E-02  0.6988E-02  0.4053E-03  0.4052E-03  0.4971E-03  0.4969E-03  0.4053E-03  0.4052E-03  0.6890E-05  0.6889E-05  0.6803E-05  0.6802E-05  0.3767E-05  0.3764E-05  0.6803E-05  0.6802E-05  0.3151E-05  0.3149E-05
     -2.741  0.7419E-02  0.7421E-02  0.4863E-03  0.4862E-03  0.4928E-03  0.4926E-03  0.4863E-03  0.4862E-03  0.8794E-05  0.8793E-05  0.7328E-05  0.7326E-05  0.4521E-05  0.4517E-05  0.7328E-05  0.7326E-05  0.4175E-05  0.4173E-05
     -2.684  0.7335E-02  0.7337E-02  0.5254E-03  0.5253E-03  0.4956E-03  0.4953E-03  0.5254E-03  0.5253E-03  0.9570E-05  0.9571E-05  0.7926E-05  0.7924E-05  0.4788E-05  0.4783E-05  0.7926E-05  0.7924E-05  0.4853E-05  0.4853E-05
     -2.626  0.7294E-02  0.7296E-02  0.5444E-03  0.5444E-03  0.5942E-03  0.5937E-03  0.5444E-03  0.5444E-03  0.9882E-05  0.9883E-05  0.9319E-05  0.9316E-05  0.5266E-05  0.5261E-05  0.9319E-05  0.9316E-05  0.5195E-05  0.5195E-05
     -2.569  0.7379E-02  0.7381E-02  0.5541E-03  0.5540E-03  0.7513E-03  0.7507E-03  0.5541E-03  0.5540E-03  0.1028E-04  0.1028E-04  0.1123E-04  0.1123E-04  0.5975E-05  0.5971E-05  0.1123E-04  0.1123E-04  0.5248E-05  0.5249E-05
     -2.511  0.7070E-02  0.7072E-02  0.5426E-03  0.5426E-03  0.8297E-03  0.8292E-03  0.5426E-03  0.5426E-03  0.1149E-04  0.1149E-04  0.1268E-04  0.1268E-04  0.6042E-05  0.6040E-05  0.1268E-04  0.1268E-04  0.4714E-05  0.4715E-05
     -2.454  0.6958E-02  0.6960E-02  0.5753E-03  0.5752E-03  0.8595E-03  0.8590E-03  0.5753E-03  0.5752E-03  0.1459E-04  0.1459E-04  0.1419E-04  0.1419E-04  0.6068E-05  0.6065E-05  0.1419E-04  0.1419E-04  0.4458E-05  0.4458E-05
     -2.396  0.6973E-02  0.6975E-02  0.6220E-03  0.6219E-03  0.9083E-03  0.9078E-03  0.6220E-03  0.6219E-03  0.1738E-04  0.1738E-04  0.1535E-04  0.1535E-04  0.6624E-05  0.6621E-05  0.1535E-04  0.1535E-04  0.4741E-05  0.4742E-05
     -2.338  0.6402E-02  0.6405E-02  0.6318E-03  0.6317E-03  0.8886E-03  0.8882E-03  0.6318E-03  0.6317E-03  0.1807E-04  0.1807E-04  0.1474E-04  0.1474E-04  0.7054E-05  0.7050E-05  0.1474E-04  0.1474E-04  0.5447E-05  0.5447E-05
     -2.281  0.6243E-02  0.6245E-02  0.6974E-03  0.6973E-03  0.9309E-03  0.9302E-03  0.6974E-03  0.6973E-03  0.1806E-04  0.1806E-04  0.1620E-04  0.1619E-04  0.7709E-05  0.7703E-05  0.1620E-04  0.1619E-04  0.7382E-05  0.7381E-05
     -2.223  0.6872E-02  0.6873E-02  0.8269E-03  0.8267E-03  0.1115E-02  0.1114E-02  0.8269E-03  0.8267E-03  0.1864E-04  0.1864E-04  0.2140E-04  0.2139E-04  0.8853E-05  0.8846E-05  0.2140E-04  0.2139E-04  0.9867E-05  0.9866E-05
     -2.166  0.7205E-02  0.7208E-02  0.9122E-03  0.9121E-03  0.1259E-02  0.1258E-02  0.9122E-03  0.9121E-03  0.2020E-04  0.2020E-04  0.2586E-04  0.2585E-04  0.9397E-05  0.9390E-05  0.2586E-04  0.2585E-04  0.1101E-04  0.1101E-04
     -2.108  0.6873E-02  0.6876E-02  0.9423E-03  0.9422E-03  0.1220E-02  0.1220E-02  0.9423E-03  0.9422E-03  0.2353E-04  0.2353E-04  0.2618E-04  0.2617E-04  0.9460E-05  0.9453E-05  0.2618E-04  0.2617E-04  0.1103E-04  0.1103E-04
     -2.051  0.6427E-02  0.6430E-02  0.9671E-03  0.9671E-03  0.1073E-02  0.1073E-02  0.9671E-03  0.9671E-03  0.2921E-04  0.2921E-04  0.2472E-04  0.2472E-04  0.9611E-05  0.9602E-05  0.2472E-04  0.2472E-04  0.1043E-04  0.1043E-04
     -1.993  0.5890E-02  0.5893E-02  0.9688E-03  0.9688E-03  0.9904E-03  0.9901E-03  0.9688E-03  0.9688E-03  0.3282E-04  0.3282E-04  0.2445E-04  0.2445E-04  0.9237E-05  0.9228E-05  0.2445E-04  0.2445E-04  0.9273E-05  0.9275E-05
     -1.936  0.5314E-02  0.5316E-02  0.9599E-03  0.9598E-03  0.1030E-02  0.1029E-02  0.9599E-03  0.9598E-03  0.3304E-04  0.3304E-04  0.2654E-04  0.2652E-04  0.8706E-05  0.8698E-05  0.2654E-04  0.2652E-04  0.8438E-05  0.8439E-05
     -1.878  0.5263E-02  0.5265E-02  0.1008E-02  0.1008E-02  0.1195E-02  0.1194E-02  0.1008E-02  0.1008E-02  0.3543E-04  0.3543E-04  0.3277E-04  0.3275E-04  0.9288E-05  0.9280E-05  0.3277E-04  0.3275E-04  0.7980E-05  0.7981E-05