   8   8   1   0
  0.2307059E+02  0.4484836E-09  0.4484836E-09  0.9176045E-09  0.5000000E-15
  1.000000000000000E-004
  CAR 
 unknown system                          
     10.82577259     -4.99432403  301      4.31441749      1.00000000
     -4.994  0.0000E+00  0.0000E+00  0.0000E+00  0.0000E+00
     -4.942  0.0000E+00  0.0000E+00  0.0000E+00  0.0000E+00
     -4.889  0.0000E+00  0.0000E+00  0.0000E+00  0.0000E+00
     -4.836  0.0000E+00  0.0000E+00  0.0000E+00  0.0000E+00
     -4.783  0.0000E+00  0.0000E+00  0.0000E+00  0.0000E+00
     -4.731  0.0000E+00  0.0000E+00  0.0000E+00  0.0000E+00
     -4.678  0.1877E-04  0.1859E-04  0.9899E-06  0.9802E-06
     -4.625  0.7016E-04  0.6947E-04  0.4690E-05  0.4643E-05
     -4.572  0.2012E-03  0.1992E-03  0.1530E-04  0.1515E-04
     -4.520  0.5969E-03  0.5910E-03  0.4677E-04  0.4631E-04
     -4.467  0.1752E-02  0.1735E-02  0.1392E-03  0.1378E-03
     -4.414  0.4847E-02  0.4801E-02  0.3948E-03  0.3910E-03
     -4.362  0.1328E-01  0.1316E-01  0.1095E-02  0.1085E-02
     -4.309  0.3354E-01  0.3327E-01  0.2864E-02  0.2839E-02
     -4.256  0.7317E-01  0.7270E-01  0.6722E-02  0.6673E-02
     -4.203  0.1294E+00  0.1288E+00  0.1355E-01  0.1347E-01
     -4.151  0.1880E+00  0.1874E+00  0.2346E-01  0.2335E-01
     -4.098  0.2449E+00  0.2443E+00  0.3637E-01  0.3623E-01
     -4.045  0.2957E+00  0.2953E+00  0.5196E-01  0.5181E-01
     -3.992  0.3246E+00  0.3244E+00  0.6908E-01  0.6891E-01
     -3.940  0.3552E+00  0.3548E+00  0.8781E-01  0.8762E-01
     -3.887  0.4006E+00  0.4002E+00  0.1089E+00  0.1087E+00
     -3.834  0.4339E+00  0.4337E+00  0.1318E+00  0.1316E+00
     -3.781  0.4584E+00  0.4581E+00  0.1560E+00  0.1558E+00
     -3.729  0.4825E+00  0.4823E+00  0.1814E+00  0.1812E+00
     -3.676  0.4939E+00  0.4938E+00  0.2075E+00  0.2072E+00
     -3.623  0.5029E+00  0.5027E+00  0.2340E+00  0.2338E+00
     -3.571  0.5494E+00  0.5488E+00  0.2630E+00  0.2627E+00
     -3.518  0.6029E+00  0.6026E+00  0.2948E+00  0.2945E+00
     -3.465  0.6145E+00  0.6145E+00  0.3272E+00  0.3269E+00
     -3.412  0.6196E+00  0.6195E+00  0.3599E+00  0.3596E+00
     -3.360  0.6297E+00  0.6297E+00  0.3931E+00  0.3928E+00
     -3.307  0.6270E+00  0.6269E+00  0.4262E+00  0.4259E+00
     -3.254  0.6486E+00  0.6482E+00  0.4604E+00  0.4601E+00
     -3.201  0.7004E+00  0.6999E+00  0.4974E+00  0.4970E+00
     -3.149  0.7393E+00  0.7391E+00  0.5364E+00  0.5360E+00
     -3.096  0.7512E+00  0.7510E+00  0.5760E+00  0.5757E+00
     -3.043  0.7793E+00  0.7788E+00  0.6171E+00  0.6167E+00
     -2.990  0.8006E+00  0.8005E+00  0.6594E+00  0.6590E+00
     -2.938  0.7948E+00  0.7948E+00  0.7013E+00  0.7009E+00
     -2.885  0.8122E+00  0.8119E+00  0.7442E+00  0.7437E+00
     -2.832  0.8169E+00  0.8170E+00  0.7873E+00  0.7868E+00
     -2.780  0.8011E+00  0.8010E+00  0.8295E+00  0.8291E+00
     -2.727  0.8570E+00  0.8560E+00  0.8747E+00  0.8743E+00
     -2.674  0.9553E+00  0.9545E+00  0.9251E+00  0.9246E+00
     -2.621  0.9903E+00  0.9903E+00  0.9774E+00  0.9769E+00
     -2.569  0.9592E+00  0.9597E+00  0.1028E+01  0.1027E+01
     -2.516  0.9164E+00  0.9168E+00  0.1076E+01  0.1076E+01
     -2.463  0.8793E+00  0.8796E+00  0.1123E+01  0.1122E+01
     -2.410  0.8817E+00  0.8813E+00  0.1169E+01  0.1169E+01
     -2.358  0.9400E+00  0.9393E+00  0.1219E+01  0.1218E+01
     -2.305  0.9899E+00  0.9896E+00  0.1271E+01  0.1271E+01
     -2.252  0.1007E+01  0.1007E+01  0.1324E+01  0.1324E+01
     -2.199  0.1004E+01  0.1005E+01  0.1377E+01  0.1377E+01
     -2.147  0.9827E+00  0.9829E+00  0.1429E+01  0.1429E+01
     -2.094  0.9950E+00  0.9946E+00  0.1482E+01  0.1481E+01
     -2.041  0.1035E+01  0.1035E+01  0.1536E+01  0.1536E+01
     -1.989  0.9889E+00  0.9900E+00  0.1588E+01  0.1588E+01
     -1.936  0.8550E+00  0.8564E+00  0.1634E+01  0.1633E+01
     -1.883  0.7754E+00  0.7759E+00  0.1674E+01  0.1674E+01
     -1.830  0.7813E+00  0.7811E+00  0.1716E+01  0.1715E+01
     -1.778  0.8350E+00  0.8342E+00  0.1760E+01  0.1759E+01
     -1.725  0.9542E+00  0.9528E+00  0.1810E+01  0.1810E+01
     -1.672  0.1070E+01  0.1069E+01  0.1867E+01  0.1866E+01
     -1.619  0.1103E+01  0.1103E+01  0.1925E+01  0.1924E+01
     -1.567  0.1128E+01  0.1128E+01  0.1984E+01  0.1984E+01
     -1.514  0.1137E+01  0.1137E+01  0.2044E+01  0.2044E+01
     -1.461  0.1089E+01  0.1089E+01  0.2102E+01  0.2101E+01
     -1.408  0.1103E+01  0.1103E+01  0.2160E+01  0.2159E+01
     -1.356  0.1179E+01  0.1179E+01  0.2222E+01  0.2221E+01
     -1.303  0.1192E+01  0.1192E+01  0.2285E+01  0.2284E+01
     -1.250  0.1188E+01  0.1188E+01  0.2348E+01  0.2347E+01
     -1.198  0.1226E+01  0.1226E+01  0.2412E+01  0.2412E+01
     -1.145  0.1223E+01  0.1223E+01  0.2477E+01  0.2476E+01
     -1.092  0.1155E+01  0.1156E+01  0.2538E+01  0.2537E+01
     -1.039  0.1083E+01  0.1084E+01  0.2595E+01  0.2594E+01
     -0.987  0.1025E+01  0.1025E+01  0.2649E+01  0.2649E+01
     -0.934  0.1015E+01  0.1014E+01  0.2703E+01  0.2702E+01
     -0.881  0.1054E+01  0.1054E+01  0.2758E+01  0.2758E+01
     -0.828  0.1082E+01  0.1082E+01  0.2815E+01  0.2815E+01
     -0.776  0.1105E+01  0.1105E+01  0.2874E+01  0.2873E+01
     -0.723  0.1129E+01  0.1129E+01  0.2933E+01  0.2933E+01
     -0.670  0.1183E+01  0.1183E+01  0.2996E+01  0.2995E+01
     -0.617  0.1307E+01  0.1306E+01  0.3065E+01  0.3064E+01
     -0.565  0.1415E+01  0.1415E+01  0.3139E+01  0.3139E+01
     -0.512  0.1381E+01  0.1382E+01  0.3212E+01  0.3212E+01
     -0.459  0.1239E+01  0.1240E+01  0.3277E+01  0.3277E+01
     -0.406  0.1164E+01  0.1164E+01  0.3339E+01  0.3338E+01
     -0.354  0.1272E+01  0.1271E+01  0.3406E+01  0.3405E+01
     -0.301  0.1487E+01  0.1485E+01  0.3484E+01  0.3484E+01
     -0.248  0.1601E+01  0.1601E+01  0.3569E+01  0.3568E+01
     -0.196  0.1504E+01  0.1506E+01  0.3648E+01  0.3648E+01
     -0.143  0.1329E+01  0.1330E+01  0.3718E+01  0.3718E+01
     -0.090  0.1220E+01  0.1221E+01  0.3783E+01  0.3782E+01
     -0.037  0.1196E+01  0.1196E+01  0.3846E+01  0.3845E+01
      0.015  0.1218E+01  0.1218E+01  0.3910E+01  0.3910E+01
      0.068  0.1255E+01  0.1255E+01  0.3976E+01  0.3976E+01
      0.121  0.1310E+01  0.1309E+01  0.4046E+01  0.4045E+01
      0.174  0.1417E+01  0.1416E+01  0.4120E+01  0.4120E+01
      0.226  0.1539E+01  0.1538E+01  0.4201E+01  0.4201E+01
      0.279  0.1581E+01  0.1581E+01  0.4285E+01  0.4284E+01
      0.332  0.1540E+01  0.1541E+01  0.4366E+01  0.4365E+01
      0.385  0.1488E+01  0.1488E+01  0.4445E+01  0.4444E+01
      0.437  0.1406E+01  0.1407E+01  0.4519E+01  0.4518E+01
      0.490  0.1289E+01  0.1290E+01  0.4587E+01  0.4586E+01
      0.543  0.1167E+01  0.1169E+01  0.4648E+01  0.4648E+01
      0.595  0.1044E+01  0.1045E+01  0.4704E+01  0.4703E+01
      0.648  0.9975E+00  0.9972E+00  0.4756E+01  0.4756E+01
      0.701  0.1076E+01  0.1075E+01  0.4813E+01  0.4813E+01
      0.754  0.1223E+01  0.1222E+01  0.4878E+01  0.4877E+01
      0.806  0.1414E+01  0.1413E+01  0.4952E+01  0.4952E+01
      0.859  0.1633E+01  0.1631E+01  0.5038E+01  0.5038E+01
      0.912  0.1763E+01  0.1763E+01  0.5131E+01  0.5131E+01
      0.965  0.1742E+01  0.1743E+01  0.5223E+01  0.5223E+01
      1.017  0.1640E+01  0.1640E+01  0.5310E+01  0.5309E+01
      1.070  0.1524E+01  0.1525E+01  0.5390E+01  0.5390E+01
      1.123  0.1428E+01  0.1429E+01  0.5466E+01  0.5465E+01
      1.176  0.1348E+01  0.1348E+01  0.5537E+01  0.5536E+01
      1.228  0.1331E+01  0.1331E+01  0.5607E+01  0.5606E+01
      1.281  0.1429E+01  0.1428E+01  0.5682E+01  0.5682E+01
      1.334  0.1576E+01  0.1575E+01  0.5765E+01  0.5765E+01
      1.386  0.1667E+01  0.1666E+01  0.5853E+01  0.5853E+01
      1.439  0.1651E+01  0.1651E+01  0.5941E+01  0.5940E+01
      1.492  0.1579E+01  0.1580E+01  0.6024E+01  0.6023E+01
      1.545  0.1509E+01  0.1510E+01  0.6103E+01  0.6103E+01
      1.597  0.1460E+01  0.1460E+01  0.6180E+01  0.6180E+01
      1.650  0.1443E+01  0.1442E+01  0.6257E+01  0.6256E+01
      1.703  0.1443E+01  0.1443E+01  0.6333E+01  0.6332E+01
      1.756  0.1429E+01  0.1429E+01  0.6408E+01  0.6407E+01
      1.808  0.1390E+01  0.1390E+01  0.6481E+01  0.6481E+01
      1.861  0.1360E+01  0.1360E+01  0.6553E+01  0.6553E+01
      1.914  0.1407E+01  0.1407E+01  0.6627E+01  0.6627E+01
      1.967  0.1576E+01  0.1574E+01  0.6711E+01  0.6710E+01
      2.019  0.1777E+01  0.1775E+01  0.6804E+01  0.6804E+01
      2.072  0.1882E+01  0.1881E+01  0.6904E+01  0.6903E+01
      2.125  0.1939E+01  0.1939E+01  0.7006E+01  0.7005E+01
      2.177  0.1976E+01  0.1976E+01  0.7110E+01  0.7109E+01
      2.230  0.1903E+01  0.1904E+01  0.7211E+01  0.7210E+01
      2.283  0.1707E+01  0.1709E+01  0.7301E+01  0.7300E+01
      2.336  0.1561E+01  0.1562E+01  0.7383E+01  0.7382E+01
      2.388  0.1592E+01  0.1591E+01  0.7467E+01  0.7466E+01
      2.441  0.1760E+01  0.1758E+01  0.7560E+01  0.7559E+01
      2.494  0.1891E+01  0.1890E+01  0.7660E+01  0.7659E+01
      2.547  0.1844E+01  0.1845E+01  0.7757E+01  0.7756E+01
      2.599  0.1716E+01  0.1717E+01  0.7848E+01  0.7847E+01
      2.652  0.1657E+01  0.1657E+01  0.7935E+01  0.7934E+01
      2.705  0.1719E+01  0.1718E+01  0.8026E+01  0.8025E+01
      2.758  0.1877E+01  0.1875E+01  0.8125E+01  0.8124E+01
      2.810  0.1977E+01  0.1977E+01  0.8229E+01  0.8228E+01
      2.863  0.1966E+01  0.1966E+01  0.8333E+01  0.8332E+01
      2.916  0.2023E+01  0.2022E+01  0.8440E+01  0.8439E+01
      2.968  0.2130E+01  0.2130E+01  0.8552E+01  0.8551E+01
      3.021  0.2084E+01  0.2085E+01  0.8662E+01  0.8661E+01
      3.074  0.1896E+01  0.1898E+01  0.8762E+01  0.8761E+01
      3.127  0.1723E+01  0.1724E+01  0.8853E+01  0.8852E+01
      3.179  0.1614E+01  0.1615E+01  0.8938E+01  0.8937E+01
      3.232  0.1572E+01  0.1571E+01  0.9021E+01  0.9020E+01
      3.285  0.1574E+01  0.1574E+01  0.9104E+01  0.9103E+01
      3.338  0.1589E+01  0.1589E+01  0.9188E+01  0.9187E+01
      3.390  0.1618E+01  0.1618E+01  0.9273E+01  0.9273E+01
      3.443  0.1758E+01  0.1756E+01  0.9366E+01  0.9365E+01
      3.496  0.2032E+01  0.2030E+01  0.9473E+01  0.9472E+01
      3.549  0.2208E+01  0.2208E+01  0.9590E+01  0.9589E+01
      3.601  0.2146E+01  0.2148E+01  0.9703E+01  0.9702E+01
      3.654  0.2007E+01  0.2008E+01  0.9809E+01  0.9808E+01
      3.707  0.1942E+01  0.1942E+01  0.9911E+01  0.9910E+01
      3.759  0.1956E+01  0.1956E+01  0.1001E+02  0.1001E+02
      3.812  0.1974E+01  0.1974E+01  0.1012E+02  0.1012E+02
      3.865  0.1878E+01  0.1880E+01  0.1022E+02  0.1022E+02
      3.918  0.1748E+01  0.1749E+01  0.1031E+02  0.1031E+02
      3.970  0.1704E+01  0.1704E+01  0.1040E+02  0.1040E+02
      4.023  0.1726E+01  0.1726E+01  0.1049E+02  0.1049E+02
      4.076  0.1754E+01  0.1753E+01  0.1058E+02  0.1058E+02
      4.129  0.1766E+01  0.1766E+01  0.1068E+02  0.1068E+02
      4.181  0.1733E+01  0.1734E+01  0.1077E+02  0.1077E+02
      4.234  0.1684E+01  0.1684E+01  0.1086E+02  0.1086E+02
      4.287  0.1741E+01  0.1740E+01  0.1095E+02  0.1095E+02
      4.340  0.1911E+01  0.1909E+01  0.1105E+02  0.1105E+02
      4.392  0.2055E+01  0.2054E+01  0.1116E+02  0.1116E+02
      4.445  0.2068E+01  0.2068E+01  0.1127E+02  0.1127E+02
      4.498  0.2039E+01  0.2039E+01  0.1137E+02  0.1137E+02
      4.550  0.2127E+01  0.2126E+01  0.1149E+02  0.1149E+02
      4.603  0.2206E+01  0.2206E+01  0.1160E+02  0.1160E+02
      4.656  0.2090E+01  0.2092E+01  0.1171E+02  0.1171E+02
      4.709  0.1939E+01  0.1940E+01  0.1182E+02  0.1182E+02
      4.761  0.1938E+01  0.1937E+01  0.1192E+02  0.1192E+02
      4.814  0.1989E+01  0.1988E+01  0.1202E+02  0.1202E+02
      4.867  0.2017E+01  0.2017E+01  0.1213E+02  0.1213E+02
      4.920  0.2019E+01  0.2019E+01  0.1224E+02  0.1224E+02
      4.972  0.1967E+01  0.1968E+01  0.1234E+02  0.1234E+02
      5.025  0.1939E+01  0.1939E+01  0.1244E+02  0.1244E+02
      5.078  0.2033E+01  0.2032E+01  0.1255E+02  0.1255E+02
      5.131  0.2142E+01  0.2142E+01  0.1266E+02  0.1266E+02
      5.183  0.2135E+01  0.2136E+01  0.1278E+02  0.1277E+02
      5.236  0.2090E+01  0.2091E+01  0.1289E+02  0.1288E+02
      5.289  0.2088E+01  0.2088E+01  0.1300E+02  0.1299E+02
      5.341  0.2074E+01  0.2075E+01  0.1311E+02  0.1310E+02
      5.394  0.1986E+01  0.1987E+01  0.1321E+02  0.1321E+02
      5.447  0.1848E+01  0.1849E+01  0.1331E+02  0.1331E+02
      5.500  0.1805E+01  0.1805E+01  0.1340E+02  0.1340E+02
      5.552  0.1950E+01  0.1948E+01  0.1351E+02  0.1350E+02
      5.605  0.2136E+01  0.2135E+01  0.1362E+02  0.1362E+02
      5.658  0.2267E+01  0.2266E+01  0.1374E+02  0.1374E+02
      5.711  0.2372E+01  0.2371E+01  0.1386E+02  0.1386E+02
      5.763  0.2398E+01  0.2398E+01  0.1399E+02  0.1399E+02
      5.816  0.2281E+01  0.2282E+01  0.1411E+02  0.1411E+02
      5.869  0.2166E+01  0.2167E+01  0.1422E+02  0.1422E+02
      5.922  0.2120E+01  0.2121E+01  0.1434E+02  0.1434E+02
      5.974  0.2099E+01  0.2099E+01  0.1445E+02  0.1445E+02
      6.027  0.2080E+01  0.2081E+01  0.1456E+02  0.1456E+02
      6.080  0.2046E+01  0.2046E+01  0.1466E+02  0.1466E+02
      6.132  0.2032E+01  0.2032E+01  0.1477E+02  0.1477E+02
      6.185  0.2117E+01  0.2116E+01  0.1488E+02  0.1488E+02
      6.238  0.2339E+01  0.2337E+01  0.1501E+02  0.1501E+02
      6.291  0.2556E+01  0.2555E+01  0.1514E+02  0.1514E+02
      6.343  0.2497E+01  0.2499E+01  0.1527E+02  0.1527E+02
      6.396  0.2227E+01  0.2229E+01  0.1539E+02  0.1539E+02
      6.449  0.2006E+01  0.2008E+01  0.1550E+02  0.1550E+02
      6.502  0.1911E+01  0.1911E+01  0.1560E+02  0.1560E+02
      6.554  0.1862E+01  0.1862E+01  0.1570E+02  0.1570E+02
      6.607  0.1876E+01  0.1875E+01  0.1580E+02  0.1579E+02
      6.660  0.2071E+01  0.2068E+01  0.1590E+02  0.1590E+02
      6.713  0.2333E+01  0.2331E+01  0.1603E+02  0.1603E+02
      6.765  0.2545E+01  0.2542E+01  0.1616E+02  0.1616E+02
      6.818  0.2702E+01  0.2701E+01  0.1630E+02  0.1630E+02
      6.871  0.2703E+01  0.2704E+01  0.1645E+02  0.1645E+02
      6.923  0.2535E+01  0.2537E+01  0.1658E+02  0.1658E+02
      6.976  0.2414E+01  0.2415E+01  0.1671E+02  0.1671E+02
      7.029  0.2424E+01  0.2424E+01  0.1684E+02  0.1683E+02
      7.082  0.2474E+01  0.2473E+01  0.1697E+02  0.1697E+02
      7.134  0.2486E+01  0.2486E+01  0.1710E+02  0.1710E+02
      7.187  0.2420E+01  0.2421E+01  0.1723E+02  0.1722E+02
      7.240  0.2273E+01  0.2274E+01  0.1735E+02  0.1734E+02
      7.293  0.2149E+01  0.2148E+01  0.1746E+02  0.1746E+02
      7.345  0.2144E+01  0.2143E+01  0.1757E+02  0.1757E+02
      7.398  0.2157E+01  0.2159E+01  0.1769E+02  0.1768E+02
      7.451  0.2118E+01  0.2121E+01  0.1780E+02  0.1780E+02
      7.504  0.2088E+01  0.2090E+01  0.1791E+02  0.1791E+02
      7.556  0.2115E+01  0.2118E+01  0.1802E+02  0.1802E+02
      7.609  0.2166E+01  0.2171E+01  0.1813E+02  0.1813E+02
      7.662  0.2207E+01  0.2215E+01  0.1825E+02  0.1825E+02
      7.714  0.2231E+01  0.2244E+01  0.1837E+02  0.1837E+02
      7.767  0.2221E+01  0.2229E+01  0.1848E+02  0.1849E+02
      7.820  0.2163E+01  0.2161E+01  0.1860E+02  0.1860E+02
      7.873  0.2087E+01  0.2088E+01  0.1871E+02  0.1871E+02
      7.925  0.2032E+01  0.2043E+01  0.1882E+02  0.1882E+02
      7.978  0.1963E+01  0.1972E+01  0.1892E+02  0.1892E+02
      8.031  0.1803E+01  0.1797E+01  0.1902E+02  0.1902E+02
      8.084  0.1579E+01  0.1557E+01  0.1910E+02  0.1910E+02
      8.136  0.1310E+01  0.1283E+01  0.1917E+02  0.1917E+02
      8.189  0.1055E+01  0.1038E+01  0.1922E+02  0.1922E+02
      8.242  0.9429E+00  0.9472E+00  0.1927E+02  0.1927E+02
      8.295  0.9412E+00  0.9574E+00  0.1932E+02  0.1932E+02
      8.347  0.9763E+00  0.9873E+00  0.1937E+02  0.1937E+02
      8.400  0.1062E+01  0.1068E+01  0.1943E+02  0.1943E+02
      8.453  0.1144E+01  0.1143E+01  0.1949E+02  0.1949E+02
      8.505  0.1107E+01  0.1103E+01  0.1955E+02  0.1955E+02
      8.558  0.9261E+00  0.9234E+00  0.1960E+02  0.1960E+02
      8.611  0.6953E+00  0.6941E+00  0.1963E+02  0.1963E+02
      8.664  0.5259E+00  0.5269E+00  0.1966E+02  0.1966E+02
      8.716  0.4092E+00  0.4132E+00  0.1968E+02  0.1968E+02
      8.769  0.3403E+00  0.3450E+00  0.1970E+02  0.1970E+02
      8.822  0.3321E+00  0.3326E+00  0.1972E+02  0.1972E+02
      8.875  0.3672E+00  0.3594E+00  0.1974E+02  0.1974E+02
      8.927  0.4182E+00  0.4064E+00  0.1976E+02  0.1976E+02
      8.980  0.4497E+00  0.4430E+00  0.1978E+02  0.1978E+02
      9.033  0.4416E+00  0.4453E+00  0.1981E+02  0.1981E+02
      9.086  0.4057E+00  0.4123E+00  0.1983E+02  0.1983E+02
      9.138  0.3485E+00  0.3527E+00  0.1985E+02  0.1985E+02
      9.191  0.2790E+00  0.2815E+00  0.1986E+02  0.1986E+02
      9.244  0.2134E+00  0.2154E+00  0.1987E+02  0.1987E+02
      9.296  0.1772E+00  0.1790E+00  0.1988E+02  0.1988E+02
      9.349  0.1869E+00  0.1890E+00  0.1989E+02  0.1989E+02
      9.402  0.2292E+00  0.2327E+00  0.1991E+02  0.1991E+02
      9.455  0.2719E+00  0.2769E+00  0.1992E+02  0.1992E+02
      9.507  0.2522E+00  0.2591E+00  0.1993E+02  0.1993E+02
      9.560  0.1770E+00  0.1918E+00  0.1994E+02  0.1994E+02
      9.613  0.1285E+00  0.1495E+00  0.1995E+02  0.1995E+02
      9.666  0.1234E+00  0.1286E+00  0.1996E+02  0.1996E+02
      9.718  0.1134E+00  0.9456E-01  0.1996E+02  0.1996E+02
      9.771  0.9090E-01  0.7105E-01  0.1997E+02  0.1997E+02
      9.824  0.8958E-01  0.8053E-01  0.1997E+02  0.1997E+02
      9.877  0.1116E+00  0.1095E+00  0.1998E+02  0.1998E+02
      9.929  0.1293E+00  0.1241E+00  0.1998E+02  0.1998E+02
      9.982  0.1153E+00  0.1000E+00  0.1999E+02  0.1999E+02
     10.035  0.8381E-01  0.6438E-01  0.1999E+02  0.1999E+02
     10.088  0.5482E-01  0.4802E-01  0.2000E+02  0.2000E+02
     10.140  0.2963E-01  0.4060E-01  0.2000E+02  0.2000E+02
     10.193  0.1287E-01  0.2675E-01  0.2000E+02  0.2000E+02
     10.246  0.4841E-02  0.1280E-01  0.2000E+02  0.2000E+02
     10.298  0.1744E-02  0.5092E-02  0.2000E+02  0.2000E+02
     10.351  0.4896E-03  0.1754E-02  0.2000E+02  0.2000E+02
     10.404  0.1714E-03  0.6224E-03  0.2000E+02  0.2000E+02
     10.457  0.0000E+00  0.2182E-03  0.2000E+02  0.2000E+02
     10.509  0.0000E+00  0.0000E+00  0.2000E+02  0.2000E+02
     10.562  0.0000E+00  0.0000E+00  0.2000E+02  0.2000E+02
     10.615  0.0000E+00  0.0000E+00  0.2000E+02  0.2000E+02
     10.668  0.0000E+00  0.0000E+00  0.2000E+02  0.2000E+02
     10.720  0.0000E+00  0.0000E+00  0.2000E+02  0.2000E+02
     10.773  0.0000E+00  0.0000E+00  0.2000E+02  0.2000E+02
     10.826  0.0000E+00  0.0000E+00  0.2000E+02  0.2000E+02
     10.82577259     -4.99432403  301      4.31441749      1.00000000
     -4.994  0.0000E+00  0.0000E+00  0.0000E+00  0.0000E+00  0.0000E+00  0.0000E+00  0.0000E+00  0.0000E+00  0.0000E+00  0.0000E+00  0.0000E+00  0.0000E+00  0.0000E+00  0.0000E+00  0.0000E+00  0.0000E+00  0.0000E+00  0.0000E+00
     -4.942  0.0000E+00  0.0000E+00  0.0000E+00  0.0000E+00  0.0000E+00  0.0000E+00  0.0000E+00  0.0000E+00  0.0000E+00  0.0000E+00  0.0000E+00  0.0000E+00  0.0000E+00  0.0000E+00  0.0000E+00  0.0000E+00  0.0000E+00  0.0000E+00
     -4.889  0.0000E+00  0.0000E+00  0.0000E+00  0.0000E+00  0.0000E+00  0.0000E+00  0.0000E+00  0.0000E+00  0.0000E+00  0.0000E+00  0.0000E+00  0.0000E+00  0.0000E+00  0.0000E+00  0.0000E+00  0.0000E+00  0.0000E+00  0.0000E+00
     -4.836  0.0000E+00  0.0000E+00  0.0000E+00  0.0000E+00  0.0000E+00  0.0000E+00  0.0000E+00  0.0000E+00  0.0000E+00  0.0000E+00  0.0000E+00  0.0000E+00  0.0000E+00  0.0000E+00  0.0000E+00  0.0000E+00  0.0000E+00  0.0000E+00
     -4.783  0.0000E+00  0.0000E+00  0.0000E+00  0.0000E+00  0.0000E+00  0.0000E+00  0.0000E+00  0.0000E+00  0.0000E+00  0.0000E+00  0.0000E+00  0.0000E+00  0.0000E+00  0.0000E+00  0.0000E+00  0.0000E+00  0.0000E+00  0.0000E+00
     -4.731  0.0000E+00  0.0000E+00  0.0000E+00  0.0000E+00  0.0000E+00  0.0000E+00  0.0000E+00  0.0000E+00  0.0000E+00  0.0000E+00  0.0000E+00  0.0000E+00  0.0000E+00  0.0000E+00  0.0000E+00  0.0000E+00  0.0000E+00  0.0000E+00
     -4.678  0.2409E-06  0.2387E-06  0.2901E-09  0.2873E-09  0.3033E-09  0.3002E-09  0.2901E-09  0.2873E-09  0.5572E-21  0.2593E-20  0.6990E-21  0.1777E-20  0.1235E-11  0.1188E-11  0.6990E-21  0.1777E-20  0.2184E-12  0.2166E-12
     -4.625  0.8955E-06  0.8873E-06  0.2067E-08  0.2047E-08  0.2038E-08  0.2018E-08  0.2067E-08  0.2047E-08  0.2132E-11  0.2119E-11  0.1940E-11  0.1921E-11  0.4932E-11  0.4749E-11  0.1940E-11  0.1921E-11  0.1020E-11  0.1011E-11
     -4.572  0.2563E-05  0.2540E-05  0.6398E-08  0.6335E-08  0.7386E-08  0.7311E-08  0.6398E-08  0.6335E-08  0.1008E-10  0.1001E-10  0.8363E-11  0.8281E-11  0.1449E-10  0.1399E-10  0.8363E-11  0.8281E-11  0.2315E-11  0.2295E-11
     -4.520  0.7592E-05  0.7523E-05  0.2134E-07  0.2113E-07  0.2503E-07  0.2477E-07  0.2134E-07  0.2113E-07  0.2282E-10  0.2268E-10  0.3197E-10  0.3166E-10  0.5040E-10  0.4884E-10  0.3197E-10  0.3166E-10  0.1956E-10  0.1940E-10
     -4.467  0.2226E-04  0.2206E-04  0.7063E-07  0.6994E-07  0.7420E-07  0.7344E-07  0.7063E-07  0.6994E-07  0.1334E-09  0.1325E-09  0.1130E-09  0.1119E-09  0.1651E-09  0.1602E-09  0.1130E-09  0.1119E-09  0.6000E-10  0.5948E-10
     -4.414  0.6159E-04  0.6105E-04  0.1886E-06  0.1867E-06  0.2053E-06  0.2032E-06  0.1886E-06  0.1867E-06  0.3135E-09  0.3114E-09  0.3086E-09  0.3056E-09  0.4351E-09  0.4219E-09  0.3086E-09  0.3056E-09  0.1603E-09  0.1588E-09
     -4.362  0.1686E-03  0.1672E-03  0.5357E-06  0.5306E-06  0.5948E-06  0.5889E-06  0.5357E-06  0.5306E-06  0.9595E-09  0.9530E-09  0.9287E-09  0.9196E-09  0.1253E-08  0.1216E-08  0.9287E-09  0.9196E-09  0.4546E-09  0.4507E-09
     -4.309  0.4255E-03  0.4224E-03  0.1445E-05  0.1432E-05  0.1587E-05  0.1572E-05  0.1445E-05  0.1432E-05  0.2712E-08  0.2694E-08  0.2559E-08  0.2534E-08  0.3309E-08  0.3219E-08  0.2559E-08  0.2534E-08  0.1269E-08  0.1258E-08
     -4.256  0.9260E-03  0.9208E-03  0.3573E-05  0.3544E-05  0.3897E-05  0.3865E-05  0.3573E-05  0.3544E-05  0.7187E-08  0.7144E-08  0.6755E-08  0.6695E-08  0.7956E-08  0.7761E-08  0.6755E-08  0.6695E-08  0.3466E-08  0.3438E-08
     -4.203  0.1631E-02  0.1625E-02  0.7603E-05  0.7554E-05  0.8408E-05  0.8350E-05  0.7603E-05  0.7554E-05  0.1725E-07  0.1716E-07  0.1638E-07  0.1625E-07  0.1662E-07  0.1627E-07  0.1638E-07  0.1625E-07  0.8261E-08  0.8200E-08
     -4.151  0.2352E-02  0.2347E-02  0.1408E-04  0.1401E-04  0.1571E-04  0.1562E-04  0.1408E-04  0.1401E-04  0.3705E-07  0.3690E-07  0.3563E-07  0.3538E-07  0.3147E-07  0.3096E-07  0.3563E-07  0.3538E-07  0.1876E-07  0.1863E-07
     -4.098  0.3037E-02  0.3032E-02  0.2357E-04  0.2347E-04  0.2569E-04  0.2557E-04  0.2357E-04  0.2347E-04  0.7314E-07  0.7285E-07  0.6933E-07  0.6889E-07  0.5505E-07  0.5433E-07  0.6933E-07  0.6889E-07  0.3711E-07  0.3691E-07
     -4.045  0.3633E-02  0.3631E-02  0.3493E-04  0.3482E-04  0.3715E-04  0.3702E-04  0.3493E-04  0.3482E-04  0.1298E-06  0.1294E-06  0.1212E-06  0.1205E-06  0.8611E-07  0.8520E-07  0.1212E-06  0.1205E-06  0.6045E-07  0.6018E-07
     -3.992  0.3946E-02  0.3946E-02  0.4532E-04  0.4522E-04  0.5065E-04  0.5047E-04  0.4532E-04  0.4522E-04  0.2031E-06  0.2025E-06  0.1926E-06  0.1916E-06  0.1252E-06  0.1241E-06  0.1926E-06  0.1916E-06  0.8803E-07  0.8754E-07
     -3.940  0.4262E-02  0.4260E-02  0.5830E-04  0.5813E-04  0.6930E-04  0.6907E-04  0.5830E-04  0.5813E-04  0.3046E-06  0.3036E-06  0.2923E-06  0.2908E-06  0.1886E-06  0.1872E-06  0.2923E-06  0.2908E-06  0.1366E-06  0.1356E-06
     -3.887  0.4749E-02  0.4747E-02  0.7730E-04  0.7709E-04  0.8722E-04  0.8703E-04  0.7730E-04  0.7709E-04  0.4391E-06  0.4379E-06  0.4127E-06  0.4109E-06  0.2782E-06  0.2765E-06  0.4127E-06  0.4109E-06  0.2231E-06  0.2214E-06
     -3.834  0.5085E-02  0.5085E-02  0.9725E-04  0.9706E-04  0.1000E-03  0.9982E-04  0.9725E-04  0.9706E-04  0.5931E-06  0.5917E-06  0.5625E-06  0.5600E-06  0.3643E-06  0.3625E-06  0.5625E-06  0.5600E-06  0.3244E-06  0.3226E-06
     -3.781  0.5302E-02  0.5302E-02  0.1141E-03  0.1140E-03  0.1198E-03  0.1194E-03  0.1141E-03  0.1140E-03  0.8011E-06  0.7990E-06  0.7816E-06  0.7783E-06  0.4451E-06  0.4430E-06  0.7816E-06  0.7783E-06  0.3915E-06  0.3900E-06
     -3.729  0.5504E-02  0.5505E-02  0.1289E-03  0.1287E-03  0.1478E-03  0.1475E-03  0.1289E-03  0.1287E-03  0.1090E-05  0.1087E-05  0.1017E-05  0.1014E-05  0.5686E-06  0.5657E-06  0.1017E-05  0.1014E-05  0.4326E-06  0.4312E-06
     -3.676  0.5552E-02  0.5556E-02  0.1415E-03  0.1413E-03  0.1724E-03  0.1721E-03  0.1415E-03  0.1413E-03  0.1373E-05  0.1372E-05  0.1209E-05  0.1205E-05  0.7371E-06  0.7340E-06  0.1209E-05  0.1205E-05  0.4990E-06  0.4970E-06
     -3.623  0.5563E-02  0.5564E-02  0.1577E-03  0.1575E-03  0.1944E-03  0.1940E-03  0.1577E-03  0.1575E-03  0.1571E-05  0.1569E-05  0.1486E-05  0.1481E-05  0.8995E-06  0.8965E-06  0.1486E-05  0.1481E-05  0.6702E-06  0.6665E-06
     -3.571  0.5981E-02  0.5979E-02  0.1930E-03  0.1926E-03  0.2202E-03  0.2198E-03  0.1930E-03  0.1926E-03  0.1864E-05  0.1861E-05  0.1943E-05  0.1936E-05  0.1096E-05  0.1092E-05  0.1943E-05  0.1936E-05  0.1002E-05  0.9967E-06
     -3.518  0.6479E-02  0.6480E-02  0.2326E-03  0.2323E-03  0.2445E-03  0.2442E-03  0.2326E-03  0.2323E-03  0.2364E-05  0.2358E-05  0.2380E-05  0.2375E-05  0.1344E-05  0.1339E-05  0.2380E-05  0.2375E-05  0.1317E-05  0.1313E-05
     -3.465  0.6512E-02  0.6516E-02  0.2550E-03  0.2549E-03  0.2583E-03  0.2580E-03  0.2550E-03  0.2549E-03  0.3013E-05  0.3006E-05  0.2672E-05  0.2666E-05  0.1552E-05  0.1547E-05  0.2672E-05  0.2666E-05  0.1435E-05  0.1433E-05
     -3.412  0.6449E-02  0.6452E-02  0.2701E-03  0.2699E-03  0.2875E-03  0.2869E-03  0.2701E-03  0.2699E-03  0.3707E-05  0.3701E-05  0.3095E-05  0.3087E-05  0.1778E-05  0.1771E-05  0.3095E-05  0.3087E-05  0.1457E-05  0.1455E-05
     -3.360  0.6421E-02  0.6425E-02  0.2757E-03  0.2757E-03  0.3449E-03  0.3442E-03  0.2757E-03  0.2757E-03  0.4098E-05  0.4097E-05  0.3736E-05  0.3726E-05  0.2037E-05  0.2031E-05  0.3736E-05  0.3726E-05  0.1448E-05  0.1447E-05
     -3.307  0.6253E-02  0.6257E-02  0.2777E-03  0.2776E-03  0.3949E-03  0.3943E-03  0.2777E-03  0.2776E-03  0.4194E-05  0.4191E-05  0.4446E-05  0.4436E-05  0.2223E-05  0.2217E-05  0.4446E-05  0.4436E-05  0.1540E-05  0.1537E-05
     -3.254  0.6340E-02  0.6340E-02  0.3100E-03  0.3095E-03  0.4224E-03  0.4220E-03  0.3100E-03  0.3095E-03  0.4798E-05  0.4786E-05  0.5166E-05  0.5156E-05  0.2515E-05  0.2507E-05  0.5166E-05  0.5156E-05  0.1954E-05  0.1947E-05
     -3.201  0.6734E-02  0.6734E-02  0.3735E-03  0.3728E-03  0.4351E-03  0.4349E-03  0.3735E-03  0.3728E-03  0.6181E-05  0.6165E-05  0.5761E-05  0.5752E-05  0.3067E-05  0.3057E-05  0.5761E-05  0.5752E-05  0.2648E-05  0.2639E-05
     -3.149  0.6995E-02  0.6998E-02  0.4332E-03  0.4328E-03  0.4364E-03  0.4362E-03  0.4332E-03  0.4328E-03  0.7485E-05  0.7473E-05  0.6251E-05  0.6241E-05  0.3540E-05  0.3530E-05  0.6251E-05  0.6241E-05  0.3361E-05  0.3352E-05
     -3.096  0.6935E-02  0.6939E-02  0.4634E-03  0.4632E-03  0.4657E-03  0.4648E-03  0.4634E-03  0.4632E-03  0.8073E-05  0.8066E-05  0.6956E-05  0.6941E-05  0.3806E-05  0.3796E-05  0.6956E-05  0.6941E-05  0.3806E-05  0.3800E-05
     -3.043  0.6952E-02  0.6954E-02  0.4806E-03  0.4804E-03  0.5670E-03  0.5654E-03  0.4806E-03  0.4804E-03  0.8441E-05  0.8434E-05  0.8242E-05  0.8222E-05  0.4241E-05  0.4228E-05  0.8242E-05  0.8222E-05  0.4018E-05  0.4015E-05
     -2.990  0.6901E-02  0.6906E-02  0.4844E-03  0.4844E-03  0.6797E-03  0.6785E-03  0.4844E-03  0.4844E-03  0.9007E-05  0.8995E-05  0.9693E-05  0.9673E-05  0.4618E-05  0.4609E-05  0.9693E-05  0.9673E-05  0.3930E-05  0.3931E-05
     -2.938  0.6648E-02  0.6653E-02  0.4869E-03  0.4867E-03  0.7329E-03  0.7322E-03  0.4869E-03  0.4867E-03  0.1051E-04  0.1048E-04  0.1090E-04  0.1088E-04  0.4642E-05  0.4635E-05  0.1090E-04  0.1088E-04  0.3599E-05  0.3601E-05
     -2.885  0.6599E-02  0.6602E-02  0.5215E-03  0.5211E-03  0.7718E-03  0.7709E-03  0.5215E-03  0.5211E-03  0.1299E-04  0.1296E-04  0.1214E-04  0.1212E-04  0.4812E-05  0.4802E-05  0.1214E-04  0.1212E-04  0.3573E-05  0.3571E-05
     -2.832  0.6412E-02  0.6420E-02  0.5509E-03  0.5508E-03  0.7995E-03  0.7991E-03  0.5509E-03  0.5508E-03  0.1470E-04  0.1468E-04  0.1267E-04  0.1266E-04  0.5201E-05  0.5190E-05  0.1267E-04  0.1266E-04  0.3902E-05  0.3896E-05
     -2.780  0.6013E-02  0.6018E-02  0.5788E-03  0.5783E-03  0.8012E-03  0.8006E-03  0.5788E-03  0.5783E-03  0.1518E-04  0.1517E-04  0.1283E-04  0.1281E-04  0.5590E-05  0.5577E-05  0.1283E-04  0.1281E-04  0.4774E-05  0.4762E-05
     -2.727  0.6137E-02  0.6136E-02  0.6585E-03  0.6575E-03  0.8818E-03  0.8801E-03  0.6585E-03  0.6575E-03  0.1546E-04  0.1545E-04  0.1521E-04  0.1516E-04  0.6266E-05  0.6248E-05  0.1521E-04  0.1516E-04  0.6405E-05  0.6388E-05
     -2.674  0.6594E-02  0.6594E-02  0.7571E-03  0.7563E-03  0.1022E-02  0.1020E-02  0.7571E-03  0.7563E-03  0.1637E-04  0.1635E-04  0.1920E-04  0.1915E-04  0.6987E-05  0.6972E-05  0.1920E-04  0.1915E-04  0.7892E-05  0.7883E-05
     -2.621  0.6621E-02  0.6627E-02  0.8114E-03  0.8111E-03  0.1079E-02  0.1079E-02  0.8114E-03  0.8111E-03  0.1823E-04  0.1819E-04  0.2147E-04  0.2145E-04  0.7223E-05  0.7212E-05  0.2147E-04  0.2145E-04  0.8400E-05  0.8399E-05
     -2.569  0.6262E-02  0.6270E-02  0.8382E-03  0.8380E-03  0.1004E-02  0.1005E-02  0.8382E-03  0.8380E-03  0.2175E-04  0.2169E-04  0.2118E-04  0.2117E-04  0.7287E-05  0.7275E-05  0.2118E-04  0.2117E-04  0.8260E-05  0.8263E-05
     -2.516  0.5837E-02  0.5845E-02  0.8568E-03  0.8567E-03  0.9095E-03  0.9099E-03  0.8568E-03  0.8567E-03  0.2586E-04  0.2581E-04  0.2065E-04  0.2063E-04  0.7248E-05  0.7237E-05  0.2065E-04  0.2063E-04  0.7632E-05  0.7639E-05
     -2.463  0.5311E-02  0.5320E-02  0.8585E-03  0.8586E-03  0.8922E-03  0.8918E-03  0.8585E-03  0.8586E-03  0.2770E-04  0.2768E-04  0.2136E-04  0.2133E-04  0.6917E-05  0.6909E-05  0.2136E-04  0.2133E-04  0.6847E-05  0.6853E-05
     -2.410  0.4961E-02  0.4966E-02  0.8758E-03  0.8754E-03  0.9692E-03  0.9677E-03  0.8758E-03  0.8754E-03  0.2880E-04  0.2877E-04  0.2444E-04  0.2438E-04  0.6877E-05  0.6862E-05  0.2444E-04  0.2438E-04  0.6311E-05  0.6313E-05
     -2.358  0.4992E-02  0.4995E-02  0.9501E-03  0.9491E-03  0.1092E-02  0.1091E-02  0.9501E-03  0.9491E-03  0.3143E-04  0.3138E-04  0.2929E-04  0.2922E-04  0.7661E-05  0.7641E-05  0.2929E-04  0.2922E-04  0.6229E-05  0.6226E-05