   8   8   1   0
  0.1946664E+02  0.4237965E-09  0.4237965E-09  0.8670941E-09  0.5000000E-15
  1.000000000000000E-004
  CAR 
 unknown system                          
     12.98668003     -4.70501434  301      5.65138267      1.00000000
     -4.705  0.0000E+00  0.0000E+00  0.0000E+00  0.0000E+00
     -4.646  0.0000E+00  0.0000E+00  0.0000E+00  0.0000E+00
     -4.587  0.0000E+00  0.0000E+00  0.0000E+00  0.0000E+00
     -4.528  0.0000E+00  0.0000E+00  0.0000E+00  0.0000E+00
     -4.469  0.0000E+00  0.0000E+00  0.0000E+00  0.0000E+00
     -4.410  0.0000E+00  0.0000E+00  0.0000E+00  0.0000E+00
     -4.351  0.1757E-05  0.1755E-05  0.1036E-06  0.1035E-06
     -4.292  0.1782E-04  0.1780E-04  0.1155E-05  0.1153E-05
     -4.233  0.8044E-04  0.8033E-04  0.5898E-05  0.5890E-05
     -4.174  0.2617E-03  0.2613E-03  0.2133E-04  0.2130E-04
     -4.115  0.8798E-03  0.8786E-03  0.7322E-04  0.7312E-04
     -4.056  0.2820E-02  0.2817E-02  0.2395E-03  0.2392E-03
     -3.997  0.8728E-02  0.8716E-02  0.7542E-03  0.7532E-03
     -3.938  0.2510E-01  0.2507E-01  0.2234E-02  0.2231E-02
     -3.879  0.6077E-01  0.6071E-01  0.5818E-02  0.5812E-02
     -3.820  0.1138E+00  0.1138E+00  0.1253E-01  0.1252E-01
     -3.761  0.1667E+00  0.1666E+00  0.2236E-01  0.2235E-01
     -3.702  0.2178E+00  0.2177E+00  0.3520E-01  0.3518E-01
     -3.644  0.2668E+00  0.2668E+00  0.5094E-01  0.5092E-01
     -3.585  0.2876E+00  0.2876E+00  0.6790E-01  0.6788E-01
     -3.526  0.3104E+00  0.3104E+00  0.8620E-01  0.8618E-01
     -3.467  0.3568E+00  0.3568E+00  0.1072E+00  0.1072E+00
     -3.408  0.3861E+00  0.3861E+00  0.1300E+00  0.1300E+00
     -3.349  0.4058E+00  0.4058E+00  0.1540E+00  0.1539E+00
     -3.290  0.4296E+00  0.4295E+00  0.1793E+00  0.1793E+00
     -3.231  0.4391E+00  0.4391E+00  0.2052E+00  0.2052E+00
     -3.172  0.4368E+00  0.4368E+00  0.2310E+00  0.2309E+00
     -3.113  0.4796E+00  0.4795E+00  0.2593E+00  0.2592E+00
     -3.054  0.5416E+00  0.5415E+00  0.2912E+00  0.2912E+00
     -2.995  0.5485E+00  0.5485E+00  0.3236E+00  0.3235E+00
     -2.936  0.5463E+00  0.5463E+00  0.3558E+00  0.3558E+00
     -2.877  0.5614E+00  0.5614E+00  0.3889E+00  0.3889E+00
     -2.818  0.5509E+00  0.5509E+00  0.4215E+00  0.4214E+00
     -2.759  0.5633E+00  0.5633E+00  0.4547E+00  0.4546E+00
     -2.700  0.6154E+00  0.6153E+00  0.4910E+00  0.4909E+00
     -2.641  0.6597E+00  0.6597E+00  0.5299E+00  0.5299E+00
     -2.582  0.6610E+00  0.6609E+00  0.5689E+00  0.5689E+00
     -2.523  0.6829E+00  0.6828E+00  0.6092E+00  0.6092E+00
     -2.464  0.7147E+00  0.7146E+00  0.6514E+00  0.6513E+00
     -2.405  0.7008E+00  0.7008E+00  0.6927E+00  0.6927E+00
     -2.346  0.7137E+00  0.7136E+00  0.7348E+00  0.7348E+00
     -2.287  0.7318E+00  0.7319E+00  0.7780E+00  0.7780E+00
     -2.228  0.6934E+00  0.6935E+00  0.8189E+00  0.8189E+00
     -2.169  0.7236E+00  0.7234E+00  0.8616E+00  0.8616E+00
     -2.110  0.8352E+00  0.8350E+00  0.9109E+00  0.9108E+00
     -2.051  0.8923E+00  0.8923E+00  0.9636E+00  0.9635E+00
     -1.992  0.8666E+00  0.8667E+00  0.1015E+01  0.1015E+01
     -1.933  0.8209E+00  0.8210E+00  0.1063E+01  0.1063E+01
     -1.874  0.7750E+00  0.7750E+00  0.1109E+01  0.1109E+01
     -1.815  0.7539E+00  0.7538E+00  0.1153E+01  0.1153E+01
     -1.756  0.8063E+00  0.8062E+00  0.1201E+01  0.1201E+01
     -1.697  0.8669E+00  0.8669E+00  0.1252E+01  0.1252E+01
     -1.638  0.8875E+00  0.8876E+00  0.1304E+01  0.1304E+01
     -1.579  0.8996E+00  0.8997E+00  0.1358E+01  0.1357E+01
     -1.521  0.8760E+00  0.8761E+00  0.1409E+01  0.1409E+01
     -1.462  0.8672E+00  0.8672E+00  0.1460E+01  0.1460E+01
     -1.403  0.9253E+00  0.9252E+00  0.1515E+01  0.1515E+01
     -1.344  0.9385E+00  0.9385E+00  0.1570E+01  0.1570E+01
     -1.285  0.8187E+00  0.8189E+00  0.1619E+01  0.1619E+01
     -1.226  0.7053E+00  0.7055E+00  0.1660E+01  0.1660E+01
     -1.167  0.6893E+00  0.6893E+00  0.1701E+01  0.1701E+01
     -1.108  0.7279E+00  0.7278E+00  0.1744E+01  0.1744E+01
     -1.049  0.8332E+00  0.8330E+00  0.1793E+01  0.1793E+01
     -0.990  0.9552E+00  0.9551E+00  0.1849E+01  0.1849E+01
     -0.931  0.9780E+00  0.9780E+00  0.1907E+01  0.1907E+01
     -0.872  0.1001E+01  0.1001E+01  0.1966E+01  0.1966E+01
     -0.813  0.1037E+01  0.1037E+01  0.2027E+01  0.2027E+01
     -0.754  0.9702E+00  0.9702E+00  0.2085E+01  0.2085E+01
     -0.695  0.9436E+00  0.9435E+00  0.2140E+01  0.2140E+01
     -0.636  0.1043E+01  0.1043E+01  0.2202E+01  0.2202E+01
     -0.577  0.1074E+01  0.1074E+01  0.2265E+01  0.2265E+01
     -0.518  0.1029E+01  0.1029E+01  0.2326E+01  0.2326E+01
     -0.459  0.1065E+01  0.1065E+01  0.2389E+01  0.2389E+01
     -0.400  0.1106E+01  0.1106E+01  0.2454E+01  0.2454E+01
     -0.341  0.1062E+01  0.1062E+01  0.2517E+01  0.2517E+01
     -0.282  0.9928E+00  0.9929E+00  0.2575E+01  0.2575E+01
     -0.223  0.9255E+00  0.9257E+00  0.2630E+01  0.2630E+01
     -0.164  0.8924E+00  0.8923E+00  0.2683E+01  0.2683E+01
     -0.105  0.9305E+00  0.9304E+00  0.2738E+01  0.2737E+01
     -0.046  0.9479E+00  0.9479E+00  0.2794E+01  0.2793E+01
      0.013  0.9492E+00  0.9493E+00  0.2850E+01  0.2849E+01
      0.072  0.1004E+01  0.1004E+01  0.2909E+01  0.2909E+01
      0.131  0.1073E+01  0.1073E+01  0.2972E+01  0.2972E+01
      0.190  0.1174E+01  0.1174E+01  0.3041E+01  0.3041E+01
      0.249  0.1309E+01  0.1309E+01  0.3119E+01  0.3118E+01
      0.308  0.1322E+01  0.1322E+01  0.3197E+01  0.3196E+01
      0.367  0.1143E+01  0.1143E+01  0.3264E+01  0.3264E+01
      0.426  0.9883E+00  0.9884E+00  0.3322E+01  0.3322E+01
      0.485  0.1002E+01  0.1002E+01  0.3381E+01  0.3381E+01
      0.544  0.1198E+01  0.1198E+01  0.3452E+01  0.3452E+01
      0.602  0.1424E+01  0.1424E+01  0.3536E+01  0.3536E+01
      0.661  0.1429E+01  0.1429E+01  0.3620E+01  0.3620E+01
      0.720  0.1241E+01  0.1241E+01  0.3694E+01  0.3694E+01
      0.779  0.1056E+01  0.1056E+01  0.3756E+01  0.3756E+01
      0.838  0.9963E+00  0.9963E+00  0.3815E+01  0.3815E+01
      0.897  0.1032E+01  0.1031E+01  0.3876E+01  0.3876E+01
      0.956  0.1126E+01  0.1126E+01  0.3942E+01  0.3942E+01
      1.015  0.1216E+01  0.1216E+01  0.4014E+01  0.4014E+01
      1.074  0.1249E+01  0.1249E+01  0.4088E+01  0.4088E+01
      1.133  0.1308E+01  0.1308E+01  0.4165E+01  0.4165E+01
      1.192  0.1383E+01  0.1383E+01  0.4246E+01  0.4246E+01
      1.251  0.1348E+01  0.1348E+01  0.4326E+01  0.4326E+01
      1.310  0.1309E+01  0.1309E+01  0.4403E+01  0.4403E+01
      1.369  0.1316E+01  0.1316E+01  0.4481E+01  0.4481E+01
      1.428  0.1253E+01  0.1253E+01  0.4555E+01  0.4555E+01
      1.487  0.1199E+01  0.1199E+01  0.4625E+01  0.4625E+01
      1.546  0.1158E+01  0.1158E+01  0.4694E+01  0.4694E+01
      1.605  0.9962E+00  0.9963E+00  0.4753E+01  0.4753E+01
      1.664  0.9287E+00  0.9286E+00  0.4807E+01  0.4807E+01
      1.723  0.1082E+01  0.1082E+01  0.4871E+01  0.4871E+01
      1.782  0.1303E+01  0.1303E+01  0.4948E+01  0.4948E+01
      1.841  0.1497E+01  0.1497E+01  0.5037E+01  0.5037E+01
      1.900  0.1630E+01  0.1630E+01  0.5133E+01  0.5133E+01
      1.959  0.1589E+01  0.1589E+01  0.5227E+01  0.5226E+01
      2.018  0.1470E+01  0.1470E+01  0.5313E+01  0.5313E+01
      2.077  0.1402E+01  0.1402E+01  0.5396E+01  0.5396E+01
      2.136  0.1362E+01  0.1362E+01  0.5476E+01  0.5476E+01
      2.195  0.1336E+01  0.1335E+01  0.5555E+01  0.5555E+01
      2.254  0.1356E+01  0.1356E+01  0.5635E+01  0.5635E+01
      2.313  0.1366E+01  0.1366E+01  0.5716E+01  0.5716E+01
      2.372  0.1357E+01  0.1357E+01  0.5796E+01  0.5796E+01
      2.431  0.1404E+01  0.1404E+01  0.5879E+01  0.5879E+01
      2.490  0.1459E+01  0.1458E+01  0.5965E+01  0.5965E+01
      2.549  0.1489E+01  0.1489E+01  0.6053E+01  0.6053E+01
      2.608  0.1561E+01  0.1561E+01  0.6145E+01  0.6145E+01
      2.667  0.1571E+01  0.1571E+01  0.6237E+01  0.6237E+01
      2.725  0.1510E+01  0.1510E+01  0.6327E+01  0.6326E+01
      2.784  0.1410E+01  0.1410E+01  0.6410E+01  0.6410E+01
      2.843  0.1343E+01  0.1343E+01  0.6489E+01  0.6489E+01
      2.902  0.1371E+01  0.1371E+01  0.6570E+01  0.6570E+01
      2.961  0.1379E+01  0.1379E+01  0.6651E+01  0.6651E+01
      3.020  0.1374E+01  0.1374E+01  0.6732E+01  0.6732E+01
      3.079  0.1380E+01  0.1380E+01  0.6814E+01  0.6814E+01
      3.138  0.1486E+01  0.1486E+01  0.6902E+01  0.6901E+01
      3.197  0.1707E+01  0.1706E+01  0.7002E+01  0.7002E+01
      3.256  0.1858E+01  0.1858E+01  0.7112E+01  0.7112E+01
      3.315  0.1851E+01  0.1851E+01  0.7221E+01  0.7221E+01
      3.374  0.1705E+01  0.1705E+01  0.7322E+01  0.7322E+01
      3.433  0.1566E+01  0.1566E+01  0.7414E+01  0.7414E+01
      3.492  0.1539E+01  0.1539E+01  0.7505E+01  0.7505E+01
      3.551  0.1581E+01  0.1581E+01  0.7598E+01  0.7598E+01
      3.610  0.1613E+01  0.1613E+01  0.7693E+01  0.7693E+01
      3.669  0.1584E+01  0.1584E+01  0.7787E+01  0.7787E+01
      3.728  0.1507E+01  0.1508E+01  0.7876E+01  0.7876E+01
      3.787  0.1401E+01  0.1401E+01  0.7958E+01  0.7958E+01
      3.846  0.1370E+01  0.1370E+01  0.8039E+01  0.8039E+01
      3.905  0.1555E+01  0.1555E+01  0.8131E+01  0.8131E+01
      3.964  0.1760E+01  0.1760E+01  0.8235E+01  0.8235E+01
      4.023  0.1852E+01  0.1852E+01  0.8344E+01  0.8344E+01
      4.082  0.1992E+01  0.1992E+01  0.8462E+01  0.8462E+01
      4.141  0.2104E+01  0.2104E+01  0.8586E+01  0.8586E+01
      4.200  0.1984E+01  0.1984E+01  0.8703E+01  0.8703E+01
      4.259  0.1710E+01  0.1710E+01  0.8804E+01  0.8804E+01
      4.318  0.1464E+01  0.1465E+01  0.8890E+01  0.8890E+01
      4.377  0.1384E+01  0.1384E+01  0.8972E+01  0.8972E+01
      4.436  0.1440E+01  0.1440E+01  0.9057E+01  0.9057E+01
      4.495  0.1394E+01  0.1394E+01  0.9139E+01  0.9139E+01
      4.554  0.1270E+01  0.1271E+01  0.9214E+01  0.9214E+01
      4.613  0.1292E+01  0.1292E+01  0.9290E+01  0.9290E+01
      4.672  0.1456E+01  0.1456E+01  0.9376E+01  0.9376E+01
      4.731  0.1694E+01  0.1693E+01  0.9476E+01  0.9476E+01
      4.790  0.1840E+01  0.1840E+01  0.9585E+01  0.9585E+01
      4.849  0.1849E+01  0.1849E+01  0.9694E+01  0.9694E+01
      4.907  0.1892E+01  0.1892E+01  0.9806E+01  0.9805E+01
      4.966  0.1983E+01  0.1984E+01  0.9923E+01  0.9922E+01
      5.025  0.1943E+01  0.1943E+01  0.1004E+02  0.1004E+02
      5.084  0.1720E+01  0.1720E+01  0.1014E+02  0.1014E+02
      5.143  0.1464E+01  0.1464E+01  0.1023E+02  0.1023E+02
      5.202  0.1297E+01  0.1297E+01  0.1030E+02  0.1030E+02
      5.261  0.1351E+01  0.1351E+01  0.1038E+02  0.1038E+02
      5.320  0.1548E+01  0.1548E+01  0.1047E+02  0.1047E+02
      5.379  0.1636E+01  0.1636E+01  0.1057E+02  0.1057E+02
      5.438  0.1604E+01  0.1603E+01  0.1066E+02  0.1066E+02
      5.497  0.1530E+01  0.1531E+01  0.1075E+02  0.1075E+02
      5.556  0.1489E+01  0.1489E+01  0.1084E+02  0.1084E+02
      5.615  0.1596E+01  0.1596E+01  0.1094E+02  0.1094E+02
      5.674  0.1792E+01  0.1792E+01  0.1104E+02  0.1104E+02
      5.733  0.1894E+01  0.1894E+01  0.1115E+02  0.1115E+02
      5.792  0.1846E+01  0.1846E+01  0.1126E+02  0.1126E+02
      5.851  0.1777E+01  0.1776E+01  0.1137E+02  0.1137E+02
      5.910  0.1796E+01  0.1796E+01  0.1147E+02  0.1147E+02
      5.969  0.1747E+01  0.1747E+01  0.1158E+02  0.1158E+02
      6.028  0.1657E+01  0.1656E+01  0.1167E+02  0.1167E+02
      6.087  0.1683E+01  0.1683E+01  0.1177E+02  0.1177E+02
      6.146  0.1757E+01  0.1757E+01  0.1188E+02  0.1188E+02
      6.205  0.1792E+01  0.1793E+01  0.1198E+02  0.1198E+02
      6.264  0.1761E+01  0.1761E+01  0.1209E+02  0.1209E+02
      6.323  0.1710E+01  0.1710E+01  0.1219E+02  0.1219E+02
      6.382  0.1707E+01  0.1707E+01  0.1229E+02  0.1229E+02
      6.441  0.1757E+01  0.1757E+01  0.1239E+02  0.1239E+02
      6.500  0.1899E+01  0.1899E+01  0.1250E+02  0.1250E+02
      6.559  0.2011E+01  0.2011E+01  0.1262E+02  0.1262E+02
      6.618  0.1991E+01  0.1991E+01  0.1274E+02  0.1274E+02
      6.677  0.1967E+01  0.1967E+01  0.1286E+02  0.1286E+02
      6.736  0.1943E+01  0.1943E+01  0.1297E+02  0.1297E+02
      6.795  0.1869E+01  0.1869E+01  0.1308E+02  0.1308E+02
      6.854  0.1758E+01  0.1758E+01  0.1319E+02  0.1319E+02
      6.913  0.1630E+01  0.1630E+01  0.1328E+02  0.1328E+02
      6.972  0.1572E+01  0.1571E+01  0.1337E+02  0.1337E+02
      7.030  0.1664E+01  0.1663E+01  0.1347E+02  0.1347E+02
      7.089  0.1810E+01  0.1810E+01  0.1358E+02  0.1358E+02
      7.148  0.1896E+01  0.1896E+01  0.1369E+02  0.1369E+02
      7.207  0.1937E+01  0.1937E+01  0.1381E+02  0.1381E+02
      7.266  0.2028E+01  0.2028E+01  0.1393E+02  0.1392E+02
      7.325  0.2168E+01  0.2168E+01  0.1405E+02  0.1405E+02
      7.384  0.2204E+01  0.2204E+01  0.1418E+02  0.1418E+02
      7.443  0.2062E+01  0.2063E+01  0.1430E+02  0.1430E+02
      7.502  0.1933E+01  0.1933E+01  0.1442E+02  0.1442E+02
      7.561  0.1899E+01  0.1899E+01  0.1453E+02  0.1453E+02
      7.620  0.1855E+01  0.1855E+01  0.1464E+02  0.1464E+02
      7.679  0.1820E+01  0.1821E+01  0.1475E+02  0.1475E+02
      7.738  0.1876E+01  0.1875E+01  0.1486E+02  0.1486E+02
      7.797  0.2066E+01  0.2066E+01  0.1498E+02  0.1498E+02
      7.856  0.2237E+01  0.2236E+01  0.1511E+02  0.1511E+02
      7.915  0.2261E+01  0.2261E+01  0.1525E+02  0.1525E+02
      7.974  0.2118E+01  0.2119E+01  0.1537E+02  0.1537E+02
      8.033  0.1890E+01  0.1891E+01  0.1548E+02  0.1548E+02
      8.092  0.1706E+01  0.1706E+01  0.1558E+02  0.1558E+02
      8.151  0.1666E+01  0.1667E+01  0.1568E+02  0.1568E+02
      8.210  0.1789E+01  0.1789E+01  0.1579E+02  0.1579E+02
      8.269  0.1795E+01  0.1795E+01  0.1589E+02  0.1589E+02
      8.328  0.1732E+01  0.1731E+01  0.1600E+02  0.1599E+02
      8.387  0.1836E+01  0.1835E+01  0.1610E+02  0.1610E+02
      8.446  0.2028E+01  0.2027E+01  0.1622E+02  0.1622E+02
      8.505  0.2197E+01  0.2197E+01  0.1635E+02  0.1635E+02
      8.564  0.2395E+01  0.2395E+01  0.1649E+02  0.1649E+02
      8.623  0.2510E+01  0.2511E+01  0.1664E+02  0.1664E+02
      8.682  0.2513E+01  0.2513E+01  0.1679E+02  0.1679E+02
      8.741  0.2477E+01  0.2478E+01  0.1694E+02  0.1694E+02
      8.800  0.2350E+01  0.2351E+01  0.1708E+02  0.1707E+02
      8.859  0.2101E+01  0.2101E+01  0.1720E+02  0.1720E+02
      8.918  0.1852E+01  0.1852E+01  0.1731E+02  0.1731E+02
      8.977  0.1794E+01  0.1793E+01  0.1741E+02  0.1741E+02
      9.036  0.1928E+01  0.1926E+01  0.1753E+02  0.1753E+02
      9.095  0.2061E+01  0.2057E+01  0.1765E+02  0.1765E+02
      9.153  0.1975E+01  0.1972E+01  0.1777E+02  0.1777E+02
      9.212  0.1794E+01  0.1795E+01  0.1787E+02  0.1787E+02
      9.271  0.1773E+01  0.1777E+01  0.1798E+02  0.1798E+02
      9.330  0.1840E+01  0.1843E+01  0.1809E+02  0.1809E+02
      9.389  0.1884E+01  0.1886E+01  0.1820E+02  0.1820E+02
      9.448  0.1903E+01  0.1901E+01  0.1831E+02  0.1831E+02
      9.507  0.1924E+01  0.1917E+01  0.1842E+02  0.1842E+02
      9.566  0.1903E+01  0.1880E+01  0.1853E+02  0.1853E+02
      9.625  0.1869E+01  0.1825E+01  0.1865E+02  0.1864E+02
      9.684  0.1768E+01  0.1732E+01  0.1875E+02  0.1874E+02
      9.743  0.1556E+01  0.1552E+01  0.1884E+02  0.1883E+02
      9.802  0.1441E+01  0.1423E+01  0.1893E+02  0.1892E+02
      9.861  0.1438E+01  0.1417E+01  0.1901E+02  0.1900E+02
      9.920  0.1417E+01  0.1443E+01  0.1909E+02  0.1909E+02
      9.979  0.1278E+01  0.1338E+01  0.1917E+02  0.1917E+02
     10.038  0.1039E+01  0.1091E+01  0.1923E+02  0.1923E+02
     10.097  0.8622E+00  0.8924E+00  0.1928E+02  0.1928E+02
     10.156  0.8583E+00  0.8682E+00  0.1933E+02  0.1933E+02
     10.215  0.9489E+00  0.9485E+00  0.1939E+02  0.1939E+02
     10.274  0.9812E+00  0.9748E+00  0.1945E+02  0.1945E+02
     10.333  0.9274E+00  0.9179E+00  0.1950E+02  0.1950E+02
     10.392  0.8602E+00  0.8449E+00  0.1955E+02  0.1955E+02
     10.451  0.7586E+00  0.7555E+00  0.1960E+02  0.1960E+02
     10.510  0.5831E+00  0.5888E+00  0.1963E+02  0.1963E+02
     10.569  0.4410E+00  0.4437E+00  0.1966E+02  0.1966E+02
     10.628  0.3560E+00  0.3519E+00  0.1968E+02  0.1968E+02
     10.687  0.3002E+00  0.2876E+00  0.1970E+02  0.1970E+02
     10.746  0.3007E+00  0.2871E+00  0.1971E+02  0.1971E+02
     10.805  0.3325E+00  0.3361E+00  0.1973E+02  0.1973E+02
     10.864  0.3536E+00  0.3671E+00  0.1975E+02  0.1975E+02
     10.923  0.3468E+00  0.3528E+00  0.1978E+02  0.1977E+02
     10.982  0.3375E+00  0.3332E+00  0.1980E+02  0.1979E+02
     11.041  0.3491E+00  0.3398E+00  0.1982E+02  0.1981E+02
     11.100  0.3670E+00  0.3528E+00  0.1984E+02  0.1984E+02
     11.159  0.3586E+00  0.3222E+00  0.1986E+02  0.1985E+02
     11.218  0.2939E+00  0.2439E+00  0.1988E+02  0.1987E+02
     11.276  0.1820E+00  0.1666E+00  0.1989E+02  0.1988E+02
     11.335  0.1108E+00  0.1476E+00  0.1989E+02  0.1989E+02
     11.394  0.1215E+00  0.1719E+00  0.1990E+02  0.1990E+02
     11.453  0.1751E+00  0.2005E+00  0.1991E+02  0.1991E+02
     11.512  0.2039E+00  0.1983E+00  0.1992E+02  0.1992E+02
     11.571  0.1995E+00  0.1597E+00  0.1993E+02  0.1993E+02
     11.630  0.1996E+00  0.1366E+00  0.1995E+02  0.1994E+02
     11.689  0.1744E+00  0.1384E+00  0.1996E+02  0.1995E+02
     11.748  0.1073E+00  0.1270E+00  0.1996E+02  0.1995E+02
     11.807  0.5975E-01  0.1180E+00  0.1997E+02  0.1996E+02
     11.866  0.5416E-01  0.1081E+00  0.1997E+02  0.1997E+02
     11.925  0.7024E-01  0.9923E-01  0.1997E+02  0.1997E+02
     11.984  0.9389E-01  0.1110E+00  0.1998E+02  0.1998E+02
     12.043  0.1085E+00  0.1290E+00  0.1999E+02  0.1999E+02
     12.102  0.8860E-01  0.1094E+00  0.1999E+02  0.1999E+02
     12.161  0.6189E-01  0.6404E-01  0.1999E+02  0.2000E+02
     12.220  0.4562E-01  0.2729E-01  0.2000E+02  0.2000E+02
     12.279  0.2644E-01  0.9576E-02  0.2000E+02  0.2000E+02
     12.338  0.1092E-01  0.3053E-02  0.2000E+02  0.2000E+02
     12.397  0.3672E-02  0.9521E-03  0.2000E+02  0.2000E+02
     12.456  0.1070E-02  0.1751E-03  0.2000E+02  0.2000E+02
     12.515  0.3332E-03  0.0000E+00  0.2000E+02  0.2000E+02
     12.574  0.1028E-03  0.0000E+00  0.2000E+02  0.2000E+02
     12.633  0.0000E+00  0.0000E+00  0.2000E+02  0.2000E+02
     12.692  0.0000E+00  0.0000E+00  0.2000E+02  0.2000E+02
     12.751  0.0000E+00  0.0000E+00  0.2000E+02  0.2000E+02
     12.810  0.0000E+00  0.0000E+00  0.2000E+02  0.2000E+02
     12.869  0.0000E+00  0.0000E+00  0.2000E+02  0.2000E+02
     12.928  0.0000E+00  0.0000E+00  0.2000E+02  0.2000E+02
     12.987  0.0000E+00  0.0000E+00  0.2000E+02  0.2000E+02
     12.98668003     -4.70501434  301      5.65138267      1.00000000
     -4.705  0.0000E+00  0.0000E+00  0.0000E+00  0.0000E+00  0.0000E+00  0.0000E+00  0.0000E+00  0.0000E+00  0.0000E+00  0.0000E+00  0.0000E+00  0.0000E+00  0.0000E+00  0.0000E+00  0.0000E+00  0.0000E+00  0.0000E+00  0.0000E+00
     -4.646  0.0000E+00  0.0000E+00  0.0000E+00  0.0000E+00  0.0000E+00  0.0000E+00  0.0000E+00  0.0000E+00  0.0000E+00  0.0000E+00  0.0000E+00  0.0000E+00  0.0000E+00  0.0000E+00  0.0000E+00  0.0000E+00  0.0000E+00  0.0000E+00
     -4.587  0.0000E+00  0.0000E+00  0.0000E+00  0.0000E+00  0.0000E+00  0.0000E+00  0.0000E+00  0.0000E+00  0.0000E+00  0.0000E+00  0.0000E+00  0.0000E+00  0.0000E+00  0.0000E+00  0.0000E+00  0.0000E+00  0.0000E+00  0.0000E+00
     -4.528  0.0000E+00  0.0000E+00  0.0000E+00  0.0000E+00  0.0000E+00  0.0000E+00  0.0000E+00  0.0000E+00  0.0000E+00  0.0000E+00  0.0000E+00  0.0000E+00  0.0000E+00  0.0000E+00  0.0000E+00  0.0000E+00  0.0000E+00  0.0000E+00
     -4.469  0.0000E+00  0.0000E+00  0.0000E+00  0.0000E+00  0.0000E+00  0.0000E+00  0.0000E+00  0.0000E+00  0.0000E+00  0.0000E+00  0.0000E+00  0.0000E+00  0.0000E+00  0.0000E+00  0.0000E+00  0.0000E+00  0.0000E+00  0.0000E+00
     -4.410  0.0000E+00  0.0000E+00  0.0000E+00  0.0000E+00  0.0000E+00  0.0000E+00  0.0000E+00  0.0000E+00  0.0000E+00  0.0000E+00  0.0000E+00  0.0000E+00  0.0000E+00  0.0000E+00  0.0000E+00  0.0000E+00  0.0000E+00  0.0000E+00
     -4.351  0.2713E-07  0.2711E-07  0.1721E-21  0.6351E-21  0.2717E-21  0.3742E-20  0.1721E-21  0.6351E-21  0.4333E-22  0.1237E-22  0.4326E-22  0.8131E-22  0.1646E-12  0.1614E-12  0.4326E-22  0.8131E-22  0.4141E-23  0.1409E-22
     -4.292  0.2734E-06  0.2732E-06  0.3858E-09  0.3852E-09  0.4125E-09  0.4117E-09  0.3858E-09  0.3852E-09  0.2001E-21  0.2077E-20  0.2359E-21  0.4772E-21  0.2024E-11  0.1991E-11  0.2359E-21  0.4772E-21  0.3307E-12  0.3305E-12
     -4.233  0.1229E-05  0.1227E-05  0.2951E-08  0.2947E-08  0.2964E-08  0.2958E-08  0.2951E-08  0.2947E-08  0.3063E-11  0.3065E-11  0.2853E-11  0.2849E-11  0.9516E-11  0.9363E-11  0.2853E-11  0.2849E-11  0.1711E-11  0.1710E-11
     -4.174  0.3992E-05  0.3988E-05  0.1030E-07  0.1028E-07  0.1174E-07  0.1172E-07  0.1030E-07  0.1028E-07  0.1595E-10  0.1596E-10  0.1350E-10  0.1348E-10  0.3138E-10  0.3090E-10  0.1350E-10  0.1348E-10  0.4593E-11  0.4590E-11
     -4.115  0.1340E-04  0.1338E-04  0.4007E-07  0.4002E-07  0.4321E-07  0.4313E-07  0.4007E-07  0.4002E-07  0.5712E-10  0.5715E-10  0.5483E-10  0.5476E-10  0.1260E-09  0.1243E-09  0.5483E-10  0.5476E-10  0.3906E-10  0.3903E-10
     -4.056  0.4293E-04  0.4289E-04  0.1309E-06  0.1307E-06  0.1432E-06  0.1429E-06  0.1309E-06  0.1307E-06  0.2224E-09  0.2224E-09  0.2087E-09  0.2084E-09  0.3966E-09  0.3913E-09  0.2087E-09  0.2084E-09  0.1148E-09  0.1147E-09
     -3.997  0.1328E-03  0.1327E-03  0.4091E-06  0.4085E-06  0.4501E-06  0.4492E-06  0.4091E-06  0.4085E-06  0.6654E-09  0.6656E-09  0.6497E-09  0.6488E-09  0.1234E-08  0.1218E-08  0.6497E-09  0.6488E-09  0.3636E-09  0.3633E-09
     -3.938  0.3815E-03  0.3813E-03  0.1261E-05  0.1259E-05  0.1388E-05  0.1386E-05  0.1261E-05  0.1259E-05  0.2198E-08  0.2198E-08  0.2122E-08  0.2119E-08  0.3693E-08  0.3646E-08  0.2122E-08  0.2119E-08  0.1132E-08  0.1131E-08
     -3.879  0.9217E-03  0.9213E-03  0.3491E-05  0.3486E-05  0.3819E-05  0.3813E-05  0.3491E-05  0.3486E-05  0.6640E-08  0.6642E-08  0.6313E-08  0.6305E-08  0.9703E-08  0.9591E-08  0.6313E-08  0.6305E-08  0.3347E-08  0.3345E-08
     -3.820  0.1719E-02  0.1719E-02  0.8038E-05  0.8030E-05  0.8878E-05  0.8866E-05  0.8038E-05  0.8030E-05  0.1758E-07  0.1758E-07  0.1666E-07  0.1664E-07  0.2127E-07  0.2106E-07  0.1666E-07  0.1664E-07  0.8901E-08  0.8895E-08
     -3.761  0.2499E-02  0.2499E-02  0.1537E-04  0.1536E-04  0.1738E-04  0.1736E-04  0.1537E-04  0.1536E-04  0.3955E-07  0.3957E-07  0.3848E-07  0.3844E-07  0.4057E-07  0.4028E-07  0.3848E-07  0.3844E-07  0.2175E-07  0.2174E-07
     -3.702  0.3234E-02  0.3235E-02  0.2665E-04  0.2663E-04  0.2933E-04  0.2930E-04  0.2665E-04  0.2663E-04  0.8154E-07  0.8156E-07  0.7882E-07  0.7875E-07  0.7255E-07  0.7215E-07  0.7882E-07  0.7875E-07  0.4695E-07  0.4693E-07
     -3.644  0.3927E-02  0.3928E-02  0.4078E-04  0.4075E-04  0.4262E-04  0.4258E-04  0.4078E-04  0.4075E-04  0.1527E-06  0.1527E-06  0.1423E-06  0.1422E-06  0.1148E-06  0.1143E-06  0.1423E-06  0.1422E-06  0.7842E-07  0.7839E-07
     -3.585  0.4189E-02  0.4190E-02  0.5186E-04  0.5183E-04  0.5731E-04  0.5725E-04  0.5186E-04  0.5183E-04  0.2381E-06  0.2381E-06  0.2269E-06  0.2267E-06  0.1609E-06  0.1603E-06  0.2269E-06  0.2267E-06  0.1087E-06  0.1087E-06
     -3.526  0.4459E-02  0.4460E-02  0.6561E-04  0.6556E-04  0.8040E-04  0.8032E-04  0.6561E-04  0.6556E-04  0.3587E-06  0.3588E-06  0.3505E-06  0.3503E-06  0.2420E-06  0.2415E-06  0.3505E-06  0.3503E-06  0.1663E-06  0.1662E-06
     -3.467  0.5064E-02  0.5064E-02  0.8908E-04  0.8902E-04  0.1033E-03  0.1032E-03  0.8908E-04  0.8902E-04  0.5281E-06  0.5282E-06  0.4988E-06  0.4986E-06  0.3720E-06  0.3713E-06  0.4988E-06  0.4986E-06  0.2869E-06  0.2867E-06
     -3.408  0.5421E-02  0.5422E-02  0.1135E-03  0.1135E-03  0.1147E-03  0.1146E-03  0.1135E-03  0.1135E-03  0.7040E-06  0.7041E-06  0.6672E-06  0.6669E-06  0.4909E-06  0.4901E-06  0.6672E-06  0.6669E-06  0.4389E-06  0.4387E-06
     -3.349  0.5624E-02  0.5625E-02  0.1333E-03  0.1332E-03  0.1361E-03  0.1359E-03  0.1333E-03  0.1332E-03  0.9473E-06  0.9474E-06  0.9491E-06  0.9486E-06  0.5825E-06  0.5816E-06  0.9491E-06  0.9486E-06  0.5306E-06  0.5305E-06
     -3.290  0.5871E-02  0.5872E-02  0.1503E-03  0.1502E-03  0.1721E-03  0.1720E-03  0.1503E-03  0.1502E-03  0.1319E-05  0.1319E-05  0.1264E-05  0.1264E-05  0.7376E-06  0.7367E-06  0.1264E-05  0.1264E-05  0.5675E-06  0.5675E-06
     -3.231  0.5919E-02  0.5920E-02  0.1638E-03  0.1638E-03  0.2014E-03  0.2012E-03  0.1638E-03  0.1638E-03  0.1706E-05  0.1706E-05  0.1466E-05  0.1466E-05  0.9798E-06  0.9790E-06  0.1466E-05  0.1466E-05  0.6258E-06  0.6257E-06
     -3.172  0.5794E-02  0.5795E-02  0.1767E-03  0.1766E-03  0.2250E-03  0.2248E-03  0.1767E-03  0.1766E-03  0.1891E-05  0.1892E-05  0.1758E-05  0.1757E-05  0.1186E-05  0.1185E-05  0.1758E-05  0.1757E-05  0.8163E-06  0.8158E-06
     -3.113  0.6260E-02  0.6261E-02  0.2194E-03  0.2192E-03  0.2556E-03  0.2555E-03  0.2194E-03  0.2192E-03  0.2194E-05  0.2194E-05  0.2366E-05  0.2365E-05  0.1434E-05  0.1433E-05  0.2366E-05  0.2365E-05  0.1300E-05  0.1299E-05
     -3.054  0.6981E-02  0.6983E-02  0.2737E-03  0.2736E-03  0.2880E-03  0.2878E-03  0.2737E-03  0.2736E-03  0.2803E-05  0.2803E-05  0.2976E-05  0.2976E-05  0.1799E-05  0.1798E-05  0.2976E-05  0.2976E-05  0.1812E-05  0.1811E-05
     -2.995  0.6982E-02  0.6984E-02  0.2993E-03  0.2992E-03  0.2977E-03  0.2976E-03  0.2993E-03  0.2992E-03  0.3619E-05  0.3618E-05  0.3267E-05  0.3266E-05  0.2075E-05  0.2073E-05  0.3267E-05  0.3266E-05  0.1965E-05  0.1965E-05
     -2.936  0.6835E-02  0.6837E-02  0.3166E-03  0.3165E-03  0.3214E-03  0.3212E-03  0.3166E-03  0.3165E-03  0.4573E-05  0.4573E-05  0.3706E-05  0.3705E-05  0.2351E-05  0.2349E-05  0.3706E-05  0.3705E-05  0.1972E-05  0.1972E-05
     -2.877  0.6883E-02  0.6885E-02  0.3248E-03  0.3247E-03  0.3964E-03  0.3960E-03  0.3248E-03  0.3247E-03  0.5149E-05  0.5150E-05  0.4533E-05  0.4532E-05  0.2744E-05  0.2742E-05  0.4533E-05  0.4532E-05  0.1927E-05  0.1927E-05
     -2.818  0.6608E-02  0.6609E-02  0.3144E-03  0.3143E-03  0.4639E-03  0.4636E-03  0.3144E-03  0.3143E-03  0.5009E-05  0.5009E-05  0.5418E-05  0.5416E-05  0.2951E-05  0.2950E-05  0.5418E-05  0.5416E-05  0.1934E-05  0.1934E-05
     -2.759  0.6622E-02  0.6623E-02  0.3448E-03  0.3447E-03  0.4968E-03  0.4965E-03  0.3448E-03  0.3447E-03  0.5505E-05  0.5505E-05  0.6371E-05  0.6370E-05  0.3237E-05  0.3236E-05  0.6371E-05  0.6370E-05  0.2439E-05  0.2438E-05
     -2.700  0.7123E-02  0.7124E-02  0.4243E-03  0.4241E-03  0.5125E-03  0.5123E-03  0.4243E-03  0.4241E-03  0.7328E-05  0.7327E-05  0.7130E-05  0.7129E-05  0.4051E-05  0.4048E-05  0.7130E-05  0.7129E-05  0.3409E-05  0.3408E-05
     -2.641  0.7537E-02  0.7539E-02  0.5070E-03  0.5069E-03  0.5044E-03  0.5042E-03  0.5070E-03  0.5069E-03  0.9286E-05  0.9286E-05  0.7648E-05  0.7647E-05  0.4822E-05  0.4819E-05  0.7648E-05  0.7647E-05  0.4497E-05  0.4496E-05
     -2.582  0.7399E-02  0.7401E-02  0.5424E-03  0.5423E-03  0.5098E-03  0.5094E-03  0.5424E-03  0.5423E-03  0.9963E-05  0.9965E-05  0.8295E-05  0.8293E-05  0.5056E-05  0.5053E-05  0.8295E-05  0.8293E-05  0.5168E-05  0.5168E-05
     -2.523  0.7392E-02  0.7393E-02  0.5618E-03  0.5617E-03  0.6241E-03  0.6235E-03  0.5618E-03  0.5617E-03  0.1028E-04  0.1028E-04  0.9858E-05  0.9854E-05  0.5622E-05  0.5618E-05  0.9858E-05  0.9854E-05  0.5516E-05  0.5516E-05
     -2.464  0.7467E-02  0.7469E-02  0.5688E-03  0.5688E-03  0.7885E-03  0.7879E-03  0.5688E-03  0.5688E-03  0.1067E-04  0.1068E-04  0.1187E-04  0.1187E-04  0.6363E-05  0.6360E-05  0.1187E-04  0.1187E-04  0.5518E-05  0.5519E-05
     -2.405  0.7111E-02  0.7113E-02  0.5561E-03  0.5560E-03  0.8572E-03  0.8568E-03  0.5561E-03  0.5560E-03  0.1210E-04  0.1210E-04  0.1332E-04  0.1331E-04  0.6349E-05  0.6348E-05  0.1332E-04  0.1331E-04  0.4891E-05  0.4892E-05
     -2.346  0.7063E-02  0.7064E-02  0.5977E-03  0.5976E-03  0.8886E-03  0.8881E-03  0.5977E-03  0.5976E-03  0.1557E-04  0.1557E-04  0.1497E-04  0.1496E-04  0.6433E-05  0.6431E-05  0.1497E-04  0.1496E-04  0.4696E-05  0.4696E-05
     -2.287  0.7034E-02  0.7036E-02  0.6418E-03  0.6417E-03  0.9357E-03  0.9353E-03  0.6418E-03  0.6417E-03  0.1827E-04  0.1827E-04  0.1598E-04  0.1598E-04  0.7063E-05  0.7060E-05  0.1598E-04  0.1598E-04  0.5028E-05  0.5028E-05
     -2.228  0.6397E-02  0.6399E-02  0.6496E-03  0.6495E-03  0.9055E-03  0.9051E-03  0.6496E-03  0.6495E-03  0.1876E-04  0.1876E-04  0.1517E-04  0.1517E-04  0.7486E-05  0.7483E-05  0.1517E-04  0.1517E-04  0.5860E-05  0.5859E-05
     -2.169  0.6351E-02  0.6352E-02  0.7291E-03  0.7289E-03  0.9696E-03  0.9689E-03  0.7291E-03  0.7289E-03  0.1870E-04  0.1870E-04  0.1722E-04  0.1721E-04  0.8254E-05  0.8248E-05  0.1722E-04  0.1721E-04  0.8113E-05  0.8110E-05
     -2.110  0.7059E-02  0.7060E-02  0.8665E-03  0.8662E-03  0.1175E-02  0.1174E-02  0.8665E-03  0.8662E-03  0.1941E-04  0.1941E-04  0.2305E-04  0.2304E-04  0.9485E-05  0.9480E-05  0.2305E-04  0.2304E-04  0.1072E-04  0.1072E-04
     -2.051  0.7306E-02  0.7308E-02  0.9440E-03  0.9438E-03  0.1307E-02  0.1307E-02  0.9440E-03  0.9438E-03  0.2115E-04  0.2115E-04  0.2730E-04  0.2730E-04  0.9933E-05  0.9928E-05  0.2730E-04  0.2730E-04  0.1170E-04  0.1170E-04
     -1.992  0.6909E-02  0.6911E-02  0.9716E-03  0.9714E-03  0.1241E-02  0.1241E-02  0.9716E-03  0.9714E-03  0.2504E-04  0.2503E-04  0.2706E-04  0.2706E-04  0.1001E-04  0.1000E-04  0.2706E-04  0.2706E-04  0.1164E-04  0.1164E-04
     -1.933  0.6457E-02  0.6459E-02  0.9960E-03  0.9959E-03  0.1084E-02  0.1084E-02  0.9960E-03  0.9959E-03  0.3119E-04  0.3118E-04  0.2550E-04  0.2550E-04  0.1016E-04  0.1015E-04  0.2550E-04  0.2550E-04  0.1087E-04  0.1087E-04
     -1.874  0.5874E-02  0.5876E-02  0.9912E-03  0.9911E-03  0.1011E-02  0.1011E-02  0.9912E-03  0.9911E-03  0.3424E-04  0.3424E-04  0.2539E-04  0.2539E-04  0.9648E-05  0.9641E-05  0.2539E-04  0.2539E-04  0.9616E-05  0.9618E-05
     -1.815  0.5321E-02  0.5322E-02  0.9840E-03  0.9839E-03  0.1072E-02  0.1072E-02  0.9840E-03  0.9839E-03  0.3427E-04  0.3428E-04  0.2812E-04  0.2811E-04  0.9152E-05  0.9145E-05  0.2812E-04  0.2811E-04  0.8809E-05  0.8810E-05
     -1.756  0.5374E-02  0.5375E-02  0.1046E-02  0.1045E-02  0.1261E-02  0.1260E-02  0.1046E-02  0.1045E-02  0.3728E-04  0.3728E-04  0.3530E-04  0.3528E-04  0.1001E-04  0.1000E-04  0.3530E-04  0.3528E-04  0.8397E-05  0.8397E-05