  16  16   1   0
  0.1338587E+02  0.3679915E-09  0.3679915E-09  0.1581579E-08  0.5000000E-15
  1.000000000000000E-004
  CAR 
 unknown system                          
     16.11659039    -21.83464966  301      9.81924077      1.00000000
    -21.835  0.0000E+00  0.0000E+00  0.0000E+00  0.0000E+00
    -21.708  0.0000E+00  0.0000E+00  0.0000E+00  0.0000E+00
    -21.582  0.0000E+00  0.0000E+00  0.0000E+00  0.0000E+00
    -21.455  0.0000E+00  0.0000E+00  0.0000E+00  0.0000E+00
    -21.329  0.0000E+00  0.0000E+00  0.0000E+00  0.0000E+00
    -21.202  0.0000E+00  0.0000E+00  0.0000E+00  0.0000E+00
    -21.076  0.0000E+00  0.0000E+00  0.0000E+00  0.0000E+00
    -20.949  0.0000E+00  0.0000E+00  0.0000E+00  0.0000E+00
    -20.823  0.0000E+00  0.0000E+00  0.0000E+00  0.0000E+00
    -20.696  0.0000E+00  0.0000E+00  0.0000E+00  0.0000E+00
    -20.570  0.1509E-02  0.1494E-02  0.1909E-03  0.1890E-03
    -20.443  0.2481E-01  0.2456E-01  0.3330E-02  0.3296E-02
    -20.317  0.3018E+00  0.2988E+00  0.4151E-01  0.4109E-01
    -20.190  0.3472E+01  0.3440E+01  0.4808E+00  0.4763E+00
    -20.064  0.2295E+02  0.2283E+02  0.3384E+01  0.3364E+01
    -19.937  0.4490E+02  0.4491E+02  0.9065E+01  0.9045E+01
    -19.811  0.2041E+02  0.2054E+02  0.1165E+02  0.1164E+02
    -19.684  0.2526E+01  0.2552E+01  0.1197E+02  0.1197E+02
    -19.558  0.1115E+00  0.1134E+00  0.1200E+02  0.1200E+02
    -19.431  0.0000E+00  0.0000E+00  0.1200E+02  0.1200E+02
    -19.305  0.0000E+00  0.0000E+00  0.1200E+02  0.1200E+02
    -19.178  0.0000E+00  0.0000E+00  0.1200E+02  0.1200E+02
    -19.052  0.0000E+00  0.0000E+00  0.1200E+02  0.1200E+02
    -18.925  0.0000E+00  0.0000E+00  0.1200E+02  0.1200E+02
    -18.799  0.0000E+00  0.0000E+00  0.1200E+02  0.1200E+02
    -18.672  0.0000E+00  0.0000E+00  0.1200E+02  0.1200E+02
    -18.546  0.0000E+00  0.0000E+00  0.1200E+02  0.1200E+02
    -18.419  0.0000E+00  0.0000E+00  0.1200E+02  0.1200E+02
    -18.293  0.0000E+00  0.0000E+00  0.1200E+02  0.1200E+02
    -18.166  0.0000E+00  0.0000E+00  0.1200E+02  0.1200E+02
    -18.040  0.0000E+00  0.0000E+00  0.1200E+02  0.1200E+02
    -17.913  0.0000E+00  0.0000E+00  0.1200E+02  0.1200E+02
    -17.787  0.0000E+00  0.0000E+00  0.1200E+02  0.1200E+02
    -17.660  0.0000E+00  0.0000E+00  0.1200E+02  0.1200E+02
    -17.534  0.0000E+00  0.0000E+00  0.1200E+02  0.1200E+02
    -17.407  0.0000E+00  0.0000E+00  0.1200E+02  0.1200E+02
    -17.281  0.0000E+00  0.0000E+00  0.1200E+02  0.1200E+02
    -17.154  0.0000E+00  0.0000E+00  0.1200E+02  0.1200E+02
    -17.027  0.0000E+00  0.0000E+00  0.1200E+02  0.1200E+02
    -16.901  0.0000E+00  0.0000E+00  0.1200E+02  0.1200E+02
    -16.774  0.0000E+00  0.0000E+00  0.1200E+02  0.1200E+02
    -16.648  0.0000E+00  0.0000E+00  0.1200E+02  0.1200E+02
    -16.521  0.0000E+00  0.0000E+00  0.1200E+02  0.1200E+02
    -16.395  0.0000E+00  0.0000E+00  0.1200E+02  0.1200E+02
    -16.268  0.0000E+00  0.0000E+00  0.1200E+02  0.1200E+02
    -16.142  0.0000E+00  0.0000E+00  0.1200E+02  0.1200E+02
    -16.015  0.0000E+00  0.0000E+00  0.1200E+02  0.1200E+02
    -15.889  0.0000E+00  0.0000E+00  0.1200E+02  0.1200E+02
    -15.762  0.0000E+00  0.0000E+00  0.1200E+02  0.1200E+02
    -15.636  0.0000E+00  0.0000E+00  0.1200E+02  0.1200E+02
    -15.509  0.0000E+00  0.0000E+00  0.1200E+02  0.1200E+02
    -15.383  0.0000E+00  0.0000E+00  0.1200E+02  0.1200E+02
    -15.256  0.0000E+00  0.0000E+00  0.1200E+02  0.1200E+02
    -15.130  0.0000E+00  0.0000E+00  0.1200E+02  0.1200E+02
    -15.003  0.0000E+00  0.0000E+00  0.1200E+02  0.1200E+02
    -14.877  0.0000E+00  0.0000E+00  0.1200E+02  0.1200E+02
    -14.750  0.0000E+00  0.0000E+00  0.1200E+02  0.1200E+02
    -14.624  0.0000E+00  0.0000E+00  0.1200E+02  0.1200E+02
    -14.497  0.0000E+00  0.0000E+00  0.1200E+02  0.1200E+02
    -14.371  0.0000E+00  0.0000E+00  0.1200E+02  0.1200E+02
    -14.244  0.0000E+00  0.0000E+00  0.1200E+02  0.1200E+02
    -14.118  0.0000E+00  0.0000E+00  0.1200E+02  0.1200E+02
    -13.991  0.0000E+00  0.0000E+00  0.1200E+02  0.1200E+02
    -13.865  0.0000E+00  0.0000E+00  0.1200E+02  0.1200E+02
    -13.738  0.0000E+00  0.0000E+00  0.1200E+02  0.1200E+02
    -13.612  0.0000E+00  0.0000E+00  0.1200E+02  0.1200E+02
    -13.485  0.0000E+00  0.0000E+00  0.1200E+02  0.1200E+02
    -13.359  0.0000E+00  0.0000E+00  0.1200E+02  0.1200E+02
    -13.232  0.0000E+00  0.0000E+00  0.1200E+02  0.1200E+02
    -13.106  0.0000E+00  0.0000E+00  0.1200E+02  0.1200E+02
    -12.979  0.0000E+00  0.0000E+00  0.1200E+02  0.1200E+02
    -12.853  0.0000E+00  0.0000E+00  0.1200E+02  0.1200E+02
    -12.726  0.0000E+00  0.0000E+00  0.1200E+02  0.1200E+02
    -12.600  0.0000E+00  0.0000E+00  0.1200E+02  0.1200E+02
    -12.473  0.0000E+00  0.0000E+00  0.1200E+02  0.1200E+02
    -12.347  0.0000E+00  0.0000E+00  0.1200E+02  0.1200E+02
    -12.220  0.0000E+00  0.0000E+00  0.1200E+02  0.1200E+02
    -12.094  0.0000E+00  0.0000E+00  0.1200E+02  0.1200E+02
    -11.967  0.0000E+00  0.0000E+00  0.1200E+02  0.1200E+02
    -11.841  0.0000E+00  0.0000E+00  0.1200E+02  0.1200E+02
    -11.714  0.0000E+00  0.0000E+00  0.1200E+02  0.1200E+02
    -11.588  0.0000E+00  0.0000E+00  0.1200E+02  0.1200E+02
    -11.461  0.0000E+00  0.0000E+00  0.1200E+02  0.1200E+02
    -11.335  0.0000E+00  0.0000E+00  0.1200E+02  0.1200E+02
    -11.208  0.0000E+00  0.0000E+00  0.1200E+02  0.1200E+02
    -11.082  0.0000E+00  0.0000E+00  0.1200E+02  0.1200E+02
    -10.955  0.0000E+00  0.0000E+00  0.1200E+02  0.1200E+02
    -10.829  0.0000E+00  0.0000E+00  0.1200E+02  0.1200E+02
    -10.702  0.0000E+00  0.0000E+00  0.1200E+02  0.1200E+02
    -10.576  0.0000E+00  0.0000E+00  0.1200E+02  0.1200E+02
    -10.449  0.0000E+00  0.0000E+00  0.1200E+02  0.1200E+02
    -10.323  0.0000E+00  0.0000E+00  0.1200E+02  0.1200E+02
    -10.196  0.0000E+00  0.0000E+00  0.1200E+02  0.1200E+02
    -10.070  0.0000E+00  0.0000E+00  0.1200E+02  0.1200E+02
     -9.943  0.0000E+00  0.0000E+00  0.1200E+02  0.1200E+02
     -9.817  0.0000E+00  0.0000E+00  0.1200E+02  0.1200E+02
     -9.690  0.0000E+00  0.0000E+00  0.1200E+02  0.1200E+02
     -9.564  0.0000E+00  0.0000E+00  0.1200E+02  0.1200E+02
     -9.437  0.0000E+00  0.0000E+00  0.1200E+02  0.1200E+02
     -9.311  0.0000E+00  0.0000E+00  0.1200E+02  0.1200E+02
     -9.184  0.0000E+00  0.0000E+00  0.1200E+02  0.1200E+02
     -9.058  0.0000E+00  0.0000E+00  0.1200E+02  0.1200E+02
     -8.931  0.0000E+00  0.0000E+00  0.1200E+02  0.1200E+02
     -8.805  0.0000E+00  0.0000E+00  0.1200E+02  0.1200E+02
     -8.678  0.0000E+00  0.0000E+00  0.1200E+02  0.1200E+02
     -8.552  0.0000E+00  0.0000E+00  0.1200E+02  0.1200E+02
     -8.425  0.0000E+00  0.0000E+00  0.1200E+02  0.1200E+02
     -8.299  0.0000E+00  0.0000E+00  0.1200E+02  0.1200E+02
     -8.172  0.0000E+00  0.0000E+00  0.1200E+02  0.1200E+02
     -8.046  0.0000E+00  0.0000E+00  0.1200E+02  0.1200E+02
     -7.919  0.0000E+00  0.0000E+00  0.1200E+02  0.1200E+02
     -7.793  0.0000E+00  0.0000E+00  0.1200E+02  0.1200E+02
     -7.666  0.0000E+00  0.0000E+00  0.1200E+02  0.1200E+02
     -7.540  0.0000E+00  0.0000E+00  0.1200E+02  0.1200E+02
     -7.413  0.0000E+00  0.0000E+00  0.1200E+02  0.1200E+02
     -7.287  0.0000E+00  0.0000E+00  0.1200E+02  0.1200E+02
     -7.160  0.0000E+00  0.0000E+00  0.1200E+02  0.1200E+02
     -7.034  0.0000E+00  0.0000E+00  0.1200E+02  0.1200E+02
     -6.907  0.0000E+00  0.0000E+00  0.1200E+02  0.1200E+02
     -6.781  0.0000E+00  0.0000E+00  0.1200E+02  0.1200E+02
     -6.654  0.0000E+00  0.0000E+00  0.1200E+02  0.1200E+02
     -6.528  0.0000E+00  0.0000E+00  0.1200E+02  0.1200E+02
     -6.401  0.0000E+00  0.0000E+00  0.1200E+02  0.1200E+02
     -6.275  0.0000E+00  0.0000E+00  0.1200E+02  0.1200E+02
     -6.148  0.0000E+00  0.0000E+00  0.1200E+02  0.1200E+02
     -6.022  0.0000E+00  0.0000E+00  0.1200E+02  0.1200E+02
     -5.895  0.0000E+00  0.0000E+00  0.1200E+02  0.1200E+02
     -5.769  0.0000E+00  0.0000E+00  0.1200E+02  0.1200E+02
     -5.642  0.0000E+00  0.0000E+00  0.1200E+02  0.1200E+02
     -5.516  0.0000E+00  0.0000E+00  0.1200E+02  0.1200E+02
     -5.389  0.0000E+00  0.0000E+00  0.1200E+02  0.1200E+02
     -5.263  0.0000E+00  0.0000E+00  0.1200E+02  0.1200E+02
     -5.136  0.0000E+00  0.0000E+00  0.1200E+02  0.1200E+02
     -5.010  0.0000E+00  0.0000E+00  0.1200E+02  0.1200E+02
     -4.883  0.0000E+00  0.0000E+00  0.1200E+02  0.1200E+02
     -4.757  0.0000E+00  0.0000E+00  0.1200E+02  0.1200E+02
     -4.630  0.0000E+00  0.0000E+00  0.1200E+02  0.1200E+02
     -4.504  0.0000E+00  0.0000E+00  0.1200E+02  0.1200E+02
     -4.377  0.0000E+00  0.0000E+00  0.1200E+02  0.1200E+02
     -4.251  0.0000E+00  0.0000E+00  0.1200E+02  0.1200E+02
     -4.124  0.0000E+00  0.0000E+00  0.1200E+02  0.1200E+02
     -3.998  0.0000E+00  0.0000E+00  0.1200E+02  0.1200E+02
     -3.871  0.0000E+00  0.0000E+00  0.1200E+02  0.1200E+02
     -3.745  0.0000E+00  0.0000E+00  0.1200E+02  0.1200E+02
     -3.618  0.0000E+00  0.0000E+00  0.1200E+02  0.1200E+02
     -3.492  0.0000E+00  0.0000E+00  0.1200E+02  0.1200E+02
     -3.365  0.0000E+00  0.0000E+00  0.1200E+02  0.1200E+02
     -3.239  0.0000E+00  0.0000E+00  0.1200E+02  0.1200E+02
     -3.112  0.0000E+00  0.0000E+00  0.1200E+02  0.1200E+02
     -2.986  0.0000E+00  0.0000E+00  0.1200E+02  0.1200E+02
     -2.859  0.0000E+00  0.0000E+00  0.1200E+02  0.1200E+02
     -2.733  0.0000E+00  0.0000E+00  0.1200E+02  0.1200E+02
     -2.606  0.0000E+00  0.0000E+00  0.1200E+02  0.1200E+02
     -2.480  0.6518E-06  0.6177E-06  0.1200E+02  0.1200E+02
     -2.353  0.1771E-04  0.1678E-04  0.1200E+02  0.1200E+02
     -2.227  0.2724E-03  0.2582E-03  0.1200E+02  0.1200E+02
     -2.100  0.3271E-02  0.3105E-02  0.1200E+02  0.1200E+02
     -1.974  0.3060E-01  0.2936E-01  0.1200E+02  0.1200E+02
     -1.847  0.1344E+00  0.1316E+00  0.1202E+02  0.1202E+02
     -1.720  0.2299E+00  0.2289E+00  0.1205E+02  0.1205E+02
     -1.594  0.3272E+00  0.3234E+00  0.1209E+02  0.1209E+02
     -1.467  0.4308E+00  0.4321E+00  0.1215E+02  0.1215E+02
     -1.341  0.3696E+00  0.3675E+00  0.1219E+02  0.1219E+02
     -1.214  0.5551E+00  0.5529E+00  0.1226E+02  0.1226E+02
     -1.088  0.5388E+00  0.5392E+00  0.1233E+02  0.1233E+02
     -0.961  0.5967E+00  0.5947E+00  0.1241E+02  0.1241E+02
     -0.835  0.5724E+00  0.5750E+00  0.1248E+02  0.1248E+02
     -0.708  0.6241E+00  0.6181E+00  0.1256E+02  0.1256E+02
     -0.582  0.8272E+00  0.8271E+00  0.1266E+02  0.1266E+02
     -0.455  0.8264E+00  0.8232E+00  0.1277E+02  0.1277E+02
     -0.329  0.8354E+00  0.8417E+00  0.1287E+02  0.1287E+02
     -0.202  0.6303E+00  0.6276E+00  0.1295E+02  0.1295E+02
     -0.076  0.9390E+00  0.9318E+00  0.1307E+02  0.1307E+02
      0.051  0.1095E+01  0.1096E+01  0.1321E+02  0.1321E+02
      0.177  0.1105E+01  0.1104E+01  0.1335E+02  0.1335E+02
      0.304  0.9948E+00  0.9993E+00  0.1348E+02  0.1347E+02
      0.430  0.1036E+01  0.1032E+01  0.1361E+02  0.1361E+02
      0.557  0.1141E+01  0.1139E+01  0.1375E+02  0.1375E+02
      0.683  0.1201E+01  0.1200E+01  0.1391E+02  0.1390E+02
      0.810  0.1245E+01  0.1240E+01  0.1406E+02  0.1406E+02
      0.936  0.1708E+01  0.1702E+01  0.1428E+02  0.1427E+02
      1.063  0.1481E+01  0.1488E+01  0.1447E+02  0.1446E+02
      1.189  0.1300E+01  0.1304E+01  0.1463E+02  0.1463E+02
      1.316  0.1325E+01  0.1316E+01  0.1480E+02  0.1480E+02
      1.442  0.1677E+01  0.1673E+01  0.1501E+02  0.1501E+02
      1.569  0.1837E+01  0.1836E+01  0.1524E+02  0.1524E+02
      1.695  0.1742E+01  0.1744E+01  0.1547E+02  0.1546E+02
      1.822  0.1726E+01  0.1729E+01  0.1568E+02  0.1568E+02
      1.948  0.1434E+01  0.1439E+01  0.1587E+02  0.1586E+02
      2.075  0.1418E+01  0.1415E+01  0.1605E+02  0.1604E+02
      2.201  0.1433E+01  0.1438E+01  0.1623E+02  0.1622E+02
      2.328  0.1033E+01  0.1040E+01  0.1636E+02  0.1636E+02
      2.454  0.1175E+01  0.1163E+01  0.1651E+02  0.1650E+02
      2.581  0.1898E+01  0.1887E+01  0.1675E+02  0.1674E+02
      2.707  0.2192E+01  0.2188E+01  0.1702E+02  0.1702E+02
      2.834  0.2108E+01  0.2111E+01  0.1729E+02  0.1729E+02
      2.960  0.2163E+01  0.2164E+01  0.1757E+02  0.1756E+02
      3.087  0.2051E+01  0.2049E+01  0.1783E+02  0.1782E+02
      3.213  0.2181E+01  0.2182E+01  0.1810E+02  0.1810E+02
      3.340  0.1971E+01  0.1976E+01  0.1835E+02  0.1835E+02
      3.466  0.1744E+01  0.1746E+01  0.1857E+02  0.1857E+02
      3.593  0.2117E+01  0.2105E+01  0.1884E+02  0.1883E+02
      3.719  0.2057E+01  0.2069E+01  0.1910E+02  0.1910E+02
      3.846  0.1797E+01  0.1798E+01  0.1933E+02  0.1932E+02
      3.972  0.1680E+01  0.1686E+01  0.1954E+02  0.1954E+02
      4.099  0.1516E+01  0.1514E+01  0.1973E+02  0.1973E+02
      4.225  0.1785E+01  0.1776E+01  0.1996E+02  0.1996E+02
      4.352  0.2616E+01  0.2594E+01  0.2029E+02  0.2028E+02
      4.478  0.3340E+01  0.3337E+01  0.2071E+02  0.2071E+02
      4.605  0.2974E+01  0.2985E+01  0.2109E+02  0.2108E+02
      4.731  0.2507E+01  0.2514E+01  0.2141E+02  0.2140E+02
      4.858  0.2453E+01  0.2449E+01  0.2172E+02  0.2171E+02
      4.984  0.2324E+01  0.2338E+01  0.2201E+02  0.2201E+02
      5.111  0.1430E+01  0.1437E+01  0.2220E+02  0.2219E+02
      5.237  0.2018E+01  0.1995E+01  0.2245E+02  0.2244E+02
      5.364  0.3069E+01  0.3059E+01  0.2284E+02  0.2283E+02
      5.490  0.3034E+01  0.3040E+01  0.2322E+02  0.2322E+02
      5.617  0.2919E+01  0.2917E+01  0.2359E+02  0.2359E+02
      5.743  0.2853E+01  0.2853E+01  0.2395E+02  0.2395E+02
      5.870  0.3248E+01  0.3238E+01  0.2437E+02  0.2436E+02
      5.996  0.3501E+01  0.3504E+01  0.2481E+02  0.2480E+02
      6.123  0.3160E+01  0.3163E+01  0.2521E+02  0.2520E+02
      6.249  0.3354E+01  0.3350E+01  0.2564E+02  0.2563E+02
      6.376  0.3260E+01  0.3262E+01  0.2605E+02  0.2604E+02
      6.502  0.3350E+01  0.3350E+01  0.2647E+02  0.2646E+02
      6.629  0.3285E+01  0.3281E+01  0.2689E+02  0.2688E+02
      6.755  0.3820E+01  0.3811E+01  0.2737E+02  0.2736E+02
      6.882  0.4229E+01  0.4223E+01  0.2791E+02  0.2790E+02
      7.008  0.4041E+01  0.4051E+01  0.2842E+02  0.2841E+02
      7.135  0.4269E+01  0.4255E+01  0.2896E+02  0.2895E+02
      7.261  0.4265E+01  0.4288E+01  0.2950E+02  0.2949E+02
      7.388  0.3247E+01  0.3250E+01  0.2991E+02  0.2991E+02
      7.514  0.3651E+01  0.3640E+01  0.3038E+02  0.3037E+02
      7.641  0.4239E+01  0.4231E+01  0.3091E+02  0.3090E+02
      7.767  0.4861E+01  0.4852E+01  0.3153E+02  0.3152E+02
      7.894  0.5151E+01  0.5147E+01  0.3218E+02  0.3217E+02
      8.020  0.5549E+01  0.5544E+01  0.3288E+02  0.3287E+02
      8.147  0.5453E+01  0.5461E+01  0.3357E+02  0.3356E+02
      8.273  0.4482E+01  0.4502E+01  0.3414E+02  0.3413E+02
      8.400  0.3586E+01  0.3599E+01  0.3460E+02  0.3459E+02
      8.526  0.2901E+01  0.2911E+01  0.3496E+02  0.3496E+02
      8.653  0.3005E+01  0.2996E+01  0.3535E+02  0.3534E+02
      8.779  0.3214E+01  0.3215E+01  0.3575E+02  0.3575E+02
      8.906  0.3356E+01  0.3355E+01  0.3618E+02  0.3617E+02
      9.032  0.3056E+01  0.3068E+01  0.3657E+02  0.3656E+02
      9.159  0.2227E+01  0.2238E+01  0.3685E+02  0.3684E+02
      9.285  0.1797E+01  0.1800E+01  0.3708E+02  0.3707E+02
      9.412  0.1784E+01  0.1783E+01  0.3730E+02  0.3730E+02
      9.538  0.1798E+01  0.1797E+01  0.3753E+02  0.3753E+02
      9.665  0.1636E+01  0.1641E+01  0.3774E+02  0.3773E+02
      9.791  0.1683E+01  0.1679E+01  0.3795E+02  0.3795E+02
      9.918  0.1991E+01  0.1988E+01  0.3820E+02  0.3820E+02
     10.044  0.1854E+01  0.1856E+01  0.3844E+02  0.3843E+02
     10.171  0.1854E+01  0.1851E+01  0.3867E+02  0.3867E+02
     10.297  0.2133E+01  0.2126E+01  0.3894E+02  0.3894E+02
     10.424  0.2380E+01  0.2380E+01  0.3924E+02  0.3924E+02
     10.550  0.2339E+01  0.2338E+01  0.3954E+02  0.3953E+02
     10.677  0.2226E+01  0.2230E+01  0.3982E+02  0.3982E+02
     10.803  0.1961E+01  0.1962E+01  0.4007E+02  0.4007E+02
     10.930  0.2063E+01  0.2060E+01  0.4033E+02  0.4033E+02
     11.056  0.2454E+01  0.2441E+01  0.4064E+02  0.4064E+02
     11.183  0.3337E+01  0.3322E+01  0.4107E+02  0.4106E+02
     11.309  0.3883E+01  0.3882E+01  0.4156E+02  0.4155E+02
     11.436  0.3578E+01  0.3581E+01  0.4201E+02  0.4200E+02
     11.562  0.4148E+01  0.4132E+01  0.4254E+02  0.4253E+02
     11.689  0.4374E+01  0.4381E+01  0.4309E+02  0.4308E+02
     11.815  0.3910E+01  0.3915E+01  0.4358E+02  0.4358E+02
     11.942  0.4039E+01  0.4031E+01  0.4410E+02  0.4409E+02
     12.068  0.4340E+01  0.4343E+01  0.4465E+02  0.4464E+02
     12.195  0.3971E+01  0.3980E+01  0.4515E+02  0.4514E+02
     12.321  0.3896E+01  0.3894E+01  0.4564E+02  0.4563E+02
     12.448  0.4088E+01  0.4090E+01  0.4616E+02  0.4615E+02
     12.574  0.3574E+01  0.3583E+01  0.4661E+02  0.4661E+02
     12.701  0.3548E+01  0.3543E+01  0.4706E+02  0.4706E+02
     12.827  0.3669E+01  0.3654E+01  0.4753E+02  0.4752E+02
     12.954  0.3728E+01  0.3705E+01  0.4800E+02  0.4799E+02
     13.080  0.4197E+01  0.4192E+01  0.4853E+02  0.4852E+02
     13.207  0.4383E+01  0.4337E+01  0.4909E+02  0.4907E+02
     13.333  0.4317E+01  0.4319E+01  0.4963E+02  0.4962E+02
     13.460  0.4284E+01  0.4306E+01  0.5018E+02  0.5016E+02
     13.587  0.3784E+01  0.3978E+01  0.5066E+02  0.5067E+02
     13.713  0.3617E+01  0.3863E+01  0.5112E+02  0.5115E+02
     13.840  0.2739E+01  0.2726E+01  0.5146E+02  0.5150E+02
     13.966  0.2224E+01  0.1990E+01  0.5174E+02  0.5175E+02
     14.093  0.1238E+01  0.1176E+01  0.5190E+02  0.5190E+02
     14.219  0.5378E+00  0.4940E+00  0.5197E+02  0.5197E+02
     14.346  0.1710E+00  0.1904E+00  0.5199E+02  0.5199E+02
     14.472  0.4965E-01  0.6727E-01  0.5200E+02  0.5200E+02
     14.599  0.9412E-02  0.8321E-02  0.5200E+02  0.5200E+02
     14.725  0.8984E-03  0.4112E-03  0.5200E+02  0.5200E+02
     14.852  0.0000E+00  0.0000E+00  0.5200E+02  0.5200E+02
     14.978  0.0000E+00  0.0000E+00  0.5200E+02  0.5200E+02
     15.105  0.0000E+00  0.0000E+00  0.5200E+02  0.5200E+02
     15.231  0.0000E+00  0.0000E+00  0.5200E+02  0.5200E+02
     15.358  0.0000E+00  0.0000E+00  0.5200E+02  0.5200E+02
     15.484  0.0000E+00  0.0000E+00  0.5200E+02  0.5200E+02
     15.611  0.0000E+00  0.0000E+00  0.5200E+02  0.5200E+02
     15.737  0.0000E+00  0.0000E+00  0.5200E+02  0.5200E+02
     15.864  0.0000E+00  0.0000E+00  0.5200E+02  0.5200E+02
     15.990  0.0000E+00  0.0000E+00  0.5200E+02  0.5200E+02
     16.117  0.0000E+00  0.0000E+00  0.5200E+02  0.5200E+02
     16.11659039    -21.83464966  301      9.81924077      1.00000000
    -21.835  0.0000E+00  0.0000E+00  0.0000E+00  0.0000E+00  0.0000E+00  0.0000E+00  0.0000E+00  0.0000E+00  0.0000E+00  0.0000E+00  0.0000E+00  0.0000E+00  0.0000E+00  0.0000E+00  0.0000E+00  0.0000E+00  0.0000E+00  0.0000E+00
    -21.708  0.0000E+00  0.0000E+00  0.0000E+00  0.0000E+00  0.0000E+00  0.0000E+00  0.0000E+00  0.0000E+00  0.0000E+00  0.0000E+00  0.0000E+00  0.0000E+00  0.0000E+00  0.0000E+00  0.0000E+00  0.0000E+00  0.0000E+00  0.0000E+00
    -21.582  0.0000E+00  0.0000E+00  0.0000E+00  0.0000E+00  0.0000E+00  0.0000E+00  0.0000E+00  0.0000E+00  0.0000E+00  0.0000E+00  0.0000E+00  0.0000E+00  0.0000E+00  0.0000E+00  0.0000E+00  0.0000E+00  0.0000E+00  0.0000E+00
    -21.455  0.0000E+00  0.0000E+00  0.0000E+00  0.0000E+00  0.0000E+00  0.0000E+00  0.0000E+00  0.0000E+00  0.0000E+00  0.0000E+00  0.0000E+00  0.0000E+00  0.0000E+00  0.0000E+00  0.0000E+00  0.0000E+00  0.0000E+00  0.0000E+00
    -21.329  0.0000E+00  0.0000E+00  0.0000E+00  0.0000E+00  0.0000E+00  0.0000E+00  0.0000E+00  0.0000E+00  0.0000E+00  0.0000E+00  0.0000E+00  0.0000E+00  0.0000E+00  0.0000E+00  0.0000E+00  0.0000E+00  0.0000E+00  0.0000E+00
    -21.202  0.0000E+00  0.0000E+00  0.0000E+00  0.0000E+00  0.0000E+00  0.0000E+00  0.0000E+00  0.0000E+00  0.0000E+00  0.0000E+00  0.0000E+00  0.0000E+00  0.0000E+00  0.0000E+00  0.0000E+00  0.0000E+00  0.0000E+00  0.0000E+00
    -21.076  0.0000E+00  0.0000E+00  0.0000E+00  0.0000E+00  0.0000E+00  0.0000E+00  0.0000E+00  0.0000E+00  0.0000E+00  0.0000E+00  0.0000E+00  0.0000E+00  0.0000E+00  0.0000E+00  0.0000E+00  0.0000E+00  0.0000E+00  0.0000E+00
    -20.949  0.0000E+00  0.0000E+00  0.0000E+00  0.0000E+00  0.0000E+00  0.0000E+00  0.0000E+00  0.0000E+00  0.0000E+00  0.0000E+00  0.0000E+00  0.0000E+00  0.0000E+00  0.0000E+00  0.0000E+00  0.0000E+00  0.0000E+00  0.0000E+00
    -20.823  0.0000E+00  0.0000E+00  0.0000E+00  0.0000E+00  0.0000E+00  0.0000E+00  0.0000E+00  0.0000E+00  0.0000E+00  0.0000E+00  0.0000E+00  0.0000E+00  0.0000E+00  0.0000E+00  0.0000E+00  0.0000E+00  0.0000E+00  0.0000E+00
    -20.696  0.0000E+00  0.0000E+00  0.0000E+00  0.0000E+00  0.0000E+00  0.0000E+00  0.0000E+00  0.0000E+00  0.0000E+00  0.0000E+00  0.0000E+00  0.0000E+00  0.0000E+00  0.0000E+00  0.0000E+00  0.0000E+00  0.0000E+00  0.0000E+00
    -20.570  0.1850E-08  0.1830E-08  0.1841E-03  0.1822E-03  0.2006E-06  0.1983E-06  0.1841E-03  0.1822E-03  0.2530E-09  0.2499E-09  0.1989E-08  0.1969E-08  0.6679E-09  0.6617E-09  0.1989E-08  0.1969E-08  0.1818E-08  0.1801E-08
    -20.443  0.4202E-07  0.4158E-07  0.2668E-02  0.2641E-02  0.7260E-03  0.7182E-03  0.2668E-02  0.2641E-02  0.3262E-08  0.3223E-08  0.2860E-07  0.2833E-07  0.2339E-07  0.2317E-07  0.2860E-07  0.2833E-07  0.3430E-07  0.3398E-07
    -20.317  0.5044E-06  0.4991E-06  0.3269E-01  0.3236E-01  0.8377E-02  0.8288E-02  0.3269E-01  0.3236E-01  0.4025E-07  0.3977E-07  0.3505E-06  0.3472E-06  0.2769E-06  0.2743E-06  0.3505E-06  0.3472E-06  0.4150E-06  0.4111E-06
    -20.190  0.5971E-05  0.5912E-05  0.3727E+00  0.3693E+00  0.1031E+00  0.1021E+00  0.3727E+00  0.3693E+00  0.4550E-06  0.4501E-06  0.3988E-05  0.3953E-05  0.3321E-05  0.3291E-05  0.3988E-05  0.3953E-05  0.4876E-05  0.4833E-05
    -20.064  0.4600E-04  0.4571E-04  0.2283E+01  0.2272E+01  0.1046E+01  0.1038E+01  0.2283E+01  0.2272E+01  0.2573E-05  0.2558E-05  0.2416E-04  0.2407E-04  0.2810E-04  0.2793E-04  0.2416E-04  0.2407E-04  0.3530E-04  0.3513E-04
    -19.937  0.9512E-04  0.9518E-04  0.3576E+01  0.3580E+01  0.3851E+01  0.3843E+01  0.3576E+01  0.3580E+01  0.3047E-05  0.3050E-05  0.3735E-04  0.3742E-04  0.6821E-04  0.6828E-04  0.3735E-04  0.3742E-04  0.6255E-04  0.6265E-04
    -19.811  0.3477E-04  0.3504E-04  0.1315E+01  0.1324E+01  0.2379E+01  0.2392E+01  0.1315E+01  0.1324E+01  0.8593E-06  0.8646E-06  0.1369E-04  0.1379E-04  0.2550E-04  0.2571E-04  0.1369E-04  0.1379E-04  0.1967E-04  0.1982E-04
    -19.684  0.3904E-05  0.3946E-05  0.1466E+00  0.1481E+00  0.3269E+00  0.3301E+00  0.1466E+00  0.1481E+00  0.8661E-07  0.8735E-07  0.1530E-05  0.1546E-05  0.2776E-05  0.2808E-05  0.1530E-05  0.1546E-05  0.2041E-05  0.2063E-05
    -19.558  0.9411E-07  0.9553E-07  0.3225E-02  0.3345E-02  0.2095E-01  0.2117E-01  0.3225E-02  0.3345E-02  0.1489E-08  0.1524E-08  0.3571E-07  0.3705E-07  0.3694E-07  0.3754E-07  0.3571E-07  0.3705E-07  0.7983E-08  0.8499E-08
    -19.431  0.0000E+00  0.0000E+00  0.0000E+00  0.0000E+00  0.0000E+00  0.0000E+00  0.0000E+00  0.0000E+00  0.0000E+00  0.0000E+00  0.0000E+00  0.0000E+00  0.0000E+00  0.0000E+00  0.0000E+00  0.0000E+00  0.0000E+00  0.0000E+00
    -19.305  0.0000E+00  0.0000E+00  0.0000E+00  0.0000E+00  0.0000E+00  0.0000E+00  0.0000E+00  0.0000E+00  0.0000E+00  0.0000E+00  0.0000E+00  0.0000E+00  0.0000E+00  0.0000E+00  0.0000E+00  0.0000E+00  0.0000E+00  0.0000E+00
    -19.178  0.0000E+00  0.0000E+00  0.0000E+00  0.0000E+00  0.0000E+00  0.0000E+00  0.0000E+00  0.0000E+00  0.0000E+00  0.0000E+00  0.0000E+00  0.0000E+00  0.0000E+00  0.0000E+00  0.0000E+00  0.0000E+00  0.0000E+00  0.0000E+00
    -19.052  0.0000E+00  0.0000E+00  0.0000E+00  0.0000E+00  0.0000E+00  0.0000E+00  0.0000E+00  0.0000E+00  0.0000E+00  0.0000E+00  0.0000E+00  0.0000E+00  0.0000E+00  0.0000E+00  0.0000E+00  0.0000E+00  0.0000E+00  0.0000E+00
    -18.925  0.0000E+00  0.0000E+00  0.0000E+00  0.0000E+00  0.0000E+00  0.0000E+00  0.0000E+00  0.0000E+00  0.0000E+00  0.0000E+00  0.0000E+00  0.0000E+00  0.0000E+00  0.0000E+00  0.0000E+00  0.0000E+00  0.0000E+00  0.0000E+00
    -18.799  0.0000E+00  0.0000E+00  0.0000E+00  0.0000E+00  0.0000E+00  0.0000E+00  0.0000E+00  0.0000E+00  0.0000E+00  0.0000E+00  0.0000E+00  0.0000E+00  0.0000E+00  0.0000E+00  0.0000E+00  0.0000E+00  0.0000E+00  0.0000E+00
    -18.672  0.0000E+00  0.0000E+00  0.0000E+00  0.0000E+00  0.0000E+00  0.0000E+00  0.0000E+00  0.0000E+00  0.0000E+00  0.0000E+00  0.0000E+00  0.0000E+00  0.0000E+00  0.0000E+00  0.0000E+00  0.0000E+00  0.0000E+00  0.0000E+00
    -18.546  0.0000E+00  0.0000E+00  0.0000E+00  0.0000E+00  0.0000E+00  0.0000E+00  0.0000E+00  0.0000E+00  0.0000E+00  0.0000E+00  0.0000E+00  0.0000E+00  0.0000E+00  0.0000E+00  0.0000E+00  0.0000E+00  0.0000E+00  0.0000E+00
    -18.419  0.0000E+00  0.0000E+00  0.0000E+00  0.0000E+00  0.0000E+00  0.0000E+00  0.0000E+00  0.0000E+00  0.0000E+00  0.0000E+00  0.0000E+00  0.0000E+00  0.0000E+00  0.0000E+00  0.0000E+00  0.0000E+00  0.0000E+00  0.0000E+00
    -18.293  0.0000E+00  0.0000E+00  0.0000E+00  0.0000E+00  0.0000E+00  0.0000E+00  0.0000E+00  0.0000E+00  0.0000E+00  0.0000E+00  0.0000E+00  0.0000E+00  0.0000E+00  0.0000E+00  0.0000E+00  0.0000E+00  0.0000E+00  0.0000E+00
    -18.166  0.0000E+00  0.0000E+00  0.0000E+00  0.0000E+00  0.0000E+00  0.0000E+00  0.0000E+00  0.0000E+00  0.0000E+00  0.0000E+00  0.0000E+00  0.0000E+00  0.0000E+00  0.0000E+00  0.0000E+00  0.0000E+00  0.0000E+00  0.0000E+00
    -18.040  0.0000E+00  0.0000E+00  0.0000E+00  0.0000E+00  0.0000E+00  0.0000E+00  0.0000E+00  0.0000E+00  0.0000E+00  0.0000E+00  0.0000E+00  0.0000E+00  0.0000E+00  0.0000E+00  0.0000E+00  0.0000E+00  0.0000E+00  0.0000E+00
    -17.913  0.0000E+00  0.0000E+00  0.0000E+00  0.0000E+00  0.0000E+00  0.0000E+00  0.0000E+00  0.0000E+00  0.0000E+00  0.0000E+00  0.0000E+00  0.0000E+00  0.0000E+00  0.0000E+00  0.0000E+00  0.0000E+00  0.0000E+00  0.0000E+00
    -17.787  0.0000E+00  0.0000E+00  0.0000E+00  0.0000E+00  0.0000E+00  0.0000E+00  0.0000E+00  0.0000E+00  0.0000E+00  0.0000E+00  0.0000E+00  0.0000E+00  0.0000E+00  0.0000E+00  0.0000E+00  0.0000E+00  0.0000E+00  0.0000E+00
    -17.660  0.0000E+00  0.0000E+00  0.0000E+00  0.0000E+00  0.0000E+00  0.0000E+00  0.0000E+00  0.0000E+00  0.0000E+00  0.0000E+00  0.0000E+00  0.0000E+00  0.0000E+00  0.0000E+00  0.0000E+00  0.0000E+00  0.0000E+00  0.0000E+00
    -17.534  0.0000E+00  0.0000E+00  0.0000E+00  0.0000E+00  0.0000E+00  0.0000E+00  0.0000E+00  0.0000E+00  0.0000E+00  0.0000E+00  0.0000E+00  0.0000E+00  0.0000E+00  0.0000E+00  0.0000E+00  0.0000E+00  0.0000E+00  0.0000E+00
    -17.407  0.0000E+00  0.0000E+00  0.0000E+00  0.0000E+00  0.0000E+00  0.0000E+00  0.0000E+00  0.0000E+00  0.0000E+00  0.0000E+00  0.0000E+00  0.0000E+00  0.0000E+00  0.0000E+00  0.0000E+00  0.0000E+00  0.0000E+00  0.0000E+00
    -17.281  0.0000E+00  0.0000E+00  0.0000E+00  0.0000E+00  0.0000E+00  0.0000E+00  0.0000E+00  0.0000E+00  0.0000E+00  0.0000E+00  0.0000E+00  0.0000E+00  0.0000E+00  0.0000E+00  0.0000E+00  0.0000E+00  0.0000E+00  0.0000E+00
    -17.154  0.0000E+00  0.0000E+00  0.0000E+00  0.0000E+00  0.0000E+00  0.0000E+00  0.0000E+00  0.0000E+00  0.0000E+00  0.0000E+00  0.0000E+00  0.0000E+00  0.0000E+00  0.0000E+00  0.0000E+00  0.0000E+00  0.0000E+00  0.0000E+00
    -17.027  0.0000E+00  0.0000E+00  0.0000E+00  0.0000E+00  0.0000E+00  0.0000E+00  0.0000E+00  0.0000E+00  0.0000E+00  0.0000E+00  0.0000E+00  0.0000E+00  0.0000E+00  0.0000E+00  0.0000E+00  0.0000E+00  0.0000E+00  0.0000E+00
    -16.901  0.0000E+00  0.0000E+00  0.0000E+00  0.0000E+00  0.0000E+00  0.0000E+00  0.0000E+00  0.0000E+00  0.0000E+00  0.0000E+00  0.0000E+00  0.0000E+00  0.0000E+00  0.0000E+00  0.0000E+00  0.0000E+00  0.0000E+00  0.0000E+00
    -16.774  0.0000E+00  0.0000E+00  0.0000E+00  0.0000E+00  0.0000E+00  0.0000E+00  0.0000E+00  0.0000E+00  0.0000E+00  0.0000E+00  0.0000E+00  0.0000E+00  0.0000E+00  0.0000E+00  0.0000E+00  0.0000E+00  0.0000E+00  0.0000E+00
    -16.648  0.0000E+00  0.0000E+00  0.0000E+00  0.0000E+00  0.0000E+00  0.0000E+00  0.0000E+00  0.0000E+00  0.0000E+00  0.0000E+00  0.0000E+00  0.0000E+00  0.0000E+00  0.0000E+00  0.0000E+00  0.0000E+00  0.0000E+00  0.0000E+00
    -16.521  0.0000E+00  0.0000E+00  0.0000E+00  0.0000E+00  0.0000E+00  0.0000E+00  0.0000E+00  0.0000E+00  0.0000E+00  0.0000E+00  0.0000E+00  0.0000E+00  0.0000E+00  0.0000E+00  0.0000E+00  0.0000E+00  0.0000E+00  0.0000E+00
    -16.395  0.0000E+00  0.0000E+00  0.0000E+00  0.0000E+00  0.0000E+00  0.0000E+00  0.0000E+00  0.0000E+00  0.0000E+00  0.0000E+00  0.0000E+00  0.0000E+00  0.0000E+00  0.0000E+00  0.0000E+00  0.0000E+00  0.0000E+00  0.0000E+00
    -16.268  0.0000E+00  0.0000E+00  0.0000E+00  0.0000E+00  0.0000E+00  0.0000E+00  0.0000E+00  0.0000E+00  0.0000E+00  0.0000E+00  0.0000E+00  0.0000E+00  0.0000E+00  0.0000E+00  0.0000E+00  0.0000E+00  0.0000E+00  0.0000E+00
    -16.142  0.0000E+00  0.0000E+00  0.0000E+00  0.0000E+00  0.0000E+00  0.0000E+00  0.0000E+00  0.0000E+00  0.0000E+00  0.0000E+00  0.0000E+00  0.0000E+00  0.0000E+00  0.0000E+00  0.0000E+00  0.0000E+00  0.0000E+00  0.0000E+00
    -16.015  0.0000E+00  0.0000E+00  0.0000E+00  0.0000E+00  0.0000E+00  0.0000E+00  0.0000E+00  0.0000E+00  0.0000E+00  0.0000E+00  0.0000E+00  0.0000E+00  0.0000E+00  0.0000E+00  0.0000E+00  0.0000E+00  0.0000E+00  0.0000E+00
    -15.889  0.0000E+00  0.0000E+00  0.0000E+00  0.0000E+00  0.0000E+00  0.0000E+00  0.0000E+00  0.0000E+00  0.0000E+00  0.0000E+00  0.0000E+00  0.0000E+00  0.0000E+00  0.0000E+00  0.0000E+00  0.0000E+00  0.0000E+00  0.0000E+00
    -15.762  0.0000E+00  0.0000E+00  0.0000E+00  0.0000E+00  0.0000E+00  0.0000E+00  0.0000E+00  0.0000E+00  0.0000E+00  0.0000E+00  0.0000E+00  0.0000E+00  0.0000E+00  0.0000E+00  0.0000E+00  0.0000E+00  0.0000E+00  0.0000E+00
    -15.636  0.0000E+00  0.0000E+00  0.0000E+00  0.0000E+00  0.0000E+00  0.0000E+00  0.0000E+00  0.0000E+00  0.0000E+00  0.0000E+00  0.0000E+00  0.0000E+00  0.0000E+00  0.0000E+00  0.0000E+00  0.0000E+00  0.0000E+00  0.0000E+00
    -15.509  0.0000E+00  0.0000E+00  0.0000E+00  0.0000E+00  0.0000E+00  0.0000E+00  0.0000E+00  0.0000E+00  0.0000E+00  0.0000E+00  0.0000E+00  0.0000E+00  0.0000E+00  0.0000E+00  0.0000E+00  0.0000E+00  0.0000E+00  0.0000E+00