  16  16   1   0
  0.1933673E+02  0.4159904E-09  0.4159904E-09  0.1787872E-08  0.5000000E-15
  1.000000000000000E-004
  CAR 
 unknown system                          
     11.15807997    -26.36174890  301      6.31993313      1.00000000
    -26.362  0.0000E+00  0.0000E+00  0.0000E+00  0.0000E+00
    -26.237  0.0000E+00  0.0000E+00  0.0000E+00  0.0000E+00
    -26.112  0.0000E+00  0.0000E+00  0.0000E+00  0.0000E+00
    -25.987  0.0000E+00  0.0000E+00  0.0000E+00  0.0000E+00
    -25.861  0.0000E+00  0.0000E+00  0.0000E+00  0.0000E+00
    -25.736  0.0000E+00  0.0000E+00  0.0000E+00  0.0000E+00
    -25.611  0.0000E+00  0.0000E+00  0.0000E+00  0.0000E+00
    -25.486  0.0000E+00  0.0000E+00  0.0000E+00  0.0000E+00
    -25.361  0.0000E+00  0.0000E+00  0.0000E+00  0.0000E+00
    -25.236  0.0000E+00  0.0000E+00  0.0000E+00  0.0000E+00
    -25.111  0.6512E-02  0.6521E-02  0.8145E-03  0.8156E-03
    -24.986  0.7286E-01  0.7296E-01  0.9927E-02  0.9940E-02
    -24.861  0.8787E+00  0.8798E+00  0.1198E+00  0.1200E+00
    -24.736  0.9413E+01  0.9424E+01  0.1297E+01  0.1299E+01
    -24.611  0.4498E+02  0.4499E+02  0.6922E+01  0.6926E+01
    -24.486  0.3478E+02  0.3476E+02  0.1127E+02  0.1127E+02
    -24.361  0.5308E+01  0.5302E+01  0.1194E+02  0.1194E+02
    -24.236  0.3515E+00  0.3511E+00  0.1200E+02  0.1200E+02
    -24.111  0.0000E+00  0.0000E+00  0.1200E+02  0.1200E+02
    -23.985  0.0000E+00  0.0000E+00  0.1200E+02  0.1200E+02
    -23.860  0.0000E+00  0.0000E+00  0.1200E+02  0.1200E+02
    -23.735  0.0000E+00  0.0000E+00  0.1200E+02  0.1200E+02
    -23.610  0.0000E+00  0.0000E+00  0.1200E+02  0.1200E+02
    -23.485  0.0000E+00  0.0000E+00  0.1200E+02  0.1200E+02
    -23.360  0.0000E+00  0.0000E+00  0.1200E+02  0.1200E+02
    -23.235  0.0000E+00  0.0000E+00  0.1200E+02  0.1200E+02
    -23.110  0.0000E+00  0.0000E+00  0.1200E+02  0.1200E+02
    -22.985  0.0000E+00  0.0000E+00  0.1200E+02  0.1200E+02
    -22.860  0.0000E+00  0.0000E+00  0.1200E+02  0.1200E+02
    -22.735  0.0000E+00  0.0000E+00  0.1200E+02  0.1200E+02
    -22.610  0.0000E+00  0.0000E+00  0.1200E+02  0.1200E+02
    -22.485  0.0000E+00  0.0000E+00  0.1200E+02  0.1200E+02
    -22.360  0.0000E+00  0.0000E+00  0.1200E+02  0.1200E+02
    -22.235  0.0000E+00  0.0000E+00  0.1200E+02  0.1200E+02
    -22.110  0.0000E+00  0.0000E+00  0.1200E+02  0.1200E+02
    -21.984  0.0000E+00  0.0000E+00  0.1200E+02  0.1200E+02
    -21.859  0.0000E+00  0.0000E+00  0.1200E+02  0.1200E+02
    -21.734  0.0000E+00  0.0000E+00  0.1200E+02  0.1200E+02
    -21.609  0.0000E+00  0.0000E+00  0.1200E+02  0.1200E+02
    -21.484  0.0000E+00  0.0000E+00  0.1200E+02  0.1200E+02
    -21.359  0.0000E+00  0.0000E+00  0.1200E+02  0.1200E+02
    -21.234  0.0000E+00  0.0000E+00  0.1200E+02  0.1200E+02
    -21.109  0.0000E+00  0.0000E+00  0.1200E+02  0.1200E+02
    -20.984  0.0000E+00  0.0000E+00  0.1200E+02  0.1200E+02
    -20.859  0.0000E+00  0.0000E+00  0.1200E+02  0.1200E+02
    -20.734  0.0000E+00  0.0000E+00  0.1200E+02  0.1200E+02
    -20.609  0.0000E+00  0.0000E+00  0.1200E+02  0.1200E+02
    -20.484  0.0000E+00  0.0000E+00  0.1200E+02  0.1200E+02
    -20.359  0.0000E+00  0.0000E+00  0.1200E+02  0.1200E+02
    -20.234  0.0000E+00  0.0000E+00  0.1200E+02  0.1200E+02
    -20.108  0.0000E+00  0.0000E+00  0.1200E+02  0.1200E+02
    -19.983  0.0000E+00  0.0000E+00  0.1200E+02  0.1200E+02
    -19.858  0.0000E+00  0.0000E+00  0.1200E+02  0.1200E+02
    -19.733  0.0000E+00  0.0000E+00  0.1200E+02  0.1200E+02
    -19.608  0.0000E+00  0.0000E+00  0.1200E+02  0.1200E+02
    -19.483  0.0000E+00  0.0000E+00  0.1200E+02  0.1200E+02
    -19.358  0.0000E+00  0.0000E+00  0.1200E+02  0.1200E+02
    -19.233  0.0000E+00  0.0000E+00  0.1200E+02  0.1200E+02
    -19.108  0.0000E+00  0.0000E+00  0.1200E+02  0.1200E+02
    -18.983  0.0000E+00  0.0000E+00  0.1200E+02  0.1200E+02
    -18.858  0.0000E+00  0.0000E+00  0.1200E+02  0.1200E+02
    -18.733  0.0000E+00  0.0000E+00  0.1200E+02  0.1200E+02
    -18.608  0.0000E+00  0.0000E+00  0.1200E+02  0.1200E+02
    -18.483  0.0000E+00  0.0000E+00  0.1200E+02  0.1200E+02
    -18.358  0.0000E+00  0.0000E+00  0.1200E+02  0.1200E+02
    -18.232  0.0000E+00  0.0000E+00  0.1200E+02  0.1200E+02
    -18.107  0.0000E+00  0.0000E+00  0.1200E+02  0.1200E+02
    -17.982  0.0000E+00  0.0000E+00  0.1200E+02  0.1200E+02
    -17.857  0.0000E+00  0.0000E+00  0.1200E+02  0.1200E+02
    -17.732  0.0000E+00  0.0000E+00  0.1200E+02  0.1200E+02
    -17.607  0.0000E+00  0.0000E+00  0.1200E+02  0.1200E+02
    -17.482  0.0000E+00  0.0000E+00  0.1200E+02  0.1200E+02
    -17.357  0.0000E+00  0.0000E+00  0.1200E+02  0.1200E+02
    -17.232  0.0000E+00  0.0000E+00  0.1200E+02  0.1200E+02
    -17.107  0.0000E+00  0.0000E+00  0.1200E+02  0.1200E+02
    -16.982  0.0000E+00  0.0000E+00  0.1200E+02  0.1200E+02
    -16.857  0.0000E+00  0.0000E+00  0.1200E+02  0.1200E+02
    -16.732  0.0000E+00  0.0000E+00  0.1200E+02  0.1200E+02
    -16.607  0.0000E+00  0.0000E+00  0.1200E+02  0.1200E+02
    -16.482  0.0000E+00  0.0000E+00  0.1200E+02  0.1200E+02
    -16.356  0.0000E+00  0.0000E+00  0.1200E+02  0.1200E+02
    -16.231  0.0000E+00  0.0000E+00  0.1200E+02  0.1200E+02
    -16.106  0.0000E+00  0.0000E+00  0.1200E+02  0.1200E+02
    -15.981  0.0000E+00  0.0000E+00  0.1200E+02  0.1200E+02
    -15.856  0.0000E+00  0.0000E+00  0.1200E+02  0.1200E+02
    -15.731  0.0000E+00  0.0000E+00  0.1200E+02  0.1200E+02
    -15.606  0.0000E+00  0.0000E+00  0.1200E+02  0.1200E+02
    -15.481  0.0000E+00  0.0000E+00  0.1200E+02  0.1200E+02
    -15.356  0.0000E+00  0.0000E+00  0.1200E+02  0.1200E+02
    -15.231  0.0000E+00  0.0000E+00  0.1200E+02  0.1200E+02
    -15.106  0.0000E+00  0.0000E+00  0.1200E+02  0.1200E+02
    -14.981  0.0000E+00  0.0000E+00  0.1200E+02  0.1200E+02
    -14.856  0.0000E+00  0.0000E+00  0.1200E+02  0.1200E+02
    -14.731  0.0000E+00  0.0000E+00  0.1200E+02  0.1200E+02
    -14.606  0.0000E+00  0.0000E+00  0.1200E+02  0.1200E+02
    -14.480  0.0000E+00  0.0000E+00  0.1200E+02  0.1200E+02
    -14.355  0.0000E+00  0.0000E+00  0.1200E+02  0.1200E+02
    -14.230  0.0000E+00  0.0000E+00  0.1200E+02  0.1200E+02
    -14.105  0.0000E+00  0.0000E+00  0.1200E+02  0.1200E+02
    -13.980  0.0000E+00  0.0000E+00  0.1200E+02  0.1200E+02
    -13.855  0.0000E+00  0.0000E+00  0.1200E+02  0.1200E+02
    -13.730  0.0000E+00  0.0000E+00  0.1200E+02  0.1200E+02
    -13.605  0.0000E+00  0.0000E+00  0.1200E+02  0.1200E+02
    -13.480  0.0000E+00  0.0000E+00  0.1200E+02  0.1200E+02
    -13.355  0.0000E+00  0.0000E+00  0.1200E+02  0.1200E+02
    -13.230  0.0000E+00  0.0000E+00  0.1200E+02  0.1200E+02
    -13.105  0.0000E+00  0.0000E+00  0.1200E+02  0.1200E+02
    -12.980  0.0000E+00  0.0000E+00  0.1200E+02  0.1200E+02
    -12.855  0.0000E+00  0.0000E+00  0.1200E+02  0.1200E+02
    -12.730  0.0000E+00  0.0000E+00  0.1200E+02  0.1200E+02
    -12.604  0.0000E+00  0.0000E+00  0.1200E+02  0.1200E+02
    -12.479  0.0000E+00  0.0000E+00  0.1200E+02  0.1200E+02
    -12.354  0.0000E+00  0.0000E+00  0.1200E+02  0.1200E+02
    -12.229  0.0000E+00  0.0000E+00  0.1200E+02  0.1200E+02
    -12.104  0.0000E+00  0.0000E+00  0.1200E+02  0.1200E+02
    -11.979  0.0000E+00  0.0000E+00  0.1200E+02  0.1200E+02
    -11.854  0.0000E+00  0.0000E+00  0.1200E+02  0.1200E+02
    -11.729  0.0000E+00  0.0000E+00  0.1200E+02  0.1200E+02
    -11.604  0.0000E+00  0.0000E+00  0.1200E+02  0.1200E+02
    -11.479  0.0000E+00  0.0000E+00  0.1200E+02  0.1200E+02
    -11.354  0.0000E+00  0.0000E+00  0.1200E+02  0.1200E+02
    -11.229  0.0000E+00  0.0000E+00  0.1200E+02  0.1200E+02
    -11.104  0.0000E+00  0.0000E+00  0.1200E+02  0.1200E+02
    -10.979  0.0000E+00  0.0000E+00  0.1200E+02  0.1200E+02
    -10.854  0.0000E+00  0.0000E+00  0.1200E+02  0.1200E+02
    -10.728  0.0000E+00  0.0000E+00  0.1200E+02  0.1200E+02
    -10.603  0.0000E+00  0.0000E+00  0.1200E+02  0.1200E+02
    -10.478  0.0000E+00  0.0000E+00  0.1200E+02  0.1200E+02
    -10.353  0.0000E+00  0.0000E+00  0.1200E+02  0.1200E+02
    -10.228  0.0000E+00  0.0000E+00  0.1200E+02  0.1200E+02
    -10.103  0.0000E+00  0.0000E+00  0.1200E+02  0.1200E+02
     -9.978  0.0000E+00  0.0000E+00  0.1200E+02  0.1200E+02
     -9.853  0.0000E+00  0.0000E+00  0.1200E+02  0.1200E+02
     -9.728  0.0000E+00  0.0000E+00  0.1200E+02  0.1200E+02
     -9.603  0.0000E+00  0.0000E+00  0.1200E+02  0.1200E+02
     -9.478  0.0000E+00  0.0000E+00  0.1200E+02  0.1200E+02
     -9.353  0.0000E+00  0.0000E+00  0.1200E+02  0.1200E+02
     -9.228  0.0000E+00  0.0000E+00  0.1200E+02  0.1200E+02
     -9.103  0.0000E+00  0.0000E+00  0.1200E+02  0.1200E+02
     -8.978  0.0000E+00  0.0000E+00  0.1200E+02  0.1200E+02
     -8.852  0.0000E+00  0.0000E+00  0.1200E+02  0.1200E+02
     -8.727  0.0000E+00  0.0000E+00  0.1200E+02  0.1200E+02
     -8.602  0.0000E+00  0.0000E+00  0.1200E+02  0.1200E+02
     -8.477  0.0000E+00  0.0000E+00  0.1200E+02  0.1200E+02
     -8.352  0.0000E+00  0.0000E+00  0.1200E+02  0.1200E+02
     -8.227  0.0000E+00  0.0000E+00  0.1200E+02  0.1200E+02
     -8.102  0.0000E+00  0.0000E+00  0.1200E+02  0.1200E+02
     -7.977  0.0000E+00  0.0000E+00  0.1200E+02  0.1200E+02
     -7.852  0.0000E+00  0.0000E+00  0.1200E+02  0.1200E+02
     -7.727  0.0000E+00  0.0000E+00  0.1200E+02  0.1200E+02
     -7.602  0.0000E+00  0.0000E+00  0.1200E+02  0.1200E+02
     -7.477  0.0000E+00  0.0000E+00  0.1200E+02  0.1200E+02
     -7.352  0.0000E+00  0.0000E+00  0.1200E+02  0.1200E+02
     -7.227  0.0000E+00  0.0000E+00  0.1200E+02  0.1200E+02
     -7.102  0.0000E+00  0.0000E+00  0.1200E+02  0.1200E+02
     -6.977  0.0000E+00  0.0000E+00  0.1200E+02  0.1200E+02
     -6.851  0.0000E+00  0.0000E+00  0.1200E+02  0.1200E+02
     -6.726  0.0000E+00  0.0000E+00  0.1200E+02  0.1200E+02
     -6.601  0.0000E+00  0.0000E+00  0.1200E+02  0.1200E+02
     -6.476  0.0000E+00  0.0000E+00  0.1200E+02  0.1200E+02
     -6.351  0.0000E+00  0.0000E+00  0.1200E+02  0.1200E+02
     -6.226  0.0000E+00  0.0000E+00  0.1200E+02  0.1200E+02
     -6.101  0.0000E+00  0.0000E+00  0.1200E+02  0.1200E+02
     -5.976  0.0000E+00  0.0000E+00  0.1200E+02  0.1200E+02
     -5.851  0.0000E+00  0.0000E+00  0.1200E+02  0.1200E+02
     -5.726  0.0000E+00  0.0000E+00  0.1200E+02  0.1200E+02
     -5.601  0.0000E+00  0.0000E+00  0.1200E+02  0.1200E+02
     -5.476  0.0000E+00  0.0000E+00  0.1200E+02  0.1200E+02
     -5.351  0.0000E+00  0.0000E+00  0.1200E+02  0.1200E+02
     -5.226  0.0000E+00  0.0000E+00  0.1200E+02  0.1200E+02
     -5.101  0.0000E+00  0.0000E+00  0.1200E+02  0.1200E+02
     -4.975  0.0000E+00  0.0000E+00  0.1200E+02  0.1200E+02
     -4.850  0.0000E+00  0.0000E+00  0.1200E+02  0.1200E+02
     -4.725  0.0000E+00  0.0000E+00  0.1200E+02  0.1200E+02
     -4.600  0.0000E+00  0.0000E+00  0.1200E+02  0.1200E+02
     -4.475  0.0000E+00  0.0000E+00  0.1200E+02  0.1200E+02
     -4.350  0.0000E+00  0.0000E+00  0.1200E+02  0.1200E+02
     -4.225  0.0000E+00  0.0000E+00  0.1200E+02  0.1200E+02
     -4.100  0.0000E+00  0.0000E+00  0.1200E+02  0.1200E+02
     -3.975  0.0000E+00  0.0000E+00  0.1200E+02  0.1200E+02
     -3.850  0.4162E-05  0.4154E-05  0.1200E+02  0.1200E+02
     -3.725  0.7315E-04  0.7301E-04  0.1200E+02  0.1200E+02
     -3.600  0.8949E-03  0.8931E-03  0.1200E+02  0.1200E+02
     -3.475  0.1036E-01  0.1034E-01  0.1200E+02  0.1200E+02
     -3.350  0.8301E-01  0.8290E-01  0.1201E+02  0.1201E+02
     -3.225  0.2631E+00  0.2629E+00  0.1204E+02  0.1204E+02
     -3.099  0.4432E+00  0.4430E+00  0.1210E+02  0.1210E+02
     -2.974  0.5531E+00  0.5532E+00  0.1217E+02  0.1217E+02
     -2.849  0.6557E+00  0.6555E+00  0.1225E+02  0.1225E+02
     -2.724  0.7364E+00  0.7364E+00  0.1234E+02  0.1234E+02
     -2.599  0.7845E+00  0.7845E+00  0.1244E+02  0.1244E+02
     -2.474  0.8057E+00  0.8056E+00  0.1254E+02  0.1254E+02
     -2.349  0.1029E+01  0.1029E+01  0.1267E+02  0.1267E+02
     -2.224  0.1100E+01  0.1100E+01  0.1281E+02  0.1281E+02
     -2.099  0.9560E+00  0.9562E+00  0.1293E+02  0.1293E+02
     -1.974  0.1137E+01  0.1136E+01  0.1307E+02  0.1307E+02
     -1.849  0.1373E+01  0.1373E+01  0.1324E+02  0.1324E+02
     -1.724  0.1373E+01  0.1373E+01  0.1341E+02  0.1341E+02
     -1.599  0.1270E+01  0.1270E+01  0.1357E+02  0.1357E+02
     -1.474  0.1448E+01  0.1447E+01  0.1376E+02  0.1375E+02
     -1.349  0.1522E+01  0.1522E+01  0.1395E+02  0.1395E+02
     -1.223  0.1605E+01  0.1605E+01  0.1415E+02  0.1415E+02
     -1.098  0.1904E+01  0.1904E+01  0.1438E+02  0.1438E+02
     -0.973  0.1608E+01  0.1609E+01  0.1459E+02  0.1459E+02
     -0.848  0.1395E+01  0.1395E+01  0.1476E+02  0.1476E+02
     -0.723  0.1850E+01  0.1850E+01  0.1499E+02  0.1499E+02
     -0.598  0.2019E+01  0.2019E+01  0.1525E+02  0.1525E+02
     -0.473  0.2042E+01  0.2042E+01  0.1550E+02  0.1550E+02
     -0.348  0.1878E+01  0.1879E+01  0.1574E+02  0.1574E+02
     -0.223  0.1804E+01  0.1804E+01  0.1596E+02  0.1596E+02
     -0.098  0.1896E+01  0.1896E+01  0.1620E+02  0.1620E+02
      0.027  0.1982E+01  0.1982E+01  0.1645E+02  0.1645E+02
      0.152  0.2427E+01  0.2426E+01  0.1675E+02  0.1675E+02
      0.277  0.2521E+01  0.2521E+01  0.1707E+02  0.1707E+02
      0.402  0.2299E+01  0.2299E+01  0.1736E+02  0.1736E+02
      0.527  0.2255E+01  0.2255E+01  0.1764E+02  0.1764E+02
      0.653  0.2173E+01  0.2173E+01  0.1791E+02  0.1791E+02
      0.778  0.2311E+01  0.2311E+01  0.1820E+02  0.1820E+02
      0.903  0.2355E+01  0.2355E+01  0.1850E+02  0.1849E+02
      1.028  0.2742E+01  0.2742E+01  0.1884E+02  0.1884E+02
      1.153  0.2605E+01  0.2605E+01  0.1916E+02  0.1916E+02
      1.278  0.2301E+01  0.2301E+01  0.1945E+02  0.1945E+02
      1.403  0.2359E+01  0.2359E+01  0.1975E+02  0.1975E+02
      1.528  0.2640E+01  0.2639E+01  0.2008E+02  0.2008E+02
      1.653  0.3168E+01  0.3168E+01  0.2048E+02  0.2048E+02
      1.778  0.3313E+01  0.3313E+01  0.2089E+02  0.2089E+02
      1.903  0.3478E+01  0.3479E+01  0.2133E+02  0.2133E+02
      2.028  0.2869E+01  0.2869E+01  0.2169E+02  0.2169E+02
      2.153  0.2047E+01  0.2047E+01  0.2194E+02  0.2194E+02
      2.278  0.1872E+01  0.1871E+01  0.2218E+02  0.2218E+02
      2.403  0.2628E+01  0.2627E+01  0.2251E+02  0.2251E+02
      2.529  0.2931E+01  0.2931E+01  0.2287E+02  0.2287E+02
      2.654  0.2969E+01  0.2969E+01  0.2324E+02  0.2324E+02
      2.779  0.2522E+01  0.2522E+01  0.2356E+02  0.2356E+02
      2.904  0.2944E+01  0.2943E+01  0.2393E+02  0.2393E+02
      3.029  0.3779E+01  0.3779E+01  0.2440E+02  0.2440E+02
      3.154  0.3307E+01  0.3308E+01  0.2482E+02  0.2482E+02
      3.279  0.3130E+01  0.3130E+01  0.2521E+02  0.2521E+02
      3.404  0.3373E+01  0.3373E+01  0.2563E+02  0.2563E+02
      3.529  0.3239E+01  0.3238E+01  0.2604E+02  0.2604E+02
      3.654  0.3671E+01  0.3670E+01  0.2650E+02  0.2650E+02
      3.779  0.4590E+01  0.4590E+01  0.2707E+02  0.2707E+02
      3.904  0.4938E+01  0.4938E+01  0.2769E+02  0.2769E+02
      4.029  0.4766E+01  0.4766E+01  0.2829E+02  0.2829E+02
      4.154  0.4727E+01  0.4728E+01  0.2888E+02  0.2888E+02
      4.279  0.4334E+01  0.4335E+01  0.2942E+02  0.2942E+02
      4.405  0.4009E+01  0.4009E+01  0.2992E+02  0.2992E+02
      4.530  0.4269E+01  0.4269E+01  0.3046E+02  0.3046E+02
      4.655  0.5779E+01  0.5779E+01  0.3118E+02  0.3118E+02
      4.780  0.6002E+01  0.6001E+01  0.3193E+02  0.3193E+02
      4.905  0.6413E+01  0.6412E+01  0.3274E+02  0.3274E+02
      5.030  0.6584E+01  0.6585E+01  0.3356E+02  0.3356E+02
      5.155  0.4942E+01  0.4943E+01  0.3418E+02  0.3418E+02
      5.280  0.4223E+01  0.4223E+01  0.3471E+02  0.3471E+02
      5.405  0.4375E+01  0.4375E+01  0.3526E+02  0.3526E+02
      5.530  0.4398E+01  0.4398E+01  0.3581E+02  0.3581E+02
      5.655  0.3941E+01  0.3942E+01  0.3630E+02  0.3630E+02
      5.780  0.3491E+01  0.3491E+01  0.3674E+02  0.3674E+02
      5.905  0.2428E+01  0.2428E+01  0.3704E+02  0.3704E+02
      6.030  0.1926E+01  0.1926E+01  0.3729E+02  0.3729E+02
      6.155  0.2351E+01  0.2351E+01  0.3758E+02  0.3758E+02
      6.281  0.2518E+01  0.2517E+01  0.3790E+02  0.3790E+02
      6.406  0.2602E+01  0.2602E+01  0.3822E+02  0.3822E+02
      6.531  0.2608E+01  0.2608E+01  0.3855E+02  0.3855E+02
      6.656  0.2658E+01  0.2657E+01  0.3888E+02  0.3888E+02
      6.781  0.3566E+01  0.3565E+01  0.3933E+02  0.3933E+02
      6.906  0.3839E+01  0.3840E+01  0.3981E+02  0.3981E+02
      7.031  0.4079E+01  0.4079E+01  0.4032E+02  0.4032E+02
      7.156  0.5085E+01  0.5085E+01  0.4096E+02  0.4096E+02
      7.281  0.4696E+01  0.4697E+01  0.4154E+02  0.4154E+02
      7.406  0.4614E+01  0.4618E+01  0.4212E+02  0.4212E+02
      7.531  0.4683E+01  0.4700E+01  0.4271E+02  0.4271E+02
      7.656  0.5312E+01  0.5322E+01  0.4337E+02  0.4338E+02
      7.781  0.5660E+01  0.5665E+01  0.4408E+02  0.4409E+02
      7.906  0.6770E+01  0.6787E+01  0.4493E+02  0.4494E+02
      8.031  0.6605E+01  0.6666E+01  0.4576E+02  0.4577E+02
      8.156  0.6744E+01  0.6803E+01  0.4660E+02  0.4662E+02
      8.282  0.6223E+01  0.6192E+01  0.4738E+02  0.4740E+02
      8.407  0.5410E+01  0.5440E+01  0.4806E+02  0.4808E+02
      8.532  0.5227E+01  0.5337E+01  0.4871E+02  0.4875E+02
      8.657  0.5134E+01  0.5373E+01  0.4936E+02  0.4942E+02
      8.782  0.5026E+01  0.5078E+01  0.4999E+02  0.5006E+02
      8.907  0.4940E+01  0.4853E+01  0.5061E+02  0.5067E+02
      9.032  0.4401E+01  0.4535E+01  0.5116E+02  0.5123E+02
      9.157  0.3107E+01  0.3233E+01  0.5155E+02  0.5164E+02
      9.282  0.1901E+01  0.1550E+01  0.5179E+02  0.5183E+02
      9.407  0.1185E+01  0.8262E+00  0.5193E+02  0.5194E+02
      9.532  0.4570E+00  0.4079E+00  0.5199E+02  0.5199E+02
      9.657  0.5659E-01  0.6652E-01  0.5200E+02  0.5200E+02
      9.782  0.2873E-02  0.5044E-02  0.5200E+02  0.5200E+02
      9.907  0.0000E+00  0.0000E+00  0.5200E+02  0.5200E+02
     10.032  0.0000E+00  0.0000E+00  0.5200E+02  0.5200E+02
     10.158  0.0000E+00  0.0000E+00  0.5200E+02  0.5200E+02
     10.283  0.0000E+00  0.0000E+00  0.5200E+02  0.5200E+02
     10.408  0.0000E+00  0.0000E+00  0.5200E+02  0.5200E+02
     10.533  0.0000E+00  0.0000E+00  0.5200E+02  0.5200E+02
     10.658  0.0000E+00  0.0000E+00  0.5200E+02  0.5200E+02
     10.783  0.0000E+00  0.0000E+00  0.5200E+02  0.5200E+02
     10.908  0.0000E+00  0.0000E+00  0.5200E+02  0.5200E+02
     11.033  0.0000E+00  0.0000E+00  0.5200E+02  0.5200E+02
     11.158  0.0000E+00  0.0000E+00  0.5200E+02  0.5200E+02
     11.15807997    -26.36174890  301      6.31993313      1.00000000
    -26.362  0.0000E+00  0.0000E+00  0.0000E+00  0.0000E+00  0.0000E+00  0.0000E+00  0.0000E+00  0.0000E+00  0.0000E+00  0.0000E+00  0.0000E+00  0.0000E+00  0.0000E+00  0.0000E+00  0.0000E+00  0.0000E+00  0.0000E+00  0.0000E+00
    -26.237  0.0000E+00  0.0000E+00  0.0000E+00  0.0000E+00  0.0000E+00  0.0000E+00  0.0000E+00  0.0000E+00  0.0000E+00  0.0000E+00  0.0000E+00  0.0000E+00  0.0000E+00  0.0000E+00  0.0000E+00  0.0000E+00  0.0000E+00  0.0000E+00
    -26.112  0.0000E+00  0.0000E+00  0.0000E+00  0.0000E+00  0.0000E+00  0.0000E+00  0.0000E+00  0.0000E+00  0.0000E+00  0.0000E+00  0.0000E+00  0.0000E+00  0.0000E+00  0.0000E+00  0.0000E+00  0.0000E+00  0.0000E+00  0.0000E+00
    -25.987  0.0000E+00  0.0000E+00  0.0000E+00  0.0000E+00  0.0000E+00  0.0000E+00  0.0000E+00  0.0000E+00  0.0000E+00  0.0000E+00  0.0000E+00  0.0000E+00  0.0000E+00  0.0000E+00  0.0000E+00  0.0000E+00  0.0000E+00  0.0000E+00
    -25.861  0.0000E+00  0.0000E+00  0.0000E+00  0.0000E+00  0.0000E+00  0.0000E+00  0.0000E+00  0.0000E+00  0.0000E+00  0.0000E+00  0.0000E+00  0.0000E+00  0.0000E+00  0.0000E+00  0.0000E+00  0.0000E+00  0.0000E+00  0.0000E+00
    -25.736  0.0000E+00  0.0000E+00  0.0000E+00  0.0000E+00  0.0000E+00  0.0000E+00  0.0000E+00  0.0000E+00  0.0000E+00  0.0000E+00  0.0000E+00  0.0000E+00  0.0000E+00  0.0000E+00  0.0000E+00  0.0000E+00  0.0000E+00  0.0000E+00
    -25.611  0.0000E+00  0.0000E+00  0.0000E+00  0.0000E+00  0.0000E+00  0.0000E+00  0.0000E+00  0.0000E+00  0.0000E+00  0.0000E+00  0.0000E+00  0.0000E+00  0.0000E+00  0.0000E+00  0.0000E+00  0.0000E+00  0.0000E+00  0.0000E+00
    -25.486  0.0000E+00  0.0000E+00  0.0000E+00  0.0000E+00  0.0000E+00  0.0000E+00  0.0000E+00  0.0000E+00  0.0000E+00  0.0000E+00  0.0000E+00  0.0000E+00  0.0000E+00  0.0000E+00  0.0000E+00  0.0000E+00  0.0000E+00  0.0000E+00
    -25.361  0.0000E+00  0.0000E+00  0.0000E+00  0.0000E+00  0.0000E+00  0.0000E+00  0.0000E+00  0.0000E+00  0.0000E+00  0.0000E+00  0.0000E+00  0.0000E+00  0.0000E+00  0.0000E+00  0.0000E+00  0.0000E+00  0.0000E+00  0.0000E+00
    -25.236  0.0000E+00  0.0000E+00  0.0000E+00  0.0000E+00  0.0000E+00  0.0000E+00  0.0000E+00  0.0000E+00  0.0000E+00  0.0000E+00  0.0000E+00  0.0000E+00  0.0000E+00  0.0000E+00  0.0000E+00  0.0000E+00  0.0000E+00  0.0000E+00
    -25.111  0.7632E-09  0.7648E-09  0.6580E-03  0.6589E-03  0.2809E-03  0.2811E-03  0.6580E-03  0.6589E-03  0.1724E-10  0.1725E-10  0.1012E-08  0.1014E-08  0.5675E-09  0.5681E-09  0.1012E-08  0.1014E-08  0.3713E-09  0.3716E-09
    -24.986  0.8541E-08  0.8559E-08  0.7361E-02  0.7371E-02  0.3144E-02  0.3146E-02  0.7361E-02  0.7371E-02  0.1929E-09  0.1930E-09  0.1132E-07  0.1134E-07  0.6352E-08  0.6358E-08  0.1132E-07  0.1134E-07  0.4154E-08  0.4157E-08
    -24.861  0.1033E-06  0.1035E-06  0.8865E-01  0.8878E-01  0.3815E-01  0.3818E-01  0.8865E-01  0.8878E-01  0.2322E-08  0.2322E-08  0.1363E-06  0.1366E-06  0.7693E-07  0.7701E-07  0.1363E-06  0.1366E-06  0.5005E-07  0.5009E-07
    -24.736  0.1145E-05  0.1147E-05  0.9357E+00  0.9368E+00  0.4368E+00  0.4372E+00  0.9357E+00  0.9368E+00  0.2433E-07  0.2434E-07  0.1439E-05  0.1441E-05  0.8644E-06  0.8652E-06  0.1439E-05  0.1441E-05  0.5301E-06  0.5305E-06
    -24.611  0.6612E-05  0.6621E-05  0.4025E+01  0.4026E+01  0.2981E+01  0.2982E+01  0.4025E+01  0.4026E+01  0.1011E-06  0.1010E-06  0.6183E-05  0.6188E-05  0.5355E-05  0.5358E-05  0.6183E-05  0.6188E-05  0.2303E-05  0.2303E-05
    -24.486  0.6704E-05  0.6708E-05  0.2444E+01  0.2442E+01  0.3642E+01  0.3641E+01  0.2444E+01  0.2442E+01  0.5854E-07  0.5848E-07  0.3760E-05  0.3759E-05  0.5837E-05  0.5836E-05  0.3760E-05  0.3759E-05  0.1398E-05  0.1396E-05
    -24.361  0.1154E-05  0.1154E-05  0.3133E+00  0.3129E+00  0.6751E+00  0.6745E+00  0.3133E+00  0.3129E+00  0.7356E-08  0.7346E-08  0.4836E-06  0.4832E-06  0.1027E-05  0.1027E-05  0.4836E-06  0.4832E-06  0.1782E-06  0.1778E-06
    -24.236  0.9474E-07  0.9477E-07  0.1254E-01  0.1252E-01  0.6114E-01  0.6109E-01  0.1254E-01  0.1252E-01  0.2114E-09  0.2122E-09  0.1940E-07  0.1938E-07  0.8885E-07  0.8881E-07  0.1940E-07  0.1938E-07  0.5058E-08  0.5046E-08
    -24.111  0.0000E+00  0.0000E+00  0.0000E+00  0.0000E+00  0.0000E+00  0.0000E+00  0.0000E+00  0.0000E+00  0.0000E+00  0.0000E+00  0.0000E+00  0.0000E+00  0.0000E+00  0.0000E+00  0.0000E+00  0.0000E+00  0.0000E+00  0.0000E+00
    -23.985  0.0000E+00  0.0000E+00  0.0000E+00  0.0000E+00  0.0000E+00  0.0000E+00  0.0000E+00  0.0000E+00  0.0000E+00  0.0000E+00  0.0000E+00  0.0000E+00  0.0000E+00  0.0000E+00  0.0000E+00  0.0000E+00  0.0000E+00  0.0000E+00
    -23.860  0.0000E+00  0.0000E+00  0.0000E+00  0.0000E+00  0.0000E+00  0.0000E+00  0.0000E+00  0.0000E+00  0.0000E+00  0.0000E+00  0.0000E+00  0.0000E+00  0.0000E+00  0.0000E+00  0.0000E+00  0.0000E+00  0.0000E+00  0.0000E+00
    -23.735  0.0000E+00  0.0000E+00  0.0000E+00  0.0000E+00  0.0000E+00  0.0000E+00  0.0000E+00  0.0000E+00  0.0000E+00  0.0000E+00  0.0000E+00  0.0000E+00  0.0000E+00  0.0000E+00  0.0000E+00  0.0000E+00  0.0000E+00  0.0000E+00
    -23.610  0.0000E+00  0.0000E+00  0.0000E+00  0.0000E+00  0.0000E+00  0.0000E+00  0.0000E+00  0.0000E+00  0.0000E+00  0.0000E+00  0.0000E+00  0.0000E+00  0.0000E+00  0.0000E+00  0.0000E+00  0.0000E+00  0.0000E+00  0.0000E+00
    -23.485  0.0000E+00  0.0000E+00  0.0000E+00  0.0000E+00  0.0000E+00  0.0000E+00  0.0000E+00  0.0000E+00  0.0000E+00  0.0000E+00  0.0000E+00  0.0000E+00  0.0000E+00  0.0000E+00  0.0000E+00  0.0000E+00  0.0000E+00  0.0000E+00
    -23.360  0.0000E+00  0.0000E+00  0.0000E+00  0.0000E+00  0.0000E+00  0.0000E+00  0.0000E+00  0.0000E+00  0.0000E+00  0.0000E+00  0.0000E+00  0.0000E+00  0.0000E+00  0.0000E+00  0.0000E+00  0.0000E+00  0.0000E+00  0.0000E+00
    -23.235  0.0000E+00  0.0000E+00  0.0000E+00  0.0000E+00  0.0000E+00  0.0000E+00  0.0000E+00  0.0000E+00  0.0000E+00  0.0000E+00  0.0000E+00  0.0000E+00  0.0000E+00  0.0000E+00  0.0000E+00  0.0000E+00  0.0000E+00  0.0000E+00
    -23.110  0.0000E+00  0.0000E+00  0.0000E+00  0.0000E+00  0.0000E+00  0.0000E+00  0.0000E+00  0.0000E+00  0.0000E+00  0.0000E+00  0.0000E+00  0.0000E+00  0.0000E+00  0.0000E+00  0.0000E+00  0.0000E+00  0.0000E+00  0.0000E+00
    -22.985  0.0000E+00  0.0000E+00  0.0000E+00  0.0000E+00  0.0000E+00  0.0000E+00  0.0000E+00  0.0000E+00  0.0000E+00  0.0000E+00  0.0000E+00  0.0000E+00  0.0000E+00  0.0000E+00  0.0000E+00  0.0000E+00  0.0000E+00  0.0000E+00
    -22.860  0.0000E+00  0.0000E+00  0.0000E+00  0.0000E+00  0.0000E+00  0.0000E+00  0.0000E+00  0.0000E+00  0.0000E+00  0.0000E+00  0.0000E+00  0.0000E+00  0.0000E+00  0.0000E+00  0.0000E+00  0.0000E+00  0.0000E+00  0.0000E+00
    -22.735  0.0000E+00  0.0000E+00  0.0000E+00  0.0000E+00  0.0000E+00  0.0000E+00  0.0000E+00  0.0000E+00  0.0000E+00  0.0000E+00  0.0000E+00  0.0000E+00  0.0000E+00  0.0000E+00  0.0000E+00  0.0000E+00  0.0000E+00  0.0000E+00
    -22.610  0.0000E+00  0.0000E+00  0.0000E+00  0.0000E+00  0.0000E+00  0.0000E+00  0.0000E+00  0.0000E+00  0.0000E+00  0.0000E+00  0.0000E+00  0.0000E+00  0.0000E+00  0.0000E+00  0.0000E+00  0.0000E+00  0.0000E+00  0.0000E+00
    -22.485  0.0000E+00  0.0000E+00  0.0000E+00  0.0000E+00  0.0000E+00  0.0000E+00  0.0000E+00  0.0000E+00  0.0000E+00  0.0000E+00  0.0000E+00  0.0000E+00  0.0000E+00  0.0000E+00  0.0000E+00  0.0000E+00  0.0000E+00  0.0000E+00
    -22.360  0.0000E+00  0.0000E+00  0.0000E+00  0.0000E+00  0.0000E+00  0.0000E+00  0.0000E+00  0.0000E+00  0.0000E+00  0.0000E+00  0.0000E+00  0.0000E+00  0.0000E+00  0.0000E+00  0.0000E+00  0.0000E+00  0.0000E+00  0.0000E+00
    -22.235  0.0000E+00  0.0000E+00  0.0000E+00  0.0000E+00  0.0000E+00  0.0000E+00  0.0000E+00  0.0000E+00  0.0000E+00  0.0000E+00  0.0000E+00  0.0000E+00  0.0000E+00  0.0000E+00  0.0000E+00  0.0000E+00  0.0000E+00  0.0000E+00
    -22.110  0.0000E+00  0.0000E+00  0.0000E+00  0.0000E+00  0.0000E+00  0.0000E+00  0.0000E+00  0.0000E+00  0.0000E+00  0.0000E+00  0.0000E+00  0.0000E+00  0.0000E+00  0.0000E+00  0.0000E+00  0.0000E+00  0.0000E+00  0.0000E+00
    -21.984  0.0000E+00  0.0000E+00  0.0000E+00  0.0000E+00  0.0000E+00  0.0000E+00  0.0000E+00  0.0000E+00  0.0000E+00  0.0000E+00  0.0000E+00  0.0000E+00  0.0000E+00  0.0000E+00  0.0000E+00  0.0000E+00  0.0000E+00  0.0000E+00
    -21.859  0.0000E+00  0.0000E+00  0.0000E+00  0.0000E+00  0.0000E+00  0.0000E+00  0.0000E+00  0.0000E+00  0.0000E+00  0.0000E+00  0.0000E+00  0.0000E+00  0.0000E+00  0.0000E+00  0.0000E+00  0.0000E+00  0.0000E+00  0.0000E+00
    -21.734  0.0000E+00  0.0000E+00  0.0000E+00  0.0000E+00  0.0000E+00  0.0000E+00  0.0000E+00  0.0000E+00  0.0000E+00  0.0000E+00  0.0000E+00  0.0000E+00  0.0000E+00  0.0000E+00  0.0000E+00  0.0000E+00  0.0000E+00  0.0000E+00
    -21.609  0.0000E+00  0.0000E+00  0.0000E+00  0.0000E+00  0.0000E+00  0.0000E+00  0.0000E+00  0.0000E+00  0.0000E+00  0.0000E+00  0.0000E+00  0.0000E+00  0.0000E+00  0.0000E+00  0.0000E+00  0.0000E+00  0.0000E+00  0.0000E+00
    -21.484  0.0000E+00  0.0000E+00  0.0000E+00  0.0000E+00  0.0000E+00  0.0000E+00  0.0000E+00  0.0000E+00  0.0000E+00  0.0000E+00  0.0000E+00  0.0000E+00  0.0000E+00  0.0000E+00  0.0000E+00  0.0000E+00  0.0000E+00  0.0000E+00
    -21.359  0.0000E+00  0.0000E+00  0.0000E+00  0.0000E+00  0.0000E+00  0.0000E+00  0.0000E+00  0.0000E+00  0.0000E+00  0.0000E+00  0.0000E+00  0.0000E+00  0.0000E+00  0.0000E+00  0.0000E+00  0.0000E+00  0.0000E+00  0.0000E+00
    -21.234  0.0000E+00  0.0000E+00  0.0000E+00  0.0000E+00  0.0000E+00  0.0000E+00  0.0000E+00  0.0000E+00  0.0000E+00  0.0000E+00  0.0000E+00  0.0000E+00  0.0000E+00  0.0000E+00  0.0000E+00  0.0000E+00  0.0000E+00  0.0000E+00
    -21.109  0.0000E+00  0.0000E+00  0.0000E+00  0.0000E+00  0.0000E+00  0.0000E+00  0.0000E+00  0.0000E+00  0.0000E+00  0.0000E+00  0.0000E+00  0.0000E+00  0.0000E+00  0.0000E+00  0.0000E+00  0.0000E+00  0.0000E+00  0.0000E+00
    -20.984  0.0000E+00  0.0000E+00  0.0000E+00  0.0000E+00  0.0000E+00  0.0000E+00  0.0000E+00  0.0000E+00  0.0000E+00  0.0000E+00  0.0000E+00  0.0000E+00  0.0000E+00  0.0000E+00  0.0000E+00  0.0000E+00  0.0000E+00  0.0000E+00
    -20.859  0.0000E+00  0.0000E+00  0.0000E+00  0.0000E+00  0.0000E+00  0.0000E+00  0.0000E+00  0.0000E+00  0.0000E+00  0.0000E+00  0.0000E+00  0.0000E+00  0.0000E+00  0.0000E+00  0.0000E+00  0.0000E+00  0.0000E+00  0.0000E+00
    -20.734  0.0000E+00  0.0000E+00  0.0000E+00  0.0000E+00  0.0000E+00  0.0000E+00  0.0000E+00  0.0000E+00  0.0000E+00  0.0000E+00  0.0000E+00  0.0000E+00  0.0000E+00  0.0000E+00  0.0000E+00  0.0000E+00  0.0000E+00  0.0000E+00
    -20.609  0.0000E+00  0.0000E+00  0.0000E+00  0.0000E+00  0.0000E+00  0.0000E+00  0.0000E+00  0.0000E+00  0.0000E+00  0.0000E+00  0.0000E+00  0.0000E+00  0.0000E+00  0.0000E+00  0.0000E+00  0.0000E+00  0.0000E+00  0.0000E+00
    -20.484  0.0000E+00  0.0000E+00  0.0000E+00  0.0000E+00  0.0000E+00  0.0000E+00  0.0000E+00  0.0000E+00  0.0000E+00  0.0000E+00  0.0000E+00  0.0000E+00  0.0000E+00  0.0000E+00  0.0000E+00  0.0000E+00  0.0000E+00  0.0000E+00
    -20.359  0.0000E+00  0.0000E+00  0.0000E+00  0.0000E+00  0.0000E+00  0.0000E+00  0.0000E+00  0.0000E+00  0.0000E+00  0.0000E+00  0.0000E+00  0.0000E+00  0.0000E+00  0.0000E+00  0.0000E+00  0.0000E+00  0.0000E+00  0.0000E+00
    -20.234  0.0000E+00  0.0000E+00  0.0000E+00  0.0000E+00  0.0000E+00  0.0000E+00  0.0000E+00  0.0000E+00  0.0000E+00  0.0000E+00  0.0000E+00  0.0000E+00  0.0000E+00  0.0000E+00  0.0000E+00  0.0000E+00  0.0000E+00  0.0000E+00
    -20.108  0.0000E+00  0.0000E+00  0.0000E+00  0.0000E+00  0.0000E+00  0.0000E+00  0.0000E+00  0.0000E+00  0.0000E+00  0.0000E+00  0.0000E+00  0.0000E+00  0.0000E+00  0.0000E+00  0.0000E+00  0.0000E+00  0.0000E+00  0.0000E+00