  16  16   1   0
  0.1520887E+02  0.3839911E-09  0.3839911E-09  0.1650344E-08  0.5000000E-15
  1.000000000000000E-004
  CAR 
 unknown system                          
     14.20027270    -23.45814939  301      8.51848375      1.00000000
    -23.458  0.0000E+00  0.0000E+00  0.0000E+00  0.0000E+00
    -23.333  0.0000E+00  0.0000E+00  0.0000E+00  0.0000E+00
    -23.207  0.0000E+00  0.0000E+00  0.0000E+00  0.0000E+00
    -23.082  0.0000E+00  0.0000E+00  0.0000E+00  0.0000E+00
    -22.956  0.0000E+00  0.0000E+00  0.0000E+00  0.0000E+00
    -22.831  0.0000E+00  0.0000E+00  0.0000E+00  0.0000E+00
    -22.705  0.0000E+00  0.0000E+00  0.0000E+00  0.0000E+00
    -22.579  0.0000E+00  0.0000E+00  0.0000E+00  0.0000E+00
    -22.454  0.0000E+00  0.0000E+00  0.0000E+00  0.0000E+00
    -22.328  0.0000E+00  0.0000E+00  0.0000E+00  0.0000E+00
    -22.203  0.2604E-02  0.2620E-02  0.3268E-03  0.3289E-03
    -22.077  0.4180E-01  0.4198E-01  0.5573E-02  0.5598E-02
    -21.952  0.4979E+00  0.5002E+00  0.6808E-01  0.6838E-01
    -21.826  0.5560E+01  0.5582E+01  0.7660E+00  0.7691E+00
    -21.701  0.3340E+02  0.3347E+02  0.4958E+01  0.4970E+01
    -21.575  0.4423E+02  0.4418E+02  0.1051E+02  0.1052E+02
    -21.450  0.1073E+02  0.1069E+02  0.1186E+02  0.1186E+02
    -21.324  0.9872E+00  0.9827E+00  0.1199E+02  0.1199E+02
    -21.199  0.0000E+00  0.0000E+00  0.1200E+02  0.1200E+02
    -21.073  0.0000E+00  0.0000E+00  0.1200E+02  0.1200E+02
    -20.948  0.0000E+00  0.0000E+00  0.1200E+02  0.1200E+02
    -20.822  0.0000E+00  0.0000E+00  0.1200E+02  0.1200E+02
    -20.697  0.0000E+00  0.0000E+00  0.1200E+02  0.1200E+02
    -20.571  0.0000E+00  0.0000E+00  0.1200E+02  0.1200E+02
    -20.445  0.0000E+00  0.0000E+00  0.1200E+02  0.1200E+02
    -20.320  0.0000E+00  0.0000E+00  0.1200E+02  0.1200E+02
    -20.194  0.0000E+00  0.0000E+00  0.1200E+02  0.1200E+02
    -20.069  0.0000E+00  0.0000E+00  0.1200E+02  0.1200E+02
    -19.943  0.0000E+00  0.0000E+00  0.1200E+02  0.1200E+02
    -19.818  0.0000E+00  0.0000E+00  0.1200E+02  0.1200E+02
    -19.692  0.0000E+00  0.0000E+00  0.1200E+02  0.1200E+02
    -19.567  0.0000E+00  0.0000E+00  0.1200E+02  0.1200E+02
    -19.441  0.0000E+00  0.0000E+00  0.1200E+02  0.1200E+02
    -19.316  0.0000E+00  0.0000E+00  0.1200E+02  0.1200E+02
    -19.190  0.0000E+00  0.0000E+00  0.1200E+02  0.1200E+02
    -19.065  0.0000E+00  0.0000E+00  0.1200E+02  0.1200E+02
    -18.939  0.0000E+00  0.0000E+00  0.1200E+02  0.1200E+02
    -18.814  0.0000E+00  0.0000E+00  0.1200E+02  0.1200E+02
    -18.688  0.0000E+00  0.0000E+00  0.1200E+02  0.1200E+02
    -18.563  0.0000E+00  0.0000E+00  0.1200E+02  0.1200E+02
    -18.437  0.0000E+00  0.0000E+00  0.1200E+02  0.1200E+02
    -18.311  0.0000E+00  0.0000E+00  0.1200E+02  0.1200E+02
    -18.186  0.0000E+00  0.0000E+00  0.1200E+02  0.1200E+02
    -18.060  0.0000E+00  0.0000E+00  0.1200E+02  0.1200E+02
    -17.935  0.0000E+00  0.0000E+00  0.1200E+02  0.1200E+02
    -17.809  0.0000E+00  0.0000E+00  0.1200E+02  0.1200E+02
    -17.684  0.0000E+00  0.0000E+00  0.1200E+02  0.1200E+02
    -17.558  0.0000E+00  0.0000E+00  0.1200E+02  0.1200E+02
    -17.433  0.0000E+00  0.0000E+00  0.1200E+02  0.1200E+02
    -17.307  0.0000E+00  0.0000E+00  0.1200E+02  0.1200E+02
    -17.182  0.0000E+00  0.0000E+00  0.1200E+02  0.1200E+02
    -17.056  0.0000E+00  0.0000E+00  0.1200E+02  0.1200E+02
    -16.931  0.0000E+00  0.0000E+00  0.1200E+02  0.1200E+02
    -16.805  0.0000E+00  0.0000E+00  0.1200E+02  0.1200E+02
    -16.680  0.0000E+00  0.0000E+00  0.1200E+02  0.1200E+02
    -16.554  0.0000E+00  0.0000E+00  0.1200E+02  0.1200E+02
    -16.429  0.0000E+00  0.0000E+00  0.1200E+02  0.1200E+02
    -16.303  0.0000E+00  0.0000E+00  0.1200E+02  0.1200E+02
    -16.178  0.0000E+00  0.0000E+00  0.1200E+02  0.1200E+02
    -16.052  0.0000E+00  0.0000E+00  0.1200E+02  0.1200E+02
    -15.926  0.0000E+00  0.0000E+00  0.1200E+02  0.1200E+02
    -15.801  0.0000E+00  0.0000E+00  0.1200E+02  0.1200E+02
    -15.675  0.0000E+00  0.0000E+00  0.1200E+02  0.1200E+02
    -15.550  0.0000E+00  0.0000E+00  0.1200E+02  0.1200E+02
    -15.424  0.0000E+00  0.0000E+00  0.1200E+02  0.1200E+02
    -15.299  0.0000E+00  0.0000E+00  0.1200E+02  0.1200E+02
    -15.173  0.0000E+00  0.0000E+00  0.1200E+02  0.1200E+02
    -15.048  0.0000E+00  0.0000E+00  0.1200E+02  0.1200E+02
    -14.922  0.0000E+00  0.0000E+00  0.1200E+02  0.1200E+02
    -14.797  0.0000E+00  0.0000E+00  0.1200E+02  0.1200E+02
    -14.671  0.0000E+00  0.0000E+00  0.1200E+02  0.1200E+02
    -14.546  0.0000E+00  0.0000E+00  0.1200E+02  0.1200E+02
    -14.420  0.0000E+00  0.0000E+00  0.1200E+02  0.1200E+02
    -14.295  0.0000E+00  0.0000E+00  0.1200E+02  0.1200E+02
    -14.169  0.0000E+00  0.0000E+00  0.1200E+02  0.1200E+02
    -14.044  0.0000E+00  0.0000E+00  0.1200E+02  0.1200E+02
    -13.918  0.0000E+00  0.0000E+00  0.1200E+02  0.1200E+02
    -13.792  0.0000E+00  0.0000E+00  0.1200E+02  0.1200E+02
    -13.667  0.0000E+00  0.0000E+00  0.1200E+02  0.1200E+02
    -13.541  0.0000E+00  0.0000E+00  0.1200E+02  0.1200E+02
    -13.416  0.0000E+00  0.0000E+00  0.1200E+02  0.1200E+02
    -13.290  0.0000E+00  0.0000E+00  0.1200E+02  0.1200E+02
    -13.165  0.0000E+00  0.0000E+00  0.1200E+02  0.1200E+02
    -13.039  0.0000E+00  0.0000E+00  0.1200E+02  0.1200E+02
    -12.914  0.0000E+00  0.0000E+00  0.1200E+02  0.1200E+02
    -12.788  0.0000E+00  0.0000E+00  0.1200E+02  0.1200E+02
    -12.663  0.0000E+00  0.0000E+00  0.1200E+02  0.1200E+02
    -12.537  0.0000E+00  0.0000E+00  0.1200E+02  0.1200E+02
    -12.412  0.0000E+00  0.0000E+00  0.1200E+02  0.1200E+02
    -12.286  0.0000E+00  0.0000E+00  0.1200E+02  0.1200E+02
    -12.161  0.0000E+00  0.0000E+00  0.1200E+02  0.1200E+02
    -12.035  0.0000E+00  0.0000E+00  0.1200E+02  0.1200E+02
    -11.910  0.0000E+00  0.0000E+00  0.1200E+02  0.1200E+02
    -11.784  0.0000E+00  0.0000E+00  0.1200E+02  0.1200E+02
    -11.659  0.0000E+00  0.0000E+00  0.1200E+02  0.1200E+02
    -11.533  0.0000E+00  0.0000E+00  0.1200E+02  0.1200E+02
    -11.407  0.0000E+00  0.0000E+00  0.1200E+02  0.1200E+02
    -11.282  0.0000E+00  0.0000E+00  0.1200E+02  0.1200E+02
    -11.156  0.0000E+00  0.0000E+00  0.1200E+02  0.1200E+02
    -11.031  0.0000E+00  0.0000E+00  0.1200E+02  0.1200E+02
    -10.905  0.0000E+00  0.0000E+00  0.1200E+02  0.1200E+02
    -10.780  0.0000E+00  0.0000E+00  0.1200E+02  0.1200E+02
    -10.654  0.0000E+00  0.0000E+00  0.1200E+02  0.1200E+02
    -10.529  0.0000E+00  0.0000E+00  0.1200E+02  0.1200E+02
    -10.403  0.0000E+00  0.0000E+00  0.1200E+02  0.1200E+02
    -10.278  0.0000E+00  0.0000E+00  0.1200E+02  0.1200E+02
    -10.152  0.0000E+00  0.0000E+00  0.1200E+02  0.1200E+02
    -10.027  0.0000E+00  0.0000E+00  0.1200E+02  0.1200E+02
     -9.901  0.0000E+00  0.0000E+00  0.1200E+02  0.1200E+02
     -9.776  0.0000E+00  0.0000E+00  0.1200E+02  0.1200E+02
     -9.650  0.0000E+00  0.0000E+00  0.1200E+02  0.1200E+02
     -9.525  0.0000E+00  0.0000E+00  0.1200E+02  0.1200E+02
     -9.399  0.0000E+00  0.0000E+00  0.1200E+02  0.1200E+02
     -9.273  0.0000E+00  0.0000E+00  0.1200E+02  0.1200E+02
     -9.148  0.0000E+00  0.0000E+00  0.1200E+02  0.1200E+02
     -9.022  0.0000E+00  0.0000E+00  0.1200E+02  0.1200E+02
     -8.897  0.0000E+00  0.0000E+00  0.1200E+02  0.1200E+02
     -8.771  0.0000E+00  0.0000E+00  0.1200E+02  0.1200E+02
     -8.646  0.0000E+00  0.0000E+00  0.1200E+02  0.1200E+02
     -8.520  0.0000E+00  0.0000E+00  0.1200E+02  0.1200E+02
     -8.395  0.0000E+00  0.0000E+00  0.1200E+02  0.1200E+02
     -8.269  0.0000E+00  0.0000E+00  0.1200E+02  0.1200E+02
     -8.144  0.0000E+00  0.0000E+00  0.1200E+02  0.1200E+02
     -8.018  0.0000E+00  0.0000E+00  0.1200E+02  0.1200E+02
     -7.893  0.0000E+00  0.0000E+00  0.1200E+02  0.1200E+02
     -7.767  0.0000E+00  0.0000E+00  0.1200E+02  0.1200E+02
     -7.642  0.0000E+00  0.0000E+00  0.1200E+02  0.1200E+02
     -7.516  0.0000E+00  0.0000E+00  0.1200E+02  0.1200E+02
     -7.391  0.0000E+00  0.0000E+00  0.1200E+02  0.1200E+02
     -7.265  0.0000E+00  0.0000E+00  0.1200E+02  0.1200E+02
     -7.139  0.0000E+00  0.0000E+00  0.1200E+02  0.1200E+02
     -7.014  0.0000E+00  0.0000E+00  0.1200E+02  0.1200E+02
     -6.888  0.0000E+00  0.0000E+00  0.1200E+02  0.1200E+02
     -6.763  0.0000E+00  0.0000E+00  0.1200E+02  0.1200E+02
     -6.637  0.0000E+00  0.0000E+00  0.1200E+02  0.1200E+02
     -6.512  0.0000E+00  0.0000E+00  0.1200E+02  0.1200E+02
     -6.386  0.0000E+00  0.0000E+00  0.1200E+02  0.1200E+02
     -6.261  0.0000E+00  0.0000E+00  0.1200E+02  0.1200E+02
     -6.135  0.0000E+00  0.0000E+00  0.1200E+02  0.1200E+02
     -6.010  0.0000E+00  0.0000E+00  0.1200E+02  0.1200E+02
     -5.884  0.0000E+00  0.0000E+00  0.1200E+02  0.1200E+02
     -5.759  0.0000E+00  0.0000E+00  0.1200E+02  0.1200E+02
     -5.633  0.0000E+00  0.0000E+00  0.1200E+02  0.1200E+02
     -5.508  0.0000E+00  0.0000E+00  0.1200E+02  0.1200E+02
     -5.382  0.0000E+00  0.0000E+00  0.1200E+02  0.1200E+02
     -5.257  0.0000E+00  0.0000E+00  0.1200E+02  0.1200E+02
     -5.131  0.0000E+00  0.0000E+00  0.1200E+02  0.1200E+02
     -5.006  0.0000E+00  0.0000E+00  0.1200E+02  0.1200E+02
     -4.880  0.0000E+00  0.0000E+00  0.1200E+02  0.1200E+02
     -4.754  0.0000E+00  0.0000E+00  0.1200E+02  0.1200E+02
     -4.629  0.0000E+00  0.0000E+00  0.1200E+02  0.1200E+02
     -4.503  0.0000E+00  0.0000E+00  0.1200E+02  0.1200E+02
     -4.378  0.0000E+00  0.0000E+00  0.1200E+02  0.1200E+02
     -4.252  0.0000E+00  0.0000E+00  0.1200E+02  0.1200E+02
     -4.127  0.0000E+00  0.0000E+00  0.1200E+02  0.1200E+02
     -4.001  0.0000E+00  0.0000E+00  0.1200E+02  0.1200E+02
     -3.876  0.0000E+00  0.0000E+00  0.1200E+02  0.1200E+02
     -3.750  0.0000E+00  0.0000E+00  0.1200E+02  0.1200E+02
     -3.625  0.0000E+00  0.0000E+00  0.1200E+02  0.1200E+02
     -3.499  0.0000E+00  0.0000E+00  0.1200E+02  0.1200E+02
     -3.374  0.0000E+00  0.0000E+00  0.1200E+02  0.1200E+02
     -3.248  0.0000E+00  0.0000E+00  0.1200E+02  0.1200E+02
     -3.123  0.0000E+00  0.0000E+00  0.1200E+02  0.1200E+02
     -2.997  0.4881E-05  0.4866E-05  0.1200E+02  0.1200E+02
     -2.872  0.7317E-04  0.7294E-04  0.1200E+02  0.1200E+02
     -2.746  0.9201E-03  0.9172E-03  0.1200E+02  0.1200E+02
     -2.620  0.1047E-01  0.1044E-01  0.1200E+02  0.1200E+02
     -2.495  0.7578E-01  0.7564E-01  0.1201E+02  0.1201E+02
     -2.369  0.2156E+00  0.2154E+00  0.1204E+02  0.1204E+02
     -2.244  0.3161E+00  0.3160E+00  0.1208E+02  0.1208E+02
     -2.118  0.4683E+00  0.4683E+00  0.1214E+02  0.1214E+02
     -1.993  0.4303E+00  0.4302E+00  0.1219E+02  0.1219E+02
     -1.867  0.5956E+00  0.5954E+00  0.1227E+02  0.1227E+02
     -1.742  0.6042E+00  0.6042E+00  0.1234E+02  0.1234E+02
     -1.616  0.6651E+00  0.6650E+00  0.1242E+02  0.1242E+02
     -1.491  0.6155E+00  0.6155E+00  0.1250E+02  0.1250E+02
     -1.365  0.8075E+00  0.8072E+00  0.1260E+02  0.1260E+02
     -1.240  0.8803E+00  0.8803E+00  0.1271E+02  0.1271E+02
     -1.114  0.9641E+00  0.9641E+00  0.1284E+02  0.1284E+02
     -0.989  0.7320E+00  0.7322E+00  0.1293E+02  0.1293E+02
     -0.863  0.9264E+00  0.9259E+00  0.1304E+02  0.1304E+02
     -0.738  0.1176E+01  0.1176E+01  0.1319E+02  0.1319E+02
     -0.612  0.1190E+01  0.1190E+01  0.1334E+02  0.1334E+02
     -0.487  0.1088E+01  0.1089E+01  0.1348E+02  0.1348E+02
     -0.361  0.1121E+01  0.1121E+01  0.1362E+02  0.1362E+02
     -0.235  0.1250E+01  0.1250E+01  0.1378E+02  0.1378E+02
     -0.110  0.1303E+01  0.1303E+01  0.1394E+02  0.1394E+02
      0.016  0.1374E+01  0.1373E+01  0.1411E+02  0.1411E+02
      0.141  0.1767E+01  0.1767E+01  0.1433E+02  0.1433E+02
      0.267  0.1490E+01  0.1490E+01  0.1452E+02  0.1452E+02
      0.392  0.1269E+01  0.1269E+01  0.1468E+02  0.1468E+02
      0.518  0.1450E+01  0.1449E+01  0.1486E+02  0.1486E+02
      0.643  0.1796E+01  0.1795E+01  0.1509E+02  0.1509E+02
      0.769  0.1890E+01  0.1890E+01  0.1533E+02  0.1533E+02
      0.894  0.1824E+01  0.1824E+01  0.1556E+02  0.1556E+02
      1.020  0.1665E+01  0.1666E+01  0.1577E+02  0.1577E+02
      1.145  0.1466E+01  0.1466E+01  0.1595E+02  0.1595E+02
      1.271  0.1663E+01  0.1663E+01  0.1616E+02  0.1616E+02
      1.396  0.1448E+01  0.1449E+01  0.1634E+02  0.1634E+02
      1.522  0.1423E+01  0.1422E+01  0.1652E+02  0.1652E+02
      1.647  0.2120E+01  0.2119E+01  0.1679E+02  0.1679E+02
      1.773  0.2311E+01  0.2311E+01  0.1708E+02  0.1708E+02
      1.899  0.2082E+01  0.2081E+01  0.1734E+02  0.1734E+02
      2.024  0.2175E+01  0.2175E+01  0.1761E+02  0.1761E+02
      2.150  0.2033E+01  0.2033E+01  0.1787E+02  0.1787E+02
      2.275  0.2126E+01  0.2126E+01  0.1813E+02  0.1813E+02
      2.401  0.2093E+01  0.2093E+01  0.1840E+02  0.1840E+02
      2.526  0.2170E+01  0.2171E+01  0.1867E+02  0.1867E+02
      2.652  0.2250E+01  0.2250E+01  0.1895E+02  0.1895E+02
      2.777  0.2008E+01  0.2008E+01  0.1921E+02  0.1921E+02
      2.903  0.1971E+01  0.1971E+01  0.1945E+02  0.1945E+02
      3.028  0.1869E+01  0.1869E+01  0.1969E+02  0.1969E+02
      3.154  0.1850E+01  0.1850E+01  0.1992E+02  0.1992E+02
      3.279  0.2562E+01  0.2561E+01  0.2024E+02  0.2024E+02
      3.405  0.3503E+01  0.3503E+01  0.2068E+02  0.2068E+02
      3.530  0.2931E+01  0.2932E+01  0.2105E+02  0.2105E+02
      3.656  0.2733E+01  0.2733E+01  0.2140E+02  0.2139E+02
      3.781  0.2789E+01  0.2789E+01  0.2175E+02  0.2175E+02
      3.907  0.2123E+01  0.2124E+01  0.2201E+02  0.2201E+02
      4.032  0.1510E+01  0.1510E+01  0.2220E+02  0.2220E+02
      4.158  0.2287E+01  0.2286E+01  0.2249E+02  0.2249E+02
      4.284  0.3173E+01  0.3173E+01  0.2289E+02  0.2289E+02
      4.409  0.2930E+01  0.2931E+01  0.2326E+02  0.2326E+02
      4.535  0.2604E+01  0.2603E+01  0.2358E+02  0.2358E+02
      4.660  0.2995E+01  0.2994E+01  0.2396E+02  0.2396E+02
      4.786  0.3424E+01  0.3424E+01  0.2439E+02  0.2439E+02
      4.911  0.3221E+01  0.3222E+01  0.2480E+02  0.2480E+02
      5.037  0.3104E+01  0.3104E+01  0.2519E+02  0.2519E+02
      5.162  0.3378E+01  0.3378E+01  0.2561E+02  0.2561E+02
      5.288  0.3382E+01  0.3382E+01  0.2604E+02  0.2604E+02
      5.413  0.3471E+01  0.3471E+01  0.2647E+02  0.2647E+02
      5.539  0.3566E+01  0.3566E+01  0.2692E+02  0.2692E+02
      5.664  0.4357E+01  0.4357E+01  0.2747E+02  0.2747E+02
      5.790  0.4892E+01  0.4893E+01  0.2808E+02  0.2808E+02
      5.915  0.4269E+01  0.4269E+01  0.2862E+02  0.2862E+02
      6.041  0.4501E+01  0.4502E+01  0.2919E+02  0.2918E+02
      6.166  0.3609E+01  0.3610E+01  0.2964E+02  0.2964E+02
      6.292  0.3256E+01  0.3256E+01  0.3005E+02  0.3005E+02
      6.418  0.4158E+01  0.4158E+01  0.3057E+02  0.3057E+02
      6.543  0.4945E+01  0.4945E+01  0.3119E+02  0.3119E+02
      6.669  0.5323E+01  0.5323E+01  0.3186E+02  0.3186E+02
      6.794  0.5865E+01  0.5865E+01  0.3260E+02  0.3260E+02
      6.920  0.5914E+01  0.5914E+01  0.3334E+02  0.3334E+02
      7.045  0.5118E+01  0.5119E+01  0.3399E+02  0.3399E+02
      7.171  0.3854E+01  0.3854E+01  0.3447E+02  0.3447E+02
      7.296  0.3332E+01  0.3333E+01  0.3489E+02  0.3489E+02
      7.422  0.3173E+01  0.3173E+01  0.3529E+02  0.3529E+02
      7.547  0.3747E+01  0.3747E+01  0.3576E+02  0.3576E+02
      7.673  0.3688E+01  0.3689E+01  0.3622E+02  0.3622E+02
      7.798  0.3002E+01  0.3002E+01  0.3660E+02  0.3660E+02
      7.924  0.2454E+01  0.2454E+01  0.3691E+02  0.3691E+02
      8.049  0.1790E+01  0.1791E+01  0.3714E+02  0.3714E+02
      8.175  0.1719E+01  0.1719E+01  0.3735E+02  0.3735E+02
      8.300  0.1897E+01  0.1897E+01  0.3759E+02  0.3759E+02
      8.426  0.1811E+01  0.1811E+01  0.3782E+02  0.3782E+02
      8.552  0.1975E+01  0.1975E+01  0.3807E+02  0.3807E+02
      8.677  0.2234E+01  0.2234E+01  0.3835E+02  0.3835E+02
      8.803  0.2107E+01  0.2107E+01  0.3861E+02  0.3861E+02
      8.928  0.2118E+01  0.2119E+01  0.3888E+02  0.3888E+02
      9.054  0.2645E+01  0.2645E+01  0.3921E+02  0.3921E+02
      9.179  0.2665E+01  0.2665E+01  0.3955E+02  0.3955E+02
      9.305  0.2524E+01  0.2524E+01  0.3986E+02  0.3986E+02
      9.430  0.2591E+01  0.2591E+01  0.4019E+02  0.4019E+02
      9.556  0.3104E+01  0.3104E+01  0.4058E+02  0.4058E+02
      9.681  0.3691E+01  0.3691E+01  0.4104E+02  0.4104E+02
      9.807  0.4194E+01  0.4194E+01  0.4157E+02  0.4157E+02
      9.932  0.3816E+01  0.3816E+01  0.4205E+02  0.4205E+02
     10.058  0.4469E+01  0.4469E+01  0.4261E+02  0.4261E+02
     10.183  0.4642E+01  0.4642E+01  0.4320E+02  0.4320E+02
     10.309  0.4110E+01  0.4110E+01  0.4371E+02  0.4371E+02
     10.434  0.4707E+01  0.4707E+01  0.4430E+02  0.4430E+02
     10.560  0.5027E+01  0.5028E+01  0.4494E+02  0.4494E+02
     10.685  0.5108E+01  0.5100E+01  0.4558E+02  0.4558E+02
     10.811  0.4549E+01  0.4547E+01  0.4615E+02  0.4615E+02
     10.937  0.4405E+01  0.4400E+01  0.4670E+02  0.4670E+02
     11.062  0.4068E+01  0.4030E+01  0.4721E+02  0.4721E+02
     11.188  0.4241E+01  0.4244E+01  0.4775E+02  0.4774E+02
     11.313  0.4371E+01  0.4395E+01  0.4830E+02  0.4829E+02
     11.439  0.4729E+01  0.4842E+01  0.4889E+02  0.4890E+02
     11.564  0.4600E+01  0.4693E+01  0.4947E+02  0.4949E+02
     11.690  0.4767E+01  0.4975E+01  0.5007E+02  0.5012E+02
     11.815  0.4210E+01  0.4281E+01  0.5060E+02  0.5066E+02
     11.941  0.3741E+01  0.3791E+01  0.5107E+02  0.5113E+02
     12.066  0.2910E+01  0.3005E+01  0.5144E+02  0.5151E+02
     12.192  0.2380E+01  0.2138E+01  0.5173E+02  0.5178E+02
     12.317  0.1293E+01  0.1166E+01  0.5190E+02  0.5193E+02
     12.443  0.5586E+00  0.4838E+00  0.5197E+02  0.5199E+02
     12.568  0.2100E+00  0.7748E-01  0.5200E+02  0.5200E+02
     12.694  0.3381E-01  0.5406E-02  0.5200E+02  0.5200E+02
     12.819  0.1865E-02  0.0000E+00  0.5200E+02  0.5200E+02
     12.945  0.0000E+00  0.0000E+00  0.5200E+02  0.5200E+02
     13.071  0.0000E+00  0.0000E+00  0.5200E+02  0.5200E+02
     13.196  0.0000E+00  0.0000E+00  0.5200E+02  0.5200E+02
     13.322  0.0000E+00  0.0000E+00  0.5200E+02  0.5200E+02
     13.447  0.0000E+00  0.0000E+00  0.5200E+02  0.5200E+02
     13.573  0.0000E+00  0.0000E+00  0.5200E+02  0.5200E+02
     13.698  0.0000E+00  0.0000E+00  0.5200E+02  0.5200E+02
     13.824  0.0000E+00  0.0000E+00  0.5200E+02  0.5200E+02
     13.949  0.0000E+00  0.0000E+00  0.5200E+02  0.5200E+02
     14.075  0.0000E+00  0.0000E+00  0.5200E+02  0.5200E+02
     14.200  0.0000E+00  0.0000E+00  0.5200E+02  0.5200E+02
     14.20027270    -23.45814939  301      8.51848375      1.00000000
    -23.458  0.0000E+00  0.0000E+00  0.0000E+00  0.0000E+00  0.0000E+00  0.0000E+00  0.0000E+00  0.0000E+00  0.0000E+00  0.0000E+00  0.0000E+00  0.0000E+00  0.0000E+00  0.0000E+00  0.0000E+00  0.0000E+00  0.0000E+00  0.0000E+00
    -23.333  0.0000E+00  0.0000E+00  0.0000E+00  0.0000E+00  0.0000E+00  0.0000E+00  0.0000E+00  0.0000E+00  0.0000E+00  0.0000E+00  0.0000E+00  0.0000E+00  0.0000E+00  0.0000E+00  0.0000E+00  0.0000E+00  0.0000E+00  0.0000E+00
    -23.207  0.0000E+00  0.0000E+00  0.0000E+00  0.0000E+00  0.0000E+00  0.0000E+00  0.0000E+00  0.0000E+00  0.0000E+00  0.0000E+00  0.0000E+00  0.0000E+00  0.0000E+00  0.0000E+00  0.0000E+00  0.0000E+00  0.0000E+00  0.0000E+00
    -23.082  0.0000E+00  0.0000E+00  0.0000E+00  0.0000E+00  0.0000E+00  0.0000E+00  0.0000E+00  0.0000E+00  0.0000E+00  0.0000E+00  0.0000E+00  0.0000E+00  0.0000E+00  0.0000E+00  0.0000E+00  0.0000E+00  0.0000E+00  0.0000E+00
    -22.956  0.0000E+00  0.0000E+00  0.0000E+00  0.0000E+00  0.0000E+00  0.0000E+00  0.0000E+00  0.0000E+00  0.0000E+00  0.0000E+00  0.0000E+00  0.0000E+00  0.0000E+00  0.0000E+00  0.0000E+00  0.0000E+00  0.0000E+00  0.0000E+00
    -22.831  0.0000E+00  0.0000E+00  0.0000E+00  0.0000E+00  0.0000E+00  0.0000E+00  0.0000E+00  0.0000E+00  0.0000E+00  0.0000E+00  0.0000E+00  0.0000E+00  0.0000E+00  0.0000E+00  0.0000E+00  0.0000E+00  0.0000E+00  0.0000E+00
    -22.705  0.0000E+00  0.0000E+00  0.0000E+00  0.0000E+00  0.0000E+00  0.0000E+00  0.0000E+00  0.0000E+00  0.0000E+00  0.0000E+00  0.0000E+00  0.0000E+00  0.0000E+00  0.0000E+00  0.0000E+00  0.0000E+00  0.0000E+00  0.0000E+00
    -22.579  0.0000E+00  0.0000E+00  0.0000E+00  0.0000E+00  0.0000E+00  0.0000E+00  0.0000E+00  0.0000E+00  0.0000E+00  0.0000E+00  0.0000E+00  0.0000E+00  0.0000E+00  0.0000E+00  0.0000E+00  0.0000E+00  0.0000E+00  0.0000E+00
    -22.454  0.0000E+00  0.0000E+00  0.0000E+00  0.0000E+00  0.0000E+00  0.0000E+00  0.0000E+00  0.0000E+00  0.0000E+00  0.0000E+00  0.0000E+00  0.0000E+00  0.0000E+00  0.0000E+00  0.0000E+00  0.0000E+00  0.0000E+00  0.0000E+00
    -22.328  0.0000E+00  0.0000E+00  0.0000E+00  0.0000E+00  0.0000E+00  0.0000E+00  0.0000E+00  0.0000E+00  0.0000E+00  0.0000E+00  0.0000E+00  0.0000E+00  0.0000E+00  0.0000E+00  0.0000E+00  0.0000E+00  0.0000E+00  0.0000E+00
    -22.203  0.1481E-08  0.1491E-08  0.3179E-03  0.3200E-03  0.9449E-06  0.9763E-06  0.3179E-03  0.3200E-03  0.1148E-09  0.1154E-09  0.1883E-08  0.1894E-08  0.5325E-09  0.5371E-09  0.1883E-08  0.1894E-08  0.1571E-08  0.1583E-08
    -22.077  0.2888E-07  0.2902E-07  0.4335E-02  0.4353E-02  0.1562E-02  0.1570E-02  0.4335E-02  0.4353E-02  0.1427E-08  0.1434E-08  0.2552E-07  0.2564E-07  0.1805E-07  0.1814E-07  0.2552E-07  0.2564E-07  0.2086E-07  0.2095E-07
    -21.952  0.3413E-06  0.3429E-06  0.5213E-01  0.5236E-01  0.1763E-01  0.1772E-01  0.5213E-01  0.5236E-01  0.1726E-07  0.1734E-07  0.3070E-06  0.3084E-06  0.2091E-06  0.2102E-06  0.3070E-06  0.3084E-06  0.2517E-06  0.2529E-06
    -21.826  0.3901E-05  0.3918E-05  0.5755E+00  0.5778E+00  0.2101E+00  0.2110E+00  0.5755E+00  0.5778E+00  0.1884E-06  0.1892E-06  0.3385E-05  0.3399E-05  0.2425E-05  0.2437E-05  0.3385E-05  0.3399E-05  0.2830E-05  0.2843E-05
    -21.701  0.2632E-04  0.2639E-04  0.3167E+01  0.3172E+01  0.1847E+01  0.1853E+01  0.3167E+01  0.3172E+01  0.9564E-06  0.9577E-06  0.1851E-04  0.1855E-04  0.1795E-04  0.1800E-04  0.1851E-04  0.1855E-04  0.1683E-04  0.1687E-04
    -21.575  0.3834E-04  0.3831E-04  0.3309E+01  0.3303E+01  0.4225E+01  0.4224E+01  0.3309E+01  0.3303E+01  0.8443E-06  0.8424E-06  0.1926E-04  0.1924E-04  0.2970E-04  0.2968E-04  0.1926E-04  0.1924E-04  0.1786E-04  0.1784E-04
    -21.450  0.9230E-05  0.9196E-05  0.6376E+00  0.6352E+00  0.1355E+01  0.1350E+01  0.6376E+00  0.6352E+00  0.1463E-06  0.1456E-06  0.3735E-05  0.3721E-05  0.7403E-05  0.7375E-05  0.3735E-05  0.3721E-05  0.3229E-05  0.3218E-05
    -21.324  0.8742E-06  0.8703E-06  0.5153E-01  0.5131E-01  0.1391E+00  0.1384E+00  0.5153E-01  0.5131E-01  0.1027E-07  0.1022E-07  0.3021E-06  0.3009E-06  0.7072E-06  0.7041E-06  0.3021E-06  0.3009E-06  0.2737E-06  0.2727E-06
    -21.199  0.0000E+00  0.0000E+00  0.0000E+00  0.0000E+00  0.0000E+00  0.0000E+00  0.0000E+00  0.0000E+00  0.0000E+00  0.0000E+00  0.0000E+00  0.0000E+00  0.0000E+00  0.0000E+00  0.0000E+00  0.0000E+00  0.0000E+00  0.0000E+00
    -21.073  0.0000E+00  0.0000E+00  0.0000E+00  0.0000E+00  0.0000E+00  0.0000E+00  0.0000E+00  0.0000E+00  0.0000E+00  0.0000E+00  0.0000E+00  0.0000E+00  0.0000E+00  0.0000E+00  0.0000E+00  0.0000E+00  0.0000E+00  0.0000E+00
    -20.948  0.0000E+00  0.0000E+00  0.0000E+00  0.0000E+00  0.0000E+00  0.0000E+00  0.0000E+00  0.0000E+00  0.0000E+00  0.0000E+00  0.0000E+00  0.0000E+00  0.0000E+00  0.0000E+00  0.0000E+00  0.0000E+00  0.0000E+00  0.0000E+00
    -20.822  0.0000E+00  0.0000E+00  0.0000E+00  0.0000E+00  0.0000E+00  0.0000E+00  0.0000E+00  0.0000E+00  0.0000E+00  0.0000E+00  0.0000E+00  0.0000E+00  0.0000E+00  0.0000E+00  0.0000E+00  0.0000E+00  0.0000E+00  0.0000E+00
    -20.697  0.0000E+00  0.0000E+00  0.0000E+00  0.0000E+00  0.0000E+00  0.0000E+00  0.0000E+00  0.0000E+00  0.0000E+00  0.0000E+00  0.0000E+00  0.0000E+00  0.0000E+00  0.0000E+00  0.0000E+00  0.0000E+00  0.0000E+00  0.0000E+00
    -20.571  0.0000E+00  0.0000E+00  0.0000E+00  0.0000E+00  0.0000E+00  0.0000E+00  0.0000E+00  0.0000E+00  0.0000E+00  0.0000E+00  0.0000E+00  0.0000E+00  0.0000E+00  0.0000E+00  0.0000E+00  0.0000E+00  0.0000E+00  0.0000E+00
    -20.445  0.0000E+00  0.0000E+00  0.0000E+00  0.0000E+00  0.0000E+00  0.0000E+00  0.0000E+00  0.0000E+00  0.0000E+00  0.0000E+00  0.0000E+00  0.0000E+00  0.0000E+00  0.0000E+00  0.0000E+00  0.0000E+00  0.0000E+00  0.0000E+00
    -20.320  0.0000E+00  0.0000E+00  0.0000E+00  0.0000E+00  0.0000E+00  0.0000E+00  0.0000E+00  0.0000E+00  0.0000E+00  0.0000E+00  0.0000E+00  0.0000E+00  0.0000E+00  0.0000E+00  0.0000E+00  0.0000E+00  0.0000E+00  0.0000E+00
    -20.194  0.0000E+00  0.0000E+00  0.0000E+00  0.0000E+00  0.0000E+00  0.0000E+00  0.0000E+00  0.0000E+00  0.0000E+00  0.0000E+00  0.0000E+00  0.0000E+00  0.0000E+00  0.0000E+00  0.0000E+00  0.0000E+00  0.0000E+00  0.0000E+00
    -20.069  0.0000E+00  0.0000E+00  0.0000E+00  0.0000E+00  0.0000E+00  0.0000E+00  0.0000E+00  0.0000E+00  0.0000E+00  0.0000E+00  0.0000E+00  0.0000E+00  0.0000E+00  0.0000E+00  0.0000E+00  0.0000E+00  0.0000E+00  0.0000E+00
    -19.943  0.0000E+00  0.0000E+00  0.0000E+00  0.0000E+00  0.0000E+00  0.0000E+00  0.0000E+00  0.0000E+00  0.0000E+00  0.0000E+00  0.0000E+00  0.0000E+00  0.0000E+00  0.0000E+00  0.0000E+00  0.0000E+00  0.0000E+00  0.0000E+00
    -19.818  0.0000E+00  0.0000E+00  0.0000E+00  0.0000E+00  0.0000E+00  0.0000E+00  0.0000E+00  0.0000E+00  0.0000E+00  0.0000E+00  0.0000E+00  0.0000E+00  0.0000E+00  0.0000E+00  0.0000E+00  0.0000E+00  0.0000E+00  0.0000E+00
    -19.692  0.0000E+00  0.0000E+00  0.0000E+00  0.0000E+00  0.0000E+00  0.0000E+00  0.0000E+00  0.0000E+00  0.0000E+00  0.0000E+00  0.0000E+00  0.0000E+00  0.0000E+00  0.0000E+00  0.0000E+00  0.0000E+00  0.0000E+00  0.0000E+00
    -19.567  0.0000E+00  0.0000E+00  0.0000E+00  0.0000E+00  0.0000E+00  0.0000E+00  0.0000E+00  0.0000E+00  0.0000E+00  0.0000E+00  0.0000E+00  0.0000E+00  0.0000E+00  0.0000E+00  0.0000E+00  0.0000E+00  0.0000E+00  0.0000E+00
    -19.441  0.0000E+00  0.0000E+00  0.0000E+00  0.0000E+00  0.0000E+00  0.0000E+00  0.0000E+00  0.0000E+00  0.0000E+00  0.0000E+00  0.0000E+00  0.0000E+00  0.0000E+00  0.0000E+00  0.0000E+00  0.0000E+00  0.0000E+00  0.0000E+00
    -19.316  0.0000E+00  0.0000E+00  0.0000E+00  0.0000E+00  0.0000E+00  0.0000E+00  0.0000E+00  0.0000E+00  0.0000E+00  0.0000E+00  0.0000E+00  0.0000E+00  0.0000E+00  0.0000E+00  0.0000E+00  0.0000E+00  0.0000E+00  0.0000E+00
    -19.190  0.0000E+00  0.0000E+00  0.0000E+00  0.0000E+00  0.0000E+00  0.0000E+00  0.0000E+00  0.0000E+00  0.0000E+00  0.0000E+00  0.0000E+00  0.0000E+00  0.0000E+00  0.0000E+00  0.0000E+00  0.0000E+00  0.0000E+00  0.0000E+00
    -19.065  0.0000E+00  0.0000E+00  0.0000E+00  0.0000E+00  0.0000E+00  0.0000E+00  0.0000E+00  0.0000E+00  0.0000E+00  0.0000E+00  0.0000E+00  0.0000E+00  0.0000E+00  0.0000E+00  0.0000E+00  0.0000E+00  0.0000E+00  0.0000E+00
    -18.939  0.0000E+00  0.0000E+00  0.0000E+00  0.0000E+00  0.0000E+00  0.0000E+00  0.0000E+00  0.0000E+00  0.0000E+00  0.0000E+00  0.0000E+00  0.0000E+00  0.0000E+00  0.0000E+00  0.0000E+00  0.0000E+00  0.0000E+00  0.0000E+00
    -18.814  0.0000E+00  0.0000E+00  0.0000E+00  0.0000E+00  0.0000E+00  0.0000E+00  0.0000E+00  0.0000E+00  0.0000E+00  0.0000E+00  0.0000E+00  0.0000E+00  0.0000E+00  0.0000E+00  0.0000E+00  0.0000E+00  0.0000E+00  0.0000E+00
    -18.688  0.0000E+00  0.0000E+00  0.0000E+00  0.0000E+00  0.0000E+00  0.0000E+00  0.0000E+00  0.0000E+00  0.0000E+00  0.0000E+00  0.0000E+00  0.0000E+00  0.0000E+00  0.0000E+00  0.0000E+00  0.0000E+00  0.0000E+00  0.0000E+00
    -18.563  0.0000E+00  0.0000E+00  0.0000E+00  0.0000E+00  0.0000E+00  0.0000E+00  0.0000E+00  0.0000E+00  0.0000E+00  0.0000E+00  0.0000E+00  0.0000E+00  0.0000E+00  0.0000E+00  0.0000E+00  0.0000E+00  0.0000E+00  0.0000E+00
    -18.437  0.0000E+00  0.0000E+00  0.0000E+00  0.0000E+00  0.0000E+00  0.0000E+00  0.0000E+00  0.0000E+00  0.0000E+00  0.0000E+00  0.0000E+00  0.0000E+00  0.0000E+00  0.0000E+00  0.0000E+00  0.0000E+00  0.0000E+00  0.0000E+00
    -18.311  0.0000E+00  0.0000E+00  0.0000E+00  0.0000E+00  0.0000E+00  0.0000E+00  0.0000E+00  0.0000E+00  0.0000E+00  0.0000E+00  0.0000E+00  0.0000E+00  0.0000E+00  0.0000E+00  0.0000E+00  0.0000E+00  0.0000E+00  0.0000E+00
    -18.186  0.0000E+00  0.0000E+00  0.0000E+00  0.0000E+00  0.0000E+00  0.0000E+00  0.0000E+00  0.0000E+00  0.0000E+00  0.0000E+00  0.0000E+00  0.0000E+00  0.0000E+00  0.0000E+00  0.0000E+00  0.0000E+00  0.0000E+00  0.0000E+00
    -18.060  0.0000E+00  0.0000E+00  0.0000E+00  0.0000E+00  0.0000E+00  0.0000E+00  0.0000E+00  0.0000E+00  0.0000E+00  0.0000E+00  0.0000E+00  0.0000E+00  0.0000E+00  0.0000E+00  0.0000E+00  0.0000E+00  0.0000E+00  0.0000E+00
    -17.935  0.0000E+00  0.0000E+00  0.0000E+00  0.0000E+00  0.0000E+00  0.0000E+00  0.0000E+00  0.0000E+00  0.0000E+00  0.0000E+00  0.0000E+00  0.0000E+00  0.0000E+00  0.0000E+00  0.0000E+00  0.0000E+00  0.0000E+00  0.0000E+00
    -17.809  0.0000E+00  0.0000E+00  0.0000E+00  0.0000E+00  0.0000E+00  0.0000E+00  0.0000E+00  0.0000E+00  0.0000E+00  0.0000E+00  0.0000E+00  0.0000E+00  0.0000E+00  0.0000E+00  0.0000E+00  0.0000E+00  0.0000E+00  0.0000E+00
    -17.684  0.0000E+00  0.0000E+00  0.0000E+00  0.0000E+00  0.0000E+00  0.0000E+00  0.0000E+00  0.0000E+00  0.0000E+00  0.0000E+00  0.0000E+00  0.0000E+00  0.0000E+00  0.0000E+00  0.0000E+00  0.0000E+00  0.0000E+00  0.0000E+00
    -17.558  0.0000E+00  0.0000E+00  0.0000E+00  0.0000E+00  0.0000E+00  0.0000E+00  0.0000E+00  0.0000E+00  0.0000E+00  0.0000E+00  0.0000E+00  0.0000E+00  0.0000E+00  0.0000E+00  0.0000E+00  0.0000E+00  0.0000E+00  0.0000E+00
    -17.433  0.0000E+00  0.0000E+00  0.0000E+00  0.0000E+00  0.0000E+00  0.0000E+00  0.0000E+00  0.0000E+00  0.0000E+00  0.0000E+00  0.0000E+00  0.0000E+00  0.0000E+00  0.0000E+00  0.0000E+00  0.0000E+00  0.0000E+00  0.0000E+00
    -17.307  0.0000E+00  0.0000E+00  0.0000E+00  0.0000E+00  0.0000E+00  0.0000E+00  0.0000E+00  0.0000E+00  0.0000E+00  0.0000E+00  0.0000E+00  0.0000E+00  0.0000E+00  0.0000E+00  0.0000E+00  0.0000E+00  0.0000E+00  0.0000E+00
    -17.182  0.0000E+00  0.0000E+00  0.0000E+00  0.0000E+00  0.0000E+00  0.0000E+00  0.0000E+00  0.0000E+00  0.0000E+00  0.0000E+00  0.0000E+00  0.0000E+00  0.0000E+00  0.0000E+00  0.0000E+00  0.0000E+00  0.0000E+00  0.0000E+00