  16  16   1   0
  0.1382713E+02  0.3719914E-09  0.3719914E-09  0.1598770E-08  0.5000000E-15
  1.000000000000000E-004
  CAR 
 unknown system                          
     15.63031136    -22.25747306  301      9.47813380      1.00000000
    -22.257  0.0000E+00  0.0000E+00  0.0000E+00  0.0000E+00
    -22.131  0.0000E+00  0.0000E+00  0.0000E+00  0.0000E+00
    -22.005  0.0000E+00  0.0000E+00  0.0000E+00  0.0000E+00
    -21.879  0.0000E+00  0.0000E+00  0.0000E+00  0.0000E+00
    -21.752  0.0000E+00  0.0000E+00  0.0000E+00  0.0000E+00
    -21.626  0.0000E+00  0.0000E+00  0.0000E+00  0.0000E+00
    -21.500  0.0000E+00  0.0000E+00  0.0000E+00  0.0000E+00
    -21.373  0.0000E+00  0.0000E+00  0.0000E+00  0.0000E+00
    -21.247  0.0000E+00  0.0000E+00  0.0000E+00  0.0000E+00
    -21.121  0.0000E+00  0.0000E+00  0.0000E+00  0.0000E+00
    -20.995  0.1712E-02  0.1712E-02  0.2162E-03  0.2162E-03
    -20.868  0.2862E-01  0.2863E-01  0.3831E-02  0.3832E-02
    -20.742  0.3462E+00  0.3463E+00  0.4755E-01  0.4756E-01
    -20.616  0.3957E+01  0.3958E+01  0.5473E+00  0.5475E+00
    -20.489  0.2568E+02  0.2568E+02  0.3790E+01  0.3791E+01
    -20.363  0.4580E+02  0.4580E+02  0.9574E+01  0.9576E+01
    -20.237  0.1710E+02  0.1709E+02  0.1173E+02  0.1173E+02
    -20.110  0.1897E+01  0.1896E+01  0.1198E+02  0.1198E+02
    -19.984  0.4144E-01  0.4115E-01  0.1200E+02  0.1200E+02
    -19.858  0.0000E+00  0.0000E+00  0.1200E+02  0.1200E+02
    -19.732  0.0000E+00  0.0000E+00  0.1200E+02  0.1200E+02
    -19.605  0.0000E+00  0.0000E+00  0.1200E+02  0.1200E+02
    -19.479  0.0000E+00  0.0000E+00  0.1200E+02  0.1200E+02
    -19.353  0.0000E+00  0.0000E+00  0.1200E+02  0.1200E+02
    -19.226  0.0000E+00  0.0000E+00  0.1200E+02  0.1200E+02
    -19.100  0.0000E+00  0.0000E+00  0.1200E+02  0.1200E+02
    -18.974  0.0000E+00  0.0000E+00  0.1200E+02  0.1200E+02
    -18.848  0.0000E+00  0.0000E+00  0.1200E+02  0.1200E+02
    -18.721  0.0000E+00  0.0000E+00  0.1200E+02  0.1200E+02
    -18.595  0.0000E+00  0.0000E+00  0.1200E+02  0.1200E+02
    -18.469  0.0000E+00  0.0000E+00  0.1200E+02  0.1200E+02
    -18.342  0.0000E+00  0.0000E+00  0.1200E+02  0.1200E+02
    -18.216  0.0000E+00  0.0000E+00  0.1200E+02  0.1200E+02
    -18.090  0.0000E+00  0.0000E+00  0.1200E+02  0.1200E+02
    -17.964  0.0000E+00  0.0000E+00  0.1200E+02  0.1200E+02
    -17.837  0.0000E+00  0.0000E+00  0.1200E+02  0.1200E+02
    -17.711  0.0000E+00  0.0000E+00  0.1200E+02  0.1200E+02
    -17.585  0.0000E+00  0.0000E+00  0.1200E+02  0.1200E+02
    -17.458  0.0000E+00  0.0000E+00  0.1200E+02  0.1200E+02
    -17.332  0.0000E+00  0.0000E+00  0.1200E+02  0.1200E+02
    -17.206  0.0000E+00  0.0000E+00  0.1200E+02  0.1200E+02
    -17.079  0.0000E+00  0.0000E+00  0.1200E+02  0.1200E+02
    -16.953  0.0000E+00  0.0000E+00  0.1200E+02  0.1200E+02
    -16.827  0.0000E+00  0.0000E+00  0.1200E+02  0.1200E+02
    -16.701  0.0000E+00  0.0000E+00  0.1200E+02  0.1200E+02
    -16.574  0.0000E+00  0.0000E+00  0.1200E+02  0.1200E+02
    -16.448  0.0000E+00  0.0000E+00  0.1200E+02  0.1200E+02
    -16.322  0.0000E+00  0.0000E+00  0.1200E+02  0.1200E+02
    -16.195  0.0000E+00  0.0000E+00  0.1200E+02  0.1200E+02
    -16.069  0.0000E+00  0.0000E+00  0.1200E+02  0.1200E+02
    -15.943  0.0000E+00  0.0000E+00  0.1200E+02  0.1200E+02
    -15.817  0.0000E+00  0.0000E+00  0.1200E+02  0.1200E+02
    -15.690  0.0000E+00  0.0000E+00  0.1200E+02  0.1200E+02
    -15.564  0.0000E+00  0.0000E+00  0.1200E+02  0.1200E+02
    -15.438  0.0000E+00  0.0000E+00  0.1200E+02  0.1200E+02
    -15.311  0.0000E+00  0.0000E+00  0.1200E+02  0.1200E+02
    -15.185  0.0000E+00  0.0000E+00  0.1200E+02  0.1200E+02
    -15.059  0.0000E+00  0.0000E+00  0.1200E+02  0.1200E+02
    -14.933  0.0000E+00  0.0000E+00  0.1200E+02  0.1200E+02
    -14.806  0.0000E+00  0.0000E+00  0.1200E+02  0.1200E+02
    -14.680  0.0000E+00  0.0000E+00  0.1200E+02  0.1200E+02
    -14.554  0.0000E+00  0.0000E+00  0.1200E+02  0.1200E+02
    -14.427  0.0000E+00  0.0000E+00  0.1200E+02  0.1200E+02
    -14.301  0.0000E+00  0.0000E+00  0.1200E+02  0.1200E+02
    -14.175  0.0000E+00  0.0000E+00  0.1200E+02  0.1200E+02
    -14.048  0.0000E+00  0.0000E+00  0.1200E+02  0.1200E+02
    -13.922  0.0000E+00  0.0000E+00  0.1200E+02  0.1200E+02
    -13.796  0.0000E+00  0.0000E+00  0.1200E+02  0.1200E+02
    -13.670  0.0000E+00  0.0000E+00  0.1200E+02  0.1200E+02
    -13.543  0.0000E+00  0.0000E+00  0.1200E+02  0.1200E+02
    -13.417  0.0000E+00  0.0000E+00  0.1200E+02  0.1200E+02
    -13.291  0.0000E+00  0.0000E+00  0.1200E+02  0.1200E+02
    -13.164  0.0000E+00  0.0000E+00  0.1200E+02  0.1200E+02
    -13.038  0.0000E+00  0.0000E+00  0.1200E+02  0.1200E+02
    -12.912  0.0000E+00  0.0000E+00  0.1200E+02  0.1200E+02
    -12.786  0.0000E+00  0.0000E+00  0.1200E+02  0.1200E+02
    -12.659  0.0000E+00  0.0000E+00  0.1200E+02  0.1200E+02
    -12.533  0.0000E+00  0.0000E+00  0.1200E+02  0.1200E+02
    -12.407  0.0000E+00  0.0000E+00  0.1200E+02  0.1200E+02
    -12.280  0.0000E+00  0.0000E+00  0.1200E+02  0.1200E+02
    -12.154  0.0000E+00  0.0000E+00  0.1200E+02  0.1200E+02
    -12.028  0.0000E+00  0.0000E+00  0.1200E+02  0.1200E+02
    -11.901  0.0000E+00  0.0000E+00  0.1200E+02  0.1200E+02
    -11.775  0.0000E+00  0.0000E+00  0.1200E+02  0.1200E+02
    -11.649  0.0000E+00  0.0000E+00  0.1200E+02  0.1200E+02
    -11.523  0.0000E+00  0.0000E+00  0.1200E+02  0.1200E+02
    -11.396  0.0000E+00  0.0000E+00  0.1200E+02  0.1200E+02
    -11.270  0.0000E+00  0.0000E+00  0.1200E+02  0.1200E+02
    -11.144  0.0000E+00  0.0000E+00  0.1200E+02  0.1200E+02
    -11.017  0.0000E+00  0.0000E+00  0.1200E+02  0.1200E+02
    -10.891  0.0000E+00  0.0000E+00  0.1200E+02  0.1200E+02
    -10.765  0.0000E+00  0.0000E+00  0.1200E+02  0.1200E+02
    -10.639  0.0000E+00  0.0000E+00  0.1200E+02  0.1200E+02
    -10.512  0.0000E+00  0.0000E+00  0.1200E+02  0.1200E+02
    -10.386  0.0000E+00  0.0000E+00  0.1200E+02  0.1200E+02
    -10.260  0.0000E+00  0.0000E+00  0.1200E+02  0.1200E+02
    -10.133  0.0000E+00  0.0000E+00  0.1200E+02  0.1200E+02
    -10.007  0.0000E+00  0.0000E+00  0.1200E+02  0.1200E+02
     -9.881  0.0000E+00  0.0000E+00  0.1200E+02  0.1200E+02
     -9.755  0.0000E+00  0.0000E+00  0.1200E+02  0.1200E+02
     -9.628  0.0000E+00  0.0000E+00  0.1200E+02  0.1200E+02
     -9.502  0.0000E+00  0.0000E+00  0.1200E+02  0.1200E+02
     -9.376  0.0000E+00  0.0000E+00  0.1200E+02  0.1200E+02
     -9.249  0.0000E+00  0.0000E+00  0.1200E+02  0.1200E+02
     -9.123  0.0000E+00  0.0000E+00  0.1200E+02  0.1200E+02
     -8.997  0.0000E+00  0.0000E+00  0.1200E+02  0.1200E+02
     -8.870  0.0000E+00  0.0000E+00  0.1200E+02  0.1200E+02
     -8.744  0.0000E+00  0.0000E+00  0.1200E+02  0.1200E+02
     -8.618  0.0000E+00  0.0000E+00  0.1200E+02  0.1200E+02
     -8.492  0.0000E+00  0.0000E+00  0.1200E+02  0.1200E+02
     -8.365  0.0000E+00  0.0000E+00  0.1200E+02  0.1200E+02
     -8.239  0.0000E+00  0.0000E+00  0.1200E+02  0.1200E+02
     -8.113  0.0000E+00  0.0000E+00  0.1200E+02  0.1200E+02
     -7.986  0.0000E+00  0.0000E+00  0.1200E+02  0.1200E+02
     -7.860  0.0000E+00  0.0000E+00  0.1200E+02  0.1200E+02
     -7.734  0.0000E+00  0.0000E+00  0.1200E+02  0.1200E+02
     -7.608  0.0000E+00  0.0000E+00  0.1200E+02  0.1200E+02
     -7.481  0.0000E+00  0.0000E+00  0.1200E+02  0.1200E+02
     -7.355  0.0000E+00  0.0000E+00  0.1200E+02  0.1200E+02
     -7.229  0.0000E+00  0.0000E+00  0.1200E+02  0.1200E+02
     -7.102  0.0000E+00  0.0000E+00  0.1200E+02  0.1200E+02
     -6.976  0.0000E+00  0.0000E+00  0.1200E+02  0.1200E+02
     -6.850  0.0000E+00  0.0000E+00  0.1200E+02  0.1200E+02
     -6.723  0.0000E+00  0.0000E+00  0.1200E+02  0.1200E+02
     -6.597  0.0000E+00  0.0000E+00  0.1200E+02  0.1200E+02
     -6.471  0.0000E+00  0.0000E+00  0.1200E+02  0.1200E+02
     -6.345  0.0000E+00  0.0000E+00  0.1200E+02  0.1200E+02
     -6.218  0.0000E+00  0.0000E+00  0.1200E+02  0.1200E+02
     -6.092  0.0000E+00  0.0000E+00  0.1200E+02  0.1200E+02
     -5.966  0.0000E+00  0.0000E+00  0.1200E+02  0.1200E+02
     -5.839  0.0000E+00  0.0000E+00  0.1200E+02  0.1200E+02
     -5.713  0.0000E+00  0.0000E+00  0.1200E+02  0.1200E+02
     -5.587  0.0000E+00  0.0000E+00  0.1200E+02  0.1200E+02
     -5.461  0.0000E+00  0.0000E+00  0.1200E+02  0.1200E+02
     -5.334  0.0000E+00  0.0000E+00  0.1200E+02  0.1200E+02
     -5.208  0.0000E+00  0.0000E+00  0.1200E+02  0.1200E+02
     -5.082  0.0000E+00  0.0000E+00  0.1200E+02  0.1200E+02
     -4.955  0.0000E+00  0.0000E+00  0.1200E+02  0.1200E+02
     -4.829  0.0000E+00  0.0000E+00  0.1200E+02  0.1200E+02
     -4.703  0.0000E+00  0.0000E+00  0.1200E+02  0.1200E+02
     -4.577  0.0000E+00  0.0000E+00  0.1200E+02  0.1200E+02
     -4.450  0.0000E+00  0.0000E+00  0.1200E+02  0.1200E+02
     -4.324  0.0000E+00  0.0000E+00  0.1200E+02  0.1200E+02
     -4.198  0.0000E+00  0.0000E+00  0.1200E+02  0.1200E+02
     -4.071  0.0000E+00  0.0000E+00  0.1200E+02  0.1200E+02
     -3.945  0.0000E+00  0.0000E+00  0.1200E+02  0.1200E+02
     -3.819  0.0000E+00  0.0000E+00  0.1200E+02  0.1200E+02
     -3.692  0.0000E+00  0.0000E+00  0.1200E+02  0.1200E+02
     -3.566  0.0000E+00  0.0000E+00  0.1200E+02  0.1200E+02
     -3.440  0.0000E+00  0.0000E+00  0.1200E+02  0.1200E+02
     -3.314  0.0000E+00  0.0000E+00  0.1200E+02  0.1200E+02
     -3.187  0.0000E+00  0.0000E+00  0.1200E+02  0.1200E+02
     -3.061  0.0000E+00  0.0000E+00  0.1200E+02  0.1200E+02
     -2.935  0.0000E+00  0.0000E+00  0.1200E+02  0.1200E+02
     -2.808  0.0000E+00  0.0000E+00  0.1200E+02  0.1200E+02
     -2.682  0.0000E+00  0.0000E+00  0.1200E+02  0.1200E+02
     -2.556  0.7199E-05  0.7087E-05  0.1200E+02  0.1200E+02
     -2.430  0.1051E-03  0.1034E-03  0.1200E+02  0.1200E+02
     -2.303  0.1322E-02  0.1302E-02  0.1200E+02  0.1200E+02
     -2.177  0.1443E-01  0.1424E-01  0.1200E+02  0.1200E+02
     -2.051  0.8932E-01  0.8856E-01  0.1201E+02  0.1201E+02
     -1.924  0.2130E+00  0.2124E+00  0.1204E+02  0.1204E+02
     -1.798  0.2887E+00  0.2879E+00  0.1208E+02  0.1208E+02
     -1.672  0.4412E+00  0.4409E+00  0.1213E+02  0.1213E+02
     -1.545  0.3760E+00  0.3761E+00  0.1218E+02  0.1218E+02
     -1.419  0.5326E+00  0.5315E+00  0.1225E+02  0.1225E+02
     -1.293  0.5619E+00  0.5622E+00  0.1232E+02  0.1232E+02
     -1.167  0.5948E+00  0.5942E+00  0.1239E+02  0.1239E+02
     -1.040  0.6041E+00  0.6047E+00  0.1247E+02  0.1247E+02
     -0.914  0.6097E+00  0.6083E+00  0.1255E+02  0.1255E+02
     -0.788  0.8402E+00  0.8399E+00  0.1265E+02  0.1265E+02
     -0.661  0.8359E+00  0.8351E+00  0.1276E+02  0.1276E+02
     -0.535  0.8699E+00  0.8716E+00  0.1287E+02  0.1287E+02
     -0.409  0.6481E+00  0.6475E+00  0.1295E+02  0.1295E+02
     -0.283  0.9496E+00  0.9474E+00  0.1307E+02  0.1307E+02
     -0.156  0.1115E+01  0.1115E+01  0.1321E+02  0.1321E+02
     -0.030  0.1129E+01  0.1128E+01  0.1335E+02  0.1335E+02
      0.096  0.1009E+01  0.1010E+01  0.1348E+02  0.1348E+02
      0.223  0.1063E+01  0.1062E+01  0.1362E+02  0.1362E+02
      0.349  0.1170E+01  0.1169E+01  0.1376E+02  0.1376E+02
      0.475  0.1227E+01  0.1227E+01  0.1392E+02  0.1392E+02
      0.601  0.1282E+01  0.1280E+01  0.1408E+02  0.1408E+02
      0.728  0.1733E+01  0.1732E+01  0.1430E+02  0.1430E+02
      0.854  0.1468E+01  0.1469E+01  0.1449E+02  0.1449E+02
      0.980  0.1285E+01  0.1286E+01  0.1465E+02  0.1465E+02
      1.107  0.1356E+01  0.1353E+01  0.1482E+02  0.1482E+02
      1.233  0.1706E+01  0.1705E+01  0.1504E+02  0.1503E+02
      1.359  0.1859E+01  0.1859E+01  0.1527E+02  0.1527E+02
      1.486  0.1756E+01  0.1756E+01  0.1549E+02  0.1549E+02
      1.612  0.1724E+01  0.1725E+01  0.1571E+02  0.1571E+02
      1.738  0.1399E+01  0.1400E+01  0.1589E+02  0.1589E+02
      1.864  0.1500E+01  0.1498E+01  0.1608E+02  0.1608E+02
      1.991  0.1452E+01  0.1455E+01  0.1626E+02  0.1626E+02
      2.117  0.1036E+01  0.1037E+01  0.1639E+02  0.1639E+02
      2.243  0.1432E+01  0.1428E+01  0.1657E+02  0.1657E+02
      2.370  0.2099E+01  0.2097E+01  0.1684E+02  0.1684E+02
      2.496  0.2214E+01  0.2215E+01  0.1712E+02  0.1712E+02
      2.622  0.2103E+01  0.2102E+01  0.1738E+02  0.1738E+02
      2.748  0.2126E+01  0.2127E+01  0.1765E+02  0.1765E+02
      2.875  0.2071E+01  0.2070E+01  0.1792E+02  0.1791E+02
      3.001  0.2125E+01  0.2126E+01  0.1818E+02  0.1818E+02
      3.127  0.1963E+01  0.1964E+01  0.1843E+02  0.1843E+02
      3.254  0.1866E+01  0.1865E+01  0.1867E+02  0.1867E+02
      3.380  0.2257E+01  0.2257E+01  0.1895E+02  0.1895E+02
      3.506  0.1903E+01  0.1904E+01  0.1920E+02  0.1919E+02
      3.633  0.1817E+01  0.1818E+01  0.1942E+02  0.1942E+02
      3.759  0.1641E+01  0.1643E+01  0.1963E+02  0.1963E+02
      3.885  0.1641E+01  0.1640E+01  0.1984E+02  0.1984E+02
      4.011  0.2159E+01  0.2154E+01  0.2011E+02  0.2011E+02
      4.138  0.3176E+01  0.3171E+01  0.2051E+02  0.2051E+02
      4.264  0.3256E+01  0.3260E+01  0.2093E+02  0.2092E+02
      4.390  0.2661E+01  0.2663E+01  0.2126E+02  0.2126E+02
      4.517  0.2491E+01  0.2490E+01  0.2158E+02  0.2158E+02
      4.643  0.2574E+01  0.2575E+01  0.2190E+02  0.2190E+02
      4.769  0.1717E+01  0.1722E+01  0.2212E+02  0.2212E+02
      4.895  0.1585E+01  0.1581E+01  0.2232E+02  0.2232E+02
      5.022  0.2779E+01  0.2774E+01  0.2267E+02  0.2267E+02
      5.148  0.3158E+01  0.3160E+01  0.2307E+02  0.2307E+02
      5.274  0.2817E+01  0.2817E+01  0.2343E+02  0.2343E+02
      5.401  0.2874E+01  0.2874E+01  0.2379E+02  0.2379E+02
      5.527  0.3060E+01  0.3057E+01  0.2418E+02  0.2418E+02
      5.653  0.3444E+01  0.3444E+01  0.2461E+02  0.2461E+02
      5.779  0.3256E+01  0.3258E+01  0.2503E+02  0.2502E+02
      5.906  0.3204E+01  0.3202E+01  0.2543E+02  0.2543E+02
      6.032  0.3396E+01  0.3397E+01  0.2586E+02  0.2586E+02
      6.158  0.3325E+01  0.3324E+01  0.2628E+02  0.2628E+02
      6.285  0.3339E+01  0.3340E+01  0.2670E+02  0.2670E+02
      6.411  0.3577E+01  0.3575E+01  0.2716E+02  0.2715E+02
      6.537  0.4246E+01  0.4242E+01  0.2769E+02  0.2769E+02
      6.664  0.4484E+01  0.4486E+01  0.2826E+02  0.2826E+02
      6.790  0.4125E+01  0.4123E+01  0.2878E+02  0.2878E+02
      6.916  0.4473E+01  0.4476E+01  0.2935E+02  0.2934E+02
      7.042  0.3286E+01  0.3291E+01  0.2976E+02  0.2976E+02
      7.169  0.3453E+01  0.3450E+01  0.3020E+02  0.3020E+02
      7.295  0.4163E+01  0.4160E+01  0.3073E+02  0.3072E+02
      7.421  0.4709E+01  0.4707E+01  0.3132E+02  0.3132E+02
      7.548  0.5189E+01  0.5187E+01  0.3198E+02  0.3197E+02
      7.674  0.5604E+01  0.5602E+01  0.3269E+02  0.3268E+02
      7.800  0.5609E+01  0.5610E+01  0.3340E+02  0.3339E+02
      7.926  0.4842E+01  0.4848E+01  0.3401E+02  0.3401E+02
      8.053  0.3803E+01  0.3807E+01  0.3449E+02  0.3449E+02
      8.179  0.3096E+01  0.3099E+01  0.3488E+02  0.3488E+02
      8.305  0.2934E+01  0.2933E+01  0.3525E+02  0.3525E+02
      8.432  0.3334E+01  0.3334E+01  0.3568E+02  0.3567E+02
      8.558  0.3460E+01  0.3460E+01  0.3611E+02  0.3611E+02
      8.684  0.3158E+01  0.3161E+01  0.3651E+02  0.3651E+02
      8.811  0.2401E+01  0.2403E+01  0.3682E+02  0.3681E+02
      8.937  0.1871E+01  0.1872E+01  0.3705E+02  0.3705E+02
      9.063  0.1732E+01  0.1732E+01  0.3727E+02  0.3727E+02
      9.189  0.1807E+01  0.1807E+01  0.3750E+02  0.3750E+02
      9.316  0.1698E+01  0.1699E+01  0.3772E+02  0.3771E+02
      9.442  0.1718E+01  0.1717E+01  0.3793E+02  0.3793E+02
      9.568  0.1985E+01  0.1985E+01  0.3818E+02  0.3818E+02
      9.695  0.1965E+01  0.1965E+01  0.3843E+02  0.3843E+02
      9.821  0.1891E+01  0.1891E+01  0.3867E+02  0.3867E+02
      9.947  0.2162E+01  0.2161E+01  0.3895E+02  0.3894E+02
     10.073  0.2451E+01  0.2451E+01  0.3926E+02  0.3925E+02
     10.200  0.2416E+01  0.2416E+01  0.3956E+02  0.3956E+02
     10.326  0.2284E+01  0.2285E+01  0.3985E+02  0.3985E+02
     10.452  0.2053E+01  0.2052E+01  0.4011E+02  0.4011E+02
     10.579  0.2286E+01  0.2285E+01  0.4040E+02  0.4040E+02
     10.705  0.2824E+01  0.2821E+01  0.4076E+02  0.4075E+02
     10.831  0.3712E+01  0.3708E+01  0.4123E+02  0.4122E+02
     10.957  0.3905E+01  0.3907E+01  0.4172E+02  0.4172E+02
     11.084  0.3659E+01  0.3658E+01  0.4218E+02  0.4218E+02
     11.210  0.4520E+01  0.4518E+01  0.4275E+02  0.4275E+02
     11.336  0.4274E+01  0.4276E+01  0.4329E+02  0.4329E+02
     11.463  0.3909E+01  0.3908E+01  0.4379E+02  0.4379E+02
     11.589  0.4361E+01  0.4360E+01  0.4434E+02  0.4434E+02
     11.715  0.4361E+01  0.4363E+01  0.4489E+02  0.4489E+02
     11.842  0.4181E+01  0.4182E+01  0.4542E+02  0.4542E+02
     11.968  0.4208E+01  0.4207E+01  0.4595E+02  0.4595E+02
     12.094  0.3943E+01  0.3947E+01  0.4645E+02  0.4645E+02
     12.220  0.3632E+01  0.3639E+01  0.4691E+02  0.4691E+02
     12.347  0.3689E+01  0.3693E+01  0.4738E+02  0.4738E+02
     12.473  0.3853E+01  0.3813E+01  0.4786E+02  0.4786E+02
     12.599  0.4292E+01  0.4240E+01  0.4841E+02  0.4840E+02
     12.726  0.4427E+01  0.4475E+01  0.4897E+02  0.4896E+02
     12.852  0.4358E+01  0.4405E+01  0.4952E+02  0.4952E+02
     12.978  0.4457E+01  0.4365E+01  0.5008E+02  0.5007E+02
     13.104  0.4008E+01  0.3915E+01  0.5059E+02  0.5057E+02
     13.231  0.3923E+01  0.4022E+01  0.5109E+02  0.5107E+02
     13.357  0.2725E+01  0.2880E+01  0.5143E+02  0.5144E+02
     13.483  0.2277E+01  0.2304E+01  0.5172E+02  0.5173E+02
     13.610  0.1419E+01  0.1286E+01  0.5190E+02  0.5189E+02
     13.736  0.5417E+00  0.5980E+00  0.5197E+02  0.5197E+02
     13.862  0.1870E+00  0.1647E+00  0.5199E+02  0.5199E+02
     13.989  0.5173E-01  0.4849E-01  0.5200E+02  0.5200E+02
     14.115  0.8223E-02  0.9444E-02  0.5200E+02  0.5200E+02
     14.241  0.7684E-03  0.9057E-03  0.5200E+02  0.5200E+02
     14.367  0.0000E+00  0.0000E+00  0.5200E+02  0.5200E+02
     14.494  0.0000E+00  0.0000E+00  0.5200E+02  0.5200E+02
     14.620  0.0000E+00  0.0000E+00  0.5200E+02  0.5200E+02
     14.746  0.0000E+00  0.0000E+00  0.5200E+02  0.5200E+02
     14.873  0.0000E+00  0.0000E+00  0.5200E+02  0.5200E+02
     14.999  0.0000E+00  0.0000E+00  0.5200E+02  0.5200E+02
     15.125  0.0000E+00  0.0000E+00  0.5200E+02  0.5200E+02
     15.251  0.0000E+00  0.0000E+00  0.5200E+02  0.5200E+02
     15.378  0.0000E+00  0.0000E+00  0.5200E+02  0.5200E+02
     15.504  0.0000E+00  0.0000E+00  0.5200E+02  0.5200E+02
     15.630  0.0000E+00  0.0000E+00  0.5200E+02  0.5200E+02
     15.63031136    -22.25747306  301      9.47813380      1.00000000
    -22.257  0.0000E+00  0.0000E+00  0.0000E+00  0.0000E+00  0.0000E+00  0.0000E+00  0.0000E+00  0.0000E+00  0.0000E+00  0.0000E+00  0.0000E+00  0.0000E+00  0.0000E+00  0.0000E+00  0.0000E+00  0.0000E+00  0.0000E+00  0.0000E+00
    -22.131  0.0000E+00  0.0000E+00  0.0000E+00  0.0000E+00  0.0000E+00  0.0000E+00  0.0000E+00  0.0000E+00  0.0000E+00  0.0000E+00  0.0000E+00  0.0000E+00  0.0000E+00  0.0000E+00  0.0000E+00  0.0000E+00  0.0000E+00  0.0000E+00
    -22.005  0.0000E+00  0.0000E+00  0.0000E+00  0.0000E+00  0.0000E+00  0.0000E+00  0.0000E+00  0.0000E+00  0.0000E+00  0.0000E+00  0.0000E+00  0.0000E+00  0.0000E+00  0.0000E+00  0.0000E+00  0.0000E+00  0.0000E+00  0.0000E+00
    -21.879  0.0000E+00  0.0000E+00  0.0000E+00  0.0000E+00  0.0000E+00  0.0000E+00  0.0000E+00  0.0000E+00  0.0000E+00  0.0000E+00  0.0000E+00  0.0000E+00  0.0000E+00  0.0000E+00  0.0000E+00  0.0000E+00  0.0000E+00  0.0000E+00
    -21.752  0.0000E+00  0.0000E+00  0.0000E+00  0.0000E+00  0.0000E+00  0.0000E+00  0.0000E+00  0.0000E+00  0.0000E+00  0.0000E+00  0.0000E+00  0.0000E+00  0.0000E+00  0.0000E+00  0.0000E+00  0.0000E+00  0.0000E+00  0.0000E+00
    -21.626  0.0000E+00  0.0000E+00  0.0000E+00  0.0000E+00  0.0000E+00  0.0000E+00  0.0000E+00  0.0000E+00  0.0000E+00  0.0000E+00  0.0000E+00  0.0000E+00  0.0000E+00  0.0000E+00  0.0000E+00  0.0000E+00  0.0000E+00  0.0000E+00
    -21.500  0.0000E+00  0.0000E+00  0.0000E+00  0.0000E+00  0.0000E+00  0.0000E+00  0.0000E+00  0.0000E+00  0.0000E+00  0.0000E+00  0.0000E+00  0.0000E+00  0.0000E+00  0.0000E+00  0.0000E+00  0.0000E+00  0.0000E+00  0.0000E+00
    -21.373  0.0000E+00  0.0000E+00  0.0000E+00  0.0000E+00  0.0000E+00  0.0000E+00  0.0000E+00  0.0000E+00  0.0000E+00  0.0000E+00  0.0000E+00  0.0000E+00  0.0000E+00  0.0000E+00  0.0000E+00  0.0000E+00  0.0000E+00  0.0000E+00
    -21.247  0.0000E+00  0.0000E+00  0.0000E+00  0.0000E+00  0.0000E+00  0.0000E+00  0.0000E+00  0.0000E+00  0.0000E+00  0.0000E+00  0.0000E+00  0.0000E+00  0.0000E+00  0.0000E+00  0.0000E+00  0.0000E+00  0.0000E+00  0.0000E+00
    -21.121  0.0000E+00  0.0000E+00  0.0000E+00  0.0000E+00  0.0000E+00  0.0000E+00  0.0000E+00  0.0000E+00  0.0000E+00  0.0000E+00  0.0000E+00  0.0000E+00  0.0000E+00  0.0000E+00  0.0000E+00  0.0000E+00  0.0000E+00  0.0000E+00
    -20.995  0.1664E-08  0.1664E-08  0.2089E-03  0.2089E-03  0.1761E-06  0.1764E-06  0.2089E-03  0.2089E-03  0.2058E-09  0.2060E-09  0.1933E-08  0.1934E-08  0.6133E-09  0.6125E-09  0.1933E-08  0.1934E-08  0.1749E-08  0.1747E-08
    -20.868  0.3894E-07  0.3894E-07  0.3048E-02  0.3049E-02  0.9008E-03  0.9019E-03  0.3048E-02  0.3049E-02  0.2686E-08  0.2689E-08  0.2816E-07  0.2816E-07  0.2232E-07  0.2231E-07  0.2816E-07  0.2816E-07  0.3114E-07  0.3111E-07
    -20.742  0.4646E-06  0.4645E-06  0.3714E-01  0.3715E-01  0.1034E-01  0.1036E-01  0.3714E-01  0.3715E-01  0.3295E-07  0.3298E-07  0.3431E-06  0.3431E-06  0.2627E-06  0.2626E-06  0.3431E-06  0.3431E-06  0.3760E-06  0.3756E-06
    -20.616  0.5456E-05  0.5455E-05  0.4205E+00  0.4206E+00  0.1264E+00  0.1266E+00  0.4205E+00  0.4206E+00  0.3694E-06  0.3698E-06  0.3877E-05  0.3878E-05  0.3126E-05  0.3125E-05  0.3877E-05  0.3878E-05  0.4375E-05  0.4370E-05
    -20.489  0.4065E-04  0.4064E-04  0.2521E+01  0.2521E+01  0.1241E+01  0.1243E+01  0.2521E+01  0.2521E+01  0.2031E-05  0.2033E-05  0.2301E-04  0.2302E-04  0.2558E-04  0.2558E-04  0.2301E-04  0.2302E-04  0.3024E-04  0.3021E-04
    -20.363  0.7603E-04  0.7599E-04  0.3587E+01  0.3587E+01  0.4051E+01  0.4051E+01  0.3587E+01  0.3587E+01  0.2234E-05  0.2235E-05  0.3239E-04  0.3239E-04  0.5560E-04  0.5556E-04  0.3239E-04  0.3239E-04  0.4659E-04  0.4654E-04
    -20.237  0.2428E-04  0.2426E-04  0.1070E+01  0.1070E+01  0.2054E+01  0.2052E+01  0.1070E+01  0.1070E+01  0.5373E-06  0.5375E-06  0.9676E-05  0.9675E-05  0.1823E-04  0.1821E-04  0.9676E-05  0.9675E-05  0.1220E-04  0.1218E-04
    -20.110  0.2552E-05  0.2549E-05  0.1068E+00  0.1067E+00  0.2520E+00  0.2517E+00  0.1068E+00  0.1067E+00  0.4850E-07  0.4851E-07  0.9673E-06  0.9671E-06  0.1887E-05  0.1884E-05  0.9673E-06  0.9671E-06  0.1175E-05  0.1174E-05
    -19.984  0.3903E-07  0.3873E-07  0.1034E-05  0.1029E-05  0.1017E-01  0.1010E-01  0.1034E-05  0.1029E-05  0.1854E-10  0.1913E-10  0.2475E-08  0.2466E-08  0.1685E-07  0.1673E-07  0.2475E-08  0.2466E-08  0.8423E-12  0.7988E-12
    -19.858  0.0000E+00  0.0000E+00  0.0000E+00  0.0000E+00  0.0000E+00  0.0000E+00  0.0000E+00  0.0000E+00  0.0000E+00  0.0000E+00  0.0000E+00  0.0000E+00  0.0000E+00  0.0000E+00  0.0000E+00  0.0000E+00  0.0000E+00  0.0000E+00
    -19.732  0.0000E+00  0.0000E+00  0.0000E+00  0.0000E+00  0.0000E+00  0.0000E+00  0.0000E+00  0.0000E+00  0.0000E+00  0.0000E+00  0.0000E+00  0.0000E+00  0.0000E+00  0.0000E+00  0.0000E+00  0.0000E+00  0.0000E+00  0.0000E+00
    -19.605  0.0000E+00  0.0000E+00  0.0000E+00  0.0000E+00  0.0000E+00  0.0000E+00  0.0000E+00  0.0000E+00  0.0000E+00  0.0000E+00  0.0000E+00  0.0000E+00  0.0000E+00  0.0000E+00  0.0000E+00  0.0000E+00  0.0000E+00  0.0000E+00
    -19.479  0.0000E+00  0.0000E+00  0.0000E+00  0.0000E+00  0.0000E+00  0.0000E+00  0.0000E+00  0.0000E+00  0.0000E+00  0.0000E+00  0.0000E+00  0.0000E+00  0.0000E+00  0.0000E+00  0.0000E+00  0.0000E+00  0.0000E+00  0.0000E+00
    -19.353  0.0000E+00  0.0000E+00  0.0000E+00  0.0000E+00  0.0000E+00  0.0000E+00  0.0000E+00  0.0000E+00  0.0000E+00  0.0000E+00  0.0000E+00  0.0000E+00  0.0000E+00  0.0000E+00  0.0000E+00  0.0000E+00  0.0000E+00  0.0000E+00
    -19.226  0.0000E+00  0.0000E+00  0.0000E+00  0.0000E+00  0.0000E+00  0.0000E+00  0.0000E+00  0.0000E+00  0.0000E+00  0.0000E+00  0.0000E+00  0.0000E+00  0.0000E+00  0.0000E+00  0.0000E+00  0.0000E+00  0.0000E+00  0.0000E+00
    -19.100  0.0000E+00  0.0000E+00  0.0000E+00  0.0000E+00  0.0000E+00  0.0000E+00  0.0000E+00  0.0000E+00  0.0000E+00  0.0000E+00  0.0000E+00  0.0000E+00  0.0000E+00  0.0000E+00  0.0000E+00  0.0000E+00  0.0000E+00  0.0000E+00
    -18.974  0.0000E+00  0.0000E+00  0.0000E+00  0.0000E+00  0.0000E+00  0.0000E+00  0.0000E+00  0.0000E+00  0.0000E+00  0.0000E+00  0.0000E+00  0.0000E+00  0.0000E+00  0.0000E+00  0.0000E+00  0.0000E+00  0.0000E+00  0.0000E+00
    -18.848  0.0000E+00  0.0000E+00  0.0000E+00  0.0000E+00  0.0000E+00  0.0000E+00  0.0000E+00  0.0000E+00  0.0000E+00  0.0000E+00  0.0000E+00  0.0000E+00  0.0000E+00  0.0000E+00  0.0000E+00  0.0000E+00  0.0000E+00  0.0000E+00
    -18.721  0.0000E+00  0.0000E+00  0.0000E+00  0.0000E+00  0.0000E+00  0.0000E+00  0.0000E+00  0.0000E+00  0.0000E+00  0.0000E+00  0.0000E+00  0.0000E+00  0.0000E+00  0.0000E+00  0.0000E+00  0.0000E+00  0.0000E+00  0.0000E+00
    -18.595  0.0000E+00  0.0000E+00  0.0000E+00  0.0000E+00  0.0000E+00  0.0000E+00  0.0000E+00  0.0000E+00  0.0000E+00  0.0000E+00  0.0000E+00  0.0000E+00  0.0000E+00  0.0000E+00  0.0000E+00  0.0000E+00  0.0000E+00  0.0000E+00
    -18.469  0.0000E+00  0.0000E+00  0.0000E+00  0.0000E+00  0.0000E+00  0.0000E+00  0.0000E+00  0.0000E+00  0.0000E+00  0.0000E+00  0.0000E+00  0.0000E+00  0.0000E+00  0.0000E+00  0.0000E+00  0.0000E+00  0.0000E+00  0.0000E+00
    -18.342  0.0000E+00  0.0000E+00  0.0000E+00  0.0000E+00  0.0000E+00  0.0000E+00  0.0000E+00  0.0000E+00  0.0000E+00  0.0000E+00  0.0000E+00  0.0000E+00  0.0000E+00  0.0000E+00  0.0000E+00  0.0000E+00  0.0000E+00  0.0000E+00
    -18.216  0.0000E+00  0.0000E+00  0.0000E+00  0.0000E+00  0.0000E+00  0.0000E+00  0.0000E+00  0.0000E+00  0.0000E+00  0.0000E+00  0.0000E+00  0.0000E+00  0.0000E+00  0.0000E+00  0.0000E+00  0.0000E+00  0.0000E+00  0.0000E+00
    -18.090  0.0000E+00  0.0000E+00  0.0000E+00  0.0000E+00  0.0000E+00  0.0000E+00  0.0000E+00  0.0000E+00  0.0000E+00  0.0000E+00  0.0000E+00  0.0000E+00  0.0000E+00  0.0000E+00  0.0000E+00  0.0000E+00  0.0000E+00  0.0000E+00
    -17.964  0.0000E+00  0.0000E+00  0.0000E+00  0.0000E+00  0.0000E+00  0.0000E+00  0.0000E+00  0.0000E+00  0.0000E+00  0.0000E+00  0.0000E+00  0.0000E+00  0.0000E+00  0.0000E+00  0.0000E+00  0.0000E+00  0.0000E+00  0.0000E+00
    -17.837  0.0000E+00  0.0000E+00  0.0000E+00  0.0000E+00  0.0000E+00  0.0000E+00  0.0000E+00  0.0000E+00  0.0000E+00  0.0000E+00  0.0000E+00  0.0000E+00  0.0000E+00  0.0000E+00  0.0000E+00  0.0000E+00  0.0000E+00  0.0000E+00
    -17.711  0.0000E+00  0.0000E+00  0.0000E+00  0.0000E+00  0.0000E+00  0.0000E+00  0.0000E+00  0.0000E+00  0.0000E+00  0.0000E+00  0.0000E+00  0.0000E+00  0.0000E+00  0.0000E+00  0.0000E+00  0.0000E+00  0.0000E+00  0.0000E+00
    -17.585  0.0000E+00  0.0000E+00  0.0000E+00  0.0000E+00  0.0000E+00  0.0000E+00  0.0000E+00  0.0000E+00  0.0000E+00  0.0000E+00  0.0000E+00  0.0000E+00  0.0000E+00  0.0000E+00  0.0000E+00  0.0000E+00  0.0000E+00  0.0000E+00
    -17.458  0.0000E+00  0.0000E+00  0.0000E+00  0.0000E+00  0.0000E+00  0.0000E+00  0.0000E+00  0.0000E+00  0.0000E+00  0.0000E+00  0.0000E+00  0.0000E+00  0.0000E+00  0.0000E+00  0.0000E+00  0.0000E+00  0.0000E+00  0.0000E+00
    -17.332  0.0000E+00  0.0000E+00  0.0000E+00  0.0000E+00  0.0000E+00  0.0000E+00  0.0000E+00  0.0000E+00  0.0000E+00  0.0000E+00  0.0000E+00  0.0000E+00  0.0000E+00  0.0000E+00  0.0000E+00  0.0000E+00  0.0000E+00  0.0000E+00
    -17.206  0.0000E+00  0.0000E+00  0.0000E+00  0.0000E+00  0.0000E+00  0.0000E+00  0.0000E+00  0.0000E+00  0.0000E+00  0.0000E+00  0.0000E+00  0.0000E+00  0.0000E+00  0.0000E+00  0.0000E+00  0.0000E+00  0.0000E+00  0.0000E+00
    -17.079  0.0000E+00  0.0000E+00  0.0000E+00  0.0000E+00  0.0000E+00  0.0000E+00  0.0000E+00  0.0000E+00  0.0000E+00  0.0000E+00  0.0000E+00  0.0000E+00  0.0000E+00  0.0000E+00  0.0000E+00  0.0000E+00  0.0000E+00  0.0000E+00
    -16.953  0.0000E+00  0.0000E+00  0.0000E+00  0.0000E+00  0.0000E+00  0.0000E+00  0.0000E+00  0.0000E+00  0.0000E+00  0.0000E+00  0.0000E+00  0.0000E+00  0.0000E+00  0.0000E+00  0.0000E+00  0.0000E+00  0.0000E+00  0.0000E+00
    -16.827  0.0000E+00  0.0000E+00  0.0000E+00  0.0000E+00  0.0000E+00  0.0000E+00  0.0000E+00  0.0000E+00  0.0000E+00  0.0000E+00  0.0000E+00  0.0000E+00  0.0000E+00  0.0000E+00  0.0000E+00  0.0000E+00  0.0000E+00  0.0000E+00
    -16.701  0.0000E+00  0.0000E+00  0.0000E+00  0.0000E+00  0.0000E+00  0.0000E+00  0.0000E+00  0.0000E+00  0.0000E+00  0.0000E+00  0.0000E+00  0.0000E+00  0.0000E+00  0.0000E+00  0.0000E+00  0.0000E+00  0.0000E+00  0.0000E+00
    -16.574  0.0000E+00  0.0000E+00  0.0000E+00  0.0000E+00  0.0000E+00  0.0000E+00  0.0000E+00  0.0000E+00  0.0000E+00  0.0000E+00  0.0000E+00  0.0000E+00  0.0000E+00  0.0000E+00  0.0000E+00  0.0000E+00  0.0000E+00  0.0000E+00
    -16.448  0.0000E+00  0.0000E+00  0.0000E+00  0.0000E+00  0.0000E+00  0.0000E+00  0.0000E+00  0.0000E+00  0.0000E+00  0.0000E+00  0.0000E+00  0.0000E+00  0.0000E+00  0.0000E+00  0.0000E+00  0.0000E+00  0.0000E+00  0.0000E+00
    -16.322  0.0000E+00  0.0000E+00  0.0000E+00  0.0000E+00  0.0000E+00  0.0000E+00  0.0000E+00  0.0000E+00  0.0000E+00  0.0000E+00  0.0000E+00  0.0000E+00  0.0000E+00  0.0000E+00  0.0000E+00  0.0000E+00  0.0000E+00  0.0000E+00
    -16.195  0.0000E+00  0.0000E+00  0.0000E+00  0.0000E+00  0.0000E+00  0.0000E+00  0.0000E+00  0.0000E+00  0.0000E+00  0.0000E+00  0.0000E+00  0.0000E+00  0.0000E+00  0.0000E+00  0.0000E+00  0.0000E+00  0.0000E+00  0.0000E+00
    -16.069  0.0000E+00  0.0000E+00  0.0000E+00  0.0000E+00  0.0000E+00  0.0000E+00  0.0000E+00  0.0000E+00  0.0000E+00  0.0000E+00  0.0000E+00  0.0000E+00  0.0000E+00  0.0000E+00  0.0000E+00  0.0000E+00  0.0000E+00  0.0000E+00
    -15.943  0.0000E+00  0.0000E+00  0.0000E+00  0.0000E+00  0.0000E+00  0.0000E+00  0.0000E+00  0.0000E+00  0.0000E+00  0.0000E+00  0.0000E+00  0.0000E+00  0.0000E+00  0.0000E+00  0.0000E+00  0.0000E+00  0.0000E+00  0.0000E+00