  16  16   1   0
  0.2105884E+02  0.4279901E-09  0.4279901E-09  0.1839446E-08  0.5000000E-15
  1.000000000000000E-004
  CAR 
 unknown system                          
     10.33393623    -27.34111553  301      5.60844505      1.00000000
    -27.341  0.0000E+00  0.0000E+00  0.0000E+00  0.0000E+00
    -27.216  0.0000E+00  0.0000E+00  0.0000E+00  0.0000E+00
    -27.090  0.0000E+00  0.0000E+00  0.0000E+00  0.0000E+00
    -26.964  0.0000E+00  0.0000E+00  0.0000E+00  0.0000E+00
    -26.839  0.0000E+00  0.0000E+00  0.0000E+00  0.0000E+00
    -26.713  0.0000E+00  0.0000E+00  0.0000E+00  0.0000E+00
    -26.588  0.0000E+00  0.0000E+00  0.0000E+00  0.0000E+00
    -26.462  0.0000E+00  0.0000E+00  0.0000E+00  0.0000E+00
    -26.336  0.0000E+00  0.0000E+00  0.0000E+00  0.0000E+00
    -26.211  0.0000E+00  0.0000E+00  0.0000E+00  0.0000E+00
    -26.085  0.6955E-02  0.6947E-02  0.8734E-03  0.8724E-03
    -25.960  0.7869E-01  0.7860E-01  0.1076E-01  0.1074E-01
    -25.834  0.9581E+00  0.9570E+00  0.1311E+00  0.1309E+00
    -25.709  0.1027E+02  0.1026E+02  0.1421E+01  0.1420E+01
    -25.583  0.4668E+02  0.4666E+02  0.7283E+01  0.7280E+01
    -25.457  0.3252E+02  0.3255E+02  0.1137E+02  0.1137E+02
    -25.332  0.4602E+01  0.4609E+01  0.1195E+02  0.1195E+02
    -25.206  0.2082E+00  0.2086E+00  0.1200E+02  0.1200E+02
    -25.081  0.0000E+00  0.0000E+00  0.1200E+02  0.1200E+02
    -24.955  0.0000E+00  0.0000E+00  0.1200E+02  0.1200E+02
    -24.829  0.0000E+00  0.0000E+00  0.1200E+02  0.1200E+02
    -24.704  0.0000E+00  0.0000E+00  0.1200E+02  0.1200E+02
    -24.578  0.0000E+00  0.0000E+00  0.1200E+02  0.1200E+02
    -24.453  0.0000E+00  0.0000E+00  0.1200E+02  0.1200E+02
    -24.327  0.0000E+00  0.0000E+00  0.1200E+02  0.1200E+02
    -24.202  0.0000E+00  0.0000E+00  0.1200E+02  0.1200E+02
    -24.076  0.0000E+00  0.0000E+00  0.1200E+02  0.1200E+02
    -23.950  0.0000E+00  0.0000E+00  0.1200E+02  0.1200E+02
    -23.825  0.0000E+00  0.0000E+00  0.1200E+02  0.1200E+02
    -23.699  0.0000E+00  0.0000E+00  0.1200E+02  0.1200E+02
    -23.574  0.0000E+00  0.0000E+00  0.1200E+02  0.1200E+02
    -23.448  0.0000E+00  0.0000E+00  0.1200E+02  0.1200E+02
    -23.322  0.0000E+00  0.0000E+00  0.1200E+02  0.1200E+02
    -23.197  0.0000E+00  0.0000E+00  0.1200E+02  0.1200E+02
    -23.071  0.0000E+00  0.0000E+00  0.1200E+02  0.1200E+02
    -22.946  0.0000E+00  0.0000E+00  0.1200E+02  0.1200E+02
    -22.820  0.0000E+00  0.0000E+00  0.1200E+02  0.1200E+02
    -22.695  0.0000E+00  0.0000E+00  0.1200E+02  0.1200E+02
    -22.569  0.0000E+00  0.0000E+00  0.1200E+02  0.1200E+02
    -22.443  0.0000E+00  0.0000E+00  0.1200E+02  0.1200E+02
    -22.318  0.0000E+00  0.0000E+00  0.1200E+02  0.1200E+02
    -22.192  0.0000E+00  0.0000E+00  0.1200E+02  0.1200E+02
    -22.067  0.0000E+00  0.0000E+00  0.1200E+02  0.1200E+02
    -21.941  0.0000E+00  0.0000E+00  0.1200E+02  0.1200E+02
    -21.815  0.0000E+00  0.0000E+00  0.1200E+02  0.1200E+02
    -21.690  0.0000E+00  0.0000E+00  0.1200E+02  0.1200E+02
    -21.564  0.0000E+00  0.0000E+00  0.1200E+02  0.1200E+02
    -21.439  0.0000E+00  0.0000E+00  0.1200E+02  0.1200E+02
    -21.313  0.0000E+00  0.0000E+00  0.1200E+02  0.1200E+02
    -21.188  0.0000E+00  0.0000E+00  0.1200E+02  0.1200E+02
    -21.062  0.0000E+00  0.0000E+00  0.1200E+02  0.1200E+02
    -20.936  0.0000E+00  0.0000E+00  0.1200E+02  0.1200E+02
    -20.811  0.0000E+00  0.0000E+00  0.1200E+02  0.1200E+02
    -20.685  0.0000E+00  0.0000E+00  0.1200E+02  0.1200E+02
    -20.560  0.0000E+00  0.0000E+00  0.1200E+02  0.1200E+02
    -20.434  0.0000E+00  0.0000E+00  0.1200E+02  0.1200E+02
    -20.308  0.0000E+00  0.0000E+00  0.1200E+02  0.1200E+02
    -20.183  0.0000E+00  0.0000E+00  0.1200E+02  0.1200E+02
    -20.057  0.0000E+00  0.0000E+00  0.1200E+02  0.1200E+02
    -19.932  0.0000E+00  0.0000E+00  0.1200E+02  0.1200E+02
    -19.806  0.0000E+00  0.0000E+00  0.1200E+02  0.1200E+02
    -19.681  0.0000E+00  0.0000E+00  0.1200E+02  0.1200E+02
    -19.555  0.0000E+00  0.0000E+00  0.1200E+02  0.1200E+02
    -19.429  0.0000E+00  0.0000E+00  0.1200E+02  0.1200E+02
    -19.304  0.0000E+00  0.0000E+00  0.1200E+02  0.1200E+02
    -19.178  0.0000E+00  0.0000E+00  0.1200E+02  0.1200E+02
    -19.053  0.0000E+00  0.0000E+00  0.1200E+02  0.1200E+02
    -18.927  0.0000E+00  0.0000E+00  0.1200E+02  0.1200E+02
    -18.801  0.0000E+00  0.0000E+00  0.1200E+02  0.1200E+02
    -18.676  0.0000E+00  0.0000E+00  0.1200E+02  0.1200E+02
    -18.550  0.0000E+00  0.0000E+00  0.1200E+02  0.1200E+02
    -18.425  0.0000E+00  0.0000E+00  0.1200E+02  0.1200E+02
    -18.299  0.0000E+00  0.0000E+00  0.1200E+02  0.1200E+02
    -18.174  0.0000E+00  0.0000E+00  0.1200E+02  0.1200E+02
    -18.048  0.0000E+00  0.0000E+00  0.1200E+02  0.1200E+02
    -17.922  0.0000E+00  0.0000E+00  0.1200E+02  0.1200E+02
    -17.797  0.0000E+00  0.0000E+00  0.1200E+02  0.1200E+02
    -17.671  0.0000E+00  0.0000E+00  0.1200E+02  0.1200E+02
    -17.546  0.0000E+00  0.0000E+00  0.1200E+02  0.1200E+02
    -17.420  0.0000E+00  0.0000E+00  0.1200E+02  0.1200E+02
    -17.294  0.0000E+00  0.0000E+00  0.1200E+02  0.1200E+02
    -17.169  0.0000E+00  0.0000E+00  0.1200E+02  0.1200E+02
    -17.043  0.0000E+00  0.0000E+00  0.1200E+02  0.1200E+02
    -16.918  0.0000E+00  0.0000E+00  0.1200E+02  0.1200E+02
    -16.792  0.0000E+00  0.0000E+00  0.1200E+02  0.1200E+02
    -16.667  0.0000E+00  0.0000E+00  0.1200E+02  0.1200E+02
    -16.541  0.0000E+00  0.0000E+00  0.1200E+02  0.1200E+02
    -16.415  0.0000E+00  0.0000E+00  0.1200E+02  0.1200E+02
    -16.290  0.0000E+00  0.0000E+00  0.1200E+02  0.1200E+02
    -16.164  0.0000E+00  0.0000E+00  0.1200E+02  0.1200E+02
    -16.039  0.0000E+00  0.0000E+00  0.1200E+02  0.1200E+02
    -15.913  0.0000E+00  0.0000E+00  0.1200E+02  0.1200E+02
    -15.787  0.0000E+00  0.0000E+00  0.1200E+02  0.1200E+02
    -15.662  0.0000E+00  0.0000E+00  0.1200E+02  0.1200E+02
    -15.536  0.0000E+00  0.0000E+00  0.1200E+02  0.1200E+02
    -15.411  0.0000E+00  0.0000E+00  0.1200E+02  0.1200E+02
    -15.285  0.0000E+00  0.0000E+00  0.1200E+02  0.1200E+02
    -15.160  0.0000E+00  0.0000E+00  0.1200E+02  0.1200E+02
    -15.034  0.0000E+00  0.0000E+00  0.1200E+02  0.1200E+02
    -14.908  0.0000E+00  0.0000E+00  0.1200E+02  0.1200E+02
    -14.783  0.0000E+00  0.0000E+00  0.1200E+02  0.1200E+02
    -14.657  0.0000E+00  0.0000E+00  0.1200E+02  0.1200E+02
    -14.532  0.0000E+00  0.0000E+00  0.1200E+02  0.1200E+02
    -14.406  0.0000E+00  0.0000E+00  0.1200E+02  0.1200E+02
    -14.280  0.0000E+00  0.0000E+00  0.1200E+02  0.1200E+02
    -14.155  0.0000E+00  0.0000E+00  0.1200E+02  0.1200E+02
    -14.029  0.0000E+00  0.0000E+00  0.1200E+02  0.1200E+02
    -13.904  0.0000E+00  0.0000E+00  0.1200E+02  0.1200E+02
    -13.778  0.0000E+00  0.0000E+00  0.1200E+02  0.1200E+02
    -13.653  0.0000E+00  0.0000E+00  0.1200E+02  0.1200E+02
    -13.527  0.0000E+00  0.0000E+00  0.1200E+02  0.1200E+02
    -13.401  0.0000E+00  0.0000E+00  0.1200E+02  0.1200E+02
    -13.276  0.0000E+00  0.0000E+00  0.1200E+02  0.1200E+02
    -13.150  0.0000E+00  0.0000E+00  0.1200E+02  0.1200E+02
    -13.025  0.0000E+00  0.0000E+00  0.1200E+02  0.1200E+02
    -12.899  0.0000E+00  0.0000E+00  0.1200E+02  0.1200E+02
    -12.773  0.0000E+00  0.0000E+00  0.1200E+02  0.1200E+02
    -12.648  0.0000E+00  0.0000E+00  0.1200E+02  0.1200E+02
    -12.522  0.0000E+00  0.0000E+00  0.1200E+02  0.1200E+02
    -12.397  0.0000E+00  0.0000E+00  0.1200E+02  0.1200E+02
    -12.271  0.0000E+00  0.0000E+00  0.1200E+02  0.1200E+02
    -12.146  0.0000E+00  0.0000E+00  0.1200E+02  0.1200E+02
    -12.020  0.0000E+00  0.0000E+00  0.1200E+02  0.1200E+02
    -11.894  0.0000E+00  0.0000E+00  0.1200E+02  0.1200E+02
    -11.769  0.0000E+00  0.0000E+00  0.1200E+02  0.1200E+02
    -11.643  0.0000E+00  0.0000E+00  0.1200E+02  0.1200E+02
    -11.518  0.0000E+00  0.0000E+00  0.1200E+02  0.1200E+02
    -11.392  0.0000E+00  0.0000E+00  0.1200E+02  0.1200E+02
    -11.266  0.0000E+00  0.0000E+00  0.1200E+02  0.1200E+02
    -11.141  0.0000E+00  0.0000E+00  0.1200E+02  0.1200E+02
    -11.015  0.0000E+00  0.0000E+00  0.1200E+02  0.1200E+02
    -10.890  0.0000E+00  0.0000E+00  0.1200E+02  0.1200E+02
    -10.764  0.0000E+00  0.0000E+00  0.1200E+02  0.1200E+02
    -10.639  0.0000E+00  0.0000E+00  0.1200E+02  0.1200E+02
    -10.513  0.0000E+00  0.0000E+00  0.1200E+02  0.1200E+02
    -10.387  0.0000E+00  0.0000E+00  0.1200E+02  0.1200E+02
    -10.262  0.0000E+00  0.0000E+00  0.1200E+02  0.1200E+02
    -10.136  0.0000E+00  0.0000E+00  0.1200E+02  0.1200E+02
    -10.011  0.0000E+00  0.0000E+00  0.1200E+02  0.1200E+02
     -9.885  0.0000E+00  0.0000E+00  0.1200E+02  0.1200E+02
     -9.759  0.0000E+00  0.0000E+00  0.1200E+02  0.1200E+02
     -9.634  0.0000E+00  0.0000E+00  0.1200E+02  0.1200E+02
     -9.508  0.0000E+00  0.0000E+00  0.1200E+02  0.1200E+02
     -9.383  0.0000E+00  0.0000E+00  0.1200E+02  0.1200E+02
     -9.257  0.0000E+00  0.0000E+00  0.1200E+02  0.1200E+02
     -9.132  0.0000E+00  0.0000E+00  0.1200E+02  0.1200E+02
     -9.006  0.0000E+00  0.0000E+00  0.1200E+02  0.1200E+02
     -8.880  0.0000E+00  0.0000E+00  0.1200E+02  0.1200E+02
     -8.755  0.0000E+00  0.0000E+00  0.1200E+02  0.1200E+02
     -8.629  0.0000E+00  0.0000E+00  0.1200E+02  0.1200E+02
     -8.504  0.0000E+00  0.0000E+00  0.1200E+02  0.1200E+02
     -8.378  0.0000E+00  0.0000E+00  0.1200E+02  0.1200E+02
     -8.252  0.0000E+00  0.0000E+00  0.1200E+02  0.1200E+02
     -8.127  0.0000E+00  0.0000E+00  0.1200E+02  0.1200E+02
     -8.001  0.0000E+00  0.0000E+00  0.1200E+02  0.1200E+02
     -7.876  0.0000E+00  0.0000E+00  0.1200E+02  0.1200E+02
     -7.750  0.0000E+00  0.0000E+00  0.1200E+02  0.1200E+02
     -7.625  0.0000E+00  0.0000E+00  0.1200E+02  0.1200E+02
     -7.499  0.0000E+00  0.0000E+00  0.1200E+02  0.1200E+02
     -7.373  0.0000E+00  0.0000E+00  0.1200E+02  0.1200E+02
     -7.248  0.0000E+00  0.0000E+00  0.1200E+02  0.1200E+02
     -7.122  0.0000E+00  0.0000E+00  0.1200E+02  0.1200E+02
     -6.997  0.0000E+00  0.0000E+00  0.1200E+02  0.1200E+02
     -6.871  0.0000E+00  0.0000E+00  0.1200E+02  0.1200E+02
     -6.745  0.0000E+00  0.0000E+00  0.1200E+02  0.1200E+02
     -6.620  0.0000E+00  0.0000E+00  0.1200E+02  0.1200E+02
     -6.494  0.0000E+00  0.0000E+00  0.1200E+02  0.1200E+02
     -6.369  0.0000E+00  0.0000E+00  0.1200E+02  0.1200E+02
     -6.243  0.0000E+00  0.0000E+00  0.1200E+02  0.1200E+02
     -6.118  0.0000E+00  0.0000E+00  0.1200E+02  0.1200E+02
     -5.992  0.0000E+00  0.0000E+00  0.1200E+02  0.1200E+02
     -5.866  0.0000E+00  0.0000E+00  0.1200E+02  0.1200E+02
     -5.741  0.0000E+00  0.0000E+00  0.1200E+02  0.1200E+02
     -5.615  0.0000E+00  0.0000E+00  0.1200E+02  0.1200E+02
     -5.490  0.0000E+00  0.0000E+00  0.1200E+02  0.1200E+02
     -5.364  0.0000E+00  0.0000E+00  0.1200E+02  0.1200E+02
     -5.238  0.0000E+00  0.0000E+00  0.1200E+02  0.1200E+02
     -5.113  0.0000E+00  0.0000E+00  0.1200E+02  0.1200E+02
     -4.987  0.0000E+00  0.0000E+00  0.1200E+02  0.1200E+02
     -4.862  0.0000E+00  0.0000E+00  0.1200E+02  0.1200E+02
     -4.736  0.0000E+00  0.0000E+00  0.1200E+02  0.1200E+02
     -4.611  0.0000E+00  0.0000E+00  0.1200E+02  0.1200E+02
     -4.485  0.0000E+00  0.0000E+00  0.1200E+02  0.1200E+02
     -4.359  0.0000E+00  0.0000E+00  0.1200E+02  0.1200E+02
     -4.234  0.0000E+00  0.0000E+00  0.1200E+02  0.1200E+02
     -4.108  0.9303E-06  0.9299E-06  0.1200E+02  0.1200E+02
     -3.983  0.5553E-04  0.5550E-04  0.1200E+02  0.1200E+02
     -3.857  0.6691E-03  0.6688E-03  0.1200E+02  0.1200E+02
     -3.731  0.7985E-02  0.7982E-02  0.1200E+02  0.1200E+02
     -3.606  0.7100E-01  0.7098E-01  0.1201E+02  0.1201E+02
     -3.480  0.2617E+00  0.2617E+00  0.1204E+02  0.1204E+02
     -3.355  0.4687E+00  0.4687E+00  0.1210E+02  0.1210E+02
     -3.229  0.5941E+00  0.5941E+00  0.1218E+02  0.1218E+02
     -3.103  0.7192E+00  0.7192E+00  0.1227E+02  0.1227E+02
     -2.978  0.7963E+00  0.7963E+00  0.1237E+02  0.1237E+02
     -2.852  0.8340E+00  0.8340E+00  0.1247E+02  0.1247E+02
     -2.727  0.9519E+00  0.9518E+00  0.1259E+02  0.1259E+02
     -2.601  0.1123E+01  0.1123E+01  0.1273E+02  0.1273E+02
     -2.476  0.1131E+01  0.1131E+01  0.1287E+02  0.1287E+02
     -2.350  0.1061E+01  0.1061E+01  0.1301E+02  0.1301E+02
     -2.224  0.1407E+01  0.1407E+01  0.1319E+02  0.1319E+02
     -2.099  0.1468E+01  0.1468E+01  0.1337E+02  0.1337E+02
     -1.973  0.1354E+01  0.1354E+01  0.1354E+02  0.1354E+02
     -1.848  0.1509E+01  0.1509E+01  0.1373E+02  0.1373E+02
     -1.722  0.1614E+01  0.1614E+01  0.1393E+02  0.1393E+02
     -1.596  0.1683E+01  0.1683E+01  0.1414E+02  0.1414E+02
     -1.471  0.1976E+01  0.1976E+01  0.1439E+02  0.1439E+02
     -1.345  0.1670E+01  0.1670E+01  0.1460E+02  0.1460E+02
     -1.220  0.1504E+01  0.1504E+01  0.1479E+02  0.1479E+02
     -1.094  0.1999E+01  0.1998E+01  0.1504E+02  0.1504E+02
     -0.969  0.2098E+01  0.2098E+01  0.1531E+02  0.1531E+02
     -0.843  0.2129E+01  0.2129E+01  0.1557E+02  0.1557E+02
     -0.717  0.1908E+01  0.1908E+01  0.1581E+02  0.1581E+02
     -0.592  0.1995E+01  0.1995E+01  0.1607E+02  0.1607E+02
     -0.466  0.2047E+01  0.2047E+01  0.1632E+02  0.1632E+02
     -0.341  0.2386E+01  0.2386E+01  0.1662E+02  0.1662E+02
     -0.215  0.2704E+01  0.2704E+01  0.1696E+02  0.1696E+02
     -0.089  0.2451E+01  0.2451E+01  0.1727E+02  0.1727E+02
      0.036  0.2385E+01  0.2385E+01  0.1757E+02  0.1757E+02
      0.162  0.2241E+01  0.2241E+01  0.1785E+02  0.1785E+02
      0.287  0.2413E+01  0.2413E+01  0.1816E+02  0.1816E+02
      0.413  0.2382E+01  0.2382E+01  0.1846E+02  0.1846E+02
      0.538  0.2952E+01  0.2952E+01  0.1883E+02  0.1883E+02
      0.664  0.2804E+01  0.2804E+01  0.1918E+02  0.1918E+02
      0.790  0.2449E+01  0.2449E+01  0.1949E+02  0.1949E+02
      0.915  0.2579E+01  0.2578E+01  0.1981E+02  0.1981E+02
      1.041  0.3069E+01  0.3069E+01  0.2020E+02  0.2020E+02
      1.166  0.3211E+01  0.3211E+01  0.2060E+02  0.2060E+02
      1.292  0.3574E+01  0.3574E+01  0.2105E+02  0.2105E+02
      1.418  0.3485E+01  0.3486E+01  0.2149E+02  0.2149E+02
      1.543  0.2421E+01  0.2421E+01  0.2179E+02  0.2179E+02
      1.669  0.1942E+01  0.1941E+01  0.2204E+02  0.2204E+02
      1.794  0.2298E+01  0.2298E+01  0.2233E+02  0.2233E+02
      1.920  0.2936E+01  0.2936E+01  0.2270E+02  0.2270E+02
      2.045  0.2845E+01  0.2845E+01  0.2306E+02  0.2306E+02
      2.171  0.2812E+01  0.2812E+01  0.2341E+02  0.2341E+02
      2.297  0.2559E+01  0.2559E+01  0.2373E+02  0.2373E+02
      2.422  0.3542E+01  0.3541E+01  0.2418E+02  0.2418E+02
      2.548  0.3711E+01  0.3712E+01  0.2464E+02  0.2464E+02
      2.673  0.3179E+01  0.3179E+01  0.2504E+02  0.2504E+02
      2.799  0.3320E+01  0.3319E+01  0.2546E+02  0.2546E+02
      2.925  0.3197E+01  0.3198E+01  0.2586E+02  0.2586E+02
      3.050  0.3416E+01  0.3415E+01  0.2629E+02  0.2629E+02
      3.176  0.4217E+01  0.4217E+01  0.2682E+02  0.2682E+02
      3.301  0.4987E+01  0.4987E+01  0.2745E+02  0.2745E+02
      3.427  0.5014E+01  0.5014E+01  0.2808E+02  0.2808E+02
      3.552  0.5042E+01  0.5042E+01  0.2871E+02  0.2871E+02
      3.678  0.4587E+01  0.4588E+01  0.2929E+02  0.2929E+02
      3.804  0.4279E+01  0.4279E+01  0.2983E+02  0.2983E+02
      3.929  0.4356E+01  0.4356E+01  0.3038E+02  0.3038E+02
      4.055  0.5848E+01  0.5847E+01  0.3111E+02  0.3111E+02
      4.180  0.6381E+01  0.6380E+01  0.3191E+02  0.3191E+02
      4.306  0.6675E+01  0.6674E+01  0.3275E+02  0.3275E+02
      4.432  0.6658E+01  0.6659E+01  0.3359E+02  0.3359E+02
      4.557  0.5122E+01  0.5123E+01  0.3423E+02  0.3423E+02
      4.683  0.4668E+01  0.4668E+01  0.3482E+02  0.3482E+02
      4.808  0.4899E+01  0.4899E+01  0.3544E+02  0.3544E+02
      4.934  0.4387E+01  0.4388E+01  0.3599E+02  0.3599E+02
      5.059  0.4124E+01  0.4125E+01  0.3651E+02  0.3651E+02
      5.185  0.3153E+01  0.3154E+01  0.3691E+02  0.3691E+02
      5.311  0.2336E+01  0.2336E+01  0.3720E+02  0.3720E+02
      5.436  0.2470E+01  0.2469E+01  0.3751E+02  0.3751E+02
      5.562  0.2838E+01  0.2838E+01  0.3787E+02  0.3787E+02
      5.687  0.2751E+01  0.2751E+01  0.3821E+02  0.3821E+02
      5.813  0.2841E+01  0.2841E+01  0.3857E+02  0.3857E+02
      5.939  0.3278E+01  0.3278E+01  0.3898E+02  0.3898E+02
      6.064  0.4346E+01  0.4345E+01  0.3953E+02  0.3953E+02
      6.190  0.4346E+01  0.4346E+01  0.4008E+02  0.4008E+02
      6.315  0.5235E+01  0.5235E+01  0.4073E+02  0.4073E+02
      6.441  0.5370E+01  0.5371E+01  0.4141E+02  0.4141E+02
      6.566  0.4913E+01  0.4917E+01  0.4203E+02  0.4203E+02
      6.692  0.4762E+01  0.4775E+01  0.4263E+02  0.4263E+02
      6.818  0.5578E+01  0.5591E+01  0.4333E+02  0.4333E+02
      6.943  0.6525E+01  0.6530E+01  0.4415E+02  0.4415E+02
      7.069  0.6767E+01  0.6797E+01  0.4500E+02  0.4501E+02
      7.194  0.7115E+01  0.7159E+01  0.4589E+02  0.4591E+02
      7.320  0.7614E+01  0.7605E+01  0.4685E+02  0.4686E+02
      7.446  0.6769E+01  0.6829E+01  0.4770E+02  0.4772E+02
      7.571  0.6056E+01  0.6116E+01  0.4846E+02  0.4849E+02
      7.697  0.5657E+01  0.5480E+01  0.4918E+02  0.4918E+02
      7.822  0.5438E+01  0.5206E+01  0.4986E+02  0.4984E+02
      7.948  0.5340E+01  0.5199E+01  0.5053E+02  0.5049E+02
      8.073  0.4772E+01  0.4603E+01  0.5113E+02  0.5107E+02
      8.199  0.3363E+01  0.3652E+01  0.5155E+02  0.5153E+02
      8.325  0.2193E+01  0.2271E+01  0.5183E+02  0.5181E+02
      8.450  0.9392E+00  0.1086E+01  0.5195E+02  0.5195E+02
      8.576  0.3235E+00  0.2975E+00  0.5199E+02  0.5199E+02
      8.701  0.5754E-01  0.6311E-01  0.5200E+02  0.5200E+02
      8.827  0.4800E-02  0.1027E-01  0.5200E+02  0.5200E+02
      8.953  0.0000E+00  0.9306E-03  0.5200E+02  0.5200E+02
      9.078  0.0000E+00  0.0000E+00  0.5200E+02  0.5200E+02
      9.204  0.0000E+00  0.0000E+00  0.5200E+02  0.5200E+02
      9.329  0.0000E+00  0.0000E+00  0.5200E+02  0.5200E+02
      9.455  0.0000E+00  0.0000E+00  0.5200E+02  0.5200E+02
      9.580  0.0000E+00  0.0000E+00  0.5200E+02  0.5200E+02
      9.706  0.0000E+00  0.0000E+00  0.5200E+02  0.5200E+02
      9.832  0.0000E+00  0.0000E+00  0.5200E+02  0.5200E+02
      9.957  0.0000E+00  0.0000E+00  0.5200E+02  0.5200E+02
     10.083  0.0000E+00  0.0000E+00  0.5200E+02  0.5200E+02
     10.208  0.0000E+00  0.0000E+00  0.5200E+02  0.5200E+02
     10.334  0.0000E+00  0.0000E+00  0.5200E+02  0.5200E+02
     10.33393623    -27.34111553  301      5.60844505      1.00000000
    -27.341  0.0000E+00  0.0000E+00  0.0000E+00  0.0000E+00  0.0000E+00  0.0000E+00  0.0000E+00  0.0000E+00  0.0000E+00  0.0000E+00  0.0000E+00  0.0000E+00  0.0000E+00  0.0000E+00  0.0000E+00  0.0000E+00  0.0000E+00  0.0000E+00
    -27.216  0.0000E+00  0.0000E+00  0.0000E+00  0.0000E+00  0.0000E+00  0.0000E+00  0.0000E+00  0.0000E+00  0.0000E+00  0.0000E+00  0.0000E+00  0.0000E+00  0.0000E+00  0.0000E+00  0.0000E+00  0.0000E+00  0.0000E+00  0.0000E+00
    -27.090  0.0000E+00  0.0000E+00  0.0000E+00  0.0000E+00  0.0000E+00  0.0000E+00  0.0000E+00  0.0000E+00  0.0000E+00  0.0000E+00  0.0000E+00  0.0000E+00  0.0000E+00  0.0000E+00  0.0000E+00  0.0000E+00  0.0000E+00  0.0000E+00
    -26.964  0.0000E+00  0.0000E+00  0.0000E+00  0.0000E+00  0.0000E+00  0.0000E+00  0.0000E+00  0.0000E+00  0.0000E+00  0.0000E+00  0.0000E+00  0.0000E+00  0.0000E+00  0.0000E+00  0.0000E+00  0.0000E+00  0.0000E+00  0.0000E+00
    -26.839  0.0000E+00  0.0000E+00  0.0000E+00  0.0000E+00  0.0000E+00  0.0000E+00  0.0000E+00  0.0000E+00  0.0000E+00  0.0000E+00  0.0000E+00  0.0000E+00  0.0000E+00  0.0000E+00  0.0000E+00  0.0000E+00  0.0000E+00  0.0000E+00
    -26.713  0.0000E+00  0.0000E+00  0.0000E+00  0.0000E+00  0.0000E+00  0.0000E+00  0.0000E+00  0.0000E+00  0.0000E+00  0.0000E+00  0.0000E+00  0.0000E+00  0.0000E+00  0.0000E+00  0.0000E+00  0.0000E+00  0.0000E+00  0.0000E+00
    -26.588  0.0000E+00  0.0000E+00  0.0000E+00  0.0000E+00  0.0000E+00  0.0000E+00  0.0000E+00  0.0000E+00  0.0000E+00  0.0000E+00  0.0000E+00  0.0000E+00  0.0000E+00  0.0000E+00  0.0000E+00  0.0000E+00  0.0000E+00  0.0000E+00
    -26.462  0.0000E+00  0.0000E+00  0.0000E+00  0.0000E+00  0.0000E+00  0.0000E+00  0.0000E+00  0.0000E+00  0.0000E+00  0.0000E+00  0.0000E+00  0.0000E+00  0.0000E+00  0.0000E+00  0.0000E+00  0.0000E+00  0.0000E+00  0.0000E+00
    -26.336  0.0000E+00  0.0000E+00  0.0000E+00  0.0000E+00  0.0000E+00  0.0000E+00  0.0000E+00  0.0000E+00  0.0000E+00  0.0000E+00  0.0000E+00  0.0000E+00  0.0000E+00  0.0000E+00  0.0000E+00  0.0000E+00  0.0000E+00  0.0000E+00
    -26.211  0.0000E+00  0.0000E+00  0.0000E+00  0.0000E+00  0.0000E+00  0.0000E+00  0.0000E+00  0.0000E+00  0.0000E+00  0.0000E+00  0.0000E+00  0.0000E+00  0.0000E+00  0.0000E+00  0.0000E+00  0.0000E+00  0.0000E+00  0.0000E+00
    -26.085  0.4293E-09  0.4292E-09  0.6968E-03  0.6961E-03  0.3123E-03  0.3116E-03  0.6968E-03  0.6961E-03  0.6993E-11  0.6974E-11  0.5734E-09  0.5736E-09  0.3227E-09  0.3224E-09  0.5734E-09  0.5736E-09  0.1705E-09  0.1703E-09
    -25.960  0.4859E-08  0.4857E-08  0.7883E-02  0.7875E-02  0.3535E-02  0.3527E-02  0.7883E-02  0.7875E-02  0.7911E-10  0.7889E-10  0.6487E-08  0.6489E-08  0.3652E-08  0.3649E-08  0.6487E-08  0.6489E-08  0.1929E-08  0.1927E-08
    -25.834  0.5938E-07  0.5935E-07  0.9585E-01  0.9576E-01  0.4330E-01  0.4322E-01  0.9585E-01  0.9576E-01  0.9616E-09  0.9590E-09  0.7888E-07  0.7890E-07  0.4468E-07  0.4464E-07  0.7888E-07  0.7890E-07  0.2346E-07  0.2343E-07
    -25.709  0.6626E-06  0.6624E-06  0.1012E+01  0.1011E+01  0.4967E+00  0.4957E+00  0.1012E+01  0.1011E+01  0.1011E-07  0.1009E-07  0.8323E-06  0.8327E-06  0.5045E-06  0.5041E-06  0.8323E-06  0.8327E-06  0.2480E-06  0.2478E-06
    -25.583  0.3751E-05  0.3753E-05  0.4124E+01  0.4124E+01  0.3200E+01  0.3197E+01  0.4124E+01  0.4124E+01  0.4058E-07  0.4050E-07  0.3393E-05  0.3397E-05  0.3018E-05  0.3019E-05  0.3393E-05  0.3397E-05  0.1016E-05  0.1016E-05
    -25.457  0.3524E-05  0.3532E-05  0.2272E+01  0.2273E+01  0.3434E+01  0.3437E+01  0.2272E+01  0.2273E+01  0.2190E-07  0.2188E-07  0.1873E-05  0.1876E-05  0.2992E-05  0.2997E-05  0.1873E-05  0.1876E-05  0.5599E-06  0.5601E-06
    -25.332  0.5659E-06  0.5677E-06  0.2752E+00  0.2755E+00  0.5784E+00  0.5795E+00  0.2752E+00  0.2755E+00  0.2633E-08  0.2631E-08  0.2274E-06  0.2279E-06  0.4881E-06  0.4896E-06  0.2274E-06  0.2279E-06  0.6769E-07  0.6774E-07
    -25.206  0.4491E-07  0.4507E-07  0.4485E-06  0.4484E-06  0.5107E-01  0.5117E-01  0.4485E-06  0.4484E-06  0.4699E-12  0.4587E-12  0.2150E-09  0.2151E-09  0.4099E-07  0.4113E-07  0.2150E-09  0.2151E-09  0.1620E-11  0.1613E-11
    -25.081  0.0000E+00  0.0000E+00  0.0000E+00  0.0000E+00  0.0000E+00  0.0000E+00  0.0000E+00  0.0000E+00  0.0000E+00  0.0000E+00  0.0000E+00  0.0000E+00  0.0000E+00  0.0000E+00  0.0000E+00  0.0000E+00  0.0000E+00  0.0000E+00
    -24.955  0.0000E+00  0.0000E+00  0.0000E+00  0.0000E+00  0.0000E+00  0.0000E+00  0.0000E+00  0.0000E+00  0.0000E+00  0.0000E+00  0.0000E+00  0.0000E+00  0.0000E+00  0.0000E+00  0.0000E+00  0.0000E+00  0.0000E+00  0.0000E+00
    -24.829  0.0000E+00  0.0000E+00  0.0000E+00  0.0000E+00  0.0000E+00  0.0000E+00  0.0000E+00  0.0000E+00  0.0000E+00  0.0000E+00  0.0000E+00  0.0000E+00  0.0000E+00  0.0000E+00  0.0000E+00  0.0000E+00  0.0000E+00  0.0000E+00
    -24.704  0.0000E+00  0.0000E+00  0.0000E+00  0.0000E+00  0.0000E+00  0.0000E+00  0.0000E+00  0.0000E+00  0.0000E+00  0.0000E+00  0.0000E+00  0.0000E+00  0.0000E+00  0.0000E+00  0.0000E+00  0.0000E+00  0.0000E+00  0.0000E+00
    -24.578  0.0000E+00  0.0000E+00  0.0000E+00  0.0000E+00  0.0000E+00  0.0000E+00  0.0000E+00  0.0000E+00  0.0000E+00  0.0000E+00  0.0000E+00  0.0000E+00  0.0000E+00  0.0000E+00  0.0000E+00  0.0000E+00  0.0000E+00  0.0000E+00
    -24.453  0.0000E+00  0.0000E+00  0.0000E+00  0.0000E+00  0.0000E+00  0.0000E+00  0.0000E+00  0.0000E+00  0.0000E+00  0.0000E+00  0.0000E+00  0.0000E+00  0.0000E+00  0.0000E+00  0.0000E+00  0.0000E+00  0.0000E+00  0.0000E+00
    -24.327  0.0000E+00  0.0000E+00  0.0000E+00  0.0000E+00  0.0000E+00  0.0000E+00  0.0000E+00  0.0000E+00  0.0000E+00  0.0000E+00  0.0000E+00  0.0000E+00  0.0000E+00  0.0000E+00  0.0000E+00  0.0000E+00  0.0000E+00  0.0000E+00
    -24.202  0.0000E+00  0.0000E+00  0.0000E+00  0.0000E+00  0.0000E+00  0.0000E+00  0.0000E+00  0.0000E+00  0.0000E+00  0.0000E+00  0.0000E+00  0.0000E+00  0.0000E+00  0.0000E+00  0.0000E+00  0.0000E+00  0.0000E+00  0.0000E+00
    -24.076  0.0000E+00  0.0000E+00  0.0000E+00  0.0000E+00  0.0000E+00  0.0000E+00  0.0000E+00  0.0000E+00  0.0000E+00  0.0000E+00  0.0000E+00  0.0000E+00  0.0000E+00  0.0000E+00  0.0000E+00  0.0000E+00  0.0000E+00  0.0000E+00
    -23.950  0.0000E+00  0.0000E+00  0.0000E+00  0.0000E+00  0.0000E+00  0.0000E+00  0.0000E+00  0.0000E+00  0.0000E+00  0.0000E+00  0.0000E+00  0.0000E+00  0.0000E+00  0.0000E+00  0.0000E+00  0.0000E+00  0.0000E+00  0.0000E+00
    -23.825  0.0000E+00  0.0000E+00  0.0000E+00  0.0000E+00  0.0000E+00  0.0000E+00  0.0000E+00  0.0000E+00  0.0000E+00  0.0000E+00  0.0000E+00  0.0000E+00  0.0000E+00  0.0000E+00  0.0000E+00  0.0000E+00  0.0000E+00  0.0000E+00
    -23.699  0.0000E+00  0.0000E+00  0.0000E+00  0.0000E+00  0.0000E+00  0.0000E+00  0.0000E+00  0.0000E+00  0.0000E+00  0.0000E+00  0.0000E+00  0.0000E+00  0.0000E+00  0.0000E+00  0.0000E+00  0.0000E+00  0.0000E+00  0.0000E+00
    -23.574  0.0000E+00  0.0000E+00  0.0000E+00  0.0000E+00  0.0000E+00  0.0000E+00  0.0000E+00  0.0000E+00  0.0000E+00  0.0000E+00  0.0000E+00  0.0000E+00  0.0000E+00  0.0000E+00  0.0000E+00  0.0000E+00  0.0000E+00  0.0000E+00
    -23.448  0.0000E+00  0.0000E+00  0.0000E+00  0.0000E+00  0.0000E+00  0.0000E+00  0.0000E+00  0.0000E+00  0.0000E+00  0.0000E+00  0.0000E+00  0.0000E+00  0.0000E+00  0.0000E+00  0.0000E+00  0.0000E+00  0.0000E+00  0.0000E+00
    -23.322  0.0000E+00  0.0000E+00  0.0000E+00  0.0000E+00  0.0000E+00  0.0000E+00  0.0000E+00  0.0000E+00  0.0000E+00  0.0000E+00  0.0000E+00  0.0000E+00  0.0000E+00  0.0000E+00  0.0000E+00  0.0000E+00  0.0000E+00  0.0000E+00
    -23.197  0.0000E+00  0.0000E+00  0.0000E+00  0.0000E+00  0.0000E+00  0.0000E+00  0.0000E+00  0.0000E+00  0.0000E+00  0.0000E+00  0.0000E+00  0.0000E+00  0.0000E+00  0.0000E+00  0.0000E+00  0.0000E+00  0.0000E+00  0.0000E+00
    -23.071  0.0000E+00  0.0000E+00  0.0000E+00  0.0000E+00  0.0000E+00  0.0000E+00  0.0000E+00  0.0000E+00  0.0000E+00  0.0000E+00  0.0000E+00  0.0000E+00  0.0000E+00  0.0000E+00  0.0000E+00  0.0000E+00  0.0000E+00  0.0000E+00
    -22.946  0.0000E+00  0.0000E+00  0.0000E+00  0.0000E+00  0.0000E+00  0.0000E+00  0.0000E+00  0.0000E+00  0.0000E+00  0.0000E+00  0.0000E+00  0.0000E+00  0.0000E+00  0.0000E+00  0.0000E+00  0.0000E+00  0.0000E+00  0.0000E+00
    -22.820  0.0000E+00  0.0000E+00  0.0000E+00  0.0000E+00  0.0000E+00  0.0000E+00  0.0000E+00  0.0000E+00  0.0000E+00  0.0000E+00  0.0000E+00  0.0000E+00  0.0000E+00  0.0000E+00  0.0000E+00  0.0000E+00  0.0000E+00  0.0000E+00
    -22.695  0.0000E+00  0.0000E+00  0.0000E+00  0.0000E+00  0.0000E+00  0.0000E+00  0.0000E+00  0.0000E+00  0.0000E+00  0.0000E+00  0.0000E+00  0.0000E+00  0.0000E+00  0.0000E+00  0.0000E+00  0.0000E+00  0.0000E+00  0.0000E+00
    -22.569  0.0000E+00  0.0000E+00  0.0000E+00  0.0000E+00  0.0000E+00  0.0000E+00  0.0000E+00  0.0000E+00  0.0000E+00  0.0000E+00  0.0000E+00  0.0000E+00  0.0000E+00  0.0000E+00  0.0000E+00  0.0000E+00  0.0000E+00  0.0000E+00
    -22.443  0.0000E+00  0.0000E+00  0.0000E+00  0.0000E+00  0.0000E+00  0.0000E+00  0.0000E+00  0.0000E+00  0.0000E+00  0.0000E+00  0.0000E+00  0.0000E+00  0.0000E+00  0.0000E+00  0.0000E+00  0.0000E+00  0.0000E+00  0.0000E+00
    -22.318  0.0000E+00  0.0000E+00  0.0000E+00  0.0000E+00  0.0000E+00  0.0000E+00  0.0000E+00  0.0000E+00  0.0000E+00  0.0000E+00  0.0000E+00  0.0000E+00  0.0000E+00  0.0000E+00  0.0000E+00  0.0000E+00  0.0000E+00  0.0000E+00
    -22.192  0.0000E+00  0.0000E+00  0.0000E+00  0.0000E+00  0.0000E+00  0.0000E+00  0.0000E+00  0.0000E+00  0.0000E+00  0.0000E+00  0.0000E+00  0.0000E+00  0.0000E+00  0.0000E+00  0.0000E+00  0.0000E+00  0.0000E+00  0.0000E+00
    -22.067  0.0000E+00  0.0000E+00  0.0000E+00  0.0000E+00  0.0000E+00  0.0000E+00  0.0000E+00  0.0000E+00  0.0000E+00  0.0000E+00  0.0000E+00  0.0000E+00  0.0000E+00  0.0000E+00  0.0000E+00  0.0000E+00  0.0000E+00  0.0000E+00
    -21.941  0.0000E+00  0.0000E+00  0.0000E+00  0.0000E+00  0.0000E+00  0.0000E+00  0.0000E+00  0.0000E+00  0.0000E+00  0.0000E+00  0.0000E+00  0.0000E+00  0.0000E+00  0.0000E+00  0.0000E+00  0.0000E+00  0.0000E+00  0.0000E+00
    -21.815  0.0000E+00  0.0000E+00  0.0000E+00  0.0000E+00  0.0000E+00  0.0000E+00  0.0000E+00  0.0000E+00  0.0000E+00  0.0000E+00  0.0000E+00  0.0000E+00  0.0000E+00  0.0000E+00  0.0000E+00  0.0000E+00  0.0000E+00  0.0000E+00
    -21.690  0.0000E+00  0.0000E+00  0.0000E+00  0.0000E+00  0.0000E+00  0.0000E+00  0.0000E+00  0.0000E+00  0.0000E+00  0.0000E+00  0.0000E+00  0.0000E+00  0.0000E+00  0.0000E+00  0.0000E+00  0.0000E+00  0.0000E+00  0.0000E+00
    -21.564  0.0000E+00  0.0000E+00  0.0000E+00  0.0000E+00  0.0000E+00  0.0000E+00  0.0000E+00  0.0000E+00  0.0000E+00  0.0000E+00  0.0000E+00  0.0000E+00  0.0000E+00  0.0000E+00  0.0000E+00  0.0000E+00  0.0000E+00  0.0000E+00
    -21.439  0.0000E+00  0.0000E+00  0.0000E+00  0.0000E+00  0.0000E+00  0.0000E+00  0.0000E+00  0.0000E+00  0.0000E+00  0.0000E+00  0.0000E+00  0.0000E+00  0.0000E+00  0.0000E+00  0.0000E+00  0.0000E+00  0.0000E+00  0.0000E+00
    -21.313  0.0000E+00  0.0000E+00  0.0000E+00  0.0000E+00  0.0000E+00  0.0000E+00  0.0000E+00  0.0000E+00  0.0000E+00  0.0000E+00  0.0000E+00  0.0000E+00  0.0000E+00  0.0000E+00  0.0000E+00  0.0000E+00  0.0000E+00  0.0000E+00
    -21.188  0.0000E+00  0.0000E+00  0.0000E+00  0.0000E+00  0.0000E+00  0.0000E+00  0.0000E+00  0.0000E+00  0.0000E+00  0.0000E+00  0.0000E+00  0.0000E+00  0.0000E+00  0.0000E+00  0.0000E+00  0.0000E+00  0.0000E+00  0.0000E+00
    -21.062  0.0000E+00  0.0000E+00  0.0000E+00  0.0000E+00  0.0000E+00  0.0000E+00  0.0000E+00  0.0000E+00  0.0000E+00  0.0000E+00  0.0000E+00  0.0000E+00  0.0000E+00  0.0000E+00  0.0000E+00  0.0000E+00  0.0000E+00  0.0000E+00