  16  16   1   0
  0.2165481E+02  0.4319900E-09  0.4319900E-09  0.1856637E-08  0.5000000E-15
  1.000000000000000E-004
  CAR 
 unknown system                          
      9.97368773    -27.64669486  301      5.38407833      1.00000000
    -27.647  0.0000E+00  0.0000E+00  0.0000E+00  0.0000E+00
    -27.521  0.0000E+00  0.0000E+00  0.0000E+00  0.0000E+00
    -27.396  0.0000E+00  0.0000E+00  0.0000E+00  0.0000E+00
    -27.270  0.0000E+00  0.0000E+00  0.0000E+00  0.0000E+00
    -27.145  0.0000E+00  0.0000E+00  0.0000E+00  0.0000E+00
    -27.020  0.0000E+00  0.0000E+00  0.0000E+00  0.0000E+00
    -26.894  0.0000E+00  0.0000E+00  0.0000E+00  0.0000E+00
    -26.769  0.0000E+00  0.0000E+00  0.0000E+00  0.0000E+00
    -26.643  0.0000E+00  0.0000E+00  0.0000E+00  0.0000E+00
    -26.518  0.0000E+00  0.0000E+00  0.0000E+00  0.0000E+00
    -26.393  0.7256E-02  0.7224E-02  0.9099E-03  0.9059E-03
    -26.267  0.8177E-01  0.8141E-01  0.1116E-01  0.1111E-01
    -26.142  0.9916E+00  0.9874E+00  0.1355E+00  0.1349E+00
    -26.016  0.1056E+02  0.1052E+02  0.1460E+01  0.1454E+01
    -25.891  0.4712E+02  0.4706E+02  0.7368E+01  0.7356E+01
    -25.766  0.3203E+02  0.3211E+02  0.1139E+02  0.1138E+02
    -25.640  0.4480E+01  0.4500E+01  0.1195E+02  0.1195E+02
    -25.515  0.2017E+00  0.2028E+00  0.1200E+02  0.1200E+02
    -25.389  0.0000E+00  0.0000E+00  0.1200E+02  0.1200E+02
    -25.264  0.0000E+00  0.0000E+00  0.1200E+02  0.1200E+02
    -25.139  0.0000E+00  0.0000E+00  0.1200E+02  0.1200E+02
    -25.013  0.0000E+00  0.0000E+00  0.1200E+02  0.1200E+02
    -24.888  0.0000E+00  0.0000E+00  0.1200E+02  0.1200E+02
    -24.762  0.0000E+00  0.0000E+00  0.1200E+02  0.1200E+02
    -24.637  0.0000E+00  0.0000E+00  0.1200E+02  0.1200E+02
    -24.512  0.0000E+00  0.0000E+00  0.1200E+02  0.1200E+02
    -24.386  0.0000E+00  0.0000E+00  0.1200E+02  0.1200E+02
    -24.261  0.0000E+00  0.0000E+00  0.1200E+02  0.1200E+02
    -24.135  0.0000E+00  0.0000E+00  0.1200E+02  0.1200E+02
    -24.010  0.0000E+00  0.0000E+00  0.1200E+02  0.1200E+02
    -23.885  0.0000E+00  0.0000E+00  0.1200E+02  0.1200E+02
    -23.759  0.0000E+00  0.0000E+00  0.1200E+02  0.1200E+02
    -23.634  0.0000E+00  0.0000E+00  0.1200E+02  0.1200E+02
    -23.508  0.0000E+00  0.0000E+00  0.1200E+02  0.1200E+02
    -23.383  0.0000E+00  0.0000E+00  0.1200E+02  0.1200E+02
    -23.258  0.0000E+00  0.0000E+00  0.1200E+02  0.1200E+02
    -23.132  0.0000E+00  0.0000E+00  0.1200E+02  0.1200E+02
    -23.007  0.0000E+00  0.0000E+00  0.1200E+02  0.1200E+02
    -22.881  0.0000E+00  0.0000E+00  0.1200E+02  0.1200E+02
    -22.756  0.0000E+00  0.0000E+00  0.1200E+02  0.1200E+02
    -22.631  0.0000E+00  0.0000E+00  0.1200E+02  0.1200E+02
    -22.505  0.0000E+00  0.0000E+00  0.1200E+02  0.1200E+02
    -22.380  0.0000E+00  0.0000E+00  0.1200E+02  0.1200E+02
    -22.254  0.0000E+00  0.0000E+00  0.1200E+02  0.1200E+02
    -22.129  0.0000E+00  0.0000E+00  0.1200E+02  0.1200E+02
    -22.004  0.0000E+00  0.0000E+00  0.1200E+02  0.1200E+02
    -21.878  0.0000E+00  0.0000E+00  0.1200E+02  0.1200E+02
    -21.753  0.0000E+00  0.0000E+00  0.1200E+02  0.1200E+02
    -21.627  0.0000E+00  0.0000E+00  0.1200E+02  0.1200E+02
    -21.502  0.0000E+00  0.0000E+00  0.1200E+02  0.1200E+02
    -21.377  0.0000E+00  0.0000E+00  0.1200E+02  0.1200E+02
    -21.251  0.0000E+00  0.0000E+00  0.1200E+02  0.1200E+02
    -21.126  0.0000E+00  0.0000E+00  0.1200E+02  0.1200E+02
    -21.000  0.0000E+00  0.0000E+00  0.1200E+02  0.1200E+02
    -20.875  0.0000E+00  0.0000E+00  0.1200E+02  0.1200E+02
    -20.750  0.0000E+00  0.0000E+00  0.1200E+02  0.1200E+02
    -20.624  0.0000E+00  0.0000E+00  0.1200E+02  0.1200E+02
    -20.499  0.0000E+00  0.0000E+00  0.1200E+02  0.1200E+02
    -20.373  0.0000E+00  0.0000E+00  0.1200E+02  0.1200E+02
    -20.248  0.0000E+00  0.0000E+00  0.1200E+02  0.1200E+02
    -20.123  0.0000E+00  0.0000E+00  0.1200E+02  0.1200E+02
    -19.997  0.0000E+00  0.0000E+00  0.1200E+02  0.1200E+02
    -19.872  0.0000E+00  0.0000E+00  0.1200E+02  0.1200E+02
    -19.746  0.0000E+00  0.0000E+00  0.1200E+02  0.1200E+02
    -19.621  0.0000E+00  0.0000E+00  0.1200E+02  0.1200E+02
    -19.496  0.0000E+00  0.0000E+00  0.1200E+02  0.1200E+02
    -19.370  0.0000E+00  0.0000E+00  0.1200E+02  0.1200E+02
    -19.245  0.0000E+00  0.0000E+00  0.1200E+02  0.1200E+02
    -19.119  0.0000E+00  0.0000E+00  0.1200E+02  0.1200E+02
    -18.994  0.0000E+00  0.0000E+00  0.1200E+02  0.1200E+02
    -18.869  0.0000E+00  0.0000E+00  0.1200E+02  0.1200E+02
    -18.743  0.0000E+00  0.0000E+00  0.1200E+02  0.1200E+02
    -18.618  0.0000E+00  0.0000E+00  0.1200E+02  0.1200E+02
    -18.492  0.0000E+00  0.0000E+00  0.1200E+02  0.1200E+02
    -18.367  0.0000E+00  0.0000E+00  0.1200E+02  0.1200E+02
    -18.242  0.0000E+00  0.0000E+00  0.1200E+02  0.1200E+02
    -18.116  0.0000E+00  0.0000E+00  0.1200E+02  0.1200E+02
    -17.991  0.0000E+00  0.0000E+00  0.1200E+02  0.1200E+02
    -17.865  0.0000E+00  0.0000E+00  0.1200E+02  0.1200E+02
    -17.740  0.0000E+00  0.0000E+00  0.1200E+02  0.1200E+02
    -17.615  0.0000E+00  0.0000E+00  0.1200E+02  0.1200E+02
    -17.489  0.0000E+00  0.0000E+00  0.1200E+02  0.1200E+02
    -17.364  0.0000E+00  0.0000E+00  0.1200E+02  0.1200E+02
    -17.238  0.0000E+00  0.0000E+00  0.1200E+02  0.1200E+02
    -17.113  0.0000E+00  0.0000E+00  0.1200E+02  0.1200E+02
    -16.988  0.0000E+00  0.0000E+00  0.1200E+02  0.1200E+02
    -16.862  0.0000E+00  0.0000E+00  0.1200E+02  0.1200E+02
    -16.737  0.0000E+00  0.0000E+00  0.1200E+02  0.1200E+02
    -16.611  0.0000E+00  0.0000E+00  0.1200E+02  0.1200E+02
    -16.486  0.0000E+00  0.0000E+00  0.1200E+02  0.1200E+02
    -16.361  0.0000E+00  0.0000E+00  0.1200E+02  0.1200E+02
    -16.235  0.0000E+00  0.0000E+00  0.1200E+02  0.1200E+02
    -16.110  0.0000E+00  0.0000E+00  0.1200E+02  0.1200E+02
    -15.984  0.0000E+00  0.0000E+00  0.1200E+02  0.1200E+02
    -15.859  0.0000E+00  0.0000E+00  0.1200E+02  0.1200E+02
    -15.734  0.0000E+00  0.0000E+00  0.1200E+02  0.1200E+02
    -15.608  0.0000E+00  0.0000E+00  0.1200E+02  0.1200E+02
    -15.483  0.0000E+00  0.0000E+00  0.1200E+02  0.1200E+02
    -15.357  0.0000E+00  0.0000E+00  0.1200E+02  0.1200E+02
    -15.232  0.0000E+00  0.0000E+00  0.1200E+02  0.1200E+02
    -15.107  0.0000E+00  0.0000E+00  0.1200E+02  0.1200E+02
    -14.981  0.0000E+00  0.0000E+00  0.1200E+02  0.1200E+02
    -14.856  0.0000E+00  0.0000E+00  0.1200E+02  0.1200E+02
    -14.730  0.0000E+00  0.0000E+00  0.1200E+02  0.1200E+02
    -14.605  0.0000E+00  0.0000E+00  0.1200E+02  0.1200E+02
    -14.480  0.0000E+00  0.0000E+00  0.1200E+02  0.1200E+02
    -14.354  0.0000E+00  0.0000E+00  0.1200E+02  0.1200E+02
    -14.229  0.0000E+00  0.0000E+00  0.1200E+02  0.1200E+02
    -14.103  0.0000E+00  0.0000E+00  0.1200E+02  0.1200E+02
    -13.978  0.0000E+00  0.0000E+00  0.1200E+02  0.1200E+02
    -13.853  0.0000E+00  0.0000E+00  0.1200E+02  0.1200E+02
    -13.727  0.0000E+00  0.0000E+00  0.1200E+02  0.1200E+02
    -13.602  0.0000E+00  0.0000E+00  0.1200E+02  0.1200E+02
    -13.476  0.0000E+00  0.0000E+00  0.1200E+02  0.1200E+02
    -13.351  0.0000E+00  0.0000E+00  0.1200E+02  0.1200E+02
    -13.226  0.0000E+00  0.0000E+00  0.1200E+02  0.1200E+02
    -13.100  0.0000E+00  0.0000E+00  0.1200E+02  0.1200E+02
    -12.975  0.0000E+00  0.0000E+00  0.1200E+02  0.1200E+02
    -12.849  0.0000E+00  0.0000E+00  0.1200E+02  0.1200E+02
    -12.724  0.0000E+00  0.0000E+00  0.1200E+02  0.1200E+02
    -12.599  0.0000E+00  0.0000E+00  0.1200E+02  0.1200E+02
    -12.473  0.0000E+00  0.0000E+00  0.1200E+02  0.1200E+02
    -12.348  0.0000E+00  0.0000E+00  0.1200E+02  0.1200E+02
    -12.222  0.0000E+00  0.0000E+00  0.1200E+02  0.1200E+02
    -12.097  0.0000E+00  0.0000E+00  0.1200E+02  0.1200E+02
    -11.972  0.0000E+00  0.0000E+00  0.1200E+02  0.1200E+02
    -11.846  0.0000E+00  0.0000E+00  0.1200E+02  0.1200E+02
    -11.721  0.0000E+00  0.0000E+00  0.1200E+02  0.1200E+02
    -11.595  0.0000E+00  0.0000E+00  0.1200E+02  0.1200E+02
    -11.470  0.0000E+00  0.0000E+00  0.1200E+02  0.1200E+02
    -11.345  0.0000E+00  0.0000E+00  0.1200E+02  0.1200E+02
    -11.219  0.0000E+00  0.0000E+00  0.1200E+02  0.1200E+02
    -11.094  0.0000E+00  0.0000E+00  0.1200E+02  0.1200E+02
    -10.968  0.0000E+00  0.0000E+00  0.1200E+02  0.1200E+02
    -10.843  0.0000E+00  0.0000E+00  0.1200E+02  0.1200E+02
    -10.718  0.0000E+00  0.0000E+00  0.1200E+02  0.1200E+02
    -10.592  0.0000E+00  0.0000E+00  0.1200E+02  0.1200E+02
    -10.467  0.0000E+00  0.0000E+00  0.1200E+02  0.1200E+02
    -10.341  0.0000E+00  0.0000E+00  0.1200E+02  0.1200E+02
    -10.216  0.0000E+00  0.0000E+00  0.1200E+02  0.1200E+02
    -10.091  0.0000E+00  0.0000E+00  0.1200E+02  0.1200E+02
     -9.965  0.0000E+00  0.0000E+00  0.1200E+02  0.1200E+02
     -9.840  0.0000E+00  0.0000E+00  0.1200E+02  0.1200E+02
     -9.714  0.0000E+00  0.0000E+00  0.1200E+02  0.1200E+02
     -9.589  0.0000E+00  0.0000E+00  0.1200E+02  0.1200E+02
     -9.464  0.0000E+00  0.0000E+00  0.1200E+02  0.1200E+02
     -9.338  0.0000E+00  0.0000E+00  0.1200E+02  0.1200E+02
     -9.213  0.0000E+00  0.0000E+00  0.1200E+02  0.1200E+02
     -9.087  0.0000E+00  0.0000E+00  0.1200E+02  0.1200E+02
     -8.962  0.0000E+00  0.0000E+00  0.1200E+02  0.1200E+02
     -8.837  0.0000E+00  0.0000E+00  0.1200E+02  0.1200E+02
     -8.711  0.0000E+00  0.0000E+00  0.1200E+02  0.1200E+02
     -8.586  0.0000E+00  0.0000E+00  0.1200E+02  0.1200E+02
     -8.460  0.0000E+00  0.0000E+00  0.1200E+02  0.1200E+02
     -8.335  0.0000E+00  0.0000E+00  0.1200E+02  0.1200E+02
     -8.209  0.0000E+00  0.0000E+00  0.1200E+02  0.1200E+02
     -8.084  0.0000E+00  0.0000E+00  0.1200E+02  0.1200E+02
     -7.959  0.0000E+00  0.0000E+00  0.1200E+02  0.1200E+02
     -7.833  0.0000E+00  0.0000E+00  0.1200E+02  0.1200E+02
     -7.708  0.0000E+00  0.0000E+00  0.1200E+02  0.1200E+02
     -7.582  0.0000E+00  0.0000E+00  0.1200E+02  0.1200E+02
     -7.457  0.0000E+00  0.0000E+00  0.1200E+02  0.1200E+02
     -7.332  0.0000E+00  0.0000E+00  0.1200E+02  0.1200E+02
     -7.206  0.0000E+00  0.0000E+00  0.1200E+02  0.1200E+02
     -7.081  0.0000E+00  0.0000E+00  0.1200E+02  0.1200E+02
     -6.955  0.0000E+00  0.0000E+00  0.1200E+02  0.1200E+02
     -6.830  0.0000E+00  0.0000E+00  0.1200E+02  0.1200E+02
     -6.705  0.0000E+00  0.0000E+00  0.1200E+02  0.1200E+02
     -6.579  0.0000E+00  0.0000E+00  0.1200E+02  0.1200E+02
     -6.454  0.0000E+00  0.0000E+00  0.1200E+02  0.1200E+02
     -6.328  0.0000E+00  0.0000E+00  0.1200E+02  0.1200E+02
     -6.203  0.0000E+00  0.0000E+00  0.1200E+02  0.1200E+02
     -6.078  0.0000E+00  0.0000E+00  0.1200E+02  0.1200E+02
     -5.952  0.0000E+00  0.0000E+00  0.1200E+02  0.1200E+02
     -5.827  0.0000E+00  0.0000E+00  0.1200E+02  0.1200E+02
     -5.701  0.0000E+00  0.0000E+00  0.1200E+02  0.1200E+02
     -5.576  0.0000E+00  0.0000E+00  0.1200E+02  0.1200E+02
     -5.451  0.0000E+00  0.0000E+00  0.1200E+02  0.1200E+02
     -5.325  0.0000E+00  0.0000E+00  0.1200E+02  0.1200E+02
     -5.200  0.0000E+00  0.0000E+00  0.1200E+02  0.1200E+02
     -5.074  0.0000E+00  0.0000E+00  0.1200E+02  0.1200E+02
     -4.949  0.0000E+00  0.0000E+00  0.1200E+02  0.1200E+02
     -4.824  0.0000E+00  0.0000E+00  0.1200E+02  0.1200E+02
     -4.698  0.0000E+00  0.0000E+00  0.1200E+02  0.1200E+02
     -4.573  0.0000E+00  0.0000E+00  0.1200E+02  0.1200E+02
     -4.447  0.0000E+00  0.0000E+00  0.1200E+02  0.1200E+02
     -4.322  0.0000E+00  0.0000E+00  0.1200E+02  0.1200E+02
     -4.197  0.6728E-06  0.6726E-06  0.1200E+02  0.1200E+02
     -4.071  0.3815E-04  0.3815E-04  0.1200E+02  0.1200E+02
     -3.946  0.5001E-03  0.5000E-03  0.1200E+02  0.1200E+02
     -3.820  0.5977E-02  0.5976E-02  0.1200E+02  0.1200E+02
     -3.695  0.5693E-01  0.5693E-01  0.1201E+02  0.1201E+02
     -3.570  0.2408E+00  0.2408E+00  0.1204E+02  0.1204E+02
     -3.444  0.4557E+00  0.4557E+00  0.1210E+02  0.1210E+02
     -3.319  0.6041E+00  0.6041E+00  0.1217E+02  0.1217E+02
     -3.193  0.7242E+00  0.7242E+00  0.1226E+02  0.1226E+02
     -3.068  0.8119E+00  0.8118E+00  0.1236E+02  0.1236E+02
     -2.943  0.8525E+00  0.8524E+00  0.1247E+02  0.1247E+02
     -2.817  0.9733E+00  0.9733E+00  0.1259E+02  0.1259E+02
     -2.692  0.1148E+01  0.1148E+01  0.1274E+02  0.1274E+02
     -2.566  0.1144E+01  0.1144E+01  0.1288E+02  0.1288E+02
     -2.441  0.1107E+01  0.1107E+01  0.1302E+02  0.1302E+02
     -2.316  0.1447E+01  0.1447E+01  0.1320E+02  0.1320E+02
     -2.190  0.1491E+01  0.1491E+01  0.1339E+02  0.1339E+02
     -2.065  0.1385E+01  0.1385E+01  0.1356E+02  0.1356E+02
     -1.939  0.1566E+01  0.1566E+01  0.1376E+02  0.1376E+02
     -1.814  0.1640E+01  0.1640E+01  0.1397E+02  0.1397E+02
     -1.689  0.1782E+01  0.1782E+01  0.1419E+02  0.1419E+02
     -1.563  0.1973E+01  0.1973E+01  0.1444E+02  0.1444E+02
     -1.438  0.1627E+01  0.1627E+01  0.1464E+02  0.1464E+02
     -1.312  0.1614E+01  0.1614E+01  0.1484E+02  0.1484E+02
     -1.187  0.2095E+01  0.2095E+01  0.1511E+02  0.1511E+02
     -1.062  0.2131E+01  0.2131E+01  0.1537E+02  0.1537E+02
     -0.936  0.2130E+01  0.2130E+01  0.1564E+02  0.1564E+02
     -0.811  0.1934E+01  0.1934E+01  0.1588E+02  0.1588E+02
     -0.685  0.2070E+01  0.2070E+01  0.1614E+02  0.1614E+02
     -0.560  0.2144E+01  0.2144E+01  0.1641E+02  0.1641E+02
     -0.435  0.2630E+01  0.2629E+01  0.1674E+02  0.1674E+02
     -0.309  0.2670E+01  0.2670E+01  0.1708E+02  0.1708E+02
     -0.184  0.2453E+01  0.2453E+01  0.1739E+02  0.1739E+02
     -0.058  0.2345E+01  0.2345E+01  0.1768E+02  0.1768E+02
      0.067  0.2353E+01  0.2353E+01  0.1798E+02  0.1798E+02
      0.192  0.2408E+01  0.2408E+01  0.1828E+02  0.1828E+02
      0.318  0.2647E+01  0.2647E+01  0.1861E+02  0.1861E+02
      0.443  0.3055E+01  0.3056E+01  0.1900E+02  0.1900E+02
      0.569  0.2677E+01  0.2677E+01  0.1933E+02  0.1933E+02
      0.694  0.2509E+01  0.2509E+01  0.1965E+02  0.1965E+02
      0.819  0.2911E+01  0.2911E+01  0.2001E+02  0.2001E+02
      0.945  0.3233E+01  0.3233E+01  0.2042E+02  0.2042E+02
      1.070  0.3402E+01  0.3402E+01  0.2085E+02  0.2085E+02
      1.196  0.3718E+01  0.3718E+01  0.2131E+02  0.2131E+02
      1.321  0.2936E+01  0.2936E+01  0.2168E+02  0.2168E+02
      1.446  0.1985E+01  0.1985E+01  0.2193E+02  0.2193E+02
      1.572  0.2145E+01  0.2144E+01  0.2220E+02  0.2220E+02
      1.697  0.2762E+01  0.2762E+01  0.2255E+02  0.2255E+02
      1.823  0.2876E+01  0.2877E+01  0.2291E+02  0.2291E+02
      1.948  0.2908E+01  0.2908E+01  0.2327E+02  0.2327E+02
      2.073  0.2479E+01  0.2479E+01  0.2358E+02  0.2358E+02
      2.199  0.3199E+01  0.3198E+01  0.2399E+02  0.2399E+02
      2.324  0.3750E+01  0.3751E+01  0.2446E+02  0.2446E+02
      2.450  0.3409E+01  0.3410E+01  0.2489E+02  0.2489E+02
      2.575  0.3247E+01  0.3247E+01  0.2529E+02  0.2529E+02
      2.700  0.3244E+01  0.3244E+01  0.2570E+02  0.2570E+02
      2.826  0.3231E+01  0.3231E+01  0.2611E+02  0.2611E+02
      2.951  0.3867E+01  0.3865E+01  0.2659E+02  0.2659E+02
      3.077  0.4676E+01  0.4676E+01  0.2718E+02  0.2718E+02
      3.202  0.5145E+01  0.5146E+01  0.2782E+02  0.2782E+02
      3.327  0.5131E+01  0.5130E+01  0.2847E+02  0.2847E+02
      3.453  0.4900E+01  0.4900E+01  0.2908E+02  0.2908E+02
      3.578  0.4397E+01  0.4398E+01  0.2964E+02  0.2964E+02
      3.704  0.4263E+01  0.4263E+01  0.3017E+02  0.3017E+02
      3.829  0.5359E+01  0.5359E+01  0.3085E+02  0.3084E+02
      3.954  0.6493E+01  0.6492E+01  0.3166E+02  0.3166E+02
      4.080  0.6597E+01  0.6596E+01  0.3249E+02  0.3249E+02
      4.205  0.6936E+01  0.6936E+01  0.3336E+02  0.3336E+02
      4.331  0.5603E+01  0.5604E+01  0.3406E+02  0.3406E+02
      4.456  0.4841E+01  0.4842E+01  0.3467E+02  0.3467E+02
      4.581  0.5023E+01  0.5023E+01  0.3530E+02  0.3530E+02
      4.707  0.4624E+01  0.4625E+01  0.3588E+02  0.3588E+02
      4.832  0.4244E+01  0.4245E+01  0.3642E+02  0.3642E+02
      4.958  0.3454E+01  0.3455E+01  0.3685E+02  0.3685E+02
      5.083  0.2528E+01  0.2529E+01  0.3717E+02  0.3717E+02
      5.208  0.2531E+01  0.2531E+01  0.3749E+02  0.3749E+02
      5.334  0.2930E+01  0.2930E+01  0.3785E+02  0.3785E+02
      5.459  0.2821E+01  0.2821E+01  0.3821E+02  0.3821E+02
      5.585  0.2972E+01  0.2972E+01  0.3858E+02  0.3858E+02
      5.710  0.3541E+01  0.3541E+01  0.3903E+02  0.3903E+02
      5.835  0.4554E+01  0.4554E+01  0.3960E+02  0.3960E+02
      5.961  0.4593E+01  0.4593E+01  0.4018E+02  0.4017E+02
      6.086  0.5517E+01  0.5517E+01  0.4087E+02  0.4087E+02
      6.212  0.5348E+01  0.5349E+01  0.4154E+02  0.4154E+02
      6.337  0.4980E+01  0.4985E+01  0.4216E+02  0.4216E+02
      6.462  0.4929E+01  0.4941E+01  0.4278E+02  0.4279E+02
      6.588  0.6073E+01  0.6083E+01  0.4355E+02  0.4355E+02
      6.713  0.6758E+01  0.6764E+01  0.4439E+02  0.4440E+02
      6.839  0.6893E+01  0.6926E+01  0.4526E+02  0.4527E+02
      6.964  0.7420E+01  0.7488E+01  0.4619E+02  0.4621E+02
      7.089  0.7780E+01  0.7832E+01  0.4717E+02  0.4719E+02
      7.215  0.6754E+01  0.6762E+01  0.4802E+02  0.4804E+02
      7.340  0.6153E+01  0.6090E+01  0.4879E+02  0.4881E+02
      7.466  0.5457E+01  0.5722E+01  0.4948E+02  0.4952E+02
      7.591  0.5408E+01  0.5553E+01  0.5015E+02  0.5022E+02
      7.716  0.5309E+01  0.5250E+01  0.5082E+02  0.5088E+02
      7.842  0.4341E+01  0.4097E+01  0.5137E+02  0.5140E+02
      7.967  0.3141E+01  0.2839E+01  0.5176E+02  0.5175E+02
      8.093  0.1387E+01  0.1376E+01  0.5194E+02  0.5193E+02
      8.218  0.3995E+00  0.4805E+00  0.5199E+02  0.5199E+02
      8.343  0.8049E-01  0.7729E-01  0.5200E+02  0.5200E+02
      8.469  0.1213E-01  0.6041E-02  0.5200E+02  0.5200E+02
      8.594  0.9371E-03  0.0000E+00  0.5200E+02  0.5200E+02
      8.720  0.0000E+00  0.0000E+00  0.5200E+02  0.5200E+02
      8.845  0.0000E+00  0.0000E+00  0.5200E+02  0.5200E+02
      8.970  0.0000E+00  0.0000E+00  0.5200E+02  0.5200E+02
      9.096  0.0000E+00  0.0000E+00  0.5200E+02  0.5200E+02
      9.221  0.0000E+00  0.0000E+00  0.5200E+02  0.5200E+02
      9.347  0.0000E+00  0.0000E+00  0.5200E+02  0.5200E+02
      9.472  0.0000E+00  0.0000E+00  0.5200E+02  0.5200E+02
      9.597  0.0000E+00  0.0000E+00  0.5200E+02  0.5200E+02
      9.723  0.0000E+00  0.0000E+00  0.5200E+02  0.5200E+02
      9.848  0.0000E+00  0.0000E+00  0.5200E+02  0.5200E+02
      9.974  0.0000E+00  0.0000E+00  0.5200E+02  0.5200E+02
      9.97368773    -27.64669486  301      5.38407833      1.00000000
    -27.647  0.0000E+00  0.0000E+00  0.0000E+00  0.0000E+00  0.0000E+00  0.0000E+00  0.0000E+00  0.0000E+00  0.0000E+00  0.0000E+00  0.0000E+00  0.0000E+00  0.0000E+00  0.0000E+00  0.0000E+00  0.0000E+00  0.0000E+00  0.0000E+00
    -27.521  0.0000E+00  0.0000E+00  0.0000E+00  0.0000E+00  0.0000E+00  0.0000E+00  0.0000E+00  0.0000E+00  0.0000E+00  0.0000E+00  0.0000E+00  0.0000E+00  0.0000E+00  0.0000E+00  0.0000E+00  0.0000E+00  0.0000E+00  0.0000E+00
    -27.396  0.0000E+00  0.0000E+00  0.0000E+00  0.0000E+00  0.0000E+00  0.0000E+00  0.0000E+00  0.0000E+00  0.0000E+00  0.0000E+00  0.0000E+00  0.0000E+00  0.0000E+00  0.0000E+00  0.0000E+00  0.0000E+00  0.0000E+00  0.0000E+00
    -27.270  0.0000E+00  0.0000E+00  0.0000E+00  0.0000E+00  0.0000E+00  0.0000E+00  0.0000E+00  0.0000E+00  0.0000E+00  0.0000E+00  0.0000E+00  0.0000E+00  0.0000E+00  0.0000E+00  0.0000E+00  0.0000E+00  0.0000E+00  0.0000E+00
    -27.145  0.0000E+00  0.0000E+00  0.0000E+00  0.0000E+00  0.0000E+00  0.0000E+00  0.0000E+00  0.0000E+00  0.0000E+00  0.0000E+00  0.0000E+00  0.0000E+00  0.0000E+00  0.0000E+00  0.0000E+00  0.0000E+00  0.0000E+00  0.0000E+00
    -27.020  0.0000E+00  0.0000E+00  0.0000E+00  0.0000E+00  0.0000E+00  0.0000E+00  0.0000E+00  0.0000E+00  0.0000E+00  0.0000E+00  0.0000E+00  0.0000E+00  0.0000E+00  0.0000E+00  0.0000E+00  0.0000E+00  0.0000E+00  0.0000E+00
    -26.894  0.0000E+00  0.0000E+00  0.0000E+00  0.0000E+00  0.0000E+00  0.0000E+00  0.0000E+00  0.0000E+00  0.0000E+00  0.0000E+00  0.0000E+00  0.0000E+00  0.0000E+00  0.0000E+00  0.0000E+00  0.0000E+00  0.0000E+00  0.0000E+00
    -26.769  0.0000E+00  0.0000E+00  0.0000E+00  0.0000E+00  0.0000E+00  0.0000E+00  0.0000E+00  0.0000E+00  0.0000E+00  0.0000E+00  0.0000E+00  0.0000E+00  0.0000E+00  0.0000E+00  0.0000E+00  0.0000E+00  0.0000E+00  0.0000E+00
    -26.643  0.0000E+00  0.0000E+00  0.0000E+00  0.0000E+00  0.0000E+00  0.0000E+00  0.0000E+00  0.0000E+00  0.0000E+00  0.0000E+00  0.0000E+00  0.0000E+00  0.0000E+00  0.0000E+00  0.0000E+00  0.0000E+00  0.0000E+00  0.0000E+00
    -26.518  0.0000E+00  0.0000E+00  0.0000E+00  0.0000E+00  0.0000E+00  0.0000E+00  0.0000E+00  0.0000E+00  0.0000E+00  0.0000E+00  0.0000E+00  0.0000E+00  0.0000E+00  0.0000E+00  0.0000E+00  0.0000E+00  0.0000E+00  0.0000E+00
    -26.393  0.3621E-09  0.3607E-09  0.7249E-03  0.7219E-03  0.3300E-03  0.3282E-03  0.7249E-03  0.7219E-03  0.5300E-11  0.5274E-11  0.4725E-09  0.4709E-09  0.2676E-09  0.2665E-09  0.4725E-09  0.4709E-09  0.1327E-09  0.1319E-09
    -26.267  0.4082E-08  0.4066E-08  0.8168E-02  0.8134E-02  0.3720E-02  0.3701E-02  0.8168E-02  0.8134E-02  0.5971E-10  0.5942E-10  0.5323E-08  0.5306E-08  0.3017E-08  0.3004E-08  0.5323E-08  0.5306E-08  0.1495E-08  0.1487E-08
    -26.142  0.4970E-07  0.4950E-07  0.9892E-01  0.9852E-01  0.4540E-01  0.4516E-01  0.9892E-01  0.9852E-01  0.7230E-09  0.7195E-09  0.6447E-07  0.6427E-07  0.3677E-07  0.3661E-07  0.6447E-07  0.6427E-07  0.1811E-07  0.1801E-07
    -26.016  0.5519E-06  0.5499E-06  0.1037E+01  0.1033E+01  0.5173E+00  0.5148E+00  0.1037E+01  0.1033E+01  0.7555E-08  0.7524E-08  0.6755E-06  0.6738E-06  0.4128E-06  0.4112E-06  0.6755E-06  0.6738E-06  0.1901E-06  0.1891E-06
    -25.891  0.3090E-05  0.3087E-05  0.4149E+01  0.4146E+01  0.3261E+01  0.3253E+01  0.4149E+01  0.4146E+01  0.2986E-07  0.2982E-07  0.2704E-05  0.2704E-05  0.2430E-05  0.2427E-05  0.2704E-05  0.2704E-05  0.7634E-06  0.7616E-06
    -25.766  0.2848E-05  0.2857E-05  0.2237E+01  0.2243E+01  0.3383E+01  0.3390E+01  0.2237E+01  0.2243E+01  0.1585E-07  0.1589E-07  0.1461E-05  0.1466E-05  0.2348E-05  0.2356E-05  0.1461E-05  0.1466E-05  0.4117E-06  0.4121E-06
    -25.640  0.4522E-06  0.4547E-06  0.2694E+00  0.2705E+00  0.5602E+00  0.5629E+00  0.2694E+00  0.2705E+00  0.1898E-08  0.1906E-08  0.1763E-06  0.1772E-06  0.3782E-06  0.3804E-06  0.1763E-06  0.1772E-06  0.4950E-07  0.4962E-07
    -25.515  0.3624E-07  0.3646E-07  0.3118E-06  0.3127E-06  0.4948E-01  0.4974E-01  0.3118E-06  0.3127E-06  0.3963E-12  0.3938E-12  0.1537E-09  0.1546E-09  0.3188E-07  0.3209E-07  0.1537E-09  0.1546E-09  0.1225E-11  0.1213E-11
    -25.389  0.0000E+00  0.0000E+00  0.0000E+00  0.0000E+00  0.0000E+00  0.0000E+00  0.0000E+00  0.0000E+00  0.0000E+00  0.0000E+00  0.0000E+00  0.0000E+00  0.0000E+00  0.0000E+00  0.0000E+00  0.0000E+00  0.0000E+00  0.0000E+00
    -25.264  0.0000E+00  0.0000E+00  0.0000E+00  0.0000E+00  0.0000E+00  0.0000E+00  0.0000E+00  0.0000E+00  0.0000E+00  0.0000E+00  0.0000E+00  0.0000E+00  0.0000E+00  0.0000E+00  0.0000E+00  0.0000E+00  0.0000E+00  0.0000E+00
    -25.139  0.0000E+00  0.0000E+00  0.0000E+00  0.0000E+00  0.0000E+00  0.0000E+00  0.0000E+00  0.0000E+00  0.0000E+00  0.0000E+00  0.0000E+00  0.0000E+00  0.0000E+00  0.0000E+00  0.0000E+00  0.0000E+00  0.0000E+00  0.0000E+00
    -25.013  0.0000E+00  0.0000E+00  0.0000E+00  0.0000E+00  0.0000E+00  0.0000E+00  0.0000E+00  0.0000E+00  0.0000E+00  0.0000E+00  0.0000E+00  0.0000E+00  0.0000E+00  0.0000E+00  0.0000E+00  0.0000E+00  0.0000E+00  0.0000E+00
    -24.888  0.0000E+00  0.0000E+00  0.0000E+00  0.0000E+00  0.0000E+00  0.0000E+00  0.0000E+00  0.0000E+00  0.0000E+00  0.0000E+00  0.0000E+00  0.0000E+00  0.0000E+00  0.0000E+00  0.0000E+00  0.0000E+00  0.0000E+00  0.0000E+00
    -24.762  0.0000E+00  0.0000E+00  0.0000E+00  0.0000E+00  0.0000E+00  0.0000E+00  0.0000E+00  0.0000E+00  0.0000E+00  0.0000E+00  0.0000E+00  0.0000E+00  0.0000E+00  0.0000E+00  0.0000E+00  0.0000E+00  0.0000E+00  0.0000E+00
    -24.637  0.0000E+00  0.0000E+00  0.0000E+00  0.0000E+00  0.0000E+00  0.0000E+00  0.0000E+00  0.0000E+00  0.0000E+00  0.0000E+00  0.0000E+00  0.0000E+00  0.0000E+00  0.0000E+00  0.0000E+00  0.0000E+00  0.0000E+00  0.0000E+00
    -24.512  0.0000E+00  0.0000E+00  0.0000E+00  0.0000E+00  0.0000E+00  0.0000E+00  0.0000E+00  0.0000E+00  0.0000E+00  0.0000E+00  0.0000E+00  0.0000E+00  0.0000E+00  0.0000E+00  0.0000E+00  0.0000E+00  0.0000E+00  0.0000E+00
    -24.386  0.0000E+00  0.0000E+00  0.0000E+00  0.0000E+00  0.0000E+00  0.0000E+00  0.0000E+00  0.0000E+00  0.0000E+00  0.0000E+00  0.0000E+00  0.0000E+00  0.0000E+00  0.0000E+00  0.0000E+00  0.0000E+00  0.0000E+00  0.0000E+00
    -24.261  0.0000E+00  0.0000E+00  0.0000E+00  0.0000E+00  0.0000E+00  0.0000E+00  0.0000E+00  0.0000E+00  0.0000E+00  0.0000E+00  0.0000E+00  0.0000E+00  0.0000E+00  0.0000E+00  0.0000E+00  0.0000E+00  0.0000E+00  0.0000E+00
    -24.135  0.0000E+00  0.0000E+00  0.0000E+00  0.0000E+00  0.0000E+00  0.0000E+00  0.0000E+00  0.0000E+00  0.0000E+00  0.0000E+00  0.0000E+00  0.0000E+00  0.0000E+00  0.0000E+00  0.0000E+00  0.0000E+00  0.0000E+00  0.0000E+00
    -24.010  0.0000E+00  0.0000E+00  0.0000E+00  0.0000E+00  0.0000E+00  0.0000E+00  0.0000E+00  0.0000E+00  0.0000E+00  0.0000E+00  0.0000E+00  0.0000E+00  0.0000E+00  0.0000E+00  0.0000E+00  0.0000E+00  0.0000E+00  0.0000E+00
    -23.885  0.0000E+00  0.0000E+00  0.0000E+00  0.0000E+00  0.0000E+00  0.0000E+00  0.0000E+00  0.0000E+00  0.0000E+00  0.0000E+00  0.0000E+00  0.0000E+00  0.0000E+00  0.0000E+00  0.0000E+00  0.0000E+00  0.0000E+00  0.0000E+00
    -23.759  0.0000E+00  0.0000E+00  0.0000E+00  0.0000E+00  0.0000E+00  0.0000E+00  0.0000E+00  0.0000E+00  0.0000E+00  0.0000E+00  0.0000E+00  0.0000E+00  0.0000E+00  0.0000E+00  0.0000E+00  0.0000E+00  0.0000E+00  0.0000E+00
    -23.634  0.0000E+00  0.0000E+00  0.0000E+00  0.0000E+00  0.0000E+00  0.0000E+00  0.0000E+00  0.0000E+00  0.0000E+00  0.0000E+00  0.0000E+00  0.0000E+00  0.0000E+00  0.0000E+00  0.0000E+00  0.0000E+00  0.0000E+00  0.0000E+00
    -23.508  0.0000E+00  0.0000E+00  0.0000E+00  0.0000E+00  0.0000E+00  0.0000E+00  0.0000E+00  0.0000E+00  0.0000E+00  0.0000E+00  0.0000E+00  0.0000E+00  0.0000E+00  0.0000E+00  0.0000E+00  0.0000E+00  0.0000E+00  0.0000E+00
    -23.383  0.0000E+00  0.0000E+00  0.0000E+00  0.0000E+00  0.0000E+00  0.0000E+00  0.0000E+00  0.0000E+00  0.0000E+00  0.0000E+00  0.0000E+00  0.0000E+00  0.0000E+00  0.0000E+00  0.0000E+00  0.0000E+00  0.0000E+00  0.0000E+00
    -23.258  0.0000E+00  0.0000E+00  0.0000E+00  0.0000E+00  0.0000E+00  0.0000E+00  0.0000E+00  0.0000E+00  0.0000E+00  0.0000E+00  0.0000E+00  0.0000E+00  0.0000E+00  0.0000E+00  0.0000E+00  0.0000E+00  0.0000E+00  0.0000E+00
    -23.132  0.0000E+00  0.0000E+00  0.0000E+00  0.0000E+00  0.0000E+00  0.0000E+00  0.0000E+00  0.0000E+00  0.0000E+00  0.0000E+00  0.0000E+00  0.0000E+00  0.0000E+00  0.0000E+00  0.0000E+00  0.0000E+00  0.0000E+00  0.0000E+00
    -23.007  0.0000E+00  0.0000E+00  0.0000E+00  0.0000E+00  0.0000E+00  0.0000E+00  0.0000E+00  0.0000E+00  0.0000E+00  0.0000E+00  0.0000E+00  0.0000E+00  0.0000E+00  0.0000E+00  0.0000E+00  0.0000E+00  0.0000E+00  0.0000E+00
    -22.881  0.0000E+00  0.0000E+00  0.0000E+00  0.0000E+00  0.0000E+00  0.0000E+00  0.0000E+00  0.0000E+00  0.0000E+00  0.0000E+00  0.0000E+00  0.0000E+00  0.0000E+00  0.0000E+00  0.0000E+00  0.0000E+00  0.0000E+00  0.0000E+00
    -22.756  0.0000E+00  0.0000E+00  0.0000E+00  0.0000E+00  0.0000E+00  0.0000E+00  0.0000E+00  0.0000E+00  0.0000E+00  0.0000E+00  0.0000E+00  0.0000E+00  0.0000E+00  0.0000E+00  0.0000E+00  0.0000E+00  0.0000E+00  0.0000E+00
    -22.631  0.0000E+00  0.0000E+00  0.0000E+00  0.0000E+00  0.0000E+00  0.0000E+00  0.0000E+00  0.0000E+00  0.0000E+00  0.0000E+00  0.0000E+00  0.0000E+00  0.0000E+00  0.0000E+00  0.0000E+00  0.0000E+00  0.0000E+00  0.0000E+00
    -22.505  0.0000E+00  0.0000E+00  0.0000E+00  0.0000E+00  0.0000E+00  0.0000E+00  0.0000E+00  0.0000E+00  0.0000E+00  0.0000E+00  0.0000E+00  0.0000E+00  0.0000E+00  0.0000E+00  0.0000E+00  0.0000E+00  0.0000E+00  0.0000E+00
    -22.380  0.0000E+00  0.0000E+00  0.0000E+00  0.0000E+00  0.0000E+00  0.0000E+00  0.0000E+00  0.0000E+00  0.0000E+00  0.0000E+00  0.0000E+00  0.0000E+00  0.0000E+00  0.0000E+00  0.0000E+00  0.0000E+00  0.0000E+00  0.0000E+00
    -22.254  0.0000E+00  0.0000E+00  0.0000E+00  0.0000E+00  0.0000E+00  0.0000E+00  0.0000E+00  0.0000E+00  0.0000E+00  0.0000E+00  0.0000E+00  0.0000E+00  0.0000E+00  0.0000E+00  0.0000E+00  0.0000E+00  0.0000E+00  0.0000E+00
    -22.129  0.0000E+00  0.0000E+00  0.0000E+00  0.0000E+00  0.0000E+00  0.0000E+00  0.0000E+00  0.0000E+00  0.0000E+00  0.0000E+00  0.0000E+00  0.0000E+00  0.0000E+00  0.0000E+00  0.0000E+00  0.0000E+00  0.0000E+00  0.0000E+00
    -22.004  0.0000E+00  0.0000E+00  0.0000E+00  0.0000E+00  0.0000E+00  0.0000E+00  0.0000E+00  0.0000E+00  0.0000E+00  0.0000E+00  0.0000E+00  0.0000E+00  0.0000E+00  0.0000E+00  0.0000E+00  0.0000E+00  0.0000E+00  0.0000E+00
    -21.878  0.0000E+00  0.0000E+00  0.0000E+00  0.0000E+00  0.0000E+00  0.0000E+00  0.0000E+00  0.0000E+00  0.0000E+00  0.0000E+00  0.0000E+00  0.0000E+00  0.0000E+00  0.0000E+00  0.0000E+00  0.0000E+00  0.0000E+00  0.0000E+00
    -21.753  0.0000E+00  0.0000E+00  0.0000E+00  0.0000E+00  0.0000E+00  0.0000E+00  0.0000E+00  0.0000E+00  0.0000E+00  0.0000E+00  0.0000E+00  0.0000E+00  0.0000E+00  0.0000E+00  0.0000E+00  0.0000E+00  0.0000E+00  0.0000E+00
    -21.627  0.0000E+00  0.0000E+00  0.0000E+00  0.0000E+00  0.0000E+00  0.0000E+00  0.0000E+00  0.0000E+00  0.0000E+00  0.0000E+00  0.0000E+00  0.0000E+00  0.0000E+00  0.0000E+00  0.0000E+00  0.0000E+00  0.0000E+00  0.0000E+00
    -21.502  0.0000E+00  0.0000E+00  0.0000E+00  0.0000E+00  0.0000E+00  0.0000E+00  0.0000E+00  0.0000E+00  0.0000E+00  0.0000E+00  0.0000E+00  0.0000E+00  0.0000E+00  0.0000E+00  0.0000E+00  0.0000E+00  0.0000E+00  0.0000E+00
    -21.377  0.0000E+00  0.0000E+00  0.0000E+00  0.0000E+00  0.0000E+00  0.0000E+00  0.0000E+00  0.0000E+00  0.0000E+00  0.0000E+00  0.0000E+00  0.0000E+00  0.0000E+00  0.0000E+00  0.0000E+00  0.0000E+00  0.0000E+00  0.0000E+00