  16  16   1   0
  0.1473852E+02  0.3799912E-09  0.3799912E-09  0.1633153E-08  0.5000000E-15
  1.000000000000000E-004
  CAR 
 unknown system                          
     14.73394512    -23.06680350  301      8.82913332      1.00000000
    -23.067  0.0000E+00  0.0000E+00  0.0000E+00  0.0000E+00
    -22.941  0.0000E+00  0.0000E+00  0.0000E+00  0.0000E+00
    -22.815  0.0000E+00  0.0000E+00  0.0000E+00  0.0000E+00
    -22.689  0.0000E+00  0.0000E+00  0.0000E+00  0.0000E+00
    -22.563  0.0000E+00  0.0000E+00  0.0000E+00  0.0000E+00
    -22.437  0.0000E+00  0.0000E+00  0.0000E+00  0.0000E+00
    -22.311  0.0000E+00  0.0000E+00  0.0000E+00  0.0000E+00
    -22.185  0.0000E+00  0.0000E+00  0.0000E+00  0.0000E+00
    -22.059  0.0000E+00  0.0000E+00  0.0000E+00  0.0000E+00
    -21.933  0.0000E+00  0.0000E+00  0.0000E+00  0.0000E+00
    -21.807  0.2282E-02  0.2273E-02  0.2876E-03  0.2864E-03
    -21.681  0.3675E-01  0.3660E-01  0.4918E-02  0.4898E-02
    -21.555  0.4424E+00  0.4406E+00  0.6066E-01  0.6042E-01
    -21.429  0.5002E+01  0.4984E+01  0.6910E+00  0.6884E+00
    -21.303  0.3101E+02  0.3095E+02  0.4598E+01  0.4588E+01
    -21.177  0.4516E+02  0.4520E+02  0.1029E+02  0.1028E+02
    -21.051  0.1225E+02  0.1229E+02  0.1183E+02  0.1183E+02
    -20.925  0.1174E+01  0.1178E+01  0.1199E+02  0.1199E+02
    -20.799  0.0000E+00  0.0000E+00  0.1200E+02  0.1200E+02
    -20.673  0.0000E+00  0.0000E+00  0.1200E+02  0.1200E+02
    -20.547  0.0000E+00  0.0000E+00  0.1200E+02  0.1200E+02
    -20.421  0.0000E+00  0.0000E+00  0.1200E+02  0.1200E+02
    -20.295  0.0000E+00  0.0000E+00  0.1200E+02  0.1200E+02
    -20.169  0.0000E+00  0.0000E+00  0.1200E+02  0.1200E+02
    -20.043  0.0000E+00  0.0000E+00  0.1200E+02  0.1200E+02
    -19.917  0.0000E+00  0.0000E+00  0.1200E+02  0.1200E+02
    -19.791  0.0000E+00  0.0000E+00  0.1200E+02  0.1200E+02
    -19.665  0.0000E+00  0.0000E+00  0.1200E+02  0.1200E+02
    -19.539  0.0000E+00  0.0000E+00  0.1200E+02  0.1200E+02
    -19.413  0.0000E+00  0.0000E+00  0.1200E+02  0.1200E+02
    -19.287  0.0000E+00  0.0000E+00  0.1200E+02  0.1200E+02
    -19.161  0.0000E+00  0.0000E+00  0.1200E+02  0.1200E+02
    -19.035  0.0000E+00  0.0000E+00  0.1200E+02  0.1200E+02
    -18.909  0.0000E+00  0.0000E+00  0.1200E+02  0.1200E+02
    -18.783  0.0000E+00  0.0000E+00  0.1200E+02  0.1200E+02
    -18.657  0.0000E+00  0.0000E+00  0.1200E+02  0.1200E+02
    -18.531  0.0000E+00  0.0000E+00  0.1200E+02  0.1200E+02
    -18.405  0.0000E+00  0.0000E+00  0.1200E+02  0.1200E+02
    -18.279  0.0000E+00  0.0000E+00  0.1200E+02  0.1200E+02
    -18.153  0.0000E+00  0.0000E+00  0.1200E+02  0.1200E+02
    -18.027  0.0000E+00  0.0000E+00  0.1200E+02  0.1200E+02
    -17.901  0.0000E+00  0.0000E+00  0.1200E+02  0.1200E+02
    -17.775  0.0000E+00  0.0000E+00  0.1200E+02  0.1200E+02
    -17.649  0.0000E+00  0.0000E+00  0.1200E+02  0.1200E+02
    -17.523  0.0000E+00  0.0000E+00  0.1200E+02  0.1200E+02
    -17.397  0.0000E+00  0.0000E+00  0.1200E+02  0.1200E+02
    -17.271  0.0000E+00  0.0000E+00  0.1200E+02  0.1200E+02
    -17.145  0.0000E+00  0.0000E+00  0.1200E+02  0.1200E+02
    -17.019  0.0000E+00  0.0000E+00  0.1200E+02  0.1200E+02
    -16.893  0.0000E+00  0.0000E+00  0.1200E+02  0.1200E+02
    -16.767  0.0000E+00  0.0000E+00  0.1200E+02  0.1200E+02
    -16.641  0.0000E+00  0.0000E+00  0.1200E+02  0.1200E+02
    -16.515  0.0000E+00  0.0000E+00  0.1200E+02  0.1200E+02
    -16.389  0.0000E+00  0.0000E+00  0.1200E+02  0.1200E+02
    -16.263  0.0000E+00  0.0000E+00  0.1200E+02  0.1200E+02
    -16.137  0.0000E+00  0.0000E+00  0.1200E+02  0.1200E+02
    -16.011  0.0000E+00  0.0000E+00  0.1200E+02  0.1200E+02
    -15.885  0.0000E+00  0.0000E+00  0.1200E+02  0.1200E+02
    -15.759  0.0000E+00  0.0000E+00  0.1200E+02  0.1200E+02
    -15.633  0.0000E+00  0.0000E+00  0.1200E+02  0.1200E+02
    -15.507  0.0000E+00  0.0000E+00  0.1200E+02  0.1200E+02
    -15.381  0.0000E+00  0.0000E+00  0.1200E+02  0.1200E+02
    -15.255  0.0000E+00  0.0000E+00  0.1200E+02  0.1200E+02
    -15.129  0.0000E+00  0.0000E+00  0.1200E+02  0.1200E+02
    -15.003  0.0000E+00  0.0000E+00  0.1200E+02  0.1200E+02
    -14.877  0.0000E+00  0.0000E+00  0.1200E+02  0.1200E+02
    -14.751  0.0000E+00  0.0000E+00  0.1200E+02  0.1200E+02
    -14.625  0.0000E+00  0.0000E+00  0.1200E+02  0.1200E+02
    -14.499  0.0000E+00  0.0000E+00  0.1200E+02  0.1200E+02
    -14.373  0.0000E+00  0.0000E+00  0.1200E+02  0.1200E+02
    -14.247  0.0000E+00  0.0000E+00  0.1200E+02  0.1200E+02
    -14.121  0.0000E+00  0.0000E+00  0.1200E+02  0.1200E+02
    -13.995  0.0000E+00  0.0000E+00  0.1200E+02  0.1200E+02
    -13.869  0.0000E+00  0.0000E+00  0.1200E+02  0.1200E+02
    -13.743  0.0000E+00  0.0000E+00  0.1200E+02  0.1200E+02
    -13.617  0.0000E+00  0.0000E+00  0.1200E+02  0.1200E+02
    -13.491  0.0000E+00  0.0000E+00  0.1200E+02  0.1200E+02
    -13.365  0.0000E+00  0.0000E+00  0.1200E+02  0.1200E+02
    -13.239  0.0000E+00  0.0000E+00  0.1200E+02  0.1200E+02
    -13.113  0.0000E+00  0.0000E+00  0.1200E+02  0.1200E+02
    -12.987  0.0000E+00  0.0000E+00  0.1200E+02  0.1200E+02
    -12.861  0.0000E+00  0.0000E+00  0.1200E+02  0.1200E+02
    -12.735  0.0000E+00  0.0000E+00  0.1200E+02  0.1200E+02
    -12.609  0.0000E+00  0.0000E+00  0.1200E+02  0.1200E+02
    -12.483  0.0000E+00  0.0000E+00  0.1200E+02  0.1200E+02
    -12.357  0.0000E+00  0.0000E+00  0.1200E+02  0.1200E+02
    -12.231  0.0000E+00  0.0000E+00  0.1200E+02  0.1200E+02
    -12.105  0.0000E+00  0.0000E+00  0.1200E+02  0.1200E+02
    -11.979  0.0000E+00  0.0000E+00  0.1200E+02  0.1200E+02
    -11.853  0.0000E+00  0.0000E+00  0.1200E+02  0.1200E+02
    -11.727  0.0000E+00  0.0000E+00  0.1200E+02  0.1200E+02
    -11.601  0.0000E+00  0.0000E+00  0.1200E+02  0.1200E+02
    -11.475  0.0000E+00  0.0000E+00  0.1200E+02  0.1200E+02
    -11.349  0.0000E+00  0.0000E+00  0.1200E+02  0.1200E+02
    -11.223  0.0000E+00  0.0000E+00  0.1200E+02  0.1200E+02
    -11.097  0.0000E+00  0.0000E+00  0.1200E+02  0.1200E+02
    -10.971  0.0000E+00  0.0000E+00  0.1200E+02  0.1200E+02
    -10.845  0.0000E+00  0.0000E+00  0.1200E+02  0.1200E+02
    -10.719  0.0000E+00  0.0000E+00  0.1200E+02  0.1200E+02
    -10.593  0.0000E+00  0.0000E+00  0.1200E+02  0.1200E+02
    -10.467  0.0000E+00  0.0000E+00  0.1200E+02  0.1200E+02
    -10.341  0.0000E+00  0.0000E+00  0.1200E+02  0.1200E+02
    -10.215  0.0000E+00  0.0000E+00  0.1200E+02  0.1200E+02
    -10.089  0.0000E+00  0.0000E+00  0.1200E+02  0.1200E+02
     -9.963  0.0000E+00  0.0000E+00  0.1200E+02  0.1200E+02
     -9.837  0.0000E+00  0.0000E+00  0.1200E+02  0.1200E+02
     -9.711  0.0000E+00  0.0000E+00  0.1200E+02  0.1200E+02
     -9.585  0.0000E+00  0.0000E+00  0.1200E+02  0.1200E+02
     -9.459  0.0000E+00  0.0000E+00  0.1200E+02  0.1200E+02
     -9.333  0.0000E+00  0.0000E+00  0.1200E+02  0.1200E+02
     -9.207  0.0000E+00  0.0000E+00  0.1200E+02  0.1200E+02
     -9.081  0.0000E+00  0.0000E+00  0.1200E+02  0.1200E+02
     -8.955  0.0000E+00  0.0000E+00  0.1200E+02  0.1200E+02
     -8.829  0.0000E+00  0.0000E+00  0.1200E+02  0.1200E+02
     -8.703  0.0000E+00  0.0000E+00  0.1200E+02  0.1200E+02
     -8.577  0.0000E+00  0.0000E+00  0.1200E+02  0.1200E+02
     -8.451  0.0000E+00  0.0000E+00  0.1200E+02  0.1200E+02
     -8.325  0.0000E+00  0.0000E+00  0.1200E+02  0.1200E+02
     -8.199  0.0000E+00  0.0000E+00  0.1200E+02  0.1200E+02
     -8.073  0.0000E+00  0.0000E+00  0.1200E+02  0.1200E+02
     -7.947  0.0000E+00  0.0000E+00  0.1200E+02  0.1200E+02
     -7.821  0.0000E+00  0.0000E+00  0.1200E+02  0.1200E+02
     -7.694  0.0000E+00  0.0000E+00  0.1200E+02  0.1200E+02
     -7.568  0.0000E+00  0.0000E+00  0.1200E+02  0.1200E+02
     -7.442  0.0000E+00  0.0000E+00  0.1200E+02  0.1200E+02
     -7.316  0.0000E+00  0.0000E+00  0.1200E+02  0.1200E+02
     -7.190  0.0000E+00  0.0000E+00  0.1200E+02  0.1200E+02
     -7.064  0.0000E+00  0.0000E+00  0.1200E+02  0.1200E+02
     -6.938  0.0000E+00  0.0000E+00  0.1200E+02  0.1200E+02
     -6.812  0.0000E+00  0.0000E+00  0.1200E+02  0.1200E+02
     -6.686  0.0000E+00  0.0000E+00  0.1200E+02  0.1200E+02
     -6.560  0.0000E+00  0.0000E+00  0.1200E+02  0.1200E+02
     -6.434  0.0000E+00  0.0000E+00  0.1200E+02  0.1200E+02
     -6.308  0.0000E+00  0.0000E+00  0.1200E+02  0.1200E+02
     -6.182  0.0000E+00  0.0000E+00  0.1200E+02  0.1200E+02
     -6.056  0.0000E+00  0.0000E+00  0.1200E+02  0.1200E+02
     -5.930  0.0000E+00  0.0000E+00  0.1200E+02  0.1200E+02
     -5.804  0.0000E+00  0.0000E+00  0.1200E+02  0.1200E+02
     -5.678  0.0000E+00  0.0000E+00  0.1200E+02  0.1200E+02
     -5.552  0.0000E+00  0.0000E+00  0.1200E+02  0.1200E+02
     -5.426  0.0000E+00  0.0000E+00  0.1200E+02  0.1200E+02
     -5.300  0.0000E+00  0.0000E+00  0.1200E+02  0.1200E+02
     -5.174  0.0000E+00  0.0000E+00  0.1200E+02  0.1200E+02
     -5.048  0.0000E+00  0.0000E+00  0.1200E+02  0.1200E+02
     -4.922  0.0000E+00  0.0000E+00  0.1200E+02  0.1200E+02
     -4.796  0.0000E+00  0.0000E+00  0.1200E+02  0.1200E+02
     -4.670  0.0000E+00  0.0000E+00  0.1200E+02  0.1200E+02
     -4.544  0.0000E+00  0.0000E+00  0.1200E+02  0.1200E+02
     -4.418  0.0000E+00  0.0000E+00  0.1200E+02  0.1200E+02
     -4.292  0.0000E+00  0.0000E+00  0.1200E+02  0.1200E+02
     -4.166  0.0000E+00  0.0000E+00  0.1200E+02  0.1200E+02
     -4.040  0.0000E+00  0.0000E+00  0.1200E+02  0.1200E+02
     -3.914  0.0000E+00  0.0000E+00  0.1200E+02  0.1200E+02
     -3.788  0.0000E+00  0.0000E+00  0.1200E+02  0.1200E+02
     -3.662  0.0000E+00  0.0000E+00  0.1200E+02  0.1200E+02
     -3.536  0.0000E+00  0.0000E+00  0.1200E+02  0.1200E+02
     -3.410  0.0000E+00  0.0000E+00  0.1200E+02  0.1200E+02
     -3.284  0.0000E+00  0.0000E+00  0.1200E+02  0.1200E+02
     -3.158  0.0000E+00  0.0000E+00  0.1200E+02  0.1200E+02
     -3.032  0.0000E+00  0.0000E+00  0.1200E+02  0.1200E+02
     -2.906  0.8700E-06  0.8528E-06  0.1200E+02  0.1200E+02
     -2.780  0.3283E-04  0.3218E-04  0.1200E+02  0.1200E+02
     -2.654  0.4014E-03  0.3935E-03  0.1200E+02  0.1200E+02
     -2.528  0.4798E-02  0.4708E-02  0.1200E+02  0.1200E+02
     -2.402  0.4272E-01  0.4210E-01  0.1201E+02  0.1201E+02
     -2.276  0.1677E+00  0.1666E+00  0.1203E+02  0.1203E+02
     -2.150  0.2681E+00  0.2674E+00  0.1206E+02  0.1206E+02
     -2.024  0.4169E+00  0.4156E+00  0.1211E+02  0.1211E+02
     -1.898  0.4260E+00  0.4267E+00  0.1217E+02  0.1217E+02
     -1.772  0.5088E+00  0.5071E+00  0.1223E+02  0.1223E+02
     -1.646  0.5973E+00  0.5975E+00  0.1231E+02  0.1231E+02
     -1.520  0.6146E+00  0.6140E+00  0.1238E+02  0.1238E+02
     -1.394  0.6400E+00  0.6407E+00  0.1246E+02  0.1246E+02
     -1.268  0.6441E+00  0.6423E+00  0.1255E+02  0.1255E+02
     -1.142  0.8708E+00  0.8703E+00  0.1266E+02  0.1266E+02
     -1.016  0.8858E+00  0.8846E+00  0.1277E+02  0.1277E+02
     -0.890  0.8755E+00  0.8779E+00  0.1288E+02  0.1288E+02
     -0.764  0.7161E+00  0.7146E+00  0.1297E+02  0.1297E+02
     -0.638  0.1048E+01  0.1046E+01  0.1310E+02  0.1310E+02
     -0.512  0.1151E+01  0.1151E+01  0.1325E+02  0.1324E+02
     -0.386  0.1175E+01  0.1175E+01  0.1339E+02  0.1339E+02
     -0.260  0.1019E+01  0.1020E+01  0.1352E+02  0.1352E+02
     -0.134  0.1155E+01  0.1153E+01  0.1367E+02  0.1367E+02
     -0.008  0.1254E+01  0.1253E+01  0.1383E+02  0.1383E+02
      0.118  0.1266E+01  0.1267E+01  0.1399E+02  0.1399E+02
      0.244  0.1505E+01  0.1500E+01  0.1418E+02  0.1417E+02
      0.370  0.1696E+01  0.1699E+01  0.1439E+02  0.1439E+02
      0.496  0.1415E+01  0.1416E+01  0.1457E+02  0.1457E+02
      0.622  0.1235E+01  0.1234E+01  0.1472E+02  0.1472E+02
      0.748  0.1569E+01  0.1565E+01  0.1492E+02  0.1492E+02
      0.874  0.1816E+01  0.1816E+01  0.1515E+02  0.1515E+02
      1.000  0.1861E+01  0.1862E+01  0.1539E+02  0.1539E+02
      1.126  0.1796E+01  0.1796E+01  0.1561E+02  0.1561E+02
      1.252  0.1557E+01  0.1560E+01  0.1581E+02  0.1581E+02
      1.378  0.1473E+01  0.1471E+01  0.1600E+02  0.1599E+02
      1.504  0.1647E+01  0.1647E+01  0.1620E+02  0.1620E+02
      1.630  0.1270E+01  0.1273E+01  0.1636E+02  0.1636E+02
      1.756  0.1433E+01  0.1427E+01  0.1654E+02  0.1654E+02
      1.882  0.2142E+01  0.2138E+01  0.1682E+02  0.1681E+02
      2.008  0.2258E+01  0.2260E+01  0.1710E+02  0.1710E+02
      2.134  0.2092E+01  0.2090E+01  0.1736E+02  0.1736E+02
      2.260  0.2152E+01  0.2153E+01  0.1763E+02  0.1763E+02
      2.386  0.2042E+01  0.2042E+01  0.1789E+02  0.1789E+02
      2.512  0.2120E+01  0.2121E+01  0.1816E+02  0.1816E+02
      2.638  0.2064E+01  0.2064E+01  0.1842E+02  0.1842E+02
      2.764  0.2074E+01  0.2074E+01  0.1868E+02  0.1868E+02
      2.890  0.2241E+01  0.2242E+01  0.1897E+02  0.1896E+02
      3.016  0.1964E+01  0.1966E+01  0.1921E+02  0.1921E+02
      3.142  0.1907E+01  0.1907E+01  0.1945E+02  0.1945E+02
      3.268  0.1789E+01  0.1790E+01  0.1968E+02  0.1968E+02
      3.394  0.1790E+01  0.1788E+01  0.1991E+02  0.1990E+02
      3.520  0.2464E+01  0.2456E+01  0.2022E+02  0.2021E+02
      3.646  0.3473E+01  0.3470E+01  0.2065E+02  0.2065E+02
      3.772  0.2984E+01  0.2990E+01  0.2103E+02  0.2103E+02
      3.898  0.2653E+01  0.2654E+01  0.2137E+02  0.2136E+02
      4.024  0.2736E+01  0.2735E+01  0.2171E+02  0.2171E+02
      4.150  0.2273E+01  0.2279E+01  0.2200E+02  0.2200E+02
      4.276  0.1475E+01  0.1476E+01  0.2218E+02  0.2218E+02
      4.402  0.2098E+01  0.2089E+01  0.2245E+02  0.2245E+02
      4.528  0.3158E+01  0.3156E+01  0.2285E+02  0.2285E+02
      4.654  0.2985E+01  0.2989E+01  0.2322E+02  0.2322E+02
      4.780  0.2650E+01  0.2648E+01  0.2356E+02  0.2356E+02
      4.906  0.2930E+01  0.2927E+01  0.2393E+02  0.2393E+02
      5.032  0.3365E+01  0.3363E+01  0.2435E+02  0.2435E+02
      5.158  0.3280E+01  0.3282E+01  0.2477E+02  0.2476E+02
      5.284  0.3111E+01  0.3111E+01  0.2516E+02  0.2516E+02
      5.410  0.3364E+01  0.3361E+01  0.2558E+02  0.2558E+02
      5.536  0.3346E+01  0.3346E+01  0.2601E+02  0.2600E+02
      5.662  0.3486E+01  0.3486E+01  0.2645E+02  0.2644E+02
      5.788  0.3424E+01  0.3423E+01  0.2688E+02  0.2688E+02
      5.914  0.4095E+01  0.4089E+01  0.2739E+02  0.2739E+02
      6.040  0.4875E+01  0.4873E+01  0.2801E+02  0.2801E+02
      6.166  0.4283E+01  0.4287E+01  0.2855E+02  0.2855E+02
      6.292  0.4495E+01  0.4494E+01  0.2912E+02  0.2911E+02
      6.418  0.3726E+01  0.3735E+01  0.2959E+02  0.2959E+02
      6.544  0.3178E+01  0.3176E+01  0.2999E+02  0.2999E+02
      6.670  0.3969E+01  0.3963E+01  0.3049E+02  0.3049E+02
      6.796  0.4736E+01  0.4734E+01  0.3109E+02  0.3108E+02
      6.922  0.5160E+01  0.5157E+01  0.3174E+02  0.3173E+02
      7.048  0.5731E+01  0.5728E+01  0.3246E+02  0.3246E+02
      7.174  0.5829E+01  0.5829E+01  0.3320E+02  0.3319E+02
      7.300  0.5297E+01  0.5304E+01  0.3386E+02  0.3386E+02
      7.426  0.4066E+01  0.4073E+01  0.3438E+02  0.3438E+02
      7.552  0.3329E+01  0.3331E+01  0.3480E+02  0.3480E+02
      7.678  0.3055E+01  0.3055E+01  0.3518E+02  0.3518E+02
      7.804  0.3472E+01  0.3468E+01  0.3562E+02  0.3562E+02
      7.930  0.3725E+01  0.3726E+01  0.3609E+02  0.3609E+02
      8.056  0.3184E+01  0.3189E+01  0.3649E+02  0.3649E+02
      8.182  0.2557E+01  0.2559E+01  0.3682E+02  0.3682E+02
      8.308  0.1953E+01  0.1956E+01  0.3706E+02  0.3706E+02
      8.434  0.1681E+01  0.1681E+01  0.3728E+02  0.3728E+02
      8.560  0.1841E+01  0.1840E+01  0.3751E+02  0.3751E+02
      8.686  0.1772E+01  0.1773E+01  0.3773E+02  0.3773E+02
      8.812  0.1859E+01  0.1858E+01  0.3797E+02  0.3797E+02
      8.938  0.2072E+01  0.2071E+01  0.3823E+02  0.3823E+02
      9.064  0.2129E+01  0.2130E+01  0.3850E+02  0.3850E+02
      9.190  0.1989E+01  0.1989E+01  0.3875E+02  0.3875E+02
      9.316  0.2376E+01  0.2373E+01  0.3905E+02  0.3905E+02
      9.442  0.2621E+01  0.2621E+01  0.3938E+02  0.3938E+02
      9.568  0.2530E+01  0.2531E+01  0.3970E+02  0.3970E+02
      9.694  0.2323E+01  0.2324E+01  0.3999E+02  0.3999E+02
      9.820  0.2594E+01  0.2591E+01  0.4032E+02  0.4032E+02
      9.946  0.3028E+01  0.3025E+01  0.4070E+02  0.4070E+02
     10.072  0.3835E+01  0.3830E+01  0.4118E+02  0.4118E+02
     10.198  0.4056E+01  0.4060E+01  0.4170E+02  0.4169E+02
     10.324  0.3790E+01  0.3787E+01  0.4217E+02  0.4217E+02
     10.450  0.4630E+01  0.4627E+01  0.4276E+02  0.4275E+02
     10.576  0.4400E+01  0.4404E+01  0.4331E+02  0.4331E+02
     10.702  0.4065E+01  0.4063E+01  0.4383E+02  0.4382E+02
     10.828  0.4660E+01  0.4659E+01  0.4441E+02  0.4441E+02
     10.954  0.4810E+01  0.4812E+01  0.4502E+02  0.4502E+02
     11.080  0.4751E+01  0.4755E+01  0.4562E+02  0.4562E+02
     11.206  0.4371E+01  0.4375E+01  0.4617E+02  0.4617E+02
     11.332  0.4182E+01  0.4191E+01  0.4670E+02  0.4670E+02
     11.458  0.3845E+01  0.3854E+01  0.4718E+02  0.4718E+02
     11.584  0.4123E+01  0.4162E+01  0.4770E+02  0.4771E+02
     11.710  0.4266E+01  0.4266E+01  0.4824E+02  0.4825E+02
     11.836  0.4702E+01  0.4602E+01  0.4884E+02  0.4883E+02
     11.962  0.4515E+01  0.4424E+01  0.4941E+02  0.4939E+02
     12.088  0.4896E+01  0.4884E+01  0.5002E+02  0.5000E+02
     12.214  0.4353E+01  0.4262E+01  0.5057E+02  0.5054E+02
     12.340  0.3855E+01  0.3953E+01  0.5106E+02  0.5104E+02
     12.466  0.2638E+01  0.3027E+01  0.5139E+02  0.5142E+02
     12.592  0.2302E+01  0.2266E+01  0.5168E+02  0.5171E+02
     12.718  0.1362E+01  0.1451E+01  0.5186E+02  0.5189E+02
     12.844  0.6291E+00  0.6967E+00  0.5194E+02  0.5198E+02
     12.970  0.2832E+00  0.1362E+00  0.5197E+02  0.5200E+02
     13.096  0.1717E+00  0.1039E-01  0.5199E+02  0.5200E+02
     13.222  0.4028E-01  0.0000E+00  0.5200E+02  0.5200E+02
     13.348  0.3663E-02  0.0000E+00  0.5200E+02  0.5200E+02
     13.474  0.0000E+00  0.0000E+00  0.5200E+02  0.5200E+02
     13.600  0.0000E+00  0.0000E+00  0.5200E+02  0.5200E+02
     13.726  0.0000E+00  0.0000E+00  0.5200E+02  0.5200E+02
     13.852  0.0000E+00  0.0000E+00  0.5200E+02  0.5200E+02
     13.978  0.0000E+00  0.0000E+00  0.5200E+02  0.5200E+02
     14.104  0.0000E+00  0.0000E+00  0.5200E+02  0.5200E+02
     14.230  0.0000E+00  0.0000E+00  0.5200E+02  0.5200E+02
     14.356  0.0000E+00  0.0000E+00  0.5200E+02  0.5200E+02
     14.482  0.0000E+00  0.0000E+00  0.5200E+02  0.5200E+02
     14.608  0.0000E+00  0.0000E+00  0.5200E+02  0.5200E+02
     14.734  0.0000E+00  0.0000E+00  0.5200E+02  0.5200E+02
     14.73394512    -23.06680350  301      8.82913332      1.00000000
    -23.067  0.0000E+00  0.0000E+00  0.0000E+00  0.0000E+00  0.0000E+00  0.0000E+00  0.0000E+00  0.0000E+00  0.0000E+00  0.0000E+00  0.0000E+00  0.0000E+00  0.0000E+00  0.0000E+00  0.0000E+00  0.0000E+00  0.0000E+00  0.0000E+00
    -22.941  0.0000E+00  0.0000E+00  0.0000E+00  0.0000E+00  0.0000E+00  0.0000E+00  0.0000E+00  0.0000E+00  0.0000E+00  0.0000E+00  0.0000E+00  0.0000E+00  0.0000E+00  0.0000E+00  0.0000E+00  0.0000E+00  0.0000E+00  0.0000E+00
    -22.815  0.0000E+00  0.0000E+00  0.0000E+00  0.0000E+00  0.0000E+00  0.0000E+00  0.0000E+00  0.0000E+00  0.0000E+00  0.0000E+00  0.0000E+00  0.0000E+00  0.0000E+00  0.0000E+00  0.0000E+00  0.0000E+00  0.0000E+00  0.0000E+00
    -22.689  0.0000E+00  0.0000E+00  0.0000E+00  0.0000E+00  0.0000E+00  0.0000E+00  0.0000E+00  0.0000E+00  0.0000E+00  0.0000E+00  0.0000E+00  0.0000E+00  0.0000E+00  0.0000E+00  0.0000E+00  0.0000E+00  0.0000E+00  0.0000E+00
    -22.563  0.0000E+00  0.0000E+00  0.0000E+00  0.0000E+00  0.0000E+00  0.0000E+00  0.0000E+00  0.0000E+00  0.0000E+00  0.0000E+00  0.0000E+00  0.0000E+00  0.0000E+00  0.0000E+00  0.0000E+00  0.0000E+00  0.0000E+00  0.0000E+00
    -22.437  0.0000E+00  0.0000E+00  0.0000E+00  0.0000E+00  0.0000E+00  0.0000E+00  0.0000E+00  0.0000E+00  0.0000E+00  0.0000E+00  0.0000E+00  0.0000E+00  0.0000E+00  0.0000E+00  0.0000E+00  0.0000E+00  0.0000E+00  0.0000E+00
    -22.311  0.0000E+00  0.0000E+00  0.0000E+00  0.0000E+00  0.0000E+00  0.0000E+00  0.0000E+00  0.0000E+00  0.0000E+00  0.0000E+00  0.0000E+00  0.0000E+00  0.0000E+00  0.0000E+00  0.0000E+00  0.0000E+00  0.0000E+00  0.0000E+00
    -22.185  0.0000E+00  0.0000E+00  0.0000E+00  0.0000E+00  0.0000E+00  0.0000E+00  0.0000E+00  0.0000E+00  0.0000E+00  0.0000E+00  0.0000E+00  0.0000E+00  0.0000E+00  0.0000E+00  0.0000E+00  0.0000E+00  0.0000E+00  0.0000E+00
    -22.059  0.0000E+00  0.0000E+00  0.0000E+00  0.0000E+00  0.0000E+00  0.0000E+00  0.0000E+00  0.0000E+00  0.0000E+00  0.0000E+00  0.0000E+00  0.0000E+00  0.0000E+00  0.0000E+00  0.0000E+00  0.0000E+00  0.0000E+00  0.0000E+00
    -21.933  0.0000E+00  0.0000E+00  0.0000E+00  0.0000E+00  0.0000E+00  0.0000E+00  0.0000E+00  0.0000E+00  0.0000E+00  0.0000E+00  0.0000E+00  0.0000E+00  0.0000E+00  0.0000E+00  0.0000E+00  0.0000E+00  0.0000E+00  0.0000E+00
    -21.807  0.1616E-08  0.1609E-08  0.2789E-03  0.2777E-03  0.2565E-06  0.2560E-06  0.2789E-03  0.2777E-03  0.1412E-09  0.1407E-09  0.1916E-08  0.1909E-08  0.5874E-09  0.5845E-09  0.1916E-08  0.1909E-08  0.1735E-08  0.1727E-08
    -21.681  0.3185E-07  0.3171E-07  0.3841E-02  0.3825E-02  0.1310E-02  0.1306E-02  0.3841E-02  0.3825E-02  0.1756E-08  0.1750E-08  0.2629E-07  0.2619E-07  0.1937E-07  0.1929E-07  0.2629E-07  0.2619E-07  0.2394E-07  0.2382E-07
    -21.555  0.3802E-06  0.3786E-06  0.4666E-01  0.4646E-01  0.1494E-01  0.1489E-01  0.4666E-01  0.4646E-01  0.2147E-07  0.2139E-07  0.3194E-06  0.3182E-06  0.2270E-06  0.2261E-06  0.3194E-06  0.3182E-06  0.2913E-06  0.2899E-06
    -21.429  0.4404E-05  0.4387E-05  0.5219E+00  0.5200E+00  0.1804E+00  0.1798E+00  0.5219E+00  0.5200E+00  0.2375E-06  0.2367E-06  0.3568E-05  0.3556E-05  0.2667E-05  0.2657E-05  0.3568E-05  0.3556E-05  0.3329E-05  0.3314E-05
    -21.303  0.3075E-04  0.3068E-04  0.2970E+01  0.2965E+01  0.1652E+01  0.1648E+01  0.2970E+01  0.2965E+01  0.1241E-05  0.1239E-05  0.2016E-04  0.2013E-04  0.2044E-04  0.2039E-04  0.2016E-04  0.2013E-04  0.2088E-04  0.2083E-04
    -21.177  0.4808E-04  0.4811E-04  0.3424E+01  0.3428E+01  0.4222E+01  0.4222E+01  0.3424E+01  0.3428E+01  0.1172E-05  0.1174E-05  0.2309E-04  0.2313E-04  0.3653E-04  0.3655E-04  0.2309E-04  0.2313E-04  0.2475E-04  0.2477E-04
    -21.051  0.1241E-04  0.1245E-04  0.7369E+00  0.7395E+00  0.1530E+01  0.1534E+01  0.7369E+00  0.7395E+00  0.2200E-06  0.2207E-06  0.4997E-05  0.5017E-05  0.9745E-05  0.9772E-05  0.4997E-05  0.5017E-05  0.4903E-05  0.4918E-05
    -20.925  0.1197E-05  0.1201E-05  0.6271E-01  0.6297E-01  0.1625E+00  0.1630E+00  0.6271E-01  0.6297E-01  0.1641E-07  0.1647E-07  0.4263E-06  0.4282E-06  0.9428E-06  0.9460E-06  0.4263E-06  0.4282E-06  0.4288E-06  0.4303E-06
    -20.799  0.0000E+00  0.0000E+00  0.0000E+00  0.0000E+00  0.0000E+00  0.0000E+00  0.0000E+00  0.0000E+00  0.0000E+00  0.0000E+00  0.0000E+00  0.0000E+00  0.0000E+00  0.0000E+00  0.0000E+00  0.0000E+00  0.0000E+00  0.0000E+00
    -20.673  0.0000E+00  0.0000E+00  0.0000E+00  0.0000E+00  0.0000E+00  0.0000E+00  0.0000E+00  0.0000E+00  0.0000E+00  0.0000E+00  0.0000E+00  0.0000E+00  0.0000E+00  0.0000E+00  0.0000E+00  0.0000E+00  0.0000E+00  0.0000E+00
    -20.547  0.0000E+00  0.0000E+00  0.0000E+00  0.0000E+00  0.0000E+00  0.0000E+00  0.0000E+00  0.0000E+00  0.0000E+00  0.0000E+00  0.0000E+00  0.0000E+00  0.0000E+00  0.0000E+00  0.0000E+00  0.0000E+00  0.0000E+00  0.0000E+00
    -20.421  0.0000E+00  0.0000E+00  0.0000E+00  0.0000E+00  0.0000E+00  0.0000E+00  0.0000E+00  0.0000E+00  0.0000E+00  0.0000E+00  0.0000E+00  0.0000E+00  0.0000E+00  0.0000E+00  0.0000E+00  0.0000E+00  0.0000E+00  0.0000E+00
    -20.295  0.0000E+00  0.0000E+00  0.0000E+00  0.0000E+00  0.0000E+00  0.0000E+00  0.0000E+00  0.0000E+00  0.0000E+00  0.0000E+00  0.0000E+00  0.0000E+00  0.0000E+00  0.0000E+00  0.0000E+00  0.0000E+00  0.0000E+00  0.0000E+00
    -20.169  0.0000E+00  0.0000E+00  0.0000E+00  0.0000E+00  0.0000E+00  0.0000E+00  0.0000E+00  0.0000E+00  0.0000E+00  0.0000E+00  0.0000E+00  0.0000E+00  0.0000E+00  0.0000E+00  0.0000E+00  0.0000E+00  0.0000E+00  0.0000E+00
    -20.043  0.0000E+00  0.0000E+00  0.0000E+00  0.0000E+00  0.0000E+00  0.0000E+00  0.0000E+00  0.0000E+00  0.0000E+00  0.0000E+00  0.0000E+00  0.0000E+00  0.0000E+00  0.0000E+00  0.0000E+00  0.0000E+00  0.0000E+00  0.0000E+00
    -19.917  0.0000E+00  0.0000E+00  0.0000E+00  0.0000E+00  0.0000E+00  0.0000E+00  0.0000E+00  0.0000E+00  0.0000E+00  0.0000E+00  0.0000E+00  0.0000E+00  0.0000E+00  0.0000E+00  0.0000E+00  0.0000E+00  0.0000E+00  0.0000E+00
    -19.791  0.0000E+00  0.0000E+00  0.0000E+00  0.0000E+00  0.0000E+00  0.0000E+00  0.0000E+00  0.0000E+00  0.0000E+00  0.0000E+00  0.0000E+00  0.0000E+00  0.0000E+00  0.0000E+00  0.0000E+00  0.0000E+00  0.0000E+00  0.0000E+00
    -19.665  0.0000E+00  0.0000E+00  0.0000E+00  0.0000E+00  0.0000E+00  0.0000E+00  0.0000E+00  0.0000E+00  0.0000E+00  0.0000E+00  0.0000E+00  0.0000E+00  0.0000E+00  0.0000E+00  0.0000E+00  0.0000E+00  0.0000E+00  0.0000E+00
    -19.539  0.0000E+00  0.0000E+00  0.0000E+00  0.0000E+00  0.0000E+00  0.0000E+00  0.0000E+00  0.0000E+00  0.0000E+00  0.0000E+00  0.0000E+00  0.0000E+00  0.0000E+00  0.0000E+00  0.0000E+00  0.0000E+00  0.0000E+00  0.0000E+00
    -19.413  0.0000E+00  0.0000E+00  0.0000E+00  0.0000E+00  0.0000E+00  0.0000E+00  0.0000E+00  0.0000E+00  0.0000E+00  0.0000E+00  0.0000E+00  0.0000E+00  0.0000E+00  0.0000E+00  0.0000E+00  0.0000E+00  0.0000E+00  0.0000E+00
    -19.287  0.0000E+00  0.0000E+00  0.0000E+00  0.0000E+00  0.0000E+00  0.0000E+00  0.0000E+00  0.0000E+00  0.0000E+00  0.0000E+00  0.0000E+00  0.0000E+00  0.0000E+00  0.0000E+00  0.0000E+00  0.0000E+00  0.0000E+00  0.0000E+00
    -19.161  0.0000E+00  0.0000E+00  0.0000E+00  0.0000E+00  0.0000E+00  0.0000E+00  0.0000E+00  0.0000E+00  0.0000E+00  0.0000E+00  0.0000E+00  0.0000E+00  0.0000E+00  0.0000E+00  0.0000E+00  0.0000E+00  0.0000E+00  0.0000E+00
    -19.035  0.0000E+00  0.0000E+00  0.0000E+00  0.0000E+00  0.0000E+00  0.0000E+00  0.0000E+00  0.0000E+00  0.0000E+00  0.0000E+00  0.0000E+00  0.0000E+00  0.0000E+00  0.0000E+00  0.0000E+00  0.0000E+00  0.0000E+00  0.0000E+00
    -18.909  0.0000E+00  0.0000E+00  0.0000E+00  0.0000E+00  0.0000E+00  0.0000E+00  0.0000E+00  0.0000E+00  0.0000E+00  0.0000E+00  0.0000E+00  0.0000E+00  0.0000E+00  0.0000E+00  0.0000E+00  0.0000E+00  0.0000E+00  0.0000E+00
    -18.783  0.0000E+00  0.0000E+00  0.0000E+00  0.0000E+00  0.0000E+00  0.0000E+00  0.0000E+00  0.0000E+00  0.0000E+00  0.0000E+00  0.0000E+00  0.0000E+00  0.0000E+00  0.0000E+00  0.0000E+00  0.0000E+00  0.0000E+00  0.0000E+00
    -18.657  0.0000E+00  0.0000E+00  0.0000E+00  0.0000E+00  0.0000E+00  0.0000E+00  0.0000E+00  0.0000E+00  0.0000E+00  0.0000E+00  0.0000E+00  0.0000E+00  0.0000E+00  0.0000E+00  0.0000E+00  0.0000E+00  0.0000E+00  0.0000E+00
    -18.531  0.0000E+00  0.0000E+00  0.0000E+00  0.0000E+00  0.0000E+00  0.0000E+00  0.0000E+00  0.0000E+00  0.0000E+00  0.0000E+00  0.0000E+00  0.0000E+00  0.0000E+00  0.0000E+00  0.0000E+00  0.0000E+00  0.0000E+00  0.0000E+00
    -18.405  0.0000E+00  0.0000E+00  0.0000E+00  0.0000E+00  0.0000E+00  0.0000E+00  0.0000E+00  0.0000E+00  0.0000E+00  0.0000E+00  0.0000E+00  0.0000E+00  0.0000E+00  0.0000E+00  0.0000E+00  0.0000E+00  0.0000E+00  0.0000E+00
    -18.279  0.0000E+00  0.0000E+00  0.0000E+00  0.0000E+00  0.0000E+00  0.0000E+00  0.0000E+00  0.0000E+00  0.0000E+00  0.0000E+00  0.0000E+00  0.0000E+00  0.0000E+00  0.0000E+00  0.0000E+00  0.0000E+00  0.0000E+00  0.0000E+00
    -18.153  0.0000E+00  0.0000E+00  0.0000E+00  0.0000E+00  0.0000E+00  0.0000E+00  0.0000E+00  0.0000E+00  0.0000E+00  0.0000E+00  0.0000E+00  0.0000E+00  0.0000E+00  0.0000E+00  0.0000E+00  0.0000E+00  0.0000E+00  0.0000E+00
    -18.027  0.0000E+00  0.0000E+00  0.0000E+00  0.0000E+00  0.0000E+00  0.0000E+00  0.0000E+00  0.0000E+00  0.0000E+00  0.0000E+00  0.0000E+00  0.0000E+00  0.0000E+00  0.0000E+00  0.0000E+00  0.0000E+00  0.0000E+00  0.0000E+00
    -17.901  0.0000E+00  0.0000E+00  0.0000E+00  0.0000E+00  0.0000E+00  0.0000E+00  0.0000E+00  0.0000E+00  0.0000E+00  0.0000E+00  0.0000E+00  0.0000E+00  0.0000E+00  0.0000E+00  0.0000E+00  0.0000E+00  0.0000E+00  0.0000E+00
    -17.775  0.0000E+00  0.0000E+00  0.0000E+00  0.0000E+00  0.0000E+00  0.0000E+00  0.0000E+00  0.0000E+00  0.0000E+00  0.0000E+00  0.0000E+00  0.0000E+00  0.0000E+00  0.0000E+00  0.0000E+00  0.0000E+00  0.0000E+00  0.0000E+00
    -17.649  0.0000E+00  0.0000E+00  0.0000E+00  0.0000E+00  0.0000E+00  0.0000E+00  0.0000E+00  0.0000E+00  0.0000E+00  0.0000E+00  0.0000E+00  0.0000E+00  0.0000E+00  0.0000E+00  0.0000E+00  0.0000E+00  0.0000E+00  0.0000E+00
    -17.523  0.0000E+00  0.0000E+00  0.0000E+00  0.0000E+00  0.0000E+00  0.0000E+00  0.0000E+00  0.0000E+00  0.0000E+00  0.0000E+00  0.0000E+00  0.0000E+00  0.0000E+00  0.0000E+00  0.0000E+00  0.0000E+00  0.0000E+00  0.0000E+00
    -17.397  0.0000E+00  0.0000E+00  0.0000E+00  0.0000E+00  0.0000E+00  0.0000E+00  0.0000E+00  0.0000E+00  0.0000E+00  0.0000E+00  0.0000E+00  0.0000E+00  0.0000E+00  0.0000E+00  0.0000E+00  0.0000E+00  0.0000E+00  0.0000E+00
    -17.271  0.0000E+00  0.0000E+00  0.0000E+00  0.0000E+00  0.0000E+00  0.0000E+00  0.0000E+00  0.0000E+00  0.0000E+00  0.0000E+00  0.0000E+00  0.0000E+00  0.0000E+00  0.0000E+00  0.0000E+00  0.0000E+00  0.0000E+00  0.0000E+00
    -17.145  0.0000E+00  0.0000E+00  0.0000E+00  0.0000E+00  0.0000E+00  0.0000E+00  0.0000E+00  0.0000E+00  0.0000E+00  0.0000E+00  0.0000E+00  0.0000E+00  0.0000E+00  0.0000E+00  0.0000E+00  0.0000E+00  0.0000E+00  0.0000E+00
    -17.019  0.0000E+00  0.0000E+00  0.0000E+00  0.0000E+00  0.0000E+00  0.0000E+00  0.0000E+00  0.0000E+00  0.0000E+00  0.0000E+00  0.0000E+00  0.0000E+00  0.0000E+00  0.0000E+00  0.0000E+00  0.0000E+00  0.0000E+00  0.0000E+00
    -16.893  0.0000E+00  0.0000E+00  0.0000E+00  0.0000E+00  0.0000E+00  0.0000E+00  0.0000E+00  0.0000E+00  0.0000E+00  0.0000E+00  0.0000E+00  0.0000E+00  0.0000E+00  0.0000E+00  0.0000E+00  0.0000E+00  0.0000E+00  0.0000E+00
    -16.767  0.0000E+00  0.0000E+00  0.0000E+00  0.0000E+00  0.0000E+00  0.0000E+00  0.0000E+00  0.0000E+00  0.0000E+00  0.0000E+00  0.0000E+00  0.0000E+00  0.0000E+00  0.0000E+00  0.0000E+00  0.0000E+00  0.0000E+00  0.0000E+00