  16  16   1   0
  0.1427798E+02  0.3759913E-09  0.3759913E-09  0.1615961E-08  0.5000000E-15
  1.000000000000000E-004
  CAR 
 unknown system                          
     15.12437107    -22.66270388  301      9.14883160      1.00000000
    -22.663  0.0000E+00  0.0000E+00  0.0000E+00  0.0000E+00
    -22.537  0.0000E+00  0.0000E+00  0.0000E+00  0.0000E+00
    -22.411  0.0000E+00  0.0000E+00  0.0000E+00  0.0000E+00
    -22.285  0.0000E+00  0.0000E+00  0.0000E+00  0.0000E+00
    -22.159  0.0000E+00  0.0000E+00  0.0000E+00  0.0000E+00
    -22.033  0.0000E+00  0.0000E+00  0.0000E+00  0.0000E+00
    -21.907  0.0000E+00  0.0000E+00  0.0000E+00  0.0000E+00
    -21.781  0.0000E+00  0.0000E+00  0.0000E+00  0.0000E+00
    -21.655  0.0000E+00  0.0000E+00  0.0000E+00  0.0000E+00
    -21.529  0.0000E+00  0.0000E+00  0.0000E+00  0.0000E+00
    -21.403  0.1984E-02  0.1981E-02  0.2499E-03  0.2495E-03
    -21.277  0.3296E-01  0.3291E-01  0.4402E-02  0.4395E-02
    -21.151  0.3958E+00  0.3952E+00  0.5426E-01  0.5417E-01
    -21.025  0.4483E+01  0.4477E+01  0.6189E+00  0.6180E+00
    -20.899  0.2840E+02  0.2838E+02  0.4196E+01  0.4192E+01
    -20.773  0.4584E+02  0.4585E+02  0.9969E+01  0.9967E+01
    -20.647  0.1446E+02  0.1447E+02  0.1179E+02  0.1179E+02
    -20.521  0.1482E+01  0.1484E+01  0.1198E+02  0.1198E+02
    -20.395  0.0000E+00  0.0000E+00  0.1200E+02  0.1200E+02
    -20.270  0.0000E+00  0.0000E+00  0.1200E+02  0.1200E+02
    -20.144  0.0000E+00  0.0000E+00  0.1200E+02  0.1200E+02
    -20.018  0.0000E+00  0.0000E+00  0.1200E+02  0.1200E+02
    -19.892  0.0000E+00  0.0000E+00  0.1200E+02  0.1200E+02
    -19.766  0.0000E+00  0.0000E+00  0.1200E+02  0.1200E+02
    -19.640  0.0000E+00  0.0000E+00  0.1200E+02  0.1200E+02
    -19.514  0.0000E+00  0.0000E+00  0.1200E+02  0.1200E+02
    -19.388  0.0000E+00  0.0000E+00  0.1200E+02  0.1200E+02
    -19.262  0.0000E+00  0.0000E+00  0.1200E+02  0.1200E+02
    -19.136  0.0000E+00  0.0000E+00  0.1200E+02  0.1200E+02
    -19.010  0.0000E+00  0.0000E+00  0.1200E+02  0.1200E+02
    -18.884  0.0000E+00  0.0000E+00  0.1200E+02  0.1200E+02
    -18.758  0.0000E+00  0.0000E+00  0.1200E+02  0.1200E+02
    -18.632  0.0000E+00  0.0000E+00  0.1200E+02  0.1200E+02
    -18.506  0.0000E+00  0.0000E+00  0.1200E+02  0.1200E+02
    -18.380  0.0000E+00  0.0000E+00  0.1200E+02  0.1200E+02
    -18.254  0.0000E+00  0.0000E+00  0.1200E+02  0.1200E+02
    -18.128  0.0000E+00  0.0000E+00  0.1200E+02  0.1200E+02
    -18.002  0.0000E+00  0.0000E+00  0.1200E+02  0.1200E+02
    -17.876  0.0000E+00  0.0000E+00  0.1200E+02  0.1200E+02
    -17.750  0.0000E+00  0.0000E+00  0.1200E+02  0.1200E+02
    -17.624  0.0000E+00  0.0000E+00  0.1200E+02  0.1200E+02
    -17.498  0.0000E+00  0.0000E+00  0.1200E+02  0.1200E+02
    -17.373  0.0000E+00  0.0000E+00  0.1200E+02  0.1200E+02
    -17.247  0.0000E+00  0.0000E+00  0.1200E+02  0.1200E+02
    -17.121  0.0000E+00  0.0000E+00  0.1200E+02  0.1200E+02
    -16.995  0.0000E+00  0.0000E+00  0.1200E+02  0.1200E+02
    -16.869  0.0000E+00  0.0000E+00  0.1200E+02  0.1200E+02
    -16.743  0.0000E+00  0.0000E+00  0.1200E+02  0.1200E+02
    -16.617  0.0000E+00  0.0000E+00  0.1200E+02  0.1200E+02
    -16.491  0.0000E+00  0.0000E+00  0.1200E+02  0.1200E+02
    -16.365  0.0000E+00  0.0000E+00  0.1200E+02  0.1200E+02
    -16.239  0.0000E+00  0.0000E+00  0.1200E+02  0.1200E+02
    -16.113  0.0000E+00  0.0000E+00  0.1200E+02  0.1200E+02
    -15.987  0.0000E+00  0.0000E+00  0.1200E+02  0.1200E+02
    -15.861  0.0000E+00  0.0000E+00  0.1200E+02  0.1200E+02
    -15.735  0.0000E+00  0.0000E+00  0.1200E+02  0.1200E+02
    -15.609  0.0000E+00  0.0000E+00  0.1200E+02  0.1200E+02
    -15.483  0.0000E+00  0.0000E+00  0.1200E+02  0.1200E+02
    -15.357  0.0000E+00  0.0000E+00  0.1200E+02  0.1200E+02
    -15.231  0.0000E+00  0.0000E+00  0.1200E+02  0.1200E+02
    -15.105  0.0000E+00  0.0000E+00  0.1200E+02  0.1200E+02
    -14.979  0.0000E+00  0.0000E+00  0.1200E+02  0.1200E+02
    -14.853  0.0000E+00  0.0000E+00  0.1200E+02  0.1200E+02
    -14.727  0.0000E+00  0.0000E+00  0.1200E+02  0.1200E+02
    -14.601  0.0000E+00  0.0000E+00  0.1200E+02  0.1200E+02
    -14.476  0.0000E+00  0.0000E+00  0.1200E+02  0.1200E+02
    -14.350  0.0000E+00  0.0000E+00  0.1200E+02  0.1200E+02
    -14.224  0.0000E+00  0.0000E+00  0.1200E+02  0.1200E+02
    -14.098  0.0000E+00  0.0000E+00  0.1200E+02  0.1200E+02
    -13.972  0.0000E+00  0.0000E+00  0.1200E+02  0.1200E+02
    -13.846  0.0000E+00  0.0000E+00  0.1200E+02  0.1200E+02
    -13.720  0.0000E+00  0.0000E+00  0.1200E+02  0.1200E+02
    -13.594  0.0000E+00  0.0000E+00  0.1200E+02  0.1200E+02
    -13.468  0.0000E+00  0.0000E+00  0.1200E+02  0.1200E+02
    -13.342  0.0000E+00  0.0000E+00  0.1200E+02  0.1200E+02
    -13.216  0.0000E+00  0.0000E+00  0.1200E+02  0.1200E+02
    -13.090  0.0000E+00  0.0000E+00  0.1200E+02  0.1200E+02
    -12.964  0.0000E+00  0.0000E+00  0.1200E+02  0.1200E+02
    -12.838  0.0000E+00  0.0000E+00  0.1200E+02  0.1200E+02
    -12.712  0.0000E+00  0.0000E+00  0.1200E+02  0.1200E+02
    -12.586  0.0000E+00  0.0000E+00  0.1200E+02  0.1200E+02
    -12.460  0.0000E+00  0.0000E+00  0.1200E+02  0.1200E+02
    -12.334  0.0000E+00  0.0000E+00  0.1200E+02  0.1200E+02
    -12.208  0.0000E+00  0.0000E+00  0.1200E+02  0.1200E+02
    -12.082  0.0000E+00  0.0000E+00  0.1200E+02  0.1200E+02
    -11.956  0.0000E+00  0.0000E+00  0.1200E+02  0.1200E+02
    -11.830  0.0000E+00  0.0000E+00  0.1200E+02  0.1200E+02
    -11.704  0.0000E+00  0.0000E+00  0.1200E+02  0.1200E+02
    -11.578  0.0000E+00  0.0000E+00  0.1200E+02  0.1200E+02
    -11.453  0.0000E+00  0.0000E+00  0.1200E+02  0.1200E+02
    -11.327  0.0000E+00  0.0000E+00  0.1200E+02  0.1200E+02
    -11.201  0.0000E+00  0.0000E+00  0.1200E+02  0.1200E+02
    -11.075  0.0000E+00  0.0000E+00  0.1200E+02  0.1200E+02
    -10.949  0.0000E+00  0.0000E+00  0.1200E+02  0.1200E+02
    -10.823  0.0000E+00  0.0000E+00  0.1200E+02  0.1200E+02
    -10.697  0.0000E+00  0.0000E+00  0.1200E+02  0.1200E+02
    -10.571  0.0000E+00  0.0000E+00  0.1200E+02  0.1200E+02
    -10.445  0.0000E+00  0.0000E+00  0.1200E+02  0.1200E+02
    -10.319  0.0000E+00  0.0000E+00  0.1200E+02  0.1200E+02
    -10.193  0.0000E+00  0.0000E+00  0.1200E+02  0.1200E+02
    -10.067  0.0000E+00  0.0000E+00  0.1200E+02  0.1200E+02
     -9.941  0.0000E+00  0.0000E+00  0.1200E+02  0.1200E+02
     -9.815  0.0000E+00  0.0000E+00  0.1200E+02  0.1200E+02
     -9.689  0.0000E+00  0.0000E+00  0.1200E+02  0.1200E+02
     -9.563  0.0000E+00  0.0000E+00  0.1200E+02  0.1200E+02
     -9.437  0.0000E+00  0.0000E+00  0.1200E+02  0.1200E+02
     -9.311  0.0000E+00  0.0000E+00  0.1200E+02  0.1200E+02
     -9.185  0.0000E+00  0.0000E+00  0.1200E+02  0.1200E+02
     -9.059  0.0000E+00  0.0000E+00  0.1200E+02  0.1200E+02
     -8.933  0.0000E+00  0.0000E+00  0.1200E+02  0.1200E+02
     -8.807  0.0000E+00  0.0000E+00  0.1200E+02  0.1200E+02
     -8.681  0.0000E+00  0.0000E+00  0.1200E+02  0.1200E+02
     -8.556  0.0000E+00  0.0000E+00  0.1200E+02  0.1200E+02
     -8.430  0.0000E+00  0.0000E+00  0.1200E+02  0.1200E+02
     -8.304  0.0000E+00  0.0000E+00  0.1200E+02  0.1200E+02
     -8.178  0.0000E+00  0.0000E+00  0.1200E+02  0.1200E+02
     -8.052  0.0000E+00  0.0000E+00  0.1200E+02  0.1200E+02
     -7.926  0.0000E+00  0.0000E+00  0.1200E+02  0.1200E+02
     -7.800  0.0000E+00  0.0000E+00  0.1200E+02  0.1200E+02
     -7.674  0.0000E+00  0.0000E+00  0.1200E+02  0.1200E+02
     -7.548  0.0000E+00  0.0000E+00  0.1200E+02  0.1200E+02
     -7.422  0.0000E+00  0.0000E+00  0.1200E+02  0.1200E+02
     -7.296  0.0000E+00  0.0000E+00  0.1200E+02  0.1200E+02
     -7.170  0.0000E+00  0.0000E+00  0.1200E+02  0.1200E+02
     -7.044  0.0000E+00  0.0000E+00  0.1200E+02  0.1200E+02
     -6.918  0.0000E+00  0.0000E+00  0.1200E+02  0.1200E+02
     -6.792  0.0000E+00  0.0000E+00  0.1200E+02  0.1200E+02
     -6.666  0.0000E+00  0.0000E+00  0.1200E+02  0.1200E+02
     -6.540  0.0000E+00  0.0000E+00  0.1200E+02  0.1200E+02
     -6.414  0.0000E+00  0.0000E+00  0.1200E+02  0.1200E+02
     -6.288  0.0000E+00  0.0000E+00  0.1200E+02  0.1200E+02
     -6.162  0.0000E+00  0.0000E+00  0.1200E+02  0.1200E+02
     -6.036  0.0000E+00  0.0000E+00  0.1200E+02  0.1200E+02
     -5.910  0.0000E+00  0.0000E+00  0.1200E+02  0.1200E+02
     -5.784  0.0000E+00  0.0000E+00  0.1200E+02  0.1200E+02
     -5.659  0.0000E+00  0.0000E+00  0.1200E+02  0.1200E+02
     -5.533  0.0000E+00  0.0000E+00  0.1200E+02  0.1200E+02
     -5.407  0.0000E+00  0.0000E+00  0.1200E+02  0.1200E+02
     -5.281  0.0000E+00  0.0000E+00  0.1200E+02  0.1200E+02
     -5.155  0.0000E+00  0.0000E+00  0.1200E+02  0.1200E+02
     -5.029  0.0000E+00  0.0000E+00  0.1200E+02  0.1200E+02
     -4.903  0.0000E+00  0.0000E+00  0.1200E+02  0.1200E+02
     -4.777  0.0000E+00  0.0000E+00  0.1200E+02  0.1200E+02
     -4.651  0.0000E+00  0.0000E+00  0.1200E+02  0.1200E+02
     -4.525  0.0000E+00  0.0000E+00  0.1200E+02  0.1200E+02
     -4.399  0.0000E+00  0.0000E+00  0.1200E+02  0.1200E+02
     -4.273  0.0000E+00  0.0000E+00  0.1200E+02  0.1200E+02
     -4.147  0.0000E+00  0.0000E+00  0.1200E+02  0.1200E+02
     -4.021  0.0000E+00  0.0000E+00  0.1200E+02  0.1200E+02
     -3.895  0.0000E+00  0.0000E+00  0.1200E+02  0.1200E+02
     -3.769  0.0000E+00  0.0000E+00  0.1200E+02  0.1200E+02
     -3.643  0.0000E+00  0.0000E+00  0.1200E+02  0.1200E+02
     -3.517  0.0000E+00  0.0000E+00  0.1200E+02  0.1200E+02
     -3.391  0.0000E+00  0.0000E+00  0.1200E+02  0.1200E+02
     -3.265  0.0000E+00  0.0000E+00  0.1200E+02  0.1200E+02
     -3.139  0.0000E+00  0.0000E+00  0.1200E+02  0.1200E+02
     -3.013  0.0000E+00  0.0000E+00  0.1200E+02  0.1200E+02
     -2.887  0.0000E+00  0.0000E+00  0.1200E+02  0.1200E+02
     -2.762  0.9743E-06  0.9569E-06  0.1200E+02  0.1200E+02
     -2.636  0.3530E-04  0.3467E-04  0.1200E+02  0.1200E+02
     -2.510  0.4296E-03  0.4203E-03  0.1200E+02  0.1200E+02
     -2.384  0.5100E-02  0.5015E-02  0.1200E+02  0.1200E+02
     -2.258  0.4411E-01  0.4354E-01  0.1201E+02  0.1201E+02
     -2.132  0.1667E+00  0.1657E+00  0.1203E+02  0.1203E+02
     -2.006  0.2588E+00  0.2583E+00  0.1206E+02  0.1206E+02
     -1.880  0.4013E+00  0.4000E+00  0.1211E+02  0.1211E+02
     -1.754  0.4187E+00  0.4195E+00  0.1216E+02  0.1216E+02
     -1.628  0.4738E+00  0.4723E+00  0.1222E+02  0.1222E+02
     -1.502  0.5877E+00  0.5878E+00  0.1230E+02  0.1230E+02
     -1.376  0.5863E+00  0.5858E+00  0.1237E+02  0.1237E+02
     -1.250  0.6396E+00  0.6399E+00  0.1245E+02  0.1245E+02
     -1.124  0.5879E+00  0.5871E+00  0.1253E+02  0.1253E+02
     -0.998  0.8325E+00  0.8314E+00  0.1263E+02  0.1263E+02
     -0.872  0.8399E+00  0.8395E+00  0.1274E+02  0.1274E+02
     -0.746  0.9208E+00  0.9217E+00  0.1285E+02  0.1285E+02
     -0.620  0.6683E+00  0.6686E+00  0.1294E+02  0.1294E+02
     -0.494  0.9206E+00  0.9179E+00  0.1305E+02  0.1305E+02
     -0.368  0.1138E+01  0.1138E+01  0.1320E+02  0.1320E+02
     -0.242  0.1144E+01  0.1144E+01  0.1334E+02  0.1334E+02
     -0.116  0.1048E+01  0.1050E+01  0.1347E+02  0.1347E+02
      0.010  0.1069E+01  0.1068E+01  0.1361E+02  0.1361E+02
      0.135  0.1190E+01  0.1189E+01  0.1376E+02  0.1376E+02
      0.261  0.1253E+01  0.1253E+01  0.1392E+02  0.1391E+02
      0.387  0.1289E+01  0.1287E+01  0.1408E+02  0.1408E+02
      0.513  0.1736E+01  0.1735E+01  0.1430E+02  0.1430E+02
      0.639  0.1491E+01  0.1493E+01  0.1449E+02  0.1448E+02
      0.765  0.1293E+01  0.1295E+01  0.1465E+02  0.1465E+02
      0.891  0.1349E+01  0.1346E+01  0.1482E+02  0.1482E+02
      1.017  0.1716E+01  0.1715E+01  0.1504E+02  0.1503E+02
      1.143  0.1870E+01  0.1870E+01  0.1527E+02  0.1527E+02
      1.269  0.1778E+01  0.1779E+01  0.1550E+02  0.1549E+02
      1.395  0.1736E+01  0.1737E+01  0.1571E+02  0.1571E+02
      1.521  0.1403E+01  0.1404E+01  0.1589E+02  0.1589E+02
      1.647  0.1552E+01  0.1551E+01  0.1609E+02  0.1609E+02
      1.773  0.1488E+01  0.1492E+01  0.1628E+02  0.1627E+02
      1.899  0.1101E+01  0.1101E+01  0.1641E+02  0.1641E+02
      2.025  0.1622E+01  0.1617E+01  0.1662E+02  0.1662E+02
      2.151  0.2217E+01  0.2215E+01  0.1690E+02  0.1690E+02
      2.277  0.2158E+01  0.2160E+01  0.1717E+02  0.1717E+02
      2.403  0.2149E+01  0.2147E+01  0.1744E+02  0.1744E+02
      2.529  0.2081E+01  0.2083E+01  0.1770E+02  0.1770E+02
      2.655  0.2093E+01  0.2092E+01  0.1797E+02  0.1797E+02
      2.781  0.2086E+01  0.2087E+01  0.1823E+02  0.1823E+02
      2.907  0.2007E+01  0.2007E+01  0.1848E+02  0.1848E+02
      3.033  0.2026E+01  0.2024E+01  0.1874E+02  0.1874E+02
      3.158  0.2204E+01  0.2205E+01  0.1902E+02  0.1902E+02
      3.284  0.1907E+01  0.1908E+01  0.1926E+02  0.1926E+02
      3.410  0.1838E+01  0.1839E+01  0.1949E+02  0.1949E+02
      3.536  0.1670E+01  0.1672E+01  0.1970E+02  0.1970E+02
      3.662  0.1792E+01  0.1789E+01  0.1993E+02  0.1993E+02
      3.788  0.2526E+01  0.2519E+01  0.2025E+02  0.2024E+02
      3.914  0.3463E+01  0.3462E+01  0.2068E+02  0.2068E+02
      4.040  0.2954E+01  0.2959E+01  0.2105E+02  0.2105E+02
      4.166  0.2595E+01  0.2596E+01  0.2138E+02  0.2138E+02
      4.292  0.2652E+01  0.2651E+01  0.2172E+02  0.2171E+02
      4.418  0.2306E+01  0.2311E+01  0.2201E+02  0.2201E+02
      4.544  0.1436E+01  0.1437E+01  0.2219E+02  0.2219E+02
      4.670  0.2067E+01  0.2060E+01  0.2245E+02  0.2245E+02
      4.796  0.3152E+01  0.3150E+01  0.2285E+02  0.2285E+02
      4.922  0.2992E+01  0.2995E+01  0.2322E+02  0.2322E+02
      5.048  0.2726E+01  0.2724E+01  0.2357E+02  0.2357E+02
      5.174  0.2901E+01  0.2900E+01  0.2393E+02  0.2393E+02
      5.300  0.3328E+01  0.3326E+01  0.2435E+02  0.2435E+02
      5.426  0.3336E+01  0.3338E+01  0.2477E+02  0.2477E+02
      5.552  0.3127E+01  0.3127E+01  0.2517E+02  0.2517E+02
      5.678  0.3362E+01  0.3360E+01  0.2559E+02  0.2559E+02
      5.804  0.3316E+01  0.3317E+01  0.2601E+02  0.2601E+02
      5.930  0.3476E+01  0.3475E+01  0.2645E+02  0.2645E+02
      6.055  0.3335E+01  0.3334E+01  0.2687E+02  0.2687E+02
      6.181  0.3955E+01  0.3950E+01  0.2737E+02  0.2737E+02
      6.307  0.4704E+01  0.4702E+01  0.2796E+02  0.2796E+02
      6.433  0.4311E+01  0.4315E+01  0.2851E+02  0.2850E+02
      6.559  0.4439E+01  0.4436E+01  0.2907E+02  0.2906E+02
      6.685  0.3868E+01  0.3878E+01  0.2955E+02  0.2955E+02
      6.811  0.3139E+01  0.3138E+01  0.2995E+02  0.2995E+02
      6.937  0.3846E+01  0.3841E+01  0.3044E+02  0.3043E+02
      7.063  0.4538E+01  0.4535E+01  0.3101E+02  0.3100E+02
      7.189  0.5037E+01  0.5035E+01  0.3164E+02  0.3164E+02
      7.315  0.5551E+01  0.5549E+01  0.3234E+02  0.3234E+02
      7.441  0.5751E+01  0.5750E+01  0.3307E+02  0.3306E+02
      7.567  0.5397E+01  0.5402E+01  0.3375E+02  0.3375E+02
      7.693  0.4269E+01  0.4275E+01  0.3429E+02  0.3428E+02
      7.819  0.3387E+01  0.3390E+01  0.3472E+02  0.3471E+02
      7.945  0.2976E+01  0.2977E+01  0.3509E+02  0.3509E+02
      8.071  0.3248E+01  0.3245E+01  0.3550E+02  0.3550E+02
      8.197  0.3606E+01  0.3606E+01  0.3596E+02  0.3595E+02
      8.323  0.3360E+01  0.3363E+01  0.3638E+02  0.3638E+02
      8.449  0.2701E+01  0.2704E+01  0.3672E+02  0.3672E+02
      8.575  0.2096E+01  0.2099E+01  0.3699E+02  0.3698E+02
      8.701  0.1699E+01  0.1699E+01  0.3720E+02  0.3720E+02
      8.827  0.1779E+01  0.1779E+01  0.3742E+02  0.3742E+02
      8.952  0.1806E+01  0.1807E+01  0.3765E+02  0.3765E+02
      9.078  0.1717E+01  0.1716E+01  0.3787E+02  0.3787E+02
      9.204  0.1927E+01  0.1926E+01  0.3811E+02  0.3811E+02
      9.330  0.2104E+01  0.2104E+01  0.3838E+02  0.3838E+02
      9.456  0.1939E+01  0.1939E+01  0.3862E+02  0.3862E+02
      9.582  0.2096E+01  0.2094E+01  0.3889E+02  0.3888E+02
      9.708  0.2509E+01  0.2508E+01  0.3920E+02  0.3920E+02
      9.834  0.2502E+01  0.2502E+01  0.3952E+02  0.3952E+02
      9.960  0.2395E+01  0.2396E+01  0.3982E+02  0.3982E+02
     10.086  0.2169E+01  0.2168E+01  0.4009E+02  0.4009E+02
     10.212  0.2500E+01  0.2498E+01  0.4041E+02  0.4041E+02
     10.338  0.3014E+01  0.3011E+01  0.4079E+02  0.4079E+02
     10.464  0.3893E+01  0.3889E+01  0.4128E+02  0.4128E+02
     10.590  0.3915E+01  0.3918E+01  0.4177E+02  0.4177E+02
     10.716  0.3791E+01  0.3788E+01  0.4225E+02  0.4225E+02
     10.842  0.4676E+01  0.4674E+01  0.4284E+02  0.4284E+02
     10.968  0.4216E+01  0.4219E+01  0.4337E+02  0.4337E+02
     11.094  0.4024E+01  0.4023E+01  0.4388E+02  0.4388E+02
     11.220  0.4554E+01  0.4554E+01  0.4446E+02  0.4445E+02
     11.346  0.4555E+01  0.4557E+01  0.4503E+02  0.4503E+02
     11.472  0.4453E+01  0.4455E+01  0.4559E+02  0.4559E+02
     11.598  0.4276E+01  0.4278E+01  0.4613E+02  0.4613E+02
     11.724  0.4016E+01  0.4022E+01  0.4664E+02  0.4664E+02
     11.849  0.3672E+01  0.3684E+01  0.4710E+02  0.4710E+02
     11.975  0.3929E+01  0.3960E+01  0.4760E+02  0.4760E+02
     12.101  0.4102E+01  0.4136E+01  0.4811E+02  0.4812E+02
     12.227  0.4513E+01  0.4516E+01  0.4868E+02  0.4869E+02
     12.353  0.4415E+01  0.4357E+01  0.4924E+02  0.4924E+02
     12.479  0.4752E+01  0.4647E+01  0.4984E+02  0.4983E+02
     12.605  0.4250E+01  0.4334E+01  0.5038E+02  0.5037E+02
     12.731  0.4031E+01  0.4069E+01  0.5088E+02  0.5089E+02
     12.857  0.3122E+01  0.3107E+01  0.5128E+02  0.5128E+02
     12.983  0.2262E+01  0.2325E+01  0.5156E+02  0.5157E+02
     13.109  0.1834E+01  0.1817E+01  0.5180E+02  0.5180E+02
     13.235  0.9982E+00  0.9429E+00  0.5192E+02  0.5192E+02
     13.361  0.3679E+00  0.4560E+00  0.5197E+02  0.5198E+02
     13.487  0.1936E+00  0.1274E+00  0.5199E+02  0.5200E+02
     13.613  0.3904E-01  0.1754E-01  0.5200E+02  0.5200E+02
     13.739  0.3493E-02  0.8733E-03  0.5200E+02  0.5200E+02
     13.865  0.0000E+00  0.0000E+00  0.5200E+02  0.5200E+02
     13.991  0.0000E+00  0.0000E+00  0.5200E+02  0.5200E+02
     14.117  0.0000E+00  0.0000E+00  0.5200E+02  0.5200E+02
     14.243  0.0000E+00  0.0000E+00  0.5200E+02  0.5200E+02
     14.369  0.0000E+00  0.0000E+00  0.5200E+02  0.5200E+02
     14.495  0.0000E+00  0.0000E+00  0.5200E+02  0.5200E+02
     14.621  0.0000E+00  0.0000E+00  0.5200E+02  0.5200E+02
     14.747  0.0000E+00  0.0000E+00  0.5200E+02  0.5200E+02
     14.872  0.0000E+00  0.0000E+00  0.5200E+02  0.5200E+02
     14.998  0.0000E+00  0.0000E+00  0.5200E+02  0.5200E+02
     15.124  0.0000E+00  0.0000E+00  0.5200E+02  0.5200E+02
     15.12437107    -22.66270388  301      9.14883160      1.00000000
    -22.663  0.0000E+00  0.0000E+00  0.0000E+00  0.0000E+00  0.0000E+00  0.0000E+00  0.0000E+00  0.0000E+00  0.0000E+00  0.0000E+00  0.0000E+00  0.0000E+00  0.0000E+00  0.0000E+00  0.0000E+00  0.0000E+00  0.0000E+00  0.0000E+00
    -22.537  0.0000E+00  0.0000E+00  0.0000E+00  0.0000E+00  0.0000E+00  0.0000E+00  0.0000E+00  0.0000E+00  0.0000E+00  0.0000E+00  0.0000E+00  0.0000E+00  0.0000E+00  0.0000E+00  0.0000E+00  0.0000E+00  0.0000E+00  0.0000E+00
    -22.411  0.0000E+00  0.0000E+00  0.0000E+00  0.0000E+00  0.0000E+00  0.0000E+00  0.0000E+00  0.0000E+00  0.0000E+00  0.0000E+00  0.0000E+00  0.0000E+00  0.0000E+00  0.0000E+00  0.0000E+00  0.0000E+00  0.0000E+00  0.0000E+00
    -22.285  0.0000E+00  0.0000E+00  0.0000E+00  0.0000E+00  0.0000E+00  0.0000E+00  0.0000E+00  0.0000E+00  0.0000E+00  0.0000E+00  0.0000E+00  0.0000E+00  0.0000E+00  0.0000E+00  0.0000E+00  0.0000E+00  0.0000E+00  0.0000E+00
    -22.159  0.0000E+00  0.0000E+00  0.0000E+00  0.0000E+00  0.0000E+00  0.0000E+00  0.0000E+00  0.0000E+00  0.0000E+00  0.0000E+00  0.0000E+00  0.0000E+00  0.0000E+00  0.0000E+00  0.0000E+00  0.0000E+00  0.0000E+00  0.0000E+00
    -22.033  0.0000E+00  0.0000E+00  0.0000E+00  0.0000E+00  0.0000E+00  0.0000E+00  0.0000E+00  0.0000E+00  0.0000E+00  0.0000E+00  0.0000E+00  0.0000E+00  0.0000E+00  0.0000E+00  0.0000E+00  0.0000E+00  0.0000E+00  0.0000E+00
    -21.907  0.0000E+00  0.0000E+00  0.0000E+00  0.0000E+00  0.0000E+00  0.0000E+00  0.0000E+00  0.0000E+00  0.0000E+00  0.0000E+00  0.0000E+00  0.0000E+00  0.0000E+00  0.0000E+00  0.0000E+00  0.0000E+00  0.0000E+00  0.0000E+00
    -21.781  0.0000E+00  0.0000E+00  0.0000E+00  0.0000E+00  0.0000E+00  0.0000E+00  0.0000E+00  0.0000E+00  0.0000E+00  0.0000E+00  0.0000E+00  0.0000E+00  0.0000E+00  0.0000E+00  0.0000E+00  0.0000E+00  0.0000E+00  0.0000E+00
    -21.655  0.0000E+00  0.0000E+00  0.0000E+00  0.0000E+00  0.0000E+00  0.0000E+00  0.0000E+00  0.0000E+00  0.0000E+00  0.0000E+00  0.0000E+00  0.0000E+00  0.0000E+00  0.0000E+00  0.0000E+00  0.0000E+00  0.0000E+00  0.0000E+00
    -21.529  0.0000E+00  0.0000E+00  0.0000E+00  0.0000E+00  0.0000E+00  0.0000E+00  0.0000E+00  0.0000E+00  0.0000E+00  0.0000E+00  0.0000E+00  0.0000E+00  0.0000E+00  0.0000E+00  0.0000E+00  0.0000E+00  0.0000E+00  0.0000E+00
    -21.403  0.1685E-08  0.1682E-08  0.2422E-03  0.2418E-03  0.2624E-06  0.2625E-06  0.2422E-03  0.2418E-03  0.1717E-09  0.1716E-09  0.1940E-08  0.1937E-08  0.6075E-09  0.6055E-09  0.1940E-08  0.1937E-08  0.1703E-08  0.1698E-08
    -21.277  0.3581E-07  0.3574E-07  0.3477E-02  0.3471E-02  0.1109E-02  0.1108E-02  0.3477E-02  0.3471E-02  0.2208E-08  0.2207E-08  0.2768E-07  0.2764E-07  0.2117E-07  0.2113E-07  0.2768E-07  0.2764E-07  0.2796E-07  0.2787E-07
    -21.151  0.4257E-06  0.4249E-06  0.4209E-01  0.4202E-01  0.1263E-01  0.1262E-01  0.4209E-01  0.4202E-01  0.2691E-07  0.2689E-07  0.3351E-06  0.3346E-06  0.2476E-06  0.2470E-06  0.3351E-06  0.3346E-06  0.3364E-06  0.3354E-06
    -21.025  0.4946E-05  0.4937E-05  0.4719E+00  0.4711E+00  0.1529E+00  0.1527E+00  0.4719E+00  0.4711E+00  0.2984E-06  0.2983E-06  0.3750E-05  0.3746E-05  0.2916E-05  0.2910E-05  0.3750E-05  0.3746E-05  0.3864E-05  0.3853E-05
    -20.899  0.3555E-04  0.3551E-04  0.2752E+01  0.2750E+01  0.1446E+01  0.1445E+01  0.2752E+01  0.2750E+01  0.1595E-05  0.1595E-05  0.2169E-04  0.2168E-04  0.2302E-04  0.2298E-04  0.2169E-04  0.2168E-04  0.2539E-04  0.2534E-04
    -20.773  0.6058E-04  0.6057E-04  0.3531E+01  0.3533E+01  0.4172E+01  0.4171E+01  0.3531E+01  0.3533E+01  0.1626E-05  0.1628E-05  0.2759E-04  0.2761E-04  0.4517E-04  0.4515E-04  0.2759E-04  0.2761E-04  0.3420E-04  0.3418E-04
    -20.647  0.1731E-04  0.1732E-04  0.8852E+00  0.8864E+00  0.1776E+01  0.1777E+01  0.8852E+00  0.8864E+00  0.3427E-06  0.3435E-06  0.6944E-05  0.6955E-05  0.1330E-04  0.1331E-04  0.6944E-05  0.6955E-05  0.7714E-05  0.7716E-05
    -20.521  0.1739E-05  0.1741E-05  0.8103E-01  0.8122E-01  0.2014E+00  0.2016E+00  0.8103E-01  0.8122E-01  0.2795E-07  0.2803E-07  0.6375E-06  0.6390E-06  0.1331E-05  0.1331E-05  0.6375E-06  0.6390E-06  0.7065E-06  0.7069E-06
    -20.395  0.0000E+00  0.0000E+00  0.0000E+00  0.0000E+00  0.0000E+00  0.0000E+00  0.0000E+00  0.0000E+00  0.0000E+00  0.0000E+00  0.0000E+00  0.0000E+00  0.0000E+00  0.0000E+00  0.0000E+00  0.0000E+00  0.0000E+00  0.0000E+00
    -20.270  0.0000E+00  0.0000E+00  0.0000E+00  0.0000E+00  0.0000E+00  0.0000E+00  0.0000E+00  0.0000E+00  0.0000E+00  0.0000E+00  0.0000E+00  0.0000E+00  0.0000E+00  0.0000E+00  0.0000E+00  0.0000E+00  0.0000E+00  0.0000E+00
    -20.144  0.0000E+00  0.0000E+00  0.0000E+00  0.0000E+00  0.0000E+00  0.0000E+00  0.0000E+00  0.0000E+00  0.0000E+00  0.0000E+00  0.0000E+00  0.0000E+00  0.0000E+00  0.0000E+00  0.0000E+00  0.0000E+00  0.0000E+00  0.0000E+00
    -20.018  0.0000E+00  0.0000E+00  0.0000E+00  0.0000E+00  0.0000E+00  0.0000E+00  0.0000E+00  0.0000E+00  0.0000E+00  0.0000E+00  0.0000E+00  0.0000E+00  0.0000E+00  0.0000E+00  0.0000E+00  0.0000E+00  0.0000E+00  0.0000E+00
    -19.892  0.0000E+00  0.0000E+00  0.0000E+00  0.0000E+00  0.0000E+00  0.0000E+00  0.0000E+00  0.0000E+00  0.0000E+00  0.0000E+00  0.0000E+00  0.0000E+00  0.0000E+00  0.0000E+00  0.0000E+00  0.0000E+00  0.0000E+00  0.0000E+00
    -19.766  0.0000E+00  0.0000E+00  0.0000E+00  0.0000E+00  0.0000E+00  0.0000E+00  0.0000E+00  0.0000E+00  0.0000E+00  0.0000E+00  0.0000E+00  0.0000E+00  0.0000E+00  0.0000E+00  0.0000E+00  0.0000E+00  0.0000E+00  0.0000E+00
    -19.640  0.0000E+00  0.0000E+00  0.0000E+00  0.0000E+00  0.0000E+00  0.0000E+00  0.0000E+00  0.0000E+00  0.0000E+00  0.0000E+00  0.0000E+00  0.0000E+00  0.0000E+00  0.0000E+00  0.0000E+00  0.0000E+00  0.0000E+00  0.0000E+00
    -19.514  0.0000E+00  0.0000E+00  0.0000E+00  0.0000E+00  0.0000E+00  0.0000E+00  0.0000E+00  0.0000E+00  0.0000E+00  0.0000E+00  0.0000E+00  0.0000E+00  0.0000E+00  0.0000E+00  0.0000E+00  0.0000E+00  0.0000E+00  0.0000E+00
    -19.388  0.0000E+00  0.0000E+00  0.0000E+00  0.0000E+00  0.0000E+00  0.0000E+00  0.0000E+00  0.0000E+00  0.0000E+00  0.0000E+00  0.0000E+00  0.0000E+00  0.0000E+00  0.0000E+00  0.0000E+00  0.0000E+00  0.0000E+00  0.0000E+00
    -19.262  0.0000E+00  0.0000E+00  0.0000E+00  0.0000E+00  0.0000E+00  0.0000E+00  0.0000E+00  0.0000E+00  0.0000E+00  0.0000E+00  0.0000E+00  0.0000E+00  0.0000E+00  0.0000E+00  0.0000E+00  0.0000E+00  0.0000E+00  0.0000E+00
    -19.136  0.0000E+00  0.0000E+00  0.0000E+00  0.0000E+00  0.0000E+00  0.0000E+00  0.0000E+00  0.0000E+00  0.0000E+00  0.0000E+00  0.0000E+00  0.0000E+00  0.0000E+00  0.0000E+00  0.0000E+00  0.0000E+00  0.0000E+00  0.0000E+00
    -19.010  0.0000E+00  0.0000E+00  0.0000E+00  0.0000E+00  0.0000E+00  0.0000E+00  0.0000E+00  0.0000E+00  0.0000E+00  0.0000E+00  0.0000E+00  0.0000E+00  0.0000E+00  0.0000E+00  0.0000E+00  0.0000E+00  0.0000E+00  0.0000E+00
    -18.884  0.0000E+00  0.0000E+00  0.0000E+00  0.0000E+00  0.0000E+00  0.0000E+00  0.0000E+00  0.0000E+00  0.0000E+00  0.0000E+00  0.0000E+00  0.0000E+00  0.0000E+00  0.0000E+00  0.0000E+00  0.0000E+00  0.0000E+00  0.0000E+00
    -18.758  0.0000E+00  0.0000E+00  0.0000E+00  0.0000E+00  0.0000E+00  0.0000E+00  0.0000E+00  0.0000E+00  0.0000E+00  0.0000E+00  0.0000E+00  0.0000E+00  0.0000E+00  0.0000E+00  0.0000E+00  0.0000E+00  0.0000E+00  0.0000E+00
    -18.632  0.0000E+00  0.0000E+00  0.0000E+00  0.0000E+00  0.0000E+00  0.0000E+00  0.0000E+00  0.0000E+00  0.0000E+00  0.0000E+00  0.0000E+00  0.0000E+00  0.0000E+00  0.0000E+00  0.0000E+00  0.0000E+00  0.0000E+00  0.0000E+00
    -18.506  0.0000E+00  0.0000E+00  0.0000E+00  0.0000E+00  0.0000E+00  0.0000E+00  0.0000E+00  0.0000E+00  0.0000E+00  0.0000E+00  0.0000E+00  0.0000E+00  0.0000E+00  0.0000E+00  0.0000E+00  0.0000E+00  0.0000E+00  0.0000E+00
    -18.380  0.0000E+00  0.0000E+00  0.0000E+00  0.0000E+00  0.0000E+00  0.0000E+00  0.0000E+00  0.0000E+00  0.0000E+00  0.0000E+00  0.0000E+00  0.0000E+00  0.0000E+00  0.0000E+00  0.0000E+00  0.0000E+00  0.0000E+00  0.0000E+00
    -18.254  0.0000E+00  0.0000E+00  0.0000E+00  0.0000E+00  0.0000E+00  0.0000E+00  0.0000E+00  0.0000E+00  0.0000E+00  0.0000E+00  0.0000E+00  0.0000E+00  0.0000E+00  0.0000E+00  0.0000E+00  0.0000E+00  0.0000E+00  0.0000E+00
    -18.128  0.0000E+00  0.0000E+00  0.0000E+00  0.0000E+00  0.0000E+00  0.0000E+00  0.0000E+00  0.0000E+00  0.0000E+00  0.0000E+00  0.0000E+00  0.0000E+00  0.0000E+00  0.0000E+00  0.0000E+00  0.0000E+00  0.0000E+00  0.0000E+00
    -18.002  0.0000E+00  0.0000E+00  0.0000E+00  0.0000E+00  0.0000E+00  0.0000E+00  0.0000E+00  0.0000E+00  0.0000E+00  0.0000E+00  0.0000E+00  0.0000E+00  0.0000E+00  0.0000E+00  0.0000E+00  0.0000E+00  0.0000E+00  0.0000E+00
    -17.876  0.0000E+00  0.0000E+00  0.0000E+00  0.0000E+00  0.0000E+00  0.0000E+00  0.0000E+00  0.0000E+00  0.0000E+00  0.0000E+00  0.0000E+00  0.0000E+00  0.0000E+00  0.0000E+00  0.0000E+00  0.0000E+00  0.0000E+00  0.0000E+00
    -17.750  0.0000E+00  0.0000E+00  0.0000E+00  0.0000E+00  0.0000E+00  0.0000E+00  0.0000E+00  0.0000E+00  0.0000E+00  0.0000E+00  0.0000E+00  0.0000E+00  0.0000E+00  0.0000E+00  0.0000E+00  0.0000E+00  0.0000E+00  0.0000E+00
    -17.624  0.0000E+00  0.0000E+00  0.0000E+00  0.0000E+00  0.0000E+00  0.0000E+00  0.0000E+00  0.0000E+00  0.0000E+00  0.0000E+00  0.0000E+00  0.0000E+00  0.0000E+00  0.0000E+00  0.0000E+00  0.0000E+00  0.0000E+00  0.0000E+00
    -17.498  0.0000E+00  0.0000E+00  0.0000E+00  0.0000E+00  0.0000E+00  0.0000E+00  0.0000E+00  0.0000E+00  0.0000E+00  0.0000E+00  0.0000E+00  0.0000E+00  0.0000E+00  0.0000E+00  0.0000E+00  0.0000E+00  0.0000E+00  0.0000E+00
    -17.373  0.0000E+00  0.0000E+00  0.0000E+00  0.0000E+00  0.0000E+00  0.0000E+00  0.0000E+00  0.0000E+00  0.0000E+00  0.0000E+00  0.0000E+00  0.0000E+00  0.0000E+00  0.0000E+00  0.0000E+00  0.0000E+00  0.0000E+00  0.0000E+00
    -17.247  0.0000E+00  0.0000E+00  0.0000E+00  0.0000E+00  0.0000E+00  0.0000E+00  0.0000E+00  0.0000E+00  0.0000E+00  0.0000E+00  0.0000E+00  0.0000E+00  0.0000E+00  0.0000E+00  0.0000E+00  0.0000E+00  0.0000E+00  0.0000E+00
    -17.121  0.0000E+00  0.0000E+00  0.0000E+00  0.0000E+00  0.0000E+00  0.0000E+00  0.0000E+00  0.0000E+00  0.0000E+00  0.0000E+00  0.0000E+00  0.0000E+00  0.0000E+00  0.0000E+00  0.0000E+00  0.0000E+00  0.0000E+00  0.0000E+00
    -16.995  0.0000E+00  0.0000E+00  0.0000E+00  0.0000E+00  0.0000E+00  0.0000E+00  0.0000E+00  0.0000E+00  0.0000E+00  0.0000E+00  0.0000E+00  0.0000E+00  0.0000E+00  0.0000E+00  0.0000E+00  0.0000E+00  0.0000E+00  0.0000E+00
    -16.869  0.0000E+00  0.0000E+00  0.0000E+00  0.0000E+00  0.0000E+00  0.0000E+00  0.0000E+00  0.0000E+00  0.0000E+00  0.0000E+00  0.0000E+00  0.0000E+00  0.0000E+00  0.0000E+00  0.0000E+00  0.0000E+00  0.0000E+00  0.0000E+00
    -16.743  0.0000E+00  0.0000E+00  0.0000E+00  0.0000E+00  0.0000E+00  0.0000E+00  0.0000E+00  0.0000E+00  0.0000E+00  0.0000E+00  0.0000E+00  0.0000E+00  0.0000E+00  0.0000E+00  0.0000E+00  0.0000E+00  0.0000E+00  0.0000E+00
    -16.617  0.0000E+00  0.0000E+00  0.0000E+00  0.0000E+00  0.0000E+00  0.0000E+00  0.0000E+00  0.0000E+00  0.0000E+00  0.0000E+00  0.0000E+00  0.0000E+00  0.0000E+00  0.0000E+00  0.0000E+00  0.0000E+00  0.0000E+00  0.0000E+00
    -16.491  0.0000E+00  0.0000E+00  0.0000E+00  0.0000E+00  0.0000E+00  0.0000E+00  0.0000E+00  0.0000E+00  0.0000E+00  0.0000E+00  0.0000E+00  0.0000E+00  0.0000E+00  0.0000E+00  0.0000E+00  0.0000E+00  0.0000E+00  0.0000E+00
    -16.365  0.0000E+00  0.0000E+00  0.0000E+00  0.0000E+00  0.0000E+00  0.0000E+00  0.0000E+00  0.0000E+00  0.0000E+00  0.0000E+00  0.0000E+00  0.0000E+00  0.0000E+00  0.0000E+00  0.0000E+00  0.0000E+00  0.0000E+00  0.0000E+00