  16  16   1   0
  0.1989991E+02  0.4199903E-09  0.4199903E-09  0.1805063E-08  0.5000000E-15
  1.000000000000000E-004
  CAR 
 unknown system                          
     10.79475683    -26.69197437  301      6.07610316      1.00000000
    -26.692  0.0000E+00  0.0000E+00  0.0000E+00  0.0000E+00
    -26.567  0.0000E+00  0.0000E+00  0.0000E+00  0.0000E+00
    -26.442  0.0000E+00  0.0000E+00  0.0000E+00  0.0000E+00
    -26.317  0.0000E+00  0.0000E+00  0.0000E+00  0.0000E+00
    -26.192  0.0000E+00  0.0000E+00  0.0000E+00  0.0000E+00
    -26.067  0.0000E+00  0.0000E+00  0.0000E+00  0.0000E+00
    -25.942  0.0000E+00  0.0000E+00  0.0000E+00  0.0000E+00
    -25.817  0.0000E+00  0.0000E+00  0.0000E+00  0.0000E+00
    -25.692  0.0000E+00  0.0000E+00  0.0000E+00  0.0000E+00
    -25.567  0.0000E+00  0.0000E+00  0.0000E+00  0.0000E+00
    -25.442  0.6838E-02  0.6845E-02  0.8544E-03  0.8554E-03
    -25.317  0.7632E-01  0.7640E-01  0.1039E-01  0.1040E-01
    -25.193  0.9180E+00  0.9190E+00  0.1251E+00  0.1252E+00
    -25.068  0.9775E+01  0.9785E+01  0.1347E+01  0.1348E+01
    -24.943  0.4565E+02  0.4567E+02  0.7051E+01  0.7054E+01
    -24.818  0.3403E+02  0.3401E+02  0.1130E+02  0.1130E+02
    -24.693  0.5082E+01  0.5078E+01  0.1194E+02  0.1194E+02
    -24.568  0.3109E+00  0.3078E+00  0.1200E+02  0.1200E+02
    -24.443  0.0000E+00  0.0000E+00  0.1200E+02  0.1200E+02
    -24.318  0.0000E+00  0.0000E+00  0.1200E+02  0.1200E+02
    -24.193  0.0000E+00  0.0000E+00  0.1200E+02  0.1200E+02
    -24.068  0.0000E+00  0.0000E+00  0.1200E+02  0.1200E+02
    -23.943  0.0000E+00  0.0000E+00  0.1200E+02  0.1200E+02
    -23.818  0.0000E+00  0.0000E+00  0.1200E+02  0.1200E+02
    -23.693  0.0000E+00  0.0000E+00  0.1200E+02  0.1200E+02
    -23.568  0.0000E+00  0.0000E+00  0.1200E+02  0.1200E+02
    -23.443  0.0000E+00  0.0000E+00  0.1200E+02  0.1200E+02
    -23.318  0.0000E+00  0.0000E+00  0.1200E+02  0.1200E+02
    -23.193  0.0000E+00  0.0000E+00  0.1200E+02  0.1200E+02
    -23.068  0.0000E+00  0.0000E+00  0.1200E+02  0.1200E+02
    -22.943  0.0000E+00  0.0000E+00  0.1200E+02  0.1200E+02
    -22.818  0.0000E+00  0.0000E+00  0.1200E+02  0.1200E+02
    -22.693  0.0000E+00  0.0000E+00  0.1200E+02  0.1200E+02
    -22.568  0.0000E+00  0.0000E+00  0.1200E+02  0.1200E+02
    -22.443  0.0000E+00  0.0000E+00  0.1200E+02  0.1200E+02
    -22.319  0.0000E+00  0.0000E+00  0.1200E+02  0.1200E+02
    -22.194  0.0000E+00  0.0000E+00  0.1200E+02  0.1200E+02
    -22.069  0.0000E+00  0.0000E+00  0.1200E+02  0.1200E+02
    -21.944  0.0000E+00  0.0000E+00  0.1200E+02  0.1200E+02
    -21.819  0.0000E+00  0.0000E+00  0.1200E+02  0.1200E+02
    -21.694  0.0000E+00  0.0000E+00  0.1200E+02  0.1200E+02
    -21.569  0.0000E+00  0.0000E+00  0.1200E+02  0.1200E+02
    -21.444  0.0000E+00  0.0000E+00  0.1200E+02  0.1200E+02
    -21.319  0.0000E+00  0.0000E+00  0.1200E+02  0.1200E+02
    -21.194  0.0000E+00  0.0000E+00  0.1200E+02  0.1200E+02
    -21.069  0.0000E+00  0.0000E+00  0.1200E+02  0.1200E+02
    -20.944  0.0000E+00  0.0000E+00  0.1200E+02  0.1200E+02
    -20.819  0.0000E+00  0.0000E+00  0.1200E+02  0.1200E+02
    -20.694  0.0000E+00  0.0000E+00  0.1200E+02  0.1200E+02
    -20.569  0.0000E+00  0.0000E+00  0.1200E+02  0.1200E+02
    -20.444  0.0000E+00  0.0000E+00  0.1200E+02  0.1200E+02
    -20.319  0.0000E+00  0.0000E+00  0.1200E+02  0.1200E+02
    -20.194  0.0000E+00  0.0000E+00  0.1200E+02  0.1200E+02
    -20.069  0.0000E+00  0.0000E+00  0.1200E+02  0.1200E+02
    -19.944  0.0000E+00  0.0000E+00  0.1200E+02  0.1200E+02
    -19.819  0.0000E+00  0.0000E+00  0.1200E+02  0.1200E+02
    -19.694  0.0000E+00  0.0000E+00  0.1200E+02  0.1200E+02
    -19.569  0.0000E+00  0.0000E+00  0.1200E+02  0.1200E+02
    -19.445  0.0000E+00  0.0000E+00  0.1200E+02  0.1200E+02
    -19.320  0.0000E+00  0.0000E+00  0.1200E+02  0.1200E+02
    -19.195  0.0000E+00  0.0000E+00  0.1200E+02  0.1200E+02
    -19.070  0.0000E+00  0.0000E+00  0.1200E+02  0.1200E+02
    -18.945  0.0000E+00  0.0000E+00  0.1200E+02  0.1200E+02
    -18.820  0.0000E+00  0.0000E+00  0.1200E+02  0.1200E+02
    -18.695  0.0000E+00  0.0000E+00  0.1200E+02  0.1200E+02
    -18.570  0.0000E+00  0.0000E+00  0.1200E+02  0.1200E+02
    -18.445  0.0000E+00  0.0000E+00  0.1200E+02  0.1200E+02
    -18.320  0.0000E+00  0.0000E+00  0.1200E+02  0.1200E+02
    -18.195  0.0000E+00  0.0000E+00  0.1200E+02  0.1200E+02
    -18.070  0.0000E+00  0.0000E+00  0.1200E+02  0.1200E+02
    -17.945  0.0000E+00  0.0000E+00  0.1200E+02  0.1200E+02
    -17.820  0.0000E+00  0.0000E+00  0.1200E+02  0.1200E+02
    -17.695  0.0000E+00  0.0000E+00  0.1200E+02  0.1200E+02
    -17.570  0.0000E+00  0.0000E+00  0.1200E+02  0.1200E+02
    -17.445  0.0000E+00  0.0000E+00  0.1200E+02  0.1200E+02
    -17.320  0.0000E+00  0.0000E+00  0.1200E+02  0.1200E+02
    -17.195  0.0000E+00  0.0000E+00  0.1200E+02  0.1200E+02
    -17.070  0.0000E+00  0.0000E+00  0.1200E+02  0.1200E+02
    -16.945  0.0000E+00  0.0000E+00  0.1200E+02  0.1200E+02
    -16.820  0.0000E+00  0.0000E+00  0.1200E+02  0.1200E+02
    -16.696  0.0000E+00  0.0000E+00  0.1200E+02  0.1200E+02
    -16.571  0.0000E+00  0.0000E+00  0.1200E+02  0.1200E+02
    -16.446  0.0000E+00  0.0000E+00  0.1200E+02  0.1200E+02
    -16.321  0.0000E+00  0.0000E+00  0.1200E+02  0.1200E+02
    -16.196  0.0000E+00  0.0000E+00  0.1200E+02  0.1200E+02
    -16.071  0.0000E+00  0.0000E+00  0.1200E+02  0.1200E+02
    -15.946  0.0000E+00  0.0000E+00  0.1200E+02  0.1200E+02
    -15.821  0.0000E+00  0.0000E+00  0.1200E+02  0.1200E+02
    -15.696  0.0000E+00  0.0000E+00  0.1200E+02  0.1200E+02
    -15.571  0.0000E+00  0.0000E+00  0.1200E+02  0.1200E+02
    -15.446  0.0000E+00  0.0000E+00  0.1200E+02  0.1200E+02
    -15.321  0.0000E+00  0.0000E+00  0.1200E+02  0.1200E+02
    -15.196  0.0000E+00  0.0000E+00  0.1200E+02  0.1200E+02
    -15.071  0.0000E+00  0.0000E+00  0.1200E+02  0.1200E+02
    -14.946  0.0000E+00  0.0000E+00  0.1200E+02  0.1200E+02
    -14.821  0.0000E+00  0.0000E+00  0.1200E+02  0.1200E+02
    -14.696  0.0000E+00  0.0000E+00  0.1200E+02  0.1200E+02
    -14.571  0.0000E+00  0.0000E+00  0.1200E+02  0.1200E+02
    -14.446  0.0000E+00  0.0000E+00  0.1200E+02  0.1200E+02
    -14.321  0.0000E+00  0.0000E+00  0.1200E+02  0.1200E+02
    -14.196  0.0000E+00  0.0000E+00  0.1200E+02  0.1200E+02
    -14.071  0.0000E+00  0.0000E+00  0.1200E+02  0.1200E+02
    -13.946  0.0000E+00  0.0000E+00  0.1200E+02  0.1200E+02
    -13.822  0.0000E+00  0.0000E+00  0.1200E+02  0.1200E+02
    -13.697  0.0000E+00  0.0000E+00  0.1200E+02  0.1200E+02
    -13.572  0.0000E+00  0.0000E+00  0.1200E+02  0.1200E+02
    -13.447  0.0000E+00  0.0000E+00  0.1200E+02  0.1200E+02
    -13.322  0.0000E+00  0.0000E+00  0.1200E+02  0.1200E+02
    -13.197  0.0000E+00  0.0000E+00  0.1200E+02  0.1200E+02
    -13.072  0.0000E+00  0.0000E+00  0.1200E+02  0.1200E+02
    -12.947  0.0000E+00  0.0000E+00  0.1200E+02  0.1200E+02
    -12.822  0.0000E+00  0.0000E+00  0.1200E+02  0.1200E+02
    -12.697  0.0000E+00  0.0000E+00  0.1200E+02  0.1200E+02
    -12.572  0.0000E+00  0.0000E+00  0.1200E+02  0.1200E+02
    -12.447  0.0000E+00  0.0000E+00  0.1200E+02  0.1200E+02
    -12.322  0.0000E+00  0.0000E+00  0.1200E+02  0.1200E+02
    -12.197  0.0000E+00  0.0000E+00  0.1200E+02  0.1200E+02
    -12.072  0.0000E+00  0.0000E+00  0.1200E+02  0.1200E+02
    -11.947  0.0000E+00  0.0000E+00  0.1200E+02  0.1200E+02
    -11.822  0.0000E+00  0.0000E+00  0.1200E+02  0.1200E+02
    -11.697  0.0000E+00  0.0000E+00  0.1200E+02  0.1200E+02
    -11.572  0.0000E+00  0.0000E+00  0.1200E+02  0.1200E+02
    -11.447  0.0000E+00  0.0000E+00  0.1200E+02  0.1200E+02
    -11.322  0.0000E+00  0.0000E+00  0.1200E+02  0.1200E+02
    -11.197  0.0000E+00  0.0000E+00  0.1200E+02  0.1200E+02
    -11.073  0.0000E+00  0.0000E+00  0.1200E+02  0.1200E+02
    -10.948  0.0000E+00  0.0000E+00  0.1200E+02  0.1200E+02
    -10.823  0.0000E+00  0.0000E+00  0.1200E+02  0.1200E+02
    -10.698  0.0000E+00  0.0000E+00  0.1200E+02  0.1200E+02
    -10.573  0.0000E+00  0.0000E+00  0.1200E+02  0.1200E+02
    -10.448  0.0000E+00  0.0000E+00  0.1200E+02  0.1200E+02
    -10.323  0.0000E+00  0.0000E+00  0.1200E+02  0.1200E+02
    -10.198  0.0000E+00  0.0000E+00  0.1200E+02  0.1200E+02
    -10.073  0.0000E+00  0.0000E+00  0.1200E+02  0.1200E+02
     -9.948  0.0000E+00  0.0000E+00  0.1200E+02  0.1200E+02
     -9.823  0.0000E+00  0.0000E+00  0.1200E+02  0.1200E+02
     -9.698  0.0000E+00  0.0000E+00  0.1200E+02  0.1200E+02
     -9.573  0.0000E+00  0.0000E+00  0.1200E+02  0.1200E+02
     -9.448  0.0000E+00  0.0000E+00  0.1200E+02  0.1200E+02
     -9.323  0.0000E+00  0.0000E+00  0.1200E+02  0.1200E+02
     -9.198  0.0000E+00  0.0000E+00  0.1200E+02  0.1200E+02
     -9.073  0.0000E+00  0.0000E+00  0.1200E+02  0.1200E+02
     -8.948  0.0000E+00  0.0000E+00  0.1200E+02  0.1200E+02
     -8.823  0.0000E+00  0.0000E+00  0.1200E+02  0.1200E+02
     -8.698  0.0000E+00  0.0000E+00  0.1200E+02  0.1200E+02
     -8.573  0.0000E+00  0.0000E+00  0.1200E+02  0.1200E+02
     -8.448  0.0000E+00  0.0000E+00  0.1200E+02  0.1200E+02
     -8.323  0.0000E+00  0.0000E+00  0.1200E+02  0.1200E+02
     -8.199  0.0000E+00  0.0000E+00  0.1200E+02  0.1200E+02
     -8.074  0.0000E+00  0.0000E+00  0.1200E+02  0.1200E+02
     -7.949  0.0000E+00  0.0000E+00  0.1200E+02  0.1200E+02
     -7.824  0.0000E+00  0.0000E+00  0.1200E+02  0.1200E+02
     -7.699  0.0000E+00  0.0000E+00  0.1200E+02  0.1200E+02
     -7.574  0.0000E+00  0.0000E+00  0.1200E+02  0.1200E+02
     -7.449  0.0000E+00  0.0000E+00  0.1200E+02  0.1200E+02
     -7.324  0.0000E+00  0.0000E+00  0.1200E+02  0.1200E+02
     -7.199  0.0000E+00  0.0000E+00  0.1200E+02  0.1200E+02
     -7.074  0.0000E+00  0.0000E+00  0.1200E+02  0.1200E+02
     -6.949  0.0000E+00  0.0000E+00  0.1200E+02  0.1200E+02
     -6.824  0.0000E+00  0.0000E+00  0.1200E+02  0.1200E+02
     -6.699  0.0000E+00  0.0000E+00  0.1200E+02  0.1200E+02
     -6.574  0.0000E+00  0.0000E+00  0.1200E+02  0.1200E+02
     -6.449  0.0000E+00  0.0000E+00  0.1200E+02  0.1200E+02
     -6.324  0.0000E+00  0.0000E+00  0.1200E+02  0.1200E+02
     -6.199  0.0000E+00  0.0000E+00  0.1200E+02  0.1200E+02
     -6.074  0.0000E+00  0.0000E+00  0.1200E+02  0.1200E+02
     -5.949  0.0000E+00  0.0000E+00  0.1200E+02  0.1200E+02
     -5.824  0.0000E+00  0.0000E+00  0.1200E+02  0.1200E+02
     -5.699  0.0000E+00  0.0000E+00  0.1200E+02  0.1200E+02
     -5.574  0.0000E+00  0.0000E+00  0.1200E+02  0.1200E+02
     -5.449  0.0000E+00  0.0000E+00  0.1200E+02  0.1200E+02
     -5.325  0.0000E+00  0.0000E+00  0.1200E+02  0.1200E+02
     -5.200  0.0000E+00  0.0000E+00  0.1200E+02  0.1200E+02
     -5.075  0.0000E+00  0.0000E+00  0.1200E+02  0.1200E+02
     -4.950  0.0000E+00  0.0000E+00  0.1200E+02  0.1200E+02
     -4.825  0.0000E+00  0.0000E+00  0.1200E+02  0.1200E+02
     -4.700  0.0000E+00  0.0000E+00  0.1200E+02  0.1200E+02
     -4.575  0.0000E+00  0.0000E+00  0.1200E+02  0.1200E+02
     -4.450  0.0000E+00  0.0000E+00  0.1200E+02  0.1200E+02
     -4.325  0.0000E+00  0.0000E+00  0.1200E+02  0.1200E+02
     -4.200  0.0000E+00  0.0000E+00  0.1200E+02  0.1200E+02
     -4.075  0.0000E+00  0.0000E+00  0.1200E+02  0.1200E+02
     -3.950  0.1003E-05  0.1001E-05  0.1200E+02  0.1200E+02
     -3.825  0.5552E-04  0.5540E-04  0.1200E+02  0.1200E+02
     -3.700  0.6559E-03  0.6544E-03  0.1200E+02  0.1200E+02
     -3.575  0.7703E-02  0.7686E-02  0.1200E+02  0.1200E+02
     -3.450  0.6730E-01  0.6719E-01  0.1201E+02  0.1201E+02
     -3.325  0.2457E+00  0.2455E+00  0.1204E+02  0.1204E+02
     -3.200  0.4321E+00  0.4319E+00  0.1209E+02  0.1209E+02
     -3.075  0.5652E+00  0.5652E+00  0.1216E+02  0.1216E+02
     -2.950  0.6596E+00  0.6595E+00  0.1225E+02  0.1225E+02
     -2.825  0.7521E+00  0.7521E+00  0.1234E+02  0.1234E+02
     -2.700  0.8003E+00  0.8003E+00  0.1244E+02  0.1244E+02
     -2.576  0.8292E+00  0.8290E+00  0.1255E+02  0.1255E+02
     -2.451  0.1052E+01  0.1051E+01  0.1268E+02  0.1268E+02
     -2.326  0.1122E+01  0.1122E+01  0.1282E+02  0.1282E+02
     -2.201  0.9719E+00  0.9721E+00  0.1294E+02  0.1294E+02
     -2.076  0.1198E+01  0.1197E+01  0.1309E+02  0.1309E+02
     -1.951  0.1404E+01  0.1404E+01  0.1326E+02  0.1326E+02
     -1.826  0.1381E+01  0.1381E+01  0.1344E+02  0.1344E+02
     -1.701  0.1318E+01  0.1318E+01  0.1360E+02  0.1360E+02
     -1.576  0.1503E+01  0.1503E+01  0.1379E+02  0.1379E+02
     -1.451  0.1542E+01  0.1542E+01  0.1398E+02  0.1398E+02
     -1.326  0.1722E+01  0.1722E+01  0.1420E+02  0.1420E+02
     -1.201  0.1885E+01  0.1886E+01  0.1443E+02  0.1443E+02
     -1.076  0.1556E+01  0.1556E+01  0.1463E+02  0.1463E+02
     -0.951  0.1483E+01  0.1482E+01  0.1481E+02  0.1481E+02
     -0.826  0.1979E+01  0.1978E+01  0.1506E+02  0.1506E+02
     -0.701  0.2040E+01  0.2040E+01  0.1532E+02  0.1532E+02
     -0.576  0.2071E+01  0.2071E+01  0.1558E+02  0.1558E+02
     -0.451  0.1829E+01  0.1829E+01  0.1581E+02  0.1581E+02
     -0.326  0.1904E+01  0.1904E+01  0.1604E+02  0.1604E+02
     -0.201  0.1943E+01  0.1943E+01  0.1629E+02  0.1629E+02
     -0.076  0.2179E+01  0.2179E+01  0.1656E+02  0.1656E+02
      0.049  0.2601E+01  0.2601E+01  0.1689E+02  0.1688E+02
      0.174  0.2439E+01  0.2439E+01  0.1719E+02  0.1719E+02
      0.298  0.2336E+01  0.2336E+01  0.1748E+02  0.1748E+02
      0.423  0.2191E+01  0.2191E+01  0.1776E+02  0.1776E+02
      0.548  0.2302E+01  0.2302E+01  0.1804E+02  0.1804E+02
      0.673  0.2306E+01  0.2306E+01  0.1833E+02  0.1833E+02
      0.798  0.2619E+01  0.2619E+01  0.1866E+02  0.1866E+02
      0.923  0.2793E+01  0.2793E+01  0.1901E+02  0.1901E+02
      1.048  0.2496E+01  0.2497E+01  0.1932E+02  0.1932E+02
      1.173  0.2345E+01  0.2345E+01  0.1962E+02  0.1962E+02
      1.298  0.2521E+01  0.2521E+01  0.1993E+02  0.1993E+02
      1.423  0.3096E+01  0.3096E+01  0.2032E+02  0.2032E+02
      1.548  0.3229E+01  0.3229E+01  0.2072E+02  0.2072E+02
      1.673  0.3545E+01  0.3545E+01  0.2117E+02  0.2117E+02
      1.798  0.3228E+01  0.3229E+01  0.2157E+02  0.2157E+02
      1.923  0.2255E+01  0.2256E+01  0.2185E+02  0.2185E+02
      2.048  0.1878E+01  0.1878E+01  0.2209E+02  0.2209E+02
      2.173  0.2349E+01  0.2348E+01  0.2238E+02  0.2238E+02
      2.298  0.2947E+01  0.2947E+01  0.2275E+02  0.2275E+02
      2.423  0.2901E+01  0.2901E+01  0.2311E+02  0.2311E+02
      2.548  0.2749E+01  0.2749E+01  0.2346E+02  0.2346E+02
      2.673  0.2603E+01  0.2603E+01  0.2378E+02  0.2378E+02
      2.798  0.3638E+01  0.3637E+01  0.2424E+02  0.2424E+02
      2.923  0.3582E+01  0.3583E+01  0.2469E+02  0.2469E+02
      3.047  0.3107E+01  0.3107E+01  0.2508E+02  0.2508E+02
      3.172  0.3335E+01  0.3335E+01  0.2549E+02  0.2549E+02
      3.297  0.3254E+01  0.3253E+01  0.2590E+02  0.2590E+02
      3.422  0.3434E+01  0.3433E+01  0.2633E+02  0.2633E+02
      3.547  0.4316E+01  0.4315E+01  0.2687E+02  0.2687E+02
      3.672  0.4960E+01  0.4960E+01  0.2749E+02  0.2749E+02
      3.797  0.4860E+01  0.4860E+01  0.2810E+02  0.2810E+02
      3.922  0.4848E+01  0.4848E+01  0.2870E+02  0.2870E+02
      4.047  0.4484E+01  0.4484E+01  0.2927E+02  0.2927E+02
      4.172  0.4199E+01  0.4199E+01  0.2979E+02  0.2979E+02
      4.297  0.4103E+01  0.4103E+01  0.3030E+02  0.3030E+02
      4.422  0.5511E+01  0.5511E+01  0.3099E+02  0.3099E+02
      4.547  0.6175E+01  0.6175E+01  0.3177E+02  0.3177E+02
      4.672  0.6301E+01  0.6300E+01  0.3255E+02  0.3255E+02
      4.797  0.6813E+01  0.6813E+01  0.3341E+02  0.3341E+02
      4.922  0.5314E+01  0.5316E+01  0.3407E+02  0.3407E+02
      5.047  0.4397E+01  0.4397E+01  0.3462E+02  0.3462E+02
      5.172  0.4499E+01  0.4498E+01  0.3519E+02  0.3519E+02
      5.297  0.4526E+01  0.4527E+01  0.3575E+02  0.3575E+02
      5.422  0.4031E+01  0.4032E+01  0.3626E+02  0.3626E+02
      5.547  0.3644E+01  0.3644E+01  0.3671E+02  0.3671E+02
      5.672  0.2538E+01  0.2538E+01  0.3703E+02  0.3703E+02
      5.797  0.2015E+01  0.2015E+01  0.3728E+02  0.3728E+02
      5.921  0.2446E+01  0.2445E+01  0.3759E+02  0.3759E+02
      6.046  0.2635E+01  0.2635E+01  0.3792E+02  0.3792E+02
      6.171  0.2633E+01  0.2634E+01  0.3825E+02  0.3825E+02
      6.296  0.2678E+01  0.2678E+01  0.3858E+02  0.3858E+02
      6.421  0.2874E+01  0.2874E+01  0.3894E+02  0.3894E+02
      6.546  0.3916E+01  0.3915E+01  0.3943E+02  0.3943E+02
      6.671  0.3956E+01  0.3957E+01  0.3993E+02  0.3993E+02
      6.796  0.4594E+01  0.4594E+01  0.4050E+02  0.4050E+02
      6.921  0.5204E+01  0.5204E+01  0.4115E+02  0.4115E+02
      7.046  0.4767E+01  0.4768E+01  0.4175E+02  0.4175E+02
      7.171  0.4704E+01  0.4707E+01  0.4234E+02  0.4234E+02
      7.296  0.4900E+01  0.4908E+01  0.4295E+02  0.4295E+02
      7.421  0.5626E+01  0.5631E+01  0.4366E+02  0.4366E+02
      7.546  0.6386E+01  0.6400E+01  0.4445E+02  0.4446E+02
      7.671  0.6834E+01  0.6863E+01  0.4531E+02  0.4532E+02
      7.796  0.6758E+01  0.6854E+01  0.4615E+02  0.4617E+02
      7.921  0.6931E+01  0.7005E+01  0.4702E+02  0.4705E+02
      8.046  0.5932E+01  0.5979E+01  0.4776E+02  0.4780E+02
      8.171  0.5576E+01  0.5539E+01  0.4846E+02  0.4849E+02
      8.296  0.5465E+01  0.5478E+01  0.4915E+02  0.4918E+02
      8.421  0.5221E+01  0.5308E+01  0.4980E+02  0.4984E+02
      8.546  0.4959E+01  0.5155E+01  0.5042E+02  0.5049E+02
      8.671  0.4890E+01  0.4875E+01  0.5103E+02  0.5110E+02
      8.795  0.3528E+01  0.3505E+01  0.5147E+02  0.5154E+02
      8.920  0.2208E+01  0.2312E+01  0.5175E+02  0.5183E+02
      9.045  0.1242E+01  0.1066E+01  0.5191E+02  0.5196E+02
      9.170  0.6100E+00  0.2754E+00  0.5198E+02  0.5200E+02
      9.295  0.1112E+00  0.2831E-01  0.5200E+02  0.5200E+02
      9.420  0.9413E-02  0.9417E-03  0.5200E+02  0.5200E+02
      9.545  0.0000E+00  0.0000E+00  0.5200E+02  0.5200E+02
      9.670  0.0000E+00  0.0000E+00  0.5200E+02  0.5200E+02
      9.795  0.0000E+00  0.0000E+00  0.5200E+02  0.5200E+02
      9.920  0.0000E+00  0.0000E+00  0.5200E+02  0.5200E+02
     10.045  0.0000E+00  0.0000E+00  0.5200E+02  0.5200E+02
     10.170  0.0000E+00  0.0000E+00  0.5200E+02  0.5200E+02
     10.295  0.0000E+00  0.0000E+00  0.5200E+02  0.5200E+02
     10.420  0.0000E+00  0.0000E+00  0.5200E+02  0.5200E+02
     10.545  0.0000E+00  0.0000E+00  0.5200E+02  0.5200E+02
     10.670  0.0000E+00  0.0000E+00  0.5200E+02  0.5200E+02
     10.795  0.0000E+00  0.0000E+00  0.5200E+02  0.5200E+02
     10.79475683    -26.69197437  301      6.07610316      1.00000000
    -26.692  0.0000E+00  0.0000E+00  0.0000E+00  0.0000E+00  0.0000E+00  0.0000E+00  0.0000E+00  0.0000E+00  0.0000E+00  0.0000E+00  0.0000E+00  0.0000E+00  0.0000E+00  0.0000E+00  0.0000E+00  0.0000E+00  0.0000E+00  0.0000E+00
    -26.567  0.0000E+00  0.0000E+00  0.0000E+00  0.0000E+00  0.0000E+00  0.0000E+00  0.0000E+00  0.0000E+00  0.0000E+00  0.0000E+00  0.0000E+00  0.0000E+00  0.0000E+00  0.0000E+00  0.0000E+00  0.0000E+00  0.0000E+00  0.0000E+00
    -26.442  0.0000E+00  0.0000E+00  0.0000E+00  0.0000E+00  0.0000E+00  0.0000E+00  0.0000E+00  0.0000E+00  0.0000E+00  0.0000E+00  0.0000E+00  0.0000E+00  0.0000E+00  0.0000E+00  0.0000E+00  0.0000E+00  0.0000E+00  0.0000E+00
    -26.317  0.0000E+00  0.0000E+00  0.0000E+00  0.0000E+00  0.0000E+00  0.0000E+00  0.0000E+00  0.0000E+00  0.0000E+00  0.0000E+00  0.0000E+00  0.0000E+00  0.0000E+00  0.0000E+00  0.0000E+00  0.0000E+00  0.0000E+00  0.0000E+00
    -26.192  0.0000E+00  0.0000E+00  0.0000E+00  0.0000E+00  0.0000E+00  0.0000E+00  0.0000E+00  0.0000E+00  0.0000E+00  0.0000E+00  0.0000E+00  0.0000E+00  0.0000E+00  0.0000E+00  0.0000E+00  0.0000E+00  0.0000E+00  0.0000E+00
    -26.067  0.0000E+00  0.0000E+00  0.0000E+00  0.0000E+00  0.0000E+00  0.0000E+00  0.0000E+00  0.0000E+00  0.0000E+00  0.0000E+00  0.0000E+00  0.0000E+00  0.0000E+00  0.0000E+00  0.0000E+00  0.0000E+00  0.0000E+00  0.0000E+00
    -25.942  0.0000E+00  0.0000E+00  0.0000E+00  0.0000E+00  0.0000E+00  0.0000E+00  0.0000E+00  0.0000E+00  0.0000E+00  0.0000E+00  0.0000E+00  0.0000E+00  0.0000E+00  0.0000E+00  0.0000E+00  0.0000E+00  0.0000E+00  0.0000E+00
    -25.817  0.0000E+00  0.0000E+00  0.0000E+00  0.0000E+00  0.0000E+00  0.0000E+00  0.0000E+00  0.0000E+00  0.0000E+00  0.0000E+00  0.0000E+00  0.0000E+00  0.0000E+00  0.0000E+00  0.0000E+00  0.0000E+00  0.0000E+00  0.0000E+00
    -25.692  0.0000E+00  0.0000E+00  0.0000E+00  0.0000E+00  0.0000E+00  0.0000E+00  0.0000E+00  0.0000E+00  0.0000E+00  0.0000E+00  0.0000E+00  0.0000E+00  0.0000E+00  0.0000E+00  0.0000E+00  0.0000E+00  0.0000E+00  0.0000E+00
    -25.567  0.0000E+00  0.0000E+00  0.0000E+00  0.0000E+00  0.0000E+00  0.0000E+00  0.0000E+00  0.0000E+00  0.0000E+00  0.0000E+00  0.0000E+00  0.0000E+00  0.0000E+00  0.0000E+00  0.0000E+00  0.0000E+00  0.0000E+00  0.0000E+00
    -25.442  0.6463E-09  0.6477E-09  0.6890E-03  0.6898E-03  0.2989E-03  0.2991E-03  0.6890E-03  0.6898E-03  0.1310E-10  0.1309E-10  0.8693E-09  0.8708E-09  0.4860E-09  0.4866E-09  0.8693E-09  0.8708E-09  0.2956E-09  0.2959E-09
    -25.317  0.7215E-08  0.7231E-08  0.7689E-02  0.7698E-02  0.3338E-02  0.3340E-02  0.7689E-02  0.7698E-02  0.1462E-09  0.1460E-09  0.9701E-08  0.9718E-08  0.5426E-08  0.5433E-08  0.9701E-08  0.9718E-08  0.3298E-08  0.3302E-08
    -25.193  0.8707E-07  0.8726E-07  0.9236E-01  0.9247E-01  0.4040E-01  0.4043E-01  0.9236E-01  0.9247E-01  0.1755E-08  0.1753E-08  0.1165E-06  0.1167E-06  0.6556E-07  0.6564E-07  0.1165E-06  0.1167E-06  0.3963E-07  0.3967E-07
    -25.068  0.9611E-06  0.9631E-06  0.9686E+00  0.9695E+00  0.4601E+00  0.4604E+00  0.9686E+00  0.9695E+00  0.1830E-07  0.1828E-07  0.1222E-05  0.1224E-05  0.7334E-06  0.7343E-06  0.1222E-05  0.1224E-05  0.4168E-06  0.4172E-06
    -24.943  0.5486E-05  0.5495E-05  0.4067E+01  0.4068E+01  0.3062E+01  0.3063E+01  0.4067E+01  0.4068E+01  0.7468E-07  0.7458E-07  0.5128E-05  0.5132E-05  0.4469E-05  0.4473E-05  0.5128E-05  0.5132E-05  0.1764E-05  0.1764E-05
    -24.818  0.5425E-05  0.5430E-05  0.2385E+01  0.2383E+01  0.3576E+01  0.3575E+01  0.2385E+01  0.2383E+01  0.4220E-07  0.4212E-07  0.3012E-05  0.3012E-05  0.4720E-05  0.4720E-05  0.3012E-05  0.3012E-05  0.1035E-05  0.1034E-05
    -24.693  0.9168E-06  0.9172E-06  0.3011E+00  0.3008E+00  0.6442E+00  0.6438E+00  0.3011E+00  0.3008E+00  0.5246E-08  0.5236E-08  0.3813E-06  0.3811E-06  0.8137E-06  0.8136E-06  0.3813E-06  0.3811E-06  0.1301E-06  0.1299E-06
    -24.568  0.7434E-07  0.7422E-07  0.9045E-02  0.8688E-02  0.5817E-01  0.5813E-01  0.9045E-02  0.8688E-02  0.1074E-09  0.1038E-09  0.1152E-07  0.1106E-07  0.6992E-07  0.6985E-07  0.1152E-07  0.1106E-07  0.1983E-08  0.1769E-08
    -24.443  0.0000E+00  0.0000E+00  0.0000E+00  0.0000E+00  0.0000E+00  0.0000E+00  0.0000E+00  0.0000E+00  0.0000E+00  0.0000E+00  0.0000E+00  0.0000E+00  0.0000E+00  0.0000E+00  0.0000E+00  0.0000E+00  0.0000E+00  0.0000E+00
    -24.318  0.0000E+00  0.0000E+00  0.0000E+00  0.0000E+00  0.0000E+00  0.0000E+00  0.0000E+00  0.0000E+00  0.0000E+00  0.0000E+00  0.0000E+00  0.0000E+00  0.0000E+00  0.0000E+00  0.0000E+00  0.0000E+00  0.0000E+00  0.0000E+00
    -24.193  0.0000E+00  0.0000E+00  0.0000E+00  0.0000E+00  0.0000E+00  0.0000E+00  0.0000E+00  0.0000E+00  0.0000E+00  0.0000E+00  0.0000E+00  0.0000E+00  0.0000E+00  0.0000E+00  0.0000E+00  0.0000E+00  0.0000E+00  0.0000E+00
    -24.068  0.0000E+00  0.0000E+00  0.0000E+00  0.0000E+00  0.0000E+00  0.0000E+00  0.0000E+00  0.0000E+00  0.0000E+00  0.0000E+00  0.0000E+00  0.0000E+00  0.0000E+00  0.0000E+00  0.0000E+00  0.0000E+00  0.0000E+00  0.0000E+00
    -23.943  0.0000E+00  0.0000E+00  0.0000E+00  0.0000E+00  0.0000E+00  0.0000E+00  0.0000E+00  0.0000E+00  0.0000E+00  0.0000E+00  0.0000E+00  0.0000E+00  0.0000E+00  0.0000E+00  0.0000E+00  0.0000E+00  0.0000E+00  0.0000E+00
    -23.818  0.0000E+00  0.0000E+00  0.0000E+00  0.0000E+00  0.0000E+00  0.0000E+00  0.0000E+00  0.0000E+00  0.0000E+00  0.0000E+00  0.0000E+00  0.0000E+00  0.0000E+00  0.0000E+00  0.0000E+00  0.0000E+00  0.0000E+00  0.0000E+00
    -23.693  0.0000E+00  0.0000E+00  0.0000E+00  0.0000E+00  0.0000E+00  0.0000E+00  0.0000E+00  0.0000E+00  0.0000E+00  0.0000E+00  0.0000E+00  0.0000E+00  0.0000E+00  0.0000E+00  0.0000E+00  0.0000E+00  0.0000E+00  0.0000E+00
    -23.568  0.0000E+00  0.0000E+00  0.0000E+00  0.0000E+00  0.0000E+00  0.0000E+00  0.0000E+00  0.0000E+00  0.0000E+00  0.0000E+00  0.0000E+00  0.0000E+00  0.0000E+00  0.0000E+00  0.0000E+00  0.0000E+00  0.0000E+00  0.0000E+00
    -23.443  0.0000E+00  0.0000E+00  0.0000E+00  0.0000E+00  0.0000E+00  0.0000E+00  0.0000E+00  0.0000E+00  0.0000E+00  0.0000E+00  0.0000E+00  0.0000E+00  0.0000E+00  0.0000E+00  0.0000E+00  0.0000E+00  0.0000E+00  0.0000E+00
    -23.318  0.0000E+00  0.0000E+00  0.0000E+00  0.0000E+00  0.0000E+00  0.0000E+00  0.0000E+00  0.0000E+00  0.0000E+00  0.0000E+00  0.0000E+00  0.0000E+00  0.0000E+00  0.0000E+00  0.0000E+00  0.0000E+00  0.0000E+00  0.0000E+00
    -23.193  0.0000E+00  0.0000E+00  0.0000E+00  0.0000E+00  0.0000E+00  0.0000E+00  0.0000E+00  0.0000E+00  0.0000E+00  0.0000E+00  0.0000E+00  0.0000E+00  0.0000E+00  0.0000E+00  0.0000E+00  0.0000E+00  0.0000E+00  0.0000E+00
    -23.068  0.0000E+00  0.0000E+00  0.0000E+00  0.0000E+00  0.0000E+00  0.0000E+00  0.0000E+00  0.0000E+00  0.0000E+00  0.0000E+00  0.0000E+00  0.0000E+00  0.0000E+00  0.0000E+00  0.0000E+00  0.0000E+00  0.0000E+00  0.0000E+00
    -22.943  0.0000E+00  0.0000E+00  0.0000E+00  0.0000E+00  0.0000E+00  0.0000E+00  0.0000E+00  0.0000E+00  0.0000E+00  0.0000E+00  0.0000E+00  0.0000E+00  0.0000E+00  0.0000E+00  0.0000E+00  0.0000E+00  0.0000E+00  0.0000E+00
    -22.818  0.0000E+00  0.0000E+00  0.0000E+00  0.0000E+00  0.0000E+00  0.0000E+00  0.0000E+00  0.0000E+00  0.0000E+00  0.0000E+00  0.0000E+00  0.0000E+00  0.0000E+00  0.0000E+00  0.0000E+00  0.0000E+00  0.0000E+00  0.0000E+00
    -22.693  0.0000E+00  0.0000E+00  0.0000E+00  0.0000E+00  0.0000E+00  0.0000E+00  0.0000E+00  0.0000E+00  0.0000E+00  0.0000E+00  0.0000E+00  0.0000E+00  0.0000E+00  0.0000E+00  0.0000E+00  0.0000E+00  0.0000E+00  0.0000E+00
    -22.568  0.0000E+00  0.0000E+00  0.0000E+00  0.0000E+00  0.0000E+00  0.0000E+00  0.0000E+00  0.0000E+00  0.0000E+00  0.0000E+00  0.0000E+00  0.0000E+00  0.0000E+00  0.0000E+00  0.0000E+00  0.0000E+00  0.0000E+00  0.0000E+00
    -22.443  0.0000E+00  0.0000E+00  0.0000E+00  0.0000E+00  0.0000E+00  0.0000E+00  0.0000E+00  0.0000E+00  0.0000E+00  0.0000E+00  0.0000E+00  0.0000E+00  0.0000E+00  0.0000E+00  0.0000E+00  0.0000E+00  0.0000E+00  0.0000E+00
    -22.319  0.0000E+00  0.0000E+00  0.0000E+00  0.0000E+00  0.0000E+00  0.0000E+00  0.0000E+00  0.0000E+00  0.0000E+00  0.0000E+00  0.0000E+00  0.0000E+00  0.0000E+00  0.0000E+00  0.0000E+00  0.0000E+00  0.0000E+00  0.0000E+00
    -22.194  0.0000E+00  0.0000E+00  0.0000E+00  0.0000E+00  0.0000E+00  0.0000E+00  0.0000E+00  0.0000E+00  0.0000E+00  0.0000E+00  0.0000E+00  0.0000E+00  0.0000E+00  0.0000E+00  0.0000E+00  0.0000E+00  0.0000E+00  0.0000E+00
    -22.069  0.0000E+00  0.0000E+00  0.0000E+00  0.0000E+00  0.0000E+00  0.0000E+00  0.0000E+00  0.0000E+00  0.0000E+00  0.0000E+00  0.0000E+00  0.0000E+00  0.0000E+00  0.0000E+00  0.0000E+00  0.0000E+00  0.0000E+00  0.0000E+00
    -21.944  0.0000E+00  0.0000E+00  0.0000E+00  0.0000E+00  0.0000E+00  0.0000E+00  0.0000E+00  0.0000E+00  0.0000E+00  0.0000E+00  0.0000E+00  0.0000E+00  0.0000E+00  0.0000E+00  0.0000E+00  0.0000E+00  0.0000E+00  0.0000E+00
    -21.819  0.0000E+00  0.0000E+00  0.0000E+00  0.0000E+00  0.0000E+00  0.0000E+00  0.0000E+00  0.0000E+00  0.0000E+00  0.0000E+00  0.0000E+00  0.0000E+00  0.0000E+00  0.0000E+00  0.0000E+00  0.0000E+00  0.0000E+00  0.0000E+00
    -21.694  0.0000E+00  0.0000E+00  0.0000E+00  0.0000E+00  0.0000E+00  0.0000E+00  0.0000E+00  0.0000E+00  0.0000E+00  0.0000E+00  0.0000E+00  0.0000E+00  0.0000E+00  0.0000E+00  0.0000E+00  0.0000E+00  0.0000E+00  0.0000E+00
    -21.569  0.0000E+00  0.0000E+00  0.0000E+00  0.0000E+00  0.0000E+00  0.0000E+00  0.0000E+00  0.0000E+00  0.0000E+00  0.0000E+00  0.0000E+00  0.0000E+00  0.0000E+00  0.0000E+00  0.0000E+00  0.0000E+00  0.0000E+00  0.0000E+00
    -21.444  0.0000E+00  0.0000E+00  0.0000E+00  0.0000E+00  0.0000E+00  0.0000E+00  0.0000E+00  0.0000E+00  0.0000E+00  0.0000E+00  0.0000E+00  0.0000E+00  0.0000E+00  0.0000E+00  0.0000E+00  0.0000E+00  0.0000E+00  0.0000E+00
    -21.319  0.0000E+00  0.0000E+00  0.0000E+00  0.0000E+00  0.0000E+00  0.0000E+00  0.0000E+00  0.0000E+00  0.0000E+00  0.0000E+00  0.0000E+00  0.0000E+00  0.0000E+00  0.0000E+00  0.0000E+00  0.0000E+00  0.0000E+00  0.0000E+00
    -21.194  0.0000E+00  0.0000E+00  0.0000E+00  0.0000E+00  0.0000E+00  0.0000E+00  0.0000E+00  0.0000E+00  0.0000E+00  0.0000E+00  0.0000E+00  0.0000E+00  0.0000E+00  0.0000E+00  0.0000E+00  0.0000E+00  0.0000E+00  0.0000E+00
    -21.069  0.0000E+00  0.0000E+00  0.0000E+00  0.0000E+00  0.0000E+00  0.0000E+00  0.0000E+00  0.0000E+00  0.0000E+00  0.0000E+00  0.0000E+00  0.0000E+00  0.0000E+00  0.0000E+00  0.0000E+00  0.0000E+00  0.0000E+00  0.0000E+00
    -20.944  0.0000E+00  0.0000E+00  0.0000E+00  0.0000E+00  0.0000E+00  0.0000E+00  0.0000E+00  0.0000E+00  0.0000E+00  0.0000E+00  0.0000E+00  0.0000E+00  0.0000E+00  0.0000E+00  0.0000E+00  0.0000E+00  0.0000E+00  0.0000E+00
    -20.819  0.0000E+00  0.0000E+00  0.0000E+00  0.0000E+00  0.0000E+00  0.0000E+00  0.0000E+00  0.0000E+00  0.0000E+00  0.0000E+00  0.0000E+00  0.0000E+00  0.0000E+00  0.0000E+00  0.0000E+00  0.0000E+00  0.0000E+00  0.0000E+00
    -20.694  0.0000E+00  0.0000E+00  0.0000E+00  0.0000E+00  0.0000E+00  0.0000E+00  0.0000E+00  0.0000E+00  0.0000E+00  0.0000E+00  0.0000E+00  0.0000E+00  0.0000E+00  0.0000E+00  0.0000E+00  0.0000E+00  0.0000E+00  0.0000E+00
    -20.569  0.0000E+00  0.0000E+00  0.0000E+00  0.0000E+00  0.0000E+00  0.0000E+00  0.0000E+00  0.0000E+00  0.0000E+00  0.0000E+00  0.0000E+00  0.0000E+00  0.0000E+00  0.0000E+00  0.0000E+00  0.0000E+00  0.0000E+00  0.0000E+00
    -20.444  0.0000E+00  0.0000E+00  0.0000E+00  0.0000E+00  0.0000E+00  0.0000E+00  0.0000E+00  0.0000E+00  0.0000E+00  0.0000E+00  0.0000E+00  0.0000E+00  0.0000E+00  0.0000E+00  0.0000E+00  0.0000E+00  0.0000E+00  0.0000E+00