  16  16   1   0
  0.1667972E+02  0.3959909E-09  0.3959909E-09  0.1701917E-08  0.5000000E-15
  1.000000000000000E-004
  CAR 
 unknown system                          
     12.95282254    -24.60109313  301      7.63839127      1.00000000
    -24.601  0.0000E+00  0.0000E+00  0.0000E+00  0.0000E+00
    -24.476  0.0000E+00  0.0000E+00  0.0000E+00  0.0000E+00
    -24.351  0.0000E+00  0.0000E+00  0.0000E+00  0.0000E+00
    -24.226  0.0000E+00  0.0000E+00  0.0000E+00  0.0000E+00
    -24.100  0.0000E+00  0.0000E+00  0.0000E+00  0.0000E+00
    -23.975  0.0000E+00  0.0000E+00  0.0000E+00  0.0000E+00
    -23.850  0.0000E+00  0.0000E+00  0.0000E+00  0.0000E+00
    -23.725  0.0000E+00  0.0000E+00  0.0000E+00  0.0000E+00
    -23.600  0.0000E+00  0.0000E+00  0.0000E+00  0.0000E+00
    -23.474  0.0000E+00  0.0000E+00  0.0000E+00  0.0000E+00
    -23.349  0.4440E-02  0.4468E-02  0.5558E-03  0.5593E-03
    -23.224  0.5450E-01  0.5479E-01  0.7378E-02  0.7418E-02
    -23.099  0.6553E+00  0.6589E+00  0.8941E-01  0.8990E-01
    -22.974  0.7184E+01  0.7220E+01  0.9887E+00  0.9937E+00
    -22.849  0.3935E+02  0.3943E+02  0.5914E+01  0.5930E+01
    -22.723  0.4028E+02  0.4020E+02  0.1096E+02  0.1096E+02
    -22.598  0.7577E+01  0.7540E+01  0.1191E+02  0.1191E+02
    -22.473  0.6236E+00  0.6192E+00  0.1199E+02  0.1199E+02
    -22.348  0.0000E+00  0.0000E+00  0.1200E+02  0.1200E+02
    -22.223  0.0000E+00  0.0000E+00  0.1200E+02  0.1200E+02
    -22.097  0.0000E+00  0.0000E+00  0.1200E+02  0.1200E+02
    -21.972  0.0000E+00  0.0000E+00  0.1200E+02  0.1200E+02
    -21.847  0.0000E+00  0.0000E+00  0.1200E+02  0.1200E+02
    -21.722  0.0000E+00  0.0000E+00  0.1200E+02  0.1200E+02
    -21.597  0.0000E+00  0.0000E+00  0.1200E+02  0.1200E+02
    -21.472  0.0000E+00  0.0000E+00  0.1200E+02  0.1200E+02
    -21.346  0.0000E+00  0.0000E+00  0.1200E+02  0.1200E+02
    -21.221  0.0000E+00  0.0000E+00  0.1200E+02  0.1200E+02
    -21.096  0.0000E+00  0.0000E+00  0.1200E+02  0.1200E+02
    -20.971  0.0000E+00  0.0000E+00  0.1200E+02  0.1200E+02
    -20.846  0.0000E+00  0.0000E+00  0.1200E+02  0.1200E+02
    -20.721  0.0000E+00  0.0000E+00  0.1200E+02  0.1200E+02
    -20.595  0.0000E+00  0.0000E+00  0.1200E+02  0.1200E+02
    -20.470  0.0000E+00  0.0000E+00  0.1200E+02  0.1200E+02
    -20.345  0.0000E+00  0.0000E+00  0.1200E+02  0.1200E+02
    -20.220  0.0000E+00  0.0000E+00  0.1200E+02  0.1200E+02
    -20.095  0.0000E+00  0.0000E+00  0.1200E+02  0.1200E+02
    -19.969  0.0000E+00  0.0000E+00  0.1200E+02  0.1200E+02
    -19.844  0.0000E+00  0.0000E+00  0.1200E+02  0.1200E+02
    -19.719  0.0000E+00  0.0000E+00  0.1200E+02  0.1200E+02
    -19.594  0.0000E+00  0.0000E+00  0.1200E+02  0.1200E+02
    -19.469  0.0000E+00  0.0000E+00  0.1200E+02  0.1200E+02
    -19.344  0.0000E+00  0.0000E+00  0.1200E+02  0.1200E+02
    -19.218  0.0000E+00  0.0000E+00  0.1200E+02  0.1200E+02
    -19.093  0.0000E+00  0.0000E+00  0.1200E+02  0.1200E+02
    -18.968  0.0000E+00  0.0000E+00  0.1200E+02  0.1200E+02
    -18.843  0.0000E+00  0.0000E+00  0.1200E+02  0.1200E+02
    -18.718  0.0000E+00  0.0000E+00  0.1200E+02  0.1200E+02
    -18.592  0.0000E+00  0.0000E+00  0.1200E+02  0.1200E+02
    -18.467  0.0000E+00  0.0000E+00  0.1200E+02  0.1200E+02
    -18.342  0.0000E+00  0.0000E+00  0.1200E+02  0.1200E+02
    -18.217  0.0000E+00  0.0000E+00  0.1200E+02  0.1200E+02
    -18.092  0.0000E+00  0.0000E+00  0.1200E+02  0.1200E+02
    -17.967  0.0000E+00  0.0000E+00  0.1200E+02  0.1200E+02
    -17.841  0.0000E+00  0.0000E+00  0.1200E+02  0.1200E+02
    -17.716  0.0000E+00  0.0000E+00  0.1200E+02  0.1200E+02
    -17.591  0.0000E+00  0.0000E+00  0.1200E+02  0.1200E+02
    -17.466  0.0000E+00  0.0000E+00  0.1200E+02  0.1200E+02
    -17.341  0.0000E+00  0.0000E+00  0.1200E+02  0.1200E+02
    -17.215  0.0000E+00  0.0000E+00  0.1200E+02  0.1200E+02
    -17.090  0.0000E+00  0.0000E+00  0.1200E+02  0.1200E+02
    -16.965  0.0000E+00  0.0000E+00  0.1200E+02  0.1200E+02
    -16.840  0.0000E+00  0.0000E+00  0.1200E+02  0.1200E+02
    -16.715  0.0000E+00  0.0000E+00  0.1200E+02  0.1200E+02
    -16.590  0.0000E+00  0.0000E+00  0.1200E+02  0.1200E+02
    -16.464  0.0000E+00  0.0000E+00  0.1200E+02  0.1200E+02
    -16.339  0.0000E+00  0.0000E+00  0.1200E+02  0.1200E+02
    -16.214  0.0000E+00  0.0000E+00  0.1200E+02  0.1200E+02
    -16.089  0.0000E+00  0.0000E+00  0.1200E+02  0.1200E+02
    -15.964  0.0000E+00  0.0000E+00  0.1200E+02  0.1200E+02
    -15.839  0.0000E+00  0.0000E+00  0.1200E+02  0.1200E+02
    -15.713  0.0000E+00  0.0000E+00  0.1200E+02  0.1200E+02
    -15.588  0.0000E+00  0.0000E+00  0.1200E+02  0.1200E+02
    -15.463  0.0000E+00  0.0000E+00  0.1200E+02  0.1200E+02
    -15.338  0.0000E+00  0.0000E+00  0.1200E+02  0.1200E+02
    -15.213  0.0000E+00  0.0000E+00  0.1200E+02  0.1200E+02
    -15.087  0.0000E+00  0.0000E+00  0.1200E+02  0.1200E+02
    -14.962  0.0000E+00  0.0000E+00  0.1200E+02  0.1200E+02
    -14.837  0.0000E+00  0.0000E+00  0.1200E+02  0.1200E+02
    -14.712  0.0000E+00  0.0000E+00  0.1200E+02  0.1200E+02
    -14.587  0.0000E+00  0.0000E+00  0.1200E+02  0.1200E+02
    -14.462  0.0000E+00  0.0000E+00  0.1200E+02  0.1200E+02
    -14.336  0.0000E+00  0.0000E+00  0.1200E+02  0.1200E+02
    -14.211  0.0000E+00  0.0000E+00  0.1200E+02  0.1200E+02
    -14.086  0.0000E+00  0.0000E+00  0.1200E+02  0.1200E+02
    -13.961  0.0000E+00  0.0000E+00  0.1200E+02  0.1200E+02
    -13.836  0.0000E+00  0.0000E+00  0.1200E+02  0.1200E+02
    -13.710  0.0000E+00  0.0000E+00  0.1200E+02  0.1200E+02
    -13.585  0.0000E+00  0.0000E+00  0.1200E+02  0.1200E+02
    -13.460  0.0000E+00  0.0000E+00  0.1200E+02  0.1200E+02
    -13.335  0.0000E+00  0.0000E+00  0.1200E+02  0.1200E+02
    -13.210  0.0000E+00  0.0000E+00  0.1200E+02  0.1200E+02
    -13.085  0.0000E+00  0.0000E+00  0.1200E+02  0.1200E+02
    -12.959  0.0000E+00  0.0000E+00  0.1200E+02  0.1200E+02
    -12.834  0.0000E+00  0.0000E+00  0.1200E+02  0.1200E+02
    -12.709  0.0000E+00  0.0000E+00  0.1200E+02  0.1200E+02
    -12.584  0.0000E+00  0.0000E+00  0.1200E+02  0.1200E+02
    -12.459  0.0000E+00  0.0000E+00  0.1200E+02  0.1200E+02
    -12.333  0.0000E+00  0.0000E+00  0.1200E+02  0.1200E+02
    -12.208  0.0000E+00  0.0000E+00  0.1200E+02  0.1200E+02
    -12.083  0.0000E+00  0.0000E+00  0.1200E+02  0.1200E+02
    -11.958  0.0000E+00  0.0000E+00  0.1200E+02  0.1200E+02
    -11.833  0.0000E+00  0.0000E+00  0.1200E+02  0.1200E+02
    -11.708  0.0000E+00  0.0000E+00  0.1200E+02  0.1200E+02
    -11.582  0.0000E+00  0.0000E+00  0.1200E+02  0.1200E+02
    -11.457  0.0000E+00  0.0000E+00  0.1200E+02  0.1200E+02
    -11.332  0.0000E+00  0.0000E+00  0.1200E+02  0.1200E+02
    -11.207  0.0000E+00  0.0000E+00  0.1200E+02  0.1200E+02
    -11.082  0.0000E+00  0.0000E+00  0.1200E+02  0.1200E+02
    -10.957  0.0000E+00  0.0000E+00  0.1200E+02  0.1200E+02
    -10.831  0.0000E+00  0.0000E+00  0.1200E+02  0.1200E+02
    -10.706  0.0000E+00  0.0000E+00  0.1200E+02  0.1200E+02
    -10.581  0.0000E+00  0.0000E+00  0.1200E+02  0.1200E+02
    -10.456  0.0000E+00  0.0000E+00  0.1200E+02  0.1200E+02
    -10.331  0.0000E+00  0.0000E+00  0.1200E+02  0.1200E+02
    -10.205  0.0000E+00  0.0000E+00  0.1200E+02  0.1200E+02
    -10.080  0.0000E+00  0.0000E+00  0.1200E+02  0.1200E+02
     -9.955  0.0000E+00  0.0000E+00  0.1200E+02  0.1200E+02
     -9.830  0.0000E+00  0.0000E+00  0.1200E+02  0.1200E+02
     -9.705  0.0000E+00  0.0000E+00  0.1200E+02  0.1200E+02
     -9.580  0.0000E+00  0.0000E+00  0.1200E+02  0.1200E+02
     -9.454  0.0000E+00  0.0000E+00  0.1200E+02  0.1200E+02
     -9.329  0.0000E+00  0.0000E+00  0.1200E+02  0.1200E+02
     -9.204  0.0000E+00  0.0000E+00  0.1200E+02  0.1200E+02
     -9.079  0.0000E+00  0.0000E+00  0.1200E+02  0.1200E+02
     -8.954  0.0000E+00  0.0000E+00  0.1200E+02  0.1200E+02
     -8.828  0.0000E+00  0.0000E+00  0.1200E+02  0.1200E+02
     -8.703  0.0000E+00  0.0000E+00  0.1200E+02  0.1200E+02
     -8.578  0.0000E+00  0.0000E+00  0.1200E+02  0.1200E+02
     -8.453  0.0000E+00  0.0000E+00  0.1200E+02  0.1200E+02
     -8.328  0.0000E+00  0.0000E+00  0.1200E+02  0.1200E+02
     -8.203  0.0000E+00  0.0000E+00  0.1200E+02  0.1200E+02
     -8.077  0.0000E+00  0.0000E+00  0.1200E+02  0.1200E+02
     -7.952  0.0000E+00  0.0000E+00  0.1200E+02  0.1200E+02
     -7.827  0.0000E+00  0.0000E+00  0.1200E+02  0.1200E+02
     -7.702  0.0000E+00  0.0000E+00  0.1200E+02  0.1200E+02
     -7.577  0.0000E+00  0.0000E+00  0.1200E+02  0.1200E+02
     -7.451  0.0000E+00  0.0000E+00  0.1200E+02  0.1200E+02
     -7.326  0.0000E+00  0.0000E+00  0.1200E+02  0.1200E+02
     -7.201  0.0000E+00  0.0000E+00  0.1200E+02  0.1200E+02
     -7.076  0.0000E+00  0.0000E+00  0.1200E+02  0.1200E+02
     -6.951  0.0000E+00  0.0000E+00  0.1200E+02  0.1200E+02
     -6.826  0.0000E+00  0.0000E+00  0.1200E+02  0.1200E+02
     -6.700  0.0000E+00  0.0000E+00  0.1200E+02  0.1200E+02
     -6.575  0.0000E+00  0.0000E+00  0.1200E+02  0.1200E+02
     -6.450  0.0000E+00  0.0000E+00  0.1200E+02  0.1200E+02
     -6.325  0.0000E+00  0.0000E+00  0.1200E+02  0.1200E+02
     -6.200  0.0000E+00  0.0000E+00  0.1200E+02  0.1200E+02
     -6.074  0.0000E+00  0.0000E+00  0.1200E+02  0.1200E+02
     -5.949  0.0000E+00  0.0000E+00  0.1200E+02  0.1200E+02
     -5.824  0.0000E+00  0.0000E+00  0.1200E+02  0.1200E+02
     -5.699  0.0000E+00  0.0000E+00  0.1200E+02  0.1200E+02
     -5.574  0.0000E+00  0.0000E+00  0.1200E+02  0.1200E+02
     -5.449  0.0000E+00  0.0000E+00  0.1200E+02  0.1200E+02
     -5.323  0.0000E+00  0.0000E+00  0.1200E+02  0.1200E+02
     -5.198  0.0000E+00  0.0000E+00  0.1200E+02  0.1200E+02
     -5.073  0.0000E+00  0.0000E+00  0.1200E+02  0.1200E+02
     -4.948  0.0000E+00  0.0000E+00  0.1200E+02  0.1200E+02
     -4.823  0.0000E+00  0.0000E+00  0.1200E+02  0.1200E+02
     -4.698  0.0000E+00  0.0000E+00  0.1200E+02  0.1200E+02
     -4.572  0.0000E+00  0.0000E+00  0.1200E+02  0.1200E+02
     -4.447  0.0000E+00  0.0000E+00  0.1200E+02  0.1200E+02
     -4.322  0.0000E+00  0.0000E+00  0.1200E+02  0.1200E+02
     -4.197  0.0000E+00  0.0000E+00  0.1200E+02  0.1200E+02
     -4.072  0.0000E+00  0.0000E+00  0.1200E+02  0.1200E+02
     -3.946  0.0000E+00  0.0000E+00  0.1200E+02  0.1200E+02
     -3.821  0.0000E+00  0.0000E+00  0.1200E+02  0.1200E+02
     -3.696  0.0000E+00  0.0000E+00  0.1200E+02  0.1200E+02
     -3.571  0.0000E+00  0.0000E+00  0.1200E+02  0.1200E+02
     -3.446  0.0000E+00  0.0000E+00  0.1200E+02  0.1200E+02
     -3.321  0.9761E-05  0.9719E-05  0.1200E+02  0.1200E+02
     -3.195  0.1589E-03  0.1582E-03  0.1200E+02  0.1200E+02
     -3.070  0.1911E-02  0.1903E-02  0.1200E+02  0.1200E+02
     -2.945  0.2040E-01  0.2033E-01  0.1200E+02  0.1200E+02
     -2.820  0.1212E+00  0.1210E+00  0.1202E+02  0.1202E+02
     -2.695  0.2698E+00  0.2696E+00  0.1205E+02  0.1205E+02
     -2.569  0.4193E+00  0.4190E+00  0.1210E+02  0.1210E+02
     -2.444  0.4878E+00  0.4879E+00  0.1217E+02  0.1217E+02
     -2.319  0.5649E+00  0.5645E+00  0.1224E+02  0.1224E+02
     -2.194  0.6541E+00  0.6541E+00  0.1232E+02  0.1232E+02
     -2.069  0.6929E+00  0.6927E+00  0.1240E+02  0.1240E+02
     -1.944  0.6797E+00  0.6797E+00  0.1249E+02  0.1249E+02
     -1.818  0.8274E+00  0.8269E+00  0.1259E+02  0.1259E+02
     -1.693  0.9435E+00  0.9434E+00  0.1271E+02  0.1271E+02
     -1.568  0.1013E+01  0.1013E+01  0.1284E+02  0.1284E+02
     -1.443  0.8001E+00  0.8003E+00  0.1294E+02  0.1294E+02
     -1.318  0.1043E+01  0.1043E+01  0.1307E+02  0.1307E+02
     -1.192  0.1247E+01  0.1247E+01  0.1323E+02  0.1323E+02
     -1.067  0.1266E+01  0.1266E+01  0.1338E+02  0.1338E+02
     -0.942  0.1122E+01  0.1123E+01  0.1353E+02  0.1353E+02
     -0.817  0.1255E+01  0.1254E+01  0.1368E+02  0.1368E+02
     -0.692  0.1372E+01  0.1372E+01  0.1385E+02  0.1385E+02
     -0.567  0.1360E+01  0.1360E+01  0.1403E+02  0.1402E+02
     -0.441  0.1690E+01  0.1690E+01  0.1424E+02  0.1424E+02
     -0.316  0.1689E+01  0.1689E+01  0.1445E+02  0.1445E+02
     -0.191  0.1412E+01  0.1413E+01  0.1463E+02  0.1463E+02
     -0.066  0.1331E+01  0.1330E+01  0.1479E+02  0.1479E+02
      0.059  0.1789E+01  0.1788E+01  0.1502E+02  0.1502E+02
      0.184  0.1915E+01  0.1915E+01  0.1526E+02  0.1526E+02
      0.310  0.1913E+01  0.1912E+01  0.1550E+02  0.1550E+02
      0.435  0.1782E+01  0.1783E+01  0.1572E+02  0.1572E+02
      0.560  0.1570E+01  0.1569E+01  0.1592E+02  0.1592E+02
      0.685  0.1719E+01  0.1719E+01  0.1613E+02  0.1613E+02
      0.810  0.1677E+01  0.1678E+01  0.1634E+02  0.1634E+02
      0.936  0.1745E+01  0.1744E+01  0.1656E+02  0.1656E+02
      1.061  0.2319E+01  0.2319E+01  0.1685E+02  0.1685E+02
      1.186  0.2305E+01  0.2306E+01  0.1714E+02  0.1714E+02
      1.311  0.2166E+01  0.2166E+01  0.1741E+02  0.1741E+02
      1.436  0.2134E+01  0.2134E+01  0.1768E+02  0.1768E+02
      1.561  0.2086E+01  0.2086E+01  0.1794E+02  0.1794E+02
      1.687  0.2169E+01  0.2169E+01  0.1821E+02  0.1821E+02
      1.812  0.2241E+01  0.2241E+01  0.1849E+02  0.1849E+02
      1.937  0.2413E+01  0.2413E+01  0.1880E+02  0.1880E+02
      2.062  0.2265E+01  0.2265E+01  0.1908E+02  0.1908E+02
      2.187  0.2108E+01  0.2108E+01  0.1935E+02  0.1934E+02
      2.313  0.2162E+01  0.2162E+01  0.1962E+02  0.1962E+02
      2.438  0.1948E+01  0.1948E+01  0.1986E+02  0.1986E+02
      2.563  0.2532E+01  0.2531E+01  0.2018E+02  0.2018E+02
      2.688  0.3346E+01  0.3345E+01  0.2060E+02  0.2060E+02
      2.813  0.3135E+01  0.3136E+01  0.2099E+02  0.2099E+02
      2.938  0.2993E+01  0.2994E+01  0.2137E+02  0.2136E+02
      3.064  0.2835E+01  0.2836E+01  0.2172E+02  0.2172E+02
      3.189  0.2079E+01  0.2080E+01  0.2198E+02  0.2198E+02
      3.314  0.1646E+01  0.1645E+01  0.2219E+02  0.2219E+02
      3.439  0.2424E+01  0.2422E+01  0.2249E+02  0.2249E+02
      3.564  0.3082E+01  0.3083E+01  0.2288E+02  0.2288E+02
      3.690  0.2949E+01  0.2949E+01  0.2325E+02  0.2325E+02
      3.815  0.2511E+01  0.2511E+01  0.2356E+02  0.2356E+02
      3.940  0.3004E+01  0.3003E+01  0.2394E+02  0.2394E+02
      4.065  0.3551E+01  0.3552E+01  0.2438E+02  0.2438E+02
      4.190  0.3201E+01  0.3202E+01  0.2479E+02  0.2478E+02
      4.315  0.3082E+01  0.3082E+01  0.2517E+02  0.2517E+02
      4.441  0.3368E+01  0.3367E+01  0.2559E+02  0.2559E+02
      4.566  0.3418E+01  0.3418E+01  0.2602E+02  0.2602E+02
      4.691  0.3435E+01  0.3434E+01  0.2645E+02  0.2645E+02
      4.816  0.4037E+01  0.4036E+01  0.2696E+02  0.2696E+02
      4.941  0.4782E+01  0.4781E+01  0.2756E+02  0.2756E+02
      5.067  0.4694E+01  0.4694E+01  0.2815E+02  0.2815E+02
      5.192  0.4409E+01  0.4409E+01  0.2870E+02  0.2870E+02
      5.317  0.4432E+01  0.4433E+01  0.2925E+02  0.2925E+02
      5.442  0.3723E+01  0.3724E+01  0.2972E+02  0.2972E+02
      5.567  0.3489E+01  0.3489E+01  0.3016E+02  0.3016E+02
      5.692  0.4667E+01  0.4666E+01  0.3074E+02  0.3074E+02
      5.818  0.5445E+01  0.5445E+01  0.3143E+02  0.3143E+02
      5.943  0.5649E+01  0.5649E+01  0.3213E+02  0.3213E+02
      6.068  0.6223E+01  0.6222E+01  0.3291E+02  0.3291E+02
      6.193  0.6050E+01  0.6051E+01  0.3367E+02  0.3367E+02
      6.318  0.4469E+01  0.4471E+01  0.3423E+02  0.3423E+02
      6.443  0.3729E+01  0.3730E+01  0.3470E+02  0.3470E+02
      6.569  0.3518E+01  0.3518E+01  0.3514E+02  0.3514E+02
      6.694  0.3917E+01  0.3916E+01  0.3563E+02  0.3563E+02
      6.819  0.3942E+01  0.3943E+01  0.3613E+02  0.3613E+02
      6.944  0.3286E+01  0.3287E+01  0.3654E+02  0.3654E+02
      7.069  0.2737E+01  0.2737E+01  0.3688E+02  0.3688E+02
      7.195  0.1922E+01  0.1922E+01  0.3713E+02  0.3712E+02
      7.320  0.1728E+01  0.1728E+01  0.3734E+02  0.3734E+02
      7.445  0.2027E+01  0.2026E+01  0.3760E+02  0.3760E+02
      7.570  0.2045E+01  0.2045E+01  0.3785E+02  0.3785E+02
      7.695  0.2181E+01  0.2181E+01  0.3813E+02  0.3813E+02
      7.820  0.2483E+01  0.2483E+01  0.3844E+02  0.3844E+02
      7.946  0.2189E+01  0.2189E+01  0.3871E+02  0.3871E+02
      8.071  0.2481E+01  0.2481E+01  0.3902E+02  0.3902E+02
      8.196  0.3017E+01  0.3017E+01  0.3940E+02  0.3940E+02
      8.321  0.2876E+01  0.2875E+01  0.3976E+02  0.3976E+02
      8.446  0.3186E+01  0.3186E+01  0.4016E+02  0.4016E+02
      8.572  0.3698E+01  0.3698E+01  0.4062E+02  0.4062E+02
      8.697  0.4233E+01  0.4232E+01  0.4115E+02  0.4115E+02
      8.822  0.4219E+01  0.4219E+01  0.4168E+02  0.4168E+02
      8.947  0.4192E+01  0.4192E+01  0.4221E+02  0.4221E+02
      9.072  0.4598E+01  0.4599E+01  0.4278E+02  0.4278E+02
      9.197  0.4817E+01  0.4815E+01  0.4339E+02  0.4339E+02
      9.323  0.4673E+01  0.4674E+01  0.4397E+02  0.4397E+02
      9.448  0.5452E+01  0.5465E+01  0.4466E+02  0.4466E+02
      9.573  0.5930E+01  0.5970E+01  0.4540E+02  0.4541E+02
      9.698  0.5528E+01  0.5579E+01  0.4609E+02  0.4611E+02
      9.823  0.5241E+01  0.5237E+01  0.4675E+02  0.4676E+02
      9.949  0.4690E+01  0.4628E+01  0.4734E+02  0.4734E+02
     10.074  0.4232E+01  0.4221E+01  0.4787E+02  0.4787E+02
     10.199  0.4935E+01  0.4999E+01  0.4849E+02  0.4850E+02
     10.324  0.5052E+01  0.5081E+01  0.4912E+02  0.4914E+02
     10.449  0.4996E+01  0.5032E+01  0.4975E+02  0.4977E+02
     10.574  0.4638E+01  0.4556E+01  0.5033E+02  0.5034E+02
     10.700  0.4477E+01  0.4470E+01  0.5089E+02  0.5090E+02
     10.825  0.3580E+01  0.3931E+01  0.5134E+02  0.5139E+02
     10.950  0.2289E+01  0.2319E+01  0.5163E+02  0.5168E+02
     11.075  0.1622E+01  0.1479E+01  0.5183E+02  0.5187E+02
     11.200  0.9556E+00  0.7626E+00  0.5195E+02  0.5197E+02
     11.325  0.3273E+00  0.2388E+00  0.5199E+02  0.5200E+02
     11.451  0.5481E-01  0.3255E-01  0.5200E+02  0.5200E+02
     11.576  0.3781E-02  0.1952E-02  0.5200E+02  0.5200E+02
     11.701  0.0000E+00  0.0000E+00  0.5200E+02  0.5200E+02
     11.826  0.0000E+00  0.0000E+00  0.5200E+02  0.5200E+02
     11.951  0.0000E+00  0.0000E+00  0.5200E+02  0.5200E+02
     12.077  0.0000E+00  0.0000E+00  0.5200E+02  0.5200E+02
     12.202  0.0000E+00  0.0000E+00  0.5200E+02  0.5200E+02
     12.327  0.0000E+00  0.0000E+00  0.5200E+02  0.5200E+02
     12.452  0.0000E+00  0.0000E+00  0.5200E+02  0.5200E+02
     12.577  0.0000E+00  0.0000E+00  0.5200E+02  0.5200E+02
     12.702  0.0000E+00  0.0000E+00  0.5200E+02  0.5200E+02
     12.828  0.0000E+00  0.0000E+00  0.5200E+02  0.5200E+02
     12.953  0.0000E+00  0.0000E+00  0.5200E+02  0.5200E+02
     12.95282254    -24.60109313  301      7.63839127      1.00000000
    -24.601  0.0000E+00  0.0000E+00  0.0000E+00  0.0000E+00  0.0000E+00  0.0000E+00  0.0000E+00  0.0000E+00  0.0000E+00  0.0000E+00  0.0000E+00  0.0000E+00  0.0000E+00  0.0000E+00  0.0000E+00  0.0000E+00  0.0000E+00  0.0000E+00
    -24.476  0.0000E+00  0.0000E+00  0.0000E+00  0.0000E+00  0.0000E+00  0.0000E+00  0.0000E+00  0.0000E+00  0.0000E+00  0.0000E+00  0.0000E+00  0.0000E+00  0.0000E+00  0.0000E+00  0.0000E+00  0.0000E+00  0.0000E+00  0.0000E+00
    -24.351  0.0000E+00  0.0000E+00  0.0000E+00  0.0000E+00  0.0000E+00  0.0000E+00  0.0000E+00  0.0000E+00  0.0000E+00  0.0000E+00  0.0000E+00  0.0000E+00  0.0000E+00  0.0000E+00  0.0000E+00  0.0000E+00  0.0000E+00  0.0000E+00
    -24.226  0.0000E+00  0.0000E+00  0.0000E+00  0.0000E+00  0.0000E+00  0.0000E+00  0.0000E+00  0.0000E+00  0.0000E+00  0.0000E+00  0.0000E+00  0.0000E+00  0.0000E+00  0.0000E+00  0.0000E+00  0.0000E+00  0.0000E+00  0.0000E+00
    -24.100  0.0000E+00  0.0000E+00  0.0000E+00  0.0000E+00  0.0000E+00  0.0000E+00  0.0000E+00  0.0000E+00  0.0000E+00  0.0000E+00  0.0000E+00  0.0000E+00  0.0000E+00  0.0000E+00  0.0000E+00  0.0000E+00  0.0000E+00  0.0000E+00
    -23.975  0.0000E+00  0.0000E+00  0.0000E+00  0.0000E+00  0.0000E+00  0.0000E+00  0.0000E+00  0.0000E+00  0.0000E+00  0.0000E+00  0.0000E+00  0.0000E+00  0.0000E+00  0.0000E+00  0.0000E+00  0.0000E+00  0.0000E+00  0.0000E+00
    -23.850  0.0000E+00  0.0000E+00  0.0000E+00  0.0000E+00  0.0000E+00  0.0000E+00  0.0000E+00  0.0000E+00  0.0000E+00  0.0000E+00  0.0000E+00  0.0000E+00  0.0000E+00  0.0000E+00  0.0000E+00  0.0000E+00  0.0000E+00  0.0000E+00
    -23.725  0.0000E+00  0.0000E+00  0.0000E+00  0.0000E+00  0.0000E+00  0.0000E+00  0.0000E+00  0.0000E+00  0.0000E+00  0.0000E+00  0.0000E+00  0.0000E+00  0.0000E+00  0.0000E+00  0.0000E+00  0.0000E+00  0.0000E+00  0.0000E+00
    -23.600  0.0000E+00  0.0000E+00  0.0000E+00  0.0000E+00  0.0000E+00  0.0000E+00  0.0000E+00  0.0000E+00  0.0000E+00  0.0000E+00  0.0000E+00  0.0000E+00  0.0000E+00  0.0000E+00  0.0000E+00  0.0000E+00  0.0000E+00  0.0000E+00
    -23.474  0.0000E+00  0.0000E+00  0.0000E+00  0.0000E+00  0.0000E+00  0.0000E+00  0.0000E+00  0.0000E+00  0.0000E+00  0.0000E+00  0.0000E+00  0.0000E+00  0.0000E+00  0.0000E+00  0.0000E+00  0.0000E+00  0.0000E+00  0.0000E+00
    -23.349  0.1439E-08  0.1452E-08  0.4965E-03  0.4992E-03  0.9472E-04  0.9609E-04  0.4965E-03  0.4992E-03  0.6230E-10  0.6262E-10  0.1827E-08  0.1838E-08  0.9040E-09  0.9144E-09  0.1827E-08  0.1838E-08  0.1075E-08  0.1082E-08
    -23.224  0.1912E-07  0.1923E-07  0.5569E-02  0.5599E-02  0.2214E-02  0.2226E-02  0.5569E-02  0.5599E-02  0.6990E-09  0.7026E-09  0.2054E-07  0.2067E-07  0.1271E-07  0.1279E-07  0.2054E-07  0.2067E-07  0.1206E-07  0.1214E-07
    -23.099  0.2291E-06  0.2305E-06  0.6736E-01  0.6773E-01  0.2582E-01  0.2597E-01  0.6736E-01  0.6773E-01  0.8447E-08  0.8491E-08  0.2484E-06  0.2499E-06  0.1520E-06  0.1529E-06  0.2484E-06  0.2499E-06  0.1461E-06  0.1470E-06
    -22.974  0.2574E-05  0.2588E-05  0.7292E+00  0.7327E+00  0.3019E+00  0.3035E+00  0.7292E+00  0.7327E+00  0.9053E-07  0.9094E-07  0.2687E-05  0.2702E-05  0.1733E-05  0.1744E-05  0.2687E-05  0.2702E-05  0.1598E-05  0.1608E-05
    -22.849  0.1607E-04  0.1612E-04  0.3630E+01  0.3637E+01  0.2382E+01  0.2390E+01  0.3630E+01  0.3637E+01  0.4246E-06  0.4250E-06  0.1333E-04  0.1336E-04  0.1183E-04  0.1187E-04  0.1333E-04  0.1336E-04  0.8265E-05  0.8288E-05
    -22.723  0.1960E-04  0.1957E-04  0.2913E+01  0.2906E+01  0.4049E+01  0.4044E+01  0.2913E+01  0.2906E+01  0.3090E-06  0.3078E-06  0.1070E-04  0.1068E-04  0.1607E-04  0.1605E-04  0.1070E-04  0.1068E-04  0.6643E-05  0.6631E-05
    -22.598  0.3964E-05  0.3948E-05  0.4439E+00  0.4416E+00  0.9701E+00  0.9656E+00  0.4439E+00  0.4416E+00  0.4476E-07  0.4448E-07  0.1638E-05  0.1631E-05  0.3361E-05  0.3347E-05  0.1638E-05  0.1631E-05  0.9859E-06  0.9818E-06
    -22.473  0.3530E-06  0.3505E-06  0.3027E-01  0.2998E-01  0.9241E-01  0.9190E-01  0.3027E-01  0.2998E-01  0.2609E-08  0.2538E-08  0.1115E-06  0.1105E-06  0.3067E-06  0.3050E-06  0.1115E-06  0.1105E-06  0.7189E-07  0.7156E-07
    -22.348  0.0000E+00  0.0000E+00  0.0000E+00  0.0000E+00  0.0000E+00  0.0000E+00  0.0000E+00  0.0000E+00  0.0000E+00  0.0000E+00  0.0000E+00  0.0000E+00  0.0000E+00  0.0000E+00  0.0000E+00  0.0000E+00  0.0000E+00  0.0000E+00
    -22.223  0.0000E+00  0.0000E+00  0.0000E+00  0.0000E+00  0.0000E+00  0.0000E+00  0.0000E+00  0.0000E+00  0.0000E+00  0.0000E+00  0.0000E+00  0.0000E+00  0.0000E+00  0.0000E+00  0.0000E+00  0.0000E+00  0.0000E+00  0.0000E+00
    -22.097  0.0000E+00  0.0000E+00  0.0000E+00  0.0000E+00  0.0000E+00  0.0000E+00  0.0000E+00  0.0000E+00  0.0000E+00  0.0000E+00  0.0000E+00  0.0000E+00  0.0000E+00  0.0000E+00  0.0000E+00  0.0000E+00  0.0000E+00  0.0000E+00
    -21.972  0.0000E+00  0.0000E+00  0.0000E+00  0.0000E+00  0.0000E+00  0.0000E+00  0.0000E+00  0.0000E+00  0.0000E+00  0.0000E+00  0.0000E+00  0.0000E+00  0.0000E+00  0.0000E+00  0.0000E+00  0.0000E+00  0.0000E+00  0.0000E+00
    -21.847  0.0000E+00  0.0000E+00  0.0000E+00  0.0000E+00  0.0000E+00  0.0000E+00  0.0000E+00  0.0000E+00  0.0000E+00  0.0000E+00  0.0000E+00  0.0000E+00  0.0000E+00  0.0000E+00  0.0000E+00  0.0000E+00  0.0000E+00  0.0000E+00
    -21.722  0.0000E+00  0.0000E+00  0.0000E+00  0.0000E+00  0.0000E+00  0.0000E+00  0.0000E+00  0.0000E+00  0.0000E+00  0.0000E+00  0.0000E+00  0.0000E+00  0.0000E+00  0.0000E+00  0.0000E+00  0.0000E+00  0.0000E+00  0.0000E+00
    -21.597  0.0000E+00  0.0000E+00  0.0000E+00  0.0000E+00  0.0000E+00  0.0000E+00  0.0000E+00  0.0000E+00  0.0000E+00  0.0000E+00  0.0000E+00  0.0000E+00  0.0000E+00  0.0000E+00  0.0000E+00  0.0000E+00  0.0000E+00  0.0000E+00
    -21.472  0.0000E+00  0.0000E+00  0.0000E+00  0.0000E+00  0.0000E+00  0.0000E+00  0.0000E+00  0.0000E+00  0.0000E+00  0.0000E+00  0.0000E+00  0.0000E+00  0.0000E+00  0.0000E+00  0.0000E+00  0.0000E+00  0.0000E+00  0.0000E+00
    -21.346  0.0000E+00  0.0000E+00  0.0000E+00  0.0000E+00  0.0000E+00  0.0000E+00  0.0000E+00  0.0000E+00  0.0000E+00  0.0000E+00  0.0000E+00  0.0000E+00  0.0000E+00  0.0000E+00  0.0000E+00  0.0000E+00  0.0000E+00  0.0000E+00
    -21.221  0.0000E+00  0.0000E+00  0.0000E+00  0.0000E+00  0.0000E+00  0.0000E+00  0.0000E+00  0.0000E+00  0.0000E+00  0.0000E+00  0.0000E+00  0.0000E+00  0.0000E+00  0.0000E+00  0.0000E+00  0.0000E+00  0.0000E+00  0.0000E+00
    -21.096  0.0000E+00  0.0000E+00  0.0000E+00  0.0000E+00  0.0000E+00  0.0000E+00  0.0000E+00  0.0000E+00  0.0000E+00  0.0000E+00  0.0000E+00  0.0000E+00  0.0000E+00  0.0000E+00  0.0000E+00  0.0000E+00  0.0000E+00  0.0000E+00
    -20.971  0.0000E+00  0.0000E+00  0.0000E+00  0.0000E+00  0.0000E+00  0.0000E+00  0.0000E+00  0.0000E+00  0.0000E+00  0.0000E+00  0.0000E+00  0.0000E+00  0.0000E+00  0.0000E+00  0.0000E+00  0.0000E+00  0.0000E+00  0.0000E+00
    -20.846  0.0000E+00  0.0000E+00  0.0000E+00  0.0000E+00  0.0000E+00  0.0000E+00  0.0000E+00  0.0000E+00  0.0000E+00  0.0000E+00  0.0000E+00  0.0000E+00  0.0000E+00  0.0000E+00  0.0000E+00  0.0000E+00  0.0000E+00  0.0000E+00
    -20.721  0.0000E+00  0.0000E+00  0.0000E+00  0.0000E+00  0.0000E+00  0.0000E+00  0.0000E+00  0.0000E+00  0.0000E+00  0.0000E+00  0.0000E+00  0.0000E+00  0.0000E+00  0.0000E+00  0.0000E+00  0.0000E+00  0.0000E+00  0.0000E+00
    -20.595  0.0000E+00  0.0000E+00  0.0000E+00  0.0000E+00  0.0000E+00  0.0000E+00  0.0000E+00  0.0000E+00  0.0000E+00  0.0000E+00  0.0000E+00  0.0000E+00  0.0000E+00  0.0000E+00  0.0000E+00  0.0000E+00  0.0000E+00  0.0000E+00
    -20.470  0.0000E+00  0.0000E+00  0.0000E+00  0.0000E+00  0.0000E+00  0.0000E+00  0.0000E+00  0.0000E+00  0.0000E+00  0.0000E+00  0.0000E+00  0.0000E+00  0.0000E+00  0.0000E+00  0.0000E+00  0.0000E+00  0.0000E+00  0.0000E+00
    -20.345  0.0000E+00  0.0000E+00  0.0000E+00  0.0000E+00  0.0000E+00  0.0000E+00  0.0000E+00  0.0000E+00  0.0000E+00  0.0000E+00  0.0000E+00  0.0000E+00  0.0000E+00  0.0000E+00  0.0000E+00  0.0000E+00  0.0000E+00  0.0000E+00
    -20.220  0.0000E+00  0.0000E+00  0.0000E+00  0.0000E+00  0.0000E+00  0.0000E+00  0.0000E+00  0.0000E+00  0.0000E+00  0.0000E+00  0.0000E+00  0.0000E+00  0.0000E+00  0.0000E+00  0.0000E+00  0.0000E+00  0.0000E+00  0.0000E+00
    -20.095  0.0000E+00  0.0000E+00  0.0000E+00  0.0000E+00  0.0000E+00  0.0000E+00  0.0000E+00  0.0000E+00  0.0000E+00  0.0000E+00  0.0000E+00  0.0000E+00  0.0000E+00  0.0000E+00  0.0000E+00  0.0000E+00  0.0000E+00  0.0000E+00
    -19.969  0.0000E+00  0.0000E+00  0.0000E+00  0.0000E+00  0.0000E+00  0.0000E+00  0.0000E+00  0.0000E+00  0.0000E+00  0.0000E+00  0.0000E+00  0.0000E+00  0.0000E+00  0.0000E+00  0.0000E+00  0.0000E+00  0.0000E+00  0.0000E+00
    -19.844  0.0000E+00  0.0000E+00  0.0000E+00  0.0000E+00  0.0000E+00  0.0000E+00  0.0000E+00  0.0000E+00  0.0000E+00  0.0000E+00  0.0000E+00  0.0000E+00  0.0000E+00  0.0000E+00  0.0000E+00  0.0000E+00  0.0000E+00  0.0000E+00
    -19.719  0.0000E+00  0.0000E+00  0.0000E+00  0.0000E+00  0.0000E+00  0.0000E+00  0.0000E+00  0.0000E+00  0.0000E+00  0.0000E+00  0.0000E+00  0.0000E+00  0.0000E+00  0.0000E+00  0.0000E+00  0.0000E+00  0.0000E+00  0.0000E+00
    -19.594  0.0000E+00  0.0000E+00  0.0000E+00  0.0000E+00  0.0000E+00  0.0000E+00  0.0000E+00  0.0000E+00  0.0000E+00  0.0000E+00  0.0000E+00  0.0000E+00  0.0000E+00  0.0000E+00  0.0000E+00  0.0000E+00  0.0000E+00  0.0000E+00
    -19.469  0.0000E+00  0.0000E+00  0.0000E+00  0.0000E+00  0.0000E+00  0.0000E+00  0.0000E+00  0.0000E+00  0.0000E+00  0.0000E+00  0.0000E+00  0.0000E+00  0.0000E+00  0.0000E+00  0.0000E+00  0.0000E+00  0.0000E+00  0.0000E+00
    -19.344  0.0000E+00  0.0000E+00  0.0000E+00  0.0000E+00  0.0000E+00  0.0000E+00  0.0000E+00  0.0000E+00  0.0000E+00  0.0000E+00  0.0000E+00  0.0000E+00  0.0000E+00  0.0000E+00  0.0000E+00  0.0000E+00  0.0000E+00  0.0000E+00
    -19.218  0.0000E+00  0.0000E+00  0.0000E+00  0.0000E+00  0.0000E+00  0.0000E+00  0.0000E+00  0.0000E+00  0.0000E+00  0.0000E+00  0.0000E+00  0.0000E+00  0.0000E+00  0.0000E+00  0.0000E+00  0.0000E+00  0.0000E+00  0.0000E+00
    -19.093  0.0000E+00  0.0000E+00  0.0000E+00  0.0000E+00  0.0000E+00  0.0000E+00  0.0000E+00  0.0000E+00  0.0000E+00  0.0000E+00  0.0000E+00  0.0000E+00  0.0000E+00  0.0000E+00  0.0000E+00  0.0000E+00  0.0000E+00  0.0000E+00
    -18.968  0.0000E+00  0.0000E+00  0.0000E+00  0.0000E+00  0.0000E+00  0.0000E+00  0.0000E+00  0.0000E+00  0.0000E+00  0.0000E+00  0.0000E+00  0.0000E+00  0.0000E+00  0.0000E+00  0.0000E+00  0.0000E+00  0.0000E+00  0.0000E+00
    -18.843  0.0000E+00  0.0000E+00  0.0000E+00  0.0000E+00  0.0000E+00  0.0000E+00  0.0000E+00  0.0000E+00  0.0000E+00  0.0000E+00  0.0000E+00  0.0000E+00  0.0000E+00  0.0000E+00  0.0000E+00  0.0000E+00  0.0000E+00  0.0000E+00
    -18.718  0.0000E+00  0.0000E+00  0.0000E+00  0.0000E+00  0.0000E+00  0.0000E+00  0.0000E+00  0.0000E+00  0.0000E+00  0.0000E+00  0.0000E+00  0.0000E+00  0.0000E+00  0.0000E+00  0.0000E+00  0.0000E+00  0.0000E+00  0.0000E+00
    -18.592  0.0000E+00  0.0000E+00  0.0000E+00  0.0000E+00  0.0000E+00  0.0000E+00  0.0000E+00  0.0000E+00  0.0000E+00  0.0000E+00  0.0000E+00  0.0000E+00  0.0000E+00  0.0000E+00  0.0000E+00  0.0000E+00  0.0000E+00  0.0000E+00
    -18.467  0.0000E+00  0.0000E+00  0.0000E+00  0.0000E+00  0.0000E+00  0.0000E+00  0.0000E+00  0.0000E+00  0.0000E+00  0.0000E+00  0.0000E+00  0.0000E+00  0.0000E+00  0.0000E+00  0.0000E+00  0.0000E+00  0.0000E+00  0.0000E+00
    -18.342  0.0000E+00  0.0000E+00  0.0000E+00  0.0000E+00  0.0000E+00  0.0000E+00  0.0000E+00  0.0000E+00  0.0000E+00  0.0000E+00  0.0000E+00  0.0000E+00  0.0000E+00  0.0000E+00  0.0000E+00  0.0000E+00  0.0000E+00  0.0000E+00