   4   4   1   0
  0.1611495E+02  0.4008943E-09  0.4009863E-09  0.4009863E-09  0.5000000E-15
  1.000000000000000E-004
  CAR 
 unknown system                          
     20.08458108     -4.23102660  301      7.50012990      1.00000000
     -4.231  0.0000E+00  0.0000E+00  0.0000E+00  0.0000E+00
     -4.150  0.0000E+00  0.0000E+00  0.0000E+00  0.0000E+00
     -4.069  0.0000E+00  0.0000E+00  0.0000E+00  0.0000E+00
     -3.988  0.0000E+00  0.0000E+00  0.0000E+00  0.0000E+00
     -3.907  0.0000E+00  0.0000E+00  0.0000E+00  0.0000E+00
     -3.826  0.0000E+00  0.0000E+00  0.0000E+00  0.0000E+00
     -3.745  0.0000E+00  0.0000E+00  0.0000E+00  0.0000E+00
     -3.664  0.0000E+00  0.0000E+00  0.0000E+00  0.0000E+00
     -3.583  0.6028E-06  0.6044E-06  0.4886E-07  0.4899E-07
     -3.502  0.8586E-05  0.8608E-05  0.7448E-06  0.7467E-06
     -3.421  0.6278E-04  0.6295E-04  0.5834E-05  0.5849E-05
     -3.339  0.2965E-03  0.2973E-03  0.2987E-04  0.2994E-04
     -3.258  0.1511E-02  0.1515E-02  0.1523E-03  0.1527E-03
     -3.177  0.6809E-02  0.6825E-02  0.7043E-03  0.7059E-03
     -3.096  0.2402E-01  0.2406E-01  0.2651E-02  0.2656E-02
     -3.015  0.5395E-01  0.5400E-01  0.7024E-02  0.7033E-02
     -2.934  0.7988E-01  0.7992E-01  0.1350E-01  0.1351E-01
     -2.853  0.1099E+00  0.1100E+00  0.2241E-01  0.2242E-01
     -2.772  0.1287E+00  0.1287E+00  0.3283E-01  0.3285E-01
     -2.691  0.1262E+00  0.1263E+00  0.4307E-01  0.4308E-01
     -2.610  0.1607E+00  0.1608E+00  0.5610E-01  0.5613E-01
     -2.529  0.1809E+00  0.1809E+00  0.7077E-01  0.7079E-01
     -2.448  0.1772E+00  0.1772E+00  0.8515E-01  0.8518E-01
     -2.367  0.1949E+00  0.1949E+00  0.1010E+00  0.1010E+00
     -2.286  0.1847E+00  0.1847E+00  0.1159E+00  0.1160E+00
     -2.205  0.2059E+00  0.2060E+00  0.1326E+00  0.1327E+00
     -2.124  0.2545E+00  0.2545E+00  0.1533E+00  0.1533E+00
     -2.043  0.2555E+00  0.2555E+00  0.1740E+00  0.1740E+00
     -1.962  0.2478E+00  0.2478E+00  0.1941E+00  0.1942E+00
     -1.881  0.2086E+00  0.2086E+00  0.2110E+00  0.2111E+00
     -1.799  0.2273E+00  0.2274E+00  0.2295E+00  0.2295E+00
     -1.718  0.3124E+00  0.3125E+00  0.2548E+00  0.2549E+00
     -1.637  0.3194E+00  0.3193E+00  0.2807E+00  0.2808E+00
     -1.556  0.3151E+00  0.3151E+00  0.3063E+00  0.3063E+00
     -1.475  0.2909E+00  0.2908E+00  0.3299E+00  0.3299E+00
     -1.394  0.2476E+00  0.2477E+00  0.3499E+00  0.3500E+00
     -1.313  0.3219E+00  0.3220E+00  0.3761E+00  0.3761E+00
     -1.232  0.3813E+00  0.3813E+00  0.4070E+00  0.4070E+00
     -1.151  0.3644E+00  0.3644E+00  0.4366E+00  0.4366E+00
     -1.070  0.3414E+00  0.3414E+00  0.4642E+00  0.4643E+00
     -0.989  0.3555E+00  0.3555E+00  0.4931E+00  0.4931E+00
     -0.908  0.3940E+00  0.3941E+00  0.5250E+00  0.5251E+00
     -0.827  0.4009E+00  0.4009E+00  0.5576E+00  0.5576E+00
     -0.746  0.3872E+00  0.3872E+00  0.5890E+00  0.5890E+00
     -0.665  0.3092E+00  0.3090E+00  0.6140E+00  0.6141E+00
     -0.584  0.2507E+00  0.2507E+00  0.6344E+00  0.6344E+00
     -0.503  0.3045E+00  0.3046E+00  0.6591E+00  0.6591E+00
     -0.422  0.3882E+00  0.3883E+00  0.6906E+00  0.6907E+00
     -0.341  0.4151E+00  0.4151E+00  0.7243E+00  0.7244E+00
     -0.259  0.4075E+00  0.4074E+00  0.7573E+00  0.7574E+00
     -0.178  0.3695E+00  0.3694E+00  0.7873E+00  0.7874E+00
     -0.097  0.3678E+00  0.3678E+00  0.8171E+00  0.8172E+00
     -0.016  0.4142E+00  0.4144E+00  0.8507E+00  0.8508E+00
      0.065  0.4643E+00  0.4642E+00  0.8884E+00  0.8885E+00
      0.146  0.4163E+00  0.4161E+00  0.9222E+00  0.9222E+00
      0.227  0.3583E+00  0.3582E+00  0.9512E+00  0.9513E+00
      0.308  0.3459E+00  0.3460E+00  0.9793E+00  0.9793E+00
      0.389  0.4213E+00  0.4215E+00  0.1013E+01  0.1014E+01
      0.470  0.5165E+00  0.5166E+00  0.1055E+01  0.1055E+01
      0.551  0.5430E+00  0.5429E+00  0.1099E+01  0.1099E+01
      0.632  0.4894E+00  0.4893E+00  0.1139E+01  0.1139E+01
      0.713  0.4270E+00  0.4269E+00  0.1174E+01  0.1174E+01
      0.794  0.4242E+00  0.4243E+00  0.1208E+01  0.1208E+01
      0.875  0.4723E+00  0.4723E+00  0.1246E+01  0.1247E+01
      0.956  0.4989E+00  0.4988E+00  0.1287E+01  0.1287E+01
      1.037  0.4234E+00  0.4232E+00  0.1321E+01  0.1321E+01
      1.118  0.3763E+00  0.3764E+00  0.1352E+01  0.1352E+01
      1.199  0.4852E+00  0.4855E+00  0.1391E+01  0.1391E+01
      1.281  0.5777E+00  0.5777E+00  0.1438E+01  0.1438E+01
      1.362  0.5903E+00  0.5902E+00  0.1486E+01  0.1486E+01
      1.443  0.5723E+00  0.5722E+00  0.1532E+01  0.1532E+01
      1.524  0.5440E+00  0.5441E+00  0.1576E+01  0.1576E+01
      1.605  0.6563E+00  0.6566E+00  0.1630E+01  0.1630E+01
      1.686  0.7091E+00  0.7090E+00  0.1687E+01  0.1687E+01
      1.767  0.5777E+00  0.5775E+00  0.1734E+01  0.1734E+01
      1.848  0.4723E+00  0.4722E+00  0.1772E+01  0.1772E+01
      1.929  0.4556E+00  0.4557E+00  0.1809E+01  0.1809E+01
      2.010  0.6287E+00  0.6291E+00  0.1860E+01  0.1860E+01
      2.091  0.7272E+00  0.7272E+00  0.1919E+01  0.1919E+01
      2.172  0.6623E+00  0.6622E+00  0.1973E+01  0.1973E+01
      2.253  0.6493E+00  0.6495E+00  0.2026E+01  0.2026E+01
      2.334  0.8222E+00  0.8226E+00  0.2092E+01  0.2093E+01
      2.415  0.8415E+00  0.8413E+00  0.2161E+01  0.2161E+01
      2.496  0.7462E+00  0.7462E+00  0.2221E+01  0.2221E+01
      2.577  0.6909E+00  0.6908E+00  0.2277E+01  0.2277E+01
      2.658  0.6722E+00  0.6723E+00  0.2332E+01  0.2332E+01
      2.739  0.7392E+00  0.7394E+00  0.2392E+01  0.2392E+01
      2.820  0.7444E+00  0.7445E+00  0.2452E+01  0.2452E+01
      2.902  0.7724E+00  0.7729E+00  0.2515E+01  0.2515E+01
      2.983  0.8471E+00  0.8476E+00  0.2583E+01  0.2584E+01
      3.064  0.8785E+00  0.8787E+00  0.2655E+01  0.2655E+01
      3.145  0.8988E+00  0.8993E+00  0.2728E+01  0.2728E+01
      3.226  0.1048E+01  0.1049E+01  0.2813E+01  0.2813E+01
      3.307  0.1196E+01  0.1197E+01  0.2910E+01  0.2910E+01
      3.388  0.1236E+01  0.1237E+01  0.3010E+01  0.3010E+01
      3.469  0.1329E+01  0.1331E+01  0.3118E+01  0.3118E+01
      3.550  0.1550E+01  0.1552E+01  0.3243E+01  0.3244E+01
      3.631  0.1753E+01  0.1756E+01  0.3385E+01  0.3387E+01
      3.712  0.2282E+01  0.2289E+01  0.3570E+01  0.3572E+01
      3.793  0.3586E+01  0.3597E+01  0.3861E+01  0.3864E+01
      3.874  0.5221E+01  0.5226E+01  0.4284E+01  0.4287E+01
      3.955  0.6058E+01  0.6056E+01  0.4776E+01  0.4778E+01
      4.036  0.5680E+01  0.5673E+01  0.5236E+01  0.5238E+01
      4.117  0.4449E+01  0.4442E+01  0.5597E+01  0.5598E+01
      4.198  0.3236E+01  0.3232E+01  0.5859E+01  0.5861E+01
      4.279  0.2378E+01  0.2383E+01  0.6052E+01  0.6054E+01
      4.360  0.2795E+01  0.2822E+01  0.6279E+01  0.6283E+01
      4.442  0.4503E+01  0.4519E+01  0.6645E+01  0.6650E+01
      4.523  0.4462E+01  0.4441E+01  0.7007E+01  0.7010E+01
      4.604  0.3216E+01  0.3197E+01  0.7268E+01  0.7270E+01
      4.685  0.2322E+01  0.2314E+01  0.7456E+01  0.7457E+01
      4.766  0.1945E+01  0.1941E+01  0.7614E+01  0.7615E+01
      4.847  0.1564E+01  0.1560E+01  0.7741E+01  0.7742E+01
      4.928  0.1191E+01  0.1189E+01  0.7838E+01  0.7838E+01
      5.009  0.9928E+00  0.9920E+00  0.7918E+01  0.7919E+01
      5.090  0.1138E+01  0.1139E+01  0.8011E+01  0.8011E+01
      5.171  0.1217E+01  0.1216E+01  0.8110E+01  0.8110E+01
      5.252  0.9460E+00  0.9435E+00  0.8186E+01  0.8187E+01
      5.333  0.5954E+00  0.5938E+00  0.8235E+01  0.8235E+01
      5.414  0.5973E+00  0.5979E+00  0.8283E+01  0.8283E+01
      5.495  0.7978E+00  0.7983E+00  0.8348E+01  0.8348E+01
      5.576  0.8229E+00  0.8228E+00  0.8415E+01  0.8415E+01
      5.657  0.8842E+00  0.8847E+00  0.8486E+01  0.8487E+01
      5.738  0.1043E+01  0.1043E+01  0.8571E+01  0.8571E+01
      5.819  0.1073E+01  0.1073E+01  0.8658E+01  0.8658E+01
      5.900  0.9230E+00  0.9224E+00  0.8733E+01  0.8733E+01
      5.982  0.8620E+00  0.8618E+00  0.8803E+01  0.8803E+01
      6.063  0.8142E+00  0.8139E+00  0.8869E+01  0.8869E+01
      6.144  0.7645E+00  0.7644E+00  0.8931E+01  0.8931E+01
      6.225  0.8545E+00  0.8550E+00  0.9000E+01  0.9000E+01
      6.306  0.9176E+00  0.9172E+00  0.9075E+01  0.9075E+01
      6.387  0.7964E+00  0.7961E+00  0.9139E+01  0.9139E+01
      6.468  0.9171E+00  0.9176E+00  0.9214E+01  0.9214E+01
      6.549  0.1020E+01  0.1020E+01  0.9296E+01  0.9297E+01
      6.630  0.8708E+00  0.8702E+00  0.9367E+01  0.9367E+01
      6.711  0.6972E+00  0.6968E+00  0.9424E+01  0.9424E+01
      6.792  0.6341E+00  0.6341E+00  0.9475E+01  0.9475E+01
      6.873  0.6297E+00  0.6297E+00  0.9526E+01  0.9526E+01
      6.954  0.6280E+00  0.6281E+00  0.9577E+01  0.9577E+01
      7.035  0.7128E+00  0.7132E+00  0.9635E+01  0.9635E+01
      7.116  0.8578E+00  0.8579E+00  0.9705E+01  0.9705E+01
      7.197  0.8051E+00  0.8045E+00  0.9770E+01  0.9770E+01
      7.278  0.7472E+00  0.7472E+00  0.9830E+01  0.9831E+01
      7.359  0.7831E+00  0.7831E+00  0.9894E+01  0.9894E+01
      7.440  0.7599E+00  0.7599E+00  0.9956E+01  0.9956E+01
      7.522  0.7391E+00  0.7391E+00  0.1002E+02  0.1002E+02
      7.603  0.6730E+00  0.6727E+00  0.1007E+02  0.1007E+02
      7.684  0.6001E+00  0.6001E+00  0.1012E+02  0.1012E+02
      7.765  0.6233E+00  0.6234E+00  0.1017E+02  0.1017E+02
      7.846  0.6721E+00  0.6724E+00  0.1022E+02  0.1022E+02
      7.927  0.7702E+00  0.7704E+00  0.1029E+02  0.1029E+02
      8.008  0.8592E+00  0.8592E+00  0.1036E+02  0.1036E+02
      8.089  0.8712E+00  0.8709E+00  0.1043E+02  0.1043E+02
      8.170  0.7834E+00  0.7833E+00  0.1049E+02  0.1049E+02
      8.251  0.8310E+00  0.8313E+00  0.1056E+02  0.1056E+02
      8.332  0.9032E+00  0.9034E+00  0.1063E+02  0.1063E+02
      8.413  0.9331E+00  0.9333E+00  0.1071E+02  0.1071E+02
      8.494  0.9569E+00  0.9569E+00  0.1078E+02  0.1078E+02
      8.575  0.8727E+00  0.8723E+00  0.1085E+02  0.1086E+02
      8.656  0.7694E+00  0.7693E+00  0.1092E+02  0.1092E+02
      8.737  0.8293E+00  0.8293E+00  0.1098E+02  0.1098E+02
      8.818  0.7789E+00  0.7786E+00  0.1105E+02  0.1105E+02
      8.899  0.7654E+00  0.7655E+00  0.1111E+02  0.1111E+02
      8.980  0.8601E+00  0.8601E+00  0.1118E+02  0.1118E+02
      9.062  0.8031E+00  0.8029E+00  0.1124E+02  0.1124E+02
      9.143  0.7516E+00  0.7517E+00  0.1131E+02  0.1131E+02
      9.224  0.8368E+00  0.8371E+00  0.1137E+02  0.1137E+02
      9.305  0.8583E+00  0.8581E+00  0.1144E+02  0.1144E+02
      9.386  0.8193E+00  0.8193E+00  0.1151E+02  0.1151E+02
      9.467  0.8283E+00  0.8284E+00  0.1158E+02  0.1158E+02
      9.548  0.8772E+00  0.8774E+00  0.1165E+02  0.1165E+02
      9.629  0.9988E+00  0.9990E+00  0.1173E+02  0.1173E+02
      9.710  0.9709E+00  0.9706E+00  0.1181E+02  0.1181E+02
      9.791  0.8494E+00  0.8491E+00  0.1188E+02  0.1188E+02
      9.872  0.8273E+00  0.8273E+00  0.1194E+02  0.1194E+02
      9.953  0.8543E+00  0.8543E+00  0.1201E+02  0.1201E+02
     10.034  0.8941E+00  0.8942E+00  0.1209E+02  0.1209E+02
     10.115  0.8930E+00  0.8929E+00  0.1216E+02  0.1216E+02
     10.196  0.8406E+00  0.8405E+00  0.1223E+02  0.1223E+02
     10.277  0.8532E+00  0.8532E+00  0.1230E+02  0.1230E+02
     10.358  0.8601E+00  0.8600E+00  0.1237E+02  0.1237E+02
     10.439  0.8465E+00  0.8464E+00  0.1243E+02  0.1243E+02
     10.520  0.8394E+00  0.8394E+00  0.1250E+02  0.1250E+02
     10.601  0.7517E+00  0.7516E+00  0.1256E+02  0.1256E+02
     10.683  0.6455E+00  0.6453E+00  0.1262E+02  0.1262E+02
     10.764  0.6852E+00  0.6856E+00  0.1267E+02  0.1267E+02
     10.845  0.9862E+00  0.9867E+00  0.1275E+02  0.1275E+02
     10.926  0.1081E+01  0.1081E+01  0.1284E+02  0.1284E+02
     11.007  0.9743E+00  0.9742E+00  0.1292E+02  0.1292E+02
     11.088  0.9805E+00  0.9807E+00  0.1300E+02  0.1300E+02
     11.169  0.1138E+01  0.1138E+01  0.1309E+02  0.1309E+02
     11.250  0.1136E+01  0.1136E+01  0.1318E+02  0.1318E+02
     11.331  0.9324E+00  0.9321E+00  0.1326E+02  0.1326E+02
     11.412  0.8484E+00  0.8485E+00  0.1333E+02  0.1333E+02
     11.493  0.8849E+00  0.8848E+00  0.1340E+02  0.1340E+02
     11.574  0.8075E+00  0.8074E+00  0.1346E+02  0.1346E+02
     11.655  0.8003E+00  0.8005E+00  0.1353E+02  0.1353E+02
     11.736  0.8757E+00  0.8757E+00  0.1360E+02  0.1360E+02
     11.817  0.8996E+00  0.8996E+00  0.1367E+02  0.1367E+02
     11.898  0.9208E+00  0.9206E+00  0.1375E+02  0.1375E+02
     11.979  0.8545E+00  0.8545E+00  0.1382E+02  0.1382E+02
     12.060  0.9067E+00  0.9069E+00  0.1389E+02  0.1389E+02
     12.141  0.9818E+00  0.9821E+00  0.1397E+02  0.1397E+02
     12.223  0.1045E+01  0.1046E+01  0.1405E+02  0.1405E+02
     12.304  0.1061E+01  0.1061E+01  0.1414E+02  0.1414E+02
     12.385  0.9744E+00  0.9740E+00  0.1422E+02  0.1422E+02
     12.466  0.9125E+00  0.9123E+00  0.1429E+02  0.1429E+02
     12.547  0.8842E+00  0.8844E+00  0.1437E+02  0.1437E+02
     12.628  0.9430E+00  0.9437E+00  0.1444E+02  0.1444E+02
     12.709  0.1016E+01  0.1017E+01  0.1452E+02  0.1452E+02
     12.790  0.1048E+01  0.1051E+01  0.1461E+02  0.1461E+02
     12.871  0.1048E+01  0.1057E+01  0.1469E+02  0.1470E+02
     12.952  0.9005E+00  0.9006E+00  0.1477E+02  0.1477E+02
     13.033  0.8275E+00  0.8181E+00  0.1483E+02  0.1483E+02
     13.114  0.9192E+00  0.9164E+00  0.1491E+02  0.1491E+02
     13.195  0.1019E+01  0.1013E+01  0.1499E+02  0.1499E+02
     13.276  0.1019E+01  0.1004E+01  0.1507E+02  0.1507E+02
     13.357  0.7931E+00  0.7951E+00  0.1514E+02  0.1514E+02
     13.438  0.5577E+00  0.5680E+00  0.1518E+02  0.1518E+02
     13.519  0.5189E+00  0.5215E+00  0.1523E+02  0.1523E+02
     13.600  0.6525E+00  0.6597E+00  0.1528E+02  0.1528E+02
     13.681  0.6129E+00  0.6380E+00  0.1533E+02  0.1533E+02
     13.763  0.3540E+00  0.3669E+00  0.1536E+02  0.1536E+02
     13.844  0.2661E+00  0.2464E+00  0.1538E+02  0.1538E+02
     13.925  0.3185E+00  0.3045E+00  0.1540E+02  0.1541E+02
     14.006  0.3809E+00  0.3802E+00  0.1544E+02  0.1544E+02
     14.087  0.4727E+00  0.4709E+00  0.1547E+02  0.1547E+02
     14.168  0.5856E+00  0.5749E+00  0.1552E+02  0.1552E+02
     14.249  0.4825E+00  0.4795E+00  0.1556E+02  0.1556E+02
     14.330  0.2582E+00  0.2634E+00  0.1558E+02  0.1558E+02
     14.411  0.2035E+00  0.2064E+00  0.1560E+02  0.1560E+02
     14.492  0.2463E+00  0.2472E+00  0.1562E+02  0.1562E+02
     14.573  0.2481E+00  0.2482E+00  0.1564E+02  0.1564E+02
     14.654  0.2317E+00  0.2316E+00  0.1566E+02  0.1566E+02
     14.735  0.2592E+00  0.2591E+00  0.1568E+02  0.1568E+02
     14.816  0.2836E+00  0.2837E+00  0.1570E+02  0.1570E+02
     14.897  0.2079E+00  0.2078E+00  0.1572E+02  0.1572E+02
     14.978  0.1186E+00  0.1185E+00  0.1573E+02  0.1573E+02
     15.059  0.1017E+00  0.1018E+00  0.1574E+02  0.1574E+02
     15.140  0.1201E+00  0.1205E+00  0.1575E+02  0.1575E+02
     15.221  0.1121E+00  0.1125E+00  0.1575E+02  0.1576E+02
     15.303  0.7554E-01  0.7469E-01  0.1576E+02  0.1576E+02
     15.384  0.8426E-01  0.8173E-01  0.1577E+02  0.1577E+02
     15.465  0.1140E+00  0.1108E+00  0.1578E+02  0.1578E+02
     15.546  0.1734E+00  0.1786E+00  0.1579E+02  0.1579E+02
     15.627  0.2016E+00  0.2060E+00  0.1581E+02  0.1581E+02
     15.708  0.1562E+00  0.1561E+00  0.1582E+02  0.1582E+02
     15.789  0.1199E+00  0.1190E+00  0.1583E+02  0.1583E+02
     15.870  0.9422E-01  0.9240E-01  0.1584E+02  0.1584E+02
     15.951  0.1095E+00  0.1086E+00  0.1585E+02  0.1585E+02
     16.032  0.1079E+00  0.1078E+00  0.1586E+02  0.1586E+02
     16.113  0.7811E-01  0.7830E-01  0.1586E+02  0.1586E+02
     16.194  0.1031E+00  0.1018E+00  0.1587E+02  0.1587E+02
     16.275  0.1654E+00  0.1554E+00  0.1588E+02  0.1588E+02
     16.356  0.1909E+00  0.1796E+00  0.1590E+02  0.1590E+02
     16.437  0.1435E+00  0.1514E+00  0.1591E+02  0.1591E+02
     16.518  0.1128E+00  0.1228E+00  0.1592E+02  0.1592E+02
     16.599  0.8714E-01  0.9041E-01  0.1593E+02  0.1593E+02
     16.680  0.4331E-01  0.4399E-01  0.1593E+02  0.1593E+02
     16.761  0.2929E-01  0.2944E-01  0.1593E+02  0.1593E+02
     16.843  0.5066E-01  0.5059E-01  0.1594E+02  0.1594E+02
     16.924  0.5086E-01  0.5037E-01  0.1594E+02  0.1594E+02
     17.005  0.4555E-01  0.4424E-01  0.1594E+02  0.1594E+02
     17.086  0.8520E-01  0.8393E-01  0.1595E+02  0.1595E+02
     17.167  0.1127E+00  0.1135E+00  0.1596E+02  0.1596E+02
     17.248  0.6053E-01  0.6209E-01  0.1597E+02  0.1597E+02
     17.329  0.1691E-01  0.1746E-01  0.1597E+02  0.1597E+02
     17.410  0.5380E-02  0.5420E-02  0.1597E+02  0.1597E+02
     17.491  0.9360E-02  0.8981E-02  0.1597E+02  0.1597E+02
     17.572  0.3082E-01  0.2970E-01  0.1597E+02  0.1597E+02
     17.653  0.5217E-01  0.5187E-01  0.1597E+02  0.1597E+02
     17.734  0.3220E-01  0.3337E-01  0.1598E+02  0.1598E+02
     17.815  0.1678E-01  0.1723E-01  0.1598E+02  0.1598E+02
     17.896  0.3157E-01  0.3137E-01  0.1598E+02  0.1598E+02
     17.977  0.5208E-01  0.5202E-01  0.1599E+02  0.1599E+02
     18.058  0.3150E-01  0.3185E-01  0.1599E+02  0.1599E+02
     18.139  0.9148E-02  0.9313E-02  0.1599E+02  0.1599E+02
     18.220  0.2795E-02  0.2806E-02  0.1599E+02  0.1599E+02
     18.301  0.4509E-02  0.4389E-02  0.1599E+02  0.1599E+02
     18.382  0.1609E-01  0.1588E-01  0.1599E+02  0.1599E+02
     18.464  0.3358E-01  0.3556E-01  0.1599E+02  0.1599E+02
     18.545  0.2493E-01  0.3470E-01  0.1600E+02  0.1600E+02
     18.626  0.7910E-02  0.2549E-01  0.1600E+02  0.1600E+02
     18.707  0.1900E-02  0.1330E-01  0.1600E+02  0.1600E+02
     18.788  0.1115E-02  0.3792E-02  0.1600E+02  0.1600E+02
     18.869  0.3486E-02  0.7438E-03  0.1600E+02  0.1600E+02
     18.950  0.1159E-01  0.1500E-03  0.1600E+02  0.1600E+02
     19.031  0.1709E-01  0.0000E+00  0.1600E+02  0.1600E+02
     19.112  0.8848E-02  0.0000E+00  0.1600E+02  0.1600E+02
     19.193  0.2340E-02  0.0000E+00  0.1600E+02  0.1600E+02
     19.274  0.4939E-03  0.0000E+00  0.1600E+02  0.1600E+02
     19.355  0.9894E-04  0.0000E+00  0.1600E+02  0.1600E+02
     19.436  0.0000E+00  0.0000E+00  0.1600E+02  0.1600E+02
     19.517  0.0000E+00  0.0000E+00  0.1600E+02  0.1600E+02
     19.598  0.0000E+00  0.0000E+00  0.1600E+02  0.1600E+02
     19.679  0.0000E+00  0.0000E+00  0.1600E+02  0.1600E+02
     19.760  0.0000E+00  0.0000E+00  0.1600E+02  0.1600E+02
     19.841  0.0000E+00  0.0000E+00  0.1600E+02  0.1600E+02
     19.922  0.0000E+00  0.0000E+00  0.1600E+02  0.1600E+02
     20.004  0.0000E+00  0.0000E+00  0.1600E+02  0.1600E+02
     20.085  0.0000E+00  0.0000E+00  0.1600E+02  0.1600E+02
     20.08458108     -4.23102660  301      7.50012990      1.00000000
     -4.231  0.0000E+00  0.0000E+00  0.0000E+00  0.0000E+00  0.0000E+00  0.0000E+00  0.0000E+00  0.0000E+00  0.0000E+00  0.0000E+00  0.0000E+00  0.0000E+00  0.0000E+00  0.0000E+00  0.0000E+00  0.0000E+00  0.0000E+00  0.0000E+00
     -4.150  0.0000E+00  0.0000E+00  0.0000E+00  0.0000E+00  0.0000E+00  0.0000E+00  0.0000E+00  0.0000E+00  0.0000E+00  0.0000E+00  0.0000E+00  0.0000E+00  0.0000E+00  0.0000E+00  0.0000E+00  0.0000E+00  0.0000E+00  0.0000E+00
     -4.069  0.0000E+00  0.0000E+00  0.0000E+00  0.0000E+00  0.0000E+00  0.0000E+00  0.0000E+00  0.0000E+00  0.0000E+00  0.0000E+00  0.0000E+00  0.0000E+00  0.0000E+00  0.0000E+00  0.0000E+00  0.0000E+00  0.0000E+00  0.0000E+00
     -3.988  0.0000E+00  0.0000E+00  0.0000E+00  0.0000E+00  0.0000E+00  0.0000E+00  0.0000E+00  0.0000E+00  0.0000E+00  0.0000E+00  0.0000E+00  0.0000E+00  0.0000E+00  0.0000E+00  0.0000E+00  0.0000E+00  0.0000E+00  0.0000E+00
     -3.907  0.0000E+00  0.0000E+00  0.0000E+00  0.0000E+00  0.0000E+00  0.0000E+00  0.0000E+00  0.0000E+00  0.0000E+00  0.0000E+00  0.0000E+00  0.0000E+00  0.0000E+00  0.0000E+00  0.0000E+00  0.0000E+00  0.0000E+00  0.0000E+00
     -3.826  0.0000E+00  0.0000E+00  0.0000E+00  0.0000E+00  0.0000E+00  0.0000E+00  0.0000E+00  0.0000E+00  0.0000E+00  0.0000E+00  0.0000E+00  0.0000E+00  0.0000E+00  0.0000E+00  0.0000E+00  0.0000E+00  0.0000E+00  0.0000E+00
     -3.745  0.0000E+00  0.0000E+00  0.0000E+00  0.0000E+00  0.0000E+00  0.0000E+00  0.0000E+00  0.0000E+00  0.0000E+00  0.0000E+00  0.0000E+00  0.0000E+00  0.0000E+00  0.0000E+00  0.0000E+00  0.0000E+00  0.0000E+00  0.0000E+00
     -3.664  0.0000E+00  0.0000E+00  0.0000E+00  0.0000E+00  0.0000E+00  0.0000E+00  0.0000E+00  0.0000E+00  0.0000E+00  0.0000E+00  0.0000E+00  0.0000E+00  0.0000E+00  0.0000E+00  0.0000E+00  0.0000E+00  0.0000E+00  0.0000E+00
     -3.583  0.4582E-07  0.4594E-07  0.4957E-20  0.2249E-19  0.4957E-20  0.2249E-19  0.5461E-20  0.1405E-19  0.1680E-15  0.2851E-15  0.2914E-16  0.1632E-15  0.2199E-15  0.5648E-15  0.1680E-15  0.2851E-15  0.2785E-15  0.6388E-15
     -3.502  0.6486E-06  0.6503E-06  0.9483E-09  0.9505E-09  0.9483E-09  0.9505E-09  0.9480E-09  0.9505E-09  0.7081E-15  0.2363E-14  0.1866E-15  0.1689E-14  0.3190E-11  0.3222E-11  0.7081E-15  0.2363E-14  0.4098E-11  0.4136E-11
     -3.421  0.4719E-05  0.4732E-05  0.1239E-07  0.1242E-07  0.1239E-07  0.1242E-07  0.1239E-07  0.1242E-07  0.8501E-10  0.8391E-10  0.8511E-10  0.8382E-10  0.2880E-10  0.2770E-10  0.8501E-10  0.8391E-10  0.2897E-10  0.2813E-10
     -3.339  0.2229E-04  0.2235E-04  0.5771E-07  0.5785E-07  0.5771E-07  0.5785E-07  0.5770E-07  0.5784E-07  0.3446E-09  0.3402E-09  0.3450E-09  0.3398E-09  0.1842E-09  0.1801E-09  0.3446E-09  0.3402E-09  0.2041E-09  0.2012E-09
     -3.258  0.1135E-03  0.1137E-03  0.3286E-06  0.3294E-06  0.3286E-06  0.3294E-06  0.3285E-06  0.3294E-06  0.2458E-08  0.2437E-08  0.2460E-08  0.2436E-08  0.1250E-08  0.1238E-08  0.2458E-08  0.2437E-08  0.1406E-08  0.1401E-08
     -3.177  0.5110E-03  0.5121E-03  0.1541E-05  0.1545E-05  0.1541E-05  0.1545E-05  0.1541E-05  0.1544E-05  0.1147E-07  0.1136E-07  0.1148E-07  0.1136E-07  0.5705E-08  0.5637E-08  0.1147E-07  0.1136E-07  0.6386E-08  0.6350E-08
     -3.096  0.1798E-02  0.1801E-02  0.6446E-05  0.6458E-05  0.6446E-05  0.6458E-05  0.6444E-05  0.6457E-05  0.5441E-07  0.5400E-07  0.5446E-07  0.5397E-07  0.2520E-07  0.2493E-07  0.5441E-07  0.5400E-07  0.2810E-07  0.2796E-07
     -3.015  0.4018E-02  0.4021E-02  0.1921E-04  0.1924E-04  0.1921E-04  0.1924E-04  0.1921E-04  0.1923E-04  0.1990E-06  0.1981E-06  0.1991E-06  0.1981E-06  0.9027E-07  0.8991E-07  0.1990E-06  0.1981E-06  0.1029E-06  0.1029E-06
     -2.934  0.5891E-02  0.5893E-02  0.4160E-04  0.4164E-04  0.4160E-04  0.4164E-04  0.4158E-04  0.4162E-04  0.5444E-06  0.5446E-06  0.5446E-06  0.5446E-06  0.2839E-06  0.2865E-06  0.5444E-06  0.5446E-06  0.3373E-06  0.3406E-06
     -2.853  0.8003E-02  0.8006E-02  0.7977E-04  0.7984E-04  0.7977E-04  0.7984E-04  0.7976E-04  0.7982E-04  0.1340E-05  0.1342E-05  0.1340E-05  0.1342E-05  0.6778E-06  0.6860E-06  0.1340E-05  0.1342E-05  0.8097E-06  0.8187E-06
     -2.772  0.9276E-02  0.9275E-02  0.1141E-03  0.1141E-03  0.1141E-03  0.1141E-03  0.1141E-03  0.1141E-03  0.2545E-05  0.2549E-05  0.2546E-05  0.2549E-05  0.1027E-05  0.1034E-05  0.2545E-05  0.2549E-05  0.1200E-05  0.1207E-05
     -2.691  0.8956E-02  0.8957E-02  0.1430E-03  0.1431E-03  0.1430E-03  0.1431E-03  0.1429E-03  0.1430E-03  0.4135E-05  0.4144E-05  0.4136E-05  0.4145E-05  0.1703E-05  0.1711E-05  0.4135E-05  0.4144E-05  0.1928E-05  0.1935E-05
     -2.610  0.1122E-01  0.1122E-01  0.2218E-03  0.2219E-03  0.2218E-03  0.2219E-03  0.2216E-03  0.2218E-03  0.6904E-05  0.6917E-05  0.6905E-05  0.6917E-05  0.3607E-05  0.3618E-05  0.6904E-05  0.6917E-05  0.4225E-05  0.4237E-05
     -2.529  0.1247E-01  0.1247E-01  0.2812E-03  0.2813E-03  0.2812E-03  0.2813E-03  0.2812E-03  0.2813E-03  0.9539E-05  0.9551E-05  0.9541E-05  0.9552E-05  0.5386E-05  0.5396E-05  0.9539E-05  0.9551E-05  0.6494E-05  0.6505E-05
     -2.448  0.1203E-01  0.1203E-01  0.3139E-03  0.3140E-03  0.3139E-03  0.3140E-03  0.3140E-03  0.3140E-03  0.1449E-04  0.1451E-04  0.1450E-04  0.1452E-04  0.5809E-05  0.5814E-05  0.1449E-04  0.1451E-04  0.6792E-05  0.6796E-05
     -2.367  0.1302E-01  0.1302E-01  0.3871E-03  0.3871E-03  0.3871E-03  0.3871E-03  0.3870E-03  0.3871E-03  0.2192E-04  0.2195E-04  0.2192E-04  0.2195E-04  0.7235E-05  0.7242E-05  0.2192E-04  0.2195E-04  0.8152E-05  0.8158E-05
     -2.286  0.1213E-01  0.1213E-01  0.4055E-03  0.4055E-03  0.4055E-03  0.4055E-03  0.4053E-03  0.4053E-03  0.2346E-04  0.2350E-04  0.2345E-04  0.2349E-04  0.9653E-05  0.9676E-05  0.2346E-04  0.2350E-04  0.1133E-04  0.1136E-04
     -2.205  0.1319E-01  0.1319E-01  0.5141E-03  0.5143E-03  0.5141E-03  0.5143E-03  0.5135E-03  0.5137E-03  0.3004E-04  0.3013E-04  0.3005E-04  0.3015E-04  0.1619E-04  0.1626E-04  0.3004E-04  0.3013E-04  0.1959E-04  0.1967E-04
     -2.124  0.1606E-01  0.1606E-01  0.6802E-03  0.6803E-03  0.6802E-03  0.6803E-03  0.6802E-03  0.6802E-03  0.4530E-04  0.4540E-04  0.4530E-04  0.4545E-04  0.2243E-04  0.2250E-04  0.4530E-04  0.4540E-04  0.2646E-04  0.2654E-04
     -2.043  0.1588E-01  0.1587E-01  0.7281E-03  0.7280E-03  0.7281E-03  0.7280E-03  0.7281E-03  0.7281E-03  0.5775E-04  0.5783E-04  0.5771E-04  0.5787E-04  0.2392E-04  0.2396E-04  0.5775E-04  0.5783E-04  0.2744E-04  0.2750E-04
     -1.962  0.1514E-01  0.1514E-01  0.7517E-03  0.7515E-03  0.7517E-03  0.7515E-03  0.7520E-03  0.7519E-03  0.6957E-04  0.6966E-04  0.6952E-04  0.6966E-04  0.2396E-04  0.2399E-04  0.6957E-04  0.6966E-04  0.2768E-04  0.2772E-04
     -1.881  0.1250E-01  0.1249E-01  0.6745E-03  0.6743E-03  0.6745E-03  0.6743E-03  0.6745E-03  0.6743E-03  0.7270E-04  0.7280E-04  0.7269E-04  0.7281E-04  0.2076E-04  0.2078E-04  0.7270E-04  0.7280E-04  0.2409E-04  0.2412E-04
     -1.799  0.1312E-01  0.1312E-01  0.8144E-03  0.8148E-03  0.8144E-03  0.8148E-03  0.8126E-03  0.8131E-03  0.9001E-04  0.9024E-04  0.9011E-04  0.9035E-04  0.3209E-04  0.3213E-04  0.9001E-04  0.9024E-04  0.3740E-04  0.3745E-04
     -1.718  0.1753E-01  0.1753E-01  0.1193E-02  0.1193E-02  0.1193E-02  0.1193E-02  0.1191E-02  0.1192E-02  0.1271E-03  0.1274E-03  0.1271E-03  0.1275E-03  0.5602E-04  0.5605E-04  0.1271E-03  0.1274E-03  0.6564E-04  0.6567E-04
     -1.637  0.1753E-01  0.1753E-01  0.1275E-02  0.1275E-02  0.1275E-02  0.1275E-02  0.1275E-02  0.1275E-02  0.1438E-03  0.1439E-03  0.1437E-03  0.1439E-03  0.6212E-04  0.6209E-04  0.1438E-03  0.1439E-03  0.7397E-04  0.7393E-04
     -1.556  0.1686E-01  0.1686E-01  0.1322E-02  0.1322E-02  0.1322E-02  0.1322E-02  0.1322E-02  0.1322E-02  0.1742E-03  0.1743E-03  0.1742E-03  0.1743E-03  0.6298E-04  0.6296E-04  0.1742E-03  0.1743E-03  0.7532E-04  0.7528E-04
     -1.475  0.1522E-01  0.1521E-01  0.1268E-02  0.1267E-02  0.1268E-02  0.1267E-02  0.1269E-02  0.1269E-02  0.1821E-03  0.1821E-03  0.1821E-03  0.1820E-03  0.6247E-04  0.6241E-04  0.1821E-03  0.1821E-03  0.7383E-04  0.7374E-04
     -1.394  0.1253E-01  0.1252E-01  0.1136E-02  0.1136E-02  0.1136E-02  0.1136E-02  0.1136E-02  0.1136E-02  0.1987E-03  0.1989E-03  0.1989E-03  0.1990E-03  0.5455E-04  0.5453E-04  0.1987E-03  0.1989E-03  0.6128E-04  0.6120E-04
     -1.313  0.1554E-01  0.1555E-01  0.1566E-02  0.1567E-02  0.1566E-02  0.1567E-02  0.1563E-02  0.1564E-02  0.3054E-03  0.3056E-03  0.3056E-03  0.3057E-03  0.7087E-04  0.7087E-04  0.3054E-03  0.3056E-03  0.7831E-04  0.7825E-04
     -1.232  0.1707E-01  0.1707E-01  0.2000E-02  0.2000E-02  0.2000E-02  0.2000E-02  0.1996E-02  0.1996E-02  0.3625E-03  0.3623E-03  0.3623E-03  0.3621E-03  0.9091E-04  0.9087E-04  0.3625E-03  0.3623E-03  0.1034E-03  0.1033E-03
     -1.151  0.1459E-01  0.1458E-01  0.2090E-02  0.2089E-02  0.2090E-02  0.2089E-02  0.2088E-02  0.2088E-02  0.3422E-03  0.3421E-03  0.3421E-03  0.3419E-03  0.9555E-04  0.9536E-04  0.3422E-03  0.3421E-03  0.1123E-03  0.1120E-03
     -1.070  0.1250E-01  0.1250E-01  0.2072E-02  0.2072E-02  0.2072E-02  0.2072E-02  0.2071E-02  0.2071E-02  0.3652E-03  0.3654E-03  0.3655E-03  0.3657E-03  0.9430E-04  0.9403E-04  0.3652E-03  0.3654E-03  0.1125E-03  0.1121E-03
     -0.989  0.1220E-01  0.1220E-01  0.2231E-02  0.2231E-02  0.2231E-02  0.2231E-02  0.2231E-02  0.2231E-02  0.4622E-03  0.4626E-03  0.4628E-03  0.4632E-03  0.1008E-03  0.1006E-03  0.4622E-03  0.4626E-03  0.1174E-03  0.1171E-03
     -0.908  0.1408E-01  0.1408E-01  0.2415E-02  0.2414E-02  0.2415E-02  0.2414E-02  0.2417E-02  0.2417E-02  0.6531E-03  0.6535E-03  0.6536E-03  0.6540E-03  0.1064E-03  0.1061E-03  0.6531E-03  0.6535E-03  0.1167E-03  0.1164E-03
     -0.827  0.1403E-01  0.1403E-01  0.2472E-02  0.2472E-02  0.2472E-02  0.2472E-02  0.2471E-02  0.2471E-02  0.7784E-03  0.7786E-03  0.7784E-03  0.7787E-03  0.1055E-03  0.1053E-03  0.7784E-03  0.7786E-03  0.1149E-03  0.1146E-03
     -0.746  0.1225E-01  0.1224E-01  0.2490E-02  0.2490E-02  0.2490E-02  0.2490E-02  0.2490E-02  0.2490E-02  0.8321E-03  0.8321E-03  0.8318E-03  0.8320E-03  0.1037E-03  0.1035E-03  0.8321E-03  0.8321E-03  0.1152E-03  0.1150E-03
     -0.665  0.9221E-02  0.9212E-02  0.2026E-02  0.2025E-02  0.2026E-02  0.2025E-02  0.2031E-02  0.2029E-02  0.7380E-03  0.7376E-03  0.7366E-03  0.7364E-03  0.8287E-04  0.8268E-04  0.7380E-03  0.7376E-03  0.9194E-04  0.9173E-04
     -0.584  0.7064E-02  0.7063E-02  0.1666E-02  0.1666E-02  0.1666E-02  0.1666E-02  0.1666E-02  0.1666E-02  0.7173E-03  0.7177E-03  0.7176E-03  0.7180E-03  0.6729E-04  0.6719E-04  0.7173E-03  0.7177E-03  0.7533E-04  0.7523E-04
     -0.503  0.9118E-02  0.9123E-02  0.1969E-02  0.1970E-02  0.1969E-02  0.1970E-02  0.1968E-02  0.1969E-02  0.1018E-02  0.1019E-02  0.1020E-02  0.1021E-02  0.9958E-04  0.9957E-04  0.1018E-02  0.1019E-02  0.1090E-03  0.1091E-03
     -0.422  0.1253E-01  0.1253E-01  0.2433E-02  0.2434E-02  0.2433E-02  0.2434E-02  0.2430E-02  0.2430E-02  0.1386E-02  0.1386E-02  0.1388E-02  0.1388E-02  0.2098E-03  0.2100E-03  0.1386E-02  0.1386E-02  0.2389E-03  0.2392E-03
     -0.341  0.1557E-01  0.1557E-01  0.2475E-02  0.2475E-02  0.2475E-02  0.2475E-02  0.2475E-02  0.2474E-02  0.1415E-02  0.1415E-02  0.1414E-02  0.1414E-02  0.4374E-03  0.4378E-03  0.1415E-02  0.1415E-02  0.5328E-03  0.5334E-03
     -0.259  0.1872E-01  0.1872E-01  0.2242E-02  0.2241E-02  0.2242E-02  0.2241E-02  0.2244E-02  0.2244E-02  0.1293E-02  0.1293E-02  0.1291E-02  0.1291E-02  0.6591E-03  0.6595E-03  0.1293E-02  0.1293E-02  0.8223E-03  0.8228E-03
     -0.178  0.1924E-01  0.1923E-01  0.1929E-02  0.1928E-02  0.1929E-02  0.1928E-02  0.1933E-02  0.1932E-02  0.1152E-02  0.1152E-02  0.1150E-02  0.1150E-02  0.7321E-03  0.7324E-03  0.1152E-02  0.1152E-02  0.9169E-03  0.9174E-03