   4   4   1   0
  0.1659358E+02  0.4048247E-09  0.4049175E-09  0.4049175E-09  0.5000000E-15
  1.000000000000000E-004
  CAR 
 unknown system                          
     19.18166572     -4.29579494  301      7.19644455      1.00000000
     -4.296  0.0000E+00  0.0000E+00  0.0000E+00  0.0000E+00
     -4.218  0.0000E+00  0.0000E+00  0.0000E+00  0.0000E+00
     -4.139  0.0000E+00  0.0000E+00  0.0000E+00  0.0000E+00
     -4.061  0.0000E+00  0.0000E+00  0.0000E+00  0.0000E+00
     -3.983  0.0000E+00  0.0000E+00  0.0000E+00  0.0000E+00
     -3.905  0.0000E+00  0.0000E+00  0.0000E+00  0.0000E+00
     -3.826  0.0000E+00  0.0000E+00  0.0000E+00  0.0000E+00
     -3.748  0.0000E+00  0.0000E+00  0.0000E+00  0.0000E+00
     -3.670  0.8560E-06  0.8576E-06  0.6699E-07  0.6712E-07
     -3.591  0.1745E-04  0.1749E-04  0.1433E-05  0.1436E-05
     -3.513  0.7552E-04  0.7567E-04  0.7343E-05  0.7358E-05
     -3.435  0.3714E-03  0.3722E-03  0.3641E-04  0.3648E-04
     -3.357  0.1730E-02  0.1733E-02  0.1718E-03  0.1721E-03
     -3.278  0.7395E-02  0.7408E-02  0.7505E-03  0.7518E-03
     -3.200  0.2485E-01  0.2488E-01  0.2695E-02  0.2699E-02
     -3.122  0.5462E-01  0.5466E-01  0.6969E-02  0.6976E-02
     -3.044  0.8090E-01  0.8094E-01  0.1330E-01  0.1331E-01
     -2.965  0.1105E+00  0.1106E+00  0.2195E-01  0.2196E-01
     -2.887  0.1309E+00  0.1309E+00  0.3219E-01  0.3220E-01
     -2.809  0.1286E+00  0.1286E+00  0.4226E-01  0.4227E-01
     -2.731  0.1603E+00  0.1604E+00  0.5481E-01  0.5482E-01
     -2.652  0.1839E+00  0.1839E+00  0.6921E-01  0.6923E-01
     -2.574  0.1809E+00  0.1809E+00  0.8336E-01  0.8338E-01
     -2.496  0.1963E+00  0.1963E+00  0.9874E-01  0.9876E-01
     -2.418  0.1918E+00  0.1918E+00  0.1138E+00  0.1138E+00
     -2.339  0.2019E+00  0.2019E+00  0.1296E+00  0.1296E+00
     -2.261  0.2543E+00  0.2543E+00  0.1495E+00  0.1495E+00
     -2.183  0.2611E+00  0.2611E+00  0.1699E+00  0.1700E+00
     -2.105  0.2563E+00  0.2563E+00  0.1900E+00  0.1900E+00
     -2.026  0.2223E+00  0.2223E+00  0.2074E+00  0.2074E+00
     -1.948  0.2193E+00  0.2193E+00  0.2246E+00  0.2246E+00
     -1.870  0.2992E+00  0.2993E+00  0.2480E+00  0.2481E+00
     -1.792  0.3317E+00  0.3317E+00  0.2740E+00  0.2740E+00
     -1.713  0.3173E+00  0.3173E+00  0.2989E+00  0.2989E+00
     -1.635  0.3135E+00  0.3134E+00  0.3234E+00  0.3234E+00
     -1.557  0.2559E+00  0.2558E+00  0.3434E+00  0.3435E+00
     -1.478  0.2985E+00  0.2987E+00  0.3668E+00  0.3668E+00
     -1.400  0.3788E+00  0.3789E+00  0.3965E+00  0.3965E+00
     -1.322  0.3845E+00  0.3845E+00  0.4266E+00  0.4266E+00
     -1.244  0.3545E+00  0.3545E+00  0.4544E+00  0.4544E+00
     -1.165  0.3530E+00  0.3530E+00  0.4820E+00  0.4820E+00
     -1.087  0.3857E+00  0.3857E+00  0.5122E+00  0.5123E+00
     -1.009  0.4097E+00  0.4097E+00  0.5443E+00  0.5443E+00
     -0.931  0.4038E+00  0.4038E+00  0.5759E+00  0.5760E+00
     -0.852  0.3598E+00  0.3597E+00  0.6041E+00  0.6041E+00
     -0.774  0.2673E+00  0.2672E+00  0.6250E+00  0.6251E+00
     -0.696  0.2758E+00  0.2759E+00  0.6466E+00  0.6467E+00
     -0.618  0.3543E+00  0.3544E+00  0.6744E+00  0.6744E+00
     -0.539  0.4118E+00  0.4119E+00  0.7066E+00  0.7067E+00
     -0.461  0.4145E+00  0.4144E+00  0.7391E+00  0.7392E+00
     -0.383  0.3965E+00  0.3964E+00  0.7701E+00  0.7702E+00
     -0.305  0.3631E+00  0.3631E+00  0.7986E+00  0.7986E+00
     -0.226  0.3939E+00  0.3940E+00  0.8294E+00  0.8295E+00
     -0.148  0.4526E+00  0.4528E+00  0.8649E+00  0.8650E+00
     -0.070  0.4549E+00  0.4548E+00  0.9005E+00  0.9006E+00
      0.008  0.3997E+00  0.3997E+00  0.9319E+00  0.9319E+00
      0.087  0.3525E+00  0.3524E+00  0.9594E+00  0.9595E+00
      0.165  0.3708E+00  0.3709E+00  0.9885E+00  0.9885E+00
      0.243  0.4551E+00  0.4551E+00  0.1024E+01  0.1024E+01
      0.321  0.5367E+00  0.5368E+00  0.1066E+01  0.1066E+01
      0.400  0.5371E+00  0.5370E+00  0.1108E+01  0.1108E+01
      0.478  0.4859E+00  0.4859E+00  0.1146E+01  0.1146E+01
      0.556  0.4328E+00  0.4328E+00  0.1180E+01  0.1180E+01
      0.634  0.4398E+00  0.4398E+00  0.1215E+01  0.1215E+01
      0.713  0.4831E+00  0.4831E+00  0.1252E+01  0.1253E+01
      0.791  0.4990E+00  0.4989E+00  0.1292E+01  0.1292E+01
      0.869  0.4197E+00  0.4196E+00  0.1324E+01  0.1324E+01
      0.948  0.3929E+00  0.3930E+00  0.1355E+01  0.1355E+01
      1.026  0.5066E+00  0.5069E+00  0.1395E+01  0.1395E+01
      1.104  0.5878E+00  0.5878E+00  0.1441E+01  0.1441E+01
      1.182  0.6026E+00  0.6025E+00  0.1488E+01  0.1488E+01
      1.261  0.5855E+00  0.5855E+00  0.1534E+01  0.1534E+01
      1.339  0.5546E+00  0.5547E+00  0.1577E+01  0.1577E+01
      1.417  0.6708E+00  0.6711E+00  0.1630E+01  0.1630E+01
      1.495  0.7203E+00  0.7202E+00  0.1686E+01  0.1686E+01
      1.574  0.5925E+00  0.5923E+00  0.1733E+01  0.1733E+01
      1.652  0.4831E+00  0.4830E+00  0.1771E+01  0.1771E+01
      1.730  0.4577E+00  0.4578E+00  0.1806E+01  0.1806E+01
      1.808  0.6268E+00  0.6272E+00  0.1856E+01  0.1856E+01
      1.887  0.7368E+00  0.7368E+00  0.1913E+01  0.1913E+01
      1.965  0.6735E+00  0.6735E+00  0.1966E+01  0.1966E+01
      2.043  0.6406E+00  0.6407E+00  0.2016E+01  0.2016E+01
      2.121  0.7837E+00  0.7841E+00  0.2077E+01  0.2078E+01
      2.200  0.8697E+00  0.8696E+00  0.2146E+01  0.2146E+01
      2.278  0.7727E+00  0.7727E+00  0.2206E+01  0.2206E+01
      2.356  0.7186E+00  0.7186E+00  0.2262E+01  0.2263E+01
      2.434  0.6680E+00  0.6681E+00  0.2315E+01  0.2315E+01
      2.513  0.7110E+00  0.7112E+00  0.2370E+01  0.2371E+01
      2.591  0.7459E+00  0.7460E+00  0.2429E+01  0.2429E+01
      2.669  0.7408E+00  0.7411E+00  0.2487E+01  0.2487E+01
      2.747  0.8126E+00  0.8131E+00  0.2550E+01  0.2551E+01
      2.826  0.8581E+00  0.8583E+00  0.2618E+01  0.2618E+01
      2.904  0.8829E+00  0.8830E+00  0.2687E+01  0.2687E+01
      2.982  0.9468E+00  0.9475E+00  0.2761E+01  0.2761E+01
      3.060  0.1123E+01  0.1123E+01  0.2849E+01  0.2849E+01
      3.139  0.1203E+01  0.1204E+01  0.2943E+01  0.2944E+01
      3.217  0.1235E+01  0.1237E+01  0.3040E+01  0.3040E+01
      3.295  0.1386E+01  0.1388E+01  0.3148E+01  0.3149E+01
      3.374  0.1594E+01  0.1596E+01  0.3273E+01  0.3274E+01
      3.452  0.1807E+01  0.1811E+01  0.3415E+01  0.3416E+01
      3.530  0.2436E+01  0.2444E+01  0.3605E+01  0.3607E+01
      3.608  0.3880E+01  0.3891E+01  0.3909E+01  0.3912E+01
      3.687  0.5531E+01  0.5535E+01  0.4342E+01  0.4345E+01
      3.765  0.6264E+01  0.6260E+01  0.4832E+01  0.4835E+01
      3.843  0.5743E+01  0.5736E+01  0.5282E+01  0.5284E+01
      3.921  0.4459E+01  0.4452E+01  0.5631E+01  0.5632E+01
      4.000  0.3254E+01  0.3251E+01  0.5886E+01  0.5887E+01
      4.078  0.2518E+01  0.2528E+01  0.6083E+01  0.6085E+01
      4.156  0.3243E+01  0.3274E+01  0.6337E+01  0.6342E+01
      4.234  0.4791E+01  0.4800E+01  0.6713E+01  0.6718E+01
      4.313  0.4403E+01  0.4380E+01  0.7058E+01  0.7061E+01
      4.391  0.3153E+01  0.3135E+01  0.7305E+01  0.7307E+01
      4.469  0.2339E+01  0.2332E+01  0.7488E+01  0.7489E+01
      4.547  0.1967E+01  0.1963E+01  0.7642E+01  0.7643E+01
      4.626  0.1541E+01  0.1537E+01  0.7763E+01  0.7764E+01
      4.704  0.1177E+01  0.1174E+01  0.7855E+01  0.7856E+01
      4.782  0.1041E+01  0.1041E+01  0.7937E+01  0.7938E+01
      4.860  0.1209E+01  0.1210E+01  0.8032E+01  0.8032E+01
      4.939  0.1209E+01  0.1208E+01  0.8127E+01  0.8127E+01
      5.017  0.8972E+00  0.8947E+00  0.8197E+01  0.8197E+01
      5.095  0.5901E+00  0.5888E+00  0.8243E+01  0.8243E+01
      5.173  0.6592E+00  0.6598E+00  0.8295E+01  0.8295E+01
      5.252  0.8412E+00  0.8415E+00  0.8361E+01  0.8361E+01
      5.330  0.8785E+00  0.8786E+00  0.8429E+01  0.8430E+01
      5.408  0.9784E+00  0.9788E+00  0.8506E+01  0.8506E+01
      5.486  0.1114E+01  0.1114E+01  0.8593E+01  0.8594E+01
      5.565  0.1081E+01  0.1080E+01  0.8678E+01  0.8678E+01
      5.643  0.9684E+00  0.9680E+00  0.8754E+01  0.8754E+01
      5.721  0.8928E+00  0.8923E+00  0.8824E+01  0.8824E+01
      5.800  0.8100E+00  0.8096E+00  0.8887E+01  0.8887E+01
      5.878  0.7765E+00  0.7766E+00  0.8948E+01  0.8948E+01
      5.956  0.8657E+00  0.8661E+00  0.9016E+01  0.9016E+01
      6.034  0.9014E+00  0.9012E+00  0.9086E+01  0.9087E+01
      6.113  0.8475E+00  0.8474E+00  0.9153E+01  0.9153E+01
      6.191  0.9562E+00  0.9564E+00  0.9228E+01  0.9228E+01
      6.269  0.1018E+01  0.1018E+01  0.9307E+01  0.9308E+01
      6.347  0.8687E+00  0.8681E+00  0.9375E+01  0.9376E+01
      6.426  0.6917E+00  0.6914E+00  0.9430E+01  0.9430E+01
      6.504  0.6475E+00  0.6475E+00  0.9480E+01  0.9480E+01
      6.582  0.6331E+00  0.6330E+00  0.9530E+01  0.9530E+01
      6.660  0.6416E+00  0.6417E+00  0.9580E+01  0.9580E+01
      6.739  0.7443E+00  0.7446E+00  0.9639E+01  0.9639E+01
      6.817  0.8695E+00  0.8695E+00  0.9707E+01  0.9707E+01
      6.895  0.7991E+00  0.7987E+00  0.9769E+01  0.9769E+01
      6.973  0.7470E+00  0.7471E+00  0.9828E+01  0.9828E+01
      7.052  0.7814E+00  0.7813E+00  0.9889E+01  0.9889E+01
      7.130  0.7741E+00  0.7742E+00  0.9950E+01  0.9950E+01
      7.208  0.7542E+00  0.7542E+00  0.1001E+02  0.1001E+02
      7.286  0.7027E+00  0.7026E+00  0.1006E+02  0.1006E+02
      7.365  0.6233E+00  0.6232E+00  0.1011E+02  0.1011E+02
      7.443  0.6321E+00  0.6322E+00  0.1016E+02  0.1016E+02
      7.521  0.6957E+00  0.6958E+00  0.1022E+02  0.1022E+02
      7.599  0.7591E+00  0.7592E+00  0.1028E+02  0.1028E+02
      7.678  0.8238E+00  0.8239E+00  0.1034E+02  0.1034E+02
      7.756  0.8665E+00  0.8663E+00  0.1041E+02  0.1041E+02
      7.834  0.8026E+00  0.8025E+00  0.1047E+02  0.1047E+02
      7.912  0.8657E+00  0.8660E+00  0.1054E+02  0.1054E+02
      7.991  0.1008E+01  0.1008E+01  0.1062E+02  0.1062E+02
      8.069  0.9792E+00  0.9792E+00  0.1069E+02  0.1069E+02
      8.147  0.9869E+00  0.9870E+00  0.1077E+02  0.1077E+02
      8.226  0.9442E+00  0.9438E+00  0.1085E+02  0.1085E+02
      8.304  0.7525E+00  0.7522E+00  0.1090E+02  0.1090E+02
      8.382  0.7877E+00  0.7879E+00  0.1097E+02  0.1097E+02
      8.460  0.8590E+00  0.8589E+00  0.1103E+02  0.1103E+02
      8.539  0.8026E+00  0.8024E+00  0.1110E+02  0.1110E+02
      8.617  0.8366E+00  0.8367E+00  0.1116E+02  0.1116E+02
      8.695  0.8088E+00  0.8086E+00  0.1123E+02  0.1123E+02
      8.773  0.7449E+00  0.7450E+00  0.1128E+02  0.1128E+02
      8.852  0.8172E+00  0.8176E+00  0.1135E+02  0.1135E+02
      8.930  0.8907E+00  0.8907E+00  0.1142E+02  0.1142E+02
      9.008  0.8197E+00  0.8195E+00  0.1148E+02  0.1148E+02
      9.086  0.8292E+00  0.8293E+00  0.1155E+02  0.1155E+02
      9.165  0.9053E+00  0.9055E+00  0.1162E+02  0.1162E+02
      9.243  0.1000E+01  0.1000E+01  0.1170E+02  0.1170E+02
      9.321  0.1027E+01  0.1027E+01  0.1178E+02  0.1178E+02
      9.399  0.8568E+00  0.8563E+00  0.1184E+02  0.1184E+02
      9.478  0.7876E+00  0.7876E+00  0.1191E+02  0.1191E+02
      9.556  0.8833E+00  0.8836E+00  0.1197E+02  0.1197E+02
      9.634  0.9200E+00  0.9200E+00  0.1205E+02  0.1205E+02
      9.712  0.8921E+00  0.8920E+00  0.1212E+02  0.1212E+02
      9.791  0.8894E+00  0.8895E+00  0.1219E+02  0.1219E+02
      9.869  0.8898E+00  0.8898E+00  0.1226E+02  0.1226E+02
      9.947  0.8725E+00  0.8724E+00  0.1232E+02  0.1232E+02
     10.025  0.8228E+00  0.8226E+00  0.1239E+02  0.1239E+02
     10.104  0.8027E+00  0.8028E+00  0.1245E+02  0.1245E+02
     10.182  0.8772E+00  0.8773E+00  0.1252E+02  0.1252E+02
     10.260  0.7783E+00  0.7780E+00  0.1258E+02  0.1258E+02
     10.338  0.6431E+00  0.6430E+00  0.1263E+02  0.1263E+02
     10.417  0.7725E+00  0.7729E+00  0.1269E+02  0.1269E+02
     10.495  0.1072E+01  0.1072E+01  0.1278E+02  0.1278E+02
     10.573  0.1117E+01  0.1117E+01  0.1286E+02  0.1286E+02
     10.652  0.9971E+00  0.9970E+00  0.1294E+02  0.1294E+02
     10.730  0.1007E+01  0.1007E+01  0.1302E+02  0.1302E+02
     10.808  0.1141E+01  0.1141E+01  0.1311E+02  0.1311E+02
     10.886  0.1118E+01  0.1118E+01  0.1320E+02  0.1320E+02
     10.965  0.9546E+00  0.9544E+00  0.1327E+02  0.1327E+02
     11.043  0.9075E+00  0.9075E+00  0.1334E+02  0.1334E+02
     11.121  0.8962E+00  0.8961E+00  0.1341E+02  0.1341E+02
     11.199  0.7743E+00  0.7743E+00  0.1347E+02  0.1347E+02
     11.278  0.8331E+00  0.8334E+00  0.1354E+02  0.1354E+02
     11.356  0.9102E+00  0.9103E+00  0.1361E+02  0.1361E+02
     11.434  0.8995E+00  0.8993E+00  0.1368E+02  0.1368E+02
     11.512  0.8911E+00  0.8910E+00  0.1375E+02  0.1375E+02
     11.591  0.8639E+00  0.8641E+00  0.1382E+02  0.1382E+02
     11.669  0.9778E+00  0.9780E+00  0.1389E+02  0.1390E+02
     11.747  0.1069E+01  0.1069E+01  0.1398E+02  0.1398E+02
     11.825  0.1081E+01  0.1081E+01  0.1406E+02  0.1406E+02
     11.904  0.1062E+01  0.1061E+01  0.1415E+02  0.1415E+02
     11.982  0.9733E+00  0.9732E+00  0.1422E+02  0.1422E+02
     12.060  0.9143E+00  0.9143E+00  0.1429E+02  0.1429E+02
     12.138  0.8772E+00  0.8778E+00  0.1436E+02  0.1436E+02
     12.217  0.9514E+00  0.9538E+00  0.1444E+02  0.1444E+02
     12.295  0.1104E+01  0.1107E+01  0.1452E+02  0.1452E+02
     12.373  0.1112E+01  0.1113E+01  0.1461E+02  0.1461E+02
     12.451  0.1024E+01  0.1015E+01  0.1469E+02  0.1469E+02
     12.530  0.8588E+00  0.8381E+00  0.1476E+02  0.1476E+02
     12.608  0.8509E+00  0.8529E+00  0.1483E+02  0.1482E+02
     12.686  0.9505E+00  0.9654E+00  0.1490E+02  0.1490E+02
     12.764  0.1012E+01  0.1021E+01  0.1498E+02  0.1498E+02
     12.843  0.1009E+01  0.1006E+01  0.1506E+02  0.1506E+02
     12.921  0.8747E+00  0.8744E+00  0.1513E+02  0.1513E+02
     12.999  0.6272E+00  0.6296E+00  0.1518E+02  0.1518E+02
     13.078  0.5083E+00  0.5137E+00  0.1522E+02  0.1522E+02
     13.156  0.6157E+00  0.6214E+00  0.1526E+02  0.1526E+02
     13.234  0.6804E+00  0.6758E+00  0.1532E+02  0.1532E+02
     13.312  0.4726E+00  0.4664E+00  0.1535E+02  0.1535E+02
     13.391  0.3010E+00  0.2984E+00  0.1538E+02  0.1538E+02
     13.469  0.2767E+00  0.2765E+00  0.1540E+02  0.1540E+02
     13.547  0.3201E+00  0.3227E+00  0.1542E+02  0.1542E+02
     13.625  0.4272E+00  0.4343E+00  0.1546E+02  0.1546E+02
     13.704  0.5581E+00  0.5630E+00  0.1550E+02  0.1550E+02
     13.782  0.5767E+00  0.5696E+00  0.1555E+02  0.1555E+02
     13.860  0.3303E+00  0.3240E+00  0.1557E+02  0.1557E+02
     13.938  0.2093E+00  0.2073E+00  0.1559E+02  0.1559E+02
     14.017  0.2455E+00  0.2448E+00  0.1561E+02  0.1561E+02
     14.095  0.2710E+00  0.2704E+00  0.1563E+02  0.1563E+02
     14.173  0.2666E+00  0.2649E+00  0.1565E+02  0.1565E+02
     14.251  0.2469E+00  0.2431E+00  0.1567E+02  0.1567E+02
     14.330  0.2541E+00  0.2541E+00  0.1569E+02  0.1569E+02
     14.408  0.2311E+00  0.2344E+00  0.1571E+02  0.1571E+02
     14.486  0.1788E+00  0.1806E+00  0.1572E+02  0.1572E+02
     14.564  0.1285E+00  0.1293E+00  0.1573E+02  0.1573E+02
     14.643  0.1241E+00  0.1243E+00  0.1574E+02  0.1574E+02
     14.721  0.1218E+00  0.1219E+00  0.1575E+02  0.1575E+02
     14.799  0.7273E-01  0.7319E-01  0.1576E+02  0.1576E+02
     14.877  0.6358E-01  0.6520E-01  0.1576E+02  0.1576E+02
     14.956  0.1019E+00  0.1065E+00  0.1577E+02  0.1577E+02
     15.034  0.1422E+00  0.1552E+00  0.1578E+02  0.1578E+02
     15.112  0.1876E+00  0.2059E+00  0.1580E+02  0.1580E+02
     15.190  0.1898E+00  0.1811E+00  0.1581E+02  0.1581E+02
     15.269  0.1587E+00  0.1294E+00  0.1582E+02  0.1582E+02
     15.347  0.1175E+00  0.1050E+00  0.1583E+02  0.1583E+02
     15.425  0.8271E-01  0.8879E-01  0.1584E+02  0.1584E+02
     15.504  0.1063E+00  0.1103E+00  0.1585E+02  0.1585E+02
     15.582  0.1167E+00  0.1180E+00  0.1586E+02  0.1586E+02
     15.660  0.9461E-01  0.9501E-01  0.1586E+02  0.1586E+02
     15.738  0.1178E+00  0.1177E+00  0.1587E+02  0.1587E+02
     15.817  0.1849E+00  0.1858E+00  0.1589E+02  0.1589E+02
     15.895  0.1922E+00  0.1927E+00  0.1590E+02  0.1590E+02
     15.973  0.1417E+00  0.1411E+00  0.1591E+02  0.1591E+02
     16.051  0.1203E+00  0.1200E+00  0.1592E+02  0.1592E+02
     16.130  0.7434E-01  0.7419E-01  0.1593E+02  0.1593E+02
     16.208  0.2860E-01  0.2854E-01  0.1593E+02  0.1593E+02
     16.286  0.2319E-01  0.2317E-01  0.1593E+02  0.1593E+02
     16.364  0.4783E-01  0.4778E-01  0.1594E+02  0.1594E+02
     16.443  0.5711E-01  0.5693E-01  0.1594E+02  0.1594E+02
     16.521  0.5563E-01  0.5563E-01  0.1595E+02  0.1595E+02
     16.599  0.9191E-01  0.9293E-01  0.1595E+02  0.1595E+02
     16.677  0.1115E+00  0.1116E+00  0.1596E+02  0.1596E+02
     16.756  0.5851E-01  0.5793E-01  0.1597E+02  0.1597E+02
     16.834  0.1684E-01  0.1661E-01  0.1597E+02  0.1597E+02
     16.912  0.5593E-02  0.5506E-02  0.1597E+02  0.1597E+02
     16.990  0.9189E-02  0.9044E-02  0.1597E+02  0.1597E+02
     17.069  0.2924E-01  0.2893E-01  0.1597E+02  0.1597E+02
     17.147  0.5218E-01  0.5218E-01  0.1597E+02  0.1597E+02
     17.225  0.3613E-01  0.3655E-01  0.1598E+02  0.1598E+02
     17.303  0.1945E-01  0.1997E-01  0.1598E+02  0.1598E+02
     17.382  0.3263E-01  0.3302E-01  0.1598E+02  0.1598E+02
     17.460  0.5246E-01  0.5141E-01  0.1599E+02  0.1599E+02
     17.538  0.3313E-01  0.3293E-01  0.1599E+02  0.1599E+02
     17.617  0.1036E-01  0.1057E-01  0.1599E+02  0.1599E+02
     17.695  0.3488E-02  0.3329E-02  0.1599E+02  0.1599E+02
     17.773  0.5704E-02  0.4621E-02  0.1599E+02  0.1599E+02
     17.851  0.1869E-01  0.1522E-01  0.1599E+02  0.1599E+02
     17.930  0.3655E-01  0.3273E-01  0.1599E+02  0.1599E+02
     18.008  0.3256E-01  0.3119E-01  0.1600E+02  0.1600E+02
     18.086  0.2468E-01  0.2222E-01  0.1600E+02  0.1600E+02
     18.164  0.1445E-01  0.1971E-01  0.1600E+02  0.1600E+02
     18.243  0.4599E-02  0.9769E-02  0.1600E+02  0.1600E+02
     18.321  0.9922E-03  0.2675E-02  0.1600E+02  0.1600E+02
     18.399  0.2129E-03  0.5827E-03  0.1600E+02  0.1600E+02
     18.477  0.0000E+00  0.1237E-03  0.1600E+02  0.1600E+02
     18.556  0.0000E+00  0.0000E+00  0.1600E+02  0.1600E+02
     18.634  0.0000E+00  0.0000E+00  0.1600E+02  0.1600E+02
     18.712  0.0000E+00  0.0000E+00  0.1600E+02  0.1600E+02
     18.790  0.0000E+00  0.0000E+00  0.1600E+02  0.1600E+02
     18.869  0.0000E+00  0.0000E+00  0.1600E+02  0.1600E+02
     18.947  0.0000E+00  0.0000E+00  0.1600E+02  0.1600E+02
     19.025  0.0000E+00  0.0000E+00  0.1600E+02  0.1600E+02
     19.103  0.0000E+00  0.0000E+00  0.1600E+02  0.1600E+02
     19.182  0.0000E+00  0.0000E+00  0.1600E+02  0.1600E+02
     19.18166572     -4.29579494  301      7.19644455      1.00000000
     -4.296  0.0000E+00  0.0000E+00  0.0000E+00  0.0000E+00  0.0000E+00  0.0000E+00  0.0000E+00  0.0000E+00  0.0000E+00  0.0000E+00  0.0000E+00  0.0000E+00  0.0000E+00  0.0000E+00  0.0000E+00  0.0000E+00  0.0000E+00  0.0000E+00
     -4.218  0.0000E+00  0.0000E+00  0.0000E+00  0.0000E+00  0.0000E+00  0.0000E+00  0.0000E+00  0.0000E+00  0.0000E+00  0.0000E+00  0.0000E+00  0.0000E+00  0.0000E+00  0.0000E+00  0.0000E+00  0.0000E+00  0.0000E+00  0.0000E+00
     -4.139  0.0000E+00  0.0000E+00  0.0000E+00  0.0000E+00  0.0000E+00  0.0000E+00  0.0000E+00  0.0000E+00  0.0000E+00  0.0000E+00  0.0000E+00  0.0000E+00  0.0000E+00  0.0000E+00  0.0000E+00  0.0000E+00  0.0000E+00  0.0000E+00
     -4.061  0.0000E+00  0.0000E+00  0.0000E+00  0.0000E+00  0.0000E+00  0.0000E+00  0.0000E+00  0.0000E+00  0.0000E+00  0.0000E+00  0.0000E+00  0.0000E+00  0.0000E+00  0.0000E+00  0.0000E+00  0.0000E+00  0.0000E+00  0.0000E+00
     -3.983  0.0000E+00  0.0000E+00  0.0000E+00  0.0000E+00  0.0000E+00  0.0000E+00  0.0000E+00  0.0000E+00  0.0000E+00  0.0000E+00  0.0000E+00  0.0000E+00  0.0000E+00  0.0000E+00  0.0000E+00  0.0000E+00  0.0000E+00  0.0000E+00
     -3.905  0.0000E+00  0.0000E+00  0.0000E+00  0.0000E+00  0.0000E+00  0.0000E+00  0.0000E+00  0.0000E+00  0.0000E+00  0.0000E+00  0.0000E+00  0.0000E+00  0.0000E+00  0.0000E+00  0.0000E+00  0.0000E+00  0.0000E+00  0.0000E+00
     -3.826  0.0000E+00  0.0000E+00  0.0000E+00  0.0000E+00  0.0000E+00  0.0000E+00  0.0000E+00  0.0000E+00  0.0000E+00  0.0000E+00  0.0000E+00  0.0000E+00  0.0000E+00  0.0000E+00  0.0000E+00  0.0000E+00  0.0000E+00  0.0000E+00
     -3.748  0.0000E+00  0.0000E+00  0.0000E+00  0.0000E+00  0.0000E+00  0.0000E+00  0.0000E+00  0.0000E+00  0.0000E+00  0.0000E+00  0.0000E+00  0.0000E+00  0.0000E+00  0.0000E+00  0.0000E+00  0.0000E+00  0.0000E+00  0.0000E+00
     -3.670  0.6259E-07  0.6271E-07  0.9878E-19  0.1138E-18  0.9878E-19  0.1138E-18  0.4161E-19  0.1345E-18  0.3992E-15  0.6001E-15  0.9589E-15  0.3905E-15  0.8485E-16  0.6015E-15  0.3992E-15  0.6001E-15  0.1137E-15  0.6839E-15
     -3.591  0.1263E-05  0.1266E-05  0.2915E-08  0.2921E-08  0.2915E-08  0.2921E-08  0.2915E-08  0.2921E-08  0.1307E-10  0.1304E-10  0.1371E-10  0.1305E-10  0.7928E-11  0.7947E-11  0.1307E-10  0.1304E-10  0.8309E-11  0.8262E-11
     -3.513  0.5462E-05  0.5472E-05  0.1377E-07  0.1380E-07  0.1377E-07  0.1380E-07  0.1377E-07  0.1380E-07  0.9308E-10  0.9455E-10  0.9583E-10  0.9455E-10  0.2998E-10  0.3005E-10  0.9308E-10  0.9455E-10  0.3142E-10  0.3123E-10
     -3.435  0.2683E-04  0.2688E-04  0.7537E-07  0.7551E-07  0.7537E-07  0.7551E-07  0.7535E-07  0.7549E-07  0.5030E-09  0.5107E-09  0.5159E-09  0.5112E-09  0.2873E-09  0.2903E-09  0.5030E-09  0.5107E-09  0.3258E-09  0.3285E-09
     -3.357  0.1249E-03  0.1251E-03  0.3594E-06  0.3601E-06  0.3594E-06  0.3601E-06  0.3594E-06  0.3600E-06  0.2674E-08  0.2717E-08  0.2735E-08  0.2719E-08  0.1304E-08  0.1315E-08  0.2674E-08  0.2717E-08  0.1479E-08  0.1487E-08
     -3.278  0.5336E-03  0.5345E-03  0.1625E-05  0.1628E-05  0.1625E-05  0.1628E-05  0.1625E-05  0.1628E-05  0.1234E-07  0.1254E-07  0.1262E-07  0.1255E-07  0.5957E-08  0.6010E-08  0.1234E-07  0.1254E-07  0.6717E-08  0.6759E-08
     -3.200  0.1788E-02  0.1791E-02  0.6427E-05  0.6436E-05  0.6427E-05  0.6436E-05  0.6425E-05  0.6435E-05  0.5458E-07  0.5547E-07  0.5571E-07  0.5550E-07  0.2481E-07  0.2505E-07  0.5458E-07  0.5547E-07  0.2796E-07  0.2817E-07
     -3.122  0.3912E-02  0.3914E-02  0.1859E-04  0.1861E-04  0.1859E-04  0.1861E-04  0.1858E-04  0.1860E-04  0.1925E-06  0.1961E-06  0.1955E-06  0.1962E-06  0.8658E-07  0.8754E-07  0.1925E-06  0.1961E-06  0.9938E-07  0.1004E-06
     -3.044  0.5739E-02  0.5741E-02  0.3978E-04  0.3981E-04  0.3978E-04  0.3981E-04  0.3977E-04  0.3980E-04  0.5187E-06  0.5291E-06  0.5221E-06  0.5297E-06  0.2673E-06  0.2702E-06  0.5187E-06  0.5291E-06  0.3174E-06  0.3211E-06
     -2.965  0.7743E-02  0.7745E-02  0.7538E-04  0.7543E-04  0.7538E-04  0.7543E-04  0.7537E-04  0.7541E-04  0.1256E-05  0.1278E-05  0.1257E-05  0.1280E-05  0.6351E-06  0.6396E-06  0.1256E-05  0.1278E-05  0.7575E-06  0.7634E-06
     -2.887  0.9078E-02  0.9078E-02  0.1090E-03  0.1091E-03  0.1090E-03  0.1091E-03  0.1090E-03  0.1091E-03  0.2403E-05  0.2436E-05  0.2403E-05  0.2438E-05  0.9767E-06  0.9803E-06  0.2403E-05  0.2436E-05  0.1142E-05  0.1146E-05
     -2.809  0.8787E-02  0.8787E-02  0.1357E-03  0.1358E-03  0.1357E-03  0.1358E-03  0.1357E-03  0.1357E-03  0.3897E-05  0.3924E-05  0.3897E-05  0.3925E-05  0.1570E-05  0.1578E-05  0.3897E-05  0.3924E-05  0.1780E-05  0.1788E-05
     -2.731  0.1077E-01  0.1077E-01  0.2072E-03  0.2073E-03  0.2072E-03  0.2073E-03  0.2071E-03  0.2071E-03  0.6516E-05  0.6535E-05  0.6517E-05  0.6535E-05  0.3256E-05  0.3273E-05  0.6516E-05  0.6535E-05  0.3802E-05  0.3821E-05
     -2.652  0.1221E-01  0.1221E-01  0.2681E-03  0.2682E-03  0.2681E-03  0.2682E-03  0.2681E-03  0.2681E-03  0.9068E-05  0.9087E-05  0.9071E-05  0.9087E-05  0.5015E-05  0.5034E-05  0.9068E-05  0.9087E-05  0.6036E-05  0.6059E-05
     -2.574  0.1183E-01  0.1183E-01  0.2989E-03  0.2990E-03  0.2989E-03  0.2990E-03  0.2990E-03  0.2990E-03  0.1345E-04  0.1348E-04  0.1345E-04  0.1349E-04  0.5501E-05  0.5513E-05  0.1345E-04  0.1348E-04  0.6473E-05  0.6485E-05
     -2.496  0.1263E-01  0.1263E-01  0.3652E-03  0.3652E-03  0.3652E-03  0.3652E-03  0.3651E-03  0.3652E-03  0.2056E-04  0.2061E-04  0.2057E-04  0.2061E-04  0.6693E-05  0.6702E-05  0.2056E-04  0.2061E-04  0.7558E-05  0.7565E-05
     -2.418  0.1215E-01  0.1215E-01  0.3926E-03  0.3926E-03  0.3926E-03  0.3926E-03  0.3924E-03  0.3924E-03  0.2303E-04  0.2308E-04  0.2303E-04  0.2307E-04  0.8804E-05  0.8823E-05  0.2303E-04  0.2308E-04  0.1026E-04  0.1028E-04
     -2.339  0.1247E-01  0.1248E-01  0.4701E-03  0.4703E-03  0.4701E-03  0.4703E-03  0.4696E-03  0.4697E-03  0.2757E-04  0.2766E-04  0.2759E-04  0.2767E-04  0.1421E-04  0.1426E-04  0.2757E-04  0.2766E-04  0.1717E-04  0.1724E-04
     -2.261  0.1546E-01  0.1546E-01  0.6381E-03  0.6382E-03  0.6381E-03  0.6382E-03  0.6380E-03  0.6380E-03  0.4186E-04  0.4201E-04  0.4190E-04  0.4203E-04  0.2069E-04  0.2078E-04  0.4186E-04  0.4201E-04  0.2456E-04  0.2467E-04
     -2.183  0.1564E-01  0.1564E-01  0.6967E-03  0.6966E-03  0.6967E-03  0.6966E-03  0.6968E-03  0.6967E-03  0.5416E-04  0.5437E-04  0.5421E-04  0.5438E-04  0.2253E-04  0.2262E-04  0.5416E-04  0.5437E-04  0.2592E-04  0.2603E-04
     -2.105  0.1510E-01  0.1509E-01  0.7289E-03  0.7287E-03  0.7289E-03  0.7287E-03  0.7291E-03  0.7289E-03  0.6601E-04  0.6626E-04  0.6602E-04  0.6624E-04  0.2318E-04  0.2326E-04  0.6601E-04  0.6626E-04  0.2673E-04  0.2684E-04
     -2.026  0.1287E-01  0.1286E-01  0.6700E-03  0.6698E-03  0.6700E-03  0.6698E-03  0.6703E-03  0.6700E-03  0.7086E-04  0.7105E-04  0.7084E-04  0.7104E-04  0.2018E-04  0.2023E-04  0.7086E-04  0.7105E-04  0.2340E-04  0.2347E-04
     -1.948  0.1226E-01  0.1226E-01  0.7285E-03  0.7288E-03  0.7285E-03  0.7288E-03  0.7272E-03  0.7274E-03  0.8170E-04  0.8190E-04  0.8176E-04  0.8195E-04  0.2653E-04  0.2659E-04  0.8170E-04  0.8190E-04  0.3093E-04  0.3100E-04
     -1.870  0.1620E-01  0.1620E-01  0.1071E-02  0.1072E-02  0.1071E-02  0.1072E-02  0.1070E-02  0.1070E-02  0.1159E-03  0.1162E-03  0.1160E-03  0.1162E-03  0.4802E-04  0.4808E-04  0.1159E-03  0.1162E-03  0.5615E-04  0.5622E-04
     -1.792  0.1758E-01  0.1757E-01  0.1242E-02  0.1242E-02  0.1242E-02  0.1242E-02  0.1242E-02  0.1242E-02  0.1377E-03  0.1379E-03  0.1376E-03  0.1378E-03  0.5926E-04  0.5929E-04  0.1377E-03  0.1379E-03  0.7026E-04  0.7029E-04
     -1.713  0.1640E-01  0.1639E-01  0.1247E-02  0.1247E-02  0.1247E-02  0.1247E-02  0.1247E-02  0.1247E-02  0.1599E-03  0.1600E-03  0.1599E-03  0.1600E-03  0.5848E-04  0.5850E-04  0.1599E-03  0.1600E-03  0.6996E-04  0.6996E-04
     -1.635  0.1583E-01  0.1582E-01  0.1283E-02  0.1283E-02  0.1283E-02  0.1283E-02  0.1283E-02  0.1283E-02  0.1816E-03  0.1816E-03  0.1816E-03  0.1816E-03  0.6116E-04  0.6116E-04  0.1816E-03  0.1816E-03  0.7269E-04  0.7267E-04
     -1.557  0.1255E-01  0.1254E-01  0.1095E-02  0.1095E-02  0.1095E-02  0.1095E-02  0.1096E-02  0.1095E-02  0.1802E-03  0.1803E-03  0.1803E-03  0.1804E-03  0.5252E-04  0.5248E-04  0.1802E-03  0.1803E-03  0.6009E-04  0.6004E-04
     -1.478  0.1401E-01  0.1401E-01  0.1355E-02  0.1356E-02  0.1355E-02  0.1356E-02  0.1353E-02  0.1353E-02  0.2626E-03  0.2628E-03  0.2628E-03  0.2630E-03  0.6080E-04  0.6073E-04  0.2626E-03  0.2628E-03  0.6706E-04  0.6699E-04
     -1.400  0.1668E-01  0.1668E-01  0.1839E-02  0.1839E-02  0.1839E-02  0.1839E-02  0.1834E-02  0.1835E-02  0.3472E-03  0.3471E-03  0.3470E-03  0.3470E-03  0.8110E-04  0.8103E-04  0.3472E-03  0.3471E-03  0.9129E-04  0.9123E-04
     -1.322  0.1527E-01  0.1527E-01  0.2035E-02  0.2035E-02  0.2035E-02  0.2035E-02  0.2033E-02  0.2033E-02  0.3438E-03  0.3436E-03  0.3436E-03  0.3433E-03  0.9019E-04  0.9011E-04  0.3438E-03  0.3436E-03  0.1048E-03  0.1047E-03
     -1.244  0.1274E-01  0.1274E-01  0.2008E-02  0.2008E-02  0.2008E-02  0.2008E-02  0.2007E-02  0.2007E-02  0.3441E-03  0.3441E-03  0.3442E-03  0.3442E-03  0.8827E-04  0.8810E-04  0.3441E-03  0.3441E-03  0.1049E-03  0.1047E-03
     -1.165  0.1172E-01  0.1172E-01  0.2087E-02  0.2087E-02  0.2087E-02  0.2087E-02  0.2086E-02  0.2086E-02  0.4073E-03  0.4076E-03  0.4078E-03  0.4080E-03  0.9128E-04  0.9109E-04  0.4073E-03  0.4076E-03  0.1077E-03  0.1075E-03
     -1.087  0.1284E-01  0.1284E-01  0.2272E-02  0.2272E-02  0.2272E-02  0.2272E-02  0.2275E-02  0.2275E-02  0.5603E-03  0.5608E-03  0.5609E-03  0.5614E-03  0.9768E-04  0.9750E-04  0.5603E-03  0.5608E-03  0.1096E-03  0.1094E-03
     -1.009  0.1401E-01  0.1401E-01  0.2371E-02  0.2371E-02  0.2371E-02  0.2371E-02  0.2371E-02  0.2371E-02  0.7246E-03  0.7251E-03  0.7249E-03  0.7253E-03  0.9923E-04  0.9907E-04  0.7246E-03  0.7251E-03  0.1073E-03  0.1071E-03
     -0.931  0.1267E-01  0.1266E-01  0.2425E-02  0.2425E-02  0.2425E-02  0.2425E-02  0.2424E-02  0.2424E-02  0.7981E-03  0.7984E-03  0.7982E-03  0.7984E-03  0.9836E-04  0.9818E-04  0.7981E-03  0.7984E-03  0.1086E-03  0.1085E-03
     -0.852  0.1047E-01  0.1046E-01  0.2220E-02  0.2219E-02  0.2220E-02  0.2219E-02  0.2224E-02  0.2223E-02  0.7834E-03  0.7833E-03  0.7825E-03  0.7823E-03  0.8858E-04  0.8836E-04  0.7834E-03  0.7833E-03  0.9811E-04  0.9790E-04
     -0.774  0.7327E-02  0.7322E-02  0.1676E-02  0.1676E-02  0.1676E-02  0.1676E-02  0.1679E-02  0.1678E-02  0.6712E-03  0.6711E-03  0.6707E-03  0.6706E-03  0.6488E-04  0.6473E-04  0.6712E-03  0.6711E-03  0.7230E-04  0.7216E-04
     -0.696  0.7518E-02  0.7519E-02  0.1722E-02  0.1722E-02  0.1722E-02  0.1722E-02  0.1722E-02  0.1722E-02  0.8308E-03  0.8311E-03  0.8316E-03  0.8318E-03  0.7188E-04  0.7181E-04  0.8308E-03  0.8311E-03  0.7934E-04  0.7928E-04
     -0.618  0.1046E-01  0.1046E-01  0.2138E-02  0.2139E-02  0.2138E-02  0.2139E-02  0.2136E-02  0.2137E-02  0.1196E-02  0.1197E-02  0.1199E-02  0.1199E-02  0.1290E-03  0.1290E-03  0.1196E-02  0.1197E-02  0.1417E-03  0.1418E-03
     -0.539  0.1313E-01  0.1313E-01  0.2420E-02  0.2420E-02  0.2420E-02  0.2420E-02  0.2418E-02  0.2418E-02  0.1411E-02  0.1411E-02  0.1411E-02  0.1411E-02  0.2740E-03  0.2742E-03  0.1411E-02  0.1411E-02  0.3228E-03  0.3231E-03
     -0.461  0.1640E-01  0.1640E-01  0.2260E-02  0.2259E-02  0.2260E-02  0.2259E-02  0.2261E-02  0.2261E-02  0.1316E-02  0.1316E-02  0.1314E-02  0.1314E-02  0.5142E-03  0.5146E-03  0.1316E-02  0.1316E-02  0.6361E-03  0.6367E-03
     -0.383  0.1859E-01  0.1858E-01  0.2012E-02  0.2011E-02  0.2012E-02  0.2011E-02  0.2015E-02  0.2014E-02  0.1200E-02  0.1200E-02  0.1198E-02  0.1198E-02  0.6687E-03  0.6691E-03  0.1200E-02  0.1200E-02  0.8375E-03  0.8380E-03