   4   4   1   0
  0.1564561E+02  0.3969640E-09  0.3970550E-09  0.3970550E-09  0.5000000E-15
  1.000000000000000E-004
  CAR 
 unknown system                          
     20.26942917     -4.12776506  301      7.81571594      1.00000000
     -4.128  0.0000E+00  0.0000E+00  0.0000E+00  0.0000E+00
     -4.046  0.0000E+00  0.0000E+00  0.0000E+00  0.0000E+00
     -3.965  0.0000E+00  0.0000E+00  0.0000E+00  0.0000E+00
     -3.884  0.0000E+00  0.0000E+00  0.0000E+00  0.0000E+00
     -3.802  0.0000E+00  0.0000E+00  0.0000E+00  0.0000E+00
     -3.721  0.0000E+00  0.0000E+00  0.0000E+00  0.0000E+00
     -3.640  0.0000E+00  0.0000E+00  0.0000E+00  0.0000E+00
     -3.558  0.0000E+00  0.0000E+00  0.0000E+00  0.0000E+00
     -3.477  0.5842E-06  0.5739E-06  0.4751E-07  0.4667E-07
     -3.396  0.8235E-05  0.8090E-05  0.7172E-06  0.7046E-06
     -3.315  0.5981E-04  0.5876E-04  0.5581E-05  0.5483E-05
     -3.233  0.2843E-03  0.2793E-03  0.2870E-04  0.2820E-04
     -3.152  0.1453E-02  0.1428E-02  0.1469E-03  0.1443E-03
     -3.071  0.6584E-02  0.6482E-02  0.6823E-03  0.6715E-03
     -2.989  0.2332E-01  0.2305E-01  0.2578E-02  0.2546E-02
     -2.908  0.5256E-01  0.5223E-01  0.6852E-02  0.6793E-02
     -2.827  0.7750E-01  0.7725E-01  0.1316E-01  0.1308E-01
     -2.745  0.1063E+00  0.1059E+00  0.2180E-01  0.2169E-01
     -2.664  0.1267E+00  0.1267E+00  0.3211E-01  0.3200E-01
     -2.583  0.1219E+00  0.1218E+00  0.4202E-01  0.4190E-01
     -2.501  0.1538E+00  0.1533E+00  0.5454E-01  0.5438E-01
     -2.420  0.1778E+00  0.1778E+00  0.6900E-01  0.6884E-01
     -2.339  0.1727E+00  0.1727E+00  0.8307E-01  0.8291E-01
     -2.257  0.1891E+00  0.1889E+00  0.9846E-01  0.9828E-01
     -2.176  0.1840E+00  0.1843E+00  0.1134E+00  0.1133E+00
     -2.095  0.1909E+00  0.1903E+00  0.1290E+00  0.1288E+00
     -2.013  0.2456E+00  0.2452E+00  0.1489E+00  0.1487E+00
     -1.932  0.2515E+00  0.2516E+00  0.1694E+00  0.1692E+00
     -1.851  0.2479E+00  0.2480E+00  0.1896E+00  0.1894E+00
     -1.769  0.2135E+00  0.2140E+00  0.2069E+00  0.2068E+00
     -1.688  0.2052E+00  0.2047E+00  0.2236E+00  0.2234E+00
     -1.607  0.2861E+00  0.2851E+00  0.2469E+00  0.2466E+00
     -1.525  0.3215E+00  0.3217E+00  0.2731E+00  0.2728E+00
     -1.444  0.3039E+00  0.3038E+00  0.2978E+00  0.2975E+00
     -1.363  0.3054E+00  0.3058E+00  0.3227E+00  0.3224E+00
     -1.281  0.2429E+00  0.2433E+00  0.3424E+00  0.3422E+00
     -1.200  0.2805E+00  0.2794E+00  0.3653E+00  0.3649E+00
     -1.119  0.3615E+00  0.3609E+00  0.3947E+00  0.3943E+00
     -1.037  0.3684E+00  0.3687E+00  0.4246E+00  0.4243E+00
     -0.956  0.3397E+00  0.3399E+00  0.4523E+00  0.4520E+00
     -0.875  0.3357E+00  0.3354E+00  0.4796E+00  0.4793E+00
     -0.793  0.3727E+00  0.3722E+00  0.5099E+00  0.5096E+00
     -0.712  0.3952E+00  0.3952E+00  0.5421E+00  0.5417E+00
     -0.631  0.3879E+00  0.3879E+00  0.5737E+00  0.5733E+00
     -0.550  0.3541E+00  0.3550E+00  0.6025E+00  0.6022E+00
     -0.468  0.2576E+00  0.2583E+00  0.6235E+00  0.6233E+00
     -0.387  0.2618E+00  0.2611E+00  0.6448E+00  0.6445E+00
     -0.306  0.3407E+00  0.3397E+00  0.6725E+00  0.6722E+00
     -0.224  0.4056E+00  0.4053E+00  0.7056E+00  0.7052E+00
     -0.143  0.4135E+00  0.4137E+00  0.7392E+00  0.7388E+00
     -0.062  0.3899E+00  0.3904E+00  0.7709E+00  0.7706E+00
      0.020  0.3568E+00  0.3570E+00  0.8000E+00  0.7996E+00
      0.101  0.3701E+00  0.3696E+00  0.8301E+00  0.8297E+00
      0.182  0.4300E+00  0.4289E+00  0.8651E+00  0.8646E+00
      0.264  0.4550E+00  0.4556E+00  0.9021E+00  0.9017E+00
      0.345  0.3875E+00  0.3882E+00  0.9336E+00  0.9333E+00
      0.426  0.3342E+00  0.3345E+00  0.9608E+00  0.9605E+00
      0.508  0.3598E+00  0.3590E+00  0.9901E+00  0.9897E+00
      0.589  0.4447E+00  0.4435E+00  0.1026E+01  0.1026E+01
      0.670  0.5361E+00  0.5356E+00  0.1070E+01  0.1069E+01
      0.752  0.5253E+00  0.5261E+00  0.1113E+01  0.1112E+01
      0.833  0.4592E+00  0.4599E+00  0.1150E+01  0.1150E+01
      0.914  0.4040E+00  0.4041E+00  0.1183E+01  0.1183E+01
      0.996  0.4283E+00  0.4277E+00  0.1218E+01  0.1217E+01
      1.077  0.4819E+00  0.4816E+00  0.1257E+01  0.1257E+01
      1.158  0.4852E+00  0.4860E+00  0.1297E+01  0.1296E+01
      1.240  0.3903E+00  0.3913E+00  0.1328E+01  0.1328E+01
      1.321  0.3794E+00  0.3783E+00  0.1359E+01  0.1359E+01
      1.402  0.5039E+00  0.5023E+00  0.1400E+01  0.1400E+01
      1.484  0.5750E+00  0.5749E+00  0.1447E+01  0.1446E+01
      1.565  0.5791E+00  0.5793E+00  0.1494E+01  0.1494E+01
      1.646  0.5504E+00  0.5509E+00  0.1539E+01  0.1538E+01
      1.728  0.5400E+00  0.5391E+00  0.1583E+01  0.1582E+01
      1.809  0.6598E+00  0.6583E+00  0.1636E+01  0.1636E+01
      1.890  0.6903E+00  0.6912E+00  0.1693E+01  0.1692E+01
      1.972  0.5520E+00  0.5535E+00  0.1738E+01  0.1737E+01
      2.053  0.4603E+00  0.4609E+00  0.1775E+01  0.1775E+01
      2.134  0.4545E+00  0.4532E+00  0.1812E+01  0.1812E+01
      2.216  0.6212E+00  0.6188E+00  0.1863E+01  0.1862E+01
      2.297  0.7196E+00  0.7196E+00  0.1921E+01  0.1920E+01
      2.378  0.6566E+00  0.6575E+00  0.1975E+01  0.1974E+01
      2.459  0.6505E+00  0.6491E+00  0.2028E+01  0.2027E+01
      2.541  0.8242E+00  0.8218E+00  0.2095E+01  0.2094E+01
      2.622  0.8266E+00  0.8279E+00  0.2162E+01  0.2161E+01
      2.703  0.7313E+00  0.7316E+00  0.2221E+01  0.2221E+01
      2.785  0.6774E+00  0.6777E+00  0.2276E+01  0.2276E+01
      2.866  0.6723E+00  0.6711E+00  0.2331E+01  0.2330E+01
      2.947  0.7442E+00  0.7434E+00  0.2392E+01  0.2391E+01
      3.029  0.7460E+00  0.7462E+00  0.2452E+01  0.2452E+01
      3.110  0.7736E+00  0.7721E+00  0.2515E+01  0.2514E+01
      3.191  0.8534E+00  0.8526E+00  0.2585E+01  0.2584E+01
      3.273  0.8769E+00  0.8763E+00  0.2656E+01  0.2655E+01
      3.354  0.8914E+00  0.8887E+00  0.2729E+01  0.2727E+01
      3.435  0.1041E+01  0.1036E+01  0.2813E+01  0.2812E+01
      3.517  0.1196E+01  0.1193E+01  0.2911E+01  0.2909E+01
      3.598  0.1240E+01  0.1239E+01  0.3012E+01  0.3010E+01
      3.679  0.1320E+01  0.1315E+01  0.3119E+01  0.3117E+01
      3.761  0.1536E+01  0.1530E+01  0.3244E+01  0.3241E+01
      3.842  0.1742E+01  0.1734E+01  0.3386E+01  0.3382E+01
      3.923  0.2258E+01  0.2237E+01  0.3570E+01  0.3564E+01
      4.005  0.3481E+01  0.3435E+01  0.3853E+01  0.3844E+01
      4.086  0.4983E+01  0.4933E+01  0.4258E+01  0.4245E+01
      4.167  0.5798E+01  0.5772E+01  0.4730E+01  0.4714E+01
      4.249  0.5554E+01  0.5567E+01  0.5181E+01  0.5167E+01
      4.330  0.4455E+01  0.4492E+01  0.5544E+01  0.5533E+01
      4.411  0.3290E+01  0.3325E+01  0.5812E+01  0.5803E+01
      4.493  0.2362E+01  0.2395E+01  0.6004E+01  0.5998E+01
      4.574  0.2241E+01  0.2232E+01  0.6187E+01  0.6180E+01
      4.655  0.3822E+01  0.3776E+01  0.6498E+01  0.6488E+01
      4.737  0.4678E+01  0.4687E+01  0.6879E+01  0.6869E+01
      4.818  0.3615E+01  0.3648E+01  0.7173E+01  0.7166E+01
      4.899  0.2532E+01  0.2555E+01  0.7379E+01  0.7374E+01
      4.981  0.2008E+01  0.2018E+01  0.7543E+01  0.7538E+01
      5.062  0.1712E+01  0.1723E+01  0.7682E+01  0.7679E+01
      5.143  0.1329E+01  0.1340E+01  0.7791E+01  0.7788E+01
      5.224  0.1034E+01  0.1041E+01  0.7875E+01  0.7873E+01
      5.306  0.9901E+00  0.9872E+00  0.7956E+01  0.7954E+01
      5.387  0.1201E+01  0.1199E+01  0.8053E+01  0.8051E+01
      5.468  0.1125E+01  0.1132E+01  0.8145E+01  0.8143E+01
      5.550  0.7678E+00  0.7767E+00  0.8208E+01  0.8207E+01
      5.631  0.5274E+00  0.5292E+00  0.8251E+01  0.8250E+01
      5.712  0.6608E+00  0.6563E+00  0.8304E+01  0.8303E+01
      5.794  0.8001E+00  0.7996E+00  0.8370E+01  0.8368E+01
      5.875  0.7805E+00  0.7807E+00  0.8433E+01  0.8432E+01
      5.956  0.8671E+00  0.8641E+00  0.8504E+01  0.8502E+01
      6.038  0.1004E+01  0.1001E+01  0.8585E+01  0.8584E+01
      6.119  0.1014E+01  0.1015E+01  0.8668E+01  0.8666E+01
      6.200  0.8561E+00  0.8589E+00  0.8738E+01  0.8736E+01
      6.282  0.8005E+00  0.8007E+00  0.8803E+01  0.8801E+01
      6.363  0.7908E+00  0.7916E+00  0.8867E+01  0.8866E+01
      6.444  0.7825E+00  0.7827E+00  0.8931E+01  0.8930E+01
      6.526  0.8812E+00  0.8793E+00  0.9003E+01  0.9001E+01
      6.607  0.9094E+00  0.9118E+00  0.9077E+01  0.9075E+01
      6.688  0.7508E+00  0.7522E+00  0.9138E+01  0.9137E+01
      6.770  0.8988E+00  0.8947E+00  0.9211E+01  0.9209E+01
      6.851  0.1019E+01  0.1021E+01  0.9294E+01  0.9292E+01
      6.932  0.8514E+00  0.8549E+00  0.9363E+01  0.9362E+01
      7.014  0.6981E+00  0.7000E+00  0.9420E+01  0.9419E+01
      7.095  0.6240E+00  0.6248E+00  0.9471E+01  0.9470E+01
      7.176  0.6270E+00  0.6271E+00  0.9522E+01  0.9521E+01
      7.258  0.6211E+00  0.6213E+00  0.9572E+01  0.9572E+01
      7.339  0.6759E+00  0.6740E+00  0.9627E+01  0.9626E+01
      7.420  0.8336E+00  0.8318E+00  0.9695E+01  0.9694E+01
      7.502  0.8258E+00  0.8278E+00  0.9762E+01  0.9761E+01
      7.583  0.7501E+00  0.7501E+00  0.9823E+01  0.9822E+01
      7.664  0.7881E+00  0.7882E+00  0.9887E+01  0.9887E+01
      7.746  0.7544E+00  0.7551E+00  0.9949E+01  0.9948E+01
      7.827  0.7320E+00  0.7322E+00  0.1001E+02  0.1001E+02
      7.908  0.6644E+00  0.6660E+00  0.1006E+02  0.1006E+02
      7.990  0.5897E+00  0.5899E+00  0.1011E+02  0.1011E+02
      8.071  0.6135E+00  0.6134E+00  0.1016E+02  0.1016E+02
      8.152  0.6252E+00  0.6244E+00  0.1021E+02  0.1021E+02
      8.233  0.7423E+00  0.7404E+00  0.1027E+02  0.1027E+02
      8.315  0.8535E+00  0.8524E+00  0.1034E+02  0.1034E+02
      8.396  0.9109E+00  0.9114E+00  0.1042E+02  0.1041E+02
      8.477  0.8090E+00  0.8104E+00  0.1048E+02  0.1048E+02
      8.559  0.7627E+00  0.7627E+00  0.1054E+02  0.1054E+02
      8.640  0.7765E+00  0.7767E+00  0.1061E+02  0.1061E+02
      8.721  0.8335E+00  0.8327E+00  0.1067E+02  0.1067E+02
      8.803  0.9253E+00  0.9249E+00  0.1075E+02  0.1075E+02
      8.884  0.8741E+00  0.8755E+00  0.1082E+02  0.1082E+02
      8.965  0.8146E+00  0.8149E+00  0.1089E+02  0.1089E+02
      9.047  0.8390E+00  0.8387E+00  0.1096E+02  0.1095E+02
      9.128  0.7765E+00  0.7783E+00  0.1102E+02  0.1102E+02
      9.209  0.6925E+00  0.6926E+00  0.1107E+02  0.1107E+02
      9.291  0.7883E+00  0.7869E+00  0.1114E+02  0.1114E+02
      9.372  0.8491E+00  0.8493E+00  0.1121E+02  0.1121E+02
      9.453  0.7959E+00  0.7966E+00  0.1127E+02  0.1127E+02
      9.535  0.7695E+00  0.7689E+00  0.1134E+02  0.1133E+02
      9.616  0.8464E+00  0.8455E+00  0.1140E+02  0.1140E+02
      9.697  0.8518E+00  0.8521E+00  0.1147E+02  0.1147E+02
      9.779  0.8189E+00  0.8192E+00  0.1154E+02  0.1154E+02
      9.860  0.7943E+00  0.7946E+00  0.1161E+02  0.1160E+02
      9.941  0.8718E+00  0.8702E+00  0.1168E+02  0.1168E+02
     10.023  0.1003E+01  0.1002E+01  0.1176E+02  0.1176E+02
     10.104  0.9279E+00  0.9292E+00  0.1183E+02  0.1183E+02
     10.185  0.8632E+00  0.8636E+00  0.1190E+02  0.1190E+02
     10.267  0.8247E+00  0.8250E+00  0.1197E+02  0.1197E+02
     10.348  0.8251E+00  0.8247E+00  0.1204E+02  0.1204E+02
     10.429  0.8732E+00  0.8731E+00  0.1211E+02  0.1211E+02
     10.511  0.8616E+00  0.8621E+00  0.1218E+02  0.1218E+02
     10.592  0.8117E+00  0.8117E+00  0.1225E+02  0.1224E+02
     10.673  0.8532E+00  0.8526E+00  0.1231E+02  0.1231E+02
     10.755  0.8875E+00  0.8873E+00  0.1239E+02  0.1239E+02
     10.836  0.8803E+00  0.8810E+00  0.1246E+02  0.1246E+02
     10.917  0.7529E+00  0.7547E+00  0.1252E+02  0.1252E+02
     10.998  0.6741E+00  0.6747E+00  0.1257E+02  0.1257E+02
     11.080  0.6314E+00  0.6317E+00  0.1263E+02  0.1263E+02
     11.161  0.7478E+00  0.7447E+00  0.1269E+02  0.1269E+02
     11.242  0.1005E+01  0.1004E+01  0.1277E+02  0.1277E+02
     11.324  0.9679E+00  0.9693E+00  0.1285E+02  0.1285E+02
     11.405  0.9133E+00  0.9131E+00  0.1292E+02  0.1292E+02
     11.486  0.1026E+01  0.1024E+01  0.1301E+02  0.1300E+02
     11.568  0.1167E+01  0.1166E+01  0.1310E+02  0.1310E+02
     11.649  0.1075E+01  0.1076E+01  0.1319E+02  0.1319E+02
     11.730  0.8886E+00  0.8900E+00  0.1326E+02  0.1326E+02
     11.812  0.8112E+00  0.8114E+00  0.1333E+02  0.1333E+02
     11.893  0.8209E+00  0.8207E+00  0.1339E+02  0.1339E+02
     11.974  0.8291E+00  0.8292E+00  0.1346E+02  0.1346E+02
     12.056  0.8241E+00  0.8236E+00  0.1353E+02  0.1353E+02
     12.137  0.8580E+00  0.8577E+00  0.1360E+02  0.1360E+02
     12.218  0.9097E+00  0.9091E+00  0.1367E+02  0.1367E+02
     12.300  0.9258E+00  0.9268E+00  0.1375E+02  0.1375E+02
     12.381  0.8381E+00  0.8390E+00  0.1381E+02  0.1381E+02
     12.462  0.8377E+00  0.8376E+00  0.1388E+02  0.1388E+02
     12.544  0.8886E+00  0.8878E+00  0.1396E+02  0.1395E+02
     12.625  0.1002E+01  0.1001E+01  0.1404E+02  0.1404E+02
     12.706  0.1059E+01  0.1059E+01  0.1412E+02  0.1412E+02
     12.788  0.9855E+00  0.9861E+00  0.1420E+02  0.1420E+02
     12.869  0.9164E+00  0.9171E+00  0.1428E+02  0.1428E+02
     12.950  0.8955E+00  0.8943E+00  0.1435E+02  0.1435E+02
     13.032  0.9383E+00  0.9376E+00  0.1443E+02  0.1443E+02
     13.113  0.9295E+00  0.9312E+00  0.1450E+02  0.1450E+02
     13.194  0.9846E+00  0.9893E+00  0.1458E+02  0.1458E+02
     13.276  0.1092E+01  0.1103E+01  0.1467E+02  0.1467E+02
     13.357  0.9896E+00  0.9881E+00  0.1475E+02  0.1475E+02
     13.438  0.7921E+00  0.7814E+00  0.1482E+02  0.1482E+02
     13.520  0.8622E+00  0.8547E+00  0.1489E+02  0.1489E+02
     13.601  0.9847E+00  0.9825E+00  0.1497E+02  0.1497E+02
     13.682  0.1029E+01  0.1035E+01  0.1505E+02  0.1505E+02
     13.764  0.8315E+00  0.8371E+00  0.1512E+02  0.1512E+02
     13.845  0.5924E+00  0.6003E+00  0.1517E+02  0.1517E+02
     13.926  0.5391E+00  0.5528E+00  0.1521E+02  0.1521E+02
     14.007  0.6158E+00  0.6098E+00  0.1526E+02  0.1526E+02
     14.089  0.6493E+00  0.6305E+00  0.1531E+02  0.1531E+02
     14.170  0.4362E+00  0.4250E+00  0.1535E+02  0.1535E+02
     14.251  0.2456E+00  0.2460E+00  0.1537E+02  0.1537E+02
     14.333  0.2655E+00  0.2783E+00  0.1539E+02  0.1539E+02
     14.414  0.3903E+00  0.3933E+00  0.1542E+02  0.1542E+02
     14.495  0.4416E+00  0.4465E+00  0.1546E+02  0.1546E+02
     14.577  0.5062E+00  0.5262E+00  0.1550E+02  0.1550E+02
     14.658  0.5490E+00  0.5552E+00  0.1554E+02  0.1555E+02
     14.739  0.3755E+00  0.3569E+00  0.1557E+02  0.1558E+02
     14.821  0.2034E+00  0.1939E+00  0.1559E+02  0.1559E+02
     14.902  0.2009E+00  0.1980E+00  0.1561E+02  0.1561E+02
     14.983  0.2495E+00  0.2492E+00  0.1563E+02  0.1563E+02
     15.065  0.2158E+00  0.2162E+00  0.1565E+02  0.1565E+02
     15.146  0.2150E+00  0.2143E+00  0.1566E+02  0.1566E+02
     15.227  0.3086E+00  0.3079E+00  0.1569E+02  0.1569E+02
     15.309  0.2885E+00  0.2897E+00  0.1571E+02  0.1571E+02
     15.390  0.1436E+00  0.1445E+00  0.1572E+02  0.1572E+02
     15.471  0.9078E-01  0.9086E-01  0.1573E+02  0.1573E+02
     15.553  0.9773E-01  0.9755E-01  0.1574E+02  0.1574E+02
     15.634  0.1287E+00  0.1286E+00  0.1575E+02  0.1575E+02
     15.715  0.1050E+00  0.1056E+00  0.1576E+02  0.1576E+02
     15.797  0.7132E-01  0.7204E-01  0.1576E+02  0.1576E+02
     15.878  0.7055E-01  0.7350E-01  0.1577E+02  0.1577E+02
     15.959  0.8324E-01  0.9488E-01  0.1578E+02  0.1578E+02
     16.041  0.1613E+00  0.1866E+00  0.1579E+02  0.1579E+02
     16.122  0.2138E+00  0.2162E+00  0.1581E+02  0.1581E+02
     16.203  0.1855E+00  0.1578E+00  0.1582E+02  0.1582E+02
     16.285  0.1309E+00  0.1165E+00  0.1583E+02  0.1583E+02
     16.366  0.1080E+00  0.1064E+00  0.1584E+02  0.1584E+02
     16.447  0.1190E+00  0.1189E+00  0.1585E+02  0.1585E+02
     16.529  0.7896E-01  0.7879E-01  0.1586E+02  0.1586E+02
     16.610  0.6432E-01  0.6183E-01  0.1586E+02  0.1586E+02
     16.691  0.1066E+00  0.9833E-01  0.1587E+02  0.1587E+02
     16.772  0.1584E+00  0.1523E+00  0.1588E+02  0.1588E+02
     16.854  0.1751E+00  0.1894E+00  0.1590E+02  0.1590E+02
     16.935  0.1451E+00  0.1496E+00  0.1591E+02  0.1591E+02
     17.016  0.1071E+00  0.1062E+00  0.1592E+02  0.1592E+02
     17.098  0.8355E-01  0.8328E-01  0.1593E+02  0.1593E+02
     17.179  0.5312E-01  0.5323E-01  0.1593E+02  0.1593E+02
     17.260  0.4048E-01  0.4026E-01  0.1593E+02  0.1593E+02
     17.342  0.5580E-01  0.5572E-01  0.1594E+02  0.1594E+02
     17.423  0.4242E-01  0.4269E-01  0.1594E+02  0.1594E+02
     17.504  0.3959E-01  0.3945E-01  0.1594E+02  0.1594E+02
     17.586  0.7989E-01  0.7925E-01  0.1595E+02  0.1595E+02
     17.667  0.1092E+00  0.1091E+00  0.1596E+02  0.1596E+02
     17.748  0.6454E-01  0.6537E-01  0.1597E+02  0.1597E+02
     17.830  0.1908E-01  0.1978E-01  0.1597E+02  0.1597E+02
     17.911  0.4996E-02  0.6567E-02  0.1597E+02  0.1597E+02
     17.992  0.4988E-02  0.1169E-01  0.1597E+02  0.1597E+02
     18.074  0.1481E-01  0.3568E-01  0.1597E+02  0.1597E+02
     18.155  0.2972E-01  0.5121E-01  0.1597E+02  0.1598E+02
     18.236  0.4070E-01  0.2690E-01  0.1597E+02  0.1598E+02
     18.318  0.3524E-01  0.1300E-01  0.1598E+02  0.1598E+02
     18.399  0.2782E-01  0.2534E-01  0.1598E+02  0.1598E+02
     18.480  0.4403E-01  0.4799E-01  0.1598E+02  0.1598E+02
     18.562  0.4512E-01  0.3749E-01  0.1599E+02  0.1599E+02
     18.643  0.1967E-01  0.1335E-01  0.1599E+02  0.1599E+02
     18.724  0.5214E-02  0.3422E-02  0.1599E+02  0.1599E+02
     18.806  0.2549E-02  0.2289E-02  0.1599E+02  0.1599E+02
     18.887  0.7112E-02  0.7683E-02  0.1599E+02  0.1599E+02
     18.968  0.2244E-01  0.2561E-01  0.1599E+02  0.1599E+02
     19.050  0.3607E-01  0.4363E-01  0.1599E+02  0.1600E+02
     19.131  0.3093E-01  0.3537E-01  0.1600E+02  0.1600E+02
     19.212  0.2276E-01  0.1513E-01  0.1600E+02  0.1600E+02
     19.294  0.1004E-01  0.3894E-02  0.1600E+02  0.1600E+02
     19.375  0.2563E-02  0.8158E-03  0.1600E+02  0.1600E+02
     19.456  0.4860E-03  0.1212E-03  0.1600E+02  0.1600E+02
     19.538  0.9681E-04  0.0000E+00  0.1600E+02  0.1600E+02
     19.619  0.0000E+00  0.0000E+00  0.1600E+02  0.1600E+02
     19.700  0.0000E+00  0.0000E+00  0.1600E+02  0.1600E+02
     19.781  0.0000E+00  0.0000E+00  0.1600E+02  0.1600E+02
     19.863  0.0000E+00  0.0000E+00  0.1600E+02  0.1600E+02
     19.944  0.0000E+00  0.0000E+00  0.1600E+02  0.1600E+02
     20.025  0.0000E+00  0.0000E+00  0.1600E+02  0.1600E+02
     20.107  0.0000E+00  0.0000E+00  0.1600E+02  0.1600E+02
     20.188  0.0000E+00  0.0000E+00  0.1600E+02  0.1600E+02
     20.269  0.0000E+00  0.0000E+00  0.1600E+02  0.1600E+02
     20.26942917     -4.12776506  301      7.81571594      1.00000000
     -4.128  0.0000E+00  0.0000E+00  0.0000E+00  0.0000E+00  0.0000E+00  0.0000E+00  0.0000E+00  0.0000E+00  0.0000E+00  0.0000E+00  0.0000E+00  0.0000E+00  0.0000E+00  0.0000E+00  0.0000E+00  0.0000E+00  0.0000E+00  0.0000E+00
     -4.046  0.0000E+00  0.0000E+00  0.0000E+00  0.0000E+00  0.0000E+00  0.0000E+00  0.0000E+00  0.0000E+00  0.0000E+00  0.0000E+00  0.0000E+00  0.0000E+00  0.0000E+00  0.0000E+00  0.0000E+00  0.0000E+00  0.0000E+00  0.0000E+00
     -3.965  0.0000E+00  0.0000E+00  0.0000E+00  0.0000E+00  0.0000E+00  0.0000E+00  0.0000E+00  0.0000E+00  0.0000E+00  0.0000E+00  0.0000E+00  0.0000E+00  0.0000E+00  0.0000E+00  0.0000E+00  0.0000E+00  0.0000E+00  0.0000E+00
     -3.884  0.0000E+00  0.0000E+00  0.0000E+00  0.0000E+00  0.0000E+00  0.0000E+00  0.0000E+00  0.0000E+00  0.0000E+00  0.0000E+00  0.0000E+00  0.0000E+00  0.0000E+00  0.0000E+00  0.0000E+00  0.0000E+00  0.0000E+00  0.0000E+00
     -3.802  0.0000E+00  0.0000E+00  0.0000E+00  0.0000E+00  0.0000E+00  0.0000E+00  0.0000E+00  0.0000E+00  0.0000E+00  0.0000E+00  0.0000E+00  0.0000E+00  0.0000E+00  0.0000E+00  0.0000E+00  0.0000E+00  0.0000E+00  0.0000E+00
     -3.721  0.0000E+00  0.0000E+00  0.0000E+00  0.0000E+00  0.0000E+00  0.0000E+00  0.0000E+00  0.0000E+00  0.0000E+00  0.0000E+00  0.0000E+00  0.0000E+00  0.0000E+00  0.0000E+00  0.0000E+00  0.0000E+00  0.0000E+00  0.0000E+00
     -3.640  0.0000E+00  0.0000E+00  0.0000E+00  0.0000E+00  0.0000E+00  0.0000E+00  0.0000E+00  0.0000E+00  0.0000E+00  0.0000E+00  0.0000E+00  0.0000E+00  0.0000E+00  0.0000E+00  0.0000E+00  0.0000E+00  0.0000E+00  0.0000E+00
     -3.558  0.0000E+00  0.0000E+00  0.0000E+00  0.0000E+00  0.0000E+00  0.0000E+00  0.0000E+00  0.0000E+00  0.0000E+00  0.0000E+00  0.0000E+00  0.0000E+00  0.0000E+00  0.0000E+00  0.0000E+00  0.0000E+00  0.0000E+00  0.0000E+00
     -3.477  0.4613E-07  0.4532E-07  0.1503E-20  0.7751E-21  0.1503E-20  0.7751E-21  0.8826E-21  0.3905E-21  0.8068E-15  0.4177E-15  0.5974E-15  0.6971E-15  0.1507E-16  0.4396E-16  0.8068E-15  0.4177E-15  0.1617E-16  0.4207E-16
     -3.396  0.6464E-06  0.6349E-06  0.9523E-09  0.9357E-09  0.9523E-09  0.9357E-09  0.9521E-09  0.9354E-09  0.3348E-14  0.1730E-14  0.2637E-14  0.2848E-14  0.3141E-11  0.3530E-11  0.3348E-14  0.1730E-14  0.4037E-11  0.4539E-11
     -3.315  0.4672E-05  0.4589E-05  0.1229E-07  0.1207E-07  0.1229E-07  0.1207E-07  0.1229E-07  0.1207E-07  0.8352E-10  0.8011E-10  0.8331E-10  0.8008E-10  0.2685E-10  0.2946E-10  0.8352E-10  0.8011E-10  0.2745E-10  0.3022E-10
     -3.233  0.2221E-04  0.2182E-04  0.5748E-07  0.5647E-07  0.5748E-07  0.5647E-07  0.5747E-07  0.5646E-07  0.3409E-09  0.3270E-09  0.3400E-09  0.3269E-09  0.1726E-09  0.1842E-09  0.3409E-09  0.3270E-09  0.1930E-09  0.2055E-09
     -3.152  0.1134E-03  0.1114E-03  0.3262E-06  0.3205E-06  0.3262E-06  0.3205E-06  0.3261E-06  0.3204E-06  0.2383E-08  0.2288E-08  0.2387E-08  0.2288E-08  0.1175E-08  0.1228E-08  0.2383E-08  0.2288E-08  0.1330E-08  0.1387E-08
     -3.071  0.5135E-03  0.5054E-03  0.1542E-05  0.1516E-05  0.1542E-05  0.1516E-05  0.1541E-05  0.1516E-05  0.1123E-07  0.1078E-07  0.1124E-07  0.1078E-07  0.5398E-08  0.5652E-08  0.1123E-07  0.1078E-07  0.6079E-08  0.6351E-08
     -2.989  0.1814E-02  0.1793E-02  0.6482E-05  0.6390E-05  0.6482E-05  0.6390E-05  0.6481E-05  0.6389E-05  0.5340E-07  0.5137E-07  0.5349E-07  0.5136E-07  0.2391E-07  0.2483E-07  0.5340E-07  0.5137E-07  0.2679E-07  0.2774E-07
     -2.908  0.4068E-02  0.4043E-02  0.1938E-04  0.1919E-04  0.1938E-04  0.1919E-04  0.1937E-04  0.1918E-04  0.1959E-06  0.1890E-06  0.1965E-06  0.1890E-06  0.8595E-07  0.8748E-07  0.1959E-06  0.1890E-06  0.9811E-07  0.9941E-07
     -2.827  0.5942E-02  0.5923E-02  0.4174E-04  0.4142E-04  0.4174E-04  0.4142E-04  0.4172E-04  0.4140E-04  0.5295E-06  0.5126E-06  0.5331E-06  0.5126E-06  0.2750E-06  0.2744E-06  0.5295E-06  0.5126E-06  0.3265E-06  0.3253E-06
     -2.745  0.8049E-02  0.8022E-02  0.8038E-04  0.7987E-04  0.8038E-04  0.7987E-04  0.8036E-04  0.7986E-04  0.1299E-05  0.1263E-05  0.1309E-05  0.1263E-05  0.6773E-06  0.6749E-06  0.1299E-05  0.1263E-05  0.8085E-06  0.8059E-06
     -2.664  0.9500E-02  0.9502E-02  0.1168E-03  0.1165E-03  0.1168E-03  0.1165E-03  0.1168E-03  0.1166E-03  0.2499E-05  0.2450E-05  0.2510E-05  0.2450E-05  0.1035E-05  0.1035E-05  0.2499E-05  0.2450E-05  0.1211E-05  0.1212E-05
     -2.583  0.9003E-02  0.8998E-02  0.1425E-03  0.1419E-03  0.1425E-03  0.1419E-03  0.1424E-03  0.1419E-03  0.3977E-05  0.3925E-05  0.3982E-05  0.3925E-05  0.1631E-05  0.1630E-05  0.3977E-05  0.3925E-05  0.1841E-05  0.1839E-05
     -2.501  0.1116E-01  0.1113E-01  0.2209E-03  0.2199E-03  0.2209E-03  0.2199E-03  0.2208E-03  0.2198E-03  0.6707E-05  0.6659E-05  0.6708E-05  0.6658E-05  0.3482E-05  0.3477E-05  0.6707E-05  0.6659E-05  0.4056E-05  0.4046E-05
     -2.420  0.1276E-01  0.1275E-01  0.2876E-03  0.2872E-03  0.2876E-03  0.2872E-03  0.2876E-03  0.2872E-03  0.9252E-05  0.9208E-05  0.9252E-05  0.9207E-05  0.5470E-05  0.5470E-05  0.9252E-05  0.9208E-05  0.6594E-05  0.6593E-05
     -2.339  0.1221E-01  0.1221E-01  0.3171E-03  0.3166E-03  0.3171E-03  0.3166E-03  0.3171E-03  0.3166E-03  0.1370E-04  0.1360E-04  0.1370E-04  0.1360E-04  0.5909E-05  0.5905E-05  0.1370E-04  0.1360E-04  0.6960E-05  0.6962E-05
     -2.257  0.1315E-01  0.1314E-01  0.3909E-03  0.3901E-03  0.3909E-03  0.3901E-03  0.3909E-03  0.3900E-03  0.2141E-04  0.2128E-04  0.2141E-04  0.2128E-04  0.7171E-05  0.7146E-05  0.2141E-04  0.2128E-04  0.8059E-05  0.8036E-05
     -2.176  0.1261E-01  0.1263E-01  0.4172E-03  0.4173E-03  0.4172E-03  0.4173E-03  0.4170E-03  0.4171E-03  0.2384E-04  0.2377E-04  0.2383E-04  0.2376E-04  0.9336E-05  0.9298E-05  0.2384E-04  0.2377E-04  0.1084E-04  0.1079E-04
     -2.095  0.1276E-01  0.1273E-01  0.4935E-03  0.4915E-03  0.4935E-03  0.4915E-03  0.4929E-03  0.4909E-03  0.2802E-04  0.2776E-04  0.2803E-04  0.2778E-04  0.1525E-04  0.1515E-04  0.2802E-04  0.2776E-04  0.1845E-04  0.1833E-04
     -2.013  0.1616E-01  0.1613E-01  0.6844E-03  0.6829E-03  0.6844E-03  0.6829E-03  0.6842E-03  0.6827E-03  0.4347E-04  0.4311E-04  0.4348E-04  0.4315E-04  0.2279E-04  0.2274E-04  0.4347E-04  0.4311E-04  0.2709E-04  0.2705E-04
     -1.932  0.1631E-01  0.1632E-01  0.7448E-03  0.7444E-03  0.7448E-03  0.7444E-03  0.7449E-03  0.7445E-03  0.5637E-04  0.5600E-04  0.5637E-04  0.5603E-04  0.2476E-04  0.2474E-04  0.5637E-04  0.5600E-04  0.2845E-04  0.2843E-04
     -1.851  0.1581E-01  0.1581E-01  0.7831E-03  0.7829E-03  0.7831E-03  0.7829E-03  0.7833E-03  0.7831E-03  0.6912E-04  0.6869E-04  0.6910E-04  0.6869E-04  0.2571E-04  0.2568E-04  0.6912E-04  0.6869E-04  0.2964E-04  0.2960E-04
     -1.769  0.1339E-01  0.1343E-01  0.7131E-03  0.7142E-03  0.7131E-03  0.7142E-03  0.7134E-03  0.7146E-03  0.7389E-04  0.7356E-04  0.7388E-04  0.7357E-04  0.2179E-04  0.2178E-04  0.7389E-04  0.7356E-04  0.2526E-04  0.2524E-04
     -1.688  0.1244E-01  0.1242E-01  0.7549E-03  0.7521E-03  0.7549E-03  0.7521E-03  0.7535E-03  0.7507E-03  0.8344E-04  0.8287E-04  0.8361E-04  0.8296E-04  0.2781E-04  0.2758E-04  0.8344E-04  0.8287E-04  0.3241E-04  0.3213E-04
     -1.607  0.1681E-01  0.1676E-01  0.1136E-02  0.1131E-02  0.1136E-02  0.1131E-02  0.1133E-02  0.1129E-02  0.1202E-03  0.1195E-03  0.1205E-03  0.1196E-03  0.5244E-04  0.5213E-04  0.1202E-03  0.1195E-03  0.6124E-04  0.6088E-04
     -1.525  0.1850E-01  0.1852E-01  0.1334E-02  0.1334E-02  0.1334E-02  0.1334E-02  0.1334E-02  0.1334E-02  0.1432E-03  0.1429E-03  0.1432E-03  0.1428E-03  0.6608E-04  0.6613E-04  0.1432E-03  0.1429E-03  0.7833E-04  0.7838E-04
     -1.444  0.1706E-01  0.1706E-01  0.1324E-02  0.1323E-02  0.1324E-02  0.1323E-02  0.1324E-02  0.1323E-02  0.1647E-03  0.1641E-03  0.1647E-03  0.1641E-03  0.6430E-04  0.6434E-04  0.1647E-03  0.1641E-03  0.7696E-04  0.7704E-04
     -1.363  0.1676E-01  0.1679E-01  0.1386E-02  0.1387E-02  0.1386E-02  0.1387E-02  0.1386E-02  0.1388E-02  0.1903E-03  0.1903E-03  0.1902E-03  0.1903E-03  0.6844E-04  0.6857E-04  0.1903E-03  0.1903E-03  0.8144E-04  0.8166E-04
     -1.281  0.1298E-01  0.1301E-01  0.1150E-02  0.1151E-02  0.1150E-02  0.1151E-02  0.1151E-02  0.1152E-02  0.1827E-03  0.1824E-03  0.1828E-03  0.1825E-03  0.5769E-04  0.5782E-04  0.1827E-03  0.1824E-03  0.6611E-04  0.6633E-04
     -1.200  0.1440E-01  0.1435E-01  0.1406E-02  0.1399E-02  0.1406E-02  0.1399E-02  0.1403E-02  0.1397E-02  0.2682E-03  0.2669E-03  0.2685E-03  0.2672E-03  0.6566E-04  0.6538E-04  0.2682E-03  0.2669E-03  0.7212E-04  0.7181E-04
     -1.119  0.1752E-01  0.1751E-01  0.1930E-02  0.1924E-02  0.1930E-02  0.1924E-02  0.1925E-02  0.1920E-02  0.3623E-03  0.3621E-03  0.3623E-03  0.3622E-03  0.8892E-04  0.8859E-04  0.3623E-03  0.3621E-03  0.9969E-04  0.9929E-04
     -1.037  0.1615E-01  0.1618E-01  0.2149E-02  0.2148E-02  0.2149E-02  0.2148E-02  0.2146E-02  0.2145E-02  0.3565E-03  0.3572E-03  0.3562E-03  0.3570E-03  0.1007E-03  0.1007E-03  0.3565E-03  0.3572E-03  0.1168E-03  0.1168E-03
     -0.956  0.1346E-01  0.1348E-01  0.2129E-02  0.2129E-02  0.2129E-02  0.2129E-02  0.2128E-02  0.2128E-02  0.3505E-03  0.3502E-03  0.3506E-03  0.3503E-03  0.9949E-04  0.9974E-04  0.3505E-03  0.3502E-03  0.1185E-03  0.1188E-03
     -0.875  0.1230E-01  0.1230E-01  0.2199E-02  0.2196E-02  0.2199E-02  0.2196E-02  0.2197E-02  0.2195E-02  0.4120E-03  0.4107E-03  0.4125E-03  0.4112E-03  0.1024E-03  0.1027E-03  0.4120E-03  0.4107E-03  0.1213E-03  0.1216E-03
     -0.793  0.1356E-01  0.1354E-01  0.2444E-02  0.2442E-02  0.2444E-02  0.2442E-02  0.2446E-02  0.2444E-02  0.5752E-03  0.5727E-03  0.5759E-03  0.5734E-03  0.1118E-03  0.1122E-03  0.5752E-03  0.5727E-03  0.1262E-03  0.1266E-03
     -0.712  0.1490E-01  0.1491E-01  0.2534E-02  0.2534E-02  0.2534E-02  0.2534E-02  0.2535E-02  0.2535E-02  0.7500E-03  0.7486E-03  0.7503E-03  0.7488E-03  0.1124E-03  0.1128E-03  0.7500E-03  0.7486E-03  0.1214E-03  0.1219E-03
     -0.631  0.1346E-01  0.1348E-01  0.2581E-02  0.2580E-02  0.2581E-02  0.2580E-02  0.2579E-02  0.2578E-02  0.8262E-03  0.8249E-03  0.8263E-03  0.8251E-03  0.1109E-03  0.1113E-03  0.8262E-03  0.8249E-03  0.1226E-03  0.1230E-03
     -0.550  0.1133E-01  0.1137E-01  0.2429E-02  0.2435E-02  0.2429E-02  0.2435E-02  0.2432E-02  0.2438E-02  0.8299E-03  0.8304E-03  0.8289E-03  0.8295E-03  0.1031E-03  0.1037E-03  0.8299E-03  0.8304E-03  0.1144E-03  0.1151E-03
     -0.468  0.7784E-02  0.7815E-02  0.1796E-02  0.1801E-02  0.1796E-02  0.1801E-02  0.1799E-02  0.1804E-02  0.6904E-03  0.6903E-03  0.6896E-03  0.6895E-03  0.7417E-04  0.7463E-04  0.6904E-03  0.6903E-03  0.8292E-04  0.8337E-04
     -0.387  0.7825E-02  0.7802E-02  0.1821E-02  0.1817E-02  0.1821E-02  0.1817E-02  0.1821E-02  0.1817E-02  0.8447E-03  0.8404E-03  0.8457E-03  0.8414E-03  0.8070E-04  0.8054E-04  0.8447E-03  0.8404E-03  0.8988E-04  0.8969E-04
     -0.306  0.1118E-01  0.1114E-01  0.2279E-02  0.2274E-02  0.2279E-02  0.2274E-02  0.2277E-02  0.2271E-02  0.1232E-02  0.1227E-02  0.1235E-02  0.1229E-02  0.1490E-03  0.1480E-03  0.1232E-02  0.1227E-02  0.1649E-03  0.1637E-03
     -0.224  0.1452E-01  0.1449E-01  0.2628E-02  0.2628E-02  0.2628E-02  0.2628E-02  0.2625E-02  0.2624E-02  0.1480E-02  0.1478E-02  0.1480E-02  0.1478E-02  0.3277E-03  0.3255E-03  0.1480E-02  0.1478E-02  0.3873E-03  0.3843E-03
     -0.143  0.1800E-01  0.1798E-01  0.2496E-02  0.2500E-02  0.2496E-02  0.2500E-02  0.2498E-02  0.2502E-02  0.1393E-02  0.1393E-02  0.1391E-02  0.1391E-02  0.5935E-03  0.5913E-03  0.1393E-02  0.1393E-02  0.7341E-03  0.7311E-03
     -0.062  0.1948E-01  0.1948E-01  0.2222E-02  0.2226E-02  0.2222E-02  0.2226E-02  0.2226E-02  0.2230E-02  0.1277E-02  0.1277E-02  0.1275E-02  0.1275E-02  0.7223E-03  0.7218E-03  0.1277E-02  0.1277E-02  0.9025E-03  0.9018E-03