   4   4   1   0
  0.1301965E+02  0.3733820E-09  0.3734676E-09  0.3734676E-09  0.5000000E-15
  1.000000000000000E-004
  CAR 
 unknown system                          
     23.67974777     -3.48578356  301      9.93338833      1.00000000
     -3.486  0.0000E+00  0.0000E+00  0.0000E+00  0.0000E+00
     -3.395  0.0000E+00  0.0000E+00  0.0000E+00  0.0000E+00
     -3.305  0.0000E+00  0.0000E+00  0.0000E+00  0.0000E+00
     -3.214  0.0000E+00  0.0000E+00  0.0000E+00  0.0000E+00
     -3.124  0.0000E+00  0.0000E+00  0.0000E+00  0.0000E+00
     -3.033  0.0000E+00  0.0000E+00  0.0000E+00  0.0000E+00
     -2.942  0.0000E+00  0.0000E+00  0.0000E+00  0.0000E+00
     -2.852  0.0000E+00  0.0000E+00  0.0000E+00  0.0000E+00
     -2.761  0.0000E+00  0.0000E+00  0.0000E+00  0.0000E+00
     -2.671  0.3056E-05  0.2998E-05  0.2767E-06  0.2715E-06
     -2.580  0.2227E-04  0.2185E-04  0.2294E-05  0.2250E-05
     -2.490  0.1368E-03  0.1343E-03  0.1468E-04  0.1441E-04
     -2.399  0.8343E-03  0.8189E-03  0.9023E-04  0.8856E-04
     -2.309  0.4600E-02  0.4523E-02  0.5068E-03  0.4982E-03
     -2.218  0.1903E-01  0.1880E-01  0.2230E-02  0.2200E-02
     -2.128  0.4645E-01  0.4616E-01  0.6436E-02  0.6380E-02
     -2.037  0.6734E-01  0.6716E-01  0.1253E-01  0.1246E-01
     -1.946  0.9258E-01  0.9222E-01  0.2092E-01  0.2081E-01
     -1.856  0.1155E+00  0.1155E+00  0.3138E-01  0.3127E-01
     -1.765  0.1026E+00  0.1026E+00  0.4067E-01  0.4057E-01
     -1.675  0.1319E+00  0.1314E+00  0.5262E-01  0.5247E-01
     -1.584  0.1604E+00  0.1603E+00  0.6715E-01  0.6700E-01
     -1.494  0.1507E+00  0.1508E+00  0.8080E-01  0.8066E-01
     -1.403  0.1651E+00  0.1648E+00  0.9576E-01  0.9559E-01
     -1.313  0.1674E+00  0.1678E+00  0.1109E+00  0.1108E+00
     -1.222  0.1531E+00  0.1529E+00  0.1248E+00  0.1246E+00
     -1.131  0.2149E+00  0.2144E+00  0.1443E+00  0.1441E+00
     -1.041  0.2256E+00  0.2258E+00  0.1647E+00  0.1645E+00
     -0.950  0.2226E+00  0.2226E+00  0.1849E+00  0.1847E+00
     -0.860  0.2008E+00  0.2014E+00  0.2031E+00  0.2029E+00
     -0.769  0.1620E+00  0.1619E+00  0.2178E+00  0.2176E+00
     -0.679  0.2279E+00  0.2268E+00  0.2385E+00  0.2382E+00
     -0.588  0.2955E+00  0.2955E+00  0.2652E+00  0.2650E+00
     -0.498  0.2651E+00  0.2652E+00  0.2893E+00  0.2890E+00
     -0.407  0.2844E+00  0.2843E+00  0.3150E+00  0.3147E+00
     -0.316  0.2283E+00  0.2292E+00  0.3357E+00  0.3355E+00
     -0.226  0.2113E+00  0.2106E+00  0.3549E+00  0.3546E+00
     -0.135  0.2989E+00  0.2982E+00  0.3820E+00  0.3817E+00
     -0.045  0.3248E+00  0.3249E+00  0.4114E+00  0.4111E+00
      0.046  0.3029E+00  0.3031E+00  0.4389E+00  0.4386E+00
      0.136  0.2881E+00  0.2883E+00  0.4650E+00  0.4647E+00
      0.227  0.3113E+00  0.3106E+00  0.4932E+00  0.4929E+00
      0.317  0.3646E+00  0.3645E+00  0.5263E+00  0.5259E+00
      0.408  0.3419E+00  0.3421E+00  0.5572E+00  0.5569E+00
      0.498  0.3403E+00  0.3402E+00  0.5881E+00  0.5878E+00
      0.589  0.2752E+00  0.2765E+00  0.6130E+00  0.6128E+00
      0.680  0.2077E+00  0.2075E+00  0.6319E+00  0.6317E+00
      0.770  0.2758E+00  0.2749E+00  0.6569E+00  0.6566E+00
      0.861  0.3645E+00  0.3637E+00  0.6899E+00  0.6895E+00
      0.951  0.4065E+00  0.4064E+00  0.7268E+00  0.7264E+00
      1.042  0.3793E+00  0.3797E+00  0.7611E+00  0.7608E+00
      1.132  0.3548E+00  0.3550E+00  0.7933E+00  0.7929E+00
      1.223  0.3118E+00  0.3124E+00  0.8215E+00  0.8212E+00
      1.313  0.3211E+00  0.3201E+00  0.8507E+00  0.8503E+00
      1.404  0.4530E+00  0.4522E+00  0.8917E+00  0.8912E+00
      1.495  0.3927E+00  0.3942E+00  0.9273E+00  0.9270E+00
      1.585  0.2951E+00  0.2953E+00  0.9540E+00  0.9538E+00
      1.676  0.3111E+00  0.3107E+00  0.9822E+00  0.9819E+00
      1.766  0.3734E+00  0.3722E+00  0.1016E+01  0.1016E+01
      1.857  0.5039E+00  0.5027E+00  0.1062E+01  0.1061E+01
      1.947  0.5184E+00  0.5192E+00  0.1109E+01  0.1108E+01
      2.038  0.4200E+00  0.4211E+00  0.1147E+01  0.1146E+01
      2.128  0.3380E+00  0.3385E+00  0.1177E+01  0.1177E+01
      2.219  0.3691E+00  0.3680E+00  0.1211E+01  0.1210E+01
      2.310  0.4686E+00  0.4679E+00  0.1253E+01  0.1253E+01
      2.400  0.4712E+00  0.4720E+00  0.1296E+01  0.1296E+01
      2.491  0.3498E+00  0.3511E+00  0.1328E+01  0.1327E+01
      2.581  0.3217E+00  0.3210E+00  0.1357E+01  0.1357E+01
      2.672  0.4405E+00  0.4389E+00  0.1397E+01  0.1396E+01
      2.762  0.5388E+00  0.5385E+00  0.1446E+01  0.1445E+01
      2.853  0.5456E+00  0.5459E+00  0.1495E+01  0.1495E+01
      2.943  0.4876E+00  0.4885E+00  0.1539E+01  0.1539E+01
      3.034  0.4510E+00  0.4505E+00  0.1580E+01  0.1580E+01
      3.124  0.5659E+00  0.5647E+00  0.1632E+01  0.1631E+01
      3.215  0.6204E+00  0.6208E+00  0.1688E+01  0.1687E+01
      3.306  0.5088E+00  0.5100E+00  0.1734E+01  0.1733E+01
      3.396  0.4569E+00  0.4569E+00  0.1775E+01  0.1775E+01
      3.487  0.4283E+00  0.4287E+00  0.1814E+01  0.1814E+01
      3.577  0.4884E+00  0.4863E+00  0.1858E+01  0.1858E+01
      3.668  0.6904E+00  0.6895E+00  0.1921E+01  0.1920E+01
      3.758  0.6768E+00  0.6772E+00  0.1982E+01  0.1982E+01
      3.849  0.7065E+00  0.7055E+00  0.2046E+01  0.2046E+01
      3.939  0.8007E+00  0.8000E+00  0.2119E+01  0.2118E+01
      4.030  0.7542E+00  0.7555E+00  0.2187E+01  0.2187E+01
      4.121  0.6503E+00  0.6509E+00  0.2246E+01  0.2246E+01
      4.211  0.6632E+00  0.6622E+00  0.2306E+01  0.2306E+01
      4.302  0.7521E+00  0.7513E+00  0.2374E+01  0.2374E+01
      4.392  0.7906E+00  0.7905E+00  0.2446E+01  0.2445E+01
      4.483  0.8248E+00  0.8242E+00  0.2521E+01  0.2520E+01
      4.573  0.9031E+00  0.9029E+00  0.2603E+01  0.2602E+01
      4.664  0.8864E+00  0.8865E+00  0.2683E+01  0.2682E+01
      4.754  0.9705E+00  0.9683E+00  0.2771E+01  0.2770E+01
      4.845  0.1175E+01  0.1173E+01  0.2877E+01  0.2876E+01
      4.936  0.1377E+01  0.1376E+01  0.3002E+01  0.3001E+01
      5.026  0.1397E+01  0.1396E+01  0.3129E+01  0.3127E+01
      5.117  0.1587E+01  0.1584E+01  0.3272E+01  0.3271E+01
      5.207  0.1898E+01  0.1894E+01  0.3444E+01  0.3442E+01
      5.298  0.2489E+01  0.2479E+01  0.3670E+01  0.3667E+01
      5.388  0.3577E+01  0.3559E+01  0.3994E+01  0.3989E+01
      5.479  0.4552E+01  0.4536E+01  0.4406E+01  0.4400E+01
      5.569  0.5019E+01  0.5014E+01  0.4861E+01  0.4854E+01
      5.660  0.4561E+01  0.4572E+01  0.5274E+01  0.5269E+01
      5.750  0.3473E+01  0.3488E+01  0.5589E+01  0.5585E+01
      5.841  0.2581E+01  0.2592E+01  0.5823E+01  0.5820E+01
      5.932  0.1757E+01  0.1772E+01  0.5983E+01  0.5981E+01
      6.022  0.1128E+01  0.1135E+01  0.6085E+01  0.6084E+01
      6.113  0.1874E+01  0.1862E+01  0.6255E+01  0.6253E+01
      6.203  0.3765E+01  0.3752E+01  0.6596E+01  0.6593E+01
      6.294  0.3733E+01  0.3739E+01  0.6935E+01  0.6932E+01
      6.384  0.2654E+01  0.2661E+01  0.7175E+01  0.7173E+01
      6.475  0.1910E+01  0.1916E+01  0.7348E+01  0.7346E+01
      6.565  0.1513E+01  0.1515E+01  0.7485E+01  0.7484E+01
      6.656  0.1391E+01  0.1392E+01  0.7612E+01  0.7610E+01
      6.747  0.1196E+01  0.1199E+01  0.7720E+01  0.7719E+01
      6.837  0.9761E+00  0.9781E+00  0.7809E+01  0.7808E+01
      6.928  0.8055E+00  0.8077E+00  0.7882E+01  0.7881E+01
      7.018  0.7621E+00  0.7602E+00  0.7951E+01  0.7950E+01
      7.109  0.1026E+01  0.1024E+01  0.8044E+01  0.8043E+01
      7.199  0.1022E+01  0.1024E+01  0.8137E+01  0.8136E+01
      7.290  0.6816E+00  0.6859E+00  0.8198E+01  0.8198E+01
      7.380  0.4280E+00  0.4292E+00  0.8237E+01  0.8237E+01
      7.471  0.4887E+00  0.4863E+00  0.8281E+01  0.8281E+01
      7.562  0.7012E+00  0.7000E+00  0.8345E+01  0.8344E+01
      7.652  0.6716E+00  0.6726E+00  0.8406E+01  0.8405E+01
      7.743  0.6594E+00  0.6585E+00  0.8466E+01  0.8465E+01
      7.833  0.7741E+00  0.7733E+00  0.8536E+01  0.8535E+01
      7.924  0.6840E+00  0.6862E+00  0.8598E+01  0.8597E+01
      8.014  0.5462E+00  0.5463E+00  0.8647E+01  0.8647E+01
      8.105  0.5947E+00  0.5939E+00  0.8701E+01  0.8701E+01
      8.195  0.5908E+00  0.5917E+00  0.8755E+01  0.8754E+01
      8.286  0.5245E+00  0.5247E+00  0.8802E+01  0.8802E+01
      8.376  0.6580E+00  0.6546E+00  0.8862E+01  0.8861E+01
      8.467  0.9995E+00  0.9970E+00  0.8953E+01  0.8951E+01
      8.558  0.8846E+00  0.8890E+00  0.9033E+01  0.9032E+01
      8.648  0.5946E+00  0.5955E+00  0.9087E+01  0.9086E+01
      8.739  0.7089E+00  0.7073E+00  0.9151E+01  0.9150E+01
      8.829  0.7235E+00  0.7242E+00  0.9216E+01  0.9216E+01
      8.920  0.7410E+00  0.7399E+00  0.9284E+01  0.9283E+01
      9.010  0.7804E+00  0.7809E+00  0.9354E+01  0.9354E+01
      9.101  0.7044E+00  0.7054E+00  0.9418E+01  0.9418E+01
      9.191  0.6203E+00  0.6213E+00  0.9474E+01  0.9474E+01
      9.282  0.5498E+00  0.5504E+00  0.9524E+01  0.9524E+01
      9.373  0.5503E+00  0.5499E+00  0.9574E+01  0.9574E+01
      9.463  0.6328E+00  0.6313E+00  0.9632E+01  0.9631E+01
      9.554  0.7914E+00  0.7903E+00  0.9703E+01  0.9702E+01
      9.644  0.7893E+00  0.7898E+00  0.9775E+01  0.9774E+01
      9.735  0.8756E+00  0.8738E+00  0.9854E+01  0.9853E+01
      9.825  0.8948E+00  0.8965E+00  0.9935E+01  0.9934E+01
      9.916  0.6286E+00  0.6321E+00  0.9992E+01  0.9992E+01
     10.006  0.4346E+00  0.4349E+00  0.1003E+02  0.1003E+02
     10.097  0.5336E+00  0.5319E+00  0.1008E+02  0.1008E+02
     10.188  0.6481E+00  0.6473E+00  0.1014E+02  0.1014E+02
     10.278  0.7054E+00  0.7051E+00  0.1020E+02  0.1020E+02
     10.369  0.7203E+00  0.7200E+00  0.1027E+02  0.1027E+02
     10.459  0.8017E+00  0.8004E+00  0.1034E+02  0.1034E+02
     10.550  0.8829E+00  0.8832E+00  0.1042E+02  0.1042E+02
     10.640  0.7738E+00  0.7754E+00  0.1049E+02  0.1049E+02
     10.731  0.6112E+00  0.6130E+00  0.1055E+02  0.1055E+02
     10.821  0.5072E+00  0.5073E+00  0.1059E+02  0.1059E+02
     10.912  0.5988E+00  0.5975E+00  0.1065E+02  0.1065E+02
     11.002  0.6665E+00  0.6668E+00  0.1071E+02  0.1071E+02
     11.093  0.6055E+00  0.6062E+00  0.1076E+02  0.1076E+02
     11.184  0.5543E+00  0.5550E+00  0.1081E+02  0.1081E+02
     11.274  0.5371E+00  0.5364E+00  0.1086E+02  0.1086E+02
     11.365  0.6495E+00  0.6487E+00  0.1092E+02  0.1092E+02
     11.455  0.7324E+00  0.7315E+00  0.1099E+02  0.1099E+02
     11.546  0.8023E+00  0.8019E+00  0.1106E+02  0.1106E+02
     11.636  0.7584E+00  0.7595E+00  0.1113E+02  0.1113E+02
     11.727  0.6430E+00  0.6439E+00  0.1119E+02  0.1119E+02
     11.817  0.6394E+00  0.6389E+00  0.1124E+02  0.1124E+02
     11.908  0.7314E+00  0.7300E+00  0.1131E+02  0.1131E+02
     11.999  0.7891E+00  0.7895E+00  0.1138E+02  0.1138E+02
     12.089  0.6968E+00  0.6974E+00  0.1144E+02  0.1144E+02
     12.180  0.7881E+00  0.7870E+00  0.1152E+02  0.1152E+02
     12.270  0.8247E+00  0.8249E+00  0.1159E+02  0.1159E+02
     12.361  0.8156E+00  0.8157E+00  0.1166E+02  0.1166E+02
     12.451  0.8102E+00  0.8098E+00  0.1174E+02  0.1174E+02
     12.542  0.9329E+00  0.9315E+00  0.1182E+02  0.1182E+02
     12.632  0.9697E+00  0.9708E+00  0.1191E+02  0.1191E+02
     12.723  0.8054E+00  0.8073E+00  0.1198E+02  0.1198E+02
     12.814  0.5720E+00  0.5734E+00  0.1204E+02  0.1203E+02
     12.904  0.6156E+00  0.6134E+00  0.1209E+02  0.1209E+02
     12.995  0.7728E+00  0.7727E+00  0.1216E+02  0.1216E+02
     13.085  0.7216E+00  0.7218E+00  0.1223E+02  0.1223E+02
     13.176  0.8653E+00  0.8632E+00  0.1231E+02  0.1230E+02
     13.266  0.9789E+00  0.9793E+00  0.1239E+02  0.1239E+02
     13.357  0.7962E+00  0.7988E+00  0.1247E+02  0.1247E+02
     13.447  0.5982E+00  0.5994E+00  0.1252E+02  0.1252E+02
     13.538  0.5405E+00  0.5401E+00  0.1257E+02  0.1257E+02
     13.629  0.6786E+00  0.6762E+00  0.1263E+02  0.1263E+02
     13.719  0.8637E+00  0.8632E+00  0.1271E+02  0.1271E+02
     13.810  0.7618E+00  0.7637E+00  0.1278E+02  0.1278E+02
     13.900  0.6756E+00  0.6750E+00  0.1284E+02  0.1284E+02
     13.991  0.8734E+00  0.8714E+00  0.1292E+02  0.1292E+02
     14.081  0.9477E+00  0.9484E+00  0.1300E+02  0.1300E+02
     14.172  0.7694E+00  0.7715E+00  0.1307E+02  0.1307E+02
     14.262  0.6056E+00  0.6063E+00  0.1313E+02  0.1313E+02
     14.353  0.5887E+00  0.5890E+00  0.1318E+02  0.1318E+02
     14.443  0.6333E+00  0.6323E+00  0.1324E+02  0.1324E+02
     14.534  0.8138E+00  0.8126E+00  0.1331E+02  0.1331E+02
     14.625  0.8504E+00  0.8500E+00  0.1339E+02  0.1339E+02
     14.715  0.9155E+00  0.9147E+00  0.1347E+02  0.1347E+02
     14.806  0.8692E+00  0.8698E+00  0.1355E+02  0.1355E+02
     14.896  0.8724E+00  0.8718E+00  0.1363E+02  0.1363E+02
     14.987  0.9520E+00  0.9522E+00  0.1372E+02  0.1372E+02
     15.077  0.7991E+00  0.8014E+00  0.1379E+02  0.1379E+02
     15.168  0.6627E+00  0.6624E+00  0.1385E+02  0.1385E+02
     15.258  0.7761E+00  0.7751E+00  0.1392E+02  0.1392E+02
     15.349  0.7367E+00  0.7375E+00  0.1399E+02  0.1399E+02
     15.440  0.6539E+00  0.6542E+00  0.1405E+02  0.1405E+02
     15.530  0.6559E+00  0.6558E+00  0.1411E+02  0.1411E+02
     15.621  0.7830E+00  0.7813E+00  0.1418E+02  0.1418E+02
     15.711  0.9216E+00  0.9214E+00  0.1426E+02  0.1426E+02
     15.802  0.8443E+00  0.8451E+00  0.1434E+02  0.1434E+02
     15.892  0.8883E+00  0.8876E+00  0.1442E+02  0.1442E+02
     15.983  0.1030E+01  0.1035E+01  0.1451E+02  0.1451E+02
     16.073  0.8678E+00  0.8808E+00  0.1459E+02  0.1459E+02
     16.164  0.8799E+00  0.8855E+00  0.1467E+02  0.1467E+02
     16.255  0.1025E+01  0.1022E+01  0.1476E+02  0.1476E+02
     16.345  0.1007E+01  0.9948E+00  0.1485E+02  0.1485E+02
     16.436  0.8528E+00  0.8489E+00  0.1493E+02  0.1493E+02
     16.526  0.6565E+00  0.6568E+00  0.1499E+02  0.1499E+02
     16.617  0.7377E+00  0.7364E+00  0.1506E+02  0.1506E+02
     16.707  0.7566E+00  0.7602E+00  0.1513E+02  0.1513E+02
     16.798  0.6841E+00  0.6893E+00  0.1519E+02  0.1519E+02
     16.888  0.5152E+00  0.4942E+00  0.1523E+02  0.1523E+02
     16.979  0.4130E+00  0.3920E+00  0.1527E+02  0.1527E+02
     17.069  0.4609E+00  0.5055E+00  0.1531E+02  0.1531E+02
     17.160  0.4260E+00  0.4869E+00  0.1535E+02  0.1536E+02
     17.251  0.3888E+00  0.3908E+00  0.1539E+02  0.1539E+02
     17.341  0.3976E+00  0.3605E+00  0.1542E+02  0.1543E+02
     17.432  0.2891E+00  0.2839E+00  0.1545E+02  0.1545E+02
     17.522  0.2295E+00  0.2592E+00  0.1547E+02  0.1548E+02
     17.613  0.3155E+00  0.3348E+00  0.1550E+02  0.1551E+02
     17.703  0.4254E+00  0.4229E+00  0.1554E+02  0.1554E+02
     17.794  0.4049E+00  0.3855E+00  0.1557E+02  0.1558E+02
     17.884  0.3000E+00  0.2678E+00  0.1560E+02  0.1560E+02
     17.975  0.2020E+00  0.1839E+00  0.1562E+02  0.1562E+02
     18.066  0.1696E+00  0.1650E+00  0.1564E+02  0.1564E+02
     18.156  0.2255E+00  0.2245E+00  0.1566E+02  0.1566E+02
     18.247  0.2456E+00  0.2467E+00  0.1568E+02  0.1568E+02
     18.337  0.1961E+00  0.2017E+00  0.1570E+02  0.1570E+02
     18.428  0.1436E+00  0.1588E+00  0.1571E+02  0.1571E+02
     18.518  0.1491E+00  0.1485E+00  0.1572E+02  0.1572E+02
     18.609  0.1229E+00  0.1085E+00  0.1573E+02  0.1573E+02
     18.699  0.8899E-01  0.8412E-01  0.1574E+02  0.1574E+02
     18.790  0.1132E+00  0.1121E+00  0.1575E+02  0.1575E+02
     18.881  0.8568E-01  0.8518E-01  0.1576E+02  0.1576E+02
     18.971  0.8808E-01  0.8584E-01  0.1577E+02  0.1577E+02
     19.062  0.1297E+00  0.1284E+00  0.1578E+02  0.1578E+02
     19.152  0.1694E+00  0.1662E+00  0.1579E+02  0.1579E+02
     19.243  0.2376E+00  0.2331E+00  0.1582E+02  0.1582E+02
     19.333  0.1872E+00  0.1940E+00  0.1583E+02  0.1583E+02
     19.424  0.1541E+00  0.1581E+00  0.1585E+02  0.1585E+02
     19.514  0.8907E-01  0.9039E-01  0.1586E+02  0.1586E+02
     19.605  0.2475E-01  0.2504E-01  0.1586E+02  0.1586E+02
     19.695  0.1586E-01  0.1534E-01  0.1586E+02  0.1586E+02
     19.786  0.5292E-01  0.5020E-01  0.1586E+02  0.1586E+02
     19.877  0.1136E+00  0.1060E+00  0.1587E+02  0.1587E+02
     19.967  0.9936E-01  0.9715E-01  0.1588E+02  0.1588E+02
     20.058  0.4554E-01  0.5448E-01  0.1589E+02  0.1589E+02
     20.148  0.5844E-01  0.6374E-01  0.1589E+02  0.1589E+02
     20.239  0.1449E+00  0.1475E+00  0.1591E+02  0.1591E+02
     20.329  0.1429E+00  0.1405E+00  0.1592E+02  0.1592E+02
     20.420  0.1183E+00  0.1155E+00  0.1593E+02  0.1593E+02
     20.510  0.1080E+00  0.1057E+00  0.1594E+02  0.1594E+02
     20.601  0.4969E-01  0.5006E-01  0.1594E+02  0.1594E+02
     20.692  0.1469E-01  0.1721E-01  0.1595E+02  0.1595E+02
     20.782  0.6872E-02  0.7386E-02  0.1595E+02  0.1595E+02
     20.873  0.2233E-01  0.2109E-01  0.1595E+02  0.1595E+02
     20.963  0.7309E-01  0.7131E-01  0.1595E+02  0.1595E+02
     21.054  0.9230E-01  0.9404E-01  0.1596E+02  0.1596E+02
     21.144  0.4243E-01  0.4398E-01  0.1597E+02  0.1597E+02
     21.235  0.2447E-01  0.2520E-01  0.1597E+02  0.1597E+02
     21.325  0.4745E-01  0.4784E-01  0.1597E+02  0.1597E+02
     21.416  0.4039E-01  0.3989E-01  0.1598E+02  0.1598E+02
     21.507  0.1190E-01  0.1162E-01  0.1598E+02  0.1598E+02
     21.597  0.2513E-02  0.2295E-02  0.1598E+02  0.1598E+02
     21.688  0.2273E-02  0.1289E-02  0.1598E+02  0.1598E+02
     21.778  0.1024E-01  0.5279E-02  0.1598E+02  0.1598E+02
     21.869  0.3493E-01  0.2243E-01  0.1598E+02  0.1598E+02
     21.959  0.4550E-01  0.4620E-01  0.1599E+02  0.1598E+02
     22.050  0.2185E-01  0.3412E-01  0.1599E+02  0.1599E+02
     22.140  0.6512E-02  0.1091E-01  0.1599E+02  0.1599E+02
     22.231  0.8909E-02  0.8925E-02  0.1599E+02  0.1599E+02
     22.321  0.2961E-01  0.2744E-01  0.1599E+02  0.1599E+02
     22.412  0.4398E-01  0.4272E-01  0.1600E+02  0.1600E+02
     22.503  0.2729E-01  0.2935E-01  0.1600E+02  0.1600E+02
     22.593  0.8210E-02  0.1020E-01  0.1600E+02  0.1600E+02
     22.684  0.1567E-02  0.2066E-02  0.1600E+02  0.1600E+02
     22.774  0.2012E-03  0.2812E-03  0.1600E+02  0.1600E+02
     22.865  0.0000E+00  0.0000E+00  0.1600E+02  0.1600E+02
     22.955  0.0000E+00  0.0000E+00  0.1600E+02  0.1600E+02
     23.046  0.0000E+00  0.0000E+00  0.1600E+02  0.1600E+02
     23.136  0.0000E+00  0.0000E+00  0.1600E+02  0.1600E+02
     23.227  0.0000E+00  0.0000E+00  0.1600E+02  0.1600E+02
     23.318  0.0000E+00  0.0000E+00  0.1600E+02  0.1600E+02
     23.408  0.0000E+00  0.0000E+00  0.1600E+02  0.1600E+02
     23.499  0.0000E+00  0.0000E+00  0.1600E+02  0.1600E+02
     23.589  0.0000E+00  0.0000E+00  0.1600E+02  0.1600E+02
     23.680  0.0000E+00  0.0000E+00  0.1600E+02  0.1600E+02
     23.67974777     -3.48578356  301      9.93338833      1.00000000
     -3.486  0.0000E+00  0.0000E+00  0.0000E+00  0.0000E+00  0.0000E+00  0.0000E+00  0.0000E+00  0.0000E+00  0.0000E+00  0.0000E+00  0.0000E+00  0.0000E+00  0.0000E+00  0.0000E+00  0.0000E+00  0.0000E+00  0.0000E+00  0.0000E+00
     -3.395  0.0000E+00  0.0000E+00  0.0000E+00  0.0000E+00  0.0000E+00  0.0000E+00  0.0000E+00  0.0000E+00  0.0000E+00  0.0000E+00  0.0000E+00  0.0000E+00  0.0000E+00  0.0000E+00  0.0000E+00  0.0000E+00  0.0000E+00  0.0000E+00
     -3.305  0.0000E+00  0.0000E+00  0.0000E+00  0.0000E+00  0.0000E+00  0.0000E+00  0.0000E+00  0.0000E+00  0.0000E+00  0.0000E+00  0.0000E+00  0.0000E+00  0.0000E+00  0.0000E+00  0.0000E+00  0.0000E+00  0.0000E+00  0.0000E+00
     -3.214  0.0000E+00  0.0000E+00  0.0000E+00  0.0000E+00  0.0000E+00  0.0000E+00  0.0000E+00  0.0000E+00  0.0000E+00  0.0000E+00  0.0000E+00  0.0000E+00  0.0000E+00  0.0000E+00  0.0000E+00  0.0000E+00  0.0000E+00  0.0000E+00
     -3.124  0.0000E+00  0.0000E+00  0.0000E+00  0.0000E+00  0.0000E+00  0.0000E+00  0.0000E+00  0.0000E+00  0.0000E+00  0.0000E+00  0.0000E+00  0.0000E+00  0.0000E+00  0.0000E+00  0.0000E+00  0.0000E+00  0.0000E+00  0.0000E+00
     -3.033  0.0000E+00  0.0000E+00  0.0000E+00  0.0000E+00  0.0000E+00  0.0000E+00  0.0000E+00  0.0000E+00  0.0000E+00  0.0000E+00  0.0000E+00  0.0000E+00  0.0000E+00  0.0000E+00  0.0000E+00  0.0000E+00  0.0000E+00  0.0000E+00
     -2.942  0.0000E+00  0.0000E+00  0.0000E+00  0.0000E+00  0.0000E+00  0.0000E+00  0.0000E+00  0.0000E+00  0.0000E+00  0.0000E+00  0.0000E+00  0.0000E+00  0.0000E+00  0.0000E+00  0.0000E+00  0.0000E+00  0.0000E+00  0.0000E+00
     -2.852  0.0000E+00  0.0000E+00  0.0000E+00  0.0000E+00  0.0000E+00  0.0000E+00  0.0000E+00  0.0000E+00  0.0000E+00  0.0000E+00  0.0000E+00  0.0000E+00  0.0000E+00  0.0000E+00  0.0000E+00  0.0000E+00  0.0000E+00  0.0000E+00
     -2.761  0.0000E+00  0.0000E+00  0.0000E+00  0.0000E+00  0.0000E+00  0.0000E+00  0.0000E+00  0.0000E+00  0.0000E+00  0.0000E+00  0.0000E+00  0.0000E+00  0.0000E+00  0.0000E+00  0.0000E+00  0.0000E+00  0.0000E+00  0.0000E+00
     -2.671  0.3073E-06  0.3015E-06  0.4395E-09  0.4314E-09  0.4395E-09  0.4314E-09  0.4395E-09  0.4312E-09  0.1430E-14  0.1073E-14  0.1100E-14  0.2740E-15  0.1821E-11  0.1714E-11  0.1430E-14  0.1073E-14  0.2338E-11  0.2200E-11
     -2.580  0.2232E-05  0.2190E-05  0.5275E-08  0.5176E-08  0.5275E-08  0.5176E-08  0.5275E-08  0.5175E-08  0.2187E-10  0.2134E-10  0.2187E-10  0.2134E-10  0.1688E-10  0.1614E-10  0.2187E-10  0.2134E-10  0.1785E-10  0.1698E-10
     -2.490  0.1370E-04  0.1345E-04  0.3441E-07  0.3377E-07  0.3441E-07  0.3377E-07  0.3441E-07  0.3376E-07  0.1875E-09  0.1838E-09  0.1876E-09  0.1837E-09  0.9553E-10  0.9120E-10  0.1875E-09  0.1838E-09  0.1031E-09  0.9796E-10
     -2.399  0.8349E-04  0.8196E-04  0.2257E-06  0.2215E-06  0.2257E-06  0.2215E-06  0.2256E-06  0.2214E-06  0.1223E-08  0.1199E-08  0.1223E-08  0.1199E-08  0.8671E-09  0.8355E-09  0.1223E-08  0.1199E-08  0.9772E-09  0.9399E-09
     -2.309  0.4601E-03  0.4524E-03  0.1330E-05  0.1306E-05  0.1330E-05  0.1306E-05  0.1329E-05  0.1305E-05  0.7827E-08  0.7672E-08  0.7822E-08  0.7672E-08  0.4975E-08  0.4799E-08  0.7827E-08  0.7672E-08  0.5590E-08  0.5382E-08
     -2.218  0.1899E-02  0.1875E-02  0.6642E-05  0.6543E-05  0.6642E-05  0.6543E-05  0.6642E-05  0.6541E-05  0.4369E-07  0.4290E-07  0.4367E-07  0.4290E-07  0.2512E-07  0.2436E-07  0.4369E-07  0.4290E-07  0.2789E-07  0.2701E-07
     -2.128  0.4612E-02  0.4583E-02  0.2207E-04  0.2185E-04  0.2207E-04  0.2185E-04  0.2207E-04  0.2185E-04  0.1878E-06  0.1854E-06  0.1877E-06  0.1854E-06  0.9444E-07  0.9257E-07  0.1878E-06  0.1854E-06  0.1056E-06  0.1034E-06
     -2.037  0.6623E-02  0.6606E-02  0.4779E-04  0.4744E-04  0.4779E-04  0.4744E-04  0.4777E-04  0.4742E-04  0.5231E-06  0.5185E-06  0.5220E-06  0.5186E-06  0.3219E-06  0.3169E-06  0.5231E-06  0.5185E-06  0.3814E-06  0.3756E-06
     -1.946  0.8985E-02  0.8950E-02  0.9600E-04  0.9534E-04  0.9600E-04  0.9534E-04  0.9598E-04  0.9532E-04  0.1356E-05  0.1342E-05  0.1350E-05  0.1342E-05  0.8944E-06  0.8838E-06  0.1356E-05  0.1342E-05  0.1073E-05  0.1060E-05
     -1.856  0.1111E-01  0.1111E-01  0.1455E-03  0.1452E-03  0.1455E-03  0.1452E-03  0.1455E-03  0.1452E-03  0.2791E-05  0.2768E-05  0.2774E-05  0.2767E-05  0.1351E-05  0.1342E-05  0.2791E-05  0.2768E-05  0.1594E-05  0.1585E-05
     -1.765  0.9728E-02  0.9731E-02  0.1622E-03  0.1617E-03  0.1622E-03  0.1617E-03  0.1622E-03  0.1617E-03  0.4225E-05  0.4182E-05  0.4213E-05  0.4182E-05  0.1866E-05  0.1848E-05  0.4225E-05  0.4182E-05  0.2082E-05  0.2064E-05
     -1.675  0.1228E-01  0.1224E-01  0.2610E-03  0.2596E-03  0.2610E-03  0.2596E-03  0.2608E-03  0.2594E-03  0.7541E-05  0.7469E-05  0.7540E-05  0.7469E-05  0.4308E-05  0.4265E-05  0.7541E-05  0.7469E-05  0.4950E-05  0.4897E-05
     -1.584  0.1477E-01  0.1477E-01  0.3562E-03  0.3557E-03  0.3562E-03  0.3557E-03  0.3561E-03  0.3557E-03  0.1026E-04  0.1018E-04  0.1026E-04  0.1018E-04  0.7512E-05  0.7470E-05  0.1026E-04  0.1018E-04  0.9081E-05  0.9026E-05
     -1.494  0.1369E-01  0.1371E-01  0.3781E-03  0.3778E-03  0.3781E-03  0.3778E-03  0.3783E-03  0.3780E-03  0.1451E-04  0.1437E-04  0.1451E-04  0.1437E-04  0.7874E-05  0.7845E-05  0.1451E-04  0.1437E-04  0.9405E-05  0.9375E-05
     -1.403  0.1475E-01  0.1473E-01  0.4707E-03  0.4694E-03  0.4707E-03  0.4694E-03  0.4706E-03  0.4693E-03  0.2430E-04  0.2410E-04  0.2431E-04  0.2410E-04  0.9168E-05  0.9108E-05  0.2430E-04  0.2410E-04  0.1023E-04  0.1016E-04
     -1.313  0.1478E-01  0.1481E-01  0.5175E-03  0.5181E-03  0.5175E-03  0.5181E-03  0.5174E-03  0.5180E-03  0.2848E-04  0.2842E-04  0.2846E-04  0.2841E-04  0.1153E-04  0.1149E-04  0.2848E-04  0.2842E-04  0.1313E-04  0.1306E-04
     -1.222  0.1320E-01  0.1319E-01  0.5394E-03  0.5378E-03  0.5394E-03  0.5378E-03  0.5386E-03  0.5370E-03  0.2830E-04  0.2815E-04  0.2830E-04  0.2817E-04  0.1785E-04  0.1776E-04  0.2830E-04  0.2815E-04  0.2166E-04  0.2155E-04
     -1.131  0.1822E-01  0.1818E-01  0.8236E-03  0.8211E-03  0.8236E-03  0.8211E-03  0.8231E-03  0.8206E-03  0.4706E-04  0.4683E-04  0.4711E-04  0.4689E-04  0.3055E-04  0.3052E-04  0.4706E-04  0.4683E-04  0.3674E-04  0.3672E-04
     -1.041  0.1889E-01  0.1890E-01  0.9147E-03  0.9144E-03  0.9147E-03  0.9144E-03  0.9148E-03  0.9147E-03  0.6255E-04  0.6239E-04  0.6259E-04  0.6242E-04  0.3361E-04  0.3371E-04  0.6255E-04  0.6239E-04  0.3866E-04  0.3879E-04
     -0.950  0.1831E-01  0.1831E-01  0.9679E-03  0.9670E-03  0.9679E-03  0.9670E-03  0.9679E-03  0.9670E-03  0.7742E-04  0.7714E-04  0.7742E-04  0.7714E-04  0.3579E-04  0.3587E-04  0.7742E-04  0.7714E-04  0.4106E-04  0.4116E-04
     -0.860  0.1630E-01  0.1635E-01  0.9168E-03  0.9189E-03  0.9168E-03  0.9189E-03  0.9178E-03  0.9198E-03  0.8689E-04  0.8672E-04  0.8683E-04  0.8666E-04  0.3048E-04  0.3065E-04  0.8689E-04  0.8672E-04  0.3527E-04  0.3548E-04
     -0.769  0.1281E-01  0.1281E-01  0.8026E-03  0.8012E-03  0.8026E-03  0.8012E-03  0.8017E-03  0.8003E-03  0.8611E-04  0.8574E-04  0.8618E-04  0.8580E-04  0.2885E-04  0.2869E-04  0.8611E-04  0.8574E-04  0.3351E-04  0.3332E-04
     -0.679  0.1745E-01  0.1737E-01  0.1232E-02  0.1226E-02  0.1232E-02  0.1226E-02  0.1229E-02  0.1223E-02  0.1264E-03  0.1256E-03  0.1266E-03  0.1258E-03  0.6091E-04  0.6041E-04  0.1264E-03  0.1256E-03  0.7071E-04  0.7013E-04
     -0.588  0.2219E-01  0.2219E-01  0.1672E-02  0.1670E-02  0.1672E-02  0.1670E-02  0.1671E-02  0.1670E-02  0.1657E-03  0.1653E-03  0.1656E-03  0.1652E-03  0.9404E-04  0.9392E-04  0.1657E-03  0.1653E-03  0.1107E-03  0.1105E-03
     -0.498  0.1948E-01  0.1950E-01  0.1570E-02  0.1570E-02  0.1570E-02  0.1570E-02  0.1571E-02  0.1571E-02  0.1742E-03  0.1736E-03  0.1742E-03  0.1735E-03  0.8810E-04  0.8817E-04  0.1742E-03  0.1736E-03  0.1057E-03  0.1058E-03
     -0.407  0.2042E-01  0.2042E-01  0.1765E-02  0.1763E-02  0.1765E-02  0.1763E-02  0.1764E-02  0.1763E-02  0.2260E-03  0.2253E-03  0.2261E-03  0.2254E-03  0.9752E-04  0.9741E-04  0.2260E-03  0.2253E-03  0.1166E-03  0.1165E-03
     -0.316  0.1607E-01  0.1614E-01  0.1466E-02  0.1471E-02  0.1466E-02  0.1471E-02  0.1469E-02  0.1474E-02  0.2013E-03  0.2014E-03  0.2013E-03  0.2014E-03  0.8636E-04  0.8671E-04  0.2013E-03  0.2014E-03  0.1012E-03  0.1017E-03
     -0.226  0.1442E-01  0.1437E-01  0.1428E-02  0.1423E-02  0.1428E-02  0.1423E-02  0.1427E-02  0.1421E-02  0.2540E-03  0.2523E-03  0.2543E-03  0.2527E-03  0.7802E-04  0.7793E-04  0.2540E-03  0.2523E-03  0.8533E-04  0.8528E-04
     -0.135  0.1972E-01  0.1967E-01  0.2115E-02  0.2109E-02  0.2115E-02  0.2109E-02  0.2111E-02  0.2105E-02  0.4051E-03  0.4037E-03  0.4052E-03  0.4038E-03  0.1110E-03  0.1109E-03  0.4051E-03  0.4037E-03  0.1219E-03  0.1218E-03
     -0.045  0.2002E-01  0.2005E-01  0.2474E-02  0.2473E-02  0.2474E-02  0.2473E-02  0.2469E-02  0.2468E-02  0.4309E-03  0.4312E-03  0.4306E-03  0.4309E-03  0.1382E-03  0.1385E-03  0.4309E-03  0.4312E-03  0.1574E-03  0.1577E-03
      0.046  0.1676E-01  0.1678E-01  0.2540E-02  0.2539E-02  0.2540E-02  0.2539E-02  0.2537E-02  0.2536E-02  0.3826E-03  0.3826E-03  0.3824E-03  0.3824E-03  0.1502E-03  0.1505E-03  0.3826E-03  0.3826E-03  0.1786E-03  0.1790E-03
      0.136  0.1488E-01  0.1490E-01  0.2536E-02  0.2536E-02  0.2536E-02  0.2536E-02  0.2536E-02  0.2536E-02  0.4155E-03  0.4148E-03  0.4159E-03  0.4152E-03  0.1515E-03  0.1519E-03  0.4155E-03  0.4148E-03  0.1827E-03  0.1831E-03
      0.227  0.1512E-01  0.1508E-01  0.2839E-02  0.2832E-02  0.2839E-02  0.2832E-02  0.2836E-02  0.2829E-02  0.5531E-03  0.5501E-03  0.5541E-03  0.5512E-03  0.1691E-03  0.1689E-03  0.5531E-03  0.5501E-03  0.1974E-03  0.1974E-03
      0.317  0.1844E-01  0.1843E-01  0.3232E-02  0.3232E-02  0.3232E-02  0.3232E-02  0.3237E-02  0.3237E-02  0.8253E-03  0.8229E-03  0.8255E-03  0.8234E-03  0.1833E-03  0.1836E-03  0.8253E-03  0.8229E-03  0.2012E-03  0.2016E-03
      0.408  0.1696E-01  0.1699E-01  0.3053E-02  0.3053E-02  0.3053E-02  0.3053E-02  0.3051E-02  0.3052E-02  0.9077E-03  0.9073E-03  0.9075E-03  0.9072E-03  0.1651E-03  0.1655E-03  0.9077E-03  0.9073E-03  0.1807E-03  0.1810E-03
      0.498  0.1519E-01  0.1521E-01  0.3195E-02  0.3193E-02  0.3195E-02  0.3193E-02  0.3192E-02  0.3191E-02  0.9997E-03  0.9991E-03  0.1000E-02  0.9993E-03  0.1721E-03  0.1725E-03  0.9997E-03  0.9991E-03  0.1925E-03  0.1929E-03
      0.589  0.1161E-01  0.1167E-01  0.2637E-02  0.2649E-02  0.2637E-02  0.2649E-02  0.2645E-02  0.2657E-02  0.8826E-03  0.8862E-03  0.8806E-03  0.8841E-03  0.1422E-03  0.1433E-03  0.8826E-03  0.8862E-03  0.1588E-03  0.1599E-03
      0.680  0.8332E-02  0.8324E-02  0.2020E-02  0.2018E-02  0.2020E-02  0.2018E-02  0.2020E-02  0.2018E-02  0.7987E-03  0.7966E-03  0.7991E-03  0.7970E-03  0.1087E-03  0.1088E-03  0.7987E-03  0.7966E-03  0.1239E-03  0.1238E-03
      0.770  0.1199E-01  0.1193E-01  0.2587E-02  0.2580E-02  0.2587E-02  0.2580E-02  0.2586E-02  0.2579E-02  0.1221E-02  0.1216E-02  0.1224E-02  0.1219E-02  0.1860E-03  0.1848E-03  0.1221E-02  0.1216E-02  0.2099E-03  0.2085E-03
      0.861  0.1795E-01  0.1790E-01  0.3234E-02  0.3228E-02  0.3234E-02  0.3228E-02  0.3227E-02  0.3222E-02  0.1665E-02  0.1662E-02  0.1668E-02  0.1665E-02  0.4375E-03  0.4342E-03  0.1665E-02  0.1662E-02  0.5104E-03  0.5062E-03
      0.951  0.2226E-01  0.2223E-01  0.3454E-02  0.3456E-02  0.3454E-02  0.3456E-02  0.3452E-02  0.3454E-02  0.1746E-02  0.1747E-02  0.1745E-02  0.1746E-02  0.8067E-03  0.8044E-03  0.1746E-02  0.1747E-02  0.9848E-03  0.9816E-03
      1.042  0.2238E-01  0.2240E-01  0.3134E-02  0.3139E-02  0.3134E-02  0.3139E-02  0.3139E-02  0.3144E-02  0.1631E-02  0.1632E-02  0.1628E-02  0.1630E-02  0.9087E-03  0.9092E-03  0.1631E-02  0.1632E-02  0.1123E-02  0.1124E-02