   4   4   1   0
  0.1429245E+02  0.3851730E-09  0.3852613E-09  0.3852613E-09  0.5000000E-15
  1.000000000000000E-004
  CAR 
 unknown system                          
     22.69271219     -3.87045423  301      8.81996139      1.00000000
     -3.870  0.0000E+00  0.0000E+00  0.0000E+00  0.0000E+00
     -3.782  0.0000E+00  0.0000E+00  0.0000E+00  0.0000E+00
     -3.693  0.0000E+00  0.0000E+00  0.0000E+00  0.0000E+00
     -3.605  0.0000E+00  0.0000E+00  0.0000E+00  0.0000E+00
     -3.516  0.0000E+00  0.0000E+00  0.0000E+00  0.0000E+00
     -3.428  0.0000E+00  0.0000E+00  0.0000E+00  0.0000E+00
     -3.339  0.0000E+00  0.0000E+00  0.0000E+00  0.0000E+00
     -3.251  0.0000E+00  0.0000E+00  0.0000E+00  0.0000E+00
     -3.162  0.0000E+00  0.0000E+00  0.0000E+00  0.0000E+00
     -3.074  0.3957E-05  0.3885E-05  0.3504E-06  0.3440E-06
     -2.985  0.2848E-04  0.2796E-04  0.2872E-05  0.2820E-05
     -2.896  0.1711E-03  0.1680E-03  0.1802E-04  0.1770E-04
     -2.808  0.9901E-03  0.9725E-03  0.1057E-03  0.1038E-03
     -2.719  0.5260E-02  0.5175E-02  0.5714E-03  0.5620E-03
     -2.631  0.2104E-01  0.2079E-01  0.2434E-02  0.2402E-02
     -2.542  0.5019E-01  0.4989E-01  0.6878E-02  0.6820E-02
     -2.454  0.7352E-01  0.7330E-01  0.1339E-01  0.1331E-01
     -2.365  0.1026E+00  0.1023E+00  0.2247E-01  0.2236E-01
     -2.277  0.1202E+00  0.1203E+00  0.3312E-01  0.3302E-01
     -2.188  0.1135E+00  0.1134E+00  0.4318E-01  0.4306E-01
     -2.100  0.1508E+00  0.1504E+00  0.5654E-01  0.5638E-01
     -2.011  0.1684E+00  0.1684E+00  0.7145E-01  0.7130E-01
     -1.922  0.1620E+00  0.1619E+00  0.8580E-01  0.8564E-01
     -1.834  0.1828E+00  0.1827E+00  0.1020E+00  0.1018E+00
     -1.745  0.1660E+00  0.1662E+00  0.1167E+00  0.1165E+00
     -1.657  0.1919E+00  0.1912E+00  0.1337E+00  0.1335E+00
     -1.568  0.2398E+00  0.2397E+00  0.1550E+00  0.1547E+00
     -1.480  0.2356E+00  0.2357E+00  0.1758E+00  0.1756E+00
     -1.391  0.2293E+00  0.2296E+00  0.1962E+00  0.1960E+00
     -1.303  0.1839E+00  0.1842E+00  0.2124E+00  0.2123E+00
     -1.214  0.2122E+00  0.2112E+00  0.2312E+00  0.2310E+00
     -1.126  0.2997E+00  0.2992E+00  0.2578E+00  0.2575E+00
     -1.037  0.2914E+00  0.2917E+00  0.2836E+00  0.2833E+00
     -0.949  0.2949E+00  0.2947E+00  0.3097E+00  0.3095E+00
     -0.860  0.2594E+00  0.2604E+00  0.3327E+00  0.3325E+00
     -0.771  0.2239E+00  0.2234E+00  0.3526E+00  0.3523E+00
     -0.683  0.3086E+00  0.3077E+00  0.3799E+00  0.3796E+00
     -0.594  0.3495E+00  0.3495E+00  0.4109E+00  0.4105E+00
     -0.506  0.3267E+00  0.3269E+00  0.4398E+00  0.4395E+00
     -0.417  0.3094E+00  0.3095E+00  0.4672E+00  0.4669E+00
     -0.329  0.3354E+00  0.3347E+00  0.4970E+00  0.4966E+00
     -0.240  0.3777E+00  0.3777E+00  0.5304E+00  0.5301E+00
     -0.152  0.3648E+00  0.3649E+00  0.5628E+00  0.5624E+00
     -0.063  0.3555E+00  0.3558E+00  0.5943E+00  0.5940E+00
      0.025  0.2650E+00  0.2662E+00  0.6178E+00  0.6176E+00
      0.114  0.2332E+00  0.2327E+00  0.6385E+00  0.6382E+00
      0.203  0.3098E+00  0.3087E+00  0.6659E+00  0.6656E+00
      0.291  0.3910E+00  0.3904E+00  0.7006E+00  0.7002E+00
      0.380  0.4115E+00  0.4117E+00  0.7370E+00  0.7366E+00
      0.468  0.3808E+00  0.3812E+00  0.7707E+00  0.7704E+00
      0.557  0.3513E+00  0.3516E+00  0.8019E+00  0.8015E+00
      0.645  0.3324E+00  0.3322E+00  0.8313E+00  0.8310E+00
      0.734  0.4027E+00  0.4012E+00  0.8670E+00  0.8666E+00
      0.822  0.4539E+00  0.4546E+00  0.9072E+00  0.9069E+00
      0.911  0.3576E+00  0.3586E+00  0.9389E+00  0.9386E+00
      0.999  0.3106E+00  0.3106E+00  0.9665E+00  0.9662E+00
      1.088  0.3541E+00  0.3533E+00  0.9979E+00  0.9975E+00
      1.177  0.4529E+00  0.4514E+00  0.1038E+01  0.1038E+01
      1.265  0.5418E+00  0.5418E+00  0.1086E+01  0.1086E+01
      1.354  0.4840E+00  0.4851E+00  0.1129E+01  0.1129E+01
      1.442  0.3992E+00  0.3999E+00  0.1164E+01  0.1164E+01
      1.531  0.3691E+00  0.3687E+00  0.1197E+01  0.1197E+01
      1.619  0.4440E+00  0.4433E+00  0.1236E+01  0.1236E+01
      1.708  0.4907E+00  0.4909E+00  0.1280E+01  0.1279E+01
      1.796  0.4169E+00  0.4183E+00  0.1317E+01  0.1317E+01
      1.885  0.3330E+00  0.3329E+00  0.1346E+01  0.1346E+01
      1.973  0.4244E+00  0.4227E+00  0.1384E+01  0.1383E+01
      2.062  0.5431E+00  0.5424E+00  0.1432E+01  0.1432E+01
      2.151  0.5581E+00  0.5584E+00  0.1482E+01  0.1481E+01
      2.239  0.5273E+00  0.5279E+00  0.1528E+01  0.1528E+01
      2.328  0.4943E+00  0.4939E+00  0.1572E+01  0.1572E+01
      2.416  0.5878E+00  0.5864E+00  0.1624E+01  0.1623E+01
      2.505  0.6655E+00  0.6656E+00  0.1683E+01  0.1682E+01
      2.593  0.5441E+00  0.5459E+00  0.1731E+01  0.1731E+01
      2.682  0.4576E+00  0.4577E+00  0.1772E+01  0.1771E+01
      2.770  0.4417E+00  0.4413E+00  0.1811E+01  0.1811E+01
      2.859  0.5480E+00  0.5459E+00  0.1860E+01  0.1859E+01
      2.947  0.7044E+00  0.7038E+00  0.1922E+01  0.1921E+01
      3.036  0.6573E+00  0.6580E+00  0.1980E+01  0.1980E+01
      3.125  0.6855E+00  0.6837E+00  0.2041E+01  0.2040E+01
      3.213  0.8278E+00  0.8265E+00  0.2114E+01  0.2113E+01
      3.302  0.7696E+00  0.7709E+00  0.2183E+01  0.2182E+01
      3.390  0.6794E+00  0.6797E+00  0.2243E+01  0.2242E+01
      3.479  0.6527E+00  0.6520E+00  0.2301E+01  0.2300E+01
      3.567  0.7324E+00  0.7311E+00  0.2365E+01  0.2365E+01
      3.656  0.7673E+00  0.7673E+00  0.2433E+01  0.2433E+01
      3.744  0.7818E+00  0.7810E+00  0.2503E+01  0.2502E+01
      3.833  0.8639E+00  0.8625E+00  0.2579E+01  0.2578E+01
      3.921  0.8860E+00  0.8859E+00  0.2658E+01  0.2657E+01
      4.010  0.9042E+00  0.9014E+00  0.2738E+01  0.2737E+01
      4.098  0.1079E+01  0.1075E+01  0.2834E+01  0.2832E+01
      4.187  0.1259E+01  0.1257E+01  0.2945E+01  0.2943E+01
      4.276  0.1311E+01  0.1310E+01  0.3061E+01  0.3059E+01
      4.364  0.1438E+01  0.1432E+01  0.3189E+01  0.3186E+01
      4.453  0.1678E+01  0.1672E+01  0.3337E+01  0.3334E+01
      4.541  0.2085E+01  0.2071E+01  0.3522E+01  0.3518E+01
      4.630  0.3061E+01  0.3029E+01  0.3793E+01  0.3786E+01
      4.718  0.4413E+01  0.4375E+01  0.4184E+01  0.4173E+01
      4.807  0.5271E+01  0.5247E+01  0.4651E+01  0.4638E+01
      4.895  0.5229E+01  0.5235E+01  0.5114E+01  0.5102E+01
      4.984  0.4248E+01  0.4278E+01  0.5490E+01  0.5481E+01
      5.072  0.3127E+01  0.3154E+01  0.5767E+01  0.5760E+01
      5.161  0.2196E+01  0.2225E+01  0.5962E+01  0.5958E+01
      5.250  0.1575E+01  0.1586E+01  0.6102E+01  0.6098E+01
      5.338  0.2558E+01  0.2517E+01  0.6329E+01  0.6322E+01
      5.427  0.4295E+01  0.4277E+01  0.6710E+01  0.6701E+01
      5.515  0.3780E+01  0.3807E+01  0.7045E+01  0.7038E+01
      5.604  0.2626E+01  0.2648E+01  0.7277E+01  0.7273E+01
      5.692  0.1908E+01  0.1920E+01  0.7446E+01  0.7443E+01
      5.781  0.1645E+01  0.1650E+01  0.7593E+01  0.7589E+01
      5.869  0.1399E+01  0.1408E+01  0.7717E+01  0.7714E+01
      5.958  0.1097E+01  0.1104E+01  0.7814E+01  0.7812E+01
      6.046  0.8741E+00  0.8783E+00  0.7892E+01  0.7890E+01
      6.135  0.9162E+00  0.9118E+00  0.7973E+01  0.7971E+01
      6.224  0.1144E+01  0.1143E+01  0.8074E+01  0.8072E+01
      6.312  0.9944E+00  0.1001E+01  0.8163E+01  0.8161E+01
      6.401  0.6160E+00  0.6228E+00  0.8217E+01  0.8216E+01
      6.489  0.4642E+00  0.4639E+00  0.8258E+01  0.8258E+01
      6.578  0.6583E+00  0.6542E+00  0.8317E+01  0.8316E+01
      6.666  0.7496E+00  0.7505E+00  0.8383E+01  0.8382E+01
      6.755  0.6950E+00  0.6953E+00  0.8445E+01  0.8444E+01
      6.843  0.7892E+00  0.7873E+00  0.8515E+01  0.8514E+01
      6.932  0.8200E+00  0.8206E+00  0.8587E+01  0.8586E+01
      7.020  0.7665E+00  0.7660E+00  0.8655E+01  0.8654E+01
      7.109  0.7768E+00  0.7775E+00  0.8724E+01  0.8723E+01
      7.198  0.6420E+00  0.6447E+00  0.8781E+01  0.8780E+01
      7.286  0.6339E+00  0.6315E+00  0.8837E+01  0.8836E+01
      7.375  0.8625E+00  0.8589E+00  0.8914E+01  0.8912E+01
      7.463  0.9688E+00  0.9708E+00  0.9000E+01  0.8998E+01
      7.552  0.7783E+00  0.7816E+00  0.9069E+01  0.9068E+01
      7.640  0.6837E+00  0.6835E+00  0.9129E+01  0.9128E+01
      7.729  0.8180E+00  0.8153E+00  0.9202E+01  0.9200E+01
      7.817  0.9295E+00  0.9298E+00  0.9284E+01  0.9283E+01
      7.906  0.7931E+00  0.7956E+00  0.9354E+01  0.9353E+01
      7.994  0.6858E+00  0.6870E+00  0.9415E+01  0.9414E+01
      8.083  0.6195E+00  0.6207E+00  0.9470E+01  0.9469E+01
      8.172  0.5975E+00  0.5974E+00  0.9523E+01  0.9522E+01
      8.260  0.5955E+00  0.5958E+00  0.9576E+01  0.9575E+01
      8.349  0.6506E+00  0.6486E+00  0.9633E+01  0.9633E+01
      8.437  0.8054E+00  0.8039E+00  0.9705E+01  0.9704E+01
      8.526  0.8132E+00  0.8143E+00  0.9777E+01  0.9776E+01
      8.614  0.7867E+00  0.7863E+00  0.9847E+01  0.9846E+01
      8.703  0.8126E+00  0.8134E+00  0.9919E+01  0.9918E+01
      8.791  0.7164E+00  0.7179E+00  0.9982E+01  0.9981E+01
      8.880  0.6050E+00  0.6060E+00  0.1004E+02  0.1004E+02
      8.968  0.5519E+00  0.5519E+00  0.1008E+02  0.1008E+02
      9.057  0.6143E+00  0.6133E+00  0.1014E+02  0.1014E+02
      9.145  0.6334E+00  0.6338E+00  0.1020E+02  0.1019E+02
      9.234  0.6704E+00  0.6689E+00  0.1025E+02  0.1025E+02
      9.323  0.7924E+00  0.7908E+00  0.1032E+02  0.1032E+02
      9.411  0.9640E+00  0.9628E+00  0.1041E+02  0.1041E+02
      9.500  0.8616E+00  0.8646E+00  0.1049E+02  0.1049E+02
      9.588  0.6618E+00  0.6636E+00  0.1055E+02  0.1054E+02
      9.677  0.5637E+00  0.5641E+00  0.1060E+02  0.1059E+02
      9.765  0.6793E+00  0.6774E+00  0.1066E+02  0.1065E+02
      9.854  0.7349E+00  0.7357E+00  0.1072E+02  0.1072E+02
      9.942  0.6832E+00  0.6835E+00  0.1078E+02  0.1078E+02
     10.031  0.7532E+00  0.7521E+00  0.1085E+02  0.1085E+02
     10.119  0.8352E+00  0.8349E+00  0.1092E+02  0.1092E+02
     10.208  0.7894E+00  0.7909E+00  0.1099E+02  0.1099E+02
     10.297  0.6470E+00  0.6481E+00  0.1105E+02  0.1105E+02
     10.385  0.6834E+00  0.6818E+00  0.1111E+02  0.1111E+02
     10.474  0.8189E+00  0.8183E+00  0.1118E+02  0.1118E+02
     10.562  0.7564E+00  0.7579E+00  0.1125E+02  0.1125E+02
     10.651  0.6606E+00  0.6604E+00  0.1131E+02  0.1131E+02
     10.739  0.8091E+00  0.8066E+00  0.1138E+02  0.1138E+02
     10.828  0.9590E+00  0.9588E+00  0.1146E+02  0.1146E+02
     10.916  0.8132E+00  0.8157E+00  0.1154E+02  0.1154E+02
     11.005  0.6997E+00  0.6991E+00  0.1160E+02  0.1160E+02
     11.093  0.8064E+00  0.8054E+00  0.1167E+02  0.1167E+02
     11.182  0.8846E+00  0.8838E+00  0.1175E+02  0.1175E+02
     11.271  0.9785E+00  0.9777E+00  0.1184E+02  0.1183E+02
     11.359  0.9330E+00  0.9350E+00  0.1192E+02  0.1192E+02
     11.448  0.7471E+00  0.7485E+00  0.1198E+02  0.1198E+02
     11.536  0.7018E+00  0.7016E+00  0.1205E+02  0.1205E+02
     11.625  0.7598E+00  0.7590E+00  0.1211E+02  0.1211E+02
     11.713  0.7849E+00  0.7850E+00  0.1218E+02  0.1218E+02
     11.802  0.8026E+00  0.8018E+00  0.1225E+02  0.1225E+02
     11.890  0.9687E+00  0.9668E+00  0.1234E+02  0.1234E+02
     11.979  0.9614E+00  0.9633E+00  0.1243E+02  0.1242E+02
     12.067  0.7327E+00  0.7352E+00  0.1249E+02  0.1249E+02
     12.156  0.5900E+00  0.5909E+00  0.1254E+02  0.1254E+02
     12.245  0.5648E+00  0.5643E+00  0.1259E+02  0.1259E+02
     12.333  0.7251E+00  0.7222E+00  0.1266E+02  0.1266E+02
     12.422  0.9308E+00  0.9304E+00  0.1274E+02  0.1274E+02
     12.510  0.8241E+00  0.8260E+00  0.1281E+02  0.1281E+02
     12.599  0.7323E+00  0.7318E+00  0.1288E+02  0.1288E+02
     12.687  0.8790E+00  0.8769E+00  0.1296E+02  0.1295E+02
     12.776  0.1010E+01  0.1010E+01  0.1304E+02  0.1304E+02
     12.864  0.9958E+00  0.9961E+00  0.1313E+02  0.1313E+02
     12.953  0.9340E+00  0.9356E+00  0.1322E+02  0.1322E+02
     13.041  0.7285E+00  0.7298E+00  0.1328E+02  0.1328E+02
     13.130  0.7065E+00  0.7059E+00  0.1334E+02  0.1334E+02
     13.219  0.7470E+00  0.7467E+00  0.1341E+02  0.1341E+02
     13.307  0.8441E+00  0.8424E+00  0.1348E+02  0.1348E+02
     13.396  0.9875E+00  0.9871E+00  0.1357E+02  0.1357E+02
     13.484  0.9380E+00  0.9381E+00  0.1365E+02  0.1365E+02
     13.573  0.9626E+00  0.9630E+00  0.1374E+02  0.1374E+02
     13.661  0.7755E+00  0.7784E+00  0.1381E+02  0.1381E+02
     13.750  0.6525E+00  0.6531E+00  0.1387E+02  0.1387E+02
     13.838  0.6879E+00  0.6867E+00  0.1393E+02  0.1393E+02
     13.927  0.8295E+00  0.8280E+00  0.1400E+02  0.1400E+02
     14.015  0.9172E+00  0.9171E+00  0.1408E+02  0.1408E+02
     14.104  0.9278E+00  0.9280E+00  0.1416E+02  0.1416E+02
     14.192  0.9208E+00  0.9203E+00  0.1425E+02  0.1425E+02
     14.281  0.9692E+00  0.9692E+00  0.1433E+02  0.1433E+02
     14.370  0.9232E+00  0.9249E+00  0.1441E+02  0.1441E+02
     14.458  0.8131E+00  0.8144E+00  0.1449E+02  0.1449E+02
     14.547  0.9484E+00  0.9464E+00  0.1457E+02  0.1457E+02
     14.635  0.1025E+01  0.1022E+01  0.1466E+02  0.1466E+02
     14.724  0.9230E+00  0.9140E+00  0.1474E+02  0.1474E+02
     14.812  0.9248E+00  0.9316E+00  0.1482E+02  0.1482E+02
     14.901  0.8982E+00  0.9036E+00  0.1490E+02  0.1490E+02
     14.989  0.8911E+00  0.8947E+00  0.1498E+02  0.1498E+02
     15.078  0.8069E+00  0.8121E+00  0.1505E+02  0.1505E+02
     15.166  0.7408E+00  0.7404E+00  0.1512E+02  0.1512E+02
     15.255  0.6415E+00  0.6389E+00  0.1518E+02  0.1518E+02
     15.344  0.6031E+00  0.6036E+00  0.1523E+02  0.1523E+02
     15.432  0.5582E+00  0.5594E+00  0.1528E+02  0.1528E+02
     15.521  0.4760E+00  0.4776E+00  0.1532E+02  0.1532E+02
     15.609  0.3218E+00  0.3256E+00  0.1535E+02  0.1535E+02
     15.698  0.2877E+00  0.2806E+00  0.1538E+02  0.1538E+02
     15.786  0.3333E+00  0.3282E+00  0.1541E+02  0.1541E+02
     15.875  0.3895E+00  0.3865E+00  0.1544E+02  0.1544E+02
     15.963  0.4657E+00  0.4542E+00  0.1548E+02  0.1548E+02
     16.052  0.4931E+00  0.4714E+00  0.1553E+02  0.1552E+02
     16.140  0.4522E+00  0.4538E+00  0.1557E+02  0.1556E+02
     16.229  0.2607E+00  0.2852E+00  0.1559E+02  0.1559E+02
     16.318  0.1553E+00  0.1674E+00  0.1560E+02  0.1560E+02
     16.406  0.1972E+00  0.1995E+00  0.1562E+02  0.1562E+02
     16.495  0.2289E+00  0.2299E+00  0.1564E+02  0.1564E+02
     16.583  0.1927E+00  0.1936E+00  0.1566E+02  0.1566E+02
     16.672  0.2678E+00  0.2726E+00  0.1568E+02  0.1568E+02
     16.760  0.2872E+00  0.2984E+00  0.1571E+02  0.1571E+02
     16.849  0.1812E+00  0.1770E+00  0.1572E+02  0.1572E+02
     16.937  0.9985E-01  0.9097E-01  0.1573E+02  0.1573E+02
     17.026  0.7858E-01  0.7602E-01  0.1574E+02  0.1574E+02
     17.114  0.9634E-01  0.9534E-01  0.1575E+02  0.1575E+02
     17.203  0.1162E+00  0.1156E+00  0.1576E+02  0.1576E+02
     17.292  0.8980E-01  0.8625E-01  0.1577E+02  0.1576E+02
     17.380  0.8346E-01  0.6649E-01  0.1577E+02  0.1577E+02
     17.469  0.1143E+00  0.8045E-01  0.1578E+02  0.1578E+02
     17.557  0.1800E+00  0.1690E+00  0.1580E+02  0.1579E+02
     17.646  0.2107E+00  0.2364E+00  0.1582E+02  0.1581E+02
     17.734  0.1672E+00  0.1984E+00  0.1583E+02  0.1583E+02
     17.823  0.1238E+00  0.1318E+00  0.1584E+02  0.1584E+02
     17.911  0.1123E+00  0.1136E+00  0.1585E+02  0.1585E+02
     18.000  0.4888E-01  0.4940E-01  0.1586E+02  0.1586E+02
     18.088  0.2715E-01  0.2698E-01  0.1586E+02  0.1586E+02
     18.177  0.6538E-01  0.6551E-01  0.1587E+02  0.1587E+02
     18.266  0.9959E-01  0.1016E+00  0.1587E+02  0.1587E+02
     18.354  0.1065E+00  0.1076E+00  0.1588E+02  0.1588E+02
     18.443  0.1594E+00  0.1523E+00  0.1590E+02  0.1590E+02
     18.531  0.1570E+00  0.1575E+00  0.1591E+02  0.1591E+02
     18.620  0.8871E-01  0.9120E-01  0.1592E+02  0.1592E+02
     18.708  0.7233E-01  0.7277E-01  0.1593E+02  0.1593E+02
     18.797  0.8647E-01  0.8601E-01  0.1593E+02  0.1593E+02
     18.885  0.6882E-01  0.6671E-01  0.1594E+02  0.1594E+02
     18.974  0.3834E-01  0.3416E-01  0.1594E+02  0.1594E+02
     19.062  0.2788E-01  0.3047E-01  0.1595E+02  0.1595E+02
     19.151  0.4336E-01  0.4696E-01  0.1595E+02  0.1595E+02
     19.240  0.8262E-01  0.8338E-01  0.1596E+02  0.1596E+02
     19.328  0.7697E-01  0.7715E-01  0.1596E+02  0.1596E+02
     19.417  0.3209E-01  0.3231E-01  0.1597E+02  0.1597E+02
     19.505  0.1129E-01  0.1158E-01  0.1597E+02  0.1597E+02
     19.594  0.2167E-01  0.2253E-01  0.1597E+02  0.1597E+02
     19.682  0.4935E-01  0.4980E-01  0.1597E+02  0.1597E+02
     19.771  0.3607E-01  0.3506E-01  0.1598E+02  0.1598E+02
     19.859  0.1041E-01  0.9919E-02  0.1598E+02  0.1598E+02
     19.948  0.5044E-02  0.4802E-02  0.1598E+02  0.1598E+02
     20.036  0.1594E-01  0.1553E-01  0.1598E+02  0.1598E+02
     20.125  0.4406E-01  0.4467E-01  0.1598E+02  0.1598E+02
     20.213  0.4235E-01  0.4278E-01  0.1599E+02  0.1599E+02
     20.302  0.1415E-01  0.1385E-01  0.1599E+02  0.1599E+02
     20.391  0.3155E-02  0.3301E-02  0.1599E+02  0.1599E+02
     20.479  0.2453E-02  0.3843E-02  0.1599E+02  0.1599E+02
     20.568  0.9481E-02  0.1591E-01  0.1599E+02  0.1599E+02
     20.656  0.2656E-01  0.4084E-01  0.1599E+02  0.1599E+02
     20.745  0.2888E-01  0.4029E-01  0.1600E+02  0.1600E+02
     20.833  0.1181E-01  0.1733E-01  0.1600E+02  0.1600E+02
     20.922  0.2582E-02  0.4031E-02  0.1600E+02  0.1600E+02
     21.010  0.4646E-03  0.7329E-03  0.1600E+02  0.1600E+02
     21.099  0.1503E-04  0.9120E-04  0.1600E+02  0.1600E+02
     21.187  0.8808E-04  0.0000E+00  0.1600E+02  0.1600E+02
     21.276  0.5100E-03  0.0000E+00  0.1600E+02  0.1600E+02
     21.365  0.2758E-02  0.0000E+00  0.1600E+02  0.1600E+02
     21.453  0.1079E-01  0.0000E+00  0.1600E+02  0.1600E+02
     21.542  0.1690E-01  0.0000E+00  0.1600E+02  0.1600E+02
     21.630  0.7915E-02  0.0000E+00  0.1600E+02  0.1600E+02
     21.719  0.1767E-02  0.0000E+00  0.1600E+02  0.1600E+02
     21.807  0.3168E-03  0.0000E+00  0.1600E+02  0.1600E+02
     21.896  0.0000E+00  0.0000E+00  0.1600E+02  0.1600E+02
     21.984  0.0000E+00  0.0000E+00  0.1600E+02  0.1600E+02
     22.073  0.0000E+00  0.0000E+00  0.1600E+02  0.1600E+02
     22.161  0.0000E+00  0.0000E+00  0.1600E+02  0.1600E+02
     22.250  0.0000E+00  0.0000E+00  0.1600E+02  0.1600E+02
     22.339  0.0000E+00  0.0000E+00  0.1600E+02  0.1600E+02
     22.427  0.0000E+00  0.0000E+00  0.1600E+02  0.1600E+02
     22.516  0.0000E+00  0.0000E+00  0.1600E+02  0.1600E+02
     22.604  0.0000E+00  0.0000E+00  0.1600E+02  0.1600E+02
     22.693  0.0000E+00  0.0000E+00  0.1600E+02  0.1600E+02
     22.69271219     -3.87045423  301      8.81996139      1.00000000
     -3.870  0.0000E+00  0.0000E+00  0.0000E+00  0.0000E+00  0.0000E+00  0.0000E+00  0.0000E+00  0.0000E+00  0.0000E+00  0.0000E+00  0.0000E+00  0.0000E+00  0.0000E+00  0.0000E+00  0.0000E+00  0.0000E+00  0.0000E+00  0.0000E+00
     -3.782  0.0000E+00  0.0000E+00  0.0000E+00  0.0000E+00  0.0000E+00  0.0000E+00  0.0000E+00  0.0000E+00  0.0000E+00  0.0000E+00  0.0000E+00  0.0000E+00  0.0000E+00  0.0000E+00  0.0000E+00  0.0000E+00  0.0000E+00  0.0000E+00
     -3.693  0.0000E+00  0.0000E+00  0.0000E+00  0.0000E+00  0.0000E+00  0.0000E+00  0.0000E+00  0.0000E+00  0.0000E+00  0.0000E+00  0.0000E+00  0.0000E+00  0.0000E+00  0.0000E+00  0.0000E+00  0.0000E+00  0.0000E+00  0.0000E+00
     -3.605  0.0000E+00  0.0000E+00  0.0000E+00  0.0000E+00  0.0000E+00  0.0000E+00  0.0000E+00  0.0000E+00  0.0000E+00  0.0000E+00  0.0000E+00  0.0000E+00  0.0000E+00  0.0000E+00  0.0000E+00  0.0000E+00  0.0000E+00  0.0000E+00
     -3.516  0.0000E+00  0.0000E+00  0.0000E+00  0.0000E+00  0.0000E+00  0.0000E+00  0.0000E+00  0.0000E+00  0.0000E+00  0.0000E+00  0.0000E+00  0.0000E+00  0.0000E+00  0.0000E+00  0.0000E+00  0.0000E+00  0.0000E+00  0.0000E+00
     -3.428  0.0000E+00  0.0000E+00  0.0000E+00  0.0000E+00  0.0000E+00  0.0000E+00  0.0000E+00  0.0000E+00  0.0000E+00  0.0000E+00  0.0000E+00  0.0000E+00  0.0000E+00  0.0000E+00  0.0000E+00  0.0000E+00  0.0000E+00  0.0000E+00
     -3.339  0.0000E+00  0.0000E+00  0.0000E+00  0.0000E+00  0.0000E+00  0.0000E+00  0.0000E+00  0.0000E+00  0.0000E+00  0.0000E+00  0.0000E+00  0.0000E+00  0.0000E+00  0.0000E+00  0.0000E+00  0.0000E+00  0.0000E+00  0.0000E+00
     -3.251  0.0000E+00  0.0000E+00  0.0000E+00  0.0000E+00  0.0000E+00  0.0000E+00  0.0000E+00  0.0000E+00  0.0000E+00  0.0000E+00  0.0000E+00  0.0000E+00  0.0000E+00  0.0000E+00  0.0000E+00  0.0000E+00  0.0000E+00  0.0000E+00
     -3.162  0.0000E+00  0.0000E+00  0.0000E+00  0.0000E+00  0.0000E+00  0.0000E+00  0.0000E+00  0.0000E+00  0.0000E+00  0.0000E+00  0.0000E+00  0.0000E+00  0.0000E+00  0.0000E+00  0.0000E+00  0.0000E+00  0.0000E+00  0.0000E+00
     -3.074  0.3508E-06  0.3444E-06  0.4935E-09  0.4845E-09  0.4935E-09  0.4845E-09  0.4934E-09  0.4844E-09  0.1913E-14  0.4232E-15  0.8358E-15  0.8093E-15  0.1711E-11  0.1895E-11  0.1913E-14  0.4232E-15  0.2183E-11  0.2435E-11
     -2.985  0.2515E-05  0.2469E-05  0.5932E-08  0.5824E-08  0.5932E-08  0.5824E-08  0.5931E-08  0.5824E-08  0.2714E-10  0.2552E-10  0.2714E-10  0.2552E-10  0.1755E-10  0.1745E-10  0.2714E-10  0.2552E-10  0.1780E-10  0.1824E-10
     -2.896  0.1510E-04  0.1482E-04  0.3954E-07  0.3882E-07  0.3954E-07  0.3882E-07  0.3953E-07  0.3882E-07  0.2263E-09  0.2169E-09  0.2263E-09  0.2168E-09  0.1229E-09  0.1233E-09  0.2263E-09  0.2169E-09  0.1348E-09  0.1381E-09
     -2.808  0.8731E-04  0.8575E-04  0.2397E-06  0.2353E-06  0.2397E-06  0.2353E-06  0.2396E-06  0.2353E-06  0.1445E-08  0.1393E-08  0.1445E-08  0.1393E-08  0.8727E-09  0.8705E-09  0.1445E-08  0.1393E-08  0.9633E-09  0.9781E-09
     -2.719  0.4634E-03  0.4559E-03  0.1368E-05  0.1344E-05  0.1368E-05  0.1344E-05  0.1367E-05  0.1344E-05  0.9018E-08  0.8691E-08  0.9018E-08  0.8691E-08  0.4973E-08  0.4952E-08  0.9018E-08  0.8691E-08  0.5507E-08  0.5579E-08
     -2.631  0.1849E-02  0.1827E-02  0.6542E-05  0.6447E-05  0.6542E-05  0.6447E-05  0.6541E-05  0.6446E-05  0.4792E-07  0.4633E-07  0.4792E-07  0.4633E-07  0.2457E-07  0.2429E-07  0.4792E-07  0.4633E-07  0.2700E-07  0.2712E-07
     -2.542  0.4389E-02  0.4362E-02  0.2121E-04  0.2100E-04  0.2121E-04  0.2100E-04  0.2120E-04  0.2100E-04  0.1976E-06  0.1930E-06  0.1976E-06  0.1930E-06  0.9503E-07  0.9314E-07  0.1976E-06  0.1930E-06  0.1066E-06  0.1055E-06
     -2.454  0.6364E-02  0.6345E-02  0.4659E-04  0.4625E-04  0.4659E-04  0.4625E-04  0.4658E-04  0.4623E-04  0.5514E-06  0.5455E-06  0.5515E-06  0.5456E-06  0.3216E-06  0.3171E-06  0.5514E-06  0.5455E-06  0.3812E-06  0.3771E-06
     -2.365  0.8768E-02  0.8737E-02  0.9280E-04  0.9223E-04  0.9280E-04  0.9223E-04  0.9278E-04  0.9221E-04  0.1430E-05  0.1418E-05  0.1430E-05  0.1418E-05  0.8268E-06  0.8206E-06  0.1430E-05  0.1418E-05  0.9878E-06  0.9822E-06
     -2.277  0.1017E-01  0.1018E-01  0.1322E-03  0.1320E-03  0.1322E-03  0.1320E-03  0.1322E-03  0.1320E-03  0.2770E-05  0.2742E-05  0.2770E-05  0.2742E-05  0.1212E-05  0.1205E-05  0.2770E-05  0.2742E-05  0.1416E-05  0.1410E-05
     -2.188  0.9448E-02  0.9438E-02  0.1609E-03  0.1602E-03  0.1609E-03  0.1602E-03  0.1608E-03  0.1602E-03  0.4481E-05  0.4416E-05  0.4481E-05  0.4418E-05  0.1973E-05  0.1946E-05  0.4481E-05  0.4416E-05  0.2209E-05  0.2182E-05
     -2.100  0.1235E-01  0.1232E-01  0.2602E-03  0.2591E-03  0.2602E-03  0.2591E-03  0.2601E-03  0.2590E-03  0.7687E-05  0.7588E-05  0.7684E-05  0.7592E-05  0.4439E-05  0.4393E-05  0.7687E-05  0.7588E-05  0.5192E-05  0.5137E-05
     -2.011  0.1362E-01  0.1363E-01  0.3266E-03  0.3263E-03  0.3266E-03  0.3263E-03  0.3266E-03  0.3263E-03  0.1037E-04  0.1026E-04  0.1037E-04  0.1026E-04  0.6648E-05  0.6618E-05  0.1037E-04  0.1026E-04  0.8052E-05  0.8012E-05
     -1.922  0.1289E-01  0.1289E-01  0.3591E-03  0.3584E-03  0.3591E-03  0.3584E-03  0.3592E-03  0.3585E-03  0.1602E-04  0.1583E-04  0.1602E-04  0.1584E-04  0.6889E-05  0.6853E-05  0.1602E-04  0.1583E-04  0.8033E-05  0.7995E-05
     -1.834  0.1433E-01  0.1432E-01  0.4540E-03  0.4534E-03  0.4540E-03  0.4534E-03  0.4540E-03  0.4533E-03  0.2490E-04  0.2471E-04  0.2490E-04  0.2471E-04  0.8739E-05  0.8689E-05  0.2490E-04  0.2471E-04  0.9768E-05  0.9710E-05
     -1.745  0.1280E-01  0.1283E-01  0.4549E-03  0.4550E-03  0.4549E-03  0.4550E-03  0.4546E-03  0.4547E-03  0.2512E-04  0.2503E-04  0.2511E-04  0.2502E-04  0.1146E-04  0.1141E-04  0.2512E-04  0.2503E-04  0.1348E-04  0.1341E-04
     -1.657  0.1443E-01  0.1438E-01  0.5999E-03  0.5970E-03  0.5999E-03  0.5970E-03  0.5992E-03  0.5963E-03  0.3333E-04  0.3308E-04  0.3336E-04  0.3311E-04  0.2034E-04  0.2027E-04  0.3333E-04  0.3308E-04  0.2470E-04  0.2461E-04
     -1.568  0.1779E-01  0.1779E-01  0.7984E-03  0.7974E-03  0.7984E-03  0.7974E-03  0.7984E-03  0.7975E-03  0.5113E-04  0.5094E-04  0.5116E-04  0.5097E-04  0.2797E-04  0.2801E-04  0.5113E-04  0.5094E-04  0.3290E-04  0.3297E-04
     -1.480  0.1720E-01  0.1720E-01  0.8390E-03  0.8384E-03  0.8390E-03  0.8384E-03  0.8390E-03  0.8384E-03  0.6448E-04  0.6428E-04  0.6449E-04  0.6428E-04  0.2933E-04  0.2938E-04  0.6448E-04  0.6428E-04  0.3354E-04  0.3359E-04
     -1.391  0.1647E-01  0.1649E-01  0.8679E-03  0.8685E-03  0.8679E-03  0.8685E-03  0.8684E-03  0.8690E-03  0.7822E-04  0.7793E-04  0.7817E-04  0.7786E-04  0.2912E-04  0.2919E-04  0.7822E-04  0.7793E-04  0.3367E-04  0.3375E-04
     -1.303  0.1295E-01  0.1298E-01  0.7422E-03  0.7429E-03  0.7422E-03  0.7429E-03  0.7422E-03  0.7429E-03  0.7869E-04  0.7845E-04  0.7868E-04  0.7841E-04  0.2374E-04  0.2371E-04  0.7869E-04  0.7845E-04  0.2754E-04  0.2749E-04
     -1.214  0.1440E-01  0.1434E-01  0.9496E-03  0.9447E-03  0.9496E-03  0.9447E-03  0.9473E-03  0.9424E-03  0.1013E-03  0.1007E-03  0.1014E-03  0.1008E-03  0.4078E-04  0.4043E-04  0.1013E-03  0.1007E-03  0.4744E-04  0.4704E-04
     -1.126  0.1984E-01  0.1981E-01  0.1422E-02  0.1419E-02  0.1422E-02  0.1419E-02  0.1421E-02  0.1417E-02  0.1449E-03  0.1444E-03  0.1449E-03  0.1444E-03  0.7299E-04  0.7278E-04  0.1449E-03  0.1444E-03  0.8550E-04  0.8525E-04
     -1.037  0.1889E-01  0.1892E-01  0.1446E-02  0.1447E-02  0.1446E-02  0.1447E-02  0.1446E-02  0.1447E-02  0.1574E-03  0.1571E-03  0.1573E-03  0.1571E-03  0.7630E-04  0.7648E-04  0.1574E-03  0.1571E-03  0.9114E-04  0.9135E-04
     -0.949  0.1864E-01  0.1863E-01  0.1540E-02  0.1538E-02  0.1540E-02  0.1538E-02  0.1539E-02  0.1537E-02  0.1976E-03  0.1973E-03  0.1978E-03  0.1974E-03  0.7903E-04  0.7907E-04  0.1976E-03  0.1973E-03  0.9457E-04  0.9464E-04
     -0.860  0.1604E-01  0.1611E-01  0.1405E-02  0.1410E-02  0.1405E-02  0.1410E-02  0.1407E-02  0.1411E-02  0.1942E-03  0.1946E-03  0.1941E-03  0.1946E-03  0.7595E-04  0.7633E-04  0.1942E-03  0.1946E-03  0.8957E-04  0.9006E-04
     -0.771  0.1341E-01  0.1338E-01  0.1277E-02  0.1273E-02  0.1277E-02  0.1273E-02  0.1276E-02  0.1272E-02  0.2232E-03  0.2221E-03  0.2235E-03  0.2224E-03  0.6590E-04  0.6593E-04  0.2232E-03  0.2221E-03  0.7299E-04  0.7307E-04
     -0.683  0.1775E-01  0.1771E-01  0.1856E-02  0.1849E-02  0.1856E-02  0.1849E-02  0.1852E-02  0.1845E-02  0.3568E-03  0.3557E-03  0.3570E-03  0.3559E-03  0.9084E-04  0.9071E-04  0.3568E-03  0.3557E-03  0.9996E-04  0.9979E-04
     -0.594  0.1867E-01  0.1869E-01  0.2271E-02  0.2268E-02  0.2271E-02  0.2268E-02  0.2266E-02  0.2263E-02  0.3980E-03  0.3985E-03  0.3978E-03  0.3982E-03  0.1153E-03  0.1154E-03  0.3980E-03  0.3985E-03  0.1314E-03  0.1314E-03
     -0.506  0.1557E-01  0.1560E-01  0.2334E-02  0.2333E-02  0.2334E-02  0.2333E-02  0.2332E-02  0.2331E-02  0.3621E-03  0.3622E-03  0.3620E-03  0.3621E-03  0.1222E-03  0.1225E-03  0.3621E-03  0.3622E-03  0.1448E-03  0.1451E-03
     -0.417  0.1363E-01  0.1365E-01  0.2329E-02  0.2328E-02  0.2329E-02  0.2328E-02  0.2328E-02  0.2327E-02  0.3961E-03  0.3952E-03  0.3964E-03  0.3956E-03  0.1225E-03  0.1228E-03  0.3961E-03  0.3952E-03  0.1468E-03  0.1472E-03
     -0.329  0.1396E-01  0.1393E-01  0.2603E-02  0.2598E-02  0.2603E-02  0.2598E-02  0.2602E-02  0.2597E-02  0.5316E-03  0.5289E-03  0.5324E-03  0.5298E-03  0.1359E-03  0.1360E-03  0.5316E-03  0.5289E-03  0.1576E-03  0.1579E-03
     -0.240  0.1650E-01  0.1649E-01  0.2843E-02  0.2843E-02  0.2843E-02  0.2843E-02  0.2847E-02  0.2847E-02  0.7642E-03  0.7619E-03  0.7645E-03  0.7622E-03  0.1428E-03  0.1430E-03  0.7642E-03  0.7619E-03  0.1556E-03  0.1559E-03
     -0.152  0.1528E-01  0.1531E-01  0.2797E-02  0.2796E-02  0.2797E-02  0.2796E-02  0.2794E-02  0.2793E-02  0.8567E-03  0.8554E-03  0.8568E-03  0.8555E-03  0.1351E-03  0.1352E-03  0.8567E-03  0.8554E-03  0.1483E-03  0.1484E-03
     -0.063  0.1344E-01  0.1347E-01  0.2849E-02  0.2851E-02  0.2849E-02  0.2851E-02  0.2849E-02  0.2851E-02  0.9232E-03  0.9227E-03  0.9230E-03  0.9225E-03  0.1362E-03  0.1366E-03  0.9232E-03  0.9227E-03  0.1518E-03  0.1522E-03
      0.025  0.9473E-02  0.9526E-02  0.2162E-02  0.2171E-02  0.2162E-02  0.2171E-02  0.2168E-02  0.2177E-02  0.7661E-03  0.7679E-03  0.7646E-03  0.7664E-03  0.1019E-03  0.1026E-03  0.7661E-03  0.7679E-03  0.1138E-03  0.1145E-03
      0.114  0.8021E-02  0.8004E-02  0.1919E-02  0.1915E-02  0.1919E-02  0.1915E-02  0.1919E-02  0.1915E-02  0.8207E-03  0.8169E-03  0.8216E-03  0.8177E-03  0.9276E-04  0.9262E-04  0.8207E-03  0.8169E-03  0.1048E-03  0.1046E-03
      0.203  0.1181E-01  0.1176E-01  0.2440E-02  0.2434E-02  0.2440E-02  0.2434E-02  0.2439E-02  0.2432E-02  0.1240E-02  0.1234E-02  0.1242E-02  0.1237E-02  0.1706E-03  0.1695E-03  0.1240E-02  0.1234E-02  0.1903E-03  0.1890E-03
      0.291  0.1654E-01  0.1651E-01  0.2950E-02  0.2948E-02  0.2950E-02  0.2948E-02  0.2945E-02  0.2943E-02  0.1588E-02  0.1585E-02  0.1589E-02  0.1586E-02  0.4004E-03  0.3979E-03  0.1588E-02  0.1585E-02  0.4716E-03  0.4684E-03
      0.380  0.2030E-01  0.2028E-01  0.2930E-02  0.2933E-02  0.2930E-02  0.2933E-02  0.2931E-02  0.2934E-02  0.1550E-02  0.1550E-02  0.1547E-02  0.1548E-02  0.7122E-03  0.7111E-03  0.1550E-02  0.1550E-02  0.8775E-03  0.8760E-03
      0.468  0.2082E-01  0.2082E-01  0.2603E-02  0.2607E-02  0.2603E-02  0.2607E-02  0.2607E-02  0.2611E-02  0.1428E-02  0.1428E-02  0.1426E-02  0.1426E-02  0.8105E-03  0.8114E-03  0.1428E-02  0.1428E-02  0.1008E-02  0.1009E-02
      0.557  0.2206E-01  0.2204E-01  0.2267E-02  0.2272E-02  0.2267E-02  0.2272E-02  0.2272E-02  0.2277E-02  0.1264E-02  0.1265E-02  0.1262E-02  0.1262E-02  0.9274E-03  0.9274E-03  0.1264E-02  0.1265E-02  0.1157E-02  0.1157E-02