   4   4   1   0
  0.1473445E+02  0.3891033E-09  0.3891926E-09  0.3891926E-09  0.5000000E-15
  1.000000000000000E-004
  CAR 
 unknown system                          
     21.30938033     -3.93484797  301      8.47404169      1.00000000
     -3.935  0.0000E+00  0.0000E+00  0.0000E+00  0.0000E+00
     -3.851  0.0000E+00  0.0000E+00  0.0000E+00  0.0000E+00
     -3.767  0.0000E+00  0.0000E+00  0.0000E+00  0.0000E+00
     -3.682  0.0000E+00  0.0000E+00  0.0000E+00  0.0000E+00
     -3.598  0.0000E+00  0.0000E+00  0.0000E+00  0.0000E+00
     -3.514  0.0000E+00  0.0000E+00  0.0000E+00  0.0000E+00
     -3.430  0.0000E+00  0.0000E+00  0.0000E+00  0.0000E+00
     -3.346  0.0000E+00  0.0000E+00  0.0000E+00  0.0000E+00
     -3.262  0.4107E-06  0.4031E-06  0.3456E-07  0.3392E-07
     -3.178  0.5950E-05  0.5839E-05  0.5352E-06  0.5253E-06
     -3.093  0.4476E-04  0.4394E-04  0.4302E-05  0.4222E-05
     -3.009  0.2267E-03  0.2225E-03  0.2338E-04  0.2294E-04
     -2.925  0.1213E-02  0.1191E-02  0.1255E-03  0.1232E-03
     -2.841  0.5882E-02  0.5786E-02  0.6205E-03  0.6101E-03
     -2.757  0.2182E-01  0.2155E-01  0.2456E-02  0.2424E-02
     -2.673  0.5042E-01  0.5010E-01  0.6699E-02  0.6640E-02
     -2.588  0.7395E-01  0.7372E-01  0.1292E-01  0.1284E-01
     -2.504  0.1016E+00  0.1012E+00  0.2147E-01  0.2136E-01
     -2.420  0.1228E+00  0.1228E+00  0.3181E-01  0.3170E-01
     -2.336  0.1152E+00  0.1151E+00  0.4150E-01  0.4138E-01
     -2.252  0.1461E+00  0.1457E+00  0.5380E-01  0.5365E-01
     -2.168  0.1718E+00  0.1718E+00  0.6826E-01  0.6811E-01
     -2.084  0.1650E+00  0.1651E+00  0.8217E-01  0.8201E-01
     -1.999  0.1810E+00  0.1807E+00  0.9741E-01  0.9723E-01
     -1.915  0.1779E+00  0.1783E+00  0.1124E+00  0.1122E+00
     -1.831  0.1774E+00  0.1769E+00  0.1273E+00  0.1271E+00
     -1.747  0.2348E+00  0.2344E+00  0.1471E+00  0.1469E+00
     -1.663  0.2426E+00  0.2427E+00  0.1675E+00  0.1673E+00
     -1.579  0.2397E+00  0.2397E+00  0.1877E+00  0.1875E+00
     -1.495  0.2092E+00  0.2098E+00  0.2053E+00  0.2052E+00
     -1.410  0.1886E+00  0.1882E+00  0.2212E+00  0.2210E+00
     -1.326  0.2653E+00  0.2642E+00  0.2436E+00  0.2433E+00
     -1.242  0.3133E+00  0.3134E+00  0.2699E+00  0.2697E+00
     -1.158  0.2899E+00  0.2898E+00  0.2944E+00  0.2941E+00
     -1.074  0.3006E+00  0.3009E+00  0.3197E+00  0.3194E+00
     -0.990  0.2363E+00  0.2370E+00  0.3396E+00  0.3393E+00
     -0.906  0.2537E+00  0.2528E+00  0.3609E+00  0.3606E+00
     -0.821  0.3388E+00  0.3381E+00  0.3895E+00  0.3891E+00
     -0.737  0.3545E+00  0.3548E+00  0.4193E+00  0.4190E+00
     -0.653  0.3281E+00  0.3283E+00  0.4469E+00  0.4466E+00
     -0.569  0.3171E+00  0.3170E+00  0.4736E+00  0.4733E+00
     -0.485  0.3529E+00  0.3523E+00  0.5033E+00  0.5030E+00
     -0.401  0.3832E+00  0.3831E+00  0.5356E+00  0.5353E+00
     -0.317  0.3720E+00  0.3721E+00  0.5670E+00  0.5666E+00
     -0.232  0.3569E+00  0.3575E+00  0.5970E+00  0.5967E+00
     -0.148  0.2622E+00  0.2633E+00  0.6191E+00  0.6189E+00
     -0.064  0.2404E+00  0.2398E+00  0.6394E+00  0.6391E+00
      0.020  0.3141E+00  0.3131E+00  0.6658E+00  0.6655E+00
      0.104  0.3923E+00  0.3917E+00  0.6989E+00  0.6985E+00
      0.188  0.4134E+00  0.4136E+00  0.7337E+00  0.7333E+00
      0.273  0.3891E+00  0.3896E+00  0.7665E+00  0.7661E+00
      0.357  0.3557E+00  0.3560E+00  0.7964E+00  0.7961E+00
      0.441  0.3442E+00  0.3441E+00  0.8254E+00  0.8251E+00
      0.525  0.3899E+00  0.3885E+00  0.8583E+00  0.8578E+00
      0.609  0.4613E+00  0.4615E+00  0.8971E+00  0.8967E+00
      0.693  0.3900E+00  0.3911E+00  0.9299E+00  0.9296E+00
      0.777  0.3227E+00  0.3231E+00  0.9571E+00  0.9568E+00
      0.862  0.3376E+00  0.3369E+00  0.9855E+00  0.9852E+00
      0.946  0.4147E+00  0.4134E+00  0.1020E+01  0.1020E+01
      1.030  0.5234E+00  0.5225E+00  0.1065E+01  0.1064E+01
      1.114  0.5261E+00  0.5270E+00  0.1109E+01  0.1108E+01
      1.198  0.4486E+00  0.4495E+00  0.1147E+01  0.1146E+01
      1.282  0.3820E+00  0.3823E+00  0.1179E+01  0.1178E+01
      1.366  0.4053E+00  0.4044E+00  0.1213E+01  0.1212E+01
      1.451  0.4729E+00  0.4725E+00  0.1253E+01  0.1252E+01
      1.535  0.4839E+00  0.4846E+00  0.1293E+01  0.1293E+01
      1.619  0.3834E+00  0.3846E+00  0.1326E+01  0.1325E+01
      1.703  0.3520E+00  0.3512E+00  0.1355E+01  0.1355E+01
      1.787  0.4717E+00  0.4699E+00  0.1395E+01  0.1395E+01
      1.871  0.5597E+00  0.5595E+00  0.1442E+01  0.1442E+01
      1.955  0.5628E+00  0.5630E+00  0.1490E+01  0.1489E+01
      2.040  0.5289E+00  0.5295E+00  0.1534E+01  0.1534E+01
      2.124  0.5123E+00  0.5116E+00  0.1577E+01  0.1577E+01
      2.208  0.6145E+00  0.6130E+00  0.1629E+01  0.1628E+01
      2.292  0.6771E+00  0.6775E+00  0.1686E+01  0.1685E+01
      2.376  0.5479E+00  0.5497E+00  0.1732E+01  0.1732E+01
      2.460  0.4601E+00  0.4604E+00  0.1771E+01  0.1771E+01
      2.545  0.4418E+00  0.4412E+00  0.1808E+01  0.1808E+01
      2.629  0.5569E+00  0.5546E+00  0.1855E+01  0.1854E+01
      2.713  0.7055E+00  0.7047E+00  0.1915E+01  0.1914E+01
      2.797  0.6648E+00  0.6657E+00  0.1970E+01  0.1970E+01
      2.881  0.6555E+00  0.6542E+00  0.2026E+01  0.2025E+01
      2.965  0.8103E+00  0.8080E+00  0.2094E+01  0.2093E+01
      3.049  0.8119E+00  0.8131E+00  0.2162E+01  0.2161E+01
      3.134  0.7103E+00  0.7108E+00  0.2222E+01  0.2221E+01
      3.218  0.6580E+00  0.6580E+00  0.2277E+01  0.2277E+01
      3.302  0.6867E+00  0.6851E+00  0.2335E+01  0.2334E+01
      3.386  0.7578E+00  0.7573E+00  0.2399E+01  0.2398E+01
      3.470  0.7594E+00  0.7594E+00  0.2463E+01  0.2462E+01
      3.554  0.8027E+00  0.8012E+00  0.2531E+01  0.2530E+01
      3.638  0.8807E+00  0.8800E+00  0.2605E+01  0.2604E+01
      3.723  0.8746E+00  0.8741E+00  0.2679E+01  0.2677E+01
      3.807  0.9327E+00  0.9291E+00  0.2757E+01  0.2756E+01
      3.891  0.1114E+01  0.1109E+01  0.2851E+01  0.2849E+01
      3.975  0.1258E+01  0.1256E+01  0.2957E+01  0.2955E+01
      4.059  0.1292E+01  0.1290E+01  0.3066E+01  0.3063E+01
      4.143  0.1438E+01  0.1431E+01  0.3187E+01  0.3184E+01
      4.227  0.1659E+01  0.1653E+01  0.3326E+01  0.3323E+01
      4.312  0.2020E+01  0.2006E+01  0.3496E+01  0.3492E+01
      4.396  0.2913E+01  0.2880E+01  0.3741E+01  0.3734E+01
      4.480  0.4305E+01  0.4261E+01  0.4104E+01  0.4093E+01
      4.564  0.5308E+01  0.5276E+01  0.4551E+01  0.4537E+01
      4.648  0.5472E+01  0.5471E+01  0.5011E+01  0.4997E+01
      4.732  0.4672E+01  0.4701E+01  0.5404E+01  0.5393E+01
      4.816  0.3512E+01  0.3544E+01  0.5700E+01  0.5692E+01
      4.901  0.2549E+01  0.2580E+01  0.5915E+01  0.5909E+01
      4.985  0.1793E+01  0.1814E+01  0.6066E+01  0.6062E+01
      5.069  0.2274E+01  0.2242E+01  0.6258E+01  0.6251E+01
      5.153  0.4110E+01  0.4072E+01  0.6604E+01  0.6594E+01
      5.237  0.4237E+01  0.4260E+01  0.6961E+01  0.6953E+01
      5.321  0.3059E+01  0.3088E+01  0.7219E+01  0.7213E+01
      5.406  0.2171E+01  0.2188E+01  0.7401E+01  0.7397E+01
      5.490  0.1789E+01  0.1796E+01  0.7552E+01  0.7548E+01
      5.574  0.1556E+01  0.1566E+01  0.7684E+01  0.7681E+01
      5.658  0.1226E+01  0.1235E+01  0.7787E+01  0.7785E+01
      5.742  0.9698E+00  0.9762E+00  0.7869E+01  0.7867E+01
      5.826  0.8917E+00  0.8896E+00  0.7944E+01  0.7942E+01
      5.910  0.1123E+01  0.1120E+01  0.8039E+01  0.8036E+01
      5.995  0.1118E+01  0.1123E+01  0.8133E+01  0.8131E+01
      6.079  0.7840E+00  0.7925E+00  0.8199E+01  0.8198E+01
      6.163  0.4980E+00  0.5014E+00  0.8241E+01  0.8240E+01
      6.247  0.5695E+00  0.5655E+00  0.8289E+01  0.8288E+01
      6.331  0.7619E+00  0.7603E+00  0.8353E+01  0.8352E+01
      6.415  0.7305E+00  0.7323E+00  0.8415E+01  0.8413E+01
      6.499  0.7518E+00  0.7503E+00  0.8478E+01  0.8477E+01
      6.584  0.8600E+00  0.8585E+00  0.8550E+01  0.8549E+01
      6.668  0.8698E+00  0.8693E+00  0.8623E+01  0.8622E+01
      6.752  0.8480E+00  0.8485E+00  0.8695E+01  0.8694E+01
      6.836  0.7385E+00  0.7416E+00  0.8757E+01  0.8756E+01
      6.920  0.6641E+00  0.6636E+00  0.8813E+01  0.8812E+01
      7.004  0.7570E+00  0.7546E+00  0.8877E+01  0.8875E+01
      7.088  0.8987E+00  0.8978E+00  0.8952E+01  0.8951E+01
      7.173  0.9104E+00  0.9120E+00  0.9029E+01  0.9028E+01
      7.257  0.7703E+00  0.7732E+00  0.9094E+01  0.9093E+01
      7.341  0.7115E+00  0.7105E+00  0.9154E+01  0.9153E+01
      7.425  0.9222E+00  0.9189E+00  0.9232E+01  0.9230E+01
      7.509  0.9400E+00  0.9427E+00  0.9311E+01  0.9310E+01
      7.593  0.7585E+00  0.7608E+00  0.9375E+01  0.9374E+01
      7.677  0.6697E+00  0.6711E+00  0.9431E+01  0.9430E+01
      7.762  0.6037E+00  0.6044E+00  0.9482E+01  0.9481E+01
      7.846  0.6181E+00  0.6179E+00  0.9534E+01  0.9533E+01
      7.930  0.5989E+00  0.5992E+00  0.9585E+01  0.9584E+01
      8.014  0.6820E+00  0.6795E+00  0.9642E+01  0.9641E+01
      8.098  0.8293E+00  0.8281E+00  0.9712E+01  0.9711E+01
      8.182  0.8071E+00  0.8086E+00  0.9780E+01  0.9779E+01
      8.267  0.7744E+00  0.7740E+00  0.9845E+01  0.9844E+01
      8.351  0.7971E+00  0.7979E+00  0.9912E+01  0.9911E+01
      8.435  0.7293E+00  0.7303E+00  0.9973E+01  0.9973E+01
      8.519  0.6644E+00  0.6654E+00  0.1003E+02  0.1003E+02
      8.603  0.5744E+00  0.5753E+00  0.1008E+02  0.1008E+02
      8.687  0.5954E+00  0.5945E+00  0.1013E+02  0.1013E+02
      8.771  0.6209E+00  0.6216E+00  0.1018E+02  0.1018E+02
      8.856  0.6369E+00  0.6353E+00  0.1023E+02  0.1023E+02
      8.940  0.7628E+00  0.7613E+00  0.1030E+02  0.1030E+02
      9.024  0.9084E+00  0.9063E+00  0.1037E+02  0.1037E+02
      9.108  0.9434E+00  0.9455E+00  0.1045E+02  0.1045E+02
      9.192  0.7440E+00  0.7459E+00  0.1052E+02  0.1052E+02
      9.276  0.6443E+00  0.6455E+00  0.1057E+02  0.1057E+02
      9.360  0.6483E+00  0.6473E+00  0.1063E+02  0.1062E+02
      9.445  0.7477E+00  0.7470E+00  0.1069E+02  0.1069E+02
      9.529  0.7651E+00  0.7651E+00  0.1075E+02  0.1075E+02
      9.613  0.7931E+00  0.7931E+00  0.1082E+02  0.1082E+02
      9.697  0.8277E+00  0.8270E+00  0.1089E+02  0.1089E+02
      9.781  0.8583E+00  0.8590E+00  0.1096E+02  0.1096E+02
      9.865  0.7017E+00  0.7042E+00  0.1102E+02  0.1102E+02
      9.949  0.6357E+00  0.6350E+00  0.1107E+02  0.1107E+02
     10.034  0.7754E+00  0.7737E+00  0.1114E+02  0.1114E+02
     10.118  0.8210E+00  0.8214E+00  0.1121E+02  0.1121E+02
     10.202  0.7426E+00  0.7438E+00  0.1127E+02  0.1127E+02
     10.286  0.7223E+00  0.7212E+00  0.1133E+02  0.1133E+02
     10.370  0.8736E+00  0.8718E+00  0.1141E+02  0.1140E+02
     10.454  0.9344E+00  0.9350E+00  0.1148E+02  0.1148E+02
     10.539  0.7614E+00  0.7638E+00  0.1155E+02  0.1155E+02
     10.623  0.7237E+00  0.7227E+00  0.1161E+02  0.1161E+02
     10.707  0.8425E+00  0.8414E+00  0.1168E+02  0.1168E+02
     10.791  0.9274E+00  0.9266E+00  0.1176E+02  0.1176E+02
     10.875  0.9757E+00  0.9758E+00  0.1184E+02  0.1184E+02
     10.959  0.8851E+00  0.8868E+00  0.1192E+02  0.1191E+02
     11.043  0.7704E+00  0.7712E+00  0.1198E+02  0.1198E+02
     11.128  0.7701E+00  0.7698E+00  0.1205E+02  0.1204E+02
     11.212  0.7880E+00  0.7878E+00  0.1211E+02  0.1211E+02
     11.296  0.8076E+00  0.8075E+00  0.1218E+02  0.1218E+02
     11.380  0.8061E+00  0.8060E+00  0.1225E+02  0.1225E+02
     11.464  0.8986E+00  0.8967E+00  0.1232E+02  0.1232E+02
     11.548  0.9661E+00  0.9667E+00  0.1240E+02  0.1240E+02
     11.632  0.8300E+00  0.8325E+00  0.1247E+02  0.1247E+02
     11.717  0.6375E+00  0.6393E+00  0.1253E+02  0.1253E+02
     11.801  0.5801E+00  0.5802E+00  0.1258E+02  0.1258E+02
     11.885  0.6333E+00  0.6319E+00  0.1263E+02  0.1263E+02
     11.969  0.8752E+00  0.8723E+00  0.1270E+02  0.1270E+02
     12.053  0.9458E+00  0.9475E+00  0.1278E+02  0.1278E+02
     12.137  0.7620E+00  0.7634E+00  0.1285E+02  0.1285E+02
     12.221  0.7951E+00  0.7931E+00  0.1291E+02  0.1291E+02
     12.306  0.1033E+01  0.1031E+01  0.1300E+02  0.1300E+02
     12.390  0.1136E+01  0.1136E+01  0.1310E+02  0.1310E+02
     12.474  0.1018E+01  0.1021E+01  0.1318E+02  0.1318E+02
     12.558  0.8124E+00  0.8141E+00  0.1325E+02  0.1325E+02
     12.642  0.7351E+00  0.7349E+00  0.1331E+02  0.1331E+02
     12.726  0.7513E+00  0.7514E+00  0.1338E+02  0.1338E+02
     12.810  0.7695E+00  0.7685E+00  0.1344E+02  0.1344E+02
     12.895  0.9251E+00  0.9238E+00  0.1352E+02  0.1352E+02
     12.979  0.9163E+00  0.9171E+00  0.1360E+02  0.1360E+02
     13.063  0.9125E+00  0.9113E+00  0.1367E+02  0.1367E+02
     13.147  0.9647E+00  0.9660E+00  0.1375E+02  0.1375E+02
     13.231  0.7601E+00  0.7627E+00  0.1382E+02  0.1382E+02
     13.315  0.6780E+00  0.6779E+00  0.1388E+02  0.1388E+02
     13.400  0.7523E+00  0.7508E+00  0.1394E+02  0.1394E+02
     13.484  0.9170E+00  0.9159E+00  0.1402E+02  0.1402E+02
     13.568  0.9680E+00  0.9681E+00  0.1410E+02  0.1410E+02
     13.652  0.9841E+00  0.9839E+00  0.1418E+02  0.1418E+02
     13.736  0.9221E+00  0.9223E+00  0.1426E+02  0.1426E+02
     13.820  0.9278E+00  0.9272E+00  0.1434E+02  0.1434E+02
     13.904  0.9430E+00  0.9439E+00  0.1442E+02  0.1442E+02
     13.989  0.8282E+00  0.8291E+00  0.1449E+02  0.1449E+02
     14.073  0.9282E+00  0.9268E+00  0.1456E+02  0.1456E+02
     14.157  0.1047E+01  0.1053E+01  0.1465E+02  0.1465E+02
     14.241  0.9527E+00  0.9600E+00  0.1473E+02  0.1473E+02
     14.325  0.8855E+00  0.8758E+00  0.1481E+02  0.1481E+02
     14.409  0.8844E+00  0.8759E+00  0.1488E+02  0.1488E+02
     14.493  0.9500E+00  0.9568E+00  0.1496E+02  0.1496E+02
     14.578  0.9034E+00  0.9185E+00  0.1504E+02  0.1504E+02
     14.662  0.7808E+00  0.7970E+00  0.1510E+02  0.1511E+02
     14.746  0.6257E+00  0.6358E+00  0.1516E+02  0.1516E+02
     14.830  0.6022E+00  0.5944E+00  0.1521E+02  0.1521E+02
     14.914  0.6330E+00  0.6077E+00  0.1526E+02  0.1526E+02
     14.998  0.5712E+00  0.5495E+00  0.1531E+02  0.1531E+02
     15.082  0.4127E+00  0.3984E+00  0.1534E+02  0.1534E+02
     15.167  0.2593E+00  0.2457E+00  0.1536E+02  0.1536E+02
     15.251  0.2614E+00  0.2774E+00  0.1539E+02  0.1538E+02
     15.335  0.3729E+00  0.3923E+00  0.1542E+02  0.1542E+02
     15.419  0.4491E+00  0.4563E+00  0.1546E+02  0.1546E+02
     15.503  0.4590E+00  0.4599E+00  0.1549E+02  0.1549E+02
     15.587  0.5199E+00  0.5206E+00  0.1554E+02  0.1554E+02
     15.672  0.4175E+00  0.4215E+00  0.1557E+02  0.1557E+02
     15.756  0.2099E+00  0.2101E+00  0.1559E+02  0.1559E+02
     15.840  0.1603E+00  0.1593E+00  0.1560E+02  0.1560E+02
     15.924  0.2342E+00  0.2336E+00  0.1562E+02  0.1562E+02
     16.008  0.2185E+00  0.2192E+00  0.1564E+02  0.1564E+02
     16.092  0.1781E+00  0.1777E+00  0.1566E+02  0.1566E+02
     16.176  0.3061E+00  0.3050E+00  0.1568E+02  0.1568E+02
     16.261  0.3168E+00  0.3176E+00  0.1571E+02  0.1571E+02
     16.345  0.1546E+00  0.1554E+00  0.1572E+02  0.1572E+02
     16.429  0.9175E-01  0.9197E-01  0.1573E+02  0.1573E+02
     16.513  0.8245E-01  0.8269E-01  0.1574E+02  0.1574E+02
     16.597  0.9914E-01  0.9882E-01  0.1575E+02  0.1575E+02
     16.681  0.1164E+00  0.1166E+00  0.1576E+02  0.1576E+02
     16.765  0.8785E-01  0.8771E-01  0.1576E+02  0.1576E+02
     16.850  0.7688E-01  0.7469E-01  0.1577E+02  0.1577E+02
     16.934  0.9543E-01  0.8624E-01  0.1578E+02  0.1578E+02
     17.018  0.1708E+00  0.1644E+00  0.1579E+02  0.1579E+02
     17.102  0.2084E+00  0.2257E+00  0.1581E+02  0.1581E+02
     17.186  0.1792E+00  0.1969E+00  0.1583E+02  0.1583E+02
     17.270  0.1266E+00  0.1202E+00  0.1584E+02  0.1584E+02
     17.354  0.1192E+00  0.1111E+00  0.1585E+02  0.1585E+02
     17.439  0.9894E-01  0.9725E-01  0.1585E+02  0.1585E+02
     17.523  0.4253E-01  0.4269E-01  0.1586E+02  0.1586E+02
     17.607  0.4229E-01  0.4231E-01  0.1586E+02  0.1586E+02
     17.691  0.8831E-01  0.8933E-01  0.1587E+02  0.1587E+02
     17.775  0.1121E+00  0.1164E+00  0.1588E+02  0.1588E+02
     17.859  0.1483E+00  0.1529E+00  0.1589E+02  0.1589E+02
     17.943  0.1730E+00  0.1696E+00  0.1591E+02  0.1591E+02
     18.028  0.1226E+00  0.1177E+00  0.1592E+02  0.1592E+02
     18.112  0.7505E-01  0.7351E-01  0.1592E+02  0.1592E+02
     18.196  0.7345E-01  0.7300E-01  0.1593E+02  0.1593E+02
     18.280  0.7037E-01  0.7002E-01  0.1593E+02  0.1593E+02
     18.364  0.6119E-01  0.6075E-01  0.1594E+02  0.1594E+02
     18.448  0.3617E-01  0.3458E-01  0.1594E+02  0.1594E+02
     18.533  0.3544E-01  0.3496E-01  0.1595E+02  0.1595E+02
     18.617  0.5759E-01  0.5907E-01  0.1595E+02  0.1595E+02
     18.701  0.8992E-01  0.9069E-01  0.1596E+02  0.1596E+02
     18.785  0.7417E-01  0.7479E-01  0.1596E+02  0.1596E+02
     18.869  0.2907E-01  0.2942E-01  0.1597E+02  0.1597E+02
     18.953  0.9730E-02  0.9865E-02  0.1597E+02  0.1597E+02
     19.037  0.1615E-01  0.1638E-01  0.1597E+02  0.1597E+02
     19.122  0.4319E-01  0.4366E-01  0.1597E+02  0.1597E+02
     19.206  0.4602E-01  0.4577E-01  0.1598E+02  0.1598E+02
     19.290  0.1806E-01  0.1772E-01  0.1598E+02  0.1598E+02
     19.374  0.7986E-02  0.7638E-02  0.1598E+02  0.1598E+02
     19.458  0.1911E-01  0.1782E-01  0.1598E+02  0.1598E+02
     19.542  0.4686E-01  0.4395E-01  0.1598E+02  0.1598E+02
     19.626  0.4179E-01  0.4289E-01  0.1599E+02  0.1599E+02
     19.711  0.1403E-01  0.1649E-01  0.1599E+02  0.1599E+02
     19.795  0.3244E-02  0.4014E-02  0.1599E+02  0.1599E+02
     19.879  0.1880E-02  0.2117E-02  0.1599E+02  0.1599E+02
     19.963  0.6497E-02  0.6947E-02  0.1599E+02  0.1599E+02
     20.047  0.2458E-01  0.2543E-01  0.1599E+02  0.1599E+02
     20.131  0.4596E-01  0.4533E-01  0.1600E+02  0.1600E+02
     20.215  0.3509E-01  0.3415E-01  0.1600E+02  0.1600E+02
     20.300  0.1258E-01  0.1270E-01  0.1600E+02  0.1600E+02
     20.384  0.2836E-02  0.2924E-02  0.1600E+02  0.1600E+02
     20.468  0.5490E-03  0.5689E-03  0.1600E+02  0.1600E+02
     20.552  0.7021E-04  0.7727E-04  0.1600E+02  0.1600E+02
     20.636  0.0000E+00  0.0000E+00  0.1600E+02  0.1600E+02
     20.720  0.0000E+00  0.0000E+00  0.1600E+02  0.1600E+02
     20.804  0.0000E+00  0.0000E+00  0.1600E+02  0.1600E+02
     20.889  0.0000E+00  0.0000E+00  0.1600E+02  0.1600E+02
     20.973  0.0000E+00  0.0000E+00  0.1600E+02  0.1600E+02
     21.057  0.0000E+00  0.0000E+00  0.1600E+02  0.1600E+02
     21.141  0.0000E+00  0.0000E+00  0.1600E+02  0.1600E+02
     21.225  0.0000E+00  0.0000E+00  0.1600E+02  0.1600E+02
     21.309  0.0000E+00  0.0000E+00  0.1600E+02  0.1600E+02
     21.30938033     -3.93484797  301      8.47404169      1.00000000
     -3.935  0.0000E+00  0.0000E+00  0.0000E+00  0.0000E+00  0.0000E+00  0.0000E+00  0.0000E+00  0.0000E+00  0.0000E+00  0.0000E+00  0.0000E+00  0.0000E+00  0.0000E+00  0.0000E+00  0.0000E+00  0.0000E+00  0.0000E+00  0.0000E+00
     -3.851  0.0000E+00  0.0000E+00  0.0000E+00  0.0000E+00  0.0000E+00  0.0000E+00  0.0000E+00  0.0000E+00  0.0000E+00  0.0000E+00  0.0000E+00  0.0000E+00  0.0000E+00  0.0000E+00  0.0000E+00  0.0000E+00  0.0000E+00  0.0000E+00
     -3.767  0.0000E+00  0.0000E+00  0.0000E+00  0.0000E+00  0.0000E+00  0.0000E+00  0.0000E+00  0.0000E+00  0.0000E+00  0.0000E+00  0.0000E+00  0.0000E+00  0.0000E+00  0.0000E+00  0.0000E+00  0.0000E+00  0.0000E+00  0.0000E+00
     -3.682  0.0000E+00  0.0000E+00  0.0000E+00  0.0000E+00  0.0000E+00  0.0000E+00  0.0000E+00  0.0000E+00  0.0000E+00  0.0000E+00  0.0000E+00  0.0000E+00  0.0000E+00  0.0000E+00  0.0000E+00  0.0000E+00  0.0000E+00  0.0000E+00
     -3.598  0.0000E+00  0.0000E+00  0.0000E+00  0.0000E+00  0.0000E+00  0.0000E+00  0.0000E+00  0.0000E+00  0.0000E+00  0.0000E+00  0.0000E+00  0.0000E+00  0.0000E+00  0.0000E+00  0.0000E+00  0.0000E+00  0.0000E+00  0.0000E+00
     -3.514  0.0000E+00  0.0000E+00  0.0000E+00  0.0000E+00  0.0000E+00  0.0000E+00  0.0000E+00  0.0000E+00  0.0000E+00  0.0000E+00  0.0000E+00  0.0000E+00  0.0000E+00  0.0000E+00  0.0000E+00  0.0000E+00  0.0000E+00  0.0000E+00
     -3.430  0.0000E+00  0.0000E+00  0.0000E+00  0.0000E+00  0.0000E+00  0.0000E+00  0.0000E+00  0.0000E+00  0.0000E+00  0.0000E+00  0.0000E+00  0.0000E+00  0.0000E+00  0.0000E+00  0.0000E+00  0.0000E+00  0.0000E+00  0.0000E+00
     -3.346  0.0000E+00  0.0000E+00  0.0000E+00  0.0000E+00  0.0000E+00  0.0000E+00  0.0000E+00  0.0000E+00  0.0000E+00  0.0000E+00  0.0000E+00  0.0000E+00  0.0000E+00  0.0000E+00  0.0000E+00  0.0000E+00  0.0000E+00  0.0000E+00
     -3.262  0.3515E-07  0.3450E-07  0.1170E-20  0.2520E-21  0.1170E-20  0.2520E-21  0.6240E-22  0.7361E-22  0.9897E-15  0.1129E-15  0.8091E-15  0.2227E-15  0.1945E-17  0.1452E-16  0.9897E-15  0.1129E-15  0.1891E-17  0.1977E-16
     -3.178  0.5062E-06  0.4967E-06  0.7558E-09  0.7418E-09  0.7558E-09  0.7418E-09  0.7555E-09  0.7416E-09  0.4949E-14  0.5563E-15  0.6066E-14  0.9903E-15  0.2575E-11  0.2885E-11  0.4949E-14  0.5563E-15  0.3328E-11  0.3703E-11
     -3.093  0.3791E-05  0.3720E-05  0.9962E-08  0.9778E-08  0.9962E-08  0.9778E-08  0.9961E-08  0.9777E-08  0.6339E-10  0.6047E-10  0.6339E-10  0.6048E-10  0.2442E-10  0.2423E-10  0.6339E-10  0.6047E-10  0.2480E-10  0.2522E-10
     -3.009  0.1920E-04  0.1884E-04  0.4957E-07  0.4865E-07  0.4957E-07  0.4865E-07  0.4956E-07  0.4865E-07  0.2775E-09  0.2647E-09  0.2775E-09  0.2648E-09  0.1582E-09  0.1592E-09  0.2775E-09  0.2647E-09  0.1746E-09  0.1786E-09
     -2.925  0.1027E-03  0.1008E-03  0.2841E-06  0.2789E-06  0.2841E-06  0.2789E-06  0.2841E-06  0.2789E-06  0.1767E-08  0.1701E-08  0.1783E-08  0.1702E-08  0.1040E-08  0.1040E-08  0.1767E-08  0.1701E-08  0.1154E-08  0.1171E-08
     -2.841  0.4974E-03  0.4892E-03  0.1483E-05  0.1457E-05  0.1483E-05  0.1457E-05  0.1482E-05  0.1456E-05  0.1015E-07  0.9763E-08  0.1021E-07  0.9766E-08  0.5411E-08  0.5402E-08  0.1015E-07  0.9763E-08  0.6025E-08  0.6098E-08
     -2.757  0.1841E-02  0.1818E-02  0.6523E-05  0.6426E-05  0.6523E-05  0.6426E-05  0.6522E-05  0.6425E-05  0.4930E-07  0.4761E-07  0.4967E-07  0.4762E-07  0.2466E-07  0.2446E-07  0.4930E-07  0.4761E-07  0.2724E-07  0.2738E-07
     -2.673  0.4233E-02  0.4205E-02  0.2019E-04  0.1998E-04  0.2019E-04  0.1998E-04  0.2019E-04  0.1998E-04  0.1914E-06  0.1867E-06  0.1933E-06  0.1868E-06  0.9073E-07  0.8930E-07  0.1914E-06  0.1867E-06  0.1020E-06  0.1014E-06
     -2.588  0.6149E-02  0.6130E-02  0.4356E-04  0.4322E-04  0.4356E-04  0.4322E-04  0.4354E-04  0.4320E-04  0.5194E-06  0.5135E-06  0.5282E-06  0.5136E-06  0.2924E-06  0.2899E-06  0.5194E-06  0.5135E-06  0.3457E-06  0.3443E-06
     -2.504  0.8342E-02  0.8310E-02  0.8513E-04  0.8456E-04  0.8513E-04  0.8456E-04  0.8511E-04  0.8454E-04  0.1302E-05  0.1292E-05  0.1329E-05  0.1292E-05  0.7439E-06  0.7417E-06  0.1302E-05  0.1292E-05  0.8879E-06  0.8881E-06
     -2.420  0.9984E-02  0.9984E-02  0.1252E-03  0.1249E-03  0.1252E-03  0.1249E-03  0.1252E-03  0.1249E-03  0.2565E-05  0.2542E-05  0.2593E-05  0.2542E-05  0.1129E-05  0.1126E-05  0.2565E-05  0.2542E-05  0.1323E-05  0.1323E-05
     -2.336  0.9227E-02  0.9225E-02  0.1484E-03  0.1479E-03  0.1484E-03  0.1479E-03  0.1483E-03  0.1478E-03  0.4038E-05  0.3990E-05  0.4048E-05  0.3991E-05  0.1710E-05  0.1691E-05  0.4038E-05  0.3990E-05  0.1919E-05  0.1902E-05
     -2.252  0.1151E-01  0.1147E-01  0.2329E-03  0.2317E-03  0.2329E-03  0.2317E-03  0.2327E-03  0.2316E-03  0.6941E-05  0.6873E-05  0.6942E-05  0.6873E-05  0.3737E-05  0.3700E-05  0.6941E-05  0.6873E-05  0.4328E-05  0.4287E-05
     -2.168  0.1337E-01  0.1337E-01  0.3080E-03  0.3076E-03  0.3080E-03  0.3076E-03  0.3080E-03  0.3075E-03  0.9525E-05  0.9451E-05  0.9524E-05  0.9452E-05  0.6070E-05  0.6042E-05  0.9525E-05  0.9451E-05  0.7323E-05  0.7290E-05
     -2.084  0.1266E-01  0.1267E-01  0.3352E-03  0.3347E-03  0.3352E-03  0.3347E-03  0.3352E-03  0.3348E-03  0.1389E-04  0.1375E-04  0.1389E-04  0.1376E-04  0.6480E-05  0.6455E-05  0.1389E-04  0.1375E-04  0.7671E-05  0.7646E-05
     -1.999  0.1366E-01  0.1365E-01  0.4152E-03  0.4142E-03  0.4152E-03  0.4142E-03  0.4152E-03  0.4141E-03  0.2225E-04  0.2207E-04  0.2225E-04  0.2207E-04  0.7749E-05  0.7702E-05  0.2225E-04  0.2207E-04  0.8687E-05  0.8637E-05
     -1.915  0.1325E-01  0.1328E-01  0.4457E-03  0.4460E-03  0.4457E-03  0.4460E-03  0.4455E-03  0.4458E-03  0.2510E-04  0.2502E-04  0.2509E-04  0.2501E-04  0.9918E-05  0.9872E-05  0.2510E-04  0.2502E-04  0.1144E-04  0.1138E-04
     -1.831  0.1289E-01  0.1286E-01  0.5070E-03  0.5049E-03  0.5070E-03  0.5049E-03  0.5064E-03  0.5042E-03  0.2796E-04  0.2773E-04  0.2797E-04  0.2774E-04  0.1601E-04  0.1589E-04  0.2796E-04  0.2773E-04  0.1940E-04  0.1926E-04
     -1.747  0.1679E-01  0.1676E-01  0.7259E-03  0.7240E-03  0.7259E-03  0.7240E-03  0.7257E-03  0.7237E-03  0.4442E-04  0.4405E-04  0.4445E-04  0.4409E-04  0.2508E-04  0.2497E-04  0.4442E-04  0.4405E-04  0.2993E-04  0.2983E-04
     -1.663  0.1711E-01  0.1711E-01  0.7954E-03  0.7950E-03  0.7954E-03  0.7950E-03  0.7955E-03  0.7951E-03  0.5810E-04  0.5768E-04  0.5812E-04  0.5770E-04  0.2738E-04  0.2731E-04  0.5810E-04  0.5768E-04  0.3146E-04  0.3140E-04
     -1.579  0.1661E-01  0.1662E-01  0.8401E-03  0.8397E-03  0.8401E-03  0.8397E-03  0.8402E-03  0.8398E-03  0.7158E-04  0.7110E-04  0.7156E-04  0.7107E-04  0.2874E-04  0.2869E-04  0.7158E-04  0.7110E-04  0.3309E-04  0.3302E-04
     -1.495  0.1429E-01  0.1433E-01  0.7722E-03  0.7738E-03  0.7722E-03  0.7738E-03  0.7728E-03  0.7743E-03  0.7756E-04  0.7728E-04  0.7752E-04  0.7721E-04  0.2414E-04  0.2417E-04  0.7756E-04  0.7728E-04  0.2796E-04  0.2799E-04
     -1.410  0.1249E-01  0.1247E-01  0.7633E-03  0.7608E-03  0.7633E-03  0.7608E-03  0.7621E-03  0.7596E-03  0.8355E-04  0.8304E-04  0.8365E-04  0.8309E-04  0.2779E-04  0.2759E-04  0.8355E-04  0.8304E-04  0.3234E-04  0.3211E-04
     -1.326  0.1701E-01  0.1695E-01  0.1164E-02  0.1159E-02  0.1164E-02  0.1159E-02  0.1162E-02  0.1156E-02  0.1218E-03  0.1210E-03  0.1219E-03  0.1210E-03  0.5487E-04  0.5455E-04  0.1218E-03  0.1210E-03  0.6393E-04  0.6355E-04
     -1.242  0.1969E-01  0.1970E-01  0.1437E-02  0.1437E-02  0.1437E-02  0.1437E-02  0.1437E-02  0.1437E-02  0.1494E-03  0.1490E-03  0.1494E-03  0.1489E-03  0.7415E-04  0.7421E-04  0.1494E-03  0.1490E-03  0.8769E-04  0.8774E-04
     -1.158  0.1779E-01  0.1779E-01  0.1396E-02  0.1395E-02  0.1396E-02  0.1395E-02  0.1396E-02  0.1395E-02  0.1666E-03  0.1660E-03  0.1667E-03  0.1659E-03  0.7086E-04  0.7093E-04  0.1666E-03  0.1660E-03  0.8488E-04  0.8499E-04
     -1.074  0.1803E-01  0.1805E-01  0.1510E-02  0.1511E-02  0.1510E-02  0.1511E-02  0.1510E-02  0.1511E-02  0.2015E-03  0.2013E-03  0.2016E-03  0.2013E-03  0.7724E-04  0.7734E-04  0.2015E-03  0.2013E-03  0.9214E-04  0.9231E-04
     -0.990  0.1384E-01  0.1389E-01  0.1234E-02  0.1237E-02  0.1234E-02  0.1237E-02  0.1236E-02  0.1238E-02  0.1853E-03  0.1851E-03  0.1853E-03  0.1852E-03  0.6525E-04  0.6552E-04  0.1853E-03  0.1851E-03  0.7546E-04  0.7585E-04
     -0.906  0.1434E-01  0.1429E-01  0.1398E-02  0.1392E-02  0.1398E-02  0.1392E-02  0.1397E-02  0.1390E-02  0.2611E-03  0.2597E-03  0.2614E-03  0.2600E-03  0.6859E-04  0.6845E-04  0.2611E-03  0.2597E-03  0.7514E-04  0.7502E-04
     -0.821  0.1826E-01  0.1824E-01  0.1975E-02  0.1969E-02  0.1975E-02  0.1969E-02  0.1971E-02  0.1965E-02  0.3751E-03  0.3746E-03  0.3752E-03  0.3747E-03  0.9512E-04  0.9479E-04  0.3751E-03  0.3746E-03  0.1058E-03  0.1054E-03
     -0.737  0.1746E-01  0.1750E-01  0.2253E-02  0.2252E-02  0.2253E-02  0.2252E-02  0.2249E-02  0.2247E-02  0.3780E-03  0.3788E-03  0.3777E-03  0.3785E-03  0.1124E-03  0.1123E-03  0.3780E-03  0.3788E-03  0.1296E-03  0.1295E-03
     -0.653  0.1453E-01  0.1455E-01  0.2262E-02  0.2262E-02  0.2262E-02  0.2262E-02  0.2261E-02  0.2261E-02  0.3570E-03  0.3569E-03  0.3570E-03  0.3570E-03  0.1143E-03  0.1145E-03  0.3570E-03  0.3569E-03  0.1362E-03  0.1364E-03
     -0.569  0.1304E-01  0.1305E-01  0.2289E-02  0.2287E-02  0.2289E-02  0.2287E-02  0.2287E-02  0.2285E-02  0.4072E-03  0.4060E-03  0.4076E-03  0.4065E-03  0.1156E-03  0.1159E-03  0.4072E-03  0.4060E-03  0.1379E-03  0.1383E-03
     -0.485  0.1403E-01  0.1400E-01  0.2589E-02  0.2585E-02  0.2589E-02  0.2585E-02  0.2590E-02  0.2585E-02  0.5642E-03  0.5613E-03  0.5650E-03  0.5621E-03  0.1290E-03  0.1291E-03  0.5642E-03  0.5613E-03  0.1477E-03  0.1479E-03
     -0.401  0.1599E-01  0.1599E-01  0.2727E-02  0.2727E-02  0.2727E-02  0.2727E-02  0.2730E-02  0.2730E-02  0.7676E-03  0.7655E-03  0.7679E-03  0.7657E-03  0.1311E-03  0.1312E-03  0.7676E-03  0.7655E-03  0.1420E-03  0.1422E-03
     -0.317  0.1459E-01  0.1461E-01  0.2725E-02  0.2724E-02  0.2725E-02  0.2724E-02  0.2722E-02  0.2721E-02  0.8480E-03  0.8465E-03  0.8482E-03  0.8466E-03  0.1266E-03  0.1266E-03  0.8480E-03  0.8465E-03  0.1395E-03  0.1396E-03
     -0.232  0.1275E-01  0.1278E-01  0.2717E-02  0.2721E-02  0.2717E-02  0.2721E-02  0.2719E-02  0.2722E-02  0.8954E-03  0.8953E-03  0.8949E-03  0.8947E-03  0.1248E-03  0.1253E-03  0.8954E-03  0.8953E-03  0.1389E-03  0.1395E-03
     -0.148  0.8873E-02  0.8921E-02  0.2029E-02  0.2038E-02  0.2029E-02  0.2038E-02  0.2034E-02  0.2043E-02  0.7357E-03  0.7371E-03  0.7344E-03  0.7357E-03  0.9148E-04  0.9215E-04  0.7357E-03  0.7371E-03  0.1022E-03  0.1029E-03
     -0.064  0.7864E-02  0.7845E-02  0.1873E-02  0.1869E-02  0.1873E-02  0.1869E-02  0.1873E-02  0.1869E-02  0.8164E-03  0.8124E-03  0.8173E-03  0.8132E-03  0.8709E-04  0.8695E-04  0.8164E-03  0.8124E-03  0.9807E-04  0.9790E-04
      0.020  0.1133E-01  0.1129E-01  0.2348E-02  0.2342E-02  0.2348E-02  0.2342E-02  0.2347E-02  0.2340E-02  0.1209E-02  0.1204E-02  0.1212E-02  0.1206E-02  0.1552E-03  0.1542E-03  0.1209E-02  0.1204E-02  0.1723E-03  0.1711E-03
      0.104  0.1554E-01  0.1551E-01  0.2823E-02  0.2821E-02  0.2823E-02  0.2821E-02  0.2818E-02  0.2816E-02  0.1543E-02  0.1540E-02  0.1544E-02  0.1541E-02  0.3512E-03  0.3488E-03  0.1543E-02  0.1540E-02  0.4116E-03  0.4086E-03
      0.188  0.1922E-01  0.1919E-01  0.2805E-02  0.2808E-02  0.2805E-02  0.2808E-02  0.2805E-02  0.2809E-02  0.1509E-02  0.1510E-02  0.1507E-02  0.1508E-02  0.6453E-03  0.6437E-03  0.1509E-02  0.1510E-02  0.7942E-03  0.7919E-03
      0.273  0.2042E-01  0.2043E-01  0.2512E-02  0.2517E-02  0.2512E-02  0.2517E-02  0.2516E-02  0.2521E-02  0.1391E-02  0.1391E-02  0.1388E-02  0.1389E-02  0.7746E-03  0.7752E-03  0.1391E-02  0.1391E-02  0.9645E-03  0.9652E-03