   4   4   1   0
  0.1757909E+02  0.4126853E-09  0.4127800E-09  0.4127800E-09  0.5000000E-15
  1.000000000000000E-004
  CAR 
 unknown system                          
     18.09593702     -4.44583231  301      6.61579419      1.00000000
     -4.446  0.0000E+00  0.0000E+00  0.0000E+00  0.0000E+00
     -4.371  0.0000E+00  0.0000E+00  0.0000E+00  0.0000E+00
     -4.296  0.0000E+00  0.0000E+00  0.0000E+00  0.0000E+00
     -4.220  0.0000E+00  0.0000E+00  0.0000E+00  0.0000E+00
     -4.145  0.0000E+00  0.0000E+00  0.0000E+00  0.0000E+00
     -4.070  0.0000E+00  0.0000E+00  0.0000E+00  0.0000E+00
     -3.995  0.0000E+00  0.0000E+00  0.0000E+00  0.0000E+00
     -3.920  0.0000E+00  0.0000E+00  0.0000E+00  0.0000E+00
     -3.845  0.3997E-05  0.3987E-05  0.3003E-06  0.2996E-06
     -3.770  0.2274E-04  0.2268E-04  0.2009E-05  0.2004E-05
     -3.694  0.1027E-03  0.1024E-03  0.9725E-05  0.9701E-05
     -3.619  0.4767E-03  0.4756E-03  0.4555E-04  0.4543E-04
     -3.544  0.2080E-02  0.2076E-02  0.2019E-03  0.2014E-03
     -3.469  0.8334E-02  0.8316E-02  0.8280E-03  0.8262E-03
     -3.394  0.2653E-01  0.2649E-01  0.2822E-02  0.2817E-02
     -3.319  0.5680E-01  0.5675E-01  0.7090E-02  0.7081E-02
     -3.244  0.8433E-01  0.8428E-01  0.1343E-01  0.1341E-01
     -3.168  0.1146E+00  0.1146E+00  0.2204E-01  0.2202E-01
     -3.093  0.1352E+00  0.1352E+00  0.3220E-01  0.3218E-01
     -3.018  0.1354E+00  0.1354E+00  0.4237E-01  0.4235E-01
     -2.943  0.1665E+00  0.1664E+00  0.5488E-01  0.5486E-01
     -2.868  0.1903E+00  0.1903E+00  0.6918E-01  0.6916E-01
     -2.793  0.1889E+00  0.1889E+00  0.8338E-01  0.8336E-01
     -2.718  0.2036E+00  0.2036E+00  0.9869E-01  0.9866E-01
     -2.642  0.2005E+00  0.2005E+00  0.1138E+00  0.1137E+00
     -2.567  0.2121E+00  0.2120E+00  0.1297E+00  0.1297E+00
     -2.492  0.2623E+00  0.2623E+00  0.1494E+00  0.1494E+00
     -2.417  0.2712E+00  0.2712E+00  0.1698E+00  0.1698E+00
     -2.342  0.2655E+00  0.2655E+00  0.1898E+00  0.1897E+00
     -2.267  0.2332E+00  0.2333E+00  0.2073E+00  0.2073E+00
     -2.192  0.2321E+00  0.2320E+00  0.2248E+00  0.2247E+00
     -2.117  0.3097E+00  0.3096E+00  0.2480E+00  0.2480E+00
     -2.041  0.3431E+00  0.3431E+00  0.2738E+00  0.2738E+00
     -1.966  0.3308E+00  0.3308E+00  0.2987E+00  0.2987E+00
     -1.891  0.3243E+00  0.3244E+00  0.3231E+00  0.3231E+00
     -1.816  0.2712E+00  0.2712E+00  0.3435E+00  0.3434E+00
     -1.741  0.3131E+00  0.3130E+00  0.3670E+00  0.3670E+00
     -1.666  0.3950E+00  0.3950E+00  0.3967E+00  0.3967E+00
     -1.591  0.4028E+00  0.4028E+00  0.4270E+00  0.4270E+00
     -1.515  0.3719E+00  0.3720E+00  0.4550E+00  0.4549E+00
     -1.440  0.3696E+00  0.3696E+00  0.4827E+00  0.4827E+00
     -1.365  0.3970E+00  0.3969E+00  0.5126E+00  0.5125E+00
     -1.290  0.4243E+00  0.4243E+00  0.5445E+00  0.5444E+00
     -1.215  0.4208E+00  0.4209E+00  0.5761E+00  0.5761E+00
     -1.140  0.3714E+00  0.3715E+00  0.6040E+00  0.6040E+00
     -1.065  0.2817E+00  0.2818E+00  0.6252E+00  0.6252E+00
     -0.989  0.2862E+00  0.2861E+00  0.6468E+00  0.6467E+00
     -0.914  0.3620E+00  0.3619E+00  0.6740E+00  0.6740E+00
     -0.839  0.4166E+00  0.4166E+00  0.7053E+00  0.7053E+00
     -0.764  0.4132E+00  0.4131E+00  0.7364E+00  0.7364E+00
     -0.689  0.4032E+00  0.4032E+00  0.7667E+00  0.7667E+00
     -0.614  0.3706E+00  0.3705E+00  0.7946E+00  0.7945E+00
     -0.539  0.4110E+00  0.4109E+00  0.8255E+00  0.8254E+00
     -0.463  0.4751E+00  0.4752E+00  0.8612E+00  0.8612E+00
     -0.388  0.4604E+00  0.4603E+00  0.8958E+00  0.8958E+00
     -0.313  0.4128E+00  0.4128E+00  0.9268E+00  0.9268E+00
     -0.238  0.3764E+00  0.3765E+00  0.9551E+00  0.9551E+00
     -0.163  0.3769E+00  0.3768E+00  0.9835E+00  0.9834E+00
     -0.088  0.4568E+00  0.4568E+00  0.1018E+01  0.1018E+01
     -0.013  0.5316E+00  0.5314E+00  0.1058E+01  0.1058E+01
      0.063  0.5476E+00  0.5475E+00  0.1099E+01  0.1099E+01
      0.138  0.5180E+00  0.5181E+00  0.1138E+01  0.1138E+01
      0.213  0.4695E+00  0.4696E+00  0.1173E+01  0.1173E+01
      0.288  0.4532E+00  0.4532E+00  0.1207E+01  0.1207E+01
      0.363  0.4797E+00  0.4796E+00  0.1243E+01  0.1243E+01
      0.438  0.5108E+00  0.5107E+00  0.1282E+01  0.1282E+01
      0.513  0.4605E+00  0.4606E+00  0.1316E+01  0.1316E+01
      0.588  0.4080E+00  0.4080E+00  0.1347E+01  0.1347E+01
      0.664  0.4941E+00  0.4939E+00  0.1384E+01  0.1384E+01
      0.739  0.5932E+00  0.5930E+00  0.1429E+01  0.1429E+01
      0.814  0.6255E+00  0.6254E+00  0.1476E+01  0.1476E+01
      0.889  0.6273E+00  0.6274E+00  0.1523E+01  0.1523E+01
      0.964  0.5778E+00  0.5779E+00  0.1566E+01  0.1566E+01
      1.039  0.6517E+00  0.6515E+00  0.1615E+01  0.1615E+01
      1.114  0.7510E+00  0.7511E+00  0.1672E+01  0.1672E+01
      1.190  0.6541E+00  0.6543E+00  0.1721E+01  0.1721E+01
      1.265  0.5275E+00  0.5277E+00  0.1761E+01  0.1761E+01
      1.340  0.4681E+00  0.4681E+00  0.1796E+01  0.1796E+01
      1.415  0.5882E+00  0.5880E+00  0.1840E+01  0.1840E+01
      1.490  0.7461E+00  0.7461E+00  0.1896E+01  0.1896E+01
      1.565  0.7064E+00  0.7066E+00  0.1949E+01  0.1949E+01
      1.640  0.6504E+00  0.6505E+00  0.1998E+01  0.1998E+01
      1.716  0.7114E+00  0.7112E+00  0.2052E+01  0.2052E+01
      1.791  0.8616E+00  0.8615E+00  0.2117E+01  0.2117E+01
      1.866  0.8399E+00  0.8400E+00  0.2180E+01  0.2180E+01
      1.941  0.7626E+00  0.7628E+00  0.2237E+01  0.2237E+01
      2.016  0.7004E+00  0.7004E+00  0.2290E+01  0.2290E+01
      2.091  0.6806E+00  0.6807E+00  0.2341E+01  0.2341E+01
      2.166  0.7218E+00  0.7218E+00  0.2395E+01  0.2395E+01
      2.242  0.7297E+00  0.7299E+00  0.2450E+01  0.2450E+01
      2.317  0.7490E+00  0.7492E+00  0.2506E+01  0.2506E+01
      2.392  0.8042E+00  0.8045E+00  0.2567E+01  0.2567E+01
      2.467  0.8515E+00  0.8515E+00  0.2631E+01  0.2631E+01
      2.542  0.8914E+00  0.8915E+00  0.2698E+01  0.2698E+01
      2.617  0.9720E+00  0.9722E+00  0.2771E+01  0.2771E+01
      2.692  0.1138E+01  0.1138E+01  0.2857E+01  0.2857E+01
      2.768  0.1170E+01  0.1171E+01  0.2945E+01  0.2945E+01
      2.843  0.1208E+01  0.1209E+01  0.3035E+01  0.3036E+01
      2.918  0.1371E+01  0.1373E+01  0.3138E+01  0.3139E+01
      2.993  0.1576E+01  0.1577E+01  0.3257E+01  0.3257E+01
      3.068  0.1737E+01  0.1740E+01  0.3388E+01  0.3388E+01
      3.143  0.2235E+01  0.2240E+01  0.3556E+01  0.3556E+01
      3.218  0.3541E+01  0.3548E+01  0.3822E+01  0.3823E+01
      3.294  0.5428E+01  0.5429E+01  0.4230E+01  0.4231E+01
      3.369  0.6579E+01  0.6574E+01  0.4724E+01  0.4725E+01
      3.444  0.6322E+01  0.6317E+01  0.5199E+01  0.5200E+01
      3.519  0.5055E+01  0.5052E+01  0.5579E+01  0.5580E+01
      3.594  0.3728E+01  0.3730E+01  0.5859E+01  0.5860E+01
      3.669  0.2955E+01  0.2970E+01  0.6082E+01  0.6084E+01
      3.744  0.3660E+01  0.3690E+01  0.6357E+01  0.6361E+01
      3.819  0.5061E+01  0.5067E+01  0.6738E+01  0.6743E+01
      3.895  0.4590E+01  0.4567E+01  0.7083E+01  0.7086E+01
      3.970  0.3313E+01  0.3296E+01  0.7332E+01  0.7334E+01
      4.045  0.2496E+01  0.2489E+01  0.7520E+01  0.7521E+01
      4.120  0.2051E+01  0.2047E+01  0.7674E+01  0.7675E+01
      4.195  0.1559E+01  0.1555E+01  0.7792E+01  0.7792E+01
      4.270  0.1208E+01  0.1206E+01  0.7883E+01  0.7883E+01
      4.345  0.1171E+01  0.1171E+01  0.7971E+01  0.7971E+01
      4.421  0.1296E+01  0.1296E+01  0.8069E+01  0.8069E+01
      4.496  0.1169E+01  0.1168E+01  0.8157E+01  0.8157E+01
      4.571  0.8110E+00  0.8097E+00  0.8218E+01  0.8218E+01
      4.646  0.6414E+00  0.6409E+00  0.8266E+01  0.8266E+01
      4.721  0.8248E+00  0.8247E+00  0.8328E+01  0.8328E+01
      4.796  0.9828E+00  0.9828E+00  0.8402E+01  0.8402E+01
      4.871  0.1060E+01  0.1060E+01  0.8482E+01  0.8482E+01
      4.947  0.1146E+01  0.1146E+01  0.8568E+01  0.8568E+01
      5.022  0.1170E+01  0.1170E+01  0.8656E+01  0.8656E+01
      5.097  0.1128E+01  0.1128E+01  0.8740E+01  0.8740E+01
      5.172  0.9799E+00  0.9796E+00  0.8814E+01  0.8814E+01
      5.247  0.8583E+00  0.8580E+00  0.8879E+01  0.8879E+01
      5.322  0.8407E+00  0.8407E+00  0.8942E+01  0.8942E+01
      5.397  0.8248E+00  0.8249E+00  0.9004E+01  0.9004E+01
      5.473  0.8706E+00  0.8705E+00  0.9069E+01  0.9069E+01
      5.548  0.9352E+00  0.9351E+00  0.9140E+01  0.9140E+01
      5.623  0.9514E+00  0.9511E+00  0.9211E+01  0.9211E+01
      5.698  0.1027E+01  0.1027E+01  0.9288E+01  0.9288E+01
      5.773  0.9450E+00  0.9451E+00  0.9359E+01  0.9359E+01
      5.848  0.7549E+00  0.7549E+00  0.9416E+01  0.9416E+01
      5.923  0.6794E+00  0.6795E+00  0.9467E+01  0.9467E+01
      5.999  0.6708E+00  0.6709E+00  0.9518E+01  0.9518E+01
      6.074  0.6580E+00  0.6580E+00  0.9567E+01  0.9567E+01
      6.149  0.7365E+00  0.7363E+00  0.9623E+01  0.9623E+01
      6.224  0.8802E+00  0.8801E+00  0.9689E+01  0.9689E+01
      6.299  0.8313E+00  0.8312E+00  0.9751E+01  0.9751E+01
      6.374  0.7549E+00  0.7548E+00  0.9808E+01  0.9808E+01
      6.449  0.7776E+00  0.7774E+00  0.9867E+01  0.9867E+01
      6.524  0.7931E+00  0.7932E+00  0.9926E+01  0.9926E+01
      6.600  0.8117E+00  0.8120E+00  0.9987E+01  0.9987E+01
      6.675  0.7688E+00  0.7691E+00  0.1005E+02  0.1005E+02
      6.750  0.7026E+00  0.7027E+00  0.1010E+02  0.1010E+02
      6.825  0.6439E+00  0.6438E+00  0.1015E+02  0.1015E+02
      6.900  0.7154E+00  0.7152E+00  0.1020E+02  0.1020E+02
      6.975  0.7948E+00  0.7948E+00  0.1026E+02  0.1026E+02
      7.050  0.7954E+00  0.7953E+00  0.1032E+02  0.1032E+02
      7.126  0.8381E+00  0.8378E+00  0.1038E+02  0.1038E+02
      7.201  0.8950E+00  0.8952E+00  0.1045E+02  0.1045E+02
      7.276  0.9074E+00  0.9077E+00  0.1052E+02  0.1052E+02
      7.351  0.1065E+01  0.1065E+01  0.1060E+02  0.1060E+02
      7.426  0.1140E+01  0.1140E+01  0.1068E+02  0.1068E+02
      7.501  0.1017E+01  0.1017E+01  0.1076E+02  0.1076E+02
      7.576  0.1003E+01  0.1003E+01  0.1084E+02  0.1084E+02
      7.652  0.8755E+00  0.8757E+00  0.1090E+02  0.1090E+02
      7.727  0.7739E+00  0.7739E+00  0.1096E+02  0.1096E+02
      7.802  0.8364E+00  0.8362E+00  0.1102E+02  0.1102E+02
      7.877  0.8160E+00  0.8158E+00  0.1108E+02  0.1108E+02
      7.952  0.8106E+00  0.8105E+00  0.1115E+02  0.1115E+02
      8.027  0.8167E+00  0.8166E+00  0.1121E+02  0.1121E+02
      8.102  0.7909E+00  0.7910E+00  0.1127E+02  0.1127E+02
      8.178  0.8139E+00  0.8141E+00  0.1133E+02  0.1133E+02
      8.253  0.8915E+00  0.8915E+00  0.1139E+02  0.1139E+02
      8.328  0.8766E+00  0.8766E+00  0.1146E+02  0.1146E+02
      8.403  0.8784E+00  0.8784E+00  0.1153E+02  0.1153E+02
      8.478  0.1001E+01  0.1001E+01  0.1160E+02  0.1160E+02
      8.553  0.1037E+01  0.1037E+01  0.1168E+02  0.1168E+02
      8.628  0.1001E+01  0.1001E+01  0.1175E+02  0.1175E+02
      8.704  0.8952E+00  0.8952E+00  0.1182E+02  0.1182E+02
      8.779  0.7595E+00  0.7594E+00  0.1188E+02  0.1188E+02
      8.854  0.8921E+00  0.8919E+00  0.1195E+02  0.1195E+02
      8.929  0.1010E+01  0.1010E+01  0.1202E+02  0.1202E+02
      9.004  0.8605E+00  0.8604E+00  0.1209E+02  0.1209E+02
      9.079  0.8919E+00  0.8917E+00  0.1215E+02  0.1215E+02
      9.154  0.1033E+01  0.1033E+01  0.1223E+02  0.1223E+02
      9.230  0.9559E+00  0.9561E+00  0.1230E+02  0.1230E+02
      9.305  0.7962E+00  0.7962E+00  0.1236E+02  0.1236E+02
      9.380  0.7417E+00  0.7417E+00  0.1242E+02  0.1242E+02
      9.455  0.8585E+00  0.8583E+00  0.1248E+02  0.1248E+02
      9.530  0.9726E+00  0.9727E+00  0.1256E+02  0.1256E+02
      9.605  0.7786E+00  0.7788E+00  0.1262E+02  0.1262E+02
      9.680  0.7179E+00  0.7178E+00  0.1267E+02  0.1267E+02
      9.755  0.9681E+00  0.9678E+00  0.1274E+02  0.1274E+02
      9.831  0.1217E+01  0.1216E+01  0.1283E+02  0.1283E+02
      9.906  0.1143E+01  0.1143E+01  0.1292E+02  0.1292E+02
      9.981  0.9649E+00  0.9650E+00  0.1299E+02  0.1299E+02
     10.056  0.1049E+01  0.1049E+01  0.1307E+02  0.1307E+02
     10.131  0.1169E+01  0.1169E+01  0.1316E+02  0.1316E+02
     10.206  0.1137E+01  0.1137E+01  0.1324E+02  0.1324E+02
     10.281  0.1002E+01  0.1002E+01  0.1332E+02  0.1332E+02
     10.357  0.8871E+00  0.8871E+00  0.1339E+02  0.1339E+02
     10.432  0.8252E+00  0.8254E+00  0.1345E+02  0.1345E+02
     10.507  0.8892E+00  0.8894E+00  0.1352E+02  0.1352E+02
     10.582  0.1014E+01  0.1014E+01  0.1359E+02  0.1359E+02
     10.657  0.9037E+00  0.9037E+00  0.1366E+02  0.1366E+02
     10.732  0.8100E+00  0.8098E+00  0.1372E+02  0.1372E+02
     10.807  0.8741E+00  0.8739E+00  0.1379E+02  0.1379E+02
     10.883  0.9906E+00  0.9907E+00  0.1386E+02  0.1386E+02
     10.958  0.1127E+01  0.1127E+01  0.1395E+02  0.1395E+02
     11.033  0.1204E+01  0.1204E+01  0.1404E+02  0.1404E+02
     11.108  0.1132E+01  0.1132E+01  0.1412E+02  0.1412E+02
     11.183  0.9754E+00  0.9756E+00  0.1419E+02  0.1419E+02
     11.258  0.9439E+00  0.9437E+00  0.1427E+02  0.1427E+02
     11.333  0.9205E+00  0.9198E+00  0.1433E+02  0.1433E+02
     11.409  0.9594E+00  0.9592E+00  0.1441E+02  0.1441E+02
     11.484  0.1131E+01  0.1133E+01  0.1449E+02  0.1449E+02
     11.559  0.1236E+01  0.1239E+01  0.1458E+02  0.1459E+02
     11.634  0.1137E+01  0.1138E+01  0.1467E+02  0.1467E+02
     11.709  0.8568E+00  0.8512E+00  0.1473E+02  0.1473E+02
     11.784  0.7839E+00  0.7828E+00  0.1479E+02  0.1479E+02
     11.859  0.1002E+01  0.1005E+01  0.1487E+02  0.1487E+02
     11.935  0.1102E+01  0.1104E+01  0.1495E+02  0.1495E+02
     12.010  0.9728E+00  0.9738E+00  0.1503E+02  0.1503E+02
     12.085  0.8514E+00  0.8528E+00  0.1509E+02  0.1509E+02
     12.160  0.7877E+00  0.7886E+00  0.1515E+02  0.1515E+02
     12.235  0.6403E+00  0.6452E+00  0.1520E+02  0.1520E+02
     12.310  0.6036E+00  0.6220E+00  0.1524E+02  0.1524E+02
     12.385  0.6820E+00  0.7047E+00  0.1529E+02  0.1530E+02
     12.460  0.5919E+00  0.5802E+00  0.1534E+02  0.1534E+02
     12.536  0.4369E+00  0.4119E+00  0.1537E+02  0.1537E+02
     12.611  0.3021E+00  0.2917E+00  0.1539E+02  0.1539E+02
     12.686  0.2591E+00  0.2571E+00  0.1541E+02  0.1541E+02
     12.761  0.3653E+00  0.3677E+00  0.1544E+02  0.1544E+02
     12.836  0.5022E+00  0.5100E+00  0.1548E+02  0.1548E+02
     12.911  0.5852E+00  0.5887E+00  0.1552E+02  0.1552E+02
     12.986  0.4708E+00  0.4621E+00  0.1556E+02  0.1556E+02
     13.062  0.2627E+00  0.2578E+00  0.1558E+02  0.1558E+02
     13.137  0.2288E+00  0.2277E+00  0.1559E+02  0.1559E+02
     13.212  0.2949E+00  0.2946E+00  0.1562E+02  0.1562E+02
     13.287  0.3116E+00  0.3116E+00  0.1564E+02  0.1564E+02
     13.362  0.2865E+00  0.2871E+00  0.1566E+02  0.1566E+02
     13.437  0.2551E+00  0.2548E+00  0.1568E+02  0.1568E+02
     13.512  0.2005E+00  0.1961E+00  0.1570E+02  0.1570E+02
     13.588  0.1850E+00  0.1791E+00  0.1571E+02  0.1571E+02
     13.663  0.1972E+00  0.1994E+00  0.1572E+02  0.1572E+02
     13.738  0.1834E+00  0.1886E+00  0.1574E+02  0.1574E+02
     13.813  0.1464E+00  0.1484E+00  0.1575E+02  0.1575E+02
     13.888  0.7490E-01  0.7558E-01  0.1576E+02  0.1576E+02
     13.963  0.3883E-01  0.3967E-01  0.1576E+02  0.1576E+02
     14.038  0.6912E-01  0.7071E-01  0.1576E+02  0.1576E+02
     14.114  0.1492E+00  0.1471E+00  0.1577E+02  0.1577E+02
     14.189  0.2102E+00  0.2015E+00  0.1579E+02  0.1579E+02
     14.264  0.2138E+00  0.2127E+00  0.1581E+02  0.1581E+02
     14.339  0.1573E+00  0.1609E+00  0.1582E+02  0.1582E+02
     14.414  0.1239E+00  0.1233E+00  0.1583E+02  0.1583E+02
     14.489  0.8765E-01  0.8945E-01  0.1583E+02  0.1583E+02
     14.564  0.7022E-01  0.7160E-01  0.1584E+02  0.1584E+02
     14.640  0.1150E+00  0.1134E+00  0.1585E+02  0.1585E+02
     14.715  0.1456E+00  0.1423E+00  0.1586E+02  0.1586E+02
     14.790  0.1326E+00  0.1223E+00  0.1587E+02  0.1587E+02
     14.865  0.1648E+00  0.1566E+00  0.1588E+02  0.1588E+02
     14.940  0.2041E+00  0.2124E+00  0.1590E+02  0.1590E+02
     15.015  0.1794E+00  0.1905E+00  0.1591E+02  0.1591E+02
     15.090  0.1463E+00  0.1514E+00  0.1592E+02  0.1592E+02
     15.166  0.8761E-01  0.8908E-01  0.1593E+02  0.1593E+02
     15.241  0.3065E-01  0.3105E-01  0.1593E+02  0.1593E+02
     15.316  0.1312E-01  0.1319E-01  0.1593E+02  0.1593E+02
     15.391  0.2357E-01  0.2361E-01  0.1593E+02  0.1593E+02
     15.466  0.5446E-01  0.5419E-01  0.1594E+02  0.1594E+02
     15.541  0.7304E-01  0.7187E-01  0.1594E+02  0.1594E+02
     15.616  0.8919E-01  0.8847E-01  0.1595E+02  0.1595E+02
     15.691  0.1055E+00  0.1062E+00  0.1596E+02  0.1596E+02
     15.767  0.8261E-01  0.8337E-01  0.1596E+02  0.1596E+02
     15.842  0.3687E-01  0.3737E-01  0.1597E+02  0.1597E+02
     15.917  0.1090E-01  0.1129E-01  0.1597E+02  0.1597E+02
     15.992  0.4799E-02  0.5916E-02  0.1597E+02  0.1597E+02
     16.067  0.1024E-01  0.1394E-01  0.1597E+02  0.1597E+02
     16.142  0.3084E-01  0.3779E-01  0.1597E+02  0.1597E+02
     16.217  0.5229E-01  0.5150E-01  0.1597E+02  0.1598E+02
     16.293  0.4052E-01  0.3269E-01  0.1598E+02  0.1598E+02
     16.368  0.3182E-01  0.2589E-01  0.1598E+02  0.1598E+02
     16.443  0.4907E-01  0.4562E-01  0.1598E+02  0.1598E+02
     16.518  0.4669E-01  0.4894E-01  0.1599E+02  0.1599E+02
     16.593  0.2022E-01  0.2276E-01  0.1599E+02  0.1599E+02
     16.668  0.7233E-02  0.8195E-02  0.1599E+02  0.1599E+02
     16.743  0.8983E-02  0.9445E-02  0.1599E+02  0.1599E+02
     16.819  0.2385E-01  0.2425E-01  0.1599E+02  0.1599E+02
     16.894  0.3665E-01  0.3566E-01  0.1599E+02  0.1599E+02
     16.969  0.2783E-01  0.2423E-01  0.1600E+02  0.1600E+02
     17.044  0.2243E-01  0.1841E-01  0.1600E+02  0.1600E+02
     17.119  0.1631E-01  0.1873E-01  0.1600E+02  0.1600E+02
     17.194  0.6263E-02  0.9974E-02  0.1600E+02  0.1600E+02
     17.269  0.1557E-02  0.2913E-02  0.1600E+02  0.1600E+02
     17.345  0.3608E-03  0.7006E-03  0.1600E+02  0.1600E+02
     17.420  0.8101E-04  0.1587E-03  0.1600E+02  0.1600E+02
     17.495  0.0000E+00  0.0000E+00  0.1600E+02  0.1600E+02
     17.570  0.0000E+00  0.0000E+00  0.1600E+02  0.1600E+02
     17.645  0.0000E+00  0.0000E+00  0.1600E+02  0.1600E+02
     17.720  0.0000E+00  0.0000E+00  0.1600E+02  0.1600E+02
     17.795  0.0000E+00  0.0000E+00  0.1600E+02  0.1600E+02
     17.871  0.0000E+00  0.0000E+00  0.1600E+02  0.1600E+02
     17.946  0.0000E+00  0.0000E+00  0.1600E+02  0.1600E+02
     18.021  0.0000E+00  0.0000E+00  0.1600E+02  0.1600E+02
     18.096  0.0000E+00  0.0000E+00  0.1600E+02  0.1600E+02
     18.09593702     -4.44583231  301      6.61579419      1.00000000
     -4.446  0.0000E+00  0.0000E+00  0.0000E+00  0.0000E+00  0.0000E+00  0.0000E+00  0.0000E+00  0.0000E+00  0.0000E+00  0.0000E+00  0.0000E+00  0.0000E+00  0.0000E+00  0.0000E+00  0.0000E+00  0.0000E+00  0.0000E+00  0.0000E+00
     -4.371  0.0000E+00  0.0000E+00  0.0000E+00  0.0000E+00  0.0000E+00  0.0000E+00  0.0000E+00  0.0000E+00  0.0000E+00  0.0000E+00  0.0000E+00  0.0000E+00  0.0000E+00  0.0000E+00  0.0000E+00  0.0000E+00  0.0000E+00  0.0000E+00
     -4.296  0.0000E+00  0.0000E+00  0.0000E+00  0.0000E+00  0.0000E+00  0.0000E+00  0.0000E+00  0.0000E+00  0.0000E+00  0.0000E+00  0.0000E+00  0.0000E+00  0.0000E+00  0.0000E+00  0.0000E+00  0.0000E+00  0.0000E+00  0.0000E+00
     -4.220  0.0000E+00  0.0000E+00  0.0000E+00  0.0000E+00  0.0000E+00  0.0000E+00  0.0000E+00  0.0000E+00  0.0000E+00  0.0000E+00  0.0000E+00  0.0000E+00  0.0000E+00  0.0000E+00  0.0000E+00  0.0000E+00  0.0000E+00  0.0000E+00
     -4.145  0.0000E+00  0.0000E+00  0.0000E+00  0.0000E+00  0.0000E+00  0.0000E+00  0.0000E+00  0.0000E+00  0.0000E+00  0.0000E+00  0.0000E+00  0.0000E+00  0.0000E+00  0.0000E+00  0.0000E+00  0.0000E+00  0.0000E+00  0.0000E+00
     -4.070  0.0000E+00  0.0000E+00  0.0000E+00  0.0000E+00  0.0000E+00  0.0000E+00  0.0000E+00  0.0000E+00  0.0000E+00  0.0000E+00  0.0000E+00  0.0000E+00  0.0000E+00  0.0000E+00  0.0000E+00  0.0000E+00  0.0000E+00  0.0000E+00
     -3.995  0.0000E+00  0.0000E+00  0.0000E+00  0.0000E+00  0.0000E+00  0.0000E+00  0.0000E+00  0.0000E+00  0.0000E+00  0.0000E+00  0.0000E+00  0.0000E+00  0.0000E+00  0.0000E+00  0.0000E+00  0.0000E+00  0.0000E+00  0.0000E+00
     -3.920  0.0000E+00  0.0000E+00  0.0000E+00  0.0000E+00  0.0000E+00  0.0000E+00  0.0000E+00  0.0000E+00  0.0000E+00  0.0000E+00  0.0000E+00  0.0000E+00  0.0000E+00  0.0000E+00  0.0000E+00  0.0000E+00  0.0000E+00  0.0000E+00
     -3.845  0.2690E-06  0.2683E-06  0.3586E-09  0.3577E-09  0.3586E-09  0.3577E-09  0.3586E-09  0.3576E-09  0.7222E-15  0.2487E-16  0.1291E-14  0.1616E-16  0.1170E-11  0.1364E-11  0.7222E-15  0.2487E-16  0.1502E-11  0.1750E-11
     -3.770  0.1524E-05  0.1520E-05  0.3548E-08  0.3538E-08  0.3548E-08  0.3538E-08  0.3547E-08  0.3538E-08  0.1913E-10  0.1799E-10  0.1913E-10  0.1799E-10  0.9499E-11  0.9761E-11  0.1913E-10  0.1799E-10  0.9459E-11  0.9993E-11
     -3.694  0.6875E-05  0.6856E-05  0.1731E-07  0.1726E-07  0.1731E-07  0.1726E-07  0.1731E-07  0.1726E-07  0.1279E-09  0.1243E-09  0.1276E-09  0.1243E-09  0.3724E-10  0.3883E-10  0.1279E-09  0.1243E-09  0.3826E-10  0.4098E-10
     -3.619  0.3187E-04  0.3178E-04  0.9058E-07  0.9033E-07  0.9058E-07  0.9033E-07  0.9055E-07  0.9031E-07  0.6553E-09  0.6415E-09  0.6545E-09  0.6414E-09  0.3525E-09  0.3655E-09  0.6553E-09  0.6415E-09  0.3977E-09  0.4170E-09
     -3.544  0.1390E-03  0.1387E-03  0.4058E-06  0.4047E-06  0.4058E-06  0.4047E-06  0.4057E-06  0.4046E-06  0.3317E-08  0.3252E-08  0.3314E-08  0.3251E-08  0.1494E-08  0.1547E-08  0.3317E-08  0.3252E-08  0.1686E-08  0.1765E-08
     -3.469  0.5565E-03  0.5552E-03  0.1717E-05  0.1713E-05  0.1717E-05  0.1713E-05  0.1717E-05  0.1712E-05  0.1431E-07  0.1403E-07  0.1430E-07  0.1403E-07  0.6408E-08  0.6616E-08  0.1431E-07  0.1403E-07  0.7183E-08  0.7502E-08
     -3.394  0.1768E-02  0.1764E-02  0.6403E-05  0.6389E-05  0.6403E-05  0.6389E-05  0.6401E-05  0.6388E-05  0.5954E-07  0.5856E-07  0.5948E-07  0.5855E-07  0.2530E-07  0.2594E-07  0.5954E-07  0.5856E-07  0.2840E-07  0.2942E-07
     -3.319  0.3765E-02  0.3760E-02  0.1790E-04  0.1787E-04  0.1790E-04  0.1787E-04  0.1789E-04  0.1786E-04  0.2001E-06  0.1983E-06  0.1999E-06  0.1983E-06  0.8535E-07  0.8700E-07  0.2001E-06  0.1983E-06  0.9789E-07  0.1004E-06
     -3.244  0.5536E-02  0.5532E-02  0.3787E-04  0.3782E-04  0.3787E-04  0.3782E-04  0.3786E-04  0.3781E-04  0.5243E-06  0.5248E-06  0.5239E-06  0.5248E-06  0.2498E-06  0.2554E-06  0.5243E-06  0.5248E-06  0.2960E-06  0.3033E-06
     -3.168  0.7435E-02  0.7430E-02  0.7063E-04  0.7056E-04  0.7063E-04  0.7056E-04  0.7061E-04  0.7055E-04  0.1240E-05  0.1245E-05  0.1240E-05  0.1245E-05  0.5741E-06  0.5869E-06  0.1240E-05  0.1245E-05  0.6834E-06  0.6990E-06
     -3.093  0.8678E-02  0.8677E-02  0.1018E-03  0.1018E-03  0.1018E-03  0.1018E-03  0.1018E-03  0.1018E-03  0.2336E-05  0.2340E-05  0.2336E-05  0.2340E-05  0.8958E-06  0.9092E-06  0.2336E-05  0.2340E-05  0.1046E-05  0.1062E-05
     -3.018  0.8559E-02  0.8557E-02  0.1289E-03  0.1288E-03  0.1289E-03  0.1288E-03  0.1288E-03  0.1287E-03  0.3799E-05  0.3796E-05  0.3799E-05  0.3796E-05  0.1475E-05  0.1483E-05  0.3799E-05  0.3796E-05  0.1677E-05  0.1688E-05
     -2.943  0.1035E-01  0.1034E-01  0.1935E-03  0.1933E-03  0.1935E-03  0.1933E-03  0.1934E-03  0.1932E-03  0.6247E-05  0.6243E-05  0.6244E-05  0.6244E-05  0.2969E-05  0.2982E-05  0.6247E-05  0.6243E-05  0.3471E-05  0.3487E-05
     -2.868  0.1168E-01  0.1168E-01  0.2499E-03  0.2498E-03  0.2499E-03  0.2498E-03  0.2499E-03  0.2497E-03  0.8775E-05  0.8772E-05  0.8768E-05  0.8773E-05  0.4516E-05  0.4543E-05  0.8775E-05  0.8772E-05  0.5428E-05  0.5458E-05
     -2.793  0.1143E-01  0.1143E-01  0.2811E-03  0.2810E-03  0.2811E-03  0.2810E-03  0.2811E-03  0.2810E-03  0.1300E-04  0.1299E-04  0.1299E-04  0.1299E-04  0.5040E-05  0.5061E-05  0.1300E-04  0.1299E-04  0.5927E-05  0.5950E-05
     -2.718  0.1212E-01  0.1212E-01  0.3405E-03  0.3404E-03  0.3405E-03  0.3404E-03  0.3405E-03  0.3404E-03  0.1953E-04  0.1953E-04  0.1953E-04  0.1953E-04  0.6146E-05  0.6155E-05  0.1953E-04  0.1953E-04  0.6966E-05  0.6973E-05
     -2.642  0.1174E-01  0.1174E-01  0.3699E-03  0.3699E-03  0.3699E-03  0.3699E-03  0.3697E-03  0.3697E-03  0.2218E-04  0.2220E-04  0.2216E-04  0.2219E-04  0.8161E-05  0.8170E-05  0.2218E-04  0.2220E-04  0.9524E-05  0.9532E-05
     -2.567  0.1212E-01  0.1211E-01  0.4441E-03  0.4439E-03  0.4441E-03  0.4439E-03  0.4436E-03  0.4434E-03  0.2682E-04  0.2686E-04  0.2683E-04  0.2687E-04  0.1299E-04  0.1301E-04  0.2682E-04  0.2686E-04  0.1567E-04  0.1569E-04
     -2.492  0.1473E-01  0.1473E-01  0.5929E-03  0.5926E-03  0.5929E-03  0.5926E-03  0.5927E-03  0.5925E-03  0.3998E-04  0.4009E-04  0.4000E-04  0.4011E-04  0.1863E-04  0.1868E-04  0.3998E-04  0.4009E-04  0.2211E-04  0.2217E-04
     -2.417  0.1501E-01  0.1500E-01  0.6513E-03  0.6511E-03  0.6513E-03  0.6511E-03  0.6514E-03  0.6512E-03  0.5184E-04  0.5204E-04  0.5184E-04  0.5205E-04  0.2043E-04  0.2052E-04  0.5184E-04  0.5204E-04  0.2355E-04  0.2365E-04
     -2.342  0.1444E-01  0.1444E-01  0.6793E-03  0.6791E-03  0.6793E-03  0.6791E-03  0.6795E-03  0.6793E-03  0.6292E-04  0.6320E-04  0.6289E-04  0.6318E-04  0.2096E-04  0.2106E-04  0.6292E-04  0.6320E-04  0.2418E-04  0.2431E-04
     -2.267  0.1246E-01  0.1245E-01  0.6336E-03  0.6335E-03  0.6336E-03  0.6335E-03  0.6338E-03  0.6337E-03  0.6816E-04  0.6844E-04  0.6814E-04  0.6842E-04  0.1876E-04  0.1884E-04  0.6816E-04  0.6844E-04  0.2177E-04  0.2187E-04
     -2.192  0.1196E-01  0.1196E-01  0.6948E-03  0.6943E-03  0.6948E-03  0.6943E-03  0.6936E-03  0.6931E-03  0.7914E-04  0.7931E-04  0.7922E-04  0.7939E-04  0.2464E-04  0.2467E-04  0.7914E-04  0.7931E-04  0.2876E-04  0.2879E-04
     -2.117  0.1545E-01  0.1544E-01  0.9994E-03  0.9987E-03  0.9994E-03  0.9987E-03  0.9978E-03  0.9970E-03  0.1105E-03  0.1106E-03  0.1106E-03  0.1107E-03  0.4308E-04  0.4309E-04  0.1105E-03  0.1106E-03  0.5044E-04  0.5044E-04
     -2.041  0.1673E-01  0.1673E-01  0.1159E-02  0.1158E-02  0.1159E-02  0.1158E-02  0.1158E-02  0.1158E-02  0.1319E-03  0.1320E-03  0.1319E-03  0.1320E-03  0.5304E-04  0.5305E-04  0.1319E-03  0.1320E-03  0.6288E-04  0.6287E-04
     -1.966  0.1573E-01  0.1573E-01  0.1172E-02  0.1172E-02  0.1172E-02  0.1172E-02  0.1172E-02  0.1171E-02  0.1534E-03  0.1533E-03  0.1534E-03  0.1534E-03  0.5289E-04  0.5287E-04  0.1534E-03  0.1533E-03  0.6323E-04  0.6318E-04
     -1.891  0.1505E-01  0.1505E-01  0.1197E-02  0.1197E-02  0.1197E-02  0.1197E-02  0.1197E-02  0.1197E-02  0.1735E-03  0.1735E-03  0.1735E-03  0.1735E-03  0.5471E-04  0.5469E-04  0.1735E-03  0.1735E-03  0.6498E-04  0.6494E-04
     -1.816  0.1220E-01  0.1220E-01  0.1048E-02  0.1048E-02  0.1048E-02  0.1048E-02  0.1048E-02  0.1048E-02  0.1758E-03  0.1758E-03  0.1759E-03  0.1759E-03  0.4794E-04  0.4791E-04  0.1758E-03  0.1758E-03  0.5494E-04  0.5490E-04
     -1.741  0.1343E-01  0.1342E-01  0.1286E-02  0.1286E-02  0.1286E-02  0.1286E-02  0.1284E-02  0.1283E-02  0.2507E-03  0.2506E-03  0.2509E-03  0.2509E-03  0.5521E-04  0.5516E-04  0.2507E-03  0.2506E-03  0.6117E-04  0.6110E-04
     -1.666  0.1583E-01  0.1582E-01  0.1738E-02  0.1738E-02  0.1738E-02  0.1738E-02  0.1734E-02  0.1734E-02  0.3296E-03  0.3295E-03  0.3295E-03  0.3295E-03  0.7278E-04  0.7280E-04  0.3296E-03  0.3295E-03  0.8212E-04  0.8213E-04
     -1.591  0.1455E-01  0.1455E-01  0.1926E-02  0.1926E-02  0.1926E-02  0.1926E-02  0.1924E-02  0.1924E-02  0.3317E-03  0.3317E-03  0.3315E-03  0.3316E-03  0.8000E-04  0.8008E-04  0.3317E-03  0.3317E-03  0.9289E-04  0.9295E-04
     -1.515  0.1216E-01  0.1216E-01  0.1898E-02  0.1898E-02  0.1898E-02  0.1898E-02  0.1898E-02  0.1898E-02  0.3353E-03  0.3354E-03  0.3354E-03  0.3355E-03  0.7769E-04  0.7770E-04  0.3353E-03  0.3354E-03  0.9206E-04  0.9205E-04
     -1.440  0.1115E-01  0.1114E-01  0.1968E-02  0.1968E-02  0.1968E-02  0.1968E-02  0.1968E-02  0.1967E-02  0.3956E-03  0.3955E-03  0.3960E-03  0.3960E-03  0.7994E-04  0.7985E-04  0.3956E-03  0.3955E-03  0.9403E-04  0.9394E-04
     -1.365  0.1202E-01  0.1201E-01  0.2105E-02  0.2105E-02  0.2105E-02  0.2105E-02  0.2107E-02  0.2107E-02  0.5335E-03  0.5334E-03  0.5340E-03  0.5339E-03  0.8427E-04  0.8416E-04  0.5335E-03  0.5334E-03  0.9441E-04  0.9429E-04
     -1.290  0.1314E-01  0.1314E-01  0.2216E-02  0.2216E-02  0.2216E-02  0.2216E-02  0.2216E-02  0.2216E-02  0.6917E-03  0.6917E-03  0.6920E-03  0.6920E-03  0.8672E-04  0.8662E-04  0.6917E-03  0.6917E-03  0.9376E-04  0.9366E-04
     -1.215  0.1199E-01  0.1199E-01  0.2274E-02  0.2274E-02  0.2274E-02  0.2274E-02  0.2273E-02  0.2273E-02  0.7654E-03  0.7652E-03  0.7653E-03  0.7652E-03  0.8610E-04  0.8603E-04  0.7654E-03  0.7652E-03  0.9490E-04  0.9481E-04
     -1.140  0.9828E-02  0.9828E-02  0.2059E-02  0.2060E-02  0.2059E-02  0.2060E-02  0.2063E-02  0.2063E-02  0.7452E-03  0.7449E-03  0.7443E-03  0.7440E-03  0.7633E-04  0.7628E-04  0.7452E-03  0.7449E-03  0.8443E-04  0.8436E-04
     -1.065  0.7013E-02  0.7013E-02  0.1587E-02  0.1587E-02  0.1587E-02  0.1587E-02  0.1589E-02  0.1589E-02  0.6523E-03  0.6520E-03  0.6519E-03  0.6515E-03  0.5694E-04  0.5688E-04  0.6523E-03  0.6520E-03  0.6326E-04  0.6319E-04
     -0.989  0.7046E-02  0.7041E-02  0.1607E-02  0.1606E-02  0.1607E-02  0.1606E-02  0.1607E-02  0.1606E-02  0.7935E-03  0.7928E-03  0.7947E-03  0.7938E-03  0.6146E-04  0.6134E-04  0.7935E-03  0.7928E-03  0.6742E-04  0.6729E-04
     -0.914  0.9519E-02  0.9512E-02  0.1975E-02  0.1975E-02  0.1975E-02  0.1975E-02  0.1973E-02  0.1973E-02  0.1132E-02  0.1131E-02  0.1134E-02  0.1133E-02  0.1043E-03  0.1041E-03  0.1132E-02  0.1131E-02  0.1135E-03  0.1132E-03
     -0.839  0.1160E-01  0.1159E-01  0.2228E-02  0.2228E-02  0.2228E-02  0.2228E-02  0.2226E-02  0.2227E-02  0.1340E-02  0.1339E-02  0.1340E-02  0.1339E-02  0.2115E-03  0.2108E-03  0.1340E-02  0.1339E-02  0.2467E-03  0.2459E-03
     -0.764  0.1435E-01  0.1434E-01  0.2058E-02  0.2058E-02  0.2058E-02  0.2058E-02  0.2059E-02  0.2060E-02  0.1249E-02  0.1248E-02  0.1247E-02  0.1246E-02  0.4153E-03  0.4140E-03  0.1249E-02  0.1248E-02  0.5126E-03  0.5109E-03
     -0.689  0.1741E-01  0.1740E-01  0.1835E-02  0.1835E-02  0.1835E-02  0.1835E-02  0.1838E-02  0.1838E-02  0.1134E-02  0.1134E-02  0.1133E-02  0.1132E-02  0.6023E-03  0.6009E-03  0.1134E-02  0.1134E-02  0.7555E-03  0.7537E-03