   4   4   1   0
  0.1385937E+02  0.3812426E-09  0.3813301E-09  0.3813301E-09  0.5000000E-15
  1.000000000000000E-004
  CAR 
 unknown system                          
     22.47314389     -3.72320540  301      9.17774278      1.00000000
     -3.723  0.0000E+00  0.0000E+00  0.0000E+00  0.0000E+00
     -3.636  0.0000E+00  0.0000E+00  0.0000E+00  0.0000E+00
     -3.549  0.0000E+00  0.0000E+00  0.0000E+00  0.0000E+00
     -3.461  0.0000E+00  0.0000E+00  0.0000E+00  0.0000E+00
     -3.374  0.0000E+00  0.0000E+00  0.0000E+00  0.0000E+00
     -3.287  0.0000E+00  0.0000E+00  0.0000E+00  0.0000E+00
     -3.199  0.0000E+00  0.0000E+00  0.0000E+00  0.0000E+00
     -3.112  0.0000E+00  0.0000E+00  0.0000E+00  0.0000E+00
     -3.025  0.0000E+00  0.0000E+00  0.0000E+00  0.0000E+00
     -2.937  0.4422E-05  0.4341E-05  0.3861E-06  0.3791E-06
     -2.850  0.3061E-04  0.3005E-04  0.3059E-05  0.3003E-05
     -2.763  0.1787E-03  0.1755E-03  0.1866E-04  0.1832E-04
     -2.675  0.1007E-02  0.9889E-03  0.1066E-03  0.1047E-03
     -2.588  0.5208E-02  0.5124E-02  0.5613E-03  0.5521E-03
     -2.501  0.2039E-01  0.2015E-01  0.2342E-02  0.2312E-02
     -2.413  0.4842E-01  0.4812E-01  0.6570E-02  0.6514E-02
     -2.326  0.7061E-01  0.7042E-01  0.1274E-01  0.1266E-01
     -2.239  0.9716E-01  0.9680E-01  0.2122E-01  0.2112E-01
     -2.151  0.1191E+00  0.1191E+00  0.3162E-01  0.3151E-01
     -2.064  0.1087E+00  0.1087E+00  0.4112E-01  0.4101E-01
     -1.977  0.1392E+00  0.1387E+00  0.5328E-01  0.5313E-01
     -1.889  0.1660E+00  0.1659E+00  0.6778E-01  0.6763E-01
     -1.802  0.1577E+00  0.1578E+00  0.8156E-01  0.8141E-01
     -1.715  0.1733E+00  0.1730E+00  0.9670E-01  0.9653E-01
     -1.627  0.1721E+00  0.1725E+00  0.1117E+00  0.1116E+00
     -1.540  0.1654E+00  0.1650E+00  0.1262E+00  0.1260E+00
     -1.453  0.2253E+00  0.2248E+00  0.1459E+00  0.1457E+00
     -1.366  0.2338E+00  0.2339E+00  0.1663E+00  0.1661E+00
     -1.278  0.2313E+00  0.2313E+00  0.1865E+00  0.1863E+00
     -1.191  0.2041E+00  0.2046E+00  0.2044E+00  0.2042E+00
     -1.104  0.1746E+00  0.1743E+00  0.2196E+00  0.2195E+00
     -1.016  0.2478E+00  0.2467E+00  0.2413E+00  0.2410E+00
     -0.929  0.3044E+00  0.3045E+00  0.2679E+00  0.2676E+00
     -0.842  0.2769E+00  0.2769E+00  0.2921E+00  0.2918E+00
     -0.754  0.2932E+00  0.2933E+00  0.3177E+00  0.3174E+00
     -0.667  0.2301E+00  0.2309E+00  0.3378E+00  0.3376E+00
     -0.580  0.2325E+00  0.2317E+00  0.3582E+00  0.3579E+00
     -0.492  0.3195E+00  0.3188E+00  0.3861E+00  0.3858E+00
     -0.405  0.3389E+00  0.3391E+00  0.4157E+00  0.4154E+00
     -0.318  0.3153E+00  0.3155E+00  0.4433E+00  0.4430E+00
     -0.230  0.3013E+00  0.3013E+00  0.4696E+00  0.4693E+00
     -0.143  0.3342E+00  0.3335E+00  0.4988E+00  0.4985E+00
     -0.056  0.3733E+00  0.3733E+00  0.5315E+00  0.5311E+00
      0.032  0.3559E+00  0.3560E+00  0.5626E+00  0.5622E+00
      0.119  0.3506E+00  0.3508E+00  0.5932E+00  0.5929E+00
      0.206  0.2651E+00  0.2663E+00  0.6164E+00  0.6162E+00
      0.294  0.2240E+00  0.2235E+00  0.6360E+00  0.6357E+00
      0.381  0.2962E+00  0.2953E+00  0.6619E+00  0.6615E+00
      0.468  0.3803E+00  0.3796E+00  0.6951E+00  0.6947E+00
      0.556  0.4110E+00  0.4111E+00  0.7310E+00  0.7307E+00
      0.643  0.3837E+00  0.3841E+00  0.7645E+00  0.7642E+00
      0.730  0.3547E+00  0.3550E+00  0.7955E+00  0.7952E+00
      0.817  0.3250E+00  0.3252E+00  0.8239E+00  0.8236E+00
      0.905  0.3574E+00  0.3560E+00  0.8552E+00  0.8548E+00
      0.992  0.4605E+00  0.4603E+00  0.8954E+00  0.8950E+00
      1.079  0.3873E+00  0.3886E+00  0.9293E+00  0.9290E+00
      1.167  0.3079E+00  0.3082E+00  0.9562E+00  0.9559E+00
      1.254  0.3245E+00  0.3240E+00  0.9846E+00  0.9842E+00
      1.341  0.3961E+00  0.3949E+00  0.1019E+01  0.1019E+01
      1.429  0.5167E+00  0.5157E+00  0.1064E+01  0.1064E+01
      1.516  0.5205E+00  0.5214E+00  0.1110E+01  0.1109E+01
      1.603  0.4314E+00  0.4323E+00  0.1148E+01  0.1147E+01
      1.691  0.3581E+00  0.3584E+00  0.1179E+01  0.1178E+01
      1.778  0.3897E+00  0.3887E+00  0.1213E+01  0.1212E+01
      1.865  0.4715E+00  0.4710E+00  0.1254E+01  0.1254E+01
      1.953  0.4756E+00  0.4766E+00  0.1296E+01  0.1295E+01
      2.040  0.3635E+00  0.3647E+00  0.1327E+01  0.1327E+01
      2.127  0.3373E+00  0.3364E+00  0.1357E+01  0.1357E+01
      2.215  0.4595E+00  0.4579E+00  0.1397E+01  0.1397E+01
      2.302  0.5489E+00  0.5487E+00  0.1445E+01  0.1445E+01
      2.389  0.5511E+00  0.5513E+00  0.1493E+01  0.1493E+01
      2.477  0.5043E+00  0.5050E+00  0.1537E+01  0.1537E+01
      2.564  0.4868E+00  0.4862E+00  0.1580E+01  0.1579E+01
      2.651  0.5914E+00  0.5903E+00  0.1632E+01  0.1631E+01
      2.739  0.6504E+00  0.6508E+00  0.1688E+01  0.1688E+01
      2.826  0.5222E+00  0.5238E+00  0.1734E+01  0.1734E+01
      2.913  0.4555E+00  0.4555E+00  0.1774E+01  0.1773E+01
      3.001  0.4393E+00  0.4392E+00  0.1812E+01  0.1812E+01
      3.088  0.5246E+00  0.5225E+00  0.1858E+01  0.1857E+01
      3.175  0.6990E+00  0.6982E+00  0.1919E+01  0.1918E+01
      3.262  0.6648E+00  0.6654E+00  0.1977E+01  0.1977E+01
      3.350  0.6845E+00  0.6831E+00  0.2037E+01  0.2036E+01
      3.437  0.8124E+00  0.8110E+00  0.2108E+01  0.2107E+01
      3.524  0.7784E+00  0.7796E+00  0.2176E+01  0.2175E+01
      3.612  0.6770E+00  0.6775E+00  0.2235E+01  0.2234E+01
      3.699  0.6482E+00  0.6475E+00  0.2292E+01  0.2291E+01
      3.786  0.7255E+00  0.7241E+00  0.2355E+01  0.2354E+01
      3.874  0.7716E+00  0.7715E+00  0.2423E+01  0.2422E+01
      3.961  0.7864E+00  0.7859E+00  0.2491E+01  0.2490E+01
      4.048  0.8559E+00  0.8545E+00  0.2566E+01  0.2565E+01
      4.136  0.8963E+00  0.8964E+00  0.2644E+01  0.2643E+01
      4.223  0.8906E+00  0.8887E+00  0.2722E+01  0.2721E+01
      4.310  0.1046E+01  0.1043E+01  0.2814E+01  0.2812E+01
      4.398  0.1243E+01  0.1240E+01  0.2922E+01  0.2920E+01
      4.485  0.1334E+01  0.1334E+01  0.3039E+01  0.3037E+01
      4.572  0.1403E+01  0.1399E+01  0.3162E+01  0.3159E+01
      4.660  0.1636E+01  0.1630E+01  0.3304E+01  0.3302E+01
      4.747  0.1972E+01  0.1963E+01  0.3477E+01  0.3473E+01
      4.834  0.2733E+01  0.2710E+01  0.3716E+01  0.3710E+01
      4.922  0.3987E+01  0.3955E+01  0.4064E+01  0.4055E+01
      5.009  0.4956E+01  0.4930E+01  0.4497E+01  0.4486E+01
      5.096  0.5242E+01  0.5238E+01  0.4955E+01  0.4944E+01
      5.184  0.4571E+01  0.4593E+01  0.5354E+01  0.5345E+01
      5.271  0.3447E+01  0.3471E+01  0.5655E+01  0.5648E+01
      5.358  0.2535E+01  0.2558E+01  0.5877E+01  0.5872E+01
      5.446  0.1681E+01  0.1704E+01  0.6024E+01  0.6021E+01
      5.533  0.1533E+01  0.1526E+01  0.6159E+01  0.6155E+01
      5.620  0.3115E+01  0.3076E+01  0.6431E+01  0.6424E+01
      5.707  0.4277E+01  0.4278E+01  0.6805E+01  0.6798E+01
      5.795  0.3348E+01  0.3369E+01  0.7097E+01  0.7092E+01
      5.882  0.2350E+01  0.2365E+01  0.7302E+01  0.7299E+01
      5.969  0.1764E+01  0.1771E+01  0.7456E+01  0.7453E+01
      6.057  0.1557E+01  0.1561E+01  0.7593E+01  0.7590E+01
      6.144  0.1346E+01  0.1352E+01  0.7711E+01  0.7709E+01
      6.231  0.1072E+01  0.1077E+01  0.7805E+01  0.7803E+01
      6.319  0.8663E+00  0.8707E+00  0.7880E+01  0.7879E+01
      6.406  0.8357E+00  0.8329E+00  0.7953E+01  0.7952E+01
      6.493  0.1088E+01  0.1085E+01  0.8049E+01  0.8047E+01
      6.581  0.1053E+01  0.1058E+01  0.8141E+01  0.8139E+01
      6.668  0.7046E+00  0.7112E+00  0.8202E+01  0.8201E+01
      6.755  0.4525E+00  0.4545E+00  0.8242E+01  0.8241E+01
      6.843  0.5424E+00  0.5388E+00  0.8289E+01  0.8288E+01
      6.930  0.7393E+00  0.7381E+00  0.8354E+01  0.8353E+01
      7.017  0.6913E+00  0.6927E+00  0.8414E+01  0.8413E+01
      7.105  0.7051E+00  0.7037E+00  0.8476E+01  0.8475E+01
      7.192  0.8088E+00  0.8083E+00  0.8546E+01  0.8545E+01
      7.279  0.7272E+00  0.7289E+00  0.8610E+01  0.8609E+01
      7.367  0.6865E+00  0.6849E+00  0.8670E+01  0.8669E+01
      7.454  0.7247E+00  0.7256E+00  0.8733E+01  0.8732E+01
      7.541  0.5916E+00  0.5939E+00  0.8785E+01  0.8784E+01
      7.629  0.5978E+00  0.5950E+00  0.8837E+01  0.8836E+01
      7.716  0.8969E+00  0.8924E+00  0.8916E+01  0.8914E+01
      7.803  0.1003E+01  0.1006E+01  0.9003E+01  0.9002E+01
      7.891  0.7208E+00  0.7248E+00  0.9066E+01  0.9066E+01
      7.978  0.6606E+00  0.6594E+00  0.9124E+01  0.9123E+01
      8.065  0.7971E+00  0.7957E+00  0.9194E+01  0.9193E+01
      8.152  0.8637E+00  0.8632E+00  0.9269E+01  0.9268E+01
      8.240  0.8055E+00  0.8072E+00  0.9340E+01  0.9339E+01
      8.327  0.7003E+00  0.7016E+00  0.9401E+01  0.9400E+01
      8.414  0.6415E+00  0.6425E+00  0.9457E+01  0.9456E+01
      8.502  0.5837E+00  0.5842E+00  0.9508E+01  0.9507E+01
      8.589  0.5828E+00  0.5828E+00  0.9559E+01  0.9558E+01
      8.676  0.6093E+00  0.6082E+00  0.9612E+01  0.9611E+01
      8.764  0.7478E+00  0.7457E+00  0.9678E+01  0.9677E+01
      8.851  0.8269E+00  0.8273E+00  0.9750E+01  0.9749E+01
      8.938  0.7856E+00  0.7856E+00  0.9819E+01  0.9818E+01
      9.026  0.8454E+00  0.8452E+00  0.9892E+01  0.9891E+01
      9.113  0.7748E+00  0.7768E+00  0.9960E+01  0.9959E+01
      9.200  0.6010E+00  0.6028E+00  0.1001E+02  0.1001E+02
      9.288  0.5266E+00  0.5265E+00  0.1006E+02  0.1006E+02
      9.375  0.5752E+00  0.5743E+00  0.1011E+02  0.1011E+02
      9.462  0.6566E+00  0.6562E+00  0.1017E+02  0.1017E+02
      9.550  0.6546E+00  0.6545E+00  0.1022E+02  0.1022E+02
      9.637  0.7178E+00  0.7164E+00  0.1029E+02  0.1029E+02
      9.724  0.8663E+00  0.8643E+00  0.1036E+02  0.1036E+02
      9.812  0.9568E+00  0.9578E+00  0.1045E+02  0.1044E+02
      9.899  0.7506E+00  0.7532E+00  0.1051E+02  0.1051E+02
      9.986  0.5856E+00  0.5874E+00  0.1056E+02  0.1056E+02
     10.074  0.5415E+00  0.5406E+00  0.1061E+02  0.1061E+02
     10.161  0.7006E+00  0.6993E+00  0.1067E+02  0.1067E+02
     10.248  0.6970E+00  0.6983E+00  0.1073E+02  0.1073E+02
     10.336  0.6270E+00  0.6272E+00  0.1079E+02  0.1079E+02
     10.423  0.6717E+00  0.6710E+00  0.1085E+02  0.1084E+02
     10.510  0.7821E+00  0.7813E+00  0.1091E+02  0.1091E+02
     10.597  0.7767E+00  0.7776E+00  0.1098E+02  0.1098E+02
     10.685  0.7077E+00  0.7086E+00  0.1104E+02  0.1104E+02
     10.772  0.6716E+00  0.6710E+00  0.1110E+02  0.1110E+02
     10.859  0.7694E+00  0.7687E+00  0.1117E+02  0.1117E+02
     10.947  0.7487E+00  0.7498E+00  0.1123E+02  0.1123E+02
     11.034  0.6570E+00  0.6570E+00  0.1129E+02  0.1129E+02
     11.121  0.7419E+00  0.7400E+00  0.1136E+02  0.1136E+02
     11.209  0.9006E+00  0.8999E+00  0.1144E+02  0.1143E+02
     11.296  0.8710E+00  0.8725E+00  0.1151E+02  0.1151E+02
     11.383  0.7373E+00  0.7380E+00  0.1158E+02  0.1158E+02
     11.471  0.7531E+00  0.7523E+00  0.1164E+02  0.1164E+02
     11.558  0.8311E+00  0.8304E+00  0.1171E+02  0.1171E+02
     11.645  0.9202E+00  0.9190E+00  0.1180E+02  0.1179E+02
     11.733  0.1010E+01  0.1010E+01  0.1188E+02  0.1188E+02
     11.820  0.8419E+00  0.8445E+00  0.1196E+02  0.1196E+02
     11.907  0.6703E+00  0.6715E+00  0.1202E+02  0.1202E+02
     11.995  0.6555E+00  0.6547E+00  0.1207E+02  0.1207E+02
     12.082  0.7683E+00  0.7674E+00  0.1214E+02  0.1214E+02
     12.169  0.7540E+00  0.7547E+00  0.1221E+02  0.1221E+02
     12.257  0.8424E+00  0.8400E+00  0.1228E+02  0.1228E+02
     12.344  0.1046E+01  0.1045E+01  0.1237E+02  0.1237E+02
     12.431  0.8907E+00  0.8937E+00  0.1245E+02  0.1245E+02
     12.519  0.6407E+00  0.6426E+00  0.1250E+02  0.1250E+02
     12.606  0.5547E+00  0.5552E+00  0.1255E+02  0.1255E+02
     12.693  0.5959E+00  0.5942E+00  0.1261E+02  0.1260E+02
     12.780  0.8039E+00  0.8019E+00  0.1268E+02  0.1268E+02
     12.868  0.8733E+00  0.8742E+00  0.1275E+02  0.1275E+02
     12.955  0.7601E+00  0.7611E+00  0.1282E+02  0.1282E+02
     13.042  0.7667E+00  0.7655E+00  0.1289E+02  0.1288E+02
     13.130  0.9067E+00  0.9056E+00  0.1296E+02  0.1296E+02
     13.217  0.9126E+00  0.9135E+00  0.1304E+02  0.1304E+02
     13.304  0.8440E+00  0.8445E+00  0.1312E+02  0.1312E+02
     13.392  0.8632E+00  0.8634E+00  0.1319E+02  0.1319E+02
     13.479  0.7896E+00  0.7907E+00  0.1326E+02  0.1326E+02
     13.566  0.7147E+00  0.7149E+00  0.1333E+02  0.1332E+02
     13.654  0.7167E+00  0.7162E+00  0.1339E+02  0.1339E+02
     13.741  0.8223E+00  0.8207E+00  0.1346E+02  0.1346E+02
     13.828  0.9335E+00  0.9325E+00  0.1354E+02  0.1354E+02
     13.916  0.9994E+00  0.9992E+00  0.1363E+02  0.1363E+02
     14.003  0.9857E+00  0.9863E+00  0.1371E+02  0.1371E+02
     14.090  0.8081E+00  0.8110E+00  0.1379E+02  0.1378E+02
     14.178  0.6567E+00  0.6571E+00  0.1384E+02  0.1384E+02
     14.265  0.6871E+00  0.6867E+00  0.1390E+02  0.1390E+02
     14.352  0.7232E+00  0.7225E+00  0.1397E+02  0.1397E+02
     14.440  0.7793E+00  0.7782E+00  0.1403E+02  0.1403E+02
     14.527  0.8857E+00  0.8860E+00  0.1411E+02  0.1411E+02
     14.614  0.8475E+00  0.8472E+00  0.1419E+02  0.1419E+02
     14.702  0.9493E+00  0.9477E+00  0.1427E+02  0.1427E+02
     14.789  0.9798E+00  0.9805E+00  0.1435E+02  0.1435E+02
     14.876  0.8827E+00  0.8837E+00  0.1443E+02  0.1443E+02
     14.964  0.8534E+00  0.8514E+00  0.1451E+02  0.1451E+02
     15.051  0.9522E+00  0.9447E+00  0.1459E+02  0.1459E+02
     15.138  0.9813E+00  0.9723E+00  0.1467E+02  0.1467E+02
     15.225  0.9406E+00  0.9491E+00  0.1476E+02  0.1476E+02
     15.313  0.9758E+00  0.9843E+00  0.1484E+02  0.1484E+02
     15.400  0.8642E+00  0.8699E+00  0.1492E+02  0.1492E+02
     15.487  0.8006E+00  0.8065E+00  0.1499E+02  0.1499E+02
     15.575  0.7752E+00  0.7726E+00  0.1506E+02  0.1506E+02
     15.662  0.7358E+00  0.7132E+00  0.1512E+02  0.1512E+02
     15.749  0.6833E+00  0.6805E+00  0.1518E+02  0.1518E+02
     15.837  0.5767E+00  0.6030E+00  0.1523E+02  0.1523E+02
     15.924  0.4964E+00  0.5085E+00  0.1527E+02  0.1527E+02
     16.011  0.4683E+00  0.4617E+00  0.1531E+02  0.1532E+02
     16.099  0.3604E+00  0.3651E+00  0.1535E+02  0.1535E+02
     16.186  0.3220E+00  0.3319E+00  0.1537E+02  0.1538E+02
     16.273  0.3427E+00  0.3320E+00  0.1540E+02  0.1541E+02
     16.361  0.3472E+00  0.3289E+00  0.1543E+02  0.1543E+02
     16.448  0.4222E+00  0.3951E+00  0.1547E+02  0.1547E+02
     16.535  0.4611E+00  0.4360E+00  0.1551E+02  0.1551E+02
     16.623  0.4558E+00  0.4632E+00  0.1555E+02  0.1555E+02
     16.710  0.3423E+00  0.3763E+00  0.1558E+02  0.1558E+02
     16.797  0.1937E+00  0.2083E+00  0.1560E+02  0.1560E+02
     16.885  0.1660E+00  0.1688E+00  0.1561E+02  0.1561E+02
     16.972  0.1999E+00  0.2002E+00  0.1563E+02  0.1563E+02
     17.059  0.2252E+00  0.2250E+00  0.1565E+02  0.1565E+02
     17.147  0.2449E+00  0.2457E+00  0.1567E+02  0.1567E+02
     17.234  0.2649E+00  0.2684E+00  0.1569E+02  0.1570E+02
     17.321  0.2253E+00  0.2283E+00  0.1571E+02  0.1572E+02
     17.409  0.1351E+00  0.1317E+00  0.1573E+02  0.1573E+02
     17.496  0.8709E-01  0.8499E-01  0.1573E+02  0.1573E+02
     17.583  0.7544E-01  0.7485E-01  0.1574E+02  0.1574E+02
     17.670  0.1081E+00  0.1077E+00  0.1575E+02  0.1575E+02
     17.758  0.1057E+00  0.1066E+00  0.1576E+02  0.1576E+02
     17.845  0.8507E-01  0.8769E-01  0.1577E+02  0.1577E+02
     17.932  0.8673E-01  0.9353E-01  0.1577E+02  0.1578E+02
     18.020  0.1230E+00  0.1284E+00  0.1579E+02  0.1579E+02
     18.107  0.1977E+00  0.2028E+00  0.1580E+02  0.1580E+02
     18.194  0.2213E+00  0.2266E+00  0.1582E+02  0.1582E+02
     18.282  0.1520E+00  0.1514E+00  0.1583E+02  0.1584E+02
     18.369  0.1395E+00  0.1253E+00  0.1585E+02  0.1585E+02
     18.456  0.9283E-01  0.8481E-01  0.1586E+02  0.1586E+02
     18.544  0.3020E-01  0.2835E-01  0.1586E+02  0.1586E+02
     18.631  0.2634E-01  0.2578E-01  0.1586E+02  0.1586E+02
     18.718  0.7322E-01  0.7284E-01  0.1587E+02  0.1587E+02
     18.806  0.1039E+00  0.1048E+00  0.1588E+02  0.1588E+02
     18.893  0.9582E-01  0.9802E-01  0.1588E+02  0.1588E+02
     18.980  0.1188E+00  0.1170E+00  0.1589E+02  0.1589E+02
     19.068  0.1607E+00  0.1589E+00  0.1591E+02  0.1591E+02
     19.155  0.1101E+00  0.1106E+00  0.1592E+02  0.1592E+02
     19.242  0.7398E-01  0.7417E-01  0.1592E+02  0.1592E+02
     19.330  0.9765E-01  0.9796E-01  0.1593E+02  0.1593E+02
     19.417  0.7610E-01  0.7831E-01  0.1594E+02  0.1594E+02
     19.504  0.3814E-01  0.4011E-01  0.1594E+02  0.1594E+02
     19.592  0.2381E-01  0.2183E-01  0.1595E+02  0.1595E+02
     19.679  0.2689E-01  0.2582E-01  0.1595E+02  0.1595E+02
     19.766  0.6566E-01  0.6534E-01  0.1595E+02  0.1595E+02
     19.854  0.8834E-01  0.8737E-01  0.1596E+02  0.1596E+02
     19.941  0.5339E-01  0.5358E-01  0.1597E+02  0.1597E+02
     20.028  0.1784E-01  0.1815E-01  0.1597E+02  0.1597E+02
     20.115  0.1758E-01  0.1811E-01  0.1597E+02  0.1597E+02
     20.203  0.4268E-01  0.4477E-01  0.1597E+02  0.1597E+02
     20.290  0.4387E-01  0.4365E-01  0.1598E+02  0.1598E+02
     20.377  0.1669E-01  0.1476E-01  0.1598E+02  0.1598E+02
     20.465  0.5300E-02  0.3867E-02  0.1598E+02  0.1598E+02
     20.552  0.1002E-01  0.5446E-02  0.1598E+02  0.1598E+02
     20.639  0.3457E-01  0.2187E-01  0.1598E+02  0.1598E+02
     20.727  0.5021E-01  0.4928E-01  0.1599E+02  0.1598E+02
     20.814  0.2261E-01  0.3556E-01  0.1599E+02  0.1599E+02
     20.901  0.5290E-02  0.1028E-01  0.1599E+02  0.1599E+02
     20.989  0.2194E-02  0.3227E-02  0.1599E+02  0.1599E+02
     21.076  0.6661E-02  0.7063E-02  0.1599E+02  0.1599E+02
     21.163  0.2560E-01  0.2585E-01  0.1599E+02  0.1599E+02
     21.251  0.4450E-01  0.4510E-01  0.1600E+02  0.1600E+02
     21.338  0.3225E-01  0.3206E-01  0.1600E+02  0.1600E+02
     21.425  0.1152E-01  0.1098E-01  0.1600E+02  0.1600E+02
     21.513  0.2484E-02  0.2323E-02  0.1600E+02  0.1600E+02
     21.600  0.3406E-03  0.3093E-03  0.1600E+02  0.1600E+02
     21.687  0.0000E+00  0.0000E+00  0.1600E+02  0.1600E+02
     21.775  0.0000E+00  0.0000E+00  0.1600E+02  0.1600E+02
     21.862  0.0000E+00  0.0000E+00  0.1600E+02  0.1600E+02
     21.949  0.0000E+00  0.0000E+00  0.1600E+02  0.1600E+02
     22.037  0.0000E+00  0.0000E+00  0.1600E+02  0.1600E+02
     22.124  0.0000E+00  0.0000E+00  0.1600E+02  0.1600E+02
     22.211  0.0000E+00  0.0000E+00  0.1600E+02  0.1600E+02
     22.299  0.0000E+00  0.0000E+00  0.1600E+02  0.1600E+02
     22.386  0.0000E+00  0.0000E+00  0.1600E+02  0.1600E+02
     22.473  0.0000E+00  0.0000E+00  0.1600E+02  0.1600E+02
     22.47314389     -3.72320540  301      9.17774278      1.00000000
     -3.723  0.0000E+00  0.0000E+00  0.0000E+00  0.0000E+00  0.0000E+00  0.0000E+00  0.0000E+00  0.0000E+00  0.0000E+00  0.0000E+00  0.0000E+00  0.0000E+00  0.0000E+00  0.0000E+00  0.0000E+00  0.0000E+00  0.0000E+00  0.0000E+00
     -3.636  0.0000E+00  0.0000E+00  0.0000E+00  0.0000E+00  0.0000E+00  0.0000E+00  0.0000E+00  0.0000E+00  0.0000E+00  0.0000E+00  0.0000E+00  0.0000E+00  0.0000E+00  0.0000E+00  0.0000E+00  0.0000E+00  0.0000E+00  0.0000E+00
     -3.549  0.0000E+00  0.0000E+00  0.0000E+00  0.0000E+00  0.0000E+00  0.0000E+00  0.0000E+00  0.0000E+00  0.0000E+00  0.0000E+00  0.0000E+00  0.0000E+00  0.0000E+00  0.0000E+00  0.0000E+00  0.0000E+00  0.0000E+00  0.0000E+00
     -3.461  0.0000E+00  0.0000E+00  0.0000E+00  0.0000E+00  0.0000E+00  0.0000E+00  0.0000E+00  0.0000E+00  0.0000E+00  0.0000E+00  0.0000E+00  0.0000E+00  0.0000E+00  0.0000E+00  0.0000E+00  0.0000E+00  0.0000E+00  0.0000E+00
     -3.374  0.0000E+00  0.0000E+00  0.0000E+00  0.0000E+00  0.0000E+00  0.0000E+00  0.0000E+00  0.0000E+00  0.0000E+00  0.0000E+00  0.0000E+00  0.0000E+00  0.0000E+00  0.0000E+00  0.0000E+00  0.0000E+00  0.0000E+00  0.0000E+00
     -3.287  0.0000E+00  0.0000E+00  0.0000E+00  0.0000E+00  0.0000E+00  0.0000E+00  0.0000E+00  0.0000E+00  0.0000E+00  0.0000E+00  0.0000E+00  0.0000E+00  0.0000E+00  0.0000E+00  0.0000E+00  0.0000E+00  0.0000E+00  0.0000E+00
     -3.199  0.0000E+00  0.0000E+00  0.0000E+00  0.0000E+00  0.0000E+00  0.0000E+00  0.0000E+00  0.0000E+00  0.0000E+00  0.0000E+00  0.0000E+00  0.0000E+00  0.0000E+00  0.0000E+00  0.0000E+00  0.0000E+00  0.0000E+00  0.0000E+00
     -3.112  0.0000E+00  0.0000E+00  0.0000E+00  0.0000E+00  0.0000E+00  0.0000E+00  0.0000E+00  0.0000E+00  0.0000E+00  0.0000E+00  0.0000E+00  0.0000E+00  0.0000E+00  0.0000E+00  0.0000E+00  0.0000E+00  0.0000E+00  0.0000E+00
     -3.025  0.0000E+00  0.0000E+00  0.0000E+00  0.0000E+00  0.0000E+00  0.0000E+00  0.0000E+00  0.0000E+00  0.0000E+00  0.0000E+00  0.0000E+00  0.0000E+00  0.0000E+00  0.0000E+00  0.0000E+00  0.0000E+00  0.0000E+00  0.0000E+00
     -2.937  0.4086E-06  0.4011E-06  0.5778E-09  0.5673E-09  0.5778E-09  0.5673E-09  0.5776E-09  0.5671E-09  0.1043E-14  0.2756E-15  0.1954E-14  0.1166E-14  0.2031E-11  0.2233E-11  0.1043E-14  0.2756E-15  0.2594E-11  0.2869E-11
     -2.850  0.2818E-05  0.2766E-05  0.6664E-08  0.6543E-08  0.6664E-08  0.6543E-08  0.6663E-08  0.6542E-08  0.2945E-10  0.2819E-10  0.2951E-10  0.2821E-10  0.1877E-10  0.1984E-10  0.2945E-10  0.2819E-10  0.1939E-10  0.2079E-10
     -2.763  0.1643E-04  0.1614E-04  0.4294E-07  0.4216E-07  0.4294E-07  0.4216E-07  0.4293E-07  0.4215E-07  0.2383E-09  0.2307E-09  0.2386E-09  0.2308E-09  0.1290E-09  0.1351E-09  0.2383E-09  0.2307E-09  0.1433E-09  0.1513E-09
     -2.675  0.9255E-04  0.9090E-04  0.2526E-06  0.2481E-06  0.2526E-06  0.2481E-06  0.2526E-06  0.2480E-06  0.1472E-08  0.1431E-08  0.1474E-08  0.1432E-08  0.8876E-09  0.9181E-09  0.1472E-08  0.1431E-08  0.9903E-09  0.1031E-08
     -2.588  0.4784E-03  0.4706E-03  0.1404E-05  0.1380E-05  0.1404E-05  0.1380E-05  0.1404E-05  0.1380E-05  0.8916E-08  0.8661E-08  0.8926E-08  0.8664E-08  0.4920E-08  0.5082E-08  0.8916E-08  0.8661E-08  0.5504E-08  0.5721E-08
     -2.501  0.1869E-02  0.1846E-02  0.6580E-05  0.6484E-05  0.6580E-05  0.6484E-05  0.6579E-05  0.6483E-05  0.4641E-07  0.4519E-07  0.4646E-07  0.4521E-07  0.2369E-07  0.2434E-07  0.4641E-07  0.4519E-07  0.2627E-07  0.2712E-07
     -2.413  0.4415E-02  0.4388E-02  0.2109E-04  0.2089E-04  0.2109E-04  0.2089E-04  0.2109E-04  0.2088E-04  0.1894E-06  0.1858E-06  0.1896E-06  0.1859E-06  0.8979E-07  0.9076E-07  0.1894E-06  0.1858E-06  0.1011E-06  0.1023E-06
     -2.326  0.6378E-02  0.6361E-02  0.4562E-04  0.4529E-04  0.4562E-04  0.4529E-04  0.4561E-04  0.4527E-04  0.5208E-06  0.5158E-06  0.5211E-06  0.5159E-06  0.3035E-06  0.3024E-06  0.5208E-06  0.5158E-06  0.3600E-06  0.3588E-06
     -2.239  0.8663E-02  0.8630E-02  0.9048E-04  0.8989E-04  0.9048E-04  0.8989E-04  0.9046E-04  0.8986E-04  0.1329E-05  0.1318E-05  0.1330E-05  0.1318E-05  0.8119E-06  0.8072E-06  0.1329E-05  0.1318E-05  0.9721E-06  0.9677E-06
     -2.151  0.1052E-01  0.1052E-01  0.1348E-03  0.1345E-03  0.1348E-03  0.1345E-03  0.1348E-03  0.1345E-03  0.2674E-05  0.2646E-05  0.2674E-05  0.2646E-05  0.1230E-05  0.1224E-05  0.2674E-05  0.2646E-05  0.1447E-05  0.1442E-05
     -2.064  0.9467E-02  0.9467E-02  0.1552E-03  0.1548E-03  0.1552E-03  0.1548E-03  0.1552E-03  0.1547E-03  0.4142E-05  0.4082E-05  0.4143E-05  0.4082E-05  0.1792E-05  0.1768E-05  0.4142E-05  0.4082E-05  0.2005E-05  0.1982E-05
     -1.977  0.1191E-01  0.1187E-01  0.2470E-03  0.2458E-03  0.2470E-03  0.2458E-03  0.2469E-03  0.2456E-03  0.7259E-05  0.7161E-05  0.7262E-05  0.7157E-05  0.4034E-05  0.3980E-05  0.7259E-05  0.7161E-05  0.4657E-05  0.4595E-05
     -1.889  0.1404E-01  0.1404E-01  0.3311E-03  0.3306E-03  0.3311E-03  0.3306E-03  0.3310E-03  0.3306E-03  0.9898E-05  0.9789E-05  0.9903E-05  0.9782E-05  0.6763E-05  0.6709E-05  0.9898E-05  0.9789E-05  0.8172E-05  0.8104E-05
     -1.802  0.1315E-01  0.1316E-01  0.3559E-03  0.3555E-03  0.3559E-03  0.3555E-03  0.3560E-03  0.3556E-03  0.1425E-04  0.1407E-04  0.1426E-04  0.1407E-04  0.7143E-05  0.7094E-05  0.1425E-04  0.1407E-04  0.8492E-05  0.8437E-05
     -1.715  0.1421E-01  0.1420E-01  0.4429E-03  0.4418E-03  0.4429E-03  0.4418E-03  0.4429E-03  0.4417E-03  0.2335E-04  0.2308E-04  0.2336E-04  0.2308E-04  0.8461E-05  0.8377E-05  0.2335E-04  0.2308E-04  0.9463E-05  0.9368E-05
     -1.627  0.1394E-01  0.1397E-01  0.4787E-03  0.4791E-03  0.4787E-03  0.4791E-03  0.4786E-03  0.4790E-03  0.2666E-04  0.2652E-04  0.2665E-04  0.2650E-04  0.1070E-04  0.1063E-04  0.2666E-04  0.2652E-04  0.1227E-04  0.1219E-04
     -1.540  0.1308E-01  0.1305E-01  0.5251E-03  0.5229E-03  0.5251E-03  0.5229E-03  0.5243E-03  0.5222E-03  0.2819E-04  0.2799E-04  0.2822E-04  0.2799E-04  0.1700E-04  0.1692E-04  0.2819E-04  0.2799E-04  0.2063E-04  0.2052E-04
     -1.453  0.1752E-01  0.1749E-01  0.7750E-03  0.7728E-03  0.7750E-03  0.7728E-03  0.7746E-03  0.7725E-03  0.4577E-04  0.4553E-04  0.4586E-04  0.4555E-04  0.2769E-04  0.2766E-04  0.4577E-04  0.4553E-04  0.3317E-04  0.3314E-04
     -1.366  0.1794E-01  0.1795E-01  0.8521E-03  0.8518E-03  0.8521E-03  0.8518E-03  0.8522E-03  0.8519E-03  0.6013E-04  0.5999E-04  0.6029E-04  0.5999E-04  0.3024E-04  0.3027E-04  0.6013E-04  0.5999E-04  0.3476E-04  0.3480E-04
     -1.278  0.1745E-01  0.1745E-01  0.9027E-03  0.9021E-03  0.9027E-03  0.9021E-03  0.9028E-03  0.9022E-03  0.7441E-04  0.7418E-04  0.7451E-04  0.7415E-04  0.3207E-04  0.3208E-04  0.7441E-04  0.7418E-04  0.3687E-04  0.3688E-04
     -1.191  0.1518E-01  0.1522E-01  0.8371E-03  0.8389E-03  0.8371E-03  0.8389E-03  0.8379E-03  0.8397E-03  0.8166E-04  0.8155E-04  0.8167E-04  0.8148E-04  0.2689E-04  0.2696E-04  0.8166E-04  0.8155E-04  0.3113E-04  0.3121E-04
     -1.104  0.1262E-01  0.1261E-01  0.7822E-03  0.7801E-03  0.7822E-03  0.7801E-03  0.7811E-03  0.7790E-03  0.8467E-04  0.8429E-04  0.8476E-04  0.8433E-04  0.2844E-04  0.2824E-04  0.8467E-04  0.8429E-04  0.3307E-04  0.3283E-04
     -1.016  0.1734E-01  0.1727E-01  0.1206E-02  0.1201E-02  0.1206E-02  0.1201E-02  0.1204E-02  0.1198E-02  0.1246E-03  0.1239E-03  0.1247E-03  0.1239E-03  0.5842E-04  0.5800E-04  0.1246E-03  0.1239E-03  0.6794E-04  0.6745E-04
     -0.929  0.2089E-01  0.2090E-01  0.1550E-02  0.1549E-02  0.1550E-02  0.1549E-02  0.1549E-02  0.1549E-02  0.1570E-03  0.1567E-03  0.1569E-03  0.1565E-03  0.8349E-04  0.8348E-04  0.1570E-03  0.1567E-03  0.9855E-04  0.9852E-04
     -0.842  0.1857E-01  0.1858E-01  0.1479E-02  0.1478E-02  0.1479E-02  0.1478E-02  0.1479E-02  0.1478E-02  0.1704E-03  0.1699E-03  0.1704E-03  0.1699E-03  0.7861E-04  0.7873E-04  0.1704E-03  0.1699E-03  0.9425E-04  0.9440E-04
     -0.754  0.1922E-01  0.1924E-01  0.1636E-02  0.1636E-02  0.1636E-02  0.1636E-02  0.1636E-02  0.1636E-02  0.2134E-03  0.2133E-03  0.2134E-03  0.2133E-03  0.8686E-04  0.8697E-04  0.2134E-03  0.2133E-03  0.1038E-03  0.1039E-03
     -0.667  0.1476E-01  0.1482E-01  0.1331E-02  0.1335E-02  0.1331E-02  0.1335E-02  0.1334E-02  0.1337E-02  0.1913E-03  0.1914E-03  0.1913E-03  0.1914E-03  0.7416E-04  0.7457E-04  0.1913E-03  0.1914E-03  0.8632E-04  0.8685E-04
     -0.580  0.1443E-01  0.1438E-01  0.1419E-02  0.1413E-02  0.1419E-02  0.1413E-02  0.1417E-02  0.1411E-02  0.2597E-03  0.2582E-03  0.2600E-03  0.2586E-03  0.7308E-04  0.7308E-04  0.2597E-03  0.2582E-03  0.7994E-04  0.7996E-04
     -0.492  0.1905E-01  0.1902E-01  0.2050E-02  0.2044E-02  0.2050E-02  0.2044E-02  0.2046E-02  0.2040E-02  0.3915E-03  0.3906E-03  0.3916E-03  0.3907E-03  0.1029E-03  0.1030E-03  0.3915E-03  0.3906E-03  0.1139E-03  0.1139E-03
     -0.405  0.1865E-01  0.1868E-01  0.2361E-02  0.2359E-02  0.2361E-02  0.2359E-02  0.2356E-02  0.2354E-02  0.4015E-03  0.4021E-03  0.4012E-03  0.4017E-03  0.1249E-03  0.1252E-03  0.4015E-03  0.4021E-03  0.1432E-03  0.1435E-03
     -0.318  0.1556E-01  0.1559E-01  0.2401E-02  0.2401E-02  0.2401E-02  0.2401E-02  0.2399E-02  0.2399E-02  0.3682E-03  0.3681E-03  0.3681E-03  0.3681E-03  0.1312E-03  0.1316E-03  0.3682E-03  0.3681E-03  0.1564E-03  0.1568E-03
     -0.230  0.1386E-01  0.1387E-01  0.2402E-02  0.2401E-02  0.2402E-02  0.2401E-02  0.2401E-02  0.2400E-02  0.4106E-03  0.4098E-03  0.4110E-03  0.4102E-03  0.1318E-03  0.1321E-03  0.4106E-03  0.4098E-03  0.1580E-03  0.1585E-03
     -0.143  0.1464E-01  0.1461E-01  0.2735E-02  0.2730E-02  0.2735E-02  0.2730E-02  0.2734E-02  0.2729E-02  0.5643E-03  0.5616E-03  0.5652E-03  0.5626E-03  0.1486E-03  0.1487E-03  0.5643E-03  0.5616E-03  0.1717E-03  0.1720E-03
     -0.056  0.1717E-01  0.1717E-01  0.2959E-02  0.2960E-02  0.2959E-02  0.2960E-02  0.2963E-02  0.2964E-02  0.7973E-03  0.7955E-03  0.7974E-03  0.7958E-03  0.1539E-03  0.1543E-03  0.7973E-03  0.7955E-03  0.1675E-03  0.1680E-03
      0.032  0.1566E-01  0.1569E-01  0.2879E-02  0.2879E-02  0.2879E-02  0.2879E-02  0.2877E-02  0.2876E-02  0.8762E-03  0.8753E-03  0.8761E-03  0.8753E-03  0.1441E-03  0.1443E-03  0.8762E-03  0.8753E-03  0.1584E-03  0.1586E-03
      0.119  0.1396E-01  0.1398E-01  0.2965E-02  0.2966E-02  0.2965E-02  0.2966E-02  0.2965E-02  0.2966E-02  0.9517E-03  0.9513E-03  0.9515E-03  0.9511E-03  0.1475E-03  0.1480E-03  0.9517E-03  0.9513E-03  0.1646E-03  0.1651E-03
      0.206  0.9998E-02  0.1005E-01  0.2282E-02  0.2292E-02  0.2282E-02  0.2292E-02  0.2288E-02  0.2299E-02  0.7942E-03  0.7967E-03  0.7925E-03  0.7949E-03  0.1124E-03  0.1133E-03  0.7942E-03  0.7967E-03  0.1255E-03  0.1264E-03
      0.294  0.8094E-02  0.8078E-02  0.1949E-02  0.1946E-02  0.1949E-02  0.1946E-02  0.1949E-02  0.1945E-02  0.8121E-03  0.8088E-03  0.8128E-03  0.8095E-03  0.9739E-04  0.9731E-04  0.8121E-03  0.8088E-03  0.1104E-03  0.1103E-03
      0.381  0.1178E-01  0.1173E-01  0.2474E-02  0.2468E-02  0.2474E-02  0.2468E-02  0.2473E-02  0.2467E-02  0.1224E-02  0.1218E-02  0.1226E-02  0.1221E-02  0.1724E-03  0.1713E-03  0.1224E-02  0.1218E-02  0.1928E-03  0.1916E-03
      0.468  0.1685E-01  0.1681E-01  0.3033E-02  0.3029E-02  0.3033E-02  0.3029E-02  0.3027E-02  0.3023E-02  0.1610E-02  0.1606E-02  0.1611E-02  0.1608E-02  0.3995E-03  0.3968E-03  0.1610E-02  0.1606E-02  0.4675E-03  0.4640E-03
      0.556  0.2077E-01  0.2075E-01  0.3116E-02  0.3119E-02  0.3116E-02  0.3119E-02  0.3116E-02  0.3119E-02  0.1623E-02  0.1624E-02  0.1621E-02  0.1622E-02  0.7272E-03  0.7255E-03  0.1623E-02  0.1624E-02  0.8920E-03  0.8896E-03
      0.643  0.2137E-01  0.2138E-01  0.2800E-02  0.2804E-02  0.2800E-02  0.2804E-02  0.2804E-02  0.2809E-02  0.1502E-02  0.1503E-02  0.1500E-02  0.1501E-02  0.8383E-03  0.8390E-03  0.1502E-02  0.1503E-02  0.1040E-02  0.1041E-02