   4   4   1   0
  0.1144333E+02  0.3576606E-09  0.3577426E-09  0.3577426E-09  0.5000000E-15
  1.000000000000000E-004
  CAR 
 unknown system                          
     26.25504196     -2.91773484  301     11.62369549      1.00000000
     -2.918  0.0000E+00  0.0000E+00  0.0000E+00  0.0000E+00
     -2.820  0.0000E+00  0.0000E+00  0.0000E+00  0.0000E+00
     -2.723  0.0000E+00  0.0000E+00  0.0000E+00  0.0000E+00
     -2.626  0.0000E+00  0.0000E+00  0.0000E+00  0.0000E+00
     -2.529  0.0000E+00  0.0000E+00  0.0000E+00  0.0000E+00
     -2.432  0.0000E+00  0.0000E+00  0.0000E+00  0.0000E+00
     -2.334  0.0000E+00  0.0000E+00  0.0000E+00  0.0000E+00
     -2.237  0.0000E+00  0.0000E+00  0.0000E+00  0.0000E+00
     -2.140  0.0000E+00  0.0000E+00  0.0000E+00  0.0000E+00
     -2.043  0.5678E-06  0.5594E-06  0.5522E-07  0.5439E-07
     -1.945  0.1240E-04  0.1221E-04  0.1261E-05  0.1242E-05
     -1.848  0.8105E-04  0.7985E-04  0.9143E-05  0.9007E-05
     -1.751  0.5586E-03  0.5504E-03  0.6346E-04  0.6253E-04
     -1.654  0.3567E-02  0.3519E-02  0.4103E-03  0.4047E-03
     -1.556  0.1648E-01  0.1632E-01  0.2013E-02  0.1991E-02
     -1.459  0.4264E-01  0.4243E-01  0.6159E-02  0.6118E-02
     -1.362  0.6103E-01  0.6093E-01  0.1209E-01  0.1204E-01
     -1.265  0.8304E-01  0.8277E-01  0.2017E-01  0.2009E-01
     -1.167  0.1089E+00  0.1089E+00  0.3076E-01  0.3068E-01
     -1.070  0.9137E-01  0.9145E-01  0.3965E-01  0.3958E-01
     -0.973  0.1163E+00  0.1159E+00  0.5096E-01  0.5085E-01
     -0.876  0.1493E+00  0.1493E+00  0.6549E-01  0.6537E-01
     -0.778  0.1382E+00  0.1386E+00  0.7896E-01  0.7885E-01
     -0.681  0.1471E+00  0.1468E+00  0.9326E-01  0.9313E-01
     -0.584  0.1609E+00  0.1611E+00  0.1089E+00  0.1088E+00
     -0.487  0.1301E+00  0.1300E+00  0.1216E+00  0.1215E+00
     -0.389  0.1904E+00  0.1899E+00  0.1401E+00  0.1399E+00
     -0.292  0.2112E+00  0.2113E+00  0.1607E+00  0.1605E+00
     -0.195  0.2037E+00  0.2036E+00  0.1805E+00  0.1803E+00
     -0.098  0.1977E+00  0.1980E+00  0.1997E+00  0.1996E+00
     -0.000  0.1438E+00  0.1440E+00  0.2137E+00  0.2136E+00
      0.097  0.1830E+00  0.1822E+00  0.2315E+00  0.2314E+00
      0.194  0.2722E+00  0.2718E+00  0.2580E+00  0.2578E+00
      0.291  0.2502E+00  0.2506E+00  0.2824E+00  0.2822E+00
      0.389  0.2570E+00  0.2566E+00  0.3074E+00  0.3072E+00
      0.486  0.2376E+00  0.2383E+00  0.3305E+00  0.3303E+00
      0.583  0.1739E+00  0.1738E+00  0.3475E+00  0.3473E+00
      0.680  0.2507E+00  0.2500E+00  0.3719E+00  0.3716E+00
      0.777  0.2987E+00  0.2987E+00  0.4010E+00  0.4007E+00
      0.875  0.2781E+00  0.2783E+00  0.4280E+00  0.4278E+00
      0.972  0.2695E+00  0.2696E+00  0.4543E+00  0.4540E+00
      1.069  0.2607E+00  0.2605E+00  0.4796E+00  0.4794E+00
      1.166  0.3370E+00  0.3364E+00  0.5125E+00  0.5122E+00
      1.264  0.3298E+00  0.3302E+00  0.5445E+00  0.5443E+00
      1.361  0.3045E+00  0.3043E+00  0.5742E+00  0.5739E+00
      1.458  0.3032E+00  0.3037E+00  0.6037E+00  0.6035E+00
      1.555  0.1943E+00  0.1949E+00  0.6227E+00  0.6225E+00
      1.653  0.2249E+00  0.2241E+00  0.6446E+00  0.6443E+00
      1.750  0.3230E+00  0.3223E+00  0.6760E+00  0.6757E+00
      1.847  0.3866E+00  0.3864E+00  0.7136E+00  0.7133E+00
      1.944  0.3746E+00  0.3750E+00  0.7501E+00  0.7498E+00
      2.042  0.3512E+00  0.3513E+00  0.7842E+00  0.7840E+00
      2.139  0.3109E+00  0.3117E+00  0.8145E+00  0.8143E+00
      2.236  0.2544E+00  0.2540E+00  0.8393E+00  0.8391E+00
      2.333  0.3959E+00  0.3945E+00  0.8778E+00  0.8775E+00
      2.431  0.4286E+00  0.4297E+00  0.9195E+00  0.9193E+00
      2.528  0.2778E+00  0.2783E+00  0.9466E+00  0.9464E+00
      2.625  0.2872E+00  0.2871E+00  0.9745E+00  0.9743E+00
      2.722  0.3211E+00  0.3204E+00  0.1006E+01  0.1005E+01
      2.820  0.4562E+00  0.4550E+00  0.1050E+01  0.1050E+01
      2.917  0.5201E+00  0.5205E+00  0.1101E+01  0.1100E+01
      3.014  0.4173E+00  0.4182E+00  0.1141E+01  0.1141E+01
      3.111  0.3139E+00  0.3144E+00  0.1172E+01  0.1172E+01
      3.209  0.3140E+00  0.3132E+00  0.1203E+01  0.1202E+01
      3.306  0.4521E+00  0.4514E+00  0.1247E+01  0.1246E+01
      3.403  0.4739E+00  0.4746E+00  0.1293E+01  0.1292E+01
      3.500  0.3391E+00  0.3402E+00  0.1326E+01  0.1325E+01
      3.598  0.2911E+00  0.2908E+00  0.1354E+01  0.1354E+01
      3.695  0.3897E+00  0.3886E+00  0.1392E+01  0.1392E+01
      3.792  0.5149E+00  0.5144E+00  0.1442E+01  0.1442E+01
      3.889  0.5501E+00  0.5504E+00  0.1496E+01  0.1495E+01
      3.986  0.4733E+00  0.4742E+00  0.1542E+01  0.1541E+01
      4.084  0.3730E+00  0.3730E+00  0.1578E+01  0.1578E+01
      4.181  0.4966E+00  0.4953E+00  0.1626E+01  0.1626E+01
      4.278  0.5630E+00  0.5633E+00  0.1681E+01  0.1681E+01
      4.375  0.4932E+00  0.4935E+00  0.1729E+01  0.1729E+01
      4.473  0.4704E+00  0.4708E+00  0.1775E+01  0.1775E+01
      4.570  0.3911E+00  0.3916E+00  0.1813E+01  0.1813E+01
      4.667  0.4276E+00  0.4265E+00  0.1855E+01  0.1854E+01
      4.764  0.6605E+00  0.6595E+00  0.1919E+01  0.1919E+01
      4.862  0.7206E+00  0.7207E+00  0.1989E+01  0.1989E+01
      4.959  0.7348E+00  0.7347E+00  0.2061E+01  0.2060E+01
      5.056  0.7816E+00  0.7812E+00  0.2137E+01  0.2136E+01
      5.153  0.7221E+00  0.7231E+00  0.2207E+01  0.2207E+01
      5.251  0.6383E+00  0.6382E+00  0.2269E+01  0.2269E+01
      5.348  0.7151E+00  0.7145E+00  0.2339E+01  0.2338E+01
      5.445  0.7987E+00  0.7987E+00  0.2416E+01  0.2416E+01
      5.542  0.8664E+00  0.8666E+00  0.2501E+01  0.2500E+01
      5.640  0.9395E+00  0.9398E+00  0.2592E+01  0.2592E+01
      5.737  0.9185E+00  0.9190E+00  0.2682E+01  0.2681E+01
      5.834  0.1004E+01  0.1004E+01  0.2779E+01  0.2779E+01
      5.931  0.1257E+01  0.1256E+01  0.2902E+01  0.2901E+01
      6.029  0.1543E+01  0.1545E+01  0.3052E+01  0.3051E+01
      6.126  0.1508E+01  0.1509E+01  0.3198E+01  0.3198E+01
      6.223  0.1762E+01  0.1762E+01  0.3370E+01  0.3370E+01
      6.320  0.2075E+01  0.2074E+01  0.3572E+01  0.3571E+01
      6.418  0.2659E+01  0.2652E+01  0.3831E+01  0.3829E+01
      6.515  0.3665E+01  0.3655E+01  0.4187E+01  0.4185E+01
      6.612  0.4414E+01  0.4406E+01  0.4617E+01  0.4614E+01
      6.709  0.4600E+01  0.4600E+01  0.5064E+01  0.5061E+01
      6.807  0.3712E+01  0.3718E+01  0.5425E+01  0.5423E+01
      6.904  0.2698E+01  0.2702E+01  0.5688E+01  0.5686E+01
      7.001  0.2027E+01  0.2032E+01  0.5886E+01  0.5884E+01
      7.098  0.1238E+01  0.1245E+01  0.6006E+01  0.6006E+01
      7.195  0.6556E+00  0.6608E+00  0.6071E+01  0.6071E+01
      7.293  0.1202E+01  0.1210E+01  0.6188E+01  0.6188E+01
      7.390  0.3044E+01  0.3052E+01  0.6484E+01  0.6485E+01
      7.487  0.3500E+01  0.3491E+01  0.6824E+01  0.6825E+01
      7.584  0.2478E+01  0.2471E+01  0.7065E+01  0.7065E+01
      7.682  0.1843E+01  0.1841E+01  0.7245E+01  0.7244E+01
      7.779  0.1413E+01  0.1412E+01  0.7383E+01  0.7382E+01
      7.876  0.1188E+01  0.1188E+01  0.7498E+01  0.7498E+01
      7.973  0.1135E+01  0.1135E+01  0.7609E+01  0.7609E+01
      8.071  0.1010E+01  0.1010E+01  0.7707E+01  0.7707E+01
      8.168  0.8382E+00  0.8383E+00  0.7789E+01  0.7789E+01
      8.265  0.7734E+00  0.7739E+00  0.7864E+01  0.7864E+01
      8.362  0.6085E+00  0.6089E+00  0.7923E+01  0.7923E+01
      8.460  0.8045E+00  0.8027E+00  0.8002E+01  0.8001E+01
      8.557  0.9900E+00  0.9896E+00  0.8098E+01  0.8098E+01
      8.654  0.7652E+00  0.7669E+00  0.8173E+01  0.8172E+01
      8.751  0.4389E+00  0.4402E+00  0.8215E+01  0.8215E+01
      8.849  0.3806E+00  0.3799E+00  0.8252E+01  0.8252E+01
      8.946  0.5303E+00  0.5291E+00  0.8304E+01  0.8304E+01
      9.043  0.6486E+00  0.6488E+00  0.8367E+01  0.8367E+01
      9.140  0.6104E+00  0.6105E+00  0.8427E+01  0.8426E+01
      9.238  0.6534E+00  0.6527E+00  0.8490E+01  0.8490E+01
      9.335  0.7168E+00  0.7172E+00  0.8560E+01  0.8560E+01
      9.432  0.5300E+00  0.5310E+00  0.8612E+01  0.8611E+01
      9.529  0.4292E+00  0.4290E+00  0.8653E+01  0.8653E+01
      9.627  0.4112E+00  0.4114E+00  0.8694E+01  0.8693E+01
      9.724  0.4357E+00  0.4353E+00  0.8736E+01  0.8736E+01
      9.821  0.4865E+00  0.4863E+00  0.8783E+01  0.8783E+01
      9.918  0.5337E+00  0.5329E+00  0.8835E+01  0.8835E+01
     10.016  0.7092E+00  0.7081E+00  0.8904E+01  0.8904E+01
     10.113  0.7631E+00  0.7633E+00  0.8978E+01  0.8978E+01
     10.210  0.7117E+00  0.7116E+00  0.9048E+01  0.9047E+01
     10.307  0.7037E+00  0.7044E+00  0.9116E+01  0.9116E+01
     10.404  0.5449E+00  0.5455E+00  0.9169E+01  0.9169E+01
     10.502  0.4844E+00  0.4850E+00  0.9217E+01  0.9216E+01
     10.599  0.5700E+00  0.5679E+00  0.9272E+01  0.9271E+01
     10.696  0.8506E+00  0.8496E+00  0.9355E+01  0.9354E+01
     10.793  0.7599E+00  0.7615E+00  0.9429E+01  0.9428E+01
     10.891  0.5931E+00  0.5937E+00  0.9487E+01  0.9486E+01
     10.988  0.5629E+00  0.5635E+00  0.9541E+01  0.9541E+01
     11.085  0.4310E+00  0.4319E+00  0.9583E+01  0.9583E+01
     11.182  0.5270E+00  0.5241E+00  0.9635E+01  0.9634E+01
     11.280  0.9153E+00  0.9135E+00  0.9724E+01  0.9723E+01
     11.377  0.9557E+00  0.9563E+00  0.9817E+01  0.9816E+01
     11.474  0.9226E+00  0.9230E+00  0.9906E+01  0.9906E+01
     11.571  0.7114E+00  0.7138E+00  0.9976E+01  0.9975E+01
     11.669  0.4484E+00  0.4490E+00  0.1002E+02  0.1002E+02
     11.766  0.4927E+00  0.4917E+00  0.1007E+02  0.1007E+02
     11.863  0.5718E+00  0.5716E+00  0.1012E+02  0.1012E+02
     11.960  0.6519E+00  0.6509E+00  0.1019E+02  0.1019E+02
     12.058  0.7983E+00  0.7976E+00  0.1026E+02  0.1026E+02
     12.155  0.8115E+00  0.8121E+00  0.1034E+02  0.1034E+02
     12.252  0.6858E+00  0.6865E+00  0.1041E+02  0.1041E+02
     12.349  0.6465E+00  0.6463E+00  0.1047E+02  0.1047E+02
     12.447  0.6736E+00  0.6737E+00  0.1054E+02  0.1054E+02
     12.544  0.5556E+00  0.5569E+00  0.1059E+02  0.1059E+02
     12.641  0.4912E+00  0.4911E+00  0.1064E+02  0.1064E+02
     12.738  0.5545E+00  0.5540E+00  0.1069E+02  0.1069E+02
     12.836  0.5329E+00  0.5338E+00  0.1075E+02  0.1075E+02
     12.933  0.4176E+00  0.4181E+00  0.1079E+02  0.1079E+02
     13.030  0.3978E+00  0.3977E+00  0.1083E+02  0.1083E+02
     13.127  0.4679E+00  0.4675E+00  0.1087E+02  0.1087E+02
     13.225  0.5612E+00  0.5603E+00  0.1093E+02  0.1093E+02
     13.322  0.6687E+00  0.6686E+00  0.1099E+02  0.1099E+02
     13.419  0.6544E+00  0.6546E+00  0.1105E+02  0.1105E+02
     13.516  0.6930E+00  0.6923E+00  0.1112E+02  0.1112E+02
     13.614  0.7592E+00  0.7589E+00  0.1120E+02  0.1120E+02
     13.711  0.7193E+00  0.7200E+00  0.1127E+02  0.1127E+02
     13.808  0.6374E+00  0.6379E+00  0.1133E+02  0.1133E+02
     13.905  0.5787E+00  0.5791E+00  0.1138E+02  0.1138E+02
     14.002  0.5383E+00  0.5380E+00  0.1144E+02  0.1144E+02
     14.100  0.6364E+00  0.6350E+00  0.1150E+02  0.1150E+02
     14.197  0.8399E+00  0.8387E+00  0.1158E+02  0.1158E+02
     14.294  0.9433E+00  0.9434E+00  0.1167E+02  0.1167E+02
     14.391  0.9245E+00  0.9251E+00  0.1176E+02  0.1176E+02
     14.489  0.8202E+00  0.8211E+00  0.1184E+02  0.1184E+02
     14.586  0.8234E+00  0.8232E+00  0.1192E+02  0.1192E+02
     14.683  0.7877E+00  0.7890E+00  0.1200E+02  0.1200E+02
     14.780  0.5753E+00  0.5753E+00  0.1205E+02  0.1205E+02
     14.878  0.6352E+00  0.6344E+00  0.1212E+02  0.1212E+02
     14.975  0.6875E+00  0.6872E+00  0.1218E+02  0.1218E+02
     15.072  0.7582E+00  0.7580E+00  0.1226E+02  0.1226E+02
     15.169  0.7781E+00  0.7779E+00  0.1233E+02  0.1233E+02
     15.267  0.7659E+00  0.7665E+00  0.1241E+02  0.1241E+02
     15.364  0.6090E+00  0.6104E+00  0.1247E+02  0.1247E+02
     15.461  0.5126E+00  0.5128E+00  0.1252E+02  0.1252E+02
     15.558  0.6029E+00  0.6017E+00  0.1258E+02  0.1258E+02
     15.656  0.8056E+00  0.8046E+00  0.1265E+02  0.1265E+02
     15.753  0.7617E+00  0.7633E+00  0.1273E+02  0.1273E+02
     15.850  0.6302E+00  0.6297E+00  0.1279E+02  0.1279E+02
     15.947  0.7854E+00  0.7842E+00  0.1287E+02  0.1287E+02
     16.045  0.8407E+00  0.8407E+00  0.1295E+02  0.1295E+02
     16.142  0.8088E+00  0.8096E+00  0.1303E+02  0.1303E+02
     16.239  0.6270E+00  0.6283E+00  0.1309E+02  0.1309E+02
     16.336  0.4244E+00  0.4254E+00  0.1313E+02  0.1313E+02
     16.434  0.4030E+00  0.4024E+00  0.1317E+02  0.1317E+02
     16.531  0.5489E+00  0.5482E+00  0.1322E+02  0.1322E+02
     16.628  0.6379E+00  0.6371E+00  0.1328E+02  0.1328E+02
     16.725  0.7599E+00  0.7590E+00  0.1336E+02  0.1336E+02
     16.823  0.8372E+00  0.8368E+00  0.1344E+02  0.1344E+02
     16.920  0.7627E+00  0.7645E+00  0.1351E+02  0.1351E+02
     17.017  0.6151E+00  0.6149E+00  0.1357E+02  0.1357E+02
     17.114  0.8144E+00  0.8133E+00  0.1365E+02  0.1365E+02
     17.211  0.9112E+00  0.9106E+00  0.1374E+02  0.1374E+02
     17.309  0.9255E+00  0.9259E+00  0.1383E+02  0.1383E+02
     17.406  0.7551E+00  0.7563E+00  0.1390E+02  0.1390E+02
     17.503  0.6919E+00  0.6921E+00  0.1397E+02  0.1397E+02
     17.600  0.6213E+00  0.6220E+00  0.1403E+02  0.1403E+02
     17.698  0.5708E+00  0.5702E+00  0.1409E+02  0.1409E+02
     17.795  0.6879E+00  0.6871E+00  0.1415E+02  0.1415E+02
     17.892  0.7634E+00  0.7633E+00  0.1423E+02  0.1423E+02
     17.989  0.7849E+00  0.7854E+00  0.1431E+02  0.1431E+02
     18.087  0.6436E+00  0.6452E+00  0.1437E+02  0.1437E+02
     18.184  0.5891E+00  0.5894E+00  0.1443E+02  0.1443E+02
     18.281  0.8526E+00  0.8497E+00  0.1451E+02  0.1451E+02
     18.378  0.1108E+01  0.1106E+01  0.1462E+02  0.1462E+02
     18.476  0.1034E+01  0.1035E+01  0.1472E+02  0.1472E+02
     18.573  0.8165E+00  0.8192E+00  0.1480E+02  0.1480E+02
     18.670  0.6222E+00  0.6280E+00  0.1486E+02  0.1486E+02
     18.767  0.6504E+00  0.6594E+00  0.1492E+02  0.1492E+02
     18.865  0.9086E+00  0.9123E+00  0.1501E+02  0.1501E+02
     18.962  0.9242E+00  0.9276E+00  0.1510E+02  0.1510E+02
     19.059  0.6912E+00  0.6796E+00  0.1517E+02  0.1517E+02
     19.156  0.4967E+00  0.4966E+00  0.1521E+02  0.1522E+02
     19.254  0.4072E+00  0.4092E+00  0.1525E+02  0.1525E+02
     19.351  0.4338E+00  0.4252E+00  0.1530E+02  0.1530E+02
     19.448  0.6388E+00  0.6358E+00  0.1536E+02  0.1536E+02
     19.545  0.4944E+00  0.4946E+00  0.1541E+02  0.1541E+02
     19.643  0.2681E+00  0.2697E+00  0.1543E+02  0.1543E+02
     19.740  0.1786E+00  0.1802E+00  0.1545E+02  0.1545E+02
     19.837  0.1716E+00  0.1726E+00  0.1547E+02  0.1547E+02
     19.934  0.1934E+00  0.1914E+00  0.1549E+02  0.1549E+02
     20.032  0.3035E+00  0.2999E+00  0.1552E+02  0.1552E+02
     20.129  0.3316E+00  0.3199E+00  0.1555E+02  0.1555E+02
     20.226  0.3684E+00  0.3446E+00  0.1558E+02  0.1558E+02
     20.323  0.4051E+00  0.4144E+00  0.1562E+02  0.1562E+02
     20.420  0.2377E+00  0.2592E+00  0.1565E+02  0.1565E+02
     20.518  0.1086E+00  0.1159E+00  0.1566E+02  0.1566E+02
     20.615  0.1163E+00  0.1173E+00  0.1567E+02  0.1567E+02
     20.712  0.1385E+00  0.1372E+00  0.1568E+02  0.1568E+02
     20.809  0.1494E+00  0.1412E+00  0.1570E+02  0.1570E+02
     20.907  0.1868E+00  0.1685E+00  0.1571E+02  0.1571E+02
     21.004  0.1665E+00  0.1778E+00  0.1573E+02  0.1573E+02
     21.101  0.1308E+00  0.1442E+00  0.1574E+02  0.1574E+02
     21.198  0.1228E+00  0.1257E+00  0.1576E+02  0.1576E+02
     21.296  0.7732E-01  0.7709E-01  0.1576E+02  0.1576E+02
     21.393  0.8417E-01  0.8407E-01  0.1577E+02  0.1577E+02
     21.490  0.1265E+00  0.1268E+00  0.1578E+02  0.1578E+02
     21.587  0.2014E+00  0.2022E+00  0.1580E+02  0.1580E+02
     21.685  0.2648E+00  0.2647E+00  0.1583E+02  0.1583E+02
     21.782  0.2082E+00  0.2083E+00  0.1585E+02  0.1585E+02
     21.879  0.7743E-01  0.7789E-01  0.1586E+02  0.1586E+02
     21.976  0.1729E-01  0.1717E-01  0.1586E+02  0.1586E+02
     22.074  0.1888E-01  0.1728E-01  0.1586E+02  0.1586E+02
     22.171  0.7309E-01  0.6677E-01  0.1587E+02  0.1587E+02
     22.268  0.1200E+00  0.1181E+00  0.1588E+02  0.1588E+02
     22.365  0.6711E-01  0.7431E-01  0.1589E+02  0.1588E+02
     22.463  0.1692E-01  0.1934E-01  0.1589E+02  0.1589E+02
     22.560  0.6200E-02  0.6515E-02  0.1589E+02  0.1589E+02
     22.657  0.2233E-01  0.2182E-01  0.1589E+02  0.1589E+02
     22.754  0.8948E-01  0.8647E-01  0.1590E+02  0.1590E+02
     22.852  0.1841E+00  0.1727E+00  0.1592E+02  0.1591E+02
     22.949  0.1980E+00  0.1895E+00  0.1594E+02  0.1593E+02
     23.046  0.8240E-01  0.9719E-01  0.1594E+02  0.1594E+02
     23.143  0.1600E-01  0.2331E-01  0.1595E+02  0.1594E+02
     23.241  0.2851E-02  0.4171E-02  0.1595E+02  0.1595E+02
     23.338  0.3934E-02  0.4160E-02  0.1595E+02  0.1595E+02
     23.435  0.2228E-01  0.2200E-01  0.1595E+02  0.1595E+02
     23.532  0.6540E-01  0.6453E-01  0.1595E+02  0.1595E+02
     23.629  0.8715E-01  0.8651E-01  0.1596E+02  0.1596E+02
     23.727  0.8567E-01  0.8752E-01  0.1597E+02  0.1597E+02
     23.824  0.5451E-01  0.5475E-01  0.1598E+02  0.1598E+02
     23.921  0.1446E-01  0.1426E-01  0.1598E+02  0.1598E+02
     24.018  0.2368E-02  0.2325E-02  0.1598E+02  0.1598E+02
     24.116  0.3752E-03  0.3628E-03  0.1598E+02  0.1598E+02
     24.213  0.4431E-03  0.4196E-03  0.1598E+02  0.1598E+02
     24.310  0.3006E-02  0.2855E-02  0.1598E+02  0.1598E+02
     24.407  0.1711E-01  0.1651E-01  0.1598E+02  0.1598E+02
     24.505  0.4773E-01  0.4781E-01  0.1598E+02  0.1598E+02
     24.602  0.3650E-01  0.3711E-01  0.1599E+02  0.1599E+02
     24.699  0.1942E-01  0.1946E-01  0.1599E+02  0.1599E+02
     24.796  0.3498E-01  0.3509E-01  0.1599E+02  0.1599E+02
     24.894  0.3358E-01  0.3405E-01  0.1600E+02  0.1600E+02
     24.991  0.2224E-01  0.2212E-01  0.1600E+02  0.1600E+02
     25.088  0.7802E-02  0.7419E-02  0.1600E+02  0.1600E+02
     25.185  0.1271E-02  0.1180E-02  0.1600E+02  0.1600E+02
     25.283  0.1891E-03  0.1750E-03  0.1600E+02  0.1600E+02
     25.380  0.0000E+00  0.0000E+00  0.1600E+02  0.1600E+02
     25.477  0.0000E+00  0.0000E+00  0.1600E+02  0.1600E+02
     25.574  0.0000E+00  0.0000E+00  0.1600E+02  0.1600E+02
     25.672  0.0000E+00  0.0000E+00  0.1600E+02  0.1600E+02
     25.769  0.0000E+00  0.0000E+00  0.1600E+02  0.1600E+02
     25.866  0.0000E+00  0.0000E+00  0.1600E+02  0.1600E+02
     25.963  0.0000E+00  0.0000E+00  0.1600E+02  0.1600E+02
     26.061  0.0000E+00  0.0000E+00  0.1600E+02  0.1600E+02
     26.158  0.0000E+00  0.0000E+00  0.1600E+02  0.1600E+02
     26.255  0.0000E+00  0.0000E+00  0.1600E+02  0.1600E+02
     26.25504196     -2.91773484  301     11.62369549      1.00000000
     -2.918  0.0000E+00  0.0000E+00  0.0000E+00  0.0000E+00  0.0000E+00  0.0000E+00  0.0000E+00  0.0000E+00  0.0000E+00  0.0000E+00  0.0000E+00  0.0000E+00  0.0000E+00  0.0000E+00  0.0000E+00  0.0000E+00  0.0000E+00  0.0000E+00
     -2.820  0.0000E+00  0.0000E+00  0.0000E+00  0.0000E+00  0.0000E+00  0.0000E+00  0.0000E+00  0.0000E+00  0.0000E+00  0.0000E+00  0.0000E+00  0.0000E+00  0.0000E+00  0.0000E+00  0.0000E+00  0.0000E+00  0.0000E+00  0.0000E+00
     -2.723  0.0000E+00  0.0000E+00  0.0000E+00  0.0000E+00  0.0000E+00  0.0000E+00  0.0000E+00  0.0000E+00  0.0000E+00  0.0000E+00  0.0000E+00  0.0000E+00  0.0000E+00  0.0000E+00  0.0000E+00  0.0000E+00  0.0000E+00  0.0000E+00
     -2.626  0.0000E+00  0.0000E+00  0.0000E+00  0.0000E+00  0.0000E+00  0.0000E+00  0.0000E+00  0.0000E+00  0.0000E+00  0.0000E+00  0.0000E+00  0.0000E+00  0.0000E+00  0.0000E+00  0.0000E+00  0.0000E+00  0.0000E+00  0.0000E+00
     -2.529  0.0000E+00  0.0000E+00  0.0000E+00  0.0000E+00  0.0000E+00  0.0000E+00  0.0000E+00  0.0000E+00  0.0000E+00  0.0000E+00  0.0000E+00  0.0000E+00  0.0000E+00  0.0000E+00  0.0000E+00  0.0000E+00  0.0000E+00  0.0000E+00
     -2.432  0.0000E+00  0.0000E+00  0.0000E+00  0.0000E+00  0.0000E+00  0.0000E+00  0.0000E+00  0.0000E+00  0.0000E+00  0.0000E+00  0.0000E+00  0.0000E+00  0.0000E+00  0.0000E+00  0.0000E+00  0.0000E+00  0.0000E+00  0.0000E+00
     -2.334  0.0000E+00  0.0000E+00  0.0000E+00  0.0000E+00  0.0000E+00  0.0000E+00  0.0000E+00  0.0000E+00  0.0000E+00  0.0000E+00  0.0000E+00  0.0000E+00  0.0000E+00  0.0000E+00  0.0000E+00  0.0000E+00  0.0000E+00  0.0000E+00
     -2.237  0.0000E+00  0.0000E+00  0.0000E+00  0.0000E+00  0.0000E+00  0.0000E+00  0.0000E+00  0.0000E+00  0.0000E+00  0.0000E+00  0.0000E+00  0.0000E+00  0.0000E+00  0.0000E+00  0.0000E+00  0.0000E+00  0.0000E+00  0.0000E+00
     -2.140  0.0000E+00  0.0000E+00  0.0000E+00  0.0000E+00  0.0000E+00  0.0000E+00  0.0000E+00  0.0000E+00  0.0000E+00  0.0000E+00  0.0000E+00  0.0000E+00  0.0000E+00  0.0000E+00  0.0000E+00  0.0000E+00  0.0000E+00  0.0000E+00
     -2.043  0.6852E-07  0.6750E-07  0.4157E-21  0.1702E-21  0.4157E-21  0.1702E-21  0.1021E-21  0.4178E-21  0.2362E-15  0.5116E-15  0.9180E-15  0.5631E-15  0.2610E-17  0.2136E-16  0.2362E-15  0.5116E-15  0.3301E-17  0.2625E-16
     -1.945  0.1483E-05  0.1461E-05  0.3481E-08  0.3429E-08  0.3481E-08  0.3429E-08  0.3481E-08  0.3429E-08  0.1238E-10  0.1188E-10  0.1239E-10  0.1188E-10  0.1153E-10  0.1101E-10  0.1238E-10  0.1188E-10  0.1240E-10  0.1186E-10
     -1.848  0.9691E-05  0.9549E-05  0.2390E-07  0.2354E-07  0.2390E-07  0.2354E-07  0.2390E-07  0.2354E-07  0.1185E-09  0.1151E-09  0.1186E-09  0.1151E-09  0.6903E-10  0.6589E-10  0.1185E-09  0.1151E-09  0.7423E-10  0.7097E-10
     -1.751  0.6677E-04  0.6581E-04  0.1685E-06  0.1661E-06  0.1685E-06  0.1661E-06  0.1685E-06  0.1660E-06  0.7830E-09  0.7598E-09  0.7834E-09  0.7597E-09  0.5736E-09  0.5477E-09  0.7830E-09  0.7598E-09  0.6361E-09  0.6083E-09
     -1.654  0.4259E-03  0.4203E-03  0.1192E-05  0.1175E-05  0.1192E-05  0.1175E-05  0.1192E-05  0.1175E-05  0.6301E-08  0.6111E-08  0.6304E-08  0.6111E-08  0.4426E-08  0.4236E-08  0.6301E-08  0.6111E-08  0.4927E-08  0.4722E-08
     -1.556  0.1963E-02  0.1944E-02  0.6768E-05  0.6687E-05  0.6768E-05  0.6687E-05  0.6768E-05  0.6686E-05  0.3999E-07  0.3884E-07  0.4000E-07  0.3884E-07  0.2494E-07  0.2391E-07  0.3999E-07  0.3884E-07  0.2734E-07  0.2625E-07
     -1.459  0.5055E-02  0.5031E-02  0.2434E-04  0.2416E-04  0.2434E-04  0.2416E-04  0.2434E-04  0.2416E-04  0.1936E-06  0.1891E-06  0.1936E-06  0.1891E-06  0.9985E-07  0.9606E-07  0.1936E-06  0.1891E-06  0.1092E-06  0.1052E-06
     -1.362  0.7169E-02  0.7159E-02  0.5244E-04  0.5217E-04  0.5244E-04  0.5217E-04  0.5242E-04  0.5215E-04  0.5440E-06  0.5342E-06  0.5441E-06  0.5343E-06  0.3523E-06  0.3404E-06  0.5440E-06  0.5342E-06  0.4161E-06  0.4020E-06
     -1.265  0.9620E-02  0.9590E-02  0.1073E-03  0.1067E-03  0.1073E-03  0.1067E-03  0.1073E-03  0.1067E-03  0.1419E-05  0.1385E-05  0.1419E-05  0.1386E-05  0.1083E-05  0.1054E-05  0.1419E-05  0.1385E-05  0.1303E-05  0.1268E-05
     -1.167  0.1250E-01  0.1250E-01  0.1710E-03  0.1708E-03  0.1710E-03  0.1708E-03  0.1710E-03  0.1708E-03  0.3096E-05  0.3035E-05  0.3096E-05  0.3035E-05  0.1672E-05  0.1643E-05  0.3096E-05  0.3035E-05  0.1988E-05  0.1953E-05
     -1.070  0.1035E-01  0.1037E-01  0.1775E-03  0.1772E-03  0.1775E-03  0.1772E-03  0.1774E-03  0.1772E-03  0.4417E-05  0.4349E-05  0.4419E-05  0.4350E-05  0.2038E-05  0.2006E-05  0.4417E-05  0.4349E-05  0.2266E-05  0.2233E-05
     -0.973  0.1293E-01  0.1289E-01  0.2875E-03  0.2862E-03  0.2875E-03  0.2862E-03  0.2873E-03  0.2860E-03  0.8180E-05  0.8065E-05  0.8182E-05  0.8066E-05  0.4867E-05  0.4801E-05  0.8180E-05  0.8065E-05  0.5514E-05  0.5441E-05
     -0.876  0.1644E-01  0.1643E-01  0.4137E-03  0.4132E-03  0.4137E-03  0.4132E-03  0.4136E-03  0.4131E-03  0.1124E-04  0.1111E-04  0.1124E-04  0.1111E-04  0.9361E-05  0.9286E-05  0.1124E-04  0.1111E-04  0.1130E-04  0.1121E-04
     -0.778  0.1502E-01  0.1506E-01  0.4304E-03  0.4307E-03  0.4304E-03  0.4307E-03  0.4306E-03  0.4309E-03  0.1503E-04  0.1484E-04  0.1503E-04  0.1484E-04  0.9895E-05  0.9844E-05  0.1503E-04  0.1484E-04  0.1197E-04  0.1191E-04
     -0.681  0.1571E-01  0.1568E-01  0.5237E-03  0.5223E-03  0.5237E-03  0.5223E-03  0.5236E-03  0.5222E-03  0.2587E-04  0.2552E-04  0.2588E-04  0.2554E-04  0.1082E-04  0.1073E-04  0.2587E-04  0.2552E-04  0.1207E-04  0.1198E-04
     -0.584  0.1698E-01  0.1701E-01  0.6190E-03  0.6195E-03  0.6190E-03  0.6195E-03  0.6191E-03  0.6196E-03  0.3352E-04  0.3325E-04  0.3350E-04  0.3323E-04  0.1384E-04  0.1377E-04  0.3352E-04  0.3325E-04  0.1548E-04  0.1539E-04
     -0.487  0.1347E-01  0.1346E-01  0.5640E-03  0.5629E-03  0.5640E-03  0.5629E-03  0.5632E-03  0.5621E-03  0.2861E-04  0.2841E-04  0.2861E-04  0.2840E-04  0.1917E-04  0.1904E-04  0.2861E-04  0.2841E-04  0.2318E-04  0.2302E-04
     -0.389  0.1933E-01  0.1928E-01  0.9106E-03  0.9078E-03  0.9106E-03  0.9078E-03  0.9098E-03  0.9069E-03  0.4886E-04  0.4850E-04  0.4890E-04  0.4854E-04  0.3678E-04  0.3660E-04  0.4886E-04  0.4850E-04  0.4465E-04  0.4445E-04
     -0.292  0.2118E-01  0.2120E-01  0.1064E-02  0.1064E-02  0.1064E-02  0.1064E-02  0.1064E-02  0.1064E-02  0.6798E-04  0.6761E-04  0.6801E-04  0.6765E-04  0.4263E-04  0.4254E-04  0.6798E-04  0.6761E-04  0.4931E-04  0.4923E-04
     -0.195  0.2008E-01  0.2008E-01  0.1102E-02  0.1101E-02  0.1102E-02  0.1101E-02  0.1102E-02  0.1101E-02  0.8319E-04  0.8276E-04  0.8320E-04  0.8279E-04  0.4470E-04  0.4457E-04  0.8319E-04  0.8276E-04  0.5098E-04  0.5082E-04
     -0.098  0.1922E-01  0.1926E-01  0.1126E-02  0.1128E-02  0.1126E-02  0.1128E-02  0.1127E-02  0.1129E-02  0.9968E-04  0.9954E-04  0.9960E-04  0.9952E-04  0.4184E-04  0.4196E-04  0.9968E-04  0.9954E-04  0.4845E-04  0.4858E-04
     -0.000  0.1372E-01  0.1374E-01  0.8723E-03  0.8730E-03  0.8723E-03  0.8730E-03  0.8722E-03  0.8729E-03  0.9127E-04  0.9127E-04  0.9129E-04  0.9135E-04  0.3033E-04  0.3030E-04  0.9127E-04  0.9127E-04  0.3512E-04  0.3508E-04
      0.097  0.1690E-01  0.1683E-01  0.1222E-02  0.1216E-02  0.1222E-02  0.1216E-02  0.1218E-02  0.1213E-02  0.1252E-03  0.1247E-03  0.1254E-03  0.1250E-03  0.6141E-04  0.6096E-04  0.1252E-03  0.1247E-03  0.7117E-04  0.7063E-04
      0.194  0.2465E-01  0.2462E-01  0.1909E-02  0.1905E-02  0.1909E-02  0.1905E-02  0.1906E-02  0.1903E-02  0.1838E-03  0.1835E-03  0.1838E-03  0.1836E-03  0.1166E-03  0.1163E-03  0.1838E-03  0.1835E-03  0.1363E-03  0.1358E-03
      0.291  0.2225E-01  0.2229E-01  0.1828E-02  0.1830E-02  0.1828E-02  0.1830E-02  0.1830E-02  0.1832E-02  0.1850E-03  0.1849E-03  0.1849E-03  0.1848E-03  0.1159E-03  0.1160E-03  0.1850E-03  0.1849E-03  0.1390E-03  0.1390E-03
      0.389  0.2230E-01  0.2228E-01  0.1978E-02  0.1975E-02  0.1978E-02  0.1975E-02  0.1977E-02  0.1973E-02  0.2435E-03  0.2428E-03  0.2437E-03  0.2429E-03  0.1187E-03  0.1184E-03  0.2435E-03  0.2428E-03  0.1423E-03  0.1418E-03
      0.486  0.2025E-01  0.2032E-01  0.1890E-02  0.1895E-02  0.1890E-02  0.1895E-02  0.1892E-02  0.1897E-02  0.2399E-03  0.2403E-03  0.2398E-03  0.2402E-03  0.1232E-03  0.1233E-03  0.2399E-03  0.2403E-03  0.1465E-03  0.1467E-03
      0.583  0.1444E-01  0.1443E-01  0.1447E-02  0.1446E-02  0.1447E-02  0.1446E-02  0.1448E-02  0.1446E-02  0.2330E-03  0.2321E-03  0.2334E-03  0.2324E-03  0.9118E-04  0.9113E-04  0.2330E-03  0.2321E-03  0.1012E-03  0.1012E-03
      0.680  0.2023E-01  0.2018E-01  0.2178E-02  0.2171E-02  0.2178E-02  0.2171E-02  0.2175E-02  0.2168E-02  0.4126E-03  0.4111E-03  0.4131E-03  0.4115E-03  0.1254E-03  0.1250E-03  0.4126E-03  0.4111E-03  0.1358E-03  0.1354E-03
      0.777  0.2315E-01  0.2316E-01  0.2731E-02  0.2730E-02  0.2731E-02  0.2730E-02  0.2727E-02  0.2725E-02  0.5033E-03  0.5037E-03  0.5032E-03  0.5036E-03  0.1664E-03  0.1661E-03  0.5033E-03  0.5037E-03  0.1860E-03  0.1857E-03
      0.875  0.1971E-01  0.1974E-01  0.2794E-02  0.2793E-02  0.2794E-02  0.2793E-02  0.2788E-02  0.2787E-02  0.4322E-03  0.4330E-03  0.4318E-03  0.4327E-03  0.1912E-03  0.1910E-03  0.4322E-03  0.4330E-03  0.2244E-03  0.2240E-03
      0.972  0.1763E-01  0.1765E-01  0.2898E-02  0.2898E-02  0.2898E-02  0.2898E-02  0.2898E-02  0.2897E-02  0.4336E-03  0.4330E-03  0.4337E-03  0.4333E-03  0.2087E-03  0.2089E-03  0.4336E-03  0.4330E-03  0.2536E-03  0.2538E-03
      1.069  0.1604E-01  0.1604E-01  0.2920E-02  0.2915E-02  0.2920E-02  0.2915E-02  0.2916E-02  0.2912E-02  0.5079E-03  0.5063E-03  0.5088E-03  0.5073E-03  0.2110E-03  0.2111E-03  0.5079E-03  0.5063E-03  0.2520E-03  0.2522E-03
      1.166  0.2059E-01  0.2056E-01  0.3773E-02  0.3768E-02  0.3773E-02  0.3768E-02  0.3775E-02  0.3770E-02  0.8413E-03  0.8382E-03  0.8426E-03  0.8395E-03  0.2617E-03  0.2620E-03  0.8413E-03  0.8382E-03  0.2958E-03  0.2963E-03
      1.264  0.2071E-01  0.2075E-01  0.3608E-02  0.3613E-02  0.3608E-02  0.3613E-02  0.3612E-02  0.3617E-02  0.1008E-02  0.1008E-02  0.1007E-02  0.1007E-02  0.2328E-03  0.2337E-03  0.1008E-02  0.1008E-02  0.2523E-03  0.2532E-03
      1.361  0.1750E-01  0.1751E-01  0.3499E-02  0.3496E-02  0.3499E-02  0.3496E-02  0.3494E-02  0.3490E-02  0.1048E-02  0.1047E-02  0.1049E-02  0.1048E-02  0.2211E-03  0.2211E-03  0.1048E-02  0.1047E-02  0.2483E-03  0.2483E-03
      1.458  0.1618E-01  0.1622E-01  0.3599E-02  0.3606E-02  0.3599E-02  0.3606E-02  0.3603E-02  0.3610E-02  0.1136E-02  0.1137E-02  0.1135E-02  0.1136E-02  0.2334E-03  0.2340E-03  0.1136E-02  0.1137E-02  0.2609E-03  0.2616E-03
      1.555  0.9820E-02  0.9858E-02  0.2351E-02  0.2358E-02  0.2351E-02  0.2358E-02  0.2357E-02  0.2364E-02  0.8216E-03  0.8223E-03  0.8202E-03  0.8208E-03  0.1519E-03  0.1525E-03  0.8216E-03  0.8223E-03  0.1725E-03  0.1732E-03
      1.653  0.1157E-01  0.1153E-01  0.2689E-02  0.2681E-02  0.2689E-02  0.2681E-02  0.2686E-02  0.2678E-02  0.1144E-02  0.1139E-02  0.1146E-02  0.1141E-02  0.2012E-03  0.2004E-03  0.1144E-02  0.1139E-02  0.2314E-03  0.2306E-03
      1.750  0.1919E-01  0.1914E-01  0.3610E-02  0.3604E-02  0.3610E-02  0.3604E-02  0.3605E-02  0.3600E-02  0.1734E-02  0.1731E-02  0.1738E-02  0.1734E-02  0.4731E-03  0.4709E-03  0.1734E-02  0.1731E-02  0.5483E-03  0.5457E-03
      1.847  0.2512E-01  0.2510E-01  0.4137E-02  0.4136E-02  0.4137E-02  0.4136E-02  0.4130E-02  0.4128E-02  0.1985E-02  0.1985E-02  0.1986E-02  0.1987E-02  0.9493E-03  0.9482E-03  0.1985E-02  0.1985E-02  0.1144E-02  0.1142E-02
      1.944  0.2489E-01  0.2491E-01  0.3986E-02  0.3990E-02  0.3986E-02  0.3990E-02  0.3991E-02  0.3996E-02  0.1954E-02  0.1956E-02  0.1951E-02  0.1953E-02  0.1085E-02  0.1087E-02  0.1954E-02  0.1956E-02  0.1328E-02  0.1331E-02