   4   4   1   0
  0.1261954E+02  0.3695738E-09  0.3695738E-09  0.3695738E-09  0.5000000E-15
  1.000000000000000E-004
  CAR 
 unknown system                          
     19.38953132    -40.32750424  301     10.36647949      1.00000000
    -40.328  0.0000E+00  0.0000E+00  0.0000E+00  0.0000E+00
    -40.128  0.0000E+00  0.0000E+00  0.0000E+00  0.0000E+00
    -39.929  0.0000E+00  0.0000E+00  0.0000E+00  0.0000E+00
    -39.730  0.0000E+00  0.0000E+00  0.0000E+00  0.0000E+00
    -39.531  0.0000E+00  0.0000E+00  0.0000E+00  0.0000E+00
    -39.332  0.0000E+00  0.0000E+00  0.0000E+00  0.0000E+00
    -39.133  0.0000E+00  0.0000E+00  0.0000E+00  0.0000E+00
    -38.934  0.0000E+00  0.0000E+00  0.0000E+00  0.0000E+00
    -38.735  0.0000E+00  0.0000E+00  0.0000E+00  0.0000E+00
    -38.536  0.0000E+00  0.0000E+00  0.0000E+00  0.0000E+00
    -38.337  0.0000E+00  0.0000E+00  0.0000E+00  0.0000E+00
    -38.138  0.1162E-03  0.1171E-03  0.2313E-04  0.2332E-04
    -37.939  0.6102E-02  0.6151E-02  0.1238E-02  0.1248E-02
    -37.740  0.3065E+00  0.3088E+00  0.6224E-01  0.6272E-01
    -37.541  0.3605E+01  0.3609E+01  0.7798E+00  0.7812E+00
    -37.342  0.1080E+01  0.1073E+01  0.9947E+00  0.9948E+00
    -37.143  0.0000E+00  0.0000E+00  0.1000E+01  0.1000E+01
    -36.944  0.0000E+00  0.0000E+00  0.1000E+01  0.1000E+01
    -36.744  0.0000E+00  0.0000E+00  0.1000E+01  0.1000E+01
    -36.545  0.0000E+00  0.0000E+00  0.1000E+01  0.1000E+01
    -36.346  0.0000E+00  0.0000E+00  0.1000E+01  0.1000E+01
    -36.147  0.0000E+00  0.0000E+00  0.1000E+01  0.1000E+01
    -35.948  0.0000E+00  0.0000E+00  0.1000E+01  0.1000E+01
    -35.749  0.0000E+00  0.0000E+00  0.1000E+01  0.1000E+01
    -35.550  0.0000E+00  0.0000E+00  0.1000E+01  0.1000E+01
    -35.351  0.0000E+00  0.0000E+00  0.1000E+01  0.1000E+01
    -35.152  0.0000E+00  0.0000E+00  0.1000E+01  0.1000E+01
    -34.953  0.0000E+00  0.0000E+00  0.1000E+01  0.1000E+01
    -34.754  0.0000E+00  0.0000E+00  0.1000E+01  0.1000E+01
    -34.555  0.0000E+00  0.0000E+00  0.1000E+01  0.1000E+01
    -34.356  0.0000E+00  0.0000E+00  0.1000E+01  0.1000E+01
    -34.157  0.0000E+00  0.0000E+00  0.1000E+01  0.1000E+01
    -33.958  0.0000E+00  0.0000E+00  0.1000E+01  0.1000E+01
    -33.759  0.0000E+00  0.0000E+00  0.1000E+01  0.1000E+01
    -33.560  0.0000E+00  0.0000E+00  0.1000E+01  0.1000E+01
    -33.361  0.0000E+00  0.0000E+00  0.1000E+01  0.1000E+01
    -33.161  0.0000E+00  0.0000E+00  0.1000E+01  0.1000E+01
    -32.962  0.0000E+00  0.0000E+00  0.1000E+01  0.1000E+01
    -32.763  0.0000E+00  0.0000E+00  0.1000E+01  0.1000E+01
    -32.564  0.0000E+00  0.0000E+00  0.1000E+01  0.1000E+01
    -32.365  0.0000E+00  0.0000E+00  0.1000E+01  0.1000E+01
    -32.166  0.0000E+00  0.0000E+00  0.1000E+01  0.1000E+01
    -31.967  0.0000E+00  0.0000E+00  0.1000E+01  0.1000E+01
    -31.768  0.0000E+00  0.0000E+00  0.1000E+01  0.1000E+01
    -31.569  0.0000E+00  0.0000E+00  0.1000E+01  0.1000E+01
    -31.370  0.0000E+00  0.0000E+00  0.1000E+01  0.1000E+01
    -31.171  0.0000E+00  0.0000E+00  0.1000E+01  0.1000E+01
    -30.972  0.0000E+00  0.0000E+00  0.1000E+01  0.1000E+01
    -30.773  0.0000E+00  0.0000E+00  0.1000E+01  0.1000E+01
    -30.574  0.0000E+00  0.0000E+00  0.1000E+01  0.1000E+01
    -30.375  0.0000E+00  0.0000E+00  0.1000E+01  0.1000E+01
    -30.176  0.0000E+00  0.0000E+00  0.1000E+01  0.1000E+01
    -29.977  0.0000E+00  0.0000E+00  0.1000E+01  0.1000E+01
    -29.777  0.0000E+00  0.0000E+00  0.1000E+01  0.1000E+01
    -29.578  0.0000E+00  0.0000E+00  0.1000E+01  0.1000E+01
    -29.379  0.0000E+00  0.0000E+00  0.1000E+01  0.1000E+01
    -29.180  0.0000E+00  0.0000E+00  0.1000E+01  0.1000E+01
    -28.981  0.0000E+00  0.0000E+00  0.1000E+01  0.1000E+01
    -28.782  0.0000E+00  0.0000E+00  0.1000E+01  0.1000E+01
    -28.583  0.0000E+00  0.0000E+00  0.1000E+01  0.1000E+01
    -28.384  0.0000E+00  0.0000E+00  0.1000E+01  0.1000E+01
    -28.185  0.0000E+00  0.0000E+00  0.1000E+01  0.1000E+01
    -27.986  0.0000E+00  0.0000E+00  0.1000E+01  0.1000E+01
    -27.787  0.0000E+00  0.0000E+00  0.1000E+01  0.1000E+01
    -27.588  0.0000E+00  0.0000E+00  0.1000E+01  0.1000E+01
    -27.389  0.0000E+00  0.0000E+00  0.1000E+01  0.1000E+01
    -27.190  0.0000E+00  0.0000E+00  0.1000E+01  0.1000E+01
    -26.991  0.0000E+00  0.0000E+00  0.1000E+01  0.1000E+01
    -26.792  0.0000E+00  0.0000E+00  0.1000E+01  0.1000E+01
    -26.593  0.0000E+00  0.0000E+00  0.1000E+01  0.1000E+01
    -26.394  0.0000E+00  0.0000E+00  0.1000E+01  0.1000E+01
    -26.194  0.0000E+00  0.0000E+00  0.1000E+01  0.1000E+01
    -25.995  0.0000E+00  0.0000E+00  0.1000E+01  0.1000E+01
    -25.796  0.0000E+00  0.0000E+00  0.1000E+01  0.1000E+01
    -25.597  0.0000E+00  0.0000E+00  0.1000E+01  0.1000E+01
    -25.398  0.0000E+00  0.0000E+00  0.1000E+01  0.1000E+01
    -25.199  0.0000E+00  0.0000E+00  0.1000E+01  0.1000E+01
    -25.000  0.0000E+00  0.0000E+00  0.1000E+01  0.1000E+01
    -24.801  0.0000E+00  0.0000E+00  0.1000E+01  0.1000E+01
    -24.602  0.0000E+00  0.0000E+00  0.1000E+01  0.1000E+01
    -24.403  0.0000E+00  0.0000E+00  0.1000E+01  0.1000E+01
    -24.204  0.0000E+00  0.0000E+00  0.1000E+01  0.1000E+01
    -24.005  0.0000E+00  0.0000E+00  0.1000E+01  0.1000E+01
    -23.806  0.0000E+00  0.0000E+00  0.1000E+01  0.1000E+01
    -23.607  0.0000E+00  0.0000E+00  0.1000E+01  0.1000E+01
    -23.408  0.0000E+00  0.0000E+00  0.1000E+01  0.1000E+01
    -23.209  0.0000E+00  0.0000E+00  0.1000E+01  0.1000E+01
    -23.010  0.0000E+00  0.0000E+00  0.1000E+01  0.1000E+01
    -22.811  0.0000E+00  0.0000E+00  0.1000E+01  0.1000E+01
    -22.611  0.0000E+00  0.0000E+00  0.1000E+01  0.1000E+01
    -22.412  0.0000E+00  0.0000E+00  0.1000E+01  0.1000E+01
    -22.213  0.0000E+00  0.0000E+00  0.1000E+01  0.1000E+01
    -22.014  0.0000E+00  0.0000E+00  0.1000E+01  0.1000E+01
    -21.815  0.0000E+00  0.0000E+00  0.1000E+01  0.1000E+01
    -21.616  0.0000E+00  0.0000E+00  0.1000E+01  0.1000E+01
    -21.417  0.0000E+00  0.0000E+00  0.1000E+01  0.1000E+01
    -21.218  0.0000E+00  0.0000E+00  0.1000E+01  0.1000E+01
    -21.019  0.0000E+00  0.0000E+00  0.1000E+01  0.1000E+01
    -20.820  0.0000E+00  0.0000E+00  0.1000E+01  0.1000E+01
    -20.621  0.0000E+00  0.0000E+00  0.1000E+01  0.1000E+01
    -20.422  0.0000E+00  0.0000E+00  0.1000E+01  0.1000E+01
    -20.223  0.0000E+00  0.0000E+00  0.1000E+01  0.1000E+01
    -20.024  0.0000E+00  0.0000E+00  0.1000E+01  0.1000E+01
    -19.825  0.0000E+00  0.0000E+00  0.1000E+01  0.1000E+01
    -19.626  0.0000E+00  0.0000E+00  0.1000E+01  0.1000E+01
    -19.427  0.0000E+00  0.0000E+00  0.1000E+01  0.1000E+01
    -19.227  0.0000E+00  0.0000E+00  0.1000E+01  0.1000E+01
    -19.028  0.0000E+00  0.0000E+00  0.1000E+01  0.1000E+01
    -18.829  0.0000E+00  0.0000E+00  0.1000E+01  0.1000E+01
    -18.630  0.0000E+00  0.0000E+00  0.1000E+01  0.1000E+01
    -18.431  0.0000E+00  0.0000E+00  0.1000E+01  0.1000E+01
    -18.232  0.0000E+00  0.0000E+00  0.1000E+01  0.1000E+01
    -18.033  0.0000E+00  0.0000E+00  0.1000E+01  0.1000E+01
    -17.834  0.0000E+00  0.0000E+00  0.1000E+01  0.1000E+01
    -17.635  0.0000E+00  0.0000E+00  0.1000E+01  0.1000E+01
    -17.436  0.0000E+00  0.0000E+00  0.1000E+01  0.1000E+01
    -17.237  0.0000E+00  0.0000E+00  0.1000E+01  0.1000E+01
    -17.038  0.5744E-03  0.5798E-03  0.1000E+01  0.1000E+01
    -16.839  0.3010E-01  0.3039E-01  0.1006E+01  0.1006E+01
    -16.640  0.1379E+01  0.1390E+01  0.1281E+01  0.1283E+01
    -16.441  0.1029E+02  0.1030E+02  0.3329E+01  0.3333E+01
    -16.242  0.3280E+01  0.3259E+01  0.3982E+01  0.3982E+01
    -16.043  0.0000E+00  0.0000E+00  0.4000E+01  0.4000E+01
    -15.844  0.0000E+00  0.0000E+00  0.4000E+01  0.4000E+01
    -15.644  0.0000E+00  0.0000E+00  0.4000E+01  0.4000E+01
    -15.445  0.0000E+00  0.0000E+00  0.4000E+01  0.4000E+01
    -15.246  0.0000E+00  0.0000E+00  0.4000E+01  0.4000E+01
    -15.047  0.0000E+00  0.0000E+00  0.4000E+01  0.4000E+01
    -14.848  0.0000E+00  0.0000E+00  0.4000E+01  0.4000E+01
    -14.649  0.0000E+00  0.0000E+00  0.4000E+01  0.4000E+01
    -14.450  0.0000E+00  0.0000E+00  0.4000E+01  0.4000E+01
    -14.251  0.0000E+00  0.0000E+00  0.4000E+01  0.4000E+01
    -14.052  0.0000E+00  0.0000E+00  0.4000E+01  0.4000E+01
    -13.853  0.0000E+00  0.0000E+00  0.4000E+01  0.4000E+01
    -13.654  0.0000E+00  0.0000E+00  0.4000E+01  0.4000E+01
    -13.455  0.0000E+00  0.0000E+00  0.4000E+01  0.4000E+01
    -13.256  0.0000E+00  0.0000E+00  0.4000E+01  0.4000E+01
    -13.057  0.0000E+00  0.0000E+00  0.4000E+01  0.4000E+01
    -12.858  0.0000E+00  0.0000E+00  0.4000E+01  0.4000E+01
    -12.659  0.0000E+00  0.0000E+00  0.4000E+01  0.4000E+01
    -12.460  0.0000E+00  0.0000E+00  0.4000E+01  0.4000E+01
    -12.260  0.0000E+00  0.0000E+00  0.4000E+01  0.4000E+01
    -12.061  0.0000E+00  0.0000E+00  0.4000E+01  0.4000E+01
    -11.862  0.0000E+00  0.0000E+00  0.4000E+01  0.4000E+01
    -11.663  0.0000E+00  0.0000E+00  0.4000E+01  0.4000E+01
    -11.464  0.0000E+00  0.0000E+00  0.4000E+01  0.4000E+01
    -11.265  0.0000E+00  0.0000E+00  0.4000E+01  0.4000E+01
    -11.066  0.0000E+00  0.0000E+00  0.4000E+01  0.4000E+01
    -10.867  0.0000E+00  0.0000E+00  0.4000E+01  0.4000E+01
    -10.668  0.0000E+00  0.0000E+00  0.4000E+01  0.4000E+01
    -10.469  0.0000E+00  0.0000E+00  0.4000E+01  0.4000E+01
    -10.270  0.0000E+00  0.0000E+00  0.4000E+01  0.4000E+01
    -10.071  0.0000E+00  0.0000E+00  0.4000E+01  0.4000E+01
     -9.872  0.0000E+00  0.0000E+00  0.4000E+01  0.4000E+01
     -9.673  0.0000E+00  0.0000E+00  0.4000E+01  0.4000E+01
     -9.474  0.0000E+00  0.0000E+00  0.4000E+01  0.4000E+01
     -9.275  0.0000E+00  0.0000E+00  0.4000E+01  0.4000E+01
     -9.076  0.0000E+00  0.0000E+00  0.4000E+01  0.4000E+01
     -8.877  0.0000E+00  0.0000E+00  0.4000E+01  0.4000E+01
     -8.677  0.0000E+00  0.0000E+00  0.4000E+01  0.4000E+01
     -8.478  0.0000E+00  0.0000E+00  0.4000E+01  0.4000E+01
     -8.279  0.0000E+00  0.0000E+00  0.4000E+01  0.4000E+01
     -8.080  0.0000E+00  0.0000E+00  0.4000E+01  0.4000E+01
     -7.881  0.0000E+00  0.0000E+00  0.4000E+01  0.4000E+01
     -7.682  0.0000E+00  0.0000E+00  0.4000E+01  0.4000E+01
     -7.483  0.0000E+00  0.0000E+00  0.4000E+01  0.4000E+01
     -7.284  0.0000E+00  0.0000E+00  0.4000E+01  0.4000E+01
     -7.085  0.0000E+00  0.0000E+00  0.4000E+01  0.4000E+01
     -6.886  0.0000E+00  0.0000E+00  0.4000E+01  0.4000E+01
     -6.687  0.0000E+00  0.0000E+00  0.4000E+01  0.4000E+01
     -6.488  0.0000E+00  0.0000E+00  0.4000E+01  0.4000E+01
     -6.289  0.0000E+00  0.0000E+00  0.4000E+01  0.4000E+01
     -6.090  0.0000E+00  0.0000E+00  0.4000E+01  0.4000E+01
     -5.891  0.0000E+00  0.0000E+00  0.4000E+01  0.4000E+01
     -5.692  0.0000E+00  0.0000E+00  0.4000E+01  0.4000E+01
     -5.493  0.0000E+00  0.0000E+00  0.4000E+01  0.4000E+01
     -5.294  0.0000E+00  0.0000E+00  0.4000E+01  0.4000E+01
     -5.094  0.0000E+00  0.0000E+00  0.4000E+01  0.4000E+01
     -4.895  0.0000E+00  0.0000E+00  0.4000E+01  0.4000E+01
     -4.696  0.0000E+00  0.0000E+00  0.4000E+01  0.4000E+01
     -4.497  0.0000E+00  0.0000E+00  0.4000E+01  0.4000E+01
     -4.298  0.0000E+00  0.0000E+00  0.4000E+01  0.4000E+01
     -4.099  0.0000E+00  0.0000E+00  0.4000E+01  0.4000E+01
     -3.900  0.0000E+00  0.0000E+00  0.4000E+01  0.4000E+01
     -3.701  0.0000E+00  0.0000E+00  0.4000E+01  0.4000E+01
     -3.502  0.0000E+00  0.0000E+00  0.4000E+01  0.4000E+01
     -3.303  0.0000E+00  0.0000E+00  0.4000E+01  0.4000E+01
     -3.104  0.0000E+00  0.0000E+00  0.4000E+01  0.4000E+01
     -2.905  0.0000E+00  0.0000E+00  0.4000E+01  0.4000E+01
     -2.706  0.0000E+00  0.0000E+00  0.4000E+01  0.4000E+01
     -2.507  0.0000E+00  0.0000E+00  0.4000E+01  0.4000E+01
     -2.308  0.0000E+00  0.0000E+00  0.4000E+01  0.4000E+01
     -2.109  0.0000E+00  0.0000E+00  0.4000E+01  0.4000E+01
     -1.910  0.0000E+00  0.0000E+00  0.4000E+01  0.4000E+01
     -1.710  0.0000E+00  0.0000E+00  0.4000E+01  0.4000E+01
     -1.511  0.4245E-04  0.4252E-04  0.4000E+01  0.4000E+01
     -1.312  0.2205E-02  0.2208E-02  0.4000E+01  0.4000E+01
     -1.113  0.7139E-01  0.7146E-01  0.4015E+01  0.4015E+01
     -0.914  0.1073E+00  0.1073E+00  0.4036E+01  0.4036E+01
     -0.715  0.8142E-02  0.8139E-02  0.4038E+01  0.4038E+01
     -0.516  0.1268E+00  0.1270E+00  0.4063E+01  0.4063E+01
     -0.317  0.3959E+00  0.3958E+00  0.4142E+01  0.4142E+01
     -0.118  0.3495E-01  0.3490E-01  0.4149E+01  0.4149E+01
      0.081  0.1321E+00  0.1323E+00  0.4175E+01  0.4175E+01
      0.280  0.3922E+00  0.3921E+00  0.4253E+01  0.4253E+01
      0.479  0.3957E-01  0.3953E-01  0.4261E+01  0.4261E+01
      0.678  0.2973E+00  0.2976E+00  0.4320E+01  0.4320E+01
      0.877  0.4204E+00  0.4201E+00  0.4404E+01  0.4404E+01
      1.076  0.1306E+00  0.1307E+00  0.4430E+01  0.4430E+01
      1.275  0.8452E+00  0.8453E+00  0.4598E+01  0.4598E+01
      1.474  0.1647E+00  0.1644E+00  0.4631E+01  0.4631E+01
      1.673  0.2785E+00  0.2788E+00  0.4687E+01  0.4687E+01
      1.873  0.3208E+00  0.3206E+00  0.4751E+01  0.4751E+01
      2.072  0.4237E+00  0.4238E+00  0.4837E+01  0.4837E+01
      2.271  0.7915E-01  0.7907E-01  0.4853E+01  0.4853E+01
      2.470  0.2383E+00  0.2385E+00  0.4901E+01  0.4901E+01
      2.669  0.4797E+00  0.4798E+00  0.4996E+01  0.4996E+01
      2.868  0.3697E+00  0.3695E+00  0.5070E+01  0.5070E+01
      3.067  0.3837E-01  0.3837E-01  0.5078E+01  0.5078E+01
      3.266  0.5184E+00  0.5190E+00  0.5181E+01  0.5181E+01
      3.465  0.7127E+00  0.7122E+00  0.5323E+01  0.5323E+01
      3.664  0.8238E-01  0.8237E-01  0.5339E+01  0.5339E+01
      3.863  0.3939E+00  0.3941E+00  0.5418E+01  0.5418E+01
      4.062  0.2557E+00  0.2557E+00  0.5469E+01  0.5469E+01
      4.261  0.4094E+00  0.4093E+00  0.5551E+01  0.5551E+01
      4.460  0.3282E+00  0.3287E+00  0.5616E+01  0.5616E+01
      4.659  0.9803E+00  0.9807E+00  0.5811E+01  0.5812E+01
      4.858  0.9151E+00  0.9143E+00  0.5994E+01  0.5994E+01
      5.057  0.4657E+00  0.4659E+00  0.6087E+01  0.6087E+01
      5.256  0.8470E+00  0.8471E+00  0.6256E+01  0.6256E+01
      5.456  0.2805E+00  0.2803E+00  0.6312E+01  0.6312E+01
      5.655  0.2803E+00  0.2801E+00  0.6369E+01  0.6369E+01
      5.854  0.5446E+00  0.5452E+00  0.6478E+01  0.6478E+01
      6.053  0.1350E+01  0.1350E+01  0.6746E+01  0.6747E+01
      6.252  0.5528E+00  0.5527E+00  0.6857E+01  0.6857E+01
      6.451  0.1687E+00  0.1684E+00  0.6891E+01  0.6891E+01
      6.650  0.5129E+00  0.5136E+00  0.6994E+01  0.6994E+01
      6.849  0.9348E+00  0.9342E+00  0.7180E+01  0.7180E+01
      7.048  0.4693E+00  0.4695E+00  0.7274E+01  0.7274E+01
      7.247  0.4007E+00  0.4007E+00  0.7354E+01  0.7354E+01
      7.446  0.8628E+00  0.8636E+00  0.7526E+01  0.7526E+01
      7.645  0.2170E+01  0.2170E+01  0.7958E+01  0.7958E+01
      7.844  0.1462E+01  0.1461E+01  0.8250E+01  0.8250E+01
      8.043  0.4595E+00  0.4594E+00  0.8342E+01  0.8342E+01
      8.242  0.1115E+01  0.1116E+01  0.8564E+01  0.8564E+01
      8.441  0.1287E+01  0.1286E+01  0.8820E+01  0.8820E+01
      8.640  0.8662E+00  0.8661E+00  0.8996E+01  0.8996E+01
      8.840  0.9751E+00  0.9752E+00  0.9191E+01  0.9191E+01
      9.039  0.9564E+00  0.9562E+00  0.9381E+01  0.9381E+01
      9.238  0.4518E+00  0.4516E+00  0.9472E+01  0.9472E+01
      9.437  0.3252E+00  0.3253E+00  0.9537E+01  0.9537E+01
      9.636  0.3143E+00  0.3142E+00  0.9600E+01  0.9600E+01
      9.835  0.7590E+00  0.7593E+00  0.9751E+01  0.9751E+01
     10.034  0.5422E+00  0.5421E+00  0.9859E+01  0.9859E+01
     10.233  0.3550E+00  0.3549E+00  0.9932E+01  0.9932E+01
     10.432  0.6551E+00  0.6554E+00  0.1006E+02  0.1006E+02
     10.631  0.4515E+00  0.4511E+00  0.1015E+02  0.1015E+02
     10.830  0.5097E+00  0.5099E+00  0.1025E+02  0.1025E+02
     11.029  0.9293E+00  0.9293E+00  0.1044E+02  0.1044E+02
     11.228  0.4786E+00  0.4786E+00  0.1053E+02  0.1053E+02
     11.427  0.3651E+00  0.3651E+00  0.1061E+02  0.1061E+02
     11.626  0.1008E+01  0.1009E+01  0.1081E+02  0.1081E+02
     11.825  0.1839E+01  0.1839E+01  0.1118E+02  0.1118E+02
     12.024  0.6364E+00  0.6358E+00  0.1130E+02  0.1130E+02
     12.223  0.6936E+00  0.6940E+00  0.1144E+02  0.1144E+02
     12.423  0.1005E+01  0.1005E+01  0.1164E+02  0.1164E+02
     12.622  0.7511E+00  0.7512E+00  0.1179E+02  0.1179E+02
     12.821  0.6556E+00  0.6554E+00  0.1192E+02  0.1192E+02
     13.020  0.1285E+01  0.1287E+01  0.1218E+02  0.1218E+02
     13.219  0.1844E+01  0.1843E+01  0.1255E+02  0.1255E+02
     13.418  0.1475E+01  0.1475E+01  0.1285E+02  0.1285E+02
     13.617  0.1469E+01  0.1469E+01  0.1314E+02  0.1314E+02
     13.816  0.1125E+01  0.1125E+01  0.1337E+02  0.1337E+02
     14.015  0.1740E+01  0.1738E+01  0.1371E+02  0.1371E+02
     14.214  0.7957E+00  0.7963E+00  0.1387E+02  0.1387E+02
     14.413  0.7638E+00  0.7634E+00  0.1403E+02  0.1403E+02
     14.612  0.1174E+01  0.1175E+01  0.1426E+02  0.1426E+02
     14.811  0.3630E+00  0.3617E+00  0.1433E+02  0.1433E+02
     15.010  0.4111E+00  0.4133E+00  0.1442E+02  0.1442E+02
     15.209  0.1603E+01  0.1600E+01  0.1474E+02  0.1474E+02
     15.408  0.1762E+01  0.1758E+01  0.1509E+02  0.1509E+02
     15.607  0.1266E+01  0.1254E+01  0.1534E+02  0.1534E+02
     15.807  0.5639E+00  0.5898E+00  0.1546E+02  0.1546E+02
     16.006  0.7849E+00  0.9404E+00  0.1561E+02  0.1564E+02
     16.205  0.1085E+01  0.9712E+00  0.1583E+02  0.1584E+02
     16.404  0.4413E+00  0.4064E+00  0.1592E+02  0.1592E+02
     16.603  0.1163E+00  0.1037E+00  0.1594E+02  0.1594E+02
     16.802  0.2697E+00  0.2683E+00  0.1600E+02  0.1600E+02
     17.001  0.2431E-01  0.2339E-01  0.1600E+02  0.1600E+02
     17.200  0.0000E+00  0.0000E+00  0.1600E+02  0.1600E+02
     17.399  0.0000E+00  0.0000E+00  0.1600E+02  0.1600E+02
     17.598  0.0000E+00  0.0000E+00  0.1600E+02  0.1600E+02
     17.797  0.0000E+00  0.0000E+00  0.1600E+02  0.1600E+02
     17.996  0.0000E+00  0.0000E+00  0.1600E+02  0.1600E+02
     18.195  0.0000E+00  0.0000E+00  0.1600E+02  0.1600E+02
     18.394  0.0000E+00  0.0000E+00  0.1600E+02  0.1600E+02
     18.593  0.0000E+00  0.0000E+00  0.1600E+02  0.1600E+02
     18.792  0.0000E+00  0.0000E+00  0.1600E+02  0.1600E+02
     18.991  0.0000E+00  0.0000E+00  0.1600E+02  0.1600E+02
     19.190  0.0000E+00  0.0000E+00  0.1600E+02  0.1600E+02
     19.390  0.0000E+00  0.0000E+00  0.1600E+02  0.1600E+02
     19.38953132    -40.32750424  301     10.36647949      1.00000000
    -40.328  0.0000E+00  0.0000E+00  0.0000E+00  0.0000E+00  0.0000E+00  0.0000E+00  0.0000E+00  0.0000E+00  0.0000E+00  0.0000E+00  0.0000E+00  0.0000E+00  0.0000E+00  0.0000E+00  0.0000E+00  0.0000E+00  0.0000E+00  0.0000E+00
    -40.128  0.0000E+00  0.0000E+00  0.0000E+00  0.0000E+00  0.0000E+00  0.0000E+00  0.0000E+00  0.0000E+00  0.0000E+00  0.0000E+00  0.0000E+00  0.0000E+00  0.0000E+00  0.0000E+00  0.0000E+00  0.0000E+00  0.0000E+00  0.0000E+00
    -39.929  0.0000E+00  0.0000E+00  0.0000E+00  0.0000E+00  0.0000E+00  0.0000E+00  0.0000E+00  0.0000E+00  0.0000E+00  0.0000E+00  0.0000E+00  0.0000E+00  0.0000E+00  0.0000E+00  0.0000E+00  0.0000E+00  0.0000E+00  0.0000E+00
    -39.730  0.0000E+00  0.0000E+00  0.0000E+00  0.0000E+00  0.0000E+00  0.0000E+00  0.0000E+00  0.0000E+00  0.0000E+00  0.0000E+00  0.0000E+00  0.0000E+00  0.0000E+00  0.0000E+00  0.0000E+00  0.0000E+00  0.0000E+00  0.0000E+00
    -39.531  0.0000E+00  0.0000E+00  0.0000E+00  0.0000E+00  0.0000E+00  0.0000E+00  0.0000E+00  0.0000E+00  0.0000E+00  0.0000E+00  0.0000E+00  0.0000E+00  0.0000E+00  0.0000E+00  0.0000E+00  0.0000E+00  0.0000E+00  0.0000E+00
    -39.332  0.0000E+00  0.0000E+00  0.0000E+00  0.0000E+00  0.0000E+00  0.0000E+00  0.0000E+00  0.0000E+00  0.0000E+00  0.0000E+00  0.0000E+00  0.0000E+00  0.0000E+00  0.0000E+00  0.0000E+00  0.0000E+00  0.0000E+00  0.0000E+00
    -39.133  0.0000E+00  0.0000E+00  0.0000E+00  0.0000E+00  0.0000E+00  0.0000E+00  0.0000E+00  0.0000E+00  0.0000E+00  0.0000E+00  0.0000E+00  0.0000E+00  0.0000E+00  0.0000E+00  0.0000E+00  0.0000E+00  0.0000E+00  0.0000E+00
    -38.934  0.0000E+00  0.0000E+00  0.0000E+00  0.0000E+00  0.0000E+00  0.0000E+00  0.0000E+00  0.0000E+00  0.0000E+00  0.0000E+00  0.0000E+00  0.0000E+00  0.0000E+00  0.0000E+00  0.0000E+00  0.0000E+00  0.0000E+00  0.0000E+00
    -38.735  0.0000E+00  0.0000E+00  0.0000E+00  0.0000E+00  0.0000E+00  0.0000E+00  0.0000E+00  0.0000E+00  0.0000E+00  0.0000E+00  0.0000E+00  0.0000E+00  0.0000E+00  0.0000E+00  0.0000E+00  0.0000E+00  0.0000E+00  0.0000E+00
    -38.536  0.0000E+00  0.0000E+00  0.0000E+00  0.0000E+00  0.0000E+00  0.0000E+00  0.0000E+00  0.0000E+00  0.0000E+00  0.0000E+00  0.0000E+00  0.0000E+00  0.0000E+00  0.0000E+00  0.0000E+00  0.0000E+00  0.0000E+00  0.0000E+00
    -38.337  0.0000E+00  0.0000E+00  0.0000E+00  0.0000E+00  0.0000E+00  0.0000E+00  0.0000E+00  0.0000E+00  0.0000E+00  0.0000E+00  0.0000E+00  0.0000E+00  0.0000E+00  0.0000E+00  0.0000E+00  0.0000E+00  0.0000E+00  0.0000E+00
    -38.138  0.1157E-03  0.1166E-03  0.9139E-11  0.9266E-11  0.9139E-11  0.9266E-11  0.9139E-11  0.9266E-11  0.2194E-13  0.2180E-13  0.2194E-13  0.2180E-13  0.6416E-11  0.6331E-11  0.2194E-13  0.2180E-13  0.6416E-11  0.6331E-11
    -37.939  0.6074E-02  0.6124E-02  0.4799E-09  0.4866E-09  0.4799E-09  0.4866E-09  0.4799E-09  0.4866E-09  0.1152E-11  0.1145E-11  0.1152E-11  0.1145E-11  0.3369E-09  0.3324E-09  0.1152E-11  0.1145E-11  0.3369E-09  0.3324E-09
    -37.740  0.3051E+00  0.3074E+00  0.2410E-07  0.2442E-07  0.2410E-07  0.2442E-07  0.2410E-07  0.2442E-07  0.5800E-10  0.5754E-10  0.5800E-10  0.5754E-10  0.1693E-07  0.1669E-07  0.5800E-10  0.5754E-10  0.1693E-07  0.1669E-07
    -37.541  0.3588E+01  0.3593E+01  0.2824E-06  0.2844E-06  0.2824E-06  0.2844E-06  0.2824E-06  0.2844E-06  0.7009E-09  0.6837E-09  0.7009E-09  0.6837E-09  0.1991E-06  0.1951E-06  0.7009E-09  0.6837E-09  0.1991E-06  0.1951E-06
    -37.342  0.1075E+01  0.1068E+01  0.8418E-07  0.8414E-07  0.8418E-07  0.8414E-07  0.8418E-07  0.8414E-07  0.2166E-09  0.2076E-09  0.2166E-09  0.2076E-09  0.5951E-07  0.5788E-07  0.2166E-09  0.2076E-09  0.5951E-07  0.5788E-07
    -37.143  0.0000E+00  0.0000E+00  0.0000E+00  0.0000E+00  0.0000E+00  0.0000E+00  0.0000E+00  0.0000E+00  0.0000E+00  0.0000E+00  0.0000E+00  0.0000E+00  0.0000E+00  0.0000E+00  0.0000E+00  0.0000E+00  0.0000E+00  0.0000E+00
    -36.944  0.0000E+00  0.0000E+00  0.0000E+00  0.0000E+00  0.0000E+00  0.0000E+00  0.0000E+00  0.0000E+00  0.0000E+00  0.0000E+00  0.0000E+00  0.0000E+00  0.0000E+00  0.0000E+00  0.0000E+00  0.0000E+00  0.0000E+00  0.0000E+00
    -36.744  0.0000E+00  0.0000E+00  0.0000E+00  0.0000E+00  0.0000E+00  0.0000E+00  0.0000E+00  0.0000E+00  0.0000E+00  0.0000E+00  0.0000E+00  0.0000E+00  0.0000E+00  0.0000E+00  0.0000E+00  0.0000E+00  0.0000E+00  0.0000E+00
    -36.545  0.0000E+00  0.0000E+00  0.0000E+00  0.0000E+00  0.0000E+00  0.0000E+00  0.0000E+00  0.0000E+00  0.0000E+00  0.0000E+00  0.0000E+00  0.0000E+00  0.0000E+00  0.0000E+00  0.0000E+00  0.0000E+00  0.0000E+00  0.0000E+00
    -36.346  0.0000E+00  0.0000E+00  0.0000E+00  0.0000E+00  0.0000E+00  0.0000E+00  0.0000E+00  0.0000E+00  0.0000E+00  0.0000E+00  0.0000E+00  0.0000E+00  0.0000E+00  0.0000E+00  0.0000E+00  0.0000E+00  0.0000E+00  0.0000E+00
    -36.147  0.0000E+00  0.0000E+00  0.0000E+00  0.0000E+00  0.0000E+00  0.0000E+00  0.0000E+00  0.0000E+00  0.0000E+00  0.0000E+00  0.0000E+00  0.0000E+00  0.0000E+00  0.0000E+00  0.0000E+00  0.0000E+00  0.0000E+00  0.0000E+00
    -35.948  0.0000E+00  0.0000E+00  0.0000E+00  0.0000E+00  0.0000E+00  0.0000E+00  0.0000E+00  0.0000E+00  0.0000E+00  0.0000E+00  0.0000E+00  0.0000E+00  0.0000E+00  0.0000E+00  0.0000E+00  0.0000E+00  0.0000E+00  0.0000E+00
    -35.749  0.0000E+00  0.0000E+00  0.0000E+00  0.0000E+00  0.0000E+00  0.0000E+00  0.0000E+00  0.0000E+00  0.0000E+00  0.0000E+00  0.0000E+00  0.0000E+00  0.0000E+00  0.0000E+00  0.0000E+00  0.0000E+00  0.0000E+00  0.0000E+00
    -35.550  0.0000E+00  0.0000E+00  0.0000E+00  0.0000E+00  0.0000E+00  0.0000E+00  0.0000E+00  0.0000E+00  0.0000E+00  0.0000E+00  0.0000E+00  0.0000E+00  0.0000E+00  0.0000E+00  0.0000E+00  0.0000E+00  0.0000E+00  0.0000E+00
    -35.351  0.0000E+00  0.0000E+00  0.0000E+00  0.0000E+00  0.0000E+00  0.0000E+00  0.0000E+00  0.0000E+00  0.0000E+00  0.0000E+00  0.0000E+00  0.0000E+00  0.0000E+00  0.0000E+00  0.0000E+00  0.0000E+00  0.0000E+00  0.0000E+00
    -35.152  0.0000E+00  0.0000E+00  0.0000E+00  0.0000E+00  0.0000E+00  0.0000E+00  0.0000E+00  0.0000E+00  0.0000E+00  0.0000E+00  0.0000E+00  0.0000E+00  0.0000E+00  0.0000E+00  0.0000E+00  0.0000E+00  0.0000E+00  0.0000E+00
    -34.953  0.0000E+00  0.0000E+00  0.0000E+00  0.0000E+00  0.0000E+00  0.0000E+00  0.0000E+00  0.0000E+00  0.0000E+00  0.0000E+00  0.0000E+00  0.0000E+00  0.0000E+00  0.0000E+00  0.0000E+00  0.0000E+00  0.0000E+00  0.0000E+00
    -34.754  0.0000E+00  0.0000E+00  0.0000E+00  0.0000E+00  0.0000E+00  0.0000E+00  0.0000E+00  0.0000E+00  0.0000E+00  0.0000E+00  0.0000E+00  0.0000E+00  0.0000E+00  0.0000E+00  0.0000E+00  0.0000E+00  0.0000E+00  0.0000E+00
    -34.555  0.0000E+00  0.0000E+00  0.0000E+00  0.0000E+00  0.0000E+00  0.0000E+00  0.0000E+00  0.0000E+00  0.0000E+00  0.0000E+00  0.0000E+00  0.0000E+00  0.0000E+00  0.0000E+00  0.0000E+00  0.0000E+00  0.0000E+00  0.0000E+00
    -34.356  0.0000E+00  0.0000E+00  0.0000E+00  0.0000E+00  0.0000E+00  0.0000E+00  0.0000E+00  0.0000E+00  0.0000E+00  0.0000E+00  0.0000E+00  0.0000E+00  0.0000E+00  0.0000E+00  0.0000E+00  0.0000E+00  0.0000E+00  0.0000E+00
    -34.157  0.0000E+00  0.0000E+00  0.0000E+00  0.0000E+00  0.0000E+00  0.0000E+00  0.0000E+00  0.0000E+00  0.0000E+00  0.0000E+00  0.0000E+00  0.0000E+00  0.0000E+00  0.0000E+00  0.0000E+00  0.0000E+00  0.0000E+00  0.0000E+00
    -33.958  0.0000E+00  0.0000E+00  0.0000E+00  0.0000E+00  0.0000E+00  0.0000E+00  0.0000E+00  0.0000E+00  0.0000E+00  0.0000E+00  0.0000E+00  0.0000E+00  0.0000E+00  0.0000E+00  0.0000E+00  0.0000E+00  0.0000E+00  0.0000E+00
    -33.759  0.0000E+00  0.0000E+00  0.0000E+00  0.0000E+00  0.0000E+00  0.0000E+00  0.0000E+00  0.0000E+00  0.0000E+00  0.0000E+00  0.0000E+00  0.0000E+00  0.0000E+00  0.0000E+00  0.0000E+00  0.0000E+00  0.0000E+00  0.0000E+00
    -33.560  0.0000E+00  0.0000E+00  0.0000E+00  0.0000E+00  0.0000E+00  0.0000E+00  0.0000E+00  0.0000E+00  0.0000E+00  0.0000E+00  0.0000E+00  0.0000E+00  0.0000E+00  0.0000E+00  0.0000E+00  0.0000E+00  0.0000E+00  0.0000E+00
    -33.361  0.0000E+00  0.0000E+00  0.0000E+00  0.0000E+00  0.0000E+00  0.0000E+00  0.0000E+00  0.0000E+00  0.0000E+00  0.0000E+00  0.0000E+00  0.0000E+00  0.0000E+00  0.0000E+00  0.0000E+00  0.0000E+00  0.0000E+00  0.0000E+00
    -33.161  0.0000E+00  0.0000E+00  0.0000E+00  0.0000E+00  0.0000E+00  0.0000E+00  0.0000E+00  0.0000E+00  0.0000E+00  0.0000E+00  0.0000E+00  0.0000E+00  0.0000E+00  0.0000E+00  0.0000E+00  0.0000E+00  0.0000E+00  0.0000E+00
    -32.962  0.0000E+00  0.0000E+00  0.0000E+00  0.0000E+00  0.0000E+00  0.0000E+00  0.0000E+00  0.0000E+00  0.0000E+00  0.0000E+00  0.0000E+00  0.0000E+00  0.0000E+00  0.0000E+00  0.0000E+00  0.0000E+00  0.0000E+00  0.0000E+00
    -32.763  0.0000E+00  0.0000E+00  0.0000E+00  0.0000E+00  0.0000E+00  0.0000E+00  0.0000E+00  0.0000E+00  0.0000E+00  0.0000E+00  0.0000E+00  0.0000E+00  0.0000E+00  0.0000E+00  0.0000E+00  0.0000E+00  0.0000E+00  0.0000E+00
    -32.564  0.0000E+00  0.0000E+00  0.0000E+00  0.0000E+00  0.0000E+00  0.0000E+00  0.0000E+00  0.0000E+00  0.0000E+00  0.0000E+00  0.0000E+00  0.0000E+00  0.0000E+00  0.0000E+00  0.0000E+00  0.0000E+00  0.0000E+00  0.0000E+00
    -32.365  0.0000E+00  0.0000E+00  0.0000E+00  0.0000E+00  0.0000E+00  0.0000E+00  0.0000E+00  0.0000E+00  0.0000E+00  0.0000E+00  0.0000E+00  0.0000E+00  0.0000E+00  0.0000E+00  0.0000E+00  0.0000E+00  0.0000E+00  0.0000E+00
    -32.166  0.0000E+00  0.0000E+00  0.0000E+00  0.0000E+00  0.0000E+00  0.0000E+00  0.0000E+00  0.0000E+00  0.0000E+00  0.0000E+00  0.0000E+00  0.0000E+00  0.0000E+00  0.0000E+00  0.0000E+00  0.0000E+00  0.0000E+00  0.0000E+00
    -31.967  0.0000E+00  0.0000E+00  0.0000E+00  0.0000E+00  0.0000E+00  0.0000E+00  0.0000E+00  0.0000E+00  0.0000E+00  0.0000E+00  0.0000E+00  0.0000E+00  0.0000E+00  0.0000E+00  0.0000E+00  0.0000E+00  0.0000E+00  0.0000E+00
    -31.768  0.0000E+00  0.0000E+00  0.0000E+00  0.0000E+00  0.0000E+00  0.0000E+00  0.0000E+00  0.0000E+00  0.0000E+00  0.0000E+00  0.0000E+00  0.0000E+00  0.0000E+00  0.0000E+00  0.0000E+00  0.0000E+00  0.0000E+00  0.0000E+00
    -31.569  0.0000E+00  0.0000E+00  0.0000E+00  0.0000E+00  0.0000E+00  0.0000E+00  0.0000E+00  0.0000E+00  0.0000E+00  0.0000E+00  0.0000E+00  0.0000E+00  0.0000E+00  0.0000E+00  0.0000E+00  0.0000E+00  0.0000E+00  0.0000E+00
    -31.370  0.0000E+00  0.0000E+00  0.0000E+00  0.0000E+00  0.0000E+00  0.0000E+00  0.0000E+00  0.0000E+00  0.0000E+00  0.0000E+00  0.0000E+00  0.0000E+00  0.0000E+00  0.0000E+00  0.0000E+00  0.0000E+00  0.0000E+00  0.0000E+00
    -31.171  0.0000E+00  0.0000E+00  0.0000E+00  0.0000E+00  0.0000E+00  0.0000E+00  0.0000E+00  0.0000E+00  0.0000E+00  0.0000E+00  0.0000E+00  0.0000E+00  0.0000E+00  0.0000E+00  0.0000E+00  0.0000E+00  0.0000E+00  0.0000E+00
    -30.972  0.0000E+00  0.0000E+00  0.0000E+00  0.0000E+00  0.0000E+00  0.0000E+00  0.0000E+00  0.0000E+00  0.0000E+00  0.0000E+00  0.0000E+00  0.0000E+00  0.0000E+00  0.0000E+00  0.0000E+00  0.0000E+00  0.0000E+00  0.0000E+00
    -30.773  0.0000E+00  0.0000E+00  0.0000E+00  0.0000E+00  0.0000E+00  0.0000E+00  0.0000E+00  0.0000E+00  0.0000E+00  0.0000E+00  0.0000E+00  0.0000E+00  0.0000E+00  0.0000E+00  0.0000E+00  0.0000E+00  0.0000E+00  0.0000E+00
    -30.574  0.0000E+00  0.0000E+00  0.0000E+00  0.0000E+00  0.0000E+00  0.0000E+00  0.0000E+00  0.0000E+00  0.0000E+00  0.0000E+00  0.0000E+00  0.0000E+00  0.0000E+00  0.0000E+00  0.0000E+00  0.0000E+00  0.0000E+00  0.0000E+00
    -30.375  0.0000E+00  0.0000E+00  0.0000E+00  0.0000E+00  0.0000E+00  0.0000E+00  0.0000E+00  0.0000E+00  0.0000E+00  0.0000E+00  0.0000E+00  0.0000E+00  0.0000E+00  0.0000E+00  0.0000E+00  0.0000E+00  0.0000E+00  0.0000E+00