   4   4   1   0
  0.2180656E+02  0.4434886E-09  0.4434886E-09  0.4434886E-09  0.5000000E-15
  1.000000000000000E-004
  CAR 
 unknown system                          
     11.12201262    -47.20198092  301      5.31685920      1.00000000
    -47.202  0.0000E+00  0.0000E+00  0.0000E+00  0.0000E+00
    -47.008  0.0000E+00  0.0000E+00  0.0000E+00  0.0000E+00
    -46.813  0.0000E+00  0.0000E+00  0.0000E+00  0.0000E+00
    -46.619  0.0000E+00  0.0000E+00  0.0000E+00  0.0000E+00
    -46.424  0.0000E+00  0.0000E+00  0.0000E+00  0.0000E+00
    -46.230  0.0000E+00  0.0000E+00  0.0000E+00  0.0000E+00
    -46.036  0.0000E+00  0.0000E+00  0.0000E+00  0.0000E+00
    -45.841  0.0000E+00  0.0000E+00  0.0000E+00  0.0000E+00
    -45.647  0.0000E+00  0.0000E+00  0.0000E+00  0.0000E+00
    -45.452  0.0000E+00  0.0000E+00  0.0000E+00  0.0000E+00
    -45.258  0.0000E+00  0.0000E+00  0.0000E+00  0.0000E+00
    -45.063  0.1803E-03  0.1800E-03  0.3506E-04  0.3500E-04
    -44.869  0.8611E-02  0.8596E-02  0.1709E-02  0.1706E-02
    -44.675  0.3880E+00  0.3874E+00  0.7714E-01  0.7702E-01
    -44.480  0.3735E+01  0.3734E+01  0.8032E+00  0.8029E+00
    -44.286  0.9866E+00  0.9879E+00  0.9950E+00  0.9950E+00
    -44.091  0.0000E+00  0.0000E+00  0.1000E+01  0.1000E+01
    -43.897  0.0000E+00  0.0000E+00  0.1000E+01  0.1000E+01
    -43.703  0.0000E+00  0.0000E+00  0.1000E+01  0.1000E+01
    -43.508  0.0000E+00  0.0000E+00  0.1000E+01  0.1000E+01
    -43.314  0.0000E+00  0.0000E+00  0.1000E+01  0.1000E+01
    -43.119  0.0000E+00  0.0000E+00  0.1000E+01  0.1000E+01
    -42.925  0.0000E+00  0.0000E+00  0.1000E+01  0.1000E+01
    -42.730  0.0000E+00  0.0000E+00  0.1000E+01  0.1000E+01
    -42.536  0.0000E+00  0.0000E+00  0.1000E+01  0.1000E+01
    -42.342  0.0000E+00  0.0000E+00  0.1000E+01  0.1000E+01
    -42.147  0.0000E+00  0.0000E+00  0.1000E+01  0.1000E+01
    -41.953  0.0000E+00  0.0000E+00  0.1000E+01  0.1000E+01
    -41.758  0.0000E+00  0.0000E+00  0.1000E+01  0.1000E+01
    -41.564  0.0000E+00  0.0000E+00  0.1000E+01  0.1000E+01
    -41.370  0.0000E+00  0.0000E+00  0.1000E+01  0.1000E+01
    -41.175  0.0000E+00  0.0000E+00  0.1000E+01  0.1000E+01
    -40.981  0.0000E+00  0.0000E+00  0.1000E+01  0.1000E+01
    -40.786  0.0000E+00  0.0000E+00  0.1000E+01  0.1000E+01
    -40.592  0.0000E+00  0.0000E+00  0.1000E+01  0.1000E+01
    -40.398  0.0000E+00  0.0000E+00  0.1000E+01  0.1000E+01
    -40.203  0.0000E+00  0.0000E+00  0.1000E+01  0.1000E+01
    -40.009  0.0000E+00  0.0000E+00  0.1000E+01  0.1000E+01
    -39.814  0.0000E+00  0.0000E+00  0.1000E+01  0.1000E+01
    -39.620  0.0000E+00  0.0000E+00  0.1000E+01  0.1000E+01
    -39.425  0.0000E+00  0.0000E+00  0.1000E+01  0.1000E+01
    -39.231  0.0000E+00  0.0000E+00  0.1000E+01  0.1000E+01
    -39.037  0.0000E+00  0.0000E+00  0.1000E+01  0.1000E+01
    -38.842  0.0000E+00  0.0000E+00  0.1000E+01  0.1000E+01
    -38.648  0.0000E+00  0.0000E+00  0.1000E+01  0.1000E+01
    -38.453  0.0000E+00  0.0000E+00  0.1000E+01  0.1000E+01
    -38.259  0.0000E+00  0.0000E+00  0.1000E+01  0.1000E+01
    -38.065  0.0000E+00  0.0000E+00  0.1000E+01  0.1000E+01
    -37.870  0.0000E+00  0.0000E+00  0.1000E+01  0.1000E+01
    -37.676  0.0000E+00  0.0000E+00  0.1000E+01  0.1000E+01
    -37.481  0.0000E+00  0.0000E+00  0.1000E+01  0.1000E+01
    -37.287  0.0000E+00  0.0000E+00  0.1000E+01  0.1000E+01
    -37.092  0.0000E+00  0.0000E+00  0.1000E+01  0.1000E+01
    -36.898  0.0000E+00  0.0000E+00  0.1000E+01  0.1000E+01
    -36.704  0.0000E+00  0.0000E+00  0.1000E+01  0.1000E+01
    -36.509  0.0000E+00  0.0000E+00  0.1000E+01  0.1000E+01
    -36.315  0.0000E+00  0.0000E+00  0.1000E+01  0.1000E+01
    -36.120  0.0000E+00  0.0000E+00  0.1000E+01  0.1000E+01
    -35.926  0.0000E+00  0.0000E+00  0.1000E+01  0.1000E+01
    -35.732  0.0000E+00  0.0000E+00  0.1000E+01  0.1000E+01
    -35.537  0.0000E+00  0.0000E+00  0.1000E+01  0.1000E+01
    -35.343  0.0000E+00  0.0000E+00  0.1000E+01  0.1000E+01
    -35.148  0.0000E+00  0.0000E+00  0.1000E+01  0.1000E+01
    -34.954  0.0000E+00  0.0000E+00  0.1000E+01  0.1000E+01
    -34.760  0.0000E+00  0.0000E+00  0.1000E+01  0.1000E+01
    -34.565  0.0000E+00  0.0000E+00  0.1000E+01  0.1000E+01
    -34.371  0.0000E+00  0.0000E+00  0.1000E+01  0.1000E+01
    -34.176  0.0000E+00  0.0000E+00  0.1000E+01  0.1000E+01
    -33.982  0.0000E+00  0.0000E+00  0.1000E+01  0.1000E+01
    -33.787  0.0000E+00  0.0000E+00  0.1000E+01  0.1000E+01
    -33.593  0.0000E+00  0.0000E+00  0.1000E+01  0.1000E+01
    -33.399  0.0000E+00  0.0000E+00  0.1000E+01  0.1000E+01
    -33.204  0.0000E+00  0.0000E+00  0.1000E+01  0.1000E+01
    -33.010  0.0000E+00  0.0000E+00  0.1000E+01  0.1000E+01
    -32.815  0.0000E+00  0.0000E+00  0.1000E+01  0.1000E+01
    -32.621  0.0000E+00  0.0000E+00  0.1000E+01  0.1000E+01
    -32.427  0.0000E+00  0.0000E+00  0.1000E+01  0.1000E+01
    -32.232  0.0000E+00  0.0000E+00  0.1000E+01  0.1000E+01
    -32.038  0.0000E+00  0.0000E+00  0.1000E+01  0.1000E+01
    -31.843  0.0000E+00  0.0000E+00  0.1000E+01  0.1000E+01
    -31.649  0.0000E+00  0.0000E+00  0.1000E+01  0.1000E+01
    -31.455  0.0000E+00  0.0000E+00  0.1000E+01  0.1000E+01
    -31.260  0.0000E+00  0.0000E+00  0.1000E+01  0.1000E+01
    -31.066  0.0000E+00  0.0000E+00  0.1000E+01  0.1000E+01
    -30.871  0.0000E+00  0.0000E+00  0.1000E+01  0.1000E+01
    -30.677  0.0000E+00  0.0000E+00  0.1000E+01  0.1000E+01
    -30.482  0.0000E+00  0.0000E+00  0.1000E+01  0.1000E+01
    -30.288  0.0000E+00  0.0000E+00  0.1000E+01  0.1000E+01
    -30.094  0.0000E+00  0.0000E+00  0.1000E+01  0.1000E+01
    -29.899  0.0000E+00  0.0000E+00  0.1000E+01  0.1000E+01
    -29.705  0.0000E+00  0.0000E+00  0.1000E+01  0.1000E+01
    -29.510  0.0000E+00  0.0000E+00  0.1000E+01  0.1000E+01
    -29.316  0.0000E+00  0.0000E+00  0.1000E+01  0.1000E+01
    -29.122  0.0000E+00  0.0000E+00  0.1000E+01  0.1000E+01
    -28.927  0.0000E+00  0.0000E+00  0.1000E+01  0.1000E+01
    -28.733  0.0000E+00  0.0000E+00  0.1000E+01  0.1000E+01
    -28.538  0.0000E+00  0.0000E+00  0.1000E+01  0.1000E+01
    -28.344  0.0000E+00  0.0000E+00  0.1000E+01  0.1000E+01
    -28.149  0.0000E+00  0.0000E+00  0.1000E+01  0.1000E+01
    -27.955  0.0000E+00  0.0000E+00  0.1000E+01  0.1000E+01
    -27.761  0.0000E+00  0.0000E+00  0.1000E+01  0.1000E+01
    -27.566  0.0000E+00  0.0000E+00  0.1000E+01  0.1000E+01
    -27.372  0.0000E+00  0.0000E+00  0.1000E+01  0.1000E+01
    -27.177  0.0000E+00  0.0000E+00  0.1000E+01  0.1000E+01
    -26.983  0.0000E+00  0.0000E+00  0.1000E+01  0.1000E+01
    -26.789  0.0000E+00  0.0000E+00  0.1000E+01  0.1000E+01
    -26.594  0.0000E+00  0.0000E+00  0.1000E+01  0.1000E+01
    -26.400  0.0000E+00  0.0000E+00  0.1000E+01  0.1000E+01
    -26.205  0.0000E+00  0.0000E+00  0.1000E+01  0.1000E+01
    -26.011  0.0000E+00  0.0000E+00  0.1000E+01  0.1000E+01
    -25.817  0.0000E+00  0.0000E+00  0.1000E+01  0.1000E+01
    -25.622  0.0000E+00  0.0000E+00  0.1000E+01  0.1000E+01
    -25.428  0.0000E+00  0.0000E+00  0.1000E+01  0.1000E+01
    -25.233  0.0000E+00  0.0000E+00  0.1000E+01  0.1000E+01
    -25.039  0.0000E+00  0.0000E+00  0.1000E+01  0.1000E+01
    -24.844  0.0000E+00  0.0000E+00  0.1000E+01  0.1000E+01
    -24.650  0.0000E+00  0.0000E+00  0.1000E+01  0.1000E+01
    -24.456  0.0000E+00  0.0000E+00  0.1000E+01  0.1000E+01
    -24.261  0.0000E+00  0.0000E+00  0.1000E+01  0.1000E+01
    -24.067  0.0000E+00  0.0000E+00  0.1000E+01  0.1000E+01
    -23.872  0.0000E+00  0.0000E+00  0.1000E+01  0.1000E+01
    -23.678  0.7920E-03  0.7910E-03  0.1000E+01  0.1000E+01
    -23.484  0.3778E-01  0.3774E-01  0.1007E+01  0.1007E+01
    -23.289  0.1643E+01  0.1641E+01  0.1327E+01  0.1327E+01
    -23.095  0.1153E+02  0.1153E+02  0.3569E+01  0.3568E+01
    -22.900  0.2166E+01  0.2169E+01  0.3990E+01  0.3990E+01
    -22.706  0.0000E+00  0.0000E+00  0.4000E+01  0.4000E+01
    -22.511  0.0000E+00  0.0000E+00  0.4000E+01  0.4000E+01
    -22.317  0.0000E+00  0.0000E+00  0.4000E+01  0.4000E+01
    -22.123  0.0000E+00  0.0000E+00  0.4000E+01  0.4000E+01
    -21.928  0.0000E+00  0.0000E+00  0.4000E+01  0.4000E+01
    -21.734  0.0000E+00  0.0000E+00  0.4000E+01  0.4000E+01
    -21.539  0.0000E+00  0.0000E+00  0.4000E+01  0.4000E+01
    -21.345  0.0000E+00  0.0000E+00  0.4000E+01  0.4000E+01
    -21.151  0.0000E+00  0.0000E+00  0.4000E+01  0.4000E+01
    -20.956  0.0000E+00  0.0000E+00  0.4000E+01  0.4000E+01
    -20.762  0.0000E+00  0.0000E+00  0.4000E+01  0.4000E+01
    -20.567  0.0000E+00  0.0000E+00  0.4000E+01  0.4000E+01
    -20.373  0.0000E+00  0.0000E+00  0.4000E+01  0.4000E+01
    -20.179  0.0000E+00  0.0000E+00  0.4000E+01  0.4000E+01
    -19.984  0.0000E+00  0.0000E+00  0.4000E+01  0.4000E+01
    -19.790  0.0000E+00  0.0000E+00  0.4000E+01  0.4000E+01
    -19.595  0.0000E+00  0.0000E+00  0.4000E+01  0.4000E+01
    -19.401  0.0000E+00  0.0000E+00  0.4000E+01  0.4000E+01
    -19.206  0.0000E+00  0.0000E+00  0.4000E+01  0.4000E+01
    -19.012  0.0000E+00  0.0000E+00  0.4000E+01  0.4000E+01
    -18.818  0.0000E+00  0.0000E+00  0.4000E+01  0.4000E+01
    -18.623  0.0000E+00  0.0000E+00  0.4000E+01  0.4000E+01
    -18.429  0.0000E+00  0.0000E+00  0.4000E+01  0.4000E+01
    -18.234  0.0000E+00  0.0000E+00  0.4000E+01  0.4000E+01
    -18.040  0.0000E+00  0.0000E+00  0.4000E+01  0.4000E+01
    -17.846  0.0000E+00  0.0000E+00  0.4000E+01  0.4000E+01
    -17.651  0.0000E+00  0.0000E+00  0.4000E+01  0.4000E+01
    -17.457  0.0000E+00  0.0000E+00  0.4000E+01  0.4000E+01
    -17.262  0.0000E+00  0.0000E+00  0.4000E+01  0.4000E+01
    -17.068  0.0000E+00  0.0000E+00  0.4000E+01  0.4000E+01
    -16.874  0.0000E+00  0.0000E+00  0.4000E+01  0.4000E+01
    -16.679  0.0000E+00  0.0000E+00  0.4000E+01  0.4000E+01
    -16.485  0.0000E+00  0.0000E+00  0.4000E+01  0.4000E+01
    -16.290  0.0000E+00  0.0000E+00  0.4000E+01  0.4000E+01
    -16.096  0.0000E+00  0.0000E+00  0.4000E+01  0.4000E+01
    -15.901  0.0000E+00  0.0000E+00  0.4000E+01  0.4000E+01
    -15.707  0.0000E+00  0.0000E+00  0.4000E+01  0.4000E+01
    -15.513  0.0000E+00  0.0000E+00  0.4000E+01  0.4000E+01
    -15.318  0.0000E+00  0.0000E+00  0.4000E+01  0.4000E+01
    -15.124  0.0000E+00  0.0000E+00  0.4000E+01  0.4000E+01
    -14.929  0.0000E+00  0.0000E+00  0.4000E+01  0.4000E+01
    -14.735  0.0000E+00  0.0000E+00  0.4000E+01  0.4000E+01
    -14.541  0.0000E+00  0.0000E+00  0.4000E+01  0.4000E+01
    -14.346  0.0000E+00  0.0000E+00  0.4000E+01  0.4000E+01
    -14.152  0.0000E+00  0.0000E+00  0.4000E+01  0.4000E+01
    -13.957  0.0000E+00  0.0000E+00  0.4000E+01  0.4000E+01
    -13.763  0.0000E+00  0.0000E+00  0.4000E+01  0.4000E+01
    -13.568  0.0000E+00  0.0000E+00  0.4000E+01  0.4000E+01
    -13.374  0.0000E+00  0.0000E+00  0.4000E+01  0.4000E+01
    -13.180  0.0000E+00  0.0000E+00  0.4000E+01  0.4000E+01
    -12.985  0.0000E+00  0.0000E+00  0.4000E+01  0.4000E+01
    -12.791  0.0000E+00  0.0000E+00  0.4000E+01  0.4000E+01
    -12.596  0.0000E+00  0.0000E+00  0.4000E+01  0.4000E+01
    -12.402  0.0000E+00  0.0000E+00  0.4000E+01  0.4000E+01
    -12.208  0.0000E+00  0.0000E+00  0.4000E+01  0.4000E+01
    -12.013  0.0000E+00  0.0000E+00  0.4000E+01  0.4000E+01
    -11.819  0.0000E+00  0.0000E+00  0.4000E+01  0.4000E+01
    -11.624  0.0000E+00  0.0000E+00  0.4000E+01  0.4000E+01
    -11.430  0.0000E+00  0.0000E+00  0.4000E+01  0.4000E+01
    -11.236  0.0000E+00  0.0000E+00  0.4000E+01  0.4000E+01
    -11.041  0.0000E+00  0.0000E+00  0.4000E+01  0.4000E+01
    -10.847  0.0000E+00  0.0000E+00  0.4000E+01  0.4000E+01
    -10.652  0.0000E+00  0.0000E+00  0.4000E+01  0.4000E+01
    -10.458  0.0000E+00  0.0000E+00  0.4000E+01  0.4000E+01
    -10.263  0.0000E+00  0.0000E+00  0.4000E+01  0.4000E+01
    -10.069  0.0000E+00  0.0000E+00  0.4000E+01  0.4000E+01
     -9.875  0.0000E+00  0.0000E+00  0.4000E+01  0.4000E+01
     -9.680  0.0000E+00  0.0000E+00  0.4000E+01  0.4000E+01
     -9.486  0.0000E+00  0.0000E+00  0.4000E+01  0.4000E+01
     -9.291  0.0000E+00  0.0000E+00  0.4000E+01  0.4000E+01
     -9.097  0.0000E+00  0.0000E+00  0.4000E+01  0.4000E+01
     -8.903  0.0000E+00  0.0000E+00  0.4000E+01  0.4000E+01
     -8.708  0.0000E+00  0.0000E+00  0.4000E+01  0.4000E+01
     -8.514  0.0000E+00  0.0000E+00  0.4000E+01  0.4000E+01
     -8.319  0.0000E+00  0.0000E+00  0.4000E+01  0.4000E+01
     -8.125  0.0000E+00  0.0000E+00  0.4000E+01  0.4000E+01
     -7.930  0.0000E+00  0.0000E+00  0.4000E+01  0.4000E+01
     -7.736  0.0000E+00  0.0000E+00  0.4000E+01  0.4000E+01
     -7.542  0.0000E+00  0.0000E+00  0.4000E+01  0.4000E+01
     -7.347  0.0000E+00  0.0000E+00  0.4000E+01  0.4000E+01
     -7.153  0.0000E+00  0.0000E+00  0.4000E+01  0.4000E+01
     -6.958  0.0000E+00  0.0000E+00  0.4000E+01  0.4000E+01
     -6.764  0.0000E+00  0.0000E+00  0.4000E+01  0.4000E+01
     -6.570  0.0000E+00  0.0000E+00  0.4000E+01  0.4000E+01
     -6.375  0.0000E+00  0.0000E+00  0.4000E+01  0.4000E+01
     -6.181  0.0000E+00  0.0000E+00  0.4000E+01  0.4000E+01
     -5.986  0.0000E+00  0.0000E+00  0.4000E+01  0.4000E+01
     -5.792  0.0000E+00  0.0000E+00  0.4000E+01  0.4000E+01
     -5.598  0.0000E+00  0.0000E+00  0.4000E+01  0.4000E+01
     -5.403  0.0000E+00  0.0000E+00  0.4000E+01  0.4000E+01
     -5.209  0.0000E+00  0.0000E+00  0.4000E+01  0.4000E+01
     -5.014  0.0000E+00  0.0000E+00  0.4000E+01  0.4000E+01
     -4.820  0.0000E+00  0.0000E+00  0.4000E+01  0.4000E+01
     -4.625  0.0000E+00  0.0000E+00  0.4000E+01  0.4000E+01
     -4.431  0.0000E+00  0.0000E+00  0.4000E+01  0.4000E+01
     -4.237  0.0000E+00  0.0000E+00  0.4000E+01  0.4000E+01
     -4.042  0.0000E+00  0.0000E+00  0.4000E+01  0.4000E+01
     -3.848  0.1836E-04  0.1828E-04  0.4000E+01  0.4000E+01
     -3.653  0.8739E-03  0.8701E-03  0.4000E+01  0.4000E+01
     -3.459  0.3473E-01  0.3461E-01  0.4007E+01  0.4007E+01
     -3.265  0.1409E+00  0.1409E+00  0.4034E+01  0.4034E+01
     -3.070  0.8220E-01  0.8200E-01  0.4050E+01  0.4050E+01
     -2.876  0.4294E+00  0.4294E+00  0.4134E+01  0.4134E+01
     -2.681  0.1230E+00  0.1231E+00  0.4158E+01  0.4158E+01
     -2.487  0.4239E+00  0.4238E+00  0.4241E+01  0.4240E+01
     -2.293  0.1859E+00  0.1859E+00  0.4277E+01  0.4277E+01
     -2.098  0.5708E+00  0.5707E+00  0.4388E+01  0.4388E+01
     -1.904  0.2686E+00  0.2683E+00  0.4440E+01  0.4440E+01
     -1.709  0.8552E+00  0.8554E+00  0.4607E+01  0.4607E+01
     -1.515  0.2188E+00  0.2189E+00  0.4650E+01  0.4650E+01
     -1.320  0.4270E+00  0.4271E+00  0.4733E+01  0.4733E+01
     -1.126  0.2796E+00  0.2790E+00  0.4787E+01  0.4787E+01
     -0.932  0.3464E+00  0.3471E+00  0.4855E+01  0.4855E+01
     -0.737  0.6453E+00  0.6445E+00  0.4981E+01  0.4980E+01
     -0.543  0.5133E+00  0.5143E+00  0.5080E+01  0.5080E+01
     -0.348  0.7493E+00  0.7490E+00  0.5227E+01  0.5227E+01
     -0.154  0.4233E+00  0.4235E+00  0.5310E+01  0.5310E+01
      0.040  0.6089E+00  0.6089E+00  0.5430E+01  0.5430E+01
      0.235  0.5965E+00  0.5965E+00  0.5546E+01  0.5546E+01
      0.429  0.8207E+00  0.8205E+00  0.5706E+01  0.5706E+01
      0.624  0.6665E+00  0.6662E+00  0.5836E+01  0.5836E+01
      0.818  0.1084E+01  0.1085E+01  0.6048E+01  0.6047E+01
      1.013  0.6842E+00  0.6845E+00  0.6181E+01  0.6181E+01
      1.207  0.4525E+00  0.4520E+00  0.6269E+01  0.6269E+01
      1.401  0.5081E+00  0.5085E+00  0.6368E+01  0.6368E+01
      1.596  0.5914E+00  0.5905E+00  0.6483E+01  0.6483E+01
      1.790  0.1066E+01  0.1066E+01  0.6691E+01  0.6691E+01
      1.985  0.2468E+00  0.2464E+00  0.6739E+01  0.6739E+01
      2.179  0.7736E+00  0.7738E+00  0.6889E+01  0.6889E+01
      2.373  0.6668E+00  0.6670E+00  0.7019E+01  0.7019E+01
      2.568  0.8106E+00  0.8098E+00  0.7177E+01  0.7177E+01
      2.762  0.6643E+00  0.6652E+00  0.7306E+01  0.7306E+01
      2.957  0.6984E+00  0.6974E+00  0.7444E+01  0.7444E+01
      3.151  0.1084E+01  0.1084E+01  0.7655E+01  0.7655E+01
      3.345  0.2089E+01  0.2089E+01  0.8063E+01  0.8062E+01
      3.540  0.8940E+00  0.8949E+00  0.8237E+01  0.8237E+01
      3.734  0.1148E+01  0.1146E+01  0.8464E+01  0.8463E+01
      3.929  0.1527E+01  0.1529E+01  0.8760E+01  0.8760E+01
      4.123  0.5763E+00  0.5761E+00  0.8873E+01  0.8873E+01
      4.318  0.1851E+01  0.1849E+01  0.9233E+01  0.9232E+01
      4.512  0.1200E+01  0.1202E+01  0.9466E+01  0.9466E+01
      4.706  0.2909E+00  0.2902E+00  0.9524E+01  0.9524E+01
      4.901  0.1015E+01  0.1015E+01  0.9722E+01  0.9721E+01
      5.095  0.5005E+00  0.5019E+00  0.9819E+01  0.9819E+01
      5.290  0.7021E+00  0.6996E+00  0.9959E+01  0.9958E+01
      5.484  0.1638E+01  0.1639E+01  0.1028E+02  0.1028E+02
      5.678  0.1079E+01  0.1078E+01  0.1049E+02  0.1049E+02
      5.873  0.1524E+01  0.1524E+01  0.1078E+02  0.1078E+02
      6.067  0.1300E+01  0.1300E+01  0.1104E+02  0.1104E+02
      6.262  0.9239E+00  0.9230E+00  0.1122E+02  0.1122E+02
      6.456  0.1986E+01  0.1984E+01  0.1161E+02  0.1160E+02
      6.651  0.1665E+01  0.1666E+01  0.1193E+02  0.1193E+02
      6.845  0.2068E+01  0.2064E+01  0.1233E+02  0.1233E+02
      7.039  0.2812E+01  0.2813E+01  0.1288E+02  0.1288E+02
      7.234  0.3521E+01  0.3517E+01  0.1357E+02  0.1356E+02
      7.428  0.1789E+01  0.1793E+01  0.1392E+02  0.1392E+02
      7.623  0.1510E+01  0.1536E+01  0.1421E+02  0.1422E+02
      7.817  0.1887E+01  0.1859E+01  0.1458E+02  0.1458E+02
      8.011  0.2472E+01  0.2242E+01  0.1506E+02  0.1502E+02
      8.206  0.1856E+01  0.1950E+01  0.1542E+02  0.1540E+02
      8.400  0.1503E+01  0.1456E+01  0.1572E+02  0.1569E+02
      8.595  0.1356E+01  0.1509E+01  0.1599E+02  0.1598E+02
      8.789  0.6653E-01  0.9850E-01  0.1600E+02  0.1600E+02
      8.983  0.0000E+00  0.0000E+00  0.1600E+02  0.1600E+02
      9.178  0.0000E+00  0.0000E+00  0.1600E+02  0.1600E+02
      9.372  0.0000E+00  0.0000E+00  0.1600E+02  0.1600E+02
      9.567  0.0000E+00  0.0000E+00  0.1600E+02  0.1600E+02
      9.761  0.0000E+00  0.0000E+00  0.1600E+02  0.1600E+02
      9.956  0.0000E+00  0.0000E+00  0.1600E+02  0.1600E+02
     10.150  0.0000E+00  0.0000E+00  0.1600E+02  0.1600E+02
     10.344  0.0000E+00  0.0000E+00  0.1600E+02  0.1600E+02
     10.539  0.0000E+00  0.0000E+00  0.1600E+02  0.1600E+02
     10.733  0.0000E+00  0.0000E+00  0.1600E+02  0.1600E+02
     10.928  0.0000E+00  0.0000E+00  0.1600E+02  0.1600E+02
     11.122  0.0000E+00  0.0000E+00  0.1600E+02  0.1600E+02
     11.12201262    -47.20198092  301      5.31685920      1.00000000
    -47.202  0.0000E+00  0.0000E+00  0.0000E+00  0.0000E+00  0.0000E+00  0.0000E+00  0.0000E+00  0.0000E+00  0.0000E+00  0.0000E+00  0.0000E+00  0.0000E+00  0.0000E+00  0.0000E+00  0.0000E+00  0.0000E+00  0.0000E+00  0.0000E+00
    -47.008  0.0000E+00  0.0000E+00  0.0000E+00  0.0000E+00  0.0000E+00  0.0000E+00  0.0000E+00  0.0000E+00  0.0000E+00  0.0000E+00  0.0000E+00  0.0000E+00  0.0000E+00  0.0000E+00  0.0000E+00  0.0000E+00  0.0000E+00  0.0000E+00
    -46.813  0.0000E+00  0.0000E+00  0.0000E+00  0.0000E+00  0.0000E+00  0.0000E+00  0.0000E+00  0.0000E+00  0.0000E+00  0.0000E+00  0.0000E+00  0.0000E+00  0.0000E+00  0.0000E+00  0.0000E+00  0.0000E+00  0.0000E+00  0.0000E+00
    -46.619  0.0000E+00  0.0000E+00  0.0000E+00  0.0000E+00  0.0000E+00  0.0000E+00  0.0000E+00  0.0000E+00  0.0000E+00  0.0000E+00  0.0000E+00  0.0000E+00  0.0000E+00  0.0000E+00  0.0000E+00  0.0000E+00  0.0000E+00  0.0000E+00
    -46.424  0.0000E+00  0.0000E+00  0.0000E+00  0.0000E+00  0.0000E+00  0.0000E+00  0.0000E+00  0.0000E+00  0.0000E+00  0.0000E+00  0.0000E+00  0.0000E+00  0.0000E+00  0.0000E+00  0.0000E+00  0.0000E+00  0.0000E+00  0.0000E+00
    -46.230  0.0000E+00  0.0000E+00  0.0000E+00  0.0000E+00  0.0000E+00  0.0000E+00  0.0000E+00  0.0000E+00  0.0000E+00  0.0000E+00  0.0000E+00  0.0000E+00  0.0000E+00  0.0000E+00  0.0000E+00  0.0000E+00  0.0000E+00  0.0000E+00
    -46.036  0.0000E+00  0.0000E+00  0.0000E+00  0.0000E+00  0.0000E+00  0.0000E+00  0.0000E+00  0.0000E+00  0.0000E+00  0.0000E+00  0.0000E+00  0.0000E+00  0.0000E+00  0.0000E+00  0.0000E+00  0.0000E+00  0.0000E+00  0.0000E+00
    -45.841  0.0000E+00  0.0000E+00  0.0000E+00  0.0000E+00  0.0000E+00  0.0000E+00  0.0000E+00  0.0000E+00  0.0000E+00  0.0000E+00  0.0000E+00  0.0000E+00  0.0000E+00  0.0000E+00  0.0000E+00  0.0000E+00  0.0000E+00  0.0000E+00
    -45.647  0.0000E+00  0.0000E+00  0.0000E+00  0.0000E+00  0.0000E+00  0.0000E+00  0.0000E+00  0.0000E+00  0.0000E+00  0.0000E+00  0.0000E+00  0.0000E+00  0.0000E+00  0.0000E+00  0.0000E+00  0.0000E+00  0.0000E+00  0.0000E+00
    -45.452  0.0000E+00  0.0000E+00  0.0000E+00  0.0000E+00  0.0000E+00  0.0000E+00  0.0000E+00  0.0000E+00  0.0000E+00  0.0000E+00  0.0000E+00  0.0000E+00  0.0000E+00  0.0000E+00  0.0000E+00  0.0000E+00  0.0000E+00  0.0000E+00
    -45.258  0.0000E+00  0.0000E+00  0.0000E+00  0.0000E+00  0.0000E+00  0.0000E+00  0.0000E+00  0.0000E+00  0.0000E+00  0.0000E+00  0.0000E+00  0.0000E+00  0.0000E+00  0.0000E+00  0.0000E+00  0.0000E+00  0.0000E+00  0.0000E+00
    -45.063  0.1797E-03  0.1794E-03  0.2766E-13  0.2715E-13  0.2766E-13  0.2715E-13  0.2766E-13  0.2715E-13  0.2477E-13  0.3832E-13  0.2477E-13  0.3832E-13  0.2737E-13  0.1062E-12  0.2477E-13  0.3832E-13  0.2737E-13  0.1062E-12
    -44.869  0.8579E-02  0.8564E-02  0.1321E-11  0.1296E-11  0.1321E-11  0.1296E-11  0.1321E-11  0.1296E-11  0.1183E-11  0.1829E-11  0.1183E-11  0.1829E-11  0.1307E-11  0.5073E-11  0.1183E-11  0.1829E-11  0.1307E-11  0.5073E-11
    -44.675  0.3866E+00  0.3859E+00  0.5952E-10  0.5843E-10  0.5952E-10  0.5843E-10  0.5952E-10  0.5843E-10  0.5330E-10  0.8245E-10  0.5330E-10  0.8245E-10  0.5888E-10  0.2286E-09  0.5330E-10  0.8245E-10  0.5888E-10  0.2286E-09
    -44.480  0.3721E+01  0.3720E+01  0.5729E-09  0.5631E-09  0.5729E-09  0.5631E-09  0.5729E-09  0.5631E-09  0.5136E-09  0.7952E-09  0.5136E-09  0.7952E-09  0.5661E-09  0.2202E-08  0.5136E-09  0.7952E-09  0.5661E-09  0.2202E-08
    -44.286  0.9829E+00  0.9843E+00  0.1513E-09  0.1490E-09  0.1513E-09  0.1490E-09  0.1513E-09  0.1490E-09  0.1358E-09  0.2105E-09  0.1358E-09  0.2105E-09  0.1494E-09  0.5822E-09  0.1358E-09  0.2105E-09  0.1494E-09  0.5822E-09
    -44.091  0.0000E+00  0.0000E+00  0.0000E+00  0.0000E+00  0.0000E+00  0.0000E+00  0.0000E+00  0.0000E+00  0.0000E+00  0.0000E+00  0.0000E+00  0.0000E+00  0.0000E+00  0.0000E+00  0.0000E+00  0.0000E+00  0.0000E+00  0.0000E+00
    -43.897  0.0000E+00  0.0000E+00  0.0000E+00  0.0000E+00  0.0000E+00  0.0000E+00  0.0000E+00  0.0000E+00  0.0000E+00  0.0000E+00  0.0000E+00  0.0000E+00  0.0000E+00  0.0000E+00  0.0000E+00  0.0000E+00  0.0000E+00  0.0000E+00
    -43.703  0.0000E+00  0.0000E+00  0.0000E+00  0.0000E+00  0.0000E+00  0.0000E+00  0.0000E+00  0.0000E+00  0.0000E+00  0.0000E+00  0.0000E+00  0.0000E+00  0.0000E+00  0.0000E+00  0.0000E+00  0.0000E+00  0.0000E+00  0.0000E+00
    -43.508  0.0000E+00  0.0000E+00  0.0000E+00  0.0000E+00  0.0000E+00  0.0000E+00  0.0000E+00  0.0000E+00  0.0000E+00  0.0000E+00  0.0000E+00  0.0000E+00  0.0000E+00  0.0000E+00  0.0000E+00  0.0000E+00  0.0000E+00  0.0000E+00
    -43.314  0.0000E+00  0.0000E+00  0.0000E+00  0.0000E+00  0.0000E+00  0.0000E+00  0.0000E+00  0.0000E+00  0.0000E+00  0.0000E+00  0.0000E+00  0.0000E+00  0.0000E+00  0.0000E+00  0.0000E+00  0.0000E+00  0.0000E+00  0.0000E+00
    -43.119  0.0000E+00  0.0000E+00  0.0000E+00  0.0000E+00  0.0000E+00  0.0000E+00  0.0000E+00  0.0000E+00  0.0000E+00  0.0000E+00  0.0000E+00  0.0000E+00  0.0000E+00  0.0000E+00  0.0000E+00  0.0000E+00  0.0000E+00  0.0000E+00
    -42.925  0.0000E+00  0.0000E+00  0.0000E+00  0.0000E+00  0.0000E+00  0.0000E+00  0.0000E+00  0.0000E+00  0.0000E+00  0.0000E+00  0.0000E+00  0.0000E+00  0.0000E+00  0.0000E+00  0.0000E+00  0.0000E+00  0.0000E+00  0.0000E+00
    -42.730  0.0000E+00  0.0000E+00  0.0000E+00  0.0000E+00  0.0000E+00  0.0000E+00  0.0000E+00  0.0000E+00  0.0000E+00  0.0000E+00  0.0000E+00  0.0000E+00  0.0000E+00  0.0000E+00  0.0000E+00  0.0000E+00  0.0000E+00  0.0000E+00
    -42.536  0.0000E+00  0.0000E+00  0.0000E+00  0.0000E+00  0.0000E+00  0.0000E+00  0.0000E+00  0.0000E+00  0.0000E+00  0.0000E+00  0.0000E+00  0.0000E+00  0.0000E+00  0.0000E+00  0.0000E+00  0.0000E+00  0.0000E+00  0.0000E+00
    -42.342  0.0000E+00  0.0000E+00  0.0000E+00  0.0000E+00  0.0000E+00  0.0000E+00  0.0000E+00  0.0000E+00  0.0000E+00  0.0000E+00  0.0000E+00  0.0000E+00  0.0000E+00  0.0000E+00  0.0000E+00  0.0000E+00  0.0000E+00  0.0000E+00
    -42.147  0.0000E+00  0.0000E+00  0.0000E+00  0.0000E+00  0.0000E+00  0.0000E+00  0.0000E+00  0.0000E+00  0.0000E+00  0.0000E+00  0.0000E+00  0.0000E+00  0.0000E+00  0.0000E+00  0.0000E+00  0.0000E+00  0.0000E+00  0.0000E+00
    -41.953  0.0000E+00  0.0000E+00  0.0000E+00  0.0000E+00  0.0000E+00  0.0000E+00  0.0000E+00  0.0000E+00  0.0000E+00  0.0000E+00  0.0000E+00  0.0000E+00  0.0000E+00  0.0000E+00  0.0000E+00  0.0000E+00  0.0000E+00  0.0000E+00
    -41.758  0.0000E+00  0.0000E+00  0.0000E+00  0.0000E+00  0.0000E+00  0.0000E+00  0.0000E+00  0.0000E+00  0.0000E+00  0.0000E+00  0.0000E+00  0.0000E+00  0.0000E+00  0.0000E+00  0.0000E+00  0.0000E+00  0.0000E+00  0.0000E+00
    -41.564  0.0000E+00  0.0000E+00  0.0000E+00  0.0000E+00  0.0000E+00  0.0000E+00  0.0000E+00  0.0000E+00  0.0000E+00  0.0000E+00  0.0000E+00  0.0000E+00  0.0000E+00  0.0000E+00  0.0000E+00  0.0000E+00  0.0000E+00  0.0000E+00
    -41.370  0.0000E+00  0.0000E+00  0.0000E+00  0.0000E+00  0.0000E+00  0.0000E+00  0.0000E+00  0.0000E+00  0.0000E+00  0.0000E+00  0.0000E+00  0.0000E+00  0.0000E+00  0.0000E+00  0.0000E+00  0.0000E+00  0.0000E+00  0.0000E+00
    -41.175  0.0000E+00  0.0000E+00  0.0000E+00  0.0000E+00  0.0000E+00  0.0000E+00  0.0000E+00  0.0000E+00  0.0000E+00  0.0000E+00  0.0000E+00  0.0000E+00  0.0000E+00  0.0000E+00  0.0000E+00  0.0000E+00  0.0000E+00  0.0000E+00
    -40.981  0.0000E+00  0.0000E+00  0.0000E+00  0.0000E+00  0.0000E+00  0.0000E+00  0.0000E+00  0.0000E+00  0.0000E+00  0.0000E+00  0.0000E+00  0.0000E+00  0.0000E+00  0.0000E+00  0.0000E+00  0.0000E+00  0.0000E+00  0.0000E+00
    -40.786  0.0000E+00  0.0000E+00  0.0000E+00  0.0000E+00  0.0000E+00  0.0000E+00  0.0000E+00  0.0000E+00  0.0000E+00  0.0000E+00  0.0000E+00  0.0000E+00  0.0000E+00  0.0000E+00  0.0000E+00  0.0000E+00  0.0000E+00  0.0000E+00
    -40.592  0.0000E+00  0.0000E+00  0.0000E+00  0.0000E+00  0.0000E+00  0.0000E+00  0.0000E+00  0.0000E+00  0.0000E+00  0.0000E+00  0.0000E+00  0.0000E+00  0.0000E+00  0.0000E+00  0.0000E+00  0.0000E+00  0.0000E+00  0.0000E+00
    -40.398  0.0000E+00  0.0000E+00  0.0000E+00  0.0000E+00  0.0000E+00  0.0000E+00  0.0000E+00  0.0000E+00  0.0000E+00  0.0000E+00  0.0000E+00  0.0000E+00  0.0000E+00  0.0000E+00  0.0000E+00  0.0000E+00  0.0000E+00  0.0000E+00
    -40.203  0.0000E+00  0.0000E+00  0.0000E+00  0.0000E+00  0.0000E+00  0.0000E+00  0.0000E+00  0.0000E+00  0.0000E+00  0.0000E+00  0.0000E+00  0.0000E+00  0.0000E+00  0.0000E+00  0.0000E+00  0.0000E+00  0.0000E+00  0.0000E+00
    -40.009  0.0000E+00  0.0000E+00  0.0000E+00  0.0000E+00  0.0000E+00  0.0000E+00  0.0000E+00  0.0000E+00  0.0000E+00  0.0000E+00  0.0000E+00  0.0000E+00  0.0000E+00  0.0000E+00  0.0000E+00  0.0000E+00  0.0000E+00  0.0000E+00
    -39.814  0.0000E+00  0.0000E+00  0.0000E+00  0.0000E+00  0.0000E+00  0.0000E+00  0.0000E+00  0.0000E+00  0.0000E+00  0.0000E+00  0.0000E+00  0.0000E+00  0.0000E+00  0.0000E+00  0.0000E+00  0.0000E+00  0.0000E+00  0.0000E+00
    -39.620  0.0000E+00  0.0000E+00  0.0000E+00  0.0000E+00  0.0000E+00  0.0000E+00  0.0000E+00  0.0000E+00  0.0000E+00  0.0000E+00  0.0000E+00  0.0000E+00  0.0000E+00  0.0000E+00  0.0000E+00  0.0000E+00  0.0000E+00  0.0000E+00
    -39.425  0.0000E+00  0.0000E+00  0.0000E+00  0.0000E+00  0.0000E+00  0.0000E+00  0.0000E+00  0.0000E+00  0.0000E+00  0.0000E+00  0.0000E+00  0.0000E+00  0.0000E+00  0.0000E+00  0.0000E+00  0.0000E+00  0.0000E+00  0.0000E+00
    -39.231  0.0000E+00  0.0000E+00  0.0000E+00  0.0000E+00  0.0000E+00  0.0000E+00  0.0000E+00  0.0000E+00  0.0000E+00  0.0000E+00  0.0000E+00  0.0000E+00  0.0000E+00  0.0000E+00  0.0000E+00  0.0000E+00  0.0000E+00  0.0000E+00
    -39.037  0.0000E+00  0.0000E+00  0.0000E+00  0.0000E+00  0.0000E+00  0.0000E+00  0.0000E+00  0.0000E+00  0.0000E+00  0.0000E+00  0.0000E+00  0.0000E+00  0.0000E+00  0.0000E+00  0.0000E+00  0.0000E+00  0.0000E+00  0.0000E+00
    -38.842  0.0000E+00  0.0000E+00  0.0000E+00  0.0000E+00  0.0000E+00  0.0000E+00  0.0000E+00  0.0000E+00  0.0000E+00  0.0000E+00  0.0000E+00  0.0000E+00  0.0000E+00  0.0000E+00  0.0000E+00  0.0000E+00  0.0000E+00  0.0000E+00
    -38.648  0.0000E+00  0.0000E+00  0.0000E+00  0.0000E+00  0.0000E+00  0.0000E+00  0.0000E+00  0.0000E+00  0.0000E+00  0.0000E+00  0.0000E+00  0.0000E+00  0.0000E+00  0.0000E+00  0.0000E+00  0.0000E+00  0.0000E+00  0.0000E+00
    -38.453  0.0000E+00  0.0000E+00  0.0000E+00  0.0000E+00  0.0000E+00  0.0000E+00  0.0000E+00  0.0000E+00  0.0000E+00  0.0000E+00  0.0000E+00  0.0000E+00  0.0000E+00  0.0000E+00  0.0000E+00  0.0000E+00  0.0000E+00  0.0000E+00
    -38.259  0.0000E+00  0.0000E+00  0.0000E+00  0.0000E+00  0.0000E+00  0.0000E+00  0.0000E+00  0.0000E+00  0.0000E+00  0.0000E+00  0.0000E+00  0.0000E+00  0.0000E+00  0.0000E+00  0.0000E+00  0.0000E+00  0.0000E+00  0.0000E+00
    -38.065  0.0000E+00  0.0000E+00  0.0000E+00  0.0000E+00  0.0000E+00  0.0000E+00  0.0000E+00  0.0000E+00  0.0000E+00  0.0000E+00  0.0000E+00  0.0000E+00  0.0000E+00  0.0000E+00  0.0000E+00  0.0000E+00  0.0000E+00  0.0000E+00
    -37.870  0.0000E+00  0.0000E+00  0.0000E+00  0.0000E+00  0.0000E+00  0.0000E+00  0.0000E+00  0.0000E+00  0.0000E+00  0.0000E+00  0.0000E+00  0.0000E+00  0.0000E+00  0.0000E+00  0.0000E+00  0.0000E+00  0.0000E+00  0.0000E+00
    -37.676  0.0000E+00  0.0000E+00  0.0000E+00  0.0000E+00  0.0000E+00  0.0000E+00  0.0000E+00  0.0000E+00  0.0000E+00  0.0000E+00  0.0000E+00  0.0000E+00  0.0000E+00  0.0000E+00  0.0000E+00  0.0000E+00  0.0000E+00  0.0000E+00
    -37.481  0.0000E+00  0.0000E+00  0.0000E+00  0.0000E+00  0.0000E+00  0.0000E+00  0.0000E+00  0.0000E+00  0.0000E+00  0.0000E+00  0.0000E+00  0.0000E+00  0.0000E+00  0.0000E+00  0.0000E+00  0.0000E+00  0.0000E+00  0.0000E+00