   4   4   1   0
  0.2061738E+02  0.4352758E-09  0.4352758E-09  0.4352758E-09  0.5000000E-15
  1.000000000000000E-004
  CAR 
 unknown system                          
     11.84975552    -46.57795399  301      5.76190593      1.00000000
    -46.578  0.0000E+00  0.0000E+00  0.0000E+00  0.0000E+00
    -46.383  0.0000E+00  0.0000E+00  0.0000E+00  0.0000E+00
    -46.188  0.0000E+00  0.0000E+00  0.0000E+00  0.0000E+00
    -45.994  0.0000E+00  0.0000E+00  0.0000E+00  0.0000E+00
    -45.799  0.0000E+00  0.0000E+00  0.0000E+00  0.0000E+00
    -45.604  0.0000E+00  0.0000E+00  0.0000E+00  0.0000E+00
    -45.409  0.0000E+00  0.0000E+00  0.0000E+00  0.0000E+00
    -45.215  0.0000E+00  0.0000E+00  0.0000E+00  0.0000E+00
    -45.020  0.0000E+00  0.0000E+00  0.0000E+00  0.0000E+00
    -44.825  0.0000E+00  0.0000E+00  0.0000E+00  0.0000E+00
    -44.630  0.0000E+00  0.0000E+00  0.0000E+00  0.0000E+00
    -44.436  0.1762E-03  0.1754E-03  0.3432E-04  0.3417E-04
    -44.241  0.8474E-02  0.8436E-02  0.1685E-02  0.1677E-02
    -44.046  0.3847E+00  0.3831E+00  0.7661E-01  0.7629E-01
    -43.851  0.3730E+01  0.3728E+01  0.8031E+00  0.8024E+00
    -43.657  0.9854E+00  0.9890E+00  0.9950E+00  0.9950E+00
    -43.462  0.0000E+00  0.0000E+00  0.1000E+01  0.1000E+01
    -43.267  0.0000E+00  0.0000E+00  0.1000E+01  0.1000E+01
    -43.072  0.0000E+00  0.0000E+00  0.1000E+01  0.1000E+01
    -42.878  0.0000E+00  0.0000E+00  0.1000E+01  0.1000E+01
    -42.683  0.0000E+00  0.0000E+00  0.1000E+01  0.1000E+01
    -42.488  0.0000E+00  0.0000E+00  0.1000E+01  0.1000E+01
    -42.293  0.0000E+00  0.0000E+00  0.1000E+01  0.1000E+01
    -42.098  0.0000E+00  0.0000E+00  0.1000E+01  0.1000E+01
    -41.904  0.0000E+00  0.0000E+00  0.1000E+01  0.1000E+01
    -41.709  0.0000E+00  0.0000E+00  0.1000E+01  0.1000E+01
    -41.514  0.0000E+00  0.0000E+00  0.1000E+01  0.1000E+01
    -41.319  0.0000E+00  0.0000E+00  0.1000E+01  0.1000E+01
    -41.125  0.0000E+00  0.0000E+00  0.1000E+01  0.1000E+01
    -40.930  0.0000E+00  0.0000E+00  0.1000E+01  0.1000E+01
    -40.735  0.0000E+00  0.0000E+00  0.1000E+01  0.1000E+01
    -40.540  0.0000E+00  0.0000E+00  0.1000E+01  0.1000E+01
    -40.346  0.0000E+00  0.0000E+00  0.1000E+01  0.1000E+01
    -40.151  0.0000E+00  0.0000E+00  0.1000E+01  0.1000E+01
    -39.956  0.0000E+00  0.0000E+00  0.1000E+01  0.1000E+01
    -39.761  0.0000E+00  0.0000E+00  0.1000E+01  0.1000E+01
    -39.567  0.0000E+00  0.0000E+00  0.1000E+01  0.1000E+01
    -39.372  0.0000E+00  0.0000E+00  0.1000E+01  0.1000E+01
    -39.177  0.0000E+00  0.0000E+00  0.1000E+01  0.1000E+01
    -38.982  0.0000E+00  0.0000E+00  0.1000E+01  0.1000E+01
    -38.788  0.0000E+00  0.0000E+00  0.1000E+01  0.1000E+01
    -38.593  0.0000E+00  0.0000E+00  0.1000E+01  0.1000E+01
    -38.398  0.0000E+00  0.0000E+00  0.1000E+01  0.1000E+01
    -38.203  0.0000E+00  0.0000E+00  0.1000E+01  0.1000E+01
    -38.009  0.0000E+00  0.0000E+00  0.1000E+01  0.1000E+01
    -37.814  0.0000E+00  0.0000E+00  0.1000E+01  0.1000E+01
    -37.619  0.0000E+00  0.0000E+00  0.1000E+01  0.1000E+01
    -37.424  0.0000E+00  0.0000E+00  0.1000E+01  0.1000E+01
    -37.230  0.0000E+00  0.0000E+00  0.1000E+01  0.1000E+01
    -37.035  0.0000E+00  0.0000E+00  0.1000E+01  0.1000E+01
    -36.840  0.0000E+00  0.0000E+00  0.1000E+01  0.1000E+01
    -36.645  0.0000E+00  0.0000E+00  0.1000E+01  0.1000E+01
    -36.450  0.0000E+00  0.0000E+00  0.1000E+01  0.1000E+01
    -36.256  0.0000E+00  0.0000E+00  0.1000E+01  0.1000E+01
    -36.061  0.0000E+00  0.0000E+00  0.1000E+01  0.1000E+01
    -35.866  0.0000E+00  0.0000E+00  0.1000E+01  0.1000E+01
    -35.671  0.0000E+00  0.0000E+00  0.1000E+01  0.1000E+01
    -35.477  0.0000E+00  0.0000E+00  0.1000E+01  0.1000E+01
    -35.282  0.0000E+00  0.0000E+00  0.1000E+01  0.1000E+01
    -35.087  0.0000E+00  0.0000E+00  0.1000E+01  0.1000E+01
    -34.892  0.0000E+00  0.0000E+00  0.1000E+01  0.1000E+01
    -34.698  0.0000E+00  0.0000E+00  0.1000E+01  0.1000E+01
    -34.503  0.0000E+00  0.0000E+00  0.1000E+01  0.1000E+01
    -34.308  0.0000E+00  0.0000E+00  0.1000E+01  0.1000E+01
    -34.113  0.0000E+00  0.0000E+00  0.1000E+01  0.1000E+01
    -33.919  0.0000E+00  0.0000E+00  0.1000E+01  0.1000E+01
    -33.724  0.0000E+00  0.0000E+00  0.1000E+01  0.1000E+01
    -33.529  0.0000E+00  0.0000E+00  0.1000E+01  0.1000E+01
    -33.334  0.0000E+00  0.0000E+00  0.1000E+01  0.1000E+01
    -33.140  0.0000E+00  0.0000E+00  0.1000E+01  0.1000E+01
    -32.945  0.0000E+00  0.0000E+00  0.1000E+01  0.1000E+01
    -32.750  0.0000E+00  0.0000E+00  0.1000E+01  0.1000E+01
    -32.555  0.0000E+00  0.0000E+00  0.1000E+01  0.1000E+01
    -32.361  0.0000E+00  0.0000E+00  0.1000E+01  0.1000E+01
    -32.166  0.0000E+00  0.0000E+00  0.1000E+01  0.1000E+01
    -31.971  0.0000E+00  0.0000E+00  0.1000E+01  0.1000E+01
    -31.776  0.0000E+00  0.0000E+00  0.1000E+01  0.1000E+01
    -31.582  0.0000E+00  0.0000E+00  0.1000E+01  0.1000E+01
    -31.387  0.0000E+00  0.0000E+00  0.1000E+01  0.1000E+01
    -31.192  0.0000E+00  0.0000E+00  0.1000E+01  0.1000E+01
    -30.997  0.0000E+00  0.0000E+00  0.1000E+01  0.1000E+01
    -30.802  0.0000E+00  0.0000E+00  0.1000E+01  0.1000E+01
    -30.608  0.0000E+00  0.0000E+00  0.1000E+01  0.1000E+01
    -30.413  0.0000E+00  0.0000E+00  0.1000E+01  0.1000E+01
    -30.218  0.0000E+00  0.0000E+00  0.1000E+01  0.1000E+01
    -30.023  0.0000E+00  0.0000E+00  0.1000E+01  0.1000E+01
    -29.829  0.0000E+00  0.0000E+00  0.1000E+01  0.1000E+01
    -29.634  0.0000E+00  0.0000E+00  0.1000E+01  0.1000E+01
    -29.439  0.0000E+00  0.0000E+00  0.1000E+01  0.1000E+01
    -29.244  0.0000E+00  0.0000E+00  0.1000E+01  0.1000E+01
    -29.050  0.0000E+00  0.0000E+00  0.1000E+01  0.1000E+01
    -28.855  0.0000E+00  0.0000E+00  0.1000E+01  0.1000E+01
    -28.660  0.0000E+00  0.0000E+00  0.1000E+01  0.1000E+01
    -28.465  0.0000E+00  0.0000E+00  0.1000E+01  0.1000E+01
    -28.271  0.0000E+00  0.0000E+00  0.1000E+01  0.1000E+01
    -28.076  0.0000E+00  0.0000E+00  0.1000E+01  0.1000E+01
    -27.881  0.0000E+00  0.0000E+00  0.1000E+01  0.1000E+01
    -27.686  0.0000E+00  0.0000E+00  0.1000E+01  0.1000E+01
    -27.492  0.0000E+00  0.0000E+00  0.1000E+01  0.1000E+01
    -27.297  0.0000E+00  0.0000E+00  0.1000E+01  0.1000E+01
    -27.102  0.0000E+00  0.0000E+00  0.1000E+01  0.1000E+01
    -26.907  0.0000E+00  0.0000E+00  0.1000E+01  0.1000E+01
    -26.713  0.0000E+00  0.0000E+00  0.1000E+01  0.1000E+01
    -26.518  0.0000E+00  0.0000E+00  0.1000E+01  0.1000E+01
    -26.323  0.0000E+00  0.0000E+00  0.1000E+01  0.1000E+01
    -26.128  0.0000E+00  0.0000E+00  0.1000E+01  0.1000E+01
    -25.933  0.0000E+00  0.0000E+00  0.1000E+01  0.1000E+01
    -25.739  0.0000E+00  0.0000E+00  0.1000E+01  0.1000E+01
    -25.544  0.0000E+00  0.0000E+00  0.1000E+01  0.1000E+01
    -25.349  0.0000E+00  0.0000E+00  0.1000E+01  0.1000E+01
    -25.154  0.0000E+00  0.0000E+00  0.1000E+01  0.1000E+01
    -24.960  0.0000E+00  0.0000E+00  0.1000E+01  0.1000E+01
    -24.765  0.0000E+00  0.0000E+00  0.1000E+01  0.1000E+01
    -24.570  0.0000E+00  0.0000E+00  0.1000E+01  0.1000E+01
    -24.375  0.0000E+00  0.0000E+00  0.1000E+01  0.1000E+01
    -24.181  0.0000E+00  0.0000E+00  0.1000E+01  0.1000E+01
    -23.986  0.0000E+00  0.0000E+00  0.1000E+01  0.1000E+01
    -23.791  0.0000E+00  0.0000E+00  0.1000E+01  0.1000E+01
    -23.596  0.0000E+00  0.0000E+00  0.1000E+01  0.1000E+01
    -23.402  0.0000E+00  0.0000E+00  0.1000E+01  0.1000E+01
    -23.207  0.0000E+00  0.0000E+00  0.1000E+01  0.1000E+01
    -23.012  0.2273E-02  0.2263E-02  0.1000E+01  0.1000E+01
    -22.817  0.1087E+00  0.1082E+00  0.1022E+01  0.1022E+01
    -22.623  0.3934E+01  0.3921E+01  0.1788E+01  0.1785E+01
    -22.428  0.1052E+02  0.1053E+02  0.3837E+01  0.3836E+01
    -22.233  0.8184E+00  0.8220E+00  0.3996E+01  0.3996E+01
    -22.038  0.0000E+00  0.0000E+00  0.4000E+01  0.4000E+01
    -21.844  0.0000E+00  0.0000E+00  0.4000E+01  0.4000E+01
    -21.649  0.0000E+00  0.0000E+00  0.4000E+01  0.4000E+01
    -21.454  0.0000E+00  0.0000E+00  0.4000E+01  0.4000E+01
    -21.259  0.0000E+00  0.0000E+00  0.4000E+01  0.4000E+01
    -21.065  0.0000E+00  0.0000E+00  0.4000E+01  0.4000E+01
    -20.870  0.0000E+00  0.0000E+00  0.4000E+01  0.4000E+01
    -20.675  0.0000E+00  0.0000E+00  0.4000E+01  0.4000E+01
    -20.480  0.0000E+00  0.0000E+00  0.4000E+01  0.4000E+01
    -20.285  0.0000E+00  0.0000E+00  0.4000E+01  0.4000E+01
    -20.091  0.0000E+00  0.0000E+00  0.4000E+01  0.4000E+01
    -19.896  0.0000E+00  0.0000E+00  0.4000E+01  0.4000E+01
    -19.701  0.0000E+00  0.0000E+00  0.4000E+01  0.4000E+01
    -19.506  0.0000E+00  0.0000E+00  0.4000E+01  0.4000E+01
    -19.312  0.0000E+00  0.0000E+00  0.4000E+01  0.4000E+01
    -19.117  0.0000E+00  0.0000E+00  0.4000E+01  0.4000E+01
    -18.922  0.0000E+00  0.0000E+00  0.4000E+01  0.4000E+01
    -18.727  0.0000E+00  0.0000E+00  0.4000E+01  0.4000E+01
    -18.533  0.0000E+00  0.0000E+00  0.4000E+01  0.4000E+01
    -18.338  0.0000E+00  0.0000E+00  0.4000E+01  0.4000E+01
    -18.143  0.0000E+00  0.0000E+00  0.4000E+01  0.4000E+01
    -17.948  0.0000E+00  0.0000E+00  0.4000E+01  0.4000E+01
    -17.754  0.0000E+00  0.0000E+00  0.4000E+01  0.4000E+01
    -17.559  0.0000E+00  0.0000E+00  0.4000E+01  0.4000E+01
    -17.364  0.0000E+00  0.0000E+00  0.4000E+01  0.4000E+01
    -17.169  0.0000E+00  0.0000E+00  0.4000E+01  0.4000E+01
    -16.975  0.0000E+00  0.0000E+00  0.4000E+01  0.4000E+01
    -16.780  0.0000E+00  0.0000E+00  0.4000E+01  0.4000E+01
    -16.585  0.0000E+00  0.0000E+00  0.4000E+01  0.4000E+01
    -16.390  0.0000E+00  0.0000E+00  0.4000E+01  0.4000E+01
    -16.196  0.0000E+00  0.0000E+00  0.4000E+01  0.4000E+01
    -16.001  0.0000E+00  0.0000E+00  0.4000E+01  0.4000E+01
    -15.806  0.0000E+00  0.0000E+00  0.4000E+01  0.4000E+01
    -15.611  0.0000E+00  0.0000E+00  0.4000E+01  0.4000E+01
    -15.417  0.0000E+00  0.0000E+00  0.4000E+01  0.4000E+01
    -15.222  0.0000E+00  0.0000E+00  0.4000E+01  0.4000E+01
    -15.027  0.0000E+00  0.0000E+00  0.4000E+01  0.4000E+01
    -14.832  0.0000E+00  0.0000E+00  0.4000E+01  0.4000E+01
    -14.637  0.0000E+00  0.0000E+00  0.4000E+01  0.4000E+01
    -14.443  0.0000E+00  0.0000E+00  0.4000E+01  0.4000E+01
    -14.248  0.0000E+00  0.0000E+00  0.4000E+01  0.4000E+01
    -14.053  0.0000E+00  0.0000E+00  0.4000E+01  0.4000E+01
    -13.858  0.0000E+00  0.0000E+00  0.4000E+01  0.4000E+01
    -13.664  0.0000E+00  0.0000E+00  0.4000E+01  0.4000E+01
    -13.469  0.0000E+00  0.0000E+00  0.4000E+01  0.4000E+01
    -13.274  0.0000E+00  0.0000E+00  0.4000E+01  0.4000E+01
    -13.079  0.0000E+00  0.0000E+00  0.4000E+01  0.4000E+01
    -12.885  0.0000E+00  0.0000E+00  0.4000E+01  0.4000E+01
    -12.690  0.0000E+00  0.0000E+00  0.4000E+01  0.4000E+01
    -12.495  0.0000E+00  0.0000E+00  0.4000E+01  0.4000E+01
    -12.300  0.0000E+00  0.0000E+00  0.4000E+01  0.4000E+01
    -12.106  0.0000E+00  0.0000E+00  0.4000E+01  0.4000E+01
    -11.911  0.0000E+00  0.0000E+00  0.4000E+01  0.4000E+01
    -11.716  0.0000E+00  0.0000E+00  0.4000E+01  0.4000E+01
    -11.521  0.0000E+00  0.0000E+00  0.4000E+01  0.4000E+01
    -11.327  0.0000E+00  0.0000E+00  0.4000E+01  0.4000E+01
    -11.132  0.0000E+00  0.0000E+00  0.4000E+01  0.4000E+01
    -10.937  0.0000E+00  0.0000E+00  0.4000E+01  0.4000E+01
    -10.742  0.0000E+00  0.0000E+00  0.4000E+01  0.4000E+01
    -10.548  0.0000E+00  0.0000E+00  0.4000E+01  0.4000E+01
    -10.353  0.0000E+00  0.0000E+00  0.4000E+01  0.4000E+01
    -10.158  0.0000E+00  0.0000E+00  0.4000E+01  0.4000E+01
     -9.963  0.0000E+00  0.0000E+00  0.4000E+01  0.4000E+01
     -9.768  0.0000E+00  0.0000E+00  0.4000E+01  0.4000E+01
     -9.574  0.0000E+00  0.0000E+00  0.4000E+01  0.4000E+01
     -9.379  0.0000E+00  0.0000E+00  0.4000E+01  0.4000E+01
     -9.184  0.0000E+00  0.0000E+00  0.4000E+01  0.4000E+01
     -8.989  0.0000E+00  0.0000E+00  0.4000E+01  0.4000E+01
     -8.795  0.0000E+00  0.0000E+00  0.4000E+01  0.4000E+01
     -8.600  0.0000E+00  0.0000E+00  0.4000E+01  0.4000E+01
     -8.405  0.0000E+00  0.0000E+00  0.4000E+01  0.4000E+01
     -8.210  0.0000E+00  0.0000E+00  0.4000E+01  0.4000E+01
     -8.016  0.0000E+00  0.0000E+00  0.4000E+01  0.4000E+01
     -7.821  0.0000E+00  0.0000E+00  0.4000E+01  0.4000E+01
     -7.626  0.0000E+00  0.0000E+00  0.4000E+01  0.4000E+01
     -7.431  0.0000E+00  0.0000E+00  0.4000E+01  0.4000E+01
     -7.237  0.0000E+00  0.0000E+00  0.4000E+01  0.4000E+01
     -7.042  0.0000E+00  0.0000E+00  0.4000E+01  0.4000E+01
     -6.847  0.0000E+00  0.0000E+00  0.4000E+01  0.4000E+01
     -6.652  0.0000E+00  0.0000E+00  0.4000E+01  0.4000E+01
     -6.458  0.0000E+00  0.0000E+00  0.4000E+01  0.4000E+01
     -6.263  0.0000E+00  0.0000E+00  0.4000E+01  0.4000E+01
     -6.068  0.0000E+00  0.0000E+00  0.4000E+01  0.4000E+01
     -5.873  0.0000E+00  0.0000E+00  0.4000E+01  0.4000E+01
     -5.679  0.0000E+00  0.0000E+00  0.4000E+01  0.4000E+01
     -5.484  0.0000E+00  0.0000E+00  0.4000E+01  0.4000E+01
     -5.289  0.0000E+00  0.0000E+00  0.4000E+01  0.4000E+01
     -5.094  0.0000E+00  0.0000E+00  0.4000E+01  0.4000E+01
     -4.900  0.0000E+00  0.0000E+00  0.4000E+01  0.4000E+01
     -4.705  0.0000E+00  0.0000E+00  0.4000E+01  0.4000E+01
     -4.510  0.0000E+00  0.0000E+00  0.4000E+01  0.4000E+01
     -4.315  0.0000E+00  0.0000E+00  0.4000E+01  0.4000E+01
     -4.120  0.0000E+00  0.0000E+00  0.4000E+01  0.4000E+01
     -3.926  0.0000E+00  0.0000E+00  0.4000E+01  0.4000E+01
     -3.731  0.7059E-05  0.7033E-05  0.4000E+01  0.4000E+01
     -3.536  0.3394E-03  0.3381E-03  0.4000E+01  0.4000E+01
     -3.341  0.1532E-01  0.1527E-01  0.4003E+01  0.4003E+01
     -3.147  0.1398E+00  0.1397E+00  0.4030E+01  0.4030E+01
     -2.952  0.5451E-01  0.5454E-01  0.4041E+01  0.4041E+01
     -2.757  0.3498E+00  0.3494E+00  0.4109E+01  0.4109E+01
     -2.562  0.2049E+00  0.2053E+00  0.4149E+01  0.4149E+01
     -2.368  0.2699E+00  0.2694E+00  0.4203E+01  0.4203E+01
     -2.173  0.2929E+00  0.2933E+00  0.4260E+01  0.4260E+01
     -1.978  0.3711E+00  0.3705E+00  0.4332E+01  0.4332E+01
     -1.783  0.3923E+00  0.3929E+00  0.4409E+01  0.4409E+01
     -1.589  0.5611E+00  0.5601E+00  0.4518E+01  0.4518E+01
     -1.394  0.5615E+00  0.5624E+00  0.4627E+01  0.4627E+01
     -1.199  0.2944E+00  0.2940E+00  0.4685E+01  0.4685E+01
     -1.004  0.3064E+00  0.3068E+00  0.4744E+01  0.4744E+01
     -0.810  0.4021E+00  0.4017E+00  0.4823E+01  0.4823E+01
     -0.615  0.2280E+00  0.2282E+00  0.4867E+01  0.4867E+01
     -0.420  0.8204E+00  0.8200E+00  0.5028E+01  0.5028E+01
     -0.225  0.3199E+00  0.3204E+00  0.5090E+01  0.5090E+01
     -0.031  0.8326E+00  0.8324E+00  0.5253E+01  0.5253E+01
      0.164  0.3221E+00  0.3222E+00  0.5316E+01  0.5316E+01
      0.359  0.5991E+00  0.5991E+00  0.5434E+01  0.5434E+01
      0.554  0.5652E+00  0.5651E+00  0.5544E+01  0.5544E+01
      0.748  0.7903E+00  0.7903E+00  0.5698E+01  0.5698E+01
      0.943  0.6771E+00  0.6769E+00  0.5831E+01  0.5831E+01
      1.138  0.9880E+00  0.9883E+00  0.6024E+01  0.6024E+01
      1.333  0.7615E+00  0.7618E+00  0.6172E+01  0.6172E+01
      1.528  0.4283E+00  0.4278E+00  0.6256E+01  0.6256E+01
      1.722  0.5591E+00  0.5596E+00  0.6365E+01  0.6365E+01
      1.917  0.3346E+00  0.3340E+00  0.6430E+01  0.6430E+01
      2.112  0.1262E+01  0.1262E+01  0.6676E+01  0.6676E+01
      2.307  0.3463E+00  0.3460E+00  0.6744E+01  0.6743E+01
      2.501  0.7005E+00  0.7008E+00  0.6881E+01  0.6880E+01
      2.696  0.5998E+00  0.5997E+00  0.6997E+01  0.6997E+01
      2.891  0.7392E+00  0.7387E+00  0.7142E+01  0.7142E+01
      3.086  0.7910E+00  0.7919E+00  0.7296E+01  0.7296E+01
      3.280  0.6309E+00  0.6302E+00  0.7419E+01  0.7419E+01
      3.475  0.8800E+00  0.8797E+00  0.7591E+01  0.7590E+01
      3.670  0.2050E+01  0.2049E+01  0.7990E+01  0.7990E+01
      3.865  0.1198E+01  0.1200E+01  0.8224E+01  0.8224E+01
      4.059  0.7766E+00  0.7751E+00  0.8378E+01  0.8377E+01
      4.254  0.1790E+01  0.1791E+01  0.8726E+01  0.8726E+01
      4.449  0.5489E+00  0.5495E+00  0.8834E+01  0.8834E+01
      4.644  0.1398E+01  0.1396E+01  0.9107E+01  0.9107E+01
      4.838  0.1666E+01  0.1668E+01  0.9432E+01  0.9432E+01
      5.033  0.2990E+00  0.2996E+00  0.9492E+01  0.9492E+01
      5.228  0.6275E+00  0.6260E+00  0.9615E+01  0.9615E+01
      5.423  0.9342E+00  0.9354E+00  0.9797E+01  0.9797E+01
      5.617  0.2843E+00  0.2837E+00  0.9853E+01  0.9853E+01
      5.812  0.1164E+01  0.1162E+01  0.1008E+02  0.1008E+02
      6.007  0.1232E+01  0.1234E+01  0.1032E+02  0.1032E+02
      6.202  0.1012E+01  0.1010E+01  0.1052E+02  0.1052E+02
      6.397  0.1407E+01  0.1408E+01  0.1079E+02  0.1079E+02
      6.591  0.1371E+01  0.1371E+01  0.1106E+02  0.1106E+02
      6.786  0.1001E+01  0.9996E+00  0.1126E+02  0.1126E+02
      6.981  0.1974E+01  0.1972E+01  0.1164E+02  0.1164E+02
      7.176  0.1443E+01  0.1445E+01  0.1193E+02  0.1192E+02
      7.370  0.1771E+01  0.1766E+01  0.1227E+02  0.1227E+02
      7.565  0.2478E+01  0.2478E+01  0.1275E+02  0.1275E+02
      7.760  0.3015E+01  0.3015E+01  0.1334E+02  0.1334E+02
      7.955  0.2671E+01  0.2666E+01  0.1386E+02  0.1386E+02
      8.149  0.1095E+01  0.1116E+01  0.1408E+02  0.1408E+02
      8.344  0.1722E+01  0.1701E+01  0.1442E+02  0.1441E+02
      8.539  0.2034E+01  0.2000E+01  0.1481E+02  0.1480E+02
      8.734  0.1799E+01  0.2020E+01  0.1516E+02  0.1520E+02
      8.928  0.1502E+01  0.1343E+01  0.1546E+02  0.1546E+02
      9.123  0.1795E+01  0.1711E+01  0.1581E+02  0.1579E+02
      9.318  0.9499E+00  0.9971E+00  0.1599E+02  0.1599E+02
      9.513  0.3255E-01  0.5490E-01  0.1600E+02  0.1600E+02
      9.707  0.0000E+00  0.0000E+00  0.1600E+02  0.1600E+02
      9.902  0.0000E+00  0.0000E+00  0.1600E+02  0.1600E+02
     10.097  0.0000E+00  0.0000E+00  0.1600E+02  0.1600E+02
     10.292  0.0000E+00  0.0000E+00  0.1600E+02  0.1600E+02
     10.486  0.0000E+00  0.0000E+00  0.1600E+02  0.1600E+02
     10.681  0.0000E+00  0.0000E+00  0.1600E+02  0.1600E+02
     10.876  0.0000E+00  0.0000E+00  0.1600E+02  0.1600E+02
     11.071  0.0000E+00  0.0000E+00  0.1600E+02  0.1600E+02
     11.265  0.0000E+00  0.0000E+00  0.1600E+02  0.1600E+02
     11.460  0.0000E+00  0.0000E+00  0.1600E+02  0.1600E+02
     11.655  0.0000E+00  0.0000E+00  0.1600E+02  0.1600E+02
     11.850  0.0000E+00  0.0000E+00  0.1600E+02  0.1600E+02
     11.84975552    -46.57795399  301      5.76190593      1.00000000
    -46.578  0.0000E+00  0.0000E+00  0.0000E+00  0.0000E+00  0.0000E+00  0.0000E+00  0.0000E+00  0.0000E+00  0.0000E+00  0.0000E+00  0.0000E+00  0.0000E+00  0.0000E+00  0.0000E+00  0.0000E+00  0.0000E+00  0.0000E+00  0.0000E+00
    -46.383  0.0000E+00  0.0000E+00  0.0000E+00  0.0000E+00  0.0000E+00  0.0000E+00  0.0000E+00  0.0000E+00  0.0000E+00  0.0000E+00  0.0000E+00  0.0000E+00  0.0000E+00  0.0000E+00  0.0000E+00  0.0000E+00  0.0000E+00  0.0000E+00
    -46.188  0.0000E+00  0.0000E+00  0.0000E+00  0.0000E+00  0.0000E+00  0.0000E+00  0.0000E+00  0.0000E+00  0.0000E+00  0.0000E+00  0.0000E+00  0.0000E+00  0.0000E+00  0.0000E+00  0.0000E+00  0.0000E+00  0.0000E+00  0.0000E+00
    -45.994  0.0000E+00  0.0000E+00  0.0000E+00  0.0000E+00  0.0000E+00  0.0000E+00  0.0000E+00  0.0000E+00  0.0000E+00  0.0000E+00  0.0000E+00  0.0000E+00  0.0000E+00  0.0000E+00  0.0000E+00  0.0000E+00  0.0000E+00  0.0000E+00
    -45.799  0.0000E+00  0.0000E+00  0.0000E+00  0.0000E+00  0.0000E+00  0.0000E+00  0.0000E+00  0.0000E+00  0.0000E+00  0.0000E+00  0.0000E+00  0.0000E+00  0.0000E+00  0.0000E+00  0.0000E+00  0.0000E+00  0.0000E+00  0.0000E+00
    -45.604  0.0000E+00  0.0000E+00  0.0000E+00  0.0000E+00  0.0000E+00  0.0000E+00  0.0000E+00  0.0000E+00  0.0000E+00  0.0000E+00  0.0000E+00  0.0000E+00  0.0000E+00  0.0000E+00  0.0000E+00  0.0000E+00  0.0000E+00  0.0000E+00
    -45.409  0.0000E+00  0.0000E+00  0.0000E+00  0.0000E+00  0.0000E+00  0.0000E+00  0.0000E+00  0.0000E+00  0.0000E+00  0.0000E+00  0.0000E+00  0.0000E+00  0.0000E+00  0.0000E+00  0.0000E+00  0.0000E+00  0.0000E+00  0.0000E+00
    -45.215  0.0000E+00  0.0000E+00  0.0000E+00  0.0000E+00  0.0000E+00  0.0000E+00  0.0000E+00  0.0000E+00  0.0000E+00  0.0000E+00  0.0000E+00  0.0000E+00  0.0000E+00  0.0000E+00  0.0000E+00  0.0000E+00  0.0000E+00  0.0000E+00
    -45.020  0.0000E+00  0.0000E+00  0.0000E+00  0.0000E+00  0.0000E+00  0.0000E+00  0.0000E+00  0.0000E+00  0.0000E+00  0.0000E+00  0.0000E+00  0.0000E+00  0.0000E+00  0.0000E+00  0.0000E+00  0.0000E+00  0.0000E+00  0.0000E+00
    -44.825  0.0000E+00  0.0000E+00  0.0000E+00  0.0000E+00  0.0000E+00  0.0000E+00  0.0000E+00  0.0000E+00  0.0000E+00  0.0000E+00  0.0000E+00  0.0000E+00  0.0000E+00  0.0000E+00  0.0000E+00  0.0000E+00  0.0000E+00  0.0000E+00
    -44.630  0.0000E+00  0.0000E+00  0.0000E+00  0.0000E+00  0.0000E+00  0.0000E+00  0.0000E+00  0.0000E+00  0.0000E+00  0.0000E+00  0.0000E+00  0.0000E+00  0.0000E+00  0.0000E+00  0.0000E+00  0.0000E+00  0.0000E+00  0.0000E+00
    -44.436  0.1756E-03  0.1748E-03  0.5379E-13  0.5513E-13  0.5379E-13  0.5513E-13  0.5379E-13  0.5513E-13  0.2208E-13  0.3330E-13  0.2208E-13  0.3330E-13  0.7760E-13  0.8430E-13  0.2208E-13  0.3330E-13  0.7760E-13  0.8430E-13
    -44.241  0.8442E-02  0.8404E-02  0.2586E-11  0.2651E-11  0.2586E-11  0.2651E-11  0.2586E-11  0.2651E-11  0.1062E-11  0.1601E-11  0.1062E-11  0.1601E-11  0.3731E-11  0.4053E-11  0.1062E-11  0.1601E-11  0.3731E-11  0.4053E-11
    -44.046  0.3833E+00  0.3817E+00  0.1174E-09  0.1204E-09  0.1174E-09  0.1204E-09  0.1174E-09  0.1204E-09  0.4821E-10  0.7273E-10  0.4821E-10  0.7273E-10  0.1694E-09  0.1841E-09  0.4821E-10  0.7273E-10  0.1694E-09  0.1841E-09
    -43.851  0.3716E+01  0.3714E+01  0.1138E-08  0.1171E-08  0.1138E-08  0.1171E-08  0.1138E-08  0.1171E-08  0.4682E-09  0.7086E-09  0.4682E-09  0.7086E-09  0.1639E-08  0.1791E-08  0.4682E-09  0.7086E-09  0.1639E-08  0.1791E-08
    -43.657  0.9817E+00  0.9853E+00  0.3007E-09  0.3107E-09  0.3007E-09  0.3107E-09  0.3007E-09  0.3107E-09  0.1239E-09  0.1883E-09  0.1239E-09  0.1883E-09  0.4321E-09  0.4751E-09  0.1239E-09  0.1883E-09  0.4321E-09  0.4751E-09
    -43.462  0.0000E+00  0.0000E+00  0.0000E+00  0.0000E+00  0.0000E+00  0.0000E+00  0.0000E+00  0.0000E+00  0.0000E+00  0.0000E+00  0.0000E+00  0.0000E+00  0.0000E+00  0.0000E+00  0.0000E+00  0.0000E+00  0.0000E+00  0.0000E+00
    -43.267  0.0000E+00  0.0000E+00  0.0000E+00  0.0000E+00  0.0000E+00  0.0000E+00  0.0000E+00  0.0000E+00  0.0000E+00  0.0000E+00  0.0000E+00  0.0000E+00  0.0000E+00  0.0000E+00  0.0000E+00  0.0000E+00  0.0000E+00  0.0000E+00
    -43.072  0.0000E+00  0.0000E+00  0.0000E+00  0.0000E+00  0.0000E+00  0.0000E+00  0.0000E+00  0.0000E+00  0.0000E+00  0.0000E+00  0.0000E+00  0.0000E+00  0.0000E+00  0.0000E+00  0.0000E+00  0.0000E+00  0.0000E+00  0.0000E+00
    -42.878  0.0000E+00  0.0000E+00  0.0000E+00  0.0000E+00  0.0000E+00  0.0000E+00  0.0000E+00  0.0000E+00  0.0000E+00  0.0000E+00  0.0000E+00  0.0000E+00  0.0000E+00  0.0000E+00  0.0000E+00  0.0000E+00  0.0000E+00  0.0000E+00
    -42.683  0.0000E+00  0.0000E+00  0.0000E+00  0.0000E+00  0.0000E+00  0.0000E+00  0.0000E+00  0.0000E+00  0.0000E+00  0.0000E+00  0.0000E+00  0.0000E+00  0.0000E+00  0.0000E+00  0.0000E+00  0.0000E+00  0.0000E+00  0.0000E+00
    -42.488  0.0000E+00  0.0000E+00  0.0000E+00  0.0000E+00  0.0000E+00  0.0000E+00  0.0000E+00  0.0000E+00  0.0000E+00  0.0000E+00  0.0000E+00  0.0000E+00  0.0000E+00  0.0000E+00  0.0000E+00  0.0000E+00  0.0000E+00  0.0000E+00
    -42.293  0.0000E+00  0.0000E+00  0.0000E+00  0.0000E+00  0.0000E+00  0.0000E+00  0.0000E+00  0.0000E+00  0.0000E+00  0.0000E+00  0.0000E+00  0.0000E+00  0.0000E+00  0.0000E+00  0.0000E+00  0.0000E+00  0.0000E+00  0.0000E+00
    -42.098  0.0000E+00  0.0000E+00  0.0000E+00  0.0000E+00  0.0000E+00  0.0000E+00  0.0000E+00  0.0000E+00  0.0000E+00  0.0000E+00  0.0000E+00  0.0000E+00  0.0000E+00  0.0000E+00  0.0000E+00  0.0000E+00  0.0000E+00  0.0000E+00
    -41.904  0.0000E+00  0.0000E+00  0.0000E+00  0.0000E+00  0.0000E+00  0.0000E+00  0.0000E+00  0.0000E+00  0.0000E+00  0.0000E+00  0.0000E+00  0.0000E+00  0.0000E+00  0.0000E+00  0.0000E+00  0.0000E+00  0.0000E+00  0.0000E+00
    -41.709  0.0000E+00  0.0000E+00  0.0000E+00  0.0000E+00  0.0000E+00  0.0000E+00  0.0000E+00  0.0000E+00  0.0000E+00  0.0000E+00  0.0000E+00  0.0000E+00  0.0000E+00  0.0000E+00  0.0000E+00  0.0000E+00  0.0000E+00  0.0000E+00
    -41.514  0.0000E+00  0.0000E+00  0.0000E+00  0.0000E+00  0.0000E+00  0.0000E+00  0.0000E+00  0.0000E+00  0.0000E+00  0.0000E+00  0.0000E+00  0.0000E+00  0.0000E+00  0.0000E+00  0.0000E+00  0.0000E+00  0.0000E+00  0.0000E+00
    -41.319  0.0000E+00  0.0000E+00  0.0000E+00  0.0000E+00  0.0000E+00  0.0000E+00  0.0000E+00  0.0000E+00  0.0000E+00  0.0000E+00  0.0000E+00  0.0000E+00  0.0000E+00  0.0000E+00  0.0000E+00  0.0000E+00  0.0000E+00  0.0000E+00
    -41.125  0.0000E+00  0.0000E+00  0.0000E+00  0.0000E+00  0.0000E+00  0.0000E+00  0.0000E+00  0.0000E+00  0.0000E+00  0.0000E+00  0.0000E+00  0.0000E+00  0.0000E+00  0.0000E+00  0.0000E+00  0.0000E+00  0.0000E+00  0.0000E+00
    -40.930  0.0000E+00  0.0000E+00  0.0000E+00  0.0000E+00  0.0000E+00  0.0000E+00  0.0000E+00  0.0000E+00  0.0000E+00  0.0000E+00  0.0000E+00  0.0000E+00  0.0000E+00  0.0000E+00  0.0000E+00  0.0000E+00  0.0000E+00  0.0000E+00
    -40.735  0.0000E+00  0.0000E+00  0.0000E+00  0.0000E+00  0.0000E+00  0.0000E+00  0.0000E+00  0.0000E+00  0.0000E+00  0.0000E+00  0.0000E+00  0.0000E+00  0.0000E+00  0.0000E+00  0.0000E+00  0.0000E+00  0.0000E+00  0.0000E+00
    -40.540  0.0000E+00  0.0000E+00  0.0000E+00  0.0000E+00  0.0000E+00  0.0000E+00  0.0000E+00  0.0000E+00  0.0000E+00  0.0000E+00  0.0000E+00  0.0000E+00  0.0000E+00  0.0000E+00  0.0000E+00  0.0000E+00  0.0000E+00  0.0000E+00
    -40.346  0.0000E+00  0.0000E+00  0.0000E+00  0.0000E+00  0.0000E+00  0.0000E+00  0.0000E+00  0.0000E+00  0.0000E+00  0.0000E+00  0.0000E+00  0.0000E+00  0.0000E+00  0.0000E+00  0.0000E+00  0.0000E+00  0.0000E+00  0.0000E+00
    -40.151  0.0000E+00  0.0000E+00  0.0000E+00  0.0000E+00  0.0000E+00  0.0000E+00  0.0000E+00  0.0000E+00  0.0000E+00  0.0000E+00  0.0000E+00  0.0000E+00  0.0000E+00  0.0000E+00  0.0000E+00  0.0000E+00  0.0000E+00  0.0000E+00
    -39.956  0.0000E+00  0.0000E+00  0.0000E+00  0.0000E+00  0.0000E+00  0.0000E+00  0.0000E+00  0.0000E+00  0.0000E+00  0.0000E+00  0.0000E+00  0.0000E+00  0.0000E+00  0.0000E+00  0.0000E+00  0.0000E+00  0.0000E+00  0.0000E+00
    -39.761  0.0000E+00  0.0000E+00  0.0000E+00  0.0000E+00  0.0000E+00  0.0000E+00  0.0000E+00  0.0000E+00  0.0000E+00  0.0000E+00  0.0000E+00  0.0000E+00  0.0000E+00  0.0000E+00  0.0000E+00  0.0000E+00  0.0000E+00  0.0000E+00
    -39.567  0.0000E+00  0.0000E+00  0.0000E+00  0.0000E+00  0.0000E+00  0.0000E+00  0.0000E+00  0.0000E+00  0.0000E+00  0.0000E+00  0.0000E+00  0.0000E+00  0.0000E+00  0.0000E+00  0.0000E+00  0.0000E+00  0.0000E+00  0.0000E+00
    -39.372  0.0000E+00  0.0000E+00  0.0000E+00  0.0000E+00  0.0000E+00  0.0000E+00  0.0000E+00  0.0000E+00  0.0000E+00  0.0000E+00  0.0000E+00  0.0000E+00  0.0000E+00  0.0000E+00  0.0000E+00  0.0000E+00  0.0000E+00  0.0000E+00
    -39.177  0.0000E+00  0.0000E+00  0.0000E+00  0.0000E+00  0.0000E+00  0.0000E+00  0.0000E+00  0.0000E+00  0.0000E+00  0.0000E+00  0.0000E+00  0.0000E+00  0.0000E+00  0.0000E+00  0.0000E+00  0.0000E+00  0.0000E+00  0.0000E+00
    -38.982  0.0000E+00  0.0000E+00  0.0000E+00  0.0000E+00  0.0000E+00  0.0000E+00  0.0000E+00  0.0000E+00  0.0000E+00  0.0000E+00  0.0000E+00  0.0000E+00  0.0000E+00  0.0000E+00  0.0000E+00  0.0000E+00  0.0000E+00  0.0000E+00
    -38.788  0.0000E+00  0.0000E+00  0.0000E+00  0.0000E+00  0.0000E+00  0.0000E+00  0.0000E+00  0.0000E+00  0.0000E+00  0.0000E+00  0.0000E+00  0.0000E+00  0.0000E+00  0.0000E+00  0.0000E+00  0.0000E+00  0.0000E+00  0.0000E+00
    -38.593  0.0000E+00  0.0000E+00  0.0000E+00  0.0000E+00  0.0000E+00  0.0000E+00  0.0000E+00  0.0000E+00  0.0000E+00  0.0000E+00  0.0000E+00  0.0000E+00  0.0000E+00  0.0000E+00  0.0000E+00  0.0000E+00  0.0000E+00  0.0000E+00
    -38.398  0.0000E+00  0.0000E+00  0.0000E+00  0.0000E+00  0.0000E+00  0.0000E+00  0.0000E+00  0.0000E+00  0.0000E+00  0.0000E+00  0.0000E+00  0.0000E+00  0.0000E+00  0.0000E+00  0.0000E+00  0.0000E+00  0.0000E+00  0.0000E+00
    -38.203  0.0000E+00  0.0000E+00  0.0000E+00  0.0000E+00  0.0000E+00  0.0000E+00  0.0000E+00  0.0000E+00  0.0000E+00  0.0000E+00  0.0000E+00  0.0000E+00  0.0000E+00  0.0000E+00  0.0000E+00  0.0000E+00  0.0000E+00  0.0000E+00
    -38.009  0.0000E+00  0.0000E+00  0.0000E+00  0.0000E+00  0.0000E+00  0.0000E+00  0.0000E+00  0.0000E+00  0.0000E+00  0.0000E+00  0.0000E+00  0.0000E+00  0.0000E+00  0.0000E+00  0.0000E+00  0.0000E+00  0.0000E+00  0.0000E+00
    -37.814  0.0000E+00  0.0000E+00  0.0000E+00  0.0000E+00  0.0000E+00  0.0000E+00  0.0000E+00  0.0000E+00  0.0000E+00  0.0000E+00  0.0000E+00  0.0000E+00  0.0000E+00  0.0000E+00  0.0000E+00  0.0000E+00  0.0000E+00  0.0000E+00
    -37.619  0.0000E+00  0.0000E+00  0.0000E+00  0.0000E+00  0.0000E+00  0.0000E+00  0.0000E+00  0.0000E+00  0.0000E+00  0.0000E+00  0.0000E+00  0.0000E+00  0.0000E+00  0.0000E+00  0.0000E+00  0.0000E+00  0.0000E+00  0.0000E+00
    -37.424  0.0000E+00  0.0000E+00  0.0000E+00  0.0000E+00  0.0000E+00  0.0000E+00  0.0000E+00  0.0000E+00  0.0000E+00  0.0000E+00  0.0000E+00  0.0000E+00  0.0000E+00  0.0000E+00  0.0000E+00  0.0000E+00  0.0000E+00  0.0000E+00
    -37.230  0.0000E+00  0.0000E+00  0.0000E+00  0.0000E+00  0.0000E+00  0.0000E+00  0.0000E+00  0.0000E+00  0.0000E+00  0.0000E+00  0.0000E+00  0.0000E+00  0.0000E+00  0.0000E+00  0.0000E+00  0.0000E+00  0.0000E+00  0.0000E+00
    -37.035  0.0000E+00  0.0000E+00  0.0000E+00  0.0000E+00  0.0000E+00  0.0000E+00  0.0000E+00  0.0000E+00  0.0000E+00  0.0000E+00  0.0000E+00  0.0000E+00  0.0000E+00  0.0000E+00  0.0000E+00  0.0000E+00  0.0000E+00  0.0000E+00
    -36.840  0.0000E+00  0.0000E+00  0.0000E+00  0.0000E+00  0.0000E+00  0.0000E+00  0.0000E+00  0.0000E+00  0.0000E+00  0.0000E+00  0.0000E+00  0.0000E+00  0.0000E+00  0.0000E+00  0.0000E+00  0.0000E+00  0.0000E+00  0.0000E+00