   4   4   1   0
  0.1731075E+02  0.4106376E-09  0.4106376E-09  0.4106376E-09  0.5000000E-15
  1.000000000000000E-004
  CAR 
 unknown system                          
     14.16176112    -44.51039894  301      7.24970914      1.00000000
    -44.510  0.0000E+00  0.0000E+00  0.0000E+00  0.0000E+00
    -44.315  0.0000E+00  0.0000E+00  0.0000E+00  0.0000E+00
    -44.119  0.0000E+00  0.0000E+00  0.0000E+00  0.0000E+00
    -43.924  0.0000E+00  0.0000E+00  0.0000E+00  0.0000E+00
    -43.728  0.0000E+00  0.0000E+00  0.0000E+00  0.0000E+00
    -43.533  0.0000E+00  0.0000E+00  0.0000E+00  0.0000E+00
    -43.337  0.0000E+00  0.0000E+00  0.0000E+00  0.0000E+00
    -43.141  0.0000E+00  0.0000E+00  0.0000E+00  0.0000E+00
    -42.946  0.0000E+00  0.0000E+00  0.0000E+00  0.0000E+00
    -42.750  0.0000E+00  0.0000E+00  0.0000E+00  0.0000E+00
    -42.555  0.0000E+00  0.0000E+00  0.0000E+00  0.0000E+00
    -42.359  0.1632E-03  0.1649E-03  0.3192E-04  0.3224E-04
    -42.164  0.7981E-02  0.8060E-02  0.1593E-02  0.1609E-02
    -41.968  0.3694E+00  0.3728E+00  0.7384E-01  0.7451E-01
    -41.772  0.3710E+01  0.3714E+01  0.7993E+00  0.8009E+00
    -41.577  0.1000E+01  0.9926E+00  0.9950E+00  0.9951E+00
    -41.381  0.0000E+00  0.0000E+00  0.1000E+01  0.1000E+01
    -41.186  0.0000E+00  0.0000E+00  0.1000E+01  0.1000E+01
    -40.990  0.0000E+00  0.0000E+00  0.1000E+01  0.1000E+01
    -40.794  0.0000E+00  0.0000E+00  0.1000E+01  0.1000E+01
    -40.599  0.0000E+00  0.0000E+00  0.1000E+01  0.1000E+01
    -40.403  0.0000E+00  0.0000E+00  0.1000E+01  0.1000E+01
    -40.208  0.0000E+00  0.0000E+00  0.1000E+01  0.1000E+01
    -40.012  0.0000E+00  0.0000E+00  0.1000E+01  0.1000E+01
    -39.817  0.0000E+00  0.0000E+00  0.1000E+01  0.1000E+01
    -39.621  0.0000E+00  0.0000E+00  0.1000E+01  0.1000E+01
    -39.425  0.0000E+00  0.0000E+00  0.1000E+01  0.1000E+01
    -39.230  0.0000E+00  0.0000E+00  0.1000E+01  0.1000E+01
    -39.034  0.0000E+00  0.0000E+00  0.1000E+01  0.1000E+01
    -38.839  0.0000E+00  0.0000E+00  0.1000E+01  0.1000E+01
    -38.643  0.0000E+00  0.0000E+00  0.1000E+01  0.1000E+01
    -38.448  0.0000E+00  0.0000E+00  0.1000E+01  0.1000E+01
    -38.252  0.0000E+00  0.0000E+00  0.1000E+01  0.1000E+01
    -38.056  0.0000E+00  0.0000E+00  0.1000E+01  0.1000E+01
    -37.861  0.0000E+00  0.0000E+00  0.1000E+01  0.1000E+01
    -37.665  0.0000E+00  0.0000E+00  0.1000E+01  0.1000E+01
    -37.470  0.0000E+00  0.0000E+00  0.1000E+01  0.1000E+01
    -37.274  0.0000E+00  0.0000E+00  0.1000E+01  0.1000E+01
    -37.079  0.0000E+00  0.0000E+00  0.1000E+01  0.1000E+01
    -36.883  0.0000E+00  0.0000E+00  0.1000E+01  0.1000E+01
    -36.687  0.0000E+00  0.0000E+00  0.1000E+01  0.1000E+01
    -36.492  0.0000E+00  0.0000E+00  0.1000E+01  0.1000E+01
    -36.296  0.0000E+00  0.0000E+00  0.1000E+01  0.1000E+01
    -36.101  0.0000E+00  0.0000E+00  0.1000E+01  0.1000E+01
    -35.905  0.0000E+00  0.0000E+00  0.1000E+01  0.1000E+01
    -35.710  0.0000E+00  0.0000E+00  0.1000E+01  0.1000E+01
    -35.514  0.0000E+00  0.0000E+00  0.1000E+01  0.1000E+01
    -35.318  0.0000E+00  0.0000E+00  0.1000E+01  0.1000E+01
    -35.123  0.0000E+00  0.0000E+00  0.1000E+01  0.1000E+01
    -34.927  0.0000E+00  0.0000E+00  0.1000E+01  0.1000E+01
    -34.732  0.0000E+00  0.0000E+00  0.1000E+01  0.1000E+01
    -34.536  0.0000E+00  0.0000E+00  0.1000E+01  0.1000E+01
    -34.341  0.0000E+00  0.0000E+00  0.1000E+01  0.1000E+01
    -34.145  0.0000E+00  0.0000E+00  0.1000E+01  0.1000E+01
    -33.949  0.0000E+00  0.0000E+00  0.1000E+01  0.1000E+01
    -33.754  0.0000E+00  0.0000E+00  0.1000E+01  0.1000E+01
    -33.558  0.0000E+00  0.0000E+00  0.1000E+01  0.1000E+01
    -33.363  0.0000E+00  0.0000E+00  0.1000E+01  0.1000E+01
    -33.167  0.0000E+00  0.0000E+00  0.1000E+01  0.1000E+01
    -32.972  0.0000E+00  0.0000E+00  0.1000E+01  0.1000E+01
    -32.776  0.0000E+00  0.0000E+00  0.1000E+01  0.1000E+01
    -32.580  0.0000E+00  0.0000E+00  0.1000E+01  0.1000E+01
    -32.385  0.0000E+00  0.0000E+00  0.1000E+01  0.1000E+01
    -32.189  0.0000E+00  0.0000E+00  0.1000E+01  0.1000E+01
    -31.994  0.0000E+00  0.0000E+00  0.1000E+01  0.1000E+01
    -31.798  0.0000E+00  0.0000E+00  0.1000E+01  0.1000E+01
    -31.603  0.0000E+00  0.0000E+00  0.1000E+01  0.1000E+01
    -31.407  0.0000E+00  0.0000E+00  0.1000E+01  0.1000E+01
    -31.211  0.0000E+00  0.0000E+00  0.1000E+01  0.1000E+01
    -31.016  0.0000E+00  0.0000E+00  0.1000E+01  0.1000E+01
    -30.820  0.0000E+00  0.0000E+00  0.1000E+01  0.1000E+01
    -30.625  0.0000E+00  0.0000E+00  0.1000E+01  0.1000E+01
    -30.429  0.0000E+00  0.0000E+00  0.1000E+01  0.1000E+01
    -30.234  0.0000E+00  0.0000E+00  0.1000E+01  0.1000E+01
    -30.038  0.0000E+00  0.0000E+00  0.1000E+01  0.1000E+01
    -29.842  0.0000E+00  0.0000E+00  0.1000E+01  0.1000E+01
    -29.647  0.0000E+00  0.0000E+00  0.1000E+01  0.1000E+01
    -29.451  0.0000E+00  0.0000E+00  0.1000E+01  0.1000E+01
    -29.256  0.0000E+00  0.0000E+00  0.1000E+01  0.1000E+01
    -29.060  0.0000E+00  0.0000E+00  0.1000E+01  0.1000E+01
    -28.864  0.0000E+00  0.0000E+00  0.1000E+01  0.1000E+01
    -28.669  0.0000E+00  0.0000E+00  0.1000E+01  0.1000E+01
    -28.473  0.0000E+00  0.0000E+00  0.1000E+01  0.1000E+01
    -28.278  0.0000E+00  0.0000E+00  0.1000E+01  0.1000E+01
    -28.082  0.0000E+00  0.0000E+00  0.1000E+01  0.1000E+01
    -27.887  0.0000E+00  0.0000E+00  0.1000E+01  0.1000E+01
    -27.691  0.0000E+00  0.0000E+00  0.1000E+01  0.1000E+01
    -27.495  0.0000E+00  0.0000E+00  0.1000E+01  0.1000E+01
    -27.300  0.0000E+00  0.0000E+00  0.1000E+01  0.1000E+01
    -27.104  0.0000E+00  0.0000E+00  0.1000E+01  0.1000E+01
    -26.909  0.0000E+00  0.0000E+00  0.1000E+01  0.1000E+01
    -26.713  0.0000E+00  0.0000E+00  0.1000E+01  0.1000E+01
    -26.518  0.0000E+00  0.0000E+00  0.1000E+01  0.1000E+01
    -26.322  0.0000E+00  0.0000E+00  0.1000E+01  0.1000E+01
    -26.126  0.0000E+00  0.0000E+00  0.1000E+01  0.1000E+01
    -25.931  0.0000E+00  0.0000E+00  0.1000E+01  0.1000E+01
    -25.735  0.0000E+00  0.0000E+00  0.1000E+01  0.1000E+01
    -25.540  0.0000E+00  0.0000E+00  0.1000E+01  0.1000E+01
    -25.344  0.0000E+00  0.0000E+00  0.1000E+01  0.1000E+01
    -25.149  0.0000E+00  0.0000E+00  0.1000E+01  0.1000E+01
    -24.953  0.0000E+00  0.0000E+00  0.1000E+01  0.1000E+01
    -24.757  0.0000E+00  0.0000E+00  0.1000E+01  0.1000E+01
    -24.562  0.0000E+00  0.0000E+00  0.1000E+01  0.1000E+01
    -24.366  0.0000E+00  0.0000E+00  0.1000E+01  0.1000E+01
    -24.171  0.0000E+00  0.0000E+00  0.1000E+01  0.1000E+01
    -23.975  0.0000E+00  0.0000E+00  0.1000E+01  0.1000E+01
    -23.780  0.0000E+00  0.0000E+00  0.1000E+01  0.1000E+01
    -23.584  0.0000E+00  0.0000E+00  0.1000E+01  0.1000E+01
    -23.388  0.0000E+00  0.0000E+00  0.1000E+01  0.1000E+01
    -23.193  0.0000E+00  0.0000E+00  0.1000E+01  0.1000E+01
    -22.997  0.0000E+00  0.0000E+00  0.1000E+01  0.1000E+01
    -22.802  0.0000E+00  0.0000E+00  0.1000E+01  0.1000E+01
    -22.606  0.0000E+00  0.0000E+00  0.1000E+01  0.1000E+01
    -22.411  0.0000E+00  0.0000E+00  0.1000E+01  0.1000E+01
    -22.215  0.0000E+00  0.0000E+00  0.1000E+01  0.1000E+01
    -22.019  0.0000E+00  0.0000E+00  0.1000E+01  0.1000E+01
    -21.824  0.0000E+00  0.0000E+00  0.1000E+01  0.1000E+01
    -21.628  0.0000E+00  0.0000E+00  0.1000E+01  0.1000E+01
    -21.433  0.0000E+00  0.0000E+00  0.1000E+01  0.1000E+01
    -21.237  0.0000E+00  0.0000E+00  0.1000E+01  0.1000E+01
    -21.042  0.9348E-03  0.9243E-03  0.1000E+01  0.1000E+01
    -20.846  0.4564E-01  0.4512E-01  0.1009E+01  0.1009E+01
    -20.650  0.1970E+01  0.1951E+01  0.1394E+01  0.1391E+01
    -20.455  0.1148E+02  0.1148E+02  0.3640E+01  0.3636E+01
    -20.259  0.1799E+01  0.1817E+01  0.3992E+01  0.3992E+01
    -20.064  0.0000E+00  0.0000E+00  0.4000E+01  0.4000E+01
    -19.868  0.0000E+00  0.0000E+00  0.4000E+01  0.4000E+01
    -19.673  0.0000E+00  0.0000E+00  0.4000E+01  0.4000E+01
    -19.477  0.0000E+00  0.0000E+00  0.4000E+01  0.4000E+01
    -19.281  0.0000E+00  0.0000E+00  0.4000E+01  0.4000E+01
    -19.086  0.0000E+00  0.0000E+00  0.4000E+01  0.4000E+01
    -18.890  0.0000E+00  0.0000E+00  0.4000E+01  0.4000E+01
    -18.695  0.0000E+00  0.0000E+00  0.4000E+01  0.4000E+01
    -18.499  0.0000E+00  0.0000E+00  0.4000E+01  0.4000E+01
    -18.304  0.0000E+00  0.0000E+00  0.4000E+01  0.4000E+01
    -18.108  0.0000E+00  0.0000E+00  0.4000E+01  0.4000E+01
    -17.912  0.0000E+00  0.0000E+00  0.4000E+01  0.4000E+01
    -17.717  0.0000E+00  0.0000E+00  0.4000E+01  0.4000E+01
    -17.521  0.0000E+00  0.0000E+00  0.4000E+01  0.4000E+01
    -17.326  0.0000E+00  0.0000E+00  0.4000E+01  0.4000E+01
    -17.130  0.0000E+00  0.0000E+00  0.4000E+01  0.4000E+01
    -16.934  0.0000E+00  0.0000E+00  0.4000E+01  0.4000E+01
    -16.739  0.0000E+00  0.0000E+00  0.4000E+01  0.4000E+01
    -16.543  0.0000E+00  0.0000E+00  0.4000E+01  0.4000E+01
    -16.348  0.0000E+00  0.0000E+00  0.4000E+01  0.4000E+01
    -16.152  0.0000E+00  0.0000E+00  0.4000E+01  0.4000E+01
    -15.957  0.0000E+00  0.0000E+00  0.4000E+01  0.4000E+01
    -15.761  0.0000E+00  0.0000E+00  0.4000E+01  0.4000E+01
    -15.565  0.0000E+00  0.0000E+00  0.4000E+01  0.4000E+01
    -15.370  0.0000E+00  0.0000E+00  0.4000E+01  0.4000E+01
    -15.174  0.0000E+00  0.0000E+00  0.4000E+01  0.4000E+01
    -14.979  0.0000E+00  0.0000E+00  0.4000E+01  0.4000E+01
    -14.783  0.0000E+00  0.0000E+00  0.4000E+01  0.4000E+01
    -14.588  0.0000E+00  0.0000E+00  0.4000E+01  0.4000E+01
    -14.392  0.0000E+00  0.0000E+00  0.4000E+01  0.4000E+01
    -14.196  0.0000E+00  0.0000E+00  0.4000E+01  0.4000E+01
    -14.001  0.0000E+00  0.0000E+00  0.4000E+01  0.4000E+01
    -13.805  0.0000E+00  0.0000E+00  0.4000E+01  0.4000E+01
    -13.610  0.0000E+00  0.0000E+00  0.4000E+01  0.4000E+01
    -13.414  0.0000E+00  0.0000E+00  0.4000E+01  0.4000E+01
    -13.219  0.0000E+00  0.0000E+00  0.4000E+01  0.4000E+01
    -13.023  0.0000E+00  0.0000E+00  0.4000E+01  0.4000E+01
    -12.827  0.0000E+00  0.0000E+00  0.4000E+01  0.4000E+01
    -12.632  0.0000E+00  0.0000E+00  0.4000E+01  0.4000E+01
    -12.436  0.0000E+00  0.0000E+00  0.4000E+01  0.4000E+01
    -12.241  0.0000E+00  0.0000E+00  0.4000E+01  0.4000E+01
    -12.045  0.0000E+00  0.0000E+00  0.4000E+01  0.4000E+01
    -11.850  0.0000E+00  0.0000E+00  0.4000E+01  0.4000E+01
    -11.654  0.0000E+00  0.0000E+00  0.4000E+01  0.4000E+01
    -11.458  0.0000E+00  0.0000E+00  0.4000E+01  0.4000E+01
    -11.263  0.0000E+00  0.0000E+00  0.4000E+01  0.4000E+01
    -11.067  0.0000E+00  0.0000E+00  0.4000E+01  0.4000E+01
    -10.872  0.0000E+00  0.0000E+00  0.4000E+01  0.4000E+01
    -10.676  0.0000E+00  0.0000E+00  0.4000E+01  0.4000E+01
    -10.481  0.0000E+00  0.0000E+00  0.4000E+01  0.4000E+01
    -10.285  0.0000E+00  0.0000E+00  0.4000E+01  0.4000E+01
    -10.089  0.0000E+00  0.0000E+00  0.4000E+01  0.4000E+01
     -9.894  0.0000E+00  0.0000E+00  0.4000E+01  0.4000E+01
     -9.698  0.0000E+00  0.0000E+00  0.4000E+01  0.4000E+01
     -9.503  0.0000E+00  0.0000E+00  0.4000E+01  0.4000E+01
     -9.307  0.0000E+00  0.0000E+00  0.4000E+01  0.4000E+01
     -9.112  0.0000E+00  0.0000E+00  0.4000E+01  0.4000E+01
     -8.916  0.0000E+00  0.0000E+00  0.4000E+01  0.4000E+01
     -8.720  0.0000E+00  0.0000E+00  0.4000E+01  0.4000E+01
     -8.525  0.0000E+00  0.0000E+00  0.4000E+01  0.4000E+01
     -8.329  0.0000E+00  0.0000E+00  0.4000E+01  0.4000E+01
     -8.134  0.0000E+00  0.0000E+00  0.4000E+01  0.4000E+01
     -7.938  0.0000E+00  0.0000E+00  0.4000E+01  0.4000E+01
     -7.743  0.0000E+00  0.0000E+00  0.4000E+01  0.4000E+01
     -7.547  0.0000E+00  0.0000E+00  0.4000E+01  0.4000E+01
     -7.351  0.0000E+00  0.0000E+00  0.4000E+01  0.4000E+01
     -7.156  0.0000E+00  0.0000E+00  0.4000E+01  0.4000E+01
     -6.960  0.0000E+00  0.0000E+00  0.4000E+01  0.4000E+01
     -6.765  0.0000E+00  0.0000E+00  0.4000E+01  0.4000E+01
     -6.569  0.0000E+00  0.0000E+00  0.4000E+01  0.4000E+01
     -6.373  0.0000E+00  0.0000E+00  0.4000E+01  0.4000E+01
     -6.178  0.0000E+00  0.0000E+00  0.4000E+01  0.4000E+01
     -5.982  0.0000E+00  0.0000E+00  0.4000E+01  0.4000E+01
     -5.787  0.0000E+00  0.0000E+00  0.4000E+01  0.4000E+01
     -5.591  0.0000E+00  0.0000E+00  0.4000E+01  0.4000E+01
     -5.396  0.0000E+00  0.0000E+00  0.4000E+01  0.4000E+01
     -5.200  0.0000E+00  0.0000E+00  0.4000E+01  0.4000E+01
     -5.004  0.0000E+00  0.0000E+00  0.4000E+01  0.4000E+01
     -4.809  0.0000E+00  0.0000E+00  0.4000E+01  0.4000E+01
     -4.613  0.0000E+00  0.0000E+00  0.4000E+01  0.4000E+01
     -4.418  0.0000E+00  0.0000E+00  0.4000E+01  0.4000E+01
     -4.222  0.0000E+00  0.0000E+00  0.4000E+01  0.4000E+01
     -4.027  0.0000E+00  0.0000E+00  0.4000E+01  0.4000E+01
     -3.831  0.0000E+00  0.0000E+00  0.4000E+01  0.4000E+01
     -3.635  0.0000E+00  0.0000E+00  0.4000E+01  0.4000E+01
     -3.440  0.0000E+00  0.0000E+00  0.4000E+01  0.4000E+01
     -3.244  0.0000E+00  0.0000E+00  0.4000E+01  0.4000E+01
     -3.049  0.3685E-04  0.3650E-04  0.4000E+01  0.4000E+01
     -2.853  0.1787E-02  0.1771E-02  0.4000E+01  0.4000E+01
     -2.658  0.6013E-01  0.5975E-01  0.4012E+01  0.4012E+01
     -2.462  0.1206E+00  0.1209E+00  0.4036E+01  0.4036E+01
     -2.266  0.3941E-01  0.3917E-01  0.4043E+01  0.4043E+01
     -2.071  0.3955E+00  0.3948E+00  0.4121E+01  0.4121E+01
     -1.875  0.1423E+00  0.1432E+00  0.4149E+01  0.4149E+01
     -1.680  0.1938E+00  0.1925E+00  0.4187E+01  0.4187E+01
     -1.484  0.3509E+00  0.3521E+00  0.4256E+01  0.4256E+01
     -1.289  0.1393E+00  0.1382E+00  0.4283E+01  0.4283E+01
     -1.093  0.5635E+00  0.5639E+00  0.4393E+01  0.4393E+01
     -0.897  0.1622E+00  0.1619E+00  0.4425E+01  0.4425E+01
     -0.702  0.8346E+00  0.8334E+00  0.4589E+01  0.4588E+01
     -0.506  0.2265E+00  0.2285E+00  0.4633E+01  0.4633E+01
     -0.311  0.3593E+00  0.3578E+00  0.4704E+01  0.4704E+01
     -0.115  0.2286E+00  0.2296E+00  0.4749E+01  0.4749E+01
      0.080  0.4192E+00  0.4185E+00  0.4832E+01  0.4832E+01
      0.276  0.1398E+00  0.1408E+00  0.4859E+01  0.4859E+01
      0.472  0.6949E+00  0.6928E+00  0.4996E+01  0.4995E+01
      0.667  0.3984E+00  0.4008E+00  0.5074E+01  0.5074E+01
      0.863  0.3458E+00  0.3451E+00  0.5144E+01  0.5144E+01
      1.058  0.7418E+00  0.7423E+00  0.5289E+01  0.5289E+01
      1.254  0.2734E+00  0.2725E+00  0.5342E+01  0.5342E+01
      1.449  0.4894E+00  0.4903E+00  0.5438E+01  0.5438E+01
      1.645  0.4182E+00  0.4172E+00  0.5520E+01  0.5520E+01
      1.841  0.7626E+00  0.7633E+00  0.5670E+01  0.5670E+01
      2.036  0.6814E+00  0.6803E+00  0.5803E+01  0.5803E+01
      2.232  0.9167E+00  0.9175E+00  0.5982E+01  0.5982E+01
      2.427  0.6111E+00  0.6107E+00  0.6102E+01  0.6102E+01
      2.623  0.6034E+00  0.6032E+00  0.6221E+01  0.6221E+01
      2.818  0.6621E+00  0.6628E+00  0.6351E+01  0.6351E+01
      3.014  0.1262E+00  0.1263E+00  0.6376E+01  0.6376E+01
      3.210  0.7488E+00  0.7455E+00  0.6523E+01  0.6522E+01
      3.405  0.1125E+01  0.1127E+01  0.6743E+01  0.6742E+01
      3.601  0.6294E+00  0.6311E+00  0.6866E+01  0.6866E+01
      3.796  0.2118E+00  0.2116E+00  0.6908E+01  0.6908E+01
      3.992  0.8536E+00  0.8524E+00  0.7075E+01  0.7075E+01
      4.187  0.6772E+00  0.6776E+00  0.7208E+01  0.7207E+01
      4.383  0.5861E+00  0.5863E+00  0.7323E+01  0.7323E+01
      4.579  0.7789E+00  0.7784E+00  0.7475E+01  0.7475E+01
      4.774  0.9637E+00  0.9629E+00  0.7664E+01  0.7664E+01
      4.970  0.2359E+01  0.2359E+01  0.8126E+01  0.8125E+01
      5.165  0.7307E+00  0.7305E+00  0.8269E+01  0.8268E+01
      5.361  0.6762E+00  0.6757E+00  0.8404E+01  0.8403E+01
      5.557  0.1715E+01  0.1716E+01  0.8739E+01  0.8739E+01
      5.752  0.8006E+00  0.8015E+00  0.8896E+01  0.8896E+01
      5.948  0.9965E+00  0.9937E+00  0.9092E+01  0.9091E+01
      6.143  0.1638E+01  0.1639E+01  0.9413E+01  0.9412E+01
      6.339  0.3535E+00  0.3553E+00  0.9483E+01  0.9483E+01
      6.534  0.3643E+00  0.3633E+00  0.9555E+01  0.9555E+01
      6.730  0.7666E+00  0.7660E+00  0.9705E+01  0.9704E+01
      6.926  0.5621E+00  0.5635E+00  0.9816E+01  0.9816E+01
      7.121  0.4421E+00  0.4408E+00  0.9903E+01  0.9902E+01
      7.317  0.9487E+00  0.9466E+00  0.1009E+02  0.1009E+02
      7.512  0.8516E+00  0.8547E+00  0.1026E+02  0.1026E+02
      7.708  0.8311E+00  0.8257E+00  0.1042E+02  0.1042E+02
      7.903  0.8692E+00  0.8745E+00  0.1059E+02  0.1059E+02
      8.099  0.5902E+00  0.5873E+00  0.1071E+02  0.1071E+02
      8.295  0.1994E+01  0.1993E+01  0.1110E+02  0.1110E+02
      8.490  0.1195E+01  0.1197E+01  0.1133E+02  0.1133E+02
      8.686  0.1218E+01  0.1216E+01  0.1157E+02  0.1157E+02
      8.881  0.1291E+01  0.1292E+01  0.1183E+02  0.1183E+02
      9.077  0.1156E+01  0.1157E+01  0.1206E+02  0.1206E+02
      9.272  0.2240E+01  0.2235E+01  0.1250E+02  0.1249E+02
      9.468  0.1951E+01  0.1953E+01  0.1288E+02  0.1288E+02
      9.664  0.1838E+01  0.1835E+01  0.1324E+02  0.1324E+02
      9.859  0.1933E+01  0.1940E+01  0.1362E+02  0.1362E+02
     10.055  0.1324E+01  0.1322E+01  0.1388E+02  0.1388E+02
     10.250  0.2384E+01  0.2385E+01  0.1435E+02  0.1435E+02
     10.446  0.1367E+01  0.1365E+01  0.1461E+02  0.1461E+02
     10.641  0.5042E+00  0.5124E+00  0.1472E+02  0.1472E+02
     10.837  0.1291E+01  0.1399E+01  0.1497E+02  0.1499E+02
     11.033  0.1646E+01  0.1558E+01  0.1529E+02  0.1530E+02
     11.228  0.1810E+01  0.1525E+01  0.1565E+02  0.1560E+02
     11.424  0.1078E+01  0.1115E+01  0.1586E+02  0.1582E+02
     11.619  0.6620E+00  0.8624E+00  0.1599E+02  0.1599E+02
     11.815  0.3680E-01  0.6848E-01  0.1600E+02  0.1600E+02
     12.010  0.0000E+00  0.0000E+00  0.1600E+02  0.1600E+02
     12.206  0.0000E+00  0.0000E+00  0.1600E+02  0.1600E+02
     12.402  0.0000E+00  0.0000E+00  0.1600E+02  0.1600E+02
     12.597  0.0000E+00  0.0000E+00  0.1600E+02  0.1600E+02
     12.793  0.0000E+00  0.0000E+00  0.1600E+02  0.1600E+02
     12.988  0.0000E+00  0.0000E+00  0.1600E+02  0.1600E+02
     13.184  0.0000E+00  0.0000E+00  0.1600E+02  0.1600E+02
     13.379  0.0000E+00  0.0000E+00  0.1600E+02  0.1600E+02
     13.575  0.0000E+00  0.0000E+00  0.1600E+02  0.1600E+02
     13.771  0.0000E+00  0.0000E+00  0.1600E+02  0.1600E+02
     13.966  0.0000E+00  0.0000E+00  0.1600E+02  0.1600E+02
     14.162  0.0000E+00  0.0000E+00  0.1600E+02  0.1600E+02
     14.16176112    -44.51039894  301      7.24970914      1.00000000
    -44.510  0.0000E+00  0.0000E+00  0.0000E+00  0.0000E+00  0.0000E+00  0.0000E+00  0.0000E+00  0.0000E+00  0.0000E+00  0.0000E+00  0.0000E+00  0.0000E+00  0.0000E+00  0.0000E+00  0.0000E+00  0.0000E+00  0.0000E+00  0.0000E+00
    -44.315  0.0000E+00  0.0000E+00  0.0000E+00  0.0000E+00  0.0000E+00  0.0000E+00  0.0000E+00  0.0000E+00  0.0000E+00  0.0000E+00  0.0000E+00  0.0000E+00  0.0000E+00  0.0000E+00  0.0000E+00  0.0000E+00  0.0000E+00  0.0000E+00
    -44.119  0.0000E+00  0.0000E+00  0.0000E+00  0.0000E+00  0.0000E+00  0.0000E+00  0.0000E+00  0.0000E+00  0.0000E+00  0.0000E+00  0.0000E+00  0.0000E+00  0.0000E+00  0.0000E+00  0.0000E+00  0.0000E+00  0.0000E+00  0.0000E+00
    -43.924  0.0000E+00  0.0000E+00  0.0000E+00  0.0000E+00  0.0000E+00  0.0000E+00  0.0000E+00  0.0000E+00  0.0000E+00  0.0000E+00  0.0000E+00  0.0000E+00  0.0000E+00  0.0000E+00  0.0000E+00  0.0000E+00  0.0000E+00  0.0000E+00
    -43.728  0.0000E+00  0.0000E+00  0.0000E+00  0.0000E+00  0.0000E+00  0.0000E+00  0.0000E+00  0.0000E+00  0.0000E+00  0.0000E+00  0.0000E+00  0.0000E+00  0.0000E+00  0.0000E+00  0.0000E+00  0.0000E+00  0.0000E+00  0.0000E+00
    -43.533  0.0000E+00  0.0000E+00  0.0000E+00  0.0000E+00  0.0000E+00  0.0000E+00  0.0000E+00  0.0000E+00  0.0000E+00  0.0000E+00  0.0000E+00  0.0000E+00  0.0000E+00  0.0000E+00  0.0000E+00  0.0000E+00  0.0000E+00  0.0000E+00
    -43.337  0.0000E+00  0.0000E+00  0.0000E+00  0.0000E+00  0.0000E+00  0.0000E+00  0.0000E+00  0.0000E+00  0.0000E+00  0.0000E+00  0.0000E+00  0.0000E+00  0.0000E+00  0.0000E+00  0.0000E+00  0.0000E+00  0.0000E+00  0.0000E+00
    -43.141  0.0000E+00  0.0000E+00  0.0000E+00  0.0000E+00  0.0000E+00  0.0000E+00  0.0000E+00  0.0000E+00  0.0000E+00  0.0000E+00  0.0000E+00  0.0000E+00  0.0000E+00  0.0000E+00  0.0000E+00  0.0000E+00  0.0000E+00  0.0000E+00
    -42.946  0.0000E+00  0.0000E+00  0.0000E+00  0.0000E+00  0.0000E+00  0.0000E+00  0.0000E+00  0.0000E+00  0.0000E+00  0.0000E+00  0.0000E+00  0.0000E+00  0.0000E+00  0.0000E+00  0.0000E+00  0.0000E+00  0.0000E+00  0.0000E+00
    -42.750  0.0000E+00  0.0000E+00  0.0000E+00  0.0000E+00  0.0000E+00  0.0000E+00  0.0000E+00  0.0000E+00  0.0000E+00  0.0000E+00  0.0000E+00  0.0000E+00  0.0000E+00  0.0000E+00  0.0000E+00  0.0000E+00  0.0000E+00  0.0000E+00
    -42.555  0.0000E+00  0.0000E+00  0.0000E+00  0.0000E+00  0.0000E+00  0.0000E+00  0.0000E+00  0.0000E+00  0.0000E+00  0.0000E+00  0.0000E+00  0.0000E+00  0.0000E+00  0.0000E+00  0.0000E+00  0.0000E+00  0.0000E+00  0.0000E+00
    -42.359  0.1626E-03  0.1642E-03  0.3949E-12  0.4017E-12  0.3949E-12  0.4017E-12  0.3949E-12  0.4017E-12  0.1534E-12  0.1270E-12  0.1534E-12  0.1270E-12  0.5022E-12  0.7238E-12  0.1534E-12  0.1270E-12  0.5022E-12  0.7238E-12
    -42.164  0.7949E-02  0.8028E-02  0.1931E-10  0.1964E-10  0.1931E-10  0.1964E-10  0.1931E-10  0.1964E-10  0.7499E-11  0.6210E-11  0.7499E-11  0.6210E-11  0.2455E-10  0.3539E-10  0.7499E-11  0.6210E-11  0.2455E-10  0.3539E-10
    -41.968  0.3679E+00  0.3713E+00  0.8936E-09  0.9083E-09  0.8936E-09  0.9083E-09  0.8936E-09  0.9083E-09  0.3472E-09  0.2872E-09  0.3472E-09  0.2872E-09  0.1136E-08  0.1637E-08  0.3472E-09  0.2872E-09  0.1136E-08  0.1637E-08
    -41.772  0.3695E+01  0.3699E+01  0.8969E-08  0.9046E-08  0.8969E-08  0.9046E-08  0.8969E-08  0.9046E-08  0.3496E-08  0.2862E-08  0.3496E-08  0.2862E-08  0.1140E-07  0.1630E-07  0.3496E-08  0.2862E-08  0.1140E-07  0.1630E-07
    -41.577  0.9965E+00  0.9887E+00  0.2417E-08  0.2416E-08  0.2417E-08  0.2416E-08  0.2417E-08  0.2416E-08  0.9459E-09  0.7648E-09  0.9459E-09  0.7648E-09  0.3072E-08  0.4353E-08  0.9459E-09  0.7648E-09  0.3072E-08  0.4353E-08
    -41.381  0.0000E+00  0.0000E+00  0.0000E+00  0.0000E+00  0.0000E+00  0.0000E+00  0.0000E+00  0.0000E+00  0.0000E+00  0.0000E+00  0.0000E+00  0.0000E+00  0.0000E+00  0.0000E+00  0.0000E+00  0.0000E+00  0.0000E+00  0.0000E+00
    -41.186  0.0000E+00  0.0000E+00  0.0000E+00  0.0000E+00  0.0000E+00  0.0000E+00  0.0000E+00  0.0000E+00  0.0000E+00  0.0000E+00  0.0000E+00  0.0000E+00  0.0000E+00  0.0000E+00  0.0000E+00  0.0000E+00  0.0000E+00  0.0000E+00
    -40.990  0.0000E+00  0.0000E+00  0.0000E+00  0.0000E+00  0.0000E+00  0.0000E+00  0.0000E+00  0.0000E+00  0.0000E+00  0.0000E+00  0.0000E+00  0.0000E+00  0.0000E+00  0.0000E+00  0.0000E+00  0.0000E+00  0.0000E+00  0.0000E+00
    -40.794  0.0000E+00  0.0000E+00  0.0000E+00  0.0000E+00  0.0000E+00  0.0000E+00  0.0000E+00  0.0000E+00  0.0000E+00  0.0000E+00  0.0000E+00  0.0000E+00  0.0000E+00  0.0000E+00  0.0000E+00  0.0000E+00  0.0000E+00  0.0000E+00
    -40.599  0.0000E+00  0.0000E+00  0.0000E+00  0.0000E+00  0.0000E+00  0.0000E+00  0.0000E+00  0.0000E+00  0.0000E+00  0.0000E+00  0.0000E+00  0.0000E+00  0.0000E+00  0.0000E+00  0.0000E+00  0.0000E+00  0.0000E+00  0.0000E+00
    -40.403  0.0000E+00  0.0000E+00  0.0000E+00  0.0000E+00  0.0000E+00  0.0000E+00  0.0000E+00  0.0000E+00  0.0000E+00  0.0000E+00  0.0000E+00  0.0000E+00  0.0000E+00  0.0000E+00  0.0000E+00  0.0000E+00  0.0000E+00  0.0000E+00
    -40.208  0.0000E+00  0.0000E+00  0.0000E+00  0.0000E+00  0.0000E+00  0.0000E+00  0.0000E+00  0.0000E+00  0.0000E+00  0.0000E+00  0.0000E+00  0.0000E+00  0.0000E+00  0.0000E+00  0.0000E+00  0.0000E+00  0.0000E+00  0.0000E+00
    -40.012  0.0000E+00  0.0000E+00  0.0000E+00  0.0000E+00  0.0000E+00  0.0000E+00  0.0000E+00  0.0000E+00  0.0000E+00  0.0000E+00  0.0000E+00  0.0000E+00  0.0000E+00  0.0000E+00  0.0000E+00  0.0000E+00  0.0000E+00  0.0000E+00
    -39.817  0.0000E+00  0.0000E+00  0.0000E+00  0.0000E+00  0.0000E+00  0.0000E+00  0.0000E+00  0.0000E+00  0.0000E+00  0.0000E+00  0.0000E+00  0.0000E+00  0.0000E+00  0.0000E+00  0.0000E+00  0.0000E+00  0.0000E+00  0.0000E+00
    -39.621  0.0000E+00  0.0000E+00  0.0000E+00  0.0000E+00  0.0000E+00  0.0000E+00  0.0000E+00  0.0000E+00  0.0000E+00  0.0000E+00  0.0000E+00  0.0000E+00  0.0000E+00  0.0000E+00  0.0000E+00  0.0000E+00  0.0000E+00  0.0000E+00
    -39.425  0.0000E+00  0.0000E+00  0.0000E+00  0.0000E+00  0.0000E+00  0.0000E+00  0.0000E+00  0.0000E+00  0.0000E+00  0.0000E+00  0.0000E+00  0.0000E+00  0.0000E+00  0.0000E+00  0.0000E+00  0.0000E+00  0.0000E+00  0.0000E+00
    -39.230  0.0000E+00  0.0000E+00  0.0000E+00  0.0000E+00  0.0000E+00  0.0000E+00  0.0000E+00  0.0000E+00  0.0000E+00  0.0000E+00  0.0000E+00  0.0000E+00  0.0000E+00  0.0000E+00  0.0000E+00  0.0000E+00  0.0000E+00  0.0000E+00
    -39.034  0.0000E+00  0.0000E+00  0.0000E+00  0.0000E+00  0.0000E+00  0.0000E+00  0.0000E+00  0.0000E+00  0.0000E+00  0.0000E+00  0.0000E+00  0.0000E+00  0.0000E+00  0.0000E+00  0.0000E+00  0.0000E+00  0.0000E+00  0.0000E+00
    -38.839  0.0000E+00  0.0000E+00  0.0000E+00  0.0000E+00  0.0000E+00  0.0000E+00  0.0000E+00  0.0000E+00  0.0000E+00  0.0000E+00  0.0000E+00  0.0000E+00  0.0000E+00  0.0000E+00  0.0000E+00  0.0000E+00  0.0000E+00  0.0000E+00
    -38.643  0.0000E+00  0.0000E+00  0.0000E+00  0.0000E+00  0.0000E+00  0.0000E+00  0.0000E+00  0.0000E+00  0.0000E+00  0.0000E+00  0.0000E+00  0.0000E+00  0.0000E+00  0.0000E+00  0.0000E+00  0.0000E+00  0.0000E+00  0.0000E+00
    -38.448  0.0000E+00  0.0000E+00  0.0000E+00  0.0000E+00  0.0000E+00  0.0000E+00  0.0000E+00  0.0000E+00  0.0000E+00  0.0000E+00  0.0000E+00  0.0000E+00  0.0000E+00  0.0000E+00  0.0000E+00  0.0000E+00  0.0000E+00  0.0000E+00
    -38.252  0.0000E+00  0.0000E+00  0.0000E+00  0.0000E+00  0.0000E+00  0.0000E+00  0.0000E+00  0.0000E+00  0.0000E+00  0.0000E+00  0.0000E+00  0.0000E+00  0.0000E+00  0.0000E+00  0.0000E+00  0.0000E+00  0.0000E+00  0.0000E+00
    -38.056  0.0000E+00  0.0000E+00  0.0000E+00  0.0000E+00  0.0000E+00  0.0000E+00  0.0000E+00  0.0000E+00  0.0000E+00  0.0000E+00  0.0000E+00  0.0000E+00  0.0000E+00  0.0000E+00  0.0000E+00  0.0000E+00  0.0000E+00  0.0000E+00
    -37.861  0.0000E+00  0.0000E+00  0.0000E+00  0.0000E+00  0.0000E+00  0.0000E+00  0.0000E+00  0.0000E+00  0.0000E+00  0.0000E+00  0.0000E+00  0.0000E+00  0.0000E+00  0.0000E+00  0.0000E+00  0.0000E+00  0.0000E+00  0.0000E+00
    -37.665  0.0000E+00  0.0000E+00  0.0000E+00  0.0000E+00  0.0000E+00  0.0000E+00  0.0000E+00  0.0000E+00  0.0000E+00  0.0000E+00  0.0000E+00  0.0000E+00  0.0000E+00  0.0000E+00  0.0000E+00  0.0000E+00  0.0000E+00  0.0000E+00
    -37.470  0.0000E+00  0.0000E+00  0.0000E+00  0.0000E+00  0.0000E+00  0.0000E+00  0.0000E+00  0.0000E+00  0.0000E+00  0.0000E+00  0.0000E+00  0.0000E+00  0.0000E+00  0.0000E+00  0.0000E+00  0.0000E+00  0.0000E+00  0.0000E+00
    -37.274  0.0000E+00  0.0000E+00  0.0000E+00  0.0000E+00  0.0000E+00  0.0000E+00  0.0000E+00  0.0000E+00  0.0000E+00  0.0000E+00  0.0000E+00  0.0000E+00  0.0000E+00  0.0000E+00  0.0000E+00  0.0000E+00  0.0000E+00  0.0000E+00
    -37.079  0.0000E+00  0.0000E+00  0.0000E+00  0.0000E+00  0.0000E+00  0.0000E+00  0.0000E+00  0.0000E+00  0.0000E+00  0.0000E+00  0.0000E+00  0.0000E+00  0.0000E+00  0.0000E+00  0.0000E+00  0.0000E+00  0.0000E+00  0.0000E+00
    -36.883  0.0000E+00  0.0000E+00  0.0000E+00  0.0000E+00  0.0000E+00  0.0000E+00  0.0000E+00  0.0000E+00  0.0000E+00  0.0000E+00  0.0000E+00  0.0000E+00  0.0000E+00  0.0000E+00  0.0000E+00  0.0000E+00  0.0000E+00  0.0000E+00
    -36.687  0.0000E+00  0.0000E+00  0.0000E+00  0.0000E+00  0.0000E+00  0.0000E+00  0.0000E+00  0.0000E+00  0.0000E+00  0.0000E+00  0.0000E+00  0.0000E+00  0.0000E+00  0.0000E+00  0.0000E+00  0.0000E+00  0.0000E+00  0.0000E+00
    -36.492  0.0000E+00  0.0000E+00  0.0000E+00  0.0000E+00  0.0000E+00  0.0000E+00  0.0000E+00  0.0000E+00  0.0000E+00  0.0000E+00  0.0000E+00  0.0000E+00  0.0000E+00  0.0000E+00  0.0000E+00  0.0000E+00  0.0000E+00  0.0000E+00
    -36.296  0.0000E+00  0.0000E+00  0.0000E+00  0.0000E+00  0.0000E+00  0.0000E+00  0.0000E+00  0.0000E+00  0.0000E+00  0.0000E+00  0.0000E+00  0.0000E+00  0.0000E+00  0.0000E+00  0.0000E+00  0.0000E+00  0.0000E+00  0.0000E+00
    -36.101  0.0000E+00  0.0000E+00  0.0000E+00  0.0000E+00  0.0000E+00  0.0000E+00  0.0000E+00  0.0000E+00  0.0000E+00  0.0000E+00  0.0000E+00  0.0000E+00  0.0000E+00  0.0000E+00  0.0000E+00  0.0000E+00  0.0000E+00  0.0000E+00
    -35.905  0.0000E+00  0.0000E+00  0.0000E+00  0.0000E+00  0.0000E+00  0.0000E+00  0.0000E+00  0.0000E+00  0.0000E+00  0.0000E+00  0.0000E+00  0.0000E+00  0.0000E+00  0.0000E+00  0.0000E+00  0.0000E+00  0.0000E+00  0.0000E+00
    -35.710  0.0000E+00  0.0000E+00  0.0000E+00  0.0000E+00  0.0000E+00  0.0000E+00  0.0000E+00  0.0000E+00  0.0000E+00  0.0000E+00  0.0000E+00  0.0000E+00  0.0000E+00  0.0000E+00  0.0000E+00  0.0000E+00  0.0000E+00  0.0000E+00
    -35.514  0.0000E+00  0.0000E+00  0.0000E+00  0.0000E+00  0.0000E+00  0.0000E+00  0.0000E+00  0.0000E+00  0.0000E+00  0.0000E+00  0.0000E+00  0.0000E+00  0.0000E+00  0.0000E+00  0.0000E+00  0.0000E+00  0.0000E+00  0.0000E+00
    -35.318  0.0000E+00  0.0000E+00  0.0000E+00  0.0000E+00  0.0000E+00  0.0000E+00  0.0000E+00  0.0000E+00  0.0000E+00  0.0000E+00  0.0000E+00  0.0000E+00  0.0000E+00  0.0000E+00  0.0000E+00  0.0000E+00  0.0000E+00  0.0000E+00
    -35.123  0.0000E+00  0.0000E+00  0.0000E+00  0.0000E+00  0.0000E+00  0.0000E+00  0.0000E+00  0.0000E+00  0.0000E+00  0.0000E+00  0.0000E+00  0.0000E+00  0.0000E+00  0.0000E+00  0.0000E+00  0.0000E+00  0.0000E+00  0.0000E+00
    -34.927  0.0000E+00  0.0000E+00  0.0000E+00  0.0000E+00  0.0000E+00  0.0000E+00  0.0000E+00  0.0000E+00  0.0000E+00  0.0000E+00  0.0000E+00  0.0000E+00  0.0000E+00  0.0000E+00  0.0000E+00  0.0000E+00  0.0000E+00  0.0000E+00
    -34.732  0.0000E+00  0.0000E+00  0.0000E+00  0.0000E+00  0.0000E+00  0.0000E+00  0.0000E+00  0.0000E+00  0.0000E+00  0.0000E+00  0.0000E+00  0.0000E+00  0.0000E+00  0.0000E+00  0.0000E+00  0.0000E+00  0.0000E+00  0.0000E+00