   4   4   1   0
  0.1531545E+02  0.3942120E-09  0.3942120E-09  0.3942120E-09  0.5000000E-15
  1.000000000000000E-004
  CAR 
 unknown system                          
     15.90163477    -42.96810303  301      8.38401943      1.00000000
    -42.968  0.0000E+00  0.0000E+00  0.0000E+00  0.0000E+00
    -42.772  0.0000E+00  0.0000E+00  0.0000E+00  0.0000E+00
    -42.576  0.0000E+00  0.0000E+00  0.0000E+00  0.0000E+00
    -42.379  0.0000E+00  0.0000E+00  0.0000E+00  0.0000E+00
    -42.183  0.0000E+00  0.0000E+00  0.0000E+00  0.0000E+00
    -41.987  0.0000E+00  0.0000E+00  0.0000E+00  0.0000E+00
    -41.791  0.0000E+00  0.0000E+00  0.0000E+00  0.0000E+00
    -41.594  0.0000E+00  0.0000E+00  0.0000E+00  0.0000E+00
    -41.398  0.0000E+00  0.0000E+00  0.0000E+00  0.0000E+00
    -41.202  0.0000E+00  0.0000E+00  0.0000E+00  0.0000E+00
    -41.006  0.0000E+00  0.0000E+00  0.0000E+00  0.0000E+00
    -40.810  0.1506E-03  0.1540E-03  0.2955E-04  0.3022E-04
    -40.613  0.7463E-02  0.7631E-02  0.1494E-02  0.1528E-02
    -40.417  0.3513E+00  0.3586E+00  0.7042E-01  0.7190E-01
    -40.221  0.3683E+01  0.3694E+01  0.7931E+00  0.7968E+00
    -40.025  0.1028E+01  0.1010E+01  0.9949E+00  0.9950E+00
    -39.828  0.0000E+00  0.0000E+00  0.1000E+01  0.1000E+01
    -39.632  0.0000E+00  0.0000E+00  0.1000E+01  0.1000E+01
    -39.436  0.0000E+00  0.0000E+00  0.1000E+01  0.1000E+01
    -39.240  0.0000E+00  0.0000E+00  0.1000E+01  0.1000E+01
    -39.043  0.0000E+00  0.0000E+00  0.1000E+01  0.1000E+01
    -38.847  0.0000E+00  0.0000E+00  0.1000E+01  0.1000E+01
    -38.651  0.0000E+00  0.0000E+00  0.1000E+01  0.1000E+01
    -38.455  0.0000E+00  0.0000E+00  0.1000E+01  0.1000E+01
    -38.259  0.0000E+00  0.0000E+00  0.1000E+01  0.1000E+01
    -38.062  0.0000E+00  0.0000E+00  0.1000E+01  0.1000E+01
    -37.866  0.0000E+00  0.0000E+00  0.1000E+01  0.1000E+01
    -37.670  0.0000E+00  0.0000E+00  0.1000E+01  0.1000E+01
    -37.474  0.0000E+00  0.0000E+00  0.1000E+01  0.1000E+01
    -37.277  0.0000E+00  0.0000E+00  0.1000E+01  0.1000E+01
    -37.081  0.0000E+00  0.0000E+00  0.1000E+01  0.1000E+01
    -36.885  0.0000E+00  0.0000E+00  0.1000E+01  0.1000E+01
    -36.689  0.0000E+00  0.0000E+00  0.1000E+01  0.1000E+01
    -36.492  0.0000E+00  0.0000E+00  0.1000E+01  0.1000E+01
    -36.296  0.0000E+00  0.0000E+00  0.1000E+01  0.1000E+01
    -36.100  0.0000E+00  0.0000E+00  0.1000E+01  0.1000E+01
    -35.904  0.0000E+00  0.0000E+00  0.1000E+01  0.1000E+01
    -35.708  0.0000E+00  0.0000E+00  0.1000E+01  0.1000E+01
    -35.511  0.0000E+00  0.0000E+00  0.1000E+01  0.1000E+01
    -35.315  0.0000E+00  0.0000E+00  0.1000E+01  0.1000E+01
    -35.119  0.0000E+00  0.0000E+00  0.1000E+01  0.1000E+01
    -34.923  0.0000E+00  0.0000E+00  0.1000E+01  0.1000E+01
    -34.726  0.0000E+00  0.0000E+00  0.1000E+01  0.1000E+01
    -34.530  0.0000E+00  0.0000E+00  0.1000E+01  0.1000E+01
    -34.334  0.0000E+00  0.0000E+00  0.1000E+01  0.1000E+01
    -34.138  0.0000E+00  0.0000E+00  0.1000E+01  0.1000E+01
    -33.941  0.0000E+00  0.0000E+00  0.1000E+01  0.1000E+01
    -33.745  0.0000E+00  0.0000E+00  0.1000E+01  0.1000E+01
    -33.549  0.0000E+00  0.0000E+00  0.1000E+01  0.1000E+01
    -33.353  0.0000E+00  0.0000E+00  0.1000E+01  0.1000E+01
    -33.156  0.0000E+00  0.0000E+00  0.1000E+01  0.1000E+01
    -32.960  0.0000E+00  0.0000E+00  0.1000E+01  0.1000E+01
    -32.764  0.0000E+00  0.0000E+00  0.1000E+01  0.1000E+01
    -32.568  0.0000E+00  0.0000E+00  0.1000E+01  0.1000E+01
    -32.372  0.0000E+00  0.0000E+00  0.1000E+01  0.1000E+01
    -32.175  0.0000E+00  0.0000E+00  0.1000E+01  0.1000E+01
    -31.979  0.0000E+00  0.0000E+00  0.1000E+01  0.1000E+01
    -31.783  0.0000E+00  0.0000E+00  0.1000E+01  0.1000E+01
    -31.587  0.0000E+00  0.0000E+00  0.1000E+01  0.1000E+01
    -31.390  0.0000E+00  0.0000E+00  0.1000E+01  0.1000E+01
    -31.194  0.0000E+00  0.0000E+00  0.1000E+01  0.1000E+01
    -30.998  0.0000E+00  0.0000E+00  0.1000E+01  0.1000E+01
    -30.802  0.0000E+00  0.0000E+00  0.1000E+01  0.1000E+01
    -30.605  0.0000E+00  0.0000E+00  0.1000E+01  0.1000E+01
    -30.409  0.0000E+00  0.0000E+00  0.1000E+01  0.1000E+01
    -30.213  0.0000E+00  0.0000E+00  0.1000E+01  0.1000E+01
    -30.017  0.0000E+00  0.0000E+00  0.1000E+01  0.1000E+01
    -29.821  0.0000E+00  0.0000E+00  0.1000E+01  0.1000E+01
    -29.624  0.0000E+00  0.0000E+00  0.1000E+01  0.1000E+01
    -29.428  0.0000E+00  0.0000E+00  0.1000E+01  0.1000E+01
    -29.232  0.0000E+00  0.0000E+00  0.1000E+01  0.1000E+01
    -29.036  0.0000E+00  0.0000E+00  0.1000E+01  0.1000E+01
    -28.839  0.0000E+00  0.0000E+00  0.1000E+01  0.1000E+01
    -28.643  0.0000E+00  0.0000E+00  0.1000E+01  0.1000E+01
    -28.447  0.0000E+00  0.0000E+00  0.1000E+01  0.1000E+01
    -28.251  0.0000E+00  0.0000E+00  0.1000E+01  0.1000E+01
    -28.054  0.0000E+00  0.0000E+00  0.1000E+01  0.1000E+01
    -27.858  0.0000E+00  0.0000E+00  0.1000E+01  0.1000E+01
    -27.662  0.0000E+00  0.0000E+00  0.1000E+01  0.1000E+01
    -27.466  0.0000E+00  0.0000E+00  0.1000E+01  0.1000E+01
    -27.270  0.0000E+00  0.0000E+00  0.1000E+01  0.1000E+01
    -27.073  0.0000E+00  0.0000E+00  0.1000E+01  0.1000E+01
    -26.877  0.0000E+00  0.0000E+00  0.1000E+01  0.1000E+01
    -26.681  0.0000E+00  0.0000E+00  0.1000E+01  0.1000E+01
    -26.485  0.0000E+00  0.0000E+00  0.1000E+01  0.1000E+01
    -26.288  0.0000E+00  0.0000E+00  0.1000E+01  0.1000E+01
    -26.092  0.0000E+00  0.0000E+00  0.1000E+01  0.1000E+01
    -25.896  0.0000E+00  0.0000E+00  0.1000E+01  0.1000E+01
    -25.700  0.0000E+00  0.0000E+00  0.1000E+01  0.1000E+01
    -25.503  0.0000E+00  0.0000E+00  0.1000E+01  0.1000E+01
    -25.307  0.0000E+00  0.0000E+00  0.1000E+01  0.1000E+01
    -25.111  0.0000E+00  0.0000E+00  0.1000E+01  0.1000E+01
    -24.915  0.0000E+00  0.0000E+00  0.1000E+01  0.1000E+01
    -24.718  0.0000E+00  0.0000E+00  0.1000E+01  0.1000E+01
    -24.522  0.0000E+00  0.0000E+00  0.1000E+01  0.1000E+01
    -24.326  0.0000E+00  0.0000E+00  0.1000E+01  0.1000E+01
    -24.130  0.0000E+00  0.0000E+00  0.1000E+01  0.1000E+01
    -23.934  0.0000E+00  0.0000E+00  0.1000E+01  0.1000E+01
    -23.737  0.0000E+00  0.0000E+00  0.1000E+01  0.1000E+01
    -23.541  0.0000E+00  0.0000E+00  0.1000E+01  0.1000E+01
    -23.345  0.0000E+00  0.0000E+00  0.1000E+01  0.1000E+01
    -23.149  0.0000E+00  0.0000E+00  0.1000E+01  0.1000E+01
    -22.952  0.0000E+00  0.0000E+00  0.1000E+01  0.1000E+01
    -22.756  0.0000E+00  0.0000E+00  0.1000E+01  0.1000E+01
    -22.560  0.0000E+00  0.0000E+00  0.1000E+01  0.1000E+01
    -22.364  0.0000E+00  0.0000E+00  0.1000E+01  0.1000E+01
    -22.167  0.0000E+00  0.0000E+00  0.1000E+01  0.1000E+01
    -21.971  0.0000E+00  0.0000E+00  0.1000E+01  0.1000E+01
    -21.775  0.0000E+00  0.0000E+00  0.1000E+01  0.1000E+01
    -21.579  0.0000E+00  0.0000E+00  0.1000E+01  0.1000E+01
    -21.383  0.0000E+00  0.0000E+00  0.1000E+01  0.1000E+01
    -21.186  0.0000E+00  0.0000E+00  0.1000E+01  0.1000E+01
    -20.990  0.0000E+00  0.0000E+00  0.1000E+01  0.1000E+01
    -20.794  0.0000E+00  0.0000E+00  0.1000E+01  0.1000E+01
    -20.598  0.0000E+00  0.0000E+00  0.1000E+01  0.1000E+01
    -20.401  0.0000E+00  0.0000E+00  0.1000E+01  0.1000E+01
    -20.205  0.0000E+00  0.0000E+00  0.1000E+01  0.1000E+01
    -20.009  0.0000E+00  0.0000E+00  0.1000E+01  0.1000E+01
    -19.813  0.0000E+00  0.0000E+00  0.1000E+01  0.1000E+01
    -19.616  0.2494E-03  0.2595E-03  0.1000E+01  0.1000E+01
    -19.420  0.1237E-01  0.1287E-01  0.1002E+01  0.1003E+01
    -19.224  0.5981E+00  0.6212E+00  0.1120E+01  0.1124E+01
    -19.028  0.9484E+01  0.9592E+01  0.2981E+01  0.3007E+01
    -18.832  0.5033E+01  0.4907E+01  0.3969E+01  0.3970E+01
    -18.635  0.0000E+00  0.0000E+00  0.4000E+01  0.4000E+01
    -18.439  0.0000E+00  0.0000E+00  0.4000E+01  0.4000E+01
    -18.243  0.0000E+00  0.0000E+00  0.4000E+01  0.4000E+01
    -18.047  0.0000E+00  0.0000E+00  0.4000E+01  0.4000E+01
    -17.850  0.0000E+00  0.0000E+00  0.4000E+01  0.4000E+01
    -17.654  0.0000E+00  0.0000E+00  0.4000E+01  0.4000E+01
    -17.458  0.0000E+00  0.0000E+00  0.4000E+01  0.4000E+01
    -17.262  0.0000E+00  0.0000E+00  0.4000E+01  0.4000E+01
    -17.065  0.0000E+00  0.0000E+00  0.4000E+01  0.4000E+01
    -16.869  0.0000E+00  0.0000E+00  0.4000E+01  0.4000E+01
    -16.673  0.0000E+00  0.0000E+00  0.4000E+01  0.4000E+01
    -16.477  0.0000E+00  0.0000E+00  0.4000E+01  0.4000E+01
    -16.280  0.0000E+00  0.0000E+00  0.4000E+01  0.4000E+01
    -16.084  0.0000E+00  0.0000E+00  0.4000E+01  0.4000E+01
    -15.888  0.0000E+00  0.0000E+00  0.4000E+01  0.4000E+01
    -15.692  0.0000E+00  0.0000E+00  0.4000E+01  0.4000E+01
    -15.496  0.0000E+00  0.0000E+00  0.4000E+01  0.4000E+01
    -15.299  0.0000E+00  0.0000E+00  0.4000E+01  0.4000E+01
    -15.103  0.0000E+00  0.0000E+00  0.4000E+01  0.4000E+01
    -14.907  0.0000E+00  0.0000E+00  0.4000E+01  0.4000E+01
    -14.711  0.0000E+00  0.0000E+00  0.4000E+01  0.4000E+01
    -14.514  0.0000E+00  0.0000E+00  0.4000E+01  0.4000E+01
    -14.318  0.0000E+00  0.0000E+00  0.4000E+01  0.4000E+01
    -14.122  0.0000E+00  0.0000E+00  0.4000E+01  0.4000E+01
    -13.926  0.0000E+00  0.0000E+00  0.4000E+01  0.4000E+01
    -13.729  0.0000E+00  0.0000E+00  0.4000E+01  0.4000E+01
    -13.533  0.0000E+00  0.0000E+00  0.4000E+01  0.4000E+01
    -13.337  0.0000E+00  0.0000E+00  0.4000E+01  0.4000E+01
    -13.141  0.0000E+00  0.0000E+00  0.4000E+01  0.4000E+01
    -12.945  0.0000E+00  0.0000E+00  0.4000E+01  0.4000E+01
    -12.748  0.0000E+00  0.0000E+00  0.4000E+01  0.4000E+01
    -12.552  0.0000E+00  0.0000E+00  0.4000E+01  0.4000E+01
    -12.356  0.0000E+00  0.0000E+00  0.4000E+01  0.4000E+01
    -12.160  0.0000E+00  0.0000E+00  0.4000E+01  0.4000E+01
    -11.963  0.0000E+00  0.0000E+00  0.4000E+01  0.4000E+01
    -11.767  0.0000E+00  0.0000E+00  0.4000E+01  0.4000E+01
    -11.571  0.0000E+00  0.0000E+00  0.4000E+01  0.4000E+01
    -11.375  0.0000E+00  0.0000E+00  0.4000E+01  0.4000E+01
    -11.178  0.0000E+00  0.0000E+00  0.4000E+01  0.4000E+01
    -10.982  0.0000E+00  0.0000E+00  0.4000E+01  0.4000E+01
    -10.786  0.0000E+00  0.0000E+00  0.4000E+01  0.4000E+01
    -10.590  0.0000E+00  0.0000E+00  0.4000E+01  0.4000E+01
    -10.394  0.0000E+00  0.0000E+00  0.4000E+01  0.4000E+01
    -10.197  0.0000E+00  0.0000E+00  0.4000E+01  0.4000E+01
    -10.001  0.0000E+00  0.0000E+00  0.4000E+01  0.4000E+01
     -9.805  0.0000E+00  0.0000E+00  0.4000E+01  0.4000E+01
     -9.609  0.0000E+00  0.0000E+00  0.4000E+01  0.4000E+01
     -9.412  0.0000E+00  0.0000E+00  0.4000E+01  0.4000E+01
     -9.216  0.0000E+00  0.0000E+00  0.4000E+01  0.4000E+01
     -9.020  0.0000E+00  0.0000E+00  0.4000E+01  0.4000E+01
     -8.824  0.0000E+00  0.0000E+00  0.4000E+01  0.4000E+01
     -8.627  0.0000E+00  0.0000E+00  0.4000E+01  0.4000E+01
     -8.431  0.0000E+00  0.0000E+00  0.4000E+01  0.4000E+01
     -8.235  0.0000E+00  0.0000E+00  0.4000E+01  0.4000E+01
     -8.039  0.0000E+00  0.0000E+00  0.4000E+01  0.4000E+01
     -7.842  0.0000E+00  0.0000E+00  0.4000E+01  0.4000E+01
     -7.646  0.0000E+00  0.0000E+00  0.4000E+01  0.4000E+01
     -7.450  0.0000E+00  0.0000E+00  0.4000E+01  0.4000E+01
     -7.254  0.0000E+00  0.0000E+00  0.4000E+01  0.4000E+01
     -7.058  0.0000E+00  0.0000E+00  0.4000E+01  0.4000E+01
     -6.861  0.0000E+00  0.0000E+00  0.4000E+01  0.4000E+01
     -6.665  0.0000E+00  0.0000E+00  0.4000E+01  0.4000E+01
     -6.469  0.0000E+00  0.0000E+00  0.4000E+01  0.4000E+01
     -6.273  0.0000E+00  0.0000E+00  0.4000E+01  0.4000E+01
     -6.076  0.0000E+00  0.0000E+00  0.4000E+01  0.4000E+01
     -5.880  0.0000E+00  0.0000E+00  0.4000E+01  0.4000E+01
     -5.684  0.0000E+00  0.0000E+00  0.4000E+01  0.4000E+01
     -5.488  0.0000E+00  0.0000E+00  0.4000E+01  0.4000E+01
     -5.291  0.0000E+00  0.0000E+00  0.4000E+01  0.4000E+01
     -5.095  0.0000E+00  0.0000E+00  0.4000E+01  0.4000E+01
     -4.899  0.0000E+00  0.0000E+00  0.4000E+01  0.4000E+01
     -4.703  0.0000E+00  0.0000E+00  0.4000E+01  0.4000E+01
     -4.507  0.0000E+00  0.0000E+00  0.4000E+01  0.4000E+01
     -4.310  0.0000E+00  0.0000E+00  0.4000E+01  0.4000E+01
     -4.114  0.0000E+00  0.0000E+00  0.4000E+01  0.4000E+01
     -3.918  0.0000E+00  0.0000E+00  0.4000E+01  0.4000E+01
     -3.722  0.0000E+00  0.0000E+00  0.4000E+01  0.4000E+01
     -3.525  0.0000E+00  0.0000E+00  0.4000E+01  0.4000E+01
     -3.329  0.0000E+00  0.0000E+00  0.4000E+01  0.4000E+01
     -3.133  0.0000E+00  0.0000E+00  0.4000E+01  0.4000E+01
     -2.937  0.0000E+00  0.0000E+00  0.4000E+01  0.4000E+01
     -2.740  0.0000E+00  0.0000E+00  0.4000E+01  0.4000E+01
     -2.544  0.3108E-04  0.2960E-04  0.4000E+01  0.4000E+01
     -2.348  0.1530E-02  0.1458E-02  0.4000E+01  0.4000E+01
     -2.152  0.5448E-01  0.5266E-01  0.4011E+01  0.4011E+01
     -1.956  0.1245E+00  0.1260E+00  0.4035E+01  0.4035E+01
     -1.759  0.1933E-01  0.1921E-01  0.4039E+01  0.4039E+01
     -1.563  0.2762E+00  0.2698E+00  0.4093E+01  0.4092E+01
     -1.367  0.2690E+00  0.2753E+00  0.4146E+01  0.4146E+01
     -1.171  0.5145E-01  0.5017E-01  0.4156E+01  0.4156E+01
     -0.974  0.4123E+00  0.4098E+00  0.4237E+01  0.4236E+01
     -0.778  0.1186E+00  0.1225E+00  0.4261E+01  0.4260E+01
     -0.582  0.2836E+00  0.2756E+00  0.4317E+01  0.4315E+01
     -0.386  0.4427E+00  0.4498E+00  0.4404E+01  0.4403E+01
     -0.189  0.1890E+00  0.1837E+00  0.4441E+01  0.4439E+01
      0.007  0.8490E+00  0.8508E+00  0.4607E+01  0.4606E+01
      0.203  0.1378E+00  0.1414E+00  0.4634E+01  0.4634E+01
      0.399  0.3809E+00  0.3767E+00  0.4710E+01  0.4709E+01
      0.596  0.2163E+00  0.2191E+00  0.4752E+01  0.4752E+01
      0.792  0.4264E+00  0.4258E+00  0.4837E+01  0.4836E+01
      0.988  0.9818E-01  0.1001E+00  0.4856E+01  0.4856E+01
      1.184  0.5007E+00  0.4899E+00  0.4955E+01  0.4952E+01
      1.380  0.5789E+00  0.5891E+00  0.5068E+01  0.5068E+01
      1.577  0.8162E-01  0.8013E-01  0.5085E+01  0.5085E+01
      1.773  0.7750E+00  0.7664E+00  0.5238E+01  0.5235E+01
      1.969  0.3649E+00  0.3737E+00  0.5309E+01  0.5309E+01
      2.165  0.3393E+00  0.3343E+00  0.5377E+01  0.5376E+01
      2.362  0.3468E+00  0.3522E+00  0.5445E+01  0.5445E+01
      2.558  0.4594E+00  0.4502E+00  0.5536E+01  0.5534E+01
      2.754  0.6497E+00  0.6566E+00  0.5663E+01  0.5662E+01
      2.950  0.7161E+00  0.7043E+00  0.5805E+01  0.5802E+01
      3.147  0.9192E+00  0.9304E+00  0.5986E+01  0.5985E+01
      3.343  0.4072E+00  0.4021E+00  0.6066E+01  0.6065E+01
      3.539  0.8824E+00  0.8828E+00  0.6240E+01  0.6238E+01
      3.735  0.4808E+00  0.4906E+00  0.6336E+01  0.6335E+01
      3.931  0.1770E+00  0.1805E+00  0.6372E+01  0.6372E+01
      4.128  0.4923E+00  0.4778E+00  0.6470E+01  0.6467E+01
      4.324  0.1401E+01  0.1407E+01  0.6745E+01  0.6743E+01
      4.520  0.5976E+00  0.6011E+00  0.6862E+01  0.6861E+01
      4.716  0.1655E+00  0.1689E+00  0.6895E+01  0.6895E+01
      4.913  0.7046E+00  0.6913E+00  0.7034E+01  0.7031E+01
      5.109  0.7674E+00  0.7787E+00  0.7185E+01  0.7184E+01
      5.305  0.4879E+00  0.4852E+00  0.7283E+01  0.7282E+01
      5.501  0.7527E+00  0.7479E+00  0.7431E+01  0.7429E+01
      5.698  0.7179E+00  0.7143E+00  0.7572E+01  0.7569E+01
      5.894  0.2300E+01  0.2289E+01  0.8025E+01  0.8020E+01
      6.090  0.1131E+01  0.1149E+01  0.8247E+01  0.8246E+01
      6.286  0.4854E+00  0.4874E+00  0.8344E+01  0.8343E+01
      6.482  0.1319E+01  0.1304E+01  0.8603E+01  0.8599E+01
      6.679  0.1379E+01  0.1392E+01  0.8874E+01  0.8873E+01
      6.875  0.6275E+00  0.6249E+00  0.9000E+01  0.8998E+01
      7.071  0.1377E+01  0.1370E+01  0.9270E+01  0.9268E+01
      7.267  0.9478E+00  0.9572E+00  0.9457E+01  0.9456E+01
      7.464  0.1768E+00  0.1789E+00  0.9494E+01  0.9494E+01
      7.660  0.4610E+00  0.4602E+00  0.9585E+01  0.9585E+01
      7.856  0.7376E+00  0.7338E+00  0.9730E+01  0.9729E+01
      8.052  0.4823E+00  0.4870E+00  0.9825E+01  0.9825E+01
      8.249  0.4627E+00  0.4618E+00  0.9918E+01  0.9918E+01
      8.445  0.7738E+00  0.7687E+00  0.1007E+02  0.1007E+02
      8.641  0.7885E+00  0.7916E+00  0.1023E+02  0.1022E+02
      8.837  0.4569E+00  0.4571E+00  0.1032E+02  0.1032E+02
      9.033  0.1156E+01  0.1155E+01  0.1055E+02  0.1054E+02
      9.230  0.2752E+00  0.2781E+00  0.1060E+02  0.1060E+02
      9.426  0.9962E+00  0.9885E+00  0.1080E+02  0.1079E+02
      9.622  0.1912E+01  0.1912E+01  0.1117E+02  0.1117E+02
      9.818  0.1135E+01  0.1140E+01  0.1140E+02  0.1140E+02
     10.015  0.9299E+00  0.9287E+00  0.1158E+02  0.1158E+02
     10.211  0.9139E+00  0.9175E+00  0.1176E+02  0.1176E+02
     10.407  0.8024E+00  0.8018E+00  0.1192E+02  0.1192E+02
     10.603  0.1759E+01  0.1758E+01  0.1226E+02  0.1226E+02
     10.800  0.2536E+01  0.2540E+01  0.1276E+02  0.1276E+02
     10.996  0.1543E+01  0.1544E+01  0.1307E+02  0.1307E+02
     11.192  0.1765E+01  0.1768E+01  0.1341E+02  0.1341E+02
     11.388  0.1190E+01  0.1182E+01  0.1365E+02  0.1365E+02
     11.585  0.6822E+00  0.6763E+00  0.1378E+02  0.1378E+02
     11.781  0.2162E+01  0.2149E+01  0.1421E+02  0.1420E+02
     11.977  0.2047E+01  0.2062E+01  0.1461E+02  0.1461E+02
     12.173  0.2741E+00  0.2791E+00  0.1467E+02  0.1467E+02
     12.369  0.1383E+00  0.1883E+00  0.1469E+02  0.1470E+02
     12.566  0.1952E+01  0.2124E+01  0.1508E+02  0.1512E+02
     12.762  0.1710E+01  0.1612E+01  0.1541E+02  0.1544E+02
     12.958  0.6954E+00  0.1322E+01  0.1555E+02  0.1570E+02
     13.154  0.1311E+01  0.7915E+00  0.1581E+02  0.1586E+02
     13.351  0.8990E+00  0.6657E+00  0.1599E+02  0.1599E+02
     13.547  0.5440E-01  0.5318E-01  0.1600E+02  0.1600E+02
     13.743  0.0000E+00  0.0000E+00  0.1600E+02  0.1600E+02
     13.939  0.0000E+00  0.0000E+00  0.1600E+02  0.1600E+02
     14.136  0.0000E+00  0.0000E+00  0.1600E+02  0.1600E+02
     14.332  0.0000E+00  0.0000E+00  0.1600E+02  0.1600E+02
     14.528  0.0000E+00  0.0000E+00  0.1600E+02  0.1600E+02
     14.724  0.0000E+00  0.0000E+00  0.1600E+02  0.1600E+02
     14.920  0.0000E+00  0.0000E+00  0.1600E+02  0.1600E+02
     15.117  0.0000E+00  0.0000E+00  0.1600E+02  0.1600E+02
     15.313  0.0000E+00  0.0000E+00  0.1600E+02  0.1600E+02
     15.509  0.0000E+00  0.0000E+00  0.1600E+02  0.1600E+02
     15.705  0.0000E+00  0.0000E+00  0.1600E+02  0.1600E+02
     15.902  0.0000E+00  0.0000E+00  0.1600E+02  0.1600E+02
     15.90163477    -42.96810303  301      8.38401943      1.00000000
    -42.968  0.0000E+00  0.0000E+00  0.0000E+00  0.0000E+00  0.0000E+00  0.0000E+00  0.0000E+00  0.0000E+00  0.0000E+00  0.0000E+00  0.0000E+00  0.0000E+00  0.0000E+00  0.0000E+00  0.0000E+00  0.0000E+00  0.0000E+00  0.0000E+00
    -42.772  0.0000E+00  0.0000E+00  0.0000E+00  0.0000E+00  0.0000E+00  0.0000E+00  0.0000E+00  0.0000E+00  0.0000E+00  0.0000E+00  0.0000E+00  0.0000E+00  0.0000E+00  0.0000E+00  0.0000E+00  0.0000E+00  0.0000E+00  0.0000E+00
    -42.576  0.0000E+00  0.0000E+00  0.0000E+00  0.0000E+00  0.0000E+00  0.0000E+00  0.0000E+00  0.0000E+00  0.0000E+00  0.0000E+00  0.0000E+00  0.0000E+00  0.0000E+00  0.0000E+00  0.0000E+00  0.0000E+00  0.0000E+00  0.0000E+00
    -42.379  0.0000E+00  0.0000E+00  0.0000E+00  0.0000E+00  0.0000E+00  0.0000E+00  0.0000E+00  0.0000E+00  0.0000E+00  0.0000E+00  0.0000E+00  0.0000E+00  0.0000E+00  0.0000E+00  0.0000E+00  0.0000E+00  0.0000E+00  0.0000E+00
    -42.183  0.0000E+00  0.0000E+00  0.0000E+00  0.0000E+00  0.0000E+00  0.0000E+00  0.0000E+00  0.0000E+00  0.0000E+00  0.0000E+00  0.0000E+00  0.0000E+00  0.0000E+00  0.0000E+00  0.0000E+00  0.0000E+00  0.0000E+00  0.0000E+00
    -41.987  0.0000E+00  0.0000E+00  0.0000E+00  0.0000E+00  0.0000E+00  0.0000E+00  0.0000E+00  0.0000E+00  0.0000E+00  0.0000E+00  0.0000E+00  0.0000E+00  0.0000E+00  0.0000E+00  0.0000E+00  0.0000E+00  0.0000E+00  0.0000E+00
    -41.791  0.0000E+00  0.0000E+00  0.0000E+00  0.0000E+00  0.0000E+00  0.0000E+00  0.0000E+00  0.0000E+00  0.0000E+00  0.0000E+00  0.0000E+00  0.0000E+00  0.0000E+00  0.0000E+00  0.0000E+00  0.0000E+00  0.0000E+00  0.0000E+00
    -41.594  0.0000E+00  0.0000E+00  0.0000E+00  0.0000E+00  0.0000E+00  0.0000E+00  0.0000E+00  0.0000E+00  0.0000E+00  0.0000E+00  0.0000E+00  0.0000E+00  0.0000E+00  0.0000E+00  0.0000E+00  0.0000E+00  0.0000E+00  0.0000E+00
    -41.398  0.0000E+00  0.0000E+00  0.0000E+00  0.0000E+00  0.0000E+00  0.0000E+00  0.0000E+00  0.0000E+00  0.0000E+00  0.0000E+00  0.0000E+00  0.0000E+00  0.0000E+00  0.0000E+00  0.0000E+00  0.0000E+00  0.0000E+00  0.0000E+00
    -41.202  0.0000E+00  0.0000E+00  0.0000E+00  0.0000E+00  0.0000E+00  0.0000E+00  0.0000E+00  0.0000E+00  0.0000E+00  0.0000E+00  0.0000E+00  0.0000E+00  0.0000E+00  0.0000E+00  0.0000E+00  0.0000E+00  0.0000E+00  0.0000E+00
    -41.006  0.0000E+00  0.0000E+00  0.0000E+00  0.0000E+00  0.0000E+00  0.0000E+00  0.0000E+00  0.0000E+00  0.0000E+00  0.0000E+00  0.0000E+00  0.0000E+00  0.0000E+00  0.0000E+00  0.0000E+00  0.0000E+00  0.0000E+00  0.0000E+00
    -40.810  0.1500E-03  0.1533E-03  0.1476E-11  0.1491E-11  0.1476E-11  0.1491E-11  0.1476E-11  0.1491E-11  0.3299E-13  0.7798E-13  0.3299E-13  0.7798E-13  0.1147E-11  0.7042E-12  0.3299E-13  0.7798E-13  0.1147E-11  0.7042E-12
    -40.613  0.7432E-02  0.7599E-02  0.7314E-10  0.7390E-10  0.7314E-10  0.7390E-10  0.7314E-10  0.7390E-10  0.1635E-11  0.3865E-11  0.1635E-11  0.3865E-11  0.5685E-10  0.3490E-10  0.1635E-11  0.3865E-11  0.5685E-10  0.3490E-10
    -40.417  0.3498E+00  0.3571E+00  0.3442E-08  0.3473E-08  0.3442E-08  0.3473E-08  0.3442E-08  0.3473E-08  0.7695E-10  0.1815E-09  0.7695E-10  0.1815E-09  0.2676E-08  0.1640E-08  0.7695E-10  0.1815E-09  0.2676E-08  0.1640E-08
    -40.221  0.3668E+01  0.3679E+01  0.3605E-07  0.3572E-07  0.3605E-07  0.3572E-07  0.3605E-07  0.3572E-07  0.8070E-09  0.1861E-08  0.8070E-09  0.1861E-08  0.2808E-07  0.1692E-07  0.8070E-09  0.1861E-08  0.2808E-07  0.1692E-07
    -40.025  0.1024E+01  0.1006E+01  0.1005E-07  0.9754E-08  0.1005E-07  0.9754E-08  0.1005E-07  0.9754E-08  0.2254E-09  0.5063E-09  0.2254E-09  0.5063E-09  0.7845E-08  0.4632E-08  0.2254E-09  0.5063E-09  0.7845E-08  0.4632E-08
    -39.828  0.0000E+00  0.0000E+00  0.0000E+00  0.0000E+00  0.0000E+00  0.0000E+00  0.0000E+00  0.0000E+00  0.0000E+00  0.0000E+00  0.0000E+00  0.0000E+00  0.0000E+00  0.0000E+00  0.0000E+00  0.0000E+00  0.0000E+00  0.0000E+00
    -39.632  0.0000E+00  0.0000E+00  0.0000E+00  0.0000E+00  0.0000E+00  0.0000E+00  0.0000E+00  0.0000E+00  0.0000E+00  0.0000E+00  0.0000E+00  0.0000E+00  0.0000E+00  0.0000E+00  0.0000E+00  0.0000E+00  0.0000E+00  0.0000E+00
    -39.436  0.0000E+00  0.0000E+00  0.0000E+00  0.0000E+00  0.0000E+00  0.0000E+00  0.0000E+00  0.0000E+00  0.0000E+00  0.0000E+00  0.0000E+00  0.0000E+00  0.0000E+00  0.0000E+00  0.0000E+00  0.0000E+00  0.0000E+00  0.0000E+00
    -39.240  0.0000E+00  0.0000E+00  0.0000E+00  0.0000E+00  0.0000E+00  0.0000E+00  0.0000E+00  0.0000E+00  0.0000E+00  0.0000E+00  0.0000E+00  0.0000E+00  0.0000E+00  0.0000E+00  0.0000E+00  0.0000E+00  0.0000E+00  0.0000E+00
    -39.043  0.0000E+00  0.0000E+00  0.0000E+00  0.0000E+00  0.0000E+00  0.0000E+00  0.0000E+00  0.0000E+00  0.0000E+00  0.0000E+00  0.0000E+00  0.0000E+00  0.0000E+00  0.0000E+00  0.0000E+00  0.0000E+00  0.0000E+00  0.0000E+00
    -38.847  0.0000E+00  0.0000E+00  0.0000E+00  0.0000E+00  0.0000E+00  0.0000E+00  0.0000E+00  0.0000E+00  0.0000E+00  0.0000E+00  0.0000E+00  0.0000E+00  0.0000E+00  0.0000E+00  0.0000E+00  0.0000E+00  0.0000E+00  0.0000E+00
    -38.651  0.0000E+00  0.0000E+00  0.0000E+00  0.0000E+00  0.0000E+00  0.0000E+00  0.0000E+00  0.0000E+00  0.0000E+00  0.0000E+00  0.0000E+00  0.0000E+00  0.0000E+00  0.0000E+00  0.0000E+00  0.0000E+00  0.0000E+00  0.0000E+00
    -38.455  0.0000E+00  0.0000E+00  0.0000E+00  0.0000E+00  0.0000E+00  0.0000E+00  0.0000E+00  0.0000E+00  0.0000E+00  0.0000E+00  0.0000E+00  0.0000E+00  0.0000E+00  0.0000E+00  0.0000E+00  0.0000E+00  0.0000E+00  0.0000E+00
    -38.259  0.0000E+00  0.0000E+00  0.0000E+00  0.0000E+00  0.0000E+00  0.0000E+00  0.0000E+00  0.0000E+00  0.0000E+00  0.0000E+00  0.0000E+00  0.0000E+00  0.0000E+00  0.0000E+00  0.0000E+00  0.0000E+00  0.0000E+00  0.0000E+00
    -38.062  0.0000E+00  0.0000E+00  0.0000E+00  0.0000E+00  0.0000E+00  0.0000E+00  0.0000E+00  0.0000E+00  0.0000E+00  0.0000E+00  0.0000E+00  0.0000E+00  0.0000E+00  0.0000E+00  0.0000E+00  0.0000E+00  0.0000E+00  0.0000E+00
    -37.866  0.0000E+00  0.0000E+00  0.0000E+00  0.0000E+00  0.0000E+00  0.0000E+00  0.0000E+00  0.0000E+00  0.0000E+00  0.0000E+00  0.0000E+00  0.0000E+00  0.0000E+00  0.0000E+00  0.0000E+00  0.0000E+00  0.0000E+00  0.0000E+00
    -37.670  0.0000E+00  0.0000E+00  0.0000E+00  0.0000E+00  0.0000E+00  0.0000E+00  0.0000E+00  0.0000E+00  0.0000E+00  0.0000E+00  0.0000E+00  0.0000E+00  0.0000E+00  0.0000E+00  0.0000E+00  0.0000E+00  0.0000E+00  0.0000E+00
    -37.474  0.0000E+00  0.0000E+00  0.0000E+00  0.0000E+00  0.0000E+00  0.0000E+00  0.0000E+00  0.0000E+00  0.0000E+00  0.0000E+00  0.0000E+00  0.0000E+00  0.0000E+00  0.0000E+00  0.0000E+00  0.0000E+00  0.0000E+00  0.0000E+00
    -37.277  0.0000E+00  0.0000E+00  0.0000E+00  0.0000E+00  0.0000E+00  0.0000E+00  0.0000E+00  0.0000E+00  0.0000E+00  0.0000E+00  0.0000E+00  0.0000E+00  0.0000E+00  0.0000E+00  0.0000E+00  0.0000E+00  0.0000E+00  0.0000E+00
    -37.081  0.0000E+00  0.0000E+00  0.0000E+00  0.0000E+00  0.0000E+00  0.0000E+00  0.0000E+00  0.0000E+00  0.0000E+00  0.0000E+00  0.0000E+00  0.0000E+00  0.0000E+00  0.0000E+00  0.0000E+00  0.0000E+00  0.0000E+00  0.0000E+00
    -36.885  0.0000E+00  0.0000E+00  0.0000E+00  0.0000E+00  0.0000E+00  0.0000E+00  0.0000E+00  0.0000E+00  0.0000E+00  0.0000E+00  0.0000E+00  0.0000E+00  0.0000E+00  0.0000E+00  0.0000E+00  0.0000E+00  0.0000E+00  0.0000E+00
    -36.689  0.0000E+00  0.0000E+00  0.0000E+00  0.0000E+00  0.0000E+00  0.0000E+00  0.0000E+00  0.0000E+00  0.0000E+00  0.0000E+00  0.0000E+00  0.0000E+00  0.0000E+00  0.0000E+00  0.0000E+00  0.0000E+00  0.0000E+00  0.0000E+00
    -36.492  0.0000E+00  0.0000E+00  0.0000E+00  0.0000E+00  0.0000E+00  0.0000E+00  0.0000E+00  0.0000E+00  0.0000E+00  0.0000E+00  0.0000E+00  0.0000E+00  0.0000E+00  0.0000E+00  0.0000E+00  0.0000E+00  0.0000E+00  0.0000E+00
    -36.296  0.0000E+00  0.0000E+00  0.0000E+00  0.0000E+00  0.0000E+00  0.0000E+00  0.0000E+00  0.0000E+00  0.0000E+00  0.0000E+00  0.0000E+00  0.0000E+00  0.0000E+00  0.0000E+00  0.0000E+00  0.0000E+00  0.0000E+00  0.0000E+00
    -36.100  0.0000E+00  0.0000E+00  0.0000E+00  0.0000E+00  0.0000E+00  0.0000E+00  0.0000E+00  0.0000E+00  0.0000E+00  0.0000E+00  0.0000E+00  0.0000E+00  0.0000E+00  0.0000E+00  0.0000E+00  0.0000E+00  0.0000E+00  0.0000E+00
    -35.904  0.0000E+00  0.0000E+00  0.0000E+00  0.0000E+00  0.0000E+00  0.0000E+00  0.0000E+00  0.0000E+00  0.0000E+00  0.0000E+00  0.0000E+00  0.0000E+00  0.0000E+00  0.0000E+00  0.0000E+00  0.0000E+00  0.0000E+00  0.0000E+00
    -35.708  0.0000E+00  0.0000E+00  0.0000E+00  0.0000E+00  0.0000E+00  0.0000E+00  0.0000E+00  0.0000E+00  0.0000E+00  0.0000E+00  0.0000E+00  0.0000E+00  0.0000E+00  0.0000E+00  0.0000E+00  0.0000E+00  0.0000E+00  0.0000E+00
    -35.511  0.0000E+00  0.0000E+00  0.0000E+00  0.0000E+00  0.0000E+00  0.0000E+00  0.0000E+00  0.0000E+00  0.0000E+00  0.0000E+00  0.0000E+00  0.0000E+00  0.0000E+00  0.0000E+00  0.0000E+00  0.0000E+00  0.0000E+00  0.0000E+00
    -35.315  0.0000E+00  0.0000E+00  0.0000E+00  0.0000E+00  0.0000E+00  0.0000E+00  0.0000E+00  0.0000E+00  0.0000E+00  0.0000E+00  0.0000E+00  0.0000E+00  0.0000E+00  0.0000E+00  0.0000E+00  0.0000E+00  0.0000E+00  0.0000E+00
    -35.119  0.0000E+00  0.0000E+00  0.0000E+00  0.0000E+00  0.0000E+00  0.0000E+00  0.0000E+00  0.0000E+00  0.0000E+00  0.0000E+00  0.0000E+00  0.0000E+00  0.0000E+00  0.0000E+00  0.0000E+00  0.0000E+00  0.0000E+00  0.0000E+00
    -34.923  0.0000E+00  0.0000E+00  0.0000E+00  0.0000E+00  0.0000E+00  0.0000E+00  0.0000E+00  0.0000E+00  0.0000E+00  0.0000E+00  0.0000E+00  0.0000E+00  0.0000E+00  0.0000E+00  0.0000E+00  0.0000E+00  0.0000E+00  0.0000E+00
    -34.726  0.0000E+00  0.0000E+00  0.0000E+00  0.0000E+00  0.0000E+00  0.0000E+00  0.0000E+00  0.0000E+00  0.0000E+00  0.0000E+00  0.0000E+00  0.0000E+00  0.0000E+00  0.0000E+00  0.0000E+00  0.0000E+00  0.0000E+00  0.0000E+00
    -34.530  0.0000E+00  0.0000E+00  0.0000E+00  0.0000E+00  0.0000E+00  0.0000E+00  0.0000E+00  0.0000E+00  0.0000E+00  0.0000E+00  0.0000E+00  0.0000E+00  0.0000E+00  0.0000E+00  0.0000E+00  0.0000E+00  0.0000E+00  0.0000E+00
    -34.334  0.0000E+00  0.0000E+00  0.0000E+00  0.0000E+00  0.0000E+00  0.0000E+00  0.0000E+00  0.0000E+00  0.0000E+00  0.0000E+00  0.0000E+00  0.0000E+00  0.0000E+00  0.0000E+00  0.0000E+00  0.0000E+00  0.0000E+00  0.0000E+00
    -34.138  0.0000E+00  0.0000E+00  0.0000E+00  0.0000E+00  0.0000E+00  0.0000E+00  0.0000E+00  0.0000E+00  0.0000E+00  0.0000E+00  0.0000E+00  0.0000E+00  0.0000E+00  0.0000E+00  0.0000E+00  0.0000E+00  0.0000E+00  0.0000E+00
    -33.941  0.0000E+00  0.0000E+00  0.0000E+00  0.0000E+00  0.0000E+00  0.0000E+00  0.0000E+00  0.0000E+00  0.0000E+00  0.0000E+00  0.0000E+00  0.0000E+00  0.0000E+00  0.0000E+00  0.0000E+00  0.0000E+00  0.0000E+00  0.0000E+00
    -33.745  0.0000E+00  0.0000E+00  0.0000E+00  0.0000E+00  0.0000E+00  0.0000E+00  0.0000E+00  0.0000E+00  0.0000E+00  0.0000E+00  0.0000E+00  0.0000E+00  0.0000E+00  0.0000E+00  0.0000E+00  0.0000E+00  0.0000E+00  0.0000E+00
    -33.549  0.0000E+00  0.0000E+00  0.0000E+00  0.0000E+00  0.0000E+00  0.0000E+00  0.0000E+00  0.0000E+00  0.0000E+00  0.0000E+00  0.0000E+00  0.0000E+00  0.0000E+00  0.0000E+00  0.0000E+00  0.0000E+00  0.0000E+00  0.0000E+00
    -33.353  0.0000E+00  0.0000E+00  0.0000E+00  0.0000E+00  0.0000E+00  0.0000E+00  0.0000E+00  0.0000E+00  0.0000E+00  0.0000E+00  0.0000E+00  0.0000E+00  0.0000E+00  0.0000E+00  0.0000E+00  0.0000E+00  0.0000E+00  0.0000E+00
    -33.156  0.0000E+00  0.0000E+00  0.0000E+00  0.0000E+00  0.0000E+00  0.0000E+00  0.0000E+00  0.0000E+00  0.0000E+00  0.0000E+00  0.0000E+00  0.0000E+00  0.0000E+00  0.0000E+00  0.0000E+00  0.0000E+00  0.0000E+00  0.0000E+00