   4   4   1   0
  0.1837031E+02  0.4188503E-09  0.4188503E-09  0.4188503E-09  0.5000000E-15
  1.000000000000000E-004
  CAR 
 unknown system                          
     13.31690498    -45.22676134  301      6.72719810      1.00000000
    -45.227  0.0000E+00  0.0000E+00  0.0000E+00  0.0000E+00
    -45.032  0.0000E+00  0.0000E+00  0.0000E+00  0.0000E+00
    -44.836  0.0000E+00  0.0000E+00  0.0000E+00  0.0000E+00
    -44.641  0.0000E+00  0.0000E+00  0.0000E+00  0.0000E+00
    -44.446  0.0000E+00  0.0000E+00  0.0000E+00  0.0000E+00
    -44.251  0.0000E+00  0.0000E+00  0.0000E+00  0.0000E+00
    -44.056  0.0000E+00  0.0000E+00  0.0000E+00  0.0000E+00
    -43.861  0.0000E+00  0.0000E+00  0.0000E+00  0.0000E+00
    -43.666  0.0000E+00  0.0000E+00  0.0000E+00  0.0000E+00
    -43.470  0.0000E+00  0.0000E+00  0.0000E+00  0.0000E+00
    -43.275  0.0000E+00  0.0000E+00  0.0000E+00  0.0000E+00
    -43.080  0.1693E-03  0.1705E-03  0.3304E-04  0.3327E-04
    -42.885  0.8205E-02  0.8263E-02  0.1634E-02  0.1646E-02
    -42.690  0.3760E+00  0.3785E+00  0.7502E-01  0.7551E-01
    -42.495  0.3719E+01  0.3722E+01  0.8007E+00  0.8018E+00
    -42.300  0.9956E+00  0.9900E+00  0.9950E+00  0.9950E+00
    -42.104  0.0000E+00  0.0000E+00  0.1000E+01  0.1000E+01
    -41.909  0.0000E+00  0.0000E+00  0.1000E+01  0.1000E+01
    -41.714  0.0000E+00  0.0000E+00  0.1000E+01  0.1000E+01
    -41.519  0.0000E+00  0.0000E+00  0.1000E+01  0.1000E+01
    -41.324  0.0000E+00  0.0000E+00  0.1000E+01  0.1000E+01
    -41.129  0.0000E+00  0.0000E+00  0.1000E+01  0.1000E+01
    -40.934  0.0000E+00  0.0000E+00  0.1000E+01  0.1000E+01
    -40.738  0.0000E+00  0.0000E+00  0.1000E+01  0.1000E+01
    -40.543  0.0000E+00  0.0000E+00  0.1000E+01  0.1000E+01
    -40.348  0.0000E+00  0.0000E+00  0.1000E+01  0.1000E+01
    -40.153  0.0000E+00  0.0000E+00  0.1000E+01  0.1000E+01
    -39.958  0.0000E+00  0.0000E+00  0.1000E+01  0.1000E+01
    -39.763  0.0000E+00  0.0000E+00  0.1000E+01  0.1000E+01
    -39.568  0.0000E+00  0.0000E+00  0.1000E+01  0.1000E+01
    -39.372  0.0000E+00  0.0000E+00  0.1000E+01  0.1000E+01
    -39.177  0.0000E+00  0.0000E+00  0.1000E+01  0.1000E+01
    -38.982  0.0000E+00  0.0000E+00  0.1000E+01  0.1000E+01
    -38.787  0.0000E+00  0.0000E+00  0.1000E+01  0.1000E+01
    -38.592  0.0000E+00  0.0000E+00  0.1000E+01  0.1000E+01
    -38.397  0.0000E+00  0.0000E+00  0.1000E+01  0.1000E+01
    -38.202  0.0000E+00  0.0000E+00  0.1000E+01  0.1000E+01
    -38.006  0.0000E+00  0.0000E+00  0.1000E+01  0.1000E+01
    -37.811  0.0000E+00  0.0000E+00  0.1000E+01  0.1000E+01
    -37.616  0.0000E+00  0.0000E+00  0.1000E+01  0.1000E+01
    -37.421  0.0000E+00  0.0000E+00  0.1000E+01  0.1000E+01
    -37.226  0.0000E+00  0.0000E+00  0.1000E+01  0.1000E+01
    -37.031  0.0000E+00  0.0000E+00  0.1000E+01  0.1000E+01
    -36.836  0.0000E+00  0.0000E+00  0.1000E+01  0.1000E+01
    -36.640  0.0000E+00  0.0000E+00  0.1000E+01  0.1000E+01
    -36.445  0.0000E+00  0.0000E+00  0.1000E+01  0.1000E+01
    -36.250  0.0000E+00  0.0000E+00  0.1000E+01  0.1000E+01
    -36.055  0.0000E+00  0.0000E+00  0.1000E+01  0.1000E+01
    -35.860  0.0000E+00  0.0000E+00  0.1000E+01  0.1000E+01
    -35.665  0.0000E+00  0.0000E+00  0.1000E+01  0.1000E+01
    -35.469  0.0000E+00  0.0000E+00  0.1000E+01  0.1000E+01
    -35.274  0.0000E+00  0.0000E+00  0.1000E+01  0.1000E+01
    -35.079  0.0000E+00  0.0000E+00  0.1000E+01  0.1000E+01
    -34.884  0.0000E+00  0.0000E+00  0.1000E+01  0.1000E+01
    -34.689  0.0000E+00  0.0000E+00  0.1000E+01  0.1000E+01
    -34.494  0.0000E+00  0.0000E+00  0.1000E+01  0.1000E+01
    -34.299  0.0000E+00  0.0000E+00  0.1000E+01  0.1000E+01
    -34.103  0.0000E+00  0.0000E+00  0.1000E+01  0.1000E+01
    -33.908  0.0000E+00  0.0000E+00  0.1000E+01  0.1000E+01
    -33.713  0.0000E+00  0.0000E+00  0.1000E+01  0.1000E+01
    -33.518  0.0000E+00  0.0000E+00  0.1000E+01  0.1000E+01
    -33.323  0.0000E+00  0.0000E+00  0.1000E+01  0.1000E+01
    -33.128  0.0000E+00  0.0000E+00  0.1000E+01  0.1000E+01
    -32.933  0.0000E+00  0.0000E+00  0.1000E+01  0.1000E+01
    -32.737  0.0000E+00  0.0000E+00  0.1000E+01  0.1000E+01
    -32.542  0.0000E+00  0.0000E+00  0.1000E+01  0.1000E+01
    -32.347  0.0000E+00  0.0000E+00  0.1000E+01  0.1000E+01
    -32.152  0.0000E+00  0.0000E+00  0.1000E+01  0.1000E+01
    -31.957  0.0000E+00  0.0000E+00  0.1000E+01  0.1000E+01
    -31.762  0.0000E+00  0.0000E+00  0.1000E+01  0.1000E+01
    -31.567  0.0000E+00  0.0000E+00  0.1000E+01  0.1000E+01
    -31.371  0.0000E+00  0.0000E+00  0.1000E+01  0.1000E+01
    -31.176  0.0000E+00  0.0000E+00  0.1000E+01  0.1000E+01
    -30.981  0.0000E+00  0.0000E+00  0.1000E+01  0.1000E+01
    -30.786  0.0000E+00  0.0000E+00  0.1000E+01  0.1000E+01
    -30.591  0.0000E+00  0.0000E+00  0.1000E+01  0.1000E+01
    -30.396  0.0000E+00  0.0000E+00  0.1000E+01  0.1000E+01
    -30.201  0.0000E+00  0.0000E+00  0.1000E+01  0.1000E+01
    -30.005  0.0000E+00  0.0000E+00  0.1000E+01  0.1000E+01
    -29.810  0.0000E+00  0.0000E+00  0.1000E+01  0.1000E+01
    -29.615  0.0000E+00  0.0000E+00  0.1000E+01  0.1000E+01
    -29.420  0.0000E+00  0.0000E+00  0.1000E+01  0.1000E+01
    -29.225  0.0000E+00  0.0000E+00  0.1000E+01  0.1000E+01
    -29.030  0.0000E+00  0.0000E+00  0.1000E+01  0.1000E+01
    -28.835  0.0000E+00  0.0000E+00  0.1000E+01  0.1000E+01
    -28.639  0.0000E+00  0.0000E+00  0.1000E+01  0.1000E+01
    -28.444  0.0000E+00  0.0000E+00  0.1000E+01  0.1000E+01
    -28.249  0.0000E+00  0.0000E+00  0.1000E+01  0.1000E+01
    -28.054  0.0000E+00  0.0000E+00  0.1000E+01  0.1000E+01
    -27.859  0.0000E+00  0.0000E+00  0.1000E+01  0.1000E+01
    -27.664  0.0000E+00  0.0000E+00  0.1000E+01  0.1000E+01
    -27.469  0.0000E+00  0.0000E+00  0.1000E+01  0.1000E+01
    -27.273  0.0000E+00  0.0000E+00  0.1000E+01  0.1000E+01
    -27.078  0.0000E+00  0.0000E+00  0.1000E+01  0.1000E+01
    -26.883  0.0000E+00  0.0000E+00  0.1000E+01  0.1000E+01
    -26.688  0.0000E+00  0.0000E+00  0.1000E+01  0.1000E+01
    -26.493  0.0000E+00  0.0000E+00  0.1000E+01  0.1000E+01
    -26.298  0.0000E+00  0.0000E+00  0.1000E+01  0.1000E+01
    -26.102  0.0000E+00  0.0000E+00  0.1000E+01  0.1000E+01
    -25.907  0.0000E+00  0.0000E+00  0.1000E+01  0.1000E+01
    -25.712  0.0000E+00  0.0000E+00  0.1000E+01  0.1000E+01
    -25.517  0.0000E+00  0.0000E+00  0.1000E+01  0.1000E+01
    -25.322  0.0000E+00  0.0000E+00  0.1000E+01  0.1000E+01
    -25.127  0.0000E+00  0.0000E+00  0.1000E+01  0.1000E+01
    -24.932  0.0000E+00  0.0000E+00  0.1000E+01  0.1000E+01
    -24.736  0.0000E+00  0.0000E+00  0.1000E+01  0.1000E+01
    -24.541  0.0000E+00  0.0000E+00  0.1000E+01  0.1000E+01
    -24.346  0.0000E+00  0.0000E+00  0.1000E+01  0.1000E+01
    -24.151  0.0000E+00  0.0000E+00  0.1000E+01  0.1000E+01
    -23.956  0.0000E+00  0.0000E+00  0.1000E+01  0.1000E+01
    -23.761  0.0000E+00  0.0000E+00  0.1000E+01  0.1000E+01
    -23.566  0.0000E+00  0.0000E+00  0.1000E+01  0.1000E+01
    -23.370  0.0000E+00  0.0000E+00  0.1000E+01  0.1000E+01
    -23.175  0.0000E+00  0.0000E+00  0.1000E+01  0.1000E+01
    -22.980  0.0000E+00  0.0000E+00  0.1000E+01  0.1000E+01
    -22.785  0.0000E+00  0.0000E+00  0.1000E+01  0.1000E+01
    -22.590  0.0000E+00  0.0000E+00  0.1000E+01  0.1000E+01
    -22.395  0.0000E+00  0.0000E+00  0.1000E+01  0.1000E+01
    -22.200  0.0000E+00  0.0000E+00  0.1000E+01  0.1000E+01
    -22.004  0.0000E+00  0.0000E+00  0.1000E+01  0.1000E+01
    -21.809  0.2311E-03  0.2303E-03  0.1000E+01  0.1000E+01
    -21.614  0.1121E-01  0.1117E-01  0.1002E+01  0.1002E+01
    -21.419  0.5353E+00  0.5336E+00  0.1107E+01  0.1106E+01
    -21.224  0.9338E+01  0.9328E+01  0.2929E+01  0.2927E+01
    -21.029  0.5317E+01  0.5328E+01  0.3966E+01  0.3966E+01
    -20.834  0.0000E+00  0.0000E+00  0.4000E+01  0.4000E+01
    -20.638  0.0000E+00  0.0000E+00  0.4000E+01  0.4000E+01
    -20.443  0.0000E+00  0.0000E+00  0.4000E+01  0.4000E+01
    -20.248  0.0000E+00  0.0000E+00  0.4000E+01  0.4000E+01
    -20.053  0.0000E+00  0.0000E+00  0.4000E+01  0.4000E+01
    -19.858  0.0000E+00  0.0000E+00  0.4000E+01  0.4000E+01
    -19.663  0.0000E+00  0.0000E+00  0.4000E+01  0.4000E+01
    -19.468  0.0000E+00  0.0000E+00  0.4000E+01  0.4000E+01
    -19.272  0.0000E+00  0.0000E+00  0.4000E+01  0.4000E+01
    -19.077  0.0000E+00  0.0000E+00  0.4000E+01  0.4000E+01
    -18.882  0.0000E+00  0.0000E+00  0.4000E+01  0.4000E+01
    -18.687  0.0000E+00  0.0000E+00  0.4000E+01  0.4000E+01
    -18.492  0.0000E+00  0.0000E+00  0.4000E+01  0.4000E+01
    -18.297  0.0000E+00  0.0000E+00  0.4000E+01  0.4000E+01
    -18.102  0.0000E+00  0.0000E+00  0.4000E+01  0.4000E+01
    -17.906  0.0000E+00  0.0000E+00  0.4000E+01  0.4000E+01
    -17.711  0.0000E+00  0.0000E+00  0.4000E+01  0.4000E+01
    -17.516  0.0000E+00  0.0000E+00  0.4000E+01  0.4000E+01
    -17.321  0.0000E+00  0.0000E+00  0.4000E+01  0.4000E+01
    -17.126  0.0000E+00  0.0000E+00  0.4000E+01  0.4000E+01
    -16.931  0.0000E+00  0.0000E+00  0.4000E+01  0.4000E+01
    -16.736  0.0000E+00  0.0000E+00  0.4000E+01  0.4000E+01
    -16.540  0.0000E+00  0.0000E+00  0.4000E+01  0.4000E+01
    -16.345  0.0000E+00  0.0000E+00  0.4000E+01  0.4000E+01
    -16.150  0.0000E+00  0.0000E+00  0.4000E+01  0.4000E+01
    -15.955  0.0000E+00  0.0000E+00  0.4000E+01  0.4000E+01
    -15.760  0.0000E+00  0.0000E+00  0.4000E+01  0.4000E+01
    -15.565  0.0000E+00  0.0000E+00  0.4000E+01  0.4000E+01
    -15.369  0.0000E+00  0.0000E+00  0.4000E+01  0.4000E+01
    -15.174  0.0000E+00  0.0000E+00  0.4000E+01  0.4000E+01
    -14.979  0.0000E+00  0.0000E+00  0.4000E+01  0.4000E+01
    -14.784  0.0000E+00  0.0000E+00  0.4000E+01  0.4000E+01
    -14.589  0.0000E+00  0.0000E+00  0.4000E+01  0.4000E+01
    -14.394  0.0000E+00  0.0000E+00  0.4000E+01  0.4000E+01
    -14.199  0.0000E+00  0.0000E+00  0.4000E+01  0.4000E+01
    -14.003  0.0000E+00  0.0000E+00  0.4000E+01  0.4000E+01
    -13.808  0.0000E+00  0.0000E+00  0.4000E+01  0.4000E+01
    -13.613  0.0000E+00  0.0000E+00  0.4000E+01  0.4000E+01
    -13.418  0.0000E+00  0.0000E+00  0.4000E+01  0.4000E+01
    -13.223  0.0000E+00  0.0000E+00  0.4000E+01  0.4000E+01
    -13.028  0.0000E+00  0.0000E+00  0.4000E+01  0.4000E+01
    -12.833  0.0000E+00  0.0000E+00  0.4000E+01  0.4000E+01
    -12.637  0.0000E+00  0.0000E+00  0.4000E+01  0.4000E+01
    -12.442  0.0000E+00  0.0000E+00  0.4000E+01  0.4000E+01
    -12.247  0.0000E+00  0.0000E+00  0.4000E+01  0.4000E+01
    -12.052  0.0000E+00  0.0000E+00  0.4000E+01  0.4000E+01
    -11.857  0.0000E+00  0.0000E+00  0.4000E+01  0.4000E+01
    -11.662  0.0000E+00  0.0000E+00  0.4000E+01  0.4000E+01
    -11.467  0.0000E+00  0.0000E+00  0.4000E+01  0.4000E+01
    -11.271  0.0000E+00  0.0000E+00  0.4000E+01  0.4000E+01
    -11.076  0.0000E+00  0.0000E+00  0.4000E+01  0.4000E+01
    -10.881  0.0000E+00  0.0000E+00  0.4000E+01  0.4000E+01
    -10.686  0.0000E+00  0.0000E+00  0.4000E+01  0.4000E+01
    -10.491  0.0000E+00  0.0000E+00  0.4000E+01  0.4000E+01
    -10.296  0.0000E+00  0.0000E+00  0.4000E+01  0.4000E+01
    -10.101  0.0000E+00  0.0000E+00  0.4000E+01  0.4000E+01
     -9.905  0.0000E+00  0.0000E+00  0.4000E+01  0.4000E+01
     -9.710  0.0000E+00  0.0000E+00  0.4000E+01  0.4000E+01
     -9.515  0.0000E+00  0.0000E+00  0.4000E+01  0.4000E+01
     -9.320  0.0000E+00  0.0000E+00  0.4000E+01  0.4000E+01
     -9.125  0.0000E+00  0.0000E+00  0.4000E+01  0.4000E+01
     -8.930  0.0000E+00  0.0000E+00  0.4000E+01  0.4000E+01
     -8.735  0.0000E+00  0.0000E+00  0.4000E+01  0.4000E+01
     -8.539  0.0000E+00  0.0000E+00  0.4000E+01  0.4000E+01
     -8.344  0.0000E+00  0.0000E+00  0.4000E+01  0.4000E+01
     -8.149  0.0000E+00  0.0000E+00  0.4000E+01  0.4000E+01
     -7.954  0.0000E+00  0.0000E+00  0.4000E+01  0.4000E+01
     -7.759  0.0000E+00  0.0000E+00  0.4000E+01  0.4000E+01
     -7.564  0.0000E+00  0.0000E+00  0.4000E+01  0.4000E+01
     -7.369  0.0000E+00  0.0000E+00  0.4000E+01  0.4000E+01
     -7.173  0.0000E+00  0.0000E+00  0.4000E+01  0.4000E+01
     -6.978  0.0000E+00  0.0000E+00  0.4000E+01  0.4000E+01
     -6.783  0.0000E+00  0.0000E+00  0.4000E+01  0.4000E+01
     -6.588  0.0000E+00  0.0000E+00  0.4000E+01  0.4000E+01
     -6.393  0.0000E+00  0.0000E+00  0.4000E+01  0.4000E+01
     -6.198  0.0000E+00  0.0000E+00  0.4000E+01  0.4000E+01
     -6.003  0.0000E+00  0.0000E+00  0.4000E+01  0.4000E+01
     -5.807  0.0000E+00  0.0000E+00  0.4000E+01  0.4000E+01
     -5.612  0.0000E+00  0.0000E+00  0.4000E+01  0.4000E+01
     -5.417  0.0000E+00  0.0000E+00  0.4000E+01  0.4000E+01
     -5.222  0.0000E+00  0.0000E+00  0.4000E+01  0.4000E+01
     -5.027  0.0000E+00  0.0000E+00  0.4000E+01  0.4000E+01
     -4.832  0.0000E+00  0.0000E+00  0.4000E+01  0.4000E+01
     -4.636  0.0000E+00  0.0000E+00  0.4000E+01  0.4000E+01
     -4.441  0.0000E+00  0.0000E+00  0.4000E+01  0.4000E+01
     -4.246  0.0000E+00  0.0000E+00  0.4000E+01  0.4000E+01
     -4.051  0.0000E+00  0.0000E+00  0.4000E+01  0.4000E+01
     -3.856  0.0000E+00  0.0000E+00  0.4000E+01  0.4000E+01
     -3.661  0.0000E+00  0.0000E+00  0.4000E+01  0.4000E+01
     -3.466  0.0000E+00  0.0000E+00  0.4000E+01  0.4000E+01
     -3.270  0.3569E-04  0.3531E-04  0.4000E+01  0.4000E+01
     -3.075  0.1717E-02  0.1699E-02  0.4000E+01  0.4000E+01
     -2.880  0.5822E-01  0.5780E-01  0.4012E+01  0.4012E+01
     -2.685  0.1229E+00  0.1232E+00  0.4036E+01  0.4036E+01
     -2.490  0.5320E-01  0.5282E-01  0.4046E+01  0.4046E+01
     -2.295  0.4177E+00  0.4173E+00  0.4128E+01  0.4127E+01
     -2.100  0.1154E+00  0.1161E+00  0.4150E+01  0.4150E+01
     -1.904  0.2902E+00  0.2887E+00  0.4207E+01  0.4207E+01
     -1.709  0.2654E+00  0.2668E+00  0.4259E+01  0.4259E+01
     -1.514  0.2785E+00  0.2766E+00  0.4313E+01  0.4313E+01
     -1.319  0.4628E+00  0.4645E+00  0.4404E+01  0.4404E+01
     -1.124  0.3097E+00  0.3073E+00  0.4464E+01  0.4464E+01
     -0.929  0.7864E+00  0.7884E+00  0.4618E+01  0.4618E+01
     -0.734  0.1554E+00  0.1551E+00  0.4648E+01  0.4648E+01
     -0.538  0.4272E+00  0.4275E+00  0.4732E+01  0.4732E+01
     -0.343  0.2276E+00  0.2264E+00  0.4776E+01  0.4776E+01
     -0.148  0.3703E+00  0.3718E+00  0.4849E+01  0.4849E+01
      0.047  0.2772E+00  0.2755E+00  0.4903E+01  0.4902E+01
      0.242  0.8082E+00  0.8096E+00  0.5061E+01  0.5060E+01
      0.437  0.1962E+00  0.1962E+00  0.5099E+01  0.5099E+01
      0.632  0.8569E+00  0.8567E+00  0.5266E+01  0.5266E+01
      0.828  0.2569E+00  0.2569E+00  0.5316E+01  0.5316E+01
      1.023  0.5565E+00  0.5567E+00  0.5426E+01  0.5426E+01
      1.218  0.3714E+00  0.3709E+00  0.5498E+01  0.5498E+01
      1.413  0.8256E+00  0.8259E+00  0.5660E+01  0.5660E+01
      1.608  0.6367E+00  0.6363E+00  0.5784E+01  0.5784E+01
      1.803  0.9422E+00  0.9423E+00  0.5968E+01  0.5968E+01
      1.998  0.6895E+00  0.6895E+00  0.6103E+01  0.6103E+01
      2.194  0.5220E+00  0.5222E+00  0.6206E+01  0.6206E+01
      2.389  0.7178E+00  0.7180E+00  0.6347E+01  0.6347E+01
      2.584  0.1479E+00  0.1484E+00  0.6376E+01  0.6376E+01
      2.779  0.7722E+00  0.7690E+00  0.6527E+01  0.6526E+01
      2.974  0.1014E+01  0.1016E+01  0.6725E+01  0.6725E+01
      3.169  0.6639E+00  0.6649E+00  0.6855E+01  0.6854E+01
      3.364  0.2803E+00  0.2807E+00  0.6909E+01  0.6909E+01
      3.560  0.8120E+00  0.8107E+00  0.7069E+01  0.7069E+01
      3.755  0.7471E+00  0.7475E+00  0.7215E+01  0.7214E+01
      3.950  0.5851E+00  0.5851E+00  0.7329E+01  0.7329E+01
      4.145  0.7640E+00  0.7637E+00  0.7479E+01  0.7478E+01
      4.340  0.1035E+01  0.1033E+01  0.7681E+01  0.7680E+01
      4.535  0.2313E+01  0.2314E+01  0.8133E+01  0.8132E+01
      4.731  0.6858E+00  0.6865E+00  0.8266E+01  0.8266E+01
      4.926  0.8509E+00  0.8492E+00  0.8435E+01  0.8434E+01
      5.121  0.1648E+01  0.1650E+01  0.8757E+01  0.8756E+01
      5.316  0.7181E+00  0.7185E+00  0.8897E+01  0.8897E+01
      5.511  0.1240E+01  0.1237E+01  0.9139E+01  0.9139E+01
      5.706  0.1542E+01  0.1545E+01  0.9441E+01  0.9440E+01
      5.901  0.2420E+00  0.2428E+00  0.9489E+01  0.9489E+01
      6.097  0.4898E+00  0.4889E+00  0.9585E+01  0.9585E+01
      6.292  0.9374E+00  0.9374E+00  0.9768E+01  0.9768E+01
      6.487  0.3102E+00  0.3108E+00  0.9829E+01  0.9829E+01
      6.682  0.6279E+00  0.6260E+00  0.9953E+01  0.9953E+01
      6.877  0.1284E+01  0.1284E+01  0.1020E+02  0.1020E+02
      7.072  0.6070E+00  0.6065E+00  0.1032E+02  0.1032E+02
      7.267  0.1197E+01  0.1197E+01  0.1056E+02  0.1056E+02
      7.463  0.5387E+00  0.5395E+00  0.1066E+02  0.1066E+02
      7.658  0.1871E+01  0.1869E+01  0.1103E+02  0.1103E+02
      7.853  0.1191E+01  0.1192E+01  0.1126E+02  0.1126E+02
      8.048  0.1352E+01  0.1350E+01  0.1153E+02  0.1153E+02
      8.243  0.1624E+01  0.1626E+01  0.1184E+02  0.1184E+02
      8.438  0.1051E+01  0.1052E+01  0.1205E+02  0.1205E+02
      8.633  0.2234E+01  0.2233E+01  0.1249E+02  0.1249E+02
      8.829  0.2058E+01  0.2057E+01  0.1289E+02  0.1289E+02
      9.024  0.2054E+01  0.2054E+01  0.1330E+02  0.1330E+02
      9.219  0.2380E+01  0.2376E+01  0.1376E+02  0.1376E+02
      9.414  0.1442E+01  0.1456E+01  0.1405E+02  0.1405E+02
      9.609  0.1821E+01  0.1817E+01  0.1440E+02  0.1440E+02
      9.804  0.1325E+01  0.1367E+01  0.1466E+02  0.1467E+02
      9.999  0.1288E+01  0.1353E+01  0.1491E+02  0.1494E+02
     10.195  0.1071E+01  0.1319E+01  0.1513E+02  0.1520E+02
     10.390  0.2143E+01  0.1632E+01  0.1554E+02  0.1551E+02
     10.585  0.1369E+01  0.1159E+01  0.1581E+02  0.1574E+02
     10.780  0.8697E+00  0.1206E+01  0.1598E+02  0.1598E+02
     10.975  0.8075E-01  0.1016E+00  0.1600E+02  0.1600E+02
     11.170  0.0000E+00  0.0000E+00  0.1600E+02  0.1600E+02
     11.365  0.0000E+00  0.0000E+00  0.1600E+02  0.1600E+02
     11.561  0.0000E+00  0.0000E+00  0.1600E+02  0.1600E+02
     11.756  0.0000E+00  0.0000E+00  0.1600E+02  0.1600E+02
     11.951  0.0000E+00  0.0000E+00  0.1600E+02  0.1600E+02
     12.146  0.0000E+00  0.0000E+00  0.1600E+02  0.1600E+02
     12.341  0.0000E+00  0.0000E+00  0.1600E+02  0.1600E+02
     12.536  0.0000E+00  0.0000E+00  0.1600E+02  0.1600E+02
     12.731  0.0000E+00  0.0000E+00  0.1600E+02  0.1600E+02
     12.927  0.0000E+00  0.0000E+00  0.1600E+02  0.1600E+02
     13.122  0.0000E+00  0.0000E+00  0.1600E+02  0.1600E+02
     13.317  0.0000E+00  0.0000E+00  0.1600E+02  0.1600E+02
     13.31690498    -45.22676134  301      6.72719810      1.00000000
    -45.227  0.0000E+00  0.0000E+00  0.0000E+00  0.0000E+00  0.0000E+00  0.0000E+00  0.0000E+00  0.0000E+00  0.0000E+00  0.0000E+00  0.0000E+00  0.0000E+00  0.0000E+00  0.0000E+00  0.0000E+00  0.0000E+00  0.0000E+00  0.0000E+00
    -45.032  0.0000E+00  0.0000E+00  0.0000E+00  0.0000E+00  0.0000E+00  0.0000E+00  0.0000E+00  0.0000E+00  0.0000E+00  0.0000E+00  0.0000E+00  0.0000E+00  0.0000E+00  0.0000E+00  0.0000E+00  0.0000E+00  0.0000E+00  0.0000E+00
    -44.836  0.0000E+00  0.0000E+00  0.0000E+00  0.0000E+00  0.0000E+00  0.0000E+00  0.0000E+00  0.0000E+00  0.0000E+00  0.0000E+00  0.0000E+00  0.0000E+00  0.0000E+00  0.0000E+00  0.0000E+00  0.0000E+00  0.0000E+00  0.0000E+00
    -44.641  0.0000E+00  0.0000E+00  0.0000E+00  0.0000E+00  0.0000E+00  0.0000E+00  0.0000E+00  0.0000E+00  0.0000E+00  0.0000E+00  0.0000E+00  0.0000E+00  0.0000E+00  0.0000E+00  0.0000E+00  0.0000E+00  0.0000E+00  0.0000E+00
    -44.446  0.0000E+00  0.0000E+00  0.0000E+00  0.0000E+00  0.0000E+00  0.0000E+00  0.0000E+00  0.0000E+00  0.0000E+00  0.0000E+00  0.0000E+00  0.0000E+00  0.0000E+00  0.0000E+00  0.0000E+00  0.0000E+00  0.0000E+00  0.0000E+00
    -44.251  0.0000E+00  0.0000E+00  0.0000E+00  0.0000E+00  0.0000E+00  0.0000E+00  0.0000E+00  0.0000E+00  0.0000E+00  0.0000E+00  0.0000E+00  0.0000E+00  0.0000E+00  0.0000E+00  0.0000E+00  0.0000E+00  0.0000E+00  0.0000E+00
    -44.056  0.0000E+00  0.0000E+00  0.0000E+00  0.0000E+00  0.0000E+00  0.0000E+00  0.0000E+00  0.0000E+00  0.0000E+00  0.0000E+00  0.0000E+00  0.0000E+00  0.0000E+00  0.0000E+00  0.0000E+00  0.0000E+00  0.0000E+00  0.0000E+00
    -43.861  0.0000E+00  0.0000E+00  0.0000E+00  0.0000E+00  0.0000E+00  0.0000E+00  0.0000E+00  0.0000E+00  0.0000E+00  0.0000E+00  0.0000E+00  0.0000E+00  0.0000E+00  0.0000E+00  0.0000E+00  0.0000E+00  0.0000E+00  0.0000E+00
    -43.666  0.0000E+00  0.0000E+00  0.0000E+00  0.0000E+00  0.0000E+00  0.0000E+00  0.0000E+00  0.0000E+00  0.0000E+00  0.0000E+00  0.0000E+00  0.0000E+00  0.0000E+00  0.0000E+00  0.0000E+00  0.0000E+00  0.0000E+00  0.0000E+00
    -43.470  0.0000E+00  0.0000E+00  0.0000E+00  0.0000E+00  0.0000E+00  0.0000E+00  0.0000E+00  0.0000E+00  0.0000E+00  0.0000E+00  0.0000E+00  0.0000E+00  0.0000E+00  0.0000E+00  0.0000E+00  0.0000E+00  0.0000E+00  0.0000E+00
    -43.275  0.0000E+00  0.0000E+00  0.0000E+00  0.0000E+00  0.0000E+00  0.0000E+00  0.0000E+00  0.0000E+00  0.0000E+00  0.0000E+00  0.0000E+00  0.0000E+00  0.0000E+00  0.0000E+00  0.0000E+00  0.0000E+00  0.0000E+00  0.0000E+00
    -43.080  0.1686E-03  0.1698E-03  0.2059E-12  0.2040E-12  0.2059E-12  0.2040E-12  0.2059E-12  0.2040E-12  0.1454E-12  0.1049E-12  0.1454E-12  0.1049E-12  0.3218E-12  0.2288E-12  0.1454E-12  0.1049E-12  0.3218E-12  0.2288E-12
    -42.885  0.8173E-02  0.8231E-02  0.9978E-11  0.9889E-11  0.9978E-11  0.9889E-11  0.9978E-11  0.9889E-11  0.7045E-11  0.5083E-11  0.7045E-11  0.5083E-11  0.1560E-10  0.1109E-10  0.7045E-11  0.5083E-11  0.1560E-10  0.1109E-10
    -42.690  0.3746E+00  0.3770E+00  0.4573E-09  0.4530E-09  0.4573E-09  0.4530E-09  0.4573E-09  0.4530E-09  0.3229E-09  0.2329E-09  0.3229E-09  0.2329E-09  0.7147E-09  0.5078E-09  0.3229E-09  0.2329E-09  0.7147E-09  0.5078E-09
    -42.495  0.3704E+01  0.3707E+01  0.4521E-08  0.4453E-08  0.4521E-08  0.4453E-08  0.4521E-08  0.4453E-08  0.3197E-08  0.2299E-08  0.3197E-08  0.2299E-08  0.7054E-08  0.4977E-08  0.3197E-08  0.2299E-08  0.7054E-08  0.4977E-08
    -42.300  0.9917E+00  0.9861E+00  0.1210E-08  0.1184E-08  0.1210E-08  0.1184E-08  0.1210E-08  0.1184E-08  0.8572E-09  0.6141E-09  0.8572E-09  0.6141E-09  0.1884E-08  0.1319E-08  0.8572E-09  0.6141E-09  0.1884E-08  0.1319E-08
    -42.104  0.0000E+00  0.0000E+00  0.0000E+00  0.0000E+00  0.0000E+00  0.0000E+00  0.0000E+00  0.0000E+00  0.0000E+00  0.0000E+00  0.0000E+00  0.0000E+00  0.0000E+00  0.0000E+00  0.0000E+00  0.0000E+00  0.0000E+00  0.0000E+00
    -41.909  0.0000E+00  0.0000E+00  0.0000E+00  0.0000E+00  0.0000E+00  0.0000E+00  0.0000E+00  0.0000E+00  0.0000E+00  0.0000E+00  0.0000E+00  0.0000E+00  0.0000E+00  0.0000E+00  0.0000E+00  0.0000E+00  0.0000E+00  0.0000E+00
    -41.714  0.0000E+00  0.0000E+00  0.0000E+00  0.0000E+00  0.0000E+00  0.0000E+00  0.0000E+00  0.0000E+00  0.0000E+00  0.0000E+00  0.0000E+00  0.0000E+00  0.0000E+00  0.0000E+00  0.0000E+00  0.0000E+00  0.0000E+00  0.0000E+00
    -41.519  0.0000E+00  0.0000E+00  0.0000E+00  0.0000E+00  0.0000E+00  0.0000E+00  0.0000E+00  0.0000E+00  0.0000E+00  0.0000E+00  0.0000E+00  0.0000E+00  0.0000E+00  0.0000E+00  0.0000E+00  0.0000E+00  0.0000E+00  0.0000E+00
    -41.324  0.0000E+00  0.0000E+00  0.0000E+00  0.0000E+00  0.0000E+00  0.0000E+00  0.0000E+00  0.0000E+00  0.0000E+00  0.0000E+00  0.0000E+00  0.0000E+00  0.0000E+00  0.0000E+00  0.0000E+00  0.0000E+00  0.0000E+00  0.0000E+00
    -41.129  0.0000E+00  0.0000E+00  0.0000E+00  0.0000E+00  0.0000E+00  0.0000E+00  0.0000E+00  0.0000E+00  0.0000E+00  0.0000E+00  0.0000E+00  0.0000E+00  0.0000E+00  0.0000E+00  0.0000E+00  0.0000E+00  0.0000E+00  0.0000E+00
    -40.934  0.0000E+00  0.0000E+00  0.0000E+00  0.0000E+00  0.0000E+00  0.0000E+00  0.0000E+00  0.0000E+00  0.0000E+00  0.0000E+00  0.0000E+00  0.0000E+00  0.0000E+00  0.0000E+00  0.0000E+00  0.0000E+00  0.0000E+00  0.0000E+00
    -40.738  0.0000E+00  0.0000E+00  0.0000E+00  0.0000E+00  0.0000E+00  0.0000E+00  0.0000E+00  0.0000E+00  0.0000E+00  0.0000E+00  0.0000E+00  0.0000E+00  0.0000E+00  0.0000E+00  0.0000E+00  0.0000E+00  0.0000E+00  0.0000E+00
    -40.543  0.0000E+00  0.0000E+00  0.0000E+00  0.0000E+00  0.0000E+00  0.0000E+00  0.0000E+00  0.0000E+00  0.0000E+00  0.0000E+00  0.0000E+00  0.0000E+00  0.0000E+00  0.0000E+00  0.0000E+00  0.0000E+00  0.0000E+00  0.0000E+00
    -40.348  0.0000E+00  0.0000E+00  0.0000E+00  0.0000E+00  0.0000E+00  0.0000E+00  0.0000E+00  0.0000E+00  0.0000E+00  0.0000E+00  0.0000E+00  0.0000E+00  0.0000E+00  0.0000E+00  0.0000E+00  0.0000E+00  0.0000E+00  0.0000E+00
    -40.153  0.0000E+00  0.0000E+00  0.0000E+00  0.0000E+00  0.0000E+00  0.0000E+00  0.0000E+00  0.0000E+00  0.0000E+00  0.0000E+00  0.0000E+00  0.0000E+00  0.0000E+00  0.0000E+00  0.0000E+00  0.0000E+00  0.0000E+00  0.0000E+00
    -39.958  0.0000E+00  0.0000E+00  0.0000E+00  0.0000E+00  0.0000E+00  0.0000E+00  0.0000E+00  0.0000E+00  0.0000E+00  0.0000E+00  0.0000E+00  0.0000E+00  0.0000E+00  0.0000E+00  0.0000E+00  0.0000E+00  0.0000E+00  0.0000E+00
    -39.763  0.0000E+00  0.0000E+00  0.0000E+00  0.0000E+00  0.0000E+00  0.0000E+00  0.0000E+00  0.0000E+00  0.0000E+00  0.0000E+00  0.0000E+00  0.0000E+00  0.0000E+00  0.0000E+00  0.0000E+00  0.0000E+00  0.0000E+00  0.0000E+00
    -39.568  0.0000E+00  0.0000E+00  0.0000E+00  0.0000E+00  0.0000E+00  0.0000E+00  0.0000E+00  0.0000E+00  0.0000E+00  0.0000E+00  0.0000E+00  0.0000E+00  0.0000E+00  0.0000E+00  0.0000E+00  0.0000E+00  0.0000E+00  0.0000E+00
    -39.372  0.0000E+00  0.0000E+00  0.0000E+00  0.0000E+00  0.0000E+00  0.0000E+00  0.0000E+00  0.0000E+00  0.0000E+00  0.0000E+00  0.0000E+00  0.0000E+00  0.0000E+00  0.0000E+00  0.0000E+00  0.0000E+00  0.0000E+00  0.0000E+00
    -39.177  0.0000E+00  0.0000E+00  0.0000E+00  0.0000E+00  0.0000E+00  0.0000E+00  0.0000E+00  0.0000E+00  0.0000E+00  0.0000E+00  0.0000E+00  0.0000E+00  0.0000E+00  0.0000E+00  0.0000E+00  0.0000E+00  0.0000E+00  0.0000E+00
    -38.982  0.0000E+00  0.0000E+00  0.0000E+00  0.0000E+00  0.0000E+00  0.0000E+00  0.0000E+00  0.0000E+00  0.0000E+00  0.0000E+00  0.0000E+00  0.0000E+00  0.0000E+00  0.0000E+00  0.0000E+00  0.0000E+00  0.0000E+00  0.0000E+00
    -38.787  0.0000E+00  0.0000E+00  0.0000E+00  0.0000E+00  0.0000E+00  0.0000E+00  0.0000E+00  0.0000E+00  0.0000E+00  0.0000E+00  0.0000E+00  0.0000E+00  0.0000E+00  0.0000E+00  0.0000E+00  0.0000E+00  0.0000E+00  0.0000E+00
    -38.592  0.0000E+00  0.0000E+00  0.0000E+00  0.0000E+00  0.0000E+00  0.0000E+00  0.0000E+00  0.0000E+00  0.0000E+00  0.0000E+00  0.0000E+00  0.0000E+00  0.0000E+00  0.0000E+00  0.0000E+00  0.0000E+00  0.0000E+00  0.0000E+00
    -38.397  0.0000E+00  0.0000E+00  0.0000E+00  0.0000E+00  0.0000E+00  0.0000E+00  0.0000E+00  0.0000E+00  0.0000E+00  0.0000E+00  0.0000E+00  0.0000E+00  0.0000E+00  0.0000E+00  0.0000E+00  0.0000E+00  0.0000E+00  0.0000E+00
    -38.202  0.0000E+00  0.0000E+00  0.0000E+00  0.0000E+00  0.0000E+00  0.0000E+00  0.0000E+00  0.0000E+00  0.0000E+00  0.0000E+00  0.0000E+00  0.0000E+00  0.0000E+00  0.0000E+00  0.0000E+00  0.0000E+00  0.0000E+00  0.0000E+00
    -38.006  0.0000E+00  0.0000E+00  0.0000E+00  0.0000E+00  0.0000E+00  0.0000E+00  0.0000E+00  0.0000E+00  0.0000E+00  0.0000E+00  0.0000E+00  0.0000E+00  0.0000E+00  0.0000E+00  0.0000E+00  0.0000E+00  0.0000E+00  0.0000E+00
    -37.811  0.0000E+00  0.0000E+00  0.0000E+00  0.0000E+00  0.0000E+00  0.0000E+00  0.0000E+00  0.0000E+00  0.0000E+00  0.0000E+00  0.0000E+00  0.0000E+00  0.0000E+00  0.0000E+00  0.0000E+00  0.0000E+00  0.0000E+00  0.0000E+00
    -37.616  0.0000E+00  0.0000E+00  0.0000E+00  0.0000E+00  0.0000E+00  0.0000E+00  0.0000E+00  0.0000E+00  0.0000E+00  0.0000E+00  0.0000E+00  0.0000E+00  0.0000E+00  0.0000E+00  0.0000E+00  0.0000E+00  0.0000E+00  0.0000E+00
    -37.421  0.0000E+00  0.0000E+00  0.0000E+00  0.0000E+00  0.0000E+00  0.0000E+00  0.0000E+00  0.0000E+00  0.0000E+00  0.0000E+00  0.0000E+00  0.0000E+00  0.0000E+00  0.0000E+00  0.0000E+00  0.0000E+00  0.0000E+00  0.0000E+00
    -37.226  0.0000E+00  0.0000E+00  0.0000E+00  0.0000E+00  0.0000E+00  0.0000E+00  0.0000E+00  0.0000E+00  0.0000E+00  0.0000E+00  0.0000E+00  0.0000E+00  0.0000E+00  0.0000E+00  0.0000E+00  0.0000E+00  0.0000E+00  0.0000E+00
    -37.031  0.0000E+00  0.0000E+00  0.0000E+00  0.0000E+00  0.0000E+00  0.0000E+00  0.0000E+00  0.0000E+00  0.0000E+00  0.0000E+00  0.0000E+00  0.0000E+00  0.0000E+00  0.0000E+00  0.0000E+00  0.0000E+00  0.0000E+00  0.0000E+00
    -36.836  0.0000E+00  0.0000E+00  0.0000E+00  0.0000E+00  0.0000E+00  0.0000E+00  0.0000E+00  0.0000E+00  0.0000E+00  0.0000E+00  0.0000E+00  0.0000E+00  0.0000E+00  0.0000E+00  0.0000E+00  0.0000E+00  0.0000E+00  0.0000E+00
    -36.640  0.0000E+00  0.0000E+00  0.0000E+00  0.0000E+00  0.0000E+00  0.0000E+00  0.0000E+00  0.0000E+00  0.0000E+00  0.0000E+00  0.0000E+00  0.0000E+00  0.0000E+00  0.0000E+00  0.0000E+00  0.0000E+00  0.0000E+00  0.0000E+00
    -36.445  0.0000E+00  0.0000E+00  0.0000E+00  0.0000E+00  0.0000E+00  0.0000E+00  0.0000E+00  0.0000E+00  0.0000E+00  0.0000E+00  0.0000E+00  0.0000E+00  0.0000E+00  0.0000E+00  0.0000E+00  0.0000E+00  0.0000E+00  0.0000E+00
    -36.250  0.0000E+00  0.0000E+00  0.0000E+00  0.0000E+00  0.0000E+00  0.0000E+00  0.0000E+00  0.0000E+00  0.0000E+00  0.0000E+00  0.0000E+00  0.0000E+00  0.0000E+00  0.0000E+00  0.0000E+00  0.0000E+00  0.0000E+00  0.0000E+00
    -36.055  0.0000E+00  0.0000E+00  0.0000E+00  0.0000E+00  0.0000E+00  0.0000E+00  0.0000E+00  0.0000E+00  0.0000E+00  0.0000E+00  0.0000E+00  0.0000E+00  0.0000E+00  0.0000E+00  0.0000E+00  0.0000E+00  0.0000E+00  0.0000E+00
    -35.860  0.0000E+00  0.0000E+00  0.0000E+00  0.0000E+00  0.0000E+00  0.0000E+00  0.0000E+00  0.0000E+00  0.0000E+00  0.0000E+00  0.0000E+00  0.0000E+00  0.0000E+00  0.0000E+00  0.0000E+00  0.0000E+00  0.0000E+00  0.0000E+00
    -35.665  0.0000E+00  0.0000E+00  0.0000E+00  0.0000E+00  0.0000E+00  0.0000E+00  0.0000E+00  0.0000E+00  0.0000E+00  0.0000E+00  0.0000E+00  0.0000E+00  0.0000E+00  0.0000E+00  0.0000E+00  0.0000E+00  0.0000E+00  0.0000E+00
    -35.469  0.0000E+00  0.0000E+00  0.0000E+00  0.0000E+00  0.0000E+00  0.0000E+00  0.0000E+00  0.0000E+00  0.0000E+00  0.0000E+00  0.0000E+00  0.0000E+00  0.0000E+00  0.0000E+00  0.0000E+00  0.0000E+00  0.0000E+00  0.0000E+00