   4   4   1   0
  0.1947224E+02  0.4270631E-09  0.4270631E-09  0.4270631E-09  0.5000000E-15
  1.000000000000000E-004
  CAR 
 unknown system                          
     12.53122059    -45.91954510  301      6.23109175      1.00000000
    -45.920  0.0000E+00  0.0000E+00  0.0000E+00  0.0000E+00
    -45.725  0.0000E+00  0.0000E+00  0.0000E+00  0.0000E+00
    -45.530  0.0000E+00  0.0000E+00  0.0000E+00  0.0000E+00
    -45.335  0.0000E+00  0.0000E+00  0.0000E+00  0.0000E+00
    -45.140  0.0000E+00  0.0000E+00  0.0000E+00  0.0000E+00
    -44.945  0.0000E+00  0.0000E+00  0.0000E+00  0.0000E+00
    -44.751  0.0000E+00  0.0000E+00  0.0000E+00  0.0000E+00
    -44.556  0.0000E+00  0.0000E+00  0.0000E+00  0.0000E+00
    -44.361  0.0000E+00  0.0000E+00  0.0000E+00  0.0000E+00
    -44.166  0.0000E+00  0.0000E+00  0.0000E+00  0.0000E+00
    -43.971  0.0000E+00  0.0000E+00  0.0000E+00  0.0000E+00
    -43.776  0.1738E-03  0.1747E-03  0.3386E-04  0.3403E-04
    -43.582  0.8369E-02  0.8412E-02  0.1664E-02  0.1673E-02
    -43.387  0.3808E+00  0.3826E+00  0.7586E-01  0.7623E-01
    -43.192  0.3725E+01  0.3728E+01  0.8017E+00  0.8025E+00
    -42.997  0.9923E+00  0.9882E+00  0.9950E+00  0.9950E+00
    -42.802  0.0000E+00  0.0000E+00  0.1000E+01  0.1000E+01
    -42.607  0.0000E+00  0.0000E+00  0.1000E+01  0.1000E+01
    -42.412  0.0000E+00  0.0000E+00  0.1000E+01  0.1000E+01
    -42.218  0.0000E+00  0.0000E+00  0.1000E+01  0.1000E+01
    -42.023  0.0000E+00  0.0000E+00  0.1000E+01  0.1000E+01
    -41.828  0.0000E+00  0.0000E+00  0.1000E+01  0.1000E+01
    -41.633  0.0000E+00  0.0000E+00  0.1000E+01  0.1000E+01
    -41.438  0.0000E+00  0.0000E+00  0.1000E+01  0.1000E+01
    -41.243  0.0000E+00  0.0000E+00  0.1000E+01  0.1000E+01
    -41.049  0.0000E+00  0.0000E+00  0.1000E+01  0.1000E+01
    -40.854  0.0000E+00  0.0000E+00  0.1000E+01  0.1000E+01
    -40.659  0.0000E+00  0.0000E+00  0.1000E+01  0.1000E+01
    -40.464  0.0000E+00  0.0000E+00  0.1000E+01  0.1000E+01
    -40.269  0.0000E+00  0.0000E+00  0.1000E+01  0.1000E+01
    -40.074  0.0000E+00  0.0000E+00  0.1000E+01  0.1000E+01
    -39.880  0.0000E+00  0.0000E+00  0.1000E+01  0.1000E+01
    -39.685  0.0000E+00  0.0000E+00  0.1000E+01  0.1000E+01
    -39.490  0.0000E+00  0.0000E+00  0.1000E+01  0.1000E+01
    -39.295  0.0000E+00  0.0000E+00  0.1000E+01  0.1000E+01
    -39.100  0.0000E+00  0.0000E+00  0.1000E+01  0.1000E+01
    -38.905  0.0000E+00  0.0000E+00  0.1000E+01  0.1000E+01
    -38.711  0.0000E+00  0.0000E+00  0.1000E+01  0.1000E+01
    -38.516  0.0000E+00  0.0000E+00  0.1000E+01  0.1000E+01
    -38.321  0.0000E+00  0.0000E+00  0.1000E+01  0.1000E+01
    -38.126  0.0000E+00  0.0000E+00  0.1000E+01  0.1000E+01
    -37.931  0.0000E+00  0.0000E+00  0.1000E+01  0.1000E+01
    -37.736  0.0000E+00  0.0000E+00  0.1000E+01  0.1000E+01
    -37.542  0.0000E+00  0.0000E+00  0.1000E+01  0.1000E+01
    -37.347  0.0000E+00  0.0000E+00  0.1000E+01  0.1000E+01
    -37.152  0.0000E+00  0.0000E+00  0.1000E+01  0.1000E+01
    -36.957  0.0000E+00  0.0000E+00  0.1000E+01  0.1000E+01
    -36.762  0.0000E+00  0.0000E+00  0.1000E+01  0.1000E+01
    -36.567  0.0000E+00  0.0000E+00  0.1000E+01  0.1000E+01
    -36.373  0.0000E+00  0.0000E+00  0.1000E+01  0.1000E+01
    -36.178  0.0000E+00  0.0000E+00  0.1000E+01  0.1000E+01
    -35.983  0.0000E+00  0.0000E+00  0.1000E+01  0.1000E+01
    -35.788  0.0000E+00  0.0000E+00  0.1000E+01  0.1000E+01
    -35.593  0.0000E+00  0.0000E+00  0.1000E+01  0.1000E+01
    -35.398  0.0000E+00  0.0000E+00  0.1000E+01  0.1000E+01
    -35.204  0.0000E+00  0.0000E+00  0.1000E+01  0.1000E+01
    -35.009  0.0000E+00  0.0000E+00  0.1000E+01  0.1000E+01
    -34.814  0.0000E+00  0.0000E+00  0.1000E+01  0.1000E+01
    -34.619  0.0000E+00  0.0000E+00  0.1000E+01  0.1000E+01
    -34.424  0.0000E+00  0.0000E+00  0.1000E+01  0.1000E+01
    -34.229  0.0000E+00  0.0000E+00  0.1000E+01  0.1000E+01
    -34.035  0.0000E+00  0.0000E+00  0.1000E+01  0.1000E+01
    -33.840  0.0000E+00  0.0000E+00  0.1000E+01  0.1000E+01
    -33.645  0.0000E+00  0.0000E+00  0.1000E+01  0.1000E+01
    -33.450  0.0000E+00  0.0000E+00  0.1000E+01  0.1000E+01
    -33.255  0.0000E+00  0.0000E+00  0.1000E+01  0.1000E+01
    -33.060  0.0000E+00  0.0000E+00  0.1000E+01  0.1000E+01
    -32.866  0.0000E+00  0.0000E+00  0.1000E+01  0.1000E+01
    -32.671  0.0000E+00  0.0000E+00  0.1000E+01  0.1000E+01
    -32.476  0.0000E+00  0.0000E+00  0.1000E+01  0.1000E+01
    -32.281  0.0000E+00  0.0000E+00  0.1000E+01  0.1000E+01
    -32.086  0.0000E+00  0.0000E+00  0.1000E+01  0.1000E+01
    -31.891  0.0000E+00  0.0000E+00  0.1000E+01  0.1000E+01
    -31.697  0.0000E+00  0.0000E+00  0.1000E+01  0.1000E+01
    -31.502  0.0000E+00  0.0000E+00  0.1000E+01  0.1000E+01
    -31.307  0.0000E+00  0.0000E+00  0.1000E+01  0.1000E+01
    -31.112  0.0000E+00  0.0000E+00  0.1000E+01  0.1000E+01
    -30.917  0.0000E+00  0.0000E+00  0.1000E+01  0.1000E+01
    -30.722  0.0000E+00  0.0000E+00  0.1000E+01  0.1000E+01
    -30.528  0.0000E+00  0.0000E+00  0.1000E+01  0.1000E+01
    -30.333  0.0000E+00  0.0000E+00  0.1000E+01  0.1000E+01
    -30.138  0.0000E+00  0.0000E+00  0.1000E+01  0.1000E+01
    -29.943  0.0000E+00  0.0000E+00  0.1000E+01  0.1000E+01
    -29.748  0.0000E+00  0.0000E+00  0.1000E+01  0.1000E+01
    -29.553  0.0000E+00  0.0000E+00  0.1000E+01  0.1000E+01
    -29.358  0.0000E+00  0.0000E+00  0.1000E+01  0.1000E+01
    -29.164  0.0000E+00  0.0000E+00  0.1000E+01  0.1000E+01
    -28.969  0.0000E+00  0.0000E+00  0.1000E+01  0.1000E+01
    -28.774  0.0000E+00  0.0000E+00  0.1000E+01  0.1000E+01
    -28.579  0.0000E+00  0.0000E+00  0.1000E+01  0.1000E+01
    -28.384  0.0000E+00  0.0000E+00  0.1000E+01  0.1000E+01
    -28.189  0.0000E+00  0.0000E+00  0.1000E+01  0.1000E+01
    -27.995  0.0000E+00  0.0000E+00  0.1000E+01  0.1000E+01
    -27.800  0.0000E+00  0.0000E+00  0.1000E+01  0.1000E+01
    -27.605  0.0000E+00  0.0000E+00  0.1000E+01  0.1000E+01
    -27.410  0.0000E+00  0.0000E+00  0.1000E+01  0.1000E+01
    -27.215  0.0000E+00  0.0000E+00  0.1000E+01  0.1000E+01
    -27.020  0.0000E+00  0.0000E+00  0.1000E+01  0.1000E+01
    -26.826  0.0000E+00  0.0000E+00  0.1000E+01  0.1000E+01
    -26.631  0.0000E+00  0.0000E+00  0.1000E+01  0.1000E+01
    -26.436  0.0000E+00  0.0000E+00  0.1000E+01  0.1000E+01
    -26.241  0.0000E+00  0.0000E+00  0.1000E+01  0.1000E+01
    -26.046  0.0000E+00  0.0000E+00  0.1000E+01  0.1000E+01
    -25.851  0.0000E+00  0.0000E+00  0.1000E+01  0.1000E+01
    -25.657  0.0000E+00  0.0000E+00  0.1000E+01  0.1000E+01
    -25.462  0.0000E+00  0.0000E+00  0.1000E+01  0.1000E+01
    -25.267  0.0000E+00  0.0000E+00  0.1000E+01  0.1000E+01
    -25.072  0.0000E+00  0.0000E+00  0.1000E+01  0.1000E+01
    -24.877  0.0000E+00  0.0000E+00  0.1000E+01  0.1000E+01
    -24.682  0.0000E+00  0.0000E+00  0.1000E+01  0.1000E+01
    -24.488  0.0000E+00  0.0000E+00  0.1000E+01  0.1000E+01
    -24.293  0.0000E+00  0.0000E+00  0.1000E+01  0.1000E+01
    -24.098  0.0000E+00  0.0000E+00  0.1000E+01  0.1000E+01
    -23.903  0.0000E+00  0.0000E+00  0.1000E+01  0.1000E+01
    -23.708  0.0000E+00  0.0000E+00  0.1000E+01  0.1000E+01
    -23.513  0.0000E+00  0.0000E+00  0.1000E+01  0.1000E+01
    -23.319  0.0000E+00  0.0000E+00  0.1000E+01  0.1000E+01
    -23.124  0.0000E+00  0.0000E+00  0.1000E+01  0.1000E+01
    -22.929  0.0000E+00  0.0000E+00  0.1000E+01  0.1000E+01
    -22.734  0.0000E+00  0.0000E+00  0.1000E+01  0.1000E+01
    -22.539  0.0000E+00  0.0000E+00  0.1000E+01  0.1000E+01
    -22.344  0.3872E-02  0.3830E-02  0.1001E+01  0.1001E+01
    -22.150  0.1845E+00  0.1825E+00  0.1037E+01  0.1036E+01
    -21.955  0.5626E+01  0.5589E+01  0.2133E+01  0.2125E+01
    -21.760  0.9080E+01  0.9115E+01  0.3902E+01  0.3901E+01
    -21.565  0.4919E+00  0.4972E+00  0.3998E+01  0.3998E+01
    -21.370  0.0000E+00  0.0000E+00  0.4000E+01  0.4000E+01
    -21.175  0.0000E+00  0.0000E+00  0.4000E+01  0.4000E+01
    -20.981  0.0000E+00  0.0000E+00  0.4000E+01  0.4000E+01
    -20.786  0.0000E+00  0.0000E+00  0.4000E+01  0.4000E+01
    -20.591  0.0000E+00  0.0000E+00  0.4000E+01  0.4000E+01
    -20.396  0.0000E+00  0.0000E+00  0.4000E+01  0.4000E+01
    -20.201  0.0000E+00  0.0000E+00  0.4000E+01  0.4000E+01
    -20.006  0.0000E+00  0.0000E+00  0.4000E+01  0.4000E+01
    -19.812  0.0000E+00  0.0000E+00  0.4000E+01  0.4000E+01
    -19.617  0.0000E+00  0.0000E+00  0.4000E+01  0.4000E+01
    -19.422  0.0000E+00  0.0000E+00  0.4000E+01  0.4000E+01
    -19.227  0.0000E+00  0.0000E+00  0.4000E+01  0.4000E+01
    -19.032  0.0000E+00  0.0000E+00  0.4000E+01  0.4000E+01
    -18.837  0.0000E+00  0.0000E+00  0.4000E+01  0.4000E+01
    -18.643  0.0000E+00  0.0000E+00  0.4000E+01  0.4000E+01
    -18.448  0.0000E+00  0.0000E+00  0.4000E+01  0.4000E+01
    -18.253  0.0000E+00  0.0000E+00  0.4000E+01  0.4000E+01
    -18.058  0.0000E+00  0.0000E+00  0.4000E+01  0.4000E+01
    -17.863  0.0000E+00  0.0000E+00  0.4000E+01  0.4000E+01
    -17.668  0.0000E+00  0.0000E+00  0.4000E+01  0.4000E+01
    -17.474  0.0000E+00  0.0000E+00  0.4000E+01  0.4000E+01
    -17.279  0.0000E+00  0.0000E+00  0.4000E+01  0.4000E+01
    -17.084  0.0000E+00  0.0000E+00  0.4000E+01  0.4000E+01
    -16.889  0.0000E+00  0.0000E+00  0.4000E+01  0.4000E+01
    -16.694  0.0000E+00  0.0000E+00  0.4000E+01  0.4000E+01
    -16.499  0.0000E+00  0.0000E+00  0.4000E+01  0.4000E+01
    -16.304  0.0000E+00  0.0000E+00  0.4000E+01  0.4000E+01
    -16.110  0.0000E+00  0.0000E+00  0.4000E+01  0.4000E+01
    -15.915  0.0000E+00  0.0000E+00  0.4000E+01  0.4000E+01
    -15.720  0.0000E+00  0.0000E+00  0.4000E+01  0.4000E+01
    -15.525  0.0000E+00  0.0000E+00  0.4000E+01  0.4000E+01
    -15.330  0.0000E+00  0.0000E+00  0.4000E+01  0.4000E+01
    -15.135  0.0000E+00  0.0000E+00  0.4000E+01  0.4000E+01
    -14.941  0.0000E+00  0.0000E+00  0.4000E+01  0.4000E+01
    -14.746  0.0000E+00  0.0000E+00  0.4000E+01  0.4000E+01
    -14.551  0.0000E+00  0.0000E+00  0.4000E+01  0.4000E+01
    -14.356  0.0000E+00  0.0000E+00  0.4000E+01  0.4000E+01
    -14.161  0.0000E+00  0.0000E+00  0.4000E+01  0.4000E+01
    -13.966  0.0000E+00  0.0000E+00  0.4000E+01  0.4000E+01
    -13.772  0.0000E+00  0.0000E+00  0.4000E+01  0.4000E+01
    -13.577  0.0000E+00  0.0000E+00  0.4000E+01  0.4000E+01
    -13.382  0.0000E+00  0.0000E+00  0.4000E+01  0.4000E+01
    -13.187  0.0000E+00  0.0000E+00  0.4000E+01  0.4000E+01
    -12.992  0.0000E+00  0.0000E+00  0.4000E+01  0.4000E+01
    -12.797  0.0000E+00  0.0000E+00  0.4000E+01  0.4000E+01
    -12.603  0.0000E+00  0.0000E+00  0.4000E+01  0.4000E+01
    -12.408  0.0000E+00  0.0000E+00  0.4000E+01  0.4000E+01
    -12.213  0.0000E+00  0.0000E+00  0.4000E+01  0.4000E+01
    -12.018  0.0000E+00  0.0000E+00  0.4000E+01  0.4000E+01
    -11.823  0.0000E+00  0.0000E+00  0.4000E+01  0.4000E+01
    -11.628  0.0000E+00  0.0000E+00  0.4000E+01  0.4000E+01
    -11.434  0.0000E+00  0.0000E+00  0.4000E+01  0.4000E+01
    -11.239  0.0000E+00  0.0000E+00  0.4000E+01  0.4000E+01
    -11.044  0.0000E+00  0.0000E+00  0.4000E+01  0.4000E+01
    -10.849  0.0000E+00  0.0000E+00  0.4000E+01  0.4000E+01
    -10.654  0.0000E+00  0.0000E+00  0.4000E+01  0.4000E+01
    -10.459  0.0000E+00  0.0000E+00  0.4000E+01  0.4000E+01
    -10.265  0.0000E+00  0.0000E+00  0.4000E+01  0.4000E+01
    -10.070  0.0000E+00  0.0000E+00  0.4000E+01  0.4000E+01
     -9.875  0.0000E+00  0.0000E+00  0.4000E+01  0.4000E+01
     -9.680  0.0000E+00  0.0000E+00  0.4000E+01  0.4000E+01
     -9.485  0.0000E+00  0.0000E+00  0.4000E+01  0.4000E+01
     -9.290  0.0000E+00  0.0000E+00  0.4000E+01  0.4000E+01
     -9.096  0.0000E+00  0.0000E+00  0.4000E+01  0.4000E+01
     -8.901  0.0000E+00  0.0000E+00  0.4000E+01  0.4000E+01
     -8.706  0.0000E+00  0.0000E+00  0.4000E+01  0.4000E+01
     -8.511  0.0000E+00  0.0000E+00  0.4000E+01  0.4000E+01
     -8.316  0.0000E+00  0.0000E+00  0.4000E+01  0.4000E+01
     -8.121  0.0000E+00  0.0000E+00  0.4000E+01  0.4000E+01
     -7.927  0.0000E+00  0.0000E+00  0.4000E+01  0.4000E+01
     -7.732  0.0000E+00  0.0000E+00  0.4000E+01  0.4000E+01
     -7.537  0.0000E+00  0.0000E+00  0.4000E+01  0.4000E+01
     -7.342  0.0000E+00  0.0000E+00  0.4000E+01  0.4000E+01
     -7.147  0.0000E+00  0.0000E+00  0.4000E+01  0.4000E+01
     -6.952  0.0000E+00  0.0000E+00  0.4000E+01  0.4000E+01
     -6.758  0.0000E+00  0.0000E+00  0.4000E+01  0.4000E+01
     -6.563  0.0000E+00  0.0000E+00  0.4000E+01  0.4000E+01
     -6.368  0.0000E+00  0.0000E+00  0.4000E+01  0.4000E+01
     -6.173  0.0000E+00  0.0000E+00  0.4000E+01  0.4000E+01
     -5.978  0.0000E+00  0.0000E+00  0.4000E+01  0.4000E+01
     -5.783  0.0000E+00  0.0000E+00  0.4000E+01  0.4000E+01
     -5.589  0.0000E+00  0.0000E+00  0.4000E+01  0.4000E+01
     -5.394  0.0000E+00  0.0000E+00  0.4000E+01  0.4000E+01
     -5.199  0.0000E+00  0.0000E+00  0.4000E+01  0.4000E+01
     -5.004  0.0000E+00  0.0000E+00  0.4000E+01  0.4000E+01
     -4.809  0.0000E+00  0.0000E+00  0.4000E+01  0.4000E+01
     -4.614  0.0000E+00  0.0000E+00  0.4000E+01  0.4000E+01
     -4.420  0.0000E+00  0.0000E+00  0.4000E+01  0.4000E+01
     -4.225  0.0000E+00  0.0000E+00  0.4000E+01  0.4000E+01
     -4.030  0.0000E+00  0.0000E+00  0.4000E+01  0.4000E+01
     -3.835  0.0000E+00  0.0000E+00  0.4000E+01  0.4000E+01
     -3.640  0.0000E+00  0.0000E+00  0.4000E+01  0.4000E+01
     -3.445  0.5789E-04  0.5646E-04  0.4000E+01  0.4000E+01
     -3.250  0.2751E-02  0.2684E-02  0.4001E+01  0.4001E+01
     -3.056  0.7800E-01  0.7691E-01  0.4016E+01  0.4016E+01
     -2.861  0.1066E+00  0.1076E+00  0.4037E+01  0.4036E+01
     -2.666  0.1021E+00  0.1002E+00  0.4056E+01  0.4056E+01
     -2.471  0.4217E+00  0.4225E+00  0.4139E+01  0.4138E+01
     -2.276  0.8929E-01  0.8948E-01  0.4156E+01  0.4156E+01
     -2.081  0.4121E+00  0.4107E+00  0.4236E+01  0.4236E+01
     -1.887  0.1548E+00  0.1562E+00  0.4267E+01  0.4266E+01
     -1.692  0.5149E+00  0.5119E+00  0.4368E+01  0.4367E+01
     -1.497  0.2462E+00  0.2488E+00  0.4416E+01  0.4415E+01
     -1.302  0.7303E+00  0.7247E+00  0.4559E+01  0.4558E+01
     -1.107  0.3703E+00  0.3763E+00  0.4631E+01  0.4631E+01
     -0.912  0.3358E+00  0.3326E+00  0.4699E+01  0.4698E+01
     -0.718  0.2530E+00  0.2554E+00  0.4748E+01  0.4748E+01
     -0.523  0.4163E+00  0.4148E+00  0.4830E+01  0.4830E+01
     -0.328  0.1909E+00  0.1916E+00  0.4868E+01  0.4867E+01
     -0.133  0.8235E+00  0.8206E+00  0.5029E+01  0.5028E+01
      0.062  0.2868E+00  0.2902E+00  0.5084E+01  0.5084E+01
      0.257  0.7742E+00  0.7706E+00  0.5236E+01  0.5236E+01
      0.451  0.3584E+00  0.3618E+00  0.5306E+01  0.5306E+01
      0.646  0.5480E+00  0.5463E+00  0.5415E+01  0.5414E+01
      0.841  0.4284E+00  0.4274E+00  0.5498E+01  0.5497E+01
      1.036  0.7999E+00  0.8000E+00  0.5655E+01  0.5654E+01
      1.231  0.6675E+00  0.6675E+00  0.5785E+01  0.5784E+01
      1.426  0.9330E+00  0.9322E+00  0.5967E+01  0.5966E+01
      1.620  0.7988E+00  0.7988E+00  0.6123E+01  0.6122E+01
      1.815  0.4281E+00  0.4299E+00  0.6208E+01  0.6207E+01
      2.010  0.7128E+00  0.7129E+00  0.6349E+01  0.6348E+01
      2.205  0.1619E+00  0.1630E+00  0.6380E+01  0.6380E+01
      2.400  0.9931E+00  0.9846E+00  0.6574E+01  0.6572E+01
      2.595  0.7492E+00  0.7561E+00  0.6720E+01  0.6720E+01
      2.789  0.6513E+00  0.6505E+00  0.6851E+01  0.6851E+01
      2.984  0.3762E+00  0.3766E+00  0.6925E+01  0.6924E+01
      3.179  0.7858E+00  0.7846E+00  0.7079E+01  0.7078E+01
      3.374  0.8389E+00  0.8384E+00  0.7242E+01  0.7241E+01
      3.569  0.5428E+00  0.5430E+00  0.7348E+01  0.7348E+01
      3.764  0.7512E+00  0.7512E+00  0.7496E+01  0.7496E+01
      3.958  0.1326E+01  0.1318E+01  0.7755E+01  0.7752E+01
      4.153  0.2111E+01  0.2118E+01  0.8166E+01  0.8165E+01
      4.348  0.5857E+00  0.5864E+00  0.8282E+01  0.8281E+01
      4.543  0.1251E+01  0.1243E+01  0.8527E+01  0.8524E+01
      4.738  0.1297E+01  0.1307E+01  0.8780E+01  0.8779E+01
      4.933  0.7574E+00  0.7545E+00  0.8929E+01  0.8928E+01
      5.127  0.1635E+01  0.1629E+01  0.9248E+01  0.9245E+01
      5.322  0.1130E+01  0.1140E+01  0.9468E+01  0.9468E+01
      5.517  0.2093E+00  0.2084E+00  0.9510E+01  0.9510E+01
      5.712  0.7548E+00  0.7517E+00  0.9657E+01  0.9656E+01
      5.907  0.7712E+00  0.7754E+00  0.9808E+01  0.9807E+01
      6.102  0.3452E+00  0.3425E+00  0.9875E+01  0.9874E+01
      6.296  0.1148E+01  0.1144E+01  0.1010E+02  0.1010E+02
      6.491  0.9986E+00  0.1003E+01  0.1029E+02  0.1029E+02
      6.686  0.1049E+01  0.1045E+01  0.1050E+02  0.1050E+02
      6.881  0.8785E+00  0.8799E+00  0.1067E+02  0.1067E+02
      7.076  0.1737E+01  0.1736E+01  0.1101E+02  0.1101E+02
      7.271  0.1045E+01  0.1047E+01  0.1121E+02  0.1121E+02
      7.465  0.1588E+01  0.1583E+01  0.1153E+02  0.1152E+02
      7.660  0.1692E+01  0.1697E+01  0.1185E+02  0.1185E+02
      7.855  0.1157E+01  0.1156E+01  0.1208E+02  0.1208E+02
      8.050  0.2416E+01  0.2414E+01  0.1255E+02  0.1255E+02
      8.245  0.2134E+01  0.2135E+01  0.1297E+02  0.1297E+02
      8.440  0.2712E+01  0.2710E+01  0.1350E+02  0.1350E+02
      8.635  0.2317E+01  0.2320E+01  0.1395E+02  0.1395E+02
      8.829  0.1108E+01  0.1119E+01  0.1417E+02  0.1417E+02
      9.024  0.1571E+01  0.1572E+01  0.1448E+02  0.1448E+02
      9.219  0.2030E+01  0.2056E+01  0.1488E+02  0.1488E+02
      9.414  0.1106E+01  0.1439E+01  0.1509E+02  0.1516E+02
      9.609  0.1782E+01  0.1489E+01  0.1544E+02  0.1545E+02
      9.804  0.1771E+01  0.1431E+01  0.1578E+02  0.1573E+02
      9.998  0.1029E+01  0.1273E+01  0.1599E+02  0.1598E+02
     10.193  0.5889E-01  0.8499E-01  0.1600E+02  0.1600E+02
     10.388  0.0000E+00  0.0000E+00  0.1600E+02  0.1600E+02
     10.583  0.0000E+00  0.0000E+00  0.1600E+02  0.1600E+02
     10.778  0.0000E+00  0.0000E+00  0.1600E+02  0.1600E+02
     10.973  0.0000E+00  0.0000E+00  0.1600E+02  0.1600E+02
     11.167  0.0000E+00  0.0000E+00  0.1600E+02  0.1600E+02
     11.362  0.0000E+00  0.0000E+00  0.1600E+02  0.1600E+02
     11.557  0.0000E+00  0.0000E+00  0.1600E+02  0.1600E+02
     11.752  0.0000E+00  0.0000E+00  0.1600E+02  0.1600E+02
     11.947  0.0000E+00  0.0000E+00  0.1600E+02  0.1600E+02
     12.142  0.0000E+00  0.0000E+00  0.1600E+02  0.1600E+02
     12.336  0.0000E+00  0.0000E+00  0.1600E+02  0.1600E+02
     12.531  0.0000E+00  0.0000E+00  0.1600E+02  0.1600E+02
     12.53122059    -45.91954510  301      6.23109175      1.00000000
    -45.920  0.0000E+00  0.0000E+00  0.0000E+00  0.0000E+00  0.0000E+00  0.0000E+00  0.0000E+00  0.0000E+00  0.0000E+00  0.0000E+00  0.0000E+00  0.0000E+00  0.0000E+00  0.0000E+00  0.0000E+00  0.0000E+00  0.0000E+00  0.0000E+00
    -45.725  0.0000E+00  0.0000E+00  0.0000E+00  0.0000E+00  0.0000E+00  0.0000E+00  0.0000E+00  0.0000E+00  0.0000E+00  0.0000E+00  0.0000E+00  0.0000E+00  0.0000E+00  0.0000E+00  0.0000E+00  0.0000E+00  0.0000E+00  0.0000E+00
    -45.530  0.0000E+00  0.0000E+00  0.0000E+00  0.0000E+00  0.0000E+00  0.0000E+00  0.0000E+00  0.0000E+00  0.0000E+00  0.0000E+00  0.0000E+00  0.0000E+00  0.0000E+00  0.0000E+00  0.0000E+00  0.0000E+00  0.0000E+00  0.0000E+00
    -45.335  0.0000E+00  0.0000E+00  0.0000E+00  0.0000E+00  0.0000E+00  0.0000E+00  0.0000E+00  0.0000E+00  0.0000E+00  0.0000E+00  0.0000E+00  0.0000E+00  0.0000E+00  0.0000E+00  0.0000E+00  0.0000E+00  0.0000E+00  0.0000E+00
    -45.140  0.0000E+00  0.0000E+00  0.0000E+00  0.0000E+00  0.0000E+00  0.0000E+00  0.0000E+00  0.0000E+00  0.0000E+00  0.0000E+00  0.0000E+00  0.0000E+00  0.0000E+00  0.0000E+00  0.0000E+00  0.0000E+00  0.0000E+00  0.0000E+00
    -44.945  0.0000E+00  0.0000E+00  0.0000E+00  0.0000E+00  0.0000E+00  0.0000E+00  0.0000E+00  0.0000E+00  0.0000E+00  0.0000E+00  0.0000E+00  0.0000E+00  0.0000E+00  0.0000E+00  0.0000E+00  0.0000E+00  0.0000E+00  0.0000E+00
    -44.751  0.0000E+00  0.0000E+00  0.0000E+00  0.0000E+00  0.0000E+00  0.0000E+00  0.0000E+00  0.0000E+00  0.0000E+00  0.0000E+00  0.0000E+00  0.0000E+00  0.0000E+00  0.0000E+00  0.0000E+00  0.0000E+00  0.0000E+00  0.0000E+00
    -44.556  0.0000E+00  0.0000E+00  0.0000E+00  0.0000E+00  0.0000E+00  0.0000E+00  0.0000E+00  0.0000E+00  0.0000E+00  0.0000E+00  0.0000E+00  0.0000E+00  0.0000E+00  0.0000E+00  0.0000E+00  0.0000E+00  0.0000E+00  0.0000E+00
    -44.361  0.0000E+00  0.0000E+00  0.0000E+00  0.0000E+00  0.0000E+00  0.0000E+00  0.0000E+00  0.0000E+00  0.0000E+00  0.0000E+00  0.0000E+00  0.0000E+00  0.0000E+00  0.0000E+00  0.0000E+00  0.0000E+00  0.0000E+00  0.0000E+00
    -44.166  0.0000E+00  0.0000E+00  0.0000E+00  0.0000E+00  0.0000E+00  0.0000E+00  0.0000E+00  0.0000E+00  0.0000E+00  0.0000E+00  0.0000E+00  0.0000E+00  0.0000E+00  0.0000E+00  0.0000E+00  0.0000E+00  0.0000E+00  0.0000E+00
    -43.971  0.0000E+00  0.0000E+00  0.0000E+00  0.0000E+00  0.0000E+00  0.0000E+00  0.0000E+00  0.0000E+00  0.0000E+00  0.0000E+00  0.0000E+00  0.0000E+00  0.0000E+00  0.0000E+00  0.0000E+00  0.0000E+00  0.0000E+00  0.0000E+00
    -43.776  0.1731E-03  0.1740E-03  0.1020E-12  0.1047E-12  0.1020E-12  0.1047E-12  0.1020E-12  0.1047E-12  0.1150E-12  0.1401E-12  0.1150E-12  0.1401E-12  0.1703E-12  0.4114E-12  0.1150E-12  0.1401E-12  0.1703E-12  0.4114E-12
    -43.582  0.8336E-02  0.8380E-02  0.4910E-11  0.5045E-11  0.4910E-11  0.5045E-11  0.4910E-11  0.5045E-11  0.5536E-11  0.6746E-11  0.5536E-11  0.6746E-11  0.8200E-11  0.1981E-10  0.5536E-11  0.6746E-11  0.8200E-11  0.1981E-10
    -43.387  0.3794E+00  0.3812E+00  0.2234E-09  0.2295E-09  0.2234E-09  0.2295E-09  0.2234E-09  0.2295E-09  0.2520E-09  0.3068E-09  0.2520E-09  0.3068E-09  0.3731E-09  0.9012E-09  0.2520E-09  0.3068E-09  0.3731E-09  0.9012E-09
    -43.192  0.3711E+01  0.3713E+01  0.2185E-08  0.2235E-08  0.2185E-08  0.2235E-08  0.2185E-08  0.2235E-08  0.2470E-08  0.2989E-08  0.2470E-08  0.2989E-08  0.3644E-08  0.8768E-08  0.2470E-08  0.2989E-08  0.3644E-08  0.8768E-08
    -42.997  0.9885E+00  0.9844E+00  0.5818E-09  0.5922E-09  0.5818E-09  0.5922E-09  0.5818E-09  0.5922E-09  0.6593E-09  0.7924E-09  0.6593E-09  0.7924E-09  0.9689E-09  0.2321E-08  0.6593E-09  0.7924E-09  0.9689E-09  0.2321E-08
    -42.802  0.0000E+00  0.0000E+00  0.0000E+00  0.0000E+00  0.0000E+00  0.0000E+00  0.0000E+00  0.0000E+00  0.0000E+00  0.0000E+00  0.0000E+00  0.0000E+00  0.0000E+00  0.0000E+00  0.0000E+00  0.0000E+00  0.0000E+00  0.0000E+00
    -42.607  0.0000E+00  0.0000E+00  0.0000E+00  0.0000E+00  0.0000E+00  0.0000E+00  0.0000E+00  0.0000E+00  0.0000E+00  0.0000E+00  0.0000E+00  0.0000E+00  0.0000E+00  0.0000E+00  0.0000E+00  0.0000E+00  0.0000E+00  0.0000E+00
    -42.412  0.0000E+00  0.0000E+00  0.0000E+00  0.0000E+00  0.0000E+00  0.0000E+00  0.0000E+00  0.0000E+00  0.0000E+00  0.0000E+00  0.0000E+00  0.0000E+00  0.0000E+00  0.0000E+00  0.0000E+00  0.0000E+00  0.0000E+00  0.0000E+00
    -42.218  0.0000E+00  0.0000E+00  0.0000E+00  0.0000E+00  0.0000E+00  0.0000E+00  0.0000E+00  0.0000E+00  0.0000E+00  0.0000E+00  0.0000E+00  0.0000E+00  0.0000E+00  0.0000E+00  0.0000E+00  0.0000E+00  0.0000E+00  0.0000E+00
    -42.023  0.0000E+00  0.0000E+00  0.0000E+00  0.0000E+00  0.0000E+00  0.0000E+00  0.0000E+00  0.0000E+00  0.0000E+00  0.0000E+00  0.0000E+00  0.0000E+00  0.0000E+00  0.0000E+00  0.0000E+00  0.0000E+00  0.0000E+00  0.0000E+00
    -41.828  0.0000E+00  0.0000E+00  0.0000E+00  0.0000E+00  0.0000E+00  0.0000E+00  0.0000E+00  0.0000E+00  0.0000E+00  0.0000E+00  0.0000E+00  0.0000E+00  0.0000E+00  0.0000E+00  0.0000E+00  0.0000E+00  0.0000E+00  0.0000E+00
    -41.633  0.0000E+00  0.0000E+00  0.0000E+00  0.0000E+00  0.0000E+00  0.0000E+00  0.0000E+00  0.0000E+00  0.0000E+00  0.0000E+00  0.0000E+00  0.0000E+00  0.0000E+00  0.0000E+00  0.0000E+00  0.0000E+00  0.0000E+00  0.0000E+00
    -41.438  0.0000E+00  0.0000E+00  0.0000E+00  0.0000E+00  0.0000E+00  0.0000E+00  0.0000E+00  0.0000E+00  0.0000E+00  0.0000E+00  0.0000E+00  0.0000E+00  0.0000E+00  0.0000E+00  0.0000E+00  0.0000E+00  0.0000E+00  0.0000E+00
    -41.243  0.0000E+00  0.0000E+00  0.0000E+00  0.0000E+00  0.0000E+00  0.0000E+00  0.0000E+00  0.0000E+00  0.0000E+00  0.0000E+00  0.0000E+00  0.0000E+00  0.0000E+00  0.0000E+00  0.0000E+00  0.0000E+00  0.0000E+00  0.0000E+00
    -41.049  0.0000E+00  0.0000E+00  0.0000E+00  0.0000E+00  0.0000E+00  0.0000E+00  0.0000E+00  0.0000E+00  0.0000E+00  0.0000E+00  0.0000E+00  0.0000E+00  0.0000E+00  0.0000E+00  0.0000E+00  0.0000E+00  0.0000E+00  0.0000E+00
    -40.854  0.0000E+00  0.0000E+00  0.0000E+00  0.0000E+00  0.0000E+00  0.0000E+00  0.0000E+00  0.0000E+00  0.0000E+00  0.0000E+00  0.0000E+00  0.0000E+00  0.0000E+00  0.0000E+00  0.0000E+00  0.0000E+00  0.0000E+00  0.0000E+00
    -40.659  0.0000E+00  0.0000E+00  0.0000E+00  0.0000E+00  0.0000E+00  0.0000E+00  0.0000E+00  0.0000E+00  0.0000E+00  0.0000E+00  0.0000E+00  0.0000E+00  0.0000E+00  0.0000E+00  0.0000E+00  0.0000E+00  0.0000E+00  0.0000E+00
    -40.464  0.0000E+00  0.0000E+00  0.0000E+00  0.0000E+00  0.0000E+00  0.0000E+00  0.0000E+00  0.0000E+00  0.0000E+00  0.0000E+00  0.0000E+00  0.0000E+00  0.0000E+00  0.0000E+00  0.0000E+00  0.0000E+00  0.0000E+00  0.0000E+00
    -40.269  0.0000E+00  0.0000E+00  0.0000E+00  0.0000E+00  0.0000E+00  0.0000E+00  0.0000E+00  0.0000E+00  0.0000E+00  0.0000E+00  0.0000E+00  0.0000E+00  0.0000E+00  0.0000E+00  0.0000E+00  0.0000E+00  0.0000E+00  0.0000E+00
    -40.074  0.0000E+00  0.0000E+00  0.0000E+00  0.0000E+00  0.0000E+00  0.0000E+00  0.0000E+00  0.0000E+00  0.0000E+00  0.0000E+00  0.0000E+00  0.0000E+00  0.0000E+00  0.0000E+00  0.0000E+00  0.0000E+00  0.0000E+00  0.0000E+00
    -39.880  0.0000E+00  0.0000E+00  0.0000E+00  0.0000E+00  0.0000E+00  0.0000E+00  0.0000E+00  0.0000E+00  0.0000E+00  0.0000E+00  0.0000E+00  0.0000E+00  0.0000E+00  0.0000E+00  0.0000E+00  0.0000E+00  0.0000E+00  0.0000E+00
    -39.685  0.0000E+00  0.0000E+00  0.0000E+00  0.0000E+00  0.0000E+00  0.0000E+00  0.0000E+00  0.0000E+00  0.0000E+00  0.0000E+00  0.0000E+00  0.0000E+00  0.0000E+00  0.0000E+00  0.0000E+00  0.0000E+00  0.0000E+00  0.0000E+00
    -39.490  0.0000E+00  0.0000E+00  0.0000E+00  0.0000E+00  0.0000E+00  0.0000E+00  0.0000E+00  0.0000E+00  0.0000E+00  0.0000E+00  0.0000E+00  0.0000E+00  0.0000E+00  0.0000E+00  0.0000E+00  0.0000E+00  0.0000E+00  0.0000E+00
    -39.295  0.0000E+00  0.0000E+00  0.0000E+00  0.0000E+00  0.0000E+00  0.0000E+00  0.0000E+00  0.0000E+00  0.0000E+00  0.0000E+00  0.0000E+00  0.0000E+00  0.0000E+00  0.0000E+00  0.0000E+00  0.0000E+00  0.0000E+00  0.0000E+00
    -39.100  0.0000E+00  0.0000E+00  0.0000E+00  0.0000E+00  0.0000E+00  0.0000E+00  0.0000E+00  0.0000E+00  0.0000E+00  0.0000E+00  0.0000E+00  0.0000E+00  0.0000E+00  0.0000E+00  0.0000E+00  0.0000E+00  0.0000E+00  0.0000E+00
    -38.905  0.0000E+00  0.0000E+00  0.0000E+00  0.0000E+00  0.0000E+00  0.0000E+00  0.0000E+00  0.0000E+00  0.0000E+00  0.0000E+00  0.0000E+00  0.0000E+00  0.0000E+00  0.0000E+00  0.0000E+00  0.0000E+00  0.0000E+00  0.0000E+00
    -38.711  0.0000E+00  0.0000E+00  0.0000E+00  0.0000E+00  0.0000E+00  0.0000E+00  0.0000E+00  0.0000E+00  0.0000E+00  0.0000E+00  0.0000E+00  0.0000E+00  0.0000E+00  0.0000E+00  0.0000E+00  0.0000E+00  0.0000E+00  0.0000E+00
    -38.516  0.0000E+00  0.0000E+00  0.0000E+00  0.0000E+00  0.0000E+00  0.0000E+00  0.0000E+00  0.0000E+00  0.0000E+00  0.0000E+00  0.0000E+00  0.0000E+00  0.0000E+00  0.0000E+00  0.0000E+00  0.0000E+00  0.0000E+00  0.0000E+00
    -38.321  0.0000E+00  0.0000E+00  0.0000E+00  0.0000E+00  0.0000E+00  0.0000E+00  0.0000E+00  0.0000E+00  0.0000E+00  0.0000E+00  0.0000E+00  0.0000E+00  0.0000E+00  0.0000E+00  0.0000E+00  0.0000E+00  0.0000E+00  0.0000E+00
    -38.126  0.0000E+00  0.0000E+00  0.0000E+00  0.0000E+00  0.0000E+00  0.0000E+00  0.0000E+00  0.0000E+00  0.0000E+00  0.0000E+00  0.0000E+00  0.0000E+00  0.0000E+00  0.0000E+00  0.0000E+00  0.0000E+00  0.0000E+00  0.0000E+00
    -37.931  0.0000E+00  0.0000E+00  0.0000E+00  0.0000E+00  0.0000E+00  0.0000E+00  0.0000E+00  0.0000E+00  0.0000E+00  0.0000E+00  0.0000E+00  0.0000E+00  0.0000E+00  0.0000E+00  0.0000E+00  0.0000E+00  0.0000E+00  0.0000E+00
    -37.736  0.0000E+00  0.0000E+00  0.0000E+00  0.0000E+00  0.0000E+00  0.0000E+00  0.0000E+00  0.0000E+00  0.0000E+00  0.0000E+00  0.0000E+00  0.0000E+00  0.0000E+00  0.0000E+00  0.0000E+00  0.0000E+00  0.0000E+00  0.0000E+00
    -37.542  0.0000E+00  0.0000E+00  0.0000E+00  0.0000E+00  0.0000E+00  0.0000E+00  0.0000E+00  0.0000E+00  0.0000E+00  0.0000E+00  0.0000E+00  0.0000E+00  0.0000E+00  0.0000E+00  0.0000E+00  0.0000E+00  0.0000E+00  0.0000E+00
    -37.347  0.0000E+00  0.0000E+00  0.0000E+00  0.0000E+00  0.0000E+00  0.0000E+00  0.0000E+00  0.0000E+00  0.0000E+00  0.0000E+00  0.0000E+00  0.0000E+00  0.0000E+00  0.0000E+00  0.0000E+00  0.0000E+00  0.0000E+00  0.0000E+00
    -37.152  0.0000E+00  0.0000E+00  0.0000E+00  0.0000E+00  0.0000E+00  0.0000E+00  0.0000E+00  0.0000E+00  0.0000E+00  0.0000E+00  0.0000E+00  0.0000E+00  0.0000E+00  0.0000E+00  0.0000E+00  0.0000E+00  0.0000E+00  0.0000E+00
    -36.957  0.0000E+00  0.0000E+00  0.0000E+00  0.0000E+00  0.0000E+00  0.0000E+00  0.0000E+00  0.0000E+00  0.0000E+00  0.0000E+00  0.0000E+00  0.0000E+00  0.0000E+00  0.0000E+00  0.0000E+00  0.0000E+00  0.0000E+00  0.0000E+00
    -36.762  0.0000E+00  0.0000E+00  0.0000E+00  0.0000E+00  0.0000E+00  0.0000E+00  0.0000E+00  0.0000E+00  0.0000E+00  0.0000E+00  0.0000E+00  0.0000E+00  0.0000E+00  0.0000E+00  0.0000E+00  0.0000E+00  0.0000E+00  0.0000E+00
    -36.567  0.0000E+00  0.0000E+00  0.0000E+00  0.0000E+00  0.0000E+00  0.0000E+00  0.0000E+00  0.0000E+00  0.0000E+00  0.0000E+00  0.0000E+00  0.0000E+00  0.0000E+00  0.0000E+00  0.0000E+00  0.0000E+00  0.0000E+00  0.0000E+00
    -36.373  0.0000E+00  0.0000E+00  0.0000E+00  0.0000E+00  0.0000E+00  0.0000E+00  0.0000E+00  0.0000E+00  0.0000E+00  0.0000E+00  0.0000E+00  0.0000E+00  0.0000E+00  0.0000E+00  0.0000E+00  0.0000E+00  0.0000E+00  0.0000E+00
    -36.178  0.0000E+00  0.0000E+00  0.0000E+00  0.0000E+00  0.0000E+00  0.0000E+00  0.0000E+00  0.0000E+00  0.0000E+00  0.0000E+00  0.0000E+00  0.0000E+00  0.0000E+00  0.0000E+00  0.0000E+00  0.0000E+00  0.0000E+00  0.0000E+00