   4   4   1   0
  0.1484181E+02  0.3901057E-09  0.3901057E-09  0.3901057E-09  0.5000000E-15
  1.000000000000000E-004
  CAR 
 unknown system                          
     16.43076022    -42.55472981  301      8.68929658      1.00000000
    -42.555  0.0000E+00  0.0000E+00  0.0000E+00  0.0000E+00
    -42.358  0.0000E+00  0.0000E+00  0.0000E+00  0.0000E+00
    -42.161  0.0000E+00  0.0000E+00  0.0000E+00  0.0000E+00
    -41.965  0.0000E+00  0.0000E+00  0.0000E+00  0.0000E+00
    -41.768  0.0000E+00  0.0000E+00  0.0000E+00  0.0000E+00
    -41.572  0.0000E+00  0.0000E+00  0.0000E+00  0.0000E+00
    -41.375  0.0000E+00  0.0000E+00  0.0000E+00  0.0000E+00
    -41.178  0.0000E+00  0.0000E+00  0.0000E+00  0.0000E+00
    -40.982  0.0000E+00  0.0000E+00  0.0000E+00  0.0000E+00
    -40.785  0.0000E+00  0.0000E+00  0.0000E+00  0.0000E+00
    -40.589  0.0000E+00  0.0000E+00  0.0000E+00  0.0000E+00
    -40.392  0.1477E-03  0.1489E-03  0.2903E-04  0.2927E-04
    -40.195  0.7376E-02  0.7436E-02  0.1479E-02  0.1491E-02
    -39.999  0.3499E+00  0.3526E+00  0.7028E-01  0.7081E-01
    -39.802  0.3681E+01  0.3685E+01  0.7940E+00  0.7953E+00
    -39.605  0.1022E+01  0.1015E+01  0.9949E+00  0.9950E+00
    -39.409  0.0000E+00  0.0000E+00  0.1000E+01  0.1000E+01
    -39.212  0.0000E+00  0.0000E+00  0.1000E+01  0.1000E+01
    -39.016  0.0000E+00  0.0000E+00  0.1000E+01  0.1000E+01
    -38.819  0.0000E+00  0.0000E+00  0.1000E+01  0.1000E+01
    -38.622  0.0000E+00  0.0000E+00  0.1000E+01  0.1000E+01
    -38.426  0.0000E+00  0.0000E+00  0.1000E+01  0.1000E+01
    -38.229  0.0000E+00  0.0000E+00  0.1000E+01  0.1000E+01
    -38.033  0.0000E+00  0.0000E+00  0.1000E+01  0.1000E+01
    -37.836  0.0000E+00  0.0000E+00  0.1000E+01  0.1000E+01
    -37.639  0.0000E+00  0.0000E+00  0.1000E+01  0.1000E+01
    -37.443  0.0000E+00  0.0000E+00  0.1000E+01  0.1000E+01
    -37.246  0.0000E+00  0.0000E+00  0.1000E+01  0.1000E+01
    -37.049  0.0000E+00  0.0000E+00  0.1000E+01  0.1000E+01
    -36.853  0.0000E+00  0.0000E+00  0.1000E+01  0.1000E+01
    -36.656  0.0000E+00  0.0000E+00  0.1000E+01  0.1000E+01
    -36.460  0.0000E+00  0.0000E+00  0.1000E+01  0.1000E+01
    -36.263  0.0000E+00  0.0000E+00  0.1000E+01  0.1000E+01
    -36.066  0.0000E+00  0.0000E+00  0.1000E+01  0.1000E+01
    -35.870  0.0000E+00  0.0000E+00  0.1000E+01  0.1000E+01
    -35.673  0.0000E+00  0.0000E+00  0.1000E+01  0.1000E+01
    -35.476  0.0000E+00  0.0000E+00  0.1000E+01  0.1000E+01
    -35.280  0.0000E+00  0.0000E+00  0.1000E+01  0.1000E+01
    -35.083  0.0000E+00  0.0000E+00  0.1000E+01  0.1000E+01
    -34.887  0.0000E+00  0.0000E+00  0.1000E+01  0.1000E+01
    -34.690  0.0000E+00  0.0000E+00  0.1000E+01  0.1000E+01
    -34.493  0.0000E+00  0.0000E+00  0.1000E+01  0.1000E+01
    -34.297  0.0000E+00  0.0000E+00  0.1000E+01  0.1000E+01
    -34.100  0.0000E+00  0.0000E+00  0.1000E+01  0.1000E+01
    -33.904  0.0000E+00  0.0000E+00  0.1000E+01  0.1000E+01
    -33.707  0.0000E+00  0.0000E+00  0.1000E+01  0.1000E+01
    -33.510  0.0000E+00  0.0000E+00  0.1000E+01  0.1000E+01
    -33.314  0.0000E+00  0.0000E+00  0.1000E+01  0.1000E+01
    -33.117  0.0000E+00  0.0000E+00  0.1000E+01  0.1000E+01
    -32.920  0.0000E+00  0.0000E+00  0.1000E+01  0.1000E+01
    -32.724  0.0000E+00  0.0000E+00  0.1000E+01  0.1000E+01
    -32.527  0.0000E+00  0.0000E+00  0.1000E+01  0.1000E+01
    -32.331  0.0000E+00  0.0000E+00  0.1000E+01  0.1000E+01
    -32.134  0.0000E+00  0.0000E+00  0.1000E+01  0.1000E+01
    -31.937  0.0000E+00  0.0000E+00  0.1000E+01  0.1000E+01
    -31.741  0.0000E+00  0.0000E+00  0.1000E+01  0.1000E+01
    -31.544  0.0000E+00  0.0000E+00  0.1000E+01  0.1000E+01
    -31.347  0.0000E+00  0.0000E+00  0.1000E+01  0.1000E+01
    -31.151  0.0000E+00  0.0000E+00  0.1000E+01  0.1000E+01
    -30.954  0.0000E+00  0.0000E+00  0.1000E+01  0.1000E+01
    -30.758  0.0000E+00  0.0000E+00  0.1000E+01  0.1000E+01
    -30.561  0.0000E+00  0.0000E+00  0.1000E+01  0.1000E+01
    -30.364  0.0000E+00  0.0000E+00  0.1000E+01  0.1000E+01
    -30.168  0.0000E+00  0.0000E+00  0.1000E+01  0.1000E+01
    -29.971  0.0000E+00  0.0000E+00  0.1000E+01  0.1000E+01
    -29.775  0.0000E+00  0.0000E+00  0.1000E+01  0.1000E+01
    -29.578  0.0000E+00  0.0000E+00  0.1000E+01  0.1000E+01
    -29.381  0.0000E+00  0.0000E+00  0.1000E+01  0.1000E+01
    -29.185  0.0000E+00  0.0000E+00  0.1000E+01  0.1000E+01
    -28.988  0.0000E+00  0.0000E+00  0.1000E+01  0.1000E+01
    -28.791  0.0000E+00  0.0000E+00  0.1000E+01  0.1000E+01
    -28.595  0.0000E+00  0.0000E+00  0.1000E+01  0.1000E+01
    -28.398  0.0000E+00  0.0000E+00  0.1000E+01  0.1000E+01
    -28.202  0.0000E+00  0.0000E+00  0.1000E+01  0.1000E+01
    -28.005  0.0000E+00  0.0000E+00  0.1000E+01  0.1000E+01
    -27.808  0.0000E+00  0.0000E+00  0.1000E+01  0.1000E+01
    -27.612  0.0000E+00  0.0000E+00  0.1000E+01  0.1000E+01
    -27.415  0.0000E+00  0.0000E+00  0.1000E+01  0.1000E+01
    -27.219  0.0000E+00  0.0000E+00  0.1000E+01  0.1000E+01
    -27.022  0.0000E+00  0.0000E+00  0.1000E+01  0.1000E+01
    -26.825  0.0000E+00  0.0000E+00  0.1000E+01  0.1000E+01
    -26.629  0.0000E+00  0.0000E+00  0.1000E+01  0.1000E+01
    -26.432  0.0000E+00  0.0000E+00  0.1000E+01  0.1000E+01
    -26.235  0.0000E+00  0.0000E+00  0.1000E+01  0.1000E+01
    -26.039  0.0000E+00  0.0000E+00  0.1000E+01  0.1000E+01
    -25.842  0.0000E+00  0.0000E+00  0.1000E+01  0.1000E+01
    -25.646  0.0000E+00  0.0000E+00  0.1000E+01  0.1000E+01
    -25.449  0.0000E+00  0.0000E+00  0.1000E+01  0.1000E+01
    -25.252  0.0000E+00  0.0000E+00  0.1000E+01  0.1000E+01
    -25.056  0.0000E+00  0.0000E+00  0.1000E+01  0.1000E+01
    -24.859  0.0000E+00  0.0000E+00  0.1000E+01  0.1000E+01
    -24.662  0.0000E+00  0.0000E+00  0.1000E+01  0.1000E+01
    -24.466  0.0000E+00  0.0000E+00  0.1000E+01  0.1000E+01
    -24.269  0.0000E+00  0.0000E+00  0.1000E+01  0.1000E+01
    -24.073  0.0000E+00  0.0000E+00  0.1000E+01  0.1000E+01
    -23.876  0.0000E+00  0.0000E+00  0.1000E+01  0.1000E+01
    -23.679  0.0000E+00  0.0000E+00  0.1000E+01  0.1000E+01
    -23.483  0.0000E+00  0.0000E+00  0.1000E+01  0.1000E+01
    -23.286  0.0000E+00  0.0000E+00  0.1000E+01  0.1000E+01
    -23.090  0.0000E+00  0.0000E+00  0.1000E+01  0.1000E+01
    -22.893  0.0000E+00  0.0000E+00  0.1000E+01  0.1000E+01
    -22.696  0.0000E+00  0.0000E+00  0.1000E+01  0.1000E+01
    -22.500  0.0000E+00  0.0000E+00  0.1000E+01  0.1000E+01
    -22.303  0.0000E+00  0.0000E+00  0.1000E+01  0.1000E+01
    -22.106  0.0000E+00  0.0000E+00  0.1000E+01  0.1000E+01
    -21.910  0.0000E+00  0.0000E+00  0.1000E+01  0.1000E+01
    -21.713  0.0000E+00  0.0000E+00  0.1000E+01  0.1000E+01
    -21.517  0.0000E+00  0.0000E+00  0.1000E+01  0.1000E+01
    -21.320  0.0000E+00  0.0000E+00  0.1000E+01  0.1000E+01
    -21.123  0.0000E+00  0.0000E+00  0.1000E+01  0.1000E+01
    -20.927  0.0000E+00  0.0000E+00  0.1000E+01  0.1000E+01
    -20.730  0.0000E+00  0.0000E+00  0.1000E+01  0.1000E+01
    -20.533  0.0000E+00  0.0000E+00  0.1000E+01  0.1000E+01
    -20.337  0.0000E+00  0.0000E+00  0.1000E+01  0.1000E+01
    -20.140  0.0000E+00  0.0000E+00  0.1000E+01  0.1000E+01
    -19.944  0.0000E+00  0.0000E+00  0.1000E+01  0.1000E+01
    -19.747  0.0000E+00  0.0000E+00  0.1000E+01  0.1000E+01
    -19.550  0.0000E+00  0.0000E+00  0.1000E+01  0.1000E+01
    -19.354  0.0000E+00  0.0000E+00  0.1000E+01  0.1000E+01
    -19.157  0.8393E-03  0.8572E-03  0.1000E+01  0.1000E+01
    -18.961  0.4185E-01  0.4274E-01  0.1008E+01  0.1009E+01
    -18.764  0.1835E+01  0.1868E+01  0.1369E+01  0.1376E+01
    -18.567  0.1129E+02  0.1129E+02  0.3589E+01  0.3597E+01
    -18.371  0.2041E+01  0.2004E+01  0.3990E+01  0.3991E+01
    -18.174  0.0000E+00  0.0000E+00  0.4000E+01  0.4000E+01
    -17.977  0.0000E+00  0.0000E+00  0.4000E+01  0.4000E+01
    -17.781  0.0000E+00  0.0000E+00  0.4000E+01  0.4000E+01
    -17.584  0.0000E+00  0.0000E+00  0.4000E+01  0.4000E+01
    -17.388  0.0000E+00  0.0000E+00  0.4000E+01  0.4000E+01
    -17.191  0.0000E+00  0.0000E+00  0.4000E+01  0.4000E+01
    -16.994  0.0000E+00  0.0000E+00  0.4000E+01  0.4000E+01
    -16.798  0.0000E+00  0.0000E+00  0.4000E+01  0.4000E+01
    -16.601  0.0000E+00  0.0000E+00  0.4000E+01  0.4000E+01
    -16.404  0.0000E+00  0.0000E+00  0.4000E+01  0.4000E+01
    -16.208  0.0000E+00  0.0000E+00  0.4000E+01  0.4000E+01
    -16.011  0.0000E+00  0.0000E+00  0.4000E+01  0.4000E+01
    -15.815  0.0000E+00  0.0000E+00  0.4000E+01  0.4000E+01
    -15.618  0.0000E+00  0.0000E+00  0.4000E+01  0.4000E+01
    -15.421  0.0000E+00  0.0000E+00  0.4000E+01  0.4000E+01
    -15.225  0.0000E+00  0.0000E+00  0.4000E+01  0.4000E+01
    -15.028  0.0000E+00  0.0000E+00  0.4000E+01  0.4000E+01
    -14.832  0.0000E+00  0.0000E+00  0.4000E+01  0.4000E+01
    -14.635  0.0000E+00  0.0000E+00  0.4000E+01  0.4000E+01
    -14.438  0.0000E+00  0.0000E+00  0.4000E+01  0.4000E+01
    -14.242  0.0000E+00  0.0000E+00  0.4000E+01  0.4000E+01
    -14.045  0.0000E+00  0.0000E+00  0.4000E+01  0.4000E+01
    -13.848  0.0000E+00  0.0000E+00  0.4000E+01  0.4000E+01
    -13.652  0.0000E+00  0.0000E+00  0.4000E+01  0.4000E+01
    -13.455  0.0000E+00  0.0000E+00  0.4000E+01  0.4000E+01
    -13.259  0.0000E+00  0.0000E+00  0.4000E+01  0.4000E+01
    -13.062  0.0000E+00  0.0000E+00  0.4000E+01  0.4000E+01
    -12.865  0.0000E+00  0.0000E+00  0.4000E+01  0.4000E+01
    -12.669  0.0000E+00  0.0000E+00  0.4000E+01  0.4000E+01
    -12.472  0.0000E+00  0.0000E+00  0.4000E+01  0.4000E+01
    -12.276  0.0000E+00  0.0000E+00  0.4000E+01  0.4000E+01
    -12.079  0.0000E+00  0.0000E+00  0.4000E+01  0.4000E+01
    -11.882  0.0000E+00  0.0000E+00  0.4000E+01  0.4000E+01
    -11.686  0.0000E+00  0.0000E+00  0.4000E+01  0.4000E+01
    -11.489  0.0000E+00  0.0000E+00  0.4000E+01  0.4000E+01
    -11.292  0.0000E+00  0.0000E+00  0.4000E+01  0.4000E+01
    -11.096  0.0000E+00  0.0000E+00  0.4000E+01  0.4000E+01
    -10.899  0.0000E+00  0.0000E+00  0.4000E+01  0.4000E+01
    -10.703  0.0000E+00  0.0000E+00  0.4000E+01  0.4000E+01
    -10.506  0.0000E+00  0.0000E+00  0.4000E+01  0.4000E+01
    -10.309  0.0000E+00  0.0000E+00  0.4000E+01  0.4000E+01
    -10.113  0.0000E+00  0.0000E+00  0.4000E+01  0.4000E+01
     -9.916  0.0000E+00  0.0000E+00  0.4000E+01  0.4000E+01
     -9.719  0.0000E+00  0.0000E+00  0.4000E+01  0.4000E+01
     -9.523  0.0000E+00  0.0000E+00  0.4000E+01  0.4000E+01
     -9.326  0.0000E+00  0.0000E+00  0.4000E+01  0.4000E+01
     -9.130  0.0000E+00  0.0000E+00  0.4000E+01  0.4000E+01
     -8.933  0.0000E+00  0.0000E+00  0.4000E+01  0.4000E+01
     -8.736  0.0000E+00  0.0000E+00  0.4000E+01  0.4000E+01
     -8.540  0.0000E+00  0.0000E+00  0.4000E+01  0.4000E+01
     -8.343  0.0000E+00  0.0000E+00  0.4000E+01  0.4000E+01
     -8.147  0.0000E+00  0.0000E+00  0.4000E+01  0.4000E+01
     -7.950  0.0000E+00  0.0000E+00  0.4000E+01  0.4000E+01
     -7.753  0.0000E+00  0.0000E+00  0.4000E+01  0.4000E+01
     -7.557  0.0000E+00  0.0000E+00  0.4000E+01  0.4000E+01
     -7.360  0.0000E+00  0.0000E+00  0.4000E+01  0.4000E+01
     -7.163  0.0000E+00  0.0000E+00  0.4000E+01  0.4000E+01
     -6.967  0.0000E+00  0.0000E+00  0.4000E+01  0.4000E+01
     -6.770  0.0000E+00  0.0000E+00  0.4000E+01  0.4000E+01
     -6.574  0.0000E+00  0.0000E+00  0.4000E+01  0.4000E+01
     -6.377  0.0000E+00  0.0000E+00  0.4000E+01  0.4000E+01
     -6.180  0.0000E+00  0.0000E+00  0.4000E+01  0.4000E+01
     -5.984  0.0000E+00  0.0000E+00  0.4000E+01  0.4000E+01
     -5.787  0.0000E+00  0.0000E+00  0.4000E+01  0.4000E+01
     -5.590  0.0000E+00  0.0000E+00  0.4000E+01  0.4000E+01
     -5.394  0.0000E+00  0.0000E+00  0.4000E+01  0.4000E+01
     -5.197  0.0000E+00  0.0000E+00  0.4000E+01  0.4000E+01
     -5.001  0.0000E+00  0.0000E+00  0.4000E+01  0.4000E+01
     -4.804  0.0000E+00  0.0000E+00  0.4000E+01  0.4000E+01
     -4.607  0.0000E+00  0.0000E+00  0.4000E+01  0.4000E+01
     -4.411  0.0000E+00  0.0000E+00  0.4000E+01  0.4000E+01
     -4.214  0.0000E+00  0.0000E+00  0.4000E+01  0.4000E+01
     -4.018  0.0000E+00  0.0000E+00  0.4000E+01  0.4000E+01
     -3.821  0.0000E+00  0.0000E+00  0.4000E+01  0.4000E+01
     -3.624  0.0000E+00  0.0000E+00  0.4000E+01  0.4000E+01
     -3.428  0.0000E+00  0.0000E+00  0.4000E+01  0.4000E+01
     -3.231  0.0000E+00  0.0000E+00  0.4000E+01  0.4000E+01
     -3.034  0.0000E+00  0.0000E+00  0.4000E+01  0.4000E+01
     -2.838  0.0000E+00  0.0000E+00  0.4000E+01  0.4000E+01
     -2.641  0.0000E+00  0.0000E+00  0.4000E+01  0.4000E+01
     -2.445  0.1211E-04  0.1173E-04  0.4000E+01  0.4000E+01
     -2.248  0.6039E-03  0.5850E-03  0.4000E+01  0.4000E+01
     -2.051  0.2640E-01  0.2569E-01  0.4005E+01  0.4005E+01
     -1.855  0.1417E+00  0.1418E+00  0.4033E+01  0.4033E+01
     -1.658  0.2274E-01  0.2320E-01  0.4038E+01  0.4038E+01
     -1.462  0.1330E+00  0.1299E+00  0.4064E+01  0.4063E+01
     -1.265  0.3961E+00  0.3983E+00  0.4142E+01  0.4142E+01
     -1.068  0.4290E-01  0.4354E-01  0.4150E+01  0.4150E+01
     -0.872  0.2740E+00  0.2699E+00  0.4204E+01  0.4203E+01
     -0.675  0.2713E+00  0.2753E+00  0.4258E+01  0.4257E+01
     -0.478  0.9529E-01  0.9336E-01  0.4276E+01  0.4276E+01
     -0.282  0.5673E+00  0.5669E+00  0.4388E+01  0.4387E+01
     -0.085  0.1326E+00  0.1342E+00  0.4414E+01  0.4414E+01
      0.111  0.6683E+00  0.6614E+00  0.4546E+01  0.4544E+01
      0.308  0.4179E+00  0.4253E+00  0.4628E+01  0.4628E+01
      0.505  0.1638E+00  0.1605E+00  0.4663E+01  0.4662E+01
      0.701  0.3840E+00  0.3864E+00  0.4738E+01  0.4738E+01
      0.898  0.3123E+00  0.3095E+00  0.4800E+01  0.4799E+01
      1.095  0.2588E+00  0.2623E+00  0.4851E+01  0.4851E+01
      1.291  0.1473E+00  0.1443E+00  0.4880E+01  0.4879E+01
      1.488  0.7830E+00  0.7812E+00  0.5034E+01  0.5033E+01
      1.684  0.2060E+00  0.2107E+00  0.5074E+01  0.5074E+01
      1.881  0.2174E+00  0.2116E+00  0.5118E+01  0.5117E+01
      2.078  0.8367E+00  0.8397E+00  0.5282E+01  0.5282E+01
      2.274  0.2431E+00  0.2444E+00  0.5330E+01  0.5330E+01
      2.471  0.4203E+00  0.4180E+00  0.5413E+01  0.5412E+01
      2.667  0.2281E+00  0.2297E+00  0.5458E+01  0.5458E+01
      2.864  0.6064E+00  0.6021E+00  0.5578E+01  0.5577E+01
      3.061  0.5091E+00  0.5122E+00  0.5678E+01  0.5678E+01
      3.257  0.1002E+01  0.9946E+00  0.5876E+01  0.5874E+01
      3.454  0.6339E+00  0.6424E+00  0.6000E+01  0.6000E+01
      3.651  0.5407E+00  0.5346E+00  0.6108E+01  0.6106E+01
      3.847  0.8648E+00  0.8688E+00  0.6278E+01  0.6277E+01
      4.044  0.3647E+00  0.3658E+00  0.6350E+01  0.6350E+01
      4.240  0.1357E+00  0.1369E+00  0.6377E+01  0.6377E+01
      4.437  0.8624E+00  0.8506E+00  0.6547E+01  0.6545E+01
      4.634  0.1178E+01  0.1186E+01  0.6779E+01  0.6778E+01
      4.830  0.4877E+00  0.4900E+00  0.6878E+01  0.6878E+01
      5.027  0.1369E+00  0.1363E+00  0.6905E+01  0.6905E+01
      5.224  0.9441E+00  0.9372E+00  0.7091E+01  0.7089E+01
      5.420  0.5537E+00  0.5605E+00  0.7200E+01  0.7199E+01
      5.617  0.5200E+00  0.5186E+00  0.7303E+01  0.7302E+01
      5.813  0.7831E+00  0.7813E+00  0.7457E+01  0.7456E+01
      6.010  0.9670E+00  0.9568E+00  0.7647E+01  0.7644E+01
      6.207  0.2349E+01  0.2352E+01  0.8110E+01  0.8107E+01
      6.403  0.8594E+00  0.8682E+00  0.8279E+01  0.8278E+01
      6.600  0.4185E+00  0.4183E+00  0.8365E+01  0.8364E+01
      6.796  0.1616E+01  0.1616E+01  0.8684E+01  0.8682E+01
      6.993  0.1078E+01  0.1087E+01  0.8896E+01  0.8896E+01
      7.190  0.7174E+00  0.7145E+00  0.9039E+01  0.9037E+01
      7.386  0.1441E+01  0.1439E+01  0.9322E+01  0.9321E+01
      7.583  0.7275E+00  0.7333E+00  0.9465E+01  0.9465E+01
      7.780  0.1774E+00  0.1776E+00  0.9503E+01  0.9503E+01
      7.976  0.4598E+00  0.4598E+00  0.9594E+01  0.9593E+01
      8.173  0.7798E+00  0.7770E+00  0.9747E+01  0.9746E+01
      8.369  0.4341E+00  0.4371E+00  0.9833E+01  0.9832E+01
      8.566  0.4643E+00  0.4640E+00  0.9926E+01  0.9925E+01
      8.763  0.7943E+00  0.7911E+00  0.1008E+02  0.1008E+02
      8.959  0.6966E+00  0.6981E+00  0.1022E+02  0.1022E+02
      9.156  0.4861E+00  0.4865E+00  0.1032E+02  0.1032E+02
      9.353  0.1084E+01  0.1083E+01  0.1053E+02  0.1053E+02
      9.549  0.3293E+00  0.3318E+00  0.1060E+02  0.1060E+02
      9.746  0.7830E+00  0.7773E+00  0.1075E+02  0.1075E+02
      9.942  0.1984E+01  0.1985E+01  0.1114E+02  0.1114E+02
     10.139  0.1200E+01  0.1205E+01  0.1138E+02  0.1138E+02
     10.336  0.8322E+00  0.8319E+00  0.1154E+02  0.1154E+02
     10.532  0.8146E+00  0.8162E+00  0.1170E+02  0.1170E+02
     10.729  0.9461E+00  0.9470E+00  0.1189E+02  0.1189E+02
     10.925  0.1049E+01  0.1048E+01  0.1210E+02  0.1210E+02
     11.122  0.2620E+01  0.2619E+01  0.1261E+02  0.1261E+02
     11.319  0.1755E+01  0.1757E+01  0.1296E+02  0.1296E+02
     11.515  0.1758E+01  0.1760E+01  0.1331E+02  0.1331E+02
     11.712  0.1442E+01  0.1438E+01  0.1359E+02  0.1359E+02
     11.909  0.6635E+00  0.6619E+00  0.1372E+02  0.1372E+02
     12.105  0.1183E+01  0.1185E+01  0.1396E+02  0.1396E+02
     12.302  0.2228E+01  0.2229E+01  0.1440E+02  0.1440E+02
     12.498  0.1236E+01  0.1237E+01  0.1464E+02  0.1464E+02
     12.695  0.1191E+00  0.1219E+00  0.1467E+02  0.1467E+02
     12.892  0.4885E+00  0.5526E+00  0.1477E+02  0.1478E+02
     13.088  0.2645E+01  0.2609E+01  0.1529E+02  0.1529E+02
     13.285  0.1098E+01  0.1145E+01  0.1550E+02  0.1552E+02
     13.481  0.1141E+01  0.1088E+01  0.1573E+02  0.1573E+02
     13.678  0.7986E+00  0.8028E+00  0.1588E+02  0.1589E+02
     13.875  0.5405E+00  0.5038E+00  0.1599E+02  0.1599E+02
     14.071  0.2733E-01  0.2758E-01  0.1600E+02  0.1600E+02
     14.268  0.0000E+00  0.0000E+00  0.1600E+02  0.1600E+02
     14.465  0.0000E+00  0.0000E+00  0.1600E+02  0.1600E+02
     14.661  0.0000E+00  0.0000E+00  0.1600E+02  0.1600E+02
     14.858  0.0000E+00  0.0000E+00  0.1600E+02  0.1600E+02
     15.054  0.0000E+00  0.0000E+00  0.1600E+02  0.1600E+02
     15.251  0.0000E+00  0.0000E+00  0.1600E+02  0.1600E+02
     15.448  0.0000E+00  0.0000E+00  0.1600E+02  0.1600E+02
     15.644  0.0000E+00  0.0000E+00  0.1600E+02  0.1600E+02
     15.841  0.0000E+00  0.0000E+00  0.1600E+02  0.1600E+02
     16.038  0.0000E+00  0.0000E+00  0.1600E+02  0.1600E+02
     16.234  0.0000E+00  0.0000E+00  0.1600E+02  0.1600E+02
     16.431  0.0000E+00  0.0000E+00  0.1600E+02  0.1600E+02
     16.43076022    -42.55472981  301      8.68929658      1.00000000
    -42.555  0.0000E+00  0.0000E+00  0.0000E+00  0.0000E+00  0.0000E+00  0.0000E+00  0.0000E+00  0.0000E+00  0.0000E+00  0.0000E+00  0.0000E+00  0.0000E+00  0.0000E+00  0.0000E+00  0.0000E+00  0.0000E+00  0.0000E+00  0.0000E+00
    -42.358  0.0000E+00  0.0000E+00  0.0000E+00  0.0000E+00  0.0000E+00  0.0000E+00  0.0000E+00  0.0000E+00  0.0000E+00  0.0000E+00  0.0000E+00  0.0000E+00  0.0000E+00  0.0000E+00  0.0000E+00  0.0000E+00  0.0000E+00  0.0000E+00
    -42.161  0.0000E+00  0.0000E+00  0.0000E+00  0.0000E+00  0.0000E+00  0.0000E+00  0.0000E+00  0.0000E+00  0.0000E+00  0.0000E+00  0.0000E+00  0.0000E+00  0.0000E+00  0.0000E+00  0.0000E+00  0.0000E+00  0.0000E+00  0.0000E+00
    -41.965  0.0000E+00  0.0000E+00  0.0000E+00  0.0000E+00  0.0000E+00  0.0000E+00  0.0000E+00  0.0000E+00  0.0000E+00  0.0000E+00  0.0000E+00  0.0000E+00  0.0000E+00  0.0000E+00  0.0000E+00  0.0000E+00  0.0000E+00  0.0000E+00
    -41.768  0.0000E+00  0.0000E+00  0.0000E+00  0.0000E+00  0.0000E+00  0.0000E+00  0.0000E+00  0.0000E+00  0.0000E+00  0.0000E+00  0.0000E+00  0.0000E+00  0.0000E+00  0.0000E+00  0.0000E+00  0.0000E+00  0.0000E+00  0.0000E+00
    -41.572  0.0000E+00  0.0000E+00  0.0000E+00  0.0000E+00  0.0000E+00  0.0000E+00  0.0000E+00  0.0000E+00  0.0000E+00  0.0000E+00  0.0000E+00  0.0000E+00  0.0000E+00  0.0000E+00  0.0000E+00  0.0000E+00  0.0000E+00  0.0000E+00
    -41.375  0.0000E+00  0.0000E+00  0.0000E+00  0.0000E+00  0.0000E+00  0.0000E+00  0.0000E+00  0.0000E+00  0.0000E+00  0.0000E+00  0.0000E+00  0.0000E+00  0.0000E+00  0.0000E+00  0.0000E+00  0.0000E+00  0.0000E+00  0.0000E+00
    -41.178  0.0000E+00  0.0000E+00  0.0000E+00  0.0000E+00  0.0000E+00  0.0000E+00  0.0000E+00  0.0000E+00  0.0000E+00  0.0000E+00  0.0000E+00  0.0000E+00  0.0000E+00  0.0000E+00  0.0000E+00  0.0000E+00  0.0000E+00  0.0000E+00
    -40.982  0.0000E+00  0.0000E+00  0.0000E+00  0.0000E+00  0.0000E+00  0.0000E+00  0.0000E+00  0.0000E+00  0.0000E+00  0.0000E+00  0.0000E+00  0.0000E+00  0.0000E+00  0.0000E+00  0.0000E+00  0.0000E+00  0.0000E+00  0.0000E+00
    -40.785  0.0000E+00  0.0000E+00  0.0000E+00  0.0000E+00  0.0000E+00  0.0000E+00  0.0000E+00  0.0000E+00  0.0000E+00  0.0000E+00  0.0000E+00  0.0000E+00  0.0000E+00  0.0000E+00  0.0000E+00  0.0000E+00  0.0000E+00  0.0000E+00
    -40.589  0.0000E+00  0.0000E+00  0.0000E+00  0.0000E+00  0.0000E+00  0.0000E+00  0.0000E+00  0.0000E+00  0.0000E+00  0.0000E+00  0.0000E+00  0.0000E+00  0.0000E+00  0.0000E+00  0.0000E+00  0.0000E+00  0.0000E+00  0.0000E+00
    -40.392  0.1470E-03  0.1482E-03  0.2058E-11  0.2016E-11  0.2058E-11  0.2016E-11  0.2058E-11  0.2016E-11  0.5159E-13  0.8099E-13  0.5159E-13  0.8099E-13  0.1537E-11  0.1231E-11  0.5159E-13  0.8099E-13  0.1537E-11  0.1231E-11
    -40.195  0.7345E-02  0.7405E-02  0.1028E-09  0.1007E-09  0.1028E-09  0.1007E-09  0.1028E-09  0.1007E-09  0.2577E-11  0.4045E-11  0.2577E-11  0.4045E-11  0.7679E-10  0.6148E-10  0.2577E-11  0.4045E-11  0.7679E-10  0.6148E-10
    -39.999  0.3484E+00  0.3511E+00  0.4875E-08  0.4775E-08  0.4875E-08  0.4775E-08  0.4875E-08  0.4775E-08  0.1224E-09  0.1916E-09  0.1224E-09  0.1916E-09  0.3644E-08  0.2914E-08  0.1224E-09  0.1916E-09  0.3644E-08  0.2914E-08
    -39.802  0.3665E+01  0.3669E+01  0.5122E-07  0.4983E-07  0.5122E-07  0.4983E-07  0.5122E-07  0.4983E-07  0.1298E-08  0.1984E-08  0.1298E-08  0.1984E-08  0.3844E-07  0.3039E-07  0.1298E-08  0.1984E-08  0.3844E-07  0.3039E-07
    -39.605  0.1018E+01  0.1011E+01  0.1420E-07  0.1371E-07  0.1420E-07  0.1371E-07  0.1420E-07  0.1371E-07  0.3636E-09  0.5408E-09  0.3636E-09  0.5408E-09  0.1070E-07  0.8349E-08  0.3636E-09  0.5408E-09  0.1070E-07  0.8349E-08
    -39.409  0.0000E+00  0.0000E+00  0.0000E+00  0.0000E+00  0.0000E+00  0.0000E+00  0.0000E+00  0.0000E+00  0.0000E+00  0.0000E+00  0.0000E+00  0.0000E+00  0.0000E+00  0.0000E+00  0.0000E+00  0.0000E+00  0.0000E+00  0.0000E+00
    -39.212  0.0000E+00  0.0000E+00  0.0000E+00  0.0000E+00  0.0000E+00  0.0000E+00  0.0000E+00  0.0000E+00  0.0000E+00  0.0000E+00  0.0000E+00  0.0000E+00  0.0000E+00  0.0000E+00  0.0000E+00  0.0000E+00  0.0000E+00  0.0000E+00
    -39.016  0.0000E+00  0.0000E+00  0.0000E+00  0.0000E+00  0.0000E+00  0.0000E+00  0.0000E+00  0.0000E+00  0.0000E+00  0.0000E+00  0.0000E+00  0.0000E+00  0.0000E+00  0.0000E+00  0.0000E+00  0.0000E+00  0.0000E+00  0.0000E+00
    -38.819  0.0000E+00  0.0000E+00  0.0000E+00  0.0000E+00  0.0000E+00  0.0000E+00  0.0000E+00  0.0000E+00  0.0000E+00  0.0000E+00  0.0000E+00  0.0000E+00  0.0000E+00  0.0000E+00  0.0000E+00  0.0000E+00  0.0000E+00  0.0000E+00
    -38.622  0.0000E+00  0.0000E+00  0.0000E+00  0.0000E+00  0.0000E+00  0.0000E+00  0.0000E+00  0.0000E+00  0.0000E+00  0.0000E+00  0.0000E+00  0.0000E+00  0.0000E+00  0.0000E+00  0.0000E+00  0.0000E+00  0.0000E+00  0.0000E+00
    -38.426  0.0000E+00  0.0000E+00  0.0000E+00  0.0000E+00  0.0000E+00  0.0000E+00  0.0000E+00  0.0000E+00  0.0000E+00  0.0000E+00  0.0000E+00  0.0000E+00  0.0000E+00  0.0000E+00  0.0000E+00  0.0000E+00  0.0000E+00  0.0000E+00
    -38.229  0.0000E+00  0.0000E+00  0.0000E+00  0.0000E+00  0.0000E+00  0.0000E+00  0.0000E+00  0.0000E+00  0.0000E+00  0.0000E+00  0.0000E+00  0.0000E+00  0.0000E+00  0.0000E+00  0.0000E+00  0.0000E+00  0.0000E+00  0.0000E+00
    -38.033  0.0000E+00  0.0000E+00  0.0000E+00  0.0000E+00  0.0000E+00  0.0000E+00  0.0000E+00  0.0000E+00  0.0000E+00  0.0000E+00  0.0000E+00  0.0000E+00  0.0000E+00  0.0000E+00  0.0000E+00  0.0000E+00  0.0000E+00  0.0000E+00
    -37.836  0.0000E+00  0.0000E+00  0.0000E+00  0.0000E+00  0.0000E+00  0.0000E+00  0.0000E+00  0.0000E+00  0.0000E+00  0.0000E+00  0.0000E+00  0.0000E+00  0.0000E+00  0.0000E+00  0.0000E+00  0.0000E+00  0.0000E+00  0.0000E+00
    -37.639  0.0000E+00  0.0000E+00  0.0000E+00  0.0000E+00  0.0000E+00  0.0000E+00  0.0000E+00  0.0000E+00  0.0000E+00  0.0000E+00  0.0000E+00  0.0000E+00  0.0000E+00  0.0000E+00  0.0000E+00  0.0000E+00  0.0000E+00  0.0000E+00
    -37.443  0.0000E+00  0.0000E+00  0.0000E+00  0.0000E+00  0.0000E+00  0.0000E+00  0.0000E+00  0.0000E+00  0.0000E+00  0.0000E+00  0.0000E+00  0.0000E+00  0.0000E+00  0.0000E+00  0.0000E+00  0.0000E+00  0.0000E+00  0.0000E+00
    -37.246  0.0000E+00  0.0000E+00  0.0000E+00  0.0000E+00  0.0000E+00  0.0000E+00  0.0000E+00  0.0000E+00  0.0000E+00  0.0000E+00  0.0000E+00  0.0000E+00  0.0000E+00  0.0000E+00  0.0000E+00  0.0000E+00  0.0000E+00  0.0000E+00
    -37.049  0.0000E+00  0.0000E+00  0.0000E+00  0.0000E+00  0.0000E+00  0.0000E+00  0.0000E+00  0.0000E+00  0.0000E+00  0.0000E+00  0.0000E+00  0.0000E+00  0.0000E+00  0.0000E+00  0.0000E+00  0.0000E+00  0.0000E+00  0.0000E+00
    -36.853  0.0000E+00  0.0000E+00  0.0000E+00  0.0000E+00  0.0000E+00  0.0000E+00  0.0000E+00  0.0000E+00  0.0000E+00  0.0000E+00  0.0000E+00  0.0000E+00  0.0000E+00  0.0000E+00  0.0000E+00  0.0000E+00  0.0000E+00  0.0000E+00
    -36.656  0.0000E+00  0.0000E+00  0.0000E+00  0.0000E+00  0.0000E+00  0.0000E+00  0.0000E+00  0.0000E+00  0.0000E+00  0.0000E+00  0.0000E+00  0.0000E+00  0.0000E+00  0.0000E+00  0.0000E+00  0.0000E+00  0.0000E+00  0.0000E+00
    -36.460  0.0000E+00  0.0000E+00  0.0000E+00  0.0000E+00  0.0000E+00  0.0000E+00  0.0000E+00  0.0000E+00  0.0000E+00  0.0000E+00  0.0000E+00  0.0000E+00  0.0000E+00  0.0000E+00  0.0000E+00  0.0000E+00  0.0000E+00  0.0000E+00
    -36.263  0.0000E+00  0.0000E+00  0.0000E+00  0.0000E+00  0.0000E+00  0.0000E+00  0.0000E+00  0.0000E+00  0.0000E+00  0.0000E+00  0.0000E+00  0.0000E+00  0.0000E+00  0.0000E+00  0.0000E+00  0.0000E+00  0.0000E+00  0.0000E+00
    -36.066  0.0000E+00  0.0000E+00  0.0000E+00  0.0000E+00  0.0000E+00  0.0000E+00  0.0000E+00  0.0000E+00  0.0000E+00  0.0000E+00  0.0000E+00  0.0000E+00  0.0000E+00  0.0000E+00  0.0000E+00  0.0000E+00  0.0000E+00  0.0000E+00
    -35.870  0.0000E+00  0.0000E+00  0.0000E+00  0.0000E+00  0.0000E+00  0.0000E+00  0.0000E+00  0.0000E+00  0.0000E+00  0.0000E+00  0.0000E+00  0.0000E+00  0.0000E+00  0.0000E+00  0.0000E+00  0.0000E+00  0.0000E+00  0.0000E+00
    -35.673  0.0000E+00  0.0000E+00  0.0000E+00  0.0000E+00  0.0000E+00  0.0000E+00  0.0000E+00  0.0000E+00  0.0000E+00  0.0000E+00  0.0000E+00  0.0000E+00  0.0000E+00  0.0000E+00  0.0000E+00  0.0000E+00  0.0000E+00  0.0000E+00
    -35.476  0.0000E+00  0.0000E+00  0.0000E+00  0.0000E+00  0.0000E+00  0.0000E+00  0.0000E+00  0.0000E+00  0.0000E+00  0.0000E+00  0.0000E+00  0.0000E+00  0.0000E+00  0.0000E+00  0.0000E+00  0.0000E+00  0.0000E+00  0.0000E+00
    -35.280  0.0000E+00  0.0000E+00  0.0000E+00  0.0000E+00  0.0000E+00  0.0000E+00  0.0000E+00  0.0000E+00  0.0000E+00  0.0000E+00  0.0000E+00  0.0000E+00  0.0000E+00  0.0000E+00  0.0000E+00  0.0000E+00  0.0000E+00  0.0000E+00
    -35.083  0.0000E+00  0.0000E+00  0.0000E+00  0.0000E+00  0.0000E+00  0.0000E+00  0.0000E+00  0.0000E+00  0.0000E+00  0.0000E+00  0.0000E+00  0.0000E+00  0.0000E+00  0.0000E+00  0.0000E+00  0.0000E+00  0.0000E+00  0.0000E+00
    -34.887  0.0000E+00  0.0000E+00  0.0000E+00  0.0000E+00  0.0000E+00  0.0000E+00  0.0000E+00  0.0000E+00  0.0000E+00  0.0000E+00  0.0000E+00  0.0000E+00  0.0000E+00  0.0000E+00  0.0000E+00  0.0000E+00  0.0000E+00  0.0000E+00
    -34.690  0.0000E+00  0.0000E+00  0.0000E+00  0.0000E+00  0.0000E+00  0.0000E+00  0.0000E+00  0.0000E+00  0.0000E+00  0.0000E+00  0.0000E+00  0.0000E+00  0.0000E+00  0.0000E+00  0.0000E+00  0.0000E+00  0.0000E+00  0.0000E+00
    -34.493  0.0000E+00  0.0000E+00  0.0000E+00  0.0000E+00  0.0000E+00  0.0000E+00  0.0000E+00  0.0000E+00  0.0000E+00  0.0000E+00  0.0000E+00  0.0000E+00  0.0000E+00  0.0000E+00  0.0000E+00  0.0000E+00  0.0000E+00  0.0000E+00
    -34.297  0.0000E+00  0.0000E+00  0.0000E+00  0.0000E+00  0.0000E+00  0.0000E+00  0.0000E+00  0.0000E+00  0.0000E+00  0.0000E+00  0.0000E+00  0.0000E+00  0.0000E+00  0.0000E+00  0.0000E+00  0.0000E+00  0.0000E+00  0.0000E+00
    -34.100  0.0000E+00  0.0000E+00  0.0000E+00  0.0000E+00  0.0000E+00  0.0000E+00  0.0000E+00  0.0000E+00  0.0000E+00  0.0000E+00  0.0000E+00  0.0000E+00  0.0000E+00  0.0000E+00  0.0000E+00  0.0000E+00  0.0000E+00  0.0000E+00
    -33.904  0.0000E+00  0.0000E+00  0.0000E+00  0.0000E+00  0.0000E+00  0.0000E+00  0.0000E+00  0.0000E+00  0.0000E+00  0.0000E+00  0.0000E+00  0.0000E+00  0.0000E+00  0.0000E+00  0.0000E+00  0.0000E+00  0.0000E+00  0.0000E+00
    -33.707  0.0000E+00  0.0000E+00  0.0000E+00  0.0000E+00  0.0000E+00  0.0000E+00  0.0000E+00  0.0000E+00  0.0000E+00  0.0000E+00  0.0000E+00  0.0000E+00  0.0000E+00  0.0000E+00  0.0000E+00  0.0000E+00  0.0000E+00  0.0000E+00
    -33.510  0.0000E+00  0.0000E+00  0.0000E+00  0.0000E+00  0.0000E+00  0.0000E+00  0.0000E+00  0.0000E+00  0.0000E+00  0.0000E+00  0.0000E+00  0.0000E+00  0.0000E+00  0.0000E+00  0.0000E+00  0.0000E+00  0.0000E+00  0.0000E+00
    -33.314  0.0000E+00  0.0000E+00  0.0000E+00  0.0000E+00  0.0000E+00  0.0000E+00  0.0000E+00  0.0000E+00  0.0000E+00  0.0000E+00  0.0000E+00  0.0000E+00  0.0000E+00  0.0000E+00  0.0000E+00  0.0000E+00  0.0000E+00  0.0000E+00
    -33.117  0.0000E+00  0.0000E+00  0.0000E+00  0.0000E+00  0.0000E+00  0.0000E+00  0.0000E+00  0.0000E+00  0.0000E+00  0.0000E+00  0.0000E+00  0.0000E+00  0.0000E+00  0.0000E+00  0.0000E+00  0.0000E+00  0.0000E+00  0.0000E+00
    -32.920  0.0000E+00  0.0000E+00  0.0000E+00  0.0000E+00  0.0000E+00  0.0000E+00  0.0000E+00  0.0000E+00  0.0000E+00  0.0000E+00  0.0000E+00  0.0000E+00  0.0000E+00  0.0000E+00  0.0000E+00  0.0000E+00  0.0000E+00  0.0000E+00
    -32.724  0.0000E+00  0.0000E+00  0.0000E+00  0.0000E+00  0.0000E+00  0.0000E+00  0.0000E+00  0.0000E+00  0.0000E+00  0.0000E+00  0.0000E+00  0.0000E+00  0.0000E+00  0.0000E+00  0.0000E+00  0.0000E+00  0.0000E+00  0.0000E+00