   4   4   1   0
  0.1891593E+02  0.4229567E-09  0.4229567E-09  0.4229567E-09  0.5000000E-15
  1.000000000000000E-004
  CAR 
 unknown system                          
     12.91948119    -45.58125117  301      6.47526334      1.00000000
    -45.581  0.0000E+00  0.0000E+00  0.0000E+00  0.0000E+00
    -45.386  0.0000E+00  0.0000E+00  0.0000E+00  0.0000E+00
    -45.191  0.0000E+00  0.0000E+00  0.0000E+00  0.0000E+00
    -44.996  0.0000E+00  0.0000E+00  0.0000E+00  0.0000E+00
    -44.801  0.0000E+00  0.0000E+00  0.0000E+00  0.0000E+00
    -44.606  0.0000E+00  0.0000E+00  0.0000E+00  0.0000E+00
    -44.411  0.0000E+00  0.0000E+00  0.0000E+00  0.0000E+00
    -44.216  0.0000E+00  0.0000E+00  0.0000E+00  0.0000E+00
    -44.021  0.0000E+00  0.0000E+00  0.0000E+00  0.0000E+00
    -43.826  0.0000E+00  0.0000E+00  0.0000E+00  0.0000E+00
    -43.631  0.0000E+00  0.0000E+00  0.0000E+00  0.0000E+00
    -43.436  0.1718E-03  0.1725E-03  0.3351E-04  0.3364E-04
    -43.241  0.8303E-02  0.8336E-02  0.1653E-02  0.1659E-02
    -43.046  0.3792E+00  0.3806E+00  0.7560E-01  0.7588E-01
    -42.851  0.3723E+01  0.3725E+01  0.8016E+00  0.8022E+00
    -42.656  0.9919E+00  0.9888E+00  0.9950E+00  0.9950E+00
    -42.461  0.0000E+00  0.0000E+00  0.1000E+01  0.1000E+01
    -42.266  0.0000E+00  0.0000E+00  0.1000E+01  0.1000E+01
    -42.071  0.0000E+00  0.0000E+00  0.1000E+01  0.1000E+01
    -41.876  0.0000E+00  0.0000E+00  0.1000E+01  0.1000E+01
    -41.681  0.0000E+00  0.0000E+00  0.1000E+01  0.1000E+01
    -41.486  0.0000E+00  0.0000E+00  0.1000E+01  0.1000E+01
    -41.291  0.0000E+00  0.0000E+00  0.1000E+01  0.1000E+01
    -41.096  0.0000E+00  0.0000E+00  0.1000E+01  0.1000E+01
    -40.901  0.0000E+00  0.0000E+00  0.1000E+01  0.1000E+01
    -40.706  0.0000E+00  0.0000E+00  0.1000E+01  0.1000E+01
    -40.511  0.0000E+00  0.0000E+00  0.1000E+01  0.1000E+01
    -40.316  0.0000E+00  0.0000E+00  0.1000E+01  0.1000E+01
    -40.121  0.0000E+00  0.0000E+00  0.1000E+01  0.1000E+01
    -39.926  0.0000E+00  0.0000E+00  0.1000E+01  0.1000E+01
    -39.731  0.0000E+00  0.0000E+00  0.1000E+01  0.1000E+01
    -39.536  0.0000E+00  0.0000E+00  0.1000E+01  0.1000E+01
    -39.341  0.0000E+00  0.0000E+00  0.1000E+01  0.1000E+01
    -39.146  0.0000E+00  0.0000E+00  0.1000E+01  0.1000E+01
    -38.951  0.0000E+00  0.0000E+00  0.1000E+01  0.1000E+01
    -38.756  0.0000E+00  0.0000E+00  0.1000E+01  0.1000E+01
    -38.561  0.0000E+00  0.0000E+00  0.1000E+01  0.1000E+01
    -38.366  0.0000E+00  0.0000E+00  0.1000E+01  0.1000E+01
    -38.171  0.0000E+00  0.0000E+00  0.1000E+01  0.1000E+01
    -37.976  0.0000E+00  0.0000E+00  0.1000E+01  0.1000E+01
    -37.781  0.0000E+00  0.0000E+00  0.1000E+01  0.1000E+01
    -37.586  0.0000E+00  0.0000E+00  0.1000E+01  0.1000E+01
    -37.391  0.0000E+00  0.0000E+00  0.1000E+01  0.1000E+01
    -37.196  0.0000E+00  0.0000E+00  0.1000E+01  0.1000E+01
    -37.001  0.0000E+00  0.0000E+00  0.1000E+01  0.1000E+01
    -36.806  0.0000E+00  0.0000E+00  0.1000E+01  0.1000E+01
    -36.611  0.0000E+00  0.0000E+00  0.1000E+01  0.1000E+01
    -36.416  0.0000E+00  0.0000E+00  0.1000E+01  0.1000E+01
    -36.221  0.0000E+00  0.0000E+00  0.1000E+01  0.1000E+01
    -36.026  0.0000E+00  0.0000E+00  0.1000E+01  0.1000E+01
    -35.831  0.0000E+00  0.0000E+00  0.1000E+01  0.1000E+01
    -35.636  0.0000E+00  0.0000E+00  0.1000E+01  0.1000E+01
    -35.441  0.0000E+00  0.0000E+00  0.1000E+01  0.1000E+01
    -35.246  0.0000E+00  0.0000E+00  0.1000E+01  0.1000E+01
    -35.051  0.0000E+00  0.0000E+00  0.1000E+01  0.1000E+01
    -34.856  0.0000E+00  0.0000E+00  0.1000E+01  0.1000E+01
    -34.661  0.0000E+00  0.0000E+00  0.1000E+01  0.1000E+01
    -34.466  0.0000E+00  0.0000E+00  0.1000E+01  0.1000E+01
    -34.271  0.0000E+00  0.0000E+00  0.1000E+01  0.1000E+01
    -34.076  0.0000E+00  0.0000E+00  0.1000E+01  0.1000E+01
    -33.881  0.0000E+00  0.0000E+00  0.1000E+01  0.1000E+01
    -33.686  0.0000E+00  0.0000E+00  0.1000E+01  0.1000E+01
    -33.491  0.0000E+00  0.0000E+00  0.1000E+01  0.1000E+01
    -33.296  0.0000E+00  0.0000E+00  0.1000E+01  0.1000E+01
    -33.101  0.0000E+00  0.0000E+00  0.1000E+01  0.1000E+01
    -32.906  0.0000E+00  0.0000E+00  0.1000E+01  0.1000E+01
    -32.711  0.0000E+00  0.0000E+00  0.1000E+01  0.1000E+01
    -32.516  0.0000E+00  0.0000E+00  0.1000E+01  0.1000E+01
    -32.321  0.0000E+00  0.0000E+00  0.1000E+01  0.1000E+01
    -32.126  0.0000E+00  0.0000E+00  0.1000E+01  0.1000E+01
    -31.931  0.0000E+00  0.0000E+00  0.1000E+01  0.1000E+01
    -31.736  0.0000E+00  0.0000E+00  0.1000E+01  0.1000E+01
    -31.541  0.0000E+00  0.0000E+00  0.1000E+01  0.1000E+01
    -31.346  0.0000E+00  0.0000E+00  0.1000E+01  0.1000E+01
    -31.151  0.0000E+00  0.0000E+00  0.1000E+01  0.1000E+01
    -30.956  0.0000E+00  0.0000E+00  0.1000E+01  0.1000E+01
    -30.761  0.0000E+00  0.0000E+00  0.1000E+01  0.1000E+01
    -30.566  0.0000E+00  0.0000E+00  0.1000E+01  0.1000E+01
    -30.371  0.0000E+00  0.0000E+00  0.1000E+01  0.1000E+01
    -30.176  0.0000E+00  0.0000E+00  0.1000E+01  0.1000E+01
    -29.981  0.0000E+00  0.0000E+00  0.1000E+01  0.1000E+01
    -29.786  0.0000E+00  0.0000E+00  0.1000E+01  0.1000E+01
    -29.591  0.0000E+00  0.0000E+00  0.1000E+01  0.1000E+01
    -29.396  0.0000E+00  0.0000E+00  0.1000E+01  0.1000E+01
    -29.201  0.0000E+00  0.0000E+00  0.1000E+01  0.1000E+01
    -29.006  0.0000E+00  0.0000E+00  0.1000E+01  0.1000E+01
    -28.811  0.0000E+00  0.0000E+00  0.1000E+01  0.1000E+01
    -28.616  0.0000E+00  0.0000E+00  0.1000E+01  0.1000E+01
    -28.421  0.0000E+00  0.0000E+00  0.1000E+01  0.1000E+01
    -28.226  0.0000E+00  0.0000E+00  0.1000E+01  0.1000E+01
    -28.031  0.0000E+00  0.0000E+00  0.1000E+01  0.1000E+01
    -27.836  0.0000E+00  0.0000E+00  0.1000E+01  0.1000E+01
    -27.641  0.0000E+00  0.0000E+00  0.1000E+01  0.1000E+01
    -27.446  0.0000E+00  0.0000E+00  0.1000E+01  0.1000E+01
    -27.251  0.0000E+00  0.0000E+00  0.1000E+01  0.1000E+01
    -27.056  0.0000E+00  0.0000E+00  0.1000E+01  0.1000E+01
    -26.861  0.0000E+00  0.0000E+00  0.1000E+01  0.1000E+01
    -26.666  0.0000E+00  0.0000E+00  0.1000E+01  0.1000E+01
    -26.471  0.0000E+00  0.0000E+00  0.1000E+01  0.1000E+01
    -26.276  0.0000E+00  0.0000E+00  0.1000E+01  0.1000E+01
    -26.081  0.0000E+00  0.0000E+00  0.1000E+01  0.1000E+01
    -25.886  0.0000E+00  0.0000E+00  0.1000E+01  0.1000E+01
    -25.691  0.0000E+00  0.0000E+00  0.1000E+01  0.1000E+01
    -25.496  0.0000E+00  0.0000E+00  0.1000E+01  0.1000E+01
    -25.301  0.0000E+00  0.0000E+00  0.1000E+01  0.1000E+01
    -25.106  0.0000E+00  0.0000E+00  0.1000E+01  0.1000E+01
    -24.911  0.0000E+00  0.0000E+00  0.1000E+01  0.1000E+01
    -24.716  0.0000E+00  0.0000E+00  0.1000E+01  0.1000E+01
    -24.521  0.0000E+00  0.0000E+00  0.1000E+01  0.1000E+01
    -24.326  0.0000E+00  0.0000E+00  0.1000E+01  0.1000E+01
    -24.131  0.0000E+00  0.0000E+00  0.1000E+01  0.1000E+01
    -23.936  0.0000E+00  0.0000E+00  0.1000E+01  0.1000E+01
    -23.741  0.0000E+00  0.0000E+00  0.1000E+01  0.1000E+01
    -23.546  0.0000E+00  0.0000E+00  0.1000E+01  0.1000E+01
    -23.351  0.0000E+00  0.0000E+00  0.1000E+01  0.1000E+01
    -23.156  0.0000E+00  0.0000E+00  0.1000E+01  0.1000E+01
    -22.961  0.0000E+00  0.0000E+00  0.1000E+01  0.1000E+01
    -22.766  0.0000E+00  0.0000E+00  0.1000E+01  0.1000E+01
    -22.571  0.0000E+00  0.0000E+00  0.1000E+01  0.1000E+01
    -22.376  0.0000E+00  0.0000E+00  0.1000E+01  0.1000E+01
    -22.181  0.1371E-03  0.1355E-03  0.1000E+01  0.1000E+01
    -21.986  0.6634E-02  0.6555E-02  0.1001E+01  0.1001E+01
    -21.791  0.3207E+00  0.3169E+00  0.1064E+01  0.1063E+01
    -21.596  0.7607E+01  0.7565E+01  0.2547E+01  0.2538E+01
    -21.401  0.7161E+01  0.7203E+01  0.3944E+01  0.3943E+01
    -21.206  0.2126E+00  0.2335E+00  0.3999E+01  0.3999E+01
    -21.011  0.0000E+00  0.0000E+00  0.4000E+01  0.4000E+01
    -20.816  0.0000E+00  0.0000E+00  0.4000E+01  0.4000E+01
    -20.621  0.0000E+00  0.0000E+00  0.4000E+01  0.4000E+01
    -20.426  0.0000E+00  0.0000E+00  0.4000E+01  0.4000E+01
    -20.231  0.0000E+00  0.0000E+00  0.4000E+01  0.4000E+01
    -20.036  0.0000E+00  0.0000E+00  0.4000E+01  0.4000E+01
    -19.841  0.0000E+00  0.0000E+00  0.4000E+01  0.4000E+01
    -19.646  0.0000E+00  0.0000E+00  0.4000E+01  0.4000E+01
    -19.451  0.0000E+00  0.0000E+00  0.4000E+01  0.4000E+01
    -19.256  0.0000E+00  0.0000E+00  0.4000E+01  0.4000E+01
    -19.061  0.0000E+00  0.0000E+00  0.4000E+01  0.4000E+01
    -18.866  0.0000E+00  0.0000E+00  0.4000E+01  0.4000E+01
    -18.671  0.0000E+00  0.0000E+00  0.4000E+01  0.4000E+01
    -18.476  0.0000E+00  0.0000E+00  0.4000E+01  0.4000E+01
    -18.281  0.0000E+00  0.0000E+00  0.4000E+01  0.4000E+01
    -18.086  0.0000E+00  0.0000E+00  0.4000E+01  0.4000E+01
    -17.891  0.0000E+00  0.0000E+00  0.4000E+01  0.4000E+01
    -17.696  0.0000E+00  0.0000E+00  0.4000E+01  0.4000E+01
    -17.501  0.0000E+00  0.0000E+00  0.4000E+01  0.4000E+01
    -17.306  0.0000E+00  0.0000E+00  0.4000E+01  0.4000E+01
    -17.111  0.0000E+00  0.0000E+00  0.4000E+01  0.4000E+01
    -16.916  0.0000E+00  0.0000E+00  0.4000E+01  0.4000E+01
    -16.721  0.0000E+00  0.0000E+00  0.4000E+01  0.4000E+01
    -16.526  0.0000E+00  0.0000E+00  0.4000E+01  0.4000E+01
    -16.331  0.0000E+00  0.0000E+00  0.4000E+01  0.4000E+01
    -16.136  0.0000E+00  0.0000E+00  0.4000E+01  0.4000E+01
    -15.941  0.0000E+00  0.0000E+00  0.4000E+01  0.4000E+01
    -15.746  0.0000E+00  0.0000E+00  0.4000E+01  0.4000E+01
    -15.551  0.0000E+00  0.0000E+00  0.4000E+01  0.4000E+01
    -15.356  0.0000E+00  0.0000E+00  0.4000E+01  0.4000E+01
    -15.161  0.0000E+00  0.0000E+00  0.4000E+01  0.4000E+01
    -14.966  0.0000E+00  0.0000E+00  0.4000E+01  0.4000E+01
    -14.771  0.0000E+00  0.0000E+00  0.4000E+01  0.4000E+01
    -14.576  0.0000E+00  0.0000E+00  0.4000E+01  0.4000E+01
    -14.381  0.0000E+00  0.0000E+00  0.4000E+01  0.4000E+01
    -14.186  0.0000E+00  0.0000E+00  0.4000E+01  0.4000E+01
    -13.991  0.0000E+00  0.0000E+00  0.4000E+01  0.4000E+01
    -13.796  0.0000E+00  0.0000E+00  0.4000E+01  0.4000E+01
    -13.601  0.0000E+00  0.0000E+00  0.4000E+01  0.4000E+01
    -13.406  0.0000E+00  0.0000E+00  0.4000E+01  0.4000E+01
    -13.211  0.0000E+00  0.0000E+00  0.4000E+01  0.4000E+01
    -13.016  0.0000E+00  0.0000E+00  0.4000E+01  0.4000E+01
    -12.821  0.0000E+00  0.0000E+00  0.4000E+01  0.4000E+01
    -12.626  0.0000E+00  0.0000E+00  0.4000E+01  0.4000E+01
    -12.431  0.0000E+00  0.0000E+00  0.4000E+01  0.4000E+01
    -12.236  0.0000E+00  0.0000E+00  0.4000E+01  0.4000E+01
    -12.041  0.0000E+00  0.0000E+00  0.4000E+01  0.4000E+01
    -11.846  0.0000E+00  0.0000E+00  0.4000E+01  0.4000E+01
    -11.651  0.0000E+00  0.0000E+00  0.4000E+01  0.4000E+01
    -11.456  0.0000E+00  0.0000E+00  0.4000E+01  0.4000E+01
    -11.261  0.0000E+00  0.0000E+00  0.4000E+01  0.4000E+01
    -11.066  0.0000E+00  0.0000E+00  0.4000E+01  0.4000E+01
    -10.871  0.0000E+00  0.0000E+00  0.4000E+01  0.4000E+01
    -10.676  0.0000E+00  0.0000E+00  0.4000E+01  0.4000E+01
    -10.481  0.0000E+00  0.0000E+00  0.4000E+01  0.4000E+01
    -10.286  0.0000E+00  0.0000E+00  0.4000E+01  0.4000E+01
    -10.091  0.0000E+00  0.0000E+00  0.4000E+01  0.4000E+01
     -9.896  0.0000E+00  0.0000E+00  0.4000E+01  0.4000E+01
     -9.701  0.0000E+00  0.0000E+00  0.4000E+01  0.4000E+01
     -9.506  0.0000E+00  0.0000E+00  0.4000E+01  0.4000E+01
     -9.311  0.0000E+00  0.0000E+00  0.4000E+01  0.4000E+01
     -9.116  0.0000E+00  0.0000E+00  0.4000E+01  0.4000E+01
     -8.921  0.0000E+00  0.0000E+00  0.4000E+01  0.4000E+01
     -8.726  0.0000E+00  0.0000E+00  0.4000E+01  0.4000E+01
     -8.531  0.0000E+00  0.0000E+00  0.4000E+01  0.4000E+01
     -8.336  0.0000E+00  0.0000E+00  0.4000E+01  0.4000E+01
     -8.141  0.0000E+00  0.0000E+00  0.4000E+01  0.4000E+01
     -7.946  0.0000E+00  0.0000E+00  0.4000E+01  0.4000E+01
     -7.751  0.0000E+00  0.0000E+00  0.4000E+01  0.4000E+01
     -7.556  0.0000E+00  0.0000E+00  0.4000E+01  0.4000E+01
     -7.361  0.0000E+00  0.0000E+00  0.4000E+01  0.4000E+01
     -7.166  0.0000E+00  0.0000E+00  0.4000E+01  0.4000E+01
     -6.971  0.0000E+00  0.0000E+00  0.4000E+01  0.4000E+01
     -6.776  0.0000E+00  0.0000E+00  0.4000E+01  0.4000E+01
     -6.581  0.0000E+00  0.0000E+00  0.4000E+01  0.4000E+01
     -6.386  0.0000E+00  0.0000E+00  0.4000E+01  0.4000E+01
     -6.191  0.0000E+00  0.0000E+00  0.4000E+01  0.4000E+01
     -5.996  0.0000E+00  0.0000E+00  0.4000E+01  0.4000E+01
     -5.801  0.0000E+00  0.0000E+00  0.4000E+01  0.4000E+01
     -5.606  0.0000E+00  0.0000E+00  0.4000E+01  0.4000E+01
     -5.411  0.0000E+00  0.0000E+00  0.4000E+01  0.4000E+01
     -5.216  0.0000E+00  0.0000E+00  0.4000E+01  0.4000E+01
     -5.021  0.0000E+00  0.0000E+00  0.4000E+01  0.4000E+01
     -4.826  0.0000E+00  0.0000E+00  0.4000E+01  0.4000E+01
     -4.631  0.0000E+00  0.0000E+00  0.4000E+01  0.4000E+01
     -4.436  0.0000E+00  0.0000E+00  0.4000E+01  0.4000E+01
     -4.241  0.0000E+00  0.0000E+00  0.4000E+01  0.4000E+01
     -4.046  0.0000E+00  0.0000E+00  0.4000E+01  0.4000E+01
     -3.851  0.0000E+00  0.0000E+00  0.4000E+01  0.4000E+01
     -3.656  0.0000E+00  0.0000E+00  0.4000E+01  0.4000E+01
     -3.461  0.6081E-05  0.5954E-05  0.4000E+01  0.4000E+01
     -3.266  0.2939E-03  0.2878E-03  0.4000E+01  0.4000E+01
     -3.071  0.1347E-01  0.1321E-01  0.4003E+01  0.4003E+01
     -2.876  0.1373E+00  0.1369E+00  0.4029E+01  0.4029E+01
     -2.681  0.4817E-01  0.4859E-01  0.4039E+01  0.4039E+01
     -2.486  0.2611E+00  0.2583E+00  0.4090E+01  0.4089E+01
     -2.291  0.2892E+00  0.2919E+00  0.4146E+01  0.4146E+01
     -2.096  0.1341E+00  0.1324E+00  0.4173E+01  0.4172E+01
     -1.901  0.4090E+00  0.4103E+00  0.4252E+01  0.4252E+01
     -1.706  0.1464E+00  0.1451E+00  0.4281E+01  0.4280E+01
     -1.511  0.5677E+00  0.5681E+00  0.4392E+01  0.4391E+01
     -1.316  0.1969E+00  0.1962E+00  0.4430E+01  0.4430E+01
     -1.121  0.8527E+00  0.8517E+00  0.4597E+01  0.4596E+01
     -0.926  0.2055E+00  0.2079E+00  0.4637E+01  0.4637E+01
     -0.731  0.4129E+00  0.4115E+00  0.4718E+01  0.4718E+01
     -0.536  0.2026E+00  0.2029E+00  0.4758E+01  0.4757E+01
     -0.341  0.4277E+00  0.4282E+00  0.4842E+01  0.4841E+01
     -0.146  0.1962E+00  0.1948E+00  0.4880E+01  0.4879E+01
      0.049  0.8571E+00  0.8571E+00  0.5047E+01  0.5047E+01
      0.244  0.2189E+00  0.2201E+00  0.5090E+01  0.5090E+01
      0.439  0.8271E+00  0.8251E+00  0.5252E+01  0.5251E+01
      0.634  0.2994E+00  0.3012E+00  0.5310E+01  0.5310E+01
      0.829  0.5565E+00  0.5558E+00  0.5420E+01  0.5419E+01
      1.024  0.3939E+00  0.3926E+00  0.5497E+01  0.5496E+01
      1.219  0.8171E+00  0.8177E+00  0.5657E+01  0.5656E+01
      1.414  0.6492E+00  0.6486E+00  0.5783E+01  0.5783E+01
      1.609  0.9360E+00  0.9358E+00  0.5966E+01  0.5966E+01
      1.804  0.7456E+00  0.7451E+00  0.6112E+01  0.6111E+01
      1.999  0.4749E+00  0.4767E+00  0.6206E+01  0.6205E+01
      2.194  0.7232E+00  0.7233E+00  0.6347E+01  0.6347E+01
      2.389  0.1538E+00  0.1550E+00  0.6377E+01  0.6377E+01
      2.584  0.8693E+00  0.8616E+00  0.6547E+01  0.6546E+01
      2.779  0.8945E+00  0.9003E+00  0.6722E+01  0.6721E+01
      2.974  0.6521E+00  0.6521E+00  0.6852E+01  0.6852E+01
      3.169  0.3225E+00  0.3230E+00  0.6915E+01  0.6915E+01
      3.364  0.8039E+00  0.8024E+00  0.7073E+01  0.7073E+01
      3.559  0.7878E+00  0.7875E+00  0.7227E+01  0.7226E+01
      3.754  0.5687E+00  0.5691E+00  0.7338E+01  0.7338E+01
      3.949  0.7577E+00  0.7578E+00  0.7486E+01  0.7486E+01
      4.144  0.1170E+01  0.1163E+01  0.7714E+01  0.7713E+01
      4.339  0.2229E+01  0.2233E+01  0.8149E+01  0.8148E+01
      4.534  0.6259E+00  0.6277E+00  0.8273E+01  0.8272E+01
      4.729  0.1028E+01  0.1022E+01  0.8475E+01  0.8473E+01
      4.924  0.1510E+01  0.1517E+01  0.8770E+01  0.8769E+01
      5.119  0.7172E+00  0.7162E+00  0.8910E+01  0.8909E+01
      5.314  0.1438E+01  0.1432E+01  0.9190E+01  0.9189E+01
      5.509  0.1365E+01  0.1372E+01  0.9457E+01  0.9457E+01
      5.704  0.1920E+00  0.1927E+00  0.9497E+01  0.9496E+01
      5.899  0.6042E+00  0.6020E+00  0.9615E+01  0.9614E+01
      6.094  0.9173E+00  0.9189E+00  0.9794E+01  0.9794E+01
      6.289  0.2693E+00  0.2688E+00  0.9847E+01  0.9846E+01
      6.484  0.8478E+00  0.8435E+00  0.1001E+02  0.1001E+02
      6.679  0.1205E+01  0.1209E+01  0.1025E+02  0.1025E+02
      6.874  0.8360E+00  0.8321E+00  0.1041E+02  0.1041E+02
      7.069  0.9400E+00  0.9441E+00  0.1059E+02  0.1059E+02
      7.264  0.1169E+01  0.1162E+01  0.1082E+02  0.1082E+02
      7.459  0.1615E+01  0.1620E+01  0.1114E+02  0.1114E+02
      7.654  0.1151E+01  0.1150E+01  0.1136E+02  0.1136E+02
      7.849  0.1837E+01  0.1836E+01  0.1172E+02  0.1172E+02
      8.044  0.1167E+01  0.1169E+01  0.1195E+02  0.1195E+02
      8.239  0.1565E+01  0.1561E+01  0.1226E+02  0.1226E+02
      8.434  0.2401E+01  0.2401E+01  0.1273E+02  0.1273E+02
      8.629  0.2126E+01  0.2126E+01  0.1314E+02  0.1314E+02
      8.824  0.2636E+01  0.2637E+01  0.1366E+02  0.1366E+02
      9.019  0.1732E+01  0.1730E+01  0.1400E+02  0.1400E+02
      9.214  0.1505E+01  0.1487E+01  0.1429E+02  0.1429E+02
      9.409  0.1504E+01  0.1477E+01  0.1459E+02  0.1458E+02
      9.604  0.1639E+01  0.1700E+01  0.1491E+02  0.1491E+02
      9.799  0.1284E+01  0.1391E+01  0.1516E+02  0.1518E+02
      9.994  0.1644E+01  0.1821E+01  0.1548E+02  0.1554E+02
     10.189  0.1521E+01  0.1425E+01  0.1578E+02  0.1582E+02
     10.384  0.1047E+01  0.8659E+00  0.1599E+02  0.1599E+02
     10.579  0.6691E-01  0.6769E-01  0.1600E+02  0.1600E+02
     10.774  0.0000E+00  0.0000E+00  0.1600E+02  0.1600E+02
     10.969  0.0000E+00  0.0000E+00  0.1600E+02  0.1600E+02
     11.164  0.0000E+00  0.0000E+00  0.1600E+02  0.1600E+02
     11.359  0.0000E+00  0.0000E+00  0.1600E+02  0.1600E+02
     11.554  0.0000E+00  0.0000E+00  0.1600E+02  0.1600E+02
     11.749  0.0000E+00  0.0000E+00  0.1600E+02  0.1600E+02
     11.944  0.0000E+00  0.0000E+00  0.1600E+02  0.1600E+02
     12.139  0.0000E+00  0.0000E+00  0.1600E+02  0.1600E+02
     12.334  0.0000E+00  0.0000E+00  0.1600E+02  0.1600E+02
     12.529  0.0000E+00  0.0000E+00  0.1600E+02  0.1600E+02
     12.724  0.0000E+00  0.0000E+00  0.1600E+02  0.1600E+02
     12.919  0.0000E+00  0.0000E+00  0.1600E+02  0.1600E+02
     12.91948119    -45.58125117  301      6.47526334      1.00000000
    -45.581  0.0000E+00  0.0000E+00  0.0000E+00  0.0000E+00  0.0000E+00  0.0000E+00  0.0000E+00  0.0000E+00  0.0000E+00  0.0000E+00  0.0000E+00  0.0000E+00  0.0000E+00  0.0000E+00  0.0000E+00  0.0000E+00  0.0000E+00  0.0000E+00
    -45.386  0.0000E+00  0.0000E+00  0.0000E+00  0.0000E+00  0.0000E+00  0.0000E+00  0.0000E+00  0.0000E+00  0.0000E+00  0.0000E+00  0.0000E+00  0.0000E+00  0.0000E+00  0.0000E+00  0.0000E+00  0.0000E+00  0.0000E+00  0.0000E+00
    -45.191  0.0000E+00  0.0000E+00  0.0000E+00  0.0000E+00  0.0000E+00  0.0000E+00  0.0000E+00  0.0000E+00  0.0000E+00  0.0000E+00  0.0000E+00  0.0000E+00  0.0000E+00  0.0000E+00  0.0000E+00  0.0000E+00  0.0000E+00  0.0000E+00
    -44.996  0.0000E+00  0.0000E+00  0.0000E+00  0.0000E+00  0.0000E+00  0.0000E+00  0.0000E+00  0.0000E+00  0.0000E+00  0.0000E+00  0.0000E+00  0.0000E+00  0.0000E+00  0.0000E+00  0.0000E+00  0.0000E+00  0.0000E+00  0.0000E+00
    -44.801  0.0000E+00  0.0000E+00  0.0000E+00  0.0000E+00  0.0000E+00  0.0000E+00  0.0000E+00  0.0000E+00  0.0000E+00  0.0000E+00  0.0000E+00  0.0000E+00  0.0000E+00  0.0000E+00  0.0000E+00  0.0000E+00  0.0000E+00  0.0000E+00
    -44.606  0.0000E+00  0.0000E+00  0.0000E+00  0.0000E+00  0.0000E+00  0.0000E+00  0.0000E+00  0.0000E+00  0.0000E+00  0.0000E+00  0.0000E+00  0.0000E+00  0.0000E+00  0.0000E+00  0.0000E+00  0.0000E+00  0.0000E+00  0.0000E+00
    -44.411  0.0000E+00  0.0000E+00  0.0000E+00  0.0000E+00  0.0000E+00  0.0000E+00  0.0000E+00  0.0000E+00  0.0000E+00  0.0000E+00  0.0000E+00  0.0000E+00  0.0000E+00  0.0000E+00  0.0000E+00  0.0000E+00  0.0000E+00  0.0000E+00
    -44.216  0.0000E+00  0.0000E+00  0.0000E+00  0.0000E+00  0.0000E+00  0.0000E+00  0.0000E+00  0.0000E+00  0.0000E+00  0.0000E+00  0.0000E+00  0.0000E+00  0.0000E+00  0.0000E+00  0.0000E+00  0.0000E+00  0.0000E+00  0.0000E+00
    -44.021  0.0000E+00  0.0000E+00  0.0000E+00  0.0000E+00  0.0000E+00  0.0000E+00  0.0000E+00  0.0000E+00  0.0000E+00  0.0000E+00  0.0000E+00  0.0000E+00  0.0000E+00  0.0000E+00  0.0000E+00  0.0000E+00  0.0000E+00  0.0000E+00
    -43.826  0.0000E+00  0.0000E+00  0.0000E+00  0.0000E+00  0.0000E+00  0.0000E+00  0.0000E+00  0.0000E+00  0.0000E+00  0.0000E+00  0.0000E+00  0.0000E+00  0.0000E+00  0.0000E+00  0.0000E+00  0.0000E+00  0.0000E+00  0.0000E+00
    -43.631  0.0000E+00  0.0000E+00  0.0000E+00  0.0000E+00  0.0000E+00  0.0000E+00  0.0000E+00  0.0000E+00  0.0000E+00  0.0000E+00  0.0000E+00  0.0000E+00  0.0000E+00  0.0000E+00  0.0000E+00  0.0000E+00  0.0000E+00  0.0000E+00
    -43.436  0.1712E-03  0.1718E-03  0.1446E-12  0.1499E-12  0.1446E-12  0.1499E-12  0.1446E-12  0.1499E-12  0.9831E-13  0.2059E-12  0.9831E-13  0.2059E-12  0.1957E-12  0.5072E-12  0.9831E-13  0.2059E-12  0.1957E-12  0.5072E-12
    -43.241  0.8271E-02  0.8304E-02  0.6990E-11  0.7242E-11  0.6990E-11  0.7242E-11  0.6990E-11  0.7242E-11  0.4751E-11  0.9951E-11  0.4751E-11  0.9951E-11  0.9458E-11  0.2451E-10  0.4751E-11  0.9951E-11  0.9458E-11  0.2451E-10
    -43.046  0.3777E+00  0.3791E+00  0.3192E-09  0.3307E-09  0.3192E-09  0.3307E-09  0.3192E-09  0.3307E-09  0.2170E-09  0.4543E-09  0.2170E-09  0.4543E-09  0.4319E-09  0.1119E-08  0.2170E-09  0.4543E-09  0.4319E-09  0.1119E-08
    -42.851  0.3709E+01  0.3710E+01  0.3133E-08  0.3236E-08  0.3133E-08  0.3236E-08  0.3133E-08  0.3236E-08  0.2132E-08  0.4439E-08  0.2132E-08  0.4439E-08  0.4237E-08  0.1093E-07  0.2132E-08  0.4439E-08  0.4237E-08  0.1093E-07
    -42.656  0.9880E+00  0.9849E+00  0.8344E-09  0.8587E-09  0.8344E-09  0.8587E-09  0.8344E-09  0.8587E-09  0.5684E-09  0.1176E-08  0.5684E-09  0.1176E-08  0.1128E-08  0.2896E-08  0.5684E-09  0.1176E-08  0.1128E-08  0.2896E-08
    -42.461  0.0000E+00  0.0000E+00  0.0000E+00  0.0000E+00  0.0000E+00  0.0000E+00  0.0000E+00  0.0000E+00  0.0000E+00  0.0000E+00  0.0000E+00  0.0000E+00  0.0000E+00  0.0000E+00  0.0000E+00  0.0000E+00  0.0000E+00  0.0000E+00
    -42.266  0.0000E+00  0.0000E+00  0.0000E+00  0.0000E+00  0.0000E+00  0.0000E+00  0.0000E+00  0.0000E+00  0.0000E+00  0.0000E+00  0.0000E+00  0.0000E+00  0.0000E+00  0.0000E+00  0.0000E+00  0.0000E+00  0.0000E+00  0.0000E+00
    -42.071  0.0000E+00  0.0000E+00  0.0000E+00  0.0000E+00  0.0000E+00  0.0000E+00  0.0000E+00  0.0000E+00  0.0000E+00  0.0000E+00  0.0000E+00  0.0000E+00  0.0000E+00  0.0000E+00  0.0000E+00  0.0000E+00  0.0000E+00  0.0000E+00
    -41.876  0.0000E+00  0.0000E+00  0.0000E+00  0.0000E+00  0.0000E+00  0.0000E+00  0.0000E+00  0.0000E+00  0.0000E+00  0.0000E+00  0.0000E+00  0.0000E+00  0.0000E+00  0.0000E+00  0.0000E+00  0.0000E+00  0.0000E+00  0.0000E+00
    -41.681  0.0000E+00  0.0000E+00  0.0000E+00  0.0000E+00  0.0000E+00  0.0000E+00  0.0000E+00  0.0000E+00  0.0000E+00  0.0000E+00  0.0000E+00  0.0000E+00  0.0000E+00  0.0000E+00  0.0000E+00  0.0000E+00  0.0000E+00  0.0000E+00
    -41.486  0.0000E+00  0.0000E+00  0.0000E+00  0.0000E+00  0.0000E+00  0.0000E+00  0.0000E+00  0.0000E+00  0.0000E+00  0.0000E+00  0.0000E+00  0.0000E+00  0.0000E+00  0.0000E+00  0.0000E+00  0.0000E+00  0.0000E+00  0.0000E+00
    -41.291  0.0000E+00  0.0000E+00  0.0000E+00  0.0000E+00  0.0000E+00  0.0000E+00  0.0000E+00  0.0000E+00  0.0000E+00  0.0000E+00  0.0000E+00  0.0000E+00  0.0000E+00  0.0000E+00  0.0000E+00  0.0000E+00  0.0000E+00  0.0000E+00
    -41.096  0.0000E+00  0.0000E+00  0.0000E+00  0.0000E+00  0.0000E+00  0.0000E+00  0.0000E+00  0.0000E+00  0.0000E+00  0.0000E+00  0.0000E+00  0.0000E+00  0.0000E+00  0.0000E+00  0.0000E+00  0.0000E+00  0.0000E+00  0.0000E+00
    -40.901  0.0000E+00  0.0000E+00  0.0000E+00  0.0000E+00  0.0000E+00  0.0000E+00  0.0000E+00  0.0000E+00  0.0000E+00  0.0000E+00  0.0000E+00  0.0000E+00  0.0000E+00  0.0000E+00  0.0000E+00  0.0000E+00  0.0000E+00  0.0000E+00
    -40.706  0.0000E+00  0.0000E+00  0.0000E+00  0.0000E+00  0.0000E+00  0.0000E+00  0.0000E+00  0.0000E+00  0.0000E+00  0.0000E+00  0.0000E+00  0.0000E+00  0.0000E+00  0.0000E+00  0.0000E+00  0.0000E+00  0.0000E+00  0.0000E+00
    -40.511  0.0000E+00  0.0000E+00  0.0000E+00  0.0000E+00  0.0000E+00  0.0000E+00  0.0000E+00  0.0000E+00  0.0000E+00  0.0000E+00  0.0000E+00  0.0000E+00  0.0000E+00  0.0000E+00  0.0000E+00  0.0000E+00  0.0000E+00  0.0000E+00
    -40.316  0.0000E+00  0.0000E+00  0.0000E+00  0.0000E+00  0.0000E+00  0.0000E+00  0.0000E+00  0.0000E+00  0.0000E+00  0.0000E+00  0.0000E+00  0.0000E+00  0.0000E+00  0.0000E+00  0.0000E+00  0.0000E+00  0.0000E+00  0.0000E+00
    -40.121  0.0000E+00  0.0000E+00  0.0000E+00  0.0000E+00  0.0000E+00  0.0000E+00  0.0000E+00  0.0000E+00  0.0000E+00  0.0000E+00  0.0000E+00  0.0000E+00  0.0000E+00  0.0000E+00  0.0000E+00  0.0000E+00  0.0000E+00  0.0000E+00
    -39.926  0.0000E+00  0.0000E+00  0.0000E+00  0.0000E+00  0.0000E+00  0.0000E+00  0.0000E+00  0.0000E+00  0.0000E+00  0.0000E+00  0.0000E+00  0.0000E+00  0.0000E+00  0.0000E+00  0.0000E+00  0.0000E+00  0.0000E+00  0.0000E+00
    -39.731  0.0000E+00  0.0000E+00  0.0000E+00  0.0000E+00  0.0000E+00  0.0000E+00  0.0000E+00  0.0000E+00  0.0000E+00  0.0000E+00  0.0000E+00  0.0000E+00  0.0000E+00  0.0000E+00  0.0000E+00  0.0000E+00  0.0000E+00  0.0000E+00
    -39.536  0.0000E+00  0.0000E+00  0.0000E+00  0.0000E+00  0.0000E+00  0.0000E+00  0.0000E+00  0.0000E+00  0.0000E+00  0.0000E+00  0.0000E+00  0.0000E+00  0.0000E+00  0.0000E+00  0.0000E+00  0.0000E+00  0.0000E+00  0.0000E+00
    -39.341  0.0000E+00  0.0000E+00  0.0000E+00  0.0000E+00  0.0000E+00  0.0000E+00  0.0000E+00  0.0000E+00  0.0000E+00  0.0000E+00  0.0000E+00  0.0000E+00  0.0000E+00  0.0000E+00  0.0000E+00  0.0000E+00  0.0000E+00  0.0000E+00
    -39.146  0.0000E+00  0.0000E+00  0.0000E+00  0.0000E+00  0.0000E+00  0.0000E+00  0.0000E+00  0.0000E+00  0.0000E+00  0.0000E+00  0.0000E+00  0.0000E+00  0.0000E+00  0.0000E+00  0.0000E+00  0.0000E+00  0.0000E+00  0.0000E+00
    -38.951  0.0000E+00  0.0000E+00  0.0000E+00  0.0000E+00  0.0000E+00  0.0000E+00  0.0000E+00  0.0000E+00  0.0000E+00  0.0000E+00  0.0000E+00  0.0000E+00  0.0000E+00  0.0000E+00  0.0000E+00  0.0000E+00  0.0000E+00  0.0000E+00
    -38.756  0.0000E+00  0.0000E+00  0.0000E+00  0.0000E+00  0.0000E+00  0.0000E+00  0.0000E+00  0.0000E+00  0.0000E+00  0.0000E+00  0.0000E+00  0.0000E+00  0.0000E+00  0.0000E+00  0.0000E+00  0.0000E+00  0.0000E+00  0.0000E+00
    -38.561  0.0000E+00  0.0000E+00  0.0000E+00  0.0000E+00  0.0000E+00  0.0000E+00  0.0000E+00  0.0000E+00  0.0000E+00  0.0000E+00  0.0000E+00  0.0000E+00  0.0000E+00  0.0000E+00  0.0000E+00  0.0000E+00  0.0000E+00  0.0000E+00
    -38.366  0.0000E+00  0.0000E+00  0.0000E+00  0.0000E+00  0.0000E+00  0.0000E+00  0.0000E+00  0.0000E+00  0.0000E+00  0.0000E+00  0.0000E+00  0.0000E+00  0.0000E+00  0.0000E+00  0.0000E+00  0.0000E+00  0.0000E+00  0.0000E+00
    -38.171  0.0000E+00  0.0000E+00  0.0000E+00  0.0000E+00  0.0000E+00  0.0000E+00  0.0000E+00  0.0000E+00  0.0000E+00  0.0000E+00  0.0000E+00  0.0000E+00  0.0000E+00  0.0000E+00  0.0000E+00  0.0000E+00  0.0000E+00  0.0000E+00
    -37.976  0.0000E+00  0.0000E+00  0.0000E+00  0.0000E+00  0.0000E+00  0.0000E+00  0.0000E+00  0.0000E+00  0.0000E+00  0.0000E+00  0.0000E+00  0.0000E+00  0.0000E+00  0.0000E+00  0.0000E+00  0.0000E+00  0.0000E+00  0.0000E+00
    -37.781  0.0000E+00  0.0000E+00  0.0000E+00  0.0000E+00  0.0000E+00  0.0000E+00  0.0000E+00  0.0000E+00  0.0000E+00  0.0000E+00  0.0000E+00  0.0000E+00  0.0000E+00  0.0000E+00  0.0000E+00  0.0000E+00  0.0000E+00  0.0000E+00
    -37.586  0.0000E+00  0.0000E+00  0.0000E+00  0.0000E+00  0.0000E+00  0.0000E+00  0.0000E+00  0.0000E+00  0.0000E+00  0.0000E+00  0.0000E+00  0.0000E+00  0.0000E+00  0.0000E+00  0.0000E+00  0.0000E+00  0.0000E+00  0.0000E+00
    -37.391  0.0000E+00  0.0000E+00  0.0000E+00  0.0000E+00  0.0000E+00  0.0000E+00  0.0000E+00  0.0000E+00  0.0000E+00  0.0000E+00  0.0000E+00  0.0000E+00  0.0000E+00  0.0000E+00  0.0000E+00  0.0000E+00  0.0000E+00  0.0000E+00
    -37.196  0.0000E+00  0.0000E+00  0.0000E+00  0.0000E+00  0.0000E+00  0.0000E+00  0.0000E+00  0.0000E+00  0.0000E+00  0.0000E+00  0.0000E+00  0.0000E+00  0.0000E+00  0.0000E+00  0.0000E+00  0.0000E+00  0.0000E+00  0.0000E+00
    -37.001  0.0000E+00  0.0000E+00  0.0000E+00  0.0000E+00  0.0000E+00  0.0000E+00  0.0000E+00  0.0000E+00  0.0000E+00  0.0000E+00  0.0000E+00  0.0000E+00  0.0000E+00  0.0000E+00  0.0000E+00  0.0000E+00  0.0000E+00  0.0000E+00
    -36.806  0.0000E+00  0.0000E+00  0.0000E+00  0.0000E+00  0.0000E+00  0.0000E+00  0.0000E+00  0.0000E+00  0.0000E+00  0.0000E+00  0.0000E+00  0.0000E+00  0.0000E+00  0.0000E+00  0.0000E+00  0.0000E+00  0.0000E+00  0.0000E+00
    -36.611  0.0000E+00  0.0000E+00  0.0000E+00  0.0000E+00  0.0000E+00  0.0000E+00  0.0000E+00  0.0000E+00  0.0000E+00  0.0000E+00  0.0000E+00  0.0000E+00  0.0000E+00  0.0000E+00  0.0000E+00  0.0000E+00  0.0000E+00  0.0000E+00
    -36.416  0.0000E+00  0.0000E+00  0.0000E+00  0.0000E+00  0.0000E+00  0.0000E+00  0.0000E+00  0.0000E+00  0.0000E+00  0.0000E+00  0.0000E+00  0.0000E+00  0.0000E+00  0.0000E+00  0.0000E+00  0.0000E+00  0.0000E+00  0.0000E+00
    -36.221  0.0000E+00  0.0000E+00  0.0000E+00  0.0000E+00  0.0000E+00  0.0000E+00  0.0000E+00  0.0000E+00  0.0000E+00  0.0000E+00  0.0000E+00  0.0000E+00  0.0000E+00  0.0000E+00  0.0000E+00  0.0000E+00  0.0000E+00  0.0000E+00
    -36.026  0.0000E+00  0.0000E+00  0.0000E+00  0.0000E+00  0.0000E+00  0.0000E+00  0.0000E+00  0.0000E+00  0.0000E+00  0.0000E+00  0.0000E+00  0.0000E+00  0.0000E+00  0.0000E+00  0.0000E+00  0.0000E+00  0.0000E+00  0.0000E+00
    -35.831  0.0000E+00  0.0000E+00  0.0000E+00  0.0000E+00  0.0000E+00  0.0000E+00  0.0000E+00  0.0000E+00  0.0000E+00  0.0000E+00  0.0000E+00  0.0000E+00  0.0000E+00  0.0000E+00  0.0000E+00  0.0000E+00  0.0000E+00  0.0000E+00