   4   4   1   0
  0.2241793E+02  0.4475949E-09  0.4475949E-09  0.4475949E-09  0.5000000E-15
  1.000000000000000E-004
  CAR 
 unknown system                          
     10.79122161    -47.50141523  301      5.10272498      1.00000000
    -47.501  0.0000E+00  0.0000E+00  0.0000E+00  0.0000E+00
    -47.307  0.0000E+00  0.0000E+00  0.0000E+00  0.0000E+00
    -47.113  0.0000E+00  0.0000E+00  0.0000E+00  0.0000E+00
    -46.918  0.0000E+00  0.0000E+00  0.0000E+00  0.0000E+00
    -46.724  0.0000E+00  0.0000E+00  0.0000E+00  0.0000E+00
    -46.530  0.0000E+00  0.0000E+00  0.0000E+00  0.0000E+00
    -46.336  0.0000E+00  0.0000E+00  0.0000E+00  0.0000E+00
    -46.141  0.0000E+00  0.0000E+00  0.0000E+00  0.0000E+00
    -45.947  0.0000E+00  0.0000E+00  0.0000E+00  0.0000E+00
    -45.753  0.0000E+00  0.0000E+00  0.0000E+00  0.0000E+00
    -45.558  0.0000E+00  0.0000E+00  0.0000E+00  0.0000E+00
    -45.364  0.1817E-03  0.1808E-03  0.3530E-04  0.3513E-04
    -45.170  0.8654E-02  0.8613E-02  0.1717E-02  0.1709E-02
    -44.975  0.3891E+00  0.3874E+00  0.7732E-01  0.7698E-01
    -44.781  0.3736E+01  0.3734E+01  0.8033E+00  0.8025E+00
    -44.587  0.9867E+00  0.9905E+00  0.9950E+00  0.9950E+00
    -44.392  0.0000E+00  0.0000E+00  0.1000E+01  0.1000E+01
    -44.198  0.0000E+00  0.0000E+00  0.1000E+01  0.1000E+01
    -44.004  0.0000E+00  0.0000E+00  0.1000E+01  0.1000E+01
    -43.810  0.0000E+00  0.0000E+00  0.1000E+01  0.1000E+01
    -43.615  0.0000E+00  0.0000E+00  0.1000E+01  0.1000E+01
    -43.421  0.0000E+00  0.0000E+00  0.1000E+01  0.1000E+01
    -43.227  0.0000E+00  0.0000E+00  0.1000E+01  0.1000E+01
    -43.032  0.0000E+00  0.0000E+00  0.1000E+01  0.1000E+01
    -42.838  0.0000E+00  0.0000E+00  0.1000E+01  0.1000E+01
    -42.644  0.0000E+00  0.0000E+00  0.1000E+01  0.1000E+01
    -42.449  0.0000E+00  0.0000E+00  0.1000E+01  0.1000E+01
    -42.255  0.0000E+00  0.0000E+00  0.1000E+01  0.1000E+01
    -42.061  0.0000E+00  0.0000E+00  0.1000E+01  0.1000E+01
    -41.866  0.0000E+00  0.0000E+00  0.1000E+01  0.1000E+01
    -41.672  0.0000E+00  0.0000E+00  0.1000E+01  0.1000E+01
    -41.478  0.0000E+00  0.0000E+00  0.1000E+01  0.1000E+01
    -41.284  0.0000E+00  0.0000E+00  0.1000E+01  0.1000E+01
    -41.089  0.0000E+00  0.0000E+00  0.1000E+01  0.1000E+01
    -40.895  0.0000E+00  0.0000E+00  0.1000E+01  0.1000E+01
    -40.701  0.0000E+00  0.0000E+00  0.1000E+01  0.1000E+01
    -40.506  0.0000E+00  0.0000E+00  0.1000E+01  0.1000E+01
    -40.312  0.0000E+00  0.0000E+00  0.1000E+01  0.1000E+01
    -40.118  0.0000E+00  0.0000E+00  0.1000E+01  0.1000E+01
    -39.923  0.0000E+00  0.0000E+00  0.1000E+01  0.1000E+01
    -39.729  0.0000E+00  0.0000E+00  0.1000E+01  0.1000E+01
    -39.535  0.0000E+00  0.0000E+00  0.1000E+01  0.1000E+01
    -39.340  0.0000E+00  0.0000E+00  0.1000E+01  0.1000E+01
    -39.146  0.0000E+00  0.0000E+00  0.1000E+01  0.1000E+01
    -38.952  0.0000E+00  0.0000E+00  0.1000E+01  0.1000E+01
    -38.758  0.0000E+00  0.0000E+00  0.1000E+01  0.1000E+01
    -38.563  0.0000E+00  0.0000E+00  0.1000E+01  0.1000E+01
    -38.369  0.0000E+00  0.0000E+00  0.1000E+01  0.1000E+01
    -38.175  0.0000E+00  0.0000E+00  0.1000E+01  0.1000E+01
    -37.980  0.0000E+00  0.0000E+00  0.1000E+01  0.1000E+01
    -37.786  0.0000E+00  0.0000E+00  0.1000E+01  0.1000E+01
    -37.592  0.0000E+00  0.0000E+00  0.1000E+01  0.1000E+01
    -37.397  0.0000E+00  0.0000E+00  0.1000E+01  0.1000E+01
    -37.203  0.0000E+00  0.0000E+00  0.1000E+01  0.1000E+01
    -37.009  0.0000E+00  0.0000E+00  0.1000E+01  0.1000E+01
    -36.814  0.0000E+00  0.0000E+00  0.1000E+01  0.1000E+01
    -36.620  0.0000E+00  0.0000E+00  0.1000E+01  0.1000E+01
    -36.426  0.0000E+00  0.0000E+00  0.1000E+01  0.1000E+01
    -36.232  0.0000E+00  0.0000E+00  0.1000E+01  0.1000E+01
    -36.037  0.0000E+00  0.0000E+00  0.1000E+01  0.1000E+01
    -35.843  0.0000E+00  0.0000E+00  0.1000E+01  0.1000E+01
    -35.649  0.0000E+00  0.0000E+00  0.1000E+01  0.1000E+01
    -35.454  0.0000E+00  0.0000E+00  0.1000E+01  0.1000E+01
    -35.260  0.0000E+00  0.0000E+00  0.1000E+01  0.1000E+01
    -35.066  0.0000E+00  0.0000E+00  0.1000E+01  0.1000E+01
    -34.871  0.0000E+00  0.0000E+00  0.1000E+01  0.1000E+01
    -34.677  0.0000E+00  0.0000E+00  0.1000E+01  0.1000E+01
    -34.483  0.0000E+00  0.0000E+00  0.1000E+01  0.1000E+01
    -34.288  0.0000E+00  0.0000E+00  0.1000E+01  0.1000E+01
    -34.094  0.0000E+00  0.0000E+00  0.1000E+01  0.1000E+01
    -33.900  0.0000E+00  0.0000E+00  0.1000E+01  0.1000E+01
    -33.705  0.0000E+00  0.0000E+00  0.1000E+01  0.1000E+01
    -33.511  0.0000E+00  0.0000E+00  0.1000E+01  0.1000E+01
    -33.317  0.0000E+00  0.0000E+00  0.1000E+01  0.1000E+01
    -33.123  0.0000E+00  0.0000E+00  0.1000E+01  0.1000E+01
    -32.928  0.0000E+00  0.0000E+00  0.1000E+01  0.1000E+01
    -32.734  0.0000E+00  0.0000E+00  0.1000E+01  0.1000E+01
    -32.540  0.0000E+00  0.0000E+00  0.1000E+01  0.1000E+01
    -32.345  0.0000E+00  0.0000E+00  0.1000E+01  0.1000E+01
    -32.151  0.0000E+00  0.0000E+00  0.1000E+01  0.1000E+01
    -31.957  0.0000E+00  0.0000E+00  0.1000E+01  0.1000E+01
    -31.762  0.0000E+00  0.0000E+00  0.1000E+01  0.1000E+01
    -31.568  0.0000E+00  0.0000E+00  0.1000E+01  0.1000E+01
    -31.374  0.0000E+00  0.0000E+00  0.1000E+01  0.1000E+01
    -31.179  0.0000E+00  0.0000E+00  0.1000E+01  0.1000E+01
    -30.985  0.0000E+00  0.0000E+00  0.1000E+01  0.1000E+01
    -30.791  0.0000E+00  0.0000E+00  0.1000E+01  0.1000E+01
    -30.597  0.0000E+00  0.0000E+00  0.1000E+01  0.1000E+01
    -30.402  0.0000E+00  0.0000E+00  0.1000E+01  0.1000E+01
    -30.208  0.0000E+00  0.0000E+00  0.1000E+01  0.1000E+01
    -30.014  0.0000E+00  0.0000E+00  0.1000E+01  0.1000E+01
    -29.819  0.0000E+00  0.0000E+00  0.1000E+01  0.1000E+01
    -29.625  0.0000E+00  0.0000E+00  0.1000E+01  0.1000E+01
    -29.431  0.0000E+00  0.0000E+00  0.1000E+01  0.1000E+01
    -29.236  0.0000E+00  0.0000E+00  0.1000E+01  0.1000E+01
    -29.042  0.0000E+00  0.0000E+00  0.1000E+01  0.1000E+01
    -28.848  0.0000E+00  0.0000E+00  0.1000E+01  0.1000E+01
    -28.653  0.0000E+00  0.0000E+00  0.1000E+01  0.1000E+01
    -28.459  0.0000E+00  0.0000E+00  0.1000E+01  0.1000E+01
    -28.265  0.0000E+00  0.0000E+00  0.1000E+01  0.1000E+01
    -28.071  0.0000E+00  0.0000E+00  0.1000E+01  0.1000E+01
    -27.876  0.0000E+00  0.0000E+00  0.1000E+01  0.1000E+01
    -27.682  0.0000E+00  0.0000E+00  0.1000E+01  0.1000E+01
    -27.488  0.0000E+00  0.0000E+00  0.1000E+01  0.1000E+01
    -27.293  0.0000E+00  0.0000E+00  0.1000E+01  0.1000E+01
    -27.099  0.0000E+00  0.0000E+00  0.1000E+01  0.1000E+01
    -26.905  0.0000E+00  0.0000E+00  0.1000E+01  0.1000E+01
    -26.710  0.0000E+00  0.0000E+00  0.1000E+01  0.1000E+01
    -26.516  0.0000E+00  0.0000E+00  0.1000E+01  0.1000E+01
    -26.322  0.0000E+00  0.0000E+00  0.1000E+01  0.1000E+01
    -26.127  0.0000E+00  0.0000E+00  0.1000E+01  0.1000E+01
    -25.933  0.0000E+00  0.0000E+00  0.1000E+01  0.1000E+01
    -25.739  0.0000E+00  0.0000E+00  0.1000E+01  0.1000E+01
    -25.545  0.0000E+00  0.0000E+00  0.1000E+01  0.1000E+01
    -25.350  0.0000E+00  0.0000E+00  0.1000E+01  0.1000E+01
    -25.156  0.0000E+00  0.0000E+00  0.1000E+01  0.1000E+01
    -24.962  0.0000E+00  0.0000E+00  0.1000E+01  0.1000E+01
    -24.767  0.0000E+00  0.0000E+00  0.1000E+01  0.1000E+01
    -24.573  0.0000E+00  0.0000E+00  0.1000E+01  0.1000E+01
    -24.379  0.0000E+00  0.0000E+00  0.1000E+01  0.1000E+01
    -24.184  0.0000E+00  0.0000E+00  0.1000E+01  0.1000E+01
    -23.990  0.5522E-03  0.5493E-03  0.1000E+01  0.1000E+01
    -23.796  0.2631E-01  0.2617E-01  0.1005E+01  0.1005E+01
    -23.601  0.1181E+01  0.1176E+01  0.1235E+01  0.1234E+01
    -23.407  0.1122E+02  0.1121E+02  0.3415E+01  0.3412E+01
    -23.213  0.2935E+01  0.2948E+01  0.3985E+01  0.3985E+01
    -23.019  0.0000E+00  0.0000E+00  0.4000E+01  0.4000E+01
    -22.824  0.0000E+00  0.0000E+00  0.4000E+01  0.4000E+01
    -22.630  0.0000E+00  0.0000E+00  0.4000E+01  0.4000E+01
    -22.436  0.0000E+00  0.0000E+00  0.4000E+01  0.4000E+01
    -22.241  0.0000E+00  0.0000E+00  0.4000E+01  0.4000E+01
    -22.047  0.0000E+00  0.0000E+00  0.4000E+01  0.4000E+01
    -21.853  0.0000E+00  0.0000E+00  0.4000E+01  0.4000E+01
    -21.658  0.0000E+00  0.0000E+00  0.4000E+01  0.4000E+01
    -21.464  0.0000E+00  0.0000E+00  0.4000E+01  0.4000E+01
    -21.270  0.0000E+00  0.0000E+00  0.4000E+01  0.4000E+01
    -21.075  0.0000E+00  0.0000E+00  0.4000E+01  0.4000E+01
    -20.881  0.0000E+00  0.0000E+00  0.4000E+01  0.4000E+01
    -20.687  0.0000E+00  0.0000E+00  0.4000E+01  0.4000E+01
    -20.492  0.0000E+00  0.0000E+00  0.4000E+01  0.4000E+01
    -20.298  0.0000E+00  0.0000E+00  0.4000E+01  0.4000E+01
    -20.104  0.0000E+00  0.0000E+00  0.4000E+01  0.4000E+01
    -19.910  0.0000E+00  0.0000E+00  0.4000E+01  0.4000E+01
    -19.715  0.0000E+00  0.0000E+00  0.4000E+01  0.4000E+01
    -19.521  0.0000E+00  0.0000E+00  0.4000E+01  0.4000E+01
    -19.327  0.0000E+00  0.0000E+00  0.4000E+01  0.4000E+01
    -19.132  0.0000E+00  0.0000E+00  0.4000E+01  0.4000E+01
    -18.938  0.0000E+00  0.0000E+00  0.4000E+01  0.4000E+01
    -18.744  0.0000E+00  0.0000E+00  0.4000E+01  0.4000E+01
    -18.549  0.0000E+00  0.0000E+00  0.4000E+01  0.4000E+01
    -18.355  0.0000E+00  0.0000E+00  0.4000E+01  0.4000E+01
    -18.161  0.0000E+00  0.0000E+00  0.4000E+01  0.4000E+01
    -17.966  0.0000E+00  0.0000E+00  0.4000E+01  0.4000E+01
    -17.772  0.0000E+00  0.0000E+00  0.4000E+01  0.4000E+01
    -17.578  0.0000E+00  0.0000E+00  0.4000E+01  0.4000E+01
    -17.384  0.0000E+00  0.0000E+00  0.4000E+01  0.4000E+01
    -17.189  0.0000E+00  0.0000E+00  0.4000E+01  0.4000E+01
    -16.995  0.0000E+00  0.0000E+00  0.4000E+01  0.4000E+01
    -16.801  0.0000E+00  0.0000E+00  0.4000E+01  0.4000E+01
    -16.606  0.0000E+00  0.0000E+00  0.4000E+01  0.4000E+01
    -16.412  0.0000E+00  0.0000E+00  0.4000E+01  0.4000E+01
    -16.218  0.0000E+00  0.0000E+00  0.4000E+01  0.4000E+01
    -16.023  0.0000E+00  0.0000E+00  0.4000E+01  0.4000E+01
    -15.829  0.0000E+00  0.0000E+00  0.4000E+01  0.4000E+01
    -15.635  0.0000E+00  0.0000E+00  0.4000E+01  0.4000E+01
    -15.440  0.0000E+00  0.0000E+00  0.4000E+01  0.4000E+01
    -15.246  0.0000E+00  0.0000E+00  0.4000E+01  0.4000E+01
    -15.052  0.0000E+00  0.0000E+00  0.4000E+01  0.4000E+01
    -14.858  0.0000E+00  0.0000E+00  0.4000E+01  0.4000E+01
    -14.663  0.0000E+00  0.0000E+00  0.4000E+01  0.4000E+01
    -14.469  0.0000E+00  0.0000E+00  0.4000E+01  0.4000E+01
    -14.275  0.0000E+00  0.0000E+00  0.4000E+01  0.4000E+01
    -14.080  0.0000E+00  0.0000E+00  0.4000E+01  0.4000E+01
    -13.886  0.0000E+00  0.0000E+00  0.4000E+01  0.4000E+01
    -13.692  0.0000E+00  0.0000E+00  0.4000E+01  0.4000E+01
    -13.497  0.0000E+00  0.0000E+00  0.4000E+01  0.4000E+01
    -13.303  0.0000E+00  0.0000E+00  0.4000E+01  0.4000E+01
    -13.109  0.0000E+00  0.0000E+00  0.4000E+01  0.4000E+01
    -12.914  0.0000E+00  0.0000E+00  0.4000E+01  0.4000E+01
    -12.720  0.0000E+00  0.0000E+00  0.4000E+01  0.4000E+01
    -12.526  0.0000E+00  0.0000E+00  0.4000E+01  0.4000E+01
    -12.332  0.0000E+00  0.0000E+00  0.4000E+01  0.4000E+01
    -12.137  0.0000E+00  0.0000E+00  0.4000E+01  0.4000E+01
    -11.943  0.0000E+00  0.0000E+00  0.4000E+01  0.4000E+01
    -11.749  0.0000E+00  0.0000E+00  0.4000E+01  0.4000E+01
    -11.554  0.0000E+00  0.0000E+00  0.4000E+01  0.4000E+01
    -11.360  0.0000E+00  0.0000E+00  0.4000E+01  0.4000E+01
    -11.166  0.0000E+00  0.0000E+00  0.4000E+01  0.4000E+01
    -10.971  0.0000E+00  0.0000E+00  0.4000E+01  0.4000E+01
    -10.777  0.0000E+00  0.0000E+00  0.4000E+01  0.4000E+01
    -10.583  0.0000E+00  0.0000E+00  0.4000E+01  0.4000E+01
    -10.388  0.0000E+00  0.0000E+00  0.4000E+01  0.4000E+01
    -10.194  0.0000E+00  0.0000E+00  0.4000E+01  0.4000E+01
    -10.000  0.0000E+00  0.0000E+00  0.4000E+01  0.4000E+01
     -9.806  0.0000E+00  0.0000E+00  0.4000E+01  0.4000E+01
     -9.611  0.0000E+00  0.0000E+00  0.4000E+01  0.4000E+01
     -9.417  0.0000E+00  0.0000E+00  0.4000E+01  0.4000E+01
     -9.223  0.0000E+00  0.0000E+00  0.4000E+01  0.4000E+01
     -9.028  0.0000E+00  0.0000E+00  0.4000E+01  0.4000E+01
     -8.834  0.0000E+00  0.0000E+00  0.4000E+01  0.4000E+01
     -8.640  0.0000E+00  0.0000E+00  0.4000E+01  0.4000E+01
     -8.445  0.0000E+00  0.0000E+00  0.4000E+01  0.4000E+01
     -8.251  0.0000E+00  0.0000E+00  0.4000E+01  0.4000E+01
     -8.057  0.0000E+00  0.0000E+00  0.4000E+01  0.4000E+01
     -7.862  0.0000E+00  0.0000E+00  0.4000E+01  0.4000E+01
     -7.668  0.0000E+00  0.0000E+00  0.4000E+01  0.4000E+01
     -7.474  0.0000E+00  0.0000E+00  0.4000E+01  0.4000E+01
     -7.279  0.0000E+00  0.0000E+00  0.4000E+01  0.4000E+01
     -7.085  0.0000E+00  0.0000E+00  0.4000E+01  0.4000E+01
     -6.891  0.0000E+00  0.0000E+00  0.4000E+01  0.4000E+01
     -6.697  0.0000E+00  0.0000E+00  0.4000E+01  0.4000E+01
     -6.502  0.0000E+00  0.0000E+00  0.4000E+01  0.4000E+01
     -6.308  0.0000E+00  0.0000E+00  0.4000E+01  0.4000E+01
     -6.114  0.0000E+00  0.0000E+00  0.4000E+01  0.4000E+01
     -5.919  0.0000E+00  0.0000E+00  0.4000E+01  0.4000E+01
     -5.725  0.0000E+00  0.0000E+00  0.4000E+01  0.4000E+01
     -5.531  0.0000E+00  0.0000E+00  0.4000E+01  0.4000E+01
     -5.336  0.0000E+00  0.0000E+00  0.4000E+01  0.4000E+01
     -5.142  0.0000E+00  0.0000E+00  0.4000E+01  0.4000E+01
     -4.948  0.0000E+00  0.0000E+00  0.4000E+01  0.4000E+01
     -4.753  0.0000E+00  0.0000E+00  0.4000E+01  0.4000E+01
     -4.559  0.0000E+00  0.0000E+00  0.4000E+01  0.4000E+01
     -4.365  0.0000E+00  0.0000E+00  0.4000E+01  0.4000E+01
     -4.171  0.0000E+00  0.0000E+00  0.4000E+01  0.4000E+01
     -3.976  0.6541E-05  0.6526E-05  0.4000E+01  0.4000E+01
     -3.782  0.3116E-03  0.3109E-03  0.4000E+01  0.4000E+01
     -3.588  0.1405E-01  0.1403E-01  0.4003E+01  0.4003E+01
     -3.393  0.1386E+00  0.1385E+00  0.4030E+01  0.4030E+01
     -3.199  0.6763E-01  0.6764E-01  0.4043E+01  0.4043E+01
     -3.005  0.3904E+00  0.3902E+00  0.4119E+01  0.4119E+01
     -2.810  0.1727E+00  0.1729E+00  0.4152E+01  0.4152E+01
     -2.616  0.3761E+00  0.3759E+00  0.4226E+01  0.4226E+01
     -2.422  0.2200E+00  0.2201E+00  0.4269E+01  0.4269E+01
     -2.227  0.5457E+00  0.5455E+00  0.4376E+01  0.4376E+01
     -2.033  0.2747E+00  0.2748E+00  0.4429E+01  0.4429E+01
     -1.839  0.8544E+00  0.8542E+00  0.4596E+01  0.4596E+01
     -1.645  0.2491E+00  0.2494E+00  0.4645E+01  0.4645E+01
     -1.450  0.4340E+00  0.4340E+00  0.4730E+01  0.4730E+01
     -1.256  0.2650E+00  0.2646E+00  0.4781E+01  0.4781E+01
     -1.062  0.3717E+00  0.3721E+00  0.4854E+01  0.4854E+01
     -0.867  0.6311E+00  0.6307E+00  0.4976E+01  0.4976E+01
     -0.673  0.5383E+00  0.5388E+00  0.5081E+01  0.5081E+01
     -0.479  0.7717E+00  0.7719E+00  0.5233E+01  0.5233E+01
     -0.284  0.4182E+00  0.4180E+00  0.5314E+01  0.5314E+01
     -0.090  0.6399E+00  0.6401E+00  0.5440E+01  0.5440E+01
      0.104  0.6137E+00  0.6136E+00  0.5559E+01  0.5559E+01
      0.299  0.8652E+00  0.8652E+00  0.5728E+01  0.5728E+01
      0.493  0.6852E+00  0.6850E+00  0.5861E+01  0.5861E+01
      0.687  0.1134E+01  0.1134E+01  0.6083E+01  0.6083E+01
      0.881  0.5480E+00  0.5477E+00  0.6190E+01  0.6190E+01
      1.076  0.5113E+00  0.5110E+00  0.6290E+01  0.6290E+01
      1.270  0.4403E+00  0.4404E+00  0.6375E+01  0.6375E+01
      1.464  0.8952E+00  0.8948E+00  0.6550E+01  0.6550E+01
      1.659  0.7665E+00  0.7669E+00  0.6699E+01  0.6699E+01
      1.853  0.2588E+00  0.2585E+00  0.6750E+01  0.6750E+01
      2.047  0.8369E+00  0.8373E+00  0.6913E+01  0.6913E+01
      2.242  0.6774E+00  0.6775E+00  0.7044E+01  0.7044E+01
      2.436  0.8829E+00  0.8820E+00  0.7216E+01  0.7216E+01
      2.630  0.5270E+00  0.5278E+00  0.7320E+01  0.7320E+01
      2.825  0.8505E+00  0.8496E+00  0.7486E+01  0.7485E+01
      3.019  0.1184E+01  0.1185E+01  0.7716E+01  0.7716E+01
      3.213  0.2120E+01  0.2120E+01  0.8129E+01  0.8129E+01
      3.407  0.6679E+00  0.6675E+00  0.8259E+01  0.8258E+01
      3.602  0.1572E+01  0.1571E+01  0.8567E+01  0.8566E+01
      3.796  0.1080E+01  0.1082E+01  0.8776E+01  0.8776E+01
      3.990  0.8277E+00  0.8270E+00  0.8940E+01  0.8940E+01
      4.185  0.2019E+01  0.2018E+01  0.9332E+01  0.9332E+01
      4.379  0.7532E+00  0.7545E+00  0.9480E+01  0.9480E+01
      4.573  0.4755E+00  0.4741E+00  0.9574E+01  0.9574E+01
      4.768  0.1069E+01  0.1070E+01  0.9782E+01  0.9782E+01
      4.962  0.3029E+00  0.3027E+00  0.9842E+01  0.9842E+01
      5.156  0.1319E+01  0.1316E+01  0.1010E+02  0.1010E+02
      5.351  0.1517E+01  0.1520E+01  0.1039E+02  0.1039E+02
      5.545  0.1353E+01  0.1351E+01  0.1066E+02  0.1066E+02
      5.739  0.1424E+01  0.1425E+01  0.1094E+02  0.1094E+02
      5.934  0.9555E+00  0.9552E+00  0.1113E+02  0.1112E+02
      6.128  0.1428E+01  0.1426E+01  0.1141E+02  0.1141E+02
      6.322  0.2187E+01  0.2187E+01  0.1183E+02  0.1183E+02
      6.516  0.1661E+01  0.1658E+01  0.1215E+02  0.1215E+02
      6.711  0.2957E+01  0.2958E+01  0.1273E+02  0.1273E+02
      6.905  0.3399E+01  0.3401E+01  0.1339E+02  0.1339E+02
      7.099  0.2270E+01  0.2275E+01  0.1384E+02  0.1384E+02
      7.294  0.1428E+01  0.1488E+01  0.1412E+02  0.1413E+02
      7.488  0.2151E+01  0.2112E+01  0.1454E+02  0.1454E+02
      7.682  0.2338E+01  0.2252E+01  0.1499E+02  0.1498E+02
      7.877  0.2295E+01  0.2294E+01  0.1544E+02  0.1543E+02
      8.071  0.1595E+01  0.1544E+01  0.1575E+02  0.1573E+02
      8.265  0.1187E+01  0.1300E+01  0.1598E+02  0.1598E+02
      8.460  0.8187E-01  0.9092E-01  0.1600E+02  0.1600E+02
      8.654  0.0000E+00  0.0000E+00  0.1600E+02  0.1600E+02
      8.848  0.0000E+00  0.0000E+00  0.1600E+02  0.1600E+02
      9.042  0.0000E+00  0.0000E+00  0.1600E+02  0.1600E+02
      9.237  0.0000E+00  0.0000E+00  0.1600E+02  0.1600E+02
      9.431  0.0000E+00  0.0000E+00  0.1600E+02  0.1600E+02
      9.625  0.0000E+00  0.0000E+00  0.1600E+02  0.1600E+02
      9.820  0.0000E+00  0.0000E+00  0.1600E+02  0.1600E+02
     10.014  0.0000E+00  0.0000E+00  0.1600E+02  0.1600E+02
     10.208  0.0000E+00  0.0000E+00  0.1600E+02  0.1600E+02
     10.403  0.0000E+00  0.0000E+00  0.1600E+02  0.1600E+02
     10.597  0.0000E+00  0.0000E+00  0.1600E+02  0.1600E+02
     10.791  0.0000E+00  0.0000E+00  0.1600E+02  0.1600E+02
     10.79122161    -47.50141523  301      5.10272498      1.00000000
    -47.501  0.0000E+00  0.0000E+00  0.0000E+00  0.0000E+00  0.0000E+00  0.0000E+00  0.0000E+00  0.0000E+00  0.0000E+00  0.0000E+00  0.0000E+00  0.0000E+00  0.0000E+00  0.0000E+00  0.0000E+00  0.0000E+00  0.0000E+00  0.0000E+00
    -47.307  0.0000E+00  0.0000E+00  0.0000E+00  0.0000E+00  0.0000E+00  0.0000E+00  0.0000E+00  0.0000E+00  0.0000E+00  0.0000E+00  0.0000E+00  0.0000E+00  0.0000E+00  0.0000E+00  0.0000E+00  0.0000E+00  0.0000E+00  0.0000E+00
    -47.113  0.0000E+00  0.0000E+00  0.0000E+00  0.0000E+00  0.0000E+00  0.0000E+00  0.0000E+00  0.0000E+00  0.0000E+00  0.0000E+00  0.0000E+00  0.0000E+00  0.0000E+00  0.0000E+00  0.0000E+00  0.0000E+00  0.0000E+00  0.0000E+00
    -46.918  0.0000E+00  0.0000E+00  0.0000E+00  0.0000E+00  0.0000E+00  0.0000E+00  0.0000E+00  0.0000E+00  0.0000E+00  0.0000E+00  0.0000E+00  0.0000E+00  0.0000E+00  0.0000E+00  0.0000E+00  0.0000E+00  0.0000E+00  0.0000E+00
    -46.724  0.0000E+00  0.0000E+00  0.0000E+00  0.0000E+00  0.0000E+00  0.0000E+00  0.0000E+00  0.0000E+00  0.0000E+00  0.0000E+00  0.0000E+00  0.0000E+00  0.0000E+00  0.0000E+00  0.0000E+00  0.0000E+00  0.0000E+00  0.0000E+00
    -46.530  0.0000E+00  0.0000E+00  0.0000E+00  0.0000E+00  0.0000E+00  0.0000E+00  0.0000E+00  0.0000E+00  0.0000E+00  0.0000E+00  0.0000E+00  0.0000E+00  0.0000E+00  0.0000E+00  0.0000E+00  0.0000E+00  0.0000E+00  0.0000E+00
    -46.336  0.0000E+00  0.0000E+00  0.0000E+00  0.0000E+00  0.0000E+00  0.0000E+00  0.0000E+00  0.0000E+00  0.0000E+00  0.0000E+00  0.0000E+00  0.0000E+00  0.0000E+00  0.0000E+00  0.0000E+00  0.0000E+00  0.0000E+00  0.0000E+00
    -46.141  0.0000E+00  0.0000E+00  0.0000E+00  0.0000E+00  0.0000E+00  0.0000E+00  0.0000E+00  0.0000E+00  0.0000E+00  0.0000E+00  0.0000E+00  0.0000E+00  0.0000E+00  0.0000E+00  0.0000E+00  0.0000E+00  0.0000E+00  0.0000E+00
    -45.947  0.0000E+00  0.0000E+00  0.0000E+00  0.0000E+00  0.0000E+00  0.0000E+00  0.0000E+00  0.0000E+00  0.0000E+00  0.0000E+00  0.0000E+00  0.0000E+00  0.0000E+00  0.0000E+00  0.0000E+00  0.0000E+00  0.0000E+00  0.0000E+00
    -45.753  0.0000E+00  0.0000E+00  0.0000E+00  0.0000E+00  0.0000E+00  0.0000E+00  0.0000E+00  0.0000E+00  0.0000E+00  0.0000E+00  0.0000E+00  0.0000E+00  0.0000E+00  0.0000E+00  0.0000E+00  0.0000E+00  0.0000E+00  0.0000E+00
    -45.558  0.0000E+00  0.0000E+00  0.0000E+00  0.0000E+00  0.0000E+00  0.0000E+00  0.0000E+00  0.0000E+00  0.0000E+00  0.0000E+00  0.0000E+00  0.0000E+00  0.0000E+00  0.0000E+00  0.0000E+00  0.0000E+00  0.0000E+00  0.0000E+00
    -45.364  0.1810E-03  0.1801E-03  0.1952E-13  0.1949E-13  0.1952E-13  0.1949E-13  0.1952E-13  0.1949E-13  0.2181E-13  0.4920E-13  0.2181E-13  0.4920E-13  0.2584E-13  0.8598E-13  0.2181E-13  0.4920E-13  0.2584E-13  0.8598E-13
    -45.170  0.8622E-02  0.8581E-02  0.9298E-12  0.9287E-12  0.9298E-12  0.9287E-12  0.9298E-12  0.9287E-12  0.1039E-11  0.2344E-11  0.1039E-11  0.2344E-11  0.1231E-11  0.4096E-11  0.1039E-11  0.2344E-11  0.1231E-11  0.4096E-11
    -44.975  0.3877E+00  0.3859E+00  0.4180E-10  0.4177E-10  0.4180E-10  0.4177E-10  0.4180E-10  0.4177E-10  0.4672E-10  0.1054E-09  0.4672E-10  0.1054E-09  0.5534E-10  0.1842E-09  0.4672E-10  0.1054E-09  0.5534E-10  0.1842E-09
    -44.781  0.3722E+01  0.3720E+01  0.4014E-09  0.4026E-09  0.4014E-09  0.4026E-09  0.4014E-09  0.4026E-09  0.4487E-09  0.1017E-08  0.4487E-09  0.1017E-08  0.5310E-09  0.1775E-08  0.4487E-09  0.1017E-08  0.5310E-09  0.1775E-08
    -44.587  0.9831E+00  0.9869E+00  0.1060E-09  0.1068E-09  0.1060E-09  0.1068E-09  0.1060E-09  0.1068E-09  0.1186E-09  0.2698E-09  0.1186E-09  0.2698E-09  0.1401E-09  0.4705E-09  0.1186E-09  0.2698E-09  0.1401E-09  0.4705E-09
    -44.392  0.0000E+00  0.0000E+00  0.0000E+00  0.0000E+00  0.0000E+00  0.0000E+00  0.0000E+00  0.0000E+00  0.0000E+00  0.0000E+00  0.0000E+00  0.0000E+00  0.0000E+00  0.0000E+00  0.0000E+00  0.0000E+00  0.0000E+00  0.0000E+00
    -44.198  0.0000E+00  0.0000E+00  0.0000E+00  0.0000E+00  0.0000E+00  0.0000E+00  0.0000E+00  0.0000E+00  0.0000E+00  0.0000E+00  0.0000E+00  0.0000E+00  0.0000E+00  0.0000E+00  0.0000E+00  0.0000E+00  0.0000E+00  0.0000E+00
    -44.004  0.0000E+00  0.0000E+00  0.0000E+00  0.0000E+00  0.0000E+00  0.0000E+00  0.0000E+00  0.0000E+00  0.0000E+00  0.0000E+00  0.0000E+00  0.0000E+00  0.0000E+00  0.0000E+00  0.0000E+00  0.0000E+00  0.0000E+00  0.0000E+00
    -43.810  0.0000E+00  0.0000E+00  0.0000E+00  0.0000E+00  0.0000E+00  0.0000E+00  0.0000E+00  0.0000E+00  0.0000E+00  0.0000E+00  0.0000E+00  0.0000E+00  0.0000E+00  0.0000E+00  0.0000E+00  0.0000E+00  0.0000E+00  0.0000E+00
    -43.615  0.0000E+00  0.0000E+00  0.0000E+00  0.0000E+00  0.0000E+00  0.0000E+00  0.0000E+00  0.0000E+00  0.0000E+00  0.0000E+00  0.0000E+00  0.0000E+00  0.0000E+00  0.0000E+00  0.0000E+00  0.0000E+00  0.0000E+00  0.0000E+00
    -43.421  0.0000E+00  0.0000E+00  0.0000E+00  0.0000E+00  0.0000E+00  0.0000E+00  0.0000E+00  0.0000E+00  0.0000E+00  0.0000E+00  0.0000E+00  0.0000E+00  0.0000E+00  0.0000E+00  0.0000E+00  0.0000E+00  0.0000E+00  0.0000E+00
    -43.227  0.0000E+00  0.0000E+00  0.0000E+00  0.0000E+00  0.0000E+00  0.0000E+00  0.0000E+00  0.0000E+00  0.0000E+00  0.0000E+00  0.0000E+00  0.0000E+00  0.0000E+00  0.0000E+00  0.0000E+00  0.0000E+00  0.0000E+00  0.0000E+00
    -43.032  0.0000E+00  0.0000E+00  0.0000E+00  0.0000E+00  0.0000E+00  0.0000E+00  0.0000E+00  0.0000E+00  0.0000E+00  0.0000E+00  0.0000E+00  0.0000E+00  0.0000E+00  0.0000E+00  0.0000E+00  0.0000E+00  0.0000E+00  0.0000E+00
    -42.838  0.0000E+00  0.0000E+00  0.0000E+00  0.0000E+00  0.0000E+00  0.0000E+00  0.0000E+00  0.0000E+00  0.0000E+00  0.0000E+00  0.0000E+00  0.0000E+00  0.0000E+00  0.0000E+00  0.0000E+00  0.0000E+00  0.0000E+00  0.0000E+00
    -42.644  0.0000E+00  0.0000E+00  0.0000E+00  0.0000E+00  0.0000E+00  0.0000E+00  0.0000E+00  0.0000E+00  0.0000E+00  0.0000E+00  0.0000E+00  0.0000E+00  0.0000E+00  0.0000E+00  0.0000E+00  0.0000E+00  0.0000E+00  0.0000E+00
    -42.449  0.0000E+00  0.0000E+00  0.0000E+00  0.0000E+00  0.0000E+00  0.0000E+00  0.0000E+00  0.0000E+00  0.0000E+00  0.0000E+00  0.0000E+00  0.0000E+00  0.0000E+00  0.0000E+00  0.0000E+00  0.0000E+00  0.0000E+00  0.0000E+00
    -42.255  0.0000E+00  0.0000E+00  0.0000E+00  0.0000E+00  0.0000E+00  0.0000E+00  0.0000E+00  0.0000E+00  0.0000E+00  0.0000E+00  0.0000E+00  0.0000E+00  0.0000E+00  0.0000E+00  0.0000E+00  0.0000E+00  0.0000E+00  0.0000E+00
    -42.061  0.0000E+00  0.0000E+00  0.0000E+00  0.0000E+00  0.0000E+00  0.0000E+00  0.0000E+00  0.0000E+00  0.0000E+00  0.0000E+00  0.0000E+00  0.0000E+00  0.0000E+00  0.0000E+00  0.0000E+00  0.0000E+00  0.0000E+00  0.0000E+00
    -41.866  0.0000E+00  0.0000E+00  0.0000E+00  0.0000E+00  0.0000E+00  0.0000E+00  0.0000E+00  0.0000E+00  0.0000E+00  0.0000E+00  0.0000E+00  0.0000E+00  0.0000E+00  0.0000E+00  0.0000E+00  0.0000E+00  0.0000E+00  0.0000E+00
    -41.672  0.0000E+00  0.0000E+00  0.0000E+00  0.0000E+00  0.0000E+00  0.0000E+00  0.0000E+00  0.0000E+00  0.0000E+00  0.0000E+00  0.0000E+00  0.0000E+00  0.0000E+00  0.0000E+00  0.0000E+00  0.0000E+00  0.0000E+00  0.0000E+00
    -41.478  0.0000E+00  0.0000E+00  0.0000E+00  0.0000E+00  0.0000E+00  0.0000E+00  0.0000E+00  0.0000E+00  0.0000E+00  0.0000E+00  0.0000E+00  0.0000E+00  0.0000E+00  0.0000E+00  0.0000E+00  0.0000E+00  0.0000E+00  0.0000E+00
    -41.284  0.0000E+00  0.0000E+00  0.0000E+00  0.0000E+00  0.0000E+00  0.0000E+00  0.0000E+00  0.0000E+00  0.0000E+00  0.0000E+00  0.0000E+00  0.0000E+00  0.0000E+00  0.0000E+00  0.0000E+00  0.0000E+00  0.0000E+00  0.0000E+00
    -41.089  0.0000E+00  0.0000E+00  0.0000E+00  0.0000E+00  0.0000E+00  0.0000E+00  0.0000E+00  0.0000E+00  0.0000E+00  0.0000E+00  0.0000E+00  0.0000E+00  0.0000E+00  0.0000E+00  0.0000E+00  0.0000E+00  0.0000E+00  0.0000E+00
    -40.895  0.0000E+00  0.0000E+00  0.0000E+00  0.0000E+00  0.0000E+00  0.0000E+00  0.0000E+00  0.0000E+00  0.0000E+00  0.0000E+00  0.0000E+00  0.0000E+00  0.0000E+00  0.0000E+00  0.0000E+00  0.0000E+00  0.0000E+00  0.0000E+00
    -40.701  0.0000E+00  0.0000E+00  0.0000E+00  0.0000E+00  0.0000E+00  0.0000E+00  0.0000E+00  0.0000E+00  0.0000E+00  0.0000E+00  0.0000E+00  0.0000E+00  0.0000E+00  0.0000E+00  0.0000E+00  0.0000E+00  0.0000E+00  0.0000E+00
    -40.506  0.0000E+00  0.0000E+00  0.0000E+00  0.0000E+00  0.0000E+00  0.0000E+00  0.0000E+00  0.0000E+00  0.0000E+00  0.0000E+00  0.0000E+00  0.0000E+00  0.0000E+00  0.0000E+00  0.0000E+00  0.0000E+00  0.0000E+00  0.0000E+00
    -40.312  0.0000E+00  0.0000E+00  0.0000E+00  0.0000E+00  0.0000E+00  0.0000E+00  0.0000E+00  0.0000E+00  0.0000E+00  0.0000E+00  0.0000E+00  0.0000E+00  0.0000E+00  0.0000E+00  0.0000E+00  0.0000E+00  0.0000E+00  0.0000E+00
    -40.118  0.0000E+00  0.0000E+00  0.0000E+00  0.0000E+00  0.0000E+00  0.0000E+00  0.0000E+00  0.0000E+00  0.0000E+00  0.0000E+00  0.0000E+00  0.0000E+00  0.0000E+00  0.0000E+00  0.0000E+00  0.0000E+00  0.0000E+00  0.0000E+00
    -39.923  0.0000E+00  0.0000E+00  0.0000E+00  0.0000E+00  0.0000E+00  0.0000E+00  0.0000E+00  0.0000E+00  0.0000E+00  0.0000E+00  0.0000E+00  0.0000E+00  0.0000E+00  0.0000E+00  0.0000E+00  0.0000E+00  0.0000E+00  0.0000E+00
    -39.729  0.0000E+00  0.0000E+00  0.0000E+00  0.0000E+00  0.0000E+00  0.0000E+00  0.0000E+00  0.0000E+00  0.0000E+00  0.0000E+00  0.0000E+00  0.0000E+00  0.0000E+00  0.0000E+00  0.0000E+00  0.0000E+00  0.0000E+00  0.0000E+00
    -39.535  0.0000E+00  0.0000E+00  0.0000E+00  0.0000E+00  0.0000E+00  0.0000E+00  0.0000E+00  0.0000E+00  0.0000E+00  0.0000E+00  0.0000E+00  0.0000E+00  0.0000E+00  0.0000E+00  0.0000E+00  0.0000E+00  0.0000E+00  0.0000E+00
    -39.340  0.0000E+00  0.0000E+00  0.0000E+00  0.0000E+00  0.0000E+00  0.0000E+00  0.0000E+00  0.0000E+00  0.0000E+00  0.0000E+00  0.0000E+00  0.0000E+00  0.0000E+00  0.0000E+00  0.0000E+00  0.0000E+00  0.0000E+00  0.0000E+00
    -39.146  0.0000E+00  0.0000E+00  0.0000E+00  0.0000E+00  0.0000E+00  0.0000E+00  0.0000E+00  0.0000E+00  0.0000E+00  0.0000E+00  0.0000E+00  0.0000E+00  0.0000E+00  0.0000E+00  0.0000E+00  0.0000E+00  0.0000E+00  0.0000E+00
    -38.952  0.0000E+00  0.0000E+00  0.0000E+00  0.0000E+00  0.0000E+00  0.0000E+00  0.0000E+00  0.0000E+00  0.0000E+00  0.0000E+00  0.0000E+00  0.0000E+00  0.0000E+00  0.0000E+00  0.0000E+00  0.0000E+00  0.0000E+00  0.0000E+00
    -38.758  0.0000E+00  0.0000E+00  0.0000E+00  0.0000E+00  0.0000E+00  0.0000E+00  0.0000E+00  0.0000E+00  0.0000E+00  0.0000E+00  0.0000E+00  0.0000E+00  0.0000E+00  0.0000E+00  0.0000E+00  0.0000E+00  0.0000E+00  0.0000E+00
    -38.563  0.0000E+00  0.0000E+00  0.0000E+00  0.0000E+00  0.0000E+00  0.0000E+00  0.0000E+00  0.0000E+00  0.0000E+00  0.0000E+00  0.0000E+00  0.0000E+00  0.0000E+00  0.0000E+00  0.0000E+00  0.0000E+00  0.0000E+00  0.0000E+00
    -38.369  0.0000E+00  0.0000E+00  0.0000E+00  0.0000E+00  0.0000E+00  0.0000E+00  0.0000E+00  0.0000E+00  0.0000E+00  0.0000E+00  0.0000E+00  0.0000E+00  0.0000E+00  0.0000E+00  0.0000E+00  0.0000E+00  0.0000E+00  0.0000E+00
    -38.175  0.0000E+00  0.0000E+00  0.0000E+00  0.0000E+00  0.0000E+00  0.0000E+00  0.0000E+00  0.0000E+00  0.0000E+00  0.0000E+00  0.0000E+00  0.0000E+00  0.0000E+00  0.0000E+00  0.0000E+00  0.0000E+00  0.0000E+00  0.0000E+00
    -37.980  0.0000E+00  0.0000E+00  0.0000E+00  0.0000E+00  0.0000E+00  0.0000E+00  0.0000E+00  0.0000E+00  0.0000E+00  0.0000E+00  0.0000E+00  0.0000E+00  0.0000E+00  0.0000E+00  0.0000E+00  0.0000E+00  0.0000E+00  0.0000E+00
    -37.786  0.0000E+00  0.0000E+00  0.0000E+00  0.0000E+00  0.0000E+00  0.0000E+00  0.0000E+00  0.0000E+00  0.0000E+00  0.0000E+00  0.0000E+00  0.0000E+00  0.0000E+00  0.0000E+00  0.0000E+00  0.0000E+00  0.0000E+00  0.0000E+00