   4   4   1   0
  0.1629274E+02  0.4024248E-09  0.4024248E-09  0.4024248E-09  0.5000000E-15
  1.000000000000000E-004
  CAR 
 unknown system                          
     14.98734327    -43.74828258  301      7.80219904      1.00000000
    -43.748  0.0000E+00  0.0000E+00  0.0000E+00  0.0000E+00
    -43.552  0.0000E+00  0.0000E+00  0.0000E+00  0.0000E+00
    -43.357  0.0000E+00  0.0000E+00  0.0000E+00  0.0000E+00
    -43.161  0.0000E+00  0.0000E+00  0.0000E+00  0.0000E+00
    -42.965  0.0000E+00  0.0000E+00  0.0000E+00  0.0000E+00
    -42.769  0.0000E+00  0.0000E+00  0.0000E+00  0.0000E+00
    -42.574  0.0000E+00  0.0000E+00  0.0000E+00  0.0000E+00
    -42.378  0.0000E+00  0.0000E+00  0.0000E+00  0.0000E+00
    -42.182  0.0000E+00  0.0000E+00  0.0000E+00  0.0000E+00
    -41.986  0.0000E+00  0.0000E+00  0.0000E+00  0.0000E+00
    -41.790  0.0000E+00  0.0000E+00  0.0000E+00  0.0000E+00
    -41.595  0.1590E-03  0.1608E-03  0.3113E-04  0.3149E-04
    -41.399  0.7808E-02  0.7898E-02  0.1560E-02  0.1578E-02
    -41.203  0.3633E+00  0.3672E+00  0.7270E-01  0.7348E-01
    -41.007  0.3701E+01  0.3706E+01  0.7973E+00  0.7991E+00
    -40.812  0.1010E+01  0.1000E+01  0.9950E+00  0.9950E+00
    -40.616  0.0000E+00  0.0000E+00  0.1000E+01  0.1000E+01
    -40.420  0.0000E+00  0.0000E+00  0.1000E+01  0.1000E+01
    -40.224  0.0000E+00  0.0000E+00  0.1000E+01  0.1000E+01
    -40.028  0.0000E+00  0.0000E+00  0.1000E+01  0.1000E+01
    -39.833  0.0000E+00  0.0000E+00  0.1000E+01  0.1000E+01
    -39.637  0.0000E+00  0.0000E+00  0.1000E+01  0.1000E+01
    -39.441  0.0000E+00  0.0000E+00  0.1000E+01  0.1000E+01
    -39.245  0.0000E+00  0.0000E+00  0.1000E+01  0.1000E+01
    -39.049  0.0000E+00  0.0000E+00  0.1000E+01  0.1000E+01
    -38.854  0.0000E+00  0.0000E+00  0.1000E+01  0.1000E+01
    -38.658  0.0000E+00  0.0000E+00  0.1000E+01  0.1000E+01
    -38.462  0.0000E+00  0.0000E+00  0.1000E+01  0.1000E+01
    -38.266  0.0000E+00  0.0000E+00  0.1000E+01  0.1000E+01
    -38.071  0.0000E+00  0.0000E+00  0.1000E+01  0.1000E+01
    -37.875  0.0000E+00  0.0000E+00  0.1000E+01  0.1000E+01
    -37.679  0.0000E+00  0.0000E+00  0.1000E+01  0.1000E+01
    -37.483  0.0000E+00  0.0000E+00  0.1000E+01  0.1000E+01
    -37.287  0.0000E+00  0.0000E+00  0.1000E+01  0.1000E+01
    -37.092  0.0000E+00  0.0000E+00  0.1000E+01  0.1000E+01
    -36.896  0.0000E+00  0.0000E+00  0.1000E+01  0.1000E+01
    -36.700  0.0000E+00  0.0000E+00  0.1000E+01  0.1000E+01
    -36.504  0.0000E+00  0.0000E+00  0.1000E+01  0.1000E+01
    -36.308  0.0000E+00  0.0000E+00  0.1000E+01  0.1000E+01
    -36.113  0.0000E+00  0.0000E+00  0.1000E+01  0.1000E+01
    -35.917  0.0000E+00  0.0000E+00  0.1000E+01  0.1000E+01
    -35.721  0.0000E+00  0.0000E+00  0.1000E+01  0.1000E+01
    -35.525  0.0000E+00  0.0000E+00  0.1000E+01  0.1000E+01
    -35.330  0.0000E+00  0.0000E+00  0.1000E+01  0.1000E+01
    -35.134  0.0000E+00  0.0000E+00  0.1000E+01  0.1000E+01
    -34.938  0.0000E+00  0.0000E+00  0.1000E+01  0.1000E+01
    -34.742  0.0000E+00  0.0000E+00  0.1000E+01  0.1000E+01
    -34.546  0.0000E+00  0.0000E+00  0.1000E+01  0.1000E+01
    -34.351  0.0000E+00  0.0000E+00  0.1000E+01  0.1000E+01
    -34.155  0.0000E+00  0.0000E+00  0.1000E+01  0.1000E+01
    -33.959  0.0000E+00  0.0000E+00  0.1000E+01  0.1000E+01
    -33.763  0.0000E+00  0.0000E+00  0.1000E+01  0.1000E+01
    -33.567  0.0000E+00  0.0000E+00  0.1000E+01  0.1000E+01
    -33.372  0.0000E+00  0.0000E+00  0.1000E+01  0.1000E+01
    -33.176  0.0000E+00  0.0000E+00  0.1000E+01  0.1000E+01
    -32.980  0.0000E+00  0.0000E+00  0.1000E+01  0.1000E+01
    -32.784  0.0000E+00  0.0000E+00  0.1000E+01  0.1000E+01
    -32.589  0.0000E+00  0.0000E+00  0.1000E+01  0.1000E+01
    -32.393  0.0000E+00  0.0000E+00  0.1000E+01  0.1000E+01
    -32.197  0.0000E+00  0.0000E+00  0.1000E+01  0.1000E+01
    -32.001  0.0000E+00  0.0000E+00  0.1000E+01  0.1000E+01
    -31.805  0.0000E+00  0.0000E+00  0.1000E+01  0.1000E+01
    -31.610  0.0000E+00  0.0000E+00  0.1000E+01  0.1000E+01
    -31.414  0.0000E+00  0.0000E+00  0.1000E+01  0.1000E+01
    -31.218  0.0000E+00  0.0000E+00  0.1000E+01  0.1000E+01
    -31.022  0.0000E+00  0.0000E+00  0.1000E+01  0.1000E+01
    -30.826  0.0000E+00  0.0000E+00  0.1000E+01  0.1000E+01
    -30.631  0.0000E+00  0.0000E+00  0.1000E+01  0.1000E+01
    -30.435  0.0000E+00  0.0000E+00  0.1000E+01  0.1000E+01
    -30.239  0.0000E+00  0.0000E+00  0.1000E+01  0.1000E+01
    -30.043  0.0000E+00  0.0000E+00  0.1000E+01  0.1000E+01
    -29.848  0.0000E+00  0.0000E+00  0.1000E+01  0.1000E+01
    -29.652  0.0000E+00  0.0000E+00  0.1000E+01  0.1000E+01
    -29.456  0.0000E+00  0.0000E+00  0.1000E+01  0.1000E+01
    -29.260  0.0000E+00  0.0000E+00  0.1000E+01  0.1000E+01
    -29.064  0.0000E+00  0.0000E+00  0.1000E+01  0.1000E+01
    -28.869  0.0000E+00  0.0000E+00  0.1000E+01  0.1000E+01
    -28.673  0.0000E+00  0.0000E+00  0.1000E+01  0.1000E+01
    -28.477  0.0000E+00  0.0000E+00  0.1000E+01  0.1000E+01
    -28.281  0.0000E+00  0.0000E+00  0.1000E+01  0.1000E+01
    -28.085  0.0000E+00  0.0000E+00  0.1000E+01  0.1000E+01
    -27.890  0.0000E+00  0.0000E+00  0.1000E+01  0.1000E+01
    -27.694  0.0000E+00  0.0000E+00  0.1000E+01  0.1000E+01
    -27.498  0.0000E+00  0.0000E+00  0.1000E+01  0.1000E+01
    -27.302  0.0000E+00  0.0000E+00  0.1000E+01  0.1000E+01
    -27.107  0.0000E+00  0.0000E+00  0.1000E+01  0.1000E+01
    -26.911  0.0000E+00  0.0000E+00  0.1000E+01  0.1000E+01
    -26.715  0.0000E+00  0.0000E+00  0.1000E+01  0.1000E+01
    -26.519  0.0000E+00  0.0000E+00  0.1000E+01  0.1000E+01
    -26.323  0.0000E+00  0.0000E+00  0.1000E+01  0.1000E+01
    -26.128  0.0000E+00  0.0000E+00  0.1000E+01  0.1000E+01
    -25.932  0.0000E+00  0.0000E+00  0.1000E+01  0.1000E+01
    -25.736  0.0000E+00  0.0000E+00  0.1000E+01  0.1000E+01
    -25.540  0.0000E+00  0.0000E+00  0.1000E+01  0.1000E+01
    -25.344  0.0000E+00  0.0000E+00  0.1000E+01  0.1000E+01
    -25.149  0.0000E+00  0.0000E+00  0.1000E+01  0.1000E+01
    -24.953  0.0000E+00  0.0000E+00  0.1000E+01  0.1000E+01
    -24.757  0.0000E+00  0.0000E+00  0.1000E+01  0.1000E+01
    -24.561  0.0000E+00  0.0000E+00  0.1000E+01  0.1000E+01
    -24.366  0.0000E+00  0.0000E+00  0.1000E+01  0.1000E+01
    -24.170  0.0000E+00  0.0000E+00  0.1000E+01  0.1000E+01
    -23.974  0.0000E+00  0.0000E+00  0.1000E+01  0.1000E+01
    -23.778  0.0000E+00  0.0000E+00  0.1000E+01  0.1000E+01
    -23.582  0.0000E+00  0.0000E+00  0.1000E+01  0.1000E+01
    -23.387  0.0000E+00  0.0000E+00  0.1000E+01  0.1000E+01
    -23.191  0.0000E+00  0.0000E+00  0.1000E+01  0.1000E+01
    -22.995  0.0000E+00  0.0000E+00  0.1000E+01  0.1000E+01
    -22.799  0.0000E+00  0.0000E+00  0.1000E+01  0.1000E+01
    -22.603  0.0000E+00  0.0000E+00  0.1000E+01  0.1000E+01
    -22.408  0.0000E+00  0.0000E+00  0.1000E+01  0.1000E+01
    -22.212  0.0000E+00  0.0000E+00  0.1000E+01  0.1000E+01
    -22.016  0.0000E+00  0.0000E+00  0.1000E+01  0.1000E+01
    -21.820  0.0000E+00  0.0000E+00  0.1000E+01  0.1000E+01
    -21.625  0.0000E+00  0.0000E+00  0.1000E+01  0.1000E+01
    -21.429  0.0000E+00  0.0000E+00  0.1000E+01  0.1000E+01
    -21.233  0.0000E+00  0.0000E+00  0.1000E+01  0.1000E+01
    -21.037  0.0000E+00  0.0000E+00  0.1000E+01  0.1000E+01
    -20.841  0.0000E+00  0.0000E+00  0.1000E+01  0.1000E+01
    -20.646  0.0000E+00  0.0000E+00  0.1000E+01  0.1000E+01
    -20.450  0.0000E+00  0.0000E+00  0.1000E+01  0.1000E+01
    -20.254  0.2595E-02  0.2566E-02  0.1001E+01  0.1001E+01
    -20.058  0.1265E+00  0.1251E+00  0.1025E+01  0.1025E+01
    -19.862  0.4383E+01  0.4349E+01  0.1883E+01  0.1877E+01
    -19.667  0.1008E+02  0.1011E+02  0.3857E+01  0.3855E+01
    -19.471  0.7158E+00  0.7235E+00  0.3997E+01  0.3997E+01
    -19.275  0.0000E+00  0.0000E+00  0.4000E+01  0.4000E+01
    -19.079  0.0000E+00  0.0000E+00  0.4000E+01  0.4000E+01
    -18.884  0.0000E+00  0.0000E+00  0.4000E+01  0.4000E+01
    -18.688  0.0000E+00  0.0000E+00  0.4000E+01  0.4000E+01
    -18.492  0.0000E+00  0.0000E+00  0.4000E+01  0.4000E+01
    -18.296  0.0000E+00  0.0000E+00  0.4000E+01  0.4000E+01
    -18.100  0.0000E+00  0.0000E+00  0.4000E+01  0.4000E+01
    -17.905  0.0000E+00  0.0000E+00  0.4000E+01  0.4000E+01
    -17.709  0.0000E+00  0.0000E+00  0.4000E+01  0.4000E+01
    -17.513  0.0000E+00  0.0000E+00  0.4000E+01  0.4000E+01
    -17.317  0.0000E+00  0.0000E+00  0.4000E+01  0.4000E+01
    -17.121  0.0000E+00  0.0000E+00  0.4000E+01  0.4000E+01
    -16.926  0.0000E+00  0.0000E+00  0.4000E+01  0.4000E+01
    -16.730  0.0000E+00  0.0000E+00  0.4000E+01  0.4000E+01
    -16.534  0.0000E+00  0.0000E+00  0.4000E+01  0.4000E+01
    -16.338  0.0000E+00  0.0000E+00  0.4000E+01  0.4000E+01
    -16.143  0.0000E+00  0.0000E+00  0.4000E+01  0.4000E+01
    -15.947  0.0000E+00  0.0000E+00  0.4000E+01  0.4000E+01
    -15.751  0.0000E+00  0.0000E+00  0.4000E+01  0.4000E+01
    -15.555  0.0000E+00  0.0000E+00  0.4000E+01  0.4000E+01
    -15.359  0.0000E+00  0.0000E+00  0.4000E+01  0.4000E+01
    -15.164  0.0000E+00  0.0000E+00  0.4000E+01  0.4000E+01
    -14.968  0.0000E+00  0.0000E+00  0.4000E+01  0.4000E+01
    -14.772  0.0000E+00  0.0000E+00  0.4000E+01  0.4000E+01
    -14.576  0.0000E+00  0.0000E+00  0.4000E+01  0.4000E+01
    -14.380  0.0000E+00  0.0000E+00  0.4000E+01  0.4000E+01
    -14.185  0.0000E+00  0.0000E+00  0.4000E+01  0.4000E+01
    -13.989  0.0000E+00  0.0000E+00  0.4000E+01  0.4000E+01
    -13.793  0.0000E+00  0.0000E+00  0.4000E+01  0.4000E+01
    -13.597  0.0000E+00  0.0000E+00  0.4000E+01  0.4000E+01
    -13.402  0.0000E+00  0.0000E+00  0.4000E+01  0.4000E+01
    -13.206  0.0000E+00  0.0000E+00  0.4000E+01  0.4000E+01
    -13.010  0.0000E+00  0.0000E+00  0.4000E+01  0.4000E+01
    -12.814  0.0000E+00  0.0000E+00  0.4000E+01  0.4000E+01
    -12.618  0.0000E+00  0.0000E+00  0.4000E+01  0.4000E+01
    -12.423  0.0000E+00  0.0000E+00  0.4000E+01  0.4000E+01
    -12.227  0.0000E+00  0.0000E+00  0.4000E+01  0.4000E+01
    -12.031  0.0000E+00  0.0000E+00  0.4000E+01  0.4000E+01
    -11.835  0.0000E+00  0.0000E+00  0.4000E+01  0.4000E+01
    -11.639  0.0000E+00  0.0000E+00  0.4000E+01  0.4000E+01
    -11.444  0.0000E+00  0.0000E+00  0.4000E+01  0.4000E+01
    -11.248  0.0000E+00  0.0000E+00  0.4000E+01  0.4000E+01
    -11.052  0.0000E+00  0.0000E+00  0.4000E+01  0.4000E+01
    -10.856  0.0000E+00  0.0000E+00  0.4000E+01  0.4000E+01
    -10.661  0.0000E+00  0.0000E+00  0.4000E+01  0.4000E+01
    -10.465  0.0000E+00  0.0000E+00  0.4000E+01  0.4000E+01
    -10.269  0.0000E+00  0.0000E+00  0.4000E+01  0.4000E+01
    -10.073  0.0000E+00  0.0000E+00  0.4000E+01  0.4000E+01
     -9.877  0.0000E+00  0.0000E+00  0.4000E+01  0.4000E+01
     -9.682  0.0000E+00  0.0000E+00  0.4000E+01  0.4000E+01
     -9.486  0.0000E+00  0.0000E+00  0.4000E+01  0.4000E+01
     -9.290  0.0000E+00  0.0000E+00  0.4000E+01  0.4000E+01
     -9.094  0.0000E+00  0.0000E+00  0.4000E+01  0.4000E+01
     -8.898  0.0000E+00  0.0000E+00  0.4000E+01  0.4000E+01
     -8.703  0.0000E+00  0.0000E+00  0.4000E+01  0.4000E+01
     -8.507  0.0000E+00  0.0000E+00  0.4000E+01  0.4000E+01
     -8.311  0.0000E+00  0.0000E+00  0.4000E+01  0.4000E+01
     -8.115  0.0000E+00  0.0000E+00  0.4000E+01  0.4000E+01
     -7.920  0.0000E+00  0.0000E+00  0.4000E+01  0.4000E+01
     -7.724  0.0000E+00  0.0000E+00  0.4000E+01  0.4000E+01
     -7.528  0.0000E+00  0.0000E+00  0.4000E+01  0.4000E+01
     -7.332  0.0000E+00  0.0000E+00  0.4000E+01  0.4000E+01
     -7.136  0.0000E+00  0.0000E+00  0.4000E+01  0.4000E+01
     -6.941  0.0000E+00  0.0000E+00  0.4000E+01  0.4000E+01
     -6.745  0.0000E+00  0.0000E+00  0.4000E+01  0.4000E+01
     -6.549  0.0000E+00  0.0000E+00  0.4000E+01  0.4000E+01
     -6.353  0.0000E+00  0.0000E+00  0.4000E+01  0.4000E+01
     -6.157  0.0000E+00  0.0000E+00  0.4000E+01  0.4000E+01
     -5.962  0.0000E+00  0.0000E+00  0.4000E+01  0.4000E+01
     -5.766  0.0000E+00  0.0000E+00  0.4000E+01  0.4000E+01
     -5.570  0.0000E+00  0.0000E+00  0.4000E+01  0.4000E+01
     -5.374  0.0000E+00  0.0000E+00  0.4000E+01  0.4000E+01
     -5.179  0.0000E+00  0.0000E+00  0.4000E+01  0.4000E+01
     -4.983  0.0000E+00  0.0000E+00  0.4000E+01  0.4000E+01
     -4.787  0.0000E+00  0.0000E+00  0.4000E+01  0.4000E+01
     -4.591  0.0000E+00  0.0000E+00  0.4000E+01  0.4000E+01
     -4.395  0.0000E+00  0.0000E+00  0.4000E+01  0.4000E+01
     -4.200  0.0000E+00  0.0000E+00  0.4000E+01  0.4000E+01
     -4.004  0.0000E+00  0.0000E+00  0.4000E+01  0.4000E+01
     -3.808  0.0000E+00  0.0000E+00  0.4000E+01  0.4000E+01
     -3.612  0.0000E+00  0.0000E+00  0.4000E+01  0.4000E+01
     -3.416  0.0000E+00  0.0000E+00  0.4000E+01  0.4000E+01
     -3.221  0.0000E+00  0.0000E+00  0.4000E+01  0.4000E+01
     -3.025  0.0000E+00  0.0000E+00  0.4000E+01  0.4000E+01
     -2.829  0.2297E-04  0.2285E-04  0.4000E+01  0.4000E+01
     -2.633  0.1123E-02  0.1117E-02  0.4000E+01  0.4000E+01
     -2.438  0.4317E-01  0.4299E-01  0.4009E+01  0.4009E+01
     -2.242  0.1336E+00  0.1337E+00  0.4035E+01  0.4035E+01
     -2.046  0.2446E-01  0.2444E-01  0.4040E+01  0.4040E+01
     -1.850  0.2978E+00  0.2970E+00  0.4098E+01  0.4098E+01
     -1.654  0.2488E+00  0.2495E+00  0.4147E+01  0.4147E+01
     -1.459  0.6962E-01  0.6921E-01  0.4162E+01  0.4162E+01
     -1.263  0.4276E+00  0.4276E+00  0.4246E+01  0.4246E+01
     -1.067  0.9225E-01  0.9245E-01  0.4264E+01  0.4264E+01
     -0.871  0.4504E+00  0.4491E+00  0.4352E+01  0.4352E+01
     -0.675  0.2858E+00  0.2871E+00  0.4408E+01  0.4408E+01
     -0.480  0.4155E+00  0.4129E+00  0.4491E+01  0.4491E+01
     -0.284  0.6723E+00  0.6747E+00  0.4623E+01  0.4623E+01
     -0.088  0.1343E+00  0.1338E+00  0.4649E+01  0.4649E+01
      0.108  0.4239E+00  0.4243E+00  0.4732E+01  0.4732E+01
      0.303  0.2286E+00  0.2273E+00  0.4777E+01  0.4777E+01
      0.499  0.3608E+00  0.3624E+00  0.4848E+01  0.4848E+01
      0.695  0.1451E+00  0.1444E+00  0.4877E+01  0.4876E+01
      0.891  0.8385E+00  0.8388E+00  0.5041E+01  0.5041E+01
      1.087  0.1835E+00  0.1841E+00  0.5077E+01  0.5077E+01
      1.282  0.4806E+00  0.4812E+00  0.5172E+01  0.5172E+01
      1.478  0.6274E+00  0.6267E+00  0.5294E+01  0.5294E+01
      1.674  0.2917E+00  0.2916E+00  0.5352E+01  0.5351E+01
      1.870  0.4467E+00  0.4470E+00  0.5439E+01  0.5439E+01
      2.066  0.3624E+00  0.3624E+00  0.5510E+01  0.5510E+01
      2.261  0.7732E+00  0.7733E+00  0.5662E+01  0.5662E+01
      2.457  0.6264E+00  0.6260E+00  0.5784E+01  0.5784E+01
      2.653  0.9745E+00  0.9748E+00  0.5975E+01  0.5975E+01
      2.849  0.4620E+00  0.4619E+00  0.6067E+01  0.6067E+01
      3.044  0.7583E+00  0.7580E+00  0.6216E+01  0.6216E+01
      3.240  0.6182E+00  0.6186E+00  0.6337E+01  0.6337E+01
      3.436  0.1790E+00  0.1789E+00  0.6372E+01  0.6372E+01
      3.632  0.4691E+00  0.4676E+00  0.6465E+01  0.6465E+01
      3.828  0.1360E+01  0.1360E+01  0.6731E+01  0.6731E+01
      4.023  0.6369E+00  0.6392E+00  0.6856E+01  0.6856E+01
      4.219  0.2020E+00  0.2011E+00  0.6896E+01  0.6896E+01
      4.415  0.7066E+00  0.7072E+00  0.7035E+01  0.7036E+01
      4.611  0.7662E+00  0.7652E+00  0.7185E+01  0.7185E+01
      4.807  0.5282E+00  0.5287E+00  0.7291E+01  0.7291E+01
      5.002  0.7819E+00  0.7815E+00  0.7444E+01  0.7444E+01
      5.198  0.6910E+00  0.6916E+00  0.7580E+01  0.7580E+01
      5.394  0.2337E+01  0.2337E+01  0.8038E+01  0.8038E+01
      5.590  0.1056E+01  0.1055E+01  0.8245E+01  0.8245E+01
      5.785  0.5219E+00  0.5223E+00  0.8351E+01  0.8350E+01
      5.981  0.1480E+01  0.1480E+01  0.8640E+01  0.8640E+01
      6.177  0.1184E+01  0.1185E+01  0.8872E+01  0.8872E+01
      6.373  0.6987E+00  0.6980E+00  0.9011E+01  0.9011E+01
      6.569  0.1559E+01  0.1557E+01  0.9317E+01  0.9316E+01
      6.764  0.7827E+00  0.7852E+00  0.9471E+01  0.9471E+01
      6.960  0.1702E+00  0.1700E+00  0.9507E+01  0.9507E+01
      7.156  0.5180E+00  0.5180E+00  0.9608E+01  0.9608E+01
      7.352  0.8899E+00  0.8899E+00  0.9783E+01  0.9782E+01
      7.547  0.3073E+00  0.3070E+00  0.9843E+01  0.9843E+01
      7.743  0.5445E+00  0.5434E+00  0.9950E+01  0.9950E+01
      7.939  0.1073E+01  0.1074E+01  0.1016E+02  0.1016E+02
      8.135  0.5413E+00  0.5419E+00  0.1027E+02  0.1027E+02
      8.331  0.1024E+01  0.1020E+01  0.1047E+02  0.1047E+02
      8.526  0.6339E+00  0.6382E+00  0.1059E+02  0.1059E+02
      8.722  0.5440E+00  0.5412E+00  0.1070E+02  0.1070E+02
      8.918  0.2011E+01  0.2011E+01  0.1109E+02  0.1109E+02
      9.114  0.1296E+01  0.1297E+01  0.1135E+02  0.1135E+02
      9.310  0.1008E+01  0.1008E+01  0.1155E+02  0.1155E+02
      9.505  0.9849E+00  0.9857E+00  0.1174E+02  0.1174E+02
      9.701  0.1099E+01  0.1100E+01  0.1196E+02  0.1196E+02
      9.897  0.1967E+01  0.1962E+01  0.1234E+02  0.1234E+02
     10.093  0.2226E+01  0.2228E+01  0.1278E+02  0.1278E+02
     10.288  0.1632E+01  0.1631E+01  0.1310E+02  0.1310E+02
     10.484  0.1907E+01  0.1909E+01  0.1348E+02  0.1348E+02
     10.680  0.9905E+00  0.9948E+00  0.1367E+02  0.1367E+02
     10.876  0.1498E+01  0.1491E+01  0.1397E+02  0.1397E+02
     11.072  0.2677E+01  0.2679E+01  0.1449E+02  0.1449E+02
     11.267  0.8511E+00  0.8571E+00  0.1466E+02  0.1466E+02
     11.463  0.1123E+00  0.1352E+00  0.1468E+02  0.1469E+02
     11.659  0.1132E+01  0.1486E+01  0.1490E+02  0.1498E+02
     11.855  0.2139E+01  0.1837E+01  0.1532E+02  0.1534E+02
     12.051  0.1349E+01  0.1444E+01  0.1559E+02  0.1562E+02
     12.246  0.1257E+01  0.8907E+00  0.1584E+02  0.1580E+02
     12.442  0.7751E+00  0.9327E+00  0.1599E+02  0.1598E+02
     12.638  0.4244E-01  0.7847E-01  0.1600E+02  0.1600E+02
     12.834  0.0000E+00  0.0000E+00  0.1600E+02  0.1600E+02
     13.029  0.0000E+00  0.0000E+00  0.1600E+02  0.1600E+02
     13.225  0.0000E+00  0.0000E+00  0.1600E+02  0.1600E+02
     13.421  0.0000E+00  0.0000E+00  0.1600E+02  0.1600E+02
     13.617  0.0000E+00  0.0000E+00  0.1600E+02  0.1600E+02
     13.813  0.0000E+00  0.0000E+00  0.1600E+02  0.1600E+02
     14.008  0.0000E+00  0.0000E+00  0.1600E+02  0.1600E+02
     14.204  0.0000E+00  0.0000E+00  0.1600E+02  0.1600E+02
     14.400  0.0000E+00  0.0000E+00  0.1600E+02  0.1600E+02
     14.596  0.0000E+00  0.0000E+00  0.1600E+02  0.1600E+02
     14.792  0.0000E+00  0.0000E+00  0.1600E+02  0.1600E+02
     14.987  0.0000E+00  0.0000E+00  0.1600E+02  0.1600E+02
     14.98734327    -43.74828258  301      7.80219904      1.00000000
    -43.748  0.0000E+00  0.0000E+00  0.0000E+00  0.0000E+00  0.0000E+00  0.0000E+00  0.0000E+00  0.0000E+00  0.0000E+00  0.0000E+00  0.0000E+00  0.0000E+00  0.0000E+00  0.0000E+00  0.0000E+00  0.0000E+00  0.0000E+00  0.0000E+00
    -43.552  0.0000E+00  0.0000E+00  0.0000E+00  0.0000E+00  0.0000E+00  0.0000E+00  0.0000E+00  0.0000E+00  0.0000E+00  0.0000E+00  0.0000E+00  0.0000E+00  0.0000E+00  0.0000E+00  0.0000E+00  0.0000E+00  0.0000E+00  0.0000E+00
    -43.357  0.0000E+00  0.0000E+00  0.0000E+00  0.0000E+00  0.0000E+00  0.0000E+00  0.0000E+00  0.0000E+00  0.0000E+00  0.0000E+00  0.0000E+00  0.0000E+00  0.0000E+00  0.0000E+00  0.0000E+00  0.0000E+00  0.0000E+00  0.0000E+00
    -43.161  0.0000E+00  0.0000E+00  0.0000E+00  0.0000E+00  0.0000E+00  0.0000E+00  0.0000E+00  0.0000E+00  0.0000E+00  0.0000E+00  0.0000E+00  0.0000E+00  0.0000E+00  0.0000E+00  0.0000E+00  0.0000E+00  0.0000E+00  0.0000E+00
    -42.965  0.0000E+00  0.0000E+00  0.0000E+00  0.0000E+00  0.0000E+00  0.0000E+00  0.0000E+00  0.0000E+00  0.0000E+00  0.0000E+00  0.0000E+00  0.0000E+00  0.0000E+00  0.0000E+00  0.0000E+00  0.0000E+00  0.0000E+00  0.0000E+00
    -42.769  0.0000E+00  0.0000E+00  0.0000E+00  0.0000E+00  0.0000E+00  0.0000E+00  0.0000E+00  0.0000E+00  0.0000E+00  0.0000E+00  0.0000E+00  0.0000E+00  0.0000E+00  0.0000E+00  0.0000E+00  0.0000E+00  0.0000E+00  0.0000E+00
    -42.574  0.0000E+00  0.0000E+00  0.0000E+00  0.0000E+00  0.0000E+00  0.0000E+00  0.0000E+00  0.0000E+00  0.0000E+00  0.0000E+00  0.0000E+00  0.0000E+00  0.0000E+00  0.0000E+00  0.0000E+00  0.0000E+00  0.0000E+00  0.0000E+00
    -42.378  0.0000E+00  0.0000E+00  0.0000E+00  0.0000E+00  0.0000E+00  0.0000E+00  0.0000E+00  0.0000E+00  0.0000E+00  0.0000E+00  0.0000E+00  0.0000E+00  0.0000E+00  0.0000E+00  0.0000E+00  0.0000E+00  0.0000E+00  0.0000E+00
    -42.182  0.0000E+00  0.0000E+00  0.0000E+00  0.0000E+00  0.0000E+00  0.0000E+00  0.0000E+00  0.0000E+00  0.0000E+00  0.0000E+00  0.0000E+00  0.0000E+00  0.0000E+00  0.0000E+00  0.0000E+00  0.0000E+00  0.0000E+00  0.0000E+00
    -41.986  0.0000E+00  0.0000E+00  0.0000E+00  0.0000E+00  0.0000E+00  0.0000E+00  0.0000E+00  0.0000E+00  0.0000E+00  0.0000E+00  0.0000E+00  0.0000E+00  0.0000E+00  0.0000E+00  0.0000E+00  0.0000E+00  0.0000E+00  0.0000E+00
    -41.790  0.0000E+00  0.0000E+00  0.0000E+00  0.0000E+00  0.0000E+00  0.0000E+00  0.0000E+00  0.0000E+00  0.0000E+00  0.0000E+00  0.0000E+00  0.0000E+00  0.0000E+00  0.0000E+00  0.0000E+00  0.0000E+00  0.0000E+00  0.0000E+00
    -41.595  0.1583E-03  0.1602E-03  0.7756E-12  0.7898E-12  0.7756E-12  0.7898E-12  0.7756E-12  0.7898E-12  0.1020E-12  0.1178E-12  0.1020E-12  0.1178E-12  0.7133E-12  0.1028E-11  0.1020E-12  0.1178E-12  0.7133E-12  0.1028E-11
    -41.399  0.7776E-02  0.7866E-02  0.3809E-10  0.3879E-10  0.3809E-10  0.3879E-10  0.3809E-10  0.3879E-10  0.5009E-11  0.5784E-11  0.5009E-11  0.5784E-11  0.3503E-10  0.5048E-10  0.5009E-11  0.5784E-11  0.3503E-10  0.5048E-10
    -41.203  0.3619E+00  0.3657E+00  0.1772E-08  0.1803E-08  0.1772E-08  0.1803E-08  0.1772E-08  0.1803E-08  0.2333E-09  0.2690E-09  0.2333E-09  0.2690E-09  0.1630E-08  0.2347E-08  0.2333E-09  0.2690E-09  0.1630E-08  0.2347E-08
    -41.007  0.3686E+01  0.3691E+01  0.1803E-07  0.1819E-07  0.1803E-07  0.1819E-07  0.1803E-07  0.1819E-07  0.2394E-08  0.2725E-08  0.2394E-08  0.2725E-08  0.1660E-07  0.2369E-07  0.2394E-08  0.2725E-08  0.1660E-07  0.2369E-07
    -40.812  0.1006E+01  0.9964E+00  0.4914E-08  0.4904E-08  0.4914E-08  0.4904E-08  0.4914E-08  0.4904E-08  0.6591E-09  0.7388E-09  0.6591E-09  0.7388E-09  0.4524E-08  0.6391E-08  0.6591E-09  0.7388E-09  0.4524E-08  0.6391E-08
    -40.616  0.0000E+00  0.0000E+00  0.0000E+00  0.0000E+00  0.0000E+00  0.0000E+00  0.0000E+00  0.0000E+00  0.0000E+00  0.0000E+00  0.0000E+00  0.0000E+00  0.0000E+00  0.0000E+00  0.0000E+00  0.0000E+00  0.0000E+00  0.0000E+00
    -40.420  0.0000E+00  0.0000E+00  0.0000E+00  0.0000E+00  0.0000E+00  0.0000E+00  0.0000E+00  0.0000E+00  0.0000E+00  0.0000E+00  0.0000E+00  0.0000E+00  0.0000E+00  0.0000E+00  0.0000E+00  0.0000E+00  0.0000E+00  0.0000E+00
    -40.224  0.0000E+00  0.0000E+00  0.0000E+00  0.0000E+00  0.0000E+00  0.0000E+00  0.0000E+00  0.0000E+00  0.0000E+00  0.0000E+00  0.0000E+00  0.0000E+00  0.0000E+00  0.0000E+00  0.0000E+00  0.0000E+00  0.0000E+00  0.0000E+00
    -40.028  0.0000E+00  0.0000E+00  0.0000E+00  0.0000E+00  0.0000E+00  0.0000E+00  0.0000E+00  0.0000E+00  0.0000E+00  0.0000E+00  0.0000E+00  0.0000E+00  0.0000E+00  0.0000E+00  0.0000E+00  0.0000E+00  0.0000E+00  0.0000E+00
    -39.833  0.0000E+00  0.0000E+00  0.0000E+00  0.0000E+00  0.0000E+00  0.0000E+00  0.0000E+00  0.0000E+00  0.0000E+00  0.0000E+00  0.0000E+00  0.0000E+00  0.0000E+00  0.0000E+00  0.0000E+00  0.0000E+00  0.0000E+00  0.0000E+00
    -39.637  0.0000E+00  0.0000E+00  0.0000E+00  0.0000E+00  0.0000E+00  0.0000E+00  0.0000E+00  0.0000E+00  0.0000E+00  0.0000E+00  0.0000E+00  0.0000E+00  0.0000E+00  0.0000E+00  0.0000E+00  0.0000E+00  0.0000E+00  0.0000E+00
    -39.441  0.0000E+00  0.0000E+00  0.0000E+00  0.0000E+00  0.0000E+00  0.0000E+00  0.0000E+00  0.0000E+00  0.0000E+00  0.0000E+00  0.0000E+00  0.0000E+00  0.0000E+00  0.0000E+00  0.0000E+00  0.0000E+00  0.0000E+00  0.0000E+00
    -39.245  0.0000E+00  0.0000E+00  0.0000E+00  0.0000E+00  0.0000E+00  0.0000E+00  0.0000E+00  0.0000E+00  0.0000E+00  0.0000E+00  0.0000E+00  0.0000E+00  0.0000E+00  0.0000E+00  0.0000E+00  0.0000E+00  0.0000E+00  0.0000E+00
    -39.049  0.0000E+00  0.0000E+00  0.0000E+00  0.0000E+00  0.0000E+00  0.0000E+00  0.0000E+00  0.0000E+00  0.0000E+00  0.0000E+00  0.0000E+00  0.0000E+00  0.0000E+00  0.0000E+00  0.0000E+00  0.0000E+00  0.0000E+00  0.0000E+00
    -38.854  0.0000E+00  0.0000E+00  0.0000E+00  0.0000E+00  0.0000E+00  0.0000E+00  0.0000E+00  0.0000E+00  0.0000E+00  0.0000E+00  0.0000E+00  0.0000E+00  0.0000E+00  0.0000E+00  0.0000E+00  0.0000E+00  0.0000E+00  0.0000E+00
    -38.658  0.0000E+00  0.0000E+00  0.0000E+00  0.0000E+00  0.0000E+00  0.0000E+00  0.0000E+00  0.0000E+00  0.0000E+00  0.0000E+00  0.0000E+00  0.0000E+00  0.0000E+00  0.0000E+00  0.0000E+00  0.0000E+00  0.0000E+00  0.0000E+00
    -38.462  0.0000E+00  0.0000E+00  0.0000E+00  0.0000E+00  0.0000E+00  0.0000E+00  0.0000E+00  0.0000E+00  0.0000E+00  0.0000E+00  0.0000E+00  0.0000E+00  0.0000E+00  0.0000E+00  0.0000E+00  0.0000E+00  0.0000E+00  0.0000E+00
    -38.266  0.0000E+00  0.0000E+00  0.0000E+00  0.0000E+00  0.0000E+00  0.0000E+00  0.0000E+00  0.0000E+00  0.0000E+00  0.0000E+00  0.0000E+00  0.0000E+00  0.0000E+00  0.0000E+00  0.0000E+00  0.0000E+00  0.0000E+00  0.0000E+00
    -38.071  0.0000E+00  0.0000E+00  0.0000E+00  0.0000E+00  0.0000E+00  0.0000E+00  0.0000E+00  0.0000E+00  0.0000E+00  0.0000E+00  0.0000E+00  0.0000E+00  0.0000E+00  0.0000E+00  0.0000E+00  0.0000E+00  0.0000E+00  0.0000E+00
    -37.875  0.0000E+00  0.0000E+00  0.0000E+00  0.0000E+00  0.0000E+00  0.0000E+00  0.0000E+00  0.0000E+00  0.0000E+00  0.0000E+00  0.0000E+00  0.0000E+00  0.0000E+00  0.0000E+00  0.0000E+00  0.0000E+00  0.0000E+00  0.0000E+00
    -37.679  0.0000E+00  0.0000E+00  0.0000E+00  0.0000E+00  0.0000E+00  0.0000E+00  0.0000E+00  0.0000E+00  0.0000E+00  0.0000E+00  0.0000E+00  0.0000E+00  0.0000E+00  0.0000E+00  0.0000E+00  0.0000E+00  0.0000E+00  0.0000E+00
    -37.483  0.0000E+00  0.0000E+00  0.0000E+00  0.0000E+00  0.0000E+00  0.0000E+00  0.0000E+00  0.0000E+00  0.0000E+00  0.0000E+00  0.0000E+00  0.0000E+00  0.0000E+00  0.0000E+00  0.0000E+00  0.0000E+00  0.0000E+00  0.0000E+00
    -37.287  0.0000E+00  0.0000E+00  0.0000E+00  0.0000E+00  0.0000E+00  0.0000E+00  0.0000E+00  0.0000E+00  0.0000E+00  0.0000E+00  0.0000E+00  0.0000E+00  0.0000E+00  0.0000E+00  0.0000E+00  0.0000E+00  0.0000E+00  0.0000E+00
    -37.092  0.0000E+00  0.0000E+00  0.0000E+00  0.0000E+00  0.0000E+00  0.0000E+00  0.0000E+00  0.0000E+00  0.0000E+00  0.0000E+00  0.0000E+00  0.0000E+00  0.0000E+00  0.0000E+00  0.0000E+00  0.0000E+00  0.0000E+00  0.0000E+00
    -36.896  0.0000E+00  0.0000E+00  0.0000E+00  0.0000E+00  0.0000E+00  0.0000E+00  0.0000E+00  0.0000E+00  0.0000E+00  0.0000E+00  0.0000E+00  0.0000E+00  0.0000E+00  0.0000E+00  0.0000E+00  0.0000E+00  0.0000E+00  0.0000E+00
    -36.700  0.0000E+00  0.0000E+00  0.0000E+00  0.0000E+00  0.0000E+00  0.0000E+00  0.0000E+00  0.0000E+00  0.0000E+00  0.0000E+00  0.0000E+00  0.0000E+00  0.0000E+00  0.0000E+00  0.0000E+00  0.0000E+00  0.0000E+00  0.0000E+00
    -36.504  0.0000E+00  0.0000E+00  0.0000E+00  0.0000E+00  0.0000E+00  0.0000E+00  0.0000E+00  0.0000E+00  0.0000E+00  0.0000E+00  0.0000E+00  0.0000E+00  0.0000E+00  0.0000E+00  0.0000E+00  0.0000E+00  0.0000E+00  0.0000E+00
    -36.308  0.0000E+00  0.0000E+00  0.0000E+00  0.0000E+00  0.0000E+00  0.0000E+00  0.0000E+00  0.0000E+00  0.0000E+00  0.0000E+00  0.0000E+00  0.0000E+00  0.0000E+00  0.0000E+00  0.0000E+00  0.0000E+00  0.0000E+00  0.0000E+00
    -36.113  0.0000E+00  0.0000E+00  0.0000E+00  0.0000E+00  0.0000E+00  0.0000E+00  0.0000E+00  0.0000E+00  0.0000E+00  0.0000E+00  0.0000E+00  0.0000E+00  0.0000E+00  0.0000E+00  0.0000E+00  0.0000E+00  0.0000E+00  0.0000E+00
    -35.917  0.0000E+00  0.0000E+00  0.0000E+00  0.0000E+00  0.0000E+00  0.0000E+00  0.0000E+00  0.0000E+00  0.0000E+00  0.0000E+00  0.0000E+00  0.0000E+00  0.0000E+00  0.0000E+00  0.0000E+00  0.0000E+00  0.0000E+00  0.0000E+00
    -35.721  0.0000E+00  0.0000E+00  0.0000E+00  0.0000E+00  0.0000E+00  0.0000E+00  0.0000E+00  0.0000E+00  0.0000E+00  0.0000E+00  0.0000E+00  0.0000E+00  0.0000E+00  0.0000E+00  0.0000E+00  0.0000E+00  0.0000E+00  0.0000E+00
    -35.525  0.0000E+00  0.0000E+00  0.0000E+00  0.0000E+00  0.0000E+00  0.0000E+00  0.0000E+00  0.0000E+00  0.0000E+00  0.0000E+00  0.0000E+00  0.0000E+00  0.0000E+00  0.0000E+00  0.0000E+00  0.0000E+00  0.0000E+00  0.0000E+00
    -35.330  0.0000E+00  0.0000E+00  0.0000E+00  0.0000E+00  0.0000E+00  0.0000E+00  0.0000E+00  0.0000E+00  0.0000E+00  0.0000E+00  0.0000E+00  0.0000E+00  0.0000E+00  0.0000E+00  0.0000E+00  0.0000E+00  0.0000E+00  0.0000E+00
    -35.134  0.0000E+00  0.0000E+00  0.0000E+00  0.0000E+00  0.0000E+00  0.0000E+00  0.0000E+00  0.0000E+00  0.0000E+00  0.0000E+00  0.0000E+00  0.0000E+00  0.0000E+00  0.0000E+00  0.0000E+00  0.0000E+00  0.0000E+00  0.0000E+00
    -34.938  0.0000E+00  0.0000E+00  0.0000E+00  0.0000E+00  0.0000E+00  0.0000E+00  0.0000E+00  0.0000E+00  0.0000E+00  0.0000E+00  0.0000E+00  0.0000E+00  0.0000E+00  0.0000E+00  0.0000E+00  0.0000E+00  0.0000E+00  0.0000E+00
    -34.742  0.0000E+00  0.0000E+00  0.0000E+00  0.0000E+00  0.0000E+00  0.0000E+00  0.0000E+00  0.0000E+00  0.0000E+00  0.0000E+00  0.0000E+00  0.0000E+00  0.0000E+00  0.0000E+00  0.0000E+00  0.0000E+00  0.0000E+00  0.0000E+00
    -34.546  0.0000E+00  0.0000E+00  0.0000E+00  0.0000E+00  0.0000E+00  0.0000E+00  0.0000E+00  0.0000E+00  0.0000E+00  0.0000E+00  0.0000E+00  0.0000E+00  0.0000E+00  0.0000E+00  0.0000E+00  0.0000E+00  0.0000E+00  0.0000E+00
    -34.351  0.0000E+00  0.0000E+00  0.0000E+00  0.0000E+00  0.0000E+00  0.0000E+00  0.0000E+00  0.0000E+00  0.0000E+00  0.0000E+00  0.0000E+00  0.0000E+00  0.0000E+00  0.0000E+00  0.0000E+00  0.0000E+00  0.0000E+00  0.0000E+00
    -34.155  0.0000E+00  0.0000E+00  0.0000E+00  0.0000E+00  0.0000E+00  0.0000E+00  0.0000E+00  0.0000E+00  0.0000E+00  0.0000E+00  0.0000E+00  0.0000E+00  0.0000E+00  0.0000E+00  0.0000E+00  0.0000E+00  0.0000E+00  0.0000E+00
    -33.959  0.0000E+00  0.0000E+00  0.0000E+00  0.0000E+00  0.0000E+00  0.0000E+00  0.0000E+00  0.0000E+00  0.0000E+00  0.0000E+00  0.0000E+00  0.0000E+00  0.0000E+00  0.0000E+00  0.0000E+00  0.0000E+00  0.0000E+00  0.0000E+00