 vasp.6.1.0 28Jan20 (build Jun 11 2020 16:13:15) complex                        
  
 executed on             LinuxIFC date 2022.01.24  16:50:18
 running on   64 total cores
 distrk:  each k-point on   64 cores,    1 groups
 distr:  one band on NCORE=   1 cores,   64 groups


--------------------------------------------------------------------------------------------------------


 INCAR:
 POTCAR:    PAW_PBE Sc_sv 07Sep2000               
 POTCAR:    PAW_PBE Al 04Jan2001                  
 -----------------------------------------------------------------------------
|                                                                             |
|           W    W    AA    RRRRR   N    N  II  N    N   GGGG   !!!           |
|           W    W   A  A   R    R  NN   N  II  NN   N  G    G  !!!           |
|           W    W  A    A  R    R  N N  N  II  N N  N  G       !!!           |
|           W WW W  AAAAAA  RRRRR   N  N N  II  N  N N  G  GGG   !            |
|           WW  WW  A    A  R   R   N   NN  II  N   NN  G    G                |
|           W    W  A    A  R    R  N    N  II  N    N   GGGG   !!!           |
|                                                                             |
|     For optimal performance we recommend to set                             |
|       NCORE = 4 - approx SQRT(number of cores).                             |
|     NCORE specifies how many cores store one orbital (NPAR=cpu/NCORE).      |
|     This setting can greatly improve the performance of VASP for DFT.       |
|     The default, NCORE=1 might be grossly inefficient on modern             |
|     multi-core architectures or massively parallel machines. Do your        |
|     own testing!!!!                                                         |
|     Unfortunately you need to use the default for GW and RPA                |
|     calculations (for HF NCORE is supported but not extensively tested      |
|     yet).                                                                   |
|                                                                             |
 -----------------------------------------------------------------------------

 POTCAR:    PAW_PBE Sc_sv 07Sep2000               
   SHA256 =  9aad5a0618293b7e22b0823afd8bf80ef5c5e525eb8618ba91672918e18a06fa Sc_sv/POTCAR          
   COPYR  = (c) Copyright 07Sep2000 Georg Kresse                                                    
   COPYR  = This file is part of the software VASP. Any use, copying, and all other rights are regul
   COPYR  = If you do not have a valid VASP license, you may not use, copy or distribute this file. 
   VRHFIN =Sc: 3p4s3d                                                                               
   LEXCH  = PE                                                                                      
   EATOM  =  1273.2868 eV,   93.5839 Ry                                                             
                                                                                                    
   TITEL  = PAW_PBE Sc_sv 07Sep2000                                                                 
   LULTRA =        F    use ultrasoft PP ?                                                          
   IUNSCR =        1    unscreen: 0-lin 1-nonlin 2-no                                               
   RPACOR =    2.200    partial core radius                                                         
   POMASS =   44.956; ZVAL   =   11.000    mass and valenz                                          
   RCORE  =    2.500    outmost cutoff radius                                                       
   RWIGS  =    2.700; RWIGS  =    1.429    wigner-seitz radius (au A)                               
   ENMAX  =  222.660; ENMIN  =  166.995 eV                                                          
   RCLOC  =    1.805    cutoff for local pot                                                        
   LCOR   =        T    correct aug charges                                                         
   LPAW   =        T    paw PP                                                                      
   EAUG   =  443.063                                                                                
   RMAX   =    2.551    core radius for proj-oper                                                   
   RAUG   =    1.300    factor for augmentation sphere                                              
   RDEP   =    2.650    radius for radial grids                                                     
   RDEPT  =    2.038    core radius for aug-charge                                                  
                                                                                                    
   Atomic configuration                                                                             
    8 entries                                                                                       
     n  l   j            E        occ.                                                              
     1  0  0.50     -4394.2533   2.0000                                                             
     2  0  0.50      -471.0040   2.0000                                                             
     2  1  1.50      -384.9788   6.0000                                                             
     3  0  0.50       -52.1410   2.0000                                                             
     4  0  0.50        -3.5584   1.0000                                                             
     3  1  1.50       -30.8841   6.0000                                                             
     3  2  2.50        -1.3655   2.0000                                                             
     4  3  2.50        -1.3606   0.0000                                                             
   Description                                                                                      
     l       E           TYP  RCUT    TYP  RCUT                                                     
     0    -52.1409870     23  1.800                                                                 
     0     -3.5583698     23  2.500                                                                 
     1    -30.8840697     23  2.300                                                                 
     1      4.0817478     23  2.300                                                                 
     2     -1.3655397     23  2.500                                                                 
     2      0.3564476     23  2.500                                                                 
  local pseudopotential read in
  partial core-charges read in
  partial kinetic energy density read in
  atomic valenz-charges read in
  non local Contribution for L=           0  read in
    real space projection operators read in
  non local Contribution for L=           0  read in
    real space projection operators read in
  non local Contribution for L=           1  read in
    real space projection operators read in
  non local Contribution for L=           1  read in
    real space projection operators read in
  non local Contribution for L=           2  read in
    real space projection operators read in
  non local Contribution for L=           2  read in
    real space projection operators read in
    PAW grid and wavefunctions read in
 
   number of l-projection  operators is LMAX  =           6
   number of lm-projection operators is LMMAX =          18
 
 POTCAR:    PAW_PBE Al 04Jan2001                  
   SHA256 =  17880443556af62b473fe41b62a467bd001ad55d2cabe504a3f22e34d4e9db96 Al/POTCAR             
   COPYR  = (c) Copyright 04Jan2001 Georg Kresse                                                    
   COPYR  = This file is part of the software VASP. Any use, copying, and all other rights are regul
   COPYR  = If you do not have a valid VASP license, you may not use, copy or distribute this file. 
   VRHFIN =Al: s2p1                                                                                 
   LEXCH  = PE                                                                                      
   EATOM  =    53.5387 eV,    3.9350 Ry                                                             
                                                                                                    
   TITEL  = PAW_PBE Al 04Jan2001                                                                    
   LULTRA =        F    use ultrasoft PP ?                                                          
   IUNSCR =        1    unscreen: 0-lin 1-nonlin 2-no                                               
   RPACOR =    1.500    partial core radius                                                         
   POMASS =   26.981; ZVAL   =    3.000    mass and valenz                                          
   RCORE  =    1.900    outmost cutoff radius                                                       
   RWIGS  =    2.650; RWIGS  =    1.402    wigner-seitz radius (au A)                               
   ENMAX  =  240.300; ENMIN  =  180.225 eV                                                          
   ICORE  =        2    local potential                                                             
   LCOR   =        T    correct aug charges                                                         
   LPAW   =        T    paw PP                                                                      
   EAUG   =  291.052                                                                                
   DEXC   =    0.000                                                                                
   RMAX   =    1.939    core radius for proj-oper                                                   
   RAUG   =    1.300    factor for augmentation sphere                                              
   RDEP   =    1.966    radius for radial grids                                                     
   RDEPT  =    1.856    core radius for aug-charge                                                  
                                                                                                    
   Atomic configuration                                                                             
    6 entries                                                                                       
     n  l   j            E        occ.                                                              
     1  0  0.50     -1511.1048   2.0000                                                             
     2  0  0.50      -108.1629   2.0000                                                             
     2  1  1.50       -69.6402   6.0000                                                             
     3  0  0.50        -7.7528   2.0000                                                             
     3  1  1.50        -2.7121   1.0000                                                             
     3  2  2.50        -2.7212   0.0000                                                             
   Description                                                                                      
     l       E           TYP  RCUT    TYP  RCUT                                                     
     0     -7.7528455     23  1.900                                                                 
     0     -3.3096929     23  1.900                                                                 
     1     -2.7120682     23  1.900                                                                 
     1     13.6058260     23  1.900                                                                 
     2     -2.7211652      7  1.900                                                                 
  local pseudopotential read in
  partial core-charges read in
  partial kinetic energy density read in
  atomic valenz-charges read in
  non local Contribution for L=           0  read in
    real space projection operators read in
  non local Contribution for L=           0  read in
    real space projection operators read in
  non local Contribution for L=           1  read in
    real space projection operators read in
  non local Contribution for L=           1  read in
    real space projection operators read in
    PAW grid and wavefunctions read in
 
   number of l-projection  operators is LMAX  =           4
   number of lm-projection operators is LMMAX =           8
 
  PAW_PBE Sc_sv 07Sep2000               :
 energy of atom  1       EATOM=-1273.2868
 kinetic energy error for atom=    0.0025 (will be added to EATOM!!)
  PAW_PBE Al 04Jan2001                  :
 energy of atom  2       EATOM=  -53.5387
 kinetic energy error for atom=    0.0002 (will be added to EATOM!!)
 
 
 POSCAR: Sc1 Al3
  positions in direct lattice
  velocities in cartesian coordinates
 exchange correlation table for  LEXCH =        8
   RHO(1)=    0.500       N(1)  =     2000
   RHO(2)=  100.500       N(2)  =     4000
 


--------------------------------------------------------------------------------------------------------


 ion  position               nearest neighbor table
   1  0.000  0.000  0.000-   2 2.90   3 2.90   4 2.90   2 2.90   3 2.90   3 2.90   4 2.90   3 2.90
                             2 2.90   4 2.90   2 2.90   4 2.90
   2  0.500  0.000  0.500-   1 2.90   3 2.90   4 2.90   1 2.90   4 2.90   3 2.90   4 2.90   4 2.90
                             1 2.90   3 2.90   1 2.90   3 2.90
   3  0.000  0.500  0.500-   1 2.90   2 2.90   4 2.90   1 2.90   4 2.90   1 2.90   2 2.90   1 2.90
                             2 2.90   4 2.90   4 2.90   2 2.90
   4  0.500  0.500  0.000-   1 2.90   2 2.90   3 2.90   2 2.90   3 2.90   1 2.90   2 2.90   2 2.90
                             1 2.90   3 2.90   3 2.90   1 2.90
 
  LATTYP: Found a simple cubic cell.
 ALAT       =     4.1063754588
  
  Lattice vectors:
  
 A1 = (   4.1063754588,   0.0000000000,   0.0000000000)
 A2 = (   0.0000000000,   4.1063754588,   0.0000000000)
 A3 = (   0.0000000000,   0.0000000000,   4.1063754588)


Analysis of symmetry for initial positions (statically):
=====================================================================
 Subroutine PRICEL returns:
 Original cell was already a primitive cell.
 

 Routine SETGRP: Setting up the symmetry group for a 
 simple cubic supercell.


 Subroutine GETGRP returns: Found 48 space group operations
 (whereof 48 operations were pure point group operations)
 out of a pool of 48 trial point group operations.


The static configuration has the point symmetry O_h .


Analysis of symmetry for dynamics (positions and initial velocities):
=====================================================================
 Subroutine PRICEL returns:
 Original cell was already a primitive cell.
 

 Routine SETGRP: Setting up the symmetry group for a 
 simple cubic supercell.


 Subroutine GETGRP returns: Found 48 space group operations
 (whereof 48 operations were pure point group operations)
 out of a pool of 48 trial point group operations.


The dynamic configuration has the point symmetry O_h .


 Subroutine INISYM returns: Found 48 space group operations
 (whereof 48 operations are pure point group operations),
 and found     1 'primitive' translations


----------------------------------------------------------------------------------------

                                     Primitive cell                                     

  volume of cell :      69.2430

  direct lattice vectors                    reciprocal lattice vectors
     4.106375459  0.000000000  0.000000000     0.243523762  0.000000000  0.000000000
     0.000000000  4.106375459  0.000000000     0.000000000  0.243523762  0.000000000
     0.000000000  0.000000000  4.106375459     0.000000000  0.000000000  0.243523762

  length of vectors
     4.106375459  4.106375459  4.106375459     0.243523762  0.243523762  0.243523762

  position of ions in fractional coordinates (direct lattice)
     0.000000000  0.000000000  0.000000000
     0.500000000  0.000000000  0.500000000
     0.000000000  0.500000000  0.500000000
     0.500000000  0.500000000  0.000000000

  ion indices of the primitive-cell ions
   primitive index   ion index
                 1           1
                 2           2
                 3           3
                 4           4

----------------------------------------------------------------------------------------

 
 
 KPOINTS: pymatgen with grid density = 882 / numbe

Automatic generation of k-mesh.
Space group operators:
 irot       det(A)        alpha          n_x          n_y          n_z        tau_x        tau_y        tau_z
    1     1.000000     0.000001     1.000000     0.000000     0.000000     0.000000     0.000000     0.000000
    2    -1.000000     0.000001     1.000000     0.000000     0.000000     0.000000     0.000000     0.000000
    3     1.000000   120.000000    -0.577350    -0.577350    -0.577350     0.000000     0.000000     0.000000
    4    -1.000000   120.000000    -0.577350    -0.577350    -0.577350     0.000000     0.000000     0.000000
    5     1.000000   120.000000     0.577350     0.577350     0.577350     0.000000     0.000000     0.000000
    6    -1.000000   120.000000     0.577350     0.577350     0.577350     0.000000     0.000000     0.000000
    7     1.000000    90.000000     0.000000     0.000000    -1.000000     0.000000     0.000000     0.000000
    8    -1.000000    90.000000     0.000000     0.000000    -1.000000     0.000000     0.000000     0.000000
    9     1.000000   180.000000     0.000000     0.707107     0.707107     0.000000     0.000000     0.000000
   10    -1.000000   180.000000     0.000000     0.707107     0.707107     0.000000     0.000000     0.000000
   11     1.000000    90.000000     0.000000     1.000000     0.000000     0.000000     0.000000     0.000000
   12    -1.000000    90.000000     0.000000     1.000000     0.000000     0.000000     0.000000     0.000000
   13     1.000000   180.000000     0.000000     0.000000     1.000000     0.000000     0.000000     0.000000
   14    -1.000000   180.000000     0.000000     0.000000     1.000000     0.000000     0.000000     0.000000
   15     1.000000   120.000000    -0.577350     0.577350     0.577350     0.000000     0.000000     0.000000
   16    -1.000000   120.000000    -0.577350     0.577350     0.577350     0.000000     0.000000     0.000000
   17     1.000000   120.000000    -0.577350     0.577350    -0.577350     0.000000     0.000000     0.000000
   18    -1.000000   120.000000    -0.577350     0.577350    -0.577350     0.000000     0.000000     0.000000
   19     1.000000    90.000000     0.000000     0.000000     1.000000     0.000000     0.000000     0.000000
   20    -1.000000    90.000000     0.000000     0.000000     1.000000     0.000000     0.000000     0.000000
   21     1.000000    90.000000    -1.000000     0.000000     0.000000     0.000000     0.000000     0.000000
   22    -1.000000    90.000000    -1.000000     0.000000     0.000000     0.000000     0.000000     0.000000
   23     1.000000   180.000000     0.707107     0.000000     0.707107     0.000000     0.000000     0.000000
   24    -1.000000   180.000000     0.707107     0.000000     0.707107     0.000000     0.000000     0.000000
   25     1.000000   120.000000     0.577350    -0.577350     0.577350     0.000000     0.000000     0.000000
   26    -1.000000   120.000000     0.577350    -0.577350     0.577350     0.000000     0.000000     0.000000
   27     1.000000   120.000000    -0.577350    -0.577350     0.577350     0.000000     0.000000     0.000000
   28    -1.000000   120.000000    -0.577350    -0.577350     0.577350     0.000000     0.000000     0.000000
   29     1.000000   180.000000     1.000000     0.000000     0.000000     0.000000     0.000000     0.000000
   30    -1.000000   180.000000     1.000000     0.000000     0.000000     0.000000     0.000000     0.000000
   31     1.000000    90.000000     0.000000    -1.000000     0.000000     0.000000     0.000000     0.000000
   32    -1.000000    90.000000     0.000000    -1.000000     0.000000     0.000000     0.000000     0.000000
   33     1.000000   180.000000     0.707107     0.707107     0.000000     0.000000     0.000000     0.000000
   34    -1.000000   180.000000     0.707107     0.707107     0.000000     0.000000     0.000000     0.000000
   35     1.000000    90.000000     1.000000     0.000000     0.000000     0.000000     0.000000     0.000000
   36    -1.000000    90.000000     1.000000     0.000000     0.000000     0.000000     0.000000     0.000000
   37     1.000000   120.000000     0.577350    -0.577350    -0.577350     0.000000     0.000000     0.000000
   38    -1.000000   120.000000     0.577350    -0.577350    -0.577350     0.000000     0.000000     0.000000
   39     1.000000   180.000000     0.000000     1.000000     0.000000     0.000000     0.000000     0.000000
   40    -1.000000   180.000000     0.000000     1.000000     0.000000     0.000000     0.000000     0.000000
   41     1.000000   120.000000     0.577350     0.577350    -0.577350     0.000000     0.000000     0.000000
   42    -1.000000   120.000000     0.577350     0.577350    -0.577350     0.000000     0.000000     0.000000
   43     1.000000   180.000000     0.000000    -0.707107     0.707107     0.000000     0.000000     0.000000
   44    -1.000000   180.000000     0.000000    -0.707107     0.707107     0.000000     0.000000     0.000000
   45     1.000000   180.000000     0.707107    -0.707107     0.000000     0.000000     0.000000     0.000000
   46    -1.000000   180.000000     0.707107    -0.707107     0.000000     0.000000     0.000000     0.000000
   47     1.000000   180.000000     0.707107     0.000000    -0.707107     0.000000     0.000000     0.000000
   48    -1.000000   180.000000     0.707107     0.000000    -0.707107     0.000000     0.000000     0.000000
 
 Subroutine IBZKPT returns following result:
 ===========================================
 
 Found     10 irreducible k-points:
 
 Following reciprocal coordinates:
            Coordinates               Weight
  0.083333  0.083333  0.083333      8.000000
  0.250000  0.083333  0.083333     24.000000
  0.416667  0.083333  0.083333     24.000000
  0.250000  0.250000  0.083333     24.000000
  0.416667  0.250000  0.083333     48.000000
  0.416667  0.416667  0.083333     24.000000
  0.250000  0.250000  0.250000      8.000000
  0.416667  0.250000  0.250000     24.000000
  0.416667  0.416667  0.250000     24.000000
  0.416667  0.416667  0.416667      8.000000
 
 Following cartesian coordinates:
            Coordinates               Weight
  0.020294  0.020294  0.020294      8.000000
  0.060881  0.020294  0.020294     24.000000
  0.101468  0.020294  0.020294     24.000000
  0.060881  0.060881  0.020294     24.000000
  0.101468  0.060881  0.020294     48.000000
  0.101468  0.101468  0.020294     24.000000
  0.060881  0.060881  0.060881      8.000000
  0.101468  0.060881  0.060881     24.000000
  0.101468  0.101468  0.060881     24.000000
  0.101468  0.101468  0.101468      8.000000
 
 
 Subroutine IBZKPT_HF returns following result:
 ==============================================
 
 Found    216 k-points in 1st BZ
 the following    216 k-points will be used (e.g. in the exchange kernel)
 Following reciprocal coordinates:   # in IRBZ
  0.083333  0.083333  0.083333    0.00462963   1 t-inv F
  0.250000  0.083333  0.083333    0.00462963   2 t-inv F
  0.416667  0.083333  0.083333    0.00462963   3 t-inv F
  0.250000  0.250000  0.083333    0.00462963   4 t-inv F
  0.416667  0.250000  0.083333    0.00462963   5 t-inv F
  0.416667  0.416667  0.083333    0.00462963   6 t-inv F
  0.250000  0.250000  0.250000    0.00462963   7 t-inv F
  0.416667  0.250000  0.250000    0.00462963   8 t-inv F
  0.416667  0.416667  0.250000    0.00462963   9 t-inv F
  0.416667  0.416667  0.416667    0.00462963  10 t-inv F
 -0.083333 -0.083333 -0.083333    0.00462963   1 t-inv F
 -0.083333  0.083333  0.083333    0.00462963   1 t-inv F
  0.083333 -0.083333 -0.083333    0.00462963   1 t-inv F
 -0.083333 -0.083333  0.083333    0.00462963   1 t-inv F
  0.083333  0.083333 -0.083333    0.00462963   1 t-inv F
  0.083333 -0.083333  0.083333    0.00462963   1 t-inv F
 -0.083333  0.083333 -0.083333    0.00462963   1 t-inv F
 -0.250000 -0.083333 -0.083333    0.00462963   2 t-inv F
  0.083333  0.250000  0.083333    0.00462963   2 t-inv F
 -0.083333 -0.250000 -0.083333    0.00462963   2 t-inv F
  0.083333  0.083333  0.250000    0.00462963   2 t-inv F
 -0.083333 -0.083333 -0.250000    0.00462963   2 t-inv F
 -0.083333  0.250000  0.083333    0.00462963   2 t-inv F
  0.083333 -0.250000 -0.083333    0.00462963   2 t-inv F
 -0.250000  0.083333  0.083333    0.00462963   2 t-inv F
  0.250000 -0.083333 -0.083333    0.00462963   2 t-inv F
 -0.083333  0.083333  0.250000    0.00462963   2 t-inv F
  0.083333 -0.083333 -0.250000    0.00462963   2 t-inv F
 -0.250000 -0.083333  0.083333    0.00462963   2 t-inv F
  0.250000  0.083333 -0.083333    0.00462963   2 t-inv F
 -0.083333 -0.250000  0.083333    0.00462963   2 t-inv F
  0.083333  0.250000 -0.083333    0.00462963   2 t-inv F
 -0.083333 -0.083333  0.250000    0.00462963   2 t-inv F
  0.083333  0.083333 -0.250000    0.00462963   2 t-inv F
  0.083333 -0.250000  0.083333    0.00462963   2 t-inv F
 -0.083333  0.250000 -0.083333    0.00462963   2 t-inv F
  0.250000 -0.083333  0.083333    0.00462963   2 t-inv F
 -0.250000  0.083333 -0.083333    0.00462963   2 t-inv F
  0.083333 -0.083333  0.250000    0.00462963   2 t-inv F
 -0.083333  0.083333 -0.250000    0.00462963   2 t-inv F
 -0.416667 -0.083333 -0.083333    0.00462963   3 t-inv F
  0.083333  0.416667  0.083333    0.00462963   3 t-inv F
 -0.083333 -0.416667 -0.083333    0.00462963   3 t-inv F
  0.083333  0.083333  0.416667    0.00462963   3 t-inv F
 -0.083333 -0.083333 -0.416667    0.00462963   3 t-inv F
 -0.083333  0.416667  0.083333    0.00462963   3 t-inv F
  0.083333 -0.416667 -0.083333    0.00462963   3 t-inv F
 -0.416667  0.083333  0.083333    0.00462963   3 t-inv F
  0.416667 -0.083333 -0.083333    0.00462963   3 t-inv F
 -0.083333  0.083333  0.416667    0.00462963   3 t-inv F
  0.083333 -0.083333 -0.416667    0.00462963   3 t-inv F
 -0.416667 -0.083333  0.083333    0.00462963   3 t-inv F
  0.416667  0.083333 -0.083333    0.00462963   3 t-inv F
 -0.083333 -0.416667  0.083333    0.00462963   3 t-inv F
  0.083333  0.416667 -0.083333    0.00462963   3 t-inv F
 -0.083333 -0.083333  0.416667    0.00462963   3 t-inv F
  0.083333  0.083333 -0.416667    0.00462963   3 t-inv F
  0.083333 -0.416667  0.083333    0.00462963   3 t-inv F
 -0.083333  0.416667 -0.083333    0.00462963   3 t-inv F
  0.416667 -0.083333  0.083333    0.00462963   3 t-inv F
 -0.416667  0.083333 -0.083333    0.00462963   3 t-inv F
  0.083333 -0.083333  0.416667    0.00462963   3 t-inv F
 -0.083333  0.083333 -0.416667    0.00462963   3 t-inv F
 -0.250000 -0.250000 -0.083333    0.00462963   4 t-inv F
  0.083333  0.250000  0.250000    0.00462963   4 t-inv F
 -0.083333 -0.250000 -0.250000    0.00462963   4 t-inv F
  0.250000  0.083333  0.250000    0.00462963   4 t-inv F
 -0.250000 -0.083333 -0.250000    0.00462963   4 t-inv F
 -0.250000  0.250000  0.083333    0.00462963   4 t-inv F
  0.250000 -0.250000 -0.083333    0.00462963   4 t-inv F
 -0.250000  0.083333  0.250000    0.00462963   4 t-inv F
  0.250000 -0.083333 -0.250000    0.00462963   4 t-inv F
 -0.083333  0.250000  0.250000    0.00462963   4 t-inv F
  0.083333 -0.250000 -0.250000    0.00462963   4 t-inv F
 -0.250000 -0.250000  0.083333    0.00462963   4 t-inv F
  0.250000  0.250000 -0.083333    0.00462963   4 t-inv F
 -0.083333 -0.250000  0.250000    0.00462963   4 t-inv F
  0.083333  0.250000 -0.250000    0.00462963   4 t-inv F
 -0.250000 -0.083333  0.250000    0.00462963   4 t-inv F
  0.250000  0.083333 -0.250000    0.00462963   4 t-inv F
  0.250000 -0.250000  0.083333    0.00462963   4 t-inv F
 -0.250000  0.250000 -0.083333    0.00462963   4 t-inv F
  0.250000 -0.083333  0.250000    0.00462963   4 t-inv F
 -0.250000  0.083333 -0.250000    0.00462963   4 t-inv F
  0.083333 -0.250000  0.250000    0.00462963   4 t-inv F
 -0.083333  0.250000 -0.250000    0.00462963   4 t-inv F
 -0.416667 -0.250000 -0.083333    0.00462963   5 t-inv F
  0.083333  0.416667  0.250000    0.00462963   5 t-inv F
 -0.083333 -0.416667 -0.250000    0.00462963   5 t-inv F
  0.250000  0.083333  0.416667    0.00462963   5 t-inv F
 -0.250000 -0.083333 -0.416667    0.00462963   5 t-inv F
 -0.250000  0.416667  0.083333    0.00462963   5 t-inv F
  0.250000 -0.416667 -0.083333    0.00462963   5 t-inv F
 -0.416667  0.083333  0.250000    0.00462963   5 t-inv F
  0.416667 -0.083333 -0.250000    0.00462963   5 t-inv F
 -0.083333  0.250000  0.416667    0.00462963   5 t-inv F
  0.083333 -0.250000 -0.416667    0.00462963   5 t-inv F
 -0.416667 -0.250000  0.083333    0.00462963   5 t-inv F
  0.416667  0.250000 -0.083333    0.00462963   5 t-inv F
 -0.083333 -0.416667  0.250000    0.00462963   5 t-inv F
  0.083333  0.416667 -0.250000    0.00462963   5 t-inv F
 -0.250000 -0.083333  0.416667    0.00462963   5 t-inv F
  0.250000  0.083333 -0.416667    0.00462963   5 t-inv F
  0.250000 -0.416667  0.083333    0.00462963   5 t-inv F
 -0.250000  0.416667 -0.083333    0.00462963   5 t-inv F
  0.416667 -0.083333  0.250000    0.00462963   5 t-inv F
 -0.416667  0.083333 -0.250000    0.00462963   5 t-inv F
  0.083333 -0.250000  0.416667    0.00462963   5 t-inv F
 -0.083333  0.250000 -0.416667    0.00462963   5 t-inv F
  0.083333 -0.416667 -0.250000    0.00462963   5 t-inv F
 -0.083333  0.416667  0.250000    0.00462963   5 t-inv F
  0.250000 -0.083333 -0.416667    0.00462963   5 t-inv F
 -0.250000  0.083333  0.416667    0.00462963   5 t-inv F
  0.416667 -0.250000 -0.083333    0.00462963   5 t-inv F
 -0.416667  0.250000  0.083333    0.00462963   5 t-inv F
  0.083333  0.250000 -0.416667    0.00462963   5 t-inv F
 -0.083333 -0.250000  0.416667    0.00462963   5 t-inv F
  0.250000  0.416667 -0.083333    0.00462963   5 t-inv F
 -0.250000 -0.416667  0.083333    0.00462963   5 t-inv F
  0.416667  0.083333 -0.250000    0.00462963   5 t-inv F
 -0.416667 -0.083333  0.250000    0.00462963   5 t-inv F
 -0.250000  0.083333 -0.416667    0.00462963   5 t-inv F
  0.250000 -0.083333  0.416667    0.00462963   5 t-inv F
 -0.416667  0.250000 -0.083333    0.00462963   5 t-inv F
  0.416667 -0.250000  0.083333    0.00462963   5 t-inv F
 -0.083333  0.416667 -0.250000    0.00462963   5 t-inv F
  0.083333 -0.416667  0.250000    0.00462963   5 t-inv F
 -0.416667 -0.083333 -0.250000    0.00462963   5 t-inv F
  0.416667  0.083333  0.250000    0.00462963   5 t-inv F
 -0.250000 -0.416667 -0.083333    0.00462963   5 t-inv F
  0.250000  0.416667  0.083333    0.00462963   5 t-inv F
 -0.083333 -0.250000 -0.416667    0.00462963   5 t-inv F
  0.083333  0.250000  0.416667    0.00462963   5 t-inv F
 -0.416667 -0.416667 -0.083333    0.00462963   6 t-inv F
  0.083333  0.416667  0.416667    0.00462963   6 t-inv F
 -0.083333 -0.416667 -0.416667    0.00462963   6 t-inv F
  0.416667  0.083333  0.416667    0.00462963   6 t-inv F
 -0.416667 -0.083333 -0.416667    0.00462963   6 t-inv F
 -0.416667  0.416667  0.083333    0.00462963   6 t-inv F
  0.416667 -0.416667 -0.083333    0.00462963   6 t-inv F
 -0.416667  0.083333  0.416667    0.00462963   6 t-inv F
  0.416667 -0.083333 -0.416667    0.00462963   6 t-inv F
 -0.083333  0.416667  0.416667    0.00462963   6 t-inv F
  0.083333 -0.416667 -0.416667    0.00462963   6 t-inv F
 -0.416667 -0.416667  0.083333    0.00462963   6 t-inv F
  0.416667  0.416667 -0.083333    0.00462963   6 t-inv F
 -0.083333 -0.416667  0.416667    0.00462963   6 t-inv F
  0.083333  0.416667 -0.416667    0.00462963   6 t-inv F
 -0.416667 -0.083333  0.416667    0.00462963   6 t-inv F
  0.416667  0.083333 -0.416667    0.00462963   6 t-inv F
  0.416667 -0.416667  0.083333    0.00462963   6 t-inv F
 -0.416667  0.416667 -0.083333    0.00462963   6 t-inv F
  0.416667 -0.083333  0.416667    0.00462963   6 t-inv F
 -0.416667  0.083333 -0.416667    0.00462963   6 t-inv F
  0.083333 -0.416667  0.416667    0.00462963   6 t-inv F
 -0.083333  0.416667 -0.416667    0.00462963   6 t-inv F
 -0.250000 -0.250000 -0.250000    0.00462963   7 t-inv F
 -0.250000  0.250000  0.250000    0.00462963   7 t-inv F
  0.250000 -0.250000 -0.250000    0.00462963   7 t-inv F
 -0.250000 -0.250000  0.250000    0.00462963   7 t-inv F
  0.250000  0.250000 -0.250000    0.00462963   7 t-inv F
  0.250000 -0.250000  0.250000    0.00462963   7 t-inv F
 -0.250000  0.250000 -0.250000    0.00462963   7 t-inv F
 -0.416667 -0.250000 -0.250000    0.00462963   8 t-inv F
  0.250000  0.416667  0.250000    0.00462963   8 t-inv F
 -0.250000 -0.416667 -0.250000    0.00462963   8 t-inv F
  0.250000  0.250000  0.416667    0.00462963   8 t-inv F
 -0.250000 -0.250000 -0.416667    0.00462963   8 t-inv F
 -0.250000  0.416667  0.250000    0.00462963   8 t-inv F
  0.250000 -0.416667 -0.250000    0.00462963   8 t-inv F
 -0.416667  0.250000  0.250000    0.00462963   8 t-inv F
  0.416667 -0.250000 -0.250000    0.00462963   8 t-inv F
 -0.250000  0.250000  0.416667    0.00462963   8 t-inv F
  0.250000 -0.250000 -0.416667    0.00462963   8 t-inv F
 -0.416667 -0.250000  0.250000    0.00462963   8 t-inv F
  0.416667  0.250000 -0.250000    0.00462963   8 t-inv F
 -0.250000 -0.416667  0.250000    0.00462963   8 t-inv F
  0.250000  0.416667 -0.250000    0.00462963   8 t-inv F
 -0.250000 -0.250000  0.416667    0.00462963   8 t-inv F
  0.250000  0.250000 -0.416667    0.00462963   8 t-inv F
  0.250000 -0.416667  0.250000    0.00462963   8 t-inv F
 -0.250000  0.416667 -0.250000    0.00462963   8 t-inv F
  0.416667 -0.250000  0.250000    0.00462963   8 t-inv F
 -0.416667  0.250000 -0.250000    0.00462963   8 t-inv F
  0.250000 -0.250000  0.416667    0.00462963   8 t-inv F
 -0.250000  0.250000 -0.416667    0.00462963   8 t-inv F
 -0.416667 -0.416667 -0.250000    0.00462963   9 t-inv F
  0.250000  0.416667  0.416667    0.00462963   9 t-inv F
 -0.250000 -0.416667 -0.416667    0.00462963   9 t-inv F
  0.416667  0.250000  0.416667    0.00462963   9 t-inv F
 -0.416667 -0.250000 -0.416667    0.00462963   9 t-inv F
 -0.416667  0.416667  0.250000    0.00462963   9 t-inv F
  0.416667 -0.416667 -0.250000    0.00462963   9 t-inv F
 -0.416667  0.250000  0.416667    0.00462963   9 t-inv F
  0.416667 -0.250000 -0.416667    0.00462963   9 t-inv F
 -0.250000  0.416667  0.416667    0.00462963   9 t-inv F
  0.250000 -0.416667 -0.416667    0.00462963   9 t-inv F
 -0.416667 -0.416667  0.250000    0.00462963   9 t-inv F
  0.416667  0.416667 -0.250000    0.00462963   9 t-inv F
 -0.250000 -0.416667  0.416667    0.00462963   9 t-inv F
  0.250000  0.416667 -0.416667    0.00462963   9 t-inv F
 -0.416667 -0.250000  0.416667    0.00462963   9 t-inv F
  0.416667  0.250000 -0.416667    0.00462963   9 t-inv F
  0.416667 -0.416667  0.250000    0.00462963   9 t-inv F
 -0.416667  0.416667 -0.250000    0.00462963   9 t-inv F
  0.416667 -0.250000  0.416667    0.00462963   9 t-inv F
 -0.416667  0.250000 -0.416667    0.00462963   9 t-inv F
  0.250000 -0.416667  0.416667    0.00462963   9 t-inv F
 -0.250000  0.416667 -0.416667    0.00462963   9 t-inv F
 -0.416667 -0.416667 -0.416667    0.00462963  10 t-inv F
 -0.416667  0.416667  0.416667    0.00462963  10 t-inv F
  0.416667 -0.416667 -0.416667    0.00462963  10 t-inv F
 -0.416667 -0.416667  0.416667    0.00462963  10 t-inv F
  0.416667  0.416667 -0.416667    0.00462963  10 t-inv F
  0.416667 -0.416667  0.416667    0.00462963  10 t-inv F
 -0.416667  0.416667 -0.416667    0.00462963  10 t-inv F


--------------------------------------------------------------------------------------------------------




 Dimension of arrays:
   k-points           NKPTS =     10   k-points in BZ     NKDIM =     10   number of bands    NBANDS=     64
   number of dos      NEDOS =    301   number of ions     NIONS =      4
   non local maximal  LDIM  =      6   non local SUM 2l+1 LMDIM =     18
   total plane-waves  NPLWV =  13824
   max r-space proj   IRMAX =      1   max aug-charges    IRDMAX=   9017
   dimension x,y,z NGX =    24 NGY =   24 NGZ =   24
   dimension x,y,z NGXF=    48 NGYF=   48 NGZF=   48
   support grid    NGXF=    48 NGYF=   48 NGZF=   48
   ions per type =               1   3
   NGX,Y,Z   is equivalent  to a cutoff of   9.72,  9.72,  9.72 a.u.
   NGXF,Y,Z  is equivalent  to a cutoff of  19.43, 19.43, 19.43 a.u.

 SYSTEM =  unknown system                          
 POSCAR =  Sc1 Al3                                 

 Startparameter for this run:
   NWRITE =      2    write-flag & timer
   PREC   = normal    normal or accurate (medium, high low for compatibility)
   ISTART =      0    job   : 0-new  1-cont  2-samecut
   ICHARG =      2    charge: 1-file 2-atom 10-const
   ISPIN  =      1    spin polarized calculation?
   LNONCOLLINEAR =      F non collinear calculations
   LSORBIT =      F    spin-orbit coupling
   INIWAV =      1    electr: 0-lowe 1-rand  2-diag
   LASPH  =      F    aspherical Exc in radial PAW
   METAGGA=      F    non-selfconsistent MetaGGA calc.

 Electronic Relaxation 1
   ENCUT  =  520.0 eV  38.22 Ry    6.18 a.u.   7.64  7.64  7.64*2*pi/ulx,y,z
   ENINI  =  520.0     initial cutoff
   ENAUG  =  443.1 eV  augmentation charge cutoff
   NELM   =     60;   NELMIN=  2; NELMDL= -5     # of ELM steps 
   EDIFF  = 0.1E-04   stopping-criterion for ELM
   LREAL  =      F    real-space projection
   NLSPLINE    = F    spline interpolate recip. space projectors
   LCOMPAT=      F    compatible to vasp.4.4
   GGA_COMPAT  = T    GGA compatible to vasp.4.4-vasp.4.6
   LMAXPAW     = -100 max onsite density
   LMAXMIX     =    2 max onsite mixed and CHGCAR
   VOSKOWN=      0    Vosko Wilk Nusair interpolation
   ROPT   =    0.00000   0.00000
 Ionic relaxation
   EDIFFG = -.1E-07   stopping-criterion for IOM
   NSW    =     85    number of steps for IOM
   NBLOCK =      1;   KBLOCK =     85    inner block; outer block 
   IBRION =      6    ionic relax: 0-MD 1-quasi-New 2-CG
   NFREE  =      2    steps in history (QN), initial steepest desc. (CG)
   ISIF   =      4    stress and relaxation
   IWAVPR =     11    prediction:  0-non 1-charg 2-wave 3-comb
   ISYM   =      2    0-nonsym 1-usesym 2-fastsym
   LCORR  =      T    Harris-Foulkes like correction to forces

   POTIM  = 0.0500    time-step for ionic-motion
   TEIN   =    0.0    initial temperature
   TEBEG  =    0.0;   TEEND  =   0.0 temperature during run
   SMASS  =  -3.00    Nose mass-parameter (am)
   estimated Nose-frequenzy (Omega)   =  0.10E-29 period in steps = 0.13E+48 mass=  -0.385E-27a.u.
   SCALEE = 1.0000    scale energy and forces
   NPACO  =    256;   APACO  = 16.0  distance and # of slots for P.C.
   PSTRESS=    0.0 pullay stress

  Mass of Ions in am
   POMASS =  44.96 26.98
  Ionic Valenz
   ZVAL   =  11.00  3.00
  Atomic Wigner-Seitz radii
   RWIGS  =  -1.00 -1.00
  virtual crystal weights 
   VCA    =   1.00  1.00
   NELECT =      20.0000    total number of electrons
   NUPDOWN=      -1.0000    fix difference up-down

 DOS related values:
   EMIN   =  10.00;   EMAX   =-10.00  energy-range for DOS
   EFERMI =   0.00
   ISMEAR =    -1;   SIGMA  =   0.10  broadening in eV -4-tet -1-fermi 0-gaus

 Electronic relaxation 2 (details)
   IALGO  =     38    algorithm
   LDIAG  =      T    sub-space diagonalisation (order eigenvalues)
   LSUBROT=      F    optimize rotation matrix (better conditioning)
   TURBO    =      0    0=normal 1=particle mesh
   IRESTART =      0    0=no restart 2=restart with 2 vectors
   NREBOOT  =      0    no. of reboots
   NMIN     =      0    reboot dimension
   EREF     =   0.00    reference energy to select bands
   IMIX   =      4    mixing-type and parameters
     AMIX     =   0.40;   BMIX     =  1.00
     AMIX_MAG =   1.60;   BMIX_MAG =  1.00
     AMIN     =   0.10
     WC   =   100.;   INIMIX=   1;  MIXPRE=   1;  MAXMIX= -45

 Intra band minimization:
   WEIMIN = 0.0010     energy-eigenvalue tresh-hold
   EBREAK =  0.39E-11  absolut break condition
   DEPER  =   0.30     relativ break condition  

   TIME   =   0.40     timestep for ELM

  volume/ion in A,a.u.               =      17.31       116.82
  Fermi-wavevector in a.u.,A,eV,Ry     =   1.082163  2.044992 15.933478  1.171078
  Thomas-Fermi vector in A             =   2.218198
 
 Write flags
   LWAVE        =      T    write WAVECAR
   LDOWNSAMPLE  =      F    k-point downsampling of WAVECAR
   LCHARG       =      T    write CHGCAR
   LVTOT        =      F    write LOCPOT, total local potential
   LVHAR        =      F    write LOCPOT, Hartree potential only
   LELF         =      F    write electronic localiz. function (ELF)
   LORBIT       =      0    0 simple, 1 ext, 2 COOP (PROOUT), +10 PAW based schemes


 Dipole corrections
   LMONO  =      F    monopole corrections only (constant potential shift)
   LDIPOL =      F    correct potential (dipole corrections)
   IDIPOL =      0    1-x, 2-y, 3-z, 4-all directions 
   EPSILON=  1.0000000 bulk dielectric constant

 Exchange correlation treatment:
   GGA     =    --    GGA type
   LEXCH   =     8    internal setting for exchange type
   VOSKOWN=      0    Vosko Wilk Nusair interpolation
   LHFCALC =     F    Hartree Fock is set to
   LHFONE  =     F    Hartree Fock one center treatment
   AEXX    =    0.0000 exact exchange contribution

 Linear response parameters
   LEPSILON=     F    determine dielectric tensor
   LRPA    =     F    only Hartree local field effects (RPA)
   LNABLA  =     F    use nabla operator in PAW spheres
   LVEL    =     F    velocity operator in full k-point grid
   LINTERFAST=   F  fast interpolation
   KINTER  =     0    interpolate to denser k-point grid
   CSHIFT  =0.1000    complex shift for real part using Kramers Kronig
   OMEGAMAX=  -1.0    maximum frequency
   DEG_THRESHOLD= 0.2000000E-02 threshold for treating states as degnerate
   RTIME   =   -0.100 relaxation time in fs
  (WPLASMAI=    0.000 imaginary part of plasma frequency in eV, 0.658/RTIME)
   DFIELD  = 0.0000000 0.0000000 0.0000000 field for delta impulse in time
 
 Orbital magnetization related:
   ORBITALMAG=     F  switch on orbital magnetization
   LCHIMAG   =     F  perturbation theory with respect to B field
   DQ        =  0.001000  dq finite difference perturbation B field
   LLRAUG    =     F  two centre corrections for induced B field



--------------------------------------------------------------------------------------------------------


 finite differences with symmetry
 charge density and potential will be updated during run
 non-spin polarized calculation
 Variant of blocked Davidson
 Davidson routine will perform the subspace rotation
 perform sub-space diagonalisation
    after iterative eigenvector-optimisation
 modified Broyden-mixing scheme, WC =      100.0
 initial mixing is a Kerker type mixing with AMIX =  0.4000 and BMIX =      1.0000
 Hartree-type preconditioning will be used
 using additional bands           54
 reciprocal scheme for non local part
 use partial core corrections
 calculate Harris-corrections to forces 
   (improved forces if not selfconsistent)
 use gradient corrections 
 use of overlap-Matrix (Vanderbilt PP)
 Fermi-smearing in eV        SIGMA  =   0.10


--------------------------------------------------------------------------------------------------------


  energy-cutoff  :      520.00
  volume of cell :       69.24
      direct lattice vectors                 reciprocal lattice vectors
     4.106375459  0.000000000  0.000000000     0.243523762  0.000000000  0.000000000
     0.000000000  4.106375459  0.000000000     0.000000000  0.243523762  0.000000000
     0.000000000  0.000000000  4.106375459     0.000000000  0.000000000  0.243523762

  length of vectors
     4.106375459  4.106375459  4.106375459     0.243523762  0.243523762  0.243523762


 
 k-points in units of 2pi/SCALE and weight: pymatgen with grid density = 882 / numbe
   0.02029365  0.02029365  0.02029365       0.037
   0.06088094  0.02029365  0.02029365       0.111
   0.10146823  0.02029365  0.02029365       0.111
   0.06088094  0.06088094  0.02029365       0.111
   0.10146823  0.06088094  0.02029365       0.222
   0.10146823  0.10146823  0.02029365       0.111
   0.06088094  0.06088094  0.06088094       0.037
   0.10146823  0.06088094  0.06088094       0.111
   0.10146823  0.10146823  0.06088094       0.111
   0.10146823  0.10146823  0.10146823       0.037
 
 k-points in reciprocal lattice and weights: pymatgen with grid density = 882 / numbe
   0.08333333  0.08333333  0.08333333       0.037
   0.25000000  0.08333333  0.08333333       0.111
   0.41666667  0.08333333  0.08333333       0.111
   0.25000000  0.25000000  0.08333333       0.111
   0.41666667  0.25000000  0.08333333       0.222
   0.41666667  0.41666667  0.08333333       0.111
   0.25000000  0.25000000  0.25000000       0.037
   0.41666667  0.25000000  0.25000000       0.111
   0.41666667  0.41666667  0.25000000       0.111
   0.41666667  0.41666667  0.41666667       0.037
 
 position of ions in fractional coordinates (direct lattice) 
   0.00000000  0.00000000  0.00000000
   0.50000000  0.00000000  0.50000000
   0.00000000  0.50000000  0.50000000
   0.50000000  0.50000000  0.00000000
 
 position of ions in cartesian coordinates  (Angst):
   0.00000000  0.00000000  0.00000000
   2.05318773  0.00000000  2.05318773
   0.00000000  2.05318773  2.05318773
   2.05318773  2.05318773  0.00000000
 


--------------------------------------------------------------------------------------------------------


 k-point   1 :   0.0833 0.0833 0.0833  plane waves:    1869
 k-point   2 :   0.2500 0.0833 0.0833  plane waves:    1869
 k-point   3 :   0.4167 0.0833 0.0833  plane waves:    1868
 k-point   4 :   0.2500 0.2500 0.0833  plane waves:    1866
 k-point   5 :   0.4167 0.2500 0.0833  plane waves:    1865
 k-point   6 :   0.4167 0.4167 0.0833  plane waves:    1859
 k-point   7 :   0.2500 0.2500 0.2500  plane waves:    1875
 k-point   8 :   0.4167 0.2500 0.2500  plane waves:    1858
 k-point   9 :   0.4167 0.4167 0.2500  plane waves:    1855
 k-point  10 :   0.4167 0.4167 0.4167  plane waves:    1868

 maximum and minimum number of plane-waves per node :      1875     1855

 maximum number of plane-waves:      1875
 maximum index in each direction: 
   IXMAX=    7   IYMAX=    7   IZMAX=    7
   IXMIN=   -8   IYMIN=   -8   IZMIN=   -8


 serial   3D FFT for wavefunctions
 parallel 3D FFT for charge:
    minimum data exchange during FFTs selected (reduces bandwidth)


 total amount of memory used by VASP MPI-rank0    36879. kBytes
=======================================================================

   base      :      30000. kBytes
   nonl-proj :       5652. kBytes
   fftplans  :        153. kBytes
   grid      :        695. kBytes
   one-center:         62. kBytes
   wavefun   :        317. kBytes
 
     INWAV:  cpu time    0.0000: real time    0.0000
 Broyden mixing: mesh for mixing (old mesh)
   NGX = 15   NGY = 15   NGZ = 15
  (NGX  = 48   NGY  = 48   NGZ  = 48)
  gives a total of   3375 points

 initial charge density was supplied:
 charge density of overlapping atoms calculated
 number of electron      20.0000000 magnetization 
 keeping initial charge density in first step


--------------------------------------------------------------------------------------------------------


 Maximum index for augmentation-charges          505 (set IRDMAX)


--------------------------------------------------------------------------------------------------------


 First call to EWALD:  gamma=   0.432
 Maximum number of real-space cells 3x 3x 3
 Maximum number of reciprocal cells 3x 3x 3

    FEWALD:  cpu time    0.0015: real time    0.0029


--------------------------------------- Iteration      1(   1)  ---------------------------------------


    POTLOK:  cpu time    0.0583: real time    0.0955
    SETDIJ:  cpu time    0.0028: real time    0.0028
     EDDAV:  cpu time    2.2632: real time    2.2854
       DOS:  cpu time    0.0041: real time    0.0041
    --------------------------------------------
      LOOP:  cpu time    2.3283: real time    2.3878

 eigenvalue-minimisations  :  1280
 total energy-change (2. order) :-0.1663844E+00  (-0.1007061E+04)
 number of electron      20.0000000 magnetization 
 augmentation part       20.0000000 magnetization 

 Free energy of the ion-electron system (eV)
  ---------------------------------------------------
  alpha Z        PSCENC =        38.05706926
  Ewald energy   TEWEN  =      -993.64781158
  -Hartree energ DENC   =      -429.87386260
  -exchange      EXHF   =         0.00000000
  -V(xc)+E(xc)   XCENC  =       -26.90376933
  PAW double counting   =      1184.05390014    -1079.59348425
  entropy T*S    EENTRO =        -0.04580219
  eigenvalues    EBANDS =      -126.11225943
  atomic energy  EATOM  =      1433.89963561
  Solvation  Ediel_sol  =         0.00000000
  ---------------------------------------------------
  free energy    TOTEN  =        -0.16638437 eV

  energy without entropy =       -0.12058218  energy(sigma->0) =       -0.14348328


--------------------------------------------------------------------------------------------------------




--------------------------------------- Iteration      1(   2)  ---------------------------------------


     EDDAV:  cpu time    2.8128: real time    2.8315
       DOS:  cpu time    0.0036: real time    0.0036
    --------------------------------------------
      LOOP:  cpu time    2.8164: real time    2.8351

 eigenvalue-minimisations  :  1920
 total energy-change (2. order) :-0.2012826E+02  (-0.2008657E+02)
 number of electron      20.0000000 magnetization 
 augmentation part       20.0000000 magnetization 

 Free energy of the ion-electron system (eV)
  ---------------------------------------------------
  alpha Z        PSCENC =        38.05706926
  Ewald energy   TEWEN  =      -993.64781158
  -Hartree energ DENC   =      -429.87386260
  -exchange      EXHF   =         0.00000000
  -V(xc)+E(xc)   XCENC  =       -26.90376933
  PAW double counting   =      1184.05390014    -1079.59348425
  entropy T*S    EENTRO =        -0.06522881
  eigenvalues    EBANDS =      -146.22109205
  atomic energy  EATOM  =      1433.89963561
  Solvation  Ediel_sol  =         0.00000000
  ---------------------------------------------------
  free energy    TOTEN  =       -20.29464362 eV

  energy without entropy =      -20.22941481  energy(sigma->0) =      -20.26202921


--------------------------------------------------------------------------------------------------------




--------------------------------------- Iteration      1(   3)  ---------------------------------------


     EDDAV:  cpu time    1.7257: real time    1.7369
       DOS:  cpu time    0.0037: real time    0.0037
    --------------------------------------------
      LOOP:  cpu time    1.7293: real time    1.7406

 eigenvalue-minimisations  :  1280
 total energy-change (2. order) :-0.1527344E-01  (-0.1527330E-01)
 number of electron      20.0000000 magnetization 
 augmentation part       20.0000000 magnetization 

 Free energy of the ion-electron system (eV)
  ---------------------------------------------------
  alpha Z        PSCENC =        38.05706926
  Ewald energy   TEWEN  =      -993.64781158
  -Hartree energ DENC   =      -429.87386260
  -exchange      EXHF   =         0.00000000
  -V(xc)+E(xc)   XCENC  =       -26.90376933
  PAW double counting   =      1184.05390014    -1079.59348425
  entropy T*S    EENTRO =        -0.06522289
  eigenvalues    EBANDS =      -146.23637142
  atomic energy  EATOM  =      1433.89963561
  Solvation  Ediel_sol  =         0.00000000
  ---------------------------------------------------
  free energy    TOTEN  =       -20.30991706 eV

  energy without entropy =      -20.24469418  energy(sigma->0) =      -20.27730562


--------------------------------------------------------------------------------------------------------




--------------------------------------- Iteration      1(   4)  ---------------------------------------


     EDDAV:  cpu time    4.4936: real time    4.5220
       DOS:  cpu time    0.0038: real time    0.0038
    --------------------------------------------
      LOOP:  cpu time    4.4973: real time    4.5257

 eigenvalue-minimisations  :  2560
 total energy-change (2. order) :-0.2047504E-04  (-0.2047528E-04)
 number of electron      20.0000000 magnetization 
 augmentation part       20.0000000 magnetization 

 Free energy of the ion-electron system (eV)
  ---------------------------------------------------
  alpha Z        PSCENC =        38.05706926
  Ewald energy   TEWEN  =      -993.64781158
  -Hartree energ DENC   =      -429.87386260
  -exchange      EXHF   =         0.00000000
  -V(xc)+E(xc)   XCENC  =       -26.90376933
  PAW double counting   =      1184.05390014    -1079.59348425
  entropy T*S    EENTRO =        -0.06522288
  eigenvalues    EBANDS =      -146.23639190
  atomic energy  EATOM  =      1433.89963561
  Solvation  Ediel_sol  =         0.00000000
  ---------------------------------------------------
  free energy    TOTEN  =       -20.30993754 eV

  energy without entropy =      -20.24471465  energy(sigma->0) =      -20.27732610


--------------------------------------------------------------------------------------------------------




--------------------------------------- Iteration      1(   5)  ---------------------------------------


     EDDAV:  cpu time    1.6629: real time    1.6762
       DOS:  cpu time    0.0036: real time    0.0036
    CHARGE:  cpu time    0.0124: real time    0.0126
    MIXING:  cpu time    0.0037: real time    0.0038
    --------------------------------------------
      LOOP:  cpu time    1.6826: real time    1.6961

 eigenvalue-minimisations  :  1280
 total energy-change (2. order) :-0.2689831E-09  (-0.3508828E-09)
 number of electron      19.9999980 magnetization 
 augmentation part        2.7130753 magnetization 

 Broyden mixing:
  rms(total) = 0.86911E+00    rms(broyden)= 0.86911E+00
  rms(prec ) = 0.15627E+01
  weight for this iteration     100.00

 Free energy of the ion-electron system (eV)
  ---------------------------------------------------
  alpha Z        PSCENC =        38.05706926
  Ewald energy   TEWEN  =      -993.64781158
  -Hartree energ DENC   =      -429.87386260
  -exchange      EXHF   =         0.00000000
  -V(xc)+E(xc)   XCENC  =       -26.90376933
  PAW double counting   =      1184.05390014    -1079.59348425
  entropy T*S    EENTRO =        -0.06522288
  eigenvalues    EBANDS =      -146.23639190
  atomic energy  EATOM  =      1433.89963561
  Solvation  Ediel_sol  =         0.00000000
  ---------------------------------------------------
  free energy    TOTEN  =       -20.30993754 eV

  energy without entropy =      -20.24471465  energy(sigma->0) =      -20.27732610


--------------------------------------------------------------------------------------------------------




--------------------------------------- Iteration      1(   6)  ---------------------------------------


    POTLOK:  cpu time    0.0898: real time    0.0949
    SETDIJ:  cpu time    0.0024: real time    0.0024
     EDDAV:  cpu time    2.3501: real time    2.3623
       DOS:  cpu time    0.0035: real time    0.0035
    CHARGE:  cpu time    0.0117: real time    0.0117
    MIXING:  cpu time    0.0036: real time    0.0036
    --------------------------------------------
      LOOP:  cpu time    2.4610: real time    2.4784

 eigenvalue-minimisations  :  1664
 total energy-change (2. order) : 0.9236132E+00  (-0.5318126E+00)
 number of electron      19.9999979 magnetization 
 augmentation part        3.0354906 magnetization 

 Broyden mixing:
  rms(total) = 0.30825E+00    rms(broyden)= 0.30825E+00
  rms(prec ) = 0.46698E+00
  weight for this iteration     100.00

 eigenvalues of (default mixing * dielectric matrix)
  average eigenvalue GAMMA=   1.3092
  1.3092

 Free energy of the ion-electron system (eV)
  ---------------------------------------------------
  alpha Z        PSCENC =        38.05706926
  Ewald energy   TEWEN  =      -993.64781158
  -Hartree energ DENC   =      -406.93050112
  -exchange      EXHF   =         0.00000000
  -V(xc)+E(xc)   XCENC  =       -27.70142393
  PAW double counting   =      1383.09938480    -1279.80933961
  entropy T*S    EENTRO =        -0.05242287
  eigenvalues    EBANDS =      -166.30091492
  atomic energy  EATOM  =      1433.89963561
  Solvation  Ediel_sol  =         0.00000000
  ---------------------------------------------------
  free energy    TOTEN  =       -19.38632437 eV

  energy without entropy =      -19.33390150  energy(sigma->0) =      -19.36011293


--------------------------------------------------------------------------------------------------------




--------------------------------------- Iteration      1(   7)  ---------------------------------------


    POTLOK:  cpu time    0.0934: real time    0.0947
    SETDIJ:  cpu time    0.0024: real time    0.0024
     EDDAV:  cpu time    2.3973: real time    2.4104
       DOS:  cpu time    0.0037: real time    0.0037
    CHARGE:  cpu time    0.0117: real time    0.0118
    MIXING:  cpu time    0.0032: real time    0.0032
    --------------------------------------------
      LOOP:  cpu time    2.5118: real time    2.5262

 eigenvalue-minimisations  :  1728
 total energy-change (2. order) : 0.5387842E-01  (-0.7134834E-02)
 number of electron      19.9999979 magnetization 
 augmentation part        3.0151229 magnetization 

 Broyden mixing:
  rms(total) = 0.17467E+00    rms(broyden)= 0.17467E+00
  rms(prec ) = 0.26081E+00
  weight for this iteration     100.00

 eigenvalues of (default mixing * dielectric matrix)
  average eigenvalue GAMMA=   1.6062
  0.9439  2.2685

 Free energy of the ion-electron system (eV)
  ---------------------------------------------------
  alpha Z        PSCENC =        38.05706926
  Ewald energy   TEWEN  =      -993.64781158
  -Hartree energ DENC   =      -407.23471797
  -exchange      EXHF   =         0.00000000
  -V(xc)+E(xc)   XCENC  =       -27.63579286
  PAW double counting   =      1535.62595835    -1432.56196956
  entropy T*S    EENTRO =        -0.05431534
  eigenvalues    EBANDS =      -165.78050186
  atomic energy  EATOM  =      1433.89963561
  Solvation  Ediel_sol  =         0.00000000
  ---------------------------------------------------
  free energy    TOTEN  =       -19.33244595 eV

  energy without entropy =      -19.27813061  energy(sigma->0) =      -19.30528828


--------------------------------------------------------------------------------------------------------




--------------------------------------- Iteration      1(   8)  ---------------------------------------


    POTLOK:  cpu time    0.0740: real time    0.0936
    SETDIJ:  cpu time    0.0029: real time    0.0029
     EDDAV:  cpu time    3.2280: real time    3.2444
       DOS:  cpu time    0.0035: real time    0.0035
    CHARGE:  cpu time    0.0113: real time    0.0120
    MIXING:  cpu time    0.0032: real time    0.0032
    --------------------------------------------
      LOOP:  cpu time    3.3228: real time    3.3596

 eigenvalue-minimisations  :  2048
 total energy-change (2. order) : 0.2302511E-01  (-0.4920918E-02)
 number of electron      19.9999979 magnetization 
 augmentation part        3.0318731 magnetization 

 Broyden mixing:
  rms(total) = 0.24027E-01    rms(broyden)= 0.24027E-01
  rms(prec ) = 0.43296E-01
  weight for this iteration     100.00

 eigenvalues of (default mixing * dielectric matrix)
  average eigenvalue GAMMA=   1.8370
  0.9096  2.3007  2.3007

 Free energy of the ion-electron system (eV)
  ---------------------------------------------------
  alpha Z        PSCENC =        38.05706926
  Ewald energy   TEWEN  =      -993.64781158
  -Hartree energ DENC   =      -405.49822099
  -exchange      EXHF   =         0.00000000
  -V(xc)+E(xc)   XCENC  =       -27.59774274
  PAW double counting   =      1733.01969046    -1630.30649619
  entropy T*S    EENTRO =        -0.05405324
  eigenvalues    EBANDS =      -167.18149141
  atomic energy  EATOM  =      1433.89963561
  Solvation  Ediel_sol  =         0.00000000
  ---------------------------------------------------
  free energy    TOTEN  =       -19.30942083 eV

  energy without entropy =      -19.25536759  energy(sigma->0) =      -19.28239421


--------------------------------------------------------------------------------------------------------




--------------------------------------- Iteration      1(   9)  ---------------------------------------


    POTLOK:  cpu time    0.0943: real time    0.0954
    SETDIJ:  cpu time    0.0024: real time    0.0024
     EDDAV:  cpu time    2.8621: real time    2.8875
       DOS:  cpu time    0.0037: real time    0.0037
    CHARGE:  cpu time    0.0115: real time    0.0116
    MIXING:  cpu time    0.0036: real time    0.0036
    --------------------------------------------
      LOOP:  cpu time    2.9776: real time    3.0041

 eigenvalue-minimisations  :  1920
 total energy-change (2. order) : 0.1427696E-03  (-0.1237589E-02)
 number of electron      19.9999979 magnetization 
 augmentation part        3.0145035 magnetization 

 Broyden mixing:
  rms(total) = 0.16744E-01    rms(broyden)= 0.16744E-01
  rms(prec ) = 0.39039E-01
  weight for this iteration     100.00

 eigenvalues of (default mixing * dielectric matrix)
  average eigenvalue GAMMA=   1.8022
  2.8980  0.8711  2.0218  1.4178

 Free energy of the ion-electron system (eV)
  ---------------------------------------------------
  alpha Z        PSCENC =        38.05706926
  Ewald energy   TEWEN  =      -993.64781158
  -Hartree energ DENC   =      -406.43592603
  -exchange      EXHF   =         0.00000000
  -V(xc)+E(xc)   XCENC  =       -27.52888055
  PAW double counting   =      1725.38089301    -1622.62546882
  entropy T*S    EENTRO =        -0.05456748
  eigenvalues    EBANDS =      -166.35422147
  atomic energy  EATOM  =      1433.89963561
  Solvation  Ediel_sol  =         0.00000000
  ---------------------------------------------------
  free energy    TOTEN  =       -19.30927806 eV

  energy without entropy =      -19.25471058  energy(sigma->0) =      -19.28199432


--------------------------------------------------------------------------------------------------------




--------------------------------------- Iteration      1(  10)  ---------------------------------------


    POTLOK:  cpu time    0.0894: real time    0.0940
    SETDIJ:  cpu time    0.0024: real time    0.0024
     EDDAV:  cpu time    2.5145: real time    2.5288
       DOS:  cpu time    0.0043: real time    0.0044
    CHARGE:  cpu time    0.0127: real time    0.0128
    MIXING:  cpu time    0.0035: real time    0.0035
    --------------------------------------------
      LOOP:  cpu time    2.6269: real time    2.6459

 eigenvalue-minimisations  :  1728
 total energy-change (2. order) : 0.4887641E-03  (-0.7881580E-03)
 number of electron      19.9999979 magnetization 
 augmentation part        3.0275602 magnetization 

 Broyden mixing:
  rms(total) = 0.68847E-02    rms(broyden)= 0.68847E-02
  rms(prec ) = 0.15675E-01
  weight for this iteration     100.00

 eigenvalues of (default mixing * dielectric matrix)
  average eigenvalue GAMMA=   1.7736
  2.7202  2.5365  1.7994  0.7997  1.0120

 Free energy of the ion-electron system (eV)
  ---------------------------------------------------
  alpha Z        PSCENC =        38.05706926
  Ewald energy   TEWEN  =      -993.64781158
  -Hartree energ DENC   =      -405.72816459
  -exchange      EXHF   =         0.00000000
  -V(xc)+E(xc)   XCENC  =       -27.55130250
  PAW double counting   =      1727.20932091    -1624.47996395
  entropy T*S    EENTRO =        -0.05399732
  eigenvalues    EBANDS =      -167.01357513
  atomic energy  EATOM  =      1433.89963561
  Solvation  Ediel_sol  =         0.00000000
  ---------------------------------------------------
  free energy    TOTEN  =       -19.30878930 eV

  energy without entropy =      -19.25479198  energy(sigma->0) =      -19.28179064


--------------------------------------------------------------------------------------------------------




--------------------------------------- Iteration      1(  11)  ---------------------------------------


    POTLOK:  cpu time    0.0931: real time    0.0945
    SETDIJ:  cpu time    0.0027: real time    0.0027
     EDDAV:  cpu time    2.2984: real time    2.3110
       DOS:  cpu time    0.0037: real time    0.0037
    CHARGE:  cpu time    0.0117: real time    0.0117
    MIXING:  cpu time    0.0038: real time    0.0038
    --------------------------------------------
      LOOP:  cpu time    2.4133: real time    2.4274

 eigenvalue-minimisations  :  1600
 total energy-change (2. order) : 0.8235132E-04  (-0.9854932E-04)
 number of electron      19.9999979 magnetization 
 augmentation part        3.0231076 magnetization 

 Broyden mixing:
  rms(total) = 0.14035E-02    rms(broyden)= 0.14035E-02
  rms(prec ) = 0.37505E-02
  weight for this iteration     100.00

 eigenvalues of (default mixing * dielectric matrix)
  average eigenvalue GAMMA=   1.7101
  2.6805  2.6805  1.7634  1.3641  0.7874  0.9849

 Free energy of the ion-electron system (eV)
  ---------------------------------------------------
  alpha Z        PSCENC =        38.05706926
  Ewald energy   TEWEN  =      -993.64781158
  -Hartree energ DENC   =      -405.97961328
  -exchange      EXHF   =         0.00000000
  -V(xc)+E(xc)   XCENC  =       -27.54143538
  PAW double counting   =      1721.23974989    -1618.49122889
  entropy T*S    EENTRO =        -0.05420342
  eigenvalues    EBANDS =      -166.79086915
  atomic energy  EATOM  =      1433.89963561
  Solvation  Ediel_sol  =         0.00000000
  ---------------------------------------------------
  free energy    TOTEN  =       -19.30870695 eV

  energy without entropy =      -19.25450353  energy(sigma->0) =      -19.28160524


--------------------------------------------------------------------------------------------------------




--------------------------------------- Iteration      1(  12)  ---------------------------------------


    POTLOK:  cpu time    0.0930: real time    0.0941
    SETDIJ:  cpu time    0.0027: real time    0.0027
     EDDAV:  cpu time    3.1761: real time    3.1923
       DOS:  cpu time    0.0036: real time    0.0036
    --------------------------------------------
      LOOP:  cpu time    3.2753: real time    3.2927

 eigenvalue-minimisations  :  1984
 total energy-change (2. order) : 0.4671109E-05  (-0.1934586E-05)
 number of electron      19.9999979 magnetization 
 augmentation part        3.0231076 magnetization 

 Free energy of the ion-electron system (eV)
  ---------------------------------------------------
  alpha Z        PSCENC =        38.05706926
  Ewald energy   TEWEN  =      -993.64781158
  -Hartree energ DENC   =      -405.94558671
  -exchange      EXHF   =         0.00000000
  -V(xc)+E(xc)   XCENC  =       -27.54260955
  PAW double counting   =      1721.03331396    -1618.28625606
  entropy T*S    EENTRO =        -0.05417517
  eigenvalues    EBANDS =      -166.82228203
  atomic energy  EATOM  =      1433.89963561
  Solvation  Ediel_sol  =         0.00000000
  ---------------------------------------------------
  free energy    TOTEN  =       -19.30870228 eV

  energy without entropy =      -19.25452711  energy(sigma->0) =      -19.28161469


--------------------------------------------------------------------------------------------------------




 average (electrostatic) potential at core
  the test charge radii are     1.0854  1.0406
  (the norm of the test charge is              1.0000)
       1 -43.3546       2 -73.2696       3 -73.2696       4 -73.2696
 
 
 
 E-fermi :   7.2221     XC(G=0): -10.3637     alpha+bet :-14.3890


 k-point     1 :       0.0833    0.0833    0.0833
  band No.  band energies     occupation 
      1     -41.8447      2.00000
      2     -20.5462      2.00000
      3     -20.5458      2.00000
      4     -20.5458      2.00000
      5      -2.6212      2.00000
      6       3.9087      2.00000
      7       3.9087      2.00000
      8       4.7971      2.00000
      9       6.1452      1.99996
     10       6.1452      1.99996
     11       8.2322      0.00008
     12       8.2322      0.00008
     13       8.5585      0.00000
     14       9.2857      0.00000
     15      11.2521      0.00000
     16      11.2521      0.00000
     17      12.5410      0.00000
     18      12.9007      0.00000
     19      12.9007      0.00000
     20      13.1586      0.00000
     21      14.7991      0.00000
     22      14.7991      0.00000
     23      16.2972      0.00000
     24      16.2972      0.00000
     25      17.0636      0.00000
     26      18.5728      0.00000
     27      18.5728      0.00000
     28      20.4052      0.00000
     29      22.3488      0.00000
     30      22.3488      0.00000
     31      23.1157      0.00000
     32      23.4840      0.00000
     33      25.3173      0.00000
     34      25.3173      0.00000
     35      26.2168      0.00000
     36      26.7143      0.00000
     37      26.7143      0.00000
     38      29.7294      0.00000
     39      30.7097      0.00000
     40      32.3393      0.00000
     41      32.3393      0.00000
     42      32.6382      0.00000
     43      32.8314      0.00000
     44      32.9066      0.00000
     45      32.9066      0.00000
     46      35.5615      0.00000
     47      35.5615      0.00000
     48      38.0070      0.00000
     49      38.0070      0.00000
     50      38.1035      0.00000
     51      38.8706      0.00000
     52      39.4140      0.00000
     53      39.4314      0.00000
     54      39.4314      0.00000
     55      39.7621      0.00000
     56      39.7621      0.00000
     57      40.5532      0.00000
     58      41.1485      0.00000
     59      41.5834      0.00000
     60      41.5834      0.00000
     61      42.8440      0.00000
     62      43.1184      0.00000
     63      43.1184      0.00000
     64      44.5295      0.00000

 k-point     2 :       0.2500    0.0833    0.0833
  band No.  band energies     occupation 
      1     -41.8442      2.00000
      2     -20.5590      2.00000
      3     -20.5450      2.00000
      4     -20.5447      2.00000
      5      -2.1265      2.00000
      6       2.1462      2.00000
      7       4.2414      2.00000
      8       4.8717      2.00000
      9       6.0394      1.99999
     10       7.3154      0.56452
     11       7.7079      0.01540
     12       8.0881      0.00035
     13       8.9311      0.00000
     14       9.9246      0.00000
     15      10.1782      0.00000
     16      11.4585      0.00000
     17      12.1630      0.00000
     18      12.5782      0.00000
     19      13.1412      0.00000
     20      13.3632      0.00000
     21      14.2302      0.00000
     22      14.7053      0.00000
     23      15.8894      0.00000
     24      18.1363      0.00000
     25      18.4213      0.00000
     26      19.0377      0.00000
     27      19.4068      0.00000
     28      20.1431      0.00000
     29      20.7752      0.00000
     30      21.5987      0.00000
     31      23.1680      0.00000
     32      24.3853      0.00000
     33      25.1152      0.00000
     34      25.6395      0.00000
     35      26.8138      0.00000
     36      27.6834      0.00000
     37      28.4045      0.00000
     38      28.6765      0.00000
     39      29.4623      0.00000
     40      30.4701      0.00000
     41      30.6738      0.00000
     42      32.4904      0.00000
     43      32.6131      0.00000
     44      33.3355      0.00000
     45      33.9355      0.00000
     46      34.1936      0.00000
     47      35.8656      0.00000
     48      36.4713      0.00000
     49      36.8679      0.00000
     50      37.0866      0.00000
     51      37.5329      0.00000
     52      38.7574      0.00000
     53      39.1885      0.00000
     54      39.2157      0.00000
     55      39.5979      0.00000
     56      39.9706      0.00000
     57      40.1640      0.00000
     58      40.4530      0.00000
     59      41.3519      0.00000
     60      42.1638      0.00000
     61      42.5468      0.00000
     62      42.9174      0.00000
     63      43.3054      0.00000
     64      43.6011      0.00000

 k-point     3 :       0.4167    0.0833    0.0833
  band No.  band energies     occupation 
      1     -41.8437      2.00000
      2     -20.5720      2.00000
      3     -20.5439      2.00000
      4     -20.5437      2.00000
      5      -1.2114      2.00000
      6       0.4492      2.00000
      7       4.7938      2.00000
      8       5.1805      2.00000
      9       5.6532      2.00000
     10       7.3770      0.35048
     11       8.2666      0.00006
     12       8.3488      0.00003
     13       8.8766      0.00000
     14       9.2077      0.00000
     15       9.5874      0.00000
     16      11.0202      0.00000
     17      11.3400      0.00000
     18      12.8334      0.00000
     19      13.7967      0.00000
     20      13.8385      0.00000
     21      15.2398      0.00000
     22      15.6910      0.00000
     23      15.9902      0.00000
     24      16.9835      0.00000
     25      18.2390      0.00000
     26      18.6529      0.00000
     27      20.0271      0.00000
     28      20.7995      0.00000
     29      21.2957      0.00000
     30      22.0944      0.00000
     31      23.6659      0.00000
     32      23.9048      0.00000
     33      24.9100      0.00000
     34      25.8341      0.00000
     35      26.6639      0.00000
     36      27.6282      0.00000
     37      27.7649      0.00000
     38      28.7565      0.00000
     39      30.5136      0.00000
     40      30.7656      0.00000
     41      31.2569      0.00000
     42      31.8243      0.00000
     43      31.8476      0.00000
     44      32.6446      0.00000
     45      33.4431      0.00000
     46      34.2386      0.00000
     47      34.4116      0.00000
     48      35.0748      0.00000
     49      35.3407      0.00000
     50      36.1222      0.00000
     51      36.3332      0.00000
     52      37.4080      0.00000
     53      38.3202      0.00000
     54      38.8281      0.00000
     55      39.7414      0.00000
     56      39.9264      0.00000
     57      40.5718      0.00000
     58      41.0345      0.00000
     59      41.3254      0.00000
     60      41.7657      0.00000
     61      42.5743      0.00000
     62      42.9610      0.00000
     63      43.6247      0.00000
     64      43.7656      0.00000

 k-point     4 :       0.2500    0.2500    0.0833
  band No.  band energies     occupation 
      1     -41.8437      2.00000
      2     -20.5581      2.00000
      3     -20.5571      2.00000
      4     -20.5438      2.00000
      5      -1.6489      2.00000
      6       2.4354      2.00000
      7       2.6657      2.00000
      8       4.9502      2.00000
      9       5.8338      2.00000
     10       7.0757      1.62430
     11       7.6972      0.01713
     12       8.4725      0.00001
     13       9.4087      0.00000
     14       9.8445      0.00000
     15      10.6807      0.00000
     16      11.2806      0.00000
     17      11.5323      0.00000
     18      12.7438      0.00000
     19      13.0338      0.00000
     20      13.1771      0.00000
     21      14.6794      0.00000
     22      15.7638      0.00000
     23      16.3833      0.00000
     24      17.6215      0.00000
     25      17.6585      0.00000
     26      18.9436      0.00000
     27      19.9326      0.00000
     28      20.7710      0.00000
     29      22.1125      0.00000
     30      22.5792      0.00000
     31      23.1714      0.00000
     32      23.7859      0.00000
     33      24.8934      0.00000
     34      26.2008      0.00000
     35      26.7168      0.00000
     36      26.8659      0.00000
     37      27.3489      0.00000
     38      29.2497      0.00000
     39      29.2939      0.00000
     40      29.9489      0.00000
     41      30.8105      0.00000
     42      30.8958      0.00000
     43      31.3296      0.00000
     44      32.7690      0.00000
     45      33.9102      0.00000
     46      34.1692      0.00000
     47      34.6492      0.00000
     48      35.8699      0.00000
     49      36.5749      0.00000
     50      37.1274      0.00000
     51      37.4765      0.00000
     52      37.7647      0.00000
     53      38.0167      0.00000
     54      38.8799      0.00000
     55      39.2933      0.00000
     56      39.4979      0.00000
     57      39.9859      0.00000
     58      41.1181      0.00000
     59      41.4655      0.00000
     60      42.2582      0.00000
     61      42.8323      0.00000
     62      43.0393      0.00000
     63      44.0754      0.00000
     64      44.6150      0.00000

 k-point     5 :       0.4167    0.2500    0.0833
  band No.  band energies     occupation 
      1     -41.8432      2.00000
      2     -20.5702      2.00000
      3     -20.5561      2.00000
      4     -20.5427      2.00000
      5      -0.7757      2.00000
      6       0.9021      2.00000
      7       3.2038      2.00000
      8       4.8185      2.00000
      9       5.4329      2.00000
     10       6.7279      1.98582
     11       8.1851      0.00013
     12       8.6623      0.00000
     13       9.2482      0.00000
     14      10.0813      0.00000
     15      10.1844      0.00000
     16      10.3848      0.00000
     17      12.2349      0.00000
     18      12.4485      0.00000
     19      13.4895      0.00000
     20      14.5210      0.00000
     21      15.0692      0.00000
     22      15.4615      0.00000
     23      15.8598      0.00000
     24      17.8361      0.00000
     25      18.5014      0.00000
     26      19.2629      0.00000
     27      20.0229      0.00000
     28      21.4753      0.00000
     29      21.6123      0.00000
     30      22.7836      0.00000
     31      23.3590      0.00000
     32      24.1001      0.00000
     33      24.8244      0.00000
     34      25.5768      0.00000
     35      26.3730      0.00000
     36      27.3991      0.00000
     37      27.6190      0.00000
     38      28.2094      0.00000
     39      29.1198      0.00000
     40      29.9249      0.00000
     41      30.0756      0.00000
     42      30.3669      0.00000
     43      31.8399      0.00000
     44      31.9571      0.00000
     45      33.0508      0.00000
     46      33.9367      0.00000
     47      34.4376      0.00000
     48      34.7468      0.00000
     49      35.4123      0.00000
     50      35.5457      0.00000
     51      36.6769      0.00000
     52      37.6512      0.00000
     53      38.0417      0.00000
     54      38.6113      0.00000
     55      39.6065      0.00000
     56      39.8383      0.00000
     57      40.4748      0.00000
     58      40.7444      0.00000
     59      41.8647      0.00000
     60      42.3720      0.00000
     61      42.4971      0.00000
     62      43.3807      0.00000
     63      44.2121      0.00000
     64      44.6923      0.00000

 k-point     6 :       0.4167    0.4167    0.0833
  band No.  band energies     occupation 
      1     -41.8427      2.00000
      2     -20.5686      2.00000
      3     -20.5683      2.00000
      4     -20.5416      2.00000
      5       0.0051      2.00000
      6       1.6696      2.00000
      7       1.6871      2.00000
      8       3.5297      2.00000
      9       6.0273      1.99999
     10       6.5101      1.99838
     11       7.7315      0.01219
     12       8.8478      0.00000
     13       9.4637      0.00000
     14       9.7111      0.00000
[...]

 INTERNAL STRAIN TENSOR FOR ION    2 for displacements in x,y,z  (eV/Angst):
          X           Y           Z          XY          YZ          ZX
  --------------------------------------------------------------------------------
  x     0.00000     0.00000    -0.00000     0.00000    -0.00000     0.00000
  y    -0.00000    -0.00000     0.00000     0.00000     0.00000     0.00000
  z    -0.00000    -0.00000     0.00000     0.00000    -0.00000     0.00000

 INTERNAL STRAIN TENSOR FOR ION    3 for displacements in x,y,z  (eV/Angst):
          X           Y           Z          XY          YZ          ZX
  --------------------------------------------------------------------------------
  x     0.00000     0.00000    -0.00000     0.00000    -0.00000     0.00000
  y    -0.00000     0.00000     0.00000     0.00000     0.00000     0.00000
  z     0.00000     0.00000     0.00000     0.00000    -0.00000    -0.00000

 INTERNAL STRAIN TENSOR FOR ION    4 for displacements in x,y,z  (eV/Angst):
          X           Y           Z          XY          YZ          ZX
  --------------------------------------------------------------------------------
  x    -0.00000    -0.00000     0.00000    -0.00000     0.00000     0.00000
  y     0.00000     0.00000    -0.00000    -0.00000    -0.00000    -0.00000
  z    -0.00000     0.00000    -0.00000    -0.00000     0.00000    -0.00000
 
 INTERNAL STRAIN TENSORS FROM DISPLACED ATOMS
 ============================================

 INTERNAL STRAIN TENSOR FOR ION    1 for displacements in x,y,z  (eV/Angst):
          X           Y           Z          XY          YZ          ZX
  --------------------------------------------------------------------------------
  x     0.00000     0.00000     0.00000     0.00000     0.00000     0.00000
  y     0.00000     0.00000     0.00000     0.00000     0.00000     0.00000
  z     0.00000     0.00000     0.00000     0.00000     0.00000     0.00000

 INTERNAL STRAIN TENSOR FOR ION    2 for displacements in x,y,z  (eV/Angst):
          X           Y           Z          XY          YZ          ZX
  --------------------------------------------------------------------------------
  x     0.00000     0.00000     0.00000     0.00000     0.00000     0.00000
  y     0.00000     0.00000     0.00000     0.00000     0.00000     0.00000
  z     0.00000     0.00000     0.00000     0.00000     0.00000     0.00000

 INTERNAL STRAIN TENSOR FOR ION    3 for displacements in x,y,z  (eV/Angst):
          X           Y           Z          XY          YZ          ZX
  --------------------------------------------------------------------------------
  x     0.00000     0.00000     0.00000     0.00000     0.00000     0.00000
  y     0.00000     0.00000     0.00000     0.00000     0.00000     0.00000
  z     0.00000     0.00000     0.00000     0.00000     0.00000     0.00000

 INTERNAL STRAIN TENSOR FOR ION    4 for displacements in x,y,z  (eV/Angst):
          X           Y           Z          XY          YZ          ZX
  --------------------------------------------------------------------------------
  x     0.00000     0.00000     0.00000     0.00000     0.00000     0.00000
  y     0.00000     0.00000     0.00000     0.00000     0.00000     0.00000
  z     0.00000     0.00000     0.00000     0.00000     0.00000     0.00000


--------------------------------------------------------------------------------------------------------


 
 Eigenvectors and eigenvalues of the dynamical matrix
 ----------------------------------------------------
 
 
   1 f  =    9.812598 THz    61.654375 2PiTHz  327.313043 cm-1    40.581660 meV
             X         Y         Z           dx          dy          dz
      0.000000  0.000000  0.000000    -0.210766   -0.599961   -0.029963  
      2.053188  0.000000  2.053188     0.172771   -0.210889    0.024561  
      0.000000  2.053188  2.053188    -0.074085    0.491806    0.024561  
      2.053188  2.053188  0.000000     0.172771    0.491806   -0.010532  
 
   2 f  =    9.812598 THz    61.654375 2PiTHz  327.313043 cm-1    40.581660 meV
             X         Y         Z           dx          dy          dz
      0.000000  0.000000  0.000000    -0.504885    0.159719    0.353347  
      2.053188  0.000000  2.053188     0.413870    0.056142   -0.289649  
      0.000000  2.053188  2.053188    -0.177469   -0.130927   -0.289649  
      2.053188  2.053188  0.000000     0.413870   -0.130927    0.124203  
 
   3 f  =    9.812598 THz    61.654375 2PiTHz  327.313043 cm-1    40.581660 meV
             X         Y         Z           dx          dy          dz
      0.000000  0.000000  0.000000     0.325487   -0.140747    0.528698  
      2.053188  0.000000  2.053188    -0.266812   -0.049473   -0.433390  
      0.000000  2.053188  2.053188     0.114410    0.115375   -0.433390  
      2.053188  2.053188  0.000000    -0.266812    0.115375    0.185840  
 
   4 f  =    7.510026 THz    47.186887 2PiTHz  250.507506 cm-1    31.058983 meV
             X         Y         Z           dx          dy          dz
      0.000000  0.000000  0.000000    -0.000000   -0.000000   -0.000000  
      2.053188  0.000000  2.053188    -0.077092    0.000000   -0.118930  
      0.000000  2.053188  2.053188     0.000000    0.692757    0.118930  
      2.053188  2.053188  0.000000     0.077092   -0.692757   -0.000000  
 
   5 f  =    7.510026 THz    47.186887 2PiTHz  250.507506 cm-1    31.058983 meV
             X         Y         Z           dx          dy          dz
      0.000000  0.000000  0.000000    -0.000000   -0.000000   -0.000000  
      2.053188  0.000000  2.053188     0.015204    0.000000    0.696466  
      0.000000  2.053188  2.053188     0.000000    0.121259   -0.696466  
      2.053188  2.053188  0.000000    -0.015204   -0.121259    0.000000  
 
   6 f  =    7.510026 THz    47.186887 2PiTHz  250.507506 cm-1    31.058983 meV
             X         Y         Z           dx          dy          dz
      0.000000  0.000000  0.000000     0.000000   -0.000000   -0.000000  
      2.053188  0.000000  2.053188     0.702727    0.000000   -0.028116  
      0.000000  2.053188  2.053188    -0.000000    0.073375    0.028116  
      2.053188  2.053188  0.000000    -0.702727   -0.073375    0.000000  
 
   7 f  =    6.973548 THz    43.816097 2PiTHz  232.612529 cm-1    28.840288 meV
             X         Y         Z           dx          dy          dz
      0.000000  0.000000  0.000000    -0.000000   -0.000000   -0.488830  
      2.053188  0.000000  2.053188    -0.000000    0.000000   -0.114367  
      0.000000  2.053188  2.053188     0.000001   -0.000000   -0.114367  
      2.053188  2.053188  0.000000    -0.000000   -0.000000    0.857255  
 
   8 f  =    6.973548 THz    43.816097 2PiTHz  232.612529 cm-1    28.840288 meV
             X         Y         Z           dx          dy          dz
      0.000000  0.000000  0.000000    -0.470297   -0.133325    0.000000  
      2.053188  0.000000  2.053188    -0.110031    0.233810    0.000000  
      0.000000  2.053188  2.053188     0.824754   -0.031193    0.000000  
      2.053188  2.053188  0.000000    -0.110031   -0.031193   -0.000001  
 
   9 f  =    6.973548 THz    43.816097 2PiTHz  232.612529 cm-1    28.840288 meV
             X         Y         Z           dx          dy          dz
      0.000000  0.000000  0.000000     0.133325   -0.470297   -0.000000  
      2.053188  0.000000  2.053188     0.031193    0.824754   -0.000000  
      0.000000  2.053188  2.053188    -0.233810   -0.110031   -0.000000  
      2.053188  2.053188  0.000000     0.031193   -0.110031    0.000000  
 
  10 f/i=    0.011491 THz     0.072203 2PiTHz    0.383312 cm-1     0.047525 meV
             X         Y         Z           dx          dy          dz
      0.000000  0.000000  0.000000    -0.212431    0.557300    0.007885  
      2.053188  0.000000  2.053188    -0.164984    0.433274    0.006124  
      0.000000  2.053188  2.053188    -0.165155    0.432824    0.006124  
      2.053188  2.053188  0.000000    -0.164984    0.432824    0.006130  
 
  11 f/i=    0.011491 THz     0.072203 2PiTHz    0.383312 cm-1     0.047525 meV
             X         Y         Z           dx          dy          dz
      0.000000  0.000000  0.000000    -0.329674   -0.118836   -0.482664  
      2.053188  0.000000  2.053188    -0.256040   -0.092390   -0.374859  
      0.000000  2.053188  2.053188    -0.256306   -0.092294   -0.374859  
      2.053188  2.053188  0.000000    -0.256040   -0.092294   -0.375249  
 
  12 f/i=    0.011491 THz     0.072203 2PiTHz    0.383312 cm-1     0.047525 meV
             X         Y         Z           dx          dy          dz
      0.000000  0.000000  0.000000    -0.449399   -0.176259    0.350350  
      2.053188  0.000000  2.053188    -0.349024   -0.137033    0.272098  
      0.000000  2.053188  2.053188    -0.349387   -0.136890    0.272098  
      2.053188  2.053188  0.000000    -0.349024   -0.136890    0.272381  
 


--------------------------------------------------------------------------------------------------------



 ELASTIC MODULI CONTR FROM IONIC RELAXATION (kBar)
 Direction    XX          YY          ZZ          XY          YZ          ZX
 --------------------------------------------------------------------------------
 XX           0.0000      0.0000      0.0000      0.0000      0.0000      0.0000
 YY           0.0000      0.0000      0.0000      0.0000      0.0000      0.0000
 ZZ           0.0000      0.0000      0.0000      0.0000      0.0000      0.0000
 XY           0.0000      0.0000      0.0000      0.0000      0.0000      0.0000
 YZ           0.0000      0.0000      0.0000      0.0000      0.0000      0.0000
 ZX           0.0000      0.0000      0.0000      0.0000      0.0000      0.0000
 --------------------------------------------------------------------------------


 TOTAL ELASTIC MODULI (kBar)
 Direction    XX          YY          ZZ          XY          YZ          ZX
 --------------------------------------------------------------------------------
 XX        1756.4837    421.7732    421.7732     -0.0000      0.0000     -0.0000
 YY         421.7732   1756.4837    421.7732      0.0000     -0.0000      0.0000
 ZZ         421.7732    421.7732   1756.4837      0.0000      0.0000      0.0000
 XY          -0.0000      0.0000      0.0000    657.5185      0.0000      0.0000
 YZ           0.0000     -0.0000      0.0000      0.0000    657.5185      0.0000
 ZX          -0.0000      0.0000      0.0000      0.0000      0.0000    657.5185
 --------------------------------------------------------------------------------



--------------------------------------------------------------------------------------------------------


  LATTYP: Found a simple cubic cell.
 ALAT       =     4.1063754588
  
  Lattice vectors:
  
 A1 = (   4.1063754588,   0.0000000000,   0.0000000000)
 A2 = (   0.0000000000,   4.1063754588,   0.0000000000)
 A3 = (   0.0000000000,   0.0000000000,   4.1063754588)


Analysis of symmetry for initial positions (statically):
=====================================================================
 Subroutine PRICEL returns:
 Original cell was already a primitive cell.
 

 Routine SETGRP: Setting up the symmetry group for a 
 simple cubic supercell.


 Subroutine GETGRP returns: Found 48 space group operations
 (whereof 48 operations were pure point group operations)
 out of a pool of 48 trial point group operations.


The static configuration has the point symmetry O_h .


Analysis of symmetry for dynamics (positions and initial velocities):
=====================================================================
 Subroutine PRICEL returns:
 Original cell was already a primitive cell.
 

 Routine SETGRP: Setting up the symmetry group for a 
 simple cubic supercell.


 Subroutine GETGRP returns: Found 48 space group operations
 (whereof 48 operations were pure point group operations)
 out of a pool of 48 trial point group operations.


The dynamic configuration has the point symmetry O_h .


 Subroutine INISYM returns: Found 48 space group operations
 (whereof 48 operations are pure point group operations),
 and found     1 'primitive' translations

 
 KPOINTS: pymatgen with grid density = 882 / numbe

Automatic generation of k-mesh.
Space group operators:
 irot       det(A)        alpha          n_x          n_y          n_z        tau_x        tau_y        tau_z
    1     1.000000     0.000001     1.000000     0.000000     0.000000     0.000000     0.000000     0.000000
    2    -1.000000     0.000001     1.000000     0.000000     0.000000     0.000000     0.000000     0.000000
    3     1.000000   120.000000    -0.577350    -0.577350    -0.577350     0.000000     0.000000     0.000000
    4    -1.000000   120.000000    -0.577350    -0.577350    -0.577350     0.000000     0.000000     0.000000
    5     1.000000   120.000000     0.577350     0.577350     0.577350     0.000000     0.000000     0.000000
    6    -1.000000   120.000000     0.577350     0.577350     0.577350     0.000000     0.000000     0.000000
    7     1.000000    90.000000     0.000000     0.000000    -1.000000     0.000000     0.000000     0.000000
    8    -1.000000    90.000000     0.000000     0.000000    -1.000000     0.000000     0.000000     0.000000
    9     1.000000   180.000000     0.000000     0.707107     0.707107     0.000000     0.000000     0.000000
   10    -1.000000   180.000000     0.000000     0.707107     0.707107     0.000000     0.000000     0.000000
   11     1.000000    90.000000     0.000000     1.000000     0.000000     0.000000     0.000000     0.000000
   12    -1.000000    90.000000     0.000000     1.000000     0.000000     0.000000     0.000000     0.000000
   13     1.000000   180.000000     0.000000     0.000000     1.000000     0.000000     0.000000     0.000000
   14    -1.000000   180.000000     0.000000     0.000000     1.000000     0.000000     0.000000     0.000000
   15     1.000000   120.000000    -0.577350     0.577350     0.577350     0.000000     0.000000     0.000000
   16    -1.000000   120.000000    -0.577350     0.577350     0.577350     0.000000     0.000000     0.000000
   17     1.000000   120.000000    -0.577350     0.577350    -0.577350     0.000000     0.000000     0.000000
   18    -1.000000   120.000000    -0.577350     0.577350    -0.577350     0.000000     0.000000     0.000000
   19     1.000000    90.000000     0.000000     0.000000     1.000000     0.000000     0.000000     0.000000
   20    -1.000000    90.000000     0.000000     0.000000     1.000000     0.000000     0.000000     0.000000
   21     1.000000    90.000000    -1.000000     0.000000     0.000000     0.000000     0.000000     0.000000
   22    -1.000000    90.000000    -1.000000     0.000000     0.000000     0.000000     0.000000     0.000000
   23     1.000000   180.000000     0.707107     0.000000     0.707107     0.000000     0.000000     0.000000
   24    -1.000000   180.000000     0.707107     0.000000     0.707107     0.000000     0.000000     0.000000
   25     1.000000   120.000000     0.577350    -0.577350     0.577350     0.000000     0.000000     0.000000
   26    -1.000000   120.000000     0.577350    -0.577350     0.577350     0.000000     0.000000     0.000000
   27     1.000000   120.000000    -0.577350    -0.577350     0.577350     0.000000     0.000000     0.000000
   28    -1.000000   120.000000    -0.577350    -0.577350     0.577350     0.000000     0.000000     0.000000
   29     1.000000   180.000000     1.000000     0.000000     0.000000     0.000000     0.000000     0.000000
   30    -1.000000   180.000000     1.000000     0.000000     0.000000     0.000000     0.000000     0.000000
   31     1.000000    90.000000     0.000000    -1.000000     0.000000     0.000000     0.000000     0.000000
   32    -1.000000    90.000000     0.000000    -1.000000     0.000000     0.000000     0.000000     0.000000
   33     1.000000   180.000000     0.707107     0.707107     0.000000     0.000000     0.000000     0.000000
   34    -1.000000   180.000000     0.707107     0.707107     0.000000     0.000000     0.000000     0.000000
   35     1.000000    90.000000     1.000000     0.000000     0.000000     0.000000     0.000000     0.000000
   36    -1.000000    90.000000     1.000000     0.000000     0.000000     0.000000     0.000000     0.000000
   37     1.000000   120.000000     0.577350    -0.577350    -0.577350     0.000000     0.000000     0.000000
   38    -1.000000   120.000000     0.577350    -0.577350    -0.577350     0.000000     0.000000     0.000000
   39     1.000000   180.000000     0.000000     1.000000     0.000000     0.000000     0.000000     0.000000
   40    -1.000000   180.000000     0.000000     1.000000     0.000000     0.000000     0.000000     0.000000
   41     1.000000   120.000000     0.577350     0.577350    -0.577350     0.000000     0.000000     0.000000
   42    -1.000000   120.000000     0.577350     0.577350    -0.577350     0.000000     0.000000     0.000000
   43     1.000000   180.000000     0.000000    -0.707107     0.707107     0.000000     0.000000     0.000000
   44    -1.000000   180.000000     0.000000    -0.707107     0.707107     0.000000     0.000000     0.000000
   45     1.000000   180.000000     0.707107    -0.707107     0.000000     0.000000     0.000000     0.000000
   46    -1.000000   180.000000     0.707107    -0.707107     0.000000     0.000000     0.000000     0.000000
   47     1.000000   180.000000     0.707107     0.000000    -0.707107     0.000000     0.000000     0.000000
   48    -1.000000   180.000000     0.707107     0.000000    -0.707107     0.000000     0.000000     0.000000
 
 Subroutine IBZKPT returns following result:
 ===========================================
 
 Found     10 irreducible k-points:
 
 Following reciprocal coordinates:
            Coordinates               Weight
  0.083333  0.083333  0.083333      8.000000
  0.250000  0.083333  0.083333     24.000000
  0.416667  0.083333  0.083333     24.000000
  0.250000  0.250000  0.083333     24.000000
  0.416667  0.250000  0.083333     48.000000
  0.416667  0.416667  0.083333     24.000000
  0.250000  0.250000  0.250000      8.000000
  0.416667  0.250000  0.250000     24.000000
  0.416667  0.416667  0.250000     24.000000
  0.416667  0.416667  0.416667      8.000000
 
 Following cartesian coordinates:
            Coordinates               Weight
  0.020294  0.020294  0.020294      8.000000
  0.060881  0.020294  0.020294     24.000000
  0.101468  0.020294  0.020294     24.000000
  0.060881  0.060881  0.020294     24.000000
  0.101468  0.060881  0.020294     48.000000
  0.101468  0.101468  0.020294     24.000000
  0.060881  0.060881  0.060881      8.000000
  0.101468  0.060881  0.060881     24.000000
  0.101468  0.101468  0.060881     24.000000
  0.101468  0.101468  0.101468      8.000000
 
 writing wavefunctions
     LOOP+:  cpu time   26.0658: real time   26.3269
    4ORBIT:  cpu time    0.0000: real time    0.0000

 total amount of memory used by VASP MPI-rank0    36879. kBytes
=======================================================================

   base      :      30000. kBytes
   nonl-proj :       5652. kBytes
   fftplans  :        153. kBytes
   grid      :        695. kBytes
   one-center:         62. kBytes
   wavefun   :        317. kBytes
 
  
  
 General timing and accounting informations for this job:
 ========================================================
  
                  Total CPU time used (sec):     1269.156
                            User time (sec):      720.088
                          System time (sec):      549.068
                         Elapsed time (sec):     1280.579
  
                   Maximum memory used (kb):      497820.
                   Average memory used (kb):           0.
  
                          Minor page faults:       283341
                          Major page faults:          138
                 Voluntary context switches:         3754
