 vasp.6.4.1 05Apr23 (build Jul 24 2024 14:19:02) complex                         
 executed on             LinuxGNU date 2024.10.23  13:40:12
 running    1 mpi-ranks, with   24 threads/rank, on    1 nodes
 distrk:  each k-point on    1 cores,    1 groups
 distr:  one band on NCORE=   1 cores,    1 groups


--------------------------------------------------------------------------------------------------------


 INCAR:
   ISTART = 0
   ALGO = Fast
   EDIFF = 0.0001
   ENCUT = 520
   IBRION = -1
   ISIF = 2
   ISMEAR = -5
   ISPIN = 2
   LASPH = True
   LMAXMIX = 6
   LORBIT = 11
   LREAL = Auto
   LWAVE = False
   MAGMOM = 2*0.6
   NELM = 100
   NSW = 0
   PREC = Accurate
   SIGMA = 0.05

 POTCAR:    PAW_PBE Nb_pv 08Apr2002               
 POTCAR:    PAW_PBE Nb_pv 08Apr2002               
   SHA256 =  bac2b60850b34f8515cf56f9feae68b678e347865051052a0e1f5d2c6a691c0a Nb_pv/POTCAR          
   COPYR  = (c) Copyright 08Apr2002 Georg Kresse                                                    
   COPYR  = This file is part of the software VASP. Any use, copying, and all other rights are regul
   COPYR  = If you do not have a valid VASP license, you may not use, copy or distribute this file. 
   VRHFIN =Nb: 4p5s4d                                                                               
   LEXCH  = PE                                                                                      
   EATOM  =  1043.3917 eV,   76.6871 Ry                                                             
                                                                                                    
   TITEL  = PAW_PBE Nb_pv 08Apr2002                                                                 
   LULTRA =        F    use ultrasoft PP ?                                                          
   IUNSCR =        1    unscreen: 0-lin 1-nonlin 2-no                                               
   RPACOR =    2.200    partial core radius                                                         
   POMASS =   92.000; ZVAL   =   11.000    mass and valenz                                          
   RCORE  =    2.750    outmost cutoff radius                                                       
   RWIGS  =    2.840; RWIGS  =    1.503    wigner-seitz radius (au A)                               
   ENMAX  =  208.608; ENMIN  =  156.456 eV                                                          
   RCLOC  =    2.201    cutoff for local pot                                                        
   LCOR   =        T    correct aug charges                                                         
   LPAW   =        T    paw PP                                                                      
   EAUG   =  355.067                                                                                
   DEXC   =    0.000                                                                                
   RMAX   =    2.804    core radius for proj-oper                                                   
   RAUG   =    1.300    factor for augmentation sphere                                              
   RDEP   =    2.776    radius for radial grids                                                     
   RDEPT  =    2.198    core radius for aug-charge                                                  
                                                                                                    
   Atomic configuration                                                                             
   11 entries                                                                                       
     n  l   j            E        occ.                                                              
     1  0  0.50    -18805.2456   2.0000                                                             
     2  0  0.50     -2630.2869   2.0000                                                             
     2  1  1.50     -2348.4045   6.0000                                                             
     3  0  0.50      -438.8756   2.0000                                                             
     3  1  1.50      -346.7587   6.0000                                                             
     3  2  2.50      -196.2559  10.0000                                                             
     4  0  0.50       -58.3859   2.0000                                                             
     4  1  1.50       -34.5141   6.0000                                                             
     4  2  2.50        -3.0408   4.0000                                                             
     5  0  0.50        -3.9816   1.0000                                                             
     4  3  2.50        -1.3606   0.0000                                                             
   Description                                                                                      
     l       E           TYP  RCUT    TYP  RCUT                                                     
     1    -34.5140617     23  2.600                                                                 
     1     -1.3605826     23  2.600                                                                 
     2     -3.0407924     23  2.600                                                                 
     2     -1.4463597     23  2.600                                                                 
     0     -3.9816219     23  2.750                                                                 
     0     20.4087390     23  2.750                                                                 
  local pseudopotential read in
  partial core-charges read in
  partial kinetic energy density read in
  atomic valenz-charges read in
  non local Contribution for L=           1  read in
    real space projection operators read in
  non local Contribution for L=           1  read in
    real space projection operators read in
  non local Contribution for L=           2  read in
    real space projection operators read in
  non local Contribution for L=           2  read in
    real space projection operators read in
  non local Contribution for L=           0  read in
    real space projection operators read in
  non local Contribution for L=           0  read in
    real space projection operators read in
    PAW grid and wavefunctions read in

   number of l-projection  operators is LMAX  =           6
   number of lm-projection operators is LMMAX =          18

 -----------------------------------------------------------------------------
|                                                                             |
|               ----> ADVICE to this user running VASP <----                  |
|                                                                             |
|     You have a (more or less) 'small supercell' and for smaller cells       |
|     it is recommended to use the reciprocal-space projection scheme!        |
|     The real-space optimization is not efficient for small cells and it     |
|     is also less accurate ...                                               |
|     Therefore, set LREAL=.FALSE. in the INCAR file.                         |
|                                                                             |
 -----------------------------------------------------------------------------

 Optimization of the real space projectors (new method)

 maximal supplied QI-value         = 13.61
 optimisation between [QCUT,QGAM] = [ 11.57, 23.27] = [ 37.45,151.59] Ry 
 Optimized for a Real-space Cutoff    1.63 Angstroem

   l    n(q)    QCUT    max X(q) W(low)/X(q) W(high)/X(q)  e(spline) 
   1     11    11.565     4.545    0.12E-04    0.18E-04    0.64E-07
   1     11    11.565     6.014    0.42E-04    0.48E-04    0.13E-06
   2     10    11.565   266.542    0.24E-03    0.87E-04    0.13E-05
   2     10    11.565   232.726    0.24E-03    0.87E-04    0.13E-05
   0     11    11.565    38.050    0.76E-04    0.32E-05    0.94E-06
   0     11    11.565    16.565    0.58E-04    0.25E-05    0.73E-06
  PAW_PBE Nb_pv 08Apr2002               :
 energy of atom  1       EATOM=-1043.3917
 kinetic energy error for atom=    0.0011 (will be added to EATOM!!)


 POSCAR: Generated POSCAR
  positions in direct lattice
  velocities in cartesian coordinates
 exchange correlation table for  LEXCH =        8
   RHO(1)=    0.500       N(1)  =     2000
   RHO(2)=  100.500       N(2)  =     4000



--------------------------------------------------------------------------------------------------------


 ion  position               nearest neighbor table
   1  0.000  0.000  0.000-   2 2.84   2 2.84   2 2.84   2 2.84   2 2.92   2 2.92   2 2.92   2 2.92

   2  0.500  0.500  0.500-   1 2.84   1 2.84   1 2.84   1 2.84   1 2.92   1 2.92   1 2.92   1 2.92


  LATTYP: Found a base centered orthorhombic cell.
 ALAT       =     4.6043652789
 B/A-ratio  =     1.0408163265
 C/A-ratio  =     0.7215375318
  
  Lattice vectors:
  
 A1 = (   0.0000000000,   3.3222223590,  -0.0664444472)
 A2 = (   0.0000000000,  -0.0664444472,   3.3222223590)
 A3 = (   3.3222223590,   0.0000000000,   0.0000000000)


Analysis of symmetry for initial positions (statically):
=====================================================================
 Subroutine PRICEL returns following result:
 
  LATTYP: Found a face centered orthorhombic cell.
 ALAT       =     3.3222223590
 B/A-ratio  =     1.3859292911
 C/A-ratio  =     1.4424978336
  
  Lattice vectors:
  
 A1 = (   0.0000000000,   3.3222223590,  -0.0664444472)
 A2 = (  -1.6611111795,   1.6943334031,  -1.6943334031)
 A3 = (  -1.6611111795,   1.6278889559,   1.6278889559)
 
   2 primitive cells build up your supercell.
 

 Routine SETGRP: Setting up the symmetry group for a 
 base centered orthorhombic supercell.


 Subroutine GETGRP returns: Found  8 space group operations
 (whereof  8 operations were pure point group operations)
 out of a pool of  8 trial point group operations.


The static configuration has the point symmetry D_2h.


Analysis of symmetry for dynamics (positions and initial velocities):
=====================================================================
 Subroutine PRICEL returns following result:
 
  LATTYP: Found a face centered orthorhombic cell.
 ALAT       =     3.3222223590
 B/A-ratio  =     1.3859292911
 C/A-ratio  =     1.4424978336
  
  Lattice vectors:
  
 A1 = (   0.0000000000,   3.3222223590,  -0.0664444472)
 A2 = (  -1.6611111795,   1.6943334031,  -1.6943334031)
 A3 = (  -1.6611111795,   1.6278889559,   1.6278889559)
 
   2 primitive cells build up your supercell.
 

 Routine SETGRP: Setting up the symmetry group for a 
 base centered orthorhombic supercell.


 Subroutine GETGRP returns: Found  8 space group operations
 (whereof  8 operations were pure point group operations)
 out of a pool of  8 trial point group operations.


The dynamic configuration has the point symmetry D_2h.


Analysis of structural, dynamic, and magnetic symmetry:
=====================================================================
 Subroutine PRICEL returns following result:
 
  LATTYP: Found a face centered orthorhombic cell.
 ALAT       =     3.3222223590
 B/A-ratio  =     1.3859292911
 C/A-ratio  =     1.4424978336
  
  Lattice vectors:
  
 A1 = (   0.0000000000,   3.3222223590,  -0.0664444472)
 A2 = (  -1.6611111795,   1.6943334031,  -1.6943334031)
 A3 = (  -1.6611111795,   1.6278889559,   1.6278889559)
 
   2 primitive cells build up your supercell.
 

 Routine SETGRP: Setting up the symmetry group for a 
 base centered orthorhombic supercell.


 Subroutine GETGRP returns: Found  8 space group operations
 (whereof  8 operations were pure point group operations)
 out of a pool of  8 trial point group operations.


The overall configuration has the point symmetry D_2h.


 Subroutine INISYM returns: Found  8 space group operations
 (whereof  8 operations are pure point group operations),
 and found     2 'primitive' translations


----------------------------------------------------------------------------------------

                                     Primitive cell                                     

  volume of cell :      18.3266

  direct lattice vectors                    reciprocal lattice vectors
     0.000000000  3.322222359 -0.066444447     0.301003332  0.301123782  0.006022476
    -1.661111179  1.694333403 -1.694333403    -0.301003332 -0.006022476 -0.301123782
    -1.661111179  1.627888956  1.627888956    -0.301003332  0.006022476  0.301123782

  length of vectors
     3.322886737  2.915616866  2.838896838     0.425810765  0.425810765  0.425810765

  position of ions in fractional coordinates (direct lattice)
     0.000000000  0.000000000  0.000000000

  ion indices of the primitive-cell ions
   primitive index   ion index
                 1           1

----------------------------------------------------------------------------------------



 KPOINTS: pymatgen with grid density = 869 / numbe

Automatic generation of k-mesh.
 Grid dimensions read from file:
 generate k-points for:    7    7    7

 Generating k-lattice:

  Cartesian coordinates                     Fractional coordinates (reciprocal lattice)
     0.043000476 -0.000000000  0.000000000     0.142857143  0.000000000 -0.000000000
    -0.000000000  0.043017683  0.000860354     0.000000000  0.142857143 -0.000000000
    -0.000000000  0.000860354  0.043017683     0.000000000 -0.000000000  0.142857143

  Length of vectors
     0.043000476  0.043026286  0.043026286

  Shift w.r.t. Gamma in fractional coordinates (k-lattice)
     0.000000000  0.000000000  0.000000000

 TETIRR: Found    517 inequivalent tetrahedra from     2058
 
 Subroutine IBZKPT returns following result:
 ===========================================
 
 Found     64 irreducible k-points:
 
 Following reciprocal coordinates:
            Coordinates               Weight
  0.000000  0.000000  0.000000      1.000000
  0.142857  0.000000  0.000000      2.000000
  0.285714  0.000000  0.000000      2.000000
  0.428571  0.000000  0.000000      2.000000
  0.000000  0.142857  0.000000      4.000000
  0.142857  0.142857  0.000000      8.000000
  0.285714  0.142857  0.000000      8.000000
  0.428571  0.142857  0.000000      8.000000
  0.000000  0.285714  0.000000      4.000000
  0.142857  0.285714  0.000000      8.000000
  0.285714  0.285714  0.000000      8.000000
  0.428571  0.285714  0.000000      8.000000
  0.000000  0.428571  0.000000      4.000000
  0.142857  0.428571  0.000000      8.000000
  0.285714  0.428571  0.000000      8.000000
  0.428571  0.428571  0.000000      8.000000
  0.000000  0.142857  0.142857      2.000000
  0.142857  0.142857  0.142857      4.000000
  0.285714  0.142857  0.142857      4.000000
  0.428571  0.142857  0.142857      4.000000
  0.000000  0.285714  0.142857      4.000000
  0.142857  0.285714  0.142857      8.000000
  0.285714  0.285714  0.142857      8.000000
  0.428571  0.285714  0.142857      8.000000
  0.000000  0.428571  0.142857      4.000000
  0.142857  0.428571  0.142857      8.000000
  0.285714  0.428571  0.142857      8.000000
  0.428571  0.428571  0.142857      8.000000
  0.000000 -0.428571  0.142857      4.000000
  0.142857 -0.428571  0.142857      8.000000
  0.285714 -0.428571  0.142857      8.000000
  0.428571 -0.428571  0.142857      8.000000
  0.000000 -0.285714  0.142857      4.000000
  0.142857 -0.285714  0.142857      8.000000
  0.285714 -0.285714  0.142857      8.000000
  0.428571 -0.285714  0.142857      8.000000
  0.000000 -0.142857  0.142857      2.000000
  0.142857 -0.142857  0.142857      4.000000
  0.285714 -0.142857  0.142857      4.000000
  0.428571 -0.142857  0.142857      4.000000
  0.000000  0.285714  0.285714      2.000000
  0.142857  0.285714  0.285714      4.000000
  0.285714  0.285714  0.285714      4.000000
  0.428571  0.285714  0.285714      4.000000
  0.000000  0.428571  0.285714      4.000000
  0.142857  0.428571  0.285714      8.000000
  0.285714  0.428571  0.285714      8.000000
  0.428571  0.428571  0.285714      8.000000
  0.000000 -0.428571  0.285714      4.000000
  0.142857 -0.428571  0.285714      8.000000
  0.285714 -0.428571  0.285714      8.000000
  0.428571 -0.428571  0.285714      8.000000
  0.000000 -0.285714  0.285714      2.000000
  0.142857 -0.285714  0.285714      4.000000
  0.285714 -0.285714  0.285714      4.000000
  0.428571 -0.285714  0.285714      4.000000
  0.000000  0.428571  0.428571      2.000000
  0.142857  0.428571  0.428571      4.000000
  0.285714  0.428571  0.428571      4.000000
  0.428571  0.428571  0.428571      4.000000
  0.000000 -0.428571  0.428571      2.000000
  0.142857 -0.428571  0.428571      4.000000
  0.285714 -0.428571  0.428571      4.000000
  0.428571 -0.428571  0.428571      4.000000
 
 Following cartesian coordinates:
            Coordinates               Weight
  0.000000  0.000000  0.000000      1.000000
  0.043000  0.000000  0.000000      2.000000
  0.086001  0.000000  0.000000      2.000000
  0.129001  0.000000  0.000000      2.000000
  0.000000  0.043018  0.000860      4.000000
  0.043000  0.043018  0.000860      8.000000
  0.086001  0.043018  0.000860      8.000000
  0.129001  0.043018  0.000860      8.000000
  0.000000  0.086035  0.001721      4.000000
  0.043000  0.086035  0.001721      8.000000
  0.086001  0.086035  0.001721      8.000000
  0.129001  0.086035  0.001721      8.000000
  0.000000  0.129053  0.002581      4.000000
  0.043000  0.129053  0.002581      8.000000
  0.086001  0.129053  0.002581      8.000000
  0.129001  0.129053  0.002581      8.000000
  0.000000  0.043878  0.043878      2.000000
  0.043000  0.043878  0.043878      4.000000
  0.086001  0.043878  0.043878      4.000000
  0.129001  0.043878  0.043878      4.000000
  0.000000  0.086896  0.044738      4.000000
  0.043000  0.086896  0.044738      8.000000
  0.086001  0.086896  0.044738      8.000000
  0.129001  0.086896  0.044738      8.000000
  0.000000  0.129913  0.045599      4.000000
  0.043000  0.129913  0.045599      8.000000
  0.086001  0.129913  0.045599      8.000000
  0.129001  0.129913  0.045599      8.000000
  0.000000 -0.128193  0.040437      4.000000
  0.043000 -0.128193  0.040437      8.000000
  0.086001 -0.128193  0.040437      8.000000
  0.129001 -0.128193  0.040437      8.000000
  0.000000 -0.085175  0.041297      4.000000
  0.043000 -0.085175  0.041297      8.000000
  0.086001 -0.085175  0.041297      8.000000
  0.129001 -0.085175  0.041297      8.000000
  0.000000 -0.042157  0.042157      2.000000
  0.043000 -0.042157  0.042157      4.000000
  0.086001 -0.042157  0.042157      4.000000
  0.129001 -0.042157  0.042157      4.000000
  0.000000  0.087756  0.087756      2.000000
  0.043000  0.087756  0.087756      4.000000
  0.086001  0.087756  0.087756      4.000000
  0.129001  0.087756  0.087756      4.000000
  0.000000  0.130774  0.088616      4.000000
  0.043000  0.130774  0.088616      8.000000
  0.086001  0.130774  0.088616      8.000000
  0.129001  0.130774  0.088616      8.000000
  0.000000 -0.127332  0.083454      4.000000
  0.043000 -0.127332  0.083454      8.000000
  0.086001 -0.127332  0.083454      8.000000
  0.129001 -0.127332  0.083454      8.000000
  0.000000 -0.084315  0.084315      2.000000
  0.043000 -0.084315  0.084315      4.000000
  0.086001 -0.084315  0.084315      4.000000
  0.129001 -0.084315  0.084315      4.000000
  0.000000  0.131634  0.131634      2.000000
  0.043000  0.131634  0.131634      4.000000
  0.086001  0.131634  0.131634      4.000000
  0.129001  0.131634  0.131634      4.000000
  0.000000 -0.126472  0.126472      2.000000
  0.043000 -0.126472  0.126472      4.000000
  0.086001 -0.126472  0.126472      4.000000
  0.129001 -0.126472  0.126472      4.000000
 


--------------------------------------------------------------------------------------------------------




 Dimension of arrays:
   k-points           NKPTS =     64   k-points in BZ     NKDIM =     64   number of bands    NBANDS=     16
   number of dos      NEDOS =    301   number of ions     NIONS =      2
   non local maximal  LDIM  =      6   non local SUM 2l+1 LMDIM =     18
   total plane-waves  NPLWV =  21952
   max r-space proj   IRMAX =  10859   max aug-charges    IRDMAX=  37069
   dimension x,y,z NGX =    28 NGY =   28 NGZ =   28
   dimension x,y,z NGXF=    56 NGYF=   56 NGZF=   56
   support grid    NGXF=    56 NGYF=   56 NGZF=   56
   ions per type =               2
   NGX,Y,Z   is equivalent  to a cutoff of  14.01, 14.01, 14.01 a.u.
   NGXF,Y,Z  is equivalent  to a cutoff of  28.02, 28.02, 28.02 a.u.

 SYSTEM =  unknown system                          
 POSCAR =  Generated POSCAR                        

 Startparameter for this run:
   NWRITE =      2    write-flag & timer
   PREC   = accura    normal or accurate (medium, high low for compatibility)
   ISTART =      0    job   : 0-new  1-cont  2-samecut
   ICHARG =      2    charge: 1-file 2-atom 10-const
   ISPIN  =      2    spin polarized calculation?
   LNONCOLLINEAR =      F non collinear calculations
   LSORBIT =      F    spin-orbit coupling
   INIWAV =      1    electr: 0-lowe 1-rand  2-diag
   LASPH  =      T    aspherical Exc in radial PAW
 Electronic Relaxation 1
   ENCUT  =  520.0 eV  38.22 Ry    6.18 a.u.   6.18  6.18  6.18*2*pi/ulx,y,z
   ENINI  =  520.0     initial cutoff
   ENAUG  =  355.1 eV  augmentation charge cutoff
   NELM   =    100;   NELMIN=  2; NELMDL= -5     # of ELM steps 
   EDIFF  = 0.1E-03   stopping-criterion for ELM
   LREAL  =      T    real-space projection
   NLSPLINE    = F    spline interpolate recip. space projectors
   LCOMPAT=      F    compatible to vasp.4.4
   GGA_COMPAT  = T    GGA compatible to vasp.4.4-vasp.4.6
   LMAXPAW     = -100 max onsite density
   LMAXMIX     =    6 max onsite mixed and CHGCAR
   VOSKOWN=      0    Vosko Wilk Nusair interpolation
   ROPT   =   -0.00025
 Ionic relaxation
   EDIFFG = 0.1E-02   stopping-criterion for IOM
   NSW    =      0    number of steps for IOM
   NBLOCK =      1;   KBLOCK =      1    inner block; outer block 
   IBRION =     -1    ionic relax: 0-MD 1-quasi-New 2-CG
   NFREE  =      0    steps in history (QN), initial steepest desc. (CG)
   ISIF   =      2    stress and relaxation
   IWAVPR =     10    prediction:  0-non 1-charg 2-wave 3-comb
   ISYM   =      2    0-nonsym 1-usesym 2-fastsym
   LCORR  =      T    Harris-Foulkes like correction to forces

   POTIM  = 0.5000    time-step for ionic-motion
   TEIN   =    0.0    initial temperature
   TEBEG  =    0.0;   TEEND  =   0.0 temperature during run
   SMASS  =  -3.00    Nose mass-parameter (am)
   estimated Nose-frequenzy (Omega)   =  0.10E-29 period in steps = 0.13E+47 mass=  -0.252E-27a.u.
   SCALEE = 1.0000    scale energy and forces
   NPACO  =    256;   APACO  = 10.0  distance and # of slots for P.C.
   PSTRESS=    0.0 pullay stress

  Mass of Ions in am
   POMASS =  92.00
  Ionic Valenz
   ZVAL   =  11.00
  Atomic Wigner-Seitz radii
   RWIGS  =  -1.00
  virtual crystal weights 
   VCA    =   1.00
   NELECT =      22.0000    total number of electrons
   NUPDOWN=      -1.0000    fix difference up-down

 DOS related values:
   EMIN   =  10.00;   EMAX   =-10.00  energy-range for DOS
   EFERMI =   0.00;   METHOD = LEGACY      
   ISMEAR =    -5;   SIGMA  =   0.05  broadening in eV -4-tet -1-fermi 0-gaus

 Electronic relaxation 2 (details)
   IALGO  =     68    algorithm
   LDIAG  =      T    sub-space diagonalisation (order eigenvalues)
   LSUBROT=      F    optimize rotation matrix (better conditioning)
   TURBO    =      0    0=normal 1=particle mesh
   IRESTART =      0    0=no restart 2=restart with 2 vectors
   NREBOOT  =      0    no. of reboots
   NMIN     =      0    reboot dimension
   EREF     =   0.00    reference energy to select bands
   IMIX   =      4    mixing-type and parameters
     AMIX     =   0.40;   BMIX     =  1.00
     AMIX_MAG =   1.60;   BMIX_MAG =  1.00
     AMIN     =   0.10
     WC   =   100.;   INIMIX=   1;  MIXPRE=   1;  MAXMIX= -45

 Intra band minimization:
   WEIMIN = 0.0000     energy-eigenvalue tresh-hold
   EBREAK =  0.16E-05  absolut break condition
   DEPER  =   0.30     relativ break condition  

   TIME   =   0.40     timestep for ELM

  volume/ion in A,a.u.               =      18.33       123.67
  Fermi-wavevector in a.u.,A,eV,Ry     =   1.380951  2.609619 25.946661  1.907026
  Thomas-Fermi vector in A             =   2.505781

 Write flags
   LWAVE        =      F    write WAVECAR
   LDOWNSAMPLE  =      F    k-point downsampling of WAVECAR
   LCHARG       =      T    write CHGCAR
   LVTOT        =      F    write LOCPOT, total local potential
   LVHAR        =      F    write LOCPOT, Hartree potential only
   LELF         =      F    write electronic localiz. function (ELF)
   LORBIT       =     11    0 simple, 1 ext, 2 COOP (PROOUT), +10 PAW based schemes


 Dipole corrections
   LMONO  =      F    monopole corrections only (constant potential shift)
   LDIPOL =      F    correct potential (dipole corrections)
   IDIPOL =      0    1-x, 2-y, 3-z, 4-all directions 
   EPSILON=  1.0000000 bulk dielectric constant

 Exchange correlation treatment:
   GGA     =    --    GGA type
   LEXCH   =     8    internal setting for exchange type
   LIBXC   =     F    Libxc                    
   VOSKOWN =     0    Vosko Wilk Nusair interpolation
   LHFCALC =     F    Hartree Fock is set to
   LHFONE  =     F    Hartree Fock one center treatment
   AEXX    =    0.0000 exact exchange contribution

 Linear response parameters
   LEPSILON=     F    determine dielectric tensor
   LRPA    =     F    only Hartree local field effects (RPA)
   LNABLA  =     F    use nabla operator in PAW spheres
   LVEL    =     F    velocity operator in full k-point grid
   CSHIFT  =0.1000    complex shift for real part using Kramers Kronig
   OMEGAMAX=  -1.0    maximum frequency
   DEG_THRESHOLD= 0.2000000E-02 threshold for treating states as degnerate
   RTIME   =   -0.100 relaxation time in fs
  (WPLASMAI=    0.000 imaginary part of plasma frequency in eV, 0.658/RTIME)
   DFIELD  = 0.0000000 0.0000000 0.0000000 field for delta impulse in time

  Optional k-point grid parameters
   LKPOINTS_OPT  =     F    use optional k-point grid
   KPOINTS_OPT_MODE=     1    mode for optional k-point grid

 Orbital magnetization related:
   ORBITALMAG=     F  switch on orbital magnetization
   LCHIMAG   =     F  perturbation theory with respect to B field
   DQ        =  0.001000  dq finite difference perturbation B field
   LLRAUG    =     F  two centre corrections for induced B field
   LBONE     =     F  B-component reconstruction in AE one-centre
   LVGVCALC  =     T  calculate vGv susceptibility
   LVGVAPPL  =     F  apply vGv susceptibility instead of pGv for G=0

 Random number generation:
   RANDOM_GENERATOR = DEFAULT
   PCG_SEED         = not used


--------------------------------------------------------------------------------------------------------


 Static calculation
 charge density and potential will be updated during run
 spin polarized calculation
 RMM-DIIS sequential band-by-band and
  variant of blocked Davidson during initial phase
 perform sub-space diagonalisation
    before iterative eigenvector-optimisation
 modified Broyden-mixing scheme, WC =      100.0
 initial mixing is a Kerker type mixing with AMIX =  0.4000 and BMIX =      1.0000
 Hartree-type preconditioning will be used
 using additional bands            5
 real space projection scheme for non local part
 use partial core corrections
 calculate Harris-corrections to forces   (improved forces if not selfconsistent)
 use gradient corrections 
 use of overlap-Matrix (Vanderbilt PP)
 Fermi weights with tetrahedron method with Bloechl corrections


--------------------------------------------------------------------------------------------------------


  energy-cutoff  :      520.00
  volume of cell :       36.65
      direct lattice vectors                 reciprocal lattice vectors
     3.322222359  0.000000000  0.000000000     0.301003332 -0.000000000  0.000000000
     0.000000000  3.322222359 -0.066444447    -0.000000000  0.301123782  0.006022476
    -0.000000000 -0.066444447  3.322222359    -0.000000000  0.006022476  0.301123782

  length of vectors
     3.322222359  3.322886737  3.322886737     0.301003332  0.301184000  0.301184000



 k-points in units of 2pi/SCALE and weight: pymatgen with grid density = 869 / numbe
   0.00000000  0.00000000  0.00000000       0.003
   0.04300048  0.00000000  0.00000000       0.006
   0.08600095  0.00000000  0.00000000       0.006
   0.12900143  0.00000000  0.00000000       0.006
   0.00000000  0.04301768  0.00086035       0.012
   0.04300048  0.04301768  0.00086035       0.023
   0.08600095  0.04301768  0.00086035       0.023
   0.12900143  0.04301768  0.00086035       0.023
   0.00000000  0.08603537  0.00172071       0.012
   0.04300048  0.08603537  0.00172071       0.023
   0.08600095  0.08603537  0.00172071       0.023
   0.12900143  0.08603537  0.00172071       0.023
   0.00000000  0.12905305  0.00258106       0.012
   0.04300048  0.12905305  0.00258106       0.023
   0.08600095  0.12905305  0.00258106       0.023
   0.12900143  0.12905305  0.00258106       0.023
   0.00000000  0.04387804  0.04387804       0.006
   0.04300048  0.04387804  0.04387804       0.012
   0.08600095  0.04387804  0.04387804       0.012
   0.12900143  0.04387804  0.04387804       0.012
   0.00000000  0.08689572  0.04473839       0.012
   0.04300048  0.08689572  0.04473839       0.023
   0.08600095  0.08689572  0.04473839       0.023
   0.12900143  0.08689572  0.04473839       0.023
   0.00000000  0.12991340  0.04559874       0.012
   0.04300048  0.12991340  0.04559874       0.023
   0.08600095  0.12991340  0.04559874       0.023
   0.12900143  0.12991340  0.04559874       0.023
   0.00000000 -0.12819270  0.04043662       0.012
   0.04300048 -0.12819270  0.04043662       0.023
   0.08600095 -0.12819270  0.04043662       0.023
   0.12900143 -0.12819270  0.04043662       0.023
   0.00000000 -0.08517501  0.04129698       0.012
   0.04300048 -0.08517501  0.04129698       0.023
   0.08600095 -0.08517501  0.04129698       0.023
   0.12900143 -0.08517501  0.04129698       0.023
   0.00000000 -0.04215733  0.04215733       0.006
   0.04300048 -0.04215733  0.04215733       0.012
   0.08600095 -0.04215733  0.04215733       0.012
   0.12900143 -0.04215733  0.04215733       0.012
   0.00000000  0.08775607  0.08775607       0.006
   0.04300048  0.08775607  0.08775607       0.012
   0.08600095  0.08775607  0.08775607       0.012
   0.12900143  0.08775607  0.08775607       0.012
   0.00000000  0.13077376  0.08861643       0.012
   0.04300048  0.13077376  0.08861643       0.023
   0.08600095  0.13077376  0.08861643       0.023
   0.12900143  0.13077376  0.08861643       0.023
   0.00000000 -0.12733234  0.08345431       0.012
   0.04300048 -0.12733234  0.08345431       0.023
   0.08600095 -0.12733234  0.08345431       0.023
   0.12900143 -0.12733234  0.08345431       0.023
   0.00000000 -0.08431466  0.08431466       0.006
   0.04300048 -0.08431466  0.08431466       0.012
   0.08600095 -0.08431466  0.08431466       0.012
   0.12900143 -0.08431466  0.08431466       0.012
   0.00000000  0.13163411  0.13163411       0.006
   0.04300048  0.13163411  0.13163411       0.012
   0.08600095  0.13163411  0.13163411       0.012
   0.12900143  0.13163411  0.13163411       0.012
   0.00000000 -0.12647199  0.12647199       0.006
   0.04300048 -0.12647199  0.12647199       0.012
   0.08600095 -0.12647199  0.12647199       0.012
   0.12900143 -0.12647199  0.12647199       0.012

 k-points in reciprocal lattice and weights: pymatgen with grid density = 869 / numbe
   0.00000000  0.00000000  0.00000000       0.003
   0.14285714  0.00000000  0.00000000       0.006
   0.28571429  0.00000000  0.00000000       0.006
   0.42857143  0.00000000  0.00000000       0.006
   0.00000000  0.14285714  0.00000000       0.012
   0.14285714  0.14285714  0.00000000       0.023
   0.28571429  0.14285714  0.00000000       0.023
   0.42857143  0.14285714  0.00000000       0.023
   0.00000000  0.28571429  0.00000000       0.012
   0.14285714  0.28571429  0.00000000       0.023
   0.28571429  0.28571429  0.00000000       0.023
   0.42857143  0.28571429  0.00000000       0.023
   0.00000000  0.42857143  0.00000000       0.012
   0.14285714  0.42857143  0.00000000       0.023
   0.28571429  0.42857143  0.00000000       0.023
   0.42857143  0.42857143  0.00000000       0.023
   0.00000000  0.14285714  0.14285714       0.006
   0.14285714  0.14285714  0.14285714       0.012
   0.28571429  0.14285714  0.14285714       0.012
   0.42857143  0.14285714  0.14285714       0.012
   0.00000000  0.28571429  0.14285714       0.012
   0.14285714  0.28571429  0.14285714       0.023
   0.28571429  0.28571429  0.14285714       0.023
   0.42857143  0.28571429  0.14285714       0.023
   0.00000000  0.42857143  0.14285714       0.012
   0.14285714  0.42857143  0.14285714       0.023
   0.28571429  0.42857143  0.14285714       0.023
   0.42857143  0.42857143  0.14285714       0.023
   0.00000000 -0.42857143  0.14285714       0.012
   0.14285714 -0.42857143  0.14285714       0.023
   0.28571429 -0.42857143  0.14285714       0.023
   0.42857143 -0.42857143  0.14285714       0.023
   0.00000000 -0.28571429  0.14285714       0.012
   0.14285714 -0.28571429  0.14285714       0.023
   0.28571429 -0.28571429  0.14285714       0.023
   0.42857143 -0.28571429  0.14285714       0.023
   0.00000000 -0.14285714  0.14285714       0.006
   0.14285714 -0.14285714  0.14285714       0.012
   0.28571429 -0.14285714  0.14285714       0.012
   0.42857143 -0.14285714  0.14285714       0.012
   0.00000000  0.28571429  0.28571429       0.006
   0.14285714  0.28571429  0.28571429       0.012
   0.28571429  0.28571429  0.28571429       0.012
   0.42857143  0.28571429  0.28571429       0.012
   0.00000000  0.42857143  0.28571429       0.012
   0.14285714  0.42857143  0.28571429       0.023
   0.28571429  0.42857143  0.28571429       0.023
   0.42857143  0.42857143  0.28571429       0.023
   0.00000000 -0.42857143  0.28571429       0.012
   0.14285714 -0.42857143  0.28571429       0.023
   0.28571429 -0.42857143  0.28571429       0.023
   0.42857143 -0.42857143  0.28571429       0.023
   0.00000000 -0.28571429  0.28571429       0.006
   0.14285714 -0.28571429  0.28571429       0.012
   0.28571429 -0.28571429  0.28571429       0.012
   0.42857143 -0.28571429  0.28571429       0.012
   0.00000000  0.42857143  0.42857143       0.006
   0.14285714  0.42857143  0.42857143       0.012
   0.28571429  0.42857143  0.42857143       0.012
   0.42857143  0.42857143  0.42857143       0.012
   0.00000000 -0.42857143  0.42857143       0.006
   0.14285714 -0.42857143  0.42857143       0.012
   0.28571429 -0.42857143  0.42857143       0.012
   0.42857143 -0.42857143  0.42857143       0.012

 position of ions in fractional coordinates (direct lattice) 
   0.00000000  0.00000000  0.00000000
   0.50000000  0.50000000  0.50000000

 position of ions in cartesian coordinates  (Angst):
   0.00000000  0.00000000  0.00000000
   1.66111118  1.62788896  1.62788896



--------------------------------------------------------------------------------------------------------


 k-point   1 :   0.0000 0.0000 0.0000  plane waves:     989
 k-point   2 :   0.1429 0.0000 0.0000  plane waves:     985
 k-point   3 :   0.2857 0.0000 0.0000  plane waves:     988
 k-point   4 :   0.4286 0.0000 0.0000  plane waves:     982
 k-point   5 :   0.0000 0.1429 0.0000  plane waves:     983
 k-point   6 :   0.1429 0.1429 0.0000  plane waves:     983
 k-point   7 :   0.2857 0.1429 0.0000  plane waves:     987
 k-point   8 :   0.4286 0.1429 0.0000  plane waves:     985
 k-point   9 :   0.0000 0.2857 0.0000  plane waves:     990
 k-point  10 :   0.1429 0.2857 0.0000  plane waves:     986
 k-point  11 :   0.2857 0.2857 0.0000  plane waves:     987
 k-point  12 :   0.4286 0.2857 0.0000  plane waves:     986
 k-point  13 :   0.0000 0.4286 0.0000  plane waves:     984
 k-point  14 :   0.1429 0.4286 0.0000  plane waves:     988
 k-point  15 :   0.2857 0.4286 0.0000  plane waves:     983
 k-point  16 :   0.4286 0.4286 0.0000  plane waves:     991
 k-point  17 :   0.0000 0.1429 0.1429  plane waves:     981
 k-point  18 :   0.1429 0.1429 0.1429  plane waves:     977
 k-point  19 :   0.2857 0.1429 0.1429  plane waves:     981
 k-point  20 :   0.4286 0.1429 0.1429  plane waves:     978
 k-point  21 :   0.0000 0.2857 0.1429  plane waves:     981
 k-point  22 :   0.1429 0.2857 0.1429  plane waves:     980
 k-point  23 :   0.2857 0.2857 0.1429  plane waves:     983
 k-point  24 :   0.4286 0.2857 0.1429  plane waves:     981
 k-point  25 :   0.0000 0.4286 0.1429  plane waves:     982
 k-point  26 :   0.1429 0.4286 0.1429  plane waves:     980
 k-point  27 :   0.2857 0.4286 0.1429  plane waves:     987
 k-point  28 :   0.4286 0.4286 0.1429  plane waves:     996
 k-point  29 :   0.0000-0.4286 0.1429  plane waves:     989
 k-point  30 :   0.1429-0.4286 0.1429  plane waves:     988
 k-point  31 :   0.2857-0.4286 0.1429  plane waves:     987
 k-point  32 :   0.4286-0.4286 0.1429  plane waves:     992
 k-point  33 :   0.0000-0.2857 0.1429  plane waves:     984
 k-point  34 :   0.1429-0.2857 0.1429  plane waves:     991
 k-point  35 :   0.2857-0.2857 0.1429  plane waves:     991
 k-point  36 :   0.4286-0.2857 0.1429  plane waves:     986
 k-point  37 :   0.0000-0.1429 0.1429  plane waves:     985
 k-point  38 :   0.1429-0.1429 0.1429  plane waves:     982
 k-point  39 :   0.2857-0.1429 0.1429  plane waves:     995
 k-point  40 :   0.4286-0.1429 0.1429  plane waves:     990
 k-point  41 :   0.0000 0.2857 0.2857  plane waves:     980
 k-point  42 :   0.1429 0.2857 0.2857  plane waves:     982
 k-point  43 :   0.2857 0.2857 0.2857  plane waves:     985
 k-point  44 :   0.4286 0.2857 0.2857  plane waves:     984
 k-point  45 :   0.0000 0.4286 0.2857  plane waves:     983
 k-point  46 :   0.1429 0.4286 0.2857  plane waves:     991
 k-point  47 :   0.2857 0.4286 0.2857  plane waves:     988
 k-point  48 :   0.4286 0.4286 0.2857  plane waves:     995
 k-point  49 :   0.0000-0.4286 0.2857  plane waves:     992
 k-point  50 :   0.1429-0.4286 0.2857  plane waves:     993
 k-point  51 :   0.2857-0.4286 0.2857  plane waves:     986
 k-point  52 :   0.4286-0.4286 0.2857  plane waves:     987
 k-point  53 :   0.0000-0.2857 0.2857  plane waves:     989
 k-point  54 :   0.1429-0.2857 0.2857  plane waves:     996
 k-point  55 :   0.2857-0.2857 0.2857  plane waves:     994
 k-point  56 :   0.4286-0.2857 0.2857  plane waves:     984
 k-point  57 :   0.0000 0.4286 0.4286  plane waves:     976
 k-point  58 :   0.1429 0.4286 0.4286  plane waves:     985
 k-point  59 :   0.2857 0.4286 0.4286  plane waves:     992
 k-point  60 :   0.4286 0.4286 0.4286  plane waves:     998
 k-point  61 :   0.0000-0.4286 0.4286  plane waves:     989
 k-point  62 :   0.1429-0.4286 0.4286  plane waves:     984
 k-point  63 :   0.2857-0.4286 0.4286  plane waves:     992
 k-point  64 :   0.4286-0.4286 0.4286  plane waves:     988

 maximum and minimum number of plane-waves per node :       998      976

 maximum number of plane-waves:       998
 maximum index in each direction: 
   IXMAX=    6   IYMAX=    6   IZMAX=    6
   IXMIN=   -6   IYMIN=   -6   IZMIN=   -6


 serial   3D FFT for wavefunctions
 parallel 3D FFT for charge:
    minimum data exchange during FFTs selected (reduces bandwidth)


 total amount of memory used by VASP MPI-rank0    91171. kBytes
=======================================================================

   base      :      30000. kBytes
   nonlr-proj:       6259. kBytes
   fftplans  :       6192. kBytes
   grid      :      14776. kBytes
   one-center:         62. kBytes
   wavefun   :      33882. kBytes

     INWAV:  cpu time      0.0001: real time      0.0001
 Broyden mixing: mesh for mixing (old mesh)
   NGX = 13   NGY = 13   NGZ = 13
  (NGX  = 56   NGY  = 56   NGZ  = 56)
  gives a total of   2197 points

 initial charge density was supplied:
 charge density of overlapping atoms calculated
 number of electron      22.0000000 magnetization       1.2000000
 keeping initial charge density in first step


--------------------------------------------------------------------------------------------------------


 Maximum index for non-local projection operator         1138
 Maximum index for augmentation-charges        35777 (set IRDMAX)


--------------------------------------------------------------------------------------------------------


 First call to EWALD:  gamma=   0.534
 Maximum number of real-space cells 3x 3x 3
 Maximum number of reciprocal cells 3x 3x 3

    FEWALD:  cpu time      0.0046: real time      0.0046


--------------------------------------- Ionic step        1  -------------------------------------------




--------------------------------------- Iteration      1(   1)  ---------------------------------------


    POTLOK:  cpu time      1.5232: real time      0.1155
    SETDIJ:  cpu time      1.0442: real time      0.2567
     EDDAV:  cpu time    347.0269: real time     19.6384
 BZINTS: Fermi energy:   23.439013;   22.000000 electrons
         Band energy:-0.283324E+02;  BLOECHL correction:   -0.516802
       DOS:  cpu time      0.3164: real time      0.0269
    --------------------------------------------
      LOOP:  cpu time    349.9108: real time     20.0375

 eigenvalue-minimisations  :  4440
 total energy-change (2. order) : 0.2017858E+03  (-0.1166100E+04)
 number of electron      22.0000000 magnetization       1.2000000
 augmentation part       22.0000000 magnetization       1.2000000

 Free energy of the ion-electron system (eV)
  ---------------------------------------------------
  alpha Z        PSCENC =       247.02244180
  Ewald energy   TEWEN  =     -1908.57692376
  -Hartree energ DENC   =      -279.63742349
  -exchange      EXHF   =         0.00000000
  -V(xc)+E(xc)   XCENC  =        52.62034554
  PAW double counting   =      1671.32378679    -1639.41528309
  entropy T*S    EENTRO =         0.00000000
  eigenvalues    EBANDS =       -28.33241094
  atomic energy  EATOM  =      2086.78124273
  Solvation  Ediel_sol  =         0.00000000
  ---------------------------------------------------
  free energy    TOTEN  =       201.78577558 eV

  energy without entropy =      201.78577558  energy(sigma->0) =      201.78577558


--------------------------------------------------------------------------------------------------------




--------------------------------------- Iteration      1(   2)  ---------------------------------------


     EDDAV:  cpu time    321.7331: real time     18.4181
 BZINTS: Fermi energy:    7.026683;   22.000000 electrons
         Band energy:-0.240810E+03;  BLOECHL correction:   -0.303725
       DOS:  cpu time      0.2589: real time      0.0311
    --------------------------------------------
      LOOP:  cpu time    321.9921: real time     18.4492

 eigenvalue-minimisations  :  4368
 total energy-change (2. order) :-0.2124778E+03  (-0.2102411E+03)
 number of electron      22.0000000 magnetization       1.2000000
 augmentation part       22.0000000 magnetization       1.2000000

 Free energy of the ion-electron system (eV)
  ---------------------------------------------------
  alpha Z        PSCENC =       247.02244180
  Ewald energy   TEWEN  =     -1908.57692376
  -Hartree energ DENC   =      -279.63742349
  -exchange      EXHF   =         0.00000000
  -V(xc)+E(xc)   XCENC  =        52.62034554
  PAW double counting   =      1671.32378679    -1639.41528309
  entropy T*S    EENTRO =         0.00000000
  eigenvalues    EBANDS =      -240.81017299
  atomic energy  EATOM  =      2086.78124273
  Solvation  Ediel_sol  =         0.00000000
  ---------------------------------------------------
  free energy    TOTEN  =       -10.69198647 eV

  energy without entropy =      -10.69198647  energy(sigma->0) =      -10.69198647


--------------------------------------------------------------------------------------------------------




--------------------------------------- Iteration      1(   3)  ---------------------------------------


     EDDAV:  cpu time    447.8243: real time     25.7172
 BZINTS: Fermi energy:    5.465635;   22.000000 electrons
         Band energy:-0.251096E+03;  BLOECHL correction:   -0.207466
       DOS:  cpu time      0.2383: real time      0.0297
    --------------------------------------------
      LOOP:  cpu time    448.0626: real time     25.7469

 eigenvalue-minimisations  :  6800
 total energy-change (2. order) :-0.1028540E+02  (-0.9721185E+01)
 number of electron      22.0000000 magnetization       1.2000000
 augmentation part       22.0000000 magnetization       1.2000000

 Free energy of the ion-electron system (eV)
  ---------------------------------------------------
  alpha Z        PSCENC =       247.02244180
  Ewald energy   TEWEN  =     -1908.57692376
  -Hartree energ DENC   =      -279.63742349
  -exchange      EXHF   =         0.00000000
  -V(xc)+E(xc)   XCENC  =        52.62034554
  PAW double counting   =      1671.32378679    -1639.41528309
  entropy T*S    EENTRO =         0.00000000
  eigenvalues    EBANDS =      -251.09557501
  atomic energy  EATOM  =      2086.78124273
  Solvation  Ediel_sol  =         0.00000000
  ---------------------------------------------------
  free energy    TOTEN  =       -20.97738849 eV

  energy without entropy =      -20.97738849  energy(sigma->0) =      -20.97738849


--------------------------------------------------------------------------------------------------------




--------------------------------------- Iteration      1(   4)  ---------------------------------------


     EDDAV:  cpu time    376.5791: real time     21.3755
 BZINTS: Fermi energy:    5.444507;   22.000000 electrons
         Band energy:-0.251255E+03;  BLOECHL correction:   -0.204893
       DOS:  cpu time      0.2679: real time      0.0320
    --------------------------------------------
      LOOP:  cpu time    376.8470: real time     21.4075

 eigenvalue-minimisations  :  5088
 total energy-change (2. order) :-0.1595228E+00  (-0.1589111E+00)
 number of electron      22.0000000 magnetization       1.2000000
 augmentation part       22.0000000 magnetization       1.2000000

 Free energy of the ion-electron system (eV)
  ---------------------------------------------------
  alpha Z        PSCENC =       247.02244180
  Ewald energy   TEWEN  =     -1908.57692376
  -Hartree energ DENC   =      -279.63742349
  -exchange      EXHF   =         0.00000000
  -V(xc)+E(xc)   XCENC  =        52.62034554
  PAW double counting   =      1671.32378679    -1639.41528309
  entropy T*S    EENTRO =         0.00000000
  eigenvalues    EBANDS =      -251.25509782
  atomic energy  EATOM  =      2086.78124273
  Solvation  Ediel_sol  =         0.00000000
  ---------------------------------------------------
  free energy    TOTEN  =       -21.13691130 eV

  energy without entropy =      -21.13691130  energy(sigma->0) =      -21.13691130


--------------------------------------------------------------------------------------------------------




--------------------------------------- Iteration      1(   5)  ---------------------------------------


     EDDAV:  cpu time    448.8087: real time     25.6371
 BZINTS: Fermi energy:    5.443270;   22.000000 electrons
         Band energy:-0.251259E+03;  BLOECHL correction:   -0.204567
       DOS:  cpu time      0.2616: real time      0.0302
    CHARGE:  cpu time     30.9838: real time      1.7579
    MIXING:  cpu time      0.0253: real time      0.0015
    --------------------------------------------
      LOOP:  cpu time    480.0795: real time     27.4267

 eigenvalue-minimisations  :  6480
 total energy-change (2. order) :-0.4396202E-02  (-0.4333827E-02)
 number of electron      22.0000001 magnetization       0.3465587
 augmentation part        7.7592507 magnetization      -0.0578014

 Broyden mixing:
  rms(total) = 0.24034E+01    rms(broyden)= 0.24034E+01
  rms(prec ) = 0.28254E+01
  weight for this iteration     100.00

 Free energy of the ion-electron system (eV)
  ---------------------------------------------------
  alpha Z        PSCENC =       247.02244180
  Ewald energy   TEWEN  =     -1908.57692376
  -Hartree energ DENC   =      -279.63742349
  -exchange      EXHF   =         0.00000000
  -V(xc)+E(xc)   XCENC  =        52.62034554
  PAW double counting   =      1671.32378679    -1639.41528309
  entropy T*S    EENTRO =         0.00000000
  eigenvalues    EBANDS =      -251.25949402
  atomic energy  EATOM  =      2086.78124273
  Solvation  Ediel_sol  =         0.00000000
  ---------------------------------------------------
  free energy    TOTEN  =       -21.14130750 eV

  energy without entropy =      -21.14130750  energy(sigma->0) =      -21.14130750


--------------------------------------------------------------------------------------------------------




--------------------------------------- Iteration      1(   6)  ---------------------------------------


    POTLOK:  cpu time      1.8352: real time      0.1430
    SETDIJ:  cpu time      1.1459: real time      0.2585
    EDDIAG:  cpu time     93.9164: real time      5.1769
  RMM-DIIS:  cpu time    234.3752: real time     12.9419
    ORTHCH:  cpu time      1.3349: real time      0.0813
 BZINTS: Fermi energy:    5.096557;   22.000000 electrons
         Band energy:-0.265244E+03;  BLOECHL correction:   -0.206602
       DOS:  cpu time      0.3104: real time      0.0323
    CHARGE:  cpu time     28.4425: real time      1.6156
    MIXING:  cpu time      0.0013: real time      0.0013
    --------------------------------------------
      LOOP:  cpu time    361.3618: real time     20.2508

 eigenvalue-minimisations  :  4474
 total energy-change (2. order) : 0.7982202E+00  (-0.7954387E-01)
 number of electron      22.0000001 magnetization       0.1609980
 augmentation part        7.8860544 magnetization      -0.0533968

 Broyden mixing:
  rms(total) = 0.91607E+00    rms(broyden)= 0.91607E+00
  rms(prec ) = 0.11963E+01
  weight for this iteration     100.00

 eigenvalues of (default mixing * dielectric matrix)
  average eigenvalue GAMMA=   1.5024
  1.5024

 Free energy of the ion-electron system (eV)
  ---------------------------------------------------
  alpha Z        PSCENC =       247.02244180
  Ewald energy   TEWEN  =     -1908.57692376
  -Hartree energ DENC   =      -260.36123807
  -exchange      EXHF   =         0.00000000
  -V(xc)+E(xc)   XCENC  =        51.60917539
  PAW double counting   =      2187.94052676    -2159.51407597
  entropy T*S    EENTRO =         0.00000000
  eigenvalues    EBANDS =      -265.24423619
  atomic energy  EATOM  =      2086.78124273
  Solvation  Ediel_sol  =         0.00000000
  ---------------------------------------------------
  free energy    TOTEN  =       -20.34308731 eV

  energy without entropy =      -20.34308731  energy(sigma->0) =      -20.34308731


--------------------------------------------------------------------------------------------------------




--------------------------------------- Iteration      1(   7)  ---------------------------------------


    POTLOK:  cpu time      1.2971: real time      0.1085
    SETDIJ:  cpu time      1.0940: real time      0.2534
    EDDIAG:  cpu time     77.8738: real time      4.3790
  RMM-DIIS:  cpu time    289.6571: real time     15.9409
    ORTHCH:  cpu time      1.4459: real time      0.0846
 BZINTS: Fermi energy:    4.806198;   22.000000 electrons
         Band energy:-0.276972E+03;  BLOECHL correction:   -0.203212
       DOS:  cpu time      0.2530: real time      0.0329
    CHARGE:  cpu time     25.1421: real time      1.4530
    MIXING:  cpu time      0.0014: real time      0.0014
    --------------------------------------------
      LOOP:  cpu time    396.7645: real time     22.2538

 eigenvalue-minimisations  :  5566
 total energy-change (2. order) : 0.1478042E+00  (-0.2131916E+00)
 number of electron      22.0000001 magnetization       0.0387616
 augmentation part        8.0578973 magnetization       0.0362739

 Broyden mixing:
  rms(total) = 0.24582E+00    rms(broyden)= 0.24582E+00
  rms(prec ) = 0.26489E+00
  weight for this iteration     100.00

 eigenvalues of (default mixing * dielectric matrix)
  average eigenvalue GAMMA=   1.0769
  1.6189  0.5349

 Free energy of the ion-electron system (eV)
  ---------------------------------------------------
  alpha Z        PSCENC =       247.02244180
  Ewald energy   TEWEN  =     -1908.57692376
  -Hartree energ DENC   =      -244.69830355
  -exchange      EXHF   =         0.00000000
  -V(xc)+E(xc)   XCENC  =        50.83087022
  PAW double counting   =      2620.95633371    -2595.53882566
  entropy T*S    EENTRO =         0.00000000
  eigenvalues    EBANDS =      -276.97211864
  atomic energy  EATOM  =      2086.78124273
  Solvation  Ediel_sol  =         0.00000000
  ---------------------------------------------------
  free energy    TOTEN  =       -20.19528316 eV

  energy without entropy =      -20.19528316  energy(sigma->0) =      -20.19528316


--------------------------------------------------------------------------------------------------------




--------------------------------------- Iteration      1(   8)  ---------------------------------------


    POTLOK:  cpu time      1.7449: real time      0.1384
    SETDIJ:  cpu time      1.1407: real time      0.2537
    EDDIAG:  cpu time     72.9066: real time      4.1911
  RMM-DIIS:  cpu time    302.3386: real time     16.7748
    ORTHCH:  cpu time      1.2707: real time      0.0799
 BZINTS: Fermi energy:    4.817404;   22.000000 electrons
         Band energy:-0.276432E+03;  BLOECHL correction:   -0.203398
       DOS:  cpu time      0.3040: real time      0.0311
    CHARGE:  cpu time     27.6357: real time      1.5632
    MIXING:  cpu time      0.0014: real time      0.0014
    --------------------------------------------
      LOOP:  cpu time    407.3425: real time     23.0335

 eigenvalue-minimisations  :  5999
 total energy-change (2. order) :-0.1127392E-01  (-0.1057239E-01)
 number of electron      22.0000001 magnetization       0.0244301
 augmentation part        8.0645945 magnetization       0.0162976

 Broyden mixing:
  rms(total) = 0.11924E+00    rms(broyden)= 0.11924E+00
  rms(prec ) = 0.14789E+00
  weight for this iteration     100.00

 eigenvalues of (default mixing * dielectric matrix)
  average eigenvalue GAMMA=   1.0702
  1.8395  0.6856  0.6856

 Free energy of the ion-electron system (eV)
  ---------------------------------------------------
  alpha Z        PSCENC =       247.02244180
  Ewald energy   TEWEN  =     -1908.57692376
  -Hartree energ DENC   =      -245.04326013
  -exchange      EXHF   =         0.00000000
  -V(xc)+E(xc)   XCENC  =        50.84113183
  PAW double counting   =      2669.35925078    -2644.15868930
  entropy T*S    EENTRO =         0.00000000
  eigenvalues    EBANDS =      -276.43175103
  atomic energy  EATOM  =      2086.78124273
  Solvation  Ediel_sol  =         0.00000000
  ---------------------------------------------------
  free energy    TOTEN  =       -20.20655708 eV

  energy without entropy =      -20.20655708  energy(sigma->0) =      -20.20655708


--------------------------------------------------------------------------------------------------------




--------------------------------------- Iteration      1(   9)  ---------------------------------------


    POTLOK:  cpu time      1.9870: real time      0.1403
    SETDIJ:  cpu time      1.0616: real time      0.2485
    EDDIAG:  cpu time     67.0409: real time      3.9493
  RMM-DIIS:  cpu time    310.2242: real time     17.1217
    ORTHCH:  cpu time      1.0926: real time      0.0722
 BZINTS: Fermi energy:    4.826399;   22.000000 electrons
         Band energy:-0.276013E+03;  BLOECHL correction:   -0.203549
       DOS:  cpu time      0.2831: real time      0.0313
    CHARGE:  cpu time     23.0802: real time      1.3652
    MIXING:  cpu time      0.0016: real time      0.0016
    --------------------------------------------
      LOOP:  cpu time    404.7712: real time     22.9302

 eigenvalue-minimisations  :  5964
 total energy-change (2. order) : 0.7601995E-04  (-0.2418903E-02)
 number of electron      22.0000001 magnetization       0.0190054
 augmentation part        8.0646631 magnetization       0.0158352

 Broyden mixing:
  rms(total) = 0.97035E-01    rms(broyden)= 0.97035E-01
  rms(prec ) = 0.12377E+00
  weight for this iteration     100.00

 eigenvalues of (default mixing * dielectric matrix)
  average eigenvalue GAMMA=   1.1006
  2.1066  0.8463  0.8463  0.6033

 Free energy of the ion-electron system (eV)
  ---------------------------------------------------
  alpha Z        PSCENC =       247.02244180
  Ewald energy   TEWEN  =     -1908.57692376
  -Hartree energ DENC   =      -245.40230886
  -exchange      EXHF   =         0.00000000
  -V(xc)+E(xc)   XCENC  =        50.85781423
  PAW double counting   =      2710.17687702    -2685.05232548
  entropy T*S    EENTRO =         0.00000000
  eigenvalues    EBANDS =      -276.01329875
  atomic energy  EATOM  =      2086.78124273
  Solvation  Ediel_sol  =         0.00000000
  ---------------------------------------------------
  free energy    TOTEN  =       -20.20648106 eV

  energy without entropy =      -20.20648106  energy(sigma->0) =      -20.20648106


--------------------------------------------------------------------------------------------------------




--------------------------------------- Iteration      1(  10)  ---------------------------------------


    POTLOK:  cpu time      1.4352: real time      0.1267
    SETDIJ:  cpu time      1.2321: real time      0.2505
    EDDIAG:  cpu time     69.3509: real time      4.0163
  RMM-DIIS:  cpu time    239.9667: real time     13.3851
    ORTHCH:  cpu time      1.4628: real time      0.0894
 BZINTS: Fermi energy:    4.848574;   22.000000 electrons
         Band energy:-0.275033E+03;  BLOECHL correction:   -0.203939
       DOS:  cpu time      0.2377: real time      0.0282
    CHARGE:  cpu time     21.7471: real time      1.2797
    MIXING:  cpu time      0.1124: real time      0.0020
    --------------------------------------------
      LOOP:  cpu time    335.5450: real time     19.1779

 eigenvalue-minimisations  :  4743
 total energy-change (2. order) : 0.3352697E-02  (-0.6061171E-03)
 number of electron      22.0000001 magnetization      -0.0056225
 augmentation part        8.0562126 magnetization      -0.0024864

 Broyden mixing:
  rms(total) = 0.66685E-01    rms(broyden)= 0.66685E-01
  rms(prec ) = 0.73916E-01
  weight for this iteration     100.00

 eigenvalues of (default mixing * dielectric matrix)
  average eigenvalue GAMMA=   1.3559
  2.6532  1.3688  1.3688  0.6286  0.7600

 Free energy of the ion-electron system (eV)
  ---------------------------------------------------
  alpha Z        PSCENC =       247.02244180
  Ewald energy   TEWEN  =     -1908.57692376
  -Hartree energ DENC   =      -246.36235935
  -exchange      EXHF   =         0.00000000
  -V(xc)+E(xc)   XCENC  =        50.90362444
  PAW double counting   =      2789.80124919    -2764.73952891
  entropy T*S    EENTRO =         0.00000000
  eigenvalues    EBANDS =      -275.03287451
  atomic energy  EATOM  =      2086.78124273
  Solvation  Ediel_sol  =         0.00000000
  ---------------------------------------------------
  free energy    TOTEN  =       -20.20312837 eV

  energy without entropy =      -20.20312837  energy(sigma->0) =      -20.20312837


--------------------------------------------------------------------------------------------------------




--------------------------------------- Iteration      1(  11)  ---------------------------------------


    POTLOK:  cpu time      1.5556: real time      0.1245
    SETDIJ:  cpu time      1.0067: real time      0.2410
    EDDIAG:  cpu time     74.5260: real time      4.2584
  RMM-DIIS:  cpu time    287.5486: real time     15.7816
    ORTHCH:  cpu time      1.6855: real time      0.1032
 BZINTS: Fermi energy:    4.859969;   22.000000 electrons
         Band energy:-0.274522E+03;  BLOECHL correction:   -0.204119
       DOS:  cpu time      0.3153: real time      0.0314
    CHARGE:  cpu time     23.5421: real time      1.3887
    MIXING:  cpu time      0.0942: real time      0.0015
    --------------------------------------------
      LOOP:  cpu time    390.2742: real time     21.9303

 eigenvalue-minimisations  :  5429
 total energy-change (2. order) :-0.1790289E-03  (-0.5378082E-03)
 number of electron      22.0000001 magnetization      -0.0041333
 augmentation part        8.0496700 magnetization      -0.0004106

 Broyden mixing:
  rms(total) = 0.44830E-02    rms(broyden)= 0.44830E-02
  rms(prec ) = 0.58293E-02
  weight for this iteration     100.00

 eigenvalues of (default mixing * dielectric matrix)
  average eigenvalue GAMMA=   1.2652
  2.5927  1.4460  1.4460  0.7819  0.6178  0.7070

 Free energy of the ion-electron system (eV)
  ---------------------------------------------------
  alpha Z        PSCENC =       247.02244180
  Ewald energy   TEWEN  =     -1908.57692376
  -Hartree energ DENC   =      -246.82455032
  -exchange      EXHF   =         0.00000000
  -V(xc)+E(xc)   XCENC  =        50.92542958
  PAW double counting   =      2864.99252371    -2840.00164975
  entropy T*S    EENTRO =         0.00000000
  eigenvalues    EBANDS =      -274.52182139
  atomic energy  EATOM  =      2086.78124273
  Solvation  Ediel_sol  =         0.00000000
  ---------------------------------------------------
  free energy    TOTEN  =       -20.20330740 eV

  energy without entropy =      -20.20330740  energy(sigma->0) =      -20.20330740


--------------------------------------------------------------------------------------------------------




--------------------------------------- Iteration      1(  12)  ---------------------------------------


    POTLOK:  cpu time      1.6294: real time      0.1340
    SETDIJ:  cpu time      1.1857: real time      0.2623
    EDDIAG:  cpu time     72.6205: real time      4.1594
  RMM-DIIS:  cpu time    220.2903: real time     12.2112
    ORTHCH:  cpu time      1.2255: real time      0.0757
 BZINTS: Fermi energy:    4.859949;   22.000000 electrons
         Band energy:-0.274522E+03;  BLOECHL correction:   -0.204114
       DOS:  cpu time      0.2537: real time      0.0274
    --------------------------------------------
      LOOP:  cpu time    297.2050: real time     16.8700

 eigenvalue-minimisations  :  3987
 total energy-change (2. order) :-0.7473135E-04  (-0.5866647E-04)
 number of electron      22.0000001 magnetization      -0.0041333
 augmentation part        8.0496700 magnetization      -0.0004106

 Free energy of the ion-electron system (eV)
  ---------------------------------------------------
  alpha Z        PSCENC =       247.02244180
  Ewald energy   TEWEN  =     -1908.57692376
  -Hartree energ DENC   =      -246.83910203
  -exchange      EXHF   =         0.00000000
  -V(xc)+E(xc)   XCENC  =        50.92613883
  PAW double counting   =      2864.04860201    -2839.04398970
  entropy T*S    EENTRO =         0.00000000
  eigenvalues    EBANDS =      -274.52179201
  atomic energy  EATOM  =      2086.78124273
  Solvation  Ediel_sol  =         0.00000000
  ---------------------------------------------------
  free energy    TOTEN  =       -20.20338213 eV

  energy without entropy =      -20.20338213  energy(sigma->0) =      -20.20338213


--------------------------------------------------------------------------------------------------------




 average (electrostatic) potential at core
  the test charge radii are     1.2125
  (the norm of the test charge is              1.0000)
       1 -35.1668       2 -35.1668



 E-fermi :   4.8599     XC(G=0): -12.3438     alpha+bet :-12.7651

 Fermi energy:         4.8599488464

 spin component 1

 k-point     1 :       0.0000    0.0000    0.0000
  band No.  band energies     occupation 
      1     -25.8516      1.00000
      2     -25.7863      1.00000
      3     -25.7194      1.00000
      4     -24.9693      1.00000
      5     -24.8981      1.00000
      6     -24.8392      1.00000
      7      -1.0594      1.00000
      8       1.2000      1.00000
      9       1.2145      1.00000
     10       4.9126      0.44475
     11       5.1574     -0.02448
     12       5.4878      0.00000
     13       8.0556      0.00000
     14       8.1049      0.00000
     15       9.9665      0.00000
     16      10.2982      0.00000

 k-point     2 :       0.1429    0.0000    0.0000
  band No.  band energies     occupation 
      1     -25.8010      1.00000
      2     -25.7891      1.00000
      3     -25.6803      1.00000
      4     -25.0040      1.00000
      5     -24.9933      1.00000
      6     -24.8885      1.00000
      7      -0.6499      1.00000
      8       1.4416      1.00000
      9       1.5398      1.00000
     10       4.9195      0.64436
     11       5.3534     -0.07075
     12       5.4178      0.00000
     13       7.4858      0.00000
     14       8.3042      0.00000
     15       8.8946      0.00000
     16       9.4317      0.00000

 k-point     3 :       0.2857    0.0000    0.0000
  band No.  band energies     occupation 
      1     -25.7716      1.00000
      2     -25.6593      1.00000
      3     -25.5715      1.00000
      4     -25.2275      1.00000
      5     -25.1029      1.00000
      6     -25.0273      1.00000
      7       0.4434      1.00000
      8       2.1121      1.00000
      9       2.2950      1.00000
     10       5.0379      0.71768
     11       5.3500     -0.15601
     12       5.9247      0.00000
     13       6.1386      0.00000
     14       7.3512      0.00000
     15       7.6867      0.00000
     16       8.8006      0.00000

 k-point     4 :       0.4286    0.0000    0.0000
  band No.  band energies     occupation 
      1     -25.6810      1.00000
      2     -25.4886      1.00000
      3     -25.4550      1.00000
      4     -25.4169      1.00000
      5     -25.2495      1.00000
      6     -25.2293      1.00000
      7       1.7972      1.00000
      8       2.6158      1.00000
      9       3.1885      1.00000
     10       4.5884      0.99697
     11       5.4591     -0.19046
     12       5.5484      0.00000
     13       6.1969      0.00000
     14       6.3270      0.00000
     15       6.8138      0.00000
     16       7.9034      0.00000

 k-point     5 :       0.0000    0.1429    0.0000
  band No.  band energies     occupation 
      1     -25.8284      1.00000
      2     -25.7410      1.00000
      3     -25.7008      1.00000
      4     -25.0370      1.00000
      5     -24.9405      1.00000
      6     -24.9082      1.00000
      7      -0.6494      1.00000
      8       1.4312      1.00000
      9       1.5485      1.00000
     10       4.9989      0.36712
     11       5.1304      0.03513
     12       5.5610      0.00000
     13       7.5215      0.00000
     14       8.2658      0.00000
     15       9.0792      0.00000
     16       9.1524      0.00000

 k-point     6 :       0.1429    0.1429    0.0000
  band No.  band energies     occupation 
      1     -25.8772      1.00000
      2     -25.6975      1.00000
      3     -25.6186      1.00000
      4     -25.1652      1.00000
      5     -25.0021      1.00000
      6     -24.8800      1.00000
      7      -0.2786      1.00000
      8       1.6772      1.00000
      9       1.8447      1.00000
     10       4.6799      0.99256
     11       5.0642      0.12569
     12       5.9991     -0.00652
     13       7.5816      0.00000
     14       7.8446      0.00000
     15       8.1138      0.00000
     16       8.2734      0.00000

 k-point     7 :       0.2857    0.1429    0.0000
  band No.  band energies     occupation 
      1     -25.9103      1.00000
      2     -25.5809      1.00000
      3     -25.4634      1.00000
      4     -25.4266      1.00000
      5     -25.1023      1.00000
      6     -24.9446      1.00000
      7       0.6791      1.00000
      8       2.1941      1.00000
      9       2.6360      1.00000
     10       4.4783      1.01298
     11       4.8381      0.72649
     12       6.3954     -0.05199
     13       6.7887      0.00000
     14       6.9168      0.00000
     15       6.9742      0.00000
     16       8.5989      0.00000

 k-point     8 :       0.4286    0.1429    0.0000
  band No.  band energies     occupation 
      1     -25.8548      1.00000
      2     -25.6844      1.00000
      3     -25.4188      1.00000
      4     -25.2779      1.00000
      5     -25.2482      1.00000
      6     -25.0915      1.00000
      7       1.7939      1.00000
      8       2.4731      1.00000
      9       3.4439      1.00000
     10       4.3418      1.00219
     11       4.6484      0.92809
     12       5.2874     -0.03628
     13       6.3987      0.00000
     14       6.4728      0.00000
     15       7.8801      0.00000
     16       9.0172      0.00000

 k-point     9 :       0.0000    0.2857    0.0000
  band No.  band energies     occupation 
      1     -25.7815      1.00000
      2     -25.6149      1.00000
      3     -25.6058      1.00000
      4     -25.2415      1.00000
      5     -25.0602      1.00000
      6     -25.0556      1.00000
      7       0.4451      1.00000
      8       2.1038      1.00000
      9       2.2963      1.00000
     10       5.1500      0.45309
     11       5.1528      0.05698
     12       5.9903      0.00000
     13       6.1836      0.00000
     14       7.4997      0.00000
     15       7.5227      0.00000
     16       8.7651      0.00000

 k-point    10 :       0.1429    0.2857    0.0000
  band No.  band energies     occupation 
      1     -25.9105      1.00000
      2     -25.5789      1.00000
      3     -25.4651      1.00000
      4     -25.4280      1.00000
      5     -25.1020      1.00000
      6     -24.9432      1.00000
      7       0.6801      1.00000
      8       2.1919      1.00000
      9       2.6325      1.00000
     10       4.4808      1.01847
     11       4.8246      0.75288
     12       6.4169     -0.04612
     13       6.8296      0.00000
     14       6.9054      0.00000
     15       6.9555      0.00000
     16       8.5766      0.00000

 k-point    11 :       0.2857    0.2857    0.0000
  band No.  band energies     occupation 
      1     -26.0404      1.00000
      2     -25.7143      1.00000
      3     -25.4970      1.00000
      4     -25.2641      1.00000
      5     -25.1671      1.00000
      6     -24.8961      1.00000
      7       1.1393      1.00000
      8       2.1336      1.00000
      9       3.6315      1.00000
     10       3.8770      1.00000
     11       4.8537      0.86461
     12       5.0720      0.07262
     13       6.5034      0.00000
     14       7.6929      0.00000
     15       8.0622      0.00000
     16       8.3651      0.00000

 k-point    12 :       0.4286    0.2857    0.0000
  band No.  band energies     occupation 
      1     -26.0648      1.00000
      2     -25.9502      1.00000
      3     -25.3839      1.00000
      4     -25.2660      1.00000
      5     -25.0830      1.00000
      6     -24.9502      1.00000
      7       1.5060      1.00000
      8       1.8503      1.00000
      9       3.7294      1.00000
     10       4.1150      1.00000
     11       4.6726      0.78503
     12       5.1420     -0.00330
     13       7.0034      0.00000
     14       7.5753      0.00000
     15       8.9206      0.00000
     16       9.3786      0.00000

 k-point    13 :       0.0000    0.4286    0.0000
  band No.  band energies     occupation 
      1     -25.6831      1.00000
      2     -25.4925      1.00000
      3     -25.4353      1.00000
      4     -25.4340      1.00000
      5     -25.2385      1.00000
      6     -25.2359      1.00000
      7       1.7982      1.00000
      8       2.6123      1.00000
      9       3.1817      1.00000
     10       4.5674      0.99554
     11       5.4980     -0.23372
     12       5.5263     -0.00399
     13       6.2582      0.00000
     14       6.2730      0.00000
     15       6.8302      0.00000
     16       7.9213      0.00000

 k-point    14 :       0.1429    0.4286    0.0000
  band No.  band energies     occupation 
      1     -25.8542      1.00000
      2     -25.6843      1.00000
      3     -25.4226      1.00000
      4     -25.2745      1.00000
      5     -25.2525      1.00000
      6     -25.0869      1.00000
      7       1.7934      1.00000
      8       2.4681      1.00000
      9       3.4434      1.00000
     10       4.3419      1.00450
     11       4.6452      0.92400
     12       5.2880     -0.03159
     13       6.4036      0.00000
     14       6.4771      0.00000
     15       7.8884      0.00000
     16       9.0282      0.00000

 k-point    15 :       0.2857    0.4286    0.0000
  band No.  band energies     occupation 
      1     -26.0643      1.00000
      2     -25.9498      1.00000
      3     -25.3859      1.00000
      4     -25.2681      1.00000
      5     -25.0813      1.00000
      6     -24.9484      1.00000
      7       1.5051      1.00000
      8       1.8486      1.00000
      9       3.7300      1.00000
     10       4.1247      1.00000
     11       4.6607      0.78750
     12       5.1445      0.00118
     13       7.0095      0.00000
     14       7.5731      0.00000
     15       8.9061      0.00000
     16       9.3964      0.00000

 k-point    16 :       0.4286    0.4286    0.0000
  band No.  band energies     occupation 
      1     -26.1728      1.00000
      2     -26.1326      1.00000
      3     -25.3394      1.00000
      4     -25.2973      1.00000
      5     -24.9500      1.00000
      6     -24.9020      1.00000
      7       1.2431      1.00000
      8       1.3533      1.00000
      9       3.2951      1.00000
     10       3.4285      1.00000
     11       6.1744     -0.16162
     12       6.5267     -0.07268
     13       7.7011      0.00000
     14       8.1116      0.00000
     15       8.6606      0.00000
     16       9.6553      0.00000

 k-point    17 :       0.0000    0.1429    0.1429
  band No.  band energies     occupation 
      1     -25.8048      1.00000
      2     -25.6880      1.00000
      3     -25.6764      1.00000
      4     -25.1188      1.00000
      5     -24.9909      1.00000
      6     -24.9679      1.00000
      7      -0.2485      1.00000
      8       1.7218      1.00000
      9       1.8455      1.00000
     10       4.9817      0.47230
     11       5.1592     -0.04366
     12       5.7624      0.00000
     13       7.3793      0.00000
     14       8.0191      0.00000
     15       8.0826      0.00000
     16       8.2614      0.00000

 k-point    18 :       0.1429    0.1429    0.1429
  band No.  band energies     occupation 
      1     -25.8422      1.00000
      2     -25.7616      1.00000
      3     -25.4998      1.00000
      4     -25.2922      1.00000
      5     -25.0072      1.00000
      6     -24.9215      1.00000
      7       0.1027      1.00000
      8       2.0155      1.00000
      9       2.0720      1.00000
     10       4.6069      1.00509
     11       4.7787      0.67644
     12       6.5221     -0.04248
     13       6.5246      0.00000
     14       7.6878      0.00000
     15       7.8301      0.00000
     16       9.1162      0.00000

 k-point    19 :       0.2857    0.1429    0.1429
  band No.  band energies     occupation 
      1     -25.9433      1.00000
      2     -25.6413      1.00000
      3     -25.5639      1.00000
      4     -25.3138      1.00000
      5     -25.1186      1.00000
      6     -24.9156      1.00000
      7       0.9827      1.00000
      8       2.4910      1.00000
      9       2.7727      1.00000
     10       4.2851      1.00000
     11       4.3318      1.07387
     12       5.2486      0.03048
     13       7.3135      0.00000
     14       7.6453      0.00000
     15       7.7536      0.00000
     16       8.3832      0.00000

 k-point    20 :       0.4286    0.1429    0.1429
  band No.  band energies     occupation 
      1     -25.9391      1.00000
      2     -25.8045      1.00000
      3     -25.4698      1.00000
      4     -25.2830      1.00000
      5     -25.1387      1.00000
      6     -24.9968      1.00000
      7       1.9529      1.00000
      8       2.7095      1.00000
      9       3.1532      1.00000
     10       3.8001      1.00000
     11       4.5526      1.00000
     12       4.9027      0.19979
     13       6.8356      0.00000
     14       6.9263      0.00000
     15       8.6580      0.00000
     16       8.8609      0.00000

 k-point    21 :       0.0000    0.2857    0.1429
  band No.  band energies     occupation 
      1     -25.8588      1.00000
      2     -25.5628      1.00000
      3     -25.4879      1.00000
      4     -25.4066      1.00000
      5     -25.1070      1.00000
      6     -25.0121      1.00000
      7       0.7234      1.00000
      8       2.2837      1.00000
      9       2.6247      1.00000
     10       4.6698      0.98344
     11       5.0118      0.28935
     12       6.4843     -0.03995
     13       6.6181      0.00000
     14       6.7138      0.00000
     15       6.9537      0.00000
     16       8.4490      0.00000

 k-point    22 :       0.1429    0.2857    0.1429
  band No.  band energies     occupation 
      1     -25.8744      1.00000
      2     -25.6863      1.00000
      3     -25.5488      1.00000
      4     -25.3135      1.00000
      5     -25.0767      1.00000
      6     -25.0029      1.00000
      7       1.0122      1.00000
      8       2.5670      1.00000
      9       2.7674      1.00000
     10       4.3729      1.01205
     11       4.4416      1.04877
     12       5.1859      0.10193
     13       7.0205      0.00000
     14       7.6369      0.00000
     15       7.8344      0.00000
     16       8.3851      0.00000

 k-point    23 :       0.2857    0.2857    0.1429
  band No.  band energies     occupation 
      1     -25.9897      1.00000
      2     -25.7890      1.00000
      3     -25.6296      1.00000
      4     -25.1602      1.00000
      5     -25.1369      1.00000
      6     -24.9462      1.00000
      7       1.5675      1.00000
      8       2.5179      1.00000
      9       3.6953      1.00000
     10       3.7767      1.00000
     11       4.1567      0.98905
     12       4.2668      0.94579
     13       7.5118      0.00000
     14       7.7823      0.00000
     15       8.2437      0.00000
     16       9.0783      0.00000

 k-point    24 :       0.4286    0.2857    0.1429
  band No.  band energies     occupation 
      1     -26.0510      1.00000
      2     -25.9801      1.00000
      3     -25.4763      1.00000
      4     -25.3058      1.00000
      5     -25.0106      1.00000
      6     -24.9451      1.00000
      7       1.8834      1.00000
      8       2.1830      1.00000
      9       3.5176      1.00000
     10       3.5779      1.00000
     11       4.7190      0.78286
     12       4.7330      0.63318
     13       7.5005      0.00000
     14       7.7550      0.00000
     15       8.7462      0.00000
     16       9.2228      0.00000

 k-point    25 :       0.0000    0.4286    0.1429
  band No.  band energies     occupation 
      1     -25.8268      1.00000
      2     -25.6871      1.00000
      3     -25.3923      1.00000
      4     -25.2732      1.00000
      5     -25.2689      1.00000
      6     -25.1299      1.00000
      7       1.8047      1.00000
      8       2.5417      1.00000
      9       3.4287      1.00000
     10       4.4155      1.00000
     11       4.7383      0.84632
     12       5.2716     -0.01858
     13       6.3292      0.00000
     14       6.4262      0.00000
     15       7.8693      0.00000
     16       8.9369      0.00000

[...]
  band No.  band energies     occupation 
      1     -26.1066      1.00000
      2     -26.0801      1.00000
      3     -25.3810      1.00000
      4     -25.3483      1.00000
      5     -25.0212      1.00000
      6     -24.9509      1.00000
      7       1.6425      1.00000
      8       1.7462      1.00000
      9       3.3109      1.00000
     10       3.3211      1.00000
     11       5.5829     -0.03569
     12       6.1088     -0.14632
     13       7.9910      0.00000
     14       8.0868      0.00000
     15       8.4658      0.00000
     16       9.2671      0.00000

 k-point    59 :       0.2857    0.4286    0.4286
  band No.  band energies     occupation 
      1     -25.9799      1.00000
      2     -25.9168      1.00000
      3     -25.5198      1.00000
      4     -25.4266      1.00000
      5     -25.1833      1.00000
      6     -25.0639      1.00000
      7       2.5298      1.00000
      8       2.6740      1.00000
      9       3.2268      1.00000
     10       3.4964      1.00000
     11       4.6832      0.89862
     12       4.9356      0.43612
     13       8.3111      0.00000
     14       8.5447      0.00000
     15       8.6070      0.00000
     16       8.9734      0.00000

 k-point    60 :       0.4286    0.4286    0.4286
  band No.  band energies     occupation 
      1     -25.8330      1.00000
      2     -25.6912      1.00000
      3     -25.6806      1.00000
      4     -25.4187      1.00000
      5     -25.3893      1.00000
      6     -25.2374      1.00000
      7       3.0637      1.00000
      8       3.3664      1.00000
      9       3.4855      1.00000
     10       3.8613      1.00000
     11       4.1132      1.00000
     12       4.1896      1.18296
     13       8.7074      0.00000
     14       8.7508      0.00000
     15       8.8342      0.00000
     16       8.8589      0.00000

 k-point    61 :       0.0000   -0.4286    0.4286
  band No.  band energies     occupation 
      1     -26.2010      1.00000
      2     -26.1046      1.00000
      3     -25.3950      1.00000
      4     -25.2260      1.00000
      5     -25.0030      1.00000
      6     -24.8637      1.00000
      7       1.2383      1.00000
      8       1.3143      1.00000
      9       3.2046      1.00000
     10       3.4973      1.00000
     11       6.2750     -0.12594
     12       6.2983     -0.08934
     13       7.5412      0.00000
     14       8.2905      0.00000
     15       8.9059      0.00000
     16       9.5751      0.00000

 k-point    62 :       0.1429   -0.4286    0.4286
  band No.  band energies     occupation 
      1     -26.1361      1.00000
      2     -26.0562      1.00000
      3     -25.4482      1.00000
      4     -25.2741      1.00000
      5     -25.0404      1.00000
      6     -24.9310      1.00000
      7       1.6485      1.00000
      8       1.6997      1.00000
      9       3.1955      1.00000
     10       3.3896      1.00000
     11       5.6367     -0.01869
     12       5.9690     -0.06447
     13       7.7746      0.00000
     14       8.3768      0.00000
     15       8.9059      0.00000
     16       8.9927      0.00000

 k-point    63 :       0.2857   -0.4286    0.4286
  band No.  band energies     occupation 
      1     -25.9535      1.00000
      2     -25.9281      1.00000
      3     -25.5650      1.00000
      4     -25.3736      1.00000
      5     -25.1523      1.00000
      6     -25.1191      1.00000
      7       2.5588      1.00000
      8       2.6842      1.00000
      9       3.2603      1.00000
     10       3.3748      1.00000
     11       4.5423      0.90669
     12       5.1157      0.28310
     13       8.2811      0.00000
     14       8.6526      0.00000
     15       8.6529      0.00000
     16       8.8812      0.00000

 k-point    64 :       0.4286   -0.4286    0.4286
  band No.  band energies     occupation 
      1     -25.7796      1.00000
      2     -25.6875      1.00000
      3     -25.6745      1.00000
      4     -25.4134      1.00000
      5     -25.3896      1.00000
      6     -25.3094      1.00000
      7       3.0220      1.00000
      8       3.4388      1.00000
      9       3.5678      1.00000
     10       3.9496      1.00000
     11       3.9563      1.00000
     12       4.2085      1.06096
     13       8.6804      0.00000
     14       8.7204      0.00000
     15       8.7986      0.00000
     16       8.8586      0.00000


--------------------------------------------------------------------------------------------------------


 soft charge-density along one line, spin component           1
         0         1         2         3         4         5         6         7         8         9
 total charge-density along one line

 soft charge-density along one line, spin component           2
         0         1         2         3         4         5         6         7         8         9
 total charge-density along one line

 pseudopotential strength for first ion, spin component:           1
-28.107   0.006   0.000   5.977  -0.005  -0.000  -0.000  -0.000
  0.006 -28.107   0.000  -0.005   5.977  -0.000  -0.000  -0.000
  0.000   0.000 -28.105  -0.000  -0.000   5.976  -0.000  -0.000
  5.977  -0.005  -0.000   4.218   0.003   0.000   0.000   0.000
 -0.005   5.977  -0.000   0.003   4.218   0.000   0.000   0.000
 -0.000  -0.000   5.976   0.000   0.000   4.219   0.000   0.000
 -0.000  -0.000  -0.000   0.000   0.000   0.000  -6.357   0.000
 -0.000  -0.000  -0.000   0.000   0.000   0.000   0.000  -6.357
  0.000  -0.000   0.000  -0.000   0.000  -0.000  -0.000   0.001
 -0.000  -0.000  -0.000   0.000   0.000   0.000   0.001   0.000
  0.000  -0.000   0.000  -0.000   0.000  -0.000  -0.000  -0.002
 -0.000  -0.000  -0.000   0.000   0.000   0.000  -7.214   0.000
 -0.000  -0.000  -0.000   0.000   0.000   0.000   0.000  -7.214
  0.000  -0.000   0.000  -0.000   0.000  -0.000  -0.000   0.001
 -0.000  -0.000  -0.000   0.000   0.000   0.000   0.002   0.000
  0.000  -0.000   0.000  -0.000   0.000  -0.000  -0.000  -0.002
  0.000   0.000   0.000  -0.000  -0.000   0.000   0.000  -0.003
 -0.000  -0.000  -0.000  -0.000  -0.000  -0.000   0.000   0.007
 pseudopotential strength for first ion, spin component:           2
-28.107   0.007   0.000   5.977  -0.005  -0.000  -0.000  -0.000
  0.007 -28.107   0.000  -0.005   5.977  -0.000  -0.000  -0.000
  0.000   0.000 -28.105  -0.000  -0.000   5.976  -0.000  -0.000
  5.977  -0.005  -0.000   4.218   0.003   0.000   0.000   0.000
 -0.005   5.977  -0.000   0.003   4.218   0.000   0.000   0.000
 -0.000  -0.000   5.976   0.000   0.000   4.218   0.000   0.000
 -0.000  -0.000  -0.000   0.000   0.000   0.000  -6.357   0.000
 -0.000  -0.000  -0.000   0.000   0.000   0.000   0.000  -6.358
  0.000  -0.000   0.000  -0.000   0.000  -0.000  -0.000   0.001
 -0.000  -0.000  -0.000   0.000   0.000   0.000   0.001   0.000
  0.000  -0.000   0.000  -0.000   0.000  -0.000  -0.000  -0.002
 -0.000  -0.000  -0.000   0.000   0.000   0.000  -7.214   0.000
 -0.000  -0.000  -0.000   0.000   0.000   0.000   0.000  -7.215
  0.000  -0.000   0.000  -0.000   0.000  -0.000  -0.000   0.001
 -0.000  -0.000  -0.000   0.000   0.000   0.000   0.002   0.000
  0.000  -0.000   0.000  -0.000   0.000  -0.000  -0.000  -0.002
  0.000   0.000   0.000   0.000  -0.000   0.000  -0.000  -0.003
 -0.000  -0.000  -0.000  -0.000  -0.000  -0.000   0.000   0.007
 total augmentation occupancy for first ion, spin component:           1
  1.993   0.000   0.000  -0.013   0.002  -0.000   0.000   0.000   0.000  -0.000   0.000  -0.000   0.000   0.000   0.000   0.000
  0.000   1.993   0.000   0.002  -0.013  -0.000   0.000  -0.000   0.000   0.000   0.000   0.000  -0.000  -0.000   0.000   0.000
  0.000   0.000   1.993  -0.000  -0.000  -0.013   0.000   0.000   0.000   0.000   0.000   0.000   0.000   0.000   0.000   0.000
 -0.013   0.002  -0.000   0.203  -0.007   0.000   0.000  -0.000   0.000   0.000   0.000   0.000   0.000  -0.000   0.000   0.000
  0.002  -0.013  -0.000  -0.007   0.203   0.000   0.000   0.000   0.000   0.000  -0.000   0.000   0.000   0.000   0.000   0.000
 -0.000  -0.000  -0.013   0.000   0.000   0.204   0.000   0.000   0.000   0.000  -0.000   0.000   0.000   0.000   0.000  -0.000
  0.000   0.000  -0.000   0.000   0.000   0.000   6.018   0.000  -0.000   0.216   0.000  -3.354  -0.000   0.000  -0.107  -0.000
 -0.000   0.000   0.000   0.000   0.000   0.000   0.000   6.004   0.051   0.000  -0.089  -0.000  -3.346  -0.037  -0.000   0.065
  0.000  -0.000   0.000   0.000   0.000   0.000  -0.000   0.051   5.631   0.000  -0.005   0.000  -0.037  -3.321  -0.000   0.004
  0.000   0.000   0.000   0.000   0.000  -0.000   0.216   0.000   0.000   6.018   0.000  -0.107  -0.000  -0.000  -3.354  -0.000
  0.000  -0.000   0.000   0.000   0.000   0.000   0.000  -0.089  -0.005   0.000   5.637  -0.000   0.064   0.004  -0.000  -3.325
 -0.000   0.000   0.000   0.000   0.000   0.000  -3.354  -0.000   0.000  -0.107  -0.000   1.907   0.000  -0.000   0.057  -0.000
  0.000   0.000   0.000   0.000   0.000   0.000  -0.000  -3.346  -0.037  -0.000   0.064   0.000   1.903   0.025   0.000  -0.044
 -0.000  -0.000   0.000   0.000   0.000  -0.000   0.000  -0.037  -3.321  -0.000   0.004  -0.000   0.025   1.976   0.000  -0.002
  0.000   0.000   0.000   0.000   0.000   0.000  -0.107  -0.000  -0.000  -3.354  -0.000   0.057   0.000   0.000   1.907   0.000
  0.000   0.000   0.000   0.000   0.000   0.000  -0.000   0.065   0.004  -0.000  -3.325  -0.000  -0.044  -0.002   0.000   1.979
  0.000   0.000  -0.000   0.000   0.000   0.000  -0.000   0.056  -0.002   0.000   0.003  -0.000  -0.026   0.001  -0.000  -0.001
  0.000   0.000   0.000  -0.000   0.000  -0.000  -0.000   0.001  -0.000   0.000   0.000   0.000  -0.001   0.000  -0.000  -0.000
 total augmentation occupancy for first ion, spin component:           2
  0.000   0.000   0.000   0.000   0.000   0.000  -0.000  -0.000  -0.000   0.000   0.000   0.000  -0.000   0.000   0.000   0.000
  0.000   0.000   0.000   0.000   0.000   0.000  -0.000   0.000   0.000   0.000   0.000   0.000   0.000   0.000   0.000  -0.000
  0.000   0.000   0.000   0.000   0.000   0.000   0.000   0.000  -0.000   0.000   0.000   0.000   0.000  -0.000  -0.000   0.000
  0.000   0.000   0.000  -0.000  -0.000  -0.000   0.000   0.000   0.000  -0.000   0.000   0.000   0.000   0.000   0.000   0.000
  0.000   0.000   0.000  -0.000  -0.000  -0.000   0.000  -0.000   0.000   0.000   0.000   0.000   0.000  -0.000   0.000  -0.000
  0.000   0.000   0.000  -0.000  -0.000  -0.000   0.000   0.000   0.000   0.000   0.000   0.000   0.000   0.000  -0.000   0.000
  0.000   0.000   0.000   0.000   0.000   0.000  -0.002  -0.000   0.000   0.001   0.000   0.002   0.000  -0.000  -0.001  -0.000
 -0.000   0.000   0.000   0.000  -0.000   0.000  -0.000  -0.003   0.000  -0.000  -0.000   0.000   0.001   0.000   0.000  -0.000
 -0.000   0.000   0.000   0.000  -0.000   0.000   0.000   0.000  -0.006  -0.000   0.000  -0.000   0.000   0.005   0.000  -0.000
  0.000   0.000   0.000   0.000   0.000   0.000   0.001  -0.000  -0.000  -0.002  -0.000  -0.001   0.000   0.000   0.002   0.000
  0.000   0.000   0.000  -0.000  -0.000  -0.000   0.000  -0.000   0.000  -0.000  -0.007  -0.000  -0.000  -0.000   0.000   0.005
  0.000   0.000   0.000   0.000   0.000   0.000   0.002   0.000  -0.000  -0.001  -0.000  -0.001  -0.000   0.000   0.001   0.000
  0.000   0.000   0.000   0.000   0.000   0.000   0.000   0.001   0.000   0.000  -0.000  -0.000  -0.000  -0.000   0.000   0.000
  0.000  -0.000   0.000  -0.000  -0.000   0.000  -0.000   0.000   0.005   0.000  -0.000   0.000  -0.000  -0.003   0.000   0.000
  0.000   0.000   0.000   0.000   0.000  -0.000  -0.001   0.000   0.000   0.002   0.000   0.001   0.000   0.000  -0.001  -0.000
  0.000   0.000   0.000   0.000   0.000   0.000  -0.000  -0.000  -0.000   0.000   0.005   0.000   0.000   0.000  -0.000  -0.004
 -0.000  -0.000   0.000   0.000   0.000   0.000  -0.000   0.001  -0.000   0.000   0.000   0.000  -0.001   0.000  -0.000  -0.000
  0.000   0.000   0.000   0.000   0.000   0.000   0.000  -0.000   0.000  -0.000  -0.000  -0.000   0.000  -0.000   0.000   0.000


------------------------ aborting loop because EDIFF is reached ----------------------------------------





 total charge

# of ion       s       p       d       tot
------------------------------------------
    1        0.419   6.290   3.087   9.795
    2        0.419   6.290   3.087   9.795
--------------------------------------------------
tot          0.838  12.579   6.173  19.590



 magnetization (x)

# of ion       s       p       d       tot
------------------------------------------
    1       -0.000  -0.000  -0.001  -0.001
    2       -0.000  -0.000  -0.001  -0.001
--------------------------------------------------
tot         -0.000  -0.001  -0.001  -0.002

    CHARGE:  cpu time     24.1572: real time      1.4102
    FORLOC:  cpu time      0.0006: real time      0.0006
    FORNL :  cpu time    119.6282: real time      6.7226
    STRESS:  cpu time    361.7563: real time     20.2585
    FORCOR:  cpu time      2.3480: real time      0.1632
    FORHAR:  cpu time      0.7297: real time      0.0330
    MIXING:  cpu time      0.0029: real time      0.0029
    OFIELD:  cpu time      0.0000: real time      0.0000

  FORCE on cell =-STRESS in cart. coord.  units (eV):
  Direction    XX          YY          ZZ          XY          YZ          ZX
  --------------------------------------------------------------------------------------
  Alpha Z   247.02244   247.02244   247.02244
  Ewald    -635.31479  -636.63118  -636.63118    -0.00000    15.59406    -0.00000
  Hartree    82.69911    82.07122    82.07122    -0.00000     6.05356    -0.00000
  E(xc)     -95.07327   -95.07471   -95.07471    -0.00000    -0.00504     0.00000
  Local     202.26811   204.24864   204.24864     0.00000   -21.21103    -0.00000
  n-local   -84.68974   -88.20078   -81.22488     0.85467    -0.49673    -0.18363
  augment    53.55876    53.53991    53.53991    -0.00000     0.05188     0.00000
  Kinetic   229.50751   222.43452   236.50964     0.13273     0.06574    -1.10731
  Fock        0.00000     0.00000     0.00000     0.00000     0.00000     0.00000
  -------------------------------------------------------------------------------------
  Total      -0.02186    -0.06443    -0.06443    -0.00000     0.05023     0.00000
  in kB      -0.95570    -2.81633    -2.81633    -0.00000     2.19562     0.00000
  external pressure =       -2.20 kB  Pullay stress =        0.00 kB


 VOLUME and BASIS-vectors are now :
 -----------------------------------------------------------------------------
  energy-cutoff  :      520.00
  volume of cell :       36.65
      direct lattice vectors                 reciprocal lattice vectors
     3.322222359  0.000000000  0.000000000     0.301003332 -0.000000000  0.000000000
     0.000000000  3.322222359 -0.066444447    -0.000000000  0.301123782  0.006022476
    -0.000000000 -0.066444447  3.322222359    -0.000000000  0.006022476  0.301123782

  length of vectors
     3.322222359  3.322886737  3.322886737     0.301003332  0.301184000  0.301184000


 FORCES acting on ions
    electron-ion (+dipol)            ewald-force                    non-local-force                 convergence-correction
 -----------------------------------------------------------------------------------------------
   -.473E-14 -.101E-13 -.159E-13   -.714E-14 -.283E-14 -.293E-14   -.102E-22 -.224E-21 0.320E-21   -.424E-14 -.213E-13 0.330E-13
   0.125E-12 0.154E-11 0.155E-11   0.717E-14 0.728E-14 0.377E-14   -.283E-22 0.361E-22 -.460E-21   -.152E-13 -.522E-13 -.346E-13
 -----------------------------------------------------------------------------------------------
   0.120E-12 0.153E-11 0.153E-11   0.292E-16 0.446E-14 0.834E-15   -.385E-22 -.188E-21 -.140E-21   -.195E-13 -.735E-13 -.154E-14


 POSITION                                       TOTAL-FORCE (eV/Angst)
 -----------------------------------------------------------------------------------
      0.00000      0.00000      0.00000         0.000000      0.000000      0.000000
      1.66111      1.62789      1.62789        -0.000000     -0.000000     -0.000000
 -----------------------------------------------------------------------------------
    total drift:                                0.000000      0.000000      0.000000


--------------------------------------------------------------------------------------------------------



  FREE ENERGIE OF THE ION-ELECTRON SYSTEM (eV)
  ---------------------------------------------------
  free  energy   TOTEN  =       -20.20338213 eV

  energy  without entropy=      -20.20338213  energy(sigma->0) =      -20.20338213



--------------------------------------------------------------------------------------------------------


    POTLOK:  cpu time      2.9449: real time      0.3997


--------------------------------------------------------------------------------------------------------


     LOOP+:  cpu time   5083.3954: real time    288.9383
 -----------------------------------------------------------------------------
|                                                                             |
|           W    W    AA    RRRRR   N    N  II  N    N   GGGG   !!!           |
|           W    W   A  A   R    R  NN   N  II  NN   N  G    G  !!!           |
|           W    W  A    A  R    R  N N  N  II  N N  N  G       !!!           |
|           W WW W  AAAAAA  RRRRR   N  N N  II  N  N N  G  GGG   !            |
|           WW  WW  A    A  R   R   N   NN  II  N   NN  G    G                |
|           W    W  A    A  R    R  N    N  II  N    N   GGGG   !!!           |
|                                                                             |
|     Tetrahedron method does not include variations of the Fermi             |
|     occupations, so forces and stress will be inaccurate. We suggest        |
|     using a different smearing scheme ISMEAR = 1 or 2 for metals in         |
|     relaxations.                                                            |
|                                                                             |
 -----------------------------------------------------------------------------

    4ORBIT:  cpu time      0.0000: real time      0.0000



 total charge

# of ion       s       p       d       tot
------------------------------------------
    1        0.419   6.290   3.087   9.795
    2        0.419   6.290   3.087   9.795
--------------------------------------------------
tot          0.838  12.579   6.173  19.590



 magnetization (x)

# of ion       s       p       d       tot
------------------------------------------
    1       -0.000  -0.000  -0.001  -0.001
    2       -0.000  -0.000  -0.001  -0.001
--------------------------------------------------
tot         -0.000  -0.001  -0.001  -0.002

 BZINTS: Fermi energy:    4.859949;   22.000000 electrons
         Band energy:-0.274522E+03;  BLOECHL correction:   -0.204114

 total amount of memory used by VASP MPI-rank0    91171. kBytes
=======================================================================

   base      :      30000. kBytes
   nonlr-proj:       6259. kBytes
   fftplans  :       6192. kBytes
   grid      :      14776. kBytes
   one-center:         62. kBytes
   wavefun   :      33882. kBytes

  
  
 General timing and accounting informations for this job:
 ========================================================
  
                  Total CPU time used (sec):     5128.105
                            User time (sec):     4911.801
                          System time (sec):      216.304
                         Elapsed time (sec):      292.082
  
                   Maximum memory used (kb):      324408.
                   Average memory used (kb):          N/A
  
                          Minor page faults:      7184569
                          Major page faults:          133
                 Voluntary context switches:      2455131
