 vasp.6.4.1 05Apr23 (build Jul 24 2024 14:19:02) complex                         
 executed on             LinuxGNU date 2024.10.23  14:52:36
 running    1 mpi-ranks, with   24 threads/rank, on    1 nodes
 distrk:  each k-point on    1 cores,    1 groups
 distr:  one band on NCORE=   1 cores,    1 groups


--------------------------------------------------------------------------------------------------------


 INCAR:
   ISTART = 0
   ALGO = Fast
   EDIFF = 0.0001
   ENCUT = 520
   IBRION = -1
   ISIF = 2
   ISMEAR = -5
   ISPIN = 2
   LASPH = True
   LMAXMIX = 6
   LORBIT = 11
   LREAL = Auto
   LWAVE = False
   MAGMOM = 2*0.6
   NELM = 100
   NSW = 0
   PREC = Accurate
   SIGMA = 0.05

 POTCAR:    PAW_PBE Nb_pv 08Apr2002               
 POTCAR:    PAW_PBE Nb_pv 08Apr2002               
   SHA256 =  bac2b60850b34f8515cf56f9feae68b678e347865051052a0e1f5d2c6a691c0a Nb_pv/POTCAR          
   COPYR  = (c) Copyright 08Apr2002 Georg Kresse                                                    
   COPYR  = This file is part of the software VASP. Any use, copying, and all other rights are regul
   COPYR  = If you do not have a valid VASP license, you may not use, copy or distribute this file. 
   VRHFIN =Nb: 4p5s4d                                                                               
   LEXCH  = PE                                                                                      
   EATOM  =  1043.3917 eV,   76.6871 Ry                                                             
                                                                                                    
   TITEL  = PAW_PBE Nb_pv 08Apr2002                                                                 
   LULTRA =        F    use ultrasoft PP ?                                                          
   IUNSCR =        1    unscreen: 0-lin 1-nonlin 2-no                                               
   RPACOR =    2.200    partial core radius                                                         
   POMASS =   92.000; ZVAL   =   11.000    mass and valenz                                          
   RCORE  =    2.750    outmost cutoff radius                                                       
   RWIGS  =    2.840; RWIGS  =    1.503    wigner-seitz radius (au A)                               
   ENMAX  =  208.608; ENMIN  =  156.456 eV                                                          
   RCLOC  =    2.201    cutoff for local pot                                                        
   LCOR   =        T    correct aug charges                                                         
   LPAW   =        T    paw PP                                                                      
   EAUG   =  355.067                                                                                
   DEXC   =    0.000                                                                                
   RMAX   =    2.804    core radius for proj-oper                                                   
   RAUG   =    1.300    factor for augmentation sphere                                              
   RDEP   =    2.776    radius for radial grids                                                     
   RDEPT  =    2.198    core radius for aug-charge                                                  
                                                                                                    
   Atomic configuration                                                                             
   11 entries                                                                                       
     n  l   j            E        occ.                                                              
     1  0  0.50    -18805.2456   2.0000                                                             
     2  0  0.50     -2630.2869   2.0000                                                             
     2  1  1.50     -2348.4045   6.0000                                                             
     3  0  0.50      -438.8756   2.0000                                                             
     3  1  1.50      -346.7587   6.0000                                                             
     3  2  2.50      -196.2559  10.0000                                                             
     4  0  0.50       -58.3859   2.0000                                                             
     4  1  1.50       -34.5141   6.0000                                                             
     4  2  2.50        -3.0408   4.0000                                                             
     5  0  0.50        -3.9816   1.0000                                                             
     4  3  2.50        -1.3606   0.0000                                                             
   Description                                                                                      
     l       E           TYP  RCUT    TYP  RCUT                                                     
     1    -34.5140617     23  2.600                                                                 
     1     -1.3605826     23  2.600                                                                 
     2     -3.0407924     23  2.600                                                                 
     2     -1.4463597     23  2.600                                                                 
     0     -3.9816219     23  2.750                                                                 
     0     20.4087390     23  2.750                                                                 
  local pseudopotential read in
  partial core-charges read in
  partial kinetic energy density read in
  atomic valenz-charges read in
  non local Contribution for L=           1  read in
    real space projection operators read in
  non local Contribution for L=           1  read in
    real space projection operators read in
  non local Contribution for L=           2  read in
    real space projection operators read in
  non local Contribution for L=           2  read in
    real space projection operators read in
  non local Contribution for L=           0  read in
    real space projection operators read in
  non local Contribution for L=           0  read in
    real space projection operators read in
    PAW grid and wavefunctions read in

   number of l-projection  operators is LMAX  =           6
   number of lm-projection operators is LMMAX =          18

 -----------------------------------------------------------------------------
|                                                                             |
|               ----> ADVICE to this user running VASP <----                  |
|                                                                             |
|     You have a (more or less) 'small supercell' and for smaller cells       |
|     it is recommended to use the reciprocal-space projection scheme!        |
|     The real-space optimization is not efficient for small cells and it     |
|     is also less accurate ...                                               |
|     Therefore, set LREAL=.FALSE. in the INCAR file.                         |
|                                                                             |
 -----------------------------------------------------------------------------

 Optimization of the real space projectors (new method)

 maximal supplied QI-value         = 13.61
 optimisation between [QCUT,QGAM] = [ 11.57, 23.27] = [ 37.45,151.59] Ry 
 Optimized for a Real-space Cutoff    1.63 Angstroem

   l    n(q)    QCUT    max X(q) W(low)/X(q) W(high)/X(q)  e(spline) 
   1     11    11.565     4.545    0.12E-04    0.18E-04    0.64E-07
   1     11    11.565     6.014    0.42E-04    0.48E-04    0.13E-06
   2     10    11.565   266.542    0.24E-03    0.87E-04    0.13E-05
   2     10    11.565   232.726    0.24E-03    0.87E-04    0.13E-05
   0     11    11.565    38.050    0.76E-04    0.32E-05    0.94E-06
   0     11    11.565    16.565    0.58E-04    0.25E-05    0.73E-06
  PAW_PBE Nb_pv 08Apr2002               :
 energy of atom  1       EATOM=-1043.3917
 kinetic energy error for atom=    0.0011 (will be added to EATOM!!)


 POSCAR: Generated POSCAR
  positions in direct lattice
  velocities in cartesian coordinates
 exchange correlation table for  LEXCH =        8
   RHO(1)=    0.500       N(1)  =     2000
   RHO(2)=  100.500       N(2)  =     4000



--------------------------------------------------------------------------------------------------------


 ion  position               nearest neighbor table
   1  0.000  0.000  0.000-   2 2.84   2 2.84   2 2.84   2 2.84   2 2.92   2 2.92   2 2.92   2 2.92

   2  0.500  0.500  0.500-   1 2.84   1 2.84   1 2.84   1 2.84   1 2.92   1 2.92   1 2.92   1 2.92


  LATTYP: Found a base centered orthorhombic cell.
 ALAT       =     4.6043652789
 B/A-ratio  =     1.0408163265
 C/A-ratio  =     0.7215375318
  
  Lattice vectors:
  
 A1 = (   3.3222223590,  -0.0664444472,   0.0000000000)
 A2 = (  -0.0664444472,   3.3222223590,   0.0000000000)
 A3 = (   0.0000000000,   0.0000000000,   3.3222223590)


Analysis of symmetry for initial positions (statically):
=====================================================================
 Subroutine PRICEL returns following result:
 
  LATTYP: Found a face centered orthorhombic cell.
 ALAT       =     3.3222223590
 B/A-ratio  =     1.3859292911
 C/A-ratio  =     1.4424978336
  
  Lattice vectors:
  
 A1 = (  -0.0664444472,   3.3222223590,   0.0000000000)
 A2 = (  -1.6943334031,   1.6943334031,   1.6611111795)
 A3 = (   1.6278889559,   1.6278889559,   1.6611111795)
 
   2 primitive cells build up your supercell.
 

 Routine SETGRP: Setting up the symmetry group for a 
 base centered orthorhombic supercell.


 Subroutine GETGRP returns: Found  8 space group operations
 (whereof  8 operations were pure point group operations)
 out of a pool of  8 trial point group operations.


The static configuration has the point symmetry D_2h.


Analysis of symmetry for dynamics (positions and initial velocities):
=====================================================================
 Subroutine PRICEL returns following result:
 
  LATTYP: Found a face centered orthorhombic cell.
 ALAT       =     3.3222223590
 B/A-ratio  =     1.3859292911
 C/A-ratio  =     1.4424978336
  
  Lattice vectors:
  
 A1 = (  -0.0664444472,   3.3222223590,   0.0000000000)
 A2 = (  -1.6943334031,   1.6943334031,   1.6611111795)
 A3 = (   1.6278889559,   1.6278889559,   1.6611111795)
 
   2 primitive cells build up your supercell.
 

 Routine SETGRP: Setting up the symmetry group for a 
 base centered orthorhombic supercell.


 Subroutine GETGRP returns: Found  8 space group operations
 (whereof  8 operations were pure point group operations)
 out of a pool of  8 trial point group operations.


The dynamic configuration has the point symmetry D_2h.


Analysis of structural, dynamic, and magnetic symmetry:
=====================================================================
 Subroutine PRICEL returns following result:
 
  LATTYP: Found a face centered orthorhombic cell.
 ALAT       =     3.3222223590
 B/A-ratio  =     1.3859292911
 C/A-ratio  =     1.4424978336
  
  Lattice vectors:
  
 A1 = (  -0.0664444472,   3.3222223590,   0.0000000000)
 A2 = (  -1.6943334031,   1.6943334031,   1.6611111795)
 A3 = (   1.6278889559,   1.6278889559,   1.6611111795)
 
   2 primitive cells build up your supercell.
 

 Routine SETGRP: Setting up the symmetry group for a 
 base centered orthorhombic supercell.


 Subroutine GETGRP returns: Found  8 space group operations
 (whereof  8 operations were pure point group operations)
 out of a pool of  8 trial point group operations.


The overall configuration has the point symmetry D_2h.


 Subroutine INISYM returns: Found  8 space group operations
 (whereof  8 operations are pure point group operations),
 and found     2 'primitive' translations


----------------------------------------------------------------------------------------

                                     Primitive cell                                     

  volume of cell :      18.3266

  direct lattice vectors                    reciprocal lattice vectors
    -0.066444447  3.322222359  0.000000000     0.006022476  0.301123782 -0.301003332
    -1.694333403  1.694333403  1.661111179    -0.301123782 -0.006022476  0.301003332
     1.627888956  1.627888956  1.661111179     0.301123782  0.006022476  0.301003332

  length of vectors
     3.322886737  2.915616866  2.838896838     0.425810765  0.425810765  0.425810765

  position of ions in fractional coordinates (direct lattice)
     0.000000000  0.000000000  0.000000000

  ion indices of the primitive-cell ions
   primitive index   ion index
                 1           1

----------------------------------------------------------------------------------------



 KPOINTS: pymatgen with grid density = 869 / numbe

Automatic generation of k-mesh.
 Grid dimensions read from file:
 generate k-points for:    7    7    7

 Generating k-lattice:

  Cartesian coordinates                     Fractional coordinates (reciprocal lattice)
     0.043017683  0.000860354 -0.000000000     0.142857143  0.000000000  0.000000000
     0.000860354  0.043017683 -0.000000000    -0.000000000  0.142857143  0.000000000
    -0.000000000 -0.000000000  0.043000476     0.000000000  0.000000000  0.142857143

  Length of vectors
     0.043026286  0.043026286  0.043000476

  Shift w.r.t. Gamma in fractional coordinates (k-lattice)
     0.000000000  0.000000000  0.000000000

 TETIRR: Found    517 inequivalent tetrahedra from     2058
 
 Subroutine IBZKPT returns following result:
 ===========================================
 
 Found     64 irreducible k-points:
 
 Following reciprocal coordinates:
            Coordinates               Weight
  0.000000  0.000000  0.000000      1.000000
  0.142857  0.000000  0.000000      4.000000
  0.285714  0.000000  0.000000      4.000000
  0.428571  0.000000  0.000000      4.000000
  0.142857  0.142857  0.000000      2.000000
  0.285714  0.142857  0.000000      4.000000
  0.428571  0.142857  0.000000      4.000000
 -0.428571  0.142857  0.000000      4.000000
 -0.285714  0.142857  0.000000      4.000000
 -0.142857  0.142857  0.000000      2.000000
  0.285714  0.285714  0.000000      2.000000
  0.428571  0.285714  0.000000      4.000000
 -0.428571  0.285714  0.000000      4.000000
 -0.285714  0.285714  0.000000      2.000000
  0.428571  0.428571  0.000000      2.000000
 -0.428571  0.428571  0.000000      2.000000
  0.000000  0.000000  0.142857      2.000000
  0.142857  0.000000  0.142857      8.000000
  0.285714  0.000000  0.142857      8.000000
  0.428571  0.000000  0.142857      8.000000
  0.142857  0.142857  0.142857      4.000000
  0.285714  0.142857  0.142857      8.000000
  0.428571  0.142857  0.142857      8.000000
 -0.428571  0.142857  0.142857      8.000000
 -0.285714  0.142857  0.142857      8.000000
 -0.142857  0.142857  0.142857      4.000000
  0.285714  0.285714  0.142857      4.000000
  0.428571  0.285714  0.142857      8.000000
 -0.428571  0.285714  0.142857      8.000000
 -0.285714  0.285714  0.142857      4.000000
  0.428571  0.428571  0.142857      4.000000
 -0.428571  0.428571  0.142857      4.000000
  0.000000  0.000000  0.285714      2.000000
  0.142857  0.000000  0.285714      8.000000
  0.285714  0.000000  0.285714      8.000000
  0.428571  0.000000  0.285714      8.000000
  0.142857  0.142857  0.285714      4.000000
  0.285714  0.142857  0.285714      8.000000
  0.428571  0.142857  0.285714      8.000000
 -0.428571  0.142857  0.285714      8.000000
 -0.285714  0.142857  0.285714      8.000000
 -0.142857  0.142857  0.285714      4.000000
  0.285714  0.285714  0.285714      4.000000
  0.428571  0.285714  0.285714      8.000000
 -0.428571  0.285714  0.285714      8.000000
 -0.285714  0.285714  0.285714      4.000000
  0.428571  0.428571  0.285714      4.000000
 -0.428571  0.428571  0.285714      4.000000
  0.000000  0.000000  0.428571      2.000000
  0.142857  0.000000  0.428571      8.000000
  0.285714  0.000000  0.428571      8.000000
  0.428571  0.000000  0.428571      8.000000
  0.142857  0.142857  0.428571      4.000000
  0.285714  0.142857  0.428571      8.000000
  0.428571  0.142857  0.428571      8.000000
 -0.428571  0.142857  0.428571      8.000000
 -0.285714  0.142857  0.428571      8.000000
 -0.142857  0.142857  0.428571      4.000000
  0.285714  0.285714  0.428571      4.000000
  0.428571  0.285714  0.428571      8.000000
 -0.428571  0.285714  0.428571      8.000000
 -0.285714  0.285714  0.428571      4.000000
  0.428571  0.428571  0.428571      4.000000
 -0.428571  0.428571  0.428571      4.000000
 
 Following cartesian coordinates:
            Coordinates               Weight
  0.000000  0.000000  0.000000      1.000000
  0.043018  0.000860  0.000000      4.000000
  0.086035  0.001721  0.000000      4.000000
  0.129053  0.002581  0.000000      4.000000
  0.043878  0.043878  0.000000      2.000000
  0.086896  0.044738  0.000000      4.000000
  0.129913  0.045599  0.000000      4.000000
 -0.128193  0.040437  0.000000      4.000000
 -0.085175  0.041297  0.000000      4.000000
 -0.042157  0.042157  0.000000      2.000000
  0.087756  0.087756  0.000000      2.000000
  0.130774  0.088616  0.000000      4.000000
 -0.127332  0.083454  0.000000      4.000000
 -0.084315  0.084315  0.000000      2.000000
  0.131634  0.131634  0.000000      2.000000
 -0.126472  0.126472  0.000000      2.000000
  0.000000  0.000000  0.043000      2.000000
  0.043018  0.000860  0.043000      8.000000
  0.086035  0.001721  0.043000      8.000000
  0.129053  0.002581  0.043000      8.000000
  0.043878  0.043878  0.043000      4.000000
  0.086896  0.044738  0.043000      8.000000
  0.129913  0.045599  0.043000      8.000000
 -0.128193  0.040437  0.043000      8.000000
 -0.085175  0.041297  0.043000      8.000000
 -0.042157  0.042157  0.043000      4.000000
  0.087756  0.087756  0.043000      4.000000
  0.130774  0.088616  0.043000      8.000000
 -0.127332  0.083454  0.043000      8.000000
 -0.084315  0.084315  0.043000      4.000000
  0.131634  0.131634  0.043000      4.000000
 -0.126472  0.126472  0.043000      4.000000
  0.000000  0.000000  0.086001      2.000000
  0.043018  0.000860  0.086001      8.000000
  0.086035  0.001721  0.086001      8.000000
  0.129053  0.002581  0.086001      8.000000
  0.043878  0.043878  0.086001      4.000000
  0.086896  0.044738  0.086001      8.000000
  0.129913  0.045599  0.086001      8.000000
 -0.128193  0.040437  0.086001      8.000000
 -0.085175  0.041297  0.086001      8.000000
 -0.042157  0.042157  0.086001      4.000000
  0.087756  0.087756  0.086001      4.000000
  0.130774  0.088616  0.086001      8.000000
 -0.127332  0.083454  0.086001      8.000000
 -0.084315  0.084315  0.086001      4.000000
  0.131634  0.131634  0.086001      4.000000
 -0.126472  0.126472  0.086001      4.000000
  0.000000  0.000000  0.129001      2.000000
  0.043018  0.000860  0.129001      8.000000
  0.086035  0.001721  0.129001      8.000000
  0.129053  0.002581  0.129001      8.000000
  0.043878  0.043878  0.129001      4.000000
  0.086896  0.044738  0.129001      8.000000
  0.129913  0.045599  0.129001      8.000000
 -0.128193  0.040437  0.129001      8.000000
 -0.085175  0.041297  0.129001      8.000000
 -0.042157  0.042157  0.129001      4.000000
  0.087756  0.087756  0.129001      4.000000
  0.130774  0.088616  0.129001      8.000000
 -0.127332  0.083454  0.129001      8.000000
 -0.084315  0.084315  0.129001      4.000000
  0.131634  0.131634  0.129001      4.000000
 -0.126472  0.126472  0.129001      4.000000
 


--------------------------------------------------------------------------------------------------------




 Dimension of arrays:
   k-points           NKPTS =     64   k-points in BZ     NKDIM =     64   number of bands    NBANDS=     16
   number of dos      NEDOS =    301   number of ions     NIONS =      2
   non local maximal  LDIM  =      6   non local SUM 2l+1 LMDIM =     18
   total plane-waves  NPLWV =  21952
   max r-space proj   IRMAX =  10859   max aug-charges    IRDMAX=  37069
   dimension x,y,z NGX =    28 NGY =   28 NGZ =   28
   dimension x,y,z NGXF=    56 NGYF=   56 NGZF=   56
   support grid    NGXF=    56 NGYF=   56 NGZF=   56
   ions per type =               2
   NGX,Y,Z   is equivalent  to a cutoff of  14.01, 14.01, 14.01 a.u.
   NGXF,Y,Z  is equivalent  to a cutoff of  28.02, 28.02, 28.02 a.u.

 SYSTEM =  unknown system                          
 POSCAR =  Generated POSCAR                        

 Startparameter for this run:
   NWRITE =      2    write-flag & timer
   PREC   = accura    normal or accurate (medium, high low for compatibility)
   ISTART =      0    job   : 0-new  1-cont  2-samecut
   ICHARG =      2    charge: 1-file 2-atom 10-const
   ISPIN  =      2    spin polarized calculation?
   LNONCOLLINEAR =      F non collinear calculations
   LSORBIT =      F    spin-orbit coupling
   INIWAV =      1    electr: 0-lowe 1-rand  2-diag
   LASPH  =      T    aspherical Exc in radial PAW
 Electronic Relaxation 1
   ENCUT  =  520.0 eV  38.22 Ry    6.18 a.u.   6.18  6.18  6.18*2*pi/ulx,y,z
   ENINI  =  520.0     initial cutoff
   ENAUG  =  355.1 eV  augmentation charge cutoff
   NELM   =    100;   NELMIN=  2; NELMDL= -5     # of ELM steps 
   EDIFF  = 0.1E-03   stopping-criterion for ELM
   LREAL  =      T    real-space projection
   NLSPLINE    = F    spline interpolate recip. space projectors
   LCOMPAT=      F    compatible to vasp.4.4
   GGA_COMPAT  = T    GGA compatible to vasp.4.4-vasp.4.6
   LMAXPAW     = -100 max onsite density
   LMAXMIX     =    6 max onsite mixed and CHGCAR
   VOSKOWN=      0    Vosko Wilk Nusair interpolation
   ROPT   =   -0.00025
 Ionic relaxation
   EDIFFG = 0.1E-02   stopping-criterion for IOM
   NSW    =      0    number of steps for IOM
   NBLOCK =      1;   KBLOCK =      1    inner block; outer block 
   IBRION =     -1    ionic relax: 0-MD 1-quasi-New 2-CG
   NFREE  =      0    steps in history (QN), initial steepest desc. (CG)
   ISIF   =      2    stress and relaxation
   IWAVPR =     10    prediction:  0-non 1-charg 2-wave 3-comb
   ISYM   =      2    0-nonsym 1-usesym 2-fastsym
   LCORR  =      T    Harris-Foulkes like correction to forces

   POTIM  = 0.5000    time-step for ionic-motion
   TEIN   =    0.0    initial temperature
   TEBEG  =    0.0;   TEEND  =   0.0 temperature during run
   SMASS  =  -3.00    Nose mass-parameter (am)
   estimated Nose-frequenzy (Omega)   =  0.10E-29 period in steps = 0.13E+47 mass=  -0.252E-27a.u.
   SCALEE = 1.0000    scale energy and forces
   NPACO  =    256;   APACO  = 10.0  distance and # of slots for P.C.
   PSTRESS=    0.0 pullay stress

  Mass of Ions in am
   POMASS =  92.00
  Ionic Valenz
   ZVAL   =  11.00
  Atomic Wigner-Seitz radii
   RWIGS  =  -1.00
  virtual crystal weights 
   VCA    =   1.00
   NELECT =      22.0000    total number of electrons
   NUPDOWN=      -1.0000    fix difference up-down

 DOS related values:
   EMIN   =  10.00;   EMAX   =-10.00  energy-range for DOS
   EFERMI =   0.00;   METHOD = LEGACY      
   ISMEAR =    -5;   SIGMA  =   0.05  broadening in eV -4-tet -1-fermi 0-gaus

 Electronic relaxation 2 (details)
   IALGO  =     68    algorithm
   LDIAG  =      T    sub-space diagonalisation (order eigenvalues)
   LSUBROT=      F    optimize rotation matrix (better conditioning)
   TURBO    =      0    0=normal 1=particle mesh
   IRESTART =      0    0=no restart 2=restart with 2 vectors
   NREBOOT  =      0    no. of reboots
   NMIN     =      0    reboot dimension
   EREF     =   0.00    reference energy to select bands
   IMIX   =      4    mixing-type and parameters
     AMIX     =   0.40;   BMIX     =  1.00
     AMIX_MAG =   1.60;   BMIX_MAG =  1.00
     AMIN     =   0.10
     WC   =   100.;   INIMIX=   1;  MIXPRE=   1;  MAXMIX= -45

 Intra band minimization:
   WEIMIN = 0.0000     energy-eigenvalue tresh-hold
   EBREAK =  0.16E-05  absolut break condition
   DEPER  =   0.30     relativ break condition  

   TIME   =   0.40     timestep for ELM

  volume/ion in A,a.u.               =      18.33       123.67
  Fermi-wavevector in a.u.,A,eV,Ry     =   1.380951  2.609619 25.946661  1.907026
  Thomas-Fermi vector in A             =   2.505781

 Write flags
   LWAVE        =      F    write WAVECAR
   LDOWNSAMPLE  =      F    k-point downsampling of WAVECAR
   LCHARG       =      T    write CHGCAR
   LVTOT        =      F    write LOCPOT, total local potential
   LVHAR        =      F    write LOCPOT, Hartree potential only
   LELF         =      F    write electronic localiz. function (ELF)
   LORBIT       =     11    0 simple, 1 ext, 2 COOP (PROOUT), +10 PAW based schemes


 Dipole corrections
   LMONO  =      F    monopole corrections only (constant potential shift)
   LDIPOL =      F    correct potential (dipole corrections)
   IDIPOL =      0    1-x, 2-y, 3-z, 4-all directions 
   EPSILON=  1.0000000 bulk dielectric constant

 Exchange correlation treatment:
   GGA     =    --    GGA type
   LEXCH   =     8    internal setting for exchange type
   LIBXC   =     F    Libxc                    
   VOSKOWN =     0    Vosko Wilk Nusair interpolation
   LHFCALC =     F    Hartree Fock is set to
   LHFONE  =     F    Hartree Fock one center treatment
   AEXX    =    0.0000 exact exchange contribution

 Linear response parameters
   LEPSILON=     F    determine dielectric tensor
   LRPA    =     F    only Hartree local field effects (RPA)
   LNABLA  =     F    use nabla operator in PAW spheres
   LVEL    =     F    velocity operator in full k-point grid
   CSHIFT  =0.1000    complex shift for real part using Kramers Kronig
   OMEGAMAX=  -1.0    maximum frequency
   DEG_THRESHOLD= 0.2000000E-02 threshold for treating states as degnerate
   RTIME   =   -0.100 relaxation time in fs
  (WPLASMAI=    0.000 imaginary part of plasma frequency in eV, 0.658/RTIME)
   DFIELD  = 0.0000000 0.0000000 0.0000000 field for delta impulse in time

  Optional k-point grid parameters
   LKPOINTS_OPT  =     F    use optional k-point grid
   KPOINTS_OPT_MODE=     1    mode for optional k-point grid

 Orbital magnetization related:
   ORBITALMAG=     F  switch on orbital magnetization
   LCHIMAG   =     F  perturbation theory with respect to B field
   DQ        =  0.001000  dq finite difference perturbation B field
   LLRAUG    =     F  two centre corrections for induced B field
   LBONE     =     F  B-component reconstruction in AE one-centre
   LVGVCALC  =     T  calculate vGv susceptibility
   LVGVAPPL  =     F  apply vGv susceptibility instead of pGv for G=0

 Random number generation:
   RANDOM_GENERATOR = DEFAULT
   PCG_SEED         = not used


--------------------------------------------------------------------------------------------------------


 Static calculation
 charge density and potential will be updated during run
 spin polarized calculation
 RMM-DIIS sequential band-by-band and
  variant of blocked Davidson during initial phase
 perform sub-space diagonalisation
    before iterative eigenvector-optimisation
 modified Broyden-mixing scheme, WC =      100.0
 initial mixing is a Kerker type mixing with AMIX =  0.4000 and BMIX =      1.0000
 Hartree-type preconditioning will be used
 using additional bands            5
 real space projection scheme for non local part
 use partial core corrections
 calculate Harris-corrections to forces   (improved forces if not selfconsistent)
 use gradient corrections 
 use of overlap-Matrix (Vanderbilt PP)
 Fermi weights with tetrahedron method with Bloechl corrections


--------------------------------------------------------------------------------------------------------


  energy-cutoff  :      520.00
  volume of cell :       36.65
      direct lattice vectors                 reciprocal lattice vectors
     3.322222359 -0.066444447  0.000000000     0.301123782  0.006022476 -0.000000000
    -0.066444447  3.322222359  0.000000000     0.006022476  0.301123782 -0.000000000
     0.000000000  0.000000000  3.322222359    -0.000000000 -0.000000000  0.301003332

  length of vectors
     3.322886737  3.322886737  3.322222359     0.301184000  0.301184000  0.301003332



 k-points in units of 2pi/SCALE and weight: pymatgen with grid density = 869 / numbe
   0.00000000  0.00000000  0.00000000       0.003
   0.04301768  0.00086035  0.00000000       0.012
   0.08603537  0.00172071  0.00000000       0.012
   0.12905305  0.00258106  0.00000000       0.012
   0.04387804  0.04387804  0.00000000       0.006
   0.08689572  0.04473839  0.00000000       0.012
   0.12991340  0.04559874  0.00000000       0.012
  -0.12819270  0.04043662  0.00000000       0.012
  -0.08517501  0.04129698  0.00000000       0.012
  -0.04215733  0.04215733  0.00000000       0.006
   0.08775607  0.08775607  0.00000000       0.006
   0.13077376  0.08861643  0.00000000       0.012
  -0.12733234  0.08345431  0.00000000       0.012
  -0.08431466  0.08431466  0.00000000       0.006
   0.13163411  0.13163411  0.00000000       0.006
  -0.12647199  0.12647199  0.00000000       0.006
   0.00000000  0.00000000  0.04300048       0.006
   0.04301768  0.00086035  0.04300048       0.023
   0.08603537  0.00172071  0.04300048       0.023
   0.12905305  0.00258106  0.04300048       0.023
   0.04387804  0.04387804  0.04300048       0.012
   0.08689572  0.04473839  0.04300048       0.023
   0.12991340  0.04559874  0.04300048       0.023
  -0.12819270  0.04043662  0.04300048       0.023
  -0.08517501  0.04129698  0.04300048       0.023
  -0.04215733  0.04215733  0.04300048       0.012
   0.08775607  0.08775607  0.04300048       0.012
   0.13077376  0.08861643  0.04300048       0.023
  -0.12733234  0.08345431  0.04300048       0.023
  -0.08431466  0.08431466  0.04300048       0.012
   0.13163411  0.13163411  0.04300048       0.012
  -0.12647199  0.12647199  0.04300048       0.012
   0.00000000  0.00000000  0.08600095       0.006
   0.04301768  0.00086035  0.08600095       0.023
   0.08603537  0.00172071  0.08600095       0.023
   0.12905305  0.00258106  0.08600095       0.023
   0.04387804  0.04387804  0.08600095       0.012
   0.08689572  0.04473839  0.08600095       0.023
   0.12991340  0.04559874  0.08600095       0.023
  -0.12819270  0.04043662  0.08600095       0.023
  -0.08517501  0.04129698  0.08600095       0.023
  -0.04215733  0.04215733  0.08600095       0.012
   0.08775607  0.08775607  0.08600095       0.012
   0.13077376  0.08861643  0.08600095       0.023
  -0.12733234  0.08345431  0.08600095       0.023
  -0.08431466  0.08431466  0.08600095       0.012
   0.13163411  0.13163411  0.08600095       0.012
  -0.12647199  0.12647199  0.08600095       0.012
   0.00000000  0.00000000  0.12900143       0.006
   0.04301768  0.00086035  0.12900143       0.023
   0.08603537  0.00172071  0.12900143       0.023
   0.12905305  0.00258106  0.12900143       0.023
   0.04387804  0.04387804  0.12900143       0.012
   0.08689572  0.04473839  0.12900143       0.023
   0.12991340  0.04559874  0.12900143       0.023
  -0.12819270  0.04043662  0.12900143       0.023
  -0.08517501  0.04129698  0.12900143       0.023
  -0.04215733  0.04215733  0.12900143       0.012
   0.08775607  0.08775607  0.12900143       0.012
   0.13077376  0.08861643  0.12900143       0.023
  -0.12733234  0.08345431  0.12900143       0.023
  -0.08431466  0.08431466  0.12900143       0.012
   0.13163411  0.13163411  0.12900143       0.012
  -0.12647199  0.12647199  0.12900143       0.012

 k-points in reciprocal lattice and weights: pymatgen with grid density = 869 / numbe
   0.00000000  0.00000000  0.00000000       0.003
   0.14285714  0.00000000  0.00000000       0.012
   0.28571429  0.00000000  0.00000000       0.012
   0.42857143  0.00000000  0.00000000       0.012
   0.14285714  0.14285714  0.00000000       0.006
   0.28571429  0.14285714  0.00000000       0.012
   0.42857143  0.14285714  0.00000000       0.012
  -0.42857143  0.14285714  0.00000000       0.012
  -0.28571429  0.14285714  0.00000000       0.012
  -0.14285714  0.14285714  0.00000000       0.006
   0.28571429  0.28571429  0.00000000       0.006
   0.42857143  0.28571429  0.00000000       0.012
  -0.42857143  0.28571429  0.00000000       0.012
  -0.28571429  0.28571429  0.00000000       0.006
   0.42857143  0.42857143  0.00000000       0.006
  -0.42857143  0.42857143  0.00000000       0.006
   0.00000000  0.00000000  0.14285714       0.006
   0.14285714  0.00000000  0.14285714       0.023
   0.28571429  0.00000000  0.14285714       0.023
   0.42857143  0.00000000  0.14285714       0.023
   0.14285714  0.14285714  0.14285714       0.012
   0.28571429  0.14285714  0.14285714       0.023
   0.42857143  0.14285714  0.14285714       0.023
  -0.42857143  0.14285714  0.14285714       0.023
  -0.28571429  0.14285714  0.14285714       0.023
  -0.14285714  0.14285714  0.14285714       0.012
   0.28571429  0.28571429  0.14285714       0.012
   0.42857143  0.28571429  0.14285714       0.023
  -0.42857143  0.28571429  0.14285714       0.023
  -0.28571429  0.28571429  0.14285714       0.012
   0.42857143  0.42857143  0.14285714       0.012
  -0.42857143  0.42857143  0.14285714       0.012
   0.00000000  0.00000000  0.28571429       0.006
   0.14285714  0.00000000  0.28571429       0.023
   0.28571429  0.00000000  0.28571429       0.023
   0.42857143  0.00000000  0.28571429       0.023
   0.14285714  0.14285714  0.28571429       0.012
   0.28571429  0.14285714  0.28571429       0.023
   0.42857143  0.14285714  0.28571429       0.023
  -0.42857143  0.14285714  0.28571429       0.023
  -0.28571429  0.14285714  0.28571429       0.023
  -0.14285714  0.14285714  0.28571429       0.012
   0.28571429  0.28571429  0.28571429       0.012
   0.42857143  0.28571429  0.28571429       0.023
  -0.42857143  0.28571429  0.28571429       0.023
  -0.28571429  0.28571429  0.28571429       0.012
   0.42857143  0.42857143  0.28571429       0.012
  -0.42857143  0.42857143  0.28571429       0.012
   0.00000000  0.00000000  0.42857143       0.006
   0.14285714  0.00000000  0.42857143       0.023
   0.28571429  0.00000000  0.42857143       0.023
   0.42857143  0.00000000  0.42857143       0.023
   0.14285714  0.14285714  0.42857143       0.012
   0.28571429  0.14285714  0.42857143       0.023
   0.42857143  0.14285714  0.42857143       0.023
  -0.42857143  0.14285714  0.42857143       0.023
  -0.28571429  0.14285714  0.42857143       0.023
  -0.14285714  0.14285714  0.42857143       0.012
   0.28571429  0.28571429  0.42857143       0.012
   0.42857143  0.28571429  0.42857143       0.023
  -0.42857143  0.28571429  0.42857143       0.023
  -0.28571429  0.28571429  0.42857143       0.012
   0.42857143  0.42857143  0.42857143       0.012
  -0.42857143  0.42857143  0.42857143       0.012

 position of ions in fractional coordinates (direct lattice) 
   0.00000000  0.00000000  0.00000000
   0.50000000  0.50000000  0.50000000

 position of ions in cartesian coordinates  (Angst):
   0.00000000  0.00000000  0.00000000
   1.62788896  1.62788896  1.66111118



--------------------------------------------------------------------------------------------------------


 k-point   1 :   0.0000 0.0000 0.0000  plane waves:     989
 k-point   2 :   0.1429 0.0000 0.0000  plane waves:     983
 k-point   3 :   0.2857 0.0000 0.0000  plane waves:     990
 k-point   4 :   0.4286 0.0000 0.0000  plane waves:     984
 k-point   5 :   0.1429 0.1429 0.0000  plane waves:     981
 k-point   6 :   0.2857 0.1429 0.0000  plane waves:     981
 k-point   7 :   0.4286 0.1429 0.0000  plane waves:     982
 k-point   8 :  -0.4286 0.1429 0.0000  plane waves:     989
 k-point   9 :  -0.2857 0.1429 0.0000  plane waves:     984
 k-point  10 :  -0.1429 0.1429 0.0000  plane waves:     985
 k-point  11 :   0.2857 0.2857 0.0000  plane waves:     980
 k-point  12 :   0.4286 0.2857 0.0000  plane waves:     983
 k-point  13 :  -0.4286 0.2857 0.0000  plane waves:     992
 k-point  14 :  -0.2857 0.2857 0.0000  plane waves:     989
 k-point  15 :   0.4286 0.4286 0.0000  plane waves:     976
 k-point  16 :  -0.4286 0.4286 0.0000  plane waves:     989
 k-point  17 :   0.0000 0.0000 0.1429  plane waves:     985
 k-point  18 :   0.1429 0.0000 0.1429  plane waves:     983
 k-point  19 :   0.2857 0.0000 0.1429  plane waves:     986
 k-point  20 :   0.4286 0.0000 0.1429  plane waves:     988
 k-point  21 :   0.1429 0.1429 0.1429  plane waves:     977
 k-point  22 :   0.2857 0.1429 0.1429  plane waves:     980
 k-point  23 :   0.4286 0.1429 0.1429  plane waves:     980
 k-point  24 :  -0.4286 0.1429 0.1429  plane waves:     988
 k-point  25 :  -0.2857 0.1429 0.1429  plane waves:     991
 k-point  26 :  -0.1429 0.1429 0.1429  plane waves:     982
 k-point  27 :   0.2857 0.2857 0.1429  plane waves:     982
 k-point  28 :   0.4286 0.2857 0.1429  plane waves:     991
 k-point  29 :  -0.4286 0.2857 0.1429  plane waves:     993
 k-point  30 :  -0.2857 0.2857 0.1429  plane waves:     996
 k-point  31 :   0.4286 0.4286 0.1429  plane waves:     985
 k-point  32 :  -0.4286 0.4286 0.1429  plane waves:     984
 k-point  33 :   0.0000 0.0000 0.2857  plane waves:     988
 k-point  34 :   0.1429 0.0000 0.2857  plane waves:     987
 k-point  35 :   0.2857 0.0000 0.2857  plane waves:     987
 k-point  36 :   0.4286 0.0000 0.2857  plane waves:     983
 k-point  37 :   0.1429 0.1429 0.2857  plane waves:     981
 k-point  38 :   0.2857 0.1429 0.2857  plane waves:     983
 k-point  39 :   0.4286 0.1429 0.2857  plane waves:     987
 k-point  40 :  -0.4286 0.1429 0.2857  plane waves:     987
 k-point  41 :  -0.2857 0.1429 0.2857  plane waves:     991
 k-point  42 :  -0.1429 0.1429 0.2857  plane waves:     995
 k-point  43 :   0.2857 0.2857 0.2857  plane waves:     985
 k-point  44 :   0.4286 0.2857 0.2857  plane waves:     988
 k-point  45 :  -0.4286 0.2857 0.2857  plane waves:     986
 k-point  46 :  -0.2857 0.2857 0.2857  plane waves:     994
 k-point  47 :   0.4286 0.4286 0.2857  plane waves:     992
 k-point  48 :  -0.4286 0.4286 0.2857  plane waves:     992
 k-point  49 :   0.0000 0.0000 0.4286  plane waves:     982
 k-point  50 :   0.1429 0.0000 0.4286  plane waves:     985
 k-point  51 :   0.2857 0.0000 0.4286  plane waves:     986
 k-point  52 :   0.4286 0.0000 0.4286  plane waves:     991
 k-point  53 :   0.1429 0.1429 0.4286  plane waves:     978
 k-point  54 :   0.2857 0.1429 0.4286  plane waves:     981
 k-point  55 :   0.4286 0.1429 0.4286  plane waves:     996
 k-point  56 :  -0.4286 0.1429 0.4286  plane waves:     992
 k-point  57 :  -0.2857 0.1429 0.4286  plane waves:     986
 k-point  58 :  -0.1429 0.1429 0.4286  plane waves:     990
 k-point  59 :   0.2857 0.2857 0.4286  plane waves:     984
 k-point  60 :   0.4286 0.2857 0.4286  plane waves:     995
 k-point  61 :  -0.4286 0.2857 0.4286  plane waves:     987
 k-point  62 :  -0.2857 0.2857 0.4286  plane waves:     984
 k-point  63 :   0.4286 0.4286 0.4286  plane waves:     998
 k-point  64 :  -0.4286 0.4286 0.4286  plane waves:     988

 maximum and minimum number of plane-waves per node :       998      976

 maximum number of plane-waves:       998
 maximum index in each direction: 
   IXMAX=    6   IYMAX=    6   IZMAX=    6
   IXMIN=   -6   IYMIN=   -6   IZMIN=   -6


 serial   3D FFT for wavefunctions
 parallel 3D FFT for charge:
    minimum data exchange during FFTs selected (reduces bandwidth)


 total amount of memory used by VASP MPI-rank0    91178. kBytes
=======================================================================

   base      :      30000. kBytes
   nonlr-proj:       6266. kBytes
   fftplans  :       6192. kBytes
   grid      :      14776. kBytes
   one-center:         62. kBytes
   wavefun   :      33882. kBytes

     INWAV:  cpu time      0.0000: real time      0.0000
 Broyden mixing: mesh for mixing (old mesh)
   NGX = 13   NGY = 13   NGZ = 13
  (NGX  = 56   NGY  = 56   NGZ  = 56)
  gives a total of   2197 points

 initial charge density was supplied:
 charge density of overlapping atoms calculated
 number of electron      22.0000000 magnetization       1.2000000
 keeping initial charge density in first step


--------------------------------------------------------------------------------------------------------


 Maximum index for non-local projection operator         1138
 Maximum index for augmentation-charges        35777 (set IRDMAX)


--------------------------------------------------------------------------------------------------------


 First call to EWALD:  gamma=   0.534
 Maximum number of real-space cells 3x 3x 3
 Maximum number of reciprocal cells 3x 3x 3

    FEWALD:  cpu time      0.0067: real time      0.0044


--------------------------------------- Ionic step        1  -------------------------------------------




--------------------------------------- Iteration      1(   1)  ---------------------------------------


    POTLOK:  cpu time      1.8003: real time      0.1368
    SETDIJ:  cpu time      1.1616: real time      0.2556
     EDDAV:  cpu time    418.0917: real time     22.9629
 BZINTS: Fermi energy:   23.517172;   22.000000 electrons
         Band energy:-0.273311E+02;  BLOECHL correction:   -0.476922
       DOS:  cpu time      0.2701: real time      0.0337
    --------------------------------------------
      LOOP:  cpu time    421.3237: real time     23.3891

 eigenvalue-minimisations  :  4408
 total energy-change (2. order) : 0.2027871E+03  (-0.1160410E+04)
 number of electron      22.0000000 magnetization       1.2000000
 augmentation part       22.0000000 magnetization       1.2000000

 Free energy of the ion-electron system (eV)
  ---------------------------------------------------
  alpha Z        PSCENC =       247.02244180
  Ewald energy   TEWEN  =     -1908.57692376
  -Hartree energ DENC   =      -279.63742349
  -exchange      EXHF   =         0.00000000
  -V(xc)+E(xc)   XCENC  =        52.62034554
  PAW double counting   =      1671.32378679    -1639.41528309
  entropy T*S    EENTRO =         0.00000000
  eigenvalues    EBANDS =       -27.33106184
  atomic energy  EATOM  =      2086.78124273
  Solvation  Ediel_sol  =         0.00000000
  ---------------------------------------------------
  free energy    TOTEN  =       202.78712468 eV

  energy without entropy =      202.78712468  energy(sigma->0) =      202.78712468


--------------------------------------------------------------------------------------------------------




--------------------------------------- Iteration      1(   2)  ---------------------------------------


     EDDAV:  cpu time    370.5290: real time     20.7537
 BZINTS: Fermi energy:    7.109488;   22.000000 electrons
         Band energy:-0.240614E+03;  BLOECHL correction:   -0.319059
       DOS:  cpu time      0.2282: real time      0.0265
    --------------------------------------------
      LOOP:  cpu time    370.7572: real time     20.7802

 eigenvalue-minimisations  :  4336
 total energy-change (2. order) :-0.2132834E+03  (-0.2110158E+03)
 number of electron      22.0000000 magnetization       1.2000000
 augmentation part       22.0000000 magnetization       1.2000000

 Free energy of the ion-electron system (eV)
  ---------------------------------------------------
  alpha Z        PSCENC =       247.02244180
  Ewald energy   TEWEN  =     -1908.57692376
  -Hartree energ DENC   =      -279.63742349
  -exchange      EXHF   =         0.00000000
  -V(xc)+E(xc)   XCENC  =        52.62034554
  PAW double counting   =      1671.32378679    -1639.41528309
  entropy T*S    EENTRO =         0.00000000
  eigenvalues    EBANDS =      -240.61449992
  atomic energy  EATOM  =      2086.78124273
  Solvation  Ediel_sol  =         0.00000000
  ---------------------------------------------------
  free energy    TOTEN  =       -10.49631340 eV

  energy without entropy =      -10.49631340  energy(sigma->0) =      -10.49631340


--------------------------------------------------------------------------------------------------------




--------------------------------------- Iteration      1(   3)  ---------------------------------------


     EDDAV:  cpu time    597.8464: real time     32.8922
 BZINTS: Fermi energy:    5.467615;   22.000000 electrons
         Band energy:-0.251084E+03;  BLOECHL correction:   -0.207198
       DOS:  cpu time      0.2129: real time      0.0295
    --------------------------------------------
      LOOP:  cpu time    598.0593: real time     32.9217

 eigenvalue-minimisations  :  6848
 total energy-change (2. order) :-0.1046925E+02  (-0.9859716E+01)
 number of electron      22.0000000 magnetization       1.2000000
 augmentation part       22.0000000 magnetization       1.2000000

 Free energy of the ion-electron system (eV)
  ---------------------------------------------------
  alpha Z        PSCENC =       247.02244180
  Ewald energy   TEWEN  =     -1908.57692376
  -Hartree energ DENC   =      -279.63742349
  -exchange      EXHF   =         0.00000000
  -V(xc)+E(xc)   XCENC  =        52.62034554
  PAW double counting   =      1671.32378679    -1639.41528309
  entropy T*S    EENTRO =         0.00000000
  eigenvalues    EBANDS =      -251.08375221
  atomic energy  EATOM  =      2086.78124273
  Solvation  Ediel_sol  =         0.00000000
  ---------------------------------------------------
  free energy    TOTEN  =       -20.96556569 eV

  energy without entropy =      -20.96556569  energy(sigma->0) =      -20.96556569


--------------------------------------------------------------------------------------------------------




--------------------------------------- Iteration      1(   4)  ---------------------------------------


     EDDAV:  cpu time    408.0595: real time     22.9518
 BZINTS: Fermi energy:    5.444622;   22.000000 electrons
         Band energy:-0.251253E+03;  BLOECHL correction:   -0.204671
       DOS:  cpu time      0.2537: real time      0.0275
    --------------------------------------------
      LOOP:  cpu time    408.3132: real time     22.9793

 eigenvalue-minimisations  :  5032
 total energy-change (2. order) :-0.1693367E+00  (-0.1672835E+00)
 number of electron      22.0000000 magnetization       1.2000000
 augmentation part       22.0000000 magnetization       1.2000000

 Free energy of the ion-electron system (eV)
  ---------------------------------------------------
  alpha Z        PSCENC =       247.02244180
  Ewald energy   TEWEN  =     -1908.57692376
  -Hartree energ DENC   =      -279.63742349
  -exchange      EXHF   =         0.00000000
  -V(xc)+E(xc)   XCENC  =        52.62034554
  PAW double counting   =      1671.32378679    -1639.41528309
  entropy T*S    EENTRO =         0.00000000
  eigenvalues    EBANDS =      -251.25308893
  atomic energy  EATOM  =      2086.78124273
  Solvation  Ediel_sol  =         0.00000000
  ---------------------------------------------------
  free energy    TOTEN  =       -21.13490241 eV

  energy without entropy =      -21.13490241  energy(sigma->0) =      -21.13490241


--------------------------------------------------------------------------------------------------------




--------------------------------------- Iteration      1(   5)  ---------------------------------------


     EDDAV:  cpu time   2961.9199: real time    139.1206
 BZINTS: Fermi energy:    5.443274;   22.000000 electrons
         Band energy:-0.251259E+03;  BLOECHL correction:   -0.204567
       DOS:  cpu time      0.2097: real time      0.0282
    CHARGE:  cpu time     37.6793: real time      2.0775
    MIXING:  cpu time      0.0752: real time      0.0022
    --------------------------------------------
      LOOP:  cpu time   2999.8841: real time    141.2285

 eigenvalue-minimisations  :  6432
 total energy-change (2. order) :-0.6381002E-02  (-0.6185967E-02)
 number of electron      22.0000001 magnetization       0.3465417
 augmentation part        7.7592287 magnetization      -0.0578281

 Broyden mixing:
  rms(total) = 0.24031E+01    rms(broyden)= 0.24031E+01
  rms(prec ) = 0.28252E+01
  weight for this iteration     100.00

 Free energy of the ion-electron system (eV)
  ---------------------------------------------------
  alpha Z        PSCENC =       247.02244180
  Ewald energy   TEWEN  =     -1908.57692376
  -Hartree energ DENC   =      -279.63742349
  -exchange      EXHF   =         0.00000000
  -V(xc)+E(xc)   XCENC  =        52.62034554
  PAW double counting   =      1671.32378679    -1639.41528309
  entropy T*S    EENTRO =         0.00000000
  eigenvalues    EBANDS =      -251.25946993
  atomic energy  EATOM  =      2086.78124273
  Solvation  Ediel_sol  =         0.00000000
  ---------------------------------------------------
  free energy    TOTEN  =       -21.14128341 eV

  energy without entropy =      -21.14128341  energy(sigma->0) =      -21.14128341


--------------------------------------------------------------------------------------------------------




--------------------------------------- Iteration      1(   6)  ---------------------------------------


    POTLOK:  cpu time      1.5583: real time      0.1232
    SETDIJ:  cpu time      1.2172: real time      0.2635
    EDDIAG:  cpu time    569.6655: real time     28.1946
  RMM-DIIS:  cpu time   2460.6135: real time    109.3751
    ORTHCH:  cpu time      1.0828: real time      0.0724
 BZINTS: Fermi energy:    5.096533;   22.000000 electrons
         Band energy:-0.265245E+03;  BLOECHL correction:   -0.206572
       DOS:  cpu time      0.3061: real time      0.0298
    CHARGE:  cpu time     28.0863: real time      1.5788
    MIXING:  cpu time      0.0013: real time      0.0013
    --------------------------------------------
      LOOP:  cpu time   3062.5310: real time    139.6387

 eigenvalue-minimisations  :  4476
 total energy-change (2. order) : 0.7981602E+00  (-0.7964497E-01)
 number of electron      22.0000001 magnetization       0.1607919
 augmentation part        7.8860759 magnetization      -0.0536182

 Broyden mixing:
  rms(total) = 0.91639E+00    rms(broyden)= 0.91639E+00
  rms(prec ) = 0.11964E+01
  weight for this iteration     100.00

 eigenvalues of (default mixing * dielectric matrix)
  average eigenvalue GAMMA=   1.5029
  1.5029

 Free energy of the ion-electron system (eV)
  ---------------------------------------------------
  alpha Z        PSCENC =       247.02244180
  Ewald energy   TEWEN  =     -1908.57692376
  -Hartree energ DENC   =      -260.36011793
  -exchange      EXHF   =         0.00000000
  -V(xc)+E(xc)   XCENC  =        51.60912016
  PAW double counting   =      2187.86860367    -2159.44249812
  entropy T*S    EENTRO =         0.00000000
  eigenvalues    EBANDS =      -265.24499179
  atomic energy  EATOM  =      2086.78124273
  Solvation  Ediel_sol  =         0.00000000
  ---------------------------------------------------
  free energy    TOTEN  =       -20.34312324 eV

  energy without entropy =      -20.34312324  energy(sigma->0) =      -20.34312324


--------------------------------------------------------------------------------------------------------




--------------------------------------- Iteration      1(   7)  ---------------------------------------


    POTLOK:  cpu time      1.6199: real time      0.1320
    SETDIJ:  cpu time      1.0956: real time      0.2469
    EDDIAG:  cpu time     66.1307: real time      3.8809
  RMM-DIIS:  cpu time    265.4679: real time     14.8623
    ORTHCH:  cpu time      1.4229: real time      0.0907
 BZINTS: Fermi energy:    4.806211;   22.000000 electrons
         Band energy:-0.276972E+03;  BLOECHL correction:   -0.203208
       DOS:  cpu time      0.3334: real time      0.0303
    CHARGE:  cpu time     28.7404: real time      1.6264
    MIXING:  cpu time      0.0013: real time      0.0013
    --------------------------------------------
      LOOP:  cpu time    364.8120: real time     20.8708

 eigenvalue-minimisations  :  5563
 total energy-change (2. order) : 0.1477412E+00  (-0.2131011E+00)
 number of electron      22.0000001 magnetization       0.0388032
 augmentation part        8.0580077 magnetization       0.0361711

 Broyden mixing:
  rms(total) = 0.24536E+00    rms(broyden)= 0.24536E+00
  rms(prec ) = 0.26451E+00
  weight for this iteration     100.00

 eigenvalues of (default mixing * dielectric matrix)
  average eigenvalue GAMMA=   1.0774
  1.6195  0.5354

 Free energy of the ion-electron system (eV)
  ---------------------------------------------------
  alpha Z        PSCENC =       247.02244180
  Ewald energy   TEWEN  =     -1908.57692376
  -Hartree energ DENC   =      -244.69746071
  -exchange      EXHF   =         0.00000000
  -V(xc)+E(xc)   XCENC  =        50.83081681
  PAW double counting   =      2621.03552999    -2595.61927732
  entropy T*S    EENTRO =         0.00000000
  eigenvalues    EBANDS =      -276.97175154
  atomic energy  EATOM  =      2086.78124273
  Solvation  Ediel_sol  =         0.00000000
  ---------------------------------------------------
  free energy    TOTEN  =       -20.19538201 eV

  energy without entropy =      -20.19538201  energy(sigma->0) =      -20.19538201


--------------------------------------------------------------------------------------------------------




--------------------------------------- Iteration      1(   8)  ---------------------------------------


    POTLOK:  cpu time      1.7527: real time      0.1326
    SETDIJ:  cpu time      1.1215: real time      0.2589
    EDDIAG:  cpu time     79.1995: real time      4.5710
  RMM-DIIS:  cpu time    425.1174: real time     22.2477
    ORTHCH:  cpu time      1.6012: real time      0.0924
 BZINTS: Fermi energy:    4.817461;   22.000000 electrons
         Band energy:-0.276429E+03;  BLOECHL correction:   -0.203397
       DOS:  cpu time      0.2090: real time      0.0252
    CHARGE:  cpu time     31.1822: real time      1.7118
    MIXING:  cpu time      0.0021: real time      0.0020
    --------------------------------------------
      LOOP:  cpu time    540.1857: real time     29.0417

 eigenvalue-minimisations  :  5991
 total energy-change (2. order) :-0.1120147E-01  (-0.1049793E-01)
 number of electron      22.0000001 magnetization       0.0245350
 augmentation part        8.0645724 magnetization       0.0163266

 Broyden mixing:
  rms(total) = 0.11933E+00    rms(broyden)= 0.11933E+00
  rms(prec ) = 0.14794E+00
  weight for this iteration     100.00

 eigenvalues of (default mixing * dielectric matrix)
  average eigenvalue GAMMA=   1.0710
  1.8407  0.6861  0.6861

 Free energy of the ion-electron system (eV)
  ---------------------------------------------------
  alpha Z        PSCENC =       247.02244180
  Ewald energy   TEWEN  =     -1908.57692376
  -Hartree energ DENC   =      -245.04592556
  -exchange      EXHF   =         0.00000000
  -V(xc)+E(xc)   XCENC  =        50.84126218
  PAW double counting   =      2669.37520405    -2644.17450005
  entropy T*S    EENTRO =         0.00000000
  eigenvalues    EBANDS =      -276.42938487
  atomic energy  EATOM  =      2086.78124273
  Solvation  Ediel_sol  =         0.00000000
  ---------------------------------------------------
  free energy    TOTEN  =       -20.20658348 eV

  energy without entropy =      -20.20658348  energy(sigma->0) =      -20.20658348


--------------------------------------------------------------------------------------------------------




--------------------------------------- Iteration      1(   9)  ---------------------------------------


    POTLOK:  cpu time      1.4147: real time      0.1134
    SETDIJ:  cpu time      1.2182: real time      0.2697
    EDDIAG:  cpu time     83.1974: real time      4.6723
  RMM-DIIS:  cpu time    361.9889: real time     19.5336
    ORTHCH:  cpu time      1.2546: real time      0.0797
 BZINTS: Fermi energy:    4.826424;   22.000000 electrons
         Band energy:-0.276012E+03;  BLOECHL correction:   -0.203548
       DOS:  cpu time      0.2951: real time      0.0263
    CHARGE:  cpu time     30.5755: real time      1.7247
    MIXING:  cpu time      0.0901: real time      0.0018
    --------------------------------------------
      LOOP:  cpu time    480.0346: real time     26.4214

 eigenvalue-minimisations  :  5953
 total energy-change (2. order) : 0.9331693E-04  (-0.2397871E-02)
 number of electron      22.0000001 magnetization       0.0188002
 augmentation part        8.0647229 magnetization       0.0155414

 Broyden mixing:
  rms(total) = 0.96532E-01    rms(broyden)= 0.96532E-01
  rms(prec ) = 0.12342E+00
  weight for this iteration     100.00

 eigenvalues of (default mixing * dielectric matrix)
  average eigenvalue GAMMA=   1.1081
  2.1165  0.8547  0.8547  0.6063

 Free energy of the ion-electron system (eV)
  ---------------------------------------------------
  alpha Z        PSCENC =       247.02244180
  Ewald energy   TEWEN  =     -1908.57692376
  -Hartree energ DENC   =      -245.40353082
  -exchange      EXHF   =         0.00000000
  -V(xc)+E(xc)   XCENC  =        50.85787642
  PAW double counting   =      2710.22502286    -2685.10037792
  entropy T*S    EENTRO =         0.00000000
  eigenvalues    EBANDS =      -276.01224148
  atomic energy  EATOM  =      2086.78124273
  Solvation  Ediel_sol  =         0.00000000
  ---------------------------------------------------
  free energy    TOTEN  =       -20.20649016 eV

  energy without entropy =      -20.20649016  energy(sigma->0) =      -20.20649016


--------------------------------------------------------------------------------------------------------




--------------------------------------- Iteration      1(  10)  ---------------------------------------


    POTLOK:  cpu time      1.5145: real time      0.1282
    SETDIJ:  cpu time      1.1283: real time      0.2558
    EDDIAG:  cpu time     86.6714: real time      4.8779
  RMM-DIIS:  cpu time   1003.3190: real time     46.8554
    ORTHCH:  cpu time      1.6121: real time      0.1013
 BZINTS: Fermi energy:    4.849267;   22.000000 electrons
         Band energy:-0.275003E+03;  BLOECHL correction:   -0.203951
       DOS:  cpu time      0.2959: real time      0.0302
    CHARGE:  cpu time     29.7254: real time      1.6511
    MIXING:  cpu time      0.0016: real time      0.0016
    --------------------------------------------
      LOOP:  cpu time   1124.2682: real time     53.9015

 eigenvalue-minimisations  :  4751
 total energy-change (2. order) : 0.3404610E-02  (-0.6236402E-03)
 number of electron      22.0000001 magnetization      -0.0056922
 augmentation part        8.0559330 magnetization      -0.0025592

 Broyden mixing:
  rms(total) = 0.66650E-01    rms(broyden)= 0.66650E-01
  rms(prec ) = 0.73307E-01
  weight for this iteration     100.00

 eigenvalues of (default mixing * dielectric matrix)
  average eigenvalue GAMMA=   1.3596
  2.6566  1.3743  1.3743  0.6306  0.7623

 Free energy of the ion-electron system (eV)
  ---------------------------------------------------
  alpha Z        PSCENC =       247.02244180
  Ewald energy   TEWEN  =     -1908.57692376
  -Hartree energ DENC   =      -246.39452424
  -exchange      EXHF   =         0.00000000
  -V(xc)+E(xc)   XCENC  =        50.90516547
  PAW double counting   =      2791.50357006    -2766.44155601
  entropy T*S    EENTRO =         0.00000000
  eigenvalues    EBANDS =      -275.00250160
  atomic energy  EATOM  =      2086.78124273
  Solvation  Ediel_sol  =         0.00000000
  ---------------------------------------------------
  free energy    TOTEN  =       -20.20308555 eV

  energy without entropy =      -20.20308555  energy(sigma->0) =      -20.20308555


--------------------------------------------------------------------------------------------------------




--------------------------------------- Iteration      1(  11)  ---------------------------------------


    POTLOK:  cpu time      2.1468: real time      0.1661
    SETDIJ:  cpu time      1.1824: real time      0.2592
    EDDIAG:  cpu time    161.2206: real time      8.5352
  RMM-DIIS:  cpu time   1679.7105: real time     75.9707
    ORTHCH:  cpu time      1.4864: real time      0.0889
 BZINTS: Fermi energy:    4.859822;   22.000000 electrons
         Band energy:-0.274528E+03;  BLOECHL correction:   -0.204116
       DOS:  cpu time      0.2572: real time      0.0327
    CHARGE:  cpu time     34.6873: real time      1.8827
    MIXING:  cpu time      0.0014: real time      0.0014
    --------------------------------------------
      LOOP:  cpu time   1880.6926: real time     86.9370

 eigenvalue-minimisations  :  5433
 total energy-change (2. order) :-0.2206922E-03  (-0.5170953E-03)
 number of electron      22.0000001 magnetization      -0.0040533
 augmentation part        8.0498010 magnetization      -0.0003763

 Broyden mixing:
  rms(total) = 0.44559E-02    rms(broyden)= 0.44559E-02
  rms(prec ) = 0.59324E-02
  weight for this iteration     100.00

 eigenvalues of (default mixing * dielectric matrix)
  average eigenvalue GAMMA=   1.2684
  2.5916  1.4489  1.4489  0.7796  0.6231  0.7182

 Free energy of the ion-electron system (eV)
  ---------------------------------------------------
  alpha Z        PSCENC =       247.02244180
  Ewald energy   TEWEN  =     -1908.57692376
  -Hartree energ DENC   =      -246.81664083
  -exchange      EXHF   =         0.00000000
  -V(xc)+E(xc)   XCENC  =        50.92504741
  PAW double counting   =      2865.15230499    -2840.16262306
  entropy T*S    EENTRO =         0.00000000
  eigenvalues    EBANDS =      -274.52815553
  atomic energy  EATOM  =      2086.78124273
  Solvation  Ediel_sol  =         0.00000000
  ---------------------------------------------------
  free energy    TOTEN  =       -20.20330625 eV

  energy without entropy =      -20.20330625  energy(sigma->0) =      -20.20330625


--------------------------------------------------------------------------------------------------------




--------------------------------------- Iteration      1(  12)  ---------------------------------------


    POTLOK:  cpu time      2.1354: real time      0.1552
    SETDIJ:  cpu time      1.0378: real time      0.2505
    EDDIAG:  cpu time     79.3837: real time      4.4822
  RMM-DIIS:  cpu time    648.8801: real time     31.1953
    ORTHCH:  cpu time      2.2718: real time      0.1290
 BZINTS: Fermi energy:    4.859983;   22.000000 electrons
         Band energy:-0.274520E+03;  BLOECHL correction:   -0.204115
       DOS:  cpu time      0.2168: real time      0.0299
    --------------------------------------------
      LOOP:  cpu time    733.9255: real time     36.2421

 eigenvalue-minimisations  :  4001
 total energy-change (2. order) :-0.7831975E-04  (-0.5933741E-04)
 number of electron      22.0000001 magnetization      -0.0040533
 augmentation part        8.0498010 magnetization      -0.0003763

 Free energy of the ion-electron system (eV)
  ---------------------------------------------------
  alpha Z        PSCENC =       247.02244180
  Ewald energy   TEWEN  =     -1908.57692376
  -Hartree energ DENC   =      -246.84100251
  -exchange      EXHF   =         0.00000000
  -V(xc)+E(xc)   XCENC  =        50.92623255
  PAW double counting   =      2863.99993796    -2838.99489550
  entropy T*S    EENTRO =         0.00000000
  eigenvalues    EBANDS =      -274.52041784
  atomic energy  EATOM  =      2086.78124273
  Solvation  Ediel_sol  =         0.00000000
  ---------------------------------------------------
  free energy    TOTEN  =       -20.20338457 eV

  energy without entropy =      -20.20338457  energy(sigma->0) =      -20.20338457


--------------------------------------------------------------------------------------------------------




 average (electrostatic) potential at core
  the test charge radii are     1.2125
  (the norm of the test charge is              1.0000)
       1 -35.1667       2 -35.1667



 E-fermi :   4.8600     XC(G=0): -12.3438     alpha+bet :-12.7651

 Fermi energy:         4.8599831867

 spin component 1

 k-point     1 :       0.0000    0.0000    0.0000
  band No.  band energies     occupation 
      1     -25.8515      1.00000
      2     -25.7862      1.00000
      3     -25.7193      1.00000
      4     -24.9692      1.00000
      5     -24.8980      1.00000
      6     -24.8391      1.00000
      7      -1.0595      1.00000
      8       1.2001      1.00000
      9       1.2145      1.00000
     10       4.9126      0.44473
     11       5.1576     -0.02449
     12       5.4877      0.00000
     13       8.0557      0.00000
     14       8.1049      0.00000
     15       9.9649      0.00000
     16      10.2982      0.00000

 k-point     2 :       0.1429    0.0000    0.0000
  band No.  band energies     occupation 
      1     -25.8283      1.00000
      2     -25.7410      1.00000
      3     -25.7007      1.00000
      4     -25.0369      1.00000
      5     -24.9404      1.00000
      6     -24.9082      1.00000
      7      -0.6495      1.00000
      8       1.4312      1.00000
      9       1.5485      1.00000
     10       4.9989      0.36710
     11       5.1305      0.03506
     12       5.5609      0.00000
     13       7.5216      0.00000
     14       8.2659      0.00000
     15       9.0796      0.00000
     16       9.1525      0.00000

 k-point     3 :       0.2857    0.0000    0.0000
  band No.  band energies     occupation 
      1     -25.7814      1.00000
      2     -25.6148      1.00000
      3     -25.6057      1.00000
      4     -25.2414      1.00000
      5     -25.0602      1.00000
      6     -25.0555      1.00000
      7       0.4450      1.00000
      8       2.1038      1.00000
      9       2.2963      1.00000
     10       5.1501      0.45296
     11       5.1527      0.05702
     12       5.9902      0.00000
     13       6.1836      0.00000
     14       7.4997      0.00000
     15       7.5228      0.00000
     16       8.7651      0.00000

 k-point     4 :       0.4286    0.0000    0.0000
  band No.  band energies     occupation 
      1     -25.6830      1.00000
      2     -25.4924      1.00000
      3     -25.4352      1.00000
      4     -25.4340      1.00000
      5     -25.2384      1.00000
      6     -25.2358      1.00000
      7       1.7982      1.00000
      8       2.6123      1.00000
      9       3.1818      1.00000
     10       4.5675      0.99553
     11       5.4980     -0.23365
     12       5.5264     -0.00399
     13       6.2582      0.00000
     14       6.2731      0.00000
     15       6.8301      0.00000
     16       7.9213      0.00000

 k-point     5 :       0.1429    0.1429    0.0000
  band No.  band energies     occupation 
      1     -25.8047      1.00000
      2     -25.6879      1.00000
      3     -25.6763      1.00000
      4     -25.1187      1.00000
      5     -24.9908      1.00000
      6     -24.9678      1.00000
      7      -0.2486      1.00000
      8       1.7218      1.00000
      9       1.8455      1.00000
     10       4.9816      0.47262
     11       5.1593     -0.04366
     12       5.7625      0.00000
     13       7.3794      0.00000
     14       8.0192      0.00000
     15       8.0826      0.00000
     16       8.2614      0.00000

 k-point     6 :       0.2857    0.1429    0.0000
  band No.  band energies     occupation 
      1     -25.8587      1.00000
      2     -25.5627      1.00000
      3     -25.4878      1.00000
      4     -25.4066      1.00000
      5     -25.1070      1.00000
      6     -25.0119      1.00000
      7       0.7234      1.00000
      8       2.2837      1.00000
      9       2.6247      1.00000
     10       4.6697      0.98348
     11       5.0118      0.28948
     12       6.4843     -0.03996
     13       6.6182      0.00000
     14       6.7139      0.00000
     15       6.9538      0.00000
     16       8.4491      0.00000

 k-point     7 :       0.4286    0.1429    0.0000
  band No.  band energies     occupation 
      1     -25.8267      1.00000
      2     -25.6870      1.00000
      3     -25.3923      1.00000
      4     -25.2731      1.00000
      5     -25.2689      1.00000
      6     -25.1298      1.00000
      7       1.8046      1.00000
      8       2.5417      1.00000
      9       3.4288      1.00000
     10       4.4155      1.00000
     11       4.7382      0.84646
     12       5.2716     -0.01858
     13       6.3294      0.00000
     14       6.4262      0.00000
     15       7.8693      0.00000
     16       8.9431      0.00000

 k-point     8 :      -0.4286    0.1429    0.0000
  band No.  band energies     occupation 
      1     -25.8779      1.00000
      2     -25.6822      1.00000
      3     -25.4467      1.00000
      4     -25.2853      1.00000
      5     -25.2127      1.00000
      6     -25.0661      1.00000
      7       1.7840      1.00000
      8       2.3991      1.00000
      9       3.4493      1.00000
     10       4.2516      1.00639
     11       4.5564      0.97852
     12       5.2895     -0.01422
     13       6.4889      0.00000
     14       6.5414      0.00000
     15       7.9166      0.00000
     16       9.1376      0.00000

 k-point     9 :      -0.2857    0.1429    0.0000
  band No.  band energies     occupation 
      1     -25.9500      1.00000
      2     -25.6052      1.00000
      3     -25.4511      1.00000
      4     -25.4439      1.00000
      5     -25.0607      1.00000
      6     -24.9085      1.00000
      7       0.6378      1.00000
      8       2.0921      1.00000
      9       2.6512      1.00000
     10       4.3300      1.02756
     11       4.6428      0.95346
     12       6.3314     -0.05118
     13       6.9666      0.00000
     14       7.0008      0.00000
     15       7.1063      0.00000
     16       8.6905      0.00000

 k-point    10 :      -0.1429    0.1429    0.0000
  band No.  band energies     occupation 
      1     -25.9225      1.00000
      2     -25.7110      1.00000
      3     -25.5835      1.00000
      4     -25.2083      1.00000
      5     -24.9646      1.00000
      6     -24.8438      1.00000
      7      -0.3077      1.00000
      8       1.6149      1.00000
      9       1.8597      1.00000
     10       4.5140      1.07213
     11       4.8825      0.56095
     12       6.2225     -0.01927
     13       7.7458      0.00000
     14       7.8053      0.00000
     15       8.1470      0.00000
     16       8.1478      0.00000

 k-point    11 :       0.2857    0.2857    0.0000
  band No.  band energies     occupation 
      1     -25.9918      1.00000
      2     -25.7109      1.00000
      3     -25.4604      1.00000
      4     -25.2656      1.00000
      5     -25.1937      1.00000
      6     -24.9649      1.00000
      7       1.1966      1.00000
      8       2.2618      1.00000
      9       3.5979      1.00000
     10       4.0269      1.00000
     11       5.0340      0.49706
     12       5.0724      0.04560
     13       6.5102      0.00000
     14       7.4311      0.00000
     15       8.0659      0.00000
     16       8.1155      0.00000

 k-point    12 :       0.4286    0.2857    0.0000
  band No.  band energies     occupation 
      1     -26.0289      1.00000
      2     -25.9639      1.00000
      3     -25.3320      1.00000
      4     -25.3079      1.00000
      5     -25.0625      1.00000
      6     -25.0056      1.00000
      7       1.5159      1.00000
      8       1.9153      1.00000
      9       3.8300      1.00000
     10       4.0818      1.00000
     11       4.5872      0.91045
     12       5.2582     -0.03115
     13       7.0544      0.00000
     14       7.4694      0.00000
     15       8.7320      0.00000
     16       9.4493      0.00000

 k-point    13 :      -0.4286    0.2857    0.0000
  band No.  band energies     occupation 
      1     -26.0930      1.00000
      2     -25.9327      1.00000
      3     -25.4307      1.00000
      4     -25.2070      1.00000
      5     -25.1147      1.00000
      6     -24.9142      1.00000
      7       1.4907      1.00000
      8       1.7786      1.00000
      9       3.6339      1.00000
     10       4.1683      1.00000
     11       4.7036      0.72422
     12       4.9963      0.04900
     13       6.9718      0.00000
     14       7.7088      0.00000
     15       9.1085      0.00000
     16       9.3343      0.00000

 k-point    14 :      -0.2857    0.2857    0.0000
  band No.  band energies     occupation 
      1     -26.0786      1.00000
      2     -25.7183      1.00000
      3     -25.5380      1.00000
      4     -25.2675      1.00000
      5     -25.1113      1.00000
      6     -24.8546      1.00000
      7       1.0824      1.00000
      8       2.0028      1.00000
      9       3.6726      1.00000
     10       3.7393      1.00000
     11       4.6684      0.87402
     12       5.0383      0.10176
     13       6.5073      0.00000
     14       7.9496      0.00000
     15       8.1991      0.00000
     16       8.4743      0.00000

 k-point    15 :       0.4286    0.4286    0.0000
  band No.  band energies     occupation 
      1     -26.1552      1.00000
      2     -26.1375      1.00000
      3     -25.3512      1.00000
      4     -25.2708      1.00000
      5     -24.9628      1.00000
      6     -24.9171      1.00000
      7       1.2362      1.00000
      8       1.3805      1.00000
      9       3.3565      1.00000
     10       3.3845      1.00000
     11       6.0120     -0.18375
     12       6.7487     -0.00800
     13       7.8680      0.00000
     14       7.9733      0.00000
     15       8.4038      0.00000
     16       9.7679      0.00000

 k-point    16 :      -0.4286    0.4286    0.0000
  band No.  band energies     occupation 
      1     -26.2005      1.00000
      2     -26.1038      1.00000
      3     -25.3950      1.00000
      4     -25.2261      1.00000
      5     -25.0022      1.00000
      6     -24.8633      1.00000
      7       1.2404      1.00000
      8       1.3164      1.00000
      9       3.2052      1.00000
     10       3.4982      1.00000
     11       6.2781     -0.12624
     12       6.3001     -0.08905
     13       7.5426      0.00000
     14       8.2911      0.00000
     15       8.9059      0.00000
     16       9.5760      0.00000

 k-point    17 :       0.0000    0.0000    0.1429
  band No.  band energies     occupation 
      1     -25.8009      1.00000
      2     -25.7890      1.00000
      3     -25.6802      1.00000
      4     -25.0039      1.00000
      5     -24.9932      1.00000
      6     -24.8884      1.00000
      7      -0.6499      1.00000
      8       1.4416      1.00000
      9       1.5398      1.00000
     10       4.9196      0.64434
     11       5.3536     -0.07078
     12       5.4177      0.00000
     13       7.4859      0.00000
     14       8.3043      0.00000
     15       8.8945      0.00000
     16       9.4318      0.00000

 k-point    18 :       0.1429    0.0000    0.1429
  band No.  band energies     occupation 
      1     -25.8771      1.00000
      2     -25.6975      1.00000
      3     -25.6185      1.00000
      4     -25.1651      1.00000
      5     -25.0020      1.00000
      6     -24.8800      1.00000
      7      -0.2787      1.00000
      8       1.6772      1.00000
      9       1.8448      1.00000
     10       4.6800      0.99255
     11       5.0642      0.12581
     12       5.9991     -0.00652
     13       7.5817      0.00000
     14       7.8446      0.00000
     15       8.1139      0.00000
     16       8.2734      0.00000

 k-point    19 :       0.2857    0.0000    0.1429
  band No.  band energies     occupation 
      1     -25.9104      1.00000
      2     -25.5788      1.00000
      3     -25.4650      1.00000
      4     -25.4279      1.00000
      5     -25.1019      1.00000
      6     -24.9432      1.00000
      7       0.6800      1.00000
      8       2.1920      1.00000
      9       2.6325      1.00000
     10       4.4808      1.01847
     11       4.8246      0.75298
     12       6.4169     -0.04612
     13       6.8297      0.00000
     14       6.9054      0.00000
     15       6.9554      0.00000
     16       8.5767      0.00000

 k-point    20 :       0.4286    0.0000    0.1429
  band No.  band energies     occupation 
      1     -25.8541      1.00000
      2     -25.6842      1.00000
      3     -25.4225      1.00000
      4     -25.2744      1.00000
      5     -25.2524      1.00000
      6     -25.0868      1.00000
      7       1.7934      1.00000
      8       2.4681      1.00000
      9       3.4434      1.00000
     10       4.3419      1.00450
     11       4.6453      0.92400
     12       5.2880     -0.03160
     13       6.4037      0.00000
     14       6.4771      0.00000
     15       7.8884      0.00000
     16       9.0270      0.00000

 k-point    21 :       0.1429    0.1429    0.1429
  band No.  band energies     occupation 
      1     -25.8421      1.00000
      2     -25.7615      1.00000
      3     -25.4997      1.00000
      4     -25.2922      1.00000
      5     -25.0070      1.00000
      6     -24.9214      1.00000
      7       0.1026      1.00000
      8       2.0155      1.00000
      9       2.0720      1.00000
     10       4.6069      1.00508
     11       4.7786      0.67672
     12       6.5221     -0.04248
     13       6.5247      0.00000
     14       7.6879      0.00000
     15       7.8302      0.00000
     16       9.1162      0.00000

 k-point    22 :       0.2857    0.1429    0.1429
  band No.  band energies     occupation 
      1     -25.8743      1.00000
      2     -25.6863      1.00000
      3     -25.5487      1.00000
      4     -25.3134      1.00000
      5     -25.0766      1.00000
      6     -25.0028      1.00000
      7       1.0121      1.00000
      8       2.5670      1.00000
      9       2.7674      1.00000
     10       4.3729      1.01204
     11       4.4416      1.04879
     12       5.1859      0.10195
     13       7.0206      0.00000
     14       7.6370      0.00000
     15       7.8344      0.00000
     16       8.3852      0.00000

 k-point    23 :       0.4286    0.1429    0.1429
  band No.  band energies     occupation 
      1     -25.8693      1.00000
      2     -25.7877      1.00000
      3     -25.4950      1.00000
      4     -25.2602      1.00000
      5     -25.1381      1.00000
      6     -25.0887      1.00000
      7       1.9697      1.00000
      8       2.7056      1.00000
      9       3.2761      1.00000
     10       3.8987      1.00000
     11       4.7201      0.93510
     12       4.8006      0.38127
     13       6.5530      0.00000
     14       6.9279      0.00000
     15       8.5492      0.00000
     16       8.9324      0.00000

 k-point    24 :      -0.4286    0.1429    0.1429
  band No.  band energies     occupation 
      1     -25.9285      1.00000
      2     -25.7475      1.00000
      3     -25.4750      1.00000
      4     -25.2801      1.00000
      5     -25.2062      1.00000
      6     -24.9977      1.00000
      7       1.9221      1.00000
      8       2.6632      1.00000
      9       3.1912      1.00000
     10       3.8578      1.00870
     11       4.4940      1.00096
     12       4.9994      0.08677
     13       6.8257      0.00000
     14       6.8372      0.00000
     15       8.6158      0.00000
     16       8.8832      0.00000

 k-point    25 :      -0.2857    0.1429    0.1429
  band No.  band energies     occupation 
      1     -25.9435      1.00000
      2     -25.6715      1.00000
      3     -25.5330      1.00000
      4     -25.3420      1.00000
      5     -25.0876      1.00000
      6     -24.9153      1.00000
      7       0.9323      1.00000
      8       2.4597      1.00000
      9       2.7319      1.00000
     10       4.2103      1.01435
     11       4.2431      1.07327
     12       5.1706      0.09301
     13       7.3980      0.00000
     14       7.7004      0.00000
     15       7.8353      0.00000
     16       8.5441      0.00000

[...]
  band No.  band energies     occupation 
      1     -25.8584      1.00000
      2     -25.7283      1.00000
      3     -25.5020      1.00000
      4     -25.2615      1.00000
      5     -25.2058      1.00000
      6     -25.0897      1.00000
      7       1.9384      1.00000
      8       2.6726      1.00000
      9       3.3135      1.00000
     10       3.9687      1.00560
     11       4.6480      0.93126
     12       4.8828      0.35956
     13       6.5548      0.00000
     14       6.8321      0.00000
     15       8.5019      0.00000
     16       8.9345      0.00000

 k-point    59 :       0.2857    0.2857    0.4286
  band No.  band energies     occupation 
      1     -25.9938      1.00000
      2     -25.9812      1.00000
      3     -25.5877      1.00000
      4     -25.3586      1.00000
      5     -25.0255      1.00000
      6     -24.9962      1.00000
      7       2.5991      1.00000
      8       2.6129      1.00000
      9       3.3604      1.00000
     10       3.3960      1.00000
     11       4.1379      1.01082
     12       4.5320      0.90696
     13       8.2267      0.00000
     14       8.2379      0.00000
     15       8.6500      0.00000
     16       8.8091      0.00000

 k-point    60 :       0.4286    0.2857    0.4286
  band No.  band energies     occupation 
      1     -25.9880      1.00000
      2     -25.9409      1.00000
      3     -25.5577      1.00000
      4     -25.4002      1.00000
      5     -25.1391      1.00000
      6     -25.0605      1.00000
      7       2.5458      1.00000
      8       2.6813      1.00000
      9       3.2464      1.00000
     10       3.3408      1.00000
     11       4.7283      0.78995
     12       4.9301      0.44348
     13       8.4607      0.00000
     14       8.5083      0.00000
     15       8.7128      0.00000
     16       8.8649      0.00000

 k-point    61 :      -0.4286    0.2857    0.4286
  band No.  band energies     occupation 
      1     -25.9325      1.00000
      2     -25.9192      1.00000
      3     -25.5272      1.00000
      4     -25.4156      1.00000
      5     -25.1522      1.00000
      6     -25.1483      1.00000
      7       2.5452      1.00000
      8       2.6677      1.00000
      9       3.2532      1.00000
     10       3.5248      1.00000
     11       4.7511      0.87887
     12       4.8807      0.65602
     13       8.2959      0.00000
     14       8.4699      0.00000
     15       8.7707      0.00000
     16       8.8007      0.00000

 k-point    62 :      -0.2857    0.2857    0.4286
  band No.  band energies     occupation 
      1     -25.8952      1.00000
      2     -25.8885      1.00000
      3     -25.6056      1.00000
      4     -25.3328      1.00000
      5     -25.1276      1.00000
      6     -25.1128      1.00000
      7       2.5495      1.00000
      8       2.6055      1.00000
      9       3.6019      1.00000
     10       3.7302      1.00000
     11       4.1211      1.00000
     12       4.3971      1.06816
     13       7.9046      0.00000
     14       7.9724      0.00000
     15       8.7899      0.00000
     16       8.7932      0.00000

 k-point    63 :       0.4286    0.4286    0.4286
  band No.  band energies     occupation 
      1     -25.8330      1.00000
      2     -25.6910      1.00000
      3     -25.6805      1.00000
      4     -25.4186      1.00000
      5     -25.3892      1.00000
      6     -25.2373      1.00000
      7       3.0637      1.00000
      8       3.3665      1.00000
      9       3.4855      1.00000
     10       3.8615      1.00000
     11       4.1132      1.00000
     12       4.1897      1.18297
     13       8.7074      0.00000
     14       8.7509      0.00000
     15       8.8342      0.00000
     16       8.8590      0.00000

 k-point    64 :      -0.4286    0.4286    0.4286
  band No.  band energies     occupation 
      1     -25.7795      1.00000
      2     -25.6875      1.00000
      3     -25.6744      1.00000
      4     -25.4132      1.00000
      5     -25.3895      1.00000
      6     -25.3093      1.00000
      7       3.0221      1.00000
      8       3.4388      1.00000
      9       3.5678      1.00000
     10       3.9497      1.00000
     11       3.9564      1.00000
     12       4.2085      1.06096
     13       8.6804      0.00000
     14       8.7204      0.00000
     15       8.7986      0.00000
     16       8.8586      0.00000


--------------------------------------------------------------------------------------------------------


 soft charge-density along one line, spin component           1
         0         1         2         3         4         5         6         7         8         9
 total charge-density along one line

 soft charge-density along one line, spin component           2
         0         1         2         3         4         5         6         7         8         9
 total charge-density along one line

 pseudopotential strength for first ion, spin component:           1
-28.107   0.000   0.006   5.977  -0.000  -0.005  -0.000  -0.000
  0.000 -28.105  -0.000  -0.000   5.976   0.000  -0.000  -0.000
  0.006  -0.000 -28.107  -0.005   0.000   5.977  -0.000  -0.000
  5.977  -0.000  -0.005   4.218   0.000   0.003   0.000   0.000
 -0.000   5.976   0.000   0.000   4.219   0.000   0.000   0.000
 -0.005   0.000   5.977   0.003   0.000   4.218   0.000   0.000
 -0.000  -0.000  -0.000   0.000   0.000   0.000  -6.357  -0.000
 -0.000  -0.000  -0.000   0.000   0.000   0.000  -0.000  -6.357
  0.000  -0.000   0.000  -0.000   0.000  -0.000  -0.002   0.000
 -0.000  -0.000  -0.000   0.000   0.000   0.000   0.000   0.001
  0.000  -0.000  -0.000  -0.000   0.000   0.000   0.000  -0.000
 -0.000  -0.000  -0.000   0.000   0.000   0.000  -7.214  -0.000
 -0.000  -0.000  -0.000   0.000   0.000   0.000  -0.000  -7.214
  0.000  -0.000   0.000  -0.000   0.000  -0.000  -0.002   0.000
 -0.000  -0.000  -0.000   0.000   0.000   0.000   0.000   0.002
  0.000  -0.000  -0.000  -0.000   0.000   0.000   0.000  -0.000
  0.000   0.000   0.000   0.000  -0.000   0.000  -0.003  -0.000
 -0.000  -0.000  -0.000  -0.000  -0.000  -0.000   0.007   0.000
 pseudopotential strength for first ion, spin component:           2
-28.107   0.000   0.007   5.977  -0.000  -0.005  -0.000  -0.000
  0.000 -28.105   0.000  -0.000   5.976  -0.000  -0.000  -0.000
  0.007   0.000 -28.107  -0.005  -0.000   5.977  -0.000  -0.000
  5.977  -0.000  -0.005   4.218   0.000   0.003   0.000   0.000
 -0.000   5.976  -0.000   0.000   4.218   0.000   0.000   0.000
 -0.005  -0.000   5.977   0.003   0.000   4.218   0.000   0.000
 -0.000  -0.000  -0.000   0.000   0.000   0.000  -6.358  -0.000
 -0.000  -0.000  -0.000   0.000   0.000   0.000  -0.000  -6.357
  0.000  -0.000   0.000  -0.000   0.000  -0.000  -0.002   0.000
 -0.000  -0.000  -0.000   0.000   0.000   0.000   0.000   0.001
  0.000  -0.000  -0.000  -0.000   0.000   0.000   0.000  -0.000
 -0.000  -0.000  -0.000   0.000   0.000   0.000  -7.215  -0.000
 -0.000  -0.000  -0.000   0.000   0.000   0.000  -0.000  -7.214
  0.000  -0.000   0.000  -0.000   0.000  -0.000  -0.002   0.000
 -0.000  -0.000  -0.000   0.000   0.000   0.000   0.000   0.002
  0.000  -0.000  -0.000  -0.000   0.000   0.000   0.000  -0.000
  0.000   0.000   0.000   0.000  -0.000   0.000  -0.003  -0.000
 -0.000  -0.000  -0.000  -0.000  -0.000  -0.000   0.007   0.000
 total augmentation occupancy for first ion, spin component:           1
  1.993   0.000   0.000  -0.013  -0.000   0.002   0.000   0.000   0.000   0.000  -0.000   0.000   0.000   0.000   0.000   0.000
  0.000   1.993   0.000  -0.000  -0.013  -0.000   0.000   0.000   0.000   0.000   0.000   0.000   0.000   0.000   0.000   0.000
  0.000   0.000   1.993   0.002  -0.000  -0.013   0.000   0.000   0.000   0.000  -0.000   0.000   0.000   0.000   0.000   0.000
 -0.013  -0.000   0.002   0.203   0.000  -0.007   0.000   0.000   0.000   0.000   0.000   0.000   0.000   0.000   0.000   0.000
 -0.000  -0.013  -0.000   0.000   0.204   0.000   0.000   0.000   0.000   0.000   0.000   0.000  -0.000   0.000   0.000   0.000
  0.002  -0.000  -0.013  -0.007   0.000   0.203   0.000   0.000   0.000   0.000   0.000   0.000   0.000   0.000  -0.000  -0.000
  0.000   0.000   0.000   0.000  -0.000   0.000   6.001   0.000  -0.103   0.000   0.000  -3.344  -0.000   0.075  -0.000   0.000
 -0.000  -0.000   0.000   0.000   0.000   0.000   0.000   6.016   0.000   0.215  -0.000  -0.000  -3.352  -0.000  -0.107   0.000
  0.000   0.000   0.000  -0.000   0.000  -0.000  -0.103   0.000   5.639   0.000   0.000   0.074  -0.000  -3.326  -0.000  -0.000
  0.000  -0.000  -0.000   0.000   0.000   0.000   0.000   0.215   0.000   6.016   0.000  -0.000  -0.107  -0.000  -3.352  -0.000
  0.000   0.000   0.000   0.000   0.000   0.000   0.000  -0.000   0.000   0.000   5.627   0.000   0.000  -0.000  -0.000  -3.318
  0.000   0.000   0.000   0.000   0.000   0.000  -3.344  -0.000   0.074  -0.000   0.000   1.901   0.000  -0.051   0.000  -0.000
 -0.000  -0.000   0.000   0.000   0.000   0.000  -0.000  -3.352  -0.000  -0.107   0.000   0.000   1.906   0.000   0.057  -0.000
  0.000   0.000   0.000   0.000   0.000   0.000   0.075  -0.000  -3.326  -0.000  -0.000  -0.051   0.000   1.980   0.000   0.000
  0.000   0.000   0.000   0.000   0.000  -0.000  -0.000  -0.107  -0.000  -3.352  -0.000   0.000   0.057   0.000   1.906   0.000
  0.000   0.000   0.000   0.000   0.000  -0.000   0.000   0.000  -0.000  -0.000  -3.318  -0.000  -0.000   0.000   0.000   1.975
  0.000  -0.000   0.000   0.000   0.000   0.000   0.057   0.000   0.004  -0.000   0.000  -0.026   0.000  -0.001   0.000   0.000
  0.000   0.000   0.000   0.000   0.000   0.000   0.001   0.000   0.000   0.000   0.000  -0.001  -0.000  -0.000  -0.000   0.000
 total augmentation occupancy for first ion, spin component:           2
  0.000   0.000   0.000   0.000   0.000   0.000   0.000   0.000   0.000   0.000   0.000   0.000  -0.000   0.000   0.000  -0.000
  0.000   0.000   0.000   0.000   0.000   0.000   0.000   0.000   0.000   0.000   0.000   0.000  -0.000   0.000   0.000   0.000
  0.000   0.000   0.000   0.000   0.000   0.000   0.000  -0.000   0.000   0.000   0.000   0.000  -0.000   0.000   0.000   0.000
  0.000   0.000   0.000  -0.000  -0.000   0.000   0.000   0.000  -0.000   0.000   0.000   0.000   0.000   0.000   0.000   0.000
  0.000   0.000   0.000  -0.000  -0.000  -0.000   0.000  -0.000   0.000   0.000  -0.000  -0.000   0.000   0.000   0.000   0.000
  0.000   0.000   0.000   0.000  -0.000  -0.000   0.000   0.000   0.000   0.000   0.000   0.000   0.000   0.000   0.000  -0.000
  0.000   0.000   0.000   0.000  -0.000   0.000  -0.004  -0.000  -0.001  -0.000   0.000   0.001   0.000   0.000   0.000  -0.000
  0.000   0.000   0.000   0.000   0.000   0.000  -0.000  -0.000   0.000   0.001   0.000   0.000   0.000  -0.000  -0.001  -0.000
 -0.000   0.000   0.000   0.000   0.000   0.000  -0.001   0.000  -0.007   0.000  -0.000   0.000  -0.000   0.005  -0.000   0.000
  0.000   0.000   0.000   0.000  -0.000   0.000  -0.000   0.001   0.000  -0.000  -0.000   0.000  -0.001  -0.000   0.000   0.000
  0.000   0.000   0.000   0.000  -0.000  -0.000   0.000   0.000  -0.000  -0.000  -0.007  -0.000  -0.000   0.000   0.000   0.005
  0.000   0.000   0.000   0.000  -0.000   0.000   0.001   0.000   0.000   0.000  -0.000  -0.000  -0.000   0.000  -0.000   0.000
  0.000   0.000   0.000   0.000  -0.000   0.000   0.000   0.000  -0.000  -0.001  -0.000  -0.000  -0.000   0.000   0.001   0.000
 -0.000   0.000  -0.000   0.000   0.000   0.000   0.000  -0.000   0.005  -0.000   0.000   0.000   0.000  -0.004   0.000  -0.000
  0.000   0.000   0.000   0.000   0.000   0.000   0.000  -0.001  -0.000   0.000   0.000  -0.000   0.001   0.000  -0.000  -0.000
  0.000   0.000   0.000   0.000  -0.000  -0.000  -0.000  -0.000   0.000   0.000   0.005   0.000   0.000  -0.000  -0.000  -0.004
  0.000   0.000   0.000   0.000   0.000   0.000   0.001   0.000   0.000   0.000   0.000  -0.001  -0.000  -0.000  -0.000  -0.000
  0.000   0.000   0.000   0.000  -0.000   0.000  -0.000   0.000  -0.000   0.000  -0.000   0.000  -0.000   0.000  -0.000   0.000


------------------------ aborting loop because EDIFF is reached ----------------------------------------





 total charge

# of ion       s       p       d       tot
------------------------------------------
    1        0.419   6.290   3.087   9.795
    2        0.419   6.290   3.087   9.795
--------------------------------------------------
tot          0.838  12.579   6.173  19.590



 magnetization (x)

# of ion       s       p       d       tot
------------------------------------------
    1       -0.000  -0.000  -0.001  -0.001
    2       -0.000  -0.000  -0.001  -0.001
--------------------------------------------------
tot         -0.000  -0.000  -0.001  -0.002

    CHARGE:  cpu time     28.9094: real time      1.6256
    FORLOC:  cpu time      0.0005: real time      0.0005
    FORNL :  cpu time    149.4158: real time      8.1122
    STRESS:  cpu time   1767.4187: real time     83.4546
    FORCOR:  cpu time      1.2342: real time      0.1096
    FORHAR:  cpu time      0.2100: real time      0.0131
    MIXING:  cpu time      0.0961: real time      0.0018
    OFIELD:  cpu time      0.0000: real time      0.0000

  FORCE on cell =-STRESS in cart. coord.  units (eV):
  Direction    XX          YY          ZZ          XY          YZ          ZX
  --------------------------------------------------------------------------------------
  Alpha Z   247.02244   247.02244   247.02244
  Ewald    -636.63118  -636.63118  -635.31479    15.59406    -0.00000    -0.00000
  Hartree    82.07114    82.07114    82.69886     6.05346    -0.00000    -0.00000
  E(xc)     -95.07486   -95.07486   -95.07340    -0.00503    -0.00000     0.00000
  Local     204.24842   204.24842   202.26832   -21.21078    -0.00000    -0.00000
  n-local   -88.20260   -81.22680   -84.69165    -0.49673    -0.18363     0.85468
  augment    53.53953    53.53953    53.55866     0.05172     0.00000    -0.00000
  Kinetic   222.43427   236.50964   229.50717     0.06559    -1.10757     0.13256
  Fock        0.00000     0.00000     0.00000     0.00000     0.00000     0.00000
  -------------------------------------------------------------------------------------
  Total      -0.06725    -0.06725    -0.02438     0.05008     0.00000     0.00000
  in kB      -2.93976    -2.93976    -1.06581     2.18930     0.00000     0.00000
  external pressure =       -2.32 kB  Pullay stress =        0.00 kB


 VOLUME and BASIS-vectors are now :
 -----------------------------------------------------------------------------
  energy-cutoff  :      520.00
  volume of cell :       36.65
      direct lattice vectors                 reciprocal lattice vectors
     3.322222359 -0.066444447  0.000000000     0.301123782  0.006022476 -0.000000000
    -0.066444447  3.322222359  0.000000000     0.006022476  0.301123782 -0.000000000
     0.000000000  0.000000000  3.322222359    -0.000000000 -0.000000000  0.301003332

  length of vectors
     3.322886737  3.322886737  3.322222359     0.301184000  0.301184000  0.301003332


 FORCES acting on ions
    electron-ion (+dipol)            ewald-force                    non-local-force                 convergence-correction
 -----------------------------------------------------------------------------------------------
   -.830E-14 -.117E-13 -.147E-13   -.844E-14 -.804E-15 -.429E-14   0.499E-21 0.301E-21 -.102E-21   -.310E-14 -.157E-13 0.346E-13
   0.589E-13 0.151E-11 0.160E-11   0.517E-14 0.158E-14 0.388E-14   -.937E-21 0.193E-21 0.341E-22   -.834E-14 -.585E-13 -.332E-13
 -----------------------------------------------------------------------------------------------
   0.506E-13 0.150E-11 0.158E-11   -.327E-14 0.777E-15 -.415E-15   -.438E-21 0.494E-21 -.682E-22   -.114E-13 -.741E-13 0.143E-14


 POSITION                                       TOTAL-FORCE (eV/Angst)
 -----------------------------------------------------------------------------------
      0.00000      0.00000      0.00000        -0.000000      0.000000      0.000000
      1.62789      1.62789      1.66111         0.000000     -0.000000     -0.000000
 -----------------------------------------------------------------------------------
    total drift:                                0.000000      0.000000      0.000000


--------------------------------------------------------------------------------------------------------



  FREE ENERGIE OF THE ION-ELECTRON SYSTEM (eV)
  ---------------------------------------------------
  free  energy   TOTEN  =       -20.20338457 eV

  energy  without entropy=      -20.20338457  energy(sigma->0) =      -20.20338457



--------------------------------------------------------------------------------------------------------


    POTLOK:  cpu time      2.7691: real time      0.3801


--------------------------------------------------------------------------------------------------------


     LOOP+:  cpu time  14936.7879: real time    728.5181
 -----------------------------------------------------------------------------
|                                                                             |
|           W    W    AA    RRRRR   N    N  II  N    N   GGGG   !!!           |
|           W    W   A  A   R    R  NN   N  II  NN   N  G    G  !!!           |
|           W    W  A    A  R    R  N N  N  II  N N  N  G       !!!           |
|           W WW W  AAAAAA  RRRRR   N  N N  II  N  N N  G  GGG   !            |
|           WW  WW  A    A  R   R   N   NN  II  N   NN  G    G                |
|           W    W  A    A  R    R  N    N  II  N    N   GGGG   !!!           |
|                                                                             |
|     Tetrahedron method does not include variations of the Fermi             |
|     occupations, so forces and stress will be inaccurate. We suggest        |
|     using a different smearing scheme ISMEAR = 1 or 2 for metals in         |
|     relaxations.                                                            |
|                                                                             |
 -----------------------------------------------------------------------------

    4ORBIT:  cpu time      0.0000: real time      0.0000



 total charge

# of ion       s       p       d       tot
------------------------------------------
    1        0.419   6.290   3.087   9.795
    2        0.419   6.290   3.087   9.795
--------------------------------------------------
tot          0.838  12.579   6.173  19.590



 magnetization (x)

# of ion       s       p       d       tot
------------------------------------------
    1       -0.000  -0.000  -0.001  -0.001
    2       -0.000  -0.000  -0.001  -0.001
--------------------------------------------------
tot         -0.000  -0.000  -0.001  -0.002

 BZINTS: Fermi energy:    4.859983;   22.000000 electrons
         Band energy:-0.274520E+03;  BLOECHL correction:   -0.204115

 total amount of memory used by VASP MPI-rank0    91178. kBytes
=======================================================================

   base      :      30000. kBytes
   nonlr-proj:       6266. kBytes
   fftplans  :       6192. kBytes
   grid      :      14776. kBytes
   one-center:         62. kBytes
   wavefun   :      33882. kBytes

  
  
 General timing and accounting informations for this job:
 ========================================================
  
                  Total CPU time used (sec):    14988.202
                            User time (sec):    14745.867
                          System time (sec):      242.335
                         Elapsed time (sec):      732.034
  
                   Maximum memory used (kb):      323872.
                   Average memory used (kb):          N/A
  
                          Minor page faults:      7232744
                          Major page faults:          118
                 Voluntary context switches:      2458230
