 vasp.6.4.1 05Apr23 (build Jul 24 2024 14:19:02) complex                         
 executed on             LinuxGNU date 2024.10.23  15:59:51
 running    1 mpi-ranks, with   24 threads/rank, on    1 nodes
 distrk:  each k-point on    1 cores,    1 groups
 distr:  one band on NCORE=   1 cores,    1 groups


--------------------------------------------------------------------------------------------------------


 INCAR:
   ISTART = 0
   ALGO = Fast
   EDIFF = 0.0001
   ENCUT = 520
   IBRION = -1
   ISIF = 2
   ISMEAR = -5
   ISPIN = 2
   LASPH = True
   LMAXMIX = 6
   LORBIT = 11
   LREAL = Auto
   LWAVE = False
   MAGMOM = 2*0.6
   NELM = 100
   NSW = 0
   PREC = Accurate
   SIGMA = 0.05

 POTCAR:    PAW_PBE Nb_pv 08Apr2002               
 POTCAR:    PAW_PBE Nb_pv 08Apr2002               
   SHA256 =  bac2b60850b34f8515cf56f9feae68b678e347865051052a0e1f5d2c6a691c0a Nb_pv/POTCAR          
   COPYR  = (c) Copyright 08Apr2002 Georg Kresse                                                    
   COPYR  = This file is part of the software VASP. Any use, copying, and all other rights are regul
   COPYR  = If you do not have a valid VASP license, you may not use, copy or distribute this file. 
   VRHFIN =Nb: 4p5s4d                                                                               
   LEXCH  = PE                                                                                      
   EATOM  =  1043.3917 eV,   76.6871 Ry                                                             
                                                                                                    
   TITEL  = PAW_PBE Nb_pv 08Apr2002                                                                 
   LULTRA =        F    use ultrasoft PP ?                                                          
   IUNSCR =        1    unscreen: 0-lin 1-nonlin 2-no                                               
   RPACOR =    2.200    partial core radius                                                         
   POMASS =   92.000; ZVAL   =   11.000    mass and valenz                                          
   RCORE  =    2.750    outmost cutoff radius                                                       
   RWIGS  =    2.840; RWIGS  =    1.503    wigner-seitz radius (au A)                               
   ENMAX  =  208.608; ENMIN  =  156.456 eV                                                          
   RCLOC  =    2.201    cutoff for local pot                                                        
   LCOR   =        T    correct aug charges                                                         
   LPAW   =        T    paw PP                                                                      
   EAUG   =  355.067                                                                                
   DEXC   =    0.000                                                                                
   RMAX   =    2.804    core radius for proj-oper                                                   
   RAUG   =    1.300    factor for augmentation sphere                                              
   RDEP   =    2.776    radius for radial grids                                                     
   RDEPT  =    2.198    core radius for aug-charge                                                  
                                                                                                    
   Atomic configuration                                                                             
   11 entries                                                                                       
     n  l   j            E        occ.                                                              
     1  0  0.50    -18805.2456   2.0000                                                             
     2  0  0.50     -2630.2869   2.0000                                                             
     2  1  1.50     -2348.4045   6.0000                                                             
     3  0  0.50      -438.8756   2.0000                                                             
     3  1  1.50      -346.7587   6.0000                                                             
     3  2  2.50      -196.2559  10.0000                                                             
     4  0  0.50       -58.3859   2.0000                                                             
     4  1  1.50       -34.5141   6.0000                                                             
     4  2  2.50        -3.0408   4.0000                                                             
     5  0  0.50        -3.9816   1.0000                                                             
     4  3  2.50        -1.3606   0.0000                                                             
   Description                                                                                      
     l       E           TYP  RCUT    TYP  RCUT                                                     
     1    -34.5140617     23  2.600                                                                 
     1     -1.3605826     23  2.600                                                                 
     2     -3.0407924     23  2.600                                                                 
     2     -1.4463597     23  2.600                                                                 
     0     -3.9816219     23  2.750                                                                 
     0     20.4087390     23  2.750                                                                 
  local pseudopotential read in
  partial core-charges read in
  partial kinetic energy density read in
  atomic valenz-charges read in
  non local Contribution for L=           1  read in
    real space projection operators read in
  non local Contribution for L=           1  read in
    real space projection operators read in
  non local Contribution for L=           2  read in
    real space projection operators read in
  non local Contribution for L=           2  read in
    real space projection operators read in
  non local Contribution for L=           0  read in
    real space projection operators read in
  non local Contribution for L=           0  read in
    real space projection operators read in
    PAW grid and wavefunctions read in

   number of l-projection  operators is LMAX  =           6
   number of lm-projection operators is LMMAX =          18

 -----------------------------------------------------------------------------
|                                                                             |
|               ----> ADVICE to this user running VASP <----                  |
|                                                                             |
|     You have a (more or less) 'small supercell' and for smaller cells       |
|     it is recommended to use the reciprocal-space projection scheme!        |
|     The real-space optimization is not efficient for small cells and it     |
|     is also less accurate ...                                               |
|     Therefore, set LREAL=.FALSE. in the INCAR file.                         |
|                                                                             |
 -----------------------------------------------------------------------------

 Optimization of the real space projectors (new method)

 maximal supplied QI-value         = 13.61
 optimisation between [QCUT,QGAM] = [ 11.57, 23.27] = [ 37.45,151.59] Ry 
 Optimized for a Real-space Cutoff    1.63 Angstroem

   l    n(q)    QCUT    max X(q) W(low)/X(q) W(high)/X(q)  e(spline) 
   1     11    11.565     4.545    0.12E-04    0.18E-04    0.64E-07
   1     11    11.565     6.014    0.42E-04    0.48E-04    0.13E-06
   2     10    11.565   266.542    0.24E-03    0.87E-04    0.13E-05
   2     10    11.565   232.726    0.24E-03    0.87E-04    0.13E-05
   0     11    11.565    38.050    0.76E-04    0.32E-05    0.94E-06
   0     11    11.565    16.565    0.58E-04    0.25E-05    0.73E-06
  PAW_PBE Nb_pv 08Apr2002               :
 energy of atom  1       EATOM=-1043.3917
 kinetic energy error for atom=    0.0011 (will be added to EATOM!!)


 POSCAR: Generated POSCAR
  positions in direct lattice
  velocities in cartesian coordinates
 exchange correlation table for  LEXCH =        8
   RHO(1)=    0.500       N(1)  =     2000
   RHO(2)=  100.500       N(2)  =     4000



--------------------------------------------------------------------------------------------------------


 ion  position               nearest neighbor table
   1  0.000  0.000  0.000-   2 2.88   2 2.88   2 2.88   2 2.88   2 2.88   2 2.88   2 2.88   2 2.88

   2  0.500  0.500  0.500-   1 2.88   1 2.88   1 2.88   1 2.88   1 2.88   1 2.88   1 2.88   1 2.88


  LATTYP: Found a simple orthorhombic cell.
 ALAT       =     3.2557779118
 B/A-ratio  =     1.0204081633
 C/A-ratio  =     1.0408163265
  
  Lattice vectors:
  
 A1 = (   3.2557779118,   0.0000000000,   0.0000000000)
 A2 = (   0.0000000000,   3.3222223590,   0.0000000000)
 A3 = (   0.0000000000,   0.0000000000,   3.3886668061)


Analysis of symmetry for initial positions (statically):
=====================================================================
 Subroutine PRICEL returns following result:
 
  LATTYP: Found a body centered orthorhombic cell.
 ALAT       =     3.2557779118
 B/A-ratio  =     1.0204081633
 C/A-ratio  =     1.0408163265
  
  Lattice vectors:
  
 A1 = (  -1.6278889559,  -1.6611111795,  -1.6943334031)
 A2 = (   1.6278889559,   1.6611111795,  -1.6943334031)
 A3 = (   1.6278889559,  -1.6611111795,   1.6943334031)
 
   2 primitive cells build up your supercell.
 

 Routine SETGRP: Setting up the symmetry group for a 
 simple orthorhombic supercell.


 Subroutine GETGRP returns: Found  8 space group operations
 (whereof  8 operations were pure point group operations)
 out of a pool of  8 trial point group operations.


The static configuration has the point symmetry D_2h.


Analysis of symmetry for dynamics (positions and initial velocities):
=====================================================================
 Subroutine PRICEL returns following result:
 
  LATTYP: Found a body centered orthorhombic cell.
 ALAT       =     3.2557779118
 B/A-ratio  =     1.0204081633
 C/A-ratio  =     1.0408163265
  
  Lattice vectors:
  
 A1 = (  -1.6278889559,  -1.6611111795,  -1.6943334031)
 A2 = (   1.6278889559,   1.6611111795,  -1.6943334031)
 A3 = (   1.6278889559,  -1.6611111795,   1.6943334031)
 
   2 primitive cells build up your supercell.
 

 Routine SETGRP: Setting up the symmetry group for a 
 simple orthorhombic supercell.


 Subroutine GETGRP returns: Found  8 space group operations
 (whereof  8 operations were pure point group operations)
 out of a pool of  8 trial point group operations.


The dynamic configuration has the point symmetry D_2h.


Analysis of structural, dynamic, and magnetic symmetry:
=====================================================================
 Subroutine PRICEL returns following result:
 
  LATTYP: Found a body centered orthorhombic cell.
 ALAT       =     3.2557779118
 B/A-ratio  =     1.0204081633
 C/A-ratio  =     1.0408163265
  
  Lattice vectors:
  
 A1 = (  -1.6278889559,  -1.6611111795,  -1.6943334031)
 A2 = (   1.6278889559,   1.6611111795,  -1.6943334031)
 A3 = (   1.6278889559,  -1.6611111795,   1.6943334031)
 
   2 primitive cells build up your supercell.
 

 Routine SETGRP: Setting up the symmetry group for a 
 simple orthorhombic supercell.


 Subroutine GETGRP returns: Found  8 space group operations
 (whereof  8 operations were pure point group operations)
 out of a pool of  8 trial point group operations.


The overall configuration has the point symmetry D_2h.


 Subroutine INISYM returns: Found  8 space group operations
 (whereof  8 operations are pure point group operations),
 and found     2 'primitive' translations


----------------------------------------------------------------------------------------

                                     Primitive cell                                     

  volume of cell :      18.3266

  direct lattice vectors                    reciprocal lattice vectors
    -1.627888956 -1.661111179 -1.694333403     0.000000000 -0.301003332 -0.295101306
     1.627888956  1.661111179 -1.694333403     0.307146257 -0.000000000 -0.295101306
     1.627888956 -1.661111179  1.694333403     0.307146257 -0.301003332 -0.000000000

  length of vectors
     2.877512552  2.877512552  2.877512552     0.421530292  0.425938498  0.430048636

  position of ions in fractional coordinates (direct lattice)
     0.000000000  0.000000000  0.000000000

  ion indices of the primitive-cell ions
   primitive index   ion index
                 1           1

----------------------------------------------------------------------------------------



 KPOINTS: pymatgen with grid density = 869 / numbe

Automatic generation of k-mesh.
 Grid dimensions read from file:
 generate k-points for:    7    7    7

 Generating k-lattice:

  Cartesian coordinates                     Fractional coordinates (reciprocal lattice)
     0.043878037 -0.000000000  0.000000000     0.142857143 -0.000000000  0.000000000
     0.000000000  0.043000476  0.000000000     0.000000000  0.142857143  0.000000000
    -0.000000000 -0.000000000  0.042157329     0.000000000  0.000000000  0.142857143

  Length of vectors
     0.043878037  0.043000476  0.042157329

  Shift w.r.t. Gamma in fractional coordinates (k-lattice)
     0.000000000  0.000000000  0.000000000

 TETIRR: Found   1000 inequivalent tetrahedra from     2058
 
 Subroutine IBZKPT returns following result:
 ===========================================
 
 Found     64 irreducible k-points:
 
 Following reciprocal coordinates:
            Coordinates               Weight
  0.000000  0.000000  0.000000      1.000000
  0.142857  0.000000  0.000000      2.000000
  0.285714  0.000000  0.000000      2.000000
  0.428571  0.000000  0.000000      2.000000
  0.000000  0.142857  0.000000      2.000000
  0.142857  0.142857  0.000000      4.000000
  0.285714  0.142857  0.000000      4.000000
  0.428571  0.142857  0.000000      4.000000
  0.000000  0.285714  0.000000      2.000000
  0.142857  0.285714  0.000000      4.000000
  0.285714  0.285714  0.000000      4.000000
  0.428571  0.285714  0.000000      4.000000
  0.000000  0.428571  0.000000      2.000000
  0.142857  0.428571  0.000000      4.000000
  0.285714  0.428571  0.000000      4.000000
  0.428571  0.428571  0.000000      4.000000
  0.000000  0.000000  0.142857      2.000000
  0.142857  0.000000  0.142857      4.000000
  0.285714  0.000000  0.142857      4.000000
  0.428571  0.000000  0.142857      4.000000
  0.000000  0.142857  0.142857      4.000000
  0.142857  0.142857  0.142857      8.000000
  0.285714  0.142857  0.142857      8.000000
  0.428571  0.142857  0.142857      8.000000
  0.000000  0.285714  0.142857      4.000000
  0.142857  0.285714  0.142857      8.000000
  0.285714  0.285714  0.142857      8.000000
  0.428571  0.285714  0.142857      8.000000
  0.000000  0.428571  0.142857      4.000000
  0.142857  0.428571  0.142857      8.000000
  0.285714  0.428571  0.142857      8.000000
  0.428571  0.428571  0.142857      8.000000
  0.000000  0.000000  0.285714      2.000000
  0.142857  0.000000  0.285714      4.000000
  0.285714  0.000000  0.285714      4.000000
  0.428571  0.000000  0.285714      4.000000
  0.000000  0.142857  0.285714      4.000000
  0.142857  0.142857  0.285714      8.000000
  0.285714  0.142857  0.285714      8.000000
  0.428571  0.142857  0.285714      8.000000
  0.000000  0.285714  0.285714      4.000000
  0.142857  0.285714  0.285714      8.000000
  0.285714  0.285714  0.285714      8.000000
  0.428571  0.285714  0.285714      8.000000
  0.000000  0.428571  0.285714      4.000000
  0.142857  0.428571  0.285714      8.000000
  0.285714  0.428571  0.285714      8.000000
  0.428571  0.428571  0.285714      8.000000
  0.000000  0.000000  0.428571      2.000000
  0.142857  0.000000  0.428571      4.000000
  0.285714  0.000000  0.428571      4.000000
  0.428571  0.000000  0.428571      4.000000
  0.000000  0.142857  0.428571      4.000000
  0.142857  0.142857  0.428571      8.000000
  0.285714  0.142857  0.428571      8.000000
  0.428571  0.142857  0.428571      8.000000
  0.000000  0.285714  0.428571      4.000000
  0.142857  0.285714  0.428571      8.000000
  0.285714  0.285714  0.428571      8.000000
  0.428571  0.285714  0.428571      8.000000
  0.000000  0.428571  0.428571      4.000000
  0.142857  0.428571  0.428571      8.000000
  0.285714  0.428571  0.428571      8.000000
  0.428571  0.428571  0.428571      8.000000
 
 Following cartesian coordinates:
            Coordinates               Weight
  0.000000  0.000000  0.000000      1.000000
  0.043878  0.000000  0.000000      2.000000
  0.087756  0.000000  0.000000      2.000000
  0.131634  0.000000  0.000000      2.000000
  0.000000  0.043000  0.000000      2.000000
  0.043878  0.043000  0.000000      4.000000
  0.087756  0.043000  0.000000      4.000000
  0.131634  0.043000  0.000000      4.000000
  0.000000  0.086001  0.000000      2.000000
  0.043878  0.086001  0.000000      4.000000
  0.087756  0.086001  0.000000      4.000000
  0.131634  0.086001  0.000000      4.000000
  0.000000  0.129001  0.000000      2.000000
  0.043878  0.129001  0.000000      4.000000
  0.087756  0.129001  0.000000      4.000000
  0.131634  0.129001  0.000000      4.000000
  0.000000  0.000000  0.042157      2.000000
  0.043878  0.000000  0.042157      4.000000
  0.087756  0.000000  0.042157      4.000000
  0.131634  0.000000  0.042157      4.000000
  0.000000  0.043000  0.042157      4.000000
  0.043878  0.043000  0.042157      8.000000
  0.087756  0.043000  0.042157      8.000000
  0.131634  0.043000  0.042157      8.000000
  0.000000  0.086001  0.042157      4.000000
  0.043878  0.086001  0.042157      8.000000
  0.087756  0.086001  0.042157      8.000000
  0.131634  0.086001  0.042157      8.000000
  0.000000  0.129001  0.042157      4.000000
  0.043878  0.129001  0.042157      8.000000
  0.087756  0.129001  0.042157      8.000000
  0.131634  0.129001  0.042157      8.000000
  0.000000  0.000000  0.084315      2.000000
  0.043878  0.000000  0.084315      4.000000
  0.087756  0.000000  0.084315      4.000000
  0.131634  0.000000  0.084315      4.000000
  0.000000  0.043000  0.084315      4.000000
  0.043878  0.043000  0.084315      8.000000
  0.087756  0.043000  0.084315      8.000000
  0.131634  0.043000  0.084315      8.000000
  0.000000  0.086001  0.084315      4.000000
  0.043878  0.086001  0.084315      8.000000
  0.087756  0.086001  0.084315      8.000000
  0.131634  0.086001  0.084315      8.000000
  0.000000  0.129001  0.084315      4.000000
  0.043878  0.129001  0.084315      8.000000
  0.087756  0.129001  0.084315      8.000000
  0.131634  0.129001  0.084315      8.000000
  0.000000  0.000000  0.126472      2.000000
  0.043878  0.000000  0.126472      4.000000
  0.087756  0.000000  0.126472      4.000000
  0.131634  0.000000  0.126472      4.000000
  0.000000  0.043000  0.126472      4.000000
  0.043878  0.043000  0.126472      8.000000
  0.087756  0.043000  0.126472      8.000000
  0.131634  0.043000  0.126472      8.000000
  0.000000  0.086001  0.126472      4.000000
  0.043878  0.086001  0.126472      8.000000
  0.087756  0.086001  0.126472      8.000000
  0.131634  0.086001  0.126472      8.000000
  0.000000  0.129001  0.126472      4.000000
  0.043878  0.129001  0.126472      8.000000
  0.087756  0.129001  0.126472      8.000000
  0.131634  0.129001  0.126472      8.000000
 


--------------------------------------------------------------------------------------------------------




 Dimension of arrays:
   k-points           NKPTS =     64   k-points in BZ     NKDIM =     64   number of bands    NBANDS=     16
   number of dos      NEDOS =    301   number of ions     NIONS =      2
   non local maximal  LDIM  =      6   non local SUM 2l+1 LMDIM =     18
   total plane-waves  NPLWV =  18816
   max r-space proj   IRMAX =   9315   max aug-charges    IRDMAX=  31802
   dimension x,y,z NGX =    24 NGY =   28 NGZ =   28
   dimension x,y,z NGXF=    48 NGYF=   56 NGZF=   56
   support grid    NGXF=    48 NGYF=   56 NGZF=   56
   ions per type =               2
   NGX,Y,Z   is equivalent  to a cutoff of  12.25, 14.01, 13.74 a.u.
   NGXF,Y,Z  is equivalent  to a cutoff of  24.51, 28.02, 27.47 a.u.

 SYSTEM =  unknown system                          
 POSCAR =  Generated POSCAR                        

 Startparameter for this run:
   NWRITE =      2    write-flag & timer
   PREC   = accura    normal or accurate (medium, high low for compatibility)
   ISTART =      0    job   : 0-new  1-cont  2-samecut
   ICHARG =      2    charge: 1-file 2-atom 10-const
   ISPIN  =      2    spin polarized calculation?
   LNONCOLLINEAR =      F non collinear calculations
   LSORBIT =      F    spin-orbit coupling
   INIWAV =      1    electr: 0-lowe 1-rand  2-diag
   LASPH  =      T    aspherical Exc in radial PAW
 Electronic Relaxation 1
   ENCUT  =  520.0 eV  38.22 Ry    6.18 a.u.   6.05  6.18  6.30*2*pi/ulx,y,z
   ENINI  =  520.0     initial cutoff
   ENAUG  =  355.1 eV  augmentation charge cutoff
   NELM   =    100;   NELMIN=  2; NELMDL= -5     # of ELM steps 
   EDIFF  = 0.1E-03   stopping-criterion for ELM
   LREAL  =      T    real-space projection
   NLSPLINE    = F    spline interpolate recip. space projectors
   LCOMPAT=      F    compatible to vasp.4.4
   GGA_COMPAT  = T    GGA compatible to vasp.4.4-vasp.4.6
   LMAXPAW     = -100 max onsite density
   LMAXMIX     =    6 max onsite mixed and CHGCAR
   VOSKOWN=      0    Vosko Wilk Nusair interpolation
   ROPT   =   -0.00025
 Ionic relaxation
   EDIFFG = 0.1E-02   stopping-criterion for IOM
   NSW    =      0    number of steps for IOM
   NBLOCK =      1;   KBLOCK =      1    inner block; outer block 
   IBRION =     -1    ionic relax: 0-MD 1-quasi-New 2-CG
   NFREE  =      0    steps in history (QN), initial steepest desc. (CG)
   ISIF   =      2    stress and relaxation
   IWAVPR =     10    prediction:  0-non 1-charg 2-wave 3-comb
   ISYM   =      2    0-nonsym 1-usesym 2-fastsym
   LCORR  =      T    Harris-Foulkes like correction to forces

   POTIM  = 0.5000    time-step for ionic-motion
   TEIN   =    0.0    initial temperature
   TEBEG  =    0.0;   TEEND  =   0.0 temperature during run
   SMASS  =  -3.00    Nose mass-parameter (am)
   estimated Nose-frequenzy (Omega)   =  0.10E-29 period in steps = 0.13E+47 mass=  -0.242E-27a.u.
   SCALEE = 1.0000    scale energy and forces
   NPACO  =    256;   APACO  = 10.0  distance and # of slots for P.C.
   PSTRESS=    0.0 pullay stress

  Mass of Ions in am
   POMASS =  92.00
  Ionic Valenz
   ZVAL   =  11.00
  Atomic Wigner-Seitz radii
   RWIGS  =  -1.00
  virtual crystal weights 
   VCA    =   1.00
   NELECT =      22.0000    total number of electrons
   NUPDOWN=      -1.0000    fix difference up-down

 DOS related values:
   EMIN   =  10.00;   EMAX   =-10.00  energy-range for DOS
   EFERMI =   0.00;   METHOD = LEGACY      
   ISMEAR =    -5;   SIGMA  =   0.05  broadening in eV -4-tet -1-fermi 0-gaus

 Electronic relaxation 2 (details)
   IALGO  =     68    algorithm
   LDIAG  =      T    sub-space diagonalisation (order eigenvalues)
   LSUBROT=      F    optimize rotation matrix (better conditioning)
   TURBO    =      0    0=normal 1=particle mesh
   IRESTART =      0    0=no restart 2=restart with 2 vectors
   NREBOOT  =      0    no. of reboots
   NMIN     =      0    reboot dimension
   EREF     =   0.00    reference energy to select bands
   IMIX   =      4    mixing-type and parameters
     AMIX     =   0.40;   BMIX     =  1.00
     AMIX_MAG =   1.60;   BMIX_MAG =  1.00
     AMIN     =   0.10
     WC   =   100.;   INIMIX=   1;  MIXPRE=   1;  MAXMIX= -45

 Intra band minimization:
   WEIMIN = 0.0000     energy-eigenvalue tresh-hold
   EBREAK =  0.16E-05  absolut break condition
   DEPER  =   0.30     relativ break condition  

   TIME   =   0.40     timestep for ELM

  volume/ion in A,a.u.               =      18.33       123.67
  Fermi-wavevector in a.u.,A,eV,Ry     =   1.380951  2.609619 25.946661  1.907026
  Thomas-Fermi vector in A             =   2.505781

 Write flags
   LWAVE        =      F    write WAVECAR
   LDOWNSAMPLE  =      F    k-point downsampling of WAVECAR
   LCHARG       =      T    write CHGCAR
   LVTOT        =      F    write LOCPOT, total local potential
   LVHAR        =      F    write LOCPOT, Hartree potential only
   LELF         =      F    write electronic localiz. function (ELF)
   LORBIT       =     11    0 simple, 1 ext, 2 COOP (PROOUT), +10 PAW based schemes


 Dipole corrections
   LMONO  =      F    monopole corrections only (constant potential shift)
   LDIPOL =      F    correct potential (dipole corrections)
   IDIPOL =      0    1-x, 2-y, 3-z, 4-all directions 
   EPSILON=  1.0000000 bulk dielectric constant

 Exchange correlation treatment:
   GGA     =    --    GGA type
   LEXCH   =     8    internal setting for exchange type
   LIBXC   =     F    Libxc                    
   VOSKOWN =     0    Vosko Wilk Nusair interpolation
   LHFCALC =     F    Hartree Fock is set to
   LHFONE  =     F    Hartree Fock one center treatment
   AEXX    =    0.0000 exact exchange contribution

 Linear response parameters
   LEPSILON=     F    determine dielectric tensor
   LRPA    =     F    only Hartree local field effects (RPA)
   LNABLA  =     F    use nabla operator in PAW spheres
   LVEL    =     F    velocity operator in full k-point grid
   CSHIFT  =0.1000    complex shift for real part using Kramers Kronig
   OMEGAMAX=  -1.0    maximum frequency
   DEG_THRESHOLD= 0.2000000E-02 threshold for treating states as degnerate
   RTIME   =   -0.100 relaxation time in fs
  (WPLASMAI=    0.000 imaginary part of plasma frequency in eV, 0.658/RTIME)
   DFIELD  = 0.0000000 0.0000000 0.0000000 field for delta impulse in time

  Optional k-point grid parameters
   LKPOINTS_OPT  =     F    use optional k-point grid
   KPOINTS_OPT_MODE=     1    mode for optional k-point grid

 Orbital magnetization related:
   ORBITALMAG=     F  switch on orbital magnetization
   LCHIMAG   =     F  perturbation theory with respect to B field
   DQ        =  0.001000  dq finite difference perturbation B field
   LLRAUG    =     F  two centre corrections for induced B field
   LBONE     =     F  B-component reconstruction in AE one-centre
   LVGVCALC  =     T  calculate vGv susceptibility
   LVGVAPPL  =     F  apply vGv susceptibility instead of pGv for G=0

 Random number generation:
   RANDOM_GENERATOR = DEFAULT
   PCG_SEED         = not used


--------------------------------------------------------------------------------------------------------


 Static calculation
 charge density and potential will be updated during run
 spin polarized calculation
 RMM-DIIS sequential band-by-band and
  variant of blocked Davidson during initial phase
 perform sub-space diagonalisation
    before iterative eigenvector-optimisation
 modified Broyden-mixing scheme, WC =      100.0
 initial mixing is a Kerker type mixing with AMIX =  0.4000 and BMIX =      1.0000
 Hartree-type preconditioning will be used
 using additional bands            5
 real space projection scheme for non local part
 use partial core corrections
 calculate Harris-corrections to forces   (improved forces if not selfconsistent)
 use gradient corrections 
 use of overlap-Matrix (Vanderbilt PP)
 Fermi weights with tetrahedron method with Bloechl corrections


--------------------------------------------------------------------------------------------------------


  energy-cutoff  :      520.00
  volume of cell :       36.65
      direct lattice vectors                 reciprocal lattice vectors
     3.255777912  0.000000000  0.000000000     0.307146257 -0.000000000  0.000000000
     0.000000000  3.322222359  0.000000000     0.000000000  0.301003332  0.000000000
     0.000000000  0.000000000  3.388666806    -0.000000000 -0.000000000  0.295101306

  length of vectors
     3.255777912  3.322222359  3.388666806     0.307146257  0.301003332  0.295101306



 k-points in units of 2pi/SCALE and weight: pymatgen with grid density = 869 / numbe
   0.00000000  0.00000000  0.00000000       0.003
   0.04387804  0.00000000  0.00000000       0.006
   0.08775607  0.00000000  0.00000000       0.006
   0.13163411  0.00000000  0.00000000       0.006
   0.00000000  0.04300048  0.00000000       0.006
   0.04387804  0.04300048  0.00000000       0.012
   0.08775607  0.04300048  0.00000000       0.012
   0.13163411  0.04300048  0.00000000       0.012
   0.00000000  0.08600095  0.00000000       0.006
   0.04387804  0.08600095  0.00000000       0.012
   0.08775607  0.08600095  0.00000000       0.012
   0.13163411  0.08600095  0.00000000       0.012
   0.00000000  0.12900143  0.00000000       0.006
   0.04387804  0.12900143  0.00000000       0.012
   0.08775607  0.12900143  0.00000000       0.012
   0.13163411  0.12900143  0.00000000       0.012
   0.00000000  0.00000000  0.04215733       0.006
   0.04387804  0.00000000  0.04215733       0.012
   0.08775607  0.00000000  0.04215733       0.012
   0.13163411  0.00000000  0.04215733       0.012
   0.00000000  0.04300048  0.04215733       0.012
   0.04387804  0.04300048  0.04215733       0.023
   0.08775607  0.04300048  0.04215733       0.023
   0.13163411  0.04300048  0.04215733       0.023
   0.00000000  0.08600095  0.04215733       0.012
   0.04387804  0.08600095  0.04215733       0.023
   0.08775607  0.08600095  0.04215733       0.023
   0.13163411  0.08600095  0.04215733       0.023
   0.00000000  0.12900143  0.04215733       0.012
   0.04387804  0.12900143  0.04215733       0.023
   0.08775607  0.12900143  0.04215733       0.023
   0.13163411  0.12900143  0.04215733       0.023
   0.00000000  0.00000000  0.08431466       0.006
   0.04387804  0.00000000  0.08431466       0.012
   0.08775607  0.00000000  0.08431466       0.012
   0.13163411  0.00000000  0.08431466       0.012
   0.00000000  0.04300048  0.08431466       0.012
   0.04387804  0.04300048  0.08431466       0.023
   0.08775607  0.04300048  0.08431466       0.023
   0.13163411  0.04300048  0.08431466       0.023
   0.00000000  0.08600095  0.08431466       0.012
   0.04387804  0.08600095  0.08431466       0.023
   0.08775607  0.08600095  0.08431466       0.023
   0.13163411  0.08600095  0.08431466       0.023
   0.00000000  0.12900143  0.08431466       0.012
   0.04387804  0.12900143  0.08431466       0.023
   0.08775607  0.12900143  0.08431466       0.023
   0.13163411  0.12900143  0.08431466       0.023
   0.00000000  0.00000000  0.12647199       0.006
   0.04387804  0.00000000  0.12647199       0.012
   0.08775607  0.00000000  0.12647199       0.012
   0.13163411  0.00000000  0.12647199       0.012
   0.00000000  0.04300048  0.12647199       0.012
   0.04387804  0.04300048  0.12647199       0.023
   0.08775607  0.04300048  0.12647199       0.023
   0.13163411  0.04300048  0.12647199       0.023
   0.00000000  0.08600095  0.12647199       0.012
   0.04387804  0.08600095  0.12647199       0.023
   0.08775607  0.08600095  0.12647199       0.023
   0.13163411  0.08600095  0.12647199       0.023
   0.00000000  0.12900143  0.12647199       0.012
   0.04387804  0.12900143  0.12647199       0.023
   0.08775607  0.12900143  0.12647199       0.023
   0.13163411  0.12900143  0.12647199       0.023

 k-points in reciprocal lattice and weights: pymatgen with grid density = 869 / numbe
   0.00000000  0.00000000  0.00000000       0.003
   0.14285714  0.00000000  0.00000000       0.006
   0.28571429  0.00000000  0.00000000       0.006
   0.42857143  0.00000000  0.00000000       0.006
   0.00000000  0.14285714  0.00000000       0.006
   0.14285714  0.14285714  0.00000000       0.012
   0.28571429  0.14285714  0.00000000       0.012
   0.42857143  0.14285714  0.00000000       0.012
   0.00000000  0.28571429  0.00000000       0.006
   0.14285714  0.28571429  0.00000000       0.012
   0.28571429  0.28571429  0.00000000       0.012
   0.42857143  0.28571429  0.00000000       0.012
   0.00000000  0.42857143  0.00000000       0.006
   0.14285714  0.42857143  0.00000000       0.012
   0.28571429  0.42857143  0.00000000       0.012
   0.42857143  0.42857143  0.00000000       0.012
   0.00000000  0.00000000  0.14285714       0.006
   0.14285714  0.00000000  0.14285714       0.012
   0.28571429  0.00000000  0.14285714       0.012
   0.42857143  0.00000000  0.14285714       0.012
   0.00000000  0.14285714  0.14285714       0.012
   0.14285714  0.14285714  0.14285714       0.023
   0.28571429  0.14285714  0.14285714       0.023
   0.42857143  0.14285714  0.14285714       0.023
   0.00000000  0.28571429  0.14285714       0.012
   0.14285714  0.28571429  0.14285714       0.023
   0.28571429  0.28571429  0.14285714       0.023
   0.42857143  0.28571429  0.14285714       0.023
   0.00000000  0.42857143  0.14285714       0.012
   0.14285714  0.42857143  0.14285714       0.023
   0.28571429  0.42857143  0.14285714       0.023
   0.42857143  0.42857143  0.14285714       0.023
   0.00000000  0.00000000  0.28571429       0.006
   0.14285714  0.00000000  0.28571429       0.012
   0.28571429  0.00000000  0.28571429       0.012
   0.42857143  0.00000000  0.28571429       0.012
   0.00000000  0.14285714  0.28571429       0.012
   0.14285714  0.14285714  0.28571429       0.023
   0.28571429  0.14285714  0.28571429       0.023
   0.42857143  0.14285714  0.28571429       0.023
   0.00000000  0.28571429  0.28571429       0.012
   0.14285714  0.28571429  0.28571429       0.023
   0.28571429  0.28571429  0.28571429       0.023
   0.42857143  0.28571429  0.28571429       0.023
   0.00000000  0.42857143  0.28571429       0.012
   0.14285714  0.42857143  0.28571429       0.023
   0.28571429  0.42857143  0.28571429       0.023
   0.42857143  0.42857143  0.28571429       0.023
   0.00000000  0.00000000  0.42857143       0.006
   0.14285714  0.00000000  0.42857143       0.012
   0.28571429  0.00000000  0.42857143       0.012
   0.42857143  0.00000000  0.42857143       0.012
   0.00000000  0.14285714  0.42857143       0.012
   0.14285714  0.14285714  0.42857143       0.023
   0.28571429  0.14285714  0.42857143       0.023
   0.42857143  0.14285714  0.42857143       0.023
   0.00000000  0.28571429  0.42857143       0.012
   0.14285714  0.28571429  0.42857143       0.023
   0.28571429  0.28571429  0.42857143       0.023
   0.42857143  0.28571429  0.42857143       0.023
   0.00000000  0.42857143  0.42857143       0.012
   0.14285714  0.42857143  0.42857143       0.023
   0.28571429  0.42857143  0.42857143       0.023
   0.42857143  0.42857143  0.42857143       0.023

 position of ions in fractional coordinates (direct lattice) 
   0.00000000  0.00000000  0.00000000
   0.50000000  0.50000000  0.50000000

 position of ions in cartesian coordinates  (Angst):
   0.00000000  0.00000000  0.00000000
   1.62788896  1.66111118  1.69433340



--------------------------------------------------------------------------------------------------------


 k-point   1 :   0.0000 0.0000 0.0000  plane waves:     981
 k-point   2 :   0.1429 0.0000 0.0000  plane waves:     988
 k-point   3 :   0.2857 0.0000 0.0000  plane waves:     974
 k-point   4 :   0.4286 0.0000 0.0000  plane waves:     988
 k-point   5 :   0.0000 0.1429 0.0000  plane waves:     985
 k-point   6 :   0.1429 0.1429 0.0000  plane waves:     981
 k-point   7 :   0.2857 0.1429 0.0000  plane waves:     983
 k-point   8 :   0.4286 0.1429 0.0000  plane waves:     989
 k-point   9 :   0.0000 0.2857 0.0000  plane waves:     984
 k-point  10 :   0.1429 0.2857 0.0000  plane waves:     984
 k-point  11 :   0.2857 0.2857 0.0000  plane waves:     992
 k-point  12 :   0.4286 0.2857 0.0000  plane waves:     997
 k-point  13 :   0.0000 0.4286 0.0000  plane waves:     992
 k-point  14 :   0.1429 0.4286 0.0000  plane waves:     985
 k-point  15 :   0.2857 0.4286 0.0000  plane waves:     995
 k-point  16 :   0.4286 0.4286 0.0000  plane waves:    1000
 k-point  17 :   0.0000 0.0000 0.1429  plane waves:     981
 k-point  18 :   0.1429 0.0000 0.1429  plane waves:     994
 k-point  19 :   0.2857 0.0000 0.1429  plane waves:     991
 k-point  20 :   0.4286 0.0000 0.1429  plane waves:     986
 k-point  21 :   0.0000 0.1429 0.1429  plane waves:     978
 k-point  22 :   0.1429 0.1429 0.1429  plane waves:     984
 k-point  23 :   0.2857 0.1429 0.1429  plane waves:     990
 k-point  24 :   0.4286 0.1429 0.1429  plane waves:     990
 k-point  25 :   0.0000 0.2857 0.1429  plane waves:     989
 k-point  26 :   0.1429 0.2857 0.1429  plane waves:     984
 k-point  27 :   0.2857 0.2857 0.1429  plane waves:     990
 k-point  28 :   0.4286 0.2857 0.1429  plane waves:     986
 k-point  29 :   0.0000 0.4286 0.1429  plane waves:     982
 k-point  30 :   0.1429 0.4286 0.1429  plane waves:     985
 k-point  31 :   0.2857 0.4286 0.1429  plane waves:     987
 k-point  32 :   0.4286 0.4286 0.1429  plane waves:     997
 k-point  33 :   0.0000 0.0000 0.2857  plane waves:     983
 k-point  34 :   0.1429 0.0000 0.2857  plane waves:     986
 k-point  35 :   0.2857 0.0000 0.2857  plane waves:     992
 k-point  36 :   0.4286 0.0000 0.2857  plane waves:     985
 k-point  37 :   0.0000 0.1429 0.2857  plane waves:     986
 k-point  38 :   0.1429 0.1429 0.2857  plane waves:     985
 k-point  39 :   0.2857 0.1429 0.2857  plane waves:     992
 k-point  40 :   0.4286 0.1429 0.2857  plane waves:     986
 k-point  41 :   0.0000 0.2857 0.2857  plane waves:     985
 k-point  42 :   0.1429 0.2857 0.2857  plane waves:     983
 k-point  43 :   0.2857 0.2857 0.2857  plane waves:     985
 k-point  44 :   0.4286 0.2857 0.2857  plane waves:     988
 k-point  45 :   0.0000 0.4286 0.2857  plane waves:     975
 k-point  46 :   0.1429 0.4286 0.2857  plane waves:     988
 k-point  47 :   0.2857 0.4286 0.2857  plane waves:     986
 k-point  48 :   0.4286 0.4286 0.2857  plane waves:     984
 k-point  49 :   0.0000 0.0000 0.4286  plane waves:     984
 k-point  50 :   0.1429 0.0000 0.4286  plane waves:     989
 k-point  51 :   0.2857 0.0000 0.4286  plane waves:     981
 k-point  52 :   0.4286 0.0000 0.4286  plane waves:     987
 k-point  53 :   0.0000 0.1429 0.4286  plane waves:     983
 k-point  54 :   0.1429 0.1429 0.4286  plane waves:     986
 k-point  55 :   0.2857 0.1429 0.4286  plane waves:     986
 k-point  56 :   0.4286 0.1429 0.4286  plane waves:     990
 k-point  57 :   0.0000 0.2857 0.4286  plane waves:     975
 k-point  58 :   0.1429 0.2857 0.4286  plane waves:     976
 k-point  59 :   0.2857 0.2857 0.4286  plane waves:     987
 k-point  60 :   0.4286 0.2857 0.4286  plane waves:     991
 k-point  61 :   0.0000 0.4286 0.4286  plane waves:     984
 k-point  62 :   0.1429 0.4286 0.4286  plane waves:     985
 k-point  63 :   0.2857 0.4286 0.4286  plane waves:     993
 k-point  64 :   0.4286 0.4286 0.4286  plane waves:     986

 maximum and minimum number of plane-waves per node :      1000      974

 maximum number of plane-waves:      1000
 maximum index in each direction: 
   IXMAX=    6   IYMAX=    6   IZMAX=    6
   IXMIN=   -6   IYMIN=   -6   IZMIN=   -6


 serial   3D FFT for wavefunctions
 parallel 3D FFT for charge:
    minimum data exchange during FFTs selected (reduces bandwidth)


 total amount of memory used by VASP MPI-rank0    87307. kBytes
=======================================================================

   base      :      30000. kBytes
   nonlr-proj:       5329. kBytes
   fftplans  :       5304. kBytes
   grid      :      12665. kBytes
   one-center:         62. kBytes
   wavefun   :      33947. kBytes

     INWAV:  cpu time      0.0060: real time      0.0001
 Broyden mixing: mesh for mixing (old mesh)
   NGX = 13   NGY = 13   NGZ = 13
  (NGX  = 48   NGY  = 56   NGZ  = 56)
  gives a total of   2197 points

 initial charge density was supplied:
 charge density of overlapping atoms calculated
 number of electron      22.0000000 magnetization       1.2000000
 keeping initial charge density in first step


--------------------------------------------------------------------------------------------------------


 Maximum index for non-local projection operator          986
 Maximum index for augmentation-charges        30639 (set IRDMAX)


--------------------------------------------------------------------------------------------------------


 First call to EWALD:  gamma=   0.534
 Maximum number of real-space cells 3x 3x 3
 Maximum number of reciprocal cells 3x 3x 3

    FEWALD:  cpu time      0.0074: real time      0.0069


--------------------------------------- Ionic step        1  -------------------------------------------




--------------------------------------- Iteration      1(   1)  ---------------------------------------


    POTLOK:  cpu time      1.4606: real time      0.1077
    SETDIJ:  cpu time      1.0844: real time      0.2523
     EDDAV:  cpu time    350.8543: real time     19.8083
 BZINTS: Fermi energy:   23.860011;   22.000000 electrons
         Band energy:-0.283581E+02;  BLOECHL correction:   -0.647351
       DOS:  cpu time      0.3293: real time      0.0548
    --------------------------------------------
      LOOP:  cpu time    353.7285: real time     20.2232

 eigenvalue-minimisations  :  4504
 total energy-change (2. order) : 0.2016742E+03  (-0.1162487E+04)
 number of electron      22.0000000 magnetization       1.2000000
 augmentation part       22.0000000 magnetization       1.2000000

 Free energy of the ion-electron system (eV)
  ---------------------------------------------------
  alpha Z        PSCENC =       247.02244180
  Ewald energy   TEWEN  =     -1908.84641101
  -Hartree energ DENC   =      -279.45115429
  -exchange      EXHF   =         0.00000000
  -V(xc)+E(xc)   XCENC  =        52.61762111
  PAW double counting   =      1671.32378679    -1639.41528309
  entropy T*S    EENTRO =         0.00000000
  eigenvalues    EBANDS =       -28.35808184
  atomic energy  EATOM  =      2086.78124273
  Solvation  Ediel_sol  =         0.00000000
  ---------------------------------------------------
  free energy    TOTEN  =       201.67416221 eV

  energy without entropy =      201.67416221  energy(sigma->0) =      201.67416221


--------------------------------------------------------------------------------------------------------




--------------------------------------- Iteration      1(   2)  ---------------------------------------


     EDDAV:  cpu time    323.9685: real time     18.4826
 BZINTS: Fermi energy:    7.176935;   22.000000 electrons
         Band energy:-0.240517E+03;  BLOECHL correction:   -0.291667
       DOS:  cpu time      0.2918: real time      0.0502
    --------------------------------------------
      LOOP:  cpu time    324.2603: real time     18.5328

 eigenvalue-minimisations  :  4320
 total energy-change (2. order) :-0.2121588E+03  (-0.2098621E+03)
 number of electron      22.0000000 magnetization       1.2000000
 augmentation part       22.0000000 magnetization       1.2000000

 Free energy of the ion-electron system (eV)
  ---------------------------------------------------
  alpha Z        PSCENC =       247.02244180
  Ewald energy   TEWEN  =     -1908.84641101
  -Hartree energ DENC   =      -279.45115429
  -exchange      EXHF   =         0.00000000
  -V(xc)+E(xc)   XCENC  =        52.61762111
  PAW double counting   =      1671.32378679    -1639.41528309
  entropy T*S    EENTRO =         0.00000000
  eigenvalues    EBANDS =      -240.51692274
  atomic energy  EATOM  =      2086.78124273
  Solvation  Ediel_sol  =         0.00000000
  ---------------------------------------------------
  free energy    TOTEN  =       -10.48467870 eV

  energy without entropy =      -10.48467870  energy(sigma->0) =      -10.48467870


--------------------------------------------------------------------------------------------------------




--------------------------------------- Iteration      1(   3)  ---------------------------------------


     EDDAV:  cpu time    478.8278: real time     27.1040
 BZINTS: Fermi energy:    5.473968;   22.000000 electrons
         Band energy:-0.250995E+03;  BLOECHL correction:   -0.211304
       DOS:  cpu time      0.3557: real time      0.0570
    --------------------------------------------
      LOOP:  cpu time    479.1835: real time     27.1611

 eigenvalue-minimisations  :  6776
 total energy-change (2. order) :-0.1047765E+02  (-0.9936195E+01)
 number of electron      22.0000000 magnetization       1.2000000
 augmentation part       22.0000000 magnetization       1.2000000

 Free energy of the ion-electron system (eV)
  ---------------------------------------------------
  alpha Z        PSCENC =       247.02244180
  Ewald energy   TEWEN  =     -1908.84641101
  -Hartree energ DENC   =      -279.45115429
  -exchange      EXHF   =         0.00000000
  -V(xc)+E(xc)   XCENC  =        52.61762111
  PAW double counting   =      1671.32378679    -1639.41528309
  entropy T*S    EENTRO =         0.00000000
  eigenvalues    EBANDS =      -250.99457183
  atomic energy  EATOM  =      2086.78124273
  Solvation  Ediel_sol  =         0.00000000
  ---------------------------------------------------
  free energy    TOTEN  =       -20.96232779 eV

  energy without entropy =      -20.96232779  energy(sigma->0) =      -20.96232779


--------------------------------------------------------------------------------------------------------




--------------------------------------- Iteration      1(   4)  ---------------------------------------


     EDDAV:  cpu time    348.2798: real time     19.9183
 BZINTS: Fermi energy:    5.449555;   22.000000 electrons
         Band energy:-0.251168E+03;  BLOECHL correction:   -0.207256
       DOS:  cpu time      0.2697: real time      0.0522
    --------------------------------------------
      LOOP:  cpu time    348.5495: real time     19.9705

 eigenvalue-minimisations  :  5024
 total energy-change (2. order) :-0.1737250E+00  (-0.1702499E+00)
 number of electron      22.0000000 magnetization       1.2000000
 augmentation part       22.0000000 magnetization       1.2000000

 Free energy of the ion-electron system (eV)
  ---------------------------------------------------
  alpha Z        PSCENC =       247.02244180
  Ewald energy   TEWEN  =     -1908.84641101
  -Hartree energ DENC   =      -279.45115429
  -exchange      EXHF   =         0.00000000
  -V(xc)+E(xc)   XCENC  =        52.61762111
  PAW double counting   =      1671.32378679    -1639.41528309
  entropy T*S    EENTRO =         0.00000000
  eigenvalues    EBANDS =      -251.16829682
  atomic energy  EATOM  =      2086.78124273
  Solvation  Ediel_sol  =         0.00000000
  ---------------------------------------------------
  free energy    TOTEN  =       -21.13605278 eV

  energy without entropy =      -21.13605278  energy(sigma->0) =      -21.13605278


--------------------------------------------------------------------------------------------------------




--------------------------------------- Iteration      1(   5)  ---------------------------------------


     EDDAV:  cpu time    448.7139: real time     25.6490
 BZINTS: Fermi energy:    5.448554;   22.000000 electrons
         Band energy:-0.251173E+03;  BLOECHL correction:   -0.206955
       DOS:  cpu time      0.2975: real time      0.0509
    CHARGE:  cpu time     27.8937: real time      1.5509
    MIXING:  cpu time      0.0010: real time      0.0010
    --------------------------------------------
      LOOP:  cpu time    476.9063: real time     27.2520

 eigenvalue-minimisations  :  6640
 total energy-change (2. order) :-0.5103664E-02  (-0.5136533E-02)
 number of electron      21.9999998 magnetization       0.3597954
 augmentation part        7.7576374 magnetization      -0.0480659

 Broyden mixing:
  rms(total) = 0.23990E+01    rms(broyden)= 0.23990E+01
  rms(prec ) = 0.28093E+01
  weight for this iteration     100.00

 Free energy of the ion-electron system (eV)
  ---------------------------------------------------
  alpha Z        PSCENC =       247.02244180
  Ewald energy   TEWEN  =     -1908.84641101
  -Hartree energ DENC   =      -279.45115429
  -exchange      EXHF   =         0.00000000
  -V(xc)+E(xc)   XCENC  =        52.61762111
  PAW double counting   =      1671.32378679    -1639.41528309
  entropy T*S    EENTRO =         0.00000000
  eigenvalues    EBANDS =      -251.17340048
  atomic energy  EATOM  =      2086.78124273
  Solvation  Ediel_sol  =         0.00000000
  ---------------------------------------------------
  free energy    TOTEN  =       -21.14115644 eV

  energy without entropy =      -21.14115644  energy(sigma->0) =      -21.14115644


--------------------------------------------------------------------------------------------------------




--------------------------------------- Iteration      1(   6)  ---------------------------------------


    POTLOK:  cpu time      1.0559: real time      0.0900
    SETDIJ:  cpu time      1.0926: real time      0.2521
    EDDIAG:  cpu time     73.0935: real time      4.1959
  RMM-DIIS:  cpu time    243.8577: real time     13.4233
    ORTHCH:  cpu time      1.7471: real time      0.1064
 BZINTS: Fermi energy:    5.099160;   22.000000 electrons
         Band energy:-0.265209E+03;  BLOECHL correction:   -0.208977
       DOS:  cpu time      0.2898: real time      0.0518
    CHARGE:  cpu time     28.5022: real time      1.5980
    MIXING:  cpu time      0.0013: real time      0.0013
    --------------------------------------------
      LOOP:  cpu time    349.6402: real time     19.7188

 eigenvalue-minimisations  :  4494
 total energy-change (2. order) : 0.8067389E+00  (-0.8014682E-01)
 number of electron      21.9999998 magnetization       0.1832790
 augmentation part        7.8844764 magnetization      -0.0440624

 Broyden mixing:
  rms(total) = 0.91230E+00    rms(broyden)= 0.91230E+00
  rms(prec ) = 0.11862E+01
  weight for this iteration     100.00

 eigenvalues of (default mixing * dielectric matrix)
  average eigenvalue GAMMA=   1.4994
  1.4994

 Free energy of the ion-electron system (eV)
  ---------------------------------------------------
  alpha Z        PSCENC =       247.02244180
  Ewald energy   TEWEN  =     -1908.84641101
  -Hartree energ DENC   =      -260.09806189
  -exchange      EXHF   =         0.00000000
  -V(xc)+E(xc)   XCENC  =        51.60285935
  PAW double counting   =      2186.56970965    -2158.15744186
  entropy T*S    EENTRO =         0.00000000
  eigenvalues    EBANDS =      -265.20875630
  atomic energy  EATOM  =      2086.78124273
  Solvation  Ediel_sol  =         0.00000000
  ---------------------------------------------------
  free energy    TOTEN  =       -20.33441753 eV

  energy without entropy =      -20.33441753  energy(sigma->0) =      -20.33441753


--------------------------------------------------------------------------------------------------------




--------------------------------------- Iteration      1(   7)  ---------------------------------------


    POTLOK:  cpu time      1.1251: real time      0.0928
    SETDIJ:  cpu time      1.0652: real time      0.2464
    EDDIAG:  cpu time     71.4215: real time      4.0987
  RMM-DIIS:  cpu time    266.6870: real time     14.9120
    ORTHCH:  cpu time      1.6474: real time      0.0970
 BZINTS: Fermi energy:    4.802585;   22.000000 electrons
         Band energy:-0.276976E+03;  BLOECHL correction:   -0.205389
       DOS:  cpu time      0.2991: real time      0.0499
    CHARGE:  cpu time     28.0893: real time      1.5617
    MIXING:  cpu time      0.0012: real time      0.0012
    --------------------------------------------
      LOOP:  cpu time    370.3357: real time     21.0597

 eigenvalue-minimisations  :  5572
 total energy-change (2. order) : 0.1474787E+00  (-0.2147174E+00)
 number of electron      21.9999998 magnetization       0.0552884
 augmentation part        8.0583270 magnetization       0.0429169

 Broyden mixing:
  rms(total) = 0.24991E+00    rms(broyden)= 0.24991E+00
  rms(prec ) = 0.26848E+00
  weight for this iteration     100.00

 eigenvalues of (default mixing * dielectric matrix)
  average eigenvalue GAMMA=   1.0725
  1.6150  0.5299

 Free energy of the ion-electron system (eV)
  ---------------------------------------------------
  alpha Z        PSCENC =       247.02244180
  Ewald energy   TEWEN  =     -1908.84641101
  -Hartree energ DENC   =      -244.38142472
  -exchange      EXHF   =         0.00000000
  -V(xc)+E(xc)   XCENC  =        50.82154681
  PAW double counting   =      2615.98658605    -2590.59520242
  entropy T*S    EENTRO =         0.00000000
  eigenvalues    EBANDS =      -276.97571812
  atomic energy  EATOM  =      2086.78124273
  Solvation  Ediel_sol  =         0.00000000
  ---------------------------------------------------
  free energy    TOTEN  =       -20.18693886 eV

  energy without entropy =      -20.18693886  energy(sigma->0) =      -20.18693886


--------------------------------------------------------------------------------------------------------




--------------------------------------- Iteration      1(   8)  ---------------------------------------


    POTLOK:  cpu time      2.0744: real time      0.1342
    SETDIJ:  cpu time      0.9938: real time      0.2491
    EDDIAG:  cpu time     68.8135: real time      3.9487
  RMM-DIIS:  cpu time    286.2251: real time     16.0250
    ORTHCH:  cpu time      1.2963: real time      0.0769
 BZINTS: Fermi energy:    4.813787;   22.000000 electrons
         Band energy:-0.276429E+03;  BLOECHL correction:   -0.205470
       DOS:  cpu time      0.2479: real time      0.0513
    CHARGE:  cpu time     24.2422: real time      1.3832
    MIXING:  cpu time      0.0011: real time      0.0011
    --------------------------------------------
      LOOP:  cpu time    383.8945: real time     21.8695

 eigenvalue-minimisations  :  5947
 total energy-change (2. order) :-0.1124758E-01  (-0.1056561E-01)
 number of electron      21.9999998 magnetization       0.0359829
 augmentation part        8.0649855 magnetization       0.0207348

 Broyden mixing:
  rms(total) = 0.11922E+00    rms(broyden)= 0.11922E+00
  rms(prec ) = 0.14797E+00
  weight for this iteration     100.00

 eigenvalues of (default mixing * dielectric matrix)
  average eigenvalue GAMMA=   1.0669
  1.8336  0.6835  0.6835

 Free energy of the ion-electron system (eV)
  ---------------------------------------------------
  alpha Z        PSCENC =       247.02244180
  Ewald energy   TEWEN  =     -1908.84641101
  -Hartree energ DENC   =      -244.74145751
  -exchange      EXHF   =         0.00000000
  -V(xc)+E(xc)   XCENC  =        50.83239337
  PAW double counting   =      2664.07194883    -2638.88913957
  entropy T*S    EENTRO =         0.00000000
  eigenvalues    EBANDS =      -276.42920509
  atomic energy  EATOM  =      2086.78124273
  Solvation  Ediel_sol  =         0.00000000
  ---------------------------------------------------
  free energy    TOTEN  =       -20.19818644 eV

  energy without entropy =      -20.19818644  energy(sigma->0) =      -20.19818644


--------------------------------------------------------------------------------------------------------




--------------------------------------- Iteration      1(   9)  ---------------------------------------


    POTLOK:  cpu time      1.0460: real time      0.0879
    SETDIJ:  cpu time      1.0434: real time      0.2498
    EDDIAG:  cpu time     72.9127: real time      4.1680
  RMM-DIIS:  cpu time    287.1238: real time     16.0425
    ORTHCH:  cpu time      1.7071: real time      0.1007
 BZINTS: Fermi energy:    4.822893;   22.000000 electrons
         Band energy:-0.276003E+03;  BLOECHL correction:   -0.205613
       DOS:  cpu time      0.2807: real time      0.0500
    CHARGE:  cpu time     26.9267: real time      1.5190
    MIXING:  cpu time      0.0016: real time      0.0013
    --------------------------------------------
      LOOP:  cpu time    391.0420: real time     22.2192

 eigenvalue-minimisations  :  5907
 total energy-change (2. order) : 0.1248331E-03  (-0.2370363E-02)
 number of electron      21.9999998 magnetization       0.0233344
 augmentation part        8.0650042 magnetization       0.0151461

 Broyden mixing:
  rms(total) = 0.98388E-01    rms(broyden)= 0.98388E-01
  rms(prec ) = 0.12495E+00
  weight for this iteration     100.00

 eigenvalues of (default mixing * dielectric matrix)
  average eigenvalue GAMMA=   1.0912
  2.0915  0.8393  0.8393  0.5947

 Free energy of the ion-electron system (eV)
  ---------------------------------------------------
  alpha Z        PSCENC =       247.02244180
  Ewald energy   TEWEN  =     -1908.84641101
  -Hartree energ DENC   =      -245.11291671
  -exchange      EXHF   =         0.00000000
  -V(xc)+E(xc)   XCENC  =        50.84965027
  PAW double counting   =      2704.74429168    -2679.63338535
  entropy T*S    EENTRO =         0.00000000
  eigenvalues    EBANDS =      -276.00297503
  atomic energy  EATOM  =      2086.78124273
  Solvation  Ediel_sol  =         0.00000000
  ---------------------------------------------------
  free energy    TOTEN  =       -20.19806161 eV

  energy without entropy =      -20.19806161  energy(sigma->0) =      -20.19806161


--------------------------------------------------------------------------------------------------------




--------------------------------------- Iteration      1(  10)  ---------------------------------------


    POTLOK:  cpu time      1.9306: real time      0.1277
    SETDIJ:  cpu time      1.0388: real time      0.2541
    EDDIAG:  cpu time     78.5424: real time      4.4295
  RMM-DIIS:  cpu time    272.9637: real time     14.8334
    ORTHCH:  cpu time      2.2377: real time      0.1291
 BZINTS: Fermi energy:    4.844509;   22.000000 electrons
         Band energy:-0.275048E+03;  BLOECHL correction:   -0.206100
       DOS:  cpu time      0.3493: real time      0.0538
    CHARGE:  cpu time     22.3157: real time      1.3164
    MIXING:  cpu time      0.1115: real time      0.0013
    --------------------------------------------
      LOOP:  cpu time    379.4897: real time     21.1454

 eigenvalue-minimisations  :  4762
 total energy-change (2. order) : 0.3226263E-02  (-0.5813534E-03)
 number of electron      21.9999998 magnetization      -0.0065149
 augmentation part        8.0566309 magnetization      -0.0049513

 Broyden mixing:
  rms(total) = 0.68413E-01    rms(broyden)= 0.68413E-01
  rms(prec ) = 0.76346E-01
  weight for this iteration     100.00

 eigenvalues of (default mixing * dielectric matrix)
  average eigenvalue GAMMA=   1.3488
  2.6212  1.3699  1.3699  0.6269  0.7560

 Free energy of the ion-electron system (eV)
  ---------------------------------------------------
  alpha Z        PSCENC =       247.02244180
  Ewald energy   TEWEN  =     -1908.84641101
  -Hartree energ DENC   =      -246.05264543
  -exchange      EXHF   =         0.00000000
  -V(xc)+E(xc)   XCENC  =        50.89449346
  PAW double counting   =      2782.53300841    -2757.47855083
  entropy T*S    EENTRO =         0.00000000
  eigenvalues    EBANDS =      -275.04841448
  atomic energy  EATOM  =      2086.78124273
  Solvation  Ediel_sol  =         0.00000000
  ---------------------------------------------------
  free energy    TOTEN  =       -20.19483535 eV

  energy without entropy =      -20.19483535  energy(sigma->0) =      -20.19483535


--------------------------------------------------------------------------------------------------------




--------------------------------------- Iteration      1(  11)  ---------------------------------------


    POTLOK:  cpu time      2.7611: real time      0.1819
    SETDIJ:  cpu time      1.0632: real time      0.2707
    EDDIAG:  cpu time     73.4515: real time      4.1879
  RMM-DIIS:  cpu time    261.3089: real time     14.6348
    ORTHCH:  cpu time      1.6173: real time      0.0946
 BZINTS: Fermi energy:    4.856962;   22.000000 electrons
         Band energy:-0.274492E+03;  BLOECHL correction:   -0.206292
       DOS:  cpu time      0.2753: real time      0.0535
    CHARGE:  cpu time     24.7352: real time      1.4258
    MIXING:  cpu time      0.1110: real time      0.0020
    --------------------------------------------
      LOOP:  cpu time    365.3235: real time     20.8513

 eigenvalue-minimisations  :  5398
 total energy-change (2. order) :-0.8400477E-04  (-0.5647103E-03)
 number of electron      21.9999998 magnetization      -0.0046307
 augmentation part        8.0496404 magnetization      -0.0003089

 Broyden mixing:
  rms(total) = 0.38141E-02    rms(broyden)= 0.38141E-02
  rms(prec ) = 0.46915E-02
  weight for this iteration     100.00

 eigenvalues of (default mixing * dielectric matrix)
  average eigenvalue GAMMA=   1.2704
  2.5858  1.4494  1.4494  0.7953  0.6184  0.7239

 Free energy of the ion-electron system (eV)
  ---------------------------------------------------
  alpha Z        PSCENC =       247.02244180
  Ewald energy   TEWEN  =     -1908.84641101
  -Hartree energ DENC   =      -246.56428038
  -exchange      EXHF   =         0.00000000
  -V(xc)+E(xc)   XCENC  =        50.91868205
  PAW double counting   =      2860.98729077    -2836.00194955
  entropy T*S    EENTRO =         0.00000000
  eigenvalues    EBANDS =      -274.49193577
  atomic energy  EATOM  =      2086.78124273
  Solvation  Ediel_sol  =         0.00000000
  ---------------------------------------------------
  free energy    TOTEN  =       -20.19491935 eV

  energy without entropy =      -20.19491935  energy(sigma->0) =      -20.19491935


--------------------------------------------------------------------------------------------------------




--------------------------------------- Iteration      1(  12)  ---------------------------------------


    POTLOK:  cpu time      1.7608: real time      0.1206
    SETDIJ:  cpu time      0.9961: real time      0.2439
    EDDIAG:  cpu time     75.6131: real time      4.3270
  RMM-DIIS:  cpu time    202.7948: real time     11.3237
    ORTHCH:  cpu time      1.5218: real time      0.0922
 BZINTS: Fermi energy:    4.857195;   22.000000 electrons
         Band energy:-0.274482E+03;  BLOECHL correction:   -0.206300
       DOS:  cpu time      0.3295: real time      0.0525
    --------------------------------------------
      LOOP:  cpu time    283.0161: real time     16.1599

 eigenvalue-minimisations  :  3930
 total energy-change (2. order) :-0.8037618E-04  (-0.6039397E-04)
 number of electron      21.9999998 magnetization      -0.0046307
 augmentation part        8.0496404 magnetization      -0.0003089

 Free energy of the ion-electron system (eV)
  ---------------------------------------------------
  alpha Z        PSCENC =       247.02244180
  Ewald energy   TEWEN  =     -1908.84641101
  -Hartree energ DENC   =      -246.59137876
  -exchange      EXHF   =         0.00000000
  -V(xc)+E(xc)   XCENC  =        50.92000146
  PAW double counting   =      2860.49418624    -2835.49279248
  entropy T*S    EENTRO =         0.00000000
  eigenvalues    EBANDS =      -274.48228971
  atomic energy  EATOM  =      2086.78124273
  Solvation  Ediel_sol  =         0.00000000
  ---------------------------------------------------
  free energy    TOTEN  =       -20.19499973 eV

  energy without entropy =      -20.19499973  energy(sigma->0) =      -20.19499973


--------------------------------------------------------------------------------------------------------




 average (electrostatic) potential at core
  the test charge radii are     1.2125
  (the norm of the test charge is              1.0000)
       1 -35.1672       2 -35.1672



 E-fermi :   4.8572     XC(G=0): -12.3448     alpha+bet :-12.7651

 Fermi energy:         4.8571951262

 spin component 1

 k-point     1 :       0.0000    0.0000    0.0000
  band No.  band energies     occupation 
      1     -25.8297      1.00000
      2     -25.7815      1.00000
      3     -25.7324      1.00000
      4     -24.9045      1.00000
      5     -24.9041      1.00000
      6     -24.9017      1.00000
      7      -1.0610      1.00000
      8       1.1666      1.00000
      9       1.2515      1.00000
     10       4.9905      0.12348
     11       5.2182     -0.01808
     12       5.4242      0.00000
     13       7.7820      0.00000
     14       8.2930      0.00000
     15      10.2465      0.00000
     16      10.3354      0.00000

 k-point     2 :       0.1429    0.0000    0.0000
  band No.  band energies     occupation 
      1     -25.7816      1.00000
      2     -25.7477      1.00000
      3     -25.7357      1.00000
      4     -25.0066      1.00000
      5     -24.9450      1.00000
      6     -24.9447      1.00000
      7      -0.6346      1.00000
      8       1.4081      1.00000
      9       1.6133      1.00000
     10       5.1458      0.11518
     11       5.1923     -0.02336
     12       5.3467      0.00000
     13       7.6493      0.00000
     14       8.1070      0.00000
     15       9.0155      0.00000
     16       9.0667      0.00000

 k-point     3 :       0.2857    0.0000    0.0000
  band No.  band energies     occupation 
      1     -25.7597      1.00000
      2     -25.6479      1.00000
      3     -25.6086      1.00000
      4     -25.2539      1.00000
      5     -25.0681      1.00000
      6     -25.0603      1.00000
      7       0.4978      1.00000
      8       2.1085      1.00000
      9       2.4181      1.00000
     10       5.0827      0.61573
     11       5.2701     -0.08337
     12       5.7816      0.00000
     13       6.2885      0.00000
     14       7.2938      0.00000
     15       7.4077      0.00000
     16       8.7890      0.00000

 k-point     4 :       0.4286    0.0000    0.0000
  band No.  band energies     occupation 
      1     -25.6979      1.00000
      2     -25.5193      1.00000
      3     -25.4574      1.00000
      4     -25.4278      1.00000
      5     -25.2502      1.00000
      6     -25.2319      1.00000
      7       1.8919      1.00000
      8       2.7440      1.00000
      9       3.2303      1.00000
     10       4.6849      0.98732
     11       5.3121      0.02843
     12       5.4806      0.00000
     13       6.0283      0.00000
     14       6.1737      0.00000
     15       6.7060      0.00000
     16       7.8603      0.00000

 k-point     5 :       0.0000    0.1429    0.0000
  band No.  band energies     occupation 
      1     -25.7848      1.00000
      2     -25.7826      1.00000
      3     -25.6898      1.00000
      4     -24.9987      1.00000
      5     -24.9461      1.00000
      6     -24.9436      1.00000
      7      -0.6516      1.00000
      8       1.4268      1.00000
      9       1.5564      1.00000
     10       4.9648      0.37774
     11       5.3873     -0.07564
     12       5.4094      0.00000
     13       7.3954      0.00000
     14       8.3189      0.00000
     15       9.1103      0.00000
     16       9.2022      0.00000

 k-point     6 :       0.1429    0.1429    0.0000
  band No.  band energies     occupation 
      1     -25.8404      1.00000
      2     -25.7384      1.00000
      3     -25.6099      1.00000
      4     -25.1622      1.00000
      5     -24.9842      1.00000
      6     -24.9107      1.00000
      7      -0.2634      1.00000
      8       1.6615      1.00000
      9       1.9000      1.00000
     10       4.6147      1.01103
     11       5.2014     -0.02694
     12       5.9126     -0.00658
     13       7.7301      0.00000
     14       7.7896      0.00000
     15       7.9570      0.00000
     16       8.1989      0.00000

 k-point     7 :       0.2857    0.1429    0.0000
  band No.  band energies     occupation 
      1     -25.8900      1.00000
      2     -25.6159      1.00000
      3     -25.4632      1.00000
      4     -25.4344      1.00000
      5     -25.0930      1.00000
      6     -24.9703      1.00000
      7       0.7291      1.00000
      8       2.2116      1.00000
      9       2.7284      1.00000
     10       4.3417      1.02265
     11       4.9073      0.56206
     12       6.2217     -0.05275
     13       6.7499      0.00000
     14       6.9332      0.00000
     15       7.0141      0.00000
     16       8.5870      0.00000

 k-point     8 :       0.4286    0.1429    0.0000
  band No.  band energies     occupation 
      1     -25.8543      1.00000
      2     -25.6944      1.00000
      3     -25.4424      1.00000
      4     -25.2854      1.00000
      5     -25.2555      1.00000
      6     -25.1081      1.00000
      7       1.8626      1.00000
      8       2.5435      1.00000
      9       3.5021      1.00000
     10       4.4042      1.00223
     11       4.4531      1.01960
     12       5.0724     -0.00513
     13       6.4567      0.00000
     14       6.4916      0.00000
     15       7.7932      0.00000
     16       8.9737      0.00000

 k-point     9 :       0.0000    0.2857    0.0000
  band No.  band energies     occupation 
      1     -25.7687      1.00000
      2     -25.6512      1.00000
      3     -25.5714      1.00000
      4     -25.2313      1.00000
      5     -25.0718      1.00000
      6     -25.0544      1.00000
      7       0.4416      1.00000
      8       2.1044      1.00000
      9       2.2989      1.00000
     10       5.0043      0.69998
     11       5.3971     -0.18958
     12       5.9680      0.00000
     13       6.1074      0.00000
     14       7.4014      0.00000
     15       7.6298      0.00000
     16       8.7778      0.00000

 k-point    10 :       0.1429    0.2857    0.0000
  band No.  band energies     occupation 
      1     -25.8851      1.00000
      2     -25.6182      1.00000
      3     -25.4488      1.00000
      4     -25.4214      1.00000
      5     -25.0955      1.00000
      6     -24.9637      1.00000
      7       0.6960      1.00000
      8       2.1983      1.00000
      9       2.6631      1.00000
     10       4.3463      1.03189
     11       4.9232      0.52125
     12       6.2668     -0.05297
     13       6.8199      0.00000
     14       6.9556      0.00000
     15       7.0221      0.00000
     16       8.5793      0.00000

 k-point    11 :       0.2857    0.2857    0.0000
  band No.  band energies     occupation 
      1     -26.0196      1.00000
      2     -25.7100      1.00000
      3     -25.5277      1.00000
      4     -25.2703      1.00000
      5     -25.1652      1.00000
      6     -24.9251      1.00000
      7       1.1734      1.00000
      8       2.1424      1.00000
      9       3.7031      1.00000
     10       3.7158      1.00000
     11       4.8697      0.76504
     12       4.9259      0.14003
     13       6.5777      0.00000
     14       7.9260      0.00000
     15       8.0807      0.00000
     16       8.2687      0.00000

 k-point    12 :       0.4286    0.2857    0.0000
  band No.  band energies     occupation 
      1     -26.0550      1.00000
      2     -25.9467      1.00000
      3     -25.4028      1.00000
      4     -25.2732      1.00000
      5     -25.1050      1.00000
      6     -24.9802      1.00000
      7       1.5204      1.00000
      8       1.8526      1.00000
      9       3.5266      1.00000
     10       3.9160      1.00000
     11       4.7434      0.73940
     12       5.2330     -0.03393
     13       7.1631      0.00000
     14       7.7205      0.00000
     15       9.1342      0.00000
     16       9.3434      0.00000

 k-point    13 :       0.0000    0.4286    0.0000
  band No.  band energies     occupation 
      1     -25.6802      1.00000
      2     -25.4902      1.00000
      3     -25.4627      1.00000
      4     -25.4022      1.00000
      5     -25.2557      1.00000
      6     -25.2175      1.00000
      7       1.7950      1.00000
      8       2.6129      1.00000
      9       3.1807      1.00000
     10       4.5733      0.99863
     11       5.3326     -0.11305
     12       5.6836      0.00000
     13       6.1133      0.00000
     14       6.4124      0.00000
     15       6.8433      0.00000
     16       7.9348      0.00000

 k-point    14 :       0.1429    0.4286    0.0000
  band No.  band energies     occupation 
      1     -25.8367      1.00000
      2     -25.6728      1.00000
      3     -25.4467      1.00000
      4     -25.2686      1.00000
      5     -25.2599      1.00000
      6     -25.0951      1.00000
      7       1.8145      1.00000
      8       2.4936      1.00000
      9       3.4406      1.00000
     10       4.3456      1.00263
     11       4.4888      1.01160
     12       5.1274     -0.01442
     13       6.5719      0.00000
     14       6.6096      0.00000
     15       7.8875      0.00000
     16       9.0588      0.00000

 k-point    15 :       0.2857    0.4286    0.0000
  band No.  band energies     occupation 
      1     -26.0462      1.00000
      2     -25.9372      1.00000
      3     -25.4048      1.00000
      4     -25.2752      1.00000
      5     -25.0988      1.00000
      6     -24.9746      1.00000
      7       1.5177      1.00000
      8       1.8489      1.00000
      9       3.5439      1.00000
     10       3.9364      1.00000
     11       4.7287      0.74758
     12       5.2024     -0.03020
     13       7.1515      0.00000
     14       7.8016      0.00000
     15       8.9453      0.00000
     16       9.3883      0.00000

 k-point    16 :       0.4286    0.4286    0.0000
  band No.  band energies     occupation 
      1     -26.1602      1.00000
      2     -26.1221      1.00000
      3     -25.3524      1.00000
      4     -25.3061      1.00000
      5     -24.9819      1.00000
      6     -24.9369      1.00000
      7       1.2295      1.00000
      8       1.3348      1.00000
      9       3.0839      1.00000
     10       3.2156      1.00000
     11       6.2928     -0.16733
     12       6.6618     -0.04669
     13       7.9247      0.00000
     14       8.3332      0.00000
     15       8.8112      0.00000
     16       9.8363      0.00000

 k-point    17 :       0.0000    0.0000    0.1429
  band No.  band energies     occupation 
      1     -25.8226      1.00000
      2     -25.7375      1.00000
      3     -25.6906      1.00000
      4     -24.9906      1.00000
      5     -24.9467      1.00000
      6     -24.9445      1.00000
      7      -0.6674      1.00000
      8       1.4560      1.00000
      9       1.4937      1.00000
     10       4.9995      0.25100
     11       5.2211     -0.05206
     12       5.6059      0.00000
     13       7.2561      0.00000
     14       8.4161      0.00000
     15       9.2501      0.00000
     16       9.2905      0.00000

 k-point    18 :       0.1429    0.0000    0.1429
  band No.  band energies     occupation 
      1     -25.8646      1.00000
      2     -25.6954      1.00000
      3     -25.6222      1.00000
      4     -25.1622      1.00000
      5     -24.9824      1.00000
      6     -24.9059      1.00000
      7      -0.2793      1.00000
      8       1.6635      1.00000
      9       1.8654      1.00000
     10       4.7339      0.90627
     11       5.0488      0.09297
     12       6.0160     -0.00625
     13       7.5081      0.00000
     14       7.9149      0.00000
     15       8.1216      0.00000
     16       8.1853      0.00000

 k-point    19 :       0.2857    0.0000    0.1429
  band No.  band energies     occupation 
      1     -25.9061      1.00000
      2     -25.5789      1.00000
      3     -25.4777      1.00000
      4     -25.4392      1.00000
      5     -25.0846      1.00000
      6     -24.9675      1.00000
      7       0.7119      1.00000
      8       2.2045      1.00000
      9       2.7069      1.00000
     10       4.4982      1.00886
     11       4.8077      0.76091
     12       6.3676     -0.05229
     13       6.7950      0.00000
     14       6.8524      0.00000
     15       6.9044      0.00000
     16       8.5902      0.00000

 k-point    20 :       0.4286    0.0000    0.1429
  band No.  band energies     occupation 
      1     -25.8660      1.00000
      2     -25.7027      1.00000
      3     -25.4143      1.00000
      4     -25.2954      1.00000
      5     -25.2377      1.00000
      6     -25.1112      1.00000
      7       1.8406      1.00000
      8       2.5218      1.00000
      9       3.5053      1.00000
     10       4.3995      1.00178
     11       4.6181      0.95895
     12       5.2319     -0.02853
     13       6.2782      0.00000
     14       6.3484      0.00000
     15       7.8028      0.00000
     16       8.9515      0.00000

 k-point    21 :       0.0000    0.1429    0.1429
  band No.  band energies     occupation 
      1     -25.8812      1.00000
      2     -25.6516      1.00000
      3     -25.6417      1.00000
      4     -25.1623      1.00000
      5     -24.9790      1.00000
      6     -24.9014      1.00000
      7      -0.2966      1.00000
      8       1.6816      1.00000
      9       1.8099      1.00000
     10       4.8853      0.70336
     11       4.8979      0.39767
     12       6.1007     -0.00569
     13       7.3197      0.00000
     14       8.0421      0.00000
     15       8.1950      0.00000
     16       8.2483      0.00000

 k-point    22 :       0.1429    0.1429    0.1429
  band No.  band energies     occupation 
      1     -25.8334      1.00000
      2     -25.7911      1.00000
      3     -25.4913      1.00000
      4     -25.2937      1.00000
      5     -24.9567      1.00000
      6     -24.9468      1.00000
      7       0.0776      1.00000
      8       1.9857      1.00000
      9       2.0731      1.00000
     10       4.5022      1.05350
     11       4.7394      0.73990
     12       6.4109     -0.05576
     13       6.6284      0.00000
     14       7.6450      0.00000
     15       8.0040      0.00000
     16       9.1927      0.00000

 k-point    23 :       0.2857    0.1429    0.1429
  band No.  band energies     occupation 
      1     -25.8996      1.00000
      2     -25.6889      1.00000
      3     -25.5449      1.00000
      4     -25.3359      1.00000
      5     -25.0778      1.00000
      6     -24.9772      1.00000
      7       1.0000      1.00000
      8       2.5156      1.00000
      9       2.8190      1.00000
     10       4.2178      1.01314
     11       4.3760      1.07166
     12       5.1389      0.10337
     13       7.2895      0.00000
     14       7.6131      0.00000
     15       7.6758      0.00000
     16       8.4788      0.00000

 k-point    24 :       0.4286    0.1429    0.1429
  band No.  band energies     occupation 
      1     -25.9055      1.00000
      2     -25.7785      1.00000
      3     -25.4887      1.00000
      4     -25.2703      1.00000
      5     -25.1869      1.00000
      6     -25.0603      1.00000
      7       1.9715      1.00000
      8       2.7197      1.00000
      9       3.2411      1.00000
     10       3.8920      1.00448
     11       4.5450      0.99431
     12       4.8851      0.24966
     13       6.6729      0.00000
     14       6.7482      0.00000
     15       8.6406      0.00000
     16       9.0727      0.00000

 k-point    25 :       0.0000    0.2857    0.1429
  band No.  band energies     occupation 
      1     -25.9161      1.00000
      2     -25.5432      1.00000
      3     -25.4785      1.00000
      4     -25.4315      1.00000
      5     -25.0771      1.00000
      6     -24.9578      1.00000
      7       0.6600      1.00000
      8       2.1839      1.00000
      9       2.6152      1.00000
     10       4.6797      0.99765
     11       4.7266      0.85109
     12       6.5637     -0.05054
     13       6.7128      0.00000
     14       6.8773      0.00000
     15       6.9130      0.00000
     16       8.5906      0.00000

 k-point    26 :       0.1429    0.2857    0.1429
[...]
  band No.  band energies     occupation 
      1     -26.0181      1.00000
      2     -25.9359      1.00000
      3     -25.4594      1.00000
      4     -25.2879      1.00000
      5     -25.0467      1.00000
      6     -24.9743      1.00000
      7       1.8891      1.00000
      8       2.2207      1.00000
      9       3.7371      1.00000
     10       3.8025      1.00000
     11       4.6141      0.88570
     12       4.6788      0.68966
     13       7.3196      0.00000
     14       7.5122      0.00000
     15       8.5550      0.00000
     16       9.0354      0.00000

 k-point    59 :       0.2857    0.2857    0.4286
  band No.  band energies     occupation 
      1     -25.9336      1.00000
      2     -25.9311      1.00000
      3     -25.5967      1.00000
      4     -25.3530      1.00000
      5     -25.0666      1.00000
      6     -25.0499      1.00000
      7       2.6576      1.00000
      8       2.6656      1.00000
      9       3.4930      1.00000
     10       3.6108      1.00000
     11       4.0799      1.01387
     12       4.3755      1.00834
     13       8.1159      0.00000
     14       8.1386      0.00000
     15       8.5113      0.00000
     16       8.5525      0.00000

 k-point    60 :       0.4286    0.2857    0.4286
  band No.  band energies     occupation 
      1     -25.9521      1.00000
      2     -25.9346      1.00000
      3     -25.5408      1.00000
      4     -25.4019      1.00000
      5     -25.1536      1.00000
      6     -25.1120      1.00000
      7       2.5443      1.00000
      8       2.6743      1.00000
      9       3.2451      1.00000
     10       3.4290      1.00000
     11       4.7372      0.83215
     12       4.9038      0.57712
     13       8.3265      0.00000
     14       8.3946      0.00000
     15       8.8332      0.00000
     16       8.8954      0.00000

 k-point    61 :       0.0000    0.4286    0.4286
  band No.  band energies     occupation 
      1     -26.1712      1.00000
      2     -26.1306      1.00000
      3     -25.3120      1.00000
      4     -25.2707      1.00000
      5     -24.9443      1.00000
      6     -24.8966      1.00000
      7       1.2506      1.00000
      8       1.3669      1.00000
      9       3.5382      1.00000
     10       3.6701      1.00000
     11       6.0516     -0.14968
     12       6.3883     -0.09086
     13       7.4310      0.00000
     14       7.7966      0.00000
     15       8.5766      0.00000
     16       9.4993      0.00000

 k-point    62 :       0.1429    0.4286    0.4286
  band No.  band energies     occupation 
      1     -26.1078      1.00000
      2     -26.0794      1.00000
      3     -25.3858      1.00000
      4     -25.3199      1.00000
      5     -24.9808      1.00000
      6     -24.9587      1.00000
      7       1.6829      1.00000
      8       1.7697      1.00000
      9       3.4472      1.00000
     10       3.5357      1.00000
     11       5.6638     -0.06961
     12       5.7413     -0.13382
     13       7.7009      0.00000
     14       7.9060      0.00000
     15       8.6111      0.00000
     16       8.9922      0.00000

 k-point    63 :       0.2857    0.4286    0.4286
  band No.  band energies     occupation 
      1     -25.9473      1.00000
      2     -25.9299      1.00000
      3     -25.5463      1.00000
      4     -25.4137      1.00000
      5     -25.1336      1.00000
      6     -25.0982      1.00000
      7       2.6225      1.00000
      8       2.7614      1.00000
      9       3.3277      1.00000
     10       3.5160      1.00000
     11       4.6118      0.89560
     12       4.7800      0.79053
     13       8.3001      0.00000
     14       8.3413      0.00000
     15       8.6837      0.00000
     16       8.7211      0.00000

 k-point    64 :       0.4286    0.4286    0.4286
  band No.  band energies     occupation 
      1     -25.8053      1.00000
      2     -25.6944      1.00000
      3     -25.6724      1.00000
      4     -25.4216      1.00000
      5     -25.3865      1.00000
      6     -25.2749      1.00000
      7       3.0373      1.00000
      8       3.4322      1.00000
      9       3.4748      1.00000
     10       3.9325      1.00000
     11       4.0771      1.00000
     12       4.1279      1.08793
     13       8.6564      0.00000
     14       8.6742      0.00000
     15       8.8909      0.00000
     16       8.8955      0.00000


--------------------------------------------------------------------------------------------------------


 soft charge-density along one line, spin component           1
         0         1         2         3         4         5         6         7         8         9
 total charge-density along one line

 soft charge-density along one line, spin component           2
         0         1         2         3         4         5         6         7         8         9
 total charge-density along one line

 pseudopotential strength for first ion, spin component:           1
-28.106   0.000   0.000   5.977  -0.000  -0.000  -0.000   0.000
  0.000 -28.106   0.000  -0.000   5.976  -0.000  -0.000   0.000
  0.000   0.000 -28.108  -0.000  -0.000   5.978   0.000  -0.000
  5.977  -0.000  -0.000   4.218   0.000   0.000   0.000  -0.000
 -0.000   5.976  -0.000   0.000   4.218   0.000   0.000  -0.000
 -0.000  -0.000   5.978   0.000   0.000   4.218  -0.000   0.000
 -0.000  -0.000   0.000   0.000   0.000  -0.000  -6.357   0.000
  0.000   0.000  -0.000  -0.000  -0.000   0.000   0.000  -6.357
 -0.000   0.000   0.000   0.000  -0.000  -0.000  -0.000   0.000
 -0.000   0.000   0.000   0.000  -0.000  -0.000   0.000   0.000
 -0.000   0.000   0.000   0.000  -0.000  -0.000  -0.000  -0.000
 -0.000  -0.000   0.000   0.000   0.000  -0.000  -7.214   0.000
  0.000   0.000  -0.000  -0.000  -0.000   0.000   0.000  -7.213
 -0.000   0.000   0.000   0.000  -0.000  -0.000  -0.000   0.000
 -0.000   0.000   0.000   0.000  -0.000  -0.000   0.000   0.000
 -0.000   0.000   0.000   0.000  -0.000  -0.000  -0.000  -0.000
 -0.000  -0.000  -0.000   0.000   0.000   0.000  -0.000  -0.000
  0.000   0.000   0.000   0.000   0.000  -0.000   0.000   0.000
 pseudopotential strength for first ion, spin component:           2
-28.106   0.000   0.000   5.977  -0.000  -0.000  -0.000   0.000
  0.000 -28.106   0.000  -0.000   5.977  -0.000  -0.000   0.000
  0.000   0.000 -28.108  -0.000  -0.000   5.978   0.000  -0.000
  5.977  -0.000  -0.000   4.218   0.000   0.000   0.000  -0.000
 -0.000   5.977  -0.000   0.000   4.218   0.000   0.000  -0.000
 -0.000  -0.000   5.978   0.000   0.000   4.218  -0.000   0.000
 -0.000  -0.000   0.000   0.000   0.000  -0.000  -6.357   0.000
  0.000   0.000  -0.000  -0.000  -0.000   0.000   0.000  -6.357
 -0.000   0.000   0.000   0.000  -0.000  -0.000  -0.000   0.000
 -0.000   0.000   0.000   0.000  -0.000  -0.000   0.000   0.000
 -0.000   0.000   0.000   0.000  -0.000  -0.000  -0.000  -0.000
 -0.000  -0.000   0.000   0.000   0.000  -0.000  -7.214   0.000
  0.000   0.000  -0.000  -0.000  -0.000   0.000   0.000  -7.213
 -0.000   0.000   0.000   0.000  -0.000  -0.000  -0.000   0.000
 -0.000   0.000   0.000   0.000  -0.000  -0.000   0.000   0.000
 -0.000   0.000   0.000   0.000  -0.000  -0.000  -0.000  -0.000
 -0.000  -0.000  -0.000   0.000   0.000   0.000  -0.000  -0.000
  0.000   0.000   0.000   0.000   0.000  -0.000   0.000   0.000
 total augmentation occupancy for first ion, spin component:           1
  1.993   0.000   0.000  -0.013  -0.000  -0.000   0.000   0.000  -0.000   0.000   0.000  -0.000   0.000  -0.000   0.000   0.000
  0.000   1.993   0.000  -0.000  -0.013  -0.000   0.000   0.000   0.000   0.000   0.000   0.000  -0.000   0.000   0.000   0.000
  0.000   0.000   1.993  -0.000  -0.000  -0.013   0.000   0.000   0.000   0.000   0.000   0.000   0.000  -0.000   0.000   0.000
 -0.013  -0.000  -0.000   0.203   0.000   0.000   0.000   0.000   0.000   0.000  -0.000   0.000   0.000   0.000   0.000   0.000
 -0.000  -0.013  -0.000   0.000   0.202   0.000   0.000   0.000   0.000   0.000  -0.000   0.000   0.000   0.000   0.000   0.000
 -0.000  -0.000  -0.013   0.000   0.000   0.206   0.000   0.000   0.000   0.000   0.000   0.000   0.000  -0.000   0.000   0.000
  0.000   0.000   0.000   0.000   0.000   0.000   5.896   0.000  -0.000   0.000   0.000  -3.293  -0.000   0.000  -0.000   0.000
  0.000   0.000   0.000   0.000   0.000   0.000   0.000   6.104   0.000   0.000  -0.000  -0.000  -3.391  -0.000  -0.000   0.000
  0.000   0.000   0.000   0.000   0.000   0.000  -0.000   0.000   5.552   0.000  -0.042   0.000  -0.000  -3.280  -0.000   0.021
  0.000   0.000   0.000   0.000   0.000   0.000   0.000   0.000   0.000   5.992   0.000  -0.000  -0.000  -0.000  -3.338  -0.000
  0.000   0.000   0.000   0.000   0.000   0.000   0.000  -0.000  -0.042   0.000   5.696   0.000   0.000   0.021  -0.000  -3.350
 -0.000   0.000   0.000   0.000   0.000   0.000  -3.293  -0.000   0.000  -0.000   0.000   1.876   0.000  -0.000   0.000  -0.000
  0.000   0.000   0.000   0.000   0.000   0.000  -0.000  -3.391  -0.000  -0.000   0.000   0.000   1.923   0.000   0.000  -0.000
  0.000   0.000  -0.000   0.000   0.000   0.000   0.000  -0.000  -3.280  -0.000   0.021  -0.000   0.000   1.955   0.000  -0.010
  0.000   0.000   0.000   0.000   0.000   0.000  -0.000  -0.000  -0.000  -3.338  -0.000   0.000   0.000   0.000   1.898   0.000
 -0.000   0.000   0.000  -0.000   0.000   0.000   0.000   0.000   0.021  -0.000  -3.350  -0.000  -0.000  -0.010   0.000   1.990
  0.000   0.000  -0.000   0.000   0.000   0.000   0.000   0.000  -0.022   0.000   0.019   0.000  -0.000   0.014   0.000  -0.011
 -0.000   0.000   0.000   0.000   0.000   0.000   0.000   0.000  -0.000  -0.000   0.000   0.000   0.000   0.000  -0.000  -0.000
 total augmentation occupancy for first ion, spin component:           2
  0.000   0.000   0.000   0.000   0.000   0.000   0.000   0.000   0.000   0.000   0.000   0.000   0.000   0.000   0.000   0.000
  0.000   0.000   0.000   0.000   0.000   0.000  -0.000  -0.000   0.000   0.000   0.000   0.000   0.000   0.000   0.000   0.000
  0.000   0.000   0.000   0.000   0.000   0.000   0.000  -0.000   0.000   0.000   0.000  -0.000   0.000   0.000   0.000   0.000
  0.000   0.000   0.000  -0.000  -0.000  -0.000   0.000   0.000   0.000   0.000   0.000   0.000   0.000  -0.000   0.000   0.000
  0.000   0.000   0.000  -0.000  -0.000  -0.000   0.000  -0.000   0.000  -0.000   0.000   0.000   0.000   0.000   0.000   0.000
  0.000   0.000   0.000  -0.000  -0.000  -0.000   0.000   0.000   0.000   0.000   0.000   0.000   0.000   0.000   0.000   0.000
  0.000   0.000   0.000   0.000  -0.000   0.000  -0.004  -0.000   0.000  -0.000   0.000   0.003   0.000  -0.000   0.000  -0.000
  0.000   0.000  -0.000   0.000  -0.000   0.000  -0.000  -0.004  -0.000  -0.000   0.000   0.000   0.002  -0.000   0.000  -0.000
  0.000  -0.000   0.000   0.000   0.000   0.000   0.000  -0.000  -0.006  -0.000  -0.000  -0.000  -0.000   0.005   0.000   0.000
 -0.000  -0.000   0.000   0.000  -0.000   0.000  -0.000  -0.000  -0.000  -0.004  -0.000   0.000   0.000  -0.000   0.002   0.000
 -0.000   0.000   0.000   0.000   0.000   0.000   0.000   0.000  -0.000  -0.000  -0.006  -0.000  -0.000   0.000   0.000   0.005
  0.000   0.000  -0.000   0.000   0.000   0.000   0.003   0.000  -0.000   0.000  -0.000  -0.002  -0.000   0.000  -0.000   0.000
  0.000  -0.000   0.000   0.000   0.000  -0.000   0.000   0.002  -0.000   0.000  -0.000  -0.000  -0.001   0.000  -0.000   0.000
 -0.000  -0.000   0.000  -0.000   0.000   0.000  -0.000  -0.000   0.005  -0.000   0.000   0.000   0.000  -0.004   0.000  -0.000
  0.000   0.000  -0.000   0.000   0.000   0.000   0.000   0.000   0.000   0.002   0.000  -0.000  -0.000   0.000  -0.001  -0.000
 -0.000   0.000  -0.000   0.000   0.000   0.000  -0.000  -0.000   0.000   0.000   0.005   0.000   0.000  -0.000  -0.000  -0.003
 -0.000   0.000   0.000   0.000   0.000   0.000  -0.000   0.000  -0.000   0.000   0.000   0.000   0.000   0.000  -0.000  -0.000
  0.000   0.000  -0.000   0.000   0.000   0.000   0.000  -0.000   0.000  -0.000  -0.000  -0.000   0.000  -0.000   0.000   0.000


------------------------ aborting loop because EDIFF is reached ----------------------------------------





 total charge

# of ion       s       p       d       tot
------------------------------------------
    1        0.419   6.290   3.084   9.792
    2        0.419   6.290   3.084   9.792
--------------------------------------------------
tot          0.837  12.580   6.167  19.584



 magnetization (x)

# of ion       s       p       d       tot
------------------------------------------
    1       -0.000  -0.000  -0.001  -0.001
    2       -0.000  -0.000  -0.001  -0.001
--------------------------------------------------
tot         -0.000  -0.000  -0.002  -0.003

    CHARGE:  cpu time     23.2123: real time      1.3444
    FORLOC:  cpu time      0.0004: real time      0.0004
    FORNL :  cpu time    115.1998: real time      6.4873
    STRESS:  cpu time    356.8626: real time     19.8802
    FORCOR:  cpu time      2.0029: real time      0.1395
    FORHAR:  cpu time      0.7825: real time      0.0346
    MIXING:  cpu time      0.0016: real time      0.0016
    OFIELD:  cpu time      0.0000: real time      0.0000

  FORCE on cell =-STRESS in cart. coord.  units (eV):
  Direction    XX          YY          ZZ          XY          YZ          ZX
  --------------------------------------------------------------------------------------
  Alpha Z   247.02244   247.02244   247.02244
  Ewald    -633.81869  -636.95753  -638.07086    -0.00000     0.00000     0.00000
  Hartree    83.32997    81.94079    81.31970    -0.00000    -0.00000    -0.00000
  E(xc)     -95.05918   -95.06762   -95.07195    -0.00000    -0.00000     0.00000
  Local     200.16990   204.59898   206.38294     0.00000     0.00000    -0.00000
  n-local   -84.31456   -84.68658   -84.93625     0.89068     0.61690     0.80715
  augment    53.49650    53.57521    53.59427     0.00000     0.00000    -0.00000
  Kinetic   229.62642   229.49635   229.19498     0.14908     0.38652     0.25032
  Fock        0.00000     0.00000     0.00000     0.00000     0.00000     0.00000
  -------------------------------------------------------------------------------------
  Total       0.45281    -0.07796    -0.56472    -0.00000    -0.00000     0.00000
  in kB      19.79295    -3.40789   -24.68501    -0.00000    -0.00000     0.00000
  external pressure =       -2.77 kB  Pullay stress =        0.00 kB


 VOLUME and BASIS-vectors are now :
 -----------------------------------------------------------------------------
  energy-cutoff  :      520.00
  volume of cell :       36.65
      direct lattice vectors                 reciprocal lattice vectors
     3.255777912  0.000000000  0.000000000     0.307146257 -0.000000000  0.000000000
     0.000000000  3.322222359  0.000000000     0.000000000  0.301003332  0.000000000
     0.000000000  0.000000000  3.388666806    -0.000000000 -0.000000000  0.295101306

  length of vectors
     3.255777912  3.322222359  3.388666806     0.307146257  0.301003332  0.295101306


 FORCES acting on ions
    electron-ion (+dipol)            ewald-force                    non-local-force                 convergence-correction
 -----------------------------------------------------------------------------------------------
   -.450E-14 -.127E-13 -.200E-13   -.312E-14 -.500E-14 -.378E-14   -.664E-22 -.301E-21 -.513E-21   0.164E-13 -.379E-13 -.112E-13
   0.125E-12 0.223E-12 -.120E-11   0.247E-14 0.917E-14 0.340E-14   0.113E-21 0.188E-21 -.491E-22   -.126E-13 -.223E-13 0.222E-13
 -----------------------------------------------------------------------------------------------
   0.120E-12 0.211E-12 -.122E-11   -.656E-15 0.417E-14 -.380E-15   0.466E-22 -.113E-21 -.562E-21   0.384E-14 -.603E-13 0.110E-13


 POSITION                                       TOTAL-FORCE (eV/Angst)
 -----------------------------------------------------------------------------------
      0.00000      0.00000      0.00000         0.000000     -0.000000     -0.000000
      1.62789      1.66111      1.69433        -0.000000      0.000000      0.000000
 -----------------------------------------------------------------------------------
    total drift:                                0.000000      0.000000     -0.000000


--------------------------------------------------------------------------------------------------------



  FREE ENERGIE OF THE ION-ELECTRON SYSTEM (eV)
  ---------------------------------------------------
  free  energy   TOTEN  =       -20.19499973 eV

  energy  without entropy=      -20.19499973  energy(sigma->0) =      -20.19499973



--------------------------------------------------------------------------------------------------------


    POTLOK:  cpu time      3.1560: real time      0.3931


--------------------------------------------------------------------------------------------------------


     LOOP+:  cpu time   5008.4318: real time    284.8637
 -----------------------------------------------------------------------------
|                                                                             |
|           W    W    AA    RRRRR   N    N  II  N    N   GGGG   !!!           |
|           W    W   A  A   R    R  NN   N  II  NN   N  G    G  !!!           |
|           W    W  A    A  R    R  N N  N  II  N N  N  G       !!!           |
|           W WW W  AAAAAA  RRRRR   N  N N  II  N  N N  G  GGG   !            |
|           WW  WW  A    A  R   R   N   NN  II  N   NN  G    G                |
|           W    W  A    A  R    R  N    N  II  N    N   GGGG   !!!           |
|                                                                             |
|     Tetrahedron method does not include variations of the Fermi             |
|     occupations, so forces and stress will be inaccurate. We suggest        |
|     using a different smearing scheme ISMEAR = 1 or 2 for metals in         |
|     relaxations.                                                            |
|                                                                             |
 -----------------------------------------------------------------------------

    4ORBIT:  cpu time      0.0000: real time      0.0000



 total charge

# of ion       s       p       d       tot
------------------------------------------
    1        0.419   6.290   3.084   9.792
    2        0.419   6.290   3.084   9.792
--------------------------------------------------
tot          0.837  12.580   6.167  19.584



 magnetization (x)

# of ion       s       p       d       tot
------------------------------------------
    1       -0.000  -0.000  -0.001  -0.001
    2       -0.000  -0.000  -0.001  -0.001
--------------------------------------------------
tot         -0.000  -0.000  -0.002  -0.003

 BZINTS: Fermi energy:    4.857195;   22.000000 electrons
         Band energy:-0.274482E+03;  BLOECHL correction:   -0.206300

 total amount of memory used by VASP MPI-rank0    87307. kBytes
=======================================================================

   base      :      30000. kBytes
   nonlr-proj:       5329. kBytes
   fftplans  :       5304. kBytes
   grid      :      12665. kBytes
   one-center:         62. kBytes
   wavefun   :      33947. kBytes

  
  
 General timing and accounting informations for this job:
 ========================================================
  
                  Total CPU time used (sec):     5061.507
                            User time (sec):     4833.955
                          System time (sec):      227.552
                         Elapsed time (sec):      288.566
  
                   Maximum memory used (kb):      326796.
                   Average memory used (kb):          N/A
  
                          Minor page faults:      6665122
                          Major page faults:           81
                 Voluntary context switches:      2439581
