  16  16   1   0
  0.1498027E+02  0.3817012E-09  0.3817012E-09  0.1645101E-08  0.5000000E-15
  1.000000000000000E-004
  CAR 
 unknown system                          
     16.92005003    -40.33684057  301     10.29632997      1.00000000
    -40.337  0.0000E+00  0.0000E+00  0.0000E+00  0.0000E+00
    -40.146  0.0000E+00  0.0000E+00  0.0000E+00  0.0000E+00
    -39.955  0.0000E+00  0.0000E+00  0.0000E+00  0.0000E+00
    -39.764  0.0000E+00  0.0000E+00  0.0000E+00  0.0000E+00
    -39.573  0.0000E+00  0.0000E+00  0.0000E+00  0.0000E+00
    -39.383  0.0000E+00  0.0000E+00  0.0000E+00  0.0000E+00
    -39.192  0.0000E+00  0.0000E+00  0.0000E+00  0.0000E+00
    -39.001  0.0000E+00  0.0000E+00  0.0000E+00  0.0000E+00
    -38.810  0.0000E+00  0.0000E+00  0.0000E+00  0.0000E+00
    -38.619  0.0000E+00  0.0000E+00  0.0000E+00  0.0000E+00
    -38.428  0.0000E+00  0.0000E+00  0.0000E+00  0.0000E+00
    -38.237  0.7577E-03  0.7606E-03  0.1446E-03  0.1452E-03
    -38.047  0.3364E-01  0.3377E-01  0.6566E-02  0.6590E-02
    -37.856  0.1423E+01  0.1428E+01  0.2782E+00  0.2791E+00
    -37.665  0.1472E+02  0.1473E+02  0.3088E+01  0.3091E+01
    -37.474  0.4642E+01  0.4629E+01  0.3974E+01  0.3974E+01
    -37.283  0.0000E+00  0.0000E+00  0.4000E+01  0.4000E+01
    -37.092  0.0000E+00  0.0000E+00  0.4000E+01  0.4000E+01
    -36.901  0.0000E+00  0.0000E+00  0.4000E+01  0.4000E+01
    -36.711  0.0000E+00  0.0000E+00  0.4000E+01  0.4000E+01
    -36.520  0.0000E+00  0.0000E+00  0.4000E+01  0.4000E+01
    -36.329  0.0000E+00  0.0000E+00  0.4000E+01  0.4000E+01
    -36.138  0.0000E+00  0.0000E+00  0.4000E+01  0.4000E+01
    -35.947  0.0000E+00  0.0000E+00  0.4000E+01  0.4000E+01
    -35.756  0.0000E+00  0.0000E+00  0.4000E+01  0.4000E+01
    -35.565  0.0000E+00  0.0000E+00  0.4000E+01  0.4000E+01
    -35.375  0.0000E+00  0.0000E+00  0.4000E+01  0.4000E+01
    -35.184  0.0000E+00  0.0000E+00  0.4000E+01  0.4000E+01
    -34.993  0.0000E+00  0.0000E+00  0.4000E+01  0.4000E+01
    -34.802  0.0000E+00  0.0000E+00  0.4000E+01  0.4000E+01
    -34.611  0.0000E+00  0.0000E+00  0.4000E+01  0.4000E+01
    -34.420  0.0000E+00  0.0000E+00  0.4000E+01  0.4000E+01
    -34.229  0.0000E+00  0.0000E+00  0.4000E+01  0.4000E+01
    -34.039  0.0000E+00  0.0000E+00  0.4000E+01  0.4000E+01
    -33.848  0.0000E+00  0.0000E+00  0.4000E+01  0.4000E+01
    -33.657  0.0000E+00  0.0000E+00  0.4000E+01  0.4000E+01
    -33.466  0.0000E+00  0.0000E+00  0.4000E+01  0.4000E+01
    -33.275  0.0000E+00  0.0000E+00  0.4000E+01  0.4000E+01
    -33.084  0.0000E+00  0.0000E+00  0.4000E+01  0.4000E+01
    -32.893  0.0000E+00  0.0000E+00  0.4000E+01  0.4000E+01
    -32.703  0.0000E+00  0.0000E+00  0.4000E+01  0.4000E+01
    -32.512  0.0000E+00  0.0000E+00  0.4000E+01  0.4000E+01
    -32.321  0.0000E+00  0.0000E+00  0.4000E+01  0.4000E+01
    -32.130  0.0000E+00  0.0000E+00  0.4000E+01  0.4000E+01
    -31.939  0.0000E+00  0.0000E+00  0.4000E+01  0.4000E+01
    -31.748  0.0000E+00  0.0000E+00  0.4000E+01  0.4000E+01
    -31.557  0.0000E+00  0.0000E+00  0.4000E+01  0.4000E+01
    -31.367  0.0000E+00  0.0000E+00  0.4000E+01  0.4000E+01
    -31.176  0.0000E+00  0.0000E+00  0.4000E+01  0.4000E+01
    -30.985  0.0000E+00  0.0000E+00  0.4000E+01  0.4000E+01
    -30.794  0.0000E+00  0.0000E+00  0.4000E+01  0.4000E+01
    -30.603  0.0000E+00  0.0000E+00  0.4000E+01  0.4000E+01
    -30.412  0.0000E+00  0.0000E+00  0.4000E+01  0.4000E+01
    -30.221  0.0000E+00  0.0000E+00  0.4000E+01  0.4000E+01
    -30.031  0.0000E+00  0.0000E+00  0.4000E+01  0.4000E+01
    -29.840  0.0000E+00  0.0000E+00  0.4000E+01  0.4000E+01
    -29.649  0.0000E+00  0.0000E+00  0.4000E+01  0.4000E+01
    -29.458  0.0000E+00  0.0000E+00  0.4000E+01  0.4000E+01
    -29.267  0.0000E+00  0.0000E+00  0.4000E+01  0.4000E+01
    -29.076  0.0000E+00  0.0000E+00  0.4000E+01  0.4000E+01
    -28.885  0.0000E+00  0.0000E+00  0.4000E+01  0.4000E+01
    -28.695  0.0000E+00  0.0000E+00  0.4000E+01  0.4000E+01
    -28.504  0.0000E+00  0.0000E+00  0.4000E+01  0.4000E+01
    -28.313  0.0000E+00  0.0000E+00  0.4000E+01  0.4000E+01
    -28.122  0.0000E+00  0.0000E+00  0.4000E+01  0.4000E+01
    -27.931  0.0000E+00  0.0000E+00  0.4000E+01  0.4000E+01
    -27.740  0.0000E+00  0.0000E+00  0.4000E+01  0.4000E+01
    -27.549  0.0000E+00  0.0000E+00  0.4000E+01  0.4000E+01
    -27.359  0.0000E+00  0.0000E+00  0.4000E+01  0.4000E+01
    -27.168  0.0000E+00  0.0000E+00  0.4000E+01  0.4000E+01
    -26.977  0.0000E+00  0.0000E+00  0.4000E+01  0.4000E+01
    -26.786  0.0000E+00  0.0000E+00  0.4000E+01  0.4000E+01
    -26.595  0.0000E+00  0.0000E+00  0.4000E+01  0.4000E+01
    -26.404  0.0000E+00  0.0000E+00  0.4000E+01  0.4000E+01
    -26.213  0.0000E+00  0.0000E+00  0.4000E+01  0.4000E+01
    -26.023  0.0000E+00  0.0000E+00  0.4000E+01  0.4000E+01
    -25.832  0.0000E+00  0.0000E+00  0.4000E+01  0.4000E+01
    -25.641  0.0000E+00  0.0000E+00  0.4000E+01  0.4000E+01
    -25.450  0.0000E+00  0.0000E+00  0.4000E+01  0.4000E+01
    -25.259  0.0000E+00  0.0000E+00  0.4000E+01  0.4000E+01
    -25.068  0.0000E+00  0.0000E+00  0.4000E+01  0.4000E+01
    -24.877  0.0000E+00  0.0000E+00  0.4000E+01  0.4000E+01
    -24.687  0.0000E+00  0.0000E+00  0.4000E+01  0.4000E+01
    -24.496  0.0000E+00  0.0000E+00  0.4000E+01  0.4000E+01
    -24.305  0.0000E+00  0.0000E+00  0.4000E+01  0.4000E+01
    -24.114  0.0000E+00  0.0000E+00  0.4000E+01  0.4000E+01
    -23.923  0.0000E+00  0.0000E+00  0.4000E+01  0.4000E+01
    -23.732  0.0000E+00  0.0000E+00  0.4000E+01  0.4000E+01
    -23.541  0.0000E+00  0.0000E+00  0.4000E+01  0.4000E+01
    -23.351  0.0000E+00  0.0000E+00  0.4000E+01  0.4000E+01
    -23.160  0.0000E+00  0.0000E+00  0.4000E+01  0.4000E+01
    -22.969  0.0000E+00  0.0000E+00  0.4000E+01  0.4000E+01
    -22.778  0.0000E+00  0.0000E+00  0.4000E+01  0.4000E+01
    -22.587  0.0000E+00  0.0000E+00  0.4000E+01  0.4000E+01
    -22.396  0.0000E+00  0.0000E+00  0.4000E+01  0.4000E+01
    -22.205  0.0000E+00  0.0000E+00  0.4000E+01  0.4000E+01
    -22.015  0.0000E+00  0.0000E+00  0.4000E+01  0.4000E+01
    -21.824  0.0000E+00  0.0000E+00  0.4000E+01  0.4000E+01
    -21.633  0.0000E+00  0.0000E+00  0.4000E+01  0.4000E+01
    -21.442  0.0000E+00  0.0000E+00  0.4000E+01  0.4000E+01
    -21.251  0.0000E+00  0.0000E+00  0.4000E+01  0.4000E+01
    -21.060  0.0000E+00  0.0000E+00  0.4000E+01  0.4000E+01
    -20.869  0.0000E+00  0.0000E+00  0.4000E+01  0.4000E+01
    -20.679  0.0000E+00  0.0000E+00  0.4000E+01  0.4000E+01
    -20.488  0.0000E+00  0.0000E+00  0.4000E+01  0.4000E+01
    -20.297  0.0000E+00  0.0000E+00  0.4000E+01  0.4000E+01
    -20.106  0.0000E+00  0.0000E+00  0.4000E+01  0.4000E+01
    -19.915  0.0000E+00  0.0000E+00  0.4000E+01  0.4000E+01
    -19.724  0.0000E+00  0.0000E+00  0.4000E+01  0.4000E+01
    -19.534  0.0000E+00  0.0000E+00  0.4000E+01  0.4000E+01
    -19.343  0.0000E+00  0.0000E+00  0.4000E+01  0.4000E+01
    -19.152  0.0000E+00  0.0000E+00  0.4000E+01  0.4000E+01
    -18.961  0.0000E+00  0.0000E+00  0.4000E+01  0.4000E+01
    -18.770  0.0000E+00  0.0000E+00  0.4000E+01  0.4000E+01
    -18.579  0.0000E+00  0.0000E+00  0.4000E+01  0.4000E+01
    -18.388  0.0000E+00  0.0000E+00  0.4000E+01  0.4000E+01
    -18.198  0.0000E+00  0.0000E+00  0.4000E+01  0.4000E+01
    -18.007  0.0000E+00  0.0000E+00  0.4000E+01  0.4000E+01
    -17.816  0.0000E+00  0.0000E+00  0.4000E+01  0.4000E+01
    -17.625  0.0000E+00  0.0000E+00  0.4000E+01  0.4000E+01
    -17.434  0.0000E+00  0.0000E+00  0.4000E+01  0.4000E+01
    -17.243  0.0000E+00  0.0000E+00  0.4000E+01  0.4000E+01
    -17.052  0.0000E+00  0.0000E+00  0.4000E+01  0.4000E+01
    -16.862  0.0000E+00  0.0000E+00  0.4000E+01  0.4000E+01
    -16.671  0.1871E-05  0.1875E-05  0.4000E+01  0.4000E+01
    -16.480  0.4880E-02  0.4889E-02  0.4001E+01  0.4001E+01
    -16.289  0.2156E+00  0.2160E+00  0.4042E+01  0.4042E+01
    -16.098  0.7560E+01  0.7571E+01  0.5485E+01  0.5487E+01
    -15.907  0.4122E+02  0.4123E+02  0.1335E+02  0.1336E+02
    -15.716  0.1342E+02  0.1341E+02  0.1591E+02  0.1591E+02
    -15.526  0.1100E+00  0.1068E+00  0.1600E+02  0.1600E+02
    -15.335  0.0000E+00  0.0000E+00  0.1600E+02  0.1600E+02
    -15.144  0.0000E+00  0.0000E+00  0.1600E+02  0.1600E+02
    -14.953  0.0000E+00  0.0000E+00  0.1600E+02  0.1600E+02
    -14.762  0.0000E+00  0.0000E+00  0.1600E+02  0.1600E+02
    -14.571  0.0000E+00  0.0000E+00  0.1600E+02  0.1600E+02
    -14.380  0.0000E+00  0.0000E+00  0.1600E+02  0.1600E+02
    -14.190  0.0000E+00  0.0000E+00  0.1600E+02  0.1600E+02
    -13.999  0.0000E+00  0.0000E+00  0.1600E+02  0.1600E+02
    -13.808  0.0000E+00  0.0000E+00  0.1600E+02  0.1600E+02
    -13.617  0.0000E+00  0.0000E+00  0.1600E+02  0.1600E+02
    -13.426  0.0000E+00  0.0000E+00  0.1600E+02  0.1600E+02
    -13.235  0.0000E+00  0.0000E+00  0.1600E+02  0.1600E+02
    -13.044  0.0000E+00  0.0000E+00  0.1600E+02  0.1600E+02
    -12.854  0.0000E+00  0.0000E+00  0.1600E+02  0.1600E+02
    -12.663  0.0000E+00  0.0000E+00  0.1600E+02  0.1600E+02
    -12.472  0.0000E+00  0.0000E+00  0.1600E+02  0.1600E+02
    -12.281  0.0000E+00  0.0000E+00  0.1600E+02  0.1600E+02
    -12.090  0.0000E+00  0.0000E+00  0.1600E+02  0.1600E+02
    -11.899  0.0000E+00  0.0000E+00  0.1600E+02  0.1600E+02
    -11.708  0.0000E+00  0.0000E+00  0.1600E+02  0.1600E+02
    -11.518  0.0000E+00  0.0000E+00  0.1600E+02  0.1600E+02
    -11.327  0.0000E+00  0.0000E+00  0.1600E+02  0.1600E+02
    -11.136  0.0000E+00  0.0000E+00  0.1600E+02  0.1600E+02
    -10.945  0.0000E+00  0.0000E+00  0.1600E+02  0.1600E+02
    -10.754  0.0000E+00  0.0000E+00  0.1600E+02  0.1600E+02
    -10.563  0.0000E+00  0.0000E+00  0.1600E+02  0.1600E+02
    -10.372  0.0000E+00  0.0000E+00  0.1600E+02  0.1600E+02
    -10.182  0.0000E+00  0.0000E+00  0.1600E+02  0.1600E+02
     -9.991  0.0000E+00  0.0000E+00  0.1600E+02  0.1600E+02
     -9.800  0.0000E+00  0.0000E+00  0.1600E+02  0.1600E+02
     -9.609  0.0000E+00  0.0000E+00  0.1600E+02  0.1600E+02
     -9.418  0.0000E+00  0.0000E+00  0.1600E+02  0.1600E+02
     -9.227  0.0000E+00  0.0000E+00  0.1600E+02  0.1600E+02
     -9.036  0.0000E+00  0.0000E+00  0.1600E+02  0.1600E+02
     -8.846  0.0000E+00  0.0000E+00  0.1600E+02  0.1600E+02
     -8.655  0.0000E+00  0.0000E+00  0.1600E+02  0.1600E+02
     -8.464  0.0000E+00  0.0000E+00  0.1600E+02  0.1600E+02
     -8.273  0.0000E+00  0.0000E+00  0.1600E+02  0.1600E+02
     -8.082  0.0000E+00  0.0000E+00  0.1600E+02  0.1600E+02
     -7.891  0.0000E+00  0.0000E+00  0.1600E+02  0.1600E+02
     -7.700  0.0000E+00  0.0000E+00  0.1600E+02  0.1600E+02
     -7.510  0.0000E+00  0.0000E+00  0.1600E+02  0.1600E+02
     -7.319  0.0000E+00  0.0000E+00  0.1600E+02  0.1600E+02
     -7.128  0.0000E+00  0.0000E+00  0.1600E+02  0.1600E+02
     -6.937  0.0000E+00  0.0000E+00  0.1600E+02  0.1600E+02
     -6.746  0.0000E+00  0.0000E+00  0.1600E+02  0.1600E+02
     -6.555  0.0000E+00  0.0000E+00  0.1600E+02  0.1600E+02
     -6.364  0.0000E+00  0.0000E+00  0.1600E+02  0.1600E+02
     -6.174  0.0000E+00  0.0000E+00  0.1600E+02  0.1600E+02
     -5.983  0.0000E+00  0.0000E+00  0.1600E+02  0.1600E+02
     -5.792  0.0000E+00  0.0000E+00  0.1600E+02  0.1600E+02
     -5.601  0.0000E+00  0.0000E+00  0.1600E+02  0.1600E+02
     -5.410  0.0000E+00  0.0000E+00  0.1600E+02  0.1600E+02
     -5.219  0.0000E+00  0.0000E+00  0.1600E+02  0.1600E+02
     -5.028  0.0000E+00  0.0000E+00  0.1600E+02  0.1600E+02
     -4.838  0.0000E+00  0.0000E+00  0.1600E+02  0.1600E+02
     -4.647  0.0000E+00  0.0000E+00  0.1600E+02  0.1600E+02
     -4.456  0.0000E+00  0.0000E+00  0.1600E+02  0.1600E+02
     -4.265  0.0000E+00  0.0000E+00  0.1600E+02  0.1600E+02
     -4.074  0.0000E+00  0.0000E+00  0.1600E+02  0.1600E+02
     -3.883  0.0000E+00  0.0000E+00  0.1600E+02  0.1600E+02
     -3.692  0.0000E+00  0.0000E+00  0.1600E+02  0.1600E+02
     -3.502  0.0000E+00  0.0000E+00  0.1600E+02  0.1600E+02
     -3.311  0.0000E+00  0.0000E+00  0.1600E+02  0.1600E+02
     -3.120  0.0000E+00  0.0000E+00  0.1600E+02  0.1600E+02
     -2.929  0.0000E+00  0.0000E+00  0.1600E+02  0.1600E+02
     -2.738  0.0000E+00  0.0000E+00  0.1600E+02  0.1600E+02
     -2.547  0.0000E+00  0.0000E+00  0.1600E+02  0.1600E+02
     -2.356  0.0000E+00  0.0000E+00  0.1600E+02  0.1600E+02
     -2.166  0.0000E+00  0.0000E+00  0.1600E+02  0.1600E+02
     -1.975  0.0000E+00  0.0000E+00  0.1600E+02  0.1600E+02
     -1.784  0.0000E+00  0.0000E+00  0.1600E+02  0.1600E+02
     -1.593  0.0000E+00  0.0000E+00  0.1600E+02  0.1600E+02
     -1.402  0.0000E+00  0.0000E+00  0.1600E+02  0.1600E+02
     -1.211  0.0000E+00  0.0000E+00  0.1600E+02  0.1600E+02
     -1.020  0.0000E+00  0.0000E+00  0.1600E+02  0.1600E+02
     -0.830  0.4551E-05  0.4535E-05  0.1600E+02  0.1600E+02
     -0.639  0.2115E-03  0.2108E-03  0.1600E+02  0.1600E+02
     -0.448  0.8767E-02  0.8739E-02  0.1600E+02  0.1600E+02
     -0.257  0.1240E+00  0.1238E+00  0.1603E+02  0.1603E+02
     -0.066  0.3083E+00  0.3081E+00  0.1608E+02  0.1608E+02
      0.125  0.4498E+00  0.4498E+00  0.1617E+02  0.1617E+02
      0.316  0.5781E+00  0.5779E+00  0.1628E+02  0.1628E+02
      0.506  0.6540E+00  0.6539E+00  0.1641E+02  0.1641E+02
      0.697  0.6673E+00  0.6672E+00  0.1653E+02  0.1653E+02
      0.888  0.9186E+00  0.9184E+00  0.1671E+02  0.1671E+02
      1.079  0.9338E+00  0.9340E+00  0.1689E+02  0.1689E+02
      1.270  0.9267E+00  0.9262E+00  0.1707E+02  0.1707E+02
      1.461  0.1273E+01  0.1273E+01  0.1731E+02  0.1731E+02
      1.652  0.1213E+01  0.1213E+01  0.1754E+02  0.1754E+02
      1.842  0.1402E+01  0.1402E+01  0.1781E+02  0.1781E+02
      2.033  0.1438E+01  0.1438E+01  0.1808E+02  0.1808E+02
      2.224  0.1810E+01  0.1810E+01  0.1843E+02  0.1843E+02
      2.415  0.1466E+01  0.1466E+01  0.1871E+02  0.1871E+02
      2.606  0.1691E+01  0.1691E+01  0.1904E+02  0.1904E+02
      2.797  0.1676E+01  0.1676E+01  0.1936E+02  0.1936E+02
      2.988  0.1744E+01  0.1745E+01  0.1969E+02  0.1969E+02
      3.178  0.1624E+01  0.1624E+01  0.2000E+02  0.2000E+02
      3.369  0.1266E+01  0.1267E+01  0.2024E+02  0.2024E+02
      3.560  0.1312E+01  0.1314E+01  0.2050E+02  0.2050E+02
      3.751  0.2235E+01  0.2234E+01  0.2092E+02  0.2092E+02
      3.942  0.2512E+01  0.2512E+01  0.2140E+02  0.2140E+02
      4.133  0.2133E+01  0.2133E+01  0.2181E+02  0.2181E+02
      4.324  0.2310E+01  0.2310E+01  0.2226E+02  0.2225E+02
      4.514  0.1764E+01  0.1764E+01  0.2259E+02  0.2259E+02
      4.705  0.2033E+01  0.2032E+01  0.2298E+02  0.2298E+02
      4.896  0.1874E+01  0.1875E+01  0.2334E+02  0.2334E+02
      5.087  0.1855E+01  0.1855E+01  0.2370E+02  0.2370E+02
      5.278  0.2688E+01  0.2687E+01  0.2421E+02  0.2421E+02
      5.469  0.3491E+01  0.3491E+01  0.2488E+02  0.2488E+02
      5.660  0.3068E+01  0.3068E+01  0.2547E+02  0.2547E+02
      5.850  0.2466E+01  0.2466E+01  0.2594E+02  0.2594E+02
      6.041  0.1604E+01  0.1604E+01  0.2625E+02  0.2625E+02
      6.232  0.2674E+01  0.2673E+01  0.2676E+02  0.2676E+02
      6.423  0.2936E+01  0.2937E+01  0.2732E+02  0.2732E+02
      6.614  0.2807E+01  0.2807E+01  0.2786E+02  0.2786E+02
      6.805  0.3211E+01  0.3211E+01  0.2847E+02  0.2847E+02
      6.996  0.3606E+01  0.3606E+01  0.2916E+02  0.2916E+02
      7.186  0.3560E+01  0.3560E+01  0.2985E+02  0.2985E+02
      7.377  0.3725E+01  0.3725E+01  0.3056E+02  0.3056E+02
      7.568  0.3807E+01  0.3807E+01  0.3129E+02  0.3129E+02
      7.759  0.4774E+01  0.4773E+01  0.3220E+02  0.3220E+02
      7.950  0.5024E+01  0.5024E+01  0.3317E+02  0.3317E+02
      8.141  0.4157E+01  0.4158E+01  0.3396E+02  0.3396E+02
      8.332  0.4447E+01  0.4446E+01  0.3482E+02  0.3482E+02
      8.522  0.5535E+01  0.5534E+01  0.3588E+02  0.3587E+02
      8.713  0.6295E+01  0.6294E+01  0.3708E+02  0.3708E+02
      8.904  0.5447E+01  0.5448E+01  0.3813E+02  0.3812E+02
      9.095  0.3799E+01  0.3800E+01  0.3886E+02  0.3885E+02
      9.286  0.3375E+01  0.3375E+01  0.3950E+02  0.3950E+02
      9.477  0.3801E+01  0.3801E+01  0.4023E+02  0.4023E+02
      9.668  0.2912E+01  0.2913E+01  0.4079E+02  0.4079E+02
      9.858  0.1997E+01  0.1997E+01  0.4117E+02  0.4117E+02
     10.049  0.1929E+01  0.1929E+01  0.4154E+02  0.4154E+02
     10.240  0.1781E+01  0.1781E+01  0.4189E+02  0.4189E+02
     10.431  0.2005E+01  0.2005E+01  0.4227E+02  0.4227E+02
     10.622  0.1816E+01  0.1816E+01  0.4262E+02  0.4262E+02
     10.813  0.2327E+01  0.2327E+01  0.4306E+02  0.4306E+02
     11.004  0.2259E+01  0.2259E+01  0.4350E+02  0.4350E+02
     11.194  0.2224E+01  0.2224E+01  0.4392E+02  0.4392E+02
     11.385  0.2171E+01  0.2171E+01  0.4434E+02  0.4434E+02
     11.576  0.3196E+01  0.3195E+01  0.4495E+02  0.4495E+02
     11.767  0.4255E+01  0.4255E+01  0.4576E+02  0.4576E+02
     11.958  0.4659E+01  0.4660E+01  0.4665E+02  0.4665E+02
     12.149  0.4384E+01  0.4385E+01  0.4749E+02  0.4749E+02
     12.339  0.4796E+01  0.4797E+01  0.4841E+02  0.4841E+02
     12.530  0.4860E+01  0.4857E+01  0.4934E+02  0.4934E+02
     12.721  0.4328E+01  0.4333E+01  0.5017E+02  0.5017E+02
     12.912  0.4704E+01  0.4706E+01  0.5107E+02  0.5108E+02
     13.103  0.5559E+01  0.5654E+01  0.5214E+02  0.5216E+02
     13.294  0.5146E+01  0.5125E+01  0.5312E+02  0.5314E+02
     13.485  0.5020E+01  0.4942E+01  0.5409E+02  0.5409E+02
     13.675  0.3659E+01  0.3710E+01  0.5479E+02  0.5480E+02
     13.866  0.2679E+01  0.2584E+01  0.5530E+02  0.5530E+02
     14.057  0.2395E+01  0.2364E+01  0.5576E+02  0.5575E+02
     14.248  0.9608E+00  0.1001E+01  0.5595E+02  0.5594E+02
     14.439  0.2433E+00  0.2687E+00  0.5600E+02  0.5600E+02
     14.630  0.1045E-01  0.1718E-01  0.5600E+02  0.5600E+02
     14.821  0.0000E+00  0.0000E+00  0.5600E+02  0.5600E+02
     15.011  0.0000E+00  0.0000E+00  0.5600E+02  0.5600E+02
     15.202  0.0000E+00  0.0000E+00  0.5600E+02  0.5600E+02
     15.393  0.0000E+00  0.0000E+00  0.5600E+02  0.5600E+02
     15.584  0.0000E+00  0.0000E+00  0.5600E+02  0.5600E+02
     15.775  0.0000E+00  0.0000E+00  0.5600E+02  0.5600E+02
     15.966  0.0000E+00  0.0000E+00  0.5600E+02  0.5600E+02
     16.157  0.0000E+00  0.0000E+00  0.5600E+02  0.5600E+02
     16.347  0.0000E+00  0.0000E+00  0.5600E+02  0.5600E+02
     16.538  0.0000E+00  0.0000E+00  0.5600E+02  0.5600E+02
     16.729  0.0000E+00  0.0000E+00  0.5600E+02  0.5600E+02
     16.920  0.0000E+00  0.0000E+00  0.5600E+02  0.5600E+02
     16.92005003    -40.33684057  301     10.29632997      1.00000000
    -40.337  0.0000E+00  0.0000E+00  0.0000E+00  0.0000E+00  0.0000E+00  0.0000E+00  0.0000E+00  0.0000E+00  0.0000E+00  0.0000E+00  0.0000E+00  0.0000E+00  0.0000E+00  0.0000E+00  0.0000E+00  0.0000E+00  0.0000E+00  0.0000E+00
    -40.146  0.0000E+00  0.0000E+00  0.0000E+00  0.0000E+00  0.0000E+00  0.0000E+00  0.0000E+00  0.0000E+00  0.0000E+00  0.0000E+00  0.0000E+00  0.0000E+00  0.0000E+00  0.0000E+00  0.0000E+00  0.0000E+00  0.0000E+00  0.0000E+00
    -39.955  0.0000E+00  0.0000E+00  0.0000E+00  0.0000E+00  0.0000E+00  0.0000E+00  0.0000E+00  0.0000E+00  0.0000E+00  0.0000E+00  0.0000E+00  0.0000E+00  0.0000E+00  0.0000E+00  0.0000E+00  0.0000E+00  0.0000E+00  0.0000E+00
    -39.764  0.0000E+00  0.0000E+00  0.0000E+00  0.0000E+00  0.0000E+00  0.0000E+00  0.0000E+00  0.0000E+00  0.0000E+00  0.0000E+00  0.0000E+00  0.0000E+00  0.0000E+00  0.0000E+00  0.0000E+00  0.0000E+00  0.0000E+00  0.0000E+00
    -39.573  0.0000E+00  0.0000E+00  0.0000E+00  0.0000E+00  0.0000E+00  0.0000E+00  0.0000E+00  0.0000E+00  0.0000E+00  0.0000E+00  0.0000E+00  0.0000E+00  0.0000E+00  0.0000E+00  0.0000E+00  0.0000E+00  0.0000E+00  0.0000E+00
    -39.383  0.0000E+00  0.0000E+00  0.0000E+00  0.0000E+00  0.0000E+00  0.0000E+00  0.0000E+00  0.0000E+00  0.0000E+00  0.0000E+00  0.0000E+00  0.0000E+00  0.0000E+00  0.0000E+00  0.0000E+00  0.0000E+00  0.0000E+00  0.0000E+00
    -39.192  0.0000E+00  0.0000E+00  0.0000E+00  0.0000E+00  0.0000E+00  0.0000E+00  0.0000E+00  0.0000E+00  0.0000E+00  0.0000E+00  0.0000E+00  0.0000E+00  0.0000E+00  0.0000E+00  0.0000E+00  0.0000E+00  0.0000E+00  0.0000E+00
    -39.001  0.0000E+00  0.0000E+00  0.0000E+00  0.0000E+00  0.0000E+00  0.0000E+00  0.0000E+00  0.0000E+00  0.0000E+00  0.0000E+00  0.0000E+00  0.0000E+00  0.0000E+00  0.0000E+00  0.0000E+00  0.0000E+00  0.0000E+00  0.0000E+00
    -38.810  0.0000E+00  0.0000E+00  0.0000E+00  0.0000E+00  0.0000E+00  0.0000E+00  0.0000E+00  0.0000E+00  0.0000E+00  0.0000E+00  0.0000E+00  0.0000E+00  0.0000E+00  0.0000E+00  0.0000E+00  0.0000E+00  0.0000E+00  0.0000E+00
    -38.619  0.0000E+00  0.0000E+00  0.0000E+00  0.0000E+00  0.0000E+00  0.0000E+00  0.0000E+00  0.0000E+00  0.0000E+00  0.0000E+00  0.0000E+00  0.0000E+00  0.0000E+00  0.0000E+00  0.0000E+00  0.0000E+00  0.0000E+00  0.0000E+00
    -38.428  0.0000E+00  0.0000E+00  0.0000E+00  0.0000E+00  0.0000E+00  0.0000E+00  0.0000E+00  0.0000E+00  0.0000E+00  0.0000E+00  0.0000E+00  0.0000E+00  0.0000E+00  0.0000E+00  0.0000E+00  0.0000E+00  0.0000E+00  0.0000E+00
    -38.237  0.1879E-03  0.1886E-03  0.9135E-11  0.9163E-11  0.1313E-08  0.1319E-08  0.9135E-11  0.9163E-11  0.1224E-13  0.8396E-14  0.6981E-14  0.5338E-14  0.5889E-10  0.5902E-10  0.6981E-14  0.5338E-14  0.1045E-10  0.1048E-10
    -38.047  0.8345E-02  0.8376E-02  0.4056E-09  0.4068E-09  0.5831E-07  0.5856E-07  0.4056E-09  0.4068E-09  0.5434E-12  0.3728E-12  0.3099E-12  0.2370E-12  0.2615E-08  0.2621E-08  0.3099E-12  0.2370E-12  0.4638E-09  0.4654E-09
    -37.856  0.3530E+00  0.3542E+00  0.1715E-07  0.1720E-07  0.2466E-05  0.2476E-05  0.1715E-07  0.1720E-07  0.2299E-10  0.1577E-10  0.1310E-10  0.1001E-10  0.1104E-06  0.1107E-06  0.1310E-10  0.1001E-10  0.1963E-07  0.1969E-07
    -37.665  0.3652E+01  0.3654E+01  0.1772E-06  0.1772E-06  0.2547E-04  0.2550E-04  0.1772E-06  0.1772E-06  0.2377E-09  0.1626E-09  0.1340E-09  0.1020E-09  0.1125E-05  0.1124E-05  0.1340E-09  0.1020E-09  0.2035E-06  0.2036E-06
    -37.474  0.1151E+01  0.1148E+01  0.5568E-07  0.5552E-07  0.8014E-05  0.7994E-05  0.5568E-07  0.5552E-07  0.7474E-10  0.5098E-10  0.4160E-10  0.3151E-10  0.3481E-06  0.3466E-06  0.4160E-10  0.3151E-10  0.6412E-07  0.6396E-07
    -37.283  0.0000E+00  0.0000E+00  0.0000E+00  0.0000E+00  0.0000E+00  0.0000E+00  0.0000E+00  0.0000E+00  0.0000E+00  0.0000E+00  0.0000E+00  0.0000E+00  0.0000E+00  0.0000E+00  0.0000E+00  0.0000E+00  0.0000E+00  0.0000E+00
    -37.092  0.0000E+00  0.0000E+00  0.0000E+00  0.0000E+00  0.0000E+00  0.0000E+00  0.0000E+00  0.0000E+00  0.0000E+00  0.0000E+00  0.0000E+00  0.0000E+00  0.0000E+00  0.0000E+00  0.0000E+00  0.0000E+00  0.0000E+00  0.0000E+00
    -36.901  0.0000E+00  0.0000E+00  0.0000E+00  0.0000E+00  0.0000E+00  0.0000E+00  0.0000E+00  0.0000E+00  0.0000E+00  0.0000E+00  0.0000E+00  0.0000E+00  0.0000E+00  0.0000E+00  0.0000E+00  0.0000E+00  0.0000E+00  0.0000E+00
    -36.711  0.0000E+00  0.0000E+00  0.0000E+00  0.0000E+00  0.0000E+00  0.0000E+00  0.0000E+00  0.0000E+00  0.0000E+00  0.0000E+00  0.0000E+00  0.0000E+00  0.0000E+00  0.0000E+00  0.0000E+00  0.0000E+00  0.0000E+00  0.0000E+00
    -36.520  0.0000E+00  0.0000E+00  0.0000E+00  0.0000E+00  0.0000E+00  0.0000E+00  0.0000E+00  0.0000E+00  0.0000E+00  0.0000E+00  0.0000E+00  0.0000E+00  0.0000E+00  0.0000E+00  0.0000E+00  0.0000E+00  0.0000E+00  0.0000E+00
    -36.329  0.0000E+00  0.0000E+00  0.0000E+00  0.0000E+00  0.0000E+00  0.0000E+00  0.0000E+00  0.0000E+00  0.0000E+00  0.0000E+00  0.0000E+00  0.0000E+00  0.0000E+00  0.0000E+00  0.0000E+00  0.0000E+00  0.0000E+00  0.0000E+00
    -36.138  0.0000E+00  0.0000E+00  0.0000E+00  0.0000E+00  0.0000E+00  0.0000E+00  0.0000E+00  0.0000E+00  0.0000E+00  0.0000E+00  0.0000E+00  0.0000E+00  0.0000E+00  0.0000E+00  0.0000E+00  0.0000E+00  0.0000E+00  0.0000E+00
    -35.947  0.0000E+00  0.0000E+00  0.0000E+00  0.0000E+00  0.0000E+00  0.0000E+00  0.0000E+00  0.0000E+00  0.0000E+00  0.0000E+00  0.0000E+00  0.0000E+00  0.0000E+00  0.0000E+00  0.0000E+00  0.0000E+00  0.0000E+00  0.0000E+00
    -35.756  0.0000E+00  0.0000E+00  0.0000E+00  0.0000E+00  0.0000E+00  0.0000E+00  0.0000E+00  0.0000E+00  0.0000E+00  0.0000E+00  0.0000E+00  0.0000E+00  0.0000E+00  0.0000E+00  0.0000E+00  0.0000E+00  0.0000E+00  0.0000E+00
    -35.565  0.0000E+00  0.0000E+00  0.0000E+00  0.0000E+00  0.0000E+00  0.0000E+00  0.0000E+00  0.0000E+00  0.0000E+00  0.0000E+00  0.0000E+00  0.0000E+00  0.0000E+00  0.0000E+00  0.0000E+00  0.0000E+00  0.0000E+00  0.0000E+00
    -35.375  0.0000E+00  0.0000E+00  0.0000E+00  0.0000E+00  0.0000E+00  0.0000E+00  0.0000E+00  0.0000E+00  0.0000E+00  0.0000E+00  0.0000E+00  0.0000E+00  0.0000E+00  0.0000E+00  0.0000E+00  0.0000E+00  0.0000E+00  0.0000E+00
    -35.184  0.0000E+00  0.0000E+00  0.0000E+00  0.0000E+00  0.0000E+00  0.0000E+00  0.0000E+00  0.0000E+00  0.0000E+00  0.0000E+00  0.0000E+00  0.0000E+00  0.0000E+00  0.0000E+00  0.0000E+00  0.0000E+00  0.0000E+00  0.0000E+00
    -34.993  0.0000E+00  0.0000E+00  0.0000E+00  0.0000E+00  0.0000E+00  0.0000E+00  0.0000E+00  0.0000E+00  0.0000E+00  0.0000E+00  0.0000E+00  0.0000E+00  0.0000E+00  0.0000E+00  0.0000E+00  0.0000E+00  0.0000E+00  0.0000E+00
    -34.802  0.0000E+00  0.0000E+00  0.0000E+00  0.0000E+00  0.0000E+00  0.0000E+00  0.0000E+00  0.0000E+00  0.0000E+00  0.0000E+00  0.0000E+00  0.0000E+00  0.0000E+00  0.0000E+00  0.0000E+00  0.0000E+00  0.0000E+00  0.0000E+00
    -34.611  0.0000E+00  0.0000E+00  0.0000E+00  0.0000E+00  0.0000E+00  0.0000E+00  0.0000E+00  0.0000E+00  0.0000E+00  0.0000E+00  0.0000E+00  0.0000E+00  0.0000E+00  0.0000E+00  0.0000E+00  0.0000E+00  0.0000E+00  0.0000E+00
    -34.420  0.0000E+00  0.0000E+00  0.0000E+00  0.0000E+00  0.0000E+00  0.0000E+00  0.0000E+00  0.0000E+00  0.0000E+00  0.0000E+00  0.0000E+00  0.0000E+00  0.0000E+00  0.0000E+00  0.0000E+00  0.0000E+00  0.0000E+00  0.0000E+00
    -34.229  0.0000E+00  0.0000E+00  0.0000E+00  0.0000E+00  0.0000E+00  0.0000E+00  0.0000E+00  0.0000E+00  0.0000E+00  0.0000E+00  0.0000E+00  0.0000E+00  0.0000E+00  0.0000E+00  0.0000E+00  0.0000E+00  0.0000E+00  0.0000E+00
    -34.039  0.0000E+00  0.0000E+00  0.0000E+00  0.0000E+00  0.0000E+00  0.0000E+00  0.0000E+00  0.0000E+00  0.0000E+00  0.0000E+00  0.0000E+00  0.0000E+00  0.0000E+00  0.0000E+00  0.0000E+00  0.0000E+00  0.0000E+00  0.0000E+00
    -33.848  0.0000E+00  0.0000E+00  0.0000E+00  0.0000E+00  0.0000E+00  0.0000E+00  0.0000E+00  0.0000E+00  0.0000E+00  0.0000E+00  0.0000E+00  0.0000E+00  0.0000E+00  0.0000E+00  0.0000E+00  0.0000E+00  0.0000E+00  0.0000E+00
    -33.657  0.0000E+00  0.0000E+00  0.0000E+00  0.0000E+00  0.0000E+00  0.0000E+00  0.0000E+00  0.0000E+00  0.0000E+00  0.0000E+00  0.0000E+00  0.0000E+00  0.0000E+00  0.0000E+00  0.0000E+00  0.0000E+00  0.0000E+00  0.0000E+00
    -33.466  0.0000E+00  0.0000E+00  0.0000E+00  0.0000E+00  0.0000E+00  0.0000E+00  0.0000E+00  0.0000E+00  0.0000E+00  0.0000E+00  0.0000E+00  0.0000E+00  0.0000E+00  0.0000E+00  0.0000E+00  0.0000E+00  0.0000E+00  0.0000E+00
    -33.275  0.0000E+00  0.0000E+00  0.0000E+00  0.0000E+00  0.0000E+00  0.0000E+00  0.0000E+00  0.0000E+00  0.0000E+00  0.0000E+00  0.0000E+00  0.0000E+00  0.0000E+00  0.0000E+00  0.0000E+00  0.0000E+00  0.0000E+00  0.0000E+00
    -33.084  0.0000E+00  0.0000E+00  0.0000E+00  0.0000E+00  0.0000E+00  0.0000E+00  0.0000E+00  0.0000E+00  0.0000E+00  0.0000E+00  0.0000E+00  0.0000E+00  0.0000E+00  0.0000E+00  0.0000E+00  0.0000E+00  0.0000E+00  0.0000E+00
    -32.893  0.0000E+00  0.0000E+00  0.0000E+00  0.0000E+00  0.0000E+00  0.0000E+00  0.0000E+00  0.0000E+00  0.0000E+00  0.0000E+00  0.0000E+00  0.0000E+00  0.0000E+00  0.0000E+00  0.0000E+00  0.0000E+00  0.0000E+00  0.0000E+00
    -32.703  0.0000E+00  0.0000E+00  0.0000E+00  0.0000E+00  0.0000E+00  0.0000E+00  0.0000E+00  0.0000E+00  0.0000E+00  0.0000E+00  0.0000E+00  0.0000E+00  0.0000E+00  0.0000E+00  0.0000E+00  0.0000E+00  0.0000E+00  0.0000E+00
    -32.512  0.0000E+00  0.0000E+00  0.0000E+00  0.0000E+00  0.0000E+00  0.0000E+00  0.0000E+00  0.0000E+00  0.0000E+00  0.0000E+00  0.0000E+00  0.0000E+00  0.0000E+00  0.0000E+00  0.0000E+00  0.0000E+00  0.0000E+00  0.0000E+00
    -32.321  0.0000E+00  0.0000E+00  0.0000E+00  0.0000E+00  0.0000E+00  0.0000E+00  0.0000E+00  0.0000E+00  0.0000E+00  0.0000E+00  0.0000E+00  0.0000E+00  0.0000E+00  0.0000E+00  0.0000E+00  0.0000E+00  0.0000E+00  0.0000E+00
    -32.130  0.0000E+00  0.0000E+00  0.0000E+00  0.0000E+00  0.0000E+00  0.0000E+00  0.0000E+00  0.0000E+00  0.0000E+00  0.0000E+00  0.0000E+00  0.0000E+00  0.0000E+00  0.0000E+00  0.0000E+00  0.0000E+00  0.0000E+00  0.0000E+00
    -31.939  0.0000E+00  0.0000E+00  0.0000E+00  0.0000E+00  0.0000E+00  0.0000E+00  0.0000E+00  0.0000E+00  0.0000E+00  0.0000E+00  0.0000E+00  0.0000E+00  0.0000E+00  0.0000E+00  0.0000E+00  0.0000E+00  0.0000E+00  0.0000E+00
    -31.748  0.0000E+00  0.0000E+00  0.0000E+00  0.0000E+00  0.0000E+00  0.0000E+00  0.0000E+00  0.0000E+00  0.0000E+00  0.0000E+00  0.0000E+00  0.0000E+00  0.0000E+00  0.0000E+00  0.0000E+00  0.0000E+00  0.0000E+00  0.0000E+00
    -31.557  0.0000E+00  0.0000E+00  0.0000E+00  0.0000E+00  0.0000E+00  0.0000E+00  0.0000E+00  0.0000E+00  0.0000E+00  0.0000E+00  0.0000E+00  0.0000E+00  0.0000E+00  0.0000E+00  0.0000E+00  0.0000E+00  0.0000E+00  0.0000E+00
    -31.367  0.0000E+00  0.0000E+00  0.0000E+00  0.0000E+00  0.0000E+00  0.0000E+00  0.0000E+00  0.0000E+00  0.0000E+00  0.0000E+00  0.0000E+00  0.0000E+00  0.0000E+00  0.0000E+00  0.0000E+00  0.0000E+00  0.0000E+00  0.0000E+00
    -31.176  0.0000E+00  0.0000E+00  0.0000E+00  0.0000E+00  0.0000E+00  0.0000E+00  0.0000E+00  0.0000E+00  0.0000E+00  0.0000E+00  0.0000E+00  0.0000E+00  0.0000E+00  0.0000E+00  0.0000E+00  0.0000E+00  0.0000E+00  0.0000E+00
    -30.985  0.0000E+00  0.0000E+00  0.0000E+00  0.0000E+00  0.0000E+00  0.0000E+00  0.0000E+00  0.0000E+00  0.0000E+00  0.0000E+00  0.0000E+00  0.0000E+00  0.0000E+00  0.0000E+00  0.0000E+00  0.0000E+00  0.0000E+00  0.0000E+00
    -30.794  0.0000E+00  0.0000E+00  0.0000E+00  0.0000E+00  0.0000E+00  0.0000E+00  0.0000E+00  0.0000E+00  0.0000E+00  0.0000E+00  0.0000E+00  0.0000E+00  0.0000E+00  0.0000E+00  0.0000E+00  0.0000E+00  0.0000E+00  0.0000E+00