  16  16   1   0
  0.1800168E+02  0.4058087E-09  0.4058087E-09  0.1749002E-08  0.5000000E-15
  1.000000000000000E-004
  CAR 
 unknown system                          
     14.25354345    -42.94728870  301      8.31289389      1.00000000
    -42.947  0.0000E+00  0.0000E+00  0.0000E+00  0.0000E+00
    -42.757  0.0000E+00  0.0000E+00  0.0000E+00  0.0000E+00
    -42.566  0.0000E+00  0.0000E+00  0.0000E+00  0.0000E+00
    -42.375  0.0000E+00  0.0000E+00  0.0000E+00  0.0000E+00
    -42.185  0.0000E+00  0.0000E+00  0.0000E+00  0.0000E+00
    -41.994  0.0000E+00  0.0000E+00  0.0000E+00  0.0000E+00
    -41.803  0.0000E+00  0.0000E+00  0.0000E+00  0.0000E+00
    -41.613  0.0000E+00  0.0000E+00  0.0000E+00  0.0000E+00
    -41.422  0.0000E+00  0.0000E+00  0.0000E+00  0.0000E+00
    -41.231  0.0000E+00  0.0000E+00  0.0000E+00  0.0000E+00
    -41.041  0.0000E+00  0.0000E+00  0.0000E+00  0.0000E+00
    -40.850  0.8468E-03  0.8513E-03  0.1615E-03  0.1623E-03
    -40.659  0.3745E-01  0.3765E-01  0.7302E-02  0.7340E-02
    -40.469  0.1567E+01  0.1574E+01  0.3060E+00  0.3075E+00
    -40.278  0.1496E+02  0.1497E+02  0.3158E+01  0.3162E+01
    -40.087  0.4293E+01  0.4275E+01  0.3977E+01  0.3977E+01
    -39.897  0.0000E+00  0.0000E+00  0.4000E+01  0.4000E+01
    -39.706  0.0000E+00  0.0000E+00  0.4000E+01  0.4000E+01
    -39.515  0.0000E+00  0.0000E+00  0.4000E+01  0.4000E+01
    -39.325  0.0000E+00  0.0000E+00  0.4000E+01  0.4000E+01
    -39.134  0.0000E+00  0.0000E+00  0.4000E+01  0.4000E+01
    -38.943  0.0000E+00  0.0000E+00  0.4000E+01  0.4000E+01
    -38.753  0.0000E+00  0.0000E+00  0.4000E+01  0.4000E+01
    -38.562  0.0000E+00  0.0000E+00  0.4000E+01  0.4000E+01
    -38.371  0.0000E+00  0.0000E+00  0.4000E+01  0.4000E+01
    -38.181  0.0000E+00  0.0000E+00  0.4000E+01  0.4000E+01
    -37.990  0.0000E+00  0.0000E+00  0.4000E+01  0.4000E+01
    -37.799  0.0000E+00  0.0000E+00  0.4000E+01  0.4000E+01
    -37.609  0.0000E+00  0.0000E+00  0.4000E+01  0.4000E+01
    -37.418  0.0000E+00  0.0000E+00  0.4000E+01  0.4000E+01
    -37.227  0.0000E+00  0.0000E+00  0.4000E+01  0.4000E+01
    -37.037  0.0000E+00  0.0000E+00  0.4000E+01  0.4000E+01
    -36.846  0.0000E+00  0.0000E+00  0.4000E+01  0.4000E+01
    -36.655  0.0000E+00  0.0000E+00  0.4000E+01  0.4000E+01
    -36.465  0.0000E+00  0.0000E+00  0.4000E+01  0.4000E+01
    -36.274  0.0000E+00  0.0000E+00  0.4000E+01  0.4000E+01
    -36.083  0.0000E+00  0.0000E+00  0.4000E+01  0.4000E+01
    -35.893  0.0000E+00  0.0000E+00  0.4000E+01  0.4000E+01
    -35.702  0.0000E+00  0.0000E+00  0.4000E+01  0.4000E+01
    -35.511  0.0000E+00  0.0000E+00  0.4000E+01  0.4000E+01
    -35.321  0.0000E+00  0.0000E+00  0.4000E+01  0.4000E+01
    -35.130  0.0000E+00  0.0000E+00  0.4000E+01  0.4000E+01
    -34.939  0.0000E+00  0.0000E+00  0.4000E+01  0.4000E+01
    -34.749  0.0000E+00  0.0000E+00  0.4000E+01  0.4000E+01
    -34.558  0.0000E+00  0.0000E+00  0.4000E+01  0.4000E+01
    -34.367  0.0000E+00  0.0000E+00  0.4000E+01  0.4000E+01
    -34.176  0.0000E+00  0.0000E+00  0.4000E+01  0.4000E+01
    -33.986  0.0000E+00  0.0000E+00  0.4000E+01  0.4000E+01
    -33.795  0.0000E+00  0.0000E+00  0.4000E+01  0.4000E+01
    -33.604  0.0000E+00  0.0000E+00  0.4000E+01  0.4000E+01
    -33.414  0.0000E+00  0.0000E+00  0.4000E+01  0.4000E+01
    -33.223  0.0000E+00  0.0000E+00  0.4000E+01  0.4000E+01
    -33.032  0.0000E+00  0.0000E+00  0.4000E+01  0.4000E+01
    -32.842  0.0000E+00  0.0000E+00  0.4000E+01  0.4000E+01
    -32.651  0.0000E+00  0.0000E+00  0.4000E+01  0.4000E+01
    -32.460  0.0000E+00  0.0000E+00  0.4000E+01  0.4000E+01
    -32.270  0.0000E+00  0.0000E+00  0.4000E+01  0.4000E+01
    -32.079  0.0000E+00  0.0000E+00  0.4000E+01  0.4000E+01
    -31.888  0.0000E+00  0.0000E+00  0.4000E+01  0.4000E+01
    -31.698  0.0000E+00  0.0000E+00  0.4000E+01  0.4000E+01
    -31.507  0.0000E+00  0.0000E+00  0.4000E+01  0.4000E+01
    -31.316  0.0000E+00  0.0000E+00  0.4000E+01  0.4000E+01
    -31.126  0.0000E+00  0.0000E+00  0.4000E+01  0.4000E+01
    -30.935  0.0000E+00  0.0000E+00  0.4000E+01  0.4000E+01
    -30.744  0.0000E+00  0.0000E+00  0.4000E+01  0.4000E+01
    -30.554  0.0000E+00  0.0000E+00  0.4000E+01  0.4000E+01
    -30.363  0.0000E+00  0.0000E+00  0.4000E+01  0.4000E+01
    -30.172  0.0000E+00  0.0000E+00  0.4000E+01  0.4000E+01
    -29.982  0.0000E+00  0.0000E+00  0.4000E+01  0.4000E+01
    -29.791  0.0000E+00  0.0000E+00  0.4000E+01  0.4000E+01
    -29.600  0.0000E+00  0.0000E+00  0.4000E+01  0.4000E+01
    -29.410  0.0000E+00  0.0000E+00  0.4000E+01  0.4000E+01
    -29.219  0.0000E+00  0.0000E+00  0.4000E+01  0.4000E+01
    -29.028  0.0000E+00  0.0000E+00  0.4000E+01  0.4000E+01
    -28.838  0.0000E+00  0.0000E+00  0.4000E+01  0.4000E+01
    -28.647  0.0000E+00  0.0000E+00  0.4000E+01  0.4000E+01
    -28.456  0.0000E+00  0.0000E+00  0.4000E+01  0.4000E+01
    -28.266  0.0000E+00  0.0000E+00  0.4000E+01  0.4000E+01
    -28.075  0.0000E+00  0.0000E+00  0.4000E+01  0.4000E+01
    -27.884  0.0000E+00  0.0000E+00  0.4000E+01  0.4000E+01
    -27.694  0.0000E+00  0.0000E+00  0.4000E+01  0.4000E+01
    -27.503  0.0000E+00  0.0000E+00  0.4000E+01  0.4000E+01
    -27.312  0.0000E+00  0.0000E+00  0.4000E+01  0.4000E+01
    -27.122  0.0000E+00  0.0000E+00  0.4000E+01  0.4000E+01
    -26.931  0.0000E+00  0.0000E+00  0.4000E+01  0.4000E+01
    -26.740  0.0000E+00  0.0000E+00  0.4000E+01  0.4000E+01
    -26.550  0.0000E+00  0.0000E+00  0.4000E+01  0.4000E+01
    -26.359  0.0000E+00  0.0000E+00  0.4000E+01  0.4000E+01
    -26.168  0.0000E+00  0.0000E+00  0.4000E+01  0.4000E+01
    -25.978  0.0000E+00  0.0000E+00  0.4000E+01  0.4000E+01
    -25.787  0.0000E+00  0.0000E+00  0.4000E+01  0.4000E+01
    -25.596  0.0000E+00  0.0000E+00  0.4000E+01  0.4000E+01
    -25.406  0.0000E+00  0.0000E+00  0.4000E+01  0.4000E+01
    -25.215  0.0000E+00  0.0000E+00  0.4000E+01  0.4000E+01
    -25.024  0.0000E+00  0.0000E+00  0.4000E+01  0.4000E+01
    -24.834  0.0000E+00  0.0000E+00  0.4000E+01  0.4000E+01
    -24.643  0.0000E+00  0.0000E+00  0.4000E+01  0.4000E+01
    -24.452  0.0000E+00  0.0000E+00  0.4000E+01  0.4000E+01
    -24.262  0.0000E+00  0.0000E+00  0.4000E+01  0.4000E+01
    -24.071  0.0000E+00  0.0000E+00  0.4000E+01  0.4000E+01
    -23.880  0.0000E+00  0.0000E+00  0.4000E+01  0.4000E+01
    -23.690  0.0000E+00  0.0000E+00  0.4000E+01  0.4000E+01
    -23.499  0.0000E+00  0.0000E+00  0.4000E+01  0.4000E+01
    -23.308  0.0000E+00  0.0000E+00  0.4000E+01  0.4000E+01
    -23.118  0.0000E+00  0.0000E+00  0.4000E+01  0.4000E+01
    -22.927  0.0000E+00  0.0000E+00  0.4000E+01  0.4000E+01
    -22.736  0.0000E+00  0.0000E+00  0.4000E+01  0.4000E+01
    -22.546  0.0000E+00  0.0000E+00  0.4000E+01  0.4000E+01
    -22.355  0.0000E+00  0.0000E+00  0.4000E+01  0.4000E+01
    -22.164  0.0000E+00  0.0000E+00  0.4000E+01  0.4000E+01
    -21.974  0.0000E+00  0.0000E+00  0.4000E+01  0.4000E+01
    -21.783  0.0000E+00  0.0000E+00  0.4000E+01  0.4000E+01
    -21.592  0.0000E+00  0.0000E+00  0.4000E+01  0.4000E+01
    -21.402  0.0000E+00  0.0000E+00  0.4000E+01  0.4000E+01
    -21.211  0.0000E+00  0.0000E+00  0.4000E+01  0.4000E+01
    -21.020  0.0000E+00  0.0000E+00  0.4000E+01  0.4000E+01
    -20.830  0.0000E+00  0.0000E+00  0.4000E+01  0.4000E+01
    -20.639  0.0000E+00  0.0000E+00  0.4000E+01  0.4000E+01
    -20.448  0.0000E+00  0.0000E+00  0.4000E+01  0.4000E+01
    -20.258  0.0000E+00  0.0000E+00  0.4000E+01  0.4000E+01
    -20.067  0.0000E+00  0.0000E+00  0.4000E+01  0.4000E+01
    -19.876  0.0000E+00  0.0000E+00  0.4000E+01  0.4000E+01
    -19.686  0.0000E+00  0.0000E+00  0.4000E+01  0.4000E+01
    -19.495  0.0000E+00  0.0000E+00  0.4000E+01  0.4000E+01
    -19.304  0.0000E+00  0.0000E+00  0.4000E+01  0.4000E+01
    -19.114  0.0000E+00  0.0000E+00  0.4000E+01  0.4000E+01
    -18.923  0.6540E-02  0.6550E-02  0.4001E+01  0.4001E+01
    -18.732  0.2880E+00  0.2885E+00  0.4056E+01  0.4056E+01
    -18.542  0.1035E+02  0.1037E+02  0.6030E+01  0.6033E+01
    -18.351  0.4508E+02  0.4508E+02  0.1463E+02  0.1463E+02
    -18.160  0.7024E+01  0.7014E+01  0.1597E+02  0.1597E+02
    -17.970  0.0000E+00  0.0000E+00  0.1600E+02  0.1600E+02
    -17.779  0.0000E+00  0.0000E+00  0.1600E+02  0.1600E+02
    -17.588  0.0000E+00  0.0000E+00  0.1600E+02  0.1600E+02
    -17.398  0.0000E+00  0.0000E+00  0.1600E+02  0.1600E+02
    -17.207  0.0000E+00  0.0000E+00  0.1600E+02  0.1600E+02
    -17.016  0.0000E+00  0.0000E+00  0.1600E+02  0.1600E+02
    -16.826  0.0000E+00  0.0000E+00  0.1600E+02  0.1600E+02
    -16.635  0.0000E+00  0.0000E+00  0.1600E+02  0.1600E+02
    -16.444  0.0000E+00  0.0000E+00  0.1600E+02  0.1600E+02
    -16.254  0.0000E+00  0.0000E+00  0.1600E+02  0.1600E+02
    -16.063  0.0000E+00  0.0000E+00  0.1600E+02  0.1600E+02
    -15.872  0.0000E+00  0.0000E+00  0.1600E+02  0.1600E+02
    -15.682  0.0000E+00  0.0000E+00  0.1600E+02  0.1600E+02
    -15.491  0.0000E+00  0.0000E+00  0.1600E+02  0.1600E+02
    -15.300  0.0000E+00  0.0000E+00  0.1600E+02  0.1600E+02
    -15.110  0.0000E+00  0.0000E+00  0.1600E+02  0.1600E+02
    -14.919  0.0000E+00  0.0000E+00  0.1600E+02  0.1600E+02
    -14.728  0.0000E+00  0.0000E+00  0.1600E+02  0.1600E+02
    -14.538  0.0000E+00  0.0000E+00  0.1600E+02  0.1600E+02
    -14.347  0.0000E+00  0.0000E+00  0.1600E+02  0.1600E+02
    -14.156  0.0000E+00  0.0000E+00  0.1600E+02  0.1600E+02
    -13.966  0.0000E+00  0.0000E+00  0.1600E+02  0.1600E+02
    -13.775  0.0000E+00  0.0000E+00  0.1600E+02  0.1600E+02
    -13.584  0.0000E+00  0.0000E+00  0.1600E+02  0.1600E+02
    -13.394  0.0000E+00  0.0000E+00  0.1600E+02  0.1600E+02
    -13.203  0.0000E+00  0.0000E+00  0.1600E+02  0.1600E+02
    -13.012  0.0000E+00  0.0000E+00  0.1600E+02  0.1600E+02
    -12.822  0.0000E+00  0.0000E+00  0.1600E+02  0.1600E+02
    -12.631  0.0000E+00  0.0000E+00  0.1600E+02  0.1600E+02
    -12.440  0.0000E+00  0.0000E+00  0.1600E+02  0.1600E+02
    -12.250  0.0000E+00  0.0000E+00  0.1600E+02  0.1600E+02
    -12.059  0.0000E+00  0.0000E+00  0.1600E+02  0.1600E+02
    -11.868  0.0000E+00  0.0000E+00  0.1600E+02  0.1600E+02
    -11.678  0.0000E+00  0.0000E+00  0.1600E+02  0.1600E+02
    -11.487  0.0000E+00  0.0000E+00  0.1600E+02  0.1600E+02
    -11.296  0.0000E+00  0.0000E+00  0.1600E+02  0.1600E+02
    -11.105  0.0000E+00  0.0000E+00  0.1600E+02  0.1600E+02
    -10.915  0.0000E+00  0.0000E+00  0.1600E+02  0.1600E+02
    -10.724  0.0000E+00  0.0000E+00  0.1600E+02  0.1600E+02
    -10.533  0.0000E+00  0.0000E+00  0.1600E+02  0.1600E+02
    -10.343  0.0000E+00  0.0000E+00  0.1600E+02  0.1600E+02
    -10.152  0.0000E+00  0.0000E+00  0.1600E+02  0.1600E+02
     -9.961  0.0000E+00  0.0000E+00  0.1600E+02  0.1600E+02
     -9.771  0.0000E+00  0.0000E+00  0.1600E+02  0.1600E+02
     -9.580  0.0000E+00  0.0000E+00  0.1600E+02  0.1600E+02
     -9.389  0.0000E+00  0.0000E+00  0.1600E+02  0.1600E+02
     -9.199  0.0000E+00  0.0000E+00  0.1600E+02  0.1600E+02
     -9.008  0.0000E+00  0.0000E+00  0.1600E+02  0.1600E+02
     -8.817  0.0000E+00  0.0000E+00  0.1600E+02  0.1600E+02
     -8.627  0.0000E+00  0.0000E+00  0.1600E+02  0.1600E+02
     -8.436  0.0000E+00  0.0000E+00  0.1600E+02  0.1600E+02
     -8.245  0.0000E+00  0.0000E+00  0.1600E+02  0.1600E+02
     -8.055  0.0000E+00  0.0000E+00  0.1600E+02  0.1600E+02
     -7.864  0.0000E+00  0.0000E+00  0.1600E+02  0.1600E+02
     -7.673  0.0000E+00  0.0000E+00  0.1600E+02  0.1600E+02
     -7.483  0.0000E+00  0.0000E+00  0.1600E+02  0.1600E+02
     -7.292  0.0000E+00  0.0000E+00  0.1600E+02  0.1600E+02
     -7.101  0.0000E+00  0.0000E+00  0.1600E+02  0.1600E+02
     -6.911  0.0000E+00  0.0000E+00  0.1600E+02  0.1600E+02
     -6.720  0.0000E+00  0.0000E+00  0.1600E+02  0.1600E+02
     -6.529  0.0000E+00  0.0000E+00  0.1600E+02  0.1600E+02
     -6.339  0.0000E+00  0.0000E+00  0.1600E+02  0.1600E+02
     -6.148  0.0000E+00  0.0000E+00  0.1600E+02  0.1600E+02
     -5.957  0.0000E+00  0.0000E+00  0.1600E+02  0.1600E+02
     -5.767  0.0000E+00  0.0000E+00  0.1600E+02  0.1600E+02
     -5.576  0.0000E+00  0.0000E+00  0.1600E+02  0.1600E+02
     -5.385  0.0000E+00  0.0000E+00  0.1600E+02  0.1600E+02
     -5.195  0.0000E+00  0.0000E+00  0.1600E+02  0.1600E+02
     -5.004  0.0000E+00  0.0000E+00  0.1600E+02  0.1600E+02
     -4.813  0.0000E+00  0.0000E+00  0.1600E+02  0.1600E+02
     -4.623  0.0000E+00  0.0000E+00  0.1600E+02  0.1600E+02
     -4.432  0.0000E+00  0.0000E+00  0.1600E+02  0.1600E+02
     -4.241  0.0000E+00  0.0000E+00  0.1600E+02  0.1600E+02
     -4.051  0.0000E+00  0.0000E+00  0.1600E+02  0.1600E+02
     -3.860  0.0000E+00  0.0000E+00  0.1600E+02  0.1600E+02
     -3.669  0.0000E+00  0.0000E+00  0.1600E+02  0.1600E+02
     -3.479  0.0000E+00  0.0000E+00  0.1600E+02  0.1600E+02
     -3.288  0.0000E+00  0.0000E+00  0.1600E+02  0.1600E+02
     -3.097  0.0000E+00  0.0000E+00  0.1600E+02  0.1600E+02
     -2.907  0.0000E+00  0.0000E+00  0.1600E+02  0.1600E+02
     -2.716  0.0000E+00  0.0000E+00  0.1600E+02  0.1600E+02
     -2.525  0.0000E+00  0.0000E+00  0.1600E+02  0.1600E+02
     -2.335  0.0000E+00  0.0000E+00  0.1600E+02  0.1600E+02
     -2.144  0.0000E+00  0.0000E+00  0.1600E+02  0.1600E+02
     -1.953  0.9494E-06  0.9451E-06  0.1600E+02  0.1600E+02
     -1.763  0.6390E-04  0.6362E-04  0.1600E+02  0.1600E+02
     -1.572  0.2867E-02  0.2855E-02  0.1600E+02  0.1600E+02
     -1.381  0.7391E-01  0.7370E-01  0.1601E+02  0.1601E+02
     -1.191  0.3151E+00  0.3148E+00  0.1607E+02  0.1607E+02
     -1.000  0.5217E+00  0.5216E+00  0.1617E+02  0.1617E+02
     -0.809  0.6783E+00  0.6780E+00  0.1630E+02  0.1630E+02
     -0.619  0.7686E+00  0.7686E+00  0.1645E+02  0.1645E+02
     -0.428  0.8807E+00  0.8803E+00  0.1662E+02  0.1662E+02
     -0.237  0.1088E+01  0.1088E+01  0.1683E+02  0.1683E+02
     -0.047  0.9878E+00  0.9875E+00  0.1702E+02  0.1702E+02
      0.144  0.1385E+01  0.1384E+01  0.1728E+02  0.1728E+02
      0.335  0.1366E+01  0.1366E+01  0.1754E+02  0.1754E+02
      0.525  0.1543E+01  0.1543E+01  0.1784E+02  0.1784E+02
      0.716  0.1628E+01  0.1627E+01  0.1815E+02  0.1815E+02
      0.907  0.1824E+01  0.1824E+01  0.1850E+02  0.1850E+02
      1.097  0.1514E+01  0.1513E+01  0.1879E+02  0.1879E+02
      1.288  0.1750E+01  0.1750E+01  0.1912E+02  0.1912E+02
      1.479  0.1821E+01  0.1821E+01  0.1947E+02  0.1947E+02
      1.669  0.1877E+01  0.1878E+01  0.1983E+02  0.1983E+02
      1.860  0.1760E+01  0.1760E+01  0.2017E+02  0.2017E+02
      2.051  0.1774E+01  0.1774E+01  0.2051E+02  0.2051E+02
      2.241  0.2467E+01  0.2467E+01  0.2098E+02  0.2098E+02
      2.432  0.2506E+01  0.2506E+01  0.2146E+02  0.2146E+02
      2.623  0.2258E+01  0.2258E+01  0.2189E+02  0.2189E+02
      2.813  0.2249E+01  0.2249E+01  0.2232E+02  0.2232E+02
      3.004  0.2095E+01  0.2096E+01  0.2272E+02  0.2272E+02
      3.195  0.2442E+01  0.2442E+01  0.2319E+02  0.2319E+02
      3.385  0.2208E+01  0.2208E+01  0.2361E+02  0.2361E+02
      3.576  0.2682E+01  0.2681E+01  0.2413E+02  0.2412E+02
      3.767  0.3445E+01  0.3445E+01  0.2478E+02  0.2478E+02
      3.957  0.3492E+01  0.3492E+01  0.2545E+02  0.2545E+02
      4.148  0.2227E+01  0.2228E+01  0.2588E+02  0.2588E+02
      4.339  0.1795E+01  0.1794E+01  0.2622E+02  0.2622E+02
      4.529  0.2876E+01  0.2876E+01  0.2677E+02  0.2677E+02
      4.720  0.2584E+01  0.2584E+01  0.2727E+02  0.2727E+02
      4.911  0.2738E+01  0.2737E+01  0.2779E+02  0.2779E+02
      5.101  0.3348E+01  0.3348E+01  0.2843E+02  0.2843E+02
      5.292  0.3531E+01  0.3532E+01  0.2911E+02  0.2911E+02
      5.483  0.3580E+01  0.3580E+01  0.2979E+02  0.2979E+02
      5.673  0.3865E+01  0.3865E+01  0.3053E+02  0.3053E+02
      5.864  0.4603E+01  0.4602E+01  0.3141E+02  0.3141E+02
      6.055  0.5367E+01  0.5367E+01  0.3244E+02  0.3244E+02
      6.245  0.4996E+01  0.4997E+01  0.3340E+02  0.3340E+02
      6.436  0.4139E+01  0.4139E+01  0.3419E+02  0.3419E+02
      6.627  0.5616E+01  0.5615E+01  0.3526E+02  0.3526E+02
      6.817  0.6375E+01  0.6374E+01  0.3648E+02  0.3648E+02
      7.008  0.6689E+01  0.6689E+01  0.3776E+02  0.3776E+02
      7.199  0.4539E+01  0.4540E+01  0.3863E+02  0.3863E+02
      7.389  0.4043E+01  0.4043E+01  0.3941E+02  0.3941E+02
      7.580  0.4400E+01  0.4400E+01  0.4025E+02  0.4025E+02
      7.771  0.3177E+01  0.3178E+01  0.4086E+02  0.4086E+02
      7.961  0.2067E+01  0.2067E+01  0.4126E+02  0.4126E+02
      8.152  0.2061E+01  0.2061E+01  0.4165E+02  0.4165E+02
      8.343  0.2166E+01  0.2166E+01  0.4207E+02  0.4207E+02
      8.533  0.2238E+01  0.2238E+01  0.4250E+02  0.4250E+02
      8.724  0.2564E+01  0.2564E+01  0.4299E+02  0.4299E+02
      8.915  0.2732E+01  0.2731E+01  0.4351E+02  0.4351E+02
      9.105  0.2830E+01  0.2830E+01  0.4405E+02  0.4405E+02
      9.296  0.3486E+01  0.3486E+01  0.4472E+02  0.4472E+02
      9.487  0.4903E+01  0.4903E+01  0.4565E+02  0.4565E+02
      9.677  0.5430E+01  0.5430E+01  0.4669E+02  0.4669E+02
      9.868  0.5170E+01  0.5171E+01  0.4768E+02  0.4768E+02
     10.059  0.6058E+01  0.6061E+01  0.4884E+02  0.4884E+02
     10.249  0.6610E+01  0.6628E+01  0.5010E+02  0.5011E+02
     10.440  0.7114E+01  0.7215E+01  0.5147E+02  0.5149E+02
     10.631  0.6551E+01  0.6523E+01  0.5272E+02  0.5274E+02
     10.821  0.5530E+01  0.5562E+01  0.5378E+02  0.5380E+02
     11.012  0.4375E+01  0.4499E+01  0.5462E+02  0.5466E+02
     11.203  0.3324E+01  0.3388E+01  0.5525E+02  0.5532E+02
     11.394  0.2676E+01  0.2310E+01  0.5577E+02  0.5576E+02
     11.584  0.1032E+01  0.1082E+01  0.5597E+02  0.5597E+02
     11.775  0.1497E+00  0.1579E+00  0.5600E+02  0.5600E+02
     11.966  0.8812E-02  0.3758E-02  0.5600E+02  0.5600E+02
     12.156  0.0000E+00  0.0000E+00  0.5600E+02  0.5600E+02
     12.347  0.0000E+00  0.0000E+00  0.5600E+02  0.5600E+02
     12.538  0.0000E+00  0.0000E+00  0.5600E+02  0.5600E+02
     12.728  0.0000E+00  0.0000E+00  0.5600E+02  0.5600E+02
     12.919  0.0000E+00  0.0000E+00  0.5600E+02  0.5600E+02
     13.110  0.0000E+00  0.0000E+00  0.5600E+02  0.5600E+02
     13.300  0.0000E+00  0.0000E+00  0.5600E+02  0.5600E+02
     13.491  0.0000E+00  0.0000E+00  0.5600E+02  0.5600E+02
     13.682  0.0000E+00  0.0000E+00  0.5600E+02  0.5600E+02
     13.872  0.0000E+00  0.0000E+00  0.5600E+02  0.5600E+02
     14.063  0.0000E+00  0.0000E+00  0.5600E+02  0.5600E+02
     14.254  0.0000E+00  0.0000E+00  0.5600E+02  0.5600E+02
     14.25354345    -42.94728870  301      8.31289389      1.00000000
    -42.947  0.0000E+00  0.0000E+00  0.0000E+00  0.0000E+00  0.0000E+00  0.0000E+00  0.0000E+00  0.0000E+00  0.0000E+00  0.0000E+00  0.0000E+00  0.0000E+00  0.0000E+00  0.0000E+00  0.0000E+00  0.0000E+00  0.0000E+00  0.0000E+00
    -42.757  0.0000E+00  0.0000E+00  0.0000E+00  0.0000E+00  0.0000E+00  0.0000E+00  0.0000E+00  0.0000E+00  0.0000E+00  0.0000E+00  0.0000E+00  0.0000E+00  0.0000E+00  0.0000E+00  0.0000E+00  0.0000E+00  0.0000E+00  0.0000E+00
    -42.566  0.0000E+00  0.0000E+00  0.0000E+00  0.0000E+00  0.0000E+00  0.0000E+00  0.0000E+00  0.0000E+00  0.0000E+00  0.0000E+00  0.0000E+00  0.0000E+00  0.0000E+00  0.0000E+00  0.0000E+00  0.0000E+00  0.0000E+00  0.0000E+00
    -42.375  0.0000E+00  0.0000E+00  0.0000E+00  0.0000E+00  0.0000E+00  0.0000E+00  0.0000E+00  0.0000E+00  0.0000E+00  0.0000E+00  0.0000E+00  0.0000E+00  0.0000E+00  0.0000E+00  0.0000E+00  0.0000E+00  0.0000E+00  0.0000E+00
    -42.185  0.0000E+00  0.0000E+00  0.0000E+00  0.0000E+00  0.0000E+00  0.0000E+00  0.0000E+00  0.0000E+00  0.0000E+00  0.0000E+00  0.0000E+00  0.0000E+00  0.0000E+00  0.0000E+00  0.0000E+00  0.0000E+00  0.0000E+00  0.0000E+00
    -41.994  0.0000E+00  0.0000E+00  0.0000E+00  0.0000E+00  0.0000E+00  0.0000E+00  0.0000E+00  0.0000E+00  0.0000E+00  0.0000E+00  0.0000E+00  0.0000E+00  0.0000E+00  0.0000E+00  0.0000E+00  0.0000E+00  0.0000E+00  0.0000E+00
    -41.803  0.0000E+00  0.0000E+00  0.0000E+00  0.0000E+00  0.0000E+00  0.0000E+00  0.0000E+00  0.0000E+00  0.0000E+00  0.0000E+00  0.0000E+00  0.0000E+00  0.0000E+00  0.0000E+00  0.0000E+00  0.0000E+00  0.0000E+00  0.0000E+00
    -41.613  0.0000E+00  0.0000E+00  0.0000E+00  0.0000E+00  0.0000E+00  0.0000E+00  0.0000E+00  0.0000E+00  0.0000E+00  0.0000E+00  0.0000E+00  0.0000E+00  0.0000E+00  0.0000E+00  0.0000E+00  0.0000E+00  0.0000E+00  0.0000E+00
    -41.422  0.0000E+00  0.0000E+00  0.0000E+00  0.0000E+00  0.0000E+00  0.0000E+00  0.0000E+00  0.0000E+00  0.0000E+00  0.0000E+00  0.0000E+00  0.0000E+00  0.0000E+00  0.0000E+00  0.0000E+00  0.0000E+00  0.0000E+00  0.0000E+00
    -41.231  0.0000E+00  0.0000E+00  0.0000E+00  0.0000E+00  0.0000E+00  0.0000E+00  0.0000E+00  0.0000E+00  0.0000E+00  0.0000E+00  0.0000E+00  0.0000E+00  0.0000E+00  0.0000E+00  0.0000E+00  0.0000E+00  0.0000E+00  0.0000E+00
    -41.041  0.0000E+00  0.0000E+00  0.0000E+00  0.0000E+00  0.0000E+00  0.0000E+00  0.0000E+00  0.0000E+00  0.0000E+00  0.0000E+00  0.0000E+00  0.0000E+00  0.0000E+00  0.0000E+00  0.0000E+00  0.0000E+00  0.0000E+00  0.0000E+00
    -40.850  0.2101E-03  0.2113E-03  0.1373E-11  0.1348E-11  0.4672E-09  0.4704E-09  0.1373E-11  0.1348E-11  0.7826E-15  0.6620E-15  0.1221E-14  0.1349E-14  0.3791E-10  0.3811E-10  0.1221E-14  0.1349E-14  0.1516E-11  0.1504E-11
    -40.659  0.9293E-02  0.9342E-02  0.6072E-10  0.5962E-10  0.2066E-07  0.2080E-07  0.6072E-10  0.5962E-10  0.3461E-13  0.2928E-13  0.5398E-13  0.5966E-13  0.1677E-08  0.1685E-08  0.5398E-13  0.5966E-13  0.6705E-10  0.6650E-10
    -40.469  0.3888E+00  0.3907E+00  0.2540E-08  0.2493E-08  0.8643E-06  0.8699E-06  0.2540E-08  0.2493E-08  0.1449E-11  0.1225E-11  0.2259E-11  0.2495E-11  0.7012E-07  0.7046E-07  0.2259E-11  0.2495E-11  0.2806E-08  0.2781E-08
    -40.278  0.3712E+01  0.3715E+01  0.2424E-07  0.2369E-07  0.8249E-05  0.8268E-05  0.2424E-07  0.2369E-07  0.1394E-10  0.1167E-10  0.2164E-10  0.2371E-10  0.6676E-06  0.6680E-06  0.2164E-10  0.2371E-10  0.2679E-07  0.2645E-07
    -40.087  0.1065E+01  0.1061E+01  0.6950E-08  0.6760E-08  0.2366E-05  0.2360E-05  0.6950E-08  0.6760E-08  0.4034E-11  0.3340E-11  0.6234E-11  0.6767E-11  0.1909E-06  0.1901E-06  0.6234E-11  0.6767E-11  0.7688E-08  0.7553E-08
    -39.897  0.0000E+00  0.0000E+00  0.0000E+00  0.0000E+00  0.0000E+00  0.0000E+00  0.0000E+00  0.0000E+00  0.0000E+00  0.0000E+00  0.0000E+00  0.0000E+00  0.0000E+00  0.0000E+00  0.0000E+00  0.0000E+00  0.0000E+00  0.0000E+00
    -39.706  0.0000E+00  0.0000E+00  0.0000E+00  0.0000E+00  0.0000E+00  0.0000E+00  0.0000E+00  0.0000E+00  0.0000E+00  0.0000E+00  0.0000E+00  0.0000E+00  0.0000E+00  0.0000E+00  0.0000E+00  0.0000E+00  0.0000E+00  0.0000E+00
    -39.515  0.0000E+00  0.0000E+00  0.0000E+00  0.0000E+00  0.0000E+00  0.0000E+00  0.0000E+00  0.0000E+00  0.0000E+00  0.0000E+00  0.0000E+00  0.0000E+00  0.0000E+00  0.0000E+00  0.0000E+00  0.0000E+00  0.0000E+00  0.0000E+00
    -39.325  0.0000E+00  0.0000E+00  0.0000E+00  0.0000E+00  0.0000E+00  0.0000E+00  0.0000E+00  0.0000E+00  0.0000E+00  0.0000E+00  0.0000E+00  0.0000E+00  0.0000E+00  0.0000E+00  0.0000E+00  0.0000E+00  0.0000E+00  0.0000E+00
    -39.134  0.0000E+00  0.0000E+00  0.0000E+00  0.0000E+00  0.0000E+00  0.0000E+00  0.0000E+00  0.0000E+00  0.0000E+00  0.0000E+00  0.0000E+00  0.0000E+00  0.0000E+00  0.0000E+00  0.0000E+00  0.0000E+00  0.0000E+00  0.0000E+00
    -38.943  0.0000E+00  0.0000E+00  0.0000E+00  0.0000E+00  0.0000E+00  0.0000E+00  0.0000E+00  0.0000E+00  0.0000E+00  0.0000E+00  0.0000E+00  0.0000E+00  0.0000E+00  0.0000E+00  0.0000E+00  0.0000E+00  0.0000E+00  0.0000E+00
    -38.753  0.0000E+00  0.0000E+00  0.0000E+00  0.0000E+00  0.0000E+00  0.0000E+00  0.0000E+00  0.0000E+00  0.0000E+00  0.0000E+00  0.0000E+00  0.0000E+00  0.0000E+00  0.0000E+00  0.0000E+00  0.0000E+00  0.0000E+00  0.0000E+00
    -38.562  0.0000E+00  0.0000E+00  0.0000E+00  0.0000E+00  0.0000E+00  0.0000E+00  0.0000E+00  0.0000E+00  0.0000E+00  0.0000E+00  0.0000E+00  0.0000E+00  0.0000E+00  0.0000E+00  0.0000E+00  0.0000E+00  0.0000E+00  0.0000E+00
    -38.371  0.0000E+00  0.0000E+00  0.0000E+00  0.0000E+00  0.0000E+00  0.0000E+00  0.0000E+00  0.0000E+00  0.0000E+00  0.0000E+00  0.0000E+00  0.0000E+00  0.0000E+00  0.0000E+00  0.0000E+00  0.0000E+00  0.0000E+00  0.0000E+00
    -38.181  0.0000E+00  0.0000E+00  0.0000E+00  0.0000E+00  0.0000E+00  0.0000E+00  0.0000E+00  0.0000E+00  0.0000E+00  0.0000E+00  0.0000E+00  0.0000E+00  0.0000E+00  0.0000E+00  0.0000E+00  0.0000E+00  0.0000E+00  0.0000E+00
    -37.990  0.0000E+00  0.0000E+00  0.0000E+00  0.0000E+00  0.0000E+00  0.0000E+00  0.0000E+00  0.0000E+00  0.0000E+00  0.0000E+00  0.0000E+00  0.0000E+00  0.0000E+00  0.0000E+00  0.0000E+00  0.0000E+00  0.0000E+00  0.0000E+00
    -37.799  0.0000E+00  0.0000E+00  0.0000E+00  0.0000E+00  0.0000E+00  0.0000E+00  0.0000E+00  0.0000E+00  0.0000E+00  0.0000E+00  0.0000E+00  0.0000E+00  0.0000E+00  0.0000E+00  0.0000E+00  0.0000E+00  0.0000E+00  0.0000E+00
    -37.609  0.0000E+00  0.0000E+00  0.0000E+00  0.0000E+00  0.0000E+00  0.0000E+00  0.0000E+00  0.0000E+00  0.0000E+00  0.0000E+00  0.0000E+00  0.0000E+00  0.0000E+00  0.0000E+00  0.0000E+00  0.0000E+00  0.0000E+00  0.0000E+00
    -37.418  0.0000E+00  0.0000E+00  0.0000E+00  0.0000E+00  0.0000E+00  0.0000E+00  0.0000E+00  0.0000E+00  0.0000E+00  0.0000E+00  0.0000E+00  0.0000E+00  0.0000E+00  0.0000E+00  0.0000E+00  0.0000E+00  0.0000E+00  0.0000E+00
    -37.227  0.0000E+00  0.0000E+00  0.0000E+00  0.0000E+00  0.0000E+00  0.0000E+00  0.0000E+00  0.0000E+00  0.0000E+00  0.0000E+00  0.0000E+00  0.0000E+00  0.0000E+00  0.0000E+00  0.0000E+00  0.0000E+00  0.0000E+00  0.0000E+00
    -37.037  0.0000E+00  0.0000E+00  0.0000E+00  0.0000E+00  0.0000E+00  0.0000E+00  0.0000E+00  0.0000E+00  0.0000E+00  0.0000E+00  0.0000E+00  0.0000E+00  0.0000E+00  0.0000E+00  0.0000E+00  0.0000E+00  0.0000E+00  0.0000E+00
    -36.846  0.0000E+00  0.0000E+00  0.0000E+00  0.0000E+00  0.0000E+00  0.0000E+00  0.0000E+00  0.0000E+00  0.0000E+00  0.0000E+00  0.0000E+00  0.0000E+00  0.0000E+00  0.0000E+00  0.0000E+00  0.0000E+00  0.0000E+00  0.0000E+00
    -36.655  0.0000E+00  0.0000E+00  0.0000E+00  0.0000E+00  0.0000E+00  0.0000E+00  0.0000E+00  0.0000E+00  0.0000E+00  0.0000E+00  0.0000E+00  0.0000E+00  0.0000E+00  0.0000E+00  0.0000E+00  0.0000E+00  0.0000E+00  0.0000E+00
    -36.465  0.0000E+00  0.0000E+00  0.0000E+00  0.0000E+00  0.0000E+00  0.0000E+00  0.0000E+00  0.0000E+00  0.0000E+00  0.0000E+00  0.0000E+00  0.0000E+00  0.0000E+00  0.0000E+00  0.0000E+00  0.0000E+00  0.0000E+00  0.0000E+00
    -36.274  0.0000E+00  0.0000E+00  0.0000E+00  0.0000E+00  0.0000E+00  0.0000E+00  0.0000E+00  0.0000E+00  0.0000E+00  0.0000E+00  0.0000E+00  0.0000E+00  0.0000E+00  0.0000E+00  0.0000E+00  0.0000E+00  0.0000E+00  0.0000E+00
    -36.083  0.0000E+00  0.0000E+00  0.0000E+00  0.0000E+00  0.0000E+00  0.0000E+00  0.0000E+00  0.0000E+00  0.0000E+00  0.0000E+00  0.0000E+00  0.0000E+00  0.0000E+00  0.0000E+00  0.0000E+00  0.0000E+00  0.0000E+00  0.0000E+00
    -35.893  0.0000E+00  0.0000E+00  0.0000E+00  0.0000E+00  0.0000E+00  0.0000E+00  0.0000E+00  0.0000E+00  0.0000E+00  0.0000E+00  0.0000E+00  0.0000E+00  0.0000E+00  0.0000E+00  0.0000E+00  0.0000E+00  0.0000E+00  0.0000E+00
    -35.702  0.0000E+00  0.0000E+00  0.0000E+00  0.0000E+00  0.0000E+00  0.0000E+00  0.0000E+00  0.0000E+00  0.0000E+00  0.0000E+00  0.0000E+00  0.0000E+00  0.0000E+00  0.0000E+00  0.0000E+00  0.0000E+00  0.0000E+00  0.0000E+00
    -35.511  0.0000E+00  0.0000E+00  0.0000E+00  0.0000E+00  0.0000E+00  0.0000E+00  0.0000E+00  0.0000E+00  0.0000E+00  0.0000E+00  0.0000E+00  0.0000E+00  0.0000E+00  0.0000E+00  0.0000E+00  0.0000E+00  0.0000E+00  0.0000E+00
    -35.321  0.0000E+00  0.0000E+00  0.0000E+00  0.0000E+00  0.0000E+00  0.0000E+00  0.0000E+00  0.0000E+00  0.0000E+00  0.0000E+00  0.0000E+00  0.0000E+00  0.0000E+00  0.0000E+00  0.0000E+00  0.0000E+00  0.0000E+00  0.0000E+00
    -35.130  0.0000E+00  0.0000E+00  0.0000E+00  0.0000E+00  0.0000E+00  0.0000E+00  0.0000E+00  0.0000E+00  0.0000E+00  0.0000E+00  0.0000E+00  0.0000E+00  0.0000E+00  0.0000E+00  0.0000E+00  0.0000E+00  0.0000E+00  0.0000E+00
    -34.939  0.0000E+00  0.0000E+00  0.0000E+00  0.0000E+00  0.0000E+00  0.0000E+00  0.0000E+00  0.0000E+00  0.0000E+00  0.0000E+00  0.0000E+00  0.0000E+00  0.0000E+00  0.0000E+00  0.0000E+00  0.0000E+00  0.0000E+00  0.0000E+00
    -34.749  0.0000E+00  0.0000E+00  0.0000E+00  0.0000E+00  0.0000E+00  0.0000E+00  0.0000E+00  0.0000E+00  0.0000E+00  0.0000E+00  0.0000E+00  0.0000E+00  0.0000E+00  0.0000E+00  0.0000E+00  0.0000E+00  0.0000E+00  0.0000E+00
    -34.558  0.0000E+00  0.0000E+00  0.0000E+00  0.0000E+00  0.0000E+00  0.0000E+00  0.0000E+00  0.0000E+00  0.0000E+00  0.0000E+00  0.0000E+00  0.0000E+00  0.0000E+00  0.0000E+00  0.0000E+00  0.0000E+00  0.0000E+00  0.0000E+00
    -34.367  0.0000E+00  0.0000E+00  0.0000E+00  0.0000E+00  0.0000E+00  0.0000E+00  0.0000E+00  0.0000E+00  0.0000E+00  0.0000E+00  0.0000E+00  0.0000E+00  0.0000E+00  0.0000E+00  0.0000E+00  0.0000E+00  0.0000E+00  0.0000E+00
    -34.176  0.0000E+00  0.0000E+00  0.0000E+00  0.0000E+00  0.0000E+00  0.0000E+00  0.0000E+00  0.0000E+00  0.0000E+00  0.0000E+00  0.0000E+00  0.0000E+00  0.0000E+00  0.0000E+00  0.0000E+00  0.0000E+00  0.0000E+00  0.0000E+00
    -33.986  0.0000E+00  0.0000E+00  0.0000E+00  0.0000E+00  0.0000E+00  0.0000E+00  0.0000E+00  0.0000E+00  0.0000E+00  0.0000E+00  0.0000E+00  0.0000E+00  0.0000E+00  0.0000E+00  0.0000E+00  0.0000E+00  0.0000E+00  0.0000E+00
    -33.795  0.0000E+00  0.0000E+00  0.0000E+00  0.0000E+00  0.0000E+00  0.0000E+00  0.0000E+00  0.0000E+00  0.0000E+00  0.0000E+00  0.0000E+00  0.0000E+00  0.0000E+00  0.0000E+00  0.0000E+00  0.0000E+00  0.0000E+00  0.0000E+00
    -33.604  0.0000E+00  0.0000E+00  0.0000E+00  0.0000E+00  0.0000E+00  0.0000E+00  0.0000E+00  0.0000E+00  0.0000E+00  0.0000E+00  0.0000E+00  0.0000E+00  0.0000E+00  0.0000E+00  0.0000E+00  0.0000E+00  0.0000E+00  0.0000E+00
    -33.414  0.0000E+00  0.0000E+00  0.0000E+00  0.0000E+00  0.0000E+00  0.0000E+00  0.0000E+00  0.0000E+00  0.0000E+00  0.0000E+00  0.0000E+00  0.0000E+00  0.0000E+00  0.0000E+00  0.0000E+00  0.0000E+00  0.0000E+00  0.0000E+00