  16  16   1   0
  0.1854169E+02  0.4098266E-09  0.4098266E-09  0.1766319E-08  0.5000000E-15
  1.000000000000000E-004
  CAR 
 unknown system                          
     13.89590193    -43.34642143  301      8.01608240      1.00000000
    -43.346  0.0000E+00  0.0000E+00  0.0000E+00  0.0000E+00
    -43.156  0.0000E+00  0.0000E+00  0.0000E+00  0.0000E+00
    -42.965  0.0000E+00  0.0000E+00  0.0000E+00  0.0000E+00
    -42.774  0.0000E+00  0.0000E+00  0.0000E+00  0.0000E+00
    -42.583  0.0000E+00  0.0000E+00  0.0000E+00  0.0000E+00
    -42.392  0.0000E+00  0.0000E+00  0.0000E+00  0.0000E+00
    -42.202  0.0000E+00  0.0000E+00  0.0000E+00  0.0000E+00
    -42.011  0.0000E+00  0.0000E+00  0.0000E+00  0.0000E+00
    -41.820  0.0000E+00  0.0000E+00  0.0000E+00  0.0000E+00
    -41.629  0.0000E+00  0.0000E+00  0.0000E+00  0.0000E+00
    -41.438  0.0000E+00  0.0000E+00  0.0000E+00  0.0000E+00
    -41.248  0.8475E-03  0.8522E-03  0.1617E-03  0.1626E-03
    -41.057  0.3759E-01  0.3779E-01  0.7333E-02  0.7374E-02
    -40.866  0.1576E+01  0.1584E+01  0.3080E+00  0.3096E+00
    -40.675  0.1497E+02  0.1498E+02  0.3165E+01  0.3168E+01
    -40.484  0.4256E+01  0.4238E+01  0.3977E+01  0.3977E+01
    -40.293  0.0000E+00  0.0000E+00  0.4000E+01  0.4000E+01
    -40.103  0.0000E+00  0.0000E+00  0.4000E+01  0.4000E+01
    -39.912  0.0000E+00  0.0000E+00  0.4000E+01  0.4000E+01
    -39.721  0.0000E+00  0.0000E+00  0.4000E+01  0.4000E+01
    -39.530  0.0000E+00  0.0000E+00  0.4000E+01  0.4000E+01
    -39.339  0.0000E+00  0.0000E+00  0.4000E+01  0.4000E+01
    -39.149  0.0000E+00  0.0000E+00  0.4000E+01  0.4000E+01
    -38.958  0.0000E+00  0.0000E+00  0.4000E+01  0.4000E+01
    -38.767  0.0000E+00  0.0000E+00  0.4000E+01  0.4000E+01
    -38.576  0.0000E+00  0.0000E+00  0.4000E+01  0.4000E+01
    -38.385  0.0000E+00  0.0000E+00  0.4000E+01  0.4000E+01
    -38.195  0.0000E+00  0.0000E+00  0.4000E+01  0.4000E+01
    -38.004  0.0000E+00  0.0000E+00  0.4000E+01  0.4000E+01
    -37.813  0.0000E+00  0.0000E+00  0.4000E+01  0.4000E+01
    -37.622  0.0000E+00  0.0000E+00  0.4000E+01  0.4000E+01
    -37.431  0.0000E+00  0.0000E+00  0.4000E+01  0.4000E+01
    -37.241  0.0000E+00  0.0000E+00  0.4000E+01  0.4000E+01
    -37.050  0.0000E+00  0.0000E+00  0.4000E+01  0.4000E+01
    -36.859  0.0000E+00  0.0000E+00  0.4000E+01  0.4000E+01
    -36.668  0.0000E+00  0.0000E+00  0.4000E+01  0.4000E+01
    -36.477  0.0000E+00  0.0000E+00  0.4000E+01  0.4000E+01
    -36.287  0.0000E+00  0.0000E+00  0.4000E+01  0.4000E+01
    -36.096  0.0000E+00  0.0000E+00  0.4000E+01  0.4000E+01
    -35.905  0.0000E+00  0.0000E+00  0.4000E+01  0.4000E+01
    -35.714  0.0000E+00  0.0000E+00  0.4000E+01  0.4000E+01
    -35.523  0.0000E+00  0.0000E+00  0.4000E+01  0.4000E+01
    -35.332  0.0000E+00  0.0000E+00  0.4000E+01  0.4000E+01
    -35.142  0.0000E+00  0.0000E+00  0.4000E+01  0.4000E+01
    -34.951  0.0000E+00  0.0000E+00  0.4000E+01  0.4000E+01
    -34.760  0.0000E+00  0.0000E+00  0.4000E+01  0.4000E+01
    -34.569  0.0000E+00  0.0000E+00  0.4000E+01  0.4000E+01
    -34.378  0.0000E+00  0.0000E+00  0.4000E+01  0.4000E+01
    -34.188  0.0000E+00  0.0000E+00  0.4000E+01  0.4000E+01
    -33.997  0.0000E+00  0.0000E+00  0.4000E+01  0.4000E+01
    -33.806  0.0000E+00  0.0000E+00  0.4000E+01  0.4000E+01
    -33.615  0.0000E+00  0.0000E+00  0.4000E+01  0.4000E+01
    -33.424  0.0000E+00  0.0000E+00  0.4000E+01  0.4000E+01
    -33.234  0.0000E+00  0.0000E+00  0.4000E+01  0.4000E+01
    -33.043  0.0000E+00  0.0000E+00  0.4000E+01  0.4000E+01
    -32.852  0.0000E+00  0.0000E+00  0.4000E+01  0.4000E+01
    -32.661  0.0000E+00  0.0000E+00  0.4000E+01  0.4000E+01
    -32.470  0.0000E+00  0.0000E+00  0.4000E+01  0.4000E+01
    -32.280  0.0000E+00  0.0000E+00  0.4000E+01  0.4000E+01
    -32.089  0.0000E+00  0.0000E+00  0.4000E+01  0.4000E+01
    -31.898  0.0000E+00  0.0000E+00  0.4000E+01  0.4000E+01
    -31.707  0.0000E+00  0.0000E+00  0.4000E+01  0.4000E+01
    -31.516  0.0000E+00  0.0000E+00  0.4000E+01  0.4000E+01
    -31.326  0.0000E+00  0.0000E+00  0.4000E+01  0.4000E+01
    -31.135  0.0000E+00  0.0000E+00  0.4000E+01  0.4000E+01
    -30.944  0.0000E+00  0.0000E+00  0.4000E+01  0.4000E+01
    -30.753  0.0000E+00  0.0000E+00  0.4000E+01  0.4000E+01
    -30.562  0.0000E+00  0.0000E+00  0.4000E+01  0.4000E+01
    -30.371  0.0000E+00  0.0000E+00  0.4000E+01  0.4000E+01
    -30.181  0.0000E+00  0.0000E+00  0.4000E+01  0.4000E+01
    -29.990  0.0000E+00  0.0000E+00  0.4000E+01  0.4000E+01
    -29.799  0.0000E+00  0.0000E+00  0.4000E+01  0.4000E+01
    -29.608  0.0000E+00  0.0000E+00  0.4000E+01  0.4000E+01
    -29.417  0.0000E+00  0.0000E+00  0.4000E+01  0.4000E+01
    -29.227  0.0000E+00  0.0000E+00  0.4000E+01  0.4000E+01
    -29.036  0.0000E+00  0.0000E+00  0.4000E+01  0.4000E+01
    -28.845  0.0000E+00  0.0000E+00  0.4000E+01  0.4000E+01
    -28.654  0.0000E+00  0.0000E+00  0.4000E+01  0.4000E+01
    -28.463  0.0000E+00  0.0000E+00  0.4000E+01  0.4000E+01
    -28.273  0.0000E+00  0.0000E+00  0.4000E+01  0.4000E+01
    -28.082  0.0000E+00  0.0000E+00  0.4000E+01  0.4000E+01
    -27.891  0.0000E+00  0.0000E+00  0.4000E+01  0.4000E+01
    -27.700  0.0000E+00  0.0000E+00  0.4000E+01  0.4000E+01
    -27.509  0.0000E+00  0.0000E+00  0.4000E+01  0.4000E+01
    -27.319  0.0000E+00  0.0000E+00  0.4000E+01  0.4000E+01
    -27.128  0.0000E+00  0.0000E+00  0.4000E+01  0.4000E+01
    -26.937  0.0000E+00  0.0000E+00  0.4000E+01  0.4000E+01
    -26.746  0.0000E+00  0.0000E+00  0.4000E+01  0.4000E+01
    -26.555  0.0000E+00  0.0000E+00  0.4000E+01  0.4000E+01
    -26.365  0.0000E+00  0.0000E+00  0.4000E+01  0.4000E+01
    -26.174  0.0000E+00  0.0000E+00  0.4000E+01  0.4000E+01
    -25.983  0.0000E+00  0.0000E+00  0.4000E+01  0.4000E+01
    -25.792  0.0000E+00  0.0000E+00  0.4000E+01  0.4000E+01
    -25.601  0.0000E+00  0.0000E+00  0.4000E+01  0.4000E+01
    -25.410  0.0000E+00  0.0000E+00  0.4000E+01  0.4000E+01
    -25.220  0.0000E+00  0.0000E+00  0.4000E+01  0.4000E+01
    -25.029  0.0000E+00  0.0000E+00  0.4000E+01  0.4000E+01
    -24.838  0.0000E+00  0.0000E+00  0.4000E+01  0.4000E+01
    -24.647  0.0000E+00  0.0000E+00  0.4000E+01  0.4000E+01
    -24.456  0.0000E+00  0.0000E+00  0.4000E+01  0.4000E+01
    -24.266  0.0000E+00  0.0000E+00  0.4000E+01  0.4000E+01
    -24.075  0.0000E+00  0.0000E+00  0.4000E+01  0.4000E+01
    -23.884  0.0000E+00  0.0000E+00  0.4000E+01  0.4000E+01
    -23.693  0.0000E+00  0.0000E+00  0.4000E+01  0.4000E+01
    -23.502  0.0000E+00  0.0000E+00  0.4000E+01  0.4000E+01
    -23.312  0.0000E+00  0.0000E+00  0.4000E+01  0.4000E+01
    -23.121  0.0000E+00  0.0000E+00  0.4000E+01  0.4000E+01
    -22.930  0.0000E+00  0.0000E+00  0.4000E+01  0.4000E+01
    -22.739  0.0000E+00  0.0000E+00  0.4000E+01  0.4000E+01
    -22.548  0.0000E+00  0.0000E+00  0.4000E+01  0.4000E+01
    -22.358  0.0000E+00  0.0000E+00  0.4000E+01  0.4000E+01
    -22.167  0.0000E+00  0.0000E+00  0.4000E+01  0.4000E+01
    -21.976  0.0000E+00  0.0000E+00  0.4000E+01  0.4000E+01
    -21.785  0.0000E+00  0.0000E+00  0.4000E+01  0.4000E+01
    -21.594  0.0000E+00  0.0000E+00  0.4000E+01  0.4000E+01
    -21.404  0.0000E+00  0.0000E+00  0.4000E+01  0.4000E+01
    -21.213  0.0000E+00  0.0000E+00  0.4000E+01  0.4000E+01
    -21.022  0.0000E+00  0.0000E+00  0.4000E+01  0.4000E+01
    -20.831  0.0000E+00  0.0000E+00  0.4000E+01  0.4000E+01
    -20.640  0.0000E+00  0.0000E+00  0.4000E+01  0.4000E+01
    -20.449  0.0000E+00  0.0000E+00  0.4000E+01  0.4000E+01
    -20.259  0.0000E+00  0.0000E+00  0.4000E+01  0.4000E+01
    -20.068  0.0000E+00  0.0000E+00  0.4000E+01  0.4000E+01
    -19.877  0.0000E+00  0.0000E+00  0.4000E+01  0.4000E+01
    -19.686  0.0000E+00  0.0000E+00  0.4000E+01  0.4000E+01
    -19.495  0.0000E+00  0.0000E+00  0.4000E+01  0.4000E+01
    -19.305  0.6097E-02  0.6108E-02  0.4001E+01  0.4001E+01
    -19.114  0.2694E+00  0.2699E+00  0.4053E+01  0.4053E+01
    -18.923  0.9899E+01  0.9913E+01  0.5941E+01  0.5944E+01
    -18.732  0.4537E+02  0.4537E+02  0.1460E+02  0.1460E+02
    -18.541  0.7159E+01  0.7148E+01  0.1596E+02  0.1596E+02
    -18.351  0.0000E+00  0.0000E+00  0.1600E+02  0.1600E+02
    -18.160  0.0000E+00  0.0000E+00  0.1600E+02  0.1600E+02
    -17.969  0.0000E+00  0.0000E+00  0.1600E+02  0.1600E+02
    -17.778  0.0000E+00  0.0000E+00  0.1600E+02  0.1600E+02
    -17.587  0.0000E+00  0.0000E+00  0.1600E+02  0.1600E+02
    -17.397  0.0000E+00  0.0000E+00  0.1600E+02  0.1600E+02
    -17.206  0.0000E+00  0.0000E+00  0.1600E+02  0.1600E+02
    -17.015  0.0000E+00  0.0000E+00  0.1600E+02  0.1600E+02
    -16.824  0.0000E+00  0.0000E+00  0.1600E+02  0.1600E+02
    -16.633  0.0000E+00  0.0000E+00  0.1600E+02  0.1600E+02
    -16.443  0.0000E+00  0.0000E+00  0.1600E+02  0.1600E+02
    -16.252  0.0000E+00  0.0000E+00  0.1600E+02  0.1600E+02
    -16.061  0.0000E+00  0.0000E+00  0.1600E+02  0.1600E+02
    -15.870  0.0000E+00  0.0000E+00  0.1600E+02  0.1600E+02
    -15.679  0.0000E+00  0.0000E+00  0.1600E+02  0.1600E+02
    -15.488  0.0000E+00  0.0000E+00  0.1600E+02  0.1600E+02
    -15.298  0.0000E+00  0.0000E+00  0.1600E+02  0.1600E+02
    -15.107  0.0000E+00  0.0000E+00  0.1600E+02  0.1600E+02
    -14.916  0.0000E+00  0.0000E+00  0.1600E+02  0.1600E+02
    -14.725  0.0000E+00  0.0000E+00  0.1600E+02  0.1600E+02
    -14.534  0.0000E+00  0.0000E+00  0.1600E+02  0.1600E+02
    -14.344  0.0000E+00  0.0000E+00  0.1600E+02  0.1600E+02
    -14.153  0.0000E+00  0.0000E+00  0.1600E+02  0.1600E+02
    -13.962  0.0000E+00  0.0000E+00  0.1600E+02  0.1600E+02
    -13.771  0.0000E+00  0.0000E+00  0.1600E+02  0.1600E+02
    -13.580  0.0000E+00  0.0000E+00  0.1600E+02  0.1600E+02
    -13.390  0.0000E+00  0.0000E+00  0.1600E+02  0.1600E+02
    -13.199  0.0000E+00  0.0000E+00  0.1600E+02  0.1600E+02
    -13.008  0.0000E+00  0.0000E+00  0.1600E+02  0.1600E+02
    -12.817  0.0000E+00  0.0000E+00  0.1600E+02  0.1600E+02
    -12.626  0.0000E+00  0.0000E+00  0.1600E+02  0.1600E+02
    -12.436  0.0000E+00  0.0000E+00  0.1600E+02  0.1600E+02
    -12.245  0.0000E+00  0.0000E+00  0.1600E+02  0.1600E+02
    -12.054  0.0000E+00  0.0000E+00  0.1600E+02  0.1600E+02
    -11.863  0.0000E+00  0.0000E+00  0.1600E+02  0.1600E+02
    -11.672  0.0000E+00  0.0000E+00  0.1600E+02  0.1600E+02
    -11.482  0.0000E+00  0.0000E+00  0.1600E+02  0.1600E+02
    -11.291  0.0000E+00  0.0000E+00  0.1600E+02  0.1600E+02
    -11.100  0.0000E+00  0.0000E+00  0.1600E+02  0.1600E+02
    -10.909  0.0000E+00  0.0000E+00  0.1600E+02  0.1600E+02
    -10.718  0.0000E+00  0.0000E+00  0.1600E+02  0.1600E+02
    -10.527  0.0000E+00  0.0000E+00  0.1600E+02  0.1600E+02
    -10.337  0.0000E+00  0.0000E+00  0.1600E+02  0.1600E+02
    -10.146  0.0000E+00  0.0000E+00  0.1600E+02  0.1600E+02
     -9.955  0.0000E+00  0.0000E+00  0.1600E+02  0.1600E+02
     -9.764  0.0000E+00  0.0000E+00  0.1600E+02  0.1600E+02
     -9.573  0.0000E+00  0.0000E+00  0.1600E+02  0.1600E+02
     -9.383  0.0000E+00  0.0000E+00  0.1600E+02  0.1600E+02
     -9.192  0.0000E+00  0.0000E+00  0.1600E+02  0.1600E+02
     -9.001  0.0000E+00  0.0000E+00  0.1600E+02  0.1600E+02
     -8.810  0.0000E+00  0.0000E+00  0.1600E+02  0.1600E+02
     -8.619  0.0000E+00  0.0000E+00  0.1600E+02  0.1600E+02
     -8.429  0.0000E+00  0.0000E+00  0.1600E+02  0.1600E+02
     -8.238  0.0000E+00  0.0000E+00  0.1600E+02  0.1600E+02
     -8.047  0.0000E+00  0.0000E+00  0.1600E+02  0.1600E+02
     -7.856  0.0000E+00  0.0000E+00  0.1600E+02  0.1600E+02
     -7.665  0.0000E+00  0.0000E+00  0.1600E+02  0.1600E+02
     -7.475  0.0000E+00  0.0000E+00  0.1600E+02  0.1600E+02
     -7.284  0.0000E+00  0.0000E+00  0.1600E+02  0.1600E+02
     -7.093  0.0000E+00  0.0000E+00  0.1600E+02  0.1600E+02
     -6.902  0.0000E+00  0.0000E+00  0.1600E+02  0.1600E+02
     -6.711  0.0000E+00  0.0000E+00  0.1600E+02  0.1600E+02
     -6.521  0.0000E+00  0.0000E+00  0.1600E+02  0.1600E+02
     -6.330  0.0000E+00  0.0000E+00  0.1600E+02  0.1600E+02
     -6.139  0.0000E+00  0.0000E+00  0.1600E+02  0.1600E+02
     -5.948  0.0000E+00  0.0000E+00  0.1600E+02  0.1600E+02
     -5.757  0.0000E+00  0.0000E+00  0.1600E+02  0.1600E+02
     -5.566  0.0000E+00  0.0000E+00  0.1600E+02  0.1600E+02
     -5.376  0.0000E+00  0.0000E+00  0.1600E+02  0.1600E+02
     -5.185  0.0000E+00  0.0000E+00  0.1600E+02  0.1600E+02
     -4.994  0.0000E+00  0.0000E+00  0.1600E+02  0.1600E+02
     -4.803  0.0000E+00  0.0000E+00  0.1600E+02  0.1600E+02
     -4.612  0.0000E+00  0.0000E+00  0.1600E+02  0.1600E+02
     -4.422  0.0000E+00  0.0000E+00  0.1600E+02  0.1600E+02
     -4.231  0.0000E+00  0.0000E+00  0.1600E+02  0.1600E+02
     -4.040  0.0000E+00  0.0000E+00  0.1600E+02  0.1600E+02
     -3.849  0.0000E+00  0.0000E+00  0.1600E+02  0.1600E+02
     -3.658  0.0000E+00  0.0000E+00  0.1600E+02  0.1600E+02
     -3.468  0.0000E+00  0.0000E+00  0.1600E+02  0.1600E+02
     -3.277  0.0000E+00  0.0000E+00  0.1600E+02  0.1600E+02
     -3.086  0.0000E+00  0.0000E+00  0.1600E+02  0.1600E+02
     -2.895  0.0000E+00  0.0000E+00  0.1600E+02  0.1600E+02
     -2.704  0.0000E+00  0.0000E+00  0.1600E+02  0.1600E+02
     -2.514  0.0000E+00  0.0000E+00  0.1600E+02  0.1600E+02
     -2.323  0.0000E+00  0.0000E+00  0.1600E+02  0.1600E+02
     -2.132  0.1769E-06  0.1759E-06  0.1600E+02  0.1600E+02
     -1.941  0.3569E-04  0.3550E-04  0.1600E+02  0.1600E+02
     -1.750  0.1613E-02  0.1604E-02  0.1600E+02  0.1600E+02
     -1.560  0.5026E-01  0.5006E-01  0.1601E+02  0.1601E+02
     -1.369  0.2848E+00  0.2844E+00  0.1606E+02  0.1606E+02
     -1.178  0.5213E+00  0.5211E+00  0.1616E+02  0.1616E+02
     -0.987  0.6730E+00  0.6726E+00  0.1629E+02  0.1629E+02
     -0.796  0.7816E+00  0.7815E+00  0.1644E+02  0.1644E+02
     -0.605  0.8886E+00  0.8881E+00  0.1661E+02  0.1661E+02
     -0.415  0.1113E+01  0.1113E+01  0.1682E+02  0.1682E+02
     -0.224  0.1017E+01  0.1016E+01  0.1702E+02  0.1702E+02
     -0.033  0.1415E+01  0.1415E+01  0.1729E+02  0.1729E+02
      0.158  0.1396E+01  0.1395E+01  0.1756E+02  0.1756E+02
      0.349  0.1577E+01  0.1577E+01  0.1786E+02  0.1786E+02
      0.539  0.1685E+01  0.1685E+01  0.1818E+02  0.1818E+02
      0.730  0.1802E+01  0.1802E+01  0.1853E+02  0.1853E+02
      0.921  0.1542E+01  0.1542E+01  0.1882E+02  0.1882E+02
      1.112  0.1769E+01  0.1769E+01  0.1916E+02  0.1916E+02
      1.303  0.1885E+01  0.1884E+01  0.1952E+02  0.1952E+02
      1.493  0.1879E+01  0.1879E+01  0.1988E+02  0.1988E+02
      1.684  0.1797E+01  0.1797E+01  0.2023E+02  0.2023E+02
      1.875  0.1962E+01  0.1961E+01  0.2060E+02  0.2060E+02
      2.066  0.2598E+01  0.2598E+01  0.2110E+02  0.2110E+02
      2.257  0.2474E+01  0.2474E+01  0.2157E+02  0.2157E+02
      2.447  0.2250E+01  0.2250E+01  0.2200E+02  0.2200E+02
      2.638  0.2217E+01  0.2218E+01  0.2243E+02  0.2243E+02
      2.829  0.2254E+01  0.2253E+01  0.2286E+02  0.2286E+02
      3.020  0.2441E+01  0.2442E+01  0.2333E+02  0.2333E+02
      3.211  0.2328E+01  0.2328E+01  0.2377E+02  0.2377E+02
      3.401  0.3105E+01  0.3105E+01  0.2437E+02  0.2437E+02
      3.592  0.3499E+01  0.3499E+01  0.2504E+02  0.2504E+02
      3.783  0.3242E+01  0.3243E+01  0.2566E+02  0.2566E+02
      3.974  0.1741E+01  0.1742E+01  0.2599E+02  0.2599E+02
      4.165  0.2234E+01  0.2233E+01  0.2642E+02  0.2642E+02
      4.356  0.2908E+01  0.2908E+01  0.2698E+02  0.2698E+02
      4.546  0.2477E+01  0.2477E+01  0.2745E+02  0.2745E+02
      4.737  0.2966E+01  0.2966E+01  0.2802E+02  0.2802E+02
      4.928  0.3599E+01  0.3599E+01  0.2871E+02  0.2871E+02
      5.119  0.3427E+01  0.3427E+01  0.2936E+02  0.2936E+02
      5.310  0.3734E+01  0.3733E+01  0.3008E+02  0.3008E+02
      5.500  0.4060E+01  0.4060E+01  0.3086E+02  0.3086E+02
      5.691  0.5251E+01  0.5250E+01  0.3186E+02  0.3186E+02
      5.882  0.5319E+01  0.5320E+01  0.3288E+02  0.3288E+02
      6.073  0.4470E+01  0.4471E+01  0.3374E+02  0.3374E+02
      6.264  0.4791E+01  0.4789E+01  0.3465E+02  0.3465E+02
      6.454  0.6146E+01  0.6146E+01  0.3583E+02  0.3583E+02
      6.645  0.6880E+01  0.6879E+01  0.3714E+02  0.3714E+02
      6.836  0.5728E+01  0.5730E+01  0.3824E+02  0.3824E+02
      7.027  0.4176E+01  0.4176E+01  0.3904E+02  0.3904E+02
      7.218  0.4424E+01  0.4423E+01  0.3989E+02  0.3989E+02
      7.408  0.3929E+01  0.3931E+01  0.4064E+02  0.4064E+02
      7.599  0.2437E+01  0.2437E+01  0.4111E+02  0.4111E+02
      7.790  0.2037E+01  0.2037E+01  0.4150E+02  0.4150E+02
      7.981  0.2171E+01  0.2171E+01  0.4192E+02  0.4192E+02
      8.172  0.2328E+01  0.2328E+01  0.4236E+02  0.4236E+02
      8.362  0.2471E+01  0.2471E+01  0.4284E+02  0.4284E+02
      8.553  0.2789E+01  0.2789E+01  0.4337E+02  0.4337E+02
      8.744  0.2976E+01  0.2977E+01  0.4394E+02  0.4394E+02
      8.935  0.3421E+01  0.3421E+01  0.4460E+02  0.4460E+02
      9.126  0.4949E+01  0.4948E+01  0.4554E+02  0.4554E+02
      9.317  0.5511E+01  0.5511E+01  0.4660E+02  0.4660E+02
      9.507  0.5287E+01  0.5285E+01  0.4761E+02  0.4761E+02
      9.698  0.6281E+01  0.6284E+01  0.4881E+02  0.4881E+02
      9.889  0.6989E+01  0.7006E+01  0.5015E+02  0.5015E+02
     10.080  0.7503E+01  0.7601E+01  0.5159E+02  0.5161E+02
     10.271  0.6725E+01  0.6631E+01  0.5288E+02  0.5288E+02
     10.461  0.5508E+01  0.5528E+01  0.5393E+02  0.5394E+02
     10.652  0.4257E+01  0.4348E+01  0.5475E+02  0.5477E+02
     10.843  0.3515E+01  0.3467E+01  0.5542E+02  0.5544E+02
     11.034  0.2208E+01  0.2120E+01  0.5585E+02  0.5585E+02
     11.225  0.6840E+00  0.6807E+00  0.5598E+02  0.5598E+02
     11.415  0.9302E-01  0.1062E+00  0.5600E+02  0.5600E+02
     11.606  0.6541E-02  0.4512E-02  0.5600E+02  0.5600E+02
     11.797  0.0000E+00  0.0000E+00  0.5600E+02  0.5600E+02
     11.988  0.0000E+00  0.0000E+00  0.5600E+02  0.5600E+02
     12.179  0.0000E+00  0.0000E+00  0.5600E+02  0.5600E+02
     12.369  0.0000E+00  0.0000E+00  0.5600E+02  0.5600E+02
     12.560  0.0000E+00  0.0000E+00  0.5600E+02  0.5600E+02
     12.751  0.0000E+00  0.0000E+00  0.5600E+02  0.5600E+02
     12.942  0.0000E+00  0.0000E+00  0.5600E+02  0.5600E+02
     13.133  0.0000E+00  0.0000E+00  0.5600E+02  0.5600E+02
     13.323  0.0000E+00  0.0000E+00  0.5600E+02  0.5600E+02
     13.514  0.0000E+00  0.0000E+00  0.5600E+02  0.5600E+02
     13.705  0.0000E+00  0.0000E+00  0.5600E+02  0.5600E+02
     13.896  0.0000E+00  0.0000E+00  0.5600E+02  0.5600E+02
     13.89590193    -43.34642143  301      8.01608240      1.00000000
    -43.346  0.0000E+00  0.0000E+00  0.0000E+00  0.0000E+00  0.0000E+00  0.0000E+00  0.0000E+00  0.0000E+00  0.0000E+00  0.0000E+00  0.0000E+00  0.0000E+00  0.0000E+00  0.0000E+00  0.0000E+00  0.0000E+00  0.0000E+00  0.0000E+00
    -43.156  0.0000E+00  0.0000E+00  0.0000E+00  0.0000E+00  0.0000E+00  0.0000E+00  0.0000E+00  0.0000E+00  0.0000E+00  0.0000E+00  0.0000E+00  0.0000E+00  0.0000E+00  0.0000E+00  0.0000E+00  0.0000E+00  0.0000E+00  0.0000E+00
    -42.965  0.0000E+00  0.0000E+00  0.0000E+00  0.0000E+00  0.0000E+00  0.0000E+00  0.0000E+00  0.0000E+00  0.0000E+00  0.0000E+00  0.0000E+00  0.0000E+00  0.0000E+00  0.0000E+00  0.0000E+00  0.0000E+00  0.0000E+00  0.0000E+00
    -42.774  0.0000E+00  0.0000E+00  0.0000E+00  0.0000E+00  0.0000E+00  0.0000E+00  0.0000E+00  0.0000E+00  0.0000E+00  0.0000E+00  0.0000E+00  0.0000E+00  0.0000E+00  0.0000E+00  0.0000E+00  0.0000E+00  0.0000E+00  0.0000E+00
    -42.583  0.0000E+00  0.0000E+00  0.0000E+00  0.0000E+00  0.0000E+00  0.0000E+00  0.0000E+00  0.0000E+00  0.0000E+00  0.0000E+00  0.0000E+00  0.0000E+00  0.0000E+00  0.0000E+00  0.0000E+00  0.0000E+00  0.0000E+00  0.0000E+00
    -42.392  0.0000E+00  0.0000E+00  0.0000E+00  0.0000E+00  0.0000E+00  0.0000E+00  0.0000E+00  0.0000E+00  0.0000E+00  0.0000E+00  0.0000E+00  0.0000E+00  0.0000E+00  0.0000E+00  0.0000E+00  0.0000E+00  0.0000E+00  0.0000E+00
    -42.202  0.0000E+00  0.0000E+00  0.0000E+00  0.0000E+00  0.0000E+00  0.0000E+00  0.0000E+00  0.0000E+00  0.0000E+00  0.0000E+00  0.0000E+00  0.0000E+00  0.0000E+00  0.0000E+00  0.0000E+00  0.0000E+00  0.0000E+00  0.0000E+00
    -42.011  0.0000E+00  0.0000E+00  0.0000E+00  0.0000E+00  0.0000E+00  0.0000E+00  0.0000E+00  0.0000E+00  0.0000E+00  0.0000E+00  0.0000E+00  0.0000E+00  0.0000E+00  0.0000E+00  0.0000E+00  0.0000E+00  0.0000E+00  0.0000E+00
    -41.820  0.0000E+00  0.0000E+00  0.0000E+00  0.0000E+00  0.0000E+00  0.0000E+00  0.0000E+00  0.0000E+00  0.0000E+00  0.0000E+00  0.0000E+00  0.0000E+00  0.0000E+00  0.0000E+00  0.0000E+00  0.0000E+00  0.0000E+00  0.0000E+00
    -41.629  0.0000E+00  0.0000E+00  0.0000E+00  0.0000E+00  0.0000E+00  0.0000E+00  0.0000E+00  0.0000E+00  0.0000E+00  0.0000E+00  0.0000E+00  0.0000E+00  0.0000E+00  0.0000E+00  0.0000E+00  0.0000E+00  0.0000E+00  0.0000E+00
    -41.438  0.0000E+00  0.0000E+00  0.0000E+00  0.0000E+00  0.0000E+00  0.0000E+00  0.0000E+00  0.0000E+00  0.0000E+00  0.0000E+00  0.0000E+00  0.0000E+00  0.0000E+00  0.0000E+00  0.0000E+00  0.0000E+00  0.0000E+00  0.0000E+00
    -41.248  0.2103E-03  0.2115E-03  0.9887E-12  0.9862E-12  0.3718E-09  0.3746E-09  0.9887E-12  0.9862E-12  0.6704E-15  0.5357E-15  0.9008E-15  0.8824E-15  0.3520E-10  0.3545E-10  0.9008E-15  0.8824E-15  0.1078E-11  0.1073E-11
    -41.057  0.9328E-02  0.9379E-02  0.4384E-10  0.4374E-10  0.1649E-07  0.1661E-07  0.4384E-10  0.4374E-10  0.2973E-13  0.2375E-13  0.3995E-13  0.3913E-13  0.1561E-08  0.1572E-08  0.3995E-13  0.3913E-13  0.4782E-10  0.4759E-10
    -40.866  0.3911E+00  0.3931E+00  0.1838E-08  0.1833E-08  0.6914E-06  0.6962E-06  0.1838E-08  0.1833E-08  0.1247E-11  0.9956E-12  0.1675E-11  0.1640E-11  0.6544E-07  0.6588E-07  0.1675E-11  0.1640E-11  0.2005E-08  0.1995E-08
    -40.675  0.3716E+01  0.3718E+01  0.1746E-07  0.1733E-07  0.6566E-05  0.6583E-05  0.1746E-07  0.1733E-07  0.1190E-10  0.9412E-11  0.1593E-10  0.1547E-10  0.6204E-06  0.6218E-06  0.1593E-10  0.1547E-10  0.1905E-07  0.1887E-07
    -40.484  0.1056E+01  0.1052E+01  0.4959E-08  0.4898E-08  0.1866E-05  0.1861E-05  0.4959E-08  0.4898E-08  0.3398E-11  0.2660E-11  0.4535E-11  0.4360E-11  0.1759E-06  0.1754E-06  0.4535E-11  0.4360E-11  0.5416E-08  0.5337E-08
    -40.293  0.0000E+00  0.0000E+00  0.0000E+00  0.0000E+00  0.0000E+00  0.0000E+00  0.0000E+00  0.0000E+00  0.0000E+00  0.0000E+00  0.0000E+00  0.0000E+00  0.0000E+00  0.0000E+00  0.0000E+00  0.0000E+00  0.0000E+00  0.0000E+00
    -40.103  0.0000E+00  0.0000E+00  0.0000E+00  0.0000E+00  0.0000E+00  0.0000E+00  0.0000E+00  0.0000E+00  0.0000E+00  0.0000E+00  0.0000E+00  0.0000E+00  0.0000E+00  0.0000E+00  0.0000E+00  0.0000E+00  0.0000E+00  0.0000E+00
    -39.912  0.0000E+00  0.0000E+00  0.0000E+00  0.0000E+00  0.0000E+00  0.0000E+00  0.0000E+00  0.0000E+00  0.0000E+00  0.0000E+00  0.0000E+00  0.0000E+00  0.0000E+00  0.0000E+00  0.0000E+00  0.0000E+00  0.0000E+00  0.0000E+00
    -39.721  0.0000E+00  0.0000E+00  0.0000E+00  0.0000E+00  0.0000E+00  0.0000E+00  0.0000E+00  0.0000E+00  0.0000E+00  0.0000E+00  0.0000E+00  0.0000E+00  0.0000E+00  0.0000E+00  0.0000E+00  0.0000E+00  0.0000E+00  0.0000E+00
    -39.530  0.0000E+00  0.0000E+00  0.0000E+00  0.0000E+00  0.0000E+00  0.0000E+00  0.0000E+00  0.0000E+00  0.0000E+00  0.0000E+00  0.0000E+00  0.0000E+00  0.0000E+00  0.0000E+00  0.0000E+00  0.0000E+00  0.0000E+00  0.0000E+00
    -39.339  0.0000E+00  0.0000E+00  0.0000E+00  0.0000E+00  0.0000E+00  0.0000E+00  0.0000E+00  0.0000E+00  0.0000E+00  0.0000E+00  0.0000E+00  0.0000E+00  0.0000E+00  0.0000E+00  0.0000E+00  0.0000E+00  0.0000E+00  0.0000E+00
    -39.149  0.0000E+00  0.0000E+00  0.0000E+00  0.0000E+00  0.0000E+00  0.0000E+00  0.0000E+00  0.0000E+00  0.0000E+00  0.0000E+00  0.0000E+00  0.0000E+00  0.0000E+00  0.0000E+00  0.0000E+00  0.0000E+00  0.0000E+00  0.0000E+00
    -38.958  0.0000E+00  0.0000E+00  0.0000E+00  0.0000E+00  0.0000E+00  0.0000E+00  0.0000E+00  0.0000E+00  0.0000E+00  0.0000E+00  0.0000E+00  0.0000E+00  0.0000E+00  0.0000E+00  0.0000E+00  0.0000E+00  0.0000E+00  0.0000E+00
    -38.767  0.0000E+00  0.0000E+00  0.0000E+00  0.0000E+00  0.0000E+00  0.0000E+00  0.0000E+00  0.0000E+00  0.0000E+00  0.0000E+00  0.0000E+00  0.0000E+00  0.0000E+00  0.0000E+00  0.0000E+00  0.0000E+00  0.0000E+00  0.0000E+00
    -38.576  0.0000E+00  0.0000E+00  0.0000E+00  0.0000E+00  0.0000E+00  0.0000E+00  0.0000E+00  0.0000E+00  0.0000E+00  0.0000E+00  0.0000E+00  0.0000E+00  0.0000E+00  0.0000E+00  0.0000E+00  0.0000E+00  0.0000E+00  0.0000E+00
    -38.385  0.0000E+00  0.0000E+00  0.0000E+00  0.0000E+00  0.0000E+00  0.0000E+00  0.0000E+00  0.0000E+00  0.0000E+00  0.0000E+00  0.0000E+00  0.0000E+00  0.0000E+00  0.0000E+00  0.0000E+00  0.0000E+00  0.0000E+00  0.0000E+00
    -38.195  0.0000E+00  0.0000E+00  0.0000E+00  0.0000E+00  0.0000E+00  0.0000E+00  0.0000E+00  0.0000E+00  0.0000E+00  0.0000E+00  0.0000E+00  0.0000E+00  0.0000E+00  0.0000E+00  0.0000E+00  0.0000E+00  0.0000E+00  0.0000E+00
    -38.004  0.0000E+00  0.0000E+00  0.0000E+00  0.0000E+00  0.0000E+00  0.0000E+00  0.0000E+00  0.0000E+00  0.0000E+00  0.0000E+00  0.0000E+00  0.0000E+00  0.0000E+00  0.0000E+00  0.0000E+00  0.0000E+00  0.0000E+00  0.0000E+00
    -37.813  0.0000E+00  0.0000E+00  0.0000E+00  0.0000E+00  0.0000E+00  0.0000E+00  0.0000E+00  0.0000E+00  0.0000E+00  0.0000E+00  0.0000E+00  0.0000E+00  0.0000E+00  0.0000E+00  0.0000E+00  0.0000E+00  0.0000E+00  0.0000E+00
    -37.622  0.0000E+00  0.0000E+00  0.0000E+00  0.0000E+00  0.0000E+00  0.0000E+00  0.0000E+00  0.0000E+00  0.0000E+00  0.0000E+00  0.0000E+00  0.0000E+00  0.0000E+00  0.0000E+00  0.0000E+00  0.0000E+00  0.0000E+00  0.0000E+00
    -37.431  0.0000E+00  0.0000E+00  0.0000E+00  0.0000E+00  0.0000E+00  0.0000E+00  0.0000E+00  0.0000E+00  0.0000E+00  0.0000E+00  0.0000E+00  0.0000E+00  0.0000E+00  0.0000E+00  0.0000E+00  0.0000E+00  0.0000E+00  0.0000E+00
    -37.241  0.0000E+00  0.0000E+00  0.0000E+00  0.0000E+00  0.0000E+00  0.0000E+00  0.0000E+00  0.0000E+00  0.0000E+00  0.0000E+00  0.0000E+00  0.0000E+00  0.0000E+00  0.0000E+00  0.0000E+00  0.0000E+00  0.0000E+00  0.0000E+00
    -37.050  0.0000E+00  0.0000E+00  0.0000E+00  0.0000E+00  0.0000E+00  0.0000E+00  0.0000E+00  0.0000E+00  0.0000E+00  0.0000E+00  0.0000E+00  0.0000E+00  0.0000E+00  0.0000E+00  0.0000E+00  0.0000E+00  0.0000E+00  0.0000E+00
    -36.859  0.0000E+00  0.0000E+00  0.0000E+00  0.0000E+00  0.0000E+00  0.0000E+00  0.0000E+00  0.0000E+00  0.0000E+00  0.0000E+00  0.0000E+00  0.0000E+00  0.0000E+00  0.0000E+00  0.0000E+00  0.0000E+00  0.0000E+00  0.0000E+00
    -36.668  0.0000E+00  0.0000E+00  0.0000E+00  0.0000E+00  0.0000E+00  0.0000E+00  0.0000E+00  0.0000E+00  0.0000E+00  0.0000E+00  0.0000E+00  0.0000E+00  0.0000E+00  0.0000E+00  0.0000E+00  0.0000E+00  0.0000E+00  0.0000E+00
    -36.477  0.0000E+00  0.0000E+00  0.0000E+00  0.0000E+00  0.0000E+00  0.0000E+00  0.0000E+00  0.0000E+00  0.0000E+00  0.0000E+00  0.0000E+00  0.0000E+00  0.0000E+00  0.0000E+00  0.0000E+00  0.0000E+00  0.0000E+00  0.0000E+00
    -36.287  0.0000E+00  0.0000E+00  0.0000E+00  0.0000E+00  0.0000E+00  0.0000E+00  0.0000E+00  0.0000E+00  0.0000E+00  0.0000E+00  0.0000E+00  0.0000E+00  0.0000E+00  0.0000E+00  0.0000E+00  0.0000E+00  0.0000E+00  0.0000E+00
    -36.096  0.0000E+00  0.0000E+00  0.0000E+00  0.0000E+00  0.0000E+00  0.0000E+00  0.0000E+00  0.0000E+00  0.0000E+00  0.0000E+00  0.0000E+00  0.0000E+00  0.0000E+00  0.0000E+00  0.0000E+00  0.0000E+00  0.0000E+00  0.0000E+00
    -35.905  0.0000E+00  0.0000E+00  0.0000E+00  0.0000E+00  0.0000E+00  0.0000E+00  0.0000E+00  0.0000E+00  0.0000E+00  0.0000E+00  0.0000E+00  0.0000E+00  0.0000E+00  0.0000E+00  0.0000E+00  0.0000E+00  0.0000E+00  0.0000E+00
    -35.714  0.0000E+00  0.0000E+00  0.0000E+00  0.0000E+00  0.0000E+00  0.0000E+00  0.0000E+00  0.0000E+00  0.0000E+00  0.0000E+00  0.0000E+00  0.0000E+00  0.0000E+00  0.0000E+00  0.0000E+00  0.0000E+00  0.0000E+00  0.0000E+00
    -35.523  0.0000E+00  0.0000E+00  0.0000E+00  0.0000E+00  0.0000E+00  0.0000E+00  0.0000E+00  0.0000E+00  0.0000E+00  0.0000E+00  0.0000E+00  0.0000E+00  0.0000E+00  0.0000E+00  0.0000E+00  0.0000E+00  0.0000E+00  0.0000E+00
    -35.332  0.0000E+00  0.0000E+00  0.0000E+00  0.0000E+00  0.0000E+00  0.0000E+00  0.0000E+00  0.0000E+00  0.0000E+00  0.0000E+00  0.0000E+00  0.0000E+00  0.0000E+00  0.0000E+00  0.0000E+00  0.0000E+00  0.0000E+00  0.0000E+00
    -35.142  0.0000E+00  0.0000E+00  0.0000E+00  0.0000E+00  0.0000E+00  0.0000E+00  0.0000E+00  0.0000E+00  0.0000E+00  0.0000E+00  0.0000E+00  0.0000E+00  0.0000E+00  0.0000E+00  0.0000E+00  0.0000E+00  0.0000E+00  0.0000E+00
    -34.951  0.0000E+00  0.0000E+00  0.0000E+00  0.0000E+00  0.0000E+00  0.0000E+00  0.0000E+00  0.0000E+00  0.0000E+00  0.0000E+00  0.0000E+00  0.0000E+00  0.0000E+00  0.0000E+00  0.0000E+00  0.0000E+00  0.0000E+00  0.0000E+00
    -34.760  0.0000E+00  0.0000E+00  0.0000E+00  0.0000E+00  0.0000E+00  0.0000E+00  0.0000E+00  0.0000E+00  0.0000E+00  0.0000E+00  0.0000E+00  0.0000E+00  0.0000E+00  0.0000E+00  0.0000E+00  0.0000E+00  0.0000E+00  0.0000E+00
    -34.569  0.0000E+00  0.0000E+00  0.0000E+00  0.0000E+00  0.0000E+00  0.0000E+00  0.0000E+00  0.0000E+00  0.0000E+00  0.0000E+00  0.0000E+00  0.0000E+00  0.0000E+00  0.0000E+00  0.0000E+00  0.0000E+00  0.0000E+00  0.0000E+00
    -34.378  0.0000E+00  0.0000E+00  0.0000E+00  0.0000E+00  0.0000E+00  0.0000E+00  0.0000E+00  0.0000E+00  0.0000E+00  0.0000E+00  0.0000E+00  0.0000E+00  0.0000E+00  0.0000E+00  0.0000E+00  0.0000E+00  0.0000E+00  0.0000E+00
    -34.188  0.0000E+00  0.0000E+00  0.0000E+00  0.0000E+00  0.0000E+00  0.0000E+00  0.0000E+00  0.0000E+00  0.0000E+00  0.0000E+00  0.0000E+00  0.0000E+00  0.0000E+00  0.0000E+00  0.0000E+00  0.0000E+00  0.0000E+00  0.0000E+00
    -33.997  0.0000E+00  0.0000E+00  0.0000E+00  0.0000E+00  0.0000E+00  0.0000E+00  0.0000E+00  0.0000E+00  0.0000E+00  0.0000E+00  0.0000E+00  0.0000E+00  0.0000E+00  0.0000E+00  0.0000E+00  0.0000E+00  0.0000E+00  0.0000E+00
    -33.806  0.0000E+00  0.0000E+00  0.0000E+00  0.0000E+00  0.0000E+00  0.0000E+00  0.0000E+00  0.0000E+00  0.0000E+00  0.0000E+00  0.0000E+00  0.0000E+00  0.0000E+00  0.0000E+00  0.0000E+00  0.0000E+00  0.0000E+00  0.0000E+00