  16  16   1   0
  0.1644474E+02  0.3937549E-09  0.3937549E-09  0.1697052E-08  0.5000000E-15
  1.000000000000000E-004
  CAR 
 unknown system                          
     15.60547801    -41.69947902  301      9.25787170      1.00000000
    -41.699  0.0000E+00  0.0000E+00  0.0000E+00  0.0000E+00
    -41.508  0.0000E+00  0.0000E+00  0.0000E+00  0.0000E+00
    -41.317  0.0000E+00  0.0000E+00  0.0000E+00  0.0000E+00
    -41.126  0.0000E+00  0.0000E+00  0.0000E+00  0.0000E+00
    -40.935  0.0000E+00  0.0000E+00  0.0000E+00  0.0000E+00
    -40.744  0.0000E+00  0.0000E+00  0.0000E+00  0.0000E+00
    -40.553  0.0000E+00  0.0000E+00  0.0000E+00  0.0000E+00
    -40.362  0.0000E+00  0.0000E+00  0.0000E+00  0.0000E+00
    -40.171  0.0000E+00  0.0000E+00  0.0000E+00  0.0000E+00
    -39.980  0.0000E+00  0.0000E+00  0.0000E+00  0.0000E+00
    -39.789  0.0000E+00  0.0000E+00  0.0000E+00  0.0000E+00
    -39.598  0.7975E-03  0.8027E-03  0.1523E-03  0.1533E-03
    -39.407  0.3552E-01  0.3575E-01  0.6938E-02  0.6983E-02
    -39.216  0.1501E+01  0.1510E+01  0.2937E+00  0.2955E+00
    -39.025  0.1486E+02  0.1487E+02  0.3132E+01  0.3137E+01
    -38.834  0.4415E+01  0.4393E+01  0.3976E+01  0.3976E+01
    -38.643  0.0000E+00  0.0000E+00  0.4000E+01  0.4000E+01
    -38.452  0.0000E+00  0.0000E+00  0.4000E+01  0.4000E+01
    -38.261  0.0000E+00  0.0000E+00  0.4000E+01  0.4000E+01
    -38.070  0.0000E+00  0.0000E+00  0.4000E+01  0.4000E+01
    -37.879  0.0000E+00  0.0000E+00  0.4000E+01  0.4000E+01
    -37.688  0.0000E+00  0.0000E+00  0.4000E+01  0.4000E+01
    -37.497  0.0000E+00  0.0000E+00  0.4000E+01  0.4000E+01
    -37.306  0.0000E+00  0.0000E+00  0.4000E+01  0.4000E+01
    -37.115  0.0000E+00  0.0000E+00  0.4000E+01  0.4000E+01
    -36.924  0.0000E+00  0.0000E+00  0.4000E+01  0.4000E+01
    -36.733  0.0000E+00  0.0000E+00  0.4000E+01  0.4000E+01
    -36.542  0.0000E+00  0.0000E+00  0.4000E+01  0.4000E+01
    -36.351  0.0000E+00  0.0000E+00  0.4000E+01  0.4000E+01
    -36.160  0.0000E+00  0.0000E+00  0.4000E+01  0.4000E+01
    -35.969  0.0000E+00  0.0000E+00  0.4000E+01  0.4000E+01
    -35.778  0.0000E+00  0.0000E+00  0.4000E+01  0.4000E+01
    -35.587  0.0000E+00  0.0000E+00  0.4000E+01  0.4000E+01
    -35.396  0.0000E+00  0.0000E+00  0.4000E+01  0.4000E+01
    -35.205  0.0000E+00  0.0000E+00  0.4000E+01  0.4000E+01
    -35.014  0.0000E+00  0.0000E+00  0.4000E+01  0.4000E+01
    -34.823  0.0000E+00  0.0000E+00  0.4000E+01  0.4000E+01
    -34.632  0.0000E+00  0.0000E+00  0.4000E+01  0.4000E+01
    -34.441  0.0000E+00  0.0000E+00  0.4000E+01  0.4000E+01
    -34.250  0.0000E+00  0.0000E+00  0.4000E+01  0.4000E+01
    -34.059  0.0000E+00  0.0000E+00  0.4000E+01  0.4000E+01
    -33.868  0.0000E+00  0.0000E+00  0.4000E+01  0.4000E+01
    -33.677  0.0000E+00  0.0000E+00  0.4000E+01  0.4000E+01
    -33.486  0.0000E+00  0.0000E+00  0.4000E+01  0.4000E+01
    -33.295  0.0000E+00  0.0000E+00  0.4000E+01  0.4000E+01
    -33.104  0.0000E+00  0.0000E+00  0.4000E+01  0.4000E+01
    -32.913  0.0000E+00  0.0000E+00  0.4000E+01  0.4000E+01
    -32.722  0.0000E+00  0.0000E+00  0.4000E+01  0.4000E+01
    -32.531  0.0000E+00  0.0000E+00  0.4000E+01  0.4000E+01
    -32.340  0.0000E+00  0.0000E+00  0.4000E+01  0.4000E+01
    -32.149  0.0000E+00  0.0000E+00  0.4000E+01  0.4000E+01
    -31.958  0.0000E+00  0.0000E+00  0.4000E+01  0.4000E+01
    -31.767  0.0000E+00  0.0000E+00  0.4000E+01  0.4000E+01
    -31.576  0.0000E+00  0.0000E+00  0.4000E+01  0.4000E+01
    -31.385  0.0000E+00  0.0000E+00  0.4000E+01  0.4000E+01
    -31.194  0.0000E+00  0.0000E+00  0.4000E+01  0.4000E+01
    -31.003  0.0000E+00  0.0000E+00  0.4000E+01  0.4000E+01
    -30.812  0.0000E+00  0.0000E+00  0.4000E+01  0.4000E+01
    -30.621  0.0000E+00  0.0000E+00  0.4000E+01  0.4000E+01
    -30.430  0.0000E+00  0.0000E+00  0.4000E+01  0.4000E+01
    -30.238  0.0000E+00  0.0000E+00  0.4000E+01  0.4000E+01
    -30.047  0.0000E+00  0.0000E+00  0.4000E+01  0.4000E+01
    -29.856  0.0000E+00  0.0000E+00  0.4000E+01  0.4000E+01
    -29.665  0.0000E+00  0.0000E+00  0.4000E+01  0.4000E+01
    -29.474  0.0000E+00  0.0000E+00  0.4000E+01  0.4000E+01
    -29.283  0.0000E+00  0.0000E+00  0.4000E+01  0.4000E+01
    -29.092  0.0000E+00  0.0000E+00  0.4000E+01  0.4000E+01
    -28.901  0.0000E+00  0.0000E+00  0.4000E+01  0.4000E+01
    -28.710  0.0000E+00  0.0000E+00  0.4000E+01  0.4000E+01
    -28.519  0.0000E+00  0.0000E+00  0.4000E+01  0.4000E+01
    -28.328  0.0000E+00  0.0000E+00  0.4000E+01  0.4000E+01
    -28.137  0.0000E+00  0.0000E+00  0.4000E+01  0.4000E+01
    -27.946  0.0000E+00  0.0000E+00  0.4000E+01  0.4000E+01
    -27.755  0.0000E+00  0.0000E+00  0.4000E+01  0.4000E+01
    -27.564  0.0000E+00  0.0000E+00  0.4000E+01  0.4000E+01
    -27.373  0.0000E+00  0.0000E+00  0.4000E+01  0.4000E+01
    -27.182  0.0000E+00  0.0000E+00  0.4000E+01  0.4000E+01
    -26.991  0.0000E+00  0.0000E+00  0.4000E+01  0.4000E+01
    -26.800  0.0000E+00  0.0000E+00  0.4000E+01  0.4000E+01
    -26.609  0.0000E+00  0.0000E+00  0.4000E+01  0.4000E+01
    -26.418  0.0000E+00  0.0000E+00  0.4000E+01  0.4000E+01
    -26.227  0.0000E+00  0.0000E+00  0.4000E+01  0.4000E+01
    -26.036  0.0000E+00  0.0000E+00  0.4000E+01  0.4000E+01
    -25.845  0.0000E+00  0.0000E+00  0.4000E+01  0.4000E+01
    -25.654  0.0000E+00  0.0000E+00  0.4000E+01  0.4000E+01
    -25.463  0.0000E+00  0.0000E+00  0.4000E+01  0.4000E+01
    -25.272  0.0000E+00  0.0000E+00  0.4000E+01  0.4000E+01
    -25.081  0.0000E+00  0.0000E+00  0.4000E+01  0.4000E+01
    -24.890  0.0000E+00  0.0000E+00  0.4000E+01  0.4000E+01
    -24.699  0.0000E+00  0.0000E+00  0.4000E+01  0.4000E+01
    -24.508  0.0000E+00  0.0000E+00  0.4000E+01  0.4000E+01
    -24.317  0.0000E+00  0.0000E+00  0.4000E+01  0.4000E+01
    -24.126  0.0000E+00  0.0000E+00  0.4000E+01  0.4000E+01
    -23.935  0.0000E+00  0.0000E+00  0.4000E+01  0.4000E+01
    -23.744  0.0000E+00  0.0000E+00  0.4000E+01  0.4000E+01
    -23.553  0.0000E+00  0.0000E+00  0.4000E+01  0.4000E+01
    -23.362  0.0000E+00  0.0000E+00  0.4000E+01  0.4000E+01
    -23.171  0.0000E+00  0.0000E+00  0.4000E+01  0.4000E+01
    -22.980  0.0000E+00  0.0000E+00  0.4000E+01  0.4000E+01
    -22.789  0.0000E+00  0.0000E+00  0.4000E+01  0.4000E+01
    -22.598  0.0000E+00  0.0000E+00  0.4000E+01  0.4000E+01
    -22.407  0.0000E+00  0.0000E+00  0.4000E+01  0.4000E+01
    -22.216  0.0000E+00  0.0000E+00  0.4000E+01  0.4000E+01
    -22.025  0.0000E+00  0.0000E+00  0.4000E+01  0.4000E+01
    -21.834  0.0000E+00  0.0000E+00  0.4000E+01  0.4000E+01
    -21.643  0.0000E+00  0.0000E+00  0.4000E+01  0.4000E+01
    -21.452  0.0000E+00  0.0000E+00  0.4000E+01  0.4000E+01
    -21.261  0.0000E+00  0.0000E+00  0.4000E+01  0.4000E+01
    -21.070  0.0000E+00  0.0000E+00  0.4000E+01  0.4000E+01
    -20.879  0.0000E+00  0.0000E+00  0.4000E+01  0.4000E+01
    -20.688  0.0000E+00  0.0000E+00  0.4000E+01  0.4000E+01
    -20.497  0.0000E+00  0.0000E+00  0.4000E+01  0.4000E+01
    -20.306  0.0000E+00  0.0000E+00  0.4000E+01  0.4000E+01
    -20.115  0.0000E+00  0.0000E+00  0.4000E+01  0.4000E+01
    -19.924  0.0000E+00  0.0000E+00  0.4000E+01  0.4000E+01
    -19.733  0.0000E+00  0.0000E+00  0.4000E+01  0.4000E+01
    -19.542  0.0000E+00  0.0000E+00  0.4000E+01  0.4000E+01
    -19.351  0.0000E+00  0.0000E+00  0.4000E+01  0.4000E+01
    -19.160  0.0000E+00  0.0000E+00  0.4000E+01  0.4000E+01
    -18.969  0.0000E+00  0.0000E+00  0.4000E+01  0.4000E+01
    -18.777  0.0000E+00  0.0000E+00  0.4000E+01  0.4000E+01
    -18.586  0.0000E+00  0.0000E+00  0.4000E+01  0.4000E+01
    -18.395  0.0000E+00  0.0000E+00  0.4000E+01  0.4000E+01
    -18.204  0.0000E+00  0.0000E+00  0.4000E+01  0.4000E+01
    -18.013  0.0000E+00  0.0000E+00  0.4000E+01  0.4000E+01
    -17.822  0.1113E-02  0.1119E-02  0.4000E+01  0.4000E+01
    -17.631  0.5333E-01  0.5348E-01  0.4010E+01  0.4010E+01
    -17.440  0.2292E+01  0.2299E+01  0.4448E+01  0.4450E+01
    -17.249  0.3380E+02  0.3384E+02  0.1090E+02  0.1091E+02
    -17.058  0.2550E+02  0.2546E+02  0.1578E+02  0.1578E+02
    -16.867  0.9125E+00  0.9098E+00  0.1600E+02  0.1600E+02
    -16.676  0.0000E+00  0.0000E+00  0.1600E+02  0.1600E+02
    -16.485  0.0000E+00  0.0000E+00  0.1600E+02  0.1600E+02
    -16.294  0.0000E+00  0.0000E+00  0.1600E+02  0.1600E+02
    -16.103  0.0000E+00  0.0000E+00  0.1600E+02  0.1600E+02
    -15.912  0.0000E+00  0.0000E+00  0.1600E+02  0.1600E+02
    -15.721  0.0000E+00  0.0000E+00  0.1600E+02  0.1600E+02
    -15.530  0.0000E+00  0.0000E+00  0.1600E+02  0.1600E+02
    -15.339  0.0000E+00  0.0000E+00  0.1600E+02  0.1600E+02
    -15.148  0.0000E+00  0.0000E+00  0.1600E+02  0.1600E+02
    -14.957  0.0000E+00  0.0000E+00  0.1600E+02  0.1600E+02
    -14.766  0.0000E+00  0.0000E+00  0.1600E+02  0.1600E+02
    -14.575  0.0000E+00  0.0000E+00  0.1600E+02  0.1600E+02
    -14.384  0.0000E+00  0.0000E+00  0.1600E+02  0.1600E+02
    -14.193  0.0000E+00  0.0000E+00  0.1600E+02  0.1600E+02
    -14.002  0.0000E+00  0.0000E+00  0.1600E+02  0.1600E+02
    -13.811  0.0000E+00  0.0000E+00  0.1600E+02  0.1600E+02
    -13.620  0.0000E+00  0.0000E+00  0.1600E+02  0.1600E+02
    -13.429  0.0000E+00  0.0000E+00  0.1600E+02  0.1600E+02
    -13.238  0.0000E+00  0.0000E+00  0.1600E+02  0.1600E+02
    -13.047  0.0000E+00  0.0000E+00  0.1600E+02  0.1600E+02
    -12.856  0.0000E+00  0.0000E+00  0.1600E+02  0.1600E+02
    -12.665  0.0000E+00  0.0000E+00  0.1600E+02  0.1600E+02
    -12.474  0.0000E+00  0.0000E+00  0.1600E+02  0.1600E+02
    -12.283  0.0000E+00  0.0000E+00  0.1600E+02  0.1600E+02
    -12.092  0.0000E+00  0.0000E+00  0.1600E+02  0.1600E+02
    -11.901  0.0000E+00  0.0000E+00  0.1600E+02  0.1600E+02
    -11.710  0.0000E+00  0.0000E+00  0.1600E+02  0.1600E+02
    -11.519  0.0000E+00  0.0000E+00  0.1600E+02  0.1600E+02
    -11.328  0.0000E+00  0.0000E+00  0.1600E+02  0.1600E+02
    -11.137  0.0000E+00  0.0000E+00  0.1600E+02  0.1600E+02
    -10.946  0.0000E+00  0.0000E+00  0.1600E+02  0.1600E+02
    -10.755  0.0000E+00  0.0000E+00  0.1600E+02  0.1600E+02
    -10.564  0.0000E+00  0.0000E+00  0.1600E+02  0.1600E+02
    -10.373  0.0000E+00  0.0000E+00  0.1600E+02  0.1600E+02
    -10.182  0.0000E+00  0.0000E+00  0.1600E+02  0.1600E+02
     -9.991  0.0000E+00  0.0000E+00  0.1600E+02  0.1600E+02
     -9.800  0.0000E+00  0.0000E+00  0.1600E+02  0.1600E+02
     -9.609  0.0000E+00  0.0000E+00  0.1600E+02  0.1600E+02
     -9.418  0.0000E+00  0.0000E+00  0.1600E+02  0.1600E+02
     -9.227  0.0000E+00  0.0000E+00  0.1600E+02  0.1600E+02
     -9.036  0.0000E+00  0.0000E+00  0.1600E+02  0.1600E+02
     -8.845  0.0000E+00  0.0000E+00  0.1600E+02  0.1600E+02
     -8.654  0.0000E+00  0.0000E+00  0.1600E+02  0.1600E+02
     -8.463  0.0000E+00  0.0000E+00  0.1600E+02  0.1600E+02
     -8.272  0.0000E+00  0.0000E+00  0.1600E+02  0.1600E+02
     -8.081  0.0000E+00  0.0000E+00  0.1600E+02  0.1600E+02
     -7.890  0.0000E+00  0.0000E+00  0.1600E+02  0.1600E+02
     -7.699  0.0000E+00  0.0000E+00  0.1600E+02  0.1600E+02
     -7.508  0.0000E+00  0.0000E+00  0.1600E+02  0.1600E+02
     -7.317  0.0000E+00  0.0000E+00  0.1600E+02  0.1600E+02
     -7.125  0.0000E+00  0.0000E+00  0.1600E+02  0.1600E+02
     -6.934  0.0000E+00  0.0000E+00  0.1600E+02  0.1600E+02
     -6.743  0.0000E+00  0.0000E+00  0.1600E+02  0.1600E+02
     -6.552  0.0000E+00  0.0000E+00  0.1600E+02  0.1600E+02
     -6.361  0.0000E+00  0.0000E+00  0.1600E+02  0.1600E+02
     -6.170  0.0000E+00  0.0000E+00  0.1600E+02  0.1600E+02
     -5.979  0.0000E+00  0.0000E+00  0.1600E+02  0.1600E+02
     -5.788  0.0000E+00  0.0000E+00  0.1600E+02  0.1600E+02
     -5.597  0.0000E+00  0.0000E+00  0.1600E+02  0.1600E+02
     -5.406  0.0000E+00  0.0000E+00  0.1600E+02  0.1600E+02
     -5.215  0.0000E+00  0.0000E+00  0.1600E+02  0.1600E+02
     -5.024  0.0000E+00  0.0000E+00  0.1600E+02  0.1600E+02
     -4.833  0.0000E+00  0.0000E+00  0.1600E+02  0.1600E+02
     -4.642  0.0000E+00  0.0000E+00  0.1600E+02  0.1600E+02
     -4.451  0.0000E+00  0.0000E+00  0.1600E+02  0.1600E+02
     -4.260  0.0000E+00  0.0000E+00  0.1600E+02  0.1600E+02
     -4.069  0.0000E+00  0.0000E+00  0.1600E+02  0.1600E+02
     -3.878  0.0000E+00  0.0000E+00  0.1600E+02  0.1600E+02
     -3.687  0.0000E+00  0.0000E+00  0.1600E+02  0.1600E+02
     -3.496  0.0000E+00  0.0000E+00  0.1600E+02  0.1600E+02
     -3.305  0.0000E+00  0.0000E+00  0.1600E+02  0.1600E+02
     -3.114  0.0000E+00  0.0000E+00  0.1600E+02  0.1600E+02
     -2.923  0.0000E+00  0.0000E+00  0.1600E+02  0.1600E+02
     -2.732  0.0000E+00  0.0000E+00  0.1600E+02  0.1600E+02
     -2.541  0.0000E+00  0.0000E+00  0.1600E+02  0.1600E+02
     -2.350  0.0000E+00  0.0000E+00  0.1600E+02  0.1600E+02
     -2.159  0.0000E+00  0.0000E+00  0.1600E+02  0.1600E+02
     -1.968  0.0000E+00  0.0000E+00  0.1600E+02  0.1600E+02
     -1.777  0.0000E+00  0.0000E+00  0.1600E+02  0.1600E+02
     -1.586  0.0000E+00  0.0000E+00  0.1600E+02  0.1600E+02
     -1.395  0.5060E-05  0.5042E-05  0.1600E+02  0.1600E+02
     -1.204  0.2419E-03  0.2410E-03  0.1600E+02  0.1600E+02
     -1.013  0.1003E-01  0.9995E-02  0.1600E+02  0.1600E+02
     -0.822  0.1408E+00  0.1406E+00  0.1603E+02  0.1603E+02
     -0.631  0.3630E+00  0.3627E+00  0.1610E+02  0.1610E+02
     -0.440  0.4938E+00  0.4937E+00  0.1619E+02  0.1619E+02
     -0.249  0.6622E+00  0.6620E+00  0.1632E+02  0.1632E+02
     -0.058  0.7242E+00  0.7242E+00  0.1646E+02  0.1646E+02
      0.133  0.8210E+00  0.8207E+00  0.1661E+02  0.1661E+02
      0.324  0.1030E+01  0.1030E+01  0.1681E+02  0.1681E+02
      0.515  0.8915E+00  0.8915E+00  0.1698E+02  0.1698E+02
      0.706  0.1279E+01  0.1279E+01  0.1723E+02  0.1723E+02
      0.897  0.1301E+01  0.1301E+01  0.1748E+02  0.1748E+02
      1.088  0.1414E+01  0.1414E+01  0.1775E+02  0.1775E+02
      1.279  0.1470E+01  0.1470E+01  0.1803E+02  0.1803E+02
      1.470  0.1831E+01  0.1830E+01  0.1838E+02  0.1838E+02
      1.661  0.1500E+01  0.1500E+01  0.1867E+02  0.1867E+02
      1.852  0.1643E+01  0.1642E+01  0.1898E+02  0.1898E+02
      2.043  0.1714E+01  0.1714E+01  0.1931E+02  0.1931E+02
      2.234  0.1844E+01  0.1845E+01  0.1967E+02  0.1967E+02
      2.425  0.1706E+01  0.1706E+01  0.1999E+02  0.1999E+02
      2.616  0.1483E+01  0.1484E+01  0.2028E+02  0.2028E+02
      2.807  0.1691E+01  0.1691E+01  0.2060E+02  0.2060E+02
      2.998  0.2511E+01  0.2511E+01  0.2108E+02  0.2108E+02
      3.189  0.2412E+01  0.2412E+01  0.2155E+02  0.2155E+02
      3.380  0.2160E+01  0.2160E+01  0.2196E+02  0.2196E+02
      3.571  0.2210E+01  0.2211E+01  0.2238E+02  0.2238E+02
      3.762  0.1937E+01  0.1937E+01  0.2276E+02  0.2276E+02
      3.953  0.2214E+01  0.2217E+01  0.2318E+02  0.2318E+02
      4.144  0.2024E+01  0.2024E+01  0.2357E+02  0.2357E+02
      4.336  0.2370E+01  0.2369E+01  0.2402E+02  0.2402E+02
      4.527  0.3471E+01  0.3471E+01  0.2469E+02  0.2469E+02
      4.718  0.3267E+01  0.3267E+01  0.2531E+02  0.2531E+02
      4.909  0.2713E+01  0.2714E+01  0.2583E+02  0.2583E+02
      5.100  0.1667E+01  0.1667E+01  0.2615E+02  0.2615E+02
      5.291  0.2508E+01  0.2507E+01  0.2663E+02  0.2663E+02
      5.482  0.2845E+01  0.2845E+01  0.2718E+02  0.2718E+02
      5.673  0.2716E+01  0.2716E+01  0.2770E+02  0.2770E+02
      5.864  0.3133E+01  0.3132E+01  0.2830E+02  0.2830E+02
      6.055  0.3568E+01  0.3568E+01  0.2898E+02  0.2898E+02
      6.246  0.3542E+01  0.3542E+01  0.2966E+02  0.2966E+02
      6.437  0.3777E+01  0.3776E+01  0.3039E+02  0.3039E+02
      6.628  0.3934E+01  0.3934E+01  0.3114E+02  0.3114E+02
      6.819  0.5151E+01  0.5150E+01  0.3213E+02  0.3213E+02
      7.010  0.5222E+01  0.5222E+01  0.3313E+02  0.3313E+02
      7.201  0.3978E+01  0.3978E+01  0.3389E+02  0.3389E+02
      7.392  0.4767E+01  0.4766E+01  0.3481E+02  0.3481E+02
      7.583  0.5767E+01  0.5766E+01  0.3591E+02  0.3591E+02
      7.774  0.6588E+01  0.6588E+01  0.3718E+02  0.3718E+02
      7.965  0.5455E+01  0.5457E+01  0.3822E+02  0.3822E+02
      8.156  0.3802E+01  0.3803E+01  0.3896E+02  0.3896E+02
      8.347  0.3867E+01  0.3866E+01  0.3970E+02  0.3970E+02
      8.538  0.3929E+01  0.3930E+01  0.4045E+02  0.4045E+02
      8.729  0.2617E+01  0.2617E+01  0.4095E+02  0.4095E+02
      8.920  0.1949E+01  0.1949E+01  0.4133E+02  0.4133E+02
      9.111  0.1954E+01  0.1954E+01  0.4170E+02  0.4170E+02
      9.302  0.2049E+01  0.2049E+01  0.4210E+02  0.4210E+02
      9.493  0.1976E+01  0.1976E+01  0.4248E+02  0.4248E+02
      9.684  0.2402E+01  0.2402E+01  0.4294E+02  0.4294E+02
      9.875  0.2436E+01  0.2436E+01  0.4340E+02  0.4340E+02
     10.066  0.2574E+01  0.2574E+01  0.4390E+02  0.4390E+02
     10.257  0.2521E+01  0.2521E+01  0.4438E+02  0.4438E+02
     10.448  0.3874E+01  0.3874E+01  0.4512E+02  0.4512E+02
     10.639  0.4694E+01  0.4695E+01  0.4602E+02  0.4602E+02
     10.830  0.4998E+01  0.4997E+01  0.4698E+02  0.4698E+02
     11.021  0.4888E+01  0.4889E+01  0.4791E+02  0.4791E+02
     11.212  0.5550E+01  0.5553E+01  0.4898E+02  0.4898E+02
     11.403  0.5355E+01  0.5375E+01  0.5000E+02  0.5001E+02
     11.594  0.5873E+01  0.5825E+01  0.5113E+02  0.5112E+02
     11.785  0.6166E+01  0.6189E+01  0.5231E+02  0.5231E+02
     11.976  0.5278E+01  0.5326E+01  0.5332E+02  0.5333E+02
     12.167  0.5203E+01  0.5090E+01  0.5432E+02  0.5431E+02
     12.358  0.3164E+01  0.3276E+01  0.5493E+02  0.5494E+02
     12.549  0.2853E+01  0.2963E+01  0.5548E+02  0.5551E+02
     12.740  0.1907E+01  0.1929E+01  0.5585E+02  0.5588E+02
     12.931  0.6991E+00  0.5556E+00  0.5598E+02  0.5599E+02
     13.122  0.8683E-01  0.4445E-01  0.5600E+02  0.5600E+02
     13.313  0.2140E-02  0.3259E-02  0.5600E+02  0.5600E+02
     13.504  0.0000E+00  0.0000E+00  0.5600E+02  0.5600E+02
     13.695  0.0000E+00  0.0000E+00  0.5600E+02  0.5600E+02
     13.886  0.0000E+00  0.0000E+00  0.5600E+02  0.5600E+02
     14.077  0.0000E+00  0.0000E+00  0.5600E+02  0.5600E+02
     14.268  0.0000E+00  0.0000E+00  0.5600E+02  0.5600E+02
     14.459  0.0000E+00  0.0000E+00  0.5600E+02  0.5600E+02
     14.650  0.0000E+00  0.0000E+00  0.5600E+02  0.5600E+02
     14.841  0.0000E+00  0.0000E+00  0.5600E+02  0.5600E+02
     15.032  0.0000E+00  0.0000E+00  0.5600E+02  0.5600E+02
     15.223  0.0000E+00  0.0000E+00  0.5600E+02  0.5600E+02
     15.414  0.0000E+00  0.0000E+00  0.5600E+02  0.5600E+02
     15.605  0.0000E+00  0.0000E+00  0.5600E+02  0.5600E+02
     15.60547801    -41.69947902  301      9.25787170      1.00000000
    -41.699  0.0000E+00  0.0000E+00  0.0000E+00  0.0000E+00  0.0000E+00  0.0000E+00  0.0000E+00  0.0000E+00  0.0000E+00  0.0000E+00  0.0000E+00  0.0000E+00  0.0000E+00  0.0000E+00  0.0000E+00  0.0000E+00  0.0000E+00  0.0000E+00
    -41.508  0.0000E+00  0.0000E+00  0.0000E+00  0.0000E+00  0.0000E+00  0.0000E+00  0.0000E+00  0.0000E+00  0.0000E+00  0.0000E+00  0.0000E+00  0.0000E+00  0.0000E+00  0.0000E+00  0.0000E+00  0.0000E+00  0.0000E+00  0.0000E+00
    -41.317  0.0000E+00  0.0000E+00  0.0000E+00  0.0000E+00  0.0000E+00  0.0000E+00  0.0000E+00  0.0000E+00  0.0000E+00  0.0000E+00  0.0000E+00  0.0000E+00  0.0000E+00  0.0000E+00  0.0000E+00  0.0000E+00  0.0000E+00  0.0000E+00
    -41.126  0.0000E+00  0.0000E+00  0.0000E+00  0.0000E+00  0.0000E+00  0.0000E+00  0.0000E+00  0.0000E+00  0.0000E+00  0.0000E+00  0.0000E+00  0.0000E+00  0.0000E+00  0.0000E+00  0.0000E+00  0.0000E+00  0.0000E+00  0.0000E+00
    -40.935  0.0000E+00  0.0000E+00  0.0000E+00  0.0000E+00  0.0000E+00  0.0000E+00  0.0000E+00  0.0000E+00  0.0000E+00  0.0000E+00  0.0000E+00  0.0000E+00  0.0000E+00  0.0000E+00  0.0000E+00  0.0000E+00  0.0000E+00  0.0000E+00
    -40.744  0.0000E+00  0.0000E+00  0.0000E+00  0.0000E+00  0.0000E+00  0.0000E+00  0.0000E+00  0.0000E+00  0.0000E+00  0.0000E+00  0.0000E+00  0.0000E+00  0.0000E+00  0.0000E+00  0.0000E+00  0.0000E+00  0.0000E+00  0.0000E+00
    -40.553  0.0000E+00  0.0000E+00  0.0000E+00  0.0000E+00  0.0000E+00  0.0000E+00  0.0000E+00  0.0000E+00  0.0000E+00  0.0000E+00  0.0000E+00  0.0000E+00  0.0000E+00  0.0000E+00  0.0000E+00  0.0000E+00  0.0000E+00  0.0000E+00
    -40.362  0.0000E+00  0.0000E+00  0.0000E+00  0.0000E+00  0.0000E+00  0.0000E+00  0.0000E+00  0.0000E+00  0.0000E+00  0.0000E+00  0.0000E+00  0.0000E+00  0.0000E+00  0.0000E+00  0.0000E+00  0.0000E+00  0.0000E+00  0.0000E+00
    -40.171  0.0000E+00  0.0000E+00  0.0000E+00  0.0000E+00  0.0000E+00  0.0000E+00  0.0000E+00  0.0000E+00  0.0000E+00  0.0000E+00  0.0000E+00  0.0000E+00  0.0000E+00  0.0000E+00  0.0000E+00  0.0000E+00  0.0000E+00  0.0000E+00
    -39.980  0.0000E+00  0.0000E+00  0.0000E+00  0.0000E+00  0.0000E+00  0.0000E+00  0.0000E+00  0.0000E+00  0.0000E+00  0.0000E+00  0.0000E+00  0.0000E+00  0.0000E+00  0.0000E+00  0.0000E+00  0.0000E+00  0.0000E+00  0.0000E+00
    -39.789  0.0000E+00  0.0000E+00  0.0000E+00  0.0000E+00  0.0000E+00  0.0000E+00  0.0000E+00  0.0000E+00  0.0000E+00  0.0000E+00  0.0000E+00  0.0000E+00  0.0000E+00  0.0000E+00  0.0000E+00  0.0000E+00  0.0000E+00  0.0000E+00
    -39.598  0.1979E-03  0.1991E-03  0.3530E-11  0.3526E-11  0.8074E-09  0.8125E-09  0.3530E-11  0.3526E-11  0.1941E-14  0.2155E-14  0.1413E-14  0.1423E-14  0.4601E-10  0.4631E-10  0.1413E-14  0.1423E-14  0.4040E-11  0.4075E-11
    -39.407  0.8813E-02  0.8870E-02  0.1572E-09  0.1571E-09  0.3596E-07  0.3619E-07  0.1572E-09  0.1571E-09  0.8644E-13  0.9598E-13  0.6295E-13  0.6338E-13  0.2050E-08  0.2063E-08  0.6295E-13  0.6338E-13  0.1800E-09  0.1815E-09
    -39.216  0.3725E+00  0.3747E+00  0.6646E-08  0.6634E-08  0.1520E-05  0.1529E-05  0.6646E-08  0.6634E-08  0.3655E-11  0.4057E-11  0.2660E-11  0.2677E-11  0.8657E-07  0.8709E-07  0.2660E-11  0.2677E-11  0.7608E-08  0.7668E-08
    -39.025  0.3687E+01  0.3691E+01  0.6573E-07  0.6528E-07  0.1503E-04  0.1504E-04  0.6573E-07  0.6528E-07  0.3632E-10  0.4012E-10  0.2624E-10  0.2626E-10  0.8510E-06  0.8518E-06  0.2624E-10  0.2626E-10  0.7539E-07  0.7561E-07
    -38.834  0.1095E+01  0.1090E+01  0.1950E-07  0.1925E-07  0.4461E-05  0.4438E-05  0.1950E-07  0.1925E-07  0.1084E-10  0.1190E-10  0.7762E-11  0.7715E-11  0.2508E-06  0.2495E-06  0.7762E-11  0.7715E-11  0.2240E-07  0.2233E-07
    -38.643  0.0000E+00  0.0000E+00  0.0000E+00  0.0000E+00  0.0000E+00  0.0000E+00  0.0000E+00  0.0000E+00  0.0000E+00  0.0000E+00  0.0000E+00  0.0000E+00  0.0000E+00  0.0000E+00  0.0000E+00  0.0000E+00  0.0000E+00  0.0000E+00
    -38.452  0.0000E+00  0.0000E+00  0.0000E+00  0.0000E+00  0.0000E+00  0.0000E+00  0.0000E+00  0.0000E+00  0.0000E+00  0.0000E+00  0.0000E+00  0.0000E+00  0.0000E+00  0.0000E+00  0.0000E+00  0.0000E+00  0.0000E+00  0.0000E+00
    -38.261  0.0000E+00  0.0000E+00  0.0000E+00  0.0000E+00  0.0000E+00  0.0000E+00  0.0000E+00  0.0000E+00  0.0000E+00  0.0000E+00  0.0000E+00  0.0000E+00  0.0000E+00  0.0000E+00  0.0000E+00  0.0000E+00  0.0000E+00  0.0000E+00
    -38.070  0.0000E+00  0.0000E+00  0.0000E+00  0.0000E+00  0.0000E+00  0.0000E+00  0.0000E+00  0.0000E+00  0.0000E+00  0.0000E+00  0.0000E+00  0.0000E+00  0.0000E+00  0.0000E+00  0.0000E+00  0.0000E+00  0.0000E+00  0.0000E+00
    -37.879  0.0000E+00  0.0000E+00  0.0000E+00  0.0000E+00  0.0000E+00  0.0000E+00  0.0000E+00  0.0000E+00  0.0000E+00  0.0000E+00  0.0000E+00  0.0000E+00  0.0000E+00  0.0000E+00  0.0000E+00  0.0000E+00  0.0000E+00  0.0000E+00
    -37.688  0.0000E+00  0.0000E+00  0.0000E+00  0.0000E+00  0.0000E+00  0.0000E+00  0.0000E+00  0.0000E+00  0.0000E+00  0.0000E+00  0.0000E+00  0.0000E+00  0.0000E+00  0.0000E+00  0.0000E+00  0.0000E+00  0.0000E+00  0.0000E+00
    -37.497  0.0000E+00  0.0000E+00  0.0000E+00  0.0000E+00  0.0000E+00  0.0000E+00  0.0000E+00  0.0000E+00  0.0000E+00  0.0000E+00  0.0000E+00  0.0000E+00  0.0000E+00  0.0000E+00  0.0000E+00  0.0000E+00  0.0000E+00  0.0000E+00
    -37.306  0.0000E+00  0.0000E+00  0.0000E+00  0.0000E+00  0.0000E+00  0.0000E+00  0.0000E+00  0.0000E+00  0.0000E+00  0.0000E+00  0.0000E+00  0.0000E+00  0.0000E+00  0.0000E+00  0.0000E+00  0.0000E+00  0.0000E+00  0.0000E+00
    -37.115  0.0000E+00  0.0000E+00  0.0000E+00  0.0000E+00  0.0000E+00  0.0000E+00  0.0000E+00  0.0000E+00  0.0000E+00  0.0000E+00  0.0000E+00  0.0000E+00  0.0000E+00  0.0000E+00  0.0000E+00  0.0000E+00  0.0000E+00  0.0000E+00
    -36.924  0.0000E+00  0.0000E+00  0.0000E+00  0.0000E+00  0.0000E+00  0.0000E+00  0.0000E+00  0.0000E+00  0.0000E+00  0.0000E+00  0.0000E+00  0.0000E+00  0.0000E+00  0.0000E+00  0.0000E+00  0.0000E+00  0.0000E+00  0.0000E+00
    -36.733  0.0000E+00  0.0000E+00  0.0000E+00  0.0000E+00  0.0000E+00  0.0000E+00  0.0000E+00  0.0000E+00  0.0000E+00  0.0000E+00  0.0000E+00  0.0000E+00  0.0000E+00  0.0000E+00  0.0000E+00  0.0000E+00  0.0000E+00  0.0000E+00
    -36.542  0.0000E+00  0.0000E+00  0.0000E+00  0.0000E+00  0.0000E+00  0.0000E+00  0.0000E+00  0.0000E+00  0.0000E+00  0.0000E+00  0.0000E+00  0.0000E+00  0.0000E+00  0.0000E+00  0.0000E+00  0.0000E+00  0.0000E+00  0.0000E+00
    -36.351  0.0000E+00  0.0000E+00  0.0000E+00  0.0000E+00  0.0000E+00  0.0000E+00  0.0000E+00  0.0000E+00  0.0000E+00  0.0000E+00  0.0000E+00  0.0000E+00  0.0000E+00  0.0000E+00  0.0000E+00  0.0000E+00  0.0000E+00  0.0000E+00
    -36.160  0.0000E+00  0.0000E+00  0.0000E+00  0.0000E+00  0.0000E+00  0.0000E+00  0.0000E+00  0.0000E+00  0.0000E+00  0.0000E+00  0.0000E+00  0.0000E+00  0.0000E+00  0.0000E+00  0.0000E+00  0.0000E+00  0.0000E+00  0.0000E+00
    -35.969  0.0000E+00  0.0000E+00  0.0000E+00  0.0000E+00  0.0000E+00  0.0000E+00  0.0000E+00  0.0000E+00  0.0000E+00  0.0000E+00  0.0000E+00  0.0000E+00  0.0000E+00  0.0000E+00  0.0000E+00  0.0000E+00  0.0000E+00  0.0000E+00
    -35.778  0.0000E+00  0.0000E+00  0.0000E+00  0.0000E+00  0.0000E+00  0.0000E+00  0.0000E+00  0.0000E+00  0.0000E+00  0.0000E+00  0.0000E+00  0.0000E+00  0.0000E+00  0.0000E+00  0.0000E+00  0.0000E+00  0.0000E+00  0.0000E+00
    -35.587  0.0000E+00  0.0000E+00  0.0000E+00  0.0000E+00  0.0000E+00  0.0000E+00  0.0000E+00  0.0000E+00  0.0000E+00  0.0000E+00  0.0000E+00  0.0000E+00  0.0000E+00  0.0000E+00  0.0000E+00  0.0000E+00  0.0000E+00  0.0000E+00
    -35.396  0.0000E+00  0.0000E+00  0.0000E+00  0.0000E+00  0.0000E+00  0.0000E+00  0.0000E+00  0.0000E+00  0.0000E+00  0.0000E+00  0.0000E+00  0.0000E+00  0.0000E+00  0.0000E+00  0.0000E+00  0.0000E+00  0.0000E+00  0.0000E+00
    -35.205  0.0000E+00  0.0000E+00  0.0000E+00  0.0000E+00  0.0000E+00  0.0000E+00  0.0000E+00  0.0000E+00  0.0000E+00  0.0000E+00  0.0000E+00  0.0000E+00  0.0000E+00  0.0000E+00  0.0000E+00  0.0000E+00  0.0000E+00  0.0000E+00
    -35.014  0.0000E+00  0.0000E+00  0.0000E+00  0.0000E+00  0.0000E+00  0.0000E+00  0.0000E+00  0.0000E+00  0.0000E+00  0.0000E+00  0.0000E+00  0.0000E+00  0.0000E+00  0.0000E+00  0.0000E+00  0.0000E+00  0.0000E+00  0.0000E+00
    -34.823  0.0000E+00  0.0000E+00  0.0000E+00  0.0000E+00  0.0000E+00  0.0000E+00  0.0000E+00  0.0000E+00  0.0000E+00  0.0000E+00  0.0000E+00  0.0000E+00  0.0000E+00  0.0000E+00  0.0000E+00  0.0000E+00  0.0000E+00  0.0000E+00
    -34.632  0.0000E+00  0.0000E+00  0.0000E+00  0.0000E+00  0.0000E+00  0.0000E+00  0.0000E+00  0.0000E+00  0.0000E+00  0.0000E+00  0.0000E+00  0.0000E+00  0.0000E+00  0.0000E+00  0.0000E+00  0.0000E+00  0.0000E+00  0.0000E+00
    -34.441  0.0000E+00  0.0000E+00  0.0000E+00  0.0000E+00  0.0000E+00  0.0000E+00  0.0000E+00  0.0000E+00  0.0000E+00  0.0000E+00  0.0000E+00  0.0000E+00  0.0000E+00  0.0000E+00  0.0000E+00  0.0000E+00  0.0000E+00  0.0000E+00
    -34.250  0.0000E+00  0.0000E+00  0.0000E+00  0.0000E+00  0.0000E+00  0.0000E+00  0.0000E+00  0.0000E+00  0.0000E+00  0.0000E+00  0.0000E+00  0.0000E+00  0.0000E+00  0.0000E+00  0.0000E+00  0.0000E+00  0.0000E+00  0.0000E+00
    -34.059  0.0000E+00  0.0000E+00  0.0000E+00  0.0000E+00  0.0000E+00  0.0000E+00  0.0000E+00  0.0000E+00  0.0000E+00  0.0000E+00  0.0000E+00  0.0000E+00  0.0000E+00  0.0000E+00  0.0000E+00  0.0000E+00  0.0000E+00  0.0000E+00
    -33.868  0.0000E+00  0.0000E+00  0.0000E+00  0.0000E+00  0.0000E+00  0.0000E+00  0.0000E+00  0.0000E+00  0.0000E+00  0.0000E+00  0.0000E+00  0.0000E+00  0.0000E+00  0.0000E+00  0.0000E+00  0.0000E+00  0.0000E+00  0.0000E+00
    -33.677  0.0000E+00  0.0000E+00  0.0000E+00  0.0000E+00  0.0000E+00  0.0000E+00  0.0000E+00  0.0000E+00  0.0000E+00  0.0000E+00  0.0000E+00  0.0000E+00  0.0000E+00  0.0000E+00  0.0000E+00  0.0000E+00  0.0000E+00  0.0000E+00
    -33.486  0.0000E+00  0.0000E+00  0.0000E+00  0.0000E+00  0.0000E+00  0.0000E+00  0.0000E+00  0.0000E+00  0.0000E+00  0.0000E+00  0.0000E+00  0.0000E+00  0.0000E+00  0.0000E+00  0.0000E+00  0.0000E+00  0.0000E+00  0.0000E+00
    -33.295  0.0000E+00  0.0000E+00  0.0000E+00  0.0000E+00  0.0000E+00  0.0000E+00  0.0000E+00  0.0000E+00  0.0000E+00  0.0000E+00  0.0000E+00  0.0000E+00  0.0000E+00  0.0000E+00  0.0000E+00  0.0000E+00  0.0000E+00  0.0000E+00
    -33.104  0.0000E+00  0.0000E+00  0.0000E+00  0.0000E+00  0.0000E+00  0.0000E+00  0.0000E+00  0.0000E+00  0.0000E+00  0.0000E+00  0.0000E+00  0.0000E+00  0.0000E+00  0.0000E+00  0.0000E+00  0.0000E+00  0.0000E+00  0.0000E+00
    -32.913  0.0000E+00  0.0000E+00  0.0000E+00  0.0000E+00  0.0000E+00  0.0000E+00  0.0000E+00  0.0000E+00  0.0000E+00  0.0000E+00  0.0000E+00  0.0000E+00  0.0000E+00  0.0000E+00  0.0000E+00  0.0000E+00  0.0000E+00  0.0000E+00
    -32.722  0.0000E+00  0.0000E+00  0.0000E+00  0.0000E+00  0.0000E+00  0.0000E+00  0.0000E+00  0.0000E+00  0.0000E+00  0.0000E+00  0.0000E+00  0.0000E+00  0.0000E+00  0.0000E+00  0.0000E+00  0.0000E+00  0.0000E+00  0.0000E+00
    -32.531  0.0000E+00  0.0000E+00  0.0000E+00  0.0000E+00  0.0000E+00  0.0000E+00  0.0000E+00  0.0000E+00  0.0000E+00  0.0000E+00  0.0000E+00  0.0000E+00  0.0000E+00  0.0000E+00  0.0000E+00  0.0000E+00  0.0000E+00  0.0000E+00
    -32.340  0.0000E+00  0.0000E+00  0.0000E+00  0.0000E+00  0.0000E+00  0.0000E+00  0.0000E+00  0.0000E+00  0.0000E+00  0.0000E+00  0.0000E+00  0.0000E+00  0.0000E+00  0.0000E+00  0.0000E+00  0.0000E+00  0.0000E+00  0.0000E+00
    -32.149  0.0000E+00  0.0000E+00  0.0000E+00  0.0000E+00  0.0000E+00  0.0000E+00  0.0000E+00  0.0000E+00  0.0000E+00  0.0000E+00  0.0000E+00  0.0000E+00  0.0000E+00  0.0000E+00  0.0000E+00  0.0000E+00  0.0000E+00  0.0000E+00