  16  16   1   0
  0.1316658E+02  0.3656296E-09  0.3656296E-09  0.1575834E-08  0.5000000E-15
  1.000000000000000E-004
  CAR 
 unknown system                          
     19.13759996    -38.37271530  301     11.84582750      1.00000000
    -38.373  0.0000E+00  0.0000E+00  0.0000E+00  0.0000E+00
    -38.181  0.0000E+00  0.0000E+00  0.0000E+00  0.0000E+00
    -37.989  0.0000E+00  0.0000E+00  0.0000E+00  0.0000E+00
    -37.798  0.0000E+00  0.0000E+00  0.0000E+00  0.0000E+00
    -37.606  0.0000E+00  0.0000E+00  0.0000E+00  0.0000E+00
    -37.414  0.0000E+00  0.0000E+00  0.0000E+00  0.0000E+00
    -37.223  0.0000E+00  0.0000E+00  0.0000E+00  0.0000E+00
    -37.031  0.0000E+00  0.0000E+00  0.0000E+00  0.0000E+00
    -36.839  0.0000E+00  0.0000E+00  0.0000E+00  0.0000E+00
    -36.647  0.0000E+00  0.0000E+00  0.0000E+00  0.0000E+00
    -36.456  0.0000E+00  0.0000E+00  0.0000E+00  0.0000E+00
    -36.264  0.6203E-03  0.6231E-03  0.1189E-03  0.1194E-03
    -36.072  0.2803E-01  0.2815E-01  0.5492E-02  0.5516E-02
    -35.881  0.1217E+01  0.1223E+01  0.2389E+00  0.2399E+00
    -35.689  0.1427E+02  0.1428E+02  0.2975E+01  0.2978E+01
    -35.497  0.5194E+01  0.5177E+01  0.3970E+01  0.3970E+01
    -35.305  0.0000E+00  0.0000E+00  0.4000E+01  0.4000E+01
    -35.114  0.0000E+00  0.0000E+00  0.4000E+01  0.4000E+01
    -34.922  0.0000E+00  0.0000E+00  0.4000E+01  0.4000E+01
    -34.730  0.0000E+00  0.0000E+00  0.4000E+01  0.4000E+01
    -34.539  0.0000E+00  0.0000E+00  0.4000E+01  0.4000E+01
    -34.347  0.0000E+00  0.0000E+00  0.4000E+01  0.4000E+01
    -34.155  0.0000E+00  0.0000E+00  0.4000E+01  0.4000E+01
    -33.964  0.0000E+00  0.0000E+00  0.4000E+01  0.4000E+01
    -33.772  0.0000E+00  0.0000E+00  0.4000E+01  0.4000E+01
    -33.580  0.0000E+00  0.0000E+00  0.4000E+01  0.4000E+01
    -33.388  0.0000E+00  0.0000E+00  0.4000E+01  0.4000E+01
    -33.197  0.0000E+00  0.0000E+00  0.4000E+01  0.4000E+01
    -33.005  0.0000E+00  0.0000E+00  0.4000E+01  0.4000E+01
    -32.813  0.0000E+00  0.0000E+00  0.4000E+01  0.4000E+01
    -32.622  0.0000E+00  0.0000E+00  0.4000E+01  0.4000E+01
    -32.430  0.0000E+00  0.0000E+00  0.4000E+01  0.4000E+01
    -32.238  0.0000E+00  0.0000E+00  0.4000E+01  0.4000E+01
    -32.047  0.0000E+00  0.0000E+00  0.4000E+01  0.4000E+01
    -31.855  0.0000E+00  0.0000E+00  0.4000E+01  0.4000E+01
    -31.663  0.0000E+00  0.0000E+00  0.4000E+01  0.4000E+01
    -31.471  0.0000E+00  0.0000E+00  0.4000E+01  0.4000E+01
    -31.280  0.0000E+00  0.0000E+00  0.4000E+01  0.4000E+01
    -31.088  0.0000E+00  0.0000E+00  0.4000E+01  0.4000E+01
    -30.896  0.0000E+00  0.0000E+00  0.4000E+01  0.4000E+01
    -30.705  0.0000E+00  0.0000E+00  0.4000E+01  0.4000E+01
    -30.513  0.0000E+00  0.0000E+00  0.4000E+01  0.4000E+01
    -30.321  0.0000E+00  0.0000E+00  0.4000E+01  0.4000E+01
    -30.130  0.0000E+00  0.0000E+00  0.4000E+01  0.4000E+01
    -29.938  0.0000E+00  0.0000E+00  0.4000E+01  0.4000E+01
    -29.746  0.0000E+00  0.0000E+00  0.4000E+01  0.4000E+01
    -29.554  0.0000E+00  0.0000E+00  0.4000E+01  0.4000E+01
    -29.363  0.0000E+00  0.0000E+00  0.4000E+01  0.4000E+01
    -29.171  0.0000E+00  0.0000E+00  0.4000E+01  0.4000E+01
    -28.979  0.0000E+00  0.0000E+00  0.4000E+01  0.4000E+01
    -28.788  0.0000E+00  0.0000E+00  0.4000E+01  0.4000E+01
    -28.596  0.0000E+00  0.0000E+00  0.4000E+01  0.4000E+01
    -28.404  0.0000E+00  0.0000E+00  0.4000E+01  0.4000E+01
    -28.213  0.0000E+00  0.0000E+00  0.4000E+01  0.4000E+01
    -28.021  0.0000E+00  0.0000E+00  0.4000E+01  0.4000E+01
    -27.829  0.0000E+00  0.0000E+00  0.4000E+01  0.4000E+01
    -27.637  0.0000E+00  0.0000E+00  0.4000E+01  0.4000E+01
    -27.446  0.0000E+00  0.0000E+00  0.4000E+01  0.4000E+01
    -27.254  0.0000E+00  0.0000E+00  0.4000E+01  0.4000E+01
    -27.062  0.0000E+00  0.0000E+00  0.4000E+01  0.4000E+01
    -26.871  0.0000E+00  0.0000E+00  0.4000E+01  0.4000E+01
    -26.679  0.0000E+00  0.0000E+00  0.4000E+01  0.4000E+01
    -26.487  0.0000E+00  0.0000E+00  0.4000E+01  0.4000E+01
    -26.296  0.0000E+00  0.0000E+00  0.4000E+01  0.4000E+01
    -26.104  0.0000E+00  0.0000E+00  0.4000E+01  0.4000E+01
    -25.912  0.0000E+00  0.0000E+00  0.4000E+01  0.4000E+01
    -25.720  0.0000E+00  0.0000E+00  0.4000E+01  0.4000E+01
    -25.529  0.0000E+00  0.0000E+00  0.4000E+01  0.4000E+01
    -25.337  0.0000E+00  0.0000E+00  0.4000E+01  0.4000E+01
    -25.145  0.0000E+00  0.0000E+00  0.4000E+01  0.4000E+01
    -24.954  0.0000E+00  0.0000E+00  0.4000E+01  0.4000E+01
    -24.762  0.0000E+00  0.0000E+00  0.4000E+01  0.4000E+01
    -24.570  0.0000E+00  0.0000E+00  0.4000E+01  0.4000E+01
    -24.379  0.0000E+00  0.0000E+00  0.4000E+01  0.4000E+01
    -24.187  0.0000E+00  0.0000E+00  0.4000E+01  0.4000E+01
    -23.995  0.0000E+00  0.0000E+00  0.4000E+01  0.4000E+01
    -23.803  0.0000E+00  0.0000E+00  0.4000E+01  0.4000E+01
    -23.612  0.0000E+00  0.0000E+00  0.4000E+01  0.4000E+01
    -23.420  0.0000E+00  0.0000E+00  0.4000E+01  0.4000E+01
    -23.228  0.0000E+00  0.0000E+00  0.4000E+01  0.4000E+01
    -23.037  0.0000E+00  0.0000E+00  0.4000E+01  0.4000E+01
    -22.845  0.0000E+00  0.0000E+00  0.4000E+01  0.4000E+01
    -22.653  0.0000E+00  0.0000E+00  0.4000E+01  0.4000E+01
    -22.462  0.0000E+00  0.0000E+00  0.4000E+01  0.4000E+01
    -22.270  0.0000E+00  0.0000E+00  0.4000E+01  0.4000E+01
    -22.078  0.0000E+00  0.0000E+00  0.4000E+01  0.4000E+01
    -21.886  0.0000E+00  0.0000E+00  0.4000E+01  0.4000E+01
    -21.695  0.0000E+00  0.0000E+00  0.4000E+01  0.4000E+01
    -21.503  0.0000E+00  0.0000E+00  0.4000E+01  0.4000E+01
    -21.311  0.0000E+00  0.0000E+00  0.4000E+01  0.4000E+01
    -21.120  0.0000E+00  0.0000E+00  0.4000E+01  0.4000E+01
    -20.928  0.0000E+00  0.0000E+00  0.4000E+01  0.4000E+01
    -20.736  0.0000E+00  0.0000E+00  0.4000E+01  0.4000E+01
    -20.545  0.0000E+00  0.0000E+00  0.4000E+01  0.4000E+01
    -20.353  0.0000E+00  0.0000E+00  0.4000E+01  0.4000E+01
    -20.161  0.0000E+00  0.0000E+00  0.4000E+01  0.4000E+01
    -19.969  0.0000E+00  0.0000E+00  0.4000E+01  0.4000E+01
    -19.778  0.0000E+00  0.0000E+00  0.4000E+01  0.4000E+01
    -19.586  0.0000E+00  0.0000E+00  0.4000E+01  0.4000E+01
    -19.394  0.0000E+00  0.0000E+00  0.4000E+01  0.4000E+01
    -19.203  0.0000E+00  0.0000E+00  0.4000E+01  0.4000E+01
    -19.011  0.0000E+00  0.0000E+00  0.4000E+01  0.4000E+01
    -18.819  0.0000E+00  0.0000E+00  0.4000E+01  0.4000E+01
    -18.628  0.0000E+00  0.0000E+00  0.4000E+01  0.4000E+01
    -18.436  0.0000E+00  0.0000E+00  0.4000E+01  0.4000E+01
    -18.244  0.0000E+00  0.0000E+00  0.4000E+01  0.4000E+01
    -18.052  0.0000E+00  0.0000E+00  0.4000E+01  0.4000E+01
    -17.861  0.0000E+00  0.0000E+00  0.4000E+01  0.4000E+01
    -17.669  0.0000E+00  0.0000E+00  0.4000E+01  0.4000E+01
    -17.477  0.0000E+00  0.0000E+00  0.4000E+01  0.4000E+01
    -17.286  0.0000E+00  0.0000E+00  0.4000E+01  0.4000E+01
    -17.094  0.0000E+00  0.0000E+00  0.4000E+01  0.4000E+01
    -16.902  0.0000E+00  0.0000E+00  0.4000E+01  0.4000E+01
    -16.710  0.0000E+00  0.0000E+00  0.4000E+01  0.4000E+01
    -16.519  0.0000E+00  0.0000E+00  0.4000E+01  0.4000E+01
    -16.327  0.0000E+00  0.0000E+00  0.4000E+01  0.4000E+01
    -16.135  0.0000E+00  0.0000E+00  0.4000E+01  0.4000E+01
    -15.944  0.0000E+00  0.0000E+00  0.4000E+01  0.4000E+01
    -15.752  0.0000E+00  0.0000E+00  0.4000E+01  0.4000E+01
    -15.560  0.0000E+00  0.0000E+00  0.4000E+01  0.4000E+01
    -15.369  0.0000E+00  0.0000E+00  0.4000E+01  0.4000E+01
    -15.177  0.0000E+00  0.0000E+00  0.4000E+01  0.4000E+01
    -14.985  0.0000E+00  0.0000E+00  0.4000E+01  0.4000E+01
    -14.793  0.2915E-03  0.2923E-03  0.4000E+01  0.4000E+01
    -14.602  0.1692E-01  0.1697E-01  0.4003E+01  0.4003E+01
    -14.410  0.7477E+00  0.7497E+00  0.4147E+01  0.4147E+01
    -14.218  0.1462E+02  0.1464E+02  0.6949E+01  0.6953E+01
    -14.027  0.3577E+02  0.3577E+02  0.1381E+02  0.1381E+02
    -13.835  0.1097E+02  0.1095E+02  0.1593E+02  0.1593E+02
    -13.643  0.1514E+00  0.1473E+00  0.1600E+02  0.1600E+02
    -13.452  0.0000E+00  0.0000E+00  0.1600E+02  0.1600E+02
    -13.260  0.0000E+00  0.0000E+00  0.1600E+02  0.1600E+02
    -13.068  0.0000E+00  0.0000E+00  0.1600E+02  0.1600E+02
    -12.876  0.0000E+00  0.0000E+00  0.1600E+02  0.1600E+02
    -12.685  0.0000E+00  0.0000E+00  0.1600E+02  0.1600E+02
    -12.493  0.0000E+00  0.0000E+00  0.1600E+02  0.1600E+02
    -12.301  0.0000E+00  0.0000E+00  0.1600E+02  0.1600E+02
    -12.110  0.0000E+00  0.0000E+00  0.1600E+02  0.1600E+02
    -11.918  0.0000E+00  0.0000E+00  0.1600E+02  0.1600E+02
    -11.726  0.0000E+00  0.0000E+00  0.1600E+02  0.1600E+02
    -11.535  0.0000E+00  0.0000E+00  0.1600E+02  0.1600E+02
    -11.343  0.0000E+00  0.0000E+00  0.1600E+02  0.1600E+02
    -11.151  0.0000E+00  0.0000E+00  0.1600E+02  0.1600E+02
    -10.959  0.0000E+00  0.0000E+00  0.1600E+02  0.1600E+02
    -10.768  0.0000E+00  0.0000E+00  0.1600E+02  0.1600E+02
    -10.576  0.0000E+00  0.0000E+00  0.1600E+02  0.1600E+02
    -10.384  0.0000E+00  0.0000E+00  0.1600E+02  0.1600E+02
    -10.193  0.0000E+00  0.0000E+00  0.1600E+02  0.1600E+02
    -10.001  0.0000E+00  0.0000E+00  0.1600E+02  0.1600E+02
     -9.809  0.0000E+00  0.0000E+00  0.1600E+02  0.1600E+02
     -9.618  0.0000E+00  0.0000E+00  0.1600E+02  0.1600E+02
     -9.426  0.0000E+00  0.0000E+00  0.1600E+02  0.1600E+02
     -9.234  0.0000E+00  0.0000E+00  0.1600E+02  0.1600E+02
     -9.042  0.0000E+00  0.0000E+00  0.1600E+02  0.1600E+02
     -8.851  0.0000E+00  0.0000E+00  0.1600E+02  0.1600E+02
     -8.659  0.0000E+00  0.0000E+00  0.1600E+02  0.1600E+02
     -8.467  0.0000E+00  0.0000E+00  0.1600E+02  0.1600E+02
     -8.276  0.0000E+00  0.0000E+00  0.1600E+02  0.1600E+02
     -8.084  0.0000E+00  0.0000E+00  0.1600E+02  0.1600E+02
     -7.892  0.0000E+00  0.0000E+00  0.1600E+02  0.1600E+02
     -7.701  0.0000E+00  0.0000E+00  0.1600E+02  0.1600E+02
     -7.509  0.0000E+00  0.0000E+00  0.1600E+02  0.1600E+02
     -7.317  0.0000E+00  0.0000E+00  0.1600E+02  0.1600E+02
     -7.125  0.0000E+00  0.0000E+00  0.1600E+02  0.1600E+02
     -6.934  0.0000E+00  0.0000E+00  0.1600E+02  0.1600E+02
     -6.742  0.0000E+00  0.0000E+00  0.1600E+02  0.1600E+02
     -6.550  0.0000E+00  0.0000E+00  0.1600E+02  0.1600E+02
     -6.359  0.0000E+00  0.0000E+00  0.1600E+02  0.1600E+02
     -6.167  0.0000E+00  0.0000E+00  0.1600E+02  0.1600E+02
     -5.975  0.0000E+00  0.0000E+00  0.1600E+02  0.1600E+02
     -5.784  0.0000E+00  0.0000E+00  0.1600E+02  0.1600E+02
     -5.592  0.0000E+00  0.0000E+00  0.1600E+02  0.1600E+02
     -5.400  0.0000E+00  0.0000E+00  0.1600E+02  0.1600E+02
     -5.208  0.0000E+00  0.0000E+00  0.1600E+02  0.1600E+02
     -5.017  0.0000E+00  0.0000E+00  0.1600E+02  0.1600E+02
     -4.825  0.0000E+00  0.0000E+00  0.1600E+02  0.1600E+02
     -4.633  0.0000E+00  0.0000E+00  0.1600E+02  0.1600E+02
     -4.442  0.0000E+00  0.0000E+00  0.1600E+02  0.1600E+02
     -4.250  0.0000E+00  0.0000E+00  0.1600E+02  0.1600E+02
     -4.058  0.0000E+00  0.0000E+00  0.1600E+02  0.1600E+02
     -3.867  0.0000E+00  0.0000E+00  0.1600E+02  0.1600E+02
     -3.675  0.0000E+00  0.0000E+00  0.1600E+02  0.1600E+02
     -3.483  0.0000E+00  0.0000E+00  0.1600E+02  0.1600E+02
     -3.291  0.0000E+00  0.0000E+00  0.1600E+02  0.1600E+02
     -3.100  0.0000E+00  0.0000E+00  0.1600E+02  0.1600E+02
     -2.908  0.0000E+00  0.0000E+00  0.1600E+02  0.1600E+02
     -2.716  0.0000E+00  0.0000E+00  0.1600E+02  0.1600E+02
     -2.525  0.0000E+00  0.0000E+00  0.1600E+02  0.1600E+02
     -2.333  0.0000E+00  0.0000E+00  0.1600E+02  0.1600E+02
     -2.141  0.0000E+00  0.0000E+00  0.1600E+02  0.1600E+02
     -1.950  0.0000E+00  0.0000E+00  0.1600E+02  0.1600E+02
     -1.758  0.0000E+00  0.0000E+00  0.1600E+02  0.1600E+02
     -1.566  0.0000E+00  0.0000E+00  0.1600E+02  0.1600E+02
     -1.374  0.0000E+00  0.0000E+00  0.1600E+02  0.1600E+02
     -1.183  0.0000E+00  0.0000E+00  0.1600E+02  0.1600E+02
     -0.991  0.0000E+00  0.0000E+00  0.1600E+02  0.1600E+02
     -0.799  0.0000E+00  0.0000E+00  0.1600E+02  0.1600E+02
     -0.608  0.0000E+00  0.0000E+00  0.1600E+02  0.1600E+02
     -0.416  0.0000E+00  0.0000E+00  0.1600E+02  0.1600E+02
     -0.224  0.0000E+00  0.0000E+00  0.1600E+02  0.1600E+02
     -0.033  0.1525E-06  0.1521E-06  0.1600E+02  0.1600E+02
      0.159  0.1919E-04  0.1914E-04  0.1600E+02  0.1600E+02
      0.351  0.8932E-03  0.8909E-03  0.1600E+02  0.1600E+02
      0.543  0.2819E-01  0.2813E-01  0.1601E+02  0.1601E+02
      0.734  0.1771E+00  0.1770E+00  0.1604E+02  0.1604E+02
      0.926  0.3187E+00  0.3185E+00  0.1610E+02  0.1610E+02
      1.118  0.3891E+00  0.3891E+00  0.1618E+02  0.1618E+02
      1.309  0.5379E+00  0.5378E+00  0.1628E+02  0.1628E+02
      1.501  0.5776E+00  0.5775E+00  0.1639E+02  0.1639E+02
      1.693  0.6018E+00  0.6018E+00  0.1651E+02  0.1651E+02
      1.885  0.7969E+00  0.7967E+00  0.1666E+02  0.1666E+02
      2.076  0.9022E+00  0.9021E+00  0.1683E+02  0.1683E+02
      2.268  0.7130E+00  0.7130E+00  0.1697E+02  0.1697E+02
      2.460  0.1104E+01  0.1104E+01  0.1718E+02  0.1718E+02
      2.651  0.1195E+01  0.1195E+01  0.1741E+02  0.1741E+02
      2.843  0.1184E+01  0.1183E+01  0.1764E+02  0.1764E+02
      3.035  0.1314E+01  0.1314E+01  0.1789E+02  0.1789E+02
      3.226  0.1582E+01  0.1581E+01  0.1820E+02  0.1820E+02
      3.418  0.1718E+01  0.1718E+01  0.1853E+02  0.1853E+02
      3.610  0.1569E+01  0.1569E+01  0.1883E+02  0.1883E+02
      3.802  0.1821E+01  0.1822E+01  0.1918E+02  0.1918E+02
      3.993  0.1575E+01  0.1576E+01  0.1948E+02  0.1948E+02
      4.185  0.1498E+01  0.1498E+01  0.1977E+02  0.1977E+02
      4.377  0.1386E+01  0.1386E+01  0.2004E+02  0.2004E+02
      4.568  0.1050E+01  0.1051E+01  0.2024E+02  0.2024E+02
      4.760  0.1096E+01  0.1096E+01  0.2045E+02  0.2045E+02
      4.952  0.1633E+01  0.1632E+01  0.2077E+02  0.2077E+02
      5.143  0.2642E+01  0.2642E+01  0.2127E+02  0.2127E+02
      5.335  0.2115E+01  0.2115E+01  0.2168E+02  0.2168E+02
      5.527  0.2389E+01  0.2389E+01  0.2214E+02  0.2214E+02
      5.719  0.1695E+01  0.1695E+01  0.2247E+02  0.2247E+02
      5.910  0.1682E+01  0.1682E+01  0.2279E+02  0.2279E+02
      6.102  0.1855E+01  0.1855E+01  0.2315E+02  0.2315E+02
      6.294  0.1546E+01  0.1546E+01  0.2345E+02  0.2345E+02
      6.485  0.1811E+01  0.1810E+01  0.2380E+02  0.2380E+02
      6.677  0.2937E+01  0.2936E+01  0.2436E+02  0.2436E+02
      6.869  0.3446E+01  0.3446E+01  0.2502E+02  0.2502E+02
      7.060  0.2793E+01  0.2793E+01  0.2556E+02  0.2556E+02
      7.252  0.2248E+01  0.2248E+01  0.2599E+02  0.2599E+02
      7.444  0.1773E+01  0.1773E+01  0.2634E+02  0.2634E+02
      7.636  0.2632E+01  0.2631E+01  0.2684E+02  0.2684E+02
      7.827  0.3179E+01  0.3179E+01  0.2745E+02  0.2745E+02
      8.019  0.2924E+01  0.2924E+01  0.2802E+02  0.2802E+02
      8.211  0.3354E+01  0.3354E+01  0.2866E+02  0.2866E+02
      8.402  0.3647E+01  0.3647E+01  0.2936E+02  0.2936E+02
      8.594  0.3482E+01  0.3482E+01  0.3003E+02  0.3003E+02
      8.786  0.3659E+01  0.3659E+01  0.3074E+02  0.3074E+02
      8.977  0.3656E+01  0.3656E+01  0.3144E+02  0.3144E+02
      9.169  0.3996E+01  0.3995E+01  0.3221E+02  0.3221E+02
      9.361  0.3975E+01  0.3975E+01  0.3297E+02  0.3297E+02
      9.553  0.4998E+01  0.4997E+01  0.3393E+02  0.3393E+02
      9.744  0.4162E+01  0.4163E+01  0.3473E+02  0.3473E+02
      9.936  0.5230E+01  0.5230E+01  0.3574E+02  0.3574E+02
     10.128  0.5656E+01  0.5656E+01  0.3683E+02  0.3683E+02
     10.319  0.5620E+01  0.5620E+01  0.3791E+02  0.3791E+02
     10.511  0.4046E+01  0.4046E+01  0.3869E+02  0.3869E+02
     10.703  0.3180E+01  0.3180E+01  0.3931E+02  0.3931E+02
     10.894  0.3142E+01  0.3142E+01  0.3991E+02  0.3991E+02
     11.086  0.3257E+01  0.3257E+01  0.4054E+02  0.4054E+02
     11.278  0.2059E+01  0.2059E+01  0.4094E+02  0.4094E+02
     11.470  0.2094E+01  0.2094E+01  0.4134E+02  0.4134E+02
     11.661  0.1807E+01  0.1807E+01  0.4169E+02  0.4169E+02
     11.853  0.1705E+01  0.1705E+01  0.4202E+02  0.4202E+02
     12.045  0.1728E+01  0.1728E+01  0.4235E+02  0.4235E+02
     12.236  0.1766E+01  0.1766E+01  0.4269E+02  0.4269E+02
     12.428  0.2057E+01  0.2056E+01  0.4308E+02  0.4308E+02
     12.620  0.2064E+01  0.2064E+01  0.4348E+02  0.4348E+02
     12.811  0.1824E+01  0.1824E+01  0.4383E+02  0.4383E+02
     13.003  0.1799E+01  0.1799E+01  0.4418E+02  0.4418E+02
     13.195  0.2253E+01  0.2253E+01  0.4461E+02  0.4461E+02
     13.387  0.3120E+01  0.3119E+01  0.4521E+02  0.4521E+02
     13.578  0.4070E+01  0.4070E+01  0.4599E+02  0.4599E+02
     13.770  0.4051E+01  0.4051E+01  0.4677E+02  0.4677E+02
     13.962  0.3750E+01  0.3750E+01  0.4750E+02  0.4750E+02
     14.153  0.4298E+01  0.4297E+01  0.4832E+02  0.4832E+02
     14.345  0.4299E+01  0.4299E+01  0.4915E+02  0.4915E+02
     14.537  0.3608E+01  0.3615E+01  0.4984E+02  0.4985E+02
     14.728  0.3488E+01  0.3477E+01  0.5052E+02  0.5052E+02
     14.920  0.4031E+01  0.3954E+01  0.5129E+02  0.5128E+02
     15.112  0.4703E+01  0.4689E+01  0.5220E+02  0.5218E+02
     15.304  0.4625E+01  0.4689E+01  0.5309E+02  0.5308E+02
     15.495  0.4126E+01  0.4200E+01  0.5388E+02  0.5389E+02
     15.687  0.3960E+01  0.3928E+01  0.5464E+02  0.5465E+02
     15.879  0.2770E+01  0.2678E+01  0.5518E+02  0.5516E+02
     16.070  0.2356E+01  0.2359E+01  0.5563E+02  0.5562E+02
     16.262  0.1278E+01  0.1481E+01  0.5588E+02  0.5590E+02
     16.454  0.5246E+00  0.4108E+00  0.5598E+02  0.5598E+02
     16.645  0.8683E-01  0.8319E-01  0.5600E+02  0.5600E+02
     16.837  0.2858E-02  0.3223E-02  0.5600E+02  0.5600E+02
     17.029  0.0000E+00  0.0000E+00  0.5600E+02  0.5600E+02
     17.221  0.0000E+00  0.0000E+00  0.5600E+02  0.5600E+02
     17.412  0.0000E+00  0.0000E+00  0.5600E+02  0.5600E+02
     17.604  0.0000E+00  0.0000E+00  0.5600E+02  0.5600E+02
     17.796  0.0000E+00  0.0000E+00  0.5600E+02  0.5600E+02
     17.987  0.0000E+00  0.0000E+00  0.5600E+02  0.5600E+02
     18.179  0.0000E+00  0.0000E+00  0.5600E+02  0.5600E+02
     18.371  0.0000E+00  0.0000E+00  0.5600E+02  0.5600E+02
     18.562  0.0000E+00  0.0000E+00  0.5600E+02  0.5600E+02
     18.754  0.0000E+00  0.0000E+00  0.5600E+02  0.5600E+02
     18.946  0.0000E+00  0.0000E+00  0.5600E+02  0.5600E+02
     19.138  0.0000E+00  0.0000E+00  0.5600E+02  0.5600E+02
     19.13759996    -38.37271530  301     11.84582750      1.00000000
    -38.373  0.0000E+00  0.0000E+00  0.0000E+00  0.0000E+00  0.0000E+00  0.0000E+00  0.0000E+00  0.0000E+00  0.0000E+00  0.0000E+00  0.0000E+00  0.0000E+00  0.0000E+00  0.0000E+00  0.0000E+00  0.0000E+00  0.0000E+00  0.0000E+00
    -38.181  0.0000E+00  0.0000E+00  0.0000E+00  0.0000E+00  0.0000E+00  0.0000E+00  0.0000E+00  0.0000E+00  0.0000E+00  0.0000E+00  0.0000E+00  0.0000E+00  0.0000E+00  0.0000E+00  0.0000E+00  0.0000E+00  0.0000E+00  0.0000E+00
    -37.989  0.0000E+00  0.0000E+00  0.0000E+00  0.0000E+00  0.0000E+00  0.0000E+00  0.0000E+00  0.0000E+00  0.0000E+00  0.0000E+00  0.0000E+00  0.0000E+00  0.0000E+00  0.0000E+00  0.0000E+00  0.0000E+00  0.0000E+00  0.0000E+00
    -37.798  0.0000E+00  0.0000E+00  0.0000E+00  0.0000E+00  0.0000E+00  0.0000E+00  0.0000E+00  0.0000E+00  0.0000E+00  0.0000E+00  0.0000E+00  0.0000E+00  0.0000E+00  0.0000E+00  0.0000E+00  0.0000E+00  0.0000E+00  0.0000E+00
    -37.606  0.0000E+00  0.0000E+00  0.0000E+00  0.0000E+00  0.0000E+00  0.0000E+00  0.0000E+00  0.0000E+00  0.0000E+00  0.0000E+00  0.0000E+00  0.0000E+00  0.0000E+00  0.0000E+00  0.0000E+00  0.0000E+00  0.0000E+00  0.0000E+00
    -37.414  0.0000E+00  0.0000E+00  0.0000E+00  0.0000E+00  0.0000E+00  0.0000E+00  0.0000E+00  0.0000E+00  0.0000E+00  0.0000E+00  0.0000E+00  0.0000E+00  0.0000E+00  0.0000E+00  0.0000E+00  0.0000E+00  0.0000E+00  0.0000E+00
    -37.223  0.0000E+00  0.0000E+00  0.0000E+00  0.0000E+00  0.0000E+00  0.0000E+00  0.0000E+00  0.0000E+00  0.0000E+00  0.0000E+00  0.0000E+00  0.0000E+00  0.0000E+00  0.0000E+00  0.0000E+00  0.0000E+00  0.0000E+00  0.0000E+00
    -37.031  0.0000E+00  0.0000E+00  0.0000E+00  0.0000E+00  0.0000E+00  0.0000E+00  0.0000E+00  0.0000E+00  0.0000E+00  0.0000E+00  0.0000E+00  0.0000E+00  0.0000E+00  0.0000E+00  0.0000E+00  0.0000E+00  0.0000E+00  0.0000E+00
    -36.839  0.0000E+00  0.0000E+00  0.0000E+00  0.0000E+00  0.0000E+00  0.0000E+00  0.0000E+00  0.0000E+00  0.0000E+00  0.0000E+00  0.0000E+00  0.0000E+00  0.0000E+00  0.0000E+00  0.0000E+00  0.0000E+00  0.0000E+00  0.0000E+00
    -36.647  0.0000E+00  0.0000E+00  0.0000E+00  0.0000E+00  0.0000E+00  0.0000E+00  0.0000E+00  0.0000E+00  0.0000E+00  0.0000E+00  0.0000E+00  0.0000E+00  0.0000E+00  0.0000E+00  0.0000E+00  0.0000E+00  0.0000E+00  0.0000E+00
    -36.456  0.0000E+00  0.0000E+00  0.0000E+00  0.0000E+00  0.0000E+00  0.0000E+00  0.0000E+00  0.0000E+00  0.0000E+00  0.0000E+00  0.0000E+00  0.0000E+00  0.0000E+00  0.0000E+00  0.0000E+00  0.0000E+00  0.0000E+00  0.0000E+00
    -36.264  0.1538E-03  0.1545E-03  0.2829E-10  0.2826E-10  0.2060E-08  0.2070E-08  0.2829E-10  0.2826E-10  0.3389E-13  0.3008E-13  0.2462E-13  0.2380E-13  0.7936E-10  0.7949E-10  0.2462E-13  0.2380E-13  0.3131E-10  0.3135E-10
    -36.072  0.6948E-02  0.6980E-02  0.1278E-08  0.1277E-08  0.9309E-07  0.9353E-07  0.1278E-08  0.1277E-08  0.1531E-11  0.1359E-11  0.1112E-11  0.1075E-11  0.3585E-08  0.3592E-08  0.1112E-11  0.1075E-11  0.1415E-08  0.1417E-08
    -35.881  0.3018E+00  0.3031E+00  0.5553E-07  0.5544E-07  0.4042E-05  0.4060E-05  0.5553E-07  0.5544E-07  0.6655E-10  0.5905E-10  0.4826E-10  0.4664E-10  0.1553E-06  0.1555E-06  0.4826E-10  0.4664E-10  0.6153E-07  0.6159E-07
    -35.689  0.3538E+01  0.3541E+01  0.6487E-06  0.6458E-06  0.4715E-04  0.4720E-04  0.6487E-06  0.6458E-06  0.7805E-09  0.6919E-09  0.5550E-09  0.5352E-09  0.1748E-05  0.1745E-05  0.5550E-09  0.5352E-09  0.7270E-06  0.7255E-06
    -35.497  0.1288E+01  0.1284E+01  0.2343E-06  0.2323E-06  0.1706E-04  0.1701E-04  0.2343E-06  0.2323E-06  0.2823E-09  0.2499E-09  0.1962E-09  0.1886E-09  0.6041E-06  0.6005E-06  0.1962E-09  0.1886E-09  0.2644E-06  0.2628E-06
    -35.305  0.0000E+00  0.0000E+00  0.0000E+00  0.0000E+00  0.0000E+00  0.0000E+00  0.0000E+00  0.0000E+00  0.0000E+00  0.0000E+00  0.0000E+00  0.0000E+00  0.0000E+00  0.0000E+00  0.0000E+00  0.0000E+00  0.0000E+00  0.0000E+00
    -35.114  0.0000E+00  0.0000E+00  0.0000E+00  0.0000E+00  0.0000E+00  0.0000E+00  0.0000E+00  0.0000E+00  0.0000E+00  0.0000E+00  0.0000E+00  0.0000E+00  0.0000E+00  0.0000E+00  0.0000E+00  0.0000E+00  0.0000E+00  0.0000E+00
    -34.922  0.0000E+00  0.0000E+00  0.0000E+00  0.0000E+00  0.0000E+00  0.0000E+00  0.0000E+00  0.0000E+00  0.0000E+00  0.0000E+00  0.0000E+00  0.0000E+00  0.0000E+00  0.0000E+00  0.0000E+00  0.0000E+00  0.0000E+00  0.0000E+00
    -34.730  0.0000E+00  0.0000E+00  0.0000E+00  0.0000E+00  0.0000E+00  0.0000E+00  0.0000E+00  0.0000E+00  0.0000E+00  0.0000E+00  0.0000E+00  0.0000E+00  0.0000E+00  0.0000E+00  0.0000E+00  0.0000E+00  0.0000E+00  0.0000E+00
    -34.539  0.0000E+00  0.0000E+00  0.0000E+00  0.0000E+00  0.0000E+00  0.0000E+00  0.0000E+00  0.0000E+00  0.0000E+00  0.0000E+00  0.0000E+00  0.0000E+00  0.0000E+00  0.0000E+00  0.0000E+00  0.0000E+00  0.0000E+00  0.0000E+00
    -34.347  0.0000E+00  0.0000E+00  0.0000E+00  0.0000E+00  0.0000E+00  0.0000E+00  0.0000E+00  0.0000E+00  0.0000E+00  0.0000E+00  0.0000E+00  0.0000E+00  0.0000E+00  0.0000E+00  0.0000E+00  0.0000E+00  0.0000E+00  0.0000E+00
    -34.155  0.0000E+00  0.0000E+00  0.0000E+00  0.0000E+00  0.0000E+00  0.0000E+00  0.0000E+00  0.0000E+00  0.0000E+00  0.0000E+00  0.0000E+00  0.0000E+00  0.0000E+00  0.0000E+00  0.0000E+00  0.0000E+00  0.0000E+00  0.0000E+00
    -33.964  0.0000E+00  0.0000E+00  0.0000E+00  0.0000E+00  0.0000E+00  0.0000E+00  0.0000E+00  0.0000E+00  0.0000E+00  0.0000E+00  0.0000E+00  0.0000E+00  0.0000E+00  0.0000E+00  0.0000E+00  0.0000E+00  0.0000E+00  0.0000E+00
    -33.772  0.0000E+00  0.0000E+00  0.0000E+00  0.0000E+00  0.0000E+00  0.0000E+00  0.0000E+00  0.0000E+00  0.0000E+00  0.0000E+00  0.0000E+00  0.0000E+00  0.0000E+00  0.0000E+00  0.0000E+00  0.0000E+00  0.0000E+00  0.0000E+00
    -33.580  0.0000E+00  0.0000E+00  0.0000E+00  0.0000E+00  0.0000E+00  0.0000E+00  0.0000E+00  0.0000E+00  0.0000E+00  0.0000E+00  0.0000E+00  0.0000E+00  0.0000E+00  0.0000E+00  0.0000E+00  0.0000E+00  0.0000E+00  0.0000E+00
    -33.388  0.0000E+00  0.0000E+00  0.0000E+00  0.0000E+00  0.0000E+00  0.0000E+00  0.0000E+00  0.0000E+00  0.0000E+00  0.0000E+00  0.0000E+00  0.0000E+00  0.0000E+00  0.0000E+00  0.0000E+00  0.0000E+00  0.0000E+00  0.0000E+00
    -33.197  0.0000E+00  0.0000E+00  0.0000E+00  0.0000E+00  0.0000E+00  0.0000E+00  0.0000E+00  0.0000E+00  0.0000E+00  0.0000E+00  0.0000E+00  0.0000E+00  0.0000E+00  0.0000E+00  0.0000E+00  0.0000E+00  0.0000E+00  0.0000E+00
    -33.005  0.0000E+00  0.0000E+00  0.0000E+00  0.0000E+00  0.0000E+00  0.0000E+00  0.0000E+00  0.0000E+00  0.0000E+00  0.0000E+00  0.0000E+00  0.0000E+00  0.0000E+00  0.0000E+00  0.0000E+00  0.0000E+00  0.0000E+00  0.0000E+00
    -32.813  0.0000E+00  0.0000E+00  0.0000E+00  0.0000E+00  0.0000E+00  0.0000E+00  0.0000E+00  0.0000E+00  0.0000E+00  0.0000E+00  0.0000E+00  0.0000E+00  0.0000E+00  0.0000E+00  0.0000E+00  0.0000E+00  0.0000E+00  0.0000E+00
    -32.622  0.0000E+00  0.0000E+00  0.0000E+00  0.0000E+00  0.0000E+00  0.0000E+00  0.0000E+00  0.0000E+00  0.0000E+00  0.0000E+00  0.0000E+00  0.0000E+00  0.0000E+00  0.0000E+00  0.0000E+00  0.0000E+00  0.0000E+00  0.0000E+00
    -32.430  0.0000E+00  0.0000E+00  0.0000E+00  0.0000E+00  0.0000E+00  0.0000E+00  0.0000E+00  0.0000E+00  0.0000E+00  0.0000E+00  0.0000E+00  0.0000E+00  0.0000E+00  0.0000E+00  0.0000E+00  0.0000E+00  0.0000E+00  0.0000E+00
    -32.238  0.0000E+00  0.0000E+00  0.0000E+00  0.0000E+00  0.0000E+00  0.0000E+00  0.0000E+00  0.0000E+00  0.0000E+00  0.0000E+00  0.0000E+00  0.0000E+00  0.0000E+00  0.0000E+00  0.0000E+00  0.0000E+00  0.0000E+00  0.0000E+00
    -32.047  0.0000E+00  0.0000E+00  0.0000E+00  0.0000E+00  0.0000E+00  0.0000E+00  0.0000E+00  0.0000E+00  0.0000E+00  0.0000E+00  0.0000E+00  0.0000E+00  0.0000E+00  0.0000E+00  0.0000E+00  0.0000E+00  0.0000E+00  0.0000E+00
    -31.855  0.0000E+00  0.0000E+00  0.0000E+00  0.0000E+00  0.0000E+00  0.0000E+00  0.0000E+00  0.0000E+00  0.0000E+00  0.0000E+00  0.0000E+00  0.0000E+00  0.0000E+00  0.0000E+00  0.0000E+00  0.0000E+00  0.0000E+00  0.0000E+00
    -31.663  0.0000E+00  0.0000E+00  0.0000E+00  0.0000E+00  0.0000E+00  0.0000E+00  0.0000E+00  0.0000E+00  0.0000E+00  0.0000E+00  0.0000E+00  0.0000E+00  0.0000E+00  0.0000E+00  0.0000E+00  0.0000E+00  0.0000E+00  0.0000E+00
    -31.471  0.0000E+00  0.0000E+00  0.0000E+00  0.0000E+00  0.0000E+00  0.0000E+00  0.0000E+00  0.0000E+00  0.0000E+00  0.0000E+00  0.0000E+00  0.0000E+00  0.0000E+00  0.0000E+00  0.0000E+00  0.0000E+00  0.0000E+00  0.0000E+00
    -31.280  0.0000E+00  0.0000E+00  0.0000E+00  0.0000E+00  0.0000E+00  0.0000E+00  0.0000E+00  0.0000E+00  0.0000E+00  0.0000E+00  0.0000E+00  0.0000E+00  0.0000E+00  0.0000E+00  0.0000E+00  0.0000E+00  0.0000E+00  0.0000E+00
    -31.088  0.0000E+00  0.0000E+00  0.0000E+00  0.0000E+00  0.0000E+00  0.0000E+00  0.0000E+00  0.0000E+00  0.0000E+00  0.0000E+00  0.0000E+00  0.0000E+00  0.0000E+00  0.0000E+00  0.0000E+00  0.0000E+00  0.0000E+00  0.0000E+00
    -30.896  0.0000E+00  0.0000E+00  0.0000E+00  0.0000E+00  0.0000E+00  0.0000E+00  0.0000E+00  0.0000E+00  0.0000E+00  0.0000E+00  0.0000E+00  0.0000E+00  0.0000E+00  0.0000E+00  0.0000E+00  0.0000E+00  0.0000E+00  0.0000E+00
    -30.705  0.0000E+00  0.0000E+00  0.0000E+00  0.0000E+00  0.0000E+00  0.0000E+00  0.0000E+00  0.0000E+00  0.0000E+00  0.0000E+00  0.0000E+00  0.0000E+00  0.0000E+00  0.0000E+00  0.0000E+00  0.0000E+00  0.0000E+00  0.0000E+00
    -30.513  0.0000E+00  0.0000E+00  0.0000E+00  0.0000E+00  0.0000E+00  0.0000E+00  0.0000E+00  0.0000E+00  0.0000E+00  0.0000E+00  0.0000E+00  0.0000E+00  0.0000E+00  0.0000E+00  0.0000E+00  0.0000E+00  0.0000E+00  0.0000E+00
    -30.321  0.0000E+00  0.0000E+00  0.0000E+00  0.0000E+00  0.0000E+00  0.0000E+00  0.0000E+00  0.0000E+00  0.0000E+00  0.0000E+00  0.0000E+00  0.0000E+00  0.0000E+00  0.0000E+00  0.0000E+00  0.0000E+00  0.0000E+00  0.0000E+00
    -30.130  0.0000E+00  0.0000E+00  0.0000E+00  0.0000E+00  0.0000E+00  0.0000E+00  0.0000E+00  0.0000E+00  0.0000E+00  0.0000E+00  0.0000E+00  0.0000E+00  0.0000E+00  0.0000E+00  0.0000E+00  0.0000E+00  0.0000E+00  0.0000E+00
    -29.938  0.0000E+00  0.0000E+00  0.0000E+00  0.0000E+00  0.0000E+00  0.0000E+00  0.0000E+00  0.0000E+00  0.0000E+00  0.0000E+00  0.0000E+00  0.0000E+00  0.0000E+00  0.0000E+00  0.0000E+00  0.0000E+00  0.0000E+00  0.0000E+00
    -29.746  0.0000E+00  0.0000E+00  0.0000E+00  0.0000E+00  0.0000E+00  0.0000E+00  0.0000E+00  0.0000E+00  0.0000E+00  0.0000E+00  0.0000E+00  0.0000E+00  0.0000E+00  0.0000E+00  0.0000E+00  0.0000E+00  0.0000E+00  0.0000E+00
    -29.554  0.0000E+00  0.0000E+00  0.0000E+00  0.0000E+00  0.0000E+00  0.0000E+00  0.0000E+00  0.0000E+00  0.0000E+00  0.0000E+00  0.0000E+00  0.0000E+00  0.0000E+00  0.0000E+00  0.0000E+00  0.0000E+00  0.0000E+00  0.0000E+00
    -29.363  0.0000E+00  0.0000E+00  0.0000E+00  0.0000E+00  0.0000E+00  0.0000E+00  0.0000E+00  0.0000E+00  0.0000E+00  0.0000E+00  0.0000E+00  0.0000E+00  0.0000E+00  0.0000E+00  0.0000E+00  0.0000E+00  0.0000E+00  0.0000E+00
    -29.171  0.0000E+00  0.0000E+00  0.0000E+00  0.0000E+00  0.0000E+00  0.0000E+00  0.0000E+00  0.0000E+00  0.0000E+00  0.0000E+00  0.0000E+00  0.0000E+00  0.0000E+00  0.0000E+00  0.0000E+00  0.0000E+00  0.0000E+00  0.0000E+00
    -28.979  0.0000E+00  0.0000E+00  0.0000E+00  0.0000E+00  0.0000E+00  0.0000E+00  0.0000E+00  0.0000E+00  0.0000E+00  0.0000E+00  0.0000E+00  0.0000E+00  0.0000E+00  0.0000E+00  0.0000E+00  0.0000E+00  0.0000E+00  0.0000E+00
    -28.788  0.0000E+00  0.0000E+00  0.0000E+00  0.0000E+00  0.0000E+00  0.0000E+00  0.0000E+00  0.0000E+00  0.0000E+00  0.0000E+00  0.0000E+00  0.0000E+00  0.0000E+00  0.0000E+00  0.0000E+00  0.0000E+00  0.0000E+00  0.0000E+00