  16  16   1   0
  0.1594645E+02  0.3897370E-09  0.3897370E-09  0.1679735E-08  0.5000000E-15
  1.000000000000000E-004
  CAR 
 unknown system                          
     15.90366255    -41.25013084  301      9.59332836      1.00000000
    -41.250  0.0000E+00  0.0000E+00  0.0000E+00  0.0000E+00
    -41.060  0.0000E+00  0.0000E+00  0.0000E+00  0.0000E+00
    -40.869  0.0000E+00  0.0000E+00  0.0000E+00  0.0000E+00
    -40.679  0.0000E+00  0.0000E+00  0.0000E+00  0.0000E+00
    -40.488  0.0000E+00  0.0000E+00  0.0000E+00  0.0000E+00
    -40.298  0.0000E+00  0.0000E+00  0.0000E+00  0.0000E+00
    -40.107  0.0000E+00  0.0000E+00  0.0000E+00  0.0000E+00
    -39.917  0.0000E+00  0.0000E+00  0.0000E+00  0.0000E+00
    -39.726  0.0000E+00  0.0000E+00  0.0000E+00  0.0000E+00
    -39.536  0.0000E+00  0.0000E+00  0.0000E+00  0.0000E+00
    -39.345  0.0000E+00  0.0000E+00  0.0000E+00  0.0000E+00
    -39.154  0.8084E-03  0.8121E-03  0.1540E-03  0.1547E-03
    -38.964  0.3564E-01  0.3580E-01  0.6944E-02  0.6976E-02
    -38.773  0.1492E+01  0.1498E+01  0.2912E+00  0.2925E+00
    -38.583  0.1484E+02  0.1485E+02  0.3119E+01  0.3122E+01
    -38.392  0.4494E+01  0.4478E+01  0.3975E+01  0.3975E+01
    -38.202  0.0000E+00  0.0000E+00  0.4000E+01  0.4000E+01
    -38.011  0.0000E+00  0.0000E+00  0.4000E+01  0.4000E+01
    -37.821  0.0000E+00  0.0000E+00  0.4000E+01  0.4000E+01
    -37.630  0.0000E+00  0.0000E+00  0.4000E+01  0.4000E+01
    -37.440  0.0000E+00  0.0000E+00  0.4000E+01  0.4000E+01
    -37.249  0.0000E+00  0.0000E+00  0.4000E+01  0.4000E+01
    -37.059  0.0000E+00  0.0000E+00  0.4000E+01  0.4000E+01
    -36.868  0.0000E+00  0.0000E+00  0.4000E+01  0.4000E+01
    -36.678  0.0000E+00  0.0000E+00  0.4000E+01  0.4000E+01
    -36.487  0.0000E+00  0.0000E+00  0.4000E+01  0.4000E+01
    -36.297  0.0000E+00  0.0000E+00  0.4000E+01  0.4000E+01
    -36.106  0.0000E+00  0.0000E+00  0.4000E+01  0.4000E+01
    -35.916  0.0000E+00  0.0000E+00  0.4000E+01  0.4000E+01
    -35.725  0.0000E+00  0.0000E+00  0.4000E+01  0.4000E+01
    -35.535  0.0000E+00  0.0000E+00  0.4000E+01  0.4000E+01
    -35.344  0.0000E+00  0.0000E+00  0.4000E+01  0.4000E+01
    -35.154  0.0000E+00  0.0000E+00  0.4000E+01  0.4000E+01
    -34.963  0.0000E+00  0.0000E+00  0.4000E+01  0.4000E+01
    -34.773  0.0000E+00  0.0000E+00  0.4000E+01  0.4000E+01
    -34.582  0.0000E+00  0.0000E+00  0.4000E+01  0.4000E+01
    -34.392  0.0000E+00  0.0000E+00  0.4000E+01  0.4000E+01
    -34.201  0.0000E+00  0.0000E+00  0.4000E+01  0.4000E+01
    -34.011  0.0000E+00  0.0000E+00  0.4000E+01  0.4000E+01
    -33.820  0.0000E+00  0.0000E+00  0.4000E+01  0.4000E+01
    -33.630  0.0000E+00  0.0000E+00  0.4000E+01  0.4000E+01
    -33.439  0.0000E+00  0.0000E+00  0.4000E+01  0.4000E+01
    -33.249  0.0000E+00  0.0000E+00  0.4000E+01  0.4000E+01
    -33.058  0.0000E+00  0.0000E+00  0.4000E+01  0.4000E+01
    -32.868  0.0000E+00  0.0000E+00  0.4000E+01  0.4000E+01
    -32.677  0.0000E+00  0.0000E+00  0.4000E+01  0.4000E+01
    -32.487  0.0000E+00  0.0000E+00  0.4000E+01  0.4000E+01
    -32.296  0.0000E+00  0.0000E+00  0.4000E+01  0.4000E+01
    -32.106  0.0000E+00  0.0000E+00  0.4000E+01  0.4000E+01
    -31.915  0.0000E+00  0.0000E+00  0.4000E+01  0.4000E+01
    -31.724  0.0000E+00  0.0000E+00  0.4000E+01  0.4000E+01
    -31.534  0.0000E+00  0.0000E+00  0.4000E+01  0.4000E+01
    -31.343  0.0000E+00  0.0000E+00  0.4000E+01  0.4000E+01
    -31.153  0.0000E+00  0.0000E+00  0.4000E+01  0.4000E+01
    -30.962  0.0000E+00  0.0000E+00  0.4000E+01  0.4000E+01
    -30.772  0.0000E+00  0.0000E+00  0.4000E+01  0.4000E+01
    -30.581  0.0000E+00  0.0000E+00  0.4000E+01  0.4000E+01
    -30.391  0.0000E+00  0.0000E+00  0.4000E+01  0.4000E+01
    -30.200  0.0000E+00  0.0000E+00  0.4000E+01  0.4000E+01
    -30.010  0.0000E+00  0.0000E+00  0.4000E+01  0.4000E+01
    -29.819  0.0000E+00  0.0000E+00  0.4000E+01  0.4000E+01
    -29.629  0.0000E+00  0.0000E+00  0.4000E+01  0.4000E+01
    -29.438  0.0000E+00  0.0000E+00  0.4000E+01  0.4000E+01
    -29.248  0.0000E+00  0.0000E+00  0.4000E+01  0.4000E+01
    -29.057  0.0000E+00  0.0000E+00  0.4000E+01  0.4000E+01
    -28.867  0.0000E+00  0.0000E+00  0.4000E+01  0.4000E+01
    -28.676  0.0000E+00  0.0000E+00  0.4000E+01  0.4000E+01
    -28.486  0.0000E+00  0.0000E+00  0.4000E+01  0.4000E+01
    -28.295  0.0000E+00  0.0000E+00  0.4000E+01  0.4000E+01
    -28.105  0.0000E+00  0.0000E+00  0.4000E+01  0.4000E+01
    -27.914  0.0000E+00  0.0000E+00  0.4000E+01  0.4000E+01
    -27.724  0.0000E+00  0.0000E+00  0.4000E+01  0.4000E+01
    -27.533  0.0000E+00  0.0000E+00  0.4000E+01  0.4000E+01
    -27.343  0.0000E+00  0.0000E+00  0.4000E+01  0.4000E+01
    -27.152  0.0000E+00  0.0000E+00  0.4000E+01  0.4000E+01
    -26.962  0.0000E+00  0.0000E+00  0.4000E+01  0.4000E+01
    -26.771  0.0000E+00  0.0000E+00  0.4000E+01  0.4000E+01
    -26.581  0.0000E+00  0.0000E+00  0.4000E+01  0.4000E+01
    -26.390  0.0000E+00  0.0000E+00  0.4000E+01  0.4000E+01
    -26.200  0.0000E+00  0.0000E+00  0.4000E+01  0.4000E+01
    -26.009  0.0000E+00  0.0000E+00  0.4000E+01  0.4000E+01
    -25.819  0.0000E+00  0.0000E+00  0.4000E+01  0.4000E+01
    -25.628  0.0000E+00  0.0000E+00  0.4000E+01  0.4000E+01
    -25.438  0.0000E+00  0.0000E+00  0.4000E+01  0.4000E+01
    -25.247  0.0000E+00  0.0000E+00  0.4000E+01  0.4000E+01
    -25.057  0.0000E+00  0.0000E+00  0.4000E+01  0.4000E+01
    -24.866  0.0000E+00  0.0000E+00  0.4000E+01  0.4000E+01
    -24.676  0.0000E+00  0.0000E+00  0.4000E+01  0.4000E+01
    -24.485  0.0000E+00  0.0000E+00  0.4000E+01  0.4000E+01
    -24.295  0.0000E+00  0.0000E+00  0.4000E+01  0.4000E+01
    -24.104  0.0000E+00  0.0000E+00  0.4000E+01  0.4000E+01
    -23.913  0.0000E+00  0.0000E+00  0.4000E+01  0.4000E+01
    -23.723  0.0000E+00  0.0000E+00  0.4000E+01  0.4000E+01
    -23.532  0.0000E+00  0.0000E+00  0.4000E+01  0.4000E+01
    -23.342  0.0000E+00  0.0000E+00  0.4000E+01  0.4000E+01
    -23.151  0.0000E+00  0.0000E+00  0.4000E+01  0.4000E+01
    -22.961  0.0000E+00  0.0000E+00  0.4000E+01  0.4000E+01
    -22.770  0.0000E+00  0.0000E+00  0.4000E+01  0.4000E+01
    -22.580  0.0000E+00  0.0000E+00  0.4000E+01  0.4000E+01
    -22.389  0.0000E+00  0.0000E+00  0.4000E+01  0.4000E+01
    -22.199  0.0000E+00  0.0000E+00  0.4000E+01  0.4000E+01
    -22.008  0.0000E+00  0.0000E+00  0.4000E+01  0.4000E+01
    -21.818  0.0000E+00  0.0000E+00  0.4000E+01  0.4000E+01
    -21.627  0.0000E+00  0.0000E+00  0.4000E+01  0.4000E+01
    -21.437  0.0000E+00  0.0000E+00  0.4000E+01  0.4000E+01
    -21.246  0.0000E+00  0.0000E+00  0.4000E+01  0.4000E+01
    -21.056  0.0000E+00  0.0000E+00  0.4000E+01  0.4000E+01
    -20.865  0.0000E+00  0.0000E+00  0.4000E+01  0.4000E+01
    -20.675  0.0000E+00  0.0000E+00  0.4000E+01  0.4000E+01
    -20.484  0.0000E+00  0.0000E+00  0.4000E+01  0.4000E+01
    -20.294  0.0000E+00  0.0000E+00  0.4000E+01  0.4000E+01
    -20.103  0.0000E+00  0.0000E+00  0.4000E+01  0.4000E+01
    -19.913  0.0000E+00  0.0000E+00  0.4000E+01  0.4000E+01
    -19.722  0.0000E+00  0.0000E+00  0.4000E+01  0.4000E+01
    -19.532  0.0000E+00  0.0000E+00  0.4000E+01  0.4000E+01
    -19.341  0.0000E+00  0.0000E+00  0.4000E+01  0.4000E+01
    -19.151  0.0000E+00  0.0000E+00  0.4000E+01  0.4000E+01
    -18.960  0.0000E+00  0.0000E+00  0.4000E+01  0.4000E+01
    -18.770  0.0000E+00  0.0000E+00  0.4000E+01  0.4000E+01
    -18.579  0.0000E+00  0.0000E+00  0.4000E+01  0.4000E+01
    -18.389  0.0000E+00  0.0000E+00  0.4000E+01  0.4000E+01
    -18.198  0.0000E+00  0.0000E+00  0.4000E+01  0.4000E+01
    -18.008  0.0000E+00  0.0000E+00  0.4000E+01  0.4000E+01
    -17.817  0.0000E+00  0.0000E+00  0.4000E+01  0.4000E+01
    -17.627  0.0000E+00  0.0000E+00  0.4000E+01  0.4000E+01
    -17.436  0.5338E-03  0.5352E-03  0.4000E+01  0.4000E+01
    -17.246  0.2960E-01  0.2968E-01  0.4006E+01  0.4006E+01
    -17.055  0.1285E+01  0.1288E+01  0.4251E+01  0.4251E+01
    -16.865  0.2553E+02  0.2556E+02  0.9114E+01  0.9121E+01
    -16.674  0.3377E+02  0.3374E+02  0.1555E+02  0.1555E+02
    -16.483  0.2175E+01  0.2169E+01  0.1599E+02  0.1599E+02
    -16.293  0.0000E+00  0.0000E+00  0.1600E+02  0.1600E+02
    -16.102  0.0000E+00  0.0000E+00  0.1600E+02  0.1600E+02
    -15.912  0.0000E+00  0.0000E+00  0.1600E+02  0.1600E+02
    -15.721  0.0000E+00  0.0000E+00  0.1600E+02  0.1600E+02
    -15.531  0.0000E+00  0.0000E+00  0.1600E+02  0.1600E+02
    -15.340  0.0000E+00  0.0000E+00  0.1600E+02  0.1600E+02
    -15.150  0.0000E+00  0.0000E+00  0.1600E+02  0.1600E+02
    -14.959  0.0000E+00  0.0000E+00  0.1600E+02  0.1600E+02
    -14.769  0.0000E+00  0.0000E+00  0.1600E+02  0.1600E+02
    -14.578  0.0000E+00  0.0000E+00  0.1600E+02  0.1600E+02
    -14.388  0.0000E+00  0.0000E+00  0.1600E+02  0.1600E+02
    -14.197  0.0000E+00  0.0000E+00  0.1600E+02  0.1600E+02
    -14.007  0.0000E+00  0.0000E+00  0.1600E+02  0.1600E+02
    -13.816  0.0000E+00  0.0000E+00  0.1600E+02  0.1600E+02
    -13.626  0.0000E+00  0.0000E+00  0.1600E+02  0.1600E+02
    -13.435  0.0000E+00  0.0000E+00  0.1600E+02  0.1600E+02
    -13.245  0.0000E+00  0.0000E+00  0.1600E+02  0.1600E+02
    -13.054  0.0000E+00  0.0000E+00  0.1600E+02  0.1600E+02
    -12.864  0.0000E+00  0.0000E+00  0.1600E+02  0.1600E+02
    -12.673  0.0000E+00  0.0000E+00  0.1600E+02  0.1600E+02
    -12.483  0.0000E+00  0.0000E+00  0.1600E+02  0.1600E+02
    -12.292  0.0000E+00  0.0000E+00  0.1600E+02  0.1600E+02
    -12.102  0.0000E+00  0.0000E+00  0.1600E+02  0.1600E+02
    -11.911  0.0000E+00  0.0000E+00  0.1600E+02  0.1600E+02
    -11.721  0.0000E+00  0.0000E+00  0.1600E+02  0.1600E+02
    -11.530  0.0000E+00  0.0000E+00  0.1600E+02  0.1600E+02
    -11.340  0.0000E+00  0.0000E+00  0.1600E+02  0.1600E+02
    -11.149  0.0000E+00  0.0000E+00  0.1600E+02  0.1600E+02
    -10.959  0.0000E+00  0.0000E+00  0.1600E+02  0.1600E+02
    -10.768  0.0000E+00  0.0000E+00  0.1600E+02  0.1600E+02
    -10.578  0.0000E+00  0.0000E+00  0.1600E+02  0.1600E+02
    -10.387  0.0000E+00  0.0000E+00  0.1600E+02  0.1600E+02
    -10.197  0.0000E+00  0.0000E+00  0.1600E+02  0.1600E+02
    -10.006  0.0000E+00  0.0000E+00  0.1600E+02  0.1600E+02
     -9.816  0.0000E+00  0.0000E+00  0.1600E+02  0.1600E+02
     -9.625  0.0000E+00  0.0000E+00  0.1600E+02  0.1600E+02
     -9.435  0.0000E+00  0.0000E+00  0.1600E+02  0.1600E+02
     -9.244  0.0000E+00  0.0000E+00  0.1600E+02  0.1600E+02
     -9.053  0.0000E+00  0.0000E+00  0.1600E+02  0.1600E+02
     -8.863  0.0000E+00  0.0000E+00  0.1600E+02  0.1600E+02
     -8.672  0.0000E+00  0.0000E+00  0.1600E+02  0.1600E+02
     -8.482  0.0000E+00  0.0000E+00  0.1600E+02  0.1600E+02
     -8.291  0.0000E+00  0.0000E+00  0.1600E+02  0.1600E+02
     -8.101  0.0000E+00  0.0000E+00  0.1600E+02  0.1600E+02
     -7.910  0.0000E+00  0.0000E+00  0.1600E+02  0.1600E+02
     -7.720  0.0000E+00  0.0000E+00  0.1600E+02  0.1600E+02
     -7.529  0.0000E+00  0.0000E+00  0.1600E+02  0.1600E+02
     -7.339  0.0000E+00  0.0000E+00  0.1600E+02  0.1600E+02
     -7.148  0.0000E+00  0.0000E+00  0.1600E+02  0.1600E+02
     -6.958  0.0000E+00  0.0000E+00  0.1600E+02  0.1600E+02
     -6.767  0.0000E+00  0.0000E+00  0.1600E+02  0.1600E+02
     -6.577  0.0000E+00  0.0000E+00  0.1600E+02  0.1600E+02
     -6.386  0.0000E+00  0.0000E+00  0.1600E+02  0.1600E+02
     -6.196  0.0000E+00  0.0000E+00  0.1600E+02  0.1600E+02
     -6.005  0.0000E+00  0.0000E+00  0.1600E+02  0.1600E+02
     -5.815  0.0000E+00  0.0000E+00  0.1600E+02  0.1600E+02
     -5.624  0.0000E+00  0.0000E+00  0.1600E+02  0.1600E+02
     -5.434  0.0000E+00  0.0000E+00  0.1600E+02  0.1600E+02
     -5.243  0.0000E+00  0.0000E+00  0.1600E+02  0.1600E+02
     -5.053  0.0000E+00  0.0000E+00  0.1600E+02  0.1600E+02
     -4.862  0.0000E+00  0.0000E+00  0.1600E+02  0.1600E+02
     -4.672  0.0000E+00  0.0000E+00  0.1600E+02  0.1600E+02
     -4.481  0.0000E+00  0.0000E+00  0.1600E+02  0.1600E+02
     -4.291  0.0000E+00  0.0000E+00  0.1600E+02  0.1600E+02
     -4.100  0.0000E+00  0.0000E+00  0.1600E+02  0.1600E+02
     -3.910  0.0000E+00  0.0000E+00  0.1600E+02  0.1600E+02
     -3.719  0.0000E+00  0.0000E+00  0.1600E+02  0.1600E+02
     -3.529  0.0000E+00  0.0000E+00  0.1600E+02  0.1600E+02
     -3.338  0.0000E+00  0.0000E+00  0.1600E+02  0.1600E+02
     -3.148  0.0000E+00  0.0000E+00  0.1600E+02  0.1600E+02
     -2.957  0.0000E+00  0.0000E+00  0.1600E+02  0.1600E+02
     -2.767  0.0000E+00  0.0000E+00  0.1600E+02  0.1600E+02
     -2.576  0.0000E+00  0.0000E+00  0.1600E+02  0.1600E+02
     -2.386  0.0000E+00  0.0000E+00  0.1600E+02  0.1600E+02
     -2.195  0.0000E+00  0.0000E+00  0.1600E+02  0.1600E+02
     -2.005  0.0000E+00  0.0000E+00  0.1600E+02  0.1600E+02
     -1.814  0.0000E+00  0.0000E+00  0.1600E+02  0.1600E+02
     -1.624  0.0000E+00  0.0000E+00  0.1600E+02  0.1600E+02
     -1.433  0.0000E+00  0.0000E+00  0.1600E+02  0.1600E+02
     -1.242  0.2168E-05  0.2159E-05  0.1600E+02  0.1600E+02
     -1.052  0.1357E-03  0.1351E-03  0.1600E+02  0.1600E+02
     -0.861  0.5806E-02  0.5783E-02  0.1600E+02  0.1600E+02
     -0.671  0.1048E+00  0.1046E+00  0.1602E+02  0.1602E+02
     -0.480  0.3114E+00  0.3112E+00  0.1608E+02  0.1608E+02
     -0.290  0.4738E+00  0.4738E+00  0.1617E+02  0.1617E+02
     -0.099  0.6092E+00  0.6090E+00  0.1629E+02  0.1629E+02
      0.091  0.6937E+00  0.6936E+00  0.1642E+02  0.1642E+02
      0.282  0.7240E+00  0.7239E+00  0.1656E+02  0.1656E+02
      0.472  0.9814E+00  0.9812E+00  0.1675E+02  0.1675E+02
      0.663  0.9209E+00  0.9212E+00  0.1692E+02  0.1692E+02
      0.853  0.1112E+01  0.1111E+01  0.1713E+02  0.1713E+02
      1.044  0.1323E+01  0.1323E+01  0.1739E+02  0.1739E+02
      1.234  0.1288E+01  0.1287E+01  0.1763E+02  0.1763E+02
      1.425  0.1445E+01  0.1445E+01  0.1791E+02  0.1791E+02
      1.615  0.1646E+01  0.1646E+01  0.1822E+02  0.1822E+02
      1.806  0.1684E+01  0.1684E+01  0.1855E+02  0.1855E+02
      1.996  0.1504E+01  0.1504E+01  0.1883E+02  0.1883E+02
      2.187  0.1734E+01  0.1734E+01  0.1916E+02  0.1916E+02
      2.377  0.1720E+01  0.1720E+01  0.1949E+02  0.1949E+02
      2.568  0.1740E+01  0.1740E+01  0.1983E+02  0.1983E+02
      2.758  0.1610E+01  0.1611E+01  0.2014E+02  0.2014E+02
      2.949  0.1323E+01  0.1323E+01  0.2039E+02  0.2039E+02
      3.139  0.2016E+01  0.2015E+01  0.2077E+02  0.2077E+02
      3.330  0.2571E+01  0.2571E+01  0.2126E+02  0.2126E+02
      3.520  0.2267E+01  0.2268E+01  0.2170E+02  0.2170E+02
      3.711  0.2228E+01  0.2228E+01  0.2212E+02  0.2212E+02
      3.901  0.2006E+01  0.2006E+01  0.2251E+02  0.2251E+02
      4.092  0.2003E+01  0.2002E+01  0.2289E+02  0.2289E+02
      4.282  0.2093E+01  0.2093E+01  0.2329E+02  0.2329E+02
      4.473  0.1975E+01  0.1974E+01  0.2367E+02  0.2367E+02
      4.663  0.2608E+01  0.2606E+01  0.2417E+02  0.2417E+02
      4.854  0.3478E+01  0.3479E+01  0.2483E+02  0.2483E+02
      5.044  0.3202E+01  0.3202E+01  0.2544E+02  0.2544E+02
      5.235  0.2440E+01  0.2444E+01  0.2591E+02  0.2591E+02
      5.425  0.1650E+01  0.1650E+01  0.2623E+02  0.2623E+02
      5.616  0.2741E+01  0.2740E+01  0.2675E+02  0.2675E+02
      5.806  0.2794E+01  0.2794E+01  0.2729E+02  0.2728E+02
      5.997  0.2786E+01  0.2786E+01  0.2782E+02  0.2782E+02
      6.188  0.3216E+01  0.3215E+01  0.2843E+02  0.2843E+02
      6.378  0.3573E+01  0.3574E+01  0.2911E+02  0.2911E+02
      6.569  0.3572E+01  0.3572E+01  0.2980E+02  0.2980E+02
      6.759  0.3787E+01  0.3787E+01  0.3052E+02  0.3052E+02
      6.950  0.3967E+01  0.3967E+01  0.3128E+02  0.3128E+02
      7.140  0.5107E+01  0.5106E+01  0.3226E+02  0.3226E+02
      7.331  0.5159E+01  0.5160E+01  0.3324E+02  0.3324E+02
      7.521  0.3894E+01  0.3894E+01  0.3399E+02  0.3399E+02
      7.712  0.4814E+01  0.4812E+01  0.3491E+02  0.3491E+02
      7.902  0.5756E+01  0.5756E+01  0.3601E+02  0.3601E+02
      8.093  0.6518E+01  0.6518E+01  0.3725E+02  0.3725E+02
      8.283  0.5273E+01  0.5275E+01  0.3826E+02  0.3826E+02
      8.474  0.3698E+01  0.3699E+01  0.3897E+02  0.3897E+02
      8.664  0.3759E+01  0.3760E+01  0.3969E+02  0.3969E+02
      8.855  0.3857E+01  0.3857E+01  0.4043E+02  0.4043E+02
      9.045  0.2608E+01  0.2609E+01  0.4093E+02  0.4093E+02
      9.236  0.1954E+01  0.1954E+01  0.4131E+02  0.4131E+02
      9.426  0.1932E+01  0.1932E+01  0.4167E+02  0.4167E+02
      9.617  0.1968E+01  0.1968E+01  0.4205E+02  0.4205E+02
      9.807  0.1931E+01  0.1931E+01  0.4242E+02  0.4242E+02
      9.998  0.2246E+01  0.2246E+01  0.4285E+02  0.4285E+02
     10.188  0.2395E+01  0.2395E+01  0.4331E+02  0.4331E+02
     10.379  0.2474E+01  0.2474E+01  0.4378E+02  0.4378E+02
     10.569  0.2324E+01  0.2324E+01  0.4423E+02  0.4423E+02
     10.760  0.3200E+01  0.3199E+01  0.4484E+02  0.4484E+02
     10.950  0.4400E+01  0.4400E+01  0.4568E+02  0.4568E+02
     11.141  0.4920E+01  0.4921E+01  0.4662E+02  0.4662E+02
     11.331  0.4651E+01  0.4652E+01  0.4751E+02  0.4751E+02
     11.522  0.5131E+01  0.5129E+01  0.4849E+02  0.4849E+02
     11.712  0.5173E+01  0.5178E+01  0.4948E+02  0.4948E+02
     11.903  0.5005E+01  0.5006E+01  0.5044E+02  0.5044E+02
     12.093  0.5936E+01  0.5847E+01  0.5157E+02  0.5156E+02
     12.284  0.5614E+01  0.5697E+01  0.5264E+02  0.5264E+02
     12.474  0.5192E+01  0.5119E+01  0.5364E+02  0.5362E+02
     12.665  0.4496E+01  0.4525E+01  0.5450E+02  0.5449E+02
     12.855  0.3059E+01  0.3074E+01  0.5508E+02  0.5508E+02
     13.046  0.2736E+01  0.2894E+01  0.5561E+02  0.5563E+02
     13.236  0.1529E+01  0.1459E+01  0.5590E+02  0.5591E+02
     13.427  0.4799E+00  0.4280E+00  0.5600E+02  0.5600E+02
     13.618  0.1804E-01  0.2012E-01  0.5600E+02  0.5600E+02
     13.808  0.0000E+00  0.0000E+00  0.5600E+02  0.5600E+02
     13.999  0.0000E+00  0.0000E+00  0.5600E+02  0.5600E+02
     14.189  0.0000E+00  0.0000E+00  0.5600E+02  0.5600E+02
     14.380  0.0000E+00  0.0000E+00  0.5600E+02  0.5600E+02
     14.570  0.0000E+00  0.0000E+00  0.5600E+02  0.5600E+02
     14.761  0.0000E+00  0.0000E+00  0.5600E+02  0.5600E+02
     14.951  0.0000E+00  0.0000E+00  0.5600E+02  0.5600E+02
     15.142  0.0000E+00  0.0000E+00  0.5600E+02  0.5600E+02
     15.332  0.0000E+00  0.0000E+00  0.5600E+02  0.5600E+02
     15.523  0.0000E+00  0.0000E+00  0.5600E+02  0.5600E+02
     15.713  0.0000E+00  0.0000E+00  0.5600E+02  0.5600E+02
     15.904  0.0000E+00  0.0000E+00  0.5600E+02  0.5600E+02
     15.90366255    -41.25013084  301      9.59332836      1.00000000
    -41.250  0.0000E+00  0.0000E+00  0.0000E+00  0.0000E+00  0.0000E+00  0.0000E+00  0.0000E+00  0.0000E+00  0.0000E+00  0.0000E+00  0.0000E+00  0.0000E+00  0.0000E+00  0.0000E+00  0.0000E+00  0.0000E+00  0.0000E+00  0.0000E+00
    -41.060  0.0000E+00  0.0000E+00  0.0000E+00  0.0000E+00  0.0000E+00  0.0000E+00  0.0000E+00  0.0000E+00  0.0000E+00  0.0000E+00  0.0000E+00  0.0000E+00  0.0000E+00  0.0000E+00  0.0000E+00  0.0000E+00  0.0000E+00  0.0000E+00
    -40.869  0.0000E+00  0.0000E+00  0.0000E+00  0.0000E+00  0.0000E+00  0.0000E+00  0.0000E+00  0.0000E+00  0.0000E+00  0.0000E+00  0.0000E+00  0.0000E+00  0.0000E+00  0.0000E+00  0.0000E+00  0.0000E+00  0.0000E+00  0.0000E+00
    -40.679  0.0000E+00  0.0000E+00  0.0000E+00  0.0000E+00  0.0000E+00  0.0000E+00  0.0000E+00  0.0000E+00  0.0000E+00  0.0000E+00  0.0000E+00  0.0000E+00  0.0000E+00  0.0000E+00  0.0000E+00  0.0000E+00  0.0000E+00  0.0000E+00
    -40.488  0.0000E+00  0.0000E+00  0.0000E+00  0.0000E+00  0.0000E+00  0.0000E+00  0.0000E+00  0.0000E+00  0.0000E+00  0.0000E+00  0.0000E+00  0.0000E+00  0.0000E+00  0.0000E+00  0.0000E+00  0.0000E+00  0.0000E+00  0.0000E+00
    -40.298  0.0000E+00  0.0000E+00  0.0000E+00  0.0000E+00  0.0000E+00  0.0000E+00  0.0000E+00  0.0000E+00  0.0000E+00  0.0000E+00  0.0000E+00  0.0000E+00  0.0000E+00  0.0000E+00  0.0000E+00  0.0000E+00  0.0000E+00  0.0000E+00
    -40.107  0.0000E+00  0.0000E+00  0.0000E+00  0.0000E+00  0.0000E+00  0.0000E+00  0.0000E+00  0.0000E+00  0.0000E+00  0.0000E+00  0.0000E+00  0.0000E+00  0.0000E+00  0.0000E+00  0.0000E+00  0.0000E+00  0.0000E+00  0.0000E+00
    -39.917  0.0000E+00  0.0000E+00  0.0000E+00  0.0000E+00  0.0000E+00  0.0000E+00  0.0000E+00  0.0000E+00  0.0000E+00  0.0000E+00  0.0000E+00  0.0000E+00  0.0000E+00  0.0000E+00  0.0000E+00  0.0000E+00  0.0000E+00  0.0000E+00
    -39.726  0.0000E+00  0.0000E+00  0.0000E+00  0.0000E+00  0.0000E+00  0.0000E+00  0.0000E+00  0.0000E+00  0.0000E+00  0.0000E+00  0.0000E+00  0.0000E+00  0.0000E+00  0.0000E+00  0.0000E+00  0.0000E+00  0.0000E+00  0.0000E+00
    -39.536  0.0000E+00  0.0000E+00  0.0000E+00  0.0000E+00  0.0000E+00  0.0000E+00  0.0000E+00  0.0000E+00  0.0000E+00  0.0000E+00  0.0000E+00  0.0000E+00  0.0000E+00  0.0000E+00  0.0000E+00  0.0000E+00  0.0000E+00  0.0000E+00
    -39.345  0.0000E+00  0.0000E+00  0.0000E+00  0.0000E+00  0.0000E+00  0.0000E+00  0.0000E+00  0.0000E+00  0.0000E+00  0.0000E+00  0.0000E+00  0.0000E+00  0.0000E+00  0.0000E+00  0.0000E+00  0.0000E+00  0.0000E+00  0.0000E+00
    -39.154  0.2006E-03  0.2015E-03  0.4959E-11  0.5008E-11  0.9861E-09  0.9908E-09  0.4959E-11  0.5008E-11  0.5806E-14  0.3164E-14  0.2812E-14  0.1829E-14  0.5130E-10  0.5145E-10  0.2812E-14  0.1829E-14  0.5664E-11  0.5758E-11
    -38.964  0.8841E-02  0.8882E-02  0.2186E-09  0.2208E-09  0.4347E-07  0.4368E-07  0.2186E-09  0.2208E-09  0.2559E-12  0.1395E-12  0.1240E-12  0.8062E-13  0.2262E-08  0.2268E-08  0.1240E-12  0.8062E-13  0.2497E-09  0.2538E-09
    -38.773  0.3702E+00  0.3718E+00  0.9152E-08  0.9239E-08  0.1820E-05  0.1828E-05  0.9152E-08  0.9239E-08  0.1072E-10  0.5837E-11  0.5187E-11  0.3372E-11  0.9461E-07  0.9484E-07  0.5187E-11  0.3372E-11  0.1046E-07  0.1063E-07
    -38.583  0.3682E+01  0.3685E+01  0.9094E-07  0.9149E-07  0.1808E-04  0.1810E-04  0.9094E-07  0.9149E-07  0.1065E-09  0.5784E-10  0.5132E-10  0.3321E-10  0.9326E-06  0.9315E-06  0.5132E-10  0.3321E-10  0.1041E-06  0.1055E-06
    -38.392  0.1115E+01  0.1111E+01  0.2749E-07  0.2754E-07  0.5469E-05  0.5450E-05  0.2749E-07  0.2754E-07  0.3218E-10  0.1742E-10  0.1543E-10  0.9926E-11  0.2794E-06  0.2778E-06  0.1543E-10  0.9926E-11  0.3153E-07  0.3182E-07
    -38.202  0.0000E+00  0.0000E+00  0.0000E+00  0.0000E+00  0.0000E+00  0.0000E+00  0.0000E+00  0.0000E+00  0.0000E+00  0.0000E+00  0.0000E+00  0.0000E+00  0.0000E+00  0.0000E+00  0.0000E+00  0.0000E+00  0.0000E+00  0.0000E+00
    -38.011  0.0000E+00  0.0000E+00  0.0000E+00  0.0000E+00  0.0000E+00  0.0000E+00  0.0000E+00  0.0000E+00  0.0000E+00  0.0000E+00  0.0000E+00  0.0000E+00  0.0000E+00  0.0000E+00  0.0000E+00  0.0000E+00  0.0000E+00  0.0000E+00
    -37.821  0.0000E+00  0.0000E+00  0.0000E+00  0.0000E+00  0.0000E+00  0.0000E+00  0.0000E+00  0.0000E+00  0.0000E+00  0.0000E+00  0.0000E+00  0.0000E+00  0.0000E+00  0.0000E+00  0.0000E+00  0.0000E+00  0.0000E+00  0.0000E+00
    -37.630  0.0000E+00  0.0000E+00  0.0000E+00  0.0000E+00  0.0000E+00  0.0000E+00  0.0000E+00  0.0000E+00  0.0000E+00  0.0000E+00  0.0000E+00  0.0000E+00  0.0000E+00  0.0000E+00  0.0000E+00  0.0000E+00  0.0000E+00  0.0000E+00
    -37.440  0.0000E+00  0.0000E+00  0.0000E+00  0.0000E+00  0.0000E+00  0.0000E+00  0.0000E+00  0.0000E+00  0.0000E+00  0.0000E+00  0.0000E+00  0.0000E+00  0.0000E+00  0.0000E+00  0.0000E+00  0.0000E+00  0.0000E+00  0.0000E+00
    -37.249  0.0000E+00  0.0000E+00  0.0000E+00  0.0000E+00  0.0000E+00  0.0000E+00  0.0000E+00  0.0000E+00  0.0000E+00  0.0000E+00  0.0000E+00  0.0000E+00  0.0000E+00  0.0000E+00  0.0000E+00  0.0000E+00  0.0000E+00  0.0000E+00
    -37.059  0.0000E+00  0.0000E+00  0.0000E+00  0.0000E+00  0.0000E+00  0.0000E+00  0.0000E+00  0.0000E+00  0.0000E+00  0.0000E+00  0.0000E+00  0.0000E+00  0.0000E+00  0.0000E+00  0.0000E+00  0.0000E+00  0.0000E+00  0.0000E+00
    -36.868  0.0000E+00  0.0000E+00  0.0000E+00  0.0000E+00  0.0000E+00  0.0000E+00  0.0000E+00  0.0000E+00  0.0000E+00  0.0000E+00  0.0000E+00  0.0000E+00  0.0000E+00  0.0000E+00  0.0000E+00  0.0000E+00  0.0000E+00  0.0000E+00
    -36.678  0.0000E+00  0.0000E+00  0.0000E+00  0.0000E+00  0.0000E+00  0.0000E+00  0.0000E+00  0.0000E+00  0.0000E+00  0.0000E+00  0.0000E+00  0.0000E+00  0.0000E+00  0.0000E+00  0.0000E+00  0.0000E+00  0.0000E+00  0.0000E+00
    -36.487  0.0000E+00  0.0000E+00  0.0000E+00  0.0000E+00  0.0000E+00  0.0000E+00  0.0000E+00  0.0000E+00  0.0000E+00  0.0000E+00  0.0000E+00  0.0000E+00  0.0000E+00  0.0000E+00  0.0000E+00  0.0000E+00  0.0000E+00  0.0000E+00
    -36.297  0.0000E+00  0.0000E+00  0.0000E+00  0.0000E+00  0.0000E+00  0.0000E+00  0.0000E+00  0.0000E+00  0.0000E+00  0.0000E+00  0.0000E+00  0.0000E+00  0.0000E+00  0.0000E+00  0.0000E+00  0.0000E+00  0.0000E+00  0.0000E+00
    -36.106  0.0000E+00  0.0000E+00  0.0000E+00  0.0000E+00  0.0000E+00  0.0000E+00  0.0000E+00  0.0000E+00  0.0000E+00  0.0000E+00  0.0000E+00  0.0000E+00  0.0000E+00  0.0000E+00  0.0000E+00  0.0000E+00  0.0000E+00  0.0000E+00
    -35.916  0.0000E+00  0.0000E+00  0.0000E+00  0.0000E+00  0.0000E+00  0.0000E+00  0.0000E+00  0.0000E+00  0.0000E+00  0.0000E+00  0.0000E+00  0.0000E+00  0.0000E+00  0.0000E+00  0.0000E+00  0.0000E+00  0.0000E+00  0.0000E+00
    -35.725  0.0000E+00  0.0000E+00  0.0000E+00  0.0000E+00  0.0000E+00  0.0000E+00  0.0000E+00  0.0000E+00  0.0000E+00  0.0000E+00  0.0000E+00  0.0000E+00  0.0000E+00  0.0000E+00  0.0000E+00  0.0000E+00  0.0000E+00  0.0000E+00
    -35.535  0.0000E+00  0.0000E+00  0.0000E+00  0.0000E+00  0.0000E+00  0.0000E+00  0.0000E+00  0.0000E+00  0.0000E+00  0.0000E+00  0.0000E+00  0.0000E+00  0.0000E+00  0.0000E+00  0.0000E+00  0.0000E+00  0.0000E+00  0.0000E+00
    -35.344  0.0000E+00  0.0000E+00  0.0000E+00  0.0000E+00  0.0000E+00  0.0000E+00  0.0000E+00  0.0000E+00  0.0000E+00  0.0000E+00  0.0000E+00  0.0000E+00  0.0000E+00  0.0000E+00  0.0000E+00  0.0000E+00  0.0000E+00  0.0000E+00
    -35.154  0.0000E+00  0.0000E+00  0.0000E+00  0.0000E+00  0.0000E+00  0.0000E+00  0.0000E+00  0.0000E+00  0.0000E+00  0.0000E+00  0.0000E+00  0.0000E+00  0.0000E+00  0.0000E+00  0.0000E+00  0.0000E+00  0.0000E+00  0.0000E+00
    -34.963  0.0000E+00  0.0000E+00  0.0000E+00  0.0000E+00  0.0000E+00  0.0000E+00  0.0000E+00  0.0000E+00  0.0000E+00  0.0000E+00  0.0000E+00  0.0000E+00  0.0000E+00  0.0000E+00  0.0000E+00  0.0000E+00  0.0000E+00  0.0000E+00
    -34.773  0.0000E+00  0.0000E+00  0.0000E+00  0.0000E+00  0.0000E+00  0.0000E+00  0.0000E+00  0.0000E+00  0.0000E+00  0.0000E+00  0.0000E+00  0.0000E+00  0.0000E+00  0.0000E+00  0.0000E+00  0.0000E+00  0.0000E+00  0.0000E+00
    -34.582  0.0000E+00  0.0000E+00  0.0000E+00  0.0000E+00  0.0000E+00  0.0000E+00  0.0000E+00  0.0000E+00  0.0000E+00  0.0000E+00  0.0000E+00  0.0000E+00  0.0000E+00  0.0000E+00  0.0000E+00  0.0000E+00  0.0000E+00  0.0000E+00
    -34.392  0.0000E+00  0.0000E+00  0.0000E+00  0.0000E+00  0.0000E+00  0.0000E+00  0.0000E+00  0.0000E+00  0.0000E+00  0.0000E+00  0.0000E+00  0.0000E+00  0.0000E+00  0.0000E+00  0.0000E+00  0.0000E+00  0.0000E+00  0.0000E+00
    -34.201  0.0000E+00  0.0000E+00  0.0000E+00  0.0000E+00  0.0000E+00  0.0000E+00  0.0000E+00  0.0000E+00  0.0000E+00  0.0000E+00  0.0000E+00  0.0000E+00  0.0000E+00  0.0000E+00  0.0000E+00  0.0000E+00  0.0000E+00  0.0000E+00
    -34.011  0.0000E+00  0.0000E+00  0.0000E+00  0.0000E+00  0.0000E+00  0.0000E+00  0.0000E+00  0.0000E+00  0.0000E+00  0.0000E+00  0.0000E+00  0.0000E+00  0.0000E+00  0.0000E+00  0.0000E+00  0.0000E+00  0.0000E+00  0.0000E+00
    -33.820  0.0000E+00  0.0000E+00  0.0000E+00  0.0000E+00  0.0000E+00  0.0000E+00  0.0000E+00  0.0000E+00  0.0000E+00  0.0000E+00  0.0000E+00  0.0000E+00  0.0000E+00  0.0000E+00  0.0000E+00  0.0000E+00  0.0000E+00  0.0000E+00
    -33.630  0.0000E+00  0.0000E+00  0.0000E+00  0.0000E+00  0.0000E+00  0.0000E+00  0.0000E+00  0.0000E+00  0.0000E+00  0.0000E+00  0.0000E+00  0.0000E+00  0.0000E+00  0.0000E+00  0.0000E+00  0.0000E+00  0.0000E+00  0.0000E+00
    -33.439  0.0000E+00  0.0000E+00  0.0000E+00  0.0000E+00  0.0000E+00  0.0000E+00  0.0000E+00  0.0000E+00  0.0000E+00  0.0000E+00  0.0000E+00  0.0000E+00  0.0000E+00  0.0000E+00  0.0000E+00  0.0000E+00  0.0000E+00  0.0000E+00
    -33.249  0.0000E+00  0.0000E+00  0.0000E+00  0.0000E+00  0.0000E+00  0.0000E+00  0.0000E+00  0.0000E+00  0.0000E+00  0.0000E+00  0.0000E+00  0.0000E+00  0.0000E+00  0.0000E+00  0.0000E+00  0.0000E+00  0.0000E+00  0.0000E+00
    -33.058  0.0000E+00  0.0000E+00  0.0000E+00  0.0000E+00  0.0000E+00  0.0000E+00  0.0000E+00  0.0000E+00  0.0000E+00  0.0000E+00  0.0000E+00  0.0000E+00  0.0000E+00  0.0000E+00  0.0000E+00  0.0000E+00  0.0000E+00  0.0000E+00
    -32.868  0.0000E+00  0.0000E+00  0.0000E+00  0.0000E+00  0.0000E+00  0.0000E+00  0.0000E+00  0.0000E+00  0.0000E+00  0.0000E+00  0.0000E+00  0.0000E+00  0.0000E+00  0.0000E+00  0.0000E+00  0.0000E+00  0.0000E+00  0.0000E+00
    -32.677  0.0000E+00  0.0000E+00  0.0000E+00  0.0000E+00  0.0000E+00  0.0000E+00  0.0000E+00  0.0000E+00  0.0000E+00  0.0000E+00  0.0000E+00  0.0000E+00  0.0000E+00  0.0000E+00  0.0000E+00  0.0000E+00  0.0000E+00  0.0000E+00
    -32.487  0.0000E+00  0.0000E+00  0.0000E+00  0.0000E+00  0.0000E+00  0.0000E+00  0.0000E+00  0.0000E+00  0.0000E+00  0.0000E+00  0.0000E+00  0.0000E+00  0.0000E+00  0.0000E+00  0.0000E+00  0.0000E+00  0.0000E+00  0.0000E+00
    -32.296  0.0000E+00  0.0000E+00  0.0000E+00  0.0000E+00  0.0000E+00  0.0000E+00  0.0000E+00  0.0000E+00  0.0000E+00  0.0000E+00  0.0000E+00  0.0000E+00  0.0000E+00  0.0000E+00  0.0000E+00  0.0000E+00  0.0000E+00  0.0000E+00
    -32.106  0.0000E+00  0.0000E+00  0.0000E+00  0.0000E+00  0.0000E+00  0.0000E+00  0.0000E+00  0.0000E+00  0.0000E+00  0.0000E+00  0.0000E+00  0.0000E+00  0.0000E+00  0.0000E+00  0.0000E+00  0.0000E+00  0.0000E+00  0.0000E+00
    -31.915  0.0000E+00  0.0000E+00  0.0000E+00  0.0000E+00  0.0000E+00  0.0000E+00  0.0000E+00  0.0000E+00  0.0000E+00  0.0000E+00  0.0000E+00  0.0000E+00  0.0000E+00  0.0000E+00  0.0000E+00  0.0000E+00  0.0000E+00  0.0000E+00
    -31.724  0.0000E+00  0.0000E+00  0.0000E+00  0.0000E+00  0.0000E+00  0.0000E+00  0.0000E+00  0.0000E+00  0.0000E+00  0.0000E+00  0.0000E+00  0.0000E+00  0.0000E+00  0.0000E+00  0.0000E+00  0.0000E+00  0.0000E+00  0.0000E+00