  16  16   1   0
  0.1273727E+02  0.3616117E-09  0.3616117E-09  0.1558517E-08  0.5000000E-15
  1.000000000000000E-004
  CAR 
 unknown system                          
     19.67437671    -37.84609809  301     12.26725560      1.00000000
    -37.846  0.0000E+00  0.0000E+00  0.0000E+00  0.0000E+00
    -37.654  0.0000E+00  0.0000E+00  0.0000E+00  0.0000E+00
    -37.463  0.0000E+00  0.0000E+00  0.0000E+00  0.0000E+00
    -37.271  0.0000E+00  0.0000E+00  0.0000E+00  0.0000E+00
    -37.079  0.0000E+00  0.0000E+00  0.0000E+00  0.0000E+00
    -36.887  0.0000E+00  0.0000E+00  0.0000E+00  0.0000E+00
    -36.696  0.0000E+00  0.0000E+00  0.0000E+00  0.0000E+00
    -36.504  0.0000E+00  0.0000E+00  0.0000E+00  0.0000E+00
    -36.312  0.0000E+00  0.0000E+00  0.0000E+00  0.0000E+00
    -36.120  0.0000E+00  0.0000E+00  0.0000E+00  0.0000E+00
    -35.929  0.0000E+00  0.0000E+00  0.0000E+00  0.0000E+00
    -35.737  0.5809E-03  0.5886E-03  0.1114E-03  0.1128E-03
    -35.545  0.2627E-01  0.2661E-01  0.5148E-02  0.5216E-02
    -35.354  0.1146E+01  0.1160E+01  0.2248E+00  0.2276E+00
    -35.162  0.1406E+02  0.1410E+02  0.2922E+01  0.2932E+01
    -34.970  0.5458E+01  0.5407E+01  0.3968E+01  0.3969E+01
    -34.778  0.0000E+00  0.0000E+00  0.4000E+01  0.4000E+01
    -34.587  0.0000E+00  0.0000E+00  0.4000E+01  0.4000E+01
    -34.395  0.0000E+00  0.0000E+00  0.4000E+01  0.4000E+01
    -34.203  0.0000E+00  0.0000E+00  0.4000E+01  0.4000E+01
    -34.011  0.0000E+00  0.0000E+00  0.4000E+01  0.4000E+01
    -33.820  0.0000E+00  0.0000E+00  0.4000E+01  0.4000E+01
    -33.628  0.0000E+00  0.0000E+00  0.4000E+01  0.4000E+01
    -33.436  0.0000E+00  0.0000E+00  0.4000E+01  0.4000E+01
    -33.244  0.0000E+00  0.0000E+00  0.4000E+01  0.4000E+01
    -33.053  0.0000E+00  0.0000E+00  0.4000E+01  0.4000E+01
    -32.861  0.0000E+00  0.0000E+00  0.4000E+01  0.4000E+01
    -32.669  0.0000E+00  0.0000E+00  0.4000E+01  0.4000E+01
    -32.478  0.0000E+00  0.0000E+00  0.4000E+01  0.4000E+01
    -32.286  0.0000E+00  0.0000E+00  0.4000E+01  0.4000E+01
    -32.094  0.0000E+00  0.0000E+00  0.4000E+01  0.4000E+01
    -31.902  0.0000E+00  0.0000E+00  0.4000E+01  0.4000E+01
    -31.711  0.0000E+00  0.0000E+00  0.4000E+01  0.4000E+01
    -31.519  0.0000E+00  0.0000E+00  0.4000E+01  0.4000E+01
    -31.327  0.0000E+00  0.0000E+00  0.4000E+01  0.4000E+01
    -31.135  0.0000E+00  0.0000E+00  0.4000E+01  0.4000E+01
    -30.944  0.0000E+00  0.0000E+00  0.4000E+01  0.4000E+01
    -30.752  0.0000E+00  0.0000E+00  0.4000E+01  0.4000E+01
    -30.560  0.0000E+00  0.0000E+00  0.4000E+01  0.4000E+01
    -30.368  0.0000E+00  0.0000E+00  0.4000E+01  0.4000E+01
    -30.177  0.0000E+00  0.0000E+00  0.4000E+01  0.4000E+01
    -29.985  0.0000E+00  0.0000E+00  0.4000E+01  0.4000E+01
    -29.793  0.0000E+00  0.0000E+00  0.4000E+01  0.4000E+01
    -29.601  0.0000E+00  0.0000E+00  0.4000E+01  0.4000E+01
    -29.410  0.0000E+00  0.0000E+00  0.4000E+01  0.4000E+01
    -29.218  0.0000E+00  0.0000E+00  0.4000E+01  0.4000E+01
    -29.026  0.0000E+00  0.0000E+00  0.4000E+01  0.4000E+01
    -28.835  0.0000E+00  0.0000E+00  0.4000E+01  0.4000E+01
    -28.643  0.0000E+00  0.0000E+00  0.4000E+01  0.4000E+01
    -28.451  0.0000E+00  0.0000E+00  0.4000E+01  0.4000E+01
    -28.259  0.0000E+00  0.0000E+00  0.4000E+01  0.4000E+01
    -28.068  0.0000E+00  0.0000E+00  0.4000E+01  0.4000E+01
    -27.876  0.0000E+00  0.0000E+00  0.4000E+01  0.4000E+01
    -27.684  0.0000E+00  0.0000E+00  0.4000E+01  0.4000E+01
    -27.492  0.0000E+00  0.0000E+00  0.4000E+01  0.4000E+01
    -27.301  0.0000E+00  0.0000E+00  0.4000E+01  0.4000E+01
    -27.109  0.0000E+00  0.0000E+00  0.4000E+01  0.4000E+01
    -26.917  0.0000E+00  0.0000E+00  0.4000E+01  0.4000E+01
    -26.725  0.0000E+00  0.0000E+00  0.4000E+01  0.4000E+01
    -26.534  0.0000E+00  0.0000E+00  0.4000E+01  0.4000E+01
    -26.342  0.0000E+00  0.0000E+00  0.4000E+01  0.4000E+01
    -26.150  0.0000E+00  0.0000E+00  0.4000E+01  0.4000E+01
    -25.959  0.0000E+00  0.0000E+00  0.4000E+01  0.4000E+01
    -25.767  0.0000E+00  0.0000E+00  0.4000E+01  0.4000E+01
    -25.575  0.0000E+00  0.0000E+00  0.4000E+01  0.4000E+01
    -25.383  0.0000E+00  0.0000E+00  0.4000E+01  0.4000E+01
    -25.192  0.0000E+00  0.0000E+00  0.4000E+01  0.4000E+01
    -25.000  0.0000E+00  0.0000E+00  0.4000E+01  0.4000E+01
    -24.808  0.0000E+00  0.0000E+00  0.4000E+01  0.4000E+01
    -24.616  0.0000E+00  0.0000E+00  0.4000E+01  0.4000E+01
    -24.425  0.0000E+00  0.0000E+00  0.4000E+01  0.4000E+01
    -24.233  0.0000E+00  0.0000E+00  0.4000E+01  0.4000E+01
    -24.041  0.0000E+00  0.0000E+00  0.4000E+01  0.4000E+01
    -23.849  0.0000E+00  0.0000E+00  0.4000E+01  0.4000E+01
    -23.658  0.0000E+00  0.0000E+00  0.4000E+01  0.4000E+01
    -23.466  0.0000E+00  0.0000E+00  0.4000E+01  0.4000E+01
    -23.274  0.0000E+00  0.0000E+00  0.4000E+01  0.4000E+01
    -23.083  0.0000E+00  0.0000E+00  0.4000E+01  0.4000E+01
    -22.891  0.0000E+00  0.0000E+00  0.4000E+01  0.4000E+01
    -22.699  0.0000E+00  0.0000E+00  0.4000E+01  0.4000E+01
    -22.507  0.0000E+00  0.0000E+00  0.4000E+01  0.4000E+01
    -22.316  0.0000E+00  0.0000E+00  0.4000E+01  0.4000E+01
    -22.124  0.0000E+00  0.0000E+00  0.4000E+01  0.4000E+01
    -21.932  0.0000E+00  0.0000E+00  0.4000E+01  0.4000E+01
    -21.740  0.0000E+00  0.0000E+00  0.4000E+01  0.4000E+01
    -21.549  0.0000E+00  0.0000E+00  0.4000E+01  0.4000E+01
    -21.357  0.0000E+00  0.0000E+00  0.4000E+01  0.4000E+01
    -21.165  0.0000E+00  0.0000E+00  0.4000E+01  0.4000E+01
    -20.973  0.0000E+00  0.0000E+00  0.4000E+01  0.4000E+01
    -20.782  0.0000E+00  0.0000E+00  0.4000E+01  0.4000E+01
    -20.590  0.0000E+00  0.0000E+00  0.4000E+01  0.4000E+01
    -20.398  0.0000E+00  0.0000E+00  0.4000E+01  0.4000E+01
    -20.206  0.0000E+00  0.0000E+00  0.4000E+01  0.4000E+01
    -20.015  0.0000E+00  0.0000E+00  0.4000E+01  0.4000E+01
    -19.823  0.0000E+00  0.0000E+00  0.4000E+01  0.4000E+01
    -19.631  0.0000E+00  0.0000E+00  0.4000E+01  0.4000E+01
    -19.440  0.0000E+00  0.0000E+00  0.4000E+01  0.4000E+01
    -19.248  0.0000E+00  0.0000E+00  0.4000E+01  0.4000E+01
    -19.056  0.0000E+00  0.0000E+00  0.4000E+01  0.4000E+01
    -18.864  0.0000E+00  0.0000E+00  0.4000E+01  0.4000E+01
    -18.673  0.0000E+00  0.0000E+00  0.4000E+01  0.4000E+01
    -18.481  0.0000E+00  0.0000E+00  0.4000E+01  0.4000E+01
    -18.289  0.0000E+00  0.0000E+00  0.4000E+01  0.4000E+01
    -18.097  0.0000E+00  0.0000E+00  0.4000E+01  0.4000E+01
    -17.906  0.0000E+00  0.0000E+00  0.4000E+01  0.4000E+01
    -17.714  0.0000E+00  0.0000E+00  0.4000E+01  0.4000E+01
    -17.522  0.0000E+00  0.0000E+00  0.4000E+01  0.4000E+01
    -17.330  0.0000E+00  0.0000E+00  0.4000E+01  0.4000E+01
    -17.139  0.0000E+00  0.0000E+00  0.4000E+01  0.4000E+01
    -16.947  0.0000E+00  0.0000E+00  0.4000E+01  0.4000E+01
    -16.755  0.0000E+00  0.0000E+00  0.4000E+01  0.4000E+01
    -16.564  0.0000E+00  0.0000E+00  0.4000E+01  0.4000E+01
    -16.372  0.0000E+00  0.0000E+00  0.4000E+01  0.4000E+01
    -16.180  0.0000E+00  0.0000E+00  0.4000E+01  0.4000E+01
    -15.988  0.0000E+00  0.0000E+00  0.4000E+01  0.4000E+01
    -15.797  0.0000E+00  0.0000E+00  0.4000E+01  0.4000E+01
    -15.605  0.0000E+00  0.0000E+00  0.4000E+01  0.4000E+01
    -15.413  0.0000E+00  0.0000E+00  0.4000E+01  0.4000E+01
    -15.221  0.0000E+00  0.0000E+00  0.4000E+01  0.4000E+01
    -15.030  0.0000E+00  0.0000E+00  0.4000E+01  0.4000E+01
    -14.838  0.0000E+00  0.0000E+00  0.4000E+01  0.4000E+01
    -14.646  0.0000E+00  0.0000E+00  0.4000E+01  0.4000E+01
    -14.454  0.0000E+00  0.0000E+00  0.4000E+01  0.4000E+01
    -14.263  0.1021E-02  0.1029E-02  0.4000E+01  0.4000E+01
    -14.071  0.4940E-01  0.4979E-01  0.4010E+01  0.4010E+01
    -13.879  0.2010E+01  0.2024E+01  0.4395E+01  0.4398E+01
    -13.687  0.2106E+02  0.2112E+02  0.8433E+01  0.8447E+01
    -13.496  0.3224E+02  0.3221E+02  0.1461E+02  0.1462E+02
    -13.304  0.6915E+01  0.6873E+01  0.1596E+02  0.1596E+02
    -13.112  0.7643E-02  0.5739E-02  0.1600E+02  0.1600E+02
    -12.921  0.0000E+00  0.0000E+00  0.1600E+02  0.1600E+02
    -12.729  0.0000E+00  0.0000E+00  0.1600E+02  0.1600E+02
    -12.537  0.0000E+00  0.0000E+00  0.1600E+02  0.1600E+02
    -12.345  0.0000E+00  0.0000E+00  0.1600E+02  0.1600E+02
    -12.154  0.0000E+00  0.0000E+00  0.1600E+02  0.1600E+02
    -11.962  0.0000E+00  0.0000E+00  0.1600E+02  0.1600E+02
    -11.770  0.0000E+00  0.0000E+00  0.1600E+02  0.1600E+02
    -11.578  0.0000E+00  0.0000E+00  0.1600E+02  0.1600E+02
    -11.387  0.0000E+00  0.0000E+00  0.1600E+02  0.1600E+02
    -11.195  0.0000E+00  0.0000E+00  0.1600E+02  0.1600E+02
    -11.003  0.0000E+00  0.0000E+00  0.1600E+02  0.1600E+02
    -10.811  0.0000E+00  0.0000E+00  0.1600E+02  0.1600E+02
    -10.620  0.0000E+00  0.0000E+00  0.1600E+02  0.1600E+02
    -10.428  0.0000E+00  0.0000E+00  0.1600E+02  0.1600E+02
    -10.236  0.0000E+00  0.0000E+00  0.1600E+02  0.1600E+02
    -10.045  0.0000E+00  0.0000E+00  0.1600E+02  0.1600E+02
     -9.853  0.0000E+00  0.0000E+00  0.1600E+02  0.1600E+02
     -9.661  0.0000E+00  0.0000E+00  0.1600E+02  0.1600E+02
     -9.469  0.0000E+00  0.0000E+00  0.1600E+02  0.1600E+02
     -9.278  0.0000E+00  0.0000E+00  0.1600E+02  0.1600E+02
     -9.086  0.0000E+00  0.0000E+00  0.1600E+02  0.1600E+02
     -8.894  0.0000E+00  0.0000E+00  0.1600E+02  0.1600E+02
     -8.702  0.0000E+00  0.0000E+00  0.1600E+02  0.1600E+02
     -8.511  0.0000E+00  0.0000E+00  0.1600E+02  0.1600E+02
     -8.319  0.0000E+00  0.0000E+00  0.1600E+02  0.1600E+02
     -8.127  0.0000E+00  0.0000E+00  0.1600E+02  0.1600E+02
     -7.935  0.0000E+00  0.0000E+00  0.1600E+02  0.1600E+02
     -7.744  0.0000E+00  0.0000E+00  0.1600E+02  0.1600E+02
     -7.552  0.0000E+00  0.0000E+00  0.1600E+02  0.1600E+02
     -7.360  0.0000E+00  0.0000E+00  0.1600E+02  0.1600E+02
     -7.169  0.0000E+00  0.0000E+00  0.1600E+02  0.1600E+02
     -6.977  0.0000E+00  0.0000E+00  0.1600E+02  0.1600E+02
     -6.785  0.0000E+00  0.0000E+00  0.1600E+02  0.1600E+02
     -6.593  0.0000E+00  0.0000E+00  0.1600E+02  0.1600E+02
     -6.402  0.0000E+00  0.0000E+00  0.1600E+02  0.1600E+02
     -6.210  0.0000E+00  0.0000E+00  0.1600E+02  0.1600E+02
     -6.018  0.0000E+00  0.0000E+00  0.1600E+02  0.1600E+02
     -5.826  0.0000E+00  0.0000E+00  0.1600E+02  0.1600E+02
     -5.635  0.0000E+00  0.0000E+00  0.1600E+02  0.1600E+02
     -5.443  0.0000E+00  0.0000E+00  0.1600E+02  0.1600E+02
     -5.251  0.0000E+00  0.0000E+00  0.1600E+02  0.1600E+02
     -5.059  0.0000E+00  0.0000E+00  0.1600E+02  0.1600E+02
     -4.868  0.0000E+00  0.0000E+00  0.1600E+02  0.1600E+02
     -4.676  0.0000E+00  0.0000E+00  0.1600E+02  0.1600E+02
     -4.484  0.0000E+00  0.0000E+00  0.1600E+02  0.1600E+02
     -4.292  0.0000E+00  0.0000E+00  0.1600E+02  0.1600E+02
     -4.101  0.0000E+00  0.0000E+00  0.1600E+02  0.1600E+02
     -3.909  0.0000E+00  0.0000E+00  0.1600E+02  0.1600E+02
     -3.717  0.0000E+00  0.0000E+00  0.1600E+02  0.1600E+02
     -3.526  0.0000E+00  0.0000E+00  0.1600E+02  0.1600E+02
     -3.334  0.0000E+00  0.0000E+00  0.1600E+02  0.1600E+02
     -3.142  0.0000E+00  0.0000E+00  0.1600E+02  0.1600E+02
     -2.950  0.0000E+00  0.0000E+00  0.1600E+02  0.1600E+02
     -2.759  0.0000E+00  0.0000E+00  0.1600E+02  0.1600E+02
     -2.567  0.0000E+00  0.0000E+00  0.1600E+02  0.1600E+02
     -2.375  0.0000E+00  0.0000E+00  0.1600E+02  0.1600E+02
     -2.183  0.0000E+00  0.0000E+00  0.1600E+02  0.1600E+02
     -1.992  0.0000E+00  0.0000E+00  0.1600E+02  0.1600E+02
     -1.800  0.0000E+00  0.0000E+00  0.1600E+02  0.1600E+02
     -1.608  0.0000E+00  0.0000E+00  0.1600E+02  0.1600E+02
     -1.416  0.0000E+00  0.0000E+00  0.1600E+02  0.1600E+02
     -1.225  0.0000E+00  0.0000E+00  0.1600E+02  0.1600E+02
     -1.033  0.0000E+00  0.0000E+00  0.1600E+02  0.1600E+02
     -0.841  0.0000E+00  0.0000E+00  0.1600E+02  0.1600E+02
     -0.650  0.0000E+00  0.0000E+00  0.1600E+02  0.1600E+02
     -0.458  0.0000E+00  0.0000E+00  0.1600E+02  0.1600E+02
     -0.266  0.0000E+00  0.0000E+00  0.1600E+02  0.1600E+02
     -0.074  0.0000E+00  0.0000E+00  0.1600E+02  0.1600E+02
      0.117  0.0000E+00  0.0000E+00  0.1600E+02  0.1600E+02
      0.309  0.1692E-05  0.1687E-05  0.1600E+02  0.1600E+02
      0.501  0.9527E-04  0.9498E-04  0.1600E+02  0.1600E+02
      0.693  0.4130E-02  0.4118E-02  0.1600E+02  0.1600E+02
      0.884  0.7503E-01  0.7491E-01  0.1602E+02  0.1602E+02
      1.076  0.2188E+00  0.2187E+00  0.1606E+02  0.1606E+02
      1.268  0.3822E+00  0.3820E+00  0.1613E+02  0.1613E+02
      1.460  0.3684E+00  0.3683E+00  0.1620E+02  0.1620E+02
      1.651  0.5661E+00  0.5660E+00  0.1631E+02  0.1631E+02
      1.843  0.5873E+00  0.5872E+00  0.1642E+02  0.1642E+02
      2.035  0.5678E+00  0.5678E+00  0.1653E+02  0.1653E+02
      2.226  0.8406E+00  0.8403E+00  0.1669E+02  0.1669E+02
      2.418  0.8769E+00  0.8770E+00  0.1686E+02  0.1686E+02
      2.610  0.7083E+00  0.7080E+00  0.1700E+02  0.1700E+02
      2.802  0.1131E+01  0.1131E+01  0.1722E+02  0.1722E+02
      2.993  0.1171E+01  0.1171E+01  0.1744E+02  0.1744E+02
      3.185  0.1204E+01  0.1204E+01  0.1767E+02  0.1767E+02
      3.377  0.1291E+01  0.1291E+01  0.1792E+02  0.1792E+02
      3.569  0.1682E+01  0.1681E+01  0.1825E+02  0.1824E+02
      3.760  0.1679E+01  0.1679E+01  0.1857E+02  0.1857E+02
      3.952  0.1656E+01  0.1656E+01  0.1889E+02  0.1889E+02
      4.144  0.1805E+01  0.1805E+01  0.1923E+02  0.1923E+02
      4.336  0.1562E+01  0.1563E+01  0.1954E+02  0.1953E+02
      4.527  0.1361E+01  0.1361E+01  0.1980E+02  0.1980E+02
      4.719  0.1340E+01  0.1340E+01  0.2006E+02  0.2005E+02
      4.911  0.1012E+01  0.1012E+01  0.2025E+02  0.2025E+02
      5.103  0.1071E+01  0.1071E+01  0.2046E+02  0.2046E+02
      5.294  0.1522E+01  0.1521E+01  0.2075E+02  0.2075E+02
      5.486  0.2596E+01  0.2596E+01  0.2125E+02  0.2125E+02
      5.678  0.2147E+01  0.2147E+01  0.2166E+02  0.2166E+02
      5.869  0.2410E+01  0.2411E+01  0.2212E+02  0.2212E+02
      6.061  0.1659E+01  0.1660E+01  0.2244E+02  0.2244E+02
      6.253  0.1655E+01  0.1655E+01  0.2276E+02  0.2276E+02
      6.445  0.1812E+01  0.1812E+01  0.2311E+02  0.2311E+02
      6.636  0.1511E+01  0.1511E+01  0.2340E+02  0.2340E+02
      6.828  0.1703E+01  0.1702E+01  0.2373E+02  0.2373E+02
      7.020  0.2725E+01  0.2725E+01  0.2425E+02  0.2425E+02
      7.212  0.3440E+01  0.3440E+01  0.2492E+02  0.2492E+02
      7.403  0.2830E+01  0.2831E+01  0.2546E+02  0.2546E+02
      7.595  0.2369E+01  0.2369E+01  0.2592E+02  0.2592E+02
      7.787  0.1802E+01  0.1802E+01  0.2627E+02  0.2627E+02
      7.979  0.2383E+01  0.2383E+01  0.2673E+02  0.2672E+02
      8.170  0.3287E+01  0.3287E+01  0.2736E+02  0.2736E+02
      8.362  0.2917E+01  0.2918E+01  0.2792E+02  0.2792E+02
      8.554  0.3346E+01  0.3346E+01  0.2856E+02  0.2856E+02
      8.745  0.3593E+01  0.3593E+01  0.2925E+02  0.2925E+02
      8.937  0.3521E+01  0.3521E+01  0.2993E+02  0.2993E+02
      9.129  0.3608E+01  0.3608E+01  0.3062E+02  0.3062E+02
      9.321  0.3604E+01  0.3604E+01  0.3132E+02  0.3132E+02
      9.512  0.3642E+01  0.3642E+01  0.3202E+02  0.3202E+02
      9.704  0.3915E+01  0.3915E+01  0.3277E+02  0.3277E+02
      9.896  0.4415E+01  0.4414E+01  0.3362E+02  0.3362E+02
     10.088  0.4670E+01  0.4670E+01  0.3452E+02  0.3452E+02
     10.279  0.4850E+01  0.4851E+01  0.3545E+02  0.3545E+02
     10.471  0.5392E+01  0.5393E+01  0.3649E+02  0.3649E+02
     10.663  0.5749E+01  0.5748E+01  0.3760E+02  0.3760E+02
     10.855  0.4578E+01  0.4579E+01  0.3848E+02  0.3848E+02
     11.046  0.3274E+01  0.3274E+01  0.3911E+02  0.3911E+02
     11.238  0.2994E+01  0.2994E+01  0.3969E+02  0.3969E+02
     11.430  0.3435E+01  0.3436E+01  0.4035E+02  0.4035E+02
     11.622  0.2288E+01  0.2288E+01  0.4079E+02  0.4079E+02
     11.813  0.2037E+01  0.2037E+01  0.4118E+02  0.4118E+02
     12.005  0.1964E+01  0.1963E+01  0.4156E+02  0.4156E+02
     12.197  0.1584E+01  0.1584E+01  0.4187E+02  0.4187E+02
     12.388  0.1917E+01  0.1917E+01  0.4223E+02  0.4223E+02
     12.580  0.1468E+01  0.1468E+01  0.4252E+02  0.4252E+02
     12.772  0.2044E+01  0.2044E+01  0.4291E+02  0.4291E+02
     12.964  0.1907E+01  0.1906E+01  0.4328E+02  0.4328E+02
     13.155  0.1943E+01  0.1943E+01  0.4365E+02  0.4365E+02
     13.347  0.1679E+01  0.1679E+01  0.4397E+02  0.4397E+02
     13.539  0.1864E+01  0.1864E+01  0.4433E+02  0.4433E+02
     13.731  0.2409E+01  0.2409E+01  0.4480E+02  0.4480E+02
     13.922  0.3348E+01  0.3348E+01  0.4544E+02  0.4544E+02
     14.114  0.4113E+01  0.4113E+01  0.4623E+02  0.4623E+02
     14.306  0.3717E+01  0.3717E+01  0.4694E+02  0.4694E+02
     14.498  0.3743E+01  0.3743E+01  0.4766E+02  0.4766E+02
     14.689  0.4183E+01  0.4184E+01  0.4847E+02  0.4847E+02
     14.881  0.4140E+01  0.4143E+01  0.4927E+02  0.4927E+02
     15.073  0.3421E+01  0.3421E+01  0.4992E+02  0.4993E+02
     15.264  0.3323E+01  0.3325E+01  0.5057E+02  0.5057E+02
     15.456  0.3805E+01  0.3841E+01  0.5130E+02  0.5131E+02
     15.648  0.4488E+01  0.4520E+01  0.5216E+02  0.5217E+02
     15.840  0.4536E+01  0.4630E+01  0.5303E+02  0.5306E+02
     16.031  0.3958E+01  0.4083E+01  0.5379E+02  0.5385E+02
     16.223  0.4110E+01  0.3823E+01  0.5459E+02  0.5459E+02
     16.415  0.2766E+01  0.2632E+01  0.5512E+02  0.5509E+02
     16.607  0.2233E+01  0.2283E+01  0.5555E+02  0.5554E+02
     16.798  0.1441E+01  0.1659E+01  0.5583E+02  0.5585E+02
     16.990  0.7579E+00  0.6340E+00  0.5598E+02  0.5598E+02
     17.182  0.1196E+00  0.1054E+00  0.5600E+02  0.5600E+02
     17.374  0.2033E-02  0.3221E-02  0.5600E+02  0.5600E+02
     17.565  0.0000E+00  0.0000E+00  0.5600E+02  0.5600E+02
     17.757  0.0000E+00  0.0000E+00  0.5600E+02  0.5600E+02
     17.949  0.0000E+00  0.0000E+00  0.5600E+02  0.5600E+02
     18.140  0.0000E+00  0.0000E+00  0.5600E+02  0.5600E+02
     18.332  0.0000E+00  0.0000E+00  0.5600E+02  0.5600E+02
     18.524  0.0000E+00  0.0000E+00  0.5600E+02  0.5600E+02
     18.716  0.0000E+00  0.0000E+00  0.5600E+02  0.5600E+02
     18.907  0.0000E+00  0.0000E+00  0.5600E+02  0.5600E+02
     19.099  0.0000E+00  0.0000E+00  0.5600E+02  0.5600E+02
     19.291  0.0000E+00  0.0000E+00  0.5600E+02  0.5600E+02
     19.483  0.0000E+00  0.0000E+00  0.5600E+02  0.5600E+02
     19.674  0.0000E+00  0.0000E+00  0.5600E+02  0.5600E+02
     19.67437671    -37.84609809  301     12.26725560      1.00000000
    -37.846  0.0000E+00  0.0000E+00  0.0000E+00  0.0000E+00  0.0000E+00  0.0000E+00  0.0000E+00  0.0000E+00  0.0000E+00  0.0000E+00  0.0000E+00  0.0000E+00  0.0000E+00  0.0000E+00  0.0000E+00  0.0000E+00  0.0000E+00  0.0000E+00
    -37.654  0.0000E+00  0.0000E+00  0.0000E+00  0.0000E+00  0.0000E+00  0.0000E+00  0.0000E+00  0.0000E+00  0.0000E+00  0.0000E+00  0.0000E+00  0.0000E+00  0.0000E+00  0.0000E+00  0.0000E+00  0.0000E+00  0.0000E+00  0.0000E+00
    -37.463  0.0000E+00  0.0000E+00  0.0000E+00  0.0000E+00  0.0000E+00  0.0000E+00  0.0000E+00  0.0000E+00  0.0000E+00  0.0000E+00  0.0000E+00  0.0000E+00  0.0000E+00  0.0000E+00  0.0000E+00  0.0000E+00  0.0000E+00  0.0000E+00
    -37.271  0.0000E+00  0.0000E+00  0.0000E+00  0.0000E+00  0.0000E+00  0.0000E+00  0.0000E+00  0.0000E+00  0.0000E+00  0.0000E+00  0.0000E+00  0.0000E+00  0.0000E+00  0.0000E+00  0.0000E+00  0.0000E+00  0.0000E+00  0.0000E+00
    -37.079  0.0000E+00  0.0000E+00  0.0000E+00  0.0000E+00  0.0000E+00  0.0000E+00  0.0000E+00  0.0000E+00  0.0000E+00  0.0000E+00  0.0000E+00  0.0000E+00  0.0000E+00  0.0000E+00  0.0000E+00  0.0000E+00  0.0000E+00  0.0000E+00
    -36.887  0.0000E+00  0.0000E+00  0.0000E+00  0.0000E+00  0.0000E+00  0.0000E+00  0.0000E+00  0.0000E+00  0.0000E+00  0.0000E+00  0.0000E+00  0.0000E+00  0.0000E+00  0.0000E+00  0.0000E+00  0.0000E+00  0.0000E+00  0.0000E+00
    -36.696  0.0000E+00  0.0000E+00  0.0000E+00  0.0000E+00  0.0000E+00  0.0000E+00  0.0000E+00  0.0000E+00  0.0000E+00  0.0000E+00  0.0000E+00  0.0000E+00  0.0000E+00  0.0000E+00  0.0000E+00  0.0000E+00  0.0000E+00  0.0000E+00
    -36.504  0.0000E+00  0.0000E+00  0.0000E+00  0.0000E+00  0.0000E+00  0.0000E+00  0.0000E+00  0.0000E+00  0.0000E+00  0.0000E+00  0.0000E+00  0.0000E+00  0.0000E+00  0.0000E+00  0.0000E+00  0.0000E+00  0.0000E+00  0.0000E+00
    -36.312  0.0000E+00  0.0000E+00  0.0000E+00  0.0000E+00  0.0000E+00  0.0000E+00  0.0000E+00  0.0000E+00  0.0000E+00  0.0000E+00  0.0000E+00  0.0000E+00  0.0000E+00  0.0000E+00  0.0000E+00  0.0000E+00  0.0000E+00  0.0000E+00
    -36.120  0.0000E+00  0.0000E+00  0.0000E+00  0.0000E+00  0.0000E+00  0.0000E+00  0.0000E+00  0.0000E+00  0.0000E+00  0.0000E+00  0.0000E+00  0.0000E+00  0.0000E+00  0.0000E+00  0.0000E+00  0.0000E+00  0.0000E+00  0.0000E+00
    -35.929  0.0000E+00  0.0000E+00  0.0000E+00  0.0000E+00  0.0000E+00  0.0000E+00  0.0000E+00  0.0000E+00  0.0000E+00  0.0000E+00  0.0000E+00  0.0000E+00  0.0000E+00  0.0000E+00  0.0000E+00  0.0000E+00  0.0000E+00  0.0000E+00
    -35.737  0.1440E-03  0.1459E-03  0.3664E-10  0.3739E-10  0.2258E-08  0.2288E-08  0.3664E-10  0.3739E-10  0.4818E-13  0.4848E-13  0.3297E-13  0.3275E-13  0.8638E-10  0.8742E-10  0.3297E-13  0.3275E-13  0.4030E-10  0.4119E-10
    -35.545  0.6512E-02  0.6597E-02  0.1657E-08  0.1691E-08  0.1021E-06  0.1034E-06  0.1657E-08  0.1691E-08  0.2179E-11  0.2192E-11  0.1491E-11  0.1481E-11  0.3906E-08  0.3953E-08  0.1491E-11  0.1481E-11  0.1822E-08  0.1863E-08
    -35.354  0.2840E+00  0.2875E+00  0.7227E-07  0.7368E-07  0.4451E-05  0.4506E-05  0.7227E-07  0.7368E-07  0.9507E-10  0.9561E-10  0.6494E-10  0.6445E-10  0.1697E-06  0.1716E-06  0.6494E-10  0.6445E-10  0.7961E-07  0.8131E-07
    -35.162  0.3487E+01  0.3496E+01  0.8842E-06  0.8926E-06  0.5430E-04  0.5445E-04  0.8842E-06  0.8926E-06  0.1169E-08  0.1166E-08  0.7803E-09  0.7678E-09  0.1984E-05  0.1986E-05  0.7803E-09  0.7678E-09  0.9881E-06  0.9996E-06
    -34.970  0.1353E+01  0.1341E+01  0.3400E-06  0.3389E-06  0.2091E-04  0.2071E-04  0.3400E-06  0.3389E-06  0.4502E-09  0.4443E-09  0.2924E-09  0.2844E-09  0.7209E-06  0.7131E-06  0.2924E-09  0.2844E-09  0.3830E-06  0.3827E-06
    -34.778  0.0000E+00  0.0000E+00  0.0000E+00  0.0000E+00  0.0000E+00  0.0000E+00  0.0000E+00  0.0000E+00  0.0000E+00  0.0000E+00  0.0000E+00  0.0000E+00  0.0000E+00  0.0000E+00  0.0000E+00  0.0000E+00  0.0000E+00  0.0000E+00
    -34.587  0.0000E+00  0.0000E+00  0.0000E+00  0.0000E+00  0.0000E+00  0.0000E+00  0.0000E+00  0.0000E+00  0.0000E+00  0.0000E+00  0.0000E+00  0.0000E+00  0.0000E+00  0.0000E+00  0.0000E+00  0.0000E+00  0.0000E+00  0.0000E+00
    -34.395  0.0000E+00  0.0000E+00  0.0000E+00  0.0000E+00  0.0000E+00  0.0000E+00  0.0000E+00  0.0000E+00  0.0000E+00  0.0000E+00  0.0000E+00  0.0000E+00  0.0000E+00  0.0000E+00  0.0000E+00  0.0000E+00  0.0000E+00  0.0000E+00
    -34.203  0.0000E+00  0.0000E+00  0.0000E+00  0.0000E+00  0.0000E+00  0.0000E+00  0.0000E+00  0.0000E+00  0.0000E+00  0.0000E+00  0.0000E+00  0.0000E+00  0.0000E+00  0.0000E+00  0.0000E+00  0.0000E+00  0.0000E+00  0.0000E+00
    -34.011  0.0000E+00  0.0000E+00  0.0000E+00  0.0000E+00  0.0000E+00  0.0000E+00  0.0000E+00  0.0000E+00  0.0000E+00  0.0000E+00  0.0000E+00  0.0000E+00  0.0000E+00  0.0000E+00  0.0000E+00  0.0000E+00  0.0000E+00  0.0000E+00
    -33.820  0.0000E+00  0.0000E+00  0.0000E+00  0.0000E+00  0.0000E+00  0.0000E+00  0.0000E+00  0.0000E+00  0.0000E+00  0.0000E+00  0.0000E+00  0.0000E+00  0.0000E+00  0.0000E+00  0.0000E+00  0.0000E+00  0.0000E+00  0.0000E+00
    -33.628  0.0000E+00  0.0000E+00  0.0000E+00  0.0000E+00  0.0000E+00  0.0000E+00  0.0000E+00  0.0000E+00  0.0000E+00  0.0000E+00  0.0000E+00  0.0000E+00  0.0000E+00  0.0000E+00  0.0000E+00  0.0000E+00  0.0000E+00  0.0000E+00
    -33.436  0.0000E+00  0.0000E+00  0.0000E+00  0.0000E+00  0.0000E+00  0.0000E+00  0.0000E+00  0.0000E+00  0.0000E+00  0.0000E+00  0.0000E+00  0.0000E+00  0.0000E+00  0.0000E+00  0.0000E+00  0.0000E+00  0.0000E+00  0.0000E+00
    -33.244  0.0000E+00  0.0000E+00  0.0000E+00  0.0000E+00  0.0000E+00  0.0000E+00  0.0000E+00  0.0000E+00  0.0000E+00  0.0000E+00  0.0000E+00  0.0000E+00  0.0000E+00  0.0000E+00  0.0000E+00  0.0000E+00  0.0000E+00  0.0000E+00
    -33.053  0.0000E+00  0.0000E+00  0.0000E+00  0.0000E+00  0.0000E+00  0.0000E+00  0.0000E+00  0.0000E+00  0.0000E+00  0.0000E+00  0.0000E+00  0.0000E+00  0.0000E+00  0.0000E+00  0.0000E+00  0.0000E+00  0.0000E+00  0.0000E+00
    -32.861  0.0000E+00  0.0000E+00  0.0000E+00  0.0000E+00  0.0000E+00  0.0000E+00  0.0000E+00  0.0000E+00  0.0000E+00  0.0000E+00  0.0000E+00  0.0000E+00  0.0000E+00  0.0000E+00  0.0000E+00  0.0000E+00  0.0000E+00  0.0000E+00
    -32.669  0.0000E+00  0.0000E+00  0.0000E+00  0.0000E+00  0.0000E+00  0.0000E+00  0.0000E+00  0.0000E+00  0.0000E+00  0.0000E+00  0.0000E+00  0.0000E+00  0.0000E+00  0.0000E+00  0.0000E+00  0.0000E+00  0.0000E+00  0.0000E+00
    -32.478  0.0000E+00  0.0000E+00  0.0000E+00  0.0000E+00  0.0000E+00  0.0000E+00  0.0000E+00  0.0000E+00  0.0000E+00  0.0000E+00  0.0000E+00  0.0000E+00  0.0000E+00  0.0000E+00  0.0000E+00  0.0000E+00  0.0000E+00  0.0000E+00
    -32.286  0.0000E+00  0.0000E+00  0.0000E+00  0.0000E+00  0.0000E+00  0.0000E+00  0.0000E+00  0.0000E+00  0.0000E+00  0.0000E+00  0.0000E+00  0.0000E+00  0.0000E+00  0.0000E+00  0.0000E+00  0.0000E+00  0.0000E+00  0.0000E+00
    -32.094  0.0000E+00  0.0000E+00  0.0000E+00  0.0000E+00  0.0000E+00  0.0000E+00  0.0000E+00  0.0000E+00  0.0000E+00  0.0000E+00  0.0000E+00  0.0000E+00  0.0000E+00  0.0000E+00  0.0000E+00  0.0000E+00  0.0000E+00  0.0000E+00
    -31.902  0.0000E+00  0.0000E+00  0.0000E+00  0.0000E+00  0.0000E+00  0.0000E+00  0.0000E+00  0.0000E+00  0.0000E+00  0.0000E+00  0.0000E+00  0.0000E+00  0.0000E+00  0.0000E+00  0.0000E+00  0.0000E+00  0.0000E+00  0.0000E+00
    -31.711  0.0000E+00  0.0000E+00  0.0000E+00  0.0000E+00  0.0000E+00  0.0000E+00  0.0000E+00  0.0000E+00  0.0000E+00  0.0000E+00  0.0000E+00  0.0000E+00  0.0000E+00  0.0000E+00  0.0000E+00  0.0000E+00  0.0000E+00  0.0000E+00
    -31.519  0.0000E+00  0.0000E+00  0.0000E+00  0.0000E+00  0.0000E+00  0.0000E+00  0.0000E+00  0.0000E+00  0.0000E+00  0.0000E+00  0.0000E+00  0.0000E+00  0.0000E+00  0.0000E+00  0.0000E+00  0.0000E+00  0.0000E+00  0.0000E+00
    -31.327  0.0000E+00  0.0000E+00  0.0000E+00  0.0000E+00  0.0000E+00  0.0000E+00  0.0000E+00  0.0000E+00  0.0000E+00  0.0000E+00  0.0000E+00  0.0000E+00  0.0000E+00  0.0000E+00  0.0000E+00  0.0000E+00  0.0000E+00  0.0000E+00
    -31.135  0.0000E+00  0.0000E+00  0.0000E+00  0.0000E+00  0.0000E+00  0.0000E+00  0.0000E+00  0.0000E+00  0.0000E+00  0.0000E+00  0.0000E+00  0.0000E+00  0.0000E+00  0.0000E+00  0.0000E+00  0.0000E+00  0.0000E+00  0.0000E+00
    -30.944  0.0000E+00  0.0000E+00  0.0000E+00  0.0000E+00  0.0000E+00  0.0000E+00  0.0000E+00  0.0000E+00  0.0000E+00  0.0000E+00  0.0000E+00  0.0000E+00  0.0000E+00  0.0000E+00  0.0000E+00  0.0000E+00  0.0000E+00  0.0000E+00
    -30.752  0.0000E+00  0.0000E+00  0.0000E+00  0.0000E+00  0.0000E+00  0.0000E+00  0.0000E+00  0.0000E+00  0.0000E+00  0.0000E+00  0.0000E+00  0.0000E+00  0.0000E+00  0.0000E+00  0.0000E+00  0.0000E+00  0.0000E+00  0.0000E+00
    -30.560  0.0000E+00  0.0000E+00  0.0000E+00  0.0000E+00  0.0000E+00  0.0000E+00  0.0000E+00  0.0000E+00  0.0000E+00  0.0000E+00  0.0000E+00  0.0000E+00  0.0000E+00  0.0000E+00  0.0000E+00  0.0000E+00  0.0000E+00  0.0000E+00
    -30.368  0.0000E+00  0.0000E+00  0.0000E+00  0.0000E+00  0.0000E+00  0.0000E+00  0.0000E+00  0.0000E+00  0.0000E+00  0.0000E+00  0.0000E+00  0.0000E+00  0.0000E+00  0.0000E+00  0.0000E+00  0.0000E+00  0.0000E+00  0.0000E+00
    -30.177  0.0000E+00  0.0000E+00  0.0000E+00  0.0000E+00  0.0000E+00  0.0000E+00  0.0000E+00  0.0000E+00  0.0000E+00  0.0000E+00  0.0000E+00  0.0000E+00  0.0000E+00  0.0000E+00  0.0000E+00  0.0000E+00  0.0000E+00  0.0000E+00
    -29.985  0.0000E+00  0.0000E+00  0.0000E+00  0.0000E+00  0.0000E+00  0.0000E+00  0.0000E+00  0.0000E+00  0.0000E+00  0.0000E+00  0.0000E+00  0.0000E+00  0.0000E+00  0.0000E+00  0.0000E+00  0.0000E+00  0.0000E+00  0.0000E+00
    -29.793  0.0000E+00  0.0000E+00  0.0000E+00  0.0000E+00  0.0000E+00  0.0000E+00  0.0000E+00  0.0000E+00  0.0000E+00  0.0000E+00  0.0000E+00  0.0000E+00  0.0000E+00  0.0000E+00  0.0000E+00  0.0000E+00  0.0000E+00  0.0000E+00
    -29.601  0.0000E+00  0.0000E+00  0.0000E+00  0.0000E+00  0.0000E+00  0.0000E+00  0.0000E+00  0.0000E+00  0.0000E+00  0.0000E+00  0.0000E+00  0.0000E+00  0.0000E+00  0.0000E+00  0.0000E+00  0.0000E+00  0.0000E+00  0.0000E+00
    -29.410  0.0000E+00  0.0000E+00  0.0000E+00  0.0000E+00  0.0000E+00  0.0000E+00  0.0000E+00  0.0000E+00  0.0000E+00  0.0000E+00  0.0000E+00  0.0000E+00  0.0000E+00  0.0000E+00  0.0000E+00  0.0000E+00  0.0000E+00  0.0000E+00
    -29.218  0.0000E+00  0.0000E+00  0.0000E+00  0.0000E+00  0.0000E+00  0.0000E+00  0.0000E+00  0.0000E+00  0.0000E+00  0.0000E+00  0.0000E+00  0.0000E+00  0.0000E+00  0.0000E+00  0.0000E+00  0.0000E+00  0.0000E+00  0.0000E+00
    -29.026  0.0000E+00  0.0000E+00  0.0000E+00  0.0000E+00  0.0000E+00  0.0000E+00  0.0000E+00  0.0000E+00  0.0000E+00  0.0000E+00  0.0000E+00  0.0000E+00  0.0000E+00  0.0000E+00  0.0000E+00  0.0000E+00  0.0000E+00  0.0000E+00
    -28.835  0.0000E+00  0.0000E+00  0.0000E+00  0.0000E+00  0.0000E+00  0.0000E+00  0.0000E+00  0.0000E+00  0.0000E+00  0.0000E+00  0.0000E+00  0.0000E+00  0.0000E+00  0.0000E+00  0.0000E+00  0.0000E+00  0.0000E+00  0.0000E+00
    -28.643  0.0000E+00  0.0000E+00  0.0000E+00  0.0000E+00  0.0000E+00  0.0000E+00  0.0000E+00  0.0000E+00  0.0000E+00  0.0000E+00  0.0000E+00  0.0000E+00  0.0000E+00  0.0000E+00  0.0000E+00  0.0000E+00  0.0000E+00  0.0000E+00
    -28.451  0.0000E+00  0.0000E+00  0.0000E+00  0.0000E+00  0.0000E+00  0.0000E+00  0.0000E+00  0.0000E+00  0.0000E+00  0.0000E+00  0.0000E+00  0.0000E+00  0.0000E+00  0.0000E+00  0.0000E+00  0.0000E+00  0.0000E+00  0.0000E+00
    -28.259  0.0000E+00  0.0000E+00  0.0000E+00  0.0000E+00  0.0000E+00  0.0000E+00  0.0000E+00  0.0000E+00  0.0000E+00  0.0000E+00  0.0000E+00  0.0000E+00  0.0000E+00  0.0000E+00  0.0000E+00  0.0000E+00  0.0000E+00  0.0000E+00