  16  16   1   0
  0.1360543E+02  0.3696475E-09  0.3696475E-09  0.1593150E-08  0.5000000E-15
  1.000000000000000E-004
  CAR 
 unknown system                          
     18.58770441    -38.88188213  301     11.43927549      1.00000000
    -38.882  0.0000E+00  0.0000E+00  0.0000E+00  0.0000E+00
    -38.690  0.0000E+00  0.0000E+00  0.0000E+00  0.0000E+00
    -38.499  0.0000E+00  0.0000E+00  0.0000E+00  0.0000E+00
    -38.307  0.0000E+00  0.0000E+00  0.0000E+00  0.0000E+00
    -38.116  0.0000E+00  0.0000E+00  0.0000E+00  0.0000E+00
    -37.924  0.0000E+00  0.0000E+00  0.0000E+00  0.0000E+00
    -37.732  0.0000E+00  0.0000E+00  0.0000E+00  0.0000E+00
    -37.541  0.0000E+00  0.0000E+00  0.0000E+00  0.0000E+00
    -37.349  0.0000E+00  0.0000E+00  0.0000E+00  0.0000E+00
    -37.158  0.0000E+00  0.0000E+00  0.0000E+00  0.0000E+00
    -36.966  0.0000E+00  0.0000E+00  0.0000E+00  0.0000E+00
    -36.775  0.6537E-03  0.6582E-03  0.1252E-03  0.1261E-03
    -36.583  0.2945E-01  0.2965E-01  0.5767E-02  0.5807E-02
    -36.392  0.1273E+01  0.1281E+01  0.2496E+00  0.2512E+00
    -36.200  0.1441E+02  0.1443E+02  0.3010E+01  0.3015E+01
    -36.008  0.5019E+01  0.4993E+01  0.3972E+01  0.3972E+01
    -35.817  0.0000E+00  0.0000E+00  0.4000E+01  0.4000E+01
    -35.625  0.0000E+00  0.0000E+00  0.4000E+01  0.4000E+01
    -35.434  0.0000E+00  0.0000E+00  0.4000E+01  0.4000E+01
    -35.242  0.0000E+00  0.0000E+00  0.4000E+01  0.4000E+01
    -35.051  0.0000E+00  0.0000E+00  0.4000E+01  0.4000E+01
    -34.859  0.0000E+00  0.0000E+00  0.4000E+01  0.4000E+01
    -34.667  0.0000E+00  0.0000E+00  0.4000E+01  0.4000E+01
    -34.476  0.0000E+00  0.0000E+00  0.4000E+01  0.4000E+01
    -34.284  0.0000E+00  0.0000E+00  0.4000E+01  0.4000E+01
    -34.093  0.0000E+00  0.0000E+00  0.4000E+01  0.4000E+01
    -33.901  0.0000E+00  0.0000E+00  0.4000E+01  0.4000E+01
    -33.710  0.0000E+00  0.0000E+00  0.4000E+01  0.4000E+01
    -33.518  0.0000E+00  0.0000E+00  0.4000E+01  0.4000E+01
    -33.326  0.0000E+00  0.0000E+00  0.4000E+01  0.4000E+01
    -33.135  0.0000E+00  0.0000E+00  0.4000E+01  0.4000E+01
    -32.943  0.0000E+00  0.0000E+00  0.4000E+01  0.4000E+01
    -32.752  0.0000E+00  0.0000E+00  0.4000E+01  0.4000E+01
    -32.560  0.0000E+00  0.0000E+00  0.4000E+01  0.4000E+01
    -32.369  0.0000E+00  0.0000E+00  0.4000E+01  0.4000E+01
    -32.177  0.0000E+00  0.0000E+00  0.4000E+01  0.4000E+01
    -31.986  0.0000E+00  0.0000E+00  0.4000E+01  0.4000E+01
    -31.794  0.0000E+00  0.0000E+00  0.4000E+01  0.4000E+01
    -31.602  0.0000E+00  0.0000E+00  0.4000E+01  0.4000E+01
    -31.411  0.0000E+00  0.0000E+00  0.4000E+01  0.4000E+01
    -31.219  0.0000E+00  0.0000E+00  0.4000E+01  0.4000E+01
    -31.028  0.0000E+00  0.0000E+00  0.4000E+01  0.4000E+01
    -30.836  0.0000E+00  0.0000E+00  0.4000E+01  0.4000E+01
    -30.645  0.0000E+00  0.0000E+00  0.4000E+01  0.4000E+01
    -30.453  0.0000E+00  0.0000E+00  0.4000E+01  0.4000E+01
    -30.261  0.0000E+00  0.0000E+00  0.4000E+01  0.4000E+01
    -30.070  0.0000E+00  0.0000E+00  0.4000E+01  0.4000E+01
    -29.878  0.0000E+00  0.0000E+00  0.4000E+01  0.4000E+01
    -29.687  0.0000E+00  0.0000E+00  0.4000E+01  0.4000E+01
    -29.495  0.0000E+00  0.0000E+00  0.4000E+01  0.4000E+01
    -29.304  0.0000E+00  0.0000E+00  0.4000E+01  0.4000E+01
    -29.112  0.0000E+00  0.0000E+00  0.4000E+01  0.4000E+01
    -28.920  0.0000E+00  0.0000E+00  0.4000E+01  0.4000E+01
    -28.729  0.0000E+00  0.0000E+00  0.4000E+01  0.4000E+01
    -28.537  0.0000E+00  0.0000E+00  0.4000E+01  0.4000E+01
    -28.346  0.0000E+00  0.0000E+00  0.4000E+01  0.4000E+01
    -28.154  0.0000E+00  0.0000E+00  0.4000E+01  0.4000E+01
    -27.963  0.0000E+00  0.0000E+00  0.4000E+01  0.4000E+01
    -27.771  0.0000E+00  0.0000E+00  0.4000E+01  0.4000E+01
    -27.580  0.0000E+00  0.0000E+00  0.4000E+01  0.4000E+01
    -27.388  0.0000E+00  0.0000E+00  0.4000E+01  0.4000E+01
    -27.196  0.0000E+00  0.0000E+00  0.4000E+01  0.4000E+01
    -27.005  0.0000E+00  0.0000E+00  0.4000E+01  0.4000E+01
    -26.813  0.0000E+00  0.0000E+00  0.4000E+01  0.4000E+01
    -26.622  0.0000E+00  0.0000E+00  0.4000E+01  0.4000E+01
    -26.430  0.0000E+00  0.0000E+00  0.4000E+01  0.4000E+01
    -26.239  0.0000E+00  0.0000E+00  0.4000E+01  0.4000E+01
    -26.047  0.0000E+00  0.0000E+00  0.4000E+01  0.4000E+01
    -25.855  0.0000E+00  0.0000E+00  0.4000E+01  0.4000E+01
    -25.664  0.0000E+00  0.0000E+00  0.4000E+01  0.4000E+01
    -25.472  0.0000E+00  0.0000E+00  0.4000E+01  0.4000E+01
    -25.281  0.0000E+00  0.0000E+00  0.4000E+01  0.4000E+01
    -25.089  0.0000E+00  0.0000E+00  0.4000E+01  0.4000E+01
    -24.898  0.0000E+00  0.0000E+00  0.4000E+01  0.4000E+01
    -24.706  0.0000E+00  0.0000E+00  0.4000E+01  0.4000E+01
    -24.514  0.0000E+00  0.0000E+00  0.4000E+01  0.4000E+01
    -24.323  0.0000E+00  0.0000E+00  0.4000E+01  0.4000E+01
    -24.131  0.0000E+00  0.0000E+00  0.4000E+01  0.4000E+01
    -23.940  0.0000E+00  0.0000E+00  0.4000E+01  0.4000E+01
    -23.748  0.0000E+00  0.0000E+00  0.4000E+01  0.4000E+01
    -23.557  0.0000E+00  0.0000E+00  0.4000E+01  0.4000E+01
    -23.365  0.0000E+00  0.0000E+00  0.4000E+01  0.4000E+01
    -23.174  0.0000E+00  0.0000E+00  0.4000E+01  0.4000E+01
    -22.982  0.0000E+00  0.0000E+00  0.4000E+01  0.4000E+01
    -22.790  0.0000E+00  0.0000E+00  0.4000E+01  0.4000E+01
    -22.599  0.0000E+00  0.0000E+00  0.4000E+01  0.4000E+01
    -22.407  0.0000E+00  0.0000E+00  0.4000E+01  0.4000E+01
    -22.216  0.0000E+00  0.0000E+00  0.4000E+01  0.4000E+01
    -22.024  0.0000E+00  0.0000E+00  0.4000E+01  0.4000E+01
    -21.833  0.0000E+00  0.0000E+00  0.4000E+01  0.4000E+01
    -21.641  0.0000E+00  0.0000E+00  0.4000E+01  0.4000E+01
    -21.449  0.0000E+00  0.0000E+00  0.4000E+01  0.4000E+01
    -21.258  0.0000E+00  0.0000E+00  0.4000E+01  0.4000E+01
    -21.066  0.0000E+00  0.0000E+00  0.4000E+01  0.4000E+01
    -20.875  0.0000E+00  0.0000E+00  0.4000E+01  0.4000E+01
    -20.683  0.0000E+00  0.0000E+00  0.4000E+01  0.4000E+01
    -20.492  0.0000E+00  0.0000E+00  0.4000E+01  0.4000E+01
    -20.300  0.0000E+00  0.0000E+00  0.4000E+01  0.4000E+01
    -20.108  0.0000E+00  0.0000E+00  0.4000E+01  0.4000E+01
    -19.917  0.0000E+00  0.0000E+00  0.4000E+01  0.4000E+01
    -19.725  0.0000E+00  0.0000E+00  0.4000E+01  0.4000E+01
    -19.534  0.0000E+00  0.0000E+00  0.4000E+01  0.4000E+01
    -19.342  0.0000E+00  0.0000E+00  0.4000E+01  0.4000E+01
    -19.151  0.0000E+00  0.0000E+00  0.4000E+01  0.4000E+01
    -18.959  0.0000E+00  0.0000E+00  0.4000E+01  0.4000E+01
    -18.768  0.0000E+00  0.0000E+00  0.4000E+01  0.4000E+01
    -18.576  0.0000E+00  0.0000E+00  0.4000E+01  0.4000E+01
    -18.384  0.0000E+00  0.0000E+00  0.4000E+01  0.4000E+01
    -18.193  0.0000E+00  0.0000E+00  0.4000E+01  0.4000E+01
    -18.001  0.0000E+00  0.0000E+00  0.4000E+01  0.4000E+01
    -17.810  0.0000E+00  0.0000E+00  0.4000E+01  0.4000E+01
    -17.618  0.0000E+00  0.0000E+00  0.4000E+01  0.4000E+01
    -17.427  0.0000E+00  0.0000E+00  0.4000E+01  0.4000E+01
    -17.235  0.0000E+00  0.0000E+00  0.4000E+01  0.4000E+01
    -17.043  0.0000E+00  0.0000E+00  0.4000E+01  0.4000E+01
    -16.852  0.0000E+00  0.0000E+00  0.4000E+01  0.4000E+01
    -16.660  0.0000E+00  0.0000E+00  0.4000E+01  0.4000E+01
    -16.469  0.0000E+00  0.0000E+00  0.4000E+01  0.4000E+01
    -16.277  0.0000E+00  0.0000E+00  0.4000E+01  0.4000E+01
    -16.086  0.0000E+00  0.0000E+00  0.4000E+01  0.4000E+01
    -15.894  0.0000E+00  0.0000E+00  0.4000E+01  0.4000E+01
    -15.702  0.0000E+00  0.0000E+00  0.4000E+01  0.4000E+01
    -15.511  0.0000E+00  0.0000E+00  0.4000E+01  0.4000E+01
    -15.319  0.2946E-04  0.2956E-04  0.4000E+01  0.4000E+01
    -15.128  0.5007E-02  0.5026E-02  0.4001E+01  0.4001E+01
    -14.936  0.2281E+00  0.2289E+00  0.4045E+01  0.4045E+01
    -14.745  0.7318E+01  0.7338E+01  0.5447E+01  0.5451E+01
    -14.553  0.3566E+02  0.3568E+02  0.1228E+02  0.1229E+02
    -14.362  0.1856E+02  0.1852E+02  0.1583E+02  0.1583E+02
    -14.170  0.6986E+00  0.6957E+00  0.1600E+02  0.1600E+02
    -13.978  0.0000E+00  0.0000E+00  0.1600E+02  0.1600E+02
    -13.787  0.0000E+00  0.0000E+00  0.1600E+02  0.1600E+02
    -13.595  0.0000E+00  0.0000E+00  0.1600E+02  0.1600E+02
    -13.404  0.0000E+00  0.0000E+00  0.1600E+02  0.1600E+02
    -13.212  0.0000E+00  0.0000E+00  0.1600E+02  0.1600E+02
    -13.021  0.0000E+00  0.0000E+00  0.1600E+02  0.1600E+02
    -12.829  0.0000E+00  0.0000E+00  0.1600E+02  0.1600E+02
    -12.637  0.0000E+00  0.0000E+00  0.1600E+02  0.1600E+02
    -12.446  0.0000E+00  0.0000E+00  0.1600E+02  0.1600E+02
    -12.254  0.0000E+00  0.0000E+00  0.1600E+02  0.1600E+02
    -12.063  0.0000E+00  0.0000E+00  0.1600E+02  0.1600E+02
    -11.871  0.0000E+00  0.0000E+00  0.1600E+02  0.1600E+02
    -11.680  0.0000E+00  0.0000E+00  0.1600E+02  0.1600E+02
    -11.488  0.0000E+00  0.0000E+00  0.1600E+02  0.1600E+02
    -11.296  0.0000E+00  0.0000E+00  0.1600E+02  0.1600E+02
    -11.105  0.0000E+00  0.0000E+00  0.1600E+02  0.1600E+02
    -10.913  0.0000E+00  0.0000E+00  0.1600E+02  0.1600E+02
    -10.722  0.0000E+00  0.0000E+00  0.1600E+02  0.1600E+02
    -10.530  0.0000E+00  0.0000E+00  0.1600E+02  0.1600E+02
    -10.339  0.0000E+00  0.0000E+00  0.1600E+02  0.1600E+02
    -10.147  0.0000E+00  0.0000E+00  0.1600E+02  0.1600E+02
     -9.956  0.0000E+00  0.0000E+00  0.1600E+02  0.1600E+02
     -9.764  0.0000E+00  0.0000E+00  0.1600E+02  0.1600E+02
     -9.572  0.0000E+00  0.0000E+00  0.1600E+02  0.1600E+02
     -9.381  0.0000E+00  0.0000E+00  0.1600E+02  0.1600E+02
     -9.189  0.0000E+00  0.0000E+00  0.1600E+02  0.1600E+02
     -8.998  0.0000E+00  0.0000E+00  0.1600E+02  0.1600E+02
     -8.806  0.0000E+00  0.0000E+00  0.1600E+02  0.1600E+02
     -8.615  0.0000E+00  0.0000E+00  0.1600E+02  0.1600E+02
     -8.423  0.0000E+00  0.0000E+00  0.1600E+02  0.1600E+02
     -8.231  0.0000E+00  0.0000E+00  0.1600E+02  0.1600E+02
     -8.040  0.0000E+00  0.0000E+00  0.1600E+02  0.1600E+02
     -7.848  0.0000E+00  0.0000E+00  0.1600E+02  0.1600E+02
     -7.657  0.0000E+00  0.0000E+00  0.1600E+02  0.1600E+02
     -7.465  0.0000E+00  0.0000E+00  0.1600E+02  0.1600E+02
     -7.274  0.0000E+00  0.0000E+00  0.1600E+02  0.1600E+02
     -7.082  0.0000E+00  0.0000E+00  0.1600E+02  0.1600E+02
     -6.890  0.0000E+00  0.0000E+00  0.1600E+02  0.1600E+02
     -6.699  0.0000E+00  0.0000E+00  0.1600E+02  0.1600E+02
     -6.507  0.0000E+00  0.0000E+00  0.1600E+02  0.1600E+02
     -6.316  0.0000E+00  0.0000E+00  0.1600E+02  0.1600E+02
     -6.124  0.0000E+00  0.0000E+00  0.1600E+02  0.1600E+02
     -5.933  0.0000E+00  0.0000E+00  0.1600E+02  0.1600E+02
     -5.741  0.0000E+00  0.0000E+00  0.1600E+02  0.1600E+02
     -5.550  0.0000E+00  0.0000E+00  0.1600E+02  0.1600E+02
     -5.358  0.0000E+00  0.0000E+00  0.1600E+02  0.1600E+02
     -5.166  0.0000E+00  0.0000E+00  0.1600E+02  0.1600E+02
     -4.975  0.0000E+00  0.0000E+00  0.1600E+02  0.1600E+02
     -4.783  0.0000E+00  0.0000E+00  0.1600E+02  0.1600E+02
     -4.592  0.0000E+00  0.0000E+00  0.1600E+02  0.1600E+02
     -4.400  0.0000E+00  0.0000E+00  0.1600E+02  0.1600E+02
     -4.209  0.0000E+00  0.0000E+00  0.1600E+02  0.1600E+02
     -4.017  0.0000E+00  0.0000E+00  0.1600E+02  0.1600E+02
     -3.825  0.0000E+00  0.0000E+00  0.1600E+02  0.1600E+02
     -3.634  0.0000E+00  0.0000E+00  0.1600E+02  0.1600E+02
     -3.442  0.0000E+00  0.0000E+00  0.1600E+02  0.1600E+02
     -3.251  0.0000E+00  0.0000E+00  0.1600E+02  0.1600E+02
     -3.059  0.0000E+00  0.0000E+00  0.1600E+02  0.1600E+02
     -2.868  0.0000E+00  0.0000E+00  0.1600E+02  0.1600E+02
     -2.676  0.0000E+00  0.0000E+00  0.1600E+02  0.1600E+02
     -2.484  0.0000E+00  0.0000E+00  0.1600E+02  0.1600E+02
     -2.293  0.0000E+00  0.0000E+00  0.1600E+02  0.1600E+02
     -2.101  0.0000E+00  0.0000E+00  0.1600E+02  0.1600E+02
     -1.910  0.0000E+00  0.0000E+00  0.1600E+02  0.1600E+02
     -1.718  0.0000E+00  0.0000E+00  0.1600E+02  0.1600E+02
     -1.527  0.0000E+00  0.0000E+00  0.1600E+02  0.1600E+02
     -1.335  0.0000E+00  0.0000E+00  0.1600E+02  0.1600E+02
     -1.144  0.0000E+00  0.0000E+00  0.1600E+02  0.1600E+02
     -0.952  0.0000E+00  0.0000E+00  0.1600E+02  0.1600E+02
     -0.760  0.0000E+00  0.0000E+00  0.1600E+02  0.1600E+02
     -0.569  0.0000E+00  0.0000E+00  0.1600E+02  0.1600E+02
     -0.377  0.0000E+00  0.0000E+00  0.1600E+02  0.1600E+02
     -0.186  0.2240E-05  0.2236E-05  0.1600E+02  0.1600E+02
      0.006  0.1308E-03  0.1306E-03  0.1600E+02  0.1600E+02
      0.197  0.5576E-02  0.5567E-02  0.1600E+02  0.1600E+02
      0.389  0.9276E-01  0.9269E-01  0.1602E+02  0.1602E+02
      0.581  0.2483E+00  0.2482E+00  0.1607E+02  0.1607E+02
      0.772  0.4189E+00  0.4189E+00  0.1615E+02  0.1615E+02
      0.964  0.4462E+00  0.4461E+00  0.1623E+02  0.1623E+02
      1.155  0.5890E+00  0.5890E+00  0.1635E+02  0.1635E+02
      1.347  0.6387E+00  0.6387E+00  0.1647E+02  0.1647E+02
      1.538  0.6905E+00  0.6903E+00  0.1660E+02  0.1660E+02
      1.730  0.9079E+00  0.9079E+00  0.1678E+02  0.1678E+02
      1.922  0.7889E+00  0.7890E+00  0.1693E+02  0.1693E+02
      2.113  0.1006E+01  0.1006E+01  0.1712E+02  0.1712E+02
      2.305  0.1219E+01  0.1219E+01  0.1736E+02  0.1736E+02
      2.496  0.1159E+01  0.1158E+01  0.1758E+02  0.1758E+02
      2.688  0.1348E+01  0.1348E+01  0.1784E+02  0.1784E+02
      2.879  0.1441E+01  0.1441E+01  0.1811E+02  0.1811E+02
      3.071  0.1794E+01  0.1794E+01  0.1846E+02  0.1846E+02
      3.262  0.1501E+01  0.1501E+01  0.1875E+02  0.1875E+02
      3.454  0.1780E+01  0.1780E+01  0.1909E+02  0.1909E+02
      3.646  0.1621E+01  0.1621E+01  0.1940E+02  0.1940E+02
      3.837  0.1613E+01  0.1613E+01  0.1971E+02  0.1971E+02
      4.029  0.1463E+01  0.1463E+01  0.1999E+02  0.1999E+02
      4.220  0.1148E+01  0.1148E+01  0.2021E+02  0.2021E+02
      4.412  0.1089E+01  0.1089E+01  0.2042E+02  0.2042E+02
      4.603  0.1635E+01  0.1634E+01  0.2074E+02  0.2074E+02
      4.795  0.2656E+01  0.2656E+01  0.2125E+02  0.2125E+02
      4.987  0.2126E+01  0.2126E+01  0.2166E+02  0.2166E+02
      5.178  0.2363E+01  0.2363E+01  0.2211E+02  0.2211E+02
      5.370  0.1789E+01  0.1790E+01  0.2246E+02  0.2246E+02
      5.561  0.1699E+01  0.1699E+01  0.2278E+02  0.2278E+02
      5.753  0.1913E+01  0.1914E+01  0.2315E+02  0.2315E+02
      5.944  0.1601E+01  0.1601E+01  0.2346E+02  0.2346E+02
      6.136  0.1849E+01  0.1849E+01  0.2381E+02  0.2381E+02
      6.328  0.3047E+01  0.3047E+01  0.2440E+02  0.2440E+02
      6.519  0.3394E+01  0.3394E+01  0.2505E+02  0.2505E+02
      6.711  0.2837E+01  0.2837E+01  0.2560E+02  0.2560E+02
      6.902  0.2215E+01  0.2215E+01  0.2602E+02  0.2602E+02
      7.094  0.1737E+01  0.1737E+01  0.2636E+02  0.2636E+02
      7.285  0.2769E+01  0.2769E+01  0.2689E+02  0.2689E+02
      7.477  0.3057E+01  0.3057E+01  0.2748E+02  0.2748E+02
      7.668  0.2930E+01  0.2930E+01  0.2804E+02  0.2804E+02
      7.860  0.3350E+01  0.3350E+01  0.2869E+02  0.2869E+02
      8.052  0.3644E+01  0.3644E+01  0.2939E+02  0.2939E+02
      8.243  0.3512E+01  0.3512E+01  0.3006E+02  0.3006E+02
      8.435  0.3663E+01  0.3662E+01  0.3077E+02  0.3077E+02
      8.626  0.3747E+01  0.3747E+01  0.3149E+02  0.3149E+02
      8.818  0.4244E+01  0.4244E+01  0.3230E+02  0.3230E+02
      9.009  0.4280E+01  0.4280E+01  0.3312E+02  0.3312E+02
      9.201  0.4879E+01  0.4879E+01  0.3406E+02  0.3406E+02
      9.393  0.4156E+01  0.4156E+01  0.3486E+02  0.3486E+02
      9.584  0.5407E+01  0.5408E+01  0.3590E+02  0.3590E+02
      9.776  0.5902E+01  0.5901E+01  0.3703E+02  0.3703E+02
      9.967  0.5406E+01  0.5406E+01  0.3807E+02  0.3807E+02
     10.159  0.3807E+01  0.3808E+01  0.3881E+02  0.3881E+02
     10.350  0.3185E+01  0.3185E+01  0.3942E+02  0.3942E+02
     10.542  0.3403E+01  0.3403E+01  0.4008E+02  0.4008E+02
     10.734  0.3009E+01  0.3008E+01  0.4066E+02  0.4066E+02
     10.925  0.1995E+01  0.1995E+01  0.4104E+02  0.4104E+02
     11.117  0.2028E+01  0.2028E+01  0.4143E+02  0.4143E+02
     11.308  0.1736E+01  0.1736E+01  0.4177E+02  0.4177E+02
     11.500  0.1893E+01  0.1893E+01  0.4213E+02  0.4213E+02
     11.691  0.1588E+01  0.1588E+01  0.4243E+02  0.4243E+02
     11.883  0.2019E+01  0.2019E+01  0.4282E+02  0.4282E+02
     12.074  0.2068E+01  0.2068E+01  0.4322E+02  0.4322E+02
     12.266  0.2080E+01  0.2080E+01  0.4362E+02  0.4362E+02
     12.458  0.1878E+01  0.1878E+01  0.4398E+02  0.4398E+02
     12.649  0.1990E+01  0.1990E+01  0.4437E+02  0.4437E+02
     12.841  0.2771E+01  0.2771E+01  0.4490E+02  0.4490E+02
     13.032  0.3831E+01  0.3831E+01  0.4563E+02  0.4563E+02
     13.224  0.4303E+01  0.4303E+01  0.4646E+02  0.4646E+02
     13.415  0.3915E+01  0.3915E+01  0.4721E+02  0.4721E+02
     13.607  0.4267E+01  0.4268E+01  0.4803E+02  0.4803E+02
     13.799  0.4452E+01  0.4453E+01  0.4889E+02  0.4889E+02
     13.990  0.4005E+01  0.3999E+01  0.4966E+02  0.4966E+02
     14.182  0.3649E+01  0.3649E+01  0.5036E+02  0.5036E+02
     14.373  0.4015E+01  0.4015E+01  0.5113E+02  0.5113E+02
     14.565  0.4909E+01  0.4872E+01  0.5207E+02  0.5207E+02
     14.756  0.4794E+01  0.4807E+01  0.5299E+02  0.5299E+02
     14.948  0.4474E+01  0.4473E+01  0.5386E+02  0.5385E+02
     15.140  0.4048E+01  0.4041E+01  0.5463E+02  0.5463E+02
     15.331  0.2907E+01  0.2871E+01  0.5519E+02  0.5518E+02
     15.523  0.2271E+01  0.2179E+01  0.5563E+02  0.5560E+02
     15.714  0.1370E+01  0.1467E+01  0.5590E+02  0.5588E+02
     15.906  0.4497E+00  0.5288E+00  0.5598E+02  0.5599E+02
     16.097  0.6619E-01  0.6636E-01  0.5600E+02  0.5600E+02
     16.289  0.3230E-02  0.1615E-02  0.5600E+02  0.5600E+02
     16.480  0.0000E+00  0.0000E+00  0.5600E+02  0.5600E+02
     16.672  0.0000E+00  0.0000E+00  0.5600E+02  0.5600E+02
     16.864  0.0000E+00  0.0000E+00  0.5600E+02  0.5600E+02
     17.055  0.0000E+00  0.0000E+00  0.5600E+02  0.5600E+02
     17.247  0.0000E+00  0.0000E+00  0.5600E+02  0.5600E+02
     17.438  0.0000E+00  0.0000E+00  0.5600E+02  0.5600E+02
     17.630  0.0000E+00  0.0000E+00  0.5600E+02  0.5600E+02
     17.821  0.0000E+00  0.0000E+00  0.5600E+02  0.5600E+02
     18.013  0.0000E+00  0.0000E+00  0.5600E+02  0.5600E+02
     18.205  0.0000E+00  0.0000E+00  0.5600E+02  0.5600E+02
     18.396  0.0000E+00  0.0000E+00  0.5600E+02  0.5600E+02
     18.588  0.0000E+00  0.0000E+00  0.5600E+02  0.5600E+02
     18.58770441    -38.88188213  301     11.43927549      1.00000000
    -38.882  0.0000E+00  0.0000E+00  0.0000E+00  0.0000E+00  0.0000E+00  0.0000E+00  0.0000E+00  0.0000E+00  0.0000E+00  0.0000E+00  0.0000E+00  0.0000E+00  0.0000E+00  0.0000E+00  0.0000E+00  0.0000E+00  0.0000E+00  0.0000E+00
    -38.690  0.0000E+00  0.0000E+00  0.0000E+00  0.0000E+00  0.0000E+00  0.0000E+00  0.0000E+00  0.0000E+00  0.0000E+00  0.0000E+00  0.0000E+00  0.0000E+00  0.0000E+00  0.0000E+00  0.0000E+00  0.0000E+00  0.0000E+00  0.0000E+00
    -38.499  0.0000E+00  0.0000E+00  0.0000E+00  0.0000E+00  0.0000E+00  0.0000E+00  0.0000E+00  0.0000E+00  0.0000E+00  0.0000E+00  0.0000E+00  0.0000E+00  0.0000E+00  0.0000E+00  0.0000E+00  0.0000E+00  0.0000E+00  0.0000E+00
    -38.307  0.0000E+00  0.0000E+00  0.0000E+00  0.0000E+00  0.0000E+00  0.0000E+00  0.0000E+00  0.0000E+00  0.0000E+00  0.0000E+00  0.0000E+00  0.0000E+00  0.0000E+00  0.0000E+00  0.0000E+00  0.0000E+00  0.0000E+00  0.0000E+00
    -38.116  0.0000E+00  0.0000E+00  0.0000E+00  0.0000E+00  0.0000E+00  0.0000E+00  0.0000E+00  0.0000E+00  0.0000E+00  0.0000E+00  0.0000E+00  0.0000E+00  0.0000E+00  0.0000E+00  0.0000E+00  0.0000E+00  0.0000E+00  0.0000E+00
    -37.924  0.0000E+00  0.0000E+00  0.0000E+00  0.0000E+00  0.0000E+00  0.0000E+00  0.0000E+00  0.0000E+00  0.0000E+00  0.0000E+00  0.0000E+00  0.0000E+00  0.0000E+00  0.0000E+00  0.0000E+00  0.0000E+00  0.0000E+00  0.0000E+00
    -37.732  0.0000E+00  0.0000E+00  0.0000E+00  0.0000E+00  0.0000E+00  0.0000E+00  0.0000E+00  0.0000E+00  0.0000E+00  0.0000E+00  0.0000E+00  0.0000E+00  0.0000E+00  0.0000E+00  0.0000E+00  0.0000E+00  0.0000E+00  0.0000E+00
    -37.541  0.0000E+00  0.0000E+00  0.0000E+00  0.0000E+00  0.0000E+00  0.0000E+00  0.0000E+00  0.0000E+00  0.0000E+00  0.0000E+00  0.0000E+00  0.0000E+00  0.0000E+00  0.0000E+00  0.0000E+00  0.0000E+00  0.0000E+00  0.0000E+00
    -37.349  0.0000E+00  0.0000E+00  0.0000E+00  0.0000E+00  0.0000E+00  0.0000E+00  0.0000E+00  0.0000E+00  0.0000E+00  0.0000E+00  0.0000E+00  0.0000E+00  0.0000E+00  0.0000E+00  0.0000E+00  0.0000E+00  0.0000E+00  0.0000E+00
    -37.158  0.0000E+00  0.0000E+00  0.0000E+00  0.0000E+00  0.0000E+00  0.0000E+00  0.0000E+00  0.0000E+00  0.0000E+00  0.0000E+00  0.0000E+00  0.0000E+00  0.0000E+00  0.0000E+00  0.0000E+00  0.0000E+00  0.0000E+00  0.0000E+00
    -36.966  0.0000E+00  0.0000E+00  0.0000E+00  0.0000E+00  0.0000E+00  0.0000E+00  0.0000E+00  0.0000E+00  0.0000E+00  0.0000E+00  0.0000E+00  0.0000E+00  0.0000E+00  0.0000E+00  0.0000E+00  0.0000E+00  0.0000E+00  0.0000E+00
    -36.775  0.1621E-03  0.1632E-03  0.2143E-10  0.2154E-10  0.1854E-08  0.1867E-08  0.2143E-10  0.2154E-10  0.2373E-13  0.2036E-13  0.1818E-13  0.1694E-13  0.7267E-10  0.7292E-10  0.1818E-13  0.1694E-13  0.2389E-10  0.2403E-10
    -36.583  0.7303E-02  0.7353E-02  0.9657E-09  0.9704E-09  0.8352E-07  0.8411E-07  0.9657E-09  0.9704E-09  0.1069E-11  0.9174E-12  0.8192E-12  0.7632E-12  0.3274E-08  0.3285E-08  0.8192E-12  0.7632E-12  0.1077E-08  0.1083E-08
    -36.392  0.3156E+00  0.3176E+00  0.4173E-07  0.4191E-07  0.3608E-05  0.3632E-05  0.4173E-07  0.4191E-07  0.4622E-10  0.3965E-10  0.3536E-10  0.3293E-10  0.1411E-06  0.1415E-06  0.3536E-10  0.3293E-10  0.4656E-07  0.4680E-07
    -36.200  0.3573E+01  0.3578E+01  0.4711E-06  0.4708E-06  0.4070E-04  0.4076E-04  0.4711E-06  0.4708E-06  0.5247E-09  0.4487E-09  0.3940E-09  0.3655E-09  0.1547E-05  0.1544E-05  0.3940E-09  0.3655E-09  0.5303E-06  0.5304E-06
    -36.008  0.1245E+01  0.1238E+01  0.1630E-06  0.1619E-06  0.1411E-04  0.1404E-04  0.1630E-06  0.1619E-06  0.1824E-09  0.1553E-09  0.1340E-09  0.1237E-09  0.5173E-06  0.5129E-06  0.1340E-09  0.1237E-09  0.1845E-06  0.1835E-06
    -35.817  0.0000E+00  0.0000E+00  0.0000E+00  0.0000E+00  0.0000E+00  0.0000E+00  0.0000E+00  0.0000E+00  0.0000E+00  0.0000E+00  0.0000E+00  0.0000E+00  0.0000E+00  0.0000E+00  0.0000E+00  0.0000E+00  0.0000E+00  0.0000E+00
    -35.625  0.0000E+00  0.0000E+00  0.0000E+00  0.0000E+00  0.0000E+00  0.0000E+00  0.0000E+00  0.0000E+00  0.0000E+00  0.0000E+00  0.0000E+00  0.0000E+00  0.0000E+00  0.0000E+00  0.0000E+00  0.0000E+00  0.0000E+00  0.0000E+00
    -35.434  0.0000E+00  0.0000E+00  0.0000E+00  0.0000E+00  0.0000E+00  0.0000E+00  0.0000E+00  0.0000E+00  0.0000E+00  0.0000E+00  0.0000E+00  0.0000E+00  0.0000E+00  0.0000E+00  0.0000E+00  0.0000E+00  0.0000E+00  0.0000E+00
    -35.242  0.0000E+00  0.0000E+00  0.0000E+00  0.0000E+00  0.0000E+00  0.0000E+00  0.0000E+00  0.0000E+00  0.0000E+00  0.0000E+00  0.0000E+00  0.0000E+00  0.0000E+00  0.0000E+00  0.0000E+00  0.0000E+00  0.0000E+00  0.0000E+00
    -35.051  0.0000E+00  0.0000E+00  0.0000E+00  0.0000E+00  0.0000E+00  0.0000E+00  0.0000E+00  0.0000E+00  0.0000E+00  0.0000E+00  0.0000E+00  0.0000E+00  0.0000E+00  0.0000E+00  0.0000E+00  0.0000E+00  0.0000E+00  0.0000E+00
    -34.859  0.0000E+00  0.0000E+00  0.0000E+00  0.0000E+00  0.0000E+00  0.0000E+00  0.0000E+00  0.0000E+00  0.0000E+00  0.0000E+00  0.0000E+00  0.0000E+00  0.0000E+00  0.0000E+00  0.0000E+00  0.0000E+00  0.0000E+00  0.0000E+00
    -34.667  0.0000E+00  0.0000E+00  0.0000E+00  0.0000E+00  0.0000E+00  0.0000E+00  0.0000E+00  0.0000E+00  0.0000E+00  0.0000E+00  0.0000E+00  0.0000E+00  0.0000E+00  0.0000E+00  0.0000E+00  0.0000E+00  0.0000E+00  0.0000E+00
    -34.476  0.0000E+00  0.0000E+00  0.0000E+00  0.0000E+00  0.0000E+00  0.0000E+00  0.0000E+00  0.0000E+00  0.0000E+00  0.0000E+00  0.0000E+00  0.0000E+00  0.0000E+00  0.0000E+00  0.0000E+00  0.0000E+00  0.0000E+00  0.0000E+00
    -34.284  0.0000E+00  0.0000E+00  0.0000E+00  0.0000E+00  0.0000E+00  0.0000E+00  0.0000E+00  0.0000E+00  0.0000E+00  0.0000E+00  0.0000E+00  0.0000E+00  0.0000E+00  0.0000E+00  0.0000E+00  0.0000E+00  0.0000E+00  0.0000E+00
    -34.093  0.0000E+00  0.0000E+00  0.0000E+00  0.0000E+00  0.0000E+00  0.0000E+00  0.0000E+00  0.0000E+00  0.0000E+00  0.0000E+00  0.0000E+00  0.0000E+00  0.0000E+00  0.0000E+00  0.0000E+00  0.0000E+00  0.0000E+00  0.0000E+00
    -33.901  0.0000E+00  0.0000E+00  0.0000E+00  0.0000E+00  0.0000E+00  0.0000E+00  0.0000E+00  0.0000E+00  0.0000E+00  0.0000E+00  0.0000E+00  0.0000E+00  0.0000E+00  0.0000E+00  0.0000E+00  0.0000E+00  0.0000E+00  0.0000E+00
    -33.710  0.0000E+00  0.0000E+00  0.0000E+00  0.0000E+00  0.0000E+00  0.0000E+00  0.0000E+00  0.0000E+00  0.0000E+00  0.0000E+00  0.0000E+00  0.0000E+00  0.0000E+00  0.0000E+00  0.0000E+00  0.0000E+00  0.0000E+00  0.0000E+00
    -33.518  0.0000E+00  0.0000E+00  0.0000E+00  0.0000E+00  0.0000E+00  0.0000E+00  0.0000E+00  0.0000E+00  0.0000E+00  0.0000E+00  0.0000E+00  0.0000E+00  0.0000E+00  0.0000E+00  0.0000E+00  0.0000E+00  0.0000E+00  0.0000E+00
    -33.326  0.0000E+00  0.0000E+00  0.0000E+00  0.0000E+00  0.0000E+00  0.0000E+00  0.0000E+00  0.0000E+00  0.0000E+00  0.0000E+00  0.0000E+00  0.0000E+00  0.0000E+00  0.0000E+00  0.0000E+00  0.0000E+00  0.0000E+00  0.0000E+00
    -33.135  0.0000E+00  0.0000E+00  0.0000E+00  0.0000E+00  0.0000E+00  0.0000E+00  0.0000E+00  0.0000E+00  0.0000E+00  0.0000E+00  0.0000E+00  0.0000E+00  0.0000E+00  0.0000E+00  0.0000E+00  0.0000E+00  0.0000E+00  0.0000E+00
    -32.943  0.0000E+00  0.0000E+00  0.0000E+00  0.0000E+00  0.0000E+00  0.0000E+00  0.0000E+00  0.0000E+00  0.0000E+00  0.0000E+00  0.0000E+00  0.0000E+00  0.0000E+00  0.0000E+00  0.0000E+00  0.0000E+00  0.0000E+00  0.0000E+00
    -32.752  0.0000E+00  0.0000E+00  0.0000E+00  0.0000E+00  0.0000E+00  0.0000E+00  0.0000E+00  0.0000E+00  0.0000E+00  0.0000E+00  0.0000E+00  0.0000E+00  0.0000E+00  0.0000E+00  0.0000E+00  0.0000E+00  0.0000E+00  0.0000E+00
    -32.560  0.0000E+00  0.0000E+00  0.0000E+00  0.0000E+00  0.0000E+00  0.0000E+00  0.0000E+00  0.0000E+00  0.0000E+00  0.0000E+00  0.0000E+00  0.0000E+00  0.0000E+00  0.0000E+00  0.0000E+00  0.0000E+00  0.0000E+00  0.0000E+00
    -32.369  0.0000E+00  0.0000E+00  0.0000E+00  0.0000E+00  0.0000E+00  0.0000E+00  0.0000E+00  0.0000E+00  0.0000E+00  0.0000E+00  0.0000E+00  0.0000E+00  0.0000E+00  0.0000E+00  0.0000E+00  0.0000E+00  0.0000E+00  0.0000E+00
    -32.177  0.0000E+00  0.0000E+00  0.0000E+00  0.0000E+00  0.0000E+00  0.0000E+00  0.0000E+00  0.0000E+00  0.0000E+00  0.0000E+00  0.0000E+00  0.0000E+00  0.0000E+00  0.0000E+00  0.0000E+00  0.0000E+00  0.0000E+00  0.0000E+00
    -31.986  0.0000E+00  0.0000E+00  0.0000E+00  0.0000E+00  0.0000E+00  0.0000E+00  0.0000E+00  0.0000E+00  0.0000E+00  0.0000E+00  0.0000E+00  0.0000E+00  0.0000E+00  0.0000E+00  0.0000E+00  0.0000E+00  0.0000E+00  0.0000E+00
    -31.794  0.0000E+00  0.0000E+00  0.0000E+00  0.0000E+00  0.0000E+00  0.0000E+00  0.0000E+00  0.0000E+00  0.0000E+00  0.0000E+00  0.0000E+00  0.0000E+00  0.0000E+00  0.0000E+00  0.0000E+00  0.0000E+00  0.0000E+00  0.0000E+00
    -31.602  0.0000E+00  0.0000E+00  0.0000E+00  0.0000E+00  0.0000E+00  0.0000E+00  0.0000E+00  0.0000E+00  0.0000E+00  0.0000E+00  0.0000E+00  0.0000E+00  0.0000E+00  0.0000E+00  0.0000E+00  0.0000E+00  0.0000E+00  0.0000E+00
    -31.411  0.0000E+00  0.0000E+00  0.0000E+00  0.0000E+00  0.0000E+00  0.0000E+00  0.0000E+00  0.0000E+00  0.0000E+00  0.0000E+00  0.0000E+00  0.0000E+00  0.0000E+00  0.0000E+00  0.0000E+00  0.0000E+00  0.0000E+00  0.0000E+00
    -31.219  0.0000E+00  0.0000E+00  0.0000E+00  0.0000E+00  0.0000E+00  0.0000E+00  0.0000E+00  0.0000E+00  0.0000E+00  0.0000E+00  0.0000E+00  0.0000E+00  0.0000E+00  0.0000E+00  0.0000E+00  0.0000E+00  0.0000E+00  0.0000E+00
    -31.028  0.0000E+00  0.0000E+00  0.0000E+00  0.0000E+00  0.0000E+00  0.0000E+00  0.0000E+00  0.0000E+00  0.0000E+00  0.0000E+00  0.0000E+00  0.0000E+00  0.0000E+00  0.0000E+00  0.0000E+00  0.0000E+00  0.0000E+00  0.0000E+00
    -30.836  0.0000E+00  0.0000E+00  0.0000E+00  0.0000E+00  0.0000E+00  0.0000E+00  0.0000E+00  0.0000E+00  0.0000E+00  0.0000E+00  0.0000E+00  0.0000E+00  0.0000E+00  0.0000E+00  0.0000E+00  0.0000E+00  0.0000E+00  0.0000E+00
    -30.645  0.0000E+00  0.0000E+00  0.0000E+00  0.0000E+00  0.0000E+00  0.0000E+00  0.0000E+00  0.0000E+00  0.0000E+00  0.0000E+00  0.0000E+00  0.0000E+00  0.0000E+00  0.0000E+00  0.0000E+00  0.0000E+00  0.0000E+00  0.0000E+00
    -30.453  0.0000E+00  0.0000E+00  0.0000E+00  0.0000E+00  0.0000E+00  0.0000E+00  0.0000E+00  0.0000E+00  0.0000E+00  0.0000E+00  0.0000E+00  0.0000E+00  0.0000E+00  0.0000E+00  0.0000E+00  0.0000E+00  0.0000E+00  0.0000E+00
    -30.261  0.0000E+00  0.0000E+00  0.0000E+00  0.0000E+00  0.0000E+00  0.0000E+00  0.0000E+00  0.0000E+00  0.0000E+00  0.0000E+00  0.0000E+00  0.0000E+00  0.0000E+00  0.0000E+00  0.0000E+00  0.0000E+00  0.0000E+00  0.0000E+00
    -30.070  0.0000E+00  0.0000E+00  0.0000E+00  0.0000E+00  0.0000E+00  0.0000E+00  0.0000E+00  0.0000E+00  0.0000E+00  0.0000E+00  0.0000E+00  0.0000E+00  0.0000E+00  0.0000E+00  0.0000E+00  0.0000E+00  0.0000E+00  0.0000E+00
    -29.878  0.0000E+00  0.0000E+00  0.0000E+00  0.0000E+00  0.0000E+00  0.0000E+00  0.0000E+00  0.0000E+00  0.0000E+00  0.0000E+00  0.0000E+00  0.0000E+00  0.0000E+00  0.0000E+00  0.0000E+00  0.0000E+00  0.0000E+00  0.0000E+00
    -29.687  0.0000E+00  0.0000E+00  0.0000E+00  0.0000E+00  0.0000E+00  0.0000E+00  0.0000E+00  0.0000E+00  0.0000E+00  0.0000E+00  0.0000E+00  0.0000E+00  0.0000E+00  0.0000E+00  0.0000E+00  0.0000E+00  0.0000E+00  0.0000E+00
    -29.495  0.0000E+00  0.0000E+00  0.0000E+00  0.0000E+00  0.0000E+00  0.0000E+00  0.0000E+00  0.0000E+00  0.0000E+00  0.0000E+00  0.0000E+00  0.0000E+00  0.0000E+00  0.0000E+00  0.0000E+00  0.0000E+00  0.0000E+00  0.0000E+00
    -29.304  0.0000E+00  0.0000E+00  0.0000E+00  0.0000E+00  0.0000E+00  0.0000E+00  0.0000E+00  0.0000E+00  0.0000E+00  0.0000E+00  0.0000E+00  0.0000E+00  0.0000E+00  0.0000E+00  0.0000E+00  0.0000E+00  0.0000E+00  0.0000E+00