  16  16   1   0
  0.2201000E+02  0.4339340E-09  0.4339340E-09  0.1870220E-08  0.5000000E-15
  1.000000000000000E-004
  CAR 
 unknown system                          
     11.80707714    -45.52719589  301      6.39534319      1.00000000
    -45.527  0.0000E+00  0.0000E+00  0.0000E+00  0.0000E+00
    -45.336  0.0000E+00  0.0000E+00  0.0000E+00  0.0000E+00
    -45.145  0.0000E+00  0.0000E+00  0.0000E+00  0.0000E+00
    -44.954  0.0000E+00  0.0000E+00  0.0000E+00  0.0000E+00
    -44.763  0.0000E+00  0.0000E+00  0.0000E+00  0.0000E+00
    -44.572  0.0000E+00  0.0000E+00  0.0000E+00  0.0000E+00
    -44.381  0.0000E+00  0.0000E+00  0.0000E+00  0.0000E+00
    -44.189  0.0000E+00  0.0000E+00  0.0000E+00  0.0000E+00
    -43.998  0.0000E+00  0.0000E+00  0.0000E+00  0.0000E+00
    -43.807  0.0000E+00  0.0000E+00  0.0000E+00  0.0000E+00
    -43.616  0.0000E+00  0.0000E+00  0.0000E+00  0.0000E+00
    -43.425  0.8602E-03  0.8641E-03  0.1644E-03  0.1651E-03
    -43.234  0.3839E-01  0.3856E-01  0.7501E-02  0.7534E-02
    -43.043  0.1616E+01  0.1623E+01  0.3163E+00  0.3176E+00
    -42.852  0.1502E+02  0.1503E+02  0.3188E+01  0.3191E+01
    -42.660  0.4134E+01  0.4119E+01  0.3978E+01  0.3978E+01
    -42.469  0.0000E+00  0.0000E+00  0.4000E+01  0.4000E+01
    -42.278  0.0000E+00  0.0000E+00  0.4000E+01  0.4000E+01
    -42.087  0.0000E+00  0.0000E+00  0.4000E+01  0.4000E+01
    -41.896  0.0000E+00  0.0000E+00  0.4000E+01  0.4000E+01
    -41.705  0.0000E+00  0.0000E+00  0.4000E+01  0.4000E+01
    -41.514  0.0000E+00  0.0000E+00  0.4000E+01  0.4000E+01
    -41.323  0.0000E+00  0.0000E+00  0.4000E+01  0.4000E+01
    -41.132  0.0000E+00  0.0000E+00  0.4000E+01  0.4000E+01
    -40.940  0.0000E+00  0.0000E+00  0.4000E+01  0.4000E+01
    -40.749  0.0000E+00  0.0000E+00  0.4000E+01  0.4000E+01
    -40.558  0.0000E+00  0.0000E+00  0.4000E+01  0.4000E+01
    -40.367  0.0000E+00  0.0000E+00  0.4000E+01  0.4000E+01
    -40.176  0.0000E+00  0.0000E+00  0.4000E+01  0.4000E+01
    -39.985  0.0000E+00  0.0000E+00  0.4000E+01  0.4000E+01
    -39.794  0.0000E+00  0.0000E+00  0.4000E+01  0.4000E+01
    -39.603  0.0000E+00  0.0000E+00  0.4000E+01  0.4000E+01
    -39.412  0.0000E+00  0.0000E+00  0.4000E+01  0.4000E+01
    -39.220  0.0000E+00  0.0000E+00  0.4000E+01  0.4000E+01
    -39.029  0.0000E+00  0.0000E+00  0.4000E+01  0.4000E+01
    -38.838  0.0000E+00  0.0000E+00  0.4000E+01  0.4000E+01
    -38.647  0.0000E+00  0.0000E+00  0.4000E+01  0.4000E+01
    -38.456  0.0000E+00  0.0000E+00  0.4000E+01  0.4000E+01
    -38.265  0.0000E+00  0.0000E+00  0.4000E+01  0.4000E+01
    -38.074  0.0000E+00  0.0000E+00  0.4000E+01  0.4000E+01
    -37.883  0.0000E+00  0.0000E+00  0.4000E+01  0.4000E+01
    -37.692  0.0000E+00  0.0000E+00  0.4000E+01  0.4000E+01
    -37.500  0.0000E+00  0.0000E+00  0.4000E+01  0.4000E+01
    -37.309  0.0000E+00  0.0000E+00  0.4000E+01  0.4000E+01
    -37.118  0.0000E+00  0.0000E+00  0.4000E+01  0.4000E+01
    -36.927  0.0000E+00  0.0000E+00  0.4000E+01  0.4000E+01
    -36.736  0.0000E+00  0.0000E+00  0.4000E+01  0.4000E+01
    -36.545  0.0000E+00  0.0000E+00  0.4000E+01  0.4000E+01
    -36.354  0.0000E+00  0.0000E+00  0.4000E+01  0.4000E+01
    -36.163  0.0000E+00  0.0000E+00  0.4000E+01  0.4000E+01
    -35.971  0.0000E+00  0.0000E+00  0.4000E+01  0.4000E+01
    -35.780  0.0000E+00  0.0000E+00  0.4000E+01  0.4000E+01
    -35.589  0.0000E+00  0.0000E+00  0.4000E+01  0.4000E+01
    -35.398  0.0000E+00  0.0000E+00  0.4000E+01  0.4000E+01
    -35.207  0.0000E+00  0.0000E+00  0.4000E+01  0.4000E+01
    -35.016  0.0000E+00  0.0000E+00  0.4000E+01  0.4000E+01
    -34.825  0.0000E+00  0.0000E+00  0.4000E+01  0.4000E+01
    -34.634  0.0000E+00  0.0000E+00  0.4000E+01  0.4000E+01
    -34.443  0.0000E+00  0.0000E+00  0.4000E+01  0.4000E+01
    -34.251  0.0000E+00  0.0000E+00  0.4000E+01  0.4000E+01
    -34.060  0.0000E+00  0.0000E+00  0.4000E+01  0.4000E+01
    -33.869  0.0000E+00  0.0000E+00  0.4000E+01  0.4000E+01
    -33.678  0.0000E+00  0.0000E+00  0.4000E+01  0.4000E+01
    -33.487  0.0000E+00  0.0000E+00  0.4000E+01  0.4000E+01
    -33.296  0.0000E+00  0.0000E+00  0.4000E+01  0.4000E+01
    -33.105  0.0000E+00  0.0000E+00  0.4000E+01  0.4000E+01
    -32.914  0.0000E+00  0.0000E+00  0.4000E+01  0.4000E+01
    -32.723  0.0000E+00  0.0000E+00  0.4000E+01  0.4000E+01
    -32.531  0.0000E+00  0.0000E+00  0.4000E+01  0.4000E+01
    -32.340  0.0000E+00  0.0000E+00  0.4000E+01  0.4000E+01
    -32.149  0.0000E+00  0.0000E+00  0.4000E+01  0.4000E+01
    -31.958  0.0000E+00  0.0000E+00  0.4000E+01  0.4000E+01
    -31.767  0.0000E+00  0.0000E+00  0.4000E+01  0.4000E+01
    -31.576  0.0000E+00  0.0000E+00  0.4000E+01  0.4000E+01
    -31.385  0.0000E+00  0.0000E+00  0.4000E+01  0.4000E+01
    -31.194  0.0000E+00  0.0000E+00  0.4000E+01  0.4000E+01
    -31.003  0.0000E+00  0.0000E+00  0.4000E+01  0.4000E+01
    -30.811  0.0000E+00  0.0000E+00  0.4000E+01  0.4000E+01
    -30.620  0.0000E+00  0.0000E+00  0.4000E+01  0.4000E+01
    -30.429  0.0000E+00  0.0000E+00  0.4000E+01  0.4000E+01
    -30.238  0.0000E+00  0.0000E+00  0.4000E+01  0.4000E+01
    -30.047  0.0000E+00  0.0000E+00  0.4000E+01  0.4000E+01
    -29.856  0.0000E+00  0.0000E+00  0.4000E+01  0.4000E+01
    -29.665  0.0000E+00  0.0000E+00  0.4000E+01  0.4000E+01
    -29.474  0.0000E+00  0.0000E+00  0.4000E+01  0.4000E+01
    -29.282  0.0000E+00  0.0000E+00  0.4000E+01  0.4000E+01
    -29.091  0.0000E+00  0.0000E+00  0.4000E+01  0.4000E+01
    -28.900  0.0000E+00  0.0000E+00  0.4000E+01  0.4000E+01
    -28.709  0.0000E+00  0.0000E+00  0.4000E+01  0.4000E+01
    -28.518  0.0000E+00  0.0000E+00  0.4000E+01  0.4000E+01
    -28.327  0.0000E+00  0.0000E+00  0.4000E+01  0.4000E+01
    -28.136  0.0000E+00  0.0000E+00  0.4000E+01  0.4000E+01
    -27.945  0.0000E+00  0.0000E+00  0.4000E+01  0.4000E+01
    -27.754  0.0000E+00  0.0000E+00  0.4000E+01  0.4000E+01
    -27.562  0.0000E+00  0.0000E+00  0.4000E+01  0.4000E+01
    -27.371  0.0000E+00  0.0000E+00  0.4000E+01  0.4000E+01
    -27.180  0.0000E+00  0.0000E+00  0.4000E+01  0.4000E+01
    -26.989  0.0000E+00  0.0000E+00  0.4000E+01  0.4000E+01
    -26.798  0.0000E+00  0.0000E+00  0.4000E+01  0.4000E+01
    -26.607  0.0000E+00  0.0000E+00  0.4000E+01  0.4000E+01
    -26.416  0.0000E+00  0.0000E+00  0.4000E+01  0.4000E+01
    -26.225  0.0000E+00  0.0000E+00  0.4000E+01  0.4000E+01
    -26.034  0.0000E+00  0.0000E+00  0.4000E+01  0.4000E+01
    -25.842  0.0000E+00  0.0000E+00  0.4000E+01  0.4000E+01
    -25.651  0.0000E+00  0.0000E+00  0.4000E+01  0.4000E+01
    -25.460  0.0000E+00  0.0000E+00  0.4000E+01  0.4000E+01
    -25.269  0.0000E+00  0.0000E+00  0.4000E+01  0.4000E+01
    -25.078  0.0000E+00  0.0000E+00  0.4000E+01  0.4000E+01
    -24.887  0.0000E+00  0.0000E+00  0.4000E+01  0.4000E+01
    -24.696  0.0000E+00  0.0000E+00  0.4000E+01  0.4000E+01
    -24.505  0.0000E+00  0.0000E+00  0.4000E+01  0.4000E+01
    -24.314  0.0000E+00  0.0000E+00  0.4000E+01  0.4000E+01
    -24.122  0.0000E+00  0.0000E+00  0.4000E+01  0.4000E+01
    -23.931  0.0000E+00  0.0000E+00  0.4000E+01  0.4000E+01
    -23.740  0.0000E+00  0.0000E+00  0.4000E+01  0.4000E+01
    -23.549  0.0000E+00  0.0000E+00  0.4000E+01  0.4000E+01
    -23.358  0.0000E+00  0.0000E+00  0.4000E+01  0.4000E+01
    -23.167  0.0000E+00  0.0000E+00  0.4000E+01  0.4000E+01
    -22.976  0.0000E+00  0.0000E+00  0.4000E+01  0.4000E+01
    -22.785  0.0000E+00  0.0000E+00  0.4000E+01  0.4000E+01
    -22.593  0.0000E+00  0.0000E+00  0.4000E+01  0.4000E+01
    -22.402  0.0000E+00  0.0000E+00  0.4000E+01  0.4000E+01
    -22.211  0.0000E+00  0.0000E+00  0.4000E+01  0.4000E+01
    -22.020  0.0000E+00  0.0000E+00  0.4000E+01  0.4000E+01
    -21.829  0.0000E+00  0.0000E+00  0.4000E+01  0.4000E+01
    -21.638  0.0000E+00  0.0000E+00  0.4000E+01  0.4000E+01
    -21.447  0.2164E-02  0.2169E-02  0.4000E+01  0.4000E+01
    -21.256  0.9658E-01  0.9681E-01  0.4019E+01  0.4019E+01
    -21.065  0.4097E+01  0.4106E+01  0.4802E+01  0.4804E+01
    -20.873  0.4321E+02  0.4323E+02  0.1306E+02  0.1307E+02
    -20.682  0.1493E+02  0.1491E+02  0.1591E+02  0.1591E+02
    -20.491  0.0000E+00  0.0000E+00  0.1600E+02  0.1600E+02
    -20.300  0.0000E+00  0.0000E+00  0.1600E+02  0.1600E+02
    -20.109  0.0000E+00  0.0000E+00  0.1600E+02  0.1600E+02
    -19.918  0.0000E+00  0.0000E+00  0.1600E+02  0.1600E+02
    -19.727  0.0000E+00  0.0000E+00  0.1600E+02  0.1600E+02
    -19.536  0.0000E+00  0.0000E+00  0.1600E+02  0.1600E+02
    -19.345  0.0000E+00  0.0000E+00  0.1600E+02  0.1600E+02
    -19.153  0.0000E+00  0.0000E+00  0.1600E+02  0.1600E+02
    -18.962  0.0000E+00  0.0000E+00  0.1600E+02  0.1600E+02
    -18.771  0.0000E+00  0.0000E+00  0.1600E+02  0.1600E+02
    -18.580  0.0000E+00  0.0000E+00  0.1600E+02  0.1600E+02
    -18.389  0.0000E+00  0.0000E+00  0.1600E+02  0.1600E+02
    -18.198  0.0000E+00  0.0000E+00  0.1600E+02  0.1600E+02
    -18.007  0.0000E+00  0.0000E+00  0.1600E+02  0.1600E+02
    -17.816  0.0000E+00  0.0000E+00  0.1600E+02  0.1600E+02
    -17.625  0.0000E+00  0.0000E+00  0.1600E+02  0.1600E+02
    -17.433  0.0000E+00  0.0000E+00  0.1600E+02  0.1600E+02
    -17.242  0.0000E+00  0.0000E+00  0.1600E+02  0.1600E+02
    -17.051  0.0000E+00  0.0000E+00  0.1600E+02  0.1600E+02
    -16.860  0.0000E+00  0.0000E+00  0.1600E+02  0.1600E+02
    -16.669  0.0000E+00  0.0000E+00  0.1600E+02  0.1600E+02
    -16.478  0.0000E+00  0.0000E+00  0.1600E+02  0.1600E+02
    -16.287  0.0000E+00  0.0000E+00  0.1600E+02  0.1600E+02
    -16.096  0.0000E+00  0.0000E+00  0.1600E+02  0.1600E+02
    -15.904  0.0000E+00  0.0000E+00  0.1600E+02  0.1600E+02
    -15.713  0.0000E+00  0.0000E+00  0.1600E+02  0.1600E+02
    -15.522  0.0000E+00  0.0000E+00  0.1600E+02  0.1600E+02
    -15.331  0.0000E+00  0.0000E+00  0.1600E+02  0.1600E+02
    -15.140  0.0000E+00  0.0000E+00  0.1600E+02  0.1600E+02
    -14.949  0.0000E+00  0.0000E+00  0.1600E+02  0.1600E+02
    -14.758  0.0000E+00  0.0000E+00  0.1600E+02  0.1600E+02
    -14.567  0.0000E+00  0.0000E+00  0.1600E+02  0.1600E+02
    -14.376  0.0000E+00  0.0000E+00  0.1600E+02  0.1600E+02
    -14.184  0.0000E+00  0.0000E+00  0.1600E+02  0.1600E+02
    -13.993  0.0000E+00  0.0000E+00  0.1600E+02  0.1600E+02
    -13.802  0.0000E+00  0.0000E+00  0.1600E+02  0.1600E+02
    -13.611  0.0000E+00  0.0000E+00  0.1600E+02  0.1600E+02
    -13.420  0.0000E+00  0.0000E+00  0.1600E+02  0.1600E+02
    -13.229  0.0000E+00  0.0000E+00  0.1600E+02  0.1600E+02
    -13.038  0.0000E+00  0.0000E+00  0.1600E+02  0.1600E+02
    -12.847  0.0000E+00  0.0000E+00  0.1600E+02  0.1600E+02
    -12.656  0.0000E+00  0.0000E+00  0.1600E+02  0.1600E+02
    -12.464  0.0000E+00  0.0000E+00  0.1600E+02  0.1600E+02
    -12.273  0.0000E+00  0.0000E+00  0.1600E+02  0.1600E+02
    -12.082  0.0000E+00  0.0000E+00  0.1600E+02  0.1600E+02
    -11.891  0.0000E+00  0.0000E+00  0.1600E+02  0.1600E+02
    -11.700  0.0000E+00  0.0000E+00  0.1600E+02  0.1600E+02
    -11.509  0.0000E+00  0.0000E+00  0.1600E+02  0.1600E+02
    -11.318  0.0000E+00  0.0000E+00  0.1600E+02  0.1600E+02
    -11.127  0.0000E+00  0.0000E+00  0.1600E+02  0.1600E+02
    -10.936  0.0000E+00  0.0000E+00  0.1600E+02  0.1600E+02
    -10.744  0.0000E+00  0.0000E+00  0.1600E+02  0.1600E+02
    -10.553  0.0000E+00  0.0000E+00  0.1600E+02  0.1600E+02
    -10.362  0.0000E+00  0.0000E+00  0.1600E+02  0.1600E+02
    -10.171  0.0000E+00  0.0000E+00  0.1600E+02  0.1600E+02
     -9.980  0.0000E+00  0.0000E+00  0.1600E+02  0.1600E+02
     -9.789  0.0000E+00  0.0000E+00  0.1600E+02  0.1600E+02
     -9.598  0.0000E+00  0.0000E+00  0.1600E+02  0.1600E+02
     -9.407  0.0000E+00  0.0000E+00  0.1600E+02  0.1600E+02
     -9.215  0.0000E+00  0.0000E+00  0.1600E+02  0.1600E+02
     -9.024  0.0000E+00  0.0000E+00  0.1600E+02  0.1600E+02
     -8.833  0.0000E+00  0.0000E+00  0.1600E+02  0.1600E+02
     -8.642  0.0000E+00  0.0000E+00  0.1600E+02  0.1600E+02
     -8.451  0.0000E+00  0.0000E+00  0.1600E+02  0.1600E+02
     -8.260  0.0000E+00  0.0000E+00  0.1600E+02  0.1600E+02
     -8.069  0.0000E+00  0.0000E+00  0.1600E+02  0.1600E+02
     -7.878  0.0000E+00  0.0000E+00  0.1600E+02  0.1600E+02
     -7.687  0.0000E+00  0.0000E+00  0.1600E+02  0.1600E+02
     -7.495  0.0000E+00  0.0000E+00  0.1600E+02  0.1600E+02
     -7.304  0.0000E+00  0.0000E+00  0.1600E+02  0.1600E+02
     -7.113  0.0000E+00  0.0000E+00  0.1600E+02  0.1600E+02
     -6.922  0.0000E+00  0.0000E+00  0.1600E+02  0.1600E+02
     -6.731  0.0000E+00  0.0000E+00  0.1600E+02  0.1600E+02
     -6.540  0.0000E+00  0.0000E+00  0.1600E+02  0.1600E+02
     -6.349  0.0000E+00  0.0000E+00  0.1600E+02  0.1600E+02
     -6.158  0.0000E+00  0.0000E+00  0.1600E+02  0.1600E+02
     -5.967  0.0000E+00  0.0000E+00  0.1600E+02  0.1600E+02
     -5.775  0.0000E+00  0.0000E+00  0.1600E+02  0.1600E+02
     -5.584  0.0000E+00  0.0000E+00  0.1600E+02  0.1600E+02
     -5.393  0.0000E+00  0.0000E+00  0.1600E+02  0.1600E+02
     -5.202  0.0000E+00  0.0000E+00  0.1600E+02  0.1600E+02
     -5.011  0.0000E+00  0.0000E+00  0.1600E+02  0.1600E+02
     -4.820  0.0000E+00  0.0000E+00  0.1600E+02  0.1600E+02
     -4.629  0.0000E+00  0.0000E+00  0.1600E+02  0.1600E+02
     -4.438  0.0000E+00  0.0000E+00  0.1600E+02  0.1600E+02
     -4.247  0.0000E+00  0.0000E+00  0.1600E+02  0.1600E+02
     -4.055  0.0000E+00  0.0000E+00  0.1600E+02  0.1600E+02
     -3.864  0.0000E+00  0.0000E+00  0.1600E+02  0.1600E+02
     -3.673  0.0000E+00  0.0000E+00  0.1600E+02  0.1600E+02
     -3.482  0.0000E+00  0.0000E+00  0.1600E+02  0.1600E+02
     -3.291  0.0000E+00  0.0000E+00  0.1600E+02  0.1600E+02
     -3.100  0.0000E+00  0.0000E+00  0.1600E+02  0.1600E+02
     -2.909  0.1093E-06  0.1095E-06  0.1600E+02  0.1600E+02
     -2.718  0.2710E-04  0.2715E-04  0.1600E+02  0.1600E+02
     -2.526  0.1265E-02  0.1267E-02  0.1600E+02  0.1600E+02
     -2.335  0.4425E-01  0.4430E-01  0.1601E+02  0.1601E+02
     -2.144  0.3173E+00  0.3174E+00  0.1607E+02  0.1607E+02
     -1.953  0.6103E+00  0.6103E+00  0.1619E+02  0.1619E+02
     -1.762  0.8146E+00  0.8147E+00  0.1634E+02  0.1634E+02
     -1.571  0.9147E+00  0.9147E+00  0.1652E+02  0.1652E+02
     -1.380  0.1176E+01  0.1176E+01  0.1674E+02  0.1674E+02
     -1.189  0.1181E+01  0.1181E+01  0.1697E+02  0.1697E+02
     -0.998  0.1524E+01  0.1525E+01  0.1726E+02  0.1726E+02
     -0.806  0.1581E+01  0.1581E+01  0.1756E+02  0.1756E+02
     -0.615  0.1764E+01  0.1764E+01  0.1790E+02  0.1790E+02
     -0.424  0.1931E+01  0.1931E+01  0.1827E+02  0.1827E+02
     -0.233  0.1808E+01  0.1808E+01  0.1862E+02  0.1862E+02
     -0.042  0.1768E+01  0.1769E+01  0.1896E+02  0.1896E+02
      0.149  0.1919E+01  0.1919E+01  0.1933E+02  0.1933E+02
      0.340  0.2135E+01  0.2135E+01  0.1974E+02  0.1974E+02
      0.531  0.2086E+01  0.2086E+01  0.2014E+02  0.2014E+02
      0.722  0.2386E+01  0.2387E+01  0.2059E+02  0.2059E+02
      0.914  0.2796E+01  0.2796E+01  0.2113E+02  0.2113E+02
      1.105  0.2635E+01  0.2635E+01  0.2164E+02  0.2164E+02
      1.296  0.2455E+01  0.2455E+01  0.2211E+02  0.2211E+02
      1.487  0.2321E+01  0.2322E+01  0.2255E+02  0.2255E+02
      1.678  0.2882E+01  0.2882E+01  0.2311E+02  0.2311E+02
      1.869  0.2653E+01  0.2653E+01  0.2361E+02  0.2361E+02
      2.060  0.3267E+01  0.3267E+01  0.2424E+02  0.2424E+02
      2.251  0.3719E+01  0.3719E+01  0.2495E+02  0.2495E+02
      2.442  0.3446E+01  0.3446E+01  0.2561E+02  0.2561E+02
      2.634  0.1737E+01  0.1737E+01  0.2595E+02  0.2595E+02
      2.825  0.2518E+01  0.2518E+01  0.2643E+02  0.2643E+02
      3.016  0.2792E+01  0.2792E+01  0.2697E+02  0.2697E+02
      3.207  0.2122E+01  0.2122E+01  0.2737E+02  0.2737E+02
      3.398  0.2915E+01  0.2916E+01  0.2793E+02  0.2793E+02
      3.589  0.3803E+01  0.3803E+01  0.2866E+02  0.2866E+02
      3.780  0.3407E+01  0.3407E+01  0.2931E+02  0.2931E+02
      3.971  0.3755E+01  0.3755E+01  0.3004E+02  0.3004E+02
      4.163  0.4217E+01  0.4217E+01  0.3084E+02  0.3084E+02
      4.354  0.5687E+01  0.5688E+01  0.3193E+02  0.3193E+02
      4.545  0.5587E+01  0.5587E+01  0.3300E+02  0.3300E+02
      4.736  0.4733E+01  0.4733E+01  0.3391E+02  0.3391E+02
      4.927  0.5956E+01  0.5957E+01  0.3506E+02  0.3506E+02
      5.118  0.7047E+01  0.7047E+01  0.3641E+02  0.3641E+02
      5.309  0.7195E+01  0.7195E+01  0.3779E+02  0.3779E+02
      5.500  0.5275E+01  0.5275E+01  0.3880E+02  0.3880E+02
      5.691  0.5111E+01  0.5111E+01  0.3978E+02  0.3978E+02
      5.883  0.4566E+01  0.4566E+01  0.4066E+02  0.4066E+02
      6.074  0.2698E+01  0.2697E+01  0.4118E+02  0.4118E+02
      6.265  0.2423E+01  0.2424E+01  0.4164E+02  0.4165E+02
      6.456  0.2795E+01  0.2795E+01  0.4218E+02  0.4218E+02
      6.647  0.2812E+01  0.2812E+01  0.4272E+02  0.4272E+02
      6.838  0.3560E+01  0.3560E+01  0.4340E+02  0.4340E+02
      7.029  0.3914E+01  0.3915E+01  0.4415E+02  0.4415E+02
      7.220  0.5451E+01  0.5453E+01  0.4520E+02  0.4520E+02
      7.411  0.5914E+01  0.5914E+01  0.4633E+02  0.4633E+02
      7.603  0.6573E+01  0.6577E+01  0.4759E+02  0.4759E+02
      7.794  0.8031E+01  0.8061E+01  0.4913E+02  0.4914E+02
      7.985  0.9324E+01  0.9382E+01  0.5092E+02  0.5094E+02
      8.176  0.9186E+01  0.9262E+01  0.5268E+02  0.5271E+02
      8.367  0.6048E+01  0.6068E+01  0.5384E+02  0.5388E+02
      8.558  0.4727E+01  0.4819E+01  0.5475E+02  0.5481E+02
      8.749  0.3636E+01  0.3805E+01  0.5545E+02  0.5554E+02
      8.940  0.2150E+01  0.2108E+01  0.5587E+02  0.5594E+02
      9.131  0.5843E+00  0.2692E+00  0.5598E+02  0.5600E+02
      9.323  0.8794E-01  0.9861E-03  0.5600E+02  0.5600E+02
      9.514  0.6508E-02  0.0000E+00  0.5600E+02  0.5600E+02
      9.705  0.0000E+00  0.0000E+00  0.5600E+02  0.5600E+02
      9.896  0.0000E+00  0.0000E+00  0.5600E+02  0.5600E+02
     10.087  0.0000E+00  0.0000E+00  0.5600E+02  0.5600E+02
     10.278  0.0000E+00  0.0000E+00  0.5600E+02  0.5600E+02
     10.469  0.0000E+00  0.0000E+00  0.5600E+02  0.5600E+02
     10.660  0.0000E+00  0.0000E+00  0.5600E+02  0.5600E+02
     10.852  0.0000E+00  0.0000E+00  0.5600E+02  0.5600E+02
     11.043  0.0000E+00  0.0000E+00  0.5600E+02  0.5600E+02
     11.234  0.0000E+00  0.0000E+00  0.5600E+02  0.5600E+02
     11.425  0.0000E+00  0.0000E+00  0.5600E+02  0.5600E+02
     11.616  0.0000E+00  0.0000E+00  0.5600E+02  0.5600E+02
     11.807  0.0000E+00  0.0000E+00  0.5600E+02  0.5600E+02
     11.80707714    -45.52719589  301      6.39534319      1.00000000
    -45.527  0.0000E+00  0.0000E+00  0.0000E+00  0.0000E+00  0.0000E+00  0.0000E+00  0.0000E+00  0.0000E+00  0.0000E+00  0.0000E+00  0.0000E+00  0.0000E+00  0.0000E+00  0.0000E+00  0.0000E+00  0.0000E+00  0.0000E+00  0.0000E+00
    -45.336  0.0000E+00  0.0000E+00  0.0000E+00  0.0000E+00  0.0000E+00  0.0000E+00  0.0000E+00  0.0000E+00  0.0000E+00  0.0000E+00  0.0000E+00  0.0000E+00  0.0000E+00  0.0000E+00  0.0000E+00  0.0000E+00  0.0000E+00  0.0000E+00
    -45.145  0.0000E+00  0.0000E+00  0.0000E+00  0.0000E+00  0.0000E+00  0.0000E+00  0.0000E+00  0.0000E+00  0.0000E+00  0.0000E+00  0.0000E+00  0.0000E+00  0.0000E+00  0.0000E+00  0.0000E+00  0.0000E+00  0.0000E+00  0.0000E+00
    -44.954  0.0000E+00  0.0000E+00  0.0000E+00  0.0000E+00  0.0000E+00  0.0000E+00  0.0000E+00  0.0000E+00  0.0000E+00  0.0000E+00  0.0000E+00  0.0000E+00  0.0000E+00  0.0000E+00  0.0000E+00  0.0000E+00  0.0000E+00  0.0000E+00
    -44.763  0.0000E+00  0.0000E+00  0.0000E+00  0.0000E+00  0.0000E+00  0.0000E+00  0.0000E+00  0.0000E+00  0.0000E+00  0.0000E+00  0.0000E+00  0.0000E+00  0.0000E+00  0.0000E+00  0.0000E+00  0.0000E+00  0.0000E+00  0.0000E+00
    -44.572  0.0000E+00  0.0000E+00  0.0000E+00  0.0000E+00  0.0000E+00  0.0000E+00  0.0000E+00  0.0000E+00  0.0000E+00  0.0000E+00  0.0000E+00  0.0000E+00  0.0000E+00  0.0000E+00  0.0000E+00  0.0000E+00  0.0000E+00  0.0000E+00
    -44.381  0.0000E+00  0.0000E+00  0.0000E+00  0.0000E+00  0.0000E+00  0.0000E+00  0.0000E+00  0.0000E+00  0.0000E+00  0.0000E+00  0.0000E+00  0.0000E+00  0.0000E+00  0.0000E+00  0.0000E+00  0.0000E+00  0.0000E+00  0.0000E+00
    -44.189  0.0000E+00  0.0000E+00  0.0000E+00  0.0000E+00  0.0000E+00  0.0000E+00  0.0000E+00  0.0000E+00  0.0000E+00  0.0000E+00  0.0000E+00  0.0000E+00  0.0000E+00  0.0000E+00  0.0000E+00  0.0000E+00  0.0000E+00  0.0000E+00
    -43.998  0.0000E+00  0.0000E+00  0.0000E+00  0.0000E+00  0.0000E+00  0.0000E+00  0.0000E+00  0.0000E+00  0.0000E+00  0.0000E+00  0.0000E+00  0.0000E+00  0.0000E+00  0.0000E+00  0.0000E+00  0.0000E+00  0.0000E+00  0.0000E+00
    -43.807  0.0000E+00  0.0000E+00  0.0000E+00  0.0000E+00  0.0000E+00  0.0000E+00  0.0000E+00  0.0000E+00  0.0000E+00  0.0000E+00  0.0000E+00  0.0000E+00  0.0000E+00  0.0000E+00  0.0000E+00  0.0000E+00  0.0000E+00  0.0000E+00
    -43.616  0.0000E+00  0.0000E+00  0.0000E+00  0.0000E+00  0.0000E+00  0.0000E+00  0.0000E+00  0.0000E+00  0.0000E+00  0.0000E+00  0.0000E+00  0.0000E+00  0.0000E+00  0.0000E+00  0.0000E+00  0.0000E+00  0.0000E+00  0.0000E+00
    -43.425  0.2136E-03  0.2145E-03  0.1373E-12  0.1332E-12  0.5976E-10  0.6024E-10  0.1373E-12  0.1332E-12  0.1770E-15  0.2720E-15  0.2234E-15  0.3528E-15  0.2533E-10  0.2565E-10  0.2234E-15  0.3528E-15  0.1717E-12  0.1771E-12
    -43.234  0.9530E-02  0.9572E-02  0.6127E-11  0.5943E-11  0.2667E-08  0.2688E-08  0.6127E-11  0.5943E-11  0.7900E-14  0.1214E-13  0.9969E-14  0.1574E-13  0.1131E-08  0.1145E-08  0.9969E-14  0.1574E-13  0.7660E-11  0.7901E-11
    -43.043  0.4012E+00  0.4028E+00  0.2579E-09  0.2501E-09  0.1123E-06  0.1131E-06  0.2579E-09  0.2501E-09  0.3325E-12  0.5109E-12  0.4196E-12  0.6626E-12  0.4759E-07  0.4816E-07  0.4196E-12  0.6626E-12  0.3225E-09  0.3325E-09
    -42.852  0.3730E+01  0.3732E+01  0.2398E-08  0.2317E-08  0.1044E-05  0.1048E-05  0.2398E-08  0.2317E-08  0.3091E-11  0.4742E-11  0.3898E-11  0.6152E-11  0.4423E-06  0.4460E-06  0.3898E-11  0.6152E-11  0.2998E-08  0.3081E-08
    -42.660  0.1026E+01  0.1023E+01  0.6597E-09  0.6348E-09  0.2871E-06  0.2871E-06  0.6597E-09  0.6348E-09  0.8502E-12  0.1302E-11  0.1072E-11  0.1690E-11  0.1216E-06  0.1222E-06  0.1072E-11  0.1690E-11  0.8249E-09  0.8443E-09
    -42.469  0.0000E+00  0.0000E+00  0.0000E+00  0.0000E+00  0.0000E+00  0.0000E+00  0.0000E+00  0.0000E+00  0.0000E+00  0.0000E+00  0.0000E+00  0.0000E+00  0.0000E+00  0.0000E+00  0.0000E+00  0.0000E+00  0.0000E+00  0.0000E+00
    -42.278  0.0000E+00  0.0000E+00  0.0000E+00  0.0000E+00  0.0000E+00  0.0000E+00  0.0000E+00  0.0000E+00  0.0000E+00  0.0000E+00  0.0000E+00  0.0000E+00  0.0000E+00  0.0000E+00  0.0000E+00  0.0000E+00  0.0000E+00  0.0000E+00
    -42.087  0.0000E+00  0.0000E+00  0.0000E+00  0.0000E+00  0.0000E+00  0.0000E+00  0.0000E+00  0.0000E+00  0.0000E+00  0.0000E+00  0.0000E+00  0.0000E+00  0.0000E+00  0.0000E+00  0.0000E+00  0.0000E+00  0.0000E+00  0.0000E+00
    -41.896  0.0000E+00  0.0000E+00  0.0000E+00  0.0000E+00  0.0000E+00  0.0000E+00  0.0000E+00  0.0000E+00  0.0000E+00  0.0000E+00  0.0000E+00  0.0000E+00  0.0000E+00  0.0000E+00  0.0000E+00  0.0000E+00  0.0000E+00  0.0000E+00
    -41.705  0.0000E+00  0.0000E+00  0.0000E+00  0.0000E+00  0.0000E+00  0.0000E+00  0.0000E+00  0.0000E+00  0.0000E+00  0.0000E+00  0.0000E+00  0.0000E+00  0.0000E+00  0.0000E+00  0.0000E+00  0.0000E+00  0.0000E+00  0.0000E+00
    -41.514  0.0000E+00  0.0000E+00  0.0000E+00  0.0000E+00  0.0000E+00  0.0000E+00  0.0000E+00  0.0000E+00  0.0000E+00  0.0000E+00  0.0000E+00  0.0000E+00  0.0000E+00  0.0000E+00  0.0000E+00  0.0000E+00  0.0000E+00  0.0000E+00
    -41.323  0.0000E+00  0.0000E+00  0.0000E+00  0.0000E+00  0.0000E+00  0.0000E+00  0.0000E+00  0.0000E+00  0.0000E+00  0.0000E+00  0.0000E+00  0.0000E+00  0.0000E+00  0.0000E+00  0.0000E+00  0.0000E+00  0.0000E+00  0.0000E+00
    -41.132  0.0000E+00  0.0000E+00  0.0000E+00  0.0000E+00  0.0000E+00  0.0000E+00  0.0000E+00  0.0000E+00  0.0000E+00  0.0000E+00  0.0000E+00  0.0000E+00  0.0000E+00  0.0000E+00  0.0000E+00  0.0000E+00  0.0000E+00  0.0000E+00
    -40.940  0.0000E+00  0.0000E+00  0.0000E+00  0.0000E+00  0.0000E+00  0.0000E+00  0.0000E+00  0.0000E+00  0.0000E+00  0.0000E+00  0.0000E+00  0.0000E+00  0.0000E+00  0.0000E+00  0.0000E+00  0.0000E+00  0.0000E+00  0.0000E+00
    -40.749  0.0000E+00  0.0000E+00  0.0000E+00  0.0000E+00  0.0000E+00  0.0000E+00  0.0000E+00  0.0000E+00  0.0000E+00  0.0000E+00  0.0000E+00  0.0000E+00  0.0000E+00  0.0000E+00  0.0000E+00  0.0000E+00  0.0000E+00  0.0000E+00
    -40.558  0.0000E+00  0.0000E+00  0.0000E+00  0.0000E+00  0.0000E+00  0.0000E+00  0.0000E+00  0.0000E+00  0.0000E+00  0.0000E+00  0.0000E+00  0.0000E+00  0.0000E+00  0.0000E+00  0.0000E+00  0.0000E+00  0.0000E+00  0.0000E+00
    -40.367  0.0000E+00  0.0000E+00  0.0000E+00  0.0000E+00  0.0000E+00  0.0000E+00  0.0000E+00  0.0000E+00  0.0000E+00  0.0000E+00  0.0000E+00  0.0000E+00  0.0000E+00  0.0000E+00  0.0000E+00  0.0000E+00  0.0000E+00  0.0000E+00
    -40.176  0.0000E+00  0.0000E+00  0.0000E+00  0.0000E+00  0.0000E+00  0.0000E+00  0.0000E+00  0.0000E+00  0.0000E+00  0.0000E+00  0.0000E+00  0.0000E+00  0.0000E+00  0.0000E+00  0.0000E+00  0.0000E+00  0.0000E+00  0.0000E+00
    -39.985  0.0000E+00  0.0000E+00  0.0000E+00  0.0000E+00  0.0000E+00  0.0000E+00  0.0000E+00  0.0000E+00  0.0000E+00  0.0000E+00  0.0000E+00  0.0000E+00  0.0000E+00  0.0000E+00  0.0000E+00  0.0000E+00  0.0000E+00  0.0000E+00
    -39.794  0.0000E+00  0.0000E+00  0.0000E+00  0.0000E+00  0.0000E+00  0.0000E+00  0.0000E+00  0.0000E+00  0.0000E+00  0.0000E+00  0.0000E+00  0.0000E+00  0.0000E+00  0.0000E+00  0.0000E+00  0.0000E+00  0.0000E+00  0.0000E+00
    -39.603  0.0000E+00  0.0000E+00  0.0000E+00  0.0000E+00  0.0000E+00  0.0000E+00  0.0000E+00  0.0000E+00  0.0000E+00  0.0000E+00  0.0000E+00  0.0000E+00  0.0000E+00  0.0000E+00  0.0000E+00  0.0000E+00  0.0000E+00  0.0000E+00
    -39.412  0.0000E+00  0.0000E+00  0.0000E+00  0.0000E+00  0.0000E+00  0.0000E+00  0.0000E+00  0.0000E+00  0.0000E+00  0.0000E+00  0.0000E+00  0.0000E+00  0.0000E+00  0.0000E+00  0.0000E+00  0.0000E+00  0.0000E+00  0.0000E+00
    -39.220  0.0000E+00  0.0000E+00  0.0000E+00  0.0000E+00  0.0000E+00  0.0000E+00  0.0000E+00  0.0000E+00  0.0000E+00  0.0000E+00  0.0000E+00  0.0000E+00  0.0000E+00  0.0000E+00  0.0000E+00  0.0000E+00  0.0000E+00  0.0000E+00
    -39.029  0.0000E+00  0.0000E+00  0.0000E+00  0.0000E+00  0.0000E+00  0.0000E+00  0.0000E+00  0.0000E+00  0.0000E+00  0.0000E+00  0.0000E+00  0.0000E+00  0.0000E+00  0.0000E+00  0.0000E+00  0.0000E+00  0.0000E+00  0.0000E+00
    -38.838  0.0000E+00  0.0000E+00  0.0000E+00  0.0000E+00  0.0000E+00  0.0000E+00  0.0000E+00  0.0000E+00  0.0000E+00  0.0000E+00  0.0000E+00  0.0000E+00  0.0000E+00  0.0000E+00  0.0000E+00  0.0000E+00  0.0000E+00  0.0000E+00
    -38.647  0.0000E+00  0.0000E+00  0.0000E+00  0.0000E+00  0.0000E+00  0.0000E+00  0.0000E+00  0.0000E+00  0.0000E+00  0.0000E+00  0.0000E+00  0.0000E+00  0.0000E+00  0.0000E+00  0.0000E+00  0.0000E+00  0.0000E+00  0.0000E+00
    -38.456  0.0000E+00  0.0000E+00  0.0000E+00  0.0000E+00  0.0000E+00  0.0000E+00  0.0000E+00  0.0000E+00  0.0000E+00  0.0000E+00  0.0000E+00  0.0000E+00  0.0000E+00  0.0000E+00  0.0000E+00  0.0000E+00  0.0000E+00  0.0000E+00
    -38.265  0.0000E+00  0.0000E+00  0.0000E+00  0.0000E+00  0.0000E+00  0.0000E+00  0.0000E+00  0.0000E+00  0.0000E+00  0.0000E+00  0.0000E+00  0.0000E+00  0.0000E+00  0.0000E+00  0.0000E+00  0.0000E+00  0.0000E+00  0.0000E+00
    -38.074  0.0000E+00  0.0000E+00  0.0000E+00  0.0000E+00  0.0000E+00  0.0000E+00  0.0000E+00  0.0000E+00  0.0000E+00  0.0000E+00  0.0000E+00  0.0000E+00  0.0000E+00  0.0000E+00  0.0000E+00  0.0000E+00  0.0000E+00  0.0000E+00
    -37.883  0.0000E+00  0.0000E+00  0.0000E+00  0.0000E+00  0.0000E+00  0.0000E+00  0.0000E+00  0.0000E+00  0.0000E+00  0.0000E+00  0.0000E+00  0.0000E+00  0.0000E+00  0.0000E+00  0.0000E+00  0.0000E+00  0.0000E+00  0.0000E+00
    -37.692  0.0000E+00  0.0000E+00  0.0000E+00  0.0000E+00  0.0000E+00  0.0000E+00  0.0000E+00  0.0000E+00  0.0000E+00  0.0000E+00  0.0000E+00  0.0000E+00  0.0000E+00  0.0000E+00  0.0000E+00  0.0000E+00  0.0000E+00  0.0000E+00
    -37.500  0.0000E+00  0.0000E+00  0.0000E+00  0.0000E+00  0.0000E+00  0.0000E+00  0.0000E+00  0.0000E+00  0.0000E+00  0.0000E+00  0.0000E+00  0.0000E+00  0.0000E+00  0.0000E+00  0.0000E+00  0.0000E+00  0.0000E+00  0.0000E+00
    -37.309  0.0000E+00  0.0000E+00  0.0000E+00  0.0000E+00  0.0000E+00  0.0000E+00  0.0000E+00  0.0000E+00  0.0000E+00  0.0000E+00  0.0000E+00  0.0000E+00  0.0000E+00  0.0000E+00  0.0000E+00  0.0000E+00  0.0000E+00  0.0000E+00
    -37.118  0.0000E+00  0.0000E+00  0.0000E+00  0.0000E+00  0.0000E+00  0.0000E+00  0.0000E+00  0.0000E+00  0.0000E+00  0.0000E+00  0.0000E+00  0.0000E+00  0.0000E+00  0.0000E+00  0.0000E+00  0.0000E+00  0.0000E+00  0.0000E+00
    -36.927  0.0000E+00  0.0000E+00  0.0000E+00  0.0000E+00  0.0000E+00  0.0000E+00  0.0000E+00  0.0000E+00  0.0000E+00  0.0000E+00  0.0000E+00  0.0000E+00  0.0000E+00  0.0000E+00  0.0000E+00  0.0000E+00  0.0000E+00  0.0000E+00
    -36.736  0.0000E+00  0.0000E+00  0.0000E+00  0.0000E+00  0.0000E+00  0.0000E+00  0.0000E+00  0.0000E+00  0.0000E+00  0.0000E+00  0.0000E+00  0.0000E+00  0.0000E+00  0.0000E+00  0.0000E+00  0.0000E+00  0.0000E+00  0.0000E+00
    -36.545  0.0000E+00  0.0000E+00  0.0000E+00  0.0000E+00  0.0000E+00  0.0000E+00  0.0000E+00  0.0000E+00  0.0000E+00  0.0000E+00  0.0000E+00  0.0000E+00  0.0000E+00  0.0000E+00  0.0000E+00  0.0000E+00  0.0000E+00  0.0000E+00
    -36.354  0.0000E+00  0.0000E+00  0.0000E+00  0.0000E+00  0.0000E+00  0.0000E+00  0.0000E+00  0.0000E+00  0.0000E+00  0.0000E+00  0.0000E+00  0.0000E+00  0.0000E+00  0.0000E+00  0.0000E+00  0.0000E+00  0.0000E+00  0.0000E+00
    -36.163  0.0000E+00  0.0000E+00  0.0000E+00  0.0000E+00  0.0000E+00  0.0000E+00  0.0000E+00  0.0000E+00  0.0000E+00  0.0000E+00  0.0000E+00  0.0000E+00  0.0000E+00  0.0000E+00  0.0000E+00  0.0000E+00  0.0000E+00  0.0000E+00
    -35.971  0.0000E+00  0.0000E+00  0.0000E+00  0.0000E+00  0.0000E+00  0.0000E+00  0.0000E+00  0.0000E+00  0.0000E+00  0.0000E+00  0.0000E+00  0.0000E+00  0.0000E+00  0.0000E+00  0.0000E+00  0.0000E+00  0.0000E+00  0.0000E+00