  16  16   1   0
  0.2022631E+02  0.4218803E-09  0.4218803E-09  0.1818269E-08  0.5000000E-15
  1.000000000000000E-004
  CAR 
 unknown system                          
     12.60918714    -44.46972660  301      7.17385193      1.00000000
    -44.470  0.0000E+00  0.0000E+00  0.0000E+00  0.0000E+00
    -44.279  0.0000E+00  0.0000E+00  0.0000E+00  0.0000E+00
    -44.089  0.0000E+00  0.0000E+00  0.0000E+00  0.0000E+00
    -43.899  0.0000E+00  0.0000E+00  0.0000E+00  0.0000E+00
    -43.709  0.0000E+00  0.0000E+00  0.0000E+00  0.0000E+00
    -43.518  0.0000E+00  0.0000E+00  0.0000E+00  0.0000E+00
    -43.328  0.0000E+00  0.0000E+00  0.0000E+00  0.0000E+00
    -43.138  0.0000E+00  0.0000E+00  0.0000E+00  0.0000E+00
    -42.948  0.0000E+00  0.0000E+00  0.0000E+00  0.0000E+00
    -42.757  0.0000E+00  0.0000E+00  0.0000E+00  0.0000E+00
    -42.567  0.0000E+00  0.0000E+00  0.0000E+00  0.0000E+00
    -42.377  0.8921E-03  0.8971E-03  0.1697E-03  0.1707E-03
    -42.187  0.3912E-01  0.3934E-01  0.7613E-02  0.7655E-02
    -41.996  0.1619E+01  0.1628E+01  0.3157E+00  0.3173E+00
    -41.806  0.1503E+02  0.1504E+02  0.3175E+01  0.3179E+01
    -41.616  0.4214E+01  0.4195E+01  0.3977E+01  0.3977E+01
    -41.426  0.0000E+00  0.0000E+00  0.4000E+01  0.4000E+01
    -41.235  0.0000E+00  0.0000E+00  0.4000E+01  0.4000E+01
    -41.045  0.0000E+00  0.0000E+00  0.4000E+01  0.4000E+01
    -40.855  0.0000E+00  0.0000E+00  0.4000E+01  0.4000E+01
    -40.664  0.0000E+00  0.0000E+00  0.4000E+01  0.4000E+01
    -40.474  0.0000E+00  0.0000E+00  0.4000E+01  0.4000E+01
    -40.284  0.0000E+00  0.0000E+00  0.4000E+01  0.4000E+01
    -40.094  0.0000E+00  0.0000E+00  0.4000E+01  0.4000E+01
    -39.903  0.0000E+00  0.0000E+00  0.4000E+01  0.4000E+01
    -39.713  0.0000E+00  0.0000E+00  0.4000E+01  0.4000E+01
    -39.523  0.0000E+00  0.0000E+00  0.4000E+01  0.4000E+01
    -39.333  0.0000E+00  0.0000E+00  0.4000E+01  0.4000E+01
    -39.142  0.0000E+00  0.0000E+00  0.4000E+01  0.4000E+01
    -38.952  0.0000E+00  0.0000E+00  0.4000E+01  0.4000E+01
    -38.762  0.0000E+00  0.0000E+00  0.4000E+01  0.4000E+01
    -38.572  0.0000E+00  0.0000E+00  0.4000E+01  0.4000E+01
    -38.381  0.0000E+00  0.0000E+00  0.4000E+01  0.4000E+01
    -38.191  0.0000E+00  0.0000E+00  0.4000E+01  0.4000E+01
    -38.001  0.0000E+00  0.0000E+00  0.4000E+01  0.4000E+01
    -37.811  0.0000E+00  0.0000E+00  0.4000E+01  0.4000E+01
    -37.620  0.0000E+00  0.0000E+00  0.4000E+01  0.4000E+01
    -37.430  0.0000E+00  0.0000E+00  0.4000E+01  0.4000E+01
    -37.240  0.0000E+00  0.0000E+00  0.4000E+01  0.4000E+01
    -37.049  0.0000E+00  0.0000E+00  0.4000E+01  0.4000E+01
    -36.859  0.0000E+00  0.0000E+00  0.4000E+01  0.4000E+01
    -36.669  0.0000E+00  0.0000E+00  0.4000E+01  0.4000E+01
    -36.479  0.0000E+00  0.0000E+00  0.4000E+01  0.4000E+01
    -36.288  0.0000E+00  0.0000E+00  0.4000E+01  0.4000E+01
    -36.098  0.0000E+00  0.0000E+00  0.4000E+01  0.4000E+01
    -35.908  0.0000E+00  0.0000E+00  0.4000E+01  0.4000E+01
    -35.718  0.0000E+00  0.0000E+00  0.4000E+01  0.4000E+01
    -35.527  0.0000E+00  0.0000E+00  0.4000E+01  0.4000E+01
    -35.337  0.0000E+00  0.0000E+00  0.4000E+01  0.4000E+01
    -35.147  0.0000E+00  0.0000E+00  0.4000E+01  0.4000E+01
    -34.957  0.0000E+00  0.0000E+00  0.4000E+01  0.4000E+01
    -34.766  0.0000E+00  0.0000E+00  0.4000E+01  0.4000E+01
    -34.576  0.0000E+00  0.0000E+00  0.4000E+01  0.4000E+01
    -34.386  0.0000E+00  0.0000E+00  0.4000E+01  0.4000E+01
    -34.196  0.0000E+00  0.0000E+00  0.4000E+01  0.4000E+01
    -34.005  0.0000E+00  0.0000E+00  0.4000E+01  0.4000E+01
    -33.815  0.0000E+00  0.0000E+00  0.4000E+01  0.4000E+01
    -33.625  0.0000E+00  0.0000E+00  0.4000E+01  0.4000E+01
    -33.434  0.0000E+00  0.0000E+00  0.4000E+01  0.4000E+01
    -33.244  0.0000E+00  0.0000E+00  0.4000E+01  0.4000E+01
    -33.054  0.0000E+00  0.0000E+00  0.4000E+01  0.4000E+01
    -32.864  0.0000E+00  0.0000E+00  0.4000E+01  0.4000E+01
    -32.673  0.0000E+00  0.0000E+00  0.4000E+01  0.4000E+01
    -32.483  0.0000E+00  0.0000E+00  0.4000E+01  0.4000E+01
    -32.293  0.0000E+00  0.0000E+00  0.4000E+01  0.4000E+01
    -32.103  0.0000E+00  0.0000E+00  0.4000E+01  0.4000E+01
    -31.912  0.0000E+00  0.0000E+00  0.4000E+01  0.4000E+01
    -31.722  0.0000E+00  0.0000E+00  0.4000E+01  0.4000E+01
    -31.532  0.0000E+00  0.0000E+00  0.4000E+01  0.4000E+01
    -31.342  0.0000E+00  0.0000E+00  0.4000E+01  0.4000E+01
    -31.151  0.0000E+00  0.0000E+00  0.4000E+01  0.4000E+01
    -30.961  0.0000E+00  0.0000E+00  0.4000E+01  0.4000E+01
    -30.771  0.0000E+00  0.0000E+00  0.4000E+01  0.4000E+01
    -30.581  0.0000E+00  0.0000E+00  0.4000E+01  0.4000E+01
    -30.390  0.0000E+00  0.0000E+00  0.4000E+01  0.4000E+01
    -30.200  0.0000E+00  0.0000E+00  0.4000E+01  0.4000E+01
    -30.010  0.0000E+00  0.0000E+00  0.4000E+01  0.4000E+01
    -29.819  0.0000E+00  0.0000E+00  0.4000E+01  0.4000E+01
    -29.629  0.0000E+00  0.0000E+00  0.4000E+01  0.4000E+01
    -29.439  0.0000E+00  0.0000E+00  0.4000E+01  0.4000E+01
    -29.249  0.0000E+00  0.0000E+00  0.4000E+01  0.4000E+01
    -29.058  0.0000E+00  0.0000E+00  0.4000E+01  0.4000E+01
    -28.868  0.0000E+00  0.0000E+00  0.4000E+01  0.4000E+01
    -28.678  0.0000E+00  0.0000E+00  0.4000E+01  0.4000E+01
    -28.488  0.0000E+00  0.0000E+00  0.4000E+01  0.4000E+01
    -28.297  0.0000E+00  0.0000E+00  0.4000E+01  0.4000E+01
    -28.107  0.0000E+00  0.0000E+00  0.4000E+01  0.4000E+01
    -27.917  0.0000E+00  0.0000E+00  0.4000E+01  0.4000E+01
    -27.727  0.0000E+00  0.0000E+00  0.4000E+01  0.4000E+01
    -27.536  0.0000E+00  0.0000E+00  0.4000E+01  0.4000E+01
    -27.346  0.0000E+00  0.0000E+00  0.4000E+01  0.4000E+01
    -27.156  0.0000E+00  0.0000E+00  0.4000E+01  0.4000E+01
    -26.966  0.0000E+00  0.0000E+00  0.4000E+01  0.4000E+01
    -26.775  0.0000E+00  0.0000E+00  0.4000E+01  0.4000E+01
    -26.585  0.0000E+00  0.0000E+00  0.4000E+01  0.4000E+01
    -26.395  0.0000E+00  0.0000E+00  0.4000E+01  0.4000E+01
    -26.204  0.0000E+00  0.0000E+00  0.4000E+01  0.4000E+01
    -26.014  0.0000E+00  0.0000E+00  0.4000E+01  0.4000E+01
    -25.824  0.0000E+00  0.0000E+00  0.4000E+01  0.4000E+01
    -25.634  0.0000E+00  0.0000E+00  0.4000E+01  0.4000E+01
    -25.443  0.0000E+00  0.0000E+00  0.4000E+01  0.4000E+01
    -25.253  0.0000E+00  0.0000E+00  0.4000E+01  0.4000E+01
    -25.063  0.0000E+00  0.0000E+00  0.4000E+01  0.4000E+01
    -24.873  0.0000E+00  0.0000E+00  0.4000E+01  0.4000E+01
    -24.682  0.0000E+00  0.0000E+00  0.4000E+01  0.4000E+01
    -24.492  0.0000E+00  0.0000E+00  0.4000E+01  0.4000E+01
    -24.302  0.0000E+00  0.0000E+00  0.4000E+01  0.4000E+01
    -24.112  0.0000E+00  0.0000E+00  0.4000E+01  0.4000E+01
    -23.921  0.0000E+00  0.0000E+00  0.4000E+01  0.4000E+01
    -23.731  0.0000E+00  0.0000E+00  0.4000E+01  0.4000E+01
    -23.541  0.0000E+00  0.0000E+00  0.4000E+01  0.4000E+01
    -23.351  0.0000E+00  0.0000E+00  0.4000E+01  0.4000E+01
    -23.160  0.0000E+00  0.0000E+00  0.4000E+01  0.4000E+01
    -22.970  0.0000E+00  0.0000E+00  0.4000E+01  0.4000E+01
    -22.780  0.0000E+00  0.0000E+00  0.4000E+01  0.4000E+01
    -22.589  0.0000E+00  0.0000E+00  0.4000E+01  0.4000E+01
    -22.399  0.0000E+00  0.0000E+00  0.4000E+01  0.4000E+01
    -22.209  0.0000E+00  0.0000E+00  0.4000E+01  0.4000E+01
    -22.019  0.0000E+00  0.0000E+00  0.4000E+01  0.4000E+01
    -21.828  0.0000E+00  0.0000E+00  0.4000E+01  0.4000E+01
    -21.638  0.0000E+00  0.0000E+00  0.4000E+01  0.4000E+01
    -21.448  0.0000E+00  0.0000E+00  0.4000E+01  0.4000E+01
    -21.258  0.0000E+00  0.0000E+00  0.4000E+01  0.4000E+01
    -21.067  0.0000E+00  0.0000E+00  0.4000E+01  0.4000E+01
    -20.877  0.0000E+00  0.0000E+00  0.4000E+01  0.4000E+01
    -20.687  0.0000E+00  0.0000E+00  0.4000E+01  0.4000E+01
    -20.497  0.6201E-03  0.6246E-03  0.4000E+01  0.4000E+01
    -20.306  0.3014E-01  0.3026E-01  0.4006E+01  0.4006E+01
    -20.116  0.1319E+01  0.1324E+01  0.4257E+01  0.4258E+01
    -19.926  0.2898E+02  0.2904E+02  0.9771E+01  0.9783E+01
    -19.736  0.3117E+02  0.3111E+02  0.1570E+02  0.1570E+02
    -19.545  0.1399E+01  0.1394E+01  0.1599E+02  0.1599E+02
    -19.355  0.0000E+00  0.0000E+00  0.1600E+02  0.1600E+02
    -19.165  0.0000E+00  0.0000E+00  0.1600E+02  0.1600E+02
    -18.974  0.0000E+00  0.0000E+00  0.1600E+02  0.1600E+02
    -18.784  0.0000E+00  0.0000E+00  0.1600E+02  0.1600E+02
    -18.594  0.0000E+00  0.0000E+00  0.1600E+02  0.1600E+02
    -18.404  0.0000E+00  0.0000E+00  0.1600E+02  0.1600E+02
    -18.213  0.0000E+00  0.0000E+00  0.1600E+02  0.1600E+02
    -18.023  0.0000E+00  0.0000E+00  0.1600E+02  0.1600E+02
    -17.833  0.0000E+00  0.0000E+00  0.1600E+02  0.1600E+02
    -17.643  0.0000E+00  0.0000E+00  0.1600E+02  0.1600E+02
    -17.452  0.0000E+00  0.0000E+00  0.1600E+02  0.1600E+02
    -17.262  0.0000E+00  0.0000E+00  0.1600E+02  0.1600E+02
    -17.072  0.0000E+00  0.0000E+00  0.1600E+02  0.1600E+02
    -16.882  0.0000E+00  0.0000E+00  0.1600E+02  0.1600E+02
    -16.691  0.0000E+00  0.0000E+00  0.1600E+02  0.1600E+02
    -16.501  0.0000E+00  0.0000E+00  0.1600E+02  0.1600E+02
    -16.311  0.0000E+00  0.0000E+00  0.1600E+02  0.1600E+02
    -16.121  0.0000E+00  0.0000E+00  0.1600E+02  0.1600E+02
    -15.930  0.0000E+00  0.0000E+00  0.1600E+02  0.1600E+02
    -15.740  0.0000E+00  0.0000E+00  0.1600E+02  0.1600E+02
    -15.550  0.0000E+00  0.0000E+00  0.1600E+02  0.1600E+02
    -15.359  0.0000E+00  0.0000E+00  0.1600E+02  0.1600E+02
    -15.169  0.0000E+00  0.0000E+00  0.1600E+02  0.1600E+02
    -14.979  0.0000E+00  0.0000E+00  0.1600E+02  0.1600E+02
    -14.789  0.0000E+00  0.0000E+00  0.1600E+02  0.1600E+02
    -14.598  0.0000E+00  0.0000E+00  0.1600E+02  0.1600E+02
    -14.408  0.0000E+00  0.0000E+00  0.1600E+02  0.1600E+02
    -14.218  0.0000E+00  0.0000E+00  0.1600E+02  0.1600E+02
    -14.028  0.0000E+00  0.0000E+00  0.1600E+02  0.1600E+02
    -13.837  0.0000E+00  0.0000E+00  0.1600E+02  0.1600E+02
    -13.647  0.0000E+00  0.0000E+00  0.1600E+02  0.1600E+02
    -13.457  0.0000E+00  0.0000E+00  0.1600E+02  0.1600E+02
    -13.267  0.0000E+00  0.0000E+00  0.1600E+02  0.1600E+02
    -13.076  0.0000E+00  0.0000E+00  0.1600E+02  0.1600E+02
    -12.886  0.0000E+00  0.0000E+00  0.1600E+02  0.1600E+02
    -12.696  0.0000E+00  0.0000E+00  0.1600E+02  0.1600E+02
    -12.506  0.0000E+00  0.0000E+00  0.1600E+02  0.1600E+02
    -12.315  0.0000E+00  0.0000E+00  0.1600E+02  0.1600E+02
    -12.125  0.0000E+00  0.0000E+00  0.1600E+02  0.1600E+02
    -11.935  0.0000E+00  0.0000E+00  0.1600E+02  0.1600E+02
    -11.744  0.0000E+00  0.0000E+00  0.1600E+02  0.1600E+02
    -11.554  0.0000E+00  0.0000E+00  0.1600E+02  0.1600E+02
    -11.364  0.0000E+00  0.0000E+00  0.1600E+02  0.1600E+02
    -11.174  0.0000E+00  0.0000E+00  0.1600E+02  0.1600E+02
    -10.983  0.0000E+00  0.0000E+00  0.1600E+02  0.1600E+02
    -10.793  0.0000E+00  0.0000E+00  0.1600E+02  0.1600E+02
    -10.603  0.0000E+00  0.0000E+00  0.1600E+02  0.1600E+02
    -10.413  0.0000E+00  0.0000E+00  0.1600E+02  0.1600E+02
    -10.222  0.0000E+00  0.0000E+00  0.1600E+02  0.1600E+02
    -10.032  0.0000E+00  0.0000E+00  0.1600E+02  0.1600E+02
     -9.842  0.0000E+00  0.0000E+00  0.1600E+02  0.1600E+02
     -9.652  0.0000E+00  0.0000E+00  0.1600E+02  0.1600E+02
     -9.461  0.0000E+00  0.0000E+00  0.1600E+02  0.1600E+02
     -9.271  0.0000E+00  0.0000E+00  0.1600E+02  0.1600E+02
     -9.081  0.0000E+00  0.0000E+00  0.1600E+02  0.1600E+02
     -8.891  0.0000E+00  0.0000E+00  0.1600E+02  0.1600E+02
     -8.700  0.0000E+00  0.0000E+00  0.1600E+02  0.1600E+02
     -8.510  0.0000E+00  0.0000E+00  0.1600E+02  0.1600E+02
     -8.320  0.0000E+00  0.0000E+00  0.1600E+02  0.1600E+02
     -8.129  0.0000E+00  0.0000E+00  0.1600E+02  0.1600E+02
     -7.939  0.0000E+00  0.0000E+00  0.1600E+02  0.1600E+02
     -7.749  0.0000E+00  0.0000E+00  0.1600E+02  0.1600E+02
     -7.559  0.0000E+00  0.0000E+00  0.1600E+02  0.1600E+02
     -7.368  0.0000E+00  0.0000E+00  0.1600E+02  0.1600E+02
     -7.178  0.0000E+00  0.0000E+00  0.1600E+02  0.1600E+02
     -6.988  0.0000E+00  0.0000E+00  0.1600E+02  0.1600E+02
     -6.798  0.0000E+00  0.0000E+00  0.1600E+02  0.1600E+02
     -6.607  0.0000E+00  0.0000E+00  0.1600E+02  0.1600E+02
     -6.417  0.0000E+00  0.0000E+00  0.1600E+02  0.1600E+02
     -6.227  0.0000E+00  0.0000E+00  0.1600E+02  0.1600E+02
     -6.037  0.0000E+00  0.0000E+00  0.1600E+02  0.1600E+02
     -5.846  0.0000E+00  0.0000E+00  0.1600E+02  0.1600E+02
     -5.656  0.0000E+00  0.0000E+00  0.1600E+02  0.1600E+02
     -5.466  0.0000E+00  0.0000E+00  0.1600E+02  0.1600E+02
     -5.276  0.0000E+00  0.0000E+00  0.1600E+02  0.1600E+02
     -5.085  0.0000E+00  0.0000E+00  0.1600E+02  0.1600E+02
     -4.895  0.0000E+00  0.0000E+00  0.1600E+02  0.1600E+02
     -4.705  0.0000E+00  0.0000E+00  0.1600E+02  0.1600E+02
     -4.514  0.0000E+00  0.0000E+00  0.1600E+02  0.1600E+02
     -4.324  0.0000E+00  0.0000E+00  0.1600E+02  0.1600E+02
     -4.134  0.0000E+00  0.0000E+00  0.1600E+02  0.1600E+02
     -3.944  0.0000E+00  0.0000E+00  0.1600E+02  0.1600E+02
     -3.753  0.0000E+00  0.0000E+00  0.1600E+02  0.1600E+02
     -3.563  0.0000E+00  0.0000E+00  0.1600E+02  0.1600E+02
     -3.373  0.0000E+00  0.0000E+00  0.1600E+02  0.1600E+02
     -3.183  0.0000E+00  0.0000E+00  0.1600E+02  0.1600E+02
     -2.992  0.0000E+00  0.0000E+00  0.1600E+02  0.1600E+02
     -2.802  0.0000E+00  0.0000E+00  0.1600E+02  0.1600E+02
     -2.612  0.0000E+00  0.0000E+00  0.1600E+02  0.1600E+02
     -2.422  0.7593E-05  0.7594E-05  0.1600E+02  0.1600E+02
     -2.231  0.3776E-03  0.3777E-03  0.1600E+02  0.1600E+02
     -2.041  0.1524E-01  0.1524E-01  0.1600E+02  0.1600E+02
     -1.851  0.1939E+00  0.1939E+00  0.1604E+02  0.1604E+02
     -1.661  0.4958E+00  0.4958E+00  0.1613E+02  0.1613E+02
     -1.470  0.6662E+00  0.6662E+00  0.1626E+02  0.1626E+02
     -1.280  0.8229E+00  0.8229E+00  0.1642E+02  0.1642E+02
     -1.090  0.9243E+00  0.9243E+00  0.1659E+02  0.1659E+02
     -0.899  0.1172E+01  0.1172E+01  0.1682E+02  0.1682E+02
     -0.709  0.1110E+01  0.1110E+01  0.1703E+02  0.1703E+02
     -0.519  0.1505E+01  0.1505E+01  0.1732E+02  0.1732E+02
     -0.329  0.1493E+01  0.1493E+01  0.1760E+02  0.1760E+02
     -0.138  0.1676E+01  0.1676E+01  0.1792E+02  0.1792E+02
      0.052  0.1858E+01  0.1858E+01  0.1828E+02  0.1828E+02
      0.242  0.1736E+01  0.1736E+01  0.1861E+02  0.1861E+02
      0.432  0.1677E+01  0.1677E+01  0.1893E+02  0.1893E+02
      0.623  0.1826E+01  0.1826E+01  0.1928E+02  0.1928E+02
      0.813  0.2038E+01  0.2038E+01  0.1967E+02  0.1967E+02
      1.003  0.1934E+01  0.1934E+01  0.2004E+02  0.2004E+02
      1.193  0.2048E+01  0.2048E+01  0.2043E+02  0.2043E+02
      1.384  0.2539E+01  0.2539E+01  0.2091E+02  0.2091E+02
      1.574  0.2613E+01  0.2613E+01  0.2141E+02  0.2141E+02
      1.764  0.2422E+01  0.2422E+01  0.2187E+02  0.2188E+02
      1.954  0.2301E+01  0.2301E+01  0.2231E+02  0.2231E+02
      2.145  0.2328E+01  0.2328E+01  0.2276E+02  0.2276E+02
      2.335  0.2698E+01  0.2698E+01  0.2327E+02  0.2327E+02
      2.525  0.2493E+01  0.2493E+01  0.2375E+02  0.2375E+02
      2.716  0.3215E+01  0.3215E+01  0.2436E+02  0.2436E+02
      2.906  0.3650E+01  0.3650E+01  0.2506E+02  0.2506E+02
      3.096  0.3181E+01  0.3181E+01  0.2567E+02  0.2567E+02
      3.286  0.1707E+01  0.1707E+01  0.2600E+02  0.2600E+02
      3.477  0.2482E+01  0.2482E+01  0.2647E+02  0.2647E+02
      3.667  0.2771E+01  0.2771E+01  0.2700E+02  0.2700E+02
      3.857  0.2342E+01  0.2342E+01  0.2744E+02  0.2745E+02
      4.047  0.2999E+01  0.2999E+01  0.2802E+02  0.2802E+02
      4.238  0.3759E+01  0.3759E+01  0.2873E+02  0.2873E+02
      4.428  0.3381E+01  0.3381E+01  0.2938E+02  0.2938E+02
      4.618  0.3776E+01  0.3776E+01  0.3010E+02  0.3010E+02
      4.808  0.4251E+01  0.4251E+01  0.3091E+02  0.3091E+02
      4.999  0.5496E+01  0.5497E+01  0.3196E+02  0.3196E+02
      5.189  0.5388E+01  0.5388E+01  0.3299E+02  0.3299E+02
      5.379  0.4564E+01  0.4564E+01  0.3386E+02  0.3386E+02
      5.569  0.5419E+01  0.5419E+01  0.3490E+02  0.3490E+02
      5.760  0.6613E+01  0.6613E+01  0.3616E+02  0.3616E+02
      5.950  0.7141E+01  0.7141E+01  0.3752E+02  0.3752E+02
      6.140  0.5268E+01  0.5268E+01  0.3853E+02  0.3853E+02
      6.331  0.4619E+01  0.4619E+01  0.3941E+02  0.3941E+02
      6.521  0.4725E+01  0.4726E+01  0.4031E+02  0.4031E+02
      6.711  0.3276E+01  0.3275E+01  0.4094E+02  0.4094E+02
      6.901  0.2154E+01  0.2154E+01  0.4135E+02  0.4135E+02
      7.092  0.2312E+01  0.2312E+01  0.4180E+02  0.4180E+02
      7.282  0.2564E+01  0.2564E+01  0.4229E+02  0.4229E+02
      7.472  0.2597E+01  0.2597E+01  0.4278E+02  0.4278E+02
      7.662  0.3149E+01  0.3149E+01  0.4338E+02  0.4338E+02
      7.853  0.3353E+01  0.3353E+01  0.4402E+02  0.4402E+02
      8.043  0.4466E+01  0.4470E+01  0.4487E+02  0.4488E+02
      8.233  0.5480E+01  0.5487E+01  0.4592E+02  0.4592E+02
      8.423  0.5926E+01  0.5926E+01  0.4705E+02  0.4705E+02
      8.614  0.6385E+01  0.6391E+01  0.4827E+02  0.4827E+02
      8.804  0.7680E+01  0.7694E+01  0.4973E+02  0.4974E+02
      8.994  0.8566E+01  0.8648E+01  0.5137E+02  0.5139E+02
      9.184  0.7843E+01  0.7785E+01  0.5287E+02  0.5288E+02
      9.375  0.5451E+01  0.5465E+01  0.5391E+02  0.5393E+02
      9.565  0.4559E+01  0.4466E+01  0.5479E+02  0.5478E+02
      9.755  0.3635E+01  0.3829E+01  0.5548E+02  0.5551E+02
      9.946  0.2088E+01  0.1898E+01  0.5588E+02  0.5588E+02
     10.136  0.5908E+00  0.5900E+00  0.5599E+02  0.5599E+02
     10.326  0.1758E-01  0.3307E-01  0.5600E+02  0.5600E+02
     10.516  0.0000E+00  0.0000E+00  0.5600E+02  0.5600E+02
     10.707  0.0000E+00  0.0000E+00  0.5600E+02  0.5600E+02
     10.897  0.0000E+00  0.0000E+00  0.5600E+02  0.5600E+02
     11.087  0.0000E+00  0.0000E+00  0.5600E+02  0.5600E+02
     11.277  0.0000E+00  0.0000E+00  0.5600E+02  0.5600E+02
     11.468  0.0000E+00  0.0000E+00  0.5600E+02  0.5600E+02
     11.658  0.0000E+00  0.0000E+00  0.5600E+02  0.5600E+02
     11.848  0.0000E+00  0.0000E+00  0.5600E+02  0.5600E+02
     12.038  0.0000E+00  0.0000E+00  0.5600E+02  0.5600E+02
     12.229  0.0000E+00  0.0000E+00  0.5600E+02  0.5600E+02
     12.419  0.0000E+00  0.0000E+00  0.5600E+02  0.5600E+02
     12.609  0.0000E+00  0.0000E+00  0.5600E+02  0.5600E+02
     12.60918714    -44.46972660  301      7.17385193      1.00000000
    -44.470  0.0000E+00  0.0000E+00  0.0000E+00  0.0000E+00  0.0000E+00  0.0000E+00  0.0000E+00  0.0000E+00  0.0000E+00  0.0000E+00  0.0000E+00  0.0000E+00  0.0000E+00  0.0000E+00  0.0000E+00  0.0000E+00  0.0000E+00  0.0000E+00
    -44.279  0.0000E+00  0.0000E+00  0.0000E+00  0.0000E+00  0.0000E+00  0.0000E+00  0.0000E+00  0.0000E+00  0.0000E+00  0.0000E+00  0.0000E+00  0.0000E+00  0.0000E+00  0.0000E+00  0.0000E+00  0.0000E+00  0.0000E+00  0.0000E+00
    -44.089  0.0000E+00  0.0000E+00  0.0000E+00  0.0000E+00  0.0000E+00  0.0000E+00  0.0000E+00  0.0000E+00  0.0000E+00  0.0000E+00  0.0000E+00  0.0000E+00  0.0000E+00  0.0000E+00  0.0000E+00  0.0000E+00  0.0000E+00  0.0000E+00
    -43.899  0.0000E+00  0.0000E+00  0.0000E+00  0.0000E+00  0.0000E+00  0.0000E+00  0.0000E+00  0.0000E+00  0.0000E+00  0.0000E+00  0.0000E+00  0.0000E+00  0.0000E+00  0.0000E+00  0.0000E+00  0.0000E+00  0.0000E+00  0.0000E+00
    -43.709  0.0000E+00  0.0000E+00  0.0000E+00  0.0000E+00  0.0000E+00  0.0000E+00  0.0000E+00  0.0000E+00  0.0000E+00  0.0000E+00  0.0000E+00  0.0000E+00  0.0000E+00  0.0000E+00  0.0000E+00  0.0000E+00  0.0000E+00  0.0000E+00
    -43.518  0.0000E+00  0.0000E+00  0.0000E+00  0.0000E+00  0.0000E+00  0.0000E+00  0.0000E+00  0.0000E+00  0.0000E+00  0.0000E+00  0.0000E+00  0.0000E+00  0.0000E+00  0.0000E+00  0.0000E+00  0.0000E+00  0.0000E+00  0.0000E+00
    -43.328  0.0000E+00  0.0000E+00  0.0000E+00  0.0000E+00  0.0000E+00  0.0000E+00  0.0000E+00  0.0000E+00  0.0000E+00  0.0000E+00  0.0000E+00  0.0000E+00  0.0000E+00  0.0000E+00  0.0000E+00  0.0000E+00  0.0000E+00  0.0000E+00
    -43.138  0.0000E+00  0.0000E+00  0.0000E+00  0.0000E+00  0.0000E+00  0.0000E+00  0.0000E+00  0.0000E+00  0.0000E+00  0.0000E+00  0.0000E+00  0.0000E+00  0.0000E+00  0.0000E+00  0.0000E+00  0.0000E+00  0.0000E+00  0.0000E+00
    -42.948  0.0000E+00  0.0000E+00  0.0000E+00  0.0000E+00  0.0000E+00  0.0000E+00  0.0000E+00  0.0000E+00  0.0000E+00  0.0000E+00  0.0000E+00  0.0000E+00  0.0000E+00  0.0000E+00  0.0000E+00  0.0000E+00  0.0000E+00  0.0000E+00
    -42.757  0.0000E+00  0.0000E+00  0.0000E+00  0.0000E+00  0.0000E+00  0.0000E+00  0.0000E+00  0.0000E+00  0.0000E+00  0.0000E+00  0.0000E+00  0.0000E+00  0.0000E+00  0.0000E+00  0.0000E+00  0.0000E+00  0.0000E+00  0.0000E+00
    -42.567  0.0000E+00  0.0000E+00  0.0000E+00  0.0000E+00  0.0000E+00  0.0000E+00  0.0000E+00  0.0000E+00  0.0000E+00  0.0000E+00  0.0000E+00  0.0000E+00  0.0000E+00  0.0000E+00  0.0000E+00  0.0000E+00  0.0000E+00  0.0000E+00
    -42.377  0.2214E-03  0.2227E-03  0.3913E-12  0.3954E-12  0.1794E-09  0.1810E-09  0.3913E-12  0.3954E-12  0.5008E-15  0.4254E-15  0.2680E-15  0.2504E-15  0.3053E-10  0.3082E-10  0.2680E-15  0.2504E-15  0.4374E-12  0.4507E-12
    -42.187  0.9710E-02  0.9765E-02  0.1716E-10  0.1734E-10  0.7866E-08  0.7939E-08  0.1716E-10  0.1734E-10  0.2196E-13  0.1866E-13  0.1175E-13  0.1098E-13  0.1339E-08  0.1352E-08  0.1175E-13  0.1098E-13  0.1918E-10  0.1976E-10
    -41.996  0.4019E+00  0.4040E+00  0.7102E-09  0.7173E-09  0.3256E-06  0.3285E-06  0.7102E-09  0.7173E-09  0.9094E-12  0.7722E-12  0.4864E-12  0.4543E-12  0.5540E-07  0.5592E-07  0.4864E-12  0.4543E-12  0.7940E-09  0.8177E-09
    -41.806  0.3731E+01  0.3733E+01  0.6591E-08  0.6628E-08  0.3022E-05  0.3035E-05  0.6591E-08  0.6628E-08  0.8475E-11  0.7167E-11  0.4512E-11  0.4192E-11  0.5138E-06  0.5163E-06  0.4512E-11  0.4192E-11  0.7371E-08  0.7558E-08
    -41.616  0.1046E+01  0.1041E+01  0.1848E-08  0.1848E-08  0.8470E-06  0.8464E-06  0.1848E-08  0.1848E-08  0.2387E-11  0.2009E-11  0.1264E-11  0.1167E-11  0.1439E-06  0.1439E-06  0.1264E-11  0.1167E-11  0.2067E-08  0.2108E-08
    -41.426  0.0000E+00  0.0000E+00  0.0000E+00  0.0000E+00  0.0000E+00  0.0000E+00  0.0000E+00  0.0000E+00  0.0000E+00  0.0000E+00  0.0000E+00  0.0000E+00  0.0000E+00  0.0000E+00  0.0000E+00  0.0000E+00  0.0000E+00  0.0000E+00
    -41.235  0.0000E+00  0.0000E+00  0.0000E+00  0.0000E+00  0.0000E+00  0.0000E+00  0.0000E+00  0.0000E+00  0.0000E+00  0.0000E+00  0.0000E+00  0.0000E+00  0.0000E+00  0.0000E+00  0.0000E+00  0.0000E+00  0.0000E+00  0.0000E+00
    -41.045  0.0000E+00  0.0000E+00  0.0000E+00  0.0000E+00  0.0000E+00  0.0000E+00  0.0000E+00  0.0000E+00  0.0000E+00  0.0000E+00  0.0000E+00  0.0000E+00  0.0000E+00  0.0000E+00  0.0000E+00  0.0000E+00  0.0000E+00  0.0000E+00
    -40.855  0.0000E+00  0.0000E+00  0.0000E+00  0.0000E+00  0.0000E+00  0.0000E+00  0.0000E+00  0.0000E+00  0.0000E+00  0.0000E+00  0.0000E+00  0.0000E+00  0.0000E+00  0.0000E+00  0.0000E+00  0.0000E+00  0.0000E+00  0.0000E+00
    -40.664  0.0000E+00  0.0000E+00  0.0000E+00  0.0000E+00  0.0000E+00  0.0000E+00  0.0000E+00  0.0000E+00  0.0000E+00  0.0000E+00  0.0000E+00  0.0000E+00  0.0000E+00  0.0000E+00  0.0000E+00  0.0000E+00  0.0000E+00  0.0000E+00
    -40.474  0.0000E+00  0.0000E+00  0.0000E+00  0.0000E+00  0.0000E+00  0.0000E+00  0.0000E+00  0.0000E+00  0.0000E+00  0.0000E+00  0.0000E+00  0.0000E+00  0.0000E+00  0.0000E+00  0.0000E+00  0.0000E+00  0.0000E+00  0.0000E+00
    -40.284  0.0000E+00  0.0000E+00  0.0000E+00  0.0000E+00  0.0000E+00  0.0000E+00  0.0000E+00  0.0000E+00  0.0000E+00  0.0000E+00  0.0000E+00  0.0000E+00  0.0000E+00  0.0000E+00  0.0000E+00  0.0000E+00  0.0000E+00  0.0000E+00
    -40.094  0.0000E+00  0.0000E+00  0.0000E+00  0.0000E+00  0.0000E+00  0.0000E+00  0.0000E+00  0.0000E+00  0.0000E+00  0.0000E+00  0.0000E+00  0.0000E+00  0.0000E+00  0.0000E+00  0.0000E+00  0.0000E+00  0.0000E+00  0.0000E+00
    -39.903  0.0000E+00  0.0000E+00  0.0000E+00  0.0000E+00  0.0000E+00  0.0000E+00  0.0000E+00  0.0000E+00  0.0000E+00  0.0000E+00  0.0000E+00  0.0000E+00  0.0000E+00  0.0000E+00  0.0000E+00  0.0000E+00  0.0000E+00  0.0000E+00
    -39.713  0.0000E+00  0.0000E+00  0.0000E+00  0.0000E+00  0.0000E+00  0.0000E+00  0.0000E+00  0.0000E+00  0.0000E+00  0.0000E+00  0.0000E+00  0.0000E+00  0.0000E+00  0.0000E+00  0.0000E+00  0.0000E+00  0.0000E+00  0.0000E+00
    -39.523  0.0000E+00  0.0000E+00  0.0000E+00  0.0000E+00  0.0000E+00  0.0000E+00  0.0000E+00  0.0000E+00  0.0000E+00  0.0000E+00  0.0000E+00  0.0000E+00  0.0000E+00  0.0000E+00  0.0000E+00  0.0000E+00  0.0000E+00  0.0000E+00
    -39.333  0.0000E+00  0.0000E+00  0.0000E+00  0.0000E+00  0.0000E+00  0.0000E+00  0.0000E+00  0.0000E+00  0.0000E+00  0.0000E+00  0.0000E+00  0.0000E+00  0.0000E+00  0.0000E+00  0.0000E+00  0.0000E+00  0.0000E+00  0.0000E+00
    -39.142  0.0000E+00  0.0000E+00  0.0000E+00  0.0000E+00  0.0000E+00  0.0000E+00  0.0000E+00  0.0000E+00  0.0000E+00  0.0000E+00  0.0000E+00  0.0000E+00  0.0000E+00  0.0000E+00  0.0000E+00  0.0000E+00  0.0000E+00  0.0000E+00
    -38.952  0.0000E+00  0.0000E+00  0.0000E+00  0.0000E+00  0.0000E+00  0.0000E+00  0.0000E+00  0.0000E+00  0.0000E+00  0.0000E+00  0.0000E+00  0.0000E+00  0.0000E+00  0.0000E+00  0.0000E+00  0.0000E+00  0.0000E+00  0.0000E+00
    -38.762  0.0000E+00  0.0000E+00  0.0000E+00  0.0000E+00  0.0000E+00  0.0000E+00  0.0000E+00  0.0000E+00  0.0000E+00  0.0000E+00  0.0000E+00  0.0000E+00  0.0000E+00  0.0000E+00  0.0000E+00  0.0000E+00  0.0000E+00  0.0000E+00
    -38.572  0.0000E+00  0.0000E+00  0.0000E+00  0.0000E+00  0.0000E+00  0.0000E+00  0.0000E+00  0.0000E+00  0.0000E+00  0.0000E+00  0.0000E+00  0.0000E+00  0.0000E+00  0.0000E+00  0.0000E+00  0.0000E+00  0.0000E+00  0.0000E+00
    -38.381  0.0000E+00  0.0000E+00  0.0000E+00  0.0000E+00  0.0000E+00  0.0000E+00  0.0000E+00  0.0000E+00  0.0000E+00  0.0000E+00  0.0000E+00  0.0000E+00  0.0000E+00  0.0000E+00  0.0000E+00  0.0000E+00  0.0000E+00  0.0000E+00
    -38.191  0.0000E+00  0.0000E+00  0.0000E+00  0.0000E+00  0.0000E+00  0.0000E+00  0.0000E+00  0.0000E+00  0.0000E+00  0.0000E+00  0.0000E+00  0.0000E+00  0.0000E+00  0.0000E+00  0.0000E+00  0.0000E+00  0.0000E+00  0.0000E+00
    -38.001  0.0000E+00  0.0000E+00  0.0000E+00  0.0000E+00  0.0000E+00  0.0000E+00  0.0000E+00  0.0000E+00  0.0000E+00  0.0000E+00  0.0000E+00  0.0000E+00  0.0000E+00  0.0000E+00  0.0000E+00  0.0000E+00  0.0000E+00  0.0000E+00
    -37.811  0.0000E+00  0.0000E+00  0.0000E+00  0.0000E+00  0.0000E+00  0.0000E+00  0.0000E+00  0.0000E+00  0.0000E+00  0.0000E+00  0.0000E+00  0.0000E+00  0.0000E+00  0.0000E+00  0.0000E+00  0.0000E+00  0.0000E+00  0.0000E+00
    -37.620  0.0000E+00  0.0000E+00  0.0000E+00  0.0000E+00  0.0000E+00  0.0000E+00  0.0000E+00  0.0000E+00  0.0000E+00  0.0000E+00  0.0000E+00  0.0000E+00  0.0000E+00  0.0000E+00  0.0000E+00  0.0000E+00  0.0000E+00  0.0000E+00
    -37.430  0.0000E+00  0.0000E+00  0.0000E+00  0.0000E+00  0.0000E+00  0.0000E+00  0.0000E+00  0.0000E+00  0.0000E+00  0.0000E+00  0.0000E+00  0.0000E+00  0.0000E+00  0.0000E+00  0.0000E+00  0.0000E+00  0.0000E+00  0.0000E+00
    -37.240  0.0000E+00  0.0000E+00  0.0000E+00  0.0000E+00  0.0000E+00  0.0000E+00  0.0000E+00  0.0000E+00  0.0000E+00  0.0000E+00  0.0000E+00  0.0000E+00  0.0000E+00  0.0000E+00  0.0000E+00  0.0000E+00  0.0000E+00  0.0000E+00
    -37.049  0.0000E+00  0.0000E+00  0.0000E+00  0.0000E+00  0.0000E+00  0.0000E+00  0.0000E+00  0.0000E+00  0.0000E+00  0.0000E+00  0.0000E+00  0.0000E+00  0.0000E+00  0.0000E+00  0.0000E+00  0.0000E+00  0.0000E+00  0.0000E+00
    -36.859  0.0000E+00  0.0000E+00  0.0000E+00  0.0000E+00  0.0000E+00  0.0000E+00  0.0000E+00  0.0000E+00  0.0000E+00  0.0000E+00  0.0000E+00  0.0000E+00  0.0000E+00  0.0000E+00  0.0000E+00  0.0000E+00  0.0000E+00  0.0000E+00
    -36.669  0.0000E+00  0.0000E+00  0.0000E+00  0.0000E+00  0.0000E+00  0.0000E+00  0.0000E+00  0.0000E+00  0.0000E+00  0.0000E+00  0.0000E+00  0.0000E+00  0.0000E+00  0.0000E+00  0.0000E+00  0.0000E+00  0.0000E+00  0.0000E+00
    -36.479  0.0000E+00  0.0000E+00  0.0000E+00  0.0000E+00  0.0000E+00  0.0000E+00  0.0000E+00  0.0000E+00  0.0000E+00  0.0000E+00  0.0000E+00  0.0000E+00  0.0000E+00  0.0000E+00  0.0000E+00  0.0000E+00  0.0000E+00  0.0000E+00
    -36.288  0.0000E+00  0.0000E+00  0.0000E+00  0.0000E+00  0.0000E+00  0.0000E+00  0.0000E+00  0.0000E+00  0.0000E+00  0.0000E+00  0.0000E+00  0.0000E+00  0.0000E+00  0.0000E+00  0.0000E+00  0.0000E+00  0.0000E+00  0.0000E+00
    -36.098  0.0000E+00  0.0000E+00  0.0000E+00  0.0000E+00  0.0000E+00  0.0000E+00  0.0000E+00  0.0000E+00  0.0000E+00  0.0000E+00  0.0000E+00  0.0000E+00  0.0000E+00  0.0000E+00  0.0000E+00  0.0000E+00  0.0000E+00  0.0000E+00
    -35.908  0.0000E+00  0.0000E+00  0.0000E+00  0.0000E+00  0.0000E+00  0.0000E+00  0.0000E+00  0.0000E+00  0.0000E+00  0.0000E+00  0.0000E+00  0.0000E+00  0.0000E+00  0.0000E+00  0.0000E+00  0.0000E+00  0.0000E+00  0.0000E+00
    -35.718  0.0000E+00  0.0000E+00  0.0000E+00  0.0000E+00  0.0000E+00  0.0000E+00  0.0000E+00  0.0000E+00  0.0000E+00  0.0000E+00  0.0000E+00  0.0000E+00  0.0000E+00  0.0000E+00  0.0000E+00  0.0000E+00  0.0000E+00  0.0000E+00
    -35.527  0.0000E+00  0.0000E+00  0.0000E+00  0.0000E+00  0.0000E+00  0.0000E+00  0.0000E+00  0.0000E+00  0.0000E+00  0.0000E+00  0.0000E+00  0.0000E+00  0.0000E+00  0.0000E+00  0.0000E+00  0.0000E+00  0.0000E+00  0.0000E+00
    -35.337  0.0000E+00  0.0000E+00  0.0000E+00  0.0000E+00  0.0000E+00  0.0000E+00  0.0000E+00  0.0000E+00  0.0000E+00  0.0000E+00  0.0000E+00  0.0000E+00  0.0000E+00  0.0000E+00  0.0000E+00  0.0000E+00  0.0000E+00  0.0000E+00
    -35.147  0.0000E+00  0.0000E+00  0.0000E+00  0.0000E+00  0.0000E+00  0.0000E+00  0.0000E+00  0.0000E+00  0.0000E+00  0.0000E+00  0.0000E+00  0.0000E+00  0.0000E+00  0.0000E+00  0.0000E+00  0.0000E+00  0.0000E+00  0.0000E+00
    -34.957  0.0000E+00  0.0000E+00  0.0000E+00  0.0000E+00  0.0000E+00  0.0000E+00  0.0000E+00  0.0000E+00  0.0000E+00  0.0000E+00  0.0000E+00  0.0000E+00  0.0000E+00  0.0000E+00  0.0000E+00  0.0000E+00  0.0000E+00  0.0000E+00