 vasp.6.4.1 05Apr23 (build Jul 24 2024 14:19:02) complex                         
 executed on             LinuxGNU date 2024.10.23  13:21:55
 running    1 mpi-ranks, with   24 threads/rank, on    1 nodes
 distrk:  each k-point on    1 cores,    1 groups
 distr:  one band on NCORE=   1 cores,    1 groups


--------------------------------------------------------------------------------------------------------


 INCAR:
   ISTART = 0
   ALGO = Fast
   EDIFF = 0.0001
   ENCUT = 520
   IBRION = -1
   ISIF = 2
   ISMEAR = -5
   ISPIN = 2
   LASPH = True
   LMAXMIX = 6
   LORBIT = 11
   LREAL = Auto
   LWAVE = False
   MAGMOM = 2*0.6
   NELM = 100
   NSW = 0
   PREC = Accurate
   SIGMA = 0.05

 POTCAR:    PAW_PBE Nb_pv 08Apr2002               
 POTCAR:    PAW_PBE Nb_pv 08Apr2002               
   SHA256 =  bac2b60850b34f8515cf56f9feae68b678e347865051052a0e1f5d2c6a691c0a Nb_pv/POTCAR          
   COPYR  = (c) Copyright 08Apr2002 Georg Kresse                                                    
   COPYR  = This file is part of the software VASP. Any use, copying, and all other rights are regul
   COPYR  = If you do not have a valid VASP license, you may not use, copy or distribute this file. 
   VRHFIN =Nb: 4p5s4d                                                                               
   LEXCH  = PE                                                                                      
   EATOM  =  1043.3917 eV,   76.6871 Ry                                                             
                                                                                                    
   TITEL  = PAW_PBE Nb_pv 08Apr2002                                                                 
   LULTRA =        F    use ultrasoft PP ?                                                          
   IUNSCR =        1    unscreen: 0-lin 1-nonlin 2-no                                               
   RPACOR =    2.200    partial core radius                                                         
   POMASS =   92.000; ZVAL   =   11.000    mass and valenz                                          
   RCORE  =    2.750    outmost cutoff radius                                                       
   RWIGS  =    2.840; RWIGS  =    1.503    wigner-seitz radius (au A)                               
   ENMAX  =  208.608; ENMIN  =  156.456 eV                                                          
   RCLOC  =    2.201    cutoff for local pot                                                        
   LCOR   =        T    correct aug charges                                                         
   LPAW   =        T    paw PP                                                                      
   EAUG   =  355.067                                                                                
   DEXC   =    0.000                                                                                
   RMAX   =    2.804    core radius for proj-oper                                                   
   RAUG   =    1.300    factor for augmentation sphere                                              
   RDEP   =    2.776    radius for radial grids                                                     
   RDEPT  =    2.198    core radius for aug-charge                                                  
                                                                                                    
   Atomic configuration                                                                             
   11 entries                                                                                       
     n  l   j            E        occ.                                                              
     1  0  0.50    -18805.2456   2.0000                                                             
     2  0  0.50     -2630.2869   2.0000                                                             
     2  1  1.50     -2348.4045   6.0000                                                             
     3  0  0.50      -438.8756   2.0000                                                             
     3  1  1.50      -346.7587   6.0000                                                             
     3  2  2.50      -196.2559  10.0000                                                             
     4  0  0.50       -58.3859   2.0000                                                             
     4  1  1.50       -34.5141   6.0000                                                             
     4  2  2.50        -3.0408   4.0000                                                             
     5  0  0.50        -3.9816   1.0000                                                             
     4  3  2.50        -1.3606   0.0000                                                             
   Description                                                                                      
     l       E           TYP  RCUT    TYP  RCUT                                                     
     1    -34.5140617     23  2.600                                                                 
     1     -1.3605826     23  2.600                                                                 
     2     -3.0407924     23  2.600                                                                 
     2     -1.4463597     23  2.600                                                                 
     0     -3.9816219     23  2.750                                                                 
     0     20.4087390     23  2.750                                                                 
  local pseudopotential read in
  partial core-charges read in
  partial kinetic energy density read in
  atomic valenz-charges read in
  non local Contribution for L=           1  read in
    real space projection operators read in
  non local Contribution for L=           1  read in
    real space projection operators read in
  non local Contribution for L=           2  read in
    real space projection operators read in
  non local Contribution for L=           2  read in
    real space projection operators read in
  non local Contribution for L=           0  read in
    real space projection operators read in
  non local Contribution for L=           0  read in
    real space projection operators read in
    PAW grid and wavefunctions read in

   number of l-projection  operators is LMAX  =           6
   number of lm-projection operators is LMMAX =          18

 -----------------------------------------------------------------------------
|                                                                             |
|               ----> ADVICE to this user running VASP <----                  |
|                                                                             |
|     You have a (more or less) 'small supercell' and for smaller cells       |
|     it is recommended to use the reciprocal-space projection scheme!        |
|     The real-space optimization is not efficient for small cells and it     |
|     is also less accurate ...                                               |
|     Therefore, set LREAL=.FALSE. in the INCAR file.                         |
|                                                                             |
 -----------------------------------------------------------------------------

 Optimization of the real space projectors (new method)

 maximal supplied QI-value         = 13.61
 optimisation between [QCUT,QGAM] = [ 11.57, 23.27] = [ 37.45,151.59] Ry 
 Optimized for a Real-space Cutoff    1.63 Angstroem

   l    n(q)    QCUT    max X(q) W(low)/X(q) W(high)/X(q)  e(spline) 
   1     11    11.565     4.545    0.12E-04    0.18E-04    0.64E-07
   1     11    11.565     6.014    0.42E-04    0.48E-04    0.13E-06
   2     10    11.565   266.542    0.24E-03    0.87E-04    0.13E-05
   2     10    11.565   232.726    0.24E-03    0.87E-04    0.13E-05
   0     11    11.565    38.050    0.76E-04    0.32E-05    0.94E-06
   0     11    11.565    16.565    0.58E-04    0.25E-05    0.73E-06
  PAW_PBE Nb_pv 08Apr2002               :
 energy of atom  1       EATOM=-1043.3917
 kinetic energy error for atom=    0.0011 (will be added to EATOM!!)


 POSCAR: Generated POSCAR
  positions in direct lattice
  velocities in cartesian coordinates
 exchange correlation table for  LEXCH =        8
   RHO(1)=    0.500       N(1)  =     2000
   RHO(2)=  100.500       N(2)  =     4000



--------------------------------------------------------------------------------------------------------


 ion  position               nearest neighbor table
   1  0.000  0.000  0.000-   2 2.86   2 2.86   2 2.86   2 2.86   2 2.86   2 2.86   2 2.86   2 2.86

   2  0.500  0.500  0.500-   1 2.86   1 2.86   1 2.86   1 2.86   1 2.86   1 2.86   1 2.86   1 2.86


  LATTYP: Found a simple tetragonal cell.
 ALAT       =     3.3217793369
 C/A-ratio  =     0.9800000000
  
  Lattice vectors:
  
 A1 = (   3.3217793369,   0.0000000000,   0.0000000000)
 A2 = (   0.0000000000,   3.3217793369,   0.0000000000)
 A3 = (   0.0000000000,   0.0000000000,   3.2553437502)


Analysis of symmetry for initial positions (statically):
=====================================================================
 Subroutine PRICEL returns following result:
 
  LATTYP: Found a body centered tetragonal cell.
 ALAT       =     3.3217793369
 C/A-ratio  =     0.9800000000
  
  Lattice vectors:
  
 A1 = (  -1.6608896685,  -1.6608896685,  -1.6276718751)
 A2 = (   1.6608896685,   1.6608896685,  -1.6276718751)
 A3 = (   1.6608896685,  -1.6608896685,   1.6276718751)
 
   2 primitive cells build up your supercell.
 

 Routine SETGRP: Setting up the symmetry group for a 
 simple tetragonal supercell.


 Subroutine GETGRP returns: Found 16 space group operations
 (whereof 16 operations were pure point group operations)
 out of a pool of 16 trial point group operations.


The static configuration has the point symmetry D_4h.


Analysis of symmetry for dynamics (positions and initial velocities):
=====================================================================
 Subroutine PRICEL returns following result:
 
  LATTYP: Found a body centered tetragonal cell.
 ALAT       =     3.3217793369
 C/A-ratio  =     0.9800000000
  
  Lattice vectors:
  
 A1 = (  -1.6608896685,  -1.6608896685,  -1.6276718751)
 A2 = (   1.6608896685,   1.6608896685,  -1.6276718751)
 A3 = (   1.6608896685,  -1.6608896685,   1.6276718751)
 
   2 primitive cells build up your supercell.
 

 Routine SETGRP: Setting up the symmetry group for a 
 simple tetragonal supercell.


 Subroutine GETGRP returns: Found 16 space group operations
 (whereof 16 operations were pure point group operations)
 out of a pool of 16 trial point group operations.


The dynamic configuration has the point symmetry D_4h.


Analysis of structural, dynamic, and magnetic symmetry:
=====================================================================
 Subroutine PRICEL returns following result:
 
  LATTYP: Found a body centered tetragonal cell.
 ALAT       =     3.3217793369
 C/A-ratio  =     0.9800000000
  
  Lattice vectors:
  
 A1 = (  -1.6608896685,  -1.6608896685,  -1.6276718751)
 A2 = (   1.6608896685,   1.6608896685,  -1.6276718751)
 A3 = (   1.6608896685,  -1.6608896685,   1.6276718751)
 
   2 primitive cells build up your supercell.
 

 Routine SETGRP: Setting up the symmetry group for a 
 simple tetragonal supercell.


 Subroutine GETGRP returns: Found 16 space group operations
 (whereof 16 operations were pure point group operations)
 out of a pool of 16 trial point group operations.


The overall configuration has the point symmetry D_4h.


 Subroutine INISYM returns: Found 16 space group operations
 (whereof 16 operations are pure point group operations),
 and found     2 'primitive' translations


----------------------------------------------------------------------------------------

                                     Primitive cell                                     

  volume of cell :      17.9601

  direct lattice vectors                    reciprocal lattice vectors
    -1.660889668 -1.660889668 -1.627671875    -0.000000000 -0.301043477 -0.307187221
     1.660889668  1.660889668 -1.627671875     0.301043477 -0.000000000 -0.307187221
     1.660889668 -1.660889668  1.627671875     0.301043477 -0.301043477  0.000000000

  length of vectors
     2.857695700  2.857695700  2.857695700     0.430105991  0.430105991  0.425739767

  position of ions in fractional coordinates (direct lattice)
     0.000000000  0.000000000  0.000000000

  ion indices of the primitive-cell ions
   primitive index   ion index
                 1           1

----------------------------------------------------------------------------------------



 KPOINTS: pymatgen with grid density = 869 / numbe

Automatic generation of k-mesh.
 Grid dimensions read from file:
 generate k-points for:    7    7    7

 Generating k-lattice:

  Cartesian coordinates                     Fractional coordinates (reciprocal lattice)
     0.043006211 -0.000000000  0.000000000     0.142857143 -0.000000000  0.000000000
     0.000000000  0.043006211  0.000000000     0.000000000  0.142857143  0.000000000
    -0.000000000 -0.000000000  0.043883889    -0.000000000 -0.000000000  0.142857143

  Length of vectors
     0.043006211  0.043006211  0.043883889

  Shift w.r.t. Gamma in fractional coordinates (k-lattice)
     0.000000000  0.000000000  0.000000000

 TETIRR: Found    500 inequivalent tetrahedra from     2058
 
 Subroutine IBZKPT returns following result:
 ===========================================
 
 Found     40 irreducible k-points:
 
 Following reciprocal coordinates:
            Coordinates               Weight
  0.000000  0.000000  0.000000      1.000000
  0.142857  0.000000  0.000000      4.000000
  0.285714  0.000000  0.000000      4.000000
  0.428571  0.000000  0.000000      4.000000
  0.142857  0.142857  0.000000      4.000000
  0.285714  0.142857  0.000000      8.000000
  0.428571  0.142857  0.000000      8.000000
  0.285714  0.285714  0.000000      4.000000
  0.428571  0.285714  0.000000      8.000000
  0.428571  0.428571  0.000000      4.000000
  0.000000  0.000000  0.142857      2.000000
  0.142857  0.000000  0.142857      8.000000
  0.285714  0.000000  0.142857      8.000000
  0.428571  0.000000  0.142857      8.000000
  0.142857  0.142857  0.142857      8.000000
  0.285714  0.142857  0.142857     16.000000
  0.428571  0.142857  0.142857     16.000000
  0.285714  0.285714  0.142857      8.000000
  0.428571  0.285714  0.142857     16.000000
  0.428571  0.428571  0.142857      8.000000
  0.000000  0.000000  0.285714      2.000000
  0.142857  0.000000  0.285714      8.000000
  0.285714  0.000000  0.285714      8.000000
  0.428571  0.000000  0.285714      8.000000
  0.142857  0.142857  0.285714      8.000000
  0.285714  0.142857  0.285714     16.000000
  0.428571  0.142857  0.285714     16.000000
  0.285714  0.285714  0.285714      8.000000
  0.428571  0.285714  0.285714     16.000000
  0.428571  0.428571  0.285714      8.000000
  0.000000  0.000000  0.428571      2.000000
  0.142857  0.000000  0.428571      8.000000
  0.285714  0.000000  0.428571      8.000000
  0.428571  0.000000  0.428571      8.000000
  0.142857  0.142857  0.428571      8.000000
  0.285714  0.142857  0.428571     16.000000
  0.428571  0.142857  0.428571     16.000000
  0.285714  0.285714  0.428571      8.000000
  0.428571  0.285714  0.428571     16.000000
  0.428571  0.428571  0.428571      8.000000
 
 Following cartesian coordinates:
            Coordinates               Weight
  0.000000  0.000000  0.000000      1.000000
  0.043006  0.000000  0.000000      4.000000
  0.086012  0.000000  0.000000      4.000000
  0.129019  0.000000  0.000000      4.000000
  0.043006  0.043006  0.000000      4.000000
  0.086012  0.043006  0.000000      8.000000
  0.129019  0.043006  0.000000      8.000000
  0.086012  0.086012  0.000000      4.000000
  0.129019  0.086012  0.000000      8.000000
  0.129019  0.129019  0.000000      4.000000
  0.000000  0.000000  0.043884      2.000000
  0.043006  0.000000  0.043884      8.000000
  0.086012  0.000000  0.043884      8.000000
  0.129019  0.000000  0.043884      8.000000
  0.043006  0.043006  0.043884      8.000000
  0.086012  0.043006  0.043884     16.000000
  0.129019  0.043006  0.043884     16.000000
  0.086012  0.086012  0.043884      8.000000
  0.129019  0.086012  0.043884     16.000000
  0.129019  0.129019  0.043884      8.000000
  0.000000  0.000000  0.087768      2.000000
  0.043006  0.000000  0.087768      8.000000
  0.086012  0.000000  0.087768      8.000000
  0.129019  0.000000  0.087768      8.000000
  0.043006  0.043006  0.087768      8.000000
  0.086012  0.043006  0.087768     16.000000
  0.129019  0.043006  0.087768     16.000000
  0.086012  0.086012  0.087768      8.000000
  0.129019  0.086012  0.087768     16.000000
  0.129019  0.129019  0.087768      8.000000
  0.000000  0.000000  0.131652      2.000000
  0.043006  0.000000  0.131652      8.000000
  0.086012  0.000000  0.131652      8.000000
  0.129019  0.000000  0.131652      8.000000
  0.043006  0.043006  0.131652      8.000000
  0.086012  0.043006  0.131652     16.000000
  0.129019  0.043006  0.131652     16.000000
  0.086012  0.086012  0.131652      8.000000
  0.129019  0.086012  0.131652     16.000000
  0.129019  0.129019  0.131652      8.000000
 


--------------------------------------------------------------------------------------------------------




 Dimension of arrays:
   k-points           NKPTS =     40   k-points in BZ     NKDIM =     40   number of bands    NBANDS=     16
   number of dos      NEDOS =    301   number of ions     NIONS =      2
   non local maximal  LDIM  =      6   non local SUM 2l+1 LMDIM =     18
   total plane-waves  NPLWV =  18816
   max r-space proj   IRMAX =   9504   max aug-charges    IRDMAX=  32447
   dimension x,y,z NGX =    28 NGY =   28 NGZ =   24
   dimension x,y,z NGXF=    56 NGYF=   56 NGZF=   48
   support grid    NGXF=    56 NGYF=   56 NGZF=   48
   ions per type =               2
   NGX,Y,Z   is equivalent  to a cutoff of  14.01, 14.01, 12.26 a.u.
   NGXF,Y,Z  is equivalent  to a cutoff of  28.03, 28.03, 24.51 a.u.

 SYSTEM =  unknown system                          
 POSCAR =  Generated POSCAR                        

 Startparameter for this run:
   NWRITE =      2    write-flag & timer
   PREC   = accura    normal or accurate (medium, high low for compatibility)
   ISTART =      0    job   : 0-new  1-cont  2-samecut
   ICHARG =      2    charge: 1-file 2-atom 10-const
   ISPIN  =      2    spin polarized calculation?
   LNONCOLLINEAR =      F non collinear calculations
   LSORBIT =      F    spin-orbit coupling
   INIWAV =      1    electr: 0-lowe 1-rand  2-diag
   LASPH  =      T    aspherical Exc in radial PAW
 Electronic Relaxation 1
   ENCUT  =  520.0 eV  38.22 Ry    6.18 a.u.   6.18  6.18  6.05*2*pi/ulx,y,z
   ENINI  =  520.0     initial cutoff
   ENAUG  =  355.1 eV  augmentation charge cutoff
   NELM   =    100;   NELMIN=  2; NELMDL= -5     # of ELM steps 
   EDIFF  = 0.1E-03   stopping-criterion for ELM
   LREAL  =      T    real-space projection
   NLSPLINE    = F    spline interpolate recip. space projectors
   LCOMPAT=      F    compatible to vasp.4.4
   GGA_COMPAT  = T    GGA compatible to vasp.4.4-vasp.4.6
   LMAXPAW     = -100 max onsite density
   LMAXMIX     =    6 max onsite mixed and CHGCAR
   VOSKOWN=      0    Vosko Wilk Nusair interpolation
   ROPT   =   -0.00025
 Ionic relaxation
   EDIFFG = 0.1E-02   stopping-criterion for IOM
   NSW    =      0    number of steps for IOM
   NBLOCK =      1;   KBLOCK =      1    inner block; outer block 
   IBRION =     -1    ionic relax: 0-MD 1-quasi-New 2-CG
   NFREE  =      0    steps in history (QN), initial steepest desc. (CG)
   ISIF   =      2    stress and relaxation
   IWAVPR =     10    prediction:  0-non 1-charg 2-wave 3-comb
   ISYM   =      2    0-nonsym 1-usesym 2-fastsym
   LCORR  =      T    Harris-Foulkes like correction to forces

   POTIM  = 0.5000    time-step for ionic-motion
   TEIN   =    0.0    initial temperature
   TEBEG  =    0.0;   TEEND  =   0.0 temperature during run
   SMASS  =  -3.00    Nose mass-parameter (am)
   estimated Nose-frequenzy (Omega)   =  0.10E-29 period in steps = 0.13E+47 mass=  -0.252E-27a.u.
   SCALEE = 1.0000    scale energy and forces
   NPACO  =    256;   APACO  = 10.0  distance and # of slots for P.C.
   PSTRESS=    0.0 pullay stress

  Mass of Ions in am
   POMASS =  92.00
  Ionic Valenz
   ZVAL   =  11.00
  Atomic Wigner-Seitz radii
   RWIGS  =  -1.00
  virtual crystal weights 
   VCA    =   1.00
   NELECT =      22.0000    total number of electrons
   NUPDOWN=      -1.0000    fix difference up-down

 DOS related values:
   EMIN   =  10.00;   EMAX   =-10.00  energy-range for DOS
   EFERMI =   0.00;   METHOD = LEGACY      
   ISMEAR =    -5;   SIGMA  =   0.05  broadening in eV -4-tet -1-fermi 0-gaus

 Electronic relaxation 2 (details)
   IALGO  =     68    algorithm
   LDIAG  =      T    sub-space diagonalisation (order eigenvalues)
   LSUBROT=      F    optimize rotation matrix (better conditioning)
   TURBO    =      0    0=normal 1=particle mesh
   IRESTART =      0    0=no restart 2=restart with 2 vectors
   NREBOOT  =      0    no. of reboots
   NMIN     =      0    reboot dimension
   EREF     =   0.00    reference energy to select bands
   IMIX   =      4    mixing-type and parameters
     AMIX     =   0.40;   BMIX     =  1.00
     AMIX_MAG =   1.60;   BMIX_MAG =  1.00
     AMIN     =   0.10
     WC   =   100.;   INIMIX=   1;  MIXPRE=   1;  MAXMIX= -45

 Intra band minimization:
   WEIMIN = 0.0000     energy-eigenvalue tresh-hold
   EBREAK =  0.16E-05  absolut break condition
   DEPER  =   0.30     relativ break condition  

   TIME   =   0.40     timestep for ELM

  volume/ion in A,a.u.               =      17.96       121.20
  Fermi-wavevector in a.u.,A,eV,Ry     =   1.390282  2.627252 26.298486  1.932884
  Thomas-Fermi vector in A             =   2.514232

 Write flags
   LWAVE        =      F    write WAVECAR
   LDOWNSAMPLE  =      F    k-point downsampling of WAVECAR
   LCHARG       =      T    write CHGCAR
   LVTOT        =      F    write LOCPOT, total local potential
   LVHAR        =      F    write LOCPOT, Hartree potential only
   LELF         =      F    write electronic localiz. function (ELF)
   LORBIT       =     11    0 simple, 1 ext, 2 COOP (PROOUT), +10 PAW based schemes


 Dipole corrections
   LMONO  =      F    monopole corrections only (constant potential shift)
   LDIPOL =      F    correct potential (dipole corrections)
   IDIPOL =      0    1-x, 2-y, 3-z, 4-all directions 
   EPSILON=  1.0000000 bulk dielectric constant

 Exchange correlation treatment:
   GGA     =    --    GGA type
   LEXCH   =     8    internal setting for exchange type
   LIBXC   =     F    Libxc                    
   VOSKOWN =     0    Vosko Wilk Nusair interpolation
   LHFCALC =     F    Hartree Fock is set to
   LHFONE  =     F    Hartree Fock one center treatment
   AEXX    =    0.0000 exact exchange contribution

 Linear response parameters
   LEPSILON=     F    determine dielectric tensor
   LRPA    =     F    only Hartree local field effects (RPA)
   LNABLA  =     F    use nabla operator in PAW spheres
   LVEL    =     F    velocity operator in full k-point grid
   CSHIFT  =0.1000    complex shift for real part using Kramers Kronig
   OMEGAMAX=  -1.0    maximum frequency
   DEG_THRESHOLD= 0.2000000E-02 threshold for treating states as degnerate
   RTIME   =   -0.100 relaxation time in fs
  (WPLASMAI=    0.000 imaginary part of plasma frequency in eV, 0.658/RTIME)
   DFIELD  = 0.0000000 0.0000000 0.0000000 field for delta impulse in time

  Optional k-point grid parameters
   LKPOINTS_OPT  =     F    use optional k-point grid
   KPOINTS_OPT_MODE=     1    mode for optional k-point grid

 Orbital magnetization related:
   ORBITALMAG=     F  switch on orbital magnetization
   LCHIMAG   =     F  perturbation theory with respect to B field
   DQ        =  0.001000  dq finite difference perturbation B field
   LLRAUG    =     F  two centre corrections for induced B field
   LBONE     =     F  B-component reconstruction in AE one-centre
   LVGVCALC  =     T  calculate vGv susceptibility
   LVGVAPPL  =     F  apply vGv susceptibility instead of pGv for G=0

 Random number generation:
   RANDOM_GENERATOR = DEFAULT
   PCG_SEED         = not used


--------------------------------------------------------------------------------------------------------


 Static calculation
 charge density and potential will be updated during run
 spin polarized calculation
 RMM-DIIS sequential band-by-band and
  variant of blocked Davidson during initial phase
 perform sub-space diagonalisation
    before iterative eigenvector-optimisation
 modified Broyden-mixing scheme, WC =      100.0
 initial mixing is a Kerker type mixing with AMIX =  0.4000 and BMIX =      1.0000
 Hartree-type preconditioning will be used
 using additional bands            5
 real space projection scheme for non local part
 use partial core corrections
 calculate Harris-corrections to forces   (improved forces if not selfconsistent)
 use gradient corrections 
 use of overlap-Matrix (Vanderbilt PP)
 Fermi weights with tetrahedron method with Bloechl corrections


--------------------------------------------------------------------------------------------------------


  energy-cutoff  :      520.00
  volume of cell :       35.92
      direct lattice vectors                 reciprocal lattice vectors
     3.321779337  0.000000000  0.000000000     0.301043477 -0.000000000  0.000000000
     0.000000000  3.321779337  0.000000000     0.000000000  0.301043477  0.000000000
     0.000000000  0.000000000  3.255343750    -0.000000000 -0.000000000  0.307187221

  length of vectors
     3.321779337  3.321779337  3.255343750     0.301043477  0.301043477  0.307187221



 k-points in units of 2pi/SCALE and weight: pymatgen with grid density = 869 / numbe
   0.00000000  0.00000000  0.00000000       0.003
   0.04300621  0.00000000  0.00000000       0.012
   0.08601242  0.00000000  0.00000000       0.012
   0.12901863  0.00000000  0.00000000       0.012
   0.04300621  0.04300621  0.00000000       0.012
   0.08601242  0.04300621  0.00000000       0.023
   0.12901863  0.04300621  0.00000000       0.023
   0.08601242  0.08601242  0.00000000       0.012
   0.12901863  0.08601242  0.00000000       0.023
   0.12901863  0.12901863  0.00000000       0.012
   0.00000000  0.00000000  0.04388389       0.006
   0.04300621  0.00000000  0.04388389       0.023
   0.08601242  0.00000000  0.04388389       0.023
   0.12901863  0.00000000  0.04388389       0.023
   0.04300621  0.04300621  0.04388389       0.023
   0.08601242  0.04300621  0.04388389       0.047
   0.12901863  0.04300621  0.04388389       0.047
   0.08601242  0.08601242  0.04388389       0.023
   0.12901863  0.08601242  0.04388389       0.047
   0.12901863  0.12901863  0.04388389       0.023
   0.00000000  0.00000000  0.08776778       0.006
   0.04300621  0.00000000  0.08776778       0.023
   0.08601242  0.00000000  0.08776778       0.023
   0.12901863  0.00000000  0.08776778       0.023
   0.04300621  0.04300621  0.08776778       0.023
   0.08601242  0.04300621  0.08776778       0.047
   0.12901863  0.04300621  0.08776778       0.047
   0.08601242  0.08601242  0.08776778       0.023
   0.12901863  0.08601242  0.08776778       0.047
   0.12901863  0.12901863  0.08776778       0.023
   0.00000000  0.00000000  0.13165167       0.006
   0.04300621  0.00000000  0.13165167       0.023
   0.08601242  0.00000000  0.13165167       0.023
   0.12901863  0.00000000  0.13165167       0.023
   0.04300621  0.04300621  0.13165167       0.023
   0.08601242  0.04300621  0.13165167       0.047
   0.12901863  0.04300621  0.13165167       0.047
   0.08601242  0.08601242  0.13165167       0.023
   0.12901863  0.08601242  0.13165167       0.047
   0.12901863  0.12901863  0.13165167       0.023

 k-points in reciprocal lattice and weights: pymatgen with grid density = 869 / numbe
   0.00000000  0.00000000  0.00000000       0.003
   0.14285714  0.00000000  0.00000000       0.012
   0.28571429  0.00000000  0.00000000       0.012
   0.42857143  0.00000000  0.00000000       0.012
   0.14285714  0.14285714  0.00000000       0.012
   0.28571429  0.14285714  0.00000000       0.023
   0.42857143  0.14285714  0.00000000       0.023
   0.28571429  0.28571429  0.00000000       0.012
   0.42857143  0.28571429  0.00000000       0.023
   0.42857143  0.42857143  0.00000000       0.012
   0.00000000  0.00000000  0.14285714       0.006
   0.14285714  0.00000000  0.14285714       0.023
   0.28571429  0.00000000  0.14285714       0.023
   0.42857143  0.00000000  0.14285714       0.023
   0.14285714  0.14285714  0.14285714       0.023
   0.28571429  0.14285714  0.14285714       0.047
   0.42857143  0.14285714  0.14285714       0.047
   0.28571429  0.28571429  0.14285714       0.023
   0.42857143  0.28571429  0.14285714       0.047
   0.42857143  0.42857143  0.14285714       0.023
   0.00000000  0.00000000  0.28571429       0.006
   0.14285714  0.00000000  0.28571429       0.023
   0.28571429  0.00000000  0.28571429       0.023
   0.42857143  0.00000000  0.28571429       0.023
   0.14285714  0.14285714  0.28571429       0.023
   0.28571429  0.14285714  0.28571429       0.047
   0.42857143  0.14285714  0.28571429       0.047
   0.28571429  0.28571429  0.28571429       0.023
   0.42857143  0.28571429  0.28571429       0.047
   0.42857143  0.42857143  0.28571429       0.023
   0.00000000  0.00000000  0.42857143       0.006
   0.14285714  0.00000000  0.42857143       0.023
   0.28571429  0.00000000  0.42857143       0.023
   0.42857143  0.00000000  0.42857143       0.023
   0.14285714  0.14285714  0.42857143       0.023
   0.28571429  0.14285714  0.42857143       0.047
   0.42857143  0.14285714  0.42857143       0.047
   0.28571429  0.28571429  0.42857143       0.023
   0.42857143  0.28571429  0.42857143       0.047
   0.42857143  0.42857143  0.42857143       0.023

 position of ions in fractional coordinates (direct lattice) 
   0.00000000  0.00000000  0.00000000
   0.50000000  0.50000000  0.50000000

 position of ions in cartesian coordinates  (Angst):
   0.00000000  0.00000000  0.00000000
   1.66088967  1.66088967  1.62767188



--------------------------------------------------------------------------------------------------------


 k-point   1 :   0.0000 0.0000 0.0000  plane waves:     957
 k-point   2 :   0.1429 0.0000 0.0000  plane waves:     961
 k-point   3 :   0.2857 0.0000 0.0000  plane waves:     970
 k-point   4 :   0.4286 0.0000 0.0000  plane waves:     968
 k-point   5 :   0.1429 0.1429 0.0000  plane waves:     957
 k-point   6 :   0.2857 0.1429 0.0000  plane waves:     965
 k-point   7 :   0.4286 0.1429 0.0000  plane waves:     955
 k-point   8 :   0.2857 0.2857 0.0000  plane waves:     965
 k-point   9 :   0.4286 0.2857 0.0000  plane waves:     964
 k-point  10 :   0.4286 0.4286 0.0000  plane waves:     974
 k-point  11 :   0.0000 0.0000 0.1429  plane waves:     980
 k-point  12 :   0.1429 0.0000 0.1429  plane waves:     969
 k-point  13 :   0.2857 0.0000 0.1429  plane waves:     962
 k-point  14 :   0.4286 0.0000 0.1429  plane waves:     963
 k-point  15 :   0.1429 0.1429 0.1429  plane waves:     960
 k-point  16 :   0.2857 0.1429 0.1429  plane waves:     966
 k-point  17 :   0.4286 0.1429 0.1429  plane waves:     968
 k-point  18 :   0.2857 0.2857 0.1429  plane waves:     970
 k-point  19 :   0.4286 0.2857 0.1429  plane waves:     962
 k-point  20 :   0.4286 0.4286 0.1429  plane waves:     970
 k-point  21 :   0.0000 0.0000 0.2857  plane waves:     968
 k-point  22 :   0.1429 0.0000 0.2857  plane waves:     963
 k-point  23 :   0.2857 0.0000 0.2857  plane waves:     970
 k-point  24 :   0.4286 0.0000 0.2857  plane waves:     965
 k-point  25 :   0.1429 0.1429 0.2857  plane waves:     962
 k-point  26 :   0.2857 0.1429 0.2857  plane waves:     973
 k-point  27 :   0.4286 0.1429 0.2857  plane waves:     970
 k-point  28 :   0.2857 0.2857 0.2857  plane waves:     969
 k-point  29 :   0.4286 0.2857 0.2857  plane waves:     973
 k-point  30 :   0.4286 0.4286 0.2857  plane waves:     978
 k-point  31 :   0.0000 0.0000 0.4286  plane waves:     960
 k-point  32 :   0.1429 0.0000 0.4286  plane waves:     971
 k-point  33 :   0.2857 0.0000 0.4286  plane waves:     965
 k-point  34 :   0.4286 0.0000 0.4286  plane waves:     968
 k-point  35 :   0.1429 0.1429 0.4286  plane waves:     965
 k-point  36 :   0.2857 0.1429 0.4286  plane waves:     968
 k-point  37 :   0.4286 0.1429 0.4286  plane waves:     974
 k-point  38 :   0.2857 0.2857 0.4286  plane waves:     971
 k-point  39 :   0.4286 0.2857 0.4286  plane waves:     974
 k-point  40 :   0.4286 0.4286 0.4286  plane waves:     971

 maximum and minimum number of plane-waves per node :       980      955

 maximum number of plane-waves:       980
 maximum index in each direction: 
   IXMAX=    6   IYMAX=    6   IZMAX=    6
   IXMIN=   -6   IYMIN=   -6   IZMIN=   -6


 serial   3D FFT for wavefunctions
 parallel 3D FFT for charge:
    minimum data exchange during FFTs selected (reduces bandwidth)


 total amount of memory used by VASP MPI-rank0    72736. kBytes
=======================================================================

   base      :      30000. kBytes
   nonlr-proj:       3808. kBytes
   fftplans  :       5340. kBytes
   grid      :      12719. kBytes
   one-center:         62. kBytes
   wavefun   :      20807. kBytes

     INWAV:  cpu time      0.0012: real time      0.0001
 Broyden mixing: mesh for mixing (old mesh)
   NGX = 13   NGY = 13   NGZ = 13
  (NGX  = 56   NGY  = 56   NGZ  = 48)
  gives a total of   2197 points

 initial charge density was supplied:
 charge density of overlapping atoms calculated
 number of electron      22.0000000 magnetization       1.2000000
 keeping initial charge density in first step


--------------------------------------------------------------------------------------------------------


 Maximum index for non-local projection operator          577
 Maximum index for augmentation-charges        31219 (set IRDMAX)


--------------------------------------------------------------------------------------------------------


 First call to EWALD:  gamma=   0.537
 Maximum number of real-space cells 3x 3x 3
 Maximum number of reciprocal cells 3x 3x 3

    FEWALD:  cpu time      0.3900: real time      0.0144


--------------------------------------- Ionic step        1  -------------------------------------------




--------------------------------------- Iteration      1(   1)  ---------------------------------------


    POTLOK:  cpu time      1.6309: real time      0.1196
    SETDIJ:  cpu time      1.0494: real time      0.2653
     EDDAV:  cpu time    267.6715: real time     14.6962
 BZINTS: Fermi energy:   24.111520;   22.000000 electrons
         Band energy:-0.228240E+02;  BLOECHL correction:   -0.677832
       DOS:  cpu time      0.2052: real time      0.0272
    --------------------------------------------
      LOOP:  cpu time    270.5570: real time     15.1083

 eigenvalue-minimisations  :  2744
 total energy-change (2. order) : 0.2043142E+03  (-0.1169404E+04)
 number of electron      22.0000000 magnetization       1.2000000
 augmentation part       22.0000000 magnetization       1.2000000

 Free energy of the ion-electron system (eV)
  ---------------------------------------------------
  alpha Z        PSCENC =       252.06371612
  Ewald energy   TEWEN  =     -1921.77102286
  -Hartree energ DENC   =      -274.62979934
  -exchange      EXHF   =         0.00000000
  -V(xc)+E(xc)   XCENC  =        52.78563812
  PAW double counting   =      1671.32378679    -1639.41528309
  entropy T*S    EENTRO =         0.00000000
  eigenvalues    EBANDS =       -22.82404926
  atomic energy  EATOM  =      2086.78124273
  Solvation  Ediel_sol  =         0.00000000
  ---------------------------------------------------
  free energy    TOTEN  =       204.31422921 eV

  energy without entropy =      204.31422921  energy(sigma->0) =      204.31422921


--------------------------------------------------------------------------------------------------------




--------------------------------------- Iteration      1(   2)  ---------------------------------------


     EDDAV:  cpu time    252.7328: real time     13.9947
 BZINTS: Fermi energy:    7.178705;   22.000000 electrons
         Band energy:-0.237632E+03;  BLOECHL correction:   -0.262735
       DOS:  cpu time      0.1985: real time      0.0254
    --------------------------------------------
      LOOP:  cpu time    252.9314: real time     14.0201

 eigenvalue-minimisations  :  2720
 total energy-change (2. order) :-0.2148076E+03  (-0.2125931E+03)
 number of electron      22.0000000 magnetization       1.2000000
 augmentation part       22.0000000 magnetization       1.2000000

 Free energy of the ion-electron system (eV)
  ---------------------------------------------------
  alpha Z        PSCENC =       252.06371612
  Ewald energy   TEWEN  =     -1921.77102286
  -Hartree energ DENC   =      -274.62979934
  -exchange      EXHF   =         0.00000000
  -V(xc)+E(xc)   XCENC  =        52.78563812
  PAW double counting   =      1671.32378679    -1639.41528309
  entropy T*S    EENTRO =         0.00000000
  eigenvalues    EBANDS =      -237.63160850
  atomic energy  EATOM  =      2086.78124273
  Solvation  Ediel_sol  =         0.00000000
  ---------------------------------------------------
  free energy    TOTEN  =       -10.49333003 eV

  energy without entropy =      -10.49333003  energy(sigma->0) =      -10.49333003


--------------------------------------------------------------------------------------------------------




--------------------------------------- Iteration      1(   3)  ---------------------------------------


     EDDAV:  cpu time    396.0911: real time     21.7050
 BZINTS: Fermi energy:    5.613821;   22.000000 electrons
         Band energy:-0.248076E+03;  BLOECHL correction:   -0.220258
       DOS:  cpu time      0.2889: real time      0.0284
    --------------------------------------------
      LOOP:  cpu time    396.3800: real time     21.7334

 eigenvalue-minimisations  :  4232
 total energy-change (2. order) :-0.1044437E+02  (-0.9874986E+01)
 number of electron      22.0000000 magnetization       1.2000000
 augmentation part       22.0000000 magnetization       1.2000000

 Free energy of the ion-electron system (eV)
  ---------------------------------------------------
  alpha Z        PSCENC =       252.06371612
  Ewald energy   TEWEN  =     -1921.77102286
  -Hartree energ DENC   =      -274.62979934
  -exchange      EXHF   =         0.00000000
  -V(xc)+E(xc)   XCENC  =        52.78563812
  PAW double counting   =      1671.32378679    -1639.41528309
  entropy T*S    EENTRO =         0.00000000
  eigenvalues    EBANDS =      -248.07597978
  atomic energy  EATOM  =      2086.78124273
  Solvation  Ediel_sol  =         0.00000000
  ---------------------------------------------------
  free energy    TOTEN  =       -20.93770131 eV

  energy without entropy =      -20.93770131  energy(sigma->0) =      -20.93770131


--------------------------------------------------------------------------------------------------------




--------------------------------------- Iteration      1(   4)  ---------------------------------------


     EDDAV:  cpu time    338.7803: real time     18.2377
 BZINTS: Fermi energy:    5.589701;   22.000000 electrons
         Band energy:-0.248243E+03;  BLOECHL correction:   -0.216959
       DOS:  cpu time      0.2342: real time      0.0267
    --------------------------------------------
      LOOP:  cpu time    339.0144: real time     18.2644

 eigenvalue-minimisations  :  3176
 total energy-change (2. order) :-0.1667951E+00  (-0.1651868E+00)
 number of electron      22.0000000 magnetization       1.2000000
 augmentation part       22.0000000 magnetization       1.2000000

 Free energy of the ion-electron system (eV)
  ---------------------------------------------------
  alpha Z        PSCENC =       252.06371612
  Ewald energy   TEWEN  =     -1921.77102286
  -Hartree energ DENC   =      -274.62979934
  -exchange      EXHF   =         0.00000000
  -V(xc)+E(xc)   XCENC  =        52.78563812
  PAW double counting   =      1671.32378679    -1639.41528309
  entropy T*S    EENTRO =         0.00000000
  eigenvalues    EBANDS =      -248.24277485
  atomic energy  EATOM  =      2086.78124273
  Solvation  Ediel_sol  =         0.00000000
  ---------------------------------------------------
  free energy    TOTEN  =       -21.10449638 eV

  energy without entropy =      -21.10449638  energy(sigma->0) =      -21.10449638


--------------------------------------------------------------------------------------------------------




--------------------------------------- Iteration      1(   5)  ---------------------------------------


     EDDAV:  cpu time    398.6760: real time     21.4664
 BZINTS: Fermi energy:    5.588664;   22.000000 electrons
         Band energy:-0.248249E+03;  BLOECHL correction:   -0.216670
       DOS:  cpu time      0.2501: real time      0.0267
    CHARGE:  cpu time     19.8233: real time      1.1187
    MIXING:  cpu time      0.3372: real time      0.0125
    --------------------------------------------
      LOOP:  cpu time    419.0865: real time     22.6243

 eigenvalue-minimisations  :  3952
 total energy-change (2. order) :-0.5787650E-02  (-0.5856479E-02)
 number of electron      22.0000000 magnetization       0.3298290
 augmentation part        7.7668790 magnetization      -0.0634901

 Broyden mixing:
  rms(total) = 0.24887E+01    rms(broyden)= 0.24887E+01
  rms(prec ) = 0.28859E+01
  weight for this iteration     100.00

 Free energy of the ion-electron system (eV)
  ---------------------------------------------------
  alpha Z        PSCENC =       252.06371612
  Ewald energy   TEWEN  =     -1921.77102286
  -Hartree energ DENC   =      -274.62979934
  -exchange      EXHF   =         0.00000000
  -V(xc)+E(xc)   XCENC  =        52.78563812
  PAW double counting   =      1671.32378679    -1639.41528309
  entropy T*S    EENTRO =         0.00000000
  eigenvalues    EBANDS =      -248.24856250
  atomic energy  EATOM  =      2086.78124273
  Solvation  Ediel_sol  =         0.00000000
  ---------------------------------------------------
  free energy    TOTEN  =       -21.11028403 eV

  energy without entropy =      -21.11028403  energy(sigma->0) =      -21.11028403


--------------------------------------------------------------------------------------------------------




--------------------------------------- Iteration      1(   6)  ---------------------------------------


    POTLOK:  cpu time      2.2737: real time      0.1535
    SETDIJ:  cpu time      1.1740: real time      0.2559
    EDDIAG:  cpu time     53.1592: real time      2.9802
  RMM-DIIS:  cpu time    157.6897: real time      8.6499
    ORTHCH:  cpu time      0.8219: real time      0.0552
 BZINTS: Fermi energy:    5.251433;   22.000000 electrons
         Band energy:-0.261808E+03;  BLOECHL correction:   -0.216700
       DOS:  cpu time      0.2926: real time      0.0287
    CHARGE:  cpu time     17.4543: real time      0.9929
    MIXING:  cpu time      0.0011: real time      0.0011
    --------------------------------------------
      LOOP:  cpu time    232.8666: real time     13.1174

 eigenvalue-minimisations  :  2803
 total energy-change (2. order) : 0.7715710E+00  (-0.7538620E-01)
 number of electron      22.0000000 magnetization       0.1436939
 augmentation part        7.8899715 magnetization      -0.0573424

 Broyden mixing:
  rms(total) = 0.96906E+00    rms(broyden)= 0.96906E+00
  rms(prec ) = 0.12318E+01
  weight for this iteration     100.00

 eigenvalues of (default mixing * dielectric matrix)
  average eigenvalue GAMMA=   1.5248
  1.5248

 Free energy of the ion-electron system (eV)
  ---------------------------------------------------
  alpha Z        PSCENC =       252.06371612
  Ewald energy   TEWEN  =     -1921.77102286
  -Hartree energ DENC   =      -255.78965185
  -exchange      EXHF   =         0.00000000
  -V(xc)+E(xc)   XCENC  =        51.79414229
  PAW double counting   =      2214.32094966    -2185.92958983
  entropy T*S    EENTRO =         0.00000000
  eigenvalues    EBANDS =      -261.80849926
  atomic energy  EATOM  =      2086.78124273
  Solvation  Ediel_sol  =         0.00000000
  ---------------------------------------------------
  free energy    TOTEN  =       -20.33871300 eV

  energy without entropy =      -20.33871300  energy(sigma->0) =      -20.33871300


--------------------------------------------------------------------------------------------------------




--------------------------------------- Iteration      1(   7)  ---------------------------------------


    POTLOK:  cpu time      1.9849: real time      0.1318
    SETDIJ:  cpu time      1.0320: real time      0.2670
    EDDIAG:  cpu time     62.4327: real time      3.4502
  RMM-DIIS:  cpu time    178.2381: real time      9.8387
    ORTHCH:  cpu time      0.7767: real time      0.0498
 BZINTS: Fermi energy:    4.965137;   22.000000 electrons
         Band energy:-0.273341E+03;  BLOECHL correction:   -0.213875
       DOS:  cpu time      0.3015: real time      0.0273
    CHARGE:  cpu time     21.1688: real time      1.1687
    MIXING:  cpu time      0.0017: real time      0.0017
    --------------------------------------------
      LOOP:  cpu time    265.9363: real time     14.9353

 eigenvalue-minimisations  :  3477
 total energy-change (2. order) : 0.1501115E+00  (-0.2049122E+00)
 number of electron      22.0000000 magnetization       0.0292860
 augmentation part        8.0589789 magnetization       0.0362164

 Broyden mixing:
  rms(total) = 0.25989E+00    rms(broyden)= 0.25989E+00
  rms(prec ) = 0.27642E+00
  weight for this iteration     100.00

 eigenvalues of (default mixing * dielectric matrix)
  average eigenvalue GAMMA=   1.0838
  1.6415  0.5261

 Free energy of the ion-electron system (eV)
  ---------------------------------------------------
  alpha Z        PSCENC =       252.06371612
  Ewald energy   TEWEN  =     -1921.77102286
  -Hartree energ DENC   =      -240.24658438
  -exchange      EXHF   =         0.00000000
  -V(xc)+E(xc)   XCENC  =        51.02105047
  PAW double counting   =      2686.12304113    -2660.81925309
  entropy T*S    EENTRO =         0.00000000
  eigenvalues    EBANDS =      -273.34079164
  atomic energy  EATOM  =      2086.78124273
  Solvation  Ediel_sol  =         0.00000000
  ---------------------------------------------------
  free energy    TOTEN  =       -20.18860152 eV

  energy without entropy =      -20.18860152  energy(sigma->0) =      -20.18860152


--------------------------------------------------------------------------------------------------------




--------------------------------------- Iteration      1(   8)  ---------------------------------------


    POTLOK:  cpu time      1.4556: real time      0.1095
    SETDIJ:  cpu time      1.0920: real time      0.2701
    EDDIAG:  cpu time     51.9210: real time      2.9226
  RMM-DIIS:  cpu time    205.1981: real time     11.2111
    ORTHCH:  cpu time      1.1358: real time      0.0634
 BZINTS: Fermi energy:    4.975105;   22.000000 electrons
         Band energy:-0.272854E+03;  BLOECHL correction:   -0.213973
       DOS:  cpu time      0.2289: real time      0.0300
    CHARGE:  cpu time     16.5416: real time      0.9464
    MIXING:  cpu time      0.0013: real time      0.0013
    --------------------------------------------
      LOOP:  cpu time    277.5744: real time     15.5546

 eigenvalue-minimisations  :  3666
 total energy-change (2. order) :-0.1105427E-01  (-0.9918591E-02)
 number of electron      22.0000000 magnetization       0.0156794
 augmentation part        8.0656174 magnetization       0.0140446

 Broyden mixing:
  rms(total) = 0.12143E+00    rms(broyden)= 0.12143E+00
  rms(prec ) = 0.14859E+00
  weight for this iteration     100.00

 eigenvalues of (default mixing * dielectric matrix)
  average eigenvalue GAMMA=   1.0772
  1.8638  0.6839  0.6839

 Free energy of the ion-electron system (eV)
  ---------------------------------------------------
  alpha Z        PSCENC =       252.06371612
  Ewald energy   TEWEN  =     -1921.77102286
  -Hartree energ DENC   =      -240.52957548
  -exchange      EXHF   =         0.00000000
  -V(xc)+E(xc)   XCENC  =        51.02819218
  PAW double counting   =      2737.44659687    -2712.36449558
  entropy T*S    EENTRO =         0.00000000
  eigenvalues    EBANDS =      -272.85430978
  atomic energy  EATOM  =      2086.78124273
  Solvation  Ediel_sol  =         0.00000000
  ---------------------------------------------------
  free energy    TOTEN  =       -20.19965579 eV

  energy without entropy =      -20.19965579  energy(sigma->0) =      -20.19965579


--------------------------------------------------------------------------------------------------------




--------------------------------------- Iteration      1(   9)  ---------------------------------------


    POTLOK:  cpu time      2.1706: real time      0.1455
    SETDIJ:  cpu time      1.0745: real time      0.2590
    EDDIAG:  cpu time     54.6274: real time      3.0546
  RMM-DIIS:  cpu time    247.0292: real time     13.0288
    ORTHCH:  cpu time      1.0332: real time      0.0622
 BZINTS: Fermi energy:    4.983871;   22.000000 electrons
         Band energy:-0.272446E+03;  BLOECHL correction:   -0.214109
       DOS:  cpu time      0.3313: real time      0.0262
    CHARGE:  cpu time     16.2438: real time      0.9284
    MIXING:  cpu time      0.0014: real time      0.0014
    --------------------------------------------
      LOOP:  cpu time    322.5114: real time     17.5061

 eigenvalue-minimisations  :  3671
 total energy-change (2. order) : 0.2317266E-03  (-0.2245387E-02)
 number of electron      22.0000000 magnetization       0.0150035
 augmentation part        8.0657841 magnetization       0.0165037

 Broyden mixing:
  rms(total) = 0.99115E-01    rms(broyden)= 0.99115E-01
  rms(prec ) = 0.12472E+00
  weight for this iteration     100.00

 eigenvalues of (default mixing * dielectric matrix)
  average eigenvalue GAMMA=   1.1157
  2.1447  0.8562  0.8562  0.6059

 Free energy of the ion-electron system (eV)
  ---------------------------------------------------
  alpha Z        PSCENC =       252.06371612
  Ewald energy   TEWEN  =     -1921.77102286
  -Hartree energ DENC   =      -240.87006796
  -exchange      EXHF   =         0.00000000
  -V(xc)+E(xc)   XCENC  =        51.04392992
  PAW double counting   =      2780.87698704    -2755.87842214
  entropy T*S    EENTRO =         0.00000000
  eigenvalues    EBANDS =      -272.44578692
  atomic energy  EATOM  =      2086.78124273
  Solvation  Ediel_sol  =         0.00000000
  ---------------------------------------------------
  free energy    TOTEN  =       -20.19942407 eV

  energy without entropy =      -20.19942407  energy(sigma->0) =      -20.19942407


--------------------------------------------------------------------------------------------------------




--------------------------------------- Iteration      1(  10)  ---------------------------------------


    POTLOK:  cpu time      1.2360: real time      0.0953
    SETDIJ:  cpu time      1.0867: real time      0.2524
    EDDIAG:  cpu time     48.4836: real time      2.7376
  RMM-DIIS:  cpu time    158.6954: real time      8.7605
    ORTHCH:  cpu time      0.6621: real time      0.0465
 BZINTS: Fermi energy:    5.005428;   22.000000 electrons
         Band energy:-0.271492E+03;  BLOECHL correction:   -0.214376
       DOS:  cpu time      0.2715: real time      0.0251
    CHARGE:  cpu time     17.5872: real time      0.9914
    MIXING:  cpu time      0.0017: real time      0.0017
    --------------------------------------------
      LOOP:  cpu time    228.0244: real time     12.9104

 eigenvalue-minimisations  :  2949
 total energy-change (2. order) : 0.3481997E-02  (-0.5585085E-03)
 number of electron      22.0000000 magnetization      -0.0060445
 augmentation part        8.0574936 magnetization      -0.0008760

 Broyden mixing:
  rms(total) = 0.67243E-01    rms(broyden)= 0.67243E-01
  rms(prec ) = 0.74584E-01
  weight for this iteration     100.00

 eigenvalues of (default mixing * dielectric matrix)
  average eigenvalue GAMMA=   1.3619
  2.6606  1.3814  1.3814  0.6228  0.7631

 Free energy of the ion-electron system (eV)
  ---------------------------------------------------
  alpha Z        PSCENC =       252.06371612
  Ewald energy   TEWEN  =     -1921.77102286
  -Hartree energ DENC   =      -241.79455862
  -exchange      EXHF   =         0.00000000
  -V(xc)+E(xc)   XCENC  =        51.08801720
  PAW double counting   =      2862.97780179    -2838.04909935
  entropy T*S    EENTRO =         0.00000000
  eigenvalues    EBANDS =      -271.49203908
  atomic energy  EATOM  =      2086.78124273
  Solvation  Ediel_sol  =         0.00000000
  ---------------------------------------------------
  free energy    TOTEN  =       -20.19594207 eV

  energy without entropy =      -20.19594207  energy(sigma->0) =      -20.19594207


--------------------------------------------------------------------------------------------------------




--------------------------------------- Iteration      1(  11)  ---------------------------------------


    POTLOK:  cpu time      1.1325: real time      0.0938
    SETDIJ:  cpu time      1.1220: real time      0.2549
    EDDIAG:  cpu time     45.3237: real time      2.6086
  RMM-DIIS:  cpu time    180.1455: real time      9.9950
    ORTHCH:  cpu time      1.0730: real time      0.0633
 BZINTS: Fermi energy:    5.017252;   22.000000 electrons
         Band energy:-0.270964E+03;  BLOECHL correction:   -0.214516
       DOS:  cpu time      0.2237: real time      0.0265
    CHARGE:  cpu time     16.8795: real time      0.9522
    MIXING:  cpu time      0.1120: real time      0.0083
    --------------------------------------------
      LOOP:  cpu time    246.0119: real time     14.0026

 eigenvalue-minimisations  :  3378
 total energy-change (2. order) :-0.5710383E-04  (-0.5310089E-03)
 number of electron      22.0000000 magnetization      -0.0043561
 augmentation part        8.0508264 magnetization      -0.0002864

 Broyden mixing:
  rms(total) = 0.41701E-02    rms(broyden)= 0.41701E-02
  rms(prec ) = 0.48040E-02
  weight for this iteration     100.00

 eigenvalues of (default mixing * dielectric matrix)
  average eigenvalue GAMMA=   1.2727
  2.6018  1.4487  1.4487  0.7946  0.6120  0.7305

 Free energy of the ion-electron system (eV)
  ---------------------------------------------------
  alpha Z        PSCENC =       252.06371612
  Ewald energy   TEWEN  =     -1921.77102286
  -Hartree energ DENC   =      -242.27237612
  -exchange      EXHF   =         0.00000000
  -V(xc)+E(xc)   XCENC  =        51.11054630
  PAW double counting   =      2940.79191679    -2915.93607308
  entropy T*S    EENTRO =         0.00000000
  eigenvalues    EBANDS =      -270.96394906
  atomic energy  EATOM  =      2086.78124273
  Solvation  Ediel_sol  =         0.00000000
  ---------------------------------------------------
  free energy    TOTEN  =       -20.19599917 eV

  energy without entropy =      -20.19599917  energy(sigma->0) =      -20.19599917


--------------------------------------------------------------------------------------------------------




--------------------------------------- Iteration      1(  12)  ---------------------------------------


    POTLOK:  cpu time      1.6915: real time      0.1295
    SETDIJ:  cpu time      1.1306: real time      0.2497
    EDDIAG:  cpu time     51.5703: real time      2.9080
  RMM-DIIS:  cpu time    122.2621: real time      6.8826
    ORTHCH:  cpu time      0.7522: real time      0.0461
 BZINTS: Fermi energy:    5.017376;   22.000000 electrons
         Band energy:-0.270958E+03;  BLOECHL correction:   -0.214519
       DOS:  cpu time      0.2667: real time      0.0274
    --------------------------------------------
      LOOP:  cpu time    177.6734: real time     10.2433

 eigenvalue-minimisations  :  2357
 total energy-change (2. order) :-0.7555497E-04  (-0.5561439E-04)
 number of electron      22.0000000 magnetization      -0.0043561
 augmentation part        8.0508264 magnetization      -0.0002864

 Free energy of the ion-electron system (eV)
  ---------------------------------------------------
  alpha Z        PSCENC =       252.06371612
  Ewald energy   TEWEN  =     -1921.77102286
  -Hartree energ DENC   =      -242.29505974
  -exchange      EXHF   =         0.00000000
  -V(xc)+E(xc)   XCENC  =        51.11164888
  PAW double counting   =      2940.12924565    -2915.25743542
  entropy T*S    EENTRO =         0.00000000
  eigenvalues    EBANDS =      -270.95841010
  atomic energy  EATOM  =      2086.78124273
  Solvation  Ediel_sol  =         0.00000000
  ---------------------------------------------------
  free energy    TOTEN  =       -20.19607473 eV

  energy without entropy =      -20.19607473  energy(sigma->0) =      -20.19607473


--------------------------------------------------------------------------------------------------------




 average (electrostatic) potential at core
  the test charge radii are     1.2125
  (the norm of the test charge is              1.0000)
       1 -34.9547       2 -34.9547



 E-fermi :   5.0174     XC(G=0): -12.4486     alpha+bet :-13.0256

 Fermi energy:         5.0173762315

 spin component 1

 k-point     1 :       0.0000    0.0000    0.0000
  band No.  band energies     occupation 
      1     -25.6276      1.00000
      2     -25.6276      1.00000
      3     -25.5730      1.00000
      4     -24.6761      1.00000
      5     -24.6761      1.00000
      6     -24.6749      1.00000
      7      -0.9400      1.00000
      8       1.2243      1.00000
      9       1.2761      1.00000
     10       5.2041      0.04460
     11       5.4328     -0.03214
     12       5.4328      0.00000
     13       8.1100      0.00000
     14       8.4205      0.00000
     15      10.5871      0.00000
     16      10.6015      0.00000

 k-point     2 :       0.1429    0.0000    0.0000
  band No.  band energies     occupation 
      1     -25.6279      1.00000
      2     -25.5795      1.00000
      3     -25.5273      1.00000
      4     -24.7754      1.00000
      5     -24.7219      1.00000
      6     -24.7179      1.00000
      7      -0.5263      1.00000
      8       1.4884      1.00000
      9       1.5845      1.00000
     10       5.1886      0.25490
     11       5.4111     -0.04687
     12       5.6255      0.00000
     13       7.5872      0.00000
     14       8.5528      0.00000
     15       9.4373      0.00000
     16       9.4825      0.00000

 k-point     3 :       0.2857    0.0000    0.0000
  band No.  band energies     occupation 
      1     -25.6031      1.00000
      2     -25.4453      1.00000
      3     -25.3999      1.00000
      4     -25.0204      1.00000
      5     -24.8512      1.00000
      6     -24.8392      1.00000
      7       0.5762      1.00000
      8       2.1658      1.00000
      9       2.3553      1.00000
     10       5.2529      0.56684
     11       5.4590     -0.14611
     12       6.1885      0.00000
     13       6.2282      0.00000
     14       7.7301      0.00000
     15       7.8474      0.00000
     16       9.0127      0.00000

 k-point     4 :       0.4286    0.0000    0.0000
  band No.  band energies     occupation 
      1     -25.5014      1.00000
      2     -25.2954      1.00000
      3     -25.2523      1.00000
      4     -25.2173      1.00000
      5     -25.0401      1.00000
      6     -25.0170      1.00000
      7       1.9308      1.00000
      8       2.7177      1.00000
      9       3.2501      1.00000
     10       4.6614      0.99923
     11       5.6111     -0.19869
     12       5.7941      0.00000
     13       6.4202      0.00000
     14       6.5750      0.00000
     15       7.0715      0.00000
     16       8.1740      0.00000

 k-point     5 :       0.1429    0.1429    0.0000
  band No.  band energies     occupation 
      1     -25.7086      1.00000
      2     -25.4855      1.00000
      3     -25.4577      1.00000
      4     -24.9531      1.00000
      5     -24.7557      1.00000
      6     -24.6758      1.00000
      7      -0.1538      1.00000
      8       1.7391      1.00000
      9       1.8821      1.00000
     10       4.9916      0.78403
     11       5.0798      0.38489
     12       6.2353     -0.00583
     13       7.6068      0.00000
     14       8.2301      0.00000
     15       8.4150      0.00000
     16       8.4396      0.00000

 k-point     6 :       0.2857    0.1429    0.0000
  band No.  band energies     occupation 
      1     -25.7481      1.00000
      2     -25.3689      1.00000
      3     -25.2792      1.00000
      4     -25.2351      1.00000
      5     -24.8632      1.00000
      6     -24.7331      1.00000
      7       0.8053      1.00000
      8       2.2560      1.00000
      9       2.6992      1.00000
     10       4.7570      1.00347
     11       4.9098      0.85663
     12       6.7153     -0.05083
     13       6.9328      0.00000
     14       7.1111      0.00000
     15       7.1361      0.00000
     16       8.8102      0.00000

 k-point     7 :       0.4286    0.1429    0.0000
  band No.  band energies     occupation 
      1     -25.6882      1.00000
      2     -25.5073      1.00000
      3     -25.2027      1.00000
      4     -25.0768      1.00000
      5     -25.0221      1.00000
      6     -24.8810      1.00000
      7       1.9111      1.00000
      8       2.5602      1.00000
      9       3.5382      1.00000
     10       4.4509      1.00278
     11       4.9214      0.87039
     12       5.5724     -0.04309
     13       6.4810      0.00000
     14       6.5995      0.00000
     15       8.1590      0.00000
     16       9.3526      0.00000

 k-point     8 :       0.2857    0.2857    0.0000
  band No.  band energies     occupation 
      1     -25.8864      1.00000
      2     -25.5407      1.00000
      3     -25.2834      1.00000
      4     -25.0608      1.00000
      5     -24.9329      1.00000
      6     -24.6752      1.00000
      7       1.2465      1.00000
      8       2.2132      1.00000
      9       3.7169      1.00000
     10       4.1431      1.00000
     11       4.9725      0.90499
     12       5.3471      0.03634
     13       6.6303      0.00000
     14       7.7098      0.00000
     15       8.3995      0.00000
     16       8.5484      0.00000

 k-point     9 :       0.4286    0.2857    0.0000
  band No.  band energies     occupation 
      1     -25.9111      1.00000
      2     -25.7897      1.00000
      3     -25.1645      1.00000
      4     -25.0392      1.00000
      5     -24.8668      1.00000
      6     -24.7277      1.00000
      7       1.5996      1.00000
      8       1.9405      1.00000
      9       4.0002      1.00000
     10       4.4042      1.00000
     11       4.7669      0.81494
     12       5.2776      0.01508
     13       7.0805      0.00000
     14       7.6298      0.00000
     15       9.1072      0.00000
     16       9.6676      0.00000

 k-point    10 :       0.4286    0.4286    0.0000
  band No.  band energies     occupation 
      1     -26.0249      1.00000
      2     -25.9823      1.00000
      3     -25.1157      1.00000
      4     -25.0709      1.00000
      5     -24.7252      1.00000
      6     -24.6749      1.00000
      7       1.3314      1.00000
      8       1.4431      1.00000
      9       3.5633      1.00000
     10       3.6994      1.00000
     11       6.3067     -0.15630
     12       6.6742     -0.07631
     13       7.7360      0.00000
     14       8.1425      0.00000
     15       8.8314      0.00000
     16       9.8282      0.00000

 k-point    11 :       0.0000    0.0000    0.1429
  band No.  band energies     occupation 
      1     -25.5856      1.00000
      2     -25.5785      1.00000
      3     -25.5785      1.00000
      4     -24.7817      1.00000
      5     -24.7208      1.00000
      6     -24.7208      1.00000
      7      -0.5092      1.00000
      8       1.4626      1.00000
      9       1.6480      1.00000
     10       5.3711      0.04127
     11       5.3711     -0.02590
     12       5.4072      0.00000
     13       7.8192      0.00000
     14       8.3636      0.00000
     15       9.3420      0.00000
     16       9.3420      0.00000

 k-point    12 :       0.1429    0.0000    0.1429
  band No.  band energies     occupation 
      1     -25.6873      1.00000
      2     -25.5344      1.00000
      3     -25.4380      1.00000
      4     -24.9519      1.00000
      5     -24.7612      1.00000
      6     -24.6795      1.00000
      7      -0.1364      1.00000
      8       1.7231      1.00000
      9       1.9350      1.00000
     10       4.8371      0.93385
     11       5.2452      0.08609
     12       6.1410     -0.00637
     13       7.8229      0.00000
     14       8.1001      0.00000
     15       8.2612      0.00000
     16       8.4368      0.00000

 k-point    13 :       0.2857    0.0000    0.1429
  band No.  band energies     occupation 
      1     -25.7310      1.00000
      2     -25.4115      1.00000
      3     -25.2616      1.00000
      4     -25.2288      1.00000
      5     -24.8757      1.00000
      6     -24.7348      1.00000
      7       0.8242      1.00000
      8       2.2623      1.00000
      9       2.7257      1.00000
     10       4.5812      1.02399
     11       5.0101      0.71240
     12       6.5622     -0.05275
     13       7.0624      0.00000
     14       7.0638      0.00000
     15       7.2066      0.00000
     16       8.8027      0.00000

 k-point    14 :       0.4286    0.0000    0.1429
  band No.  band energies     occupation 
      1     -25.6745      1.00000
      2     -25.4970      1.00000
      3     -25.2360      1.00000
      4     -25.0650      1.00000
      5     -25.0446      1.00000
      6     -24.8766      1.00000
      7       1.9343      1.00000
      8       2.5830      1.00000
      9       3.5379      1.00000
     10       4.4556      1.00319
     11       4.7428      0.95981
     12       5.4026     -0.02811
     13       6.6744      0.00000
     14       6.7410      0.00000
     15       8.1446      0.00000
     16       9.3638      0.00000

 k-point    15 :       0.1429    0.1429    0.1429
  band No.  band energies     occupation 
      1     -25.6559      1.00000
      2     -25.6291      1.00000
      3     -25.3021      1.00000
      4     -25.0926      1.00000
      5     -24.7294      1.00000
      6     -24.7247      1.00000
      7       0.2218      1.00000
      8       2.0703      1.00000
      9       2.1242      1.00000
     10       4.6806      1.03435
     11       4.8253      0.85510
     12       6.6037     -0.05677
     13       6.8204      0.00000
     14       7.9325      0.00000
     15       8.1483      0.00000
     16       9.5169      0.00000

 k-point    16 :       0.2857    0.1429    0.1429
  band No.  band energies     occupation 
      1     -25.7423      1.00000
      2     -25.4936      1.00000
      3     -25.3501      1.00000
      4     -25.1255      1.00000
      5     -24.8655      1.00000
      6     -24.7373      1.00000
      7       1.1153      1.00000
      8       2.6157      1.00000
      9       2.8195      1.00000
     10       4.3918      1.01495
     11       4.5373      1.04621
     12       5.3433      0.10388
     13       7.3511      0.00000
     14       7.9141      0.00000
     15       8.1108      0.00000
     16       8.6924      0.00000

 k-point    17 :       0.4286    0.1429    0.1429
  band No.  band energies     occupation 
      1     -25.7303      1.00000
      2     -25.5900      1.00000
      3     -25.2902      1.00000
      4     -25.0658      1.00000
      5     -24.9586      1.00000
      6     -24.8216      1.00000
      7       2.0840      1.00000
      8       2.8146      1.00000
      9       3.3292      1.00000
     10       3.9947      1.00390
     11       4.7765      0.97308
     12       5.0506      0.27173
     13       6.8790      0.00000
     14       7.1099      0.00000
     15       8.7994      0.00000
     16       9.1036      0.00000

 k-point    18 :       0.2857    0.2857    0.1429
  band No.  band energies     occupation 
      1     -25.8258      1.00000
      2     -25.5818      1.00000
      3     -25.4368      1.00000
      4     -24.9596      1.00000
      5     -24.9336      1.00000
      6     -24.7338      1.00000
      7       1.6728      1.00000
      8       2.6521      1.00000
      9       3.7393      1.00000
     10       3.9896      1.00000
     11       4.3487      1.00323
     12       4.3831      0.93116
     13       7.7174      0.00000
     14       7.8782      0.00000
     15       8.5701      0.00000
     16       9.2897      0.00000

 k-point    19 :       0.4286    0.2857    0.1429
  band No.  band energies     occupation 
      1     -25.8657      1.00000
      2     -25.7800      1.00000
      3     -25.2706      1.00000
      4     -25.0845      1.00000
      5     -24.8347      1.00000
      6     -24.7597      1.00000
      7       1.9986      1.00000
      8       2.3113      1.00000
      9       3.7986      1.00000
     10       3.8721      1.00000
     11       4.8245      0.85919
     12       4.8862      0.63084
     13       7.5389      0.00000
     14       7.7455      0.00000
     15       8.9457      0.00000
     16       9.4206      0.00000

 k-point    20 :       0.4286    0.4286    0.1429
  band No.  band energies     occupation 
      1     -25.9583      1.00000
      2     -25.9287      1.00000
      3     -25.1918      1.00000
      4     -25.1203      1.00000
      5     -24.7639      1.00000
      6     -24.7414      1.00000
      7       1.7677      1.00000
      8       1.8480      1.00000
      9       3.4907      1.00000
     10       3.5874      1.00000
     11       5.9116     -0.10833
     12       6.0066     -0.15607
     13       8.0035      0.00000
     14       8.2370      0.00000
     15       8.8684      0.00000
     16       9.2900      0.00000

 k-point    21 :       0.0000    0.0000    0.2857
  band No.  band energies     occupation 
      1     -25.5897      1.00000
      2     -25.4420      1.00000
      3     -25.4420      1.00000
      4     -25.0410      1.00000
      5     -24.8475      1.00000
      6     -24.8475      1.00000
      7       0.6326      1.00000
      8       2.1664      1.00000
      9       2.4764      1.00000
     10       5.3333      0.49783
     11       5.3333      0.01100
     12       6.0009      0.00000
     13       6.3993      0.00000
     14       7.6220      0.00000
     15       7.6220      0.00000
     16       9.0236      0.00000

 k-point    22 :       0.1429    0.0000    0.2857
  band No.  band energies     occupation 
      1     -25.7352      1.00000
      2     -25.4092      1.00000
      3     -25.2770      1.00000
      4     -25.2411      1.00000
      5     -24.8732      1.00000
      6     -24.7424      1.00000
      7       0.8571      1.00000
      8       2.2747      1.00000
      9       2.7910      1.00000
     10       4.5761      1.01292
     11       4.9934      0.73727
     12       6.5175     -0.05256
     13       6.9933      0.00000
     14       7.1138      0.00000
     15       7.1185      0.00000
     16       8.8240      0.00000

 k-point    23 :       0.2857    0.0000    0.2857
  band No.  band energies     occupation 
      1     -25.8730      1.00000
      2     -25.5377      1.00000
      3     -25.3191      1.00000
      4     -25.0635      1.00000
      5     -24.9475      1.00000
      6     -24.6886      1.00000
      7       1.2819      1.00000
      8       2.2209      1.00000
      9       3.7954      1.00000
     10       3.9380      1.00000
     11       5.0483      0.80380
     12       5.1429      0.11392
     13       6.7111      0.00000
     14       7.9777      0.00000
     15       8.3440      0.00000
     16       8.5199      0.00000

 k-point    24 :       0.4286    0.0000    0.2857
  band No.  band energies     occupation 
      1     -25.8988      1.00000
      2     -25.7807      1.00000
      3     -25.1934      1.00000
      4     -25.0606      1.00000
      5     -24.8750      1.00000
      6     -24.7401      1.00000
      7       1.6124      1.00000
      8       1.9390      1.00000
      9       3.7870      1.00000
     10       4.1926      1.00000
     11       4.8429      0.77081
     12       5.3426     -0.02065
     13       7.2400      0.00000
     14       7.8832      0.00000
     15       9.1333      0.00000
     16       9.6679      0.00000

 k-point    25 :       0.1429    0.1429    0.2857
  band No.  band energies     occupation 
      1     -25.7367      1.00000
      2     -25.5087      1.00000
      3     -25.3572      1.00000
      4     -25.1333      1.00000
      5     -24.8634      1.00000
      6     -24.7495      1.00000
      7       1.1441      1.00000
      8       2.5994      1.00000
      9       2.8994      1.00000
     10       4.4025      1.01224
     11       4.4639      1.07918
     12       5.3076      0.10583
     13       7.4659      0.00000
     14       7.8498      0.00000
     15       7.9528      0.00000
     16       8.7063      0.00000

 k-point    26 :       0.2857    0.1429    0.2857
  band No.  band energies     occupation 
      1     -25.8145      1.00000
      2     -25.5821      1.00000
      3     -25.4581      1.00000
      4     -24.9666      1.00000
      5     -24.9373      1.00000
      6     -24.7470      1.00000
      7       1.6876      1.00000
      8       2.6275      1.00000
      9       3.8104      1.00000
     10       3.8331      1.00000
     11       4.2901      1.02364
     12       4.4623      0.93669
     13       7.6627      0.00000
     14       8.0716      0.00000
     15       8.5286      0.00000
     16       9.2774      0.00000

 k-point    27 :       0.4286    0.1429    0.2857
  band No.  band energies     occupation 
      1     -25.8570      1.00000
      2     -25.7750      1.00000
      3     -25.2880      1.00000
      4     -25.0959      1.00000
      5     -24.8430      1.00000
      6     -24.7704      1.00000
      7       1.9919      1.00000
      8       2.2842      1.00000
      9       3.6579      1.00000
     10       3.8042      1.00000
     11       4.8429      0.83975
     12       4.9516      0.52853
     13       7.6392      0.00000
     14       7.9209      0.00000
     15       8.9489      0.00000
     16       9.4888      0.00000

 k-point    28 :       0.2857    0.2857    0.2857
  band No.  band energies     occupation 
      1     -25.6875      1.00000
      2     -25.6559      1.00000
      3     -25.6487      1.00000
      4     -24.9153      1.00000
      5     -24.8993      1.00000
      6     -24.8680      1.00000
      7       2.6341      1.00000
      8       3.1944      1.00000
      9       3.6391      1.00000
     10       3.7170      1.00000
     11       3.7441      1.03198
     12       3.8315      1.07610
     13       8.4721      0.00000
     14       8.5129      0.00000
     15       8.6511      0.00000
     16       8.8390      0.00000

 k-point    29 :       0.4286    0.2857    0.2857
  band No.  band energies     occupation 
      1     -25.7768      1.00000
      2     -25.7737      1.00000
      3     -25.4130      1.00000
      4     -25.1491      1.00000
      5     -24.8588      1.00000
      6     -24.8365      1.00000
      7       2.7274      1.00000
      8       2.7301      1.00000
      9       3.6058      1.00000
     10       3.7088      1.00000
     11       4.2811      1.00633
     12       4.6022      1.00043
     13       8.3144      0.00000
     14       8.3338      0.00000
     15       8.9016      0.00000
     16       8.9734      0.00000

 k-point    30 :       0.4286    0.4286    0.2857
  band No.  band energies     occupation 
      1     -25.7897      1.00000
      2     -25.7712      1.00000
      3     -25.3581      1.00000
      4     -25.2142      1.00000
      5     -24.9282      1.00000
      6     -24.8876      1.00000
      7       2.7067      1.00000
      8       2.8583      1.00000
      9       3.4150      1.00000
     10       3.6180      1.00000
     11       4.8396      0.86130
     12       5.0030      0.71415
     13       8.5925      0.00000
     14       8.6436      0.00000
     15       8.9378      0.00000
     16       8.9861      0.00000

 k-point    31 :       0.0000    0.0000    0.4286
  band No.  band energies     occupation 
      1     -25.5155      1.00000
      2     -25.3218      1.00000
      3     -25.2470      1.00000
      4     -25.2470      1.00000
      5     -25.0346      1.00000
      6     -25.0346      1.00000
      7       2.0276      1.00000
      8       2.8489      1.00000
      9       3.2969      1.00000
     10       4.7681      0.98880
     11       5.5921     -0.08089
     12       5.5921      0.00000
     13       6.3359      0.00000
     14       6.3359      0.00000
     15       6.9328      0.00000
     16       8.0983      0.00000

 k-point    32 :       0.1429    0.0000    0.4286
  band No.  band energies     occupation 
      1     -25.6909      1.00000
      2     -25.5174      1.00000
      3     -25.2317      1.00000
      4     -25.0836      1.00000
      5     -25.0402      1.00000
      6     -24.8912      1.00000
      7       1.9811      1.00000
      8       2.6319      1.00000
      9       3.5987      1.00000
     10       4.5152      1.00213
     11       4.7070      0.97754
     12       5.3480     -0.02273
     13       6.5569      0.00000
     14       6.6256      0.00000
     15       8.0506      0.00000
     16       9.2391      0.00000

 k-point    33 :       0.2857    0.0000    0.4286
  band No.  band energies     occupation 
      1     -25.9072      1.00000
      2     -25.7899      1.00000
      3     -25.1915      1.00000
      4     -25.0586      1.00000
      5     -24.8819      1.00000
      6     -24.7462      1.00000
      7       1.6146      1.00000
      8       1.9426      1.00000
      9       3.7698      1.00000
     10       4.1723      1.00000
     11       4.8558      0.76302
     12       5.3733     -0.02891
     13       7.2566      0.00000
     14       7.8082      0.00000
     15       9.3182      0.00000
     16       9.6231      0.00000

 k-point    34 :       0.4286    0.0000    0.4286
  band No.  band energies     occupation 
      1     -26.0187      1.00000
      2     -25.9774      1.00000
      3     -25.1400      1.00000
      4     -25.0925      1.00000
      5     -24.7451      1.00000
      6     -24.6961      1.00000
      7       1.3173      1.00000
      8       1.4237      1.00000
      9       3.3252      1.00000
     10       3.4614      1.00000
     11       6.4303     -0.16440
     12       6.8166     -0.05485
     13       7.9857      0.00000
     14       8.3969      0.00000
     15       8.9802      0.00000
     16      10.0136      0.00000

 k-point    35 :       0.1429    0.1429    0.4286
  band No.  band energies     occupation 
      1     -25.7392      1.00000
      2     -25.6033      1.00000
      3     -25.2980      1.00000
      4     -25.0674      1.00000
      5     -24.9725      1.00000
      6     -24.8371      1.00000
      7       2.1078      1.00000
      8       2.8433      1.00000
      9       3.3355      1.00000
     10       4.0065      1.00538
[...]
  band No.  band energies     occupation 
      1     -26.0192      1.00000
      2     -25.9779      1.00000
      3     -25.1404      1.00000
      4     -25.0929      1.00000
      5     -24.7455      1.00000
      6     -24.6965      1.00000
      7       1.3154      1.00000
      8       1.4218      1.00000
      9       3.3237      1.00000
     10       3.4599      1.00000
     11       6.4282     -0.16419
     12       6.8141     -0.05554
     13       7.9849      0.00000
     14       8.3962      0.00000
     15       8.9798      0.00000
     16      10.0125      0.00000

 k-point    35 :       0.1429    0.1429    0.4286
  band No.  band energies     occupation 
      1     -25.7397      1.00000
      2     -25.6038      1.00000
      3     -25.2984      1.00000
      4     -25.0678      1.00000
      5     -24.9728      1.00000
      6     -24.8375      1.00000
      7       2.1056      1.00000
      8       2.8413      1.00000
      9       3.3339      1.00000
     10       4.0050      1.00534
     11       4.7112      0.98900
     12       5.0411      0.26406
     13       6.8602      0.00000
     14       6.9799      0.00000
     15       8.8788      0.00000
     16       9.2830      0.00000

 k-point    36 :       0.2857    0.1429    0.4286
  band No.  band energies     occupation 
      1     -25.8653      1.00000
      2     -25.7839      1.00000
      3     -25.2863      1.00000
      4     -25.0923      1.00000
      5     -24.8509      1.00000
      6     -24.7796      1.00000
      7       1.9764      1.00000
      8       2.2729      1.00000
      9       3.6451      1.00000
     10       3.7572      1.00000
     11       4.9027      0.81600
     12       4.9628      0.51916
     13       7.5890      0.00000
     14       7.8452      0.00000
     15       9.1897      0.00000
     16       9.6489      0.00000

 k-point    37 :       0.4286    0.1429    0.4286
  band No.  band energies     occupation 
      1     -25.9549      1.00000
      2     -25.9269      1.00000
      3     -25.2072      1.00000
      4     -25.1322      1.00000
      5     -24.7834      1.00000
      6     -24.7628      1.00000
      7       1.7274      1.00000
      8       1.8000      1.00000
      9       3.2995      1.00000
     10       3.4070      1.00000
     11       6.0355     -0.16323
     12       6.1395     -0.12515
     13       8.1980      0.00000
     14       8.4541      0.00000
     15       9.0060      0.00000
     16       9.4535      0.00000

 k-point    38 :       0.2857    0.2857    0.4286
  band No.  band energies     occupation 
      1     -25.7832      1.00000
      2     -25.7797      1.00000
      3     -25.4114      1.00000
      4     -25.1411      1.00000
      5     -24.8749      1.00000
      6     -24.8466      1.00000
      7       2.6439      1.00000
      8       2.6582      1.00000
      9       3.5901      1.00000
     10       3.6545      1.00000
     11       4.3338      0.99828
     12       4.6965      0.97205
     13       8.2253      0.00000
     14       8.3153      0.00000
     15       9.1241      0.00000
     16       9.2368      0.00000

 k-point    39 :       0.4286    0.2857    0.4286
  band No.  band energies     occupation 
      1     -25.7931      1.00000
      2     -25.7739      1.00000
      3     -25.3560      1.00000
      4     -25.2053      1.00000
      5     -24.9481      1.00000
      6     -24.9014      1.00000
      7       2.6245      1.00000
      8       2.7684      1.00000
      9       3.3298      1.00000
     10       3.5307      1.00000
     11       4.9636      0.79283
     12       5.1234      0.45110
     13       8.6473      0.00000
     14       8.7258      0.00000
     15       9.0624      0.00000
     16       9.1364      0.00000

 k-point    40 :       0.4286    0.4286    0.4286
  band No.  band energies     occupation 
      1     -25.6369      1.00000
      2     -25.5138      1.00000
      3     -25.5007      1.00000
      4     -25.2206      1.00000
      5     -25.1995      1.00000
      6     -25.0726      1.00000
      7       3.1574      1.00000
      8       3.5815      1.00000
      9       3.6003      1.00000
     10       4.1262      1.00000
     11       4.2350      1.00000
     12       4.2464      1.10564
     13       8.9595      0.00000
     14       8.9729      0.00000
     15       9.0997      0.00000
     16       9.1000      0.00000


--------------------------------------------------------------------------------------------------------


 soft charge-density along one line, spin component           1
         0         1         2         3         4         5         6         7         8         9
 total charge-density along one line

 soft charge-density along one line, spin component           2
         0         1         2         3         4         5         6         7         8         9
 total charge-density along one line

 pseudopotential strength for first ion, spin component:           1
-27.990   0.000   0.000   5.902   0.000  -0.000  -0.000  -0.000
  0.000 -27.990   0.000   0.000   5.902  -0.000  -0.000  -0.000
  0.000   0.000 -27.990  -0.000  -0.000   5.902  -0.000  -0.000
  5.902   0.000  -0.000   4.248   0.000   0.000   0.000   0.000
  0.000   5.902  -0.000   0.000   4.248   0.000   0.000   0.000
 -0.000  -0.000   5.902   0.000   0.000   4.248   0.000   0.000
 -0.000  -0.000  -0.000   0.000   0.000   0.000  -6.310   0.000
 -0.000  -0.000  -0.000   0.000   0.000   0.000   0.000  -6.309
  0.000  -0.000   0.000  -0.000   0.000  -0.000  -0.000   0.000
 -0.000   0.000  -0.000   0.000  -0.000   0.000  -0.000   0.000
  0.000  -0.000   0.000  -0.000   0.000  -0.000  -0.000  -0.000
 -0.000  -0.000  -0.000   0.000   0.000   0.000  -7.157   0.000
 -0.000  -0.000  -0.000   0.000   0.000   0.000   0.000  -7.157
  0.000  -0.000   0.000  -0.000   0.000  -0.000  -0.000   0.000
 -0.000   0.000  -0.000   0.000  -0.000   0.000  -0.000   0.000
  0.000  -0.000   0.000  -0.000   0.000  -0.000  -0.000  -0.000
  0.000   0.000  -0.000   0.000  -0.000   0.000  -0.000   0.000
 -0.000  -0.000   0.000  -0.000  -0.000  -0.000   0.000  -0.000
 pseudopotential strength for first ion, spin component:           2
-27.990   0.000   0.000   5.902  -0.000  -0.000  -0.000  -0.000
  0.000 -27.990   0.000  -0.000   5.902  -0.000  -0.000  -0.000
  0.000   0.000 -27.990  -0.000  -0.000   5.902  -0.000  -0.000
  5.902  -0.000  -0.000   4.248   0.000   0.000   0.000   0.000
 -0.000   5.902  -0.000   0.000   4.248   0.000   0.000   0.000
 -0.000  -0.000   5.902   0.000   0.000   4.248   0.000   0.000
 -0.000  -0.000  -0.000   0.000   0.000   0.000  -6.310   0.000
 -0.000  -0.000  -0.000   0.000   0.000   0.000   0.000  -6.310
  0.000  -0.000   0.000  -0.000   0.000  -0.000  -0.000   0.000
 -0.000   0.000  -0.000   0.000  -0.000   0.000  -0.000   0.000
  0.000  -0.000   0.000  -0.000   0.000  -0.000  -0.000   0.000
 -0.000  -0.000  -0.000   0.000   0.000   0.000  -7.157   0.000
 -0.000  -0.000  -0.000   0.000   0.000   0.000   0.000  -7.157
  0.000  -0.000   0.000  -0.000   0.000  -0.000  -0.000   0.000
 -0.000   0.000  -0.000   0.000  -0.000   0.000  -0.000   0.000
  0.000  -0.000   0.000  -0.000   0.000  -0.000  -0.000   0.000
  0.000   0.000  -0.000   0.000  -0.000   0.000  -0.000   0.000
 -0.000  -0.000   0.000  -0.000  -0.000  -0.000   0.000   0.000
 total augmentation occupancy for first ion, spin component:           1
  1.994   0.000   0.000  -0.011  -0.000  -0.000   0.000   0.000  -0.000   0.000   0.000  -0.000  -0.000   0.000   0.000   0.000
  0.000   1.994   0.000  -0.000  -0.011  -0.000   0.000   0.000   0.000   0.000   0.000   0.000  -0.000   0.000   0.000   0.000
  0.000   0.000   1.994  -0.000  -0.000  -0.011   0.000   0.000   0.000   0.000   0.000   0.000   0.000   0.000   0.000   0.000
 -0.011  -0.000  -0.000   0.208   0.000   0.000   0.000   0.000   0.000  -0.000   0.000   0.000   0.000   0.000   0.000   0.000
 -0.000  -0.011  -0.000   0.000   0.210   0.000   0.000   0.000   0.000   0.000  -0.000   0.000   0.000   0.000   0.000   0.000
 -0.000  -0.000  -0.011   0.000   0.000   0.208   0.000   0.000   0.000   0.000   0.000   0.000  -0.000   0.000   0.000   0.000
  0.000   0.000   0.000   0.000   0.000   0.000   6.309   0.000  -0.000   0.000   0.000  -3.545  -0.000   0.000  -0.000  -0.000
 -0.000   0.000   0.000   0.000   0.000  -0.000   0.000   6.219   0.000   0.000  -0.000  -0.000  -3.502  -0.000  -0.000   0.000
  0.000   0.000   0.000   0.000   0.000   0.000  -0.000   0.000   5.939   0.000   0.000   0.000  -0.000  -3.526  -0.000   0.000
  0.000   0.000   0.000   0.000   0.000   0.000   0.000   0.000   0.000   6.219   0.000  -0.000  -0.000  -0.000  -3.502  -0.000
  0.000   0.000   0.000   0.000  -0.000   0.000   0.000  -0.000   0.000   0.000   5.844  -0.000   0.000   0.000  -0.000  -3.478
  0.000   0.000   0.000   0.000   0.000   0.000  -3.545  -0.000   0.000  -0.000  -0.000   2.032   0.000  -0.000   0.000  -0.000
  0.000  -0.000   0.000   0.000   0.000  -0.000  -0.000  -3.502  -0.000  -0.000   0.000   0.000   2.012   0.000   0.000  -0.000
  0.000   0.000   0.000   0.000   0.000   0.000   0.000  -0.000  -3.526  -0.000   0.000  -0.000   0.000   2.112   0.000  -0.000
  0.000  -0.000   0.000   0.000   0.000   0.000  -0.000  -0.000  -0.000  -3.502  -0.000   0.000   0.000   0.000   2.012   0.000
 -0.000   0.000   0.000   0.000  -0.000   0.000  -0.000   0.000   0.000  -0.000  -3.478  -0.000  -0.000  -0.000   0.000   2.088
 -0.000   0.000   0.000   0.000   0.000   0.000  -0.000  -0.000   0.020  -0.000  -0.000  -0.000  -0.000  -0.012   0.000   0.000
  0.000   0.000   0.000   0.000   0.000   0.000   0.000  -0.000   0.000  -0.000  -0.000   0.000   0.000  -0.000   0.000  -0.000
 total augmentation occupancy for first ion, spin component:           2
  0.000   0.000   0.000   0.000   0.000   0.000   0.000   0.000   0.000  -0.000   0.000   0.000   0.000   0.000   0.000  -0.000
  0.000   0.000   0.000   0.000   0.000   0.000   0.000   0.000   0.000   0.000   0.000   0.000   0.000  -0.000   0.000   0.000
  0.000   0.000   0.000   0.000   0.000   0.000   0.000  -0.000   0.000  -0.000   0.000  -0.000   0.000   0.000   0.000   0.000
  0.000   0.000   0.000  -0.000  -0.000  -0.000   0.000   0.000   0.000  -0.000   0.000   0.000   0.000   0.000  -0.000   0.000
  0.000   0.000   0.000  -0.000  -0.000  -0.000   0.000   0.000   0.000   0.000   0.000   0.000   0.000   0.000   0.000   0.000
  0.000   0.000   0.000  -0.000  -0.000  -0.000   0.000   0.000   0.000   0.000   0.000   0.000   0.000   0.000   0.000   0.000
 -0.000   0.000   0.000   0.000   0.000   0.000  -0.003  -0.000   0.000  -0.000   0.000   0.002   0.000  -0.000   0.000  -0.000
 -0.000  -0.000   0.000   0.000   0.000   0.000  -0.000  -0.004  -0.000  -0.000   0.000   0.000   0.002  -0.000   0.000  -0.000
  0.000   0.000   0.000   0.000   0.000   0.000   0.000  -0.000  -0.006  -0.000   0.000  -0.000  -0.000   0.005  -0.000  -0.000
  0.000   0.000   0.000   0.000   0.000   0.000  -0.000  -0.000  -0.000  -0.004  -0.000   0.000   0.000  -0.000   0.002   0.000
  0.000   0.000   0.000   0.000   0.000   0.000   0.000   0.000   0.000  -0.000  -0.006  -0.000  -0.000  -0.000   0.000   0.005
  0.000  -0.000   0.000   0.000   0.000   0.000   0.002   0.000  -0.000   0.000  -0.000  -0.001  -0.000   0.000  -0.000   0.000
  0.000  -0.000   0.000   0.000  -0.000   0.000   0.000   0.002  -0.000   0.000  -0.000  -0.000  -0.001   0.000  -0.000   0.000
  0.000  -0.000   0.000   0.000   0.000   0.000  -0.000  -0.000   0.005  -0.000  -0.000   0.000   0.000  -0.003   0.000   0.000
  0.000  -0.000   0.000  -0.000   0.000   0.000   0.000   0.000  -0.000   0.002   0.000  -0.000  -0.000   0.000  -0.001  -0.000
  0.000   0.000  -0.000   0.000  -0.000   0.000  -0.000  -0.000  -0.000   0.000   0.005   0.000   0.000   0.000  -0.000  -0.003
  0.000  -0.000   0.000   0.000   0.000   0.000   0.000  -0.000   0.000   0.000  -0.000  -0.000   0.000  -0.000   0.000   0.000
  0.000  -0.000  -0.000   0.000   0.000   0.000  -0.000  -0.000  -0.000  -0.000  -0.000   0.000   0.000  -0.000   0.000   0.000


------------------------ aborting loop because EDIFF is reached ----------------------------------------





 total charge

# of ion       s       p       d       tot
------------------------------------------
    1        0.426   6.299   3.118   9.842
    2        0.426   6.299   3.118   9.842
--------------------------------------------------
tot          0.852  12.597   6.236  19.684



 magnetization (x)

# of ion       s       p       d       tot
------------------------------------------
    1       -0.000  -0.000  -0.001  -0.001
    2       -0.000  -0.000  -0.001  -0.001
--------------------------------------------------
tot         -0.000  -0.001  -0.002  -0.002

    CHARGE:  cpu time     19.8606: real time      1.1047
    FORLOC:  cpu time      0.0007: real time      0.0007
    FORNL :  cpu time     74.4990: real time      4.1775
    STRESS:  cpu time    220.9859: real time     12.3475
    FORCOR:  cpu time      1.2210: real time      0.1009
    FORHAR:  cpu time      0.4045: real time      0.0204
    MIXING:  cpu time      0.0014: real time      0.0014
    OFIELD:  cpu time      0.0000: real time      0.0000

  FORCE on cell =-STRESS in cart. coord.  units (eV):
  Direction    XX          YY          ZZ          XY          YZ          ZX
  --------------------------------------------------------------------------------------
  Alpha Z   252.06372   252.06372   252.06372
  Ewald    -641.41466  -641.41466  -638.94156    -0.00000    -0.00000    -0.00000
  Hartree    80.37783    80.37783    81.53601    -0.00000    -0.00000    -0.00000
  E(xc)     -95.27011   -95.27011   -95.26458    -0.00000    -0.00000     0.00000
  Local     206.04559   206.04559   202.39951     0.00000    -0.00000    -0.00000
  n-local   -88.26140   -81.38277   -84.49144     0.68634    -0.28940     1.96378
  augment    53.45401    53.45401    53.41715     0.00000    -0.00000     0.00000
  Kinetic   222.60571   237.57831   230.48893     0.40124    -0.91981     1.67132
  Fock        0.00000     0.00000     0.00000     0.00000     0.00000     0.00000
  -------------------------------------------------------------------------------------
  Total       0.52630     0.52630     1.20773     0.00000    -0.00000     0.00000
  in kB      23.47496    23.47496    53.86950     0.00000    -0.00000     0.00000
  external pressure =       33.61 kB  Pullay stress =        0.00 kB


 VOLUME and BASIS-vectors are now :
 -----------------------------------------------------------------------------
  energy-cutoff  :      520.00
  volume of cell :       35.92
      direct lattice vectors                 reciprocal lattice vectors
     3.321779337  0.000000000  0.000000000     0.301043477 -0.000000000  0.000000000
     0.000000000  3.321779337  0.000000000     0.000000000  0.301043477  0.000000000
     0.000000000  0.000000000  3.255343750    -0.000000000 -0.000000000  0.307187221

  length of vectors
     3.321779337  3.321779337  3.255343750     0.301043477  0.301043477  0.307187221


 FORCES acting on ions
    electron-ion (+dipol)            ewald-force                    non-local-force                 convergence-correction
 -----------------------------------------------------------------------------------------------
   -.749E-14 -.123E-13 -.128E-13   -.826E-14 -.419E-14 -.455E-14   -.701E-21 0.468E-21 0.324E-21   0.178E-13 -.204E-13 0.419E-13
   0.122E-12 0.150E-11 0.156E-11   0.605E-14 0.404E-14 0.365E-14   0.161E-21 0.256E-21 -.259E-21   -.226E-13 -.524E-13 0.332E-14
 -----------------------------------------------------------------------------------------------
   0.115E-12 0.149E-11 0.155E-11   -.221E-14 -.150E-15 -.899E-15   -.540E-21 0.724E-21 0.654E-22   -.481E-14 -.728E-13 0.452E-13


 POSITION                                       TOTAL-FORCE (eV/Angst)
 -----------------------------------------------------------------------------------
      0.00000      0.00000      0.00000        -0.000000      0.000000     -0.000000
      1.66089      1.66089      1.62767         0.000000     -0.000000      0.000000
 -----------------------------------------------------------------------------------
    total drift:                                0.000000      0.000000      0.000000


--------------------------------------------------------------------------------------------------------



  FREE ENERGIE OF THE ION-ELECTRON SYSTEM (eV)
  ---------------------------------------------------
  free  energy   TOTEN  =       -20.19607473 eV

  energy  without entropy=      -20.19607473  energy(sigma->0) =      -20.19607473



--------------------------------------------------------------------------------------------------------


    POTLOK:  cpu time      2.2682: real time      0.3495


--------------------------------------------------------------------------------------------------------


     LOOP+:  cpu time   3749.7872: real time    208.5556
 -----------------------------------------------------------------------------
|                                                                             |
|           W    W    AA    RRRRR   N    N  II  N    N   GGGG   !!!           |
|           W    W   A  A   R    R  NN   N  II  NN   N  G    G  !!!           |
|           W    W  A    A  R    R  N N  N  II  N N  N  G       !!!           |
|           W WW W  AAAAAA  RRRRR   N  N N  II  N  N N  G  GGG   !            |
|           WW  WW  A    A  R   R   N   NN  II  N   NN  G    G                |
|           W    W  A    A  R    R  N    N  II  N    N   GGGG   !!!           |
|                                                                             |
|     Tetrahedron method does not include variations of the Fermi             |
|     occupations, so forces and stress will be inaccurate. We suggest        |
|     using a different smearing scheme ISMEAR = 1 or 2 for metals in         |
|     relaxations.                                                            |
|                                                                             |
 -----------------------------------------------------------------------------

    4ORBIT:  cpu time      0.0000: real time      0.0000



 total charge

# of ion       s       p       d       tot
------------------------------------------
    1        0.426   6.299   3.118   9.842
    2        0.426   6.299   3.118   9.842
--------------------------------------------------
tot          0.852  12.597   6.236  19.684



 magnetization (x)

# of ion       s       p       d       tot
------------------------------------------
    1       -0.000  -0.000  -0.001  -0.001
    2       -0.000  -0.000  -0.001  -0.001
--------------------------------------------------
tot         -0.000  -0.001  -0.002  -0.002

 BZINTS: Fermi energy:    5.017376;   22.000000 electrons
         Band energy:-0.270958E+03;  BLOECHL correction:   -0.214519

 total amount of memory used by VASP MPI-rank0    72736. kBytes
=======================================================================

   base      :      30000. kBytes
   nonlr-proj:       3808. kBytes
   fftplans  :       5340. kBytes
   grid      :      12719. kBytes
   one-center:         62. kBytes
   wavefun   :      20807. kBytes

  
  
 General timing and accounting informations for this job:
 ========================================================
  
                  Total CPU time used (sec):     3785.182
                            User time (sec):     3653.847
                          System time (sec):      131.335
                         Elapsed time (sec):      211.026
  
                   Maximum memory used (kb):      330688.
                   Average memory used (kb):          N/A
  
                          Minor page faults:      3517976
                          Major page faults:           77
                 Voluntary context switches:      1541543
