   8   8   1   0
  0.1893473E+02  0.4072823E-09  0.4072823E-09  0.9131838E-09  0.5000000E-15
  1.000000000000000E-004
  CAR 
 unknown system                          
     10.00110703     -4.48553533  301      5.29433764      1.00000000
     -4.486  0.0000E+00  0.0000E+00  0.0000E+00  0.0000E+00
     -4.437  0.0000E+00  0.0000E+00  0.0000E+00  0.0000E+00
     -4.389  0.0000E+00  0.0000E+00  0.0000E+00  0.0000E+00
     -4.341  0.0000E+00  0.0000E+00  0.0000E+00  0.0000E+00
     -4.292  0.0000E+00  0.0000E+00  0.0000E+00  0.0000E+00
     -4.244  0.4175E-05  0.4121E-05  0.2016E-06  0.1990E-06
     -4.196  0.3247E-04  0.3204E-04  0.1769E-05  0.1746E-05
     -4.148  0.1115E-03  0.1100E-03  0.7153E-05  0.7060E-05
     -4.099  0.2837E-03  0.2801E-03  0.2085E-04  0.2058E-04
     -4.051  0.7413E-03  0.7318E-03  0.5665E-04  0.5592E-04
     -4.003  0.1964E-02  0.1939E-02  0.1515E-03  0.1495E-03
     -3.954  0.5014E-02  0.4952E-02  0.3936E-03  0.3886E-03
     -3.906  0.1242E-01  0.1227E-01  0.9932E-03  0.9811E-03
     -3.858  0.2869E-01  0.2839E-01  0.2379E-02  0.2352E-02
     -3.809  0.5836E-01  0.5787E-01  0.5197E-02  0.5146E-02
     -3.761  0.9990E-01  0.9931E-01  0.1002E-01  0.9942E-02
     -3.713  0.1430E+00  0.1424E+00  0.1692E-01  0.1682E-01
     -3.665  0.1801E+00  0.1797E+00  0.2562E-01  0.2549E-01
     -3.616  0.2176E+00  0.2171E+00  0.3613E-01  0.3598E-01
     -3.568  0.2573E+00  0.2568E+00  0.4856E-01  0.4838E-01
     -3.520  0.2847E+00  0.2845E+00  0.6230E-01  0.6212E-01
     -3.471  0.2990E+00  0.2988E+00  0.7674E-01  0.7655E-01
     -3.423  0.3151E+00  0.3148E+00  0.9196E-01  0.9175E-01
     -3.375  0.3336E+00  0.3333E+00  0.1081E+00  0.1078E+00
     -3.327  0.3597E+00  0.3592E+00  0.1254E+00  0.1252E+00
     -3.278  0.4032E+00  0.4026E+00  0.1449E+00  0.1447E+00
     -3.230  0.4374E+00  0.4372E+00  0.1660E+00  0.1658E+00
     -3.182  0.4388E+00  0.4390E+00  0.1872E+00  0.1870E+00
     -3.133  0.4290E+00  0.4291E+00  0.2080E+00  0.2077E+00
     -3.085  0.4279E+00  0.4278E+00  0.2286E+00  0.2284E+00
     -3.037  0.4478E+00  0.4474E+00  0.2503E+00  0.2500E+00
     -2.989  0.4863E+00  0.4859E+00  0.2738E+00  0.2734E+00
     -2.940  0.5152E+00  0.5150E+00  0.2986E+00  0.2983E+00
     -2.892  0.5366E+00  0.5363E+00  0.3246E+00  0.3242E+00
     -2.844  0.5715E+00  0.5710E+00  0.3522E+00  0.3518E+00
     -2.795  0.6054E+00  0.6051E+00  0.3814E+00  0.3810E+00
     -2.747  0.6122E+00  0.6123E+00  0.4110E+00  0.4106E+00
     -2.699  0.5824E+00  0.5830E+00  0.4391E+00  0.4388E+00
     -2.651  0.5480E+00  0.5482E+00  0.4656E+00  0.4653E+00
     -2.602  0.5515E+00  0.5512E+00  0.4922E+00  0.4919E+00
     -2.554  0.5912E+00  0.5905E+00  0.5208E+00  0.5204E+00
     -2.506  0.6620E+00  0.6610E+00  0.5528E+00  0.5524E+00
     -2.457  0.7476E+00  0.7467E+00  0.5889E+00  0.5884E+00
     -2.409  0.7967E+00  0.7965E+00  0.6274E+00  0.6269E+00
     -2.361  0.7876E+00  0.7881E+00  0.6654E+00  0.6650E+00
     -2.313  0.7456E+00  0.7462E+00  0.7015E+00  0.7010E+00
     -2.264  0.7148E+00  0.7150E+00  0.7360E+00  0.7356E+00
     -2.216  0.7186E+00  0.7184E+00  0.7707E+00  0.7703E+00
     -2.168  0.7288E+00  0.7289E+00  0.8059E+00  0.8055E+00
     -2.119  0.7106E+00  0.7110E+00  0.8402E+00  0.8398E+00
     -2.071  0.6960E+00  0.6959E+00  0.8739E+00  0.8735E+00
     -2.023  0.7343E+00  0.7336E+00  0.9094E+00  0.9089E+00
     -1.975  0.7912E+00  0.7908E+00  0.9476E+00  0.9471E+00
     -1.926  0.7957E+00  0.7961E+00  0.9860E+00  0.9856E+00
     -1.878  0.7492E+00  0.7498E+00  0.1022E+01  0.1022E+01
     -1.830  0.7325E+00  0.7323E+00  0.1058E+01  0.1057E+01
     -1.781  0.7827E+00  0.7819E+00  0.1095E+01  0.1095E+01
     -1.733  0.8452E+00  0.8446E+00  0.1136E+01  0.1136E+01
     -1.685  0.8763E+00  0.8763E+00  0.1179E+01  0.1178E+01
     -1.636  0.8619E+00  0.8625E+00  0.1220E+01  0.1220E+01
     -1.588  0.8061E+00  0.8069E+00  0.1259E+01  0.1259E+01
     -1.540  0.7696E+00  0.7698E+00  0.1296E+01  0.1296E+01
     -1.492  0.7830E+00  0.7829E+00  0.1334E+01  0.1334E+01
     -1.443  0.8140E+00  0.8137E+00  0.1374E+01  0.1373E+01
     -1.395  0.8538E+00  0.8534E+00  0.1415E+01  0.1414E+01
     -1.347  0.9087E+00  0.9082E+00  0.1459E+01  0.1458E+01
     -1.298  0.9662E+00  0.9657E+00  0.1505E+01  0.1505E+01
     -1.250  0.9953E+00  0.9951E+00  0.1553E+01  0.1553E+01
     -1.202  0.9840E+00  0.9842E+00  0.1601E+01  0.1600E+01
     -1.154  0.9345E+00  0.9353E+00  0.1646E+01  0.1646E+01
     -1.105  0.8519E+00  0.8528E+00  0.1687E+01  0.1687E+01
     -1.057  0.7761E+00  0.7765E+00  0.1725E+01  0.1724E+01
     -1.009  0.7606E+00  0.7601E+00  0.1762E+01  0.1761E+01
     -0.960  0.8266E+00  0.8254E+00  0.1801E+01  0.1801E+01
     -0.912  0.8984E+00  0.8976E+00  0.1845E+01  0.1844E+01
     -0.864  0.9235E+00  0.9232E+00  0.1889E+01  0.1889E+01
     -0.816  0.9686E+00  0.9677E+00  0.1936E+01  0.1936E+01
     -0.767  0.1073E+01  0.1072E+01  0.1988E+01  0.1987E+01
     -0.719  0.1193E+01  0.1192E+01  0.2046E+01  0.2045E+01
     -0.671  0.1264E+01  0.1265E+01  0.2107E+01  0.2106E+01
     -0.622  0.1239E+01  0.1240E+01  0.2167E+01  0.2166E+01
     -0.574  0.1149E+01  0.1150E+01  0.2222E+01  0.2222E+01
     -0.526  0.1094E+01  0.1094E+01  0.2275E+01  0.2274E+01
     -0.478  0.1085E+01  0.1085E+01  0.2327E+01  0.2327E+01
     -0.429  0.1045E+01  0.1046E+01  0.2378E+01  0.2377E+01
     -0.381  0.9907E+00  0.9912E+00  0.2426E+01  0.2425E+01
     -0.333  0.1017E+01  0.1017E+01  0.2475E+01  0.2474E+01
     -0.284  0.1124E+01  0.1122E+01  0.2529E+01  0.2529E+01
     -0.236  0.1171E+01  0.1171E+01  0.2586E+01  0.2585E+01
     -0.188  0.1116E+01  0.1116E+01  0.2640E+01  0.2639E+01
     -0.140  0.1069E+01  0.1069E+01  0.2691E+01  0.2691E+01
     -0.091  0.1097E+01  0.1096E+01  0.2744E+01  0.2744E+01
     -0.043  0.1139E+01  0.1139E+01  0.2799E+01  0.2799E+01
      0.005  0.1084E+01  0.1086E+01  0.2852E+01  0.2851E+01
      0.054  0.9387E+00  0.9405E+00  0.2897E+01  0.2897E+01
      0.102  0.8251E+00  0.8258E+00  0.2937E+01  0.2937E+01
      0.150  0.8146E+00  0.8139E+00  0.2976E+01  0.2976E+01
      0.198  0.8721E+00  0.8709E+00  0.3019E+01  0.3018E+01
      0.247  0.9282E+00  0.9271E+00  0.3063E+01  0.3063E+01
      0.295  0.9499E+00  0.9493E+00  0.3109E+01  0.3109E+01
      0.343  0.9536E+00  0.9532E+00  0.3155E+01  0.3155E+01
      0.392  0.9431E+00  0.9431E+00  0.3201E+01  0.3200E+01
      0.440  0.9201E+00  0.9203E+00  0.3245E+01  0.3245E+01
      0.488  0.9252E+00  0.9248E+00  0.3290E+01  0.3289E+01
      0.537  0.9868E+00  0.9855E+00  0.3338E+01  0.3337E+01
      0.585  0.1092E+01  0.1090E+01  0.3391E+01  0.3390E+01
      0.633  0.1208E+01  0.1206E+01  0.3449E+01  0.3448E+01
      0.681  0.1301E+01  0.1300E+01  0.3512E+01  0.3511E+01
      0.730  0.1388E+01  0.1387E+01  0.3579E+01  0.3578E+01
      0.778  0.1476E+01  0.1474E+01  0.3650E+01  0.3649E+01
      0.826  0.1524E+01  0.1523E+01  0.3724E+01  0.3723E+01
      0.875  0.1522E+01  0.1523E+01  0.3797E+01  0.3796E+01
      0.923  0.1439E+01  0.1441E+01  0.3867E+01  0.3866E+01
      0.971  0.1293E+01  0.1295E+01  0.3929E+01  0.3928E+01
      1.019  0.1199E+01  0.1199E+01  0.3987E+01  0.3986E+01
      1.068  0.1190E+01  0.1190E+01  0.4045E+01  0.4044E+01
      1.116  0.1211E+01  0.1211E+01  0.4103E+01  0.4102E+01
      1.164  0.1252E+01  0.1251E+01  0.4164E+01  0.4163E+01
      1.213  0.1306E+01  0.1305E+01  0.4227E+01  0.4226E+01
      1.261  0.1376E+01  0.1375E+01  0.4293E+01  0.4292E+01
      1.309  0.1478E+01  0.1477E+01  0.4365E+01  0.4364E+01
      1.357  0.1549E+01  0.1548E+01  0.4440E+01  0.4438E+01
      1.406  0.1514E+01  0.1516E+01  0.4513E+01  0.4512E+01
      1.454  0.1375E+01  0.1378E+01  0.4579E+01  0.4578E+01
      1.502  0.1220E+01  0.1222E+01  0.4638E+01  0.4637E+01
      1.551  0.1146E+01  0.1146E+01  0.4693E+01  0.4693E+01
      1.599  0.1148E+01  0.1148E+01  0.4749E+01  0.4748E+01
      1.647  0.1154E+01  0.1153E+01  0.4805E+01  0.4804E+01
      1.695  0.1171E+01  0.1170E+01  0.4861E+01  0.4860E+01
      1.744  0.1213E+01  0.1212E+01  0.4920E+01  0.4919E+01
      1.792  0.1242E+01  0.1241E+01  0.4980E+01  0.4979E+01
      1.840  0.1279E+01  0.1278E+01  0.5042E+01  0.5041E+01
      1.889  0.1325E+01  0.1324E+01  0.5106E+01  0.5105E+01
      1.937  0.1358E+01  0.1358E+01  0.5171E+01  0.5170E+01
      1.985  0.1401E+01  0.1400E+01  0.5239E+01  0.5238E+01
      2.033  0.1393E+01  0.1394E+01  0.5306E+01  0.5305E+01
      2.082  0.1265E+01  0.1268E+01  0.5367E+01  0.5366E+01
      2.130  0.1106E+01  0.1108E+01  0.5421E+01  0.5420E+01
      2.178  0.1075E+01  0.1073E+01  0.5473E+01  0.5472E+01
      2.227  0.1237E+01  0.1231E+01  0.5533E+01  0.5531E+01
      2.275  0.1513E+01  0.1507E+01  0.5606E+01  0.5604E+01
      2.323  0.1728E+01  0.1725E+01  0.5689E+01  0.5687E+01
      2.371  0.1773E+01  0.1774E+01  0.5775E+01  0.5773E+01
      2.420  0.1667E+01  0.1670E+01  0.5855E+01  0.5854E+01
      2.468  0.1487E+01  0.1490E+01  0.5927E+01  0.5926E+01
      2.516  0.1360E+01  0.1361E+01  0.5993E+01  0.5992E+01
      2.565  0.1398E+01  0.1396E+01  0.6060E+01  0.6059E+01
      2.613  0.1537E+01  0.1535E+01  0.6135E+01  0.6133E+01
      2.661  0.1633E+01  0.1632E+01  0.6214E+01  0.6212E+01
      2.709  0.1654E+01  0.1655E+01  0.6294E+01  0.6292E+01
      2.758  0.1643E+01  0.1643E+01  0.6373E+01  0.6371E+01
      2.806  0.1686E+01  0.1683E+01  0.6454E+01  0.6453E+01
      2.854  0.1864E+01  0.1858E+01  0.6544E+01  0.6542E+01
      2.903  0.2088E+01  0.2084E+01  0.6645E+01  0.6643E+01
      2.951  0.2199E+01  0.2198E+01  0.6752E+01  0.6749E+01
      2.999  0.2110E+01  0.2113E+01  0.6853E+01  0.6851E+01
      3.048  0.1897E+01  0.1901E+01  0.6945E+01  0.6943E+01
      3.096  0.1735E+01  0.1737E+01  0.7029E+01  0.7027E+01
      3.144  0.1659E+01  0.1659E+01  0.7109E+01  0.7107E+01
      3.192  0.1624E+01  0.1625E+01  0.7188E+01  0.7186E+01
      3.241  0.1580E+01  0.1581E+01  0.7264E+01  0.7262E+01
      3.289  0.1532E+01  0.1532E+01  0.7338E+01  0.7336E+01
      3.337  0.1597E+01  0.1593E+01  0.7415E+01  0.7413E+01
      3.386  0.1804E+01  0.1797E+01  0.7502E+01  0.7500E+01
      3.434  0.2056E+01  0.2049E+01  0.7602E+01  0.7599E+01
      3.482  0.2241E+01  0.2237E+01  0.7710E+01  0.7707E+01
      3.530  0.2313E+01  0.2312E+01  0.7822E+01  0.7819E+01
      3.579  0.2337E+01  0.2335E+01  0.7935E+01  0.7932E+01
      3.627  0.2394E+01  0.2391E+01  0.8050E+01  0.8047E+01
      3.675  0.2459E+01  0.2457E+01  0.8169E+01  0.8166E+01
      3.724  0.2473E+01  0.2471E+01  0.8288E+01  0.8285E+01
      3.772  0.2426E+01  0.2426E+01  0.8406E+01  0.8402E+01
      3.820  0.2328E+01  0.2329E+01  0.8518E+01  0.8515E+01
      3.868  0.2275E+01  0.2273E+01  0.8628E+01  0.8625E+01
      3.917  0.2356E+01  0.2350E+01  0.8742E+01  0.8738E+01
      3.965  0.2558E+01  0.2548E+01  0.8865E+01  0.8861E+01
      4.013  0.2825E+01  0.2815E+01  0.9002E+01  0.8997E+01
      4.062  0.3012E+01  0.3005E+01  0.9147E+01  0.9142E+01
      4.110  0.3034E+01  0.3031E+01  0.9294E+01  0.9289E+01
      4.158  0.3034E+01  0.3029E+01  0.9441E+01  0.9435E+01
      4.206  0.3103E+01  0.3096E+01  0.9590E+01  0.9585E+01
      4.255  0.3206E+01  0.3198E+01  0.9745E+01  0.9739E+01
      4.303  0.3417E+01  0.3402E+01  0.9910E+01  0.9904E+01
      4.351  0.3805E+01  0.3785E+01  0.1009E+02  0.1009E+02
      4.400  0.4209E+01  0.4193E+01  0.1030E+02  0.1029E+02
      4.448  0.4349E+01  0.4346E+01  0.1051E+02  0.1050E+02
      4.496  0.4102E+01  0.4115E+01  0.1071E+02  0.1070E+02
      4.544  0.3579E+01  0.3599E+01  0.1088E+02  0.1087E+02
      4.593  0.3072E+01  0.3086E+01  0.1103E+02  0.1102E+02
      4.641  0.2787E+01  0.2791E+01  0.1116E+02  0.1116E+02
      4.689  0.2725E+01  0.2721E+01  0.1129E+02  0.1129E+02
      4.738  0.2792E+01  0.2784E+01  0.1143E+02  0.1142E+02
      4.786  0.2927E+01  0.2918E+01  0.1157E+02  0.1156E+02
      4.834  0.3024E+01  0.3021E+01  0.1172E+02  0.1171E+02
      4.882  0.2968E+01  0.2971E+01  0.1186E+02  0.1185E+02
      4.931  0.2892E+01  0.2889E+01  0.1200E+02  0.1199E+02
      4.979  0.2976E+01  0.2963E+01  0.1214E+02  0.1213E+02
      5.027  0.3135E+01  0.3123E+01  0.1229E+02  0.1229E+02
      5.076  0.3182E+01  0.3179E+01  0.1245E+02  0.1244E+02
      5.124  0.3066E+01  0.3073E+01  0.1260E+02  0.1259E+02
      5.172  0.2797E+01  0.2813E+01  0.1273E+02  0.1272E+02
      5.221  0.2429E+01  0.2447E+01  0.1285E+02  0.1284E+02
      5.269  0.2132E+01  0.2143E+01  0.1295E+02  0.1295E+02
      5.317  0.1987E+01  0.1989E+01  0.1305E+02  0.1304E+02
      5.365  0.1949E+01  0.1947E+01  0.1314E+02  0.1314E+02
      5.414  0.1945E+01  0.1944E+01  0.1324E+02  0.1323E+02
      5.462  0.1902E+01  0.1905E+01  0.1333E+02  0.1332E+02
      5.510  0.1826E+01  0.1829E+01  0.1342E+02  0.1341E+02
      5.559  0.1739E+01  0.1742E+01  0.1350E+02  0.1349E+02
      5.607  0.1653E+01  0.1655E+01  0.1358E+02  0.1357E+02
      5.655  0.1613E+01  0.1611E+01  0.1366E+02  0.1365E+02
      5.703  0.1608E+01  0.1607E+01  0.1374E+02  0.1373E+02
      5.752  0.1571E+01  0.1574E+01  0.1381E+02  0.1381E+02
      5.800  0.1499E+01  0.1506E+01  0.1388E+02  0.1388E+02
      5.848  0.1377E+01  0.1392E+01  0.1395E+02  0.1395E+02
      5.897  0.1173E+01  0.1197E+01  0.1401E+02  0.1400E+02
      5.945  0.9646E+00  0.9893E+00  0.1405E+02  0.1405E+02
      5.993  0.8920E+00  0.9090E+00  0.1410E+02  0.1410E+02
      6.041  0.9843E+00  0.9954E+00  0.1414E+02  0.1414E+02
      6.090  0.1165E+01  0.1176E+01  0.1420E+02  0.1420E+02
      6.138  0.1429E+01  0.1442E+01  0.1427E+02  0.1427E+02
      6.186  0.1847E+01  0.1860E+01  0.1436E+02  0.1436E+02
      6.235  0.2438E+01  0.2442E+01  0.1448E+02  0.1448E+02
      6.283  0.3109E+01  0.3100E+01  0.1463E+02  0.1463E+02
      6.331  0.3721E+01  0.3718E+01  0.1481E+02  0.1481E+02
      6.379  0.4190E+01  0.4226E+01  0.1501E+02  0.1501E+02
      6.428  0.4566E+01  0.4654E+01  0.1523E+02  0.1524E+02
      6.476  0.4973E+01  0.5084E+01  0.1547E+02  0.1548E+02
      6.524  0.5427E+01  0.5525E+01  0.1573E+02  0.1575E+02
      6.573  0.5817E+01  0.5914E+01  0.1601E+02  0.1603E+02
      6.621  0.6001E+01  0.6101E+01  0.1630E+02  0.1633E+02
      6.669  0.5859E+01  0.5929E+01  0.1659E+02  0.1662E+02
      6.717  0.5297E+01  0.5356E+01  0.1684E+02  0.1687E+02
      6.766  0.4461E+01  0.4553E+01  0.1706E+02  0.1709E+02
      6.814  0.3763E+01  0.3861E+01  0.1724E+02  0.1728E+02
      6.862  0.3423E+01  0.3488E+01  0.1740E+02  0.1745E+02
      6.911  0.3317E+01  0.3371E+01  0.1756E+02  0.1761E+02
      6.959  0.3306E+01  0.3344E+01  0.1772E+02  0.1777E+02
      7.007  0.3350E+01  0.3348E+01  0.1789E+02  0.1794E+02
      7.055  0.3345E+01  0.3335E+01  0.1805E+02  0.1810E+02
      7.104  0.3183E+01  0.3204E+01  0.1820E+02  0.1825E+02
      7.152  0.2960E+01  0.3023E+01  0.1835E+02  0.1840E+02
      7.200  0.2838E+01  0.2970E+01  0.1848E+02  0.1854E+02
      7.249  0.2826E+01  0.3029E+01  0.1862E+02  0.1869E+02
      7.297  0.2825E+01  0.3036E+01  0.1876E+02  0.1883E+02
      7.345  0.2724E+01  0.2933E+01  0.1889E+02  0.1898E+02
      7.394  0.2485E+01  0.2744E+01  0.1901E+02  0.1911E+02
      7.442  0.2154E+01  0.2447E+01  0.1911E+02  0.1923E+02
      7.490  0.1820E+01  0.2045E+01  0.1920E+02  0.1933E+02
      7.538  0.1552E+01  0.1657E+01  0.1927E+02  0.1941E+02
      7.587  0.1373E+01  0.1373E+01  0.1934E+02  0.1947E+02
      7.635  0.1273E+01  0.1175E+01  0.1940E+02  0.1953E+02
      7.683  0.1233E+01  0.1057E+01  0.1946E+02  0.1958E+02
      7.732  0.1202E+01  0.1001E+01  0.1952E+02  0.1963E+02
      7.780  0.1136E+01  0.9627E+00  0.1957E+02  0.1968E+02
      7.828  0.1036E+01  0.9083E+00  0.1962E+02  0.1972E+02
      7.876  0.9024E+00  0.8178E+00  0.1967E+02  0.1976E+02
      7.925  0.7625E+00  0.6954E+00  0.1971E+02  0.1979E+02
      7.973  0.6988E+00  0.5994E+00  0.1974E+02  0.1982E+02
      8.021  0.7295E+00  0.5594E+00  0.1977E+02  0.1985E+02
      8.070  0.7596E+00  0.5495E+00  0.1981E+02  0.1987E+02
      8.118  0.7052E+00  0.5144E+00  0.1985E+02  0.1990E+02
      8.166  0.5768E+00  0.4298E+00  0.1987E+02  0.1992E+02
      8.214  0.4254E+00  0.3336E+00  0.1989E+02  0.1994E+02
      8.263  0.2992E+00  0.2525E+00  0.1991E+02  0.1995E+02
      8.311  0.2232E+00  0.1994E+00  0.1992E+02  0.1996E+02
      8.359  0.1774E+00  0.1627E+00  0.1993E+02  0.1997E+02
      8.408  0.1379E+00  0.1280E+00  0.1993E+02  0.1997E+02
      8.456  0.1125E+00  0.1067E+00  0.1994E+02  0.1998E+02
      8.504  0.1144E+00  0.9989E-01  0.1995E+02  0.1998E+02
      8.552  0.1272E+00  0.9269E-01  0.1995E+02  0.1999E+02
      8.601  0.1217E+00  0.7091E-01  0.1996E+02  0.1999E+02
      8.649  0.1057E+00  0.4660E-01  0.1996E+02  0.1999E+02
      8.697  0.9721E-01  0.3643E-01  0.1997E+02  0.1999E+02
      8.746  0.9057E-01  0.3736E-01  0.1997E+02  0.2000E+02
      8.794  0.8132E-01  0.3472E-01  0.1998E+02  0.2000E+02
      8.842  0.7808E-01  0.2313E-01  0.1998E+02  0.2000E+02
      8.890  0.7987E-01  0.1168E-01  0.1998E+02  0.2000E+02
      8.939  0.6729E-01  0.4889E-02  0.1999E+02  0.2000E+02
      8.987  0.4159E-01  0.1958E-02  0.1999E+02  0.2000E+02
      9.035  0.2103E-01  0.7600E-03  0.1999E+02  0.2000E+02
      9.084  0.1182E-01  0.2915E-03  0.1999E+02  0.2000E+02
      9.132  0.1191E-01  0.1113E-03  0.1999E+02  0.2000E+02
      9.180  0.1999E-01  0.0000E+00  0.1999E+02  0.2000E+02
      9.228  0.3308E-01  0.0000E+00  0.1999E+02  0.2000E+02
      9.277  0.4141E-01  0.0000E+00  0.2000E+02  0.2000E+02
      9.325  0.3880E-01  0.0000E+00  0.2000E+02  0.2000E+02
      9.373  0.2976E-01  0.0000E+00  0.2000E+02  0.2000E+02
      9.422  0.1849E-01  0.0000E+00  0.2000E+02  0.2000E+02
      9.470  0.9241E-02  0.0000E+00  0.2000E+02  0.2000E+02
      9.518  0.3987E-02  0.0000E+00  0.2000E+02  0.2000E+02
      9.567  0.1598E-02  0.0000E+00  0.2000E+02  0.2000E+02
      9.615  0.6209E-03  0.0000E+00  0.2000E+02  0.2000E+02
      9.663  0.1864E-03  0.0000E+00  0.2000E+02  0.2000E+02
      9.711  0.7123E-04  0.0000E+00  0.2000E+02  0.2000E+02
      9.760  0.0000E+00  0.0000E+00  0.2000E+02  0.2000E+02
      9.808  0.0000E+00  0.0000E+00  0.2000E+02  0.2000E+02
      9.856  0.0000E+00  0.0000E+00  0.2000E+02  0.2000E+02
      9.905  0.0000E+00  0.0000E+00  0.2000E+02  0.2000E+02
      9.953  0.0000E+00  0.0000E+00  0.2000E+02  0.2000E+02
     10.001  0.0000E+00  0.0000E+00  0.2000E+02  0.2000E+02
     10.00110703     -4.48553533  301      5.29433764      1.00000000
     -4.486  0.0000E+00  0.0000E+00  0.0000E+00  0.0000E+00  0.0000E+00  0.0000E+00  0.0000E+00  0.0000E+00  0.0000E+00  0.0000E+00  0.0000E+00  0.0000E+00  0.0000E+00  0.0000E+00  0.0000E+00  0.0000E+00  0.0000E+00  0.0000E+00
     -4.437  0.0000E+00  0.0000E+00  0.0000E+00  0.0000E+00  0.0000E+00  0.0000E+00  0.0000E+00  0.0000E+00  0.0000E+00  0.0000E+00  0.0000E+00  0.0000E+00  0.0000E+00  0.0000E+00  0.0000E+00  0.0000E+00  0.0000E+00  0.0000E+00
     -4.389  0.0000E+00  0.0000E+00  0.0000E+00  0.0000E+00  0.0000E+00  0.0000E+00  0.0000E+00  0.0000E+00  0.0000E+00  0.0000E+00  0.0000E+00  0.0000E+00  0.0000E+00  0.0000E+00  0.0000E+00  0.0000E+00  0.0000E+00  0.0000E+00
     -4.341  0.0000E+00  0.0000E+00  0.0000E+00  0.0000E+00  0.0000E+00  0.0000E+00  0.0000E+00  0.0000E+00  0.0000E+00  0.0000E+00  0.0000E+00  0.0000E+00  0.0000E+00  0.0000E+00  0.0000E+00  0.0000E+00  0.0000E+00  0.0000E+00
     -4.292  0.0000E+00  0.0000E+00  0.0000E+00  0.0000E+00  0.0000E+00  0.0000E+00  0.0000E+00  0.0000E+00  0.0000E+00  0.0000E+00  0.0000E+00  0.0000E+00  0.0000E+00  0.0000E+00  0.0000E+00  0.0000E+00  0.0000E+00  0.0000E+00
     -4.244  0.1964E-06  0.1937E-06  0.1305E-21  0.1009E-21  0.3469E-20  0.1946E-18  0.1305E-21  0.1009E-21  0.9430E-22  0.2596E-20  0.6828E-21  0.8084E-21  0.8136E-11  0.7373E-11  0.6828E-21  0.8084E-21  0.3189E-20  0.1227E-19
     -4.196  0.1512E-05  0.1492E-05  0.3055E-08  0.3013E-08  0.3496E-08  0.3448E-08  0.3055E-08  0.3013E-08  0.4333E-20  0.1016E-19  0.4545E-20  0.1370E-19  0.7882E-10  0.7268E-10  0.4545E-20  0.1370E-19  0.1411E-10  0.1389E-10
     -4.148  0.5159E-05  0.5089E-05  0.1820E-07  0.1795E-07  0.1824E-07  0.1799E-07  0.1820E-07  0.1795E-07  0.1096E-09  0.1083E-09  0.1017E-09  0.9923E-10  0.2933E-09  0.2712E-09  0.1017E-09  0.9923E-10  0.5874E-10  0.5788E-10
     -4.099  0.1310E-04  0.1292E-04  0.4847E-07  0.4781E-07  0.5782E-07  0.5703E-07  0.4847E-07  0.4781E-07  0.4590E-09  0.4531E-09  0.3495E-09  0.3414E-09  0.7655E-09  0.7109E-09  0.3495E-09  0.3414E-09  0.1184E-09  0.1166E-09
     -4.051  0.3420E-04  0.3373E-04  0.1282E-06  0.1265E-06  0.1695E-06  0.1672E-06  0.1282E-06  0.1265E-06  0.9241E-09  0.9124E-09  0.1064E-08  0.1041E-08  0.2081E-08  0.1941E-08  0.1064E-08  0.1041E-08  0.5033E-09  0.4959E-09
     -4.003  0.9048E-04  0.8927E-04  0.3743E-06  0.3692E-06  0.4486E-06  0.4425E-06  0.3743E-06  0.3692E-06  0.3308E-08  0.3267E-08  0.3364E-08  0.3293E-08  0.5915E-08  0.5525E-08  0.3364E-08  0.3293E-08  0.1712E-08  0.1687E-08
     -3.954  0.2310E-03  0.2280E-03  0.9708E-06  0.9579E-06  0.1136E-05  0.1120E-05  0.9708E-06  0.9579E-06  0.9466E-08  0.9346E-08  0.8578E-08  0.8396E-08  0.1529E-07  0.1429E-07  0.8578E-08  0.8396E-08  0.4300E-08  0.4238E-08
     -3.906  0.5717E-03  0.5646E-03  0.2453E-05  0.2421E-05  0.2943E-05  0.2905E-05  0.2453E-05  0.2421E-05  0.2291E-07  0.2262E-07  0.2255E-07  0.2208E-07  0.3822E-07  0.3577E-07  0.2255E-07  0.2208E-07  0.1096E-07  0.1080E-07
     -3.858  0.1319E-02  0.1304E-02  0.6083E-05  0.6008E-05  0.7326E-05  0.7237E-05  0.6083E-05  0.6008E-05  0.5988E-07  0.5916E-07  0.5971E-07  0.5851E-07  0.9218E-07  0.8653E-07  0.5971E-07  0.5851E-07  0.2736E-07  0.2699E-07
     -3.809  0.2675E-02  0.2651E-02  0.1392E-04  0.1377E-04  0.1661E-04  0.1643E-04  0.1392E-04  0.1377E-04  0.1512E-06  0.1495E-06  0.1448E-06  0.1420E-06  0.2022E-06  0.1907E-06  0.1448E-06  0.1420E-06  0.6394E-07  0.6315E-07
     -3.761  0.4557E-02  0.4528E-02  0.2795E-04  0.2770E-04  0.3375E-04  0.3343E-04  0.2795E-04  0.2770E-04  0.3375E-06  0.3341E-06  0.3247E-06  0.3190E-06  0.3887E-06  0.3690E-06  0.3247E-06  0.3190E-06  0.1402E-06  0.1386E-06
     -3.713  0.6472E-02  0.6445E-02  0.4870E-04  0.4835E-04  0.6090E-04  0.6043E-04  0.4870E-04  0.4835E-04  0.6765E-06  0.6709E-06  0.6647E-06  0.6544E-06  0.6686E-06  0.6400E-06  0.6647E-06  0.6544E-06  0.2946E-06  0.2914E-06
     -3.665  0.8071E-02  0.8046E-02  0.7714E-04  0.7664E-04  0.9789E-04  0.9728E-04  0.7714E-04  0.7664E-04  0.1228E-05  0.1219E-05  0.1244E-05  0.1227E-05  0.1086E-05  0.1048E-05  0.1244E-05  0.1227E-05  0.5983E-06  0.5921E-06
     -3.616  0.9634E-02  0.9606E-02  0.1180E-03  0.1173E-03  0.1415E-03  0.1408E-03  0.1180E-03  0.1173E-03  0.2154E-05  0.2138E-05  0.2141E-05  0.2116E-05  0.1751E-05  0.1697E-05  0.2141E-05  0.2116E-05  0.1111E-05  0.1102E-05
     -3.568  0.1126E-01  0.1123E-01  0.1692E-03  0.1685E-03  0.1896E-03  0.1888E-03  0.1692E-03  0.1685E-03  0.3663E-05  0.3641E-05  0.3425E-05  0.3390E-05  0.2670E-05  0.2600E-05  0.3425E-05  0.3390E-05  0.1728E-05  0.1718E-05
     -3.520  0.1231E-01  0.1229E-01  0.2124E-03  0.2118E-03  0.2501E-03  0.2490E-03  0.2124E-03  0.2118E-03  0.5441E-05  0.5418E-05  0.5156E-05  0.5109E-05  0.3606E-05  0.3529E-05  0.5156E-05  0.5109E-05  0.2242E-05  0.2234E-05
     -3.471  0.1273E-01  0.1272E-01  0.2437E-03  0.2432E-03  0.3323E-03  0.3309E-03  0.2437E-03  0.2432E-03  0.7321E-05  0.7291E-05  0.7528E-05  0.7466E-05  0.4506E-05  0.4431E-05  0.7528E-05  0.7466E-05  0.2744E-05  0.2734E-05
     -3.423  0.1321E-01  0.1319E-01  0.2884E-03  0.2875E-03  0.4108E-03  0.4097E-03  0.2884E-03  0.2875E-03  0.1014E-04  0.1009E-04  0.1032E-04  0.1025E-04  0.5816E-05  0.5728E-05  0.1032E-04  0.1025E-04  0.3708E-05  0.3687E-05
     -3.375  0.1378E-01  0.1377E-01  0.3590E-03  0.3577E-03  0.4518E-03  0.4511E-03  0.3590E-03  0.3577E-03  0.1378E-04  0.1373E-04  0.1294E-04  0.1286E-04  0.7920E-05  0.7798E-05  0.1294E-04  0.1286E-04  0.5725E-05  0.5684E-05
     -3.327  0.1464E-01  0.1461E-01  0.4509E-03  0.4494E-03  0.4995E-03  0.4981E-03  0.4509E-03  0.4494E-03  0.1749E-04  0.1744E-04  0.1651E-04  0.1640E-04  0.1087E-04  0.1070E-04  0.1651E-04  0.1640E-04  0.8909E-05  0.8854E-05
     -3.278  0.1614E-01  0.1611E-01  0.5495E-03  0.5480E-03  0.6262E-03  0.6237E-03  0.5495E-03  0.5480E-03  0.2196E-04  0.2190E-04  0.2263E-04  0.2247E-04  0.1430E-04  0.1411E-04  0.2263E-04  0.2247E-04  0.1204E-04  0.1200E-04
     -3.230  0.1723E-01  0.1722E-01  0.6145E-03  0.6136E-03  0.7900E-03  0.7876E-03  0.6145E-03  0.6136E-03  0.2744E-04  0.2737E-04  0.2953E-04  0.2936E-04  0.1734E-04  0.1716E-04  0.2953E-04  0.2936E-04  0.1355E-04  0.1353E-04
     -3.182  0.1702E-01  0.1702E-01  0.6437E-03  0.6430E-03  0.8857E-03  0.8845E-03  0.6437E-03  0.6430E-03  0.3487E-04  0.3476E-04  0.3459E-04  0.3444E-04  0.1967E-04  0.1951E-04  0.3459E-04  0.3444E-04  0.1364E-04  0.1363E-04
     -3.133  0.1637E-01  0.1637E-01  0.6832E-03  0.6822E-03  0.9107E-03  0.9098E-03  0.6832E-03  0.6822E-03  0.4554E-04  0.4540E-04  0.3961E-04  0.3943E-04  0.2162E-04  0.2145E-04  0.3961E-04  0.3943E-04  0.1366E-04  0.1364E-04
     -3.085  0.1603E-01  0.1602E-01  0.7354E-03  0.7343E-03  0.9693E-03  0.9672E-03  0.7354E-03  0.7343E-03  0.5431E-04  0.5424E-04  0.4833E-04  0.4807E-04  0.2333E-04  0.2315E-04  0.4833E-04  0.4807E-04  0.1494E-04  0.1489E-04
     -3.037  0.1640E-01  0.1638E-01  0.8082E-03  0.8066E-03  0.1134E-02  0.1131E-02  0.8082E-03  0.8066E-03  0.5786E-04  0.5783E-04  0.6166E-04  0.6134E-04  0.2650E-04  0.2629E-04  0.6166E-04  0.6134E-04  0.1955E-04  0.1944E-04
     -2.989  0.1744E-01  0.1742E-01  0.9320E-03  0.9297E-03  0.1322E-02  0.1319E-02  0.9320E-03  0.9297E-03  0.6189E-04  0.6181E-04  0.7343E-04  0.7316E-04  0.3370E-04  0.3342E-04  0.7343E-04  0.7316E-04  0.2845E-04  0.2828E-04
     -2.940  0.1815E-01  0.1813E-01  0.1070E-02  0.1068E-02  0.1423E-02  0.1421E-02  0.1070E-02  0.1068E-02  0.7065E-04  0.7047E-04  0.7757E-04  0.7737E-04  0.4444E-04  0.4408E-04  0.7757E-04  0.7737E-04  0.3881E-04  0.3864E-04
     -2.892  0.1854E-01  0.1852E-01  0.1200E-02  0.1198E-02  0.1514E-02  0.1511E-02  0.1200E-02  0.1198E-02  0.8857E-04  0.8824E-04  0.8381E-04  0.8347E-04  0.5483E-04  0.5445E-04  0.8381E-04  0.8347E-04  0.4602E-04  0.4590E-04
     -2.844  0.1936E-01  0.1933E-01  0.1340E-02  0.1337E-02  0.1688E-02  0.1685E-02  0.1340E-02  0.1337E-02  0.1154E-03  0.1150E-03  0.1045E-03  0.1039E-03  0.6082E-04  0.6047E-04  0.1045E-03  0.1039E-03  0.4903E-04  0.4895E-04
     -2.795  0.2012E-01  0.2010E-01  0.1461E-02  0.1459E-02  0.1895E-02  0.1891E-02  0.1461E-02  0.1459E-02  0.1406E-03  0.1403E-03  0.1323E-03  0.1318E-03  0.6349E-04  0.6315E-04  0.1323E-03  0.1318E-03  0.5047E-04  0.5039E-04
     -2.747  0.1990E-01  0.1990E-01  0.1496E-02  0.1495E-02  0.2083E-02  0.2079E-02  0.1496E-02  0.1495E-02  0.1548E-03  0.1547E-03  0.1539E-03  0.1534E-03  0.6561E-04  0.6530E-04  0.1539E-03  0.1534E-03  0.5031E-04  0.5028E-04
     -2.699  0.1841E-01  0.1842E-01  0.1426E-02  0.1426E-02  0.2206E-02  0.2203E-02  0.1426E-02  0.1426E-02  0.1549E-03  0.1548E-03  0.1657E-03  0.1653E-03  0.6474E-04  0.6453E-04  0.1657E-03  0.1653E-03  0.4820E-04  0.4817E-04
     -2.651  0.1672E-01  0.1672E-01  0.1364E-02  0.1363E-02  0.2296E-02  0.2293E-02  0.1364E-02  0.1363E-02  0.1544E-03  0.1542E-03  0.1763E-03  0.1759E-03  0.6229E-04  0.6208E-04  0.1763E-03  0.1759E-03  0.4809E-04  0.4802E-04
     -2.602  0.1614E-01  0.1613E-01  0.1413E-02  0.1411E-02  0.2528E-02  0.2522E-02  0.1413E-02  0.1411E-02  0.1722E-03  0.1717E-03  0.1955E-03  0.1949E-03  0.6713E-04  0.6677E-04  0.1955E-03  0.1949E-03  0.5210E-04  0.5197E-04
     -2.554  0.1663E-01  0.1661E-01  0.1580E-02  0.1576E-02  0.2878E-02  0.2872E-02  0.1580E-02  0.1576E-02  0.2091E-03  0.2084E-03  0.2197E-03  0.2191E-03  0.8435E-04  0.8379E-04  0.2197E-03  0.2191E-03  0.6279E-04  0.6252E-04
     -2.506  0.1812E-01  0.1808E-01  0.1907E-02  0.1901E-02  0.3207E-02  0.3201E-02  0.1907E-02  0.1901E-02  0.2585E-03  0.2576E-03  0.2508E-03  0.2500E-03  0.1100E-03  0.1093E-03  0.2508E-03  0.2500E-03  0.8669E-04  0.8623E-04
     -2.457  0.1999E-01  0.1996E-01  0.2291E-02  0.2285E-02  0.3595E-02  0.3587E-02  0.2291E-02  0.2285E-02  0.2984E-03  0.2978E-03  0.2986E-03  0.2975E-03  0.1317E-03  0.1310E-03  0.2986E-03  0.2975E-03  0.1176E-03  0.1171E-03
     -2.409  0.2060E-01  0.2059E-01  0.2491E-02  0.2489E-02  0.4024E-02  0.4017E-02  0.2491E-02  0.2489E-02  0.3135E-03  0.3131E-03  0.3482E-03  0.3472E-03  0.1386E-03  0.1380E-03  0.3482E-03  0.3472E-03  0.1368E-03  0.1366E-03
     -2.361  0.1965E-01  0.1965E-01  0.2496E-02  0.2496E-02  0.4200E-02  0.4197E-02  0.2496E-02  0.2496E-02  0.3244E-03  0.3239E-03  0.3787E-03  0.3780E-03  0.1333E-03  0.1329E-03  0.3787E-03  0.3780E-03  0.1398E-03  0.1397E-03
     -2.313  0.1809E-01  0.1809E-01  0.2437E-02  0.2436E-02  0.4049E-02  0.4049E-02  0.2437E-02  0.2436E-02  0.3449E-03  0.3442E-03  0.3966E-03  0.3958E-03  0.1248E-03  0.1244E-03  0.3966E-03  0.3958E-03  0.1355E-03  0.1355E-03
     -2.264  0.1682E-01  0.1682E-01  0.2399E-02  0.2398E-02  0.3968E-02  0.3964E-02  0.2399E-02  0.2398E-02  0.3779E-03  0.3771E-03  0.4316E-03  0.4303E-03  0.1174E-03  0.1169E-03  0.4316E-03  0.4303E-03  0.1288E-03  0.1287E-03
     -2.216  0.1621E-01  0.1621E-01  0.2429E-02  0.2427E-02  0.4206E-02  0.4199E-02  0.2429E-02  0.2427E-02  0.4230E-03  0.4219E-03  0.4952E-03  0.4936E-03  0.1139E-03  0.1134E-03  0.4952E-03  0.4936E-03  0.1235E-03  0.1234E-03
     -2.168  0.1584E-01  0.1584E-01  0.2477E-02  0.2475E-02  0.4456E-02  0.4451E-02  0.2477E-02  0.2475E-02  0.4701E-03  0.4690E-03  0.5563E-03  0.5549E-03  0.1176E-03  0.1171E-03  0.5563E-03  0.5549E-03  0.1204E-03  0.1203E-03
     -2.119  0.1508E-01  0.1508E-01  0.2463E-02  0.2462E-02  0.4392E-02  0.4391E-02  0.2463E-02  0.2462E-02  0.5186E-03  0.5172E-03  0.5884E-03  0.5873E-03  0.1241E-03  0.1235E-03  0.5884E-03  0.5873E-03  0.1140E-03  0.1140E-03
     -2.071  0.1454E-01  0.1453E-01  0.2537E-02  0.2534E-02  0.4181E-02  0.4180E-02  0.2537E-02  0.2534E-02  0.5954E-03  0.5934E-03  0.6145E-03  0.6131E-03  0.1329E-03  0.1322E-03  0.6145E-03  0.6131E-03  0.1142E-03  0.1139E-03