   8   8   1   0
  0.1237956E+02  0.3534903E-09  0.3534903E-09  0.7925746E-09  0.5000000E-15
  1.000000000000000E-004
  CAR 
 unknown system                          
     14.90299395     -3.09708756  301      9.10316301      1.00000000
     -3.097  0.0000E+00  0.0000E+00  0.0000E+00  0.0000E+00
     -3.037  0.0000E+00  0.0000E+00  0.0000E+00  0.0000E+00
     -2.977  0.0000E+00  0.0000E+00  0.0000E+00  0.0000E+00
     -2.917  0.0000E+00  0.0000E+00  0.0000E+00  0.0000E+00
     -2.857  0.0000E+00  0.0000E+00  0.0000E+00  0.0000E+00
     -2.797  0.0000E+00  0.0000E+00  0.0000E+00  0.0000E+00
     -2.737  0.1476E-05  0.0000E+00  0.8856E-07  0.0000E+00
     -2.677  0.7060E-05  0.8223E-05  0.5122E-06  0.4934E-06
     -2.617  0.3483E-04  0.3355E-04  0.2602E-05  0.2506E-05
     -2.557  0.1492E-03  0.1437E-03  0.1155E-04  0.1113E-04
     -2.497  0.4801E-03  0.4626E-03  0.4036E-04  0.3889E-04
     -2.437  0.1563E-02  0.1507E-02  0.1341E-03  0.1293E-03
     -2.377  0.4954E-02  0.4783E-02  0.4314E-03  0.4163E-03
     -2.317  0.1444E-01  0.1399E-01  0.1297E-02  0.1256E-02
     -2.257  0.3548E-01  0.3461E-01  0.3426E-02  0.3332E-02
     -2.197  0.6902E-01  0.6787E-01  0.7568E-02  0.7405E-02
     -2.137  0.1037E+00  0.1028E+00  0.1379E-01  0.1357E-01
     -2.077  0.1266E+00  0.1261E+00  0.2139E-01  0.2114E-01
     -2.017  0.1464E+00  0.1456E+00  0.3017E-01  0.2987E-01
     -1.957  0.1796E+00  0.1784E+00  0.4095E-01  0.4058E-01
     -1.897  0.2114E+00  0.2107E+00  0.5363E-01  0.5322E-01
     -1.837  0.2181E+00  0.2182E+00  0.6672E-01  0.6631E-01
     -1.777  0.2194E+00  0.2191E+00  0.7988E-01  0.7946E-01
     -1.717  0.2353E+00  0.2348E+00  0.9401E-01  0.9355E-01
     -1.657  0.2441E+00  0.2440E+00  0.1087E+00  0.1082E+00
     -1.597  0.2550E+00  0.2542E+00  0.1240E+00  0.1235E+00
     -1.537  0.3018E+00  0.3001E+00  0.1421E+00  0.1415E+00
     -1.477  0.3435E+00  0.3430E+00  0.1627E+00  0.1620E+00
     -1.417  0.3351E+00  0.3358E+00  0.1828E+00  0.1822E+00
     -1.357  0.3173E+00  0.3176E+00  0.2019E+00  0.2013E+00
     -1.297  0.3096E+00  0.3098E+00  0.2204E+00  0.2199E+00
     -1.237  0.3094E+00  0.3090E+00  0.2390E+00  0.2384E+00
     -1.177  0.3432E+00  0.3417E+00  0.2596E+00  0.2589E+00
     -1.117  0.3835E+00  0.3829E+00  0.2826E+00  0.2819E+00
     -1.057  0.3856E+00  0.3857E+00  0.3058E+00  0.3051E+00
     -0.997  0.4001E+00  0.3991E+00  0.3298E+00  0.3290E+00
     -0.937  0.4419E+00  0.4406E+00  0.3563E+00  0.3555E+00
     -0.877  0.4749E+00  0.4742E+00  0.3848E+00  0.3839E+00
     -0.817  0.4807E+00  0.4811E+00  0.4137E+00  0.4128E+00
     -0.757  0.4399E+00  0.4418E+00  0.4401E+00  0.4393E+00
     -0.697  0.3888E+00  0.3896E+00  0.4634E+00  0.4627E+00
     -0.637  0.3927E+00  0.3919E+00  0.4870E+00  0.4862E+00
     -0.577  0.4217E+00  0.4207E+00  0.5123E+00  0.5115E+00
     -0.517  0.4682E+00  0.4660E+00  0.5404E+00  0.5395E+00
     -0.457  0.5570E+00  0.5540E+00  0.5739E+00  0.5727E+00
     -0.397  0.6272E+00  0.6260E+00  0.6115E+00  0.6103E+00
     -0.337  0.6314E+00  0.6321E+00  0.6494E+00  0.6483E+00
     -0.277  0.5906E+00  0.5923E+00  0.6849E+00  0.6838E+00
     -0.217  0.5447E+00  0.5457E+00  0.7176E+00  0.7166E+00
     -0.157  0.5353E+00  0.5348E+00  0.7497E+00  0.7487E+00
     -0.097  0.5678E+00  0.5667E+00  0.7838E+00  0.7827E+00
     -0.037  0.5803E+00  0.5810E+00  0.8186E+00  0.8176E+00
      0.023  0.5326E+00  0.5345E+00  0.8506E+00  0.8497E+00
      0.083  0.5046E+00  0.5039E+00  0.8809E+00  0.8800E+00
      0.143  0.5693E+00  0.5665E+00  0.9151E+00  0.9140E+00
      0.203  0.6303E+00  0.6296E+00  0.9529E+00  0.9518E+00
      0.263  0.6060E+00  0.6077E+00  0.9893E+00  0.9882E+00
      0.323  0.5496E+00  0.5509E+00  0.1022E+01  0.1021E+01
      0.383  0.5411E+00  0.5403E+00  0.1055E+01  0.1054E+01
      0.443  0.5968E+00  0.5944E+00  0.1091E+01  0.1089E+01
      0.503  0.6689E+00  0.6670E+00  0.1131E+01  0.1129E+01
      0.563  0.7096E+00  0.7092E+00  0.1173E+01  0.1172E+01
      0.623  0.6930E+00  0.6946E+00  0.1215E+01  0.1214E+01
      0.683  0.6188E+00  0.6215E+00  0.1252E+01  0.1251E+01
      0.743  0.5536E+00  0.5547E+00  0.1285E+01  0.1284E+01
      0.803  0.5574E+00  0.5564E+00  0.1319E+01  0.1318E+01
      0.863  0.6048E+00  0.6033E+00  0.1355E+01  0.1354E+01
      0.923  0.6360E+00  0.6359E+00  0.1393E+01  0.1392E+01
      0.983  0.6135E+00  0.6146E+00  0.1430E+01  0.1429E+01
      1.043  0.6349E+00  0.6320E+00  0.1468E+01  0.1467E+01
      1.103  0.7892E+00  0.7840E+00  0.1516E+01  0.1514E+01
      1.163  0.8737E+00  0.8743E+00  0.1568E+01  0.1567E+01
      1.223  0.7816E+00  0.7853E+00  0.1615E+01  0.1614E+01
      1.283  0.7186E+00  0.7187E+00  0.1658E+01  0.1657E+01
      1.343  0.7460E+00  0.7451E+00  0.1703E+01  0.1702E+01
      1.403  0.7351E+00  0.7365E+00  0.1747E+01  0.1746E+01
      1.463  0.6838E+00  0.6848E+00  0.1788E+01  0.1787E+01
      1.523  0.6983E+00  0.6966E+00  0.1830E+01  0.1829E+01
      1.583  0.7659E+00  0.7642E+00  0.1876E+01  0.1875E+01
      1.643  0.7888E+00  0.7887E+00  0.1923E+01  0.1922E+01
      1.703  0.8105E+00  0.8092E+00  0.1972E+01  0.1971E+01
      1.763  0.8644E+00  0.8629E+00  0.2024E+01  0.2022E+01
      1.823  0.8967E+00  0.8963E+00  0.2078E+01  0.2076E+01
      1.883  0.9220E+00  0.9208E+00  0.2133E+01  0.2131E+01
      1.943  0.9904E+00  0.9881E+00  0.2193E+01  0.2191E+01
      2.003  0.1015E+01  0.1017E+01  0.2254E+01  0.2252E+01
      2.063  0.9252E+00  0.9286E+00  0.2309E+01  0.2307E+01
      2.123  0.8447E+00  0.8460E+00  0.2360E+01  0.2358E+01
      2.183  0.8554E+00  0.8539E+00  0.2411E+01  0.2410E+01
      2.243  0.9368E+00  0.9337E+00  0.2467E+01  0.2466E+01
      2.303  0.1011E+01  0.1011E+01  0.2528E+01  0.2526E+01
      2.363  0.9655E+00  0.9680E+00  0.2586E+01  0.2584E+01
      2.423  0.9169E+00  0.9169E+00  0.2641E+01  0.2639E+01
      2.483  0.9804E+00  0.9776E+00  0.2700E+01  0.2698E+01
      2.543  0.1045E+01  0.1044E+01  0.2763E+01  0.2761E+01
      2.603  0.9759E+00  0.9799E+00  0.2821E+01  0.2820E+01
      2.663  0.8156E+00  0.8206E+00  0.2870E+01  0.2869E+01
      2.723  0.6648E+00  0.6686E+00  0.2910E+01  0.2909E+01
      2.783  0.5981E+00  0.5982E+00  0.2946E+01  0.2945E+01
      2.843  0.6475E+00  0.6450E+00  0.2985E+01  0.2984E+01
      2.903  0.7182E+00  0.7165E+00  0.3028E+01  0.3027E+01
      2.963  0.7524E+00  0.7514E+00  0.3073E+01  0.3072E+01
      3.023  0.7839E+00  0.7826E+00  0.3120E+01  0.3119E+01
      3.083  0.8298E+00  0.8287E+00  0.3170E+01  0.3169E+01
      3.143  0.8185E+00  0.8204E+00  0.3219E+01  0.3218E+01
      3.203  0.7301E+00  0.7327E+00  0.3263E+01  0.3262E+01
      3.263  0.6737E+00  0.6743E+00  0.3304E+01  0.3302E+01
      3.323  0.7019E+00  0.7000E+00  0.3346E+01  0.3344E+01
      3.383  0.7768E+00  0.7748E+00  0.3392E+01  0.3391E+01
      3.443  0.8055E+00  0.8053E+00  0.3441E+01  0.3439E+01
      3.503  0.8065E+00  0.8064E+00  0.3489E+01  0.3488E+01
      3.563  0.8168E+00  0.8159E+00  0.3538E+01  0.3537E+01
      3.623  0.8853E+00  0.8819E+00  0.3591E+01  0.3590E+01
      3.683  0.1010E+01  0.1006E+01  0.3652E+01  0.3650E+01
      3.743  0.1098E+01  0.1097E+01  0.3718E+01  0.3716E+01
      3.803  0.1047E+01  0.1051E+01  0.3781E+01  0.3779E+01
      3.863  0.8951E+00  0.8993E+00  0.3835E+01  0.3833E+01
      3.923  0.8158E+00  0.8166E+00  0.3884E+01  0.3882E+01
      3.983  0.8388E+00  0.8364E+00  0.3934E+01  0.3932E+01
      4.043  0.9469E+00  0.9426E+00  0.3991E+01  0.3989E+01
      4.103  0.1089E+01  0.1085E+01  0.4056E+01  0.4054E+01
      4.163  0.1188E+01  0.1186E+01  0.4127E+01  0.4125E+01
      4.223  0.1221E+01  0.1220E+01  0.4201E+01  0.4198E+01
      4.283  0.1242E+01  0.1241E+01  0.4275E+01  0.4273E+01
      4.343  0.1248E+01  0.1248E+01  0.4350E+01  0.4348E+01
      4.403  0.1181E+01  0.1184E+01  0.4421E+01  0.4419E+01
      4.463  0.1110E+01  0.1111E+01  0.4488E+01  0.4486E+01
      4.523  0.1150E+01  0.1147E+01  0.4557E+01  0.4554E+01
      4.583  0.1242E+01  0.1240E+01  0.4631E+01  0.4629E+01
      4.643  0.1237E+01  0.1239E+01  0.4706E+01  0.4703E+01
      4.703  0.1171E+01  0.1174E+01  0.4776E+01  0.4774E+01
      4.763  0.1130E+01  0.1130E+01  0.4844E+01  0.4842E+01
      4.823  0.1121E+01  0.1121E+01  0.4911E+01  0.4909E+01
      4.883  0.1135E+01  0.1135E+01  0.4979E+01  0.4977E+01
      4.943  0.1150E+01  0.1149E+01  0.5048E+01  0.5046E+01
      5.003  0.1158E+01  0.1157E+01  0.5118E+01  0.5116E+01
      5.063  0.1210E+01  0.1208E+01  0.5190E+01  0.5188E+01
      5.123  0.1318E+01  0.1315E+01  0.5270E+01  0.5267E+01
      5.183  0.1374E+01  0.1375E+01  0.5352E+01  0.5350E+01
      5.243  0.1275E+01  0.1280E+01  0.5429E+01  0.5426E+01
      5.303  0.1160E+01  0.1162E+01  0.5498E+01  0.5496E+01
      5.363  0.1101E+01  0.1103E+01  0.5564E+01  0.5562E+01
      5.423  0.1036E+01  0.1037E+01  0.5627E+01  0.5625E+01
      5.483  0.1032E+01  0.1031E+01  0.5689E+01  0.5687E+01
      5.543  0.1082E+01  0.1081E+01  0.5754E+01  0.5751E+01
      5.603  0.1117E+01  0.1116E+01  0.5821E+01  0.5819E+01
      5.663  0.1164E+01  0.1162E+01  0.5891E+01  0.5888E+01
      5.723  0.1205E+01  0.1205E+01  0.5963E+01  0.5961E+01
      5.783  0.1216E+01  0.1216E+01  0.6036E+01  0.6034E+01
      5.843  0.1187E+01  0.1189E+01  0.6107E+01  0.6105E+01
      5.903  0.1126E+01  0.1128E+01  0.6175E+01  0.6173E+01
      5.963  0.1110E+01  0.1109E+01  0.6241E+01  0.6239E+01
      6.023  0.1199E+01  0.1195E+01  0.6313E+01  0.6311E+01
      6.083  0.1319E+01  0.1314E+01  0.6393E+01  0.6390E+01
      6.143  0.1448E+01  0.1443E+01  0.6480E+01  0.6477E+01
      6.203  0.1521E+01  0.1519E+01  0.6571E+01  0.6568E+01
      6.263  0.1502E+01  0.1503E+01  0.6661E+01  0.6658E+01
      6.323  0.1475E+01  0.1474E+01  0.6749E+01  0.6746E+01
      6.383  0.1575E+01  0.1570E+01  0.6844E+01  0.6841E+01
      6.443  0.1766E+01  0.1759E+01  0.6950E+01  0.6946E+01
      6.503  0.1904E+01  0.1902E+01  0.7064E+01  0.7060E+01
      6.563  0.1858E+01  0.1863E+01  0.7176E+01  0.7172E+01
      6.623  0.1656E+01  0.1665E+01  0.7275E+01  0.7272E+01
      6.683  0.1453E+01  0.1458E+01  0.7363E+01  0.7360E+01
      6.743  0.1423E+01  0.1420E+01  0.7448E+01  0.7445E+01
      6.803  0.1569E+01  0.1562E+01  0.7542E+01  0.7539E+01
      6.863  0.1812E+01  0.1803E+01  0.7651E+01  0.7647E+01
      6.923  0.2083E+01  0.2074E+01  0.7776E+01  0.7772E+01
      6.983  0.2327E+01  0.2320E+01  0.7916E+01  0.7911E+01
      7.043  0.2450E+01  0.2449E+01  0.8063E+01  0.8058E+01
      7.103  0.2370E+01  0.2375E+01  0.8205E+01  0.8200E+01
      7.163  0.2226E+01  0.2230E+01  0.8339E+01  0.8334E+01
      7.223  0.2154E+01  0.2156E+01  0.8468E+01  0.8464E+01
      7.283  0.2136E+01  0.2136E+01  0.8596E+01  0.8592E+01
      7.343  0.2137E+01  0.2137E+01  0.8725E+01  0.8720E+01
      7.403  0.2099E+01  0.2100E+01  0.8851E+01  0.8846E+01
      7.463  0.2150E+01  0.2144E+01  0.8980E+01  0.8975E+01
      7.523  0.2361E+01  0.2353E+01  0.9122E+01  0.9116E+01
      7.583  0.2568E+01  0.2562E+01  0.9276E+01  0.9270E+01
      7.643  0.2722E+01  0.2718E+01  0.9439E+01  0.9433E+01
      7.703  0.2816E+01  0.2814E+01  0.9608E+01  0.9602E+01
      7.763  0.2835E+01  0.2833E+01  0.9778E+01  0.9772E+01
      7.823  0.2935E+01  0.2927E+01  0.9954E+01  0.9948E+01
      7.883  0.3204E+01  0.3193E+01  0.1015E+02  0.1014E+02
      7.943  0.3434E+01  0.3430E+01  0.1035E+02  0.1035E+02
      8.003  0.3422E+01  0.3427E+01  0.1056E+02  0.1055E+02
      8.063  0.3139E+01  0.3152E+01  0.1075E+02  0.1074E+02
      8.123  0.2782E+01  0.2791E+01  0.1091E+02  0.1091E+02
      8.183  0.2624E+01  0.2626E+01  0.1107E+02  0.1107E+02
      8.243  0.2551E+01  0.2554E+01  0.1122E+02  0.1122E+02
      8.303  0.2463E+01  0.2466E+01  0.1137E+02  0.1137E+02
      8.363  0.2428E+01  0.2429E+01  0.1152E+02  0.1151E+02
      8.423  0.2349E+01  0.2355E+01  0.1166E+02  0.1165E+02
      8.483  0.2181E+01  0.2185E+01  0.1179E+02  0.1179E+02
      8.543  0.2198E+01  0.2192E+01  0.1192E+02  0.1192E+02
      8.603  0.2431E+01  0.2423E+01  0.1207E+02  0.1206E+02
      8.663  0.2562E+01  0.2562E+01  0.1222E+02  0.1222E+02
      8.723  0.2402E+01  0.2413E+01  0.1237E+02  0.1236E+02
      8.783  0.2079E+01  0.2090E+01  0.1249E+02  0.1249E+02
      8.843  0.1790E+01  0.1799E+01  0.1260E+02  0.1260E+02
      8.903  0.1599E+01  0.1603E+01  0.1269E+02  0.1269E+02
      8.963  0.1547E+01  0.1547E+01  0.1279E+02  0.1278E+02
      9.023  0.1557E+01  0.1557E+01  0.1288E+02  0.1288E+02
      9.083  0.1519E+01  0.1522E+01  0.1297E+02  0.1297E+02
      9.143  0.1390E+01  0.1395E+01  0.1306E+02  0.1305E+02
      9.203  0.1286E+01  0.1287E+01  0.1313E+02  0.1313E+02
      9.263  0.1275E+01  0.1274E+01  0.1321E+02  0.1321E+02
      9.323  0.1271E+01  0.1272E+01  0.1329E+02  0.1328E+02
      9.383  0.1233E+01  0.1235E+01  0.1336E+02  0.1336E+02
      9.443  0.1160E+01  0.1163E+01  0.1343E+02  0.1343E+02
      9.503  0.1092E+01  0.1094E+01  0.1350E+02  0.1349E+02
      9.563  0.1080E+01  0.1080E+01  0.1356E+02  0.1356E+02
      9.623  0.1071E+01  0.1071E+01  0.1362E+02  0.1362E+02
      9.683  0.1101E+01  0.1099E+01  0.1369E+02  0.1369E+02
      9.743  0.1124E+01  0.1125E+01  0.1376E+02  0.1376E+02
      9.803  0.1102E+01  0.1102E+01  0.1382E+02  0.1382E+02
      9.863  0.1121E+01  0.1120E+01  0.1389E+02  0.1389E+02
      9.923  0.1076E+01  0.1082E+01  0.1396E+02  0.1395E+02
      9.983  0.8332E+00  0.8458E+00  0.1401E+02  0.1400E+02
     10.043  0.5068E+00  0.5182E+00  0.1404E+02  0.1404E+02
     10.103  0.3077E+00  0.3121E+00  0.1406E+02  0.1405E+02
     10.163  0.2743E+00  0.2734E+00  0.1407E+02  0.1407E+02
     10.223  0.3466E+00  0.3431E+00  0.1409E+02  0.1409E+02
     10.283  0.4462E+00  0.4432E+00  0.1412E+02  0.1412E+02
     10.343  0.5358E+00  0.5332E+00  0.1415E+02  0.1415E+02
     10.403  0.6316E+00  0.6288E+00  0.1419E+02  0.1419E+02
     10.463  0.7229E+00  0.7196E+00  0.1423E+02  0.1423E+02
     10.523  0.8736E+00  0.8663E+00  0.1429E+02  0.1428E+02
     10.583  0.1143E+01  0.1133E+01  0.1435E+02  0.1435E+02
     10.643  0.1449E+01  0.1439E+01  0.1444E+02  0.1444E+02
     10.703  0.1714E+01  0.1707E+01  0.1454E+02  0.1454E+02
     10.763  0.1870E+01  0.1866E+01  0.1466E+02  0.1465E+02
     10.823  0.1977E+01  0.1973E+01  0.1477E+02  0.1477E+02
     10.883  0.2075E+01  0.2072E+01  0.1490E+02  0.1489E+02
     10.943  0.2082E+01  0.2083E+01  0.1502E+02  0.1502E+02
     11.003  0.2035E+01  0.2035E+01  0.1515E+02  0.1514E+02
     11.063  0.2121E+01  0.2113E+01  0.1527E+02  0.1527E+02
     11.123  0.2468E+01  0.2452E+01  0.1542E+02  0.1542E+02
     11.183  0.2967E+01  0.2949E+01  0.1560E+02  0.1559E+02
     11.243  0.3430E+01  0.3418E+01  0.1581E+02  0.1580E+02
     11.303  0.3593E+01  0.3591E+01  0.1602E+02  0.1601E+02
     11.363  0.3595E+01  0.3593E+01  0.1624E+02  0.1623E+02
     11.423  0.3691E+01  0.3684E+01  0.1646E+02  0.1645E+02
     11.483  0.4003E+01  0.3988E+01  0.1670E+02  0.1669E+02
     11.543  0.4548E+01  0.4534E+01  0.1697E+02  0.1696E+02
     11.603  0.4919E+01  0.4934E+01  0.1727E+02  0.1726E+02
     11.663  0.4715E+01  0.4775E+01  0.1755E+02  0.1754E+02
     11.723  0.4012E+01  0.4091E+01  0.1779E+02  0.1779E+02
     11.783  0.3159E+01  0.3221E+01  0.1798E+02  0.1798E+02
     11.843  0.2349E+01  0.2388E+01  0.1812E+02  0.1813E+02
     11.903  0.1836E+01  0.1852E+01  0.1823E+02  0.1824E+02
     11.963  0.1704E+01  0.1707E+01  0.1833E+02  0.1834E+02
     12.023  0.1662E+01  0.1666E+01  0.1843E+02  0.1844E+02
     12.083  0.1532E+01  0.1537E+01  0.1853E+02  0.1853E+02
     12.143  0.1434E+01  0.1436E+01  0.1861E+02  0.1862E+02
     12.203  0.1384E+01  0.1386E+01  0.1870E+02  0.1870E+02
     12.263  0.1359E+01  0.1360E+01  0.1878E+02  0.1879E+02
     12.323  0.1318E+01  0.1320E+01  0.1886E+02  0.1886E+02
     12.383  0.1359E+01  0.1356E+01  0.1894E+02  0.1895E+02
     12.443  0.1522E+01  0.1516E+01  0.1903E+02  0.1904E+02
     12.503  0.1673E+01  0.1669E+01  0.1913E+02  0.1914E+02
     12.563  0.1715E+01  0.1716E+01  0.1923E+02  0.1924E+02
     12.623  0.1635E+01  0.1643E+01  0.1933E+02  0.1934E+02
     12.683  0.1458E+01  0.1472E+01  0.1942E+02  0.1943E+02
     12.743  0.1252E+01  0.1263E+01  0.1949E+02  0.1950E+02
     12.803  0.1076E+01  0.1085E+01  0.1956E+02  0.1957E+02
     12.863  0.9450E+00  0.9652E+00  0.1962E+02  0.1963E+02
     12.923  0.8185E+00  0.8624E+00  0.1966E+02  0.1968E+02
     12.983  0.7200E+00  0.7747E+00  0.1971E+02  0.1972E+02
     13.043  0.6754E+00  0.7148E+00  0.1975E+02  0.1977E+02
     13.103  0.6508E+00  0.6506E+00  0.1979E+02  0.1981E+02
     13.163  0.5714E+00  0.5301E+00  0.1982E+02  0.1984E+02
     13.223  0.4208E+00  0.3666E+00  0.1985E+02  0.1986E+02
     13.283  0.2733E+00  0.2329E+00  0.1986E+02  0.1987E+02
     13.343  0.2115E+00  0.1790E+00  0.1988E+02  0.1989E+02
     13.403  0.2244E+00  0.1821E+00  0.1989E+02  0.1990E+02
     13.463  0.2472E+00  0.1985E+00  0.1990E+02  0.1991E+02
     13.523  0.2191E+00  0.1926E+00  0.1992E+02  0.1992E+02
     13.583  0.1820E+00  0.1871E+00  0.1993E+02  0.1993E+02
     13.643  0.1789E+00  0.1921E+00  0.1994E+02  0.1994E+02
     13.703  0.1605E+00  0.1555E+00  0.1995E+02  0.1995E+02
     13.763  0.1191E+00  0.1005E+00  0.1996E+02  0.1996E+02
     13.823  0.9779E-01  0.7961E-01  0.1996E+02  0.1996E+02
     13.883  0.1105E+00  0.9900E-01  0.1997E+02  0.1997E+02
     13.943  0.1412E+00  0.1338E+00  0.1998E+02  0.1998E+02
     14.003  0.1489E+00  0.1423E+00  0.1999E+02  0.1999E+02
     14.063  0.1182E+00  0.1196E+00  0.1999E+02  0.1999E+02
     14.123  0.6861E-01  0.7617E-01  0.2000E+02  0.2000E+02
     14.183  0.2876E-01  0.3509E-01  0.2000E+02  0.2000E+02
     14.243  0.9804E-02  0.1269E-01  0.2000E+02  0.2000E+02
     14.303  0.3055E-02  0.4084E-02  0.2000E+02  0.2000E+02
     14.363  0.8035E-03  0.1121E-02  0.2000E+02  0.2000E+02
     14.423  0.1990E-03  0.2625E-03  0.2000E+02  0.2000E+02
     14.483  0.0000E+00  0.4542E-04  0.2000E+02  0.2000E+02
     14.543  0.0000E+00  0.0000E+00  0.2000E+02  0.2000E+02
     14.603  0.0000E+00  0.0000E+00  0.2000E+02  0.2000E+02
     14.663  0.0000E+00  0.0000E+00  0.2000E+02  0.2000E+02
     14.723  0.0000E+00  0.0000E+00  0.2000E+02  0.2000E+02
     14.783  0.0000E+00  0.0000E+00  0.2000E+02  0.2000E+02
     14.843  0.0000E+00  0.0000E+00  0.2000E+02  0.2000E+02
     14.903  0.0000E+00  0.0000E+00  0.2000E+02  0.2000E+02
     14.90299395     -3.09708756  301      9.10316301      1.00000000
     -3.097  0.0000E+00  0.0000E+00  0.0000E+00  0.0000E+00  0.0000E+00  0.0000E+00  0.0000E+00  0.0000E+00  0.0000E+00  0.0000E+00  0.0000E+00  0.0000E+00  0.0000E+00  0.0000E+00  0.0000E+00  0.0000E+00  0.0000E+00  0.0000E+00
     -3.037  0.0000E+00  0.0000E+00  0.0000E+00  0.0000E+00  0.0000E+00  0.0000E+00  0.0000E+00  0.0000E+00  0.0000E+00  0.0000E+00  0.0000E+00  0.0000E+00  0.0000E+00  0.0000E+00  0.0000E+00  0.0000E+00  0.0000E+00  0.0000E+00
     -2.977  0.0000E+00  0.0000E+00  0.0000E+00  0.0000E+00  0.0000E+00  0.0000E+00  0.0000E+00  0.0000E+00  0.0000E+00  0.0000E+00  0.0000E+00  0.0000E+00  0.0000E+00  0.0000E+00  0.0000E+00  0.0000E+00  0.0000E+00  0.0000E+00
     -2.917  0.0000E+00  0.0000E+00  0.0000E+00  0.0000E+00  0.0000E+00  0.0000E+00  0.0000E+00  0.0000E+00  0.0000E+00  0.0000E+00  0.0000E+00  0.0000E+00  0.0000E+00  0.0000E+00  0.0000E+00  0.0000E+00  0.0000E+00  0.0000E+00
     -2.857  0.0000E+00  0.0000E+00  0.0000E+00  0.0000E+00  0.0000E+00  0.0000E+00  0.0000E+00  0.0000E+00  0.0000E+00  0.0000E+00  0.0000E+00  0.0000E+00  0.0000E+00  0.0000E+00  0.0000E+00  0.0000E+00  0.0000E+00  0.0000E+00
     -2.797  0.0000E+00  0.0000E+00  0.0000E+00  0.0000E+00  0.0000E+00  0.0000E+00  0.0000E+00  0.0000E+00  0.0000E+00  0.0000E+00  0.0000E+00  0.0000E+00  0.0000E+00  0.0000E+00  0.0000E+00  0.0000E+00  0.0000E+00  0.0000E+00
     -2.737  0.1311E-06  0.0000E+00  0.1796E-22  0.0000E+00  0.3803E-19  0.0000E+00  0.1796E-22  0.0000E+00  0.2430E-21  0.0000E+00  0.4647E-21  0.0000E+00  0.7787E-10  0.0000E+00  0.4647E-21  0.0000E+00  0.1621E-21  0.0000E+00
     -2.677  0.6227E-06  0.7261E-06  0.1567E-21  0.2964E-21  0.2576E-08  0.2481E-08  0.1567E-21  0.2964E-21  0.6222E-21  0.1322E-21  0.2017E-20  0.4361E-19  0.3065E-09  0.3699E-09  0.2017E-20  0.4361E-19  0.1542E-20  0.2109E-20
     -2.617  0.3064E-05  0.2952E-05  0.6170E-08  0.5943E-08  0.5974E-08  0.5754E-08  0.6170E-08  0.5943E-08  0.2642E-19  0.1312E-19  0.1422E-19  0.1348E-18  0.1936E-08  0.1864E-08  0.1422E-19  0.1348E-18  0.4187E-10  0.4036E-10
     -2.557  0.1306E-04  0.1258E-04  0.3892E-07  0.3750E-07  0.4609E-07  0.4440E-07  0.3892E-07  0.3750E-07  0.2041E-09  0.1966E-09  0.2462E-09  0.2375E-09  0.8203E-08  0.7896E-08  0.2462E-09  0.2375E-09  0.2002E-09  0.1930E-09
     -2.497  0.4197E-04  0.4044E-04  0.1278E-06  0.1231E-06  0.1664E-06  0.1603E-06  0.1278E-06  0.1231E-06  0.9786E-09  0.9427E-09  0.9522E-09  0.9183E-09  0.2617E-07  0.2520E-07  0.9522E-09  0.9183E-09  0.5604E-09  0.5403E-09
     -2.437  0.1366E-03  0.1317E-03  0.4188E-06  0.4035E-06  0.5697E-06  0.5489E-06  0.4188E-06  0.4035E-06  0.2739E-08  0.2639E-08  0.3352E-08  0.3233E-08  0.8486E-07  0.8175E-07  0.3352E-08  0.3233E-08  0.2212E-08  0.2133E-08
     -2.377  0.4327E-03  0.4178E-03  0.1391E-05  0.1341E-05  0.1850E-05  0.1784E-05  0.1391E-05  0.1341E-05  0.9344E-08  0.9003E-08  0.1185E-07  0.1143E-07  0.2702E-06  0.2607E-06  0.1185E-07  0.1143E-07  0.7608E-08  0.7341E-08
     -2.317  0.1259E-02  0.1220E-02  0.4489E-05  0.4334E-05  0.5713E-05  0.5521E-05  0.4489E-05  0.4334E-05  0.3478E-07  0.3353E-07  0.3808E-07  0.3676E-07  0.7980E-06  0.7726E-06  0.3808E-07  0.3676E-07  0.2474E-07  0.2391E-07
     -2.257  0.3085E-02  0.3010E-02  0.1290E-04  0.1250E-04  0.1598E-04  0.1552E-04  0.1290E-04  0.1250E-04  0.1059E-06  0.1022E-06  0.1175E-06  0.1137E-06  0.1989E-05  0.1938E-05  0.1175E-06  0.1137E-06  0.6938E-07  0.6736E-07
     -2.197  0.5974E-02  0.5875E-02  0.3108E-04  0.3035E-04  0.3783E-04  0.3693E-04  0.3108E-04  0.3035E-04  0.3059E-06  0.2967E-06  0.3306E-06  0.3214E-06  0.3960E-05  0.3889E-05  0.3306E-06  0.3214E-06  0.1658E-06  0.1620E-06
     -2.137  0.8911E-02  0.8834E-02  0.5805E-04  0.5714E-04  0.7472E-04  0.7332E-04  0.5805E-04  0.5714E-04  0.7250E-06  0.7090E-06  0.7634E-06  0.7468E-06  0.6054E-05  0.5993E-05  0.7634E-06  0.7468E-06  0.3324E-06  0.3256E-06
     -2.077  0.1077E-01  0.1072E-01  0.8844E-04  0.8740E-04  0.1274E-03  0.1255E-03  0.8844E-04  0.8740E-04  0.1290E-05  0.1272E-05  0.1488E-05  0.1460E-05  0.7477E-05  0.7434E-05  0.1488E-05  0.1460E-05  0.7078E-06  0.6900E-06
     -2.017  0.1227E-01  0.1221E-01  0.1332E-03  0.1313E-03  0.1929E-03  0.1907E-03  0.1332E-03  0.1313E-03  0.2089E-05  0.2053E-05  0.2703E-05  0.2657E-05  0.9273E-05  0.9181E-05  0.2703E-05  0.2657E-05  0.1642E-05  0.1603E-05
     -1.957  0.1487E-01  0.1478E-01  0.2142E-03  0.2112E-03  0.2578E-03  0.2559E-03  0.2142E-03  0.2112E-03  0.4020E-05  0.3936E-05  0.4589E-05  0.4525E-05  0.1355E-04  0.1337E-04  0.4589E-05  0.4525E-05  0.3186E-05  0.3137E-05
     -1.897  0.1732E-01  0.1728E-01  0.3021E-03  0.3000E-03  0.3174E-03  0.3152E-03  0.3021E-03  0.3000E-03  0.7152E-05  0.7057E-05  0.6927E-05  0.6853E-05  0.1846E-04  0.1834E-04  0.6927E-05  0.6853E-05  0.4511E-05  0.4484E-05
     -1.837  0.1764E-01  0.1766E-01  0.3372E-03  0.3370E-03  0.4157E-03  0.4113E-03  0.3372E-03  0.3370E-03  0.9395E-05  0.9352E-05  0.1000E-04  0.9886E-05  0.1928E-04  0.1932E-04  0.1000E-04  0.9886E-05  0.4990E-05  0.4986E-05
     -1.777  0.1742E-01  0.1741E-01  0.3485E-03  0.3475E-03  0.5880E-03  0.5821E-03  0.3485E-03  0.3475E-03  0.1123E-04  0.1114E-04  0.1500E-04  0.1482E-04  0.1742E-04  0.1744E-04  0.1500E-04  0.1482E-04  0.5312E-05  0.5294E-05
     -1.717  0.1839E-01  0.1836E-01  0.4155E-03  0.4124E-03  0.7262E-03  0.7240E-03  0.4155E-03  0.4124E-03  0.1654E-04  0.1633E-04  0.2047E-04  0.2034E-04  0.1982E-04  0.1964E-04  0.2047E-04  0.2034E-04  0.6757E-05  0.6682E-05
     -1.657  0.1887E-01  0.1887E-01  0.5233E-03  0.5197E-03  0.7075E-03  0.7097E-03  0.5233E-03  0.5197E-03  0.2297E-04  0.2282E-04  0.2297E-04  0.2293E-04  0.2775E-04  0.2744E-04  0.2297E-04  0.2293E-04  0.1106E-04  0.1086E-04
     -1.597  0.1944E-01  0.1938E-01  0.6601E-03  0.6549E-03  0.6891E-03  0.6863E-03  0.6601E-03  0.6549E-03  0.2699E-04  0.2687E-04  0.2689E-04  0.2666E-04  0.3833E-04  0.3798E-04  0.2689E-04  0.2666E-04  0.1955E-04  0.1925E-04
     -1.537  0.2260E-01  0.2249E-01  0.8418E-03  0.8365E-03  0.9283E-03  0.9169E-03  0.8418E-03  0.8365E-03  0.3339E-04  0.3313E-04  0.4015E-04  0.3964E-04  0.4883E-04  0.4857E-04  0.4015E-04  0.3964E-04  0.2847E-04  0.2827E-04
     -1.477  0.2531E-01  0.2528E-01  0.9479E-03  0.9470E-03  0.1308E-02  0.1297E-02  0.9479E-03  0.9470E-03  0.4118E-04  0.4101E-04  0.5648E-04  0.5610E-04  0.5330E-04  0.5328E-04  0.5648E-04  0.5610E-04  0.3145E-04  0.3147E-04
     -1.417  0.2427E-01  0.2433E-01  0.9264E-03  0.9271E-03  0.1499E-02  0.1497E-02  0.9264E-03  0.9271E-03  0.4806E-04  0.4774E-04  0.6383E-04  0.6376E-04  0.5304E-04  0.5300E-04  0.6383E-04  0.6376E-04  0.2960E-04  0.2968E-04
     -1.357  0.2263E-01  0.2266E-01  0.9651E-03  0.9622E-03  0.1450E-02  0.1453E-02  0.9651E-03  0.9622E-03  0.6770E-04  0.6689E-04  0.6699E-04  0.6687E-04  0.5858E-04  0.5832E-04  0.6699E-04  0.6687E-04  0.2783E-04  0.2788E-04
     -1.297  0.2177E-01  0.2179E-01  0.1050E-02  0.1049E-02  0.1382E-02  0.1381E-02  0.1050E-02  0.1049E-02  0.9097E-04  0.9052E-04  0.7622E-04  0.7577E-04  0.6404E-04  0.6402E-04  0.7622E-04  0.7577E-04  0.2642E-04  0.2645E-04
     -1.237  0.2127E-01  0.2126E-01  0.1078E-02  0.1077E-02  0.1584E-02  0.1572E-02  0.1078E-02  0.1077E-02  0.9314E-04  0.9337E-04  0.1004E-03  0.9942E-04  0.6070E-04  0.6082E-04  0.1004E-03  0.9942E-04  0.2922E-04  0.2898E-04
     -1.177  0.2301E-01  0.2292E-01  0.1210E-02  0.1203E-02  0.2041E-02  0.2026E-02  0.1210E-02  0.1203E-02  0.8980E-04  0.8974E-04  0.1363E-03  0.1353E-03  0.6496E-04  0.6453E-04  0.1363E-03  0.1353E-03  0.4426E-04  0.4360E-04
     -1.117  0.2533E-01  0.2529E-01  0.1458E-02  0.1451E-02  0.2298E-02  0.2296E-02  0.1458E-02  0.1451E-02  0.9633E-04  0.9614E-04  0.1520E-03  0.1522E-03  0.8968E-04  0.8868E-04  0.1520E-03  0.1522E-03  0.7055E-04  0.6969E-04
     -1.057  0.2508E-01  0.2510E-01  0.1622E-02  0.1618E-02  0.2232E-02  0.2232E-02  0.1622E-02  0.1618E-02  0.1073E-03  0.1067E-03  0.1348E-03  0.1353E-03  0.1243E-03  0.1232E-03  0.1348E-03  0.1353E-03  0.9510E-04  0.9453E-04
     -0.997  0.2547E-01  0.2542E-01  0.1798E-02  0.1791E-02  0.2387E-02  0.2376E-02  0.1798E-02  0.1791E-02  0.1449E-03  0.1433E-03  0.1436E-03  0.1425E-03  0.1520E-03  0.1514E-03  0.1436E-03  0.1425E-03  0.1054E-03  0.1054E-03
     -0.937  0.2758E-01  0.2751E-01  0.2040E-02  0.2033E-02  0.2803E-02  0.2790E-02  0.2040E-02  0.2033E-02  0.2003E-03  0.1987E-03  0.2042E-03  0.2020E-03  0.1599E-03  0.1599E-03  0.2042E-03  0.2020E-03  0.1061E-03  0.1061E-03
     -0.877  0.2913E-01  0.2911E-01  0.2251E-02  0.2247E-02  0.3143E-02  0.3134E-02  0.2251E-02  0.2247E-02  0.2421E-03  0.2411E-03  0.2689E-03  0.2673E-03  0.1620E-03  0.1618E-03  0.2689E-03  0.2673E-03  0.1109E-03  0.1107E-03
     -0.817  0.2883E-01  0.2888E-01  0.2296E-02  0.2299E-02  0.3459E-02  0.3450E-02  0.2296E-02  0.2299E-02  0.2655E-03  0.2653E-03  0.3063E-03  0.3056E-03  0.1678E-03  0.1678E-03  0.3063E-03  0.3056E-03  0.1107E-03  0.1110E-03
     -0.757  0.2562E-01  0.2576E-01  0.2061E-02  0.2072E-02  0.3589E-02  0.3591E-02  0.2061E-02  0.2072E-02  0.2485E-03  0.2497E-03  0.3150E-03  0.3150E-03  0.1541E-03  0.1550E-03  0.3150E-03  0.3150E-03  0.9910E-04  0.9946E-04
     -0.697  0.2191E-01  0.2198E-01  0.1850E-02  0.1852E-02  0.3460E-02  0.3462E-02  0.1850E-02  0.1852E-02  0.2223E-03  0.2224E-03  0.3196E-03  0.3189E-03  0.1308E-03  0.1312E-03  0.3196E-03  0.3189E-03  0.9579E-04  0.9566E-04
     -0.637  0.2127E-01  0.2126E-01  0.1919E-02  0.1916E-02  0.3786E-02  0.3765E-02  0.1919E-02  0.1916E-02  0.2477E-03  0.2464E-03  0.3608E-03  0.3591E-03  0.1309E-03  0.1305E-03  0.3608E-03  0.3591E-03  0.1006E-03  0.1005E-03
     -0.577  0.2174E-01  0.2172E-01  0.2047E-02  0.2041E-02  0.4571E-02  0.4548E-02  0.2047E-02  0.2041E-02  0.3029E-03  0.3008E-03  0.4041E-03  0.4031E-03  0.1615E-03  0.1600E-03  0.4041E-03  0.4031E-03  0.1040E-03  0.1036E-03
     -0.517  0.2344E-01  0.2334E-01  0.2449E-02  0.2429E-02  0.5075E-02  0.5064E-02  0.2449E-02  0.2429E-02  0.3935E-03  0.3901E-03  0.4354E-03  0.4338E-03  0.2327E-03  0.2300E-03  0.4354E-03  0.4338E-03  0.1427E-03  0.1406E-03
     -0.457  0.2773E-01  0.2759E-01  0.3247E-02  0.3223E-02  0.5531E-02  0.5510E-02  0.3247E-02  0.3223E-02  0.4937E-03  0.4916E-03  0.5269E-03  0.5228E-03  0.3179E-03  0.3157E-03  0.5269E-03  0.5228E-03  0.2308E-03  0.2278E-03
     -0.397  0.3038E-01  0.3037E-01  0.3751E-02  0.3746E-02  0.6417E-02  0.6385E-02  0.3751E-02  0.3746E-02  0.5102E-03  0.5108E-03  0.6550E-03  0.6514E-03  0.3533E-03  0.3532E-03  0.6550E-03  0.6514E-03  0.3033E-03  0.3020E-03
     -0.337  0.2914E-01  0.2922E-01  0.3721E-02  0.3727E-02  0.7149E-02  0.7137E-02  0.3721E-02  0.3727E-02  0.4986E-03  0.4985E-03  0.7316E-03  0.7301E-03  0.3369E-03  0.3378E-03  0.7316E-03  0.7301E-03  0.3128E-03  0.3132E-03
     -0.277  0.2632E-01  0.2641E-01  0.3543E-02  0.3549E-02  0.6956E-02  0.6976E-02  0.3543E-02  0.3549E-02  0.5135E-03  0.5129E-03  0.7446E-03  0.7446E-03  0.3104E-03  0.3111E-03  0.7446E-03  0.7446E-03  0.2958E-03  0.2963E-03
     -0.217  0.2382E-01  0.2388E-01  0.3424E-02  0.3427E-02  0.6303E-02  0.6316E-02  0.3424E-02  0.3427E-02  0.5493E-03  0.5478E-03  0.7540E-03  0.7526E-03  0.2965E-03  0.2969E-03  0.7540E-03  0.7526E-03  0.2821E-03  0.2826E-03
     -0.157  0.2249E-01  0.2251E-01  0.3393E-02  0.3393E-02  0.6462E-02  0.6439E-02  0.3393E-02  0.3393E-02  0.6168E-03  0.6145E-03  0.8563E-03  0.8511E-03  0.2826E-03  0.2831E-03  0.8563E-03  0.8511E-03  0.2639E-03  0.2644E-03
     -0.097  0.2260E-01  0.2259E-01  0.3526E-02  0.3521E-02  0.7422E-02  0.7395E-02  0.3526E-02  0.3521E-02  0.7013E-03  0.6989E-03  0.1045E-02  0.1039E-02  0.2802E-03  0.2798E-03  0.1045E-02  0.1039E-02  0.2624E-03  0.2621E-03