   8   8   1   0
  0.1947569E+02  0.4111245E-09  0.4111245E-09  0.9217988E-09  0.5000000E-15
  1.000000000000000E-004
  CAR 
 unknown system                          
      9.63592014     -4.54504798  301      5.07844731      1.00000000
     -4.545  0.0000E+00  0.0000E+00  0.0000E+00  0.0000E+00
     -4.498  0.0000E+00  0.0000E+00  0.0000E+00  0.0000E+00
     -4.451  0.0000E+00  0.0000E+00  0.0000E+00  0.0000E+00
     -4.403  0.0000E+00  0.0000E+00  0.0000E+00  0.0000E+00
     -4.356  0.0000E+00  0.0000E+00  0.0000E+00  0.0000E+00
     -4.309  0.1010E-04  0.9996E-05  0.4776E-06  0.4725E-06
     -4.261  0.3422E-04  0.3386E-04  0.2095E-05  0.2073E-05
     -4.214  0.1328E-03  0.1314E-03  0.8373E-05  0.8285E-05
     -4.167  0.3307E-03  0.3272E-03  0.2400E-04  0.2375E-04
     -4.120  0.8464E-03  0.8375E-03  0.6401E-04  0.6334E-04
     -4.072  0.2199E-02  0.2176E-02  0.1680E-03  0.1662E-03
     -4.025  0.5499E-02  0.5443E-02  0.4279E-03  0.4235E-03
     -3.978  0.1333E-01  0.1320E-01  0.1058E-02  0.1047E-02
     -3.931  0.3012E-01  0.2987E-01  0.2482E-02  0.2459E-02
     -3.883  0.6030E-01  0.5988E-01  0.5332E-02  0.5290E-02
     -3.836  0.1022E+00  0.1017E+00  0.1016E-01  0.1009E-01
     -3.789  0.1457E+00  0.1452E+00  0.1705E-01  0.1696E-01
     -3.741  0.1837E+00  0.1833E+00  0.2573E-01  0.2563E-01
     -3.694  0.2220E+00  0.2215E+00  0.3622E-01  0.3610E-01
     -3.647  0.2618E+00  0.2614E+00  0.4860E-01  0.4846E-01
     -3.600  0.2898E+00  0.2896E+00  0.6230E-01  0.6215E-01
     -3.552  0.3051E+00  0.3050E+00  0.7672E-01  0.7656E-01
     -3.505  0.3216E+00  0.3214E+00  0.9192E-01  0.9176E-01
     -3.458  0.3407E+00  0.3405E+00  0.1080E+00  0.1079E+00
     -3.411  0.3674E+00  0.3671E+00  0.1254E+00  0.1252E+00
     -3.363  0.4106E+00  0.4102E+00  0.1448E+00  0.1446E+00
     -3.316  0.4445E+00  0.4444E+00  0.1658E+00  0.1656E+00
     -3.269  0.4472E+00  0.4473E+00  0.1870E+00  0.1868E+00
     -3.221  0.4381E+00  0.4382E+00  0.2077E+00  0.2075E+00
     -3.174  0.4375E+00  0.4375E+00  0.2284E+00  0.2282E+00
     -3.127  0.4572E+00  0.4570E+00  0.2500E+00  0.2498E+00
     -3.080  0.4953E+00  0.4949E+00  0.2734E+00  0.2732E+00
     -3.032  0.5250E+00  0.5248E+00  0.2983E+00  0.2980E+00
     -2.985  0.5474E+00  0.5472E+00  0.3241E+00  0.3239E+00
     -2.938  0.5817E+00  0.5813E+00  0.3517E+00  0.3514E+00
     -2.891  0.6154E+00  0.6152E+00  0.3808E+00  0.3805E+00
     -2.843  0.6230E+00  0.6233E+00  0.4102E+00  0.4099E+00
     -2.796  0.5951E+00  0.5955E+00  0.4384E+00  0.4381E+00
     -2.749  0.5615E+00  0.5618E+00  0.4649E+00  0.4647E+00
     -2.702  0.5640E+00  0.5639E+00  0.4916E+00  0.4913E+00
     -2.654  0.6031E+00  0.6027E+00  0.5201E+00  0.5198E+00
     -2.607  0.6731E+00  0.6724E+00  0.5519E+00  0.5516E+00
     -2.560  0.7580E+00  0.7574E+00  0.5878E+00  0.5874E+00
     -2.512  0.8087E+00  0.8086E+00  0.6260E+00  0.6257E+00
     -2.465  0.8023E+00  0.8027E+00  0.6640E+00  0.6636E+00
     -2.418  0.7618E+00  0.7623E+00  0.7000E+00  0.6997E+00
     -2.371  0.7304E+00  0.7306E+00  0.7345E+00  0.7342E+00
     -2.323  0.7321E+00  0.7321E+00  0.7692E+00  0.7689E+00
     -2.276  0.7417E+00  0.7418E+00  0.8042E+00  0.8039E+00
     -2.229  0.7255E+00  0.7257E+00  0.8385E+00  0.8383E+00
     -2.182  0.7111E+00  0.7111E+00  0.8722E+00  0.8719E+00
     -2.134  0.7464E+00  0.7461E+00  0.9075E+00  0.9072E+00
     -2.087  0.8031E+00  0.8028E+00  0.9455E+00  0.9452E+00
     -2.040  0.8116E+00  0.8119E+00  0.9838E+00  0.9836E+00
     -1.992  0.7682E+00  0.7686E+00  0.1020E+01  0.1020E+01
     -1.945  0.7485E+00  0.7485E+00  0.1056E+01  0.1055E+01
     -1.898  0.7940E+00  0.7936E+00  0.1093E+01  0.1093E+01
     -1.851  0.8566E+00  0.8562E+00  0.1134E+01  0.1133E+01
     -1.803  0.8898E+00  0.8898E+00  0.1176E+01  0.1175E+01
     -1.756  0.8791E+00  0.8794E+00  0.1217E+01  0.1217E+01
     -1.709  0.8269E+00  0.8273E+00  0.1256E+01  0.1256E+01
     -1.662  0.7890E+00  0.7892E+00  0.1294E+01  0.1293E+01
     -1.614  0.7993E+00  0.7993E+00  0.1332E+01  0.1331E+01
     -1.567  0.8290E+00  0.8290E+00  0.1371E+01  0.1370E+01
     -1.520  0.8691E+00  0.8690E+00  0.1412E+01  0.1412E+01
     -1.473  0.9239E+00  0.9238E+00  0.1456E+01  0.1455E+01
     -1.425  0.9786E+00  0.9783E+00  0.1502E+01  0.1502E+01
     -1.378  0.1006E+01  0.1006E+01  0.1549E+01  0.1549E+01
     -1.331  0.9991E+00  0.9991E+00  0.1597E+01  0.1596E+01
     -1.283  0.9549E+00  0.9551E+00  0.1642E+01  0.1641E+01
     -1.236  0.8735E+00  0.8739E+00  0.1683E+01  0.1683E+01
     -1.189  0.7945E+00  0.7947E+00  0.1721E+01  0.1720E+01
     -1.142  0.7705E+00  0.7701E+00  0.1757E+01  0.1757E+01
     -1.094  0.8266E+00  0.8256E+00  0.1796E+01  0.1796E+01
     -1.047  0.8999E+00  0.8990E+00  0.1839E+01  0.1838E+01
     -1.000  0.9330E+00  0.9325E+00  0.1883E+01  0.1883E+01
     -0.953  0.9761E+00  0.9756E+00  0.1929E+01  0.1929E+01
     -0.905  0.1073E+01  0.1072E+01  0.1980E+01  0.1979E+01
     -0.858  0.1197E+01  0.1197E+01  0.2036E+01  0.2036E+01
     -0.811  0.1283E+01  0.1284E+01  0.2097E+01  0.2097E+01
     -0.763  0.1272E+01  0.1273E+01  0.2157E+01  0.2157E+01
     -0.716  0.1182E+01  0.1183E+01  0.2213E+01  0.2213E+01
     -0.669  0.1114E+01  0.1114E+01  0.2266E+01  0.2266E+01
     -0.622  0.1100E+01  0.1100E+01  0.2318E+01  0.2318E+01
     -0.574  0.1071E+01  0.1071E+01  0.2369E+01  0.2368E+01
     -0.527  0.1017E+01  0.1017E+01  0.2417E+01  0.2416E+01
     -0.480  0.1024E+01  0.1024E+01  0.2465E+01  0.2465E+01
     -0.433  0.1120E+01  0.1119E+01  0.2518E+01  0.2518E+01
     -0.385  0.1185E+01  0.1185E+01  0.2574E+01  0.2574E+01
     -0.338  0.1145E+01  0.1145E+01  0.2628E+01  0.2628E+01
     -0.291  0.1088E+01  0.1087E+01  0.2680E+01  0.2679E+01
     -0.243  0.1100E+01  0.1099E+01  0.2732E+01  0.2731E+01
     -0.196  0.1147E+01  0.1147E+01  0.2786E+01  0.2786E+01
     -0.149  0.1121E+01  0.1121E+01  0.2839E+01  0.2839E+01
     -0.102  0.9922E+00  0.9934E+00  0.2886E+01  0.2886E+01
     -0.054  0.8652E+00  0.8658E+00  0.2927E+01  0.2926E+01
     -0.007  0.8279E+00  0.8275E+00  0.2966E+01  0.2966E+01
      0.040  0.8705E+00  0.8693E+00  0.3007E+01  0.3007E+01
      0.087  0.9312E+00  0.9297E+00  0.3051E+01  0.3051E+01
      0.135  0.9633E+00  0.9622E+00  0.3097E+01  0.3096E+01
      0.182  0.9691E+00  0.9684E+00  0.3143E+01  0.3142E+01
      0.229  0.9622E+00  0.9617E+00  0.3188E+01  0.3188E+01
      0.276  0.9440E+00  0.9439E+00  0.3233E+01  0.3232E+01
      0.324  0.9423E+00  0.9422E+00  0.3277E+01  0.3277E+01
      0.371  0.9903E+00  0.9893E+00  0.3324E+01  0.3324E+01
      0.418  0.1084E+01  0.1082E+01  0.3375E+01  0.3375E+01
      0.466  0.1200E+01  0.1197E+01  0.3432E+01  0.3431E+01
      0.513  0.1307E+01  0.1304E+01  0.3494E+01  0.3493E+01
      0.560  0.1400E+01  0.1398E+01  0.3560E+01  0.3559E+01
      0.607  0.1496E+01  0.1495E+01  0.3631E+01  0.3630E+01
      0.655  0.1560E+01  0.1559E+01  0.3705E+01  0.3704E+01
      0.702  0.1563E+01  0.1564E+01  0.3779E+01  0.3777E+01
      0.749  0.1493E+01  0.1495E+01  0.3849E+01  0.3848E+01
      0.796  0.1358E+01  0.1360E+01  0.3913E+01  0.3912E+01
      0.844  0.1252E+01  0.1253E+01  0.3973E+01  0.3972E+01
      0.891  0.1223E+01  0.1223E+01  0.4030E+01  0.4030E+01
      0.938  0.1226E+01  0.1225E+01  0.4088E+01  0.4087E+01
      0.986  0.1248E+01  0.1247E+01  0.4147E+01  0.4146E+01
      1.033  0.1296E+01  0.1295E+01  0.4209E+01  0.4208E+01
      1.080  0.1364E+01  0.1363E+01  0.4273E+01  0.4272E+01
      1.127  0.1469E+01  0.1467E+01  0.4343E+01  0.4342E+01
      1.175  0.1564E+01  0.1563E+01  0.4417E+01  0.4415E+01
      1.222  0.1560E+01  0.1561E+01  0.4490E+01  0.4489E+01
      1.269  0.1440E+01  0.1442E+01  0.4559E+01  0.4557E+01
      1.316  0.1277E+01  0.1280E+01  0.4619E+01  0.4618E+01
      1.364  0.1181E+01  0.1181E+01  0.4675E+01  0.4674E+01
      1.411  0.1171E+01  0.1170E+01  0.4730E+01  0.4729E+01
      1.458  0.1175E+01  0.1174E+01  0.4786E+01  0.4785E+01
      1.505  0.1174E+01  0.1173E+01  0.4841E+01  0.4840E+01
      1.553  0.1201E+01  0.1199E+01  0.4898E+01  0.4897E+01
      1.600  0.1229E+01  0.1228E+01  0.4956E+01  0.4955E+01
      1.647  0.1260E+01  0.1259E+01  0.5016E+01  0.5015E+01
      1.695  0.1312E+01  0.1311E+01  0.5078E+01  0.5077E+01
      1.742  0.1353E+01  0.1352E+01  0.5142E+01  0.5140E+01
      1.789  0.1385E+01  0.1384E+01  0.5207E+01  0.5206E+01
      1.836  0.1404E+01  0.1403E+01  0.5274E+01  0.5272E+01
      1.884  0.1339E+01  0.1341E+01  0.5337E+01  0.5336E+01
      1.931  0.1186E+01  0.1190E+01  0.5393E+01  0.5392E+01
      1.978  0.1070E+01  0.1070E+01  0.5444E+01  0.5443E+01
      2.025  0.1126E+01  0.1121E+01  0.5497E+01  0.5496E+01
      2.073  0.1367E+01  0.1360E+01  0.5562E+01  0.5560E+01
      2.120  0.1648E+01  0.1643E+01  0.5640E+01  0.5638E+01
      2.167  0.1799E+01  0.1798E+01  0.5725E+01  0.5723E+01
      2.215  0.1766E+01  0.1769E+01  0.5808E+01  0.5806E+01
      2.262  0.1619E+01  0.1622E+01  0.5885E+01  0.5883E+01
      2.309  0.1438E+01  0.1441E+01  0.5953E+01  0.5951E+01
      2.356  0.1353E+01  0.1352E+01  0.6017E+01  0.6015E+01
      2.404  0.1436E+01  0.1432E+01  0.6085E+01  0.6083E+01
      2.451  0.1578E+01  0.1575E+01  0.6159E+01  0.6157E+01
      2.498  0.1638E+01  0.1638E+01  0.6237E+01  0.6235E+01
      2.545  0.1628E+01  0.1628E+01  0.6314E+01  0.6312E+01
      2.593  0.1633E+01  0.1631E+01  0.6391E+01  0.6389E+01
      2.640  0.1737E+01  0.1731E+01  0.6473E+01  0.6471E+01
      2.687  0.1958E+01  0.1949E+01  0.6566E+01  0.6563E+01
      2.735  0.2163E+01  0.2158E+01  0.6668E+01  0.6665E+01
      2.782  0.2224E+01  0.2224E+01  0.6773E+01  0.6770E+01
      2.829  0.2096E+01  0.2101E+01  0.6872E+01  0.6870E+01
      2.876  0.1880E+01  0.1884E+01  0.6961E+01  0.6959E+01
      2.924  0.1733E+01  0.1734E+01  0.7043E+01  0.7041E+01
      2.971  0.1664E+01  0.1665E+01  0.7122E+01  0.7119E+01
      3.018  0.1635E+01  0.1635E+01  0.7199E+01  0.7197E+01
      3.065  0.1592E+01  0.1593E+01  0.7275E+01  0.7272E+01
      3.113  0.1561E+01  0.1559E+01  0.7348E+01  0.7346E+01
      3.160  0.1657E+01  0.1650E+01  0.7427E+01  0.7424E+01
      3.207  0.1873E+01  0.1863E+01  0.7515E+01  0.7512E+01
      3.254  0.2107E+01  0.2098E+01  0.7615E+01  0.7611E+01
      3.302  0.2264E+01  0.2260E+01  0.7722E+01  0.7718E+01
      3.349  0.2321E+01  0.2320E+01  0.7832E+01  0.7828E+01
      3.396  0.2349E+01  0.2346E+01  0.7943E+01  0.7939E+01
      3.444  0.2405E+01  0.2401E+01  0.8057E+01  0.8052E+01
      3.491  0.2466E+01  0.2462E+01  0.8173E+01  0.8169E+01
      3.538  0.2488E+01  0.2484E+01  0.8291E+01  0.8286E+01
      3.585  0.2452E+01  0.2450E+01  0.8407E+01  0.8402E+01
      3.633  0.2355E+01  0.2355E+01  0.8518E+01  0.8513E+01
      3.680  0.2302E+01  0.2298E+01  0.8627E+01  0.8622E+01
      3.727  0.2391E+01  0.2382E+01  0.8740E+01  0.8735E+01
      3.774  0.2597E+01  0.2582E+01  0.8863E+01  0.8857E+01
      3.822  0.2855E+01  0.2839E+01  0.8998E+01  0.8991E+01
      3.869  0.3037E+01  0.3026E+01  0.9142E+01  0.9134E+01
      3.916  0.3069E+01  0.3062E+01  0.9287E+01  0.9279E+01
      3.964  0.3073E+01  0.3062E+01  0.9432E+01  0.9424E+01
      4.011  0.3140E+01  0.3129E+01  0.9581E+01  0.9572E+01
      4.058  0.3250E+01  0.3236E+01  0.9734E+01  0.9725E+01
      4.105  0.3460E+01  0.3437E+01  0.9898E+01  0.9887E+01
      4.153  0.3828E+01  0.3796E+01  0.1008E+02  0.1007E+02
      4.200  0.4214E+01  0.4187E+01  0.1028E+02  0.1026E+02
      4.247  0.4372E+01  0.4362E+01  0.1048E+02  0.1047E+02
      4.294  0.4175E+01  0.4190E+01  0.1068E+02  0.1067E+02
      4.342  0.3697E+01  0.3726E+01  0.1086E+02  0.1085E+02
      4.389  0.3195E+01  0.3218E+01  0.1101E+02  0.1100E+02
      4.436  0.2887E+01  0.2894E+01  0.1114E+02  0.1113E+02
      4.484  0.2796E+01  0.2790E+01  0.1128E+02  0.1127E+02
      4.531  0.2849E+01  0.2835E+01  0.1141E+02  0.1140E+02
      4.578  0.2985E+01  0.2967E+01  0.1155E+02  0.1154E+02
      4.625  0.3096E+01  0.3086E+01  0.1170E+02  0.1169E+02
      4.673  0.3053E+01  0.3056E+01  0.1184E+02  0.1183E+02
      4.720  0.2960E+01  0.2955E+01  0.1198E+02  0.1197E+02
      4.767  0.3022E+01  0.2999E+01  0.1213E+02  0.1211E+02
      4.814  0.3192E+01  0.3168E+01  0.1228E+02  0.1226E+02
      4.862  0.3277E+01  0.3268E+01  0.1243E+02  0.1242E+02
      4.909  0.3192E+01  0.3201E+01  0.1258E+02  0.1257E+02
      4.956  0.2928E+01  0.2956E+01  0.1272E+02  0.1271E+02
      5.003  0.2545E+01  0.2579E+01  0.1284E+02  0.1283E+02
      5.051  0.2223E+01  0.2243E+01  0.1295E+02  0.1294E+02
      5.098  0.2057E+01  0.2062E+01  0.1305E+02  0.1303E+02
      5.145  0.2012E+01  0.2008E+01  0.1314E+02  0.1313E+02
      5.193  0.2006E+01  0.2003E+01  0.1324E+02  0.1322E+02
      5.240  0.1965E+01  0.1968E+01  0.1333E+02  0.1332E+02
      5.287  0.1889E+01  0.1894E+01  0.1342E+02  0.1341E+02
      5.334  0.1799E+01  0.1805E+01  0.1350E+02  0.1349E+02
      5.382  0.1711E+01  0.1715E+01  0.1358E+02  0.1357E+02
      5.429  0.1671E+01  0.1667E+01  0.1366E+02  0.1365E+02
      5.476  0.1661E+01  0.1659E+01  0.1374E+02  0.1373E+02
      5.523  0.1615E+01  0.1621E+01  0.1382E+02  0.1381E+02
      5.571  0.1532E+01  0.1545E+01  0.1389E+02  0.1388E+02
      5.618  0.1397E+01  0.1422E+01  0.1396E+02  0.1395E+02
      5.665  0.1192E+01  0.1231E+01  0.1401E+02  0.1401E+02
      5.713  0.1004E+01  0.1040E+01  0.1406E+02  0.1406E+02
      5.760  0.9647E+00  0.9853E+00  0.1411E+02  0.1410E+02
      5.807  0.1088E+01  0.1096E+01  0.1416E+02  0.1415E+02
      5.854  0.1300E+01  0.1303E+01  0.1422E+02  0.1422E+02
      5.902  0.1616E+01  0.1612E+01  0.1430E+02  0.1429E+02
      5.949  0.2110E+01  0.2092E+01  0.1439E+02  0.1439E+02
      5.996  0.2767E+01  0.2736E+01  0.1453E+02  0.1452E+02
      6.043  0.3447E+01  0.3427E+01  0.1469E+02  0.1468E+02
      6.091  0.4036E+01  0.4055E+01  0.1488E+02  0.1487E+02
      6.138  0.4517E+01  0.4575E+01  0.1509E+02  0.1509E+02
      6.185  0.4936E+01  0.5001E+01  0.1533E+02  0.1533E+02
      6.232  0.5361E+01  0.5417E+01  0.1558E+02  0.1558E+02
      6.280  0.5795E+01  0.5877E+01  0.1585E+02  0.1586E+02
      6.327  0.6117E+01  0.6274E+01  0.1614E+02  0.1616E+02
      6.374  0.6101E+01  0.6343E+01  0.1643E+02  0.1646E+02
      6.422  0.5615E+01  0.5923E+01  0.1670E+02  0.1674E+02
      6.469  0.4801E+01  0.5123E+01  0.1692E+02  0.1698E+02
      6.516  0.4025E+01  0.4286E+01  0.1711E+02  0.1718E+02
      6.563  0.3559E+01  0.3714E+01  0.1728E+02  0.1736E+02
      6.611  0.3393E+01  0.3461E+01  0.1744E+02  0.1752E+02
      6.658  0.3389E+01  0.3408E+01  0.1760E+02  0.1768E+02
      6.705  0.3456E+01  0.3458E+01  0.1777E+02  0.1785E+02
      6.752  0.3508E+01  0.3528E+01  0.1793E+02  0.1801E+02
      6.800  0.3423E+01  0.3481E+01  0.1810E+02  0.1818E+02
      6.847  0.3221E+01  0.3292E+01  0.1825E+02  0.1833E+02
      6.894  0.3084E+01  0.3132E+01  0.1839E+02  0.1848E+02
      6.942  0.3063E+01  0.3113E+01  0.1854E+02  0.1863E+02
      6.989  0.3013E+01  0.3114E+01  0.1868E+02  0.1878E+02
      7.036  0.2821E+01  0.2980E+01  0.1881E+02  0.1892E+02
      7.083  0.2523E+01  0.2705E+01  0.1893E+02  0.1905E+02
      7.131  0.2186E+01  0.2349E+01  0.1904E+02  0.1916E+02
      7.178  0.1855E+01  0.1964E+01  0.1912E+02  0.1925E+02
      7.225  0.1606E+01  0.1623E+01  0.1920E+02  0.1933E+02
      7.272  0.1447E+01  0.1379E+01  0.1927E+02  0.1939E+02
      7.320  0.1308E+01  0.1225E+01  0.1933E+02  0.1945E+02
      7.367  0.1185E+01  0.1123E+01  0.1939E+02  0.1950E+02
      7.414  0.1119E+01  0.1067E+01  0.1944E+02  0.1955E+02
      7.462  0.1093E+01  0.1039E+01  0.1949E+02  0.1960E+02
      7.509  0.1044E+01  0.9726E+00  0.1954E+02  0.1965E+02
      7.556  0.9397E+00  0.8455E+00  0.1959E+02  0.1969E+02
      7.603  0.8264E+00  0.7245E+00  0.1963E+02  0.1972E+02
      7.651  0.7694E+00  0.6828E+00  0.1966E+02  0.1975E+02
      7.698  0.7651E+00  0.7072E+00  0.1970E+02  0.1979E+02
      7.745  0.7630E+00  0.7155E+00  0.1973E+02  0.1982E+02
      7.792  0.7306E+00  0.6684E+00  0.1977E+02  0.1985E+02
      7.840  0.6686E+00  0.5971E+00  0.1980E+02  0.1988E+02
      7.887  0.5845E+00  0.5129E+00  0.1983E+02  0.1991E+02
      7.934  0.5065E+00  0.4183E+00  0.1985E+02  0.1993E+02
      7.981  0.4346E+00  0.3328E+00  0.1987E+02  0.1994E+02
      8.029  0.3588E+00  0.2721E+00  0.1989E+02  0.1995E+02
      8.076  0.3088E+00  0.2188E+00  0.1990E+02  0.1997E+02
      8.123  0.2800E+00  0.1613E+00  0.1992E+02  0.1997E+02
      8.171  0.2427E+00  0.1213E+00  0.1993E+02  0.1998E+02
      8.218  0.2078E+00  0.9955E-01  0.1994E+02  0.1998E+02
      8.265  0.1832E+00  0.7532E-01  0.1995E+02  0.1999E+02
      8.312  0.1527E+00  0.4996E-01  0.1995E+02  0.1999E+02
      8.360  0.1202E+00  0.3402E-01  0.1996E+02  0.1999E+02
      8.407  0.9685E-01  0.2371E-01  0.1996E+02  0.1999E+02
      8.454  0.8061E-01  0.1402E-01  0.1997E+02  0.1999E+02
      8.501  0.7475E-01  0.6818E-02  0.1997E+02  0.1999E+02
      8.549  0.7893E-01  0.3012E-02  0.1998E+02  0.1999E+02
      8.596  0.7428E-01  0.1397E-02  0.1998E+02  0.1999E+02
      8.643  0.5576E-01  0.9364E-03  0.1998E+02  0.1999E+02
      8.691  0.4241E-01  0.1510E-02  0.1998E+02  0.1999E+02
      8.738  0.4131E-01  0.3426E-02  0.1999E+02  0.1999E+02
      8.785  0.4172E-01  0.7963E-02  0.1999E+02  0.1999E+02
      8.832  0.3722E-01  0.1680E-01  0.1999E+02  0.1999E+02
      8.880  0.3675E-01  0.2821E-01  0.1999E+02  0.2000E+02
      8.927  0.4455E-01  0.3311E-01  0.1999E+02  0.2000E+02
      8.974  0.4954E-01  0.2580E-01  0.2000E+02  0.2000E+02
      9.021  0.4172E-01  0.1442E-01  0.2000E+02  0.2000E+02
      9.069  0.2619E-01  0.6607E-02  0.2000E+02  0.2000E+02
      9.116  0.1310E-01  0.2749E-02  0.2000E+02  0.2000E+02
      9.163  0.5654E-02  0.1098E-02  0.2000E+02  0.2000E+02
      9.210  0.2307E-02  0.4311E-03  0.2000E+02  0.2000E+02
      9.258  0.9140E-03  0.1682E-03  0.2000E+02  0.2000E+02
      9.305  0.3579E-03  0.0000E+00  0.2000E+02  0.2000E+02
      9.352  0.8222E-04  0.0000E+00  0.2000E+02  0.2000E+02
      9.400  0.0000E+00  0.0000E+00  0.2000E+02  0.2000E+02
      9.447  0.0000E+00  0.0000E+00  0.2000E+02  0.2000E+02
      9.494  0.0000E+00  0.0000E+00  0.2000E+02  0.2000E+02
      9.541  0.0000E+00  0.0000E+00  0.2000E+02  0.2000E+02
      9.589  0.0000E+00  0.0000E+00  0.2000E+02  0.2000E+02
      9.636  0.0000E+00  0.0000E+00  0.2000E+02  0.2000E+02
      9.63592014     -4.54504798  301      5.07844731      1.00000000
     -4.545  0.0000E+00  0.0000E+00  0.0000E+00  0.0000E+00  0.0000E+00  0.0000E+00  0.0000E+00  0.0000E+00  0.0000E+00  0.0000E+00  0.0000E+00  0.0000E+00  0.0000E+00  0.0000E+00  0.0000E+00  0.0000E+00  0.0000E+00  0.0000E+00
     -4.498  0.0000E+00  0.0000E+00  0.0000E+00  0.0000E+00  0.0000E+00  0.0000E+00  0.0000E+00  0.0000E+00  0.0000E+00  0.0000E+00  0.0000E+00  0.0000E+00  0.0000E+00  0.0000E+00  0.0000E+00  0.0000E+00  0.0000E+00  0.0000E+00
     -4.451  0.0000E+00  0.0000E+00  0.0000E+00  0.0000E+00  0.0000E+00  0.0000E+00  0.0000E+00  0.0000E+00  0.0000E+00  0.0000E+00  0.0000E+00  0.0000E+00  0.0000E+00  0.0000E+00  0.0000E+00  0.0000E+00  0.0000E+00  0.0000E+00
     -4.403  0.0000E+00  0.0000E+00  0.0000E+00  0.0000E+00  0.0000E+00  0.0000E+00  0.0000E+00  0.0000E+00  0.0000E+00  0.0000E+00  0.0000E+00  0.0000E+00  0.0000E+00  0.0000E+00  0.0000E+00  0.0000E+00  0.0000E+00  0.0000E+00
     -4.356  0.0000E+00  0.0000E+00  0.0000E+00  0.0000E+00  0.0000E+00  0.0000E+00  0.0000E+00  0.0000E+00  0.0000E+00  0.0000E+00  0.0000E+00  0.0000E+00  0.0000E+00  0.0000E+00  0.0000E+00  0.0000E+00  0.0000E+00  0.0000E+00
     -4.309  0.4535E-06  0.4482E-06  0.1985E-21  0.1040E-21  0.1565E-08  0.1547E-08  0.1985E-21  0.1040E-21  0.6215E-20  0.4560E-19  0.1401E-20  0.5808E-20  0.8112E-11  0.7003E-11  0.1401E-20  0.5808E-20  0.1263E-19  0.3490E-19
     -4.261  0.1530E-05  0.1512E-05  0.3557E-08  0.3515E-08  0.2463E-08  0.2434E-08  0.3557E-08  0.3515E-08  0.1124E-19  0.7906E-19  0.3212E-20  0.1309E-19  0.7384E-10  0.6668E-10  0.3212E-20  0.1309E-19  0.1612E-10  0.1588E-10
     -4.214  0.5898E-05  0.5829E-05  0.2096E-07  0.2072E-07  0.2082E-07  0.2057E-07  0.2096E-07  0.2072E-07  0.1278E-09  0.1265E-09  0.1170E-09  0.1141E-09  0.2751E-09  0.2489E-09  0.1170E-09  0.1141E-09  0.6593E-10  0.6507E-10
     -4.167  0.1465E-04  0.1448E-04  0.5468E-07  0.5405E-07  0.6505E-07  0.6430E-07  0.5468E-07  0.5405E-07  0.5267E-09  0.5212E-09  0.3958E-09  0.3867E-09  0.7144E-09  0.6512E-09  0.3958E-09  0.3867E-09  0.1290E-09  0.1272E-09
     -4.120  0.3746E-04  0.3703E-04  0.1419E-06  0.1402E-06  0.1879E-06  0.1857E-06  0.1419E-06  0.1402E-06  0.1029E-08  0.1018E-08  0.1188E-08  0.1162E-08  0.1937E-08  0.1779E-08  0.1188E-08  0.1162E-08  0.5520E-09  0.5447E-09
     -4.072  0.9721E-04  0.9610E-04  0.4088E-06  0.4041E-06  0.4874E-06  0.4818E-06  0.4088E-06  0.4041E-06  0.3678E-08  0.3640E-08  0.3712E-08  0.3636E-08  0.5454E-08  0.5021E-08  0.3712E-08  0.3636E-08  0.1865E-08  0.1841E-08
     -4.025  0.2430E-03  0.2403E-03  0.1038E-05  0.1026E-05  0.1221E-05  0.1207E-05  0.1038E-05  0.1026E-05  0.1037E-07  0.1026E-07  0.9256E-08  0.9066E-08  0.1399E-07  0.1290E-07  0.9256E-08  0.9066E-08  0.4576E-08  0.4518E-08
     -3.978  0.5885E-03  0.5823E-03  0.2568E-05  0.2539E-05  0.3105E-05  0.3071E-05  0.2568E-05  0.2539E-05  0.2441E-07  0.2416E-07  0.2433E-07  0.2384E-07  0.3424E-07  0.3162E-07  0.2433E-07  0.2384E-07  0.1143E-07  0.1129E-07
     -3.931  0.1328E-02  0.1316E-02  0.6225E-05  0.6160E-05  0.7433E-05  0.7355E-05  0.6225E-05  0.6160E-05  0.6264E-07  0.6201E-07  0.6167E-07  0.6046E-07  0.8019E-07  0.7424E-07  0.6167E-07  0.6046E-07  0.2793E-07  0.2759E-07
     -3.883  0.2651E-02  0.2630E-02  0.1398E-04  0.1385E-04  0.1667E-04  0.1651E-04  0.1398E-04  0.1385E-04  0.1554E-06  0.1540E-06  0.1476E-06  0.1448E-06  0.1761E-06  0.1640E-06  0.1476E-06  0.1448E-06  0.6416E-07  0.6345E-07
     -3.836  0.4470E-02  0.4444E-02  0.2772E-04  0.2751E-04  0.3340E-04  0.3313E-04  0.2772E-04  0.2751E-04  0.3401E-06  0.3372E-06  0.3256E-06  0.3200E-06  0.3405E-06  0.3199E-06  0.3256E-06  0.3200E-06  0.1408E-06  0.1393E-06
     -3.789  0.6329E-02  0.6303E-02  0.4802E-04  0.4772E-04  0.5977E-04  0.5937E-04  0.4802E-04  0.4772E-04  0.6803E-06  0.6755E-06  0.6607E-06  0.6506E-06  0.5969E-06  0.5667E-06  0.6607E-06  0.6506E-06  0.2912E-06  0.2884E-06
     -3.741  0.7899E-02  0.7874E-02  0.7570E-04  0.7527E-04  0.9551E-04  0.9498E-04  0.7570E-04  0.7527E-04  0.1217E-05  0.1209E-05  0.1222E-05  0.1206E-05  0.9859E-06  0.9450E-06  0.1222E-05  0.1206E-05  0.5801E-06  0.5746E-06
     -3.694  0.9430E-02  0.9402E-02  0.1154E-03  0.1148E-03  0.1376E-03  0.1370E-03  0.1154E-03  0.1148E-03  0.2129E-05  0.2116E-05  0.2092E-05  0.2068E-05  0.1600E-05  0.1543E-05  0.2092E-05  0.2068E-05  0.1066E-05  0.1058E-05
     -3.647  0.1099E-01  0.1097E-01  0.1645E-03  0.1638E-03  0.1846E-03  0.1839E-03  0.1645E-03  0.1638E-03  0.3589E-05  0.3569E-05  0.3336E-05  0.3303E-05  0.2447E-05  0.2371E-05  0.3336E-05  0.3303E-05  0.1648E-05  0.1639E-05
     -3.600  0.1202E-01  0.1201E-01  0.2064E-03  0.2059E-03  0.2434E-03  0.2425E-03  0.2064E-03  0.2059E-03  0.5319E-05  0.5298E-05  0.5011E-05  0.4966E-05  0.3337E-05  0.3253E-05  0.5011E-05  0.4966E-05  0.2145E-05  0.2137E-05
     -3.552  0.1247E-01  0.1245E-01  0.2380E-03  0.2374E-03  0.3219E-03  0.3207E-03  0.2380E-03  0.2374E-03  0.7177E-05  0.7151E-05  0.7290E-05  0.7230E-05  0.4242E-05  0.4160E-05  0.7290E-05  0.7230E-05  0.2647E-05  0.2636E-05
     -3.505  0.1294E-01  0.1292E-01  0.2820E-03  0.2812E-03  0.3971E-03  0.3960E-03  0.2820E-03  0.2812E-03  0.9917E-05  0.9879E-05  0.9971E-05  0.9899E-05  0.5519E-05  0.5426E-05  0.9971E-05  0.9899E-05  0.3588E-05  0.3568E-05
     -3.458  0.1351E-01  0.1349E-01  0.3502E-03  0.3491E-03  0.4388E-03  0.4381E-03  0.3502E-03  0.3491E-03  0.1343E-04  0.1339E-04  0.1255E-04  0.1246E-04  0.7488E-05  0.7359E-05  0.1255E-04  0.1246E-04  0.5504E-05  0.5467E-05
     -3.411  0.1435E-01  0.1433E-01  0.4388E-03  0.4374E-03  0.4876E-03  0.4864E-03  0.4388E-03  0.4374E-03  0.1708E-04  0.1704E-04  0.1604E-04  0.1592E-04  0.1023E-04  0.1005E-04  0.1604E-04  0.1592E-04  0.8478E-05  0.8428E-05
     -3.363  0.1578E-01  0.1575E-01  0.5331E-03  0.5317E-03  0.6081E-03  0.6059E-03  0.5331E-03  0.5317E-03  0.2145E-04  0.2139E-04  0.2187E-04  0.2171E-04  0.1345E-04  0.1325E-04  0.2187E-04  0.2171E-04  0.1141E-04  0.1136E-04
     -3.316  0.1682E-01  0.1680E-01  0.5966E-03  0.5957E-03  0.7624E-03  0.7602E-03  0.5966E-03  0.5957E-03  0.2679E-04  0.2673E-04  0.2841E-04  0.2823E-04  0.1639E-04  0.1619E-04  0.2841E-04  0.2823E-04  0.1287E-04  0.1284E-04
     -3.269  0.1666E-01  0.1664E-01  0.6272E-03  0.6264E-03  0.8560E-03  0.8547E-03  0.6272E-03  0.6264E-03  0.3404E-04  0.3394E-04  0.3340E-04  0.3323E-04  0.1868E-04  0.1850E-04  0.3340E-04  0.3323E-04  0.1304E-04  0.1301E-04
     -3.221  0.1605E-01  0.1604E-01  0.6659E-03  0.6648E-03  0.8849E-03  0.8838E-03  0.6659E-03  0.6648E-03  0.4418E-04  0.4406E-04  0.3837E-04  0.3817E-04  0.2055E-04  0.2036E-04  0.3837E-04  0.3817E-04  0.1313E-04  0.1310E-04
     -3.174  0.1574E-01  0.1572E-01  0.7173E-03  0.7161E-03  0.9436E-03  0.9416E-03  0.7173E-03  0.7161E-03  0.5269E-04  0.5261E-04  0.4674E-04  0.4648E-04  0.2227E-04  0.2206E-04  0.4674E-04  0.4648E-04  0.1442E-04  0.1437E-04
     -3.127  0.1608E-01  0.1606E-01  0.7886E-03  0.7871E-03  0.1099E-02  0.1096E-02  0.7886E-03  0.7871E-03  0.5642E-04  0.5637E-04  0.5930E-04  0.5898E-04  0.2541E-04  0.2518E-04  0.5930E-04  0.5898E-04  0.1878E-04  0.1868E-04
     -3.080  0.1707E-01  0.1704E-01  0.9071E-03  0.9050E-03  0.1277E-02  0.1274E-02  0.9071E-03  0.9050E-03  0.6055E-04  0.6046E-04  0.7054E-04  0.7024E-04  0.3220E-04  0.3190E-04  0.7054E-04  0.7024E-04  0.2709E-04  0.2694E-04
     -3.032  0.1776E-01  0.1774E-01  0.1041E-02  0.1039E-02  0.1379E-02  0.1377E-02  0.1041E-02  0.1039E-02  0.6916E-04  0.6899E-04  0.7504E-04  0.7479E-04  0.4219E-04  0.4181E-04  0.7504E-04  0.7479E-04  0.3679E-04  0.3663E-04
     -2.985  0.1817E-01  0.1814E-01  0.1168E-02  0.1165E-02  0.1470E-02  0.1467E-02  0.1168E-02  0.1165E-02  0.8637E-04  0.8607E-04  0.8136E-04  0.8102E-04  0.5190E-04  0.5147E-04  0.8136E-04  0.8102E-04  0.4369E-04  0.4355E-04
     -2.938  0.1893E-01  0.1890E-01  0.1301E-02  0.1299E-02  0.1635E-02  0.1632E-02  0.1301E-02  0.1299E-02  0.1119E-03  0.1115E-03  0.1007E-03  0.1002E-03  0.5768E-04  0.5724E-04  0.1007E-03  0.1002E-03  0.4670E-04  0.4658E-04
     -2.891  0.1965E-01  0.1962E-01  0.1417E-02  0.1416E-02  0.1833E-02  0.1829E-02  0.1417E-02  0.1416E-02  0.1362E-03  0.1358E-03  0.1270E-03  0.1264E-03  0.6036E-04  0.5994E-04  0.1270E-03  0.1264E-03  0.4810E-04  0.4799E-04
     -2.843  0.1946E-01  0.1945E-01  0.1454E-02  0.1453E-02  0.2014E-02  0.2011E-02  0.1454E-02  0.1453E-02  0.1503E-03  0.1500E-03  0.1478E-03  0.1473E-03  0.6244E-04  0.6206E-04  0.1478E-03  0.1473E-03  0.4803E-04  0.4794E-04
     -2.796  0.1808E-01  0.1807E-01  0.1393E-02  0.1393E-02  0.2138E-02  0.2135E-02  0.1393E-02  0.1393E-02  0.1512E-03  0.1511E-03  0.1598E-03  0.1593E-03  0.6196E-04  0.6165E-04  0.1598E-03  0.1593E-03  0.4621E-04  0.4613E-04
     -2.749  0.1646E-01  0.1646E-01  0.1336E-02  0.1335E-02  0.2232E-02  0.2229E-02  0.1336E-02  0.1335E-02  0.1513E-03  0.1510E-03  0.1703E-03  0.1698E-03  0.6001E-04  0.5971E-04  0.1703E-03  0.1698E-03  0.4617E-04  0.4605E-04
     -2.702  0.1587E-01  0.1585E-01  0.1382E-02  0.1380E-02  0.2451E-02  0.2447E-02  0.1382E-02  0.1380E-02  0.1682E-03  0.1677E-03  0.1886E-03  0.1879E-03  0.6456E-04  0.6417E-04  0.1886E-03  0.1879E-03  0.5005E-04  0.4989E-04
     -2.654  0.1631E-01  0.1629E-01  0.1542E-02  0.1538E-02  0.2784E-02  0.2778E-02  0.1542E-02  0.1538E-02  0.2033E-03  0.2026E-03  0.2119E-03  0.2112E-03  0.8043E-04  0.7985E-04  0.2119E-03  0.2112E-03  0.6022E-04  0.5996E-04
     -2.607  0.1770E-01  0.1767E-01  0.1851E-02  0.1846E-02  0.3103E-02  0.3098E-02  0.1851E-02  0.1846E-02  0.2502E-03  0.2494E-03  0.2418E-03  0.2409E-03  0.1041E-03  0.1034E-03  0.2418E-03  0.2409E-03  0.8235E-04  0.8193E-04
     -2.560  0.1947E-01  0.1943E-01  0.2216E-02  0.2211E-02  0.3474E-02  0.3467E-02  0.2216E-02  0.2211E-02  0.2893E-03  0.2885E-03  0.2867E-03  0.2857E-03  0.1244E-03  0.1236E-03  0.2867E-03  0.2857E-03  0.1110E-03  0.1106E-03
     -2.512  0.2010E-01  0.2008E-01  0.2417E-02  0.2415E-02  0.3881E-02  0.3874E-02  0.2417E-02  0.2415E-02  0.3054E-03  0.3048E-03  0.3340E-03  0.3330E-03  0.1315E-03  0.1307E-03  0.3340E-03  0.3330E-03  0.1297E-03  0.1293E-03
     -2.465  0.1925E-01  0.1924E-01  0.2432E-02  0.2431E-02  0.4059E-02  0.4054E-02  0.2432E-02  0.2431E-02  0.3166E-03  0.3159E-03  0.3644E-03  0.3634E-03  0.1271E-03  0.1264E-03  0.3644E-03  0.3634E-03  0.1333E-03  0.1330E-03
     -2.418  0.1777E-01  0.1776E-01  0.2379E-02  0.2378E-02  0.3931E-02  0.3928E-02  0.2379E-02  0.2378E-02  0.3364E-03  0.3356E-03  0.3827E-03  0.3817E-03  0.1192E-03  0.1185E-03  0.3827E-03  0.3817E-03  0.1295E-03  0.1293E-03
     -2.371  0.1653E-01  0.1652E-01  0.2343E-02  0.2342E-02  0.3852E-02  0.3846E-02  0.2343E-02  0.2342E-02  0.3681E-03  0.3671E-03  0.4157E-03  0.4145E-03  0.1121E-03  0.1114E-03  0.4157E-03  0.4145E-03  0.1233E-03  0.1231E-03
     -2.323  0.1590E-01  0.1589E-01  0.2369E-02  0.2367E-02  0.4061E-02  0.4054E-02  0.2369E-02  0.2367E-02  0.4112E-03  0.4101E-03  0.4750E-03  0.4734E-03  0.1087E-03  0.1080E-03  0.4750E-03  0.4734E-03  0.1182E-03  0.1180E-03
     -2.276  0.1552E-01  0.1550E-01  0.2415E-02  0.2413E-02  0.4297E-02  0.4290E-02  0.2415E-02  0.2413E-02  0.4572E-03  0.4560E-03  0.5333E-03  0.5318E-03  0.1118E-03  0.1111E-03  0.5333E-03  0.5318E-03  0.1150E-03  0.1149E-03
     -2.229  0.1481E-01  0.1480E-01  0.2409E-02  0.2407E-02  0.4255E-02  0.4250E-02  0.2409E-02  0.2407E-02  0.5045E-03  0.5030E-03  0.5661E-03  0.5646E-03  0.1180E-03  0.1173E-03  0.5661E-03  0.5646E-03  0.1095E-03  0.1094E-03
     -2.182  0.1428E-01  0.1427E-01  0.2479E-02  0.2476E-02  0.4064E-02  0.4059E-02  0.2479E-02  0.2476E-02  0.5769E-03  0.5750E-03  0.5922E-03  0.5905E-03  0.1264E-03  0.1256E-03  0.5922E-03  0.5905E-03  0.1098E-03  0.1096E-03