   8   8   1   0
  0.1737214E+02  0.3957554E-09  0.3957554E-09  0.8873390E-09  0.5000000E-15
  1.000000000000000E-004
  CAR 
 unknown system                          
     11.15763450     -4.28573530  301      5.97851949      1.00000000
     -4.286  0.0000E+00  0.0000E+00  0.0000E+00  0.0000E+00
     -4.234  0.0000E+00  0.0000E+00  0.0000E+00  0.0000E+00
     -4.183  0.0000E+00  0.0000E+00  0.0000E+00  0.0000E+00
     -4.131  0.0000E+00  0.0000E+00  0.0000E+00  0.0000E+00
     -4.080  0.0000E+00  0.0000E+00  0.0000E+00  0.0000E+00
     -4.028  0.2258E-05  0.2229E-05  0.1162E-06  0.1148E-06
     -3.977  0.1800E-04  0.1777E-04  0.1043E-05  0.1029E-05
     -3.925  0.5744E-04  0.5670E-04  0.3999E-05  0.3948E-05
     -3.874  0.1834E-03  0.1810E-03  0.1344E-04  0.1327E-04
     -3.822  0.4850E-03  0.4788E-03  0.3841E-04  0.3792E-04
     -3.771  0.1347E-02  0.1330E-02  0.1078E-03  0.1064E-03
     -3.719  0.3791E-02  0.3744E-02  0.3029E-03  0.2991E-03
     -3.668  0.1002E-01  0.9907E-02  0.8190E-03  0.8091E-03
     -3.617  0.2463E-01  0.2437E-01  0.2087E-02  0.2064E-02
     -3.565  0.5283E-01  0.5239E-01  0.4807E-02  0.4761E-02
     -3.514  0.9347E-01  0.9293E-01  0.9618E-02  0.9544E-02
     -3.462  0.1351E+00  0.1346E+00  0.1657E-01  0.1647E-01
     -3.411  0.1694E+00  0.1690E+00  0.2529E-01  0.2517E-01
     -3.359  0.2046E+00  0.2041E+00  0.3582E-01  0.3568E-01
     -3.308  0.2438E+00  0.2434E+00  0.4837E-01  0.4821E-01
     -3.256  0.2696E+00  0.2694E+00  0.6225E-01  0.6208E-01
     -3.205  0.2810E+00  0.2809E+00  0.7672E-01  0.7653E-01
     -3.153  0.2959E+00  0.2956E+00  0.9195E-01  0.9175E-01
     -3.102  0.3127E+00  0.3125E+00  0.1080E+00  0.1078E+00
     -3.050  0.3365E+00  0.3361E+00  0.1254E+00  0.1251E+00
     -2.999  0.3816E+00  0.3810E+00  0.1450E+00  0.1448E+00
     -2.947  0.4163E+00  0.4161E+00  0.1665E+00  0.1662E+00
     -2.896  0.4140E+00  0.4142E+00  0.1878E+00  0.1875E+00
     -2.844  0.4022E+00  0.4023E+00  0.2085E+00  0.2082E+00
     -2.793  0.3999E+00  0.3998E+00  0.2291E+00  0.2288E+00
     -2.741  0.4194E+00  0.4190E+00  0.2507E+00  0.2504E+00
     -2.690  0.4599E+00  0.4594E+00  0.2744E+00  0.2741E+00
     -2.638  0.4862E+00  0.4860E+00  0.2994E+00  0.2991E+00
     -2.587  0.5049E+00  0.5046E+00  0.3254E+00  0.3251E+00
     -2.535  0.5411E+00  0.5406E+00  0.3533E+00  0.3529E+00
     -2.484  0.5758E+00  0.5756E+00  0.3829E+00  0.3826E+00
     -2.433  0.5810E+00  0.5812E+00  0.4129E+00  0.4125E+00
     -2.381  0.5464E+00  0.5470E+00  0.4410E+00  0.4407E+00
     -2.330  0.5092E+00  0.5094E+00  0.4672E+00  0.4669E+00
     -2.278  0.5149E+00  0.5146E+00  0.4937E+00  0.4934E+00
     -2.227  0.5559E+00  0.5552E+00  0.5224E+00  0.5220E+00
     -2.175  0.6284E+00  0.6273E+00  0.5547E+00  0.5543E+00
     -2.124  0.7158E+00  0.7149E+00  0.5916E+00  0.5911E+00
     -2.072  0.7604E+00  0.7603E+00  0.6308E+00  0.6303E+00
     -2.021  0.7443E+00  0.7448E+00  0.6691E+00  0.6687E+00
     -1.969  0.6989E+00  0.6995E+00  0.7051E+00  0.7047E+00
     -1.918  0.6702E+00  0.6705E+00  0.7396E+00  0.7392E+00
     -1.866  0.6805E+00  0.6802E+00  0.7747E+00  0.7742E+00
     -1.815  0.6921E+00  0.6922E+00  0.8103E+00  0.8099E+00
     -1.763  0.6672E+00  0.6676E+00  0.8447E+00  0.8443E+00
     -1.712  0.6520E+00  0.6519E+00  0.8783E+00  0.8779E+00
     -1.660  0.6999E+00  0.6991E+00  0.9143E+00  0.9139E+00
     -1.609  0.7570E+00  0.7567E+00  0.9533E+00  0.9528E+00
     -1.557  0.7484E+00  0.7489E+00  0.9918E+00  0.9914E+00
     -1.506  0.6950E+00  0.6956E+00  0.1028E+01  0.1027E+01
     -1.454  0.6888E+00  0.6884E+00  0.1063E+01  0.1063E+01
     -1.403  0.7506E+00  0.7499E+00  0.1102E+01  0.1101E+01
     -1.351  0.8117E+00  0.8112E+00  0.1144E+01  0.1143E+01
     -1.300  0.8364E+00  0.8364E+00  0.1187E+01  0.1186E+01
     -1.249  0.8110E+00  0.8117E+00  0.1228E+01  0.1228E+01
     -1.197  0.7457E+00  0.7464E+00  0.1267E+01  0.1266E+01
     -1.146  0.7143E+00  0.7142E+00  0.1304E+01  0.1303E+01
     -1.094  0.7372E+00  0.7368E+00  0.1342E+01  0.1341E+01
     -1.043  0.7711E+00  0.7708E+00  0.1381E+01  0.1381E+01
     -0.991  0.8068E+00  0.8063E+00  0.1423E+01  0.1422E+01
     -0.940  0.8611E+00  0.8604E+00  0.1467E+01  0.1467E+01
     -0.888  0.9326E+00  0.9319E+00  0.1515E+01  0.1515E+01
     -0.837  0.9648E+00  0.9648E+00  0.1565E+01  0.1564E+01
     -0.785  0.9357E+00  0.9363E+00  0.1613E+01  0.1613E+01
     -0.734  0.8735E+00  0.8743E+00  0.1658E+01  0.1658E+01
     -0.682  0.7940E+00  0.7950E+00  0.1699E+01  0.1699E+01
     -0.631  0.7321E+00  0.7325E+00  0.1737E+01  0.1736E+01
     -0.579  0.7438E+00  0.7432E+00  0.1775E+01  0.1775E+01
     -0.528  0.8317E+00  0.8306E+00  0.1818E+01  0.1817E+01
     -0.476  0.8823E+00  0.8821E+00  0.1863E+01  0.1863E+01
     -0.425  0.8888E+00  0.8885E+00  0.1909E+01  0.1909E+01
     -0.373  0.9563E+00  0.9551E+00  0.1958E+01  0.1958E+01
     -0.322  0.1072E+01  0.1071E+01  0.2014E+01  0.2013E+01
     -0.270  0.1163E+01  0.1162E+01  0.2074E+01  0.2073E+01
     -0.219  0.1194E+01  0.1194E+01  0.2135E+01  0.2134E+01
     -0.168  0.1143E+01  0.1144E+01  0.2194E+01  0.2193E+01
     -0.116  0.1071E+01  0.1072E+01  0.2249E+01  0.2248E+01
     -0.065  0.1049E+01  0.1049E+01  0.2303E+01  0.2302E+01
     -0.013  0.1027E+01  0.1028E+01  0.2356E+01  0.2355E+01
      0.038  0.9623E+00  0.9631E+00  0.2405E+01  0.2405E+01
      0.090  0.9378E+00  0.9376E+00  0.2454E+01  0.2453E+01
      0.141  0.1030E+01  0.1028E+01  0.2507E+01  0.2506E+01
      0.193  0.1125E+01  0.1125E+01  0.2565E+01  0.2564E+01
      0.244  0.1102E+01  0.1103E+01  0.2622E+01  0.2621E+01
      0.296  0.1039E+01  0.1039E+01  0.2675E+01  0.2674E+01
      0.347  0.1044E+01  0.1044E+01  0.2729E+01  0.2728E+01
      0.399  0.1100E+01  0.1099E+01  0.2785E+01  0.2785E+01
      0.450  0.1080E+01  0.1081E+01  0.2841E+01  0.2841E+01
      0.502  0.9311E+00  0.9331E+00  0.2889E+01  0.2889E+01
      0.553  0.7816E+00  0.7826E+00  0.2929E+01  0.2929E+01
      0.605  0.7525E+00  0.7521E+00  0.2968E+01  0.2968E+01
      0.656  0.8161E+00  0.8151E+00  0.3010E+01  0.3010E+01
      0.708  0.8797E+00  0.8791E+00  0.3055E+01  0.3055E+01
      0.759  0.9011E+00  0.9009E+00  0.3102E+01  0.3101E+01
      0.811  0.9110E+00  0.9108E+00  0.3149E+01  0.3148E+01
      0.862  0.9102E+00  0.9104E+00  0.3196E+01  0.3195E+01
      0.914  0.8768E+00  0.8773E+00  0.3241E+01  0.3240E+01
      0.965  0.8566E+00  0.8566E+00  0.3285E+01  0.3284E+01
      1.016  0.8953E+00  0.8943E+00  0.3331E+01  0.3331E+01
      1.068  0.9972E+00  0.9957E+00  0.3382E+01  0.3382E+01
      1.119  0.1120E+01  0.1119E+01  0.3440E+01  0.3439E+01
      1.171  0.1205E+01  0.1204E+01  0.3502E+01  0.3501E+01
      1.222  0.1263E+01  0.1262E+01  0.3567E+01  0.3566E+01
      1.274  0.1331E+01  0.1330E+01  0.3636E+01  0.3635E+01
      1.325  0.1385E+01  0.1384E+01  0.3707E+01  0.3706E+01
      1.377  0.1427E+01  0.1427E+01  0.3781E+01  0.3780E+01
      1.428  0.1400E+01  0.1401E+01  0.3853E+01  0.3852E+01
      1.480  0.1253E+01  0.1255E+01  0.3917E+01  0.3917E+01
      1.531  0.1108E+01  0.1109E+01  0.3974E+01  0.3974E+01
      1.583  0.1088E+01  0.1087E+01  0.4030E+01  0.4030E+01
      1.634  0.1154E+01  0.1153E+01  0.4090E+01  0.4089E+01
      1.686  0.1230E+01  0.1229E+01  0.4153E+01  0.4152E+01
      1.737  0.1284E+01  0.1284E+01  0.4219E+01  0.4218E+01
      1.789  0.1339E+01  0.1339E+01  0.4288E+01  0.4287E+01
      1.840  0.1412E+01  0.1411E+01  0.4361E+01  0.4360E+01
      1.892  0.1448E+01  0.1448E+01  0.4436E+01  0.4435E+01
      1.943  0.1432E+01  0.1432E+01  0.4509E+01  0.4508E+01
      1.995  0.1347E+01  0.1349E+01  0.4579E+01  0.4578E+01
      2.046  0.1204E+01  0.1206E+01  0.4641E+01  0.4640E+01
      2.098  0.1098E+01  0.1098E+01  0.4697E+01  0.4697E+01
      2.149  0.1088E+01  0.1087E+01  0.4753E+01  0.4753E+01
      2.200  0.1130E+01  0.1129E+01  0.4812E+01  0.4811E+01
      2.252  0.1191E+01  0.1190E+01  0.4873E+01  0.4872E+01
      2.303  0.1234E+01  0.1233E+01  0.4936E+01  0.4936E+01
      2.355  0.1231E+01  0.1231E+01  0.5000E+01  0.4999E+01
      2.406  0.1244E+01  0.1243E+01  0.5064E+01  0.5063E+01
      2.458  0.1295E+01  0.1295E+01  0.5131E+01  0.5130E+01
      2.509  0.1369E+01  0.1368E+01  0.5201E+01  0.5200E+01
      2.561  0.1413E+01  0.1413E+01  0.5274E+01  0.5273E+01
      2.612  0.1341E+01  0.1342E+01  0.5343E+01  0.5342E+01
      2.664  0.1207E+01  0.1208E+01  0.5405E+01  0.5404E+01
      2.715  0.1136E+01  0.1136E+01  0.5464E+01  0.5463E+01
      2.767  0.1199E+01  0.1198E+01  0.5525E+01  0.5524E+01
      2.818  0.1367E+01  0.1365E+01  0.5596E+01  0.5595E+01
      2.870  0.1533E+01  0.1531E+01  0.5675E+01  0.5674E+01
      2.921  0.1588E+01  0.1588E+01  0.5756E+01  0.5755E+01
      2.973  0.1503E+01  0.1504E+01  0.5834E+01  0.5833E+01
      3.024  0.1398E+01  0.1399E+01  0.5906E+01  0.5905E+01
      3.076  0.1394E+01  0.1393E+01  0.5978E+01  0.5977E+01
      3.127  0.1461E+01  0.1460E+01  0.6053E+01  0.6052E+01
      3.179  0.1541E+01  0.1540E+01  0.6132E+01  0.6131E+01
      3.230  0.1599E+01  0.1598E+01  0.6215E+01  0.6214E+01
      3.282  0.1626E+01  0.1626E+01  0.6298E+01  0.6297E+01
      3.333  0.1634E+01  0.1634E+01  0.6383E+01  0.6381E+01
      3.384  0.1672E+01  0.1671E+01  0.6469E+01  0.6468E+01
      3.436  0.1799E+01  0.1797E+01  0.6561E+01  0.6560E+01
      3.487  0.1973E+01  0.1971E+01  0.6663E+01  0.6662E+01
      3.539  0.2059E+01  0.2059E+01  0.6769E+01  0.6768E+01
      3.590  0.1971E+01  0.1972E+01  0.6870E+01  0.6869E+01
      3.642  0.1827E+01  0.1828E+01  0.6965E+01  0.6963E+01
      3.693  0.1722E+01  0.1723E+01  0.7053E+01  0.7052E+01
      3.745  0.1646E+01  0.1647E+01  0.7138E+01  0.7137E+01
      3.796  0.1575E+01  0.1576E+01  0.7219E+01  0.7218E+01
      3.848  0.1502E+01  0.1503E+01  0.7296E+01  0.7296E+01
      3.899  0.1479E+01  0.1478E+01  0.7373E+01  0.7372E+01
      3.951  0.1588E+01  0.1586E+01  0.7454E+01  0.7453E+01
      4.002  0.1832E+01  0.1829E+01  0.7549E+01  0.7548E+01
      4.054  0.2096E+01  0.2093E+01  0.7657E+01  0.7655E+01
      4.105  0.2256E+01  0.2255E+01  0.7773E+01  0.7772E+01
      4.157  0.2302E+01  0.2302E+01  0.7892E+01  0.7890E+01
      4.208  0.2355E+01  0.2354E+01  0.8013E+01  0.8011E+01
      4.260  0.2448E+01  0.2447E+01  0.8139E+01  0.8137E+01
      4.311  0.2463E+01  0.2464E+01  0.8266E+01  0.8264E+01
      4.363  0.2384E+01  0.2385E+01  0.8388E+01  0.8387E+01
      4.414  0.2261E+01  0.2263E+01  0.8505E+01  0.8504E+01
      4.466  0.2197E+01  0.2197E+01  0.8618E+01  0.8617E+01
      4.517  0.2255E+01  0.2254E+01  0.8734E+01  0.8733E+01
      4.568  0.2434E+01  0.2432E+01  0.8860E+01  0.8858E+01
      4.620  0.2705E+01  0.2703E+01  0.8999E+01  0.8997E+01
      4.671  0.2908E+01  0.2907E+01  0.9149E+01  0.9147E+01
      4.723  0.2938E+01  0.2938E+01  0.9300E+01  0.9298E+01
      4.774  0.2934E+01  0.2934E+01  0.9451E+01  0.9450E+01
      4.826  0.2983E+01  0.2983E+01  0.9605E+01  0.9603E+01
      4.877  0.3070E+01  0.3070E+01  0.9763E+01  0.9761E+01
      4.929  0.3283E+01  0.3281E+01  0.9932E+01  0.9930E+01
      4.980  0.3709E+01  0.3706E+01  0.1012E+02  0.1012E+02
      5.032  0.4162E+01  0.4160E+01  0.1034E+02  0.1034E+02
      5.083  0.4285E+01  0.4287E+01  0.1056E+02  0.1056E+02
      5.135  0.3917E+01  0.3923E+01  0.1076E+02  0.1076E+02
      5.186  0.3284E+01  0.3289E+01  0.1093E+02  0.1093E+02
      5.238  0.2773E+01  0.2776E+01  0.1107E+02  0.1107E+02
      5.289  0.2562E+01  0.2564E+01  0.1120E+02  0.1120E+02
      5.341  0.2565E+01  0.2566E+01  0.1134E+02  0.1133E+02
      5.392  0.2647E+01  0.2647E+01  0.1147E+02  0.1147E+02
      5.444  0.2763E+01  0.2763E+01  0.1161E+02  0.1161E+02
      5.495  0.2800E+01  0.2801E+01  0.1176E+02  0.1176E+02
      5.547  0.2738E+01  0.2739E+01  0.1190E+02  0.1190E+02
      5.598  0.2754E+01  0.2754E+01  0.1204E+02  0.1204E+02
      5.649  0.2887E+01  0.2888E+01  0.1219E+02  0.1219E+02
      5.701  0.2966E+01  0.2967E+01  0.1234E+02  0.1234E+02
      5.752  0.2881E+01  0.2882E+01  0.1249E+02  0.1249E+02
      5.804  0.2693E+01  0.2695E+01  0.1263E+02  0.1263E+02
      5.855  0.2428E+01  0.2430E+01  0.1276E+02  0.1275E+02
      5.907  0.2126E+01  0.2128E+01  0.1286E+02  0.1286E+02
      5.958  0.1911E+01  0.1912E+01  0.1296E+02  0.1296E+02
      6.010  0.1811E+01  0.1812E+01  0.1306E+02  0.1306E+02
      6.061  0.1784E+01  0.1784E+01  0.1315E+02  0.1315E+02
      6.113  0.1776E+01  0.1777E+01  0.1324E+02  0.1324E+02
      6.164  0.1728E+01  0.1728E+01  0.1333E+02  0.1333E+02
      6.216  0.1653E+01  0.1653E+01  0.1341E+02  0.1341E+02
      6.267  0.1577E+01  0.1578E+01  0.1350E+02  0.1350E+02
      6.319  0.1498E+01  0.1499E+01  0.1357E+02  0.1357E+02
      6.370  0.1460E+01  0.1461E+01  0.1365E+02  0.1365E+02
      6.422  0.1466E+01  0.1466E+01  0.1372E+02  0.1372E+02
      6.473  0.1446E+01  0.1447E+01  0.1380E+02  0.1380E+02
      6.525  0.1403E+01  0.1404E+01  0.1387E+02  0.1387E+02
      6.576  0.1321E+01  0.1321E+01  0.1394E+02  0.1394E+02
      6.628  0.1129E+01  0.1130E+01  0.1400E+02  0.1400E+02
      6.679  0.8778E+00  0.8796E+00  0.1404E+02  0.1404E+02
      6.731  0.7315E+00  0.7333E+00  0.1408E+02  0.1408E+02
      6.782  0.7598E+00  0.7597E+00  0.1412E+02  0.1412E+02
      6.833  0.8870E+00  0.8853E+00  0.1416E+02  0.1416E+02
      6.885  0.1062E+01  0.1060E+01  0.1422E+02  0.1422E+02
      6.936  0.1313E+01  0.1313E+01  0.1429E+02  0.1429E+02
      6.988  0.1698E+01  0.1699E+01  0.1437E+02  0.1437E+02
      7.039  0.2232E+01  0.2235E+01  0.1449E+02  0.1449E+02
      7.091  0.2819E+01  0.2824E+01  0.1463E+02  0.1463E+02
      7.142  0.3299E+01  0.3306E+01  0.1480E+02  0.1480E+02
      7.194  0.3619E+01  0.3635E+01  0.1499E+02  0.1499E+02
      7.245  0.3892E+01  0.3923E+01  0.1519E+02  0.1519E+02
      7.297  0.4313E+01  0.4356E+01  0.1541E+02  0.1542E+02
      7.348  0.4850E+01  0.4896E+01  0.1566E+02  0.1567E+02
      7.400  0.5261E+01  0.5319E+01  0.1593E+02  0.1594E+02
      7.451  0.5500E+01  0.5589E+01  0.1622E+02  0.1623E+02
      7.503  0.5681E+01  0.5795E+01  0.1651E+02  0.1653E+02
      7.554  0.5617E+01  0.5719E+01  0.1680E+02  0.1682E+02
      7.606  0.5040E+01  0.5107E+01  0.1706E+02  0.1709E+02
      7.657  0.4256E+01  0.4299E+01  0.1728E+02  0.1731E+02
      7.709  0.3674E+01  0.3710E+01  0.1747E+02  0.1750E+02
      7.760  0.3314E+01  0.3340E+01  0.1764E+02  0.1767E+02
      7.812  0.3079E+01  0.3090E+01  0.1780E+02  0.1783E+02
      7.863  0.2985E+01  0.2982E+01  0.1795E+02  0.1799E+02
      7.915  0.2985E+01  0.2969E+01  0.1810E+02  0.1814E+02
      7.966  0.2847E+01  0.2825E+01  0.1825E+02  0.1828E+02
      8.017  0.2538E+01  0.2519E+01  0.1838E+02  0.1841E+02
      8.069  0.2279E+01  0.2279E+01  0.1850E+02  0.1853E+02
      8.120  0.2241E+01  0.2268E+01  0.1861E+02  0.1865E+02
      8.172  0.2338E+01  0.2383E+01  0.1873E+02  0.1877E+02
      8.223  0.2377E+01  0.2424E+01  0.1886E+02  0.1890E+02
      8.275  0.2327E+01  0.2367E+01  0.1898E+02  0.1902E+02
      8.326  0.2229E+01  0.2269E+01  0.1909E+02  0.1913E+02
      8.378  0.2116E+01  0.2167E+01  0.1920E+02  0.1925E+02
      8.429  0.1972E+01  0.2020E+01  0.1930E+02  0.1935E+02
      8.481  0.1749E+01  0.1777E+01  0.1939E+02  0.1944E+02
      8.532  0.1444E+01  0.1449E+01  0.1947E+02  0.1952E+02
      8.584  0.1145E+01  0.1137E+01  0.1953E+02  0.1958E+02
      8.635  0.9287E+00  0.9216E+00  0.1957E+02  0.1962E+02
      8.687  0.8100E+00  0.8107E+00  0.1962E+02  0.1966E+02
      8.738  0.7572E+00  0.7633E+00  0.1965E+02  0.1970E+02
      8.790  0.7389E+00  0.7356E+00  0.1969E+02  0.1974E+02
      8.841  0.7108E+00  0.6937E+00  0.1973E+02  0.1978E+02
      8.893  0.6554E+00  0.6278E+00  0.1976E+02  0.1981E+02
      8.944  0.5976E+00  0.5594E+00  0.1979E+02  0.1984E+02
      8.996  0.5469E+00  0.5205E+00  0.1982E+02  0.1987E+02
      9.047  0.5035E+00  0.4880E+00  0.1985E+02  0.1989E+02
      9.099  0.4424E+00  0.4298E+00  0.1987E+02  0.1991E+02
      9.150  0.3794E+00  0.3671E+00  0.1989E+02  0.1993E+02
      9.201  0.3476E+00  0.3239E+00  0.1991E+02  0.1995E+02
      9.253  0.3076E+00  0.2614E+00  0.1992E+02  0.1996E+02
      9.304  0.2457E+00  0.1732E+00  0.1994E+02  0.1997E+02
      9.356  0.1925E+00  0.1104E+00  0.1995E+02  0.1998E+02
      9.407  0.1497E+00  0.9143E-01  0.1995E+02  0.1998E+02
      9.459  0.1207E+00  0.9714E-01  0.1996E+02  0.1999E+02
      9.510  0.1108E+00  0.1020E+00  0.1997E+02  0.1999E+02
      9.562  0.9531E-01  0.8208E-01  0.1997E+02  0.2000E+02
      9.613  0.6027E-01  0.4633E-01  0.1997E+02  0.2000E+02
      9.665  0.3001E-01  0.2037E-01  0.1998E+02  0.2000E+02
      9.716  0.1661E-01  0.7901E-02  0.1998E+02  0.2000E+02
      9.768  0.1718E-01  0.2912E-02  0.1998E+02  0.2000E+02
      9.819  0.2711E-01  0.1001E-02  0.1998E+02  0.2000E+02
      9.871  0.3569E-01  0.3590E-03  0.1998E+02  0.2000E+02
      9.922  0.3286E-01  0.0000E+00  0.1998E+02  0.2000E+02
      9.974  0.2837E-01  0.0000E+00  0.1998E+02  0.2000E+02
     10.025  0.3211E-01  0.0000E+00  0.1999E+02  0.2000E+02
     10.077  0.3562E-01  0.0000E+00  0.1999E+02  0.2000E+02
     10.128  0.2753E-01  0.0000E+00  0.1999E+02  0.2000E+02
     10.180  0.1524E-01  0.0000E+00  0.1999E+02  0.2000E+02
     10.231  0.8396E-02  0.0000E+00  0.1999E+02  0.2000E+02
     10.283  0.8458E-02  0.0000E+00  0.1999E+02  0.2000E+02
     10.334  0.1609E-01  0.0000E+00  0.1999E+02  0.2000E+02
     10.385  0.3174E-01  0.0000E+00  0.1999E+02  0.2000E+02
     10.437  0.4674E-01  0.0000E+00  0.2000E+02  0.2000E+02
     10.488  0.4458E-01  0.0000E+00  0.2000E+02  0.2000E+02
     10.540  0.2799E-01  0.0000E+00  0.2000E+02  0.2000E+02
     10.591  0.1307E-01  0.0000E+00  0.2000E+02  0.2000E+02
     10.643  0.5214E-02  0.0000E+00  0.2000E+02  0.2000E+02
     10.694  0.1942E-02  0.0000E+00  0.2000E+02  0.2000E+02
     10.746  0.7041E-03  0.0000E+00  0.2000E+02  0.2000E+02
     10.797  0.2529E-03  0.0000E+00  0.2000E+02  0.2000E+02
     10.849  0.4546E-04  0.0000E+00  0.2000E+02  0.2000E+02
     10.900  0.0000E+00  0.0000E+00  0.2000E+02  0.2000E+02
     10.952  0.0000E+00  0.0000E+00  0.2000E+02  0.2000E+02
     11.003  0.0000E+00  0.0000E+00  0.2000E+02  0.2000E+02
     11.055  0.0000E+00  0.0000E+00  0.2000E+02  0.2000E+02
     11.106  0.0000E+00  0.0000E+00  0.2000E+02  0.2000E+02
     11.158  0.0000E+00  0.0000E+00  0.2000E+02  0.2000E+02
     11.15763450     -4.28573530  301      5.97851949      1.00000000
     -4.286  0.0000E+00  0.0000E+00  0.0000E+00  0.0000E+00  0.0000E+00  0.0000E+00  0.0000E+00  0.0000E+00  0.0000E+00  0.0000E+00  0.0000E+00  0.0000E+00  0.0000E+00  0.0000E+00  0.0000E+00  0.0000E+00  0.0000E+00  0.0000E+00
     -4.234  0.0000E+00  0.0000E+00  0.0000E+00  0.0000E+00  0.0000E+00  0.0000E+00  0.0000E+00  0.0000E+00  0.0000E+00  0.0000E+00  0.0000E+00  0.0000E+00  0.0000E+00  0.0000E+00  0.0000E+00  0.0000E+00  0.0000E+00  0.0000E+00
     -4.183  0.0000E+00  0.0000E+00  0.0000E+00  0.0000E+00  0.0000E+00  0.0000E+00  0.0000E+00  0.0000E+00  0.0000E+00  0.0000E+00  0.0000E+00  0.0000E+00  0.0000E+00  0.0000E+00  0.0000E+00  0.0000E+00  0.0000E+00  0.0000E+00
     -4.131  0.0000E+00  0.0000E+00  0.0000E+00  0.0000E+00  0.0000E+00  0.0000E+00  0.0000E+00  0.0000E+00  0.0000E+00  0.0000E+00  0.0000E+00  0.0000E+00  0.0000E+00  0.0000E+00  0.0000E+00  0.0000E+00  0.0000E+00  0.0000E+00
     -4.080  0.0000E+00  0.0000E+00  0.0000E+00  0.0000E+00  0.0000E+00  0.0000E+00  0.0000E+00  0.0000E+00  0.0000E+00  0.0000E+00  0.0000E+00  0.0000E+00  0.0000E+00  0.0000E+00  0.0000E+00  0.0000E+00  0.0000E+00  0.0000E+00
     -4.028  0.1206E-06  0.1190E-06  0.2112E-21  0.1805E-22  0.1068E-18  0.2227E-20  0.2112E-21  0.1805E-22  0.1155E-22  0.9438E-23  0.5724E-22  0.1435E-21  0.9878E-11  0.9622E-11  0.5724E-22  0.1435E-21  0.1079E-21  0.3735E-20
     -3.977  0.9517E-06  0.9395E-06  0.1896E-08  0.1871E-08  0.2243E-08  0.2215E-08  0.1896E-08  0.1871E-08  0.1248E-21  0.1450E-21  0.1429E-20  0.1220E-20  0.8911E-10  0.8700E-10  0.1429E-20  0.1220E-20  0.9385E-11  0.9247E-11
     -3.925  0.3022E-05  0.2983E-05  0.8310E-08  0.8201E-08  0.1205E-07  0.1190E-07  0.8310E-08  0.8201E-08  0.5172E-21  0.1379E-20  0.6605E-10  0.6497E-10  0.2523E-09  0.2463E-09  0.6605E-10  0.6497E-10  0.4110E-10  0.4053E-10
     -3.874  0.9616E-05  0.9493E-05  0.3656E-07  0.3608E-07  0.3997E-07  0.3946E-07  0.3656E-07  0.3608E-07  0.3668E-09  0.3621E-09  0.2377E-09  0.2339E-09  0.1017E-08  0.9942E-09  0.2377E-09  0.2339E-09  0.9081E-10  0.8952E-10
     -3.822  0.2543E-04  0.2510E-04  0.8785E-07  0.8669E-07  0.1230E-06  0.1214E-06  0.8785E-07  0.8669E-07  0.6597E-09  0.6513E-09  0.7588E-09  0.7470E-09  0.2468E-08  0.2412E-08  0.7588E-09  0.7470E-09  0.2725E-09  0.2687E-09
     -3.771  0.7063E-04  0.6974E-04  0.2566E-06  0.2532E-06  0.3175E-06  0.3135E-06  0.2566E-06  0.2532E-06  0.1844E-08  0.1821E-08  0.1908E-08  0.1878E-08  0.7247E-08  0.7084E-08  0.1908E-08  0.1878E-08  0.1042E-08  0.1027E-08
     -3.719  0.1984E-03  0.1960E-03  0.7895E-06  0.7792E-06  0.9597E-06  0.9477E-06  0.7895E-06  0.7792E-06  0.6661E-08  0.6577E-08  0.6936E-08  0.6830E-08  0.2115E-07  0.2069E-07  0.6936E-08  0.6830E-08  0.3675E-08  0.3624E-08
     -3.668  0.5245E-03  0.5183E-03  0.2157E-05  0.2130E-05  0.2586E-05  0.2555E-05  0.2157E-05  0.2130E-05  0.1990E-07  0.1966E-07  0.1882E-07  0.1853E-07  0.5698E-07  0.5576E-07  0.1882E-07  0.1853E-07  0.9791E-08  0.9658E-08
     -3.617  0.1287E-02  0.1273E-02  0.5639E-05  0.5571E-05  0.6840E-05  0.6761E-05  0.5639E-05  0.5571E-05  0.5145E-07  0.5083E-07  0.5235E-07  0.5157E-07  0.1424E-06  0.1395E-06  0.5235E-07  0.5157E-07  0.2584E-07  0.2550E-07
     -3.565  0.2752E-02  0.2729E-02  0.1375E-04  0.1360E-04  0.1649E-04  0.1633E-04  0.1375E-04  0.1360E-04  0.1390E-06  0.1375E-06  0.1388E-06  0.1369E-06  0.3207E-06  0.3148E-06  0.1388E-06  0.1369E-06  0.6399E-07  0.6325E-07
     -3.514  0.4845E-02  0.4817E-02  0.2886E-04  0.2861E-04  0.3493E-04  0.3463E-04  0.2886E-04  0.2861E-04  0.3338E-06  0.3304E-06  0.3261E-06  0.3221E-06  0.6148E-06  0.6053E-06  0.3261E-06  0.3221E-06  0.1441E-06  0.1426E-06
     -3.462  0.6948E-02  0.6925E-02  0.5113E-04  0.5079E-04  0.6474E-04  0.6430E-04  0.5113E-04  0.5079E-04  0.6876E-06  0.6821E-06  0.6890E-06  0.6816E-06  0.1005E-05  0.9914E-06  0.6890E-06  0.6816E-06  0.3083E-06  0.3052E-06
     -3.411  0.8618E-02  0.8599E-02  0.8130E-04  0.8083E-04  0.1058E-03  0.1052E-03  0.8130E-04  0.8083E-04  0.1253E-05  0.1244E-05  0.1315E-05  0.1303E-05  0.1527E-05  0.1509E-05  0.1315E-05  0.1303E-05  0.6512E-06  0.6448E-06
     -3.359  0.1028E-01  0.1026E-01  0.1264E-03  0.1256E-03  0.1540E-03  0.1534E-03  0.1264E-03  0.1256E-03  0.2238E-05  0.2222E-05  0.2308E-05  0.2290E-05  0.2385E-05  0.2358E-05  0.2308E-05  0.2290E-05  0.1266E-05  0.1255E-05
     -3.308  0.1211E-01  0.1209E-01  0.1847E-03  0.1840E-03  0.2056E-03  0.2049E-03  0.1847E-03  0.1840E-03  0.3919E-05  0.3895E-05  0.3731E-05  0.3706E-05  0.3614E-05  0.3579E-05  0.3731E-05  0.3706E-05  0.2010E-05  0.2000E-05
     -3.256  0.1323E-01  0.1322E-01  0.2319E-03  0.2314E-03  0.2711E-03  0.2701E-03  0.2319E-03  0.2314E-03  0.5875E-05  0.5852E-05  0.5641E-05  0.5606E-05  0.4733E-05  0.4700E-05  0.5641E-05  0.5606E-05  0.2583E-05  0.2575E-05
     -3.205  0.1357E-01  0.1357E-01  0.2619E-03  0.2614E-03  0.3657E-03  0.3644E-03  0.2619E-03  0.2614E-03  0.7807E-05  0.7779E-05  0.8337E-05  0.8290E-05  0.5566E-05  0.5533E-05  0.8337E-05  0.8290E-05  0.3076E-05  0.3067E-05
     -3.153  0.1406E-01  0.1405E-01  0.3085E-03  0.3075E-03  0.4564E-03  0.4556E-03  0.3085E-03  0.3075E-03  0.1089E-04  0.1083E-04  0.1152E-04  0.1146E-04  0.6957E-05  0.6908E-05  0.1152E-04  0.1146E-04  0.4101E-05  0.4079E-05
     -3.102  0.1465E-01  0.1465E-01  0.3864E-03  0.3852E-03  0.4941E-03  0.4939E-03  0.3864E-03  0.3852E-03  0.1497E-04  0.1493E-04  0.1429E-04  0.1425E-04  0.9579E-05  0.9511E-05  0.1429E-04  0.1425E-04  0.6448E-05  0.6406E-05
     -3.050  0.1553E-01  0.1551E-01  0.4892E-03  0.4877E-03  0.5363E-03  0.5353E-03  0.4892E-03  0.4877E-03  0.1889E-04  0.1884E-04  0.1809E-04  0.1800E-04  0.1333E-04  0.1324E-04  0.1809E-04  0.1800E-04  0.1038E-04  0.1032E-04
     -2.999  0.1731E-01  0.1729E-01  0.6023E-03  0.6009E-03  0.6840E-03  0.6817E-03  0.6023E-03  0.6009E-03  0.2371E-04  0.2365E-04  0.2527E-04  0.2515E-04  0.1752E-04  0.1742E-04  0.2527E-04  0.2515E-04  0.1426E-04  0.1422E-04
     -2.947  0.1859E-01  0.1858E-01  0.6720E-03  0.6714E-03  0.8800E-03  0.8781E-03  0.6720E-03  0.6714E-03  0.2959E-04  0.2952E-04  0.3336E-04  0.3325E-04  0.2087E-04  0.2079E-04  0.3336E-04  0.3325E-04  0.1591E-04  0.1590E-04
     -2.896  0.1819E-01  0.1820E-01  0.6959E-03  0.6954E-03  0.9830E-03  0.9826E-03  0.6959E-03  0.6954E-03  0.3757E-04  0.3745E-04  0.3868E-04  0.3860E-04  0.2331E-04  0.2323E-04  0.3868E-04  0.3860E-04  0.1575E-04  0.1575E-04
     -2.844  0.1739E-01  0.1740E-01  0.7389E-03  0.7381E-03  0.9943E-03  0.9944E-03  0.7389E-03  0.7381E-03  0.5014E-04  0.4998E-04  0.4382E-04  0.4371E-04  0.2560E-04  0.2552E-04  0.4382E-04  0.4371E-04  0.1552E-04  0.1551E-04
     -2.793  0.1696E-01  0.1697E-01  0.7935E-03  0.7927E-03  0.1051E-02  0.1050E-02  0.7935E-03  0.7927E-03  0.5994E-04  0.5988E-04  0.5369E-04  0.5349E-04  0.2729E-04  0.2722E-04  0.5369E-04  0.5349E-04  0.1668E-04  0.1664E-04
     -2.741  0.1738E-01  0.1737E-01  0.8688E-03  0.8673E-03  0.1248E-02  0.1245E-02  0.8688E-03  0.8673E-03  0.6267E-04  0.6265E-04  0.6966E-04  0.6941E-04  0.3039E-04  0.3027E-04  0.6966E-04  0.6941E-04  0.2204E-04  0.2193E-04
     -2.690  0.1867E-01  0.1866E-01  0.1010E-02  0.1008E-02  0.1467E-02  0.1466E-02  0.1010E-02  0.1008E-02  0.6645E-04  0.6637E-04  0.8349E-04  0.8334E-04  0.3897E-04  0.3876E-04  0.8349E-04  0.8334E-04  0.3301E-04  0.3284E-04
     -2.638  0.1940E-01  0.1940E-01  0.1163E-02  0.1161E-02  0.1562E-02  0.1562E-02  0.1163E-02  0.1161E-02  0.7556E-04  0.7539E-04  0.8625E-04  0.8621E-04  0.5249E-04  0.5224E-04  0.8625E-04  0.8621E-04  0.4573E-04  0.4557E-04
     -2.587  0.1974E-01  0.1974E-01  0.1303E-02  0.1302E-02  0.1654E-02  0.1652E-02  0.1303E-02  0.1302E-02  0.9579E-04  0.9544E-04  0.9196E-04  0.9174E-04  0.6542E-04  0.6520E-04  0.9196E-04  0.9174E-04  0.5403E-04  0.5395E-04
     -2.535  0.2074E-01  0.2073E-01  0.1462E-02  0.1460E-02  0.1861E-02  0.1858E-02  0.1462E-02  0.1460E-02  0.1271E-03  0.1267E-03  0.1172E-03  0.1168E-03  0.7217E-04  0.7203E-04  0.1172E-03  0.1168E-03  0.5705E-04  0.5701E-04
     -2.484  0.2166E-01  0.2166E-01  0.1600E-02  0.1599E-02  0.2097E-02  0.2095E-02  0.1600E-02  0.1599E-02  0.1555E-03  0.1552E-03  0.1506E-03  0.1502E-03  0.7476E-04  0.7463E-04  0.1506E-03  0.1502E-03  0.5869E-04  0.5865E-04
     -2.433  0.2137E-01  0.2139E-01  0.1631E-02  0.1632E-02  0.2306E-02  0.2304E-02  0.1631E-02  0.1632E-02  0.1705E-03  0.1704E-03  0.1746E-03  0.1743E-03  0.7705E-04  0.7695E-04  0.1746E-03  0.1743E-03  0.5831E-04  0.5831E-04
     -2.381  0.1953E-01  0.1956E-01  0.1532E-02  0.1534E-02  0.2426E-02  0.2426E-02  0.1532E-02  0.1534E-02  0.1675E-03  0.1675E-03  0.1862E-03  0.1860E-03  0.7480E-04  0.7478E-04  0.1862E-03  0.1860E-03  0.5511E-04  0.5513E-04
     -2.330  0.1755E-01  0.1757E-01  0.1453E-02  0.1453E-02  0.2499E-02  0.2498E-02  0.1453E-02  0.1453E-02  0.1647E-03  0.1645E-03  0.1970E-03  0.1967E-03  0.7034E-04  0.7029E-04  0.1970E-03  0.1967E-03  0.5476E-04  0.5472E-04
     -2.278  0.1701E-01  0.1701E-01  0.1510E-02  0.1509E-02  0.2772E-02  0.2769E-02  0.1510E-02  0.1509E-02  0.1855E-03  0.1851E-03  0.2195E-03  0.2191E-03  0.7601E-04  0.7578E-04  0.2195E-03  0.2191E-03  0.5904E-04  0.5894E-04
     -2.227  0.1764E-01  0.1763E-01  0.1697E-02  0.1693E-02  0.3187E-02  0.3183E-02  0.1697E-02  0.1693E-02  0.2284E-03  0.2277E-03  0.2464E-03  0.2460E-03  0.9793E-04  0.9747E-04  0.2464E-03  0.2460E-03  0.7116E-04  0.7090E-04
     -2.175  0.1944E-01  0.1941E-01  0.2082E-02  0.2077E-02  0.3544E-02  0.3540E-02  0.2082E-02  0.2077E-02  0.2860E-03  0.2852E-03  0.2815E-03  0.2809E-03  0.1309E-03  0.1304E-03  0.2815E-03  0.2809E-03  0.1012E-03  0.1007E-03
     -2.124  0.2166E-01  0.2164E-01  0.2527E-02  0.2522E-02  0.3986E-02  0.3981E-02  0.2527E-02  0.2522E-02  0.3294E-03  0.3290E-03  0.3393E-03  0.3385E-03  0.1575E-03  0.1571E-03  0.3393E-03  0.3385E-03  0.1398E-03  0.1394E-03
     -2.072  0.2220E-01  0.2221E-01  0.2724E-02  0.2723E-02  0.4491E-02  0.4488E-02  0.2724E-02  0.2723E-02  0.3409E-03  0.3408E-03  0.3970E-03  0.3963E-03  0.1637E-03  0.1636E-03  0.3970E-03  0.3963E-03  0.1614E-03  0.1613E-03
     -2.021  0.2093E-01  0.2095E-01  0.2697E-02  0.2698E-02  0.4661E-02  0.4663E-02  0.2697E-02  0.2698E-02  0.3508E-03  0.3505E-03  0.4280E-03  0.4277E-03  0.1556E-03  0.1556E-03  0.4280E-03  0.4277E-03  0.1624E-03  0.1624E-03
     -1.969  0.1913E-01  0.1915E-01  0.2619E-02  0.2620E-02  0.4433E-02  0.4437E-02  0.2619E-02  0.2620E-02  0.3736E-03  0.3731E-03  0.4444E-03  0.4440E-03  0.1453E-03  0.1453E-03  0.4444E-03  0.4440E-03  0.1562E-03  0.1563E-03
     -1.918  0.1777E-01  0.1779E-01  0.2577E-02  0.2578E-02  0.4350E-02  0.4350E-02  0.2577E-02  0.2578E-02  0.4114E-03  0.4108E-03  0.4862E-03  0.4853E-03  0.1366E-03  0.1366E-03  0.4862E-03  0.4853E-03  0.1477E-03  0.1478E-03
     -1.866  0.1725E-01  0.1726E-01  0.2622E-02  0.2621E-02  0.4688E-02  0.4685E-02  0.2622E-02  0.2621E-02  0.4628E-03  0.4620E-03  0.5654E-03  0.5643E-03  0.1330E-03  0.1328E-03  0.5654E-03  0.5643E-03  0.1421E-03  0.1421E-03
     -1.815  0.1690E-01  0.1691E-01  0.2675E-02  0.2675E-02  0.4983E-02  0.4983E-02  0.2675E-02  0.2675E-02  0.5139E-03  0.5132E-03  0.6362E-03  0.6355E-03  0.1385E-03  0.1383E-03  0.6362E-03  0.6355E-03  0.1391E-03  0.1391E-03
     -1.763  0.1594E-01  0.1596E-01  0.2631E-02  0.2631E-02  0.4839E-02  0.4844E-02  0.2631E-02  0.2631E-02  0.5655E-03  0.5643E-03  0.6652E-03  0.6649E-03  0.1454E-03  0.1451E-03  0.6652E-03  0.6649E-03  0.1294E-03  0.1295E-03
     -1.712  0.1536E-01  0.1537E-01  0.2718E-02  0.2715E-02  0.4562E-02  0.4565E-02  0.2718E-02  0.2715E-02  0.6580E-03  0.6564E-03  0.6911E-03  0.6904E-03  0.1557E-03  0.1554E-03  0.6911E-03  0.6904E-03  0.1287E-03  0.1285E-03