   8   8   1   0
  0.1320460E+02  0.3611748E-09  0.3611748E-09  0.8098045E-09  0.5000000E-15
  1.000000000000000E-004
  CAR 
 unknown system                          
     13.99286272     -3.36860813  301      8.45245706      1.00000000
     -3.369  0.0000E+00  0.0000E+00  0.0000E+00  0.0000E+00
     -3.311  0.0000E+00  0.0000E+00  0.0000E+00  0.0000E+00
     -3.253  0.0000E+00  0.0000E+00  0.0000E+00  0.0000E+00
     -3.195  0.0000E+00  0.0000E+00  0.0000E+00  0.0000E+00
     -3.137  0.0000E+00  0.0000E+00  0.0000E+00  0.0000E+00
     -3.079  0.0000E+00  0.0000E+00  0.0000E+00  0.0000E+00
     -3.021  0.2118E-05  0.2089E-05  0.1226E-06  0.1209E-06
     -2.964  0.1654E-04  0.1631E-04  0.1080E-05  0.1065E-05
     -2.906  0.5727E-04  0.5647E-04  0.4394E-05  0.4333E-05
     -2.848  0.1985E-03  0.1957E-03  0.1588E-04  0.1566E-04
     -2.790  0.5950E-03  0.5868E-03  0.5031E-04  0.4962E-04
     -2.732  0.1905E-02  0.1879E-02  0.1605E-03  0.1583E-03
     -2.674  0.5795E-02  0.5720E-02  0.4959E-03  0.4894E-03
     -2.616  0.1614E-01  0.1596E-01  0.1430E-02  0.1413E-02
     -2.558  0.3838E-01  0.3803E-01  0.3651E-02  0.3614E-02
     -2.501  0.7300E-01  0.7255E-01  0.7876E-02  0.7812E-02
     -2.443  0.1086E+00  0.1082E+00  0.1416E-01  0.1408E-01
     -2.385  0.1333E+00  0.1330E+00  0.2187E-01  0.2177E-01
     -2.327  0.1557E+00  0.1553E+00  0.3088E-01  0.3076E-01
     -2.269  0.1901E+00  0.1897E+00  0.4189E-01  0.4174E-01
     -2.211  0.2209E+00  0.2207E+00  0.5467E-01  0.5451E-01
     -2.153  0.2281E+00  0.2281E+00  0.6787E-01  0.6771E-01
     -2.095  0.2319E+00  0.2317E+00  0.8129E-01  0.8112E-01
     -2.038  0.2477E+00  0.2475E+00  0.9563E-01  0.9545E-01
     -1.980  0.2565E+00  0.2564E+00  0.1105E+00  0.1103E+00
     -1.922  0.2734E+00  0.2731E+00  0.1263E+00  0.1261E+00
     -1.864  0.3225E+00  0.3219E+00  0.1450E+00  0.1447E+00
     -1.806  0.3575E+00  0.3574E+00  0.1657E+00  0.1654E+00
     -1.748  0.3464E+00  0.3466E+00  0.1857E+00  0.1855E+00
     -1.690  0.3308E+00  0.3309E+00  0.2049E+00  0.2047E+00
     -1.632  0.3236E+00  0.3236E+00  0.2236E+00  0.2234E+00
     -1.575  0.3293E+00  0.3291E+00  0.2427E+00  0.2425E+00
     -1.517  0.3682E+00  0.3676E+00  0.2640E+00  0.2637E+00
     -1.459  0.4017E+00  0.4015E+00  0.2873E+00  0.2870E+00
     -1.401  0.4045E+00  0.4044E+00  0.3107E+00  0.3104E+00
     -1.343  0.4266E+00  0.4262E+00  0.3354E+00  0.3351E+00
     -1.285  0.4687E+00  0.4682E+00  0.3625E+00  0.3622E+00
     -1.227  0.4967E+00  0.4965E+00  0.3913E+00  0.3909E+00
     -1.169  0.4931E+00  0.4934E+00  0.4198E+00  0.4195E+00
     -1.112  0.4447E+00  0.4454E+00  0.4456E+00  0.4453E+00
     -1.054  0.4051E+00  0.4053E+00  0.4690E+00  0.4687E+00
     -0.996  0.4182E+00  0.4179E+00  0.4932E+00  0.4929E+00
     -0.938  0.4507E+00  0.4502E+00  0.5193E+00  0.5190E+00
     -0.880  0.5103E+00  0.5093E+00  0.5489E+00  0.5485E+00
     -0.822  0.6017E+00  0.6006E+00  0.5837E+00  0.5833E+00
     -0.764  0.6552E+00  0.6549E+00  0.6217E+00  0.6212E+00
     -0.707  0.6458E+00  0.6462E+00  0.6591E+00  0.6586E+00
     -0.649  0.5997E+00  0.6004E+00  0.6938E+00  0.6934E+00
     -0.591  0.5602E+00  0.5604E+00  0.7262E+00  0.7258E+00
     -0.533  0.5628E+00  0.5624E+00  0.7588E+00  0.7584E+00
     -0.475  0.5947E+00  0.5945E+00  0.7932E+00  0.7928E+00
     -0.417  0.5899E+00  0.5903E+00  0.8274E+00  0.8270E+00
     -0.359  0.5398E+00  0.5403E+00  0.8587E+00  0.8583E+00
     -0.301  0.5390E+00  0.5384E+00  0.8899E+00  0.8895E+00
     -0.244  0.6133E+00  0.6123E+00  0.9254E+00  0.9249E+00
     -0.186  0.6541E+00  0.6541E+00  0.9633E+00  0.9628E+00
     -0.128  0.6155E+00  0.6163E+00  0.9989E+00  0.9985E+00
     -0.070  0.5632E+00  0.5636E+00  0.1032E+01  0.1031E+01
     -0.012  0.5732E+00  0.5726E+00  0.1065E+01  0.1064E+01
      0.046  0.6412E+00  0.6403E+00  0.1102E+01  0.1101E+01
      0.104  0.7043E+00  0.7038E+00  0.1143E+01  0.1142E+01
      0.162  0.7305E+00  0.7306E+00  0.1185E+01  0.1184E+01
      0.219  0.7013E+00  0.7021E+00  0.1226E+01  0.1225E+01
      0.277  0.6228E+00  0.6238E+00  0.1262E+01  0.1261E+01
      0.335  0.5723E+00  0.5725E+00  0.1295E+01  0.1294E+01
      0.393  0.5932E+00  0.5926E+00  0.1329E+01  0.1329E+01
      0.451  0.6390E+00  0.6385E+00  0.1366E+01  0.1366E+01
      0.509  0.6583E+00  0.6584E+00  0.1404E+01  0.1404E+01
      0.567  0.6456E+00  0.6456E+00  0.1442E+01  0.1441E+01
      0.625  0.7129E+00  0.7113E+00  0.1483E+01  0.1482E+01
      0.682  0.8619E+00  0.8605E+00  0.1533E+01  0.1532E+01
      0.740  0.8781E+00  0.8791E+00  0.1584E+01  0.1583E+01
      0.798  0.7764E+00  0.7775E+00  0.1629E+01  0.1628E+01
      0.856  0.7401E+00  0.7401E+00  0.1671E+01  0.1671E+01
      0.914  0.7439E+00  0.7441E+00  0.1715E+01  0.1714E+01
      0.972  0.7106E+00  0.7110E+00  0.1756E+01  0.1755E+01
      1.030  0.6952E+00  0.6950E+00  0.1796E+01  0.1795E+01
      1.088  0.7451E+00  0.7444E+00  0.1839E+01  0.1839E+01
      1.145  0.7885E+00  0.7883E+00  0.1885E+01  0.1884E+01
      1.203  0.8034E+00  0.8030E+00  0.1931E+01  0.1931E+01
      1.261  0.8533E+00  0.8526E+00  0.1981E+01  0.1980E+01
      1.319  0.9176E+00  0.9171E+00  0.2034E+01  0.2033E+01
      1.377  0.9517E+00  0.9515E+00  0.2089E+01  0.2088E+01
      1.435  0.9764E+00  0.9761E+00  0.2145E+01  0.2145E+01
      1.493  0.1019E+01  0.1019E+01  0.2204E+01  0.2204E+01
      1.550  0.1010E+01  0.1011E+01  0.2263E+01  0.2262E+01
      1.608  0.9289E+00  0.9299E+00  0.2317E+01  0.2316E+01
      1.666  0.8704E+00  0.8710E+00  0.2367E+01  0.2367E+01
      1.724  0.8659E+00  0.8657E+00  0.2417E+01  0.2417E+01
      1.782  0.9188E+00  0.9178E+00  0.2471E+01  0.2470E+01
      1.840  0.1005E+01  0.1004E+01  0.2529E+01  0.2528E+01
      1.898  0.9949E+00  0.9956E+00  0.2586E+01  0.2586E+01
      1.956  0.9494E+00  0.9496E+00  0.2641E+01  0.2641E+01
      2.013  0.9765E+00  0.9757E+00  0.2698E+01  0.2697E+01
      2.071  0.1040E+01  0.1039E+01  0.2758E+01  0.2757E+01
      2.129  0.1018E+01  0.1019E+01  0.2817E+01  0.2816E+01
      2.187  0.8749E+00  0.8771E+00  0.2868E+01  0.2867E+01
      2.245  0.7011E+00  0.7029E+00  0.2908E+01  0.2908E+01
      2.303  0.6085E+00  0.6087E+00  0.2944E+01  0.2943E+01
      2.361  0.6538E+00  0.6526E+00  0.2981E+01  0.2981E+01
      2.419  0.7414E+00  0.7406E+00  0.3024E+01  0.3024E+01
      2.476  0.7747E+00  0.7744E+00  0.3069E+01  0.3069E+01
      2.534  0.7895E+00  0.7890E+00  0.3115E+01  0.3114E+01
      2.592  0.8300E+00  0.8293E+00  0.3163E+01  0.3162E+01
      2.650  0.8435E+00  0.8438E+00  0.3212E+01  0.3211E+01
      2.708  0.7720E+00  0.7731E+00  0.3257E+01  0.3256E+01
      2.766  0.6982E+00  0.6987E+00  0.3297E+01  0.3296E+01
      2.824  0.7164E+00  0.7156E+00  0.3338E+01  0.3338E+01
      2.882  0.8132E+00  0.8120E+00  0.3386E+01  0.3385E+01
      2.939  0.8657E+00  0.8655E+00  0.3436E+01  0.3435E+01
      2.997  0.8683E+00  0.8683E+00  0.3486E+01  0.3485E+01
      3.055  0.8806E+00  0.8804E+00  0.3537E+01  0.3536E+01
      3.113  0.9368E+00  0.9356E+00  0.3591E+01  0.3590E+01
      3.171  0.1052E+01  0.1050E+01  0.3652E+01  0.3651E+01
      3.229  0.1146E+01  0.1145E+01  0.3718E+01  0.3717E+01
      3.287  0.1133E+01  0.1134E+01  0.3784E+01  0.3783E+01
      3.344  0.1001E+01  0.1003E+01  0.3842E+01  0.3841E+01
      3.402  0.9140E+00  0.9143E+00  0.3895E+01  0.3894E+01
      3.460  0.9289E+00  0.9282E+00  0.3949E+01  0.3948E+01
      3.518  0.9914E+00  0.9902E+00  0.4006E+01  0.4005E+01
      3.576  0.1078E+01  0.1077E+01  0.4069E+01  0.4068E+01
      3.634  0.1157E+01  0.1156E+01  0.4136E+01  0.4135E+01
      3.692  0.1241E+01  0.1240E+01  0.4207E+01  0.4206E+01
      3.750  0.1299E+01  0.1299E+01  0.4283E+01  0.4282E+01
      3.807  0.1272E+01  0.1273E+01  0.4356E+01  0.4355E+01
      3.865  0.1182E+01  0.1183E+01  0.4425E+01  0.4424E+01
      3.923  0.1138E+01  0.1138E+01  0.4491E+01  0.4490E+01
      3.981  0.1209E+01  0.1208E+01  0.4561E+01  0.4560E+01
      4.039  0.1260E+01  0.1260E+01  0.4634E+01  0.4633E+01
      4.097  0.1191E+01  0.1192E+01  0.4703E+01  0.4702E+01
      4.155  0.1121E+01  0.1121E+01  0.4767E+01  0.4767E+01
      4.213  0.1114E+01  0.1114E+01  0.4832E+01  0.4831E+01
      4.270  0.1146E+01  0.1146E+01  0.4898E+01  0.4897E+01
      4.328  0.1156E+01  0.1156E+01  0.4965E+01  0.4964E+01
      4.386  0.1143E+01  0.1143E+01  0.5031E+01  0.5031E+01
      4.444  0.1163E+01  0.1163E+01  0.5099E+01  0.5098E+01
      4.502  0.1235E+01  0.1233E+01  0.5170E+01  0.5169E+01
      4.560  0.1348E+01  0.1347E+01  0.5248E+01  0.5247E+01
      4.618  0.1399E+01  0.1399E+01  0.5329E+01  0.5328E+01
      4.676  0.1307E+01  0.1309E+01  0.5405E+01  0.5404E+01
      4.733  0.1208E+01  0.1209E+01  0.5475E+01  0.5474E+01
      4.791  0.1178E+01  0.1178E+01  0.5543E+01  0.5542E+01
      4.849  0.1119E+01  0.1120E+01  0.5608E+01  0.5607E+01
      4.907  0.1069E+01  0.1069E+01  0.5670E+01  0.5669E+01
      4.965  0.1114E+01  0.1113E+01  0.5734E+01  0.5733E+01
      5.023  0.1162E+01  0.1161E+01  0.5802E+01  0.5801E+01
      5.081  0.1182E+01  0.1181E+01  0.5870E+01  0.5869E+01
      5.139  0.1227E+01  0.1227E+01  0.5941E+01  0.5940E+01
      5.196  0.1265E+01  0.1264E+01  0.6014E+01  0.6013E+01
      5.254  0.1246E+01  0.1247E+01  0.6087E+01  0.6086E+01
      5.312  0.1172E+01  0.1173E+01  0.6154E+01  0.6153E+01
      5.370  0.1137E+01  0.1136E+01  0.6220E+01  0.6219E+01
      5.428  0.1238E+01  0.1235E+01  0.6292E+01  0.6291E+01
      5.486  0.1428E+01  0.1425E+01  0.6375E+01  0.6373E+01
      5.544  0.1585E+01  0.1582E+01  0.6466E+01  0.6465E+01
      5.601  0.1633E+01  0.1633E+01  0.6561E+01  0.6560E+01
      5.659  0.1563E+01  0.1564E+01  0.6651E+01  0.6650E+01
      5.717  0.1498E+01  0.1498E+01  0.6738E+01  0.6737E+01
      5.775  0.1587E+01  0.1584E+01  0.6830E+01  0.6828E+01
      5.833  0.1825E+01  0.1820E+01  0.6936E+01  0.6934E+01
      5.891  0.1961E+01  0.1961E+01  0.7049E+01  0.7047E+01
      5.949  0.1844E+01  0.1847E+01  0.7156E+01  0.7154E+01
      6.007  0.1610E+01  0.1613E+01  0.7249E+01  0.7248E+01
      6.064  0.1423E+01  0.1425E+01  0.7332E+01  0.7330E+01
      6.122  0.1392E+01  0.1391E+01  0.7412E+01  0.7411E+01
      6.180  0.1519E+01  0.1516E+01  0.7500E+01  0.7499E+01
      6.238  0.1728E+01  0.1725E+01  0.7600E+01  0.7598E+01
      6.296  0.1960E+01  0.1956E+01  0.7714E+01  0.7712E+01
      6.354  0.2239E+01  0.2234E+01  0.7844E+01  0.7841E+01
      6.412  0.2452E+01  0.2450E+01  0.7985E+01  0.7983E+01
      6.470  0.2450E+01  0.2452E+01  0.8127E+01  0.8125E+01
      6.527  0.2342E+01  0.2343E+01  0.8263E+01  0.8260E+01
      6.585  0.2259E+01  0.2261E+01  0.8394E+01  0.8391E+01
      6.643  0.2158E+01  0.2159E+01  0.8519E+01  0.8516E+01
      6.701  0.2119E+01  0.2118E+01  0.8641E+01  0.8639E+01
      6.759  0.2139E+01  0.2138E+01  0.8765E+01  0.8763E+01
      6.817  0.2144E+01  0.2142E+01  0.8889E+01  0.8887E+01
      6.875  0.2260E+01  0.2256E+01  0.9020E+01  0.9018E+01
      6.933  0.2482E+01  0.2477E+01  0.9164E+01  0.9161E+01
      6.990  0.2656E+01  0.2653E+01  0.9318E+01  0.9315E+01
      7.048  0.2749E+01  0.2747E+01  0.9477E+01  0.9474E+01
      7.106  0.2785E+01  0.2783E+01  0.9638E+01  0.9635E+01
      7.164  0.2849E+01  0.2845E+01  0.9803E+01  0.9800E+01
      7.222  0.3081E+01  0.3074E+01  0.9981E+01  0.9977E+01
      7.280  0.3429E+01  0.3422E+01  0.1018E+02  0.1018E+02
      7.338  0.3650E+01  0.3648E+01  0.1039E+02  0.1039E+02
      7.396  0.3592E+01  0.3597E+01  0.1060E+02  0.1059E+02
      7.453  0.3249E+01  0.3258E+01  0.1079E+02  0.1078E+02
      7.511  0.2852E+01  0.2859E+01  0.1095E+02  0.1095E+02
      7.569  0.2614E+01  0.2617E+01  0.1110E+02  0.1110E+02
      7.627  0.2464E+01  0.2466E+01  0.1125E+02  0.1124E+02
      7.685  0.2368E+01  0.2367E+01  0.1138E+02  0.1138E+02
      7.743  0.2391E+01  0.2389E+01  0.1152E+02  0.1152E+02
      7.801  0.2373E+01  0.2375E+01  0.1166E+02  0.1166E+02
      7.858  0.2223E+01  0.2226E+01  0.1179E+02  0.1179E+02
      7.916  0.2233E+01  0.2229E+01  0.1192E+02  0.1191E+02
      7.974  0.2489E+01  0.2481E+01  0.1206E+02  0.1206E+02
      8.032  0.2664E+01  0.2663E+01  0.1222E+02  0.1221E+02
      8.090  0.2516E+01  0.2522E+01  0.1236E+02  0.1236E+02
      8.148  0.2197E+01  0.2204E+01  0.1249E+02  0.1249E+02
      8.206  0.1918E+01  0.1923E+01  0.1260E+02  0.1260E+02
      8.264  0.1726E+01  0.1729E+01  0.1270E+02  0.1270E+02
      8.321  0.1638E+01  0.1638E+01  0.1280E+02  0.1279E+02
      8.379  0.1610E+01  0.1610E+01  0.1289E+02  0.1289E+02
      8.437  0.1556E+01  0.1557E+01  0.1298E+02  0.1298E+02
      8.495  0.1445E+01  0.1447E+01  0.1306E+02  0.1306E+02
      8.553  0.1370E+01  0.1370E+01  0.1314E+02  0.1314E+02
      8.611  0.1356E+01  0.1355E+01  0.1322E+02  0.1322E+02
      8.669  0.1332E+01  0.1333E+01  0.1330E+02  0.1330E+02
      8.727  0.1287E+01  0.1288E+01  0.1337E+02  0.1337E+02
      8.784  0.1215E+01  0.1217E+01  0.1344E+02  0.1344E+02
      8.842  0.1159E+01  0.1159E+01  0.1351E+02  0.1351E+02
      8.900  0.1140E+01  0.1139E+01  0.1358E+02  0.1357E+02
      8.958  0.1123E+01  0.1122E+01  0.1364E+02  0.1364E+02
      9.016  0.1151E+01  0.1149E+01  0.1371E+02  0.1370E+02
      9.074  0.1158E+01  0.1158E+01  0.1377E+02  0.1377E+02
      9.132  0.1144E+01  0.1144E+01  0.1384E+02  0.1384E+02
      9.190  0.1162E+01  0.1162E+01  0.1391E+02  0.1391E+02
      9.247  0.1073E+01  0.1080E+01  0.1397E+02  0.1397E+02
      9.305  0.7952E+00  0.8071E+00  0.1402E+02  0.1401E+02
      9.363  0.4911E+00  0.5000E+00  0.1404E+02  0.1404E+02
      9.421  0.3443E+00  0.3469E+00  0.1406E+02  0.1406E+02
      9.479  0.3601E+00  0.3585E+00  0.1409E+02  0.1408E+02
      9.537  0.4546E+00  0.4524E+00  0.1411E+02  0.1411E+02
      9.595  0.5469E+00  0.5455E+00  0.1414E+02  0.1414E+02
      9.652  0.6454E+00  0.6437E+00  0.1418E+02  0.1418E+02
      9.710  0.7560E+00  0.7533E+00  0.1422E+02  0.1422E+02
      9.768  0.9005E+00  0.8957E+00  0.1428E+02  0.1428E+02
      9.826  0.1150E+01  0.1143E+01  0.1434E+02  0.1434E+02
      9.884  0.1478E+01  0.1470E+01  0.1443E+02  0.1443E+02
      9.942  0.1797E+01  0.1790E+01  0.1453E+02  0.1453E+02
     10.000  0.2010E+01  0.2006E+01  0.1465E+02  0.1465E+02
     10.058  0.2158E+01  0.2154E+01  0.1477E+02  0.1477E+02
     10.115  0.2276E+01  0.2275E+01  0.1491E+02  0.1490E+02
     10.173  0.2291E+01  0.2291E+01  0.1504E+02  0.1504E+02
     10.231  0.2282E+01  0.2279E+01  0.1517E+02  0.1517E+02
     10.289  0.2460E+01  0.2450E+01  0.1531E+02  0.1531E+02
     10.347  0.2912E+01  0.2897E+01  0.1548E+02  0.1548E+02
     10.405  0.3453E+01  0.3440E+01  0.1568E+02  0.1568E+02
     10.463  0.3786E+01  0.3780E+01  0.1590E+02  0.1589E+02
     10.521  0.3858E+01  0.3854E+01  0.1612E+02  0.1612E+02
     10.578  0.3983E+01  0.3973E+01  0.1635E+02  0.1635E+02
     10.636  0.4387E+01  0.4366E+01  0.1661E+02  0.1660E+02
     10.694  0.4965E+01  0.4944E+01  0.1690E+02  0.1689E+02
     10.752  0.5218E+01  0.5218E+01  0.1720E+02  0.1719E+02
     10.810  0.4895E+01  0.4921E+01  0.1748E+02  0.1747E+02
     10.868  0.4173E+01  0.4217E+01  0.1772E+02  0.1772E+02
     10.926  0.3315E+01  0.3362E+01  0.1792E+02  0.1791E+02
     10.984  0.2608E+01  0.2640E+01  0.1807E+02  0.1807E+02
     11.041  0.2167E+01  0.2182E+01  0.1819E+02  0.1819E+02
     11.099  0.1942E+01  0.1948E+01  0.1830E+02  0.1830E+02
     11.157  0.1794E+01  0.1801E+01  0.1841E+02  0.1841E+02
     11.215  0.1614E+01  0.1620E+01  0.1850E+02  0.1850E+02
     11.273  0.1493E+01  0.1496E+01  0.1859E+02  0.1859E+02
     11.331  0.1489E+01  0.1491E+01  0.1867E+02  0.1868E+02
     11.389  0.1449E+01  0.1452E+01  0.1876E+02  0.1876E+02
     11.447  0.1344E+01  0.1346E+01  0.1884E+02  0.1884E+02
     11.504  0.1364E+01  0.1364E+01  0.1892E+02  0.1892E+02
     11.562  0.1543E+01  0.1544E+01  0.1900E+02  0.1901E+02
     11.620  0.1746E+01  0.1750E+01  0.1911E+02  0.1911E+02
     11.678  0.1808E+01  0.1814E+01  0.1921E+02  0.1921E+02
     11.736  0.1708E+01  0.1723E+01  0.1931E+02  0.1931E+02
     11.794  0.1562E+01  0.1600E+01  0.1940E+02  0.1941E+02
     11.852  0.1337E+01  0.1396E+01  0.1948E+02  0.1949E+02
     11.909  0.1030E+01  0.1098E+01  0.1954E+02  0.1955E+02
     11.967  0.8023E+00  0.8783E+00  0.1958E+02  0.1960E+02
     12.025  0.7244E+00  0.7894E+00  0.1963E+02  0.1965E+02
     12.083  0.7107E+00  0.7661E+00  0.1967E+02  0.1969E+02
     12.141  0.7026E+00  0.7325E+00  0.1971E+02  0.1973E+02
     12.199  0.6854E+00  0.6600E+00  0.1975E+02  0.1977E+02
     12.257  0.6558E+00  0.5771E+00  0.1979E+02  0.1981E+02
     12.315  0.5901E+00  0.4867E+00  0.1982E+02  0.1983E+02
     12.372  0.4638E+00  0.3731E+00  0.1985E+02  0.1986E+02
     12.430  0.3134E+00  0.2631E+00  0.1986E+02  0.1987E+02
     12.488  0.2170E+00  0.2040E+00  0.1988E+02  0.1988E+02
     12.546  0.2009E+00  0.1991E+00  0.1989E+02  0.1989E+02
     12.604  0.2328E+00  0.2206E+00  0.1990E+02  0.1991E+02
     12.662  0.2577E+00  0.2472E+00  0.1992E+02  0.1992E+02
     12.720  0.2399E+00  0.2339E+00  0.1993E+02  0.1993E+02
     12.778  0.2093E+00  0.1933E+00  0.1994E+02  0.1995E+02
     12.835  0.1671E+00  0.1417E+00  0.1995E+02  0.1995E+02
     12.893  0.1174E+00  0.1065E+00  0.1996E+02  0.1996E+02
     12.951  0.1037E+00  0.1066E+00  0.1997E+02  0.1997E+02
     13.009  0.1217E+00  0.1248E+00  0.1997E+02  0.1997E+02
     13.067  0.1251E+00  0.1281E+00  0.1998E+02  0.1998E+02
     13.125  0.1078E+00  0.1113E+00  0.1999E+02  0.1999E+02
     13.183  0.9539E-01  0.9315E-01  0.1999E+02  0.1999E+02
     13.241  0.7514E-01  0.6884E-01  0.2000E+02  0.2000E+02
     13.298  0.4246E-01  0.3673E-01  0.2000E+02  0.2000E+02
     13.356  0.1746E-01  0.1454E-01  0.2000E+02  0.2000E+02
     13.414  0.6004E-02  0.4940E-02  0.2000E+02  0.2000E+02
     13.472  0.1892E-02  0.1536E-02  0.2000E+02  0.2000E+02
     13.530  0.6013E-03  0.4326E-03  0.2000E+02  0.2000E+02
     13.588  0.1627E-03  0.1364E-03  0.2000E+02  0.2000E+02
     13.646  0.0000E+00  0.0000E+00  0.2000E+02  0.2000E+02
     13.704  0.0000E+00  0.0000E+00  0.2000E+02  0.2000E+02
     13.761  0.0000E+00  0.0000E+00  0.2000E+02  0.2000E+02
     13.819  0.0000E+00  0.0000E+00  0.2000E+02  0.2000E+02
     13.877  0.0000E+00  0.0000E+00  0.2000E+02  0.2000E+02
     13.935  0.0000E+00  0.0000E+00  0.2000E+02  0.2000E+02
     13.993  0.0000E+00  0.0000E+00  0.2000E+02  0.2000E+02
     13.99286272     -3.36860813  301      8.45245706      1.00000000
     -3.369  0.0000E+00  0.0000E+00  0.0000E+00  0.0000E+00  0.0000E+00  0.0000E+00  0.0000E+00  0.0000E+00  0.0000E+00  0.0000E+00  0.0000E+00  0.0000E+00  0.0000E+00  0.0000E+00  0.0000E+00  0.0000E+00  0.0000E+00  0.0000E+00
     -3.311  0.0000E+00  0.0000E+00  0.0000E+00  0.0000E+00  0.0000E+00  0.0000E+00  0.0000E+00  0.0000E+00  0.0000E+00  0.0000E+00  0.0000E+00  0.0000E+00  0.0000E+00  0.0000E+00  0.0000E+00  0.0000E+00  0.0000E+00  0.0000E+00
     -3.253  0.0000E+00  0.0000E+00  0.0000E+00  0.0000E+00  0.0000E+00  0.0000E+00  0.0000E+00  0.0000E+00  0.0000E+00  0.0000E+00  0.0000E+00  0.0000E+00  0.0000E+00  0.0000E+00  0.0000E+00  0.0000E+00  0.0000E+00  0.0000E+00
     -3.195  0.0000E+00  0.0000E+00  0.0000E+00  0.0000E+00  0.0000E+00  0.0000E+00  0.0000E+00  0.0000E+00  0.0000E+00  0.0000E+00  0.0000E+00  0.0000E+00  0.0000E+00  0.0000E+00  0.0000E+00  0.0000E+00  0.0000E+00  0.0000E+00
     -3.137  0.0000E+00  0.0000E+00  0.0000E+00  0.0000E+00  0.0000E+00  0.0000E+00  0.0000E+00  0.0000E+00  0.0000E+00  0.0000E+00  0.0000E+00  0.0000E+00  0.0000E+00  0.0000E+00  0.0000E+00  0.0000E+00  0.0000E+00  0.0000E+00
     -3.079  0.0000E+00  0.0000E+00  0.0000E+00  0.0000E+00  0.0000E+00  0.0000E+00  0.0000E+00  0.0000E+00  0.0000E+00  0.0000E+00  0.0000E+00  0.0000E+00  0.0000E+00  0.0000E+00  0.0000E+00  0.0000E+00  0.0000E+00  0.0000E+00
     -3.021  0.1705E-06  0.1682E-06  0.9471E-22  0.1358E-21  0.2816E-19  0.5006E-18  0.9471E-22  0.1358E-21  0.1273E-21  0.1220E-21  0.1687E-21  0.9370E-21  0.7457E-10  0.7349E-10  0.1687E-21  0.9370E-21  0.3798E-20  0.7997E-21
     -2.964  0.1319E-05  0.1301E-05  0.2462E-08  0.2428E-08  0.3301E-08  0.3255E-08  0.2462E-08  0.2428E-08  0.5922E-19  0.7758E-21  0.1107E-19  0.1190E-19  0.5964E-09  0.5877E-09  0.1107E-19  0.1190E-19  0.1560E-10  0.1541E-10
     -2.906  0.4548E-05  0.4485E-05  0.1145E-07  0.1129E-07  0.1761E-07  0.1736E-07  0.1145E-07  0.1129E-07  0.1312E-18  0.4218E-20  0.9461E-10  0.9343E-10  0.1993E-08  0.1963E-08  0.9461E-10  0.9343E-10  0.7263E-10  0.7174E-10
     -2.848  0.1572E-04  0.1550E-04  0.5223E-07  0.5152E-07  0.6184E-07  0.6097E-07  0.5223E-07  0.5152E-07  0.4634E-09  0.4570E-09  0.3567E-09  0.3522E-09  0.7433E-08  0.7324E-08  0.3567E-09  0.3522E-09  0.1923E-09  0.1900E-09
     -2.790  0.4719E-04  0.4654E-04  0.1440E-06  0.1420E-06  0.1800E-06  0.1775E-06  0.1440E-06  0.1420E-06  0.1010E-08  0.9964E-09  0.9835E-09  0.9712E-09  0.2190E-07  0.2159E-07  0.9835E-09  0.9712E-09  0.6105E-09  0.6030E-09
     -2.732  0.1508E-03  0.1488E-03  0.4826E-06  0.4760E-06  0.6493E-06  0.6402E-06  0.4826E-06  0.4760E-06  0.3209E-08  0.3164E-08  0.3867E-08  0.3819E-08  0.6974E-07  0.6874E-07  0.3867E-08  0.3819E-08  0.2391E-08  0.2362E-08
     -2.674  0.4586E-03  0.4527E-03  0.1570E-05  0.1549E-05  0.2020E-05  0.1992E-05  0.1570E-05  0.1549E-05  0.1161E-07  0.1145E-07  0.1328E-07  0.1311E-07  0.2148E-06  0.2118E-06  0.1328E-07  0.1311E-07  0.8320E-08  0.8218E-08
     -2.616  0.1276E-02  0.1261E-02  0.4743E-05  0.4682E-05  0.5976E-05  0.5899E-05  0.4743E-05  0.4682E-05  0.3756E-07  0.3705E-07  0.4071E-07  0.4021E-07  0.6041E-06  0.5966E-06  0.4071E-07  0.4021E-07  0.2467E-07  0.2438E-07
     -2.558  0.3025E-02  0.2997E-02  0.1310E-04  0.1296E-04  0.1608E-04  0.1590E-04  0.1310E-04  0.1296E-04  0.1110E-06  0.1096E-06  0.1213E-06  0.1199E-06  0.1461E-05  0.1446E-05  0.1213E-06  0.1199E-06  0.6763E-07  0.6696E-07
     -2.501  0.5726E-02  0.5691E-02  0.3050E-04  0.3023E-04  0.3713E-04  0.3679E-04  0.3050E-04  0.3023E-04  0.3077E-06  0.3043E-06  0.3269E-06  0.3237E-06  0.2851E-05  0.2830E-05  0.3269E-06  0.3237E-06  0.1576E-06  0.1564E-06
     -2.443  0.8457E-02  0.8429E-02  0.5603E-04  0.5571E-04  0.7219E-04  0.7165E-04  0.5603E-04  0.5571E-04  0.7004E-06  0.6947E-06  0.7332E-06  0.7275E-06  0.4341E-05  0.4322E-05  0.7332E-06  0.7275E-06  0.3203E-06  0.3180E-06
     -2.385  0.1027E-01  0.1025E-01  0.8610E-04  0.8570E-04  0.1220E-03  0.1213E-03  0.8610E-04  0.8570E-04  0.1248E-05  0.1241E-05  0.1424E-05  0.1415E-05  0.5477E-05  0.5460E-05  0.1424E-05  0.1415E-05  0.6885E-06  0.6823E-06
     -2.327  0.1184E-01  0.1181E-01  0.1312E-03  0.1305E-03  0.1831E-03  0.1823E-03  0.1312E-03  0.1305E-03  0.2077E-05  0.2063E-05  0.2573E-05  0.2558E-05  0.7059E-05  0.7025E-05  0.2573E-05  0.2558E-05  0.1546E-05  0.1534E-05
     -2.269  0.1428E-01  0.1425E-01  0.2074E-03  0.2064E-03  0.2439E-03  0.2432E-03  0.2074E-03  0.2064E-03  0.3946E-05  0.3916E-05  0.4316E-05  0.4295E-05  0.1039E-04  0.1033E-04  0.4316E-05  0.4295E-05  0.2874E-05  0.2859E-05
     -2.211  0.1642E-01  0.1640E-01  0.2855E-03  0.2848E-03  0.3039E-03  0.3029E-03  0.2855E-03  0.2848E-03  0.6742E-05  0.6712E-05  0.6492E-05  0.6467E-05  0.1394E-04  0.1391E-04  0.6492E-05  0.6467E-05  0.3982E-05  0.3976E-05
     -2.153  0.1672E-01  0.1673E-01  0.3178E-03  0.3177E-03  0.4030E-03  0.4012E-03  0.3178E-03  0.3177E-03  0.8792E-05  0.8776E-05  0.9464E-05  0.9424E-05  0.1460E-04  0.1460E-04  0.9464E-05  0.9424E-05  0.4429E-05  0.4429E-05
     -2.095  0.1670E-01  0.1669E-01  0.3364E-03  0.3360E-03  0.5596E-03  0.5575E-03  0.3364E-03  0.3360E-03  0.1091E-04  0.1087E-04  0.1403E-04  0.1398E-04  0.1385E-04  0.1384E-04  0.1403E-04  0.1398E-04  0.4863E-05  0.4856E-05
     -2.038  0.1757E-01  0.1756E-01  0.4047E-03  0.4037E-03  0.6710E-03  0.6702E-03  0.4047E-03  0.4037E-03  0.1596E-04  0.1589E-04  0.1868E-04  0.1865E-04  0.1648E-04  0.1641E-04  0.1868E-04  0.1865E-04  0.6445E-05  0.6417E-05
     -1.980  0.1798E-01  0.1798E-01  0.5088E-03  0.5075E-03  0.6543E-03  0.6547E-03  0.5088E-03  0.5075E-03  0.2157E-04  0.2152E-04  0.2109E-04  0.2107E-04  0.2318E-04  0.2307E-04  0.2109E-04  0.2107E-04  0.1070E-04  0.1063E-04
     -1.922  0.1889E-01  0.1887E-01  0.6446E-03  0.6427E-03  0.6732E-03  0.6717E-03  0.6446E-03  0.6427E-03  0.2560E-04  0.2555E-04  0.2586E-04  0.2577E-04  0.3190E-04  0.3178E-04  0.2586E-04  0.2577E-04  0.1828E-04  0.1819E-04
     -1.864  0.2190E-01  0.2186E-01  0.8086E-03  0.8069E-03  0.9176E-03  0.9132E-03  0.8086E-03  0.8069E-03  0.3193E-04  0.3185E-04  0.3831E-04  0.3814E-04  0.4014E-04  0.4005E-04  0.3831E-04  0.3814E-04  0.2542E-04  0.2537E-04
     -1.806  0.2388E-01  0.2388E-01  0.8890E-03  0.8889E-03  0.1244E-02  0.1241E-02  0.8890E-03  0.8889E-03  0.3887E-04  0.3881E-04  0.5178E-04  0.5168E-04  0.4363E-04  0.4361E-04  0.5178E-04  0.5168E-04  0.2738E-04  0.2740E-04
     -1.748  0.2276E-01  0.2278E-01  0.8771E-03  0.8772E-03  0.1384E-02  0.1383E-02  0.8771E-03  0.8772E-03  0.4688E-04  0.4674E-04  0.5770E-04  0.5768E-04  0.4474E-04  0.4470E-04  0.5770E-04  0.5768E-04  0.2585E-04  0.2588E-04
     -1.690  0.2141E-01  0.2142E-01  0.9271E-03  0.9261E-03  0.1334E-02  0.1335E-02  0.9271E-03  0.9261E-03  0.6609E-04  0.6583E-04  0.6160E-04  0.6155E-04  0.4975E-04  0.4967E-04  0.6160E-04  0.6155E-04  0.2448E-04  0.2451E-04
     -1.632  0.2063E-01  0.2063E-01  0.9973E-03  0.9967E-03  0.1313E-02  0.1311E-02  0.9973E-03  0.9967E-03  0.8430E-04  0.8419E-04  0.7216E-04  0.7197E-04  0.5290E-04  0.5288E-04  0.7216E-04  0.7197E-04  0.2380E-04  0.2379E-04
     -1.575  0.2050E-01  0.2049E-01  0.1037E-02  0.1036E-02  0.1552E-02  0.1547E-02  0.1037E-02  0.1036E-02  0.8468E-04  0.8479E-04  0.9607E-04  0.9573E-04  0.5126E-04  0.5126E-04  0.9607E-04  0.9573E-04  0.2820E-04  0.2810E-04
     -1.517  0.2240E-01  0.2237E-01  0.1191E-02  0.1188E-02  0.1953E-02  0.1948E-02  0.1191E-02  0.1188E-02  0.8423E-04  0.8420E-04  0.1259E-03  0.1256E-03  0.5895E-04  0.5875E-04  0.1259E-03  0.1256E-03  0.4359E-04  0.4334E-04
     -1.459  0.2408E-01  0.2408E-01  0.1411E-02  0.1409E-02  0.2124E-02  0.2123E-02  0.1411E-02  0.1409E-02  0.9088E-04  0.9082E-04  0.1335E-03  0.1336E-03  0.8212E-04  0.8178E-04  0.1335E-03  0.1336E-03  0.6691E-04  0.6664E-04
     -1.401  0.2384E-01  0.2385E-01  0.1563E-02  0.1562E-02  0.2096E-02  0.2095E-02  0.1563E-02  0.1562E-02  0.1053E-03  0.1050E-03  0.1214E-03  0.1214E-03  0.1110E-03  0.1107E-03  0.1214E-03  0.1214E-03  0.8624E-04  0.8610E-04
     -1.343  0.2462E-01  0.2460E-01  0.1745E-02  0.1742E-02  0.2303E-02  0.2298E-02  0.1745E-02  0.1742E-02  0.1444E-03  0.1438E-03  0.1400E-03  0.1395E-03  0.1311E-03  0.1310E-03  0.1400E-03  0.1395E-03  0.9317E-04  0.9317E-04
     -1.285  0.2655E-01  0.2652E-01  0.1971E-02  0.1969E-02  0.2672E-02  0.2666E-02  0.1971E-02  0.1969E-02  0.1930E-03  0.1925E-03  0.1965E-03  0.1958E-03  0.1359E-03  0.1359E-03  0.1965E-03  0.1958E-03  0.9446E-04  0.9444E-04
     -1.227  0.2764E-01  0.2764E-01  0.2141E-02  0.2140E-02  0.2976E-02  0.2971E-02  0.2141E-02  0.2140E-02  0.2276E-03  0.2273E-03  0.2487E-03  0.2482E-03  0.1388E-03  0.1388E-03  0.2487E-03  0.2482E-03  0.9846E-04  0.9844E-04
     -1.169  0.2679E-01  0.2682E-01  0.2125E-02  0.2127E-02  0.3254E-02  0.3250E-02  0.2125E-02  0.2127E-02  0.2422E-03  0.2423E-03  0.2768E-03  0.2767E-03  0.1417E-03  0.1418E-03  0.2768E-03  0.2767E-03  0.9557E-04  0.9569E-04
     -1.112  0.2345E-01  0.2349E-01  0.1891E-02  0.1894E-02  0.3308E-02  0.3308E-02  0.1891E-02  0.1894E-02  0.2215E-03  0.2219E-03  0.2821E-03  0.2821E-03  0.1276E-03  0.1279E-03  0.2821E-03  0.2821E-03  0.8633E-04  0.8642E-04
     -1.054  0.2064E-01  0.2066E-01  0.1766E-02  0.1766E-02  0.3267E-02  0.3263E-02  0.1766E-02  0.1766E-02  0.2095E-03  0.2094E-03  0.2936E-03  0.2933E-03  0.1123E-03  0.1124E-03  0.2936E-03  0.2933E-03  0.8627E-04  0.8623E-04
     -0.996  0.2042E-01  0.2042E-01  0.1854E-02  0.1852E-02  0.3708E-02  0.3697E-02  0.1854E-02  0.1852E-02  0.2409E-03  0.2404E-03  0.3338E-03  0.3332E-03  0.1192E-03  0.1190E-03  0.3338E-03  0.3332E-03  0.9021E-04  0.9018E-04
     -0.938  0.2103E-01  0.2102E-01  0.2021E-02  0.2017E-02  0.4380E-02  0.4371E-02  0.2021E-02  0.2017E-02  0.2981E-03  0.2973E-03  0.3683E-03  0.3679E-03  0.1549E-03  0.1544E-03  0.3683E-03  0.3679E-03  0.9969E-04  0.9942E-04
     -0.880  0.2331E-01  0.2327E-01  0.2515E-02  0.2507E-02  0.4789E-02  0.4782E-02  0.2515E-02  0.2507E-02  0.3871E-03  0.3859E-03  0.4072E-03  0.4064E-03  0.2216E-03  0.2209E-03  0.4072E-03  0.4064E-03  0.1469E-03  0.1461E-03
     -0.822  0.2720E-01  0.2716E-01  0.3231E-02  0.3224E-02  0.5319E-02  0.5307E-02  0.3231E-02  0.3224E-02  0.4613E-03  0.4609E-03  0.5014E-03  0.5000E-03  0.2845E-03  0.2842E-03  0.5014E-03  0.5000E-03  0.2244E-03  0.2235E-03
     -0.764  0.2861E-01  0.2861E-01  0.3552E-02  0.3552E-02  0.6154E-02  0.6141E-02  0.3552E-02  0.3552E-02  0.4640E-03  0.4643E-03  0.6052E-03  0.6043E-03  0.3007E-03  0.3011E-03  0.6052E-03  0.6043E-03  0.2725E-03  0.2722E-03
     -0.707  0.2693E-01  0.2696E-01  0.3475E-02  0.3477E-02  0.6622E-02  0.6619E-02  0.3475E-02  0.3477E-02  0.4626E-03  0.4626E-03  0.6577E-03  0.6575E-03  0.2828E-03  0.2833E-03  0.6577E-03  0.6575E-03  0.2719E-03  0.2721E-03
     -0.649  0.2431E-01  0.2434E-01  0.3326E-02  0.3327E-02  0.6257E-02  0.6262E-02  0.3326E-02  0.3327E-02  0.4817E-03  0.4815E-03  0.6642E-03  0.6642E-03  0.2628E-03  0.2632E-03  0.6642E-03  0.6642E-03  0.2588E-03  0.2589E-03
     -0.591  0.2222E-01  0.2224E-01  0.3233E-02  0.3234E-02  0.5800E-02  0.5799E-02  0.3233E-02  0.3234E-02  0.5228E-03  0.5223E-03  0.6912E-03  0.6905E-03  0.2508E-03  0.2512E-03  0.6912E-03  0.6905E-03  0.2455E-03  0.2457E-03
     -0.533  0.2132E-01  0.2132E-01  0.3241E-02  0.3240E-02  0.6192E-02  0.6179E-02  0.3241E-02  0.3240E-02  0.5891E-03  0.5883E-03  0.8069E-03  0.8049E-03  0.2386E-03  0.2390E-03  0.8069E-03  0.8049E-03  0.2314E-03  0.2315E-03
     -0.475  0.2148E-01  0.2148E-01  0.3380E-02  0.3379E-02  0.6994E-02  0.6984E-02  0.3380E-02  0.3379E-02  0.6645E-03  0.6638E-03  0.9633E-03  0.9618E-03  0.2428E-03  0.2428E-03  0.9633E-03  0.9618E-03  0.2338E-03  0.2337E-03