   8   8   1   0
  0.1589797E+02  0.3842285E-09  0.3842285E-09  0.8614942E-09  0.5000000E-15
  1.000000000000000E-004
  CAR 
 unknown system                          
     12.13956407     -4.03654953  301      6.73049089      1.00000000
     -4.037  0.0000E+00  0.0000E+00  0.0000E+00  0.0000E+00
     -3.983  0.0000E+00  0.0000E+00  0.0000E+00  0.0000E+00
     -3.929  0.0000E+00  0.0000E+00  0.0000E+00  0.0000E+00
     -3.875  0.0000E+00  0.0000E+00  0.0000E+00  0.0000E+00
     -3.821  0.0000E+00  0.0000E+00  0.0000E+00  0.0000E+00
     -3.767  0.0000E+00  0.0000E+00  0.0000E+00  0.0000E+00
     -3.713  0.7814E-05  0.7807E-05  0.4213E-06  0.4209E-06
     -3.659  0.2961E-04  0.2958E-04  0.2018E-05  0.2016E-05
     -3.605  0.1226E-03  0.1225E-03  0.8630E-05  0.8622E-05
     -3.551  0.3504E-03  0.3501E-03  0.2752E-04  0.2750E-04
     -3.497  0.1020E-02  0.1019E-02  0.8254E-04  0.8247E-04
     -3.443  0.2973E-02  0.2970E-02  0.2428E-03  0.2426E-03
     -3.390  0.8280E-02  0.8269E-02  0.6893E-03  0.6885E-03
     -3.336  0.2135E-01  0.2134E-01  0.1841E-02  0.1839E-02
     -3.282  0.4769E-01  0.4766E-01  0.4412E-02  0.4409E-02
     -3.228  0.8666E-01  0.8662E-01  0.9085E-02  0.9080E-02
     -3.174  0.1263E+00  0.1262E+00  0.1589E-01  0.1589E-01
     -3.120  0.1572E+00  0.1572E+00  0.2437E-01  0.2436E-01
     -3.066  0.1890E+00  0.1890E+00  0.3456E-01  0.3455E-01
     -3.012  0.2274E+00  0.2274E+00  0.4683E-01  0.4681E-01
     -2.958  0.2535E+00  0.2535E+00  0.6050E-01  0.6048E-01
     -2.904  0.2623E+00  0.2623E+00  0.7464E-01  0.7462E-01
     -2.850  0.2749E+00  0.2748E+00  0.8946E-01  0.8944E-01
     -2.796  0.2904E+00  0.2904E+00  0.1051E+00  0.1051E+00
     -2.742  0.3080E+00  0.3079E+00  0.1217E+00  0.1217E+00
     -2.689  0.3500E+00  0.3499E+00  0.1406E+00  0.1406E+00
     -2.635  0.3920E+00  0.3920E+00  0.1618E+00  0.1617E+00
     -2.581  0.3938E+00  0.3938E+00  0.1830E+00  0.1830E+00
     -2.527  0.3793E+00  0.3794E+00  0.2035E+00  0.2034E+00
     -2.473  0.3727E+00  0.3726E+00  0.2236E+00  0.2235E+00
     -2.419  0.3831E+00  0.3830E+00  0.2442E+00  0.2442E+00
     -2.365  0.4216E+00  0.4215E+00  0.2670E+00  0.2669E+00
     -2.311  0.4536E+00  0.4536E+00  0.2914E+00  0.2914E+00
     -2.257  0.4659E+00  0.4659E+00  0.3166E+00  0.3166E+00
     -2.203  0.4962E+00  0.4961E+00  0.3434E+00  0.3433E+00
     -2.149  0.5363E+00  0.5362E+00  0.3723E+00  0.3722E+00
     -2.095  0.5549E+00  0.5549E+00  0.4022E+00  0.4022E+00
     -2.041  0.5328E+00  0.5329E+00  0.4309E+00  0.4309E+00
     -1.988  0.4850E+00  0.4850E+00  0.4571E+00  0.4571E+00
     -1.934  0.4716E+00  0.4716E+00  0.4826E+00  0.4825E+00
     -1.880  0.4999E+00  0.4998E+00  0.5095E+00  0.5095E+00
     -1.826  0.5550E+00  0.5548E+00  0.5395E+00  0.5394E+00
     -1.772  0.6421E+00  0.6420E+00  0.5741E+00  0.5740E+00
     -1.718  0.7131E+00  0.7130E+00  0.6126E+00  0.6125E+00
     -1.664  0.7211E+00  0.7211E+00  0.6515E+00  0.6514E+00
     -1.610  0.6820E+00  0.6821E+00  0.6883E+00  0.6882E+00
     -1.556  0.6386E+00  0.6387E+00  0.7227E+00  0.7227E+00
     -1.502  0.6321E+00  0.6320E+00  0.7568E+00  0.7567E+00
     -1.448  0.6553E+00  0.6552E+00  0.7922E+00  0.7921E+00
     -1.394  0.6498E+00  0.6498E+00  0.8272E+00  0.8271E+00
     -1.341  0.6127E+00  0.6128E+00  0.8603E+00  0.8602E+00
     -1.287  0.6238E+00  0.6236E+00  0.8939E+00  0.8939E+00
     -1.233  0.6918E+00  0.6916E+00  0.9313E+00  0.9312E+00
     -1.179  0.7248E+00  0.7249E+00  0.9704E+00  0.9703E+00
     -1.125  0.6832E+00  0.6833E+00  0.1007E+01  0.1007E+01
     -1.071  0.6370E+00  0.6370E+00  0.1042E+01  0.1042E+01
     -1.017  0.6662E+00  0.6660E+00  0.1078E+01  0.1077E+01
     -0.963  0.7389E+00  0.7387E+00  0.1117E+01  0.1117E+01
     -0.909  0.7871E+00  0.7870E+00  0.1160E+01  0.1160E+01
     -0.855  0.7954E+00  0.7956E+00  0.1203E+01  0.1203E+01
     -0.801  0.7468E+00  0.7471E+00  0.1243E+01  0.1243E+01
     -0.747  0.6773E+00  0.6775E+00  0.1280E+01  0.1280E+01
     -0.693  0.6669E+00  0.6669E+00  0.1316E+01  0.1316E+01
     -0.640  0.7022E+00  0.7021E+00  0.1353E+01  0.1353E+01
     -0.586  0.7349E+00  0.7349E+00  0.1393E+01  0.1393E+01
     -0.532  0.7607E+00  0.7607E+00  0.1434E+01  0.1434E+01
     -0.478  0.8194E+00  0.8193E+00  0.1478E+01  0.1478E+01
     -0.424  0.9121E+00  0.9121E+00  0.1528E+01  0.1527E+01
     -0.370  0.9346E+00  0.9347E+00  0.1578E+01  0.1578E+01
     -0.316  0.8777E+00  0.8781E+00  0.1625E+01  0.1625E+01
     -0.262  0.8139E+00  0.8142E+00  0.1669E+01  0.1669E+01
     -0.208  0.7521E+00  0.7522E+00  0.1710E+01  0.1710E+01
     -0.154  0.7073E+00  0.7071E+00  0.1748E+01  0.1748E+01
     -0.100  0.7392E+00  0.7390E+00  0.1788E+01  0.1788E+01
     -0.046  0.8252E+00  0.8252E+00  0.1832E+01  0.1832E+01
      0.007  0.8482E+00  0.8483E+00  0.1878E+01  0.1878E+01
      0.061  0.8569E+00  0.8568E+00  0.1924E+01  0.1924E+01
      0.115  0.9444E+00  0.9441E+00  0.1975E+01  0.1975E+01
      0.169  0.1045E+01  0.1044E+01  0.2032E+01  0.2032E+01
      0.223  0.1103E+01  0.1103E+01  0.2091E+01  0.2091E+01
      0.277  0.1118E+01  0.1118E+01  0.2152E+01  0.2151E+01
      0.331  0.1078E+01  0.1078E+01  0.2210E+01  0.2210E+01
      0.385  0.1030E+01  0.1030E+01  0.2265E+01  0.2265E+01
      0.439  0.1006E+01  0.1006E+01  0.2320E+01  0.2319E+01
      0.493  0.9665E+00  0.9666E+00  0.2372E+01  0.2372E+01
      0.547  0.9052E+00  0.9052E+00  0.2421E+01  0.2420E+01
      0.601  0.9195E+00  0.9191E+00  0.2470E+01  0.2470E+01
      0.655  0.1034E+01  0.1033E+01  0.2526E+01  0.2526E+01
      0.708  0.1089E+01  0.1089E+01  0.2585E+01  0.2585E+01
      0.762  0.1038E+01  0.1039E+01  0.2641E+01  0.2641E+01
      0.816  0.1001E+01  0.1000E+01  0.2695E+01  0.2695E+01
      0.870  0.1040E+01  0.1040E+01  0.2751E+01  0.2751E+01
      0.924  0.1083E+01  0.1083E+01  0.2809E+01  0.2809E+01
      0.978  0.9966E+00  0.9971E+00  0.2863E+01  0.2863E+01
      1.032  0.8101E+00  0.8106E+00  0.2907E+01  0.2907E+01
      1.086  0.6955E+00  0.6956E+00  0.2944E+01  0.2944E+01
      1.140  0.7245E+00  0.7245E+00  0.2983E+01  0.2983E+01
      1.194  0.8100E+00  0.8099E+00  0.3027E+01  0.3027E+01
      1.248  0.8510E+00  0.8510E+00  0.3073E+01  0.3073E+01
      1.302  0.8596E+00  0.8596E+00  0.3119E+01  0.3119E+01
      1.355  0.8799E+00  0.8800E+00  0.3167E+01  0.3167E+01
      1.409  0.8747E+00  0.8747E+00  0.3214E+01  0.3214E+01
      1.463  0.8263E+00  0.8263E+00  0.3259E+01  0.3258E+01
      1.517  0.8003E+00  0.8005E+00  0.3302E+01  0.3302E+01
      1.571  0.8489E+00  0.8490E+00  0.3348E+01  0.3347E+01
      1.625  0.9545E+00  0.9545E+00  0.3399E+01  0.3399E+01
      1.679  0.1054E+01  0.1055E+01  0.3456E+01  0.3456E+01
      1.733  0.1122E+01  0.1122E+01  0.3516E+01  0.3516E+01
      1.787  0.1169E+01  0.1169E+01  0.3579E+01  0.3579E+01
      1.841  0.1212E+01  0.1212E+01  0.3645E+01  0.3645E+01
      1.895  0.1266E+01  0.1265E+01  0.3713E+01  0.3713E+01
      1.949  0.1339E+01  0.1338E+01  0.3785E+01  0.3785E+01
      2.003  0.1321E+01  0.1321E+01  0.3857E+01  0.3856E+01
      2.056  0.1162E+01  0.1162E+01  0.3919E+01  0.3919E+01
      2.110  0.1027E+01  0.1027E+01  0.3975E+01  0.3975E+01
      2.164  0.1018E+01  0.1018E+01  0.4030E+01  0.4030E+01
      2.218  0.1111E+01  0.1111E+01  0.4090E+01  0.4089E+01
      2.272  0.1221E+01  0.1221E+01  0.4155E+01  0.4155E+01
      2.326  0.1282E+01  0.1282E+01  0.4225E+01  0.4225E+01
      2.380  0.1336E+01  0.1336E+01  0.4297E+01  0.4297E+01
      2.434  0.1364E+01  0.1364E+01  0.4370E+01  0.4370E+01
      2.488  0.1328E+01  0.1328E+01  0.4442E+01  0.4442E+01
      2.542  0.1320E+01  0.1320E+01  0.4513E+01  0.4513E+01
      2.596  0.1314E+01  0.1314E+01  0.4584E+01  0.4584E+01
      2.650  0.1203E+01  0.1203E+01  0.4649E+01  0.4649E+01
      2.703  0.1082E+01  0.1082E+01  0.4707E+01  0.4707E+01
      2.757  0.1070E+01  0.1070E+01  0.4765E+01  0.4765E+01
      2.811  0.1150E+01  0.1150E+01  0.4827E+01  0.4827E+01
      2.865  0.1209E+01  0.1209E+01  0.4892E+01  0.4892E+01
      2.919  0.1206E+01  0.1205E+01  0.4957E+01  0.4957E+01
      2.973  0.1193E+01  0.1193E+01  0.5022E+01  0.5022E+01
      3.027  0.1205E+01  0.1205E+01  0.5087E+01  0.5087E+01
      3.081  0.1274E+01  0.1274E+01  0.5155E+01  0.5155E+01
      3.135  0.1387E+01  0.1387E+01  0.5230E+01  0.5230E+01
      3.189  0.1415E+01  0.1415E+01  0.5307E+01  0.5307E+01
      3.243  0.1316E+01  0.1316E+01  0.5378E+01  0.5378E+01
      3.297  0.1220E+01  0.1219E+01  0.5443E+01  0.5443E+01
      3.351  0.1208E+01  0.1208E+01  0.5509E+01  0.5509E+01
      3.404  0.1273E+01  0.1273E+01  0.5577E+01  0.5577E+01
      3.458  0.1332E+01  0.1332E+01  0.5649E+01  0.5649E+01
      3.512  0.1354E+01  0.1354E+01  0.5722E+01  0.5722E+01
      3.566  0.1361E+01  0.1360E+01  0.5796E+01  0.5795E+01
      3.620  0.1335E+01  0.1334E+01  0.5868E+01  0.5867E+01
      3.674  0.1299E+01  0.1298E+01  0.5938E+01  0.5938E+01
      3.728  0.1335E+01  0.1336E+01  0.6010E+01  0.6010E+01
      3.782  0.1453E+01  0.1454E+01  0.6088E+01  0.6088E+01
      3.836  0.1524E+01  0.1525E+01  0.6170E+01  0.6170E+01
      3.890  0.1547E+01  0.1547E+01  0.6254E+01  0.6254E+01
      3.944  0.1590E+01  0.1590E+01  0.6339E+01  0.6339E+01
      3.998  0.1632E+01  0.1632E+01  0.6427E+01  0.6427E+01
      4.052  0.1682E+01  0.1682E+01  0.6518E+01  0.6518E+01
      4.105  0.1734E+01  0.1734E+01  0.6612E+01  0.6612E+01
      4.159  0.1824E+01  0.1824E+01  0.6710E+01  0.6710E+01
      4.213  0.1893E+01  0.1893E+01  0.6812E+01  0.6812E+01
      4.267  0.1871E+01  0.1871E+01  0.6913E+01  0.6913E+01
      4.321  0.1813E+01  0.1813E+01  0.7011E+01  0.7011E+01
      4.375  0.1723E+01  0.1723E+01  0.7104E+01  0.7104E+01
      4.429  0.1604E+01  0.1604E+01  0.7191E+01  0.7191E+01
      4.483  0.1489E+01  0.1489E+01  0.7271E+01  0.7271E+01
      4.537  0.1451E+01  0.1452E+01  0.7349E+01  0.7349E+01
      4.591  0.1508E+01  0.1508E+01  0.7431E+01  0.7431E+01
      4.645  0.1667E+01  0.1667E+01  0.7521E+01  0.7521E+01
      4.699  0.1910E+01  0.1910E+01  0.7624E+01  0.7624E+01
      4.752  0.2144E+01  0.2144E+01  0.7739E+01  0.7739E+01
      4.806  0.2274E+01  0.2274E+01  0.7862E+01  0.7862E+01
      4.860  0.2350E+01  0.2350E+01  0.7989E+01  0.7989E+01
      4.914  0.2451E+01  0.2451E+01  0.8121E+01  0.8121E+01
      4.968  0.2473E+01  0.2473E+01  0.8254E+01  0.8254E+01
      5.022  0.2365E+01  0.2365E+01  0.8382E+01  0.8382E+01
      5.076  0.2189E+01  0.2189E+01  0.8500E+01  0.8500E+01
      5.130  0.2114E+01  0.2114E+01  0.8614E+01  0.8614E+01
      5.184  0.2199E+01  0.2198E+01  0.8733E+01  0.8733E+01
      5.238  0.2355E+01  0.2354E+01  0.8860E+01  0.8859E+01
      5.292  0.2559E+01  0.2557E+01  0.8998E+01  0.8998E+01
      5.346  0.2750E+01  0.2748E+01  0.9146E+01  0.9146E+01
      5.400  0.2829E+01  0.2828E+01  0.9299E+01  0.9298E+01
      5.453  0.2845E+01  0.2844E+01  0.9452E+01  0.9452E+01
      5.507  0.2871E+01  0.2870E+01  0.9607E+01  0.9607E+01
      5.561  0.2959E+01  0.2957E+01  0.9767E+01  0.9766E+01
      5.615  0.3175E+01  0.3172E+01  0.9938E+01  0.9937E+01
      5.669  0.3572E+01  0.3569E+01  0.1013E+02  0.1013E+02
      5.723  0.4023E+01  0.4021E+01  0.1035E+02  0.1035E+02
      5.777  0.4166E+01  0.4167E+01  0.1057E+02  0.1057E+02
      5.831  0.3795E+01  0.3798E+01  0.1078E+02  0.1078E+02
      5.885  0.3131E+01  0.3134E+01  0.1095E+02  0.1095E+02
      5.939  0.2616E+01  0.2618E+01  0.1109E+02  0.1109E+02
      5.993  0.2427E+01  0.2427E+01  0.1122E+02  0.1122E+02
      6.047  0.2435E+01  0.2434E+01  0.1135E+02  0.1135E+02
      6.100  0.2509E+01  0.2507E+01  0.1149E+02  0.1148E+02
      6.154  0.2595E+01  0.2594E+01  0.1163E+02  0.1162E+02
      6.208  0.2581E+01  0.2581E+01  0.1176E+02  0.1176E+02
      6.262  0.2534E+01  0.2534E+01  0.1190E+02  0.1190E+02
      6.316  0.2639E+01  0.2638E+01  0.1204E+02  0.1204E+02
      6.370  0.2801E+01  0.2800E+01  0.1219E+02  0.1219E+02
      6.424  0.2801E+01  0.2800E+01  0.1235E+02  0.1234E+02
      6.478  0.2628E+01  0.2628E+01  0.1249E+02  0.1249E+02
      6.532  0.2405E+01  0.2405E+01  0.1262E+02  0.1262E+02
      6.586  0.2185E+01  0.2185E+01  0.1274E+02  0.1273E+02
      6.640  0.1959E+01  0.1960E+01  0.1284E+02  0.1284E+02
      6.694  0.1791E+01  0.1791E+01  0.1294E+02  0.1294E+02
      6.748  0.1692E+01  0.1692E+01  0.1303E+02  0.1303E+02
      6.801  0.1645E+01  0.1644E+01  0.1312E+02  0.1312E+02
      6.855  0.1630E+01  0.1629E+01  0.1321E+02  0.1320E+02
      6.909  0.1597E+01  0.1596E+01  0.1329E+02  0.1329E+02
      6.963  0.1530E+01  0.1529E+01  0.1337E+02  0.1337E+02
      7.017  0.1463E+01  0.1463E+01  0.1345E+02  0.1345E+02
      7.071  0.1396E+01  0.1396E+01  0.1353E+02  0.1353E+02
      7.125  0.1339E+01  0.1339E+01  0.1360E+02  0.1360E+02
      7.179  0.1329E+01  0.1328E+01  0.1367E+02  0.1367E+02
      7.233  0.1340E+01  0.1340E+01  0.1374E+02  0.1374E+02
      7.287  0.1321E+01  0.1321E+01  0.1382E+02  0.1382E+02
      7.341  0.1301E+01  0.1301E+01  0.1389E+02  0.1389E+02
      7.395  0.1221E+01  0.1223E+01  0.1395E+02  0.1395E+02
      7.448  0.1001E+01  0.1006E+01  0.1401E+02  0.1401E+02
      7.502  0.7292E+00  0.7335E+00  0.1405E+02  0.1405E+02
      7.556  0.5878E+00  0.5895E+00  0.1408E+02  0.1408E+02
      7.610  0.6189E+00  0.6188E+00  0.1411E+02  0.1411E+02
      7.664  0.7272E+00  0.7267E+00  0.1415E+02  0.1415E+02
      7.718  0.8648E+00  0.8639E+00  0.1420E+02  0.1420E+02
      7.772  0.1043E+01  0.1041E+01  0.1425E+02  0.1425E+02
      7.826  0.1288E+01  0.1285E+01  0.1432E+02  0.1432E+02
      7.880  0.1668E+01  0.1663E+01  0.1441E+02  0.1441E+02
      7.934  0.2168E+01  0.2163E+01  0.1453E+02  0.1453E+02
      7.988  0.2612E+01  0.2608E+01  0.1467E+02  0.1467E+02
      8.042  0.2909E+01  0.2906E+01  0.1483E+02  0.1483E+02
      8.096  0.3095E+01  0.3094E+01  0.1499E+02  0.1499E+02
      8.149  0.3273E+01  0.3273E+01  0.1517E+02  0.1517E+02
      8.203  0.3652E+01  0.3654E+01  0.1537E+02  0.1537E+02
      8.257  0.4193E+01  0.4209E+01  0.1559E+02  0.1559E+02
      8.311  0.4595E+01  0.4642E+01  0.1584E+02  0.1584E+02
      8.365  0.4768E+01  0.4867E+01  0.1610E+02  0.1611E+02
      8.419  0.4976E+01  0.5135E+01  0.1637E+02  0.1638E+02
      8.473  0.5330E+01  0.5525E+01  0.1665E+02  0.1668E+02
      8.527  0.5407E+01  0.5600E+01  0.1695E+02  0.1698E+02
      8.581  0.4926E+01  0.5083E+01  0.1721E+02  0.1726E+02
      8.635  0.4249E+01  0.4363E+01  0.1744E+02  0.1749E+02
      8.689  0.3623E+01  0.3697E+01  0.1764E+02  0.1769E+02
      8.743  0.3101E+01  0.3141E+01  0.1780E+02  0.1786E+02
      8.797  0.2818E+01  0.2834E+01  0.1796E+02  0.1801E+02
      8.850  0.2746E+01  0.2744E+01  0.1810E+02  0.1816E+02
      8.904  0.2581E+01  0.2573E+01  0.1824E+02  0.1830E+02
      8.958  0.2256E+01  0.2251E+01  0.1837E+02  0.1842E+02
      9.012  0.1949E+01  0.1955E+01  0.1847E+02  0.1853E+02
      9.066  0.1770E+01  0.1778E+01  0.1857E+02  0.1862E+02
      9.120  0.1756E+01  0.1753E+01  0.1866E+02  0.1872E+02
      9.174  0.1859E+01  0.1842E+01  0.1876E+02  0.1882E+02
      9.228  0.1946E+01  0.1915E+01  0.1887E+02  0.1892E+02
      9.282  0.1993E+01  0.1954E+01  0.1897E+02  0.1903E+02
      9.336  0.2020E+01  0.1988E+01  0.1908E+02  0.1913E+02
      9.390  0.2031E+01  0.2020E+01  0.1919E+02  0.1924E+02
      9.444  0.1952E+01  0.1975E+01  0.1930E+02  0.1935E+02
      9.497  0.1687E+01  0.1733E+01  0.1939E+02  0.1944E+02
      9.551  0.1325E+01  0.1345E+01  0.1946E+02  0.1952E+02
      9.605  0.1027E+01  0.1001E+01  0.1952E+02  0.1957E+02
      9.659  0.8706E+00  0.8349E+00  0.1956E+02  0.1962E+02
      9.713  0.8116E+00  0.8053E+00  0.1961E+02  0.1966E+02
      9.767  0.7840E+00  0.8029E+00  0.1965E+02  0.1970E+02
      9.821  0.7732E+00  0.7740E+00  0.1969E+02  0.1974E+02
      9.875  0.7564E+00  0.7387E+00  0.1973E+02  0.1978E+02
      9.929  0.6739E+00  0.6679E+00  0.1977E+02  0.1982E+02
      9.983  0.5395E+00  0.5558E+00  0.1980E+02  0.1985E+02
     10.037  0.4448E+00  0.4553E+00  0.1982E+02  0.1987E+02
     10.091  0.4078E+00  0.3939E+00  0.1984E+02  0.1990E+02
     10.145  0.3803E+00  0.3423E+00  0.1986E+02  0.1991E+02
     10.198  0.3402E+00  0.2730E+00  0.1988E+02  0.1993E+02
     10.252  0.3205E+00  0.2285E+00  0.1990E+02  0.1994E+02
     10.306  0.3355E+00  0.2200E+00  0.1992E+02  0.1995E+02
     10.360  0.3483E+00  0.1992E+00  0.1994E+02  0.1996E+02
     10.414  0.3314E+00  0.1678E+00  0.1995E+02  0.1997E+02
     10.468  0.2753E+00  0.1443E+00  0.1997E+02  0.1998E+02
     10.522  0.1862E+00  0.1086E+00  0.1998E+02  0.1999E+02
     10.576  0.1099E+00  0.7502E-01  0.1999E+02  0.1999E+02
     10.630  0.6955E-01  0.6181E-01  0.1999E+02  0.1999E+02
     10.684  0.5421E-01  0.5192E-01  0.1999E+02  0.2000E+02
     10.738  0.4352E-01  0.3295E-01  0.1999E+02  0.2000E+02
     10.792  0.2686E-01  0.1545E-01  0.2000E+02  0.2000E+02
     10.845  0.1203E-01  0.5841E-02  0.2000E+02  0.2000E+02
     10.899  0.4619E-02  0.2049E-02  0.2000E+02  0.2000E+02
     10.953  0.1620E-02  0.7090E-03  0.2000E+02  0.2000E+02
     11.007  0.5371E-03  0.2100E-03  0.2000E+02  0.2000E+02
     11.061  0.2219E-03  0.0000E+00  0.2000E+02  0.2000E+02
     11.115  0.1268E-03  0.0000E+00  0.2000E+02  0.2000E+02
     11.169  0.3697E-03  0.0000E+00  0.2000E+02  0.2000E+02
     11.223  0.1062E-02  0.0000E+00  0.2000E+02  0.2000E+02
     11.277  0.2922E-02  0.0000E+00  0.2000E+02  0.2000E+02
     11.331  0.7171E-02  0.0000E+00  0.2000E+02  0.2000E+02
     11.385  0.1357E-01  0.0000E+00  0.2000E+02  0.2000E+02
     11.439  0.1643E-01  0.0000E+00  0.2000E+02  0.2000E+02
     11.493  0.1183E-01  0.0000E+00  0.2000E+02  0.2000E+02
     11.546  0.5717E-02  0.0000E+00  0.2000E+02  0.2000E+02
     11.600  0.2233E-02  0.0000E+00  0.2000E+02  0.2000E+02
     11.654  0.7985E-03  0.0000E+00  0.2000E+02  0.2000E+02
     11.708  0.2763E-03  0.0000E+00  0.2000E+02  0.2000E+02
     11.762  0.9455E-04  0.0000E+00  0.2000E+02  0.2000E+02
     11.816  0.0000E+00  0.0000E+00  0.2000E+02  0.2000E+02
     11.870  0.0000E+00  0.0000E+00  0.2000E+02  0.2000E+02
     11.924  0.0000E+00  0.0000E+00  0.2000E+02  0.2000E+02
     11.978  0.0000E+00  0.0000E+00  0.2000E+02  0.2000E+02
     12.032  0.0000E+00  0.0000E+00  0.2000E+02  0.2000E+02
     12.086  0.0000E+00  0.0000E+00  0.2000E+02  0.2000E+02
     12.140  0.0000E+00  0.0000E+00  0.2000E+02  0.2000E+02
     12.13956407     -4.03654953  301      6.73049089      1.00000000
     -4.037  0.0000E+00  0.0000E+00  0.0000E+00  0.0000E+00  0.0000E+00  0.0000E+00  0.0000E+00  0.0000E+00  0.0000E+00  0.0000E+00  0.0000E+00  0.0000E+00  0.0000E+00  0.0000E+00  0.0000E+00  0.0000E+00  0.0000E+00  0.0000E+00
     -3.983  0.0000E+00  0.0000E+00  0.0000E+00  0.0000E+00  0.0000E+00  0.0000E+00  0.0000E+00  0.0000E+00  0.0000E+00  0.0000E+00  0.0000E+00  0.0000E+00  0.0000E+00  0.0000E+00  0.0000E+00  0.0000E+00  0.0000E+00  0.0000E+00
     -3.929  0.0000E+00  0.0000E+00  0.0000E+00  0.0000E+00  0.0000E+00  0.0000E+00  0.0000E+00  0.0000E+00  0.0000E+00  0.0000E+00  0.0000E+00  0.0000E+00  0.0000E+00  0.0000E+00  0.0000E+00  0.0000E+00  0.0000E+00  0.0000E+00
     -3.875  0.0000E+00  0.0000E+00  0.0000E+00  0.0000E+00  0.0000E+00  0.0000E+00  0.0000E+00  0.0000E+00  0.0000E+00  0.0000E+00  0.0000E+00  0.0000E+00  0.0000E+00  0.0000E+00  0.0000E+00  0.0000E+00  0.0000E+00  0.0000E+00
     -3.821  0.0000E+00  0.0000E+00  0.0000E+00  0.0000E+00  0.0000E+00  0.0000E+00  0.0000E+00  0.0000E+00  0.0000E+00  0.0000E+00  0.0000E+00  0.0000E+00  0.0000E+00  0.0000E+00  0.0000E+00  0.0000E+00  0.0000E+00  0.0000E+00
     -3.767  0.0000E+00  0.0000E+00  0.0000E+00  0.0000E+00  0.0000E+00  0.0000E+00  0.0000E+00  0.0000E+00  0.0000E+00  0.0000E+00  0.0000E+00  0.0000E+00  0.0000E+00  0.0000E+00  0.0000E+00  0.0000E+00  0.0000E+00  0.0000E+00
     -3.713  0.4731E-06  0.4728E-06  0.2286E-21  0.3145E-21  0.1644E-08  0.1641E-08  0.2286E-21  0.3145E-21  0.2199E-21  0.1019E-20  0.5424E-21  0.4623E-21  0.5251E-10  0.5245E-10  0.5424E-21  0.4623E-21  0.9878E-21  0.1652E-20
     -3.659  0.1787E-05  0.1785E-05  0.3930E-08  0.3926E-08  0.3188E-08  0.3182E-08  0.3930E-08  0.3926E-08  0.2423E-20  0.2881E-19  0.6335E-20  0.8097E-20  0.3109E-09  0.3106E-09  0.6335E-20  0.8097E-20  0.2090E-10  0.2090E-10
     -3.605  0.7352E-05  0.7345E-05  0.2456E-07  0.2453E-07  0.2615E-07  0.2611E-07  0.2456E-07  0.2453E-07  0.1382E-09  0.1380E-09  0.1418E-09  0.1418E-09  0.1260E-08  0.1259E-08  0.1418E-09  0.1418E-09  0.9435E-10  0.9434E-10
     -3.551  0.2098E-04  0.2096E-04  0.7280E-07  0.7271E-07  0.8907E-07  0.8892E-07  0.7280E-07  0.7271E-07  0.6266E-09  0.6259E-09  0.5234E-09  0.5231E-09  0.3568E-08  0.3564E-08  0.5234E-09  0.5231E-09  0.2233E-09  0.2232E-09
     -3.497  0.6104E-04  0.6099E-04  0.2137E-06  0.2135E-06  0.2824E-06  0.2819E-06  0.2137E-06  0.2135E-06  0.1482E-08  0.1480E-08  0.1720E-08  0.1719E-08  0.1037E-07  0.1036E-07  0.1720E-08  0.1719E-08  0.9143E-09  0.9141E-09
     -3.443  0.1777E-03  0.1775E-03  0.6685E-06  0.6677E-06  0.8278E-06  0.8265E-06  0.6685E-06  0.6677E-06  0.5369E-08  0.5363E-08  0.5753E-08  0.5749E-08  0.3109E-07  0.3106E-07  0.5753E-08  0.5749E-08  0.3196E-08  0.3195E-08
     -3.390  0.4946E-03  0.4941E-03  0.1922E-05  0.1920E-05  0.2351E-05  0.2333E-05  0.1922E-05  0.1920E-05  0.1661E-07  0.1659E-07  0.1645E-07  0.1644E-07  0.8753E-07  0.8732E-07  0.1645E-07  0.1644E-07  0.8992E-08  0.8990E-08
     -3.336  0.1274E-02  0.1273E-02  0.5302E-05  0.5296E-05  0.6456E-05  0.6461E-05  0.5302E-05  0.5296E-05  0.4582E-07  0.4577E-07  0.4738E-07  0.4735E-07  0.2281E-06  0.2281E-06  0.4738E-07  0.4735E-07  0.2491E-07  0.2490E-07
     -3.282  0.2837E-02  0.2835E-02  0.1354E-04  0.1353E-04  0.1638E-04  0.1635E-04  0.1354E-04  0.1353E-04  0.1281E-06  0.1279E-06  0.1321E-06  0.1320E-06  0.5270E-06  0.5266E-06  0.1321E-06  0.1320E-06  0.6422E-07  0.6421E-07
     -3.228  0.5130E-02  0.5128E-02  0.2951E-04  0.2948E-04  0.3586E-04  0.3581E-04  0.2951E-04  0.2948E-04  0.3267E-06  0.3264E-06  0.3264E-06  0.3263E-06  0.1010E-05  0.1009E-05  0.3264E-06  0.3263E-06  0.1465E-06  0.1465E-06
     -3.174  0.7419E-02  0.7418E-02  0.5286E-04  0.5282E-04  0.6766E-04  0.6758E-04  0.5286E-04  0.5282E-04  0.6897E-06  0.6892E-06  0.7026E-06  0.7022E-06  0.1582E-05  0.1582E-05  0.7026E-06  0.7022E-06  0.3125E-06  0.3125E-06
     -3.120  0.9136E-02  0.9136E-02  0.8358E-04  0.8352E-04  0.1120E-03  0.1119E-03  0.8358E-04  0.8352E-04  0.1245E-05  0.1245E-05  0.1356E-05  0.1356E-05  0.2235E-05  0.2234E-05  0.1356E-05  0.1356E-05  0.6806E-06  0.6805E-06
     -3.066  0.1084E-01  0.1084E-01  0.1308E-03  0.1307E-03  0.1645E-03  0.1643E-03  0.1308E-03  0.1307E-03  0.2235E-05  0.2233E-05  0.2423E-05  0.2422E-05  0.3320E-05  0.3319E-05  0.2423E-05  0.2422E-05  0.1388E-05  0.1388E-05
     -3.012  0.1289E-01  0.1289E-01  0.1961E-03  0.1959E-03  0.2185E-03  0.2184E-03  0.1961E-03  0.1959E-03  0.4035E-05  0.4032E-05  0.3946E-05  0.3945E-05  0.5005E-05  0.5004E-05  0.3946E-05  0.3945E-05  0.2288E-05  0.2288E-05
     -2.958  0.1420E-01  0.1420E-01  0.2499E-03  0.2498E-03  0.2849E-03  0.2846E-03  0.2499E-03  0.2498E-03  0.6189E-05  0.6187E-05  0.5967E-05  0.5965E-05  0.6457E-05  0.6457E-05  0.5967E-05  0.5965E-05  0.2957E-05  0.2958E-05
     -2.904  0.1447E-01  0.1447E-01  0.2778E-03  0.2777E-03  0.3879E-03  0.3875E-03  0.2778E-03  0.2777E-03  0.8086E-05  0.8084E-05  0.8869E-05  0.8865E-05  0.7114E-05  0.7114E-05  0.8869E-05  0.8865E-05  0.3405E-05  0.3406E-05
     -2.850  0.1491E-01  0.1491E-01  0.3200E-03  0.3199E-03  0.4984E-03  0.4980E-03  0.3200E-03  0.3199E-03  0.1113E-04  0.1113E-04  0.1251E-04  0.1251E-04  0.8298E-05  0.8298E-05  0.1251E-04  0.1251E-04  0.4318E-05  0.4319E-05
     -2.796  0.1553E-01  0.1554E-01  0.3997E-03  0.3996E-03  0.5418E-03  0.5415E-03  0.3997E-03  0.3996E-03  0.1569E-04  0.1568E-04  0.1552E-04  0.1551E-04  0.1132E-04  0.1132E-04  0.1552E-04  0.1551E-04  0.6676E-05  0.6675E-05
     -2.742  0.1624E-01  0.1624E-01  0.5070E-03  0.5068E-03  0.5611E-03  0.5607E-03  0.5070E-03  0.5068E-03  0.1979E-04  0.1978E-04  0.1890E-04  0.1889E-04  0.1594E-04  0.1594E-04  0.1890E-04  0.1889E-04  0.1115E-04  0.1115E-04
     -2.689  0.1814E-01  0.1814E-01  0.6363E-03  0.6361E-03  0.7024E-03  0.7017E-03  0.6363E-03  0.6361E-03  0.2460E-04  0.2459E-04  0.2646E-04  0.2645E-04  0.2117E-04  0.2117E-04  0.2646E-04  0.2645E-04  0.1623E-04  0.1624E-04
     -2.635  0.1999E-01  0.1999E-01  0.7273E-03  0.7270E-03  0.9391E-03  0.9383E-03  0.7273E-03  0.7270E-03  0.3073E-04  0.3072E-04  0.3631E-04  0.3630E-04  0.2517E-04  0.2518E-04  0.3631E-04  0.3630E-04  0.1874E-04  0.1875E-04
     -2.581  0.1976E-01  0.1976E-01  0.7478E-03  0.7476E-03  0.1086E-02  0.1085E-02  0.7478E-03  0.7476E-03  0.3807E-04  0.3806E-04  0.4270E-04  0.4270E-04  0.2760E-04  0.2761E-04  0.4270E-04  0.4270E-04  0.1851E-04  0.1852E-04
     -2.527  0.1873E-01  0.1873E-01  0.7840E-03  0.7838E-03  0.1094E-02  0.1093E-02  0.7840E-03  0.7838E-03  0.5149E-04  0.5147E-04  0.4723E-04  0.4722E-04  0.3039E-04  0.3040E-04  0.4723E-04  0.4722E-04  0.1786E-04  0.1786E-04
     -2.473  0.1809E-01  0.1809E-01  0.8432E-03  0.8429E-03  0.1109E-02  0.1109E-02  0.8432E-03  0.8429E-03  0.6494E-04  0.6493E-04  0.5611E-04  0.5609E-04  0.3245E-04  0.3247E-04  0.5611E-04  0.5609E-04  0.1814E-04  0.1814E-04
     -2.419  0.1818E-01  0.1818E-01  0.9028E-03  0.9024E-03  0.1294E-02  0.1293E-02  0.9028E-03  0.9024E-03  0.6822E-04  0.6822E-04  0.7333E-04  0.7329E-04  0.3410E-04  0.3411E-04  0.7333E-04  0.7329E-04  0.2232E-04  0.2232E-04
     -2.365  0.1957E-01  0.1957E-01  0.1039E-02  0.1038E-02  0.1573E-02  0.1572E-02  0.1039E-02  0.1038E-02  0.7018E-04  0.7017E-04  0.9247E-04  0.9244E-04  0.4159E-04  0.4159E-04  0.9247E-04  0.9244E-04  0.3366E-04  0.3366E-04
     -2.311  0.2069E-01  0.2070E-01  0.1214E-02  0.1213E-02  0.1709E-02  0.1708E-02  0.1214E-02  0.1213E-02  0.7732E-04  0.7730E-04  0.9788E-04  0.9787E-04  0.5699E-04  0.5699E-04  0.9788E-04  0.9787E-04  0.4937E-04  0.4937E-04
     -2.257  0.2086E-01  0.2086E-01  0.1359E-02  0.1359E-02  0.1761E-02  0.1760E-02  0.1359E-02  0.1359E-02  0.9408E-04  0.9405E-04  0.9724E-04  0.9721E-04  0.7443E-04  0.7444E-04  0.9724E-04  0.9721E-04  0.6149E-04  0.6151E-04
     -2.203  0.2176E-01  0.2176E-01  0.1527E-02  0.1527E-02  0.1959E-02  0.1957E-02  0.1527E-02  0.1527E-02  0.1271E-03  0.1271E-03  0.1188E-03  0.1187E-03  0.8533E-04  0.8536E-04  0.1188E-03  0.1187E-03  0.6609E-04  0.6611E-04
     -2.149  0.2309E-01  0.2309E-01  0.1703E-02  0.1702E-02  0.2231E-02  0.2230E-02  0.1703E-02  0.1702E-02  0.1625E-03  0.1624E-03  0.1587E-03  0.1586E-03  0.8853E-04  0.8857E-04  0.1587E-03  0.1586E-03  0.6799E-04  0.6801E-04
     -2.095  0.2341E-01  0.2342E-01  0.1793E-02  0.1793E-02  0.2478E-02  0.2476E-02  0.1793E-02  0.1793E-02  0.1855E-03  0.1855E-03  0.1917E-03  0.1916E-03  0.9141E-04  0.9144E-04  0.1917E-03  0.1916E-03  0.6913E-04  0.6915E-04
     -2.041  0.2190E-01  0.2190E-01  0.1716E-02  0.1716E-02  0.2655E-02  0.2653E-02  0.1716E-02  0.1716E-02  0.1877E-03  0.1877E-03  0.2081E-03  0.2081E-03  0.9074E-04  0.9078E-04  0.2081E-03  0.2081E-03  0.6545E-04  0.6548E-04
     -1.988  0.1928E-01  0.1929E-01  0.1571E-02  0.1570E-02  0.2692E-02  0.2690E-02  0.1571E-02  0.1570E-02  0.1763E-03  0.1763E-03  0.2157E-03  0.2157E-03  0.8280E-04  0.8286E-04  0.2157E-03  0.2157E-03  0.6230E-04  0.6233E-04
     -1.934  0.1801E-01  0.1802E-01  0.1570E-02  0.1570E-02  0.2866E-02  0.2863E-02  0.1570E-02  0.1570E-02  0.1867E-03  0.1867E-03  0.2357E-03  0.2356E-03  0.8164E-04  0.8167E-04  0.2357E-03  0.2356E-03  0.6494E-04  0.6496E-04
     -1.880  0.1827E-01  0.1827E-01  0.1700E-02  0.1700E-02  0.3327E-02  0.3324E-02  0.1700E-02  0.1700E-02  0.2248E-03  0.2247E-03  0.2658E-03  0.2657E-03  0.9908E-04  0.9910E-04  0.2658E-03  0.2657E-03  0.7216E-04  0.7218E-04
     -1.826  0.1964E-01  0.1964E-01  0.2018E-02  0.2017E-02  0.3751E-02  0.3748E-02  0.2018E-02  0.2017E-02  0.2851E-03  0.2850E-03  0.2963E-03  0.2961E-03  0.1360E-03  0.1360E-03  0.2963E-03  0.2961E-03  0.9678E-04  0.9677E-04
     -1.772  0.2234E-01  0.2234E-01  0.2550E-02  0.2549E-02  0.4152E-02  0.4149E-02  0.2550E-02  0.2549E-02  0.3485E-03  0.3485E-03  0.3514E-03  0.3512E-03  0.1769E-03  0.1770E-03  0.3514E-03  0.3512E-03  0.1438E-03  0.1438E-03
     -1.718  0.2410E-01  0.2411E-01  0.2925E-02  0.2924E-02  0.4748E-02  0.4744E-02  0.2925E-02  0.2924E-02  0.3723E-03  0.3723E-03  0.4260E-03  0.4257E-03  0.1965E-03  0.1966E-03  0.4260E-03  0.4257E-03  0.1831E-03  0.1832E-03
     -1.664  0.2337E-01  0.2338E-01  0.2961E-02  0.2960E-02  0.5193E-02  0.5189E-02  0.2961E-02  0.2960E-02  0.3755E-03  0.3755E-03  0.4766E-03  0.4764E-03  0.1911E-03  0.1913E-03  0.4766E-03  0.4764E-03  0.1924E-03  0.1925E-03
     -1.610  0.2141E-01  0.2142E-01  0.2868E-02  0.2867E-02  0.5074E-02  0.5073E-02  0.2868E-02  0.2867E-02  0.3919E-03  0.3919E-03  0.4942E-03  0.4940E-03  0.1781E-03  0.1782E-03  0.4942E-03  0.4940E-03  0.1862E-03  0.1863E-03
     -1.556  0.1956E-01  0.1957E-01  0.2788E-02  0.2787E-02  0.4764E-02  0.4763E-02  0.2788E-02  0.2787E-02  0.4241E-03  0.4241E-03  0.5177E-03  0.5174E-03  0.1673E-03  0.1674E-03  0.5177E-03  0.5174E-03  0.1769E-03  0.1770E-03
     -1.502  0.1859E-01  0.1859E-01  0.2785E-02  0.2785E-02  0.4949E-02  0.4945E-02  0.2785E-02  0.2785E-02  0.4747E-03  0.4746E-03  0.5922E-03  0.5917E-03  0.1587E-03  0.1587E-03  0.5922E-03  0.5917E-03  0.1671E-03  0.1672E-03
     -1.448  0.1841E-01  0.1841E-01  0.2875E-02  0.2874E-02  0.5459E-02  0.5455E-02  0.2875E-02  0.2874E-02  0.5342E-03  0.5341E-03  0.6933E-03  0.6929E-03  0.1603E-03  0.1604E-03  0.6933E-03  0.6929E-03  0.1649E-03  0.1650E-03
     -1.394  0.1773E-01  0.1774E-01  0.2870E-02  0.2869E-02  0.5561E-02  0.5560E-02  0.2870E-02  0.2869E-02  0.5841E-03  0.5840E-03  0.7511E-03  0.7508E-03  0.1687E-03  0.1688E-03  0.7511E-03  0.7508E-03  0.1582E-03  0.1583E-03
     -1.341  0.1645E-01  0.1646E-01  0.2796E-02  0.2796E-02  0.5175E-02  0.5175E-02  0.2796E-02  0.2796E-02  0.6524E-03  0.6522E-03  0.7619E-03  0.7617E-03  0.1747E-03  0.1749E-03  0.7619E-03  0.7617E-03  0.1432E-03  0.1433E-03