   8   8   1   0
  0.1363052E+02  0.3650171E-09  0.3650171E-09  0.8184195E-09  0.5000000E-15
  1.000000000000000E-004
  CAR 
 unknown system                          
     13.59005267     -3.49417213  301      8.14527729      1.00000000
     -3.494  0.0000E+00  0.0000E+00  0.0000E+00  0.0000E+00
     -3.437  0.0000E+00  0.0000E+00  0.0000E+00  0.0000E+00
     -3.380  0.0000E+00  0.0000E+00  0.0000E+00  0.0000E+00
     -3.323  0.0000E+00  0.0000E+00  0.0000E+00  0.0000E+00
     -3.266  0.0000E+00  0.0000E+00  0.0000E+00  0.0000E+00
     -3.209  0.0000E+00  0.0000E+00  0.0000E+00  0.0000E+00
     -3.152  0.2479E-05  0.2458E-05  0.1412E-06  0.1400E-06
     -3.096  0.1935E-04  0.1918E-04  0.1243E-05  0.1232E-05
     -3.039  0.6606E-04  0.6550E-04  0.5005E-05  0.4963E-05
     -2.982  0.2258E-03  0.2239E-03  0.1786E-04  0.1771E-04
     -2.925  0.6618E-03  0.6563E-03  0.5555E-04  0.5509E-04
     -2.868  0.2083E-02  0.2066E-02  0.1742E-03  0.1727E-03
     -2.811  0.6223E-02  0.6174E-02  0.5285E-03  0.5243E-03
     -2.754  0.1702E-01  0.1690E-01  0.1498E-02  0.1487E-02
     -2.697  0.3988E-01  0.3965E-01  0.3769E-02  0.3745E-02
     -2.640  0.7506E-01  0.7477E-01  0.8043E-02  0.8003E-02
     -2.583  0.1112E+00  0.1110E+00  0.1438E-01  0.1432E-01
     -2.526  0.1368E+00  0.1366E+00  0.2216E-01  0.2210E-01
     -2.469  0.1606E+00  0.1603E+00  0.3131E-01  0.3123E-01
     -2.412  0.1957E+00  0.1954E+00  0.4245E-01  0.4236E-01
     -2.355  0.2259E+00  0.2257E+00  0.5531E-01  0.5522E-01
     -2.298  0.2333E+00  0.2333E+00  0.6860E-01  0.6850E-01
     -2.241  0.2384E+00  0.2383E+00  0.8218E-01  0.8207E-01
     -2.184  0.2542E+00  0.2541E+00  0.9666E-01  0.9655E-01
     -2.127  0.2632E+00  0.2632E+00  0.1117E+00  0.1115E+00
     -2.070  0.2837E+00  0.2834E+00  0.1278E+00  0.1277E+00
     -2.014  0.3336E+00  0.3332E+00  0.1468E+00  0.1467E+00
     -1.957  0.3644E+00  0.3643E+00  0.1676E+00  0.1674E+00
     -1.900  0.3519E+00  0.3521E+00  0.1876E+00  0.1875E+00
     -1.843  0.3375E+00  0.3376E+00  0.2068E+00  0.2067E+00
     -1.786  0.3310E+00  0.3310E+00  0.2257E+00  0.2256E+00
     -1.729  0.3407E+00  0.3405E+00  0.2451E+00  0.2450E+00
     -1.672  0.3818E+00  0.3815E+00  0.2669E+00  0.2667E+00
     -1.615  0.4110E+00  0.4110E+00  0.2903E+00  0.2901E+00
     -1.558  0.4151E+00  0.4151E+00  0.3140E+00  0.3138E+00
     -1.501  0.4416E+00  0.4413E+00  0.3391E+00  0.3389E+00
     -1.444  0.4831E+00  0.4829E+00  0.3666E+00  0.3664E+00
     -1.387  0.5076E+00  0.5075E+00  0.3956E+00  0.3953E+00
     -1.330  0.4972E+00  0.4974E+00  0.4239E+00  0.4237E+00
     -1.273  0.4458E+00  0.4462E+00  0.4493E+00  0.4491E+00
     -1.216  0.4147E+00  0.4147E+00  0.4729E+00  0.4727E+00
     -1.159  0.4328E+00  0.4326E+00  0.4976E+00  0.4974E+00
     -1.102  0.4689E+00  0.4686E+00  0.5243E+00  0.5241E+00
     -1.045  0.5369E+00  0.5362E+00  0.5549E+00  0.5546E+00
     -0.988  0.6266E+00  0.6261E+00  0.5906E+00  0.5903E+00
     -0.932  0.6684E+00  0.6683E+00  0.6287E+00  0.6284E+00
     -0.875  0.6504E+00  0.6507E+00  0.6657E+00  0.6655E+00
     -0.818  0.6023E+00  0.6026E+00  0.7000E+00  0.6998E+00
     -0.761  0.5684E+00  0.5687E+00  0.7324E+00  0.7322E+00
     -0.704  0.5793E+00  0.5791E+00  0.7654E+00  0.7652E+00
     -0.647  0.6080E+00  0.6079E+00  0.8001E+00  0.7998E+00
     -0.590  0.5910E+00  0.5913E+00  0.8337E+00  0.8335E+00
     -0.533  0.5445E+00  0.5447E+00  0.8648E+00  0.8646E+00
     -0.476  0.5631E+00  0.5626E+00  0.8969E+00  0.8966E+00
     -0.419  0.6388E+00  0.6383E+00  0.9333E+00  0.9330E+00
     -0.362  0.6635E+00  0.6636E+00  0.9711E+00  0.9708E+00
     -0.305  0.6155E+00  0.6159E+00  0.1006E+01  0.1006E+01
     -0.248  0.5708E+00  0.5709E+00  0.1039E+01  0.1038E+01
     -0.191  0.5967E+00  0.5962E+00  0.1073E+01  0.1072E+01
     -0.134  0.6691E+00  0.6686E+00  0.1111E+01  0.1111E+01
     -0.077  0.7240E+00  0.7237E+00  0.1152E+01  0.1152E+01
     -0.020  0.7401E+00  0.7401E+00  0.1194E+01  0.1194E+01
      0.037  0.6989E+00  0.6994E+00  0.1234E+01  0.1234E+01
      0.094  0.6192E+00  0.6197E+00  0.1269E+01  0.1269E+01
      0.150  0.5851E+00  0.5851E+00  0.1303E+01  0.1302E+01
      0.207  0.6168E+00  0.6165E+00  0.1338E+01  0.1338E+01
      0.264  0.6590E+00  0.6587E+00  0.1375E+01  0.1375E+01
      0.321  0.6698E+00  0.6699E+00  0.1414E+01  0.1413E+01
      0.378  0.6713E+00  0.6711E+00  0.1452E+01  0.1451E+01
      0.435  0.7697E+00  0.7687E+00  0.1496E+01  0.1495E+01
      0.492  0.8947E+00  0.8943E+00  0.1547E+01  0.1546E+01
      0.549  0.8649E+00  0.8655E+00  0.1596E+01  0.1596E+01
      0.606  0.7725E+00  0.7729E+00  0.1640E+01  0.1640E+01
      0.663  0.7489E+00  0.7488E+00  0.1683E+01  0.1682E+01
      0.720  0.7344E+00  0.7345E+00  0.1724E+01  0.1724E+01
      0.777  0.6995E+00  0.6995E+00  0.1764E+01  0.1764E+01
      0.834  0.7143E+00  0.7139E+00  0.1805E+01  0.1805E+01
      0.891  0.7740E+00  0.7739E+00  0.1849E+01  0.1849E+01
      0.948  0.7976E+00  0.7975E+00  0.1895E+01  0.1894E+01
      1.005  0.8197E+00  0.8193E+00  0.1941E+01  0.1941E+01
      1.062  0.8879E+00  0.8874E+00  0.1992E+01  0.1991E+01
      1.119  0.9509E+00  0.9506E+00  0.2046E+01  0.2046E+01
      1.176  0.9817E+00  0.9818E+00  0.2102E+01  0.2102E+01
      1.232  0.1007E+01  0.1006E+01  0.2159E+01  0.2159E+01
      1.289  0.1030E+01  0.1030E+01  0.2218E+01  0.2218E+01
      1.346  0.9989E+00  0.9993E+00  0.2275E+01  0.2274E+01
      1.403  0.9260E+00  0.9265E+00  0.2328E+01  0.2327E+01
      1.460  0.8808E+00  0.8811E+00  0.2378E+01  0.2377E+01
      1.517  0.8713E+00  0.8713E+00  0.2427E+01  0.2427E+01
      1.574  0.9276E+00  0.9268E+00  0.2480E+01  0.2480E+01
      1.631  0.1014E+01  0.1014E+01  0.2538E+01  0.2538E+01
      1.688  0.1003E+01  0.1004E+01  0.2595E+01  0.2595E+01
      1.745  0.9621E+00  0.9621E+00  0.2650E+01  0.2650E+01
      1.802  0.9847E+00  0.9841E+00  0.2706E+01  0.2706E+01
      1.859  0.1043E+01  0.1043E+01  0.2766E+01  0.2765E+01
      1.916  0.1021E+01  0.1022E+01  0.2824E+01  0.2823E+01
      1.973  0.8732E+00  0.8747E+00  0.2874E+01  0.2873E+01
      2.030  0.6954E+00  0.6965E+00  0.2913E+01  0.2913E+01
      2.087  0.6159E+00  0.6159E+00  0.2948E+01  0.2948E+01
      2.144  0.6750E+00  0.6742E+00  0.2987E+01  0.2987E+01
      2.201  0.7619E+00  0.7613E+00  0.3030E+01  0.3030E+01
      2.258  0.7882E+00  0.7879E+00  0.3075E+01  0.3075E+01
      2.314  0.8004E+00  0.8000E+00  0.3121E+01  0.3120E+01
      2.371  0.8401E+00  0.8396E+00  0.3169E+01  0.3168E+01
      2.428  0.8458E+00  0.8460E+00  0.3217E+01  0.3216E+01
      2.485  0.7729E+00  0.7737E+00  0.3261E+01  0.3261E+01
      2.542  0.7083E+00  0.7086E+00  0.3301E+01  0.3301E+01
      2.599  0.7428E+00  0.7420E+00  0.3344E+01  0.3343E+01
      2.656  0.8441E+00  0.8432E+00  0.3392E+01  0.3391E+01
      2.713  0.8936E+00  0.8933E+00  0.3443E+01  0.3442E+01
      2.770  0.9027E+00  0.9025E+00  0.3494E+01  0.3494E+01
      2.827  0.9255E+00  0.9249E+00  0.3547E+01  0.3546E+01
      2.884  0.9941E+00  0.9929E+00  0.3603E+01  0.3603E+01
      2.941  0.1100E+01  0.1099E+01  0.3666E+01  0.3665E+01
      2.998  0.1169E+01  0.1168E+01  0.3733E+01  0.3732E+01
      3.055  0.1155E+01  0.1156E+01  0.3798E+01  0.3798E+01
      3.112  0.1042E+01  0.1043E+01  0.3858E+01  0.3857E+01
      3.169  0.9561E+00  0.9563E+00  0.3912E+01  0.3912E+01
      3.226  0.9588E+00  0.9583E+00  0.3967E+01  0.3966E+01
      3.283  0.1009E+01  0.1008E+01  0.4024E+01  0.4024E+01
      3.340  0.1088E+01  0.1087E+01  0.4086E+01  0.4086E+01
      3.396  0.1174E+01  0.1173E+01  0.4153E+01  0.4153E+01
      3.453  0.1275E+01  0.1274E+01  0.4226E+01  0.4225E+01
      3.510  0.1321E+01  0.1321E+01  0.4301E+01  0.4300E+01
      3.567  0.1266E+01  0.1267E+01  0.4373E+01  0.4373E+01
      3.624  0.1172E+01  0.1172E+01  0.4440E+01  0.4439E+01
      3.681  0.1171E+01  0.1170E+01  0.4507E+01  0.4506E+01
      3.738  0.1252E+01  0.1251E+01  0.4578E+01  0.4577E+01
      3.795  0.1247E+01  0.1248E+01  0.4649E+01  0.4648E+01
      3.852  0.1152E+01  0.1153E+01  0.4715E+01  0.4714E+01
      3.909  0.1098E+01  0.1098E+01  0.4777E+01  0.4777E+01
      3.966  0.1120E+01  0.1120E+01  0.4841E+01  0.4841E+01
      4.023  0.1164E+01  0.1164E+01  0.4908E+01  0.4907E+01
      4.080  0.1163E+01  0.1163E+01  0.4974E+01  0.4973E+01
      4.137  0.1147E+01  0.1146E+01  0.5039E+01  0.5038E+01
      4.194  0.1169E+01  0.1169E+01  0.5106E+01  0.5105E+01
      4.251  0.1258E+01  0.1257E+01  0.5177E+01  0.5177E+01
      4.308  0.1381E+01  0.1380E+01  0.5256E+01  0.5255E+01
      4.365  0.1406E+01  0.1407E+01  0.5336E+01  0.5335E+01
      4.422  0.1291E+01  0.1292E+01  0.5410E+01  0.5409E+01
      4.478  0.1214E+01  0.1214E+01  0.5479E+01  0.5478E+01
      4.535  0.1198E+01  0.1198E+01  0.5547E+01  0.5546E+01
      4.592  0.1145E+01  0.1145E+01  0.5612E+01  0.5612E+01
      4.649  0.1103E+01  0.1103E+01  0.5675E+01  0.5675E+01
      4.706  0.1147E+01  0.1146E+01  0.5741E+01  0.5740E+01
      4.763  0.1195E+01  0.1194E+01  0.5809E+01  0.5808E+01
      4.820  0.1204E+01  0.1204E+01  0.5877E+01  0.5877E+01
      4.877  0.1233E+01  0.1232E+01  0.5948E+01  0.5947E+01
      4.934  0.1284E+01  0.1283E+01  0.6021E+01  0.6020E+01
      4.991  0.1269E+01  0.1270E+01  0.6093E+01  0.6092E+01
      5.048  0.1189E+01  0.1190E+01  0.6161E+01  0.6160E+01
      5.105  0.1183E+01  0.1182E+01  0.6228E+01  0.6227E+01
      5.162  0.1329E+01  0.1326E+01  0.6304E+01  0.6303E+01
      5.219  0.1541E+01  0.1538E+01  0.6392E+01  0.6391E+01
      5.276  0.1659E+01  0.1658E+01  0.6486E+01  0.6485E+01
      5.333  0.1640E+01  0.1640E+01  0.6580E+01  0.6578E+01
      5.390  0.1545E+01  0.1546E+01  0.6668E+01  0.6667E+01
      5.447  0.1529E+01  0.1528E+01  0.6755E+01  0.6754E+01
      5.504  0.1682E+01  0.1678E+01  0.6851E+01  0.6849E+01
      5.560  0.1893E+01  0.1890E+01  0.6959E+01  0.6957E+01
      5.617  0.1935E+01  0.1935E+01  0.7069E+01  0.7067E+01
      5.674  0.1773E+01  0.1777E+01  0.7170E+01  0.7168E+01
      5.731  0.1539E+01  0.1542E+01  0.7258E+01  0.7256E+01
      5.788  0.1406E+01  0.1407E+01  0.7338E+01  0.7336E+01
      5.845  0.1419E+01  0.1418E+01  0.7419E+01  0.7417E+01
      5.902  0.1548E+01  0.1545E+01  0.7507E+01  0.7505E+01
      5.959  0.1756E+01  0.1751E+01  0.7607E+01  0.7605E+01
      6.016  0.1979E+01  0.1974E+01  0.7720E+01  0.7718E+01
      6.073  0.2240E+01  0.2235E+01  0.7847E+01  0.7845E+01
      6.130  0.2450E+01  0.2447E+01  0.7987E+01  0.7984E+01
      6.187  0.2466E+01  0.2467E+01  0.8127E+01  0.8125E+01
      6.244  0.2366E+01  0.2367E+01  0.8262E+01  0.8260E+01
      6.301  0.2277E+01  0.2278E+01  0.8392E+01  0.8389E+01
      6.358  0.2156E+01  0.2157E+01  0.8515E+01  0.8512E+01
      6.415  0.2112E+01  0.2111E+01  0.8635E+01  0.8633E+01
      6.472  0.2154E+01  0.2151E+01  0.8758E+01  0.8755E+01
      6.529  0.2180E+01  0.2178E+01  0.8882E+01  0.8879E+01
      6.586  0.2290E+01  0.2284E+01  0.9012E+01  0.9009E+01
      6.642  0.2500E+01  0.2493E+01  0.9155E+01  0.9151E+01
      6.699  0.2670E+01  0.2665E+01  0.9307E+01  0.9303E+01
      6.756  0.2751E+01  0.2748E+01  0.9464E+01  0.9460E+01
      6.813  0.2780E+01  0.2778E+01  0.9622E+01  0.9618E+01
      6.870  0.2849E+01  0.2845E+01  0.9784E+01  0.9780E+01
      6.927  0.3080E+01  0.3070E+01  0.9960E+01  0.9955E+01
      6.984  0.3441E+01  0.3430E+01  0.1016E+02  0.1015E+02
      7.041  0.3713E+01  0.3707E+01  0.1037E+02  0.1036E+02
      7.098  0.3714E+01  0.3718E+01  0.1058E+02  0.1057E+02
      7.155  0.3398E+01  0.3409E+01  0.1077E+02  0.1077E+02
      7.212  0.2947E+01  0.2957E+01  0.1094E+02  0.1094E+02
      7.269  0.2624E+01  0.2629E+01  0.1109E+02  0.1109E+02
      7.326  0.2437E+01  0.2438E+01  0.1123E+02  0.1123E+02
      7.383  0.2343E+01  0.2341E+01  0.1136E+02  0.1136E+02
      7.440  0.2379E+01  0.2375E+01  0.1150E+02  0.1149E+02
      7.497  0.2409E+01  0.2409E+01  0.1164E+02  0.1163E+02
      7.554  0.2285E+01  0.2289E+01  0.1177E+02  0.1176E+02
      7.611  0.2243E+01  0.2238E+01  0.1189E+02  0.1189E+02
      7.668  0.2463E+01  0.2451E+01  0.1203E+02  0.1203E+02
      7.724  0.2687E+01  0.2682E+01  0.1219E+02  0.1218E+02
      7.781  0.2606E+01  0.2612E+01  0.1234E+02  0.1233E+02
      7.838  0.2314E+01  0.2323E+01  0.1247E+02  0.1246E+02
      7.895  0.2029E+01  0.2037E+01  0.1258E+02  0.1258E+02
      7.952  0.1822E+01  0.1826E+01  0.1269E+02  0.1268E+02
      8.009  0.1701E+01  0.1703E+01  0.1278E+02  0.1278E+02
      8.066  0.1644E+01  0.1644E+01  0.1288E+02  0.1287E+02
      8.123  0.1588E+01  0.1589E+01  0.1297E+02  0.1296E+02
      8.180  0.1490E+01  0.1492E+01  0.1305E+02  0.1305E+02
      8.237  0.1417E+01  0.1418E+01  0.1313E+02  0.1313E+02
      8.294  0.1398E+01  0.1398E+01  0.1321E+02  0.1321E+02
      8.351  0.1371E+01  0.1372E+01  0.1329E+02  0.1329E+02
      8.408  0.1324E+01  0.1324E+01  0.1337E+02  0.1336E+02
      8.465  0.1256E+01  0.1258E+01  0.1344E+02  0.1344E+02
      8.522  0.1197E+01  0.1197E+01  0.1351E+02  0.1350E+02
      8.579  0.1171E+01  0.1170E+01  0.1357E+02  0.1357E+02
      8.636  0.1150E+01  0.1148E+01  0.1364E+02  0.1364E+02
      8.693  0.1173E+01  0.1170E+01  0.1371E+02  0.1370E+02
      8.750  0.1179E+01  0.1179E+01  0.1377E+02  0.1377E+02
      8.806  0.1167E+01  0.1166E+01  0.1384E+02  0.1384E+02
      8.863  0.1181E+01  0.1181E+01  0.1391E+02  0.1390E+02
      8.920  0.1091E+01  0.1101E+01  0.1397E+02  0.1397E+02
      8.977  0.8192E+00  0.8367E+00  0.1402E+02  0.1401E+02
      9.034  0.5212E+00  0.5349E+00  0.1405E+02  0.1404E+02
      9.091  0.3794E+00  0.3835E+00  0.1407E+02  0.1407E+02
      9.148  0.4024E+00  0.4003E+00  0.1409E+02  0.1409E+02
      9.205  0.4982E+00  0.4954E+00  0.1412E+02  0.1412E+02
      9.262  0.5923E+00  0.5900E+00  0.1415E+02  0.1415E+02
      9.319  0.7003E+00  0.6971E+00  0.1419E+02  0.1419E+02
      9.376  0.8228E+00  0.8181E+00  0.1424E+02  0.1424E+02
      9.433  0.9971E+00  0.9892E+00  0.1430E+02  0.1429E+02
      9.490  0.1281E+01  0.1270E+01  0.1437E+02  0.1437E+02
      9.547  0.1638E+01  0.1626E+01  0.1446E+02  0.1446E+02
      9.604  0.1954E+01  0.1945E+01  0.1457E+02  0.1457E+02
      9.661  0.2151E+01  0.2145E+01  0.1470E+02  0.1469E+02
      9.718  0.2307E+01  0.2302E+01  0.1483E+02  0.1482E+02
      9.775  0.2402E+01  0.2401E+01  0.1496E+02  0.1496E+02
      9.832  0.2412E+01  0.2410E+01  0.1510E+02  0.1510E+02
      9.888  0.2497E+01  0.2486E+01  0.1524E+02  0.1524E+02
      9.945  0.2841E+01  0.2818E+01  0.1541E+02  0.1540E+02
     10.002  0.3393E+01  0.3369E+01  0.1560E+02  0.1559E+02
     10.059  0.3833E+01  0.3822E+01  0.1582E+02  0.1581E+02
     10.116  0.3957E+01  0.3954E+01  0.1604E+02  0.1603E+02
     10.173  0.4064E+01  0.4053E+01  0.1627E+02  0.1626E+02
     10.230  0.4443E+01  0.4416E+01  0.1653E+02  0.1652E+02
     10.287  0.5029E+01  0.5001E+01  0.1681E+02  0.1680E+02
     10.344  0.5354E+01  0.5362E+01  0.1712E+02  0.1711E+02
     10.401  0.5063E+01  0.5127E+01  0.1741E+02  0.1740E+02
     10.458  0.4350E+01  0.4454E+01  0.1766E+02  0.1765E+02
     10.515  0.3487E+01  0.3592E+01  0.1785E+02  0.1786E+02
     10.572  0.2758E+01  0.2826E+01  0.1801E+02  0.1802E+02
     10.629  0.2340E+01  0.2371E+01  0.1814E+02  0.1815E+02
     10.686  0.2116E+01  0.2129E+01  0.1827E+02  0.1827E+02
     10.743  0.1933E+01  0.1943E+01  0.1838E+02  0.1839E+02
     10.800  0.1708E+01  0.1718E+01  0.1847E+02  0.1848E+02
     10.857  0.1524E+01  0.1530E+01  0.1856E+02  0.1857E+02
     10.914  0.1505E+01  0.1506E+01  0.1865E+02  0.1866E+02
     10.970  0.1516E+01  0.1519E+01  0.1873E+02  0.1874E+02
     11.027  0.1425E+01  0.1426E+01  0.1881E+02  0.1882E+02
     11.084  0.1409E+01  0.1401E+01  0.1889E+02  0.1890E+02
     11.141  0.1546E+01  0.1528E+01  0.1898E+02  0.1899E+02
     11.198  0.1756E+01  0.1734E+01  0.1908E+02  0.1909E+02
     11.255  0.1863E+01  0.1859E+01  0.1919E+02  0.1920E+02
     11.312  0.1792E+01  0.1802E+01  0.1929E+02  0.1930E+02
     11.369  0.1676E+01  0.1676E+01  0.1939E+02  0.1939E+02
     11.426  0.1485E+01  0.1462E+01  0.1947E+02  0.1948E+02
     11.483  0.1191E+01  0.1149E+01  0.1954E+02  0.1954E+02
     11.540  0.9220E+00  0.8718E+00  0.1959E+02  0.1959E+02
     11.597  0.7603E+00  0.7231E+00  0.1963E+02  0.1963E+02
     11.654  0.6858E+00  0.6754E+00  0.1967E+02  0.1967E+02
     11.711  0.6567E+00  0.6591E+00  0.1971E+02  0.1971E+02
     11.768  0.6400E+00  0.6489E+00  0.1975E+02  0.1975E+02
     11.825  0.6042E+00  0.6335E+00  0.1978E+02  0.1978E+02
     11.882  0.5354E+00  0.5944E+00  0.1981E+02  0.1982E+02
     11.939  0.4427E+00  0.4957E+00  0.1984E+02  0.1985E+02
     11.996  0.3518E+00  0.3579E+00  0.1986E+02  0.1987E+02
     12.052  0.2843E+00  0.2596E+00  0.1987E+02  0.1988E+02
     12.109  0.2443E+00  0.2428E+00  0.1989E+02  0.1989E+02
     12.166  0.2344E+00  0.2762E+00  0.1990E+02  0.1991E+02
     12.223  0.2345E+00  0.2835E+00  0.1991E+02  0.1993E+02
     12.280  0.2111E+00  0.2312E+00  0.1993E+02  0.1994E+02
     12.337  0.1893E+00  0.1644E+00  0.1994E+02  0.1995E+02
     12.394  0.1746E+00  0.1141E+00  0.1995E+02  0.1996E+02
     12.451  0.1511E+00  0.8252E-01  0.1996E+02  0.1996E+02
     12.508  0.1417E+00  0.7539E-01  0.1996E+02  0.1996E+02
     12.565  0.1367E+00  0.8430E-01  0.1997E+02  0.1997E+02
     12.622  0.1167E+00  0.1037E+00  0.1998E+02  0.1998E+02
     12.679  0.8771E-01  0.1159E+00  0.1998E+02  0.1998E+02
     12.736  0.8224E-01  0.1084E+00  0.1999E+02  0.1999E+02
     12.793  0.8626E-01  0.9132E-01  0.1999E+02  0.1999E+02
     12.850  0.6658E-01  0.6368E-01  0.2000E+02  0.2000E+02
     12.907  0.3473E-01  0.3212E-01  0.2000E+02  0.2000E+02
     12.964  0.1379E-01  0.1254E-01  0.2000E+02  0.2000E+02
     13.021  0.4713E-02  0.4298E-02  0.2000E+02  0.2000E+02
     13.078  0.1551E-02  0.1338E-02  0.2000E+02  0.2000E+02
     13.134  0.5012E-03  0.3822E-03  0.2000E+02  0.2000E+02
     13.191  0.6563E-04  0.5051E-04  0.2000E+02  0.2000E+02
     13.248  0.0000E+00  0.0000E+00  0.2000E+02  0.2000E+02
     13.305  0.0000E+00  0.0000E+00  0.2000E+02  0.2000E+02
     13.362  0.0000E+00  0.0000E+00  0.2000E+02  0.2000E+02
     13.419  0.0000E+00  0.0000E+00  0.2000E+02  0.2000E+02
     13.476  0.0000E+00  0.0000E+00  0.2000E+02  0.2000E+02
     13.533  0.0000E+00  0.0000E+00  0.2000E+02  0.2000E+02
     13.590  0.0000E+00  0.0000E+00  0.2000E+02  0.2000E+02
     13.59005267     -3.49417213  301      8.14527729      1.00000000
     -3.494  0.0000E+00  0.0000E+00  0.0000E+00  0.0000E+00  0.0000E+00  0.0000E+00  0.0000E+00  0.0000E+00  0.0000E+00  0.0000E+00  0.0000E+00  0.0000E+00  0.0000E+00  0.0000E+00  0.0000E+00  0.0000E+00  0.0000E+00  0.0000E+00
     -3.437  0.0000E+00  0.0000E+00  0.0000E+00  0.0000E+00  0.0000E+00  0.0000E+00  0.0000E+00  0.0000E+00  0.0000E+00  0.0000E+00  0.0000E+00  0.0000E+00  0.0000E+00  0.0000E+00  0.0000E+00  0.0000E+00  0.0000E+00  0.0000E+00
     -3.380  0.0000E+00  0.0000E+00  0.0000E+00  0.0000E+00  0.0000E+00  0.0000E+00  0.0000E+00  0.0000E+00  0.0000E+00  0.0000E+00  0.0000E+00  0.0000E+00  0.0000E+00  0.0000E+00  0.0000E+00  0.0000E+00  0.0000E+00  0.0000E+00
     -3.323  0.0000E+00  0.0000E+00  0.0000E+00  0.0000E+00  0.0000E+00  0.0000E+00  0.0000E+00  0.0000E+00  0.0000E+00  0.0000E+00  0.0000E+00  0.0000E+00  0.0000E+00  0.0000E+00  0.0000E+00  0.0000E+00  0.0000E+00  0.0000E+00
     -3.266  0.0000E+00  0.0000E+00  0.0000E+00  0.0000E+00  0.0000E+00  0.0000E+00  0.0000E+00  0.0000E+00  0.0000E+00  0.0000E+00  0.0000E+00  0.0000E+00  0.0000E+00  0.0000E+00  0.0000E+00  0.0000E+00  0.0000E+00  0.0000E+00
     -3.209  0.0000E+00  0.0000E+00  0.0000E+00  0.0000E+00  0.0000E+00  0.0000E+00  0.0000E+00  0.0000E+00  0.0000E+00  0.0000E+00  0.0000E+00  0.0000E+00  0.0000E+00  0.0000E+00  0.0000E+00  0.0000E+00  0.0000E+00  0.0000E+00
     -3.152  0.1902E-06  0.1886E-06  0.1045E-21  0.2271E-21  0.4618E-20  0.1165E-18  0.1045E-21  0.2271E-21  0.2898E-21  0.7288E-22  0.2027E-20  0.2674E-20  0.7148E-10  0.7124E-10  0.2027E-20  0.2674E-20  0.3017E-21  0.1281E-20
     -3.096  0.1470E-05  0.1458E-05  0.2772E-08  0.2748E-08  0.3659E-08  0.3627E-08  0.2772E-08  0.2748E-08  0.1511E-20  0.1126E-20  0.1098E-19  0.2665E-19  0.5739E-09  0.5718E-09  0.1098E-19  0.2665E-19  0.1702E-10  0.1691E-10
     -3.039  0.4999E-05  0.4957E-05  0.1275E-07  0.1264E-07  0.1946E-07  0.1929E-07  0.1275E-07  0.1264E-07  0.1814E-19  0.7599E-20  0.1051E-09  0.1044E-09  0.1882E-08  0.1875E-08  0.1051E-09  0.1044E-09  0.7840E-10  0.7783E-10
     -2.982  0.1704E-04  0.1690E-04  0.5773E-07  0.5723E-07  0.6758E-07  0.6700E-07  0.5773E-07  0.5723E-07  0.5195E-09  0.5150E-09  0.3922E-09  0.3897E-09  0.6984E-08  0.6957E-08  0.3922E-09  0.3897E-09  0.2024E-09  0.2010E-09
     -2.925  0.5000E-04  0.4958E-04  0.1552E-06  0.1539E-06  0.1920E-06  0.1903E-06  0.1552E-06  0.1539E-06  0.1102E-08  0.1093E-08  0.1055E-08  0.1048E-08  0.2008E-07  0.2000E-07  0.1055E-08  0.1048E-08  0.6306E-09  0.6261E-09
     -2.868  0.1572E-03  0.1559E-03  0.5128E-06  0.5084E-06  0.6866E-06  0.6808E-06  0.5128E-06  0.5084E-06  0.3436E-08  0.3406E-08  0.4121E-08  0.4094E-08  0.6285E-07  0.6262E-07  0.4121E-08  0.4094E-08  0.2470E-08  0.2453E-08
     -2.811  0.4691E-03  0.4654E-03  0.1644E-05  0.1630E-05  0.2096E-05  0.2079E-05  0.1644E-05  0.1630E-05  0.1235E-07  0.1224E-07  0.1399E-07  0.1390E-07  0.1904E-06  0.1898E-06  0.1399E-07  0.1390E-07  0.8529E-08  0.8468E-08
     -2.754  0.1281E-02  0.1272E-02  0.4868E-05  0.4829E-05  0.6084E-05  0.6036E-05  0.4868E-05  0.4829E-05  0.3932E-07  0.3899E-07  0.4202E-07  0.4175E-07  0.5264E-06  0.5250E-06  0.4202E-07  0.4175E-07  0.2477E-07  0.2461E-07
     -2.697  0.2994E-02  0.2977E-02  0.1319E-04  0.1310E-04  0.1617E-04  0.1606E-04  0.1319E-04  0.1310E-04  0.1136E-06  0.1126E-06  0.1235E-06  0.1228E-06  0.1255E-05  0.1254E-05  0.1235E-06  0.1228E-06  0.6681E-07  0.6642E-07
     -2.640  0.5608E-02  0.5587E-02  0.3023E-04  0.3006E-04  0.3673E-04  0.3653E-04  0.3023E-04  0.3006E-04  0.3086E-06  0.3064E-06  0.3252E-06  0.3236E-06  0.2430E-05  0.2431E-05  0.3252E-06  0.3236E-06  0.1546E-06  0.1539E-06
     -2.583  0.8250E-02  0.8233E-02  0.5523E-04  0.5502E-04  0.7108E-04  0.7076E-04  0.5523E-04  0.5502E-04  0.6955E-06  0.6919E-06  0.7242E-06  0.7214E-06  0.3700E-05  0.3707E-05  0.7242E-06  0.7214E-06  0.3163E-06  0.3149E-06
     -2.526  0.1004E-01  0.1003E-01  0.8511E-04  0.8484E-04  0.1196E-03  0.1191E-03  0.8511E-04  0.8484E-04  0.1231E-05  0.1226E-05  0.1400E-05  0.1396E-05  0.4721E-05  0.4733E-05  0.1400E-05  0.1396E-05  0.6816E-06  0.6780E-06
     -2.469  0.1163E-01  0.1161E-01  0.1304E-03  0.1299E-03  0.1787E-03  0.1782E-03  0.1304E-03  0.1299E-03  0.2080E-05  0.2070E-05  0.2524E-05  0.2516E-05  0.6209E-05  0.6215E-05  0.2524E-05  0.2516E-05  0.1507E-05  0.1500E-05
     -2.412  0.1400E-01  0.1398E-01  0.2045E-03  0.2038E-03  0.2378E-03  0.2373E-03  0.2045E-03  0.2038E-03  0.3926E-05  0.3907E-05  0.4212E-05  0.4201E-05  0.9171E-05  0.9176E-05  0.4212E-05  0.4201E-05  0.2744E-05  0.2737E-05
     -2.355  0.1599E-01  0.1598E-01  0.2780E-03  0.2776E-03  0.2981E-03  0.2975E-03  0.2780E-03  0.2776E-03  0.6579E-05  0.6560E-05  0.6329E-05  0.6316E-05  0.1221E-04  0.1224E-04  0.6329E-05  0.6316E-05  0.3759E-05  0.3756E-05
     -2.298  0.1629E-01  0.1629E-01  0.3091E-03  0.3090E-03  0.3977E-03  0.3966E-03  0.3091E-03  0.3090E-03  0.8560E-05  0.8549E-05  0.9264E-05  0.9244E-05  0.1282E-04  0.1286E-04  0.9264E-05  0.9244E-05  0.4195E-05  0.4195E-05
     -2.241  0.1636E-01  0.1635E-01  0.3312E-03  0.3308E-03  0.5467E-03  0.5455E-03  0.3312E-03  0.3308E-03  0.1080E-04  0.1077E-04  0.1365E-04  0.1363E-04  0.1249E-04  0.1252E-04  0.1365E-04  0.1363E-04  0.4687E-05  0.4683E-05
     -2.184  0.1718E-01  0.1717E-01  0.4007E-03  0.4000E-03  0.6457E-03  0.6452E-03  0.4007E-03  0.4000E-03  0.1576E-04  0.1571E-04  0.1795E-04  0.1794E-04  0.1522E-04  0.1523E-04  0.1795E-04  0.1794E-04  0.6354E-05  0.6337E-05
     -2.127  0.1758E-01  0.1758E-01  0.5036E-03  0.5027E-03  0.6309E-03  0.6310E-03  0.5036E-03  0.5027E-03  0.2101E-04  0.2098E-04  0.2037E-04  0.2037E-04  0.2144E-04  0.2144E-04  0.2037E-04  0.2037E-04  0.1061E-04  0.1057E-04
     -2.070  0.1866E-01  0.1865E-01  0.6390E-03  0.6377E-03  0.6685E-03  0.6674E-03  0.6390E-03  0.6377E-03  0.2508E-04  0.2504E-04  0.2555E-04  0.2551E-04  0.2941E-04  0.2943E-04  0.2555E-04  0.2551E-04  0.1779E-04  0.1774E-04
     -2.014  0.2158E-01  0.2155E-01  0.7935E-03  0.7924E-03  0.9153E-03  0.9128E-03  0.7935E-03  0.7924E-03  0.3139E-04  0.3133E-04  0.3766E-04  0.3758E-04  0.3672E-04  0.3677E-04  0.3766E-04  0.3758E-04  0.2410E-04  0.2408E-04
     -1.957  0.2319E-01  0.2319E-01  0.8613E-03  0.8611E-03  0.1215E-02  0.1214E-02  0.8613E-03  0.8611E-03  0.3801E-04  0.3797E-04  0.4983E-04  0.4979E-04  0.3985E-04  0.3993E-04  0.4983E-04  0.4979E-04  0.2560E-04  0.2561E-04
     -1.900  0.2203E-01  0.2204E-01  0.8552E-03  0.8549E-03  0.1330E-02  0.1329E-02  0.8552E-03  0.8549E-03  0.4674E-04  0.4664E-04  0.5517E-04  0.5518E-04  0.4147E-04  0.4153E-04  0.5517E-04  0.5518E-04  0.2421E-04  0.2422E-04
     -1.843  0.2082E-01  0.2082E-01  0.9098E-03  0.9090E-03  0.1281E-02  0.1282E-02  0.9098E-03  0.9090E-03  0.6565E-04  0.6549E-04  0.5949E-04  0.5947E-04  0.4613E-04  0.4619E-04  0.5949E-04  0.5947E-04  0.2303E-04  0.2304E-04
     -1.786  0.2009E-01  0.2009E-01  0.9731E-03  0.9727E-03  0.1286E-02  0.1285E-02  0.9731E-03  0.9727E-03  0.8129E-04  0.8124E-04  0.7090E-04  0.7080E-04  0.4839E-04  0.4849E-04  0.7090E-04  0.7080E-04  0.2279E-04  0.2278E-04
     -1.729  0.2019E-01  0.2018E-01  0.1022E-02  0.1021E-02  0.1544E-02  0.1541E-02  0.1022E-02  0.1021E-02  0.8105E-04  0.8107E-04  0.9473E-04  0.9456E-04  0.4778E-04  0.4785E-04  0.9473E-04  0.9456E-04  0.2810E-04  0.2804E-04
     -1.672  0.2213E-01  0.2211E-01  0.1187E-02  0.1185E-02  0.1913E-02  0.1910E-02  0.1187E-02  0.1185E-02  0.8197E-04  0.8194E-04  0.1213E-03  0.1212E-03  0.5705E-04  0.5702E-04  0.1213E-03  0.1212E-03  0.4375E-04  0.4361E-04
     -1.615  0.2348E-01  0.2347E-01  0.1392E-02  0.1391E-02  0.2043E-02  0.2043E-02  0.1392E-02  0.1391E-02  0.8891E-04  0.8885E-04  0.1252E-03  0.1253E-03  0.7959E-04  0.7953E-04  0.1252E-03  0.1253E-03  0.6562E-04  0.6548E-04
     -1.558  0.2329E-01  0.2329E-01  0.1541E-02  0.1539E-02  0.2040E-02  0.2039E-02  0.1541E-02  0.1539E-02  0.1057E-03  0.1055E-03  0.1164E-03  0.1164E-03  0.1058E-03  0.1058E-03  0.1164E-03  0.1164E-03  0.8239E-04  0.8233E-04
     -1.501  0.2426E-01  0.2425E-01  0.1726E-02  0.1724E-02  0.2271E-02  0.2268E-02  0.1726E-02  0.1724E-02  0.1455E-03  0.1451E-03  0.1401E-03  0.1398E-03  0.1225E-03  0.1226E-03  0.1401E-03  0.1398E-03  0.8780E-04  0.8781E-04
     -1.444  0.2607E-01  0.2605E-01  0.1942E-02  0.1940E-02  0.2616E-02  0.2614E-02  0.1942E-02  0.1940E-02  0.1906E-03  0.1903E-03  0.1943E-03  0.1940E-03  0.1260E-03  0.1262E-03  0.1943E-03  0.1940E-03  0.8943E-04  0.8943E-04
     -1.387  0.2689E-01  0.2689E-01  0.2085E-02  0.2085E-02  0.2905E-02  0.2903E-02  0.2085E-02  0.2085E-02  0.2215E-03  0.2214E-03  0.2405E-03  0.2403E-03  0.1294E-03  0.1295E-03  0.2405E-03  0.2403E-03  0.9272E-04  0.9274E-04
     -1.330  0.2569E-01  0.2571E-01  0.2035E-02  0.2036E-02  0.3156E-02  0.3154E-02  0.2035E-02  0.2036E-02  0.2309E-03  0.2309E-03  0.2640E-03  0.2640E-03  0.1305E-03  0.1307E-03  0.2640E-03  0.2640E-03  0.8860E-04  0.8867E-04
     -1.273  0.2234E-01  0.2236E-01  0.1809E-02  0.1810E-02  0.3176E-02  0.3176E-02  0.1809E-02  0.1810E-02  0.2095E-03  0.2097E-03  0.2684E-03  0.2684E-03  0.1163E-03  0.1166E-03  0.2684E-03  0.2684E-03  0.8093E-04  0.8097E-04
     -1.216  0.2006E-01  0.2006E-01  0.1731E-02  0.1731E-02  0.3198E-02  0.3196E-02  0.1731E-02  0.1731E-02  0.2056E-03  0.2054E-03  0.2840E-03  0.2838E-03  0.1051E-03  0.1053E-03  0.2840E-03  0.2838E-03  0.8222E-04  0.8221E-04
     -1.159  0.2003E-01  0.2003E-01  0.1829E-02  0.1827E-02  0.3692E-02  0.3687E-02  0.1829E-02  0.1827E-02  0.2402E-03  0.2399E-03  0.3231E-03  0.3228E-03  0.1160E-03  0.1160E-03  0.3231E-03  0.3228E-03  0.8610E-04  0.8610E-04
     -1.102  0.2081E-01  0.2080E-01  0.2033E-02  0.2030E-02  0.4298E-02  0.4294E-02  0.2033E-02  0.2030E-02  0.3001E-03  0.2995E-03  0.3544E-03  0.3542E-03  0.1550E-03  0.1548E-03  0.3544E-03  0.3542E-03  0.1002E-03  0.9996E-04
     -1.045  0.2341E-01  0.2339E-01  0.2576E-02  0.2570E-02  0.4679E-02  0.4675E-02  0.2576E-02  0.2570E-02  0.3870E-03  0.3864E-03  0.3995E-03  0.3990E-03  0.2189E-03  0.2187E-03  0.3995E-03  0.3990E-03  0.1517E-03  0.1512E-03
     -0.988  0.2694E-01  0.2692E-01  0.3226E-02  0.3222E-02  0.5258E-02  0.5252E-02  0.3226E-02  0.3222E-02  0.4459E-03  0.4458E-03  0.4943E-03  0.4935E-03  0.2702E-03  0.2704E-03  0.4943E-03  0.4935E-03  0.2222E-03  0.2218E-03
     -0.932  0.2765E-01  0.2765E-01  0.3449E-02  0.3448E-02  0.6042E-02  0.6037E-02  0.3449E-02  0.3448E-02  0.4441E-03  0.4442E-03  0.5851E-03  0.5847E-03  0.2777E-03  0.2782E-03  0.5851E-03  0.5847E-03  0.2579E-03  0.2578E-03
     -0.875  0.2577E-01  0.2578E-01  0.3352E-02  0.3353E-02  0.6343E-02  0.6343E-02  0.3352E-02  0.3353E-02  0.4480E-03  0.4480E-03  0.6255E-03  0.6254E-03  0.2595E-03  0.2600E-03  0.6255E-03  0.6254E-03  0.2535E-03  0.2536E-03
     -0.818  0.2327E-01  0.2329E-01  0.3218E-02  0.3218E-02  0.5908E-02  0.5911E-02  0.3218E-02  0.3218E-02  0.4701E-03  0.4700E-03  0.6311E-03  0.6310E-03  0.2425E-03  0.2430E-03  0.6311E-03  0.6310E-03  0.2418E-03  0.2419E-03
     -0.761  0.2141E-01  0.2143E-01  0.3141E-02  0.3141E-02  0.5596E-02  0.5595E-02  0.3141E-02  0.3141E-02  0.5144E-03  0.5142E-03  0.6706E-03  0.6702E-03  0.2309E-03  0.2313E-03  0.6706E-03  0.6702E-03  0.2284E-03  0.2285E-03
     -0.704  0.2079E-01  0.2079E-01  0.3178E-02  0.3177E-02  0.6109E-02  0.6102E-02  0.3178E-02  0.3177E-02  0.5810E-03  0.5805E-03  0.7935E-03  0.7923E-03  0.2210E-03  0.2213E-03  0.7935E-03  0.7923E-03  0.2174E-03  0.2174E-03
     -0.647  0.2089E-01  0.2089E-01  0.3307E-02  0.3306E-02  0.6785E-02  0.6781E-02  0.3307E-02  0.3306E-02  0.6510E-03  0.6506E-03  0.9304E-03  0.9295E-03  0.2283E-03  0.2285E-03  0.9304E-03  0.9295E-03  0.2205E-03  0.2205E-03