   8   8   1   0
  0.1406550E+02  0.3688594E-09  0.3688594E-09  0.8270344E-09  0.5000000E-15
  1.000000000000000E-004
  CAR 
 unknown system                          
     13.20166011     -3.61209095  301      7.84551330      1.00000000
     -3.612  0.0000E+00  0.0000E+00  0.0000E+00  0.0000E+00
     -3.556  0.0000E+00  0.0000E+00  0.0000E+00  0.0000E+00
     -3.500  0.0000E+00  0.0000E+00  0.0000E+00  0.0000E+00
     -3.444  0.0000E+00  0.0000E+00  0.0000E+00  0.0000E+00
     -3.388  0.0000E+00  0.0000E+00  0.0000E+00  0.0000E+00
     -3.332  0.0000E+00  0.0000E+00  0.0000E+00  0.0000E+00
     -3.276  0.2890E-05  0.2888E-05  0.1620E-06  0.1618E-06
     -3.220  0.2255E-04  0.2252E-04  0.1426E-05  0.1424E-05
     -3.164  0.8358E-04  0.8349E-04  0.6110E-05  0.6104E-05
     -3.108  0.2486E-03  0.2484E-03  0.2004E-04  0.2002E-04
     -3.052  0.7496E-03  0.7489E-03  0.6206E-04  0.6200E-04
     -2.996  0.2259E-02  0.2257E-02  0.1887E-03  0.1885E-03
     -2.940  0.6673E-02  0.6667E-02  0.5627E-03  0.5622E-03
     -2.883  0.1793E-01  0.1791E-01  0.1568E-02  0.1566E-02
     -2.827  0.4140E-01  0.4137E-01  0.3888E-02  0.3885E-02
     -2.771  0.7718E-01  0.7714E-01  0.8213E-02  0.8208E-02
     -2.715  0.1138E+00  0.1138E+00  0.1459E-01  0.1459E-01
     -2.659  0.1404E+00  0.1403E+00  0.2246E-01  0.2245E-01
     -2.603  0.1655E+00  0.1655E+00  0.3173E-01  0.3172E-01
     -2.547  0.2013E+00  0.2012E+00  0.4301E-01  0.4300E-01
     -2.491  0.2309E+00  0.2309E+00  0.5595E-01  0.5594E-01
     -2.435  0.2386E+00  0.2386E+00  0.6932E-01  0.6931E-01
     -2.379  0.2450E+00  0.2450E+00  0.8306E-01  0.8304E-01
     -2.323  0.2606E+00  0.2606E+00  0.9767E-01  0.9766E-01
     -2.267  0.2704E+00  0.2704E+00  0.1128E+00  0.1128E+00
     -2.211  0.2941E+00  0.2941E+00  0.1293E+00  0.1293E+00
     -2.155  0.3443E+00  0.3442E+00  0.1486E+00  0.1486E+00
     -2.099  0.3711E+00  0.3710E+00  0.1694E+00  0.1694E+00
     -2.043  0.3577E+00  0.3578E+00  0.1895E+00  0.1895E+00
     -1.987  0.3444E+00  0.3444E+00  0.2088E+00  0.2088E+00
     -1.931  0.3389E+00  0.3389E+00  0.2278E+00  0.2278E+00
     -1.875  0.3527E+00  0.3527E+00  0.2476E+00  0.2476E+00
     -1.819  0.3950E+00  0.3949E+00  0.2697E+00  0.2697E+00
     -1.763  0.4204E+00  0.4204E+00  0.2933E+00  0.2933E+00
     -1.707  0.4266E+00  0.4266E+00  0.3172E+00  0.3172E+00
     -1.650  0.4568E+00  0.4568E+00  0.3428E+00  0.3428E+00
     -1.594  0.4973E+00  0.4972E+00  0.3707E+00  0.3707E+00
     -1.538  0.5178E+00  0.5178E+00  0.3998E+00  0.3997E+00
     -1.482  0.5004E+00  0.5004E+00  0.4278E+00  0.4278E+00
     -1.426  0.4482E+00  0.4483E+00  0.4529E+00  0.4529E+00
     -1.370  0.4256E+00  0.4256E+00  0.4768E+00  0.4768E+00
     -1.314  0.4480E+00  0.4479E+00  0.5019E+00  0.5019E+00
     -1.258  0.4887E+00  0.4886E+00  0.5293E+00  0.5293E+00
     -1.202  0.5643E+00  0.5641E+00  0.5610E+00  0.5609E+00
     -1.146  0.6497E+00  0.6496E+00  0.5974E+00  0.5973E+00
     -1.090  0.6800E+00  0.6800E+00  0.6355E+00  0.6355E+00
     -1.034  0.6543E+00  0.6544E+00  0.6722E+00  0.6722E+00
     -0.978  0.6056E+00  0.6056E+00  0.7062E+00  0.7061E+00
     -0.922  0.5787E+00  0.5787E+00  0.7386E+00  0.7386E+00
     -0.866  0.5964E+00  0.5963E+00  0.7721E+00  0.7720E+00
     -0.810  0.6190E+00  0.6190E+00  0.8068E+00  0.8067E+00
     -0.754  0.5915E+00  0.5916E+00  0.8400E+00  0.8399E+00
     -0.698  0.5535E+00  0.5535E+00  0.8710E+00  0.8710E+00
     -0.642  0.5897E+00  0.5896E+00  0.9041E+00  0.9040E+00
     -0.586  0.6618E+00  0.6617E+00  0.9412E+00  0.9411E+00
     -0.530  0.6702E+00  0.6703E+00  0.9788E+00  0.9787E+00
     -0.474  0.6157E+00  0.6158E+00  0.1013E+01  0.1013E+01
     -0.417  0.5820E+00  0.5819E+00  0.1046E+01  0.1046E+01
     -0.361  0.6231E+00  0.6230E+00  0.1081E+01  0.1081E+01
     -0.305  0.6958E+00  0.6957E+00  0.1120E+01  0.1120E+01
     -0.249  0.7419E+00  0.7419E+00  0.1161E+01  0.1161E+01
     -0.193  0.7476E+00  0.7476E+00  0.1203E+01  0.1203E+01
     -0.137  0.6945E+00  0.6947E+00  0.1242E+01  0.1242E+01
     -0.081  0.6187E+00  0.6189E+00  0.1277E+01  0.1277E+01
     -0.025  0.6024E+00  0.6024E+00  0.1311E+01  0.1311E+01
      0.031  0.6408E+00  0.6406E+00  0.1347E+01  0.1347E+01
      0.087  0.6773E+00  0.6773E+00  0.1385E+01  0.1385E+01
      0.143  0.6835E+00  0.6836E+00  0.1423E+01  0.1423E+01
      0.199  0.7069E+00  0.7069E+00  0.1463E+01  0.1463E+01
      0.255  0.8248E+00  0.8245E+00  0.1509E+01  0.1509E+01
      0.311  0.9113E+00  0.9113E+00  0.1560E+01  0.1560E+01
      0.367  0.8503E+00  0.8506E+00  0.1608E+01  0.1608E+01
      0.423  0.7749E+00  0.7751E+00  0.1651E+01  0.1651E+01
      0.479  0.7515E+00  0.7516E+00  0.1693E+01  0.1693E+01
      0.535  0.7211E+00  0.7210E+00  0.1734E+01  0.1734E+01
      0.591  0.6980E+00  0.6979E+00  0.1773E+01  0.1773E+01
      0.647  0.7420E+00  0.7419E+00  0.1815E+01  0.1815E+01
      0.703  0.7974E+00  0.7974E+00  0.1859E+01  0.1859E+01
      0.759  0.8054E+00  0.8054E+00  0.1905E+01  0.1904E+01
      0.816  0.8442E+00  0.8442E+00  0.1952E+01  0.1952E+01
      0.872  0.9253E+00  0.9252E+00  0.2004E+01  0.2004E+01
      0.928  0.9837E+00  0.9836E+00  0.2059E+01  0.2059E+01
      0.984  0.1013E+01  0.1013E+01  0.2116E+01  0.2116E+01
      1.040  0.1032E+01  0.1032E+01  0.2174E+01  0.2173E+01
      1.096  0.1032E+01  0.1032E+01  0.2231E+01  0.2231E+01
      1.152  0.9889E+00  0.9889E+00  0.2287E+01  0.2287E+01
      1.208  0.9291E+00  0.9292E+00  0.2339E+01  0.2339E+01
      1.264  0.8889E+00  0.8890E+00  0.2389E+01  0.2389E+01
      1.320  0.8752E+00  0.8751E+00  0.2438E+01  0.2438E+01
      1.376  0.9430E+00  0.9428E+00  0.2491E+01  0.2491E+01
      1.432  0.1028E+01  0.1028E+01  0.2548E+01  0.2548E+01
      1.488  0.1012E+01  0.1012E+01  0.2605E+01  0.2605E+01
      1.544  0.9719E+00  0.9720E+00  0.2660E+01  0.2660E+01
      1.600  0.9931E+00  0.9930E+00  0.2715E+01  0.2715E+01
      1.656  0.1049E+01  0.1049E+01  0.2774E+01  0.2774E+01
      1.712  0.1022E+01  0.1022E+01  0.2832E+01  0.2832E+01
      1.768  0.8655E+00  0.8658E+00  0.2880E+01  0.2880E+01
      1.824  0.6888E+00  0.6890E+00  0.2919E+01  0.2919E+01
      1.880  0.6285E+00  0.6285E+00  0.2954E+01  0.2954E+01
      1.936  0.7001E+00  0.7000E+00  0.2993E+01  0.2993E+01
      1.992  0.7816E+00  0.7816E+00  0.3037E+01  0.3037E+01
      2.049  0.8010E+00  0.8010E+00  0.3082E+01  0.3082E+01
      2.105  0.8135E+00  0.8135E+00  0.3128E+01  0.3128E+01
      2.161  0.8511E+00  0.8511E+00  0.3175E+01  0.3175E+01
      2.217  0.8457E+00  0.8458E+00  0.3223E+01  0.3223E+01
      2.273  0.7723E+00  0.7723E+00  0.3266E+01  0.3266E+01
      2.329  0.7226E+00  0.7227E+00  0.3307E+01  0.3307E+01
      2.385  0.7742E+00  0.7743E+00  0.3350E+01  0.3350E+01
      2.441  0.8750E+00  0.8751E+00  0.3399E+01  0.3399E+01
      2.497  0.9229E+00  0.9231E+00  0.3451E+01  0.3451E+01
      2.553  0.9427E+00  0.9430E+00  0.3504E+01  0.3504E+01
      2.609  0.9799E+00  0.9801E+00  0.3559E+01  0.3559E+01
      2.665  0.1056E+01  0.1056E+01  0.3618E+01  0.3618E+01
      2.721  0.1137E+01  0.1137E+01  0.3682E+01  0.3682E+01
      2.777  0.1192E+01  0.1191E+01  0.3748E+01  0.3748E+01
      2.833  0.1189E+01  0.1189E+01  0.3815E+01  0.3815E+01
      2.889  0.1077E+01  0.1077E+01  0.3876E+01  0.3876E+01
      2.945  0.9812E+00  0.9812E+00  0.3931E+01  0.3931E+01
      3.001  0.9740E+00  0.9742E+00  0.3985E+01  0.3985E+01
      3.057  0.1023E+01  0.1023E+01  0.4043E+01  0.4043E+01
      3.113  0.1107E+01  0.1107E+01  0.4105E+01  0.4105E+01
      3.169  0.1209E+01  0.1209E+01  0.4172E+01  0.4172E+01
      3.226  0.1305E+01  0.1305E+01  0.4246E+01  0.4246E+01
      3.282  0.1329E+01  0.1329E+01  0.4320E+01  0.4320E+01
      3.338  0.1258E+01  0.1258E+01  0.4391E+01  0.4391E+01
      3.394  0.1178E+01  0.1178E+01  0.4457E+01  0.4457E+01
      3.450  0.1216E+01  0.1216E+01  0.4525E+01  0.4525E+01
      3.506  0.1275E+01  0.1275E+01  0.4596E+01  0.4596E+01
      3.562  0.1215E+01  0.1215E+01  0.4665E+01  0.4665E+01
      3.618  0.1115E+01  0.1116E+01  0.4727E+01  0.4727E+01
      3.674  0.1089E+01  0.1090E+01  0.4788E+01  0.4788E+01
      3.730  0.1139E+01  0.1139E+01  0.4852E+01  0.4852E+01
      3.786  0.1180E+01  0.1180E+01  0.4918E+01  0.4918E+01
      3.842  0.1166E+01  0.1166E+01  0.4984E+01  0.4984E+01
      3.898  0.1152E+01  0.1152E+01  0.5048E+01  0.5048E+01
      3.954  0.1181E+01  0.1181E+01  0.5114E+01  0.5115E+01
      4.010  0.1283E+01  0.1284E+01  0.5186E+01  0.5186E+01
      4.066  0.1407E+01  0.1407E+01  0.5265E+01  0.5265E+01
      4.122  0.1404E+01  0.1404E+01  0.5344E+01  0.5344E+01
      4.178  0.1276E+01  0.1276E+01  0.5416E+01  0.5416E+01
      4.234  0.1219E+01  0.1219E+01  0.5484E+01  0.5484E+01
      4.290  0.1214E+01  0.1214E+01  0.5552E+01  0.5552E+01
      4.346  0.1172E+01  0.1172E+01  0.5618E+01  0.5618E+01
      4.402  0.1142E+01  0.1142E+01  0.5682E+01  0.5682E+01
      4.459  0.1183E+01  0.1183E+01  0.5748E+01  0.5748E+01
      4.515  0.1228E+01  0.1228E+01  0.5817E+01  0.5817E+01
      4.571  0.1226E+01  0.1225E+01  0.5886E+01  0.5886E+01
      4.627  0.1241E+01  0.1241E+01  0.5955E+01  0.5955E+01
      4.683  0.1300E+01  0.1300E+01  0.6028E+01  0.6028E+01
      4.739  0.1291E+01  0.1291E+01  0.6101E+01  0.6101E+01
      4.795  0.1225E+01  0.1225E+01  0.6169E+01  0.6169E+01
      4.851  0.1265E+01  0.1265E+01  0.6240E+01  0.6240E+01
      4.907  0.1443E+01  0.1443E+01  0.6321E+01  0.6321E+01
      4.963  0.1626E+01  0.1626E+01  0.6412E+01  0.6412E+01
      5.019  0.1688E+01  0.1688E+01  0.6507E+01  0.6507E+01
      5.075  0.1622E+01  0.1622E+01  0.6598E+01  0.6598E+01
      5.131  0.1546E+01  0.1546E+01  0.6685E+01  0.6685E+01
      5.187  0.1606E+01  0.1606E+01  0.6775E+01  0.6775E+01
      5.243  0.1782E+01  0.1782E+01  0.6875E+01  0.6875E+01
      5.299  0.1913E+01  0.1913E+01  0.6982E+01  0.6982E+01
      5.355  0.1880E+01  0.1880E+01  0.7087E+01  0.7087E+01
      5.411  0.1700E+01  0.1700E+01  0.7183E+01  0.7183E+01
      5.467  0.1488E+01  0.1488E+01  0.7266E+01  0.7266E+01
      5.523  0.1409E+01  0.1409E+01  0.7345E+01  0.7345E+01
      5.579  0.1455E+01  0.1455E+01  0.7427E+01  0.7427E+01
      5.635  0.1579E+01  0.1579E+01  0.7515E+01  0.7515E+01
      5.692  0.1787E+01  0.1787E+01  0.7615E+01  0.7616E+01
      5.748  0.2011E+01  0.2012E+01  0.7728E+01  0.7729E+01
      5.804  0.2249E+01  0.2250E+01  0.7854E+01  0.7855E+01
      5.860  0.2436E+01  0.2436E+01  0.7991E+01  0.7991E+01
      5.916  0.2473E+01  0.2473E+01  0.8130E+01  0.8130E+01
      5.972  0.2398E+01  0.2398E+01  0.8264E+01  0.8264E+01
      6.028  0.2290E+01  0.2290E+01  0.8392E+01  0.8393E+01
      6.084  0.2143E+01  0.2143E+01  0.8513E+01  0.8513E+01
      6.140  0.2104E+01  0.2105E+01  0.8631E+01  0.8631E+01
      6.196  0.2170E+01  0.2170E+01  0.8752E+01  0.8753E+01
      6.252  0.2224E+01  0.2224E+01  0.8877E+01  0.8877E+01
      6.308  0.2333E+01  0.2333E+01  0.9008E+01  0.9008E+01
      6.364  0.2531E+01  0.2532E+01  0.9150E+01  0.9150E+01
      6.420  0.2691E+01  0.2692E+01  0.9301E+01  0.9301E+01
      6.476  0.2760E+01  0.2761E+01  0.9456E+01  0.9456E+01
      6.532  0.2785E+01  0.2785E+01  0.9612E+01  0.9612E+01
      6.588  0.2859E+01  0.2860E+01  0.9772E+01  0.9773E+01
      6.644  0.3080E+01  0.3081E+01  0.9945E+01  0.9945E+01
      6.700  0.3444E+01  0.3446E+01  0.1014E+02  0.1014E+02
      6.756  0.3767E+01  0.3768E+01  0.1035E+02  0.1035E+02
      6.812  0.3826E+01  0.3826E+01  0.1056E+02  0.1056E+02
      6.868  0.3537E+01  0.3535E+01  0.1076E+02  0.1076E+02
      6.925  0.3034E+01  0.3033E+01  0.1093E+02  0.1093E+02
      6.981  0.2631E+01  0.2631E+01  0.1108E+02  0.1108E+02
      7.037  0.2415E+01  0.2415E+01  0.1122E+02  0.1122E+02
      7.093  0.2334E+01  0.2334E+01  0.1135E+02  0.1135E+02
      7.149  0.2379E+01  0.2380E+01  0.1148E+02  0.1148E+02
      7.205  0.2438E+01  0.2438E+01  0.1162E+02  0.1162E+02
      7.261  0.2349E+01  0.2349E+01  0.1175E+02  0.1175E+02
      7.317  0.2280E+01  0.2281E+01  0.1188E+02  0.1188E+02
      7.373  0.2453E+01  0.2455E+01  0.1201E+02  0.1201E+02
      7.429  0.2696E+01  0.2697E+01  0.1216E+02  0.1217E+02
      7.485  0.2671E+01  0.2670E+01  0.1231E+02  0.1232E+02
      7.541  0.2416E+01  0.2414E+01  0.1245E+02  0.1245E+02
      7.597  0.2135E+01  0.2133E+01  0.1257E+02  0.1257E+02
      7.653  0.1919E+01  0.1918E+01  0.1268E+02  0.1268E+02
      7.709  0.1774E+01  0.1773E+01  0.1278E+02  0.1278E+02
      7.765  0.1686E+01  0.1686E+01  0.1287E+02  0.1287E+02
      7.821  0.1617E+01  0.1616E+01  0.1296E+02  0.1296E+02
      7.877  0.1528E+01  0.1527E+01  0.1305E+02  0.1305E+02
      7.933  0.1463E+01  0.1462E+01  0.1313E+02  0.1313E+02
      7.989  0.1442E+01  0.1442E+01  0.1321E+02  0.1321E+02
      8.045  0.1411E+01  0.1411E+01  0.1329E+02  0.1329E+02
      8.101  0.1359E+01  0.1359E+01  0.1337E+02  0.1337E+02
      8.158  0.1295E+01  0.1294E+01  0.1344E+02  0.1344E+02
      8.214  0.1235E+01  0.1235E+01  0.1351E+02  0.1351E+02
      8.270  0.1202E+01  0.1202E+01  0.1358E+02  0.1358E+02
      8.326  0.1179E+01  0.1179E+01  0.1364E+02  0.1364E+02
      8.382  0.1200E+01  0.1201E+01  0.1371E+02  0.1371E+02
      8.438  0.1203E+01  0.1203E+01  0.1378E+02  0.1378E+02
      8.494  0.1192E+01  0.1193E+01  0.1384E+02  0.1384E+02
      8.550  0.1199E+01  0.1199E+01  0.1391E+02  0.1391E+02
      8.606  0.1096E+01  0.1095E+01  0.1397E+02  0.1397E+02
      8.662  0.8226E+00  0.8203E+00  0.1402E+02  0.1402E+02
      8.718  0.5384E+00  0.5369E+00  0.1405E+02  0.1405E+02
      8.774  0.4146E+00  0.4144E+00  0.1407E+02  0.1407E+02
      8.830  0.4523E+00  0.4528E+00  0.1410E+02  0.1410E+02
      8.886  0.5493E+00  0.5500E+00  0.1413E+02  0.1413E+02
      8.942  0.6491E+00  0.6498E+00  0.1416E+02  0.1416E+02
      8.998  0.7695E+00  0.7703E+00  0.1421E+02  0.1421E+02
      9.054  0.9093E+00  0.9104E+00  0.1426E+02  0.1426E+02
      9.110  0.1123E+01  0.1125E+01  0.1432E+02  0.1432E+02
      9.166  0.1452E+01  0.1455E+01  0.1440E+02  0.1440E+02
      9.222  0.1837E+01  0.1839E+01  0.1451E+02  0.1451E+02
      9.278  0.2130E+01  0.2132E+01  0.1463E+02  0.1463E+02
      9.334  0.2319E+01  0.2320E+01  0.1476E+02  0.1476E+02
      9.391  0.2470E+01  0.2470E+01  0.1489E+02  0.1489E+02
      9.447  0.2535E+01  0.2536E+01  0.1504E+02  0.1504E+02
      9.503  0.2597E+01  0.2598E+01  0.1518E+02  0.1518E+02
      9.559  0.2844E+01  0.2848E+01  0.1534E+02  0.1534E+02
      9.615  0.3352E+01  0.3358E+01  0.1553E+02  0.1553E+02
      9.671  0.3870E+01  0.3873E+01  0.1575E+02  0.1575E+02
      9.727  0.4071E+01  0.4071E+01  0.1597E+02  0.1598E+02
      9.783  0.4162E+01  0.4165E+01  0.1621E+02  0.1621E+02
      9.839  0.4504E+01  0.4512E+01  0.1646E+02  0.1646E+02
      9.895  0.5088E+01  0.5101E+01  0.1674E+02  0.1675E+02
      9.951  0.5466E+01  0.5483E+01  0.1705E+02  0.1706E+02
     10.007  0.5213E+01  0.5243E+01  0.1734E+02  0.1735E+02
     10.063  0.4514E+01  0.4562E+01  0.1760E+02  0.1761E+02
     10.119  0.3665E+01  0.3714E+01  0.1780E+02  0.1781E+02
     10.175  0.2907E+01  0.2937E+01  0.1797E+02  0.1798E+02
     10.231  0.2482E+01  0.2495E+01  0.1810E+02  0.1812E+02
     10.287  0.2286E+01  0.2291E+01  0.1823E+02  0.1825E+02
     10.343  0.2079E+01  0.2080E+01  0.1835E+02  0.1836E+02
     10.399  0.1820E+01  0.1819E+01  0.1845E+02  0.1847E+02
     10.455  0.1602E+01  0.1601E+01  0.1854E+02  0.1856E+02
     10.511  0.1528E+01  0.1528E+01  0.1863E+02  0.1864E+02
     10.568  0.1537E+01  0.1537E+01  0.1871E+02  0.1873E+02
     10.624  0.1500E+01  0.1499E+01  0.1880E+02  0.1881E+02
     10.680  0.1501E+01  0.1501E+01  0.1888E+02  0.1890E+02
     10.736  0.1588E+01  0.1588E+01  0.1897E+02  0.1898E+02
     10.792  0.1755E+01  0.1753E+01  0.1907E+02  0.1908E+02
     10.848  0.1885E+01  0.1880E+01  0.1918E+02  0.1919E+02
     10.904  0.1859E+01  0.1857E+01  0.1928E+02  0.1929E+02
     10.960  0.1764E+01  0.1782E+01  0.1938E+02  0.1939E+02
     11.016  0.1543E+01  0.1583E+01  0.1946E+02  0.1948E+02
     11.072  0.1199E+01  0.1236E+01  0.1953E+02  0.1955E+02
     11.128  0.9061E+00  0.9185E+00  0.1958E+02  0.1960E+02
     11.184  0.7444E+00  0.7342E+00  0.1962E+02  0.1964E+02
     11.240  0.6974E+00  0.6683E+00  0.1966E+02  0.1968E+02
     11.296  0.6725E+00  0.6436E+00  0.1970E+02  0.1972E+02
     11.352  0.6428E+00  0.6207E+00  0.1974E+02  0.1975E+02
     11.408  0.6073E+00  0.5903E+00  0.1977E+02  0.1979E+02
     11.464  0.5604E+00  0.5414E+00  0.1980E+02  0.1982E+02
     11.520  0.5211E+00  0.4831E+00  0.1983E+02  0.1984E+02
     11.576  0.4888E+00  0.4206E+00  0.1986E+02  0.1987E+02
     11.632  0.4169E+00  0.3351E+00  0.1988E+02  0.1989E+02
     11.688  0.3232E+00  0.2498E+00  0.1990E+02  0.1990E+02
     11.744  0.2682E+00  0.2134E+00  0.1992E+02  0.1991E+02
     11.801  0.2299E+00  0.2177E+00  0.1993E+02  0.1992E+02
     11.857  0.1797E+00  0.2237E+00  0.1994E+02  0.1994E+02
     11.913  0.1456E+00  0.2190E+00  0.1995E+02  0.1995E+02
     11.969  0.1331E+00  0.1960E+00  0.1996E+02  0.1996E+02
     12.025  0.1134E+00  0.1486E+00  0.1996E+02  0.1997E+02
     12.081  0.9939E-01  0.1172E+00  0.1997E+02  0.1997E+02
     12.137  0.1027E+00  0.1106E+00  0.1997E+02  0.1998E+02
     12.193  0.9616E-01  0.9247E-01  0.1998E+02  0.1999E+02
     12.249  0.6955E-01  0.5828E-01  0.1998E+02  0.1999E+02
     12.305  0.5947E-01  0.4172E-01  0.1999E+02  0.1999E+02
     12.361  0.7313E-01  0.4614E-01  0.1999E+02  0.1999E+02
     12.417  0.7803E-01  0.4822E-01  0.1999E+02  0.2000E+02
     12.473  0.5691E-01  0.3472E-01  0.2000E+02  0.2000E+02
     12.529  0.2935E-01  0.1744E-01  0.2000E+02  0.2000E+02
     12.585  0.1173E-01  0.6785E-02  0.2000E+02  0.2000E+02
     12.641  0.4154E-02  0.2373E-02  0.2000E+02  0.2000E+02
     12.697  0.1393E-02  0.7924E-03  0.2000E+02  0.2000E+02
     12.753  0.3779E-03  0.2604E-03  0.2000E+02  0.2000E+02
     12.809  0.7317E-04  0.5253E-04  0.2000E+02  0.2000E+02
     12.865  0.0000E+00  0.0000E+00  0.2000E+02  0.2000E+02
     12.921  0.0000E+00  0.0000E+00  0.2000E+02  0.2000E+02
     12.977  0.0000E+00  0.0000E+00  0.2000E+02  0.2000E+02
     13.034  0.0000E+00  0.0000E+00  0.2000E+02  0.2000E+02
     13.090  0.0000E+00  0.0000E+00  0.2000E+02  0.2000E+02
     13.146  0.0000E+00  0.0000E+00  0.2000E+02  0.2000E+02
     13.202  0.0000E+00  0.0000E+00  0.2000E+02  0.2000E+02
     13.20166011     -3.61209095  301      7.84551330      1.00000000
     -3.612  0.0000E+00  0.0000E+00  0.0000E+00  0.0000E+00  0.0000E+00  0.0000E+00  0.0000E+00  0.0000E+00  0.0000E+00  0.0000E+00  0.0000E+00  0.0000E+00  0.0000E+00  0.0000E+00  0.0000E+00  0.0000E+00  0.0000E+00  0.0000E+00
     -3.556  0.0000E+00  0.0000E+00  0.0000E+00  0.0000E+00  0.0000E+00  0.0000E+00  0.0000E+00  0.0000E+00  0.0000E+00  0.0000E+00  0.0000E+00  0.0000E+00  0.0000E+00  0.0000E+00  0.0000E+00  0.0000E+00  0.0000E+00  0.0000E+00
     -3.500  0.0000E+00  0.0000E+00  0.0000E+00  0.0000E+00  0.0000E+00  0.0000E+00  0.0000E+00  0.0000E+00  0.0000E+00  0.0000E+00  0.0000E+00  0.0000E+00  0.0000E+00  0.0000E+00  0.0000E+00  0.0000E+00  0.0000E+00  0.0000E+00
     -3.444  0.0000E+00  0.0000E+00  0.0000E+00  0.0000E+00  0.0000E+00  0.0000E+00  0.0000E+00  0.0000E+00  0.0000E+00  0.0000E+00  0.0000E+00  0.0000E+00  0.0000E+00  0.0000E+00  0.0000E+00  0.0000E+00  0.0000E+00  0.0000E+00
     -3.388  0.0000E+00  0.0000E+00  0.0000E+00  0.0000E+00  0.0000E+00  0.0000E+00  0.0000E+00  0.0000E+00  0.0000E+00  0.0000E+00  0.0000E+00  0.0000E+00  0.0000E+00  0.0000E+00  0.0000E+00  0.0000E+00  0.0000E+00  0.0000E+00
     -3.332  0.0000E+00  0.0000E+00  0.0000E+00  0.0000E+00  0.0000E+00  0.0000E+00  0.0000E+00  0.0000E+00  0.0000E+00  0.0000E+00  0.0000E+00  0.0000E+00  0.0000E+00  0.0000E+00  0.0000E+00  0.0000E+00  0.0000E+00  0.0000E+00
     -3.276  0.2114E-06  0.2113E-06  0.3385E-22  0.1614E-22  0.1819E-19  0.3439E-19  0.3385E-22  0.1614E-22  0.1613E-22  0.9966E-22  0.8657E-22  0.3756E-21  0.6689E-10  0.6714E-10  0.8657E-22  0.3756E-21  0.6012E-21  0.9256E-21
     -3.220  0.1633E-05  0.1632E-05  0.3110E-08  0.3108E-08  0.4044E-08  0.4041E-08  0.3110E-08  0.3108E-08  0.1187E-21  0.4827E-21  0.2465E-20  0.2727E-20  0.5399E-09  0.5417E-09  0.2465E-20  0.2727E-20  0.1856E-10  0.1857E-10
     -3.164  0.6021E-05  0.6017E-05  0.1918E-07  0.1917E-07  0.2145E-07  0.2143E-07  0.1918E-07  0.1917E-07  0.1043E-09  0.1042E-09  0.1160E-09  0.1160E-09  0.2072E-08  0.2079E-08  0.1160E-09  0.1160E-09  0.8449E-10  0.8449E-10
     -3.108  0.1789E-04  0.1788E-04  0.5857E-07  0.5853E-07  0.7370E-07  0.7364E-07  0.5857E-07  0.5853E-07  0.4770E-09  0.4766E-09  0.4289E-09  0.4290E-09  0.6095E-08  0.6114E-08  0.4289E-09  0.4290E-09  0.2129E-09  0.2129E-09
     -3.052  0.5393E-04  0.5389E-04  0.1717E-06  0.1716E-06  0.2384E-06  0.2382E-06  0.1717E-06  0.1716E-06  0.1201E-08  0.1200E-08  0.1430E-08  0.1430E-08  0.1804E-07  0.1810E-07  0.1430E-08  0.1430E-08  0.6804E-09  0.6804E-09
     -2.996  0.1625E-03  0.1624E-03  0.5388E-06  0.5384E-06  0.6915E-06  0.6909E-06  0.5388E-06  0.5384E-06  0.3675E-08  0.3672E-08  0.4069E-08  0.4070E-08  0.5552E-07  0.5569E-07  0.4069E-08  0.4070E-08  0.2524E-08  0.2524E-08
     -2.940  0.4794E-03  0.4791E-03  0.1719E-05  0.1717E-05  0.2176E-05  0.2174E-05  0.1719E-05  0.1717E-05  0.1313E-07  0.1312E-07  0.1469E-07  0.1469E-07  0.1657E-06  0.1662E-06  0.1469E-07  0.1469E-07  0.8754E-08  0.8754E-08
     -2.883  0.1286E-02  0.1286E-02  0.4991E-05  0.4988E-05  0.6194E-05  0.6189E-05  0.4991E-05  0.4988E-05  0.4119E-07  0.4115E-07  0.4325E-07  0.4326E-07  0.4505E-06  0.4520E-06  0.4325E-07  0.4326E-07  0.2492E-07  0.2492E-07
     -2.827  0.2962E-02  0.2961E-02  0.1326E-04  0.1326E-04  0.1622E-04  0.1621E-04  0.1326E-04  0.1326E-04  0.1162E-06  0.1161E-06  0.1249E-06  0.1249E-06  0.1060E-05  0.1064E-05  0.1249E-06  0.1249E-06  0.6614E-07  0.6615E-07
     -2.771  0.5495E-02  0.5494E-02  0.2999E-04  0.2998E-04  0.3650E-04  0.3648E-04  0.2999E-04  0.2998E-04  0.3118E-06  0.3116E-06  0.3250E-06  0.3251E-06  0.2038E-05  0.2045E-05  0.3250E-06  0.3251E-06  0.1520E-06  0.1521E-06
     -2.715  0.8047E-02  0.8047E-02  0.5441E-04  0.5440E-04  0.6999E-04  0.6996E-04  0.5441E-04  0.5440E-04  0.6879E-06  0.6876E-06  0.7132E-06  0.7135E-06  0.3106E-05  0.3117E-05  0.7132E-06  0.7135E-06  0.3127E-06  0.3128E-06
     -2.659  0.9819E-02  0.9820E-02  0.8424E-04  0.8423E-04  0.1173E-03  0.1172E-03  0.8424E-04  0.8423E-04  0.1220E-05  0.1220E-05  0.1378E-05  0.1378E-05  0.4026E-05  0.4039E-05  0.1378E-05  0.1378E-05  0.6765E-06  0.6766E-06
     -2.603  0.1143E-01  0.1143E-01  0.1295E-03  0.1294E-03  0.1746E-03  0.1746E-03  0.1295E-03  0.1294E-03  0.2085E-05  0.2084E-05  0.2474E-05  0.2475E-05  0.5403E-05  0.5418E-05  0.2474E-05  0.2475E-05  0.1464E-05  0.1465E-05
     -2.547  0.1373E-01  0.1373E-01  0.2014E-03  0.2014E-03  0.2322E-03  0.2322E-03  0.2014E-03  0.2014E-03  0.3907E-05  0.3905E-05  0.4110E-05  0.4111E-05  0.8021E-05  0.8041E-05  0.4110E-05  0.4111E-05  0.2621E-05  0.2622E-05
     -2.491  0.1558E-01  0.1558E-01  0.2708E-03  0.2708E-03  0.2929E-03  0.2929E-03  0.2708E-03  0.2708E-03  0.6430E-05  0.6428E-05  0.6172E-05  0.6174E-05  0.1062E-04  0.1064E-04  0.6172E-05  0.6174E-05  0.3554E-05  0.3556E-05
     -2.435  0.1588E-01  0.1588E-01  0.3010E-03  0.3010E-03  0.3925E-03  0.3924E-03  0.3010E-03  0.3010E-03  0.8357E-05  0.8356E-05  0.9064E-05  0.9066E-05  0.1121E-04  0.1124E-04  0.9064E-05  0.9066E-05  0.3983E-05  0.3986E-05
     -2.379  0.1602E-01  0.1602E-01  0.3263E-03  0.3264E-03  0.5340E-03  0.5340E-03  0.3263E-03  0.3264E-03  0.1072E-04  0.1072E-04  0.1327E-04  0.1328E-04  0.1125E-04  0.1127E-04  0.1327E-04  0.1328E-04  0.4532E-05  0.4534E-05
     -2.323  0.1680E-01  0.1680E-01  0.3965E-03  0.3965E-03  0.6218E-03  0.6218E-03  0.3965E-03  0.3965E-03  0.1555E-04  0.1555E-04  0.1725E-04  0.1725E-04  0.1401E-04  0.1404E-04  0.1725E-04  0.1725E-04  0.6272E-05  0.6273E-05
     -2.267  0.1721E-01  0.1721E-01  0.4987E-03  0.4987E-03  0.6106E-03  0.6107E-03  0.4987E-03  0.4987E-03  0.2052E-04  0.2052E-04  0.1973E-04  0.1974E-04  0.1976E-04  0.1979E-04  0.1973E-04  0.1974E-04  0.1051E-04  0.1051E-04
     -2.211  0.1844E-01  0.1844E-01  0.6328E-03  0.6328E-03  0.6649E-03  0.6648E-03  0.6328E-03  0.6328E-03  0.2461E-04  0.2461E-04  0.2525E-04  0.2525E-04  0.2702E-04  0.2705E-04  0.2525E-04  0.2525E-04  0.1727E-04  0.1727E-04
     -2.155  0.2122E-01  0.2122E-01  0.7775E-03  0.7775E-03  0.9115E-03  0.9113E-03  0.7775E-03  0.7775E-03  0.3087E-04  0.3087E-04  0.3694E-04  0.3694E-04  0.3352E-04  0.3356E-04  0.3694E-04  0.3694E-04  0.2283E-04  0.2284E-04
     -2.099  0.2250E-01  0.2251E-01  0.8349E-03  0.8351E-03  0.1186E-02  0.1186E-02  0.8349E-03  0.8351E-03  0.3729E-04  0.3729E-04  0.4791E-04  0.4792E-04  0.3642E-04  0.3647E-04  0.4791E-04  0.4792E-04  0.2396E-04  0.2398E-04
     -2.043  0.2134E-01  0.2135E-01  0.8349E-03  0.8350E-03  0.1278E-02  0.1278E-02  0.8349E-03  0.8350E-03  0.4668E-04  0.4668E-04  0.5283E-04  0.5285E-04  0.3843E-04  0.3848E-04  0.5283E-04  0.5285E-04  0.2271E-04  0.2272E-04
     -1.987  0.2024E-01  0.2025E-01  0.8923E-03  0.8924E-03  0.1234E-02  0.1234E-02  0.8923E-03  0.8924E-03  0.6505E-04  0.6504E-04  0.5761E-04  0.5762E-04  0.4264E-04  0.4270E-04  0.5761E-04  0.5762E-04  0.2172E-04  0.2173E-04
     -1.931  0.1959E-01  0.1959E-01  0.9503E-03  0.9504E-03  0.1265E-02  0.1265E-02  0.9503E-03  0.9504E-03  0.7837E-04  0.7838E-04  0.6976E-04  0.6976E-04  0.4428E-04  0.4434E-04  0.6976E-04  0.6976E-04  0.2196E-04  0.2197E-04
     -1.875  0.1989E-01  0.1990E-01  0.1009E-02  0.1009E-02  0.1535E-02  0.1534E-02  0.1009E-02  0.1009E-02  0.7790E-04  0.7791E-04  0.9323E-04  0.9322E-04  0.4478E-04  0.4483E-04  0.9323E-04  0.9322E-04  0.2809E-04  0.2809E-04
     -1.819  0.2182E-01  0.2183E-01  0.1181E-02  0.1181E-02  0.1870E-02  0.1870E-02  0.1181E-02  0.1181E-02  0.7994E-04  0.7995E-04  0.1165E-03  0.1165E-03  0.5524E-04  0.5528E-04  0.1165E-03  0.1165E-03  0.4378E-04  0.4378E-04
     -1.763  0.2288E-01  0.2288E-01  0.1372E-02  0.1372E-02  0.1968E-02  0.1969E-02  0.1372E-02  0.1372E-02  0.8736E-04  0.8737E-04  0.1177E-03  0.1178E-03  0.7691E-04  0.7696E-04  0.1177E-03  0.1178E-03  0.6414E-04  0.6415E-04
     -1.707  0.2279E-01  0.2280E-01  0.1519E-02  0.1519E-02  0.1993E-02  0.1992E-02  0.1519E-02  0.1519E-02  0.1064E-03  0.1064E-03  0.1126E-03  0.1126E-03  0.1005E-03  0.1006E-03  0.1126E-03  0.1126E-03  0.7858E-04  0.7861E-04
     -1.650  0.2390E-01  0.2391E-01  0.1706E-02  0.1706E-02  0.2239E-02  0.2239E-02  0.1706E-02  0.1706E-02  0.1463E-03  0.1463E-03  0.1401E-03  0.1401E-03  0.1141E-03  0.1142E-03  0.1401E-03  0.1401E-03  0.8285E-04  0.8289E-04
     -1.594  0.2556E-01  0.2557E-01  0.1910E-02  0.1910E-02  0.2562E-02  0.2562E-02  0.1910E-02  0.1910E-02  0.1880E-03  0.1880E-03  0.1915E-03  0.1915E-03  0.1168E-03  0.1170E-03  0.1915E-03  0.1915E-03  0.8478E-04  0.8482E-04
     -1.538  0.2611E-01  0.2612E-01  0.2027E-02  0.2027E-02  0.2840E-02  0.2839E-02  0.2027E-02  0.2027E-02  0.2154E-03  0.2154E-03  0.2323E-03  0.2323E-03  0.1204E-03  0.1205E-03  0.2323E-03  0.2323E-03  0.8721E-04  0.8725E-04
     -1.482  0.2459E-01  0.2460E-01  0.1947E-02  0.1947E-02  0.3059E-02  0.3059E-02  0.1947E-02  0.1947E-02  0.2198E-03  0.2198E-03  0.2518E-03  0.2519E-03  0.1198E-03  0.1199E-03  0.2518E-03  0.2519E-03  0.8227E-04  0.8233E-04
     -1.426  0.2135E-01  0.2136E-01  0.1739E-02  0.1739E-02  0.3060E-02  0.3060E-02  0.1739E-02  0.1739E-02  0.1997E-03  0.1997E-03  0.2563E-03  0.2564E-03  0.1064E-03  0.1065E-03  0.2563E-03  0.2564E-03  0.7626E-04  0.7630E-04
     -1.370  0.1954E-01  0.1955E-01  0.1701E-02  0.1701E-02  0.3148E-02  0.3148E-02  0.1701E-02  0.1701E-02  0.2028E-03  0.2028E-03  0.2754E-03  0.2755E-03  0.9915E-04  0.9924E-04  0.2754E-03  0.2755E-03  0.7846E-04  0.7849E-04
     -1.314  0.1967E-01  0.1967E-01  0.1808E-02  0.1808E-02  0.3672E-02  0.3671E-02  0.1808E-02  0.1808E-02  0.2402E-03  0.2402E-03  0.3127E-03  0.3126E-03  0.1137E-03  0.1137E-03  0.3127E-03  0.3126E-03  0.8286E-04  0.8289E-04
     -1.258  0.2065E-01  0.2065E-01  0.2055E-02  0.2055E-02  0.4211E-02  0.4210E-02  0.2055E-02  0.2055E-02  0.3024E-03  0.3024E-03  0.3423E-03  0.3423E-03  0.1549E-03  0.1550E-03  0.3423E-03  0.3423E-03  0.1016E-03  0.1016E-03
     -1.202  0.2349E-01  0.2349E-01  0.2629E-02  0.2628E-02  0.4587E-02  0.4586E-02  0.2629E-02  0.2628E-02  0.3852E-03  0.3852E-03  0.3934E-03  0.3933E-03  0.2142E-03  0.2144E-03  0.3934E-03  0.3933E-03  0.1556E-03  0.1556E-03
     -1.146  0.2654E-01  0.2654E-01  0.3200E-02  0.3200E-02  0.5205E-02  0.5204E-02  0.3200E-02  0.3200E-02  0.4300E-03  0.4301E-03  0.4863E-03  0.4862E-03  0.2547E-03  0.2549E-03  0.4863E-03  0.4862E-03  0.2180E-03  0.2181E-03
     -1.090  0.2666E-01  0.2667E-01  0.3343E-02  0.3343E-02  0.5914E-02  0.5913E-02  0.3343E-02  0.3343E-02  0.4271E-03  0.4272E-03  0.5645E-03  0.5645E-03  0.2559E-03  0.2561E-03  0.5645E-03  0.5645E-03  0.2432E-03  0.2433E-03
     -1.034  0.2465E-01  0.2466E-01  0.3236E-02  0.3237E-02  0.6058E-02  0.6059E-02  0.3236E-02  0.3237E-02  0.4352E-03  0.4353E-03  0.5950E-03  0.5951E-03  0.2383E-03  0.2385E-03  0.5950E-03  0.5951E-03  0.2368E-03  0.2369E-03
     -0.978  0.2230E-01  0.2231E-01  0.3117E-02  0.3117E-02  0.5599E-02  0.5601E-02  0.3117E-02  0.3117E-02  0.4603E-03  0.4604E-03  0.6025E-03  0.6026E-03  0.2237E-03  0.2239E-03  0.6025E-03  0.6026E-03  0.2261E-03  0.2262E-03
     -0.922  0.2069E-01  0.2070E-01  0.3057E-02  0.3057E-02  0.5440E-02  0.5440E-02  0.3057E-02  0.3057E-02  0.5072E-03  0.5073E-03  0.6546E-03  0.6545E-03  0.2123E-03  0.2125E-03  0.6546E-03  0.6545E-03  0.2128E-03  0.2129E-03
     -0.866  0.2029E-01  0.2030E-01  0.3121E-02  0.3121E-02  0.6023E-02  0.6022E-02  0.3121E-02  0.3121E-02  0.5736E-03  0.5736E-03  0.7794E-03  0.7792E-03  0.2053E-03  0.2055E-03  0.7794E-03  0.7792E-03  0.2051E-03  0.2052E-03
     -0.810  0.2025E-01  0.2026E-01  0.3226E-02  0.3226E-02  0.6556E-02  0.6557E-02  0.3226E-02  0.3226E-02  0.6376E-03  0.6377E-03  0.8956E-03  0.8956E-03  0.2145E-03  0.2147E-03  0.8956E-03  0.8956E-03  0.2070E-03  0.2071E-03