   8   8   1   0
  0.1422593E+02  0.3682839E-09  0.3682839E-09  0.8390832E-09  0.5000000E-15
  1.000000000000000E-004
  CAR 
 unknown system                          
     18.16790179    -39.62632169  301     10.36215464      1.00000000
    -39.626  0.0000E+00  0.0000E+00  0.0000E+00  0.0000E+00
    -39.434  0.0000E+00  0.0000E+00  0.0000E+00  0.0000E+00
    -39.241  0.0000E+00  0.0000E+00  0.0000E+00  0.0000E+00
    -39.048  0.0000E+00  0.0000E+00  0.0000E+00  0.0000E+00
    -38.856  0.0000E+00  0.0000E+00  0.0000E+00  0.0000E+00
    -38.663  0.0000E+00  0.0000E+00  0.0000E+00  0.0000E+00
    -38.470  0.0000E+00  0.0000E+00  0.0000E+00  0.0000E+00
    -38.278  0.0000E+00  0.0000E+00  0.0000E+00  0.0000E+00
    -38.085  0.0000E+00  0.0000E+00  0.0000E+00  0.0000E+00
    -37.892  0.0000E+00  0.0000E+00  0.0000E+00  0.0000E+00
    -37.700  0.0000E+00  0.0000E+00  0.0000E+00  0.0000E+00
    -37.507  0.3217E-03  0.3202E-03  0.6197E-04  0.6169E-04
    -37.315  0.1482E-01  0.1475E-01  0.2916E-02  0.2903E-02
    -37.122  0.6529E+00  0.6502E+00  0.1287E+00  0.1282E+00
    -36.929  0.7251E+01  0.7245E+01  0.1526E+01  0.1524E+01
    -36.737  0.2395E+01  0.2403E+01  0.1987E+01  0.1987E+01
    -36.544  0.0000E+00  0.0000E+00  0.2000E+01  0.2000E+01
    -36.351  0.0000E+00  0.0000E+00  0.2000E+01  0.2000E+01
    -36.159  0.0000E+00  0.0000E+00  0.2000E+01  0.2000E+01
    -35.966  0.0000E+00  0.0000E+00  0.2000E+01  0.2000E+01
    -35.773  0.0000E+00  0.0000E+00  0.2000E+01  0.2000E+01
    -35.581  0.0000E+00  0.0000E+00  0.2000E+01  0.2000E+01
    -35.388  0.0000E+00  0.0000E+00  0.2000E+01  0.2000E+01
    -35.195  0.0000E+00  0.0000E+00  0.2000E+01  0.2000E+01
    -35.003  0.0000E+00  0.0000E+00  0.2000E+01  0.2000E+01
    -34.810  0.0000E+00  0.0000E+00  0.2000E+01  0.2000E+01
    -34.617  0.0000E+00  0.0000E+00  0.2000E+01  0.2000E+01
    -34.425  0.0000E+00  0.0000E+00  0.2000E+01  0.2000E+01
    -34.232  0.0000E+00  0.0000E+00  0.2000E+01  0.2000E+01
    -34.040  0.0000E+00  0.0000E+00  0.2000E+01  0.2000E+01
    -33.847  0.0000E+00  0.0000E+00  0.2000E+01  0.2000E+01
    -33.654  0.0000E+00  0.0000E+00  0.2000E+01  0.2000E+01
    -33.462  0.0000E+00  0.0000E+00  0.2000E+01  0.2000E+01
    -33.269  0.0000E+00  0.0000E+00  0.2000E+01  0.2000E+01
    -33.076  0.0000E+00  0.0000E+00  0.2000E+01  0.2000E+01
    -32.884  0.0000E+00  0.0000E+00  0.2000E+01  0.2000E+01
    -32.691  0.0000E+00  0.0000E+00  0.2000E+01  0.2000E+01
    -32.498  0.0000E+00  0.0000E+00  0.2000E+01  0.2000E+01
    -32.306  0.0000E+00  0.0000E+00  0.2000E+01  0.2000E+01
    -32.113  0.0000E+00  0.0000E+00  0.2000E+01  0.2000E+01
    -31.920  0.0000E+00  0.0000E+00  0.2000E+01  0.2000E+01
    -31.728  0.0000E+00  0.0000E+00  0.2000E+01  0.2000E+01
    -31.535  0.0000E+00  0.0000E+00  0.2000E+01  0.2000E+01
    -31.342  0.0000E+00  0.0000E+00  0.2000E+01  0.2000E+01
    -31.150  0.0000E+00  0.0000E+00  0.2000E+01  0.2000E+01
    -30.957  0.0000E+00  0.0000E+00  0.2000E+01  0.2000E+01
    -30.765  0.0000E+00  0.0000E+00  0.2000E+01  0.2000E+01
    -30.572  0.0000E+00  0.0000E+00  0.2000E+01  0.2000E+01
    -30.379  0.0000E+00  0.0000E+00  0.2000E+01  0.2000E+01
    -30.187  0.0000E+00  0.0000E+00  0.2000E+01  0.2000E+01
    -29.994  0.0000E+00  0.0000E+00  0.2000E+01  0.2000E+01
    -29.801  0.0000E+00  0.0000E+00  0.2000E+01  0.2000E+01
    -29.609  0.0000E+00  0.0000E+00  0.2000E+01  0.2000E+01
    -29.416  0.0000E+00  0.0000E+00  0.2000E+01  0.2000E+01
    -29.223  0.0000E+00  0.0000E+00  0.2000E+01  0.2000E+01
    -29.031  0.0000E+00  0.0000E+00  0.2000E+01  0.2000E+01
    -28.838  0.0000E+00  0.0000E+00  0.2000E+01  0.2000E+01
    -28.645  0.0000E+00  0.0000E+00  0.2000E+01  0.2000E+01
    -28.453  0.0000E+00  0.0000E+00  0.2000E+01  0.2000E+01
    -28.260  0.0000E+00  0.0000E+00  0.2000E+01  0.2000E+01
    -28.067  0.0000E+00  0.0000E+00  0.2000E+01  0.2000E+01
    -27.875  0.0000E+00  0.0000E+00  0.2000E+01  0.2000E+01
    -27.682  0.0000E+00  0.0000E+00  0.2000E+01  0.2000E+01
    -27.490  0.0000E+00  0.0000E+00  0.2000E+01  0.2000E+01
    -27.297  0.0000E+00  0.0000E+00  0.2000E+01  0.2000E+01
    -27.104  0.0000E+00  0.0000E+00  0.2000E+01  0.2000E+01
    -26.912  0.0000E+00  0.0000E+00  0.2000E+01  0.2000E+01
    -26.719  0.0000E+00  0.0000E+00  0.2000E+01  0.2000E+01
    -26.526  0.0000E+00  0.0000E+00  0.2000E+01  0.2000E+01
    -26.334  0.0000E+00  0.0000E+00  0.2000E+01  0.2000E+01
    -26.141  0.0000E+00  0.0000E+00  0.2000E+01  0.2000E+01
    -25.948  0.0000E+00  0.0000E+00  0.2000E+01  0.2000E+01
    -25.756  0.0000E+00  0.0000E+00  0.2000E+01  0.2000E+01
    -25.563  0.0000E+00  0.0000E+00  0.2000E+01  0.2000E+01
    -25.370  0.0000E+00  0.0000E+00  0.2000E+01  0.2000E+01
    -25.178  0.0000E+00  0.0000E+00  0.2000E+01  0.2000E+01
    -24.985  0.0000E+00  0.0000E+00  0.2000E+01  0.2000E+01
    -24.792  0.0000E+00  0.0000E+00  0.2000E+01  0.2000E+01
    -24.600  0.0000E+00  0.0000E+00  0.2000E+01  0.2000E+01
    -24.407  0.0000E+00  0.0000E+00  0.2000E+01  0.2000E+01
    -24.215  0.0000E+00  0.0000E+00  0.2000E+01  0.2000E+01
    -24.022  0.0000E+00  0.0000E+00  0.2000E+01  0.2000E+01
    -23.829  0.0000E+00  0.0000E+00  0.2000E+01  0.2000E+01
    -23.637  0.0000E+00  0.0000E+00  0.2000E+01  0.2000E+01
    -23.444  0.0000E+00  0.0000E+00  0.2000E+01  0.2000E+01
    -23.251  0.0000E+00  0.0000E+00  0.2000E+01  0.2000E+01
    -23.059  0.0000E+00  0.0000E+00  0.2000E+01  0.2000E+01
    -22.866  0.0000E+00  0.0000E+00  0.2000E+01  0.2000E+01
    -22.673  0.0000E+00  0.0000E+00  0.2000E+01  0.2000E+01
    -22.481  0.0000E+00  0.0000E+00  0.2000E+01  0.2000E+01
    -22.288  0.0000E+00  0.0000E+00  0.2000E+01  0.2000E+01
    -22.095  0.0000E+00  0.0000E+00  0.2000E+01  0.2000E+01
    -21.903  0.0000E+00  0.0000E+00  0.2000E+01  0.2000E+01
    -21.710  0.0000E+00  0.0000E+00  0.2000E+01  0.2000E+01
    -21.517  0.0000E+00  0.0000E+00  0.2000E+01  0.2000E+01
    -21.325  0.0000E+00  0.0000E+00  0.2000E+01  0.2000E+01
    -21.132  0.0000E+00  0.0000E+00  0.2000E+01  0.2000E+01
    -20.940  0.0000E+00  0.0000E+00  0.2000E+01  0.2000E+01
    -20.747  0.0000E+00  0.0000E+00  0.2000E+01  0.2000E+01
    -20.554  0.0000E+00  0.0000E+00  0.2000E+01  0.2000E+01
    -20.362  0.0000E+00  0.0000E+00  0.2000E+01  0.2000E+01
    -20.169  0.0000E+00  0.0000E+00  0.2000E+01  0.2000E+01
    -19.976  0.0000E+00  0.0000E+00  0.2000E+01  0.2000E+01
    -19.784  0.0000E+00  0.0000E+00  0.2000E+01  0.2000E+01
    -19.591  0.0000E+00  0.0000E+00  0.2000E+01  0.2000E+01
    -19.398  0.0000E+00  0.0000E+00  0.2000E+01  0.2000E+01
    -19.206  0.0000E+00  0.0000E+00  0.2000E+01  0.2000E+01
    -19.013  0.0000E+00  0.0000E+00  0.2000E+01  0.2000E+01
    -18.820  0.0000E+00  0.0000E+00  0.2000E+01  0.2000E+01
    -18.628  0.0000E+00  0.0000E+00  0.2000E+01  0.2000E+01
    -18.435  0.0000E+00  0.0000E+00  0.2000E+01  0.2000E+01
    -18.242  0.0000E+00  0.0000E+00  0.2000E+01  0.2000E+01
    -18.050  0.0000E+00  0.0000E+00  0.2000E+01  0.2000E+01
    -17.857  0.0000E+00  0.0000E+00  0.2000E+01  0.2000E+01
    -17.665  0.0000E+00  0.0000E+00  0.2000E+01  0.2000E+01
    -17.472  0.0000E+00  0.0000E+00  0.2000E+01  0.2000E+01
    -17.279  0.0000E+00  0.0000E+00  0.2000E+01  0.2000E+01
    -17.087  0.0000E+00  0.0000E+00  0.2000E+01  0.2000E+01
    -16.894  0.0000E+00  0.0000E+00  0.2000E+01  0.2000E+01
    -16.701  0.0000E+00  0.0000E+00  0.2000E+01  0.2000E+01
    -16.509  0.0000E+00  0.0000E+00  0.2000E+01  0.2000E+01
    -16.316  0.0000E+00  0.0000E+00  0.2000E+01  0.2000E+01
    -16.123  0.0000E+00  0.0000E+00  0.2000E+01  0.2000E+01
    -15.931  0.2580E-03  0.2561E-03  0.2000E+01  0.2000E+01
    -15.738  0.1338E-01  0.1328E-01  0.2003E+01  0.2003E+01
    -15.545  0.5892E+00  0.5852E+00  0.2116E+01  0.2115E+01
    -15.353  0.8690E+01  0.8665E+01  0.3790E+01  0.3785E+01
    -15.160  0.1791E+02  0.1791E+02  0.7240E+01  0.7235E+01
    -14.967  0.3782E+01  0.3805E+01  0.7980E+01  0.7980E+01
    -14.775  0.0000E+00  0.0000E+00  0.8000E+01  0.8000E+01
    -14.582  0.0000E+00  0.0000E+00  0.8000E+01  0.8000E+01
    -14.390  0.0000E+00  0.0000E+00  0.8000E+01  0.8000E+01
    -14.197  0.0000E+00  0.0000E+00  0.8000E+01  0.8000E+01
    -14.004  0.0000E+00  0.0000E+00  0.8000E+01  0.8000E+01
    -13.812  0.0000E+00  0.0000E+00  0.8000E+01  0.8000E+01
    -13.619  0.0000E+00  0.0000E+00  0.8000E+01  0.8000E+01
    -13.426  0.0000E+00  0.0000E+00  0.8000E+01  0.8000E+01
    -13.234  0.0000E+00  0.0000E+00  0.8000E+01  0.8000E+01
    -13.041  0.0000E+00  0.0000E+00  0.8000E+01  0.8000E+01
    -12.848  0.0000E+00  0.0000E+00  0.8000E+01  0.8000E+01
    -12.656  0.0000E+00  0.0000E+00  0.8000E+01  0.8000E+01
    -12.463  0.0000E+00  0.0000E+00  0.8000E+01  0.8000E+01
    -12.270  0.0000E+00  0.0000E+00  0.8000E+01  0.8000E+01
    -12.078  0.0000E+00  0.0000E+00  0.8000E+01  0.8000E+01
    -11.885  0.0000E+00  0.0000E+00  0.8000E+01  0.8000E+01
    -11.692  0.0000E+00  0.0000E+00  0.8000E+01  0.8000E+01
    -11.500  0.0000E+00  0.0000E+00  0.8000E+01  0.8000E+01
    -11.307  0.0000E+00  0.0000E+00  0.8000E+01  0.8000E+01
    -11.115  0.0000E+00  0.0000E+00  0.8000E+01  0.8000E+01
    -10.922  0.0000E+00  0.0000E+00  0.8000E+01  0.8000E+01
    -10.729  0.0000E+00  0.0000E+00  0.8000E+01  0.8000E+01
    -10.537  0.0000E+00  0.0000E+00  0.8000E+01  0.8000E+01
    -10.344  0.0000E+00  0.0000E+00  0.8000E+01  0.8000E+01
    -10.151  0.0000E+00  0.0000E+00  0.8000E+01  0.8000E+01
     -9.959  0.0000E+00  0.0000E+00  0.8000E+01  0.8000E+01
     -9.766  0.0000E+00  0.0000E+00  0.8000E+01  0.8000E+01
     -9.573  0.0000E+00  0.0000E+00  0.8000E+01  0.8000E+01
     -9.381  0.0000E+00  0.0000E+00  0.8000E+01  0.8000E+01
     -9.188  0.0000E+00  0.0000E+00  0.8000E+01  0.8000E+01
     -8.995  0.0000E+00  0.0000E+00  0.8000E+01  0.8000E+01
     -8.803  0.0000E+00  0.0000E+00  0.8000E+01  0.8000E+01
     -8.610  0.0000E+00  0.0000E+00  0.8000E+01  0.8000E+01
     -8.417  0.0000E+00  0.0000E+00  0.8000E+01  0.8000E+01
     -8.225  0.0000E+00  0.0000E+00  0.8000E+01  0.8000E+01
     -8.032  0.0000E+00  0.0000E+00  0.8000E+01  0.8000E+01
     -7.839  0.0000E+00  0.0000E+00  0.8000E+01  0.8000E+01
     -7.647  0.0000E+00  0.0000E+00  0.8000E+01  0.8000E+01
     -7.454  0.0000E+00  0.0000E+00  0.8000E+01  0.8000E+01
     -7.262  0.0000E+00  0.0000E+00  0.8000E+01  0.8000E+01
     -7.069  0.0000E+00  0.0000E+00  0.8000E+01  0.8000E+01
     -6.876  0.0000E+00  0.0000E+00  0.8000E+01  0.8000E+01
     -6.684  0.0000E+00  0.0000E+00  0.8000E+01  0.8000E+01
     -6.491  0.0000E+00  0.0000E+00  0.8000E+01  0.8000E+01
     -6.298  0.0000E+00  0.0000E+00  0.8000E+01  0.8000E+01
     -6.106  0.0000E+00  0.0000E+00  0.8000E+01  0.8000E+01
     -5.913  0.0000E+00  0.0000E+00  0.8000E+01  0.8000E+01
     -5.720  0.0000E+00  0.0000E+00  0.8000E+01  0.8000E+01
     -5.528  0.0000E+00  0.0000E+00  0.8000E+01  0.8000E+01
     -5.335  0.0000E+00  0.0000E+00  0.8000E+01  0.8000E+01
     -5.142  0.0000E+00  0.0000E+00  0.8000E+01  0.8000E+01
     -4.950  0.0000E+00  0.0000E+00  0.8000E+01  0.8000E+01
     -4.757  0.0000E+00  0.0000E+00  0.8000E+01  0.8000E+01
     -4.564  0.0000E+00  0.0000E+00  0.8000E+01  0.8000E+01
     -4.372  0.0000E+00  0.0000E+00  0.8000E+01  0.8000E+01
     -4.179  0.0000E+00  0.0000E+00  0.8000E+01  0.8000E+01
     -3.987  0.0000E+00  0.0000E+00  0.8000E+01  0.8000E+01
     -3.794  0.0000E+00  0.0000E+00  0.8000E+01  0.8000E+01
     -3.601  0.0000E+00  0.0000E+00  0.8000E+01  0.8000E+01
     -3.409  0.0000E+00  0.0000E+00  0.8000E+01  0.8000E+01
     -3.216  0.0000E+00  0.0000E+00  0.8000E+01  0.8000E+01
     -3.023  0.0000E+00  0.0000E+00  0.8000E+01  0.8000E+01
     -2.831  0.0000E+00  0.0000E+00  0.8000E+01  0.8000E+01
     -2.638  0.0000E+00  0.0000E+00  0.8000E+01  0.8000E+01
     -2.445  0.0000E+00  0.0000E+00  0.8000E+01  0.8000E+01
     -2.253  0.0000E+00  0.0000E+00  0.8000E+01  0.8000E+01
     -2.060  0.0000E+00  0.0000E+00  0.8000E+01  0.8000E+01
     -1.867  0.0000E+00  0.0000E+00  0.8000E+01  0.8000E+01
     -1.675  0.0000E+00  0.0000E+00  0.8000E+01  0.8000E+01
     -1.482  0.0000E+00  0.0000E+00  0.8000E+01  0.8000E+01
     -1.289  0.0000E+00  0.0000E+00  0.8000E+01  0.8000E+01
     -1.097  0.0000E+00  0.0000E+00  0.8000E+01  0.8000E+01
     -0.904  0.0000E+00  0.0000E+00  0.8000E+01  0.8000E+01
     -0.712  0.0000E+00  0.0000E+00  0.8000E+01  0.8000E+01
     -0.519  0.7970E-06  0.7927E-06  0.8000E+01  0.8000E+01
     -0.326  0.5207E-04  0.5179E-04  0.8000E+01  0.8000E+01
     -0.134  0.2315E-02  0.2303E-02  0.8000E+01  0.8000E+01
      0.059  0.4357E-01  0.4345E-01  0.8009E+01  0.8009E+01
      0.252  0.1311E+00  0.1310E+00  0.8034E+01  0.8034E+01
      0.444  0.2080E+00  0.2079E+00  0.8074E+01  0.8074E+01
      0.637  0.2393E+00  0.2393E+00  0.8120E+01  0.8120E+01
      0.830  0.3251E+00  0.3250E+00  0.8183E+01  0.8183E+01
      1.022  0.3201E+00  0.3201E+00  0.8245E+01  0.8245E+01
      1.215  0.3841E+00  0.3839E+00  0.8319E+01  0.8319E+01
      1.408  0.4795E+00  0.4794E+00  0.8412E+01  0.8412E+01
      1.600  0.4283E+00  0.4284E+00  0.8495E+01  0.8495E+01
      1.793  0.5401E+00  0.5397E+00  0.8599E+01  0.8599E+01
      1.986  0.6353E+00  0.6354E+00  0.8722E+01  0.8722E+01
      2.178  0.6322E+00  0.6322E+00  0.8844E+01  0.8844E+01
      2.371  0.6293E+00  0.6292E+00  0.8966E+01  0.8966E+01
      2.563  0.6395E+00  0.6399E+00  0.9090E+01  0.9090E+01
      2.756  0.7904E+00  0.7904E+00  0.9243E+01  0.9243E+01
      2.949  0.7064E+00  0.7063E+00  0.9379E+01  0.9379E+01
      3.141  0.7484E+00  0.7484E+00  0.9524E+01  0.9524E+01
      3.334  0.8388E+00  0.8387E+00  0.9686E+01  0.9686E+01
      3.527  0.9620E+00  0.9618E+00  0.9872E+01  0.9872E+01
      3.719  0.1037E+01  0.1037E+01  0.1007E+02  0.1007E+02
      3.912  0.1087E+01  0.1087E+01  0.1028E+02  0.1028E+02
      4.105  0.1253E+01  0.1252E+01  0.1052E+02  0.1052E+02
      4.297  0.1163E+01  0.1163E+01  0.1075E+02  0.1075E+02
      4.490  0.9574E+00  0.9577E+00  0.1093E+02  0.1093E+02
      4.683  0.8957E+00  0.8953E+00  0.1111E+02  0.1111E+02
      4.875  0.9096E+00  0.9101E+00  0.1128E+02  0.1128E+02
      5.068  0.7453E+00  0.7454E+00  0.1143E+02  0.1143E+02
      5.261  0.8410E+00  0.8406E+00  0.1159E+02  0.1159E+02
      5.453  0.8852E+00  0.8854E+00  0.1176E+02  0.1176E+02
      5.646  0.8989E+00  0.8988E+00  0.1194E+02  0.1194E+02
      5.838  0.9943E+00  0.9939E+00  0.1213E+02  0.1213E+02
      6.031  0.1457E+01  0.1457E+01  0.1241E+02  0.1241E+02
      6.224  0.1364E+01  0.1364E+01  0.1267E+02  0.1267E+02
      6.416  0.1595E+01  0.1595E+01  0.1298E+02  0.1298E+02
      6.609  0.1285E+01  0.1286E+01  0.1323E+02  0.1323E+02
      6.802  0.9690E+00  0.9689E+00  0.1342E+02  0.1342E+02
      6.994  0.1212E+01  0.1212E+01  0.1365E+02  0.1365E+02
      7.187  0.1272E+01  0.1273E+01  0.1390E+02  0.1390E+02
      7.380  0.1078E+01  0.1077E+01  0.1411E+02  0.1411E+02
      7.572  0.1718E+01  0.1718E+01  0.1444E+02  0.1444E+02
      7.765  0.1571E+01  0.1571E+01  0.1474E+02  0.1474E+02
      7.958  0.1413E+01  0.1412E+01  0.1502E+02  0.1502E+02
      8.150  0.1838E+01  0.1838E+01  0.1537E+02  0.1537E+02
      8.343  0.1821E+01  0.1821E+01  0.1572E+02  0.1572E+02
      8.536  0.1823E+01  0.1823E+01  0.1608E+02  0.1607E+02
      8.728  0.2373E+01  0.2371E+01  0.1653E+02  0.1653E+02
      8.921  0.3534E+01  0.3533E+01  0.1722E+02  0.1722E+02
      9.113  0.4108E+01  0.4110E+01  0.1801E+02  0.1801E+02
      9.306  0.3046E+01  0.3047E+01  0.1860E+02  0.1860E+02
      9.499  0.2628E+01  0.2627E+01  0.1911E+02  0.1911E+02
      9.691  0.2883E+01  0.2882E+01  0.1967E+02  0.1967E+02
      9.884  0.2816E+01  0.2817E+01  0.2021E+02  0.2021E+02
     10.077  0.1932E+01  0.1933E+01  0.2058E+02  0.2058E+02
     10.269  0.1524E+01  0.1524E+01  0.2088E+02  0.2088E+02
     10.462  0.1174E+01  0.1175E+01  0.2111E+02  0.2111E+02
     10.655  0.9612E+00  0.9611E+00  0.2129E+02  0.2129E+02
     10.847  0.9540E+00  0.9543E+00  0.2148E+02  0.2148E+02
     11.040  0.7572E+00  0.7572E+00  0.2163E+02  0.2163E+02
     11.233  0.8206E+00  0.8207E+00  0.2178E+02  0.2178E+02
     11.425  0.7679E+00  0.7676E+00  0.2193E+02  0.2193E+02
     11.618  0.6173E+00  0.6185E+00  0.2205E+02  0.2205E+02
     11.811  0.3582E+00  0.3578E+00  0.2212E+02  0.2212E+02
     12.003  0.8907E+00  0.8896E+00  0.2229E+02  0.2229E+02
     12.196  0.1283E+01  0.1283E+01  0.2254E+02  0.2254E+02
     12.388  0.1464E+01  0.1464E+01  0.2282E+02  0.2282E+02
     12.581  0.1526E+01  0.1526E+01  0.2312E+02  0.2312E+02
     12.774  0.1769E+01  0.1770E+01  0.2346E+02  0.2346E+02
     12.966  0.2273E+01  0.2271E+01  0.2390E+02  0.2390E+02
     13.159  0.2724E+01  0.2724E+01  0.2443E+02  0.2443E+02
     13.352  0.2329E+01  0.2327E+01  0.2488E+02  0.2488E+02
     13.544  0.2288E+01  0.2291E+01  0.2532E+02  0.2532E+02
     13.737  0.2073E+01  0.2073E+01  0.2572E+02  0.2572E+02
     13.930  0.1990E+01  0.2015E+01  0.2611E+02  0.2611E+02
     14.122  0.2241E+01  0.2246E+01  0.2654E+02  0.2654E+02
     14.315  0.2441E+01  0.2423E+01  0.2701E+02  0.2701E+02
     14.508  0.2102E+01  0.2065E+01  0.2742E+02  0.2741E+02
     14.700  0.1604E+01  0.1580E+01  0.2773E+02  0.2772E+02
     14.893  0.7309E+00  0.7850E+00  0.2787E+02  0.2787E+02
     15.086  0.4176E+00  0.3974E+00  0.2795E+02  0.2795E+02
     15.278  0.1690E+00  0.1550E+00  0.2798E+02  0.2798E+02
     15.471  0.3444E-01  0.9140E-01  0.2799E+02  0.2800E+02
     15.663  0.3856E-01  0.1945E-01  0.2800E+02  0.2800E+02
     15.856  0.3982E-02  0.1036E-02  0.2800E+02  0.2800E+02
     16.049  0.0000E+00  0.0000E+00  0.2800E+02  0.2800E+02
     16.241  0.0000E+00  0.0000E+00  0.2800E+02  0.2800E+02
     16.434  0.0000E+00  0.0000E+00  0.2800E+02  0.2800E+02
     16.627  0.0000E+00  0.0000E+00  0.2800E+02  0.2800E+02
     16.819  0.0000E+00  0.0000E+00  0.2800E+02  0.2800E+02
     17.012  0.0000E+00  0.0000E+00  0.2800E+02  0.2800E+02
     17.205  0.0000E+00  0.0000E+00  0.2800E+02  0.2800E+02
     17.397  0.0000E+00  0.0000E+00  0.2800E+02  0.2800E+02
     17.590  0.0000E+00  0.0000E+00  0.2800E+02  0.2800E+02
     17.783  0.0000E+00  0.0000E+00  0.2800E+02  0.2800E+02
     17.975  0.0000E+00  0.0000E+00  0.2800E+02  0.2800E+02
     18.168  0.0000E+00  0.0000E+00  0.2800E+02  0.2800E+02
     18.16790179    -39.62632169  301     10.36215464      1.00000000
    -39.626  0.0000E+00  0.0000E+00  0.0000E+00  0.0000E+00  0.0000E+00  0.0000E+00  0.0000E+00  0.0000E+00  0.0000E+00  0.0000E+00  0.0000E+00  0.0000E+00  0.0000E+00  0.0000E+00  0.0000E+00  0.0000E+00  0.0000E+00  0.0000E+00
    -39.434  0.0000E+00  0.0000E+00  0.0000E+00  0.0000E+00  0.0000E+00  0.0000E+00  0.0000E+00  0.0000E+00  0.0000E+00  0.0000E+00  0.0000E+00  0.0000E+00  0.0000E+00  0.0000E+00  0.0000E+00  0.0000E+00  0.0000E+00  0.0000E+00
    -39.241  0.0000E+00  0.0000E+00  0.0000E+00  0.0000E+00  0.0000E+00  0.0000E+00  0.0000E+00  0.0000E+00  0.0000E+00  0.0000E+00  0.0000E+00  0.0000E+00  0.0000E+00  0.0000E+00  0.0000E+00  0.0000E+00  0.0000E+00  0.0000E+00
    -39.048  0.0000E+00  0.0000E+00  0.0000E+00  0.0000E+00  0.0000E+00  0.0000E+00  0.0000E+00  0.0000E+00  0.0000E+00  0.0000E+00  0.0000E+00  0.0000E+00  0.0000E+00  0.0000E+00  0.0000E+00  0.0000E+00  0.0000E+00  0.0000E+00
    -38.856  0.0000E+00  0.0000E+00  0.0000E+00  0.0000E+00  0.0000E+00  0.0000E+00  0.0000E+00  0.0000E+00  0.0000E+00  0.0000E+00  0.0000E+00  0.0000E+00  0.0000E+00  0.0000E+00  0.0000E+00  0.0000E+00  0.0000E+00  0.0000E+00
    -38.663  0.0000E+00  0.0000E+00  0.0000E+00  0.0000E+00  0.0000E+00  0.0000E+00  0.0000E+00  0.0000E+00  0.0000E+00  0.0000E+00  0.0000E+00  0.0000E+00  0.0000E+00  0.0000E+00  0.0000E+00  0.0000E+00  0.0000E+00  0.0000E+00
    -38.470  0.0000E+00  0.0000E+00  0.0000E+00  0.0000E+00  0.0000E+00  0.0000E+00  0.0000E+00  0.0000E+00  0.0000E+00  0.0000E+00  0.0000E+00  0.0000E+00  0.0000E+00  0.0000E+00  0.0000E+00  0.0000E+00  0.0000E+00  0.0000E+00
    -38.278  0.0000E+00  0.0000E+00  0.0000E+00  0.0000E+00  0.0000E+00  0.0000E+00  0.0000E+00  0.0000E+00  0.0000E+00  0.0000E+00  0.0000E+00  0.0000E+00  0.0000E+00  0.0000E+00  0.0000E+00  0.0000E+00  0.0000E+00  0.0000E+00
    -38.085  0.0000E+00  0.0000E+00  0.0000E+00  0.0000E+00  0.0000E+00  0.0000E+00  0.0000E+00  0.0000E+00  0.0000E+00  0.0000E+00  0.0000E+00  0.0000E+00  0.0000E+00  0.0000E+00  0.0000E+00  0.0000E+00  0.0000E+00  0.0000E+00
    -37.892  0.0000E+00  0.0000E+00  0.0000E+00  0.0000E+00  0.0000E+00  0.0000E+00  0.0000E+00  0.0000E+00  0.0000E+00  0.0000E+00  0.0000E+00  0.0000E+00  0.0000E+00  0.0000E+00  0.0000E+00  0.0000E+00  0.0000E+00  0.0000E+00
    -37.700  0.0000E+00  0.0000E+00  0.0000E+00  0.0000E+00  0.0000E+00  0.0000E+00  0.0000E+00  0.0000E+00  0.0000E+00  0.0000E+00  0.0000E+00  0.0000E+00  0.0000E+00  0.0000E+00  0.0000E+00  0.0000E+00  0.0000E+00  0.0000E+00
    -37.507  0.1595E-03  0.1588E-03  0.2138E-10  0.2135E-10  0.2290E-13  0.2515E-13  0.2138E-10  0.2135E-10  0.2350E-13  0.2099E-13  0.7918E-14  0.1126E-13  0.3371E-09  0.3340E-09  0.7918E-14  0.1126E-13  0.2390E-10  0.2392E-10
    -37.315  0.7349E-02  0.7317E-02  0.9848E-09  0.9834E-09  0.1055E-11  0.1158E-11  0.9848E-09  0.9834E-09  0.1083E-11  0.9671E-12  0.3648E-12  0.5186E-12  0.1553E-07  0.1538E-07  0.3648E-12  0.5186E-12  0.1101E-08  0.1102E-08
    -37.122  0.3239E+00  0.3225E+00  0.4340E-07  0.4335E-07  0.4618E-10  0.5069E-10  0.4340E-07  0.4335E-07  0.4774E-10  0.4269E-10  0.1609E-10  0.2286E-10  0.6830E-06  0.6768E-06  0.1609E-10  0.2286E-10  0.4857E-07  0.4862E-07
    -36.929  0.3597E+01  0.3594E+01  0.4809E-06  0.4820E-06  0.4738E-09  0.5199E-09  0.4809E-06  0.4820E-06  0.5329E-09  0.4817E-09  0.1799E-09  0.2543E-09  0.7415E-05  0.7373E-05  0.1799E-09  0.2543E-09  0.5431E-06  0.5455E-06
    -36.737  0.1188E+01  0.1192E+01  0.1580E-06  0.1590E-06  0.1416E-09  0.1553E-09  0.1580E-06  0.1590E-06  0.1762E-09  0.1614E-09  0.5958E-10  0.8370E-10  0.2382E-05  0.2378E-05  0.5958E-10  0.8370E-10  0.1794E-06  0.1810E-06
    -36.544  0.0000E+00  0.0000E+00  0.0000E+00  0.0000E+00  0.0000E+00  0.0000E+00  0.0000E+00  0.0000E+00  0.0000E+00  0.0000E+00  0.0000E+00  0.0000E+00  0.0000E+00  0.0000E+00  0.0000E+00  0.0000E+00  0.0000E+00  0.0000E+00
    -36.351  0.0000E+00  0.0000E+00  0.0000E+00  0.0000E+00  0.0000E+00  0.0000E+00  0.0000E+00  0.0000E+00  0.0000E+00  0.0000E+00  0.0000E+00  0.0000E+00  0.0000E+00  0.0000E+00  0.0000E+00  0.0000E+00  0.0000E+00  0.0000E+00
    -36.159  0.0000E+00  0.0000E+00  0.0000E+00  0.0000E+00  0.0000E+00  0.0000E+00  0.0000E+00  0.0000E+00  0.0000E+00  0.0000E+00  0.0000E+00  0.0000E+00  0.0000E+00  0.0000E+00  0.0000E+00  0.0000E+00  0.0000E+00  0.0000E+00
    -35.966  0.0000E+00  0.0000E+00  0.0000E+00  0.0000E+00  0.0000E+00  0.0000E+00  0.0000E+00  0.0000E+00  0.0000E+00  0.0000E+00  0.0000E+00  0.0000E+00  0.0000E+00  0.0000E+00  0.0000E+00  0.0000E+00  0.0000E+00  0.0000E+00
    -35.773  0.0000E+00  0.0000E+00  0.0000E+00  0.0000E+00  0.0000E+00  0.0000E+00  0.0000E+00  0.0000E+00  0.0000E+00  0.0000E+00  0.0000E+00  0.0000E+00  0.0000E+00  0.0000E+00  0.0000E+00  0.0000E+00  0.0000E+00  0.0000E+00
    -35.581  0.0000E+00  0.0000E+00  0.0000E+00  0.0000E+00  0.0000E+00  0.0000E+00  0.0000E+00  0.0000E+00  0.0000E+00  0.0000E+00  0.0000E+00  0.0000E+00  0.0000E+00  0.0000E+00  0.0000E+00  0.0000E+00  0.0000E+00  0.0000E+00
    -35.388  0.0000E+00  0.0000E+00  0.0000E+00  0.0000E+00  0.0000E+00  0.0000E+00  0.0000E+00  0.0000E+00  0.0000E+00  0.0000E+00  0.0000E+00  0.0000E+00  0.0000E+00  0.0000E+00  0.0000E+00  0.0000E+00  0.0000E+00  0.0000E+00
    -35.195  0.0000E+00  0.0000E+00  0.0000E+00  0.0000E+00  0.0000E+00  0.0000E+00  0.0000E+00  0.0000E+00  0.0000E+00  0.0000E+00  0.0000E+00  0.0000E+00  0.0000E+00  0.0000E+00  0.0000E+00  0.0000E+00  0.0000E+00  0.0000E+00
    -35.003  0.0000E+00  0.0000E+00  0.0000E+00  0.0000E+00  0.0000E+00  0.0000E+00  0.0000E+00  0.0000E+00  0.0000E+00  0.0000E+00  0.0000E+00  0.0000E+00  0.0000E+00  0.0000E+00  0.0000E+00  0.0000E+00  0.0000E+00  0.0000E+00
    -34.810  0.0000E+00  0.0000E+00  0.0000E+00  0.0000E+00  0.0000E+00  0.0000E+00  0.0000E+00  0.0000E+00  0.0000E+00  0.0000E+00  0.0000E+00  0.0000E+00  0.0000E+00  0.0000E+00  0.0000E+00  0.0000E+00  0.0000E+00  0.0000E+00
    -34.617  0.0000E+00  0.0000E+00  0.0000E+00  0.0000E+00  0.0000E+00  0.0000E+00  0.0000E+00  0.0000E+00  0.0000E+00  0.0000E+00  0.0000E+00  0.0000E+00  0.0000E+00  0.0000E+00  0.0000E+00  0.0000E+00  0.0000E+00  0.0000E+00
    -34.425  0.0000E+00  0.0000E+00  0.0000E+00  0.0000E+00  0.0000E+00  0.0000E+00  0.0000E+00  0.0000E+00  0.0000E+00  0.0000E+00  0.0000E+00  0.0000E+00  0.0000E+00  0.0000E+00  0.0000E+00  0.0000E+00  0.0000E+00  0.0000E+00
    -34.232  0.0000E+00  0.0000E+00  0.0000E+00  0.0000E+00  0.0000E+00  0.0000E+00  0.0000E+00  0.0000E+00  0.0000E+00  0.0000E+00  0.0000E+00  0.0000E+00  0.0000E+00  0.0000E+00  0.0000E+00  0.0000E+00  0.0000E+00  0.0000E+00
    -34.040  0.0000E+00  0.0000E+00  0.0000E+00  0.0000E+00  0.0000E+00  0.0000E+00  0.0000E+00  0.0000E+00  0.0000E+00  0.0000E+00  0.0000E+00  0.0000E+00  0.0000E+00  0.0000E+00  0.0000E+00  0.0000E+00  0.0000E+00  0.0000E+00
    -33.847  0.0000E+00  0.0000E+00  0.0000E+00  0.0000E+00  0.0000E+00  0.0000E+00  0.0000E+00  0.0000E+00  0.0000E+00  0.0000E+00  0.0000E+00  0.0000E+00  0.0000E+00  0.0000E+00  0.0000E+00  0.0000E+00  0.0000E+00  0.0000E+00
    -33.654  0.0000E+00  0.0000E+00  0.0000E+00  0.0000E+00  0.0000E+00  0.0000E+00  0.0000E+00  0.0000E+00  0.0000E+00  0.0000E+00  0.0000E+00  0.0000E+00  0.0000E+00  0.0000E+00  0.0000E+00  0.0000E+00  0.0000E+00  0.0000E+00
    -33.462  0.0000E+00  0.0000E+00  0.0000E+00  0.0000E+00  0.0000E+00  0.0000E+00  0.0000E+00  0.0000E+00  0.0000E+00  0.0000E+00  0.0000E+00  0.0000E+00  0.0000E+00  0.0000E+00  0.0000E+00  0.0000E+00  0.0000E+00  0.0000E+00
    -33.269  0.0000E+00  0.0000E+00  0.0000E+00  0.0000E+00  0.0000E+00  0.0000E+00  0.0000E+00  0.0000E+00  0.0000E+00  0.0000E+00  0.0000E+00  0.0000E+00  0.0000E+00  0.0000E+00  0.0000E+00  0.0000E+00  0.0000E+00  0.0000E+00
    -33.076  0.0000E+00  0.0000E+00  0.0000E+00  0.0000E+00  0.0000E+00  0.0000E+00  0.0000E+00  0.0000E+00  0.0000E+00  0.0000E+00  0.0000E+00  0.0000E+00  0.0000E+00  0.0000E+00  0.0000E+00  0.0000E+00  0.0000E+00  0.0000E+00
    -32.884  0.0000E+00  0.0000E+00  0.0000E+00  0.0000E+00  0.0000E+00  0.0000E+00  0.0000E+00  0.0000E+00  0.0000E+00  0.0000E+00  0.0000E+00  0.0000E+00  0.0000E+00  0.0000E+00  0.0000E+00  0.0000E+00  0.0000E+00  0.0000E+00
    -32.691  0.0000E+00  0.0000E+00  0.0000E+00  0.0000E+00  0.0000E+00  0.0000E+00  0.0000E+00  0.0000E+00  0.0000E+00  0.0000E+00  0.0000E+00  0.0000E+00  0.0000E+00  0.0000E+00  0.0000E+00  0.0000E+00  0.0000E+00  0.0000E+00
    -32.498  0.0000E+00  0.0000E+00  0.0000E+00  0.0000E+00  0.0000E+00  0.0000E+00  0.0000E+00  0.0000E+00  0.0000E+00  0.0000E+00  0.0000E+00  0.0000E+00  0.0000E+00  0.0000E+00  0.0000E+00  0.0000E+00  0.0000E+00  0.0000E+00
    -32.306  0.0000E+00  0.0000E+00  0.0000E+00  0.0000E+00  0.0000E+00  0.0000E+00  0.0000E+00  0.0000E+00  0.0000E+00  0.0000E+00  0.0000E+00  0.0000E+00  0.0000E+00  0.0000E+00  0.0000E+00  0.0000E+00  0.0000E+00  0.0000E+00
    -32.113  0.0000E+00  0.0000E+00  0.0000E+00  0.0000E+00  0.0000E+00  0.0000E+00  0.0000E+00  0.0000E+00  0.0000E+00  0.0000E+00  0.0000E+00  0.0000E+00  0.0000E+00  0.0000E+00  0.0000E+00  0.0000E+00  0.0000E+00  0.0000E+00
    -31.920  0.0000E+00  0.0000E+00  0.0000E+00  0.0000E+00  0.0000E+00  0.0000E+00  0.0000E+00  0.0000E+00  0.0000E+00  0.0000E+00  0.0000E+00  0.0000E+00  0.0000E+00  0.0000E+00  0.0000E+00  0.0000E+00  0.0000E+00  0.0000E+00
    -31.728  0.0000E+00  0.0000E+00  0.0000E+00  0.0000E+00  0.0000E+00  0.0000E+00  0.0000E+00  0.0000E+00  0.0000E+00  0.0000E+00  0.0000E+00  0.0000E+00  0.0000E+00  0.0000E+00  0.0000E+00  0.0000E+00  0.0000E+00  0.0000E+00
    -31.535  0.0000E+00  0.0000E+00  0.0000E+00  0.0000E+00  0.0000E+00  0.0000E+00  0.0000E+00  0.0000E+00  0.0000E+00  0.0000E+00  0.0000E+00  0.0000E+00  0.0000E+00  0.0000E+00  0.0000E+00  0.0000E+00  0.0000E+00  0.0000E+00
    -31.342  0.0000E+00  0.0000E+00  0.0000E+00  0.0000E+00  0.0000E+00  0.0000E+00  0.0000E+00  0.0000E+00  0.0000E+00  0.0000E+00  0.0000E+00  0.0000E+00  0.0000E+00  0.0000E+00  0.0000E+00  0.0000E+00  0.0000E+00  0.0000E+00
    -31.150  0.0000E+00  0.0000E+00  0.0000E+00  0.0000E+00  0.0000E+00  0.0000E+00  0.0000E+00  0.0000E+00  0.0000E+00  0.0000E+00  0.0000E+00  0.0000E+00  0.0000E+00  0.0000E+00  0.0000E+00  0.0000E+00  0.0000E+00  0.0000E+00
    -30.957  0.0000E+00  0.0000E+00  0.0000E+00  0.0000E+00  0.0000E+00  0.0000E+00  0.0000E+00  0.0000E+00  0.0000E+00  0.0000E+00  0.0000E+00  0.0000E+00  0.0000E+00  0.0000E+00  0.0000E+00  0.0000E+00  0.0000E+00  0.0000E+00
    -30.765  0.0000E+00  0.0000E+00  0.0000E+00  0.0000E+00  0.0000E+00  0.0000E+00  0.0000E+00  0.0000E+00  0.0000E+00  0.0000E+00  0.0000E+00  0.0000E+00  0.0000E+00  0.0000E+00  0.0000E+00  0.0000E+00  0.0000E+00  0.0000E+00
    -30.572  0.0000E+00  0.0000E+00  0.0000E+00  0.0000E+00  0.0000E+00  0.0000E+00  0.0000E+00  0.0000E+00  0.0000E+00  0.0000E+00  0.0000E+00  0.0000E+00  0.0000E+00  0.0000E+00  0.0000E+00  0.0000E+00  0.0000E+00  0.0000E+00
    -30.379  0.0000E+00  0.0000E+00  0.0000E+00  0.0000E+00  0.0000E+00  0.0000E+00  0.0000E+00  0.0000E+00  0.0000E+00  0.0000E+00  0.0000E+00  0.0000E+00  0.0000E+00  0.0000E+00  0.0000E+00  0.0000E+00  0.0000E+00  0.0000E+00
    -30.187  0.0000E+00  0.0000E+00  0.0000E+00  0.0000E+00  0.0000E+00  0.0000E+00  0.0000E+00  0.0000E+00  0.0000E+00  0.0000E+00  0.0000E+00  0.0000E+00  0.0000E+00  0.0000E+00  0.0000E+00  0.0000E+00  0.0000E+00  0.0000E+00
    -29.994  0.0000E+00  0.0000E+00  0.0000E+00  0.0000E+00  0.0000E+00  0.0000E+00  0.0000E+00  0.0000E+00  0.0000E+00  0.0000E+00  0.0000E+00  0.0000E+00  0.0000E+00  0.0000E+00  0.0000E+00  0.0000E+00  0.0000E+00  0.0000E+00