   8   8   1   0
  0.1377194E+02  0.3643239E-09  0.3643239E-09  0.8300608E-09  0.5000000E-15
  1.000000000000000E-004
  CAR 
 unknown system                          
     18.79920418    -39.13643758  301     10.74072504      1.00000000
    -39.136  0.0000E+00  0.0000E+00  0.0000E+00  0.0000E+00
    -38.943  0.0000E+00  0.0000E+00  0.0000E+00  0.0000E+00
    -38.750  0.0000E+00  0.0000E+00  0.0000E+00  0.0000E+00
    -38.557  0.0000E+00  0.0000E+00  0.0000E+00  0.0000E+00
    -38.364  0.0000E+00  0.0000E+00  0.0000E+00  0.0000E+00
    -38.171  0.0000E+00  0.0000E+00  0.0000E+00  0.0000E+00
    -37.978  0.0000E+00  0.0000E+00  0.0000E+00  0.0000E+00
    -37.785  0.0000E+00  0.0000E+00  0.0000E+00  0.0000E+00
    -37.591  0.0000E+00  0.0000E+00  0.0000E+00  0.0000E+00
    -37.398  0.0000E+00  0.0000E+00  0.0000E+00  0.0000E+00
    -37.205  0.0000E+00  0.0000E+00  0.0000E+00  0.0000E+00
    -37.012  0.3010E-03  0.2996E-03  0.5813E-04  0.5786E-04
    -36.819  0.1400E-01  0.1394E-01  0.2762E-02  0.2749E-02
    -36.626  0.6244E+00  0.6217E+00  0.1233E+00  0.1228E+00
    -36.433  0.7187E+01  0.7181E+01  0.1511E+01  0.1510E+01
    -36.240  0.2460E+01  0.2469E+01  0.1986E+01  0.1986E+01
    -36.047  0.0000E+00  0.0000E+00  0.2000E+01  0.2000E+01
    -35.853  0.0000E+00  0.0000E+00  0.2000E+01  0.2000E+01
    -35.660  0.0000E+00  0.0000E+00  0.2000E+01  0.2000E+01
    -35.467  0.0000E+00  0.0000E+00  0.2000E+01  0.2000E+01
    -35.274  0.0000E+00  0.0000E+00  0.2000E+01  0.2000E+01
    -35.081  0.0000E+00  0.0000E+00  0.2000E+01  0.2000E+01
    -34.888  0.0000E+00  0.0000E+00  0.2000E+01  0.2000E+01
    -34.695  0.0000E+00  0.0000E+00  0.2000E+01  0.2000E+01
    -34.502  0.0000E+00  0.0000E+00  0.2000E+01  0.2000E+01
    -34.308  0.0000E+00  0.0000E+00  0.2000E+01  0.2000E+01
    -34.115  0.0000E+00  0.0000E+00  0.2000E+01  0.2000E+01
    -33.922  0.0000E+00  0.0000E+00  0.2000E+01  0.2000E+01
    -33.729  0.0000E+00  0.0000E+00  0.2000E+01  0.2000E+01
    -33.536  0.0000E+00  0.0000E+00  0.2000E+01  0.2000E+01
    -33.343  0.0000E+00  0.0000E+00  0.2000E+01  0.2000E+01
    -33.150  0.0000E+00  0.0000E+00  0.2000E+01  0.2000E+01
    -32.957  0.0000E+00  0.0000E+00  0.2000E+01  0.2000E+01
    -32.764  0.0000E+00  0.0000E+00  0.2000E+01  0.2000E+01
    -32.570  0.0000E+00  0.0000E+00  0.2000E+01  0.2000E+01
    -32.377  0.0000E+00  0.0000E+00  0.2000E+01  0.2000E+01
    -32.184  0.0000E+00  0.0000E+00  0.2000E+01  0.2000E+01
    -31.991  0.0000E+00  0.0000E+00  0.2000E+01  0.2000E+01
    -31.798  0.0000E+00  0.0000E+00  0.2000E+01  0.2000E+01
    -31.605  0.0000E+00  0.0000E+00  0.2000E+01  0.2000E+01
    -31.412  0.0000E+00  0.0000E+00  0.2000E+01  0.2000E+01
    -31.219  0.0000E+00  0.0000E+00  0.2000E+01  0.2000E+01
    -31.025  0.0000E+00  0.0000E+00  0.2000E+01  0.2000E+01
    -30.832  0.0000E+00  0.0000E+00  0.2000E+01  0.2000E+01
    -30.639  0.0000E+00  0.0000E+00  0.2000E+01  0.2000E+01
    -30.446  0.0000E+00  0.0000E+00  0.2000E+01  0.2000E+01
    -30.253  0.0000E+00  0.0000E+00  0.2000E+01  0.2000E+01
    -30.060  0.0000E+00  0.0000E+00  0.2000E+01  0.2000E+01
    -29.867  0.0000E+00  0.0000E+00  0.2000E+01  0.2000E+01
    -29.674  0.0000E+00  0.0000E+00  0.2000E+01  0.2000E+01
    -29.480  0.0000E+00  0.0000E+00  0.2000E+01  0.2000E+01
    -29.287  0.0000E+00  0.0000E+00  0.2000E+01  0.2000E+01
    -29.094  0.0000E+00  0.0000E+00  0.2000E+01  0.2000E+01
    -28.901  0.0000E+00  0.0000E+00  0.2000E+01  0.2000E+01
    -28.708  0.0000E+00  0.0000E+00  0.2000E+01  0.2000E+01
    -28.515  0.0000E+00  0.0000E+00  0.2000E+01  0.2000E+01
    -28.322  0.0000E+00  0.0000E+00  0.2000E+01  0.2000E+01
    -28.129  0.0000E+00  0.0000E+00  0.2000E+01  0.2000E+01
    -27.936  0.0000E+00  0.0000E+00  0.2000E+01  0.2000E+01
    -27.742  0.0000E+00  0.0000E+00  0.2000E+01  0.2000E+01
    -27.549  0.0000E+00  0.0000E+00  0.2000E+01  0.2000E+01
    -27.356  0.0000E+00  0.0000E+00  0.2000E+01  0.2000E+01
    -27.163  0.0000E+00  0.0000E+00  0.2000E+01  0.2000E+01
    -26.970  0.0000E+00  0.0000E+00  0.2000E+01  0.2000E+01
    -26.777  0.0000E+00  0.0000E+00  0.2000E+01  0.2000E+01
    -26.584  0.0000E+00  0.0000E+00  0.2000E+01  0.2000E+01
    -26.391  0.0000E+00  0.0000E+00  0.2000E+01  0.2000E+01
    -26.197  0.0000E+00  0.0000E+00  0.2000E+01  0.2000E+01
    -26.004  0.0000E+00  0.0000E+00  0.2000E+01  0.2000E+01
    -25.811  0.0000E+00  0.0000E+00  0.2000E+01  0.2000E+01
    -25.618  0.0000E+00  0.0000E+00  0.2000E+01  0.2000E+01
    -25.425  0.0000E+00  0.0000E+00  0.2000E+01  0.2000E+01
    -25.232  0.0000E+00  0.0000E+00  0.2000E+01  0.2000E+01
    -25.039  0.0000E+00  0.0000E+00  0.2000E+01  0.2000E+01
    -24.846  0.0000E+00  0.0000E+00  0.2000E+01  0.2000E+01
    -24.653  0.0000E+00  0.0000E+00  0.2000E+01  0.2000E+01
    -24.459  0.0000E+00  0.0000E+00  0.2000E+01  0.2000E+01
    -24.266  0.0000E+00  0.0000E+00  0.2000E+01  0.2000E+01
    -24.073  0.0000E+00  0.0000E+00  0.2000E+01  0.2000E+01
    -23.880  0.0000E+00  0.0000E+00  0.2000E+01  0.2000E+01
    -23.687  0.0000E+00  0.0000E+00  0.2000E+01  0.2000E+01
    -23.494  0.0000E+00  0.0000E+00  0.2000E+01  0.2000E+01
    -23.301  0.0000E+00  0.0000E+00  0.2000E+01  0.2000E+01
    -23.108  0.0000E+00  0.0000E+00  0.2000E+01  0.2000E+01
    -22.914  0.0000E+00  0.0000E+00  0.2000E+01  0.2000E+01
    -22.721  0.0000E+00  0.0000E+00  0.2000E+01  0.2000E+01
    -22.528  0.0000E+00  0.0000E+00  0.2000E+01  0.2000E+01
    -22.335  0.0000E+00  0.0000E+00  0.2000E+01  0.2000E+01
    -22.142  0.0000E+00  0.0000E+00  0.2000E+01  0.2000E+01
    -21.949  0.0000E+00  0.0000E+00  0.2000E+01  0.2000E+01
    -21.756  0.0000E+00  0.0000E+00  0.2000E+01  0.2000E+01
    -21.563  0.0000E+00  0.0000E+00  0.2000E+01  0.2000E+01
    -21.370  0.0000E+00  0.0000E+00  0.2000E+01  0.2000E+01
    -21.176  0.0000E+00  0.0000E+00  0.2000E+01  0.2000E+01
    -20.983  0.0000E+00  0.0000E+00  0.2000E+01  0.2000E+01
    -20.790  0.0000E+00  0.0000E+00  0.2000E+01  0.2000E+01
    -20.597  0.0000E+00  0.0000E+00  0.2000E+01  0.2000E+01
    -20.404  0.0000E+00  0.0000E+00  0.2000E+01  0.2000E+01
    -20.211  0.0000E+00  0.0000E+00  0.2000E+01  0.2000E+01
    -20.018  0.0000E+00  0.0000E+00  0.2000E+01  0.2000E+01
    -19.825  0.0000E+00  0.0000E+00  0.2000E+01  0.2000E+01
    -19.631  0.0000E+00  0.0000E+00  0.2000E+01  0.2000E+01
    -19.438  0.0000E+00  0.0000E+00  0.2000E+01  0.2000E+01
    -19.245  0.0000E+00  0.0000E+00  0.2000E+01  0.2000E+01
    -19.052  0.0000E+00  0.0000E+00  0.2000E+01  0.2000E+01
    -18.859  0.0000E+00  0.0000E+00  0.2000E+01  0.2000E+01
    -18.666  0.0000E+00  0.0000E+00  0.2000E+01  0.2000E+01
    -18.473  0.0000E+00  0.0000E+00  0.2000E+01  0.2000E+01
    -18.280  0.0000E+00  0.0000E+00  0.2000E+01  0.2000E+01
    -18.086  0.0000E+00  0.0000E+00  0.2000E+01  0.2000E+01
    -17.893  0.0000E+00  0.0000E+00  0.2000E+01  0.2000E+01
    -17.700  0.0000E+00  0.0000E+00  0.2000E+01  0.2000E+01
    -17.507  0.0000E+00  0.0000E+00  0.2000E+01  0.2000E+01
    -17.314  0.0000E+00  0.0000E+00  0.2000E+01  0.2000E+01
    -17.121  0.0000E+00  0.0000E+00  0.2000E+01  0.2000E+01
    -16.928  0.0000E+00  0.0000E+00  0.2000E+01  0.2000E+01
    -16.735  0.0000E+00  0.0000E+00  0.2000E+01  0.2000E+01
    -16.542  0.0000E+00  0.0000E+00  0.2000E+01  0.2000E+01
    -16.348  0.0000E+00  0.0000E+00  0.2000E+01  0.2000E+01
    -16.155  0.0000E+00  0.0000E+00  0.2000E+01  0.2000E+01
    -15.962  0.0000E+00  0.0000E+00  0.2000E+01  0.2000E+01
    -15.769  0.0000E+00  0.0000E+00  0.2000E+01  0.2000E+01
    -15.576  0.1034E-04  0.1026E-04  0.2000E+01  0.2000E+01
    -15.383  0.1859E-02  0.1845E-02  0.2000E+01  0.2000E+01
    -15.190  0.8887E-01  0.8823E-01  0.2018E+01  0.2017E+01
    -14.997  0.2883E+01  0.2868E+01  0.2574E+01  0.2571E+01
    -14.803  0.1389E+02  0.1387E+02  0.5258E+01  0.5250E+01
    -14.610  0.1325E+02  0.1328E+02  0.7816E+01  0.7815E+01
    -14.417  0.8906E+00  0.8971E+00  0.7996E+01  0.7996E+01
    -14.224  0.0000E+00  0.0000E+00  0.8000E+01  0.8000E+01
    -14.031  0.0000E+00  0.0000E+00  0.8000E+01  0.8000E+01
    -13.838  0.0000E+00  0.0000E+00  0.8000E+01  0.8000E+01
    -13.645  0.0000E+00  0.0000E+00  0.8000E+01  0.8000E+01
    -13.452  0.0000E+00  0.0000E+00  0.8000E+01  0.8000E+01
    -13.259  0.0000E+00  0.0000E+00  0.8000E+01  0.8000E+01
    -13.065  0.0000E+00  0.0000E+00  0.8000E+01  0.8000E+01
    -12.872  0.0000E+00  0.0000E+00  0.8000E+01  0.8000E+01
    -12.679  0.0000E+00  0.0000E+00  0.8000E+01  0.8000E+01
    -12.486  0.0000E+00  0.0000E+00  0.8000E+01  0.8000E+01
    -12.293  0.0000E+00  0.0000E+00  0.8000E+01  0.8000E+01
    -12.100  0.0000E+00  0.0000E+00  0.8000E+01  0.8000E+01
    -11.907  0.0000E+00  0.0000E+00  0.8000E+01  0.8000E+01
    -11.714  0.0000E+00  0.0000E+00  0.8000E+01  0.8000E+01
    -11.520  0.0000E+00  0.0000E+00  0.8000E+01  0.8000E+01
    -11.327  0.0000E+00  0.0000E+00  0.8000E+01  0.8000E+01
    -11.134  0.0000E+00  0.0000E+00  0.8000E+01  0.8000E+01
    -10.941  0.0000E+00  0.0000E+00  0.8000E+01  0.8000E+01
    -10.748  0.0000E+00  0.0000E+00  0.8000E+01  0.8000E+01
    -10.555  0.0000E+00  0.0000E+00  0.8000E+01  0.8000E+01
    -10.362  0.0000E+00  0.0000E+00  0.8000E+01  0.8000E+01
    -10.169  0.0000E+00  0.0000E+00  0.8000E+01  0.8000E+01
     -9.975  0.0000E+00  0.0000E+00  0.8000E+01  0.8000E+01
     -9.782  0.0000E+00  0.0000E+00  0.8000E+01  0.8000E+01
     -9.589  0.0000E+00  0.0000E+00  0.8000E+01  0.8000E+01
     -9.396  0.0000E+00  0.0000E+00  0.8000E+01  0.8000E+01
     -9.203  0.0000E+00  0.0000E+00  0.8000E+01  0.8000E+01
     -9.010  0.0000E+00  0.0000E+00  0.8000E+01  0.8000E+01
     -8.817  0.0000E+00  0.0000E+00  0.8000E+01  0.8000E+01
     -8.624  0.0000E+00  0.0000E+00  0.8000E+01  0.8000E+01
     -8.431  0.0000E+00  0.0000E+00  0.8000E+01  0.8000E+01
     -8.237  0.0000E+00  0.0000E+00  0.8000E+01  0.8000E+01
     -8.044  0.0000E+00  0.0000E+00  0.8000E+01  0.8000E+01
     -7.851  0.0000E+00  0.0000E+00  0.8000E+01  0.8000E+01
     -7.658  0.0000E+00  0.0000E+00  0.8000E+01  0.8000E+01
     -7.465  0.0000E+00  0.0000E+00  0.8000E+01  0.8000E+01
     -7.272  0.0000E+00  0.0000E+00  0.8000E+01  0.8000E+01
     -7.079  0.0000E+00  0.0000E+00  0.8000E+01  0.8000E+01
     -6.886  0.0000E+00  0.0000E+00  0.8000E+01  0.8000E+01
     -6.692  0.0000E+00  0.0000E+00  0.8000E+01  0.8000E+01
     -6.499  0.0000E+00  0.0000E+00  0.8000E+01  0.8000E+01
     -6.306  0.0000E+00  0.0000E+00  0.8000E+01  0.8000E+01
     -6.113  0.0000E+00  0.0000E+00  0.8000E+01  0.8000E+01
     -5.920  0.0000E+00  0.0000E+00  0.8000E+01  0.8000E+01
     -5.727  0.0000E+00  0.0000E+00  0.8000E+01  0.8000E+01
     -5.534  0.0000E+00  0.0000E+00  0.8000E+01  0.8000E+01
     -5.341  0.0000E+00  0.0000E+00  0.8000E+01  0.8000E+01
     -5.148  0.0000E+00  0.0000E+00  0.8000E+01  0.8000E+01
     -4.954  0.0000E+00  0.0000E+00  0.8000E+01  0.8000E+01
     -4.761  0.0000E+00  0.0000E+00  0.8000E+01  0.8000E+01
     -4.568  0.0000E+00  0.0000E+00  0.8000E+01  0.8000E+01
     -4.375  0.0000E+00  0.0000E+00  0.8000E+01  0.8000E+01
     -4.182  0.0000E+00  0.0000E+00  0.8000E+01  0.8000E+01
     -3.989  0.0000E+00  0.0000E+00  0.8000E+01  0.8000E+01
     -3.796  0.0000E+00  0.0000E+00  0.8000E+01  0.8000E+01
     -3.603  0.0000E+00  0.0000E+00  0.8000E+01  0.8000E+01
     -3.409  0.0000E+00  0.0000E+00  0.8000E+01  0.8000E+01
     -3.216  0.0000E+00  0.0000E+00  0.8000E+01  0.8000E+01
     -3.023  0.0000E+00  0.0000E+00  0.8000E+01  0.8000E+01
     -2.830  0.0000E+00  0.0000E+00  0.8000E+01  0.8000E+01
     -2.637  0.0000E+00  0.0000E+00  0.8000E+01  0.8000E+01
     -2.444  0.0000E+00  0.0000E+00  0.8000E+01  0.8000E+01
     -2.251  0.0000E+00  0.0000E+00  0.8000E+01  0.8000E+01
     -2.058  0.0000E+00  0.0000E+00  0.8000E+01  0.8000E+01
     -1.865  0.0000E+00  0.0000E+00  0.8000E+01  0.8000E+01
     -1.671  0.0000E+00  0.0000E+00  0.8000E+01  0.8000E+01
     -1.478  0.0000E+00  0.0000E+00  0.8000E+01  0.8000E+01
     -1.285  0.0000E+00  0.0000E+00  0.8000E+01  0.8000E+01
     -1.092  0.0000E+00  0.0000E+00  0.8000E+01  0.8000E+01
     -0.899  0.0000E+00  0.0000E+00  0.8000E+01  0.8000E+01
     -0.706  0.0000E+00  0.0000E+00  0.8000E+01  0.8000E+01
     -0.513  0.0000E+00  0.0000E+00  0.8000E+01  0.8000E+01
     -0.320  0.4363E-06  0.4336E-06  0.8000E+01  0.8000E+01
     -0.126  0.2792E-04  0.2775E-04  0.8000E+01  0.8000E+01
      0.067  0.1295E-02  0.1288E-02  0.8000E+01  0.8000E+01
      0.260  0.3060E-01  0.3049E-01  0.8006E+01  0.8006E+01
      0.453  0.1147E+00  0.1146E+00  0.8028E+01  0.8028E+01
      0.646  0.1924E+00  0.1923E+00  0.8066E+01  0.8065E+01
      0.839  0.2248E+00  0.2248E+00  0.8109E+01  0.8109E+01
      1.032  0.2956E+00  0.2955E+00  0.8166E+01  0.8166E+01
      1.225  0.3145E+00  0.3145E+00  0.8227E+01  0.8227E+01
      1.419  0.3521E+00  0.3519E+00  0.8296E+01  0.8296E+01
      1.612  0.4375E+00  0.4373E+00  0.8381E+01  0.8380E+01
      1.805  0.4464E+00  0.4465E+00  0.8467E+01  0.8467E+01
      1.998  0.4497E+00  0.4493E+00  0.8554E+01  0.8554E+01
      2.191  0.6342E+00  0.6341E+00  0.8677E+01  0.8677E+01
      2.384  0.6146E+00  0.6145E+00  0.8796E+01  0.8796E+01
      2.577  0.6098E+00  0.6098E+00  0.8914E+01  0.8914E+01
      2.770  0.6228E+00  0.6229E+00  0.9035E+01  0.9035E+01
      2.963  0.7552E+00  0.7549E+00  0.9181E+01  0.9181E+01
      3.157  0.7170E+00  0.7172E+00  0.9320E+01  0.9319E+01
      3.350  0.7339E+00  0.7339E+00  0.9462E+01  0.9462E+01
      3.543  0.7698E+00  0.7697E+00  0.9611E+01  0.9611E+01
      3.736  0.8812E+00  0.8809E+00  0.9782E+01  0.9782E+01
      3.929  0.1000E+01  0.1000E+01  0.9976E+01  0.9976E+01
      4.122  0.1048E+01  0.1048E+01  0.1018E+02  0.1018E+02
      4.315  0.1170E+01  0.1170E+01  0.1041E+02  0.1041E+02
      4.508  0.1213E+01  0.1213E+01  0.1064E+02  0.1064E+02
      4.702  0.1082E+01  0.1082E+01  0.1085E+02  0.1085E+02
      4.895  0.8878E+00  0.8878E+00  0.1102E+02  0.1102E+02
      5.088  0.9787E+00  0.9787E+00  0.1121E+02  0.1121E+02
      5.281  0.7528E+00  0.7531E+00  0.1136E+02  0.1136E+02
      5.474  0.7435E+00  0.7433E+00  0.1150E+02  0.1150E+02
      5.667  0.8836E+00  0.8836E+00  0.1167E+02  0.1167E+02
      5.860  0.8295E+00  0.8296E+00  0.1184E+02  0.1183E+02
      6.053  0.8855E+00  0.8853E+00  0.1201E+02  0.1201E+02
      6.246  0.1052E+01  0.1051E+01  0.1221E+02  0.1221E+02
      6.440  0.1402E+01  0.1402E+01  0.1248E+02  0.1248E+02
      6.633  0.1552E+01  0.1551E+01  0.1278E+02  0.1278E+02
      6.826  0.1591E+01  0.1591E+01  0.1309E+02  0.1309E+02
      7.019  0.1052E+01  0.1053E+01  0.1330E+02  0.1329E+02
      7.212  0.1035E+01  0.1034E+01  0.1350E+02  0.1350E+02
      7.405  0.1279E+01  0.1279E+01  0.1374E+02  0.1374E+02
      7.598  0.1117E+01  0.1117E+01  0.1396E+02  0.1396E+02
      7.791  0.1314E+01  0.1313E+01  0.1422E+02  0.1422E+02
      7.985  0.1698E+01  0.1698E+01  0.1454E+02  0.1454E+02
      8.178  0.1355E+01  0.1356E+01  0.1481E+02  0.1481E+02
      8.371  0.1510E+01  0.1510E+01  0.1510E+02  0.1510E+02
      8.564  0.1870E+01  0.1870E+01  0.1546E+02  0.1546E+02
      8.757  0.1787E+01  0.1787E+01  0.1581E+02  0.1581E+02
      8.950  0.1814E+01  0.1814E+01  0.1616E+02  0.1616E+02
      9.143  0.2650E+01  0.2648E+01  0.1667E+02  0.1667E+02
      9.336  0.3767E+01  0.3765E+01  0.1740E+02  0.1740E+02
      9.530  0.3998E+01  0.4000E+01  0.1818E+02  0.1818E+02
      9.723  0.2821E+01  0.2822E+01  0.1873E+02  0.1872E+02
      9.916  0.2612E+01  0.2611E+01  0.1923E+02  0.1923E+02
     10.109  0.2916E+01  0.2916E+01  0.1980E+02  0.1980E+02
     10.302  0.2582E+01  0.2583E+01  0.2030E+02  0.2030E+02
     10.495  0.1815E+01  0.1816E+01  0.2065E+02  0.2065E+02
     10.688  0.1465E+01  0.1466E+01  0.2094E+02  0.2094E+02
     10.881  0.1077E+01  0.1077E+01  0.2114E+02  0.2114E+02
     11.074  0.9579E+00  0.9577E+00  0.2133E+02  0.2133E+02
     11.268  0.9056E+00  0.9060E+00  0.2151E+02  0.2151E+02
     11.461  0.7396E+00  0.7394E+00  0.2165E+02  0.2165E+02
     11.654  0.7981E+00  0.7984E+00  0.2180E+02  0.2180E+02
     11.847  0.7747E+00  0.7744E+00  0.2196E+02  0.2195E+02
     12.040  0.5332E+00  0.5343E+00  0.2206E+02  0.2206E+02
     12.233  0.3392E+00  0.3386E+00  0.2212E+02  0.2212E+02
     12.426  0.8890E+00  0.8880E+00  0.2230E+02  0.2230E+02
     12.619  0.1231E+01  0.1230E+01  0.2253E+02  0.2253E+02
     12.813  0.1415E+01  0.1415E+01  0.2281E+02  0.2281E+02
     13.006  0.1459E+01  0.1459E+01  0.2309E+02  0.2309E+02
     13.199  0.1623E+01  0.1622E+01  0.2341E+02  0.2340E+02
     13.392  0.2115E+01  0.2114E+01  0.2382E+02  0.2381E+02
     13.585  0.2677E+01  0.2676E+01  0.2433E+02  0.2433E+02
     13.778  0.2317E+01  0.2318E+01  0.2478E+02  0.2478E+02
     13.971  0.2221E+01  0.2222E+01  0.2521E+02  0.2521E+02
     14.164  0.1990E+01  0.1989E+01  0.2560E+02  0.2560E+02
     14.357  0.1917E+01  0.1916E+01  0.2597E+02  0.2597E+02
     14.551  0.2020E+01  0.2037E+01  0.2636E+02  0.2637E+02
     14.744  0.2375E+01  0.2383E+01  0.2682E+02  0.2683E+02
     14.937  0.2206E+01  0.2173E+01  0.2725E+02  0.2725E+02
     15.130  0.1763E+01  0.1777E+01  0.2759E+02  0.2759E+02
     15.323  0.1039E+01  0.1118E+01  0.2780E+02  0.2781E+02
     15.516  0.5979E+00  0.5185E+00  0.2791E+02  0.2791E+02
     15.709  0.2684E+00  0.3084E+00  0.2797E+02  0.2797E+02
     15.902  0.1284E+00  0.1093E+00  0.2799E+02  0.2799E+02
     16.096  0.3950E-01  0.1111E-01  0.2800E+02  0.2800E+02
     16.289  0.7866E-02  0.1268E-01  0.2800E+02  0.2800E+02
     16.482  0.0000E+00  0.1349E-02  0.2800E+02  0.2800E+02
     16.675  0.0000E+00  0.0000E+00  0.2800E+02  0.2800E+02
     16.868  0.0000E+00  0.0000E+00  0.2800E+02  0.2800E+02
     17.061  0.0000E+00  0.0000E+00  0.2800E+02  0.2800E+02
     17.254  0.0000E+00  0.0000E+00  0.2800E+02  0.2800E+02
     17.447  0.0000E+00  0.0000E+00  0.2800E+02  0.2800E+02
     17.640  0.0000E+00  0.0000E+00  0.2800E+02  0.2800E+02
     17.834  0.0000E+00  0.0000E+00  0.2800E+02  0.2800E+02
     18.027  0.0000E+00  0.0000E+00  0.2800E+02  0.2800E+02
     18.220  0.0000E+00  0.0000E+00  0.2800E+02  0.2800E+02
     18.413  0.0000E+00  0.0000E+00  0.2800E+02  0.2800E+02
     18.606  0.0000E+00  0.0000E+00  0.2800E+02  0.2800E+02
     18.799  0.0000E+00  0.0000E+00  0.2800E+02  0.2800E+02
     18.79920418    -39.13643758  301     10.74072504      1.00000000
    -39.136  0.0000E+00  0.0000E+00  0.0000E+00  0.0000E+00  0.0000E+00  0.0000E+00  0.0000E+00  0.0000E+00  0.0000E+00  0.0000E+00  0.0000E+00  0.0000E+00  0.0000E+00  0.0000E+00  0.0000E+00  0.0000E+00  0.0000E+00  0.0000E+00
    -38.943  0.0000E+00  0.0000E+00  0.0000E+00  0.0000E+00  0.0000E+00  0.0000E+00  0.0000E+00  0.0000E+00  0.0000E+00  0.0000E+00  0.0000E+00  0.0000E+00  0.0000E+00  0.0000E+00  0.0000E+00  0.0000E+00  0.0000E+00  0.0000E+00
    -38.750  0.0000E+00  0.0000E+00  0.0000E+00  0.0000E+00  0.0000E+00  0.0000E+00  0.0000E+00  0.0000E+00  0.0000E+00  0.0000E+00  0.0000E+00  0.0000E+00  0.0000E+00  0.0000E+00  0.0000E+00  0.0000E+00  0.0000E+00  0.0000E+00
    -38.557  0.0000E+00  0.0000E+00  0.0000E+00  0.0000E+00  0.0000E+00  0.0000E+00  0.0000E+00  0.0000E+00  0.0000E+00  0.0000E+00  0.0000E+00  0.0000E+00  0.0000E+00  0.0000E+00  0.0000E+00  0.0000E+00  0.0000E+00  0.0000E+00
    -38.364  0.0000E+00  0.0000E+00  0.0000E+00  0.0000E+00  0.0000E+00  0.0000E+00  0.0000E+00  0.0000E+00  0.0000E+00  0.0000E+00  0.0000E+00  0.0000E+00  0.0000E+00  0.0000E+00  0.0000E+00  0.0000E+00  0.0000E+00  0.0000E+00
    -38.171  0.0000E+00  0.0000E+00  0.0000E+00  0.0000E+00  0.0000E+00  0.0000E+00  0.0000E+00  0.0000E+00  0.0000E+00  0.0000E+00  0.0000E+00  0.0000E+00  0.0000E+00  0.0000E+00  0.0000E+00  0.0000E+00  0.0000E+00  0.0000E+00
    -37.978  0.0000E+00  0.0000E+00  0.0000E+00  0.0000E+00  0.0000E+00  0.0000E+00  0.0000E+00  0.0000E+00  0.0000E+00  0.0000E+00  0.0000E+00  0.0000E+00  0.0000E+00  0.0000E+00  0.0000E+00  0.0000E+00  0.0000E+00  0.0000E+00
    -37.785  0.0000E+00  0.0000E+00  0.0000E+00  0.0000E+00  0.0000E+00  0.0000E+00  0.0000E+00  0.0000E+00  0.0000E+00  0.0000E+00  0.0000E+00  0.0000E+00  0.0000E+00  0.0000E+00  0.0000E+00  0.0000E+00  0.0000E+00  0.0000E+00
    -37.591  0.0000E+00  0.0000E+00  0.0000E+00  0.0000E+00  0.0000E+00  0.0000E+00  0.0000E+00  0.0000E+00  0.0000E+00  0.0000E+00  0.0000E+00  0.0000E+00  0.0000E+00  0.0000E+00  0.0000E+00  0.0000E+00  0.0000E+00  0.0000E+00
    -37.398  0.0000E+00  0.0000E+00  0.0000E+00  0.0000E+00  0.0000E+00  0.0000E+00  0.0000E+00  0.0000E+00  0.0000E+00  0.0000E+00  0.0000E+00  0.0000E+00  0.0000E+00  0.0000E+00  0.0000E+00  0.0000E+00  0.0000E+00  0.0000E+00
    -37.205  0.0000E+00  0.0000E+00  0.0000E+00  0.0000E+00  0.0000E+00  0.0000E+00  0.0000E+00  0.0000E+00  0.0000E+00  0.0000E+00  0.0000E+00  0.0000E+00  0.0000E+00  0.0000E+00  0.0000E+00  0.0000E+00  0.0000E+00  0.0000E+00
    -37.012  0.1493E-03  0.1486E-03  0.2764E-10  0.2756E-10  0.3611E-13  0.3819E-13  0.2764E-10  0.2756E-10  0.3495E-13  0.3412E-13  0.1165E-13  0.1367E-13  0.3466E-09  0.3449E-09  0.1165E-13  0.1367E-13  0.3076E-10  0.3070E-10
    -36.819  0.6943E-02  0.6911E-02  0.1286E-08  0.1282E-08  0.1679E-11  0.1776E-11  0.1286E-08  0.1282E-08  0.1626E-11  0.1587E-11  0.5417E-12  0.6359E-12  0.1612E-07  0.1604E-07  0.5417E-12  0.6359E-12  0.1431E-08  0.1428E-08
    -36.626  0.3097E+00  0.3083E+00  0.5734E-07  0.5720E-07  0.7433E-10  0.7862E-10  0.5734E-07  0.5720E-07  0.7255E-10  0.7086E-10  0.2417E-10  0.2835E-10  0.7173E-06  0.7139E-06  0.2417E-10  0.2835E-10  0.6389E-07  0.6380E-07
    -36.433  0.3565E+01  0.3562E+01  0.6586E-06  0.6592E-06  0.7805E-09  0.8254E-09  0.6586E-06  0.6592E-06  0.8373E-09  0.8237E-09  0.2777E-09  0.3241E-09  0.8016E-05  0.8007E-05  0.2777E-09  0.3241E-09  0.7423E-06  0.7437E-06
    -36.240  0.1220E+01  0.1225E+01  0.2240E-06  0.2252E-06  0.2375E-09  0.2511E-09  0.2240E-06  0.2252E-06  0.2856E-09  0.2834E-09  0.9418E-10  0.1093E-09  0.2645E-05  0.2654E-05  0.9418E-10  0.1093E-09  0.2542E-06  0.2558E-06
    -36.047  0.0000E+00  0.0000E+00  0.0000E+00  0.0000E+00  0.0000E+00  0.0000E+00  0.0000E+00  0.0000E+00  0.0000E+00  0.0000E+00  0.0000E+00  0.0000E+00  0.0000E+00  0.0000E+00  0.0000E+00  0.0000E+00  0.0000E+00  0.0000E+00
    -35.853  0.0000E+00  0.0000E+00  0.0000E+00  0.0000E+00  0.0000E+00  0.0000E+00  0.0000E+00  0.0000E+00  0.0000E+00  0.0000E+00  0.0000E+00  0.0000E+00  0.0000E+00  0.0000E+00  0.0000E+00  0.0000E+00  0.0000E+00  0.0000E+00
    -35.660  0.0000E+00  0.0000E+00  0.0000E+00  0.0000E+00  0.0000E+00  0.0000E+00  0.0000E+00  0.0000E+00  0.0000E+00  0.0000E+00  0.0000E+00  0.0000E+00  0.0000E+00  0.0000E+00  0.0000E+00  0.0000E+00  0.0000E+00  0.0000E+00
    -35.467  0.0000E+00  0.0000E+00  0.0000E+00  0.0000E+00  0.0000E+00  0.0000E+00  0.0000E+00  0.0000E+00  0.0000E+00  0.0000E+00  0.0000E+00  0.0000E+00  0.0000E+00  0.0000E+00  0.0000E+00  0.0000E+00  0.0000E+00  0.0000E+00
    -35.274  0.0000E+00  0.0000E+00  0.0000E+00  0.0000E+00  0.0000E+00  0.0000E+00  0.0000E+00  0.0000E+00  0.0000E+00  0.0000E+00  0.0000E+00  0.0000E+00  0.0000E+00  0.0000E+00  0.0000E+00  0.0000E+00  0.0000E+00  0.0000E+00
    -35.081  0.0000E+00  0.0000E+00  0.0000E+00  0.0000E+00  0.0000E+00  0.0000E+00  0.0000E+00  0.0000E+00  0.0000E+00  0.0000E+00  0.0000E+00  0.0000E+00  0.0000E+00  0.0000E+00  0.0000E+00  0.0000E+00  0.0000E+00  0.0000E+00
    -34.888  0.0000E+00  0.0000E+00  0.0000E+00  0.0000E+00  0.0000E+00  0.0000E+00  0.0000E+00  0.0000E+00  0.0000E+00  0.0000E+00  0.0000E+00  0.0000E+00  0.0000E+00  0.0000E+00  0.0000E+00  0.0000E+00  0.0000E+00  0.0000E+00
    -34.695  0.0000E+00  0.0000E+00  0.0000E+00  0.0000E+00  0.0000E+00  0.0000E+00  0.0000E+00  0.0000E+00  0.0000E+00  0.0000E+00  0.0000E+00  0.0000E+00  0.0000E+00  0.0000E+00  0.0000E+00  0.0000E+00  0.0000E+00  0.0000E+00
    -34.502  0.0000E+00  0.0000E+00  0.0000E+00  0.0000E+00  0.0000E+00  0.0000E+00  0.0000E+00  0.0000E+00  0.0000E+00  0.0000E+00  0.0000E+00  0.0000E+00  0.0000E+00  0.0000E+00  0.0000E+00  0.0000E+00  0.0000E+00  0.0000E+00
    -34.308  0.0000E+00  0.0000E+00  0.0000E+00  0.0000E+00  0.0000E+00  0.0000E+00  0.0000E+00  0.0000E+00  0.0000E+00  0.0000E+00  0.0000E+00  0.0000E+00  0.0000E+00  0.0000E+00  0.0000E+00  0.0000E+00  0.0000E+00  0.0000E+00
    -34.115  0.0000E+00  0.0000E+00  0.0000E+00  0.0000E+00  0.0000E+00  0.0000E+00  0.0000E+00  0.0000E+00  0.0000E+00  0.0000E+00  0.0000E+00  0.0000E+00  0.0000E+00  0.0000E+00  0.0000E+00  0.0000E+00  0.0000E+00  0.0000E+00
    -33.922  0.0000E+00  0.0000E+00  0.0000E+00  0.0000E+00  0.0000E+00  0.0000E+00  0.0000E+00  0.0000E+00  0.0000E+00  0.0000E+00  0.0000E+00  0.0000E+00  0.0000E+00  0.0000E+00  0.0000E+00  0.0000E+00  0.0000E+00  0.0000E+00
    -33.729  0.0000E+00  0.0000E+00  0.0000E+00  0.0000E+00  0.0000E+00  0.0000E+00  0.0000E+00  0.0000E+00  0.0000E+00  0.0000E+00  0.0000E+00  0.0000E+00  0.0000E+00  0.0000E+00  0.0000E+00  0.0000E+00  0.0000E+00  0.0000E+00
    -33.536  0.0000E+00  0.0000E+00  0.0000E+00  0.0000E+00  0.0000E+00  0.0000E+00  0.0000E+00  0.0000E+00  0.0000E+00  0.0000E+00  0.0000E+00  0.0000E+00  0.0000E+00  0.0000E+00  0.0000E+00  0.0000E+00  0.0000E+00  0.0000E+00
    -33.343  0.0000E+00  0.0000E+00  0.0000E+00  0.0000E+00  0.0000E+00  0.0000E+00  0.0000E+00  0.0000E+00  0.0000E+00  0.0000E+00  0.0000E+00  0.0000E+00  0.0000E+00  0.0000E+00  0.0000E+00  0.0000E+00  0.0000E+00  0.0000E+00
    -33.150  0.0000E+00  0.0000E+00  0.0000E+00  0.0000E+00  0.0000E+00  0.0000E+00  0.0000E+00  0.0000E+00  0.0000E+00  0.0000E+00  0.0000E+00  0.0000E+00  0.0000E+00  0.0000E+00  0.0000E+00  0.0000E+00  0.0000E+00  0.0000E+00
    -32.957  0.0000E+00  0.0000E+00  0.0000E+00  0.0000E+00  0.0000E+00  0.0000E+00  0.0000E+00  0.0000E+00  0.0000E+00  0.0000E+00  0.0000E+00  0.0000E+00  0.0000E+00  0.0000E+00  0.0000E+00  0.0000E+00  0.0000E+00  0.0000E+00
    -32.764  0.0000E+00  0.0000E+00  0.0000E+00  0.0000E+00  0.0000E+00  0.0000E+00  0.0000E+00  0.0000E+00  0.0000E+00  0.0000E+00  0.0000E+00  0.0000E+00  0.0000E+00  0.0000E+00  0.0000E+00  0.0000E+00  0.0000E+00  0.0000E+00
    -32.570  0.0000E+00  0.0000E+00  0.0000E+00  0.0000E+00  0.0000E+00  0.0000E+00  0.0000E+00  0.0000E+00  0.0000E+00  0.0000E+00  0.0000E+00  0.0000E+00  0.0000E+00  0.0000E+00  0.0000E+00  0.0000E+00  0.0000E+00  0.0000E+00
    -32.377  0.0000E+00  0.0000E+00  0.0000E+00  0.0000E+00  0.0000E+00  0.0000E+00  0.0000E+00  0.0000E+00  0.0000E+00  0.0000E+00  0.0000E+00  0.0000E+00  0.0000E+00  0.0000E+00  0.0000E+00  0.0000E+00  0.0000E+00  0.0000E+00
    -32.184  0.0000E+00  0.0000E+00  0.0000E+00  0.0000E+00  0.0000E+00  0.0000E+00  0.0000E+00  0.0000E+00  0.0000E+00  0.0000E+00  0.0000E+00  0.0000E+00  0.0000E+00  0.0000E+00  0.0000E+00  0.0000E+00  0.0000E+00  0.0000E+00
    -31.991  0.0000E+00  0.0000E+00  0.0000E+00  0.0000E+00  0.0000E+00  0.0000E+00  0.0000E+00  0.0000E+00  0.0000E+00  0.0000E+00  0.0000E+00  0.0000E+00  0.0000E+00  0.0000E+00  0.0000E+00  0.0000E+00  0.0000E+00  0.0000E+00
    -31.798  0.0000E+00  0.0000E+00  0.0000E+00  0.0000E+00  0.0000E+00  0.0000E+00  0.0000E+00  0.0000E+00  0.0000E+00  0.0000E+00  0.0000E+00  0.0000E+00  0.0000E+00  0.0000E+00  0.0000E+00  0.0000E+00  0.0000E+00  0.0000E+00
    -31.605  0.0000E+00  0.0000E+00  0.0000E+00  0.0000E+00  0.0000E+00  0.0000E+00  0.0000E+00  0.0000E+00  0.0000E+00  0.0000E+00  0.0000E+00  0.0000E+00  0.0000E+00  0.0000E+00  0.0000E+00  0.0000E+00  0.0000E+00  0.0000E+00
    -31.412  0.0000E+00  0.0000E+00  0.0000E+00  0.0000E+00  0.0000E+00  0.0000E+00  0.0000E+00  0.0000E+00  0.0000E+00  0.0000E+00  0.0000E+00  0.0000E+00  0.0000E+00  0.0000E+00  0.0000E+00  0.0000E+00  0.0000E+00  0.0000E+00
    -31.219  0.0000E+00  0.0000E+00  0.0000E+00  0.0000E+00  0.0000E+00  0.0000E+00  0.0000E+00  0.0000E+00  0.0000E+00  0.0000E+00  0.0000E+00  0.0000E+00  0.0000E+00  0.0000E+00  0.0000E+00  0.0000E+00  0.0000E+00  0.0000E+00
    -31.025  0.0000E+00  0.0000E+00  0.0000E+00  0.0000E+00  0.0000E+00  0.0000E+00  0.0000E+00  0.0000E+00  0.0000E+00  0.0000E+00  0.0000E+00  0.0000E+00  0.0000E+00  0.0000E+00  0.0000E+00  0.0000E+00  0.0000E+00  0.0000E+00
    -30.832  0.0000E+00  0.0000E+00  0.0000E+00  0.0000E+00  0.0000E+00  0.0000E+00  0.0000E+00  0.0000E+00  0.0000E+00  0.0000E+00  0.0000E+00  0.0000E+00  0.0000E+00  0.0000E+00  0.0000E+00  0.0000E+00  0.0000E+00  0.0000E+00
    -30.639  0.0000E+00  0.0000E+00  0.0000E+00  0.0000E+00  0.0000E+00  0.0000E+00  0.0000E+00  0.0000E+00  0.0000E+00  0.0000E+00  0.0000E+00  0.0000E+00  0.0000E+00  0.0000E+00  0.0000E+00  0.0000E+00  0.0000E+00  0.0000E+00
    -30.446  0.0000E+00  0.0000E+00  0.0000E+00  0.0000E+00  0.0000E+00  0.0000E+00  0.0000E+00  0.0000E+00  0.0000E+00  0.0000E+00  0.0000E+00  0.0000E+00  0.0000E+00  0.0000E+00  0.0000E+00  0.0000E+00  0.0000E+00  0.0000E+00
    -30.253  0.0000E+00  0.0000E+00  0.0000E+00  0.0000E+00  0.0000E+00  0.0000E+00  0.0000E+00  0.0000E+00  0.0000E+00  0.0000E+00  0.0000E+00  0.0000E+00  0.0000E+00  0.0000E+00  0.0000E+00  0.0000E+00  0.0000E+00  0.0000E+00
    -30.060  0.0000E+00  0.0000E+00  0.0000E+00  0.0000E+00  0.0000E+00  0.0000E+00  0.0000E+00  0.0000E+00  0.0000E+00  0.0000E+00  0.0000E+00  0.0000E+00  0.0000E+00  0.0000E+00  0.0000E+00  0.0000E+00  0.0000E+00  0.0000E+00
    -29.867  0.0000E+00  0.0000E+00  0.0000E+00  0.0000E+00  0.0000E+00  0.0000E+00  0.0000E+00  0.0000E+00  0.0000E+00  0.0000E+00  0.0000E+00  0.0000E+00  0.0000E+00  0.0000E+00  0.0000E+00  0.0000E+00  0.0000E+00  0.0000E+00
    -29.674  0.0000E+00  0.0000E+00  0.0000E+00  0.0000E+00  0.0000E+00  0.0000E+00  0.0000E+00  0.0000E+00  0.0000E+00  0.0000E+00  0.0000E+00  0.0000E+00  0.0000E+00  0.0000E+00  0.0000E+00  0.0000E+00  0.0000E+00  0.0000E+00
    -29.480  0.0000E+00  0.0000E+00  0.0000E+00  0.0000E+00  0.0000E+00  0.0000E+00  0.0000E+00  0.0000E+00  0.0000E+00  0.0000E+00  0.0000E+00  0.0000E+00  0.0000E+00  0.0000E+00  0.0000E+00  0.0000E+00  0.0000E+00  0.0000E+00