   8   8   1   0
  0.1289316E+02  0.3564038E-09  0.3564038E-09  0.8120160E-09  0.5000000E-15
  1.000000000000000E-004
  CAR 
 unknown system                          
     20.02319194    -38.11404157  301     11.54190791      1.00000000
    -38.114  0.0000E+00  0.0000E+00  0.0000E+00  0.0000E+00
    -37.920  0.0000E+00  0.0000E+00  0.0000E+00  0.0000E+00
    -37.726  0.0000E+00  0.0000E+00  0.0000E+00  0.0000E+00
    -37.533  0.0000E+00  0.0000E+00  0.0000E+00  0.0000E+00
    -37.339  0.0000E+00  0.0000E+00  0.0000E+00  0.0000E+00
    -37.145  0.0000E+00  0.0000E+00  0.0000E+00  0.0000E+00
    -36.951  0.0000E+00  0.0000E+00  0.0000E+00  0.0000E+00
    -36.758  0.0000E+00  0.0000E+00  0.0000E+00  0.0000E+00
    -36.564  0.0000E+00  0.0000E+00  0.0000E+00  0.0000E+00
    -36.370  0.0000E+00  0.0000E+00  0.0000E+00  0.0000E+00
    -36.176  0.0000E+00  0.0000E+00  0.0000E+00  0.0000E+00
    -35.982  0.2622E-03  0.2594E-03  0.5082E-04  0.5026E-04
    -35.789  0.1237E-01  0.1223E-01  0.2448E-02  0.2421E-02
    -35.595  0.5622E+00  0.5564E+00  0.1114E+00  0.1103E+00
    -35.401  0.7019E+01  0.7003E+01  0.1472E+01  0.1467E+01
    -35.207  0.2649E+01  0.2670E+01  0.1985E+01  0.1985E+01
    -35.013  0.0000E+00  0.0000E+00  0.2000E+01  0.2000E+01
    -34.820  0.0000E+00  0.0000E+00  0.2000E+01  0.2000E+01
    -34.626  0.0000E+00  0.0000E+00  0.2000E+01  0.2000E+01
    -34.432  0.0000E+00  0.0000E+00  0.2000E+01  0.2000E+01
    -34.238  0.0000E+00  0.0000E+00  0.2000E+01  0.2000E+01
    -34.044  0.0000E+00  0.0000E+00  0.2000E+01  0.2000E+01
    -33.851  0.0000E+00  0.0000E+00  0.2000E+01  0.2000E+01
    -33.657  0.0000E+00  0.0000E+00  0.2000E+01  0.2000E+01
    -33.463  0.0000E+00  0.0000E+00  0.2000E+01  0.2000E+01
    -33.269  0.0000E+00  0.0000E+00  0.2000E+01  0.2000E+01
    -33.075  0.0000E+00  0.0000E+00  0.2000E+01  0.2000E+01
    -32.882  0.0000E+00  0.0000E+00  0.2000E+01  0.2000E+01
    -32.688  0.0000E+00  0.0000E+00  0.2000E+01  0.2000E+01
    -32.494  0.0000E+00  0.0000E+00  0.2000E+01  0.2000E+01
    -32.300  0.0000E+00  0.0000E+00  0.2000E+01  0.2000E+01
    -32.107  0.0000E+00  0.0000E+00  0.2000E+01  0.2000E+01
    -31.913  0.0000E+00  0.0000E+00  0.2000E+01  0.2000E+01
    -31.719  0.0000E+00  0.0000E+00  0.2000E+01  0.2000E+01
    -31.525  0.0000E+00  0.0000E+00  0.2000E+01  0.2000E+01
    -31.331  0.0000E+00  0.0000E+00  0.2000E+01  0.2000E+01
    -31.138  0.0000E+00  0.0000E+00  0.2000E+01  0.2000E+01
    -30.944  0.0000E+00  0.0000E+00  0.2000E+01  0.2000E+01
    -30.750  0.0000E+00  0.0000E+00  0.2000E+01  0.2000E+01
    -30.556  0.0000E+00  0.0000E+00  0.2000E+01  0.2000E+01
    -30.362  0.0000E+00  0.0000E+00  0.2000E+01  0.2000E+01
    -30.169  0.0000E+00  0.0000E+00  0.2000E+01  0.2000E+01
    -29.975  0.0000E+00  0.0000E+00  0.2000E+01  0.2000E+01
    -29.781  0.0000E+00  0.0000E+00  0.2000E+01  0.2000E+01
    -29.587  0.0000E+00  0.0000E+00  0.2000E+01  0.2000E+01
    -29.393  0.0000E+00  0.0000E+00  0.2000E+01  0.2000E+01
    -29.200  0.0000E+00  0.0000E+00  0.2000E+01  0.2000E+01
    -29.006  0.0000E+00  0.0000E+00  0.2000E+01  0.2000E+01
    -28.812  0.0000E+00  0.0000E+00  0.2000E+01  0.2000E+01
    -28.618  0.0000E+00  0.0000E+00  0.2000E+01  0.2000E+01
    -28.425  0.0000E+00  0.0000E+00  0.2000E+01  0.2000E+01
    -28.231  0.0000E+00  0.0000E+00  0.2000E+01  0.2000E+01
    -28.037  0.0000E+00  0.0000E+00  0.2000E+01  0.2000E+01
    -27.843  0.0000E+00  0.0000E+00  0.2000E+01  0.2000E+01
    -27.649  0.0000E+00  0.0000E+00  0.2000E+01  0.2000E+01
    -27.456  0.0000E+00  0.0000E+00  0.2000E+01  0.2000E+01
    -27.262  0.0000E+00  0.0000E+00  0.2000E+01  0.2000E+01
    -27.068  0.0000E+00  0.0000E+00  0.2000E+01  0.2000E+01
    -26.874  0.0000E+00  0.0000E+00  0.2000E+01  0.2000E+01
    -26.680  0.0000E+00  0.0000E+00  0.2000E+01  0.2000E+01
    -26.487  0.0000E+00  0.0000E+00  0.2000E+01  0.2000E+01
    -26.293  0.0000E+00  0.0000E+00  0.2000E+01  0.2000E+01
    -26.099  0.0000E+00  0.0000E+00  0.2000E+01  0.2000E+01
    -25.905  0.0000E+00  0.0000E+00  0.2000E+01  0.2000E+01
    -25.711  0.0000E+00  0.0000E+00  0.2000E+01  0.2000E+01
    -25.518  0.0000E+00  0.0000E+00  0.2000E+01  0.2000E+01
    -25.324  0.0000E+00  0.0000E+00  0.2000E+01  0.2000E+01
    -25.130  0.0000E+00  0.0000E+00  0.2000E+01  0.2000E+01
    -24.936  0.0000E+00  0.0000E+00  0.2000E+01  0.2000E+01
    -24.742  0.0000E+00  0.0000E+00  0.2000E+01  0.2000E+01
    -24.549  0.0000E+00  0.0000E+00  0.2000E+01  0.2000E+01
    -24.355  0.0000E+00  0.0000E+00  0.2000E+01  0.2000E+01
    -24.161  0.0000E+00  0.0000E+00  0.2000E+01  0.2000E+01
    -23.967  0.0000E+00  0.0000E+00  0.2000E+01  0.2000E+01
    -23.774  0.0000E+00  0.0000E+00  0.2000E+01  0.2000E+01
    -23.580  0.0000E+00  0.0000E+00  0.2000E+01  0.2000E+01
    -23.386  0.0000E+00  0.0000E+00  0.2000E+01  0.2000E+01
    -23.192  0.0000E+00  0.0000E+00  0.2000E+01  0.2000E+01
    -22.998  0.0000E+00  0.0000E+00  0.2000E+01  0.2000E+01
    -22.805  0.0000E+00  0.0000E+00  0.2000E+01  0.2000E+01
    -22.611  0.0000E+00  0.0000E+00  0.2000E+01  0.2000E+01
    -22.417  0.0000E+00  0.0000E+00  0.2000E+01  0.2000E+01
    -22.223  0.0000E+00  0.0000E+00  0.2000E+01  0.2000E+01
    -22.029  0.0000E+00  0.0000E+00  0.2000E+01  0.2000E+01
    -21.836  0.0000E+00  0.0000E+00  0.2000E+01  0.2000E+01
    -21.642  0.0000E+00  0.0000E+00  0.2000E+01  0.2000E+01
    -21.448  0.0000E+00  0.0000E+00  0.2000E+01  0.2000E+01
    -21.254  0.0000E+00  0.0000E+00  0.2000E+01  0.2000E+01
    -21.060  0.0000E+00  0.0000E+00  0.2000E+01  0.2000E+01
    -20.867  0.0000E+00  0.0000E+00  0.2000E+01  0.2000E+01
    -20.673  0.0000E+00  0.0000E+00  0.2000E+01  0.2000E+01
    -20.479  0.0000E+00  0.0000E+00  0.2000E+01  0.2000E+01
    -20.285  0.0000E+00  0.0000E+00  0.2000E+01  0.2000E+01
    -20.091  0.0000E+00  0.0000E+00  0.2000E+01  0.2000E+01
    -19.898  0.0000E+00  0.0000E+00  0.2000E+01  0.2000E+01
    -19.704  0.0000E+00  0.0000E+00  0.2000E+01  0.2000E+01
    -19.510  0.0000E+00  0.0000E+00  0.2000E+01  0.2000E+01
    -19.316  0.0000E+00  0.0000E+00  0.2000E+01  0.2000E+01
    -19.123  0.0000E+00  0.0000E+00  0.2000E+01  0.2000E+01
    -18.929  0.0000E+00  0.0000E+00  0.2000E+01  0.2000E+01
    -18.735  0.0000E+00  0.0000E+00  0.2000E+01  0.2000E+01
    -18.541  0.0000E+00  0.0000E+00  0.2000E+01  0.2000E+01
    -18.347  0.0000E+00  0.0000E+00  0.2000E+01  0.2000E+01
    -18.154  0.0000E+00  0.0000E+00  0.2000E+01  0.2000E+01
    -17.960  0.0000E+00  0.0000E+00  0.2000E+01  0.2000E+01
    -17.766  0.0000E+00  0.0000E+00  0.2000E+01  0.2000E+01
    -17.572  0.0000E+00  0.0000E+00  0.2000E+01  0.2000E+01
    -17.378  0.0000E+00  0.0000E+00  0.2000E+01  0.2000E+01
    -17.185  0.0000E+00  0.0000E+00  0.2000E+01  0.2000E+01
    -16.991  0.0000E+00  0.0000E+00  0.2000E+01  0.2000E+01
    -16.797  0.0000E+00  0.0000E+00  0.2000E+01  0.2000E+01
    -16.603  0.0000E+00  0.0000E+00  0.2000E+01  0.2000E+01
    -16.409  0.0000E+00  0.0000E+00  0.2000E+01  0.2000E+01
    -16.216  0.0000E+00  0.0000E+00  0.2000E+01  0.2000E+01
    -16.022  0.0000E+00  0.0000E+00  0.2000E+01  0.2000E+01
    -15.828  0.0000E+00  0.0000E+00  0.2000E+01  0.2000E+01
    -15.634  0.0000E+00  0.0000E+00  0.2000E+01  0.2000E+01
    -15.441  0.0000E+00  0.0000E+00  0.2000E+01  0.2000E+01
    -15.247  0.0000E+00  0.0000E+00  0.2000E+01  0.2000E+01
    -15.053  0.0000E+00  0.0000E+00  0.2000E+01  0.2000E+01
    -14.859  0.0000E+00  0.0000E+00  0.2000E+01  0.2000E+01
    -14.665  0.5362E-05  0.5275E-05  0.2000E+01  0.2000E+01
    -14.472  0.1231E-02  0.1211E-02  0.2000E+01  0.2000E+01
    -14.278  0.5933E-01  0.5838E-01  0.2012E+01  0.2012E+01
    -14.084  0.2041E+01  0.2017E+01  0.2407E+01  0.2402E+01
    -13.890  0.1022E+02  0.1019E+02  0.4387E+01  0.4376E+01
    -13.696  0.1583E+02  0.1585E+02  0.7456E+01  0.7448E+01
    -13.503  0.2703E+01  0.2738E+01  0.7987E+01  0.7986E+01
    -13.309  0.0000E+00  0.0000E+00  0.8000E+01  0.8000E+01
    -13.115  0.0000E+00  0.0000E+00  0.8000E+01  0.8000E+01
    -12.921  0.0000E+00  0.0000E+00  0.8000E+01  0.8000E+01
    -12.727  0.0000E+00  0.0000E+00  0.8000E+01  0.8000E+01
    -12.534  0.0000E+00  0.0000E+00  0.8000E+01  0.8000E+01
    -12.340  0.0000E+00  0.0000E+00  0.8000E+01  0.8000E+01
    -12.146  0.0000E+00  0.0000E+00  0.8000E+01  0.8000E+01
    -11.952  0.0000E+00  0.0000E+00  0.8000E+01  0.8000E+01
    -11.758  0.0000E+00  0.0000E+00  0.8000E+01  0.8000E+01
    -11.565  0.0000E+00  0.0000E+00  0.8000E+01  0.8000E+01
    -11.371  0.0000E+00  0.0000E+00  0.8000E+01  0.8000E+01
    -11.177  0.0000E+00  0.0000E+00  0.8000E+01  0.8000E+01
    -10.983  0.0000E+00  0.0000E+00  0.8000E+01  0.8000E+01
    -10.790  0.0000E+00  0.0000E+00  0.8000E+01  0.8000E+01
    -10.596  0.0000E+00  0.0000E+00  0.8000E+01  0.8000E+01
    -10.402  0.0000E+00  0.0000E+00  0.8000E+01  0.8000E+01
    -10.208  0.0000E+00  0.0000E+00  0.8000E+01  0.8000E+01
    -10.014  0.0000E+00  0.0000E+00  0.8000E+01  0.8000E+01
     -9.821  0.0000E+00  0.0000E+00  0.8000E+01  0.8000E+01
     -9.627  0.0000E+00  0.0000E+00  0.8000E+01  0.8000E+01
     -9.433  0.0000E+00  0.0000E+00  0.8000E+01  0.8000E+01
     -9.239  0.0000E+00  0.0000E+00  0.8000E+01  0.8000E+01
     -9.045  0.0000E+00  0.0000E+00  0.8000E+01  0.8000E+01
     -8.852  0.0000E+00  0.0000E+00  0.8000E+01  0.8000E+01
     -8.658  0.0000E+00  0.0000E+00  0.8000E+01  0.8000E+01
     -8.464  0.0000E+00  0.0000E+00  0.8000E+01  0.8000E+01
     -8.270  0.0000E+00  0.0000E+00  0.8000E+01  0.8000E+01
     -8.076  0.0000E+00  0.0000E+00  0.8000E+01  0.8000E+01
     -7.883  0.0000E+00  0.0000E+00  0.8000E+01  0.8000E+01
     -7.689  0.0000E+00  0.0000E+00  0.8000E+01  0.8000E+01
     -7.495  0.0000E+00  0.0000E+00  0.8000E+01  0.8000E+01
     -7.301  0.0000E+00  0.0000E+00  0.8000E+01  0.8000E+01
     -7.108  0.0000E+00  0.0000E+00  0.8000E+01  0.8000E+01
     -6.914  0.0000E+00  0.0000E+00  0.8000E+01  0.8000E+01
     -6.720  0.0000E+00  0.0000E+00  0.8000E+01  0.8000E+01
     -6.526  0.0000E+00  0.0000E+00  0.8000E+01  0.8000E+01
     -6.332  0.0000E+00  0.0000E+00  0.8000E+01  0.8000E+01
     -6.139  0.0000E+00  0.0000E+00  0.8000E+01  0.8000E+01
     -5.945  0.0000E+00  0.0000E+00  0.8000E+01  0.8000E+01
     -5.751  0.0000E+00  0.0000E+00  0.8000E+01  0.8000E+01
     -5.557  0.0000E+00  0.0000E+00  0.8000E+01  0.8000E+01
     -5.363  0.0000E+00  0.0000E+00  0.8000E+01  0.8000E+01
     -5.170  0.0000E+00  0.0000E+00  0.8000E+01  0.8000E+01
     -4.976  0.0000E+00  0.0000E+00  0.8000E+01  0.8000E+01
     -4.782  0.0000E+00  0.0000E+00  0.8000E+01  0.8000E+01
     -4.588  0.0000E+00  0.0000E+00  0.8000E+01  0.8000E+01
     -4.394  0.0000E+00  0.0000E+00  0.8000E+01  0.8000E+01
     -4.201  0.0000E+00  0.0000E+00  0.8000E+01  0.8000E+01
     -4.007  0.0000E+00  0.0000E+00  0.8000E+01  0.8000E+01
     -3.813  0.0000E+00  0.0000E+00  0.8000E+01  0.8000E+01
     -3.619  0.0000E+00  0.0000E+00  0.8000E+01  0.8000E+01
     -3.425  0.0000E+00  0.0000E+00  0.8000E+01  0.8000E+01
     -3.232  0.0000E+00  0.0000E+00  0.8000E+01  0.8000E+01
     -3.038  0.0000E+00  0.0000E+00  0.8000E+01  0.8000E+01
     -2.844  0.0000E+00  0.0000E+00  0.8000E+01  0.8000E+01
     -2.650  0.0000E+00  0.0000E+00  0.8000E+01  0.8000E+01
     -2.457  0.0000E+00  0.0000E+00  0.8000E+01  0.8000E+01
     -2.263  0.0000E+00  0.0000E+00  0.8000E+01  0.8000E+01
     -2.069  0.0000E+00  0.0000E+00  0.8000E+01  0.8000E+01
     -1.875  0.0000E+00  0.0000E+00  0.8000E+01  0.8000E+01
     -1.681  0.0000E+00  0.0000E+00  0.8000E+01  0.8000E+01
     -1.488  0.0000E+00  0.0000E+00  0.8000E+01  0.8000E+01
     -1.294  0.0000E+00  0.0000E+00  0.8000E+01  0.8000E+01
     -1.100  0.0000E+00  0.0000E+00  0.8000E+01  0.8000E+01
     -0.906  0.0000E+00  0.0000E+00  0.8000E+01  0.8000E+01
     -0.712  0.0000E+00  0.0000E+00  0.8000E+01  0.8000E+01
     -0.519  0.0000E+00  0.0000E+00  0.8000E+01  0.8000E+01
     -0.325  0.0000E+00  0.0000E+00  0.8000E+01  0.8000E+01
     -0.131  0.0000E+00  0.0000E+00  0.8000E+01  0.8000E+01
      0.063  0.0000E+00  0.0000E+00  0.8000E+01  0.8000E+01
      0.257  0.2608E-05  0.2580E-05  0.8000E+01  0.8000E+01
      0.450  0.1285E-03  0.1271E-03  0.8000E+01  0.8000E+01
      0.644  0.5300E-02  0.5251E-02  0.8001E+01  0.8001E+01
      0.838  0.6075E-01  0.6051E-01  0.8013E+01  0.8013E+01
      1.032  0.1308E+00  0.1306E+00  0.8038E+01  0.8038E+01
      1.225  0.1938E+00  0.1938E+00  0.8076E+01  0.8076E+01
      1.419  0.2199E+00  0.2198E+00  0.8119E+01  0.8118E+01
      1.613  0.2973E+00  0.2970E+00  0.8176E+01  0.8176E+01
      1.807  0.2938E+00  0.2941E+00  0.8233E+01  0.8233E+01
      2.001  0.3429E+00  0.3427E+00  0.8300E+01  0.8300E+01
      2.194  0.4224E+00  0.4220E+00  0.8382E+01  0.8382E+01
      2.388  0.4271E+00  0.4273E+00  0.8465E+01  0.8465E+01
      2.582  0.4183E+00  0.4178E+00  0.8547E+01  0.8546E+01
      2.776  0.6120E+00  0.6117E+00  0.8665E+01  0.8665E+01
      2.970  0.5932E+00  0.5930E+00  0.8781E+01  0.8780E+01
      3.163  0.5977E+00  0.5977E+00  0.8897E+01  0.8897E+01
      3.357  0.6132E+00  0.6133E+00  0.9016E+01  0.9016E+01
      3.551  0.7148E+00  0.7140E+00  0.9155E+01  0.9155E+01
      3.745  0.7378E+00  0.7382E+00  0.9298E+01  0.9298E+01
      3.939  0.7176E+00  0.7174E+00  0.9438E+01  0.9438E+01
      4.132  0.7399E+00  0.7398E+00  0.9582E+01  0.9582E+01
      4.326  0.7726E+00  0.7722E+00  0.9732E+01  0.9732E+01
      4.520  0.9402E+00  0.9397E+00  0.9915E+01  0.9914E+01
      4.714  0.1103E+01  0.1103E+01  0.1013E+02  0.1013E+02
      4.908  0.1141E+01  0.1141E+01  0.1035E+02  0.1035E+02
      5.101  0.1083E+01  0.1082E+01  0.1056E+02  0.1056E+02
      5.295  0.1174E+01  0.1175E+01  0.1079E+02  0.1079E+02
      5.489  0.9692E+00  0.9693E+00  0.1098E+02  0.1098E+02
      5.683  0.9997E+00  0.9994E+00  0.1117E+02  0.1117E+02
      5.876  0.7666E+00  0.7677E+00  0.1132E+02  0.1132E+02
      6.070  0.6780E+00  0.6777E+00  0.1145E+02  0.1145E+02
      6.264  0.8564E+00  0.8562E+00  0.1162E+02  0.1162E+02
      6.458  0.7800E+00  0.7803E+00  0.1177E+02  0.1177E+02
      6.652  0.7361E+00  0.7360E+00  0.1192E+02  0.1192E+02
      6.845  0.8911E+00  0.8908E+00  0.1209E+02  0.1209E+02
      7.039  0.9746E+00  0.9739E+00  0.1228E+02  0.1228E+02
      7.233  0.1416E+01  0.1415E+01  0.1255E+02  0.1255E+02
      7.427  0.1805E+01  0.1805E+01  0.1291E+02  0.1290E+02
      7.621  0.1372E+01  0.1374E+01  0.1317E+02  0.1317E+02
      7.814  0.9759E+00  0.9753E+00  0.1336E+02  0.1336E+02
      8.008  0.1183E+01  0.1183E+01  0.1359E+02  0.1359E+02
      8.202  0.1224E+01  0.1225E+01  0.1383E+02  0.1383E+02
      8.396  0.1028E+01  0.1027E+01  0.1403E+02  0.1403E+02
      8.590  0.1607E+01  0.1606E+01  0.1434E+02  0.1434E+02
      8.783  0.1407E+01  0.1408E+01  0.1462E+02  0.1462E+02
      8.977  0.1215E+01  0.1215E+01  0.1485E+02  0.1485E+02
      9.171  0.1583E+01  0.1581E+01  0.1516E+02  0.1516E+02
      9.365  0.1714E+01  0.1715E+01  0.1549E+02  0.1549E+02
      9.558  0.1786E+01  0.1785E+01  0.1584E+02  0.1584E+02
      9.752  0.1840E+01  0.1840E+01  0.1620E+02  0.1620E+02
      9.946  0.2642E+01  0.2639E+01  0.1671E+02  0.1671E+02
     10.140  0.3785E+01  0.3780E+01  0.1745E+02  0.1745E+02
     10.334  0.4096E+01  0.4099E+01  0.1825E+02  0.1824E+02
     10.527  0.2744E+01  0.2746E+01  0.1878E+02  0.1878E+02
     10.721  0.2462E+01  0.2462E+01  0.1926E+02  0.1926E+02
     10.915  0.2998E+01  0.2999E+01  0.1984E+02  0.1984E+02
     11.109  0.2259E+01  0.2261E+01  0.2028E+02  0.2028E+02
     11.303  0.1943E+01  0.1944E+01  0.2066E+02  0.2066E+02
     11.496  0.1457E+01  0.1458E+01  0.2095E+02  0.2094E+02
     11.690  0.1053E+01  0.1054E+01  0.2115E+02  0.2115E+02
     11.884  0.9297E+00  0.9295E+00  0.2133E+02  0.2133E+02
     12.078  0.8724E+00  0.8729E+00  0.2150E+02  0.2150E+02
     12.272  0.7135E+00  0.7132E+00  0.2164E+02  0.2164E+02
     12.465  0.8005E+00  0.8010E+00  0.2180E+02  0.2180E+02
     12.659  0.7394E+00  0.7390E+00  0.2194E+02  0.2194E+02
     12.853  0.5443E+00  0.5461E+00  0.2205E+02  0.2205E+02
     13.047  0.2496E+00  0.2495E+00  0.2210E+02  0.2210E+02
     13.241  0.6761E+00  0.6738E+00  0.2223E+02  0.2223E+02
     13.434  0.1045E+01  0.1045E+01  0.2243E+02  0.2243E+02
     13.628  0.1287E+01  0.1286E+01  0.2268E+02  0.2268E+02
     13.822  0.1349E+01  0.1349E+01  0.2294E+02  0.2294E+02
     14.016  0.1324E+01  0.1324E+01  0.2320E+02  0.2320E+02
     14.209  0.1600E+01  0.1598E+01  0.2351E+02  0.2351E+02
     14.403  0.2209E+01  0.2206E+01  0.2394E+02  0.2394E+02
     14.597  0.2502E+01  0.2503E+01  0.2443E+02  0.2442E+02
     14.791  0.2158E+01  0.2159E+01  0.2485E+02  0.2485E+02
     14.985  0.1979E+01  0.1978E+01  0.2523E+02  0.2523E+02
     15.178  0.1803E+01  0.1801E+01  0.2558E+02  0.2558E+02
     15.372  0.1752E+01  0.1767E+01  0.2592E+02  0.2593E+02
     15.566  0.1807E+01  0.1804E+01  0.2628E+02  0.2628E+02
     15.760  0.2036E+01  0.2040E+01  0.2667E+02  0.2667E+02
     15.954  0.2318E+01  0.2316E+01  0.2712E+02  0.2712E+02
     16.147  0.1858E+01  0.1844E+01  0.2748E+02  0.2748E+02
     16.341  0.1318E+01  0.1376E+01  0.2774E+02  0.2775E+02
     16.535  0.7742E+00  0.7128E+00  0.2789E+02  0.2789E+02
     16.729  0.2714E+00  0.3333E+00  0.2795E+02  0.2796E+02
     16.923  0.1371E+00  0.1671E+00  0.2797E+02  0.2799E+02
     17.116  0.1074E+00  0.3580E-01  0.2799E+02  0.2800E+02
     17.310  0.1148E-01  0.5545E-02  0.2800E+02  0.2800E+02
     17.504  0.1266E-01  0.1239E-01  0.2800E+02  0.2800E+02
     17.698  0.1335E-02  0.1154E-02  0.2800E+02  0.2800E+02
     17.891  0.0000E+00  0.0000E+00  0.2800E+02  0.2800E+02
     18.085  0.0000E+00  0.0000E+00  0.2800E+02  0.2800E+02
     18.279  0.0000E+00  0.0000E+00  0.2800E+02  0.2800E+02
     18.473  0.0000E+00  0.0000E+00  0.2800E+02  0.2800E+02
     18.667  0.0000E+00  0.0000E+00  0.2800E+02  0.2800E+02
     18.860  0.0000E+00  0.0000E+00  0.2800E+02  0.2800E+02
     19.054  0.0000E+00  0.0000E+00  0.2800E+02  0.2800E+02
     19.248  0.0000E+00  0.0000E+00  0.2800E+02  0.2800E+02
     19.442  0.0000E+00  0.0000E+00  0.2800E+02  0.2800E+02
     19.636  0.0000E+00  0.0000E+00  0.2800E+02  0.2800E+02
     19.829  0.0000E+00  0.0000E+00  0.2800E+02  0.2800E+02
     20.023  0.0000E+00  0.0000E+00  0.2800E+02  0.2800E+02
     20.02319194    -38.11404157  301     11.54190791      1.00000000
    -38.114  0.0000E+00  0.0000E+00  0.0000E+00  0.0000E+00  0.0000E+00  0.0000E+00  0.0000E+00  0.0000E+00  0.0000E+00  0.0000E+00  0.0000E+00  0.0000E+00  0.0000E+00  0.0000E+00  0.0000E+00  0.0000E+00  0.0000E+00  0.0000E+00
    -37.920  0.0000E+00  0.0000E+00  0.0000E+00  0.0000E+00  0.0000E+00  0.0000E+00  0.0000E+00  0.0000E+00  0.0000E+00  0.0000E+00  0.0000E+00  0.0000E+00  0.0000E+00  0.0000E+00  0.0000E+00  0.0000E+00  0.0000E+00  0.0000E+00
    -37.726  0.0000E+00  0.0000E+00  0.0000E+00  0.0000E+00  0.0000E+00  0.0000E+00  0.0000E+00  0.0000E+00  0.0000E+00  0.0000E+00  0.0000E+00  0.0000E+00  0.0000E+00  0.0000E+00  0.0000E+00  0.0000E+00  0.0000E+00  0.0000E+00
    -37.533  0.0000E+00  0.0000E+00  0.0000E+00  0.0000E+00  0.0000E+00  0.0000E+00  0.0000E+00  0.0000E+00  0.0000E+00  0.0000E+00  0.0000E+00  0.0000E+00  0.0000E+00  0.0000E+00  0.0000E+00  0.0000E+00  0.0000E+00  0.0000E+00
    -37.339  0.0000E+00  0.0000E+00  0.0000E+00  0.0000E+00  0.0000E+00  0.0000E+00  0.0000E+00  0.0000E+00  0.0000E+00  0.0000E+00  0.0000E+00  0.0000E+00  0.0000E+00  0.0000E+00  0.0000E+00  0.0000E+00  0.0000E+00  0.0000E+00
    -37.145  0.0000E+00  0.0000E+00  0.0000E+00  0.0000E+00  0.0000E+00  0.0000E+00  0.0000E+00  0.0000E+00  0.0000E+00  0.0000E+00  0.0000E+00  0.0000E+00  0.0000E+00  0.0000E+00  0.0000E+00  0.0000E+00  0.0000E+00  0.0000E+00
    -36.951  0.0000E+00  0.0000E+00  0.0000E+00  0.0000E+00  0.0000E+00  0.0000E+00  0.0000E+00  0.0000E+00  0.0000E+00  0.0000E+00  0.0000E+00  0.0000E+00  0.0000E+00  0.0000E+00  0.0000E+00  0.0000E+00  0.0000E+00  0.0000E+00
    -36.758  0.0000E+00  0.0000E+00  0.0000E+00  0.0000E+00  0.0000E+00  0.0000E+00  0.0000E+00  0.0000E+00  0.0000E+00  0.0000E+00  0.0000E+00  0.0000E+00  0.0000E+00  0.0000E+00  0.0000E+00  0.0000E+00  0.0000E+00  0.0000E+00
    -36.564  0.0000E+00  0.0000E+00  0.0000E+00  0.0000E+00  0.0000E+00  0.0000E+00  0.0000E+00  0.0000E+00  0.0000E+00  0.0000E+00  0.0000E+00  0.0000E+00  0.0000E+00  0.0000E+00  0.0000E+00  0.0000E+00  0.0000E+00  0.0000E+00
    -36.370  0.0000E+00  0.0000E+00  0.0000E+00  0.0000E+00  0.0000E+00  0.0000E+00  0.0000E+00  0.0000E+00  0.0000E+00  0.0000E+00  0.0000E+00  0.0000E+00  0.0000E+00  0.0000E+00  0.0000E+00  0.0000E+00  0.0000E+00  0.0000E+00
    -36.176  0.0000E+00  0.0000E+00  0.0000E+00  0.0000E+00  0.0000E+00  0.0000E+00  0.0000E+00  0.0000E+00  0.0000E+00  0.0000E+00  0.0000E+00  0.0000E+00  0.0000E+00  0.0000E+00  0.0000E+00  0.0000E+00  0.0000E+00  0.0000E+00
    -35.982  0.1300E-03  0.1286E-03  0.4610E-10  0.4580E-10  0.8496E-13  0.1013E-12  0.4610E-10  0.4580E-10  0.7864E-13  0.7754E-13  0.2315E-13  0.2845E-13  0.3678E-09  0.3602E-09  0.2315E-13  0.2845E-13  0.5068E-10  0.5032E-10
    -35.789  0.6132E-02  0.6065E-02  0.2174E-08  0.2160E-08  0.4006E-11  0.4776E-11  0.2174E-08  0.2160E-08  0.3709E-11  0.3657E-11  0.1092E-11  0.1342E-11  0.1735E-07  0.1699E-07  0.1092E-11  0.1342E-11  0.2390E-08  0.2373E-08
    -35.595  0.2788E+00  0.2759E+00  0.9886E-07  0.9827E-07  0.1803E-09  0.2151E-09  0.9886E-07  0.9827E-07  0.1688E-09  0.1666E-09  0.4966E-10  0.6101E-10  0.7855E-06  0.7697E-06  0.4966E-10  0.6101E-10  0.1089E-06  0.1082E-06
    -35.401  0.3481E+01  0.3473E+01  0.1231E-05  0.1233E-05  0.1979E-08  0.2371E-08  0.1231E-05  0.1233E-05  0.2125E-08  0.2125E-08  0.6184E-09  0.7593E-09  0.9329E-05  0.9213E-05  0.6184E-09  0.7593E-09  0.1382E-05  0.1384E-05
    -35.207  0.1314E+01  0.1324E+01  0.4602E-06  0.4653E-06  0.6281E-09  0.7569E-09  0.4602E-06  0.4653E-06  0.7993E-09  0.8139E-09  0.2296E-09  0.2816E-09  0.3301E-05  0.3292E-05  0.2296E-09  0.2816E-09  0.5214E-06  0.5277E-06
    -35.013  0.0000E+00  0.0000E+00  0.0000E+00  0.0000E+00  0.0000E+00  0.0000E+00  0.0000E+00  0.0000E+00  0.0000E+00  0.0000E+00  0.0000E+00  0.0000E+00  0.0000E+00  0.0000E+00  0.0000E+00  0.0000E+00  0.0000E+00  0.0000E+00
    -34.820  0.0000E+00  0.0000E+00  0.0000E+00  0.0000E+00  0.0000E+00  0.0000E+00  0.0000E+00  0.0000E+00  0.0000E+00  0.0000E+00  0.0000E+00  0.0000E+00  0.0000E+00  0.0000E+00  0.0000E+00  0.0000E+00  0.0000E+00  0.0000E+00
    -34.626  0.0000E+00  0.0000E+00  0.0000E+00  0.0000E+00  0.0000E+00  0.0000E+00  0.0000E+00  0.0000E+00  0.0000E+00  0.0000E+00  0.0000E+00  0.0000E+00  0.0000E+00  0.0000E+00  0.0000E+00  0.0000E+00  0.0000E+00  0.0000E+00
    -34.432  0.0000E+00  0.0000E+00  0.0000E+00  0.0000E+00  0.0000E+00  0.0000E+00  0.0000E+00  0.0000E+00  0.0000E+00  0.0000E+00  0.0000E+00  0.0000E+00  0.0000E+00  0.0000E+00  0.0000E+00  0.0000E+00  0.0000E+00  0.0000E+00
    -34.238  0.0000E+00  0.0000E+00  0.0000E+00  0.0000E+00  0.0000E+00  0.0000E+00  0.0000E+00  0.0000E+00  0.0000E+00  0.0000E+00  0.0000E+00  0.0000E+00  0.0000E+00  0.0000E+00  0.0000E+00  0.0000E+00  0.0000E+00  0.0000E+00
    -34.044  0.0000E+00  0.0000E+00  0.0000E+00  0.0000E+00  0.0000E+00  0.0000E+00  0.0000E+00  0.0000E+00  0.0000E+00  0.0000E+00  0.0000E+00  0.0000E+00  0.0000E+00  0.0000E+00  0.0000E+00  0.0000E+00  0.0000E+00  0.0000E+00
    -33.851  0.0000E+00  0.0000E+00  0.0000E+00  0.0000E+00  0.0000E+00  0.0000E+00  0.0000E+00  0.0000E+00  0.0000E+00  0.0000E+00  0.0000E+00  0.0000E+00  0.0000E+00  0.0000E+00  0.0000E+00  0.0000E+00  0.0000E+00  0.0000E+00
    -33.657  0.0000E+00  0.0000E+00  0.0000E+00  0.0000E+00  0.0000E+00  0.0000E+00  0.0000E+00  0.0000E+00  0.0000E+00  0.0000E+00  0.0000E+00  0.0000E+00  0.0000E+00  0.0000E+00  0.0000E+00  0.0000E+00  0.0000E+00  0.0000E+00
    -33.463  0.0000E+00  0.0000E+00  0.0000E+00  0.0000E+00  0.0000E+00  0.0000E+00  0.0000E+00  0.0000E+00  0.0000E+00  0.0000E+00  0.0000E+00  0.0000E+00  0.0000E+00  0.0000E+00  0.0000E+00  0.0000E+00  0.0000E+00  0.0000E+00
    -33.269  0.0000E+00  0.0000E+00  0.0000E+00  0.0000E+00  0.0000E+00  0.0000E+00  0.0000E+00  0.0000E+00  0.0000E+00  0.0000E+00  0.0000E+00  0.0000E+00  0.0000E+00  0.0000E+00  0.0000E+00  0.0000E+00  0.0000E+00  0.0000E+00
    -33.075  0.0000E+00  0.0000E+00  0.0000E+00  0.0000E+00  0.0000E+00  0.0000E+00  0.0000E+00  0.0000E+00  0.0000E+00  0.0000E+00  0.0000E+00  0.0000E+00  0.0000E+00  0.0000E+00  0.0000E+00  0.0000E+00  0.0000E+00  0.0000E+00
    -32.882  0.0000E+00  0.0000E+00  0.0000E+00  0.0000E+00  0.0000E+00  0.0000E+00  0.0000E+00  0.0000E+00  0.0000E+00  0.0000E+00  0.0000E+00  0.0000E+00  0.0000E+00  0.0000E+00  0.0000E+00  0.0000E+00  0.0000E+00  0.0000E+00
    -32.688  0.0000E+00  0.0000E+00  0.0000E+00  0.0000E+00  0.0000E+00  0.0000E+00  0.0000E+00  0.0000E+00  0.0000E+00  0.0000E+00  0.0000E+00  0.0000E+00  0.0000E+00  0.0000E+00  0.0000E+00  0.0000E+00  0.0000E+00  0.0000E+00
    -32.494  0.0000E+00  0.0000E+00  0.0000E+00  0.0000E+00  0.0000E+00  0.0000E+00  0.0000E+00  0.0000E+00  0.0000E+00  0.0000E+00  0.0000E+00  0.0000E+00  0.0000E+00  0.0000E+00  0.0000E+00  0.0000E+00  0.0000E+00  0.0000E+00
    -32.300  0.0000E+00  0.0000E+00  0.0000E+00  0.0000E+00  0.0000E+00  0.0000E+00  0.0000E+00  0.0000E+00  0.0000E+00  0.0000E+00  0.0000E+00  0.0000E+00  0.0000E+00  0.0000E+00  0.0000E+00  0.0000E+00  0.0000E+00  0.0000E+00
    -32.107  0.0000E+00  0.0000E+00  0.0000E+00  0.0000E+00  0.0000E+00  0.0000E+00  0.0000E+00  0.0000E+00  0.0000E+00  0.0000E+00  0.0000E+00  0.0000E+00  0.0000E+00  0.0000E+00  0.0000E+00  0.0000E+00  0.0000E+00  0.0000E+00
    -31.913  0.0000E+00  0.0000E+00  0.0000E+00  0.0000E+00  0.0000E+00  0.0000E+00  0.0000E+00  0.0000E+00  0.0000E+00  0.0000E+00  0.0000E+00  0.0000E+00  0.0000E+00  0.0000E+00  0.0000E+00  0.0000E+00  0.0000E+00  0.0000E+00
    -31.719  0.0000E+00  0.0000E+00  0.0000E+00  0.0000E+00  0.0000E+00  0.0000E+00  0.0000E+00  0.0000E+00  0.0000E+00  0.0000E+00  0.0000E+00  0.0000E+00  0.0000E+00  0.0000E+00  0.0000E+00  0.0000E+00  0.0000E+00  0.0000E+00
    -31.525  0.0000E+00  0.0000E+00  0.0000E+00  0.0000E+00  0.0000E+00  0.0000E+00  0.0000E+00  0.0000E+00  0.0000E+00  0.0000E+00  0.0000E+00  0.0000E+00  0.0000E+00  0.0000E+00  0.0000E+00  0.0000E+00  0.0000E+00  0.0000E+00
    -31.331  0.0000E+00  0.0000E+00  0.0000E+00  0.0000E+00  0.0000E+00  0.0000E+00  0.0000E+00  0.0000E+00  0.0000E+00  0.0000E+00  0.0000E+00  0.0000E+00  0.0000E+00  0.0000E+00  0.0000E+00  0.0000E+00  0.0000E+00  0.0000E+00
    -31.138  0.0000E+00  0.0000E+00  0.0000E+00  0.0000E+00  0.0000E+00  0.0000E+00  0.0000E+00  0.0000E+00  0.0000E+00  0.0000E+00  0.0000E+00  0.0000E+00  0.0000E+00  0.0000E+00  0.0000E+00  0.0000E+00  0.0000E+00  0.0000E+00
    -30.944  0.0000E+00  0.0000E+00  0.0000E+00  0.0000E+00  0.0000E+00  0.0000E+00  0.0000E+00  0.0000E+00  0.0000E+00  0.0000E+00  0.0000E+00  0.0000E+00  0.0000E+00  0.0000E+00  0.0000E+00  0.0000E+00  0.0000E+00  0.0000E+00
    -30.750  0.0000E+00  0.0000E+00  0.0000E+00  0.0000E+00  0.0000E+00  0.0000E+00  0.0000E+00  0.0000E+00  0.0000E+00  0.0000E+00  0.0000E+00  0.0000E+00  0.0000E+00  0.0000E+00  0.0000E+00  0.0000E+00  0.0000E+00  0.0000E+00
    -30.556  0.0000E+00  0.0000E+00  0.0000E+00  0.0000E+00  0.0000E+00  0.0000E+00  0.0000E+00  0.0000E+00  0.0000E+00  0.0000E+00  0.0000E+00  0.0000E+00  0.0000E+00  0.0000E+00  0.0000E+00  0.0000E+00  0.0000E+00  0.0000E+00
    -30.362  0.0000E+00  0.0000E+00  0.0000E+00  0.0000E+00  0.0000E+00  0.0000E+00  0.0000E+00  0.0000E+00  0.0000E+00  0.0000E+00  0.0000E+00  0.0000E+00  0.0000E+00  0.0000E+00  0.0000E+00  0.0000E+00  0.0000E+00  0.0000E+00
    -30.169  0.0000E+00  0.0000E+00  0.0000E+00  0.0000E+00  0.0000E+00  0.0000E+00  0.0000E+00  0.0000E+00  0.0000E+00  0.0000E+00  0.0000E+00  0.0000E+00  0.0000E+00  0.0000E+00  0.0000E+00  0.0000E+00  0.0000E+00  0.0000E+00
    -29.975  0.0000E+00  0.0000E+00  0.0000E+00  0.0000E+00  0.0000E+00  0.0000E+00  0.0000E+00  0.0000E+00  0.0000E+00  0.0000E+00  0.0000E+00  0.0000E+00  0.0000E+00  0.0000E+00  0.0000E+00  0.0000E+00  0.0000E+00  0.0000E+00
    -29.781  0.0000E+00  0.0000E+00  0.0000E+00  0.0000E+00  0.0000E+00  0.0000E+00  0.0000E+00  0.0000E+00  0.0000E+00  0.0000E+00  0.0000E+00  0.0000E+00  0.0000E+00  0.0000E+00  0.0000E+00  0.0000E+00  0.0000E+00  0.0000E+00
    -29.587  0.0000E+00  0.0000E+00  0.0000E+00  0.0000E+00  0.0000E+00  0.0000E+00  0.0000E+00  0.0000E+00  0.0000E+00  0.0000E+00  0.0000E+00  0.0000E+00  0.0000E+00  0.0000E+00  0.0000E+00  0.0000E+00  0.0000E+00  0.0000E+00
    -29.393  0.0000E+00  0.0000E+00  0.0000E+00  0.0000E+00  0.0000E+00  0.0000E+00  0.0000E+00  0.0000E+00  0.0000E+00  0.0000E+00  0.0000E+00  0.0000E+00  0.0000E+00  0.0000E+00  0.0000E+00  0.0000E+00  0.0000E+00  0.0000E+00
    -29.200  0.0000E+00  0.0000E+00  0.0000E+00  0.0000E+00  0.0000E+00  0.0000E+00  0.0000E+00  0.0000E+00  0.0000E+00  0.0000E+00  0.0000E+00  0.0000E+00  0.0000E+00  0.0000E+00  0.0000E+00  0.0000E+00  0.0000E+00  0.0000E+00
    -29.006  0.0000E+00  0.0000E+00  0.0000E+00  0.0000E+00  0.0000E+00  0.0000E+00  0.0000E+00  0.0000E+00  0.0000E+00  0.0000E+00  0.0000E+00  0.0000E+00  0.0000E+00  0.0000E+00  0.0000E+00  0.0000E+00  0.0000E+00  0.0000E+00
    -28.812  0.0000E+00  0.0000E+00  0.0000E+00  0.0000E+00  0.0000E+00  0.0000E+00  0.0000E+00  0.0000E+00  0.0000E+00  0.0000E+00  0.0000E+00  0.0000E+00  0.0000E+00  0.0000E+00  0.0000E+00  0.0000E+00  0.0000E+00  0.0000E+00
    -28.618  0.0000E+00  0.0000E+00  0.0000E+00  0.0000E+00  0.0000E+00  0.0000E+00  0.0000E+00  0.0000E+00  0.0000E+00  0.0000E+00  0.0000E+00  0.0000E+00  0.0000E+00  0.0000E+00  0.0000E+00  0.0000E+00  0.0000E+00  0.0000E+00
    -28.425  0.0000E+00  0.0000E+00  0.0000E+00  0.0000E+00  0.0000E+00  0.0000E+00  0.0000E+00  0.0000E+00  0.0000E+00  0.0000E+00  0.0000E+00  0.0000E+00  0.0000E+00  0.0000E+00  0.0000E+00  0.0000E+00  0.0000E+00  0.0000E+00