   8   8   1   0
  0.2166622E+02  0.4237245E-09  0.4237245E-09  0.9653968E-09  0.5000000E-15
  1.000000000000000E-004
  CAR 
 unknown system                          
     12.07540185    -45.36106510  301      6.18981512      1.00000000
    -45.361  0.0000E+00  0.0000E+00  0.0000E+00  0.0000E+00
    -45.170  0.0000E+00  0.0000E+00  0.0000E+00  0.0000E+00
    -44.978  0.0000E+00  0.0000E+00  0.0000E+00  0.0000E+00
    -44.787  0.0000E+00  0.0000E+00  0.0000E+00  0.0000E+00
    -44.595  0.0000E+00  0.0000E+00  0.0000E+00  0.0000E+00
    -44.404  0.0000E+00  0.0000E+00  0.0000E+00  0.0000E+00
    -44.212  0.0000E+00  0.0000E+00  0.0000E+00  0.0000E+00
    -44.021  0.0000E+00  0.0000E+00  0.0000E+00  0.0000E+00
    -43.829  0.0000E+00  0.0000E+00  0.0000E+00  0.0000E+00
    -43.638  0.0000E+00  0.0000E+00  0.0000E+00  0.0000E+00
    -43.447  0.0000E+00  0.0000E+00  0.0000E+00  0.0000E+00
    -43.255  0.4152E-03  0.4217E-03  0.7949E-04  0.8073E-04
    -43.064  0.1866E-01  0.1895E-01  0.3652E-02  0.3709E-02
    -42.872  0.7920E+00  0.8034E+00  0.1553E+00  0.1575E+00
    -42.681  0.7492E+01  0.7506E+01  0.1590E+01  0.1595E+01
    -42.489  0.2085E+01  0.2060E+01  0.1989E+01  0.1989E+01
    -42.298  0.0000E+00  0.0000E+00  0.2000E+01  0.2000E+01
    -42.106  0.0000E+00  0.0000E+00  0.2000E+01  0.2000E+01
    -41.915  0.0000E+00  0.0000E+00  0.2000E+01  0.2000E+01
    -41.723  0.0000E+00  0.0000E+00  0.2000E+01  0.2000E+01
    -41.532  0.0000E+00  0.0000E+00  0.2000E+01  0.2000E+01
    -41.341  0.0000E+00  0.0000E+00  0.2000E+01  0.2000E+01
    -41.149  0.0000E+00  0.0000E+00  0.2000E+01  0.2000E+01
    -40.958  0.0000E+00  0.0000E+00  0.2000E+01  0.2000E+01
    -40.766  0.0000E+00  0.0000E+00  0.2000E+01  0.2000E+01
    -40.575  0.0000E+00  0.0000E+00  0.2000E+01  0.2000E+01
    -40.383  0.0000E+00  0.0000E+00  0.2000E+01  0.2000E+01
    -40.192  0.0000E+00  0.0000E+00  0.2000E+01  0.2000E+01
    -40.000  0.0000E+00  0.0000E+00  0.2000E+01  0.2000E+01
    -39.809  0.0000E+00  0.0000E+00  0.2000E+01  0.2000E+01
    -39.617  0.0000E+00  0.0000E+00  0.2000E+01  0.2000E+01
    -39.426  0.0000E+00  0.0000E+00  0.2000E+01  0.2000E+01
    -39.235  0.0000E+00  0.0000E+00  0.2000E+01  0.2000E+01
    -39.043  0.0000E+00  0.0000E+00  0.2000E+01  0.2000E+01
    -38.852  0.0000E+00  0.0000E+00  0.2000E+01  0.2000E+01
    -38.660  0.0000E+00  0.0000E+00  0.2000E+01  0.2000E+01
    -38.469  0.0000E+00  0.0000E+00  0.2000E+01  0.2000E+01
    -38.277  0.0000E+00  0.0000E+00  0.2000E+01  0.2000E+01
    -38.086  0.0000E+00  0.0000E+00  0.2000E+01  0.2000E+01
    -37.894  0.0000E+00  0.0000E+00  0.2000E+01  0.2000E+01
    -37.703  0.0000E+00  0.0000E+00  0.2000E+01  0.2000E+01
    -37.511  0.0000E+00  0.0000E+00  0.2000E+01  0.2000E+01
    -37.320  0.0000E+00  0.0000E+00  0.2000E+01  0.2000E+01
    -37.129  0.0000E+00  0.0000E+00  0.2000E+01  0.2000E+01
    -36.937  0.0000E+00  0.0000E+00  0.2000E+01  0.2000E+01
    -36.746  0.0000E+00  0.0000E+00  0.2000E+01  0.2000E+01
    -36.554  0.0000E+00  0.0000E+00  0.2000E+01  0.2000E+01
    -36.363  0.0000E+00  0.0000E+00  0.2000E+01  0.2000E+01
    -36.171  0.0000E+00  0.0000E+00  0.2000E+01  0.2000E+01
    -35.980  0.0000E+00  0.0000E+00  0.2000E+01  0.2000E+01
    -35.788  0.0000E+00  0.0000E+00  0.2000E+01  0.2000E+01
    -35.597  0.0000E+00  0.0000E+00  0.2000E+01  0.2000E+01
    -35.405  0.0000E+00  0.0000E+00  0.2000E+01  0.2000E+01
    -35.214  0.0000E+00  0.0000E+00  0.2000E+01  0.2000E+01
    -35.023  0.0000E+00  0.0000E+00  0.2000E+01  0.2000E+01
    -34.831  0.0000E+00  0.0000E+00  0.2000E+01  0.2000E+01
    -34.640  0.0000E+00  0.0000E+00  0.2000E+01  0.2000E+01
    -34.448  0.0000E+00  0.0000E+00  0.2000E+01  0.2000E+01
    -34.257  0.0000E+00  0.0000E+00  0.2000E+01  0.2000E+01
    -34.065  0.0000E+00  0.0000E+00  0.2000E+01  0.2000E+01
    -33.874  0.0000E+00  0.0000E+00  0.2000E+01  0.2000E+01
    -33.682  0.0000E+00  0.0000E+00  0.2000E+01  0.2000E+01
    -33.491  0.0000E+00  0.0000E+00  0.2000E+01  0.2000E+01
    -33.299  0.0000E+00  0.0000E+00  0.2000E+01  0.2000E+01
    -33.108  0.0000E+00  0.0000E+00  0.2000E+01  0.2000E+01
    -32.916  0.0000E+00  0.0000E+00  0.2000E+01  0.2000E+01
    -32.725  0.0000E+00  0.0000E+00  0.2000E+01  0.2000E+01
    -32.534  0.0000E+00  0.0000E+00  0.2000E+01  0.2000E+01
    -32.342  0.0000E+00  0.0000E+00  0.2000E+01  0.2000E+01
    -32.151  0.0000E+00  0.0000E+00  0.2000E+01  0.2000E+01
    -31.959  0.0000E+00  0.0000E+00  0.2000E+01  0.2000E+01
    -31.768  0.0000E+00  0.0000E+00  0.2000E+01  0.2000E+01
    -31.576  0.0000E+00  0.0000E+00  0.2000E+01  0.2000E+01
    -31.385  0.0000E+00  0.0000E+00  0.2000E+01  0.2000E+01
    -31.193  0.0000E+00  0.0000E+00  0.2000E+01  0.2000E+01
    -31.002  0.0000E+00  0.0000E+00  0.2000E+01  0.2000E+01
    -30.810  0.0000E+00  0.0000E+00  0.2000E+01  0.2000E+01
    -30.619  0.0000E+00  0.0000E+00  0.2000E+01  0.2000E+01
    -30.428  0.0000E+00  0.0000E+00  0.2000E+01  0.2000E+01
    -30.236  0.0000E+00  0.0000E+00  0.2000E+01  0.2000E+01
    -30.045  0.0000E+00  0.0000E+00  0.2000E+01  0.2000E+01
    -29.853  0.0000E+00  0.0000E+00  0.2000E+01  0.2000E+01
    -29.662  0.0000E+00  0.0000E+00  0.2000E+01  0.2000E+01
    -29.470  0.0000E+00  0.0000E+00  0.2000E+01  0.2000E+01
    -29.279  0.0000E+00  0.0000E+00  0.2000E+01  0.2000E+01
    -29.087  0.0000E+00  0.0000E+00  0.2000E+01  0.2000E+01
    -28.896  0.0000E+00  0.0000E+00  0.2000E+01  0.2000E+01
    -28.704  0.0000E+00  0.0000E+00  0.2000E+01  0.2000E+01
    -28.513  0.0000E+00  0.0000E+00  0.2000E+01  0.2000E+01
    -28.322  0.0000E+00  0.0000E+00  0.2000E+01  0.2000E+01
    -28.130  0.0000E+00  0.0000E+00  0.2000E+01  0.2000E+01
    -27.939  0.0000E+00  0.0000E+00  0.2000E+01  0.2000E+01
    -27.747  0.0000E+00  0.0000E+00  0.2000E+01  0.2000E+01
    -27.556  0.0000E+00  0.0000E+00  0.2000E+01  0.2000E+01
    -27.364  0.0000E+00  0.0000E+00  0.2000E+01  0.2000E+01
    -27.173  0.0000E+00  0.0000E+00  0.2000E+01  0.2000E+01
    -26.981  0.0000E+00  0.0000E+00  0.2000E+01  0.2000E+01
    -26.790  0.0000E+00  0.0000E+00  0.2000E+01  0.2000E+01
    -26.598  0.0000E+00  0.0000E+00  0.2000E+01  0.2000E+01
    -26.407  0.0000E+00  0.0000E+00  0.2000E+01  0.2000E+01
    -26.216  0.0000E+00  0.0000E+00  0.2000E+01  0.2000E+01
    -26.024  0.0000E+00  0.0000E+00  0.2000E+01  0.2000E+01
    -25.833  0.0000E+00  0.0000E+00  0.2000E+01  0.2000E+01
    -25.641  0.0000E+00  0.0000E+00  0.2000E+01  0.2000E+01
    -25.450  0.0000E+00  0.0000E+00  0.2000E+01  0.2000E+01
    -25.258  0.0000E+00  0.0000E+00  0.2000E+01  0.2000E+01
    -25.067  0.0000E+00  0.0000E+00  0.2000E+01  0.2000E+01
    -24.875  0.0000E+00  0.0000E+00  0.2000E+01  0.2000E+01
    -24.684  0.0000E+00  0.0000E+00  0.2000E+01  0.2000E+01
    -24.492  0.0000E+00  0.0000E+00  0.2000E+01  0.2000E+01
    -24.301  0.0000E+00  0.0000E+00  0.2000E+01  0.2000E+01
    -24.110  0.0000E+00  0.0000E+00  0.2000E+01  0.2000E+01
    -23.918  0.0000E+00  0.0000E+00  0.2000E+01  0.2000E+01
    -23.727  0.0000E+00  0.0000E+00  0.2000E+01  0.2000E+01
    -23.535  0.0000E+00  0.0000E+00  0.2000E+01  0.2000E+01
    -23.344  0.0000E+00  0.0000E+00  0.2000E+01  0.2000E+01
    -23.152  0.0000E+00  0.0000E+00  0.2000E+01  0.2000E+01
    -22.961  0.0000E+00  0.0000E+00  0.2000E+01  0.2000E+01
    -22.769  0.0000E+00  0.0000E+00  0.2000E+01  0.2000E+01
    -22.578  0.0000E+00  0.0000E+00  0.2000E+01  0.2000E+01
    -22.386  0.0000E+00  0.0000E+00  0.2000E+01  0.2000E+01
    -22.195  0.0000E+00  0.0000E+00  0.2000E+01  0.2000E+01
    -22.004  0.0000E+00  0.0000E+00  0.2000E+01  0.2000E+01
    -21.812  0.0000E+00  0.0000E+00  0.2000E+01  0.2000E+01
    -21.621  0.0000E+00  0.0000E+00  0.2000E+01  0.2000E+01
    -21.429  0.0000E+00  0.0000E+00  0.2000E+01  0.2000E+01
    -21.238  0.2860E-02  0.2908E-02  0.2001E+01  0.2001E+01
    -21.046  0.1281E+00  0.1302E+00  0.2025E+01  0.2025E+01
    -20.855  0.4749E+01  0.4813E+01  0.2934E+01  0.2947E+01
    -20.663  0.2216E+02  0.2215E+02  0.7177E+01  0.7188E+01
    -20.472  0.4185E+01  0.4128E+01  0.7978E+01  0.7978E+01
    -20.280  0.0000E+00  0.0000E+00  0.8000E+01  0.8000E+01
    -20.089  0.0000E+00  0.0000E+00  0.8000E+01  0.8000E+01
    -19.898  0.0000E+00  0.0000E+00  0.8000E+01  0.8000E+01
    -19.706  0.0000E+00  0.0000E+00  0.8000E+01  0.8000E+01
    -19.515  0.0000E+00  0.0000E+00  0.8000E+01  0.8000E+01
    -19.323  0.0000E+00  0.0000E+00  0.8000E+01  0.8000E+01
    -19.132  0.0000E+00  0.0000E+00  0.8000E+01  0.8000E+01
    -18.940  0.0000E+00  0.0000E+00  0.8000E+01  0.8000E+01
    -18.749  0.0000E+00  0.0000E+00  0.8000E+01  0.8000E+01
    -18.557  0.0000E+00  0.0000E+00  0.8000E+01  0.8000E+01
    -18.366  0.0000E+00  0.0000E+00  0.8000E+01  0.8000E+01
    -18.174  0.0000E+00  0.0000E+00  0.8000E+01  0.8000E+01
    -17.983  0.0000E+00  0.0000E+00  0.8000E+01  0.8000E+01
    -17.792  0.0000E+00  0.0000E+00  0.8000E+01  0.8000E+01
    -17.600  0.0000E+00  0.0000E+00  0.8000E+01  0.8000E+01
    -17.409  0.0000E+00  0.0000E+00  0.8000E+01  0.8000E+01
    -17.217  0.0000E+00  0.0000E+00  0.8000E+01  0.8000E+01
    -17.026  0.0000E+00  0.0000E+00  0.8000E+01  0.8000E+01
    -16.834  0.0000E+00  0.0000E+00  0.8000E+01  0.8000E+01
    -16.643  0.0000E+00  0.0000E+00  0.8000E+01  0.8000E+01
    -16.451  0.0000E+00  0.0000E+00  0.8000E+01  0.8000E+01
    -16.260  0.0000E+00  0.0000E+00  0.8000E+01  0.8000E+01
    -16.068  0.0000E+00  0.0000E+00  0.8000E+01  0.8000E+01
    -15.877  0.0000E+00  0.0000E+00  0.8000E+01  0.8000E+01
    -15.686  0.0000E+00  0.0000E+00  0.8000E+01  0.8000E+01
    -15.494  0.0000E+00  0.0000E+00  0.8000E+01  0.8000E+01
    -15.303  0.0000E+00  0.0000E+00  0.8000E+01  0.8000E+01
    -15.111  0.0000E+00  0.0000E+00  0.8000E+01  0.8000E+01
    -14.920  0.0000E+00  0.0000E+00  0.8000E+01  0.8000E+01
    -14.728  0.0000E+00  0.0000E+00  0.8000E+01  0.8000E+01
    -14.537  0.0000E+00  0.0000E+00  0.8000E+01  0.8000E+01
    -14.345  0.0000E+00  0.0000E+00  0.8000E+01  0.8000E+01
    -14.154  0.0000E+00  0.0000E+00  0.8000E+01  0.8000E+01
    -13.962  0.0000E+00  0.0000E+00  0.8000E+01  0.8000E+01
    -13.771  0.0000E+00  0.0000E+00  0.8000E+01  0.8000E+01
    -13.580  0.0000E+00  0.0000E+00  0.8000E+01  0.8000E+01
    -13.388  0.0000E+00  0.0000E+00  0.8000E+01  0.8000E+01
    -13.197  0.0000E+00  0.0000E+00  0.8000E+01  0.8000E+01
    -13.005  0.0000E+00  0.0000E+00  0.8000E+01  0.8000E+01
    -12.814  0.0000E+00  0.0000E+00  0.8000E+01  0.8000E+01
    -12.622  0.0000E+00  0.0000E+00  0.8000E+01  0.8000E+01
    -12.431  0.0000E+00  0.0000E+00  0.8000E+01  0.8000E+01
    -12.239  0.0000E+00  0.0000E+00  0.8000E+01  0.8000E+01
    -12.048  0.0000E+00  0.0000E+00  0.8000E+01  0.8000E+01
    -11.856  0.0000E+00  0.0000E+00  0.8000E+01  0.8000E+01
    -11.665  0.0000E+00  0.0000E+00  0.8000E+01  0.8000E+01
    -11.474  0.0000E+00  0.0000E+00  0.8000E+01  0.8000E+01
    -11.282  0.0000E+00  0.0000E+00  0.8000E+01  0.8000E+01
    -11.091  0.0000E+00  0.0000E+00  0.8000E+01  0.8000E+01
    -10.899  0.0000E+00  0.0000E+00  0.8000E+01  0.8000E+01
    -10.708  0.0000E+00  0.0000E+00  0.8000E+01  0.8000E+01
    -10.516  0.0000E+00  0.0000E+00  0.8000E+01  0.8000E+01
    -10.325  0.0000E+00  0.0000E+00  0.8000E+01  0.8000E+01
    -10.133  0.0000E+00  0.0000E+00  0.8000E+01  0.8000E+01
     -9.942  0.0000E+00  0.0000E+00  0.8000E+01  0.8000E+01
     -9.750  0.0000E+00  0.0000E+00  0.8000E+01  0.8000E+01
     -9.559  0.0000E+00  0.0000E+00  0.8000E+01  0.8000E+01
     -9.368  0.0000E+00  0.0000E+00  0.8000E+01  0.8000E+01
     -9.176  0.0000E+00  0.0000E+00  0.8000E+01  0.8000E+01
     -8.985  0.0000E+00  0.0000E+00  0.8000E+01  0.8000E+01
     -8.793  0.0000E+00  0.0000E+00  0.8000E+01  0.8000E+01
     -8.602  0.0000E+00  0.0000E+00  0.8000E+01  0.8000E+01
     -8.410  0.0000E+00  0.0000E+00  0.8000E+01  0.8000E+01
     -8.219  0.0000E+00  0.0000E+00  0.8000E+01  0.8000E+01
     -8.027  0.0000E+00  0.0000E+00  0.8000E+01  0.8000E+01
     -7.836  0.0000E+00  0.0000E+00  0.8000E+01  0.8000E+01
     -7.644  0.0000E+00  0.0000E+00  0.8000E+01  0.8000E+01
     -7.453  0.0000E+00  0.0000E+00  0.8000E+01  0.8000E+01
     -7.262  0.0000E+00  0.0000E+00  0.8000E+01  0.8000E+01
     -7.070  0.0000E+00  0.0000E+00  0.8000E+01  0.8000E+01
     -6.879  0.0000E+00  0.0000E+00  0.8000E+01  0.8000E+01
     -6.687  0.0000E+00  0.0000E+00  0.8000E+01  0.8000E+01
     -6.496  0.0000E+00  0.0000E+00  0.8000E+01  0.8000E+01
     -6.304  0.0000E+00  0.0000E+00  0.8000E+01  0.8000E+01
     -6.113  0.0000E+00  0.0000E+00  0.8000E+01  0.8000E+01
     -5.921  0.0000E+00  0.0000E+00  0.8000E+01  0.8000E+01
     -5.730  0.0000E+00  0.0000E+00  0.8000E+01  0.8000E+01
     -5.538  0.0000E+00  0.0000E+00  0.8000E+01  0.8000E+01
     -5.347  0.0000E+00  0.0000E+00  0.8000E+01  0.8000E+01
     -5.156  0.0000E+00  0.0000E+00  0.8000E+01  0.8000E+01
     -4.964  0.0000E+00  0.0000E+00  0.8000E+01  0.8000E+01
     -4.773  0.0000E+00  0.0000E+00  0.8000E+01  0.8000E+01
     -4.581  0.0000E+00  0.0000E+00  0.8000E+01  0.8000E+01
     -4.390  0.0000E+00  0.0000E+00  0.8000E+01  0.8000E+01
     -4.198  0.0000E+00  0.0000E+00  0.8000E+01  0.8000E+01
     -4.007  0.0000E+00  0.0000E+00  0.8000E+01  0.8000E+01
     -3.815  0.0000E+00  0.0000E+00  0.8000E+01  0.8000E+01
     -3.624  0.0000E+00  0.0000E+00  0.8000E+01  0.8000E+01
     -3.432  0.0000E+00  0.0000E+00  0.8000E+01  0.8000E+01
     -3.241  0.0000E+00  0.0000E+00  0.8000E+01  0.8000E+01
     -3.050  0.0000E+00  0.0000E+00  0.8000E+01  0.8000E+01
     -2.858  0.3454E-07  0.3511E-07  0.8000E+01  0.8000E+01
     -2.667  0.9756E-05  0.9914E-05  0.8000E+01  0.8000E+01
     -2.475  0.4602E-03  0.4676E-03  0.8000E+01  0.8000E+01
     -2.284  0.1709E-01  0.1732E-01  0.8003E+01  0.8003E+01
     -2.092  0.1417E+00  0.1424E+00  0.8030E+01  0.8031E+01
     -1.901  0.2897E+00  0.2901E+00  0.8086E+01  0.8086E+01
     -1.709  0.3907E+00  0.3912E+00  0.8161E+01  0.8161E+01
     -1.518  0.4604E+00  0.4605E+00  0.8249E+01  0.8250E+01
     -1.326  0.5564E+00  0.5565E+00  0.8356E+01  0.8356E+01
     -1.135  0.6223E+00  0.6221E+00  0.8475E+01  0.8476E+01
     -0.944  0.7039E+00  0.7048E+00  0.8611E+01  0.8611E+01
     -0.752  0.8115E+00  0.8113E+00  0.8766E+01  0.8767E+01
     -0.561  0.7866E+00  0.7867E+00  0.8918E+01  0.8918E+01
     -0.369  0.8241E+00  0.8243E+00  0.9076E+01  0.9077E+01
     -0.178  0.9476E+00  0.9471E+00  0.9258E+01  0.9258E+01
      0.014  0.9068E+00  0.9071E+00  0.9432E+01  0.9433E+01
      0.205  0.1090E+01  0.1090E+01  0.9641E+01  0.9642E+01
      0.397  0.1026E+01  0.1026E+01  0.9838E+01  0.9839E+01
      0.588  0.1207E+01  0.1208E+01  0.1007E+02  0.1007E+02
      0.780  0.1326E+01  0.1326E+01  0.1032E+02  0.1033E+02
      0.971  0.1318E+01  0.1318E+01  0.1058E+02  0.1058E+02
      1.162  0.1307E+01  0.1306E+01  0.1083E+02  0.1083E+02
      1.354  0.9639E+00  0.9632E+00  0.1101E+02  0.1102E+02
      1.545  0.1043E+01  0.1043E+01  0.1122E+02  0.1122E+02
      1.737  0.1085E+01  0.1086E+01  0.1142E+02  0.1143E+02
      1.928  0.1418E+01  0.1419E+01  0.1170E+02  0.1170E+02
      2.120  0.1627E+01  0.1627E+01  0.1201E+02  0.1201E+02
      2.311  0.1610E+01  0.1611E+01  0.1232E+02  0.1232E+02
      2.503  0.1596E+01  0.1595E+01  0.1263E+02  0.1263E+02
      2.694  0.1246E+01  0.1245E+01  0.1286E+02  0.1287E+02
      2.886  0.1452E+01  0.1452E+01  0.1314E+02  0.1315E+02
      3.077  0.1260E+01  0.1259E+01  0.1339E+02  0.1339E+02
      3.268  0.1130E+01  0.1131E+01  0.1360E+02  0.1360E+02
      3.460  0.1527E+01  0.1529E+01  0.1390E+02  0.1390E+02
      3.651  0.1441E+01  0.1440E+01  0.1417E+02  0.1418E+02
      3.843  0.1763E+01  0.1767E+01  0.1451E+02  0.1452E+02
      4.034  0.2092E+01  0.2091E+01  0.1491E+02  0.1492E+02
      4.226  0.1797E+01  0.1797E+01  0.1526E+02  0.1526E+02
      4.417  0.2133E+01  0.2134E+01  0.1567E+02  0.1567E+02
      4.609  0.2025E+01  0.2026E+01  0.1606E+02  0.1606E+02
      4.800  0.2822E+01  0.2828E+01  0.1660E+02  0.1660E+02
      4.992  0.3477E+01  0.3479E+01  0.1727E+02  0.1727E+02
      5.183  0.3572E+01  0.3575E+01  0.1795E+02  0.1796E+02
      5.374  0.4145E+01  0.4144E+01  0.1875E+02  0.1875E+02
      5.566  0.3360E+01  0.3358E+01  0.1939E+02  0.1940E+02
      5.757  0.2959E+01  0.2957E+01  0.1996E+02  0.1997E+02
      5.949  0.2804E+01  0.2804E+01  0.2050E+02  0.2051E+02
      6.140  0.2165E+01  0.2159E+01  0.2092E+02  0.2092E+02
      6.332  0.1443E+01  0.1441E+01  0.2120E+02  0.2120E+02
      6.523  0.1349E+01  0.1349E+01  0.2146E+02  0.2146E+02
      6.715  0.1085E+01  0.1085E+01  0.2167E+02  0.2167E+02
      6.906  0.1059E+01  0.1059E+01  0.2187E+02  0.2187E+02
      7.098  0.1138E+01  0.1139E+01  0.2209E+02  0.2209E+02
      7.289  0.1558E+01  0.1568E+01  0.2239E+02  0.2239E+02
      7.480  0.2876E+01  0.2893E+01  0.2294E+02  0.2295E+02
      7.672  0.3001E+01  0.3002E+01  0.2352E+02  0.2352E+02
      7.863  0.2870E+01  0.2880E+01  0.2407E+02  0.2408E+02
      8.055  0.3210E+01  0.3228E+01  0.2469E+02  0.2470E+02
      8.246  0.3975E+01  0.3985E+01  0.2545E+02  0.2546E+02
      8.438  0.4447E+01  0.4498E+01  0.2630E+02  0.2633E+02
      8.629  0.3657E+01  0.3715E+01  0.2700E+02  0.2704E+02
      8.821  0.2484E+01  0.2537E+01  0.2748E+02  0.2753E+02
      9.012  0.1717E+01  0.1573E+01  0.2782E+02  0.2783E+02
      9.204  0.6546E+00  0.6742E+00  0.2794E+02  0.2796E+02
      9.395  0.2486E+00  0.1324E+00  0.2799E+02  0.2799E+02
      9.586  0.4040E-01  0.4035E-01  0.2800E+02  0.2800E+02
      9.778  0.2361E-02  0.3530E-02  0.2800E+02  0.2800E+02
      9.969  0.0000E+00  0.0000E+00  0.2800E+02  0.2800E+02
     10.161  0.0000E+00  0.0000E+00  0.2800E+02  0.2800E+02
     10.352  0.0000E+00  0.0000E+00  0.2800E+02  0.2800E+02
     10.544  0.0000E+00  0.0000E+00  0.2800E+02  0.2800E+02
     10.735  0.0000E+00  0.0000E+00  0.2800E+02  0.2800E+02
     10.927  0.0000E+00  0.0000E+00  0.2800E+02  0.2800E+02
     11.118  0.0000E+00  0.0000E+00  0.2800E+02  0.2800E+02
     11.310  0.0000E+00  0.0000E+00  0.2800E+02  0.2800E+02
     11.501  0.0000E+00  0.0000E+00  0.2800E+02  0.2800E+02
     11.692  0.0000E+00  0.0000E+00  0.2800E+02  0.2800E+02
     11.884  0.0000E+00  0.0000E+00  0.2800E+02  0.2800E+02
     12.075  0.0000E+00  0.0000E+00  0.2800E+02  0.2800E+02
     12.07540185    -45.36106510  301      6.18981512      1.00000000
    -45.361  0.0000E+00  0.0000E+00  0.0000E+00  0.0000E+00  0.0000E+00  0.0000E+00  0.0000E+00  0.0000E+00  0.0000E+00  0.0000E+00  0.0000E+00  0.0000E+00  0.0000E+00  0.0000E+00  0.0000E+00  0.0000E+00  0.0000E+00  0.0000E+00
    -45.170  0.0000E+00  0.0000E+00  0.0000E+00  0.0000E+00  0.0000E+00  0.0000E+00  0.0000E+00  0.0000E+00  0.0000E+00  0.0000E+00  0.0000E+00  0.0000E+00  0.0000E+00  0.0000E+00  0.0000E+00  0.0000E+00  0.0000E+00  0.0000E+00
    -44.978  0.0000E+00  0.0000E+00  0.0000E+00  0.0000E+00  0.0000E+00  0.0000E+00  0.0000E+00  0.0000E+00  0.0000E+00  0.0000E+00  0.0000E+00  0.0000E+00  0.0000E+00  0.0000E+00  0.0000E+00  0.0000E+00  0.0000E+00  0.0000E+00
    -44.787  0.0000E+00  0.0000E+00  0.0000E+00  0.0000E+00  0.0000E+00  0.0000E+00  0.0000E+00  0.0000E+00  0.0000E+00  0.0000E+00  0.0000E+00  0.0000E+00  0.0000E+00  0.0000E+00  0.0000E+00  0.0000E+00  0.0000E+00  0.0000E+00
    -44.595  0.0000E+00  0.0000E+00  0.0000E+00  0.0000E+00  0.0000E+00  0.0000E+00  0.0000E+00  0.0000E+00  0.0000E+00  0.0000E+00  0.0000E+00  0.0000E+00  0.0000E+00  0.0000E+00  0.0000E+00  0.0000E+00  0.0000E+00  0.0000E+00
    -44.404  0.0000E+00  0.0000E+00  0.0000E+00  0.0000E+00  0.0000E+00  0.0000E+00  0.0000E+00  0.0000E+00  0.0000E+00  0.0000E+00  0.0000E+00  0.0000E+00  0.0000E+00  0.0000E+00  0.0000E+00  0.0000E+00  0.0000E+00  0.0000E+00
    -44.212  0.0000E+00  0.0000E+00  0.0000E+00  0.0000E+00  0.0000E+00  0.0000E+00  0.0000E+00  0.0000E+00  0.0000E+00  0.0000E+00  0.0000E+00  0.0000E+00  0.0000E+00  0.0000E+00  0.0000E+00  0.0000E+00  0.0000E+00  0.0000E+00
    -44.021  0.0000E+00  0.0000E+00  0.0000E+00  0.0000E+00  0.0000E+00  0.0000E+00  0.0000E+00  0.0000E+00  0.0000E+00  0.0000E+00  0.0000E+00  0.0000E+00  0.0000E+00  0.0000E+00  0.0000E+00  0.0000E+00  0.0000E+00  0.0000E+00
    -43.829  0.0000E+00  0.0000E+00  0.0000E+00  0.0000E+00  0.0000E+00  0.0000E+00  0.0000E+00  0.0000E+00  0.0000E+00  0.0000E+00  0.0000E+00  0.0000E+00  0.0000E+00  0.0000E+00  0.0000E+00  0.0000E+00  0.0000E+00  0.0000E+00
    -43.638  0.0000E+00  0.0000E+00  0.0000E+00  0.0000E+00  0.0000E+00  0.0000E+00  0.0000E+00  0.0000E+00  0.0000E+00  0.0000E+00  0.0000E+00  0.0000E+00  0.0000E+00  0.0000E+00  0.0000E+00  0.0000E+00  0.0000E+00  0.0000E+00
    -43.447  0.0000E+00  0.0000E+00  0.0000E+00  0.0000E+00  0.0000E+00  0.0000E+00  0.0000E+00  0.0000E+00  0.0000E+00  0.0000E+00  0.0000E+00  0.0000E+00  0.0000E+00  0.0000E+00  0.0000E+00  0.0000E+00  0.0000E+00  0.0000E+00
    -43.255  0.2061E-03  0.2094E-03  0.2971E-12  0.2861E-12  0.2198E-15  0.1472E-15  0.2971E-12  0.2861E-12  0.5729E-15  0.4723E-15  0.3340E-15  0.2070E-15  0.1488E-09  0.1506E-09  0.3340E-15  0.2070E-15  0.3352E-12  0.3367E-12
    -43.064  0.9264E-02  0.9408E-02  0.1335E-10  0.1286E-10  0.9875E-14  0.6615E-14  0.1335E-10  0.1286E-10  0.2575E-13  0.2122E-13  0.1501E-13  0.9302E-14  0.6686E-08  0.6768E-08  0.1501E-13  0.9302E-14  0.1506E-10  0.1513E-10
    -42.872  0.3932E+00  0.3989E+00  0.5667E-09  0.5451E-09  0.4189E-12  0.2803E-12  0.5667E-09  0.5451E-09  0.1093E-11  0.9001E-12  0.6372E-12  0.3944E-12  0.2838E-06  0.2869E-06  0.6372E-12  0.3944E-12  0.6394E-09  0.6416E-09
    -42.681  0.3720E+01  0.3727E+01  0.5360E-08  0.5093E-08  0.3931E-11  0.2609E-11  0.5360E-08  0.5093E-08  0.1037E-10  0.8439E-11  0.6027E-11  0.3691E-11  0.2684E-05  0.2680E-05  0.6027E-11  0.3691E-11  0.6050E-08  0.5996E-08
    -42.489  0.1035E+01  0.1023E+01  0.1492E-08  0.1397E-08  0.1084E-11  0.7128E-12  0.1492E-08  0.1397E-08  0.2896E-11  0.2325E-11  0.1677E-11  0.1015E-11  0.7466E-06  0.7350E-06  0.1677E-11  0.1015E-11  0.1684E-08  0.1645E-08
    -42.298  0.0000E+00  0.0000E+00  0.0000E+00  0.0000E+00  0.0000E+00  0.0000E+00  0.0000E+00  0.0000E+00  0.0000E+00  0.0000E+00  0.0000E+00  0.0000E+00  0.0000E+00  0.0000E+00  0.0000E+00  0.0000E+00  0.0000E+00  0.0000E+00
    -42.106  0.0000E+00  0.0000E+00  0.0000E+00  0.0000E+00  0.0000E+00  0.0000E+00  0.0000E+00  0.0000E+00  0.0000E+00  0.0000E+00  0.0000E+00  0.0000E+00  0.0000E+00  0.0000E+00  0.0000E+00  0.0000E+00  0.0000E+00  0.0000E+00
    -41.915  0.0000E+00  0.0000E+00  0.0000E+00  0.0000E+00  0.0000E+00  0.0000E+00  0.0000E+00  0.0000E+00  0.0000E+00  0.0000E+00  0.0000E+00  0.0000E+00  0.0000E+00  0.0000E+00  0.0000E+00  0.0000E+00  0.0000E+00  0.0000E+00
    -41.723  0.0000E+00  0.0000E+00  0.0000E+00  0.0000E+00  0.0000E+00  0.0000E+00  0.0000E+00  0.0000E+00  0.0000E+00  0.0000E+00  0.0000E+00  0.0000E+00  0.0000E+00  0.0000E+00  0.0000E+00  0.0000E+00  0.0000E+00  0.0000E+00
    -41.532  0.0000E+00  0.0000E+00  0.0000E+00  0.0000E+00  0.0000E+00  0.0000E+00  0.0000E+00  0.0000E+00  0.0000E+00  0.0000E+00  0.0000E+00  0.0000E+00  0.0000E+00  0.0000E+00  0.0000E+00  0.0000E+00  0.0000E+00  0.0000E+00
    -41.341  0.0000E+00  0.0000E+00  0.0000E+00  0.0000E+00  0.0000E+00  0.0000E+00  0.0000E+00  0.0000E+00  0.0000E+00  0.0000E+00  0.0000E+00  0.0000E+00  0.0000E+00  0.0000E+00  0.0000E+00  0.0000E+00  0.0000E+00  0.0000E+00
    -41.149  0.0000E+00  0.0000E+00  0.0000E+00  0.0000E+00  0.0000E+00  0.0000E+00  0.0000E+00  0.0000E+00  0.0000E+00  0.0000E+00  0.0000E+00  0.0000E+00  0.0000E+00  0.0000E+00  0.0000E+00  0.0000E+00  0.0000E+00  0.0000E+00
    -40.958  0.0000E+00  0.0000E+00  0.0000E+00  0.0000E+00  0.0000E+00  0.0000E+00  0.0000E+00  0.0000E+00  0.0000E+00  0.0000E+00  0.0000E+00  0.0000E+00  0.0000E+00  0.0000E+00  0.0000E+00  0.0000E+00  0.0000E+00  0.0000E+00
    -40.766  0.0000E+00  0.0000E+00  0.0000E+00  0.0000E+00  0.0000E+00  0.0000E+00  0.0000E+00  0.0000E+00  0.0000E+00  0.0000E+00  0.0000E+00  0.0000E+00  0.0000E+00  0.0000E+00  0.0000E+00  0.0000E+00  0.0000E+00  0.0000E+00
    -40.575  0.0000E+00  0.0000E+00  0.0000E+00  0.0000E+00  0.0000E+00  0.0000E+00  0.0000E+00  0.0000E+00  0.0000E+00  0.0000E+00  0.0000E+00  0.0000E+00  0.0000E+00  0.0000E+00  0.0000E+00  0.0000E+00  0.0000E+00  0.0000E+00
    -40.383  0.0000E+00  0.0000E+00  0.0000E+00  0.0000E+00  0.0000E+00  0.0000E+00  0.0000E+00  0.0000E+00  0.0000E+00  0.0000E+00  0.0000E+00  0.0000E+00  0.0000E+00  0.0000E+00  0.0000E+00  0.0000E+00  0.0000E+00  0.0000E+00
    -40.192  0.0000E+00  0.0000E+00  0.0000E+00  0.0000E+00  0.0000E+00  0.0000E+00  0.0000E+00  0.0000E+00  0.0000E+00  0.0000E+00  0.0000E+00  0.0000E+00  0.0000E+00  0.0000E+00  0.0000E+00  0.0000E+00  0.0000E+00  0.0000E+00
    -40.000  0.0000E+00  0.0000E+00  0.0000E+00  0.0000E+00  0.0000E+00  0.0000E+00  0.0000E+00  0.0000E+00  0.0000E+00  0.0000E+00  0.0000E+00  0.0000E+00  0.0000E+00  0.0000E+00  0.0000E+00  0.0000E+00  0.0000E+00  0.0000E+00
    -39.809  0.0000E+00  0.0000E+00  0.0000E+00  0.0000E+00  0.0000E+00  0.0000E+00  0.0000E+00  0.0000E+00  0.0000E+00  0.0000E+00  0.0000E+00  0.0000E+00  0.0000E+00  0.0000E+00  0.0000E+00  0.0000E+00  0.0000E+00  0.0000E+00
    -39.617  0.0000E+00  0.0000E+00  0.0000E+00  0.0000E+00  0.0000E+00  0.0000E+00  0.0000E+00  0.0000E+00  0.0000E+00  0.0000E+00  0.0000E+00  0.0000E+00  0.0000E+00  0.0000E+00  0.0000E+00  0.0000E+00  0.0000E+00  0.0000E+00
    -39.426  0.0000E+00  0.0000E+00  0.0000E+00  0.0000E+00  0.0000E+00  0.0000E+00  0.0000E+00  0.0000E+00  0.0000E+00  0.0000E+00  0.0000E+00  0.0000E+00  0.0000E+00  0.0000E+00  0.0000E+00  0.0000E+00  0.0000E+00  0.0000E+00
    -39.235  0.0000E+00  0.0000E+00  0.0000E+00  0.0000E+00  0.0000E+00  0.0000E+00  0.0000E+00  0.0000E+00  0.0000E+00  0.0000E+00  0.0000E+00  0.0000E+00  0.0000E+00  0.0000E+00  0.0000E+00  0.0000E+00  0.0000E+00  0.0000E+00
    -39.043  0.0000E+00  0.0000E+00  0.0000E+00  0.0000E+00  0.0000E+00  0.0000E+00  0.0000E+00  0.0000E+00  0.0000E+00  0.0000E+00  0.0000E+00  0.0000E+00  0.0000E+00  0.0000E+00  0.0000E+00  0.0000E+00  0.0000E+00  0.0000E+00
    -38.852  0.0000E+00  0.0000E+00  0.0000E+00  0.0000E+00  0.0000E+00  0.0000E+00  0.0000E+00  0.0000E+00  0.0000E+00  0.0000E+00  0.0000E+00  0.0000E+00  0.0000E+00  0.0000E+00  0.0000E+00  0.0000E+00  0.0000E+00  0.0000E+00
    -38.660  0.0000E+00  0.0000E+00  0.0000E+00  0.0000E+00  0.0000E+00  0.0000E+00  0.0000E+00  0.0000E+00  0.0000E+00  0.0000E+00  0.0000E+00  0.0000E+00  0.0000E+00  0.0000E+00  0.0000E+00  0.0000E+00  0.0000E+00  0.0000E+00
    -38.469  0.0000E+00  0.0000E+00  0.0000E+00  0.0000E+00  0.0000E+00  0.0000E+00  0.0000E+00  0.0000E+00  0.0000E+00  0.0000E+00  0.0000E+00  0.0000E+00  0.0000E+00  0.0000E+00  0.0000E+00  0.0000E+00  0.0000E+00  0.0000E+00
    -38.277  0.0000E+00  0.0000E+00  0.0000E+00  0.0000E+00  0.0000E+00  0.0000E+00  0.0000E+00  0.0000E+00  0.0000E+00  0.0000E+00  0.0000E+00  0.0000E+00  0.0000E+00  0.0000E+00  0.0000E+00  0.0000E+00  0.0000E+00  0.0000E+00
    -38.086  0.0000E+00  0.0000E+00  0.0000E+00  0.0000E+00  0.0000E+00  0.0000E+00  0.0000E+00  0.0000E+00  0.0000E+00  0.0000E+00  0.0000E+00  0.0000E+00  0.0000E+00  0.0000E+00  0.0000E+00  0.0000E+00  0.0000E+00  0.0000E+00
    -37.894  0.0000E+00  0.0000E+00  0.0000E+00  0.0000E+00  0.0000E+00  0.0000E+00  0.0000E+00  0.0000E+00  0.0000E+00  0.0000E+00  0.0000E+00  0.0000E+00  0.0000E+00  0.0000E+00  0.0000E+00  0.0000E+00  0.0000E+00  0.0000E+00
    -37.703  0.0000E+00  0.0000E+00  0.0000E+00  0.0000E+00  0.0000E+00  0.0000E+00  0.0000E+00  0.0000E+00  0.0000E+00  0.0000E+00  0.0000E+00  0.0000E+00  0.0000E+00  0.0000E+00  0.0000E+00  0.0000E+00  0.0000E+00  0.0000E+00
    -37.511  0.0000E+00  0.0000E+00  0.0000E+00  0.0000E+00  0.0000E+00  0.0000E+00  0.0000E+00  0.0000E+00  0.0000E+00  0.0000E+00  0.0000E+00  0.0000E+00  0.0000E+00  0.0000E+00  0.0000E+00  0.0000E+00  0.0000E+00  0.0000E+00
    -37.320  0.0000E+00  0.0000E+00  0.0000E+00  0.0000E+00  0.0000E+00  0.0000E+00  0.0000E+00  0.0000E+00  0.0000E+00  0.0000E+00  0.0000E+00  0.0000E+00  0.0000E+00  0.0000E+00  0.0000E+00  0.0000E+00  0.0000E+00  0.0000E+00
    -37.129  0.0000E+00  0.0000E+00  0.0000E+00  0.0000E+00  0.0000E+00  0.0000E+00  0.0000E+00  0.0000E+00  0.0000E+00  0.0000E+00  0.0000E+00  0.0000E+00  0.0000E+00  0.0000E+00  0.0000E+00  0.0000E+00  0.0000E+00  0.0000E+00
    -36.937  0.0000E+00  0.0000E+00  0.0000E+00  0.0000E+00  0.0000E+00  0.0000E+00  0.0000E+00  0.0000E+00  0.0000E+00  0.0000E+00  0.0000E+00  0.0000E+00  0.0000E+00  0.0000E+00  0.0000E+00  0.0000E+00  0.0000E+00  0.0000E+00
    -36.746  0.0000E+00  0.0000E+00  0.0000E+00  0.0000E+00  0.0000E+00  0.0000E+00  0.0000E+00  0.0000E+00  0.0000E+00  0.0000E+00  0.0000E+00  0.0000E+00  0.0000E+00  0.0000E+00  0.0000E+00  0.0000E+00  0.0000E+00  0.0000E+00
    -36.554  0.0000E+00  0.0000E+00  0.0000E+00  0.0000E+00  0.0000E+00  0.0000E+00  0.0000E+00  0.0000E+00  0.0000E+00  0.0000E+00  0.0000E+00  0.0000E+00  0.0000E+00  0.0000E+00  0.0000E+00  0.0000E+00  0.0000E+00  0.0000E+00
    -36.363  0.0000E+00  0.0000E+00  0.0000E+00  0.0000E+00  0.0000E+00  0.0000E+00  0.0000E+00  0.0000E+00  0.0000E+00  0.0000E+00  0.0000E+00  0.0000E+00  0.0000E+00  0.0000E+00  0.0000E+00  0.0000E+00  0.0000E+00  0.0000E+00
    -36.171  0.0000E+00  0.0000E+00  0.0000E+00  0.0000E+00  0.0000E+00  0.0000E+00  0.0000E+00  0.0000E+00  0.0000E+00  0.0000E+00  0.0000E+00  0.0000E+00  0.0000E+00  0.0000E+00  0.0000E+00  0.0000E+00  0.0000E+00  0.0000E+00
    -35.980  0.0000E+00  0.0000E+00  0.0000E+00  0.0000E+00  0.0000E+00  0.0000E+00  0.0000E+00  0.0000E+00  0.0000E+00  0.0000E+00  0.0000E+00  0.0000E+00  0.0000E+00  0.0000E+00  0.0000E+00  0.0000E+00  0.0000E+00  0.0000E+00
    -35.788  0.0000E+00  0.0000E+00  0.0000E+00  0.0000E+00  0.0000E+00  0.0000E+00  0.0000E+00  0.0000E+00  0.0000E+00  0.0000E+00  0.0000E+00  0.0000E+00  0.0000E+00  0.0000E+00  0.0000E+00  0.0000E+00  0.0000E+00  0.0000E+00