   8   8   1   0
  0.1716079E+02  0.3920442E-09  0.3920442E-09  0.8932176E-09  0.5000000E-15
  1.000000000000000E-004
  CAR 
 unknown system                          
     15.33402722    -42.34742227  301      8.34603307      1.00000000
    -42.347  0.0000E+00  0.0000E+00  0.0000E+00  0.0000E+00
    -42.155  0.0000E+00  0.0000E+00  0.0000E+00  0.0000E+00
    -41.963  0.0000E+00  0.0000E+00  0.0000E+00  0.0000E+00
    -41.771  0.0000E+00  0.0000E+00  0.0000E+00  0.0000E+00
    -41.578  0.0000E+00  0.0000E+00  0.0000E+00  0.0000E+00
    -41.386  0.0000E+00  0.0000E+00  0.0000E+00  0.0000E+00
    -41.194  0.0000E+00  0.0000E+00  0.0000E+00  0.0000E+00
    -41.002  0.0000E+00  0.0000E+00  0.0000E+00  0.0000E+00
    -40.809  0.0000E+00  0.0000E+00  0.0000E+00  0.0000E+00
    -40.617  0.0000E+00  0.0000E+00  0.0000E+00  0.0000E+00
    -40.425  0.0000E+00  0.0000E+00  0.0000E+00  0.0000E+00
    -40.232  0.3776E-03  0.3782E-03  0.7260E-04  0.7271E-04
    -40.040  0.1726E-01  0.1728E-01  0.3391E-02  0.3396E-02
    -39.848  0.7478E+00  0.7488E+00  0.1472E+00  0.1474E+00
    -39.656  0.7429E+01  0.7430E+01  0.1575E+01  0.1576E+01
    -39.463  0.2148E+01  0.2146E+01  0.1989E+01  0.1989E+01
    -39.271  0.0000E+00  0.0000E+00  0.2000E+01  0.2000E+01
    -39.079  0.0000E+00  0.0000E+00  0.2000E+01  0.2000E+01
    -38.887  0.0000E+00  0.0000E+00  0.2000E+01  0.2000E+01
    -38.694  0.0000E+00  0.0000E+00  0.2000E+01  0.2000E+01
    -38.502  0.0000E+00  0.0000E+00  0.2000E+01  0.2000E+01
    -38.310  0.0000E+00  0.0000E+00  0.2000E+01  0.2000E+01
    -38.117  0.0000E+00  0.0000E+00  0.2000E+01  0.2000E+01
    -37.925  0.0000E+00  0.0000E+00  0.2000E+01  0.2000E+01
    -37.733  0.0000E+00  0.0000E+00  0.2000E+01  0.2000E+01
    -37.541  0.0000E+00  0.0000E+00  0.2000E+01  0.2000E+01
    -37.348  0.0000E+00  0.0000E+00  0.2000E+01  0.2000E+01
    -37.156  0.0000E+00  0.0000E+00  0.2000E+01  0.2000E+01
    -36.964  0.0000E+00  0.0000E+00  0.2000E+01  0.2000E+01
    -36.772  0.0000E+00  0.0000E+00  0.2000E+01  0.2000E+01
    -36.579  0.0000E+00  0.0000E+00  0.2000E+01  0.2000E+01
    -36.387  0.0000E+00  0.0000E+00  0.2000E+01  0.2000E+01
    -36.195  0.0000E+00  0.0000E+00  0.2000E+01  0.2000E+01
    -36.002  0.0000E+00  0.0000E+00  0.2000E+01  0.2000E+01
    -35.810  0.0000E+00  0.0000E+00  0.2000E+01  0.2000E+01
    -35.618  0.0000E+00  0.0000E+00  0.2000E+01  0.2000E+01
    -35.426  0.0000E+00  0.0000E+00  0.2000E+01  0.2000E+01
    -35.233  0.0000E+00  0.0000E+00  0.2000E+01  0.2000E+01
    -35.041  0.0000E+00  0.0000E+00  0.2000E+01  0.2000E+01
    -34.849  0.0000E+00  0.0000E+00  0.2000E+01  0.2000E+01
    -34.657  0.0000E+00  0.0000E+00  0.2000E+01  0.2000E+01
    -34.464  0.0000E+00  0.0000E+00  0.2000E+01  0.2000E+01
    -34.272  0.0000E+00  0.0000E+00  0.2000E+01  0.2000E+01
    -34.080  0.0000E+00  0.0000E+00  0.2000E+01  0.2000E+01
    -33.887  0.0000E+00  0.0000E+00  0.2000E+01  0.2000E+01
    -33.695  0.0000E+00  0.0000E+00  0.2000E+01  0.2000E+01
    -33.503  0.0000E+00  0.0000E+00  0.2000E+01  0.2000E+01
    -33.311  0.0000E+00  0.0000E+00  0.2000E+01  0.2000E+01
    -33.118  0.0000E+00  0.0000E+00  0.2000E+01  0.2000E+01
    -32.926  0.0000E+00  0.0000E+00  0.2000E+01  0.2000E+01
    -32.734  0.0000E+00  0.0000E+00  0.2000E+01  0.2000E+01
    -32.542  0.0000E+00  0.0000E+00  0.2000E+01  0.2000E+01
    -32.349  0.0000E+00  0.0000E+00  0.2000E+01  0.2000E+01
    -32.157  0.0000E+00  0.0000E+00  0.2000E+01  0.2000E+01
    -31.965  0.0000E+00  0.0000E+00  0.2000E+01  0.2000E+01
    -31.772  0.0000E+00  0.0000E+00  0.2000E+01  0.2000E+01
    -31.580  0.0000E+00  0.0000E+00  0.2000E+01  0.2000E+01
    -31.388  0.0000E+00  0.0000E+00  0.2000E+01  0.2000E+01
    -31.196  0.0000E+00  0.0000E+00  0.2000E+01  0.2000E+01
    -31.003  0.0000E+00  0.0000E+00  0.2000E+01  0.2000E+01
    -30.811  0.0000E+00  0.0000E+00  0.2000E+01  0.2000E+01
    -30.619  0.0000E+00  0.0000E+00  0.2000E+01  0.2000E+01
    -30.427  0.0000E+00  0.0000E+00  0.2000E+01  0.2000E+01
    -30.234  0.0000E+00  0.0000E+00  0.2000E+01  0.2000E+01
    -30.042  0.0000E+00  0.0000E+00  0.2000E+01  0.2000E+01
    -29.850  0.0000E+00  0.0000E+00  0.2000E+01  0.2000E+01
    -29.658  0.0000E+00  0.0000E+00  0.2000E+01  0.2000E+01
    -29.465  0.0000E+00  0.0000E+00  0.2000E+01  0.2000E+01
    -29.273  0.0000E+00  0.0000E+00  0.2000E+01  0.2000E+01
    -29.081  0.0000E+00  0.0000E+00  0.2000E+01  0.2000E+01
    -28.888  0.0000E+00  0.0000E+00  0.2000E+01  0.2000E+01
    -28.696  0.0000E+00  0.0000E+00  0.2000E+01  0.2000E+01
    -28.504  0.0000E+00  0.0000E+00  0.2000E+01  0.2000E+01
    -28.312  0.0000E+00  0.0000E+00  0.2000E+01  0.2000E+01
    -28.119  0.0000E+00  0.0000E+00  0.2000E+01  0.2000E+01
    -27.927  0.0000E+00  0.0000E+00  0.2000E+01  0.2000E+01
    -27.735  0.0000E+00  0.0000E+00  0.2000E+01  0.2000E+01
    -27.543  0.0000E+00  0.0000E+00  0.2000E+01  0.2000E+01
    -27.350  0.0000E+00  0.0000E+00  0.2000E+01  0.2000E+01
    -27.158  0.0000E+00  0.0000E+00  0.2000E+01  0.2000E+01
    -26.966  0.0000E+00  0.0000E+00  0.2000E+01  0.2000E+01
    -26.773  0.0000E+00  0.0000E+00  0.2000E+01  0.2000E+01
    -26.581  0.0000E+00  0.0000E+00  0.2000E+01  0.2000E+01
    -26.389  0.0000E+00  0.0000E+00  0.2000E+01  0.2000E+01
    -26.197  0.0000E+00  0.0000E+00  0.2000E+01  0.2000E+01
    -26.004  0.0000E+00  0.0000E+00  0.2000E+01  0.2000E+01
    -25.812  0.0000E+00  0.0000E+00  0.2000E+01  0.2000E+01
    -25.620  0.0000E+00  0.0000E+00  0.2000E+01  0.2000E+01
    -25.428  0.0000E+00  0.0000E+00  0.2000E+01  0.2000E+01
    -25.235  0.0000E+00  0.0000E+00  0.2000E+01  0.2000E+01
    -25.043  0.0000E+00  0.0000E+00  0.2000E+01  0.2000E+01
    -24.851  0.0000E+00  0.0000E+00  0.2000E+01  0.2000E+01
    -24.658  0.0000E+00  0.0000E+00  0.2000E+01  0.2000E+01
    -24.466  0.0000E+00  0.0000E+00  0.2000E+01  0.2000E+01
    -24.274  0.0000E+00  0.0000E+00  0.2000E+01  0.2000E+01
    -24.082  0.0000E+00  0.0000E+00  0.2000E+01  0.2000E+01
    -23.889  0.0000E+00  0.0000E+00  0.2000E+01  0.2000E+01
    -23.697  0.0000E+00  0.0000E+00  0.2000E+01  0.2000E+01
    -23.505  0.0000E+00  0.0000E+00  0.2000E+01  0.2000E+01
    -23.313  0.0000E+00  0.0000E+00  0.2000E+01  0.2000E+01
    -23.120  0.0000E+00  0.0000E+00  0.2000E+01  0.2000E+01
    -22.928  0.0000E+00  0.0000E+00  0.2000E+01  0.2000E+01
    -22.736  0.0000E+00  0.0000E+00  0.2000E+01  0.2000E+01
    -22.543  0.0000E+00  0.0000E+00  0.2000E+01  0.2000E+01
    -22.351  0.0000E+00  0.0000E+00  0.2000E+01  0.2000E+01
    -22.159  0.0000E+00  0.0000E+00  0.2000E+01  0.2000E+01
    -21.967  0.0000E+00  0.0000E+00  0.2000E+01  0.2000E+01
    -21.774  0.0000E+00  0.0000E+00  0.2000E+01  0.2000E+01
    -21.582  0.0000E+00  0.0000E+00  0.2000E+01  0.2000E+01
    -21.390  0.0000E+00  0.0000E+00  0.2000E+01  0.2000E+01
    -21.198  0.0000E+00  0.0000E+00  0.2000E+01  0.2000E+01
    -21.005  0.0000E+00  0.0000E+00  0.2000E+01  0.2000E+01
    -20.813  0.0000E+00  0.0000E+00  0.2000E+01  0.2000E+01
    -20.621  0.0000E+00  0.0000E+00  0.2000E+01  0.2000E+01
    -20.428  0.0000E+00  0.0000E+00  0.2000E+01  0.2000E+01
    -20.236  0.0000E+00  0.0000E+00  0.2000E+01  0.2000E+01
    -20.044  0.0000E+00  0.0000E+00  0.2000E+01  0.2000E+01
    -19.852  0.0000E+00  0.0000E+00  0.2000E+01  0.2000E+01
    -19.659  0.0000E+00  0.0000E+00  0.2000E+01  0.2000E+01
    -19.467  0.0000E+00  0.0000E+00  0.2000E+01  0.2000E+01
    -19.275  0.0000E+00  0.0000E+00  0.2000E+01  0.2000E+01
    -19.083  0.0000E+00  0.0000E+00  0.2000E+01  0.2000E+01
    -18.890  0.0000E+00  0.0000E+00  0.2000E+01  0.2000E+01
    -18.698  0.0000E+00  0.0000E+00  0.2000E+01  0.2000E+01
    -18.506  0.7411E-04  0.7396E-04  0.2000E+01  0.2000E+01
    -18.313  0.6033E-02  0.6021E-02  0.2001E+01  0.2001E+01
    -18.121  0.2750E+00  0.2744E+00  0.2054E+01  0.2054E+01
    -17.929  0.7652E+01  0.7642E+01  0.3525E+01  0.3523E+01
    -17.737  0.2013E+02  0.2013E+02  0.7395E+01  0.7394E+01
    -17.544  0.3053E+01  0.3060E+01  0.7985E+01  0.7985E+01
    -17.352  0.0000E+00  0.0000E+00  0.8000E+01  0.8000E+01
    -17.160  0.0000E+00  0.0000E+00  0.8000E+01  0.8000E+01
    -16.968  0.0000E+00  0.0000E+00  0.8000E+01  0.8000E+01
    -16.775  0.0000E+00  0.0000E+00  0.8000E+01  0.8000E+01
    -16.583  0.0000E+00  0.0000E+00  0.8000E+01  0.8000E+01
    -16.391  0.0000E+00  0.0000E+00  0.8000E+01  0.8000E+01
    -16.198  0.0000E+00  0.0000E+00  0.8000E+01  0.8000E+01
    -16.006  0.0000E+00  0.0000E+00  0.8000E+01  0.8000E+01
    -15.814  0.0000E+00  0.0000E+00  0.8000E+01  0.8000E+01
    -15.622  0.0000E+00  0.0000E+00  0.8000E+01  0.8000E+01
    -15.429  0.0000E+00  0.0000E+00  0.8000E+01  0.8000E+01
    -15.237  0.0000E+00  0.0000E+00  0.8000E+01  0.8000E+01
    -15.045  0.0000E+00  0.0000E+00  0.8000E+01  0.8000E+01
    -14.853  0.0000E+00  0.0000E+00  0.8000E+01  0.8000E+01
    -14.660  0.0000E+00  0.0000E+00  0.8000E+01  0.8000E+01
    -14.468  0.0000E+00  0.0000E+00  0.8000E+01  0.8000E+01
    -14.276  0.0000E+00  0.0000E+00  0.8000E+01  0.8000E+01
    -14.084  0.0000E+00  0.0000E+00  0.8000E+01  0.8000E+01
    -13.891  0.0000E+00  0.0000E+00  0.8000E+01  0.8000E+01
    -13.699  0.0000E+00  0.0000E+00  0.8000E+01  0.8000E+01
    -13.507  0.0000E+00  0.0000E+00  0.8000E+01  0.8000E+01
    -13.314  0.0000E+00  0.0000E+00  0.8000E+01  0.8000E+01
    -13.122  0.0000E+00  0.0000E+00  0.8000E+01  0.8000E+01
    -12.930  0.0000E+00  0.0000E+00  0.8000E+01  0.8000E+01
    -12.738  0.0000E+00  0.0000E+00  0.8000E+01  0.8000E+01
    -12.545  0.0000E+00  0.0000E+00  0.8000E+01  0.8000E+01
    -12.353  0.0000E+00  0.0000E+00  0.8000E+01  0.8000E+01
    -12.161  0.0000E+00  0.0000E+00  0.8000E+01  0.8000E+01
    -11.969  0.0000E+00  0.0000E+00  0.8000E+01  0.8000E+01
    -11.776  0.0000E+00  0.0000E+00  0.8000E+01  0.8000E+01
    -11.584  0.0000E+00  0.0000E+00  0.8000E+01  0.8000E+01
    -11.392  0.0000E+00  0.0000E+00  0.8000E+01  0.8000E+01
    -11.199  0.0000E+00  0.0000E+00  0.8000E+01  0.8000E+01
    -11.007  0.0000E+00  0.0000E+00  0.8000E+01  0.8000E+01
    -10.815  0.0000E+00  0.0000E+00  0.8000E+01  0.8000E+01
    -10.623  0.0000E+00  0.0000E+00  0.8000E+01  0.8000E+01
    -10.430  0.0000E+00  0.0000E+00  0.8000E+01  0.8000E+01
    -10.238  0.0000E+00  0.0000E+00  0.8000E+01  0.8000E+01
    -10.046  0.0000E+00  0.0000E+00  0.8000E+01  0.8000E+01
     -9.854  0.0000E+00  0.0000E+00  0.8000E+01  0.8000E+01
     -9.661  0.0000E+00  0.0000E+00  0.8000E+01  0.8000E+01
     -9.469  0.0000E+00  0.0000E+00  0.8000E+01  0.8000E+01
     -9.277  0.0000E+00  0.0000E+00  0.8000E+01  0.8000E+01
     -9.084  0.0000E+00  0.0000E+00  0.8000E+01  0.8000E+01
     -8.892  0.0000E+00  0.0000E+00  0.8000E+01  0.8000E+01
     -8.700  0.0000E+00  0.0000E+00  0.8000E+01  0.8000E+01
     -8.508  0.0000E+00  0.0000E+00  0.8000E+01  0.8000E+01
     -8.315  0.0000E+00  0.0000E+00  0.8000E+01  0.8000E+01
     -8.123  0.0000E+00  0.0000E+00  0.8000E+01  0.8000E+01
     -7.931  0.0000E+00  0.0000E+00  0.8000E+01  0.8000E+01
     -7.739  0.0000E+00  0.0000E+00  0.8000E+01  0.8000E+01
     -7.546  0.0000E+00  0.0000E+00  0.8000E+01  0.8000E+01
     -7.354  0.0000E+00  0.0000E+00  0.8000E+01  0.8000E+01
     -7.162  0.0000E+00  0.0000E+00  0.8000E+01  0.8000E+01
     -6.969  0.0000E+00  0.0000E+00  0.8000E+01  0.8000E+01
     -6.777  0.0000E+00  0.0000E+00  0.8000E+01  0.8000E+01
     -6.585  0.0000E+00  0.0000E+00  0.8000E+01  0.8000E+01
     -6.393  0.0000E+00  0.0000E+00  0.8000E+01  0.8000E+01
     -6.200  0.0000E+00  0.0000E+00  0.8000E+01  0.8000E+01
     -6.008  0.0000E+00  0.0000E+00  0.8000E+01  0.8000E+01
     -5.816  0.0000E+00  0.0000E+00  0.8000E+01  0.8000E+01
     -5.624  0.0000E+00  0.0000E+00  0.8000E+01  0.8000E+01
     -5.431  0.0000E+00  0.0000E+00  0.8000E+01  0.8000E+01
     -5.239  0.0000E+00  0.0000E+00  0.8000E+01  0.8000E+01
     -5.047  0.0000E+00  0.0000E+00  0.8000E+01  0.8000E+01
     -4.854  0.0000E+00  0.0000E+00  0.8000E+01  0.8000E+01
     -4.662  0.0000E+00  0.0000E+00  0.8000E+01  0.8000E+01
     -4.470  0.0000E+00  0.0000E+00  0.8000E+01  0.8000E+01
     -4.278  0.0000E+00  0.0000E+00  0.8000E+01  0.8000E+01
     -4.085  0.0000E+00  0.0000E+00  0.8000E+01  0.8000E+01
     -3.893  0.0000E+00  0.0000E+00  0.8000E+01  0.8000E+01
     -3.701  0.0000E+00  0.0000E+00  0.8000E+01  0.8000E+01
     -3.509  0.0000E+00  0.0000E+00  0.8000E+01  0.8000E+01
     -3.316  0.0000E+00  0.0000E+00  0.8000E+01  0.8000E+01
     -3.124  0.0000E+00  0.0000E+00  0.8000E+01  0.8000E+01
     -2.932  0.0000E+00  0.0000E+00  0.8000E+01  0.8000E+01
     -2.739  0.0000E+00  0.0000E+00  0.8000E+01  0.8000E+01
     -2.547  0.0000E+00  0.0000E+00  0.8000E+01  0.8000E+01
     -2.355  0.0000E+00  0.0000E+00  0.8000E+01  0.8000E+01
     -2.163  0.0000E+00  0.0000E+00  0.8000E+01  0.8000E+01
     -1.970  0.0000E+00  0.0000E+00  0.8000E+01  0.8000E+01
     -1.778  0.0000E+00  0.0000E+00  0.8000E+01  0.8000E+01
     -1.586  0.6445E-05  0.6494E-05  0.8000E+01  0.8000E+01
     -1.394  0.3050E-03  0.3073E-03  0.8000E+01  0.8000E+01
     -1.201  0.1163E-01  0.1170E-01  0.8002E+01  0.8002E+01
     -1.009  0.1026E+00  0.1028E+00  0.8022E+01  0.8022E+01
     -0.817  0.2161E+00  0.2163E+00  0.8064E+01  0.8064E+01
     -0.625  0.2757E+00  0.2758E+00  0.8117E+01  0.8117E+01
     -0.432  0.3703E+00  0.3704E+00  0.8188E+01  0.8188E+01
     -0.240  0.3840E+00  0.3841E+00  0.8262E+01  0.8262E+01
     -0.048  0.4734E+00  0.4736E+00  0.8353E+01  0.8354E+01
      0.145  0.5359E+00  0.5358E+00  0.8457E+01  0.8457E+01
      0.337  0.5300E+00  0.5304E+00  0.8559E+01  0.8559E+01
      0.529  0.7128E+00  0.7129E+00  0.8696E+01  0.8697E+01
      0.721  0.6879E+00  0.6878E+00  0.8829E+01  0.8829E+01
      0.914  0.6874E+00  0.6875E+00  0.8962E+01  0.8962E+01
      1.106  0.7132E+00  0.7134E+00  0.9099E+01  0.9100E+01
      1.298  0.8370E+00  0.8370E+00  0.9261E+01  0.9261E+01
      1.490  0.7701E+00  0.7703E+00  0.9410E+01  0.9410E+01
      1.683  0.8663E+00  0.8667E+00  0.9577E+01  0.9577E+01
      1.875  0.1003E+01  0.1003E+01  0.9770E+01  0.9771E+01
      2.067  0.1021E+01  0.1021E+01  0.9967E+01  0.9968E+01
      2.260  0.1099E+01  0.1100E+01  0.1018E+02  0.1018E+02
      2.452  0.1249E+01  0.1249E+01  0.1042E+02  0.1042E+02
      2.644  0.1262E+01  0.1261E+01  0.1066E+02  0.1066E+02
      2.836  0.1112E+01  0.1112E+01  0.1088E+02  0.1088E+02
      3.029  0.8387E+00  0.8386E+00  0.1104E+02  0.1104E+02
      3.221  0.9775E+00  0.9775E+00  0.1123E+02  0.1123E+02
      3.413  0.9029E+00  0.9029E+00  0.1140E+02  0.1140E+02
      3.605  0.9371E+00  0.9376E+00  0.1158E+02  0.1158E+02
      3.798  0.1136E+01  0.1136E+01  0.1180E+02  0.1180E+02
      3.990  0.1269E+01  0.1269E+01  0.1205E+02  0.1205E+02
      4.182  0.1611E+01  0.1612E+01  0.1236E+02  0.1236E+02
      4.375  0.1334E+01  0.1333E+01  0.1262E+02  0.1262E+02
      4.567  0.1264E+01  0.1264E+01  0.1286E+02  0.1286E+02
      4.759  0.1429E+01  0.1430E+01  0.1314E+02  0.1314E+02
      4.951  0.1189E+01  0.1188E+01  0.1337E+02  0.1337E+02
      5.144  0.1101E+01  0.1102E+01  0.1358E+02  0.1358E+02
      5.336  0.1358E+01  0.1357E+01  0.1384E+02  0.1384E+02
      5.528  0.1296E+01  0.1296E+01  0.1409E+02  0.1409E+02
      5.720  0.1837E+01  0.1839E+01  0.1444E+02  0.1445E+02
      5.913  0.1948E+01  0.1947E+01  0.1482E+02  0.1482E+02
      6.105  0.1624E+01  0.1623E+01  0.1513E+02  0.1513E+02
      6.297  0.1677E+01  0.1678E+01  0.1546E+02  0.1546E+02
      6.490  0.2066E+01  0.2066E+01  0.1586E+02  0.1586E+02
      6.682  0.2104E+01  0.2104E+01  0.1626E+02  0.1626E+02
      6.874  0.3066E+01  0.3068E+01  0.1685E+02  0.1685E+02
      7.066  0.3588E+01  0.3588E+01  0.1754E+02  0.1754E+02
      7.259  0.3539E+01  0.3538E+01  0.1823E+02  0.1823E+02
      7.451  0.3339E+01  0.3338E+01  0.1887E+02  0.1887E+02
      7.643  0.3019E+01  0.3018E+01  0.1946E+02  0.1946E+02
      7.835  0.2800E+01  0.2799E+01  0.2000E+02  0.2000E+02
      8.028  0.2417E+01  0.2417E+01  0.2046E+02  0.2046E+02
      8.220  0.1831E+01  0.1831E+01  0.2082E+02  0.2082E+02
      8.412  0.1358E+01  0.1358E+01  0.2108E+02  0.2108E+02
      8.605  0.1094E+01  0.1094E+01  0.2129E+02  0.2129E+02
      8.797  0.1077E+01  0.1077E+01  0.2150E+02  0.2150E+02
      8.989  0.8700E+00  0.8698E+00  0.2167E+02  0.2167E+02
      9.181  0.8556E+00  0.8555E+00  0.2183E+02  0.2183E+02
      9.374  0.8678E+00  0.8679E+00  0.2200E+02  0.2200E+02
      9.566  0.6257E+00  0.6263E+00  0.2212E+02  0.2212E+02
      9.758  0.1045E+01  0.1046E+01  0.2232E+02  0.2232E+02
      9.950  0.1772E+01  0.1773E+01  0.2267E+02  0.2267E+02
     10.143  0.2041E+01  0.2040E+01  0.2306E+02  0.2306E+02
     10.335  0.2294E+01  0.2295E+01  0.2350E+02  0.2350E+02
     10.527  0.2482E+01  0.2482E+01  0.2398E+02  0.2398E+02
     10.720  0.2947E+01  0.2950E+01  0.2455E+02  0.2455E+02
     10.912  0.2837E+01  0.2860E+01  0.2510E+02  0.2510E+02
     11.104  0.2975E+01  0.2960E+01  0.2567E+02  0.2567E+02
     11.296  0.2927E+01  0.2954E+01  0.2624E+02  0.2624E+02
     11.489  0.2821E+01  0.2881E+01  0.2678E+02  0.2680E+02
     11.681  0.2571E+01  0.2495E+01  0.2728E+02  0.2728E+02
     11.873  0.1961E+01  0.2027E+01  0.2766E+02  0.2767E+02
     12.065  0.1078E+01  0.1128E+01  0.2787E+02  0.2789E+02
     12.258  0.3184E+00  0.3155E+00  0.2793E+02  0.2795E+02
     12.450  0.1925E+00  0.1767E+00  0.2797E+02  0.2799E+02
     12.642  0.1472E+00  0.4003E-01  0.2799E+02  0.2800E+02
     12.834  0.2714E-01  0.1327E-01  0.2800E+02  0.2800E+02
     13.027  0.1024E-02  0.1368E-02  0.2800E+02  0.2800E+02
     13.219  0.0000E+00  0.0000E+00  0.2800E+02  0.2800E+02
     13.411  0.0000E+00  0.0000E+00  0.2800E+02  0.2800E+02
     13.604  0.0000E+00  0.0000E+00  0.2800E+02  0.2800E+02
     13.796  0.0000E+00  0.0000E+00  0.2800E+02  0.2800E+02
     13.988  0.0000E+00  0.0000E+00  0.2800E+02  0.2800E+02
     14.180  0.0000E+00  0.0000E+00  0.2800E+02  0.2800E+02
     14.373  0.0000E+00  0.0000E+00  0.2800E+02  0.2800E+02
     14.565  0.0000E+00  0.0000E+00  0.2800E+02  0.2800E+02
     14.757  0.0000E+00  0.0000E+00  0.2800E+02  0.2800E+02
     14.949  0.0000E+00  0.0000E+00  0.2800E+02  0.2800E+02
     15.142  0.0000E+00  0.0000E+00  0.2800E+02  0.2800E+02
     15.334  0.0000E+00  0.0000E+00  0.2800E+02  0.2800E+02
     15.33402722    -42.34742227  301      8.34603307      1.00000000
    -42.347  0.0000E+00  0.0000E+00  0.0000E+00  0.0000E+00  0.0000E+00  0.0000E+00  0.0000E+00  0.0000E+00  0.0000E+00  0.0000E+00  0.0000E+00  0.0000E+00  0.0000E+00  0.0000E+00  0.0000E+00  0.0000E+00  0.0000E+00  0.0000E+00
    -42.155  0.0000E+00  0.0000E+00  0.0000E+00  0.0000E+00  0.0000E+00  0.0000E+00  0.0000E+00  0.0000E+00  0.0000E+00  0.0000E+00  0.0000E+00  0.0000E+00  0.0000E+00  0.0000E+00  0.0000E+00  0.0000E+00  0.0000E+00  0.0000E+00
    -41.963  0.0000E+00  0.0000E+00  0.0000E+00  0.0000E+00  0.0000E+00  0.0000E+00  0.0000E+00  0.0000E+00  0.0000E+00  0.0000E+00  0.0000E+00  0.0000E+00  0.0000E+00  0.0000E+00  0.0000E+00  0.0000E+00  0.0000E+00  0.0000E+00
    -41.771  0.0000E+00  0.0000E+00  0.0000E+00  0.0000E+00  0.0000E+00  0.0000E+00  0.0000E+00  0.0000E+00  0.0000E+00  0.0000E+00  0.0000E+00  0.0000E+00  0.0000E+00  0.0000E+00  0.0000E+00  0.0000E+00  0.0000E+00  0.0000E+00
    -41.578  0.0000E+00  0.0000E+00  0.0000E+00  0.0000E+00  0.0000E+00  0.0000E+00  0.0000E+00  0.0000E+00  0.0000E+00  0.0000E+00  0.0000E+00  0.0000E+00  0.0000E+00  0.0000E+00  0.0000E+00  0.0000E+00  0.0000E+00  0.0000E+00
    -41.386  0.0000E+00  0.0000E+00  0.0000E+00  0.0000E+00  0.0000E+00  0.0000E+00  0.0000E+00  0.0000E+00  0.0000E+00  0.0000E+00  0.0000E+00  0.0000E+00  0.0000E+00  0.0000E+00  0.0000E+00  0.0000E+00  0.0000E+00  0.0000E+00
    -41.194  0.0000E+00  0.0000E+00  0.0000E+00  0.0000E+00  0.0000E+00  0.0000E+00  0.0000E+00  0.0000E+00  0.0000E+00  0.0000E+00  0.0000E+00  0.0000E+00  0.0000E+00  0.0000E+00  0.0000E+00  0.0000E+00  0.0000E+00  0.0000E+00
    -41.002  0.0000E+00  0.0000E+00  0.0000E+00  0.0000E+00  0.0000E+00  0.0000E+00  0.0000E+00  0.0000E+00  0.0000E+00  0.0000E+00  0.0000E+00  0.0000E+00  0.0000E+00  0.0000E+00  0.0000E+00  0.0000E+00  0.0000E+00  0.0000E+00
    -40.809  0.0000E+00  0.0000E+00  0.0000E+00  0.0000E+00  0.0000E+00  0.0000E+00  0.0000E+00  0.0000E+00  0.0000E+00  0.0000E+00  0.0000E+00  0.0000E+00  0.0000E+00  0.0000E+00  0.0000E+00  0.0000E+00  0.0000E+00  0.0000E+00
    -40.617  0.0000E+00  0.0000E+00  0.0000E+00  0.0000E+00  0.0000E+00  0.0000E+00  0.0000E+00  0.0000E+00  0.0000E+00  0.0000E+00  0.0000E+00  0.0000E+00  0.0000E+00  0.0000E+00  0.0000E+00  0.0000E+00  0.0000E+00  0.0000E+00
    -40.425  0.0000E+00  0.0000E+00  0.0000E+00  0.0000E+00  0.0000E+00  0.0000E+00  0.0000E+00  0.0000E+00  0.0000E+00  0.0000E+00  0.0000E+00  0.0000E+00  0.0000E+00  0.0000E+00  0.0000E+00  0.0000E+00  0.0000E+00  0.0000E+00
    -40.232  0.1874E-03  0.1877E-03  0.3499E-11  0.3524E-11  0.2773E-14  0.2491E-14  0.3499E-11  0.3524E-11  0.2041E-14  0.2428E-14  0.6843E-15  0.2083E-14  0.2370E-09  0.2360E-09  0.6843E-15  0.2083E-14  0.4031E-11  0.4164E-11
    -40.040  0.8564E-02  0.8577E-02  0.1599E-09  0.1610E-09  0.1267E-12  0.1138E-12  0.1599E-09  0.1610E-09  0.9326E-13  0.1110E-12  0.3127E-13  0.9521E-13  0.1083E-07  0.1078E-07  0.3127E-13  0.9521E-13  0.1842E-09  0.1903E-09
    -39.848  0.3711E+00  0.3716E+00  0.6929E-08  0.6978E-08  0.5475E-11  0.4920E-11  0.6929E-08  0.6978E-08  0.4043E-11  0.4815E-11  0.1354E-11  0.4123E-11  0.4692E-06  0.4671E-06  0.1354E-11  0.4123E-11  0.7984E-08  0.8247E-08
    -39.656  0.3687E+01  0.3687E+01  0.6879E-07  0.6919E-07  0.5275E-10  0.4749E-10  0.6879E-07  0.6919E-07  0.4028E-10  0.4837E-10  0.1335E-10  0.4060E-10  0.4641E-05  0.4615E-05  0.1335E-10  0.4060E-10  0.7942E-07  0.8196E-07
    -39.463  0.1066E+01  0.1065E+01  0.1987E-07  0.1996E-07  0.1471E-10  0.1327E-10  0.1987E-07  0.1996E-07  0.1168E-10  0.1417E-10  0.3824E-11  0.1161E-10  0.1336E-05  0.1326E-05  0.3824E-11  0.1161E-10  0.2298E-07  0.2369E-07
    -39.271  0.0000E+00  0.0000E+00  0.0000E+00  0.0000E+00  0.0000E+00  0.0000E+00  0.0000E+00  0.0000E+00  0.0000E+00  0.0000E+00  0.0000E+00  0.0000E+00  0.0000E+00  0.0000E+00  0.0000E+00  0.0000E+00  0.0000E+00  0.0000E+00
    -39.079  0.0000E+00  0.0000E+00  0.0000E+00  0.0000E+00  0.0000E+00  0.0000E+00  0.0000E+00  0.0000E+00  0.0000E+00  0.0000E+00  0.0000E+00  0.0000E+00  0.0000E+00  0.0000E+00  0.0000E+00  0.0000E+00  0.0000E+00  0.0000E+00
    -38.887  0.0000E+00  0.0000E+00  0.0000E+00  0.0000E+00  0.0000E+00  0.0000E+00  0.0000E+00  0.0000E+00  0.0000E+00  0.0000E+00  0.0000E+00  0.0000E+00  0.0000E+00  0.0000E+00  0.0000E+00  0.0000E+00  0.0000E+00  0.0000E+00
    -38.694  0.0000E+00  0.0000E+00  0.0000E+00  0.0000E+00  0.0000E+00  0.0000E+00  0.0000E+00  0.0000E+00  0.0000E+00  0.0000E+00  0.0000E+00  0.0000E+00  0.0000E+00  0.0000E+00  0.0000E+00  0.0000E+00  0.0000E+00  0.0000E+00
    -38.502  0.0000E+00  0.0000E+00  0.0000E+00  0.0000E+00  0.0000E+00  0.0000E+00  0.0000E+00  0.0000E+00  0.0000E+00  0.0000E+00  0.0000E+00  0.0000E+00  0.0000E+00  0.0000E+00  0.0000E+00  0.0000E+00  0.0000E+00  0.0000E+00
    -38.310  0.0000E+00  0.0000E+00  0.0000E+00  0.0000E+00  0.0000E+00  0.0000E+00  0.0000E+00  0.0000E+00  0.0000E+00  0.0000E+00  0.0000E+00  0.0000E+00  0.0000E+00  0.0000E+00  0.0000E+00  0.0000E+00  0.0000E+00  0.0000E+00
    -38.117  0.0000E+00  0.0000E+00  0.0000E+00  0.0000E+00  0.0000E+00  0.0000E+00  0.0000E+00  0.0000E+00  0.0000E+00  0.0000E+00  0.0000E+00  0.0000E+00  0.0000E+00  0.0000E+00  0.0000E+00  0.0000E+00  0.0000E+00  0.0000E+00
    -37.925  0.0000E+00  0.0000E+00  0.0000E+00  0.0000E+00  0.0000E+00  0.0000E+00  0.0000E+00  0.0000E+00  0.0000E+00  0.0000E+00  0.0000E+00  0.0000E+00  0.0000E+00  0.0000E+00  0.0000E+00  0.0000E+00  0.0000E+00  0.0000E+00
    -37.733  0.0000E+00  0.0000E+00  0.0000E+00  0.0000E+00  0.0000E+00  0.0000E+00  0.0000E+00  0.0000E+00  0.0000E+00  0.0000E+00  0.0000E+00  0.0000E+00  0.0000E+00  0.0000E+00  0.0000E+00  0.0000E+00  0.0000E+00  0.0000E+00
    -37.541  0.0000E+00  0.0000E+00  0.0000E+00  0.0000E+00  0.0000E+00  0.0000E+00  0.0000E+00  0.0000E+00  0.0000E+00  0.0000E+00  0.0000E+00  0.0000E+00  0.0000E+00  0.0000E+00  0.0000E+00  0.0000E+00  0.0000E+00  0.0000E+00
    -37.348  0.0000E+00  0.0000E+00  0.0000E+00  0.0000E+00  0.0000E+00  0.0000E+00  0.0000E+00  0.0000E+00  0.0000E+00  0.0000E+00  0.0000E+00  0.0000E+00  0.0000E+00  0.0000E+00  0.0000E+00  0.0000E+00  0.0000E+00  0.0000E+00
    -37.156  0.0000E+00  0.0000E+00  0.0000E+00  0.0000E+00  0.0000E+00  0.0000E+00  0.0000E+00  0.0000E+00  0.0000E+00  0.0000E+00  0.0000E+00  0.0000E+00  0.0000E+00  0.0000E+00  0.0000E+00  0.0000E+00  0.0000E+00  0.0000E+00
    -36.964  0.0000E+00  0.0000E+00  0.0000E+00  0.0000E+00  0.0000E+00  0.0000E+00  0.0000E+00  0.0000E+00  0.0000E+00  0.0000E+00  0.0000E+00  0.0000E+00  0.0000E+00  0.0000E+00  0.0000E+00  0.0000E+00  0.0000E+00  0.0000E+00
    -36.772  0.0000E+00  0.0000E+00  0.0000E+00  0.0000E+00  0.0000E+00  0.0000E+00  0.0000E+00  0.0000E+00  0.0000E+00  0.0000E+00  0.0000E+00  0.0000E+00  0.0000E+00  0.0000E+00  0.0000E+00  0.0000E+00  0.0000E+00  0.0000E+00
    -36.579  0.0000E+00  0.0000E+00  0.0000E+00  0.0000E+00  0.0000E+00  0.0000E+00  0.0000E+00  0.0000E+00  0.0000E+00  0.0000E+00  0.0000E+00  0.0000E+00  0.0000E+00  0.0000E+00  0.0000E+00  0.0000E+00  0.0000E+00  0.0000E+00
    -36.387  0.0000E+00  0.0000E+00  0.0000E+00  0.0000E+00  0.0000E+00  0.0000E+00  0.0000E+00  0.0000E+00  0.0000E+00  0.0000E+00  0.0000E+00  0.0000E+00  0.0000E+00  0.0000E+00  0.0000E+00  0.0000E+00  0.0000E+00  0.0000E+00
    -36.195  0.0000E+00  0.0000E+00  0.0000E+00  0.0000E+00  0.0000E+00  0.0000E+00  0.0000E+00  0.0000E+00  0.0000E+00  0.0000E+00  0.0000E+00  0.0000E+00  0.0000E+00  0.0000E+00  0.0000E+00  0.0000E+00  0.0000E+00  0.0000E+00
    -36.002  0.0000E+00  0.0000E+00  0.0000E+00  0.0000E+00  0.0000E+00  0.0000E+00  0.0000E+00  0.0000E+00  0.0000E+00  0.0000E+00  0.0000E+00  0.0000E+00  0.0000E+00  0.0000E+00  0.0000E+00  0.0000E+00  0.0000E+00  0.0000E+00
    -35.810  0.0000E+00  0.0000E+00  0.0000E+00  0.0000E+00  0.0000E+00  0.0000E+00  0.0000E+00  0.0000E+00  0.0000E+00  0.0000E+00  0.0000E+00  0.0000E+00  0.0000E+00  0.0000E+00  0.0000E+00  0.0000E+00  0.0000E+00  0.0000E+00
    -35.618  0.0000E+00  0.0000E+00  0.0000E+00  0.0000E+00  0.0000E+00  0.0000E+00  0.0000E+00  0.0000E+00  0.0000E+00  0.0000E+00  0.0000E+00  0.0000E+00  0.0000E+00  0.0000E+00  0.0000E+00  0.0000E+00  0.0000E+00  0.0000E+00
    -35.426  0.0000E+00  0.0000E+00  0.0000E+00  0.0000E+00  0.0000E+00  0.0000E+00  0.0000E+00  0.0000E+00  0.0000E+00  0.0000E+00  0.0000E+00  0.0000E+00  0.0000E+00  0.0000E+00  0.0000E+00  0.0000E+00  0.0000E+00  0.0000E+00
    -35.233  0.0000E+00  0.0000E+00  0.0000E+00  0.0000E+00  0.0000E+00  0.0000E+00  0.0000E+00  0.0000E+00  0.0000E+00  0.0000E+00  0.0000E+00  0.0000E+00  0.0000E+00  0.0000E+00  0.0000E+00  0.0000E+00  0.0000E+00  0.0000E+00
    -35.041  0.0000E+00  0.0000E+00  0.0000E+00  0.0000E+00  0.0000E+00  0.0000E+00  0.0000E+00  0.0000E+00  0.0000E+00  0.0000E+00  0.0000E+00  0.0000E+00  0.0000E+00  0.0000E+00  0.0000E+00  0.0000E+00  0.0000E+00  0.0000E+00
    -34.849  0.0000E+00  0.0000E+00  0.0000E+00  0.0000E+00  0.0000E+00  0.0000E+00  0.0000E+00  0.0000E+00  0.0000E+00  0.0000E+00  0.0000E+00  0.0000E+00  0.0000E+00  0.0000E+00  0.0000E+00  0.0000E+00  0.0000E+00  0.0000E+00
    -34.657  0.0000E+00  0.0000E+00  0.0000E+00  0.0000E+00  0.0000E+00  0.0000E+00  0.0000E+00  0.0000E+00  0.0000E+00  0.0000E+00  0.0000E+00  0.0000E+00  0.0000E+00  0.0000E+00  0.0000E+00  0.0000E+00  0.0000E+00  0.0000E+00
    -34.464  0.0000E+00  0.0000E+00  0.0000E+00  0.0000E+00  0.0000E+00  0.0000E+00  0.0000E+00  0.0000E+00  0.0000E+00  0.0000E+00  0.0000E+00  0.0000E+00  0.0000E+00  0.0000E+00  0.0000E+00  0.0000E+00  0.0000E+00  0.0000E+00
    -34.272  0.0000E+00  0.0000E+00  0.0000E+00  0.0000E+00  0.0000E+00  0.0000E+00  0.0000E+00  0.0000E+00  0.0000E+00  0.0000E+00  0.0000E+00  0.0000E+00  0.0000E+00  0.0000E+00  0.0000E+00  0.0000E+00  0.0000E+00  0.0000E+00
    -34.080  0.0000E+00  0.0000E+00  0.0000E+00  0.0000E+00  0.0000E+00  0.0000E+00  0.0000E+00  0.0000E+00  0.0000E+00  0.0000E+00  0.0000E+00  0.0000E+00  0.0000E+00  0.0000E+00  0.0000E+00  0.0000E+00  0.0000E+00  0.0000E+00
    -33.887  0.0000E+00  0.0000E+00  0.0000E+00  0.0000E+00  0.0000E+00  0.0000E+00  0.0000E+00  0.0000E+00  0.0000E+00  0.0000E+00  0.0000E+00  0.0000E+00  0.0000E+00  0.0000E+00  0.0000E+00  0.0000E+00  0.0000E+00  0.0000E+00
    -33.695  0.0000E+00  0.0000E+00  0.0000E+00  0.0000E+00  0.0000E+00  0.0000E+00  0.0000E+00  0.0000E+00  0.0000E+00  0.0000E+00  0.0000E+00  0.0000E+00  0.0000E+00  0.0000E+00  0.0000E+00  0.0000E+00  0.0000E+00  0.0000E+00
    -33.503  0.0000E+00  0.0000E+00  0.0000E+00  0.0000E+00  0.0000E+00  0.0000E+00  0.0000E+00  0.0000E+00  0.0000E+00  0.0000E+00  0.0000E+00  0.0000E+00  0.0000E+00  0.0000E+00  0.0000E+00  0.0000E+00  0.0000E+00  0.0000E+00
    -33.311  0.0000E+00  0.0000E+00  0.0000E+00  0.0000E+00  0.0000E+00  0.0000E+00  0.0000E+00  0.0000E+00  0.0000E+00  0.0000E+00  0.0000E+00  0.0000E+00  0.0000E+00  0.0000E+00  0.0000E+00  0.0000E+00  0.0000E+00  0.0000E+00
    -33.118  0.0000E+00  0.0000E+00  0.0000E+00  0.0000E+00  0.0000E+00  0.0000E+00  0.0000E+00  0.0000E+00  0.0000E+00  0.0000E+00  0.0000E+00  0.0000E+00  0.0000E+00  0.0000E+00  0.0000E+00  0.0000E+00  0.0000E+00  0.0000E+00
    -32.926  0.0000E+00  0.0000E+00  0.0000E+00  0.0000E+00  0.0000E+00  0.0000E+00  0.0000E+00  0.0000E+00  0.0000E+00  0.0000E+00  0.0000E+00  0.0000E+00  0.0000E+00  0.0000E+00  0.0000E+00  0.0000E+00  0.0000E+00  0.0000E+00
    -32.734  0.0000E+00  0.0000E+00  0.0000E+00  0.0000E+00  0.0000E+00  0.0000E+00  0.0000E+00  0.0000E+00  0.0000E+00  0.0000E+00  0.0000E+00  0.0000E+00  0.0000E+00  0.0000E+00  0.0000E+00  0.0000E+00  0.0000E+00  0.0000E+00