   8   8   1   0
  0.1516361E+02  0.3762040E-09  0.3762040E-09  0.8571280E-09  0.5000000E-15
  1.000000000000000E-004
  CAR 
 unknown system                          
     17.17772937    -40.58037150  301      9.64429506      1.00000000
    -40.580  0.0000E+00  0.0000E+00  0.0000E+00  0.0000E+00
    -40.388  0.0000E+00  0.0000E+00  0.0000E+00  0.0000E+00
    -40.195  0.0000E+00  0.0000E+00  0.0000E+00  0.0000E+00
    -40.003  0.0000E+00  0.0000E+00  0.0000E+00  0.0000E+00
    -39.810  0.0000E+00  0.0000E+00  0.0000E+00  0.0000E+00
    -39.618  0.0000E+00  0.0000E+00  0.0000E+00  0.0000E+00
    -39.425  0.0000E+00  0.0000E+00  0.0000E+00  0.0000E+00
    -39.233  0.0000E+00  0.0000E+00  0.0000E+00  0.0000E+00
    -39.040  0.0000E+00  0.0000E+00  0.0000E+00  0.0000E+00
    -38.848  0.0000E+00  0.0000E+00  0.0000E+00  0.0000E+00
    -38.655  0.0000E+00  0.0000E+00  0.0000E+00  0.0000E+00
    -38.463  0.3447E-03  0.3438E-03  0.6636E-04  0.6619E-04
    -38.270  0.1584E-01  0.1580E-01  0.3115E-02  0.3107E-02
    -38.078  0.6935E+00  0.6918E+00  0.1366E+00  0.1363E+00
    -37.885  0.7335E+01  0.7332E+01  0.1549E+01  0.1548E+01
    -37.692  0.2279E+01  0.2284E+01  0.1988E+01  0.1988E+01
    -37.500  0.0000E+00  0.0000E+00  0.2000E+01  0.2000E+01
    -37.307  0.0000E+00  0.0000E+00  0.2000E+01  0.2000E+01
    -37.115  0.0000E+00  0.0000E+00  0.2000E+01  0.2000E+01
    -36.922  0.0000E+00  0.0000E+00  0.2000E+01  0.2000E+01
    -36.730  0.0000E+00  0.0000E+00  0.2000E+01  0.2000E+01
    -36.537  0.0000E+00  0.0000E+00  0.2000E+01  0.2000E+01
    -36.345  0.0000E+00  0.0000E+00  0.2000E+01  0.2000E+01
    -36.152  0.0000E+00  0.0000E+00  0.2000E+01  0.2000E+01
    -35.960  0.0000E+00  0.0000E+00  0.2000E+01  0.2000E+01
    -35.767  0.0000E+00  0.0000E+00  0.2000E+01  0.2000E+01
    -35.575  0.0000E+00  0.0000E+00  0.2000E+01  0.2000E+01
    -35.382  0.0000E+00  0.0000E+00  0.2000E+01  0.2000E+01
    -35.190  0.0000E+00  0.0000E+00  0.2000E+01  0.2000E+01
    -34.997  0.0000E+00  0.0000E+00  0.2000E+01  0.2000E+01
    -34.805  0.0000E+00  0.0000E+00  0.2000E+01  0.2000E+01
    -34.612  0.0000E+00  0.0000E+00  0.2000E+01  0.2000E+01
    -34.420  0.0000E+00  0.0000E+00  0.2000E+01  0.2000E+01
    -34.227  0.0000E+00  0.0000E+00  0.2000E+01  0.2000E+01
    -34.034  0.0000E+00  0.0000E+00  0.2000E+01  0.2000E+01
    -33.842  0.0000E+00  0.0000E+00  0.2000E+01  0.2000E+01
    -33.649  0.0000E+00  0.0000E+00  0.2000E+01  0.2000E+01
    -33.457  0.0000E+00  0.0000E+00  0.2000E+01  0.2000E+01
    -33.264  0.0000E+00  0.0000E+00  0.2000E+01  0.2000E+01
    -33.072  0.0000E+00  0.0000E+00  0.2000E+01  0.2000E+01
    -32.879  0.0000E+00  0.0000E+00  0.2000E+01  0.2000E+01
    -32.687  0.0000E+00  0.0000E+00  0.2000E+01  0.2000E+01
    -32.494  0.0000E+00  0.0000E+00  0.2000E+01  0.2000E+01
    -32.302  0.0000E+00  0.0000E+00  0.2000E+01  0.2000E+01
    -32.109  0.0000E+00  0.0000E+00  0.2000E+01  0.2000E+01
    -31.917  0.0000E+00  0.0000E+00  0.2000E+01  0.2000E+01
    -31.724  0.0000E+00  0.0000E+00  0.2000E+01  0.2000E+01
    -31.532  0.0000E+00  0.0000E+00  0.2000E+01  0.2000E+01
    -31.339  0.0000E+00  0.0000E+00  0.2000E+01  0.2000E+01
    -31.147  0.0000E+00  0.0000E+00  0.2000E+01  0.2000E+01
    -30.954  0.0000E+00  0.0000E+00  0.2000E+01  0.2000E+01
    -30.761  0.0000E+00  0.0000E+00  0.2000E+01  0.2000E+01
    -30.569  0.0000E+00  0.0000E+00  0.2000E+01  0.2000E+01
    -30.376  0.0000E+00  0.0000E+00  0.2000E+01  0.2000E+01
    -30.184  0.0000E+00  0.0000E+00  0.2000E+01  0.2000E+01
    -29.991  0.0000E+00  0.0000E+00  0.2000E+01  0.2000E+01
    -29.799  0.0000E+00  0.0000E+00  0.2000E+01  0.2000E+01
    -29.606  0.0000E+00  0.0000E+00  0.2000E+01  0.2000E+01
    -29.414  0.0000E+00  0.0000E+00  0.2000E+01  0.2000E+01
    -29.221  0.0000E+00  0.0000E+00  0.2000E+01  0.2000E+01
    -29.029  0.0000E+00  0.0000E+00  0.2000E+01  0.2000E+01
    -28.836  0.0000E+00  0.0000E+00  0.2000E+01  0.2000E+01
    -28.644  0.0000E+00  0.0000E+00  0.2000E+01  0.2000E+01
    -28.451  0.0000E+00  0.0000E+00  0.2000E+01  0.2000E+01
    -28.259  0.0000E+00  0.0000E+00  0.2000E+01  0.2000E+01
    -28.066  0.0000E+00  0.0000E+00  0.2000E+01  0.2000E+01
    -27.874  0.0000E+00  0.0000E+00  0.2000E+01  0.2000E+01
    -27.681  0.0000E+00  0.0000E+00  0.2000E+01  0.2000E+01
    -27.489  0.0000E+00  0.0000E+00  0.2000E+01  0.2000E+01
    -27.296  0.0000E+00  0.0000E+00  0.2000E+01  0.2000E+01
    -27.103  0.0000E+00  0.0000E+00  0.2000E+01  0.2000E+01
    -26.911  0.0000E+00  0.0000E+00  0.2000E+01  0.2000E+01
    -26.718  0.0000E+00  0.0000E+00  0.2000E+01  0.2000E+01
    -26.526  0.0000E+00  0.0000E+00  0.2000E+01  0.2000E+01
    -26.333  0.0000E+00  0.0000E+00  0.2000E+01  0.2000E+01
    -26.141  0.0000E+00  0.0000E+00  0.2000E+01  0.2000E+01
    -25.948  0.0000E+00  0.0000E+00  0.2000E+01  0.2000E+01
    -25.756  0.0000E+00  0.0000E+00  0.2000E+01  0.2000E+01
    -25.563  0.0000E+00  0.0000E+00  0.2000E+01  0.2000E+01
    -25.371  0.0000E+00  0.0000E+00  0.2000E+01  0.2000E+01
    -25.178  0.0000E+00  0.0000E+00  0.2000E+01  0.2000E+01
    -24.986  0.0000E+00  0.0000E+00  0.2000E+01  0.2000E+01
    -24.793  0.0000E+00  0.0000E+00  0.2000E+01  0.2000E+01
    -24.601  0.0000E+00  0.0000E+00  0.2000E+01  0.2000E+01
    -24.408  0.0000E+00  0.0000E+00  0.2000E+01  0.2000E+01
    -24.216  0.0000E+00  0.0000E+00  0.2000E+01  0.2000E+01
    -24.023  0.0000E+00  0.0000E+00  0.2000E+01  0.2000E+01
    -23.831  0.0000E+00  0.0000E+00  0.2000E+01  0.2000E+01
    -23.638  0.0000E+00  0.0000E+00  0.2000E+01  0.2000E+01
    -23.445  0.0000E+00  0.0000E+00  0.2000E+01  0.2000E+01
    -23.253  0.0000E+00  0.0000E+00  0.2000E+01  0.2000E+01
    -23.060  0.0000E+00  0.0000E+00  0.2000E+01  0.2000E+01
    -22.868  0.0000E+00  0.0000E+00  0.2000E+01  0.2000E+01
    -22.675  0.0000E+00  0.0000E+00  0.2000E+01  0.2000E+01
    -22.483  0.0000E+00  0.0000E+00  0.2000E+01  0.2000E+01
    -22.290  0.0000E+00  0.0000E+00  0.2000E+01  0.2000E+01
    -22.098  0.0000E+00  0.0000E+00  0.2000E+01  0.2000E+01
    -21.905  0.0000E+00  0.0000E+00  0.2000E+01  0.2000E+01
    -21.713  0.0000E+00  0.0000E+00  0.2000E+01  0.2000E+01
    -21.520  0.0000E+00  0.0000E+00  0.2000E+01  0.2000E+01
    -21.328  0.0000E+00  0.0000E+00  0.2000E+01  0.2000E+01
    -21.135  0.0000E+00  0.0000E+00  0.2000E+01  0.2000E+01
    -20.943  0.0000E+00  0.0000E+00  0.2000E+01  0.2000E+01
    -20.750  0.0000E+00  0.0000E+00  0.2000E+01  0.2000E+01
    -20.558  0.0000E+00  0.0000E+00  0.2000E+01  0.2000E+01
    -20.365  0.0000E+00  0.0000E+00  0.2000E+01  0.2000E+01
    -20.173  0.0000E+00  0.0000E+00  0.2000E+01  0.2000E+01
    -19.980  0.0000E+00  0.0000E+00  0.2000E+01  0.2000E+01
    -19.787  0.0000E+00  0.0000E+00  0.2000E+01  0.2000E+01
    -19.595  0.0000E+00  0.0000E+00  0.2000E+01  0.2000E+01
    -19.402  0.0000E+00  0.0000E+00  0.2000E+01  0.2000E+01
    -19.210  0.0000E+00  0.0000E+00  0.2000E+01  0.2000E+01
    -19.017  0.0000E+00  0.0000E+00  0.2000E+01  0.2000E+01
    -18.825  0.0000E+00  0.0000E+00  0.2000E+01  0.2000E+01
    -18.632  0.0000E+00  0.0000E+00  0.2000E+01  0.2000E+01
    -18.440  0.0000E+00  0.0000E+00  0.2000E+01  0.2000E+01
    -18.247  0.0000E+00  0.0000E+00  0.2000E+01  0.2000E+01
    -18.055  0.0000E+00  0.0000E+00  0.2000E+01  0.2000E+01
    -17.862  0.0000E+00  0.0000E+00  0.2000E+01  0.2000E+01
    -17.670  0.0000E+00  0.0000E+00  0.2000E+01  0.2000E+01
    -17.477  0.0000E+00  0.0000E+00  0.2000E+01  0.2000E+01
    -17.285  0.0000E+00  0.0000E+00  0.2000E+01  0.2000E+01
    -17.092  0.0000E+00  0.0000E+00  0.2000E+01  0.2000E+01
    -16.900  0.5668E-05  0.5635E-05  0.2000E+01  0.2000E+01
    -16.707  0.2284E-02  0.2271E-02  0.2000E+01  0.2000E+01
    -16.514  0.1052E+00  0.1046E+00  0.2021E+01  0.2021E+01
    -16.322  0.3545E+01  0.3531E+01  0.2703E+01  0.2700E+01
    -16.129  0.1806E+02  0.1804E+02  0.6180E+01  0.6174E+01
    -15.937  0.9076E+01  0.9106E+01  0.7928E+01  0.7927E+01
    -15.744  0.2604E+00  0.2626E+00  0.7999E+01  0.7999E+01
    -15.552  0.0000E+00  0.0000E+00  0.8000E+01  0.8000E+01
    -15.359  0.0000E+00  0.0000E+00  0.8000E+01  0.8000E+01
    -15.167  0.0000E+00  0.0000E+00  0.8000E+01  0.8000E+01
    -14.974  0.0000E+00  0.0000E+00  0.8000E+01  0.8000E+01
    -14.782  0.0000E+00  0.0000E+00  0.8000E+01  0.8000E+01
    -14.589  0.0000E+00  0.0000E+00  0.8000E+01  0.8000E+01
    -14.397  0.0000E+00  0.0000E+00  0.8000E+01  0.8000E+01
    -14.204  0.0000E+00  0.0000E+00  0.8000E+01  0.8000E+01
    -14.012  0.0000E+00  0.0000E+00  0.8000E+01  0.8000E+01
    -13.819  0.0000E+00  0.0000E+00  0.8000E+01  0.8000E+01
    -13.627  0.0000E+00  0.0000E+00  0.8000E+01  0.8000E+01
    -13.434  0.0000E+00  0.0000E+00  0.8000E+01  0.8000E+01
    -13.242  0.0000E+00  0.0000E+00  0.8000E+01  0.8000E+01
    -13.049  0.0000E+00  0.0000E+00  0.8000E+01  0.8000E+01
    -12.856  0.0000E+00  0.0000E+00  0.8000E+01  0.8000E+01
    -12.664  0.0000E+00  0.0000E+00  0.8000E+01  0.8000E+01
    -12.471  0.0000E+00  0.0000E+00  0.8000E+01  0.8000E+01
    -12.279  0.0000E+00  0.0000E+00  0.8000E+01  0.8000E+01
    -12.086  0.0000E+00  0.0000E+00  0.8000E+01  0.8000E+01
    -11.894  0.0000E+00  0.0000E+00  0.8000E+01  0.8000E+01
    -11.701  0.0000E+00  0.0000E+00  0.8000E+01  0.8000E+01
    -11.509  0.0000E+00  0.0000E+00  0.8000E+01  0.8000E+01
    -11.316  0.0000E+00  0.0000E+00  0.8000E+01  0.8000E+01
    -11.124  0.0000E+00  0.0000E+00  0.8000E+01  0.8000E+01
    -10.931  0.0000E+00  0.0000E+00  0.8000E+01  0.8000E+01
    -10.739  0.0000E+00  0.0000E+00  0.8000E+01  0.8000E+01
    -10.546  0.0000E+00  0.0000E+00  0.8000E+01  0.8000E+01
    -10.354  0.0000E+00  0.0000E+00  0.8000E+01  0.8000E+01
    -10.161  0.0000E+00  0.0000E+00  0.8000E+01  0.8000E+01
     -9.969  0.0000E+00  0.0000E+00  0.8000E+01  0.8000E+01
     -9.776  0.0000E+00  0.0000E+00  0.8000E+01  0.8000E+01
     -9.584  0.0000E+00  0.0000E+00  0.8000E+01  0.8000E+01
     -9.391  0.0000E+00  0.0000E+00  0.8000E+01  0.8000E+01
     -9.198  0.0000E+00  0.0000E+00  0.8000E+01  0.8000E+01
     -9.006  0.0000E+00  0.0000E+00  0.8000E+01  0.8000E+01
     -8.813  0.0000E+00  0.0000E+00  0.8000E+01  0.8000E+01
     -8.621  0.0000E+00  0.0000E+00  0.8000E+01  0.8000E+01
     -8.428  0.0000E+00  0.0000E+00  0.8000E+01  0.8000E+01
     -8.236  0.0000E+00  0.0000E+00  0.8000E+01  0.8000E+01
     -8.043  0.0000E+00  0.0000E+00  0.8000E+01  0.8000E+01
     -7.851  0.0000E+00  0.0000E+00  0.8000E+01  0.8000E+01
     -7.658  0.0000E+00  0.0000E+00  0.8000E+01  0.8000E+01
     -7.466  0.0000E+00  0.0000E+00  0.8000E+01  0.8000E+01
     -7.273  0.0000E+00  0.0000E+00  0.8000E+01  0.8000E+01
     -7.081  0.0000E+00  0.0000E+00  0.8000E+01  0.8000E+01
     -6.888  0.0000E+00  0.0000E+00  0.8000E+01  0.8000E+01
     -6.696  0.0000E+00  0.0000E+00  0.8000E+01  0.8000E+01
     -6.503  0.0000E+00  0.0000E+00  0.8000E+01  0.8000E+01
     -6.311  0.0000E+00  0.0000E+00  0.8000E+01  0.8000E+01
     -6.118  0.0000E+00  0.0000E+00  0.8000E+01  0.8000E+01
     -5.926  0.0000E+00  0.0000E+00  0.8000E+01  0.8000E+01
     -5.733  0.0000E+00  0.0000E+00  0.8000E+01  0.8000E+01
     -5.540  0.0000E+00  0.0000E+00  0.8000E+01  0.8000E+01
     -5.348  0.0000E+00  0.0000E+00  0.8000E+01  0.8000E+01
     -5.155  0.0000E+00  0.0000E+00  0.8000E+01  0.8000E+01
     -4.963  0.0000E+00  0.0000E+00  0.8000E+01  0.8000E+01
     -4.770  0.0000E+00  0.0000E+00  0.8000E+01  0.8000E+01
     -4.578  0.0000E+00  0.0000E+00  0.8000E+01  0.8000E+01
     -4.385  0.0000E+00  0.0000E+00  0.8000E+01  0.8000E+01
     -4.193  0.0000E+00  0.0000E+00  0.8000E+01  0.8000E+01
     -4.000  0.0000E+00  0.0000E+00  0.8000E+01  0.8000E+01
     -3.808  0.0000E+00  0.0000E+00  0.8000E+01  0.8000E+01
     -3.615  0.0000E+00  0.0000E+00  0.8000E+01  0.8000E+01
     -3.423  0.0000E+00  0.0000E+00  0.8000E+01  0.8000E+01
     -3.230  0.0000E+00  0.0000E+00  0.8000E+01  0.8000E+01
     -3.038  0.0000E+00  0.0000E+00  0.8000E+01  0.8000E+01
     -2.845  0.0000E+00  0.0000E+00  0.8000E+01  0.8000E+01
     -2.653  0.0000E+00  0.0000E+00  0.8000E+01  0.8000E+01
     -2.460  0.0000E+00  0.0000E+00  0.8000E+01  0.8000E+01
     -2.267  0.0000E+00  0.0000E+00  0.8000E+01  0.8000E+01
     -2.075  0.0000E+00  0.0000E+00  0.8000E+01  0.8000E+01
     -1.882  0.0000E+00  0.0000E+00  0.8000E+01  0.8000E+01
     -1.690  0.0000E+00  0.0000E+00  0.8000E+01  0.8000E+01
     -1.497  0.0000E+00  0.0000E+00  0.8000E+01  0.8000E+01
     -1.305  0.0000E+00  0.0000E+00  0.8000E+01  0.8000E+01
     -1.112  0.0000E+00  0.0000E+00  0.8000E+01  0.8000E+01
     -0.920  0.1590E-05  0.1587E-05  0.8000E+01  0.8000E+01
     -0.727  0.8425E-04  0.8411E-04  0.8000E+01  0.8000E+01
     -0.535  0.3673E-02  0.3667E-02  0.8001E+01  0.8001E+01
     -0.342  0.5768E-01  0.5763E-01  0.8012E+01  0.8012E+01
     -0.150  0.1542E+00  0.1541E+00  0.8042E+01  0.8041E+01
      0.043  0.2291E+00  0.2291E+00  0.8086E+01  0.8086E+01
      0.235  0.2736E+00  0.2735E+00  0.8138E+01  0.8138E+01
      0.428  0.3501E+00  0.3501E+00  0.8206E+01  0.8206E+01
      0.620  0.3583E+00  0.3583E+00  0.8275E+01  0.8275E+01
      0.813  0.4429E+00  0.4429E+00  0.8361E+01  0.8361E+01
      1.005  0.4911E+00  0.4911E+00  0.8456E+01  0.8456E+01
      1.198  0.4686E+00  0.4685E+00  0.8546E+01  0.8546E+01
      1.391  0.6616E+00  0.6616E+00  0.8674E+01  0.8674E+01
      1.583  0.6432E+00  0.6431E+00  0.8798E+01  0.8798E+01
      1.776  0.6357E+00  0.6357E+00  0.8921E+01  0.8921E+01
      1.968  0.6507E+00  0.6507E+00  0.9047E+01  0.9047E+01
      2.161  0.7905E+00  0.7905E+00  0.9199E+01  0.9199E+01
      2.353  0.7202E+00  0.7203E+00  0.9339E+01  0.9338E+01
      2.546  0.7588E+00  0.7588E+00  0.9486E+01  0.9486E+01
      2.738  0.8655E+00  0.8654E+00  0.9653E+01  0.9653E+01
      2.931  0.9652E+00  0.9652E+00  0.9839E+01  0.9839E+01
      3.123  0.1031E+01  0.1031E+01  0.1004E+02  0.1004E+02
      3.316  0.1065E+01  0.1064E+01  0.1024E+02  0.1024E+02
      3.508  0.1282E+01  0.1281E+01  0.1049E+02  0.1049E+02
      3.701  0.1186E+01  0.1185E+01  0.1072E+02  0.1072E+02
      3.893  0.9952E+00  0.9954E+00  0.1091E+02  0.1091E+02
      4.086  0.8535E+00  0.8533E+00  0.1108E+02  0.1108E+02
      4.278  0.9529E+00  0.9530E+00  0.1126E+02  0.1126E+02
      4.471  0.8019E+00  0.8019E+00  0.1142E+02  0.1142E+02
      4.663  0.8500E+00  0.8498E+00  0.1158E+02  0.1158E+02
      4.856  0.9485E+00  0.9486E+00  0.1177E+02  0.1177E+02
      5.049  0.9958E+00  0.9958E+00  0.1196E+02  0.1196E+02
      5.241  0.1264E+01  0.1264E+01  0.1220E+02  0.1220E+02
      5.434  0.1459E+01  0.1459E+01  0.1248E+02  0.1248E+02
      5.626  0.1360E+01  0.1360E+01  0.1275E+02  0.1275E+02
      5.819  0.1452E+01  0.1452E+01  0.1303E+02  0.1303E+02
      6.011  0.1297E+01  0.1297E+01  0.1328E+02  0.1328E+02
      6.204  0.9784E+00  0.9783E+00  0.1347E+02  0.1347E+02
      6.396  0.1277E+01  0.1277E+01  0.1371E+02  0.1371E+02
      6.589  0.1228E+01  0.1228E+01  0.1395E+02  0.1395E+02
      6.781  0.1261E+01  0.1260E+01  0.1419E+02  0.1419E+02
      6.974  0.1858E+01  0.1858E+01  0.1455E+02  0.1455E+02
      7.166  0.1619E+01  0.1619E+01  0.1487E+02  0.1487E+02
      7.359  0.1624E+01  0.1624E+01  0.1518E+02  0.1518E+02
      7.551  0.1784E+01  0.1784E+01  0.1553E+02  0.1553E+02
      7.744  0.1926E+01  0.1926E+01  0.1590E+02  0.1590E+02
      7.936  0.1987E+01  0.1987E+01  0.1628E+02  0.1628E+02
      8.129  0.3075E+01  0.3074E+01  0.1688E+02  0.1687E+02
      8.321  0.3911E+01  0.3911E+01  0.1763E+02  0.1763E+02
      8.514  0.3491E+01  0.3491E+01  0.1831E+02  0.1830E+02
      8.707  0.2881E+01  0.2881E+01  0.1886E+02  0.1886E+02
      8.899  0.2903E+01  0.2902E+01  0.1942E+02  0.1942E+02
      9.092  0.2885E+01  0.2884E+01  0.1998E+02  0.1998E+02
      9.284  0.2367E+01  0.2368E+01  0.2044E+02  0.2044E+02
      9.477  0.1659E+01  0.1659E+01  0.2076E+02  0.2076E+02
      9.669  0.1382E+01  0.1383E+01  0.2103E+02  0.2103E+02
      9.862  0.1020E+01  0.1021E+01  0.2123E+02  0.2123E+02
     10.054  0.1029E+01  0.1029E+01  0.2143E+02  0.2143E+02
     10.247  0.8339E+00  0.8342E+00  0.2159E+02  0.2159E+02
     10.439  0.8360E+00  0.8369E+00  0.2175E+02  0.2175E+02
     10.632  0.7740E+00  0.7739E+00  0.2190E+02  0.2190E+02
     10.824  0.7350E+00  0.7357E+00  0.2204E+02  0.2204E+02
     11.017  0.4257E+00  0.4256E+00  0.2212E+02  0.2212E+02
     11.209  0.9349E+00  0.9342E+00  0.2230E+02  0.2230E+02
     11.402  0.1426E+01  0.1425E+01  0.2258E+02  0.2258E+02
     11.594  0.1586E+01  0.1586E+01  0.2289E+02  0.2289E+02
     11.787  0.1732E+01  0.1732E+01  0.2322E+02  0.2322E+02
     11.980  0.2094E+01  0.2093E+01  0.2362E+02  0.2362E+02
     12.172  0.2580E+01  0.2579E+01  0.2412E+02  0.2412E+02
     12.365  0.2674E+01  0.2670E+01  0.2464E+02  0.2464E+02
     12.557  0.2529E+01  0.2524E+01  0.2513E+02  0.2513E+02
     12.750  0.2391E+01  0.2401E+01  0.2559E+02  0.2559E+02
     12.942  0.2185E+01  0.2203E+01  0.2601E+02  0.2602E+02
     13.135  0.2322E+01  0.2355E+01  0.2646E+02  0.2647E+02
     13.327  0.2454E+01  0.2521E+01  0.2694E+02  0.2696E+02
     13.520  0.2234E+01  0.2345E+01  0.2737E+02  0.2741E+02
     13.712  0.1706E+01  0.1689E+01  0.2770E+02  0.2774E+02
     13.905  0.6755E+00  0.6615E+00  0.2783E+02  0.2787E+02
     14.097  0.5765E+00  0.4182E+00  0.2794E+02  0.2795E+02
     14.290  0.2008E+00  0.1842E+00  0.2798E+02  0.2799E+02
     14.482  0.5368E-01  0.5964E-01  0.2799E+02  0.2800E+02
     14.675  0.3911E-01  0.1240E-01  0.2800E+02  0.2800E+02
     14.867  0.3039E-02  0.2696E-03  0.2800E+02  0.2800E+02
     15.060  0.0000E+00  0.0000E+00  0.2800E+02  0.2800E+02
     15.252  0.0000E+00  0.0000E+00  0.2800E+02  0.2800E+02
     15.445  0.0000E+00  0.0000E+00  0.2800E+02  0.2800E+02
     15.638  0.0000E+00  0.0000E+00  0.2800E+02  0.2800E+02
     15.830  0.0000E+00  0.0000E+00  0.2800E+02  0.2800E+02
     16.023  0.0000E+00  0.0000E+00  0.2800E+02  0.2800E+02
     16.215  0.0000E+00  0.0000E+00  0.2800E+02  0.2800E+02
     16.408  0.0000E+00  0.0000E+00  0.2800E+02  0.2800E+02
     16.600  0.0000E+00  0.0000E+00  0.2800E+02  0.2800E+02
     16.793  0.0000E+00  0.0000E+00  0.2800E+02  0.2800E+02
     16.985  0.0000E+00  0.0000E+00  0.2800E+02  0.2800E+02
     17.178  0.0000E+00  0.0000E+00  0.2800E+02  0.2800E+02
     17.17772937    -40.58037150  301      9.64429506      1.00000000
    -40.580  0.0000E+00  0.0000E+00  0.0000E+00  0.0000E+00  0.0000E+00  0.0000E+00  0.0000E+00  0.0000E+00  0.0000E+00  0.0000E+00  0.0000E+00  0.0000E+00  0.0000E+00  0.0000E+00  0.0000E+00  0.0000E+00  0.0000E+00  0.0000E+00
    -40.388  0.0000E+00  0.0000E+00  0.0000E+00  0.0000E+00  0.0000E+00  0.0000E+00  0.0000E+00  0.0000E+00  0.0000E+00  0.0000E+00  0.0000E+00  0.0000E+00  0.0000E+00  0.0000E+00  0.0000E+00  0.0000E+00  0.0000E+00  0.0000E+00
    -40.195  0.0000E+00  0.0000E+00  0.0000E+00  0.0000E+00  0.0000E+00  0.0000E+00  0.0000E+00  0.0000E+00  0.0000E+00  0.0000E+00  0.0000E+00  0.0000E+00  0.0000E+00  0.0000E+00  0.0000E+00  0.0000E+00  0.0000E+00  0.0000E+00
    -40.003  0.0000E+00  0.0000E+00  0.0000E+00  0.0000E+00  0.0000E+00  0.0000E+00  0.0000E+00  0.0000E+00  0.0000E+00  0.0000E+00  0.0000E+00  0.0000E+00  0.0000E+00  0.0000E+00  0.0000E+00  0.0000E+00  0.0000E+00  0.0000E+00
    -39.810  0.0000E+00  0.0000E+00  0.0000E+00  0.0000E+00  0.0000E+00  0.0000E+00  0.0000E+00  0.0000E+00  0.0000E+00  0.0000E+00  0.0000E+00  0.0000E+00  0.0000E+00  0.0000E+00  0.0000E+00  0.0000E+00  0.0000E+00  0.0000E+00
    -39.618  0.0000E+00  0.0000E+00  0.0000E+00  0.0000E+00  0.0000E+00  0.0000E+00  0.0000E+00  0.0000E+00  0.0000E+00  0.0000E+00  0.0000E+00  0.0000E+00  0.0000E+00  0.0000E+00  0.0000E+00  0.0000E+00  0.0000E+00  0.0000E+00
    -39.425  0.0000E+00  0.0000E+00  0.0000E+00  0.0000E+00  0.0000E+00  0.0000E+00  0.0000E+00  0.0000E+00  0.0000E+00  0.0000E+00  0.0000E+00  0.0000E+00  0.0000E+00  0.0000E+00  0.0000E+00  0.0000E+00  0.0000E+00  0.0000E+00
    -39.233  0.0000E+00  0.0000E+00  0.0000E+00  0.0000E+00  0.0000E+00  0.0000E+00  0.0000E+00  0.0000E+00  0.0000E+00  0.0000E+00  0.0000E+00  0.0000E+00  0.0000E+00  0.0000E+00  0.0000E+00  0.0000E+00  0.0000E+00  0.0000E+00
    -39.040  0.0000E+00  0.0000E+00  0.0000E+00  0.0000E+00  0.0000E+00  0.0000E+00  0.0000E+00  0.0000E+00  0.0000E+00  0.0000E+00  0.0000E+00  0.0000E+00  0.0000E+00  0.0000E+00  0.0000E+00  0.0000E+00  0.0000E+00  0.0000E+00
    -38.848  0.0000E+00  0.0000E+00  0.0000E+00  0.0000E+00  0.0000E+00  0.0000E+00  0.0000E+00  0.0000E+00  0.0000E+00  0.0000E+00  0.0000E+00  0.0000E+00  0.0000E+00  0.0000E+00  0.0000E+00  0.0000E+00  0.0000E+00  0.0000E+00
    -38.655  0.0000E+00  0.0000E+00  0.0000E+00  0.0000E+00  0.0000E+00  0.0000E+00  0.0000E+00  0.0000E+00  0.0000E+00  0.0000E+00  0.0000E+00  0.0000E+00  0.0000E+00  0.0000E+00  0.0000E+00  0.0000E+00  0.0000E+00  0.0000E+00
    -38.463  0.1710E-03  0.1706E-03  0.1195E-10  0.1196E-10  0.9380E-14  0.7582E-14  0.1195E-10  0.1196E-10  0.1233E-13  0.1043E-13  0.2437E-14  0.4698E-14  0.3018E-09  0.2989E-09  0.2437E-14  0.4698E-14  0.1354E-10  0.1374E-10
    -38.270  0.7857E-02  0.7837E-02  0.5492E-09  0.5497E-09  0.4309E-12  0.3483E-12  0.5492E-09  0.5497E-09  0.5667E-12  0.4790E-12  0.1120E-12  0.2159E-12  0.1387E-07  0.1373E-07  0.1120E-12  0.2159E-12  0.6222E-09  0.6311E-09
    -38.078  0.3440E+00  0.3432E+00  0.2405E-07  0.2408E-07  0.1876E-10  0.1518E-10  0.2405E-07  0.2408E-07  0.2483E-10  0.2101E-10  0.4910E-11  0.9455E-11  0.6066E-06  0.6007E-06  0.4910E-11  0.9455E-11  0.2726E-07  0.2766E-07
    -37.885  0.3639E+01  0.3638E+01  0.2539E-06  0.2548E-06  0.1863E-09  0.1519E-09  0.2539E-06  0.2548E-06  0.2641E-09  0.2257E-09  0.5251E-10  0.1002E-09  0.6332E-05  0.6283E-05  0.5251E-10  0.1002E-09  0.2895E-06  0.2943E-06
    -37.692  0.1131E+01  0.1133E+01  0.7865E-07  0.7912E-07  0.5360E-10  0.4409E-10  0.7865E-07  0.7912E-07  0.8242E-10  0.7133E-10  0.1648E-10  0.3109E-10  0.1937E-05  0.1926E-05  0.1648E-10  0.3109E-10  0.8999E-07  0.9172E-07
    -37.500  0.0000E+00  0.0000E+00  0.0000E+00  0.0000E+00  0.0000E+00  0.0000E+00  0.0000E+00  0.0000E+00  0.0000E+00  0.0000E+00  0.0000E+00  0.0000E+00  0.0000E+00  0.0000E+00  0.0000E+00  0.0000E+00  0.0000E+00  0.0000E+00
    -37.307  0.0000E+00  0.0000E+00  0.0000E+00  0.0000E+00  0.0000E+00  0.0000E+00  0.0000E+00  0.0000E+00  0.0000E+00  0.0000E+00  0.0000E+00  0.0000E+00  0.0000E+00  0.0000E+00  0.0000E+00  0.0000E+00  0.0000E+00  0.0000E+00
    -37.115  0.0000E+00  0.0000E+00  0.0000E+00  0.0000E+00  0.0000E+00  0.0000E+00  0.0000E+00  0.0000E+00  0.0000E+00  0.0000E+00  0.0000E+00  0.0000E+00  0.0000E+00  0.0000E+00  0.0000E+00  0.0000E+00  0.0000E+00  0.0000E+00
    -36.922  0.0000E+00  0.0000E+00  0.0000E+00  0.0000E+00  0.0000E+00  0.0000E+00  0.0000E+00  0.0000E+00  0.0000E+00  0.0000E+00  0.0000E+00  0.0000E+00  0.0000E+00  0.0000E+00  0.0000E+00  0.0000E+00  0.0000E+00  0.0000E+00
    -36.730  0.0000E+00  0.0000E+00  0.0000E+00  0.0000E+00  0.0000E+00  0.0000E+00  0.0000E+00  0.0000E+00  0.0000E+00  0.0000E+00  0.0000E+00  0.0000E+00  0.0000E+00  0.0000E+00  0.0000E+00  0.0000E+00  0.0000E+00  0.0000E+00
    -36.537  0.0000E+00  0.0000E+00  0.0000E+00  0.0000E+00  0.0000E+00  0.0000E+00  0.0000E+00  0.0000E+00  0.0000E+00  0.0000E+00  0.0000E+00  0.0000E+00  0.0000E+00  0.0000E+00  0.0000E+00  0.0000E+00  0.0000E+00  0.0000E+00
    -36.345  0.0000E+00  0.0000E+00  0.0000E+00  0.0000E+00  0.0000E+00  0.0000E+00  0.0000E+00  0.0000E+00  0.0000E+00  0.0000E+00  0.0000E+00  0.0000E+00  0.0000E+00  0.0000E+00  0.0000E+00  0.0000E+00  0.0000E+00  0.0000E+00
    -36.152  0.0000E+00  0.0000E+00  0.0000E+00  0.0000E+00  0.0000E+00  0.0000E+00  0.0000E+00  0.0000E+00  0.0000E+00  0.0000E+00  0.0000E+00  0.0000E+00  0.0000E+00  0.0000E+00  0.0000E+00  0.0000E+00  0.0000E+00  0.0000E+00
    -35.960  0.0000E+00  0.0000E+00  0.0000E+00  0.0000E+00  0.0000E+00  0.0000E+00  0.0000E+00  0.0000E+00  0.0000E+00  0.0000E+00  0.0000E+00  0.0000E+00  0.0000E+00  0.0000E+00  0.0000E+00  0.0000E+00  0.0000E+00  0.0000E+00
    -35.767  0.0000E+00  0.0000E+00  0.0000E+00  0.0000E+00  0.0000E+00  0.0000E+00  0.0000E+00  0.0000E+00  0.0000E+00  0.0000E+00  0.0000E+00  0.0000E+00  0.0000E+00  0.0000E+00  0.0000E+00  0.0000E+00  0.0000E+00  0.0000E+00
    -35.575  0.0000E+00  0.0000E+00  0.0000E+00  0.0000E+00  0.0000E+00  0.0000E+00  0.0000E+00  0.0000E+00  0.0000E+00  0.0000E+00  0.0000E+00  0.0000E+00  0.0000E+00  0.0000E+00  0.0000E+00  0.0000E+00  0.0000E+00  0.0000E+00
    -35.382  0.0000E+00  0.0000E+00  0.0000E+00  0.0000E+00  0.0000E+00  0.0000E+00  0.0000E+00  0.0000E+00  0.0000E+00  0.0000E+00  0.0000E+00  0.0000E+00  0.0000E+00  0.0000E+00  0.0000E+00  0.0000E+00  0.0000E+00  0.0000E+00
    -35.190  0.0000E+00  0.0000E+00  0.0000E+00  0.0000E+00  0.0000E+00  0.0000E+00  0.0000E+00  0.0000E+00  0.0000E+00  0.0000E+00  0.0000E+00  0.0000E+00  0.0000E+00  0.0000E+00  0.0000E+00  0.0000E+00  0.0000E+00  0.0000E+00
    -34.997  0.0000E+00  0.0000E+00  0.0000E+00  0.0000E+00  0.0000E+00  0.0000E+00  0.0000E+00  0.0000E+00  0.0000E+00  0.0000E+00  0.0000E+00  0.0000E+00  0.0000E+00  0.0000E+00  0.0000E+00  0.0000E+00  0.0000E+00  0.0000E+00
    -34.805  0.0000E+00  0.0000E+00  0.0000E+00  0.0000E+00  0.0000E+00  0.0000E+00  0.0000E+00  0.0000E+00  0.0000E+00  0.0000E+00  0.0000E+00  0.0000E+00  0.0000E+00  0.0000E+00  0.0000E+00  0.0000E+00  0.0000E+00  0.0000E+00
    -34.612  0.0000E+00  0.0000E+00  0.0000E+00  0.0000E+00  0.0000E+00  0.0000E+00  0.0000E+00  0.0000E+00  0.0000E+00  0.0000E+00  0.0000E+00  0.0000E+00  0.0000E+00  0.0000E+00  0.0000E+00  0.0000E+00  0.0000E+00  0.0000E+00
    -34.420  0.0000E+00  0.0000E+00  0.0000E+00  0.0000E+00  0.0000E+00  0.0000E+00  0.0000E+00  0.0000E+00  0.0000E+00  0.0000E+00  0.0000E+00  0.0000E+00  0.0000E+00  0.0000E+00  0.0000E+00  0.0000E+00  0.0000E+00  0.0000E+00
    -34.227  0.0000E+00  0.0000E+00  0.0000E+00  0.0000E+00  0.0000E+00  0.0000E+00  0.0000E+00  0.0000E+00  0.0000E+00  0.0000E+00  0.0000E+00  0.0000E+00  0.0000E+00  0.0000E+00  0.0000E+00  0.0000E+00  0.0000E+00  0.0000E+00
    -34.034  0.0000E+00  0.0000E+00  0.0000E+00  0.0000E+00  0.0000E+00  0.0000E+00  0.0000E+00  0.0000E+00  0.0000E+00  0.0000E+00  0.0000E+00  0.0000E+00  0.0000E+00  0.0000E+00  0.0000E+00  0.0000E+00  0.0000E+00  0.0000E+00
    -33.842  0.0000E+00  0.0000E+00  0.0000E+00  0.0000E+00  0.0000E+00  0.0000E+00  0.0000E+00  0.0000E+00  0.0000E+00  0.0000E+00  0.0000E+00  0.0000E+00  0.0000E+00  0.0000E+00  0.0000E+00  0.0000E+00  0.0000E+00  0.0000E+00
    -33.649  0.0000E+00  0.0000E+00  0.0000E+00  0.0000E+00  0.0000E+00  0.0000E+00  0.0000E+00  0.0000E+00  0.0000E+00  0.0000E+00  0.0000E+00  0.0000E+00  0.0000E+00  0.0000E+00  0.0000E+00  0.0000E+00  0.0000E+00  0.0000E+00
    -33.457  0.0000E+00  0.0000E+00  0.0000E+00  0.0000E+00  0.0000E+00  0.0000E+00  0.0000E+00  0.0000E+00  0.0000E+00  0.0000E+00  0.0000E+00  0.0000E+00  0.0000E+00  0.0000E+00  0.0000E+00  0.0000E+00  0.0000E+00  0.0000E+00
    -33.264  0.0000E+00  0.0000E+00  0.0000E+00  0.0000E+00  0.0000E+00  0.0000E+00  0.0000E+00  0.0000E+00  0.0000E+00  0.0000E+00  0.0000E+00  0.0000E+00  0.0000E+00  0.0000E+00  0.0000E+00  0.0000E+00  0.0000E+00  0.0000E+00
    -33.072  0.0000E+00  0.0000E+00  0.0000E+00  0.0000E+00  0.0000E+00  0.0000E+00  0.0000E+00  0.0000E+00  0.0000E+00  0.0000E+00  0.0000E+00  0.0000E+00  0.0000E+00  0.0000E+00  0.0000E+00  0.0000E+00  0.0000E+00  0.0000E+00
    -32.879  0.0000E+00  0.0000E+00  0.0000E+00  0.0000E+00  0.0000E+00  0.0000E+00  0.0000E+00  0.0000E+00  0.0000E+00  0.0000E+00  0.0000E+00  0.0000E+00  0.0000E+00  0.0000E+00  0.0000E+00  0.0000E+00  0.0000E+00  0.0000E+00
    -32.687  0.0000E+00  0.0000E+00  0.0000E+00  0.0000E+00  0.0000E+00  0.0000E+00  0.0000E+00  0.0000E+00  0.0000E+00  0.0000E+00  0.0000E+00  0.0000E+00  0.0000E+00  0.0000E+00  0.0000E+00  0.0000E+00  0.0000E+00  0.0000E+00
    -32.494  0.0000E+00  0.0000E+00  0.0000E+00  0.0000E+00  0.0000E+00  0.0000E+00  0.0000E+00  0.0000E+00  0.0000E+00  0.0000E+00  0.0000E+00  0.0000E+00  0.0000E+00  0.0000E+00  0.0000E+00  0.0000E+00  0.0000E+00  0.0000E+00
    -32.302  0.0000E+00  0.0000E+00  0.0000E+00  0.0000E+00  0.0000E+00  0.0000E+00  0.0000E+00  0.0000E+00  0.0000E+00  0.0000E+00  0.0000E+00  0.0000E+00  0.0000E+00  0.0000E+00  0.0000E+00  0.0000E+00  0.0000E+00  0.0000E+00
    -32.109  0.0000E+00  0.0000E+00  0.0000E+00  0.0000E+00  0.0000E+00  0.0000E+00  0.0000E+00  0.0000E+00  0.0000E+00  0.0000E+00  0.0000E+00  0.0000E+00  0.0000E+00  0.0000E+00  0.0000E+00  0.0000E+00  0.0000E+00  0.0000E+00
    -31.917  0.0000E+00  0.0000E+00  0.0000E+00  0.0000E+00  0.0000E+00  0.0000E+00  0.0000E+00  0.0000E+00  0.0000E+00  0.0000E+00  0.0000E+00  0.0000E+00  0.0000E+00  0.0000E+00  0.0000E+00  0.0000E+00  0.0000E+00  0.0000E+00
    -31.724  0.0000E+00  0.0000E+00  0.0000E+00  0.0000E+00  0.0000E+00  0.0000E+00  0.0000E+00  0.0000E+00  0.0000E+00  0.0000E+00  0.0000E+00  0.0000E+00  0.0000E+00  0.0000E+00  0.0000E+00  0.0000E+00  0.0000E+00  0.0000E+00
    -31.532  0.0000E+00  0.0000E+00  0.0000E+00  0.0000E+00  0.0000E+00  0.0000E+00  0.0000E+00  0.0000E+00  0.0000E+00  0.0000E+00  0.0000E+00  0.0000E+00  0.0000E+00  0.0000E+00  0.0000E+00  0.0000E+00  0.0000E+00  0.0000E+00
    -31.339  0.0000E+00  0.0000E+00  0.0000E+00  0.0000E+00  0.0000E+00  0.0000E+00  0.0000E+00  0.0000E+00  0.0000E+00  0.0000E+00  0.0000E+00  0.0000E+00  0.0000E+00  0.0000E+00  0.0000E+00  0.0000E+00  0.0000E+00  0.0000E+00
    -31.147  0.0000E+00  0.0000E+00  0.0000E+00  0.0000E+00  0.0000E+00  0.0000E+00  0.0000E+00  0.0000E+00  0.0000E+00  0.0000E+00  0.0000E+00  0.0000E+00  0.0000E+00  0.0000E+00  0.0000E+00  0.0000E+00  0.0000E+00  0.0000E+00
    -30.954  0.0000E+00  0.0000E+00  0.0000E+00  0.0000E+00  0.0000E+00  0.0000E+00  0.0000E+00  0.0000E+00  0.0000E+00  0.0000E+00  0.0000E+00  0.0000E+00  0.0000E+00  0.0000E+00  0.0000E+00  0.0000E+00  0.0000E+00  0.0000E+00