   8   8   1   0
  0.2290399E+02  0.4316446E-09  0.4316446E-09  0.9834416E-09  0.5000000E-15
  1.000000000000000E-004
  CAR 
 unknown system                          
     11.41347769    -46.01266966  301      5.72720693      1.00000000
    -46.013  0.0000E+00  0.0000E+00  0.0000E+00  0.0000E+00
    -45.821  0.0000E+00  0.0000E+00  0.0000E+00  0.0000E+00
    -45.630  0.0000E+00  0.0000E+00  0.0000E+00  0.0000E+00
    -45.438  0.0000E+00  0.0000E+00  0.0000E+00  0.0000E+00
    -45.247  0.0000E+00  0.0000E+00  0.0000E+00  0.0000E+00
    -45.056  0.0000E+00  0.0000E+00  0.0000E+00  0.0000E+00
    -44.864  0.0000E+00  0.0000E+00  0.0000E+00  0.0000E+00
    -44.673  0.0000E+00  0.0000E+00  0.0000E+00  0.0000E+00
    -44.481  0.0000E+00  0.0000E+00  0.0000E+00  0.0000E+00
    -44.290  0.0000E+00  0.0000E+00  0.0000E+00  0.0000E+00
    -44.098  0.0000E+00  0.0000E+00  0.0000E+00  0.0000E+00
    -43.907  0.4133E-03  0.4252E-03  0.7911E-04  0.8140E-04
    -43.716  0.1856E-01  0.1910E-01  0.3632E-02  0.3737E-02
    -43.524  0.7876E+00  0.8086E+00  0.1544E+00  0.1585E+00
    -43.333  0.7486E+01  0.7513E+01  0.1587E+01  0.1597E+01
    -43.141  0.2097E+01  0.2050E+01  0.1989E+01  0.1989E+01
    -42.950  0.0000E+00  0.0000E+00  0.2000E+01  0.2000E+01
    -42.759  0.0000E+00  0.0000E+00  0.2000E+01  0.2000E+01
    -42.567  0.0000E+00  0.0000E+00  0.2000E+01  0.2000E+01
    -42.376  0.0000E+00  0.0000E+00  0.2000E+01  0.2000E+01
    -42.184  0.0000E+00  0.0000E+00  0.2000E+01  0.2000E+01
    -41.993  0.0000E+00  0.0000E+00  0.2000E+01  0.2000E+01
    -41.801  0.0000E+00  0.0000E+00  0.2000E+01  0.2000E+01
    -41.610  0.0000E+00  0.0000E+00  0.2000E+01  0.2000E+01
    -41.419  0.0000E+00  0.0000E+00  0.2000E+01  0.2000E+01
    -41.227  0.0000E+00  0.0000E+00  0.2000E+01  0.2000E+01
    -41.036  0.0000E+00  0.0000E+00  0.2000E+01  0.2000E+01
    -40.844  0.0000E+00  0.0000E+00  0.2000E+01  0.2000E+01
    -40.653  0.0000E+00  0.0000E+00  0.2000E+01  0.2000E+01
    -40.461  0.0000E+00  0.0000E+00  0.2000E+01  0.2000E+01
    -40.270  0.0000E+00  0.0000E+00  0.2000E+01  0.2000E+01
    -40.079  0.0000E+00  0.0000E+00  0.2000E+01  0.2000E+01
    -39.887  0.0000E+00  0.0000E+00  0.2000E+01  0.2000E+01
    -39.696  0.0000E+00  0.0000E+00  0.2000E+01  0.2000E+01
    -39.504  0.0000E+00  0.0000E+00  0.2000E+01  0.2000E+01
    -39.313  0.0000E+00  0.0000E+00  0.2000E+01  0.2000E+01
    -39.122  0.0000E+00  0.0000E+00  0.2000E+01  0.2000E+01
    -38.930  0.0000E+00  0.0000E+00  0.2000E+01  0.2000E+01
    -38.739  0.0000E+00  0.0000E+00  0.2000E+01  0.2000E+01
    -38.547  0.0000E+00  0.0000E+00  0.2000E+01  0.2000E+01
    -38.356  0.0000E+00  0.0000E+00  0.2000E+01  0.2000E+01
    -38.164  0.0000E+00  0.0000E+00  0.2000E+01  0.2000E+01
    -37.973  0.0000E+00  0.0000E+00  0.2000E+01  0.2000E+01
    -37.782  0.0000E+00  0.0000E+00  0.2000E+01  0.2000E+01
    -37.590  0.0000E+00  0.0000E+00  0.2000E+01  0.2000E+01
    -37.399  0.0000E+00  0.0000E+00  0.2000E+01  0.2000E+01
    -37.207  0.0000E+00  0.0000E+00  0.2000E+01  0.2000E+01
    -37.016  0.0000E+00  0.0000E+00  0.2000E+01  0.2000E+01
    -36.824  0.0000E+00  0.0000E+00  0.2000E+01  0.2000E+01
    -36.633  0.0000E+00  0.0000E+00  0.2000E+01  0.2000E+01
    -36.442  0.0000E+00  0.0000E+00  0.2000E+01  0.2000E+01
    -36.250  0.0000E+00  0.0000E+00  0.2000E+01  0.2000E+01
    -36.059  0.0000E+00  0.0000E+00  0.2000E+01  0.2000E+01
    -35.867  0.0000E+00  0.0000E+00  0.2000E+01  0.2000E+01
    -35.676  0.0000E+00  0.0000E+00  0.2000E+01  0.2000E+01
    -35.485  0.0000E+00  0.0000E+00  0.2000E+01  0.2000E+01
    -35.293  0.0000E+00  0.0000E+00  0.2000E+01  0.2000E+01
    -35.102  0.0000E+00  0.0000E+00  0.2000E+01  0.2000E+01
    -34.910  0.0000E+00  0.0000E+00  0.2000E+01  0.2000E+01
    -34.719  0.0000E+00  0.0000E+00  0.2000E+01  0.2000E+01
    -34.527  0.0000E+00  0.0000E+00  0.2000E+01  0.2000E+01
    -34.336  0.0000E+00  0.0000E+00  0.2000E+01  0.2000E+01
    -34.145  0.0000E+00  0.0000E+00  0.2000E+01  0.2000E+01
    -33.953  0.0000E+00  0.0000E+00  0.2000E+01  0.2000E+01
    -33.762  0.0000E+00  0.0000E+00  0.2000E+01  0.2000E+01
    -33.570  0.0000E+00  0.0000E+00  0.2000E+01  0.2000E+01
    -33.379  0.0000E+00  0.0000E+00  0.2000E+01  0.2000E+01
    -33.187  0.0000E+00  0.0000E+00  0.2000E+01  0.2000E+01
    -32.996  0.0000E+00  0.0000E+00  0.2000E+01  0.2000E+01
    -32.805  0.0000E+00  0.0000E+00  0.2000E+01  0.2000E+01
    -32.613  0.0000E+00  0.0000E+00  0.2000E+01  0.2000E+01
    -32.422  0.0000E+00  0.0000E+00  0.2000E+01  0.2000E+01
    -32.230  0.0000E+00  0.0000E+00  0.2000E+01  0.2000E+01
    -32.039  0.0000E+00  0.0000E+00  0.2000E+01  0.2000E+01
    -31.848  0.0000E+00  0.0000E+00  0.2000E+01  0.2000E+01
    -31.656  0.0000E+00  0.0000E+00  0.2000E+01  0.2000E+01
    -31.465  0.0000E+00  0.0000E+00  0.2000E+01  0.2000E+01
    -31.273  0.0000E+00  0.0000E+00  0.2000E+01  0.2000E+01
    -31.082  0.0000E+00  0.0000E+00  0.2000E+01  0.2000E+01
    -30.890  0.0000E+00  0.0000E+00  0.2000E+01  0.2000E+01
    -30.699  0.0000E+00  0.0000E+00  0.2000E+01  0.2000E+01
    -30.508  0.0000E+00  0.0000E+00  0.2000E+01  0.2000E+01
    -30.316  0.0000E+00  0.0000E+00  0.2000E+01  0.2000E+01
    -30.125  0.0000E+00  0.0000E+00  0.2000E+01  0.2000E+01
    -29.933  0.0000E+00  0.0000E+00  0.2000E+01  0.2000E+01
    -29.742  0.0000E+00  0.0000E+00  0.2000E+01  0.2000E+01
    -29.551  0.0000E+00  0.0000E+00  0.2000E+01  0.2000E+01
    -29.359  0.0000E+00  0.0000E+00  0.2000E+01  0.2000E+01
    -29.168  0.0000E+00  0.0000E+00  0.2000E+01  0.2000E+01
    -28.976  0.0000E+00  0.0000E+00  0.2000E+01  0.2000E+01
    -28.785  0.0000E+00  0.0000E+00  0.2000E+01  0.2000E+01
    -28.593  0.0000E+00  0.0000E+00  0.2000E+01  0.2000E+01
    -28.402  0.0000E+00  0.0000E+00  0.2000E+01  0.2000E+01
    -28.211  0.0000E+00  0.0000E+00  0.2000E+01  0.2000E+01
    -28.019  0.0000E+00  0.0000E+00  0.2000E+01  0.2000E+01
    -27.828  0.0000E+00  0.0000E+00  0.2000E+01  0.2000E+01
    -27.636  0.0000E+00  0.0000E+00  0.2000E+01  0.2000E+01
    -27.445  0.0000E+00  0.0000E+00  0.2000E+01  0.2000E+01
    -27.253  0.0000E+00  0.0000E+00  0.2000E+01  0.2000E+01
    -27.062  0.0000E+00  0.0000E+00  0.2000E+01  0.2000E+01
    -26.871  0.0000E+00  0.0000E+00  0.2000E+01  0.2000E+01
    -26.679  0.0000E+00  0.0000E+00  0.2000E+01  0.2000E+01
    -26.488  0.0000E+00  0.0000E+00  0.2000E+01  0.2000E+01
    -26.296  0.0000E+00  0.0000E+00  0.2000E+01  0.2000E+01
    -26.105  0.0000E+00  0.0000E+00  0.2000E+01  0.2000E+01
    -25.914  0.0000E+00  0.0000E+00  0.2000E+01  0.2000E+01
    -25.722  0.0000E+00  0.0000E+00  0.2000E+01  0.2000E+01
    -25.531  0.0000E+00  0.0000E+00  0.2000E+01  0.2000E+01
    -25.339  0.0000E+00  0.0000E+00  0.2000E+01  0.2000E+01
    -25.148  0.0000E+00  0.0000E+00  0.2000E+01  0.2000E+01
    -24.956  0.0000E+00  0.0000E+00  0.2000E+01  0.2000E+01
    -24.765  0.0000E+00  0.0000E+00  0.2000E+01  0.2000E+01
    -24.574  0.0000E+00  0.0000E+00  0.2000E+01  0.2000E+01
    -24.382  0.0000E+00  0.0000E+00  0.2000E+01  0.2000E+01
    -24.191  0.0000E+00  0.0000E+00  0.2000E+01  0.2000E+01
    -23.999  0.0000E+00  0.0000E+00  0.2000E+01  0.2000E+01
    -23.808  0.0000E+00  0.0000E+00  0.2000E+01  0.2000E+01
    -23.616  0.0000E+00  0.0000E+00  0.2000E+01  0.2000E+01
    -23.425  0.0000E+00  0.0000E+00  0.2000E+01  0.2000E+01
    -23.234  0.0000E+00  0.0000E+00  0.2000E+01  0.2000E+01
    -23.042  0.0000E+00  0.0000E+00  0.2000E+01  0.2000E+01
    -22.851  0.0000E+00  0.0000E+00  0.2000E+01  0.2000E+01
    -22.659  0.0000E+00  0.0000E+00  0.2000E+01  0.2000E+01
    -22.468  0.0000E+00  0.0000E+00  0.2000E+01  0.2000E+01
    -22.277  0.0000E+00  0.0000E+00  0.2000E+01  0.2000E+01
    -22.085  0.0000E+00  0.0000E+00  0.2000E+01  0.2000E+01
    -21.894  0.1707E-02  0.1744E-02  0.2000E+01  0.2000E+01
    -21.702  0.7657E-01  0.7820E-01  0.2015E+01  0.2015E+01
    -21.511  0.3087E+01  0.3145E+01  0.2606E+01  0.2617E+01
    -21.319  0.2194E+02  0.2198E+02  0.6806E+01  0.6824E+01
    -21.128  0.6054E+01  0.5963E+01  0.7965E+01  0.7966E+01
    -20.937  0.0000E+00  0.0000E+00  0.8000E+01  0.8000E+01
    -20.745  0.0000E+00  0.0000E+00  0.8000E+01  0.8000E+01
    -20.554  0.0000E+00  0.0000E+00  0.8000E+01  0.8000E+01
    -20.362  0.0000E+00  0.0000E+00  0.8000E+01  0.8000E+01
    -20.171  0.0000E+00  0.0000E+00  0.8000E+01  0.8000E+01
    -19.979  0.0000E+00  0.0000E+00  0.8000E+01  0.8000E+01
    -19.788  0.0000E+00  0.0000E+00  0.8000E+01  0.8000E+01
    -19.597  0.0000E+00  0.0000E+00  0.8000E+01  0.8000E+01
    -19.405  0.0000E+00  0.0000E+00  0.8000E+01  0.8000E+01
    -19.214  0.0000E+00  0.0000E+00  0.8000E+01  0.8000E+01
    -19.022  0.0000E+00  0.0000E+00  0.8000E+01  0.8000E+01
    -18.831  0.0000E+00  0.0000E+00  0.8000E+01  0.8000E+01
    -18.640  0.0000E+00  0.0000E+00  0.8000E+01  0.8000E+01
    -18.448  0.0000E+00  0.0000E+00  0.8000E+01  0.8000E+01
    -18.257  0.0000E+00  0.0000E+00  0.8000E+01  0.8000E+01
    -18.065  0.0000E+00  0.0000E+00  0.8000E+01  0.8000E+01
    -17.874  0.0000E+00  0.0000E+00  0.8000E+01  0.8000E+01
    -17.682  0.0000E+00  0.0000E+00  0.8000E+01  0.8000E+01
    -17.491  0.0000E+00  0.0000E+00  0.8000E+01  0.8000E+01
    -17.300  0.0000E+00  0.0000E+00  0.8000E+01  0.8000E+01
    -17.108  0.0000E+00  0.0000E+00  0.8000E+01  0.8000E+01
    -16.917  0.0000E+00  0.0000E+00  0.8000E+01  0.8000E+01
    -16.725  0.0000E+00  0.0000E+00  0.8000E+01  0.8000E+01
    -16.534  0.0000E+00  0.0000E+00  0.8000E+01  0.8000E+01
    -16.342  0.0000E+00  0.0000E+00  0.8000E+01  0.8000E+01
    -16.151  0.0000E+00  0.0000E+00  0.8000E+01  0.8000E+01
    -15.960  0.0000E+00  0.0000E+00  0.8000E+01  0.8000E+01
    -15.768  0.0000E+00  0.0000E+00  0.8000E+01  0.8000E+01
    -15.577  0.0000E+00  0.0000E+00  0.8000E+01  0.8000E+01
    -15.385  0.0000E+00  0.0000E+00  0.8000E+01  0.8000E+01
    -15.194  0.0000E+00  0.0000E+00  0.8000E+01  0.8000E+01
    -15.003  0.0000E+00  0.0000E+00  0.8000E+01  0.8000E+01
    -14.811  0.0000E+00  0.0000E+00  0.8000E+01  0.8000E+01
    -14.620  0.0000E+00  0.0000E+00  0.8000E+01  0.8000E+01
    -14.428  0.0000E+00  0.0000E+00  0.8000E+01  0.8000E+01
    -14.237  0.0000E+00  0.0000E+00  0.8000E+01  0.8000E+01
    -14.045  0.0000E+00  0.0000E+00  0.8000E+01  0.8000E+01
    -13.854  0.0000E+00  0.0000E+00  0.8000E+01  0.8000E+01
    -13.663  0.0000E+00  0.0000E+00  0.8000E+01  0.8000E+01
    -13.471  0.0000E+00  0.0000E+00  0.8000E+01  0.8000E+01
    -13.280  0.0000E+00  0.0000E+00  0.8000E+01  0.8000E+01
    -13.088  0.0000E+00  0.0000E+00  0.8000E+01  0.8000E+01
    -12.897  0.0000E+00  0.0000E+00  0.8000E+01  0.8000E+01
    -12.706  0.0000E+00  0.0000E+00  0.8000E+01  0.8000E+01
    -12.514  0.0000E+00  0.0000E+00  0.8000E+01  0.8000E+01
    -12.323  0.0000E+00  0.0000E+00  0.8000E+01  0.8000E+01
    -12.131  0.0000E+00  0.0000E+00  0.8000E+01  0.8000E+01
    -11.940  0.0000E+00  0.0000E+00  0.8000E+01  0.8000E+01
    -11.748  0.0000E+00  0.0000E+00  0.8000E+01  0.8000E+01
    -11.557  0.0000E+00  0.0000E+00  0.8000E+01  0.8000E+01
    -11.366  0.0000E+00  0.0000E+00  0.8000E+01  0.8000E+01
    -11.174  0.0000E+00  0.0000E+00  0.8000E+01  0.8000E+01
    -10.983  0.0000E+00  0.0000E+00  0.8000E+01  0.8000E+01
    -10.791  0.0000E+00  0.0000E+00  0.8000E+01  0.8000E+01
    -10.600  0.0000E+00  0.0000E+00  0.8000E+01  0.8000E+01
    -10.408  0.0000E+00  0.0000E+00  0.8000E+01  0.8000E+01
    -10.217  0.0000E+00  0.0000E+00  0.8000E+01  0.8000E+01
    -10.026  0.0000E+00  0.0000E+00  0.8000E+01  0.8000E+01
     -9.834  0.0000E+00  0.0000E+00  0.8000E+01  0.8000E+01
     -9.643  0.0000E+00  0.0000E+00  0.8000E+01  0.8000E+01
     -9.451  0.0000E+00  0.0000E+00  0.8000E+01  0.8000E+01
     -9.260  0.0000E+00  0.0000E+00  0.8000E+01  0.8000E+01
     -9.069  0.0000E+00  0.0000E+00  0.8000E+01  0.8000E+01
     -8.877  0.0000E+00  0.0000E+00  0.8000E+01  0.8000E+01
     -8.686  0.0000E+00  0.0000E+00  0.8000E+01  0.8000E+01
     -8.494  0.0000E+00  0.0000E+00  0.8000E+01  0.8000E+01
     -8.303  0.0000E+00  0.0000E+00  0.8000E+01  0.8000E+01
     -8.111  0.0000E+00  0.0000E+00  0.8000E+01  0.8000E+01
     -7.920  0.0000E+00  0.0000E+00  0.8000E+01  0.8000E+01
     -7.729  0.0000E+00  0.0000E+00  0.8000E+01  0.8000E+01
     -7.537  0.0000E+00  0.0000E+00  0.8000E+01  0.8000E+01
     -7.346  0.0000E+00  0.0000E+00  0.8000E+01  0.8000E+01
     -7.154  0.0000E+00  0.0000E+00  0.8000E+01  0.8000E+01
     -6.963  0.0000E+00  0.0000E+00  0.8000E+01  0.8000E+01
     -6.771  0.0000E+00  0.0000E+00  0.8000E+01  0.8000E+01
     -6.580  0.0000E+00  0.0000E+00  0.8000E+01  0.8000E+01
     -6.389  0.0000E+00  0.0000E+00  0.8000E+01  0.8000E+01
     -6.197  0.0000E+00  0.0000E+00  0.8000E+01  0.8000E+01
     -6.006  0.0000E+00  0.0000E+00  0.8000E+01  0.8000E+01
     -5.814  0.0000E+00  0.0000E+00  0.8000E+01  0.8000E+01
     -5.623  0.0000E+00  0.0000E+00  0.8000E+01  0.8000E+01
     -5.432  0.0000E+00  0.0000E+00  0.8000E+01  0.8000E+01
     -5.240  0.0000E+00  0.0000E+00  0.8000E+01  0.8000E+01
     -5.049  0.0000E+00  0.0000E+00  0.8000E+01  0.8000E+01
     -4.857  0.0000E+00  0.0000E+00  0.8000E+01  0.8000E+01
     -4.666  0.0000E+00  0.0000E+00  0.8000E+01  0.8000E+01
     -4.474  0.0000E+00  0.0000E+00  0.8000E+01  0.8000E+01
     -4.283  0.0000E+00  0.0000E+00  0.8000E+01  0.8000E+01
     -4.092  0.0000E+00  0.0000E+00  0.8000E+01  0.8000E+01
     -3.900  0.0000E+00  0.0000E+00  0.8000E+01  0.8000E+01
     -3.709  0.0000E+00  0.0000E+00  0.8000E+01  0.8000E+01
     -3.517  0.0000E+00  0.0000E+00  0.8000E+01  0.8000E+01
     -3.326  0.0000E+00  0.0000E+00  0.8000E+01  0.8000E+01
     -3.134  0.0000E+00  0.0000E+00  0.8000E+01  0.8000E+01
     -2.943  0.3064E-05  0.3048E-05  0.8000E+01  0.8000E+01
     -2.752  0.1507E-03  0.1497E-03  0.8000E+01  0.8000E+01
     -2.560  0.6433E-02  0.6401E-02  0.8001E+01  0.8001E+01
     -2.369  0.9759E-01  0.9736E-01  0.8020E+01  0.8020E+01
     -2.177  0.2696E+00  0.2694E+00  0.8072E+01  0.8071E+01
     -1.986  0.3804E+00  0.3802E+00  0.8145E+01  0.8144E+01
     -1.795  0.4763E+00  0.4762E+00  0.8236E+01  0.8236E+01
     -1.603  0.5629E+00  0.5626E+00  0.8344E+01  0.8344E+01
     -1.412  0.6505E+00  0.6505E+00  0.8469E+01  0.8469E+01
     -1.220  0.7248E+00  0.7244E+00  0.8608E+01  0.8608E+01
     -1.029  0.8423E+00  0.8423E+00  0.8770E+01  0.8769E+01
     -0.837  0.8196E+00  0.8195E+00  0.8927E+01  0.8927E+01
     -0.646  0.8654E+00  0.8652E+00  0.9094E+01  0.9093E+01
     -0.455  0.9759E+00  0.9759E+00  0.9281E+01  0.9281E+01
     -0.263  0.9662E+00  0.9659E+00  0.9466E+01  0.9466E+01
     -0.072  0.1139E+01  0.1139E+01  0.9685E+01  0.9685E+01
      0.120  0.1056E+01  0.1056E+01  0.9888E+01  0.9888E+01
      0.311  0.1321E+01  0.1321E+01  0.1014E+02  0.1014E+02
      0.503  0.1346E+01  0.1346E+01  0.1040E+02  0.1040E+02
      0.694  0.1350E+01  0.1350E+01  0.1066E+02  0.1066E+02
      0.885  0.1247E+01  0.1247E+01  0.1090E+02  0.1090E+02
      1.077  0.9888E+00  0.9886E+00  0.1109E+02  0.1109E+02
      1.268  0.1095E+01  0.1095E+01  0.1130E+02  0.1130E+02
      1.460  0.1295E+01  0.1294E+01  0.1155E+02  0.1155E+02
      1.651  0.1706E+01  0.1706E+01  0.1188E+02  0.1188E+02
      1.842  0.1624E+01  0.1624E+01  0.1219E+02  0.1219E+02
      2.034  0.1686E+01  0.1686E+01  0.1251E+02  0.1251E+02
      2.225  0.1438E+01  0.1439E+01  0.1279E+02  0.1279E+02
      2.417  0.1380E+01  0.1379E+01  0.1305E+02  0.1305E+02
      2.608  0.1393E+01  0.1394E+01  0.1332E+02  0.1332E+02
      2.800  0.1111E+01  0.1110E+01  0.1354E+02  0.1354E+02
      2.991  0.1442E+01  0.1442E+01  0.1381E+02  0.1381E+02
      3.182  0.1324E+01  0.1325E+01  0.1407E+02  0.1407E+02
      3.374  0.1546E+01  0.1545E+01  0.1436E+02  0.1436E+02
      3.565  0.2072E+01  0.2072E+01  0.1476E+02  0.1476E+02
      3.757  0.1990E+01  0.1990E+01  0.1514E+02  0.1514E+02
      3.948  0.2136E+01  0.2135E+01  0.1555E+02  0.1555E+02
      4.139  0.2004E+01  0.2004E+01  0.1594E+02  0.1594E+02
      4.331  0.2607E+01  0.2607E+01  0.1644E+02  0.1644E+02
      4.522  0.3395E+01  0.3396E+01  0.1709E+02  0.1709E+02
      4.714  0.3564E+01  0.3566E+01  0.1778E+02  0.1778E+02
      4.905  0.4203E+01  0.4203E+01  0.1858E+02  0.1858E+02
      5.097  0.3630E+01  0.3630E+01  0.1928E+02  0.1928E+02
      5.288  0.3132E+01  0.3133E+01  0.1988E+02  0.1988E+02
      5.479  0.2922E+01  0.2923E+01  0.2045E+02  0.2045E+02
      5.671  0.2383E+01  0.2383E+01  0.2090E+02  0.2090E+02
      5.862  0.1533E+01  0.1533E+01  0.2120E+02  0.2120E+02
      6.054  0.1416E+01  0.1416E+01  0.2147E+02  0.2147E+02
      6.245  0.1148E+01  0.1148E+01  0.2169E+02  0.2169E+02
      6.437  0.1180E+01  0.1180E+01  0.2192E+02  0.2192E+02
      6.628  0.1382E+01  0.1381E+01  0.2219E+02  0.2219E+02
      6.819  0.2259E+01  0.2257E+01  0.2262E+02  0.2262E+02
      7.011  0.3441E+01  0.3442E+01  0.2328E+02  0.2328E+02
      7.202  0.2806E+01  0.2828E+01  0.2382E+02  0.2382E+02
      7.394  0.3263E+01  0.3297E+01  0.2445E+02  0.2446E+02
      7.585  0.3801E+01  0.3845E+01  0.2517E+02  0.2519E+02
      7.776  0.4786E+01  0.5002E+01  0.2609E+02  0.2615E+02
      7.968  0.4028E+01  0.4253E+01  0.2687E+02  0.2697E+02
      8.159  0.2974E+01  0.2925E+01  0.2744E+02  0.2754E+02
      8.351  0.1551E+01  0.1516E+01  0.2774E+02  0.2783E+02
      8.542  0.8849E+00  0.5816E+00  0.2791E+02  0.2794E+02
      8.734  0.3824E+00  0.2648E+00  0.2799E+02  0.2799E+02
      8.925  0.6758E-01  0.3529E-01  0.2800E+02  0.2800E+02
      9.116  0.2775E-02  0.0000E+00  0.2800E+02  0.2800E+02
      9.308  0.0000E+00  0.0000E+00  0.2800E+02  0.2800E+02
      9.499  0.0000E+00  0.0000E+00  0.2800E+02  0.2800E+02
      9.691  0.0000E+00  0.0000E+00  0.2800E+02  0.2800E+02
      9.882  0.0000E+00  0.0000E+00  0.2800E+02  0.2800E+02
     10.074  0.0000E+00  0.0000E+00  0.2800E+02  0.2800E+02
     10.265  0.0000E+00  0.0000E+00  0.2800E+02  0.2800E+02
     10.456  0.0000E+00  0.0000E+00  0.2800E+02  0.2800E+02
     10.648  0.0000E+00  0.0000E+00  0.2800E+02  0.2800E+02
     10.839  0.0000E+00  0.0000E+00  0.2800E+02  0.2800E+02
     11.031  0.0000E+00  0.0000E+00  0.2800E+02  0.2800E+02
     11.222  0.0000E+00  0.0000E+00  0.2800E+02  0.2800E+02
     11.413  0.0000E+00  0.0000E+00  0.2800E+02  0.2800E+02
     11.41347769    -46.01266966  301      5.72720693      1.00000000
    -46.013  0.0000E+00  0.0000E+00  0.0000E+00  0.0000E+00  0.0000E+00  0.0000E+00  0.0000E+00  0.0000E+00  0.0000E+00  0.0000E+00  0.0000E+00  0.0000E+00  0.0000E+00  0.0000E+00  0.0000E+00  0.0000E+00  0.0000E+00  0.0000E+00
    -45.821  0.0000E+00  0.0000E+00  0.0000E+00  0.0000E+00  0.0000E+00  0.0000E+00  0.0000E+00  0.0000E+00  0.0000E+00  0.0000E+00  0.0000E+00  0.0000E+00  0.0000E+00  0.0000E+00  0.0000E+00  0.0000E+00  0.0000E+00  0.0000E+00
    -45.630  0.0000E+00  0.0000E+00  0.0000E+00  0.0000E+00  0.0000E+00  0.0000E+00  0.0000E+00  0.0000E+00  0.0000E+00  0.0000E+00  0.0000E+00  0.0000E+00  0.0000E+00  0.0000E+00  0.0000E+00  0.0000E+00  0.0000E+00  0.0000E+00
    -45.438  0.0000E+00  0.0000E+00  0.0000E+00  0.0000E+00  0.0000E+00  0.0000E+00  0.0000E+00  0.0000E+00  0.0000E+00  0.0000E+00  0.0000E+00  0.0000E+00  0.0000E+00  0.0000E+00  0.0000E+00  0.0000E+00  0.0000E+00  0.0000E+00
    -45.247  0.0000E+00  0.0000E+00  0.0000E+00  0.0000E+00  0.0000E+00  0.0000E+00  0.0000E+00  0.0000E+00  0.0000E+00  0.0000E+00  0.0000E+00  0.0000E+00  0.0000E+00  0.0000E+00  0.0000E+00  0.0000E+00  0.0000E+00  0.0000E+00
    -45.056  0.0000E+00  0.0000E+00  0.0000E+00  0.0000E+00  0.0000E+00  0.0000E+00  0.0000E+00  0.0000E+00  0.0000E+00  0.0000E+00  0.0000E+00  0.0000E+00  0.0000E+00  0.0000E+00  0.0000E+00  0.0000E+00  0.0000E+00  0.0000E+00
    -44.864  0.0000E+00  0.0000E+00  0.0000E+00  0.0000E+00  0.0000E+00  0.0000E+00  0.0000E+00  0.0000E+00  0.0000E+00  0.0000E+00  0.0000E+00  0.0000E+00  0.0000E+00  0.0000E+00  0.0000E+00  0.0000E+00  0.0000E+00  0.0000E+00
    -44.673  0.0000E+00  0.0000E+00  0.0000E+00  0.0000E+00  0.0000E+00  0.0000E+00  0.0000E+00  0.0000E+00  0.0000E+00  0.0000E+00  0.0000E+00  0.0000E+00  0.0000E+00  0.0000E+00  0.0000E+00  0.0000E+00  0.0000E+00  0.0000E+00
    -44.481  0.0000E+00  0.0000E+00  0.0000E+00  0.0000E+00  0.0000E+00  0.0000E+00  0.0000E+00  0.0000E+00  0.0000E+00  0.0000E+00  0.0000E+00  0.0000E+00  0.0000E+00  0.0000E+00  0.0000E+00  0.0000E+00  0.0000E+00  0.0000E+00
    -44.290  0.0000E+00  0.0000E+00  0.0000E+00  0.0000E+00  0.0000E+00  0.0000E+00  0.0000E+00  0.0000E+00  0.0000E+00  0.0000E+00  0.0000E+00  0.0000E+00  0.0000E+00  0.0000E+00  0.0000E+00  0.0000E+00  0.0000E+00  0.0000E+00
    -44.098  0.0000E+00  0.0000E+00  0.0000E+00  0.0000E+00  0.0000E+00  0.0000E+00  0.0000E+00  0.0000E+00  0.0000E+00  0.0000E+00  0.0000E+00  0.0000E+00  0.0000E+00  0.0000E+00  0.0000E+00  0.0000E+00  0.0000E+00  0.0000E+00
    -43.907  0.2052E-03  0.2111E-03  0.1522E-12  0.1487E-12  0.1523E-15  0.1729E-15  0.1522E-12  0.1487E-12  0.1344E-15  0.1359E-15  0.1315E-15  0.1405E-15  0.1313E-09  0.1356E-09  0.1315E-15  0.1405E-15  0.1920E-12  0.1911E-12
    -43.716  0.9215E-02  0.9482E-02  0.6837E-11  0.6676E-11  0.6841E-14  0.7766E-14  0.6837E-11  0.6676E-11  0.6036E-14  0.6101E-14  0.5904E-14  0.6311E-14  0.5896E-08  0.6090E-08  0.5904E-14  0.6311E-14  0.8623E-11  0.8580E-11
    -43.524  0.3911E+00  0.4015E+00  0.2901E-09  0.2827E-09  0.2902E-12  0.3286E-12  0.2901E-09  0.2827E-09  0.2562E-12  0.2584E-12  0.2506E-12  0.2672E-12  0.2502E-06  0.2579E-06  0.2506E-12  0.2672E-12  0.3660E-09  0.3633E-09
    -43.333  0.3717E+01  0.3731E+01  0.2758E-08  0.2626E-08  0.2742E-11  0.3035E-11  0.2758E-08  0.2626E-08  0.2438E-11  0.2406E-11  0.2381E-11  0.2482E-11  0.2378E-05  0.2395E-05  0.2381E-11  0.2482E-11  0.3478E-08  0.3376E-08
    -43.141  0.1041E+01  0.1018E+01  0.7724E-09  0.7166E-09  0.7629E-12  0.8223E-12  0.7724E-09  0.7166E-09  0.6838E-12  0.6579E-12  0.6668E-12  0.6771E-12  0.6659E-06  0.6534E-06  0.6668E-12  0.6771E-12  0.9743E-09  0.9211E-09
    -42.950  0.0000E+00  0.0000E+00  0.0000E+00  0.0000E+00  0.0000E+00  0.0000E+00  0.0000E+00  0.0000E+00  0.0000E+00  0.0000E+00  0.0000E+00  0.0000E+00  0.0000E+00  0.0000E+00  0.0000E+00  0.0000E+00  0.0000E+00  0.0000E+00
    -42.759  0.0000E+00  0.0000E+00  0.0000E+00  0.0000E+00  0.0000E+00  0.0000E+00  0.0000E+00  0.0000E+00  0.0000E+00  0.0000E+00  0.0000E+00  0.0000E+00  0.0000E+00  0.0000E+00  0.0000E+00  0.0000E+00  0.0000E+00  0.0000E+00
    -42.567  0.0000E+00  0.0000E+00  0.0000E+00  0.0000E+00  0.0000E+00  0.0000E+00  0.0000E+00  0.0000E+00  0.0000E+00  0.0000E+00  0.0000E+00  0.0000E+00  0.0000E+00  0.0000E+00  0.0000E+00  0.0000E+00  0.0000E+00  0.0000E+00
    -42.376  0.0000E+00  0.0000E+00  0.0000E+00  0.0000E+00  0.0000E+00  0.0000E+00  0.0000E+00  0.0000E+00  0.0000E+00  0.0000E+00  0.0000E+00  0.0000E+00  0.0000E+00  0.0000E+00  0.0000E+00  0.0000E+00  0.0000E+00  0.0000E+00
    -42.184  0.0000E+00  0.0000E+00  0.0000E+00  0.0000E+00  0.0000E+00  0.0000E+00  0.0000E+00  0.0000E+00  0.0000E+00  0.0000E+00  0.0000E+00  0.0000E+00  0.0000E+00  0.0000E+00  0.0000E+00  0.0000E+00  0.0000E+00  0.0000E+00
    -41.993  0.0000E+00  0.0000E+00  0.0000E+00  0.0000E+00  0.0000E+00  0.0000E+00  0.0000E+00  0.0000E+00  0.0000E+00  0.0000E+00  0.0000E+00  0.0000E+00  0.0000E+00  0.0000E+00  0.0000E+00  0.0000E+00  0.0000E+00  0.0000E+00
    -41.801  0.0000E+00  0.0000E+00  0.0000E+00  0.0000E+00  0.0000E+00  0.0000E+00  0.0000E+00  0.0000E+00  0.0000E+00  0.0000E+00  0.0000E+00  0.0000E+00  0.0000E+00  0.0000E+00  0.0000E+00  0.0000E+00  0.0000E+00  0.0000E+00
    -41.610  0.0000E+00  0.0000E+00  0.0000E+00  0.0000E+00  0.0000E+00  0.0000E+00  0.0000E+00  0.0000E+00  0.0000E+00  0.0000E+00  0.0000E+00  0.0000E+00  0.0000E+00  0.0000E+00  0.0000E+00  0.0000E+00  0.0000E+00  0.0000E+00
    -41.419  0.0000E+00  0.0000E+00  0.0000E+00  0.0000E+00  0.0000E+00  0.0000E+00  0.0000E+00  0.0000E+00  0.0000E+00  0.0000E+00  0.0000E+00  0.0000E+00  0.0000E+00  0.0000E+00  0.0000E+00  0.0000E+00  0.0000E+00  0.0000E+00
    -41.227  0.0000E+00  0.0000E+00  0.0000E+00  0.0000E+00  0.0000E+00  0.0000E+00  0.0000E+00  0.0000E+00  0.0000E+00  0.0000E+00  0.0000E+00  0.0000E+00  0.0000E+00  0.0000E+00  0.0000E+00  0.0000E+00  0.0000E+00  0.0000E+00
    -41.036  0.0000E+00  0.0000E+00  0.0000E+00  0.0000E+00  0.0000E+00  0.0000E+00  0.0000E+00  0.0000E+00  0.0000E+00  0.0000E+00  0.0000E+00  0.0000E+00  0.0000E+00  0.0000E+00  0.0000E+00  0.0000E+00  0.0000E+00  0.0000E+00
    -40.844  0.0000E+00  0.0000E+00  0.0000E+00  0.0000E+00  0.0000E+00  0.0000E+00  0.0000E+00  0.0000E+00  0.0000E+00  0.0000E+00  0.0000E+00  0.0000E+00  0.0000E+00  0.0000E+00  0.0000E+00  0.0000E+00  0.0000E+00  0.0000E+00
    -40.653  0.0000E+00  0.0000E+00  0.0000E+00  0.0000E+00  0.0000E+00  0.0000E+00  0.0000E+00  0.0000E+00  0.0000E+00  0.0000E+00  0.0000E+00  0.0000E+00  0.0000E+00  0.0000E+00  0.0000E+00  0.0000E+00  0.0000E+00  0.0000E+00
    -40.461  0.0000E+00  0.0000E+00  0.0000E+00  0.0000E+00  0.0000E+00  0.0000E+00  0.0000E+00  0.0000E+00  0.0000E+00  0.0000E+00  0.0000E+00  0.0000E+00  0.0000E+00  0.0000E+00  0.0000E+00  0.0000E+00  0.0000E+00  0.0000E+00
    -40.270  0.0000E+00  0.0000E+00  0.0000E+00  0.0000E+00  0.0000E+00  0.0000E+00  0.0000E+00  0.0000E+00  0.0000E+00  0.0000E+00  0.0000E+00  0.0000E+00  0.0000E+00  0.0000E+00  0.0000E+00  0.0000E+00  0.0000E+00  0.0000E+00
    -40.079  0.0000E+00  0.0000E+00  0.0000E+00  0.0000E+00  0.0000E+00  0.0000E+00  0.0000E+00  0.0000E+00  0.0000E+00  0.0000E+00  0.0000E+00  0.0000E+00  0.0000E+00  0.0000E+00  0.0000E+00  0.0000E+00  0.0000E+00  0.0000E+00
    -39.887  0.0000E+00  0.0000E+00  0.0000E+00  0.0000E+00  0.0000E+00  0.0000E+00  0.0000E+00  0.0000E+00  0.0000E+00  0.0000E+00  0.0000E+00  0.0000E+00  0.0000E+00  0.0000E+00  0.0000E+00  0.0000E+00  0.0000E+00  0.0000E+00
    -39.696  0.0000E+00  0.0000E+00  0.0000E+00  0.0000E+00  0.0000E+00  0.0000E+00  0.0000E+00  0.0000E+00  0.0000E+00  0.0000E+00  0.0000E+00  0.0000E+00  0.0000E+00  0.0000E+00  0.0000E+00  0.0000E+00  0.0000E+00  0.0000E+00
    -39.504  0.0000E+00  0.0000E+00  0.0000E+00  0.0000E+00  0.0000E+00  0.0000E+00  0.0000E+00  0.0000E+00  0.0000E+00  0.0000E+00  0.0000E+00  0.0000E+00  0.0000E+00  0.0000E+00  0.0000E+00  0.0000E+00  0.0000E+00  0.0000E+00
    -39.313  0.0000E+00  0.0000E+00  0.0000E+00  0.0000E+00  0.0000E+00  0.0000E+00  0.0000E+00  0.0000E+00  0.0000E+00  0.0000E+00  0.0000E+00  0.0000E+00  0.0000E+00  0.0000E+00  0.0000E+00  0.0000E+00  0.0000E+00  0.0000E+00
    -39.122  0.0000E+00  0.0000E+00  0.0000E+00  0.0000E+00  0.0000E+00  0.0000E+00  0.0000E+00  0.0000E+00  0.0000E+00  0.0000E+00  0.0000E+00  0.0000E+00  0.0000E+00  0.0000E+00  0.0000E+00  0.0000E+00  0.0000E+00  0.0000E+00
    -38.930  0.0000E+00  0.0000E+00  0.0000E+00  0.0000E+00  0.0000E+00  0.0000E+00  0.0000E+00  0.0000E+00  0.0000E+00  0.0000E+00  0.0000E+00  0.0000E+00  0.0000E+00  0.0000E+00  0.0000E+00  0.0000E+00  0.0000E+00  0.0000E+00
    -38.739  0.0000E+00  0.0000E+00  0.0000E+00  0.0000E+00  0.0000E+00  0.0000E+00  0.0000E+00  0.0000E+00  0.0000E+00  0.0000E+00  0.0000E+00  0.0000E+00  0.0000E+00  0.0000E+00  0.0000E+00  0.0000E+00  0.0000E+00  0.0000E+00
    -38.547  0.0000E+00  0.0000E+00  0.0000E+00  0.0000E+00  0.0000E+00  0.0000E+00  0.0000E+00  0.0000E+00  0.0000E+00  0.0000E+00  0.0000E+00  0.0000E+00  0.0000E+00  0.0000E+00  0.0000E+00  0.0000E+00  0.0000E+00  0.0000E+00
    -38.356  0.0000E+00  0.0000E+00  0.0000E+00  0.0000E+00  0.0000E+00  0.0000E+00  0.0000E+00  0.0000E+00  0.0000E+00  0.0000E+00  0.0000E+00  0.0000E+00  0.0000E+00  0.0000E+00  0.0000E+00  0.0000E+00  0.0000E+00  0.0000E+00
    -38.164  0.0000E+00  0.0000E+00  0.0000E+00  0.0000E+00  0.0000E+00  0.0000E+00  0.0000E+00  0.0000E+00  0.0000E+00  0.0000E+00  0.0000E+00  0.0000E+00  0.0000E+00  0.0000E+00  0.0000E+00  0.0000E+00  0.0000E+00  0.0000E+00
    -37.973  0.0000E+00  0.0000E+00  0.0000E+00  0.0000E+00  0.0000E+00  0.0000E+00  0.0000E+00  0.0000E+00  0.0000E+00  0.0000E+00  0.0000E+00  0.0000E+00  0.0000E+00  0.0000E+00  0.0000E+00  0.0000E+00  0.0000E+00  0.0000E+00
    -37.782  0.0000E+00  0.0000E+00  0.0000E+00  0.0000E+00  0.0000E+00  0.0000E+00  0.0000E+00  0.0000E+00  0.0000E+00  0.0000E+00  0.0000E+00  0.0000E+00  0.0000E+00  0.0000E+00  0.0000E+00  0.0000E+00  0.0000E+00  0.0000E+00
    -37.590  0.0000E+00  0.0000E+00  0.0000E+00  0.0000E+00  0.0000E+00  0.0000E+00  0.0000E+00  0.0000E+00  0.0000E+00  0.0000E+00  0.0000E+00  0.0000E+00  0.0000E+00  0.0000E+00  0.0000E+00  0.0000E+00  0.0000E+00  0.0000E+00
    -37.399  0.0000E+00  0.0000E+00  0.0000E+00  0.0000E+00  0.0000E+00  0.0000E+00  0.0000E+00  0.0000E+00  0.0000E+00  0.0000E+00  0.0000E+00  0.0000E+00  0.0000E+00  0.0000E+00  0.0000E+00  0.0000E+00  0.0000E+00  0.0000E+00
    -37.207  0.0000E+00  0.0000E+00  0.0000E+00  0.0000E+00  0.0000E+00  0.0000E+00  0.0000E+00  0.0000E+00  0.0000E+00  0.0000E+00  0.0000E+00  0.0000E+00  0.0000E+00  0.0000E+00  0.0000E+00  0.0000E+00  0.0000E+00  0.0000E+00
    -37.016  0.0000E+00  0.0000E+00  0.0000E+00  0.0000E+00  0.0000E+00  0.0000E+00  0.0000E+00  0.0000E+00  0.0000E+00  0.0000E+00  0.0000E+00  0.0000E+00  0.0000E+00  0.0000E+00  0.0000E+00  0.0000E+00  0.0000E+00  0.0000E+00
    -36.824  0.0000E+00  0.0000E+00  0.0000E+00  0.0000E+00  0.0000E+00  0.0000E+00  0.0000E+00  0.0000E+00  0.0000E+00  0.0000E+00  0.0000E+00  0.0000E+00  0.0000E+00  0.0000E+00  0.0000E+00  0.0000E+00  0.0000E+00  0.0000E+00
    -36.633  0.0000E+00  0.0000E+00  0.0000E+00  0.0000E+00  0.0000E+00  0.0000E+00  0.0000E+00  0.0000E+00  0.0000E+00  0.0000E+00  0.0000E+00  0.0000E+00  0.0000E+00  0.0000E+00  0.0000E+00  0.0000E+00  0.0000E+00  0.0000E+00
    -36.442  0.0000E+00  0.0000E+00  0.0000E+00  0.0000E+00  0.0000E+00  0.0000E+00  0.0000E+00  0.0000E+00  0.0000E+00  0.0000E+00  0.0000E+00  0.0000E+00  0.0000E+00  0.0000E+00  0.0000E+00  0.0000E+00  0.0000E+00  0.0000E+00