   8   8   1   0
  0.2227937E+02  0.4276846E-09  0.4276846E-09  0.9744192E-09  0.5000000E-15
  1.000000000000000E-004
  CAR 
 unknown system                          
     11.73963225    -45.69316786  301      5.95474817      1.00000000
    -45.693  0.0000E+00  0.0000E+00  0.0000E+00  0.0000E+00
    -45.502  0.0000E+00  0.0000E+00  0.0000E+00  0.0000E+00
    -45.310  0.0000E+00  0.0000E+00  0.0000E+00  0.0000E+00
    -45.119  0.0000E+00  0.0000E+00  0.0000E+00  0.0000E+00
    -44.927  0.0000E+00  0.0000E+00  0.0000E+00  0.0000E+00
    -44.736  0.0000E+00  0.0000E+00  0.0000E+00  0.0000E+00
    -44.545  0.0000E+00  0.0000E+00  0.0000E+00  0.0000E+00
    -44.353  0.0000E+00  0.0000E+00  0.0000E+00  0.0000E+00
    -44.162  0.0000E+00  0.0000E+00  0.0000E+00  0.0000E+00
    -43.970  0.0000E+00  0.0000E+00  0.0000E+00  0.0000E+00
    -43.779  0.0000E+00  0.0000E+00  0.0000E+00  0.0000E+00
    -43.587  0.4160E-03  0.4234E-03  0.7964E-04  0.8106E-04
    -43.396  0.1869E-01  0.1902E-01  0.3658E-02  0.3723E-02
    -43.204  0.7931E+00  0.8061E+00  0.1555E+00  0.1580E+00
    -43.013  0.7493E+01  0.7510E+01  0.1590E+01  0.1596E+01
    -42.822  0.2083E+01  0.2054E+01  0.1989E+01  0.1989E+01
    -42.630  0.0000E+00  0.0000E+00  0.2000E+01  0.2000E+01
    -42.439  0.0000E+00  0.0000E+00  0.2000E+01  0.2000E+01
    -42.247  0.0000E+00  0.0000E+00  0.2000E+01  0.2000E+01
    -42.056  0.0000E+00  0.0000E+00  0.2000E+01  0.2000E+01
    -41.864  0.0000E+00  0.0000E+00  0.2000E+01  0.2000E+01
    -41.673  0.0000E+00  0.0000E+00  0.2000E+01  0.2000E+01
    -41.481  0.0000E+00  0.0000E+00  0.2000E+01  0.2000E+01
    -41.290  0.0000E+00  0.0000E+00  0.2000E+01  0.2000E+01
    -41.099  0.0000E+00  0.0000E+00  0.2000E+01  0.2000E+01
    -40.907  0.0000E+00  0.0000E+00  0.2000E+01  0.2000E+01
    -40.716  0.0000E+00  0.0000E+00  0.2000E+01  0.2000E+01
    -40.524  0.0000E+00  0.0000E+00  0.2000E+01  0.2000E+01
    -40.333  0.0000E+00  0.0000E+00  0.2000E+01  0.2000E+01
    -40.141  0.0000E+00  0.0000E+00  0.2000E+01  0.2000E+01
    -39.950  0.0000E+00  0.0000E+00  0.2000E+01  0.2000E+01
    -39.758  0.0000E+00  0.0000E+00  0.2000E+01  0.2000E+01
    -39.567  0.0000E+00  0.0000E+00  0.2000E+01  0.2000E+01
    -39.376  0.0000E+00  0.0000E+00  0.2000E+01  0.2000E+01
    -39.184  0.0000E+00  0.0000E+00  0.2000E+01  0.2000E+01
    -38.993  0.0000E+00  0.0000E+00  0.2000E+01  0.2000E+01
    -38.801  0.0000E+00  0.0000E+00  0.2000E+01  0.2000E+01
    -38.610  0.0000E+00  0.0000E+00  0.2000E+01  0.2000E+01
    -38.418  0.0000E+00  0.0000E+00  0.2000E+01  0.2000E+01
    -38.227  0.0000E+00  0.0000E+00  0.2000E+01  0.2000E+01
    -38.035  0.0000E+00  0.0000E+00  0.2000E+01  0.2000E+01
    -37.844  0.0000E+00  0.0000E+00  0.2000E+01  0.2000E+01
    -37.653  0.0000E+00  0.0000E+00  0.2000E+01  0.2000E+01
    -37.461  0.0000E+00  0.0000E+00  0.2000E+01  0.2000E+01
    -37.270  0.0000E+00  0.0000E+00  0.2000E+01  0.2000E+01
    -37.078  0.0000E+00  0.0000E+00  0.2000E+01  0.2000E+01
    -36.887  0.0000E+00  0.0000E+00  0.2000E+01  0.2000E+01
    -36.695  0.0000E+00  0.0000E+00  0.2000E+01  0.2000E+01
    -36.504  0.0000E+00  0.0000E+00  0.2000E+01  0.2000E+01
    -36.312  0.0000E+00  0.0000E+00  0.2000E+01  0.2000E+01
    -36.121  0.0000E+00  0.0000E+00  0.2000E+01  0.2000E+01
    -35.930  0.0000E+00  0.0000E+00  0.2000E+01  0.2000E+01
    -35.738  0.0000E+00  0.0000E+00  0.2000E+01  0.2000E+01
    -35.547  0.0000E+00  0.0000E+00  0.2000E+01  0.2000E+01
    -35.355  0.0000E+00  0.0000E+00  0.2000E+01  0.2000E+01
    -35.164  0.0000E+00  0.0000E+00  0.2000E+01  0.2000E+01
    -34.972  0.0000E+00  0.0000E+00  0.2000E+01  0.2000E+01
    -34.781  0.0000E+00  0.0000E+00  0.2000E+01  0.2000E+01
    -34.589  0.0000E+00  0.0000E+00  0.2000E+01  0.2000E+01
    -34.398  0.0000E+00  0.0000E+00  0.2000E+01  0.2000E+01
    -34.207  0.0000E+00  0.0000E+00  0.2000E+01  0.2000E+01
    -34.015  0.0000E+00  0.0000E+00  0.2000E+01  0.2000E+01
    -33.824  0.0000E+00  0.0000E+00  0.2000E+01  0.2000E+01
    -33.632  0.0000E+00  0.0000E+00  0.2000E+01  0.2000E+01
    -33.441  0.0000E+00  0.0000E+00  0.2000E+01  0.2000E+01
    -33.249  0.0000E+00  0.0000E+00  0.2000E+01  0.2000E+01
    -33.058  0.0000E+00  0.0000E+00  0.2000E+01  0.2000E+01
    -32.867  0.0000E+00  0.0000E+00  0.2000E+01  0.2000E+01
    -32.675  0.0000E+00  0.0000E+00  0.2000E+01  0.2000E+01
    -32.484  0.0000E+00  0.0000E+00  0.2000E+01  0.2000E+01
    -32.292  0.0000E+00  0.0000E+00  0.2000E+01  0.2000E+01
    -32.101  0.0000E+00  0.0000E+00  0.2000E+01  0.2000E+01
    -31.909  0.0000E+00  0.0000E+00  0.2000E+01  0.2000E+01
    -31.718  0.0000E+00  0.0000E+00  0.2000E+01  0.2000E+01
    -31.526  0.0000E+00  0.0000E+00  0.2000E+01  0.2000E+01
    -31.335  0.0000E+00  0.0000E+00  0.2000E+01  0.2000E+01
    -31.144  0.0000E+00  0.0000E+00  0.2000E+01  0.2000E+01
    -30.952  0.0000E+00  0.0000E+00  0.2000E+01  0.2000E+01
    -30.761  0.0000E+00  0.0000E+00  0.2000E+01  0.2000E+01
    -30.569  0.0000E+00  0.0000E+00  0.2000E+01  0.2000E+01
    -30.378  0.0000E+00  0.0000E+00  0.2000E+01  0.2000E+01
    -30.186  0.0000E+00  0.0000E+00  0.2000E+01  0.2000E+01
    -29.995  0.0000E+00  0.0000E+00  0.2000E+01  0.2000E+01
    -29.803  0.0000E+00  0.0000E+00  0.2000E+01  0.2000E+01
    -29.612  0.0000E+00  0.0000E+00  0.2000E+01  0.2000E+01
    -29.421  0.0000E+00  0.0000E+00  0.2000E+01  0.2000E+01
    -29.229  0.0000E+00  0.0000E+00  0.2000E+01  0.2000E+01
    -29.038  0.0000E+00  0.0000E+00  0.2000E+01  0.2000E+01
    -28.846  0.0000E+00  0.0000E+00  0.2000E+01  0.2000E+01
    -28.655  0.0000E+00  0.0000E+00  0.2000E+01  0.2000E+01
    -28.463  0.0000E+00  0.0000E+00  0.2000E+01  0.2000E+01
    -28.272  0.0000E+00  0.0000E+00  0.2000E+01  0.2000E+01
    -28.080  0.0000E+00  0.0000E+00  0.2000E+01  0.2000E+01
    -27.889  0.0000E+00  0.0000E+00  0.2000E+01  0.2000E+01
    -27.698  0.0000E+00  0.0000E+00  0.2000E+01  0.2000E+01
    -27.506  0.0000E+00  0.0000E+00  0.2000E+01  0.2000E+01
    -27.315  0.0000E+00  0.0000E+00  0.2000E+01  0.2000E+01
    -27.123  0.0000E+00  0.0000E+00  0.2000E+01  0.2000E+01
    -26.932  0.0000E+00  0.0000E+00  0.2000E+01  0.2000E+01
    -26.740  0.0000E+00  0.0000E+00  0.2000E+01  0.2000E+01
    -26.549  0.0000E+00  0.0000E+00  0.2000E+01  0.2000E+01
    -26.357  0.0000E+00  0.0000E+00  0.2000E+01  0.2000E+01
    -26.166  0.0000E+00  0.0000E+00  0.2000E+01  0.2000E+01
    -25.975  0.0000E+00  0.0000E+00  0.2000E+01  0.2000E+01
    -25.783  0.0000E+00  0.0000E+00  0.2000E+01  0.2000E+01
    -25.592  0.0000E+00  0.0000E+00  0.2000E+01  0.2000E+01
    -25.400  0.0000E+00  0.0000E+00  0.2000E+01  0.2000E+01
    -25.209  0.0000E+00  0.0000E+00  0.2000E+01  0.2000E+01
    -25.017  0.0000E+00  0.0000E+00  0.2000E+01  0.2000E+01
    -24.826  0.0000E+00  0.0000E+00  0.2000E+01  0.2000E+01
    -24.634  0.0000E+00  0.0000E+00  0.2000E+01  0.2000E+01
    -24.443  0.0000E+00  0.0000E+00  0.2000E+01  0.2000E+01
    -24.252  0.0000E+00  0.0000E+00  0.2000E+01  0.2000E+01
    -24.060  0.0000E+00  0.0000E+00  0.2000E+01  0.2000E+01
    -23.869  0.0000E+00  0.0000E+00  0.2000E+01  0.2000E+01
    -23.677  0.0000E+00  0.0000E+00  0.2000E+01  0.2000E+01
    -23.486  0.0000E+00  0.0000E+00  0.2000E+01  0.2000E+01
    -23.294  0.0000E+00  0.0000E+00  0.2000E+01  0.2000E+01
    -23.103  0.0000E+00  0.0000E+00  0.2000E+01  0.2000E+01
    -22.911  0.0000E+00  0.0000E+00  0.2000E+01  0.2000E+01
    -22.720  0.0000E+00  0.0000E+00  0.2000E+01  0.2000E+01
    -22.529  0.0000E+00  0.0000E+00  0.2000E+01  0.2000E+01
    -22.337  0.0000E+00  0.0000E+00  0.2000E+01  0.2000E+01
    -22.146  0.0000E+00  0.0000E+00  0.2000E+01  0.2000E+01
    -21.954  0.0000E+00  0.0000E+00  0.2000E+01  0.2000E+01
    -21.763  0.0000E+00  0.0000E+00  0.2000E+01  0.2000E+01
    -21.571  0.2214E-02  0.2251E-02  0.2000E+01  0.2000E+01
    -21.380  0.9925E-01  0.1009E+00  0.2019E+01  0.2020E+01
    -21.189  0.3855E+01  0.3910E+01  0.2758E+01  0.2768E+01
    -20.997  0.2220E+02  0.2221E+02  0.7008E+01  0.7021E+01
    -20.806  0.5035E+01  0.4973E+01  0.7972E+01  0.7973E+01
    -20.614  0.0000E+00  0.0000E+00  0.8000E+01  0.8000E+01
    -20.423  0.0000E+00  0.0000E+00  0.8000E+01  0.8000E+01
    -20.231  0.0000E+00  0.0000E+00  0.8000E+01  0.8000E+01
    -20.040  0.0000E+00  0.0000E+00  0.8000E+01  0.8000E+01
    -19.848  0.0000E+00  0.0000E+00  0.8000E+01  0.8000E+01
    -19.657  0.0000E+00  0.0000E+00  0.8000E+01  0.8000E+01
    -19.466  0.0000E+00  0.0000E+00  0.8000E+01  0.8000E+01
    -19.274  0.0000E+00  0.0000E+00  0.8000E+01  0.8000E+01
    -19.083  0.0000E+00  0.0000E+00  0.8000E+01  0.8000E+01
    -18.891  0.0000E+00  0.0000E+00  0.8000E+01  0.8000E+01
    -18.700  0.0000E+00  0.0000E+00  0.8000E+01  0.8000E+01
    -18.508  0.0000E+00  0.0000E+00  0.8000E+01  0.8000E+01
    -18.317  0.0000E+00  0.0000E+00  0.8000E+01  0.8000E+01
    -18.125  0.0000E+00  0.0000E+00  0.8000E+01  0.8000E+01
    -17.934  0.0000E+00  0.0000E+00  0.8000E+01  0.8000E+01
    -17.743  0.0000E+00  0.0000E+00  0.8000E+01  0.8000E+01
    -17.551  0.0000E+00  0.0000E+00  0.8000E+01  0.8000E+01
    -17.360  0.0000E+00  0.0000E+00  0.8000E+01  0.8000E+01
    -17.168  0.0000E+00  0.0000E+00  0.8000E+01  0.8000E+01
    -16.977  0.0000E+00  0.0000E+00  0.8000E+01  0.8000E+01
    -16.785  0.0000E+00  0.0000E+00  0.8000E+01  0.8000E+01
    -16.594  0.0000E+00  0.0000E+00  0.8000E+01  0.8000E+01
    -16.402  0.0000E+00  0.0000E+00  0.8000E+01  0.8000E+01
    -16.211  0.0000E+00  0.0000E+00  0.8000E+01  0.8000E+01
    -16.020  0.0000E+00  0.0000E+00  0.8000E+01  0.8000E+01
    -15.828  0.0000E+00  0.0000E+00  0.8000E+01  0.8000E+01
    -15.637  0.0000E+00  0.0000E+00  0.8000E+01  0.8000E+01
    -15.445  0.0000E+00  0.0000E+00  0.8000E+01  0.8000E+01
    -15.254  0.0000E+00  0.0000E+00  0.8000E+01  0.8000E+01
    -15.062  0.0000E+00  0.0000E+00  0.8000E+01  0.8000E+01
    -14.871  0.0000E+00  0.0000E+00  0.8000E+01  0.8000E+01
    -14.679  0.0000E+00  0.0000E+00  0.8000E+01  0.8000E+01
    -14.488  0.0000E+00  0.0000E+00  0.8000E+01  0.8000E+01
    -14.297  0.0000E+00  0.0000E+00  0.8000E+01  0.8000E+01
    -14.105  0.0000E+00  0.0000E+00  0.8000E+01  0.8000E+01
    -13.914  0.0000E+00  0.0000E+00  0.8000E+01  0.8000E+01
    -13.722  0.0000E+00  0.0000E+00  0.8000E+01  0.8000E+01
    -13.531  0.0000E+00  0.0000E+00  0.8000E+01  0.8000E+01
    -13.339  0.0000E+00  0.0000E+00  0.8000E+01  0.8000E+01
    -13.148  0.0000E+00  0.0000E+00  0.8000E+01  0.8000E+01
    -12.956  0.0000E+00  0.0000E+00  0.8000E+01  0.8000E+01
    -12.765  0.0000E+00  0.0000E+00  0.8000E+01  0.8000E+01
    -12.574  0.0000E+00  0.0000E+00  0.8000E+01  0.8000E+01
    -12.382  0.0000E+00  0.0000E+00  0.8000E+01  0.8000E+01
    -12.191  0.0000E+00  0.0000E+00  0.8000E+01  0.8000E+01
    -11.999  0.0000E+00  0.0000E+00  0.8000E+01  0.8000E+01
    -11.808  0.0000E+00  0.0000E+00  0.8000E+01  0.8000E+01
    -11.616  0.0000E+00  0.0000E+00  0.8000E+01  0.8000E+01
    -11.425  0.0000E+00  0.0000E+00  0.8000E+01  0.8000E+01
    -11.233  0.0000E+00  0.0000E+00  0.8000E+01  0.8000E+01
    -11.042  0.0000E+00  0.0000E+00  0.8000E+01  0.8000E+01
    -10.851  0.0000E+00  0.0000E+00  0.8000E+01  0.8000E+01
    -10.659  0.0000E+00  0.0000E+00  0.8000E+01  0.8000E+01
    -10.468  0.0000E+00  0.0000E+00  0.8000E+01  0.8000E+01
    -10.276  0.0000E+00  0.0000E+00  0.8000E+01  0.8000E+01
    -10.085  0.0000E+00  0.0000E+00  0.8000E+01  0.8000E+01
     -9.893  0.0000E+00  0.0000E+00  0.8000E+01  0.8000E+01
     -9.702  0.0000E+00  0.0000E+00  0.8000E+01  0.8000E+01
     -9.511  0.0000E+00  0.0000E+00  0.8000E+01  0.8000E+01
     -9.319  0.0000E+00  0.0000E+00  0.8000E+01  0.8000E+01
     -9.128  0.0000E+00  0.0000E+00  0.8000E+01  0.8000E+01
     -8.936  0.0000E+00  0.0000E+00  0.8000E+01  0.8000E+01
     -8.745  0.0000E+00  0.0000E+00  0.8000E+01  0.8000E+01
     -8.553  0.0000E+00  0.0000E+00  0.8000E+01  0.8000E+01
     -8.362  0.0000E+00  0.0000E+00  0.8000E+01  0.8000E+01
     -8.170  0.0000E+00  0.0000E+00  0.8000E+01  0.8000E+01
     -7.979  0.0000E+00  0.0000E+00  0.8000E+01  0.8000E+01
     -7.788  0.0000E+00  0.0000E+00  0.8000E+01  0.8000E+01
     -7.596  0.0000E+00  0.0000E+00  0.8000E+01  0.8000E+01
     -7.405  0.0000E+00  0.0000E+00  0.8000E+01  0.8000E+01
     -7.213  0.0000E+00  0.0000E+00  0.8000E+01  0.8000E+01
     -7.022  0.0000E+00  0.0000E+00  0.8000E+01  0.8000E+01
     -6.830  0.0000E+00  0.0000E+00  0.8000E+01  0.8000E+01
     -6.639  0.0000E+00  0.0000E+00  0.8000E+01  0.8000E+01
     -6.447  0.0000E+00  0.0000E+00  0.8000E+01  0.8000E+01
     -6.256  0.0000E+00  0.0000E+00  0.8000E+01  0.8000E+01
     -6.065  0.0000E+00  0.0000E+00  0.8000E+01  0.8000E+01
     -5.873  0.0000E+00  0.0000E+00  0.8000E+01  0.8000E+01
     -5.682  0.0000E+00  0.0000E+00  0.8000E+01  0.8000E+01
     -5.490  0.0000E+00  0.0000E+00  0.8000E+01  0.8000E+01
     -5.299  0.0000E+00  0.0000E+00  0.8000E+01  0.8000E+01
     -5.107  0.0000E+00  0.0000E+00  0.8000E+01  0.8000E+01
     -4.916  0.0000E+00  0.0000E+00  0.8000E+01  0.8000E+01
     -4.724  0.0000E+00  0.0000E+00  0.8000E+01  0.8000E+01
     -4.533  0.0000E+00  0.0000E+00  0.8000E+01  0.8000E+01
     -4.342  0.0000E+00  0.0000E+00  0.8000E+01  0.8000E+01
     -4.150  0.0000E+00  0.0000E+00  0.8000E+01  0.8000E+01
     -3.959  0.0000E+00  0.0000E+00  0.8000E+01  0.8000E+01
     -3.767  0.0000E+00  0.0000E+00  0.8000E+01  0.8000E+01
     -3.576  0.0000E+00  0.0000E+00  0.8000E+01  0.8000E+01
     -3.384  0.0000E+00  0.0000E+00  0.8000E+01  0.8000E+01
     -3.193  0.0000E+00  0.0000E+00  0.8000E+01  0.8000E+01
     -3.001  0.0000E+00  0.0000E+00  0.8000E+01  0.8000E+01
     -2.810  0.5073E-05  0.5126E-05  0.8000E+01  0.8000E+01
     -2.619  0.2482E-03  0.2507E-03  0.8000E+01  0.8000E+01
     -2.427  0.1009E-01  0.1018E-01  0.8002E+01  0.8002E+01
     -2.236  0.1172E+00  0.1177E+00  0.8024E+01  0.8025E+01
     -2.044  0.2792E+00  0.2795E+00  0.8078E+01  0.8078E+01
     -1.853  0.3839E+00  0.3842E+00  0.8151E+01  0.8152E+01
     -1.661  0.4685E+00  0.4686E+00  0.8241E+01  0.8242E+01
     -1.470  0.5571E+00  0.5575E+00  0.8348E+01  0.8349E+01
     -1.278  0.6370E+00  0.6369E+00  0.8471E+01  0.8471E+01
     -1.087  0.7107E+00  0.7113E+00  0.8607E+01  0.8607E+01
     -0.896  0.8272E+00  0.8271E+00  0.8766E+01  0.8766E+01
     -0.704  0.8025E+00  0.8026E+00  0.8920E+01  0.8921E+01
     -0.513  0.8431E+00  0.8432E+00  0.9082E+01  0.9083E+01
     -0.321  0.9624E+00  0.9623E+00  0.9267E+01  0.9267E+01
     -0.130  0.9333E+00  0.9335E+00  0.9446E+01  0.9446E+01
      0.062  0.1117E+01  0.1118E+01  0.9661E+01  0.9661E+01
      0.253  0.1035E+01  0.1036E+01  0.9860E+01  0.9860E+01
      0.445  0.1258E+01  0.1259E+01  0.1010E+02  0.1010E+02
      0.636  0.1339E+01  0.1338E+01  0.1036E+02  0.1036E+02
      0.827  0.1334E+01  0.1334E+01  0.1062E+02  0.1062E+02
      1.019  0.1289E+01  0.1288E+01  0.1086E+02  0.1086E+02
      1.210  0.9622E+00  0.9621E+00  0.1105E+02  0.1105E+02
      1.402  0.1071E+01  0.1071E+01  0.1125E+02  0.1126E+02
      1.593  0.1163E+01  0.1164E+01  0.1148E+02  0.1148E+02
      1.785  0.1578E+01  0.1579E+01  0.1178E+02  0.1178E+02
      1.976  0.1617E+01  0.1616E+01  0.1209E+02  0.1209E+02
      2.167  0.1660E+01  0.1661E+01  0.1241E+02  0.1241E+02
      2.359  0.1549E+01  0.1548E+01  0.1271E+02  0.1271E+02
      2.550  0.1247E+01  0.1248E+01  0.1295E+02  0.1295E+02
      2.742  0.1482E+01  0.1481E+01  0.1323E+02  0.1323E+02
      2.933  0.1152E+01  0.1152E+01  0.1346E+02  0.1346E+02
      3.125  0.1265E+01  0.1266E+01  0.1370E+02  0.1370E+02
      3.316  0.1532E+01  0.1533E+01  0.1399E+02  0.1399E+02
      3.508  0.1373E+01  0.1375E+01  0.1426E+02  0.1426E+02
      3.699  0.1969E+01  0.1970E+01  0.1463E+02  0.1464E+02
      3.890  0.2039E+01  0.2038E+01  0.1503E+02  0.1503E+02
      4.082  0.1928E+01  0.1929E+01  0.1540E+02  0.1540E+02
      4.273  0.2107E+01  0.2106E+01  0.1580E+02  0.1580E+02
      4.465  0.2236E+01  0.2239E+01  0.1623E+02  0.1623E+02
      4.656  0.3156E+01  0.3159E+01  0.1684E+02  0.1684E+02
      4.848  0.3514E+01  0.3516E+01  0.1751E+02  0.1751E+02
      5.039  0.3848E+01  0.3852E+01  0.1825E+02  0.1825E+02
      5.231  0.3974E+01  0.3970E+01  0.1902E+02  0.1902E+02
      5.422  0.3284E+01  0.3283E+01  0.1965E+02  0.1965E+02
      5.613  0.2848E+01  0.2848E+01  0.2019E+02  0.2020E+02
      5.805  0.2742E+01  0.2740E+01  0.2072E+02  0.2072E+02
      5.996  0.1770E+01  0.1765E+01  0.2106E+02  0.2106E+02
      6.188  0.1394E+01  0.1393E+01  0.2133E+02  0.2133E+02
      6.379  0.1260E+01  0.1258E+01  0.2157E+02  0.2158E+02
      6.571  0.1096E+01  0.1097E+01  0.2179E+02  0.2179E+02
      6.762  0.1158E+01  0.1159E+01  0.2201E+02  0.2201E+02
      6.954  0.1405E+01  0.1407E+01  0.2228E+02  0.2228E+02
      7.145  0.2602E+01  0.2614E+01  0.2278E+02  0.2278E+02
      7.336  0.3259E+01  0.3262E+01  0.2340E+02  0.2341E+02
      7.528  0.2809E+01  0.2822E+01  0.2394E+02  0.2395E+02
      7.719  0.3258E+01  0.3265E+01  0.2457E+02  0.2458E+02
      7.911  0.3877E+01  0.3941E+01  0.2531E+02  0.2533E+02
      8.102  0.4693E+01  0.4797E+01  0.2621E+02  0.2625E+02
      8.294  0.3997E+01  0.3930E+01  0.2698E+02  0.2701E+02
      8.485  0.2534E+01  0.2629E+01  0.2747E+02  0.2752E+02
      8.677  0.1571E+01  0.1533E+01  0.2777E+02  0.2781E+02
      8.868  0.7896E+00  0.6884E+00  0.2793E+02  0.2795E+02
      9.059  0.3015E+00  0.1893E+00  0.2799E+02  0.2798E+02
      9.251  0.6811E-01  0.7515E-01  0.2800E+02  0.2800E+02
      9.442  0.1317E-02  0.6492E-02  0.2800E+02  0.2800E+02
      9.634  0.0000E+00  0.0000E+00  0.2800E+02  0.2800E+02
      9.825  0.0000E+00  0.0000E+00  0.2800E+02  0.2800E+02
     10.017  0.0000E+00  0.0000E+00  0.2800E+02  0.2800E+02
     10.208  0.0000E+00  0.0000E+00  0.2800E+02  0.2800E+02
     10.400  0.0000E+00  0.0000E+00  0.2800E+02  0.2800E+02
     10.591  0.0000E+00  0.0000E+00  0.2800E+02  0.2800E+02
     10.782  0.0000E+00  0.0000E+00  0.2800E+02  0.2800E+02
     10.974  0.0000E+00  0.0000E+00  0.2800E+02  0.2800E+02
     11.165  0.0000E+00  0.0000E+00  0.2800E+02  0.2800E+02
     11.357  0.0000E+00  0.0000E+00  0.2800E+02  0.2800E+02
     11.548  0.0000E+00  0.0000E+00  0.2800E+02  0.2800E+02
     11.740  0.0000E+00  0.0000E+00  0.2800E+02  0.2800E+02
     11.73963225    -45.69316786  301      5.95474817      1.00000000
    -45.693  0.0000E+00  0.0000E+00  0.0000E+00  0.0000E+00  0.0000E+00  0.0000E+00  0.0000E+00  0.0000E+00  0.0000E+00  0.0000E+00  0.0000E+00  0.0000E+00  0.0000E+00  0.0000E+00  0.0000E+00  0.0000E+00  0.0000E+00  0.0000E+00
    -45.502  0.0000E+00  0.0000E+00  0.0000E+00  0.0000E+00  0.0000E+00  0.0000E+00  0.0000E+00  0.0000E+00  0.0000E+00  0.0000E+00  0.0000E+00  0.0000E+00  0.0000E+00  0.0000E+00  0.0000E+00  0.0000E+00  0.0000E+00  0.0000E+00
    -45.310  0.0000E+00  0.0000E+00  0.0000E+00  0.0000E+00  0.0000E+00  0.0000E+00  0.0000E+00  0.0000E+00  0.0000E+00  0.0000E+00  0.0000E+00  0.0000E+00  0.0000E+00  0.0000E+00  0.0000E+00  0.0000E+00  0.0000E+00  0.0000E+00
    -45.119  0.0000E+00  0.0000E+00  0.0000E+00  0.0000E+00  0.0000E+00  0.0000E+00  0.0000E+00  0.0000E+00  0.0000E+00  0.0000E+00  0.0000E+00  0.0000E+00  0.0000E+00  0.0000E+00  0.0000E+00  0.0000E+00  0.0000E+00  0.0000E+00
    -44.927  0.0000E+00  0.0000E+00  0.0000E+00  0.0000E+00  0.0000E+00  0.0000E+00  0.0000E+00  0.0000E+00  0.0000E+00  0.0000E+00  0.0000E+00  0.0000E+00  0.0000E+00  0.0000E+00  0.0000E+00  0.0000E+00  0.0000E+00  0.0000E+00
    -44.736  0.0000E+00  0.0000E+00  0.0000E+00  0.0000E+00  0.0000E+00  0.0000E+00  0.0000E+00  0.0000E+00  0.0000E+00  0.0000E+00  0.0000E+00  0.0000E+00  0.0000E+00  0.0000E+00  0.0000E+00  0.0000E+00  0.0000E+00  0.0000E+00
    -44.545  0.0000E+00  0.0000E+00  0.0000E+00  0.0000E+00  0.0000E+00  0.0000E+00  0.0000E+00  0.0000E+00  0.0000E+00  0.0000E+00  0.0000E+00  0.0000E+00  0.0000E+00  0.0000E+00  0.0000E+00  0.0000E+00  0.0000E+00  0.0000E+00
    -44.353  0.0000E+00  0.0000E+00  0.0000E+00  0.0000E+00  0.0000E+00  0.0000E+00  0.0000E+00  0.0000E+00  0.0000E+00  0.0000E+00  0.0000E+00  0.0000E+00  0.0000E+00  0.0000E+00  0.0000E+00  0.0000E+00  0.0000E+00  0.0000E+00
    -44.162  0.0000E+00  0.0000E+00  0.0000E+00  0.0000E+00  0.0000E+00  0.0000E+00  0.0000E+00  0.0000E+00  0.0000E+00  0.0000E+00  0.0000E+00  0.0000E+00  0.0000E+00  0.0000E+00  0.0000E+00  0.0000E+00  0.0000E+00  0.0000E+00
    -43.970  0.0000E+00  0.0000E+00  0.0000E+00  0.0000E+00  0.0000E+00  0.0000E+00  0.0000E+00  0.0000E+00  0.0000E+00  0.0000E+00  0.0000E+00  0.0000E+00  0.0000E+00  0.0000E+00  0.0000E+00  0.0000E+00  0.0000E+00  0.0000E+00
    -43.779  0.0000E+00  0.0000E+00  0.0000E+00  0.0000E+00  0.0000E+00  0.0000E+00  0.0000E+00  0.0000E+00  0.0000E+00  0.0000E+00  0.0000E+00  0.0000E+00  0.0000E+00  0.0000E+00  0.0000E+00  0.0000E+00  0.0000E+00  0.0000E+00
    -43.587  0.2066E-03  0.2102E-03  0.2136E-12  0.2065E-12  0.2210E-15  0.1588E-15  0.2136E-12  0.2065E-12  0.3176E-15  0.2243E-15  0.2900E-15  0.1664E-15  0.1401E-09  0.1428E-09  0.2900E-15  0.1664E-15  0.2537E-12  0.2538E-12
    -43.396  0.9280E-02  0.9445E-02  0.9599E-11  0.9278E-11  0.9928E-14  0.7136E-14  0.9599E-11  0.9278E-11  0.1427E-13  0.1008E-13  0.1303E-13  0.7474E-14  0.6294E-08  0.6418E-08  0.1303E-13  0.7474E-14  0.1140E-10  0.1140E-10
    -43.204  0.3938E+00  0.4002E+00  0.4073E-09  0.3932E-09  0.4210E-12  0.3023E-12  0.4073E-09  0.3932E-09  0.6055E-12  0.4271E-12  0.5528E-12  0.3167E-12  0.2671E-06  0.2719E-06  0.5528E-12  0.3167E-12  0.4836E-09  0.4831E-09
    -43.013  0.3721E+01  0.3729E+01  0.3848E-08  0.3663E-08  0.3953E-11  0.2802E-11  0.3848E-08  0.3663E-08  0.5723E-11  0.3986E-11  0.5212E-11  0.2950E-11  0.2522E-05  0.2533E-05  0.5212E-11  0.2950E-11  0.4569E-08  0.4501E-08
    -42.822  0.1034E+01  0.1020E+01  0.1070E-08  0.1002E-08  0.1091E-11  0.7624E-12  0.1070E-08  0.1002E-08  0.1592E-11  0.1092E-11  0.1446E-11  0.8069E-12  0.7010E-06  0.6926E-06  0.1446E-11  0.8069E-12  0.1270E-08  0.1231E-08
    -42.630  0.0000E+00  0.0000E+00  0.0000E+00  0.0000E+00  0.0000E+00  0.0000E+00  0.0000E+00  0.0000E+00  0.0000E+00  0.0000E+00  0.0000E+00  0.0000E+00  0.0000E+00  0.0000E+00  0.0000E+00  0.0000E+00  0.0000E+00  0.0000E+00
    -42.439  0.0000E+00  0.0000E+00  0.0000E+00  0.0000E+00  0.0000E+00  0.0000E+00  0.0000E+00  0.0000E+00  0.0000E+00  0.0000E+00  0.0000E+00  0.0000E+00  0.0000E+00  0.0000E+00  0.0000E+00  0.0000E+00  0.0000E+00  0.0000E+00
    -42.247  0.0000E+00  0.0000E+00  0.0000E+00  0.0000E+00  0.0000E+00  0.0000E+00  0.0000E+00  0.0000E+00  0.0000E+00  0.0000E+00  0.0000E+00  0.0000E+00  0.0000E+00  0.0000E+00  0.0000E+00  0.0000E+00  0.0000E+00  0.0000E+00
    -42.056  0.0000E+00  0.0000E+00  0.0000E+00  0.0000E+00  0.0000E+00  0.0000E+00  0.0000E+00  0.0000E+00  0.0000E+00  0.0000E+00  0.0000E+00  0.0000E+00  0.0000E+00  0.0000E+00  0.0000E+00  0.0000E+00  0.0000E+00  0.0000E+00
    -41.864  0.0000E+00  0.0000E+00  0.0000E+00  0.0000E+00  0.0000E+00  0.0000E+00  0.0000E+00  0.0000E+00  0.0000E+00  0.0000E+00  0.0000E+00  0.0000E+00  0.0000E+00  0.0000E+00  0.0000E+00  0.0000E+00  0.0000E+00  0.0000E+00
    -41.673  0.0000E+00  0.0000E+00  0.0000E+00  0.0000E+00  0.0000E+00  0.0000E+00  0.0000E+00  0.0000E+00  0.0000E+00  0.0000E+00  0.0000E+00  0.0000E+00  0.0000E+00  0.0000E+00  0.0000E+00  0.0000E+00  0.0000E+00  0.0000E+00
    -41.481  0.0000E+00  0.0000E+00  0.0000E+00  0.0000E+00  0.0000E+00  0.0000E+00  0.0000E+00  0.0000E+00  0.0000E+00  0.0000E+00  0.0000E+00  0.0000E+00  0.0000E+00  0.0000E+00  0.0000E+00  0.0000E+00  0.0000E+00  0.0000E+00
    -41.290  0.0000E+00  0.0000E+00  0.0000E+00  0.0000E+00  0.0000E+00  0.0000E+00  0.0000E+00  0.0000E+00  0.0000E+00  0.0000E+00  0.0000E+00  0.0000E+00  0.0000E+00  0.0000E+00  0.0000E+00  0.0000E+00  0.0000E+00  0.0000E+00
    -41.099  0.0000E+00  0.0000E+00  0.0000E+00  0.0000E+00  0.0000E+00  0.0000E+00  0.0000E+00  0.0000E+00  0.0000E+00  0.0000E+00  0.0000E+00  0.0000E+00  0.0000E+00  0.0000E+00  0.0000E+00  0.0000E+00  0.0000E+00  0.0000E+00
    -40.907  0.0000E+00  0.0000E+00  0.0000E+00  0.0000E+00  0.0000E+00  0.0000E+00  0.0000E+00  0.0000E+00  0.0000E+00  0.0000E+00  0.0000E+00  0.0000E+00  0.0000E+00  0.0000E+00  0.0000E+00  0.0000E+00  0.0000E+00  0.0000E+00
    -40.716  0.0000E+00  0.0000E+00  0.0000E+00  0.0000E+00  0.0000E+00  0.0000E+00  0.0000E+00  0.0000E+00  0.0000E+00  0.0000E+00  0.0000E+00  0.0000E+00  0.0000E+00  0.0000E+00  0.0000E+00  0.0000E+00  0.0000E+00  0.0000E+00
    -40.524  0.0000E+00  0.0000E+00  0.0000E+00  0.0000E+00  0.0000E+00  0.0000E+00  0.0000E+00  0.0000E+00  0.0000E+00  0.0000E+00  0.0000E+00  0.0000E+00  0.0000E+00  0.0000E+00  0.0000E+00  0.0000E+00  0.0000E+00  0.0000E+00
    -40.333  0.0000E+00  0.0000E+00  0.0000E+00  0.0000E+00  0.0000E+00  0.0000E+00  0.0000E+00  0.0000E+00  0.0000E+00  0.0000E+00  0.0000E+00  0.0000E+00  0.0000E+00  0.0000E+00  0.0000E+00  0.0000E+00  0.0000E+00  0.0000E+00
    -40.141  0.0000E+00  0.0000E+00  0.0000E+00  0.0000E+00  0.0000E+00  0.0000E+00  0.0000E+00  0.0000E+00  0.0000E+00  0.0000E+00  0.0000E+00  0.0000E+00  0.0000E+00  0.0000E+00  0.0000E+00  0.0000E+00  0.0000E+00  0.0000E+00
    -39.950  0.0000E+00  0.0000E+00  0.0000E+00  0.0000E+00  0.0000E+00  0.0000E+00  0.0000E+00  0.0000E+00  0.0000E+00  0.0000E+00  0.0000E+00  0.0000E+00  0.0000E+00  0.0000E+00  0.0000E+00  0.0000E+00  0.0000E+00  0.0000E+00
    -39.758  0.0000E+00  0.0000E+00  0.0000E+00  0.0000E+00  0.0000E+00  0.0000E+00  0.0000E+00  0.0000E+00  0.0000E+00  0.0000E+00  0.0000E+00  0.0000E+00  0.0000E+00  0.0000E+00  0.0000E+00  0.0000E+00  0.0000E+00  0.0000E+00
    -39.567  0.0000E+00  0.0000E+00  0.0000E+00  0.0000E+00  0.0000E+00  0.0000E+00  0.0000E+00  0.0000E+00  0.0000E+00  0.0000E+00  0.0000E+00  0.0000E+00  0.0000E+00  0.0000E+00  0.0000E+00  0.0000E+00  0.0000E+00  0.0000E+00
    -39.376  0.0000E+00  0.0000E+00  0.0000E+00  0.0000E+00  0.0000E+00  0.0000E+00  0.0000E+00  0.0000E+00  0.0000E+00  0.0000E+00  0.0000E+00  0.0000E+00  0.0000E+00  0.0000E+00  0.0000E+00  0.0000E+00  0.0000E+00  0.0000E+00
    -39.184  0.0000E+00  0.0000E+00  0.0000E+00  0.0000E+00  0.0000E+00  0.0000E+00  0.0000E+00  0.0000E+00  0.0000E+00  0.0000E+00  0.0000E+00  0.0000E+00  0.0000E+00  0.0000E+00  0.0000E+00  0.0000E+00  0.0000E+00  0.0000E+00
    -38.993  0.0000E+00  0.0000E+00  0.0000E+00  0.0000E+00  0.0000E+00  0.0000E+00  0.0000E+00  0.0000E+00  0.0000E+00  0.0000E+00  0.0000E+00  0.0000E+00  0.0000E+00  0.0000E+00  0.0000E+00  0.0000E+00  0.0000E+00  0.0000E+00
    -38.801  0.0000E+00  0.0000E+00  0.0000E+00  0.0000E+00  0.0000E+00  0.0000E+00  0.0000E+00  0.0000E+00  0.0000E+00  0.0000E+00  0.0000E+00  0.0000E+00  0.0000E+00  0.0000E+00  0.0000E+00  0.0000E+00  0.0000E+00  0.0000E+00
    -38.610  0.0000E+00  0.0000E+00  0.0000E+00  0.0000E+00  0.0000E+00  0.0000E+00  0.0000E+00  0.0000E+00  0.0000E+00  0.0000E+00  0.0000E+00  0.0000E+00  0.0000E+00  0.0000E+00  0.0000E+00  0.0000E+00  0.0000E+00  0.0000E+00
    -38.418  0.0000E+00  0.0000E+00  0.0000E+00  0.0000E+00  0.0000E+00  0.0000E+00  0.0000E+00  0.0000E+00  0.0000E+00  0.0000E+00  0.0000E+00  0.0000E+00  0.0000E+00  0.0000E+00  0.0000E+00  0.0000E+00  0.0000E+00  0.0000E+00
    -38.227  0.0000E+00  0.0000E+00  0.0000E+00  0.0000E+00  0.0000E+00  0.0000E+00  0.0000E+00  0.0000E+00  0.0000E+00  0.0000E+00  0.0000E+00  0.0000E+00  0.0000E+00  0.0000E+00  0.0000E+00  0.0000E+00  0.0000E+00  0.0000E+00
    -38.035  0.0000E+00  0.0000E+00  0.0000E+00  0.0000E+00  0.0000E+00  0.0000E+00  0.0000E+00  0.0000E+00  0.0000E+00  0.0000E+00  0.0000E+00  0.0000E+00  0.0000E+00  0.0000E+00  0.0000E+00  0.0000E+00  0.0000E+00  0.0000E+00
    -37.844  0.0000E+00  0.0000E+00  0.0000E+00  0.0000E+00  0.0000E+00  0.0000E+00  0.0000E+00  0.0000E+00  0.0000E+00  0.0000E+00  0.0000E+00  0.0000E+00  0.0000E+00  0.0000E+00  0.0000E+00  0.0000E+00  0.0000E+00  0.0000E+00
    -37.653  0.0000E+00  0.0000E+00  0.0000E+00  0.0000E+00  0.0000E+00  0.0000E+00  0.0000E+00  0.0000E+00  0.0000E+00  0.0000E+00  0.0000E+00  0.0000E+00  0.0000E+00  0.0000E+00  0.0000E+00  0.0000E+00  0.0000E+00  0.0000E+00
    -37.461  0.0000E+00  0.0000E+00  0.0000E+00  0.0000E+00  0.0000E+00  0.0000E+00  0.0000E+00  0.0000E+00  0.0000E+00  0.0000E+00  0.0000E+00  0.0000E+00  0.0000E+00  0.0000E+00  0.0000E+00  0.0000E+00  0.0000E+00  0.0000E+00
    -37.270  0.0000E+00  0.0000E+00  0.0000E+00  0.0000E+00  0.0000E+00  0.0000E+00  0.0000E+00  0.0000E+00  0.0000E+00  0.0000E+00  0.0000E+00  0.0000E+00  0.0000E+00  0.0000E+00  0.0000E+00  0.0000E+00  0.0000E+00  0.0000E+00
    -37.078  0.0000E+00  0.0000E+00  0.0000E+00  0.0000E+00  0.0000E+00  0.0000E+00  0.0000E+00  0.0000E+00  0.0000E+00  0.0000E+00  0.0000E+00  0.0000E+00  0.0000E+00  0.0000E+00  0.0000E+00  0.0000E+00  0.0000E+00  0.0000E+00
    -36.887  0.0000E+00  0.0000E+00  0.0000E+00  0.0000E+00  0.0000E+00  0.0000E+00  0.0000E+00  0.0000E+00  0.0000E+00  0.0000E+00  0.0000E+00  0.0000E+00  0.0000E+00  0.0000E+00  0.0000E+00  0.0000E+00  0.0000E+00  0.0000E+00
    -36.695  0.0000E+00  0.0000E+00  0.0000E+00  0.0000E+00  0.0000E+00  0.0000E+00  0.0000E+00  0.0000E+00  0.0000E+00  0.0000E+00  0.0000E+00  0.0000E+00  0.0000E+00  0.0000E+00  0.0000E+00  0.0000E+00  0.0000E+00  0.0000E+00
    -36.504  0.0000E+00  0.0000E+00  0.0000E+00  0.0000E+00  0.0000E+00  0.0000E+00  0.0000E+00  0.0000E+00  0.0000E+00  0.0000E+00  0.0000E+00  0.0000E+00  0.0000E+00  0.0000E+00  0.0000E+00  0.0000E+00  0.0000E+00  0.0000E+00
    -36.312  0.0000E+00  0.0000E+00  0.0000E+00  0.0000E+00  0.0000E+00  0.0000E+00  0.0000E+00  0.0000E+00  0.0000E+00  0.0000E+00  0.0000E+00  0.0000E+00  0.0000E+00  0.0000E+00  0.0000E+00  0.0000E+00  0.0000E+00  0.0000E+00
    -36.121  0.0000E+00  0.0000E+00  0.0000E+00  0.0000E+00  0.0000E+00  0.0000E+00  0.0000E+00  0.0000E+00  0.0000E+00  0.0000E+00  0.0000E+00  0.0000E+00  0.0000E+00  0.0000E+00  0.0000E+00  0.0000E+00  0.0000E+00  0.0000E+00