   8   8   1   0
  0.1664600E+02  0.3880841E-09  0.3880841E-09  0.8841952E-09  0.5000000E-15
  1.000000000000000E-004
  CAR 
 unknown system                          
     15.85612012    -41.92682393  301      8.65477959      1.00000000
    -41.927  0.0000E+00  0.0000E+00  0.0000E+00  0.0000E+00
    -41.734  0.0000E+00  0.0000E+00  0.0000E+00  0.0000E+00
    -41.542  0.0000E+00  0.0000E+00  0.0000E+00  0.0000E+00
    -41.349  0.0000E+00  0.0000E+00  0.0000E+00  0.0000E+00
    -41.156  0.0000E+00  0.0000E+00  0.0000E+00  0.0000E+00
    -40.964  0.0000E+00  0.0000E+00  0.0000E+00  0.0000E+00
    -40.771  0.0000E+00  0.0000E+00  0.0000E+00  0.0000E+00
    -40.579  0.0000E+00  0.0000E+00  0.0000E+00  0.0000E+00
    -40.386  0.0000E+00  0.0000E+00  0.0000E+00  0.0000E+00
    -40.193  0.0000E+00  0.0000E+00  0.0000E+00  0.0000E+00
    -40.001  0.0000E+00  0.0000E+00  0.0000E+00  0.0000E+00
    -39.808  0.3651E-03  0.3654E-03  0.7032E-04  0.7037E-04
    -39.616  0.1680E-01  0.1681E-01  0.3306E-02  0.3309E-02
    -39.423  0.7339E+00  0.7345E+00  0.1447E+00  0.1448E+00
    -39.230  0.7407E+01  0.7408E+01  0.1571E+01  0.1572E+01
    -39.038  0.2165E+01  0.2164E+01  0.1988E+01  0.1988E+01
    -38.845  0.0000E+00  0.0000E+00  0.2000E+01  0.2000E+01
    -38.652  0.0000E+00  0.0000E+00  0.2000E+01  0.2000E+01
    -38.460  0.0000E+00  0.0000E+00  0.2000E+01  0.2000E+01
    -38.267  0.0000E+00  0.0000E+00  0.2000E+01  0.2000E+01
    -38.075  0.0000E+00  0.0000E+00  0.2000E+01  0.2000E+01
    -37.882  0.0000E+00  0.0000E+00  0.2000E+01  0.2000E+01
    -37.689  0.0000E+00  0.0000E+00  0.2000E+01  0.2000E+01
    -37.497  0.0000E+00  0.0000E+00  0.2000E+01  0.2000E+01
    -37.304  0.0000E+00  0.0000E+00  0.2000E+01  0.2000E+01
    -37.112  0.0000E+00  0.0000E+00  0.2000E+01  0.2000E+01
    -36.919  0.0000E+00  0.0000E+00  0.2000E+01  0.2000E+01
    -36.726  0.0000E+00  0.0000E+00  0.2000E+01  0.2000E+01
    -36.534  0.0000E+00  0.0000E+00  0.2000E+01  0.2000E+01
    -36.341  0.0000E+00  0.0000E+00  0.2000E+01  0.2000E+01
    -36.149  0.0000E+00  0.0000E+00  0.2000E+01  0.2000E+01
    -35.956  0.0000E+00  0.0000E+00  0.2000E+01  0.2000E+01
    -35.763  0.0000E+00  0.0000E+00  0.2000E+01  0.2000E+01
    -35.571  0.0000E+00  0.0000E+00  0.2000E+01  0.2000E+01
    -35.378  0.0000E+00  0.0000E+00  0.2000E+01  0.2000E+01
    -35.185  0.0000E+00  0.0000E+00  0.2000E+01  0.2000E+01
    -34.993  0.0000E+00  0.0000E+00  0.2000E+01  0.2000E+01
    -34.800  0.0000E+00  0.0000E+00  0.2000E+01  0.2000E+01
    -34.608  0.0000E+00  0.0000E+00  0.2000E+01  0.2000E+01
    -34.415  0.0000E+00  0.0000E+00  0.2000E+01  0.2000E+01
    -34.222  0.0000E+00  0.0000E+00  0.2000E+01  0.2000E+01
    -34.030  0.0000E+00  0.0000E+00  0.2000E+01  0.2000E+01
    -33.837  0.0000E+00  0.0000E+00  0.2000E+01  0.2000E+01
    -33.645  0.0000E+00  0.0000E+00  0.2000E+01  0.2000E+01
    -33.452  0.0000E+00  0.0000E+00  0.2000E+01  0.2000E+01
    -33.259  0.0000E+00  0.0000E+00  0.2000E+01  0.2000E+01
    -33.067  0.0000E+00  0.0000E+00  0.2000E+01  0.2000E+01
    -32.874  0.0000E+00  0.0000E+00  0.2000E+01  0.2000E+01
    -32.682  0.0000E+00  0.0000E+00  0.2000E+01  0.2000E+01
    -32.489  0.0000E+00  0.0000E+00  0.2000E+01  0.2000E+01
    -32.296  0.0000E+00  0.0000E+00  0.2000E+01  0.2000E+01
    -32.104  0.0000E+00  0.0000E+00  0.2000E+01  0.2000E+01
    -31.911  0.0000E+00  0.0000E+00  0.2000E+01  0.2000E+01
    -31.719  0.0000E+00  0.0000E+00  0.2000E+01  0.2000E+01
    -31.526  0.0000E+00  0.0000E+00  0.2000E+01  0.2000E+01
    -31.333  0.0000E+00  0.0000E+00  0.2000E+01  0.2000E+01
    -31.141  0.0000E+00  0.0000E+00  0.2000E+01  0.2000E+01
    -30.948  0.0000E+00  0.0000E+00  0.2000E+01  0.2000E+01
    -30.755  0.0000E+00  0.0000E+00  0.2000E+01  0.2000E+01
    -30.563  0.0000E+00  0.0000E+00  0.2000E+01  0.2000E+01
    -30.370  0.0000E+00  0.0000E+00  0.2000E+01  0.2000E+01
    -30.178  0.0000E+00  0.0000E+00  0.2000E+01  0.2000E+01
    -29.985  0.0000E+00  0.0000E+00  0.2000E+01  0.2000E+01
    -29.792  0.0000E+00  0.0000E+00  0.2000E+01  0.2000E+01
    -29.600  0.0000E+00  0.0000E+00  0.2000E+01  0.2000E+01
    -29.407  0.0000E+00  0.0000E+00  0.2000E+01  0.2000E+01
    -29.215  0.0000E+00  0.0000E+00  0.2000E+01  0.2000E+01
    -29.022  0.0000E+00  0.0000E+00  0.2000E+01  0.2000E+01
    -28.829  0.0000E+00  0.0000E+00  0.2000E+01  0.2000E+01
    -28.637  0.0000E+00  0.0000E+00  0.2000E+01  0.2000E+01
    -28.444  0.0000E+00  0.0000E+00  0.2000E+01  0.2000E+01
    -28.252  0.0000E+00  0.0000E+00  0.2000E+01  0.2000E+01
    -28.059  0.0000E+00  0.0000E+00  0.2000E+01  0.2000E+01
    -27.866  0.0000E+00  0.0000E+00  0.2000E+01  0.2000E+01
    -27.674  0.0000E+00  0.0000E+00  0.2000E+01  0.2000E+01
    -27.481  0.0000E+00  0.0000E+00  0.2000E+01  0.2000E+01
    -27.288  0.0000E+00  0.0000E+00  0.2000E+01  0.2000E+01
    -27.096  0.0000E+00  0.0000E+00  0.2000E+01  0.2000E+01
    -26.903  0.0000E+00  0.0000E+00  0.2000E+01  0.2000E+01
    -26.711  0.0000E+00  0.0000E+00  0.2000E+01  0.2000E+01
    -26.518  0.0000E+00  0.0000E+00  0.2000E+01  0.2000E+01
    -26.325  0.0000E+00  0.0000E+00  0.2000E+01  0.2000E+01
    -26.133  0.0000E+00  0.0000E+00  0.2000E+01  0.2000E+01
    -25.940  0.0000E+00  0.0000E+00  0.2000E+01  0.2000E+01
    -25.748  0.0000E+00  0.0000E+00  0.2000E+01  0.2000E+01
    -25.555  0.0000E+00  0.0000E+00  0.2000E+01  0.2000E+01
    -25.362  0.0000E+00  0.0000E+00  0.2000E+01  0.2000E+01
    -25.170  0.0000E+00  0.0000E+00  0.2000E+01  0.2000E+01
    -24.977  0.0000E+00  0.0000E+00  0.2000E+01  0.2000E+01
    -24.785  0.0000E+00  0.0000E+00  0.2000E+01  0.2000E+01
    -24.592  0.0000E+00  0.0000E+00  0.2000E+01  0.2000E+01
    -24.399  0.0000E+00  0.0000E+00  0.2000E+01  0.2000E+01
    -24.207  0.0000E+00  0.0000E+00  0.2000E+01  0.2000E+01
    -24.014  0.0000E+00  0.0000E+00  0.2000E+01  0.2000E+01
    -23.822  0.0000E+00  0.0000E+00  0.2000E+01  0.2000E+01
    -23.629  0.0000E+00  0.0000E+00  0.2000E+01  0.2000E+01
    -23.436  0.0000E+00  0.0000E+00  0.2000E+01  0.2000E+01
    -23.244  0.0000E+00  0.0000E+00  0.2000E+01  0.2000E+01
    -23.051  0.0000E+00  0.0000E+00  0.2000E+01  0.2000E+01
    -22.858  0.0000E+00  0.0000E+00  0.2000E+01  0.2000E+01
    -22.666  0.0000E+00  0.0000E+00  0.2000E+01  0.2000E+01
    -22.473  0.0000E+00  0.0000E+00  0.2000E+01  0.2000E+01
    -22.281  0.0000E+00  0.0000E+00  0.2000E+01  0.2000E+01
    -22.088  0.0000E+00  0.0000E+00  0.2000E+01  0.2000E+01
    -21.895  0.0000E+00  0.0000E+00  0.2000E+01  0.2000E+01
    -21.703  0.0000E+00  0.0000E+00  0.2000E+01  0.2000E+01
    -21.510  0.0000E+00  0.0000E+00  0.2000E+01  0.2000E+01
    -21.318  0.0000E+00  0.0000E+00  0.2000E+01  0.2000E+01
    -21.125  0.0000E+00  0.0000E+00  0.2000E+01  0.2000E+01
    -20.932  0.0000E+00  0.0000E+00  0.2000E+01  0.2000E+01
    -20.740  0.0000E+00  0.0000E+00  0.2000E+01  0.2000E+01
    -20.547  0.0000E+00  0.0000E+00  0.2000E+01  0.2000E+01
    -20.355  0.0000E+00  0.0000E+00  0.2000E+01  0.2000E+01
    -20.162  0.0000E+00  0.0000E+00  0.2000E+01  0.2000E+01
    -19.969  0.0000E+00  0.0000E+00  0.2000E+01  0.2000E+01
    -19.777  0.0000E+00  0.0000E+00  0.2000E+01  0.2000E+01
    -19.584  0.0000E+00  0.0000E+00  0.2000E+01  0.2000E+01
    -19.391  0.0000E+00  0.0000E+00  0.2000E+01  0.2000E+01
    -19.199  0.0000E+00  0.0000E+00  0.2000E+01  0.2000E+01
    -19.006  0.0000E+00  0.0000E+00  0.2000E+01  0.2000E+01
    -18.814  0.0000E+00  0.0000E+00  0.2000E+01  0.2000E+01
    -18.621  0.0000E+00  0.0000E+00  0.2000E+01  0.2000E+01
    -18.428  0.0000E+00  0.0000E+00  0.2000E+01  0.2000E+01
    -18.236  0.0000E+00  0.0000E+00  0.2000E+01  0.2000E+01
    -18.043  0.3988E-03  0.3978E-03  0.2000E+01  0.2000E+01
    -17.851  0.2095E-01  0.2089E-01  0.2004E+01  0.2004E+01
    -17.658  0.9255E+00  0.9231E+00  0.2182E+01  0.2182E+01
    -17.465  0.1385E+02  0.1383E+02  0.4850E+01  0.4846E+01
    -17.273  0.1525E+02  0.1527E+02  0.7787E+01  0.7786E+01
    -17.080  0.9904E+00  0.9936E+00  0.7996E+01  0.7996E+01
    -16.888  0.0000E+00  0.0000E+00  0.8000E+01  0.8000E+01
    -16.695  0.0000E+00  0.0000E+00  0.8000E+01  0.8000E+01
    -16.502  0.0000E+00  0.0000E+00  0.8000E+01  0.8000E+01
    -16.310  0.0000E+00  0.0000E+00  0.8000E+01  0.8000E+01
    -16.117  0.0000E+00  0.0000E+00  0.8000E+01  0.8000E+01
    -15.924  0.0000E+00  0.0000E+00  0.8000E+01  0.8000E+01
    -15.732  0.0000E+00  0.0000E+00  0.8000E+01  0.8000E+01
    -15.539  0.0000E+00  0.0000E+00  0.8000E+01  0.8000E+01
    -15.347  0.0000E+00  0.0000E+00  0.8000E+01  0.8000E+01
    -15.154  0.0000E+00  0.0000E+00  0.8000E+01  0.8000E+01
    -14.961  0.0000E+00  0.0000E+00  0.8000E+01  0.8000E+01
    -14.769  0.0000E+00  0.0000E+00  0.8000E+01  0.8000E+01
    -14.576  0.0000E+00  0.0000E+00  0.8000E+01  0.8000E+01
    -14.384  0.0000E+00  0.0000E+00  0.8000E+01  0.8000E+01
    -14.191  0.0000E+00  0.0000E+00  0.8000E+01  0.8000E+01
    -13.998  0.0000E+00  0.0000E+00  0.8000E+01  0.8000E+01
    -13.806  0.0000E+00  0.0000E+00  0.8000E+01  0.8000E+01
    -13.613  0.0000E+00  0.0000E+00  0.8000E+01  0.8000E+01
    -13.421  0.0000E+00  0.0000E+00  0.8000E+01  0.8000E+01
    -13.228  0.0000E+00  0.0000E+00  0.8000E+01  0.8000E+01
    -13.035  0.0000E+00  0.0000E+00  0.8000E+01  0.8000E+01
    -12.843  0.0000E+00  0.0000E+00  0.8000E+01  0.8000E+01
    -12.650  0.0000E+00  0.0000E+00  0.8000E+01  0.8000E+01
    -12.458  0.0000E+00  0.0000E+00  0.8000E+01  0.8000E+01
    -12.265  0.0000E+00  0.0000E+00  0.8000E+01  0.8000E+01
    -12.072  0.0000E+00  0.0000E+00  0.8000E+01  0.8000E+01
    -11.880  0.0000E+00  0.0000E+00  0.8000E+01  0.8000E+01
    -11.687  0.0000E+00  0.0000E+00  0.8000E+01  0.8000E+01
    -11.494  0.0000E+00  0.0000E+00  0.8000E+01  0.8000E+01
    -11.302  0.0000E+00  0.0000E+00  0.8000E+01  0.8000E+01
    -11.109  0.0000E+00  0.0000E+00  0.8000E+01  0.8000E+01
    -10.917  0.0000E+00  0.0000E+00  0.8000E+01  0.8000E+01
    -10.724  0.0000E+00  0.0000E+00  0.8000E+01  0.8000E+01
    -10.531  0.0000E+00  0.0000E+00  0.8000E+01  0.8000E+01
    -10.339  0.0000E+00  0.0000E+00  0.8000E+01  0.8000E+01
    -10.146  0.0000E+00  0.0000E+00  0.8000E+01  0.8000E+01
     -9.954  0.0000E+00  0.0000E+00  0.8000E+01  0.8000E+01
     -9.761  0.0000E+00  0.0000E+00  0.8000E+01  0.8000E+01
     -9.568  0.0000E+00  0.0000E+00  0.8000E+01  0.8000E+01
     -9.376  0.0000E+00  0.0000E+00  0.8000E+01  0.8000E+01
     -9.183  0.0000E+00  0.0000E+00  0.8000E+01  0.8000E+01
     -8.991  0.0000E+00  0.0000E+00  0.8000E+01  0.8000E+01
     -8.798  0.0000E+00  0.0000E+00  0.8000E+01  0.8000E+01
     -8.605  0.0000E+00  0.0000E+00  0.8000E+01  0.8000E+01
     -8.413  0.0000E+00  0.0000E+00  0.8000E+01  0.8000E+01
     -8.220  0.0000E+00  0.0000E+00  0.8000E+01  0.8000E+01
     -8.027  0.0000E+00  0.0000E+00  0.8000E+01  0.8000E+01
     -7.835  0.0000E+00  0.0000E+00  0.8000E+01  0.8000E+01
     -7.642  0.0000E+00  0.0000E+00  0.8000E+01  0.8000E+01
     -7.450  0.0000E+00  0.0000E+00  0.8000E+01  0.8000E+01
     -7.257  0.0000E+00  0.0000E+00  0.8000E+01  0.8000E+01
     -7.064  0.0000E+00  0.0000E+00  0.8000E+01  0.8000E+01
     -6.872  0.0000E+00  0.0000E+00  0.8000E+01  0.8000E+01
     -6.679  0.0000E+00  0.0000E+00  0.8000E+01  0.8000E+01
     -6.487  0.0000E+00  0.0000E+00  0.8000E+01  0.8000E+01
     -6.294  0.0000E+00  0.0000E+00  0.8000E+01  0.8000E+01
     -6.101  0.0000E+00  0.0000E+00  0.8000E+01  0.8000E+01
     -5.909  0.0000E+00  0.0000E+00  0.8000E+01  0.8000E+01
     -5.716  0.0000E+00  0.0000E+00  0.8000E+01  0.8000E+01
     -5.524  0.0000E+00  0.0000E+00  0.8000E+01  0.8000E+01
     -5.331  0.0000E+00  0.0000E+00  0.8000E+01  0.8000E+01
     -5.138  0.0000E+00  0.0000E+00  0.8000E+01  0.8000E+01
     -4.946  0.0000E+00  0.0000E+00  0.8000E+01  0.8000E+01
     -4.753  0.0000E+00  0.0000E+00  0.8000E+01  0.8000E+01
     -4.561  0.0000E+00  0.0000E+00  0.8000E+01  0.8000E+01
     -4.368  0.0000E+00  0.0000E+00  0.8000E+01  0.8000E+01
     -4.175  0.0000E+00  0.0000E+00  0.8000E+01  0.8000E+01
     -3.983  0.0000E+00  0.0000E+00  0.8000E+01  0.8000E+01
     -3.790  0.0000E+00  0.0000E+00  0.8000E+01  0.8000E+01
     -3.597  0.0000E+00  0.0000E+00  0.8000E+01  0.8000E+01
     -3.405  0.0000E+00  0.0000E+00  0.8000E+01  0.8000E+01
     -3.212  0.0000E+00  0.0000E+00  0.8000E+01  0.8000E+01
     -3.020  0.0000E+00  0.0000E+00  0.8000E+01  0.8000E+01
     -2.827  0.0000E+00  0.0000E+00  0.8000E+01  0.8000E+01
     -2.634  0.0000E+00  0.0000E+00  0.8000E+01  0.8000E+01
     -2.442  0.0000E+00  0.0000E+00  0.8000E+01  0.8000E+01
     -2.249  0.0000E+00  0.0000E+00  0.8000E+01  0.8000E+01
     -2.057  0.0000E+00  0.0000E+00  0.8000E+01  0.8000E+01
     -1.864  0.0000E+00  0.0000E+00  0.8000E+01  0.8000E+01
     -1.671  0.0000E+00  0.0000E+00  0.8000E+01  0.8000E+01
     -1.479  0.1610E-05  0.1619E-05  0.8000E+01  0.8000E+01
     -1.286  0.8869E-04  0.8921E-04  0.8000E+01  0.8000E+01
     -1.094  0.3888E-02  0.3909E-02  0.8001E+01  0.8001E+01
     -0.901  0.6317E-01  0.6334E-01  0.8013E+01  0.8013E+01
     -0.708  0.1756E+00  0.1758E+00  0.8047E+01  0.8047E+01
     -0.516  0.2544E+00  0.2545E+00  0.8096E+01  0.8096E+01
     -0.323  0.3241E+00  0.3243E+00  0.8158E+01  0.8158E+01
     -0.130  0.3705E+00  0.3705E+00  0.8230E+01  0.8230E+01
      0.062  0.4179E+00  0.4180E+00  0.8311E+01  0.8311E+01
      0.255  0.5233E+00  0.5234E+00  0.8412E+01  0.8412E+01
      0.447  0.4864E+00  0.4863E+00  0.8506E+01  0.8506E+01
      0.640  0.6337E+00  0.6340E+00  0.8628E+01  0.8628E+01
      0.833  0.6813E+00  0.6812E+00  0.8760E+01  0.8760E+01
      1.025  0.6681E+00  0.6681E+00  0.8889E+01  0.8889E+01
      1.218  0.6873E+00  0.6873E+00  0.9022E+01  0.9022E+01
      1.410  0.7859E+00  0.7862E+00  0.9174E+01  0.9174E+01
      1.603  0.7688E+00  0.7686E+00  0.9322E+01  0.9322E+01
      1.796  0.7868E+00  0.7869E+00  0.9474E+01  0.9474E+01
      1.988  0.9314E+00  0.9317E+00  0.9654E+01  0.9654E+01
      2.181  0.9802E+00  0.9801E+00  0.9843E+01  0.9844E+01
      2.373  0.1053E+01  0.1053E+01  0.1005E+02  0.1005E+02
      2.566  0.1127E+01  0.1128E+01  0.1026E+02  0.1027E+02
      2.759  0.1292E+01  0.1292E+01  0.1051E+02  0.1052E+02
      2.951  0.1207E+01  0.1206E+01  0.1075E+02  0.1075E+02
      3.144  0.9683E+00  0.9678E+00  0.1094E+02  0.1094E+02
      3.336  0.8728E+00  0.8730E+00  0.1110E+02  0.1110E+02
      3.529  0.9516E+00  0.9515E+00  0.1129E+02  0.1129E+02
      3.722  0.8668E+00  0.8668E+00  0.1146E+02  0.1146E+02
      3.914  0.9925E+00  0.9929E+00  0.1165E+02  0.1165E+02
      4.107  0.1093E+01  0.1093E+01  0.1186E+02  0.1186E+02
      4.300  0.1289E+01  0.1290E+01  0.1211E+02  0.1211E+02
      4.492  0.1584E+01  0.1584E+01  0.1241E+02  0.1241E+02
      4.685  0.1286E+01  0.1286E+01  0.1266E+02  0.1266E+02
      4.877  0.1301E+01  0.1301E+01  0.1291E+02  0.1291E+02
      5.070  0.1454E+01  0.1454E+01  0.1320E+02  0.1320E+02
      5.263  0.1075E+01  0.1075E+01  0.1340E+02  0.1340E+02
      5.455  0.1169E+01  0.1169E+01  0.1363E+02  0.1363E+02
      5.648  0.1342E+01  0.1342E+01  0.1389E+02  0.1389E+02
      5.840  0.1271E+01  0.1271E+01  0.1413E+02  0.1413E+02
      6.033  0.1913E+01  0.1914E+01  0.1450E+02  0.1450E+02
      6.226  0.1856E+01  0.1855E+01  0.1486E+02  0.1486E+02
      6.418  0.1618E+01  0.1618E+01  0.1518E+02  0.1518E+02
      6.611  0.1704E+01  0.1704E+01  0.1550E+02  0.1550E+02
      6.803  0.2069E+01  0.2069E+01  0.1590E+02  0.1590E+02
      6.996  0.2117E+01  0.2117E+01  0.1631E+02  0.1631E+02
      7.189  0.3164E+01  0.3165E+01  0.1692E+02  0.1693E+02
      7.381  0.3664E+01  0.3664E+01  0.1763E+02  0.1763E+02
      7.574  0.3513E+01  0.3513E+01  0.1831E+02  0.1831E+02
      7.767  0.3175E+01  0.3174E+01  0.1893E+02  0.1893E+02
      7.959  0.2990E+01  0.2989E+01  0.1950E+02  0.1950E+02
      8.152  0.2806E+01  0.2805E+01  0.2005E+02  0.2005E+02
      8.344  0.2305E+01  0.2305E+01  0.2049E+02  0.2049E+02
      8.537  0.1752E+01  0.1752E+01  0.2083E+02  0.2083E+02
      8.730  0.1316E+01  0.1316E+01  0.2109E+02  0.2109E+02
      8.922  0.1068E+01  0.1067E+01  0.2130E+02  0.2130E+02
      9.115  0.1053E+01  0.1053E+01  0.2150E+02  0.2150E+02
      9.307  0.8500E+00  0.8498E+00  0.2166E+02  0.2166E+02
      9.500  0.8422E+00  0.8422E+00  0.2183E+02  0.2183E+02
      9.693  0.8582E+00  0.8582E+00  0.2199E+02  0.2199E+02
      9.885  0.5816E+00  0.5821E+00  0.2211E+02  0.2211E+02
     10.078  0.9211E+00  0.9214E+00  0.2228E+02  0.2228E+02
     10.270  0.1598E+01  0.1598E+01  0.2259E+02  0.2259E+02
     10.463  0.1872E+01  0.1873E+01  0.2295E+02  0.2295E+02
     10.656  0.2109E+01  0.2109E+01  0.2336E+02  0.2336E+02
     10.848  0.2395E+01  0.2394E+01  0.2382E+02  0.2382E+02
     11.041  0.2807E+01  0.2809E+01  0.2437E+02  0.2437E+02
     11.233  0.2745E+01  0.2763E+01  0.2490E+02  0.2490E+02
     11.426  0.2871E+01  0.2896E+01  0.2545E+02  0.2546E+02
     11.619  0.2717E+01  0.2720E+01  0.2598E+02  0.2599E+02
     11.811  0.2763E+01  0.2730E+01  0.2651E+02  0.2652E+02
     12.004  0.2622E+01  0.2665E+01  0.2702E+02  0.2703E+02
     12.197  0.2238E+01  0.2309E+01  0.2745E+02  0.2748E+02
     12.389  0.1709E+01  0.1639E+01  0.2778E+02  0.2779E+02
     12.582  0.6935E+00  0.6662E+00  0.2792E+02  0.2792E+02
     12.774  0.2714E+00  0.2447E+00  0.2797E+02  0.2797E+02
     12.967  0.1138E+00  0.1011E+00  0.2799E+02  0.2799E+02
     13.160  0.1804E-01  0.2367E-01  0.2800E+02  0.2800E+02
     13.352  0.9970E-02  0.1269E-01  0.2800E+02  0.2800E+02
     13.545  0.5271E-03  0.1361E-02  0.2800E+02  0.2800E+02
     13.737  0.0000E+00  0.0000E+00  0.2800E+02  0.2800E+02
     13.930  0.0000E+00  0.0000E+00  0.2800E+02  0.2800E+02
     14.123  0.0000E+00  0.0000E+00  0.2800E+02  0.2800E+02
     14.315  0.0000E+00  0.0000E+00  0.2800E+02  0.2800E+02
     14.508  0.0000E+00  0.0000E+00  0.2800E+02  0.2800E+02
     14.700  0.0000E+00  0.0000E+00  0.2800E+02  0.2800E+02
     14.893  0.0000E+00  0.0000E+00  0.2800E+02  0.2800E+02
     15.086  0.0000E+00  0.0000E+00  0.2800E+02  0.2800E+02
     15.278  0.0000E+00  0.0000E+00  0.2800E+02  0.2800E+02
     15.471  0.0000E+00  0.0000E+00  0.2800E+02  0.2800E+02
     15.664  0.0000E+00  0.0000E+00  0.2800E+02  0.2800E+02
     15.856  0.0000E+00  0.0000E+00  0.2800E+02  0.2800E+02
     15.85612012    -41.92682393  301      8.65477959      1.00000000
    -41.927  0.0000E+00  0.0000E+00  0.0000E+00  0.0000E+00  0.0000E+00  0.0000E+00  0.0000E+00  0.0000E+00  0.0000E+00  0.0000E+00  0.0000E+00  0.0000E+00  0.0000E+00  0.0000E+00  0.0000E+00  0.0000E+00  0.0000E+00  0.0000E+00
    -41.734  0.0000E+00  0.0000E+00  0.0000E+00  0.0000E+00  0.0000E+00  0.0000E+00  0.0000E+00  0.0000E+00  0.0000E+00  0.0000E+00  0.0000E+00  0.0000E+00  0.0000E+00  0.0000E+00  0.0000E+00  0.0000E+00  0.0000E+00  0.0000E+00
    -41.542  0.0000E+00  0.0000E+00  0.0000E+00  0.0000E+00  0.0000E+00  0.0000E+00  0.0000E+00  0.0000E+00  0.0000E+00  0.0000E+00  0.0000E+00  0.0000E+00  0.0000E+00  0.0000E+00  0.0000E+00  0.0000E+00  0.0000E+00  0.0000E+00
    -41.349  0.0000E+00  0.0000E+00  0.0000E+00  0.0000E+00  0.0000E+00  0.0000E+00  0.0000E+00  0.0000E+00  0.0000E+00  0.0000E+00  0.0000E+00  0.0000E+00  0.0000E+00  0.0000E+00  0.0000E+00  0.0000E+00  0.0000E+00  0.0000E+00
    -41.156  0.0000E+00  0.0000E+00  0.0000E+00  0.0000E+00  0.0000E+00  0.0000E+00  0.0000E+00  0.0000E+00  0.0000E+00  0.0000E+00  0.0000E+00  0.0000E+00  0.0000E+00  0.0000E+00  0.0000E+00  0.0000E+00  0.0000E+00  0.0000E+00
    -40.964  0.0000E+00  0.0000E+00  0.0000E+00  0.0000E+00  0.0000E+00  0.0000E+00  0.0000E+00  0.0000E+00  0.0000E+00  0.0000E+00  0.0000E+00  0.0000E+00  0.0000E+00  0.0000E+00  0.0000E+00  0.0000E+00  0.0000E+00  0.0000E+00
    -40.771  0.0000E+00  0.0000E+00  0.0000E+00  0.0000E+00  0.0000E+00  0.0000E+00  0.0000E+00  0.0000E+00  0.0000E+00  0.0000E+00  0.0000E+00  0.0000E+00  0.0000E+00  0.0000E+00  0.0000E+00  0.0000E+00  0.0000E+00  0.0000E+00
    -40.579  0.0000E+00  0.0000E+00  0.0000E+00  0.0000E+00  0.0000E+00  0.0000E+00  0.0000E+00  0.0000E+00  0.0000E+00  0.0000E+00  0.0000E+00  0.0000E+00  0.0000E+00  0.0000E+00  0.0000E+00  0.0000E+00  0.0000E+00  0.0000E+00
    -40.386  0.0000E+00  0.0000E+00  0.0000E+00  0.0000E+00  0.0000E+00  0.0000E+00  0.0000E+00  0.0000E+00  0.0000E+00  0.0000E+00  0.0000E+00  0.0000E+00  0.0000E+00  0.0000E+00  0.0000E+00  0.0000E+00  0.0000E+00  0.0000E+00
    -40.193  0.0000E+00  0.0000E+00  0.0000E+00  0.0000E+00  0.0000E+00  0.0000E+00  0.0000E+00  0.0000E+00  0.0000E+00  0.0000E+00  0.0000E+00  0.0000E+00  0.0000E+00  0.0000E+00  0.0000E+00  0.0000E+00  0.0000E+00  0.0000E+00
    -40.001  0.0000E+00  0.0000E+00  0.0000E+00  0.0000E+00  0.0000E+00  0.0000E+00  0.0000E+00  0.0000E+00  0.0000E+00  0.0000E+00  0.0000E+00  0.0000E+00  0.0000E+00  0.0000E+00  0.0000E+00  0.0000E+00  0.0000E+00  0.0000E+00
    -39.808  0.1812E-03  0.1813E-03  0.4712E-11  0.4737E-11  0.3675E-14  0.3095E-14  0.4712E-11  0.4737E-11  0.3831E-14  0.3677E-14  0.7378E-15  0.2156E-14  0.2483E-09  0.2467E-09  0.7378E-15  0.2156E-14  0.5440E-11  0.5593E-11
    -39.616  0.8337E-02  0.8344E-02  0.2169E-09  0.2180E-09  0.1691E-12  0.1424E-12  0.2169E-09  0.2180E-09  0.1763E-12  0.1692E-12  0.3395E-13  0.9920E-13  0.1142E-07  0.1136E-07  0.3395E-13  0.9920E-13  0.2504E-09  0.2574E-09
    -39.423  0.3642E+00  0.3645E+00  0.9473E-08  0.9522E-08  0.7361E-11  0.6202E-11  0.9473E-08  0.9522E-08  0.7699E-11  0.7396E-11  0.1480E-11  0.4327E-11  0.4988E-06  0.4957E-06  0.1480E-11  0.4327E-11  0.1094E-07  0.1125E-07
    -39.230  0.3676E+01  0.3676E+01  0.9553E-07  0.9596E-07  0.7144E-10  0.6037E-10  0.9553E-07  0.9596E-07  0.7748E-10  0.7488E-10  0.1462E-10  0.4295E-10  0.5006E-05  0.4972E-05  0.1462E-10  0.4295E-10  0.1106E-06  0.1136E-06
    -39.038  0.1075E+01  0.1074E+01  0.2789E-07  0.2799E-07  0.1993E-10  0.1690E-10  0.2789E-07  0.2799E-07  0.2255E-10  0.2195E-10  0.4164E-11  0.1231E-10  0.1454E-05  0.1443E-05  0.4164E-11  0.1231E-10  0.3235E-07  0.3322E-07
    -38.845  0.0000E+00  0.0000E+00  0.0000E+00  0.0000E+00  0.0000E+00  0.0000E+00  0.0000E+00  0.0000E+00  0.0000E+00  0.0000E+00  0.0000E+00  0.0000E+00  0.0000E+00  0.0000E+00  0.0000E+00  0.0000E+00  0.0000E+00  0.0000E+00
    -38.652  0.0000E+00  0.0000E+00  0.0000E+00  0.0000E+00  0.0000E+00  0.0000E+00  0.0000E+00  0.0000E+00  0.0000E+00  0.0000E+00  0.0000E+00  0.0000E+00  0.0000E+00  0.0000E+00  0.0000E+00  0.0000E+00  0.0000E+00  0.0000E+00
    -38.460  0.0000E+00  0.0000E+00  0.0000E+00  0.0000E+00  0.0000E+00  0.0000E+00  0.0000E+00  0.0000E+00  0.0000E+00  0.0000E+00  0.0000E+00  0.0000E+00  0.0000E+00  0.0000E+00  0.0000E+00  0.0000E+00  0.0000E+00  0.0000E+00
    -38.267  0.0000E+00  0.0000E+00  0.0000E+00  0.0000E+00  0.0000E+00  0.0000E+00  0.0000E+00  0.0000E+00  0.0000E+00  0.0000E+00  0.0000E+00  0.0000E+00  0.0000E+00  0.0000E+00  0.0000E+00  0.0000E+00  0.0000E+00  0.0000E+00
    -38.075  0.0000E+00  0.0000E+00  0.0000E+00  0.0000E+00  0.0000E+00  0.0000E+00  0.0000E+00  0.0000E+00  0.0000E+00  0.0000E+00  0.0000E+00  0.0000E+00  0.0000E+00  0.0000E+00  0.0000E+00  0.0000E+00  0.0000E+00  0.0000E+00
    -37.882  0.0000E+00  0.0000E+00  0.0000E+00  0.0000E+00  0.0000E+00  0.0000E+00  0.0000E+00  0.0000E+00  0.0000E+00  0.0000E+00  0.0000E+00  0.0000E+00  0.0000E+00  0.0000E+00  0.0000E+00  0.0000E+00  0.0000E+00  0.0000E+00
    -37.689  0.0000E+00  0.0000E+00  0.0000E+00  0.0000E+00  0.0000E+00  0.0000E+00  0.0000E+00  0.0000E+00  0.0000E+00  0.0000E+00  0.0000E+00  0.0000E+00  0.0000E+00  0.0000E+00  0.0000E+00  0.0000E+00  0.0000E+00  0.0000E+00
    -37.497  0.0000E+00  0.0000E+00  0.0000E+00  0.0000E+00  0.0000E+00  0.0000E+00  0.0000E+00  0.0000E+00  0.0000E+00  0.0000E+00  0.0000E+00  0.0000E+00  0.0000E+00  0.0000E+00  0.0000E+00  0.0000E+00  0.0000E+00  0.0000E+00
    -37.304  0.0000E+00  0.0000E+00  0.0000E+00  0.0000E+00  0.0000E+00  0.0000E+00  0.0000E+00  0.0000E+00  0.0000E+00  0.0000E+00  0.0000E+00  0.0000E+00  0.0000E+00  0.0000E+00  0.0000E+00  0.0000E+00  0.0000E+00  0.0000E+00
    -37.112  0.0000E+00  0.0000E+00  0.0000E+00  0.0000E+00  0.0000E+00  0.0000E+00  0.0000E+00  0.0000E+00  0.0000E+00  0.0000E+00  0.0000E+00  0.0000E+00  0.0000E+00  0.0000E+00  0.0000E+00  0.0000E+00  0.0000E+00  0.0000E+00
    -36.919  0.0000E+00  0.0000E+00  0.0000E+00  0.0000E+00  0.0000E+00  0.0000E+00  0.0000E+00  0.0000E+00  0.0000E+00  0.0000E+00  0.0000E+00  0.0000E+00  0.0000E+00  0.0000E+00  0.0000E+00  0.0000E+00  0.0000E+00  0.0000E+00
    -36.726  0.0000E+00  0.0000E+00  0.0000E+00  0.0000E+00  0.0000E+00  0.0000E+00  0.0000E+00  0.0000E+00  0.0000E+00  0.0000E+00  0.0000E+00  0.0000E+00  0.0000E+00  0.0000E+00  0.0000E+00  0.0000E+00  0.0000E+00  0.0000E+00
    -36.534  0.0000E+00  0.0000E+00  0.0000E+00  0.0000E+00  0.0000E+00  0.0000E+00  0.0000E+00  0.0000E+00  0.0000E+00  0.0000E+00  0.0000E+00  0.0000E+00  0.0000E+00  0.0000E+00  0.0000E+00  0.0000E+00  0.0000E+00  0.0000E+00
    -36.341  0.0000E+00  0.0000E+00  0.0000E+00  0.0000E+00  0.0000E+00  0.0000E+00  0.0000E+00  0.0000E+00  0.0000E+00  0.0000E+00  0.0000E+00  0.0000E+00  0.0000E+00  0.0000E+00  0.0000E+00  0.0000E+00  0.0000E+00  0.0000E+00
    -36.149  0.0000E+00  0.0000E+00  0.0000E+00  0.0000E+00  0.0000E+00  0.0000E+00  0.0000E+00  0.0000E+00  0.0000E+00  0.0000E+00  0.0000E+00  0.0000E+00  0.0000E+00  0.0000E+00  0.0000E+00  0.0000E+00  0.0000E+00  0.0000E+00
    -35.956  0.0000E+00  0.0000E+00  0.0000E+00  0.0000E+00  0.0000E+00  0.0000E+00  0.0000E+00  0.0000E+00  0.0000E+00  0.0000E+00  0.0000E+00  0.0000E+00  0.0000E+00  0.0000E+00  0.0000E+00  0.0000E+00  0.0000E+00  0.0000E+00
    -35.763  0.0000E+00  0.0000E+00  0.0000E+00  0.0000E+00  0.0000E+00  0.0000E+00  0.0000E+00  0.0000E+00  0.0000E+00  0.0000E+00  0.0000E+00  0.0000E+00  0.0000E+00  0.0000E+00  0.0000E+00  0.0000E+00  0.0000E+00  0.0000E+00
    -35.571  0.0000E+00  0.0000E+00  0.0000E+00  0.0000E+00  0.0000E+00  0.0000E+00  0.0000E+00  0.0000E+00  0.0000E+00  0.0000E+00  0.0000E+00  0.0000E+00  0.0000E+00  0.0000E+00  0.0000E+00  0.0000E+00  0.0000E+00  0.0000E+00
    -35.378  0.0000E+00  0.0000E+00  0.0000E+00  0.0000E+00  0.0000E+00  0.0000E+00  0.0000E+00  0.0000E+00  0.0000E+00  0.0000E+00  0.0000E+00  0.0000E+00  0.0000E+00  0.0000E+00  0.0000E+00  0.0000E+00  0.0000E+00  0.0000E+00
    -35.185  0.0000E+00  0.0000E+00  0.0000E+00  0.0000E+00  0.0000E+00  0.0000E+00  0.0000E+00  0.0000E+00  0.0000E+00  0.0000E+00  0.0000E+00  0.0000E+00  0.0000E+00  0.0000E+00  0.0000E+00  0.0000E+00  0.0000E+00  0.0000E+00
    -34.993  0.0000E+00  0.0000E+00  0.0000E+00  0.0000E+00  0.0000E+00  0.0000E+00  0.0000E+00  0.0000E+00  0.0000E+00  0.0000E+00  0.0000E+00  0.0000E+00  0.0000E+00  0.0000E+00  0.0000E+00  0.0000E+00  0.0000E+00  0.0000E+00
    -34.800  0.0000E+00  0.0000E+00  0.0000E+00  0.0000E+00  0.0000E+00  0.0000E+00  0.0000E+00  0.0000E+00  0.0000E+00  0.0000E+00  0.0000E+00  0.0000E+00  0.0000E+00  0.0000E+00  0.0000E+00  0.0000E+00  0.0000E+00  0.0000E+00
    -34.608  0.0000E+00  0.0000E+00  0.0000E+00  0.0000E+00  0.0000E+00  0.0000E+00  0.0000E+00  0.0000E+00  0.0000E+00  0.0000E+00  0.0000E+00  0.0000E+00  0.0000E+00  0.0000E+00  0.0000E+00  0.0000E+00  0.0000E+00  0.0000E+00
    -34.415  0.0000E+00  0.0000E+00  0.0000E+00  0.0000E+00  0.0000E+00  0.0000E+00  0.0000E+00  0.0000E+00  0.0000E+00  0.0000E+00  0.0000E+00  0.0000E+00  0.0000E+00  0.0000E+00  0.0000E+00  0.0000E+00  0.0000E+00  0.0000E+00
    -34.222  0.0000E+00  0.0000E+00  0.0000E+00  0.0000E+00  0.0000E+00  0.0000E+00  0.0000E+00  0.0000E+00  0.0000E+00  0.0000E+00  0.0000E+00  0.0000E+00  0.0000E+00  0.0000E+00  0.0000E+00  0.0000E+00  0.0000E+00  0.0000E+00
    -34.030  0.0000E+00  0.0000E+00  0.0000E+00  0.0000E+00  0.0000E+00  0.0000E+00  0.0000E+00  0.0000E+00  0.0000E+00  0.0000E+00  0.0000E+00  0.0000E+00  0.0000E+00  0.0000E+00  0.0000E+00  0.0000E+00  0.0000E+00  0.0000E+00
    -33.837  0.0000E+00  0.0000E+00  0.0000E+00  0.0000E+00  0.0000E+00  0.0000E+00  0.0000E+00  0.0000E+00  0.0000E+00  0.0000E+00  0.0000E+00  0.0000E+00  0.0000E+00  0.0000E+00  0.0000E+00  0.0000E+00  0.0000E+00  0.0000E+00
    -33.645  0.0000E+00  0.0000E+00  0.0000E+00  0.0000E+00  0.0000E+00  0.0000E+00  0.0000E+00  0.0000E+00  0.0000E+00  0.0000E+00  0.0000E+00  0.0000E+00  0.0000E+00  0.0000E+00  0.0000E+00  0.0000E+00  0.0000E+00  0.0000E+00
    -33.452  0.0000E+00  0.0000E+00  0.0000E+00  0.0000E+00  0.0000E+00  0.0000E+00  0.0000E+00  0.0000E+00  0.0000E+00  0.0000E+00  0.0000E+00  0.0000E+00  0.0000E+00  0.0000E+00  0.0000E+00  0.0000E+00  0.0000E+00  0.0000E+00
    -33.259  0.0000E+00  0.0000E+00  0.0000E+00  0.0000E+00  0.0000E+00  0.0000E+00  0.0000E+00  0.0000E+00  0.0000E+00  0.0000E+00  0.0000E+00  0.0000E+00  0.0000E+00  0.0000E+00  0.0000E+00  0.0000E+00  0.0000E+00  0.0000E+00
    -33.067  0.0000E+00  0.0000E+00  0.0000E+00  0.0000E+00  0.0000E+00  0.0000E+00  0.0000E+00  0.0000E+00  0.0000E+00  0.0000E+00  0.0000E+00  0.0000E+00  0.0000E+00  0.0000E+00  0.0000E+00  0.0000E+00  0.0000E+00  0.0000E+00
    -32.874  0.0000E+00  0.0000E+00  0.0000E+00  0.0000E+00  0.0000E+00  0.0000E+00  0.0000E+00  0.0000E+00  0.0000E+00  0.0000E+00  0.0000E+00  0.0000E+00  0.0000E+00  0.0000E+00  0.0000E+00  0.0000E+00  0.0000E+00  0.0000E+00
    -32.682  0.0000E+00  0.0000E+00  0.0000E+00  0.0000E+00  0.0000E+00  0.0000E+00  0.0000E+00  0.0000E+00  0.0000E+00  0.0000E+00  0.0000E+00  0.0000E+00  0.0000E+00  0.0000E+00  0.0000E+00  0.0000E+00  0.0000E+00  0.0000E+00
    -32.489  0.0000E+00  0.0000E+00  0.0000E+00  0.0000E+00  0.0000E+00  0.0000E+00  0.0000E+00  0.0000E+00  0.0000E+00  0.0000E+00  0.0000E+00  0.0000E+00  0.0000E+00  0.0000E+00  0.0000E+00  0.0000E+00  0.0000E+00  0.0000E+00
    -32.296  0.0000E+00  0.0000E+00  0.0000E+00  0.0000E+00  0.0000E+00  0.0000E+00  0.0000E+00  0.0000E+00  0.0000E+00  0.0000E+00  0.0000E+00  0.0000E+00  0.0000E+00  0.0000E+00  0.0000E+00  0.0000E+00  0.0000E+00  0.0000E+00