   2   2   1   0
  0.2162541E+02  0.3510197E-09  0.3510197E-09  0.3510197E-09  0.5000000E-15
   1.0000000000000000E-004
  CAR 
 unknown system                          
      9.80953194    -29.18722455  301      3.62556485      1.00000000
    -29.187  0.0000E+00  0.0000E+00  0.0000E+00  0.0000E+00
    -29.057  0.0000E+00  0.0000E+00  0.0000E+00  0.0000E+00
    -28.927  0.0000E+00  0.0000E+00  0.0000E+00  0.0000E+00
    -28.797  0.0000E+00  0.0000E+00  0.0000E+00  0.0000E+00
    -28.667  0.0000E+00  0.0000E+00  0.0000E+00  0.0000E+00
    -28.537  0.0000E+00  0.0000E+00  0.0000E+00  0.0000E+00
    -28.407  0.0000E+00  0.0000E+00  0.0000E+00  0.0000E+00
    -28.277  0.0000E+00  0.0000E+00  0.0000E+00  0.0000E+00
    -28.147  0.0000E+00  0.0000E+00  0.0000E+00  0.0000E+00
    -28.017  0.0000E+00  0.0000E+00  0.0000E+00  0.0000E+00
    -27.887  0.0000E+00  0.0000E+00  0.0000E+00  0.0000E+00
    -27.757  0.0000E+00  0.0000E+00  0.0000E+00  0.0000E+00
    -27.627  0.0000E+00  0.0000E+00  0.0000E+00  0.0000E+00
    -27.497  0.0000E+00  0.0000E+00  0.0000E+00  0.0000E+00
    -27.367  0.3814E+01  0.3806E+01  0.8910E-01  0.8881E-01
    -27.237  0.1153E+02  0.1154E+02  0.1267E+01  0.1266E+01
    -27.107  0.5932E+01  0.5931E+01  0.2012E+01  0.2011E+01
    -26.977  0.6000E+01  0.6006E+01  0.2914E+01  0.2914E+01
    -26.847  0.8979E+01  0.8979E+01  0.4067E+01  0.4066E+01
    -26.717  0.2056E+02  0.2052E+02  0.5614E+01  0.5612E+01
    -26.587  0.1525E+01  0.1525E+01  0.6000E+01  0.6000E+01
    -26.457  0.0000E+00  0.0000E+00  0.6000E+01  0.6000E+01
    -26.327  0.0000E+00  0.0000E+00  0.6000E+01  0.6000E+01
    -26.197  0.0000E+00  0.0000E+00  0.6000E+01  0.6000E+01
    -26.067  0.0000E+00  0.0000E+00  0.6000E+01  0.6000E+01
    -25.937  0.0000E+00  0.0000E+00  0.6000E+01  0.6000E+01
    -25.808  0.0000E+00  0.0000E+00  0.6000E+01  0.6000E+01
    -25.678  0.0000E+00  0.0000E+00  0.6000E+01  0.6000E+01
    -25.548  0.0000E+00  0.0000E+00  0.6000E+01  0.6000E+01
    -25.418  0.0000E+00  0.0000E+00  0.6000E+01  0.6000E+01
    -25.288  0.0000E+00  0.0000E+00  0.6000E+01  0.6000E+01
    -25.158  0.0000E+00  0.0000E+00  0.6000E+01  0.6000E+01
    -25.028  0.0000E+00  0.0000E+00  0.6000E+01  0.6000E+01
    -24.898  0.0000E+00  0.0000E+00  0.6000E+01  0.6000E+01
    -24.768  0.0000E+00  0.0000E+00  0.6000E+01  0.6000E+01
    -24.638  0.0000E+00  0.0000E+00  0.6000E+01  0.6000E+01
    -24.508  0.0000E+00  0.0000E+00  0.6000E+01  0.6000E+01
    -24.378  0.0000E+00  0.0000E+00  0.6000E+01  0.6000E+01
    -24.248  0.0000E+00  0.0000E+00  0.6000E+01  0.6000E+01
    -24.118  0.0000E+00  0.0000E+00  0.6000E+01  0.6000E+01
    -23.988  0.0000E+00  0.0000E+00  0.6000E+01  0.6000E+01
    -23.858  0.0000E+00  0.0000E+00  0.6000E+01  0.6000E+01
    -23.728  0.0000E+00  0.0000E+00  0.6000E+01  0.6000E+01
    -23.598  0.0000E+00  0.0000E+00  0.6000E+01  0.6000E+01
    -23.468  0.0000E+00  0.0000E+00  0.6000E+01  0.6000E+01
    -23.338  0.0000E+00  0.0000E+00  0.6000E+01  0.6000E+01
    -23.208  0.0000E+00  0.0000E+00  0.6000E+01  0.6000E+01
    -23.078  0.0000E+00  0.0000E+00  0.6000E+01  0.6000E+01
    -22.948  0.0000E+00  0.0000E+00  0.6000E+01  0.6000E+01
    -22.818  0.0000E+00  0.0000E+00  0.6000E+01  0.6000E+01
    -22.688  0.0000E+00  0.0000E+00  0.6000E+01  0.6000E+01
    -22.558  0.0000E+00  0.0000E+00  0.6000E+01  0.6000E+01
    -22.428  0.0000E+00  0.0000E+00  0.6000E+01  0.6000E+01
    -22.298  0.0000E+00  0.0000E+00  0.6000E+01  0.6000E+01
    -22.168  0.0000E+00  0.0000E+00  0.6000E+01  0.6000E+01
    -22.038  0.0000E+00  0.0000E+00  0.6000E+01  0.6000E+01
    -21.908  0.0000E+00  0.0000E+00  0.6000E+01  0.6000E+01
    -21.778  0.0000E+00  0.0000E+00  0.6000E+01  0.6000E+01
    -21.648  0.0000E+00  0.0000E+00  0.6000E+01  0.6000E+01
    -21.518  0.0000E+00  0.0000E+00  0.6000E+01  0.6000E+01
    -21.388  0.0000E+00  0.0000E+00  0.6000E+01  0.6000E+01
    -21.258  0.0000E+00  0.0000E+00  0.6000E+01  0.6000E+01
    -21.128  0.0000E+00  0.0000E+00  0.6000E+01  0.6000E+01
    -20.998  0.0000E+00  0.0000E+00  0.6000E+01  0.6000E+01
    -20.868  0.0000E+00  0.0000E+00  0.6000E+01  0.6000E+01
    -20.738  0.0000E+00  0.0000E+00  0.6000E+01  0.6000E+01
    -20.608  0.0000E+00  0.0000E+00  0.6000E+01  0.6000E+01
    -20.478  0.0000E+00  0.0000E+00  0.6000E+01  0.6000E+01
    -20.348  0.0000E+00  0.0000E+00  0.6000E+01  0.6000E+01
    -20.218  0.0000E+00  0.0000E+00  0.6000E+01  0.6000E+01
    -20.088  0.0000E+00  0.0000E+00  0.6000E+01  0.6000E+01
    -19.958  0.0000E+00  0.0000E+00  0.6000E+01  0.6000E+01
    -19.828  0.0000E+00  0.0000E+00  0.6000E+01  0.6000E+01
    -19.698  0.0000E+00  0.0000E+00  0.6000E+01  0.6000E+01
    -19.568  0.0000E+00  0.0000E+00  0.6000E+01  0.6000E+01
    -19.438  0.0000E+00  0.0000E+00  0.6000E+01  0.6000E+01
    -19.308  0.0000E+00  0.0000E+00  0.6000E+01  0.6000E+01
    -19.178  0.0000E+00  0.0000E+00  0.6000E+01  0.6000E+01
    -19.048  0.0000E+00  0.0000E+00  0.6000E+01  0.6000E+01
    -18.918  0.0000E+00  0.0000E+00  0.6000E+01  0.6000E+01
    -18.788  0.0000E+00  0.0000E+00  0.6000E+01  0.6000E+01
    -18.658  0.0000E+00  0.0000E+00  0.6000E+01  0.6000E+01
    -18.528  0.0000E+00  0.0000E+00  0.6000E+01  0.6000E+01
    -18.398  0.0000E+00  0.0000E+00  0.6000E+01  0.6000E+01
    -18.268  0.0000E+00  0.0000E+00  0.6000E+01  0.6000E+01
    -18.138  0.0000E+00  0.0000E+00  0.6000E+01  0.6000E+01
    -18.008  0.0000E+00  0.0000E+00  0.6000E+01  0.6000E+01
    -17.878  0.0000E+00  0.0000E+00  0.6000E+01  0.6000E+01
    -17.748  0.0000E+00  0.0000E+00  0.6000E+01  0.6000E+01
    -17.618  0.0000E+00  0.0000E+00  0.6000E+01  0.6000E+01
    -17.488  0.0000E+00  0.0000E+00  0.6000E+01  0.6000E+01
    -17.358  0.0000E+00  0.0000E+00  0.6000E+01  0.6000E+01
    -17.228  0.0000E+00  0.0000E+00  0.6000E+01  0.6000E+01
    -17.098  0.0000E+00  0.0000E+00  0.6000E+01  0.6000E+01
    -16.968  0.0000E+00  0.0000E+00  0.6000E+01  0.6000E+01
    -16.838  0.0000E+00  0.0000E+00  0.6000E+01  0.6000E+01
    -16.708  0.0000E+00  0.0000E+00  0.6000E+01  0.6000E+01
    -16.578  0.0000E+00  0.0000E+00  0.6000E+01  0.6000E+01
    -16.448  0.0000E+00  0.0000E+00  0.6000E+01  0.6000E+01
    -16.318  0.0000E+00  0.0000E+00  0.6000E+01  0.6000E+01
    -16.188  0.0000E+00  0.0000E+00  0.6000E+01  0.6000E+01
    -16.058  0.0000E+00  0.0000E+00  0.6000E+01  0.6000E+01
    -15.928  0.0000E+00  0.0000E+00  0.6000E+01  0.6000E+01
    -15.798  0.0000E+00  0.0000E+00  0.6000E+01  0.6000E+01
    -15.668  0.0000E+00  0.0000E+00  0.6000E+01  0.6000E+01
    -15.538  0.0000E+00  0.0000E+00  0.6000E+01  0.6000E+01
    -15.408  0.0000E+00  0.0000E+00  0.6000E+01  0.6000E+01
    -15.278  0.0000E+00  0.0000E+00  0.6000E+01  0.6000E+01
    -15.148  0.0000E+00  0.0000E+00  0.6000E+01  0.6000E+01
    -15.018  0.0000E+00  0.0000E+00  0.6000E+01  0.6000E+01
    -14.888  0.0000E+00  0.0000E+00  0.6000E+01  0.6000E+01
    -14.758  0.0000E+00  0.0000E+00  0.6000E+01  0.6000E+01
    -14.628  0.0000E+00  0.0000E+00  0.6000E+01  0.6000E+01
    -14.498  0.0000E+00  0.0000E+00  0.6000E+01  0.6000E+01
    -14.368  0.0000E+00  0.0000E+00  0.6000E+01  0.6000E+01
    -14.238  0.0000E+00  0.0000E+00  0.6000E+01  0.6000E+01
    -14.108  0.0000E+00  0.0000E+00  0.6000E+01  0.6000E+01
    -13.978  0.0000E+00  0.0000E+00  0.6000E+01  0.6000E+01
    -13.849  0.0000E+00  0.0000E+00  0.6000E+01  0.6000E+01
    -13.719  0.0000E+00  0.0000E+00  0.6000E+01  0.6000E+01
    -13.589  0.0000E+00  0.0000E+00  0.6000E+01  0.6000E+01
    -13.459  0.0000E+00  0.0000E+00  0.6000E+01  0.6000E+01
    -13.329  0.0000E+00  0.0000E+00  0.6000E+01  0.6000E+01
    -13.199  0.0000E+00  0.0000E+00  0.6000E+01  0.6000E+01
    -13.069  0.0000E+00  0.0000E+00  0.6000E+01  0.6000E+01
    -12.939  0.0000E+00  0.0000E+00  0.6000E+01  0.6000E+01
    -12.809  0.0000E+00  0.0000E+00  0.6000E+01  0.6000E+01
    -12.679  0.0000E+00  0.0000E+00  0.6000E+01  0.6000E+01
    -12.549  0.0000E+00  0.0000E+00  0.6000E+01  0.6000E+01
    -12.419  0.0000E+00  0.0000E+00  0.6000E+01  0.6000E+01
    -12.289  0.0000E+00  0.0000E+00  0.6000E+01  0.6000E+01
    -12.159  0.0000E+00  0.0000E+00  0.6000E+01  0.6000E+01
    -12.029  0.0000E+00  0.0000E+00  0.6000E+01  0.6000E+01
    -11.899  0.0000E+00  0.0000E+00  0.6000E+01  0.6000E+01
    -11.769  0.0000E+00  0.0000E+00  0.6000E+01  0.6000E+01
    -11.639  0.0000E+00  0.0000E+00  0.6000E+01  0.6000E+01
    -11.509  0.0000E+00  0.0000E+00  0.6000E+01  0.6000E+01
    -11.379  0.0000E+00  0.0000E+00  0.6000E+01  0.6000E+01
    -11.249  0.0000E+00  0.0000E+00  0.6000E+01  0.6000E+01
    -11.119  0.0000E+00  0.0000E+00  0.6000E+01  0.6000E+01
    -10.989  0.0000E+00  0.0000E+00  0.6000E+01  0.6000E+01
    -10.859  0.0000E+00  0.0000E+00  0.6000E+01  0.6000E+01
    -10.729  0.0000E+00  0.0000E+00  0.6000E+01  0.6000E+01
    -10.599  0.0000E+00  0.0000E+00  0.6000E+01  0.6000E+01
    -10.469  0.0000E+00  0.0000E+00  0.6000E+01  0.6000E+01
    -10.339  0.0000E+00  0.0000E+00  0.6000E+01  0.6000E+01
    -10.209  0.0000E+00  0.0000E+00  0.6000E+01  0.6000E+01
    -10.079  0.0000E+00  0.0000E+00  0.6000E+01  0.6000E+01
     -9.949  0.0000E+00  0.0000E+00  0.6000E+01  0.6000E+01
     -9.819  0.0000E+00  0.0000E+00  0.6000E+01  0.6000E+01
     -9.689  0.0000E+00  0.0000E+00  0.6000E+01  0.6000E+01
     -9.559  0.0000E+00  0.0000E+00  0.6000E+01  0.6000E+01
     -9.429  0.0000E+00  0.0000E+00  0.6000E+01  0.6000E+01
     -9.299  0.0000E+00  0.0000E+00  0.6000E+01  0.6000E+01
     -9.169  0.0000E+00  0.0000E+00  0.6000E+01  0.6000E+01
     -9.039  0.0000E+00  0.0000E+00  0.6000E+01  0.6000E+01
     -8.909  0.0000E+00  0.0000E+00  0.6000E+01  0.6000E+01
     -8.779  0.0000E+00  0.0000E+00  0.6000E+01  0.6000E+01
     -8.649  0.0000E+00  0.0000E+00  0.6000E+01  0.6000E+01
     -8.519  0.0000E+00  0.0000E+00  0.6000E+01  0.6000E+01
     -8.389  0.0000E+00  0.0000E+00  0.6000E+01  0.6000E+01
     -8.259  0.0000E+00  0.0000E+00  0.6000E+01  0.6000E+01
     -8.129  0.0000E+00  0.0000E+00  0.6000E+01  0.6000E+01
     -7.999  0.0000E+00  0.0000E+00  0.6000E+01  0.6000E+01
     -7.869  0.0000E+00  0.0000E+00  0.6000E+01  0.6000E+01
     -7.739  0.0000E+00  0.0000E+00  0.6000E+01  0.6000E+01
     -7.609  0.0000E+00  0.0000E+00  0.6000E+01  0.6000E+01
     -7.479  0.0000E+00  0.0000E+00  0.6000E+01  0.6000E+01
     -7.349  0.0000E+00  0.0000E+00  0.6000E+01  0.6000E+01
     -7.219  0.0000E+00  0.0000E+00  0.6000E+01  0.6000E+01
     -7.089  0.0000E+00  0.0000E+00  0.6000E+01  0.6000E+01
     -6.959  0.0000E+00  0.0000E+00  0.6000E+01  0.6000E+01
     -6.829  0.0000E+00  0.0000E+00  0.6000E+01  0.6000E+01
     -6.699  0.0000E+00  0.0000E+00  0.6000E+01  0.6000E+01
     -6.569  0.0000E+00  0.0000E+00  0.6000E+01  0.6000E+01
     -6.439  0.0000E+00  0.0000E+00  0.6000E+01  0.6000E+01
     -6.309  0.0000E+00  0.0000E+00  0.6000E+01  0.6000E+01
     -6.179  0.0000E+00  0.0000E+00  0.6000E+01  0.6000E+01
     -6.049  0.0000E+00  0.0000E+00  0.6000E+01  0.6000E+01
     -5.919  0.0000E+00  0.0000E+00  0.6000E+01  0.6000E+01
     -5.789  0.0000E+00  0.0000E+00  0.6000E+01  0.6000E+01
     -5.659  0.0000E+00  0.0000E+00  0.6000E+01  0.6000E+01
     -5.529  0.0000E+00  0.0000E+00  0.6000E+01  0.6000E+01
     -5.399  0.0000E+00  0.0000E+00  0.6000E+01  0.6000E+01
     -5.269  0.0000E+00  0.0000E+00  0.6000E+01  0.6000E+01
     -5.139  0.0000E+00  0.0000E+00  0.6000E+01  0.6000E+01
     -5.009  0.0000E+00  0.0000E+00  0.6000E+01  0.6000E+01
     -4.879  0.0000E+00  0.0000E+00  0.6000E+01  0.6000E+01
     -4.749  0.0000E+00  0.0000E+00  0.6000E+01  0.6000E+01
     -4.619  0.0000E+00  0.0000E+00  0.6000E+01  0.6000E+01
     -4.489  0.0000E+00  0.0000E+00  0.6000E+01  0.6000E+01
     -4.359  0.0000E+00  0.0000E+00  0.6000E+01  0.6000E+01
     -4.229  0.0000E+00  0.0000E+00  0.6000E+01  0.6000E+01
     -4.099  0.0000E+00  0.0000E+00  0.6000E+01  0.6000E+01
     -3.969  0.0000E+00  0.0000E+00  0.6000E+01  0.6000E+01
     -3.839  0.0000E+00  0.0000E+00  0.6000E+01  0.6000E+01
     -3.709  0.0000E+00  0.0000E+00  0.6000E+01  0.6000E+01
     -3.579  0.0000E+00  0.0000E+00  0.6000E+01  0.6000E+01
     -3.449  0.0000E+00  0.0000E+00  0.6000E+01  0.6000E+01
     -3.319  0.0000E+00  0.0000E+00  0.6000E+01  0.6000E+01
     -3.189  0.0000E+00  0.0000E+00  0.6000E+01  0.6000E+01
     -3.059  0.0000E+00  0.0000E+00  0.6000E+01  0.6000E+01
     -2.929  0.0000E+00  0.0000E+00  0.6000E+01  0.6000E+01
     -2.799  0.0000E+00  0.0000E+00  0.6000E+01  0.6000E+01
     -2.669  0.0000E+00  0.0000E+00  0.6000E+01  0.6000E+01
     -2.539  0.0000E+00  0.0000E+00  0.6000E+01  0.6000E+01
     -2.409  0.0000E+00  0.0000E+00  0.6000E+01  0.6000E+01
     -2.279  0.0000E+00  0.0000E+00  0.6000E+01  0.6000E+01
     -2.149  0.0000E+00  0.0000E+00  0.6000E+01  0.6000E+01
     -2.019  0.0000E+00  0.0000E+00  0.6000E+01  0.6000E+01
     -1.889  0.4714E-05  0.7666E-05  0.6000E+01  0.6000E+01
     -1.760  0.5534E-02  0.5623E-02  0.6000E+01  0.6000E+01
     -1.630  0.2149E-01  0.2167E-01  0.6002E+01  0.6002E+01
     -1.500  0.4738E-01  0.4759E-01  0.6006E+01  0.6006E+01
     -1.370  0.6778E-01  0.6790E-01  0.6014E+01  0.6014E+01
     -1.240  0.7703E-01  0.7706E-01  0.6023E+01  0.6024E+01
     -1.110  0.8181E-01  0.8187E-01  0.6034E+01  0.6034E+01
     -0.980  0.9196E-01  0.9206E-01  0.6045E+01  0.6045E+01
     -0.850  0.1067E+00  0.1068E+00  0.6058E+01  0.6058E+01
     -0.720  0.1228E+00  0.1229E+00  0.6073E+01  0.6073E+01
     -0.590  0.1396E+00  0.1398E+00  0.6090E+01  0.6090E+01
     -0.460  0.1532E+00  0.1533E+00  0.6109E+01  0.6109E+01
     -0.330  0.1671E+00  0.1673E+00  0.6130E+01  0.6130E+01
     -0.200  0.1898E+00  0.1900E+00  0.6153E+01  0.6153E+01
     -0.070  0.2134E+00  0.2136E+00  0.6179E+01  0.6179E+01
      0.060  0.2355E+00  0.2357E+00  0.6208E+01  0.6208E+01
      0.190  0.2591E+00  0.2592E+00  0.6240E+01  0.6240E+01
      0.320  0.2990E+00  0.2994E+00  0.6276E+01  0.6277E+01
      0.450  0.3615E+00  0.3620E+00  0.6319E+01  0.6319E+01
      0.580  0.4435E+00  0.4440E+00  0.6371E+01  0.6371E+01
      0.710  0.1399E+01  0.1396E+01  0.6479E+01  0.6481E+01
      0.840  0.1081E+01  0.1079E+01  0.6638E+01  0.6638E+01
      0.970  0.8686E+00  0.8665E+00  0.6767E+01  0.6767E+01
      1.100  0.8562E+00  0.8573E+00  0.6870E+01  0.6870E+01
      1.230  0.1032E+01  0.1033E+01  0.6992E+01  0.6993E+01
      1.360  0.1257E+01  0.1259E+01  0.7141E+01  0.7142E+01
      1.490  0.1734E+01  0.1737E+01  0.7335E+01  0.7336E+01
      1.620  0.2337E+01  0.2329E+01  0.7653E+01  0.7654E+01
      1.750  0.1484E+01  0.1480E+01  0.7884E+01  0.7884E+01
      1.880  0.8755E+00  0.8737E+00  0.8034E+01  0.8035E+01
      2.010  0.5315E+00  0.5310E+00  0.8113E+01  0.8114E+01
      2.140  0.4480E+00  0.4478E+00  0.8176E+01  0.8177E+01
      2.270  0.4471E+00  0.4473E+00  0.8233E+01  0.8233E+01
      2.400  0.1492E+01  0.1495E+01  0.8322E+01  0.8322E+01
      2.530  0.3870E+01  0.3875E+01  0.8658E+01  0.8660E+01
      2.660  0.3529E+01  0.3486E+01  0.9115E+01  0.9117E+01
      2.790  0.1248E+01  0.1245E+01  0.9373E+01  0.9374E+01
      2.920  0.1315E+01  0.1316E+01  0.9525E+01  0.9525E+01
      3.050  0.1482E+01  0.1483E+01  0.9702E+01  0.9703E+01
      3.180  0.1666E+01  0.1667E+01  0.9905E+01  0.9906E+01
      3.310  0.2221E+01  0.2224E+01  0.1016E+02  0.1016E+02
      3.440  0.4291E+01  0.4230E+01  0.1051E+02  0.1051E+02
      3.570  0.2282E+01  0.2280E+01  0.1088E+02  0.1089E+02
      3.700  0.1811E+01  0.1811E+01  0.1114E+02  0.1114E+02
      3.830  0.1554E+01  0.1552E+01  0.1136E+02  0.1136E+02
      3.960  0.1120E+01  0.1118E+01  0.1154E+02  0.1154E+02
      4.090  0.7529E+00  0.7523E+00  0.1165E+02  0.1165E+02
      4.220  0.5587E+00  0.5583E+00  0.1173E+02  0.1173E+02
      4.350  0.5359E+00  0.5355E+00  0.1181E+02  0.1181E+02
      4.480  0.4686E+00  0.4682E+00  0.1187E+02  0.1187E+02
      4.610  0.3557E+00  0.3555E+00  0.1193E+02  0.1193E+02
      4.740  0.2945E+00  0.2942E+00  0.1197E+02  0.1197E+02
      4.870  0.2724E+00  0.2735E+00  0.1200E+02  0.1200E+02
      5.000  0.5105E+00  0.5113E+00  0.1205E+02  0.1205E+02
      5.130  0.7093E+00  0.7098E+00  0.1213E+02  0.1213E+02
      5.260  0.9304E+00  0.9309E+00  0.1223E+02  0.1224E+02
      5.390  0.1136E+01  0.1137E+01  0.1237E+02  0.1237E+02
      5.520  0.1333E+01  0.1334E+01  0.1253E+02  0.1253E+02
      5.650  0.1539E+01  0.1540E+01  0.1272E+02  0.1272E+02
      5.780  0.1730E+01  0.1730E+01  0.1293E+02  0.1293E+02
      5.910  0.1927E+01  0.1938E+01  0.1315E+02  0.1315E+02
      6.040  0.2269E+01  0.2269E+01  0.1345E+02  0.1345E+02
      6.170  0.1886E+01  0.1886E+01  0.1371E+02  0.1371E+02
      6.300  0.1944E+01  0.1943E+01  0.1395E+02  0.1395E+02
      6.430  0.1484E+01  0.1482E+01  0.1416E+02  0.1417E+02
      6.560  0.1474E+01  0.1474E+01  0.1435E+02  0.1435E+02
      6.690  0.2161E+01  0.2169E+01  0.1458E+02  0.1458E+02
      6.820  0.8004E+01  0.7991E+01  0.1508E+02  0.1508E+02
      6.950  0.2457E+01  0.2480E+01  0.1551E+02  0.1551E+02
      7.080  0.1604E+01  0.1517E+01  0.1573E+02  0.1573E+02
      7.210  0.8439E+00  0.8519E+00  0.1589E+02  0.1589E+02
      7.340  0.3641E+00  0.3621E+00  0.1597E+02  0.1597E+02
      7.470  0.9467E-01  0.9368E-01  0.1600E+02  0.1600E+02
      7.600  0.9073E-02  0.9070E-02  0.1600E+02  0.1600E+02
      7.730  0.4479E-02  0.4479E-02  0.1600E+02  0.1600E+02
      7.860  0.1490E-02  0.1491E-02  0.1600E+02  0.1600E+02
      7.990  0.1057E-03  0.1060E-03  0.1600E+02  0.1600E+02
      8.120  0.0000E+00  0.0000E+00  0.1600E+02  0.1600E+02
      8.250  0.0000E+00  0.0000E+00  0.1600E+02  0.1600E+02
      8.380  0.0000E+00  0.0000E+00  0.1600E+02  0.1600E+02
      8.510  0.0000E+00  0.0000E+00  0.1600E+02  0.1600E+02
      8.640  0.0000E+00  0.0000E+00  0.1600E+02  0.1600E+02
      8.770  0.0000E+00  0.0000E+00  0.1600E+02  0.1600E+02
      8.900  0.0000E+00  0.0000E+00  0.1600E+02  0.1600E+02
      9.030  0.0000E+00  0.0000E+00  0.1600E+02  0.1600E+02
      9.160  0.0000E+00  0.0000E+00  0.1600E+02  0.1600E+02
      9.290  0.0000E+00  0.0000E+00  0.1600E+02  0.1600E+02
      9.420  0.0000E+00  0.0000E+00  0.1600E+02  0.1600E+02
      9.550  0.0000E+00  0.0000E+00  0.1600E+02  0.1600E+02
      9.680  0.0000E+00  0.0000E+00  0.1600E+02  0.1600E+02
      9.810  0.0000E+00  0.0000E+00  0.1600E+02  0.1600E+02
      9.80953194    -29.18722455  301      3.62556485      1.00000000
    -29.187  0.0000E+00  0.0000E+00  0.0000E+00  0.0000E+00  0.0000E+00  0.0000E+00  0.0000E+00  0.0000E+00  0.0000E+00  0.0000E+00  0.0000E+00  0.0000E+00  0.0000E+00  0.0000E+00  0.0000E+00  0.0000E+00  0.0000E+00  0.0000E+00
    -29.057  0.0000E+00  0.0000E+00  0.0000E+00  0.0000E+00  0.0000E+00  0.0000E+00  0.0000E+00  0.0000E+00  0.0000E+00  0.0000E+00  0.0000E+00  0.0000E+00  0.0000E+00  0.0000E+00  0.0000E+00  0.0000E+00  0.0000E+00  0.0000E+00
    -28.927  0.0000E+00  0.0000E+00  0.0000E+00  0.0000E+00  0.0000E+00  0.0000E+00  0.0000E+00  0.0000E+00  0.0000E+00  0.0000E+00  0.0000E+00  0.0000E+00  0.0000E+00  0.0000E+00  0.0000E+00  0.0000E+00  0.0000E+00  0.0000E+00
    -28.797  0.0000E+00  0.0000E+00  0.0000E+00  0.0000E+00  0.0000E+00  0.0000E+00  0.0000E+00  0.0000E+00  0.0000E+00  0.0000E+00  0.0000E+00  0.0000E+00  0.0000E+00  0.0000E+00  0.0000E+00  0.0000E+00  0.0000E+00  0.0000E+00
    -28.667  0.0000E+00  0.0000E+00  0.0000E+00  0.0000E+00  0.0000E+00  0.0000E+00  0.0000E+00  0.0000E+00  0.0000E+00  0.0000E+00  0.0000E+00  0.0000E+00  0.0000E+00  0.0000E+00  0.0000E+00  0.0000E+00  0.0000E+00  0.0000E+00
    -28.537  0.0000E+00  0.0000E+00  0.0000E+00  0.0000E+00  0.0000E+00  0.0000E+00  0.0000E+00  0.0000E+00  0.0000E+00  0.0000E+00  0.0000E+00  0.0000E+00  0.0000E+00  0.0000E+00  0.0000E+00  0.0000E+00  0.0000E+00  0.0000E+00
    -28.407  0.0000E+00  0.0000E+00  0.0000E+00  0.0000E+00  0.0000E+00  0.0000E+00  0.0000E+00  0.0000E+00  0.0000E+00  0.0000E+00  0.0000E+00  0.0000E+00  0.0000E+00  0.0000E+00  0.0000E+00  0.0000E+00  0.0000E+00  0.0000E+00
    -28.277  0.0000E+00  0.0000E+00  0.0000E+00  0.0000E+00  0.0000E+00  0.0000E+00  0.0000E+00  0.0000E+00  0.0000E+00  0.0000E+00  0.0000E+00  0.0000E+00  0.0000E+00  0.0000E+00  0.0000E+00  0.0000E+00  0.0000E+00  0.0000E+00
    -28.147  0.0000E+00  0.0000E+00  0.0000E+00  0.0000E+00  0.0000E+00  0.0000E+00  0.0000E+00  0.0000E+00  0.0000E+00  0.0000E+00  0.0000E+00  0.0000E+00  0.0000E+00  0.0000E+00  0.0000E+00  0.0000E+00  0.0000E+00  0.0000E+00
    -28.017  0.0000E+00  0.0000E+00  0.0000E+00  0.0000E+00  0.0000E+00  0.0000E+00  0.0000E+00  0.0000E+00  0.0000E+00  0.0000E+00  0.0000E+00  0.0000E+00  0.0000E+00  0.0000E+00  0.0000E+00  0.0000E+00  0.0000E+00  0.0000E+00
    -27.887  0.0000E+00  0.0000E+00  0.0000E+00  0.0000E+00  0.0000E+00  0.0000E+00  0.0000E+00  0.0000E+00  0.0000E+00  0.0000E+00  0.0000E+00  0.0000E+00  0.0000E+00  0.0000E+00  0.0000E+00  0.0000E+00  0.0000E+00  0.0000E+00
    -27.757  0.0000E+00  0.0000E+00  0.0000E+00  0.0000E+00  0.0000E+00  0.0000E+00  0.0000E+00  0.0000E+00  0.0000E+00  0.0000E+00  0.0000E+00  0.0000E+00  0.0000E+00  0.0000E+00  0.0000E+00  0.0000E+00  0.0000E+00  0.0000E+00
    -27.627  0.0000E+00  0.0000E+00  0.0000E+00  0.0000E+00  0.0000E+00  0.0000E+00  0.0000E+00  0.0000E+00  0.0000E+00  0.0000E+00  0.0000E+00  0.0000E+00  0.0000E+00  0.0000E+00  0.0000E+00  0.0000E+00  0.0000E+00  0.0000E+00
    -27.497  0.0000E+00  0.0000E+00  0.0000E+00  0.0000E+00  0.0000E+00  0.0000E+00  0.0000E+00  0.0000E+00  0.0000E+00  0.0000E+00  0.0000E+00  0.0000E+00  0.0000E+00  0.0000E+00  0.0000E+00  0.0000E+00  0.0000E+00  0.0000E+00
    -27.367  0.1925E-03  0.1920E-03  0.6214E+00  0.6203E+00  0.6214E+00  0.6203E+00  0.6214E+00  0.6203E+00  0.7667E-04  0.7873E-04  0.7667E-04  0.7873E-04  0.3280E-04  0.3353E-04  0.7667E-04  0.7873E-04  0.3280E-04  0.3353E-04
    -27.237  0.1411E-02  0.1411E-02  0.1886E+01  0.1887E+01  0.1886E+01  0.1887E+01  0.1886E+01  0.1887E+01  0.3679E-03  0.3742E-03  0.3679E-03  0.3742E-03  0.1939E-03  0.1956E-03  0.3679E-03  0.3742E-03  0.1939E-03  0.1956E-03
    -27.107  0.6546E-03  0.6550E-03  0.9742E+00  0.9741E+00  0.9742E+00  0.9741E+00  0.9742E+00  0.9741E+00  0.3616E-03  0.3657E-03  0.3616E-03  0.3657E-03  0.4508E-04  0.4549E-04  0.3616E-03  0.3657E-03  0.4508E-04  0.4549E-04
    -26.977  0.1760E-03  0.1749E-03  0.9891E+00  0.9902E+00  0.9891E+00  0.9902E+00  0.9891E+00  0.9902E+00  0.4227E-03  0.4272E-03  0.4227E-03  0.4272E-03  0.2828E-04  0.2817E-04  0.4227E-03  0.4272E-03  0.2828E-04  0.2817E-04
    -26.847  0.3836E-03  0.3841E-03  0.1484E+01  0.1484E+01  0.1484E+01  0.1484E+01  0.1484E+01  0.1484E+01  0.6258E-03  0.6290E-03  0.6258E-03  0.6290E-03  0.2057E-04  0.2030E-04  0.6258E-03  0.6290E-03  0.2057E-04  0.2030E-04
    -26.717  0.4728E-03  0.4734E-03  0.3409E+01  0.3403E+01  0.3409E+01  0.3403E+01  0.3409E+01  0.3403E+01  0.5365E-03  0.5333E-03  0.5365E-03  0.5333E-03  0.1728E-04  0.1654E-04  0.5365E-03  0.5333E-03  0.1728E-04  0.1654E-04
    -26.587  0.1372E-04  0.1372E-04  0.2532E+00  0.2532E+00  0.2532E+00  0.2532E+00  0.2532E+00  0.2532E+00  0.1963E-04  0.1943E-04  0.1963E-04  0.1943E-04  0.2793E-06  0.2620E-06  0.1963E-04  0.1943E-04  0.2793E-06  0.2620E-06
    -26.457  0.0000E+00  0.0000E+00  0.0000E+00  0.0000E+00  0.0000E+00  0.0000E+00  0.0000E+00  0.0000E+00  0.0000E+00  0.0000E+00  0.0000E+00  0.0000E+00  0.0000E+00  0.0000E+00  0.0000E+00  0.0000E+00  0.0000E+00  0.0000E+00
    -26.327  0.0000E+00  0.0000E+00  0.0000E+00  0.0000E+00  0.0000E+00  0.0000E+00  0.0000E+00  0.0000E+00  0.0000E+00  0.0000E+00  0.0000E+00  0.0000E+00  0.0000E+00  0.0000E+00  0.0000E+00  0.0000E+00  0.0000E+00  0.0000E+00
    -26.197  0.0000E+00  0.0000E+00  0.0000E+00  0.0000E+00  0.0000E+00  0.0000E+00  0.0000E+00  0.0000E+00  0.0000E+00  0.0000E+00  0.0000E+00  0.0000E+00  0.0000E+00  0.0000E+00  0.0000E+00  0.0000E+00  0.0000E+00  0.0000E+00
    -26.067  0.0000E+00  0.0000E+00  0.0000E+00  0.0000E+00  0.0000E+00  0.0000E+00  0.0000E+00  0.0000E+00  0.0000E+00  0.0000E+00  0.0000E+00  0.0000E+00  0.0000E+00  0.0000E+00  0.0000E+00  0.0000E+00  0.0000E+00  0.0000E+00
    -25.937  0.0000E+00  0.0000E+00  0.0000E+00  0.0000E+00  0.0000E+00  0.0000E+00  0.0000E+00  0.0000E+00  0.0000E+00  0.0000E+00  0.0000E+00  0.0000E+00  0.0000E+00  0.0000E+00  0.0000E+00  0.0000E+00  0.0000E+00  0.0000E+00
    -25.808  0.0000E+00  0.0000E+00  0.0000E+00  0.0000E+00  0.0000E+00  0.0000E+00  0.0000E+00  0.0000E+00  0.0000E+00  0.0000E+00  0.0000E+00  0.0000E+00  0.0000E+00  0.0000E+00  0.0000E+00  0.0000E+00  0.0000E+00  0.0000E+00
    -25.678  0.0000E+00  0.0000E+00  0.0000E+00  0.0000E+00  0.0000E+00  0.0000E+00  0.0000E+00  0.0000E+00  0.0000E+00  0.0000E+00  0.0000E+00  0.0000E+00  0.0000E+00  0.0000E+00  0.0000E+00  0.0000E+00  0.0000E+00  0.0000E+00
    -25.548  0.0000E+00  0.0000E+00  0.0000E+00  0.0000E+00  0.0000E+00  0.0000E+00  0.0000E+00  0.0000E+00  0.0000E+00  0.0000E+00  0.0000E+00  0.0000E+00  0.0000E+00  0.0000E+00  0.0000E+00  0.0000E+00  0.0000E+00  0.0000E+00
    -25.418  0.0000E+00  0.0000E+00  0.0000E+00  0.0000E+00  0.0000E+00  0.0000E+00  0.0000E+00  0.0000E+00  0.0000E+00  0.0000E+00  0.0000E+00  0.0000E+00  0.0000E+00  0.0000E+00  0.0000E+00  0.0000E+00  0.0000E+00  0.0000E+00
    -25.288  0.0000E+00  0.0000E+00  0.0000E+00  0.0000E+00  0.0000E+00  0.0000E+00  0.0000E+00  0.0000E+00  0.0000E+00  0.0000E+00  0.0000E+00  0.0000E+00  0.0000E+00  0.0000E+00  0.0000E+00  0.0000E+00  0.0000E+00  0.0000E+00
    -25.158  0.0000E+00  0.0000E+00  0.0000E+00  0.0000E+00  0.0000E+00  0.0000E+00  0.0000E+00  0.0000E+00  0.0000E+00  0.0000E+00  0.0000E+00  0.0000E+00  0.0000E+00  0.0000E+00  0.0000E+00  0.0000E+00  0.0000E+00  0.0000E+00
    -25.028  0.0000E+00  0.0000E+00  0.0000E+00  0.0000E+00  0.0000E+00  0.0000E+00  0.0000E+00  0.0000E+00  0.0000E+00  0.0000E+00  0.0000E+00  0.0000E+00  0.0000E+00  0.0000E+00  0.0000E+00  0.0000E+00  0.0000E+00  0.0000E+00
    -24.898  0.0000E+00  0.0000E+00  0.0000E+00  0.0000E+00  0.0000E+00  0.0000E+00  0.0000E+00  0.0000E+00  0.0000E+00  0.0000E+00  0.0000E+00  0.0000E+00  0.0000E+00  0.0000E+00  0.0000E+00  0.0000E+00  0.0000E+00  0.0000E+00
    -24.768  0.0000E+00  0.0000E+00  0.0000E+00  0.0000E+00  0.0000E+00  0.0000E+00  0.0000E+00  0.0000E+00  0.0000E+00  0.0000E+00  0.0000E+00  0.0000E+00  0.0000E+00  0.0000E+00  0.0000E+00  0.0000E+00  0.0000E+00  0.0000E+00
    -24.638  0.0000E+00  0.0000E+00  0.0000E+00  0.0000E+00  0.0000E+00  0.0000E+00  0.0000E+00  0.0000E+00  0.0000E+00  0.0000E+00  0.0000E+00  0.0000E+00  0.0000E+00  0.0000E+00  0.0000E+00  0.0000E+00  0.0000E+00  0.0000E+00
    -24.508  0.0000E+00  0.0000E+00  0.0000E+00  0.0000E+00  0.0000E+00  0.0000E+00  0.0000E+00  0.0000E+00  0.0000E+00  0.0000E+00  0.0000E+00  0.0000E+00  0.0000E+00  0.0000E+00  0.0000E+00  0.0000E+00  0.0000E+00  0.0000E+00
    -24.378  0.0000E+00  0.0000E+00  0.0000E+00  0.0000E+00  0.0000E+00  0.0000E+00  0.0000E+00  0.0000E+00  0.0000E+00  0.0000E+00  0.0000E+00  0.0000E+00  0.0000E+00  0.0000E+00  0.0000E+00  0.0000E+00  0.0000E+00  0.0000E+00
    -24.248  0.0000E+00  0.0000E+00  0.0000E+00  0.0000E+00  0.0000E+00  0.0000E+00  0.0000E+00  0.0000E+00  0.0000E+00  0.0000E+00  0.0000E+00  0.0000E+00  0.0000E+00  0.0000E+00  0.0000E+00  0.0000E+00  0.0000E+00  0.0000E+00
    -24.118  0.0000E+00  0.0000E+00  0.0000E+00  0.0000E+00  0.0000E+00  0.0000E+00  0.0000E+00  0.0000E+00  0.0000E+00  0.0000E+00  0.0000E+00  0.0000E+00  0.0000E+00  0.0000E+00  0.0000E+00  0.0000E+00  0.0000E+00  0.0000E+00
    -23.988  0.0000E+00  0.0000E+00  0.0000E+00  0.0000E+00  0.0000E+00  0.0000E+00  0.0000E+00  0.0000E+00  0.0000E+00  0.0000E+00  0.0000E+00  0.0000E+00  0.0000E+00  0.0000E+00  0.0000E+00  0.0000E+00  0.0000E+00  0.0000E+00
    -23.858  0.0000E+00  0.0000E+00  0.0000E+00  0.0000E+00  0.0000E+00  0.0000E+00  0.0000E+00  0.0000E+00  0.0000E+00  0.0000E+00  0.0000E+00  0.0000E+00  0.0000E+00  0.0000E+00  0.0000E+00  0.0000E+00  0.0000E+00  0.0000E+00
    -23.728  0.0000E+00  0.0000E+00  0.0000E+00  0.0000E+00  0.0000E+00  0.0000E+00  0.0000E+00  0.0000E+00  0.0000E+00  0.0000E+00  0.0000E+00  0.0000E+00  0.0000E+00  0.0000E+00  0.0000E+00  0.0000E+00  0.0000E+00  0.0000E+00
    -23.598  0.0000E+00  0.0000E+00  0.0000E+00  0.0000E+00  0.0000E+00  0.0000E+00  0.0000E+00  0.0000E+00  0.0000E+00  0.0000E+00  0.0000E+00  0.0000E+00  0.0000E+00  0.0000E+00  0.0000E+00  0.0000E+00  0.0000E+00  0.0000E+00
    -23.468  0.0000E+00  0.0000E+00  0.0000E+00  0.0000E+00  0.0000E+00  0.0000E+00  0.0000E+00  0.0000E+00  0.0000E+00  0.0000E+00  0.0000E+00  0.0000E+00  0.0000E+00  0.0000E+00  0.0000E+00  0.0000E+00  0.0000E+00  0.0000E+00
    -23.338  0.0000E+00  0.0000E+00  0.0000E+00  0.0000E+00  0.0000E+00  0.0000E+00  0.0000E+00  0.0000E+00  0.0000E+00  0.0000E+00  0.0000E+00  0.0000E+00  0.0000E+00  0.0000E+00  0.0000E+00  0.0000E+00  0.0000E+00  0.0000E+00
    -23.208  0.0000E+00  0.0000E+00  0.0000E+00  0.0000E+00  0.0000E+00  0.0000E+00  0.0000E+00  0.0000E+00  0.0000E+00  0.0000E+00  0.0000E+00  0.0000E+00  0.0000E+00  0.0000E+00  0.0000E+00  0.0000E+00  0.0000E+00  0.0000E+00
    -23.078  0.0000E+00  0.0000E+00  0.0000E+00  0.0000E+00  0.0000E+00  0.0000E+00  0.0000E+00  0.0000E+00  0.0000E+00  0.0000E+00  0.0000E+00  0.0000E+00  0.0000E+00  0.0000E+00  0.0000E+00  0.0000E+00  0.0000E+00  0.0000E+00
    -22.948  0.0000E+00  0.0000E+00  0.0000E+00  0.0000E+00  0.0000E+00  0.0000E+00  0.0000E+00  0.0000E+00  0.0000E+00  0.0000E+00  0.0000E+00  0.0000E+00  0.0000E+00  0.0000E+00  0.0000E+00  0.0000E+00  0.0000E+00  0.0000E+00
    -22.818  0.0000E+00  0.0000E+00  0.0000E+00  0.0000E+00  0.0000E+00  0.0000E+00  0.0000E+00  0.0000E+00  0.0000E+00  0.0000E+00  0.0000E+00  0.0000E+00  0.0000E+00  0.0000E+00  0.0000E+00  0.0000E+00  0.0000E+00  0.0000E+00
    -22.688  0.0000E+00  0.0000E+00  0.0000E+00  0.0000E+00  0.0000E+00  0.0000E+00  0.0000E+00  0.0000E+00  0.0000E+00  0.0000E+00  0.0000E+00  0.0000E+00  0.0000E+00  0.0000E+00  0.0000E+00  0.0000E+00  0.0000E+00  0.0000E+00