   2   2   1   0
  0.1118613E+02  0.2817756E-09  0.2817756E-09  0.2817756E-09  0.5000000E-15
  1.000000000000000E-004
  CAR 
 unknown system                          
     35.00345472    -35.46536169  301     11.43135832      1.00000000
    -35.465  0.0000E+00  0.0000E+00  0.0000E+00  0.0000E+00
    -35.230  0.0000E+00  0.0000E+00  0.0000E+00  0.0000E+00
    -34.996  0.0000E+00  0.0000E+00  0.0000E+00  0.0000E+00
    -34.761  0.0000E+00  0.0000E+00  0.0000E+00  0.0000E+00
    -34.526  0.0000E+00  0.0000E+00  0.0000E+00  0.0000E+00
    -34.291  0.0000E+00  0.0000E+00  0.0000E+00  0.0000E+00
    -34.056  0.0000E+00  0.0000E+00  0.0000E+00  0.0000E+00
    -33.821  0.0000E+00  0.0000E+00  0.0000E+00  0.0000E+00
    -33.586  0.0000E+00  0.0000E+00  0.0000E+00  0.0000E+00
    -33.351  0.0000E+00  0.0000E+00  0.0000E+00  0.0000E+00
    -33.116  0.0000E+00  0.0000E+00  0.0000E+00  0.0000E+00
    -32.882  0.1713E-06  0.3217E-06  0.4024E-07  0.7557E-07
    -32.647  0.2152E-03  0.2231E-03  0.5059E-04  0.5249E-04
    -32.412  0.2333E-01  0.2418E-01  0.5532E-02  0.5732E-02
    -32.177  0.1207E+01  0.1233E+01  0.2890E+00  0.2953E+00
    -31.942  0.5074E+01  0.5084E+01  0.1481E+01  0.1489E+01
    -31.707  0.4690E+01  0.4695E+01  0.2591E+01  0.2601E+01
    -31.472  0.6512E+01  0.6524E+01  0.4127E+01  0.4140E+01
    -31.237  0.6890E+01  0.6866E+01  0.5756E+01  0.5763E+01
    -31.002  0.9722E+00  0.9423E+00  0.5997E+01  0.5997E+01
    -30.767  0.0000E+00  0.0000E+00  0.6000E+01  0.6000E+01
    -30.533  0.0000E+00  0.0000E+00  0.6000E+01  0.6000E+01
    -30.298  0.0000E+00  0.0000E+00  0.6000E+01  0.6000E+01
    -30.063  0.0000E+00  0.0000E+00  0.6000E+01  0.6000E+01
    -29.828  0.0000E+00  0.0000E+00  0.6000E+01  0.6000E+01
    -29.593  0.0000E+00  0.0000E+00  0.6000E+01  0.6000E+01
    -29.358  0.0000E+00  0.0000E+00  0.6000E+01  0.6000E+01
    -29.123  0.0000E+00  0.0000E+00  0.6000E+01  0.6000E+01
    -28.888  0.0000E+00  0.0000E+00  0.6000E+01  0.6000E+01
    -28.653  0.0000E+00  0.0000E+00  0.6000E+01  0.6000E+01
    -28.418  0.0000E+00  0.0000E+00  0.6000E+01  0.6000E+01
    -28.184  0.0000E+00  0.0000E+00  0.6000E+01  0.6000E+01
    -27.949  0.0000E+00  0.0000E+00  0.6000E+01  0.6000E+01
    -27.714  0.0000E+00  0.0000E+00  0.6000E+01  0.6000E+01
    -27.479  0.0000E+00  0.0000E+00  0.6000E+01  0.6000E+01
    -27.244  0.0000E+00  0.0000E+00  0.6000E+01  0.6000E+01
    -27.009  0.0000E+00  0.0000E+00  0.6000E+01  0.6000E+01
    -26.774  0.0000E+00  0.0000E+00  0.6000E+01  0.6000E+01
    -26.539  0.0000E+00  0.0000E+00  0.6000E+01  0.6000E+01
    -26.304  0.0000E+00  0.0000E+00  0.6000E+01  0.6000E+01
    -26.070  0.0000E+00  0.0000E+00  0.6000E+01  0.6000E+01
    -25.835  0.0000E+00  0.0000E+00  0.6000E+01  0.6000E+01
    -25.600  0.0000E+00  0.0000E+00  0.6000E+01  0.6000E+01
    -25.365  0.0000E+00  0.0000E+00  0.6000E+01  0.6000E+01
    -25.130  0.0000E+00  0.0000E+00  0.6000E+01  0.6000E+01
    -24.895  0.0000E+00  0.0000E+00  0.6000E+01  0.6000E+01
    -24.660  0.0000E+00  0.0000E+00  0.6000E+01  0.6000E+01
    -24.425  0.0000E+00  0.0000E+00  0.6000E+01  0.6000E+01
    -24.190  0.0000E+00  0.0000E+00  0.6000E+01  0.6000E+01
    -23.955  0.0000E+00  0.0000E+00  0.6000E+01  0.6000E+01
    -23.721  0.0000E+00  0.0000E+00  0.6000E+01  0.6000E+01
    -23.486  0.0000E+00  0.0000E+00  0.6000E+01  0.6000E+01
    -23.251  0.0000E+00  0.0000E+00  0.6000E+01  0.6000E+01
    -23.016  0.0000E+00  0.0000E+00  0.6000E+01  0.6000E+01
    -22.781  0.0000E+00  0.0000E+00  0.6000E+01  0.6000E+01
    -22.546  0.0000E+00  0.0000E+00  0.6000E+01  0.6000E+01
    -22.311  0.0000E+00  0.0000E+00  0.6000E+01  0.6000E+01
    -22.076  0.0000E+00  0.0000E+00  0.6000E+01  0.6000E+01
    -21.841  0.0000E+00  0.0000E+00  0.6000E+01  0.6000E+01
    -21.606  0.0000E+00  0.0000E+00  0.6000E+01  0.6000E+01
    -21.372  0.0000E+00  0.0000E+00  0.6000E+01  0.6000E+01
    -21.137  0.0000E+00  0.0000E+00  0.6000E+01  0.6000E+01
    -20.902  0.0000E+00  0.0000E+00  0.6000E+01  0.6000E+01
    -20.667  0.0000E+00  0.0000E+00  0.6000E+01  0.6000E+01
    -20.432  0.0000E+00  0.0000E+00  0.6000E+01  0.6000E+01
    -20.197  0.0000E+00  0.0000E+00  0.6000E+01  0.6000E+01
    -19.962  0.0000E+00  0.0000E+00  0.6000E+01  0.6000E+01
    -19.727  0.0000E+00  0.0000E+00  0.6000E+01  0.6000E+01
    -19.492  0.0000E+00  0.0000E+00  0.6000E+01  0.6000E+01
    -19.258  0.0000E+00  0.0000E+00  0.6000E+01  0.6000E+01
    -19.023  0.0000E+00  0.0000E+00  0.6000E+01  0.6000E+01
    -18.788  0.0000E+00  0.0000E+00  0.6000E+01  0.6000E+01
    -18.553  0.0000E+00  0.0000E+00  0.6000E+01  0.6000E+01
    -18.318  0.0000E+00  0.0000E+00  0.6000E+01  0.6000E+01
    -18.083  0.0000E+00  0.0000E+00  0.6000E+01  0.6000E+01
    -17.848  0.0000E+00  0.0000E+00  0.6000E+01  0.6000E+01
    -17.613  0.0000E+00  0.0000E+00  0.6000E+01  0.6000E+01
    -17.378  0.0000E+00  0.0000E+00  0.6000E+01  0.6000E+01
    -17.143  0.0000E+00  0.0000E+00  0.6000E+01  0.6000E+01
    -16.909  0.0000E+00  0.0000E+00  0.6000E+01  0.6000E+01
    -16.674  0.0000E+00  0.0000E+00  0.6000E+01  0.6000E+01
    -16.439  0.0000E+00  0.0000E+00  0.6000E+01  0.6000E+01
    -16.204  0.0000E+00  0.0000E+00  0.6000E+01  0.6000E+01
    -15.969  0.0000E+00  0.0000E+00  0.6000E+01  0.6000E+01
    -15.734  0.0000E+00  0.0000E+00  0.6000E+01  0.6000E+01
    -15.499  0.0000E+00  0.0000E+00  0.6000E+01  0.6000E+01
    -15.264  0.0000E+00  0.0000E+00  0.6000E+01  0.6000E+01
    -15.029  0.0000E+00  0.0000E+00  0.6000E+01  0.6000E+01
    -14.795  0.0000E+00  0.0000E+00  0.6000E+01  0.6000E+01
    -14.560  0.0000E+00  0.0000E+00  0.6000E+01  0.6000E+01
    -14.325  0.0000E+00  0.0000E+00  0.6000E+01  0.6000E+01
    -14.090  0.0000E+00  0.0000E+00  0.6000E+01  0.6000E+01
    -13.855  0.0000E+00  0.0000E+00  0.6000E+01  0.6000E+01
    -13.620  0.0000E+00  0.0000E+00  0.6000E+01  0.6000E+01
    -13.385  0.0000E+00  0.0000E+00  0.6000E+01  0.6000E+01
    -13.150  0.0000E+00  0.0000E+00  0.6000E+01  0.6000E+01
    -12.915  0.0000E+00  0.0000E+00  0.6000E+01  0.6000E+01
    -12.680  0.0000E+00  0.0000E+00  0.6000E+01  0.6000E+01
    -12.446  0.0000E+00  0.0000E+00  0.6000E+01  0.6000E+01
    -12.211  0.0000E+00  0.0000E+00  0.6000E+01  0.6000E+01
    -11.976  0.0000E+00  0.0000E+00  0.6000E+01  0.6000E+01
    -11.741  0.0000E+00  0.0000E+00  0.6000E+01  0.6000E+01
    -11.506  0.0000E+00  0.0000E+00  0.6000E+01  0.6000E+01
    -11.271  0.0000E+00  0.0000E+00  0.6000E+01  0.6000E+01
    -11.036  0.0000E+00  0.0000E+00  0.6000E+01  0.6000E+01
    -10.801  0.0000E+00  0.0000E+00  0.6000E+01  0.6000E+01
    -10.566  0.0000E+00  0.0000E+00  0.6000E+01  0.6000E+01
    -10.331  0.0000E+00  0.0000E+00  0.6000E+01  0.6000E+01
    -10.097  0.0000E+00  0.0000E+00  0.6000E+01  0.6000E+01
     -9.862  0.0000E+00  0.0000E+00  0.6000E+01  0.6000E+01
     -9.627  0.0000E+00  0.0000E+00  0.6000E+01  0.6000E+01
     -9.392  0.0000E+00  0.0000E+00  0.6000E+01  0.6000E+01
     -9.157  0.0000E+00  0.0000E+00  0.6000E+01  0.6000E+01
     -8.922  0.0000E+00  0.0000E+00  0.6000E+01  0.6000E+01
     -8.687  0.0000E+00  0.0000E+00  0.6000E+01  0.6000E+01
     -8.452  0.0000E+00  0.0000E+00  0.6000E+01  0.6000E+01
     -8.217  0.0000E+00  0.0000E+00  0.6000E+01  0.6000E+01
     -7.983  0.0000E+00  0.0000E+00  0.6000E+01  0.6000E+01
     -7.748  0.0000E+00  0.0000E+00  0.6000E+01  0.6000E+01
     -7.513  0.0000E+00  0.0000E+00  0.6000E+01  0.6000E+01
     -7.278  0.0000E+00  0.0000E+00  0.6000E+01  0.6000E+01
     -7.043  0.0000E+00  0.0000E+00  0.6000E+01  0.6000E+01
     -6.808  0.0000E+00  0.0000E+00  0.6000E+01  0.6000E+01
     -6.573  0.0000E+00  0.0000E+00  0.6000E+01  0.6000E+01
     -6.338  0.0000E+00  0.0000E+00  0.6000E+01  0.6000E+01
     -6.103  0.0000E+00  0.0000E+00  0.6000E+01  0.6000E+01
     -5.868  0.0000E+00  0.0000E+00  0.6000E+01  0.6000E+01
     -5.634  0.0000E+00  0.0000E+00  0.6000E+01  0.6000E+01
     -5.399  0.0000E+00  0.0000E+00  0.6000E+01  0.6000E+01
     -5.164  0.0000E+00  0.0000E+00  0.6000E+01  0.6000E+01
     -4.929  0.0000E+00  0.0000E+00  0.6000E+01  0.6000E+01
     -4.694  0.0000E+00  0.0000E+00  0.6000E+01  0.6000E+01
     -4.459  0.0000E+00  0.0000E+00  0.6000E+01  0.6000E+01
     -4.224  0.0000E+00  0.0000E+00  0.6000E+01  0.6000E+01
     -3.989  0.0000E+00  0.0000E+00  0.6000E+01  0.6000E+01
     -3.754  0.0000E+00  0.0000E+00  0.6000E+01  0.6000E+01
     -3.519  0.0000E+00  0.0000E+00  0.6000E+01  0.6000E+01
     -3.285  0.0000E+00  0.0000E+00  0.6000E+01  0.6000E+01
     -3.050  0.0000E+00  0.0000E+00  0.6000E+01  0.6000E+01
     -2.815  0.0000E+00  0.0000E+00  0.6000E+01  0.6000E+01
     -2.580  0.0000E+00  0.0000E+00  0.6000E+01  0.6000E+01
     -2.345  0.0000E+00  0.0000E+00  0.6000E+01  0.6000E+01
     -2.110  0.0000E+00  0.0000E+00  0.6000E+01  0.6000E+01
     -1.875  0.0000E+00  0.0000E+00  0.6000E+01  0.6000E+01
     -1.640  0.0000E+00  0.0000E+00  0.6000E+01  0.6000E+01
     -1.405  0.0000E+00  0.0000E+00  0.6000E+01  0.6000E+01
     -1.171  0.0000E+00  0.0000E+00  0.6000E+01  0.6000E+01
     -0.936  0.0000E+00  0.0000E+00  0.6000E+01  0.6000E+01
     -0.701  0.0000E+00  0.0000E+00  0.6000E+01  0.6000E+01
     -0.466  0.0000E+00  0.0000E+00  0.6000E+01  0.6000E+01
     -0.231  0.0000E+00  0.0000E+00  0.6000E+01  0.6000E+01
      0.004  0.0000E+00  0.0000E+00  0.6000E+01  0.6000E+01
      0.239  0.0000E+00  0.0000E+00  0.6000E+01  0.6000E+01
      0.474  0.0000E+00  0.0000E+00  0.6000E+01  0.6000E+01
      0.709  0.0000E+00  0.0000E+00  0.6000E+01  0.6000E+01
      0.944  0.0000E+00  0.0000E+00  0.6000E+01  0.6000E+01
      1.178  0.0000E+00  0.0000E+00  0.6000E+01  0.6000E+01
      1.413  0.0000E+00  0.0000E+00  0.6000E+01  0.6000E+01
      1.648  0.0000E+00  0.0000E+00  0.6000E+01  0.6000E+01
      1.883  0.0000E+00  0.0000E+00  0.6000E+01  0.6000E+01
      2.118  0.0000E+00  0.0000E+00  0.6000E+01  0.6000E+01
      2.353  0.0000E+00  0.0000E+00  0.6000E+01  0.6000E+01
      2.588  0.0000E+00  0.0000E+00  0.6000E+01  0.6000E+01
      2.823  0.0000E+00  0.0000E+00  0.6000E+01  0.6000E+01
      3.058  0.7515E-06  0.7804E-06  0.6000E+01  0.6000E+01
      3.292  0.8353E-04  0.8668E-04  0.6000E+01  0.6000E+01
      3.527  0.3936E-02  0.4027E-02  0.6001E+01  0.6001E+01
      3.762  0.2586E-01  0.2605E-01  0.6007E+01  0.6007E+01
      3.997  0.3126E-01  0.3127E-01  0.6014E+01  0.6014E+01
      4.232  0.6511E-01  0.6542E-01  0.6030E+01  0.6030E+01
      4.467  0.4295E-01  0.4272E-01  0.6040E+01  0.6040E+01
      4.702  0.8037E-01  0.8080E-01  0.6059E+01  0.6059E+01
      4.937  0.8490E-01  0.8468E-01  0.6079E+01  0.6079E+01
      5.172  0.1008E+00  0.1013E+00  0.6103E+01  0.6103E+01
      5.407  0.6924E-01  0.6887E-01  0.6119E+01  0.6119E+01
      5.641  0.1554E+00  0.1560E+00  0.6156E+01  0.6156E+01
      5.876  0.1419E+00  0.1419E+00  0.6189E+01  0.6189E+01
      6.111  0.1253E+00  0.1254E+00  0.6219E+01  0.6219E+01
      6.346  0.1844E+00  0.1846E+00  0.6262E+01  0.6263E+01
      6.581  0.2527E+00  0.2543E+00  0.6322E+01  0.6323E+01
      6.816  0.3321E+00  0.3328E+00  0.6400E+01  0.6401E+01
      7.051  0.6651E+00  0.6681E+00  0.6557E+01  0.6558E+01
      7.286  0.1006E+01  0.1008E+01  0.6794E+01  0.6796E+01
      7.521  0.1025E+01  0.1024E+01  0.7036E+01  0.7037E+01
      7.756  0.1249E+01  0.1253E+01  0.7331E+01  0.7334E+01
      7.990  0.1578E+01  0.1575E+01  0.7704E+01  0.7706E+01
      8.225  0.9772E+00  0.9779E+00  0.7936E+01  0.7938E+01
      8.460  0.8718E+00  0.8654E+00  0.8142E+01  0.8143E+01
      8.695  0.6024E+00  0.6034E+00  0.8287E+01  0.8289E+01
      8.930  0.1625E+01  0.1636E+01  0.8670E+01  0.8674E+01
      9.165  0.2154E+01  0.2151E+01  0.9178E+01  0.9182E+01
      9.400  0.1636E+01  0.1630E+01  0.9567E+01  0.9569E+01
      9.635  0.1505E+01  0.1507E+01  0.9924E+01  0.9927E+01
      9.870  0.1790E+01  0.1791E+01  0.1035E+02  0.1035E+02
     10.104  0.2015E+01  0.2011E+01  0.1082E+02  0.1083E+02
     10.339  0.1725E+01  0.1722E+01  0.1123E+02  0.1123E+02
     10.574  0.1092E+01  0.1084E+01  0.1149E+02  0.1149E+02
     10.809  0.6384E+00  0.6368E+00  0.1164E+02  0.1164E+02
     11.044  0.4554E+00  0.4547E+00  0.1175E+02  0.1175E+02
     11.279  0.5915E+00  0.5920E+00  0.1189E+02  0.1189E+02
     11.514  0.6782E+00  0.6777E+00  0.1205E+02  0.1205E+02
     11.749  0.8502E+00  0.8535E+00  0.1225E+02  0.1225E+02
     11.984  0.1333E+01  0.1337E+01  0.1257E+02  0.1257E+02
     12.219  0.1716E+01  0.1718E+01  0.1297E+02  0.1297E+02
     12.453  0.2067E+01  0.2069E+01  0.1346E+02  0.1346E+02
     12.688  0.2396E+01  0.2397E+01  0.1403E+02  0.1403E+02
     12.923  0.2715E+01  0.2718E+01  0.1467E+02  0.1467E+02
     13.158  0.2809E+01  0.2804E+01  0.1533E+02  0.1533E+02
     13.393  0.1757E+01  0.1748E+01  0.1575E+02  0.1575E+02
     13.628  0.1113E+01  0.1113E+01  0.1601E+02  0.1602E+02
     13.863  0.1188E+01  0.1190E+01  0.1630E+02  0.1630E+02
     14.098  0.9425E+00  0.9382E+00  0.1652E+02  0.1652E+02
     14.333  0.4633E+00  0.4623E+00  0.1663E+02  0.1663E+02
     14.567  0.4050E+00  0.4046E+00  0.1672E+02  0.1673E+02
     14.802  0.3698E+00  0.3685E+00  0.1681E+02  0.1681E+02
     15.037  0.2226E+00  0.2237E+00  0.1687E+02  0.1687E+02
     15.272  0.4361E+00  0.4360E+00  0.1697E+02  0.1697E+02
     15.507  0.1634E+00  0.1591E+00  0.1701E+02  0.1701E+02
     15.742  0.2093E+00  0.2098E+00  0.1706E+02  0.1706E+02
     15.977  0.3415E+00  0.3434E+00  0.1714E+02  0.1714E+02
     16.212  0.3720E+00  0.3703E+00  0.1723E+02  0.1723E+02
     16.447  0.2703E+00  0.2704E+00  0.1729E+02  0.1729E+02
     16.682  0.1690E+00  0.1679E+00  0.1733E+02  0.1733E+02
     16.916  0.1648E+00  0.1663E+00  0.1737E+02  0.1737E+02
     17.151  0.2866E+00  0.2862E+00  0.1744E+02  0.1744E+02
     17.386  0.2626E+00  0.2629E+00  0.1750E+02  0.1750E+02
     17.621  0.2672E+00  0.2677E+00  0.1756E+02  0.1756E+02
     17.856  0.1925E+00  0.1915E+00  0.1761E+02  0.1761E+02
     18.091  0.1417E+00  0.1421E+00  0.1764E+02  0.1764E+02
     18.326  0.2907E+00  0.2950E+00  0.1771E+02  0.1771E+02
     18.561  0.4865E+01  0.4962E+01  0.1885E+02  0.1888E+02
     18.796  0.3822E+01  0.3723E+01  0.1975E+02  0.1975E+02
     19.031  0.1020E+00  0.1025E+00  0.1979E+02  0.1979E+02
     19.265  0.2057E+00  0.2069E+00  0.1984E+02  0.1984E+02
     19.500  0.1990E+00  0.1974E+00  0.1988E+02  0.1988E+02
     19.735  0.3573E-01  0.3541E-01  0.1989E+02  0.1989E+02
     19.970  0.9685E-01  0.9733E-01  0.1992E+02  0.1992E+02
     20.205  0.3895E-01  0.3835E-01  0.1993E+02  0.1993E+02
     20.440  0.6092E-01  0.6196E-01  0.1994E+02  0.1994E+02
     20.675  0.1214E+00  0.1211E+00  0.1997E+02  0.1997E+02
     20.910  0.8524E-01  0.8473E-01  0.1999E+02  0.1999E+02
     21.145  0.1030E-01  0.1010E-01  0.1999E+02  0.1999E+02
     21.379  0.7483E-01  0.7597E-01  0.2001E+02  0.2001E+02
     21.614  0.2199E+00  0.2225E+00  0.2006E+02  0.2006E+02
     21.849  0.5921E+00  0.5918E+00  0.2020E+02  0.2020E+02
     22.084  0.8015E+00  0.8063E+00  0.2039E+02  0.2039E+02
     22.319  0.5215E+00  0.5160E+00  0.2051E+02  0.2051E+02
     22.554  0.2007E+00  0.2003E+00  0.2056E+02  0.2056E+02
     22.789  0.2956E+00  0.2982E+00  0.2063E+02  0.2063E+02
     23.024  0.6349E+00  0.6349E+00  0.2078E+02  0.2078E+02
     23.259  0.4473E+00  0.4467E+00  0.2089E+02  0.2089E+02
     23.494  0.2771E+00  0.2764E+00  0.2095E+02  0.2095E+02
     23.728  0.3862E+00  0.3871E+00  0.2105E+02  0.2105E+02
     23.963  0.3622E+00  0.3628E+00  0.2113E+02  0.2113E+02
     24.198  0.5795E+00  0.5815E+00  0.2127E+02  0.2127E+02
     24.433  0.6015E+00  0.5982E+00  0.2141E+02  0.2141E+02
     24.668  0.2276E+00  0.2274E+00  0.2146E+02  0.2147E+02
     24.903  0.2707E+00  0.2708E+00  0.2153E+02  0.2153E+02
     25.138  0.3175E+00  0.3192E+00  0.2160E+02  0.2160E+02
     25.373  0.5786E+00  0.5803E+00  0.2174E+02  0.2174E+02
     25.608  0.5749E+00  0.5724E+00  0.2188E+02  0.2188E+02
     25.843  0.2639E+00  0.2636E+00  0.2194E+02  0.2194E+02
     26.077  0.2465E+00  0.2462E+00  0.2200E+02  0.2200E+02
     26.312  0.3238E+00  0.3254E+00  0.2207E+02  0.2208E+02
     26.547  0.3936E+00  0.3941E+00  0.2217E+02  0.2217E+02
     26.782  0.5725E+00  0.5719E+00  0.2230E+02  0.2230E+02
     27.017  0.3807E+00  0.3765E+00  0.2239E+02  0.2239E+02
     27.252  0.3061E+00  0.3070E+00  0.2247E+02  0.2247E+02
     27.487  0.2650E+00  0.2647E+00  0.2253E+02  0.2253E+02
     27.722  0.3578E+00  0.3580E+00  0.2261E+02  0.2261E+02
     27.957  0.3493E+00  0.3508E+00  0.2270E+02  0.2270E+02
     28.191  0.5295E+00  0.5288E+00  0.2282E+02  0.2282E+02
     28.426  0.4267E+00  0.4264E+00  0.2292E+02  0.2292E+02
     28.661  0.3525E+00  0.3526E+00  0.2300E+02  0.2301E+02
     28.896  0.2843E+00  0.2816E+00  0.2307E+02  0.2307E+02
     29.131  0.3865E+00  0.3893E+00  0.2316E+02  0.2316E+02
     29.366  0.4211E+00  0.4222E+00  0.2326E+02  0.2326E+02
     29.601  0.5846E+00  0.5782E+00  0.2340E+02  0.2340E+02
     29.836  0.5909E+00  0.5858E+00  0.2354E+02  0.2354E+02
     30.071  0.3994E+00  0.3684E+00  0.2364E+02  0.2363E+02
     30.306  0.3350E+00  0.3225E+00  0.2372E+02  0.2370E+02
     30.540  0.3114E+00  0.3282E+00  0.2379E+02  0.2378E+02
     30.775  0.3827E+00  0.3768E+00  0.2388E+02  0.2387E+02
     31.010  0.2588E+00  0.1565E+00  0.2394E+02  0.2391E+02
     31.245  0.8762E-01  0.5913E-01  0.2396E+02  0.2392E+02
     31.480  0.5115E-01  0.1308E+00  0.2397E+02  0.2395E+02
     31.715  0.4439E-01  0.1270E+00  0.2399E+02  0.2398E+02
     31.950  0.6076E-01  0.6993E-01  0.2400E+02  0.2400E+02
     32.185  0.1094E-02  0.1103E-02  0.2400E+02  0.2400E+02
     32.420  0.0000E+00  0.0000E+00  0.2400E+02  0.2400E+02
     32.654  0.0000E+00  0.0000E+00  0.2400E+02  0.2400E+02
     32.889  0.0000E+00  0.0000E+00  0.2400E+02  0.2400E+02
     33.124  0.0000E+00  0.0000E+00  0.2400E+02  0.2400E+02
     33.359  0.0000E+00  0.0000E+00  0.2400E+02  0.2400E+02
     33.594  0.0000E+00  0.0000E+00  0.2400E+02  0.2400E+02
     33.829  0.0000E+00  0.0000E+00  0.2400E+02  0.2400E+02
     34.064  0.0000E+00  0.0000E+00  0.2400E+02  0.2400E+02
     34.299  0.0000E+00  0.0000E+00  0.2400E+02  0.2400E+02
     34.534  0.0000E+00  0.0000E+00  0.2400E+02  0.2400E+02
     34.769  0.0000E+00  0.0000E+00  0.2400E+02  0.2400E+02
     35.003  0.0000E+00  0.0000E+00  0.2400E+02  0.2400E+02
     35.00345472    -35.46536169  301     11.43135832      1.00000000
    -35.465  0.0000E+00  0.0000E+00  0.0000E+00  0.0000E+00  0.0000E+00  0.0000E+00  0.0000E+00  0.0000E+00  0.0000E+00  0.0000E+00  0.0000E+00  0.0000E+00  0.0000E+00  0.0000E+00  0.0000E+00  0.0000E+00  0.0000E+00  0.0000E+00
    -35.230  0.0000E+00  0.0000E+00  0.0000E+00  0.0000E+00  0.0000E+00  0.0000E+00  0.0000E+00  0.0000E+00  0.0000E+00  0.0000E+00  0.0000E+00  0.0000E+00  0.0000E+00  0.0000E+00  0.0000E+00  0.0000E+00  0.0000E+00  0.0000E+00
    -34.996  0.0000E+00  0.0000E+00  0.0000E+00  0.0000E+00  0.0000E+00  0.0000E+00  0.0000E+00  0.0000E+00  0.0000E+00  0.0000E+00  0.0000E+00  0.0000E+00  0.0000E+00  0.0000E+00  0.0000E+00  0.0000E+00  0.0000E+00  0.0000E+00
    -34.761  0.0000E+00  0.0000E+00  0.0000E+00  0.0000E+00  0.0000E+00  0.0000E+00  0.0000E+00  0.0000E+00  0.0000E+00  0.0000E+00  0.0000E+00  0.0000E+00  0.0000E+00  0.0000E+00  0.0000E+00  0.0000E+00  0.0000E+00  0.0000E+00
    -34.526  0.0000E+00  0.0000E+00  0.0000E+00  0.0000E+00  0.0000E+00  0.0000E+00  0.0000E+00  0.0000E+00  0.0000E+00  0.0000E+00  0.0000E+00  0.0000E+00  0.0000E+00  0.0000E+00  0.0000E+00  0.0000E+00  0.0000E+00  0.0000E+00
    -34.291  0.0000E+00  0.0000E+00  0.0000E+00  0.0000E+00  0.0000E+00  0.0000E+00  0.0000E+00  0.0000E+00  0.0000E+00  0.0000E+00  0.0000E+00  0.0000E+00  0.0000E+00  0.0000E+00  0.0000E+00  0.0000E+00  0.0000E+00  0.0000E+00
    -34.056  0.0000E+00  0.0000E+00  0.0000E+00  0.0000E+00  0.0000E+00  0.0000E+00  0.0000E+00  0.0000E+00  0.0000E+00  0.0000E+00  0.0000E+00  0.0000E+00  0.0000E+00  0.0000E+00  0.0000E+00  0.0000E+00  0.0000E+00  0.0000E+00
    -33.821  0.0000E+00  0.0000E+00  0.0000E+00  0.0000E+00  0.0000E+00  0.0000E+00  0.0000E+00  0.0000E+00  0.0000E+00  0.0000E+00  0.0000E+00  0.0000E+00  0.0000E+00  0.0000E+00  0.0000E+00  0.0000E+00  0.0000E+00  0.0000E+00
    -33.586  0.0000E+00  0.0000E+00  0.0000E+00  0.0000E+00  0.0000E+00  0.0000E+00  0.0000E+00  0.0000E+00  0.0000E+00  0.0000E+00  0.0000E+00  0.0000E+00  0.0000E+00  0.0000E+00  0.0000E+00  0.0000E+00  0.0000E+00  0.0000E+00
    -33.351  0.0000E+00  0.0000E+00  0.0000E+00  0.0000E+00  0.0000E+00  0.0000E+00  0.0000E+00  0.0000E+00  0.0000E+00  0.0000E+00  0.0000E+00  0.0000E+00  0.0000E+00  0.0000E+00  0.0000E+00  0.0000E+00  0.0000E+00  0.0000E+00
    -33.116  0.0000E+00  0.0000E+00  0.0000E+00  0.0000E+00  0.0000E+00  0.0000E+00  0.0000E+00  0.0000E+00  0.0000E+00  0.0000E+00  0.0000E+00  0.0000E+00  0.0000E+00  0.0000E+00  0.0000E+00  0.0000E+00  0.0000E+00  0.0000E+00
    -32.882  0.2350E-11  0.2437E-11  0.2799E-07  0.5256E-07  0.2799E-07  0.5256E-07  0.2799E-07  0.5256E-07  0.2870E-12  0.3021E-11  0.2870E-12  0.3021E-11  0.3811E-12  0.9639E-12  0.2870E-12  0.3021E-11  0.3811E-12  0.9639E-12
    -32.647  0.1230E-07  0.1275E-07  0.3521E-04  0.3651E-04  0.3521E-04  0.3651E-04  0.3521E-04  0.3651E-04  0.6961E-08  0.7245E-08  0.6961E-08  0.7245E-08  0.3754E-08  0.3893E-08  0.6961E-08  0.7245E-08  0.3754E-08  0.3893E-08
    -32.412  0.1392E-05  0.1443E-05  0.3818E-02  0.3956E-02  0.3818E-02  0.3956E-02  0.3818E-02  0.3956E-02  0.7676E-06  0.7956E-06  0.7676E-06  0.7956E-06  0.4128E-06  0.4277E-06  0.7676E-06  0.7956E-06  0.4128E-06  0.4277E-06
    -32.177  0.9860E-04  0.1012E-03  0.1976E+00  0.2018E+00  0.1976E+00  0.2018E+00  0.1976E+00  0.2018E+00  0.5085E-04  0.5212E-04  0.5085E-04  0.5212E-04  0.2693E-04  0.2758E-04  0.5085E-04  0.5212E-04  0.2693E-04  0.2758E-04
    -31.942  0.7604E-03  0.7647E-03  0.8326E+00  0.8342E+00  0.8326E+00  0.8342E+00  0.8326E+00  0.8342E+00  0.2983E-03  0.2996E-03  0.2983E-03  0.2996E-03  0.1445E-03  0.1446E-03  0.2983E-03  0.2996E-03  0.1445E-03  0.1446E-03
    -31.707  0.7411E-03  0.7381E-03  0.7734E+00  0.7743E+00  0.7734E+00  0.7743E+00  0.7734E+00  0.7743E+00  0.5088E-03  0.5118E-03  0.5088E-03  0.5118E-03  0.7921E-04  0.7871E-04  0.5088E-03  0.5118E-03  0.7921E-04  0.7871E-04
    -31.472  0.5116E-03  0.5105E-03  0.1079E+01  0.1081E+01  0.1079E+01  0.1081E+01  0.1079E+01  0.1081E+01  0.7470E-03  0.7462E-03  0.7470E-03  0.7462E-03  0.4373E-04  0.4348E-04  0.7470E-03  0.7462E-03  0.4373E-04  0.4348E-04
    -31.237  0.3146E-03  0.3119E-03  0.1145E+01  0.1141E+01  0.1145E+01  0.1141E+01  0.1145E+01  0.1141E+01  0.4170E-03  0.4132E-03  0.4170E-03  0.4132E-03  0.1628E-04  0.1611E-04  0.4170E-03  0.4132E-03  0.1628E-04  0.1611E-04
    -31.002  0.2155E-04  0.2049E-04  0.1618E+00  0.1568E+00  0.1618E+00  0.1568E+00  0.1618E+00  0.1568E+00  0.2838E-04  0.2739E-04  0.2838E-04  0.2739E-04  0.9956E-06  0.9281E-06  0.2838E-04  0.2739E-04  0.9956E-06  0.9281E-06
    -30.767  0.0000E+00  0.0000E+00  0.0000E+00  0.0000E+00  0.0000E+00  0.0000E+00  0.0000E+00  0.0000E+00  0.0000E+00  0.0000E+00  0.0000E+00  0.0000E+00  0.0000E+00  0.0000E+00  0.0000E+00  0.0000E+00  0.0000E+00  0.0000E+00
    -30.533  0.0000E+00  0.0000E+00  0.0000E+00  0.0000E+00  0.0000E+00  0.0000E+00  0.0000E+00  0.0000E+00  0.0000E+00  0.0000E+00  0.0000E+00  0.0000E+00  0.0000E+00  0.0000E+00  0.0000E+00  0.0000E+00  0.0000E+00  0.0000E+00
    -30.298  0.0000E+00  0.0000E+00  0.0000E+00  0.0000E+00  0.0000E+00  0.0000E+00  0.0000E+00  0.0000E+00  0.0000E+00  0.0000E+00  0.0000E+00  0.0000E+00  0.0000E+00  0.0000E+00  0.0000E+00  0.0000E+00  0.0000E+00  0.0000E+00
    -30.063  0.0000E+00  0.0000E+00  0.0000E+00  0.0000E+00  0.0000E+00  0.0000E+00  0.0000E+00  0.0000E+00  0.0000E+00  0.0000E+00  0.0000E+00  0.0000E+00  0.0000E+00  0.0000E+00  0.0000E+00  0.0000E+00  0.0000E+00  0.0000E+00
    -29.828  0.0000E+00  0.0000E+00  0.0000E+00  0.0000E+00  0.0000E+00  0.0000E+00  0.0000E+00  0.0000E+00  0.0000E+00  0.0000E+00  0.0000E+00  0.0000E+00  0.0000E+00  0.0000E+00  0.0000E+00  0.0000E+00  0.0000E+00  0.0000E+00
    -29.593  0.0000E+00  0.0000E+00  0.0000E+00  0.0000E+00  0.0000E+00  0.0000E+00  0.0000E+00  0.0000E+00  0.0000E+00  0.0000E+00  0.0000E+00  0.0000E+00  0.0000E+00  0.0000E+00  0.0000E+00  0.0000E+00  0.0000E+00  0.0000E+00
    -29.358  0.0000E+00  0.0000E+00  0.0000E+00  0.0000E+00  0.0000E+00  0.0000E+00  0.0000E+00  0.0000E+00  0.0000E+00  0.0000E+00  0.0000E+00  0.0000E+00  0.0000E+00  0.0000E+00  0.0000E+00  0.0000E+00  0.0000E+00  0.0000E+00
    -29.123  0.0000E+00  0.0000E+00  0.0000E+00  0.0000E+00  0.0000E+00  0.0000E+00  0.0000E+00  0.0000E+00  0.0000E+00  0.0000E+00  0.0000E+00  0.0000E+00  0.0000E+00  0.0000E+00  0.0000E+00  0.0000E+00  0.0000E+00  0.0000E+00
    -28.888  0.0000E+00  0.0000E+00  0.0000E+00  0.0000E+00  0.0000E+00  0.0000E+00  0.0000E+00  0.0000E+00  0.0000E+00  0.0000E+00  0.0000E+00  0.0000E+00  0.0000E+00  0.0000E+00  0.0000E+00  0.0000E+00  0.0000E+00  0.0000E+00
    -28.653  0.0000E+00  0.0000E+00  0.0000E+00  0.0000E+00  0.0000E+00  0.0000E+00  0.0000E+00  0.0000E+00  0.0000E+00  0.0000E+00  0.0000E+00  0.0000E+00  0.0000E+00  0.0000E+00  0.0000E+00  0.0000E+00  0.0000E+00  0.0000E+00
    -28.418  0.0000E+00  0.0000E+00  0.0000E+00  0.0000E+00  0.0000E+00  0.0000E+00  0.0000E+00  0.0000E+00  0.0000E+00  0.0000E+00  0.0000E+00  0.0000E+00  0.0000E+00  0.0000E+00  0.0000E+00  0.0000E+00  0.0000E+00  0.0000E+00
    -28.184  0.0000E+00  0.0000E+00  0.0000E+00  0.0000E+00  0.0000E+00  0.0000E+00  0.0000E+00  0.0000E+00  0.0000E+00  0.0000E+00  0.0000E+00  0.0000E+00  0.0000E+00  0.0000E+00  0.0000E+00  0.0000E+00  0.0000E+00  0.0000E+00
    -27.949  0.0000E+00  0.0000E+00  0.0000E+00  0.0000E+00  0.0000E+00  0.0000E+00  0.0000E+00  0.0000E+00  0.0000E+00  0.0000E+00  0.0000E+00  0.0000E+00  0.0000E+00  0.0000E+00  0.0000E+00  0.0000E+00  0.0000E+00  0.0000E+00
    -27.714  0.0000E+00  0.0000E+00  0.0000E+00  0.0000E+00  0.0000E+00  0.0000E+00  0.0000E+00  0.0000E+00  0.0000E+00  0.0000E+00  0.0000E+00  0.0000E+00  0.0000E+00  0.0000E+00  0.0000E+00  0.0000E+00  0.0000E+00  0.0000E+00
    -27.479  0.0000E+00  0.0000E+00  0.0000E+00  0.0000E+00  0.0000E+00  0.0000E+00  0.0000E+00  0.0000E+00  0.0000E+00  0.0000E+00  0.0000E+00  0.0000E+00  0.0000E+00  0.0000E+00  0.0000E+00  0.0000E+00  0.0000E+00  0.0000E+00
    -27.244  0.0000E+00  0.0000E+00  0.0000E+00  0.0000E+00  0.0000E+00  0.0000E+00  0.0000E+00  0.0000E+00  0.0000E+00  0.0000E+00  0.0000E+00  0.0000E+00  0.0000E+00  0.0000E+00  0.0000E+00  0.0000E+00  0.0000E+00  0.0000E+00
    -27.009  0.0000E+00  0.0000E+00  0.0000E+00  0.0000E+00  0.0000E+00  0.0000E+00  0.0000E+00  0.0000E+00  0.0000E+00  0.0000E+00  0.0000E+00  0.0000E+00  0.0000E+00  0.0000E+00  0.0000E+00  0.0000E+00  0.0000E+00  0.0000E+00
    -26.774  0.0000E+00  0.0000E+00  0.0000E+00  0.0000E+00  0.0000E+00  0.0000E+00  0.0000E+00  0.0000E+00  0.0000E+00  0.0000E+00  0.0000E+00  0.0000E+00  0.0000E+00  0.0000E+00  0.0000E+00  0.0000E+00  0.0000E+00  0.0000E+00
    -26.539  0.0000E+00  0.0000E+00  0.0000E+00  0.0000E+00  0.0000E+00  0.0000E+00  0.0000E+00  0.0000E+00  0.0000E+00  0.0000E+00  0.0000E+00  0.0000E+00  0.0000E+00  0.0000E+00  0.0000E+00  0.0000E+00  0.0000E+00  0.0000E+00
    -26.304  0.0000E+00  0.0000E+00  0.0000E+00  0.0000E+00  0.0000E+00  0.0000E+00  0.0000E+00  0.0000E+00  0.0000E+00  0.0000E+00  0.0000E+00  0.0000E+00  0.0000E+00  0.0000E+00  0.0000E+00  0.0000E+00  0.0000E+00  0.0000E+00
    -26.070  0.0000E+00  0.0000E+00  0.0000E+00  0.0000E+00  0.0000E+00  0.0000E+00  0.0000E+00  0.0000E+00  0.0000E+00  0.0000E+00  0.0000E+00  0.0000E+00  0.0000E+00  0.0000E+00  0.0000E+00  0.0000E+00  0.0000E+00  0.0000E+00
    -25.835  0.0000E+00  0.0000E+00  0.0000E+00  0.0000E+00  0.0000E+00  0.0000E+00  0.0000E+00  0.0000E+00  0.0000E+00  0.0000E+00  0.0000E+00  0.0000E+00  0.0000E+00  0.0000E+00  0.0000E+00  0.0000E+00  0.0000E+00  0.0000E+00
    -25.600  0.0000E+00  0.0000E+00  0.0000E+00  0.0000E+00  0.0000E+00  0.0000E+00  0.0000E+00  0.0000E+00  0.0000E+00  0.0000E+00  0.0000E+00  0.0000E+00  0.0000E+00  0.0000E+00  0.0000E+00  0.0000E+00  0.0000E+00  0.0000E+00
    -25.365  0.0000E+00  0.0000E+00  0.0000E+00  0.0000E+00  0.0000E+00  0.0000E+00  0.0000E+00  0.0000E+00  0.0000E+00  0.0000E+00  0.0000E+00  0.0000E+00  0.0000E+00  0.0000E+00  0.0000E+00  0.0000E+00  0.0000E+00  0.0000E+00
    -25.130  0.0000E+00  0.0000E+00  0.0000E+00  0.0000E+00  0.0000E+00  0.0000E+00  0.0000E+00  0.0000E+00  0.0000E+00  0.0000E+00  0.0000E+00  0.0000E+00  0.0000E+00  0.0000E+00  0.0000E+00  0.0000E+00  0.0000E+00  0.0000E+00
    -24.895  0.0000E+00  0.0000E+00  0.0000E+00  0.0000E+00  0.0000E+00  0.0000E+00  0.0000E+00  0.0000E+00  0.0000E+00  0.0000E+00  0.0000E+00  0.0000E+00  0.0000E+00  0.0000E+00  0.0000E+00  0.0000E+00  0.0000E+00  0.0000E+00
    -24.660  0.0000E+00  0.0000E+00  0.0000E+00  0.0000E+00  0.0000E+00  0.0000E+00  0.0000E+00  0.0000E+00  0.0000E+00  0.0000E+00  0.0000E+00  0.0000E+00  0.0000E+00  0.0000E+00  0.0000E+00  0.0000E+00  0.0000E+00  0.0000E+00
    -24.425  0.0000E+00  0.0000E+00  0.0000E+00  0.0000E+00  0.0000E+00  0.0000E+00  0.0000E+00  0.0000E+00  0.0000E+00  0.0000E+00  0.0000E+00  0.0000E+00  0.0000E+00  0.0000E+00  0.0000E+00  0.0000E+00  0.0000E+00  0.0000E+00
    -24.190  0.0000E+00  0.0000E+00  0.0000E+00  0.0000E+00  0.0000E+00  0.0000E+00  0.0000E+00  0.0000E+00  0.0000E+00  0.0000E+00  0.0000E+00  0.0000E+00  0.0000E+00  0.0000E+00  0.0000E+00  0.0000E+00  0.0000E+00  0.0000E+00
    -23.955  0.0000E+00  0.0000E+00  0.0000E+00  0.0000E+00  0.0000E+00  0.0000E+00  0.0000E+00  0.0000E+00  0.0000E+00  0.0000E+00  0.0000E+00  0.0000E+00  0.0000E+00  0.0000E+00  0.0000E+00  0.0000E+00  0.0000E+00  0.0000E+00
    -23.721  0.0000E+00  0.0000E+00  0.0000E+00  0.0000E+00  0.0000E+00  0.0000E+00  0.0000E+00  0.0000E+00  0.0000E+00  0.0000E+00  0.0000E+00  0.0000E+00  0.0000E+00  0.0000E+00  0.0000E+00  0.0000E+00  0.0000E+00  0.0000E+00