   2   2   1   0
  0.1223418E+02  0.2903142E-09  0.2903142E-09  0.2903142E-09  0.5000000E-15
  1.000000000000000E-004
  CAR 
 unknown system                          
     32.70246222    -36.54333384  301     10.16287642      1.00000000
    -36.543  0.0000E+00  0.0000E+00  0.0000E+00  0.0000E+00
    -36.313  0.0000E+00  0.0000E+00  0.0000E+00  0.0000E+00
    -36.082  0.0000E+00  0.0000E+00  0.0000E+00  0.0000E+00
    -35.851  0.0000E+00  0.0000E+00  0.0000E+00  0.0000E+00
    -35.620  0.0000E+00  0.0000E+00  0.0000E+00  0.0000E+00
    -35.389  0.0000E+00  0.0000E+00  0.0000E+00  0.0000E+00
    -35.158  0.0000E+00  0.0000E+00  0.0000E+00  0.0000E+00
    -34.928  0.0000E+00  0.0000E+00  0.0000E+00  0.0000E+00
    -34.697  0.0000E+00  0.0000E+00  0.0000E+00  0.0000E+00
    -34.466  0.0000E+00  0.0000E+00  0.0000E+00  0.0000E+00
    -34.235  0.0000E+00  0.0000E+00  0.0000E+00  0.0000E+00
    -34.004  0.7588E-06  0.7486E-06  0.1751E-06  0.1728E-06
    -33.774  0.4123E-03  0.4067E-03  0.9534E-04  0.9405E-04
    -33.543  0.4102E-01  0.4047E-01  0.9563E-02  0.9436E-02
    -33.312  0.1944E+01  0.1929E+01  0.4583E+00  0.4547E+00
    -33.081  0.6451E+01  0.6448E+01  0.1947E+01  0.1943E+01
    -32.850  0.7622E+01  0.7613E+01  0.3718E+01  0.3712E+01
    -32.619  0.8501E+01  0.8514E+01  0.5690E+01  0.5687E+01
    -32.389  0.1264E+01  0.1280E+01  0.5996E+01  0.5996E+01
    -32.158  0.0000E+00  0.0000E+00  0.6000E+01  0.6000E+01
    -31.927  0.0000E+00  0.0000E+00  0.6000E+01  0.6000E+01
    -31.696  0.0000E+00  0.0000E+00  0.6000E+01  0.6000E+01
    -31.465  0.0000E+00  0.0000E+00  0.6000E+01  0.6000E+01
    -31.234  0.0000E+00  0.0000E+00  0.6000E+01  0.6000E+01
    -31.004  0.0000E+00  0.0000E+00  0.6000E+01  0.6000E+01
    -30.773  0.0000E+00  0.0000E+00  0.6000E+01  0.6000E+01
    -30.542  0.0000E+00  0.0000E+00  0.6000E+01  0.6000E+01
    -30.311  0.0000E+00  0.0000E+00  0.6000E+01  0.6000E+01
    -30.080  0.0000E+00  0.0000E+00  0.6000E+01  0.6000E+01
    -29.850  0.0000E+00  0.0000E+00  0.6000E+01  0.6000E+01
    -29.619  0.0000E+00  0.0000E+00  0.6000E+01  0.6000E+01
    -29.388  0.0000E+00  0.0000E+00  0.6000E+01  0.6000E+01
    -29.157  0.0000E+00  0.0000E+00  0.6000E+01  0.6000E+01
    -28.926  0.0000E+00  0.0000E+00  0.6000E+01  0.6000E+01
    -28.695  0.0000E+00  0.0000E+00  0.6000E+01  0.6000E+01
    -28.465  0.0000E+00  0.0000E+00  0.6000E+01  0.6000E+01
    -28.234  0.0000E+00  0.0000E+00  0.6000E+01  0.6000E+01
    -28.003  0.0000E+00  0.0000E+00  0.6000E+01  0.6000E+01
    -27.772  0.0000E+00  0.0000E+00  0.6000E+01  0.6000E+01
    -27.541  0.0000E+00  0.0000E+00  0.6000E+01  0.6000E+01
    -27.311  0.0000E+00  0.0000E+00  0.6000E+01  0.6000E+01
    -27.080  0.0000E+00  0.0000E+00  0.6000E+01  0.6000E+01
    -26.849  0.0000E+00  0.0000E+00  0.6000E+01  0.6000E+01
    -26.618  0.0000E+00  0.0000E+00  0.6000E+01  0.6000E+01
    -26.387  0.0000E+00  0.0000E+00  0.6000E+01  0.6000E+01
    -26.156  0.0000E+00  0.0000E+00  0.6000E+01  0.6000E+01
    -25.926  0.0000E+00  0.0000E+00  0.6000E+01  0.6000E+01
    -25.695  0.0000E+00  0.0000E+00  0.6000E+01  0.6000E+01
    -25.464  0.0000E+00  0.0000E+00  0.6000E+01  0.6000E+01
    -25.233  0.0000E+00  0.0000E+00  0.6000E+01  0.6000E+01
    -25.002  0.0000E+00  0.0000E+00  0.6000E+01  0.6000E+01
    -24.772  0.0000E+00  0.0000E+00  0.6000E+01  0.6000E+01
    -24.541  0.0000E+00  0.0000E+00  0.6000E+01  0.6000E+01
    -24.310  0.0000E+00  0.0000E+00  0.6000E+01  0.6000E+01
    -24.079  0.0000E+00  0.0000E+00  0.6000E+01  0.6000E+01
    -23.848  0.0000E+00  0.0000E+00  0.6000E+01  0.6000E+01
    -23.617  0.0000E+00  0.0000E+00  0.6000E+01  0.6000E+01
    -23.387  0.0000E+00  0.0000E+00  0.6000E+01  0.6000E+01
    -23.156  0.0000E+00  0.0000E+00  0.6000E+01  0.6000E+01
    -22.925  0.0000E+00  0.0000E+00  0.6000E+01  0.6000E+01
    -22.694  0.0000E+00  0.0000E+00  0.6000E+01  0.6000E+01
    -22.463  0.0000E+00  0.0000E+00  0.6000E+01  0.6000E+01
    -22.233  0.0000E+00  0.0000E+00  0.6000E+01  0.6000E+01
    -22.002  0.0000E+00  0.0000E+00  0.6000E+01  0.6000E+01
    -21.771  0.0000E+00  0.0000E+00  0.6000E+01  0.6000E+01
    -21.540  0.0000E+00  0.0000E+00  0.6000E+01  0.6000E+01
    -21.309  0.0000E+00  0.0000E+00  0.6000E+01  0.6000E+01
    -21.078  0.0000E+00  0.0000E+00  0.6000E+01  0.6000E+01
    -20.848  0.0000E+00  0.0000E+00  0.6000E+01  0.6000E+01
    -20.617  0.0000E+00  0.0000E+00  0.6000E+01  0.6000E+01
    -20.386  0.0000E+00  0.0000E+00  0.6000E+01  0.6000E+01
    -20.155  0.0000E+00  0.0000E+00  0.6000E+01  0.6000E+01
    -19.924  0.0000E+00  0.0000E+00  0.6000E+01  0.6000E+01
    -19.694  0.0000E+00  0.0000E+00  0.6000E+01  0.6000E+01
    -19.463  0.0000E+00  0.0000E+00  0.6000E+01  0.6000E+01
    -19.232  0.0000E+00  0.0000E+00  0.6000E+01  0.6000E+01
    -19.001  0.0000E+00  0.0000E+00  0.6000E+01  0.6000E+01
    -18.770  0.0000E+00  0.0000E+00  0.6000E+01  0.6000E+01
    -18.539  0.0000E+00  0.0000E+00  0.6000E+01  0.6000E+01
    -18.309  0.0000E+00  0.0000E+00  0.6000E+01  0.6000E+01
    -18.078  0.0000E+00  0.0000E+00  0.6000E+01  0.6000E+01
    -17.847  0.0000E+00  0.0000E+00  0.6000E+01  0.6000E+01
    -17.616  0.0000E+00  0.0000E+00  0.6000E+01  0.6000E+01
    -17.385  0.0000E+00  0.0000E+00  0.6000E+01  0.6000E+01
    -17.155  0.0000E+00  0.0000E+00  0.6000E+01  0.6000E+01
    -16.924  0.0000E+00  0.0000E+00  0.6000E+01  0.6000E+01
    -16.693  0.0000E+00  0.0000E+00  0.6000E+01  0.6000E+01
    -16.462  0.0000E+00  0.0000E+00  0.6000E+01  0.6000E+01
    -16.231  0.0000E+00  0.0000E+00  0.6000E+01  0.6000E+01
    -16.000  0.0000E+00  0.0000E+00  0.6000E+01  0.6000E+01
    -15.770  0.0000E+00  0.0000E+00  0.6000E+01  0.6000E+01
    -15.539  0.0000E+00  0.0000E+00  0.6000E+01  0.6000E+01
    -15.308  0.0000E+00  0.0000E+00  0.6000E+01  0.6000E+01
    -15.077  0.0000E+00  0.0000E+00  0.6000E+01  0.6000E+01
    -14.846  0.0000E+00  0.0000E+00  0.6000E+01  0.6000E+01
    -14.615  0.0000E+00  0.0000E+00  0.6000E+01  0.6000E+01
    -14.385  0.0000E+00  0.0000E+00  0.6000E+01  0.6000E+01
    -14.154  0.0000E+00  0.0000E+00  0.6000E+01  0.6000E+01
    -13.923  0.0000E+00  0.0000E+00  0.6000E+01  0.6000E+01
    -13.692  0.0000E+00  0.0000E+00  0.6000E+01  0.6000E+01
    -13.461  0.0000E+00  0.0000E+00  0.6000E+01  0.6000E+01
    -13.231  0.0000E+00  0.0000E+00  0.6000E+01  0.6000E+01
    -13.000  0.0000E+00  0.0000E+00  0.6000E+01  0.6000E+01
    -12.769  0.0000E+00  0.0000E+00  0.6000E+01  0.6000E+01
    -12.538  0.0000E+00  0.0000E+00  0.6000E+01  0.6000E+01
    -12.307  0.0000E+00  0.0000E+00  0.6000E+01  0.6000E+01
    -12.076  0.0000E+00  0.0000E+00  0.6000E+01  0.6000E+01
    -11.846  0.0000E+00  0.0000E+00  0.6000E+01  0.6000E+01
    -11.615  0.0000E+00  0.0000E+00  0.6000E+01  0.6000E+01
    -11.384  0.0000E+00  0.0000E+00  0.6000E+01  0.6000E+01
    -11.153  0.0000E+00  0.0000E+00  0.6000E+01  0.6000E+01
    -10.922  0.0000E+00  0.0000E+00  0.6000E+01  0.6000E+01
    -10.692  0.0000E+00  0.0000E+00  0.6000E+01  0.6000E+01
    -10.461  0.0000E+00  0.0000E+00  0.6000E+01  0.6000E+01
    -10.230  0.0000E+00  0.0000E+00  0.6000E+01  0.6000E+01
     -9.999  0.0000E+00  0.0000E+00  0.6000E+01  0.6000E+01
     -9.768  0.0000E+00  0.0000E+00  0.6000E+01  0.6000E+01
     -9.537  0.0000E+00  0.0000E+00  0.6000E+01  0.6000E+01
     -9.307  0.0000E+00  0.0000E+00  0.6000E+01  0.6000E+01
     -9.076  0.0000E+00  0.0000E+00  0.6000E+01  0.6000E+01
     -8.845  0.0000E+00  0.0000E+00  0.6000E+01  0.6000E+01
     -8.614  0.0000E+00  0.0000E+00  0.6000E+01  0.6000E+01
     -8.383  0.0000E+00  0.0000E+00  0.6000E+01  0.6000E+01
     -8.153  0.0000E+00  0.0000E+00  0.6000E+01  0.6000E+01
     -7.922  0.0000E+00  0.0000E+00  0.6000E+01  0.6000E+01
     -7.691  0.0000E+00  0.0000E+00  0.6000E+01  0.6000E+01
     -7.460  0.0000E+00  0.0000E+00  0.6000E+01  0.6000E+01
     -7.229  0.0000E+00  0.0000E+00  0.6000E+01  0.6000E+01
     -6.998  0.0000E+00  0.0000E+00  0.6000E+01  0.6000E+01
     -6.768  0.0000E+00  0.0000E+00  0.6000E+01  0.6000E+01
     -6.537  0.0000E+00  0.0000E+00  0.6000E+01  0.6000E+01
     -6.306  0.0000E+00  0.0000E+00  0.6000E+01  0.6000E+01
     -6.075  0.0000E+00  0.0000E+00  0.6000E+01  0.6000E+01
     -5.844  0.0000E+00  0.0000E+00  0.6000E+01  0.6000E+01
     -5.614  0.0000E+00  0.0000E+00  0.6000E+01  0.6000E+01
     -5.383  0.0000E+00  0.0000E+00  0.6000E+01  0.6000E+01
     -5.152  0.0000E+00  0.0000E+00  0.6000E+01  0.6000E+01
     -4.921  0.0000E+00  0.0000E+00  0.6000E+01  0.6000E+01
     -4.690  0.0000E+00  0.0000E+00  0.6000E+01  0.6000E+01
     -4.459  0.0000E+00  0.0000E+00  0.6000E+01  0.6000E+01
     -4.229  0.0000E+00  0.0000E+00  0.6000E+01  0.6000E+01
     -3.998  0.0000E+00  0.0000E+00  0.6000E+01  0.6000E+01
     -3.767  0.0000E+00  0.0000E+00  0.6000E+01  0.6000E+01
     -3.536  0.0000E+00  0.0000E+00  0.6000E+01  0.6000E+01
     -3.305  0.0000E+00  0.0000E+00  0.6000E+01  0.6000E+01
     -3.075  0.0000E+00  0.0000E+00  0.6000E+01  0.6000E+01
     -2.844  0.0000E+00  0.0000E+00  0.6000E+01  0.6000E+01
     -2.613  0.0000E+00  0.0000E+00  0.6000E+01  0.6000E+01
     -2.382  0.0000E+00  0.0000E+00  0.6000E+01  0.6000E+01
     -2.151  0.0000E+00  0.0000E+00  0.6000E+01  0.6000E+01
     -1.920  0.0000E+00  0.0000E+00  0.6000E+01  0.6000E+01
     -1.690  0.0000E+00  0.0000E+00  0.6000E+01  0.6000E+01
     -1.459  0.0000E+00  0.0000E+00  0.6000E+01  0.6000E+01
     -1.228  0.0000E+00  0.0000E+00  0.6000E+01  0.6000E+01
     -0.997  0.0000E+00  0.0000E+00  0.6000E+01  0.6000E+01
     -0.766  0.0000E+00  0.0000E+00  0.6000E+01  0.6000E+01
     -0.536  0.0000E+00  0.0000E+00  0.6000E+01  0.6000E+01
     -0.305  0.0000E+00  0.0000E+00  0.6000E+01  0.6000E+01
     -0.074  0.0000E+00  0.0000E+00  0.6000E+01  0.6000E+01
      0.157  0.0000E+00  0.0000E+00  0.6000E+01  0.6000E+01
      0.388  0.0000E+00  0.0000E+00  0.6000E+01  0.6000E+01
      0.619  0.0000E+00  0.0000E+00  0.6000E+01  0.6000E+01
      0.849  0.0000E+00  0.0000E+00  0.6000E+01  0.6000E+01
      1.080  0.0000E+00  0.0000E+00  0.6000E+01  0.6000E+01
      1.311  0.0000E+00  0.0000E+00  0.6000E+01  0.6000E+01
      1.542  0.0000E+00  0.0000E+00  0.6000E+01  0.6000E+01
      1.773  0.0000E+00  0.0000E+00  0.6000E+01  0.6000E+01
      2.003  0.5409E-07  0.5479E-07  0.6000E+01  0.6000E+01
      2.234  0.8635E-05  0.8746E-05  0.6000E+01  0.6000E+01
      2.465  0.7470E-03  0.7553E-03  0.6000E+01  0.6000E+01
      2.696  0.1385E-01  0.1392E-01  0.6003E+01  0.6003E+01
      2.927  0.3453E-01  0.3454E-01  0.6011E+01  0.6011E+01
      3.158  0.5107E-01  0.5121E-01  0.6023E+01  0.6023E+01
      3.388  0.6105E-01  0.6092E-01  0.6037E+01  0.6037E+01
      3.619  0.6738E-01  0.6757E-01  0.6053E+01  0.6053E+01
      3.850  0.9646E-01  0.9640E-01  0.6075E+01  0.6075E+01
      4.081  0.9403E-01  0.9417E-01  0.6097E+01  0.6097E+01
      4.312  0.8638E-01  0.8619E-01  0.6117E+01  0.6117E+01
      4.543  0.1436E+00  0.1439E+00  0.6151E+01  0.6151E+01
      4.773  0.1478E+00  0.1478E+00  0.6185E+01  0.6185E+01
      5.004  0.1250E+00  0.1249E+00  0.6214E+01  0.6214E+01
      5.235  0.1861E+00  0.1863E+00  0.6257E+01  0.6257E+01
      5.466  0.2174E+00  0.2176E+00  0.6308E+01  0.6308E+01
      5.697  0.2608E+00  0.2606E+00  0.6368E+01  0.6368E+01
      5.927  0.3072E+00  0.3075E+00  0.6440E+01  0.6440E+01
      6.158  0.6773E+00  0.6779E+00  0.6597E+01  0.6598E+01
      6.389  0.9155E+00  0.9155E+00  0.6809E+01  0.6810E+01
      6.620  0.1036E+01  0.1036E+01  0.7050E+01  0.7050E+01
      6.851  0.1353E+01  0.1354E+01  0.7364E+01  0.7364E+01
      7.082  0.1538E+01  0.1538E+01  0.7720E+01  0.7721E+01
      7.312  0.1094E+01  0.1094E+01  0.7977E+01  0.7977E+01
      7.543  0.7842E+00  0.7835E+00  0.8159E+01  0.8159E+01
      7.774  0.8303E+00  0.8306E+00  0.8352E+01  0.8352E+01
      8.005  0.2058E+01  0.2057E+01  0.8828E+01  0.8828E+01
      8.236  0.2255E+01  0.2255E+01  0.9351E+01  0.9351E+01
      8.466  0.1792E+01  0.1791E+01  0.9768E+01  0.9767E+01
      8.697  0.1915E+01  0.1915E+01  0.1021E+02  0.1021E+02
      8.928  0.2237E+01  0.2237E+01  0.1073E+02  0.1073E+02
      9.159  0.1975E+01  0.1975E+01  0.1119E+02  0.1119E+02
      9.390  0.1333E+01  0.1333E+01  0.1150E+02  0.1150E+02
      9.621  0.6666E+00  0.6664E+00  0.1166E+02  0.1166E+02
      9.851  0.5281E+00  0.5284E+00  0.1178E+02  0.1178E+02
     10.082  0.7033E+00  0.7029E+00  0.1194E+02  0.1194E+02
     10.313  0.7237E+00  0.7235E+00  0.1211E+02  0.1211E+02
     10.544  0.1160E+01  0.1159E+01  0.1238E+02  0.1238E+02
     10.775  0.1718E+01  0.1718E+01  0.1278E+02  0.1278E+02
     11.005  0.2222E+01  0.2222E+01  0.1330E+02  0.1330E+02
     11.236  0.2606E+01  0.2606E+01  0.1390E+02  0.1390E+02
     11.467  0.3077E+01  0.3078E+01  0.1462E+02  0.1462E+02
     11.698  0.3199E+01  0.3198E+01  0.1536E+02  0.1536E+02
     11.929  0.1877E+01  0.1877E+01  0.1580E+02  0.1580E+02
     12.160  0.1273E+01  0.1273E+01  0.1610E+02  0.1610E+02
     12.390  0.1310E+01  0.1310E+01  0.1640E+02  0.1640E+02
     12.621  0.7550E+00  0.7575E+00  0.1658E+02  0.1658E+02
     12.852  0.4942E+00  0.4945E+00  0.1670E+02  0.1670E+02
     13.083  0.4500E+00  0.4503E+00  0.1680E+02  0.1680E+02
     13.314  0.2458E+00  0.2456E+00  0.1686E+02  0.1686E+02
     13.544  0.4531E+00  0.4531E+00  0.1696E+02  0.1696E+02
     13.775  0.2033E+00  0.2035E+00  0.1701E+02  0.1701E+02
     14.006  0.2402E+00  0.2402E+00  0.1707E+02  0.1707E+02
     14.237  0.4003E+00  0.4004E+00  0.1716E+02  0.1716E+02
     14.468  0.3412E+00  0.3412E+00  0.1724E+02  0.1724E+02
     14.699  0.2909E+00  0.2909E+00  0.1731E+02  0.1731E+02
     14.929  0.1491E+00  0.1491E+00  0.1734E+02  0.1734E+02
     15.160  0.2674E+00  0.2676E+00  0.1740E+02  0.1740E+02
     15.391  0.2639E+00  0.2640E+00  0.1746E+02  0.1746E+02
     15.622  0.2860E+00  0.2860E+00  0.1753E+02  0.1753E+02
     15.853  0.2632E+00  0.2632E+00  0.1759E+02  0.1759E+02
     16.083  0.1508E+00  0.1508E+00  0.1763E+02  0.1763E+02
     16.314  0.2040E+00  0.2039E+00  0.1768E+02  0.1768E+02
     16.545  0.1959E+00  0.1960E+00  0.1772E+02  0.1772E+02
     16.776  0.1770E+00  0.1770E+00  0.1776E+02  0.1776E+02
     17.007  0.2032E+00  0.2018E+00  0.1781E+02  0.1781E+02
     17.238  0.4731E+01  0.4692E+01  0.1890E+02  0.1889E+02
     17.468  0.4169E+01  0.4177E+01  0.1986E+02  0.1986E+02
     17.699  0.5416E-01  0.5416E-01  0.1989E+02  0.1989E+02
     17.930  0.9340E-01  0.9341E-01  0.1992E+02  0.1991E+02
     18.161  0.4185E-01  0.4182E-01  0.1993E+02  0.1992E+02
     18.392  0.6577E-01  0.6599E-01  0.1994E+02  0.1993E+02
     18.622  0.1268E+00  0.1267E+00  0.1997E+02  0.1996E+02
     18.853  0.8508E-01  0.8494E-01  0.1999E+02  0.1998E+02
     19.084  0.1694E-01  0.1695E-01  0.1999E+02  0.1999E+02
     19.315  0.1739E+00  0.1741E+00  0.2003E+02  0.2003E+02
     19.546  0.5852E+00  0.5853E+00  0.2017E+02  0.2016E+02
     19.777  0.7281E+00  0.7285E+00  0.2034E+02  0.2033E+02
     20.007  0.6524E+00  0.6521E+00  0.2049E+02  0.2048E+02
     20.238  0.2191E+00  0.2189E+00  0.2054E+02  0.2053E+02
     20.469  0.3079E+00  0.3081E+00  0.2061E+02  0.2061E+02
     20.700  0.5651E+00  0.5660E+00  0.2074E+02  0.2074E+02
     20.931  0.5174E+00  0.5168E+00  0.2086E+02  0.2086E+02
     21.161  0.3468E+00  0.3464E+00  0.2095E+02  0.2094E+02
     21.392  0.3425E+00  0.3426E+00  0.2103E+02  0.2102E+02
     21.623  0.4162E+00  0.4162E+00  0.2112E+02  0.2111E+02
     21.854  0.4982E+00  0.4985E+00  0.2124E+02  0.2123E+02
     22.085  0.6771E+00  0.6774E+00  0.2139E+02  0.2139E+02
     22.316  0.2492E+00  0.2610E+00  0.2145E+02  0.2145E+02
     22.546  0.2930E+00  0.3017E+00  0.2152E+02  0.2152E+02
     22.777  0.3195E+00  0.3299E+00  0.2159E+02  0.2159E+02
     23.008  0.5637E+00  0.5638E+00  0.2172E+02  0.2172E+02
     23.239  0.5634E+00  0.5630E+00  0.2186E+02  0.2186E+02
     23.470  0.3206E+00  0.3207E+00  0.2193E+02  0.2193E+02
     23.701  0.2539E+00  0.2537E+00  0.2199E+02  0.2199E+02
     23.931  0.3187E+00  0.3191E+00  0.2206E+02  0.2206E+02
     24.162  0.3988E+00  0.3988E+00  0.2216E+02  0.2216E+02
     24.393  0.5295E+00  0.5300E+00  0.2228E+02  0.2228E+02
     24.624  0.4386E+00  0.4380E+00  0.2238E+02  0.2238E+02
     24.855  0.2783E+00  0.2784E+00  0.2245E+02  0.2245E+02
     25.085  0.2849E+00  0.2850E+00  0.2251E+02  0.2251E+02
     25.316  0.3176E+00  0.3176E+00  0.2259E+02  0.2259E+02
     25.547  0.3197E+00  0.3197E+00  0.2266E+02  0.2266E+02
     25.778  0.5656E+00  0.5660E+00  0.2279E+02  0.2279E+02
     26.009  0.3956E+00  0.3950E+00  0.2288E+02  0.2288E+02
     26.240  0.2065E+00  0.2069E+00  0.2293E+02  0.2293E+02
     26.470  0.3900E+00  0.3891E+00  0.2302E+02  0.2302E+02
     26.701  0.2404E+00  0.2409E+00  0.2308E+02  0.2308E+02
     26.932  0.4701E+00  0.4699E+00  0.2319E+02  0.2319E+02
     27.163  0.6432E+00  0.6164E+00  0.2334E+02  0.2333E+02
     27.394  0.5893E+00  0.5642E+00  0.2347E+02  0.2346E+02
     27.624  0.5484E+00  0.5464E+00  0.2360E+02  0.2359E+02
     27.855  0.2965E+00  0.2914E+00  0.2367E+02  0.2366E+02
     28.086  0.3356E+00  0.3728E+00  0.2375E+02  0.2374E+02
     28.317  0.3950E+00  0.3951E+00  0.2384E+02  0.2384E+02
     28.548  0.3313E+00  0.2556E+00  0.2392E+02  0.2390E+02
     28.779  0.1474E+00  0.1369E+00  0.2395E+02  0.2393E+02
     29.009  0.9447E-01  0.9965E-01  0.2397E+02  0.2395E+02
     29.240  0.6660E-01  0.9701E-01  0.2399E+02  0.2397E+02
     29.471  0.3816E-01  0.5247E-01  0.2400E+02  0.2399E+02
     29.702  0.5494E-02  0.5966E-01  0.2400E+02  0.2400E+02
     29.933  0.0000E+00  0.2808E-02  0.2400E+02  0.2400E+02
     30.163  0.0000E+00  0.0000E+00  0.2400E+02  0.2400E+02
     30.394  0.0000E+00  0.0000E+00  0.2400E+02  0.2400E+02
     30.625  0.0000E+00  0.0000E+00  0.2400E+02  0.2400E+02
     30.856  0.0000E+00  0.0000E+00  0.2400E+02  0.2400E+02
     31.087  0.0000E+00  0.0000E+00  0.2400E+02  0.2400E+02
     31.318  0.0000E+00  0.0000E+00  0.2400E+02  0.2400E+02
     31.548  0.0000E+00  0.0000E+00  0.2400E+02  0.2400E+02
     31.779  0.0000E+00  0.0000E+00  0.2400E+02  0.2400E+02
     32.010  0.0000E+00  0.0000E+00  0.2400E+02  0.2400E+02
     32.241  0.0000E+00  0.0000E+00  0.2400E+02  0.2400E+02
     32.472  0.0000E+00  0.0000E+00  0.2400E+02  0.2400E+02
     32.702  0.0000E+00  0.0000E+00  0.2400E+02  0.2400E+02
     32.70246222    -36.54333384  301     10.16287642      1.00000000
    -36.543  0.0000E+00  0.0000E+00  0.0000E+00  0.0000E+00  0.0000E+00  0.0000E+00  0.0000E+00  0.0000E+00  0.0000E+00  0.0000E+00  0.0000E+00  0.0000E+00  0.0000E+00  0.0000E+00  0.0000E+00  0.0000E+00  0.0000E+00  0.0000E+00
    -36.313  0.0000E+00  0.0000E+00  0.0000E+00  0.0000E+00  0.0000E+00  0.0000E+00  0.0000E+00  0.0000E+00  0.0000E+00  0.0000E+00  0.0000E+00  0.0000E+00  0.0000E+00  0.0000E+00  0.0000E+00  0.0000E+00  0.0000E+00  0.0000E+00
    -36.082  0.0000E+00  0.0000E+00  0.0000E+00  0.0000E+00  0.0000E+00  0.0000E+00  0.0000E+00  0.0000E+00  0.0000E+00  0.0000E+00  0.0000E+00  0.0000E+00  0.0000E+00  0.0000E+00  0.0000E+00  0.0000E+00  0.0000E+00  0.0000E+00
    -35.851  0.0000E+00  0.0000E+00  0.0000E+00  0.0000E+00  0.0000E+00  0.0000E+00  0.0000E+00  0.0000E+00  0.0000E+00  0.0000E+00  0.0000E+00  0.0000E+00  0.0000E+00  0.0000E+00  0.0000E+00  0.0000E+00  0.0000E+00  0.0000E+00
    -35.620  0.0000E+00  0.0000E+00  0.0000E+00  0.0000E+00  0.0000E+00  0.0000E+00  0.0000E+00  0.0000E+00  0.0000E+00  0.0000E+00  0.0000E+00  0.0000E+00  0.0000E+00  0.0000E+00  0.0000E+00  0.0000E+00  0.0000E+00  0.0000E+00
    -35.389  0.0000E+00  0.0000E+00  0.0000E+00  0.0000E+00  0.0000E+00  0.0000E+00  0.0000E+00  0.0000E+00  0.0000E+00  0.0000E+00  0.0000E+00  0.0000E+00  0.0000E+00  0.0000E+00  0.0000E+00  0.0000E+00  0.0000E+00  0.0000E+00
    -35.158  0.0000E+00  0.0000E+00  0.0000E+00  0.0000E+00  0.0000E+00  0.0000E+00  0.0000E+00  0.0000E+00  0.0000E+00  0.0000E+00  0.0000E+00  0.0000E+00  0.0000E+00  0.0000E+00  0.0000E+00  0.0000E+00  0.0000E+00  0.0000E+00
    -34.928  0.0000E+00  0.0000E+00  0.0000E+00  0.0000E+00  0.0000E+00  0.0000E+00  0.0000E+00  0.0000E+00  0.0000E+00  0.0000E+00  0.0000E+00  0.0000E+00  0.0000E+00  0.0000E+00  0.0000E+00  0.0000E+00  0.0000E+00  0.0000E+00
    -34.697  0.0000E+00  0.0000E+00  0.0000E+00  0.0000E+00  0.0000E+00  0.0000E+00  0.0000E+00  0.0000E+00  0.0000E+00  0.0000E+00  0.0000E+00  0.0000E+00  0.0000E+00  0.0000E+00  0.0000E+00  0.0000E+00  0.0000E+00  0.0000E+00
    -34.466  0.0000E+00  0.0000E+00  0.0000E+00  0.0000E+00  0.0000E+00  0.0000E+00  0.0000E+00  0.0000E+00  0.0000E+00  0.0000E+00  0.0000E+00  0.0000E+00  0.0000E+00  0.0000E+00  0.0000E+00  0.0000E+00  0.0000E+00  0.0000E+00
    -34.235  0.0000E+00  0.0000E+00  0.0000E+00  0.0000E+00  0.0000E+00  0.0000E+00  0.0000E+00  0.0000E+00  0.0000E+00  0.0000E+00  0.0000E+00  0.0000E+00  0.0000E+00  0.0000E+00  0.0000E+00  0.0000E+00  0.0000E+00  0.0000E+00
    -34.004  0.7514E-11  0.7418E-11  0.1242E-06  0.1225E-06  0.1242E-06  0.1225E-06  0.1242E-06  0.1225E-06  0.4647E-11  0.4586E-11  0.4647E-11  0.4586E-11  0.1948E-11  0.1922E-11  0.4647E-11  0.4586E-11  0.1948E-11  0.1922E-11
    -33.774  0.1743E-07  0.1720E-07  0.6757E-04  0.6666E-04  0.6757E-04  0.6666E-04  0.6757E-04  0.6666E-04  0.8842E-08  0.8724E-08  0.8842E-08  0.8724E-08  0.4482E-08  0.4422E-08  0.8842E-08  0.8724E-08  0.4482E-08  0.4422E-08
    -33.543  0.1766E-05  0.1743E-05  0.6723E-02  0.6634E-02  0.6723E-02  0.6634E-02  0.6723E-02  0.6634E-02  0.8969E-06  0.8850E-06  0.8969E-06  0.8850E-06  0.4478E-06  0.4418E-06  0.8969E-06  0.8850E-06  0.4478E-06  0.4418E-06
    -33.312  0.1106E-03  0.1096E-03  0.3189E+00  0.3164E+00  0.3189E+00  0.3164E+00  0.3189E+00  0.3164E+00  0.5200E-04  0.5155E-04  0.5200E-04  0.5155E-04  0.2531E-04  0.2509E-04  0.5200E-04  0.5155E-04  0.2531E-04  0.2509E-04
    -33.081  0.5829E-03  0.5823E-03  0.1061E+01  0.1060E+01  0.1061E+01  0.1060E+01  0.1061E+01  0.1060E+01  0.2573E-03  0.2566E-03  0.2573E-03  0.2566E-03  0.8586E-04  0.8590E-04  0.2573E-03  0.2566E-03  0.8586E-04  0.8590E-04
    -32.850  0.4579E-03  0.4585E-03  0.1261E+01  0.1259E+01  0.1261E+01  0.1259E+01  0.1261E+01  0.1259E+01  0.5037E-03  0.5032E-03  0.5037E-03  0.5032E-03  0.3908E-04  0.3917E-04  0.5037E-03  0.5032E-03  0.3908E-04  0.3917E-04
    -32.619  0.2585E-03  0.2595E-03  0.1411E+01  0.1414E+01  0.1411E+01  0.1414E+01  0.1411E+01  0.1414E+01  0.3405E-03  0.3418E-03  0.3405E-03  0.3418E-03  0.1337E-04  0.1344E-04  0.3405E-03  0.3418E-03  0.1337E-04  0.1344E-04
    -32.389  0.2046E-04  0.2071E-04  0.2102E+00  0.2128E+00  0.2102E+00  0.2128E+00  0.2102E+00  0.2128E+00  0.2520E-04  0.2566E-04  0.2520E-04  0.2566E-04  0.8476E-06  0.8581E-06  0.2520E-04  0.2566E-04  0.8476E-06  0.8581E-06
    -32.158  0.0000E+00  0.0000E+00  0.0000E+00  0.0000E+00  0.0000E+00  0.0000E+00  0.0000E+00  0.0000E+00  0.0000E+00  0.0000E+00  0.0000E+00  0.0000E+00  0.0000E+00  0.0000E+00  0.0000E+00  0.0000E+00  0.0000E+00  0.0000E+00
    -31.927  0.0000E+00  0.0000E+00  0.0000E+00  0.0000E+00  0.0000E+00  0.0000E+00  0.0000E+00  0.0000E+00  0.0000E+00  0.0000E+00  0.0000E+00  0.0000E+00  0.0000E+00  0.0000E+00  0.0000E+00  0.0000E+00  0.0000E+00  0.0000E+00
    -31.696  0.0000E+00  0.0000E+00  0.0000E+00  0.0000E+00  0.0000E+00  0.0000E+00  0.0000E+00  0.0000E+00  0.0000E+00  0.0000E+00  0.0000E+00  0.0000E+00  0.0000E+00  0.0000E+00  0.0000E+00  0.0000E+00  0.0000E+00  0.0000E+00
    -31.465  0.0000E+00  0.0000E+00  0.0000E+00  0.0000E+00  0.0000E+00  0.0000E+00  0.0000E+00  0.0000E+00  0.0000E+00  0.0000E+00  0.0000E+00  0.0000E+00  0.0000E+00  0.0000E+00  0.0000E+00  0.0000E+00  0.0000E+00  0.0000E+00
    -31.234  0.0000E+00  0.0000E+00  0.0000E+00  0.0000E+00  0.0000E+00  0.0000E+00  0.0000E+00  0.0000E+00  0.0000E+00  0.0000E+00  0.0000E+00  0.0000E+00  0.0000E+00  0.0000E+00  0.0000E+00  0.0000E+00  0.0000E+00  0.0000E+00
    -31.004  0.0000E+00  0.0000E+00  0.0000E+00  0.0000E+00  0.0000E+00  0.0000E+00  0.0000E+00  0.0000E+00  0.0000E+00  0.0000E+00  0.0000E+00  0.0000E+00  0.0000E+00  0.0000E+00  0.0000E+00  0.0000E+00  0.0000E+00  0.0000E+00
    -30.773  0.0000E+00  0.0000E+00  0.0000E+00  0.0000E+00  0.0000E+00  0.0000E+00  0.0000E+00  0.0000E+00  0.0000E+00  0.0000E+00  0.0000E+00  0.0000E+00  0.0000E+00  0.0000E+00  0.0000E+00  0.0000E+00  0.0000E+00  0.0000E+00
    -30.542  0.0000E+00  0.0000E+00  0.0000E+00  0.0000E+00  0.0000E+00  0.0000E+00  0.0000E+00  0.0000E+00  0.0000E+00  0.0000E+00  0.0000E+00  0.0000E+00  0.0000E+00  0.0000E+00  0.0000E+00  0.0000E+00  0.0000E+00  0.0000E+00
    -30.311  0.0000E+00  0.0000E+00  0.0000E+00  0.0000E+00  0.0000E+00  0.0000E+00  0.0000E+00  0.0000E+00  0.0000E+00  0.0000E+00  0.0000E+00  0.0000E+00  0.0000E+00  0.0000E+00  0.0000E+00  0.0000E+00  0.0000E+00  0.0000E+00
    -30.080  0.0000E+00  0.0000E+00  0.0000E+00  0.0000E+00  0.0000E+00  0.0000E+00  0.0000E+00  0.0000E+00  0.0000E+00  0.0000E+00  0.0000E+00  0.0000E+00  0.0000E+00  0.0000E+00  0.0000E+00  0.0000E+00  0.0000E+00  0.0000E+00
    -29.850  0.0000E+00  0.0000E+00  0.0000E+00  0.0000E+00  0.0000E+00  0.0000E+00  0.0000E+00  0.0000E+00  0.0000E+00  0.0000E+00  0.0000E+00  0.0000E+00  0.0000E+00  0.0000E+00  0.0000E+00  0.0000E+00  0.0000E+00  0.0000E+00
    -29.619  0.0000E+00  0.0000E+00  0.0000E+00  0.0000E+00  0.0000E+00  0.0000E+00  0.0000E+00  0.0000E+00  0.0000E+00  0.0000E+00  0.0000E+00  0.0000E+00  0.0000E+00  0.0000E+00  0.0000E+00  0.0000E+00  0.0000E+00  0.0000E+00
    -29.388  0.0000E+00  0.0000E+00  0.0000E+00  0.0000E+00  0.0000E+00  0.0000E+00  0.0000E+00  0.0000E+00  0.0000E+00  0.0000E+00  0.0000E+00  0.0000E+00  0.0000E+00  0.0000E+00  0.0000E+00  0.0000E+00  0.0000E+00  0.0000E+00
    -29.157  0.0000E+00  0.0000E+00  0.0000E+00  0.0000E+00  0.0000E+00  0.0000E+00  0.0000E+00  0.0000E+00  0.0000E+00  0.0000E+00  0.0000E+00  0.0000E+00  0.0000E+00  0.0000E+00  0.0000E+00  0.0000E+00  0.0000E+00  0.0000E+00
    -28.926  0.0000E+00  0.0000E+00  0.0000E+00  0.0000E+00  0.0000E+00  0.0000E+00  0.0000E+00  0.0000E+00  0.0000E+00  0.0000E+00  0.0000E+00  0.0000E+00  0.0000E+00  0.0000E+00  0.0000E+00  0.0000E+00  0.0000E+00  0.0000E+00
    -28.695  0.0000E+00  0.0000E+00  0.0000E+00  0.0000E+00  0.0000E+00  0.0000E+00  0.0000E+00  0.0000E+00  0.0000E+00  0.0000E+00  0.0000E+00  0.0000E+00  0.0000E+00  0.0000E+00  0.0000E+00  0.0000E+00  0.0000E+00  0.0000E+00
    -28.465  0.0000E+00  0.0000E+00  0.0000E+00  0.0000E+00  0.0000E+00  0.0000E+00  0.0000E+00  0.0000E+00  0.0000E+00  0.0000E+00  0.0000E+00  0.0000E+00  0.0000E+00  0.0000E+00  0.0000E+00  0.0000E+00  0.0000E+00  0.0000E+00
    -28.234  0.0000E+00  0.0000E+00  0.0000E+00  0.0000E+00  0.0000E+00  0.0000E+00  0.0000E+00  0.0000E+00  0.0000E+00  0.0000E+00  0.0000E+00  0.0000E+00  0.0000E+00  0.0000E+00  0.0000E+00  0.0000E+00  0.0000E+00  0.0000E+00
    -28.003  0.0000E+00  0.0000E+00  0.0000E+00  0.0000E+00  0.0000E+00  0.0000E+00  0.0000E+00  0.0000E+00  0.0000E+00  0.0000E+00  0.0000E+00  0.0000E+00  0.0000E+00  0.0000E+00  0.0000E+00  0.0000E+00  0.0000E+00  0.0000E+00
    -27.772  0.0000E+00  0.0000E+00  0.0000E+00  0.0000E+00  0.0000E+00  0.0000E+00  0.0000E+00  0.0000E+00  0.0000E+00  0.0000E+00  0.0000E+00  0.0000E+00  0.0000E+00  0.0000E+00  0.0000E+00  0.0000E+00  0.0000E+00  0.0000E+00
    -27.541  0.0000E+00  0.0000E+00  0.0000E+00  0.0000E+00  0.0000E+00  0.0000E+00  0.0000E+00  0.0000E+00  0.0000E+00  0.0000E+00  0.0000E+00  0.0000E+00  0.0000E+00  0.0000E+00  0.0000E+00  0.0000E+00  0.0000E+00  0.0000E+00
    -27.311  0.0000E+00  0.0000E+00  0.0000E+00  0.0000E+00  0.0000E+00  0.0000E+00  0.0000E+00  0.0000E+00  0.0000E+00  0.0000E+00  0.0000E+00  0.0000E+00  0.0000E+00  0.0000E+00  0.0000E+00  0.0000E+00  0.0000E+00  0.0000E+00
    -27.080  0.0000E+00  0.0000E+00  0.0000E+00  0.0000E+00  0.0000E+00  0.0000E+00  0.0000E+00  0.0000E+00  0.0000E+00  0.0000E+00  0.0000E+00  0.0000E+00  0.0000E+00  0.0000E+00  0.0000E+00  0.0000E+00  0.0000E+00  0.0000E+00
    -26.849  0.0000E+00  0.0000E+00  0.0000E+00  0.0000E+00  0.0000E+00  0.0000E+00  0.0000E+00  0.0000E+00  0.0000E+00  0.0000E+00  0.0000E+00  0.0000E+00  0.0000E+00  0.0000E+00  0.0000E+00  0.0000E+00  0.0000E+00  0.0000E+00
    -26.618  0.0000E+00  0.0000E+00  0.0000E+00  0.0000E+00  0.0000E+00  0.0000E+00  0.0000E+00  0.0000E+00  0.0000E+00  0.0000E+00  0.0000E+00  0.0000E+00  0.0000E+00  0.0000E+00  0.0000E+00  0.0000E+00  0.0000E+00  0.0000E+00
    -26.387  0.0000E+00  0.0000E+00  0.0000E+00  0.0000E+00  0.0000E+00  0.0000E+00  0.0000E+00  0.0000E+00  0.0000E+00  0.0000E+00  0.0000E+00  0.0000E+00  0.0000E+00  0.0000E+00  0.0000E+00  0.0000E+00  0.0000E+00  0.0000E+00
    -26.156  0.0000E+00  0.0000E+00  0.0000E+00  0.0000E+00  0.0000E+00  0.0000E+00  0.0000E+00  0.0000E+00  0.0000E+00  0.0000E+00  0.0000E+00  0.0000E+00  0.0000E+00  0.0000E+00  0.0000E+00  0.0000E+00  0.0000E+00  0.0000E+00
    -25.926  0.0000E+00  0.0000E+00  0.0000E+00  0.0000E+00  0.0000E+00  0.0000E+00  0.0000E+00  0.0000E+00  0.0000E+00  0.0000E+00  0.0000E+00  0.0000E+00  0.0000E+00  0.0000E+00  0.0000E+00  0.0000E+00  0.0000E+00  0.0000E+00
    -25.695  0.0000E+00  0.0000E+00  0.0000E+00  0.0000E+00  0.0000E+00  0.0000E+00  0.0000E+00  0.0000E+00  0.0000E+00  0.0000E+00  0.0000E+00  0.0000E+00  0.0000E+00  0.0000E+00  0.0000E+00  0.0000E+00  0.0000E+00  0.0000E+00
    -25.464  0.0000E+00  0.0000E+00  0.0000E+00  0.0000E+00  0.0000E+00  0.0000E+00  0.0000E+00  0.0000E+00  0.0000E+00  0.0000E+00  0.0000E+00  0.0000E+00  0.0000E+00  0.0000E+00  0.0000E+00  0.0000E+00  0.0000E+00  0.0000E+00
    -25.233  0.0000E+00  0.0000E+00  0.0000E+00  0.0000E+00  0.0000E+00  0.0000E+00  0.0000E+00  0.0000E+00  0.0000E+00  0.0000E+00  0.0000E+00  0.0000E+00  0.0000E+00  0.0000E+00  0.0000E+00  0.0000E+00  0.0000E+00  0.0000E+00
    -25.002  0.0000E+00  0.0000E+00  0.0000E+00  0.0000E+00  0.0000E+00  0.0000E+00  0.0000E+00  0.0000E+00  0.0000E+00  0.0000E+00  0.0000E+00  0.0000E+00  0.0000E+00  0.0000E+00  0.0000E+00  0.0000E+00  0.0000E+00  0.0000E+00