   2   2   1   0
  0.1452265E+02  0.3073915E-09  0.3073915E-09  0.3073915E-09  0.5000000E-15
  1.000000000000000E-004
  CAR 
 unknown system                          
     28.62347932    -38.43925779  301      8.01016913      1.00000000
    -38.439  0.0000E+00  0.0000E+00  0.0000E+00  0.0000E+00
    -38.216  0.0000E+00  0.0000E+00  0.0000E+00  0.0000E+00
    -37.992  0.0000E+00  0.0000E+00  0.0000E+00  0.0000E+00
    -37.769  0.0000E+00  0.0000E+00  0.0000E+00  0.0000E+00
    -37.545  0.0000E+00  0.0000E+00  0.0000E+00  0.0000E+00
    -37.322  0.0000E+00  0.0000E+00  0.0000E+00  0.0000E+00
    -37.098  0.0000E+00  0.0000E+00  0.0000E+00  0.0000E+00
    -36.874  0.0000E+00  0.0000E+00  0.0000E+00  0.0000E+00
    -36.651  0.0000E+00  0.0000E+00  0.0000E+00  0.0000E+00
    -36.427  0.0000E+00  0.0000E+00  0.0000E+00  0.0000E+00
    -36.204  0.0000E+00  0.0000E+00  0.0000E+00  0.0000E+00
    -35.980  0.3483E-05  0.3391E-05  0.7787E-06  0.7580E-06
    -35.757  0.1269E-02  0.1234E-02  0.2844E-03  0.2767E-03
    -35.533  0.1090E+00  0.1061E+00  0.2464E-01  0.2400E-01
    -35.310  0.4140E+01  0.4083E+01  0.9500E+00  0.9367E+00
    -35.086  0.1229E+02  0.1226E+02  0.3696E+01  0.3677E+01
    -34.863  0.9647E+01  0.9719E+01  0.5870E+01  0.5867E+01
    -34.639  0.4875E+00  0.5002E+00  0.5999E+01  0.5999E+01
    -34.415  0.0000E+00  0.0000E+00  0.6000E+01  0.6000E+01
    -34.192  0.0000E+00  0.0000E+00  0.6000E+01  0.6000E+01
    -33.968  0.0000E+00  0.0000E+00  0.6000E+01  0.6000E+01
    -33.745  0.0000E+00  0.0000E+00  0.6000E+01  0.6000E+01
    -33.521  0.0000E+00  0.0000E+00  0.6000E+01  0.6000E+01
    -33.298  0.0000E+00  0.0000E+00  0.6000E+01  0.6000E+01
    -33.074  0.0000E+00  0.0000E+00  0.6000E+01  0.6000E+01
    -32.851  0.0000E+00  0.0000E+00  0.6000E+01  0.6000E+01
    -32.627  0.0000E+00  0.0000E+00  0.6000E+01  0.6000E+01
    -32.404  0.0000E+00  0.0000E+00  0.6000E+01  0.6000E+01
    -32.180  0.0000E+00  0.0000E+00  0.6000E+01  0.6000E+01
    -31.957  0.0000E+00  0.0000E+00  0.6000E+01  0.6000E+01
    -31.733  0.0000E+00  0.0000E+00  0.6000E+01  0.6000E+01
    -31.509  0.0000E+00  0.0000E+00  0.6000E+01  0.6000E+01
    -31.286  0.0000E+00  0.0000E+00  0.6000E+01  0.6000E+01
    -31.062  0.0000E+00  0.0000E+00  0.6000E+01  0.6000E+01
    -30.839  0.0000E+00  0.0000E+00  0.6000E+01  0.6000E+01
    -30.615  0.0000E+00  0.0000E+00  0.6000E+01  0.6000E+01
    -30.392  0.0000E+00  0.0000E+00  0.6000E+01  0.6000E+01
    -30.168  0.0000E+00  0.0000E+00  0.6000E+01  0.6000E+01
    -29.945  0.0000E+00  0.0000E+00  0.6000E+01  0.6000E+01
    -29.721  0.0000E+00  0.0000E+00  0.6000E+01  0.6000E+01
    -29.498  0.0000E+00  0.0000E+00  0.6000E+01  0.6000E+01
    -29.274  0.0000E+00  0.0000E+00  0.6000E+01  0.6000E+01
    -29.050  0.0000E+00  0.0000E+00  0.6000E+01  0.6000E+01
    -28.827  0.0000E+00  0.0000E+00  0.6000E+01  0.6000E+01
    -28.603  0.0000E+00  0.0000E+00  0.6000E+01  0.6000E+01
    -28.380  0.0000E+00  0.0000E+00  0.6000E+01  0.6000E+01
    -28.156  0.0000E+00  0.0000E+00  0.6000E+01  0.6000E+01
    -27.933  0.0000E+00  0.0000E+00  0.6000E+01  0.6000E+01
    -27.709  0.0000E+00  0.0000E+00  0.6000E+01  0.6000E+01
    -27.486  0.0000E+00  0.0000E+00  0.6000E+01  0.6000E+01
    -27.262  0.0000E+00  0.0000E+00  0.6000E+01  0.6000E+01
    -27.039  0.0000E+00  0.0000E+00  0.6000E+01  0.6000E+01
    -26.815  0.0000E+00  0.0000E+00  0.6000E+01  0.6000E+01
    -26.592  0.0000E+00  0.0000E+00  0.6000E+01  0.6000E+01
    -26.368  0.0000E+00  0.0000E+00  0.6000E+01  0.6000E+01
    -26.144  0.0000E+00  0.0000E+00  0.6000E+01  0.6000E+01
    -25.921  0.0000E+00  0.0000E+00  0.6000E+01  0.6000E+01
    -25.697  0.0000E+00  0.0000E+00  0.6000E+01  0.6000E+01
    -25.474  0.0000E+00  0.0000E+00  0.6000E+01  0.6000E+01
    -25.250  0.0000E+00  0.0000E+00  0.6000E+01  0.6000E+01
    -25.027  0.0000E+00  0.0000E+00  0.6000E+01  0.6000E+01
    -24.803  0.0000E+00  0.0000E+00  0.6000E+01  0.6000E+01
    -24.580  0.0000E+00  0.0000E+00  0.6000E+01  0.6000E+01
    -24.356  0.0000E+00  0.0000E+00  0.6000E+01  0.6000E+01
    -24.133  0.0000E+00  0.0000E+00  0.6000E+01  0.6000E+01
    -23.909  0.0000E+00  0.0000E+00  0.6000E+01  0.6000E+01
    -23.685  0.0000E+00  0.0000E+00  0.6000E+01  0.6000E+01
    -23.462  0.0000E+00  0.0000E+00  0.6000E+01  0.6000E+01
    -23.238  0.0000E+00  0.0000E+00  0.6000E+01  0.6000E+01
    -23.015  0.0000E+00  0.0000E+00  0.6000E+01  0.6000E+01
    -22.791  0.0000E+00  0.0000E+00  0.6000E+01  0.6000E+01
    -22.568  0.0000E+00  0.0000E+00  0.6000E+01  0.6000E+01
    -22.344  0.0000E+00  0.0000E+00  0.6000E+01  0.6000E+01
    -22.121  0.0000E+00  0.0000E+00  0.6000E+01  0.6000E+01
    -21.897  0.0000E+00  0.0000E+00  0.6000E+01  0.6000E+01
    -21.674  0.0000E+00  0.0000E+00  0.6000E+01  0.6000E+01
    -21.450  0.0000E+00  0.0000E+00  0.6000E+01  0.6000E+01
    -21.226  0.0000E+00  0.0000E+00  0.6000E+01  0.6000E+01
    -21.003  0.0000E+00  0.0000E+00  0.6000E+01  0.6000E+01
    -20.779  0.0000E+00  0.0000E+00  0.6000E+01  0.6000E+01
    -20.556  0.0000E+00  0.0000E+00  0.6000E+01  0.6000E+01
    -20.332  0.0000E+00  0.0000E+00  0.6000E+01  0.6000E+01
    -20.109  0.0000E+00  0.0000E+00  0.6000E+01  0.6000E+01
    -19.885  0.0000E+00  0.0000E+00  0.6000E+01  0.6000E+01
    -19.662  0.0000E+00  0.0000E+00  0.6000E+01  0.6000E+01
    -19.438  0.0000E+00  0.0000E+00  0.6000E+01  0.6000E+01
    -19.215  0.0000E+00  0.0000E+00  0.6000E+01  0.6000E+01
    -18.991  0.0000E+00  0.0000E+00  0.6000E+01  0.6000E+01
    -18.768  0.0000E+00  0.0000E+00  0.6000E+01  0.6000E+01
    -18.544  0.0000E+00  0.0000E+00  0.6000E+01  0.6000E+01
    -18.320  0.0000E+00  0.0000E+00  0.6000E+01  0.6000E+01
    -18.097  0.0000E+00  0.0000E+00  0.6000E+01  0.6000E+01
    -17.873  0.0000E+00  0.0000E+00  0.6000E+01  0.6000E+01
    -17.650  0.0000E+00  0.0000E+00  0.6000E+01  0.6000E+01
    -17.426  0.0000E+00  0.0000E+00  0.6000E+01  0.6000E+01
    -17.203  0.0000E+00  0.0000E+00  0.6000E+01  0.6000E+01
    -16.979  0.0000E+00  0.0000E+00  0.6000E+01  0.6000E+01
    -16.756  0.0000E+00  0.0000E+00  0.6000E+01  0.6000E+01
    -16.532  0.0000E+00  0.0000E+00  0.6000E+01  0.6000E+01
    -16.309  0.0000E+00  0.0000E+00  0.6000E+01  0.6000E+01
    -16.085  0.0000E+00  0.0000E+00  0.6000E+01  0.6000E+01
    -15.861  0.0000E+00  0.0000E+00  0.6000E+01  0.6000E+01
    -15.638  0.0000E+00  0.0000E+00  0.6000E+01  0.6000E+01
    -15.414  0.0000E+00  0.0000E+00  0.6000E+01  0.6000E+01
    -15.191  0.0000E+00  0.0000E+00  0.6000E+01  0.6000E+01
    -14.967  0.0000E+00  0.0000E+00  0.6000E+01  0.6000E+01
    -14.744  0.0000E+00  0.0000E+00  0.6000E+01  0.6000E+01
    -14.520  0.0000E+00  0.0000E+00  0.6000E+01  0.6000E+01
    -14.297  0.0000E+00  0.0000E+00  0.6000E+01  0.6000E+01
    -14.073  0.0000E+00  0.0000E+00  0.6000E+01  0.6000E+01
    -13.850  0.0000E+00  0.0000E+00  0.6000E+01  0.6000E+01
    -13.626  0.0000E+00  0.0000E+00  0.6000E+01  0.6000E+01
    -13.403  0.0000E+00  0.0000E+00  0.6000E+01  0.6000E+01
    -13.179  0.0000E+00  0.0000E+00  0.6000E+01  0.6000E+01
    -12.955  0.0000E+00  0.0000E+00  0.6000E+01  0.6000E+01
    -12.732  0.0000E+00  0.0000E+00  0.6000E+01  0.6000E+01
    -12.508  0.0000E+00  0.0000E+00  0.6000E+01  0.6000E+01
    -12.285  0.0000E+00  0.0000E+00  0.6000E+01  0.6000E+01
    -12.061  0.0000E+00  0.0000E+00  0.6000E+01  0.6000E+01
    -11.838  0.0000E+00  0.0000E+00  0.6000E+01  0.6000E+01
    -11.614  0.0000E+00  0.0000E+00  0.6000E+01  0.6000E+01
    -11.391  0.0000E+00  0.0000E+00  0.6000E+01  0.6000E+01
    -11.167  0.0000E+00  0.0000E+00  0.6000E+01  0.6000E+01
    -10.944  0.0000E+00  0.0000E+00  0.6000E+01  0.6000E+01
    -10.720  0.0000E+00  0.0000E+00  0.6000E+01  0.6000E+01
    -10.496  0.0000E+00  0.0000E+00  0.6000E+01  0.6000E+01
    -10.273  0.0000E+00  0.0000E+00  0.6000E+01  0.6000E+01
    -10.049  0.0000E+00  0.0000E+00  0.6000E+01  0.6000E+01
     -9.826  0.0000E+00  0.0000E+00  0.6000E+01  0.6000E+01
     -9.602  0.0000E+00  0.0000E+00  0.6000E+01  0.6000E+01
     -9.379  0.0000E+00  0.0000E+00  0.6000E+01  0.6000E+01
     -9.155  0.0000E+00  0.0000E+00  0.6000E+01  0.6000E+01
     -8.932  0.0000E+00  0.0000E+00  0.6000E+01  0.6000E+01
     -8.708  0.0000E+00  0.0000E+00  0.6000E+01  0.6000E+01
     -8.485  0.0000E+00  0.0000E+00  0.6000E+01  0.6000E+01
     -8.261  0.0000E+00  0.0000E+00  0.6000E+01  0.6000E+01
     -8.037  0.0000E+00  0.0000E+00  0.6000E+01  0.6000E+01
     -7.814  0.0000E+00  0.0000E+00  0.6000E+01  0.6000E+01
     -7.590  0.0000E+00  0.0000E+00  0.6000E+01  0.6000E+01
     -7.367  0.0000E+00  0.0000E+00  0.6000E+01  0.6000E+01
     -7.143  0.0000E+00  0.0000E+00  0.6000E+01  0.6000E+01
     -6.920  0.0000E+00  0.0000E+00  0.6000E+01  0.6000E+01
     -6.696  0.0000E+00  0.0000E+00  0.6000E+01  0.6000E+01
     -6.473  0.0000E+00  0.0000E+00  0.6000E+01  0.6000E+01
     -6.249  0.0000E+00  0.0000E+00  0.6000E+01  0.6000E+01
     -6.026  0.0000E+00  0.0000E+00  0.6000E+01  0.6000E+01
     -5.802  0.0000E+00  0.0000E+00  0.6000E+01  0.6000E+01
     -5.579  0.0000E+00  0.0000E+00  0.6000E+01  0.6000E+01
     -5.355  0.0000E+00  0.0000E+00  0.6000E+01  0.6000E+01
     -5.131  0.0000E+00  0.0000E+00  0.6000E+01  0.6000E+01
     -4.908  0.0000E+00  0.0000E+00  0.6000E+01  0.6000E+01
     -4.684  0.0000E+00  0.0000E+00  0.6000E+01  0.6000E+01
     -4.461  0.0000E+00  0.0000E+00  0.6000E+01  0.6000E+01
     -4.237  0.0000E+00  0.0000E+00  0.6000E+01  0.6000E+01
     -4.014  0.0000E+00  0.0000E+00  0.6000E+01  0.6000E+01
     -3.790  0.0000E+00  0.0000E+00  0.6000E+01  0.6000E+01
     -3.567  0.0000E+00  0.0000E+00  0.6000E+01  0.6000E+01
     -3.343  0.0000E+00  0.0000E+00  0.6000E+01  0.6000E+01
     -3.120  0.0000E+00  0.0000E+00  0.6000E+01  0.6000E+01
     -2.896  0.0000E+00  0.0000E+00  0.6000E+01  0.6000E+01
     -2.672  0.0000E+00  0.0000E+00  0.6000E+01  0.6000E+01
     -2.449  0.0000E+00  0.0000E+00  0.6000E+01  0.6000E+01
     -2.225  0.0000E+00  0.0000E+00  0.6000E+01  0.6000E+01
     -2.002  0.0000E+00  0.0000E+00  0.6000E+01  0.6000E+01
     -1.778  0.0000E+00  0.0000E+00  0.6000E+01  0.6000E+01
     -1.555  0.0000E+00  0.0000E+00  0.6000E+01  0.6000E+01
     -1.331  0.0000E+00  0.0000E+00  0.6000E+01  0.6000E+01
     -1.108  0.0000E+00  0.0000E+00  0.6000E+01  0.6000E+01
     -0.884  0.0000E+00  0.0000E+00  0.6000E+01  0.6000E+01
     -0.661  0.0000E+00  0.0000E+00  0.6000E+01  0.6000E+01
     -0.437  0.0000E+00  0.0000E+00  0.6000E+01  0.6000E+01
     -0.213  0.0000E+00  0.0000E+00  0.6000E+01  0.6000E+01
      0.010  0.0000E+00  0.0000E+00  0.6000E+01  0.6000E+01
      0.234  0.0000E+00  0.0000E+00  0.6000E+01  0.6000E+01
      0.457  0.1377E-07  0.1392E-07  0.6000E+01  0.6000E+01
      0.681  0.2243E-05  0.2267E-05  0.6000E+01  0.6000E+01
      0.904  0.1911E-03  0.1931E-03  0.6000E+01  0.6000E+01
      1.128  0.7326E-02  0.7373E-02  0.6002E+01  0.6002E+01
      1.351  0.3536E-01  0.3540E-01  0.6010E+01  0.6010E+01
      1.575  0.5154E-01  0.5165E-01  0.6021E+01  0.6021E+01
      1.798  0.7110E-01  0.7101E-01  0.6037E+01  0.6037E+01
      2.022  0.7863E-01  0.7880E-01  0.6055E+01  0.6055E+01
      2.245  0.1037E+00  0.1036E+00  0.6078E+01  0.6078E+01
      2.469  0.1157E+00  0.1158E+00  0.6104E+01  0.6104E+01
      2.693  0.9075E-01  0.9076E-01  0.6124E+01  0.6124E+01
      2.916  0.1717E+00  0.1717E+00  0.6163E+01  0.6163E+01
      3.140  0.1575E+00  0.1575E+00  0.6199E+01  0.6199E+01
      3.363  0.1337E+00  0.1338E+00  0.6229E+01  0.6229E+01
      3.587  0.2155E+00  0.2155E+00  0.6277E+01  0.6277E+01
      3.810  0.2533E+00  0.2533E+00  0.6334E+01  0.6334E+01
      4.034  0.2265E+00  0.2265E+00  0.6385E+01  0.6385E+01
      4.257  0.3041E+00  0.3042E+00  0.6453E+01  0.6453E+01
      4.481  0.4254E+00  0.4253E+00  0.6548E+01  0.6548E+01
      4.704  0.7352E+00  0.7349E+00  0.6714E+01  0.6714E+01
      4.928  0.8519E+00  0.8518E+00  0.6905E+01  0.6905E+01
      5.152  0.1136E+01  0.1136E+01  0.7160E+01  0.7159E+01
      5.375  0.1521E+01  0.1521E+01  0.7502E+01  0.7501E+01
      5.599  0.1497E+01  0.1497E+01  0.7838E+01  0.7838E+01
      5.822  0.1116E+01  0.1116E+01  0.8090E+01  0.8090E+01
      6.046  0.7807E+00  0.7801E+00  0.8266E+01  0.8265E+01
      6.269  0.2154E+01  0.2151E+01  0.8749E+01  0.8748E+01
      6.493  0.2806E+01  0.2806E+01  0.9377E+01  0.9376E+01
      6.716  0.2437E+01  0.2440E+01  0.9927E+01  0.9926E+01
      6.940  0.2625E+01  0.2624E+01  0.1052E+02  0.1052E+02
      7.163  0.2604E+01  0.2604E+01  0.1110E+02  0.1110E+02
      7.387  0.1807E+01  0.1809E+01  0.1151E+02  0.1151E+02
      7.610  0.7954E+00  0.7960E+00  0.1169E+02  0.1169E+02
      7.834  0.7395E+00  0.7392E+00  0.1186E+02  0.1186E+02
      8.058  0.7999E+00  0.7990E+00  0.1204E+02  0.1204E+02
      8.281  0.1276E+01  0.1273E+01  0.1233E+02  0.1232E+02
      8.505  0.2119E+01  0.2115E+01  0.1280E+02  0.1280E+02
      8.728  0.2952E+01  0.2948E+01  0.1346E+02  0.1346E+02
      8.952  0.3649E+01  0.3644E+01  0.1428E+02  0.1428E+02
      9.175  0.4266E+01  0.4269E+01  0.1524E+02  0.1524E+02
      9.399  0.2556E+01  0.2564E+01  0.1582E+02  0.1582E+02
      9.622  0.1701E+01  0.1701E+01  0.1620E+02  0.1620E+02
      9.846  0.1381E+01  0.1383E+01  0.1651E+02  0.1651E+02
     10.069  0.7054E+00  0.7080E+00  0.1667E+02  0.1667E+02
     10.293  0.5600E+00  0.5608E+00  0.1680E+02  0.1680E+02
     10.517  0.3192E+00  0.3192E+00  0.1687E+02  0.1687E+02
     10.740  0.4822E+00  0.4826E+00  0.1698E+02  0.1698E+02
     10.964  0.2737E+00  0.2737E+00  0.1704E+02  0.1704E+02
     11.187  0.3341E+00  0.3338E+00  0.1712E+02  0.1712E+02
     11.411  0.4540E+00  0.4544E+00  0.1722E+02  0.1722E+02
     11.634  0.3631E+00  0.3631E+00  0.1730E+02  0.1730E+02
     11.858  0.2017E+00  0.2019E+00  0.1734E+02  0.1734E+02
     12.081  0.2939E+00  0.2937E+00  0.1741E+02  0.1741E+02
     12.305  0.2862E+00  0.2862E+00  0.1747E+02  0.1747E+02
     12.528  0.3728E+00  0.3727E+00  0.1756E+02  0.1756E+02
     12.752  0.2228E+00  0.2231E+00  0.1761E+02  0.1761E+02
     12.976  0.1841E+00  0.1839E+00  0.1765E+02  0.1765E+02
     13.199  0.2147E+00  0.2147E+00  0.1770E+02  0.1770E+02
     13.423  0.2270E+00  0.2273E+00  0.1775E+02  0.1775E+02
     13.646  0.1266E+00  0.1267E+00  0.1778E+02  0.1778E+02
     13.870  0.1993E+00  0.1991E+00  0.1782E+02  0.1782E+02
     14.093  0.2549E+00  0.2548E+00  0.1788E+02  0.1788E+02
     14.317  0.6714E-01  0.6746E-01  0.1790E+02  0.1790E+02
     14.540  0.8951E-01  0.8944E-01  0.1792E+02  0.1792E+02
     14.764  0.9239E-01  0.8903E-01  0.1794E+02  0.1794E+02
     14.987  0.2824E+01  0.2661E+01  0.1857E+02  0.1853E+02
     15.211  0.6070E+01  0.5942E+01  0.1993E+02  0.1986E+02
     15.434  0.1040E+00  0.1781E+00  0.2000E+02  0.1993E+02
     15.658  0.4456E+00  0.4464E+00  0.2010E+02  0.2003E+02
     15.882  0.6549E+00  0.6549E+00  0.2024E+02  0.2018E+02
     16.105  0.6955E+00  0.6944E+00  0.2040E+02  0.2033E+02
     16.329  0.4713E+00  0.4702E+00  0.2051E+02  0.2044E+02
     16.552  0.2720E+00  0.2724E+00  0.2057E+02  0.2050E+02
     16.776  0.5311E+00  0.5307E+00  0.2069E+02  0.2062E+02
     16.999  0.4593E+00  0.4595E+00  0.2079E+02  0.2073E+02
     17.223  0.5570E+00  0.5573E+00  0.2092E+02  0.2085E+02
     17.446  0.3395E+00  0.3392E+00  0.2099E+02  0.2093E+02
     17.670  0.4615E+00  0.4615E+00  0.2110E+02  0.2103E+02
     17.893  0.4706E+00  0.4725E+00  0.2120E+02  0.2114E+02
     18.117  0.6580E+00  0.6710E+00  0.2135E+02  0.2129E+02
     18.341  0.3592E+00  0.3617E+00  0.2143E+02  0.2137E+02
     18.564  0.3162E+00  0.3287E+00  0.2150E+02  0.2144E+02
     18.788  0.3558E+00  0.3696E+00  0.2158E+02  0.2153E+02
     19.011  0.5636E+00  0.5994E+00  0.2171E+02  0.2166E+02
     19.235  0.5448E+00  0.5467E+00  0.2183E+02  0.2178E+02
     19.458  0.3423E+00  0.3498E+00  0.2191E+02  0.2186E+02
     19.682  0.3519E+00  0.3959E+00  0.2199E+02  0.2195E+02
     19.905  0.2995E+00  0.3508E+00  0.2206E+02  0.2203E+02
     20.129  0.4275E+00  0.4457E+00  0.2215E+02  0.2213E+02
     20.352  0.4795E+00  0.5162E+00  0.2226E+02  0.2225E+02
     20.576  0.4893E+00  0.4962E+00  0.2237E+02  0.2236E+02
     20.799  0.2748E+00  0.3142E+00  0.2243E+02  0.2243E+02
     21.023  0.2983E+00  0.3027E+00  0.2250E+02  0.2250E+02
     21.247  0.3830E+00  0.3829E+00  0.2258E+02  0.2258E+02
     21.470  0.3264E+00  0.3264E+00  0.2266E+02  0.2266E+02
     21.694  0.4453E+00  0.4452E+00  0.2276E+02  0.2276E+02
     21.917  0.4265E+00  0.4265E+00  0.2285E+02  0.2285E+02
     22.141  0.2514E+00  0.2514E+00  0.2291E+02  0.2291E+02
     22.364  0.2812E+00  0.2812E+00  0.2297E+02  0.2297E+02
     22.588  0.3300E+00  0.3300E+00  0.2305E+02  0.2305E+02
     22.811  0.3808E+00  0.3807E+00  0.2313E+02  0.2313E+02
     23.035  0.5495E+00  0.5494E+00  0.2326E+02  0.2326E+02
     23.258  0.4975E+00  0.4962E+00  0.2337E+02  0.2337E+02
     23.482  0.5604E+00  0.5599E+00  0.2349E+02  0.2349E+02
     23.706  0.4746E+00  0.4758E+00  0.2360E+02  0.2360E+02
     23.929  0.5360E+00  0.5243E+00  0.2372E+02  0.2372E+02
     24.153  0.3598E+00  0.3565E+00  0.2380E+02  0.2380E+02
     24.376  0.3784E+00  0.3052E+00  0.2389E+02  0.2387E+02
     24.600  0.2850E+00  0.1780E+00  0.2395E+02  0.2391E+02
     24.823  0.7778E-01  0.1285E+00  0.2397E+02  0.2394E+02
     25.047  0.8815E-01  0.1614E+00  0.2399E+02  0.2397E+02
     25.270  0.2830E-01  0.1051E-01  0.2400E+02  0.2398E+02
     25.494  0.1464E-01  0.4031E-01  0.2400E+02  0.2399E+02
     25.717  0.1148E-02  0.6115E-01  0.2400E+02  0.2400E+02
     25.941  0.0000E+00  0.2652E-02  0.2400E+02  0.2400E+02
     26.165  0.0000E+00  0.0000E+00  0.2400E+02  0.2400E+02
     26.388  0.0000E+00  0.0000E+00  0.2400E+02  0.2400E+02
     26.612  0.0000E+00  0.0000E+00  0.2400E+02  0.2400E+02
     26.835  0.0000E+00  0.0000E+00  0.2400E+02  0.2400E+02
     27.059  0.0000E+00  0.0000E+00  0.2400E+02  0.2400E+02
     27.282  0.0000E+00  0.0000E+00  0.2400E+02  0.2400E+02
     27.506  0.0000E+00  0.0000E+00  0.2400E+02  0.2400E+02
     27.729  0.0000E+00  0.0000E+00  0.2400E+02  0.2400E+02
     27.953  0.0000E+00  0.0000E+00  0.2400E+02  0.2400E+02
     28.176  0.0000E+00  0.0000E+00  0.2400E+02  0.2400E+02
     28.400  0.0000E+00  0.0000E+00  0.2400E+02  0.2400E+02
     28.623  0.0000E+00  0.0000E+00  0.2400E+02  0.2400E+02
     28.62347932    -38.43925779  301      8.01016913      1.00000000
    -38.439  0.0000E+00  0.0000E+00  0.0000E+00  0.0000E+00  0.0000E+00  0.0000E+00  0.0000E+00  0.0000E+00  0.0000E+00  0.0000E+00  0.0000E+00  0.0000E+00  0.0000E+00  0.0000E+00  0.0000E+00  0.0000E+00  0.0000E+00  0.0000E+00
    -38.216  0.0000E+00  0.0000E+00  0.0000E+00  0.0000E+00  0.0000E+00  0.0000E+00  0.0000E+00  0.0000E+00  0.0000E+00  0.0000E+00  0.0000E+00  0.0000E+00  0.0000E+00  0.0000E+00  0.0000E+00  0.0000E+00  0.0000E+00  0.0000E+00
    -37.992  0.0000E+00  0.0000E+00  0.0000E+00  0.0000E+00  0.0000E+00  0.0000E+00  0.0000E+00  0.0000E+00  0.0000E+00  0.0000E+00  0.0000E+00  0.0000E+00  0.0000E+00  0.0000E+00  0.0000E+00  0.0000E+00  0.0000E+00  0.0000E+00
    -37.769  0.0000E+00  0.0000E+00  0.0000E+00  0.0000E+00  0.0000E+00  0.0000E+00  0.0000E+00  0.0000E+00  0.0000E+00  0.0000E+00  0.0000E+00  0.0000E+00  0.0000E+00  0.0000E+00  0.0000E+00  0.0000E+00  0.0000E+00  0.0000E+00
    -37.545  0.0000E+00  0.0000E+00  0.0000E+00  0.0000E+00  0.0000E+00  0.0000E+00  0.0000E+00  0.0000E+00  0.0000E+00  0.0000E+00  0.0000E+00  0.0000E+00  0.0000E+00  0.0000E+00  0.0000E+00  0.0000E+00  0.0000E+00  0.0000E+00
    -37.322  0.0000E+00  0.0000E+00  0.0000E+00  0.0000E+00  0.0000E+00  0.0000E+00  0.0000E+00  0.0000E+00  0.0000E+00  0.0000E+00  0.0000E+00  0.0000E+00  0.0000E+00  0.0000E+00  0.0000E+00  0.0000E+00  0.0000E+00  0.0000E+00
    -37.098  0.0000E+00  0.0000E+00  0.0000E+00  0.0000E+00  0.0000E+00  0.0000E+00  0.0000E+00  0.0000E+00  0.0000E+00  0.0000E+00  0.0000E+00  0.0000E+00  0.0000E+00  0.0000E+00  0.0000E+00  0.0000E+00  0.0000E+00  0.0000E+00
    -36.874  0.0000E+00  0.0000E+00  0.0000E+00  0.0000E+00  0.0000E+00  0.0000E+00  0.0000E+00  0.0000E+00  0.0000E+00  0.0000E+00  0.0000E+00  0.0000E+00  0.0000E+00  0.0000E+00  0.0000E+00  0.0000E+00  0.0000E+00  0.0000E+00
    -36.651  0.0000E+00  0.0000E+00  0.0000E+00  0.0000E+00  0.0000E+00  0.0000E+00  0.0000E+00  0.0000E+00  0.0000E+00  0.0000E+00  0.0000E+00  0.0000E+00  0.0000E+00  0.0000E+00  0.0000E+00  0.0000E+00  0.0000E+00  0.0000E+00
    -36.427  0.0000E+00  0.0000E+00  0.0000E+00  0.0000E+00  0.0000E+00  0.0000E+00  0.0000E+00  0.0000E+00  0.0000E+00  0.0000E+00  0.0000E+00  0.0000E+00  0.0000E+00  0.0000E+00  0.0000E+00  0.0000E+00  0.0000E+00  0.0000E+00
    -36.204  0.0000E+00  0.0000E+00  0.0000E+00  0.0000E+00  0.0000E+00  0.0000E+00  0.0000E+00  0.0000E+00  0.0000E+00  0.0000E+00  0.0000E+00  0.0000E+00  0.0000E+00  0.0000E+00  0.0000E+00  0.0000E+00  0.0000E+00  0.0000E+00
    -35.980  0.2303E-10  0.2241E-10  0.5720E-06  0.5568E-06  0.5720E-06  0.5568E-06  0.5720E-06  0.5568E-06  0.1340E-10  0.1305E-10  0.1340E-10  0.1305E-10  0.5704E-11  0.5547E-11  0.1340E-10  0.1305E-10  0.5704E-11  0.5547E-11
    -35.757  0.2433E-07  0.2370E-07  0.2087E-03  0.2030E-03  0.2087E-03  0.2030E-03  0.2087E-03  0.2030E-03  0.1129E-07  0.1096E-07  0.1129E-07  0.1096E-07  0.4534E-08  0.4414E-08  0.1129E-07  0.1096E-07  0.4534E-08  0.4414E-08
    -35.533  0.2093E-05  0.2039E-05  0.1792E-01  0.1745E-01  0.1792E-01  0.1745E-01  0.1792E-01  0.1745E-01  0.9852E-06  0.9598E-06  0.9852E-06  0.9598E-06  0.3867E-06  0.3767E-06  0.9852E-06  0.9598E-06  0.3867E-06  0.3767E-06
    -35.310  0.9624E-04  0.9480E-04  0.6814E+00  0.6721E+00  0.6814E+00  0.6721E+00  0.6814E+00  0.6721E+00  0.4457E-04  0.4388E-04  0.4457E-04  0.4388E-04  0.1527E-04  0.1508E-04  0.4457E-04  0.4388E-04  0.1527E-04  0.1508E-04
    -35.086  0.2786E-03  0.2791E-03  0.2030E+01  0.2025E+01  0.2030E+01  0.2025E+01  0.2030E+01  0.2025E+01  0.2139E-03  0.2132E-03  0.2139E-03  0.2132E-03  0.2616E-04  0.2632E-04  0.2139E-03  0.2132E-03  0.2616E-04  0.2632E-04
    -34.863  0.1088E-03  0.1101E-03  0.1600E+01  0.1612E+01  0.1600E+01  0.1612E+01  0.1600E+01  0.1612E+01  0.1299E-03  0.1314E-03  0.1299E-03  0.1314E-03  0.5072E-05  0.5151E-05  0.1299E-03  0.1314E-03  0.5072E-05  0.5151E-05
    -34.639  0.3166E-05  0.3252E-05  0.8094E-01  0.8305E-01  0.8094E-01  0.8305E-01  0.8094E-01  0.8305E-01  0.3423E-05  0.3515E-05  0.3423E-05  0.3515E-05  0.1062E-06  0.1092E-06  0.3423E-05  0.3515E-05  0.1062E-06  0.1092E-06
    -34.415  0.0000E+00  0.0000E+00  0.0000E+00  0.0000E+00  0.0000E+00  0.0000E+00  0.0000E+00  0.0000E+00  0.0000E+00  0.0000E+00  0.0000E+00  0.0000E+00  0.0000E+00  0.0000E+00  0.0000E+00  0.0000E+00  0.0000E+00  0.0000E+00
    -34.192  0.0000E+00  0.0000E+00  0.0000E+00  0.0000E+00  0.0000E+00  0.0000E+00  0.0000E+00  0.0000E+00  0.0000E+00  0.0000E+00  0.0000E+00  0.0000E+00  0.0000E+00  0.0000E+00  0.0000E+00  0.0000E+00  0.0000E+00  0.0000E+00
    -33.968  0.0000E+00  0.0000E+00  0.0000E+00  0.0000E+00  0.0000E+00  0.0000E+00  0.0000E+00  0.0000E+00  0.0000E+00  0.0000E+00  0.0000E+00  0.0000E+00  0.0000E+00  0.0000E+00  0.0000E+00  0.0000E+00  0.0000E+00  0.0000E+00
    -33.745  0.0000E+00  0.0000E+00  0.0000E+00  0.0000E+00  0.0000E+00  0.0000E+00  0.0000E+00  0.0000E+00  0.0000E+00  0.0000E+00  0.0000E+00  0.0000E+00  0.0000E+00  0.0000E+00  0.0000E+00  0.0000E+00  0.0000E+00  0.0000E+00
    -33.521  0.0000E+00  0.0000E+00  0.0000E+00  0.0000E+00  0.0000E+00  0.0000E+00  0.0000E+00  0.0000E+00  0.0000E+00  0.0000E+00  0.0000E+00  0.0000E+00  0.0000E+00  0.0000E+00  0.0000E+00  0.0000E+00  0.0000E+00  0.0000E+00
    -33.298  0.0000E+00  0.0000E+00  0.0000E+00  0.0000E+00  0.0000E+00  0.0000E+00  0.0000E+00  0.0000E+00  0.0000E+00  0.0000E+00  0.0000E+00  0.0000E+00  0.0000E+00  0.0000E+00  0.0000E+00  0.0000E+00  0.0000E+00  0.0000E+00
    -33.074  0.0000E+00  0.0000E+00  0.0000E+00  0.0000E+00  0.0000E+00  0.0000E+00  0.0000E+00  0.0000E+00  0.0000E+00  0.0000E+00  0.0000E+00  0.0000E+00  0.0000E+00  0.0000E+00  0.0000E+00  0.0000E+00  0.0000E+00  0.0000E+00
    -32.851  0.0000E+00  0.0000E+00  0.0000E+00  0.0000E+00  0.0000E+00  0.0000E+00  0.0000E+00  0.0000E+00  0.0000E+00  0.0000E+00  0.0000E+00  0.0000E+00  0.0000E+00  0.0000E+00  0.0000E+00  0.0000E+00  0.0000E+00  0.0000E+00
    -32.627  0.0000E+00  0.0000E+00  0.0000E+00  0.0000E+00  0.0000E+00  0.0000E+00  0.0000E+00  0.0000E+00  0.0000E+00  0.0000E+00  0.0000E+00  0.0000E+00  0.0000E+00  0.0000E+00  0.0000E+00  0.0000E+00  0.0000E+00  0.0000E+00
    -32.404  0.0000E+00  0.0000E+00  0.0000E+00  0.0000E+00  0.0000E+00  0.0000E+00  0.0000E+00  0.0000E+00  0.0000E+00  0.0000E+00  0.0000E+00  0.0000E+00  0.0000E+00  0.0000E+00  0.0000E+00  0.0000E+00  0.0000E+00  0.0000E+00
    -32.180  0.0000E+00  0.0000E+00  0.0000E+00  0.0000E+00  0.0000E+00  0.0000E+00  0.0000E+00  0.0000E+00  0.0000E+00  0.0000E+00  0.0000E+00  0.0000E+00  0.0000E+00  0.0000E+00  0.0000E+00  0.0000E+00  0.0000E+00  0.0000E+00
    -31.957  0.0000E+00  0.0000E+00  0.0000E+00  0.0000E+00  0.0000E+00  0.0000E+00  0.0000E+00  0.0000E+00  0.0000E+00  0.0000E+00  0.0000E+00  0.0000E+00  0.0000E+00  0.0000E+00  0.0000E+00  0.0000E+00  0.0000E+00  0.0000E+00
    -31.733  0.0000E+00  0.0000E+00  0.0000E+00  0.0000E+00  0.0000E+00  0.0000E+00  0.0000E+00  0.0000E+00  0.0000E+00  0.0000E+00  0.0000E+00  0.0000E+00  0.0000E+00  0.0000E+00  0.0000E+00  0.0000E+00  0.0000E+00  0.0000E+00
    -31.509  0.0000E+00  0.0000E+00  0.0000E+00  0.0000E+00  0.0000E+00  0.0000E+00  0.0000E+00  0.0000E+00  0.0000E+00  0.0000E+00  0.0000E+00  0.0000E+00  0.0000E+00  0.0000E+00  0.0000E+00  0.0000E+00  0.0000E+00  0.0000E+00
    -31.286  0.0000E+00  0.0000E+00  0.0000E+00  0.0000E+00  0.0000E+00  0.0000E+00  0.0000E+00  0.0000E+00  0.0000E+00  0.0000E+00  0.0000E+00  0.0000E+00  0.0000E+00  0.0000E+00  0.0000E+00  0.0000E+00  0.0000E+00  0.0000E+00
    -31.062  0.0000E+00  0.0000E+00  0.0000E+00  0.0000E+00  0.0000E+00  0.0000E+00  0.0000E+00  0.0000E+00  0.0000E+00  0.0000E+00  0.0000E+00  0.0000E+00  0.0000E+00  0.0000E+00  0.0000E+00  0.0000E+00  0.0000E+00  0.0000E+00
    -30.839  0.0000E+00  0.0000E+00  0.0000E+00  0.0000E+00  0.0000E+00  0.0000E+00  0.0000E+00  0.0000E+00  0.0000E+00  0.0000E+00  0.0000E+00  0.0000E+00  0.0000E+00  0.0000E+00  0.0000E+00  0.0000E+00  0.0000E+00  0.0000E+00
    -30.615  0.0000E+00  0.0000E+00  0.0000E+00  0.0000E+00  0.0000E+00  0.0000E+00  0.0000E+00  0.0000E+00  0.0000E+00  0.0000E+00  0.0000E+00  0.0000E+00  0.0000E+00  0.0000E+00  0.0000E+00  0.0000E+00  0.0000E+00  0.0000E+00
    -30.392  0.0000E+00  0.0000E+00  0.0000E+00  0.0000E+00  0.0000E+00  0.0000E+00  0.0000E+00  0.0000E+00  0.0000E+00  0.0000E+00  0.0000E+00  0.0000E+00  0.0000E+00  0.0000E+00  0.0000E+00  0.0000E+00  0.0000E+00  0.0000E+00
    -30.168  0.0000E+00  0.0000E+00  0.0000E+00  0.0000E+00  0.0000E+00  0.0000E+00  0.0000E+00  0.0000E+00  0.0000E+00  0.0000E+00  0.0000E+00  0.0000E+00  0.0000E+00  0.0000E+00  0.0000E+00  0.0000E+00  0.0000E+00  0.0000E+00
    -29.945  0.0000E+00  0.0000E+00  0.0000E+00  0.0000E+00  0.0000E+00  0.0000E+00  0.0000E+00  0.0000E+00  0.0000E+00  0.0000E+00  0.0000E+00  0.0000E+00  0.0000E+00  0.0000E+00  0.0000E+00  0.0000E+00  0.0000E+00  0.0000E+00
    -29.721  0.0000E+00  0.0000E+00  0.0000E+00  0.0000E+00  0.0000E+00  0.0000E+00  0.0000E+00  0.0000E+00  0.0000E+00  0.0000E+00  0.0000E+00  0.0000E+00  0.0000E+00  0.0000E+00  0.0000E+00  0.0000E+00  0.0000E+00  0.0000E+00
    -29.498  0.0000E+00  0.0000E+00  0.0000E+00  0.0000E+00  0.0000E+00  0.0000E+00  0.0000E+00  0.0000E+00  0.0000E+00  0.0000E+00  0.0000E+00  0.0000E+00  0.0000E+00  0.0000E+00  0.0000E+00  0.0000E+00  0.0000E+00  0.0000E+00
    -29.274  0.0000E+00  0.0000E+00  0.0000E+00  0.0000E+00  0.0000E+00  0.0000E+00  0.0000E+00  0.0000E+00  0.0000E+00  0.0000E+00  0.0000E+00  0.0000E+00  0.0000E+00  0.0000E+00  0.0000E+00  0.0000E+00  0.0000E+00  0.0000E+00
    -29.050  0.0000E+00  0.0000E+00  0.0000E+00  0.0000E+00  0.0000E+00  0.0000E+00  0.0000E+00  0.0000E+00  0.0000E+00  0.0000E+00  0.0000E+00  0.0000E+00  0.0000E+00  0.0000E+00  0.0000E+00  0.0000E+00  0.0000E+00  0.0000E+00
    -28.827  0.0000E+00  0.0000E+00  0.0000E+00  0.0000E+00  0.0000E+00  0.0000E+00  0.0000E+00  0.0000E+00  0.0000E+00  0.0000E+00  0.0000E+00  0.0000E+00  0.0000E+00  0.0000E+00  0.0000E+00  0.0000E+00  0.0000E+00  0.0000E+00
    -28.603  0.0000E+00  0.0000E+00  0.0000E+00  0.0000E+00  0.0000E+00  0.0000E+00  0.0000E+00  0.0000E+00  0.0000E+00  0.0000E+00  0.0000E+00  0.0000E+00  0.0000E+00  0.0000E+00  0.0000E+00  0.0000E+00  0.0000E+00  0.0000E+00
    -28.380  0.0000E+00  0.0000E+00  0.0000E+00  0.0000E+00  0.0000E+00  0.0000E+00  0.0000E+00  0.0000E+00  0.0000E+00  0.0000E+00  0.0000E+00  0.0000E+00  0.0000E+00  0.0000E+00  0.0000E+00  0.0000E+00  0.0000E+00  0.0000E+00
    -28.156  0.0000E+00  0.0000E+00  0.0000E+00  0.0000E+00  0.0000E+00  0.0000E+00  0.0000E+00  0.0000E+00  0.0000E+00  0.0000E+00  0.0000E+00  0.0000E+00  0.0000E+00  0.0000E+00  0.0000E+00  0.0000E+00  0.0000E+00  0.0000E+00
    -27.933  0.0000E+00  0.0000E+00  0.0000E+00  0.0000E+00  0.0000E+00  0.0000E+00  0.0000E+00  0.0000E+00  0.0000E+00  0.0000E+00  0.0000E+00  0.0000E+00  0.0000E+00  0.0000E+00  0.0000E+00  0.0000E+00  0.0000E+00  0.0000E+00
    -27.709  0.0000E+00  0.0000E+00  0.0000E+00  0.0000E+00  0.0000E+00  0.0000E+00  0.0000E+00  0.0000E+00  0.0000E+00  0.0000E+00  0.0000E+00  0.0000E+00  0.0000E+00  0.0000E+00  0.0000E+00  0.0000E+00  0.0000E+00  0.0000E+00
    -27.486  0.0000E+00  0.0000E+00  0.0000E+00  0.0000E+00  0.0000E+00  0.0000E+00  0.0000E+00  0.0000E+00  0.0000E+00  0.0000E+00  0.0000E+00  0.0000E+00  0.0000E+00  0.0000E+00  0.0000E+00  0.0000E+00  0.0000E+00  0.0000E+00
    -27.262  0.0000E+00  0.0000E+00  0.0000E+00  0.0000E+00  0.0000E+00  0.0000E+00  0.0000E+00  0.0000E+00  0.0000E+00  0.0000E+00  0.0000E+00  0.0000E+00  0.0000E+00  0.0000E+00  0.0000E+00  0.0000E+00  0.0000E+00  0.0000E+00