   2   2   1   0
  0.1052179E+02  0.2760831E-09  0.2760831E-09  0.2760831E-09  0.5000000E-15
  1.000000000000000E-004
  CAR 
 unknown system                          
     36.65851309    -34.69532419  301     12.36802297      1.00000000
    -34.695  0.0000E+00  0.0000E+00  0.0000E+00  0.0000E+00
    -34.457  0.0000E+00  0.0000E+00  0.0000E+00  0.0000E+00
    -34.220  0.0000E+00  0.0000E+00  0.0000E+00  0.0000E+00
    -33.982  0.0000E+00  0.0000E+00  0.0000E+00  0.0000E+00
    -33.744  0.0000E+00  0.0000E+00  0.0000E+00  0.0000E+00
    -33.506  0.0000E+00  0.0000E+00  0.0000E+00  0.0000E+00
    -33.268  0.0000E+00  0.0000E+00  0.0000E+00  0.0000E+00
    -33.030  0.0000E+00  0.0000E+00  0.0000E+00  0.0000E+00
    -32.793  0.0000E+00  0.0000E+00  0.0000E+00  0.0000E+00
    -32.555  0.0000E+00  0.0000E+00  0.0000E+00  0.0000E+00
    -32.317  0.0000E+00  0.0000E+00  0.0000E+00  0.0000E+00
    -32.079  0.7977E-07  0.8214E-07  0.1897E-07  0.1954E-07
    -31.841  0.1407E-03  0.1454E-03  0.3347E-04  0.3460E-04
    -31.603  0.1646E-01  0.1694E-01  0.3948E-02  0.4064E-02
    -31.365  0.8765E+00  0.8916E+00  0.2124E+00  0.2161E+00
    -31.128  0.4277E+01  0.4289E+01  0.1230E+01  0.1236E+01
    -30.890  0.3686E+01  0.3682E+01  0.2112E+01  0.2118E+01
    -30.652  0.4664E+01  0.4677E+01  0.3230E+01  0.3238E+01
    -30.414  0.5840E+01  0.5848E+01  0.4626E+01  0.4637E+01
    -30.176  0.5293E+01  0.5263E+01  0.5898E+01  0.5900E+01
    -29.938  0.3523E+00  0.3415E+00  0.5999E+01  0.5999E+01
    -29.701  0.0000E+00  0.0000E+00  0.6000E+01  0.6000E+01
    -29.463  0.0000E+00  0.0000E+00  0.6000E+01  0.6000E+01
    -29.225  0.0000E+00  0.0000E+00  0.6000E+01  0.6000E+01
    -28.987  0.0000E+00  0.0000E+00  0.6000E+01  0.6000E+01
    -28.749  0.0000E+00  0.0000E+00  0.6000E+01  0.6000E+01
    -28.511  0.0000E+00  0.0000E+00  0.6000E+01  0.6000E+01
    -28.273  0.0000E+00  0.0000E+00  0.6000E+01  0.6000E+01
    -28.036  0.0000E+00  0.0000E+00  0.6000E+01  0.6000E+01
    -27.798  0.0000E+00  0.0000E+00  0.6000E+01  0.6000E+01
    -27.560  0.0000E+00  0.0000E+00  0.6000E+01  0.6000E+01
    -27.322  0.0000E+00  0.0000E+00  0.6000E+01  0.6000E+01
    -27.084  0.0000E+00  0.0000E+00  0.6000E+01  0.6000E+01
    -26.846  0.0000E+00  0.0000E+00  0.6000E+01  0.6000E+01
    -26.609  0.0000E+00  0.0000E+00  0.6000E+01  0.6000E+01
    -26.371  0.0000E+00  0.0000E+00  0.6000E+01  0.6000E+01
    -26.133  0.0000E+00  0.0000E+00  0.6000E+01  0.6000E+01
    -25.895  0.0000E+00  0.0000E+00  0.6000E+01  0.6000E+01
    -25.657  0.0000E+00  0.0000E+00  0.6000E+01  0.6000E+01
    -25.419  0.0000E+00  0.0000E+00  0.6000E+01  0.6000E+01
    -25.181  0.0000E+00  0.0000E+00  0.6000E+01  0.6000E+01
    -24.944  0.0000E+00  0.0000E+00  0.6000E+01  0.6000E+01
    -24.706  0.0000E+00  0.0000E+00  0.6000E+01  0.6000E+01
    -24.468  0.0000E+00  0.0000E+00  0.6000E+01  0.6000E+01
    -24.230  0.0000E+00  0.0000E+00  0.6000E+01  0.6000E+01
    -23.992  0.0000E+00  0.0000E+00  0.6000E+01  0.6000E+01
    -23.754  0.0000E+00  0.0000E+00  0.6000E+01  0.6000E+01
    -23.517  0.0000E+00  0.0000E+00  0.6000E+01  0.6000E+01
    -23.279  0.0000E+00  0.0000E+00  0.6000E+01  0.6000E+01
    -23.041  0.0000E+00  0.0000E+00  0.6000E+01  0.6000E+01
    -22.803  0.0000E+00  0.0000E+00  0.6000E+01  0.6000E+01
    -22.565  0.0000E+00  0.0000E+00  0.6000E+01  0.6000E+01
    -22.327  0.0000E+00  0.0000E+00  0.6000E+01  0.6000E+01
    -22.089  0.0000E+00  0.0000E+00  0.6000E+01  0.6000E+01
    -21.852  0.0000E+00  0.0000E+00  0.6000E+01  0.6000E+01
    -21.614  0.0000E+00  0.0000E+00  0.6000E+01  0.6000E+01
    -21.376  0.0000E+00  0.0000E+00  0.6000E+01  0.6000E+01
    -21.138  0.0000E+00  0.0000E+00  0.6000E+01  0.6000E+01
    -20.900  0.0000E+00  0.0000E+00  0.6000E+01  0.6000E+01
    -20.662  0.0000E+00  0.0000E+00  0.6000E+01  0.6000E+01
    -20.425  0.0000E+00  0.0000E+00  0.6000E+01  0.6000E+01
    -20.187  0.0000E+00  0.0000E+00  0.6000E+01  0.6000E+01
    -19.949  0.0000E+00  0.0000E+00  0.6000E+01  0.6000E+01
    -19.711  0.0000E+00  0.0000E+00  0.6000E+01  0.6000E+01
    -19.473  0.0000E+00  0.0000E+00  0.6000E+01  0.6000E+01
    -19.235  0.0000E+00  0.0000E+00  0.6000E+01  0.6000E+01
    -18.997  0.0000E+00  0.0000E+00  0.6000E+01  0.6000E+01
    -18.760  0.0000E+00  0.0000E+00  0.6000E+01  0.6000E+01
    -18.522  0.0000E+00  0.0000E+00  0.6000E+01  0.6000E+01
    -18.284  0.0000E+00  0.0000E+00  0.6000E+01  0.6000E+01
    -18.046  0.0000E+00  0.0000E+00  0.6000E+01  0.6000E+01
    -17.808  0.0000E+00  0.0000E+00  0.6000E+01  0.6000E+01
    -17.570  0.0000E+00  0.0000E+00  0.6000E+01  0.6000E+01
    -17.333  0.0000E+00  0.0000E+00  0.6000E+01  0.6000E+01
    -17.095  0.0000E+00  0.0000E+00  0.6000E+01  0.6000E+01
    -16.857  0.0000E+00  0.0000E+00  0.6000E+01  0.6000E+01
    -16.619  0.0000E+00  0.0000E+00  0.6000E+01  0.6000E+01
    -16.381  0.0000E+00  0.0000E+00  0.6000E+01  0.6000E+01
    -16.143  0.0000E+00  0.0000E+00  0.6000E+01  0.6000E+01
    -15.905  0.0000E+00  0.0000E+00  0.6000E+01  0.6000E+01
    -15.668  0.0000E+00  0.0000E+00  0.6000E+01  0.6000E+01
    -15.430  0.0000E+00  0.0000E+00  0.6000E+01  0.6000E+01
    -15.192  0.0000E+00  0.0000E+00  0.6000E+01  0.6000E+01
    -14.954  0.0000E+00  0.0000E+00  0.6000E+01  0.6000E+01
    -14.716  0.0000E+00  0.0000E+00  0.6000E+01  0.6000E+01
    -14.478  0.0000E+00  0.0000E+00  0.6000E+01  0.6000E+01
    -14.241  0.0000E+00  0.0000E+00  0.6000E+01  0.6000E+01
    -14.003  0.0000E+00  0.0000E+00  0.6000E+01  0.6000E+01
    -13.765  0.0000E+00  0.0000E+00  0.6000E+01  0.6000E+01
    -13.527  0.0000E+00  0.0000E+00  0.6000E+01  0.6000E+01
    -13.289  0.0000E+00  0.0000E+00  0.6000E+01  0.6000E+01
    -13.051  0.0000E+00  0.0000E+00  0.6000E+01  0.6000E+01
    -12.813  0.0000E+00  0.0000E+00  0.6000E+01  0.6000E+01
    -12.576  0.0000E+00  0.0000E+00  0.6000E+01  0.6000E+01
    -12.338  0.0000E+00  0.0000E+00  0.6000E+01  0.6000E+01
    -12.100  0.0000E+00  0.0000E+00  0.6000E+01  0.6000E+01
    -11.862  0.0000E+00  0.0000E+00  0.6000E+01  0.6000E+01
    -11.624  0.0000E+00  0.0000E+00  0.6000E+01  0.6000E+01
    -11.386  0.0000E+00  0.0000E+00  0.6000E+01  0.6000E+01
    -11.149  0.0000E+00  0.0000E+00  0.6000E+01  0.6000E+01
    -10.911  0.0000E+00  0.0000E+00  0.6000E+01  0.6000E+01
    -10.673  0.0000E+00  0.0000E+00  0.6000E+01  0.6000E+01
    -10.435  0.0000E+00  0.0000E+00  0.6000E+01  0.6000E+01
    -10.197  0.0000E+00  0.0000E+00  0.6000E+01  0.6000E+01
     -9.959  0.0000E+00  0.0000E+00  0.6000E+01  0.6000E+01
     -9.721  0.0000E+00  0.0000E+00  0.6000E+01  0.6000E+01
     -9.484  0.0000E+00  0.0000E+00  0.6000E+01  0.6000E+01
     -9.246  0.0000E+00  0.0000E+00  0.6000E+01  0.6000E+01
     -9.008  0.0000E+00  0.0000E+00  0.6000E+01  0.6000E+01
     -8.770  0.0000E+00  0.0000E+00  0.6000E+01  0.6000E+01
     -8.532  0.0000E+00  0.0000E+00  0.6000E+01  0.6000E+01
     -8.294  0.0000E+00  0.0000E+00  0.6000E+01  0.6000E+01
     -8.057  0.0000E+00  0.0000E+00  0.6000E+01  0.6000E+01
     -7.819  0.0000E+00  0.0000E+00  0.6000E+01  0.6000E+01
     -7.581  0.0000E+00  0.0000E+00  0.6000E+01  0.6000E+01
     -7.343  0.0000E+00  0.0000E+00  0.6000E+01  0.6000E+01
     -7.105  0.0000E+00  0.0000E+00  0.6000E+01  0.6000E+01
     -6.867  0.0000E+00  0.0000E+00  0.6000E+01  0.6000E+01
     -6.629  0.0000E+00  0.0000E+00  0.6000E+01  0.6000E+01
     -6.392  0.0000E+00  0.0000E+00  0.6000E+01  0.6000E+01
     -6.154  0.0000E+00  0.0000E+00  0.6000E+01  0.6000E+01
     -5.916  0.0000E+00  0.0000E+00  0.6000E+01  0.6000E+01
     -5.678  0.0000E+00  0.0000E+00  0.6000E+01  0.6000E+01
     -5.440  0.0000E+00  0.0000E+00  0.6000E+01  0.6000E+01
     -5.202  0.0000E+00  0.0000E+00  0.6000E+01  0.6000E+01
     -4.965  0.0000E+00  0.0000E+00  0.6000E+01  0.6000E+01
     -4.727  0.0000E+00  0.0000E+00  0.6000E+01  0.6000E+01
     -4.489  0.0000E+00  0.0000E+00  0.6000E+01  0.6000E+01
     -4.251  0.0000E+00  0.0000E+00  0.6000E+01  0.6000E+01
     -4.013  0.0000E+00  0.0000E+00  0.6000E+01  0.6000E+01
     -3.775  0.0000E+00  0.0000E+00  0.6000E+01  0.6000E+01
     -3.537  0.0000E+00  0.0000E+00  0.6000E+01  0.6000E+01
     -3.300  0.0000E+00  0.0000E+00  0.6000E+01  0.6000E+01
     -3.062  0.0000E+00  0.0000E+00  0.6000E+01  0.6000E+01
     -2.824  0.0000E+00  0.0000E+00  0.6000E+01  0.6000E+01
     -2.586  0.0000E+00  0.0000E+00  0.6000E+01  0.6000E+01
     -2.348  0.0000E+00  0.0000E+00  0.6000E+01  0.6000E+01
     -2.110  0.0000E+00  0.0000E+00  0.6000E+01  0.6000E+01
     -1.873  0.0000E+00  0.0000E+00  0.6000E+01  0.6000E+01
     -1.635  0.0000E+00  0.0000E+00  0.6000E+01  0.6000E+01
     -1.397  0.0000E+00  0.0000E+00  0.6000E+01  0.6000E+01
     -1.159  0.0000E+00  0.0000E+00  0.6000E+01  0.6000E+01
     -0.921  0.0000E+00  0.0000E+00  0.6000E+01  0.6000E+01
     -0.683  0.0000E+00  0.0000E+00  0.6000E+01  0.6000E+01
     -0.445  0.0000E+00  0.0000E+00  0.6000E+01  0.6000E+01
     -0.208  0.0000E+00  0.0000E+00  0.6000E+01  0.6000E+01
      0.030  0.0000E+00  0.0000E+00  0.6000E+01  0.6000E+01
      0.268  0.0000E+00  0.0000E+00  0.6000E+01  0.6000E+01
      0.506  0.0000E+00  0.0000E+00  0.6000E+01  0.6000E+01
      0.744  0.0000E+00  0.0000E+00  0.6000E+01  0.6000E+01
      0.982  0.0000E+00  0.0000E+00  0.6000E+01  0.6000E+01
      1.219  0.0000E+00  0.0000E+00  0.6000E+01  0.6000E+01
      1.457  0.0000E+00  0.0000E+00  0.6000E+01  0.6000E+01
      1.695  0.0000E+00  0.0000E+00  0.6000E+01  0.6000E+01
      1.933  0.0000E+00  0.0000E+00  0.6000E+01  0.6000E+01
      2.171  0.0000E+00  0.0000E+00  0.6000E+01  0.6000E+01
      2.409  0.0000E+00  0.0000E+00  0.6000E+01  0.6000E+01
      2.647  0.0000E+00  0.0000E+00  0.6000E+01  0.6000E+01
      2.884  0.0000E+00  0.0000E+00  0.6000E+01  0.6000E+01
      3.122  0.0000E+00  0.0000E+00  0.6000E+01  0.6000E+01
      3.360  0.0000E+00  0.0000E+00  0.6000E+01  0.6000E+01
      3.598  0.1451E-07  0.1498E-07  0.6000E+01  0.6000E+01
      3.836  0.2336E-05  0.2411E-05  0.6000E+01  0.6000E+01
      4.074  0.2531E-03  0.2606E-03  0.6000E+01  0.6000E+01
      4.311  0.7211E-02  0.7325E-02  0.6002E+01  0.6002E+01
      4.549  0.2889E-01  0.2897E-01  0.6009E+01  0.6009E+01
      4.787  0.3001E-01  0.3010E-01  0.6016E+01  0.6016E+01
      5.025  0.6721E-01  0.6736E-01  0.6032E+01  0.6032E+01
      5.263  0.3730E-01  0.3721E-01  0.6041E+01  0.6041E+01
      5.501  0.8147E-01  0.8177E-01  0.6060E+01  0.6060E+01
      5.739  0.8058E-01  0.8040E-01  0.6079E+01  0.6080E+01
      5.976  0.1002E+00  0.1006E+00  0.6103E+01  0.6104E+01
      6.214  0.6410E-01  0.6379E-01  0.6119E+01  0.6119E+01
      6.452  0.1549E+00  0.1554E+00  0.6156E+01  0.6156E+01
      6.690  0.1392E+00  0.1392E+00  0.6189E+01  0.6189E+01
      6.928  0.1307E+00  0.1308E+00  0.6220E+01  0.6220E+01
      7.166  0.1789E+00  0.1789E+00  0.6263E+01  0.6263E+01
      7.403  0.3109E+00  0.3130E+00  0.6337E+01  0.6338E+01
      7.641  0.6787E+00  0.6800E+00  0.6499E+01  0.6500E+01
      7.879  0.8003E+00  0.8018E+00  0.6690E+01  0.6691E+01
      8.117  0.1148E+01  0.1147E+01  0.6964E+01  0.6965E+01
      8.355  0.1091E+01  0.1092E+01  0.7226E+01  0.7227E+01
      8.593  0.1545E+01  0.1548E+01  0.7594E+01  0.7597E+01
      8.831  0.1072E+01  0.1066E+01  0.7851E+01  0.7852E+01
      9.068  0.9879E+00  0.9861E+00  0.8088E+01  0.8089E+01
      9.306  0.5477E+00  0.5467E+00  0.8220E+01  0.8220E+01
      9.544  0.1050E+01  0.1057E+01  0.8470E+01  0.8473E+01
      9.782  0.2017E+01  0.2019E+01  0.8951E+01  0.8953E+01
     10.020  0.1774E+01  0.1772E+01  0.9376E+01  0.9378E+01
     10.258  0.1307E+01  0.1307E+01  0.9692E+01  0.9694E+01
     10.495  0.1382E+01  0.1383E+01  0.1002E+02  0.1003E+02
     10.733  0.1724E+01  0.1724E+01  0.1044E+02  0.1044E+02
     10.971  0.1874E+01  0.1872E+01  0.1089E+02  0.1089E+02
     11.209  0.1557E+01  0.1555E+01  0.1126E+02  0.1126E+02
     11.447  0.9143E+00  0.9113E+00  0.1148E+02  0.1148E+02
     11.685  0.6240E+00  0.6232E+00  0.1163E+02  0.1163E+02
     11.923  0.4375E+00  0.4348E+00  0.1173E+02  0.1173E+02
     12.160  0.5165E+00  0.5172E+00  0.1186E+02  0.1186E+02
     12.398  0.6725E+00  0.6728E+00  0.1202E+02  0.1202E+02
     12.636  0.7352E+00  0.7361E+00  0.1219E+02  0.1220E+02
     12.874  0.1106E+01  0.1108E+01  0.1246E+02  0.1246E+02
     13.112  0.1450E+01  0.1452E+01  0.1281E+02  0.1281E+02
     13.350  0.1788E+01  0.1787E+01  0.1323E+02  0.1323E+02
     13.587  0.1966E+01  0.1967E+01  0.1370E+02  0.1371E+02
     13.825  0.2360E+01  0.2361E+01  0.1427E+02  0.1427E+02
     14.063  0.2689E+01  0.2692E+01  0.1491E+02  0.1491E+02
     14.301  0.2219E+01  0.2216E+01  0.1544E+02  0.1545E+02
     14.539  0.1446E+01  0.1442E+01  0.1579E+02  0.1579E+02
     14.777  0.1000E+01  0.1000E+01  0.1603E+02  0.1603E+02
     15.015  0.1091E+01  0.1092E+01  0.1630E+02  0.1630E+02
     15.252  0.8948E+00  0.8923E+00  0.1651E+02  0.1651E+02
     15.490  0.4242E+00  0.4234E+00  0.1661E+02  0.1661E+02
     15.728  0.3652E+00  0.3647E+00  0.1670E+02  0.1670E+02
     15.966  0.3765E+00  0.3763E+00  0.1679E+02  0.1679E+02
     16.204  0.2222E+00  0.2218E+00  0.1684E+02  0.1684E+02
     16.442  0.3540E+00  0.3559E+00  0.1693E+02  0.1693E+02
     16.679  0.2753E+00  0.2729E+00  0.1699E+02  0.1699E+02
     16.917  0.1393E+00  0.1399E+00  0.1703E+02  0.1703E+02
     17.155  0.2330E+00  0.2339E+00  0.1708E+02  0.1708E+02
     17.393  0.3944E+00  0.3951E+00  0.1718E+02  0.1718E+02
     17.631  0.2739E+00  0.2727E+00  0.1724E+02  0.1724E+02
     17.869  0.2546E+00  0.2547E+00  0.1731E+02  0.1731E+02
     18.107  0.1276E+00  0.1272E+00  0.1734E+02  0.1734E+02
     18.344  0.1978E+00  0.1992E+00  0.1738E+02  0.1738E+02
     18.582  0.2590E+00  0.2585E+00  0.1745E+02  0.1745E+02
     18.820  0.2536E+00  0.2535E+00  0.1751E+02  0.1751E+02
     19.058  0.2529E+00  0.2533E+00  0.1757E+02  0.1757E+02
     19.296  0.2681E+00  0.2711E+00  0.1763E+02  0.1763E+02
     19.534  0.4734E+01  0.4813E+01  0.1876E+02  0.1878E+02
     19.771  0.3843E+01  0.3762E+01  0.1967E+02  0.1967E+02
     20.009  0.1946E+00  0.1956E+00  0.1973E+02  0.1973E+02
     20.247  0.1371E+00  0.1359E+00  0.1976E+02  0.1976E+02
     20.485  0.8966E-01  0.9004E-01  0.1979E+02  0.1979E+02
     20.723  0.1806E+00  0.1815E+00  0.1983E+02  0.1983E+02
     20.961  0.2202E+00  0.2193E+00  0.1988E+02  0.1988E+02
     21.199  0.4272E-01  0.4211E-01  0.1989E+02  0.1989E+02
     21.436  0.8183E-01  0.8264E-01  0.1991E+02  0.1991E+02
     21.674  0.5506E-01  0.5427E-01  0.1993E+02  0.1993E+02
     21.912  0.3762E-01  0.3827E-01  0.1993E+02  0.1993E+02
     22.150  0.1239E+00  0.1239E+00  0.1996E+02  0.1996E+02
     22.388  0.8776E-01  0.8765E-01  0.1999E+02  0.1999E+02
     22.626  0.2449E-01  0.2405E-01  0.1999E+02  0.1999E+02
     22.863  0.2597E-01  0.2660E-01  0.2000E+02  0.2000E+02
     23.101  0.1245E+00  0.1247E+00  0.2003E+02  0.2003E+02
     23.339  0.3181E+00  0.3211E+00  0.2010E+02  0.2010E+02
     23.577  0.5688E+00  0.5683E+00  0.2024E+02  0.2024E+02
     23.815  0.8369E+00  0.8380E+00  0.2044E+02  0.2044E+02
     24.053  0.4032E+00  0.4005E+00  0.2054E+02  0.2054E+02
     24.291  0.2100E+00  0.2100E+00  0.2059E+02  0.2059E+02
     24.528  0.3608E+00  0.3636E+00  0.2067E+02  0.2067E+02
     24.766  0.6090E+00  0.6078E+00  0.2082E+02  0.2082E+02
     25.004  0.3847E+00  0.3835E+00  0.2091E+02  0.2091E+02
     25.242  0.2673E+00  0.2680E+00  0.2097E+02  0.2097E+02
     25.480  0.4027E+00  0.4021E+00  0.2107E+02  0.2107E+02
     25.718  0.3698E+00  0.3724E+00  0.2116E+02  0.2116E+02
     25.955  0.6615E+00  0.6618E+00  0.2132E+02  0.2132E+02
     26.193  0.4610E+00  0.4585E+00  0.2143E+02  0.2143E+02
     26.431  0.2115E+00  0.2116E+00  0.2148E+02  0.2148E+02
     26.669  0.2796E+00  0.2796E+00  0.2155E+02  0.2155E+02
     26.907  0.3643E+00  0.3663E+00  0.2163E+02  0.2163E+02
     27.145  0.6389E+00  0.6404E+00  0.2179E+02  0.2179E+02
     27.383  0.4729E+00  0.4694E+00  0.2190E+02  0.2190E+02
     27.620  0.2421E+00  0.2426E+00  0.2196E+02  0.2196E+02
     27.858  0.2564E+00  0.2569E+00  0.2202E+02  0.2202E+02
     28.096  0.3534E+00  0.3539E+00  0.2210E+02  0.2210E+02
     28.334  0.4389E+00  0.4405E+00  0.2221E+02  0.2221E+02
     28.572  0.5256E+00  0.5242E+00  0.2233E+02  0.2233E+02
     28.810  0.3508E+00  0.3503E+00  0.2242E+02  0.2242E+02
     29.047  0.3315E+00  0.3315E+00  0.2250E+02  0.2250E+02
     29.285  0.2959E+00  0.2969E+00  0.2257E+02  0.2257E+02
     29.523  0.3636E+00  0.3623E+00  0.2266E+02  0.2266E+02
     29.761  0.3608E+00  0.3623E+00  0.2274E+02  0.2274E+02
     29.999  0.6585E+00  0.6573E+00  0.2290E+02  0.2290E+02
     30.237  0.3909E+00  0.3891E+00  0.2299E+02  0.2299E+02
     30.475  0.3349E+00  0.3333E+00  0.2307E+02  0.2307E+02
     30.712  0.2916E+00  0.2883E+00  0.2314E+02  0.2314E+02
     30.950  0.4003E+00  0.4048E+00  0.2324E+02  0.2324E+02
     31.188  0.4757E+00  0.4759E+00  0.2335E+02  0.2335E+02
     31.426  0.5286E+00  0.5173E+00  0.2348E+02  0.2348E+02
     31.664  0.5223E+00  0.5167E+00  0.2360E+02  0.2360E+02
     31.902  0.2883E+00  0.2984E+00  0.2367E+02  0.2367E+02
     32.139  0.3266E+00  0.3193E+00  0.2375E+02  0.2375E+02
     32.377  0.3794E+00  0.3775E+00  0.2384E+02  0.2384E+02
     32.615  0.2922E+00  0.2392E+00  0.2391E+02  0.2390E+02
     32.853  0.1567E+00  0.7934E-01  0.2395E+02  0.2392E+02
     33.091  0.9377E-01  0.1483E+00  0.2397E+02  0.2395E+02
     33.329  0.3994E-01  0.1261E+00  0.2398E+02  0.2398E+02
     33.567  0.6160E-01  0.6327E-01  0.2400E+02  0.2400E+02
     33.804  0.1052E-02  0.1015E-02  0.2400E+02  0.2400E+02
     34.042  0.0000E+00  0.0000E+00  0.2400E+02  0.2400E+02
     34.280  0.0000E+00  0.0000E+00  0.2400E+02  0.2400E+02
     34.518  0.0000E+00  0.0000E+00  0.2400E+02  0.2400E+02
     34.756  0.0000E+00  0.0000E+00  0.2400E+02  0.2400E+02
     34.994  0.0000E+00  0.0000E+00  0.2400E+02  0.2400E+02
     35.231  0.0000E+00  0.0000E+00  0.2400E+02  0.2400E+02
     35.469  0.0000E+00  0.0000E+00  0.2400E+02  0.2400E+02
     35.707  0.0000E+00  0.0000E+00  0.2400E+02  0.2400E+02
     35.945  0.0000E+00  0.0000E+00  0.2400E+02  0.2400E+02
     36.183  0.0000E+00  0.0000E+00  0.2400E+02  0.2400E+02
     36.421  0.0000E+00  0.0000E+00  0.2400E+02  0.2400E+02
     36.659  0.0000E+00  0.0000E+00  0.2400E+02  0.2400E+02
     36.65851309    -34.69532419  301     12.36802297      1.00000000
    -34.695  0.0000E+00  0.0000E+00  0.0000E+00  0.0000E+00  0.0000E+00  0.0000E+00  0.0000E+00  0.0000E+00  0.0000E+00  0.0000E+00  0.0000E+00  0.0000E+00  0.0000E+00  0.0000E+00  0.0000E+00  0.0000E+00  0.0000E+00  0.0000E+00
    -34.457  0.0000E+00  0.0000E+00  0.0000E+00  0.0000E+00  0.0000E+00  0.0000E+00  0.0000E+00  0.0000E+00  0.0000E+00  0.0000E+00  0.0000E+00  0.0000E+00  0.0000E+00  0.0000E+00  0.0000E+00  0.0000E+00  0.0000E+00  0.0000E+00
    -34.220  0.0000E+00  0.0000E+00  0.0000E+00  0.0000E+00  0.0000E+00  0.0000E+00  0.0000E+00  0.0000E+00  0.0000E+00  0.0000E+00  0.0000E+00  0.0000E+00  0.0000E+00  0.0000E+00  0.0000E+00  0.0000E+00  0.0000E+00  0.0000E+00
    -33.982  0.0000E+00  0.0000E+00  0.0000E+00  0.0000E+00  0.0000E+00  0.0000E+00  0.0000E+00  0.0000E+00  0.0000E+00  0.0000E+00  0.0000E+00  0.0000E+00  0.0000E+00  0.0000E+00  0.0000E+00  0.0000E+00  0.0000E+00  0.0000E+00
    -33.744  0.0000E+00  0.0000E+00  0.0000E+00  0.0000E+00  0.0000E+00  0.0000E+00  0.0000E+00  0.0000E+00  0.0000E+00  0.0000E+00  0.0000E+00  0.0000E+00  0.0000E+00  0.0000E+00  0.0000E+00  0.0000E+00  0.0000E+00  0.0000E+00
    -33.506  0.0000E+00  0.0000E+00  0.0000E+00  0.0000E+00  0.0000E+00  0.0000E+00  0.0000E+00  0.0000E+00  0.0000E+00  0.0000E+00  0.0000E+00  0.0000E+00  0.0000E+00  0.0000E+00  0.0000E+00  0.0000E+00  0.0000E+00  0.0000E+00
    -33.268  0.0000E+00  0.0000E+00  0.0000E+00  0.0000E+00  0.0000E+00  0.0000E+00  0.0000E+00  0.0000E+00  0.0000E+00  0.0000E+00  0.0000E+00  0.0000E+00  0.0000E+00  0.0000E+00  0.0000E+00  0.0000E+00  0.0000E+00  0.0000E+00
    -33.030  0.0000E+00  0.0000E+00  0.0000E+00  0.0000E+00  0.0000E+00  0.0000E+00  0.0000E+00  0.0000E+00  0.0000E+00  0.0000E+00  0.0000E+00  0.0000E+00  0.0000E+00  0.0000E+00  0.0000E+00  0.0000E+00  0.0000E+00  0.0000E+00
    -32.793  0.0000E+00  0.0000E+00  0.0000E+00  0.0000E+00  0.0000E+00  0.0000E+00  0.0000E+00  0.0000E+00  0.0000E+00  0.0000E+00  0.0000E+00  0.0000E+00  0.0000E+00  0.0000E+00  0.0000E+00  0.0000E+00  0.0000E+00  0.0000E+00
    -32.555  0.0000E+00  0.0000E+00  0.0000E+00  0.0000E+00  0.0000E+00  0.0000E+00  0.0000E+00  0.0000E+00  0.0000E+00  0.0000E+00  0.0000E+00  0.0000E+00  0.0000E+00  0.0000E+00  0.0000E+00  0.0000E+00  0.0000E+00  0.0000E+00
    -32.317  0.0000E+00  0.0000E+00  0.0000E+00  0.0000E+00  0.0000E+00  0.0000E+00  0.0000E+00  0.0000E+00  0.0000E+00  0.0000E+00  0.0000E+00  0.0000E+00  0.0000E+00  0.0000E+00  0.0000E+00  0.0000E+00  0.0000E+00  0.0000E+00
    -32.079  0.1160E-21  0.4262E-22  0.1302E-07  0.1341E-07  0.1302E-07  0.1341E-07  0.1302E-07  0.1341E-07  0.1318E-19  0.1273E-18  0.1318E-19  0.1273E-18  0.4989E-12  0.5141E-12  0.1318E-19  0.1273E-18  0.4989E-12  0.5141E-12
    -31.841  0.9261E-08  0.9617E-08  0.2299E-04  0.2376E-04  0.2299E-04  0.2376E-04  0.2299E-04  0.2376E-04  0.5662E-08  0.5928E-08  0.5662E-08  0.5928E-08  0.3217E-08  0.3318E-08  0.5662E-08  0.5928E-08  0.3217E-08  0.3318E-08
    -31.603  0.1187E-05  0.1222E-05  0.2690E-02  0.2769E-02  0.2690E-02  0.2769E-02  0.2690E-02  0.2769E-02  0.6937E-06  0.7142E-06  0.6937E-06  0.7142E-06  0.3889E-06  0.4003E-06  0.6937E-06  0.7142E-06  0.3889E-06  0.4003E-06
    -31.365  0.8867E-04  0.9062E-04  0.1433E+00  0.1458E+00  0.1433E+00  0.1458E+00  0.1433E+00  0.1458E+00  0.4895E-04  0.4996E-04  0.4895E-04  0.4996E-04  0.2706E-04  0.2761E-04  0.4895E-04  0.4996E-04  0.2706E-04  0.2761E-04
    -31.128  0.8510E-03  0.8565E-03  0.7009E+00  0.7030E+00  0.7009E+00  0.7030E+00  0.7009E+00  0.7030E+00  0.3525E-03  0.3539E-03  0.3525E-03  0.3539E-03  0.1907E-03  0.1913E-03  0.3525E-03  0.3539E-03  0.1907E-03  0.1913E-03
    -30.890  0.1018E-02  0.1016E-02  0.6065E+00  0.6059E+00  0.6065E+00  0.6059E+00  0.6065E+00  0.6059E+00  0.4553E-03  0.4572E-03  0.4553E-03  0.4572E-03  0.1285E-03  0.1277E-03  0.4553E-03  0.4572E-03  0.1285E-03  0.1277E-03
    -30.652  0.6967E-03  0.6958E-03  0.7713E+00  0.7734E+00  0.7713E+00  0.7734E+00  0.7713E+00  0.7734E+00  0.8899E-03  0.8920E-03  0.8899E-03  0.8920E-03  0.7467E-04  0.7454E-04  0.8899E-03  0.8920E-03  0.7467E-04  0.7454E-04
    -30.414  0.5522E-03  0.5517E-03  0.9692E+00  0.9707E+00  0.9692E+00  0.9707E+00  0.9692E+00  0.9707E+00  0.8397E-03  0.8381E-03  0.8397E-03  0.8381E-03  0.4107E-04  0.4090E-04  0.8397E-03  0.8381E-03  0.4107E-04  0.4090E-04
    -30.176  0.2783E-03  0.2756E-03  0.8807E+00  0.8758E+00  0.8807E+00  0.8758E+00  0.8807E+00  0.8758E+00  0.3682E-03  0.3645E-03  0.3682E-03  0.3645E-03  0.1453E-04  0.1437E-04  0.3682E-03  0.3645E-03  0.1453E-04  0.1437E-04
    -29.938  0.7045E-05  0.6856E-05  0.5869E-01  0.5688E-01  0.5869E-01  0.5688E-01  0.5869E-01  0.5688E-01  0.1083E-04  0.1037E-04  0.1083E-04  0.1037E-04  0.3450E-06  0.3353E-06  0.1083E-04  0.1037E-04  0.3450E-06  0.3353E-06
    -29.701  0.0000E+00  0.0000E+00  0.0000E+00  0.0000E+00  0.0000E+00  0.0000E+00  0.0000E+00  0.0000E+00  0.0000E+00  0.0000E+00  0.0000E+00  0.0000E+00  0.0000E+00  0.0000E+00  0.0000E+00  0.0000E+00  0.0000E+00  0.0000E+00
    -29.463  0.0000E+00  0.0000E+00  0.0000E+00  0.0000E+00  0.0000E+00  0.0000E+00  0.0000E+00  0.0000E+00  0.0000E+00  0.0000E+00  0.0000E+00  0.0000E+00  0.0000E+00  0.0000E+00  0.0000E+00  0.0000E+00  0.0000E+00  0.0000E+00
    -29.225  0.0000E+00  0.0000E+00  0.0000E+00  0.0000E+00  0.0000E+00  0.0000E+00  0.0000E+00  0.0000E+00  0.0000E+00  0.0000E+00  0.0000E+00  0.0000E+00  0.0000E+00  0.0000E+00  0.0000E+00  0.0000E+00  0.0000E+00  0.0000E+00
    -28.987  0.0000E+00  0.0000E+00  0.0000E+00  0.0000E+00  0.0000E+00  0.0000E+00  0.0000E+00  0.0000E+00  0.0000E+00  0.0000E+00  0.0000E+00  0.0000E+00  0.0000E+00  0.0000E+00  0.0000E+00  0.0000E+00  0.0000E+00  0.0000E+00
    -28.749  0.0000E+00  0.0000E+00  0.0000E+00  0.0000E+00  0.0000E+00  0.0000E+00  0.0000E+00  0.0000E+00  0.0000E+00  0.0000E+00  0.0000E+00  0.0000E+00  0.0000E+00  0.0000E+00  0.0000E+00  0.0000E+00  0.0000E+00  0.0000E+00
    -28.511  0.0000E+00  0.0000E+00  0.0000E+00  0.0000E+00  0.0000E+00  0.0000E+00  0.0000E+00  0.0000E+00  0.0000E+00  0.0000E+00  0.0000E+00  0.0000E+00  0.0000E+00  0.0000E+00  0.0000E+00  0.0000E+00  0.0000E+00  0.0000E+00
    -28.273  0.0000E+00  0.0000E+00  0.0000E+00  0.0000E+00  0.0000E+00  0.0000E+00  0.0000E+00  0.0000E+00  0.0000E+00  0.0000E+00  0.0000E+00  0.0000E+00  0.0000E+00  0.0000E+00  0.0000E+00  0.0000E+00  0.0000E+00  0.0000E+00
    -28.036  0.0000E+00  0.0000E+00  0.0000E+00  0.0000E+00  0.0000E+00  0.0000E+00  0.0000E+00  0.0000E+00  0.0000E+00  0.0000E+00  0.0000E+00  0.0000E+00  0.0000E+00  0.0000E+00  0.0000E+00  0.0000E+00  0.0000E+00  0.0000E+00
    -27.798  0.0000E+00  0.0000E+00  0.0000E+00  0.0000E+00  0.0000E+00  0.0000E+00  0.0000E+00  0.0000E+00  0.0000E+00  0.0000E+00  0.0000E+00  0.0000E+00  0.0000E+00  0.0000E+00  0.0000E+00  0.0000E+00  0.0000E+00  0.0000E+00
    -27.560  0.0000E+00  0.0000E+00  0.0000E+00  0.0000E+00  0.0000E+00  0.0000E+00  0.0000E+00  0.0000E+00  0.0000E+00  0.0000E+00  0.0000E+00  0.0000E+00  0.0000E+00  0.0000E+00  0.0000E+00  0.0000E+00  0.0000E+00  0.0000E+00
    -27.322  0.0000E+00  0.0000E+00  0.0000E+00  0.0000E+00  0.0000E+00  0.0000E+00  0.0000E+00  0.0000E+00  0.0000E+00  0.0000E+00  0.0000E+00  0.0000E+00  0.0000E+00  0.0000E+00  0.0000E+00  0.0000E+00  0.0000E+00  0.0000E+00
    -27.084  0.0000E+00  0.0000E+00  0.0000E+00  0.0000E+00  0.0000E+00  0.0000E+00  0.0000E+00  0.0000E+00  0.0000E+00  0.0000E+00  0.0000E+00  0.0000E+00  0.0000E+00  0.0000E+00  0.0000E+00  0.0000E+00  0.0000E+00  0.0000E+00
    -26.846  0.0000E+00  0.0000E+00  0.0000E+00  0.0000E+00  0.0000E+00  0.0000E+00  0.0000E+00  0.0000E+00  0.0000E+00  0.0000E+00  0.0000E+00  0.0000E+00  0.0000E+00  0.0000E+00  0.0000E+00  0.0000E+00  0.0000E+00  0.0000E+00
    -26.609  0.0000E+00  0.0000E+00  0.0000E+00  0.0000E+00  0.0000E+00  0.0000E+00  0.0000E+00  0.0000E+00  0.0000E+00  0.0000E+00  0.0000E+00  0.0000E+00  0.0000E+00  0.0000E+00  0.0000E+00  0.0000E+00  0.0000E+00  0.0000E+00
    -26.371  0.0000E+00  0.0000E+00  0.0000E+00  0.0000E+00  0.0000E+00  0.0000E+00  0.0000E+00  0.0000E+00  0.0000E+00  0.0000E+00  0.0000E+00  0.0000E+00  0.0000E+00  0.0000E+00  0.0000E+00  0.0000E+00  0.0000E+00  0.0000E+00
    -26.133  0.0000E+00  0.0000E+00  0.0000E+00  0.0000E+00  0.0000E+00  0.0000E+00  0.0000E+00  0.0000E+00  0.0000E+00  0.0000E+00  0.0000E+00  0.0000E+00  0.0000E+00  0.0000E+00  0.0000E+00  0.0000E+00  0.0000E+00  0.0000E+00
    -25.895  0.0000E+00  0.0000E+00  0.0000E+00  0.0000E+00  0.0000E+00  0.0000E+00  0.0000E+00  0.0000E+00  0.0000E+00  0.0000E+00  0.0000E+00  0.0000E+00  0.0000E+00  0.0000E+00  0.0000E+00  0.0000E+00  0.0000E+00  0.0000E+00
    -25.657  0.0000E+00  0.0000E+00  0.0000E+00  0.0000E+00  0.0000E+00  0.0000E+00  0.0000E+00  0.0000E+00  0.0000E+00  0.0000E+00  0.0000E+00  0.0000E+00  0.0000E+00  0.0000E+00  0.0000E+00  0.0000E+00  0.0000E+00  0.0000E+00
    -25.419  0.0000E+00  0.0000E+00  0.0000E+00  0.0000E+00  0.0000E+00  0.0000E+00  0.0000E+00  0.0000E+00  0.0000E+00  0.0000E+00  0.0000E+00  0.0000E+00  0.0000E+00  0.0000E+00  0.0000E+00  0.0000E+00  0.0000E+00  0.0000E+00
    -25.181  0.0000E+00  0.0000E+00  0.0000E+00  0.0000E+00  0.0000E+00  0.0000E+00  0.0000E+00  0.0000E+00  0.0000E+00  0.0000E+00  0.0000E+00  0.0000E+00  0.0000E+00  0.0000E+00  0.0000E+00  0.0000E+00  0.0000E+00  0.0000E+00
    -24.944  0.0000E+00  0.0000E+00  0.0000E+00  0.0000E+00  0.0000E+00  0.0000E+00  0.0000E+00  0.0000E+00  0.0000E+00  0.0000E+00  0.0000E+00  0.0000E+00  0.0000E+00  0.0000E+00  0.0000E+00  0.0000E+00  0.0000E+00  0.0000E+00
    -24.706  0.0000E+00  0.0000E+00  0.0000E+00  0.0000E+00  0.0000E+00  0.0000E+00  0.0000E+00  0.0000E+00  0.0000E+00  0.0000E+00  0.0000E+00  0.0000E+00  0.0000E+00  0.0000E+00  0.0000E+00  0.0000E+00  0.0000E+00  0.0000E+00
    -24.468  0.0000E+00  0.0000E+00  0.0000E+00  0.0000E+00  0.0000E+00  0.0000E+00  0.0000E+00  0.0000E+00  0.0000E+00  0.0000E+00  0.0000E+00  0.0000E+00  0.0000E+00  0.0000E+00  0.0000E+00  0.0000E+00  0.0000E+00  0.0000E+00
    -24.230  0.0000E+00  0.0000E+00  0.0000E+00  0.0000E+00  0.0000E+00  0.0000E+00  0.0000E+00  0.0000E+00  0.0000E+00  0.0000E+00  0.0000E+00  0.0000E+00  0.0000E+00  0.0000E+00  0.0000E+00  0.0000E+00  0.0000E+00  0.0000E+00
    -23.992  0.0000E+00  0.0000E+00  0.0000E+00  0.0000E+00  0.0000E+00  0.0000E+00  0.0000E+00  0.0000E+00  0.0000E+00  0.0000E+00  0.0000E+00  0.0000E+00  0.0000E+00  0.0000E+00  0.0000E+00  0.0000E+00  0.0000E+00  0.0000E+00
    -23.754  0.0000E+00  0.0000E+00  0.0000E+00  0.0000E+00  0.0000E+00  0.0000E+00  0.0000E+00  0.0000E+00  0.0000E+00  0.0000E+00  0.0000E+00  0.0000E+00  0.0000E+00  0.0000E+00  0.0000E+00  0.0000E+00  0.0000E+00  0.0000E+00
    -23.517  0.0000E+00  0.0000E+00  0.0000E+00  0.0000E+00  0.0000E+00  0.0000E+00  0.0000E+00  0.0000E+00  0.0000E+00  0.0000E+00  0.0000E+00  0.0000E+00  0.0000E+00  0.0000E+00  0.0000E+00  0.0000E+00  0.0000E+00  0.0000E+00
    -23.279  0.0000E+00  0.0000E+00  0.0000E+00  0.0000E+00  0.0000E+00  0.0000E+00  0.0000E+00  0.0000E+00  0.0000E+00  0.0000E+00  0.0000E+00  0.0000E+00  0.0000E+00  0.0000E+00  0.0000E+00  0.0000E+00  0.0000E+00  0.0000E+00
    -23.041  0.0000E+00  0.0000E+00  0.0000E+00  0.0000E+00  0.0000E+00  0.0000E+00  0.0000E+00  0.0000E+00  0.0000E+00  0.0000E+00  0.0000E+00  0.0000E+00  0.0000E+00  0.0000E+00  0.0000E+00  0.0000E+00  0.0000E+00  0.0000E+00
    -22.803  0.0000E+00  0.0000E+00  0.0000E+00  0.0000E+00  0.0000E+00  0.0000E+00  0.0000E+00  0.0000E+00  0.0000E+00  0.0000E+00  0.0000E+00  0.0000E+00  0.0000E+00  0.0000E+00  0.0000E+00  0.0000E+00  0.0000E+00  0.0000E+00