   2   2   1   0
  0.1296804E+02  0.2960067E-09  0.2960067E-09  0.2960067E-09  0.5000000E-15
  1.000000000000000E-004
  CAR 
 unknown system                          
     31.27566445    -37.21334707  301      9.39250134      1.00000000
    -37.213  0.0000E+00  0.0000E+00  0.0000E+00  0.0000E+00
    -36.985  0.0000E+00  0.0000E+00  0.0000E+00  0.0000E+00
    -36.757  0.0000E+00  0.0000E+00  0.0000E+00  0.0000E+00
    -36.528  0.0000E+00  0.0000E+00  0.0000E+00  0.0000E+00
    -36.300  0.0000E+00  0.0000E+00  0.0000E+00  0.0000E+00
    -36.072  0.0000E+00  0.0000E+00  0.0000E+00  0.0000E+00
    -35.844  0.0000E+00  0.0000E+00  0.0000E+00  0.0000E+00
    -35.615  0.0000E+00  0.0000E+00  0.0000E+00  0.0000E+00
    -35.387  0.0000E+00  0.0000E+00  0.0000E+00  0.0000E+00
    -35.159  0.0000E+00  0.0000E+00  0.0000E+00  0.0000E+00
    -34.930  0.0000E+00  0.0000E+00  0.0000E+00  0.0000E+00
    -34.702  0.1350E-05  0.1334E-05  0.3083E-06  0.3044E-06
    -34.474  0.6101E-03  0.6022E-03  0.1396E-03  0.1378E-03
    -34.245  0.5770E-01  0.5700E-01  0.1331E-01  0.1315E-01
    -34.017  0.2557E+01  0.2540E+01  0.5971E+00  0.5929E+00
    -33.789  0.7806E+01  0.7801E+01  0.2379E+01  0.2374E+01
    -33.561  0.1008E+02  0.1007E+02  0.4698E+01  0.4691E+01
    -33.332  0.5464E+01  0.5493E+01  0.5959E+01  0.5959E+01
    -33.104  0.7375E-01  0.7767E-01  0.6000E+01  0.6000E+01
    -32.876  0.0000E+00  0.0000E+00  0.6000E+01  0.6000E+01
    -32.647  0.0000E+00  0.0000E+00  0.6000E+01  0.6000E+01
    -32.419  0.0000E+00  0.0000E+00  0.6000E+01  0.6000E+01
    -32.191  0.0000E+00  0.0000E+00  0.6000E+01  0.6000E+01
    -31.963  0.0000E+00  0.0000E+00  0.6000E+01  0.6000E+01
    -31.734  0.0000E+00  0.0000E+00  0.6000E+01  0.6000E+01
    -31.506  0.0000E+00  0.0000E+00  0.6000E+01  0.6000E+01
    -31.278  0.0000E+00  0.0000E+00  0.6000E+01  0.6000E+01
    -31.049  0.0000E+00  0.0000E+00  0.6000E+01  0.6000E+01
    -30.821  0.0000E+00  0.0000E+00  0.6000E+01  0.6000E+01
    -30.593  0.0000E+00  0.0000E+00  0.6000E+01  0.6000E+01
    -30.364  0.0000E+00  0.0000E+00  0.6000E+01  0.6000E+01
    -30.136  0.0000E+00  0.0000E+00  0.6000E+01  0.6000E+01
    -29.908  0.0000E+00  0.0000E+00  0.6000E+01  0.6000E+01
    -29.680  0.0000E+00  0.0000E+00  0.6000E+01  0.6000E+01
    -29.451  0.0000E+00  0.0000E+00  0.6000E+01  0.6000E+01
    -29.223  0.0000E+00  0.0000E+00  0.6000E+01  0.6000E+01
    -28.995  0.0000E+00  0.0000E+00  0.6000E+01  0.6000E+01
    -28.766  0.0000E+00  0.0000E+00  0.6000E+01  0.6000E+01
    -28.538  0.0000E+00  0.0000E+00  0.6000E+01  0.6000E+01
    -28.310  0.0000E+00  0.0000E+00  0.6000E+01  0.6000E+01
    -28.081  0.0000E+00  0.0000E+00  0.6000E+01  0.6000E+01
    -27.853  0.0000E+00  0.0000E+00  0.6000E+01  0.6000E+01
    -27.625  0.0000E+00  0.0000E+00  0.6000E+01  0.6000E+01
    -27.397  0.0000E+00  0.0000E+00  0.6000E+01  0.6000E+01
    -27.168  0.0000E+00  0.0000E+00  0.6000E+01  0.6000E+01
    -26.940  0.0000E+00  0.0000E+00  0.6000E+01  0.6000E+01
    -26.712  0.0000E+00  0.0000E+00  0.6000E+01  0.6000E+01
    -26.483  0.0000E+00  0.0000E+00  0.6000E+01  0.6000E+01
    -26.255  0.0000E+00  0.0000E+00  0.6000E+01  0.6000E+01
    -26.027  0.0000E+00  0.0000E+00  0.6000E+01  0.6000E+01
    -25.799  0.0000E+00  0.0000E+00  0.6000E+01  0.6000E+01
    -25.570  0.0000E+00  0.0000E+00  0.6000E+01  0.6000E+01
    -25.342  0.0000E+00  0.0000E+00  0.6000E+01  0.6000E+01
    -25.114  0.0000E+00  0.0000E+00  0.6000E+01  0.6000E+01
    -24.885  0.0000E+00  0.0000E+00  0.6000E+01  0.6000E+01
    -24.657  0.0000E+00  0.0000E+00  0.6000E+01  0.6000E+01
    -24.429  0.0000E+00  0.0000E+00  0.6000E+01  0.6000E+01
    -24.200  0.0000E+00  0.0000E+00  0.6000E+01  0.6000E+01
    -23.972  0.0000E+00  0.0000E+00  0.6000E+01  0.6000E+01
    -23.744  0.0000E+00  0.0000E+00  0.6000E+01  0.6000E+01
    -23.516  0.0000E+00  0.0000E+00  0.6000E+01  0.6000E+01
    -23.287  0.0000E+00  0.0000E+00  0.6000E+01  0.6000E+01
    -23.059  0.0000E+00  0.0000E+00  0.6000E+01  0.6000E+01
    -22.831  0.0000E+00  0.0000E+00  0.6000E+01  0.6000E+01
    -22.602  0.0000E+00  0.0000E+00  0.6000E+01  0.6000E+01
    -22.374  0.0000E+00  0.0000E+00  0.6000E+01  0.6000E+01
    -22.146  0.0000E+00  0.0000E+00  0.6000E+01  0.6000E+01
    -21.917  0.0000E+00  0.0000E+00  0.6000E+01  0.6000E+01
    -21.689  0.0000E+00  0.0000E+00  0.6000E+01  0.6000E+01
    -21.461  0.0000E+00  0.0000E+00  0.6000E+01  0.6000E+01
    -21.233  0.0000E+00  0.0000E+00  0.6000E+01  0.6000E+01
    -21.004  0.0000E+00  0.0000E+00  0.6000E+01  0.6000E+01
    -20.776  0.0000E+00  0.0000E+00  0.6000E+01  0.6000E+01
    -20.548  0.0000E+00  0.0000E+00  0.6000E+01  0.6000E+01
    -20.319  0.0000E+00  0.0000E+00  0.6000E+01  0.6000E+01
    -20.091  0.0000E+00  0.0000E+00  0.6000E+01  0.6000E+01
    -19.863  0.0000E+00  0.0000E+00  0.6000E+01  0.6000E+01
    -19.635  0.0000E+00  0.0000E+00  0.6000E+01  0.6000E+01
    -19.406  0.0000E+00  0.0000E+00  0.6000E+01  0.6000E+01
    -19.178  0.0000E+00  0.0000E+00  0.6000E+01  0.6000E+01
    -18.950  0.0000E+00  0.0000E+00  0.6000E+01  0.6000E+01
    -18.721  0.0000E+00  0.0000E+00  0.6000E+01  0.6000E+01
    -18.493  0.0000E+00  0.0000E+00  0.6000E+01  0.6000E+01
    -18.265  0.0000E+00  0.0000E+00  0.6000E+01  0.6000E+01
    -18.036  0.0000E+00  0.0000E+00  0.6000E+01  0.6000E+01
    -17.808  0.0000E+00  0.0000E+00  0.6000E+01  0.6000E+01
    -17.580  0.0000E+00  0.0000E+00  0.6000E+01  0.6000E+01
    -17.352  0.0000E+00  0.0000E+00  0.6000E+01  0.6000E+01
    -17.123  0.0000E+00  0.0000E+00  0.6000E+01  0.6000E+01
    -16.895  0.0000E+00  0.0000E+00  0.6000E+01  0.6000E+01
    -16.667  0.0000E+00  0.0000E+00  0.6000E+01  0.6000E+01
    -16.438  0.0000E+00  0.0000E+00  0.6000E+01  0.6000E+01
    -16.210  0.0000E+00  0.0000E+00  0.6000E+01  0.6000E+01
    -15.982  0.0000E+00  0.0000E+00  0.6000E+01  0.6000E+01
    -15.753  0.0000E+00  0.0000E+00  0.6000E+01  0.6000E+01
    -15.525  0.0000E+00  0.0000E+00  0.6000E+01  0.6000E+01
    -15.297  0.0000E+00  0.0000E+00  0.6000E+01  0.6000E+01
    -15.069  0.0000E+00  0.0000E+00  0.6000E+01  0.6000E+01
    -14.840  0.0000E+00  0.0000E+00  0.6000E+01  0.6000E+01
    -14.612  0.0000E+00  0.0000E+00  0.6000E+01  0.6000E+01
    -14.384  0.0000E+00  0.0000E+00  0.6000E+01  0.6000E+01
    -14.155  0.0000E+00  0.0000E+00  0.6000E+01  0.6000E+01
    -13.927  0.0000E+00  0.0000E+00  0.6000E+01  0.6000E+01
    -13.699  0.0000E+00  0.0000E+00  0.6000E+01  0.6000E+01
    -13.470  0.0000E+00  0.0000E+00  0.6000E+01  0.6000E+01
    -13.242  0.0000E+00  0.0000E+00  0.6000E+01  0.6000E+01
    -13.014  0.0000E+00  0.0000E+00  0.6000E+01  0.6000E+01
    -12.786  0.0000E+00  0.0000E+00  0.6000E+01  0.6000E+01
    -12.557  0.0000E+00  0.0000E+00  0.6000E+01  0.6000E+01
    -12.329  0.0000E+00  0.0000E+00  0.6000E+01  0.6000E+01
    -12.101  0.0000E+00  0.0000E+00  0.6000E+01  0.6000E+01
    -11.872  0.0000E+00  0.0000E+00  0.6000E+01  0.6000E+01
    -11.644  0.0000E+00  0.0000E+00  0.6000E+01  0.6000E+01
    -11.416  0.0000E+00  0.0000E+00  0.6000E+01  0.6000E+01
    -11.188  0.0000E+00  0.0000E+00  0.6000E+01  0.6000E+01
    -10.959  0.0000E+00  0.0000E+00  0.6000E+01  0.6000E+01
    -10.731  0.0000E+00  0.0000E+00  0.6000E+01  0.6000E+01
    -10.503  0.0000E+00  0.0000E+00  0.6000E+01  0.6000E+01
    -10.274  0.0000E+00  0.0000E+00  0.6000E+01  0.6000E+01
    -10.046  0.0000E+00  0.0000E+00  0.6000E+01  0.6000E+01
     -9.818  0.0000E+00  0.0000E+00  0.6000E+01  0.6000E+01
     -9.589  0.0000E+00  0.0000E+00  0.6000E+01  0.6000E+01
     -9.361  0.0000E+00  0.0000E+00  0.6000E+01  0.6000E+01
     -9.133  0.0000E+00  0.0000E+00  0.6000E+01  0.6000E+01
     -8.905  0.0000E+00  0.0000E+00  0.6000E+01  0.6000E+01
     -8.676  0.0000E+00  0.0000E+00  0.6000E+01  0.6000E+01
     -8.448  0.0000E+00  0.0000E+00  0.6000E+01  0.6000E+01
     -8.220  0.0000E+00  0.0000E+00  0.6000E+01  0.6000E+01
     -7.991  0.0000E+00  0.0000E+00  0.6000E+01  0.6000E+01
     -7.763  0.0000E+00  0.0000E+00  0.6000E+01  0.6000E+01
     -7.535  0.0000E+00  0.0000E+00  0.6000E+01  0.6000E+01
     -7.306  0.0000E+00  0.0000E+00  0.6000E+01  0.6000E+01
     -7.078  0.0000E+00  0.0000E+00  0.6000E+01  0.6000E+01
     -6.850  0.0000E+00  0.0000E+00  0.6000E+01  0.6000E+01
     -6.622  0.0000E+00  0.0000E+00  0.6000E+01  0.6000E+01
     -6.393  0.0000E+00  0.0000E+00  0.6000E+01  0.6000E+01
     -6.165  0.0000E+00  0.0000E+00  0.6000E+01  0.6000E+01
     -5.937  0.0000E+00  0.0000E+00  0.6000E+01  0.6000E+01
     -5.708  0.0000E+00  0.0000E+00  0.6000E+01  0.6000E+01
     -5.480  0.0000E+00  0.0000E+00  0.6000E+01  0.6000E+01
     -5.252  0.0000E+00  0.0000E+00  0.6000E+01  0.6000E+01
     -5.024  0.0000E+00  0.0000E+00  0.6000E+01  0.6000E+01
     -4.795  0.0000E+00  0.0000E+00  0.6000E+01  0.6000E+01
     -4.567  0.0000E+00  0.0000E+00  0.6000E+01  0.6000E+01
     -4.339  0.0000E+00  0.0000E+00  0.6000E+01  0.6000E+01
     -4.110  0.0000E+00  0.0000E+00  0.6000E+01  0.6000E+01
     -3.882  0.0000E+00  0.0000E+00  0.6000E+01  0.6000E+01
     -3.654  0.0000E+00  0.0000E+00  0.6000E+01  0.6000E+01
     -3.425  0.0000E+00  0.0000E+00  0.6000E+01  0.6000E+01
     -3.197  0.0000E+00  0.0000E+00  0.6000E+01  0.6000E+01
     -2.969  0.0000E+00  0.0000E+00  0.6000E+01  0.6000E+01
     -2.741  0.0000E+00  0.0000E+00  0.6000E+01  0.6000E+01
     -2.512  0.0000E+00  0.0000E+00  0.6000E+01  0.6000E+01
     -2.284  0.0000E+00  0.0000E+00  0.6000E+01  0.6000E+01
     -2.056  0.0000E+00  0.0000E+00  0.6000E+01  0.6000E+01
     -1.827  0.0000E+00  0.0000E+00  0.6000E+01  0.6000E+01
     -1.599  0.0000E+00  0.0000E+00  0.6000E+01  0.6000E+01
     -1.371  0.0000E+00  0.0000E+00  0.6000E+01  0.6000E+01
     -1.142  0.0000E+00  0.0000E+00  0.6000E+01  0.6000E+01
     -0.914  0.0000E+00  0.0000E+00  0.6000E+01  0.6000E+01
     -0.686  0.0000E+00  0.0000E+00  0.6000E+01  0.6000E+01
     -0.458  0.0000E+00  0.0000E+00  0.6000E+01  0.6000E+01
     -0.229  0.0000E+00  0.0000E+00  0.6000E+01  0.6000E+01
     -0.001  0.0000E+00  0.0000E+00  0.6000E+01  0.6000E+01
      0.227  0.0000E+00  0.0000E+00  0.6000E+01  0.6000E+01
      0.456  0.0000E+00  0.0000E+00  0.6000E+01  0.6000E+01
      0.684  0.0000E+00  0.0000E+00  0.6000E+01  0.6000E+01
      0.912  0.0000E+00  0.0000E+00  0.6000E+01  0.6000E+01
      1.140  0.0000E+00  0.0000E+00  0.6000E+01  0.6000E+01
      1.369  0.9083E-08  0.9225E-08  0.6000E+01  0.6000E+01
      1.597  0.1458E-05  0.1481E-05  0.6000E+01  0.6000E+01
      1.825  0.1367E-03  0.1388E-03  0.6000E+01  0.6000E+01
      2.054  0.5713E-02  0.5767E-02  0.6001E+01  0.6001E+01
      2.282  0.3138E-01  0.3145E-01  0.6008E+01  0.6009E+01
      2.510  0.3998E-01  0.4007E-01  0.6018E+01  0.6018E+01
      2.739  0.7392E-01  0.7387E-01  0.6035E+01  0.6035E+01
      2.967  0.5271E-01  0.5288E-01  0.6047E+01  0.6047E+01
      3.195  0.1026E+00  0.1026E+00  0.6070E+01  0.6071E+01
      3.423  0.8842E-01  0.8852E-01  0.6091E+01  0.6091E+01
      3.652  0.1034E+00  0.1031E+00  0.6115E+01  0.6115E+01
      3.880  0.1275E+00  0.1279E+00  0.6144E+01  0.6144E+01
      4.108  0.1546E+00  0.1545E+00  0.6179E+01  0.6179E+01
      4.337  0.1346E+00  0.1344E+00  0.6210E+01  0.6210E+01
      4.565  0.1733E+00  0.1737E+00  0.6250E+01  0.6251E+01
      4.793  0.2064E+00  0.2065E+00  0.6298E+01  0.6298E+01
      5.022  0.2598E+00  0.2596E+00  0.6357E+01  0.6357E+01
      5.250  0.2538E+00  0.2541E+00  0.6416E+01  0.6416E+01
      5.478  0.4470E+00  0.4474E+00  0.6518E+01  0.6518E+01
      5.706  0.8165E+00  0.8168E+00  0.6705E+01  0.6705E+01
      5.935  0.8859E+00  0.8860E+00  0.6908E+01  0.6908E+01
      6.163  0.1167E+01  0.1167E+01  0.7176E+01  0.7176E+01
      6.391  0.1552E+01  0.1553E+01  0.7532E+01  0.7532E+01
      6.620  0.1325E+01  0.1324E+01  0.7836E+01  0.7836E+01
      6.848  0.1090E+01  0.1089E+01  0.8087E+01  0.8087E+01
      7.076  0.6159E+00  0.6158E+00  0.8229E+01  0.8229E+01
      7.305  0.1611E+01  0.1611E+01  0.8598E+01  0.8598E+01
      7.533  0.2486E+01  0.2486E+01  0.9167E+01  0.9167E+01
      7.761  0.2132E+01  0.2131E+01  0.9658E+01  0.9658E+01
      7.989  0.2029E+01  0.2029E+01  0.1013E+02  0.1013E+02
      8.218  0.2371E+01  0.2371E+01  0.1067E+02  0.1067E+02
      8.446  0.2162E+01  0.2162E+01  0.1117E+02  0.1117E+02
      8.674  0.1478E+01  0.1479E+01  0.1151E+02  0.1151E+02
      8.903  0.6934E+00  0.6932E+00  0.1167E+02  0.1167E+02
      9.131  0.6033E+00  0.6036E+00  0.1181E+02  0.1181E+02
      9.359  0.7270E+00  0.7264E+00  0.1198E+02  0.1198E+02
      9.587  0.8428E+00  0.8424E+00  0.1217E+02  0.1217E+02
      9.816  0.1451E+01  0.1450E+01  0.1250E+02  0.1250E+02
     10.044  0.2042E+01  0.2041E+01  0.1297E+02  0.1297E+02
     10.272  0.2605E+01  0.2604E+01  0.1357E+02  0.1357E+02
     10.501  0.3124E+01  0.3123E+01  0.1428E+02  0.1428E+02
     10.729  0.3690E+01  0.3690E+01  0.1513E+02  0.1513E+02
     10.957  0.2502E+01  0.2505E+01  0.1571E+02  0.1571E+02
     11.186  0.1428E+01  0.1429E+01  0.1604E+02  0.1604E+02
     11.414  0.1431E+01  0.1431E+01  0.1637E+02  0.1637E+02
     11.642  0.8890E+00  0.8900E+00  0.1657E+02  0.1657E+02
     11.870  0.5479E+00  0.5482E+00  0.1670E+02  0.1670E+02
     12.099  0.4678E+00  0.4680E+00  0.1681E+02  0.1681E+02
     12.327  0.2710E+00  0.2709E+00  0.1687E+02  0.1687E+02
     12.555  0.4629E+00  0.4630E+00  0.1698E+02  0.1698E+02
     12.784  0.2149E+00  0.2149E+00  0.1703E+02  0.1703E+02
     13.012  0.2702E+00  0.2702E+00  0.1709E+02  0.1709E+02
     13.240  0.4654E+00  0.4655E+00  0.1719E+02  0.1719E+02
     13.469  0.3214E+00  0.3215E+00  0.1727E+02  0.1727E+02
     13.697  0.2482E+00  0.2480E+00  0.1732E+02  0.1732E+02
     13.925  0.1679E+00  0.1680E+00  0.1736E+02  0.1736E+02
     14.153  0.3121E+00  0.3121E+00  0.1743E+02  0.1743E+02
     14.382  0.2799E+00  0.2799E+00  0.1750E+02  0.1750E+02
     14.610  0.3285E+00  0.3284E+00  0.1757E+02  0.1757E+02
     14.838  0.1799E+00  0.1799E+00  0.1762E+02  0.1762E+02
     15.067  0.1808E+00  0.1808E+00  0.1766E+02  0.1766E+02
     15.295  0.1899E+00  0.1900E+00  0.1770E+02  0.1770E+02
     15.523  0.2223E+00  0.2223E+00  0.1775E+02  0.1775E+02
     15.751  0.1107E+00  0.1107E+00  0.1778E+02  0.1778E+02
     15.980  0.1753E+00  0.1753E+00  0.1782E+02  0.1782E+02
     16.208  0.3438E+00  0.3407E+00  0.1790E+02  0.1790E+02
     16.436  0.4300E+01  0.4236E+01  0.1888E+02  0.1886E+02
     16.665  0.4433E+01  0.4404E+01  0.1989E+02  0.1987E+02
     16.893  0.5539E-01  0.5530E-01  0.1992E+02  0.1990E+02
     17.121  0.5252E-01  0.5276E-01  0.1994E+02  0.1992E+02
     17.350  0.1317E+00  0.1316E+00  0.1997E+02  0.1995E+02
     17.578  0.9983E-01  0.9965E-01  0.1999E+02  0.1997E+02
     17.806  0.2963E-01  0.2968E-01  0.2000E+02  0.1997E+02
     18.034  0.3437E+00  0.3442E+00  0.2008E+02  0.2005E+02
     18.263  0.5761E+00  0.5762E+00  0.2021E+02  0.2018E+02
     18.491  0.8400E+00  0.8403E+00  0.2040E+02  0.2038E+02
     18.719  0.4626E+00  0.4621E+00  0.2051E+02  0.2049E+02
     18.948  0.2021E+00  0.2025E+00  0.2055E+02  0.2053E+02
     19.176  0.4483E+00  0.4481E+00  0.2066E+02  0.2064E+02
     19.404  0.5368E+00  0.5372E+00  0.2078E+02  0.2076E+02
     19.633  0.5002E+00  0.4998E+00  0.2089E+02  0.2087E+02
     19.861  0.3378E+00  0.3377E+00  0.2097E+02  0.2095E+02
     20.089  0.3788E+00  0.3791E+00  0.2106E+02  0.2104E+02
     20.317  0.4611E+00  0.4612E+00  0.2117E+02  0.2114E+02
     20.546  0.6017E+00  0.6027E+00  0.2130E+02  0.2128E+02
     20.774  0.5034E+00  0.5138E+00  0.2142E+02  0.2140E+02
     21.002  0.2485E+00  0.2545E+00  0.2148E+02  0.2146E+02
     21.231  0.2856E+00  0.2986E+00  0.2154E+02  0.2153E+02
     21.459  0.4582E+00  0.4656E+00  0.2165E+02  0.2164E+02
     21.687  0.6055E+00  0.6444E+00  0.2179E+02  0.2178E+02
     21.915  0.4065E+00  0.4094E+00  0.2188E+02  0.2188E+02
     22.144  0.3569E+00  0.3582E+00  0.2196E+02  0.2196E+02
     22.372  0.2053E+00  0.2184E+00  0.2201E+02  0.2201E+02
     22.600  0.4082E+00  0.4099E+00  0.2211E+02  0.2211E+02
     22.829  0.4045E+00  0.4047E+00  0.2220E+02  0.2220E+02
     23.057  0.5943E+00  0.5944E+00  0.2233E+02  0.2233E+02
     23.285  0.3052E+00  0.3049E+00  0.2240E+02  0.2241E+02
     23.514  0.2685E+00  0.2684E+00  0.2247E+02  0.2247E+02
     23.742  0.3344E+00  0.3346E+00  0.2254E+02  0.2254E+02
     23.970  0.3256E+00  0.3255E+00  0.2262E+02  0.2262E+02
     24.198  0.3852E+00  0.3858E+00  0.2271E+02  0.2271E+02
     24.427  0.5316E+00  0.5316E+00  0.2283E+02  0.2283E+02
     24.655  0.2914E+00  0.2906E+00  0.2290E+02  0.2290E+02
     24.883  0.2404E+00  0.2411E+00  0.2295E+02  0.2295E+02
     25.112  0.3538E+00  0.3532E+00  0.2303E+02  0.2303E+02
     25.340  0.2509E+00  0.2517E+00  0.2309E+02  0.2309E+02
     25.568  0.5990E+00  0.5991E+00  0.2323E+02  0.2323E+02
     25.797  0.5761E+00  0.5711E+00  0.2336E+02  0.2336E+02
     26.025  0.6151E+00  0.6149E+00  0.2350E+02  0.2350E+02
     26.253  0.4356E+00  0.4337E+00  0.2360E+02  0.2360E+02
     26.481  0.4515E+00  0.4021E+00  0.2371E+02  0.2369E+02
     26.710  0.2911E+00  0.3250E+00  0.2377E+02  0.2377E+02
     26.938  0.4153E+00  0.4066E+00  0.2387E+02  0.2386E+02
     27.166  0.2521E+00  0.1785E+00  0.2393E+02  0.2390E+02
     27.395  0.1347E+00  0.1164E+00  0.2396E+02  0.2393E+02
     27.623  0.1085E+00  0.1285E+00  0.2398E+02  0.2396E+02
     27.851  0.4693E-01  0.7270E-01  0.2399E+02  0.2397E+02
     28.080  0.2503E-01  0.4562E-01  0.2400E+02  0.2399E+02
     28.308  0.5219E-02  0.6027E-01  0.2400E+02  0.2400E+02
     28.536  0.0000E+00  0.3055E-02  0.2400E+02  0.2400E+02
     28.764  0.0000E+00  0.0000E+00  0.2400E+02  0.2400E+02
     28.993  0.0000E+00  0.0000E+00  0.2400E+02  0.2400E+02
     29.221  0.0000E+00  0.0000E+00  0.2400E+02  0.2400E+02
     29.449  0.0000E+00  0.0000E+00  0.2400E+02  0.2400E+02
     29.678  0.0000E+00  0.0000E+00  0.2400E+02  0.2400E+02
     29.906  0.0000E+00  0.0000E+00  0.2400E+02  0.2400E+02
     30.134  0.0000E+00  0.0000E+00  0.2400E+02  0.2400E+02
     30.362  0.0000E+00  0.0000E+00  0.2400E+02  0.2400E+02
     30.591  0.0000E+00  0.0000E+00  0.2400E+02  0.2400E+02
     30.819  0.0000E+00  0.0000E+00  0.2400E+02  0.2400E+02
     31.047  0.0000E+00  0.0000E+00  0.2400E+02  0.2400E+02
     31.276  0.0000E+00  0.0000E+00  0.2400E+02  0.2400E+02
     31.27566445    -37.21334707  301      9.39250134      1.00000000
    -37.213  0.0000E+00  0.0000E+00  0.0000E+00  0.0000E+00  0.0000E+00  0.0000E+00  0.0000E+00  0.0000E+00  0.0000E+00  0.0000E+00  0.0000E+00  0.0000E+00  0.0000E+00  0.0000E+00  0.0000E+00  0.0000E+00  0.0000E+00  0.0000E+00
    -36.985  0.0000E+00  0.0000E+00  0.0000E+00  0.0000E+00  0.0000E+00  0.0000E+00  0.0000E+00  0.0000E+00  0.0000E+00  0.0000E+00  0.0000E+00  0.0000E+00  0.0000E+00  0.0000E+00  0.0000E+00  0.0000E+00  0.0000E+00  0.0000E+00
    -36.757  0.0000E+00  0.0000E+00  0.0000E+00  0.0000E+00  0.0000E+00  0.0000E+00  0.0000E+00  0.0000E+00  0.0000E+00  0.0000E+00  0.0000E+00  0.0000E+00  0.0000E+00  0.0000E+00  0.0000E+00  0.0000E+00  0.0000E+00  0.0000E+00
    -36.528  0.0000E+00  0.0000E+00  0.0000E+00  0.0000E+00  0.0000E+00  0.0000E+00  0.0000E+00  0.0000E+00  0.0000E+00  0.0000E+00  0.0000E+00  0.0000E+00  0.0000E+00  0.0000E+00  0.0000E+00  0.0000E+00  0.0000E+00  0.0000E+00
    -36.300  0.0000E+00  0.0000E+00  0.0000E+00  0.0000E+00  0.0000E+00  0.0000E+00  0.0000E+00  0.0000E+00  0.0000E+00  0.0000E+00  0.0000E+00  0.0000E+00  0.0000E+00  0.0000E+00  0.0000E+00  0.0000E+00  0.0000E+00  0.0000E+00
    -36.072  0.0000E+00  0.0000E+00  0.0000E+00  0.0000E+00  0.0000E+00  0.0000E+00  0.0000E+00  0.0000E+00  0.0000E+00  0.0000E+00  0.0000E+00  0.0000E+00  0.0000E+00  0.0000E+00  0.0000E+00  0.0000E+00  0.0000E+00  0.0000E+00
    -35.844  0.0000E+00  0.0000E+00  0.0000E+00  0.0000E+00  0.0000E+00  0.0000E+00  0.0000E+00  0.0000E+00  0.0000E+00  0.0000E+00  0.0000E+00  0.0000E+00  0.0000E+00  0.0000E+00  0.0000E+00  0.0000E+00  0.0000E+00  0.0000E+00
    -35.615  0.0000E+00  0.0000E+00  0.0000E+00  0.0000E+00  0.0000E+00  0.0000E+00  0.0000E+00  0.0000E+00  0.0000E+00  0.0000E+00  0.0000E+00  0.0000E+00  0.0000E+00  0.0000E+00  0.0000E+00  0.0000E+00  0.0000E+00  0.0000E+00
    -35.387  0.0000E+00  0.0000E+00  0.0000E+00  0.0000E+00  0.0000E+00  0.0000E+00  0.0000E+00  0.0000E+00  0.0000E+00  0.0000E+00  0.0000E+00  0.0000E+00  0.0000E+00  0.0000E+00  0.0000E+00  0.0000E+00  0.0000E+00  0.0000E+00
    -35.159  0.0000E+00  0.0000E+00  0.0000E+00  0.0000E+00  0.0000E+00  0.0000E+00  0.0000E+00  0.0000E+00  0.0000E+00  0.0000E+00  0.0000E+00  0.0000E+00  0.0000E+00  0.0000E+00  0.0000E+00  0.0000E+00  0.0000E+00  0.0000E+00
    -34.930  0.0000E+00  0.0000E+00  0.0000E+00  0.0000E+00  0.0000E+00  0.0000E+00  0.0000E+00  0.0000E+00  0.0000E+00  0.0000E+00  0.0000E+00  0.0000E+00  0.0000E+00  0.0000E+00  0.0000E+00  0.0000E+00  0.0000E+00  0.0000E+00
    -34.702  0.1026E-10  0.1015E-10  0.2212E-06  0.2185E-06  0.2212E-06  0.2185E-06  0.2212E-06  0.2185E-06  0.6532E-11  0.6453E-11  0.6532E-11  0.6453E-11  0.4254E-11  0.4208E-11  0.6532E-11  0.6453E-11  0.4254E-11  0.4208E-11
    -34.474  0.2020E-07  0.1996E-07  0.1001E-03  0.9882E-04  0.1001E-03  0.9882E-04  0.1001E-03  0.9882E-04  0.9760E-08  0.9623E-08  0.9760E-08  0.9623E-08  0.4688E-08  0.4629E-08  0.9760E-08  0.9623E-08  0.4688E-08  0.4629E-08
    -34.245  0.1941E-05  0.1919E-05  0.9470E-02  0.9354E-02  0.9470E-02  0.9354E-02  0.9470E-02  0.9354E-02  0.9447E-06  0.9333E-06  0.9447E-06  0.9333E-06  0.4432E-06  0.4381E-06  0.9447E-06  0.9333E-06  0.4432E-06  0.4381E-06
    -34.017  0.1106E-03  0.1097E-03  0.4199E+00  0.4171E+00  0.4199E+00  0.4171E+00  0.4199E+00  0.4171E+00  0.5004E-04  0.4967E-04  0.5004E-04  0.4967E-04  0.2244E-04  0.2229E-04  0.5004E-04  0.4967E-04  0.2244E-04  0.2229E-04
    -33.789  0.4654E-03  0.4654E-03  0.1286E+01  0.1285E+01  0.1286E+01  0.1285E+01  0.1286E+01  0.1285E+01  0.2496E-03  0.2489E-03  0.2496E-03  0.2489E-03  0.5876E-04  0.5887E-04  0.2496E-03  0.2489E-03  0.5876E-04  0.5887E-04
    -33.561  0.3278E-03  0.3284E-03  0.1670E+01  0.1669E+01  0.1670E+01  0.1669E+01  0.1670E+01  0.1669E+01  0.4000E-03  0.4003E-03  0.4000E-03  0.4003E-03  0.2234E-04  0.2243E-04  0.4000E-03  0.4003E-03  0.2234E-04  0.2243E-04
    -33.332  0.9277E-04  0.9349E-04  0.9074E+00  0.9123E+00  0.9074E+00  0.9123E+00  0.9074E+00  0.9123E+00  0.1144E-03  0.1153E-03  0.1144E-03  0.1153E-03  0.3928E-05  0.3968E-05  0.1144E-03  0.1153E-03  0.3928E-05  0.3968E-05
    -33.104  0.3327E-06  0.3851E-06  0.1226E-01  0.1291E-01  0.1226E-01  0.1291E-01  0.1226E-01  0.1291E-01  0.4347E-06  0.4680E-06  0.4347E-06  0.4680E-06  0.1374E-07  0.1470E-07  0.4347E-06  0.4680E-06  0.1374E-07  0.1470E-07
    -32.876  0.0000E+00  0.0000E+00  0.0000E+00  0.0000E+00  0.0000E+00  0.0000E+00  0.0000E+00  0.0000E+00  0.0000E+00  0.0000E+00  0.0000E+00  0.0000E+00  0.0000E+00  0.0000E+00  0.0000E+00  0.0000E+00  0.0000E+00  0.0000E+00
    -32.647  0.0000E+00  0.0000E+00  0.0000E+00  0.0000E+00  0.0000E+00  0.0000E+00  0.0000E+00  0.0000E+00  0.0000E+00  0.0000E+00  0.0000E+00  0.0000E+00  0.0000E+00  0.0000E+00  0.0000E+00  0.0000E+00  0.0000E+00  0.0000E+00
    -32.419  0.0000E+00  0.0000E+00  0.0000E+00  0.0000E+00  0.0000E+00  0.0000E+00  0.0000E+00  0.0000E+00  0.0000E+00  0.0000E+00  0.0000E+00  0.0000E+00  0.0000E+00  0.0000E+00  0.0000E+00  0.0000E+00  0.0000E+00  0.0000E+00
    -32.191  0.0000E+00  0.0000E+00  0.0000E+00  0.0000E+00  0.0000E+00  0.0000E+00  0.0000E+00  0.0000E+00  0.0000E+00  0.0000E+00  0.0000E+00  0.0000E+00  0.0000E+00  0.0000E+00  0.0000E+00  0.0000E+00  0.0000E+00  0.0000E+00
    -31.963  0.0000E+00  0.0000E+00  0.0000E+00  0.0000E+00  0.0000E+00  0.0000E+00  0.0000E+00  0.0000E+00  0.0000E+00  0.0000E+00  0.0000E+00  0.0000E+00  0.0000E+00  0.0000E+00  0.0000E+00  0.0000E+00  0.0000E+00  0.0000E+00
    -31.734  0.0000E+00  0.0000E+00  0.0000E+00  0.0000E+00  0.0000E+00  0.0000E+00  0.0000E+00  0.0000E+00  0.0000E+00  0.0000E+00  0.0000E+00  0.0000E+00  0.0000E+00  0.0000E+00  0.0000E+00  0.0000E+00  0.0000E+00  0.0000E+00
    -31.506  0.0000E+00  0.0000E+00  0.0000E+00  0.0000E+00  0.0000E+00  0.0000E+00  0.0000E+00  0.0000E+00  0.0000E+00  0.0000E+00  0.0000E+00  0.0000E+00  0.0000E+00  0.0000E+00  0.0000E+00  0.0000E+00  0.0000E+00  0.0000E+00
    -31.278  0.0000E+00  0.0000E+00  0.0000E+00  0.0000E+00  0.0000E+00  0.0000E+00  0.0000E+00  0.0000E+00  0.0000E+00  0.0000E+00  0.0000E+00  0.0000E+00  0.0000E+00  0.0000E+00  0.0000E+00  0.0000E+00  0.0000E+00  0.0000E+00
    -31.049  0.0000E+00  0.0000E+00  0.0000E+00  0.0000E+00  0.0000E+00  0.0000E+00  0.0000E+00  0.0000E+00  0.0000E+00  0.0000E+00  0.0000E+00  0.0000E+00  0.0000E+00  0.0000E+00  0.0000E+00  0.0000E+00  0.0000E+00  0.0000E+00
    -30.821  0.0000E+00  0.0000E+00  0.0000E+00  0.0000E+00  0.0000E+00  0.0000E+00  0.0000E+00  0.0000E+00  0.0000E+00  0.0000E+00  0.0000E+00  0.0000E+00  0.0000E+00  0.0000E+00  0.0000E+00  0.0000E+00  0.0000E+00  0.0000E+00
    -30.593  0.0000E+00  0.0000E+00  0.0000E+00  0.0000E+00  0.0000E+00  0.0000E+00  0.0000E+00  0.0000E+00  0.0000E+00  0.0000E+00  0.0000E+00  0.0000E+00  0.0000E+00  0.0000E+00  0.0000E+00  0.0000E+00  0.0000E+00  0.0000E+00
    -30.364  0.0000E+00  0.0000E+00  0.0000E+00  0.0000E+00  0.0000E+00  0.0000E+00  0.0000E+00  0.0000E+00  0.0000E+00  0.0000E+00  0.0000E+00  0.0000E+00  0.0000E+00  0.0000E+00  0.0000E+00  0.0000E+00  0.0000E+00  0.0000E+00
    -30.136  0.0000E+00  0.0000E+00  0.0000E+00  0.0000E+00  0.0000E+00  0.0000E+00  0.0000E+00  0.0000E+00  0.0000E+00  0.0000E+00  0.0000E+00  0.0000E+00  0.0000E+00  0.0000E+00  0.0000E+00  0.0000E+00  0.0000E+00  0.0000E+00
    -29.908  0.0000E+00  0.0000E+00  0.0000E+00  0.0000E+00  0.0000E+00  0.0000E+00  0.0000E+00  0.0000E+00  0.0000E+00  0.0000E+00  0.0000E+00  0.0000E+00  0.0000E+00  0.0000E+00  0.0000E+00  0.0000E+00  0.0000E+00  0.0000E+00
    -29.680  0.0000E+00  0.0000E+00  0.0000E+00  0.0000E+00  0.0000E+00  0.0000E+00  0.0000E+00  0.0000E+00  0.0000E+00  0.0000E+00  0.0000E+00  0.0000E+00  0.0000E+00  0.0000E+00  0.0000E+00  0.0000E+00  0.0000E+00  0.0000E+00
    -29.451  0.0000E+00  0.0000E+00  0.0000E+00  0.0000E+00  0.0000E+00  0.0000E+00  0.0000E+00  0.0000E+00  0.0000E+00  0.0000E+00  0.0000E+00  0.0000E+00  0.0000E+00  0.0000E+00  0.0000E+00  0.0000E+00  0.0000E+00  0.0000E+00
    -29.223  0.0000E+00  0.0000E+00  0.0000E+00  0.0000E+00  0.0000E+00  0.0000E+00  0.0000E+00  0.0000E+00  0.0000E+00  0.0000E+00  0.0000E+00  0.0000E+00  0.0000E+00  0.0000E+00  0.0000E+00  0.0000E+00  0.0000E+00  0.0000E+00
    -28.995  0.0000E+00  0.0000E+00  0.0000E+00  0.0000E+00  0.0000E+00  0.0000E+00  0.0000E+00  0.0000E+00  0.0000E+00  0.0000E+00  0.0000E+00  0.0000E+00  0.0000E+00  0.0000E+00  0.0000E+00  0.0000E+00  0.0000E+00  0.0000E+00
    -28.766  0.0000E+00  0.0000E+00  0.0000E+00  0.0000E+00  0.0000E+00  0.0000E+00  0.0000E+00  0.0000E+00  0.0000E+00  0.0000E+00  0.0000E+00  0.0000E+00  0.0000E+00  0.0000E+00  0.0000E+00  0.0000E+00  0.0000E+00  0.0000E+00
    -28.538  0.0000E+00  0.0000E+00  0.0000E+00  0.0000E+00  0.0000E+00  0.0000E+00  0.0000E+00  0.0000E+00  0.0000E+00  0.0000E+00  0.0000E+00  0.0000E+00  0.0000E+00  0.0000E+00  0.0000E+00  0.0000E+00  0.0000E+00  0.0000E+00
    -28.310  0.0000E+00  0.0000E+00  0.0000E+00  0.0000E+00  0.0000E+00  0.0000E+00  0.0000E+00  0.0000E+00  0.0000E+00  0.0000E+00  0.0000E+00  0.0000E+00  0.0000E+00  0.0000E+00  0.0000E+00  0.0000E+00  0.0000E+00  0.0000E+00
    -28.081  0.0000E+00  0.0000E+00  0.0000E+00  0.0000E+00  0.0000E+00  0.0000E+00  0.0000E+00  0.0000E+00  0.0000E+00  0.0000E+00  0.0000E+00  0.0000E+00  0.0000E+00  0.0000E+00  0.0000E+00  0.0000E+00  0.0000E+00  0.0000E+00
    -27.853  0.0000E+00  0.0000E+00  0.0000E+00  0.0000E+00  0.0000E+00  0.0000E+00  0.0000E+00  0.0000E+00  0.0000E+00  0.0000E+00  0.0000E+00  0.0000E+00  0.0000E+00  0.0000E+00  0.0000E+00  0.0000E+00  0.0000E+00  0.0000E+00
    -27.625  0.0000E+00  0.0000E+00  0.0000E+00  0.0000E+00  0.0000E+00  0.0000E+00  0.0000E+00  0.0000E+00  0.0000E+00  0.0000E+00  0.0000E+00  0.0000E+00  0.0000E+00  0.0000E+00  0.0000E+00  0.0000E+00  0.0000E+00  0.0000E+00
    -27.397  0.0000E+00  0.0000E+00  0.0000E+00  0.0000E+00  0.0000E+00  0.0000E+00  0.0000E+00  0.0000E+00  0.0000E+00  0.0000E+00  0.0000E+00  0.0000E+00  0.0000E+00  0.0000E+00  0.0000E+00  0.0000E+00  0.0000E+00  0.0000E+00
    -27.168  0.0000E+00  0.0000E+00  0.0000E+00  0.0000E+00  0.0000E+00  0.0000E+00  0.0000E+00  0.0000E+00  0.0000E+00  0.0000E+00  0.0000E+00  0.0000E+00  0.0000E+00  0.0000E+00  0.0000E+00  0.0000E+00  0.0000E+00  0.0000E+00
    -26.940  0.0000E+00  0.0000E+00  0.0000E+00  0.0000E+00  0.0000E+00  0.0000E+00  0.0000E+00  0.0000E+00  0.0000E+00  0.0000E+00  0.0000E+00  0.0000E+00  0.0000E+00  0.0000E+00  0.0000E+00  0.0000E+00  0.0000E+00  0.0000E+00
    -26.712  0.0000E+00  0.0000E+00  0.0000E+00  0.0000E+00  0.0000E+00  0.0000E+00  0.0000E+00  0.0000E+00  0.0000E+00  0.0000E+00  0.0000E+00  0.0000E+00  0.0000E+00  0.0000E+00  0.0000E+00  0.0000E+00  0.0000E+00  0.0000E+00
    -26.483  0.0000E+00  0.0000E+00  0.0000E+00  0.0000E+00  0.0000E+00  0.0000E+00  0.0000E+00  0.0000E+00  0.0000E+00  0.0000E+00  0.0000E+00  0.0000E+00  0.0000E+00  0.0000E+00  0.0000E+00  0.0000E+00  0.0000E+00  0.0000E+00
    -26.255  0.0000E+00  0.0000E+00  0.0000E+00  0.0000E+00  0.0000E+00  0.0000E+00  0.0000E+00  0.0000E+00  0.0000E+00  0.0000E+00  0.0000E+00  0.0000E+00  0.0000E+00  0.0000E+00  0.0000E+00  0.0000E+00  0.0000E+00  0.0000E+00
    -26.027  0.0000E+00  0.0000E+00  0.0000E+00  0.0000E+00  0.0000E+00  0.0000E+00  0.0000E+00  0.0000E+00  0.0000E+00  0.0000E+00  0.0000E+00  0.0000E+00  0.0000E+00  0.0000E+00  0.0000E+00  0.0000E+00  0.0000E+00  0.0000E+00
    -25.799  0.0000E+00  0.0000E+00  0.0000E+00  0.0000E+00  0.0000E+00  0.0000E+00  0.0000E+00  0.0000E+00  0.0000E+00  0.0000E+00  0.0000E+00  0.0000E+00  0.0000E+00  0.0000E+00  0.0000E+00  0.0000E+00  0.0000E+00  0.0000E+00