   2   2   1   0
  0.8404309E+01  0.2561596E-09  0.2561596E-09  0.2561596E-09  0.5000000E-15
  1.000000000000000E-004
  CAR 
 unknown system                          
     44.37834597    -31.76818458  301     16.30811649      1.00000000
    -31.768  0.0000E+00  0.0000E+00  0.0000E+00  0.0000E+00
    -31.514  0.0000E+00  0.0000E+00  0.0000E+00  0.0000E+00
    -31.261  0.0000E+00  0.0000E+00  0.0000E+00  0.0000E+00
    -31.007  0.0000E+00  0.0000E+00  0.0000E+00  0.0000E+00
    -30.753  0.0000E+00  0.0000E+00  0.0000E+00  0.0000E+00
    -30.499  0.0000E+00  0.0000E+00  0.0000E+00  0.0000E+00
    -30.245  0.0000E+00  0.0000E+00  0.0000E+00  0.0000E+00
    -29.991  0.0000E+00  0.0000E+00  0.0000E+00  0.0000E+00
    -29.738  0.0000E+00  0.0000E+00  0.0000E+00  0.0000E+00
    -29.484  0.0000E+00  0.0000E+00  0.0000E+00  0.0000E+00
    -29.230  0.0000E+00  0.0000E+00  0.0000E+00  0.0000E+00
    -28.976  0.0000E+00  0.0000E+00  0.0000E+00  0.0000E+00
    -28.722  0.3055E-04  0.3067E-04  0.7754E-05  0.7786E-05
    -28.469  0.4870E-02  0.4890E-02  0.1244E-02  0.1249E-02
    -28.215  0.3014E+00  0.3020E+00  0.7773E-01  0.7790E-01
    -27.961  0.1550E+01  0.1551E+01  0.4711E+00  0.4716E+00
    -27.707  0.2823E+01  0.2823E+01  0.1190E+01  0.1191E+01
    -27.453  0.1845E+01  0.1844E+01  0.1666E+01  0.1666E+01
    -27.199  0.1676E+01  0.1677E+01  0.2098E+01  0.2098E+01
    -26.946  0.2153E+01  0.2154E+01  0.2646E+01  0.2647E+01
    -26.692  0.2758E+01  0.2759E+01  0.3352E+01  0.3353E+01
    -26.438  0.2926E+01  0.2926E+01  0.4100E+01  0.4100E+01
    -26.184  0.3476E+01  0.3478E+01  0.4993E+01  0.4994E+01
    -25.930  0.3498E+01  0.3495E+01  0.5889E+01  0.5889E+01
    -25.676  0.3950E+00  0.3933E+00  0.5999E+01  0.5999E+01
    -25.423  0.0000E+00  0.0000E+00  0.6000E+01  0.6000E+01
    -25.169  0.0000E+00  0.0000E+00  0.6000E+01  0.6000E+01
    -24.915  0.0000E+00  0.0000E+00  0.6000E+01  0.6000E+01
    -24.661  0.0000E+00  0.0000E+00  0.6000E+01  0.6000E+01
    -24.407  0.0000E+00  0.0000E+00  0.6000E+01  0.6000E+01
    -24.154  0.0000E+00  0.0000E+00  0.6000E+01  0.6000E+01
    -23.900  0.0000E+00  0.0000E+00  0.6000E+01  0.6000E+01
    -23.646  0.0000E+00  0.0000E+00  0.6000E+01  0.6000E+01
    -23.392  0.0000E+00  0.0000E+00  0.6000E+01  0.6000E+01
    -23.138  0.0000E+00  0.0000E+00  0.6000E+01  0.6000E+01
    -22.884  0.0000E+00  0.0000E+00  0.6000E+01  0.6000E+01
    -22.631  0.0000E+00  0.0000E+00  0.6000E+01  0.6000E+01
    -22.377  0.0000E+00  0.0000E+00  0.6000E+01  0.6000E+01
    -22.123  0.0000E+00  0.0000E+00  0.6000E+01  0.6000E+01
    -21.869  0.0000E+00  0.0000E+00  0.6000E+01  0.6000E+01
    -21.615  0.0000E+00  0.0000E+00  0.6000E+01  0.6000E+01
    -21.361  0.0000E+00  0.0000E+00  0.6000E+01  0.6000E+01
    -21.108  0.0000E+00  0.0000E+00  0.6000E+01  0.6000E+01
    -20.854  0.0000E+00  0.0000E+00  0.6000E+01  0.6000E+01
    -20.600  0.0000E+00  0.0000E+00  0.6000E+01  0.6000E+01
    -20.346  0.0000E+00  0.0000E+00  0.6000E+01  0.6000E+01
    -20.092  0.0000E+00  0.0000E+00  0.6000E+01  0.6000E+01
    -19.839  0.0000E+00  0.0000E+00  0.6000E+01  0.6000E+01
    -19.585  0.0000E+00  0.0000E+00  0.6000E+01  0.6000E+01
    -19.331  0.0000E+00  0.0000E+00  0.6000E+01  0.6000E+01
    -19.077  0.0000E+00  0.0000E+00  0.6000E+01  0.6000E+01
    -18.823  0.0000E+00  0.0000E+00  0.6000E+01  0.6000E+01
    -18.569  0.0000E+00  0.0000E+00  0.6000E+01  0.6000E+01
    -18.316  0.0000E+00  0.0000E+00  0.6000E+01  0.6000E+01
    -18.062  0.0000E+00  0.0000E+00  0.6000E+01  0.6000E+01
    -17.808  0.0000E+00  0.0000E+00  0.6000E+01  0.6000E+01
    -17.554  0.0000E+00  0.0000E+00  0.6000E+01  0.6000E+01
    -17.300  0.0000E+00  0.0000E+00  0.6000E+01  0.6000E+01
    -17.047  0.0000E+00  0.0000E+00  0.6000E+01  0.6000E+01
    -16.793  0.0000E+00  0.0000E+00  0.6000E+01  0.6000E+01
    -16.539  0.0000E+00  0.0000E+00  0.6000E+01  0.6000E+01
    -16.285  0.0000E+00  0.0000E+00  0.6000E+01  0.6000E+01
    -16.031  0.0000E+00  0.0000E+00  0.6000E+01  0.6000E+01
    -15.777  0.0000E+00  0.0000E+00  0.6000E+01  0.6000E+01
    -15.524  0.0000E+00  0.0000E+00  0.6000E+01  0.6000E+01
    -15.270  0.0000E+00  0.0000E+00  0.6000E+01  0.6000E+01
    -15.016  0.0000E+00  0.0000E+00  0.6000E+01  0.6000E+01
    -14.762  0.0000E+00  0.0000E+00  0.6000E+01  0.6000E+01
    -14.508  0.0000E+00  0.0000E+00  0.6000E+01  0.6000E+01
    -14.254  0.0000E+00  0.0000E+00  0.6000E+01  0.6000E+01
    -14.001  0.0000E+00  0.0000E+00  0.6000E+01  0.6000E+01
    -13.747  0.0000E+00  0.0000E+00  0.6000E+01  0.6000E+01
    -13.493  0.0000E+00  0.0000E+00  0.6000E+01  0.6000E+01
    -13.239  0.0000E+00  0.0000E+00  0.6000E+01  0.6000E+01
    -12.985  0.0000E+00  0.0000E+00  0.6000E+01  0.6000E+01
    -12.732  0.0000E+00  0.0000E+00  0.6000E+01  0.6000E+01
    -12.478  0.0000E+00  0.0000E+00  0.6000E+01  0.6000E+01
    -12.224  0.0000E+00  0.0000E+00  0.6000E+01  0.6000E+01
    -11.970  0.0000E+00  0.0000E+00  0.6000E+01  0.6000E+01
    -11.716  0.0000E+00  0.0000E+00  0.6000E+01  0.6000E+01
    -11.462  0.0000E+00  0.0000E+00  0.6000E+01  0.6000E+01
    -11.209  0.0000E+00  0.0000E+00  0.6000E+01  0.6000E+01
    -10.955  0.0000E+00  0.0000E+00  0.6000E+01  0.6000E+01
    -10.701  0.0000E+00  0.0000E+00  0.6000E+01  0.6000E+01
    -10.447  0.0000E+00  0.0000E+00  0.6000E+01  0.6000E+01
    -10.193  0.0000E+00  0.0000E+00  0.6000E+01  0.6000E+01
     -9.940  0.0000E+00  0.0000E+00  0.6000E+01  0.6000E+01
     -9.686  0.0000E+00  0.0000E+00  0.6000E+01  0.6000E+01
     -9.432  0.0000E+00  0.0000E+00  0.6000E+01  0.6000E+01
     -9.178  0.0000E+00  0.0000E+00  0.6000E+01  0.6000E+01
     -8.924  0.0000E+00  0.0000E+00  0.6000E+01  0.6000E+01
     -8.670  0.0000E+00  0.0000E+00  0.6000E+01  0.6000E+01
     -8.417  0.0000E+00  0.0000E+00  0.6000E+01  0.6000E+01
     -8.163  0.0000E+00  0.0000E+00  0.6000E+01  0.6000E+01
     -7.909  0.0000E+00  0.0000E+00  0.6000E+01  0.6000E+01
     -7.655  0.0000E+00  0.0000E+00  0.6000E+01  0.6000E+01
     -7.401  0.0000E+00  0.0000E+00  0.6000E+01  0.6000E+01
     -7.147  0.0000E+00  0.0000E+00  0.6000E+01  0.6000E+01
     -6.894  0.0000E+00  0.0000E+00  0.6000E+01  0.6000E+01
     -6.640  0.0000E+00  0.0000E+00  0.6000E+01  0.6000E+01
     -6.386  0.0000E+00  0.0000E+00  0.6000E+01  0.6000E+01
     -6.132  0.0000E+00  0.0000E+00  0.6000E+01  0.6000E+01
     -5.878  0.0000E+00  0.0000E+00  0.6000E+01  0.6000E+01
     -5.625  0.0000E+00  0.0000E+00  0.6000E+01  0.6000E+01
     -5.371  0.0000E+00  0.0000E+00  0.6000E+01  0.6000E+01
     -5.117  0.0000E+00  0.0000E+00  0.6000E+01  0.6000E+01
     -4.863  0.0000E+00  0.0000E+00  0.6000E+01  0.6000E+01
     -4.609  0.0000E+00  0.0000E+00  0.6000E+01  0.6000E+01
     -4.355  0.0000E+00  0.0000E+00  0.6000E+01  0.6000E+01
     -4.102  0.0000E+00  0.0000E+00  0.6000E+01  0.6000E+01
     -3.848  0.0000E+00  0.0000E+00  0.6000E+01  0.6000E+01
     -3.594  0.0000E+00  0.0000E+00  0.6000E+01  0.6000E+01
     -3.340  0.0000E+00  0.0000E+00  0.6000E+01  0.6000E+01
     -3.086  0.0000E+00  0.0000E+00  0.6000E+01  0.6000E+01
     -2.833  0.0000E+00  0.0000E+00  0.6000E+01  0.6000E+01
     -2.579  0.0000E+00  0.0000E+00  0.6000E+01  0.6000E+01
     -2.325  0.0000E+00  0.0000E+00  0.6000E+01  0.6000E+01
     -2.071  0.0000E+00  0.0000E+00  0.6000E+01  0.6000E+01
     -1.817  0.0000E+00  0.0000E+00  0.6000E+01  0.6000E+01
     -1.563  0.0000E+00  0.0000E+00  0.6000E+01  0.6000E+01
     -1.310  0.0000E+00  0.0000E+00  0.6000E+01  0.6000E+01
     -1.056  0.0000E+00  0.0000E+00  0.6000E+01  0.6000E+01
     -0.802  0.0000E+00  0.0000E+00  0.6000E+01  0.6000E+01
     -0.548  0.0000E+00  0.0000E+00  0.6000E+01  0.6000E+01
     -0.294  0.0000E+00  0.0000E+00  0.6000E+01  0.6000E+01
     -0.040  0.0000E+00  0.0000E+00  0.6000E+01  0.6000E+01
      0.213  0.0000E+00  0.0000E+00  0.6000E+01  0.6000E+01
      0.467  0.0000E+00  0.0000E+00  0.6000E+01  0.6000E+01
      0.721  0.0000E+00  0.0000E+00  0.6000E+01  0.6000E+01
      0.975  0.0000E+00  0.0000E+00  0.6000E+01  0.6000E+01
      1.229  0.0000E+00  0.0000E+00  0.6000E+01  0.6000E+01
      1.482  0.0000E+00  0.0000E+00  0.6000E+01  0.6000E+01
      1.736  0.0000E+00  0.0000E+00  0.6000E+01  0.6000E+01
      1.990  0.0000E+00  0.0000E+00  0.6000E+01  0.6000E+01
      2.244  0.0000E+00  0.0000E+00  0.6000E+01  0.6000E+01
      2.498  0.0000E+00  0.0000E+00  0.6000E+01  0.6000E+01
      2.752  0.0000E+00  0.0000E+00  0.6000E+01  0.6000E+01
      3.005  0.0000E+00  0.0000E+00  0.6000E+01  0.6000E+01
      3.259  0.0000E+00  0.0000E+00  0.6000E+01  0.6000E+01
      3.513  0.0000E+00  0.0000E+00  0.6000E+01  0.6000E+01
      3.767  0.0000E+00  0.0000E+00  0.6000E+01  0.6000E+01
      4.021  0.0000E+00  0.0000E+00  0.6000E+01  0.6000E+01
      4.275  0.0000E+00  0.0000E+00  0.6000E+01  0.6000E+01
      4.528  0.0000E+00  0.0000E+00  0.6000E+01  0.6000E+01
      4.782  0.0000E+00  0.0000E+00  0.6000E+01  0.6000E+01
      5.036  0.0000E+00  0.0000E+00  0.6000E+01  0.6000E+01
      5.290  0.0000E+00  0.0000E+00  0.6000E+01  0.6000E+01
      5.544  0.0000E+00  0.0000E+00  0.6000E+01  0.6000E+01
      5.797  0.0000E+00  0.0000E+00  0.6000E+01  0.6000E+01
      6.051  0.0000E+00  0.0000E+00  0.6000E+01  0.6000E+01
      6.305  0.0000E+00  0.0000E+00  0.6000E+01  0.6000E+01
      6.559  0.0000E+00  0.0000E+00  0.6000E+01  0.6000E+01
      6.813  0.0000E+00  0.0000E+00  0.6000E+01  0.6000E+01
      7.067  0.2998E-06  0.2988E-06  0.6000E+01  0.6000E+01
      7.320  0.4726E-04  0.4711E-04  0.6000E+01  0.6000E+01
      7.574  0.2459E-02  0.2455E-02  0.6001E+01  0.6001E+01
      7.828  0.1721E-01  0.1719E-01  0.6005E+01  0.6005E+01
      8.082  0.2595E-01  0.2595E-01  0.6012E+01  0.6012E+01
      8.336  0.3119E-01  0.3117E-01  0.6020E+01  0.6020E+01
      8.589  0.6057E-01  0.6059E-01  0.6035E+01  0.6035E+01
      8.843  0.2730E-01  0.2729E-01  0.6042E+01  0.6042E+01
      9.097  0.7315E-01  0.7313E-01  0.6061E+01  0.6061E+01
      9.351  0.7447E-01  0.7448E-01  0.6079E+01  0.6079E+01
      9.605  0.1228E+00  0.1227E+00  0.6111E+01  0.6111E+01
      9.859  0.1409E+00  0.1409E+00  0.6147E+01  0.6147E+01
     10.112  0.3990E+00  0.3988E+00  0.6249E+01  0.6249E+01
     10.366  0.6231E+00  0.6231E+00  0.6408E+01  0.6408E+01
     10.620  0.8357E+00  0.8357E+00  0.6621E+01  0.6621E+01
     10.874  0.9350E+00  0.9350E+00  0.6860E+01  0.6860E+01
     11.128  0.1225E+01  0.1225E+01  0.7174E+01  0.7174E+01
     11.382  0.1027E+01  0.1027E+01  0.7439E+01  0.7438E+01
     11.635  0.1118E+01  0.1118E+01  0.7726E+01  0.7726E+01
     11.889  0.1155E+01  0.1155E+01  0.8021E+01  0.8021E+01
     12.143  0.5919E+00  0.5921E+00  0.8173E+01  0.8173E+01
     12.397  0.6415E+00  0.6413E+00  0.8338E+01  0.8338E+01
     12.651  0.1589E+01  0.1589E+01  0.8742E+01  0.8742E+01
     12.904  0.1595E+01  0.1595E+01  0.9152E+01  0.9152E+01
     13.158  0.1034E+01  0.1034E+01  0.9419E+01  0.9419E+01
     13.412  0.1067E+01  0.1067E+01  0.9692E+01  0.9692E+01
     13.666  0.6398E+00  0.6398E+00  0.9857E+01  0.9857E+01
     13.920  0.9051E+00  0.9050E+00  0.1009E+02  0.1009E+02
     14.174  0.1172E+01  0.1172E+01  0.1039E+02  0.1039E+02
     14.427  0.1658E+01  0.1658E+01  0.1081E+02  0.1081E+02
     14.681  0.1284E+01  0.1284E+01  0.1114E+02  0.1114E+02
     14.935  0.7048E+00  0.7048E+00  0.1132E+02  0.1132E+02
     15.189  0.5711E+00  0.5711E+00  0.1147E+02  0.1147E+02
     15.443  0.4537E+00  0.4536E+00  0.1159E+02  0.1159E+02
     15.696  0.4935E+00  0.4936E+00  0.1171E+02  0.1171E+02
     15.950  0.3953E+00  0.3953E+00  0.1182E+02  0.1182E+02
     16.204  0.5270E+00  0.5270E+00  0.1195E+02  0.1195E+02
     16.458  0.5482E+00  0.5482E+00  0.1209E+02  0.1209E+02
     16.712  0.7897E+00  0.7897E+00  0.1229E+02  0.1229E+02
     16.966  0.9609E+00  0.9609E+00  0.1254E+02  0.1254E+02
     17.219  0.1166E+01  0.1166E+01  0.1283E+02  0.1283E+02
     17.473  0.1302E+01  0.1302E+01  0.1317E+02  0.1317E+02
     17.727  0.1395E+01  0.1395E+01  0.1353E+02  0.1353E+02
     17.981  0.1568E+01  0.1568E+01  0.1393E+02  0.1393E+02
     18.235  0.1710E+01  0.1710E+01  0.1437E+02  0.1437E+02
     18.489  0.1901E+01  0.1901E+01  0.1485E+02  0.1485E+02
     18.742  0.1652E+01  0.1653E+01  0.1528E+02  0.1528E+02
     18.996  0.1159E+01  0.1159E+01  0.1558E+02  0.1558E+02
     19.250  0.9888E+00  0.9888E+00  0.1583E+02  0.1583E+02
     19.504  0.6965E+00  0.6965E+00  0.1601E+02  0.1601E+02
     19.758  0.7165E+00  0.7166E+00  0.1619E+02  0.1619E+02
     20.011  0.8190E+00  0.8190E+00  0.1640E+02  0.1640E+02
     20.265  0.5340E+00  0.5339E+00  0.1654E+02  0.1654E+02
     20.519  0.2522E+00  0.2522E+00  0.1661E+02  0.1661E+02
     20.773  0.2658E+00  0.2658E+00  0.1667E+02  0.1667E+02
     21.027  0.1893E+00  0.1893E+00  0.1672E+02  0.1672E+02
     21.281  0.2467E+00  0.2466E+00  0.1679E+02  0.1679E+02
     21.534  0.2132E+00  0.2132E+00  0.1684E+02  0.1684E+02
     21.788  0.2410E+00  0.2412E+00  0.1690E+02  0.1690E+02
     22.042  0.3071E+00  0.3069E+00  0.1698E+02  0.1698E+02
     22.296  0.1104E+00  0.1104E+00  0.1701E+02  0.1701E+02
     22.550  0.7329E-01  0.7326E-01  0.1703E+02  0.1703E+02
     22.803  0.2294E+00  0.2294E+00  0.1709E+02  0.1709E+02
     23.057  0.3239E+00  0.3239E+00  0.1717E+02  0.1717E+02
     23.311  0.2691E+00  0.2692E+00  0.1724E+02  0.1724E+02
     23.565  0.2465E+01  0.2477E+01  0.1787E+02  0.1787E+02
     23.819  0.5620E+01  0.5609E+01  0.1929E+02  0.1929E+02
     24.073  0.1155E+00  0.1156E+00  0.1935E+02  0.1935E+02
     24.326  0.1793E+00  0.1792E+00  0.1940E+02  0.1940E+02
     24.580  0.2370E+00  0.2371E+00  0.1946E+02  0.1946E+02
     24.834  0.1790E+00  0.1789E+00  0.1950E+02  0.1950E+02
     25.088  0.1816E+00  0.1816E+00  0.1955E+02  0.1955E+02
     25.342  0.1766E+00  0.1766E+00  0.1960E+02  0.1960E+02
     25.596  0.1314E+00  0.1314E+00  0.1963E+02  0.1963E+02
     25.849  0.1626E+00  0.1626E+00  0.1967E+02  0.1967E+02
     26.103  0.1488E+00  0.1489E+00  0.1971E+02  0.1971E+02
     26.357  0.1587E+00  0.1585E+00  0.1975E+02  0.1975E+02
     26.611  0.6766E-01  0.6765E-01  0.1977E+02  0.1977E+02
     26.865  0.9371E-01  0.9374E-01  0.1979E+02  0.1979E+02
     27.118  0.1684E+00  0.1684E+00  0.1984E+02  0.1984E+02
     27.372  0.2029E+00  0.2028E+00  0.1989E+02  0.1989E+02
     27.626  0.8649E-02  0.8632E-02  0.1989E+02  0.1989E+02
     27.880  0.6682E-01  0.6682E-01  0.1991E+02  0.1991E+02
     28.134  0.6612E-01  0.6610E-01  0.1993E+02  0.1993E+02
     28.388  0.3395E-01  0.3393E-01  0.1994E+02  0.1994E+02
     28.641  0.1136E+00  0.1136E+00  0.1996E+02  0.1996E+02
     28.895  0.6076E-01  0.6076E-01  0.1998E+02  0.1998E+02
     29.149  0.3574E-01  0.3577E-01  0.1999E+02  0.1999E+02
     29.403  0.2009E-01  0.2012E-01  0.1999E+02  0.1999E+02
     29.657  0.5718E-01  0.5716E-01  0.2001E+02  0.2001E+02
     29.911  0.1363E+00  0.1364E+00  0.2004E+02  0.2004E+02
     30.164  0.1312E+00  0.1311E+00  0.2008E+02  0.2008E+02
     30.418  0.3189E+00  0.3189E+00  0.2016E+02  0.2016E+02
     30.672  0.4902E+00  0.4902E+00  0.2028E+02  0.2028E+02
     30.926  0.5188E+00  0.5188E+00  0.2042E+02  0.2042E+02
     31.180  0.6410E+00  0.6408E+00  0.2058E+02  0.2058E+02
     31.433  0.2261E+00  0.2262E+00  0.2064E+02  0.2064E+02
     31.687  0.2952E+00  0.2953E+00  0.2072E+02  0.2072E+02
     31.941  0.5188E+00  0.5187E+00  0.2085E+02  0.2085E+02
     32.195  0.3150E+00  0.3149E+00  0.2093E+02  0.2093E+02
     32.449  0.3848E+00  0.3848E+00  0.2103E+02  0.2103E+02
     32.703  0.3211E+00  0.3211E+00  0.2111E+02  0.2111E+02
     32.956  0.5515E+00  0.5515E+00  0.2125E+02  0.2125E+02
     33.210  0.4846E+00  0.4846E+00  0.2138E+02  0.2138E+02
     33.464  0.3758E+00  0.3757E+00  0.2147E+02  0.2147E+02
     33.718  0.2066E+00  0.2067E+00  0.2153E+02  0.2153E+02
     33.972  0.4407E+00  0.4407E+00  0.2164E+02  0.2164E+02
     34.225  0.4121E+00  0.4122E+00  0.2175E+02  0.2175E+02
     34.479  0.5624E+00  0.5623E+00  0.2189E+02  0.2189E+02
     34.733  0.3362E+00  0.3363E+00  0.2198E+02  0.2198E+02
     34.987  0.3395E+00  0.3395E+00  0.2206E+02  0.2206E+02
     35.241  0.4172E+00  0.4173E+00  0.2217E+02  0.2217E+02
     35.495  0.3940E+00  0.3940E+00  0.2227E+02  0.2227E+02
     35.748  0.5854E+00  0.5854E+00  0.2242E+02  0.2242E+02
     36.002  0.5143E+00  0.5139E+00  0.2255E+02  0.2255E+02
     36.256  0.6762E+00  0.6763E+00  0.2273E+02  0.2273E+02
     36.510  0.2796E+00  0.2797E+00  0.2280E+02  0.2280E+02
     36.764  0.3332E+00  0.3329E+00  0.2289E+02  0.2289E+02
     37.018  0.4838E+00  0.4837E+00  0.2301E+02  0.2301E+02
     37.271  0.4895E+00  0.4872E+00  0.2314E+02  0.2314E+02
     37.525  0.2088E+00  0.2114E+00  0.2319E+02  0.2319E+02
     37.779  0.2749E+00  0.2745E+00  0.2326E+02  0.2326E+02
     38.033  0.4849E+00  0.4833E+00  0.2338E+02  0.2338E+02
     38.287  0.3200E+00  0.2850E+00  0.2347E+02  0.2346E+02
     38.540  0.2049E+00  0.1760E+00  0.2352E+02  0.2350E+02
     38.794  0.5129E+00  0.4700E+00  0.2365E+02  0.2362E+02
     39.048  0.4137E+00  0.4380E+00  0.2376E+02  0.2374E+02
     39.302  0.1439E+00  0.1153E+00  0.2380E+02  0.2377E+02
     39.556  0.3045E+00  0.2673E+00  0.2387E+02  0.2384E+02
     39.810  0.3069E+00  0.2327E+00  0.2395E+02  0.2390E+02
     40.063  0.1040E+00  0.1016E+00  0.2398E+02  0.2392E+02
     40.317  0.7496E-01  0.1507E+00  0.2400E+02  0.2396E+02
     40.571  0.2244E-02  0.4463E-01  0.2400E+02  0.2397E+02
     40.825  0.0000E+00  0.6687E-01  0.2400E+02  0.2399E+02
     41.079  0.0000E+00  0.3976E-01  0.2400E+02  0.2400E+02
     41.332  0.0000E+00  0.0000E+00  0.2400E+02  0.2400E+02
     41.586  0.0000E+00  0.0000E+00  0.2400E+02  0.2400E+02
     41.840  0.0000E+00  0.0000E+00  0.2400E+02  0.2400E+02
     42.094  0.0000E+00  0.0000E+00  0.2400E+02  0.2400E+02
     42.348  0.0000E+00  0.0000E+00  0.2400E+02  0.2400E+02
     42.602  0.0000E+00  0.0000E+00  0.2400E+02  0.2400E+02
     42.855  0.0000E+00  0.0000E+00  0.2400E+02  0.2400E+02
     43.109  0.0000E+00  0.0000E+00  0.2400E+02  0.2400E+02
     43.363  0.0000E+00  0.0000E+00  0.2400E+02  0.2400E+02
     43.617  0.0000E+00  0.0000E+00  0.2400E+02  0.2400E+02
     43.871  0.0000E+00  0.0000E+00  0.2400E+02  0.2400E+02
     44.125  0.0000E+00  0.0000E+00  0.2400E+02  0.2400E+02
     44.378  0.0000E+00  0.0000E+00  0.2400E+02  0.2400E+02
     44.37834597    -31.76818458  301     16.30811649      1.00000000
    -31.768  0.0000E+00  0.0000E+00  0.0000E+00  0.0000E+00  0.0000E+00  0.0000E+00  0.0000E+00  0.0000E+00  0.0000E+00  0.0000E+00  0.0000E+00  0.0000E+00  0.0000E+00  0.0000E+00  0.0000E+00  0.0000E+00  0.0000E+00  0.0000E+00
    -31.514  0.0000E+00  0.0000E+00  0.0000E+00  0.0000E+00  0.0000E+00  0.0000E+00  0.0000E+00  0.0000E+00  0.0000E+00  0.0000E+00  0.0000E+00  0.0000E+00  0.0000E+00  0.0000E+00  0.0000E+00  0.0000E+00  0.0000E+00  0.0000E+00
    -31.261  0.0000E+00  0.0000E+00  0.0000E+00  0.0000E+00  0.0000E+00  0.0000E+00  0.0000E+00  0.0000E+00  0.0000E+00  0.0000E+00  0.0000E+00  0.0000E+00  0.0000E+00  0.0000E+00  0.0000E+00  0.0000E+00  0.0000E+00  0.0000E+00
    -31.007  0.0000E+00  0.0000E+00  0.0000E+00  0.0000E+00  0.0000E+00  0.0000E+00  0.0000E+00  0.0000E+00  0.0000E+00  0.0000E+00  0.0000E+00  0.0000E+00  0.0000E+00  0.0000E+00  0.0000E+00  0.0000E+00  0.0000E+00  0.0000E+00
    -30.753  0.0000E+00  0.0000E+00  0.0000E+00  0.0000E+00  0.0000E+00  0.0000E+00  0.0000E+00  0.0000E+00  0.0000E+00  0.0000E+00  0.0000E+00  0.0000E+00  0.0000E+00  0.0000E+00  0.0000E+00  0.0000E+00  0.0000E+00  0.0000E+00
    -30.499  0.0000E+00  0.0000E+00  0.0000E+00  0.0000E+00  0.0000E+00  0.0000E+00  0.0000E+00  0.0000E+00  0.0000E+00  0.0000E+00  0.0000E+00  0.0000E+00  0.0000E+00  0.0000E+00  0.0000E+00  0.0000E+00  0.0000E+00  0.0000E+00
    -30.245  0.0000E+00  0.0000E+00  0.0000E+00  0.0000E+00  0.0000E+00  0.0000E+00  0.0000E+00  0.0000E+00  0.0000E+00  0.0000E+00  0.0000E+00  0.0000E+00  0.0000E+00  0.0000E+00  0.0000E+00  0.0000E+00  0.0000E+00  0.0000E+00
    -29.991  0.0000E+00  0.0000E+00  0.0000E+00  0.0000E+00  0.0000E+00  0.0000E+00  0.0000E+00  0.0000E+00  0.0000E+00  0.0000E+00  0.0000E+00  0.0000E+00  0.0000E+00  0.0000E+00  0.0000E+00  0.0000E+00  0.0000E+00  0.0000E+00
    -29.738  0.0000E+00  0.0000E+00  0.0000E+00  0.0000E+00  0.0000E+00  0.0000E+00  0.0000E+00  0.0000E+00  0.0000E+00  0.0000E+00  0.0000E+00  0.0000E+00  0.0000E+00  0.0000E+00  0.0000E+00  0.0000E+00  0.0000E+00  0.0000E+00
    -29.484  0.0000E+00  0.0000E+00  0.0000E+00  0.0000E+00  0.0000E+00  0.0000E+00  0.0000E+00  0.0000E+00  0.0000E+00  0.0000E+00  0.0000E+00  0.0000E+00  0.0000E+00  0.0000E+00  0.0000E+00  0.0000E+00  0.0000E+00  0.0000E+00
    -29.230  0.0000E+00  0.0000E+00  0.0000E+00  0.0000E+00  0.0000E+00  0.0000E+00  0.0000E+00  0.0000E+00  0.0000E+00  0.0000E+00  0.0000E+00  0.0000E+00  0.0000E+00  0.0000E+00  0.0000E+00  0.0000E+00  0.0000E+00  0.0000E+00
    -28.976  0.0000E+00  0.0000E+00  0.0000E+00  0.0000E+00  0.0000E+00  0.0000E+00  0.0000E+00  0.0000E+00  0.0000E+00  0.0000E+00  0.0000E+00  0.0000E+00  0.0000E+00  0.0000E+00  0.0000E+00  0.0000E+00  0.0000E+00  0.0000E+00
    -28.722  0.3661E-08  0.3676E-08  0.4997E-05  0.5017E-05  0.4997E-05  0.5017E-05  0.4997E-05  0.5017E-05  0.2593E-08  0.2604E-08  0.2593E-08  0.2604E-08  0.1654E-08  0.1661E-08  0.2593E-08  0.2604E-08  0.1654E-08  0.1661E-08
    -28.469  0.6240E-06  0.6265E-06  0.7967E-03  0.7999E-03  0.7967E-03  0.7999E-03  0.7967E-03  0.7999E-03  0.4364E-06  0.4381E-06  0.4364E-06  0.4381E-06  0.2765E-06  0.2777E-06  0.4364E-06  0.4381E-06  0.2765E-06  0.2777E-06
    -28.215  0.5737E-04  0.5752E-04  0.4930E-01  0.4941E-01  0.4930E-01  0.4941E-01  0.4930E-01  0.4941E-01  0.3904E-04  0.3914E-04  0.3904E-04  0.3914E-04  0.2453E-04  0.2460E-04  0.3904E-04  0.3914E-04  0.2453E-04  0.2460E-04
    -27.961  0.6993E-03  0.7003E-03  0.2538E+00  0.2540E+00  0.2538E+00  0.2540E+00  0.2538E+00  0.2540E+00  0.4115E-03  0.4120E-03  0.4115E-03  0.4120E-03  0.2464E-03  0.2466E-03  0.4115E-03  0.4120E-03  0.2464E-03  0.2466E-03
    -27.707  0.2216E-02  0.2217E-02  0.4631E+00  0.4631E+00  0.4631E+00  0.4631E+00  0.4631E+00  0.4631E+00  0.9585E-03  0.9584E-03  0.9585E-03  0.9584E-03  0.6088E-03  0.6087E-03  0.9585E-03  0.9584E-03  0.6088E-03  0.6087E-03
    -27.453  0.2213E-02  0.2213E-02  0.3032E+00  0.3031E+00  0.3032E+00  0.3031E+00  0.3032E+00  0.3031E+00  0.5962E-03  0.5961E-03  0.5962E-03  0.5961E-03  0.3908E-03  0.3905E-03  0.5962E-03  0.5961E-03  0.3908E-03  0.3905E-03
    -27.199  0.1684E-02  0.1683E-02  0.2764E+00  0.2765E+00  0.2764E+00  0.2765E+00  0.2764E+00  0.2765E+00  0.9312E-03  0.9319E-03  0.9312E-03  0.9319E-03  0.2132E-03  0.2131E-03  0.9312E-03  0.9319E-03  0.2132E-03  0.2131E-03
    -26.946  0.1371E-02  0.1370E-02  0.3559E+00  0.3560E+00  0.3559E+00  0.3560E+00  0.3559E+00  0.3560E+00  0.1694E-02  0.1695E-02  0.1694E-02  0.1695E-02  0.1972E-03  0.1972E-03  0.1694E-02  0.1695E-02  0.1972E-03  0.1972E-03
    -26.692  0.1144E-02  0.1144E-02  0.4572E+00  0.4574E+00  0.4572E+00  0.4574E+00  0.4572E+00  0.4574E+00  0.1997E-02  0.1997E-02  0.1997E-02  0.1997E-02  0.1684E-03  0.1683E-03  0.1997E-02  0.1997E-02  0.1684E-03  0.1683E-03
    -26.438  0.9839E-03  0.9837E-03  0.4861E+00  0.4861E+00  0.4861E+00  0.4861E+00  0.4861E+00  0.4861E+00  0.1770E-02  0.1770E-02  0.1770E-02  0.1770E-02  0.1055E-03  0.1055E-03  0.1770E-02  0.1770E-02  0.1055E-03  0.1055E-03
    -26.184  0.9517E-03  0.9514E-03  0.5787E+00  0.5790E+00  0.5787E+00  0.5790E+00  0.5787E+00  0.5790E+00  0.1461E-02  0.1461E-02  0.1461E-02  0.1461E-02  0.7208E-04  0.7206E-04  0.1461E-02  0.1461E-02  0.7208E-04  0.7206E-04
    -25.930  0.4868E-03  0.4859E-03  0.5832E+00  0.5828E+00  0.5832E+00  0.5828E+00  0.5832E+00  0.5828E+00  0.7236E-03  0.7224E-03  0.7236E-03  0.7224E-03  0.3468E-04  0.3460E-04  0.7236E-03  0.7224E-03  0.3468E-04  0.3460E-04
    -25.676  0.2042E-04  0.2031E-04  0.6594E-01  0.6566E-01  0.6594E-01  0.6566E-01  0.6594E-01  0.6566E-01  0.3214E-04  0.3199E-04  0.3214E-04  0.3199E-04  0.1408E-05  0.1400E-05  0.3214E-04  0.3199E-04  0.1408E-05  0.1400E-05
    -25.423  0.0000E+00  0.0000E+00  0.0000E+00  0.0000E+00  0.0000E+00  0.0000E+00  0.0000E+00  0.0000E+00  0.0000E+00  0.0000E+00  0.0000E+00  0.0000E+00  0.0000E+00  0.0000E+00  0.0000E+00  0.0000E+00  0.0000E+00  0.0000E+00
    -25.169  0.0000E+00  0.0000E+00  0.0000E+00  0.0000E+00  0.0000E+00  0.0000E+00  0.0000E+00  0.0000E+00  0.0000E+00  0.0000E+00  0.0000E+00  0.0000E+00  0.0000E+00  0.0000E+00  0.0000E+00  0.0000E+00  0.0000E+00  0.0000E+00
    -24.915  0.0000E+00  0.0000E+00  0.0000E+00  0.0000E+00  0.0000E+00  0.0000E+00  0.0000E+00  0.0000E+00  0.0000E+00  0.0000E+00  0.0000E+00  0.0000E+00  0.0000E+00  0.0000E+00  0.0000E+00  0.0000E+00  0.0000E+00  0.0000E+00
    -24.661  0.0000E+00  0.0000E+00  0.0000E+00  0.0000E+00  0.0000E+00  0.0000E+00  0.0000E+00  0.0000E+00  0.0000E+00  0.0000E+00  0.0000E+00  0.0000E+00  0.0000E+00  0.0000E+00  0.0000E+00  0.0000E+00  0.0000E+00  0.0000E+00
    -24.407  0.0000E+00  0.0000E+00  0.0000E+00  0.0000E+00  0.0000E+00  0.0000E+00  0.0000E+00  0.0000E+00  0.0000E+00  0.0000E+00  0.0000E+00  0.0000E+00  0.0000E+00  0.0000E+00  0.0000E+00  0.0000E+00  0.0000E+00  0.0000E+00
    -24.154  0.0000E+00  0.0000E+00  0.0000E+00  0.0000E+00  0.0000E+00  0.0000E+00  0.0000E+00  0.0000E+00  0.0000E+00  0.0000E+00  0.0000E+00  0.0000E+00  0.0000E+00  0.0000E+00  0.0000E+00  0.0000E+00  0.0000E+00  0.0000E+00
    -23.900  0.0000E+00  0.0000E+00  0.0000E+00  0.0000E+00  0.0000E+00  0.0000E+00  0.0000E+00  0.0000E+00  0.0000E+00  0.0000E+00  0.0000E+00  0.0000E+00  0.0000E+00  0.0000E+00  0.0000E+00  0.0000E+00  0.0000E+00  0.0000E+00
    -23.646  0.0000E+00  0.0000E+00  0.0000E+00  0.0000E+00  0.0000E+00  0.0000E+00  0.0000E+00  0.0000E+00  0.0000E+00  0.0000E+00  0.0000E+00  0.0000E+00  0.0000E+00  0.0000E+00  0.0000E+00  0.0000E+00  0.0000E+00  0.0000E+00
    -23.392  0.0000E+00  0.0000E+00  0.0000E+00  0.0000E+00  0.0000E+00  0.0000E+00  0.0000E+00  0.0000E+00  0.0000E+00  0.0000E+00  0.0000E+00  0.0000E+00  0.0000E+00  0.0000E+00  0.0000E+00  0.0000E+00  0.0000E+00  0.0000E+00
    -23.138  0.0000E+00  0.0000E+00  0.0000E+00  0.0000E+00  0.0000E+00  0.0000E+00  0.0000E+00  0.0000E+00  0.0000E+00  0.0000E+00  0.0000E+00  0.0000E+00  0.0000E+00  0.0000E+00  0.0000E+00  0.0000E+00  0.0000E+00  0.0000E+00
    -22.884  0.0000E+00  0.0000E+00  0.0000E+00  0.0000E+00  0.0000E+00  0.0000E+00  0.0000E+00  0.0000E+00  0.0000E+00  0.0000E+00  0.0000E+00  0.0000E+00  0.0000E+00  0.0000E+00  0.0000E+00  0.0000E+00  0.0000E+00  0.0000E+00
    -22.631  0.0000E+00  0.0000E+00  0.0000E+00  0.0000E+00  0.0000E+00  0.0000E+00  0.0000E+00  0.0000E+00  0.0000E+00  0.0000E+00  0.0000E+00  0.0000E+00  0.0000E+00  0.0000E+00  0.0000E+00  0.0000E+00  0.0000E+00  0.0000E+00
    -22.377  0.0000E+00  0.0000E+00  0.0000E+00  0.0000E+00  0.0000E+00  0.0000E+00  0.0000E+00  0.0000E+00  0.0000E+00  0.0000E+00  0.0000E+00  0.0000E+00  0.0000E+00  0.0000E+00  0.0000E+00  0.0000E+00  0.0000E+00  0.0000E+00
    -22.123  0.0000E+00  0.0000E+00  0.0000E+00  0.0000E+00  0.0000E+00  0.0000E+00  0.0000E+00  0.0000E+00  0.0000E+00  0.0000E+00  0.0000E+00  0.0000E+00  0.0000E+00  0.0000E+00  0.0000E+00  0.0000E+00  0.0000E+00  0.0000E+00
    -21.869  0.0000E+00  0.0000E+00  0.0000E+00  0.0000E+00  0.0000E+00  0.0000E+00  0.0000E+00  0.0000E+00  0.0000E+00  0.0000E+00  0.0000E+00  0.0000E+00  0.0000E+00  0.0000E+00  0.0000E+00  0.0000E+00  0.0000E+00  0.0000E+00
    -21.615  0.0000E+00  0.0000E+00  0.0000E+00  0.0000E+00  0.0000E+00  0.0000E+00  0.0000E+00  0.0000E+00  0.0000E+00  0.0000E+00  0.0000E+00  0.0000E+00  0.0000E+00  0.0000E+00  0.0000E+00  0.0000E+00  0.0000E+00  0.0000E+00
    -21.361  0.0000E+00  0.0000E+00  0.0000E+00  0.0000E+00  0.0000E+00  0.0000E+00  0.0000E+00  0.0000E+00  0.0000E+00  0.0000E+00  0.0000E+00  0.0000E+00  0.0000E+00  0.0000E+00  0.0000E+00  0.0000E+00  0.0000E+00  0.0000E+00
    -21.108  0.0000E+00  0.0000E+00  0.0000E+00  0.0000E+00  0.0000E+00  0.0000E+00  0.0000E+00  0.0000E+00  0.0000E+00  0.0000E+00  0.0000E+00  0.0000E+00  0.0000E+00  0.0000E+00  0.0000E+00  0.0000E+00  0.0000E+00  0.0000E+00
    -20.854  0.0000E+00  0.0000E+00  0.0000E+00  0.0000E+00  0.0000E+00  0.0000E+00  0.0000E+00  0.0000E+00  0.0000E+00  0.0000E+00  0.0000E+00  0.0000E+00  0.0000E+00  0.0000E+00  0.0000E+00  0.0000E+00  0.0000E+00  0.0000E+00
    -20.600  0.0000E+00  0.0000E+00  0.0000E+00  0.0000E+00  0.0000E+00  0.0000E+00  0.0000E+00  0.0000E+00  0.0000E+00  0.0000E+00  0.0000E+00  0.0000E+00  0.0000E+00  0.0000E+00  0.0000E+00  0.0000E+00  0.0000E+00  0.0000E+00
    -20.346  0.0000E+00  0.0000E+00  0.0000E+00  0.0000E+00  0.0000E+00  0.0000E+00  0.0000E+00  0.0000E+00  0.0000E+00  0.0000E+00  0.0000E+00  0.0000E+00  0.0000E+00  0.0000E+00  0.0000E+00  0.0000E+00  0.0000E+00  0.0000E+00
    -20.092  0.0000E+00  0.0000E+00  0.0000E+00  0.0000E+00  0.0000E+00  0.0000E+00  0.0000E+00  0.0000E+00  0.0000E+00  0.0000E+00  0.0000E+00  0.0000E+00  0.0000E+00  0.0000E+00  0.0000E+00  0.0000E+00  0.0000E+00  0.0000E+00
    -19.839  0.0000E+00  0.0000E+00  0.0000E+00  0.0000E+00  0.0000E+00  0.0000E+00  0.0000E+00  0.0000E+00  0.0000E+00  0.0000E+00  0.0000E+00  0.0000E+00  0.0000E+00  0.0000E+00  0.0000E+00  0.0000E+00  0.0000E+00  0.0000E+00
    -19.585  0.0000E+00  0.0000E+00  0.0000E+00  0.0000E+00  0.0000E+00  0.0000E+00  0.0000E+00  0.0000E+00  0.0000E+00  0.0000E+00  0.0000E+00  0.0000E+00  0.0000E+00  0.0000E+00  0.0000E+00  0.0000E+00  0.0000E+00  0.0000E+00
    -19.331  0.0000E+00  0.0000E+00  0.0000E+00  0.0000E+00  0.0000E+00  0.0000E+00  0.0000E+00  0.0000E+00  0.0000E+00  0.0000E+00  0.0000E+00  0.0000E+00  0.0000E+00  0.0000E+00  0.0000E+00  0.0000E+00  0.0000E+00  0.0000E+00
    -19.077  0.0000E+00  0.0000E+00  0.0000E+00  0.0000E+00  0.0000E+00  0.0000E+00  0.0000E+00  0.0000E+00  0.0000E+00  0.0000E+00  0.0000E+00  0.0000E+00  0.0000E+00  0.0000E+00  0.0000E+00  0.0000E+00  0.0000E+00  0.0000E+00