   2   2   1   0
  0.8977139E+01  0.2618521E-09  0.2618521E-09  0.2618521E-09  0.5000000E-15
  1.000000000000000E-004
  CAR 
 unknown system                          
     41.71085770    -32.62484832  301     15.08240669      1.00000000
    -32.625  0.0000E+00  0.0000E+00  0.0000E+00  0.0000E+00
    -32.377  0.0000E+00  0.0000E+00  0.0000E+00  0.0000E+00
    -32.129  0.0000E+00  0.0000E+00  0.0000E+00  0.0000E+00
    -31.881  0.0000E+00  0.0000E+00  0.0000E+00  0.0000E+00
    -31.634  0.0000E+00  0.0000E+00  0.0000E+00  0.0000E+00
    -31.386  0.0000E+00  0.0000E+00  0.0000E+00  0.0000E+00
    -31.138  0.0000E+00  0.0000E+00  0.0000E+00  0.0000E+00
    -30.890  0.0000E+00  0.0000E+00  0.0000E+00  0.0000E+00
    -30.643  0.0000E+00  0.0000E+00  0.0000E+00  0.0000E+00
    -30.395  0.0000E+00  0.0000E+00  0.0000E+00  0.0000E+00
    -30.147  0.0000E+00  0.0000E+00  0.0000E+00  0.0000E+00
    -29.899  0.0000E+00  0.0000E+00  0.0000E+00  0.0000E+00
    -29.651  0.4842E-04  0.4883E-04  0.1200E-04  0.1210E-04
    -29.404  0.6948E-02  0.7006E-02  0.1734E-02  0.1748E-02
    -29.156  0.4023E+00  0.4041E+00  0.1014E+00  0.1019E+00
    -28.908  0.2191E+01  0.2195E+01  0.6442E+00  0.6457E+00
    -28.660  0.3100E+01  0.3098E+01  0.1416E+01  0.1417E+01
    -28.412  0.2016E+01  0.2016E+01  0.1925E+01  0.1926E+01
    -28.165  0.2417E+01  0.2418E+01  0.2528E+01  0.2529E+01
    -27.917  0.3251E+01  0.3253E+01  0.3340E+01  0.3341E+01
    -27.669  0.3520E+01  0.3520E+01  0.4220E+01  0.4222E+01
    -27.421  0.4473E+01  0.4476E+01  0.5340E+01  0.5342E+01
    -27.174  0.2546E+01  0.2536E+01  0.5978E+01  0.5979E+01
    -26.926  0.4535E-01  0.4490E-01  0.6000E+01  0.6000E+01
    -26.678  0.0000E+00  0.0000E+00  0.6000E+01  0.6000E+01
    -26.430  0.0000E+00  0.0000E+00  0.6000E+01  0.6000E+01
    -26.182  0.0000E+00  0.0000E+00  0.6000E+01  0.6000E+01
    -25.935  0.0000E+00  0.0000E+00  0.6000E+01  0.6000E+01
    -25.687  0.0000E+00  0.0000E+00  0.6000E+01  0.6000E+01
    -25.439  0.0000E+00  0.0000E+00  0.6000E+01  0.6000E+01
    -25.191  0.0000E+00  0.0000E+00  0.6000E+01  0.6000E+01
    -24.943  0.0000E+00  0.0000E+00  0.6000E+01  0.6000E+01
    -24.696  0.0000E+00  0.0000E+00  0.6000E+01  0.6000E+01
    -24.448  0.0000E+00  0.0000E+00  0.6000E+01  0.6000E+01
    -24.200  0.0000E+00  0.0000E+00  0.6000E+01  0.6000E+01
    -23.952  0.0000E+00  0.0000E+00  0.6000E+01  0.6000E+01
    -23.705  0.0000E+00  0.0000E+00  0.6000E+01  0.6000E+01
    -23.457  0.0000E+00  0.0000E+00  0.6000E+01  0.6000E+01
    -23.209  0.0000E+00  0.0000E+00  0.6000E+01  0.6000E+01
    -22.961  0.0000E+00  0.0000E+00  0.6000E+01  0.6000E+01
    -22.713  0.0000E+00  0.0000E+00  0.6000E+01  0.6000E+01
    -22.466  0.0000E+00  0.0000E+00  0.6000E+01  0.6000E+01
    -22.218  0.0000E+00  0.0000E+00  0.6000E+01  0.6000E+01
    -21.970  0.0000E+00  0.0000E+00  0.6000E+01  0.6000E+01
    -21.722  0.0000E+00  0.0000E+00  0.6000E+01  0.6000E+01
    -21.474  0.0000E+00  0.0000E+00  0.6000E+01  0.6000E+01
    -21.227  0.0000E+00  0.0000E+00  0.6000E+01  0.6000E+01
    -20.979  0.0000E+00  0.0000E+00  0.6000E+01  0.6000E+01
    -20.731  0.0000E+00  0.0000E+00  0.6000E+01  0.6000E+01
    -20.483  0.0000E+00  0.0000E+00  0.6000E+01  0.6000E+01
    -20.236  0.0000E+00  0.0000E+00  0.6000E+01  0.6000E+01
    -19.988  0.0000E+00  0.0000E+00  0.6000E+01  0.6000E+01
    -19.740  0.0000E+00  0.0000E+00  0.6000E+01  0.6000E+01
    -19.492  0.0000E+00  0.0000E+00  0.6000E+01  0.6000E+01
    -19.244  0.0000E+00  0.0000E+00  0.6000E+01  0.6000E+01
    -18.997  0.0000E+00  0.0000E+00  0.6000E+01  0.6000E+01
    -18.749  0.0000E+00  0.0000E+00  0.6000E+01  0.6000E+01
    -18.501  0.0000E+00  0.0000E+00  0.6000E+01  0.6000E+01
    -18.253  0.0000E+00  0.0000E+00  0.6000E+01  0.6000E+01
    -18.005  0.0000E+00  0.0000E+00  0.6000E+01  0.6000E+01
    -17.758  0.0000E+00  0.0000E+00  0.6000E+01  0.6000E+01
    -17.510  0.0000E+00  0.0000E+00  0.6000E+01  0.6000E+01
    -17.262  0.0000E+00  0.0000E+00  0.6000E+01  0.6000E+01
    -17.014  0.0000E+00  0.0000E+00  0.6000E+01  0.6000E+01
    -16.767  0.0000E+00  0.0000E+00  0.6000E+01  0.6000E+01
    -16.519  0.0000E+00  0.0000E+00  0.6000E+01  0.6000E+01
    -16.271  0.0000E+00  0.0000E+00  0.6000E+01  0.6000E+01
    -16.023  0.0000E+00  0.0000E+00  0.6000E+01  0.6000E+01
    -15.775  0.0000E+00  0.0000E+00  0.6000E+01  0.6000E+01
    -15.528  0.0000E+00  0.0000E+00  0.6000E+01  0.6000E+01
    -15.280  0.0000E+00  0.0000E+00  0.6000E+01  0.6000E+01
    -15.032  0.0000E+00  0.0000E+00  0.6000E+01  0.6000E+01
    -14.784  0.0000E+00  0.0000E+00  0.6000E+01  0.6000E+01
    -14.536  0.0000E+00  0.0000E+00  0.6000E+01  0.6000E+01
    -14.289  0.0000E+00  0.0000E+00  0.6000E+01  0.6000E+01
    -14.041  0.0000E+00  0.0000E+00  0.6000E+01  0.6000E+01
    -13.793  0.0000E+00  0.0000E+00  0.6000E+01  0.6000E+01
    -13.545  0.0000E+00  0.0000E+00  0.6000E+01  0.6000E+01
    -13.298  0.0000E+00  0.0000E+00  0.6000E+01  0.6000E+01
    -13.050  0.0000E+00  0.0000E+00  0.6000E+01  0.6000E+01
    -12.802  0.0000E+00  0.0000E+00  0.6000E+01  0.6000E+01
    -12.554  0.0000E+00  0.0000E+00  0.6000E+01  0.6000E+01
    -12.306  0.0000E+00  0.0000E+00  0.6000E+01  0.6000E+01
    -12.059  0.0000E+00  0.0000E+00  0.6000E+01  0.6000E+01
    -11.811  0.0000E+00  0.0000E+00  0.6000E+01  0.6000E+01
    -11.563  0.0000E+00  0.0000E+00  0.6000E+01  0.6000E+01
    -11.315  0.0000E+00  0.0000E+00  0.6000E+01  0.6000E+01
    -11.067  0.0000E+00  0.0000E+00  0.6000E+01  0.6000E+01
    -10.820  0.0000E+00  0.0000E+00  0.6000E+01  0.6000E+01
    -10.572  0.0000E+00  0.0000E+00  0.6000E+01  0.6000E+01
    -10.324  0.0000E+00  0.0000E+00  0.6000E+01  0.6000E+01
    -10.076  0.0000E+00  0.0000E+00  0.6000E+01  0.6000E+01
     -9.829  0.0000E+00  0.0000E+00  0.6000E+01  0.6000E+01
     -9.581  0.0000E+00  0.0000E+00  0.6000E+01  0.6000E+01
     -9.333  0.0000E+00  0.0000E+00  0.6000E+01  0.6000E+01
     -9.085  0.0000E+00  0.0000E+00  0.6000E+01  0.6000E+01
     -8.837  0.0000E+00  0.0000E+00  0.6000E+01  0.6000E+01
     -8.590  0.0000E+00  0.0000E+00  0.6000E+01  0.6000E+01
     -8.342  0.0000E+00  0.0000E+00  0.6000E+01  0.6000E+01
     -8.094  0.0000E+00  0.0000E+00  0.6000E+01  0.6000E+01
     -7.846  0.0000E+00  0.0000E+00  0.6000E+01  0.6000E+01
     -7.598  0.0000E+00  0.0000E+00  0.6000E+01  0.6000E+01
     -7.351  0.0000E+00  0.0000E+00  0.6000E+01  0.6000E+01
     -7.103  0.0000E+00  0.0000E+00  0.6000E+01  0.6000E+01
     -6.855  0.0000E+00  0.0000E+00  0.6000E+01  0.6000E+01
     -6.607  0.0000E+00  0.0000E+00  0.6000E+01  0.6000E+01
     -6.360  0.0000E+00  0.0000E+00  0.6000E+01  0.6000E+01
     -6.112  0.0000E+00  0.0000E+00  0.6000E+01  0.6000E+01
     -5.864  0.0000E+00  0.0000E+00  0.6000E+01  0.6000E+01
     -5.616  0.0000E+00  0.0000E+00  0.6000E+01  0.6000E+01
     -5.368  0.0000E+00  0.0000E+00  0.6000E+01  0.6000E+01
     -5.121  0.0000E+00  0.0000E+00  0.6000E+01  0.6000E+01
     -4.873  0.0000E+00  0.0000E+00  0.6000E+01  0.6000E+01
     -4.625  0.0000E+00  0.0000E+00  0.6000E+01  0.6000E+01
     -4.377  0.0000E+00  0.0000E+00  0.6000E+01  0.6000E+01
     -4.129  0.0000E+00  0.0000E+00  0.6000E+01  0.6000E+01
     -3.882  0.0000E+00  0.0000E+00  0.6000E+01  0.6000E+01
     -3.634  0.0000E+00  0.0000E+00  0.6000E+01  0.6000E+01
     -3.386  0.0000E+00  0.0000E+00  0.6000E+01  0.6000E+01
     -3.138  0.0000E+00  0.0000E+00  0.6000E+01  0.6000E+01
     -2.891  0.0000E+00  0.0000E+00  0.6000E+01  0.6000E+01
     -2.643  0.0000E+00  0.0000E+00  0.6000E+01  0.6000E+01
     -2.395  0.0000E+00  0.0000E+00  0.6000E+01  0.6000E+01
     -2.147  0.0000E+00  0.0000E+00  0.6000E+01  0.6000E+01
     -1.899  0.0000E+00  0.0000E+00  0.6000E+01  0.6000E+01
     -1.652  0.0000E+00  0.0000E+00  0.6000E+01  0.6000E+01
     -1.404  0.0000E+00  0.0000E+00  0.6000E+01  0.6000E+01
     -1.156  0.0000E+00  0.0000E+00  0.6000E+01  0.6000E+01
     -0.908  0.0000E+00  0.0000E+00  0.6000E+01  0.6000E+01
     -0.660  0.0000E+00  0.0000E+00  0.6000E+01  0.6000E+01
     -0.413  0.0000E+00  0.0000E+00  0.6000E+01  0.6000E+01
     -0.165  0.0000E+00  0.0000E+00  0.6000E+01  0.6000E+01
      0.083  0.0000E+00  0.0000E+00  0.6000E+01  0.6000E+01
      0.331  0.0000E+00  0.0000E+00  0.6000E+01  0.6000E+01
      0.578  0.0000E+00  0.0000E+00  0.6000E+01  0.6000E+01
      0.826  0.0000E+00  0.0000E+00  0.6000E+01  0.6000E+01
      1.074  0.0000E+00  0.0000E+00  0.6000E+01  0.6000E+01
      1.322  0.0000E+00  0.0000E+00  0.6000E+01  0.6000E+01
      1.570  0.0000E+00  0.0000E+00  0.6000E+01  0.6000E+01
      1.817  0.0000E+00  0.0000E+00  0.6000E+01  0.6000E+01
      2.065  0.0000E+00  0.0000E+00  0.6000E+01  0.6000E+01
      2.313  0.0000E+00  0.0000E+00  0.6000E+01  0.6000E+01
      2.561  0.0000E+00  0.0000E+00  0.6000E+01  0.6000E+01
      2.809  0.0000E+00  0.0000E+00  0.6000E+01  0.6000E+01
      3.056  0.0000E+00  0.0000E+00  0.6000E+01  0.6000E+01
      3.304  0.0000E+00  0.0000E+00  0.6000E+01  0.6000E+01
      3.552  0.0000E+00  0.0000E+00  0.6000E+01  0.6000E+01
      3.800  0.0000E+00  0.0000E+00  0.6000E+01  0.6000E+01
      4.047  0.0000E+00  0.0000E+00  0.6000E+01  0.6000E+01
      4.295  0.0000E+00  0.0000E+00  0.6000E+01  0.6000E+01
      4.543  0.0000E+00  0.0000E+00  0.6000E+01  0.6000E+01
      4.791  0.0000E+00  0.0000E+00  0.6000E+01  0.6000E+01
      5.039  0.0000E+00  0.0000E+00  0.6000E+01  0.6000E+01
      5.286  0.0000E+00  0.0000E+00  0.6000E+01  0.6000E+01
      5.534  0.0000E+00  0.0000E+00  0.6000E+01  0.6000E+01
      5.782  0.6527E-08  0.6518E-08  0.6000E+01  0.6000E+01
      6.030  0.1122E-05  0.1120E-05  0.6000E+01  0.6000E+01
      6.278  0.1526E-03  0.1524E-03  0.6000E+01  0.6000E+01
      6.525  0.4814E-02  0.4811E-02  0.6001E+01  0.6001E+01
      6.773  0.2372E-01  0.2372E-01  0.6007E+01  0.6007E+01
      7.021  0.2435E-01  0.2435E-01  0.6013E+01  0.6013E+01
      7.269  0.4849E-01  0.4849E-01  0.6025E+01  0.6025E+01
      7.516  0.4739E-01  0.4740E-01  0.6037E+01  0.6037E+01
      7.764  0.4321E-01  0.4320E-01  0.6048E+01  0.6048E+01
      8.012  0.8319E-01  0.8320E-01  0.6069E+01  0.6069E+01
      8.260  0.7073E-01  0.7073E-01  0.6086E+01  0.6086E+01
      8.508  0.1010E+00  0.1010E+00  0.6112E+01  0.6112E+01
      8.755  0.6360E-01  0.6360E-01  0.6127E+01  0.6127E+01
      9.003  0.2094E+00  0.2094E+00  0.6179E+01  0.6179E+01
      9.251  0.3066E+00  0.3066E+00  0.6256E+01  0.6256E+01
      9.499  0.6648E+00  0.6648E+00  0.6421E+01  0.6421E+01
      9.747  0.8357E+00  0.8357E+00  0.6629E+01  0.6629E+01
      9.994  0.1072E+01  0.1072E+01  0.6897E+01  0.6897E+01
     10.242  0.1019E+01  0.1019E+01  0.7152E+01  0.7152E+01
     10.490  0.1315E+01  0.1315E+01  0.7481E+01  0.7481E+01
     10.738  0.1103E+01  0.1103E+01  0.7759E+01  0.7759E+01
     10.985  0.1102E+01  0.1102E+01  0.8035E+01  0.8035E+01
     11.233  0.5771E+00  0.5771E+00  0.8179E+01  0.8179E+01
     11.481  0.6239E+00  0.6240E+00  0.8335E+01  0.8335E+01
     11.729  0.1647E+01  0.1647E+01  0.8743E+01  0.8744E+01
     11.977  0.1688E+01  0.1688E+01  0.9165E+01  0.9165E+01
     12.224  0.1141E+01  0.1141E+01  0.9452E+01  0.9452E+01
     12.472  0.1102E+01  0.1102E+01  0.9727E+01  0.9727E+01
     12.720  0.8066E+00  0.8067E+00  0.9930E+01  0.9930E+01
     12.968  0.1241E+01  0.1241E+01  0.1024E+02  0.1024E+02
     13.216  0.1530E+01  0.1530E+01  0.1062E+02  0.1062E+02
     13.463  0.1595E+01  0.1595E+01  0.1102E+02  0.1102E+02
     13.711  0.1023E+01  0.1023E+01  0.1128E+02  0.1128E+02
     13.959  0.6715E+00  0.6715E+00  0.1145E+02  0.1145E+02
     14.207  0.4969E+00  0.4970E+00  0.1157E+02  0.1157E+02
     14.454  0.5151E+00  0.5150E+00  0.1170E+02  0.1170E+02
     14.702  0.4036E+00  0.4037E+00  0.1180E+02  0.1180E+02
     14.950  0.5001E+00  0.5002E+00  0.1193E+02  0.1193E+02
     15.198  0.5884E+00  0.5885E+00  0.1208E+02  0.1208E+02
     15.446  0.7888E+00  0.7889E+00  0.1227E+02  0.1227E+02
     15.693  0.1008E+01  0.1008E+01  0.1252E+02  0.1252E+02
     15.941  0.1231E+01  0.1232E+01  0.1283E+02  0.1283E+02
     16.189  0.1434E+01  0.1434E+01  0.1319E+02  0.1319E+02
     16.437  0.1530E+01  0.1530E+01  0.1357E+02  0.1357E+02
     16.685  0.1798E+01  0.1798E+01  0.1402E+02  0.1402E+02
     16.932  0.1839E+01  0.1839E+01  0.1448E+02  0.1448E+02
     17.180  0.2266E+01  0.2266E+01  0.1505E+02  0.1505E+02
     17.428  0.1532E+01  0.1533E+01  0.1543E+02  0.1543E+02
     17.676  0.1197E+01  0.1197E+01  0.1573E+02  0.1573E+02
     17.923  0.8766E+00  0.8766E+00  0.1595E+02  0.1595E+02
     18.171  0.7406E+00  0.7408E+00  0.1614E+02  0.1614E+02
     18.419  0.8925E+00  0.8925E+00  0.1636E+02  0.1636E+02
     18.667  0.6700E+00  0.6696E+00  0.1653E+02  0.1653E+02
     18.915  0.2950E+00  0.2949E+00  0.1660E+02  0.1660E+02
     19.162  0.2984E+00  0.2983E+00  0.1668E+02  0.1668E+02
     19.410  0.2358E+00  0.2358E+00  0.1674E+02  0.1674E+02
     19.658  0.2690E+00  0.2689E+00  0.1680E+02  0.1680E+02
     19.906  0.1932E+00  0.1932E+00  0.1685E+02  0.1685E+02
     20.154  0.3403E+00  0.3405E+00  0.1694E+02  0.1694E+02
     20.401  0.2239E+00  0.2235E+00  0.1699E+02  0.1699E+02
     20.649  0.9493E-01  0.9491E-01  0.1702E+02  0.1702E+02
     20.897  0.1637E+00  0.1639E+00  0.1706E+02  0.1706E+02
     21.145  0.2996E+00  0.2998E+00  0.1713E+02  0.1713E+02
     21.392  0.3341E+00  0.3339E+00  0.1722E+02  0.1722E+02
     21.640  0.1741E+00  0.1741E+00  0.1726E+02  0.1726E+02
     21.888  0.2255E+00  0.2254E+00  0.1732E+02  0.1732E+02
     22.136  0.2573E+00  0.2595E+00  0.1738E+02  0.1738E+02
     22.384  0.5959E+01  0.5978E+01  0.1886E+02  0.1886E+02
     22.631  0.2334E+01  0.2313E+01  0.1944E+02  0.1944E+02
     22.879  0.2324E+00  0.2323E+00  0.1950E+02  0.1950E+02
     23.127  0.1861E+00  0.1861E+00  0.1955E+02  0.1955E+02
     23.375  0.1904E+00  0.1903E+00  0.1959E+02  0.1959E+02
     23.623  0.1386E+00  0.1386E+00  0.1963E+02  0.1963E+02
     23.870  0.1680E+00  0.1681E+00  0.1967E+02  0.1967E+02
     24.118  0.1407E+00  0.1408E+00  0.1971E+02  0.1971E+02
     24.366  0.1884E+00  0.1882E+00  0.1975E+02  0.1975E+02
     24.614  0.7086E-01  0.7081E-01  0.1977E+02  0.1977E+02
     24.861  0.9732E-01  0.9741E-01  0.1979E+02  0.1979E+02
     25.109  0.1821E+00  0.1822E+00  0.1984E+02  0.1984E+02
     25.357  0.1932E+00  0.1931E+00  0.1989E+02  0.1989E+02
     25.605  0.1184E-01  0.1179E-01  0.1989E+02  0.1989E+02
     25.853  0.8617E-01  0.8628E-01  0.1991E+02  0.1991E+02
     26.100  0.4999E-01  0.4987E-01  0.1993E+02  0.1993E+02
     26.348  0.3996E-01  0.4001E-01  0.1994E+02  0.1994E+02
     26.596  0.1165E+00  0.1165E+00  0.1997E+02  0.1997E+02
     26.844  0.6501E-01  0.6502E-01  0.1998E+02  0.1998E+02
     27.092  0.3481E-01  0.3481E-01  0.1999E+02  0.1999E+02
     27.339  0.1482E-01  0.1488E-01  0.1999E+02  0.1999E+02
     27.587  0.7195E-01  0.7195E-01  0.2001E+02  0.2001E+02
     27.835  0.1504E+00  0.1505E+00  0.2005E+02  0.2005E+02
     28.083  0.1932E+00  0.1932E+00  0.2010E+02  0.2010E+02
     28.330  0.5141E+00  0.5143E+00  0.2023E+02  0.2023E+02
     28.578  0.5071E+00  0.5072E+00  0.2035E+02  0.2035E+02
     28.826  0.7013E+00  0.7011E+00  0.2053E+02  0.2053E+02
     29.074  0.3124E+00  0.3122E+00  0.2061E+02  0.2061E+02
     29.322  0.1711E+00  0.1713E+00  0.2065E+02  0.2065E+02
     29.569  0.6158E+00  0.6162E+00  0.2080E+02  0.2080E+02
     29.817  0.3307E+00  0.3303E+00  0.2088E+02  0.2088E+02
     30.065  0.3284E+00  0.3282E+00  0.2097E+02  0.2097E+02
     30.313  0.3798E+00  0.3800E+00  0.2106E+02  0.2106E+02
     30.561  0.3097E+00  0.3099E+00  0.2114E+02  0.2114E+02
     30.808  0.7093E+00  0.7092E+00  0.2132E+02  0.2132E+02
     31.056  0.4029E+00  0.4029E+00  0.2142E+02  0.2142E+02
     31.304  0.2701E+00  0.2700E+00  0.2148E+02  0.2148E+02
     31.552  0.2440E+00  0.2441E+00  0.2155E+02  0.2155E+02
     31.799  0.4026E+00  0.4027E+00  0.2165E+02  0.2165E+02
     32.047  0.5920E+00  0.5920E+00  0.2179E+02  0.2179E+02
     32.295  0.4644E+00  0.4643E+00  0.2191E+02  0.2191E+02
     32.543  0.2507E+00  0.2507E+00  0.2197E+02  0.2197E+02
     32.791  0.3653E+00  0.3654E+00  0.2206E+02  0.2206E+02
     33.038  0.3359E+00  0.3358E+00  0.2215E+02  0.2215E+02
     33.286  0.4423E+00  0.4426E+00  0.2226E+02  0.2226E+02
     33.534  0.4826E+00  0.4825E+00  0.2238E+02  0.2238E+02
     33.782  0.4463E+00  0.4462E+00  0.2249E+02  0.2249E+02
     34.030  0.5692E+00  0.5690E+00  0.2263E+02  0.2263E+02
     34.277  0.3627E+00  0.3629E+00  0.2272E+02  0.2272E+02
     34.525  0.3690E+00  0.3690E+00  0.2281E+02  0.2281E+02
     34.773  0.6058E+00  0.6055E+00  0.2297E+02  0.2297E+02
     35.021  0.4057E+00  0.4047E+00  0.2307E+02  0.2307E+02
     35.268  0.3262E+00  0.3271E+00  0.2315E+02  0.2315E+02
     35.516  0.2725E+00  0.2729E+00  0.2322E+02  0.2322E+02
     35.764  0.3134E+00  0.3058E+00  0.2330E+02  0.2329E+02
     36.012  0.5072E+00  0.4811E+00  0.2342E+02  0.2341E+02
     36.260  0.2532E+00  0.2304E+00  0.2349E+02  0.2347E+02
     36.507  0.3895E+00  0.3503E+00  0.2358E+02  0.2356E+02
     36.755  0.4874E+00  0.5199E+00  0.2370E+02  0.2369E+02
     37.003  0.3554E+00  0.3692E+00  0.2379E+02  0.2378E+02
     37.251  0.1401E+00  0.1382E+00  0.2383E+02  0.2382E+02
     37.499  0.3214E+00  0.2084E+00  0.2391E+02  0.2387E+02
     37.746  0.2666E+00  0.2364E+00  0.2398E+02  0.2393E+02
     37.994  0.8237E-01  0.8787E-01  0.2400E+02  0.2395E+02
     38.242  0.9617E-02  0.6656E-01  0.2400E+02  0.2397E+02
     38.490  0.0000E+00  0.1278E+00  0.2400E+02  0.2400E+02
     38.737  0.0000E+00  0.0000E+00  0.2400E+02  0.2400E+02
     38.985  0.0000E+00  0.0000E+00  0.2400E+02  0.2400E+02
     39.233  0.0000E+00  0.0000E+00  0.2400E+02  0.2400E+02
     39.481  0.0000E+00  0.0000E+00  0.2400E+02  0.2400E+02
     39.729  0.0000E+00  0.0000E+00  0.2400E+02  0.2400E+02
     39.976  0.0000E+00  0.0000E+00  0.2400E+02  0.2400E+02
     40.224  0.0000E+00  0.0000E+00  0.2400E+02  0.2400E+02
     40.472  0.0000E+00  0.0000E+00  0.2400E+02  0.2400E+02
     40.720  0.0000E+00  0.0000E+00  0.2400E+02  0.2400E+02
     40.968  0.0000E+00  0.0000E+00  0.2400E+02  0.2400E+02
     41.215  0.0000E+00  0.0000E+00  0.2400E+02  0.2400E+02
     41.463  0.0000E+00  0.0000E+00  0.2400E+02  0.2400E+02
     41.711  0.0000E+00  0.0000E+00  0.2400E+02  0.2400E+02
     41.71085770    -32.62484832  301     15.08240669      1.00000000
    -32.625  0.0000E+00  0.0000E+00  0.0000E+00  0.0000E+00  0.0000E+00  0.0000E+00  0.0000E+00  0.0000E+00  0.0000E+00  0.0000E+00  0.0000E+00  0.0000E+00  0.0000E+00  0.0000E+00  0.0000E+00  0.0000E+00  0.0000E+00  0.0000E+00
    -32.377  0.0000E+00  0.0000E+00  0.0000E+00  0.0000E+00  0.0000E+00  0.0000E+00  0.0000E+00  0.0000E+00  0.0000E+00  0.0000E+00  0.0000E+00  0.0000E+00  0.0000E+00  0.0000E+00  0.0000E+00  0.0000E+00  0.0000E+00  0.0000E+00
    -32.129  0.0000E+00  0.0000E+00  0.0000E+00  0.0000E+00  0.0000E+00  0.0000E+00  0.0000E+00  0.0000E+00  0.0000E+00  0.0000E+00  0.0000E+00  0.0000E+00  0.0000E+00  0.0000E+00  0.0000E+00  0.0000E+00  0.0000E+00  0.0000E+00
    -31.881  0.0000E+00  0.0000E+00  0.0000E+00  0.0000E+00  0.0000E+00  0.0000E+00  0.0000E+00  0.0000E+00  0.0000E+00  0.0000E+00  0.0000E+00  0.0000E+00  0.0000E+00  0.0000E+00  0.0000E+00  0.0000E+00  0.0000E+00  0.0000E+00
    -31.634  0.0000E+00  0.0000E+00  0.0000E+00  0.0000E+00  0.0000E+00  0.0000E+00  0.0000E+00  0.0000E+00  0.0000E+00  0.0000E+00  0.0000E+00  0.0000E+00  0.0000E+00  0.0000E+00  0.0000E+00  0.0000E+00  0.0000E+00  0.0000E+00
    -31.386  0.0000E+00  0.0000E+00  0.0000E+00  0.0000E+00  0.0000E+00  0.0000E+00  0.0000E+00  0.0000E+00  0.0000E+00  0.0000E+00  0.0000E+00  0.0000E+00  0.0000E+00  0.0000E+00  0.0000E+00  0.0000E+00  0.0000E+00  0.0000E+00
    -31.138  0.0000E+00  0.0000E+00  0.0000E+00  0.0000E+00  0.0000E+00  0.0000E+00  0.0000E+00  0.0000E+00  0.0000E+00  0.0000E+00  0.0000E+00  0.0000E+00  0.0000E+00  0.0000E+00  0.0000E+00  0.0000E+00  0.0000E+00  0.0000E+00
    -30.890  0.0000E+00  0.0000E+00  0.0000E+00  0.0000E+00  0.0000E+00  0.0000E+00  0.0000E+00  0.0000E+00  0.0000E+00  0.0000E+00  0.0000E+00  0.0000E+00  0.0000E+00  0.0000E+00  0.0000E+00  0.0000E+00  0.0000E+00  0.0000E+00
    -30.643  0.0000E+00  0.0000E+00  0.0000E+00  0.0000E+00  0.0000E+00  0.0000E+00  0.0000E+00  0.0000E+00  0.0000E+00  0.0000E+00  0.0000E+00  0.0000E+00  0.0000E+00  0.0000E+00  0.0000E+00  0.0000E+00  0.0000E+00  0.0000E+00
    -30.395  0.0000E+00  0.0000E+00  0.0000E+00  0.0000E+00  0.0000E+00  0.0000E+00  0.0000E+00  0.0000E+00  0.0000E+00  0.0000E+00  0.0000E+00  0.0000E+00  0.0000E+00  0.0000E+00  0.0000E+00  0.0000E+00  0.0000E+00  0.0000E+00
    -30.147  0.0000E+00  0.0000E+00  0.0000E+00  0.0000E+00  0.0000E+00  0.0000E+00  0.0000E+00  0.0000E+00  0.0000E+00  0.0000E+00  0.0000E+00  0.0000E+00  0.0000E+00  0.0000E+00  0.0000E+00  0.0000E+00  0.0000E+00  0.0000E+00
    -29.899  0.0000E+00  0.0000E+00  0.0000E+00  0.0000E+00  0.0000E+00  0.0000E+00  0.0000E+00  0.0000E+00  0.0000E+00  0.0000E+00  0.0000E+00  0.0000E+00  0.0000E+00  0.0000E+00  0.0000E+00  0.0000E+00  0.0000E+00  0.0000E+00
    -29.651  0.4787E-08  0.4828E-08  0.7908E-05  0.7976E-05  0.7908E-05  0.7976E-05  0.7908E-05  0.7976E-05  0.3210E-08  0.3237E-08  0.3210E-08  0.3237E-08  0.2043E-08  0.2060E-08  0.3210E-08  0.3237E-08  0.2043E-08  0.2060E-08
    -29.404  0.7598E-06  0.7662E-06  0.1135E-02  0.1144E-02  0.1135E-02  0.1144E-02  0.1135E-02  0.1144E-02  0.5083E-06  0.5125E-06  0.5083E-06  0.5125E-06  0.3117E-06  0.3143E-06  0.5083E-06  0.5125E-06  0.3117E-06  0.3143E-06
    -29.156  0.6438E-04  0.6477E-04  0.6573E-01  0.6604E-01  0.6573E-01  0.6604E-01  0.6573E-01  0.6604E-01  0.4164E-04  0.4188E-04  0.4164E-04  0.4188E-04  0.2524E-04  0.2538E-04  0.4164E-04  0.4188E-04  0.2524E-04  0.2538E-04
    -28.908  0.8042E-03  0.8066E-03  0.3585E+00  0.3592E+00  0.3585E+00  0.3592E+00  0.3585E+00  0.3592E+00  0.4308E-03  0.4319E-03  0.4308E-03  0.4319E-03  0.2522E-03  0.2527E-03  0.4308E-03  0.4319E-03  0.2522E-03  0.2527E-03
    -28.660  0.1944E-02  0.1945E-02  0.5083E+00  0.5081E+00  0.5083E+00  0.5081E+00  0.5083E+00  0.5081E+00  0.7020E-03  0.7015E-03  0.7020E-03  0.7015E-03  0.4454E-03  0.4450E-03  0.7020E-03  0.7015E-03  0.4454E-03  0.4450E-03
    -28.412  0.1620E-02  0.1619E-02  0.3317E+00  0.3317E+00  0.3317E+00  0.3317E+00  0.3317E+00  0.3317E+00  0.5824E-03  0.5832E-03  0.5824E-03  0.5832E-03  0.2135E-03  0.2132E-03  0.5824E-03  0.5832E-03  0.2135E-03  0.2132E-03
    -28.165  0.1213E-02  0.1212E-02  0.3991E+00  0.3993E+00  0.3991E+00  0.3993E+00  0.3991E+00  0.3993E+00  0.1216E-02  0.1218E-02  0.1216E-02  0.1218E-02  0.1557E-03  0.1556E-03  0.1216E-02  0.1218E-02  0.1557E-03  0.1556E-03
    -27.917  0.9785E-03  0.9781E-03  0.5385E+00  0.5388E+00  0.5385E+00  0.5388E+00  0.5385E+00  0.5388E+00  0.1629E-02  0.1629E-02  0.1629E-02  0.1629E-02  0.1326E-03  0.1326E-03  0.1629E-02  0.1629E-02  0.1326E-03  0.1326E-03
    -27.669  0.8400E-03  0.8398E-03  0.5845E+00  0.5846E+00  0.5845E+00  0.5846E+00  0.5845E+00  0.5846E+00  0.1429E-02  0.1429E-02  0.1429E-02  0.1429E-02  0.7930E-04  0.7924E-04  0.1429E-02  0.1429E-02  0.7930E-04  0.7924E-04
    -27.421  0.7546E-03  0.7541E-03  0.7446E+00  0.7452E+00  0.7446E+00  0.7452E+00  0.7446E+00  0.7452E+00  0.1089E-02  0.1088E-02  0.1089E-02  0.1088E-02  0.5039E-04  0.5032E-04  0.1089E-02  0.1088E-02  0.5039E-04  0.5032E-04
    -27.174  0.1966E-03  0.1956E-03  0.4244E+00  0.4229E+00  0.4244E+00  0.4229E+00  0.4244E+00  0.4229E+00  0.2918E-03  0.2904E-03  0.2918E-03  0.2904E-03  0.1259E-04  0.1251E-04  0.2918E-03  0.2904E-03  0.1259E-04  0.1251E-04
    -26.926  0.9286E-06  0.9192E-06  0.7571E-02  0.7495E-02  0.7571E-02  0.7495E-02  0.7571E-02  0.7495E-02  0.1234E-05  0.1222E-05  0.1234E-05  0.1222E-05  0.4236E-07  0.4192E-07  0.1234E-05  0.1222E-05  0.4236E-07  0.4192E-07
    -26.678  0.0000E+00  0.0000E+00  0.0000E+00  0.0000E+00  0.0000E+00  0.0000E+00  0.0000E+00  0.0000E+00  0.0000E+00  0.0000E+00  0.0000E+00  0.0000E+00  0.0000E+00  0.0000E+00  0.0000E+00  0.0000E+00  0.0000E+00  0.0000E+00
    -26.430  0.0000E+00  0.0000E+00  0.0000E+00  0.0000E+00  0.0000E+00  0.0000E+00  0.0000E+00  0.0000E+00  0.0000E+00  0.0000E+00  0.0000E+00  0.0000E+00  0.0000E+00  0.0000E+00  0.0000E+00  0.0000E+00  0.0000E+00  0.0000E+00
    -26.182  0.0000E+00  0.0000E+00  0.0000E+00  0.0000E+00  0.0000E+00  0.0000E+00  0.0000E+00  0.0000E+00  0.0000E+00  0.0000E+00  0.0000E+00  0.0000E+00  0.0000E+00  0.0000E+00  0.0000E+00  0.0000E+00  0.0000E+00  0.0000E+00
    -25.935  0.0000E+00  0.0000E+00  0.0000E+00  0.0000E+00  0.0000E+00  0.0000E+00  0.0000E+00  0.0000E+00  0.0000E+00  0.0000E+00  0.0000E+00  0.0000E+00  0.0000E+00  0.0000E+00  0.0000E+00  0.0000E+00  0.0000E+00  0.0000E+00
    -25.687  0.0000E+00  0.0000E+00  0.0000E+00  0.0000E+00  0.0000E+00  0.0000E+00  0.0000E+00  0.0000E+00  0.0000E+00  0.0000E+00  0.0000E+00  0.0000E+00  0.0000E+00  0.0000E+00  0.0000E+00  0.0000E+00  0.0000E+00  0.0000E+00
    -25.439  0.0000E+00  0.0000E+00  0.0000E+00  0.0000E+00  0.0000E+00  0.0000E+00  0.0000E+00  0.0000E+00  0.0000E+00  0.0000E+00  0.0000E+00  0.0000E+00  0.0000E+00  0.0000E+00  0.0000E+00  0.0000E+00  0.0000E+00  0.0000E+00
    -25.191  0.0000E+00  0.0000E+00  0.0000E+00  0.0000E+00  0.0000E+00  0.0000E+00  0.0000E+00  0.0000E+00  0.0000E+00  0.0000E+00  0.0000E+00  0.0000E+00  0.0000E+00  0.0000E+00  0.0000E+00  0.0000E+00  0.0000E+00  0.0000E+00
    -24.943  0.0000E+00  0.0000E+00  0.0000E+00  0.0000E+00  0.0000E+00  0.0000E+00  0.0000E+00  0.0000E+00  0.0000E+00  0.0000E+00  0.0000E+00  0.0000E+00  0.0000E+00  0.0000E+00  0.0000E+00  0.0000E+00  0.0000E+00  0.0000E+00
    -24.696  0.0000E+00  0.0000E+00  0.0000E+00  0.0000E+00  0.0000E+00  0.0000E+00  0.0000E+00  0.0000E+00  0.0000E+00  0.0000E+00  0.0000E+00  0.0000E+00  0.0000E+00  0.0000E+00  0.0000E+00  0.0000E+00  0.0000E+00  0.0000E+00
    -24.448  0.0000E+00  0.0000E+00  0.0000E+00  0.0000E+00  0.0000E+00  0.0000E+00  0.0000E+00  0.0000E+00  0.0000E+00  0.0000E+00  0.0000E+00  0.0000E+00  0.0000E+00  0.0000E+00  0.0000E+00  0.0000E+00  0.0000E+00  0.0000E+00
    -24.200  0.0000E+00  0.0000E+00  0.0000E+00  0.0000E+00  0.0000E+00  0.0000E+00  0.0000E+00  0.0000E+00  0.0000E+00  0.0000E+00  0.0000E+00  0.0000E+00  0.0000E+00  0.0000E+00  0.0000E+00  0.0000E+00  0.0000E+00  0.0000E+00
    -23.952  0.0000E+00  0.0000E+00  0.0000E+00  0.0000E+00  0.0000E+00  0.0000E+00  0.0000E+00  0.0000E+00  0.0000E+00  0.0000E+00  0.0000E+00  0.0000E+00  0.0000E+00  0.0000E+00  0.0000E+00  0.0000E+00  0.0000E+00  0.0000E+00
    -23.705  0.0000E+00  0.0000E+00  0.0000E+00  0.0000E+00  0.0000E+00  0.0000E+00  0.0000E+00  0.0000E+00  0.0000E+00  0.0000E+00  0.0000E+00  0.0000E+00  0.0000E+00  0.0000E+00  0.0000E+00  0.0000E+00  0.0000E+00  0.0000E+00
    -23.457  0.0000E+00  0.0000E+00  0.0000E+00  0.0000E+00  0.0000E+00  0.0000E+00  0.0000E+00  0.0000E+00  0.0000E+00  0.0000E+00  0.0000E+00  0.0000E+00  0.0000E+00  0.0000E+00  0.0000E+00  0.0000E+00  0.0000E+00  0.0000E+00
    -23.209  0.0000E+00  0.0000E+00  0.0000E+00  0.0000E+00  0.0000E+00  0.0000E+00  0.0000E+00  0.0000E+00  0.0000E+00  0.0000E+00  0.0000E+00  0.0000E+00  0.0000E+00  0.0000E+00  0.0000E+00  0.0000E+00  0.0000E+00  0.0000E+00
    -22.961  0.0000E+00  0.0000E+00  0.0000E+00  0.0000E+00  0.0000E+00  0.0000E+00  0.0000E+00  0.0000E+00  0.0000E+00  0.0000E+00  0.0000E+00  0.0000E+00  0.0000E+00  0.0000E+00  0.0000E+00  0.0000E+00  0.0000E+00  0.0000E+00
    -22.713  0.0000E+00  0.0000E+00  0.0000E+00  0.0000E+00  0.0000E+00  0.0000E+00  0.0000E+00  0.0000E+00  0.0000E+00  0.0000E+00  0.0000E+00  0.0000E+00  0.0000E+00  0.0000E+00  0.0000E+00  0.0000E+00  0.0000E+00  0.0000E+00
    -22.466  0.0000E+00  0.0000E+00  0.0000E+00  0.0000E+00  0.0000E+00  0.0000E+00  0.0000E+00  0.0000E+00  0.0000E+00  0.0000E+00  0.0000E+00  0.0000E+00  0.0000E+00  0.0000E+00  0.0000E+00  0.0000E+00  0.0000E+00  0.0000E+00
    -22.218  0.0000E+00  0.0000E+00  0.0000E+00  0.0000E+00  0.0000E+00  0.0000E+00  0.0000E+00  0.0000E+00  0.0000E+00  0.0000E+00  0.0000E+00  0.0000E+00  0.0000E+00  0.0000E+00  0.0000E+00  0.0000E+00  0.0000E+00  0.0000E+00
    -21.970  0.0000E+00  0.0000E+00  0.0000E+00  0.0000E+00  0.0000E+00  0.0000E+00  0.0000E+00  0.0000E+00  0.0000E+00  0.0000E+00  0.0000E+00  0.0000E+00  0.0000E+00  0.0000E+00  0.0000E+00  0.0000E+00  0.0000E+00  0.0000E+00
    -21.722  0.0000E+00  0.0000E+00  0.0000E+00  0.0000E+00  0.0000E+00  0.0000E+00  0.0000E+00  0.0000E+00  0.0000E+00  0.0000E+00  0.0000E+00  0.0000E+00  0.0000E+00  0.0000E+00  0.0000E+00  0.0000E+00  0.0000E+00  0.0000E+00
    -21.474  0.0000E+00  0.0000E+00  0.0000E+00  0.0000E+00  0.0000E+00  0.0000E+00  0.0000E+00  0.0000E+00  0.0000E+00  0.0000E+00  0.0000E+00  0.0000E+00  0.0000E+00  0.0000E+00  0.0000E+00  0.0000E+00  0.0000E+00  0.0000E+00
    -21.227  0.0000E+00  0.0000E+00  0.0000E+00  0.0000E+00  0.0000E+00  0.0000E+00  0.0000E+00  0.0000E+00  0.0000E+00  0.0000E+00  0.0000E+00  0.0000E+00  0.0000E+00  0.0000E+00  0.0000E+00  0.0000E+00  0.0000E+00  0.0000E+00
    -20.979  0.0000E+00  0.0000E+00  0.0000E+00  0.0000E+00  0.0000E+00  0.0000E+00  0.0000E+00  0.0000E+00  0.0000E+00  0.0000E+00  0.0000E+00  0.0000E+00  0.0000E+00  0.0000E+00  0.0000E+00  0.0000E+00  0.0000E+00  0.0000E+00
    -20.731  0.0000E+00  0.0000E+00  0.0000E+00  0.0000E+00  0.0000E+00  0.0000E+00  0.0000E+00  0.0000E+00  0.0000E+00  0.0000E+00  0.0000E+00  0.0000E+00  0.0000E+00  0.0000E+00  0.0000E+00  0.0000E+00  0.0000E+00  0.0000E+00
    -20.483  0.0000E+00  0.0000E+00  0.0000E+00  0.0000E+00  0.0000E+00  0.0000E+00  0.0000E+00  0.0000E+00  0.0000E+00  0.0000E+00  0.0000E+00  0.0000E+00  0.0000E+00  0.0000E+00  0.0000E+00  0.0000E+00  0.0000E+00  0.0000E+00
    -20.236  0.0000E+00  0.0000E+00  0.0000E+00  0.0000E+00  0.0000E+00  0.0000E+00  0.0000E+00  0.0000E+00  0.0000E+00  0.0000E+00  0.0000E+00  0.0000E+00  0.0000E+00  0.0000E+00  0.0000E+00  0.0000E+00  0.0000E+00  0.0000E+00