   2   2   1   0
  0.1534449E+02  0.3130840E-09  0.3130840E-09  0.3130840E-09  0.5000000E-15
  1.000000000000000E-004
  CAR 
 unknown system                          
     27.42260000    -38.99863885  301      7.38916748      1.00000000
    -38.999  0.0000E+00  0.0000E+00  0.0000E+00  0.0000E+00
    -38.777  0.0000E+00  0.0000E+00  0.0000E+00  0.0000E+00
    -38.556  0.0000E+00  0.0000E+00  0.0000E+00  0.0000E+00
    -38.334  0.0000E+00  0.0000E+00  0.0000E+00  0.0000E+00
    -38.113  0.0000E+00  0.0000E+00  0.0000E+00  0.0000E+00
    -37.892  0.0000E+00  0.0000E+00  0.0000E+00  0.0000E+00
    -37.670  0.0000E+00  0.0000E+00  0.0000E+00  0.0000E+00
    -37.449  0.0000E+00  0.0000E+00  0.0000E+00  0.0000E+00
    -37.227  0.0000E+00  0.0000E+00  0.0000E+00  0.0000E+00
    -37.006  0.0000E+00  0.0000E+00  0.0000E+00  0.0000E+00
    -36.785  0.0000E+00  0.0000E+00  0.0000E+00  0.0000E+00
    -36.563  0.6734E-05  0.6547E-05  0.1491E-05  0.1449E-05
    -36.342  0.1780E-02  0.1731E-02  0.3957E-03  0.3846E-03
    -36.120  0.1460E+00  0.1420E+00  0.3273E-01  0.3183E-01
    -35.899  0.5172E+01  0.5099E+01  0.1178E+01  0.1161E+01
    -35.678  0.1494E+02  0.1491E+02  0.4485E+01  0.4463E+01
    -35.456  0.6575E+01  0.6669E+01  0.5959E+01  0.5958E+01
    -35.235  0.3861E-01  0.3972E-01  0.6000E+01  0.6000E+01
    -35.013  0.0000E+00  0.0000E+00  0.6000E+01  0.6000E+01
    -34.792  0.0000E+00  0.0000E+00  0.6000E+01  0.6000E+01
    -34.571  0.0000E+00  0.0000E+00  0.6000E+01  0.6000E+01
    -34.349  0.0000E+00  0.0000E+00  0.6000E+01  0.6000E+01
    -34.128  0.0000E+00  0.0000E+00  0.6000E+01  0.6000E+01
    -33.906  0.0000E+00  0.0000E+00  0.6000E+01  0.6000E+01
    -33.685  0.0000E+00  0.0000E+00  0.6000E+01  0.6000E+01
    -33.464  0.0000E+00  0.0000E+00  0.6000E+01  0.6000E+01
    -33.242  0.0000E+00  0.0000E+00  0.6000E+01  0.6000E+01
    -33.021  0.0000E+00  0.0000E+00  0.6000E+01  0.6000E+01
    -32.799  0.0000E+00  0.0000E+00  0.6000E+01  0.6000E+01
    -32.578  0.0000E+00  0.0000E+00  0.6000E+01  0.6000E+01
    -32.357  0.0000E+00  0.0000E+00  0.6000E+01  0.6000E+01
    -32.135  0.0000E+00  0.0000E+00  0.6000E+01  0.6000E+01
    -31.914  0.0000E+00  0.0000E+00  0.6000E+01  0.6000E+01
    -31.692  0.0000E+00  0.0000E+00  0.6000E+01  0.6000E+01
    -31.471  0.0000E+00  0.0000E+00  0.6000E+01  0.6000E+01
    -31.249  0.0000E+00  0.0000E+00  0.6000E+01  0.6000E+01
    -31.028  0.0000E+00  0.0000E+00  0.6000E+01  0.6000E+01
    -30.807  0.0000E+00  0.0000E+00  0.6000E+01  0.6000E+01
    -30.585  0.0000E+00  0.0000E+00  0.6000E+01  0.6000E+01
    -30.364  0.0000E+00  0.0000E+00  0.6000E+01  0.6000E+01
    -30.142  0.0000E+00  0.0000E+00  0.6000E+01  0.6000E+01
    -29.921  0.0000E+00  0.0000E+00  0.6000E+01  0.6000E+01
    -29.700  0.0000E+00  0.0000E+00  0.6000E+01  0.6000E+01
    -29.478  0.0000E+00  0.0000E+00  0.6000E+01  0.6000E+01
    -29.257  0.0000E+00  0.0000E+00  0.6000E+01  0.6000E+01
    -29.035  0.0000E+00  0.0000E+00  0.6000E+01  0.6000E+01
    -28.814  0.0000E+00  0.0000E+00  0.6000E+01  0.6000E+01
    -28.593  0.0000E+00  0.0000E+00  0.6000E+01  0.6000E+01
    -28.371  0.0000E+00  0.0000E+00  0.6000E+01  0.6000E+01
    -28.150  0.0000E+00  0.0000E+00  0.6000E+01  0.6000E+01
    -27.928  0.0000E+00  0.0000E+00  0.6000E+01  0.6000E+01
    -27.707  0.0000E+00  0.0000E+00  0.6000E+01  0.6000E+01
    -27.486  0.0000E+00  0.0000E+00  0.6000E+01  0.6000E+01
    -27.264  0.0000E+00  0.0000E+00  0.6000E+01  0.6000E+01
    -27.043  0.0000E+00  0.0000E+00  0.6000E+01  0.6000E+01
    -26.821  0.0000E+00  0.0000E+00  0.6000E+01  0.6000E+01
    -26.600  0.0000E+00  0.0000E+00  0.6000E+01  0.6000E+01
    -26.379  0.0000E+00  0.0000E+00  0.6000E+01  0.6000E+01
    -26.157  0.0000E+00  0.0000E+00  0.6000E+01  0.6000E+01
    -25.936  0.0000E+00  0.0000E+00  0.6000E+01  0.6000E+01
    -25.714  0.0000E+00  0.0000E+00  0.6000E+01  0.6000E+01
    -25.493  0.0000E+00  0.0000E+00  0.6000E+01  0.6000E+01
    -25.272  0.0000E+00  0.0000E+00  0.6000E+01  0.6000E+01
    -25.050  0.0000E+00  0.0000E+00  0.6000E+01  0.6000E+01
    -24.829  0.0000E+00  0.0000E+00  0.6000E+01  0.6000E+01
    -24.607  0.0000E+00  0.0000E+00  0.6000E+01  0.6000E+01
    -24.386  0.0000E+00  0.0000E+00  0.6000E+01  0.6000E+01
    -24.165  0.0000E+00  0.0000E+00  0.6000E+01  0.6000E+01
    -23.943  0.0000E+00  0.0000E+00  0.6000E+01  0.6000E+01
    -23.722  0.0000E+00  0.0000E+00  0.6000E+01  0.6000E+01
    -23.500  0.0000E+00  0.0000E+00  0.6000E+01  0.6000E+01
    -23.279  0.0000E+00  0.0000E+00  0.6000E+01  0.6000E+01
    -23.058  0.0000E+00  0.0000E+00  0.6000E+01  0.6000E+01
    -22.836  0.0000E+00  0.0000E+00  0.6000E+01  0.6000E+01
    -22.615  0.0000E+00  0.0000E+00  0.6000E+01  0.6000E+01
    -22.393  0.0000E+00  0.0000E+00  0.6000E+01  0.6000E+01
    -22.172  0.0000E+00  0.0000E+00  0.6000E+01  0.6000E+01
    -21.951  0.0000E+00  0.0000E+00  0.6000E+01  0.6000E+01
    -21.729  0.0000E+00  0.0000E+00  0.6000E+01  0.6000E+01
    -21.508  0.0000E+00  0.0000E+00  0.6000E+01  0.6000E+01
    -21.286  0.0000E+00  0.0000E+00  0.6000E+01  0.6000E+01
    -21.065  0.0000E+00  0.0000E+00  0.6000E+01  0.6000E+01
    -20.844  0.0000E+00  0.0000E+00  0.6000E+01  0.6000E+01
    -20.622  0.0000E+00  0.0000E+00  0.6000E+01  0.6000E+01
    -20.401  0.0000E+00  0.0000E+00  0.6000E+01  0.6000E+01
    -20.179  0.0000E+00  0.0000E+00  0.6000E+01  0.6000E+01
    -19.958  0.0000E+00  0.0000E+00  0.6000E+01  0.6000E+01
    -19.736  0.0000E+00  0.0000E+00  0.6000E+01  0.6000E+01
    -19.515  0.0000E+00  0.0000E+00  0.6000E+01  0.6000E+01
    -19.294  0.0000E+00  0.0000E+00  0.6000E+01  0.6000E+01
    -19.072  0.0000E+00  0.0000E+00  0.6000E+01  0.6000E+01
    -18.851  0.0000E+00  0.0000E+00  0.6000E+01  0.6000E+01
    -18.629  0.0000E+00  0.0000E+00  0.6000E+01  0.6000E+01
    -18.408  0.0000E+00  0.0000E+00  0.6000E+01  0.6000E+01
    -18.187  0.0000E+00  0.0000E+00  0.6000E+01  0.6000E+01
    -17.965  0.0000E+00  0.0000E+00  0.6000E+01  0.6000E+01
    -17.744  0.0000E+00  0.0000E+00  0.6000E+01  0.6000E+01
    -17.522  0.0000E+00  0.0000E+00  0.6000E+01  0.6000E+01
    -17.301  0.0000E+00  0.0000E+00  0.6000E+01  0.6000E+01
    -17.080  0.0000E+00  0.0000E+00  0.6000E+01  0.6000E+01
    -16.858  0.0000E+00  0.0000E+00  0.6000E+01  0.6000E+01
    -16.637  0.0000E+00  0.0000E+00  0.6000E+01  0.6000E+01
    -16.415  0.0000E+00  0.0000E+00  0.6000E+01  0.6000E+01
    -16.194  0.0000E+00  0.0000E+00  0.6000E+01  0.6000E+01
    -15.973  0.0000E+00  0.0000E+00  0.6000E+01  0.6000E+01
    -15.751  0.0000E+00  0.0000E+00  0.6000E+01  0.6000E+01
    -15.530  0.0000E+00  0.0000E+00  0.6000E+01  0.6000E+01
    -15.308  0.0000E+00  0.0000E+00  0.6000E+01  0.6000E+01
    -15.087  0.0000E+00  0.0000E+00  0.6000E+01  0.6000E+01
    -14.866  0.0000E+00  0.0000E+00  0.6000E+01  0.6000E+01
    -14.644  0.0000E+00  0.0000E+00  0.6000E+01  0.6000E+01
    -14.423  0.0000E+00  0.0000E+00  0.6000E+01  0.6000E+01
    -14.201  0.0000E+00  0.0000E+00  0.6000E+01  0.6000E+01
    -13.980  0.0000E+00  0.0000E+00  0.6000E+01  0.6000E+01
    -13.759  0.0000E+00  0.0000E+00  0.6000E+01  0.6000E+01
    -13.537  0.0000E+00  0.0000E+00  0.6000E+01  0.6000E+01
    -13.316  0.0000E+00  0.0000E+00  0.6000E+01  0.6000E+01
    -13.094  0.0000E+00  0.0000E+00  0.6000E+01  0.6000E+01
    -12.873  0.0000E+00  0.0000E+00  0.6000E+01  0.6000E+01
    -12.652  0.0000E+00  0.0000E+00  0.6000E+01  0.6000E+01
    -12.430  0.0000E+00  0.0000E+00  0.6000E+01  0.6000E+01
    -12.209  0.0000E+00  0.0000E+00  0.6000E+01  0.6000E+01
    -11.987  0.0000E+00  0.0000E+00  0.6000E+01  0.6000E+01
    -11.766  0.0000E+00  0.0000E+00  0.6000E+01  0.6000E+01
    -11.545  0.0000E+00  0.0000E+00  0.6000E+01  0.6000E+01
    -11.323  0.0000E+00  0.0000E+00  0.6000E+01  0.6000E+01
    -11.102  0.0000E+00  0.0000E+00  0.6000E+01  0.6000E+01
    -10.880  0.0000E+00  0.0000E+00  0.6000E+01  0.6000E+01
    -10.659  0.0000E+00  0.0000E+00  0.6000E+01  0.6000E+01
    -10.438  0.0000E+00  0.0000E+00  0.6000E+01  0.6000E+01
    -10.216  0.0000E+00  0.0000E+00  0.6000E+01  0.6000E+01
     -9.995  0.0000E+00  0.0000E+00  0.6000E+01  0.6000E+01
     -9.773  0.0000E+00  0.0000E+00  0.6000E+01  0.6000E+01
     -9.552  0.0000E+00  0.0000E+00  0.6000E+01  0.6000E+01
     -9.330  0.0000E+00  0.0000E+00  0.6000E+01  0.6000E+01
     -9.109  0.0000E+00  0.0000E+00  0.6000E+01  0.6000E+01
     -8.888  0.0000E+00  0.0000E+00  0.6000E+01  0.6000E+01
     -8.666  0.0000E+00  0.0000E+00  0.6000E+01  0.6000E+01
     -8.445  0.0000E+00  0.0000E+00  0.6000E+01  0.6000E+01
     -8.223  0.0000E+00  0.0000E+00  0.6000E+01  0.6000E+01
     -8.002  0.0000E+00  0.0000E+00  0.6000E+01  0.6000E+01
     -7.781  0.0000E+00  0.0000E+00  0.6000E+01  0.6000E+01
     -7.559  0.0000E+00  0.0000E+00  0.6000E+01  0.6000E+01
     -7.338  0.0000E+00  0.0000E+00  0.6000E+01  0.6000E+01
     -7.116  0.0000E+00  0.0000E+00  0.6000E+01  0.6000E+01
     -6.895  0.0000E+00  0.0000E+00  0.6000E+01  0.6000E+01
     -6.674  0.0000E+00  0.0000E+00  0.6000E+01  0.6000E+01
     -6.452  0.0000E+00  0.0000E+00  0.6000E+01  0.6000E+01
     -6.231  0.0000E+00  0.0000E+00  0.6000E+01  0.6000E+01
     -6.009  0.0000E+00  0.0000E+00  0.6000E+01  0.6000E+01
     -5.788  0.0000E+00  0.0000E+00  0.6000E+01  0.6000E+01
     -5.567  0.0000E+00  0.0000E+00  0.6000E+01  0.6000E+01
     -5.345  0.0000E+00  0.0000E+00  0.6000E+01  0.6000E+01
     -5.124  0.0000E+00  0.0000E+00  0.6000E+01  0.6000E+01
     -4.902  0.0000E+00  0.0000E+00  0.6000E+01  0.6000E+01
     -4.681  0.0000E+00  0.0000E+00  0.6000E+01  0.6000E+01
     -4.460  0.0000E+00  0.0000E+00  0.6000E+01  0.6000E+01
     -4.238  0.0000E+00  0.0000E+00  0.6000E+01  0.6000E+01
     -4.017  0.0000E+00  0.0000E+00  0.6000E+01  0.6000E+01
     -3.795  0.0000E+00  0.0000E+00  0.6000E+01  0.6000E+01
     -3.574  0.0000E+00  0.0000E+00  0.6000E+01  0.6000E+01
     -3.353  0.0000E+00  0.0000E+00  0.6000E+01  0.6000E+01
     -3.131  0.0000E+00  0.0000E+00  0.6000E+01  0.6000E+01
     -2.910  0.0000E+00  0.0000E+00  0.6000E+01  0.6000E+01
     -2.688  0.0000E+00  0.0000E+00  0.6000E+01  0.6000E+01
     -2.467  0.0000E+00  0.0000E+00  0.6000E+01  0.6000E+01
     -2.246  0.0000E+00  0.0000E+00  0.6000E+01  0.6000E+01
     -2.024  0.0000E+00  0.0000E+00  0.6000E+01  0.6000E+01
     -1.803  0.0000E+00  0.0000E+00  0.6000E+01  0.6000E+01
     -1.581  0.0000E+00  0.0000E+00  0.6000E+01  0.6000E+01
     -1.360  0.0000E+00  0.0000E+00  0.6000E+01  0.6000E+01
     -1.139  0.0000E+00  0.0000E+00  0.6000E+01  0.6000E+01
     -0.917  0.0000E+00  0.0000E+00  0.6000E+01  0.6000E+01
     -0.696  0.0000E+00  0.0000E+00  0.6000E+01  0.6000E+01
     -0.474  0.0000E+00  0.0000E+00  0.6000E+01  0.6000E+01
     -0.253  0.0000E+00  0.0000E+00  0.6000E+01  0.6000E+01
     -0.032  0.0000E+00  0.0000E+00  0.6000E+01  0.6000E+01
      0.190  0.3428E-06  0.3472E-06  0.6000E+01  0.6000E+01
      0.411  0.3183E-04  0.3224E-04  0.6000E+01  0.6000E+01
      0.633  0.2055E-02  0.2076E-02  0.6000E+01  0.6000E+01
      0.854  0.2489E-01  0.2498E-01  0.6006E+01  0.6006E+01
      1.076  0.4355E-01  0.4359E-01  0.6016E+01  0.6016E+01
      1.297  0.7977E-01  0.7979E-01  0.6033E+01  0.6033E+01
      1.518  0.6413E-01  0.6424E-01  0.6048E+01  0.6048E+01
      1.740  0.1122E+00  0.1122E+00  0.6072E+01  0.6073E+01
      1.961  0.1059E+00  0.1061E+00  0.6096E+01  0.6096E+01
      2.183  0.1021E+00  0.1020E+00  0.6119E+01  0.6119E+01
      2.404  0.1631E+00  0.1634E+00  0.6156E+01  0.6156E+01
      2.625  0.1658E+00  0.1658E+00  0.6192E+01  0.6193E+01
      2.847  0.1306E+00  0.1306E+00  0.6222E+01  0.6222E+01
      3.068  0.2195E+00  0.2196E+00  0.6270E+01  0.6270E+01
      3.290  0.2441E+00  0.2443E+00  0.6325E+01  0.6325E+01
      3.511  0.2243E+00  0.2243E+00  0.6375E+01  0.6375E+01
      3.732  0.2780E+00  0.2781E+00  0.6437E+01  0.6437E+01
      3.954  0.3944E+00  0.3943E+00  0.6525E+01  0.6525E+01
      4.175  0.5981E+00  0.5980E+00  0.6658E+01  0.6658E+01
      4.397  0.7520E+00  0.7518E+00  0.6825E+01  0.6825E+01
      4.618  0.1086E+01  0.1085E+01  0.7066E+01  0.7066E+01
      4.839  0.1305E+01  0.1304E+01  0.7356E+01  0.7356E+01
      5.061  0.1663E+01  0.1662E+01  0.7725E+01  0.7725E+01
      5.282  0.1306E+01  0.1307E+01  0.8017E+01  0.8016E+01
      5.504  0.8521E+00  0.8527E+00  0.8207E+01  0.8207E+01
      5.725  0.1793E+01  0.1791E+01  0.8606E+01  0.8605E+01
      5.946  0.3011E+01  0.3010E+01  0.9273E+01  0.9272E+01
      6.168  0.2717E+01  0.2717E+01  0.9878E+01  0.9878E+01
      6.389  0.2805E+01  0.2804E+01  0.1050E+02  0.1050E+02
      6.611  0.2789E+01  0.2790E+01  0.1112E+02  0.1112E+02
      6.832  0.1837E+01  0.1839E+01  0.1154E+02  0.1154E+02
      7.053  0.8242E+00  0.8256E+00  0.1172E+02  0.1172E+02
      7.275  0.7931E+00  0.7925E+00  0.1190E+02  0.1190E+02
      7.496  0.9303E+00  0.9282E+00  0.1211E+02  0.1211E+02
      7.718  0.1696E+01  0.1691E+01  0.1248E+02  0.1248E+02
      7.939  0.2661E+01  0.2653E+01  0.1307E+02  0.1307E+02
      8.160  0.3596E+01  0.3588E+01  0.1387E+02  0.1387E+02
      8.382  0.4502E+01  0.4492E+01  0.1488E+02  0.1487E+02
      8.603  0.3580E+01  0.3600E+01  0.1568E+02  0.1567E+02
      8.825  0.1901E+01  0.1904E+01  0.1610E+02  0.1610E+02
      9.046  0.1630E+01  0.1633E+01  0.1647E+02  0.1647E+02
      9.267  0.8372E+00  0.8383E+00  0.1665E+02  0.1665E+02
      9.489  0.6153E+00  0.6159E+00  0.1679E+02  0.1679E+02
      9.710  0.3466E+00  0.3469E+00  0.1687E+02  0.1687E+02
      9.932  0.4932E+00  0.4935E+00  0.1698E+02  0.1698E+02
     10.153  0.3044E+00  0.3043E+00  0.1705E+02  0.1705E+02
     10.374  0.3728E+00  0.3725E+00  0.1713E+02  0.1713E+02
     10.596  0.4424E+00  0.4428E+00  0.1723E+02  0.1723E+02
     10.817  0.3707E+00  0.3710E+00  0.1731E+02  0.1731E+02
     11.039  0.1996E+00  0.2010E+00  0.1736E+02  0.1736E+02
     11.260  0.3205E+00  0.3205E+00  0.1743E+02  0.1743E+02
     11.482  0.3136E+00  0.3135E+00  0.1750E+02  0.1750E+02
     11.703  0.3798E+00  0.3799E+00  0.1758E+02  0.1758E+02
     11.924  0.1838E+00  0.1839E+00  0.1762E+02  0.1762E+02
     12.146  0.2172E+00  0.2171E+00  0.1767E+02  0.1767E+02
     12.367  0.2537E+00  0.2537E+00  0.1773E+02  0.1773E+02
     12.589  0.1609E+00  0.1612E+00  0.1776E+02  0.1776E+02
     12.810  0.1469E+00  0.1468E+00  0.1780E+02  0.1780E+02
     13.031  0.2785E+00  0.2782E+00  0.1786E+02  0.1786E+02
     13.253  0.1478E+00  0.1481E+00  0.1789E+02  0.1789E+02
     13.474  0.7527E-01  0.7530E-01  0.1791E+02  0.1791E+02
     13.696  0.6823E-01  0.6827E-01  0.1792E+02  0.1792E+02
     13.917  0.5275E-01  0.5255E-01  0.1794E+02  0.1793E+02
     14.138  0.1975E+00  0.1922E+00  0.1798E+02  0.1798E+02
     14.360  0.3040E+01  0.2804E+01  0.1865E+02  0.1860E+02
     14.581  0.6154E+01  0.5933E+01  0.2001E+02  0.1991E+02
     14.803  0.8943E+00  0.9052E+00  0.2023E+02  0.2012E+02
     15.024  0.7090E+00  0.6945E+00  0.2039E+02  0.2028E+02
     15.245  0.5017E+00  0.4956E+00  0.2050E+02  0.2039E+02
     15.467  0.3030E+00  0.3025E+00  0.2057E+02  0.2046E+02
     15.688  0.5627E+00  0.5620E+00  0.2069E+02  0.2058E+02
     15.910  0.4299E+00  0.4309E+00  0.2079E+02  0.2068E+02
     16.131  0.5851E+00  0.5861E+00  0.2092E+02  0.2081E+02
     16.352  0.3454E+00  0.3434E+00  0.2100E+02  0.2089E+02
     16.574  0.5080E+00  0.5084E+00  0.2111E+02  0.2100E+02
     16.795  0.4680E+00  0.4779E+00  0.2121E+02  0.2111E+02
     17.017  0.6509E+00  0.6571E+00  0.2136E+02  0.2125E+02
     17.238  0.3374E+00  0.3386E+00  0.2143E+02  0.2133E+02
     17.459  0.3531E+00  0.3672E+00  0.2151E+02  0.2141E+02
     17.681  0.3995E+00  0.4345E+00  0.2160E+02  0.2151E+02
     17.902  0.5898E+00  0.6049E+00  0.2173E+02  0.2164E+02
     18.124  0.4885E+00  0.4909E+00  0.2184E+02  0.2175E+02
     18.345  0.3649E+00  0.3817E+00  0.2192E+02  0.2184E+02
     18.566  0.3285E+00  0.3774E+00  0.2200E+02  0.2192E+02
     18.788  0.3498E+00  0.3948E+00  0.2207E+02  0.2201E+02
     19.009  0.4321E+00  0.4694E+00  0.2217E+02  0.2211E+02
     19.231  0.5084E+00  0.5221E+00  0.2228E+02  0.2223E+02
     19.452  0.4491E+00  0.4806E+00  0.2238E+02  0.2234E+02
     19.673  0.2585E+00  0.3125E+00  0.2244E+02  0.2241E+02
     19.895  0.3446E+00  0.4245E+00  0.2252E+02  0.2250E+02
     20.116  0.3765E+00  0.4521E+00  0.2260E+02  0.2260E+02
     20.338  0.3668E+00  0.3705E+00  0.2268E+02  0.2268E+02
     20.559  0.4323E+00  0.4323E+00  0.2278E+02  0.2278E+02
     20.780  0.3670E+00  0.3670E+00  0.2286E+02  0.2286E+02
     21.002  0.2685E+00  0.2685E+00  0.2292E+02  0.2292E+02
     21.223  0.2856E+00  0.2855E+00  0.2298E+02  0.2298E+02
     21.445  0.3963E+00  0.3966E+00  0.2307E+02  0.2307E+02
     21.666  0.3593E+00  0.3589E+00  0.2315E+02  0.2315E+02
     21.887  0.5319E+00  0.5317E+00  0.2327E+02  0.2327E+02
     22.109  0.4996E+00  0.4991E+00  0.2338E+02  0.2338E+02
     22.330  0.5192E+00  0.5057E+00  0.2350E+02  0.2349E+02
     22.552  0.4970E+00  0.4867E+00  0.2361E+02  0.2360E+02
     22.773  0.5921E+00  0.5829E+00  0.2374E+02  0.2373E+02
     22.995  0.3246E+00  0.3331E+00  0.2381E+02  0.2381E+02
     23.216  0.4077E+00  0.3994E+00  0.2390E+02  0.2390E+02
     23.437  0.2439E+00  0.1721E+00  0.2396E+02  0.2393E+02
     23.659  0.7266E-01  0.1148E+00  0.2397E+02  0.2396E+02
     23.880  0.8613E-01  0.7404E-01  0.2399E+02  0.2398E+02
     24.102  0.2917E-01  0.3851E-01  0.2400E+02  0.2399E+02
     24.323  0.1143E-02  0.3546E-01  0.2400E+02  0.2399E+02
     24.544  0.0000E+00  0.2885E-01  0.2400E+02  0.2400E+02
     24.766  0.0000E+00  0.1373E-02  0.2400E+02  0.2400E+02
     24.987  0.0000E+00  0.0000E+00  0.2400E+02  0.2400E+02
     25.209  0.0000E+00  0.0000E+00  0.2400E+02  0.2400E+02
     25.430  0.0000E+00  0.0000E+00  0.2400E+02  0.2400E+02
     25.651  0.0000E+00  0.0000E+00  0.2400E+02  0.2400E+02
     25.873  0.0000E+00  0.0000E+00  0.2400E+02  0.2400E+02
     26.094  0.0000E+00  0.0000E+00  0.2400E+02  0.2400E+02
     26.316  0.0000E+00  0.0000E+00  0.2400E+02  0.2400E+02
     26.537  0.0000E+00  0.0000E+00  0.2400E+02  0.2400E+02
     26.758  0.0000E+00  0.0000E+00  0.2400E+02  0.2400E+02
     26.980  0.0000E+00  0.0000E+00  0.2400E+02  0.2400E+02
     27.201  0.0000E+00  0.0000E+00  0.2400E+02  0.2400E+02
     27.423  0.0000E+00  0.0000E+00  0.2400E+02  0.2400E+02
     27.42260000    -38.99863885  301      7.38916748      1.00000000
    -38.999  0.0000E+00  0.0000E+00  0.0000E+00  0.0000E+00  0.0000E+00  0.0000E+00  0.0000E+00  0.0000E+00  0.0000E+00  0.0000E+00  0.0000E+00  0.0000E+00  0.0000E+00  0.0000E+00  0.0000E+00  0.0000E+00  0.0000E+00  0.0000E+00
    -38.777  0.0000E+00  0.0000E+00  0.0000E+00  0.0000E+00  0.0000E+00  0.0000E+00  0.0000E+00  0.0000E+00  0.0000E+00  0.0000E+00  0.0000E+00  0.0000E+00  0.0000E+00  0.0000E+00  0.0000E+00  0.0000E+00  0.0000E+00  0.0000E+00
    -38.556  0.0000E+00  0.0000E+00  0.0000E+00  0.0000E+00  0.0000E+00  0.0000E+00  0.0000E+00  0.0000E+00  0.0000E+00  0.0000E+00  0.0000E+00  0.0000E+00  0.0000E+00  0.0000E+00  0.0000E+00  0.0000E+00  0.0000E+00  0.0000E+00
    -38.334  0.0000E+00  0.0000E+00  0.0000E+00  0.0000E+00  0.0000E+00  0.0000E+00  0.0000E+00  0.0000E+00  0.0000E+00  0.0000E+00  0.0000E+00  0.0000E+00  0.0000E+00  0.0000E+00  0.0000E+00  0.0000E+00  0.0000E+00  0.0000E+00
    -38.113  0.0000E+00  0.0000E+00  0.0000E+00  0.0000E+00  0.0000E+00  0.0000E+00  0.0000E+00  0.0000E+00  0.0000E+00  0.0000E+00  0.0000E+00  0.0000E+00  0.0000E+00  0.0000E+00  0.0000E+00  0.0000E+00  0.0000E+00  0.0000E+00
    -37.892  0.0000E+00  0.0000E+00  0.0000E+00  0.0000E+00  0.0000E+00  0.0000E+00  0.0000E+00  0.0000E+00  0.0000E+00  0.0000E+00  0.0000E+00  0.0000E+00  0.0000E+00  0.0000E+00  0.0000E+00  0.0000E+00  0.0000E+00  0.0000E+00
    -37.670  0.0000E+00  0.0000E+00  0.0000E+00  0.0000E+00  0.0000E+00  0.0000E+00  0.0000E+00  0.0000E+00  0.0000E+00  0.0000E+00  0.0000E+00  0.0000E+00  0.0000E+00  0.0000E+00  0.0000E+00  0.0000E+00  0.0000E+00  0.0000E+00
    -37.449  0.0000E+00  0.0000E+00  0.0000E+00  0.0000E+00  0.0000E+00  0.0000E+00  0.0000E+00  0.0000E+00  0.0000E+00  0.0000E+00  0.0000E+00  0.0000E+00  0.0000E+00  0.0000E+00  0.0000E+00  0.0000E+00  0.0000E+00  0.0000E+00
    -37.227  0.0000E+00  0.0000E+00  0.0000E+00  0.0000E+00  0.0000E+00  0.0000E+00  0.0000E+00  0.0000E+00  0.0000E+00  0.0000E+00  0.0000E+00  0.0000E+00  0.0000E+00  0.0000E+00  0.0000E+00  0.0000E+00  0.0000E+00  0.0000E+00
    -37.006  0.0000E+00  0.0000E+00  0.0000E+00  0.0000E+00  0.0000E+00  0.0000E+00  0.0000E+00  0.0000E+00  0.0000E+00  0.0000E+00  0.0000E+00  0.0000E+00  0.0000E+00  0.0000E+00  0.0000E+00  0.0000E+00  0.0000E+00  0.0000E+00
    -36.785  0.0000E+00  0.0000E+00  0.0000E+00  0.0000E+00  0.0000E+00  0.0000E+00  0.0000E+00  0.0000E+00  0.0000E+00  0.0000E+00  0.0000E+00  0.0000E+00  0.0000E+00  0.0000E+00  0.0000E+00  0.0000E+00  0.0000E+00  0.0000E+00
    -36.563  0.3738E-10  0.3639E-10  0.1107E-05  0.1076E-05  0.1107E-05  0.1076E-05  0.1107E-05  0.1076E-05  0.2272E-10  0.2211E-10  0.2272E-10  0.2211E-10  0.1149E-10  0.1120E-10  0.2272E-10  0.2211E-10  0.1149E-10  0.1120E-10
    -36.342  0.2501E-07  0.2434E-07  0.2931E-03  0.2849E-03  0.2931E-03  0.2849E-03  0.2931E-03  0.2849E-03  0.1186E-07  0.1154E-07  0.1186E-07  0.1154E-07  0.4168E-08  0.4063E-08  0.1186E-07  0.1154E-07  0.4168E-08  0.4063E-08
    -36.120  0.2053E-05  0.1999E-05  0.2405E-01  0.2339E-01  0.2405E-01  0.2339E-01  0.2405E-01  0.2339E-01  0.9807E-06  0.9544E-06  0.9807E-06  0.9544E-06  0.3395E-06  0.3311E-06  0.9807E-06  0.9544E-06  0.3395E-06  0.3311E-06
    -35.899  0.8477E-04  0.8357E-04  0.8522E+00  0.8402E+00  0.8522E+00  0.8402E+00  0.8522E+00  0.8402E+00  0.4182E-04  0.4115E-04  0.4182E-04  0.4115E-04  0.1187E-04  0.1175E-04  0.4182E-04  0.4115E-04  0.1187E-04  0.1175E-04
    -35.678  0.2068E-03  0.2075E-03  0.2470E+01  0.2466E+01  0.2470E+01  0.2466E+01  0.2470E+01  0.2466E+01  0.1740E-03  0.1737E-03  0.1740E-03  0.1737E-03  0.1683E-04  0.1700E-04  0.1740E-03  0.1737E-03  0.1683E-04  0.1700E-04
    -35.456  0.4766E-04  0.4850E-04  0.1090E+01  0.1106E+01  0.1090E+01  0.1106E+01  0.1090E+01  0.1106E+01  0.5543E-04  0.5640E-04  0.5543E-04  0.5640E-04  0.1988E-05  0.2040E-05  0.5543E-04  0.5640E-04  0.1988E-05  0.2040E-05
    -35.235  0.4077E-07  0.4193E-07  0.6412E-02  0.6597E-02  0.6412E-02  0.6597E-02  0.6412E-02  0.6597E-02  0.5163E-07  0.5313E-07  0.5163E-07  0.5313E-07  0.1366E-08  0.1414E-08  0.5163E-07  0.5313E-07  0.1366E-08  0.1414E-08
    -35.013  0.0000E+00  0.0000E+00  0.0000E+00  0.0000E+00  0.0000E+00  0.0000E+00  0.0000E+00  0.0000E+00  0.0000E+00  0.0000E+00  0.0000E+00  0.0000E+00  0.0000E+00  0.0000E+00  0.0000E+00  0.0000E+00  0.0000E+00  0.0000E+00
    -34.792  0.0000E+00  0.0000E+00  0.0000E+00  0.0000E+00  0.0000E+00  0.0000E+00  0.0000E+00  0.0000E+00  0.0000E+00  0.0000E+00  0.0000E+00  0.0000E+00  0.0000E+00  0.0000E+00  0.0000E+00  0.0000E+00  0.0000E+00  0.0000E+00
    -34.571  0.0000E+00  0.0000E+00  0.0000E+00  0.0000E+00  0.0000E+00  0.0000E+00  0.0000E+00  0.0000E+00  0.0000E+00  0.0000E+00  0.0000E+00  0.0000E+00  0.0000E+00  0.0000E+00  0.0000E+00  0.0000E+00  0.0000E+00  0.0000E+00
    -34.349  0.0000E+00  0.0000E+00  0.0000E+00  0.0000E+00  0.0000E+00  0.0000E+00  0.0000E+00  0.0000E+00  0.0000E+00  0.0000E+00  0.0000E+00  0.0000E+00  0.0000E+00  0.0000E+00  0.0000E+00  0.0000E+00  0.0000E+00  0.0000E+00
    -34.128  0.0000E+00  0.0000E+00  0.0000E+00  0.0000E+00  0.0000E+00  0.0000E+00  0.0000E+00  0.0000E+00  0.0000E+00  0.0000E+00  0.0000E+00  0.0000E+00  0.0000E+00  0.0000E+00  0.0000E+00  0.0000E+00  0.0000E+00  0.0000E+00
    -33.906  0.0000E+00  0.0000E+00  0.0000E+00  0.0000E+00  0.0000E+00  0.0000E+00  0.0000E+00  0.0000E+00  0.0000E+00  0.0000E+00  0.0000E+00  0.0000E+00  0.0000E+00  0.0000E+00  0.0000E+00  0.0000E+00  0.0000E+00  0.0000E+00
    -33.685  0.0000E+00  0.0000E+00  0.0000E+00  0.0000E+00  0.0000E+00  0.0000E+00  0.0000E+00  0.0000E+00  0.0000E+00  0.0000E+00  0.0000E+00  0.0000E+00  0.0000E+00  0.0000E+00  0.0000E+00  0.0000E+00  0.0000E+00  0.0000E+00
    -33.464  0.0000E+00  0.0000E+00  0.0000E+00  0.0000E+00  0.0000E+00  0.0000E+00  0.0000E+00  0.0000E+00  0.0000E+00  0.0000E+00  0.0000E+00  0.0000E+00  0.0000E+00  0.0000E+00  0.0000E+00  0.0000E+00  0.0000E+00  0.0000E+00
    -33.242  0.0000E+00  0.0000E+00  0.0000E+00  0.0000E+00  0.0000E+00  0.0000E+00  0.0000E+00  0.0000E+00  0.0000E+00  0.0000E+00  0.0000E+00  0.0000E+00  0.0000E+00  0.0000E+00  0.0000E+00  0.0000E+00  0.0000E+00  0.0000E+00
    -33.021  0.0000E+00  0.0000E+00  0.0000E+00  0.0000E+00  0.0000E+00  0.0000E+00  0.0000E+00  0.0000E+00  0.0000E+00  0.0000E+00  0.0000E+00  0.0000E+00  0.0000E+00  0.0000E+00  0.0000E+00  0.0000E+00  0.0000E+00  0.0000E+00
    -32.799  0.0000E+00  0.0000E+00  0.0000E+00  0.0000E+00  0.0000E+00  0.0000E+00  0.0000E+00  0.0000E+00  0.0000E+00  0.0000E+00  0.0000E+00  0.0000E+00  0.0000E+00  0.0000E+00  0.0000E+00  0.0000E+00  0.0000E+00  0.0000E+00
    -32.578  0.0000E+00  0.0000E+00  0.0000E+00  0.0000E+00  0.0000E+00  0.0000E+00  0.0000E+00  0.0000E+00  0.0000E+00  0.0000E+00  0.0000E+00  0.0000E+00  0.0000E+00  0.0000E+00  0.0000E+00  0.0000E+00  0.0000E+00  0.0000E+00
    -32.357  0.0000E+00  0.0000E+00  0.0000E+00  0.0000E+00  0.0000E+00  0.0000E+00  0.0000E+00  0.0000E+00  0.0000E+00  0.0000E+00  0.0000E+00  0.0000E+00  0.0000E+00  0.0000E+00  0.0000E+00  0.0000E+00  0.0000E+00  0.0000E+00
    -32.135  0.0000E+00  0.0000E+00  0.0000E+00  0.0000E+00  0.0000E+00  0.0000E+00  0.0000E+00  0.0000E+00  0.0000E+00  0.0000E+00  0.0000E+00  0.0000E+00  0.0000E+00  0.0000E+00  0.0000E+00  0.0000E+00  0.0000E+00  0.0000E+00
    -31.914  0.0000E+00  0.0000E+00  0.0000E+00  0.0000E+00  0.0000E+00  0.0000E+00  0.0000E+00  0.0000E+00  0.0000E+00  0.0000E+00  0.0000E+00  0.0000E+00  0.0000E+00  0.0000E+00  0.0000E+00  0.0000E+00  0.0000E+00  0.0000E+00
    -31.692  0.0000E+00  0.0000E+00  0.0000E+00  0.0000E+00  0.0000E+00  0.0000E+00  0.0000E+00  0.0000E+00  0.0000E+00  0.0000E+00  0.0000E+00  0.0000E+00  0.0000E+00  0.0000E+00  0.0000E+00  0.0000E+00  0.0000E+00  0.0000E+00
    -31.471  0.0000E+00  0.0000E+00  0.0000E+00  0.0000E+00  0.0000E+00  0.0000E+00  0.0000E+00  0.0000E+00  0.0000E+00  0.0000E+00  0.0000E+00  0.0000E+00  0.0000E+00  0.0000E+00  0.0000E+00  0.0000E+00  0.0000E+00  0.0000E+00
    -31.249  0.0000E+00  0.0000E+00  0.0000E+00  0.0000E+00  0.0000E+00  0.0000E+00  0.0000E+00  0.0000E+00  0.0000E+00  0.0000E+00  0.0000E+00  0.0000E+00  0.0000E+00  0.0000E+00  0.0000E+00  0.0000E+00  0.0000E+00  0.0000E+00
    -31.028  0.0000E+00  0.0000E+00  0.0000E+00  0.0000E+00  0.0000E+00  0.0000E+00  0.0000E+00  0.0000E+00  0.0000E+00  0.0000E+00  0.0000E+00  0.0000E+00  0.0000E+00  0.0000E+00  0.0000E+00  0.0000E+00  0.0000E+00  0.0000E+00
    -30.807  0.0000E+00  0.0000E+00  0.0000E+00  0.0000E+00  0.0000E+00  0.0000E+00  0.0000E+00  0.0000E+00  0.0000E+00  0.0000E+00  0.0000E+00  0.0000E+00  0.0000E+00  0.0000E+00  0.0000E+00  0.0000E+00  0.0000E+00  0.0000E+00
    -30.585  0.0000E+00  0.0000E+00  0.0000E+00  0.0000E+00  0.0000E+00  0.0000E+00  0.0000E+00  0.0000E+00  0.0000E+00  0.0000E+00  0.0000E+00  0.0000E+00  0.0000E+00  0.0000E+00  0.0000E+00  0.0000E+00  0.0000E+00  0.0000E+00
    -30.364  0.0000E+00  0.0000E+00  0.0000E+00  0.0000E+00  0.0000E+00  0.0000E+00  0.0000E+00  0.0000E+00  0.0000E+00  0.0000E+00  0.0000E+00  0.0000E+00  0.0000E+00  0.0000E+00  0.0000E+00  0.0000E+00  0.0000E+00  0.0000E+00
    -30.142  0.0000E+00  0.0000E+00  0.0000E+00  0.0000E+00  0.0000E+00  0.0000E+00  0.0000E+00  0.0000E+00  0.0000E+00  0.0000E+00  0.0000E+00  0.0000E+00  0.0000E+00  0.0000E+00  0.0000E+00  0.0000E+00  0.0000E+00  0.0000E+00
    -29.921  0.0000E+00  0.0000E+00  0.0000E+00  0.0000E+00  0.0000E+00  0.0000E+00  0.0000E+00  0.0000E+00  0.0000E+00  0.0000E+00  0.0000E+00  0.0000E+00  0.0000E+00  0.0000E+00  0.0000E+00  0.0000E+00  0.0000E+00  0.0000E+00
    -29.700  0.0000E+00  0.0000E+00  0.0000E+00  0.0000E+00  0.0000E+00  0.0000E+00  0.0000E+00  0.0000E+00  0.0000E+00  0.0000E+00  0.0000E+00  0.0000E+00  0.0000E+00  0.0000E+00  0.0000E+00  0.0000E+00  0.0000E+00  0.0000E+00
    -29.478  0.0000E+00  0.0000E+00  0.0000E+00  0.0000E+00  0.0000E+00  0.0000E+00  0.0000E+00  0.0000E+00  0.0000E+00  0.0000E+00  0.0000E+00  0.0000E+00  0.0000E+00  0.0000E+00  0.0000E+00  0.0000E+00  0.0000E+00  0.0000E+00
    -29.257  0.0000E+00  0.0000E+00  0.0000E+00  0.0000E+00  0.0000E+00  0.0000E+00  0.0000E+00  0.0000E+00  0.0000E+00  0.0000E+00  0.0000E+00  0.0000E+00  0.0000E+00  0.0000E+00  0.0000E+00  0.0000E+00  0.0000E+00  0.0000E+00
    -29.035  0.0000E+00  0.0000E+00  0.0000E+00  0.0000E+00  0.0000E+00  0.0000E+00  0.0000E+00  0.0000E+00  0.0000E+00  0.0000E+00  0.0000E+00  0.0000E+00  0.0000E+00  0.0000E+00  0.0000E+00  0.0000E+00  0.0000E+00  0.0000E+00
    -28.814  0.0000E+00  0.0000E+00  0.0000E+00  0.0000E+00  0.0000E+00  0.0000E+00  0.0000E+00  0.0000E+00  0.0000E+00  0.0000E+00  0.0000E+00  0.0000E+00  0.0000E+00  0.0000E+00  0.0000E+00  0.0000E+00  0.0000E+00  0.0000E+00
    -28.593  0.0000E+00  0.0000E+00  0.0000E+00  0.0000E+00  0.0000E+00  0.0000E+00  0.0000E+00  0.0000E+00  0.0000E+00  0.0000E+00  0.0000E+00  0.0000E+00  0.0000E+00  0.0000E+00  0.0000E+00  0.0000E+00  0.0000E+00  0.0000E+00
    -28.371  0.0000E+00  0.0000E+00  0.0000E+00  0.0000E+00  0.0000E+00  0.0000E+00  0.0000E+00  0.0000E+00  0.0000E+00  0.0000E+00  0.0000E+00  0.0000E+00  0.0000E+00  0.0000E+00  0.0000E+00  0.0000E+00  0.0000E+00  0.0000E+00
    -28.150  0.0000E+00  0.0000E+00  0.0000E+00  0.0000E+00  0.0000E+00  0.0000E+00  0.0000E+00  0.0000E+00  0.0000E+00  0.0000E+00  0.0000E+00  0.0000E+00  0.0000E+00  0.0000E+00  0.0000E+00  0.0000E+00  0.0000E+00  0.0000E+00
    -27.928  0.0000E+00  0.0000E+00  0.0000E+00  0.0000E+00  0.0000E+00  0.0000E+00  0.0000E+00  0.0000E+00  0.0000E+00  0.0000E+00  0.0000E+00  0.0000E+00  0.0000E+00  0.0000E+00  0.0000E+00  0.0000E+00  0.0000E+00  0.0000E+00