   2   2   1   0
  0.9884286E+01  0.2703907E-09  0.2703907E-09  0.2703907E-09  0.5000000E-15
  1.000000000000000E-004
  CAR 
 unknown system                          
     38.74074568    -33.89733888  301     13.39690610      1.00000000
    -33.897  0.0000E+00  0.0000E+00  0.0000E+00  0.0000E+00
    -33.655  0.0000E+00  0.0000E+00  0.0000E+00  0.0000E+00
    -33.413  0.0000E+00  0.0000E+00  0.0000E+00  0.0000E+00
    -33.171  0.0000E+00  0.0000E+00  0.0000E+00  0.0000E+00
    -32.929  0.0000E+00  0.0000E+00  0.0000E+00  0.0000E+00
    -32.687  0.0000E+00  0.0000E+00  0.0000E+00  0.0000E+00
    -32.445  0.0000E+00  0.0000E+00  0.0000E+00  0.0000E+00
    -32.202  0.0000E+00  0.0000E+00  0.0000E+00  0.0000E+00
    -31.960  0.0000E+00  0.0000E+00  0.0000E+00  0.0000E+00
    -31.718  0.0000E+00  0.0000E+00  0.0000E+00  0.0000E+00
    -31.476  0.0000E+00  0.0000E+00  0.0000E+00  0.0000E+00
    -31.234  0.6302E-07  0.6439E-07  0.1526E-07  0.1559E-07
    -30.992  0.8982E-04  0.9178E-04  0.2176E-04  0.2224E-04
    -30.750  0.1146E-01  0.1170E-01  0.2796E-02  0.2856E-02
    -30.508  0.6362E+00  0.6440E+00  0.1568E+00  0.1588E+00
    -30.265  0.3442E+01  0.3454E+01  0.9903E+00  0.9950E+00
    -30.023  0.3272E+01  0.3266E+01  0.1787E+01  0.1790E+01
    -29.781  0.3151E+01  0.3157E+01  0.2556E+01  0.2560E+01
    -29.539  0.4424E+01  0.4429E+01  0.3632E+01  0.3638E+01
    -29.297  0.5069E+01  0.5075E+01  0.4867E+01  0.4874E+01
    -29.055  0.4353E+01  0.4330E+01  0.5930E+01  0.5932E+01
    -28.813  0.2312E+00  0.2264E+00  0.5999E+01  0.6000E+01
    -28.571  0.0000E+00  0.0000E+00  0.6000E+01  0.6000E+01
    -28.328  0.0000E+00  0.0000E+00  0.6000E+01  0.6000E+01
    -28.086  0.0000E+00  0.0000E+00  0.6000E+01  0.6000E+01
    -27.844  0.0000E+00  0.0000E+00  0.6000E+01  0.6000E+01
    -27.602  0.0000E+00  0.0000E+00  0.6000E+01  0.6000E+01
    -27.360  0.0000E+00  0.0000E+00  0.6000E+01  0.6000E+01
    -27.118  0.0000E+00  0.0000E+00  0.6000E+01  0.6000E+01
    -26.876  0.0000E+00  0.0000E+00  0.6000E+01  0.6000E+01
    -26.634  0.0000E+00  0.0000E+00  0.6000E+01  0.6000E+01
    -26.391  0.0000E+00  0.0000E+00  0.6000E+01  0.6000E+01
    -26.149  0.0000E+00  0.0000E+00  0.6000E+01  0.6000E+01
    -25.907  0.0000E+00  0.0000E+00  0.6000E+01  0.6000E+01
    -25.665  0.0000E+00  0.0000E+00  0.6000E+01  0.6000E+01
    -25.423  0.0000E+00  0.0000E+00  0.6000E+01  0.6000E+01
    -25.181  0.0000E+00  0.0000E+00  0.6000E+01  0.6000E+01
    -24.939  0.0000E+00  0.0000E+00  0.6000E+01  0.6000E+01
    -24.697  0.0000E+00  0.0000E+00  0.6000E+01  0.6000E+01
    -24.454  0.0000E+00  0.0000E+00  0.6000E+01  0.6000E+01
    -24.212  0.0000E+00  0.0000E+00  0.6000E+01  0.6000E+01
    -23.970  0.0000E+00  0.0000E+00  0.6000E+01  0.6000E+01
    -23.728  0.0000E+00  0.0000E+00  0.6000E+01  0.6000E+01
    -23.486  0.0000E+00  0.0000E+00  0.6000E+01  0.6000E+01
    -23.244  0.0000E+00  0.0000E+00  0.6000E+01  0.6000E+01
    -23.002  0.0000E+00  0.0000E+00  0.6000E+01  0.6000E+01
    -22.759  0.0000E+00  0.0000E+00  0.6000E+01  0.6000E+01
    -22.517  0.0000E+00  0.0000E+00  0.6000E+01  0.6000E+01
    -22.275  0.0000E+00  0.0000E+00  0.6000E+01  0.6000E+01
    -22.033  0.0000E+00  0.0000E+00  0.6000E+01  0.6000E+01
    -21.791  0.0000E+00  0.0000E+00  0.6000E+01  0.6000E+01
    -21.549  0.0000E+00  0.0000E+00  0.6000E+01  0.6000E+01
    -21.307  0.0000E+00  0.0000E+00  0.6000E+01  0.6000E+01
    -21.065  0.0000E+00  0.0000E+00  0.6000E+01  0.6000E+01
    -20.822  0.0000E+00  0.0000E+00  0.6000E+01  0.6000E+01
    -20.580  0.0000E+00  0.0000E+00  0.6000E+01  0.6000E+01
    -20.338  0.0000E+00  0.0000E+00  0.6000E+01  0.6000E+01
    -20.096  0.0000E+00  0.0000E+00  0.6000E+01  0.6000E+01
    -19.854  0.0000E+00  0.0000E+00  0.6000E+01  0.6000E+01
    -19.612  0.0000E+00  0.0000E+00  0.6000E+01  0.6000E+01
    -19.370  0.0000E+00  0.0000E+00  0.6000E+01  0.6000E+01
    -19.128  0.0000E+00  0.0000E+00  0.6000E+01  0.6000E+01
    -18.885  0.0000E+00  0.0000E+00  0.6000E+01  0.6000E+01
    -18.643  0.0000E+00  0.0000E+00  0.6000E+01  0.6000E+01
    -18.401  0.0000E+00  0.0000E+00  0.6000E+01  0.6000E+01
    -18.159  0.0000E+00  0.0000E+00  0.6000E+01  0.6000E+01
    -17.917  0.0000E+00  0.0000E+00  0.6000E+01  0.6000E+01
    -17.675  0.0000E+00  0.0000E+00  0.6000E+01  0.6000E+01
    -17.433  0.0000E+00  0.0000E+00  0.6000E+01  0.6000E+01
    -17.191  0.0000E+00  0.0000E+00  0.6000E+01  0.6000E+01
    -16.948  0.0000E+00  0.0000E+00  0.6000E+01  0.6000E+01
    -16.706  0.0000E+00  0.0000E+00  0.6000E+01  0.6000E+01
    -16.464  0.0000E+00  0.0000E+00  0.6000E+01  0.6000E+01
    -16.222  0.0000E+00  0.0000E+00  0.6000E+01  0.6000E+01
    -15.980  0.0000E+00  0.0000E+00  0.6000E+01  0.6000E+01
    -15.738  0.0000E+00  0.0000E+00  0.6000E+01  0.6000E+01
    -15.496  0.0000E+00  0.0000E+00  0.6000E+01  0.6000E+01
    -15.254  0.0000E+00  0.0000E+00  0.6000E+01  0.6000E+01
    -15.011  0.0000E+00  0.0000E+00  0.6000E+01  0.6000E+01
    -14.769  0.0000E+00  0.0000E+00  0.6000E+01  0.6000E+01
    -14.527  0.0000E+00  0.0000E+00  0.6000E+01  0.6000E+01
    -14.285  0.0000E+00  0.0000E+00  0.6000E+01  0.6000E+01
    -14.043  0.0000E+00  0.0000E+00  0.6000E+01  0.6000E+01
    -13.801  0.0000E+00  0.0000E+00  0.6000E+01  0.6000E+01
    -13.559  0.0000E+00  0.0000E+00  0.6000E+01  0.6000E+01
    -13.317  0.0000E+00  0.0000E+00  0.6000E+01  0.6000E+01
    -13.074  0.0000E+00  0.0000E+00  0.6000E+01  0.6000E+01
    -12.832  0.0000E+00  0.0000E+00  0.6000E+01  0.6000E+01
    -12.590  0.0000E+00  0.0000E+00  0.6000E+01  0.6000E+01
    -12.348  0.0000E+00  0.0000E+00  0.6000E+01  0.6000E+01
    -12.106  0.0000E+00  0.0000E+00  0.6000E+01  0.6000E+01
    -11.864  0.0000E+00  0.0000E+00  0.6000E+01  0.6000E+01
    -11.622  0.0000E+00  0.0000E+00  0.6000E+01  0.6000E+01
    -11.380  0.0000E+00  0.0000E+00  0.6000E+01  0.6000E+01
    -11.137  0.0000E+00  0.0000E+00  0.6000E+01  0.6000E+01
    -10.895  0.0000E+00  0.0000E+00  0.6000E+01  0.6000E+01
    -10.653  0.0000E+00  0.0000E+00  0.6000E+01  0.6000E+01
    -10.411  0.0000E+00  0.0000E+00  0.6000E+01  0.6000E+01
    -10.169  0.0000E+00  0.0000E+00  0.6000E+01  0.6000E+01
     -9.927  0.0000E+00  0.0000E+00  0.6000E+01  0.6000E+01
     -9.685  0.0000E+00  0.0000E+00  0.6000E+01  0.6000E+01
     -9.443  0.0000E+00  0.0000E+00  0.6000E+01  0.6000E+01
     -9.200  0.0000E+00  0.0000E+00  0.6000E+01  0.6000E+01
     -8.958  0.0000E+00  0.0000E+00  0.6000E+01  0.6000E+01
     -8.716  0.0000E+00  0.0000E+00  0.6000E+01  0.6000E+01
     -8.474  0.0000E+00  0.0000E+00  0.6000E+01  0.6000E+01
     -8.232  0.0000E+00  0.0000E+00  0.6000E+01  0.6000E+01
     -7.990  0.0000E+00  0.0000E+00  0.6000E+01  0.6000E+01
     -7.748  0.0000E+00  0.0000E+00  0.6000E+01  0.6000E+01
     -7.506  0.0000E+00  0.0000E+00  0.6000E+01  0.6000E+01
     -7.263  0.0000E+00  0.0000E+00  0.6000E+01  0.6000E+01
     -7.021  0.0000E+00  0.0000E+00  0.6000E+01  0.6000E+01
     -6.779  0.0000E+00  0.0000E+00  0.6000E+01  0.6000E+01
     -6.537  0.0000E+00  0.0000E+00  0.6000E+01  0.6000E+01
     -6.295  0.0000E+00  0.0000E+00  0.6000E+01  0.6000E+01
     -6.053  0.0000E+00  0.0000E+00  0.6000E+01  0.6000E+01
     -5.811  0.0000E+00  0.0000E+00  0.6000E+01  0.6000E+01
     -5.568  0.0000E+00  0.0000E+00  0.6000E+01  0.6000E+01
     -5.326  0.0000E+00  0.0000E+00  0.6000E+01  0.6000E+01
     -5.084  0.0000E+00  0.0000E+00  0.6000E+01  0.6000E+01
     -4.842  0.0000E+00  0.0000E+00  0.6000E+01  0.6000E+01
     -4.600  0.0000E+00  0.0000E+00  0.6000E+01  0.6000E+01
     -4.358  0.0000E+00  0.0000E+00  0.6000E+01  0.6000E+01
     -4.116  0.0000E+00  0.0000E+00  0.6000E+01  0.6000E+01
     -3.874  0.0000E+00  0.0000E+00  0.6000E+01  0.6000E+01
     -3.631  0.0000E+00  0.0000E+00  0.6000E+01  0.6000E+01
     -3.389  0.0000E+00  0.0000E+00  0.6000E+01  0.6000E+01
     -3.147  0.0000E+00  0.0000E+00  0.6000E+01  0.6000E+01
     -2.905  0.0000E+00  0.0000E+00  0.6000E+01  0.6000E+01
     -2.663  0.0000E+00  0.0000E+00  0.6000E+01  0.6000E+01
     -2.421  0.0000E+00  0.0000E+00  0.6000E+01  0.6000E+01
     -2.179  0.0000E+00  0.0000E+00  0.6000E+01  0.6000E+01
     -1.937  0.0000E+00  0.0000E+00  0.6000E+01  0.6000E+01
     -1.694  0.0000E+00  0.0000E+00  0.6000E+01  0.6000E+01
     -1.452  0.0000E+00  0.0000E+00  0.6000E+01  0.6000E+01
     -1.210  0.0000E+00  0.0000E+00  0.6000E+01  0.6000E+01
     -0.968  0.0000E+00  0.0000E+00  0.6000E+01  0.6000E+01
     -0.726  0.0000E+00  0.0000E+00  0.6000E+01  0.6000E+01
     -0.484  0.0000E+00  0.0000E+00  0.6000E+01  0.6000E+01
     -0.242  0.0000E+00  0.0000E+00  0.6000E+01  0.6000E+01
      0.000  0.0000E+00  0.0000E+00  0.6000E+01  0.6000E+01
      0.243  0.0000E+00  0.0000E+00  0.6000E+01  0.6000E+01
      0.485  0.0000E+00  0.0000E+00  0.6000E+01  0.6000E+01
      0.727  0.0000E+00  0.0000E+00  0.6000E+01  0.6000E+01
      0.969  0.0000E+00  0.0000E+00  0.6000E+01  0.6000E+01
      1.211  0.0000E+00  0.0000E+00  0.6000E+01  0.6000E+01
      1.453  0.0000E+00  0.0000E+00  0.6000E+01  0.6000E+01
      1.695  0.0000E+00  0.0000E+00  0.6000E+01  0.6000E+01
      1.937  0.0000E+00  0.0000E+00  0.6000E+01  0.6000E+01
      2.180  0.0000E+00  0.0000E+00  0.6000E+01  0.6000E+01
      2.422  0.0000E+00  0.0000E+00  0.6000E+01  0.6000E+01
      2.664  0.0000E+00  0.0000E+00  0.6000E+01  0.6000E+01
      2.906  0.0000E+00  0.0000E+00  0.6000E+01  0.6000E+01
      3.148  0.0000E+00  0.0000E+00  0.6000E+01  0.6000E+01
      3.390  0.0000E+00  0.0000E+00  0.6000E+01  0.6000E+01
      3.632  0.0000E+00  0.0000E+00  0.6000E+01  0.6000E+01
      3.874  0.0000E+00  0.0000E+00  0.6000E+01  0.6000E+01
      4.117  0.0000E+00  0.0000E+00  0.6000E+01  0.6000E+01
      4.359  0.5436E-08  0.5531E-08  0.6000E+01  0.6000E+01
      4.601  0.8862E-06  0.9016E-06  0.6000E+01  0.6000E+01
      4.843  0.1110E-03  0.1129E-03  0.6000E+01  0.6000E+01
      5.085  0.4370E-02  0.4412E-02  0.6001E+01  0.6001E+01
      5.327  0.2466E-01  0.2473E-01  0.6007E+01  0.6007E+01
      5.569  0.2694E-01  0.2693E-01  0.6014E+01  0.6014E+01
      5.811  0.5587E-01  0.5603E-01  0.6027E+01  0.6027E+01
      6.054  0.4413E-01  0.4397E-01  0.6038E+01  0.6038E+01
      6.296  0.6040E-01  0.6066E-01  0.6053E+01  0.6053E+01
      6.538  0.8525E-01  0.8520E-01  0.6074E+01  0.6074E+01
      6.780  0.7787E-01  0.7800E-01  0.6093E+01  0.6093E+01
      7.022  0.8919E-01  0.8891E-01  0.6114E+01  0.6114E+01
      7.264  0.1022E+00  0.1029E+00  0.6140E+01  0.6140E+01
      7.506  0.1506E+00  0.1504E+00  0.6176E+01  0.6176E+01
      7.748  0.1341E+00  0.1341E+00  0.6209E+01  0.6209E+01
      7.991  0.1875E+00  0.1878E+00  0.6255E+01  0.6256E+01
      8.233  0.4783E+00  0.4803E+00  0.6371E+01  0.6372E+01
      8.475  0.9168E+00  0.9164E+00  0.6594E+01  0.6594E+01
      8.717  0.8375E+00  0.8389E+00  0.6799E+01  0.6800E+01
      8.959  0.1194E+01  0.1194E+01  0.7090E+01  0.7091E+01
      9.201  0.1158E+01  0.1159E+01  0.7374E+01  0.7375E+01
      9.443  0.1464E+01  0.1463E+01  0.7730E+01  0.7731E+01
      9.686  0.9297E+00  0.9297E+00  0.7959E+01  0.7960E+01
      9.928  0.8007E+00  0.7993E+00  0.8155E+01  0.8155E+01
     10.170  0.5280E+00  0.5289E+00  0.8284E+01  0.8285E+01
     10.412  0.1478E+01  0.1481E+01  0.8643E+01  0.8644E+01
     10.654  0.1937E+01  0.1937E+01  0.9115E+01  0.9117E+01
     10.896  0.1421E+01  0.1421E+01  0.9465E+01  0.9466E+01
     11.138  0.1150E+01  0.1148E+01  0.9747E+01  0.9748E+01
     11.380  0.1239E+01  0.1240E+01  0.1005E+02  0.1005E+02
     11.623  0.1557E+01  0.1559E+01  0.1043E+02  0.1043E+02
     11.865  0.1833E+01  0.1833E+01  0.1087E+02  0.1088E+02
     12.107  0.1395E+01  0.1395E+01  0.1122E+02  0.1122E+02
     12.349  0.8948E+00  0.8928E+00  0.1144E+02  0.1144E+02
     12.591  0.6061E+00  0.6063E+00  0.1159E+02  0.1159E+02
     12.833  0.4958E+00  0.4950E+00  0.1171E+02  0.1171E+02
     13.075  0.4224E+00  0.4229E+00  0.1181E+02  0.1181E+02
     13.317  0.5664E+00  0.5668E+00  0.1195E+02  0.1195E+02
     13.560  0.6990E+00  0.6992E+00  0.1212E+02  0.1212E+02
     13.802  0.8492E+00  0.8484E+00  0.1233E+02  0.1233E+02
     14.044  0.1201E+01  0.1201E+01  0.1262E+02  0.1262E+02
     14.286  0.1500E+01  0.1501E+01  0.1298E+02  0.1298E+02
     14.528  0.1710E+01  0.1710E+01  0.1340E+02  0.1340E+02
     14.770  0.1885E+01  0.1887E+01  0.1386E+02  0.1386E+02
     15.012  0.2173E+01  0.2173E+01  0.1439E+02  0.1439E+02
     15.254  0.2527E+01  0.2528E+01  0.1501E+02  0.1501E+02
     15.497  0.1872E+01  0.1870E+01  0.1546E+02  0.1547E+02
     15.739  0.1320E+01  0.1317E+01  0.1579E+02  0.1579E+02
     15.981  0.9121E+00  0.9083E+00  0.1601E+02  0.1601E+02
     16.223  0.9584E+00  0.9593E+00  0.1625E+02  0.1625E+02
     16.465  0.9382E+00  0.9372E+00  0.1647E+02  0.1647E+02
     16.707  0.4461E+00  0.4449E+00  0.1658E+02  0.1658E+02
     16.949  0.3557E+00  0.3556E+00  0.1667E+02  0.1667E+02
     17.191  0.3093E+00  0.3097E+00  0.1675E+02  0.1675E+02
     17.434  0.2902E+00  0.2879E+00  0.1682E+02  0.1682E+02
     17.676  0.2031E+00  0.2036E+00  0.1687E+02  0.1687E+02
     17.918  0.4078E+00  0.4078E+00  0.1697E+02  0.1697E+02
     18.160  0.1434E+00  0.1428E+00  0.1700E+02  0.1700E+02
     18.402  0.1455E+00  0.1458E+00  0.1704E+02  0.1704E+02
     18.644  0.2573E+00  0.2580E+00  0.1710E+02  0.1710E+02
     18.886  0.3851E+00  0.3851E+00  0.1719E+02  0.1719E+02
     19.128  0.2257E+00  0.2252E+00  0.1725E+02  0.1725E+02
     19.371  0.2455E+00  0.2454E+00  0.1731E+02  0.1731E+02
     19.613  0.1093E+00  0.1091E+00  0.1734E+02  0.1734E+02
     19.855  0.1930E+00  0.1938E+00  0.1738E+02  0.1738E+02
     20.097  0.2469E+00  0.2467E+00  0.1744E+02  0.1744E+02
     20.339  0.3076E+00  0.3093E+00  0.1752E+02  0.1752E+02
     20.581  0.4135E+01  0.4199E+01  0.1852E+02  0.1854E+02
     20.823  0.4390E+01  0.4326E+01  0.1958E+02  0.1959E+02
     21.065  0.1322E+00  0.1321E+00  0.1963E+02  0.1963E+02
     21.308  0.1918E+00  0.1919E+00  0.1968E+02  0.1968E+02
     21.550  0.1606E+00  0.1612E+00  0.1972E+02  0.1972E+02
     21.792  0.1669E+00  0.1660E+00  0.1976E+02  0.1976E+02
     22.034  0.7496E-01  0.7512E-01  0.1978E+02  0.1978E+02
     22.276  0.1432E+00  0.1437E+00  0.1981E+02  0.1981E+02
     22.518  0.2397E+00  0.2397E+00  0.1987E+02  0.1987E+02
     22.760  0.7665E-01  0.7592E-01  0.1989E+02  0.1989E+02
     23.002  0.3601E-01  0.3469E-01  0.1990E+02  0.1990E+02
     23.245  0.9799E-01  0.9756E-01  0.1992E+02  0.1992E+02
     23.487  0.1883E-01  0.1891E-01  0.1993E+02  0.1993E+02
     23.729  0.1112E+00  0.1115E+00  0.1996E+02  0.1996E+02
     23.971  0.8861E-01  0.8841E-01  0.1998E+02  0.1998E+02
     24.213  0.5303E-01  0.5281E-01  0.1999E+02  0.1999E+02
     24.455  0.6818E-02  0.6840E-02  0.1999E+02  0.1999E+02
     24.697  0.7633E-01  0.7674E-01  0.2001E+02  0.2001E+02
     24.940  0.1389E+00  0.1392E+00  0.2004E+02  0.2004E+02
     25.182  0.3499E+00  0.3514E+00  0.2013E+02  0.2013E+02
     25.424  0.5895E+00  0.5897E+00  0.2027E+02  0.2027E+02
     25.666  0.7361E+00  0.7363E+00  0.2045E+02  0.2045E+02
     25.908  0.4111E+00  0.4095E+00  0.2055E+02  0.2055E+02
     26.150  0.2199E+00  0.2200E+00  0.2061E+02  0.2061E+02
     26.392  0.3487E+00  0.3504E+00  0.2069E+02  0.2069E+02
     26.634  0.6268E+00  0.6256E+00  0.2084E+02  0.2084E+02
     26.877  0.3061E+00  0.3056E+00  0.2092E+02  0.2092E+02
     27.119  0.3135E+00  0.3143E+00  0.2100E+02  0.2100E+02
     27.361  0.3471E+00  0.3463E+00  0.2108E+02  0.2108E+02
     27.603  0.4621E+00  0.4645E+00  0.2119E+02  0.2119E+02
     27.845  0.6475E+00  0.6466E+00  0.2135E+02  0.2135E+02
     28.087  0.3732E+00  0.3721E+00  0.2144E+02  0.2144E+02
     28.329  0.2036E+00  0.2040E+00  0.2149E+02  0.2149E+02
     28.571  0.2881E+00  0.2883E+00  0.2156E+02  0.2156E+02
     28.814  0.4049E+00  0.4064E+00  0.2166E+02  0.2166E+02
     29.056  0.6829E+00  0.6829E+00  0.2183E+02  0.2183E+02
     29.298  0.3416E+00  0.3403E+00  0.2191E+02  0.2191E+02
     29.540  0.2287E+00  0.2286E+00  0.2197E+02  0.2197E+02
     29.782  0.3266E+00  0.3269E+00  0.2205E+02  0.2205E+02
     30.024  0.3863E+00  0.3852E+00  0.2215E+02  0.2215E+02
     30.266  0.4623E+00  0.4631E+00  0.2226E+02  0.2226E+02
     30.508  0.4610E+00  0.4602E+00  0.2237E+02  0.2237E+02
     30.751  0.3531E+00  0.3533E+00  0.2246E+02  0.2246E+02
     30.993  0.3782E+00  0.3785E+00  0.2255E+02  0.2255E+02
     31.235  0.3200E+00  0.3187E+00  0.2263E+02  0.2263E+02
     31.477  0.3182E+00  0.3198E+00  0.2271E+02  0.2271E+02
     31.719  0.6819E+00  0.6820E+00  0.2287E+02  0.2287E+02
     31.961  0.5055E+00  0.5030E+00  0.2300E+02  0.2300E+02
     32.203  0.3719E+00  0.3716E+00  0.2309E+02  0.2309E+02
     32.445  0.2168E+00  0.2137E+00  0.2314E+02  0.2314E+02
     32.688  0.3919E+00  0.3888E+00  0.2324E+02  0.2323E+02
     32.930  0.3655E+00  0.3143E+00  0.2332E+02  0.2331E+02
     33.172  0.4980E+00  0.5068E+00  0.2345E+02  0.2343E+02
     33.414  0.5300E+00  0.5146E+00  0.2358E+02  0.2356E+02
     33.656  0.2842E+00  0.3121E+00  0.2365E+02  0.2364E+02
     33.898  0.4077E+00  0.4278E+00  0.2374E+02  0.2374E+02
     34.140  0.3518E+00  0.3534E+00  0.2383E+02  0.2383E+02
     34.382  0.2365E+00  0.1712E+00  0.2389E+02  0.2387E+02
     34.625  0.1761E+00  0.1286E+00  0.2393E+02  0.2390E+02
     34.867  0.1635E+00  0.2230E+00  0.2397E+02  0.2395E+02
     35.109  0.7589E-01  0.9920E-01  0.2399E+02  0.2398E+02
     35.351  0.4062E-01  0.4648E-01  0.2400E+02  0.2399E+02
     35.593  0.0000E+00  0.3652E-01  0.2400E+02  0.2400E+02
     35.835  0.0000E+00  0.1963E-02  0.2400E+02  0.2400E+02
     36.077  0.0000E+00  0.0000E+00  0.2400E+02  0.2400E+02
     36.319  0.0000E+00  0.0000E+00  0.2400E+02  0.2400E+02
     36.562  0.0000E+00  0.0000E+00  0.2400E+02  0.2400E+02
     36.804  0.0000E+00  0.0000E+00  0.2400E+02  0.2400E+02
     37.046  0.0000E+00  0.0000E+00  0.2400E+02  0.2400E+02
     37.288  0.0000E+00  0.0000E+00  0.2400E+02  0.2400E+02
     37.530  0.0000E+00  0.0000E+00  0.2400E+02  0.2400E+02
     37.772  0.0000E+00  0.0000E+00  0.2400E+02  0.2400E+02
     38.014  0.0000E+00  0.0000E+00  0.2400E+02  0.2400E+02
     38.256  0.0000E+00  0.0000E+00  0.2400E+02  0.2400E+02
     38.499  0.0000E+00  0.0000E+00  0.2400E+02  0.2400E+02
     38.741  0.0000E+00  0.0000E+00  0.2400E+02  0.2400E+02
     38.74074568    -33.89733888  301     13.39690610      1.00000000
    -33.897  0.0000E+00  0.0000E+00  0.0000E+00  0.0000E+00  0.0000E+00  0.0000E+00  0.0000E+00  0.0000E+00  0.0000E+00  0.0000E+00  0.0000E+00  0.0000E+00  0.0000E+00  0.0000E+00  0.0000E+00  0.0000E+00  0.0000E+00  0.0000E+00
    -33.655  0.0000E+00  0.0000E+00  0.0000E+00  0.0000E+00  0.0000E+00  0.0000E+00  0.0000E+00  0.0000E+00  0.0000E+00  0.0000E+00  0.0000E+00  0.0000E+00  0.0000E+00  0.0000E+00  0.0000E+00  0.0000E+00  0.0000E+00  0.0000E+00
    -33.413  0.0000E+00  0.0000E+00  0.0000E+00  0.0000E+00  0.0000E+00  0.0000E+00  0.0000E+00  0.0000E+00  0.0000E+00  0.0000E+00  0.0000E+00  0.0000E+00  0.0000E+00  0.0000E+00  0.0000E+00  0.0000E+00  0.0000E+00  0.0000E+00
    -33.171  0.0000E+00  0.0000E+00  0.0000E+00  0.0000E+00  0.0000E+00  0.0000E+00  0.0000E+00  0.0000E+00  0.0000E+00  0.0000E+00  0.0000E+00  0.0000E+00  0.0000E+00  0.0000E+00  0.0000E+00  0.0000E+00  0.0000E+00  0.0000E+00
    -32.929  0.0000E+00  0.0000E+00  0.0000E+00  0.0000E+00  0.0000E+00  0.0000E+00  0.0000E+00  0.0000E+00  0.0000E+00  0.0000E+00  0.0000E+00  0.0000E+00  0.0000E+00  0.0000E+00  0.0000E+00  0.0000E+00  0.0000E+00  0.0000E+00
    -32.687  0.0000E+00  0.0000E+00  0.0000E+00  0.0000E+00  0.0000E+00  0.0000E+00  0.0000E+00  0.0000E+00  0.0000E+00  0.0000E+00  0.0000E+00  0.0000E+00  0.0000E+00  0.0000E+00  0.0000E+00  0.0000E+00  0.0000E+00  0.0000E+00
    -32.445  0.0000E+00  0.0000E+00  0.0000E+00  0.0000E+00  0.0000E+00  0.0000E+00  0.0000E+00  0.0000E+00  0.0000E+00  0.0000E+00  0.0000E+00  0.0000E+00  0.0000E+00  0.0000E+00  0.0000E+00  0.0000E+00  0.0000E+00  0.0000E+00
    -32.202  0.0000E+00  0.0000E+00  0.0000E+00  0.0000E+00  0.0000E+00  0.0000E+00  0.0000E+00  0.0000E+00  0.0000E+00  0.0000E+00  0.0000E+00  0.0000E+00  0.0000E+00  0.0000E+00  0.0000E+00  0.0000E+00  0.0000E+00  0.0000E+00
    -31.960  0.0000E+00  0.0000E+00  0.0000E+00  0.0000E+00  0.0000E+00  0.0000E+00  0.0000E+00  0.0000E+00  0.0000E+00  0.0000E+00  0.0000E+00  0.0000E+00  0.0000E+00  0.0000E+00  0.0000E+00  0.0000E+00  0.0000E+00  0.0000E+00
    -31.718  0.0000E+00  0.0000E+00  0.0000E+00  0.0000E+00  0.0000E+00  0.0000E+00  0.0000E+00  0.0000E+00  0.0000E+00  0.0000E+00  0.0000E+00  0.0000E+00  0.0000E+00  0.0000E+00  0.0000E+00  0.0000E+00  0.0000E+00  0.0000E+00
    -31.476  0.0000E+00  0.0000E+00  0.0000E+00  0.0000E+00  0.0000E+00  0.0000E+00  0.0000E+00  0.0000E+00  0.0000E+00  0.0000E+00  0.0000E+00  0.0000E+00  0.0000E+00  0.0000E+00  0.0000E+00  0.0000E+00  0.0000E+00  0.0000E+00
    -31.234  0.4559E-21  0.2430E-21  0.1028E-07  0.1050E-07  0.1028E-07  0.1050E-07  0.1028E-07  0.1050E-07  0.1412E-19  0.3915E-18  0.1412E-19  0.3915E-18  0.6020E-12  0.6151E-12  0.1412E-19  0.3915E-18  0.6020E-12  0.6151E-12
    -30.992  0.6988E-08  0.7140E-08  0.1467E-04  0.1499E-04  0.1467E-04  0.1499E-04  0.1467E-04  0.1499E-04  0.4536E-08  0.4635E-08  0.4536E-08  0.4635E-08  0.2637E-08  0.2693E-08  0.4536E-08  0.4635E-08  0.2637E-08  0.2693E-08
    -30.750  0.9818E-06  0.1003E-05  0.1871E-02  0.1912E-02  0.1871E-02  0.1912E-02  0.1871E-02  0.1912E-02  0.6082E-06  0.6213E-06  0.6082E-06  0.6213E-06  0.3538E-06  0.3613E-06  0.6082E-06  0.6213E-06  0.3538E-06  0.3613E-06
    -30.508  0.7806E-04  0.7929E-04  0.1040E+00  0.1052E+00  0.1040E+00  0.1052E+00  0.1040E+00  0.1052E+00  0.4611E-04  0.4681E-04  0.4611E-04  0.4681E-04  0.2649E-04  0.2687E-04  0.4611E-04  0.4681E-04  0.2649E-04  0.2687E-04
    -30.265  0.8914E-03  0.8966E-03  0.5636E+00  0.5655E+00  0.5636E+00  0.5655E+00  0.5636E+00  0.5655E+00  0.4079E-03  0.4097E-03  0.4079E-03  0.4097E-03  0.2303E-03  0.2311E-03  0.4079E-03  0.4097E-03  0.2303E-03  0.2311E-03
    -30.023  0.1366E-02  0.1365E-02  0.5374E+00  0.5364E+00  0.5374E+00  0.5364E+00  0.5374E+00  0.5364E+00  0.4610E-03  0.4609E-03  0.4610E-03  0.4609E-03  0.2171E-03  0.2161E-03  0.4610E-03  0.4609E-03  0.2171E-03  0.2161E-03
    -29.781  0.9779E-03  0.9766E-03  0.5200E+00  0.5210E+00  0.5200E+00  0.5210E+00  0.5200E+00  0.5210E+00  0.8378E-03  0.8407E-03  0.8378E-03  0.8407E-03  0.1095E-03  0.1094E-03  0.8378E-03  0.8407E-03  0.1095E-03  0.1094E-03
    -29.539  0.7393E-03  0.7386E-03  0.7329E+00  0.7337E+00  0.7329E+00  0.7337E+00  0.7329E+00  0.7337E+00  0.1184E-02  0.1185E-02  0.1184E-02  0.1185E-02  0.8331E-04  0.8314E-04  0.1184E-02  0.1185E-02  0.8331E-04  0.8314E-04
    -29.297  0.6356E-03  0.6353E-03  0.8424E+00  0.8434E+00  0.8424E+00  0.8434E+00  0.8424E+00  0.8434E+00  0.9495E-03  0.9472E-03  0.9495E-03  0.9472E-03  0.4370E-04  0.4353E-04  0.9495E-03  0.9472E-03  0.4370E-04  0.4353E-04
    -29.055  0.2815E-03  0.2791E-03  0.7249E+00  0.7211E+00  0.7249E+00  0.7211E+00  0.7249E+00  0.7211E+00  0.3861E-03  0.3829E-03  0.3861E-03  0.3829E-03  0.1575E-04  0.1560E-04  0.3861E-03  0.3829E-03  0.1575E-04  0.1560E-04
    -28.813  0.5752E-05  0.5632E-05  0.3854E-01  0.3775E-01  0.3854E-01  0.3775E-01  0.3854E-01  0.3775E-01  0.8467E-05  0.8289E-05  0.8467E-05  0.8289E-05  0.3249E-06  0.3169E-06  0.8467E-05  0.8289E-05  0.3249E-06  0.3169E-06
    -28.571  0.0000E+00  0.0000E+00  0.0000E+00  0.0000E+00  0.0000E+00  0.0000E+00  0.0000E+00  0.0000E+00  0.0000E+00  0.0000E+00  0.0000E+00  0.0000E+00  0.0000E+00  0.0000E+00  0.0000E+00  0.0000E+00  0.0000E+00  0.0000E+00
    -28.328  0.0000E+00  0.0000E+00  0.0000E+00  0.0000E+00  0.0000E+00  0.0000E+00  0.0000E+00  0.0000E+00  0.0000E+00  0.0000E+00  0.0000E+00  0.0000E+00  0.0000E+00  0.0000E+00  0.0000E+00  0.0000E+00  0.0000E+00  0.0000E+00
    -28.086  0.0000E+00  0.0000E+00  0.0000E+00  0.0000E+00  0.0000E+00  0.0000E+00  0.0000E+00  0.0000E+00  0.0000E+00  0.0000E+00  0.0000E+00  0.0000E+00  0.0000E+00  0.0000E+00  0.0000E+00  0.0000E+00  0.0000E+00  0.0000E+00
    -27.844  0.0000E+00  0.0000E+00  0.0000E+00  0.0000E+00  0.0000E+00  0.0000E+00  0.0000E+00  0.0000E+00  0.0000E+00  0.0000E+00  0.0000E+00  0.0000E+00  0.0000E+00  0.0000E+00  0.0000E+00  0.0000E+00  0.0000E+00  0.0000E+00
    -27.602  0.0000E+00  0.0000E+00  0.0000E+00  0.0000E+00  0.0000E+00  0.0000E+00  0.0000E+00  0.0000E+00  0.0000E+00  0.0000E+00  0.0000E+00  0.0000E+00  0.0000E+00  0.0000E+00  0.0000E+00  0.0000E+00  0.0000E+00  0.0000E+00
    -27.360  0.0000E+00  0.0000E+00  0.0000E+00  0.0000E+00  0.0000E+00  0.0000E+00  0.0000E+00  0.0000E+00  0.0000E+00  0.0000E+00  0.0000E+00  0.0000E+00  0.0000E+00  0.0000E+00  0.0000E+00  0.0000E+00  0.0000E+00  0.0000E+00
    -27.118  0.0000E+00  0.0000E+00  0.0000E+00  0.0000E+00  0.0000E+00  0.0000E+00  0.0000E+00  0.0000E+00  0.0000E+00  0.0000E+00  0.0000E+00  0.0000E+00  0.0000E+00  0.0000E+00  0.0000E+00  0.0000E+00  0.0000E+00  0.0000E+00
    -26.876  0.0000E+00  0.0000E+00  0.0000E+00  0.0000E+00  0.0000E+00  0.0000E+00  0.0000E+00  0.0000E+00  0.0000E+00  0.0000E+00  0.0000E+00  0.0000E+00  0.0000E+00  0.0000E+00  0.0000E+00  0.0000E+00  0.0000E+00  0.0000E+00
    -26.634  0.0000E+00  0.0000E+00  0.0000E+00  0.0000E+00  0.0000E+00  0.0000E+00  0.0000E+00  0.0000E+00  0.0000E+00  0.0000E+00  0.0000E+00  0.0000E+00  0.0000E+00  0.0000E+00  0.0000E+00  0.0000E+00  0.0000E+00  0.0000E+00
    -26.391  0.0000E+00  0.0000E+00  0.0000E+00  0.0000E+00  0.0000E+00  0.0000E+00  0.0000E+00  0.0000E+00  0.0000E+00  0.0000E+00  0.0000E+00  0.0000E+00  0.0000E+00  0.0000E+00  0.0000E+00  0.0000E+00  0.0000E+00  0.0000E+00
    -26.149  0.0000E+00  0.0000E+00  0.0000E+00  0.0000E+00  0.0000E+00  0.0000E+00  0.0000E+00  0.0000E+00  0.0000E+00  0.0000E+00  0.0000E+00  0.0000E+00  0.0000E+00  0.0000E+00  0.0000E+00  0.0000E+00  0.0000E+00  0.0000E+00
    -25.907  0.0000E+00  0.0000E+00  0.0000E+00  0.0000E+00  0.0000E+00  0.0000E+00  0.0000E+00  0.0000E+00  0.0000E+00  0.0000E+00  0.0000E+00  0.0000E+00  0.0000E+00  0.0000E+00  0.0000E+00  0.0000E+00  0.0000E+00  0.0000E+00
    -25.665  0.0000E+00  0.0000E+00  0.0000E+00  0.0000E+00  0.0000E+00  0.0000E+00  0.0000E+00  0.0000E+00  0.0000E+00  0.0000E+00  0.0000E+00  0.0000E+00  0.0000E+00  0.0000E+00  0.0000E+00  0.0000E+00  0.0000E+00  0.0000E+00
    -25.423  0.0000E+00  0.0000E+00  0.0000E+00  0.0000E+00  0.0000E+00  0.0000E+00  0.0000E+00  0.0000E+00  0.0000E+00  0.0000E+00  0.0000E+00  0.0000E+00  0.0000E+00  0.0000E+00  0.0000E+00  0.0000E+00  0.0000E+00  0.0000E+00
    -25.181  0.0000E+00  0.0000E+00  0.0000E+00  0.0000E+00  0.0000E+00  0.0000E+00  0.0000E+00  0.0000E+00  0.0000E+00  0.0000E+00  0.0000E+00  0.0000E+00  0.0000E+00  0.0000E+00  0.0000E+00  0.0000E+00  0.0000E+00  0.0000E+00
    -24.939  0.0000E+00  0.0000E+00  0.0000E+00  0.0000E+00  0.0000E+00  0.0000E+00  0.0000E+00  0.0000E+00  0.0000E+00  0.0000E+00  0.0000E+00  0.0000E+00  0.0000E+00  0.0000E+00  0.0000E+00  0.0000E+00  0.0000E+00  0.0000E+00
    -24.697  0.0000E+00  0.0000E+00  0.0000E+00  0.0000E+00  0.0000E+00  0.0000E+00  0.0000E+00  0.0000E+00  0.0000E+00  0.0000E+00  0.0000E+00  0.0000E+00  0.0000E+00  0.0000E+00  0.0000E+00  0.0000E+00  0.0000E+00  0.0000E+00
    -24.454  0.0000E+00  0.0000E+00  0.0000E+00  0.0000E+00  0.0000E+00  0.0000E+00  0.0000E+00  0.0000E+00  0.0000E+00  0.0000E+00  0.0000E+00  0.0000E+00  0.0000E+00  0.0000E+00  0.0000E+00  0.0000E+00  0.0000E+00  0.0000E+00
    -24.212  0.0000E+00  0.0000E+00  0.0000E+00  0.0000E+00  0.0000E+00  0.0000E+00  0.0000E+00  0.0000E+00  0.0000E+00  0.0000E+00  0.0000E+00  0.0000E+00  0.0000E+00  0.0000E+00  0.0000E+00  0.0000E+00  0.0000E+00  0.0000E+00
    -23.970  0.0000E+00  0.0000E+00  0.0000E+00  0.0000E+00  0.0000E+00  0.0000E+00  0.0000E+00  0.0000E+00  0.0000E+00  0.0000E+00  0.0000E+00  0.0000E+00  0.0000E+00  0.0000E+00  0.0000E+00  0.0000E+00  0.0000E+00  0.0000E+00
    -23.728  0.0000E+00  0.0000E+00  0.0000E+00  0.0000E+00  0.0000E+00  0.0000E+00  0.0000E+00  0.0000E+00  0.0000E+00  0.0000E+00  0.0000E+00  0.0000E+00  0.0000E+00  0.0000E+00  0.0000E+00  0.0000E+00  0.0000E+00  0.0000E+00
    -23.486  0.0000E+00  0.0000E+00  0.0000E+00  0.0000E+00  0.0000E+00  0.0000E+00  0.0000E+00  0.0000E+00  0.0000E+00  0.0000E+00  0.0000E+00  0.0000E+00  0.0000E+00  0.0000E+00  0.0000E+00  0.0000E+00  0.0000E+00  0.0000E+00
    -23.244  0.0000E+00  0.0000E+00  0.0000E+00  0.0000E+00  0.0000E+00  0.0000E+00  0.0000E+00  0.0000E+00  0.0000E+00  0.0000E+00  0.0000E+00  0.0000E+00  0.0000E+00  0.0000E+00  0.0000E+00  0.0000E+00  0.0000E+00  0.0000E+00
    -23.002  0.0000E+00  0.0000E+00  0.0000E+00  0.0000E+00  0.0000E+00  0.0000E+00  0.0000E+00  0.0000E+00  0.0000E+00  0.0000E+00  0.0000E+00  0.0000E+00  0.0000E+00  0.0000E+00  0.0000E+00  0.0000E+00  0.0000E+00  0.0000E+00
    -22.759  0.0000E+00  0.0000E+00  0.0000E+00  0.0000E+00  0.0000E+00  0.0000E+00  0.0000E+00  0.0000E+00  0.0000E+00  0.0000E+00  0.0000E+00  0.0000E+00  0.0000E+00  0.0000E+00  0.0000E+00  0.0000E+00  0.0000E+00  0.0000E+00
    -22.517  0.0000E+00  0.0000E+00  0.0000E+00  0.0000E+00  0.0000E+00  0.0000E+00  0.0000E+00  0.0000E+00  0.0000E+00  0.0000E+00  0.0000E+00  0.0000E+00  0.0000E+00  0.0000E+00  0.0000E+00  0.0000E+00  0.0000E+00  0.0000E+00
    -22.275  0.0000E+00  0.0000E+00  0.0000E+00  0.0000E+00  0.0000E+00  0.0000E+00  0.0000E+00  0.0000E+00  0.0000E+00  0.0000E+00  0.0000E+00  0.0000E+00  0.0000E+00  0.0000E+00  0.0000E+00  0.0000E+00  0.0000E+00  0.0000E+00
    -22.033  0.0000E+00  0.0000E+00  0.0000E+00  0.0000E+00  0.0000E+00  0.0000E+00  0.0000E+00  0.0000E+00  0.0000E+00  0.0000E+00  0.0000E+00  0.0000E+00  0.0000E+00  0.0000E+00  0.0000E+00  0.0000E+00  0.0000E+00  0.0000E+00
    -21.791  0.0000E+00  0.0000E+00  0.0000E+00  0.0000E+00  0.0000E+00  0.0000E+00  0.0000E+00  0.0000E+00  0.0000E+00  0.0000E+00  0.0000E+00  0.0000E+00  0.0000E+00  0.0000E+00  0.0000E+00  0.0000E+00  0.0000E+00  0.0000E+00