   2   2   1   0
  0.2107561E+02  0.3480194E-09  0.3480194E-09  0.3480194E-09  0.5000000E-15
   1.0000000000000000E-004
  CAR 
 unknown system                          
     10.14997554    -28.99988835  301      3.80382216      1.00000000
    -29.000  0.0000E+00  0.0000E+00  0.0000E+00  0.0000E+00
    -28.869  0.0000E+00  0.0000E+00  0.0000E+00  0.0000E+00
    -28.739  0.0000E+00  0.0000E+00  0.0000E+00  0.0000E+00
    -28.608  0.0000E+00  0.0000E+00  0.0000E+00  0.0000E+00
    -28.478  0.0000E+00  0.0000E+00  0.0000E+00  0.0000E+00
    -28.347  0.0000E+00  0.0000E+00  0.0000E+00  0.0000E+00
    -28.217  0.0000E+00  0.0000E+00  0.0000E+00  0.0000E+00
    -28.086  0.0000E+00  0.0000E+00  0.0000E+00  0.0000E+00
    -27.956  0.0000E+00  0.0000E+00  0.0000E+00  0.0000E+00
    -27.825  0.0000E+00  0.0000E+00  0.0000E+00  0.0000E+00
    -27.695  0.0000E+00  0.0000E+00  0.0000E+00  0.0000E+00
    -27.564  0.0000E+00  0.0000E+00  0.0000E+00  0.0000E+00
    -27.434  0.0000E+00  0.0000E+00  0.0000E+00  0.0000E+00
    -27.303  0.0000E+00  0.0000E+00  0.0000E+00  0.0000E+00
    -27.173  0.3199E+01  0.3221E+01  0.7528E-01  0.7624E-01
    -27.042  0.1221E+02  0.1217E+02  0.1134E+01  0.1137E+01
    -26.912  0.5927E+01  0.5922E+01  0.1874E+01  0.1875E+01
    -26.781  0.9818E+01  0.9810E+01  0.2654E+01  0.2656E+01
    -26.651  0.1652E+02  0.1572E+02  0.3780E+01  0.3784E+01
    -26.520  0.1585E+02  0.1585E+02  0.4867E+01  0.4871E+01
    -26.390  0.4155E+01  0.4155E+01  0.6000E+01  0.6000E+01
    -26.259  0.0000E+00  0.0000E+00  0.6000E+01  0.6000E+01
    -26.129  0.0000E+00  0.0000E+00  0.6000E+01  0.6000E+01
    -25.998  0.0000E+00  0.0000E+00  0.6000E+01  0.6000E+01
    -25.868  0.0000E+00  0.0000E+00  0.6000E+01  0.6000E+01
    -25.737  0.0000E+00  0.0000E+00  0.6000E+01  0.6000E+01
    -25.607  0.0000E+00  0.0000E+00  0.6000E+01  0.6000E+01
    -25.476  0.0000E+00  0.0000E+00  0.6000E+01  0.6000E+01
    -25.346  0.0000E+00  0.0000E+00  0.6000E+01  0.6000E+01
    -25.215  0.0000E+00  0.0000E+00  0.6000E+01  0.6000E+01
    -25.085  0.0000E+00  0.0000E+00  0.6000E+01  0.6000E+01
    -24.954  0.0000E+00  0.0000E+00  0.6000E+01  0.6000E+01
    -24.824  0.0000E+00  0.0000E+00  0.6000E+01  0.6000E+01
    -24.693  0.0000E+00  0.0000E+00  0.6000E+01  0.6000E+01
    -24.563  0.0000E+00  0.0000E+00  0.6000E+01  0.6000E+01
    -24.432  0.0000E+00  0.0000E+00  0.6000E+01  0.6000E+01
    -24.302  0.0000E+00  0.0000E+00  0.6000E+01  0.6000E+01
    -24.171  0.0000E+00  0.0000E+00  0.6000E+01  0.6000E+01
    -24.041  0.0000E+00  0.0000E+00  0.6000E+01  0.6000E+01
    -23.910  0.0000E+00  0.0000E+00  0.6000E+01  0.6000E+01
    -23.780  0.0000E+00  0.0000E+00  0.6000E+01  0.6000E+01
    -23.649  0.0000E+00  0.0000E+00  0.6000E+01  0.6000E+01
    -23.519  0.0000E+00  0.0000E+00  0.6000E+01  0.6000E+01
    -23.388  0.0000E+00  0.0000E+00  0.6000E+01  0.6000E+01
    -23.258  0.0000E+00  0.0000E+00  0.6000E+01  0.6000E+01
    -23.127  0.0000E+00  0.0000E+00  0.6000E+01  0.6000E+01
    -22.997  0.0000E+00  0.0000E+00  0.6000E+01  0.6000E+01
    -22.866  0.0000E+00  0.0000E+00  0.6000E+01  0.6000E+01
    -22.736  0.0000E+00  0.0000E+00  0.6000E+01  0.6000E+01
    -22.605  0.0000E+00  0.0000E+00  0.6000E+01  0.6000E+01
    -22.475  0.0000E+00  0.0000E+00  0.6000E+01  0.6000E+01
    -22.344  0.0000E+00  0.0000E+00  0.6000E+01  0.6000E+01
    -22.214  0.0000E+00  0.0000E+00  0.6000E+01  0.6000E+01
    -22.083  0.0000E+00  0.0000E+00  0.6000E+01  0.6000E+01
    -21.953  0.0000E+00  0.0000E+00  0.6000E+01  0.6000E+01
    -21.822  0.0000E+00  0.0000E+00  0.6000E+01  0.6000E+01
    -21.692  0.0000E+00  0.0000E+00  0.6000E+01  0.6000E+01
    -21.561  0.0000E+00  0.0000E+00  0.6000E+01  0.6000E+01
    -21.431  0.0000E+00  0.0000E+00  0.6000E+01  0.6000E+01
    -21.300  0.0000E+00  0.0000E+00  0.6000E+01  0.6000E+01
    -21.170  0.0000E+00  0.0000E+00  0.6000E+01  0.6000E+01
    -21.039  0.0000E+00  0.0000E+00  0.6000E+01  0.6000E+01
    -20.909  0.0000E+00  0.0000E+00  0.6000E+01  0.6000E+01
    -20.778  0.0000E+00  0.0000E+00  0.6000E+01  0.6000E+01
    -20.648  0.0000E+00  0.0000E+00  0.6000E+01  0.6000E+01
    -20.517  0.0000E+00  0.0000E+00  0.6000E+01  0.6000E+01
    -20.387  0.0000E+00  0.0000E+00  0.6000E+01  0.6000E+01
    -20.256  0.0000E+00  0.0000E+00  0.6000E+01  0.6000E+01
    -20.126  0.0000E+00  0.0000E+00  0.6000E+01  0.6000E+01
    -19.995  0.0000E+00  0.0000E+00  0.6000E+01  0.6000E+01
    -19.865  0.0000E+00  0.0000E+00  0.6000E+01  0.6000E+01
    -19.734  0.0000E+00  0.0000E+00  0.6000E+01  0.6000E+01
    -19.604  0.0000E+00  0.0000E+00  0.6000E+01  0.6000E+01
    -19.473  0.0000E+00  0.0000E+00  0.6000E+01  0.6000E+01
    -19.343  0.0000E+00  0.0000E+00  0.6000E+01  0.6000E+01
    -19.212  0.0000E+00  0.0000E+00  0.6000E+01  0.6000E+01
    -19.082  0.0000E+00  0.0000E+00  0.6000E+01  0.6000E+01
    -18.951  0.0000E+00  0.0000E+00  0.6000E+01  0.6000E+01
    -18.821  0.0000E+00  0.0000E+00  0.6000E+01  0.6000E+01
    -18.690  0.0000E+00  0.0000E+00  0.6000E+01  0.6000E+01
    -18.560  0.0000E+00  0.0000E+00  0.6000E+01  0.6000E+01
    -18.429  0.0000E+00  0.0000E+00  0.6000E+01  0.6000E+01
    -18.299  0.0000E+00  0.0000E+00  0.6000E+01  0.6000E+01
    -18.168  0.0000E+00  0.0000E+00  0.6000E+01  0.6000E+01
    -18.038  0.0000E+00  0.0000E+00  0.6000E+01  0.6000E+01
    -17.907  0.0000E+00  0.0000E+00  0.6000E+01  0.6000E+01
    -17.777  0.0000E+00  0.0000E+00  0.6000E+01  0.6000E+01
    -17.646  0.0000E+00  0.0000E+00  0.6000E+01  0.6000E+01
    -17.516  0.0000E+00  0.0000E+00  0.6000E+01  0.6000E+01
    -17.385  0.0000E+00  0.0000E+00  0.6000E+01  0.6000E+01
    -17.255  0.0000E+00  0.0000E+00  0.6000E+01  0.6000E+01
    -17.124  0.0000E+00  0.0000E+00  0.6000E+01  0.6000E+01
    -16.994  0.0000E+00  0.0000E+00  0.6000E+01  0.6000E+01
    -16.863  0.0000E+00  0.0000E+00  0.6000E+01  0.6000E+01
    -16.733  0.0000E+00  0.0000E+00  0.6000E+01  0.6000E+01
    -16.602  0.0000E+00  0.0000E+00  0.6000E+01  0.6000E+01
    -16.472  0.0000E+00  0.0000E+00  0.6000E+01  0.6000E+01
    -16.341  0.0000E+00  0.0000E+00  0.6000E+01  0.6000E+01
    -16.211  0.0000E+00  0.0000E+00  0.6000E+01  0.6000E+01
    -16.080  0.0000E+00  0.0000E+00  0.6000E+01  0.6000E+01
    -15.950  0.0000E+00  0.0000E+00  0.6000E+01  0.6000E+01
    -15.819  0.0000E+00  0.0000E+00  0.6000E+01  0.6000E+01
    -15.689  0.0000E+00  0.0000E+00  0.6000E+01  0.6000E+01
    -15.558  0.0000E+00  0.0000E+00  0.6000E+01  0.6000E+01
    -15.428  0.0000E+00  0.0000E+00  0.6000E+01  0.6000E+01
    -15.297  0.0000E+00  0.0000E+00  0.6000E+01  0.6000E+01
    -15.167  0.0000E+00  0.0000E+00  0.6000E+01  0.6000E+01
    -15.036  0.0000E+00  0.0000E+00  0.6000E+01  0.6000E+01
    -14.906  0.0000E+00  0.0000E+00  0.6000E+01  0.6000E+01
    -14.775  0.0000E+00  0.0000E+00  0.6000E+01  0.6000E+01
    -14.645  0.0000E+00  0.0000E+00  0.6000E+01  0.6000E+01
    -14.514  0.0000E+00  0.0000E+00  0.6000E+01  0.6000E+01
    -14.384  0.0000E+00  0.0000E+00  0.6000E+01  0.6000E+01
    -14.253  0.0000E+00  0.0000E+00  0.6000E+01  0.6000E+01
    -14.123  0.0000E+00  0.0000E+00  0.6000E+01  0.6000E+01
    -13.992  0.0000E+00  0.0000E+00  0.6000E+01  0.6000E+01
    -13.862  0.0000E+00  0.0000E+00  0.6000E+01  0.6000E+01
    -13.731  0.0000E+00  0.0000E+00  0.6000E+01  0.6000E+01
    -13.601  0.0000E+00  0.0000E+00  0.6000E+01  0.6000E+01
    -13.470  0.0000E+00  0.0000E+00  0.6000E+01  0.6000E+01
    -13.340  0.0000E+00  0.0000E+00  0.6000E+01  0.6000E+01
    -13.209  0.0000E+00  0.0000E+00  0.6000E+01  0.6000E+01
    -13.079  0.0000E+00  0.0000E+00  0.6000E+01  0.6000E+01
    -12.948  0.0000E+00  0.0000E+00  0.6000E+01  0.6000E+01
    -12.818  0.0000E+00  0.0000E+00  0.6000E+01  0.6000E+01
    -12.687  0.0000E+00  0.0000E+00  0.6000E+01  0.6000E+01
    -12.557  0.0000E+00  0.0000E+00  0.6000E+01  0.6000E+01
    -12.426  0.0000E+00  0.0000E+00  0.6000E+01  0.6000E+01
    -12.296  0.0000E+00  0.0000E+00  0.6000E+01  0.6000E+01
    -12.165  0.0000E+00  0.0000E+00  0.6000E+01  0.6000E+01
    -12.035  0.0000E+00  0.0000E+00  0.6000E+01  0.6000E+01
    -11.904  0.0000E+00  0.0000E+00  0.6000E+01  0.6000E+01
    -11.774  0.0000E+00  0.0000E+00  0.6000E+01  0.6000E+01
    -11.643  0.0000E+00  0.0000E+00  0.6000E+01  0.6000E+01
    -11.513  0.0000E+00  0.0000E+00  0.6000E+01  0.6000E+01
    -11.382  0.0000E+00  0.0000E+00  0.6000E+01  0.6000E+01
    -11.252  0.0000E+00  0.0000E+00  0.6000E+01  0.6000E+01
    -11.121  0.0000E+00  0.0000E+00  0.6000E+01  0.6000E+01
    -10.991  0.0000E+00  0.0000E+00  0.6000E+01  0.6000E+01
    -10.860  0.0000E+00  0.0000E+00  0.6000E+01  0.6000E+01
    -10.730  0.0000E+00  0.0000E+00  0.6000E+01  0.6000E+01
    -10.599  0.0000E+00  0.0000E+00  0.6000E+01  0.6000E+01
    -10.469  0.0000E+00  0.0000E+00  0.6000E+01  0.6000E+01
    -10.338  0.0000E+00  0.0000E+00  0.6000E+01  0.6000E+01
    -10.208  0.0000E+00  0.0000E+00  0.6000E+01  0.6000E+01
    -10.077  0.0000E+00  0.0000E+00  0.6000E+01  0.6000E+01
     -9.947  0.0000E+00  0.0000E+00  0.6000E+01  0.6000E+01
     -9.816  0.0000E+00  0.0000E+00  0.6000E+01  0.6000E+01
     -9.686  0.0000E+00  0.0000E+00  0.6000E+01  0.6000E+01
     -9.555  0.0000E+00  0.0000E+00  0.6000E+01  0.6000E+01
     -9.425  0.0000E+00  0.0000E+00  0.6000E+01  0.6000E+01
     -9.294  0.0000E+00  0.0000E+00  0.6000E+01  0.6000E+01
     -9.164  0.0000E+00  0.0000E+00  0.6000E+01  0.6000E+01
     -9.033  0.0000E+00  0.0000E+00  0.6000E+01  0.6000E+01
     -8.903  0.0000E+00  0.0000E+00  0.6000E+01  0.6000E+01
     -8.772  0.0000E+00  0.0000E+00  0.6000E+01  0.6000E+01
     -8.642  0.0000E+00  0.0000E+00  0.6000E+01  0.6000E+01
     -8.511  0.0000E+00  0.0000E+00  0.6000E+01  0.6000E+01
     -8.381  0.0000E+00  0.0000E+00  0.6000E+01  0.6000E+01
     -8.250  0.0000E+00  0.0000E+00  0.6000E+01  0.6000E+01
     -8.120  0.0000E+00  0.0000E+00  0.6000E+01  0.6000E+01
     -7.989  0.0000E+00  0.0000E+00  0.6000E+01  0.6000E+01
     -7.859  0.0000E+00  0.0000E+00  0.6000E+01  0.6000E+01
     -7.728  0.0000E+00  0.0000E+00  0.6000E+01  0.6000E+01
     -7.598  0.0000E+00  0.0000E+00  0.6000E+01  0.6000E+01
     -7.467  0.0000E+00  0.0000E+00  0.6000E+01  0.6000E+01
     -7.337  0.0000E+00  0.0000E+00  0.6000E+01  0.6000E+01
     -7.206  0.0000E+00  0.0000E+00  0.6000E+01  0.6000E+01
     -7.076  0.0000E+00  0.0000E+00  0.6000E+01  0.6000E+01
     -6.945  0.0000E+00  0.0000E+00  0.6000E+01  0.6000E+01
     -6.815  0.0000E+00  0.0000E+00  0.6000E+01  0.6000E+01
     -6.684  0.0000E+00  0.0000E+00  0.6000E+01  0.6000E+01
     -6.554  0.0000E+00  0.0000E+00  0.6000E+01  0.6000E+01
     -6.423  0.0000E+00  0.0000E+00  0.6000E+01  0.6000E+01
     -6.293  0.0000E+00  0.0000E+00  0.6000E+01  0.6000E+01
     -6.162  0.0000E+00  0.0000E+00  0.6000E+01  0.6000E+01
     -6.032  0.0000E+00  0.0000E+00  0.6000E+01  0.6000E+01
     -5.901  0.0000E+00  0.0000E+00  0.6000E+01  0.6000E+01
     -5.771  0.0000E+00  0.0000E+00  0.6000E+01  0.6000E+01
     -5.640  0.0000E+00  0.0000E+00  0.6000E+01  0.6000E+01
     -5.510  0.0000E+00  0.0000E+00  0.6000E+01  0.6000E+01
     -5.379  0.0000E+00  0.0000E+00  0.6000E+01  0.6000E+01
     -5.249  0.0000E+00  0.0000E+00  0.6000E+01  0.6000E+01
     -5.118  0.0000E+00  0.0000E+00  0.6000E+01  0.6000E+01
     -4.988  0.0000E+00  0.0000E+00  0.6000E+01  0.6000E+01
     -4.857  0.0000E+00  0.0000E+00  0.6000E+01  0.6000E+01
     -4.727  0.0000E+00  0.0000E+00  0.6000E+01  0.6000E+01
     -4.596  0.0000E+00  0.0000E+00  0.6000E+01  0.6000E+01
     -4.466  0.0000E+00  0.0000E+00  0.6000E+01  0.6000E+01
     -4.335  0.0000E+00  0.0000E+00  0.6000E+01  0.6000E+01
     -4.205  0.0000E+00  0.0000E+00  0.6000E+01  0.6000E+01
     -4.074  0.0000E+00  0.0000E+00  0.6000E+01  0.6000E+01
     -3.944  0.0000E+00  0.0000E+00  0.6000E+01  0.6000E+01
     -3.813  0.0000E+00  0.0000E+00  0.6000E+01  0.6000E+01
     -3.683  0.0000E+00  0.0000E+00  0.6000E+01  0.6000E+01
     -3.552  0.0000E+00  0.0000E+00  0.6000E+01  0.6000E+01
     -3.422  0.0000E+00  0.0000E+00  0.6000E+01  0.6000E+01
     -3.291  0.0000E+00  0.0000E+00  0.6000E+01  0.6000E+01
     -3.161  0.0000E+00  0.0000E+00  0.6000E+01  0.6000E+01
     -3.030  0.0000E+00  0.0000E+00  0.6000E+01  0.6000E+01
     -2.900  0.0000E+00  0.0000E+00  0.6000E+01  0.6000E+01
     -2.769  0.0000E+00  0.0000E+00  0.6000E+01  0.6000E+01
     -2.639  0.0000E+00  0.0000E+00  0.6000E+01  0.6000E+01
     -2.508  0.0000E+00  0.0000E+00  0.6000E+01  0.6000E+01
     -2.378  0.0000E+00  0.0000E+00  0.6000E+01  0.6000E+01
     -2.247  0.0000E+00  0.0000E+00  0.6000E+01  0.6000E+01
     -2.117  0.0000E+00  0.0000E+00  0.6000E+01  0.6000E+01
     -1.986  0.0000E+00  0.0000E+00  0.6000E+01  0.6000E+01
     -1.856  0.0000E+00  0.0000E+00  0.6000E+01  0.6000E+01
     -1.725  0.8719E-03  0.9192E-03  0.6000E+01  0.6000E+01
     -1.595  0.9840E-02  0.9998E-02  0.6001E+01  0.6001E+01
     -1.464  0.2852E-01  0.2878E-01  0.6003E+01  0.6003E+01
     -1.334  0.5373E-01  0.5398E-01  0.6008E+01  0.6008E+01
     -1.203  0.7005E-01  0.7017E-01  0.6017E+01  0.6017E+01
     -1.073  0.7617E-01  0.7620E-01  0.6026E+01  0.6026E+01
     -0.942  0.8223E-01  0.8233E-01  0.6037E+01  0.6037E+01
     -0.812  0.9346E-01  0.9361E-01  0.6048E+01  0.6048E+01
     -0.681  0.1083E+00  0.1085E+00  0.6061E+01  0.6061E+01
     -0.551  0.1242E+00  0.1244E+00  0.6076E+01  0.6076E+01
     -0.420  0.1405E+00  0.1407E+00  0.6094E+01  0.6094E+01
     -0.290  0.1529E+00  0.1530E+00  0.6113E+01  0.6113E+01
     -0.159  0.1693E+00  0.1696E+00  0.6134E+01  0.6134E+01
     -0.029  0.1931E+00  0.1934E+00  0.6157E+01  0.6157E+01
      0.102  0.2168E+00  0.2170E+00  0.6184E+01  0.6184E+01
      0.232  0.2395E+00  0.2398E+00  0.6214E+01  0.6214E+01
      0.363  0.2660E+00  0.2664E+00  0.6247E+01  0.6247E+01
      0.493  0.3143E+00  0.3149E+00  0.6284E+01  0.6285E+01
      0.624  0.3874E+00  0.3882E+00  0.6330E+01  0.6330E+01
      0.754  0.6529E+00  0.6561E+00  0.6393E+01  0.6394E+01
      0.885  0.1394E+01  0.1390E+01  0.6534E+01  0.6535E+01
      1.015  0.1090E+01  0.1088E+01  0.6690E+01  0.6691E+01
      1.146  0.8510E+00  0.7854E+00  0.6816E+01  0.6817E+01
      1.276  0.9416E+00  0.9428E+00  0.6929E+01  0.6930E+01
      1.407  0.1127E+01  0.1129E+01  0.7063E+01  0.7065E+01
      1.537  0.1483E+01  0.1486E+01  0.7227E+01  0.7229E+01
      1.668  0.3704E+01  0.3643E+01  0.7458E+01  0.7462E+01
      1.798  0.1913E+01  0.1907E+01  0.7767E+01  0.7769E+01
      1.929  0.1182E+01  0.1176E+01  0.7973E+01  0.7974E+01
      2.059  0.6030E+00  0.6018E+00  0.8071E+01  0.8072E+01
      2.190  0.4802E+00  0.4797E+00  0.8141E+01  0.8142E+01
      2.320  0.4215E+00  0.4216E+00  0.8201E+01  0.8202E+01
      2.451  0.4344E+00  0.4347E+00  0.8255E+01  0.8256E+01
      2.581  0.2295E+01  0.2312E+01  0.8409E+01  0.8411E+01
      2.712  0.3606E+01  0.3607E+01  0.8827E+01  0.8829E+01
      2.842  0.2107E+01  0.2096E+01  0.9227E+01  0.9229E+01
      2.973  0.9949E+00  0.9949E+00  0.9416E+01  0.9417E+01
      3.103  0.1302E+01  0.1304E+01  0.9565E+01  0.9566E+01
      3.233  0.1443E+01  0.1444E+01  0.9741E+01  0.9743E+01
      3.364  0.1656E+01  0.1658E+01  0.9940E+01  0.9942E+01
      3.494  0.2217E+01  0.2222E+01  0.1019E+02  0.1019E+02
      3.625  0.3618E+01  0.3605E+01  0.1055E+02  0.1055E+02
      3.755  0.2073E+01  0.2069E+01  0.1090E+02  0.1091E+02
      3.886  0.1734E+01  0.1734E+01  0.1115E+02  0.1115E+02
      4.016  0.1508E+01  0.1505E+01  0.1136E+02  0.1136E+02
      4.147  0.1066E+01  0.1058E+01  0.1153E+02  0.1153E+02
      4.277  0.7377E+00  0.7366E+00  0.1164E+02  0.1164E+02
      4.408  0.5562E+00  0.5551E+00  0.1172E+02  0.1172E+02
      4.538  0.5353E+00  0.5347E+00  0.1179E+02  0.1180E+02
      4.669  0.4708E+00  0.4702E+00  0.1186E+02  0.1186E+02
      4.799  0.4051E+00  0.4046E+00  0.1192E+02  0.1192E+02
      4.930  0.3027E+00  0.3023E+00  0.1196E+02  0.1196E+02
      5.060  0.2296E+00  0.2312E+00  0.1199E+02  0.1199E+02
      5.191  0.4527E+00  0.4538E+00  0.1204E+02  0.1204E+02
      5.321  0.6352E+00  0.6362E+00  0.1211E+02  0.1211E+02
      5.452  0.8490E+00  0.8497E+00  0.1221E+02  0.1221E+02
      5.582  0.1050E+01  0.1051E+01  0.1233E+02  0.1233E+02
      5.713  0.1237E+01  0.1238E+01  0.1248E+02  0.1248E+02
      5.843  0.1420E+01  0.1420E+01  0.1265E+02  0.1266E+02
      5.974  0.1630E+01  0.1631E+01  0.1285E+02  0.1286E+02
      6.104  0.1625E+01  0.1625E+01  0.1307E+02  0.1307E+02
      6.235  0.2243E+01  0.2243E+01  0.1332E+02  0.1332E+02
      6.365  0.1942E+01  0.1940E+01  0.1360E+02  0.1360E+02
      6.496  0.1711E+01  0.1710E+01  0.1383E+02  0.1384E+02
      6.626  0.1652E+01  0.1649E+01  0.1406E+02  0.1406E+02
      6.757  0.1336E+01  0.1331E+01  0.1425E+02  0.1425E+02
      6.887  0.1654E+01  0.1647E+01  0.1443E+02  0.1443E+02
      7.018  0.2430E+01  0.2402E+01  0.1470E+02  0.1470E+02
      7.148  0.7217E+01  0.7143E+01  0.1532E+02  0.1532E+02
      7.279  0.1701E+01  0.1626E+01  0.1558E+02  0.1557E+02
      7.409  0.1257E+01  0.1413E+01  0.1578E+02  0.1577E+02
      7.540  0.6724E+00  0.7153E+00  0.1591E+02  0.1591E+02
      7.670  0.2935E+00  0.2915E+00  0.1598E+02  0.1598E+02
      7.801  0.6384E-01  0.6286E-01  0.1600E+02  0.1600E+02
      7.931  0.8079E-02  0.8064E-02  0.1600E+02  0.1600E+02
      8.062  0.3989E-02  0.3979E-02  0.1600E+02  0.1600E+02
      8.192  0.1327E-02  0.1322E-02  0.1600E+02  0.1600E+02
      8.323  0.9424E-04  0.9275E-04  0.1600E+02  0.1600E+02
      8.453  0.0000E+00  0.0000E+00  0.1600E+02  0.1600E+02
      8.584  0.0000E+00  0.0000E+00  0.1600E+02  0.1600E+02
      8.714  0.0000E+00  0.0000E+00  0.1600E+02  0.1600E+02
      8.845  0.0000E+00  0.0000E+00  0.1600E+02  0.1600E+02
      8.975  0.0000E+00  0.0000E+00  0.1600E+02  0.1600E+02
      9.106  0.0000E+00  0.0000E+00  0.1600E+02  0.1600E+02
      9.236  0.0000E+00  0.0000E+00  0.1600E+02  0.1600E+02
      9.367  0.0000E+00  0.0000E+00  0.1600E+02  0.1600E+02
      9.497  0.0000E+00  0.0000E+00  0.1600E+02  0.1600E+02
      9.628  0.0000E+00  0.0000E+00  0.1600E+02  0.1600E+02
      9.758  0.0000E+00  0.0000E+00  0.1600E+02  0.1600E+02
      9.889  0.0000E+00  0.0000E+00  0.1600E+02  0.1600E+02
     10.019  0.0000E+00  0.0000E+00  0.1600E+02  0.1600E+02
     10.150  0.0000E+00  0.0000E+00  0.1600E+02  0.1600E+02
     10.14997554    -28.99988835  301      3.80382216      1.00000000
    -29.000  0.0000E+00  0.0000E+00  0.0000E+00  0.0000E+00  0.0000E+00  0.0000E+00  0.0000E+00  0.0000E+00  0.0000E+00  0.0000E+00  0.0000E+00  0.0000E+00  0.0000E+00  0.0000E+00  0.0000E+00  0.0000E+00  0.0000E+00  0.0000E+00
    -28.869  0.0000E+00  0.0000E+00  0.0000E+00  0.0000E+00  0.0000E+00  0.0000E+00  0.0000E+00  0.0000E+00  0.0000E+00  0.0000E+00  0.0000E+00  0.0000E+00  0.0000E+00  0.0000E+00  0.0000E+00  0.0000E+00  0.0000E+00  0.0000E+00
    -28.739  0.0000E+00  0.0000E+00  0.0000E+00  0.0000E+00  0.0000E+00  0.0000E+00  0.0000E+00  0.0000E+00  0.0000E+00  0.0000E+00  0.0000E+00  0.0000E+00  0.0000E+00  0.0000E+00  0.0000E+00  0.0000E+00  0.0000E+00  0.0000E+00
    -28.608  0.0000E+00  0.0000E+00  0.0000E+00  0.0000E+00  0.0000E+00  0.0000E+00  0.0000E+00  0.0000E+00  0.0000E+00  0.0000E+00  0.0000E+00  0.0000E+00  0.0000E+00  0.0000E+00  0.0000E+00  0.0000E+00  0.0000E+00  0.0000E+00
    -28.478  0.0000E+00  0.0000E+00  0.0000E+00  0.0000E+00  0.0000E+00  0.0000E+00  0.0000E+00  0.0000E+00  0.0000E+00  0.0000E+00  0.0000E+00  0.0000E+00  0.0000E+00  0.0000E+00  0.0000E+00  0.0000E+00  0.0000E+00  0.0000E+00
    -28.347  0.0000E+00  0.0000E+00  0.0000E+00  0.0000E+00  0.0000E+00  0.0000E+00  0.0000E+00  0.0000E+00  0.0000E+00  0.0000E+00  0.0000E+00  0.0000E+00  0.0000E+00  0.0000E+00  0.0000E+00  0.0000E+00  0.0000E+00  0.0000E+00
    -28.217  0.0000E+00  0.0000E+00  0.0000E+00  0.0000E+00  0.0000E+00  0.0000E+00  0.0000E+00  0.0000E+00  0.0000E+00  0.0000E+00  0.0000E+00  0.0000E+00  0.0000E+00  0.0000E+00  0.0000E+00  0.0000E+00  0.0000E+00  0.0000E+00
    -28.086  0.0000E+00  0.0000E+00  0.0000E+00  0.0000E+00  0.0000E+00  0.0000E+00  0.0000E+00  0.0000E+00  0.0000E+00  0.0000E+00  0.0000E+00  0.0000E+00  0.0000E+00  0.0000E+00  0.0000E+00  0.0000E+00  0.0000E+00  0.0000E+00
    -27.956  0.0000E+00  0.0000E+00  0.0000E+00  0.0000E+00  0.0000E+00  0.0000E+00  0.0000E+00  0.0000E+00  0.0000E+00  0.0000E+00  0.0000E+00  0.0000E+00  0.0000E+00  0.0000E+00  0.0000E+00  0.0000E+00  0.0000E+00  0.0000E+00
    -27.825  0.0000E+00  0.0000E+00  0.0000E+00  0.0000E+00  0.0000E+00  0.0000E+00  0.0000E+00  0.0000E+00  0.0000E+00  0.0000E+00  0.0000E+00  0.0000E+00  0.0000E+00  0.0000E+00  0.0000E+00  0.0000E+00  0.0000E+00  0.0000E+00
    -27.695  0.0000E+00  0.0000E+00  0.0000E+00  0.0000E+00  0.0000E+00  0.0000E+00  0.0000E+00  0.0000E+00  0.0000E+00  0.0000E+00  0.0000E+00  0.0000E+00  0.0000E+00  0.0000E+00  0.0000E+00  0.0000E+00  0.0000E+00  0.0000E+00
    -27.564  0.0000E+00  0.0000E+00  0.0000E+00  0.0000E+00  0.0000E+00  0.0000E+00  0.0000E+00  0.0000E+00  0.0000E+00  0.0000E+00  0.0000E+00  0.0000E+00  0.0000E+00  0.0000E+00  0.0000E+00  0.0000E+00  0.0000E+00  0.0000E+00
    -27.434  0.0000E+00  0.0000E+00  0.0000E+00  0.0000E+00  0.0000E+00  0.0000E+00  0.0000E+00  0.0000E+00  0.0000E+00  0.0000E+00  0.0000E+00  0.0000E+00  0.0000E+00  0.0000E+00  0.0000E+00  0.0000E+00  0.0000E+00  0.0000E+00
    -27.303  0.0000E+00  0.0000E+00  0.0000E+00  0.0000E+00  0.0000E+00  0.0000E+00  0.0000E+00  0.0000E+00  0.0000E+00  0.0000E+00  0.0000E+00  0.0000E+00  0.0000E+00  0.0000E+00  0.0000E+00  0.0000E+00  0.0000E+00  0.0000E+00
    -27.173  0.1804E-03  0.1824E-03  0.5210E+00  0.5245E+00  0.5210E+00  0.5245E+00  0.5210E+00  0.5245E+00  0.7372E-04  0.7601E-04  0.7372E-04  0.7601E-04  0.3242E-04  0.3365E-04  0.7372E-04  0.7601E-04  0.3242E-04  0.3365E-04
    -27.042  0.1616E-02  0.1615E-02  0.1994E+01  0.1989E+01  0.1994E+01  0.1989E+01  0.1994E+01  0.1989E+01  0.4641E-03  0.4696E-03  0.4641E-03  0.4696E-03  0.2561E-03  0.2585E-03  0.4641E-03  0.4696E-03  0.2561E-03  0.2585E-03
    -26.912  0.8999E-03  0.8986E-03  0.9728E+00  0.9719E+00  0.9728E+00  0.9719E+00  0.9728E+00  0.9719E+00  0.3297E-03  0.3330E-03  0.3297E-03  0.3330E-03  0.5370E-04  0.5413E-04  0.3297E-03  0.3330E-03  0.5370E-04  0.5413E-04
    -26.781  0.5320E-03  0.5261E-03  0.1617E+01  0.1616E+01  0.1617E+01  0.1616E+01  0.1617E+01  0.1616E+01  0.9647E-03  0.9723E-03  0.9647E-03  0.9723E-03  0.7623E-04  0.7598E-04  0.9647E-03  0.9723E-03  0.7623E-04  0.7598E-04
    -26.651  0.1265E-02  0.1230E-02  0.2729E+01  0.2598E+01  0.2729E+01  0.2598E+01  0.2729E+01  0.2598E+01  0.1283E-02  0.1224E-02  0.1283E-02  0.1224E-02  0.7299E-04  0.6922E-04  0.1283E-02  0.1224E-02  0.7299E-04  0.6922E-04
    -26.520  0.6399E-03  0.6416E-03  0.2627E+01  0.2627E+01  0.2627E+01  0.2627E+01  0.2627E+01  0.2627E+01  0.7741E-03  0.7685E-03  0.7741E-03  0.7685E-03  0.2489E-04  0.2397E-04  0.7741E-03  0.7685E-03  0.2489E-04  0.2397E-04
    -26.390  0.8027E-04  0.8029E-04  0.6897E+00  0.6897E+00  0.6897E+00  0.6897E+00  0.6897E+00  0.6897E+00  0.7946E-04  0.7871E-04  0.7946E-04  0.7871E-04  0.2449E-05  0.2337E-05  0.7946E-04  0.7871E-04  0.2449E-05  0.2337E-05
    -26.259  0.0000E+00  0.0000E+00  0.0000E+00  0.0000E+00  0.0000E+00  0.0000E+00  0.0000E+00  0.0000E+00  0.0000E+00  0.0000E+00  0.0000E+00  0.0000E+00  0.0000E+00  0.0000E+00  0.0000E+00  0.0000E+00  0.0000E+00  0.0000E+00
    -26.129  0.0000E+00  0.0000E+00  0.0000E+00  0.0000E+00  0.0000E+00  0.0000E+00  0.0000E+00  0.0000E+00  0.0000E+00  0.0000E+00  0.0000E+00  0.0000E+00  0.0000E+00  0.0000E+00  0.0000E+00  0.0000E+00  0.0000E+00  0.0000E+00
    -25.998  0.0000E+00  0.0000E+00  0.0000E+00  0.0000E+00  0.0000E+00  0.0000E+00  0.0000E+00  0.0000E+00  0.0000E+00  0.0000E+00  0.0000E+00  0.0000E+00  0.0000E+00  0.0000E+00  0.0000E+00  0.0000E+00  0.0000E+00  0.0000E+00
    -25.868  0.0000E+00  0.0000E+00  0.0000E+00  0.0000E+00  0.0000E+00  0.0000E+00  0.0000E+00  0.0000E+00  0.0000E+00  0.0000E+00  0.0000E+00  0.0000E+00  0.0000E+00  0.0000E+00  0.0000E+00  0.0000E+00  0.0000E+00  0.0000E+00
    -25.737  0.0000E+00  0.0000E+00  0.0000E+00  0.0000E+00  0.0000E+00  0.0000E+00  0.0000E+00  0.0000E+00  0.0000E+00  0.0000E+00  0.0000E+00  0.0000E+00  0.0000E+00  0.0000E+00  0.0000E+00  0.0000E+00  0.0000E+00  0.0000E+00
    -25.607  0.0000E+00  0.0000E+00  0.0000E+00  0.0000E+00  0.0000E+00  0.0000E+00  0.0000E+00  0.0000E+00  0.0000E+00  0.0000E+00  0.0000E+00  0.0000E+00  0.0000E+00  0.0000E+00  0.0000E+00  0.0000E+00  0.0000E+00  0.0000E+00
    -25.476  0.0000E+00  0.0000E+00  0.0000E+00  0.0000E+00  0.0000E+00  0.0000E+00  0.0000E+00  0.0000E+00  0.0000E+00  0.0000E+00  0.0000E+00  0.0000E+00  0.0000E+00  0.0000E+00  0.0000E+00  0.0000E+00  0.0000E+00  0.0000E+00
    -25.346  0.0000E+00  0.0000E+00  0.0000E+00  0.0000E+00  0.0000E+00  0.0000E+00  0.0000E+00  0.0000E+00  0.0000E+00  0.0000E+00  0.0000E+00  0.0000E+00  0.0000E+00  0.0000E+00  0.0000E+00  0.0000E+00  0.0000E+00  0.0000E+00
    -25.215  0.0000E+00  0.0000E+00  0.0000E+00  0.0000E+00  0.0000E+00  0.0000E+00  0.0000E+00  0.0000E+00  0.0000E+00  0.0000E+00  0.0000E+00  0.0000E+00  0.0000E+00  0.0000E+00  0.0000E+00  0.0000E+00  0.0000E+00  0.0000E+00
    -25.085  0.0000E+00  0.0000E+00  0.0000E+00  0.0000E+00  0.0000E+00  0.0000E+00  0.0000E+00  0.0000E+00  0.0000E+00  0.0000E+00  0.0000E+00  0.0000E+00  0.0000E+00  0.0000E+00  0.0000E+00  0.0000E+00  0.0000E+00  0.0000E+00
    -24.954  0.0000E+00  0.0000E+00  0.0000E+00  0.0000E+00  0.0000E+00  0.0000E+00  0.0000E+00  0.0000E+00  0.0000E+00  0.0000E+00  0.0000E+00  0.0000E+00  0.0000E+00  0.0000E+00  0.0000E+00  0.0000E+00  0.0000E+00  0.0000E+00
    -24.824  0.0000E+00  0.0000E+00  0.0000E+00  0.0000E+00  0.0000E+00  0.0000E+00  0.0000E+00  0.0000E+00  0.0000E+00  0.0000E+00  0.0000E+00  0.0000E+00  0.0000E+00  0.0000E+00  0.0000E+00  0.0000E+00  0.0000E+00  0.0000E+00
    -24.693  0.0000E+00  0.0000E+00  0.0000E+00  0.0000E+00  0.0000E+00  0.0000E+00  0.0000E+00  0.0000E+00  0.0000E+00  0.0000E+00  0.0000E+00  0.0000E+00  0.0000E+00  0.0000E+00  0.0000E+00  0.0000E+00  0.0000E+00  0.0000E+00
    -24.563  0.0000E+00  0.0000E+00  0.0000E+00  0.0000E+00  0.0000E+00  0.0000E+00  0.0000E+00  0.0000E+00  0.0000E+00  0.0000E+00  0.0000E+00  0.0000E+00  0.0000E+00  0.0000E+00  0.0000E+00  0.0000E+00  0.0000E+00  0.0000E+00
    -24.432  0.0000E+00  0.0000E+00  0.0000E+00  0.0000E+00  0.0000E+00  0.0000E+00  0.0000E+00  0.0000E+00  0.0000E+00  0.0000E+00  0.0000E+00  0.0000E+00  0.0000E+00  0.0000E+00  0.0000E+00  0.0000E+00  0.0000E+00  0.0000E+00
    -24.302  0.0000E+00  0.0000E+00  0.0000E+00  0.0000E+00  0.0000E+00  0.0000E+00  0.0000E+00  0.0000E+00  0.0000E+00  0.0000E+00  0.0000E+00  0.0000E+00  0.0000E+00  0.0000E+00  0.0000E+00  0.0000E+00  0.0000E+00  0.0000E+00
    -24.171  0.0000E+00  0.0000E+00  0.0000E+00  0.0000E+00  0.0000E+00  0.0000E+00  0.0000E+00  0.0000E+00  0.0000E+00  0.0000E+00  0.0000E+00  0.0000E+00  0.0000E+00  0.0000E+00  0.0000E+00  0.0000E+00  0.0000E+00  0.0000E+00
    -24.041  0.0000E+00  0.0000E+00  0.0000E+00  0.0000E+00  0.0000E+00  0.0000E+00  0.0000E+00  0.0000E+00  0.0000E+00  0.0000E+00  0.0000E+00  0.0000E+00  0.0000E+00  0.0000E+00  0.0000E+00  0.0000E+00  0.0000E+00  0.0000E+00
    -23.910  0.0000E+00  0.0000E+00  0.0000E+00  0.0000E+00  0.0000E+00  0.0000E+00  0.0000E+00  0.0000E+00  0.0000E+00  0.0000E+00  0.0000E+00  0.0000E+00  0.0000E+00  0.0000E+00  0.0000E+00  0.0000E+00  0.0000E+00  0.0000E+00
    -23.780  0.0000E+00  0.0000E+00  0.0000E+00  0.0000E+00  0.0000E+00  0.0000E+00  0.0000E+00  0.0000E+00  0.0000E+00  0.0000E+00  0.0000E+00  0.0000E+00  0.0000E+00  0.0000E+00  0.0000E+00  0.0000E+00  0.0000E+00  0.0000E+00
    -23.649  0.0000E+00  0.0000E+00  0.0000E+00  0.0000E+00  0.0000E+00  0.0000E+00  0.0000E+00  0.0000E+00  0.0000E+00  0.0000E+00  0.0000E+00  0.0000E+00  0.0000E+00  0.0000E+00  0.0000E+00  0.0000E+00  0.0000E+00  0.0000E+00
    -23.519  0.0000E+00  0.0000E+00  0.0000E+00  0.0000E+00  0.0000E+00  0.0000E+00  0.0000E+00  0.0000E+00  0.0000E+00  0.0000E+00  0.0000E+00  0.0000E+00  0.0000E+00  0.0000E+00  0.0000E+00  0.0000E+00  0.0000E+00  0.0000E+00
    -23.388  0.0000E+00  0.0000E+00  0.0000E+00  0.0000E+00  0.0000E+00  0.0000E+00  0.0000E+00  0.0000E+00  0.0000E+00  0.0000E+00  0.0000E+00  0.0000E+00  0.0000E+00  0.0000E+00  0.0000E+00  0.0000E+00  0.0000E+00  0.0000E+00
    -23.258  0.0000E+00  0.0000E+00  0.0000E+00  0.0000E+00  0.0000E+00  0.0000E+00  0.0000E+00  0.0000E+00  0.0000E+00  0.0000E+00  0.0000E+00  0.0000E+00  0.0000E+00  0.0000E+00  0.0000E+00  0.0000E+00  0.0000E+00  0.0000E+00
    -23.127  0.0000E+00  0.0000E+00  0.0000E+00  0.0000E+00  0.0000E+00  0.0000E+00  0.0000E+00  0.0000E+00  0.0000E+00  0.0000E+00  0.0000E+00  0.0000E+00  0.0000E+00  0.0000E+00  0.0000E+00  0.0000E+00  0.0000E+00  0.0000E+00
    -22.997  0.0000E+00  0.0000E+00  0.0000E+00  0.0000E+00  0.0000E+00  0.0000E+00  0.0000E+00  0.0000E+00  0.0000E+00  0.0000E+00  0.0000E+00  0.0000E+00  0.0000E+00  0.0000E+00  0.0000E+00  0.0000E+00  0.0000E+00  0.0000E+00
    -22.866  0.0000E+00  0.0000E+00  0.0000E+00  0.0000E+00  0.0000E+00  0.0000E+00  0.0000E+00  0.0000E+00  0.0000E+00  0.0000E+00  0.0000E+00  0.0000E+00  0.0000E+00  0.0000E+00  0.0000E+00  0.0000E+00  0.0000E+00  0.0000E+00
    -22.736  0.0000E+00  0.0000E+00  0.0000E+00  0.0000E+00  0.0000E+00  0.0000E+00  0.0000E+00  0.0000E+00  0.0000E+00  0.0000E+00  0.0000E+00  0.0000E+00  0.0000E+00  0.0000E+00  0.0000E+00  0.0000E+00  0.0000E+00  0.0000E+00
    -22.605  0.0000E+00  0.0000E+00  0.0000E+00  0.0000E+00  0.0000E+00  0.0000E+00  0.0000E+00  0.0000E+00  0.0000E+00  0.0000E+00  0.0000E+00  0.0000E+00  0.0000E+00  0.0000E+00  0.0000E+00  0.0000E+00  0.0000E+00  0.0000E+00
    -22.475  0.0000E+00  0.0000E+00  0.0000E+00  0.0000E+00  0.0000E+00  0.0000E+00  0.0000E+00  0.0000E+00  0.0000E+00  0.0000E+00  0.0000E+00  0.0000E+00  0.0000E+00  0.0000E+00  0.0000E+00  0.0000E+00  0.0000E+00  0.0000E+00