   4   4   1   0
  0.1981497E+02  0.4294871E-09  0.4295876E-09  0.4295876E-09  0.5000000E-15
  1.000000000000000E-004
  CAR 
 unknown system                          
      9.81859365     -4.59720311  301      5.43310474      1.00000000
     -4.597  0.0000E+00  0.0000E+00  0.0000E+00  0.0000E+00
     -4.549  0.0000E+00  0.0000E+00  0.0000E+00  0.0000E+00
     -4.501  0.0000E+00  0.0000E+00  0.0000E+00  0.0000E+00
     -4.453  0.0000E+00  0.0000E+00  0.0000E+00  0.0000E+00
     -4.405  0.0000E+00  0.0000E+00  0.0000E+00  0.0000E+00
     -4.357  0.2353E-05  0.2345E-05  0.1131E-06  0.1127E-06
     -4.309  0.1802E-04  0.1795E-04  0.9789E-06  0.9753E-06
     -4.261  0.6156E-04  0.6133E-04  0.3937E-05  0.3922E-05
     -4.213  0.1514E-03  0.1508E-03  0.1121E-04  0.1117E-04
     -4.165  0.3896E-03  0.3882E-03  0.2993E-04  0.2982E-04
     -4.117  0.1054E-02  0.1050E-02  0.8057E-04  0.8028E-04
     -4.069  0.2692E-02  0.2683E-02  0.2099E-03  0.2092E-03
     -4.021  0.6587E-02  0.6565E-02  0.5265E-03  0.5247E-03
     -3.973  0.1516E-01  0.1511E-01  0.1255E-02  0.1251E-02
     -3.924  0.3076E-01  0.3069E-01  0.2733E-02  0.2726E-02
     -3.876  0.5241E-01  0.5232E-01  0.5252E-02  0.5240E-02
     -3.828  0.7455E-01  0.7447E-01  0.8834E-02  0.8819E-02
     -3.780  0.9434E-01  0.9427E-01  0.1337E-01  0.1335E-01
     -3.732  0.1164E+00  0.1163E+00  0.1896E-01  0.1894E-01
     -3.684  0.1378E+00  0.1377E+00  0.2558E-01  0.2555E-01
     -3.636  0.1458E+00  0.1458E+00  0.3259E-01  0.3256E-01
     -3.588  0.1474E+00  0.1474E+00  0.3967E-01  0.3964E-01
     -3.540  0.1637E+00  0.1637E+00  0.4754E-01  0.4751E-01
     -3.492  0.1901E+00  0.1900E+00  0.5668E-01  0.5664E-01
     -3.444  0.2049E+00  0.2048E+00  0.6652E-01  0.6649E-01
     -3.396  0.2061E+00  0.2061E+00  0.7643E-01  0.7640E-01
     -3.348  0.2101E+00  0.2101E+00  0.8653E-01  0.8650E-01
     -3.300  0.2220E+00  0.2220E+00  0.9721E-01  0.9717E-01
     -3.252  0.2235E+00  0.2236E+00  0.1080E+00  0.1079E+00
     -3.204  0.2203E+00  0.2203E+00  0.1185E+00  0.1185E+00
     -3.156  0.2433E+00  0.2432E+00  0.1302E+00  0.1302E+00
     -3.108  0.2791E+00  0.2790E+00  0.1437E+00  0.1436E+00
     -3.060  0.2952E+00  0.2952E+00  0.1579E+00  0.1578E+00
     -3.011  0.2957E+00  0.2957E+00  0.1721E+00  0.1720E+00
     -2.963  0.2910E+00  0.2911E+00  0.1861E+00  0.1860E+00
     -2.915  0.2733E+00  0.2734E+00  0.1992E+00  0.1992E+00
     -2.867  0.2548E+00  0.2548E+00  0.2115E+00  0.2114E+00
     -2.819  0.2726E+00  0.2725E+00  0.2246E+00  0.2245E+00
     -2.771  0.3271E+00  0.3270E+00  0.2403E+00  0.2402E+00
     -2.723  0.3718E+00  0.3717E+00  0.2582E+00  0.2581E+00
     -2.675  0.3753E+00  0.3754E+00  0.2762E+00  0.2762E+00
     -2.627  0.3694E+00  0.3694E+00  0.2940E+00  0.2939E+00
     -2.579  0.3696E+00  0.3696E+00  0.3117E+00  0.3117E+00
     -2.531  0.3429E+00  0.3430E+00  0.3282E+00  0.3282E+00
     -2.483  0.3194E+00  0.3194E+00  0.3436E+00  0.3435E+00
     -2.435  0.3555E+00  0.3554E+00  0.3606E+00  0.3606E+00
     -2.387  0.4298E+00  0.4297E+00  0.3813E+00  0.3813E+00
     -2.339  0.4786E+00  0.4787E+00  0.4043E+00  0.4043E+00
     -2.291  0.4732E+00  0.4733E+00  0.4271E+00  0.4270E+00
     -2.243  0.4463E+00  0.4464E+00  0.4485E+00  0.4485E+00
     -2.195  0.4329E+00  0.4329E+00  0.4693E+00  0.4693E+00
     -2.147  0.4237E+00  0.4237E+00  0.4897E+00  0.4897E+00
     -2.098  0.4289E+00  0.4289E+00  0.5103E+00  0.5103E+00
     -2.050  0.4675E+00  0.4674E+00  0.5328E+00  0.5327E+00
     -2.002  0.4968E+00  0.4969E+00  0.5567E+00  0.5566E+00
     -1.954  0.4790E+00  0.4791E+00  0.5797E+00  0.5797E+00
     -1.906  0.4228E+00  0.4229E+00  0.6000E+00  0.6000E+00
     -1.858  0.3578E+00  0.3579E+00  0.6172E+00  0.6172E+00
     -1.810  0.3204E+00  0.3205E+00  0.6327E+00  0.6326E+00
     -1.762  0.3297E+00  0.3297E+00  0.6485E+00  0.6485E+00
     -1.714  0.3884E+00  0.3883E+00  0.6672E+00  0.6671E+00
     -1.666  0.4443E+00  0.4443E+00  0.6885E+00  0.6885E+00
     -1.618  0.4289E+00  0.4290E+00  0.7092E+00  0.7091E+00
     -1.570  0.3703E+00  0.3704E+00  0.7270E+00  0.7270E+00
     -1.522  0.3207E+00  0.3207E+00  0.7424E+00  0.7424E+00
     -1.474  0.2858E+00  0.2857E+00  0.7561E+00  0.7561E+00
     -1.426  0.2994E+00  0.2991E+00  0.7705E+00  0.7705E+00
     -1.378  0.3904E+00  0.3899E+00  0.7893E+00  0.7892E+00
     -1.330  0.5020E+00  0.5017E+00  0.8134E+00  0.8133E+00
     -1.282  0.5353E+00  0.5352E+00  0.8392E+00  0.8391E+00
     -1.234  0.4874E+00  0.4874E+00  0.8626E+00  0.8625E+00
     -1.185  0.4376E+00  0.4376E+00  0.8836E+00  0.8836E+00
     -1.137  0.3948E+00  0.3949E+00  0.9026E+00  0.9025E+00
     -1.089  0.3685E+00  0.3685E+00  0.9203E+00  0.9203E+00
     -1.041  0.4080E+00  0.4077E+00  0.9399E+00  0.9398E+00
     -0.993  0.4820E+00  0.4817E+00  0.9631E+00  0.9630E+00
     -0.945  0.5067E+00  0.5067E+00  0.9875E+00  0.9874E+00
     -0.897  0.4573E+00  0.4575E+00  0.1009E+01  0.1009E+01
     -0.849  0.4122E+00  0.4121E+00  0.1029E+01  0.1029E+01
     -0.801  0.4209E+00  0.4207E+00  0.1050E+01  0.1049E+01
     -0.753  0.4568E+00  0.4566E+00  0.1071E+01  0.1071E+01
     -0.705  0.5224E+00  0.5221E+00  0.1097E+01  0.1096E+01
     -0.657  0.6025E+00  0.6022E+00  0.1126E+01  0.1125E+01
     -0.609  0.6158E+00  0.6159E+00  0.1155E+01  0.1155E+01
     -0.561  0.5435E+00  0.5439E+00  0.1181E+01  0.1181E+01
     -0.513  0.4584E+00  0.4586E+00  0.1203E+01  0.1203E+01
     -0.465  0.4167E+00  0.4168E+00  0.1223E+01  0.1223E+01
     -0.417  0.4359E+00  0.4358E+00  0.1244E+01  0.1244E+01
     -0.369  0.5086E+00  0.5083E+00  0.1269E+01  0.1269E+01
     -0.321  0.5907E+00  0.5905E+00  0.1297E+01  0.1297E+01
     -0.272  0.6030E+00  0.6033E+00  0.1326E+01  0.1326E+01
     -0.224  0.5447E+00  0.5450E+00  0.1352E+01  0.1352E+01
     -0.176  0.5139E+00  0.5139E+00  0.1377E+01  0.1377E+01
     -0.128  0.5564E+00  0.5561E+00  0.1404E+01  0.1404E+01
     -0.080  0.6523E+00  0.6520E+00  0.1435E+01  0.1435E+01
     -0.032  0.7532E+00  0.7530E+00  0.1471E+01  0.1471E+01
      0.016  0.7974E+00  0.7975E+00  0.1510E+01  0.1510E+01
      0.064  0.7774E+00  0.7776E+00  0.1547E+01  0.1547E+01
      0.112  0.7404E+00  0.7405E+00  0.1583E+01  0.1583E+01
      0.160  0.7191E+00  0.7190E+00  0.1617E+01  0.1617E+01
      0.208  0.7286E+00  0.7284E+00  0.1652E+01  0.1652E+01
      0.256  0.7324E+00  0.7323E+00  0.1687E+01  0.1687E+01
      0.304  0.6913E+00  0.6914E+00  0.1721E+01  0.1721E+01
      0.352  0.6473E+00  0.6474E+00  0.1752E+01  0.1752E+01
      0.400  0.6654E+00  0.6653E+00  0.1784E+01  0.1784E+01
      0.448  0.7157E+00  0.7156E+00  0.1818E+01  0.1818E+01
      0.496  0.7214E+00  0.7215E+00  0.1853E+01  0.1853E+01
      0.544  0.6897E+00  0.6897E+00  0.1886E+01  0.1886E+01
      0.592  0.6608E+00  0.6606E+00  0.1918E+01  0.1918E+01
      0.641  0.6453E+00  0.6450E+00  0.1949E+01  0.1949E+01
      0.689  0.6448E+00  0.6445E+00  0.1980E+01  0.1980E+01
      0.737  0.6793E+00  0.6789E+00  0.2013E+01  0.2012E+01
      0.785  0.7338E+00  0.7334E+00  0.2048E+01  0.2048E+01
      0.833  0.7845E+00  0.7843E+00  0.2086E+01  0.2085E+01
      0.881  0.8224E+00  0.8223E+00  0.2125E+01  0.2125E+01
      0.929  0.8251E+00  0.8253E+00  0.2165E+01  0.2165E+01
      0.977  0.7670E+00  0.7675E+00  0.2202E+01  0.2201E+01
      1.025  0.6498E+00  0.6505E+00  0.2233E+01  0.2233E+01
      1.073  0.5314E+00  0.5318E+00  0.2258E+01  0.2258E+01
      1.121  0.4973E+00  0.4971E+00  0.2282E+01  0.2282E+01
      1.169  0.5376E+00  0.5372E+00  0.2308E+01  0.2308E+01
      1.217  0.5632E+00  0.5629E+00  0.2335E+01  0.2335E+01
      1.265  0.5731E+00  0.5726E+00  0.2363E+01  0.2363E+01
      1.313  0.6097E+00  0.6090E+00  0.2392E+01  0.2392E+01
      1.361  0.6570E+00  0.6565E+00  0.2424E+01  0.2423E+01
      1.409  0.6474E+00  0.6477E+00  0.2455E+01  0.2455E+01
      1.457  0.5743E+00  0.5751E+00  0.2482E+01  0.2482E+01
      1.505  0.5109E+00  0.5114E+00  0.2507E+01  0.2507E+01
      1.554  0.5005E+00  0.5005E+00  0.2531E+01  0.2531E+01
      1.602  0.5175E+00  0.5174E+00  0.2556E+01  0.2556E+01
      1.650  0.5330E+00  0.5328E+00  0.2582E+01  0.2581E+01
      1.698  0.5328E+00  0.5324E+00  0.2607E+01  0.2607E+01
      1.746  0.5399E+00  0.5390E+00  0.2633E+01  0.2633E+01
      1.794  0.6070E+00  0.6055E+00  0.2662E+01  0.2662E+01
      1.842  0.7361E+00  0.7346E+00  0.2698E+01  0.2697E+01
      1.890  0.8579E+00  0.8571E+00  0.2739E+01  0.2739E+01
      1.938  0.8974E+00  0.8976E+00  0.2782E+01  0.2782E+01
      1.986  0.8451E+00  0.8460E+00  0.2823E+01  0.2822E+01
      2.034  0.7612E+00  0.7621E+00  0.2859E+01  0.2859E+01
      2.082  0.7009E+00  0.7011E+00  0.2893E+01  0.2893E+01
      2.130  0.6674E+00  0.6674E+00  0.2925E+01  0.2925E+01
      2.178  0.6272E+00  0.6275E+00  0.2955E+01  0.2955E+01
      2.226  0.5913E+00  0.5913E+00  0.2984E+01  0.2983E+01
      2.274  0.6303E+00  0.6292E+00  0.3014E+01  0.3014E+01
      2.322  0.7456E+00  0.7438E+00  0.3050E+01  0.3049E+01
      2.370  0.8939E+00  0.8918E+00  0.3093E+01  0.3092E+01
      2.418  0.1033E+01  0.1031E+01  0.3143E+01  0.3142E+01
      2.467  0.1095E+01  0.1095E+01  0.3195E+01  0.3195E+01
      2.515  0.1055E+01  0.1056E+01  0.3246E+01  0.3245E+01
      2.563  0.9613E+00  0.9622E+00  0.3292E+01  0.3292E+01
      2.611  0.9175E+00  0.9172E+00  0.3336E+01  0.3336E+01
      2.659  0.9523E+00  0.9516E+00  0.3382E+01  0.3381E+01
      2.707  0.9786E+00  0.9786E+00  0.3429E+01  0.3428E+01
      2.755  0.9795E+00  0.9794E+00  0.3476E+01  0.3475E+01
      2.803  0.9790E+00  0.9787E+00  0.3523E+01  0.3523E+01
      2.851  0.9473E+00  0.9472E+00  0.3569E+01  0.3568E+01
      2.899  0.9013E+00  0.9012E+00  0.3612E+01  0.3611E+01
      2.947  0.8946E+00  0.8936E+00  0.3655E+01  0.3654E+01
      2.995  0.9749E+00  0.9724E+00  0.3702E+01  0.3701E+01
      3.043  0.1132E+01  0.1129E+01  0.3756E+01  0.3755E+01
      3.091  0.1273E+01  0.1271E+01  0.3818E+01  0.3816E+01
      3.139  0.1301E+01  0.1302E+01  0.3880E+01  0.3879E+01
      3.187  0.1201E+01  0.1203E+01  0.3938E+01  0.3937E+01
      3.235  0.1094E+01  0.1094E+01  0.3990E+01  0.3989E+01
      3.283  0.1104E+01  0.1102E+01  0.4044E+01  0.4042E+01
      3.331  0.1236E+01  0.1232E+01  0.4103E+01  0.4102E+01
      3.380  0.1352E+01  0.1350E+01  0.4168E+01  0.4167E+01
      3.428  0.1319E+01  0.1320E+01  0.4231E+01  0.4230E+01
      3.476  0.1222E+01  0.1222E+01  0.4290E+01  0.4289E+01
      3.524  0.1217E+01  0.1215E+01  0.4349E+01  0.4347E+01
      3.572  0.1337E+01  0.1332E+01  0.4413E+01  0.4411E+01
      3.620  0.1518E+01  0.1512E+01  0.4486E+01  0.4484E+01
      3.668  0.1697E+01  0.1690E+01  0.4567E+01  0.4565E+01
      3.716  0.1852E+01  0.1846E+01  0.4656E+01  0.4654E+01
      3.764  0.1945E+01  0.1942E+01  0.4750E+01  0.4747E+01
      3.812  0.1859E+01  0.1863E+01  0.4839E+01  0.4837E+01
      3.860  0.1613E+01  0.1619E+01  0.4917E+01  0.4915E+01
      3.908  0.1389E+01  0.1393E+01  0.4984E+01  0.4982E+01
      3.956  0.1231E+01  0.1234E+01  0.5043E+01  0.5041E+01
      4.004  0.1145E+01  0.1144E+01  0.5098E+01  0.5096E+01
      4.052  0.1169E+01  0.1165E+01  0.5154E+01  0.5152E+01
      4.100  0.1227E+01  0.1225E+01  0.5213E+01  0.5211E+01
      4.148  0.1201E+01  0.1203E+01  0.5271E+01  0.5269E+01
      4.196  0.1101E+01  0.1105E+01  0.5324E+01  0.5322E+01
      4.244  0.1008E+01  0.1010E+01  0.5372E+01  0.5370E+01
      4.293  0.9612E+00  0.9610E+00  0.5419E+01  0.5417E+01
      4.341  0.9490E+00  0.9481E+00  0.5464E+01  0.5462E+01
      4.389  0.9274E+00  0.9269E+00  0.5509E+01  0.5507E+01
      4.437  0.8962E+00  0.8951E+00  0.5552E+01  0.5550E+01
      4.485  0.8828E+00  0.8814E+00  0.5594E+01  0.5592E+01
      4.533  0.8921E+00  0.8910E+00  0.5637E+01  0.5635E+01
      4.581  0.9223E+00  0.9210E+00  0.5682E+01  0.5679E+01
      4.629  0.9409E+00  0.9407E+00  0.5727E+01  0.5725E+01
      4.677  0.9152E+00  0.9168E+00  0.5771E+01  0.5769E+01
      4.725  0.8469E+00  0.8494E+00  0.5812E+01  0.5810E+01
      4.773  0.8022E+00  0.8023E+00  0.5850E+01  0.5848E+01
      4.821  0.8379E+00  0.8350E+00  0.5890E+01  0.5888E+01
      4.869  0.9102E+00  0.9069E+00  0.5934E+01  0.5932E+01
      4.917  0.9559E+00  0.9550E+00  0.5980E+01  0.5978E+01
      4.965  0.9653E+00  0.9674E+00  0.6027E+01  0.6024E+01
      5.013  0.9147E+00  0.9199E+00  0.6071E+01  0.6069E+01
      5.061  0.7997E+00  0.8042E+00  0.6109E+01  0.6107E+01
      5.109  0.7467E+00  0.7446E+00  0.6145E+01  0.6143E+01
      5.157  0.8063E+00  0.8009E+00  0.6184E+01  0.6182E+01
      5.206  0.8737E+00  0.8709E+00  0.6226E+01  0.6223E+01
      5.254  0.9308E+00  0.9273E+00  0.6270E+01  0.6268E+01
      5.302  0.1063E+01  0.1055E+01  0.6322E+01  0.6319E+01
      5.350  0.1253E+01  0.1242E+01  0.6382E+01  0.6378E+01
      5.398  0.1409E+01  0.1400E+01  0.6450E+01  0.6446E+01
      5.446  0.1489E+01  0.1485E+01  0.6521E+01  0.6517E+01
      5.494  0.1540E+01  0.1536E+01  0.6595E+01  0.6591E+01
      5.542  0.1658E+01  0.1651E+01  0.6675E+01  0.6670E+01
      5.590  0.1801E+01  0.1795E+01  0.6761E+01  0.6756E+01
      5.638  0.1868E+01  0.1865E+01  0.6851E+01  0.6846E+01
      5.686  0.1889E+01  0.1887E+01  0.6942E+01  0.6937E+01
      5.734  0.1921E+01  0.1918E+01  0.7034E+01  0.7029E+01
      5.782  0.1951E+01  0.1950E+01  0.7128E+01  0.7123E+01
      5.830  0.1997E+01  0.1993E+01  0.7224E+01  0.7219E+01
      5.878  0.2153E+01  0.2139E+01  0.7328E+01  0.7321E+01
      5.926  0.2477E+01  0.2452E+01  0.7447E+01  0.7439E+01
      5.974  0.2945E+01  0.2912E+01  0.7588E+01  0.7579E+01
      6.022  0.3461E+01  0.3427E+01  0.7755E+01  0.7744E+01
      6.070  0.3879E+01  0.3853E+01  0.7941E+01  0.7929E+01
      6.119  0.4092E+01  0.4081E+01  0.8138E+01  0.8125E+01
      6.167  0.4049E+01  0.4057E+01  0.8332E+01  0.8320E+01
      6.215  0.3740E+01  0.3767E+01  0.8512E+01  0.8501E+01
      6.263  0.3254E+01  0.3290E+01  0.8668E+01  0.8659E+01
      6.311  0.2727E+01  0.2762E+01  0.8800E+01  0.8792E+01
      6.359  0.2252E+01  0.2281E+01  0.8908E+01  0.8902E+01
      6.407  0.1882E+01  0.1902E+01  0.8998E+01  0.8993E+01
      6.455  0.1639E+01  0.1652E+01  0.9077E+01  0.9073E+01
      6.503  0.1491E+01  0.1500E+01  0.9149E+01  0.9145E+01
      6.551  0.1389E+01  0.1396E+01  0.9216E+01  0.9212E+01
      6.599  0.1346E+01  0.1348E+01  0.9281E+01  0.9277E+01
      6.647  0.1394E+01  0.1389E+01  0.9348E+01  0.9344E+01
      6.695  0.1516E+01  0.1508E+01  0.9421E+01  0.9417E+01
      6.743  0.1658E+01  0.1653E+01  0.9500E+01  0.9496E+01
      6.791  0.1722E+01  0.1723E+01  0.9583E+01  0.9579E+01
      6.839  0.1677E+01  0.1681E+01  0.9664E+01  0.9660E+01
      6.887  0.1627E+01  0.1627E+01  0.9742E+01  0.9738E+01
      6.935  0.1697E+01  0.1689E+01  0.9824E+01  0.9819E+01
      6.983  0.1871E+01  0.1862E+01  0.9914E+01  0.9909E+01
      7.032  0.1986E+01  0.1982E+01  0.1001E+02  0.1000E+02
      7.080  0.1998E+01  0.1996E+01  0.1011E+02  0.1010E+02
      7.128  0.1984E+01  0.1981E+01  0.1020E+02  0.1020E+02
      7.176  0.1962E+01  0.1962E+01  0.1029E+02  0.1029E+02
      7.224  0.1854E+01  0.1867E+01  0.1038E+02  0.1038E+02
      7.272  0.1701E+01  0.1723E+01  0.1047E+02  0.1046E+02
      7.320  0.1625E+01  0.1648E+01  0.1054E+02  0.1054E+02
      7.368  0.1579E+01  0.1601E+01  0.1062E+02  0.1062E+02
      7.416  0.1486E+01  0.1501E+01  0.1069E+02  0.1069E+02
      7.464  0.1366E+01  0.1368E+01  0.1076E+02  0.1076E+02
      7.512  0.1231E+01  0.1224E+01  0.1082E+02  0.1082E+02
      7.560  0.1157E+01  0.1146E+01  0.1087E+02  0.1087E+02
      7.608  0.1235E+01  0.1219E+01  0.1093E+02  0.1093E+02
      7.656  0.1383E+01  0.1367E+01  0.1100E+02  0.1099E+02
      7.704  0.1444E+01  0.1434E+01  0.1107E+02  0.1106E+02
      7.752  0.1417E+01  0.1420E+01  0.1114E+02  0.1113E+02
      7.800  0.1363E+01  0.1376E+01  0.1120E+02  0.1120E+02
      7.848  0.1262E+01  0.1274E+01  0.1126E+02  0.1126E+02
      7.896  0.1129E+01  0.1136E+01  0.1132E+02  0.1131E+02
      7.945  0.1038E+01  0.1039E+01  0.1137E+02  0.1136E+02
      7.993  0.1067E+01  0.1059E+01  0.1142E+02  0.1141E+02
      8.041  0.1177E+01  0.1164E+01  0.1147E+02  0.1147E+02
      8.089  0.1249E+01  0.1241E+01  0.1153E+02  0.1153E+02
      8.137  0.1184E+01  0.1193E+01  0.1159E+02  0.1159E+02
      8.185  0.1006E+01  0.1022E+01  0.1164E+02  0.1164E+02
      8.233  0.8652E+00  0.8759E+00  0.1168E+02  0.1168E+02
      8.281  0.8530E+00  0.8563E+00  0.1172E+02  0.1172E+02
      8.329  0.8989E+00  0.9006E+00  0.1176E+02  0.1176E+02
      8.377  0.8625E+00  0.8685E+00  0.1181E+02  0.1181E+02
      8.425  0.7260E+00  0.7376E+00  0.1184E+02  0.1184E+02
      8.473  0.5882E+00  0.6025E+00  0.1187E+02  0.1187E+02
      8.521  0.4903E+00  0.5010E+00  0.1189E+02  0.1189E+02
      8.569  0.4169E+00  0.4156E+00  0.1191E+02  0.1191E+02
      8.617  0.3539E+00  0.3413E+00  0.1193E+02  0.1193E+02
      8.665  0.3163E+00  0.3024E+00  0.1195E+02  0.1194E+02
      8.713  0.3079E+00  0.3025E+00  0.1196E+02  0.1196E+02
      8.761  0.2835E+00  0.2873E+00  0.1197E+02  0.1197E+02
      8.809  0.2186E+00  0.2240E+00  0.1198E+02  0.1198E+02
      8.858  0.1380E+00  0.1413E+00  0.1199E+02  0.1199E+02
      8.906  0.7379E-01  0.7530E-01  0.1199E+02  0.1199E+02
      8.954  0.3461E-01  0.3517E-01  0.1200E+02  0.1200E+02
      9.002  0.1562E-01  0.1571E-01  0.1200E+02  0.1200E+02
      9.050  0.9234E-02  0.8909E-02  0.1200E+02  0.1200E+02
      9.098  0.9486E-02  0.8870E-02  0.1200E+02  0.1200E+02
      9.146  0.1275E-01  0.1211E-01  0.1200E+02  0.1200E+02
      9.194  0.1328E-01  0.1348E-01  0.1200E+02  0.1200E+02
      9.242  0.9434E-02  0.1018E-01  0.1200E+02  0.1200E+02
      9.290  0.4944E-02  0.5552E-02  0.1200E+02  0.1200E+02
      9.338  0.2170E-02  0.2486E-02  0.1200E+02  0.1200E+02
      9.386  0.8774E-03  0.1014E-02  0.1200E+02  0.1200E+02
      9.434  0.3430E-03  0.3978E-03  0.1200E+02  0.1200E+02
      9.482  0.1323E-03  0.1536E-03  0.1200E+02  0.1200E+02
      9.530  0.5076E-04  0.5898E-04  0.1200E+02  0.1200E+02
      9.578  0.0000E+00  0.0000E+00  0.1200E+02  0.1200E+02
      9.626  0.0000E+00  0.0000E+00  0.1200E+02  0.1200E+02
      9.674  0.0000E+00  0.0000E+00  0.1200E+02  0.1200E+02
      9.722  0.0000E+00  0.0000E+00  0.1200E+02  0.1200E+02
      9.771  0.0000E+00  0.0000E+00  0.1200E+02  0.1200E+02
      9.819  0.0000E+00  0.0000E+00  0.1200E+02  0.1200E+02
      9.81859365     -4.59720311  301      5.43310474      1.00000000
     -4.597  0.0000E+00  0.0000E+00  0.0000E+00  0.0000E+00  0.0000E+00  0.0000E+00  0.0000E+00  0.0000E+00  0.0000E+00  0.0000E+00  0.0000E+00  0.0000E+00  0.0000E+00  0.0000E+00  0.0000E+00  0.0000E+00  0.0000E+00  0.0000E+00
     -4.549  0.0000E+00  0.0000E+00  0.0000E+00  0.0000E+00  0.0000E+00  0.0000E+00  0.0000E+00  0.0000E+00  0.0000E+00  0.0000E+00  0.0000E+00  0.0000E+00  0.0000E+00  0.0000E+00  0.0000E+00  0.0000E+00  0.0000E+00  0.0000E+00
     -4.501  0.0000E+00  0.0000E+00  0.0000E+00  0.0000E+00  0.0000E+00  0.0000E+00  0.0000E+00  0.0000E+00  0.0000E+00  0.0000E+00  0.0000E+00  0.0000E+00  0.0000E+00  0.0000E+00  0.0000E+00  0.0000E+00  0.0000E+00  0.0000E+00
     -4.453  0.0000E+00  0.0000E+00  0.0000E+00  0.0000E+00  0.0000E+00  0.0000E+00  0.0000E+00  0.0000E+00  0.0000E+00  0.0000E+00  0.0000E+00  0.0000E+00  0.0000E+00  0.0000E+00  0.0000E+00  0.0000E+00  0.0000E+00  0.0000E+00
     -4.405  0.0000E+00  0.0000E+00  0.0000E+00  0.0000E+00  0.0000E+00  0.0000E+00  0.0000E+00  0.0000E+00  0.0000E+00  0.0000E+00  0.0000E+00  0.0000E+00  0.0000E+00  0.0000E+00  0.0000E+00  0.0000E+00  0.0000E+00  0.0000E+00
     -4.357  0.2066E-06  0.2057E-06  0.1564E-20  0.2877E-21  0.1564E-20  0.2877E-21  0.1162E-20  0.2846E-21  0.1819E-22  0.1143E-22  0.9808E-23  0.1308E-23  0.6901E-16  0.8879E-16  0.1819E-22  0.1143E-22  0.8901E-16  0.1143E-15
     -4.309  0.1565E-05  0.1558E-05  0.3495E-08  0.3482E-08  0.3495E-08  0.3482E-08  0.3494E-08  0.3480E-08  0.8016E-21  0.9239E-21  0.5974E-21  0.5442E-21  0.1155E-10  0.1150E-10  0.8016E-21  0.9239E-21  0.1481E-10  0.1474E-10
     -4.261  0.5308E-05  0.5287E-05  0.1964E-07  0.1957E-07  0.1964E-07  0.1957E-07  0.1964E-07  0.1957E-07  0.1271E-09  0.1266E-09  0.1272E-09  0.1266E-09  0.4836E-10  0.4815E-10  0.1271E-09  0.1266E-09  0.4694E-10  0.4671E-10
     -4.213  0.1304E-04  0.1298E-04  0.5137E-07  0.5117E-07  0.5137E-07  0.5117E-07  0.5136E-07  0.5117E-07  0.4624E-09  0.4604E-09  0.4623E-09  0.4603E-09  0.9661E-10  0.9619E-10  0.4624E-09  0.4604E-09  0.9955E-10  0.9907E-10
     -4.165  0.3355E-04  0.3341E-04  0.1345E-06  0.1340E-06  0.1345E-06  0.1340E-06  0.1344E-06  0.1339E-06  0.9506E-09  0.9464E-09  0.9505E-09  0.9463E-09  0.4391E-09  0.4372E-09  0.9506E-09  0.9464E-09  0.5000E-09  0.4976E-09
     -4.117  0.9053E-04  0.9016E-04  0.4080E-06  0.4065E-06  0.4080E-06  0.4065E-06  0.4078E-06  0.4063E-06  0.3558E-08  0.3543E-08  0.3559E-08  0.3544E-08  0.1602E-08  0.1596E-08  0.3558E-08  0.3543E-08  0.1815E-08  0.1807E-08
     -4.069  0.2311E-03  0.2302E-03  0.1070E-05  0.1066E-05  0.1070E-05  0.1066E-05  0.1070E-05  0.1066E-05  0.1064E-07  0.1059E-07  0.1064E-07  0.1059E-07  0.3939E-08  0.3922E-08  0.1064E-07  0.1059E-07  0.4504E-08  0.4484E-08
     -4.021  0.5654E-03  0.5633E-03  0.2637E-05  0.2628E-05  0.2637E-05  0.2628E-05  0.2636E-05  0.2627E-05  0.2503E-07  0.2492E-07  0.2503E-07  0.2492E-07  0.9664E-08  0.9623E-08  0.2503E-07  0.2492E-07  0.1099E-07  0.1094E-07
     -3.973  0.1299E-02  0.1295E-02  0.6512E-05  0.6491E-05  0.6512E-05  0.6491E-05  0.6510E-05  0.6488E-05  0.6568E-07  0.6540E-07  0.6568E-07  0.6541E-07  0.2453E-07  0.2443E-07  0.6568E-07  0.6540E-07  0.2772E-07  0.2760E-07
     -3.924  0.2628E-02  0.2621E-02  0.1486E-04  0.1482E-04  0.1486E-04  0.1482E-04  0.1486E-04  0.1481E-04  0.1642E-06  0.1635E-06  0.1642E-06  0.1635E-06  0.5899E-07  0.5876E-07  0.1642E-06  0.1635E-06  0.6691E-07  0.6664E-07
     -3.876  0.4455E-02  0.4446E-02  0.2984E-04  0.2976E-04  0.2984E-04  0.2976E-04  0.2982E-04  0.2975E-04  0.3644E-06  0.3631E-06  0.3645E-06  0.3632E-06  0.1325E-06  0.1320E-06  0.3644E-06  0.3631E-06  0.1520E-06  0.1514E-06
     -3.828  0.6289E-02  0.6280E-02  0.5249E-04  0.5239E-04  0.5249E-04  0.5239E-04  0.5247E-04  0.5237E-04  0.7365E-06  0.7342E-06  0.7366E-06  0.7342E-06  0.2766E-06  0.2756E-06  0.7365E-06  0.7342E-06  0.3234E-06  0.3222E-06
     -3.780  0.7870E-02  0.7861E-02  0.8434E-04  0.8420E-04  0.8434E-04  0.8420E-04  0.8430E-04  0.8416E-04  0.1364E-05  0.1360E-05  0.1364E-05  0.1360E-05  0.5419E-06  0.5401E-06  0.1364E-05  0.1360E-05  0.6431E-06  0.6409E-06
     -3.732  0.9585E-02  0.9574E-02  0.1286E-03  0.1284E-03  0.1286E-03  0.1284E-03  0.1286E-03  0.1284E-03  0.2424E-05  0.2418E-05  0.2425E-05  0.2418E-05  0.9469E-06  0.9444E-06  0.2424E-05  0.2418E-05  0.1126E-05  0.1123E-05
     -3.684  0.1122E-01  0.1121E-01  0.1777E-03  0.1776E-03  0.1777E-03  0.1776E-03  0.1777E-03  0.1775E-03  0.3976E-05  0.3967E-05  0.3976E-05  0.3967E-05  0.1384E-05  0.1381E-05  0.3976E-05  0.3967E-05  0.1634E-05  0.1630E-05
     -3.636  0.1174E-01  0.1174E-01  0.2153E-03  0.2152E-03  0.2153E-03  0.2152E-03  0.2153E-03  0.2152E-03  0.5734E-05  0.5723E-05  0.5735E-05  0.5723E-05  0.1807E-05  0.1803E-05  0.5734E-05  0.5723E-05  0.2097E-05  0.2092E-05
     -3.588  0.1167E-01  0.1167E-01  0.2559E-03  0.2557E-03  0.2559E-03  0.2557E-03  0.2558E-03  0.2556E-03  0.7988E-05  0.7971E-05  0.7989E-05  0.7973E-05  0.2542E-05  0.2534E-05  0.7988E-05  0.7971E-05  0.2905E-05  0.2896E-05
     -3.540  0.1273E-01  0.1271E-01  0.3316E-03  0.3313E-03  0.3316E-03  0.3313E-03  0.3314E-03  0.3310E-03  0.1131E-04  0.1129E-04  0.1131E-04  0.1129E-04  0.3996E-05  0.3983E-05  0.1131E-04  0.1129E-04  0.4608E-05  0.4591E-05
     -3.492  0.1455E-01  0.1454E-01  0.4282E-03  0.4279E-03  0.4282E-03  0.4279E-03  0.4279E-03  0.4276E-03  0.1514E-04  0.1511E-04  0.1514E-04  0.1511E-04  0.5999E-05  0.5981E-05  0.1514E-04  0.1511E-04  0.7078E-05  0.7054E-05
     -3.444  0.1547E-01  0.1546E-01  0.5015E-03  0.5012E-03  0.5015E-03  0.5012E-03  0.5013E-03  0.5011E-03  0.1902E-04  0.1899E-04  0.1903E-04  0.1899E-04  0.7675E-05  0.7656E-05  0.1902E-04  0.1899E-04  0.9189E-05  0.9164E-05
     -3.396  0.1533E-01  0.1533E-01  0.5487E-03  0.5485E-03  0.5487E-03  0.5485E-03  0.5487E-03  0.5485E-03  0.2448E-04  0.2443E-04  0.2448E-04  0.2444E-04  0.8453E-05  0.8435E-05  0.2448E-04  0.2443E-04  0.1005E-04  0.1003E-04
     -3.348  0.1536E-01  0.1535E-01  0.6104E-03  0.6100E-03  0.6104E-03  0.6100E-03  0.6103E-03  0.6099E-03  0.3272E-04  0.3266E-04  0.3273E-04  0.3267E-04  0.9138E-05  0.9118E-05  0.3272E-04  0.3266E-04  0.1058E-04  0.1055E-04
     -3.300  0.1595E-01  0.1594E-01  0.6959E-03  0.6955E-03  0.6959E-03  0.6955E-03  0.6956E-03  0.6952E-03  0.4174E-04  0.4168E-04  0.4174E-04  0.4168E-04  0.1063E-04  0.1061E-04  0.4174E-04  0.4168E-04  0.1211E-04  0.1209E-04
     -3.252  0.1579E-01  0.1578E-01  0.7508E-03  0.7505E-03  0.7508E-03  0.7505E-03  0.7503E-03  0.7501E-03  0.4671E-04  0.4666E-04  0.4670E-04  0.4665E-04  0.1280E-04  0.1277E-04  0.4671E-04  0.4666E-04  0.1480E-04  0.1476E-04
     -3.204  0.1520E-01  0.1519E-01  0.8050E-03  0.8045E-03  0.8050E-03  0.8045E-03  0.8041E-03  0.8037E-03  0.4992E-04  0.4986E-04  0.4992E-04  0.4986E-04  0.1646E-04  0.1642E-04  0.4992E-04  0.4986E-04  0.1958E-04  0.1953E-04
     -3.156  0.1636E-01  0.1635E-01  0.9642E-03  0.9634E-03  0.9642E-03  0.9634E-03  0.9631E-03  0.9622E-03  0.6118E-04  0.6108E-04  0.6121E-04  0.6111E-04  0.2251E-04  0.2246E-04  0.6118E-04  0.6108E-04  0.2706E-04  0.2700E-04
     -3.108  0.1843E-01  0.1842E-01  0.1166E-02  0.1165E-02  0.1166E-02  0.1165E-02  0.1165E-02  0.1164E-02  0.7959E-04  0.7947E-04  0.7964E-04  0.7952E-04  0.2833E-04  0.2827E-04  0.7959E-04  0.7947E-04  0.3371E-04  0.3364E-04
     -3.060  0.1919E-01  0.1918E-01  0.1285E-02  0.1284E-02  0.1285E-02  0.1284E-02  0.1285E-02  0.1284E-02  0.9735E-04  0.9722E-04  0.9739E-04  0.9725E-04  0.3113E-04  0.3109E-04  0.9735E-04  0.9722E-04  0.3631E-04  0.3626E-04
     -3.011  0.1888E-01  0.1887E-01  0.1345E-02  0.1344E-02  0.1345E-02  0.1344E-02  0.1345E-02  0.1344E-02  0.1134E-03  0.1133E-03  0.1134E-03  0.1133E-03  0.3220E-04  0.3216E-04  0.1134E-03  0.1133E-03  0.3711E-04  0.3706E-04
     -2.963  0.1824E-01  0.1823E-01  0.1381E-02  0.1380E-02  0.1381E-02  0.1380E-02  0.1381E-02  0.1380E-02  0.1282E-03  0.1281E-03  0.1282E-03  0.1280E-03  0.3234E-04  0.3231E-04  0.1282E-03  0.1281E-03  0.3734E-04  0.3730E-04
     -2.915  0.1679E-01  0.1678E-01  0.1351E-02  0.1351E-02  0.1351E-02  0.1351E-02  0.1352E-02  0.1351E-02  0.1379E-03  0.1378E-03  0.1379E-03  0.1377E-03  0.3052E-04  0.3049E-04  0.1379E-03  0.1378E-03  0.3540E-04  0.3537E-04
     -2.867  0.1519E-01  0.1519E-01  0.1334E-02  0.1334E-02  0.1334E-02  0.1334E-02  0.1333E-02  0.1333E-02  0.1456E-03  0.1454E-03  0.1456E-03  0.1455E-03  0.3086E-04  0.3082E-04  0.1456E-03  0.1454E-03  0.3595E-04  0.3590E-04
     -2.819  0.1561E-01  0.1559E-01  0.1532E-02  0.1531E-02  0.1532E-02  0.1531E-02  0.1529E-02  0.1528E-02  0.1683E-03  0.1680E-03  0.1684E-03  0.1682E-03  0.3994E-04  0.3986E-04  0.1683E-03  0.1680E-03  0.4671E-04  0.4661E-04
     -2.771  0.1808E-01  0.1806E-01  0.1942E-02  0.1941E-02  0.1942E-02  0.1941E-02  0.1938E-02  0.1937E-02  0.2090E-03  0.2087E-03  0.2092E-03  0.2089E-03  0.5638E-04  0.5627E-04  0.2090E-03  0.2087E-03  0.6604E-04  0.6592E-04
     -2.723  0.2002E-01  0.2000E-01  0.2289E-02  0.2287E-02  0.2289E-02  0.2287E-02  0.2286E-02  0.2285E-02  0.2469E-03  0.2466E-03  0.2469E-03  0.2466E-03  0.6971E-04  0.6961E-04  0.2469E-03  0.2466E-03  0.8203E-04  0.8191E-04
     -2.675  0.1972E-01  0.1971E-01  0.2383E-02  0.2382E-02  0.2383E-02  0.2382E-02  0.2383E-02  0.2382E-02  0.2701E-03  0.2698E-03  0.2701E-03  0.2698E-03  0.7263E-04  0.7255E-04  0.2701E-03  0.2698E-03  0.8610E-04  0.8601E-04
     -2.627  0.1886E-01  0.1885E-01  0.2423E-02  0.2422E-02  0.2423E-02  0.2422E-02  0.2423E-02  0.2422E-02  0.3001E-03  0.2997E-03  0.3001E-03  0.2998E-03  0.7198E-04  0.7190E-04  0.3001E-03  0.2997E-03  0.8573E-04  0.8563E-04
     -2.579  0.1835E-01  0.1834E-01  0.2498E-02  0.2498E-02  0.2498E-02  0.2498E-02  0.2498E-02  0.2497E-02  0.3334E-03  0.3331E-03  0.3335E-03  0.3331E-03  0.7288E-04  0.7281E-04  0.3334E-03  0.3331E-03  0.8663E-04  0.8654E-04
     -2.531  0.1649E-01  0.1649E-01  0.2389E-02  0.2389E-02  0.2389E-02  0.2389E-02  0.2390E-02  0.2390E-02  0.3396E-03  0.3393E-03  0.3396E-03  0.3393E-03  0.6909E-04  0.6904E-04  0.3396E-03  0.3393E-03  0.8116E-04  0.8110E-04
     -2.483  0.1463E-01  0.1462E-01  0.2323E-02  0.2322E-02  0.2323E-02  0.2322E-02  0.2321E-02  0.2320E-02  0.3611E-03  0.3606E-03  0.3614E-03  0.3609E-03  0.6446E-04  0.6440E-04  0.3611E-03  0.3606E-03  0.7374E-04  0.7367E-04
     -2.435  0.1525E-01  0.1524E-01  0.2722E-02  0.2720E-02  0.2722E-02  0.2720E-02  0.2714E-02  0.2712E-02  0.4512E-03  0.4505E-03  0.4517E-03  0.4510E-03  0.7019E-04  0.7009E-04  0.4512E-03  0.4505E-03  0.7855E-04  0.7845E-04
     -2.387  0.1720E-01  0.1719E-01  0.3457E-02  0.3455E-02  0.3457E-02  0.3455E-02  0.3446E-02  0.3444E-02  0.5696E-03  0.5689E-03  0.5700E-03  0.5693E-03  0.8338E-04  0.8327E-04  0.5696E-03  0.5689E-03  0.9350E-04  0.9337E-04
     -2.339  0.1775E-01  0.1774E-01  0.4039E-02  0.4037E-02  0.4039E-02  0.4037E-02  0.4030E-02  0.4029E-02  0.6396E-03  0.6389E-03  0.6395E-03  0.6389E-03  0.9211E-04  0.9200E-04  0.6396E-03  0.6389E-03  0.1046E-03  0.1045E-03
     -2.291  0.1616E-01  0.1615E-01  0.4171E-02  0.4170E-02  0.4171E-02  0.4170E-02  0.4169E-02  0.4167E-02  0.6483E-03  0.6477E-03  0.6481E-03  0.6476E-03  0.9000E-04  0.8991E-04  0.6483E-03  0.6477E-03  0.1034E-03  0.1033E-03
     -2.243  0.1398E-01  0.1398E-01  0.4085E-02  0.4084E-02  0.4085E-02  0.4084E-02  0.4084E-02  0.4082E-02  0.6574E-03  0.6568E-03  0.6576E-03  0.6570E-03  0.8344E-04  0.8335E-04  0.6574E-03  0.6568E-03  0.9683E-04  0.9672E-04
     -2.195  0.1245E-01  0.1244E-01  0.4086E-02  0.4085E-02  0.4086E-02  0.4085E-02  0.4085E-02  0.4083E-02  0.7032E-03  0.7024E-03  0.7036E-03  0.7029E-03  0.8011E-04  0.8002E-04  0.7032E-03  0.7024E-03  0.9336E-04  0.9325E-04