   4   4   1   0
  0.1435613E+02  0.3857430E-09  0.3858333E-09  0.3858333E-09  0.5000000E-15
  1.000000000000000E-004
  CAR 
 unknown system                          
     15.38309158     -3.80189977  301      8.35881270      1.00000000
     -3.802  0.0000E+00  0.0000E+00  0.0000E+00  0.0000E+00
     -3.738  0.0000E+00  0.0000E+00  0.0000E+00  0.0000E+00
     -3.674  0.0000E+00  0.0000E+00  0.0000E+00  0.0000E+00
     -3.610  0.0000E+00  0.0000E+00  0.0000E+00  0.0000E+00
     -3.546  0.0000E+00  0.0000E+00  0.0000E+00  0.0000E+00
     -3.482  0.0000E+00  0.0000E+00  0.0000E+00  0.0000E+00
     -3.418  0.0000E+00  0.0000E+00  0.0000E+00  0.0000E+00
     -3.354  0.1466E-05  0.1423E-05  0.9372E-07  0.9097E-07
     -3.290  0.1323E-04  0.1285E-04  0.9400E-06  0.9125E-06
     -3.226  0.5838E-04  0.5667E-04  0.4674E-05  0.4537E-05
     -3.162  0.2034E-03  0.1975E-03  0.1768E-04  0.1716E-04
     -3.098  0.7192E-03  0.6984E-03  0.6367E-04  0.6183E-04
     -3.035  0.2518E-02  0.2449E-02  0.2247E-03  0.2184E-03
     -2.971  0.7988E-02  0.7789E-02  0.7355E-03  0.7165E-03
     -2.907  0.2105E-01  0.2064E-01  0.2082E-02  0.2036E-02
     -2.843  0.4202E-01  0.4150E-01  0.4769E-02  0.4690E-02
     -2.779  0.6169E-01  0.6132E-01  0.8714E-02  0.8612E-02
     -2.715  0.7571E-01  0.7536E-01  0.1356E-01  0.1343E-01
     -2.651  0.9713E-01  0.9651E-01  0.1977E-01  0.1960E-01
     -2.587  0.1193E+00  0.1191E+00  0.2740E-01  0.2722E-01
     -2.523  0.1157E+00  0.1160E+00  0.3480E-01  0.3464E-01
     -2.459  0.1112E+00  0.1110E+00  0.4191E-01  0.4174E-01
     -2.395  0.1388E+00  0.1379E+00  0.5079E-01  0.5056E-01
     -2.331  0.1661E+00  0.1657E+00  0.6142E-01  0.6116E-01
     -2.267  0.1671E+00  0.1673E+00  0.7211E-01  0.7187E-01
     -2.203  0.1607E+00  0.1606E+00  0.8239E-01  0.8215E-01
     -2.139  0.1754E+00  0.1749E+00  0.9361E-01  0.9334E-01
     -2.075  0.1852E+00  0.1854E+00  0.1055E+00  0.1052E+00
     -2.011  0.1640E+00  0.1644E+00  0.1159E+00  0.1157E+00
     -1.947  0.1803E+00  0.1792E+00  0.1275E+00  0.1272E+00
     -1.883  0.2303E+00  0.2294E+00  0.1422E+00  0.1418E+00
     -1.819  0.2446E+00  0.2447E+00  0.1579E+00  0.1575E+00
     -1.756  0.2392E+00  0.2392E+00  0.1732E+00  0.1728E+00
     -1.692  0.2392E+00  0.2394E+00  0.1885E+00  0.1881E+00
     -1.628  0.2144E+00  0.2153E+00  0.2022E+00  0.2019E+00
     -1.564  0.1845E+00  0.1847E+00  0.2140E+00  0.2137E+00
     -1.500  0.2166E+00  0.2151E+00  0.2279E+00  0.2275E+00
     -1.436  0.2899E+00  0.2884E+00  0.2464E+00  0.2460E+00
     -1.372  0.3198E+00  0.3200E+00  0.2669E+00  0.2664E+00
     -1.308  0.2966E+00  0.2969E+00  0.2858E+00  0.2854E+00
     -1.244  0.3070E+00  0.3065E+00  0.3055E+00  0.3050E+00
     -1.180  0.2955E+00  0.2966E+00  0.3244E+00  0.3240E+00
     -1.116  0.2394E+00  0.2402E+00  0.3397E+00  0.3394E+00
     -1.052  0.2587E+00  0.2572E+00  0.3563E+00  0.3558E+00
     -0.988  0.3431E+00  0.3413E+00  0.3782E+00  0.3777E+00
     -0.924  0.3989E+00  0.3984E+00  0.4037E+00  0.4032E+00
     -0.860  0.3876E+00  0.3886E+00  0.4285E+00  0.4280E+00
     -0.796  0.3560E+00  0.3564E+00  0.4513E+00  0.4508E+00
     -0.732  0.3536E+00  0.3535E+00  0.4739E+00  0.4734E+00
     -0.668  0.3516E+00  0.3516E+00  0.4964E+00  0.4959E+00
     -0.604  0.3745E+00  0.3734E+00  0.5204E+00  0.5198E+00
     -0.540  0.4210E+00  0.4203E+00  0.5473E+00  0.5467E+00
     -0.477  0.4224E+00  0.4230E+00  0.5744E+00  0.5738E+00
     -0.413  0.3746E+00  0.3762E+00  0.5983E+00  0.5979E+00
     -0.349  0.2963E+00  0.2979E+00  0.6173E+00  0.6169E+00
     -0.285  0.2554E+00  0.2557E+00  0.6337E+00  0.6333E+00
     -0.221  0.2788E+00  0.2776E+00  0.6515E+00  0.6511E+00
     -0.157  0.3659E+00  0.3638E+00  0.6749E+00  0.6744E+00
     -0.093  0.4042E+00  0.4048E+00  0.7008E+00  0.7003E+00
     -0.029  0.3361E+00  0.3378E+00  0.7223E+00  0.7219E+00
      0.035  0.2787E+00  0.2797E+00  0.7401E+00  0.7398E+00
      0.099  0.2300E+00  0.2310E+00  0.7549E+00  0.7546E+00
      0.163  0.2298E+00  0.2284E+00  0.7696E+00  0.7692E+00
      0.227  0.3540E+00  0.3505E+00  0.7922E+00  0.7916E+00
      0.291  0.4798E+00  0.4786E+00  0.8229E+00  0.8223E+00
      0.355  0.4404E+00  0.4426E+00  0.8511E+00  0.8506E+00
      0.419  0.3607E+00  0.3615E+00  0.8742E+00  0.8737E+00
      0.483  0.3395E+00  0.3401E+00  0.8959E+00  0.8955E+00
      0.547  0.3049E+00  0.3055E+00  0.9154E+00  0.9150E+00
      0.611  0.3351E+00  0.3334E+00  0.9368E+00  0.9363E+00
      0.675  0.4209E+00  0.4195E+00  0.9638E+00  0.9632E+00
      0.739  0.4218E+00  0.4228E+00  0.9908E+00  0.9902E+00
      0.802  0.3457E+00  0.3477E+00  0.1013E+01  0.1012E+01
      0.866  0.2705E+00  0.2714E+00  0.1030E+01  0.1030E+01
      0.930  0.2828E+00  0.2814E+00  0.1048E+01  0.1048E+01
      0.994  0.3607E+00  0.3590E+00  0.1071E+01  0.1071E+01
      1.058  0.4332E+00  0.4319E+00  0.1099E+01  0.1098E+01
      1.122  0.4764E+00  0.4758E+00  0.1130E+01  0.1129E+01
      1.186  0.4635E+00  0.4645E+00  0.1159E+01  0.1159E+01
      1.250  0.3780E+00  0.3801E+00  0.1183E+01  0.1183E+01
      1.314  0.3277E+00  0.3278E+00  0.1204E+01  0.1204E+01
      1.378  0.3488E+00  0.3482E+00  0.1227E+01  0.1226E+01
      1.442  0.3773E+00  0.3769E+00  0.1251E+01  0.1250E+01
      1.506  0.3874E+00  0.3871E+00  0.1276E+01  0.1275E+01
      1.570  0.4215E+00  0.4201E+00  0.1303E+01  0.1302E+01
      1.634  0.4436E+00  0.4442E+00  0.1331E+01  0.1330E+01
      1.698  0.3859E+00  0.3869E+00  0.1356E+01  0.1355E+01
      1.762  0.4082E+00  0.4065E+00  0.1382E+01  0.1381E+01
      1.826  0.4883E+00  0.4871E+00  0.1413E+01  0.1412E+01
      1.890  0.5321E+00  0.5314E+00  0.1447E+01  0.1446E+01
      1.954  0.5754E+00  0.5743E+00  0.1484E+01  0.1483E+01
      2.018  0.6064E+00  0.6061E+00  0.1523E+01  0.1522E+01
      2.081  0.5834E+00  0.5843E+00  0.1560E+01  0.1559E+01
      2.145  0.5696E+00  0.5690E+00  0.1596E+01  0.1596E+01
      2.209  0.6299E+00  0.6285E+00  0.1637E+01  0.1636E+01
      2.273  0.6601E+00  0.6603E+00  0.1679E+01  0.1678E+01
      2.337  0.6217E+00  0.6233E+00  0.1719E+01  0.1718E+01
      2.401  0.5410E+00  0.5429E+00  0.1753E+01  0.1753E+01
      2.465  0.4717E+00  0.4726E+00  0.1784E+01  0.1783E+01
      2.529  0.5072E+00  0.5049E+00  0.1816E+01  0.1815E+01
      2.593  0.6615E+00  0.6585E+00  0.1858E+01  0.1857E+01
      2.657  0.7093E+00  0.7104E+00  0.1904E+01  0.1903E+01
      2.721  0.6199E+00  0.6217E+00  0.1943E+01  0.1943E+01
      2.785  0.5713E+00  0.5719E+00  0.1980E+01  0.1979E+01
      2.849  0.5762E+00  0.5756E+00  0.2017E+01  0.2016E+01
      2.913  0.6565E+00  0.6545E+00  0.2059E+01  0.2058E+01
      2.977  0.7207E+00  0.7207E+00  0.2105E+01  0.2104E+01
      3.041  0.6695E+00  0.6711E+00  0.2148E+01  0.2147E+01
      3.105  0.6182E+00  0.6188E+00  0.2187E+01  0.2187E+01
      3.169  0.5922E+00  0.5932E+00  0.2225E+01  0.2225E+01
      3.233  0.5469E+00  0.5472E+00  0.2260E+01  0.2260E+01
      3.297  0.5739E+00  0.5727E+00  0.2297E+01  0.2296E+01
      3.360  0.6094E+00  0.6092E+00  0.2336E+01  0.2335E+01
      3.424  0.5981E+00  0.5985E+00  0.2374E+01  0.2374E+01
      3.488  0.5658E+00  0.5669E+00  0.2410E+01  0.2410E+01
      3.552  0.5122E+00  0.5131E+00  0.2443E+01  0.2443E+01
      3.616  0.5041E+00  0.5042E+00  0.2476E+01  0.2475E+01
      3.680  0.4912E+00  0.4917E+00  0.2507E+01  0.2506E+01
      3.744  0.4793E+00  0.4785E+00  0.2538E+01  0.2537E+01
      3.808  0.5446E+00  0.5430E+00  0.2572E+01  0.2572E+01
      3.872  0.5983E+00  0.5977E+00  0.2611E+01  0.2610E+01
      3.936  0.6268E+00  0.6265E+00  0.2651E+01  0.2650E+01
      4.000  0.6521E+00  0.6514E+00  0.2693E+01  0.2692E+01
      4.064  0.7391E+00  0.7366E+00  0.2740E+01  0.2739E+01
      4.128  0.8746E+00  0.8734E+00  0.2796E+01  0.2795E+01
      4.192  0.8355E+00  0.8385E+00  0.2849E+01  0.2848E+01
      4.256  0.6642E+00  0.6672E+00  0.2892E+01  0.2891E+01
      4.320  0.5616E+00  0.5624E+00  0.2928E+01  0.2927E+01
      4.384  0.5510E+00  0.5506E+00  0.2963E+01  0.2962E+01
      4.448  0.5748E+00  0.5740E+00  0.3000E+01  0.2999E+01
      4.512  0.6561E+00  0.6538E+00  0.3042E+01  0.3041E+01
      4.576  0.8302E+00  0.8272E+00  0.3095E+01  0.3094E+01
      4.639  0.9568E+00  0.9564E+00  0.3156E+01  0.3155E+01
      4.703  0.9019E+00  0.9043E+00  0.3214E+01  0.3213E+01
      4.767  0.7782E+00  0.7797E+00  0.3264E+01  0.3263E+01
      4.831  0.8136E+00  0.8115E+00  0.3316E+01  0.3315E+01
      4.895  0.9944E+00  0.9919E+00  0.3379E+01  0.3378E+01
      4.959  0.1072E+01  0.1073E+01  0.3448E+01  0.3447E+01
      5.023  0.9827E+00  0.9851E+00  0.3511E+01  0.3510E+01
      5.087  0.8717E+00  0.8730E+00  0.3567E+01  0.3566E+01
      5.151  0.8753E+00  0.8752E+00  0.3623E+01  0.3622E+01
      5.215  0.9227E+00  0.9224E+00  0.3682E+01  0.3681E+01
      5.279  0.9907E+00  0.9899E+00  0.3745E+01  0.3744E+01
      5.343  0.1038E+01  0.1038E+01  0.3811E+01  0.3811E+01
      5.407  0.1077E+01  0.1076E+01  0.3880E+01  0.3879E+01
      5.471  0.1120E+01  0.1120E+01  0.3952E+01  0.3951E+01
      5.535  0.1167E+01  0.1168E+01  0.4027E+01  0.4026E+01
      5.599  0.1271E+01  0.1271E+01  0.4108E+01  0.4107E+01
      5.663  0.1367E+01  0.1368E+01  0.4195E+01  0.4195E+01
      5.727  0.1202E+01  0.1206E+01  0.4272E+01  0.4272E+01
      5.791  0.8991E+00  0.9027E+00  0.4330E+01  0.4329E+01
      5.855  0.8255E+00  0.8261E+00  0.4383E+01  0.4382E+01
      5.918  0.1058E+01  0.1056E+01  0.4450E+01  0.4450E+01
      5.982  0.1484E+01  0.1480E+01  0.4545E+01  0.4545E+01
      6.046  0.1860E+01  0.1858E+01  0.4664E+01  0.4663E+01
      6.110  0.1916E+01  0.1917E+01  0.4787E+01  0.4786E+01
      6.174  0.1579E+01  0.1583E+01  0.4888E+01  0.4887E+01
      6.238  0.1168E+01  0.1172E+01  0.4963E+01  0.4962E+01
      6.302  0.9829E+00  0.9851E+00  0.5026E+01  0.5025E+01
      6.366  0.8705E+00  0.8714E+00  0.5081E+01  0.5081E+01
      6.430  0.7875E+00  0.7881E+00  0.5132E+01  0.5132E+01
      6.494  0.8489E+00  0.8497E+00  0.5186E+01  0.5186E+01
      6.558  0.9626E+00  0.9632E+00  0.5248E+01  0.5248E+01
      6.622  0.8975E+00  0.8977E+00  0.5305E+01  0.5305E+01
      6.686  0.7787E+00  0.7789E+00  0.5355E+01  0.5355E+01
      6.750  0.7172E+00  0.7176E+00  0.5401E+01  0.5401E+01
      6.814  0.6676E+00  0.6683E+00  0.5444E+01  0.5444E+01
      6.878  0.6439E+00  0.6446E+00  0.5485E+01  0.5485E+01
      6.942  0.6638E+00  0.6647E+00  0.5527E+01  0.5528E+01
      7.006  0.7039E+00  0.7046E+00  0.5573E+01  0.5573E+01
      7.070  0.7277E+00  0.7282E+00  0.5619E+01  0.5619E+01
      7.134  0.7265E+00  0.7264E+00  0.5666E+01  0.5666E+01
      7.197  0.7150E+00  0.7149E+00  0.5711E+01  0.5712E+01
      7.261  0.7502E+00  0.7510E+00  0.5759E+01  0.5760E+01
      7.325  0.7058E+00  0.7061E+00  0.5804E+01  0.5805E+01
      7.389  0.5541E+00  0.5538E+00  0.5840E+01  0.5840E+01
      7.453  0.4994E+00  0.4993E+00  0.5872E+01  0.5872E+01
      7.517  0.5939E+00  0.5947E+00  0.5910E+01  0.5910E+01
      7.581  0.7489E+00  0.7503E+00  0.5958E+01  0.5958E+01
      7.645  0.8366E+00  0.8364E+00  0.6011E+01  0.6012E+01
      7.709  0.7318E+00  0.7298E+00  0.6058E+01  0.6058E+01
      7.773  0.4828E+00  0.4814E+00  0.6089E+01  0.6089E+01
      7.837  0.3111E+00  0.3116E+00  0.6109E+01  0.6109E+01
      7.901  0.3662E+00  0.3682E+00  0.6132E+01  0.6133E+01
      7.965  0.5434E+00  0.5447E+00  0.6167E+01  0.6168E+01
      8.029  0.6544E+00  0.6546E+00  0.6209E+01  0.6210E+01
      8.093  0.6991E+00  0.6993E+00  0.6254E+01  0.6254E+01
      8.157  0.7219E+00  0.7228E+00  0.6300E+01  0.6301E+01
      8.221  0.8031E+00  0.8057E+00  0.6351E+01  0.6352E+01
      8.285  0.9764E+00  0.9794E+00  0.6414E+01  0.6415E+01
      8.349  0.1148E+01  0.1149E+01  0.6487E+01  0.6488E+01
      8.413  0.1186E+01  0.1186E+01  0.6563E+01  0.6564E+01
      8.476  0.1121E+01  0.1121E+01  0.6635E+01  0.6636E+01
      8.540  0.1139E+01  0.1141E+01  0.6708E+01  0.6709E+01
      8.604  0.1316E+01  0.1319E+01  0.6792E+01  0.6793E+01
      8.668  0.1434E+01  0.1434E+01  0.6884E+01  0.6885E+01
      8.732  0.1350E+01  0.1349E+01  0.6970E+01  0.6971E+01
      8.796  0.1250E+01  0.1250E+01  0.7050E+01  0.7051E+01
      8.860  0.1193E+01  0.1190E+01  0.7126E+01  0.7127E+01
      8.924  0.1185E+01  0.1184E+01  0.7202E+01  0.7203E+01
      8.988  0.1215E+01  0.1217E+01  0.7280E+01  0.7281E+01
      9.052  0.1294E+01  0.1296E+01  0.7363E+01  0.7364E+01
      9.116  0.1490E+01  0.1494E+01  0.7458E+01  0.7460E+01
      9.180  0.1787E+01  0.1792E+01  0.7572E+01  0.7574E+01
      9.244  0.1977E+01  0.1982E+01  0.7699E+01  0.7701E+01
      9.308  0.2034E+01  0.2041E+01  0.7829E+01  0.7832E+01
      9.372  0.2208E+01  0.2220E+01  0.7970E+01  0.7974E+01
      9.436  0.2582E+01  0.2597E+01  0.8136E+01  0.8140E+01
      9.500  0.2886E+01  0.2895E+01  0.8320E+01  0.8325E+01
      9.564  0.2839E+01  0.2836E+01  0.8502E+01  0.8506E+01
      9.628  0.2550E+01  0.2541E+01  0.8665E+01  0.8669E+01
      9.692  0.2131E+01  0.2118E+01  0.8801E+01  0.8804E+01
      9.755  0.1600E+01  0.1584E+01  0.8904E+01  0.8906E+01
      9.819  0.1155E+01  0.1141E+01  0.8978E+01  0.8979E+01
      9.883  0.8811E+00  0.8721E+00  0.9034E+01  0.9035E+01
      9.947  0.7149E+00  0.7106E+00  0.9080E+01  0.9080E+01
     10.011  0.6803E+00  0.6792E+00  0.9124E+01  0.9124E+01
     10.075  0.7579E+00  0.7575E+00  0.9172E+01  0.9173E+01
     10.139  0.8648E+00  0.8644E+00  0.9227E+01  0.9228E+01
     10.203  0.1008E+01  0.1008E+01  0.9292E+01  0.9292E+01
     10.267  0.1087E+01  0.1087E+01  0.9362E+01  0.9362E+01
     10.331  0.1033E+01  0.1033E+01  0.9428E+01  0.9428E+01
     10.395  0.9848E+00  0.9843E+00  0.9491E+01  0.9491E+01
     10.459  0.9601E+00  0.9596E+00  0.9552E+01  0.9552E+01
     10.523  0.9269E+00  0.9266E+00  0.9611E+01  0.9612E+01
     10.587  0.9054E+00  0.9053E+00  0.9669E+01  0.9670E+01
     10.651  0.1025E+01  0.1026E+01  0.9735E+01  0.9735E+01
     10.715  0.1170E+01  0.1172E+01  0.9810E+01  0.9810E+01
     10.779  0.1127E+01  0.1128E+01  0.9882E+01  0.9882E+01
     10.843  0.9767E+00  0.9764E+00  0.9944E+01  0.9945E+01
     10.907  0.8352E+00  0.8341E+00  0.9998E+01  0.9998E+01
     10.971  0.7732E+00  0.7732E+00  0.1005E+02  0.1005E+02
     11.034  0.8903E+00  0.8928E+00  0.1010E+02  0.1010E+02
     11.098  0.1066E+01  0.1070E+01  0.1017E+02  0.1017E+02
     11.162  0.1086E+01  0.1091E+01  0.1024E+02  0.1024E+02
     11.226  0.1070E+01  0.1077E+01  0.1031E+02  0.1031E+02
     11.290  0.1236E+01  0.1243E+01  0.1039E+02  0.1039E+02
     11.354  0.1517E+01  0.1523E+01  0.1049E+02  0.1049E+02
     11.418  0.1556E+01  0.1558E+01  0.1059E+02  0.1059E+02
     11.482  0.1283E+01  0.1285E+01  0.1067E+02  0.1067E+02
     11.546  0.1140E+01  0.1146E+01  0.1074E+02  0.1074E+02
     11.610  0.1340E+01  0.1355E+01  0.1083E+02  0.1083E+02
     11.674  0.1685E+01  0.1697E+01  0.1093E+02  0.1094E+02
     11.738  0.1770E+01  0.1771E+01  0.1105E+02  0.1105E+02
     11.802  0.1656E+01  0.1664E+01  0.1115E+02  0.1116E+02
     11.866  0.1519E+01  0.1521E+01  0.1125E+02  0.1126E+02
     11.930  0.1371E+01  0.1349E+01  0.1134E+02  0.1134E+02
     11.994  0.1251E+01  0.1220E+01  0.1142E+02  0.1142E+02
     12.058  0.1198E+01  0.1190E+01  0.1150E+02  0.1150E+02
     12.122  0.1099E+01  0.1122E+01  0.1157E+02  0.1157E+02
     12.186  0.8621E+00  0.8942E+00  0.1162E+02  0.1163E+02
     12.250  0.6559E+00  0.6851E+00  0.1166E+02  0.1167E+02
     12.313  0.5357E+00  0.5651E+00  0.1170E+02  0.1171E+02
     12.377  0.4255E+00  0.4492E+00  0.1172E+02  0.1174E+02
     12.441  0.3540E+00  0.3643E+00  0.1175E+02  0.1176E+02
     12.505  0.3705E+00  0.3619E+00  0.1177E+02  0.1178E+02
     12.569  0.4283E+00  0.3987E+00  0.1180E+02  0.1181E+02
     12.633  0.4212E+00  0.3908E+00  0.1183E+02  0.1183E+02
     12.697  0.4001E+00  0.3844E+00  0.1185E+02  0.1186E+02
     12.761  0.3895E+00  0.3814E+00  0.1188E+02  0.1188E+02
     12.825  0.3481E+00  0.3258E+00  0.1190E+02  0.1190E+02
     12.889  0.2599E+00  0.2308E+00  0.1192E+02  0.1192E+02
     12.953  0.1681E+00  0.1568E+00  0.1193E+02  0.1193E+02
     13.017  0.1531E+00  0.1621E+00  0.1194E+02  0.1194E+02
     13.081  0.1911E+00  0.2139E+00  0.1195E+02  0.1195E+02
     13.145  0.2166E+00  0.2382E+00  0.1196E+02  0.1197E+02
     13.209  0.2064E+00  0.2103E+00  0.1197E+02  0.1198E+02
     13.273  0.1556E+00  0.1457E+00  0.1198E+02  0.1199E+02
     13.337  0.8668E-01  0.7680E-01  0.1199E+02  0.1199E+02
     13.401  0.3766E-01  0.3312E-01  0.1199E+02  0.1200E+02
     13.465  0.1318E-01  0.1177E-01  0.1199E+02  0.1200E+02
     13.529  0.3877E-02  0.3791E-02  0.1199E+02  0.1200E+02
     13.592  0.9085E-03  0.2173E-02  0.1199E+02  0.1200E+02
     13.656  0.1928E-03  0.4130E-02  0.1199E+02  0.1200E+02
     13.720  0.2071E-03  0.8168E-02  0.1199E+02  0.1200E+02
     13.784  0.5855E-03  0.9202E-02  0.1199E+02  0.1200E+02
     13.848  0.1963E-02  0.7017E-02  0.1199E+02  0.1200E+02
     13.912  0.5657E-02  0.5879E-02  0.1199E+02  0.1200E+02
     13.976  0.1129E-01  0.4035E-02  0.1200E+02  0.1200E+02
     14.040  0.1236E-01  0.1744E-02  0.1200E+02  0.1200E+02
     14.104  0.7278E-02  0.5663E-03  0.1200E+02  0.1200E+02
     14.168  0.3472E-02  0.1547E-03  0.1200E+02  0.1200E+02
     14.232  0.3601E-02  0.4366E-04  0.1200E+02  0.1200E+02
     14.296  0.7309E-02  0.0000E+00  0.1200E+02  0.1200E+02
     14.360  0.1130E-01  0.0000E+00  0.1200E+02  0.1200E+02
     14.424  0.1097E-01  0.0000E+00  0.1200E+02  0.1200E+02
     14.488  0.8104E-02  0.0000E+00  0.1200E+02  0.1200E+02
     14.552  0.4931E-02  0.0000E+00  0.1200E+02  0.1200E+02
     14.616  0.2303E-02  0.0000E+00  0.1200E+02  0.1200E+02
     14.680  0.8082E-03  0.0000E+00  0.1200E+02  0.1200E+02
     14.744  0.2253E-03  0.0000E+00  0.1200E+02  0.1200E+02
     14.808  0.6427E-04  0.0000E+00  0.1200E+02  0.1200E+02
     14.871  0.1361E-04  0.0000E+00  0.1200E+02  0.1200E+02
     14.935  0.0000E+00  0.0000E+00  0.1200E+02  0.1200E+02
     14.999  0.0000E+00  0.0000E+00  0.1200E+02  0.1200E+02
     15.063  0.0000E+00  0.0000E+00  0.1200E+02  0.1200E+02
     15.127  0.0000E+00  0.0000E+00  0.1200E+02  0.1200E+02
     15.191  0.0000E+00  0.0000E+00  0.1200E+02  0.1200E+02
     15.255  0.0000E+00  0.0000E+00  0.1200E+02  0.1200E+02
     15.319  0.0000E+00  0.0000E+00  0.1200E+02  0.1200E+02
     15.383  0.0000E+00  0.0000E+00  0.1200E+02  0.1200E+02
     15.38309158     -3.80189977  301      8.35881270      1.00000000
     -3.802  0.0000E+00  0.0000E+00  0.0000E+00  0.0000E+00  0.0000E+00  0.0000E+00  0.0000E+00  0.0000E+00  0.0000E+00  0.0000E+00  0.0000E+00  0.0000E+00  0.0000E+00  0.0000E+00  0.0000E+00  0.0000E+00  0.0000E+00  0.0000E+00
     -3.738  0.0000E+00  0.0000E+00  0.0000E+00  0.0000E+00  0.0000E+00  0.0000E+00  0.0000E+00  0.0000E+00  0.0000E+00  0.0000E+00  0.0000E+00  0.0000E+00  0.0000E+00  0.0000E+00  0.0000E+00  0.0000E+00  0.0000E+00  0.0000E+00
     -3.674  0.0000E+00  0.0000E+00  0.0000E+00  0.0000E+00  0.0000E+00  0.0000E+00  0.0000E+00  0.0000E+00  0.0000E+00  0.0000E+00  0.0000E+00  0.0000E+00  0.0000E+00  0.0000E+00  0.0000E+00  0.0000E+00  0.0000E+00  0.0000E+00
     -3.610  0.0000E+00  0.0000E+00  0.0000E+00  0.0000E+00  0.0000E+00  0.0000E+00  0.0000E+00  0.0000E+00  0.0000E+00  0.0000E+00  0.0000E+00  0.0000E+00  0.0000E+00  0.0000E+00  0.0000E+00  0.0000E+00  0.0000E+00  0.0000E+00
     -3.546  0.0000E+00  0.0000E+00  0.0000E+00  0.0000E+00  0.0000E+00  0.0000E+00  0.0000E+00  0.0000E+00  0.0000E+00  0.0000E+00  0.0000E+00  0.0000E+00  0.0000E+00  0.0000E+00  0.0000E+00  0.0000E+00  0.0000E+00  0.0000E+00
     -3.482  0.0000E+00  0.0000E+00  0.0000E+00  0.0000E+00  0.0000E+00  0.0000E+00  0.0000E+00  0.0000E+00  0.0000E+00  0.0000E+00  0.0000E+00  0.0000E+00  0.0000E+00  0.0000E+00  0.0000E+00  0.0000E+00  0.0000E+00  0.0000E+00
     -3.418  0.0000E+00  0.0000E+00  0.0000E+00  0.0000E+00  0.0000E+00  0.0000E+00  0.0000E+00  0.0000E+00  0.0000E+00  0.0000E+00  0.0000E+00  0.0000E+00  0.0000E+00  0.0000E+00  0.0000E+00  0.0000E+00  0.0000E+00  0.0000E+00
     -3.354  0.2077E-06  0.2016E-06  0.6593E-21  0.3315E-21  0.6593E-21  0.3315E-21  0.2028E-20  0.5668E-22  0.7025E-22  0.7397E-22  0.4354E-22  0.1159E-21  0.2113E-15  0.2037E-15  0.7025E-22  0.7397E-22  0.2714E-15  0.2609E-15
     -3.290  0.1857E-05  0.1802E-05  0.4021E-08  0.3903E-08  0.4021E-08  0.3903E-08  0.4019E-08  0.3901E-08  0.1808E-18  0.9084E-20  0.1583E-18  0.2537E-19  0.1680E-10  0.1630E-10  0.1808E-18  0.9084E-20  0.2150E-10  0.2086E-10
     -3.226  0.8145E-05  0.7906E-05  0.2762E-07  0.2681E-07  0.2762E-07  0.2681E-07  0.2761E-07  0.2680E-07  0.1693E-09  0.1644E-09  0.1694E-09  0.1644E-09  0.8967E-10  0.8700E-10  0.1693E-09  0.1644E-09  0.9144E-10  0.8871E-10
     -3.162  0.2835E-04  0.2753E-04  0.1004E-06  0.9743E-07  0.1004E-06  0.9743E-07  0.1003E-06  0.9740E-07  0.8043E-09  0.7810E-09  0.8044E-09  0.7810E-09  0.2755E-09  0.2673E-09  0.8043E-09  0.7810E-09  0.2922E-09  0.2835E-09
     -3.098  0.1002E-03  0.9734E-04  0.3606E-06  0.3501E-06  0.3606E-06  0.3501E-06  0.3605E-06  0.3500E-06  0.2519E-08  0.2446E-08  0.2519E-08  0.2446E-08  0.1313E-08  0.1274E-08  0.2519E-08  0.2446E-08  0.1466E-08  0.1422E-08
     -3.035  0.3505E-03  0.3408E-03  0.1362E-05  0.1323E-05  0.1362E-05  0.1323E-05  0.1362E-05  0.1323E-05  0.1075E-07  0.1044E-07  0.1075E-07  0.1044E-07  0.5528E-08  0.5367E-08  0.1075E-07  0.1044E-07  0.6168E-08  0.5988E-08
     -2.971  0.1110E-02  0.1083E-02  0.4669E-05  0.4542E-05  0.4669E-05  0.4542E-05  0.4667E-05  0.4540E-05  0.4031E-07  0.3918E-07  0.4032E-07  0.3919E-07  0.1856E-07  0.1804E-07  0.4031E-07  0.3918E-07  0.2073E-07  0.2015E-07
     -2.907  0.2916E-02  0.2860E-02  0.1417E-04  0.1384E-04  0.1417E-04  0.1384E-04  0.1417E-04  0.1383E-04  0.1321E-06  0.1286E-06  0.1322E-06  0.1287E-06  0.5717E-07  0.5575E-07  0.1321E-06  0.1286E-06  0.6327E-07  0.6170E-07
     -2.843  0.5789E-02  0.5719E-02  0.3507E-04  0.3444E-04  0.3507E-04  0.3444E-04  0.3506E-04  0.3443E-04  0.3892E-06  0.3807E-06  0.3893E-06  0.3808E-06  0.1525E-06  0.1493E-06  0.3892E-06  0.3807E-06  0.1692E-06  0.1655E-06
     -2.779  0.8425E-02  0.8377E-02  0.6725E-04  0.6639E-04  0.6725E-04  0.6639E-04  0.6721E-04  0.6636E-04  0.9028E-06  0.8879E-06  0.9030E-06  0.8881E-06  0.3693E-06  0.3616E-06  0.9028E-06  0.8879E-06  0.4249E-06  0.4156E-06
     -2.715  0.1019E-01  0.1015E-01  0.1128E-03  0.1115E-03  0.1128E-03  0.1115E-03  0.1127E-03  0.1114E-03  0.1788E-05  0.1761E-05  0.1789E-05  0.1762E-05  0.8786E-06  0.8615E-06  0.1788E-05  0.1761E-05  0.1048E-05  0.1027E-05
     -2.651  0.1287E-01  0.1279E-01  0.1878E-03  0.1857E-03  0.1878E-03  0.1857E-03  0.1877E-03  0.1856E-03  0.3575E-05  0.3520E-05  0.3576E-05  0.3522E-05  0.1762E-05  0.1739E-05  0.3575E-05  0.3520E-05  0.2110E-05  0.2083E-05
     -2.587  0.1563E-01  0.1560E-01  0.2684E-03  0.2671E-03  0.2684E-03  0.2671E-03  0.2684E-03  0.2670E-03  0.6345E-05  0.6283E-05  0.6346E-05  0.6284E-05  0.2519E-05  0.2506E-05  0.6345E-05  0.6283E-05  0.2989E-05  0.2975E-05
     -2.523  0.1496E-01  0.1501E-01  0.2986E-03  0.2982E-03  0.2986E-03  0.2982E-03  0.2985E-03  0.2981E-03  0.8833E-05  0.8781E-05  0.8835E-05  0.8783E-05  0.2919E-05  0.2904E-05  0.8833E-05  0.8781E-05  0.3361E-05  0.3348E-05
     -2.459  0.1408E-01  0.1405E-01  0.3496E-03  0.3472E-03  0.3496E-03  0.3472E-03  0.3494E-03  0.3469E-03  0.1252E-04  0.1240E-04  0.1252E-04  0.1240E-04  0.4315E-05  0.4256E-05  0.1252E-04  0.1240E-04  0.4809E-05  0.4744E-05
     -2.395  0.1719E-01  0.1710E-01  0.5086E-03  0.5043E-03  0.5086E-03  0.5043E-03  0.5081E-03  0.5038E-03  0.1915E-04  0.1900E-04  0.1916E-04  0.1901E-04  0.7971E-05  0.7861E-05  0.1915E-04  0.1900E-04  0.9147E-05  0.9011E-05
     -2.331  0.2029E-01  0.2025E-01  0.6668E-03  0.6641E-03  0.6668E-03  0.6641E-03  0.6663E-03  0.6636E-03  0.2472E-04  0.2463E-04  0.2473E-04  0.2464E-04  0.1259E-04  0.1250E-04  0.2472E-04  0.2463E-04  0.1505E-04  0.1492E-04
     -2.267  0.2012E-01  0.2015E-01  0.7298E-03  0.7290E-03  0.7298E-03  0.7290E-03  0.7297E-03  0.7290E-03  0.3020E-04  0.3005E-04  0.3021E-04  0.3006E-04  0.1470E-04  0.1468E-04  0.3020E-04  0.3005E-04  0.1781E-04  0.1780E-04
     -2.203  0.1896E-01  0.1897E-01  0.7722E-03  0.7701E-03  0.7722E-03  0.7701E-03  0.7722E-03  0.7701E-03  0.4161E-04  0.4128E-04  0.4163E-04  0.4130E-04  0.1441E-04  0.1441E-04  0.4161E-04  0.4128E-04  0.1694E-04  0.1695E-04
     -2.139  0.2027E-01  0.2022E-01  0.9232E-03  0.9187E-03  0.9232E-03  0.9187E-03  0.9228E-03  0.9183E-03  0.6040E-04  0.6000E-04  0.6043E-04  0.6003E-04  0.1642E-04  0.1634E-04  0.6040E-04  0.6000E-04  0.1839E-04  0.1831E-04
     -2.075  0.2107E-01  0.2110E-01  0.1037E-02  0.1037E-02  0.1037E-02  0.1037E-02  0.1037E-02  0.1037E-02  0.7228E-04  0.7230E-04  0.7226E-04  0.7229E-04  0.1956E-04  0.1950E-04  0.7228E-04  0.7230E-04  0.2198E-04  0.2190E-04
     -2.011  0.1825E-01  0.1831E-01  0.9967E-03  0.9963E-03  0.9967E-03  0.9963E-03  0.9956E-03  0.9952E-03  0.6749E-04  0.6761E-04  0.6747E-04  0.6759E-04  0.2357E-04  0.2341E-04  0.6749E-04  0.6761E-04  0.2779E-04  0.2757E-04
     -1.947  0.1942E-01  0.1931E-01  0.1215E-02  0.1205E-02  0.1215E-02  0.1205E-02  0.1213E-02  0.1203E-02  0.8066E-04  0.8004E-04  0.8073E-04  0.8010E-04  0.3581E-04  0.3544E-04  0.8066E-04  0.8004E-04  0.4349E-04  0.4304E-04
     -1.883  0.2432E-01  0.2423E-01  0.1639E-02  0.1631E-02  0.1639E-02  0.1631E-02  0.1637E-02  0.1629E-02  0.1174E-03  0.1166E-03  0.1175E-03  0.1168E-03  0.5064E-04  0.5041E-04  0.1174E-03  0.1166E-03  0.6075E-04  0.6051E-04
     -1.819  0.2541E-01  0.2543E-01  0.1811E-02  0.1810E-02  0.1811E-02  0.1810E-02  0.1811E-02  0.1810E-02  0.1478E-03  0.1473E-03  0.1479E-03  0.1474E-03  0.5522E-04  0.5523E-04  0.1478E-03  0.1473E-03  0.6414E-04  0.6421E-04
     -1.756  0.2432E-01  0.2433E-01  0.1861E-02  0.1858E-02  0.1861E-02  0.1858E-02  0.1860E-02  0.1858E-02  0.1726E-03  0.1721E-03  0.1726E-03  0.1721E-03  0.5583E-04  0.5580E-04  0.1726E-03  0.1721E-03  0.6371E-04  0.6368E-04
     -1.692  0.2380E-01  0.2382E-01  0.1949E-02  0.1948E-02  0.1949E-02  0.1948E-02  0.1949E-02  0.1948E-02  0.2006E-03  0.2001E-03  0.2005E-03  0.2001E-03  0.5672E-04  0.5682E-04  0.2006E-03  0.2001E-03  0.6532E-04  0.6542E-04
     -1.628  0.2093E-01  0.2103E-01  0.1809E-02  0.1814E-02  0.1809E-02  0.1814E-02  0.1810E-02  0.1815E-02  0.2105E-03  0.2108E-03  0.2104E-03  0.2107E-03  0.4781E-04  0.4810E-04  0.2105E-03  0.2108E-03  0.5528E-04  0.5561E-04
     -1.564  0.1741E-01  0.1744E-01  0.1655E-02  0.1653E-02  0.1655E-02  0.1653E-02  0.1653E-02  0.1651E-02  0.2095E-03  0.2093E-03  0.2096E-03  0.2094E-03  0.4448E-04  0.4431E-04  0.2095E-03  0.2093E-03  0.5159E-04  0.5138E-04
     -1.500  0.1947E-01  0.1936E-01  0.2103E-02  0.2085E-02  0.2103E-02  0.2085E-02  0.2097E-02  0.2079E-02  0.2613E-03  0.2596E-03  0.2617E-03  0.2600E-03  0.6900E-04  0.6817E-04  0.2613E-03  0.2596E-03  0.8018E-04  0.7922E-04
     -1.436  0.2519E-01  0.2508E-01  0.2961E-02  0.2943E-02  0.2961E-02  0.2943E-02  0.2954E-02  0.2935E-02  0.3515E-03  0.3499E-03  0.3518E-03  0.3503E-03  0.1109E-03  0.1101E-03  0.3515E-03  0.3499E-03  0.1290E-03  0.1281E-03
     -1.372  0.2710E-01  0.2713E-01  0.3376E-02  0.3375E-02  0.3376E-02  0.3375E-02  0.3375E-02  0.3374E-02  0.3995E-03  0.3995E-03  0.3994E-03  0.3994E-03  0.1315E-03  0.1316E-03  0.3995E-03  0.3995E-03  0.1549E-03  0.1550E-03
     -1.308  0.2437E-01  0.2442E-01  0.3241E-02  0.3241E-02  0.3241E-02  0.3241E-02  0.3241E-02  0.3242E-02  0.4177E-03  0.4169E-03  0.4177E-03  0.4170E-03  0.1226E-03  0.1228E-03  0.4177E-03  0.4169E-03  0.1462E-03  0.1465E-03
     -1.244  0.2439E-01  0.2437E-01  0.3472E-02  0.3463E-02  0.3472E-02  0.3463E-02  0.3469E-02  0.3460E-02  0.5032E-03  0.5016E-03  0.5036E-03  0.5020E-03  0.1253E-03  0.1252E-03  0.5032E-03  0.5016E-03  0.1495E-03  0.1494E-03
     -1.180  0.2282E-01  0.2292E-01  0.3430E-02  0.3440E-02  0.3430E-02  0.3440E-02  0.3432E-02  0.3442E-02  0.5235E-03  0.5251E-03  0.5236E-03  0.5251E-03  0.1253E-03  0.1257E-03  0.5235E-03  0.5251E-03  0.1484E-03  0.1490E-03
     -1.116  0.1777E-01  0.1784E-01  0.2867E-02  0.2873E-02  0.2867E-02  0.2873E-02  0.2869E-02  0.2876E-02  0.4893E-03  0.4890E-03  0.4897E-03  0.4894E-03  0.1036E-03  0.1040E-03  0.4893E-03  0.4890E-03  0.1188E-03  0.1195E-03
     -1.052  0.1808E-01  0.1799E-01  0.3237E-02  0.3213E-02  0.3237E-02  0.3213E-02  0.3228E-02  0.3205E-02  0.6392E-03  0.6342E-03  0.6404E-03  0.6354E-03  0.1067E-03  0.1063E-03  0.6392E-03  0.6342E-03  0.1172E-03  0.1168E-03
     -0.988  0.2242E-01  0.2233E-01  0.4510E-02  0.4478E-02  0.4510E-02  0.4478E-02  0.4493E-02  0.4461E-02  0.8975E-03  0.8932E-03  0.8984E-03  0.8941E-03  0.1374E-03  0.1368E-03  0.8975E-03  0.8932E-03  0.1514E-03  0.1507E-03
     -0.924  0.2379E-01  0.2382E-01  0.5579E-02  0.5562E-02  0.5579E-02  0.5562E-02  0.5562E-02  0.5545E-02  0.1020E-02  0.1020E-02  0.1020E-02  0.1020E-02  0.1606E-03  0.1605E-03  0.1020E-02  0.1020E-02  0.1811E-03  0.1809E-03
     -0.860  0.2065E-01  0.2076E-01  0.5772E-02  0.5776E-02  0.5772E-02  0.5776E-02  0.5766E-02  0.5770E-02  0.9750E-03  0.9774E-03  0.9746E-03  0.9771E-03  0.1558E-03  0.1564E-03  0.9750E-03  0.9774E-03  0.1792E-03  0.1798E-03
     -0.796  0.1705E-01  0.1710E-01  0.5539E-02  0.5539E-02  0.5539E-02  0.5539E-02  0.5536E-02  0.5536E-02  0.9666E-03  0.9660E-03  0.9673E-03  0.9667E-03  0.1398E-03  0.1401E-03  0.9666E-03  0.9660E-03  0.1634E-03  0.1637E-03
     -0.732  0.1527E-01  0.1530E-01  0.5678E-02  0.5672E-02  0.5678E-02  0.5672E-02  0.5673E-02  0.5667E-02  0.1076E-02  0.1074E-02  0.1077E-02  0.1076E-02  0.1370E-03  0.1371E-03  0.1076E-02  0.1074E-02  0.1608E-03  0.1610E-03
     -0.668  0.1433E-01  0.1433E-01  0.5684E-02  0.5684E-02  0.5684E-02  0.5684E-02  0.5691E-02  0.5691E-02  0.1241E-02  0.1237E-02  0.1243E-02  0.1239E-02  0.1339E-03  0.1341E-03  0.1241E-02  0.1237E-02  0.1525E-03  0.1529E-03
     -0.604  0.1602E-01  0.1596E-01  0.5825E-02  0.5811E-02  0.5825E-02  0.5811E-02  0.5829E-02  0.5816E-02  0.1633E-02  0.1623E-02  0.1636E-02  0.1627E-02  0.1360E-03  0.1359E-03  0.1633E-02  0.1623E-02  0.1454E-03  0.1455E-03