   4   4   1   0
  0.1224858E+02  0.3658594E-09  0.3659450E-09  0.3659450E-09  0.5000000E-15
  1.000000000000000E-004
  CAR 
 unknown system                          
     18.10314252     -3.19828115  301     10.04255133      1.00000000
     -3.198  0.0000E+00  0.0000E+00  0.0000E+00  0.0000E+00
     -3.127  0.0000E+00  0.0000E+00  0.0000E+00  0.0000E+00
     -3.056  0.0000E+00  0.0000E+00  0.0000E+00  0.0000E+00
     -2.985  0.0000E+00  0.0000E+00  0.0000E+00  0.0000E+00
     -2.914  0.0000E+00  0.0000E+00  0.0000E+00  0.0000E+00
     -2.843  0.0000E+00  0.0000E+00  0.0000E+00  0.0000E+00
     -2.772  0.0000E+00  0.0000E+00  0.0000E+00  0.0000E+00
     -2.701  0.0000E+00  0.0000E+00  0.0000E+00  0.0000E+00
     -2.630  0.5438E-05  0.5401E-05  0.3861E-06  0.3835E-06
     -2.559  0.2409E-04  0.2392E-04  0.2096E-05  0.2082E-05
     -2.488  0.9744E-04  0.9677E-04  0.9015E-05  0.8954E-05
     -2.417  0.3985E-03  0.3958E-03  0.3731E-04  0.3706E-04
     -2.346  0.1604E-02  0.1594E-02  0.1512E-03  0.1502E-03
     -2.275  0.5864E-02  0.5829E-02  0.5676E-03  0.5641E-03
     -2.204  0.1737E-01  0.1729E-01  0.1801E-02  0.1792E-02
     -2.133  0.3724E-01  0.3714E-01  0.4445E-02  0.4429E-02
     -2.062  0.5551E-01  0.5544E-01  0.8387E-02  0.8365E-02
     -1.991  0.6585E-01  0.6579E-01  0.1306E-01  0.1304E-01
     -1.920  0.8505E-01  0.8491E-01  0.1910E-01  0.1907E-01
     -1.849  0.1099E+00  0.1098E+00  0.2690E-01  0.2686E-01
     -1.778  0.1047E+00  0.1048E+00  0.3434E-01  0.3430E-01
     -1.707  0.9344E-01  0.9339E-01  0.4097E-01  0.4094E-01
     -1.636  0.1205E+00  0.1203E+00  0.4953E-01  0.4948E-01
     -1.565  0.1510E+00  0.1509E+00  0.6026E-01  0.6020E-01
     -1.494  0.1520E+00  0.1521E+00  0.7105E-01  0.7100E-01
     -1.423  0.1410E+00  0.1410E+00  0.8108E-01  0.8103E-01
     -1.352  0.1546E+00  0.1545E+00  0.9206E-01  0.9200E-01
     -1.281  0.1719E+00  0.1719E+00  0.1043E+00  0.1042E+00
     -1.210  0.1441E+00  0.1442E+00  0.1145E+00  0.1145E+00
     -1.139  0.1498E+00  0.1495E+00  0.1252E+00  0.1251E+00
     -1.068  0.2067E+00  0.2064E+00  0.1398E+00  0.1398E+00
     -0.997  0.2247E+00  0.2247E+00  0.1558E+00  0.1557E+00
     -0.926  0.2151E+00  0.2151E+00  0.1711E+00  0.1710E+00
     -0.855  0.2196E+00  0.2195E+00  0.1867E+00  0.1866E+00
     -0.784  0.2004E+00  0.2006E+00  0.2009E+00  0.2008E+00
     -0.713  0.1591E+00  0.1592E+00  0.2122E+00  0.2121E+00
     -0.642  0.1802E+00  0.1798E+00  0.2250E+00  0.2249E+00
     -0.571  0.2568E+00  0.2563E+00  0.2433E+00  0.2431E+00
     -0.500  0.2981E+00  0.2981E+00  0.2645E+00  0.2643E+00
     -0.429  0.2680E+00  0.2682E+00  0.2835E+00  0.2834E+00
     -0.358  0.2783E+00  0.2781E+00  0.3033E+00  0.3031E+00
     -0.287  0.2800E+00  0.2803E+00  0.3232E+00  0.3230E+00
     -0.216  0.2143E+00  0.2146E+00  0.3384E+00  0.3383E+00
     -0.145  0.2231E+00  0.2226E+00  0.3542E+00  0.3541E+00
     -0.074  0.3075E+00  0.3068E+00  0.3761E+00  0.3759E+00
     -0.003  0.3635E+00  0.3632E+00  0.4019E+00  0.4017E+00
      0.068  0.3546E+00  0.3547E+00  0.4271E+00  0.4269E+00
      0.139  0.3253E+00  0.3253E+00  0.4502E+00  0.4500E+00
      0.210  0.3260E+00  0.3258E+00  0.4734E+00  0.4732E+00
      0.281  0.3304E+00  0.3303E+00  0.4969E+00  0.4966E+00
      0.352  0.3580E+00  0.3575E+00  0.5223E+00  0.5220E+00
      0.423  0.3990E+00  0.3986E+00  0.5506E+00  0.5504E+00
      0.494  0.3942E+00  0.3943E+00  0.5787E+00  0.5784E+00
      0.565  0.3420E+00  0.3427E+00  0.6030E+00  0.6028E+00
      0.636  0.2607E+00  0.2612E+00  0.6215E+00  0.6213E+00
      0.707  0.2392E+00  0.2389E+00  0.6385E+00  0.6383E+00
      0.778  0.2908E+00  0.2897E+00  0.6592E+00  0.6589E+00
      0.849  0.3859E+00  0.3852E+00  0.6866E+00  0.6863E+00
      0.920  0.3617E+00  0.3626E+00  0.7123E+00  0.7120E+00
      0.991  0.2850E+00  0.2855E+00  0.7325E+00  0.7323E+00
      1.062  0.2375E+00  0.2382E+00  0.7494E+00  0.7492E+00
      1.133  0.1939E+00  0.1939E+00  0.7632E+00  0.7630E+00
      1.204  0.2747E+00  0.2731E+00  0.7827E+00  0.7824E+00
      1.275  0.4227E+00  0.4219E+00  0.8128E+00  0.8124E+00
      1.346  0.4273E+00  0.4285E+00  0.8431E+00  0.8429E+00
      1.417  0.3353E+00  0.3360E+00  0.8669E+00  0.8667E+00
      1.488  0.2991E+00  0.2995E+00  0.8882E+00  0.8880E+00
      1.559  0.3181E+00  0.3177E+00  0.9108E+00  0.9106E+00
      1.630  0.3448E+00  0.3438E+00  0.9353E+00  0.9350E+00
      1.701  0.3583E+00  0.3581E+00  0.9608E+00  0.9605E+00
      1.772  0.3380E+00  0.3393E+00  0.9848E+00  0.9846E+00
      1.843  0.2838E+00  0.2852E+00  0.1005E+01  0.1005E+01
      1.914  0.2329E+00  0.2333E+00  0.1021E+01  0.1021E+01
      1.985  0.2217E+00  0.2208E+00  0.1037E+01  0.1037E+01
      2.056  0.3354E+00  0.3340E+00  0.1061E+01  0.1061E+01
      2.127  0.4102E+00  0.4107E+00  0.1090E+01  0.1090E+01
      2.198  0.3259E+00  0.3273E+00  0.1113E+01  0.1113E+01
      2.269  0.3251E+00  0.3256E+00  0.1136E+01  0.1136E+01
      2.340  0.3780E+00  0.3780E+00  0.1163E+01  0.1163E+01
      2.411  0.3469E+00  0.3463E+00  0.1188E+01  0.1188E+01
      2.482  0.3594E+00  0.3586E+00  0.1214E+01  0.1213E+01
      2.553  0.3916E+00  0.3917E+00  0.1241E+01  0.1241E+01
      2.624  0.3144E+00  0.3153E+00  0.1264E+01  0.1264E+01
      2.695  0.2412E+00  0.2417E+00  0.1281E+01  0.1281E+01
      2.766  0.3130E+00  0.3131E+00  0.1303E+01  0.1303E+01
      2.837  0.4054E+00  0.4053E+00  0.1332E+01  0.1332E+01
      2.908  0.3977E+00  0.3970E+00  0.1360E+01  0.1360E+01
      2.979  0.4522E+00  0.4515E+00  0.1392E+01  0.1392E+01
      3.050  0.4982E+00  0.4984E+00  0.1428E+01  0.1428E+01
      3.121  0.4583E+00  0.4586E+00  0.1460E+01  0.1460E+01
      3.192  0.4734E+00  0.4733E+00  0.1494E+01  0.1494E+01
      3.263  0.5154E+00  0.5154E+00  0.1530E+01  0.1530E+01
      3.334  0.4912E+00  0.4914E+00  0.1565E+01  0.1565E+01
      3.405  0.4971E+00  0.4967E+00  0.1601E+01  0.1601E+01
      3.476  0.5889E+00  0.5885E+00  0.1643E+01  0.1642E+01
      3.547  0.5947E+00  0.5949E+00  0.1685E+01  0.1685E+01
      3.618  0.5434E+00  0.5436E+00  0.1723E+01  0.1723E+01
      3.689  0.5202E+00  0.5199E+00  0.1760E+01  0.1760E+01
      3.760  0.4945E+00  0.4943E+00  0.1795E+01  0.1795E+01
      3.831  0.4768E+00  0.4766E+00  0.1829E+01  0.1829E+01
      3.902  0.5861E+00  0.5854E+00  0.1871E+01  0.1871E+01
      3.973  0.6712E+00  0.6711E+00  0.1919E+01  0.1918E+01
      4.044  0.6014E+00  0.6015E+00  0.1961E+01  0.1961E+01
      4.115  0.5672E+00  0.5666E+00  0.2002E+01  0.2001E+01
      4.186  0.6290E+00  0.6279E+00  0.2046E+01  0.2046E+01
      4.257  0.7242E+00  0.7239E+00  0.2098E+01  0.2097E+01
      4.328  0.6565E+00  0.6573E+00  0.2145E+01  0.2144E+01
      4.399  0.5652E+00  0.5651E+00  0.2185E+01  0.2184E+01
      4.470  0.5899E+00  0.5896E+00  0.2227E+01  0.2226E+01
      4.541  0.5679E+00  0.5685E+00  0.2267E+01  0.2267E+01
      4.612  0.5660E+00  0.5659E+00  0.2307E+01  0.2307E+01
      4.683  0.5838E+00  0.5836E+00  0.2349E+01  0.2348E+01
      4.754  0.5693E+00  0.5690E+00  0.2389E+01  0.2389E+01
      4.825  0.5496E+00  0.5500E+00  0.2428E+01  0.2428E+01
      4.896  0.4681E+00  0.4679E+00  0.2461E+01  0.2461E+01
      4.967  0.4579E+00  0.4577E+00  0.2494E+01  0.2494E+01
      5.038  0.4579E+00  0.4582E+00  0.2527E+01  0.2526E+01
      5.109  0.5250E+00  0.5247E+00  0.2564E+01  0.2564E+01
      5.180  0.6073E+00  0.6073E+00  0.2607E+01  0.2607E+01
      5.251  0.6219E+00  0.6214E+00  0.2651E+01  0.2651E+01
      5.322  0.6532E+00  0.6520E+00  0.2698E+01  0.2697E+01
      5.393  0.7409E+00  0.7394E+00  0.2750E+01  0.2750E+01
      5.464  0.8130E+00  0.8128E+00  0.2808E+01  0.2807E+01
      5.535  0.7158E+00  0.7173E+00  0.2859E+01  0.2858E+01
      5.606  0.5903E+00  0.5914E+00  0.2901E+01  0.2900E+01
      5.677  0.5525E+00  0.5526E+00  0.2940E+01  0.2940E+01
      5.748  0.5642E+00  0.5641E+00  0.2980E+01  0.2980E+01
      5.819  0.5954E+00  0.5944E+00  0.3022E+01  0.3022E+01
      5.890  0.7421E+00  0.7400E+00  0.3075E+01  0.3075E+01
      5.961  0.8926E+00  0.8915E+00  0.3139E+01  0.3138E+01
      6.032  0.8778E+00  0.8786E+00  0.3201E+01  0.3200E+01
      6.103  0.7589E+00  0.7594E+00  0.3255E+01  0.3254E+01
      6.174  0.7309E+00  0.7296E+00  0.3307E+01  0.3306E+01
      6.245  0.9235E+00  0.9210E+00  0.3372E+01  0.3372E+01
      6.316  0.1085E+01  0.1085E+01  0.3449E+01  0.3449E+01
      6.387  0.1001E+01  0.1002E+01  0.3521E+01  0.3520E+01
      6.458  0.9055E+00  0.9049E+00  0.3585E+01  0.3584E+01
      6.529  0.9352E+00  0.9344E+00  0.3651E+01  0.3650E+01
      6.600  0.9381E+00  0.9374E+00  0.3718E+01  0.3717E+01
      6.671  0.9445E+00  0.9429E+00  0.3785E+01  0.3784E+01
      6.742  0.9855E+00  0.9821E+00  0.3855E+01  0.3854E+01
      6.813  0.1176E+01  0.1170E+01  0.3939E+01  0.3937E+01
      6.884  0.1332E+01  0.1329E+01  0.4033E+01  0.4031E+01
      6.955  0.1299E+01  0.1300E+01  0.4126E+01  0.4124E+01
      7.026  0.1207E+01  0.1209E+01  0.4211E+01  0.4210E+01
      7.097  0.1109E+01  0.1109E+01  0.4290E+01  0.4288E+01
      7.168  0.1003E+01  0.1004E+01  0.4361E+01  0.4360E+01
      7.239  0.8611E+00  0.8613E+00  0.4423E+01  0.4421E+01
      7.310  0.9697E+00  0.9612E+00  0.4492E+01  0.4489E+01
      7.381  0.1371E+01  0.1361E+01  0.4589E+01  0.4586E+01
      7.452  0.1572E+01  0.1575E+01  0.4701E+01  0.4698E+01
      7.523  0.1384E+01  0.1390E+01  0.4799E+01  0.4797E+01
      7.594  0.1269E+01  0.1269E+01  0.4889E+01  0.4887E+01
      7.665  0.1245E+01  0.1248E+01  0.4977E+01  0.4975E+01
      7.736  0.9815E+00  0.9885E+00  0.5047E+01  0.5046E+01
      7.807  0.7433E+00  0.7443E+00  0.5100E+01  0.5099E+01
      7.878  0.7457E+00  0.7411E+00  0.5153E+01  0.5151E+01
      7.949  0.8677E+00  0.8638E+00  0.5215E+01  0.5213E+01
      8.020  0.8527E+00  0.8561E+00  0.5275E+01  0.5274E+01
      8.091  0.6976E+00  0.7016E+00  0.5325E+01  0.5324E+01
      8.162  0.6237E+00  0.6243E+00  0.5369E+01  0.5368E+01
      8.233  0.6050E+00  0.6054E+00  0.5412E+01  0.5411E+01
      8.304  0.5945E+00  0.5934E+00  0.5455E+01  0.5453E+01
      8.375  0.6205E+00  0.6179E+00  0.5499E+01  0.5497E+01
      8.446  0.6560E+00  0.6542E+00  0.5545E+01  0.5543E+01
      8.518  0.6361E+00  0.6365E+00  0.5590E+01  0.5589E+01
      8.589  0.6330E+00  0.6328E+00  0.5635E+01  0.5634E+01
      8.660  0.6247E+00  0.6255E+00  0.5680E+01  0.5678E+01
      8.731  0.6451E+00  0.6426E+00  0.5726E+01  0.5724E+01
      8.802  0.6967E+00  0.6950E+00  0.5775E+01  0.5773E+01
      8.873  0.6366E+00  0.6409E+00  0.5820E+01  0.5819E+01
      8.944  0.4876E+00  0.4923E+00  0.5855E+01  0.5854E+01
      9.015  0.4266E+00  0.4262E+00  0.5885E+01  0.5884E+01
      9.086  0.4935E+00  0.4880E+00  0.5920E+01  0.5919E+01
      9.157  0.6569E+00  0.6486E+00  0.5967E+01  0.5965E+01
      9.228  0.7761E+00  0.7761E+00  0.6022E+01  0.6020E+01
      9.299  0.6431E+00  0.6538E+00  0.6068E+01  0.6066E+01
      9.370  0.3840E+00  0.3938E+00  0.6095E+01  0.6094E+01
      9.441  0.2531E+00  0.2532E+00  0.6113E+01  0.6112E+01
      9.512  0.3219E+00  0.3150E+00  0.6136E+01  0.6135E+01
      9.583  0.4450E+00  0.4400E+00  0.6168E+01  0.6166E+01
      9.654  0.5204E+00  0.5168E+00  0.6205E+01  0.6203E+01
      9.725  0.5994E+00  0.5959E+00  0.6247E+01  0.6245E+01
      9.796  0.6593E+00  0.6558E+00  0.6294E+01  0.6292E+01
      9.867  0.7242E+00  0.7192E+00  0.6346E+01  0.6343E+01
      9.938  0.8058E+00  0.7996E+00  0.6403E+01  0.6400E+01
     10.009  0.9184E+00  0.9125E+00  0.6468E+01  0.6464E+01
     10.080  0.1016E+01  0.1012E+01  0.6540E+01  0.6536E+01
     10.151  0.1007E+01  0.1011E+01  0.6612E+01  0.6608E+01
     10.222  0.9222E+00  0.9234E+00  0.6677E+01  0.6674E+01
     10.293  0.1018E+01  0.1005E+01  0.6750E+01  0.6745E+01
     10.364  0.1229E+01  0.1221E+01  0.6837E+01  0.6832E+01
     10.435  0.1169E+01  0.1178E+01  0.6920E+01  0.6915E+01
     10.506  0.1051E+01  0.1055E+01  0.6995E+01  0.6990E+01
     10.577  0.9858E+00  0.9924E+00  0.7065E+01  0.7061E+01
     10.648  0.9410E+00  0.9421E+00  0.7132E+01  0.7128E+01
     10.719  0.1021E+01  0.1018E+01  0.7204E+01  0.7200E+01
     10.790  0.1053E+01  0.1055E+01  0.7279E+01  0.7275E+01
     10.861  0.9693E+00  0.9737E+00  0.7348E+01  0.7344E+01
     10.932  0.1005E+01  0.9964E+00  0.7419E+01  0.7415E+01
     11.003  0.1229E+01  0.1217E+01  0.7507E+01  0.7502E+01
     11.074  0.1362E+01  0.1354E+01  0.7603E+01  0.7598E+01
     11.145  0.1444E+01  0.1438E+01  0.7706E+01  0.7700E+01
     11.216  0.1522E+01  0.1509E+01  0.7814E+01  0.7807E+01
     11.287  0.1702E+01  0.1679E+01  0.7935E+01  0.7926E+01
     11.358  0.1975E+01  0.1941E+01  0.8075E+01  0.8064E+01
     11.429  0.2376E+01  0.2335E+01  0.8244E+01  0.8230E+01
     11.500  0.2613E+01  0.2600E+01  0.8430E+01  0.8415E+01
     11.571  0.2443E+01  0.2467E+01  0.8603E+01  0.8590E+01
     11.642  0.2091E+01  0.2123E+01  0.8752E+01  0.8741E+01
     11.713  0.1621E+01  0.1661E+01  0.8867E+01  0.8859E+01
     11.784  0.1162E+01  0.1198E+01  0.8950E+01  0.8944E+01
     11.855  0.8491E+00  0.8736E+00  0.9010E+01  0.9006E+01
     11.926  0.6733E+00  0.6902E+00  0.9058E+01  0.9055E+01
     11.997  0.5795E+00  0.5887E+00  0.9099E+01  0.9097E+01
     12.068  0.6013E+00  0.5992E+00  0.9142E+01  0.9140E+01
     12.139  0.7573E+00  0.7495E+00  0.9196E+01  0.9193E+01
     12.210  0.9464E+00  0.9394E+00  0.9263E+01  0.9260E+01
     12.281  0.1010E+01  0.1014E+01  0.9335E+01  0.9332E+01
     12.352  0.8776E+00  0.8836E+00  0.9397E+01  0.9395E+01
     12.423  0.7716E+00  0.7729E+00  0.9452E+01  0.9450E+01
     12.494  0.7936E+00  0.7906E+00  0.9509E+01  0.9506E+01
     12.565  0.8949E+00  0.8918E+00  0.9572E+01  0.9569E+01
     12.636  0.9012E+00  0.9049E+00  0.9636E+01  0.9634E+01
     12.707  0.8086E+00  0.8123E+00  0.9694E+01  0.9691E+01
     12.778  0.7829E+00  0.7805E+00  0.9749E+01  0.9747E+01
     12.849  0.8041E+00  0.8025E+00  0.9806E+01  0.9804E+01
     12.920  0.7285E+00  0.7350E+00  0.9858E+01  0.9856E+01
     12.991  0.5999E+00  0.6046E+00  0.9901E+01  0.9899E+01
     13.062  0.5758E+00  0.5779E+00  0.9942E+01  0.9940E+01
     13.133  0.6061E+00  0.6054E+00  0.9985E+01  0.9983E+01
     13.204  0.5858E+00  0.5869E+00  0.1003E+02  0.1002E+02
     13.275  0.5022E+00  0.5055E+00  0.1006E+02  0.1006E+02
     13.346  0.4761E+00  0.4716E+00  0.1010E+02  0.1009E+02
     13.417  0.6157E+00  0.6013E+00  0.1014E+02  0.1014E+02
     13.488  0.8536E+00  0.8393E+00  0.1020E+02  0.1020E+02
     13.559  0.1028E+01  0.1023E+01  0.1027E+02  0.1027E+02
     13.630  0.1123E+01  0.1115E+01  0.1035E+02  0.1035E+02
     13.701  0.1224E+01  0.1216E+01  0.1044E+02  0.1043E+02
     13.772  0.1241E+01  0.1237E+01  0.1053E+02  0.1052E+02
     13.843  0.1237E+01  0.1239E+01  0.1062E+02  0.1061E+02
     13.914  0.1325E+01  0.1323E+01  0.1071E+02  0.1070E+02
     13.985  0.1499E+01  0.1500E+01  0.1082E+02  0.1081E+02
     14.056  0.1639E+01  0.1665E+01  0.1093E+02  0.1093E+02
     14.127  0.1615E+01  0.1666E+01  0.1105E+02  0.1105E+02
     14.198  0.1444E+01  0.1467E+01  0.1115E+02  0.1115E+02
     14.269  0.1352E+01  0.1320E+01  0.1125E+02  0.1125E+02
     14.340  0.1315E+01  0.1282E+01  0.1134E+02  0.1134E+02
     14.411  0.1295E+01  0.1283E+01  0.1143E+02  0.1143E+02
     14.482  0.1192E+01  0.1192E+01  0.1152E+02  0.1151E+02
     14.553  0.9839E+00  0.9885E+00  0.1159E+02  0.1158E+02
     14.624  0.7524E+00  0.7645E+00  0.1164E+02  0.1164E+02
     14.695  0.6318E+00  0.6414E+00  0.1169E+02  0.1168E+02
     14.766  0.5326E+00  0.5446E+00  0.1172E+02  0.1172E+02
     14.837  0.4543E+00  0.4672E+00  0.1176E+02  0.1176E+02
     14.908  0.4046E+00  0.4123E+00  0.1178E+02  0.1178E+02
     14.979  0.3396E+00  0.3368E+00  0.1181E+02  0.1181E+02
     15.050  0.3134E+00  0.3066E+00  0.1183E+02  0.1183E+02
     15.121  0.2915E+00  0.2858E+00  0.1185E+02  0.1185E+02
     15.192  0.2798E+00  0.2809E+00  0.1187E+02  0.1187E+02
     15.263  0.2457E+00  0.2573E+00  0.1189E+02  0.1189E+02
     15.334  0.1777E+00  0.1807E+00  0.1190E+02  0.1190E+02
     15.405  0.1143E+00  0.1127E+00  0.1191E+02  0.1191E+02
     15.476  0.8543E-01  0.8482E-01  0.1192E+02  0.1192E+02
     15.547  0.6049E-01  0.5904E-01  0.1192E+02  0.1192E+02
     15.618  0.5499E-01  0.5183E-01  0.1192E+02  0.1192E+02
     15.689  0.1070E+00  0.1019E+00  0.1193E+02  0.1193E+02
     15.760  0.1723E+00  0.1706E+00  0.1194E+02  0.1194E+02
     15.831  0.1623E+00  0.1662E+00  0.1196E+02  0.1195E+02
     15.902  0.1133E+00  0.1177E+00  0.1196E+02  0.1196E+02
     15.973  0.8577E-01  0.9028E-01  0.1197E+02  0.1197E+02
     16.044  0.7065E-01  0.7573E-01  0.1197E+02  0.1197E+02
     16.115  0.8381E-01  0.8184E-01  0.1198E+02  0.1198E+02
     16.186  0.9505E-01  0.8142E-01  0.1199E+02  0.1199E+02
     16.257  0.6130E-01  0.5480E-01  0.1199E+02  0.1199E+02
     16.328  0.2239E-01  0.2949E-01  0.1199E+02  0.1199E+02
     16.399  0.7381E-02  0.1266E-01  0.1199E+02  0.1199E+02
     16.470  0.6212E-02  0.7552E-02  0.1199E+02  0.1199E+02
     16.541  0.1140E-01  0.1136E-01  0.1199E+02  0.1199E+02
     16.612  0.1229E-01  0.1276E-01  0.1200E+02  0.1200E+02
     16.683  0.6083E-02  0.6630E-02  0.1200E+02  0.1200E+02
     16.754  0.1979E-02  0.2315E-02  0.1200E+02  0.1200E+02
     16.825  0.1006E-02  0.1564E-02  0.1200E+02  0.1200E+02
     16.896  0.2175E-02  0.3853E-02  0.1200E+02  0.1200E+02
     16.967  0.6702E-02  0.1003E-01  0.1200E+02  0.1200E+02
     17.038  0.1372E-01  0.1542E-01  0.1200E+02  0.1200E+02
     17.109  0.1411E-01  0.1209E-01  0.1200E+02  0.1200E+02
     17.180  0.8781E-02  0.5855E-02  0.1200E+02  0.1200E+02
     17.251  0.3715E-02  0.2045E-02  0.1200E+02  0.1200E+02
     17.322  0.1117E-02  0.5649E-03  0.1200E+02  0.1200E+02
     17.393  0.2871E-03  0.1335E-03  0.1200E+02  0.1200E+02
     17.464  0.5141E-04  0.1905E-04  0.1200E+02  0.1200E+02
     17.535  0.0000E+00  0.0000E+00  0.1200E+02  0.1200E+02
     17.606  0.0000E+00  0.0000E+00  0.1200E+02  0.1200E+02
     17.677  0.0000E+00  0.0000E+00  0.1200E+02  0.1200E+02
     17.748  0.0000E+00  0.0000E+00  0.1200E+02  0.1200E+02
     17.819  0.0000E+00  0.0000E+00  0.1200E+02  0.1200E+02
     17.890  0.0000E+00  0.0000E+00  0.1200E+02  0.1200E+02
     17.961  0.0000E+00  0.0000E+00  0.1200E+02  0.1200E+02
     18.032  0.0000E+00  0.0000E+00  0.1200E+02  0.1200E+02
     18.103  0.0000E+00  0.0000E+00  0.1200E+02  0.1200E+02
     18.10314252     -3.19828115  301     10.04255133      1.00000000
     -3.198  0.0000E+00  0.0000E+00  0.0000E+00  0.0000E+00  0.0000E+00  0.0000E+00  0.0000E+00  0.0000E+00  0.0000E+00  0.0000E+00  0.0000E+00  0.0000E+00  0.0000E+00  0.0000E+00  0.0000E+00  0.0000E+00  0.0000E+00  0.0000E+00
     -3.127  0.0000E+00  0.0000E+00  0.0000E+00  0.0000E+00  0.0000E+00  0.0000E+00  0.0000E+00  0.0000E+00  0.0000E+00  0.0000E+00  0.0000E+00  0.0000E+00  0.0000E+00  0.0000E+00  0.0000E+00  0.0000E+00  0.0000E+00  0.0000E+00
     -3.056  0.0000E+00  0.0000E+00  0.0000E+00  0.0000E+00  0.0000E+00  0.0000E+00  0.0000E+00  0.0000E+00  0.0000E+00  0.0000E+00  0.0000E+00  0.0000E+00  0.0000E+00  0.0000E+00  0.0000E+00  0.0000E+00  0.0000E+00  0.0000E+00
     -2.985  0.0000E+00  0.0000E+00  0.0000E+00  0.0000E+00  0.0000E+00  0.0000E+00  0.0000E+00  0.0000E+00  0.0000E+00  0.0000E+00  0.0000E+00  0.0000E+00  0.0000E+00  0.0000E+00  0.0000E+00  0.0000E+00  0.0000E+00  0.0000E+00
     -2.914  0.0000E+00  0.0000E+00  0.0000E+00  0.0000E+00  0.0000E+00  0.0000E+00  0.0000E+00  0.0000E+00  0.0000E+00  0.0000E+00  0.0000E+00  0.0000E+00  0.0000E+00  0.0000E+00  0.0000E+00  0.0000E+00  0.0000E+00  0.0000E+00
     -2.843  0.0000E+00  0.0000E+00  0.0000E+00  0.0000E+00  0.0000E+00  0.0000E+00  0.0000E+00  0.0000E+00  0.0000E+00  0.0000E+00  0.0000E+00  0.0000E+00  0.0000E+00  0.0000E+00  0.0000E+00  0.0000E+00  0.0000E+00  0.0000E+00
     -2.772  0.0000E+00  0.0000E+00  0.0000E+00  0.0000E+00  0.0000E+00  0.0000E+00  0.0000E+00  0.0000E+00  0.0000E+00  0.0000E+00  0.0000E+00  0.0000E+00  0.0000E+00  0.0000E+00  0.0000E+00  0.0000E+00  0.0000E+00  0.0000E+00
     -2.701  0.0000E+00  0.0000E+00  0.0000E+00  0.0000E+00  0.0000E+00  0.0000E+00  0.0000E+00  0.0000E+00  0.0000E+00  0.0000E+00  0.0000E+00  0.0000E+00  0.0000E+00  0.0000E+00  0.0000E+00  0.0000E+00  0.0000E+00  0.0000E+00
     -2.630  0.9702E-06  0.9641E-06  0.1840E-08  0.1828E-08  0.1840E-08  0.1828E-08  0.1839E-08  0.1827E-08  0.1200E-18  0.1088E-18  0.1578E-18  0.6368E-19  0.8930E-11  0.8881E-11  0.1200E-18  0.1088E-18  0.1143E-10  0.1136E-10
     -2.559  0.4271E-05  0.4245E-05  0.1357E-07  0.1349E-07  0.1357E-07  0.1349E-07  0.1357E-07  0.1348E-07  0.8275E-10  0.8218E-10  0.8280E-10  0.8222E-10  0.5231E-10  0.5199E-10  0.8275E-10  0.8218E-10  0.5464E-10  0.5430E-10
     -2.488  0.1727E-04  0.1716E-04  0.5663E-07  0.5627E-07  0.5663E-07  0.5627E-07  0.5661E-07  0.5625E-07  0.4369E-09  0.4338E-09  0.4370E-09  0.4339E-09  0.1919E-09  0.1908E-09  0.4369E-09  0.4338E-09  0.2071E-09  0.2058E-09
     -2.417  0.7063E-04  0.7019E-04  0.2343E-06  0.2328E-06  0.2343E-06  0.2328E-06  0.2342E-06  0.2327E-06  0.1628E-08  0.1617E-08  0.1629E-08  0.1618E-08  0.9608E-09  0.9551E-09  0.1628E-08  0.1617E-08  0.1071E-08  0.1064E-08
     -2.346  0.2841E-03  0.2824E-03  0.9965E-06  0.9902E-06  0.9965E-06  0.9902E-06  0.9960E-06  0.9896E-06  0.7551E-08  0.7499E-08  0.7554E-08  0.7502E-08  0.4378E-08  0.4352E-08  0.7551E-08  0.7499E-08  0.4877E-08  0.4847E-08
     -2.275  0.1037E-02  0.1031E-02  0.3946E-05  0.3922E-05  0.3946E-05  0.3922E-05  0.3944E-05  0.3920E-05  0.3195E-07  0.3173E-07  0.3196E-07  0.3174E-07  0.1709E-07  0.1699E-07  0.3195E-07  0.3173E-07  0.1901E-07  0.1890E-07
     -2.204  0.3061E-02  0.3049E-02  0.1381E-04  0.1374E-04  0.1381E-04  0.1374E-04  0.1380E-04  0.1373E-04  0.1221E-06  0.1214E-06  0.1222E-06  0.1214E-06  0.5964E-07  0.5935E-07  0.1221E-06  0.1214E-06  0.6552E-07  0.6520E-07
     -2.133  0.6525E-02  0.6511E-02  0.3759E-04  0.3745E-04  0.3759E-04  0.3745E-04  0.3758E-04  0.3744E-04  0.4097E-06  0.4075E-06  0.4098E-06  0.4077E-06  0.1684E-06  0.1677E-06  0.4097E-06  0.4075E-06  0.1826E-06  0.1819E-06
     -2.062  0.9639E-02  0.9633E-02  0.7416E-04  0.7399E-04  0.7416E-04  0.7399E-04  0.7413E-04  0.7396E-04  0.1016E-05  0.1012E-05  0.1016E-05  0.1012E-05  0.4107E-06  0.4092E-06  0.1016E-05  0.1012E-05  0.4638E-06  0.4619E-06
     -1.991  0.1127E-01  0.1126E-01  0.1227E-03  0.1224E-03  0.1227E-03  0.1224E-03  0.1226E-03  0.1223E-03  0.1979E-05  0.1973E-05  0.1980E-05  0.1974E-05  0.1048E-05  0.1044E-05  0.1979E-05  0.1973E-05  0.1250E-05  0.1245E-05
     -1.920  0.1429E-01  0.1428E-01  0.2115E-03  0.2111E-03  0.2115E-03  0.2111E-03  0.2114E-03  0.2109E-03  0.4094E-05  0.4079E-05  0.4096E-05  0.4082E-05  0.2324E-05  0.2319E-05  0.4094E-05  0.4079E-05  0.2792E-05  0.2785E-05
     -1.849  0.1824E-01  0.1824E-01  0.3187E-03  0.3185E-03  0.3187E-03  0.3185E-03  0.3187E-03  0.3184E-03  0.7807E-05  0.7790E-05  0.7809E-05  0.7792E-05  0.3427E-05  0.3427E-05  0.7807E-05  0.7790E-05  0.4087E-05  0.4087E-05
     -1.778  0.1718E-01  0.1721E-01  0.3440E-03  0.3442E-03  0.3440E-03  0.3442E-03  0.3440E-03  0.3442E-03  0.1068E-04  0.1067E-04  0.1068E-04  0.1067E-04  0.3639E-05  0.3641E-05  0.1068E-04  0.1067E-04  0.4219E-05  0.4222E-05
     -1.707  0.1499E-01  0.1499E-01  0.3752E-03  0.3748E-03  0.3752E-03  0.3748E-03  0.3750E-03  0.3745E-03  0.1455E-04  0.1452E-04  0.1456E-04  0.1453E-04  0.4989E-05  0.4978E-05  0.1455E-04  0.1452E-04  0.5476E-05  0.5464E-05
     -1.636  0.1891E-01  0.1889E-01  0.5708E-03  0.5697E-03  0.5708E-03  0.5697E-03  0.5701E-03  0.5690E-03  0.2355E-04  0.2350E-04  0.2356E-04  0.2351E-04  0.9845E-05  0.9818E-05  0.2355E-04  0.2350E-04  0.1113E-04  0.1110E-04
     -1.565  0.2334E-01  0.2334E-01  0.7815E-03  0.7809E-03  0.7815E-03  0.7809E-03  0.7808E-03  0.7802E-03  0.3070E-04  0.3068E-04  0.3071E-04  0.3069E-04  0.1683E-04  0.1681E-04  0.3070E-04  0.3068E-04  0.2006E-04  0.2003E-04
     -1.494  0.2316E-01  0.2318E-01  0.8544E-03  0.8545E-03  0.8544E-03  0.8545E-03  0.8544E-03  0.8545E-03  0.3602E-04  0.3598E-04  0.3603E-04  0.3600E-04  0.2029E-04  0.2031E-04  0.3602E-04  0.3598E-04  0.2476E-04  0.2478E-04
     -1.423  0.2106E-01  0.2107E-01  0.8713E-03  0.8711E-03  0.8713E-03  0.8711E-03  0.8714E-03  0.8712E-03  0.4900E-04  0.4891E-04  0.4904E-04  0.4894E-04  0.1886E-04  0.1888E-04  0.4900E-04  0.4891E-04  0.2238E-04  0.2242E-04
     -1.352  0.2256E-01  0.2255E-01  0.1052E-02  0.1050E-02  0.1052E-02  0.1050E-02  0.1051E-02  0.1050E-02  0.7460E-04  0.7445E-04  0.7466E-04  0.7451E-04  0.2104E-04  0.2103E-04  0.7460E-04  0.7445E-04  0.2342E-04  0.2342E-04
     -1.281  0.2468E-01  0.2470E-01  0.1241E-02  0.1241E-02  0.1241E-02  0.1241E-02  0.1241E-02  0.1241E-02  0.9524E-04  0.9523E-04  0.9522E-04  0.9522E-04  0.2554E-04  0.2555E-04  0.9524E-04  0.9523E-04  0.2826E-04  0.2827E-04
     -1.210  0.2029E-01  0.2032E-01  0.1116E-02  0.1117E-02  0.1116E-02  0.1117E-02  0.1115E-02  0.1116E-02  0.8336E-04  0.8345E-04  0.8332E-04  0.8341E-04  0.2831E-04  0.2830E-04  0.8336E-04  0.8345E-04  0.3302E-04  0.3299E-04
     -1.139  0.2035E-01  0.2033E-01  0.1299E-02  0.1296E-02  0.1299E-02  0.1296E-02  0.1296E-02  0.1293E-02  0.9212E-04  0.9191E-04  0.9220E-04  0.9199E-04  0.4359E-04  0.4350E-04  0.9212E-04  0.9191E-04  0.5314E-04  0.5303E-04
     -1.068  0.2749E-01  0.2747E-01  0.1898E-02  0.1895E-02  0.1898E-02  0.1895E-02  0.1895E-02  0.1892E-02  0.1441E-03  0.1438E-03  0.1443E-03  0.1440E-03  0.6754E-04  0.6750E-04  0.1441E-03  0.1438E-03  0.8160E-04  0.8156E-04
     -0.997  0.2941E-01  0.2943E-01  0.2140E-02  0.2140E-02  0.2140E-02  0.2140E-02  0.2140E-02  0.2140E-02  0.1855E-03  0.1853E-03  0.1857E-03  0.1855E-03  0.7517E-04  0.7526E-04  0.1855E-03  0.1853E-03  0.8757E-04  0.8769E-04
     -0.926  0.2753E-01  0.2754E-01  0.2153E-02  0.2152E-02  0.2153E-02  0.2152E-02  0.2152E-02  0.2151E-02  0.2152E-03  0.2151E-03  0.2154E-03  0.2152E-03  0.7391E-04  0.7397E-04  0.2152E-03  0.2151E-03  0.8388E-04  0.8394E-04
     -0.855  0.2742E-01  0.2743E-01  0.2308E-02  0.2307E-02  0.2308E-02  0.2307E-02  0.2308E-02  0.2306E-02  0.2551E-03  0.2549E-03  0.2551E-03  0.2549E-03  0.7780E-04  0.7789E-04  0.2551E-03  0.2549E-03  0.8939E-04  0.8948E-04
     -0.784  0.2458E-01  0.2463E-01  0.2172E-02  0.2174E-02  0.2172E-02  0.2174E-02  0.2174E-02  0.2176E-02  0.2740E-03  0.2741E-03  0.2738E-03  0.2739E-03  0.6492E-04  0.6512E-04  0.2740E-03  0.2741E-03  0.7496E-04  0.7518E-04
     -0.713  0.1893E-01  0.1896E-01  0.1815E-02  0.1815E-02  0.1815E-02  0.1815E-02  0.1814E-02  0.1814E-02  0.2565E-03  0.2564E-03  0.2566E-03  0.2566E-03  0.5153E-04  0.5155E-04  0.2565E-03  0.2564E-03  0.5950E-04  0.5952E-04
     -0.642  0.2037E-01  0.2034E-01  0.2233E-02  0.2226E-02  0.2233E-02  0.2226E-02  0.2226E-02  0.2219E-02  0.3138E-03  0.3131E-03  0.3145E-03  0.3137E-03  0.7912E-04  0.7887E-04  0.3138E-03  0.3131E-03  0.9158E-04  0.9129E-04
     -0.571  0.2798E-01  0.2794E-01  0.3359E-02  0.3350E-02  0.3359E-02  0.3350E-02  0.3349E-02  0.3340E-02  0.4451E-03  0.4443E-03  0.4458E-03  0.4449E-03  0.1411E-03  0.1409E-03  0.4451E-03  0.4443E-03  0.1632E-03  0.1629E-03
     -0.500  0.3163E-01  0.3166E-01  0.4035E-02  0.4033E-02  0.4035E-02  0.4033E-02  0.4032E-02  0.4030E-02  0.5196E-03  0.5195E-03  0.5194E-03  0.5193E-03  0.1800E-03  0.1802E-03  0.5196E-03  0.5195E-03  0.2113E-03  0.2114E-03
     -0.429  0.2756E-01  0.2760E-01  0.3755E-02  0.3755E-02  0.3755E-02  0.3755E-02  0.3757E-02  0.3756E-02  0.5178E-03  0.5174E-03  0.5177E-03  0.5174E-03  0.1635E-03  0.1638E-03  0.5178E-03  0.5174E-03  0.1953E-03  0.1956E-03
     -0.358  0.2757E-01  0.2756E-01  0.4038E-02  0.4031E-02  0.4038E-02  0.4031E-02  0.4033E-02  0.4027E-02  0.6427E-03  0.6415E-03  0.6434E-03  0.6422E-03  0.1639E-03  0.1639E-03  0.6427E-03  0.6415E-03  0.1957E-03  0.1957E-03
     -0.287  0.2693E-01  0.2698E-01  0.4169E-02  0.4170E-02  0.4169E-02  0.4170E-02  0.4170E-02  0.4172E-02  0.6940E-03  0.6944E-03  0.6941E-03  0.6945E-03  0.1723E-03  0.1726E-03  0.6940E-03  0.6944E-03  0.2046E-03  0.2049E-03
     -0.216  0.1985E-01  0.1990E-01  0.3275E-02  0.3277E-02  0.3275E-02  0.3277E-02  0.3280E-02  0.3282E-02  0.6062E-03  0.6061E-03  0.6067E-03  0.6065E-03  0.1364E-03  0.1368E-03  0.6062E-03  0.6061E-03  0.1570E-03  0.1575E-03
     -0.145  0.1949E-01  0.1947E-01  0.3530E-02  0.3518E-02  0.3530E-02  0.3518E-02  0.3522E-02  0.3510E-02  0.7940E-03  0.7912E-03  0.7958E-03  0.7930E-03  0.1327E-03  0.1326E-03  0.7940E-03  0.7912E-03  0.1442E-03  0.1441E-03
     -0.074  0.2527E-01  0.2524E-01  0.5079E-02  0.5062E-02  0.5079E-02  0.5062E-02  0.5060E-02  0.5043E-02  0.1175E-02  0.1172E-02  0.1176E-02  0.1174E-02  0.1750E-03  0.1749E-03  0.1175E-02  0.1172E-02  0.1909E-03  0.1906E-03
     -0.003  0.2725E-01  0.2727E-01  0.6405E-02  0.6392E-02  0.6405E-02  0.6392E-02  0.6382E-02  0.6368E-02  0.1350E-02  0.1350E-02  0.1350E-02  0.1350E-02  0.2090E-03  0.2091E-03  0.1350E-02  0.1350E-02  0.2342E-03  0.2342E-03
      0.068  0.2335E-01  0.2340E-01  0.6733E-02  0.6728E-02  0.6733E-02  0.6728E-02  0.6722E-02  0.6717E-02  0.1255E-02  0.1256E-02  0.1255E-02  0.1255E-02  0.2058E-03  0.2062E-03  0.1255E-02  0.1256E-02  0.2363E-03  0.2367E-03
      0.139  0.1902E-01  0.1905E-01  0.6480E-02  0.6475E-02  0.6480E-02  0.6475E-02  0.6476E-02  0.6472E-02  0.1225E-02  0.1224E-02  0.1226E-02  0.1225E-02  0.1839E-03  0.1842E-03  0.1225E-02  0.1224E-02  0.2155E-03  0.2159E-03
      0.210  0.1709E-01  0.1711E-01  0.6686E-02  0.6677E-02  0.6686E-02  0.6677E-02  0.6676E-02  0.6668E-02  0.1391E-02  0.1389E-02  0.1393E-02  0.1391E-02  0.1801E-03  0.1803E-03  0.1391E-02  0.1389E-02  0.2120E-03  0.2123E-03
      0.281  0.1610E-01  0.1611E-01  0.6815E-02  0.6813E-02  0.6815E-02  0.6813E-02  0.6824E-02  0.6821E-02  0.1648E-02  0.1644E-02  0.1651E-02  0.1647E-02  0.1785E-03  0.1788E-03  0.1648E-02  0.1644E-02  0.2030E-03  0.2034E-03
      0.352  0.1857E-01  0.1855E-01  0.7014E-02  0.7008E-02  0.7014E-02  0.7008E-02  0.7021E-02  0.7015E-02  0.2246E-02  0.2240E-02  0.2251E-02  0.2244E-02  0.1820E-03  0.1822E-03  0.2246E-02  0.2240E-02  0.1926E-03  0.1929E-03