   4   4   1   0
  0.1669255E+02  0.4056267E-09  0.4057216E-09  0.4057216E-09  0.5000000E-15
  1.000000000000000E-004
  CAR 
 unknown system                          
     12.51270529     -4.22056373  301      6.91348814      1.00000000
     -4.221  0.0000E+00  0.0000E+00  0.0000E+00  0.0000E+00
     -4.165  0.0000E+00  0.0000E+00  0.0000E+00  0.0000E+00
     -4.109  0.0000E+00  0.0000E+00  0.0000E+00  0.0000E+00
     -4.053  0.0000E+00  0.0000E+00  0.0000E+00  0.0000E+00
     -3.997  0.0000E+00  0.0000E+00  0.0000E+00  0.0000E+00
     -3.942  0.0000E+00  0.0000E+00  0.0000E+00  0.0000E+00
     -3.886  0.1629E-05  0.1617E-05  0.9087E-07  0.9018E-07
     -3.830  0.1345E-04  0.1335E-04  0.8412E-06  0.8348E-06
     -3.774  0.5188E-04  0.5148E-04  0.3735E-05  0.3706E-05
     -3.719  0.1516E-03  0.1504E-03  0.1219E-04  0.1210E-04
     -3.663  0.4566E-03  0.4532E-03  0.3766E-04  0.3737E-04
     -3.607  0.1405E-02  0.1395E-02  0.1160E-03  0.1152E-03
     -3.551  0.4085E-02  0.4056E-02  0.3439E-03  0.3414E-03
     -3.495  0.1092E-01  0.1085E-01  0.9531E-03  0.9468E-03
     -3.440  0.2518E-01  0.2505E-01  0.2357E-02  0.2344E-02
     -3.384  0.4640E-01  0.4624E-01  0.4945E-02  0.4923E-02
     -3.328  0.6719E-01  0.6707E-01  0.8693E-02  0.8664E-02
     -3.272  0.8404E-01  0.8392E-01  0.1338E-01  0.1335E-01
     -3.217  0.1053E+00  0.1052E+00  0.1926E-01  0.1921E-01
     -3.161  0.1272E+00  0.1271E+00  0.2635E-01  0.2630E-01
     -3.105  0.1299E+00  0.1300E+00  0.3360E-01  0.3355E-01
     -3.049  0.1271E+00  0.1270E+00  0.4069E-01  0.4064E-01
     -2.993  0.1478E+00  0.1476E+00  0.4893E-01  0.4887E-01
     -2.938  0.1762E+00  0.1760E+00  0.5876E-01  0.5869E-01
     -2.882  0.1851E+00  0.1852E+00  0.6909E-01  0.6902E-01
     -2.826  0.1811E+00  0.1811E+00  0.7920E-01  0.7913E-01
     -2.770  0.1882E+00  0.1881E+00  0.8970E-01  0.8963E-01
     -2.715  0.2022E+00  0.2022E+00  0.1010E+00  0.1009E+00
     -2.659  0.1935E+00  0.1937E+00  0.1118E+00  0.1117E+00
     -2.603  0.1920E+00  0.1919E+00  0.1225E+00  0.1224E+00
     -2.547  0.2305E+00  0.2302E+00  0.1354E+00  0.1353E+00
     -2.491  0.2631E+00  0.2630E+00  0.1500E+00  0.1499E+00
     -2.436  0.2658E+00  0.2658E+00  0.1649E+00  0.1648E+00
     -2.380  0.2639E+00  0.2639E+00  0.1796E+00  0.1795E+00
     -2.324  0.2546E+00  0.2548E+00  0.1938E+00  0.1937E+00
     -2.268  0.2253E+00  0.2255E+00  0.2064E+00  0.2063E+00
     -2.213  0.2184E+00  0.2183E+00  0.2186E+00  0.2185E+00
     -2.157  0.2669E+00  0.2664E+00  0.2335E+00  0.2334E+00
     -2.101  0.3293E+00  0.3290E+00  0.2519E+00  0.2517E+00
     -2.045  0.3427E+00  0.3428E+00  0.2710E+00  0.2709E+00
     -1.989  0.3278E+00  0.3278E+00  0.2893E+00  0.2892E+00
     -1.934  0.3357E+00  0.3357E+00  0.3080E+00  0.3079E+00
     -1.878  0.3146E+00  0.3149E+00  0.3256E+00  0.3255E+00
     -1.822  0.2719E+00  0.2720E+00  0.3407E+00  0.3406E+00
     -1.766  0.2968E+00  0.2964E+00  0.3573E+00  0.3572E+00
     -1.711  0.3766E+00  0.3761E+00  0.3783E+00  0.3782E+00
     -1.655  0.4328E+00  0.4327E+00  0.4025E+00  0.4023E+00
     -1.599  0.4272E+00  0.4274E+00  0.4263E+00  0.4262E+00
     -1.543  0.3956E+00  0.3957E+00  0.4484E+00  0.4483E+00
     -1.487  0.3865E+00  0.3865E+00  0.4700E+00  0.4698E+00
     -1.432  0.3809E+00  0.3810E+00  0.4912E+00  0.4911E+00
     -1.376  0.3903E+00  0.3901E+00  0.5130E+00  0.5128E+00
     -1.320  0.4356E+00  0.4353E+00  0.5373E+00  0.5371E+00
     -1.264  0.4582E+00  0.4583E+00  0.5629E+00  0.5627E+00
     -1.209  0.4289E+00  0.4292E+00  0.5868E+00  0.5867E+00
     -1.153  0.3629E+00  0.3634E+00  0.6070E+00  0.6069E+00
     -1.097  0.2984E+00  0.2987E+00  0.6237E+00  0.6236E+00
     -1.041  0.2803E+00  0.2802E+00  0.6394E+00  0.6393E+00
     -0.985  0.3200E+00  0.3196E+00  0.6572E+00  0.6571E+00
     -0.930  0.4004E+00  0.4000E+00  0.6796E+00  0.6794E+00
     -0.874  0.4173E+00  0.4175E+00  0.7028E+00  0.7027E+00
     -0.818  0.3550E+00  0.3554E+00  0.7227E+00  0.7226E+00
     -0.762  0.3002E+00  0.3004E+00  0.7394E+00  0.7393E+00
     -0.707  0.2576E+00  0.2577E+00  0.7538E+00  0.7537E+00
     -0.651  0.2545E+00  0.2542E+00  0.7680E+00  0.7679E+00
     -0.595  0.3499E+00  0.3490E+00  0.7875E+00  0.7874E+00
     -0.539  0.4782E+00  0.4777E+00  0.8142E+00  0.8141E+00
     -0.483  0.5003E+00  0.5005E+00  0.8422E+00  0.8420E+00
     -0.428  0.4299E+00  0.4302E+00  0.8662E+00  0.8660E+00
     -0.372  0.3857E+00  0.3859E+00  0.8877E+00  0.8875E+00
     -0.316  0.3403E+00  0.3406E+00  0.9067E+00  0.9065E+00
     -0.260  0.3195E+00  0.3194E+00  0.9245E+00  0.9244E+00
     -0.205  0.3950E+00  0.3943E+00  0.9465E+00  0.9464E+00
     -0.149  0.4777E+00  0.4774E+00  0.9732E+00  0.9730E+00
     -0.093  0.4530E+00  0.4534E+00  0.9985E+00  0.9983E+00
     -0.037  0.3649E+00  0.3653E+00  0.1019E+01  0.1019E+01
      0.019  0.3369E+00  0.3367E+00  0.1038E+01  0.1037E+01
      0.074  0.3621E+00  0.3618E+00  0.1058E+01  0.1058E+01
      0.130  0.4049E+00  0.4045E+00  0.1080E+01  0.1080E+01
      0.186  0.4952E+00  0.4945E+00  0.1108E+01  0.1108E+01
      0.242  0.5697E+00  0.5695E+00  0.1140E+01  0.1140E+01
      0.297  0.5229E+00  0.5236E+00  0.1169E+01  0.1169E+01
      0.353  0.4149E+00  0.4155E+00  0.1192E+01  0.1192E+01
      0.409  0.3592E+00  0.3594E+00  0.1212E+01  0.1212E+01
      0.465  0.3549E+00  0.3548E+00  0.1232E+01  0.1232E+01
      0.521  0.3957E+00  0.3953E+00  0.1254E+01  0.1254E+01
      0.576  0.4817E+00  0.4810E+00  0.1281E+01  0.1281E+01
      0.632  0.5448E+00  0.5447E+00  0.1311E+01  0.1311E+01
      0.688  0.4952E+00  0.4958E+00  0.1339E+01  0.1339E+01
      0.744  0.4255E+00  0.4257E+00  0.1363E+01  0.1363E+01
      0.799  0.4485E+00  0.4481E+00  0.1388E+01  0.1388E+01
      0.855  0.5153E+00  0.5149E+00  0.1417E+01  0.1416E+01
      0.911  0.5932E+00  0.5926E+00  0.1450E+01  0.1449E+01
      0.967  0.6857E+00  0.6852E+00  0.1488E+01  0.1488E+01
      1.023  0.7201E+00  0.7203E+00  0.1528E+01  0.1528E+01
      1.078  0.6574E+00  0.6579E+00  0.1565E+01  0.1565E+01
      1.134  0.6228E+00  0.6227E+00  0.1600E+01  0.1599E+01
      1.190  0.6737E+00  0.6732E+00  0.1637E+01  0.1637E+01
      1.246  0.7164E+00  0.7163E+00  0.1677E+01  0.1677E+01
      1.301  0.6752E+00  0.6758E+00  0.1715E+01  0.1715E+01
      1.357  0.5761E+00  0.5768E+00  0.1747E+01  0.1747E+01
      1.413  0.5330E+00  0.5330E+00  0.1777E+01  0.1777E+01
      1.469  0.5778E+00  0.5773E+00  0.1809E+01  0.1809E+01
      1.525  0.6504E+00  0.6500E+00  0.1845E+01  0.1845E+01
      1.580  0.6891E+00  0.6891E+00  0.1884E+01  0.1884E+01
      1.636  0.6793E+00  0.6796E+00  0.1922E+01  0.1921E+01
      1.692  0.6324E+00  0.6328E+00  0.1957E+01  0.1957E+01
      1.748  0.5929E+00  0.5929E+00  0.1990E+01  0.1990E+01
      1.803  0.6281E+00  0.6276E+00  0.2025E+01  0.2025E+01
      1.859  0.7020E+00  0.7016E+00  0.2064E+01  0.2064E+01
      1.915  0.7445E+00  0.7444E+00  0.2106E+01  0.2106E+01
      1.971  0.7292E+00  0.7295E+00  0.2147E+01  0.2146E+01
      2.027  0.6958E+00  0.6960E+00  0.2185E+01  0.2185E+01
      2.082  0.6394E+00  0.6400E+00  0.2221E+01  0.2221E+01
      2.138  0.5373E+00  0.5379E+00  0.2251E+01  0.2251E+01
      2.194  0.5013E+00  0.5012E+00  0.2279E+01  0.2279E+01
      2.250  0.5651E+00  0.5646E+00  0.2311E+01  0.2310E+01
      2.305  0.6126E+00  0.6124E+00  0.2345E+01  0.2345E+01
      2.361  0.6109E+00  0.6109E+00  0.2379E+01  0.2379E+01
      2.417  0.5924E+00  0.5926E+00  0.2412E+01  0.2412E+01
      2.473  0.5731E+00  0.5732E+00  0.2444E+01  0.2444E+01
      2.529  0.5626E+00  0.5627E+00  0.2475E+01  0.2475E+01
      2.584  0.5128E+00  0.5132E+00  0.2504E+01  0.2504E+01
      2.640  0.4732E+00  0.4732E+00  0.2530E+01  0.2530E+01
      2.696  0.5053E+00  0.5049E+00  0.2559E+01  0.2558E+01
      2.752  0.5603E+00  0.5599E+00  0.2590E+01  0.2590E+01
      2.807  0.5977E+00  0.5975E+00  0.2623E+01  0.2623E+01
      2.863  0.6116E+00  0.6116E+00  0.2657E+01  0.2657E+01
      2.919  0.6468E+00  0.6463E+00  0.2693E+01  0.2693E+01
      2.975  0.7905E+00  0.7895E+00  0.2738E+01  0.2737E+01
      3.031  0.9461E+00  0.9457E+00  0.2790E+01  0.2790E+01
      3.086  0.9180E+00  0.9189E+00  0.2842E+01  0.2841E+01
      3.142  0.7435E+00  0.7446E+00  0.2883E+01  0.2883E+01
      3.198  0.6030E+00  0.6035E+00  0.2917E+01  0.2916E+01
      3.254  0.5554E+00  0.5555E+00  0.2948E+01  0.2947E+01
      3.309  0.5514E+00  0.5513E+00  0.2978E+01  0.2978E+01
      3.365  0.5970E+00  0.5964E+00  0.3012E+01  0.3012E+01
      3.421  0.7165E+00  0.7155E+00  0.3052E+01  0.3051E+01
      3.477  0.8882E+00  0.8871E+00  0.3101E+01  0.3101E+01
      3.533  0.1023E+01  0.1023E+01  0.3158E+01  0.3158E+01
      3.588  0.9887E+00  0.9894E+00  0.3214E+01  0.3213E+01
      3.644  0.8580E+00  0.8587E+00  0.3261E+01  0.3261E+01
      3.700  0.8411E+00  0.8408E+00  0.3308E+01  0.3308E+01
      3.756  0.9649E+00  0.9641E+00  0.3362E+01  0.3362E+01
      3.811  0.1062E+01  0.1062E+01  0.3422E+01  0.3421E+01
      3.867  0.1031E+01  0.1031E+01  0.3479E+01  0.3479E+01
      3.923  0.9327E+00  0.9333E+00  0.3531E+01  0.3531E+01
      3.979  0.8555E+00  0.8559E+00  0.3579E+01  0.3579E+01
      4.035  0.8501E+00  0.8501E+00  0.3626E+01  0.3626E+01
      4.090  0.9050E+00  0.9045E+00  0.3677E+01  0.3676E+01
      4.146  0.1039E+01  0.1038E+01  0.3735E+01  0.3734E+01
      4.202  0.1177E+01  0.1176E+01  0.3800E+01  0.3800E+01
      4.258  0.1205E+01  0.1206E+01  0.3868E+01  0.3867E+01
      4.313  0.1114E+01  0.1115E+01  0.3930E+01  0.3930E+01
      4.369  0.1050E+01  0.1051E+01  0.3989E+01  0.3988E+01
      4.425  0.1125E+01  0.1124E+01  0.4051E+01  0.4051E+01
      4.481  0.1282E+01  0.1281E+01  0.4123E+01  0.4122E+01
      4.537  0.1375E+01  0.1375E+01  0.4200E+01  0.4199E+01
      4.592  0.1241E+01  0.1242E+01  0.4269E+01  0.4269E+01
      4.648  0.9938E+00  0.9949E+00  0.4324E+01  0.4324E+01
      4.704  0.9191E+00  0.9188E+00  0.4376E+01  0.4375E+01
      4.760  0.1160E+01  0.1158E+01  0.4440E+01  0.4440E+01
      4.815  0.1620E+01  0.1618E+01  0.4531E+01  0.4530E+01
      4.871  0.1961E+01  0.1960E+01  0.4640E+01  0.4640E+01
      4.927  0.1998E+01  0.1999E+01  0.4752E+01  0.4751E+01
      4.983  0.1808E+01  0.1810E+01  0.4853E+01  0.4852E+01
      5.039  0.1421E+01  0.1423E+01  0.4932E+01  0.4932E+01
      5.094  0.1105E+01  0.1106E+01  0.4994E+01  0.4993E+01
      5.150  0.1006E+01  0.1007E+01  0.5050E+01  0.5049E+01
      5.206  0.9680E+00  0.9683E+00  0.5104E+01  0.5104E+01
      5.262  0.9418E+00  0.9418E+00  0.5156E+01  0.5156E+01
      5.317  0.1015E+01  0.1014E+01  0.5213E+01  0.5213E+01
      5.373  0.1063E+01  0.1063E+01  0.5272E+01  0.5272E+01
      5.429  0.9813E+00  0.9818E+00  0.5327E+01  0.5327E+01
      5.485  0.8489E+00  0.8494E+00  0.5375E+01  0.5374E+01
      5.541  0.7825E+00  0.7828E+00  0.5418E+01  0.5418E+01
      5.596  0.7671E+00  0.7673E+00  0.5461E+01  0.5461E+01
      5.652  0.7541E+00  0.7543E+00  0.5503E+01  0.5503E+01
      5.708  0.7700E+00  0.7701E+00  0.5546E+01  0.5546E+01
      5.764  0.7818E+00  0.7819E+00  0.5590E+01  0.5590E+01
      5.819  0.7851E+00  0.7851E+00  0.5634E+01  0.5634E+01
      5.875  0.8063E+00  0.8063E+00  0.5679E+01  0.5679E+01
      5.931  0.8216E+00  0.8217E+00  0.5724E+01  0.5724E+01
      5.987  0.8149E+00  0.8152E+00  0.5770E+01  0.5770E+01
      6.043  0.7267E+00  0.7271E+00  0.5811E+01  0.5810E+01
      6.098  0.6194E+00  0.6196E+00  0.5845E+01  0.5845E+01
      6.154  0.6387E+00  0.6386E+00  0.5881E+01  0.5881E+01
      6.210  0.7670E+00  0.7669E+00  0.5924E+01  0.5924E+01
      6.266  0.8585E+00  0.8587E+00  0.5971E+01  0.5971E+01
      6.321  0.8546E+00  0.8547E+00  0.6019E+01  0.6019E+01
      6.377  0.7490E+00  0.7492E+00  0.6061E+01  0.6061E+01
      6.433  0.5507E+00  0.5508E+00  0.6092E+01  0.6092E+01
      6.489  0.4549E+00  0.4549E+00  0.6117E+01  0.6117E+01
      6.545  0.5672E+00  0.5672E+00  0.6149E+01  0.6149E+01
      6.600  0.7317E+00  0.7318E+00  0.6190E+01  0.6190E+01
      6.656  0.7641E+00  0.7643E+00  0.6232E+01  0.6232E+01
      6.712  0.7633E+00  0.7635E+00  0.6275E+01  0.6275E+01
      6.768  0.8711E+00  0.8712E+00  0.6323E+01  0.6324E+01
      6.823  0.1073E+01  0.1073E+01  0.6383E+01  0.6383E+01
      6.879  0.1270E+01  0.1270E+01  0.6454E+01  0.6454E+01
      6.935  0.1328E+01  0.1328E+01  0.6528E+01  0.6528E+01
      6.991  0.1281E+01  0.1282E+01  0.6600E+01  0.6600E+01
      7.047  0.1318E+01  0.1318E+01  0.6673E+01  0.6673E+01
      7.102  0.1489E+01  0.1488E+01  0.6756E+01  0.6756E+01
      7.158  0.1628E+01  0.1628E+01  0.6847E+01  0.6847E+01
      7.214  0.1620E+01  0.1620E+01  0.6938E+01  0.6938E+01
      7.270  0.1531E+01  0.1531E+01  0.7023E+01  0.7023E+01
      7.325  0.1488E+01  0.1487E+01  0.7106E+01  0.7106E+01
      7.381  0.1462E+01  0.1461E+01  0.7188E+01  0.7188E+01
      7.437  0.1489E+01  0.1489E+01  0.7271E+01  0.7271E+01
      7.493  0.1642E+01  0.1643E+01  0.7362E+01  0.7362E+01
      7.549  0.1923E+01  0.1923E+01  0.7470E+01  0.7470E+01
      7.604  0.2303E+01  0.2304E+01  0.7598E+01  0.7598E+01
      7.660  0.2648E+01  0.2649E+01  0.7746E+01  0.7746E+01
      7.716  0.2875E+01  0.2876E+01  0.7906E+01  0.7907E+01
      7.772  0.3098E+01  0.3100E+01  0.8079E+01  0.8080E+01
      7.827  0.3285E+01  0.3287E+01  0.8263E+01  0.8263E+01
      7.883  0.3223E+01  0.3223E+01  0.8442E+01  0.8443E+01
      7.939  0.2909E+01  0.2909E+01  0.8605E+01  0.8605E+01
      7.995  0.2489E+01  0.2488E+01  0.8744E+01  0.8744E+01
      8.051  0.2017E+01  0.2016E+01  0.8856E+01  0.8856E+01
      8.106  0.1581E+01  0.1579E+01  0.8944E+01  0.8945E+01
      8.162  0.1259E+01  0.1258E+01  0.9015E+01  0.9015E+01
      8.218  0.1059E+01  0.1058E+01  0.9074E+01  0.9074E+01
      8.274  0.9777E+00  0.9772E+00  0.9129E+01  0.9129E+01
      8.329  0.9627E+00  0.9622E+00  0.9182E+01  0.9182E+01
      8.385  0.9721E+00  0.9720E+00  0.9237E+01  0.9237E+01
      8.441  0.1065E+01  0.1065E+01  0.9296E+01  0.9296E+01
      8.497  0.1215E+01  0.1215E+01  0.9364E+01  0.9364E+01
      8.552  0.1256E+01  0.1257E+01  0.9434E+01  0.9434E+01
      8.608  0.1211E+01  0.1211E+01  0.9502E+01  0.9502E+01
      8.664  0.1205E+01  0.1205E+01  0.9569E+01  0.9569E+01
      8.720  0.1251E+01  0.1252E+01  0.9639E+01  0.9639E+01
      8.776  0.1295E+01  0.1295E+01  0.9711E+01  0.9711E+01
      8.831  0.1362E+01  0.1362E+01  0.9787E+01  0.9787E+01
      8.887  0.1448E+01  0.1448E+01  0.9868E+01  0.9868E+01
      8.943  0.1476E+01  0.1477E+01  0.9950E+01  0.9950E+01
      8.999  0.1413E+01  0.1414E+01  0.1003E+02  0.1003E+02
      9.054  0.1264E+01  0.1264E+01  0.1010E+02  0.1010E+02
      9.110  0.1169E+01  0.1170E+01  0.1016E+02  0.1017E+02
      9.166  0.1287E+01  0.1288E+01  0.1024E+02  0.1024E+02
      9.222  0.1490E+01  0.1491E+01  0.1032E+02  0.1032E+02
      9.278  0.1638E+01  0.1636E+01  0.1041E+02  0.1041E+02
      9.333  0.1699E+01  0.1698E+01  0.1051E+02  0.1051E+02
      9.389  0.1628E+01  0.1631E+01  0.1060E+02  0.1060E+02
      9.445  0.1490E+01  0.1492E+01  0.1068E+02  0.1068E+02
      9.501  0.1477E+01  0.1476E+01  0.1076E+02  0.1076E+02
      9.556  0.1519E+01  0.1519E+01  0.1085E+02  0.1085E+02
      9.612  0.1380E+01  0.1380E+01  0.1092E+02  0.1092E+02
      9.668  0.1216E+01  0.1218E+01  0.1099E+02  0.1099E+02
      9.724  0.1238E+01  0.1238E+01  0.1106E+02  0.1106E+02
      9.780  0.1407E+01  0.1404E+01  0.1114E+02  0.1114E+02
      9.835  0.1575E+01  0.1572E+01  0.1123E+02  0.1123E+02
      9.891  0.1538E+01  0.1538E+01  0.1131E+02  0.1131E+02
      9.947  0.1269E+01  0.1274E+01  0.1138E+02  0.1139E+02
     10.003  0.1022E+01  0.1036E+01  0.1144E+02  0.1144E+02
     10.058  0.9637E+00  0.9834E+00  0.1150E+02  0.1150E+02
     10.114  0.9361E+00  0.9516E+00  0.1155E+02  0.1155E+02
     10.170  0.8024E+00  0.8102E+00  0.1159E+02  0.1160E+02
     10.226  0.6678E+00  0.6729E+00  0.1163E+02  0.1163E+02
     10.282  0.6475E+00  0.6549E+00  0.1167E+02  0.1167E+02
     10.337  0.6663E+00  0.6786E+00  0.1170E+02  0.1171E+02
     10.393  0.5971E+00  0.6193E+00  0.1174E+02  0.1174E+02
     10.449  0.5105E+00  0.5527E+00  0.1176E+02  0.1177E+02
     10.505  0.5486E+00  0.5981E+00  0.1180E+02  0.1181E+02
     10.560  0.6590E+00  0.6750E+00  0.1183E+02  0.1184E+02
     10.616  0.6789E+00  0.6582E+00  0.1187E+02  0.1188E+02
     10.672  0.5977E+00  0.5662E+00  0.1190E+02  0.1191E+02
     10.728  0.5071E+00  0.4688E+00  0.1193E+02  0.1194E+02
     10.784  0.3967E+00  0.3533E+00  0.1195E+02  0.1196E+02
     10.839  0.2797E+00  0.2439E+00  0.1197E+02  0.1197E+02
     10.895  0.1943E+00  0.1759E+00  0.1198E+02  0.1198E+02
     10.951  0.1354E+00  0.1302E+00  0.1199E+02  0.1199E+02
     11.007  0.7841E-01  0.7947E-01  0.1199E+02  0.1199E+02
     11.062  0.3533E-01  0.3698E-01  0.1199E+02  0.1200E+02
     11.118  0.1509E-01  0.1592E-01  0.1200E+02  0.1200E+02
     11.174  0.1078E-01  0.1108E-01  0.1200E+02  0.1200E+02
     11.230  0.1314E-01  0.1326E-01  0.1200E+02  0.1200E+02
     11.286  0.1317E-01  0.1323E-01  0.1200E+02  0.1200E+02
     11.341  0.8009E-02  0.8039E-02  0.1200E+02  0.1200E+02
     11.397  0.3485E-02  0.3490E-02  0.1200E+02  0.1200E+02
     11.453  0.1314E-02  0.1269E-02  0.1200E+02  0.1200E+02
     11.509  0.5945E-03  0.4308E-03  0.1200E+02  0.1200E+02
     11.564  0.6410E-03  0.1429E-03  0.1200E+02  0.1200E+02
     11.620  0.1479E-02  0.4700E-04  0.1200E+02  0.1200E+02
     11.676  0.3671E-02  0.0000E+00  0.1200E+02  0.1200E+02
     11.732  0.7203E-02  0.0000E+00  0.1200E+02  0.1200E+02
     11.788  0.8827E-02  0.0000E+00  0.1200E+02  0.1200E+02
     11.843  0.6229E-02  0.0000E+00  0.1200E+02  0.1200E+02
     11.899  0.2893E-02  0.0000E+00  0.1200E+02  0.1200E+02
     11.955  0.1082E-02  0.0000E+00  0.1200E+02  0.1200E+02
     12.011  0.3712E-03  0.0000E+00  0.1200E+02  0.1200E+02
     12.066  0.1235E-03  0.0000E+00  0.1200E+02  0.1200E+02
     12.122  0.4070E-04  0.0000E+00  0.1200E+02  0.1200E+02
     12.178  0.0000E+00  0.0000E+00  0.1200E+02  0.1200E+02
     12.234  0.0000E+00  0.0000E+00  0.1200E+02  0.1200E+02
     12.290  0.0000E+00  0.0000E+00  0.1200E+02  0.1200E+02
     12.345  0.0000E+00  0.0000E+00  0.1200E+02  0.1200E+02
     12.401  0.0000E+00  0.0000E+00  0.1200E+02  0.1200E+02
     12.457  0.0000E+00  0.0000E+00  0.1200E+02  0.1200E+02
     12.513  0.0000E+00  0.0000E+00  0.1200E+02  0.1200E+02
     12.51270529     -4.22056373  301      6.91348814      1.00000000
     -4.221  0.0000E+00  0.0000E+00  0.0000E+00  0.0000E+00  0.0000E+00  0.0000E+00  0.0000E+00  0.0000E+00  0.0000E+00  0.0000E+00  0.0000E+00  0.0000E+00  0.0000E+00  0.0000E+00  0.0000E+00  0.0000E+00  0.0000E+00  0.0000E+00
     -4.165  0.0000E+00  0.0000E+00  0.0000E+00  0.0000E+00  0.0000E+00  0.0000E+00  0.0000E+00  0.0000E+00  0.0000E+00  0.0000E+00  0.0000E+00  0.0000E+00  0.0000E+00  0.0000E+00  0.0000E+00  0.0000E+00  0.0000E+00  0.0000E+00
     -4.109  0.0000E+00  0.0000E+00  0.0000E+00  0.0000E+00  0.0000E+00  0.0000E+00  0.0000E+00  0.0000E+00  0.0000E+00  0.0000E+00  0.0000E+00  0.0000E+00  0.0000E+00  0.0000E+00  0.0000E+00  0.0000E+00  0.0000E+00  0.0000E+00
     -4.053  0.0000E+00  0.0000E+00  0.0000E+00  0.0000E+00  0.0000E+00  0.0000E+00  0.0000E+00  0.0000E+00  0.0000E+00  0.0000E+00  0.0000E+00  0.0000E+00  0.0000E+00  0.0000E+00  0.0000E+00  0.0000E+00  0.0000E+00  0.0000E+00
     -3.997  0.0000E+00  0.0000E+00  0.0000E+00  0.0000E+00  0.0000E+00  0.0000E+00  0.0000E+00  0.0000E+00  0.0000E+00  0.0000E+00  0.0000E+00  0.0000E+00  0.0000E+00  0.0000E+00  0.0000E+00  0.0000E+00  0.0000E+00  0.0000E+00
     -3.942  0.0000E+00  0.0000E+00  0.0000E+00  0.0000E+00  0.0000E+00  0.0000E+00  0.0000E+00  0.0000E+00  0.0000E+00  0.0000E+00  0.0000E+00  0.0000E+00  0.0000E+00  0.0000E+00  0.0000E+00  0.0000E+00  0.0000E+00  0.0000E+00
     -3.886  0.1842E-06  0.1828E-06  0.5255E-21  0.5846E-22  0.5255E-21  0.5846E-22  0.5078E-21  0.1045E-21  0.5643E-23  0.3317E-23  0.1324E-22  0.6865E-22  0.1251E-15  0.1187E-15  0.5643E-23  0.3317E-23  0.1609E-15  0.1526E-15
     -3.830  0.1505E-05  0.1493E-05  0.3332E-08  0.3306E-08  0.3332E-08  0.3306E-08  0.3330E-08  0.3305E-08  0.1638E-20  0.3912E-21  0.8173E-20  0.8186E-21  0.1233E-10  0.1224E-10  0.1638E-20  0.3912E-21  0.1579E-10  0.1567E-10
     -3.774  0.5767E-05  0.5723E-05  0.2056E-07  0.2040E-07  0.2056E-07  0.2040E-07  0.2055E-07  0.2039E-07  0.1286E-09  0.1276E-09  0.1286E-09  0.1276E-09  0.5795E-10  0.5750E-10  0.1286E-09  0.1276E-09  0.5768E-10  0.5724E-10
     -3.719  0.1684E-04  0.1671E-04  0.6311E-07  0.6263E-07  0.6311E-07  0.6263E-07  0.6310E-07  0.6262E-07  0.5309E-09  0.5269E-09  0.5309E-09  0.5269E-09  0.1440E-09  0.1429E-09  0.5309E-09  0.5269E-09  0.1505E-09  0.1493E-09
     -3.663  0.5070E-04  0.5032E-04  0.1929E-06  0.1914E-06  0.1929E-06  0.1914E-06  0.1928E-06  0.1914E-06  0.1351E-08  0.1341E-08  0.1351E-08  0.1341E-08  0.6546E-09  0.6495E-09  0.1351E-08  0.1341E-08  0.7358E-09  0.7301E-09
     -3.607  0.1558E-03  0.1546E-03  0.6463E-06  0.6414E-06  0.6463E-06  0.6414E-06  0.6460E-06  0.6412E-06  0.5295E-08  0.5255E-08  0.5297E-08  0.5257E-08  0.2537E-08  0.2517E-08  0.5295E-08  0.5255E-08  0.2848E-08  0.2826E-08
     -3.551  0.4525E-03  0.4493E-03  0.1949E-05  0.1935E-05  0.1949E-05  0.1935E-05  0.1949E-05  0.1934E-05  0.1761E-07  0.1748E-07  0.1762E-07  0.1748E-07  0.7362E-08  0.7305E-08  0.1761E-07  0.1748E-07  0.8311E-08  0.8248E-08
     -3.495  0.1209E-02  0.1201E-02  0.5507E-05  0.5468E-05  0.5507E-05  0.5468E-05  0.5504E-05  0.5466E-05  0.4960E-07  0.4924E-07  0.4961E-07  0.4924E-07  0.2083E-07  0.2068E-07  0.4960E-07  0.4924E-07  0.2341E-07  0.2324E-07
     -3.440  0.2778E-02  0.2764E-02  0.1447E-04  0.1438E-04  0.1447E-04  0.1438E-04  0.1446E-04  0.1437E-04  0.1432E-06  0.1422E-06  0.1432E-06  0.1422E-06  0.5675E-07  0.5637E-07  0.1432E-06  0.1422E-06  0.6348E-07  0.6306E-07
     -3.384  0.5092E-02  0.5075E-02  0.3223E-04  0.3208E-04  0.3223E-04  0.3208E-04  0.3222E-04  0.3207E-04  0.3700E-06  0.3678E-06  0.3701E-06  0.3679E-06  0.1391E-06  0.1383E-06  0.3700E-06  0.3678E-06  0.1569E-06  0.1560E-06
     -3.328  0.7313E-02  0.7299E-02  0.5939E-04  0.5917E-04  0.5939E-04  0.5917E-04  0.5936E-04  0.5914E-04  0.7979E-06  0.7940E-06  0.7980E-06  0.7942E-06  0.3174E-06  0.3156E-06  0.7979E-06  0.7940E-06  0.3683E-06  0.3662E-06
     -3.272  0.9032E-02  0.9020E-02  0.9808E-04  0.9775E-04  0.9808E-04  0.9775E-04  0.9802E-04  0.9770E-04  0.1545E-05  0.1538E-05  0.1545E-05  0.1539E-05  0.6872E-06  0.6836E-06  0.1545E-05  0.1538E-05  0.8176E-06  0.8132E-06
     -3.217  0.1116E-01  0.1114E-01  0.1560E-03  0.1555E-03  0.1560E-03  0.1555E-03  0.1559E-03  0.1554E-03  0.2905E-05  0.2893E-05  0.2906E-05  0.2894E-05  0.1284E-05  0.1279E-05  0.2905E-05  0.2893E-05  0.1533E-05  0.1528E-05
     -3.161  0.1332E-01  0.1331E-01  0.2199E-03  0.2195E-03  0.2199E-03  0.2195E-03  0.2198E-03  0.2194E-03  0.4965E-05  0.4950E-05  0.4966E-05  0.4950E-05  0.1868E-05  0.1864E-05  0.4965E-05  0.4950E-05  0.2211E-05  0.2207E-05
     -3.105  0.1345E-01  0.1345E-01  0.2572E-03  0.2569E-03  0.2572E-03  0.2569E-03  0.2571E-03  0.2569E-03  0.7094E-05  0.7078E-05  0.7095E-05  0.7079E-05  0.2308E-05  0.2303E-05  0.7094E-05  0.7078E-05  0.2670E-05  0.2666E-05
     -3.049  0.1291E-01  0.1290E-01  0.3005E-03  0.2999E-03  0.3005E-03  0.2999E-03  0.3003E-03  0.2997E-03  0.9894E-05  0.9867E-05  0.9897E-05  0.9870E-05  0.3283E-05  0.3270E-05  0.9894E-05  0.9867E-05  0.3708E-05  0.3693E-05
     -2.993  0.1471E-01  0.1469E-01  0.4097E-03  0.4087E-03  0.4097E-03  0.4087E-03  0.4093E-03  0.4083E-03  0.1456E-04  0.1452E-04  0.1456E-04  0.1453E-04  0.5580E-05  0.5556E-05  0.1456E-04  0.1452E-04  0.6406E-05  0.6376E-05
     -2.938  0.1728E-01  0.1726E-01  0.5392E-03  0.5384E-03  0.5392E-03  0.5384E-03  0.5388E-03  0.5380E-03  0.1934E-04  0.1931E-04  0.1935E-04  0.1931E-04  0.8703E-05  0.8676E-05  0.1934E-04  0.1931E-04  0.1032E-04  0.1028E-04
     -2.882  0.1791E-01  0.1791E-01  0.6151E-03  0.6146E-03  0.6151E-03  0.6146E-03  0.6149E-03  0.6145E-03  0.2386E-04  0.2382E-04  0.2387E-04  0.2383E-04  0.1081E-04  0.1079E-04  0.2386E-04  0.2382E-04  0.1303E-04  0.1301E-04
     -2.826  0.1723E-01  0.1723E-01  0.6574E-03  0.6569E-03  0.6574E-03  0.6569E-03  0.6574E-03  0.6570E-03  0.3142E-04  0.3135E-04  0.3144E-04  0.3136E-04  0.1122E-04  0.1121E-04  0.3142E-04  0.3135E-04  0.1332E-04  0.1330E-04
     -2.770  0.1756E-01  0.1755E-01  0.7484E-03  0.7475E-03  0.7484E-03  0.7475E-03  0.7482E-03  0.7473E-03  0.4382E-04  0.4372E-04  0.4384E-04  0.4374E-04  0.1217E-04  0.1214E-04  0.4382E-04  0.4372E-04  0.1388E-04  0.1386E-04
     -2.715  0.1855E-01  0.1855E-01  0.8630E-03  0.8624E-03  0.8630E-03  0.8624E-03  0.8627E-03  0.8620E-03  0.5553E-04  0.5548E-04  0.5553E-04  0.5547E-04  0.1448E-04  0.1445E-04  0.5553E-04  0.5548E-04  0.1633E-04  0.1629E-04
     -2.659  0.1743E-01  0.1745E-01  0.8855E-03  0.8854E-03  0.8855E-03  0.8854E-03  0.8849E-03  0.8847E-03  0.5741E-04  0.5742E-04  0.5740E-04  0.5740E-04  0.1732E-04  0.1728E-04  0.5741E-04  0.5742E-04  0.2012E-04  0.2006E-04
     -2.603  0.1682E-01  0.1681E-01  0.9678E-03  0.9663E-03  0.9678E-03  0.9663E-03  0.9664E-03  0.9649E-03  0.6135E-04  0.6125E-04  0.6136E-04  0.6127E-04  0.2366E-04  0.2358E-04  0.6135E-04  0.6125E-04  0.2845E-04  0.2835E-04
     -2.547  0.1970E-01  0.1967E-01  0.1250E-02  0.1248E-02  0.1250E-02  0.1248E-02  0.1249E-02  0.1247E-02  0.8253E-04  0.8234E-04  0.8260E-04  0.8241E-04  0.3385E-04  0.3376E-04  0.8253E-04  0.8234E-04  0.4081E-04  0.4070E-04
     -2.491  0.2213E-01  0.2212E-01  0.1489E-02  0.1488E-02  0.1489E-02  0.1488E-02  0.1489E-02  0.1488E-02  0.1085E-03  0.1083E-03  0.1086E-03  0.1084E-03  0.4075E-04  0.4069E-04  0.1085E-03  0.1083E-03  0.4810E-04  0.4804E-04
     -2.436  0.2197E-01  0.2198E-01  0.1570E-02  0.1569E-02  0.1570E-02  0.1569E-02  0.1570E-02  0.1569E-02  0.1295E-03  0.1293E-03  0.1295E-03  0.1293E-03  0.4231E-04  0.4227E-04  0.1295E-03  0.1293E-03  0.4873E-04  0.4869E-04
     -2.380  0.2137E-01  0.2137E-01  0.1634E-02  0.1633E-02  0.1634E-02  0.1633E-02  0.1634E-02  0.1633E-02  0.1499E-03  0.1497E-03  0.1499E-03  0.1497E-03  0.4340E-04  0.4336E-04  0.1499E-03  0.1497E-03  0.4982E-04  0.4978E-04
     -2.324  0.2024E-01  0.2025E-01  0.1640E-02  0.1641E-02  0.1640E-02  0.1641E-02  0.1641E-02  0.1641E-02  0.1670E-03  0.1668E-03  0.1669E-03  0.1668E-03  0.4152E-04  0.4153E-04  0.1670E-03  0.1668E-03  0.4799E-04  0.4800E-04
     -2.268  0.1750E-01  0.1752E-01  0.1517E-02  0.1517E-02  0.1517E-02  0.1517E-02  0.1517E-02  0.1517E-02  0.1710E-03  0.1709E-03  0.1710E-03  0.1709E-03  0.3655E-04  0.3654E-04  0.1710E-03  0.1709E-03  0.4237E-04  0.4237E-04
     -2.213  0.1631E-01  0.1630E-01  0.1580E-02  0.1578E-02  0.1580E-02  0.1578E-02  0.1577E-02  0.1575E-02  0.1850E-03  0.1847E-03  0.1851E-03  0.1849E-03  0.4203E-04  0.4192E-04  0.1850E-03  0.1847E-03  0.4897E-04  0.4883E-04
     -2.157  0.1910E-01  0.1907E-01  0.2067E-02  0.2062E-02  0.2067E-02  0.2062E-02  0.2061E-02  0.2057E-02  0.2350E-03  0.2345E-03  0.2353E-03  0.2348E-03  0.6445E-04  0.6424E-04  0.2350E-03  0.2345E-03  0.7517E-04  0.7492E-04
     -2.101  0.2289E-01  0.2287E-01  0.2660E-02  0.2657E-02  0.2660E-02  0.2657E-02  0.2656E-02  0.2652E-02  0.2953E-03  0.2949E-03  0.2954E-03  0.2950E-03  0.9031E-04  0.9014E-04  0.2953E-03  0.2949E-03  0.1057E-03  0.1055E-03
     -2.045  0.2325E-01  0.2325E-01  0.2856E-02  0.2856E-02  0.2856E-02  0.2856E-02  0.2856E-02  0.2855E-02  0.3251E-03  0.3249E-03  0.3250E-03  0.3248E-03  0.9861E-04  0.9858E-04  0.3251E-03  0.3249E-03  0.1166E-03  0.1166E-03
     -1.989  0.2159E-01  0.2160E-01  0.2825E-02  0.2825E-02  0.2825E-02  0.2825E-02  0.2825E-02  0.2824E-02  0.3530E-03  0.3526E-03  0.3530E-03  0.3527E-03  0.9460E-04  0.9458E-04  0.3530E-03  0.3526E-03  0.1128E-03  0.1127E-03
     -1.934  0.2146E-01  0.2146E-01  0.2987E-02  0.2986E-02  0.2987E-02  0.2986E-02  0.2986E-02  0.2984E-02  0.4098E-03  0.4094E-03  0.4100E-03  0.4096E-03  0.9717E-04  0.9712E-04  0.4098E-03  0.4094E-03  0.1158E-03  0.1157E-03
     -1.878  0.1954E-01  0.1956E-01  0.2875E-02  0.2877E-02  0.2875E-02  0.2877E-02  0.2877E-02  0.2879E-02  0.4174E-03  0.4175E-03  0.4174E-03  0.4175E-03  0.9389E-04  0.9393E-04  0.4174E-03  0.4175E-03  0.1109E-03  0.1110E-03
     -1.822  0.1619E-01  0.1620E-01  0.2576E-02  0.2576E-02  0.2576E-02  0.2576E-02  0.2576E-02  0.2576E-02  0.4148E-03  0.4145E-03  0.4152E-03  0.4148E-03  0.8200E-04  0.8202E-04  0.4148E-03  0.4145E-03  0.9399E-04  0.9404E-04
     -1.766  0.1661E-01  0.1660E-01  0.2951E-02  0.2946E-02  0.2951E-02  0.2946E-02  0.2943E-02  0.2938E-02  0.5281E-03  0.5270E-03  0.5290E-03  0.5278E-03  0.8670E-04  0.8658E-04  0.5281E-03  0.5270E-03  0.9613E-04  0.9601E-04
     -1.711  0.1969E-01  0.1967E-01  0.3938E-02  0.3931E-02  0.3938E-02  0.3931E-02  0.3924E-02  0.3917E-02  0.7057E-03  0.7046E-03  0.7064E-03  0.7053E-03  0.1075E-03  0.1074E-03  0.7057E-03  0.7046E-03  0.1195E-03  0.1193E-03
     -1.655  0.2082E-01  0.2082E-01  0.4782E-02  0.4779E-02  0.4782E-02  0.4779E-02  0.4770E-02  0.4766E-02  0.8048E-03  0.8045E-03  0.8048E-03  0.8045E-03  0.1233E-03  0.1232E-03  0.8048E-03  0.8045E-03  0.1395E-03  0.1394E-03
     -1.599  0.1867E-01  0.1869E-01  0.4976E-02  0.4976E-02  0.4976E-02  0.4976E-02  0.4971E-02  0.4972E-02  0.7961E-03  0.7962E-03  0.7958E-03  0.7960E-03  0.1210E-03  0.1210E-03  0.7961E-03  0.7962E-03  0.1390E-03  0.1391E-03
     -1.543  0.1571E-01  0.1572E-01  0.4805E-02  0.4805E-02  0.4805E-02  0.4805E-02  0.4803E-02  0.4803E-02  0.7908E-03  0.7905E-03  0.7911E-03  0.7909E-03  0.1099E-03  0.1099E-03  0.7908E-03  0.7905E-03  0.1279E-03  0.1279E-03
     -1.487  0.1396E-01  0.1396E-01  0.4849E-02  0.4848E-02  0.4849E-02  0.4848E-02  0.4846E-02  0.4845E-02  0.8579E-03  0.8573E-03  0.8587E-03  0.8582E-03  0.1061E-03  0.1061E-03  0.8579E-03  0.8573E-03  0.1243E-03  0.1243E-03
     -1.432  0.1292E-01  0.1292E-01  0.4845E-02  0.4845E-02  0.4845E-02  0.4845E-02  0.4850E-02  0.4850E-02  0.9597E-03  0.9587E-03  0.9607E-03  0.9598E-03  0.1034E-03  0.1034E-03  0.9597E-03  0.9587E-03  0.1189E-03  0.1189E-03