   4   4   1   0
  0.1185349E+02  0.3618826E-09  0.3619673E-09  0.3619673E-09  0.5000000E-15
  1.000000000000000E-004
  CAR 
 unknown system                          
     18.70771232     -3.05294520  301     10.41120645      1.00000000
     -3.053  0.0000E+00  0.0000E+00  0.0000E+00  0.0000E+00
     -2.980  0.0000E+00  0.0000E+00  0.0000E+00  0.0000E+00
     -2.908  0.0000E+00  0.0000E+00  0.0000E+00  0.0000E+00
     -2.835  0.0000E+00  0.0000E+00  0.0000E+00  0.0000E+00
     -2.763  0.0000E+00  0.0000E+00  0.0000E+00  0.0000E+00
     -2.690  0.0000E+00  0.0000E+00  0.0000E+00  0.0000E+00
     -2.618  0.0000E+00  0.0000E+00  0.0000E+00  0.0000E+00
     -2.545  0.0000E+00  0.0000E+00  0.0000E+00  0.0000E+00
     -2.473  0.1764E-05  0.1757E-05  0.1279E-06  0.1275E-06
     -2.400  0.1695E-04  0.1689E-04  0.1357E-05  0.1353E-05
     -2.328  0.8876E-04  0.8845E-04  0.7796E-05  0.7768E-05
     -2.255  0.3510E-03  0.3498E-03  0.3326E-04  0.3314E-04
     -2.183  0.1457E-02  0.1452E-02  0.1390E-03  0.1385E-03
     -2.110  0.5491E-02  0.5474E-02  0.5373E-03  0.5356E-03
     -2.037  0.1668E-01  0.1664E-01  0.1747E-02  0.1742E-02
     -1.965  0.3631E-01  0.3626E-01  0.4381E-02  0.4372E-02
     -1.892  0.5433E-01  0.5429E-01  0.8321E-02  0.8311E-02
     -1.820  0.6392E-01  0.6390E-01  0.1296E-01  0.1295E-01
     -1.747  0.8254E-01  0.8247E-01  0.1894E-01  0.1893E-01
     -1.675  0.1080E+00  0.1079E+00  0.2678E-01  0.2676E-01
     -1.602  0.1028E+00  0.1028E+00  0.3423E-01  0.3422E-01
     -1.530  0.8998E-01  0.8996E-01  0.4076E-01  0.4074E-01
     -1.457  0.1168E+00  0.1167E+00  0.4923E-01  0.4921E-01
     -1.385  0.1479E+00  0.1479E+00  0.5997E-01  0.5994E-01
     -1.312  0.1491E+00  0.1491E+00  0.7079E-01  0.7077E-01
     -1.240  0.1374E+00  0.1374E+00  0.8077E-01  0.8075E-01
     -1.167  0.1503E+00  0.1502E+00  0.9167E-01  0.9164E-01
     -1.094  0.1694E+00  0.1694E+00  0.1040E+00  0.1039E+00
     -1.022  0.1408E+00  0.1409E+00  0.1142E+00  0.1142E+00
     -0.949  0.1435E+00  0.1434E+00  0.1246E+00  0.1246E+00
     -0.877  0.2016E+00  0.2015E+00  0.1392E+00  0.1392E+00
     -0.804  0.2211E+00  0.2211E+00  0.1553E+00  0.1552E+00
     -0.732  0.2105E+00  0.2105E+00  0.1706E+00  0.1705E+00
     -0.659  0.2155E+00  0.2155E+00  0.1862E+00  0.1862E+00
     -0.587  0.1983E+00  0.1984E+00  0.2006E+00  0.2006E+00
     -0.514  0.1547E+00  0.1549E+00  0.2118E+00  0.2118E+00
     -0.442  0.1728E+00  0.1726E+00  0.2244E+00  0.2243E+00
     -0.369  0.2496E+00  0.2494E+00  0.2425E+00  0.2424E+00
     -0.297  0.2940E+00  0.2940E+00  0.2638E+00  0.2638E+00
     -0.224  0.2631E+00  0.2632E+00  0.2829E+00  0.2829E+00
     -0.152  0.2724E+00  0.2723E+00  0.3027E+00  0.3026E+00
     -0.079  0.2775E+00  0.2776E+00  0.3228E+00  0.3228E+00
     -0.006  0.2104E+00  0.2105E+00  0.3381E+00  0.3380E+00
      0.066  0.2164E+00  0.2161E+00  0.3538E+00  0.3538E+00
      0.139  0.3008E+00  0.3005E+00  0.3757E+00  0.3756E+00
      0.211  0.3565E+00  0.3563E+00  0.4015E+00  0.4014E+00
      0.284  0.3481E+00  0.3482E+00  0.4268E+00  0.4267E+00
      0.356  0.3199E+00  0.3199E+00  0.4500E+00  0.4499E+00
      0.429  0.3211E+00  0.3210E+00  0.4733E+00  0.4732E+00
      0.501  0.3274E+00  0.3273E+00  0.4971E+00  0.4970E+00
      0.574  0.3563E+00  0.3561E+00  0.5229E+00  0.5228E+00
      0.646  0.3952E+00  0.3950E+00  0.5516E+00  0.5515E+00
      0.719  0.3890E+00  0.3890E+00  0.5799E+00  0.5797E+00
      0.791  0.3351E+00  0.3355E+00  0.6042E+00  0.6041E+00
      0.864  0.2539E+00  0.2541E+00  0.6226E+00  0.6225E+00
      0.937  0.2386E+00  0.2384E+00  0.6399E+00  0.6398E+00
      1.009  0.2986E+00  0.2979E+00  0.6616E+00  0.6615E+00
      1.082  0.3893E+00  0.3890E+00  0.6899E+00  0.6897E+00
      1.154  0.3482E+00  0.3488E+00  0.7152E+00  0.7150E+00
      1.227  0.2765E+00  0.2767E+00  0.7352E+00  0.7351E+00
      1.299  0.2272E+00  0.2275E+00  0.7517E+00  0.7516E+00
      1.372  0.1944E+00  0.1942E+00  0.7658E+00  0.7657E+00
      1.444  0.2966E+00  0.2955E+00  0.7874E+00  0.7872E+00
      1.517  0.4261E+00  0.4260E+00  0.8183E+00  0.8181E+00
      1.589  0.4025E+00  0.4033E+00  0.8475E+00  0.8474E+00
      1.662  0.3207E+00  0.3210E+00  0.8708E+00  0.8707E+00
      1.734  0.2899E+00  0.2900E+00  0.8918E+00  0.8917E+00
      1.807  0.3233E+00  0.3229E+00  0.9153E+00  0.9151E+00
      1.879  0.3539E+00  0.3534E+00  0.9410E+00  0.9408E+00
      1.952  0.3514E+00  0.3515E+00  0.9665E+00  0.9664E+00
      2.025  0.3019E+00  0.3029E+00  0.9884E+00  0.9883E+00
      2.097  0.2475E+00  0.2483E+00  0.1006E+01  0.1006E+01
      2.170  0.2235E+00  0.2234E+00  0.1023E+01  0.1023E+01
      2.242  0.2395E+00  0.2386E+00  0.1040E+01  0.1040E+01
      2.315  0.3556E+00  0.3550E+00  0.1066E+01  0.1066E+01
      2.387  0.3842E+00  0.3849E+00  0.1094E+01  0.1094E+01
      2.460  0.2882E+00  0.2889E+00  0.1115E+01  0.1115E+01
      2.532  0.3062E+00  0.3064E+00  0.1137E+01  0.1137E+01
      2.605  0.3755E+00  0.3753E+00  0.1164E+01  0.1164E+01
      2.677  0.3582E+00  0.3577E+00  0.1190E+01  0.1190E+01
      2.750  0.3672E+00  0.3670E+00  0.1217E+01  0.1217E+01
      2.822  0.3774E+00  0.3778E+00  0.1244E+01  0.1244E+01
      2.895  0.2891E+00  0.2896E+00  0.1265E+01  0.1265E+01
      2.968  0.2192E+00  0.2195E+00  0.1281E+01  0.1281E+01
      3.040  0.2993E+00  0.2992E+00  0.1303E+01  0.1303E+01
      3.113  0.4061E+00  0.4059E+00  0.1332E+01  0.1332E+01
      3.185  0.4160E+00  0.4154E+00  0.1362E+01  0.1362E+01
      3.258  0.4563E+00  0.4562E+00  0.1396E+01  0.1395E+01
      3.330  0.4790E+00  0.4793E+00  0.1430E+01  0.1430E+01
      3.403  0.4438E+00  0.4438E+00  0.1462E+01  0.1462E+01
      3.475  0.4667E+00  0.4666E+00  0.1496E+01  0.1496E+01
      3.548  0.5021E+00  0.5022E+00  0.1533E+01  0.1533E+01
      3.620  0.4697E+00  0.4698E+00  0.1567E+01  0.1567E+01
      3.693  0.4846E+00  0.4843E+00  0.1602E+01  0.1602E+01
      3.765  0.5827E+00  0.5826E+00  0.1644E+01  0.1644E+01
      3.838  0.5655E+00  0.5659E+00  0.1685E+01  0.1685E+01
      3.910  0.5275E+00  0.5274E+00  0.1724E+01  0.1724E+01
      3.983  0.5307E+00  0.5304E+00  0.1762E+01  0.1762E+01
      4.056  0.4953E+00  0.4953E+00  0.1798E+01  0.1798E+01
      4.128  0.4577E+00  0.4576E+00  0.1831E+01  0.1831E+01
      4.201  0.5750E+00  0.5744E+00  0.1873E+01  0.1873E+01
      4.273  0.6677E+00  0.6678E+00  0.1922E+01  0.1922E+01
      4.346  0.5990E+00  0.5988E+00  0.1965E+01  0.1965E+01
      4.418  0.5826E+00  0.5818E+00  0.2007E+01  0.2007E+01
      4.491  0.6575E+00  0.6565E+00  0.2055E+01  0.2055E+01
      4.563  0.7247E+00  0.7247E+00  0.2108E+01  0.2107E+01
      4.636  0.6274E+00  0.6279E+00  0.2153E+01  0.2153E+01
      4.708  0.5651E+00  0.5647E+00  0.2194E+01  0.2194E+01
      4.781  0.5902E+00  0.5901E+00  0.2237E+01  0.2237E+01
      4.853  0.5513E+00  0.5518E+00  0.2277E+01  0.2277E+01
      4.926  0.5660E+00  0.5658E+00  0.2318E+01  0.2318E+01
      4.998  0.5763E+00  0.5761E+00  0.2360E+01  0.2360E+01
      5.071  0.5707E+00  0.5705E+00  0.2402E+01  0.2401E+01
      5.144  0.5262E+00  0.5265E+00  0.2440E+01  0.2439E+01
      5.216  0.4539E+00  0.4535E+00  0.2473E+01  0.2472E+01
      5.289  0.4533E+00  0.4534E+00  0.2506E+01  0.2505E+01
      5.361  0.4681E+00  0.4681E+00  0.2540E+01  0.2539E+01
      5.434  0.5615E+00  0.5610E+00  0.2580E+01  0.2580E+01
      5.506  0.6141E+00  0.6139E+00  0.2625E+01  0.2625E+01
      5.579  0.6309E+00  0.6301E+00  0.2671E+01  0.2670E+01
      5.651  0.6868E+00  0.6856E+00  0.2721E+01  0.2720E+01
      5.724  0.7832E+00  0.7821E+00  0.2777E+01  0.2777E+01
      5.796  0.7684E+00  0.7691E+00  0.2833E+01  0.2833E+01
      5.869  0.6351E+00  0.6362E+00  0.2879E+01  0.2879E+01
      5.941  0.5582E+00  0.5587E+00  0.2920E+01  0.2919E+01
      6.014  0.5615E+00  0.5615E+00  0.2961E+01  0.2960E+01
      6.087  0.5715E+00  0.5711E+00  0.3002E+01  0.3002E+01
      6.159  0.6655E+00  0.6635E+00  0.3050E+01  0.3050E+01
      6.232  0.8336E+00  0.8317E+00  0.3111E+01  0.3110E+01
      6.304  0.8918E+00  0.8920E+00  0.3176E+01  0.3175E+01
      6.377  0.8101E+00  0.8110E+00  0.3234E+01  0.3234E+01
      6.449  0.7140E+00  0.7138E+00  0.3286E+01  0.3286E+01
      6.522  0.8062E+00  0.8036E+00  0.3345E+01  0.3344E+01
      6.594  0.1035E+01  0.1034E+01  0.3420E+01  0.3419E+01
      6.667  0.1058E+01  0.1059E+01  0.3497E+01  0.3496E+01
      6.739  0.9423E+00  0.9423E+00  0.3565E+01  0.3564E+01
      6.812  0.9336E+00  0.9328E+00  0.3633E+01  0.3632E+01
      6.884  0.9240E+00  0.9237E+00  0.3700E+01  0.3699E+01
      6.957  0.9424E+00  0.9410E+00  0.3768E+01  0.3767E+01
      7.029  0.9831E+00  0.9797E+00  0.3840E+01  0.3838E+01
      7.102  0.1159E+01  0.1152E+01  0.3924E+01  0.3922E+01
      7.175  0.1348E+01  0.1345E+01  0.4022E+01  0.4020E+01
      7.247  0.1292E+01  0.1294E+01  0.4115E+01  0.4113E+01
      7.320  0.1179E+01  0.1180E+01  0.4201E+01  0.4199E+01
      7.392  0.1127E+01  0.1126E+01  0.4283E+01  0.4281E+01
      7.465  0.1032E+01  0.1034E+01  0.4358E+01  0.4356E+01
      7.537  0.8757E+00  0.8761E+00  0.4421E+01  0.4420E+01
      7.610  0.9417E+00  0.9342E+00  0.4490E+01  0.4487E+01
      7.682  0.1277E+01  0.1268E+01  0.4582E+01  0.4579E+01
      7.755  0.1486E+01  0.1487E+01  0.4690E+01  0.4687E+01
      7.827  0.1331E+01  0.1338E+01  0.4787E+01  0.4784E+01
      7.900  0.1221E+01  0.1220E+01  0.4875E+01  0.4873E+01
      7.972  0.1233E+01  0.1235E+01  0.4965E+01  0.4963E+01
      8.045  0.1011E+01  0.1018E+01  0.5038E+01  0.5037E+01
      8.118  0.7740E+00  0.7756E+00  0.5094E+01  0.5093E+01
      8.190  0.7557E+00  0.7513E+00  0.5149E+01  0.5147E+01
      8.263  0.8558E+00  0.8517E+00  0.5211E+01  0.5209E+01
      8.335  0.8394E+00  0.8423E+00  0.5272E+01  0.5270E+01
      8.408  0.6868E+00  0.6914E+00  0.5322E+01  0.5321E+01
      8.480  0.5986E+00  0.5995E+00  0.5366E+01  0.5364E+01
      8.553  0.5833E+00  0.5834E+00  0.5408E+01  0.5407E+01
      8.625  0.5815E+00  0.5803E+00  0.5450E+01  0.5449E+01
      8.698  0.6215E+00  0.6184E+00  0.5495E+01  0.5494E+01
      8.770  0.6624E+00  0.6606E+00  0.5544E+01  0.5542E+01
      8.843  0.6263E+00  0.6275E+00  0.5589E+01  0.5587E+01
      8.915  0.6065E+00  0.6062E+00  0.5633E+01  0.5631E+01
      8.988  0.6026E+00  0.6036E+00  0.5677E+01  0.5675E+01
      9.060  0.6273E+00  0.6250E+00  0.5722E+01  0.5720E+01
      9.133  0.6833E+00  0.6807E+00  0.5772E+01  0.5770E+01
      9.206  0.6449E+00  0.6485E+00  0.5819E+01  0.5817E+01
      9.278  0.4958E+00  0.5019E+00  0.5855E+01  0.5853E+01
      9.351  0.4129E+00  0.4139E+00  0.5885E+01  0.5883E+01
      9.423  0.4620E+00  0.4566E+00  0.5918E+01  0.5916E+01
      9.496  0.6192E+00  0.6102E+00  0.5963E+01  0.5961E+01
      9.568  0.7490E+00  0.7479E+00  0.6018E+01  0.6015E+01
      9.641  0.6518E+00  0.6624E+00  0.6065E+01  0.6063E+01
      9.713  0.4001E+00  0.4106E+00  0.6094E+01  0.6093E+01
      9.786  0.2543E+00  0.2553E+00  0.6112E+01  0.6111E+01
      9.858  0.3028E+00  0.2960E+00  0.6134E+01  0.6133E+01
      9.931  0.4202E+00  0.4148E+00  0.6165E+01  0.6163E+01
     10.003  0.4934E+00  0.4900E+00  0.6201E+01  0.6199E+01
     10.076  0.5656E+00  0.5622E+00  0.6242E+01  0.6239E+01
     10.149  0.6379E+00  0.6340E+00  0.6288E+01  0.6285E+01
     10.221  0.7139E+00  0.7090E+00  0.6340E+01  0.6337E+01
     10.294  0.7756E+00  0.7704E+00  0.6396E+01  0.6393E+01
     10.366  0.8681E+00  0.8626E+00  0.6459E+01  0.6455E+01
     10.439  0.9666E+00  0.9620E+00  0.6529E+01  0.6525E+01
     10.511  0.9884E+00  0.9913E+00  0.6601E+01  0.6597E+01
     10.584  0.8932E+00  0.8972E+00  0.6666E+01  0.6662E+01
     10.656  0.9419E+00  0.9305E+00  0.6734E+01  0.6730E+01
     10.729  0.1175E+01  0.1164E+01  0.6819E+01  0.6814E+01
     10.801  0.1165E+01  0.1173E+01  0.6904E+01  0.6899E+01
     10.874  0.1016E+01  0.1021E+01  0.6978E+01  0.6974E+01
     10.946  0.9537E+00  0.9598E+00  0.7047E+01  0.7043E+01
     11.019  0.8977E+00  0.9013E+00  0.7112E+01  0.7109E+01
     11.091  0.9723E+00  0.9681E+00  0.7183E+01  0.7179E+01
     11.164  0.1029E+01  0.1030E+01  0.7257E+01  0.7254E+01
     11.237  0.9381E+00  0.9451E+00  0.7325E+01  0.7322E+01
     11.309  0.8635E+00  0.8614E+00  0.7388E+01  0.7385E+01
     11.382  0.1055E+01  0.1042E+01  0.7465E+01  0.7460E+01
     11.454  0.1239E+01  0.1232E+01  0.7555E+01  0.7550E+01
     11.527  0.1335E+01  0.1328E+01  0.7652E+01  0.7646E+01
     11.599  0.1407E+01  0.1400E+01  0.7754E+01  0.7748E+01
     11.672  0.1513E+01  0.1496E+01  0.7864E+01  0.7856E+01
     11.744  0.1708E+01  0.1685E+01  0.7987E+01  0.7979E+01
     11.817  0.2022E+01  0.1986E+01  0.8134E+01  0.8123E+01
     11.889  0.2435E+01  0.2398E+01  0.8311E+01  0.8297E+01
     11.962  0.2574E+01  0.2578E+01  0.8498E+01  0.8484E+01
     12.034  0.2287E+01  0.2316E+01  0.8664E+01  0.8652E+01
     12.107  0.1850E+01  0.1883E+01  0.8798E+01  0.8789E+01
     12.180  0.1386E+01  0.1422E+01  0.8898E+01  0.8892E+01
     12.252  0.1015E+01  0.1043E+01  0.8972E+01  0.8968E+01
     12.325  0.7853E+00  0.8041E+00  0.9029E+01  0.9026E+01
     12.397  0.6188E+00  0.6327E+00  0.9074E+01  0.9072E+01
     12.470  0.5397E+00  0.5439E+00  0.9114E+01  0.9112E+01
     12.542  0.6272E+00  0.6218E+00  0.9159E+01  0.9157E+01
     12.615  0.8383E+00  0.8292E+00  0.9220E+01  0.9217E+01
     12.687  0.9898E+00  0.9872E+00  0.9292E+01  0.9289E+01
     12.760  0.9059E+00  0.9137E+00  0.9358E+01  0.9355E+01
     12.832  0.7786E+00  0.7803E+00  0.9414E+01  0.9412E+01
     12.905  0.7740E+00  0.7730E+00  0.9470E+01  0.9468E+01
     12.977  0.8302E+00  0.8274E+00  0.9531E+01  0.9528E+01
     13.050  0.9165E+00  0.9147E+00  0.9597E+01  0.9594E+01
     13.122  0.8884E+00  0.8938E+00  0.9662E+01  0.9659E+01
     13.195  0.7876E+00  0.7907E+00  0.9719E+01  0.9716E+01
     13.268  0.7511E+00  0.7486E+00  0.9773E+01  0.9771E+01
     13.340  0.7375E+00  0.7388E+00  0.9827E+01  0.9824E+01
     13.413  0.6352E+00  0.6414E+00  0.9873E+01  0.9871E+01
     13.485  0.5545E+00  0.5581E+00  0.9913E+01  0.9912E+01
     13.558  0.5524E+00  0.5538E+00  0.9953E+01  0.9952E+01
     13.630  0.5575E+00  0.5568E+00  0.9994E+01  0.9992E+01
     13.703  0.5002E+00  0.5047E+00  0.1003E+02  0.1003E+02
     13.775  0.3864E+00  0.3898E+00  0.1006E+02  0.1006E+02
     13.848  0.4000E+00  0.3941E+00  0.1009E+02  0.1009E+02
     13.920  0.5886E+00  0.5742E+00  0.1013E+02  0.1013E+02
     13.993  0.9188E+00  0.9049E+00  0.1020E+02  0.1019E+02
     14.065  0.1048E+01  0.1050E+01  0.1027E+02  0.1027E+02
     14.138  0.1026E+01  0.1022E+01  0.1035E+02  0.1034E+02
     14.211  0.1096E+01  0.1090E+01  0.1043E+02  0.1042E+02
     14.283  0.1173E+01  0.1163E+01  0.1051E+02  0.1051E+02
     14.356  0.1223E+01  0.1220E+01  0.1060E+02  0.1060E+02
     14.428  0.1277E+01  0.1272E+01  0.1069E+02  0.1069E+02
     14.501  0.1463E+01  0.1452E+01  0.1080E+02  0.1079E+02
     14.573  0.1629E+01  0.1643E+01  0.1092E+02  0.1091E+02
     14.646  0.1588E+01  0.1627E+01  0.1103E+02  0.1103E+02
     14.718  0.1440E+01  0.1461E+01  0.1114E+02  0.1114E+02
     14.791  0.1360E+01  0.1352E+01  0.1124E+02  0.1123E+02
     14.863  0.1291E+01  0.1277E+01  0.1133E+02  0.1133E+02
     14.936  0.1218E+01  0.1211E+01  0.1142E+02  0.1142E+02
     15.008  0.1111E+01  0.1112E+01  0.1150E+02  0.1150E+02
     15.081  0.9526E+00  0.9572E+00  0.1157E+02  0.1157E+02
     15.153  0.8373E+00  0.8422E+00  0.1163E+02  0.1163E+02
     15.226  0.7128E+00  0.7143E+00  0.1168E+02  0.1168E+02
     15.299  0.5873E+00  0.5815E+00  0.1172E+02  0.1172E+02
     15.371  0.5148E+00  0.5098E+00  0.1176E+02  0.1176E+02
     15.444  0.3831E+00  0.3935E+00  0.1179E+02  0.1179E+02
     15.516  0.2943E+00  0.3054E+00  0.1181E+02  0.1181E+02
     15.589  0.2877E+00  0.2933E+00  0.1183E+02  0.1183E+02
     15.661  0.2421E+00  0.2456E+00  0.1185E+02  0.1185E+02
     15.734  0.2001E+00  0.2024E+00  0.1186E+02  0.1186E+02
     15.806  0.2327E+00  0.2348E+00  0.1188E+02  0.1188E+02
     15.879  0.2422E+00  0.2417E+00  0.1190E+02  0.1190E+02
     15.951  0.1695E+00  0.1654E+00  0.1191E+02  0.1191E+02
     16.024  0.9949E-01  0.1014E+00  0.1192E+02  0.1192E+02
     16.096  0.4682E-01  0.5106E-01  0.1192E+02  0.1192E+02
     16.169  0.3952E-01  0.4228E-01  0.1192E+02  0.1192E+02
     16.242  0.8492E-01  0.8708E-01  0.1193E+02  0.1193E+02
     16.314  0.1367E+00  0.1352E+00  0.1194E+02  0.1194E+02
     16.387  0.1315E+00  0.1289E+00  0.1195E+02  0.1195E+02
     16.459  0.1150E+00  0.1179E+00  0.1196E+02  0.1196E+02
     16.532  0.1007E+00  0.1065E+00  0.1196E+02  0.1197E+02
     16.604  0.7043E-01  0.7282E-01  0.1197E+02  0.1197E+02
     16.677  0.4496E-01  0.5467E-01  0.1197E+02  0.1197E+02
     16.749  0.6210E-01  0.7807E-01  0.1198E+02  0.1198E+02
     16.822  0.9322E-01  0.9273E-01  0.1198E+02  0.1199E+02
     16.894  0.7862E-01  0.6193E-01  0.1199E+02  0.1199E+02
     16.967  0.3746E-01  0.2484E-01  0.1199E+02  0.1199E+02
     17.039  0.1560E-01  0.1115E-01  0.1199E+02  0.1199E+02
     17.112  0.1384E-01  0.1273E-01  0.1199E+02  0.1199E+02
     17.184  0.1282E-01  0.1236E-01  0.1200E+02  0.1200E+02
     17.257  0.5926E-02  0.5791E-02  0.1200E+02  0.1200E+02
     17.330  0.1830E-02  0.1851E-02  0.1200E+02  0.1200E+02
     17.402  0.9017E-03  0.1105E-02  0.1200E+02  0.1200E+02
     17.475  0.2008E-02  0.2781E-02  0.1200E+02  0.1200E+02
     17.547  0.6451E-02  0.8302E-02  0.1200E+02  0.1200E+02
     17.620  0.1364E-01  0.1462E-01  0.1200E+02  0.1200E+02
     17.692  0.1413E-01  0.1271E-01  0.1200E+02  0.1200E+02
     17.765  0.8612E-02  0.7159E-02  0.1200E+02  0.1200E+02
     17.837  0.3501E-02  0.2786E-02  0.1200E+02  0.1200E+02
     17.910  0.1009E-02  0.7881E-03  0.1200E+02  0.1200E+02
     17.982  0.2505E-03  0.1945E-03  0.1200E+02  0.1200E+02
     18.055  0.4318E-04  0.3496E-04  0.1200E+02  0.1200E+02
     18.127  0.0000E+00  0.0000E+00  0.1200E+02  0.1200E+02
     18.200  0.0000E+00  0.0000E+00  0.1200E+02  0.1200E+02
     18.272  0.0000E+00  0.0000E+00  0.1200E+02  0.1200E+02
     18.345  0.0000E+00  0.0000E+00  0.1200E+02  0.1200E+02
     18.418  0.0000E+00  0.0000E+00  0.1200E+02  0.1200E+02
     18.490  0.0000E+00  0.0000E+00  0.1200E+02  0.1200E+02
     18.563  0.0000E+00  0.0000E+00  0.1200E+02  0.1200E+02
     18.635  0.0000E+00  0.0000E+00  0.1200E+02  0.1200E+02
     18.708  0.0000E+00  0.0000E+00  0.1200E+02  0.1200E+02
     18.70771232     -3.05294520  301     10.41120645      1.00000000
     -3.053  0.0000E+00  0.0000E+00  0.0000E+00  0.0000E+00  0.0000E+00  0.0000E+00  0.0000E+00  0.0000E+00  0.0000E+00  0.0000E+00  0.0000E+00  0.0000E+00  0.0000E+00  0.0000E+00  0.0000E+00  0.0000E+00  0.0000E+00  0.0000E+00
     -2.980  0.0000E+00  0.0000E+00  0.0000E+00  0.0000E+00  0.0000E+00  0.0000E+00  0.0000E+00  0.0000E+00  0.0000E+00  0.0000E+00  0.0000E+00  0.0000E+00  0.0000E+00  0.0000E+00  0.0000E+00  0.0000E+00  0.0000E+00  0.0000E+00
     -2.908  0.0000E+00  0.0000E+00  0.0000E+00  0.0000E+00  0.0000E+00  0.0000E+00  0.0000E+00  0.0000E+00  0.0000E+00  0.0000E+00  0.0000E+00  0.0000E+00  0.0000E+00  0.0000E+00  0.0000E+00  0.0000E+00  0.0000E+00  0.0000E+00
     -2.835  0.0000E+00  0.0000E+00  0.0000E+00  0.0000E+00  0.0000E+00  0.0000E+00  0.0000E+00  0.0000E+00  0.0000E+00  0.0000E+00  0.0000E+00  0.0000E+00  0.0000E+00  0.0000E+00  0.0000E+00  0.0000E+00  0.0000E+00  0.0000E+00
     -2.763  0.0000E+00  0.0000E+00  0.0000E+00  0.0000E+00  0.0000E+00  0.0000E+00  0.0000E+00  0.0000E+00  0.0000E+00  0.0000E+00  0.0000E+00  0.0000E+00  0.0000E+00  0.0000E+00  0.0000E+00  0.0000E+00  0.0000E+00  0.0000E+00
     -2.690  0.0000E+00  0.0000E+00  0.0000E+00  0.0000E+00  0.0000E+00  0.0000E+00  0.0000E+00  0.0000E+00  0.0000E+00  0.0000E+00  0.0000E+00  0.0000E+00  0.0000E+00  0.0000E+00  0.0000E+00  0.0000E+00  0.0000E+00  0.0000E+00
     -2.618  0.0000E+00  0.0000E+00  0.0000E+00  0.0000E+00  0.0000E+00  0.0000E+00  0.0000E+00  0.0000E+00  0.0000E+00  0.0000E+00  0.0000E+00  0.0000E+00  0.0000E+00  0.0000E+00  0.0000E+00  0.0000E+00  0.0000E+00  0.0000E+00
     -2.545  0.0000E+00  0.0000E+00  0.0000E+00  0.0000E+00  0.0000E+00  0.0000E+00  0.0000E+00  0.0000E+00  0.0000E+00  0.0000E+00  0.0000E+00  0.0000E+00  0.0000E+00  0.0000E+00  0.0000E+00  0.0000E+00  0.0000E+00  0.0000E+00
     -2.473  0.3335E-06  0.3324E-06  0.5465E-22  0.7381E-21  0.5465E-22  0.7381E-21  0.4126E-22  0.7695E-21  0.7698E-21  0.1576E-20  0.4675E-21  0.4427E-20  0.5734E-15  0.5465E-15  0.7698E-21  0.1576E-20  0.7375E-15  0.7038E-15
     -2.400  0.3174E-05  0.3164E-05  0.6607E-08  0.6586E-08  0.6607E-08  0.6586E-08  0.6603E-08  0.6581E-08  0.1529E-17  0.2889E-18  0.2333E-18  0.4731E-18  0.3313E-10  0.3304E-10  0.1529E-17  0.2889E-18  0.4236E-10  0.4225E-10
     -2.328  0.1652E-04  0.1646E-04  0.5644E-07  0.5626E-07  0.5644E-07  0.5626E-07  0.5642E-07  0.5624E-07  0.4526E-09  0.4509E-09  0.4528E-09  0.4511E-09  0.1980E-09  0.1973E-09  0.4526E-09  0.4509E-09  0.2077E-09  0.2071E-09
     -2.255  0.6537E-04  0.6517E-04  0.2128E-06  0.2121E-06  0.2128E-06  0.2121E-06  0.2127E-06  0.2120E-06  0.1477E-08  0.1471E-08  0.1477E-08  0.1472E-08  0.8981E-09  0.8953E-09  0.1477E-08  0.1471E-08  0.1001E-08  0.9982E-09
     -2.183  0.2711E-03  0.2703E-03  0.9299E-06  0.9270E-06  0.9299E-06  0.9270E-06  0.9294E-06  0.9265E-06  0.6990E-08  0.6965E-08  0.6993E-08  0.6968E-08  0.4174E-08  0.4161E-08  0.6990E-08  0.6965E-08  0.4651E-08  0.4637E-08
     -2.110  0.1020E-02  0.1018E-02  0.3801E-05  0.3789E-05  0.3801E-05  0.3789E-05  0.3799E-05  0.3788E-05  0.3039E-07  0.3028E-07  0.3041E-07  0.3030E-07  0.1683E-07  0.1678E-07  0.3039E-07  0.3028E-07  0.1872E-07  0.1867E-07
     -2.037  0.3088E-02  0.3082E-02  0.1372E-04  0.1369E-04  0.1372E-04  0.1369E-04  0.1371E-04  0.1368E-04  0.1203E-06  0.1199E-06  0.1204E-06  0.1200E-06  0.6046E-07  0.6031E-07  0.1203E-06  0.1199E-06  0.6634E-07  0.6618E-07
     -1.965  0.6685E-02  0.6678E-02  0.3815E-04  0.3809E-04  0.3815E-04  0.3809E-04  0.3814E-04  0.3807E-04  0.4156E-06  0.4144E-06  0.4157E-06  0.4146E-06  0.1727E-06  0.1724E-06  0.4156E-06  0.4144E-06  0.1864E-06  0.1861E-06
     -1.892  0.9912E-02  0.9910E-02  0.7573E-04  0.7566E-04  0.7573E-04  0.7566E-04  0.7570E-04  0.7562E-04  0.1045E-05  0.1043E-05  0.1045E-05  0.1043E-05  0.4202E-06  0.4194E-06  0.1045E-05  0.1043E-05  0.4721E-06  0.4712E-06
     -1.820  0.1149E-01  0.1149E-01  0.1246E-03  0.1245E-03  0.1246E-03  0.1245E-03  0.1245E-03  0.1244E-03  0.2025E-05  0.2021E-05  0.2026E-05  0.2022E-05  0.1084E-05  0.1082E-05  0.2025E-05  0.2021E-05  0.1293E-05  0.1291E-05
     -1.747  0.1457E-01  0.1456E-01  0.2162E-03  0.2160E-03  0.2162E-03  0.2160E-03  0.2160E-03  0.2158E-03  0.4205E-05  0.4197E-05  0.4207E-05  0.4200E-05  0.2460E-05  0.2457E-05  0.4205E-05  0.4197E-05  0.2956E-05  0.2953E-05
     -1.675  0.1882E-01  0.1882E-01  0.3301E-03  0.3300E-03  0.3301E-03  0.3300E-03  0.3301E-03  0.3300E-03  0.8164E-05  0.8155E-05  0.8166E-05  0.8157E-05  0.3667E-05  0.3667E-05  0.8164E-05  0.8155E-05  0.4376E-05  0.4377E-05
     -1.602  0.1772E-01  0.1774E-01  0.3550E-03  0.3552E-03  0.3550E-03  0.3552E-03  0.3550E-03  0.3552E-03  0.1115E-04  0.1115E-04  0.1115E-04  0.1115E-04  0.3828E-05  0.3830E-05  0.1115E-04  0.1115E-04  0.4448E-05  0.4450E-05
     -1.530  0.1516E-01  0.1517E-01  0.3797E-03  0.3796E-03  0.3797E-03  0.3796E-03  0.3794E-03  0.3793E-03  0.1500E-04  0.1498E-04  0.1500E-04  0.1499E-04  0.5130E-05  0.5124E-05  0.1500E-04  0.1498E-04  0.5612E-05  0.5607E-05
     -1.457  0.1922E-01  0.1921E-01  0.5826E-03  0.5820E-03  0.5826E-03  0.5820E-03  0.5818E-03  0.5813E-03  0.2459E-04  0.2457E-04  0.2460E-04  0.2458E-04  0.1025E-04  0.1024E-04  0.2459E-04  0.2457E-04  0.1154E-04  0.1152E-04
     -1.385  0.2400E-01  0.2400E-01  0.8066E-03  0.8063E-03  0.8066E-03  0.8063E-03  0.8057E-03  0.8055E-03  0.3223E-04  0.3222E-04  0.3224E-04  0.3223E-04  0.1785E-04  0.1784E-04  0.3223E-04  0.3222E-04  0.2125E-04  0.2123E-04
     -1.312  0.2383E-01  0.2385E-01  0.8828E-03  0.8830E-03  0.8828E-03  0.8830E-03  0.8828E-03  0.8829E-03  0.3744E-04  0.3743E-04  0.3746E-04  0.3744E-04  0.2176E-04  0.2177E-04  0.3744E-04  0.3743E-04  0.2657E-04  0.2659E-04
     -1.240  0.2154E-01  0.2154E-01  0.8934E-03  0.8933E-03  0.8934E-03  0.8933E-03  0.8935E-03  0.8935E-03  0.5070E-04  0.5065E-04  0.5074E-04  0.5069E-04  0.2001E-04  0.2003E-04  0.5070E-04  0.5065E-04  0.2382E-04  0.2384E-04
     -1.167  0.2300E-01  0.2300E-01  0.1077E-02  0.1076E-02  0.1077E-02  0.1076E-02  0.1076E-02  0.1076E-02  0.7782E-04  0.7774E-04  0.7789E-04  0.7781E-04  0.2215E-04  0.2215E-04  0.7782E-04  0.7774E-04  0.2464E-04  0.2465E-04
     -1.094  0.2552E-01  0.2553E-01  0.1289E-02  0.1289E-02  0.1289E-02  0.1289E-02  0.1289E-02  0.1289E-02  0.1012E-03  0.1012E-03  0.1012E-03  0.1012E-03  0.2710E-04  0.2711E-04  0.1012E-03  0.1012E-03  0.2989E-04  0.2991E-04
     -1.022  0.2082E-01  0.2084E-01  0.1146E-02  0.1147E-02  0.1146E-02  0.1147E-02  0.1145E-02  0.1146E-02  0.8778E-04  0.8784E-04  0.8773E-04  0.8779E-04  0.2945E-04  0.2946E-04  0.8778E-04  0.8784E-04  0.3424E-04  0.3423E-04
     -0.949  0.2046E-01  0.2045E-01  0.1310E-02  0.1308E-02  0.1310E-02  0.1308E-02  0.1307E-02  0.1305E-02  0.9453E-04  0.9442E-04  0.9461E-04  0.9451E-04  0.4516E-04  0.4511E-04  0.9453E-04  0.9442E-04  0.5509E-04  0.5503E-04
     -0.877  0.2812E-01  0.2811E-01  0.1950E-02  0.1948E-02  0.1950E-02  0.1948E-02  0.1948E-02  0.1946E-02  0.1503E-03  0.1502E-03  0.1505E-03  0.1504E-03  0.7160E-04  0.7158E-04  0.1503E-03  0.1502E-03  0.8664E-04  0.8662E-04
     -0.804  0.3034E-01  0.3035E-01  0.2217E-02  0.2217E-02  0.2217E-02  0.2217E-02  0.2217E-02  0.2217E-02  0.1950E-03  0.1949E-03  0.1952E-03  0.1951E-03  0.8040E-04  0.8045E-04  0.1950E-03  0.1949E-03  0.9377E-04  0.9383E-04
     -0.732  0.2824E-01  0.2825E-01  0.2217E-02  0.2216E-02  0.2217E-02  0.2216E-02  0.2216E-02  0.2215E-02  0.2258E-03  0.2257E-03  0.2259E-03  0.2259E-03  0.7840E-04  0.7843E-04  0.2258E-03  0.2257E-03  0.8886E-04  0.8890E-04
     -0.659  0.2820E-01  0.2820E-01  0.2387E-02  0.2386E-02  0.2387E-02  0.2386E-02  0.2387E-02  0.2385E-02  0.2685E-03  0.2684E-03  0.2685E-03  0.2684E-03  0.8315E-04  0.8320E-04  0.2685E-03  0.2684E-03  0.9548E-04  0.9552E-04
     -0.587  0.2549E-01  0.2551E-01  0.2264E-02  0.2264E-02  0.2264E-02  0.2264E-02  0.2266E-02  0.2267E-02  0.2909E-03  0.2910E-03  0.2908E-03  0.2908E-03  0.6973E-04  0.6984E-04  0.2909E-03  0.2910E-03  0.8050E-04  0.8063E-04
     -0.514  0.1930E-01  0.1933E-01  0.1854E-02  0.1855E-02  0.1854E-02  0.1855E-02  0.1854E-02  0.1854E-02  0.2687E-03  0.2688E-03  0.2688E-03  0.2690E-03  0.5332E-04  0.5334E-04  0.2687E-03  0.2688E-03  0.6149E-04  0.6152E-04
     -0.442  0.2048E-01  0.2046E-01  0.2250E-02  0.2246E-02  0.2250E-02  0.2246E-02  0.2243E-02  0.2239E-02  0.3261E-03  0.3257E-03  0.3268E-03  0.3264E-03  0.8082E-04  0.8070E-04  0.3261E-03  0.3257E-03  0.9346E-04  0.9332E-04
     -0.369  0.2848E-01  0.2846E-01  0.3433E-02  0.3427E-02  0.3433E-02  0.3427E-02  0.3422E-02  0.3416E-02  0.4681E-03  0.4676E-03  0.4689E-03  0.4684E-03  0.1477E-03  0.1475E-03  0.4681E-03  0.4676E-03  0.1704E-03  0.1703E-03
     -0.297  0.3266E-01  0.3267E-01  0.4186E-02  0.4183E-02  0.4186E-02  0.4183E-02  0.4183E-02  0.4180E-02  0.5513E-03  0.5512E-03  0.5511E-03  0.5510E-03  0.1922E-03  0.1923E-03  0.5513E-03  0.5512E-03  0.2254E-03  0.2254E-03
     -0.224  0.2832E-01  0.2834E-01  0.3877E-02  0.3875E-02  0.3877E-02  0.3875E-02  0.3879E-02  0.3877E-02  0.5434E-03  0.5432E-03  0.5433E-03  0.5431E-03  0.1742E-03  0.1744E-03  0.5434E-03  0.5432E-03  0.2081E-03  0.2083E-03
     -0.152  0.2822E-01  0.2821E-01  0.4157E-02  0.4152E-02  0.4157E-02  0.4152E-02  0.4152E-02  0.4147E-02  0.6769E-03  0.6762E-03  0.6777E-03  0.6770E-03  0.1732E-03  0.1732E-03  0.6769E-03  0.6762E-03  0.2068E-03  0.2068E-03
     -0.079  0.2790E-01  0.2792E-01  0.4346E-02  0.4345E-02  0.4346E-02  0.4345E-02  0.4347E-02  0.4346E-02  0.7398E-03  0.7399E-03  0.7399E-03  0.7401E-03  0.1843E-03  0.1845E-03  0.7398E-03  0.7399E-03  0.2190E-03  0.2191E-03
     -0.006  0.2038E-01  0.2040E-01  0.3379E-02  0.3379E-02  0.3379E-02  0.3379E-02  0.3385E-02  0.3385E-02  0.6378E-03  0.6376E-03  0.6382E-03  0.6381E-03  0.1452E-03  0.1454E-03  0.6378E-03  0.6376E-03  0.1673E-03  0.1675E-03
      0.066  0.1976E-01  0.1974E-01  0.3591E-02  0.3584E-02  0.3591E-02  0.3584E-02  0.3583E-02  0.3576E-02  0.8326E-03  0.8310E-03  0.8346E-03  0.8330E-03  0.1389E-03  0.1389E-03  0.8326E-03  0.8310E-03  0.1507E-03  0.1507E-03
      0.139  0.2588E-01  0.2586E-01  0.5202E-02  0.5192E-02  0.5202E-02  0.5192E-02  0.5182E-02  0.5173E-02  0.1247E-02  0.1245E-02  0.1249E-02  0.1247E-02  0.1840E-03  0.1839E-03  0.1247E-02  0.1245E-02  0.2002E-03  0.2001E-03
      0.211  0.2799E-01  0.2799E-01  0.6574E-02  0.6567E-02  0.6574E-02  0.6567E-02  0.6550E-02  0.6543E-02  0.1437E-02  0.1437E-02  0.1437E-02  0.1437E-02  0.2204E-03  0.2204E-03  0.1437E-02  0.1437E-02  0.2465E-03  0.2465E-03
      0.284  0.2393E-01  0.2395E-01  0.6939E-02  0.6936E-02  0.6939E-02  0.6936E-02  0.6926E-02  0.6923E-02  0.1329E-02  0.1329E-02  0.1328E-02  0.1328E-02  0.2177E-03  0.2179E-03  0.1329E-02  0.1329E-02  0.2499E-03  0.2501E-03
      0.356  0.1945E-01  0.1946E-01  0.6699E-02  0.6695E-02  0.6699E-02  0.6695E-02  0.6695E-02  0.6692E-02  0.1293E-02  0.1292E-02  0.1294E-02  0.1293E-02  0.1948E-03  0.1950E-03  0.1293E-02  0.1292E-02  0.2286E-03  0.2288E-03
      0.429  0.1748E-01  0.1749E-01  0.6917E-02  0.6911E-02  0.6917E-02  0.6911E-02  0.6907E-02  0.6901E-02  0.1475E-02  0.1473E-02  0.1477E-02  0.1476E-02  0.1906E-03  0.1907E-03  0.1475E-02  0.1473E-02  0.2245E-03  0.2246E-03
      0.501  0.1653E-01  0.1653E-01  0.7089E-02  0.7086E-02  0.7089E-02  0.7086E-02  0.7098E-02  0.7094E-02  0.1763E-02  0.1760E-02  0.1766E-02  0.1764E-02  0.1897E-03  0.1899E-03  0.1763E-02  0.1760E-02  0.2156E-03  0.2158E-03
      0.574  0.1918E-01  0.1917E-01  0.7310E-02  0.7304E-02  0.7310E-02  0.7304E-02  0.7317E-02  0.7311E-02  0.2421E-02  0.2417E-02  0.2426E-02  0.2422E-02  0.1937E-03  0.1938E-03  0.2421E-02  0.2417E-02  0.2044E-03  0.2046E-03