   4   4   1   0
  0.1526258E+02  0.3936965E-09  0.3937886E-09  0.3937886E-09  0.5000000E-15
  1.000000000000000E-004
  CAR 
 unknown system                          
     14.41593283     -3.99597699  301      7.75493523      1.00000000
     -3.996  0.0000E+00  0.0000E+00  0.0000E+00  0.0000E+00
     -3.935  0.0000E+00  0.0000E+00  0.0000E+00  0.0000E+00
     -3.873  0.0000E+00  0.0000E+00  0.0000E+00  0.0000E+00
     -3.812  0.0000E+00  0.0000E+00  0.0000E+00  0.0000E+00
     -3.750  0.0000E+00  0.0000E+00  0.0000E+00  0.0000E+00
     -3.689  0.0000E+00  0.0000E+00  0.0000E+00  0.0000E+00
     -3.628  0.0000E+00  0.0000E+00  0.0000E+00  0.0000E+00
     -3.566  0.2150E-05  0.2092E-05  0.1319E-06  0.1284E-06
     -3.505  0.2781E-04  0.1854E-04  0.1839E-05  0.1266E-05
     -3.444  0.7851E-04  0.8495E-04  0.6657E-05  0.6480E-05
     -3.382  0.2656E-03  0.2586E-03  0.2296E-04  0.2235E-04
     -3.321  0.9114E-03  0.8876E-03  0.7890E-04  0.7682E-04
     -3.260  0.2981E-02  0.2906E-02  0.2618E-03  0.2552E-03
     -3.198  0.8945E-02  0.8744E-02  0.8108E-03  0.7918E-03
     -3.137  0.2263E-01  0.2223E-01  0.2200E-02  0.2156E-02
     -3.075  0.4400E-01  0.4350E-01  0.4900E-02  0.4826E-02
     -3.014  0.6430E-01  0.6393E-01  0.8846E-02  0.8749E-02
     -2.953  0.7974E-01  0.7938E-01  0.1374E-01  0.1362E-01
     -2.891  0.1018E+00  0.1012E+00  0.1999E-01  0.1983E-01
     -2.830  0.1232E+00  0.1230E+00  0.2755E-01  0.2738E-01
     -2.769  0.1207E+00  0.1209E+00  0.3496E-01  0.3480E-01
     -2.707  0.1186E+00  0.1183E+00  0.4224E-01  0.4206E-01
     -2.646  0.1459E+00  0.1452E+00  0.5119E-01  0.5097E-01
     -2.584  0.1721E+00  0.1718E+00  0.6176E-01  0.6152E-01
     -2.523  0.1737E+00  0.1738E+00  0.7242E-01  0.7219E-01
     -2.462  0.1689E+00  0.1688E+00  0.8279E-01  0.8256E-01
     -2.400  0.1833E+00  0.1829E+00  0.9406E-01  0.9379E-01
     -2.339  0.1912E+00  0.1914E+00  0.1058E+00  0.1055E+00
     -2.278  0.1733E+00  0.1735E+00  0.1164E+00  0.1162E+00
     -2.216  0.1919E+00  0.1909E+00  0.1282E+00  0.1279E+00
     -2.155  0.2393E+00  0.2385E+00  0.1429E+00  0.1426E+00
     -2.093  0.2532E+00  0.2532E+00  0.1585E+00  0.1581E+00
     -2.032  0.2492E+00  0.2492E+00  0.1737E+00  0.1734E+00
     -1.971  0.2475E+00  0.2477E+00  0.1889E+00  0.1886E+00
     -1.909  0.2218E+00  0.2226E+00  0.2026E+00  0.2023E+00
     -1.848  0.1963E+00  0.1963E+00  0.2146E+00  0.2143E+00
     -1.787  0.2308E+00  0.2294E+00  0.2288E+00  0.2284E+00
     -1.725  0.3020E+00  0.3006E+00  0.2473E+00  0.2469E+00
     -1.664  0.3292E+00  0.3294E+00  0.2676E+00  0.2671E+00
     -1.602  0.3091E+00  0.3093E+00  0.2865E+00  0.2861E+00
     -1.541  0.3182E+00  0.3178E+00  0.3061E+00  0.3056E+00
     -1.480  0.3033E+00  0.3044E+00  0.3247E+00  0.3243E+00
     -1.418  0.2518E+00  0.2525E+00  0.3401E+00  0.3398E+00
     -1.357  0.2739E+00  0.2724E+00  0.3570E+00  0.3565E+00
     -1.296  0.3579E+00  0.3560E+00  0.3790E+00  0.3784E+00
     -1.234  0.4132E+00  0.4127E+00  0.4043E+00  0.4038E+00
     -1.173  0.4016E+00  0.4023E+00  0.4290E+00  0.4285E+00
     -1.111  0.3702E+00  0.3705E+00  0.4517E+00  0.4512E+00
     -1.050  0.3660E+00  0.3660E+00  0.4742E+00  0.4737E+00
     -0.989  0.3621E+00  0.3622E+00  0.4964E+00  0.4959E+00
     -0.927  0.3837E+00  0.3828E+00  0.5200E+00  0.5194E+00
     -0.866  0.4310E+00  0.4303E+00  0.5465E+00  0.5459E+00
     -0.805  0.4345E+00  0.4350E+00  0.5731E+00  0.5726E+00
     -0.743  0.3875E+00  0.3890E+00  0.5969E+00  0.5965E+00
     -0.682  0.3110E+00  0.3126E+00  0.6160E+00  0.6157E+00
     -0.620  0.2658E+00  0.2661E+00  0.6324E+00  0.6320E+00
     -0.559  0.2819E+00  0.2809E+00  0.6497E+00  0.6493E+00
     -0.498  0.3620E+00  0.3599E+00  0.6719E+00  0.6714E+00
     -0.436  0.4130E+00  0.4133E+00  0.6973E+00  0.6967E+00
     -0.375  0.3564E+00  0.3581E+00  0.7192E+00  0.7188E+00
     -0.314  0.2942E+00  0.2953E+00  0.7372E+00  0.7369E+00
     -0.252  0.2476E+00  0.2486E+00  0.7524E+00  0.7521E+00
     -0.191  0.2328E+00  0.2321E+00  0.7667E+00  0.7664E+00
     -0.129  0.3324E+00  0.3293E+00  0.7871E+00  0.7866E+00
     -0.068  0.4715E+00  0.4696E+00  0.8161E+00  0.8155E+00
     -0.007  0.4756E+00  0.4772E+00  0.8453E+00  0.8448E+00
      0.055  0.3923E+00  0.3936E+00  0.8694E+00  0.8689E+00
      0.116  0.3590E+00  0.3596E+00  0.8915E+00  0.8910E+00
      0.177  0.3154E+00  0.3164E+00  0.9108E+00  0.9104E+00
      0.239  0.3182E+00  0.3170E+00  0.9303E+00  0.9299E+00
      0.300  0.4146E+00  0.4126E+00  0.9558E+00  0.9552E+00
      0.362  0.4577E+00  0.4581E+00  0.9840E+00  0.9834E+00
      0.423  0.3883E+00  0.3903E+00  0.1008E+01  0.1007E+01
      0.484  0.3073E+00  0.3083E+00  0.1027E+01  0.1026E+01
      0.546  0.3024E+00  0.3017E+00  0.1045E+01  0.1045E+01
      0.607  0.3511E+00  0.3499E+00  0.1067E+01  0.1066E+01
      0.668  0.4229E+00  0.4211E+00  0.1093E+01  0.1092E+01
      0.730  0.5082E+00  0.5068E+00  0.1124E+01  0.1123E+01
      0.791  0.5154E+00  0.5165E+00  0.1156E+01  0.1155E+01
      0.852  0.4189E+00  0.4211E+00  0.1181E+01  0.1181E+01
      0.914  0.3440E+00  0.3446E+00  0.1202E+01  0.1202E+01
      0.975  0.3403E+00  0.3401E+00  0.1223E+01  0.1223E+01
      1.037  0.3665E+00  0.3658E+00  0.1246E+01  0.1245E+01
      1.098  0.4160E+00  0.4149E+00  0.1271E+01  0.1271E+01
      1.159  0.4726E+00  0.4715E+00  0.1300E+01  0.1300E+01
      1.221  0.4760E+00  0.4770E+00  0.1330E+01  0.1329E+01
      1.282  0.4044E+00  0.4056E+00  0.1354E+01  0.1354E+01
      1.343  0.4098E+00  0.4086E+00  0.1380E+01  0.1379E+01
      1.405  0.4821E+00  0.4808E+00  0.1409E+01  0.1409E+01
      1.466  0.5396E+00  0.5384E+00  0.1442E+01  0.1442E+01
      1.528  0.6118E+00  0.6102E+00  0.1480E+01  0.1479E+01
      1.589  0.6607E+00  0.6607E+00  0.1521E+01  0.1520E+01
      1.650  0.6196E+00  0.6210E+00  0.1559E+01  0.1558E+01
      1.712  0.5843E+00  0.5840E+00  0.1594E+01  0.1594E+01
      1.773  0.6492E+00  0.6478E+00  0.1634E+01  0.1633E+01
      1.834  0.6851E+00  0.6854E+00  0.1676E+01  0.1676E+01
      1.896  0.6433E+00  0.6447E+00  0.1716E+01  0.1715E+01
      1.957  0.5582E+00  0.5601E+00  0.1750E+01  0.1750E+01
      2.019  0.4914E+00  0.4921E+00  0.1780E+01  0.1780E+01
      2.080  0.5239E+00  0.5222E+00  0.1813E+01  0.1812E+01
      2.141  0.6524E+00  0.6501E+00  0.1853E+01  0.1852E+01
      2.203  0.7177E+00  0.7181E+00  0.1897E+01  0.1896E+01
      2.264  0.6503E+00  0.6520E+00  0.1937E+01  0.1936E+01
      2.325  0.5812E+00  0.5822E+00  0.1972E+01  0.1972E+01
      2.387  0.5803E+00  0.5800E+00  0.2008E+01  0.2007E+01
      2.448  0.6455E+00  0.6441E+00  0.2048E+01  0.2047E+01
      2.510  0.7174E+00  0.7169E+00  0.2092E+01  0.2091E+01
      2.571  0.7062E+00  0.7071E+00  0.2135E+01  0.2134E+01
      2.632  0.6578E+00  0.6585E+00  0.2175E+01  0.2175E+01
      2.694  0.6233E+00  0.6244E+00  0.2214E+01  0.2213E+01
      2.755  0.5498E+00  0.5511E+00  0.2247E+01  0.2247E+01
      2.816  0.5330E+00  0.5323E+00  0.2280E+01  0.2280E+01
      2.878  0.5929E+00  0.5920E+00  0.2317E+01  0.2316E+01
      2.939  0.6174E+00  0.6175E+00  0.2355E+01  0.2354E+01
      3.001  0.5973E+00  0.5980E+00  0.2391E+01  0.2391E+01
      3.062  0.5473E+00  0.5483E+00  0.2425E+01  0.2424E+01
      3.123  0.5255E+00  0.5257E+00  0.2457E+01  0.2457E+01
      3.185  0.5250E+00  0.5254E+00  0.2489E+01  0.2489E+01
      3.246  0.4824E+00  0.4827E+00  0.2519E+01  0.2518E+01
      3.307  0.4947E+00  0.4937E+00  0.2549E+01  0.2549E+01
      3.369  0.5598E+00  0.5590E+00  0.2584E+01  0.2583E+01
      3.430  0.5993E+00  0.5990E+00  0.2620E+01  0.2620E+01
      3.492  0.6273E+00  0.6269E+00  0.2659E+01  0.2658E+01
      3.553  0.6589E+00  0.6578E+00  0.2699E+01  0.2699E+01
      3.614  0.7829E+00  0.7805E+00  0.2748E+01  0.2747E+01
      3.676  0.9144E+00  0.9140E+00  0.2804E+01  0.2803E+01
      3.737  0.8471E+00  0.8499E+00  0.2856E+01  0.2855E+01
      3.798  0.6630E+00  0.6655E+00  0.2896E+01  0.2896E+01
      3.860  0.5610E+00  0.5616E+00  0.2931E+01  0.2930E+01
      3.921  0.5492E+00  0.5489E+00  0.2965E+01  0.2964E+01
      3.983  0.5755E+00  0.5747E+00  0.3000E+01  0.2999E+01
      4.044  0.6604E+00  0.6587E+00  0.3040E+01  0.3040E+01
      4.105  0.8303E+00  0.8281E+00  0.3091E+01  0.3091E+01
      4.167  0.9770E+00  0.9763E+00  0.3151E+01  0.3151E+01
      4.228  0.9461E+00  0.9479E+00  0.3210E+01  0.3209E+01
      4.289  0.8130E+00  0.8146E+00  0.3259E+01  0.3259E+01
      4.351  0.8120E+00  0.8110E+00  0.3309E+01  0.3309E+01
      4.412  0.9777E+00  0.9759E+00  0.3369E+01  0.3369E+01
      4.474  0.1074E+01  0.1074E+01  0.3435E+01  0.3434E+01
      4.535  0.1009E+01  0.1011E+01  0.3497E+01  0.3497E+01
      4.596  0.8885E+00  0.8901E+00  0.3552E+01  0.3551E+01
      4.658  0.8505E+00  0.8511E+00  0.3604E+01  0.3603E+01
      4.719  0.8864E+00  0.8866E+00  0.3658E+01  0.3658E+01
      4.780  0.9726E+00  0.9721E+00  0.3718E+01  0.3718E+01
      4.842  0.1078E+01  0.1078E+01  0.3784E+01  0.3784E+01
      4.903  0.1121E+01  0.1121E+01  0.3853E+01  0.3853E+01
      4.964  0.1107E+01  0.1108E+01  0.3921E+01  0.3921E+01
      5.026  0.1092E+01  0.1093E+01  0.3988E+01  0.3988E+01
      5.087  0.1169E+01  0.1170E+01  0.4060E+01  0.4060E+01
      5.149  0.1315E+01  0.1316E+01  0.4141E+01  0.4140E+01
      5.210  0.1366E+01  0.1367E+01  0.4225E+01  0.4224E+01
      5.271  0.1119E+01  0.1121E+01  0.4293E+01  0.4293E+01
      5.333  0.8404E+00  0.8423E+00  0.4345E+01  0.4345E+01
      5.394  0.8829E+00  0.8845E+00  0.4399E+01  0.4399E+01
      5.455  0.1267E+01  0.1267E+01  0.4477E+01  0.4477E+01
      5.517  0.1745E+01  0.1744E+01  0.4584E+01  0.4584E+01
      5.578  0.2003E+01  0.2003E+01  0.4707E+01  0.4707E+01
      5.640  0.1901E+01  0.1903E+01  0.4824E+01  0.4824E+01
      5.701  0.1476E+01  0.1476E+01  0.4914E+01  0.4915E+01
      5.762  0.1085E+01  0.1086E+01  0.4981E+01  0.4981E+01
      5.824  0.9614E+00  0.9626E+00  0.5040E+01  0.5040E+01
      5.885  0.9006E+00  0.9005E+00  0.5095E+01  0.5096E+01
      5.946  0.8425E+00  0.8438E+00  0.5147E+01  0.5148E+01
      6.008  0.9196E+00  0.9223E+00  0.5204E+01  0.5204E+01
      6.069  0.1001E+01  0.1001E+01  0.5265E+01  0.5266E+01
      6.131  0.9206E+00  0.9191E+00  0.5322E+01  0.5322E+01
      6.192  0.7983E+00  0.7975E+00  0.5371E+01  0.5371E+01
      6.253  0.7292E+00  0.7297E+00  0.5416E+01  0.5416E+01
      6.315  0.6956E+00  0.6962E+00  0.5458E+01  0.5459E+01
      6.376  0.6790E+00  0.6802E+00  0.5500E+01  0.5501E+01
      6.437  0.7098E+00  0.7117E+00  0.5544E+01  0.5544E+01
      6.499  0.7438E+00  0.7452E+00  0.5589E+01  0.5590E+01
      6.560  0.7528E+00  0.7534E+00  0.5635E+01  0.5636E+01
      6.622  0.7551E+00  0.7545E+00  0.5682E+01  0.5683E+01
      6.683  0.7621E+00  0.7628E+00  0.5729E+01  0.5730E+01
      6.744  0.7741E+00  0.7748E+00  0.5776E+01  0.5777E+01
      6.806  0.6702E+00  0.6681E+00  0.5817E+01  0.5818E+01
      6.867  0.5462E+00  0.5450E+00  0.5851E+01  0.5852E+01
      6.928  0.5703E+00  0.5720E+00  0.5886E+01  0.5887E+01
      6.990  0.7137E+00  0.7174E+00  0.5930E+01  0.5931E+01
      7.051  0.8314E+00  0.8332E+00  0.5981E+01  0.5982E+01
      7.113  0.8263E+00  0.8235E+00  0.6032E+01  0.6033E+01
      7.174  0.6577E+00  0.6520E+00  0.6072E+01  0.6073E+01
      7.235  0.4231E+00  0.4201E+00  0.6098E+01  0.6098E+01
      7.297  0.3541E+00  0.3568E+00  0.6120E+01  0.6120E+01
      7.358  0.5031E+00  0.5086E+00  0.6151E+01  0.6152E+01
      7.419  0.6752E+00  0.6775E+00  0.6192E+01  0.6193E+01
      7.481  0.7210E+00  0.7209E+00  0.6236E+01  0.6237E+01
      7.542  0.7303E+00  0.7313E+00  0.6281E+01  0.6282E+01
      7.604  0.8036E+00  0.8079E+00  0.6331E+01  0.6332E+01
      7.665  0.9759E+00  0.9833E+00  0.6390E+01  0.6392E+01
      7.726  0.1181E+01  0.1186E+01  0.6463E+01  0.6465E+01
      7.788  0.1248E+01  0.1247E+01  0.6540E+01  0.6542E+01
      7.849  0.1193E+01  0.1192E+01  0.6613E+01  0.6615E+01
      7.910  0.1198E+01  0.1201E+01  0.6686E+01  0.6689E+01
      7.972  0.1359E+01  0.1365E+01  0.6770E+01  0.6772E+01
      8.033  0.1513E+01  0.1515E+01  0.6863E+01  0.6865E+01
      8.095  0.1473E+01  0.1471E+01  0.6953E+01  0.6956E+01
      8.156  0.1367E+01  0.1366E+01  0.7037E+01  0.7040E+01
      8.217  0.1312E+01  0.1309E+01  0.7118E+01  0.7120E+01
      8.279  0.1279E+01  0.1277E+01  0.7196E+01  0.7198E+01
      8.340  0.1300E+01  0.1304E+01  0.7276E+01  0.7278E+01
      8.401  0.1422E+01  0.1429E+01  0.7363E+01  0.7366E+01
      8.463  0.1671E+01  0.1681E+01  0.7466E+01  0.7470E+01
      8.524  0.2004E+01  0.2017E+01  0.7589E+01  0.7593E+01
      8.585  0.2232E+01  0.2243E+01  0.7726E+01  0.7731E+01
      8.647  0.2350E+01  0.2363E+01  0.7870E+01  0.7876E+01
      8.708  0.2581E+01  0.2603E+01  0.8029E+01  0.8036E+01
      8.770  0.2920E+01  0.2940E+01  0.8208E+01  0.8216E+01
      8.831  0.3033E+01  0.3035E+01  0.8394E+01  0.8403E+01
      8.892  0.2822E+01  0.2807E+01  0.8567E+01  0.8575E+01
      8.954  0.2476E+01  0.2455E+01  0.8720E+01  0.8726E+01
      9.015  0.2019E+01  0.1992E+01  0.8843E+01  0.8848E+01
      9.076  0.1489E+01  0.1465E+01  0.8935E+01  0.8938E+01
      9.138  0.1072E+01  0.1054E+01  0.9001E+01  0.9003E+01
      9.199  0.8521E+00  0.8416E+00  0.9053E+01  0.9055E+01
      9.261  0.7935E+00  0.7902E+00  0.9102E+01  0.9103E+01
      9.322  0.8150E+00  0.8143E+00  0.9152E+01  0.9154E+01
      9.383  0.8463E+00  0.8457E+00  0.9204E+01  0.9206E+01
      9.445  0.9550E+00  0.9573E+00  0.9263E+01  0.9264E+01
      9.506  0.1127E+01  0.1129E+01  0.9332E+01  0.9334E+01
      9.567  0.1180E+01  0.1179E+01  0.9405E+01  0.9406E+01
      9.629  0.1108E+01  0.1107E+01  0.9473E+01  0.9474E+01
      9.690  0.1044E+01  0.1044E+01  0.9537E+01  0.9538E+01
      9.752  0.1032E+01  0.1032E+01  0.9600E+01  0.9601E+01
      9.813  0.1033E+01  0.1033E+01  0.9664E+01  0.9665E+01
      9.874  0.1073E+01  0.1076E+01  0.9729E+01  0.9731E+01
      9.936  0.1211E+01  0.1215E+01  0.9804E+01  0.9806E+01
      9.997  0.1270E+01  0.1270E+01  0.9882E+01  0.9884E+01
     10.058  0.1186E+01  0.1185E+01  0.9955E+01  0.9956E+01
     10.120  0.1094E+01  0.1093E+01  0.1002E+02  0.1002E+02
     10.181  0.1005E+01  0.1005E+01  0.1008E+02  0.1009E+02
     10.243  0.1007E+01  0.1013E+01  0.1015E+02  0.1015E+02
     10.304  0.1083E+01  0.1089E+01  0.1021E+02  0.1021E+02
     10.365  0.1218E+01  0.1227E+01  0.1029E+02  0.1029E+02
     10.427  0.1430E+01  0.1444E+01  0.1037E+02  0.1038E+02
     10.488  0.1548E+01  0.1558E+01  0.1047E+02  0.1047E+02
     10.549  0.1471E+01  0.1474E+01  0.1056E+02  0.1056E+02
     10.611  0.1370E+01  0.1373E+01  0.1064E+02  0.1065E+02
     10.672  0.1337E+01  0.1345E+01  0.1073E+02  0.1073E+02
     10.734  0.1404E+01  0.1416E+01  0.1081E+02  0.1082E+02
     10.795  0.1563E+01  0.1559E+01  0.1091E+02  0.1091E+02
     10.856  0.1603E+01  0.1586E+01  0.1101E+02  0.1101E+02
     10.918  0.1515E+01  0.1503E+01  0.1110E+02  0.1110E+02
     10.979  0.1427E+01  0.1415E+01  0.1119E+02  0.1119E+02
     11.040  0.1403E+01  0.1401E+01  0.1127E+02  0.1128E+02
     11.102  0.1348E+01  0.1362E+01  0.1136E+02  0.1136E+02
     11.163  0.1239E+01  0.1248E+01  0.1143E+02  0.1144E+02
     11.225  0.1175E+01  0.1155E+01  0.1150E+02  0.1151E+02
     11.286  0.1142E+01  0.1105E+01  0.1157E+02  0.1158E+02
     11.347  0.9843E+00  0.9557E+00  0.1164E+02  0.1163E+02
     11.409  0.6902E+00  0.6737E+00  0.1168E+02  0.1168E+02
     11.470  0.4857E+00  0.4724E+00  0.1171E+02  0.1171E+02
     11.531  0.4130E+00  0.4029E+00  0.1173E+02  0.1173E+02
     11.593  0.3524E+00  0.3731E+00  0.1175E+02  0.1175E+02
     11.654  0.3443E+00  0.4048E+00  0.1178E+02  0.1178E+02
     11.716  0.4186E+00  0.4959E+00  0.1180E+02  0.1181E+02
     11.777  0.4838E+00  0.5682E+00  0.1183E+02  0.1184E+02
     11.838  0.4667E+00  0.5310E+00  0.1186E+02  0.1188E+02
     11.900  0.4297E+00  0.4203E+00  0.1189E+02  0.1190E+02
     11.961  0.4084E+00  0.3367E+00  0.1191E+02  0.1192E+02
     12.022  0.3448E+00  0.2780E+00  0.1193E+02  0.1194E+02
     12.084  0.2591E+00  0.2313E+00  0.1195E+02  0.1195E+02
     12.145  0.2168E+00  0.2219E+00  0.1196E+02  0.1197E+02
     12.207  0.2060E+00  0.2177E+00  0.1197E+02  0.1198E+02
     12.268  0.1498E+00  0.1502E+00  0.1198E+02  0.1199E+02
     12.329  0.8122E-01  0.7630E-01  0.1199E+02  0.1199E+02
     12.391  0.4479E-01  0.3977E-01  0.1199E+02  0.1200E+02
     12.452  0.2821E-01  0.2529E-01  0.1199E+02  0.1200E+02
     12.513  0.1718E-01  0.1595E-01  0.1199E+02  0.1200E+02
     12.575  0.7744E-02  0.7155E-02  0.1199E+02  0.1200E+02
     12.636  0.2582E-02  0.2408E-02  0.1199E+02  0.1200E+02
     12.697  0.8885E-03  0.7502E-03  0.1199E+02  0.1200E+02
     12.759  0.5236E-03  0.2042E-03  0.1200E+02  0.1200E+02
     12.820  0.1076E-02  0.6019E-04  0.1200E+02  0.1200E+02
     12.882  0.2896E-02  0.0000E+00  0.1200E+02  0.1200E+02
     12.943  0.6329E-02  0.0000E+00  0.1200E+02  0.1200E+02
     13.004  0.9770E-02  0.0000E+00  0.1200E+02  0.1200E+02
     13.066  0.1099E-01  0.0000E+00  0.1200E+02  0.1200E+02
     13.127  0.7858E-02  0.0000E+00  0.1200E+02  0.1200E+02
     13.188  0.3547E-02  0.0000E+00  0.1200E+02  0.1200E+02
     13.250  0.1352E-02  0.0000E+00  0.1200E+02  0.1200E+02
     13.311  0.8967E-03  0.0000E+00  0.1200E+02  0.1200E+02
     13.373  0.1785E-02  0.0000E+00  0.1200E+02  0.1200E+02
     13.434  0.4640E-02  0.0000E+00  0.1200E+02  0.1200E+02
     13.495  0.8868E-02  0.0000E+00  0.1200E+02  0.1200E+02
     13.557  0.9859E-02  0.0000E+00  0.1200E+02  0.1200E+02
     13.618  0.6606E-02  0.0000E+00  0.1200E+02  0.1200E+02
     13.679  0.3087E-02  0.0000E+00  0.1200E+02  0.1200E+02
     13.741  0.1114E-02  0.0000E+00  0.1200E+02  0.1200E+02
     13.802  0.3511E-03  0.0000E+00  0.1200E+02  0.1200E+02
     13.864  0.1053E-03  0.0000E+00  0.1200E+02  0.1200E+02
     13.925  0.1763E-04  0.0000E+00  0.1200E+02  0.1200E+02
     13.986  0.0000E+00  0.0000E+00  0.1200E+02  0.1200E+02
     14.048  0.0000E+00  0.0000E+00  0.1200E+02  0.1200E+02
     14.109  0.0000E+00  0.0000E+00  0.1200E+02  0.1200E+02
     14.170  0.0000E+00  0.0000E+00  0.1200E+02  0.1200E+02
     14.232  0.0000E+00  0.0000E+00  0.1200E+02  0.1200E+02
     14.293  0.0000E+00  0.0000E+00  0.1200E+02  0.1200E+02
     14.355  0.0000E+00  0.0000E+00  0.1200E+02  0.1200E+02
     14.416  0.0000E+00  0.0000E+00  0.1200E+02  0.1200E+02
     14.41593283     -3.99597699  301      7.75493523      1.00000000
     -3.996  0.0000E+00  0.0000E+00  0.0000E+00  0.0000E+00  0.0000E+00  0.0000E+00  0.0000E+00  0.0000E+00  0.0000E+00  0.0000E+00  0.0000E+00  0.0000E+00  0.0000E+00  0.0000E+00  0.0000E+00  0.0000E+00  0.0000E+00  0.0000E+00
     -3.935  0.0000E+00  0.0000E+00  0.0000E+00  0.0000E+00  0.0000E+00  0.0000E+00  0.0000E+00  0.0000E+00  0.0000E+00  0.0000E+00  0.0000E+00  0.0000E+00  0.0000E+00  0.0000E+00  0.0000E+00  0.0000E+00  0.0000E+00  0.0000E+00
     -3.873  0.0000E+00  0.0000E+00  0.0000E+00  0.0000E+00  0.0000E+00  0.0000E+00  0.0000E+00  0.0000E+00  0.0000E+00  0.0000E+00  0.0000E+00  0.0000E+00  0.0000E+00  0.0000E+00  0.0000E+00  0.0000E+00  0.0000E+00  0.0000E+00
     -3.812  0.0000E+00  0.0000E+00  0.0000E+00  0.0000E+00  0.0000E+00  0.0000E+00  0.0000E+00  0.0000E+00  0.0000E+00  0.0000E+00  0.0000E+00  0.0000E+00  0.0000E+00  0.0000E+00  0.0000E+00  0.0000E+00  0.0000E+00  0.0000E+00
     -3.750  0.0000E+00  0.0000E+00  0.0000E+00  0.0000E+00  0.0000E+00  0.0000E+00  0.0000E+00  0.0000E+00  0.0000E+00  0.0000E+00  0.0000E+00  0.0000E+00  0.0000E+00  0.0000E+00  0.0000E+00  0.0000E+00  0.0000E+00  0.0000E+00
     -3.689  0.0000E+00  0.0000E+00  0.0000E+00  0.0000E+00  0.0000E+00  0.0000E+00  0.0000E+00  0.0000E+00  0.0000E+00  0.0000E+00  0.0000E+00  0.0000E+00  0.0000E+00  0.0000E+00  0.0000E+00  0.0000E+00  0.0000E+00  0.0000E+00
     -3.628  0.0000E+00  0.0000E+00  0.0000E+00  0.0000E+00  0.0000E+00  0.0000E+00  0.0000E+00  0.0000E+00  0.0000E+00  0.0000E+00  0.0000E+00  0.0000E+00  0.0000E+00  0.0000E+00  0.0000E+00  0.0000E+00  0.0000E+00  0.0000E+00
     -3.566  0.2779E-06  0.2705E-06  0.3300E-21  0.2889E-21  0.3300E-21  0.2889E-21  0.7062E-22  0.4148E-21  0.1627E-21  0.1522E-22  0.2335E-21  0.1610E-22  0.2442E-15  0.2290E-15  0.1627E-21  0.1522E-22  0.3131E-15  0.2958E-15
     -3.505  0.3539E-05  0.2373E-05  0.1201E-07  0.5181E-08  0.1201E-07  0.5181E-08  0.1200E-07  0.5179E-08  0.6434E-10  0.1370E-19  0.6436E-10  0.4531E-20  0.3822E-10  0.2059E-10  0.6434E-10  0.1370E-19  0.4030E-10  0.2636E-10
     -3.444  0.9978E-05  0.1079E-04  0.3612E-07  0.4167E-07  0.3612E-07  0.4167E-07  0.3611E-07  0.4166E-07  0.2943E-09  0.3492E-09  0.2943E-09  0.3492E-09  0.9215E-10  0.1063E-09  0.2943E-09  0.3492E-09  0.9714E-10  0.1074E-09
     -3.382  0.3376E-04  0.3287E-04  0.1238E-06  0.1205E-06  0.1238E-06  0.1205E-06  0.1237E-06  0.1204E-06  0.8644E-09  0.8417E-09  0.8645E-09  0.8418E-09  0.4359E-09  0.4243E-09  0.8644E-09  0.8417E-09  0.4876E-09  0.4746E-09
     -3.321  0.1157E-03  0.1127E-03  0.4545E-06  0.4425E-06  0.4545E-06  0.4425E-06  0.4543E-06  0.4423E-06  0.3613E-08  0.3518E-08  0.3614E-08  0.3519E-08  0.1809E-08  0.1761E-08  0.3613E-08  0.3518E-08  0.2024E-08  0.1970E-08
     -3.260  0.3780E-03  0.3686E-03  0.1536E-05  0.1497E-05  0.1536E-05  0.1497E-05  0.1536E-05  0.1496E-05  0.1321E-07  0.1287E-07  0.1321E-07  0.1287E-07  0.5949E-08  0.5793E-08  0.1321E-07  0.1287E-07  0.6681E-08  0.6507E-08
     -3.198  0.1133E-02  0.1108E-02  0.4901E-05  0.4781E-05  0.4901E-05  0.4781E-05  0.4899E-05  0.4779E-05  0.4243E-07  0.4135E-07  0.4244E-07  0.4136E-07  0.1898E-07  0.1851E-07  0.4243E-07  0.4135E-07  0.2122E-07  0.2070E-07
     -3.137  0.2858E-02  0.2808E-02  0.1428E-04  0.1398E-04  0.1428E-04  0.1398E-04  0.1428E-04  0.1397E-04  0.1362E-06  0.1330E-06  0.1363E-06  0.1330E-06  0.5680E-07  0.5553E-07  0.1362E-06  0.1330E-06  0.6312E-07  0.6171E-07
     -3.075  0.5527E-02  0.5465E-02  0.3417E-04  0.3361E-04  0.3417E-04  0.3361E-04  0.3416E-04  0.3360E-04  0.3843E-06  0.3766E-06  0.3843E-06  0.3767E-06  0.1482E-06  0.1453E-06  0.3843E-06  0.3766E-06  0.1657E-06  0.1624E-06
     -3.014  0.8005E-02  0.7961E-02  0.6482E-04  0.6405E-04  0.6482E-04  0.6405E-04  0.6479E-04  0.6402E-04  0.8717E-06  0.8583E-06  0.8719E-06  0.8585E-06  0.3549E-06  0.3482E-06  0.8717E-06  0.8583E-06  0.4103E-06  0.4023E-06
     -2.953  0.9791E-02  0.9750E-02  0.1088E-03  0.1076E-03  0.1088E-03  0.1076E-03  0.1088E-03  0.1076E-03  0.1727E-05  0.1702E-05  0.1727E-05  0.1703E-05  0.8193E-06  0.8051E-06  0.1727E-05  0.1702E-05  0.9767E-06  0.9595E-06
     -2.891  0.1231E-01  0.1224E-01  0.1784E-03  0.1767E-03  0.1784E-03  0.1767E-03  0.1783E-03  0.1766E-03  0.3394E-05  0.3347E-05  0.3395E-05  0.3348E-05  0.1588E-05  0.1570E-05  0.3394E-05  0.3347E-05  0.1899E-05  0.1878E-05
     -2.830  0.1473E-01  0.1470E-01  0.2512E-03  0.2500E-03  0.2512E-03  0.2500E-03  0.2511E-03  0.2500E-03  0.5892E-05  0.5839E-05  0.5893E-05  0.5840E-05  0.2258E-05  0.2247E-05  0.5892E-05  0.5839E-05  0.2674E-05  0.2662E-05
     -2.769  0.1424E-01  0.1427E-01  0.2834E-03  0.2830E-03  0.2834E-03  0.2830E-03  0.2834E-03  0.2829E-03  0.8276E-05  0.8226E-05  0.8278E-05  0.8228E-05  0.2705E-05  0.2691E-05  0.8276E-05  0.8226E-05  0.3111E-05  0.3097E-05
     -2.707  0.1370E-01  0.1367E-01  0.3383E-03  0.3360E-03  0.3383E-03  0.3360E-03  0.3380E-03  0.3358E-03  0.1181E-04  0.1171E-04  0.1182E-04  0.1172E-04  0.4064E-05  0.4014E-05  0.1181E-04  0.1171E-04  0.4555E-05  0.4499E-05
     -2.646  0.1651E-01  0.1643E-01  0.4838E-03  0.4802E-03  0.4838E-03  0.4802E-03  0.4833E-03  0.4797E-03  0.1776E-04  0.1764E-04  0.1777E-04  0.1765E-04  0.7312E-05  0.7224E-05  0.1776E-04  0.1764E-04  0.8428E-05  0.8320E-05
     -2.584  0.1920E-01  0.1917E-01  0.6255E-03  0.6233E-03  0.6255E-03  0.6233E-03  0.6251E-03  0.6229E-03  0.2290E-04  0.2282E-04  0.2291E-04  0.2283E-04  0.1124E-04  0.1117E-04  0.2290E-04  0.2282E-04  0.1344E-04  0.1335E-04
     -2.523  0.1908E-01  0.1911E-01  0.6870E-03  0.6863E-03  0.6870E-03  0.6863E-03  0.6870E-03  0.6863E-03  0.2836E-04  0.2822E-04  0.2837E-04  0.2823E-04  0.1306E-04  0.1305E-04  0.2836E-04  0.2822E-04  0.1578E-04  0.1578E-04
     -2.462  0.1820E-01  0.1821E-01  0.7354E-03  0.7334E-03  0.7354E-03  0.7334E-03  0.7354E-03  0.7334E-03  0.3906E-04  0.3879E-04  0.3909E-04  0.3881E-04  0.1307E-04  0.1306E-04  0.3906E-04  0.3879E-04  0.1532E-04  0.1532E-04
     -2.400  0.1937E-01  0.1933E-01  0.8729E-03  0.8692E-03  0.8729E-03  0.8692E-03  0.8725E-03  0.8689E-03  0.5564E-04  0.5533E-04  0.5566E-04  0.5535E-04  0.1494E-04  0.1488E-04  0.5564E-04  0.5533E-04  0.1678E-04  0.1672E-04
     -2.339  0.1988E-01  0.1991E-01  0.9706E-03  0.9703E-03  0.9706E-03  0.9703E-03  0.9702E-03  0.9699E-03  0.6561E-04  0.6564E-04  0.6559E-04  0.6562E-04  0.1780E-04  0.1774E-04  0.6561E-04  0.6564E-04  0.2011E-04  0.2004E-04
     -2.278  0.1760E-01  0.1764E-01  0.9567E-03  0.9556E-03  0.9567E-03  0.9556E-03  0.9556E-03  0.9545E-03  0.6305E-04  0.6309E-04  0.6304E-04  0.6308E-04  0.2195E-04  0.2180E-04  0.6305E-04  0.6309E-04  0.2595E-04  0.2575E-04
     -2.216  0.1889E-01  0.1881E-01  0.1171E-02  0.1163E-02  0.1171E-02  0.1163E-02  0.1169E-02  0.1161E-02  0.7642E-04  0.7592E-04  0.7648E-04  0.7598E-04  0.3288E-04  0.3260E-04  0.7642E-04  0.7592E-04  0.3986E-04  0.3951E-04
     -2.155  0.2310E-01  0.2303E-01  0.1541E-02  0.1535E-02  0.1541E-02  0.1535E-02  0.1540E-02  0.1533E-02  0.1087E-03  0.1081E-03  0.1088E-03  0.1082E-03  0.4527E-04  0.4510E-04  0.1087E-03  0.1081E-03  0.5418E-04  0.5402E-04
     -2.093  0.2405E-01  0.2407E-01  0.1699E-02  0.1697E-02  0.1699E-02  0.1697E-02  0.1698E-02  0.1697E-02  0.1360E-03  0.1357E-03  0.1361E-03  0.1357E-03  0.4928E-04  0.4931E-04  0.1360E-03  0.1357E-03  0.5723E-04  0.5730E-04
     -2.032  0.2318E-01  0.2319E-01  0.1756E-02  0.1754E-02  0.1756E-02  0.1754E-02  0.1755E-02  0.1753E-02  0.1592E-03  0.1588E-03  0.1592E-03  0.1588E-03  0.5016E-04  0.5017E-04  0.1592E-03  0.1588E-03  0.5736E-04  0.5736E-04
     -1.971  0.2254E-01  0.2257E-01  0.1824E-02  0.1824E-02  0.1824E-02  0.1824E-02  0.1824E-02  0.1824E-02  0.1837E-03  0.1834E-03  0.1837E-03  0.1834E-03  0.5044E-04  0.5056E-04  0.1837E-03  0.1834E-03  0.5813E-04  0.5826E-04
     -1.909  0.1981E-01  0.1990E-01  0.1697E-02  0.1701E-02  0.1697E-02  0.1701E-02  0.1698E-02  0.1702E-02  0.1924E-03  0.1926E-03  0.1923E-03  0.1925E-03  0.4318E-04  0.4340E-04  0.1924E-03  0.1926E-03  0.4995E-04  0.5022E-04
     -1.848  0.1692E-01  0.1695E-01  0.1601E-02  0.1598E-02  0.1601E-02  0.1598E-02  0.1599E-02  0.1596E-02  0.1956E-03  0.1953E-03  0.1957E-03  0.1955E-03  0.4213E-04  0.4197E-04  0.1956E-03  0.1953E-03  0.4893E-04  0.4873E-04
     -1.787  0.1899E-01  0.1889E-01  0.2036E-02  0.2020E-02  0.2036E-02  0.2020E-02  0.2030E-02  0.2014E-02  0.2438E-03  0.2424E-03  0.2441E-03  0.2428E-03  0.6462E-04  0.6395E-04  0.2438E-03  0.2424E-03  0.7521E-04  0.7443E-04
     -1.725  0.2402E-01  0.2393E-01  0.2798E-02  0.2783E-02  0.2798E-02  0.2783E-02  0.2792E-02  0.2776E-02  0.3220E-03  0.3208E-03  0.3223E-03  0.3211E-03  0.1002E-03  0.9960E-04  0.3220E-03  0.3208E-03  0.1168E-03  0.1161E-03
     -1.664  0.2554E-01  0.2557E-01  0.3153E-02  0.3152E-02  0.3153E-02  0.3152E-02  0.3152E-02  0.3151E-02  0.3647E-03  0.3647E-03  0.3646E-03  0.3646E-03  0.1168E-03  0.1169E-03  0.3647E-03  0.3647E-03  0.1377E-03  0.1378E-03
     -1.602  0.2326E-01  0.2330E-01  0.3064E-02  0.3063E-02  0.3064E-02  0.3063E-02  0.3064E-02  0.3063E-02  0.3868E-03  0.3862E-03  0.3869E-03  0.3862E-03  0.1103E-03  0.1105E-03  0.3868E-03  0.3862E-03  0.1315E-03  0.1318E-03
     -1.541  0.2318E-01  0.2317E-01  0.3263E-02  0.3256E-02  0.3263E-02  0.3256E-02  0.3260E-02  0.3254E-02  0.4598E-03  0.4587E-03  0.4601E-03  0.4590E-03  0.1128E-03  0.1128E-03  0.4598E-03  0.4587E-03  0.1346E-03  0.1345E-03
     -1.480  0.2147E-01  0.2157E-01  0.3195E-02  0.3204E-02  0.3195E-02  0.3204E-02  0.3196E-02  0.3205E-02  0.4756E-03  0.4769E-03  0.4756E-03  0.4769E-03  0.1114E-03  0.1118E-03  0.4756E-03  0.4769E-03  0.1318E-03  0.1324E-03
     -1.418  0.1712E-01  0.1718E-01  0.2742E-02  0.2746E-02  0.2742E-02  0.2746E-02  0.2744E-02  0.2748E-02  0.4557E-03  0.4553E-03  0.4561E-03  0.4557E-03  0.9400E-04  0.9439E-04  0.4557E-03  0.4553E-03  0.1078E-03  0.1084E-03
     -1.357  0.1750E-01  0.1743E-01  0.3125E-02  0.3104E-02  0.3125E-02  0.3104E-02  0.3117E-02  0.3096E-02  0.5913E-03  0.5872E-03  0.5924E-03  0.5883E-03  0.9817E-04  0.9786E-04  0.5913E-03  0.5872E-03  0.1082E-03  0.1079E-03
     -1.296  0.2134E-01  0.2127E-01  0.4296E-02  0.4267E-02  0.4296E-02  0.4267E-02  0.4280E-02  0.4252E-02  0.8151E-03  0.8116E-03  0.8158E-03  0.8124E-03  0.1249E-03  0.1244E-03  0.8151E-03  0.8116E-03  0.1382E-03  0.1376E-03
     -1.234  0.2252E-01  0.2255E-01  0.5268E-02  0.5253E-02  0.5268E-02  0.5253E-02  0.5253E-02  0.5238E-02  0.9240E-03  0.9245E-03  0.9240E-03  0.9245E-03  0.1446E-03  0.1446E-03  0.9240E-03  0.9245E-03  0.1634E-03  0.1633E-03
     -1.173  0.1967E-01  0.1976E-01  0.5429E-02  0.5432E-02  0.5429E-02  0.5432E-02  0.5424E-02  0.5427E-02  0.8929E-03  0.8949E-03  0.8926E-03  0.8946E-03  0.1399E-03  0.1404E-03  0.8929E-03  0.8949E-03  0.1610E-03  0.1615E-03
     -1.111  0.1635E-01  0.1641E-01  0.5224E-02  0.5224E-02  0.5224E-02  0.5224E-02  0.5221E-02  0.5221E-02  0.8910E-03  0.8906E-03  0.8916E-03  0.8912E-03  0.1262E-03  0.1266E-03  0.8910E-03  0.8906E-03  0.1474E-03  0.1477E-03
     -1.050  0.1462E-01  0.1465E-01  0.5333E-02  0.5329E-02  0.5333E-02  0.5329E-02  0.5329E-02  0.5324E-02  0.9851E-03  0.9837E-03  0.9863E-03  0.9849E-03  0.1233E-03  0.1235E-03  0.9851E-03  0.9837E-03  0.1445E-03  0.1448E-03
     -0.989  0.1371E-01  0.1372E-01  0.5311E-02  0.5313E-02  0.5311E-02  0.5313E-02  0.5318E-02  0.5319E-02  0.1129E-02  0.1126E-02  0.1131E-02  0.1127E-02  0.1200E-03  0.1203E-03  0.1129E-02  0.1126E-02  0.1367E-03  0.1371E-03
     -0.927  0.1516E-01  0.1511E-01  0.5441E-02  0.5430E-02  0.5441E-02  0.5430E-02  0.5444E-02  0.5433E-02  0.1467E-02  0.1459E-02  0.1470E-02  0.1462E-02  0.1218E-03  0.1218E-03  0.1467E-02  0.1459E-02  0.1307E-03  0.1308E-03