   4   4   1   0
  0.1480473E+02  0.3897198E-09  0.3898109E-09  0.3898109E-09  0.5000000E-15
  1.000000000000000E-004
  CAR 
 unknown system                          
     14.89735524     -3.90210086  301      8.05224263      1.00000000
     -3.902  0.0000E+00  0.0000E+00  0.0000E+00  0.0000E+00
     -3.839  0.0000E+00  0.0000E+00  0.0000E+00  0.0000E+00
     -3.777  0.0000E+00  0.0000E+00  0.0000E+00  0.0000E+00
     -3.714  0.0000E+00  0.0000E+00  0.0000E+00  0.0000E+00
     -3.651  0.0000E+00  0.0000E+00  0.0000E+00  0.0000E+00
     -3.589  0.0000E+00  0.0000E+00  0.0000E+00  0.0000E+00
     -3.526  0.0000E+00  0.0000E+00  0.0000E+00  0.0000E+00
     -3.463  0.1774E-05  0.1725E-05  0.1111E-06  0.1081E-06
     -3.401  0.1587E-04  0.1543E-04  0.1106E-05  0.1075E-05
     -3.338  0.6873E-04  0.6683E-04  0.5412E-05  0.5263E-05
     -3.275  0.2329E-03  0.2265E-03  0.2001E-04  0.1946E-04
     -3.213  0.8199E-03  0.7976E-03  0.7138E-04  0.6944E-04
     -3.150  0.2740E-02  0.2669E-02  0.2431E-03  0.2367E-03
     -3.087  0.8446E-02  0.8248E-02  0.7723E-03  0.7536E-03
     -3.025  0.2183E-01  0.2143E-01  0.2140E-02  0.2096E-02
     -2.962  0.4301E-01  0.4250E-01  0.4835E-02  0.4760E-02
     -2.899  0.6299E-01  0.6262E-01  0.8783E-02  0.8684E-02
     -2.837  0.7773E-01  0.7738E-01  0.1365E-01  0.1353E-01
     -2.774  0.9951E-01  0.9892E-01  0.1989E-01  0.1973E-01
     -2.711  0.1213E+00  0.1210E+00  0.2749E-01  0.2732E-01
     -2.649  0.1181E+00  0.1184E+00  0.3489E-01  0.3473E-01
     -2.586  0.1149E+00  0.1146E+00  0.4210E-01  0.4192E-01
     -2.523  0.1424E+00  0.1416E+00  0.5102E-01  0.5080E-01
     -2.461  0.1691E+00  0.1688E+00  0.6162E-01  0.6138E-01
     -2.398  0.1703E+00  0.1705E+00  0.7230E-01  0.7207E-01
     -2.335  0.1648E+00  0.1647E+00  0.8264E-01  0.8240E-01
     -2.273  0.1795E+00  0.1790E+00  0.9389E-01  0.9362E-01
     -2.210  0.1881E+00  0.1883E+00  0.1057E+00  0.1054E+00
     -2.147  0.1685E+00  0.1688E+00  0.1162E+00  0.1160E+00
     -2.085  0.1863E+00  0.1853E+00  0.1279E+00  0.1276E+00
     -2.022  0.2350E+00  0.2341E+00  0.1427E+00  0.1423E+00
     -1.959  0.2488E+00  0.2489E+00  0.1582E+00  0.1579E+00
     -1.897  0.2443E+00  0.2443E+00  0.1736E+00  0.1732E+00
     -1.834  0.2431E+00  0.2436E+00  0.1888E+00  0.1885E+00
     -1.771  0.2177E+00  0.2186E+00  0.2025E+00  0.2022E+00
     -1.709  0.1903E+00  0.1903E+00  0.2144E+00  0.2141E+00
     -1.646  0.2242E+00  0.2227E+00  0.2285E+00  0.2281E+00
     -1.584  0.2965E+00  0.2950E+00  0.2470E+00  0.2466E+00
     -1.521  0.3244E+00  0.3246E+00  0.2674E+00  0.2669E+00
     -1.458  0.3026E+00  0.3029E+00  0.2864E+00  0.2859E+00
     -1.396  0.3127E+00  0.3123E+00  0.3060E+00  0.3055E+00
     -1.333  0.2988E+00  0.2999E+00  0.3247E+00  0.3243E+00
     -1.270  0.2451E+00  0.2458E+00  0.3401E+00  0.3397E+00
     -1.208  0.2668E+00  0.2653E+00  0.3568E+00  0.3564E+00
     -1.145  0.3512E+00  0.3494E+00  0.3788E+00  0.3783E+00
     -1.082  0.4063E+00  0.4058E+00  0.4043E+00  0.4037E+00
     -1.020  0.3942E+00  0.3950E+00  0.4290E+00  0.4285E+00
     -0.957  0.3626E+00  0.3630E+00  0.4518E+00  0.4513E+00
     -0.894  0.3597E+00  0.3597E+00  0.4743E+00  0.4738E+00
     -0.832  0.3567E+00  0.3568E+00  0.4967E+00  0.4962E+00
     -0.769  0.3794E+00  0.3785E+00  0.5205E+00  0.5199E+00
     -0.706  0.4263E+00  0.4256E+00  0.5472E+00  0.5466E+00
     -0.644  0.4281E+00  0.4287E+00  0.5740E+00  0.5735E+00
     -0.581  0.3802E+00  0.3818E+00  0.5979E+00  0.5974E+00
     -0.518  0.3027E+00  0.3044E+00  0.6169E+00  0.6165E+00
     -0.456  0.2603E+00  0.2605E+00  0.6332E+00  0.6328E+00
     -0.393  0.2808E+00  0.2796E+00  0.6508E+00  0.6504E+00
     -0.330  0.3646E+00  0.3626E+00  0.6737E+00  0.6731E+00
     -0.268  0.4086E+00  0.4090E+00  0.6993E+00  0.6988E+00
     -0.205  0.3453E+00  0.3470E+00  0.7210E+00  0.7205E+00
     -0.142  0.2858E+00  0.2868E+00  0.7389E+00  0.7385E+00
     -0.080  0.2384E+00  0.2394E+00  0.7538E+00  0.7535E+00
     -0.017  0.2312E+00  0.2302E+00  0.7683E+00  0.7680E+00
      0.046  0.3445E+00  0.3412E+00  0.7899E+00  0.7893E+00
      0.108  0.4779E+00  0.4763E+00  0.8199E+00  0.8192E+00
      0.171  0.4581E+00  0.4600E+00  0.8486E+00  0.8481E+00
      0.234  0.3753E+00  0.3763E+00  0.8721E+00  0.8716E+00
      0.296  0.3487E+00  0.3493E+00  0.8940E+00  0.8936E+00
      0.359  0.3080E+00  0.3087E+00  0.9133E+00  0.9129E+00
      0.422  0.3265E+00  0.3250E+00  0.9338E+00  0.9333E+00
      0.484  0.4214E+00  0.4197E+00  0.9602E+00  0.9596E+00
      0.547  0.4412E+00  0.4419E+00  0.9879E+00  0.9873E+00
      0.610  0.3651E+00  0.3671E+00  0.1011E+01  0.1010E+01
      0.672  0.2885E+00  0.2894E+00  0.1029E+01  0.1028E+01
      0.735  0.2921E+00  0.2911E+00  0.1047E+01  0.1047E+01
      0.798  0.3546E+00  0.3532E+00  0.1069E+01  0.1069E+01
      0.860  0.4300E+00  0.4284E+00  0.1096E+01  0.1096E+01
      0.923  0.4968E+00  0.4958E+00  0.1128E+01  0.1127E+01
      0.986  0.4887E+00  0.4899E+00  0.1158E+01  0.1158E+01
      1.048  0.3949E+00  0.3970E+00  0.1183E+01  0.1182E+01
      1.111  0.3338E+00  0.3342E+00  0.1204E+01  0.1203E+01
      1.174  0.3429E+00  0.3425E+00  0.1225E+01  0.1225E+01
      1.236  0.3726E+00  0.3720E+00  0.1249E+01  0.1248E+01
      1.299  0.4059E+00  0.4052E+00  0.1274E+01  0.1274E+01
      1.362  0.4490E+00  0.4479E+00  0.1302E+01  0.1302E+01
      1.424  0.4577E+00  0.4586E+00  0.1331E+01  0.1330E+01
      1.487  0.3928E+00  0.3939E+00  0.1356E+01  0.1355E+01
      1.550  0.4095E+00  0.4081E+00  0.1381E+01  0.1381E+01
      1.612  0.4855E+00  0.4843E+00  0.1412E+01  0.1411E+01
      1.675  0.5367E+00  0.5357E+00  0.1445E+01  0.1445E+01
      1.738  0.5967E+00  0.5954E+00  0.1483E+01  0.1482E+01
      1.800  0.6340E+00  0.6338E+00  0.1523E+01  0.1522E+01
      1.863  0.5996E+00  0.6008E+00  0.1560E+01  0.1559E+01
      1.926  0.5774E+00  0.5769E+00  0.1596E+01  0.1596E+01
      1.988  0.6425E+00  0.6411E+00  0.1637E+01  0.1636E+01
      2.051  0.6722E+00  0.6725E+00  0.1679E+01  0.1678E+01
      2.114  0.6301E+00  0.6316E+00  0.1718E+01  0.1718E+01
      2.176  0.5475E+00  0.5493E+00  0.1753E+01  0.1752E+01
      2.239  0.4792E+00  0.4800E+00  0.1783E+01  0.1782E+01
      2.302  0.5160E+00  0.5139E+00  0.1815E+01  0.1814E+01
      2.364  0.6616E+00  0.6592E+00  0.1857E+01  0.1856E+01
      2.427  0.7163E+00  0.7171E+00  0.1901E+01  0.1901E+01
      2.490  0.6313E+00  0.6332E+00  0.1941E+01  0.1940E+01
      2.552  0.5736E+00  0.5743E+00  0.1977E+01  0.1976E+01
      2.615  0.5794E+00  0.5789E+00  0.2013E+01  0.2013E+01
      2.678  0.6518E+00  0.6501E+00  0.2054E+01  0.2053E+01
      2.740  0.7200E+00  0.7197E+00  0.2099E+01  0.2099E+01
      2.803  0.6872E+00  0.6885E+00  0.2143E+01  0.2142E+01
      2.866  0.6368E+00  0.6374E+00  0.2182E+01  0.2182E+01
      2.928  0.6043E+00  0.6054E+00  0.2220E+01  0.2220E+01
      2.991  0.5434E+00  0.5441E+00  0.2254E+01  0.2254E+01
      3.054  0.5553E+00  0.5543E+00  0.2289E+01  0.2289E+01
      3.116  0.6071E+00  0.6065E+00  0.2327E+01  0.2327E+01
      3.179  0.6093E+00  0.6096E+00  0.2366E+01  0.2365E+01
      3.242  0.5801E+00  0.5810E+00  0.2402E+01  0.2401E+01
      3.304  0.5271E+00  0.5282E+00  0.2435E+01  0.2434E+01
      3.367  0.5150E+00  0.5151E+00  0.2467E+01  0.2467E+01
      3.430  0.5068E+00  0.5073E+00  0.2499E+01  0.2499E+01
      3.492  0.4758E+00  0.4756E+00  0.2529E+01  0.2528E+01
      3.555  0.5198E+00  0.5184E+00  0.2561E+01  0.2561E+01
      3.618  0.5819E+00  0.5812E+00  0.2598E+01  0.2597E+01
      3.680  0.6143E+00  0.6138E+00  0.2636E+01  0.2636E+01
      3.743  0.6404E+00  0.6400E+00  0.2677E+01  0.2676E+01
      3.806  0.6958E+00  0.6939E+00  0.2720E+01  0.2719E+01
      3.868  0.8435E+00  0.8414E+00  0.2773E+01  0.2772E+01
      3.931  0.8953E+00  0.8967E+00  0.2829E+01  0.2828E+01
      3.994  0.7467E+00  0.7500E+00  0.2876E+01  0.2875E+01
      4.056  0.5946E+00  0.5962E+00  0.2913E+01  0.2913E+01
      4.119  0.5472E+00  0.5472E+00  0.2948E+01  0.2947E+01
      4.182  0.5608E+00  0.5602E+00  0.2983E+01  0.2982E+01
      4.244  0.6075E+00  0.6060E+00  0.3021E+01  0.3020E+01
      4.307  0.7438E+00  0.7412E+00  0.3068E+01  0.3067E+01
      4.370  0.9205E+00  0.9186E+00  0.3125E+01  0.3124E+01
      4.432  0.9669E+00  0.9680E+00  0.3186E+01  0.3185E+01
      4.495  0.8494E+00  0.8517E+00  0.3239E+01  0.3238E+01
      4.558  0.7758E+00  0.7757E+00  0.3288E+01  0.3287E+01
      4.620  0.9013E+00  0.8988E+00  0.3344E+01  0.3343E+01
      4.683  0.1056E+01  0.1055E+01  0.3411E+01  0.3410E+01
      4.746  0.1048E+01  0.1049E+01  0.3476E+01  0.3475E+01
      4.808  0.9255E+00  0.9278E+00  0.3534E+01  0.3534E+01
      4.871  0.8552E+00  0.8558E+00  0.3588E+01  0.3587E+01
      4.934  0.8811E+00  0.8812E+00  0.3643E+01  0.3642E+01
      4.996  0.9432E+00  0.9427E+00  0.3702E+01  0.3702E+01
      5.059  0.1034E+01  0.1033E+01  0.3767E+01  0.3766E+01
      5.122  0.1081E+01  0.1081E+01  0.3835E+01  0.3834E+01
      5.184  0.1103E+01  0.1104E+01  0.3904E+01  0.3903E+01
      5.247  0.1108E+01  0.1109E+01  0.3974E+01  0.3973E+01
      5.310  0.1166E+01  0.1167E+01  0.4047E+01  0.4046E+01
      5.372  0.1296E+01  0.1296E+01  0.4128E+01  0.4127E+01
      5.435  0.1370E+01  0.1371E+01  0.4214E+01  0.4213E+01
      5.498  0.1150E+01  0.1153E+01  0.4286E+01  0.4286E+01
      5.560  0.8534E+00  0.8559E+00  0.4339E+01  0.4339E+01
      5.623  0.8483E+00  0.8489E+00  0.4393E+01  0.4392E+01
      5.686  0.1174E+01  0.1173E+01  0.4466E+01  0.4466E+01
      5.748  0.1637E+01  0.1635E+01  0.4569E+01  0.4568E+01
      5.811  0.1953E+01  0.1951E+01  0.4691E+01  0.4691E+01
      5.874  0.1916E+01  0.1918E+01  0.4811E+01  0.4811E+01
      5.936  0.1507E+01  0.1510E+01  0.4906E+01  0.4906E+01
      5.999  0.1105E+01  0.1108E+01  0.4975E+01  0.4975E+01
      6.062  0.9616E+00  0.9631E+00  0.5036E+01  0.5036E+01
      6.124  0.8797E+00  0.8799E+00  0.5091E+01  0.5091E+01
      6.187  0.8135E+00  0.8144E+00  0.5142E+01  0.5142E+01
      6.250  0.8888E+00  0.8904E+00  0.5198E+01  0.5198E+01
      6.312  0.9827E+00  0.9832E+00  0.5259E+01  0.5259E+01
      6.375  0.9030E+00  0.9025E+00  0.5316E+01  0.5316E+01
      6.438  0.7872E+00  0.7871E+00  0.5365E+01  0.5365E+01
      6.500  0.7200E+00  0.7205E+00  0.5410E+01  0.5411E+01
      6.563  0.6787E+00  0.6794E+00  0.5453E+01  0.5453E+01
      6.626  0.6596E+00  0.6604E+00  0.5494E+01  0.5495E+01
      6.688  0.6872E+00  0.6885E+00  0.5537E+01  0.5538E+01
      6.751  0.7264E+00  0.7273E+00  0.5583E+01  0.5583E+01
      6.814  0.7419E+00  0.7425E+00  0.5629E+01  0.5630E+01
      6.876  0.7389E+00  0.7385E+00  0.5676E+01  0.5676E+01
      6.939  0.7391E+00  0.7394E+00  0.5722E+01  0.5723E+01
      7.002  0.7656E+00  0.7666E+00  0.5770E+01  0.5771E+01
      7.064  0.6816E+00  0.6808E+00  0.5813E+01  0.5813E+01
      7.127  0.5405E+00  0.5396E+00  0.5847E+01  0.5847E+01
      7.190  0.5325E+00  0.5328E+00  0.5880E+01  0.5881E+01
      7.252  0.6608E+00  0.6630E+00  0.5922E+01  0.5922E+01
      7.315  0.8027E+00  0.8046E+00  0.5972E+01  0.5973E+01
      7.378  0.8342E+00  0.8326E+00  0.6024E+01  0.6025E+01
      7.440  0.6843E+00  0.6807E+00  0.6067E+01  0.6068E+01
      7.503  0.4370E+00  0.4348E+00  0.6095E+01  0.6095E+01
      7.566  0.3237E+00  0.3249E+00  0.6115E+01  0.6115E+01
      7.628  0.4371E+00  0.4406E+00  0.6142E+01  0.6143E+01
      7.691  0.6177E+00  0.6195E+00  0.6181E+01  0.6182E+01
      7.754  0.6978E+00  0.6980E+00  0.6225E+01  0.6226E+01
      7.816  0.7156E+00  0.7160E+00  0.6270E+01  0.6270E+01
      7.879  0.7567E+00  0.7588E+00  0.6317E+01  0.6318E+01
      7.942  0.8865E+00  0.8910E+00  0.6373E+01  0.6374E+01
      8.004  0.1091E+01  0.1095E+01  0.6441E+01  0.6442E+01
      8.067  0.1215E+01  0.1216E+01  0.6517E+01  0.6519E+01
      8.130  0.1188E+01  0.1188E+01  0.6592E+01  0.6593E+01
      8.192  0.1143E+01  0.1144E+01  0.6663E+01  0.6665E+01
      8.255  0.1247E+01  0.1250E+01  0.6742E+01  0.6743E+01
      8.318  0.1435E+01  0.1438E+01  0.6831E+01  0.6833E+01
      8.380  0.1461E+01  0.1459E+01  0.6923E+01  0.6925E+01
      8.443  0.1349E+01  0.1347E+01  0.7008E+01  0.7009E+01
      8.506  0.1274E+01  0.1272E+01  0.7088E+01  0.7089E+01
      8.568  0.1234E+01  0.1232E+01  0.7165E+01  0.7166E+01
      8.631  0.1236E+01  0.1236E+01  0.7242E+01  0.7244E+01
      8.694  0.1298E+01  0.1301E+01  0.7324E+01  0.7325E+01
      8.756  0.1463E+01  0.1468E+01  0.7416E+01  0.7418E+01
      8.819  0.1757E+01  0.1765E+01  0.7526E+01  0.7528E+01
      8.882  0.2033E+01  0.2041E+01  0.7653E+01  0.7656E+01
      8.944  0.2147E+01  0.2155E+01  0.7788E+01  0.7791E+01
      9.007  0.2274E+01  0.2287E+01  0.7930E+01  0.7935E+01
      9.070  0.2594E+01  0.2612E+01  0.8093E+01  0.8098E+01
      9.132  0.2917E+01  0.2930E+01  0.8276E+01  0.8282E+01
      9.195  0.2927E+01  0.2925E+01  0.8459E+01  0.8465E+01
      9.258  0.2671E+01  0.2659E+01  0.8627E+01  0.8632E+01
      9.320  0.2294E+01  0.2278E+01  0.8771E+01  0.8775E+01
      9.383  0.1777E+01  0.1757E+01  0.8882E+01  0.8885E+01
      9.446  0.1269E+01  0.1252E+01  0.8962E+01  0.8964E+01
      9.508  0.9435E+00  0.9316E+00  0.9021E+01  0.9022E+01
      9.571  0.7814E+00  0.7747E+00  0.9070E+01  0.9071E+01
      9.634  0.7346E+00  0.7334E+00  0.9116E+01  0.9117E+01
      9.696  0.7723E+00  0.7722E+00  0.9165E+01  0.9165E+01
      9.759  0.8380E+00  0.8379E+00  0.9217E+01  0.9218E+01
      9.822  0.9828E+00  0.9839E+00  0.9279E+01  0.9280E+01
      9.884  0.1136E+01  0.1137E+01  0.9350E+01  0.9351E+01
      9.947  0.1118E+01  0.1118E+01  0.9420E+01  0.9421E+01
     10.009  0.1036E+01  0.1036E+01  0.9485E+01  0.9486E+01
     10.072  0.1000E+01  0.9994E+00  0.9548E+01  0.9549E+01
     10.135  0.9824E+00  0.9816E+00  0.9609E+01  0.9610E+01
     10.197  0.9465E+00  0.9466E+00  0.9669E+01  0.9670E+01
     10.260  0.1042E+01  0.1046E+01  0.9734E+01  0.9735E+01
     10.323  0.1241E+01  0.1244E+01  0.9812E+01  0.9813E+01
     10.385  0.1214E+01  0.1213E+01  0.9888E+01  0.9889E+01
     10.448  0.1019E+01  0.1018E+01  0.9952E+01  0.9953E+01
     10.511  0.9156E+00  0.9152E+00  0.1001E+02  0.1001E+02
     10.573  0.9122E+00  0.9126E+00  0.1007E+02  0.1007E+02
     10.636  0.9997E+00  0.1004E+01  0.1013E+02  0.1013E+02
     10.699  0.1102E+01  0.1107E+01  0.1020E+02  0.1020E+02
     10.761  0.1146E+01  0.1153E+01  0.1027E+02  0.1027E+02
     10.824  0.1213E+01  0.1224E+01  0.1035E+02  0.1035E+02
     10.887  0.1411E+01  0.1419E+01  0.1043E+02  0.1044E+02
     10.949  0.1555E+01  0.1550E+01  0.1053E+02  0.1054E+02
     11.012  0.1461E+01  0.1446E+01  0.1062E+02  0.1063E+02
     11.075  0.1242E+01  0.1234E+01  0.1070E+02  0.1070E+02
     11.137  0.1223E+01  0.1236E+01  0.1078E+02  0.1078E+02
     11.200  0.1513E+01  0.1531E+01  0.1087E+02  0.1088E+02
     11.263  0.1739E+01  0.1747E+01  0.1098E+02  0.1099E+02
     11.325  0.1642E+01  0.1649E+01  0.1109E+02  0.1109E+02
     11.388  0.1481E+01  0.1493E+01  0.1118E+02  0.1118E+02
     11.451  0.1412E+01  0.1422E+01  0.1127E+02  0.1127E+02
     11.513  0.1343E+01  0.1359E+01  0.1135E+02  0.1136E+02
     11.576  0.1210E+01  0.1239E+01  0.1143E+02  0.1144E+02
     11.639  0.1134E+01  0.1162E+01  0.1150E+02  0.1151E+02
     11.701  0.1095E+01  0.1125E+01  0.1157E+02  0.1158E+02
     11.764  0.9594E+00  0.9707E+00  0.1163E+02  0.1164E+02
     11.827  0.7314E+00  0.6993E+00  0.1167E+02  0.1168E+02
     11.889  0.5633E+00  0.4987E+00  0.1171E+02  0.1171E+02
     11.952  0.4309E+00  0.3748E+00  0.1174E+02  0.1174E+02
     12.015  0.3423E+00  0.3135E+00  0.1176E+02  0.1176E+02
     12.077  0.3526E+00  0.3353E+00  0.1178E+02  0.1178E+02
     12.140  0.4227E+00  0.4134E+00  0.1181E+02  0.1181E+02
     12.203  0.4509E+00  0.4577E+00  0.1183E+02  0.1183E+02
     12.265  0.4305E+00  0.4436E+00  0.1186E+02  0.1186E+02
     12.328  0.3859E+00  0.4078E+00  0.1188E+02  0.1189E+02
     12.391  0.3169E+00  0.3498E+00  0.1190E+02  0.1191E+02
     12.453  0.2588E+00  0.2703E+00  0.1192E+02  0.1193E+02
     12.516  0.2216E+00  0.2233E+00  0.1193E+02  0.1194E+02
     12.579  0.2069E+00  0.2241E+00  0.1195E+02  0.1195E+02
     12.641  0.2058E+00  0.2375E+00  0.1196E+02  0.1197E+02
     12.704  0.1990E+00  0.2108E+00  0.1197E+02  0.1198E+02
     12.767  0.1539E+00  0.1278E+00  0.1198E+02  0.1199E+02
     12.829  0.9050E-01  0.5935E-01  0.1199E+02  0.1199E+02
     12.892  0.4629E-01  0.3310E-01  0.1199E+02  0.1200E+02
     12.955  0.2193E-01  0.2369E-01  0.1199E+02  0.1200E+02
     13.017  0.8426E-02  0.1489E-01  0.1199E+02  0.1200E+02
     13.080  0.2546E-02  0.6591E-02  0.1199E+02  0.1200E+02
     13.143  0.6984E-03  0.2246E-02  0.1199E+02  0.1200E+02
     13.205  0.2027E-03  0.7510E-03  0.1199E+02  0.1200E+02
     13.268  0.2076E-03  0.4489E-03  0.1199E+02  0.1200E+02
     13.331  0.5606E-03  0.8599E-03  0.1199E+02  0.1200E+02
     13.393  0.1852E-02  0.2242E-02  0.1199E+02  0.1200E+02
     13.456  0.5380E-02  0.4114E-02  0.1199E+02  0.1200E+02
     13.519  0.1119E-01  0.3952E-02  0.1199E+02  0.1200E+02
     13.581  0.1278E-01  0.2024E-02  0.1200E+02  0.1200E+02
     13.644  0.7619E-02  0.7161E-03  0.1200E+02  0.1200E+02
     13.707  0.3198E-02  0.2186E-03  0.1200E+02  0.1200E+02
     13.769  0.2069E-02  0.6368E-04  0.1200E+02  0.1200E+02
     13.832  0.3978E-02  0.1829E-04  0.1200E+02  0.1200E+02
     13.895  0.9610E-02  0.0000E+00  0.1200E+02  0.1200E+02
     13.957  0.1569E-01  0.0000E+00  0.1200E+02  0.1200E+02
     14.020  0.1424E-01  0.0000E+00  0.1200E+02  0.1200E+02
     14.083  0.8117E-02  0.0000E+00  0.1200E+02  0.1200E+02
     14.145  0.3459E-02  0.0000E+00  0.1200E+02  0.1200E+02
     14.208  0.1185E-02  0.0000E+00  0.1200E+02  0.1200E+02
     14.271  0.3602E-03  0.0000E+00  0.1200E+02  0.1200E+02
     14.333  0.8188E-04  0.0000E+00  0.1200E+02  0.1200E+02
     14.396  0.1548E-04  0.0000E+00  0.1200E+02  0.1200E+02
     14.459  0.0000E+00  0.0000E+00  0.1200E+02  0.1200E+02
     14.521  0.0000E+00  0.0000E+00  0.1200E+02  0.1200E+02
     14.584  0.0000E+00  0.0000E+00  0.1200E+02  0.1200E+02
     14.647  0.0000E+00  0.0000E+00  0.1200E+02  0.1200E+02
     14.709  0.0000E+00  0.0000E+00  0.1200E+02  0.1200E+02
     14.772  0.0000E+00  0.0000E+00  0.1200E+02  0.1200E+02
     14.835  0.0000E+00  0.0000E+00  0.1200E+02  0.1200E+02
     14.897  0.0000E+00  0.0000E+00  0.1200E+02  0.1200E+02
     14.89735524     -3.90210086  301      8.05224263      1.00000000
     -3.902  0.0000E+00  0.0000E+00  0.0000E+00  0.0000E+00  0.0000E+00  0.0000E+00  0.0000E+00  0.0000E+00  0.0000E+00  0.0000E+00  0.0000E+00  0.0000E+00  0.0000E+00  0.0000E+00  0.0000E+00  0.0000E+00  0.0000E+00  0.0000E+00
     -3.839  0.0000E+00  0.0000E+00  0.0000E+00  0.0000E+00  0.0000E+00  0.0000E+00  0.0000E+00  0.0000E+00  0.0000E+00  0.0000E+00  0.0000E+00  0.0000E+00  0.0000E+00  0.0000E+00  0.0000E+00  0.0000E+00  0.0000E+00  0.0000E+00
     -3.777  0.0000E+00  0.0000E+00  0.0000E+00  0.0000E+00  0.0000E+00  0.0000E+00  0.0000E+00  0.0000E+00  0.0000E+00  0.0000E+00  0.0000E+00  0.0000E+00  0.0000E+00  0.0000E+00  0.0000E+00  0.0000E+00  0.0000E+00  0.0000E+00
     -3.714  0.0000E+00  0.0000E+00  0.0000E+00  0.0000E+00  0.0000E+00  0.0000E+00  0.0000E+00  0.0000E+00  0.0000E+00  0.0000E+00  0.0000E+00  0.0000E+00  0.0000E+00  0.0000E+00  0.0000E+00  0.0000E+00  0.0000E+00  0.0000E+00
     -3.651  0.0000E+00  0.0000E+00  0.0000E+00  0.0000E+00  0.0000E+00  0.0000E+00  0.0000E+00  0.0000E+00  0.0000E+00  0.0000E+00  0.0000E+00  0.0000E+00  0.0000E+00  0.0000E+00  0.0000E+00  0.0000E+00  0.0000E+00  0.0000E+00
     -3.589  0.0000E+00  0.0000E+00  0.0000E+00  0.0000E+00  0.0000E+00  0.0000E+00  0.0000E+00  0.0000E+00  0.0000E+00  0.0000E+00  0.0000E+00  0.0000E+00  0.0000E+00  0.0000E+00  0.0000E+00  0.0000E+00  0.0000E+00  0.0000E+00
     -3.526  0.0000E+00  0.0000E+00  0.0000E+00  0.0000E+00  0.0000E+00  0.0000E+00  0.0000E+00  0.0000E+00  0.0000E+00  0.0000E+00  0.0000E+00  0.0000E+00  0.0000E+00  0.0000E+00  0.0000E+00  0.0000E+00  0.0000E+00  0.0000E+00
     -3.463  0.2400E-06  0.2334E-06  0.1310E-21  0.6304E-21  0.1310E-21  0.6304E-21  0.5830E-21  0.5151E-22  0.1296E-21  0.4842E-21  0.1388E-21  0.7865E-21  0.2151E-15  0.2166E-15  0.1296E-21  0.4842E-21  0.2765E-15  0.2788E-15
     -3.401  0.2126E-05  0.2067E-05  0.4623E-08  0.4496E-08  0.4623E-08  0.4496E-08  0.4621E-08  0.4494E-08  0.3141E-19  0.1082E-18  0.3409E-18  0.1405E-18  0.1883E-10  0.1830E-10  0.3141E-19  0.1082E-18  0.2411E-10  0.2342E-10
     -3.338  0.9152E-05  0.8900E-05  0.3136E-07  0.3050E-07  0.3136E-07  0.3050E-07  0.3135E-07  0.3049E-07  0.1926E-09  0.1873E-09  0.1926E-09  0.1874E-09  0.9889E-10  0.9612E-10  0.1926E-09  0.1873E-09  0.1004E-09  0.9755E-10
     -3.275  0.3100E-04  0.3014E-04  0.1111E-06  0.1081E-06  0.1111E-06  0.1081E-06  0.1111E-06  0.1080E-06  0.8977E-09  0.8731E-09  0.8977E-09  0.8732E-09  0.2939E-09  0.2856E-09  0.8977E-09  0.8731E-09  0.3107E-09  0.3019E-09
     -3.213  0.1089E-03  0.1060E-03  0.4250E-06  0.4134E-06  0.4250E-06  0.4134E-06  0.4248E-06  0.4132E-06  0.3294E-08  0.3205E-08  0.3296E-08  0.3206E-08  0.1785E-08  0.1735E-08  0.3294E-08  0.3205E-08  0.2012E-08  0.1956E-08
     -3.150  0.3640E-03  0.3545E-03  0.1451E-05  0.1412E-05  0.1451E-05  0.1412E-05  0.1451E-05  0.1412E-05  0.1229E-07  0.1196E-07  0.1229E-07  0.1196E-07  0.5678E-08  0.5521E-08  0.1229E-07  0.1196E-07  0.6368E-08  0.6192E-08
     -3.087  0.1120E-02  0.1094E-02  0.4764E-05  0.4642E-05  0.4764E-05  0.4642E-05  0.4762E-05  0.4640E-05  0.4071E-07  0.3963E-07  0.4072E-07  0.3964E-07  0.1863E-07  0.1814E-07  0.4071E-07  0.3963E-07  0.2080E-07  0.2025E-07
     -3.025  0.2887E-02  0.2834E-02  0.1423E-04  0.1391E-04  0.1423E-04  0.1391E-04  0.1422E-04  0.1391E-04  0.1341E-06  0.1307E-06  0.1341E-06  0.1308E-06  0.5693E-07  0.5559E-07  0.1341E-06  0.1307E-06  0.6313E-07  0.6165E-07
     -2.962  0.5656E-02  0.5591E-02  0.3462E-04  0.3403E-04  0.3462E-04  0.3403E-04  0.3460E-04  0.3402E-04  0.3864E-06  0.3784E-06  0.3865E-06  0.3784E-06  0.1502E-06  0.1472E-06  0.3864E-06  0.3784E-06  0.1673E-06  0.1638E-06
     -2.899  0.8211E-02  0.8166E-02  0.6603E-04  0.6522E-04  0.6603E-04  0.6522E-04  0.6600E-04  0.6519E-04  0.8864E-06  0.8723E-06  0.8866E-06  0.8725E-06  0.3619E-06  0.3548E-06  0.8864E-06  0.8723E-06  0.4175E-06  0.4089E-06
     -2.837  0.9992E-02  0.9950E-02  0.1109E-03  0.1096E-03  0.1109E-03  0.1096E-03  0.1108E-03  0.1095E-03  0.1757E-05  0.1731E-05  0.1757E-05  0.1732E-05  0.8485E-06  0.8329E-06  0.1757E-05  0.1731E-05  0.1012E-05  0.9928E-06
     -2.774  0.1259E-01  0.1252E-01  0.1832E-03  0.1813E-03  0.1832E-03  0.1813E-03  0.1831E-03  0.1812E-03  0.3483E-05  0.3433E-05  0.3485E-05  0.3435E-05  0.1672E-05  0.1652E-05  0.3483E-05  0.3433E-05  0.2001E-05  0.1977E-05
     -2.711  0.1517E-01  0.1514E-01  0.2597E-03  0.2584E-03  0.2597E-03  0.2584E-03  0.2596E-03  0.2584E-03  0.6112E-05  0.6056E-05  0.6113E-05  0.6057E-05  0.2382E-05  0.2370E-05  0.6112E-05  0.6056E-05  0.2824E-05  0.2811E-05
     -2.649  0.1459E-01  0.1463E-01  0.2908E-03  0.2904E-03  0.2908E-03  0.2904E-03  0.2908E-03  0.2904E-03  0.8546E-05  0.8495E-05  0.8548E-05  0.8497E-05  0.2808E-05  0.2793E-05  0.8546E-05  0.8495E-05  0.3230E-05  0.3217E-05
     -2.586  0.1389E-01  0.1386E-01  0.3442E-03  0.3419E-03  0.3442E-03  0.3419E-03  0.3439E-03  0.3416E-03  0.1217E-04  0.1206E-04  0.1217E-04  0.1206E-04  0.4191E-05  0.4136E-05  0.1217E-04  0.1206E-04  0.4684E-05  0.4624E-05
     -2.523  0.1686E-01  0.1677E-01  0.4967E-03  0.4927E-03  0.4967E-03  0.4927E-03  0.4961E-03  0.4922E-03  0.1845E-04  0.1832E-04  0.1846E-04  0.1833E-04  0.7647E-05  0.7548E-05  0.1845E-04  0.1832E-04  0.8797E-05  0.8675E-05
     -2.461  0.1973E-01  0.1970E-01  0.6460E-03  0.6435E-03  0.6460E-03  0.6435E-03  0.6455E-03  0.6431E-03  0.2378E-04  0.2370E-04  0.2379E-04  0.2370E-04  0.1190E-04  0.1182E-04  0.2378E-04  0.2370E-04  0.1422E-04  0.1412E-04
     -2.398  0.1958E-01  0.1961E-01  0.7081E-03  0.7073E-03  0.7081E-03  0.7073E-03  0.7080E-03  0.7073E-03  0.2928E-04  0.2913E-04  0.2929E-04  0.2914E-04  0.1384E-04  0.1383E-04  0.2928E-04  0.2913E-04  0.1675E-04  0.1674E-04
     -2.335  0.1858E-01  0.1858E-01  0.7539E-03  0.7519E-03  0.7539E-03  0.7519E-03  0.7539E-03  0.7519E-03  0.4036E-04  0.4006E-04  0.4038E-04  0.4008E-04  0.1372E-04  0.1371E-04  0.4036E-04  0.4006E-04  0.1610E-04  0.1610E-04
     -2.273  0.1982E-01  0.1978E-01  0.8984E-03  0.8944E-03  0.8984E-03  0.8944E-03  0.8981E-03  0.8941E-03  0.5802E-04  0.5767E-04  0.5805E-04  0.5770E-04  0.1567E-04  0.1560E-04  0.5802E-04  0.5767E-04  0.1757E-04  0.1750E-04
     -2.210  0.2045E-01  0.2048E-01  0.1003E-02  0.1003E-02  0.1003E-02  0.1003E-02  0.1003E-02  0.1002E-02  0.6880E-04  0.6883E-04  0.6879E-04  0.6882E-04  0.1866E-04  0.1860E-04  0.6880E-04  0.6883E-04  0.2103E-04  0.2095E-04
     -2.147  0.1791E-01  0.1796E-01  0.9765E-03  0.9757E-03  0.9765E-03  0.9757E-03  0.9754E-03  0.9746E-03  0.6516E-04  0.6525E-04  0.6515E-04  0.6523E-04  0.2277E-04  0.2262E-04  0.6516E-04  0.6525E-04  0.2690E-04  0.2669E-04
     -2.085  0.1918E-01  0.1909E-01  0.1195E-02  0.1186E-02  0.1195E-02  0.1186E-02  0.1193E-02  0.1184E-02  0.7866E-04  0.7807E-04  0.7873E-04  0.7813E-04  0.3439E-04  0.3407E-04  0.7866E-04  0.7807E-04  0.4173E-04  0.4134E-04
     -2.022  0.2372E-01  0.2364E-01  0.1591E-02  0.1584E-02  0.1591E-02  0.1584E-02  0.1590E-02  0.1583E-02  0.1131E-03  0.1125E-03  0.1132E-03  0.1126E-03  0.4791E-04  0.4772E-04  0.1131E-03  0.1125E-03  0.5740E-04  0.5721E-04
     -1.959  0.2471E-01  0.2473E-01  0.1754E-02  0.1752E-02  0.1754E-02  0.1752E-02  0.1754E-02  0.1752E-02  0.1418E-03  0.1414E-03  0.1419E-03  0.1415E-03  0.5213E-04  0.5215E-04  0.1418E-03  0.1414E-03  0.6054E-04  0.6060E-04
     -1.897  0.2375E-01  0.2376E-01  0.1808E-02  0.1806E-02  0.1808E-02  0.1806E-02  0.1808E-02  0.1806E-02  0.1658E-03  0.1654E-03  0.1659E-03  0.1654E-03  0.5292E-04  0.5291E-04  0.1658E-03  0.1654E-03  0.6045E-04  0.6044E-04
     -1.834  0.2314E-01  0.2319E-01  0.1884E-02  0.1885E-02  0.1884E-02  0.1885E-02  0.1884E-02  0.1885E-02  0.1919E-03  0.1917E-03  0.1919E-03  0.1916E-03  0.5342E-04  0.5355E-04  0.1919E-03  0.1917E-03  0.6155E-04  0.6169E-04
     -1.771  0.2033E-01  0.2042E-01  0.1749E-02  0.1754E-02  0.1749E-02  0.1754E-02  0.1750E-02  0.1755E-02  0.2010E-03  0.2013E-03  0.2010E-03  0.2012E-03  0.4532E-04  0.4557E-04  0.2010E-03  0.2013E-03  0.5242E-04  0.5270E-04
     -1.709  0.1716E-01  0.1718E-01  0.1628E-02  0.1625E-02  0.1628E-02  0.1625E-02  0.1626E-02  0.1623E-02  0.2024E-03  0.2022E-03  0.2026E-03  0.2023E-03  0.4336E-04  0.4317E-04  0.2024E-03  0.2022E-03  0.5032E-04  0.5010E-04
     -1.646  0.1927E-01  0.1916E-01  0.2075E-02  0.2059E-02  0.2075E-02  0.2059E-02  0.2069E-02  0.2052E-02  0.2528E-03  0.2513E-03  0.2532E-03  0.2517E-03  0.6706E-04  0.6632E-04  0.2528E-03  0.2513E-03  0.7798E-04  0.7712E-04
     -1.584  0.2464E-01  0.2454E-01  0.2884E-02  0.2868E-02  0.2884E-02  0.2868E-02  0.2878E-02  0.2861E-02  0.3368E-03  0.3354E-03  0.3371E-03  0.3357E-03  0.1057E-03  0.1050E-03  0.3368E-03  0.3354E-03  0.1231E-03  0.1223E-03
     -1.521  0.2629E-01  0.2632E-01  0.3262E-02  0.3261E-02  0.3262E-02  0.3261E-02  0.3261E-02  0.3260E-02  0.3815E-03  0.3815E-03  0.3813E-03  0.3813E-03  0.1239E-03  0.1240E-03  0.3815E-03  0.3815E-03  0.1460E-03  0.1461E-03
     -1.458  0.2379E-01  0.2383E-01  0.3151E-02  0.3150E-02  0.3151E-02  0.3150E-02  0.3151E-02  0.3150E-02  0.4021E-03  0.4014E-03  0.4022E-03  0.4014E-03  0.1161E-03  0.1164E-03  0.4021E-03  0.4014E-03  0.1385E-03  0.1388E-03
     -1.396  0.2378E-01  0.2377E-01  0.3368E-02  0.3361E-02  0.3368E-02  0.3361E-02  0.3366E-02  0.3358E-02  0.4814E-03  0.4801E-03  0.4817E-03  0.4804E-03  0.1190E-03  0.1189E-03  0.4814E-03  0.4801E-03  0.1419E-03  0.1418E-03
     -1.333  0.2209E-01  0.2218E-01  0.3304E-02  0.3314E-02  0.3304E-02  0.3314E-02  0.3306E-02  0.3316E-02  0.4980E-03  0.4994E-03  0.4980E-03  0.4994E-03  0.1179E-03  0.1183E-03  0.4980E-03  0.4994E-03  0.1396E-03  0.1402E-03
     -1.270  0.1740E-01  0.1747E-01  0.2801E-02  0.2805E-02  0.2801E-02  0.2805E-02  0.2802E-02  0.2807E-02  0.4721E-03  0.4717E-03  0.4725E-03  0.4721E-03  0.9847E-04  0.9888E-04  0.4721E-03  0.4717E-03  0.1129E-03  0.1135E-03
     -1.208  0.1782E-01  0.1774E-01  0.3189E-02  0.3167E-02  0.3189E-02  0.3167E-02  0.3181E-02  0.3159E-02  0.6165E-03  0.6120E-03  0.6177E-03  0.6131E-03  0.1025E-03  0.1022E-03  0.6165E-03  0.6120E-03  0.1128E-03  0.1124E-03
     -1.145  0.2191E-01  0.2183E-01  0.4414E-02  0.4384E-02  0.4414E-02  0.4384E-02  0.4397E-02  0.4367E-02  0.8565E-03  0.8527E-03  0.8573E-03  0.8536E-03  0.1313E-03  0.1307E-03  0.8565E-03  0.8527E-03  0.1450E-03  0.1443E-03
     -1.082  0.2314E-01  0.2316E-01  0.5428E-02  0.5412E-02  0.5428E-02  0.5412E-02  0.5412E-02  0.5396E-02  0.9702E-03  0.9707E-03  0.9702E-03  0.9707E-03  0.1525E-03  0.1524E-03  0.9702E-03  0.9707E-03  0.1722E-03  0.1720E-03
     -1.020  0.2012E-01  0.2021E-01  0.5596E-02  0.5599E-02  0.5596E-02  0.5599E-02  0.5591E-02  0.5594E-02  0.9317E-03  0.9338E-03  0.9314E-03  0.9335E-03  0.1475E-03  0.1480E-03  0.9317E-03  0.9338E-03  0.1697E-03  0.1702E-03
     -0.957  0.1666E-01  0.1671E-01  0.5376E-02  0.5375E-02  0.5376E-02  0.5375E-02  0.5373E-02  0.5373E-02  0.9277E-03  0.9272E-03  0.9284E-03  0.9278E-03  0.1326E-03  0.1329E-03  0.9277E-03  0.9272E-03  0.1549E-03  0.1553E-03
     -0.894  0.1492E-01  0.1495E-01  0.5504E-02  0.5499E-02  0.5504E-02  0.5499E-02  0.5499E-02  0.5494E-02  0.1030E-02  0.1028E-02  0.1031E-02  0.1030E-02  0.1299E-03  0.1301E-03  0.1030E-02  0.1028E-02  0.1524E-03  0.1526E-03
     -0.832  0.1402E-01  0.1402E-01  0.5491E-02  0.5492E-02  0.5491E-02  0.5492E-02  0.5499E-02  0.5499E-02  0.1185E-02  0.1181E-02  0.1187E-02  0.1183E-02  0.1267E-03  0.1269E-03  0.1185E-02  0.1181E-02  0.1442E-03  0.1446E-03
     -0.769  0.1561E-01  0.1555E-01  0.5633E-02  0.5620E-02  0.5633E-02  0.5620E-02  0.5637E-02  0.5624E-02  0.1551E-02  0.1542E-02  0.1554E-02  0.1545E-02  0.1288E-03  0.1287E-03  0.1551E-02  0.1542E-02  0.1378E-03  0.1379E-03