   4   4   1   0
  0.1391669E+02  0.3817663E-09  0.3818556E-09  0.3818556E-09  0.5000000E-15
  1.000000000000000E-004
  CAR 
 unknown system                          
     15.88627224     -3.69566029  301      8.67491573      1.00000000
     -3.696  0.0000E+00  0.0000E+00  0.0000E+00  0.0000E+00
     -3.630  0.0000E+00  0.0000E+00  0.0000E+00  0.0000E+00
     -3.565  0.0000E+00  0.0000E+00  0.0000E+00  0.0000E+00
     -3.500  0.0000E+00  0.0000E+00  0.0000E+00  0.0000E+00
     -3.435  0.0000E+00  0.0000E+00  0.0000E+00  0.0000E+00
     -3.369  0.0000E+00  0.0000E+00  0.0000E+00  0.0000E+00
     -3.304  0.0000E+00  0.0000E+00  0.0000E+00  0.0000E+00
     -3.239  0.1205E-05  0.1167E-05  0.7863E-07  0.7616E-07
     -3.173  0.1098E-04  0.1064E-04  0.7955E-06  0.7706E-06
     -3.108  0.4940E-04  0.4785E-04  0.4020E-05  0.3894E-05
     -3.043  0.1770E-03  0.1715E-03  0.1557E-04  0.1509E-04
     -2.978  0.6433E-03  0.6234E-03  0.5757E-04  0.5578E-04
     -2.912  0.2312E-02  0.2243E-02  0.2085E-03  0.2022E-03
     -2.847  0.7531E-02  0.7330E-02  0.7000E-03  0.6806E-03
     -2.782  0.2028E-01  0.1986E-01  0.2024E-02  0.1977E-02
     -2.717  0.4106E-01  0.4051E-01  0.4704E-02  0.4621E-02
     -2.651  0.6042E-01  0.6004E-01  0.8648E-02  0.8541E-02
     -2.586  0.7371E-01  0.7336E-01  0.1346E-01  0.1333E-01
     -2.521  0.9476E-01  0.9411E-01  0.1964E-01  0.1947E-01
     -2.455  0.1174E+00  0.1171E+00  0.2731E-01  0.2712E-01
     -2.390  0.1133E+00  0.1137E+00  0.3471E-01  0.3454E-01
     -2.325  0.1076E+00  0.1073E+00  0.4173E-01  0.4155E-01
     -2.260  0.1351E+00  0.1343E+00  0.5056E-01  0.5032E-01
     -2.194  0.1630E+00  0.1627E+00  0.6120E-01  0.6094E-01
     -2.129  0.1640E+00  0.1642E+00  0.7191E-01  0.7166E-01
     -2.064  0.1567E+00  0.1566E+00  0.8214E-01  0.8189E-01
     -1.999  0.1713E+00  0.1707E+00  0.9333E-01  0.9304E-01
     -1.933  0.1824E+00  0.1826E+00  0.1052E+00  0.1050E+00
     -1.868  0.1597E+00  0.1602E+00  0.1157E+00  0.1154E+00
     -1.803  0.1742E+00  0.1731E+00  0.1270E+00  0.1267E+00
     -1.737  0.2256E+00  0.2246E+00  0.1418E+00  0.1414E+00
     -1.672  0.2404E+00  0.2405E+00  0.1575E+00  0.1571E+00
     -1.607  0.2343E+00  0.2344E+00  0.1728E+00  0.1724E+00
     -1.542  0.2353E+00  0.2355E+00  0.1882E+00  0.1878E+00
     -1.476  0.2112E+00  0.2122E+00  0.2019E+00  0.2016E+00
     -1.411  0.1790E+00  0.1792E+00  0.2136E+00  0.2133E+00
     -1.346  0.2091E+00  0.2076E+00  0.2273E+00  0.2269E+00
     -1.281  0.2834E+00  0.2818E+00  0.2458E+00  0.2453E+00
     -1.215  0.3154E+00  0.3156E+00  0.2664E+00  0.2659E+00
     -1.150  0.2906E+00  0.2910E+00  0.2854E+00  0.2849E+00
     -1.085  0.3012E+00  0.3006E+00  0.3050E+00  0.3046E+00
     -1.019  0.2922E+00  0.2934E+00  0.3241E+00  0.3237E+00
     -0.954  0.2339E+00  0.2348E+00  0.3394E+00  0.3390E+00
     -0.889  0.2509E+00  0.2493E+00  0.3558E+00  0.3553E+00
     -0.824  0.3354E+00  0.3334E+00  0.3777E+00  0.3771E+00
     -0.758  0.3917E+00  0.3912E+00  0.4032E+00  0.4026E+00
     -0.693  0.3811E+00  0.3820E+00  0.4281E+00  0.4276E+00
     -0.628  0.3495E+00  0.3499E+00  0.4510E+00  0.4505E+00
     -0.563  0.3476E+00  0.3476E+00  0.4737E+00  0.4731E+00
     -0.497  0.3467E+00  0.3467E+00  0.4963E+00  0.4958E+00
     -0.432  0.3700E+00  0.3689E+00  0.5205E+00  0.5199E+00
     -0.367  0.4158E+00  0.4151E+00  0.5476E+00  0.5470E+00
     -0.301  0.4166E+00  0.4172E+00  0.5749E+00  0.5743E+00
     -0.236  0.3688E+00  0.3704E+00  0.5989E+00  0.5984E+00
     -0.171  0.2896E+00  0.2913E+00  0.6179E+00  0.6175E+00
     -0.106  0.2510E+00  0.2511E+00  0.6343E+00  0.6339E+00
     -0.040  0.2781E+00  0.2767E+00  0.6524E+00  0.6520E+00
      0.025  0.3681E+00  0.3660E+00  0.6765E+00  0.6759E+00
      0.090  0.3990E+00  0.3999E+00  0.7025E+00  0.7020E+00
      0.155  0.3262E+00  0.3279E+00  0.7239E+00  0.7234E+00
      0.221  0.2715E+00  0.2725E+00  0.7416E+00  0.7412E+00
      0.286  0.2216E+00  0.2225E+00  0.7561E+00  0.7558E+00
      0.351  0.2306E+00  0.2288E+00  0.7711E+00  0.7707E+00
      0.417  0.3660E+00  0.3622E+00  0.7950E+00  0.7944E+00
      0.482  0.4796E+00  0.4788E+00  0.8264E+00  0.8256E+00
      0.547  0.4202E+00  0.4226E+00  0.8538E+00  0.8532E+00
      0.612  0.3467E+00  0.3473E+00  0.8764E+00  0.8759E+00
      0.678  0.3306E+00  0.3310E+00  0.8980E+00  0.8975E+00
      0.743  0.3058E+00  0.3062E+00  0.9180E+00  0.9175E+00
      0.808  0.3453E+00  0.3436E+00  0.9405E+00  0.9400E+00
      0.873  0.4145E+00  0.4135E+00  0.9677E+00  0.9670E+00
      0.939  0.3998E+00  0.4008E+00  0.9938E+00  0.9932E+00
      1.004  0.3255E+00  0.3274E+00  0.1015E+01  0.1015E+01
      1.069  0.2517E+00  0.2525E+00  0.1031E+01  0.1031E+01
      1.135  0.2779E+00  0.2760E+00  0.1050E+01  0.1049E+01
      1.200  0.3725E+00  0.3707E+00  0.1074E+01  0.1073E+01
      1.265  0.4328E+00  0.4321E+00  0.1102E+01  0.1102E+01
      1.330  0.4487E+00  0.4481E+00  0.1131E+01  0.1131E+01
      1.396  0.4389E+00  0.4397E+00  0.1160E+01  0.1160E+01
      1.461  0.3639E+00  0.3659E+00  0.1184E+01  0.1183E+01
      1.526  0.3249E+00  0.3248E+00  0.1205E+01  0.1205E+01
      1.591  0.3589E+00  0.3582E+00  0.1229E+01  0.1228E+01
      1.657  0.3801E+00  0.3802E+00  0.1253E+01  0.1253E+01
      1.722  0.3624E+00  0.3625E+00  0.1277E+01  0.1277E+01
      1.787  0.3936E+00  0.3917E+00  0.1303E+01  0.1302E+01
      1.853  0.4314E+00  0.4318E+00  0.1331E+01  0.1330E+01
      1.918  0.3814E+00  0.3824E+00  0.1356E+01  0.1355E+01
      1.983  0.4095E+00  0.4076E+00  0.1383E+01  0.1382E+01
      2.048  0.4937E+00  0.4926E+00  0.1415E+01  0.1414E+01
      2.114  0.5268E+00  0.5265E+00  0.1449E+01  0.1448E+01
      2.179  0.5512E+00  0.5503E+00  0.1485E+01  0.1484E+01
      2.244  0.5801E+00  0.5799E+00  0.1523E+01  0.1522E+01
      2.309  0.5670E+00  0.5677E+00  0.1560E+01  0.1559E+01
      2.375  0.5607E+00  0.5601E+00  0.1597E+01  0.1596E+01
      2.440  0.6162E+00  0.6149E+00  0.1637E+01  0.1636E+01
      2.505  0.6487E+00  0.6487E+00  0.1679E+01  0.1678E+01
      2.571  0.6125E+00  0.6142E+00  0.1719E+01  0.1719E+01
      2.636  0.5330E+00  0.5349E+00  0.1754E+01  0.1753E+01
      2.701  0.4683E+00  0.4693E+00  0.1785E+01  0.1784E+01
      2.766  0.5032E+00  0.5007E+00  0.1818E+01  0.1817E+01
      2.832  0.6559E+00  0.6528E+00  0.1861E+01  0.1859E+01
      2.897  0.6973E+00  0.6986E+00  0.1906E+01  0.1905E+01
      2.962  0.6131E+00  0.6148E+00  0.1946E+01  0.1945E+01
      3.027  0.5694E+00  0.5700E+00  0.1983E+01  0.1983E+01
      3.093  0.5742E+00  0.5734E+00  0.2021E+01  0.2020E+01
      3.158  0.6658E+00  0.6634E+00  0.2064E+01  0.2063E+01
      3.223  0.7198E+00  0.7202E+00  0.2111E+01  0.2110E+01
      3.289  0.6489E+00  0.6509E+00  0.2154E+01  0.2153E+01
      3.354  0.6015E+00  0.6019E+00  0.2193E+01  0.2192E+01
      3.419  0.5843E+00  0.5851E+00  0.2231E+01  0.2230E+01
      3.484  0.5545E+00  0.5544E+00  0.2267E+01  0.2267E+01
      3.550  0.5871E+00  0.5862E+00  0.2306E+01  0.2305E+01
      3.615  0.6039E+00  0.6042E+00  0.2345E+01  0.2344E+01
      3.680  0.5864E+00  0.5869E+00  0.2383E+01  0.2383E+01
      3.745  0.5520E+00  0.5532E+00  0.2420E+01  0.2419E+01
      3.811  0.4974E+00  0.4984E+00  0.2452E+01  0.2451E+01
      3.876  0.4933E+00  0.4934E+00  0.2484E+01  0.2484E+01
      3.941  0.4777E+00  0.4780E+00  0.2515E+01  0.2515E+01
      4.007  0.4926E+00  0.4910E+00  0.2548E+01  0.2547E+01
      4.072  0.5707E+00  0.5690E+00  0.2585E+01  0.2584E+01
      4.137  0.6128E+00  0.6123E+00  0.2625E+01  0.2624E+01
      4.202  0.6361E+00  0.6358E+00  0.2666E+01  0.2666E+01
      4.268  0.6703E+00  0.6690E+00  0.2710E+01  0.2709E+01
      4.333  0.7901E+00  0.7873E+00  0.2762E+01  0.2761E+01
      4.398  0.8710E+00  0.8718E+00  0.2819E+01  0.2818E+01
      4.463  0.7508E+00  0.7545E+00  0.2868E+01  0.2867E+01
      4.529  0.6021E+00  0.6041E+00  0.2907E+01  0.2906E+01
      4.594  0.5489E+00  0.5490E+00  0.2943E+01  0.2942E+01
      4.659  0.5610E+00  0.5604E+00  0.2980E+01  0.2979E+01
      4.725  0.5974E+00  0.5958E+00  0.3019E+01  0.3018E+01
      4.790  0.7310E+00  0.7273E+00  0.3066E+01  0.3065E+01
      4.855  0.9053E+00  0.9030E+00  0.3126E+01  0.3124E+01
      4.920  0.9364E+00  0.9381E+00  0.3187E+01  0.3186E+01
      4.986  0.8169E+00  0.8197E+00  0.3240E+01  0.3239E+01
      5.051  0.7588E+00  0.7580E+00  0.3290E+01  0.3289E+01
      5.116  0.9043E+00  0.9006E+00  0.3349E+01  0.3347E+01
      5.181  0.1058E+01  0.1057E+01  0.3418E+01  0.3416E+01
      5.247  0.1038E+01  0.1040E+01  0.3486E+01  0.3484E+01
      5.312  0.9079E+00  0.9101E+00  0.3545E+01  0.3544E+01
      5.377  0.8708E+00  0.8706E+00  0.3602E+01  0.3601E+01
      5.443  0.9161E+00  0.9158E+00  0.3662E+01  0.3660E+01
      5.508  0.9603E+00  0.9597E+00  0.3724E+01  0.3723E+01
      5.573  0.1001E+01  0.1001E+01  0.3790E+01  0.3788E+01
      5.638  0.1034E+01  0.1033E+01  0.3857E+01  0.3856E+01
      5.704  0.1115E+01  0.1114E+01  0.3930E+01  0.3929E+01
      5.769  0.1179E+01  0.1179E+01  0.4007E+01  0.4006E+01
      5.834  0.1259E+01  0.1258E+01  0.4089E+01  0.4088E+01
      5.899  0.1353E+01  0.1353E+01  0.4178E+01  0.4176E+01
      5.965  0.1236E+01  0.1240E+01  0.4258E+01  0.4257E+01
      6.030  0.9548E+00  0.9592E+00  0.4321E+01  0.4320E+01
      6.095  0.8342E+00  0.8353E+00  0.4375E+01  0.4374E+01
      6.161  0.9712E+00  0.9688E+00  0.4439E+01  0.4438E+01
      6.226  0.1336E+01  0.1330E+01  0.4526E+01  0.4525E+01
      6.291  0.1755E+01  0.1751E+01  0.4640E+01  0.4639E+01
      6.356  0.1870E+01  0.1870E+01  0.4763E+01  0.4761E+01
      6.422  0.1615E+01  0.1619E+01  0.4868E+01  0.4867E+01
      6.487  0.1243E+01  0.1248E+01  0.4949E+01  0.4948E+01
      6.552  0.1025E+01  0.1029E+01  0.5016E+01  0.5015E+01
      6.617  0.8686E+00  0.8705E+00  0.5073E+01  0.5072E+01
      6.683  0.7642E+00  0.7649E+00  0.5123E+01  0.5122E+01
      6.748  0.8137E+00  0.8137E+00  0.5176E+01  0.5176E+01
      6.813  0.9401E+00  0.9402E+00  0.5238E+01  0.5237E+01
      6.879  0.8928E+00  0.8938E+00  0.5296E+01  0.5295E+01
      6.944  0.7637E+00  0.7643E+00  0.5346E+01  0.5345E+01
      7.009  0.7110E+00  0.7115E+00  0.5392E+01  0.5392E+01
      7.074  0.6590E+00  0.6599E+00  0.5435E+01  0.5435E+01
      7.140  0.6316E+00  0.6323E+00  0.5476E+01  0.5476E+01
      7.205  0.6452E+00  0.6457E+00  0.5519E+01  0.5519E+01
      7.270  0.6832E+00  0.6836E+00  0.5563E+01  0.5563E+01
      7.335  0.7090E+00  0.7092E+00  0.5610E+01  0.5609E+01
      7.401  0.7153E+00  0.7154E+00  0.5656E+01  0.5656E+01
      7.466  0.6946E+00  0.6945E+00  0.5702E+01  0.5702E+01
      7.531  0.7278E+00  0.7282E+00  0.5749E+01  0.5749E+01
      7.597  0.7207E+00  0.7217E+00  0.5796E+01  0.5796E+01
      7.662  0.5755E+00  0.5761E+00  0.5834E+01  0.5834E+01
      7.727  0.4821E+00  0.4821E+00  0.5865E+01  0.5865E+01
      7.792  0.5381E+00  0.5380E+00  0.5901E+01  0.5901E+01
      7.858  0.6853E+00  0.6856E+00  0.5945E+01  0.5945E+01
      7.923  0.8195E+00  0.8195E+00  0.5999E+01  0.5999E+01
      7.988  0.7693E+00  0.7688E+00  0.6049E+01  0.6049E+01
      8.053  0.5314E+00  0.5315E+00  0.6084E+01  0.6084E+01
      8.119  0.3175E+00  0.3181E+00  0.6105E+01  0.6105E+01
      8.184  0.3153E+00  0.3162E+00  0.6125E+01  0.6125E+01
      8.249  0.4752E+00  0.4757E+00  0.6156E+01  0.6156E+01
      8.315  0.6011E+00  0.6011E+00  0.6195E+01  0.6196E+01
      8.380  0.6714E+00  0.6713E+00  0.6239E+01  0.6239E+01
      8.445  0.7026E+00  0.7030E+00  0.6285E+01  0.6285E+01
      8.510  0.7489E+00  0.7501E+00  0.6334E+01  0.6334E+01
      8.576  0.8807E+00  0.8822E+00  0.6392E+01  0.6392E+01
      8.641  0.1059E+01  0.1060E+01  0.6461E+01  0.6461E+01
      8.706  0.1159E+01  0.1159E+01  0.6536E+01  0.6537E+01
      8.772  0.1120E+01  0.1120E+01  0.6609E+01  0.6610E+01
      8.837  0.1074E+01  0.1075E+01  0.6680E+01  0.6680E+01
      8.902  0.1192E+01  0.1193E+01  0.6757E+01  0.6758E+01
      8.967  0.1371E+01  0.1372E+01  0.6847E+01  0.6848E+01
      9.033  0.1348E+01  0.1347E+01  0.6935E+01  0.6936E+01
      9.098  0.1238E+01  0.1238E+01  0.7016E+01  0.7016E+01
      9.163  0.1159E+01  0.1158E+01  0.7092E+01  0.7092E+01
      9.228  0.1129E+01  0.1127E+01  0.7165E+01  0.7166E+01
      9.294  0.1167E+01  0.1167E+01  0.7242E+01  0.7242E+01
      9.359  0.1199E+01  0.1201E+01  0.7320E+01  0.7320E+01
      9.424  0.1293E+01  0.1294E+01  0.7404E+01  0.7405E+01
      9.490  0.1525E+01  0.1527E+01  0.7504E+01  0.7505E+01
      9.555  0.1783E+01  0.1786E+01  0.7620E+01  0.7621E+01
      9.620  0.1884E+01  0.1888E+01  0.7743E+01  0.7744E+01
      9.685  0.1934E+01  0.1941E+01  0.7870E+01  0.7871E+01
      9.751  0.2178E+01  0.2187E+01  0.8012E+01  0.8014E+01
      9.816  0.2599E+01  0.2611E+01  0.8182E+01  0.8184E+01
      9.881  0.2857E+01  0.2864E+01  0.8368E+01  0.8371E+01
      9.946  0.2728E+01  0.2726E+01  0.8546E+01  0.8549E+01
     10.012  0.2395E+01  0.2389E+01  0.8703E+01  0.8705E+01
     10.077  0.1951E+01  0.1941E+01  0.8830E+01  0.8832E+01
     10.142  0.1448E+01  0.1436E+01  0.8925E+01  0.8926E+01
     10.208  0.1065E+01  0.1056E+01  0.8994E+01  0.8995E+01
     10.273  0.7963E+00  0.7906E+00  0.9047E+01  0.9047E+01
     10.338  0.6415E+00  0.6382E+00  0.9089E+01  0.9089E+01
     10.403  0.6596E+00  0.6576E+00  0.9132E+01  0.9132E+01
     10.469  0.7896E+00  0.7886E+00  0.9183E+01  0.9183E+01
     10.534  0.9063E+00  0.9061E+00  0.9243E+01  0.9243E+01
     10.599  0.1003E+01  0.1003E+01  0.9308E+01  0.9308E+01
     10.664  0.1042E+01  0.1042E+01  0.9376E+01  0.9376E+01
     10.730  0.9809E+00  0.9811E+00  0.9440E+01  0.9440E+01
     10.795  0.9152E+00  0.9155E+00  0.9500E+01  0.9500E+01
     10.860  0.8900E+00  0.8899E+00  0.9558E+01  0.9558E+01
     10.926  0.8812E+00  0.8806E+00  0.9616E+01  0.9616E+01
     10.991  0.9049E+00  0.9046E+00  0.9675E+01  0.9675E+01
     11.056  0.1019E+01  0.1020E+01  0.9741E+01  0.9741E+01
     11.121  0.1080E+01  0.1081E+01  0.9812E+01  0.9812E+01
     11.187  0.1002E+01  0.1002E+01  0.9877E+01  0.9877E+01
     11.252  0.9005E+00  0.9011E+00  0.9936E+01  0.9936E+01
     11.317  0.8250E+00  0.8258E+00  0.9990E+01  0.9990E+01
     11.382  0.7189E+00  0.7188E+00  0.1004E+02  0.1004E+02
     11.448  0.7745E+00  0.7758E+00  0.1009E+02  0.1009E+02
     11.513  0.9334E+00  0.9377E+00  0.1015E+02  0.1015E+02
     11.578  0.9655E+00  0.9702E+00  0.1021E+02  0.1021E+02
     11.644  0.9940E+00  0.9981E+00  0.1028E+02  0.1028E+02
     11.709  0.1153E+01  0.1157E+01  0.1035E+02  0.1035E+02
     11.774  0.1424E+01  0.1429E+01  0.1044E+02  0.1045E+02
     11.839  0.1542E+01  0.1548E+01  0.1055E+02  0.1055E+02
     11.905  0.1357E+01  0.1364E+01  0.1063E+02  0.1064E+02
     11.970  0.1200E+01  0.1204E+01  0.1071E+02  0.1072E+02
     12.035  0.1278E+01  0.1268E+01  0.1080E+02  0.1080E+02
     12.100  0.1521E+01  0.1511E+01  0.1090E+02  0.1090E+02
     12.166  0.1748E+01  0.1740E+01  0.1101E+02  0.1101E+02
     12.231  0.1814E+01  0.1795E+01  0.1113E+02  0.1113E+02
     12.296  0.1640E+01  0.1626E+01  0.1124E+02  0.1123E+02
     12.362  0.1397E+01  0.1407E+01  0.1133E+02  0.1133E+02
     12.427  0.1257E+01  0.1269E+01  0.1141E+02  0.1141E+02
     12.492  0.1241E+01  0.1246E+01  0.1149E+02  0.1149E+02
     12.557  0.1158E+01  0.1161E+01  0.1157E+02  0.1157E+02
     12.623  0.8945E+00  0.8967E+00  0.1162E+02  0.1162E+02
     12.688  0.6383E+00  0.6351E+00  0.1167E+02  0.1167E+02
     12.753  0.4963E+00  0.4928E+00  0.1170E+02  0.1170E+02
     12.818  0.4400E+00  0.4398E+00  0.1173E+02  0.1173E+02
     12.884  0.4356E+00  0.4365E+00  0.1176E+02  0.1176E+02
     12.949  0.4424E+00  0.4398E+00  0.1178E+02  0.1178E+02
     13.014  0.4034E+00  0.3995E+00  0.1181E+02  0.1181E+02
     13.080  0.3550E+00  0.3566E+00  0.1183E+02  0.1183E+02
     13.145  0.3332E+00  0.3371E+00  0.1186E+02  0.1186E+02
     13.210  0.3000E+00  0.3028E+00  0.1187E+02  0.1188E+02
     13.275  0.2775E+00  0.2782E+00  0.1189E+02  0.1189E+02
     13.341  0.2438E+00  0.2426E+00  0.1191E+02  0.1191E+02
     13.406  0.1604E+00  0.1596E+00  0.1192E+02  0.1192E+02
     13.471  0.9208E-01  0.9691E-01  0.1193E+02  0.1193E+02
     13.536  0.9377E-01  0.1122E+00  0.1193E+02  0.1193E+02
     13.602  0.1576E+00  0.1914E+00  0.1194E+02  0.1195E+02
     13.667  0.2120E+00  0.2344E+00  0.1196E+02  0.1196E+02
     13.732  0.2131E+00  0.2039E+00  0.1197E+02  0.1197E+02
     13.798  0.1834E+00  0.1687E+00  0.1198E+02  0.1199E+02
     13.863  0.1150E+00  0.1073E+00  0.1199E+02  0.1199E+02
     13.928  0.4724E-01  0.4386E-01  0.1199E+02  0.1200E+02
     13.993  0.1475E-01  0.1356E-01  0.1199E+02  0.1200E+02
     14.059  0.3976E-02  0.3592E-02  0.1199E+02  0.1200E+02
     14.124  0.1095E-02  0.1017E-02  0.1199E+02  0.1200E+02
     14.189  0.2073E-03  0.1247E-03  0.1199E+02  0.1200E+02
     14.254  0.3833E-03  0.4535E-03  0.1199E+02  0.1200E+02
     14.320  0.1355E-02  0.1588E-02  0.1199E+02  0.1200E+02
     14.385  0.4319E-02  0.4905E-02  0.1199E+02  0.1200E+02
     14.450  0.1017E-01  0.1079E-01  0.1199E+02  0.1200E+02
     14.516  0.1312E-01  0.1271E-01  0.1200E+02  0.1200E+02
     14.581  0.8350E-02  0.7420E-02  0.1200E+02  0.1200E+02
     14.646  0.3832E-02  0.2700E-02  0.1200E+02  0.1200E+02
     14.711  0.3571E-02  0.8185E-03  0.1200E+02  0.1200E+02
     14.777  0.7559E-02  0.2902E-03  0.1200E+02  0.1200E+02
     14.842  0.1302E-01  0.2999E-03  0.1200E+02  0.1200E+02
     14.907  0.1334E-01  0.7549E-03  0.1200E+02  0.1200E+02
     14.972  0.9473E-02  0.1739E-02  0.1200E+02  0.1200E+02
     15.038  0.5414E-02  0.2163E-02  0.1200E+02  0.1200E+02
     15.103  0.2406E-02  0.1306E-02  0.1200E+02  0.1200E+02
     15.168  0.8120E-03  0.4805E-03  0.1200E+02  0.1200E+02
     15.234  0.2184E-03  0.1432E-03  0.1200E+02  0.1200E+02
     15.299  0.5837E-04  0.3985E-04  0.1200E+02  0.1200E+02
     15.364  0.1192E-04  0.1088E-04  0.1200E+02  0.1200E+02
     15.429  0.0000E+00  0.0000E+00  0.1200E+02  0.1200E+02
     15.495  0.0000E+00  0.0000E+00  0.1200E+02  0.1200E+02
     15.560  0.0000E+00  0.0000E+00  0.1200E+02  0.1200E+02
     15.625  0.0000E+00  0.0000E+00  0.1200E+02  0.1200E+02
     15.690  0.0000E+00  0.0000E+00  0.1200E+02  0.1200E+02
     15.756  0.0000E+00  0.0000E+00  0.1200E+02  0.1200E+02
     15.821  0.0000E+00  0.0000E+00  0.1200E+02  0.1200E+02
     15.886  0.0000E+00  0.0000E+00  0.1200E+02  0.1200E+02
     15.88627224     -3.69566029  301      8.67491573      1.00000000
     -3.696  0.0000E+00  0.0000E+00  0.0000E+00  0.0000E+00  0.0000E+00  0.0000E+00  0.0000E+00  0.0000E+00  0.0000E+00  0.0000E+00  0.0000E+00  0.0000E+00  0.0000E+00  0.0000E+00  0.0000E+00  0.0000E+00  0.0000E+00  0.0000E+00
     -3.630  0.0000E+00  0.0000E+00  0.0000E+00  0.0000E+00  0.0000E+00  0.0000E+00  0.0000E+00  0.0000E+00  0.0000E+00  0.0000E+00  0.0000E+00  0.0000E+00  0.0000E+00  0.0000E+00  0.0000E+00  0.0000E+00  0.0000E+00  0.0000E+00
     -3.565  0.0000E+00  0.0000E+00  0.0000E+00  0.0000E+00  0.0000E+00  0.0000E+00  0.0000E+00  0.0000E+00  0.0000E+00  0.0000E+00  0.0000E+00  0.0000E+00  0.0000E+00  0.0000E+00  0.0000E+00  0.0000E+00  0.0000E+00  0.0000E+00
     -3.500  0.0000E+00  0.0000E+00  0.0000E+00  0.0000E+00  0.0000E+00  0.0000E+00  0.0000E+00  0.0000E+00  0.0000E+00  0.0000E+00  0.0000E+00  0.0000E+00  0.0000E+00  0.0000E+00  0.0000E+00  0.0000E+00  0.0000E+00  0.0000E+00
     -3.435  0.0000E+00  0.0000E+00  0.0000E+00  0.0000E+00  0.0000E+00  0.0000E+00  0.0000E+00  0.0000E+00  0.0000E+00  0.0000E+00  0.0000E+00  0.0000E+00  0.0000E+00  0.0000E+00  0.0000E+00  0.0000E+00  0.0000E+00  0.0000E+00
     -3.369  0.0000E+00  0.0000E+00  0.0000E+00  0.0000E+00  0.0000E+00  0.0000E+00  0.0000E+00  0.0000E+00  0.0000E+00  0.0000E+00  0.0000E+00  0.0000E+00  0.0000E+00  0.0000E+00  0.0000E+00  0.0000E+00  0.0000E+00  0.0000E+00
     -3.304  0.0000E+00  0.0000E+00  0.0000E+00  0.0000E+00  0.0000E+00  0.0000E+00  0.0000E+00  0.0000E+00  0.0000E+00  0.0000E+00  0.0000E+00  0.0000E+00  0.0000E+00  0.0000E+00  0.0000E+00  0.0000E+00  0.0000E+00  0.0000E+00
     -3.239  0.1789E-06  0.1733E-06  0.5276E-22  0.2241E-21  0.5276E-22  0.2241E-21  0.2108E-21  0.1306E-22  0.4311E-21  0.9169E-22  0.5527E-21  0.2427E-22  0.2055E-15  0.1884E-15  0.4311E-21  0.9169E-22  0.2643E-15  0.2440E-15
     -3.173  0.1615E-05  0.1564E-05  0.3480E-08  0.3371E-08  0.3480E-08  0.3371E-08  0.3479E-08  0.3369E-08  0.5075E-19  0.9826E-20  0.1881E-19  0.4726E-20  0.1499E-10  0.1451E-10  0.5075E-19  0.9826E-20  0.1919E-10  0.1857E-10
     -3.108  0.7223E-05  0.6996E-05  0.2423E-07  0.2346E-07  0.2423E-07  0.2346E-07  0.2422E-07  0.2346E-07  0.1483E-09  0.1437E-09  0.1484E-09  0.1437E-09  0.8139E-10  0.7878E-10  0.1483E-09  0.1437E-09  0.8337E-10  0.8071E-10
     -3.043  0.2587E-04  0.2506E-04  0.9035E-07  0.8751E-07  0.9035E-07  0.8751E-07  0.9032E-07  0.8748E-07  0.7185E-09  0.6961E-09  0.7186E-09  0.6962E-09  0.2587E-09  0.2505E-09  0.7185E-09  0.6961E-09  0.2753E-09  0.2665E-09
     -2.978  0.9399E-04  0.9107E-04  0.3333E-06  0.3229E-06  0.3333E-06  0.3229E-06  0.3332E-06  0.3227E-06  0.2326E-08  0.2254E-08  0.2327E-08  0.2254E-08  0.1241E-08  0.1202E-08  0.2326E-08  0.2254E-08  0.1384E-08  0.1340E-08
     -2.912  0.3373E-03  0.3273E-03  0.1286E-05  0.1247E-05  0.1286E-05  0.1247E-05  0.1286E-05  0.1246E-05  0.1006E-07  0.9752E-08  0.1007E-07  0.9755E-08  0.5292E-08  0.5125E-08  0.1006E-07  0.9752E-08  0.5900E-08  0.5715E-08
     -2.847  0.1097E-02  0.1068E-02  0.4529E-05  0.4396E-05  0.4529E-05  0.4396E-05  0.4527E-05  0.4394E-05  0.3858E-07  0.3741E-07  0.3859E-07  0.3742E-07  0.1827E-07  0.1772E-07  0.3858E-07  0.3741E-07  0.2038E-07  0.1978E-07
     -2.782  0.2946E-02  0.2885E-02  0.1410E-04  0.1374E-04  0.1410E-04  0.1374E-04  0.1409E-04  0.1373E-04  0.1292E-06  0.1255E-06  0.1292E-06  0.1255E-06  0.5735E-07  0.5582E-07  0.1292E-06  0.1255E-06  0.6342E-07  0.6175E-07
     -2.717  0.5930E-02  0.5852E-02  0.3559E-04  0.3490E-04  0.3559E-04  0.3490E-04  0.3557E-04  0.3489E-04  0.3939E-06  0.3846E-06  0.3940E-06  0.3846E-06  0.1556E-06  0.1521E-06  0.3939E-06  0.3846E-06  0.1718E-06  0.1679E-06
     -2.651  0.8649E-02  0.8597E-02  0.6853E-04  0.6761E-04  0.6853E-04  0.6761E-04  0.6850E-04  0.6758E-04  0.9213E-06  0.9051E-06  0.9215E-06  0.9054E-06  0.3774E-06  0.3691E-06  0.9213E-06  0.9051E-06  0.4328E-06  0.4228E-06
     -2.586  0.1040E-01  0.1036E-01  0.1148E-03  0.1134E-03  0.1148E-03  0.1134E-03  0.1147E-03  0.1133E-03  0.1822E-05  0.1793E-05  0.1822E-05  0.1793E-05  0.9106E-06  0.8914E-06  0.1822E-05  0.1793E-05  0.1086E-05  0.1063E-05
     -2.521  0.1316E-01  0.1307E-01  0.1925E-03  0.1902E-03  0.1925E-03  0.1902E-03  0.1924E-03  0.1901E-03  0.3671E-05  0.3610E-05  0.3672E-05  0.3612E-05  0.1859E-05  0.1833E-05  0.3671E-05  0.3610E-05  0.2228E-05  0.2197E-05
     -2.455  0.1611E-01  0.1608E-01  0.2777E-03  0.2761E-03  0.2777E-03  0.2761E-03  0.2776E-03  0.2761E-03  0.6596E-05  0.6527E-05  0.6597E-05  0.6528E-05  0.2669E-05  0.2655E-05  0.6596E-05  0.6527E-05  0.3170E-05  0.3154E-05
     -2.390  0.1536E-01  0.1541E-01  0.3067E-03  0.3064E-03  0.3067E-03  0.3064E-03  0.3067E-03  0.3064E-03  0.9144E-05  0.9089E-05  0.9146E-05  0.9091E-05  0.3039E-05  0.3024E-05  0.9144E-05  0.9089E-05  0.3502E-05  0.3489E-05
     -2.325  0.1426E-01  0.1424E-01  0.3551E-03  0.3524E-03  0.3551E-03  0.3524E-03  0.3548E-03  0.3522E-03  0.1288E-04  0.1275E-04  0.1289E-04  0.1276E-04  0.4441E-05  0.4376E-05  0.1288E-04  0.1275E-04  0.4935E-05  0.4864E-05
     -2.260  0.1754E-01  0.1743E-01  0.5211E-03  0.5162E-03  0.5211E-03  0.5162E-03  0.5205E-03  0.5157E-03  0.1992E-04  0.1975E-04  0.1992E-04  0.1976E-04  0.8312E-05  0.8188E-05  0.1992E-04  0.1975E-04  0.9514E-05  0.9362E-05
     -2.194  0.2086E-01  0.2082E-01  0.6881E-03  0.6851E-03  0.6881E-03  0.6851E-03  0.6876E-03  0.6846E-03  0.2572E-04  0.2562E-04  0.2572E-04  0.2563E-04  0.1331E-04  0.1320E-04  0.2572E-04  0.2562E-04  0.1591E-04  0.1576E-04
     -2.129  0.2067E-01  0.2070E-01  0.7526E-03  0.7519E-03  0.7526E-03  0.7519E-03  0.7526E-03  0.7518E-03  0.3120E-04  0.3103E-04  0.3121E-04  0.3104E-04  0.1562E-04  0.1561E-04  0.3120E-04  0.3103E-04  0.1896E-04  0.1895E-04
     -2.064  0.1936E-01  0.1937E-01  0.7912E-03  0.7891E-03  0.7912E-03  0.7891E-03  0.7913E-03  0.7891E-03  0.4294E-04  0.4258E-04  0.4297E-04  0.4261E-04  0.1516E-04  0.1515E-04  0.4294E-04  0.4258E-04  0.1784E-04  0.1786E-04
     -1.999  0.2073E-01  0.2067E-01  0.9485E-03  0.9434E-03  0.9485E-03  0.9434E-03  0.9481E-03  0.9430E-03  0.6293E-04  0.6246E-04  0.6297E-04  0.6250E-04  0.1722E-04  0.1712E-04  0.6293E-04  0.6246E-04  0.1925E-04  0.1916E-04
     -1.933  0.2172E-01  0.2176E-01  0.1074E-02  0.1074E-02  0.1074E-02  0.1074E-02  0.1074E-02  0.1073E-02  0.7608E-04  0.7609E-04  0.7606E-04  0.7608E-04  0.2054E-04  0.2047E-04  0.7608E-04  0.7609E-04  0.2301E-04  0.2292E-04
     -1.868  0.1861E-01  0.1868E-01  0.1018E-02  0.1018E-02  0.1018E-02  0.1018E-02  0.1017E-02  0.1017E-02  0.7005E-04  0.7021E-04  0.7002E-04  0.7019E-04  0.2440E-04  0.2422E-04  0.7005E-04  0.7021E-04  0.2872E-04  0.2848E-04
     -1.803  0.1964E-01  0.1953E-01  0.1234E-02  0.1224E-02  0.1234E-02  0.1224E-02  0.1232E-02  0.1221E-02  0.8278E-04  0.8208E-04  0.8285E-04  0.8215E-04  0.3726E-04  0.3685E-04  0.8278E-04  0.8208E-04  0.4530E-04  0.4479E-04
     -1.737  0.2493E-01  0.2483E-01  0.1688E-02  0.1679E-02  0.1688E-02  0.1679E-02  0.1687E-02  0.1677E-02  0.1220E-03  0.1211E-03  0.1221E-03  0.1213E-03  0.5354E-04  0.5326E-04  0.1220E-03  0.1211E-03  0.6431E-04  0.6402E-04
     -1.672  0.2614E-01  0.2616E-01  0.1871E-02  0.1869E-02  0.1871E-02  0.1869E-02  0.1871E-02  0.1869E-02  0.1541E-03  0.1536E-03  0.1542E-03  0.1537E-03  0.5854E-04  0.5856E-04  0.1541E-03  0.1536E-03  0.6802E-04  0.6810E-04
     -1.607  0.2493E-01  0.2494E-01  0.1916E-02  0.1913E-02  0.1916E-02  0.1913E-02  0.1915E-02  0.1913E-02  0.1799E-03  0.1793E-03  0.1799E-03  0.1794E-03  0.5893E-04  0.5889E-04  0.1799E-03  0.1793E-03  0.6717E-04  0.6713E-04
     -1.542  0.2449E-01  0.2451E-01  0.2016E-02  0.2014E-02  0.2016E-02  0.2014E-02  0.2016E-02  0.2014E-02  0.2099E-03  0.2094E-03  0.2098E-03  0.2093E-03  0.6026E-04  0.6036E-04  0.2099E-03  0.2094E-03  0.6937E-04  0.6947E-04
     -1.476  0.2158E-01  0.2169E-01  0.1872E-02  0.1878E-02  0.1872E-02  0.1878E-02  0.1873E-02  0.1880E-02  0.2209E-03  0.2212E-03  0.2208E-03  0.2211E-03  0.5054E-04  0.5087E-04  0.2209E-03  0.2212E-03  0.5841E-04  0.5880E-04
     -1.411  0.1768E-01  0.1772E-01  0.1683E-02  0.1681E-02  0.1683E-02  0.1681E-02  0.1681E-02  0.1680E-02  0.2172E-03  0.2170E-03  0.2174E-03  0.2172E-03  0.4567E-04  0.4550E-04  0.2172E-03  0.2170E-03  0.5292E-04  0.5272E-04
     -1.346  0.1967E-01  0.1955E-01  0.2131E-02  0.2111E-02  0.2131E-02  0.2111E-02  0.2124E-02  0.2105E-02  0.2702E-03  0.2684E-03  0.2707E-03  0.2689E-03  0.7094E-04  0.7001E-04  0.2702E-03  0.2684E-03  0.8237E-04  0.8130E-04
     -1.281  0.2576E-01  0.2562E-01  0.3039E-02  0.3018E-02  0.3039E-02  0.3018E-02  0.3032E-02  0.3011E-02  0.3673E-03  0.3655E-03  0.3677E-03  0.3659E-03  0.1163E-03  0.1154E-03  0.3673E-03  0.3655E-03  0.1352E-03  0.1341E-03
     -1.215  0.2794E-01  0.2797E-01  0.3497E-02  0.3496E-02  0.3497E-02  0.3496E-02  0.3495E-02  0.3494E-02  0.4193E-03  0.4193E-03  0.4191E-03  0.4192E-03  0.1397E-03  0.1398E-03  0.4193E-03  0.4193E-03  0.1645E-03  0.1645E-03
     -1.150  0.2497E-01  0.2502E-01  0.3335E-02  0.3336E-02  0.3335E-02  0.3336E-02  0.3335E-02  0.3336E-02  0.4345E-03  0.4337E-03  0.4345E-03  0.4337E-03  0.1294E-03  0.1297E-03  0.4345E-03  0.4337E-03  0.1544E-03  0.1548E-03
     -1.085  0.2500E-01  0.2496E-01  0.3578E-02  0.3568E-02  0.3578E-02  0.3568E-02  0.3575E-02  0.3565E-02  0.5266E-03  0.5247E-03  0.5270E-03  0.5251E-03  0.1320E-03  0.1318E-03  0.5266E-03  0.5247E-03  0.1576E-03  0.1573E-03
     -1.019  0.2358E-01  0.2368E-01  0.3563E-02  0.3574E-02  0.3563E-02  0.3574E-02  0.3565E-02  0.3576E-02  0.5514E-03  0.5531E-03  0.5515E-03  0.5531E-03  0.1332E-03  0.1336E-03  0.5514E-03  0.5531E-03  0.1579E-03  0.1585E-03
     -0.954  0.1815E-01  0.1824E-01  0.2939E-02  0.2946E-02  0.2939E-02  0.2946E-02  0.2941E-02  0.2949E-02  0.5082E-03  0.5080E-03  0.5086E-03  0.5084E-03  0.1091E-03  0.1096E-03  0.5082E-03  0.5080E-03  0.1252E-03  0.1260E-03
     -0.889  0.1834E-01  0.1825E-01  0.3287E-02  0.3263E-02  0.3287E-02  0.3263E-02  0.3279E-02  0.3255E-02  0.6641E-03  0.6585E-03  0.6654E-03  0.6598E-03  0.1112E-03  0.1107E-03  0.6641E-03  0.6585E-03  0.1219E-03  0.1214E-03
     -0.824  0.2296E-01  0.2285E-01  0.4611E-02  0.4577E-02  0.4611E-02  0.4577E-02  0.4594E-02  0.4560E-02  0.9424E-03  0.9375E-03  0.9435E-03  0.9385E-03  0.1439E-03  0.1432E-03  0.9424E-03  0.9375E-03  0.1583E-03  0.1574E-03
     -0.758  0.2446E-01  0.2449E-01  0.5735E-02  0.5716E-02  0.5735E-02  0.5716E-02  0.5717E-02  0.5698E-02  0.1074E-02  0.1075E-02  0.1074E-02  0.1075E-02  0.1692E-03  0.1690E-03  0.1074E-02  0.1075E-02  0.1905E-03  0.1902E-03
     -0.693  0.2120E-01  0.2130E-01  0.5955E-02  0.5957E-02  0.5955E-02  0.5957E-02  0.5948E-02  0.5951E-02  0.1022E-02  0.1025E-02  0.1022E-02  0.1024E-02  0.1647E-03  0.1651E-03  0.1022E-02  0.1025E-02  0.1894E-03  0.1898E-03
     -0.628  0.1744E-01  0.1750E-01  0.5709E-02  0.5709E-02  0.5709E-02  0.5709E-02  0.5706E-02  0.5707E-02  0.1009E-02  0.1008E-02  0.1010E-02  0.1009E-02  0.1474E-03  0.1477E-03  0.1009E-02  0.1008E-02  0.1724E-03  0.1727E-03
     -0.563  0.1563E-01  0.1566E-01  0.5861E-02  0.5854E-02  0.5861E-02  0.5854E-02  0.5854E-02  0.5847E-02  0.1127E-02  0.1125E-02  0.1128E-02  0.1126E-02  0.1445E-03  0.1445E-03  0.1127E-02  0.1125E-02  0.1697E-03  0.1698E-03
     -0.497  0.1466E-01  0.1465E-01  0.5886E-02  0.5886E-02  0.5886E-02  0.5886E-02  0.5893E-02  0.5893E-02  0.1304E-02  0.1299E-02  0.1306E-02  0.1301E-02  0.1415E-03  0.1417E-03  0.1304E-02  0.1299E-02  0.1613E-03  0.1616E-03
     -0.432  0.1646E-01  0.1639E-01  0.6030E-02  0.6015E-02  0.6030E-02  0.6015E-02  0.6035E-02  0.6021E-02  0.1726E-02  0.1715E-02  0.1729E-02  0.1718E-02  0.1438E-03  0.1436E-03  0.1726E-02  0.1715E-02  0.1535E-03  0.1535E-03