   4   4   1   0
  0.2037050E+02  0.4334638E-09  0.4335652E-09  0.4335652E-09  0.5000000E-15
  1.000000000000000E-004
  CAR 
 unknown system                          
      9.49585293     -4.65264982  301      5.20808306      1.00000000
     -4.653  0.0000E+00  0.0000E+00  0.0000E+00  0.0000E+00
     -4.605  0.0000E+00  0.0000E+00  0.0000E+00  0.0000E+00
     -4.558  0.0000E+00  0.0000E+00  0.0000E+00  0.0000E+00
     -4.511  0.0000E+00  0.0000E+00  0.0000E+00  0.0000E+00
     -4.464  0.0000E+00  0.0000E+00  0.0000E+00  0.0000E+00
     -4.417  0.2797E-05  0.2775E-05  0.1319E-06  0.1309E-06
     -4.370  0.2131E-04  0.2114E-04  0.1137E-05  0.1128E-05
     -4.323  0.7195E-04  0.7140E-04  0.4530E-05  0.4495E-05
     -4.275  0.1734E-03  0.1721E-03  0.1271E-04  0.1261E-04
     -4.228  0.4380E-03  0.4347E-03  0.3337E-04  0.3311E-04
     -4.181  0.1167E-02  0.1159E-02  0.8842E-04  0.8775E-04
     -4.134  0.2927E-02  0.2906E-02  0.2265E-03  0.2248E-03
     -4.087  0.7021E-02  0.6972E-02  0.5576E-03  0.5536E-03
     -4.040  0.1588E-01  0.1578E-01  0.1307E-02  0.1298E-02
     -3.992  0.3178E-01  0.3163E-01  0.2805E-02  0.2789E-02
     -3.945  0.5360E-01  0.5341E-01  0.5333E-02  0.5308E-02
     -3.898  0.7604E-01  0.7587E-01  0.8919E-02  0.8887E-02
     -3.851  0.9642E-01  0.9626E-01  0.1347E-01  0.1343E-01
     -3.804  0.1188E+00  0.1186E+00  0.1907E-01  0.1902E-01
     -3.757  0.1400E+00  0.1399E+00  0.2567E-01  0.2562E-01
     -3.709  0.1485E+00  0.1485E+00  0.3268E-01  0.3262E-01
     -3.662  0.1511E+00  0.1510E+00  0.3980E-01  0.3975E-01
     -3.615  0.1678E+00  0.1676E+00  0.4771E-01  0.4765E-01
     -3.568  0.1937E+00  0.1936E+00  0.5685E-01  0.5678E-01
     -3.521  0.2085E+00  0.2085E+00  0.6668E-01  0.6661E-01
     -3.474  0.2103E+00  0.2103E+00  0.7660E-01  0.7653E-01
     -3.426  0.2148E+00  0.2147E+00  0.8674E-01  0.8666E-01
     -3.379  0.2263E+00  0.2263E+00  0.9741E-01  0.9733E-01
     -3.332  0.2280E+00  0.2280E+00  0.1082E+00  0.1081E+00
     -3.285  0.2261E+00  0.2261E+00  0.1188E+00  0.1188E+00
     -3.238  0.2495E+00  0.2493E+00  0.1306E+00  0.1305E+00
     -3.191  0.2843E+00  0.2841E+00  0.1440E+00  0.1439E+00
     -3.143  0.3002E+00  0.3002E+00  0.1582E+00  0.1581E+00
     -3.096  0.3010E+00  0.3011E+00  0.1724E+00  0.1723E+00
     -3.049  0.2959E+00  0.2960E+00  0.1864E+00  0.1863E+00
     -3.002  0.2783E+00  0.2784E+00  0.1995E+00  0.1994E+00
     -2.955  0.2616E+00  0.2616E+00  0.2118E+00  0.2118E+00
     -2.908  0.2809E+00  0.2808E+00  0.2251E+00  0.2250E+00
     -2.861  0.3349E+00  0.3347E+00  0.2409E+00  0.2408E+00
     -2.813  0.3779E+00  0.3778E+00  0.2587E+00  0.2586E+00
     -2.766  0.3816E+00  0.3817E+00  0.2767E+00  0.2766E+00
     -2.719  0.3765E+00  0.3766E+00  0.2945E+00  0.2944E+00
     -2.672  0.3754E+00  0.3755E+00  0.3122E+00  0.3121E+00
     -2.625  0.3488E+00  0.3491E+00  0.3287E+00  0.3286E+00
     -2.578  0.3285E+00  0.3285E+00  0.3442E+00  0.3441E+00
     -2.530  0.3665E+00  0.3663E+00  0.3615E+00  0.3614E+00
     -2.483  0.4400E+00  0.4398E+00  0.3822E+00  0.3821E+00
     -2.436  0.4868E+00  0.4869E+00  0.4052E+00  0.4051E+00
     -2.389  0.4805E+00  0.4808E+00  0.4279E+00  0.4278E+00
     -2.342  0.4545E+00  0.4547E+00  0.4493E+00  0.4492E+00
     -2.295  0.4411E+00  0.4412E+00  0.4701E+00  0.4700E+00
     -2.247  0.4313E+00  0.4313E+00  0.4905E+00  0.4904E+00
     -2.200  0.4376E+00  0.4374E+00  0.5111E+00  0.5110E+00
     -2.153  0.4762E+00  0.4760E+00  0.5336E+00  0.5335E+00
     -2.106  0.5038E+00  0.5039E+00  0.5573E+00  0.5573E+00
     -2.059  0.4845E+00  0.4847E+00  0.5802E+00  0.5801E+00
     -2.012  0.4278E+00  0.4280E+00  0.6004E+00  0.6003E+00
     -1.964  0.3638E+00  0.3640E+00  0.6176E+00  0.6175E+00
     -1.917  0.3278E+00  0.3278E+00  0.6330E+00  0.6330E+00
     -1.870  0.3377E+00  0.3376E+00  0.6490E+00  0.6489E+00
     -1.823  0.3955E+00  0.3952E+00  0.6676E+00  0.6676E+00
     -1.776  0.4492E+00  0.4492E+00  0.6888E+00  0.6888E+00
     -1.729  0.4336E+00  0.4338E+00  0.7093E+00  0.7092E+00
     -1.681  0.3759E+00  0.3760E+00  0.7270E+00  0.7270E+00
     -1.634  0.3261E+00  0.3261E+00  0.7424E+00  0.7424E+00
     -1.587  0.2919E+00  0.2916E+00  0.7562E+00  0.7561E+00
     -1.540  0.3061E+00  0.3054E+00  0.7706E+00  0.7705E+00
     -1.493  0.3955E+00  0.3946E+00  0.7893E+00  0.7892E+00
     -1.446  0.5054E+00  0.5048E+00  0.8131E+00  0.8130E+00
     -1.398  0.5407E+00  0.5406E+00  0.8387E+00  0.8385E+00
     -1.351  0.4960E+00  0.4959E+00  0.8621E+00  0.8619E+00
     -1.304  0.4465E+00  0.4465E+00  0.8831E+00  0.8830E+00
     -1.257  0.4045E+00  0.4048E+00  0.9022E+00  0.9020E+00
     -1.210  0.3788E+00  0.3789E+00  0.9201E+00  0.9199E+00
     -1.163  0.4152E+00  0.4147E+00  0.9397E+00  0.9395E+00
     -1.116  0.4855E+00  0.4849E+00  0.9626E+00  0.9624E+00
     -1.068  0.5113E+00  0.5113E+00  0.9867E+00  0.9865E+00
     -1.021  0.4678E+00  0.4681E+00  0.1009E+01  0.1009E+01
     -0.974  0.4245E+00  0.4244E+00  0.1029E+01  0.1029E+01
     -0.927  0.4323E+00  0.4319E+00  0.1049E+01  0.1049E+01
     -0.880  0.4697E+00  0.4693E+00  0.1071E+01  0.1071E+01
     -0.833  0.5356E+00  0.5349E+00  0.1097E+01  0.1096E+01
     -0.785  0.6122E+00  0.6116E+00  0.1126E+01  0.1125E+01
     -0.738  0.6242E+00  0.6244E+00  0.1155E+01  0.1155E+01
     -0.691  0.5554E+00  0.5562E+00  0.1181E+01  0.1181E+01
     -0.644  0.4720E+00  0.4727E+00  0.1203E+01  0.1203E+01
     -0.597  0.4312E+00  0.4313E+00  0.1224E+01  0.1224E+01
     -0.550  0.4522E+00  0.4519E+00  0.1245E+01  0.1245E+01
     -0.502  0.5257E+00  0.5251E+00  0.1270E+01  0.1270E+01
     -0.455  0.6029E+00  0.6026E+00  0.1298E+01  0.1298E+01
     -0.408  0.6121E+00  0.6125E+00  0.1327E+01  0.1327E+01
     -0.361  0.5585E+00  0.5591E+00  0.1354E+01  0.1353E+01
     -0.314  0.5324E+00  0.5324E+00  0.1379E+01  0.1379E+01
     -0.267  0.5787E+00  0.5782E+00  0.1406E+01  0.1406E+01
     -0.219  0.6781E+00  0.6774E+00  0.1438E+01  0.1438E+01
     -0.172  0.7751E+00  0.7747E+00  0.1475E+01  0.1474E+01
     -0.125  0.8107E+00  0.8109E+00  0.1513E+01  0.1513E+01
     -0.078  0.7890E+00  0.7894E+00  0.1550E+01  0.1550E+01
     -0.031  0.7556E+00  0.7558E+00  0.1586E+01  0.1585E+01
      0.016  0.7362E+00  0.7360E+00  0.1620E+01  0.1620E+01
      0.064  0.7388E+00  0.7384E+00  0.1655E+01  0.1655E+01
      0.111  0.7305E+00  0.7303E+00  0.1690E+01  0.1690E+01
      0.158  0.6928E+00  0.6928E+00  0.1722E+01  0.1722E+01
      0.205  0.6668E+00  0.6668E+00  0.1754E+01  0.1754E+01
      0.252  0.6927E+00  0.6924E+00  0.1787E+01  0.1786E+01
      0.299  0.7351E+00  0.7349E+00  0.1821E+01  0.1821E+01
      0.346  0.7335E+00  0.7337E+00  0.1856E+01  0.1856E+01
      0.394  0.6980E+00  0.6981E+00  0.1889E+01  0.1889E+01
      0.441  0.6641E+00  0.6638E+00  0.1920E+01  0.1920E+01
      0.488  0.6441E+00  0.6435E+00  0.1951E+01  0.1950E+01
      0.535  0.6478E+00  0.6469E+00  0.1981E+01  0.1981E+01
      0.582  0.6911E+00  0.6901E+00  0.2014E+01  0.2013E+01
      0.629  0.7472E+00  0.7464E+00  0.2049E+01  0.2049E+01
      0.677  0.7945E+00  0.7940E+00  0.2087E+01  0.2086E+01
      0.724  0.8376E+00  0.8372E+00  0.2126E+01  0.2126E+01
      0.771  0.8448E+00  0.8451E+00  0.2166E+01  0.2165E+01
      0.818  0.7778E+00  0.7790E+00  0.2203E+01  0.2202E+01
      0.865  0.6537E+00  0.6553E+00  0.2234E+01  0.2233E+01
      0.912  0.5389E+00  0.5399E+00  0.2259E+01  0.2259E+01
      0.960  0.5060E+00  0.5056E+00  0.2283E+01  0.2282E+01
      1.007  0.5387E+00  0.5379E+00  0.2308E+01  0.2308E+01
      1.054  0.5586E+00  0.5579E+00  0.2335E+01  0.2334E+01
      1.101  0.5704E+00  0.5693E+00  0.2362E+01  0.2361E+01
      1.148  0.6076E+00  0.6062E+00  0.2390E+01  0.2390E+01
      1.195  0.6501E+00  0.6491E+00  0.2421E+01  0.2420E+01
      1.243  0.6450E+00  0.6454E+00  0.2451E+01  0.2451E+01
      1.290  0.5850E+00  0.5865E+00  0.2479E+01  0.2478E+01
      1.337  0.5251E+00  0.5263E+00  0.2504E+01  0.2503E+01
      1.384  0.5091E+00  0.5092E+00  0.2528E+01  0.2527E+01
      1.431  0.5254E+00  0.5249E+00  0.2553E+01  0.2552E+01
      1.478  0.5376E+00  0.5374E+00  0.2578E+01  0.2577E+01
      1.526  0.5263E+00  0.5261E+00  0.2603E+01  0.2602E+01
      1.573  0.5195E+00  0.5181E+00  0.2627E+01  0.2627E+01
      1.620  0.5773E+00  0.5740E+00  0.2654E+01  0.2654E+01
      1.667  0.7111E+00  0.7072E+00  0.2688E+01  0.2687E+01
      1.714  0.8441E+00  0.8419E+00  0.2728E+01  0.2727E+01
      1.761  0.8846E+00  0.8851E+00  0.2770E+01  0.2769E+01
      1.808  0.8273E+00  0.8290E+00  0.2809E+01  0.2808E+01
      1.856  0.7538E+00  0.7554E+00  0.2844E+01  0.2843E+01
      1.903  0.7129E+00  0.7135E+00  0.2878E+01  0.2877E+01
      1.950  0.6988E+00  0.6985E+00  0.2911E+01  0.2910E+01
      1.997  0.6745E+00  0.6747E+00  0.2943E+01  0.2942E+01
      2.044  0.6269E+00  0.6275E+00  0.2972E+01  0.2971E+01
      2.091  0.6189E+00  0.6180E+00  0.3001E+01  0.3001E+01
      2.139  0.6928E+00  0.6896E+00  0.3034E+01  0.3033E+01
      2.186  0.8291E+00  0.8245E+00  0.3073E+01  0.3072E+01
      2.233  0.9783E+00  0.9738E+00  0.3119E+01  0.3118E+01
      2.280  0.1083E+01  0.1081E+01  0.3170E+01  0.3169E+01
      2.327  0.1099E+01  0.1100E+01  0.3222E+01  0.3221E+01
      2.374  0.1028E+01  0.1031E+01  0.3271E+01  0.3270E+01
      2.422  0.9440E+00  0.9449E+00  0.3315E+01  0.3314E+01
      2.469  0.9277E+00  0.9268E+00  0.3359E+01  0.3358E+01
      2.516  0.9510E+00  0.9505E+00  0.3404E+01  0.3403E+01
      2.563  0.9597E+00  0.9596E+00  0.3449E+01  0.3448E+01
      2.610  0.9762E+00  0.9750E+00  0.3495E+01  0.3494E+01
      2.657  0.9865E+00  0.9856E+00  0.3542E+01  0.3540E+01
      2.705  0.9526E+00  0.9524E+00  0.3587E+01  0.3585E+01
      2.752  0.9067E+00  0.9063E+00  0.3630E+01  0.3628E+01
      2.799  0.9176E+00  0.9145E+00  0.3673E+01  0.3671E+01
      2.846  0.1026E+01  0.1020E+01  0.3721E+01  0.3719E+01
      2.893  0.1188E+01  0.1181E+01  0.3777E+01  0.3775E+01
      2.940  0.1305E+01  0.1302E+01  0.3839E+01  0.3837E+01
      2.988  0.1295E+01  0.1297E+01  0.3900E+01  0.3898E+01
      3.035  0.1182E+01  0.1185E+01  0.3956E+01  0.3954E+01
      3.082  0.1099E+01  0.1098E+01  0.4008E+01  0.4006E+01
      3.129  0.1145E+01  0.1137E+01  0.4062E+01  0.4059E+01
      3.176  0.1284E+01  0.1275E+01  0.4122E+01  0.4119E+01
      3.223  0.1357E+01  0.1355E+01  0.4186E+01  0.4183E+01
      3.271  0.1299E+01  0.1300E+01  0.4248E+01  0.4245E+01
      3.318  0.1236E+01  0.1234E+01  0.4306E+01  0.4303E+01
      3.365  0.1289E+01  0.1281E+01  0.4367E+01  0.4363E+01
      3.412  0.1433E+01  0.1423E+01  0.4434E+01  0.4430E+01
      3.459  0.1587E+01  0.1576E+01  0.4509E+01  0.4505E+01
      3.506  0.1732E+01  0.1717E+01  0.4591E+01  0.4586E+01
      3.553  0.1878E+01  0.1864E+01  0.4680E+01  0.4674E+01
      3.601  0.1947E+01  0.1943E+01  0.4771E+01  0.4765E+01
      3.648  0.1823E+01  0.1833E+01  0.4857E+01  0.4852E+01
      3.695  0.1588E+01  0.1599E+01  0.4932E+01  0.4927E+01
      3.742  0.1392E+01  0.1400E+01  0.4998E+01  0.4993E+01
      3.789  0.1246E+01  0.1251E+01  0.5057E+01  0.5052E+01
      3.836  0.1183E+01  0.1179E+01  0.5113E+01  0.5108E+01
      3.884  0.1228E+01  0.1219E+01  0.5171E+01  0.5166E+01
      3.931  0.1261E+01  0.1260E+01  0.5230E+01  0.5225E+01
      3.978  0.1201E+01  0.1208E+01  0.5287E+01  0.5282E+01
      4.025  0.1099E+01  0.1106E+01  0.5339E+01  0.5334E+01
      4.072  0.1024E+01  0.1026E+01  0.5387E+01  0.5383E+01
      4.119  0.9918E+00  0.9906E+00  0.5434E+01  0.5430E+01
      4.167  0.9746E+00  0.9731E+00  0.5480E+01  0.5476E+01
      4.214  0.9435E+00  0.9420E+00  0.5524E+01  0.5520E+01
      4.261  0.9156E+00  0.9127E+00  0.5568E+01  0.5563E+01
      4.308  0.9087E+00  0.9056E+00  0.5611E+01  0.5606E+01
      4.355  0.9254E+00  0.9223E+00  0.5654E+01  0.5649E+01
      4.402  0.9549E+00  0.9525E+00  0.5699E+01  0.5694E+01
      4.450  0.9588E+00  0.9596E+00  0.5745E+01  0.5740E+01
      4.497  0.9161E+00  0.9202E+00  0.5788E+01  0.5783E+01
      4.544  0.8546E+00  0.8583E+00  0.5828E+01  0.5823E+01
      4.591  0.8458E+00  0.8432E+00  0.5868E+01  0.5863E+01
      4.638  0.9011E+00  0.8941E+00  0.5911E+01  0.5905E+01
      4.685  0.9651E+00  0.9596E+00  0.5956E+01  0.5951E+01
      4.733  0.1001E+01  0.1000E+01  0.6003E+01  0.5998E+01
      4.780  0.9885E+00  0.9962E+00  0.6050E+01  0.6045E+01
      4.827  0.9002E+00  0.9128E+00  0.6092E+01  0.6088E+01
      4.874  0.8044E+00  0.8083E+00  0.6130E+01  0.6126E+01
      4.921  0.8099E+00  0.8001E+00  0.6169E+01  0.6164E+01
      4.968  0.8811E+00  0.8710E+00  0.6210E+01  0.6205E+01
      5.015  0.9458E+00  0.9391E+00  0.6255E+01  0.6249E+01
      5.063  0.1045E+01  0.1030E+01  0.6304E+01  0.6298E+01
      5.110  0.1215E+01  0.1191E+01  0.6361E+01  0.6354E+01
      5.157  0.1393E+01  0.1369E+01  0.6427E+01  0.6419E+01
      5.204  0.1512E+01  0.1496E+01  0.6498E+01  0.6489E+01
      5.251  0.1581E+01  0.1571E+01  0.6573E+01  0.6563E+01
      5.298  0.1680E+01  0.1665E+01  0.6652E+01  0.6642E+01
      5.346  0.1818E+01  0.1803E+01  0.6738E+01  0.6727E+01
      5.393  0.1914E+01  0.1906E+01  0.6828E+01  0.6817E+01
      5.440  0.1955E+01  0.1948E+01  0.6921E+01  0.6909E+01
      5.487  0.1987E+01  0.1979E+01  0.7014E+01  0.7002E+01
      5.534  0.2028E+01  0.2023E+01  0.7110E+01  0.7098E+01
      5.581  0.2095E+01  0.2086E+01  0.7209E+01  0.7196E+01
      5.629  0.2251E+01  0.2224E+01  0.7315E+01  0.7301E+01
      5.676  0.2558E+01  0.2504E+01  0.7436E+01  0.7419E+01
      5.723  0.3009E+01  0.2935E+01  0.7578E+01  0.7558E+01
      5.770  0.3530E+01  0.3451E+01  0.7744E+01  0.7720E+01
      5.817  0.3986E+01  0.3923E+01  0.7932E+01  0.7905E+01
      5.864  0.4231E+01  0.4202E+01  0.8132E+01  0.8104E+01
      5.912  0.4201E+01  0.4219E+01  0.8330E+01  0.8303E+01
      5.959  0.3889E+01  0.3950E+01  0.8513E+01  0.8489E+01
      6.006  0.3367E+01  0.3451E+01  0.8672E+01  0.8652E+01
      6.053  0.2814E+01  0.2893E+01  0.8805E+01  0.8788E+01
      6.100  0.2355E+01  0.2418E+01  0.8916E+01  0.8902E+01
      6.147  0.1995E+01  0.2042E+01  0.9010E+01  0.8999E+01
      6.195  0.1734E+01  0.1764E+01  0.9092E+01  0.9082E+01
      6.242  0.1552E+01  0.1574E+01  0.9166E+01  0.9157E+01
      6.289  0.1419E+01  0.1436E+01  0.9233E+01  0.9224E+01
      6.336  0.1392E+01  0.1390E+01  0.9298E+01  0.9290E+01
      6.383  0.1516E+01  0.1496E+01  0.9370E+01  0.9361E+01
      6.430  0.1708E+01  0.1687E+01  0.9451E+01  0.9440E+01
      6.478  0.1796E+01  0.1794E+01  0.9535E+01  0.9525E+01
      6.525  0.1734E+01  0.1748E+01  0.9617E+01  0.9607E+01
      6.572  0.1674E+01  0.1679E+01  0.9696E+01  0.9687E+01
      6.619  0.1726E+01  0.1713E+01  0.9778E+01  0.9768E+01
      6.666  0.1882E+01  0.1858E+01  0.9867E+01  0.9855E+01
      6.713  0.2037E+01  0.2021E+01  0.9963E+01  0.9951E+01
      6.760  0.2083E+01  0.2082E+01  0.1006E+02  0.1005E+02
      6.808  0.2066E+01  0.2068E+01  0.1016E+02  0.1015E+02
      6.855  0.2048E+01  0.2055E+01  0.1026E+02  0.1024E+02
      6.902  0.1960E+01  0.1991E+01  0.1035E+02  0.1034E+02
      6.949  0.1767E+01  0.1819E+01  0.1043E+02  0.1042E+02
      6.996  0.1616E+01  0.1666E+01  0.1051E+02  0.1050E+02
      7.043  0.1584E+01  0.1619E+01  0.1058E+02  0.1058E+02
      7.091  0.1570E+01  0.1586E+01  0.1066E+02  0.1065E+02
      7.138  0.1476E+01  0.1474E+01  0.1073E+02  0.1072E+02
      7.185  0.1303E+01  0.1293E+01  0.1079E+02  0.1078E+02
      7.232  0.1148E+01  0.1139E+01  0.1084E+02  0.1084E+02
      7.279  0.1138E+01  0.1126E+01  0.1090E+02  0.1089E+02
      7.326  0.1261E+01  0.1252E+01  0.1095E+02  0.1095E+02
      7.374  0.1371E+01  0.1380E+01  0.1102E+02  0.1101E+02
      7.421  0.1388E+01  0.1411E+01  0.1108E+02  0.1108E+02
      7.468  0.1355E+01  0.1376E+01  0.1115E+02  0.1115E+02
      7.515  0.1319E+01  0.1324E+01  0.1121E+02  0.1121E+02
      7.562  0.1247E+01  0.1239E+01  0.1127E+02  0.1127E+02
      7.609  0.1138E+01  0.1130E+01  0.1132E+02  0.1132E+02
      7.657  0.1069E+01  0.1060E+01  0.1137E+02  0.1137E+02
      7.704  0.1120E+01  0.1104E+01  0.1143E+02  0.1142E+02
      7.751  0.1247E+01  0.1229E+01  0.1149E+02  0.1148E+02
      7.798  0.1299E+01  0.1291E+01  0.1155E+02  0.1154E+02
      7.845  0.1224E+01  0.1231E+01  0.1160E+02  0.1160E+02
      7.892  0.1082E+01  0.1093E+01  0.1166E+02  0.1165E+02
      7.940  0.9394E+00  0.9483E+00  0.1170E+02  0.1170E+02
      7.987  0.8540E+00  0.8642E+00  0.1174E+02  0.1174E+02
      8.034  0.8209E+00  0.8368E+00  0.1178E+02  0.1178E+02
      8.081  0.7754E+00  0.8001E+00  0.1182E+02  0.1181E+02
      8.128  0.6832E+00  0.7179E+00  0.1185E+02  0.1185E+02
      8.175  0.5786E+00  0.6146E+00  0.1188E+02  0.1188E+02
      8.222  0.4833E+00  0.5010E+00  0.1190E+02  0.1190E+02
      8.270  0.3951E+00  0.3882E+00  0.1192E+02  0.1192E+02
      8.317  0.3215E+00  0.3070E+00  0.1193E+02  0.1193E+02
      8.364  0.2818E+00  0.2708E+00  0.1195E+02  0.1195E+02
      8.411  0.2763E+00  0.2646E+00  0.1196E+02  0.1196E+02
      8.458  0.2711E+00  0.2586E+00  0.1197E+02  0.1197E+02
      8.505  0.2316E+00  0.2224E+00  0.1198E+02  0.1198E+02
      8.553  0.1559E+00  0.1511E+00  0.1199E+02  0.1199E+02
      8.600  0.8311E-01  0.8106E-01  0.1199E+02  0.1199E+02
      8.647  0.3823E-01  0.3763E-01  0.1200E+02  0.1199E+02
      8.694  0.1762E-01  0.1787E-01  0.1200E+02  0.1200E+02
      8.741  0.1138E-01  0.1247E-01  0.1200E+02  0.1200E+02
      8.788  0.1280E-01  0.1521E-01  0.1200E+02  0.1200E+02
      8.836  0.1721E-01  0.2114E-01  0.1200E+02  0.1200E+02
      8.883  0.1753E-01  0.2192E-01  0.1200E+02  0.1200E+02
      8.930  0.1242E-01  0.1571E-01  0.1200E+02  0.1200E+02
      8.977  0.6579E-02  0.8378E-02  0.1200E+02  0.1200E+02
      9.024  0.2937E-02  0.3754E-02  0.1200E+02  0.1200E+02
      9.071  0.1210E-02  0.1549E-02  0.1200E+02  0.1200E+02
      9.119  0.4818E-03  0.6172E-03  0.1200E+02  0.1200E+02
      9.166  0.1893E-03  0.2425E-03  0.1200E+02  0.1200E+02
      9.213  0.7395E-04  0.9477E-04  0.1200E+02  0.1200E+02
      9.260  0.0000E+00  0.0000E+00  0.1200E+02  0.1200E+02
      9.307  0.0000E+00  0.0000E+00  0.1200E+02  0.1200E+02
      9.354  0.0000E+00  0.0000E+00  0.1200E+02  0.1200E+02
      9.402  0.0000E+00  0.0000E+00  0.1200E+02  0.1200E+02
      9.449  0.0000E+00  0.0000E+00  0.1200E+02  0.1200E+02
      9.496  0.0000E+00  0.0000E+00  0.1200E+02  0.1200E+02
      9.49585293     -4.65264982  301      5.20808306      1.00000000
     -4.653  0.0000E+00  0.0000E+00  0.0000E+00  0.0000E+00  0.0000E+00  0.0000E+00  0.0000E+00  0.0000E+00  0.0000E+00  0.0000E+00  0.0000E+00  0.0000E+00  0.0000E+00  0.0000E+00  0.0000E+00  0.0000E+00  0.0000E+00  0.0000E+00
     -4.605  0.0000E+00  0.0000E+00  0.0000E+00  0.0000E+00  0.0000E+00  0.0000E+00  0.0000E+00  0.0000E+00  0.0000E+00  0.0000E+00  0.0000E+00  0.0000E+00  0.0000E+00  0.0000E+00  0.0000E+00  0.0000E+00  0.0000E+00  0.0000E+00
     -4.558  0.0000E+00  0.0000E+00  0.0000E+00  0.0000E+00  0.0000E+00  0.0000E+00  0.0000E+00  0.0000E+00  0.0000E+00  0.0000E+00  0.0000E+00  0.0000E+00  0.0000E+00  0.0000E+00  0.0000E+00  0.0000E+00  0.0000E+00  0.0000E+00
     -4.511  0.0000E+00  0.0000E+00  0.0000E+00  0.0000E+00  0.0000E+00  0.0000E+00  0.0000E+00  0.0000E+00  0.0000E+00  0.0000E+00  0.0000E+00  0.0000E+00  0.0000E+00  0.0000E+00  0.0000E+00  0.0000E+00  0.0000E+00  0.0000E+00
     -4.464  0.0000E+00  0.0000E+00  0.0000E+00  0.0000E+00  0.0000E+00  0.0000E+00  0.0000E+00  0.0000E+00  0.0000E+00  0.0000E+00  0.0000E+00  0.0000E+00  0.0000E+00  0.0000E+00  0.0000E+00  0.0000E+00  0.0000E+00  0.0000E+00
     -4.417  0.2358E-06  0.2338E-06  0.4204E-21  0.1570E-22  0.4204E-21  0.1570E-22  0.3964E-22  0.6581E-24  0.3894E-22  0.6010E-22  0.2302E-22  0.1825E-22  0.9788E-16  0.8300E-16  0.3894E-22  0.6010E-22  0.1262E-15  0.1068E-15
     -4.370  0.1777E-05  0.1762E-05  0.3968E-08  0.3935E-08  0.3968E-08  0.3935E-08  0.3966E-08  0.3934E-08  0.9191E-21  0.5357E-21  0.9583E-21  0.2404E-21  0.1290E-10  0.1278E-10  0.9191E-21  0.5357E-21  0.1653E-10  0.1637E-10
     -4.323  0.5960E-05  0.5909E-05  0.2213E-07  0.2195E-07  0.2213E-07  0.2195E-07  0.2213E-07  0.2195E-07  0.1441E-09  0.1428E-09  0.1441E-09  0.1428E-09  0.5344E-10  0.5294E-10  0.1441E-09  0.1428E-09  0.5166E-10  0.5118E-10
     -4.275  0.1435E-04  0.1422E-04  0.5687E-07  0.5641E-07  0.5687E-07  0.5641E-07  0.5687E-07  0.5641E-07  0.5179E-09  0.5132E-09  0.5178E-09  0.5131E-09  0.1039E-09  0.1029E-09  0.5179E-09  0.5132E-09  0.1068E-09  0.1058E-09
     -4.228  0.3623E-04  0.3592E-04  0.1463E-06  0.1451E-06  0.1463E-06  0.1451E-06  0.1463E-06  0.1451E-06  0.1037E-08  0.1027E-08  0.1037E-08  0.1027E-08  0.4761E-09  0.4716E-09  0.1037E-08  0.1027E-08  0.5431E-09  0.5381E-09
     -4.181  0.9630E-04  0.9548E-04  0.4401E-06  0.4366E-06  0.4401E-06  0.4366E-06  0.4399E-06  0.4364E-06  0.3883E-08  0.3848E-08  0.3884E-08  0.3848E-08  0.1733E-08  0.1717E-08  0.3883E-08  0.3848E-08  0.1965E-08  0.1947E-08
     -4.134  0.2413E-03  0.2393E-03  0.1135E-05  0.1126E-05  0.1135E-05  0.1126E-05  0.1134E-05  0.1125E-05  0.1150E-07  0.1139E-07  0.1150E-07  0.1139E-07  0.4172E-08  0.4133E-08  0.1150E-07  0.1139E-07  0.4779E-08  0.4735E-08
     -4.087  0.5787E-03  0.5742E-03  0.2736E-05  0.2715E-05  0.2736E-05  0.2715E-05  0.2735E-05  0.2714E-05  0.2636E-07  0.2612E-07  0.2636E-07  0.2612E-07  0.1002E-07  0.9925E-08  0.2636E-07  0.2612E-07  0.1141E-07  0.1131E-07
     -4.040  0.1307E-02  0.1297E-02  0.6656E-05  0.6592E-05  0.6656E-05  0.6592E-05  0.6638E-05  0.6590E-05  0.6815E-07  0.6755E-07  0.6816E-07  0.6756E-07  0.2533E-07  0.2482E-07  0.6815E-07  0.6755E-07  0.2870E-07  0.2808E-07
     -3.992  0.2607E-02  0.2592E-02  0.1498E-04  0.1490E-04  0.1498E-04  0.1490E-04  0.1499E-04  0.1489E-04  0.1692E-06  0.1678E-06  0.1692E-06  0.1678E-06  0.6079E-07  0.6058E-07  0.1692E-06  0.1678E-06  0.6920E-07  0.6901E-07
     -3.945  0.4375E-02  0.4356E-02  0.2961E-04  0.2946E-04  0.2961E-04  0.2946E-04  0.2960E-04  0.2944E-04  0.3683E-06  0.3655E-06  0.3683E-06  0.3656E-06  0.1321E-06  0.1310E-06  0.3683E-06  0.3655E-06  0.1519E-06  0.1507E-06
     -3.898  0.6159E-02  0.6140E-02  0.5174E-04  0.5151E-04  0.5174E-04  0.5151E-04  0.5172E-04  0.5149E-04  0.7348E-06  0.7300E-06  0.7349E-06  0.7300E-06  0.2719E-06  0.2699E-06  0.7348E-06  0.7300E-06  0.3181E-06  0.3157E-06
     -3.851  0.7724E-02  0.7705E-02  0.8301E-04  0.8269E-04  0.8301E-04  0.8269E-04  0.8297E-04  0.8265E-04  0.1358E-05  0.1350E-05  0.1358E-05  0.1350E-05  0.5303E-06  0.5267E-06  0.1358E-05  0.1350E-05  0.6288E-06  0.6246E-06
     -3.804  0.9397E-02  0.9375E-02  0.1259E-03  0.1255E-03  0.1259E-03  0.1255E-03  0.1259E-03  0.1254E-03  0.2401E-05  0.2388E-05  0.2402E-05  0.2388E-05  0.9157E-06  0.9107E-06  0.2401E-05  0.2388E-05  0.1088E-05  0.1082E-05
     -3.757  0.1096E-01  0.1094E-01  0.1729E-03  0.1725E-03  0.1729E-03  0.1725E-03  0.1728E-03  0.1724E-03  0.3883E-05  0.3864E-05  0.3884E-05  0.3865E-05  0.1333E-05  0.1327E-05  0.3883E-05  0.3864E-05  0.1571E-05  0.1565E-05
     -3.709  0.1149E-01  0.1148E-01  0.2103E-03  0.2100E-03  0.2103E-03  0.2100E-03  0.2102E-03  0.2099E-03  0.5619E-05  0.5595E-05  0.5619E-05  0.5595E-05  0.1756E-05  0.1749E-05  0.5619E-05  0.5595E-05  0.2037E-05  0.2029E-05
     -3.662  0.1149E-01  0.1148E-01  0.2513E-03  0.2508E-03  0.2513E-03  0.2508E-03  0.2512E-03  0.2507E-03  0.7843E-05  0.7810E-05  0.7844E-05  0.7811E-05  0.2483E-05  0.2470E-05  0.7843E-05  0.7810E-05  0.2842E-05  0.2827E-05
     -3.615  0.1253E-01  0.1250E-01  0.3249E-03  0.3241E-03  0.3249E-03  0.3241E-03  0.3246E-03  0.3238E-03  0.1106E-04  0.1102E-04  0.1107E-04  0.1102E-04  0.3876E-05  0.3854E-05  0.1106E-04  0.1102E-04  0.4476E-05  0.4450E-05
     -3.568  0.1425E-01  0.1422E-01  0.4171E-03  0.4163E-03  0.4171E-03  0.4163E-03  0.4168E-03  0.4160E-03  0.1478E-04  0.1472E-04  0.1478E-04  0.1472E-04  0.5761E-05  0.5733E-05  0.1478E-04  0.1472E-04  0.6798E-05  0.6764E-05
     -3.521  0.1513E-01  0.1511E-01  0.4879E-03  0.4873E-03  0.4879E-03  0.4873E-03  0.4878E-03  0.4872E-03  0.1862E-04  0.1856E-04  0.1862E-04  0.1856E-04  0.7336E-05  0.7310E-05  0.1862E-04  0.1856E-04  0.8775E-05  0.8743E-05
     -3.474  0.1503E-01  0.1502E-01  0.5354E-03  0.5349E-03  0.5354E-03  0.5349E-03  0.5354E-03  0.5348E-03  0.2400E-04  0.2390E-04  0.2400E-04  0.2391E-04  0.8110E-05  0.8086E-05  0.2400E-04  0.2390E-04  0.9630E-05  0.9603E-05
     -3.426  0.1508E-01  0.1506E-01  0.5964E-03  0.5956E-03  0.5964E-03  0.5956E-03  0.5963E-03  0.5955E-03  0.3195E-04  0.3183E-04  0.3196E-04  0.3183E-04  0.8820E-05  0.8791E-05  0.3195E-04  0.3183E-04  0.1021E-04  0.1018E-04
     -3.379  0.1562E-01  0.1561E-01  0.6781E-03  0.6772E-03  0.6781E-03  0.6772E-03  0.6778E-03  0.6769E-03  0.4051E-04  0.4038E-04  0.4051E-04  0.4038E-04  0.1028E-04  0.1024E-04  0.4051E-04  0.4038E-04  0.1173E-04  0.1169E-04
     -3.332  0.1546E-01  0.1545E-01  0.7325E-03  0.7318E-03  0.7325E-03  0.7318E-03  0.7320E-03  0.7314E-03  0.4538E-04  0.4528E-04  0.4537E-04  0.4527E-04  0.1241E-04  0.1236E-04  0.4538E-04  0.4528E-04  0.1437E-04  0.1432E-04
     -3.285  0.1498E-01  0.1497E-01  0.7906E-03  0.7895E-03  0.7906E-03  0.7895E-03  0.7898E-03  0.7887E-03  0.4897E-04  0.4884E-04  0.4897E-04  0.4884E-04  0.1600E-04  0.1593E-04  0.4897E-04  0.4884E-04  0.1903E-04  0.1895E-04
     -3.238  0.1612E-01  0.1609E-01  0.9449E-03  0.9431E-03  0.9449E-03  0.9431E-03  0.9439E-03  0.9421E-03  0.6008E-04  0.5987E-04  0.6011E-04  0.5990E-04  0.2171E-04  0.2162E-04  0.6008E-04  0.5987E-04  0.2607E-04  0.2597E-04
     -3.191  0.1804E-01  0.1801E-01  0.1135E-02  0.1133E-02  0.1135E-02  0.1133E-02  0.1134E-02  0.1132E-02  0.7768E-04  0.7742E-04  0.7773E-04  0.7746E-04  0.2711E-04  0.2702E-04  0.7768E-04  0.7742E-04  0.3222E-04  0.3212E-04
     -3.143  0.1875E-01  0.1873E-01  0.1249E-02  0.1248E-02  0.1249E-02  0.1248E-02  0.1249E-02  0.1248E-02  0.9478E-04  0.9451E-04  0.9482E-04  0.9454E-04  0.2978E-04  0.2970E-04  0.9478E-04  0.9451E-04  0.3473E-04  0.3464E-04
     -3.096  0.1847E-01  0.1845E-01  0.1309E-02  0.1307E-02  0.1309E-02  0.1307E-02  0.1308E-02  0.1307E-02  0.1104E-03  0.1101E-03  0.1104E-03  0.1101E-03  0.3084E-04  0.3076E-04  0.1104E-03  0.1101E-03  0.3556E-04  0.3548E-04
     -3.049  0.1782E-01  0.1780E-01  0.1342E-02  0.1341E-02  0.1342E-02  0.1341E-02  0.1342E-02  0.1341E-02  0.1246E-03  0.1243E-03  0.1245E-03  0.1242E-03  0.3095E-04  0.3088E-04  0.1246E-03  0.1243E-03  0.3575E-04  0.3568E-04
     -3.002  0.1642E-01  0.1641E-01  0.1317E-02  0.1316E-02  0.1317E-02  0.1316E-02  0.1317E-02  0.1316E-02  0.1341E-03  0.1338E-03  0.1340E-03  0.1337E-03  0.2940E-04  0.2934E-04  0.1341E-03  0.1338E-03  0.3411E-04  0.3405E-04
     -2.955  0.1497E-01  0.1496E-01  0.1312E-02  0.1311E-02  0.1312E-02  0.1311E-02  0.1311E-02  0.1310E-02  0.1424E-03  0.1421E-03  0.1424E-03  0.1421E-03  0.3015E-04  0.3007E-04  0.1424E-03  0.1421E-03  0.3515E-04  0.3505E-04
     -2.908  0.1544E-01  0.1541E-01  0.1511E-02  0.1509E-02  0.1511E-02  0.1509E-02  0.1508E-02  0.1506E-02  0.1650E-03  0.1645E-03  0.1652E-03  0.1647E-03  0.3904E-04  0.3888E-04  0.1650E-03  0.1645E-03  0.4568E-04  0.4549E-04
     -2.861  0.1777E-01  0.1774E-01  0.1902E-02  0.1898E-02  0.1902E-02  0.1898E-02  0.1898E-02  0.1895E-02  0.2039E-03  0.2033E-03  0.2041E-03  0.2035E-03  0.5443E-04  0.5422E-04  0.2039E-03  0.2033E-03  0.6380E-04  0.6356E-04
     -2.813  0.1954E-01  0.1951E-01  0.2225E-02  0.2222E-02  0.2225E-02  0.2222E-02  0.2223E-02  0.2220E-02  0.2399E-03  0.2393E-03  0.2400E-03  0.2393E-03  0.6663E-04  0.6644E-04  0.2399E-03  0.2393E-03  0.7845E-04  0.7822E-04
     -2.766  0.1925E-01  0.1923E-01  0.2317E-02  0.2315E-02  0.2317E-02  0.2315E-02  0.2316E-02  0.2315E-02  0.2630E-03  0.2624E-03  0.2630E-03  0.2624E-03  0.6939E-04  0.6923E-04  0.2630E-03  0.2624E-03  0.8228E-04  0.8209E-04
     -2.719  0.1846E-01  0.1844E-01  0.2362E-02  0.2360E-02  0.2362E-02  0.2360E-02  0.2361E-02  0.2359E-02  0.2925E-03  0.2917E-03  0.2925E-03  0.2918E-03  0.6901E-04  0.6885E-04  0.2925E-03  0.2917E-03  0.8218E-04  0.8198E-04
     -2.672  0.1789E-01  0.1787E-01  0.2427E-02  0.2425E-02  0.2427E-02  0.2425E-02  0.2427E-02  0.2425E-02  0.3234E-03  0.3227E-03  0.3235E-03  0.3228E-03  0.6968E-04  0.6952E-04  0.3234E-03  0.3227E-03  0.8278E-04  0.8260E-04
     -2.625  0.1609E-01  0.1608E-01  0.2327E-02  0.2326E-02  0.2327E-02  0.2326E-02  0.2327E-02  0.2327E-02  0.3305E-03  0.3299E-03  0.3306E-03  0.3299E-03  0.6607E-04  0.6595E-04  0.3305E-03  0.3299E-03  0.7754E-04  0.7741E-04
     -2.578  0.1441E-01  0.1439E-01  0.2289E-02  0.2288E-02  0.2289E-02  0.2288E-02  0.2287E-02  0.2285E-02  0.3547E-03  0.3538E-03  0.3551E-03  0.3541E-03  0.6225E-04  0.6211E-04  0.3547E-03  0.3538E-03  0.7120E-04  0.7105E-04
     -2.530  0.1505E-01  0.1502E-01  0.2691E-02  0.2687E-02  0.2691E-02  0.2687E-02  0.2683E-02  0.2679E-02  0.4422E-03  0.4408E-03  0.4427E-03  0.4413E-03  0.6802E-04  0.6782E-04  0.4422E-03  0.4408E-03  0.7623E-04  0.7601E-04
     -2.483  0.1685E-01  0.1682E-01  0.3393E-02  0.3389E-02  0.3393E-02  0.3389E-02  0.3383E-02  0.3379E-02  0.5539E-03  0.5523E-03  0.5542E-03  0.5526E-03  0.8027E-04  0.8004E-04  0.5539E-03  0.5523E-03  0.9016E-04  0.8990E-04
     -2.436  0.1729E-01  0.1726E-01  0.3934E-02  0.3931E-02  0.3934E-02  0.3931E-02  0.3926E-02  0.3923E-02  0.6195E-03  0.6182E-03  0.6195E-03  0.6181E-03  0.8803E-04  0.8781E-04  0.6195E-03  0.6182E-03  0.1001E-03  0.9981E-04
     -2.389  0.1573E-01  0.1571E-01  0.4053E-02  0.4051E-02  0.4053E-02  0.4051E-02  0.4050E-02  0.4048E-02  0.6295E-03  0.6284E-03  0.6294E-03  0.6283E-03  0.8581E-04  0.8561E-04  0.6295E-03  0.6284E-03  0.9864E-04  0.9840E-04
     -2.342  0.1366E-01  0.1365E-01  0.3978E-02  0.3975E-02  0.3978E-02  0.3975E-02  0.3976E-02  0.3974E-02  0.6414E-03  0.6401E-03  0.6415E-03  0.6402E-03  0.7979E-04  0.7959E-04  0.6414E-03  0.6401E-03  0.9258E-04  0.9234E-04
     -2.295  0.1220E-01  0.1218E-01  0.3977E-02  0.3975E-02  0.3977E-02  0.3975E-02  0.3976E-02  0.3973E-02  0.6865E-03  0.6849E-03  0.6869E-03  0.6853E-03  0.7664E-04  0.7643E-04  0.6865E-03  0.6849E-03  0.8923E-04  0.8898E-04