   4   4   1   0
  0.1926964E+02  0.4255104E-09  0.4256099E-09  0.4256099E-09  0.5000000E-15
  1.000000000000000E-004
  CAR 
 unknown system                          
     10.14298616     -4.53837660  301      5.66197257      1.00000000
     -4.538  0.0000E+00  0.0000E+00  0.0000E+00  0.0000E+00
     -4.489  0.0000E+00  0.0000E+00  0.0000E+00  0.0000E+00
     -4.441  0.0000E+00  0.0000E+00  0.0000E+00  0.0000E+00
     -4.392  0.0000E+00  0.0000E+00  0.0000E+00  0.0000E+00
     -4.343  0.0000E+00  0.0000E+00  0.0000E+00  0.0000E+00
     -4.294  0.1983E-05  0.1974E-05  0.9706E-07  0.9660E-07
     -4.245  0.1525E-04  0.1518E-04  0.8435E-06  0.8396E-06
     -4.196  0.5270E-04  0.5245E-04  0.3422E-05  0.3407E-05
     -4.147  0.1322E-03  0.1316E-03  0.9891E-05  0.9845E-05
     -4.098  0.3466E-03  0.3450E-03  0.2685E-04  0.2673E-04
     -4.049  0.9515E-03  0.9472E-03  0.7342E-04  0.7308E-04
     -4.000  0.2476E-02  0.2465E-02  0.1946E-03  0.1937E-03
     -3.951  0.6179E-02  0.6153E-02  0.4970E-03  0.4948E-03
     -3.902  0.1447E-01  0.1442E-01  0.1205E-02  0.1200E-02
     -3.853  0.2979E-01  0.2971E-01  0.2663E-02  0.2654E-02
     -3.804  0.5123E-01  0.5112E-01  0.5170E-02  0.5156E-02
     -3.755  0.7304E-01  0.7295E-01  0.8745E-02  0.8726E-02
     -3.706  0.9227E-01  0.9218E-01  0.1326E-01  0.1324E-01
     -3.657  0.1139E+00  0.1138E+00  0.1884E-01  0.1881E-01
     -3.609  0.1355E+00  0.1354E+00  0.2547E-01  0.2543E-01
     -3.560  0.1432E+00  0.1432E+00  0.3247E-01  0.3244E-01
     -3.511  0.1437E+00  0.1437E+00  0.3950E-01  0.3947E-01
     -3.462  0.1596E+00  0.1595E+00  0.4732E-01  0.4728E-01
     -3.413  0.1864E+00  0.1863E+00  0.5644E-01  0.5640E-01
     -3.364  0.2013E+00  0.2013E+00  0.6630E-01  0.6626E-01
     -3.315  0.2020E+00  0.2020E+00  0.7619E-01  0.7615E-01
     -3.266  0.2055E+00  0.2054E+00  0.8624E-01  0.8620E-01
     -3.217  0.2178E+00  0.2177E+00  0.9691E-01  0.9687E-01
     -3.168  0.2194E+00  0.2195E+00  0.1077E+00  0.1076E+00
     -3.119  0.2146E+00  0.2146E+00  0.1182E+00  0.1181E+00
     -3.070  0.2367E+00  0.2366E+00  0.1297E+00  0.1297E+00
     -3.021  0.2736E+00  0.2735E+00  0.1431E+00  0.1431E+00
     -2.972  0.2901E+00  0.2901E+00  0.1573E+00  0.1573E+00
     -2.923  0.2904E+00  0.2904E+00  0.1716E+00  0.1715E+00
     -2.874  0.2864E+00  0.2864E+00  0.1856E+00  0.1855E+00
     -2.826  0.2688E+00  0.2689E+00  0.1987E+00  0.1987E+00
     -2.777  0.2483E+00  0.2484E+00  0.2109E+00  0.2109E+00
     -2.728  0.2638E+00  0.2637E+00  0.2238E+00  0.2238E+00
     -2.679  0.3185E+00  0.3183E+00  0.2394E+00  0.2394E+00
     -2.630  0.3653E+00  0.3652E+00  0.2573E+00  0.2572E+00
     -2.581  0.3694E+00  0.3694E+00  0.2754E+00  0.2753E+00
     -2.532  0.3623E+00  0.3623E+00  0.2931E+00  0.2931E+00
     -2.483  0.3640E+00  0.3641E+00  0.3109E+00  0.3109E+00
     -2.434  0.3379E+00  0.3381E+00  0.3275E+00  0.3274E+00
     -2.385  0.3106E+00  0.3106E+00  0.3427E+00  0.3426E+00
     -2.336  0.3434E+00  0.3433E+00  0.3595E+00  0.3594E+00
     -2.287  0.4181E+00  0.4181E+00  0.3800E+00  0.3799E+00
     -2.238  0.4697E+00  0.4698E+00  0.4030E+00  0.4029E+00
     -2.189  0.4663E+00  0.4665E+00  0.4258E+00  0.4258E+00
     -2.140  0.4387E+00  0.4388E+00  0.4473E+00  0.4472E+00
     -2.091  0.4251E+00  0.4252E+00  0.4681E+00  0.4681E+00
     -2.043  0.4165E+00  0.4165E+00  0.4885E+00  0.4885E+00
     -1.994  0.4201E+00  0.4200E+00  0.5090E+00  0.5090E+00
     -1.945  0.4579E+00  0.4578E+00  0.5315E+00  0.5314E+00
     -1.896  0.4896E+00  0.4897E+00  0.5554E+00  0.5554E+00
     -1.847  0.4744E+00  0.4745E+00  0.5787E+00  0.5786E+00
     -1.798  0.4196E+00  0.4196E+00  0.5992E+00  0.5992E+00
     -1.749  0.3535E+00  0.3536E+00  0.6165E+00  0.6165E+00
     -1.700  0.3141E+00  0.3141E+00  0.6319E+00  0.6319E+00
     -1.651  0.3214E+00  0.3213E+00  0.6476E+00  0.6476E+00
     -1.602  0.3797E+00  0.3797E+00  0.6662E+00  0.6662E+00
     -1.553  0.4389E+00  0.4389E+00  0.6877E+00  0.6877E+00
     -1.504  0.4256E+00  0.4257E+00  0.7086E+00  0.7085E+00
     -1.455  0.3664E+00  0.3664E+00  0.7265E+00  0.7265E+00
     -1.406  0.3166E+00  0.3165E+00  0.7420E+00  0.7420E+00
     -1.357  0.2806E+00  0.2804E+00  0.7558E+00  0.7557E+00
     -1.308  0.2916E+00  0.2911E+00  0.7700E+00  0.7700E+00
     -1.260  0.3825E+00  0.3819E+00  0.7888E+00  0.7887E+00
     -1.211  0.4964E+00  0.4961E+00  0.8130E+00  0.8130E+00
     -1.162  0.5305E+00  0.5304E+00  0.8390E+00  0.8389E+00
     -1.113  0.4805E+00  0.4804E+00  0.8626E+00  0.8625E+00
     -1.064  0.4301E+00  0.4301E+00  0.8836E+00  0.8835E+00
     -1.015  0.3864E+00  0.3866E+00  0.9025E+00  0.9025E+00
     -0.966  0.3584E+00  0.3585E+00  0.9201E+00  0.9200E+00
     -0.917  0.3993E+00  0.3990E+00  0.9396E+00  0.9395E+00
     -0.868  0.4773E+00  0.4770E+00  0.9630E+00  0.9629E+00
     -0.819  0.5025E+00  0.5025E+00  0.9876E+00  0.9875E+00
     -0.770  0.4487E+00  0.4489E+00  0.1010E+01  0.1009E+01
     -0.721  0.4002E+00  0.4001E+00  0.1029E+01  0.1029E+01
     -0.672  0.4090E+00  0.4088E+00  0.1049E+01  0.1049E+01
     -0.623  0.4426E+00  0.4424E+00  0.1071E+01  0.1071E+01
     -0.574  0.5070E+00  0.5065E+00  0.1096E+01  0.1096E+01
     -0.525  0.5912E+00  0.5908E+00  0.1125E+01  0.1124E+01
     -0.477  0.6088E+00  0.6089E+00  0.1154E+01  0.1154E+01
     -0.428  0.5347E+00  0.5352E+00  0.1181E+01  0.1180E+01
     -0.379  0.4470E+00  0.4474E+00  0.1203E+01  0.1202E+01
     -0.330  0.4038E+00  0.4039E+00  0.1222E+01  0.1222E+01
     -0.281  0.4189E+00  0.4187E+00  0.1243E+01  0.1243E+01
     -0.232  0.4889E+00  0.4885E+00  0.1267E+01  0.1267E+01
     -0.183  0.5762E+00  0.5759E+00  0.1295E+01  0.1295E+01
     -0.134  0.5956E+00  0.5958E+00  0.1324E+01  0.1324E+01
     -0.085  0.5337E+00  0.5341E+00  0.1350E+01  0.1350E+01
     -0.036  0.4963E+00  0.4963E+00  0.1375E+01  0.1374E+01
      0.013  0.5332E+00  0.5328E+00  0.1401E+01  0.1400E+01
      0.062  0.6230E+00  0.6225E+00  0.1431E+01  0.1431E+01
      0.111  0.7264E+00  0.7261E+00  0.1467E+01  0.1467E+01
      0.160  0.7831E+00  0.7831E+00  0.1505E+01  0.1505E+01
      0.209  0.7679E+00  0.7682E+00  0.1543E+01  0.1542E+01
      0.258  0.7269E+00  0.7271E+00  0.1578E+01  0.1578E+01
      0.306  0.7028E+00  0.7027E+00  0.1613E+01  0.1612E+01
      0.355  0.7171E+00  0.7166E+00  0.1648E+01  0.1648E+01
      0.404  0.7343E+00  0.7340E+00  0.1684E+01  0.1683E+01
      0.453  0.6944E+00  0.6946E+00  0.1718E+01  0.1717E+01
      0.502  0.6316E+00  0.6319E+00  0.1749E+01  0.1748E+01
      0.551  0.6362E+00  0.6361E+00  0.1780E+01  0.1780E+01
      0.600  0.6924E+00  0.6923E+00  0.1814E+01  0.1813E+01
      0.649  0.7098E+00  0.7099E+00  0.1848E+01  0.1848E+01
      0.698  0.6849E+00  0.6849E+00  0.1882E+01  0.1882E+01
      0.747  0.6605E+00  0.6602E+00  0.1914E+01  0.1914E+01
      0.796  0.6484E+00  0.6480E+00  0.1946E+01  0.1946E+01
      0.845  0.6416E+00  0.6412E+00  0.1978E+01  0.1977E+01
      0.894  0.6645E+00  0.6640E+00  0.2010E+01  0.2010E+01
      0.943  0.7175E+00  0.7169E+00  0.2045E+01  0.2045E+01
      0.992  0.7729E+00  0.7724E+00  0.2083E+01  0.2083E+01
      1.041  0.8074E+00  0.8073E+00  0.2123E+01  0.2122E+01
      1.089  0.8061E+00  0.8063E+00  0.2162E+01  0.2162E+01
      1.138  0.7580E+00  0.7585E+00  0.2199E+01  0.2199E+01
      1.187  0.6511E+00  0.6521E+00  0.2231E+01  0.2231E+01
      1.236  0.5298E+00  0.5305E+00  0.2257E+01  0.2257E+01
      1.285  0.4907E+00  0.4903E+00  0.2281E+01  0.2281E+01
      1.334  0.5368E+00  0.5360E+00  0.2307E+01  0.2307E+01
      1.383  0.5697E+00  0.5691E+00  0.2335E+01  0.2335E+01
      1.432  0.5771E+00  0.5763E+00  0.2363E+01  0.2363E+01
      1.481  0.6114E+00  0.6101E+00  0.2393E+01  0.2393E+01
      1.530  0.6586E+00  0.6579E+00  0.2426E+01  0.2425E+01
      1.579  0.6429E+00  0.6437E+00  0.2457E+01  0.2457E+01
      1.628  0.5636E+00  0.5649E+00  0.2485E+01  0.2484E+01
      1.677  0.5020E+00  0.5026E+00  0.2509E+01  0.2509E+01
      1.726  0.4934E+00  0.4934E+00  0.2533E+01  0.2533E+01
      1.775  0.5111E+00  0.5108E+00  0.2559E+01  0.2558E+01
      1.824  0.5340E+00  0.5333E+00  0.2585E+01  0.2584E+01
      1.872  0.5461E+00  0.5451E+00  0.2611E+01  0.2611E+01
      1.921  0.5621E+00  0.5608E+00  0.2639E+01  0.2638E+01
      1.970  0.6254E+00  0.6235E+00  0.2670E+01  0.2669E+01
      2.019  0.7466E+00  0.7446E+00  0.2706E+01  0.2705E+01
      2.068  0.8729E+00  0.8716E+00  0.2749E+01  0.2748E+01
      2.117  0.9200E+00  0.9203E+00  0.2794E+01  0.2793E+01
      2.166  0.8567E+00  0.8584E+00  0.2836E+01  0.2835E+01
      2.215  0.7507E+00  0.7520E+00  0.2873E+01  0.2872E+01
      2.264  0.6747E+00  0.6750E+00  0.2906E+01  0.2905E+01
      2.313  0.6321E+00  0.6321E+00  0.2937E+01  0.2936E+01
      2.362  0.5892E+00  0.5896E+00  0.2965E+01  0.2965E+01
      2.411  0.5805E+00  0.5798E+00  0.2994E+01  0.2993E+01
      2.460  0.6619E+00  0.6597E+00  0.3026E+01  0.3026E+01
      2.509  0.7989E+00  0.7959E+00  0.3065E+01  0.3065E+01
      2.558  0.9502E+00  0.9470E+00  0.3112E+01  0.3111E+01
      2.607  0.1068E+01  0.1066E+01  0.3164E+01  0.3163E+01
      2.655  0.1073E+01  0.1074E+01  0.3217E+01  0.3216E+01
      2.704  0.9907E+00  0.9924E+00  0.3265E+01  0.3264E+01
      2.753  0.9156E+00  0.9160E+00  0.3310E+01  0.3309E+01
      2.802  0.9293E+00  0.9279E+00  0.3355E+01  0.3355E+01
      2.851  0.9881E+00  0.9873E+00  0.3404E+01  0.3403E+01
      2.900  0.9978E+00  0.9981E+00  0.3453E+01  0.3452E+01
      2.949  0.9840E+00  0.9837E+00  0.3501E+01  0.3500E+01
      2.998  0.9512E+00  0.9511E+00  0.3547E+01  0.3546E+01
      3.047  0.9007E+00  0.9005E+00  0.3592E+01  0.3591E+01
      3.096  0.8788E+00  0.8779E+00  0.3635E+01  0.3634E+01
      3.145  0.9241E+00  0.9212E+00  0.3680E+01  0.3679E+01
      3.194  0.1061E+01  0.1056E+01  0.3732E+01  0.3730E+01
      3.243  0.1222E+01  0.1218E+01  0.3792E+01  0.3790E+01
      3.292  0.1298E+01  0.1297E+01  0.3855E+01  0.3854E+01
      3.341  0.1231E+01  0.1234E+01  0.3915E+01  0.3914E+01
      3.390  0.1107E+01  0.1108E+01  0.3970E+01  0.3968E+01
      3.438  0.1074E+01  0.1071E+01  0.4022E+01  0.4021E+01
      3.487  0.1178E+01  0.1172E+01  0.4080E+01  0.4078E+01
      3.536  0.1326E+01  0.1321E+01  0.4145E+01  0.4143E+01
      3.585  0.1348E+01  0.1349E+01  0.4211E+01  0.4209E+01
      3.634  0.1239E+01  0.1241E+01  0.4272E+01  0.4270E+01
      3.683  0.1165E+01  0.1164E+01  0.4329E+01  0.4327E+01
      3.732  0.1228E+01  0.1223E+01  0.4389E+01  0.4386E+01
      3.781  0.1412E+01  0.1404E+01  0.4458E+01  0.4455E+01
      3.830  0.1641E+01  0.1631E+01  0.4538E+01  0.4535E+01
      3.879  0.1829E+01  0.1819E+01  0.4628E+01  0.4624E+01
      3.928  0.1941E+01  0.1934E+01  0.4723E+01  0.4719E+01
      3.977  0.1904E+01  0.1907E+01  0.4816E+01  0.4812E+01
      4.026  0.1667E+01  0.1677E+01  0.4898E+01  0.4894E+01
      4.075  0.1404E+01  0.1412E+01  0.4966E+01  0.4963E+01
      4.124  0.1227E+01  0.1232E+01  0.5027E+01  0.5024E+01
      4.173  0.1123E+01  0.1123E+01  0.5081E+01  0.5079E+01
      4.222  0.1114E+01  0.1109E+01  0.5136E+01  0.5133E+01
      4.270  0.1177E+01  0.1171E+01  0.5194E+01  0.5190E+01
      4.319  0.1194E+01  0.1195E+01  0.5252E+01  0.5249E+01
      4.368  0.1115E+01  0.1121E+01  0.5307E+01  0.5304E+01
      4.417  0.1008E+01  0.1013E+01  0.5356E+01  0.5353E+01
      4.466  0.9377E+00  0.9386E+00  0.5402E+01  0.5399E+01
      4.515  0.9196E+00  0.9181E+00  0.5447E+01  0.5444E+01
      4.564  0.9101E+00  0.9091E+00  0.5492E+01  0.5489E+01
      4.613  0.8841E+00  0.8827E+00  0.5535E+01  0.5532E+01
      4.662  0.8644E+00  0.8624E+00  0.5577E+01  0.5574E+01
      4.711  0.8641E+00  0.8619E+00  0.5620E+01  0.5617E+01
      4.760  0.8875E+00  0.8856E+00  0.5663E+01  0.5660E+01
      4.809  0.9169E+00  0.9157E+00  0.5708E+01  0.5705E+01
      4.858  0.9130E+00  0.9140E+00  0.5753E+01  0.5750E+01
      4.907  0.8558E+00  0.8598E+00  0.5795E+01  0.5792E+01
      4.956  0.7808E+00  0.7840E+00  0.5833E+01  0.5830E+01
      5.005  0.7770E+00  0.7743E+00  0.5871E+01  0.5868E+01
      5.053  0.8501E+00  0.8440E+00  0.5913E+01  0.5909E+01
      5.102  0.9166E+00  0.9132E+00  0.5957E+01  0.5954E+01
      5.151  0.9346E+00  0.9357E+00  0.6003E+01  0.6000E+01
      5.200  0.9101E+00  0.9161E+00  0.6048E+01  0.6045E+01
      5.249  0.8160E+00  0.8254E+00  0.6088E+01  0.6085E+01
      5.298  0.7138E+00  0.7164E+00  0.6123E+01  0.6120E+01
      5.347  0.7288E+00  0.7207E+00  0.6158E+01  0.6155E+01
      5.396  0.8155E+00  0.8083E+00  0.6198E+01  0.6195E+01
      5.445  0.8578E+00  0.8561E+00  0.6240E+01  0.6237E+01
      5.494  0.9237E+00  0.9160E+00  0.6286E+01  0.6282E+01
      5.543  0.1095E+01  0.1079E+01  0.6339E+01  0.6335E+01
      5.592  0.1291E+01  0.1274E+01  0.6402E+01  0.6397E+01
      5.641  0.1422E+01  0.1411E+01  0.6472E+01  0.6466E+01
      5.690  0.1463E+01  0.1459E+01  0.6544E+01  0.6537E+01
      5.739  0.1501E+01  0.1495E+01  0.6617E+01  0.6611E+01
      5.788  0.1636E+01  0.1624E+01  0.6697E+01  0.6690E+01
      5.836  0.1778E+01  0.1770E+01  0.6784E+01  0.6777E+01
      5.885  0.1829E+01  0.1826E+01  0.6874E+01  0.6866E+01
      5.934  0.1834E+01  0.1831E+01  0.6963E+01  0.6956E+01
      5.983  0.1845E+01  0.1844E+01  0.7054E+01  0.7046E+01
      6.032  0.1863E+01  0.1863E+01  0.7145E+01  0.7137E+01
      6.081  0.1902E+01  0.1895E+01  0.7238E+01  0.7230E+01
      6.130  0.2060E+01  0.2038E+01  0.7339E+01  0.7330E+01
      6.179  0.2397E+01  0.2359E+01  0.7456E+01  0.7445E+01
      6.228  0.2874E+01  0.2825E+01  0.7597E+01  0.7584E+01
      6.277  0.3376E+01  0.3327E+01  0.7762E+01  0.7746E+01
      6.326  0.3761E+01  0.3725E+01  0.7946E+01  0.7929E+01
      6.375  0.3958E+01  0.3940E+01  0.8140E+01  0.8122E+01
      6.424  0.3929E+01  0.3939E+01  0.8333E+01  0.8314E+01
      6.473  0.3633E+01  0.3672E+01  0.8510E+01  0.8494E+01
      6.522  0.3149E+01  0.3202E+01  0.8664E+01  0.8651E+01
      6.571  0.2640E+01  0.2693E+01  0.8794E+01  0.8783E+01
      6.619  0.2165E+01  0.2212E+01  0.8900E+01  0.8891E+01
      6.668  0.1769E+01  0.1801E+01  0.8986E+01  0.8979E+01
      6.717  0.1533E+01  0.1550E+01  0.9062E+01  0.9055E+01
      6.766  0.1421E+01  0.1433E+01  0.9131E+01  0.9126E+01
      6.815  0.1344E+01  0.1354E+01  0.9197E+01  0.9192E+01
      6.864  0.1303E+01  0.1307E+01  0.9261E+01  0.9256E+01
      6.913  0.1322E+01  0.1317E+01  0.9326E+01  0.9321E+01
      6.962  0.1393E+01  0.1385E+01  0.9394E+01  0.9388E+01
      7.011  0.1494E+01  0.1486E+01  0.9467E+01  0.9461E+01
      7.060  0.1597E+01  0.1591E+01  0.9545E+01  0.9539E+01
      7.109  0.1651E+01  0.1650E+01  0.9626E+01  0.9620E+01
      7.158  0.1631E+01  0.1633E+01  0.9706E+01  0.9700E+01
      7.207  0.1624E+01  0.1620E+01  0.9786E+01  0.9779E+01
      7.256  0.1699E+01  0.1690E+01  0.9869E+01  0.9862E+01
      7.305  0.1798E+01  0.1791E+01  0.9957E+01  0.9950E+01
      7.354  0.1853E+01  0.1849E+01  0.1005E+02  0.1004E+02
      7.402  0.1881E+01  0.1875E+01  0.1014E+02  0.1013E+02
      7.451  0.1893E+01  0.1884E+01  0.1023E+02  0.1022E+02
      7.500  0.1886E+01  0.1882E+01  0.1032E+02  0.1032E+02
      7.549  0.1837E+01  0.1844E+01  0.1041E+02  0.1041E+02
      7.598  0.1734E+01  0.1749E+01  0.1050E+02  0.1049E+02
      7.647  0.1607E+01  0.1623E+01  0.1058E+02  0.1057E+02
      7.696  0.1478E+01  0.1491E+01  0.1065E+02  0.1064E+02
      7.745  0.1384E+01  0.1396E+01  0.1072E+02  0.1071E+02
      7.794  0.1311E+01  0.1332E+01  0.1078E+02  0.1078E+02
      7.843  0.1240E+01  0.1266E+01  0.1084E+02  0.1084E+02
      7.892  0.1245E+01  0.1267E+01  0.1090E+02  0.1090E+02
      7.941  0.1348E+01  0.1363E+01  0.1097E+02  0.1097E+02
      7.990  0.1434E+01  0.1443E+01  0.1104E+02  0.1104E+02
      8.039  0.1429E+01  0.1432E+01  0.1111E+02  0.1111E+02
      8.088  0.1371E+01  0.1366E+01  0.1118E+02  0.1118E+02
      8.137  0.1284E+01  0.1279E+01  0.1124E+02  0.1124E+02
      8.185  0.1168E+01  0.1172E+01  0.1130E+02  0.1130E+02
      8.234  0.1061E+01  0.1078E+01  0.1135E+02  0.1135E+02
      8.283  0.1045E+01  0.1065E+01  0.1140E+02  0.1140E+02
      8.332  0.1109E+01  0.1128E+01  0.1146E+02  0.1146E+02
      8.381  0.1163E+01  0.1176E+01  0.1151E+02  0.1151E+02
      8.430  0.1130E+01  0.1135E+01  0.1157E+02  0.1157E+02
      8.479  0.9778E+00  0.9782E+00  0.1162E+02  0.1162E+02
      8.528  0.8240E+00  0.8242E+00  0.1166E+02  0.1166E+02
      8.577  0.8083E+00  0.8087E+00  0.1170E+02  0.1170E+02
      8.626  0.9025E+00  0.9037E+00  0.1174E+02  0.1174E+02
      8.675  0.9283E+00  0.9307E+00  0.1178E+02  0.1179E+02
      8.724  0.8137E+00  0.8150E+00  0.1182E+02  0.1183E+02
      8.773  0.6564E+00  0.6570E+00  0.1186E+02  0.1186E+02
      8.822  0.5410E+00  0.5430E+00  0.1188E+02  0.1189E+02
      8.871  0.4601E+00  0.4632E+00  0.1191E+02  0.1191E+02
      8.920  0.3869E+00  0.3890E+00  0.1192E+02  0.1193E+02
      8.968  0.3424E+00  0.3426E+00  0.1194E+02  0.1195E+02
      9.017  0.3242E+00  0.3191E+00  0.1196E+02  0.1196E+02
      9.066  0.2926E+00  0.2769E+00  0.1197E+02  0.1197E+02
      9.115  0.2161E+00  0.1955E+00  0.1198E+02  0.1198E+02
      9.164  0.1300E+00  0.1150E+00  0.1199E+02  0.1199E+02
      9.213  0.7631E-01  0.6873E-01  0.1199E+02  0.1199E+02
      9.262  0.4768E-01  0.4402E-01  0.1199E+02  0.1200E+02
      9.311  0.2802E-01  0.2608E-01  0.1200E+02  0.1200E+02
      9.360  0.1565E-01  0.1476E-01  0.1200E+02  0.1200E+02
      9.409  0.1211E-01  0.1166E-01  0.1200E+02  0.1200E+02
      9.458  0.1341E-01  0.1325E-01  0.1200E+02  0.1200E+02
      9.507  0.1389E-01  0.1387E-01  0.1200E+02  0.1200E+02
      9.556  0.1005E-01  0.1007E-01  0.1200E+02  0.1200E+02
      9.605  0.5270E-02  0.5292E-02  0.1200E+02  0.1200E+02
      9.654  0.2256E-02  0.2269E-02  0.1200E+02  0.1200E+02
      9.703  0.8991E-03  0.9045E-03  0.1200E+02  0.1200E+02
      9.751  0.3456E-03  0.3477E-03  0.1200E+02  0.1200E+02
      9.800  0.1310E-03  0.1318E-03  0.1200E+02  0.1200E+02
      9.849  0.4939E-04  0.4969E-04  0.1200E+02  0.1200E+02
      9.898  0.0000E+00  0.0000E+00  0.1200E+02  0.1200E+02
      9.947  0.0000E+00  0.0000E+00  0.1200E+02  0.1200E+02
      9.996  0.0000E+00  0.0000E+00  0.1200E+02  0.1200E+02
     10.045  0.0000E+00  0.0000E+00  0.1200E+02  0.1200E+02
     10.094  0.0000E+00  0.0000E+00  0.1200E+02  0.1200E+02
     10.143  0.0000E+00  0.0000E+00  0.1200E+02  0.1200E+02
     10.14298616     -4.53837660  301      5.66197257      1.00000000
     -4.538  0.0000E+00  0.0000E+00  0.0000E+00  0.0000E+00  0.0000E+00  0.0000E+00  0.0000E+00  0.0000E+00  0.0000E+00  0.0000E+00  0.0000E+00  0.0000E+00  0.0000E+00  0.0000E+00  0.0000E+00  0.0000E+00  0.0000E+00  0.0000E+00
     -4.489  0.0000E+00  0.0000E+00  0.0000E+00  0.0000E+00  0.0000E+00  0.0000E+00  0.0000E+00  0.0000E+00  0.0000E+00  0.0000E+00  0.0000E+00  0.0000E+00  0.0000E+00  0.0000E+00  0.0000E+00  0.0000E+00  0.0000E+00  0.0000E+00
     -4.441  0.0000E+00  0.0000E+00  0.0000E+00  0.0000E+00  0.0000E+00  0.0000E+00  0.0000E+00  0.0000E+00  0.0000E+00  0.0000E+00  0.0000E+00  0.0000E+00  0.0000E+00  0.0000E+00  0.0000E+00  0.0000E+00  0.0000E+00  0.0000E+00
     -4.392  0.0000E+00  0.0000E+00  0.0000E+00  0.0000E+00  0.0000E+00  0.0000E+00  0.0000E+00  0.0000E+00  0.0000E+00  0.0000E+00  0.0000E+00  0.0000E+00  0.0000E+00  0.0000E+00  0.0000E+00  0.0000E+00  0.0000E+00  0.0000E+00
     -4.343  0.0000E+00  0.0000E+00  0.0000E+00  0.0000E+00  0.0000E+00  0.0000E+00  0.0000E+00  0.0000E+00  0.0000E+00  0.0000E+00  0.0000E+00  0.0000E+00  0.0000E+00  0.0000E+00  0.0000E+00  0.0000E+00  0.0000E+00  0.0000E+00
     -4.294  0.1814E-06  0.1804E-06  0.1393E-20  0.9418E-21  0.1393E-20  0.9418E-21  0.8614E-21  0.5238E-21  0.1132E-22  0.7890E-23  0.1074E-22  0.1860E-21  0.8038E-16  0.8340E-16  0.1132E-22  0.7890E-23  0.1036E-15  0.1064E-15
     -4.245  0.1380E-05  0.1373E-05  0.3084E-08  0.3068E-08  0.3084E-08  0.3068E-08  0.3083E-08  0.3067E-08  0.4494E-21  0.9061E-22  0.9115E-21  0.1409E-20  0.1037E-10  0.1031E-10  0.4494E-21  0.9061E-22  0.1329E-10  0.1321E-10
     -4.196  0.4736E-05  0.4710E-05  0.1745E-07  0.1737E-07  0.1745E-07  0.1737E-07  0.1745E-07  0.1736E-07  0.1124E-09  0.1118E-09  0.1124E-09  0.1118E-09  0.4387E-10  0.4361E-10  0.1124E-09  0.1118E-09  0.4272E-10  0.4246E-10
     -4.147  0.1187E-04  0.1180E-04  0.4643E-07  0.4621E-07  0.4643E-07  0.4621E-07  0.4643E-07  0.4620E-07  0.4136E-09  0.4113E-09  0.4135E-09  0.4112E-09  0.9002E-10  0.8948E-10  0.4136E-09  0.4113E-09  0.9294E-10  0.9238E-10
     -4.098  0.3111E-04  0.3094E-04  0.1237E-06  0.1231E-06  0.1237E-06  0.1231E-06  0.1237E-06  0.1231E-06  0.8727E-09  0.8678E-09  0.8727E-09  0.8677E-09  0.4060E-09  0.4036E-09  0.8727E-09  0.8678E-09  0.4612E-09  0.4585E-09
     -4.049  0.8520E-04  0.8475E-04  0.3786E-06  0.3768E-06  0.3786E-06  0.3768E-06  0.3784E-06  0.3766E-06  0.3266E-08  0.3247E-08  0.3267E-08  0.3248E-08  0.1485E-08  0.1476E-08  0.3266E-08  0.3247E-08  0.1679E-08  0.1669E-08
     -4.000  0.2216E-03  0.2205E-03  0.1010E-05  0.1006E-05  0.1010E-05  0.1006E-05  0.1010E-05  0.1005E-05  0.9862E-08  0.9808E-08  0.9864E-08  0.9808E-08  0.3728E-08  0.3706E-08  0.9862E-08  0.9808E-08  0.4253E-08  0.4228E-08
     -3.951  0.5528E-03  0.5501E-03  0.2543E-05  0.2531E-05  0.2543E-05  0.2531E-05  0.2542E-05  0.2530E-05  0.2379E-07  0.2366E-07  0.2379E-07  0.2366E-07  0.9341E-08  0.9287E-08  0.2379E-07  0.2366E-07  0.1060E-07  0.1054E-07
     -3.902  0.1293E-02  0.1287E-02  0.6390E-05  0.6362E-05  0.6390E-05  0.6362E-05  0.6388E-05  0.6360E-05  0.6337E-07  0.6303E-07  0.6338E-07  0.6304E-07  0.2408E-07  0.2394E-07  0.6337E-07  0.6303E-07  0.2717E-07  0.2702E-07
     -3.853  0.2654E-02  0.2644E-02  0.1481E-04  0.1475E-04  0.1481E-04  0.1475E-04  0.1481E-04  0.1475E-04  0.1607E-06  0.1599E-06  0.1608E-06  0.1599E-06  0.5865E-07  0.5834E-07  0.1607E-06  0.1599E-06  0.6639E-07  0.6603E-07
     -3.804  0.4540E-02  0.4528E-02  0.3008E-04  0.2999E-04  0.3008E-04  0.2999E-04  0.3007E-04  0.2997E-04  0.3625E-06  0.3609E-06  0.3626E-06  0.3609E-06  0.1329E-06  0.1322E-06  0.3625E-06  0.3609E-06  0.1521E-06  0.1514E-06
     -3.755  0.6423E-02  0.6411E-02  0.5321E-04  0.5307E-04  0.5321E-04  0.5307E-04  0.5318E-04  0.5305E-04  0.7386E-06  0.7355E-06  0.7387E-06  0.7356E-06  0.2802E-06  0.2788E-06  0.7386E-06  0.7355E-06  0.3271E-06  0.3255E-06
     -3.706  0.8023E-02  0.8010E-02  0.8574E-04  0.8554E-04  0.8574E-04  0.8554E-04  0.8570E-04  0.8550E-04  0.1374E-05  0.1369E-05  0.1374E-05  0.1369E-05  0.5558E-06  0.5533E-06  0.1374E-05  0.1369E-05  0.6597E-06  0.6567E-06
     -3.657  0.9780E-02  0.9764E-02  0.1314E-03  0.1312E-03  0.1314E-03  0.1312E-03  0.1314E-03  0.1311E-03  0.2458E-05  0.2449E-05  0.2459E-05  0.2450E-05  0.9817E-06  0.9779E-06  0.2458E-05  0.2449E-05  0.1168E-05  0.1164E-05
     -3.609  0.1150E-01  0.1149E-01  0.1825E-03  0.1823E-03  0.1825E-03  0.1823E-03  0.1825E-03  0.1822E-03  0.4058E-05  0.4046E-05  0.4059E-05  0.4046E-05  0.1438E-05  0.1434E-05  0.4058E-05  0.4046E-05  0.1699E-05  0.1694E-05
     -3.560  0.1202E-01  0.1201E-01  0.2206E-03  0.2204E-03  0.2206E-03  0.2204E-03  0.2206E-03  0.2204E-03  0.5858E-05  0.5843E-05  0.5858E-05  0.5843E-05  0.1861E-05  0.1855E-05  0.5858E-05  0.5843E-05  0.2160E-05  0.2154E-05
     -3.511  0.1186E-01  0.1185E-01  0.2602E-03  0.2599E-03  0.2602E-03  0.2599E-03  0.2601E-03  0.2598E-03  0.8124E-05  0.8102E-05  0.8125E-05  0.8104E-05  0.2598E-05  0.2588E-05  0.8124E-05  0.8102E-05  0.2963E-05  0.2952E-05
     -3.462  0.1293E-01  0.1291E-01  0.3382E-03  0.3377E-03  0.3382E-03  0.3377E-03  0.3379E-03  0.3374E-03  0.1157E-04  0.1154E-04  0.1157E-04  0.1154E-04  0.4117E-05  0.4100E-05  0.1157E-04  0.1154E-04  0.4739E-05  0.4718E-05
     -3.413  0.1487E-01  0.1485E-01  0.4395E-03  0.4389E-03  0.4395E-03  0.4389E-03  0.4392E-03  0.4386E-03  0.1552E-04  0.1548E-04  0.1552E-04  0.1548E-04  0.6253E-05  0.6230E-05  0.1552E-04  0.1548E-04  0.7373E-05  0.7344E-05
     -3.364  0.1585E-01  0.1583E-01  0.5157E-03  0.5152E-03  0.5157E-03  0.5152E-03  0.5155E-03  0.5151E-03  0.1946E-04  0.1942E-04  0.1946E-04  0.1942E-04  0.8044E-05  0.8020E-05  0.1946E-04  0.1942E-04  0.9636E-05  0.9606E-05
     -3.315  0.1566E-01  0.1565E-01  0.5625E-03  0.5620E-03  0.5625E-03  0.5620E-03  0.5624E-03  0.5620E-03  0.2496E-04  0.2490E-04  0.2497E-04  0.2491E-04  0.8831E-05  0.8807E-05  0.2496E-04  0.2490E-04  0.1051E-04  0.1048E-04
     -3.266  0.1565E-01  0.1563E-01  0.6245E-03  0.6238E-03  0.6245E-03  0.6238E-03  0.6244E-03  0.6237E-03  0.3349E-04  0.3341E-04  0.3350E-04  0.3342E-04  0.9484E-05  0.9454E-05  0.3349E-04  0.3341E-04  0.1098E-04  0.1095E-04
     -3.217  0.1630E-01  0.1629E-01  0.7143E-03  0.7136E-03  0.7143E-03  0.7136E-03  0.7141E-03  0.7134E-03  0.4304E-04  0.4295E-04  0.4305E-04  0.4295E-04  0.1102E-04  0.1098E-04  0.4304E-04  0.4295E-04  0.1253E-04  0.1249E-04
     -3.168  0.1615E-01  0.1614E-01  0.7703E-03  0.7698E-03  0.7703E-03  0.7698E-03  0.7699E-03  0.7693E-03  0.4818E-04  0.4810E-04  0.4817E-04  0.4809E-04  0.1321E-04  0.1317E-04  0.4818E-04  0.4810E-04  0.1524E-04  0.1519E-04
     -3.119  0.1544E-01  0.1542E-01  0.8194E-03  0.8187E-03  0.8194E-03  0.8187E-03  0.8185E-03  0.8177E-03  0.5093E-04  0.5085E-04  0.5093E-04  0.5085E-04  0.1693E-04  0.1687E-04  0.5093E-04  0.5085E-04  0.2012E-04  0.2005E-04
     -3.070  0.1660E-01  0.1657E-01  0.9821E-03  0.9808E-03  0.9821E-03  0.9808E-03  0.9809E-03  0.9796E-03  0.6223E-04  0.6209E-04  0.6226E-04  0.6212E-04  0.2331E-04  0.2323E-04  0.6223E-04  0.6209E-04  0.2805E-04  0.2796E-04
     -3.021  0.1883E-01  0.1881E-01  0.1197E-02  0.1195E-02  0.1197E-02  0.1195E-02  0.1196E-02  0.1195E-02  0.8149E-04  0.8131E-04  0.8155E-04  0.8137E-04  0.2961E-04  0.2953E-04  0.8149E-04  0.8131E-04  0.3527E-04  0.3517E-04
     -2.972  0.1966E-01  0.1964E-01  0.1322E-02  0.1320E-02  0.1322E-02  0.1320E-02  0.1321E-02  0.1320E-02  0.9998E-04  0.9979E-04  0.1000E-03  0.9984E-04  0.3260E-04  0.3253E-04  0.9998E-04  0.9979E-04  0.3803E-04  0.3795E-04
     -2.923  0.1933E-01  0.1931E-01  0.1382E-02  0.1381E-02  0.1382E-02  0.1381E-02  0.1382E-02  0.1381E-02  0.1166E-03  0.1163E-03  0.1166E-03  0.1164E-03  0.3368E-04  0.3361E-04  0.1166E-03  0.1163E-03  0.3879E-04  0.3870E-04
     -2.874  0.1870E-01  0.1869E-01  0.1422E-02  0.1421E-02  0.1422E-02  0.1421E-02  0.1422E-02  0.1421E-02  0.1321E-03  0.1319E-03  0.1321E-03  0.1319E-03  0.3392E-04  0.3385E-04  0.1321E-03  0.1319E-03  0.3914E-04  0.3906E-04
     -2.826  0.1722E-01  0.1721E-01  0.1390E-02  0.1389E-02  0.1390E-02  0.1389E-02  0.1390E-02  0.1390E-02  0.1421E-03  0.1419E-03  0.1421E-03  0.1419E-03  0.3182E-04  0.3176E-04  0.1421E-03  0.1419E-03  0.3689E-04  0.3682E-04
     -2.777  0.1545E-01  0.1544E-01  0.1358E-02  0.1357E-02  0.1358E-02  0.1357E-02  0.1357E-02  0.1356E-02  0.1490E-03  0.1488E-03  0.1491E-03  0.1488E-03  0.3160E-04  0.3153E-04  0.1490E-03  0.1488E-03  0.3679E-04  0.3670E-04
     -2.728  0.1576E-01  0.1574E-01  0.1549E-02  0.1547E-02  0.1549E-02  0.1547E-02  0.1546E-02  0.1544E-02  0.1714E-03  0.1711E-03  0.1716E-03  0.1712E-03  0.4070E-04  0.4059E-04  0.1714E-03  0.1711E-03  0.4757E-04  0.4744E-04
     -2.679  0.1835E-01  0.1832E-01  0.1978E-02  0.1976E-02  0.1978E-02  0.1976E-02  0.1974E-02  0.1971E-02  0.2139E-03  0.2135E-03  0.2141E-03  0.2137E-03  0.5822E-04  0.5805E-04  0.2139E-03  0.2135E-03  0.6815E-04  0.6796E-04
     -2.630  0.2051E-01  0.2048E-01  0.2353E-02  0.2351E-02  0.2353E-02  0.2351E-02  0.2350E-02  0.2348E-02  0.2542E-03  0.2538E-03  0.2543E-03  0.2538E-03  0.7296E-04  0.7279E-04  0.2542E-03  0.2538E-03  0.8579E-04  0.8559E-04
     -2.581  0.2024E-01  0.2022E-01  0.2453E-02  0.2452E-02  0.2453E-02  0.2452E-02  0.2453E-02  0.2451E-02  0.2777E-03  0.2773E-03  0.2776E-03  0.2772E-03  0.7623E-04  0.7609E-04  0.2777E-03  0.2773E-03  0.9035E-04  0.9018E-04
     -2.532  0.1930E-01  0.1928E-01  0.2486E-02  0.2485E-02  0.2486E-02  0.2485E-02  0.2486E-02  0.2484E-02  0.3078E-03  0.3073E-03  0.3078E-03  0.3073E-03  0.7522E-04  0.7508E-04  0.3078E-03  0.3073E-03  0.8961E-04  0.8944E-04
     -2.483  0.1885E-01  0.1883E-01  0.2574E-02  0.2572E-02  0.2574E-02  0.2572E-02  0.2573E-02  0.2572E-02  0.3441E-03  0.3436E-03  0.3442E-03  0.3437E-03  0.7641E-04  0.7627E-04  0.3441E-03  0.3436E-03  0.9087E-04  0.9070E-04
     -2.434  0.1697E-01  0.1696E-01  0.2461E-02  0.2460E-02  0.2461E-02  0.2460E-02  0.2462E-02  0.2461E-02  0.3499E-03  0.3494E-03  0.3499E-03  0.3494E-03  0.7259E-04  0.7247E-04  0.3499E-03  0.3494E-03  0.8537E-04  0.8524E-04
     -2.385  0.1488E-01  0.1487E-01  0.2357E-02  0.2355E-02  0.2357E-02  0.2355E-02  0.2355E-02  0.2354E-02  0.3672E-03  0.3666E-03  0.3675E-03  0.3669E-03  0.6694E-04  0.6682E-04  0.3672E-03  0.3666E-03  0.7663E-04  0.7650E-04
     -2.336  0.1543E-01  0.1541E-01  0.2742E-02  0.2739E-02  0.2742E-02  0.2739E-02  0.2734E-02  0.2732E-02  0.4589E-03  0.4580E-03  0.4595E-03  0.4586E-03  0.7235E-04  0.7219E-04  0.4589E-03  0.4580E-03  0.8087E-04  0.8070E-04
     -2.287  0.1754E-01  0.1752E-01  0.3508E-02  0.3505E-02  0.3508E-02  0.3505E-02  0.3497E-02  0.3494E-02  0.5851E-03  0.5841E-03  0.5855E-03  0.5844E-03  0.8649E-04  0.8630E-04  0.5851E-03  0.5841E-03  0.9681E-04  0.9660E-04
     -2.238  0.1824E-01  0.1822E-01  0.4138E-02  0.4135E-02  0.4138E-02  0.4135E-02  0.4128E-02  0.4126E-02  0.6609E-03  0.6600E-03  0.6609E-03  0.6600E-03  0.9646E-04  0.9627E-04  0.6609E-03  0.6600E-03  0.1094E-03  0.1092E-03
     -2.189  0.1666E-01  0.1665E-01  0.4298E-02  0.4295E-02  0.4298E-02  0.4295E-02  0.4294E-02  0.4292E-02  0.6692E-03  0.6684E-03  0.6691E-03  0.6683E-03  0.9478E-04  0.9460E-04  0.6692E-03  0.6684E-03  0.1089E-03  0.1087E-03
     -2.140  0.1437E-01  0.1436E-01  0.4200E-02  0.4198E-02  0.4200E-02  0.4198E-02  0.4199E-02  0.4196E-02  0.6748E-03  0.6739E-03  0.6750E-03  0.6741E-03  0.8760E-04  0.8742E-04  0.6748E-03  0.6739E-03  0.1017E-03  0.1014E-03
     -2.091  0.1276E-01  0.1275E-01  0.4201E-02  0.4198E-02  0.4201E-02  0.4198E-02  0.4199E-02  0.4196E-02  0.7209E-03  0.7198E-03  0.7214E-03  0.7204E-03  0.8401E-04  0.8383E-04  0.7209E-03  0.7198E-03  0.9800E-04  0.9778E-04