   4   4   1   0
  0.1348631E+02  0.3777896E-09  0.3778779E-09  0.3778779E-09  0.5000000E-15
  1.000000000000000E-004
  CAR 
 unknown system                          
     16.40044531     -3.58230555  301      9.00021294      1.00000000
     -3.582  0.0000E+00  0.0000E+00  0.0000E+00  0.0000E+00
     -3.516  0.0000E+00  0.0000E+00  0.0000E+00  0.0000E+00
     -3.449  0.0000E+00  0.0000E+00  0.0000E+00  0.0000E+00
     -3.382  0.0000E+00  0.0000E+00  0.0000E+00  0.0000E+00
     -3.316  0.0000E+00  0.0000E+00  0.0000E+00  0.0000E+00
     -3.249  0.0000E+00  0.0000E+00  0.0000E+00  0.0000E+00
     -3.183  0.0000E+00  0.0000E+00  0.0000E+00  0.0000E+00
     -3.116  0.9886E-06  0.9584E-06  0.6585E-07  0.6384E-07
     -3.049  0.9096E-05  0.8818E-05  0.6718E-06  0.6512E-06
     -2.983  0.4171E-04  0.4043E-04  0.3450E-05  0.3344E-05
     -2.916  0.1538E-03  0.1491E-03  0.1369E-04  0.1327E-04
     -2.850  0.5744E-03  0.5571E-03  0.5195E-04  0.5038E-04
     -2.783  0.2119E-02  0.2058E-02  0.1931E-03  0.1874E-03
     -2.716  0.7091E-02  0.6906E-02  0.6654E-03  0.6475E-03
     -2.650  0.1953E-01  0.1913E-01  0.1966E-02  0.1922E-02
     -2.583  0.4006E-01  0.3955E-01  0.4635E-02  0.4556E-02
     -2.517  0.5915E-01  0.5880E-01  0.8574E-02  0.8473E-02
     -2.450  0.7171E-01  0.7140E-01  0.1335E-01  0.1323E-01
     -2.383  0.9230E-01  0.9168E-01  0.1950E-01  0.1934E-01
     -2.317  0.1155E+00  0.1152E+00  0.2719E-01  0.2701E-01
     -2.250  0.1111E+00  0.1115E+00  0.3459E-01  0.3444E-01
     -2.184  0.1040E+00  0.1037E+00  0.4152E-01  0.4135E-01
     -2.117  0.1314E+00  0.1305E+00  0.5028E-01  0.5005E-01
     -2.050  0.1599E+00  0.1596E+00  0.6093E-01  0.6068E-01
     -1.984  0.1609E+00  0.1612E+00  0.7165E-01  0.7141E-01
     -1.917  0.1527E+00  0.1527E+00  0.8183E-01  0.8159E-01
     -1.850  0.1671E+00  0.1665E+00  0.9296E-01  0.9269E-01
     -1.784  0.1797E+00  0.1799E+00  0.1049E+00  0.1047E+00
     -1.717  0.1557E+00  0.1562E+00  0.1153E+00  0.1151E+00
     -1.651  0.1678E+00  0.1668E+00  0.1265E+00  0.1262E+00
     -1.584  0.2205E+00  0.2195E+00  0.1412E+00  0.1408E+00
     -1.517  0.2364E+00  0.2365E+00  0.1569E+00  0.1566E+00
     -1.451  0.2295E+00  0.2295E+00  0.1722E+00  0.1719E+00
     -1.384  0.2315E+00  0.2315E+00  0.1877E+00  0.1873E+00
     -1.318  0.2086E+00  0.2096E+00  0.2016E+00  0.2013E+00
     -1.251  0.1738E+00  0.1741E+00  0.2131E+00  0.2129E+00
     -1.184  0.2011E+00  0.1997E+00  0.2265E+00  0.2262E+00
     -1.118  0.2761E+00  0.2745E+00  0.2449E+00  0.2445E+00
     -1.051  0.3111E+00  0.3113E+00  0.2657E+00  0.2652E+00
     -0.985  0.2847E+00  0.2851E+00  0.2847E+00  0.2842E+00
     -0.918  0.2951E+00  0.2946E+00  0.3043E+00  0.3039E+00
     -0.851  0.2897E+00  0.2907E+00  0.3236E+00  0.3232E+00
     -0.785  0.2291E+00  0.2301E+00  0.3389E+00  0.3386E+00
     -0.718  0.2425E+00  0.2411E+00  0.3551E+00  0.3546E+00
     -0.652  0.3268E+00  0.3250E+00  0.3768E+00  0.3763E+00
     -0.585  0.3842E+00  0.3838E+00  0.4024E+00  0.4019E+00
     -0.518  0.3748E+00  0.3756E+00  0.4274E+00  0.4269E+00
     -0.452  0.3434E+00  0.3438E+00  0.4503E+00  0.4499E+00
     -0.385  0.3418E+00  0.3418E+00  0.4731E+00  0.4726E+00
     -0.318  0.3421E+00  0.3421E+00  0.4959E+00  0.4954E+00
     -0.252  0.3652E+00  0.3644E+00  0.5202E+00  0.5197E+00
     -0.185  0.4107E+00  0.4101E+00  0.5476E+00  0.5470E+00
     -0.119  0.4114E+00  0.4120E+00  0.5750E+00  0.5745E+00
     -0.052  0.3640E+00  0.3655E+00  0.5993E+00  0.5988E+00
      0.015  0.2840E+00  0.2855E+00  0.6182E+00  0.6179E+00
      0.081  0.2470E+00  0.2471E+00  0.6347E+00  0.6344E+00
      0.148  0.2773E+00  0.2760E+00  0.6532E+00  0.6528E+00
      0.214  0.3699E+00  0.3680E+00  0.6779E+00  0.6773E+00
      0.281  0.3935E+00  0.3946E+00  0.7041E+00  0.7036E+00
      0.348  0.3171E+00  0.3186E+00  0.7252E+00  0.7249E+00
      0.414  0.2650E+00  0.2659E+00  0.7429E+00  0.7426E+00
      0.481  0.2139E+00  0.2147E+00  0.7572E+00  0.7569E+00
      0.547  0.2325E+00  0.2306E+00  0.7726E+00  0.7722E+00
      0.614  0.3766E+00  0.3734E+00  0.7978E+00  0.7971E+00
      0.681  0.4754E+00  0.4752E+00  0.8295E+00  0.8288E+00
      0.747  0.4006E+00  0.4027E+00  0.8561E+00  0.8556E+00
      0.814  0.3340E+00  0.3343E+00  0.8784E+00  0.8779E+00
      0.881  0.3229E+00  0.3232E+00  0.8999E+00  0.8995E+00
      0.947  0.3112E+00  0.3114E+00  0.9207E+00  0.9202E+00
      1.014  0.3533E+00  0.3520E+00  0.9442E+00  0.9437E+00
      1.080  0.4027E+00  0.4021E+00  0.9711E+00  0.9705E+00
      1.147  0.3774E+00  0.3782E+00  0.9962E+00  0.9957E+00
      1.214  0.3049E+00  0.3067E+00  0.1017E+01  0.1016E+01
      1.280  0.2346E+00  0.2354E+00  0.1032E+01  0.1032E+01
      1.347  0.2768E+00  0.2746E+00  0.1051E+01  0.1050E+01
      1.413  0.3866E+00  0.3849E+00  0.1076E+01  0.1076E+01
      1.480  0.4237E+00  0.4238E+00  0.1105E+01  0.1104E+01
      1.547  0.4153E+00  0.4146E+00  0.1132E+01  0.1132E+01
      1.613  0.4179E+00  0.4182E+00  0.1160E+01  0.1160E+01
      1.680  0.3549E+00  0.3568E+00  0.1184E+01  0.1183E+01
      1.746  0.3256E+00  0.3253E+00  0.1206E+01  0.1205E+01
      1.813  0.3713E+00  0.3706E+00  0.1230E+01  0.1230E+01
      1.880  0.3779E+00  0.3787E+00  0.1255E+01  0.1255E+01
      1.946  0.3327E+00  0.3331E+00  0.1278E+01  0.1277E+01
      2.013  0.3654E+00  0.3632E+00  0.1302E+01  0.1301E+01
      2.079  0.4216E+00  0.4216E+00  0.1330E+01  0.1329E+01
      2.146  0.3804E+00  0.3813E+00  0.1355E+01  0.1355E+01
      2.213  0.4116E+00  0.4096E+00  0.1383E+01  0.1382E+01
      2.279  0.4998E+00  0.4987E+00  0.1416E+01  0.1415E+01
      2.346  0.5173E+00  0.5175E+00  0.1451E+01  0.1450E+01
      2.413  0.5250E+00  0.5243E+00  0.1486E+01  0.1485E+01
      2.479  0.5572E+00  0.5566E+00  0.1523E+01  0.1522E+01
      2.546  0.5510E+00  0.5517E+00  0.1560E+01  0.1559E+01
      2.612  0.5477E+00  0.5470E+00  0.1596E+01  0.1595E+01
      2.679  0.6016E+00  0.6004E+00  0.1636E+01  0.1635E+01
      2.746  0.6383E+00  0.6382E+00  0.1679E+01  0.1678E+01
      2.812  0.6039E+00  0.6057E+00  0.1719E+01  0.1718E+01
      2.879  0.5265E+00  0.5281E+00  0.1754E+01  0.1753E+01
      2.945  0.4713E+00  0.4721E+00  0.1785E+01  0.1785E+01
      3.012  0.4982E+00  0.4961E+00  0.1819E+01  0.1818E+01
      3.079  0.6379E+00  0.6351E+00  0.1861E+01  0.1860E+01
      3.145  0.6859E+00  0.6868E+00  0.1907E+01  0.1906E+01
      3.212  0.6135E+00  0.6151E+00  0.1948E+01  0.1947E+01
      3.278  0.5673E+00  0.5681E+00  0.1986E+01  0.1985E+01
      3.345  0.5740E+00  0.5731E+00  0.2024E+01  0.2023E+01
      3.412  0.6754E+00  0.6730E+00  0.2069E+01  0.2068E+01
      3.478  0.7176E+00  0.7185E+00  0.2117E+01  0.2116E+01
      3.545  0.6288E+00  0.6308E+00  0.2159E+01  0.2158E+01
      3.611  0.5886E+00  0.5886E+00  0.2198E+01  0.2197E+01
      3.678  0.5825E+00  0.5831E+00  0.2237E+01  0.2236E+01
      3.745  0.5625E+00  0.5621E+00  0.2274E+01  0.2273E+01
      3.811  0.5926E+00  0.5918E+00  0.2314E+01  0.2313E+01
      3.878  0.5945E+00  0.5950E+00  0.2353E+01  0.2352E+01
      3.945  0.5778E+00  0.5781E+00  0.2392E+01  0.2391E+01
      4.011  0.5395E+00  0.5409E+00  0.2428E+01  0.2427E+01
      4.078  0.4836E+00  0.4844E+00  0.2460E+01  0.2459E+01
      4.144  0.4828E+00  0.4830E+00  0.2492E+01  0.2492E+01
      4.211  0.4694E+00  0.4693E+00  0.2523E+01  0.2523E+01
      4.278  0.5133E+00  0.5112E+00  0.2558E+01  0.2557E+01
      4.344  0.5927E+00  0.5913E+00  0.2597E+01  0.2596E+01
      4.411  0.6221E+00  0.6217E+00  0.2639E+01  0.2638E+01
      4.477  0.6423E+00  0.6419E+00  0.2681E+01  0.2681E+01
      4.544  0.7002E+00  0.6982E+00  0.2728E+01  0.2727E+01
      4.611  0.8284E+00  0.8265E+00  0.2783E+01  0.2782E+01
      4.677  0.8280E+00  0.8304E+00  0.2839E+01  0.2837E+01
      4.744  0.6731E+00  0.6762E+00  0.2883E+01  0.2883E+01
      4.810  0.5668E+00  0.5680E+00  0.2921E+01  0.2920E+01
      4.877  0.5520E+00  0.5516E+00  0.2958E+01  0.2957E+01
      4.944  0.5702E+00  0.5696E+00  0.2996E+01  0.2995E+01
      5.010  0.6388E+00  0.6361E+00  0.3039E+01  0.3038E+01
      5.077  0.8140E+00  0.8104E+00  0.3093E+01  0.3092E+01
      5.143  0.9350E+00  0.9347E+00  0.3155E+01  0.3154E+01
      5.210  0.8753E+00  0.8781E+00  0.3214E+01  0.3212E+01
      5.277  0.7533E+00  0.7548E+00  0.3264E+01  0.3263E+01
      5.343  0.8028E+00  0.7998E+00  0.3317E+01  0.3316E+01
      5.410  0.9938E+00  0.9906E+00  0.3383E+01  0.3382E+01
      5.477  0.1073E+01  0.1073E+01  0.3455E+01  0.3454E+01
      5.543  0.9696E+00  0.9725E+00  0.3520E+01  0.3518E+01
      5.610  0.8749E+00  0.8755E+00  0.3578E+01  0.3577E+01
      5.676  0.9093E+00  0.9087E+00  0.3638E+01  0.3637E+01
      5.743  0.9456E+00  0.9456E+00  0.3701E+01  0.3700E+01
      5.810  0.9711E+00  0.9709E+00  0.3766E+01  0.3765E+01
      5.876  0.9904E+00  0.9900E+00  0.3832E+01  0.3831E+01
      5.943  0.1080E+01  0.1079E+01  0.3904E+01  0.3903E+01
      6.009  0.1190E+01  0.1189E+01  0.3984E+01  0.3982E+01
      6.076  0.1258E+01  0.1258E+01  0.4067E+01  0.4066E+01
      6.143  0.1335E+01  0.1334E+01  0.4156E+01  0.4155E+01
      6.209  0.1260E+01  0.1263E+01  0.4240E+01  0.4239E+01
      6.276  0.1021E+01  0.1025E+01  0.4308E+01  0.4307E+01
      6.342  0.8706E+00  0.8727E+00  0.4366E+01  0.4366E+01
      6.409  0.9065E+00  0.9055E+00  0.4427E+01  0.4426E+01
      6.476  0.1180E+01  0.1174E+01  0.4505E+01  0.4504E+01
      6.542  0.1629E+01  0.1624E+01  0.4614E+01  0.4612E+01
      6.609  0.1804E+01  0.1804E+01  0.4734E+01  0.4733E+01
      6.676  0.1610E+01  0.1613E+01  0.4842E+01  0.4840E+01
      6.742  0.1323E+01  0.1328E+01  0.4930E+01  0.4929E+01
      6.809  0.1101E+01  0.1106E+01  0.5003E+01  0.5002E+01
      6.875  0.8903E+00  0.8935E+00  0.5062E+01  0.5062E+01
      6.942  0.7471E+00  0.7481E+00  0.5112E+01  0.5112E+01
      7.009  0.7782E+00  0.7778E+00  0.5164E+01  0.5164E+01
      7.075  0.9125E+00  0.9118E+00  0.5225E+01  0.5225E+01
      7.142  0.8956E+00  0.8970E+00  0.5285E+01  0.5284E+01
      7.208  0.7515E+00  0.7526E+00  0.5335E+01  0.5335E+01
      7.275  0.6997E+00  0.7001E+00  0.5382E+01  0.5381E+01
      7.342  0.6537E+00  0.6545E+00  0.5425E+01  0.5425E+01
      7.408  0.6226E+00  0.6232E+00  0.5467E+01  0.5466E+01
      7.475  0.6303E+00  0.6307E+00  0.5509E+01  0.5508E+01
      7.541  0.6663E+00  0.6666E+00  0.5553E+01  0.5553E+01
      7.608  0.6859E+00  0.6859E+00  0.5599E+01  0.5599E+01
      7.675  0.7020E+00  0.7021E+00  0.5646E+01  0.5645E+01
      7.741  0.6782E+00  0.6783E+00  0.5691E+01  0.5691E+01
      7.808  0.7004E+00  0.7004E+00  0.5738E+01  0.5737E+01
      7.874  0.7276E+00  0.7283E+00  0.5786E+01  0.5786E+01
      7.941  0.6081E+00  0.6094E+00  0.5827E+01  0.5826E+01
      8.008  0.4804E+00  0.4809E+00  0.5859E+01  0.5859E+01
      8.074  0.4903E+00  0.4900E+00  0.5891E+01  0.5891E+01
      8.141  0.6139E+00  0.6134E+00  0.5932E+01  0.5932E+01
      8.208  0.7765E+00  0.7761E+00  0.5984E+01  0.5984E+01
      8.274  0.8001E+00  0.8004E+00  0.6037E+01  0.6037E+01
      8.341  0.5921E+00  0.5931E+00  0.6077E+01  0.6077E+01
      8.407  0.3461E+00  0.3471E+00  0.6100E+01  0.6100E+01
      8.474  0.2795E+00  0.2799E+00  0.6119E+01  0.6118E+01
      8.541  0.4083E+00  0.4083E+00  0.6146E+01  0.6146E+01
      8.607  0.5441E+00  0.5439E+00  0.6182E+01  0.6182E+01
      8.674  0.6268E+00  0.6265E+00  0.6224E+01  0.6224E+01
      8.740  0.6830E+00  0.6831E+00  0.6269E+01  0.6269E+01
      8.807  0.7124E+00  0.7131E+00  0.6317E+01  0.6317E+01
      8.874  0.8039E+00  0.8047E+00  0.6370E+01  0.6370E+01
      8.940  0.9599E+00  0.9601E+00  0.6434E+01  0.6434E+01
      9.007  0.1098E+01  0.1098E+01  0.6507E+01  0.6508E+01
      9.073  0.1121E+01  0.1121E+01  0.6582E+01  0.6582E+01
      9.140  0.1046E+01  0.1047E+01  0.6652E+01  0.6652E+01
      9.207  0.1080E+01  0.1080E+01  0.6724E+01  0.6724E+01
      9.273  0.1272E+01  0.1273E+01  0.6809E+01  0.6809E+01
      9.340  0.1338E+01  0.1338E+01  0.6898E+01  0.6898E+01
      9.406  0.1231E+01  0.1231E+01  0.6980E+01  0.6980E+01
      9.473  0.1145E+01  0.1144E+01  0.7056E+01  0.7056E+01
      9.540  0.1077E+01  0.1076E+01  0.7128E+01  0.7128E+01
      9.606  0.1105E+01  0.1104E+01  0.7202E+01  0.7202E+01
      9.673  0.1154E+01  0.1155E+01  0.7279E+01  0.7279E+01
      9.740  0.1169E+01  0.1170E+01  0.7356E+01  0.7357E+01
      9.806  0.1290E+01  0.1291E+01  0.7442E+01  0.7443E+01
      9.873  0.1541E+01  0.1543E+01  0.7545E+01  0.7546E+01
      9.939  0.1729E+01  0.1730E+01  0.7660E+01  0.7661E+01
     10.006  0.1773E+01  0.1777E+01  0.7779E+01  0.7779E+01
     10.073  0.1861E+01  0.1868E+01  0.7903E+01  0.7904E+01
     10.139  0.2170E+01  0.2179E+01  0.8047E+01  0.8049E+01
     10.206  0.2615E+01  0.2626E+01  0.8221E+01  0.8224E+01
     10.272  0.2801E+01  0.2807E+01  0.8408E+01  0.8411E+01
     10.339  0.2600E+01  0.2597E+01  0.8581E+01  0.8584E+01
     10.406  0.2259E+01  0.2252E+01  0.8732E+01  0.8734E+01
     10.472  0.1813E+01  0.1803E+01  0.8853E+01  0.8854E+01
     10.539  0.1345E+01  0.1334E+01  0.8942E+01  0.8943E+01
     10.605  0.9714E+00  0.9641E+00  0.9007E+01  0.9008E+01
     10.672  0.7096E+00  0.7041E+00  0.9055E+01  0.9055E+01
     10.739  0.6002E+00  0.5964E+00  0.9095E+01  0.9095E+01
     10.805  0.6704E+00  0.6681E+00  0.9139E+01  0.9139E+01
     10.872  0.8206E+00  0.8200E+00  0.9194E+01  0.9194E+01
     10.938  0.9137E+00  0.9138E+00  0.9255E+01  0.9255E+01
     11.005  0.9975E+00  0.9971E+00  0.9322E+01  0.9321E+01
     11.072  0.1024E+01  0.1024E+01  0.9390E+01  0.9390E+01
     11.138  0.9280E+00  0.9289E+00  0.9452E+01  0.9451E+01
     11.205  0.8440E+00  0.8446E+00  0.9508E+01  0.9508E+01
     11.272  0.8479E+00  0.8474E+00  0.9564E+01  0.9564E+01
     11.338  0.8579E+00  0.8572E+00  0.9622E+01  0.9621E+01
     11.405  0.8905E+00  0.8906E+00  0.9681E+01  0.9681E+01
     11.471  0.9636E+00  0.9645E+00  0.9745E+01  0.9745E+01
     11.538  0.1007E+01  0.1007E+01  0.9812E+01  0.9812E+01
     11.605  0.9327E+00  0.9327E+00  0.9874E+01  0.9874E+01
     11.671  0.8033E+00  0.8042E+00  0.9928E+01  0.9928E+01
     11.738  0.7224E+00  0.7234E+00  0.9976E+01  0.9976E+01
     11.804  0.7164E+00  0.7161E+00  0.1002E+02  0.1002E+02
     11.871  0.7836E+00  0.7844E+00  0.1008E+02  0.1008E+02
     11.938  0.7800E+00  0.7834E+00  0.1013E+02  0.1013E+02
     12.004  0.7825E+00  0.7866E+00  0.1018E+02  0.1018E+02
     12.071  0.8929E+00  0.8958E+00  0.1024E+02  0.1024E+02
     12.137  0.1080E+01  0.1081E+01  0.1031E+02  0.1031E+02
     12.204  0.1347E+01  0.1349E+01  0.1040E+02  0.1040E+02
     12.271  0.1484E+01  0.1489E+01  0.1050E+02  0.1050E+02
     12.337  0.1382E+01  0.1392E+01  0.1059E+02  0.1059E+02
     12.404  0.1274E+01  0.1286E+01  0.1068E+02  0.1068E+02
     12.471  0.1275E+01  0.1282E+01  0.1076E+02  0.1077E+02
     12.537  0.1403E+01  0.1402E+01  0.1086E+02  0.1086E+02
     12.604  0.1658E+01  0.1657E+01  0.1097E+02  0.1097E+02
     12.670  0.1814E+01  0.1808E+01  0.1109E+02  0.1109E+02
     12.737  0.1656E+01  0.1661E+01  0.1120E+02  0.1120E+02
     12.804  0.1378E+01  0.1388E+01  0.1129E+02  0.1129E+02
     12.870  0.1380E+01  0.1363E+01  0.1138E+02  0.1138E+02
     12.937  0.1379E+01  0.1354E+01  0.1147E+02  0.1147E+02
     13.003  0.1161E+01  0.1155E+01  0.1155E+02  0.1155E+02
     13.070  0.8878E+00  0.8979E+00  0.1161E+02  0.1161E+02
     13.137  0.6596E+00  0.6665E+00  0.1165E+02  0.1166E+02
     13.203  0.4976E+00  0.4968E+00  0.1169E+02  0.1169E+02
     13.270  0.4254E+00  0.4178E+00  0.1172E+02  0.1172E+02
     13.336  0.4632E+00  0.4486E+00  0.1175E+02  0.1175E+02
     13.403  0.5116E+00  0.4988E+00  0.1178E+02  0.1178E+02
     13.470  0.4497E+00  0.4485E+00  0.1181E+02  0.1181E+02
     13.536  0.3641E+00  0.3724E+00  0.1183E+02  0.1183E+02
     13.603  0.3096E+00  0.3171E+00  0.1186E+02  0.1186E+02
     13.669  0.2661E+00  0.2722E+00  0.1187E+02  0.1187E+02
     13.736  0.2372E+00  0.2395E+00  0.1189E+02  0.1189E+02
     13.803  0.2055E+00  0.2007E+00  0.1190E+02  0.1190E+02
     13.869  0.1453E+00  0.1415E+00  0.1191E+02  0.1191E+02
     13.936  0.1137E+00  0.1117E+00  0.1192E+02  0.1192E+02
     14.003  0.1166E+00  0.1138E+00  0.1193E+02  0.1193E+02
     14.069  0.1476E+00  0.1468E+00  0.1194E+02  0.1194E+02
     14.136  0.1798E+00  0.1873E+00  0.1195E+02  0.1195E+02
     14.202  0.1887E+00  0.1933E+00  0.1196E+02  0.1196E+02
     14.269  0.1776E+00  0.1719E+00  0.1197E+02  0.1197E+02
     14.336  0.1490E+00  0.1437E+00  0.1198E+02  0.1198E+02
     14.402  0.1020E+00  0.9415E-01  0.1199E+02  0.1199E+02
     14.469  0.4794E-01  0.4066E-01  0.1199E+02  0.1199E+02
     14.535  0.1597E-01  0.1285E-01  0.1200E+02  0.1199E+02
     14.602  0.4391E-02  0.3465E-02  0.1200E+02  0.1199E+02
     14.669  0.1157E-02  0.9066E-03  0.1200E+02  0.1199E+02
     14.735  0.6723E-03  0.5465E-03  0.1200E+02  0.1199E+02
     14.802  0.1565E-02  0.1334E-02  0.1200E+02  0.1199E+02
     14.868  0.4922E-02  0.4302E-02  0.1200E+02  0.1199E+02
     14.935  0.1081E-01  0.1008E-01  0.1200E+02  0.1200E+02
     15.002  0.1247E-01  0.1282E-01  0.1200E+02  0.1200E+02
     15.068  0.7144E-02  0.7951E-02  0.1200E+02  0.1200E+02
     15.135  0.2621E-02  0.3075E-02  0.1200E+02  0.1200E+02
     15.201  0.1061E-02  0.1465E-02  0.1200E+02  0.1200E+02
     15.268  0.1354E-02  0.2406E-02  0.1200E+02  0.1200E+02
     15.335  0.3471E-02  0.6598E-02  0.1200E+02  0.1200E+02
     15.401  0.6759E-02  0.1292E-01  0.1200E+02  0.1200E+02
     15.468  0.7480E-02  0.1321E-01  0.1200E+02  0.1200E+02
     15.535  0.4945E-02  0.7662E-02  0.1200E+02  0.1200E+02
     15.601  0.2162E-02  0.3122E-02  0.1200E+02  0.1200E+02
     15.668  0.6973E-03  0.9897E-03  0.1200E+02  0.1200E+02
     15.734  0.1957E-03  0.2769E-03  0.1200E+02  0.1200E+02
     15.801  0.4881E-04  0.3921E-04  0.1200E+02  0.1200E+02
     15.868  0.9067E-05  0.1042E-04  0.1200E+02  0.1200E+02
     15.934  0.0000E+00  0.0000E+00  0.1200E+02  0.1200E+02
     16.001  0.0000E+00  0.0000E+00  0.1200E+02  0.1200E+02
     16.067  0.0000E+00  0.0000E+00  0.1200E+02  0.1200E+02
     16.134  0.0000E+00  0.0000E+00  0.1200E+02  0.1200E+02
     16.201  0.0000E+00  0.0000E+00  0.1200E+02  0.1200E+02
     16.267  0.0000E+00  0.0000E+00  0.1200E+02  0.1200E+02
     16.334  0.0000E+00  0.0000E+00  0.1200E+02  0.1200E+02
     16.400  0.0000E+00  0.0000E+00  0.1200E+02  0.1200E+02
     16.40044531     -3.58230555  301      9.00021294      1.00000000
     -3.582  0.0000E+00  0.0000E+00  0.0000E+00  0.0000E+00  0.0000E+00  0.0000E+00  0.0000E+00  0.0000E+00  0.0000E+00  0.0000E+00  0.0000E+00  0.0000E+00  0.0000E+00  0.0000E+00  0.0000E+00  0.0000E+00  0.0000E+00  0.0000E+00
     -3.516  0.0000E+00  0.0000E+00  0.0000E+00  0.0000E+00  0.0000E+00  0.0000E+00  0.0000E+00  0.0000E+00  0.0000E+00  0.0000E+00  0.0000E+00  0.0000E+00  0.0000E+00  0.0000E+00  0.0000E+00  0.0000E+00  0.0000E+00  0.0000E+00
     -3.449  0.0000E+00  0.0000E+00  0.0000E+00  0.0000E+00  0.0000E+00  0.0000E+00  0.0000E+00  0.0000E+00  0.0000E+00  0.0000E+00  0.0000E+00  0.0000E+00  0.0000E+00  0.0000E+00  0.0000E+00  0.0000E+00  0.0000E+00  0.0000E+00
     -3.382  0.0000E+00  0.0000E+00  0.0000E+00  0.0000E+00  0.0000E+00  0.0000E+00  0.0000E+00  0.0000E+00  0.0000E+00  0.0000E+00  0.0000E+00  0.0000E+00  0.0000E+00  0.0000E+00  0.0000E+00  0.0000E+00  0.0000E+00  0.0000E+00
     -3.316  0.0000E+00  0.0000E+00  0.0000E+00  0.0000E+00  0.0000E+00  0.0000E+00  0.0000E+00  0.0000E+00  0.0000E+00  0.0000E+00  0.0000E+00  0.0000E+00  0.0000E+00  0.0000E+00  0.0000E+00  0.0000E+00  0.0000E+00  0.0000E+00
     -3.249  0.0000E+00  0.0000E+00  0.0000E+00  0.0000E+00  0.0000E+00  0.0000E+00  0.0000E+00  0.0000E+00  0.0000E+00  0.0000E+00  0.0000E+00  0.0000E+00  0.0000E+00  0.0000E+00  0.0000E+00  0.0000E+00  0.0000E+00  0.0000E+00
     -3.183  0.0000E+00  0.0000E+00  0.0000E+00  0.0000E+00  0.0000E+00  0.0000E+00  0.0000E+00  0.0000E+00  0.0000E+00  0.0000E+00  0.0000E+00  0.0000E+00  0.0000E+00  0.0000E+00  0.0000E+00  0.0000E+00  0.0000E+00  0.0000E+00
     -3.116  0.1540E-06  0.1492E-06  0.5877E-21  0.1655E-21  0.5877E-21  0.1655E-21  0.1290E-21  0.5629E-21  0.5960E-21  0.4249E-20  0.1534E-20  0.6820E-20  0.1883E-15  0.1829E-15  0.5960E-21  0.4249E-20  0.2418E-15  0.2355E-15
     -3.049  0.1403E-05  0.1359E-05  0.3006E-08  0.2913E-08  0.3006E-08  0.2913E-08  0.3004E-08  0.2912E-08  0.4949E-19  0.3750E-19  0.2889E-19  0.3736E-19  0.1328E-10  0.1287E-10  0.4949E-19  0.3750E-19  0.1699E-10  0.1647E-10
     -2.983  0.6396E-05  0.6199E-05  0.2120E-07  0.2054E-07  0.2120E-07  0.2054E-07  0.2119E-07  0.2054E-07  0.1295E-09  0.1255E-09  0.1295E-09  0.1256E-09  0.7340E-10  0.7113E-10  0.1295E-09  0.1255E-09  0.7553E-10  0.7320E-10
     -2.916  0.2356E-04  0.2284E-04  0.8113E-07  0.7864E-07  0.8113E-07  0.7864E-07  0.8110E-07  0.7861E-07  0.6396E-09  0.6202E-09  0.6397E-09  0.6203E-09  0.2414E-09  0.2340E-09  0.6396E-09  0.6202E-09  0.2576E-09  0.2497E-09
     -2.850  0.8802E-04  0.8535E-04  0.3074E-06  0.2980E-06  0.3074E-06  0.2980E-06  0.3073E-06  0.2979E-06  0.2141E-08  0.2077E-08  0.2142E-08  0.2077E-08  0.1167E-08  0.1131E-08  0.2141E-08  0.2077E-08  0.1301E-08  0.1261E-08
     -2.783  0.3243E-03  0.3149E-03  0.1213E-05  0.1176E-05  0.1213E-05  0.1176E-05  0.1212E-05  0.1175E-05  0.9401E-08  0.9118E-08  0.9404E-08  0.9122E-08  0.5047E-08  0.4894E-08  0.9401E-08  0.9118E-08  0.5624E-08  0.5453E-08
     -2.716  0.1084E-02  0.1055E-02  0.4387E-05  0.4261E-05  0.4387E-05  0.4261E-05  0.4386E-05  0.4259E-05  0.3685E-07  0.3576E-07  0.3686E-07  0.3578E-07  0.1794E-07  0.1742E-07  0.3685E-07  0.3576E-07  0.1999E-07  0.1941E-07
     -2.650  0.2976E-02  0.2915E-02  0.1404E-04  0.1368E-04  0.1404E-04  0.1368E-04  0.1403E-04  0.1368E-04  0.1273E-06  0.1238E-06  0.1274E-06  0.1238E-06  0.5771E-07  0.5623E-07  0.1273E-06  0.1238E-06  0.6369E-07  0.6207E-07
     -2.583  0.6069E-02  0.5991E-02  0.3599E-04  0.3532E-04  0.3599E-04  0.3532E-04  0.3598E-04  0.3531E-04  0.3939E-06  0.3849E-06  0.3940E-06  0.3850E-06  0.1574E-06  0.1540E-06  0.3939E-06  0.3849E-06  0.1730E-06  0.1692E-06
     -2.517  0.8881E-02  0.8830E-02  0.6983E-04  0.6893E-04  0.6983E-04  0.6893E-04  0.6980E-04  0.6889E-04  0.9419E-06  0.9261E-06  0.9421E-06  0.9264E-06  0.3834E-06  0.3754E-06  0.9419E-06  0.9261E-06  0.4381E-06  0.4283E-06
     -2.450  0.1061E-01  0.1057E-01  0.1168E-03  0.1154E-03  0.1168E-03  0.1154E-03  0.1167E-03  0.1153E-03  0.1856E-05  0.1828E-05  0.1857E-05  0.1829E-05  0.9434E-06  0.9241E-06  0.1856E-05  0.1828E-05  0.1125E-05  0.1102E-05
     -2.383  0.1343E-01  0.1335E-01  0.1971E-03  0.1948E-03  0.1971E-03  0.1948E-03  0.1970E-03  0.1947E-03  0.3764E-05  0.3704E-05  0.3766E-05  0.3706E-05  0.1960E-05  0.1933E-05  0.3764E-05  0.3704E-05  0.2350E-05  0.2318E-05
     -2.317  0.1661E-01  0.1657E-01  0.2872E-03  0.2856E-03  0.2872E-03  0.2856E-03  0.2872E-03  0.2856E-03  0.6857E-05  0.6788E-05  0.6858E-05  0.6789E-05  0.2831E-05  0.2816E-05  0.6857E-05  0.6788E-05  0.3366E-05  0.3350E-05
     -2.250  0.1579E-01  0.1584E-01  0.3153E-03  0.3151E-03  0.3153E-03  0.3151E-03  0.3153E-03  0.3151E-03  0.9472E-05  0.9421E-05  0.9474E-05  0.9424E-05  0.3167E-05  0.3155E-05  0.9472E-05  0.9421E-05  0.3655E-05  0.3645E-05
     -2.184  0.1445E-01  0.1442E-01  0.3600E-03  0.3575E-03  0.3600E-03  0.3575E-03  0.3598E-03  0.3572E-03  0.1325E-04  0.1312E-04  0.1326E-04  0.1313E-04  0.4562E-05  0.4499E-05  0.1325E-04  0.1312E-04  0.5054E-05  0.4985E-05
     -2.117  0.1787E-01  0.1776E-01  0.5329E-03  0.5279E-03  0.5329E-03  0.5279E-03  0.5323E-03  0.5274E-03  0.2070E-04  0.2054E-04  0.2071E-04  0.2054E-04  0.8650E-05  0.8525E-05  0.2070E-04  0.2054E-04  0.9872E-05  0.9718E-05
     -2.050  0.2145E-01  0.2140E-01  0.7099E-03  0.7068E-03  0.7099E-03  0.7068E-03  0.7094E-03  0.7063E-03  0.2679E-04  0.2670E-04  0.2679E-04  0.2671E-04  0.1408E-04  0.1397E-04  0.2679E-04  0.2670E-04  0.1681E-04  0.1666E-04
     -1.984  0.2126E-01  0.2129E-01  0.7765E-03  0.7757E-03  0.7765E-03  0.7757E-03  0.7764E-03  0.7756E-03  0.3223E-04  0.3208E-04  0.3224E-04  0.3209E-04  0.1663E-04  0.1662E-04  0.3223E-04  0.3208E-04  0.2021E-04  0.2020E-04
     -1.917  0.1978E-01  0.1978E-01  0.8102E-03  0.8081E-03  0.8102E-03  0.8081E-03  0.8102E-03  0.8082E-03  0.4424E-04  0.4388E-04  0.4427E-04  0.4391E-04  0.1597E-04  0.1596E-04  0.4424E-04  0.4388E-04  0.1883E-04  0.1886E-04
     -1.850  0.2118E-01  0.2111E-01  0.9732E-03  0.9680E-03  0.9732E-03  0.9680E-03  0.9728E-03  0.9675E-03  0.6550E-04  0.6501E-04  0.6554E-04  0.6505E-04  0.1806E-04  0.1796E-04  0.6550E-04  0.6501E-04  0.2017E-04  0.2009E-04
     -1.784  0.2242E-01  0.2245E-01  0.1113E-02  0.1112E-02  0.1113E-02  0.1112E-02  0.1112E-02  0.1112E-02  0.8023E-04  0.8023E-04  0.8022E-04  0.8022E-04  0.2161E-04  0.2154E-04  0.8023E-04  0.8023E-04  0.2413E-04  0.2404E-04
     -1.717  0.1902E-01  0.1909E-01  0.1041E-02  0.1041E-02  0.1041E-02  0.1041E-02  0.1040E-02  0.1040E-02  0.7292E-04  0.7313E-04  0.7289E-04  0.7310E-04  0.2523E-04  0.2508E-04  0.7292E-04  0.7313E-04  0.2964E-04  0.2941E-04
     -1.651  0.1982E-01  0.1971E-01  0.1249E-02  0.1239E-02  0.1249E-02  0.1239E-02  0.1247E-02  0.1236E-02  0.8476E-04  0.8408E-04  0.8483E-04  0.8414E-04  0.3865E-04  0.3823E-04  0.8476E-04  0.8408E-04  0.4702E-04  0.4650E-04
     -1.584  0.2551E-01  0.2540E-01  0.1736E-02  0.1726E-02  0.1736E-02  0.1726E-02  0.1734E-02  0.1724E-02  0.1266E-03  0.1258E-03  0.1268E-03  0.1259E-03  0.5657E-04  0.5627E-04  0.1266E-03  0.1258E-03  0.6806E-04  0.6774E-04
     -1.517  0.2691E-01  0.2693E-01  0.1933E-02  0.1932E-02  0.1933E-02  0.1932E-02  0.1933E-02  0.1932E-02  0.1608E-03  0.1603E-03  0.1609E-03  0.1604E-03  0.6216E-04  0.6217E-04  0.1608E-03  0.1603E-03  0.7228E-04  0.7236E-04
     -1.451  0.2556E-01  0.2557E-01  0.1972E-02  0.1970E-02  0.1972E-02  0.1970E-02  0.1972E-02  0.1969E-02  0.1875E-03  0.1869E-03  0.1875E-03  0.1870E-03  0.6226E-04  0.6222E-04  0.1875E-03  0.1869E-03  0.7090E-04  0.7085E-04
     -1.384  0.2521E-01  0.2522E-01  0.2085E-02  0.2083E-02  0.2085E-02  0.2083E-02  0.2085E-02  0.2083E-02  0.2197E-03  0.2191E-03  0.2197E-03  0.2191E-03  0.6415E-04  0.6423E-04  0.2197E-03  0.2191E-03  0.7381E-04  0.7388E-04
     -1.318  0.2231E-01  0.2242E-01  0.1943E-02  0.1949E-02  0.1943E-02  0.1949E-02  0.1944E-02  0.1951E-02  0.2324E-03  0.2327E-03  0.2322E-03  0.2326E-03  0.5372E-04  0.5408E-04  0.2324E-03  0.2327E-03  0.6207E-04  0.6248E-04
     -1.251  0.1799E-01  0.1803E-01  0.1713E-02  0.1712E-02  0.1713E-02  0.1712E-02  0.1711E-02  0.1711E-02  0.2256E-03  0.2255E-03  0.2257E-03  0.2256E-03  0.4689E-04  0.4675E-04  0.2256E-03  0.2255E-03  0.5428E-04  0.5412E-04
     -1.184  0.1981E-01  0.1969E-01  0.2149E-02  0.2131E-02  0.2149E-02  0.2131E-02  0.2142E-02  0.2124E-02  0.2790E-03  0.2772E-03  0.2796E-03  0.2777E-03  0.7251E-04  0.7159E-04  0.2790E-03  0.2772E-03  0.8414E-04  0.8307E-04
     -1.118  0.2626E-01  0.2611E-01  0.3109E-02  0.3088E-02  0.3109E-02  0.3088E-02  0.3101E-02  0.3079E-02  0.3835E-03  0.3815E-03  0.3839E-03  0.3820E-03  0.1216E-03  0.1206E-03  0.3835E-03  0.3815E-03  0.1412E-03  0.1399E-03
     -1.051  0.2884E-01  0.2886E-01  0.3623E-02  0.3621E-02  0.3623E-02  0.3621E-02  0.3621E-02  0.3619E-02  0.4408E-03  0.4409E-03  0.4407E-03  0.4407E-03  0.1486E-03  0.1486E-03  0.4408E-03  0.4409E-03  0.1748E-03  0.1747E-03
     -0.985  0.2559E-01  0.2564E-01  0.3432E-02  0.3434E-02  0.3432E-02  0.3434E-02  0.3432E-02  0.3434E-02  0.4519E-03  0.4512E-03  0.4519E-03  0.4512E-03  0.1370E-03  0.1373E-03  0.4519E-03  0.4512E-03  0.1634E-03  0.1638E-03
     -0.918  0.2561E-01  0.2557E-01  0.3683E-02  0.3672E-02  0.3683E-02  0.3672E-02  0.3680E-02  0.3669E-02  0.5509E-03  0.5487E-03  0.5514E-03  0.5492E-03  0.1391E-03  0.1388E-03  0.5509E-03  0.5487E-03  0.1660E-03  0.1657E-03
     -0.851  0.2443E-01  0.2453E-01  0.3709E-02  0.3720E-02  0.3709E-02  0.3720E-02  0.3711E-02  0.3722E-02  0.5828E-03  0.5845E-03  0.5829E-03  0.5846E-03  0.1420E-03  0.1424E-03  0.5828E-03  0.5845E-03  0.1685E-03  0.1690E-03
     -0.785  0.1860E-01  0.1869E-01  0.3020E-02  0.3030E-02  0.3020E-02  0.3030E-02  0.3023E-02  0.3033E-02  0.5288E-03  0.5288E-03  0.5292E-03  0.5292E-03  0.1153E-03  0.1159E-03  0.5288E-03  0.5288E-03  0.1326E-03  0.1334E-03
     -0.718  0.1856E-01  0.1847E-01  0.3327E-02  0.3304E-02  0.3327E-02  0.3304E-02  0.3319E-02  0.3297E-02  0.6879E-03  0.6822E-03  0.6893E-03  0.6836E-03  0.1157E-03  0.1152E-03  0.6879E-03  0.6822E-03  0.1266E-03  0.1261E-03
     -0.652  0.2345E-01  0.2335E-01  0.4698E-02  0.4666E-02  0.4698E-02  0.4666E-02  0.4680E-02  0.4648E-02  0.9884E-03  0.9834E-03  0.9896E-03  0.9846E-03  0.1504E-03  0.1496E-03  0.9884E-03  0.9834E-03  0.1650E-03  0.1641E-03
     -0.585  0.2517E-01  0.2518E-01  0.5884E-02  0.5867E-02  0.5884E-02  0.5867E-02  0.5864E-02  0.5847E-02  0.1134E-02  0.1134E-02  0.1134E-02  0.1134E-02  0.1781E-03  0.1778E-03  0.1134E-02  0.1134E-02  0.2002E-03  0.1998E-03
     -0.518  0.2179E-01  0.2189E-01  0.6142E-02  0.6145E-02  0.6142E-02  0.6145E-02  0.6134E-02  0.6137E-02  0.1074E-02  0.1076E-02  0.1073E-02  0.1076E-02  0.1743E-03  0.1747E-03  0.1074E-02  0.1076E-02  0.2003E-03  0.2007E-03
     -0.452  0.1787E-01  0.1793E-01  0.5889E-02  0.5890E-02  0.5889E-02  0.5890E-02  0.5886E-02  0.5888E-02  0.1054E-02  0.1054E-02  0.1055E-02  0.1055E-02  0.1558E-03  0.1561E-03  0.1054E-02  0.1054E-02  0.1822E-03  0.1825E-03
     -0.385  0.1601E-01  0.1604E-01  0.6047E-02  0.6041E-02  0.6047E-02  0.6041E-02  0.6040E-02  0.6034E-02  0.1181E-02  0.1178E-02  0.1182E-02  0.1180E-02  0.1525E-03  0.1525E-03  0.1181E-02  0.1178E-02  0.1793E-03  0.1793E-03
     -0.318  0.1500E-01  0.1499E-01  0.6101E-02  0.6101E-02  0.6101E-02  0.6101E-02  0.6108E-02  0.6108E-02  0.1370E-02  0.1365E-02  0.1372E-02  0.1367E-02  0.1499E-03  0.1499E-03  0.1370E-02  0.1365E-02  0.1709E-03  0.1712E-03
     -0.252  0.1688E-01  0.1682E-01  0.6239E-02  0.6228E-02  0.6239E-02  0.6228E-02  0.6244E-02  0.6234E-02  0.1821E-02  0.1811E-02  0.1825E-02  0.1815E-02  0.1520E-03  0.1518E-03  0.1821E-02  0.1811E-02  0.1621E-03  0.1621E-03