   4   4   1   0
  0.1620639E+02  0.4016500E-09  0.4017439E-09  0.4017439E-09  0.5000000E-15
  1.000000000000000E-004
  CAR 
 unknown system                          
     12.37659998     -4.11442284  301      7.18628632      1.00000000
     -4.114  0.0000E+00  0.0000E+00  0.0000E+00  0.0000E+00
     -4.059  0.0000E+00  0.0000E+00  0.0000E+00  0.0000E+00
     -4.004  0.0000E+00  0.0000E+00  0.0000E+00  0.0000E+00
     -3.950  0.0000E+00  0.0000E+00  0.0000E+00  0.0000E+00
     -3.895  0.0000E+00  0.0000E+00  0.0000E+00  0.0000E+00
     -3.840  0.0000E+00  0.0000E+00  0.0000E+00  0.0000E+00
     -3.785  0.1870E-05  0.1852E-05  0.1028E-06  0.1018E-06
     -3.730  0.1490E-04  0.1475E-04  0.9219E-06  0.9129E-06
     -3.675  0.5579E-04  0.5525E-04  0.3989E-05  0.3950E-05
     -3.620  0.1598E-03  0.1582E-03  0.1277E-04  0.1265E-04
     -3.565  0.4730E-03  0.4684E-03  0.3877E-04  0.3839E-04
     -3.510  0.1428E-02  0.1414E-02  0.1173E-03  0.1161E-03
     -3.455  0.4078E-02  0.4041E-02  0.3414E-03  0.3383E-03
     -3.400  0.1073E-01  0.1064E-01  0.9310E-03  0.9231E-03
     -3.345  0.2440E-01  0.2425E-01  0.2272E-02  0.2256E-02
     -3.290  0.4471E-01  0.4452E-01  0.4730E-02  0.4703E-02
     -3.235  0.6474E-01  0.6458E-01  0.8289E-02  0.8253E-02
     -3.180  0.8043E-01  0.8029E-01  0.1271E-01  0.1267E-01
     -3.125  0.9976E-01  0.9955E-01  0.1819E-01  0.1814E-01
     -3.070  0.1225E+00  0.1223E+00  0.2493E-01  0.2486E-01
     -3.015  0.1288E+00  0.1288E+00  0.3201E-01  0.3194E-01
     -2.960  0.1227E+00  0.1227E+00  0.3875E-01  0.3869E-01
     -2.905  0.1361E+00  0.1359E+00  0.4624E-01  0.4616E-01
     -2.850  0.1657E+00  0.1655E+00  0.5535E-01  0.5526E-01
     -2.795  0.1815E+00  0.1814E+00  0.6533E-01  0.6524E-01
     -2.740  0.1789E+00  0.1789E+00  0.7516E-01  0.7508E-01
     -2.685  0.1786E+00  0.1785E+00  0.8499E-01  0.8490E-01
     -2.630  0.1937E+00  0.1936E+00  0.9565E-01  0.9555E-01
     -2.575  0.1971E+00  0.1972E+00  0.1065E+00  0.1064E+00
     -2.520  0.1828E+00  0.1828E+00  0.1165E+00  0.1164E+00
     -2.465  0.2003E+00  0.2000E+00  0.1276E+00  0.1275E+00
     -2.410  0.2437E+00  0.2434E+00  0.1410E+00  0.1408E+00
     -2.355  0.2621E+00  0.2620E+00  0.1554E+00  0.1553E+00
     -2.300  0.2596E+00  0.2597E+00  0.1697E+00  0.1695E+00
     -2.245  0.2584E+00  0.2584E+00  0.1839E+00  0.1837E+00
     -2.190  0.2433E+00  0.2435E+00  0.1973E+00  0.1971E+00
     -2.136  0.2134E+00  0.2136E+00  0.2090E+00  0.2089E+00
     -2.081  0.2175E+00  0.2172E+00  0.2209E+00  0.2208E+00
     -2.026  0.2729E+00  0.2723E+00  0.2360E+00  0.2358E+00
     -1.971  0.3303E+00  0.3300E+00  0.2541E+00  0.2540E+00
     -1.916  0.3356E+00  0.3357E+00  0.2726E+00  0.2724E+00
     -1.861  0.3208E+00  0.3208E+00  0.2902E+00  0.2901E+00
     -1.806  0.3307E+00  0.3307E+00  0.3084E+00  0.3083E+00
     -1.751  0.3092E+00  0.3096E+00  0.3254E+00  0.3253E+00
     -1.696  0.2649E+00  0.2651E+00  0.3400E+00  0.3399E+00
     -1.641  0.2850E+00  0.2845E+00  0.3557E+00  0.3555E+00
     -1.586  0.3618E+00  0.3611E+00  0.3755E+00  0.3754E+00
     -1.531  0.4222E+00  0.4219E+00  0.3988E+00  0.3986E+00
     -1.476  0.4244E+00  0.4246E+00  0.4221E+00  0.4219E+00
     -1.421  0.3929E+00  0.3931E+00  0.4437E+00  0.4435E+00
     -1.366  0.3797E+00  0.3797E+00  0.4646E+00  0.4644E+00
     -1.311  0.3765E+00  0.3765E+00  0.4853E+00  0.4851E+00
     -1.256  0.3769E+00  0.3767E+00  0.5060E+00  0.5058E+00
     -1.201  0.4140E+00  0.4136E+00  0.5288E+00  0.5286E+00
     -1.146  0.4505E+00  0.4503E+00  0.5536E+00  0.5534E+00
     -1.091  0.4395E+00  0.4398E+00  0.5777E+00  0.5776E+00
     -1.036  0.3875E+00  0.3881E+00  0.5991E+00  0.5989E+00
     -0.981  0.3170E+00  0.3176E+00  0.6165E+00  0.6164E+00
     -0.926  0.2765E+00  0.2766E+00  0.6317E+00  0.6316E+00
     -0.871  0.2870E+00  0.2867E+00  0.6475E+00  0.6473E+00
     -0.816  0.3538E+00  0.3532E+00  0.6669E+00  0.6668E+00
     -0.761  0.4182E+00  0.4180E+00  0.6900E+00  0.6898E+00
     -0.706  0.3908E+00  0.3913E+00  0.7115E+00  0.7113E+00
     -0.651  0.3253E+00  0.3258E+00  0.7293E+00  0.7292E+00
     -0.596  0.2796E+00  0.2800E+00  0.7447E+00  0.7446E+00
     -0.541  0.2420E+00  0.2421E+00  0.7580E+00  0.7579E+00
     -0.486  0.2664E+00  0.2657E+00  0.7727E+00  0.7725E+00
     -0.431  0.3837E+00  0.3825E+00  0.7938E+00  0.7936E+00
     -0.376  0.4946E+00  0.4942E+00  0.8210E+00  0.8208E+00
     -0.321  0.4808E+00  0.4814E+00  0.8474E+00  0.8472E+00
     -0.267  0.4088E+00  0.4092E+00  0.8699E+00  0.8697E+00
     -0.212  0.3733E+00  0.3735E+00  0.8905E+00  0.8903E+00
     -0.157  0.3284E+00  0.3288E+00  0.9085E+00  0.9084E+00
     -0.102  0.3163E+00  0.3161E+00  0.9259E+00  0.9257E+00
     -0.047  0.3973E+00  0.3965E+00  0.9477E+00  0.9475E+00
      0.008  0.4739E+00  0.4736E+00  0.9738E+00  0.9736E+00
      0.063  0.4444E+00  0.4450E+00  0.9983E+00  0.9981E+00
      0.118  0.3565E+00  0.3571E+00  0.1018E+01  0.1018E+01
      0.173  0.3226E+00  0.3225E+00  0.1036E+01  0.1035E+01
      0.228  0.3460E+00  0.3456E+00  0.1055E+01  0.1054E+01
      0.283  0.3864E+00  0.3860E+00  0.1076E+01  0.1076E+01
      0.338  0.4664E+00  0.4655E+00  0.1102E+01  0.1101E+01
      0.393  0.5508E+00  0.5502E+00  0.1132E+01  0.1132E+01
      0.448  0.5343E+00  0.5351E+00  0.1161E+01  0.1161E+01
      0.503  0.4307E+00  0.4316E+00  0.1185E+01  0.1185E+01
      0.558  0.3599E+00  0.3602E+00  0.1205E+01  0.1205E+01
      0.613  0.3459E+00  0.3459E+00  0.1224E+01  0.1224E+01
      0.668  0.3674E+00  0.3671E+00  0.1244E+01  0.1244E+01
      0.723  0.4293E+00  0.4286E+00  0.1268E+01  0.1267E+01
      0.778  0.5081E+00  0.5074E+00  0.1295E+01  0.1295E+01
      0.833  0.5197E+00  0.5200E+00  0.1324E+01  0.1324E+01
      0.888  0.4442E+00  0.4448E+00  0.1349E+01  0.1348E+01
      0.943  0.4125E+00  0.4123E+00  0.1371E+01  0.1371E+01
      0.998  0.4637E+00  0.4631E+00  0.1397E+01  0.1396E+01
      1.053  0.5277E+00  0.5271E+00  0.1426E+01  0.1425E+01
      1.108  0.6011E+00  0.6004E+00  0.1459E+01  0.1458E+01
      1.163  0.6848E+00  0.6842E+00  0.1496E+01  0.1496E+01
      1.218  0.6975E+00  0.6979E+00  0.1535E+01  0.1534E+01
      1.273  0.6289E+00  0.6295E+00  0.1569E+01  0.1569E+01
      1.328  0.6129E+00  0.6126E+00  0.1603E+01  0.1603E+01
      1.383  0.6758E+00  0.6752E+00  0.1640E+01  0.1640E+01
      1.438  0.7077E+00  0.7078E+00  0.1679E+01  0.1679E+01
      1.493  0.6619E+00  0.6627E+00  0.1716E+01  0.1715E+01
      1.547  0.5701E+00  0.5710E+00  0.1747E+01  0.1747E+01
      1.602  0.5181E+00  0.5183E+00  0.1775E+01  0.1775E+01
      1.657  0.5496E+00  0.5491E+00  0.1806E+01  0.1805E+01
      1.712  0.6336E+00  0.6329E+00  0.1840E+01  0.1840E+01
      1.767  0.6962E+00  0.6960E+00  0.1879E+01  0.1878E+01
      1.822  0.6887E+00  0.6890E+00  0.1917E+01  0.1916E+01
      1.877  0.6328E+00  0.6334E+00  0.1951E+01  0.1951E+01
      1.932  0.5848E+00  0.5850E+00  0.1984E+01  0.1983E+01
      1.987  0.6069E+00  0.6065E+00  0.2017E+01  0.2017E+01
      2.042  0.6781E+00  0.6775E+00  0.2054E+01  0.2054E+01
      2.097  0.7315E+00  0.7313E+00  0.2095E+01  0.2094E+01
      2.152  0.7260E+00  0.7263E+00  0.2134E+01  0.2134E+01
      2.207  0.6900E+00  0.6903E+00  0.2172E+01  0.2172E+01
      2.262  0.6539E+00  0.6544E+00  0.2208E+01  0.2208E+01
      2.317  0.5702E+00  0.5711E+00  0.2240E+01  0.2240E+01
      2.372  0.5073E+00  0.5074E+00  0.2268E+01  0.2267E+01
      2.427  0.5443E+00  0.5437E+00  0.2298E+01  0.2297E+01
      2.482  0.6067E+00  0.6063E+00  0.2331E+01  0.2331E+01
      2.537  0.6175E+00  0.6176E+00  0.2365E+01  0.2365E+01
      2.592  0.5971E+00  0.5974E+00  0.2398E+01  0.2398E+01
      2.647  0.5625E+00  0.5628E+00  0.2429E+01  0.2428E+01
      2.702  0.5546E+00  0.5546E+00  0.2459E+01  0.2459E+01
      2.757  0.5401E+00  0.5404E+00  0.2489E+01  0.2489E+01
      2.812  0.4860E+00  0.4863E+00  0.2516E+01  0.2515E+01
      2.867  0.4813E+00  0.4809E+00  0.2542E+01  0.2542E+01
      2.922  0.5345E+00  0.5339E+00  0.2572E+01  0.2571E+01
      2.977  0.5815E+00  0.5812E+00  0.2604E+01  0.2603E+01
      3.032  0.6084E+00  0.6083E+00  0.2637E+01  0.2637E+01
      3.087  0.6235E+00  0.6234E+00  0.2671E+01  0.2671E+01
      3.142  0.6847E+00  0.6839E+00  0.2709E+01  0.2709E+01
      3.197  0.8442E+00  0.8430E+00  0.2755E+01  0.2755E+01
      3.252  0.9500E+00  0.9500E+00  0.2808E+01  0.2807E+01
      3.307  0.8658E+00  0.8671E+00  0.2855E+01  0.2855E+01
      3.362  0.6860E+00  0.6872E+00  0.2893E+01  0.2893E+01
      3.416  0.5764E+00  0.5768E+00  0.2925E+01  0.2924E+01
      3.471  0.5484E+00  0.5484E+00  0.2955E+01  0.2955E+01
      3.526  0.5583E+00  0.5580E+00  0.2986E+01  0.2985E+01
      3.581  0.6140E+00  0.6133E+00  0.3019E+01  0.3019E+01
      3.636  0.7405E+00  0.7393E+00  0.3060E+01  0.3060E+01
      3.691  0.9113E+00  0.9101E+00  0.3110E+01  0.3110E+01
      3.746  0.1018E+01  0.1018E+01  0.3166E+01  0.3166E+01
      3.801  0.9557E+00  0.9566E+00  0.3219E+01  0.3218E+01
      3.856  0.8304E+00  0.8312E+00  0.3264E+01  0.3264E+01
      3.911  0.8339E+00  0.8335E+00  0.3310E+01  0.3310E+01
      3.966  0.9726E+00  0.9716E+00  0.3364E+01  0.3363E+01
      4.021  0.1069E+01  0.1068E+01  0.3422E+01  0.3422E+01
      4.076  0.1033E+01  0.1033E+01  0.3479E+01  0.3479E+01
      4.131  0.9297E+00  0.9305E+00  0.3530E+01  0.3530E+01
      4.186  0.8530E+00  0.8534E+00  0.3577E+01  0.3577E+01
      4.241  0.8508E+00  0.8508E+00  0.3624E+01  0.3624E+01
      4.296  0.9007E+00  0.9003E+00  0.3674E+01  0.3673E+01
      4.351  0.1019E+01  0.1018E+01  0.3730E+01  0.3729E+01
      4.406  0.1144E+01  0.1144E+01  0.3793E+01  0.3792E+01
      4.461  0.1183E+01  0.1183E+01  0.3858E+01  0.3857E+01
      4.516  0.1121E+01  0.1122E+01  0.3919E+01  0.3919E+01
      4.571  0.1059E+01  0.1059E+01  0.3978E+01  0.3977E+01
      4.626  0.1112E+01  0.1112E+01  0.4039E+01  0.4038E+01
      4.681  0.1253E+01  0.1253E+01  0.4108E+01  0.4107E+01
      4.736  0.1374E+01  0.1374E+01  0.4183E+01  0.4183E+01
      4.791  0.1294E+01  0.1295E+01  0.4254E+01  0.4254E+01
      4.846  0.1028E+01  0.1030E+01  0.4311E+01  0.4311E+01
      4.901  0.8653E+00  0.8657E+00  0.4359E+01  0.4358E+01
      4.956  0.1004E+01  0.1003E+01  0.4414E+01  0.4414E+01
      5.011  0.1420E+01  0.1418E+01  0.4492E+01  0.4492E+01
      5.066  0.1857E+01  0.1856E+01  0.4594E+01  0.4594E+01
      5.121  0.2024E+01  0.2025E+01  0.4705E+01  0.4705E+01
      5.176  0.1922E+01  0.1923E+01  0.4811E+01  0.4811E+01
      5.230  0.1591E+01  0.1593E+01  0.4899E+01  0.4898E+01
      5.285  0.1196E+01  0.1198E+01  0.4964E+01  0.4964E+01
      5.340  0.1009E+01  0.1010E+01  0.5020E+01  0.5020E+01
      5.395  0.9705E+00  0.9708E+00  0.5073E+01  0.5073E+01
      5.450  0.9192E+00  0.9195E+00  0.5124E+01  0.5124E+01
      5.505  0.9228E+00  0.9230E+00  0.5175E+01  0.5175E+01
      5.560  0.1016E+01  0.1016E+01  0.5231E+01  0.5230E+01
      5.615  0.1031E+01  0.1031E+01  0.5287E+01  0.5287E+01
      5.670  0.9274E+00  0.9275E+00  0.5338E+01  0.5338E+01
      5.725  0.8073E+00  0.8077E+00  0.5383E+01  0.5383E+01
      5.780  0.7576E+00  0.7581E+00  0.5424E+01  0.5424E+01
      5.835  0.7385E+00  0.7389E+00  0.5465E+01  0.5465E+01
      5.890  0.7266E+00  0.7269E+00  0.5505E+01  0.5505E+01
      5.945  0.7510E+00  0.7513E+00  0.5546E+01  0.5546E+01
      6.000  0.7697E+00  0.7699E+00  0.5589E+01  0.5589E+01
      6.055  0.7727E+00  0.7728E+00  0.5631E+01  0.5631E+01
      6.110  0.7883E+00  0.7883E+00  0.5675E+01  0.5675E+01
      6.165  0.7998E+00  0.7999E+00  0.5718E+01  0.5719E+01
      6.220  0.8053E+00  0.8056E+00  0.5763E+01  0.5763E+01
      6.275  0.7370E+00  0.7371E+00  0.5803E+01  0.5803E+01
      6.330  0.6143E+00  0.6143E+00  0.5837E+01  0.5837E+01
      6.385  0.5897E+00  0.5898E+00  0.5870E+01  0.5870E+01
      6.440  0.6962E+00  0.6965E+00  0.5908E+01  0.5908E+01
      6.495  0.8212E+00  0.8216E+00  0.5953E+01  0.5953E+01
      6.550  0.8596E+00  0.8597E+00  0.6000E+01  0.6000E+01
      6.605  0.8016E+00  0.8012E+00  0.6044E+01  0.6045E+01
      6.660  0.6222E+00  0.6216E+00  0.6079E+01  0.6079E+01
      6.715  0.4407E+00  0.4405E+00  0.6103E+01  0.6103E+01
      6.770  0.4378E+00  0.4383E+00  0.6127E+01  0.6127E+01
      6.825  0.6048E+00  0.6055E+00  0.6160E+01  0.6160E+01
      6.880  0.7403E+00  0.7406E+00  0.6201E+01  0.6201E+01
      6.935  0.7460E+00  0.7461E+00  0.6242E+01  0.6242E+01
      6.990  0.7585E+00  0.7590E+00  0.6284E+01  0.6284E+01
      7.045  0.8664E+00  0.8673E+00  0.6331E+01  0.6332E+01
      7.099  0.1057E+01  0.1059E+01  0.6390E+01  0.6390E+01
      7.154  0.1248E+01  0.1249E+01  0.6458E+01  0.6459E+01
      7.209  0.1302E+01  0.1303E+01  0.6530E+01  0.6530E+01
      7.264  0.1253E+01  0.1253E+01  0.6599E+01  0.6599E+01
      7.319  0.1266E+01  0.1266E+01  0.6668E+01  0.6669E+01
      7.374  0.1416E+01  0.1417E+01  0.6746E+01  0.6747E+01
      7.429  0.1574E+01  0.1575E+01  0.6833E+01  0.6833E+01
      7.484  0.1593E+01  0.1593E+01  0.6920E+01  0.6921E+01
      7.539  0.1501E+01  0.1501E+01  0.7003E+01  0.7003E+01
      7.594  0.1439E+01  0.1438E+01  0.7082E+01  0.7082E+01
      7.649  0.1406E+01  0.1405E+01  0.7159E+01  0.7160E+01
      7.704  0.1396E+01  0.1396E+01  0.7236E+01  0.7236E+01
      7.759  0.1481E+01  0.1482E+01  0.7318E+01  0.7318E+01
      7.814  0.1683E+01  0.1685E+01  0.7410E+01  0.7411E+01
      7.869  0.1993E+01  0.1996E+01  0.7520E+01  0.7520E+01
      7.924  0.2339E+01  0.2342E+01  0.7648E+01  0.7649E+01
      7.979  0.2581E+01  0.2583E+01  0.7790E+01  0.7791E+01
      8.034  0.2756E+01  0.2759E+01  0.7942E+01  0.7943E+01
      8.089  0.2995E+01  0.3000E+01  0.8107E+01  0.8108E+01
      8.144  0.3191E+01  0.3193E+01  0.8282E+01  0.8283E+01
      8.199  0.3123E+01  0.3122E+01  0.8454E+01  0.8455E+01
      8.254  0.2827E+01  0.2824E+01  0.8609E+01  0.8610E+01
      8.309  0.2440E+01  0.2436E+01  0.8743E+01  0.8744E+01
      8.364  0.1989E+01  0.1984E+01  0.8853E+01  0.8854E+01
      8.419  0.1544E+01  0.1539E+01  0.8938E+01  0.8938E+01
      8.474  0.1202E+01  0.1199E+01  0.9004E+01  0.9004E+01
      8.529  0.9935E+00  0.9915E+00  0.9059E+01  0.9059E+01
      8.584  0.9147E+00  0.9138E+00  0.9109E+01  0.9109E+01
      8.639  0.9216E+00  0.9210E+00  0.9160E+01  0.9160E+01
      8.694  0.9385E+00  0.9380E+00  0.9211E+01  0.9212E+01
      8.749  0.9970E+00  0.9973E+00  0.9266E+01  0.9266E+01
      8.804  0.1123E+01  0.1124E+01  0.9328E+01  0.9328E+01
      8.859  0.1203E+01  0.1203E+01  0.9394E+01  0.9394E+01
      8.913  0.1198E+01  0.1198E+01  0.9460E+01  0.9460E+01
      8.968  0.1181E+01  0.1182E+01  0.9525E+01  0.9525E+01
      9.023  0.1186E+01  0.1187E+01  0.9590E+01  0.9591E+01
      9.078  0.1165E+01  0.1165E+01  0.9654E+01  0.9655E+01
      9.133  0.1142E+01  0.1142E+01  0.9717E+01  0.9717E+01
      9.188  0.1257E+01  0.1258E+01  0.9786E+01  0.9787E+01
      9.243  0.1432E+01  0.1433E+01  0.9865E+01  0.9866E+01
      9.298  0.1461E+01  0.1462E+01  0.9945E+01  0.9946E+01
      9.353  0.1370E+01  0.1371E+01  0.1002E+02  0.1002E+02
      9.408  0.1213E+01  0.1213E+01  0.1009E+02  0.1009E+02
      9.463  0.1054E+01  0.1054E+01  0.1015E+02  0.1015E+02
      9.518  0.1087E+01  0.1090E+01  0.1021E+02  0.1021E+02
      9.573  0.1308E+01  0.1312E+01  0.1028E+02  0.1028E+02
      9.628  0.1557E+01  0.1563E+01  0.1036E+02  0.1036E+02
      9.683  0.1702E+01  0.1708E+01  0.1046E+02  0.1046E+02
      9.738  0.1651E+01  0.1654E+01  0.1055E+02  0.1055E+02
      9.793  0.1481E+01  0.1482E+01  0.1063E+02  0.1063E+02
      9.848  0.1408E+01  0.1408E+01  0.1071E+02  0.1071E+02
      9.903  0.1505E+01  0.1504E+01  0.1079E+02  0.1079E+02
      9.958  0.1538E+01  0.1538E+01  0.1087E+02  0.1088E+02
     10.013  0.1347E+01  0.1355E+01  0.1095E+02  0.1095E+02
     10.068  0.1193E+01  0.1217E+01  0.1101E+02  0.1102E+02
     10.123  0.1273E+01  0.1298E+01  0.1108E+02  0.1109E+02
     10.178  0.1475E+01  0.1478E+01  0.1116E+02  0.1117E+02
     10.233  0.1589E+01  0.1565E+01  0.1125E+02  0.1126E+02
     10.288  0.1486E+01  0.1462E+01  0.1133E+02  0.1134E+02
     10.343  0.1268E+01  0.1266E+01  0.1140E+02  0.1141E+02
     10.398  0.1117E+01  0.1144E+01  0.1146E+02  0.1147E+02
     10.453  0.1031E+01  0.1078E+01  0.1152E+02  0.1153E+02
     10.508  0.8913E+00  0.9260E+00  0.1157E+02  0.1158E+02
     10.563  0.7322E+00  0.7385E+00  0.1161E+02  0.1162E+02
     10.618  0.6607E+00  0.6521E+00  0.1165E+02  0.1166E+02
     10.673  0.6550E+00  0.6519E+00  0.1168E+02  0.1169E+02
     10.727  0.6070E+00  0.6103E+00  0.1172E+02  0.1172E+02
     10.782  0.5181E+00  0.5187E+00  0.1175E+02  0.1175E+02
     10.837  0.4746E+00  0.4859E+00  0.1177E+02  0.1178E+02
     10.892  0.5032E+00  0.5371E+00  0.1180E+02  0.1181E+02
     10.947  0.5560E+00  0.6002E+00  0.1183E+02  0.1184E+02
     11.002  0.5966E+00  0.6217E+00  0.1186E+02  0.1188E+02
     11.057  0.5990E+00  0.5681E+00  0.1190E+02  0.1191E+02
     11.112  0.5255E+00  0.4473E+00  0.1192E+02  0.1193E+02
     11.167  0.3990E+00  0.3246E+00  0.1195E+02  0.1195E+02
     11.222  0.2948E+00  0.2534E+00  0.1196E+02  0.1196E+02
     11.277  0.2326E+00  0.2149E+00  0.1198E+02  0.1198E+02
     11.332  0.1809E+00  0.1704E+00  0.1199E+02  0.1199E+02
     11.387  0.1191E+00  0.1125E+00  0.1199E+02  0.1199E+02
     11.442  0.6060E-01  0.5882E-01  0.1200E+02  0.1200E+02
     11.497  0.2627E-01  0.2624E-01  0.1200E+02  0.1200E+02
     11.552  0.1419E-01  0.1440E-01  0.1200E+02  0.1200E+02
     11.607  0.1365E-01  0.1375E-01  0.1200E+02  0.1200E+02
     11.662  0.1404E-01  0.1411E-01  0.1200E+02  0.1200E+02
     11.717  0.9646E-02  0.9650E-02  0.1200E+02  0.1200E+02
     11.772  0.4452E-02  0.4446E-02  0.1200E+02  0.1200E+02
     11.827  0.1697E-02  0.1694E-02  0.1200E+02  0.1200E+02
     11.882  0.5927E-03  0.5916E-03  0.1200E+02  0.1200E+02
     11.937  0.2006E-03  0.2002E-03  0.1200E+02  0.1200E+02
     11.992  0.6718E-04  0.6705E-04  0.1200E+02  0.1200E+02
     12.047  0.0000E+00  0.0000E+00  0.1200E+02  0.1200E+02
     12.102  0.0000E+00  0.0000E+00  0.1200E+02  0.1200E+02
     12.157  0.0000E+00  0.0000E+00  0.1200E+02  0.1200E+02
     12.212  0.0000E+00  0.0000E+00  0.1200E+02  0.1200E+02
     12.267  0.0000E+00  0.0000E+00  0.1200E+02  0.1200E+02
     12.322  0.0000E+00  0.0000E+00  0.1200E+02  0.1200E+02
     12.377  0.0000E+00  0.0000E+00  0.1200E+02  0.1200E+02
     12.37659998     -4.11442284  301      7.18628632      1.00000000
     -4.114  0.0000E+00  0.0000E+00  0.0000E+00  0.0000E+00  0.0000E+00  0.0000E+00  0.0000E+00  0.0000E+00  0.0000E+00  0.0000E+00  0.0000E+00  0.0000E+00  0.0000E+00  0.0000E+00  0.0000E+00  0.0000E+00  0.0000E+00  0.0000E+00
     -4.059  0.0000E+00  0.0000E+00  0.0000E+00  0.0000E+00  0.0000E+00  0.0000E+00  0.0000E+00  0.0000E+00  0.0000E+00  0.0000E+00  0.0000E+00  0.0000E+00  0.0000E+00  0.0000E+00  0.0000E+00  0.0000E+00  0.0000E+00  0.0000E+00
     -4.004  0.0000E+00  0.0000E+00  0.0000E+00  0.0000E+00  0.0000E+00  0.0000E+00  0.0000E+00  0.0000E+00  0.0000E+00  0.0000E+00  0.0000E+00  0.0000E+00  0.0000E+00  0.0000E+00  0.0000E+00  0.0000E+00  0.0000E+00  0.0000E+00
     -3.950  0.0000E+00  0.0000E+00  0.0000E+00  0.0000E+00  0.0000E+00  0.0000E+00  0.0000E+00  0.0000E+00  0.0000E+00  0.0000E+00  0.0000E+00  0.0000E+00  0.0000E+00  0.0000E+00  0.0000E+00  0.0000E+00  0.0000E+00  0.0000E+00
     -3.895  0.0000E+00  0.0000E+00  0.0000E+00  0.0000E+00  0.0000E+00  0.0000E+00  0.0000E+00  0.0000E+00  0.0000E+00  0.0000E+00  0.0000E+00  0.0000E+00  0.0000E+00  0.0000E+00  0.0000E+00  0.0000E+00  0.0000E+00  0.0000E+00
     -3.840  0.0000E+00  0.0000E+00  0.0000E+00  0.0000E+00  0.0000E+00  0.0000E+00  0.0000E+00  0.0000E+00  0.0000E+00  0.0000E+00  0.0000E+00  0.0000E+00  0.0000E+00  0.0000E+00  0.0000E+00  0.0000E+00  0.0000E+00  0.0000E+00
     -3.785  0.2209E-06  0.2187E-06  0.9474E-23  0.6723E-22  0.9474E-23  0.6723E-22  0.1036E-22  0.5076E-22  0.2122E-23  0.1937E-22  0.3442E-23  0.6740E-22  0.1623E-15  0.1381E-15  0.2122E-23  0.1937E-22  0.2086E-15  0.1785E-15
     -3.730  0.1742E-05  0.1725E-05  0.3867E-08  0.3829E-08  0.3867E-08  0.3829E-08  0.3865E-08  0.3827E-08  0.2103E-20  0.1006E-20  0.4058E-21  0.5531E-21  0.1464E-10  0.1450E-10  0.2103E-20  0.1006E-20  0.1875E-10  0.1857E-10
     -3.675  0.6482E-05  0.6418E-05  0.2305E-07  0.2282E-07  0.2305E-07  0.2282E-07  0.2305E-07  0.2282E-07  0.1447E-09  0.1432E-09  0.1447E-09  0.1433E-09  0.6654E-10  0.6588E-10  0.1447E-09  0.1432E-09  0.6636E-10  0.6572E-10
     -3.620  0.1855E-04  0.1836E-04  0.6903E-07  0.6835E-07  0.6903E-07  0.6835E-07  0.6902E-07  0.6833E-07  0.5787E-09  0.5730E-09  0.5786E-09  0.5729E-09  0.1623E-09  0.1607E-09  0.5787E-09  0.5730E-09  0.1702E-09  0.1685E-09
     -3.565  0.5490E-04  0.5436E-04  0.2069E-06  0.2049E-06  0.2069E-06  0.2049E-06  0.2069E-06  0.2048E-06  0.1446E-08  0.1432E-08  0.1446E-08  0.1432E-08  0.7137E-09  0.7067E-09  0.1446E-08  0.1432E-08  0.8018E-09  0.7941E-09
     -3.510  0.1655E-03  0.1639E-03  0.6776E-06  0.6709E-06  0.6776E-06  0.6709E-06  0.6773E-06  0.6706E-06  0.5514E-08  0.5460E-08  0.5515E-08  0.5461E-08  0.2679E-08  0.2652E-08  0.5514E-08  0.5460E-08  0.3004E-08  0.2975E-08
     -3.455  0.4722E-03  0.4679E-03  0.2006E-05  0.1987E-05  0.2006E-05  0.1987E-05  0.2005E-05  0.1986E-05  0.1790E-07  0.1773E-07  0.1791E-07  0.1773E-07  0.7631E-08  0.7558E-08  0.1790E-07  0.1773E-07  0.8602E-08  0.8520E-08
     -3.400  0.1241E-02  0.1231E-02  0.5583E-05  0.5533E-05  0.5583E-05  0.5533E-05  0.5581E-05  0.5530E-05  0.4974E-07  0.4926E-07  0.4975E-07  0.4927E-07  0.2126E-07  0.2106E-07  0.4974E-07  0.4926E-07  0.2385E-07  0.2363E-07
     -3.345  0.2814E-02  0.2796E-02  0.1446E-04  0.1435E-04  0.1446E-04  0.1435E-04  0.1446E-04  0.1434E-04  0.1413E-06  0.1401E-06  0.1414E-06  0.1401E-06  0.5688E-07  0.5640E-07  0.1413E-06  0.1401E-06  0.6348E-07  0.6296E-07
     -3.290  0.5131E-02  0.5109E-02  0.3191E-04  0.3171E-04  0.3191E-04  0.3171E-04  0.3190E-04  0.3170E-04  0.3609E-06  0.3581E-06  0.3610E-06  0.3582E-06  0.1369E-06  0.1359E-06  0.3609E-06  0.3581E-06  0.1538E-06  0.1527E-06
     -3.235  0.7370E-02  0.7353E-02  0.5835E-04  0.5807E-04  0.5835E-04  0.5807E-04  0.5832E-04  0.5804E-04  0.7720E-06  0.7672E-06  0.7722E-06  0.7673E-06  0.3063E-06  0.3041E-06  0.7720E-06  0.7672E-06  0.3539E-06  0.3513E-06
     -3.180  0.9047E-02  0.9033E-02  0.9517E-04  0.9476E-04  0.9517E-04  0.9476E-04  0.9512E-04  0.9471E-04  0.1469E-05  0.1460E-05  0.1469E-05  0.1461E-05  0.6583E-06  0.6539E-06  0.1469E-05  0.1460E-05  0.7821E-06  0.7767E-06
     -3.125  0.1106E-01  0.1104E-01  0.1507E-03  0.1501E-03  0.1507E-03  0.1501E-03  0.1506E-03  0.1500E-03  0.2731E-05  0.2715E-05  0.2731E-05  0.2716E-05  0.1251E-05  0.1245E-05  0.2731E-05  0.2715E-05  0.1496E-05  0.1489E-05
     -3.070  0.1343E-01  0.1341E-01  0.2172E-03  0.2166E-03  0.2172E-03  0.2166E-03  0.2171E-03  0.2165E-03  0.4736E-05  0.4716E-05  0.4737E-05  0.4716E-05  0.1876E-05  0.1871E-05  0.4736E-05  0.4716E-05  0.2228E-05  0.2222E-05
     -3.015  0.1397E-01  0.1397E-01  0.2591E-03  0.2589E-03  0.2591E-03  0.2589E-03  0.2591E-03  0.2588E-03  0.6889E-05  0.6869E-05  0.6890E-05  0.6870E-05  0.2300E-05  0.2295E-05  0.6889E-05  0.6869E-05  0.2679E-05  0.2675E-05
     -2.960  0.1309E-01  0.1310E-01  0.2907E-03  0.2902E-03  0.2907E-03  0.2902E-03  0.2906E-03  0.2901E-03  0.9311E-05  0.9281E-05  0.9314E-05  0.9284E-05  0.3031E-05  0.3018E-05  0.9311E-05  0.9281E-05  0.3427E-05  0.3413E-05
     -2.905  0.1422E-01  0.1420E-01  0.3821E-03  0.3809E-03  0.3821E-03  0.3809E-03  0.3818E-03  0.3806E-03  0.1358E-04  0.1353E-04  0.1358E-04  0.1353E-04  0.4992E-05  0.4964E-05  0.1358E-04  0.1353E-04  0.5671E-05  0.5638E-05
     -2.850  0.1704E-01  0.1702E-01  0.5186E-03  0.5174E-03  0.5186E-03  0.5174E-03  0.5182E-03  0.5170E-03  0.1866E-04  0.1861E-04  0.1866E-04  0.1862E-04  0.8144E-05  0.8107E-05  0.1866E-04  0.1861E-04  0.9561E-05  0.9515E-05
     -2.795  0.1843E-01  0.1843E-01  0.6154E-03  0.6148E-03  0.6154E-03  0.6148E-03  0.6151E-03  0.6145E-03  0.2288E-04  0.2283E-04  0.2288E-04  0.2284E-04  0.1091E-04  0.1088E-04  0.2288E-04  0.2283E-04  0.1312E-04  0.1309E-04
     -2.740  0.1789E-01  0.1790E-01  0.6582E-03  0.6579E-03  0.6582E-03  0.6579E-03  0.6583E-03  0.6579E-03  0.2886E-04  0.2878E-04  0.2887E-04  0.2880E-04  0.1175E-04  0.1174E-04  0.2886E-04  0.2878E-04  0.1411E-04  0.1409E-04
     -2.685  0.1753E-01  0.1753E-01  0.7195E-03  0.7186E-03  0.7195E-03  0.7186E-03  0.7194E-03  0.7185E-03  0.3953E-04  0.3941E-04  0.3956E-04  0.3943E-04  0.1207E-04  0.1205E-04  0.3953E-04  0.3941E-04  0.1399E-04  0.1397E-04
     -2.630  0.1868E-01  0.1867E-01  0.8438E-03  0.8426E-03  0.8438E-03  0.8426E-03  0.8434E-03  0.8423E-03  0.5334E-04  0.5322E-04  0.5335E-04  0.5323E-04  0.1399E-04  0.1395E-04  0.5334E-04  0.5322E-04  0.1573E-04  0.1569E-04
     -2.575  0.1872E-01  0.1873E-01  0.9123E-03  0.9122E-03  0.9123E-03  0.9122E-03  0.9119E-03  0.9118E-03  0.6016E-04  0.6015E-04  0.6014E-04  0.6013E-04  0.1647E-04  0.1643E-04  0.6016E-04  0.6015E-04  0.1875E-04  0.1870E-04
     -2.520  0.1698E-01  0.1699E-01  0.9177E-03  0.9172E-03  0.9177E-03  0.9172E-03  0.9167E-03  0.9161E-03  0.5920E-04  0.5918E-04  0.5920E-04  0.5917E-04  0.2043E-04  0.2036E-04  0.5920E-04  0.5918E-04  0.2420E-04  0.2411E-04
     -2.465  0.1808E-01  0.1806E-01  0.1103E-02  0.1100E-02  0.1103E-02  0.1100E-02  0.1101E-02  0.1098E-02  0.7086E-04  0.7066E-04  0.7090E-04  0.7071E-04  0.2939E-04  0.2927E-04  0.7086E-04  0.7066E-04  0.3556E-04  0.3541E-04
     -2.410  0.2158E-01  0.2156E-01  0.1415E-02  0.1413E-02  0.1415E-02  0.1413E-02  0.1414E-02  0.1412E-02  0.9734E-04  0.9709E-04  0.9743E-04  0.9718E-04  0.3959E-04  0.3950E-04  0.9734E-04  0.9709E-04  0.4745E-04  0.4734E-04
     -2.355  0.2287E-01  0.2287E-01  0.1581E-02  0.1580E-02  0.1581E-02  0.1580E-02  0.1581E-02  0.1580E-02  0.1216E-03  0.1214E-03  0.1217E-03  0.1215E-03  0.4397E-04  0.4393E-04  0.1216E-03  0.1214E-03  0.5136E-04  0.5132E-04
     -2.300  0.2224E-01  0.2225E-01  0.1637E-02  0.1636E-02  0.1637E-02  0.1636E-02  0.1636E-02  0.1636E-02  0.1416E-03  0.1414E-03  0.1417E-03  0.1415E-03  0.4483E-04  0.4479E-04  0.1416E-03  0.1414E-03  0.5138E-04  0.5135E-04
     -2.245  0.2170E-01  0.2170E-01  0.1703E-02  0.1702E-02  0.1703E-02  0.1702E-02  0.1702E-02  0.1702E-02  0.1626E-03  0.1624E-03  0.1626E-03  0.1624E-03  0.4576E-04  0.4574E-04  0.1626E-03  0.1624E-03  0.5262E-04  0.5260E-04
     -2.190  0.2007E-01  0.2009E-01  0.1662E-02  0.1663E-02  0.1662E-02  0.1663E-02  0.1663E-02  0.1664E-02  0.1763E-03  0.1762E-03  0.1762E-03  0.1761E-03  0.4200E-04  0.4204E-04  0.1763E-03  0.1762E-03  0.4859E-04  0.4863E-04
     -2.136  0.1717E-01  0.1719E-01  0.1529E-02  0.1530E-02  0.1529E-02  0.1530E-02  0.1528E-02  0.1529E-02  0.1778E-03  0.1777E-03  0.1778E-03  0.1777E-03  0.3750E-04  0.3748E-04  0.1778E-03  0.1777E-03  0.4350E-04  0.4347E-04
     -2.081  0.1678E-01  0.1677E-01  0.1677E-02  0.1674E-02  0.1677E-02  0.1674E-02  0.1673E-02  0.1670E-02  0.1985E-03  0.1981E-03  0.1987E-03  0.1983E-03  0.4686E-04  0.4668E-04  0.1985E-03  0.1981E-03  0.5460E-04  0.5438E-04
     -2.026  0.2025E-01  0.2022E-01  0.2237E-02  0.2231E-02  0.2237E-02  0.2231E-02  0.2231E-02  0.2225E-02  0.2557E-03  0.2551E-03  0.2560E-03  0.2554E-03  0.7261E-04  0.7232E-04  0.2557E-03  0.2551E-03  0.8462E-04  0.8429E-04
     -1.971  0.2387E-01  0.2385E-01  0.2811E-02  0.2808E-02  0.2811E-02  0.2808E-02  0.2807E-02  0.2804E-02  0.3149E-03  0.3145E-03  0.3150E-03  0.3146E-03  0.9814E-04  0.9796E-04  0.3149E-03  0.3145E-03  0.1149E-03  0.1147E-03
     -1.916  0.2368E-01  0.2370E-01  0.2943E-02  0.2944E-02  0.2943E-02  0.2944E-02  0.2943E-02  0.2943E-02  0.3397E-03  0.3395E-03  0.3396E-03  0.3394E-03  0.1038E-03  0.1038E-03  0.3397E-03  0.3395E-03  0.1228E-03  0.1228E-03
     -1.861  0.2199E-01  0.2200E-01  0.2908E-02  0.2908E-02  0.2908E-02  0.2908E-02  0.2908E-02  0.2907E-02  0.3697E-03  0.3692E-03  0.3698E-03  0.3693E-03  0.9908E-04  0.9907E-04  0.3697E-03  0.3692E-03  0.1182E-03  0.1182E-03
     -1.806  0.2202E-01  0.2202E-01  0.3090E-02  0.3089E-02  0.3090E-02  0.3089E-02  0.3089E-02  0.3088E-02  0.4297E-03  0.4292E-03  0.4299E-03  0.4294E-03  0.1024E-03  0.1024E-03  0.4297E-03  0.4292E-03  0.1221E-03  0.1220E-03
     -1.751  0.2003E-01  0.2006E-01  0.2963E-02  0.2967E-02  0.2963E-02  0.2967E-02  0.2965E-02  0.2969E-02  0.4343E-03  0.4345E-03  0.4343E-03  0.4345E-03  0.9888E-04  0.9896E-04  0.4343E-03  0.4345E-03  0.1168E-03  0.1169E-03
     -1.696  0.1649E-01  0.1651E-01  0.2625E-02  0.2627E-02  0.2625E-02  0.2627E-02  0.2626E-02  0.2627E-02  0.4262E-03  0.4258E-03  0.4265E-03  0.4262E-03  0.8569E-04  0.8575E-04  0.4262E-03  0.4258E-03  0.9829E-04  0.9840E-04
     -1.641  0.1673E-01  0.1671E-01  0.2956E-02  0.2950E-02  0.2956E-02  0.2950E-02  0.2948E-02  0.2942E-02  0.5367E-03  0.5352E-03  0.5376E-03  0.5361E-03  0.8922E-04  0.8908E-04  0.5367E-03  0.5352E-03  0.9882E-04  0.9868E-04
     -1.586  0.1991E-01  0.1989E-01  0.3936E-02  0.3928E-02  0.3936E-02  0.3928E-02  0.3922E-02  0.3914E-02  0.7215E-03  0.7200E-03  0.7222E-03  0.7207E-03  0.1105E-03  0.1102E-03  0.7215E-03  0.7200E-03  0.1223E-03  0.1221E-03
     -1.531  0.2146E-01  0.2146E-01  0.4847E-02  0.4842E-02  0.4847E-02  0.4842E-02  0.4832E-02  0.4827E-02  0.8361E-03  0.8356E-03  0.8362E-03  0.8357E-03  0.1286E-03  0.1285E-03  0.8361E-03  0.8356E-03  0.1449E-03  0.1448E-03
     -1.476  0.1964E-01  0.1967E-01  0.5141E-02  0.5142E-02  0.5141E-02  0.5142E-02  0.5135E-02  0.5136E-02  0.8335E-03  0.8338E-03  0.8332E-03  0.8335E-03  0.1290E-03  0.1291E-03  0.8335E-03  0.8338E-03  0.1479E-03  0.1479E-03
     -1.421  0.1654E-01  0.1657E-01  0.4968E-02  0.4970E-02  0.4968E-02  0.4970E-02  0.4967E-02  0.4969E-02  0.8144E-03  0.8143E-03  0.8146E-03  0.8145E-03  0.1172E-03  0.1173E-03  0.8144E-03  0.8143E-03  0.1362E-03  0.1362E-03
     -1.366  0.1456E-01  0.1457E-01  0.4964E-02  0.4964E-02  0.4964E-02  0.4964E-02  0.4960E-02  0.4959E-02  0.8706E-03  0.8699E-03  0.8715E-03  0.8708E-03  0.1117E-03  0.1117E-03  0.8706E-03  0.8699E-03  0.1309E-03  0.1309E-03