   4   4   1   0
  0.1718834E+02  0.4096034E-09  0.4096992E-09  0.4096992E-09  0.5000000E-15
  1.000000000000000E-004
  CAR 
 unknown system                          
     12.10930198     -4.29625917  301      6.64829598      1.00000000
     -4.296  0.0000E+00  0.0000E+00  0.0000E+00  0.0000E+00
     -4.242  0.0000E+00  0.0000E+00  0.0000E+00  0.0000E+00
     -4.187  0.0000E+00  0.0000E+00  0.0000E+00  0.0000E+00
     -4.132  0.0000E+00  0.0000E+00  0.0000E+00  0.0000E+00
     -4.078  0.0000E+00  0.0000E+00  0.0000E+00  0.0000E+00
     -4.023  0.0000E+00  0.0000E+00  0.0000E+00  0.0000E+00
     -3.968  0.1963E-05  0.1949E-05  0.1074E-06  0.1066E-06
     -3.913  0.1610E-04  0.1598E-04  0.9876E-06  0.9805E-06
     -3.859  0.6115E-04  0.6071E-04  0.4332E-05  0.4300E-05
     -3.804  0.1744E-03  0.1732E-03  0.1387E-04  0.1377E-04
     -3.749  0.5136E-03  0.5100E-03  0.4196E-04  0.4166E-04
     -3.695  0.1549E-02  0.1538E-02  0.1267E-03  0.1258E-03
     -3.640  0.4402E-02  0.4372E-02  0.3674E-03  0.3649E-03
     -3.585  0.1151E-01  0.1144E-01  0.9966E-03  0.9903E-03
     -3.531  0.2608E-01  0.2595E-01  0.2423E-02  0.2410E-02
     -3.476  0.4746E-01  0.4731E-01  0.5018E-02  0.4997E-02
     -3.421  0.6857E-01  0.6845E-01  0.8768E-02  0.8740E-02
     -3.367  0.8603E-01  0.8591E-01  0.1347E-01  0.1344E-01
     -3.312  0.1077E+00  0.1075E+00  0.1936E-01  0.1932E-01
     -3.257  0.1293E+00  0.1292E+00  0.2643E-01  0.2638E-01
     -3.203  0.1325E+00  0.1325E+00  0.3367E-01  0.3363E-01
     -3.148  0.1307E+00  0.1307E+00  0.4082E-01  0.4077E-01
     -3.093  0.1515E+00  0.1513E+00  0.4911E-01  0.4905E-01
     -3.038  0.1794E+00  0.1793E+00  0.5892E-01  0.5886E-01
     -2.984  0.1885E+00  0.1885E+00  0.6923E-01  0.6917E-01
     -2.929  0.1852E+00  0.1852E+00  0.7936E-01  0.7930E-01
     -2.874  0.1925E+00  0.1924E+00  0.8990E-01  0.8983E-01
     -2.820  0.2058E+00  0.2057E+00  0.1012E+00  0.1011E+00
     -2.765  0.1977E+00  0.1978E+00  0.1120E+00  0.1119E+00
     -2.710  0.1978E+00  0.1977E+00  0.1228E+00  0.1227E+00
     -2.656  0.2359E+00  0.2356E+00  0.1357E+00  0.1356E+00
     -2.601  0.2675E+00  0.2674E+00  0.1503E+00  0.1502E+00
     -2.546  0.2707E+00  0.2707E+00  0.1651E+00  0.1651E+00
     -2.492  0.2688E+00  0.2688E+00  0.1798E+00  0.1798E+00
     -2.437  0.2587E+00  0.2588E+00  0.1940E+00  0.1939E+00
     -2.382  0.2303E+00  0.2305E+00  0.2066E+00  0.2065E+00
     -2.328  0.2255E+00  0.2254E+00  0.2189E+00  0.2189E+00
     -2.273  0.2746E+00  0.2742E+00  0.2340E+00  0.2339E+00
     -2.218  0.3353E+00  0.3351E+00  0.2523E+00  0.2522E+00
     -2.164  0.3480E+00  0.3481E+00  0.2713E+00  0.2712E+00
     -2.109  0.3345E+00  0.3346E+00  0.2897E+00  0.2895E+00
     -2.054  0.3413E+00  0.3413E+00  0.3083E+00  0.3082E+00
     -1.999  0.3192E+00  0.3195E+00  0.3258E+00  0.3257E+00
     -1.945  0.2791E+00  0.2792E+00  0.3411E+00  0.3410E+00
     -1.890  0.3057E+00  0.3054E+00  0.3578E+00  0.3577E+00
     -1.835  0.3851E+00  0.3847E+00  0.3789E+00  0.3787E+00
     -1.781  0.4405E+00  0.4404E+00  0.4030E+00  0.4028E+00
     -1.726  0.4342E+00  0.4344E+00  0.4267E+00  0.4266E+00
     -1.671  0.4035E+00  0.4036E+00  0.4488E+00  0.4487E+00
     -1.617  0.3936E+00  0.3936E+00  0.4703E+00  0.4702E+00
     -1.562  0.3873E+00  0.3873E+00  0.4915E+00  0.4914E+00
     -1.507  0.3969E+00  0.3967E+00  0.5132E+00  0.5131E+00
     -1.453  0.4419E+00  0.4416E+00  0.5374E+00  0.5373E+00
     -1.398  0.4644E+00  0.4644E+00  0.5628E+00  0.5627E+00
     -1.343  0.4348E+00  0.4351E+00  0.5866E+00  0.5865E+00
     -1.289  0.3691E+00  0.3696E+00  0.6068E+00  0.6067E+00
     -1.234  0.3052E+00  0.3055E+00  0.6235E+00  0.6234E+00
     -1.179  0.2858E+00  0.2857E+00  0.6392E+00  0.6391E+00
     -1.125  0.3238E+00  0.3234E+00  0.6569E+00  0.6567E+00
     -1.070  0.4023E+00  0.4019E+00  0.6789E+00  0.6787E+00
     -1.015  0.4224E+00  0.4226E+00  0.7020E+00  0.7019E+00
     -0.960  0.3632E+00  0.3636E+00  0.7219E+00  0.7218E+00
     -0.906  0.3070E+00  0.3073E+00  0.7387E+00  0.7386E+00
     -0.851  0.2646E+00  0.2647E+00  0.7531E+00  0.7531E+00
     -0.796  0.2588E+00  0.2584E+00  0.7673E+00  0.7672E+00
     -0.742  0.3475E+00  0.3467E+00  0.7863E+00  0.7862E+00
     -0.687  0.4757E+00  0.4751E+00  0.8123E+00  0.8122E+00
     -0.632  0.5088E+00  0.5089E+00  0.8402E+00  0.8400E+00
     -0.578  0.4439E+00  0.4442E+00  0.8645E+00  0.8643E+00
     -0.523  0.3958E+00  0.3960E+00  0.8861E+00  0.8860E+00
     -0.468  0.3505E+00  0.3508E+00  0.9053E+00  0.9052E+00
     -0.414  0.3248E+00  0.3247E+00  0.9231E+00  0.9229E+00
     -0.359  0.3914E+00  0.3908E+00  0.9445E+00  0.9443E+00
     -0.304  0.4780E+00  0.4777E+00  0.9706E+00  0.9705E+00
     -0.250  0.4671E+00  0.4675E+00  0.9962E+00  0.9961E+00
     -0.195  0.3824E+00  0.3828E+00  0.1017E+01  0.1017E+01
     -0.140  0.3490E+00  0.3489E+00  0.1036E+01  0.1036E+01
     -0.085  0.3718E+00  0.3716E+00  0.1057E+01  0.1056E+01
     -0.031  0.4110E+00  0.4107E+00  0.1079E+01  0.1079E+01
      0.024  0.4979E+00  0.4972E+00  0.1106E+01  0.1106E+01
      0.079  0.5778E+00  0.5775E+00  0.1138E+01  0.1138E+01
      0.133  0.5414E+00  0.5420E+00  0.1168E+01  0.1167E+01
      0.188  0.4346E+00  0.4352E+00  0.1191E+01  0.1191E+01
      0.243  0.3708E+00  0.3710E+00  0.1212E+01  0.1211E+01
      0.297  0.3609E+00  0.3608E+00  0.1231E+01  0.1231E+01
      0.352  0.4011E+00  0.4007E+00  0.1253E+01  0.1253E+01
      0.407  0.4898E+00  0.4891E+00  0.1280E+01  0.1280E+01
      0.461  0.5586E+00  0.5585E+00  0.1311E+01  0.1310E+01
      0.516  0.5118E+00  0.5124E+00  0.1339E+01  0.1338E+01
      0.571  0.4400E+00  0.4402E+00  0.1363E+01  0.1363E+01
      0.625  0.4569E+00  0.4565E+00  0.1388E+01  0.1388E+01
      0.680  0.5244E+00  0.5239E+00  0.1416E+01  0.1416E+01
      0.735  0.6097E+00  0.6091E+00  0.1450E+01  0.1450E+01
      0.789  0.7035E+00  0.7031E+00  0.1488E+01  0.1488E+01
      0.844  0.7337E+00  0.7339E+00  0.1528E+01  0.1528E+01
      0.899  0.6743E+00  0.6748E+00  0.1565E+01  0.1565E+01
      0.954  0.6380E+00  0.6380E+00  0.1600E+01  0.1600E+01
      1.008  0.6782E+00  0.6777E+00  0.1637E+01  0.1637E+01
      1.063  0.7228E+00  0.7227E+00  0.1677E+01  0.1677E+01
      1.118  0.6855E+00  0.6861E+00  0.1714E+01  0.1714E+01
      1.172  0.5846E+00  0.5852E+00  0.1746E+01  0.1746E+01
      1.227  0.5497E+00  0.5496E+00  0.1776E+01  0.1776E+01
      1.282  0.6009E+00  0.6005E+00  0.1809E+01  0.1809E+01
      1.336  0.6598E+00  0.6595E+00  0.1845E+01  0.1845E+01
      1.391  0.6814E+00  0.6814E+00  0.1883E+01  0.1882E+01
      1.446  0.6748E+00  0.6749E+00  0.1920E+01  0.1919E+01
      1.500  0.6426E+00  0.6429E+00  0.1955E+01  0.1955E+01
      1.555  0.6051E+00  0.6052E+00  0.1988E+01  0.1988E+01
      1.610  0.6321E+00  0.6316E+00  0.2022E+01  0.2022E+01
      1.664  0.7047E+00  0.7042E+00  0.2061E+01  0.2061E+01
      1.719  0.7527E+00  0.7526E+00  0.2102E+01  0.2102E+01
      1.774  0.7465E+00  0.7467E+00  0.2143E+01  0.2143E+01
      1.828  0.7149E+00  0.7152E+00  0.2182E+01  0.2182E+01
      1.883  0.6587E+00  0.6593E+00  0.2218E+01  0.2218E+01
      1.938  0.5498E+00  0.5506E+00  0.2248E+01  0.2248E+01
      1.993  0.4921E+00  0.4920E+00  0.2275E+01  0.2275E+01
      2.047  0.5454E+00  0.5448E+00  0.2305E+01  0.2305E+01
      2.102  0.6024E+00  0.6021E+00  0.2338E+01  0.2338E+01
      2.157  0.6075E+00  0.6074E+00  0.2371E+01  0.2371E+01
      2.211  0.6058E+00  0.6058E+00  0.2404E+01  0.2404E+01
      2.266  0.5972E+00  0.5974E+00  0.2437E+01  0.2437E+01
      2.321  0.5782E+00  0.5785E+00  0.2469E+01  0.2469E+01
      2.375  0.5275E+00  0.5281E+00  0.2498E+01  0.2497E+01
      2.430  0.4775E+00  0.4778E+00  0.2524E+01  0.2524E+01
      2.485  0.4903E+00  0.4900E+00  0.2551E+01  0.2550E+01
      2.539  0.5399E+00  0.5395E+00  0.2580E+01  0.2580E+01
      2.594  0.5854E+00  0.5849E+00  0.2612E+01  0.2612E+01
      2.649  0.6037E+00  0.6036E+00  0.2645E+01  0.2645E+01
      2.703  0.6221E+00  0.6218E+00  0.2679E+01  0.2679E+01
      2.758  0.7316E+00  0.7304E+00  0.2719E+01  0.2719E+01
      2.813  0.9121E+00  0.9110E+00  0.2769E+01  0.2769E+01
      2.868  0.9597E+00  0.9601E+00  0.2822E+01  0.2821E+01
      2.922  0.8224E+00  0.8237E+00  0.2867E+01  0.2866E+01
      2.977  0.6565E+00  0.6574E+00  0.2903E+01  0.2902E+01
      3.032  0.5765E+00  0.5768E+00  0.2934E+01  0.2934E+01
      3.086  0.5514E+00  0.5515E+00  0.2964E+01  0.2964E+01
      3.141  0.5657E+00  0.5653E+00  0.2995E+01  0.2995E+01
      3.196  0.6546E+00  0.6536E+00  0.3031E+01  0.3031E+01
      3.250  0.8068E+00  0.8054E+00  0.3075E+01  0.3075E+01
      3.305  0.9754E+00  0.9742E+00  0.3129E+01  0.3128E+01
      3.360  0.1044E+01  0.1044E+01  0.3186E+01  0.3185E+01
      3.414  0.9442E+00  0.9455E+00  0.3237E+01  0.3237E+01
      3.469  0.8485E+00  0.8488E+00  0.3284E+01  0.3283E+01
      3.524  0.8945E+00  0.8937E+00  0.3333E+01  0.3332E+01
      3.578  0.1016E+01  0.1015E+01  0.3388E+01  0.3388E+01
      3.633  0.1056E+01  0.1056E+01  0.3446E+01  0.3446E+01
      3.688  0.9931E+00  0.9937E+00  0.3500E+01  0.3500E+01
      3.742  0.9020E+00  0.9026E+00  0.3550E+01  0.3549E+01
      3.797  0.8494E+00  0.8495E+00  0.3596E+01  0.3596E+01
      3.852  0.8625E+00  0.8621E+00  0.3643E+01  0.3643E+01
      3.907  0.9445E+00  0.9434E+00  0.3695E+01  0.3695E+01
      3.961  0.1103E+01  0.1101E+01  0.3756E+01  0.3755E+01
      4.016  0.1225E+01  0.1224E+01  0.3823E+01  0.3822E+01
      4.071  0.1206E+01  0.1207E+01  0.3889E+01  0.3888E+01
      4.125  0.1089E+01  0.1090E+01  0.3948E+01  0.3948E+01
      4.180  0.1051E+01  0.1051E+01  0.4006E+01  0.4005E+01
      4.235  0.1157E+01  0.1156E+01  0.4069E+01  0.4068E+01
      4.289  0.1319E+01  0.1317E+01  0.4141E+01  0.4140E+01
      4.344  0.1361E+01  0.1362E+01  0.4216E+01  0.4215E+01
      4.399  0.1193E+01  0.1195E+01  0.4281E+01  0.4280E+01
      4.453  0.9942E+00  0.9952E+00  0.4335E+01  0.4335E+01
      4.508  0.9987E+00  0.9971E+00  0.4390E+01  0.4389E+01
      4.563  0.1290E+01  0.1286E+01  0.4460E+01  0.4460E+01
      4.617  0.1722E+01  0.1718E+01  0.4555E+01  0.4554E+01
      4.672  0.1975E+01  0.1974E+01  0.4663E+01  0.4662E+01
      4.727  0.1971E+01  0.1972E+01  0.4771E+01  0.4770E+01
      4.781  0.1760E+01  0.1763E+01  0.4867E+01  0.4866E+01
      4.836  0.1383E+01  0.1387E+01  0.4943E+01  0.4942E+01
      4.891  0.1113E+01  0.1114E+01  0.5003E+01  0.5003E+01
      4.946  0.1025E+01  0.1025E+01  0.5059E+01  0.5059E+01
      5.000  0.9862E+00  0.9864E+00  0.5113E+01  0.5113E+01
      5.055  0.9864E+00  0.9855E+00  0.5168E+01  0.5167E+01
      5.110  0.1064E+01  0.1063E+01  0.5226E+01  0.5225E+01
      5.164  0.1076E+01  0.1077E+01  0.5285E+01  0.5284E+01
      5.219  0.9719E+00  0.9735E+00  0.5338E+01  0.5337E+01
      5.274  0.8491E+00  0.8501E+00  0.5384E+01  0.5384E+01
      5.328  0.8023E+00  0.8024E+00  0.5428E+01  0.5428E+01
      5.383  0.7916E+00  0.7917E+00  0.5472E+01  0.5471E+01
      5.438  0.7839E+00  0.7837E+00  0.5514E+01  0.5514E+01
      5.492  0.7936E+00  0.7932E+00  0.5558E+01  0.5557E+01
      5.547  0.7940E+00  0.7938E+00  0.5601E+01  0.5601E+01
      5.602  0.8039E+00  0.8037E+00  0.5645E+01  0.5645E+01
      5.656  0.8300E+00  0.8299E+00  0.5691E+01  0.5690E+01
      5.711  0.8431E+00  0.8430E+00  0.5737E+01  0.5736E+01
      5.766  0.8141E+00  0.8148E+00  0.5781E+01  0.5781E+01
      5.821  0.7094E+00  0.7107E+00  0.5820E+01  0.5820E+01
      5.875  0.6371E+00  0.6373E+00  0.5855E+01  0.5855E+01
      5.930  0.7004E+00  0.6991E+00  0.5893E+01  0.5893E+01
      5.985  0.8246E+00  0.8234E+00  0.5939E+01  0.5938E+01
      6.039  0.8755E+00  0.8756E+00  0.5986E+01  0.5986E+01
      6.094  0.8440E+00  0.8451E+00  0.6033E+01  0.6032E+01
      6.149  0.7115E+00  0.7137E+00  0.6072E+01  0.6071E+01
      6.203  0.5389E+00  0.5401E+00  0.6101E+01  0.6101E+01
      6.258  0.5219E+00  0.5207E+00  0.6130E+01  0.6129E+01
      6.313  0.6680E+00  0.6658E+00  0.6166E+01  0.6166E+01
      6.367  0.7759E+00  0.7755E+00  0.6209E+01  0.6208E+01
      6.422  0.7704E+00  0.7707E+00  0.6251E+01  0.6250E+01
      6.477  0.8206E+00  0.8193E+00  0.6296E+01  0.6295E+01
      6.531  0.9968E+00  0.9941E+00  0.6350E+01  0.6350E+01
      6.586  0.1214E+01  0.1211E+01  0.6417E+01  0.6416E+01
      6.641  0.1347E+01  0.1346E+01  0.6490E+01  0.6489E+01
      6.695  0.1333E+01  0.1334E+01  0.6563E+01  0.6562E+01
      6.750  0.1320E+01  0.1319E+01  0.6635E+01  0.6635E+01
      6.805  0.1451E+01  0.1449E+01  0.6715E+01  0.6714E+01
      6.860  0.1624E+01  0.1622E+01  0.6804E+01  0.6802E+01
      6.914  0.1679E+01  0.1679E+01  0.6895E+01  0.6894E+01
      6.969  0.1616E+01  0.1617E+01  0.6984E+01  0.6983E+01
      7.024  0.1560E+01  0.1560E+01  0.7069E+01  0.7068E+01
      7.078  0.1539E+01  0.1539E+01  0.7153E+01  0.7152E+01
      7.133  0.1540E+01  0.1540E+01  0.7238E+01  0.7237E+01
      7.188  0.1652E+01  0.1649E+01  0.7328E+01  0.7327E+01
      7.242  0.1900E+01  0.1895E+01  0.7432E+01  0.7430E+01
      7.297  0.2276E+01  0.2270E+01  0.7557E+01  0.7555E+01
      7.352  0.2688E+01  0.2682E+01  0.7704E+01  0.7701E+01
      7.406  0.2988E+01  0.2984E+01  0.7867E+01  0.7865E+01
      7.461  0.3218E+01  0.3214E+01  0.8043E+01  0.8040E+01
      7.516  0.3395E+01  0.3394E+01  0.8229E+01  0.8226E+01
      7.570  0.3351E+01  0.3354E+01  0.8412E+01  0.8410E+01
      7.625  0.3053E+01  0.3059E+01  0.8579E+01  0.8577E+01
      7.680  0.2640E+01  0.2647E+01  0.8723E+01  0.8722E+01
      7.734  0.2155E+01  0.2163E+01  0.8841E+01  0.8840E+01
      7.789  0.1682E+01  0.1688E+01  0.8934E+01  0.8932E+01
      7.844  0.1359E+01  0.1363E+01  0.9008E+01  0.9007E+01
      7.899  0.1169E+01  0.1171E+01  0.9072E+01  0.9071E+01
      7.953  0.1055E+01  0.1056E+01  0.9130E+01  0.9129E+01
      8.008  0.9940E+00  0.9945E+00  0.9184E+01  0.9184E+01
      8.063  0.1007E+01  0.1007E+01  0.9240E+01  0.9239E+01
      8.117  0.1119E+01  0.1117E+01  0.9301E+01  0.9300E+01
      8.172  0.1253E+01  0.1252E+01  0.9369E+01  0.9369E+01
      8.227  0.1288E+01  0.1289E+01  0.9440E+01  0.9439E+01
      8.281  0.1231E+01  0.1232E+01  0.9507E+01  0.9506E+01
      8.336  0.1249E+01  0.1249E+01  0.9575E+01  0.9575E+01
      8.391  0.1374E+01  0.1373E+01  0.9651E+01  0.9650E+01
      8.445  0.1463E+01  0.1463E+01  0.9731E+01  0.9730E+01
      8.500  0.1473E+01  0.1473E+01  0.9811E+01  0.9811E+01
      8.555  0.1473E+01  0.1473E+01  0.9892E+01  0.9891E+01
      8.609  0.1462E+01  0.1462E+01  0.9972E+01  0.9971E+01
      8.664  0.1399E+01  0.1400E+01  0.1005E+02  0.1005E+02
      8.719  0.1330E+01  0.1330E+01  0.1012E+02  0.1012E+02
      8.774  0.1379E+01  0.1379E+01  0.1020E+02  0.1020E+02
      8.828  0.1542E+01  0.1542E+01  0.1028E+02  0.1028E+02
      8.883  0.1658E+01  0.1661E+01  0.1037E+02  0.1037E+02
      8.938  0.1674E+01  0.1677E+01  0.1046E+02  0.1046E+02
      8.992  0.1624E+01  0.1627E+01  0.1055E+02  0.1055E+02
      9.047  0.1547E+01  0.1549E+01  0.1064E+02  0.1064E+02
      9.102  0.1493E+01  0.1496E+01  0.1072E+02  0.1072E+02
      9.156  0.1472E+01  0.1475E+01  0.1080E+02  0.1080E+02
      9.211  0.1394E+01  0.1398E+01  0.1088E+02  0.1088E+02
      9.266  0.1266E+01  0.1280E+01  0.1094E+02  0.1095E+02
      9.320  0.1221E+01  0.1248E+01  0.1101E+02  0.1101E+02
      9.375  0.1302E+01  0.1328E+01  0.1108E+02  0.1109E+02
      9.430  0.1467E+01  0.1471E+01  0.1116E+02  0.1117E+02
      9.484  0.1567E+01  0.1546E+01  0.1125E+02  0.1125E+02
      9.539  0.1432E+01  0.1401E+01  0.1133E+02  0.1133E+02
      9.594  0.1153E+01  0.1130E+01  0.1139E+02  0.1139E+02
      9.648  0.9786E+00  0.9638E+00  0.1144E+02  0.1144E+02
      9.703  0.9647E+00  0.9553E+00  0.1150E+02  0.1150E+02
      9.758  0.9600E+00  0.9635E+00  0.1155E+02  0.1155E+02
      9.813  0.8407E+00  0.8680E+00  0.1159E+02  0.1160E+02
      9.867  0.6792E+00  0.7251E+00  0.1163E+02  0.1164E+02
      9.922  0.6306E+00  0.6753E+00  0.1167E+02  0.1167E+02
      9.977  0.6723E+00  0.7030E+00  0.1170E+02  0.1171E+02
     10.031  0.6691E+00  0.6945E+00  0.1174E+02  0.1175E+02
     10.086  0.6212E+00  0.6531E+00  0.1177E+02  0.1178E+02
     10.141  0.6676E+00  0.6838E+00  0.1181E+02  0.1182E+02
     10.195  0.7523E+00  0.7188E+00  0.1185E+02  0.1186E+02
     10.250  0.6879E+00  0.6404E+00  0.1189E+02  0.1190E+02
     10.305  0.5358E+00  0.5254E+00  0.1192E+02  0.1193E+02
     10.359  0.4236E+00  0.4301E+00  0.1194E+02  0.1195E+02
     10.414  0.3379E+00  0.3199E+00  0.1196E+02  0.1197E+02
     10.469  0.2464E+00  0.2068E+00  0.1197E+02  0.1198E+02
     10.523  0.1674E+00  0.1354E+00  0.1198E+02  0.1199E+02
     10.578  0.1113E+00  0.9598E-01  0.1199E+02  0.1199E+02
     10.633  0.6883E-01  0.6442E-01  0.1199E+02  0.1199E+02
     10.687  0.3679E-01  0.3699E-01  0.1200E+02  0.1200E+02
     10.742  0.1787E-01  0.1865E-01  0.1200E+02  0.1200E+02
     10.797  0.1201E-01  0.1244E-01  0.1200E+02  0.1200E+02
     10.852  0.1359E-01  0.1386E-01  0.1200E+02  0.1200E+02
     10.906  0.1349E-01  0.1357E-01  0.1200E+02  0.1200E+02
     10.961  0.8491E-02  0.8494E-02  0.1200E+02  0.1200E+02
     11.016  0.3748E-02  0.3726E-02  0.1200E+02  0.1200E+02
     11.070  0.1429E-02  0.1393E-02  0.1200E+02  0.1200E+02
     11.125  0.5794E-03  0.4850E-03  0.1200E+02  0.1200E+02
     11.180  0.4356E-03  0.1646E-03  0.1200E+02  0.1200E+02
     11.234  0.8125E-03  0.5538E-04  0.1200E+02  0.1200E+02
     11.289  0.1891E-02  0.0000E+00  0.1200E+02  0.1200E+02
     11.344  0.3632E-02  0.0000E+00  0.1200E+02  0.1200E+02
     11.398  0.4419E-02  0.0000E+00  0.1200E+02  0.1200E+02
     11.453  0.3156E-02  0.0000E+00  0.1200E+02  0.1200E+02
     11.508  0.1500E-02  0.0000E+00  0.1200E+02  0.1200E+02
     11.562  0.5757E-03  0.0000E+00  0.1200E+02  0.1200E+02
     11.617  0.2024E-03  0.0000E+00  0.1200E+02  0.1200E+02
     11.672  0.6892E-04  0.0000E+00  0.1200E+02  0.1200E+02
     11.727  0.2321E-04  0.0000E+00  0.1200E+02  0.1200E+02
     11.781  0.0000E+00  0.0000E+00  0.1200E+02  0.1200E+02
     11.836  0.0000E+00  0.0000E+00  0.1200E+02  0.1200E+02
     11.891  0.0000E+00  0.0000E+00  0.1200E+02  0.1200E+02
     11.945  0.0000E+00  0.0000E+00  0.1200E+02  0.1200E+02
     12.000  0.0000E+00  0.0000E+00  0.1200E+02  0.1200E+02
     12.055  0.0000E+00  0.0000E+00  0.1200E+02  0.1200E+02
     12.109  0.0000E+00  0.0000E+00  0.1200E+02  0.1200E+02
     12.10930198     -4.29625917  301      6.64829598      1.00000000
     -4.296  0.0000E+00  0.0000E+00  0.0000E+00  0.0000E+00  0.0000E+00  0.0000E+00  0.0000E+00  0.0000E+00  0.0000E+00  0.0000E+00  0.0000E+00  0.0000E+00  0.0000E+00  0.0000E+00  0.0000E+00  0.0000E+00  0.0000E+00  0.0000E+00
     -4.242  0.0000E+00  0.0000E+00  0.0000E+00  0.0000E+00  0.0000E+00  0.0000E+00  0.0000E+00  0.0000E+00  0.0000E+00  0.0000E+00  0.0000E+00  0.0000E+00  0.0000E+00  0.0000E+00  0.0000E+00  0.0000E+00  0.0000E+00  0.0000E+00
     -4.187  0.0000E+00  0.0000E+00  0.0000E+00  0.0000E+00  0.0000E+00  0.0000E+00  0.0000E+00  0.0000E+00  0.0000E+00  0.0000E+00  0.0000E+00  0.0000E+00  0.0000E+00  0.0000E+00  0.0000E+00  0.0000E+00  0.0000E+00  0.0000E+00
     -4.132  0.0000E+00  0.0000E+00  0.0000E+00  0.0000E+00  0.0000E+00  0.0000E+00  0.0000E+00  0.0000E+00  0.0000E+00  0.0000E+00  0.0000E+00  0.0000E+00  0.0000E+00  0.0000E+00  0.0000E+00  0.0000E+00  0.0000E+00  0.0000E+00
     -4.078  0.0000E+00  0.0000E+00  0.0000E+00  0.0000E+00  0.0000E+00  0.0000E+00  0.0000E+00  0.0000E+00  0.0000E+00  0.0000E+00  0.0000E+00  0.0000E+00  0.0000E+00  0.0000E+00  0.0000E+00  0.0000E+00  0.0000E+00  0.0000E+00
     -4.023  0.0000E+00  0.0000E+00  0.0000E+00  0.0000E+00  0.0000E+00  0.0000E+00  0.0000E+00  0.0000E+00  0.0000E+00  0.0000E+00  0.0000E+00  0.0000E+00  0.0000E+00  0.0000E+00  0.0000E+00  0.0000E+00  0.0000E+00  0.0000E+00
     -3.968  0.2125E-06  0.2109E-06  0.5871E-23  0.4367E-21  0.5871E-23  0.4367E-21  0.1261E-22  0.1506E-21  0.6629E-23  0.1482E-21  0.2750E-22  0.2781E-23  0.1380E-15  0.1149E-15  0.6629E-23  0.1482E-21  0.1774E-15  0.1477E-15
     -3.913  0.1724E-05  0.1712E-05  0.3824E-08  0.3796E-08  0.3824E-08  0.3796E-08  0.3823E-08  0.3795E-08  0.1669E-20  0.9706E-21  0.7013E-21  0.4435E-21  0.1391E-10  0.1380E-10  0.1669E-20  0.9706E-21  0.1781E-10  0.1768E-10
     -3.859  0.6508E-05  0.6460E-05  0.2336E-07  0.2319E-07  0.2336E-07  0.2319E-07  0.2335E-07  0.2318E-07  0.1469E-09  0.1458E-09  0.1469E-09  0.1458E-09  0.6441E-10  0.6391E-10  0.1469E-09  0.1458E-09  0.6385E-10  0.6338E-10
     -3.804  0.1855E-04  0.1841E-04  0.7019E-07  0.6967E-07  0.7019E-07  0.6967E-07  0.7017E-07  0.6966E-07  0.5971E-09  0.5927E-09  0.5971E-09  0.5926E-09  0.1552E-09  0.1540E-09  0.5971E-09  0.5927E-09  0.1619E-09  0.1607E-09
     -3.749  0.5460E-04  0.5420E-04  0.2099E-06  0.2084E-06  0.2099E-06  0.2084E-06  0.2098E-06  0.2083E-06  0.1475E-08  0.1464E-08  0.1475E-08  0.1464E-08  0.7064E-09  0.7008E-09  0.1475E-08  0.1464E-08  0.7954E-09  0.7893E-09
     -3.695  0.1644E-03  0.1632E-03  0.6932E-06  0.6882E-06  0.6932E-06  0.6882E-06  0.6929E-06  0.6879E-06  0.5744E-08  0.5701E-08  0.5745E-08  0.5702E-08  0.2718E-08  0.2697E-08  0.5744E-08  0.5701E-08  0.3055E-08  0.3032E-08
     -3.640  0.4667E-03  0.4635E-03  0.2046E-05  0.2032E-05  0.2046E-05  0.2032E-05  0.2045E-05  0.2031E-05  0.1882E-07  0.1868E-07  0.1882E-07  0.1868E-07  0.7695E-08  0.7636E-08  0.1882E-07  0.1868E-07  0.8705E-08  0.8640E-08
     -3.585  0.1219E-02  0.1211E-02  0.5637E-05  0.5600E-05  0.5637E-05  0.5600E-05  0.5635E-05  0.5598E-05  0.5152E-07  0.5115E-07  0.5153E-07  0.5116E-07  0.2126E-07  0.2110E-07  0.5152E-07  0.5115E-07  0.2393E-07  0.2376E-07
     -3.531  0.2753E-02  0.2740E-02  0.1459E-04  0.1451E-04  0.1459E-04  0.1451E-04  0.1459E-04  0.1450E-04  0.1491E-06  0.1481E-06  0.1492E-06  0.1481E-06  0.5772E-07  0.5733E-07  0.1491E-06  0.1481E-06  0.6469E-07  0.6426E-07
     -3.476  0.4985E-02  0.4969E-02  0.3189E-04  0.3174E-04  0.3189E-04  0.3174E-04  0.3188E-04  0.3173E-04  0.3684E-06  0.3663E-06  0.3685E-06  0.3663E-06  0.1392E-06  0.1384E-06  0.3684E-06  0.3663E-06  0.1578E-06  0.1568E-06
     -3.421  0.7143E-02  0.7129E-02  0.5844E-04  0.5823E-04  0.5844E-04  0.5823E-04  0.5842E-04  0.5821E-04  0.7920E-06  0.7881E-06  0.7921E-06  0.7883E-06  0.3123E-06  0.3105E-06  0.7920E-06  0.7881E-06  0.3632E-06  0.3610E-06
     -3.367  0.8852E-02  0.8838E-02  0.9627E-04  0.9596E-04  0.9627E-04  0.9596E-04  0.9622E-04  0.9590E-04  0.1523E-05  0.1516E-05  0.1524E-05  0.1517E-05  0.6655E-06  0.6619E-06  0.1523E-05  0.1516E-05  0.7914E-06  0.7872E-06
     -3.312  0.1092E-01  0.1091E-01  0.1522E-03  0.1518E-03  0.1522E-03  0.1518E-03  0.1522E-03  0.1517E-03  0.2847E-05  0.2835E-05  0.2848E-05  0.2835E-05  0.1230E-05  0.1225E-05  0.2847E-05  0.2835E-05  0.1467E-05  0.1461E-05
     -3.257  0.1297E-01  0.1295E-01  0.2133E-03  0.2129E-03  0.2133E-03  0.2129E-03  0.2132E-03  0.2129E-03  0.4823E-05  0.4807E-05  0.4824E-05  0.4808E-05  0.1784E-05  0.1780E-05  0.4823E-05  0.4807E-05  0.2110E-05  0.2105E-05
     -3.203  0.1313E-01  0.1313E-01  0.2506E-03  0.2503E-03  0.2506E-03  0.2503E-03  0.2505E-03  0.2503E-03  0.6899E-05  0.6882E-05  0.6900E-05  0.6883E-05  0.2231E-05  0.2225E-05  0.6899E-05  0.6882E-05  0.2580E-05  0.2574E-05
     -3.148  0.1271E-01  0.1271E-01  0.2951E-03  0.2946E-03  0.2951E-03  0.2946E-03  0.2949E-03  0.2944E-03  0.9655E-05  0.9628E-05  0.9658E-05  0.9630E-05  0.3197E-05  0.3184E-05  0.9655E-05  0.9628E-05  0.3618E-05  0.3603E-05
     -3.093  0.1444E-01  0.1442E-01  0.4004E-03  0.3995E-03  0.4004E-03  0.3995E-03  0.4000E-03  0.3991E-03  0.1412E-04  0.1408E-04  0.1412E-04  0.1409E-04  0.5381E-05  0.5357E-05  0.1412E-04  0.1408E-04  0.6189E-05  0.6161E-05
     -3.038  0.1685E-01  0.1684E-01  0.5234E-03  0.5227E-03  0.5234E-03  0.5227E-03  0.5231E-03  0.5223E-03  0.1872E-04  0.1869E-04  0.1872E-04  0.1869E-04  0.8294E-05  0.8266E-05  0.1872E-04  0.1869E-04  0.9837E-05  0.9803E-05
     -2.984  0.1746E-01  0.1746E-01  0.5971E-03  0.5967E-03  0.5971E-03  0.5967E-03  0.5970E-03  0.5966E-03  0.2321E-04  0.2317E-04  0.2322E-04  0.2318E-04  0.1026E-04  0.1024E-04  0.2321E-04  0.2317E-04  0.1235E-04  0.1232E-04
     -2.929  0.1687E-01  0.1687E-01  0.6410E-03  0.6405E-03  0.6410E-03  0.6405E-03  0.6410E-03  0.6406E-03  0.3060E-04  0.3053E-04  0.3061E-04  0.3054E-04  0.1072E-04  0.1070E-04  0.3060E-04  0.3053E-04  0.1270E-04  0.1269E-04
     -2.874  0.1721E-01  0.1719E-01  0.7298E-03  0.7289E-03  0.7298E-03  0.7289E-03  0.7296E-03  0.7287E-03  0.4240E-04  0.4231E-04  0.4242E-04  0.4233E-04  0.1168E-04  0.1166E-04  0.4240E-04  0.4231E-04  0.1334E-04  0.1331E-04
     -2.820  0.1808E-01  0.1808E-01  0.8372E-03  0.8366E-03  0.8372E-03  0.8366E-03  0.8369E-03  0.8362E-03  0.5333E-04  0.5328E-04  0.5333E-04  0.5327E-04  0.1389E-04  0.1386E-04  0.5333E-04  0.5328E-04  0.1570E-04  0.1566E-04
     -2.765  0.1706E-01  0.1706E-01  0.8637E-03  0.8635E-03  0.8637E-03  0.8635E-03  0.8631E-03  0.8628E-03  0.5547E-04  0.5546E-04  0.5545E-04  0.5544E-04  0.1673E-04  0.1668E-04  0.5547E-04  0.5546E-04  0.1947E-04  0.1941E-04
     -2.710  0.1660E-01  0.1659E-01  0.9511E-03  0.9497E-03  0.9511E-03  0.9497E-03  0.9497E-03  0.9483E-03  0.5995E-04  0.5986E-04  0.5997E-04  0.5988E-04  0.2284E-04  0.2276E-04  0.5995E-04  0.5986E-04  0.2746E-04  0.2736E-04
     -2.656  0.1932E-01  0.1929E-01  0.1219E-02  0.1217E-02  0.1219E-02  0.1217E-02  0.1218E-02  0.1216E-02  0.8022E-04  0.8003E-04  0.8028E-04  0.8010E-04  0.3232E-04  0.3223E-04  0.8022E-04  0.8003E-04  0.3892E-04  0.3881E-04
     -2.601  0.2156E-01  0.2155E-01  0.1444E-02  0.1443E-02  0.1444E-02  0.1443E-02  0.1443E-02  0.1442E-02  0.1048E-03  0.1047E-03  0.1049E-03  0.1047E-03  0.3868E-04  0.3862E-04  0.1048E-03  0.1047E-03  0.4562E-04  0.4556E-04
     -2.546  0.2144E-01  0.2144E-01  0.1525E-02  0.1524E-02  0.1525E-02  0.1524E-02  0.1525E-02  0.1524E-02  0.1250E-03  0.1248E-03  0.1251E-03  0.1249E-03  0.4026E-04  0.4022E-04  0.1250E-03  0.1248E-03  0.4640E-04  0.4636E-04
     -2.492  0.2086E-01  0.2086E-01  0.1586E-02  0.1586E-02  0.1586E-02  0.1586E-02  0.1586E-02  0.1585E-02  0.1447E-03  0.1445E-03  0.1447E-03  0.1445E-03  0.4126E-04  0.4122E-04  0.1447E-03  0.1445E-03  0.4740E-04  0.4736E-04
     -2.437  0.1971E-01  0.1971E-01  0.1589E-02  0.1589E-02  0.1589E-02  0.1589E-02  0.1590E-02  0.1590E-02  0.1606E-03  0.1605E-03  0.1606E-03  0.1605E-03  0.3945E-04  0.3945E-04  0.1606E-03  0.1605E-03  0.4562E-04  0.4561E-04
     -2.382  0.1714E-01  0.1715E-01  0.1481E-02  0.1481E-02  0.1481E-02  0.1481E-02  0.1480E-02  0.1481E-02  0.1652E-03  0.1651E-03  0.1652E-03  0.1651E-03  0.3526E-04  0.3525E-04  0.1652E-03  0.1651E-03  0.4090E-04  0.4089E-04
     -2.328  0.1613E-01  0.1612E-01  0.1558E-02  0.1556E-02  0.1558E-02  0.1556E-02  0.1555E-02  0.1553E-02  0.1801E-03  0.1798E-03  0.1803E-03  0.1800E-03  0.4104E-04  0.4093E-04  0.1801E-03  0.1798E-03  0.4784E-04  0.4771E-04
     -2.273  0.1883E-01  0.1880E-01  0.2028E-02  0.2024E-02  0.2028E-02  0.2024E-02  0.2023E-02  0.2019E-02  0.2279E-03  0.2274E-03  0.2282E-03  0.2277E-03  0.6223E-04  0.6203E-04  0.2279E-03  0.2274E-03  0.7262E-04  0.7239E-04
     -2.218  0.2234E-01  0.2232E-01  0.2583E-02  0.2580E-02  0.2583E-02  0.2580E-02  0.2580E-02  0.2576E-02  0.2843E-03  0.2839E-03  0.2844E-03  0.2841E-03  0.8594E-04  0.8580E-04  0.2843E-03  0.2839E-03  0.1007E-03  0.1005E-03
     -2.164  0.2263E-01  0.2263E-01  0.2767E-02  0.2766E-02  0.2767E-02  0.2766E-02  0.2767E-02  0.2766E-02  0.3133E-03  0.3131E-03  0.3132E-03  0.3130E-03  0.9347E-04  0.9343E-04  0.3133E-03  0.3131E-03  0.1105E-03  0.1105E-03
     -2.109  0.2112E-01  0.2112E-01  0.2751E-02  0.2750E-02  0.2751E-02  0.2750E-02  0.2751E-02  0.2749E-02  0.3416E-03  0.3412E-03  0.3417E-03  0.3413E-03  0.9021E-04  0.9017E-04  0.3416E-03  0.3412E-03  0.1075E-03  0.1075E-03
     -2.054  0.2091E-01  0.2091E-01  0.2897E-02  0.2895E-02  0.2897E-02  0.2895E-02  0.2896E-02  0.2894E-02  0.3940E-03  0.3937E-03  0.3942E-03  0.3938E-03  0.9246E-04  0.9240E-04  0.3940E-03  0.3937E-03  0.1101E-03  0.1101E-03
     -1.999  0.1901E-01  0.1902E-01  0.2785E-02  0.2786E-02  0.2785E-02  0.2786E-02  0.2787E-02  0.2788E-02  0.4015E-03  0.4015E-03  0.4015E-03  0.4015E-03  0.8905E-04  0.8907E-04  0.4015E-03  0.4015E-03  0.1051E-03  0.1051E-03
     -1.945  0.1592E-01  0.1592E-01  0.2527E-02  0.2527E-02  0.2527E-02  0.2527E-02  0.2527E-02  0.2526E-02  0.4035E-03  0.4031E-03  0.4038E-03  0.4034E-03  0.7859E-04  0.7858E-04  0.4035E-03  0.4031E-03  0.9006E-04  0.9008E-04
     -1.890  0.1638E-01  0.1636E-01  0.2908E-02  0.2903E-02  0.2908E-02  0.2903E-02  0.2901E-02  0.2895E-02  0.5124E-03  0.5113E-03  0.5132E-03  0.5121E-03  0.8355E-04  0.8342E-04  0.5124E-03  0.5113E-03  0.9279E-04  0.9266E-04
     -1.835  0.1925E-01  0.1923E-01  0.3854E-02  0.3847E-02  0.3854E-02  0.3847E-02  0.3841E-02  0.3834E-02  0.6787E-03  0.6776E-03  0.6793E-03  0.6782E-03  0.1030E-03  0.1028E-03  0.6787E-03  0.6776E-03  0.1146E-03  0.1144E-03
     -1.781  0.2027E-01  0.2027E-01  0.4654E-02  0.4649E-02  0.4654E-02  0.4649E-02  0.4642E-02  0.4637E-02  0.7719E-03  0.7715E-03  0.7719E-03  0.7715E-03  0.1174E-03  0.1173E-03  0.7719E-03  0.7715E-03  0.1329E-03  0.1328E-03
     -1.726  0.1820E-01  0.1821E-01  0.4829E-02  0.4828E-02  0.4829E-02  0.4828E-02  0.4825E-02  0.4824E-02  0.7666E-03  0.7665E-03  0.7663E-03  0.7663E-03  0.1149E-03  0.1149E-03  0.7666E-03  0.7665E-03  0.1321E-03  0.1320E-03
     -1.671  0.1538E-01  0.1539E-01  0.4676E-02  0.4674E-02  0.4676E-02  0.4674E-02  0.4673E-02  0.4672E-02  0.7654E-03  0.7650E-03  0.7658E-03  0.7654E-03  0.1047E-03  0.1047E-03  0.7654E-03  0.7650E-03  0.1218E-03  0.1218E-03
     -1.617  0.1366E-01  0.1366E-01  0.4712E-02  0.4709E-02  0.4712E-02  0.4709E-02  0.4709E-02  0.4707E-02  0.8284E-03  0.8278E-03  0.8291E-03  0.8285E-03  0.1011E-03  0.1010E-03  0.8284E-03  0.8278E-03  0.1183E-03  0.1182E-03
     -1.562  0.1266E-01  0.1266E-01  0.4697E-02  0.4696E-02  0.4697E-02  0.4696E-02  0.4702E-02  0.4700E-02  0.9260E-03  0.9250E-03  0.9270E-03  0.9260E-03  0.9833E-04  0.9829E-04  0.9260E-03  0.9250E-03  0.1129E-03  0.1129E-03