   4   4   1   0
  0.1078776E+02  0.3506715E-09  0.3507886E-09  0.3507886E-09  0.5000000E-15
  1.000000000000000E-004
  CAR 
 unknown system                          
     20.10891057     -1.92695239  301     12.19479357      1.00000000
     -1.927  0.0000E+00  0.0000E+00  0.0000E+00  0.0000E+00
     -1.853  0.0000E+00  0.0000E+00  0.0000E+00  0.0000E+00
     -1.780  0.0000E+00  0.0000E+00  0.0000E+00  0.0000E+00
     -1.707  0.0000E+00  0.0000E+00  0.0000E+00  0.0000E+00
     -1.633  0.0000E+00  0.0000E+00  0.0000E+00  0.0000E+00
     -1.560  0.0000E+00  0.0000E+00  0.0000E+00  0.0000E+00
     -1.486  0.0000E+00  0.0000E+00  0.0000E+00  0.0000E+00
     -1.413  0.0000E+00  0.0000E+00  0.0000E+00  0.0000E+00
     -1.339  0.1570E-05  0.1570E-05  0.1153E-06  0.1154E-06
     -1.266  0.1455E-04  0.1455E-04  0.1184E-05  0.1184E-05
     -1.192  0.7224E-04  0.7228E-04  0.6490E-05  0.6494E-05
     -1.119  0.3052E-03  0.3053E-03  0.2891E-04  0.2892E-04
     -1.046  0.1278E-02  0.1278E-02  0.1227E-03  0.1228E-03
     -0.972  0.4914E-02  0.4917E-02  0.4837E-03  0.4840E-03
     -0.899  0.1512E-01  0.1512E-01  0.1594E-02  0.1595E-02
     -0.825  0.3339E-01  0.3339E-01  0.4047E-02  0.4048E-02
     -0.752  0.5067E-01  0.5068E-01  0.7769E-02  0.7770E-02
     -0.678  0.5848E-01  0.5848E-01  0.1206E-01  0.1207E-01
     -0.605  0.7228E-01  0.7229E-01  0.1737E-01  0.1738E-01
     -0.531  0.9942E-01  0.9943E-01  0.2468E-01  0.2468E-01
     -0.458  0.1031E+00  0.1031E+00  0.3225E-01  0.3225E-01
     -0.384  0.8276E-01  0.8275E-01  0.3833E-01  0.3833E-01
     -0.311  0.9490E-01  0.9492E-01  0.4530E-01  0.4530E-01
     -0.238  0.1315E+00  0.1315E+00  0.5496E-01  0.5497E-01
     -0.164  0.1448E+00  0.1448E+00  0.6560E-01  0.6560E-01
     -0.091  0.1341E+00  0.1341E+00  0.7545E-01  0.7546E-01
     -0.017  0.1278E+00  0.1278E+00  0.8485E-01  0.8485E-01
      0.056  0.1531E+00  0.1532E+00  0.9610E-01  0.9610E-01
      0.130  0.1571E+00  0.1571E+00  0.1076E+00  0.1076E+00
      0.203  0.1208E+00  0.1208E+00  0.1165E+00  0.1165E+00
      0.277  0.1435E+00  0.1435E+00  0.1271E+00  0.1271E+00
      0.350  0.2010E+00  0.2010E+00  0.1418E+00  0.1418E+00
      0.424  0.2078E+00  0.2078E+00  0.1571E+00  0.1571E+00
      0.497  0.1958E+00  0.1958E+00  0.1715E+00  0.1715E+00
      0.570  0.2044E+00  0.2044E+00  0.1865E+00  0.1865E+00
      0.644  0.1885E+00  0.1885E+00  0.2004E+00  0.2004E+00
      0.717  0.1413E+00  0.1413E+00  0.2108E+00  0.2108E+00
      0.791  0.1504E+00  0.1504E+00  0.2218E+00  0.2219E+00
      0.864  0.2216E+00  0.2216E+00  0.2381E+00  0.2381E+00
      0.938  0.2800E+00  0.2800E+00  0.2587E+00  0.2587E+00
      1.011  0.2547E+00  0.2547E+00  0.2774E+00  0.2774E+00
      1.085  0.2409E+00  0.2409E+00  0.2951E+00  0.2951E+00
      1.158  0.2744E+00  0.2744E+00  0.3153E+00  0.3153E+00
      1.232  0.2233E+00  0.2233E+00  0.3317E+00  0.3317E+00
      1.305  0.1755E+00  0.1755E+00  0.3446E+00  0.3446E+00
      1.378  0.2312E+00  0.2313E+00  0.3616E+00  0.3616E+00
      1.452  0.3070E+00  0.3071E+00  0.3842E+00  0.3842E+00
      1.525  0.3317E+00  0.3317E+00  0.4086E+00  0.4086E+00
      1.599  0.3111E+00  0.3110E+00  0.4314E+00  0.4314E+00
      1.672  0.2908E+00  0.2908E+00  0.4528E+00  0.4528E+00
      1.746  0.2935E+00  0.2935E+00  0.4744E+00  0.4744E+00
      1.819  0.3074E+00  0.3074E+00  0.4969E+00  0.4970E+00
      1.893  0.3376E+00  0.3376E+00  0.5218E+00  0.5218E+00
      1.966  0.3632E+00  0.3632E+00  0.5485E+00  0.5485E+00
      2.040  0.3618E+00  0.3618E+00  0.5751E+00  0.5751E+00
      2.113  0.3319E+00  0.3319E+00  0.5995E+00  0.5995E+00
      2.186  0.2454E+00  0.2453E+00  0.6175E+00  0.6175E+00
      2.260  0.2088E+00  0.2089E+00  0.6329E+00  0.6329E+00
      2.333  0.2435E+00  0.2436E+00  0.6508E+00  0.6508E+00
      2.407  0.3370E+00  0.3371E+00  0.6756E+00  0.6756E+00
      2.480  0.3662E+00  0.3662E+00  0.7025E+00  0.7025E+00
      2.554  0.2849E+00  0.2848E+00  0.7234E+00  0.7234E+00
      2.627  0.2460E+00  0.2460E+00  0.7415E+00  0.7415E+00
      2.701  0.2038E+00  0.2038E+00  0.7565E+00  0.7565E+00
      2.774  0.2134E+00  0.2134E+00  0.7721E+00  0.7722E+00
      2.847  0.3559E+00  0.3560E+00  0.7983E+00  0.7983E+00
      2.921  0.4523E+00  0.4523E+00  0.8315E+00  0.8316E+00
      2.994  0.3714E+00  0.3713E+00  0.8588E+00  0.8589E+00
      3.068  0.3182E+00  0.3182E+00  0.8822E+00  0.8822E+00
      3.141  0.3005E+00  0.3005E+00  0.9043E+00  0.9043E+00
      3.215  0.2529E+00  0.2529E+00  0.9229E+00  0.9229E+00
      3.288  0.2925E+00  0.2926E+00  0.9444E+00  0.9444E+00
      3.362  0.3781E+00  0.3781E+00  0.9722E+00  0.9722E+00
      3.435  0.3679E+00  0.3679E+00  0.9992E+00  0.9992E+00
      3.509  0.2692E+00  0.2691E+00  0.1019E+01  0.1019E+01
      3.582  0.1782E+00  0.1782E+00  0.1032E+01  0.1032E+01
      3.655  0.2261E+00  0.2262E+00  0.1049E+01  0.1049E+01
      3.729  0.3441E+00  0.3442E+00  0.1074E+01  0.1074E+01
      3.802  0.3805E+00  0.3805E+00  0.1102E+01  0.1102E+01
      3.876  0.3612E+00  0.3612E+00  0.1129E+01  0.1129E+01
      3.949  0.3784E+00  0.3784E+00  0.1156E+01  0.1156E+01
      4.023  0.3209E+00  0.3208E+00  0.1180E+01  0.1180E+01
      4.096  0.2729E+00  0.2730E+00  0.1200E+01  0.1200E+01
      4.170  0.3364E+00  0.3365E+00  0.1225E+01  0.1225E+01
      4.243  0.3523E+00  0.3523E+00  0.1251E+01  0.1251E+01
      4.317  0.2752E+00  0.2751E+00  0.1271E+01  0.1271E+01
      4.390  0.2532E+00  0.2533E+00  0.1290E+01  0.1290E+01
      4.463  0.3627E+00  0.3628E+00  0.1316E+01  0.1316E+01
      4.537  0.3761E+00  0.3761E+00  0.1344E+01  0.1344E+01
      4.610  0.3477E+00  0.3478E+00  0.1369E+01  0.1369E+01
      4.684  0.4290E+00  0.4292E+00  0.1401E+01  0.1401E+01
      4.757  0.4687E+00  0.4687E+00  0.1435E+01  0.1435E+01
      4.831  0.4347E+00  0.4347E+00  0.1467E+01  0.1467E+01
      4.904  0.4614E+00  0.4614E+00  0.1501E+01  0.1501E+01
      4.978  0.4841E+00  0.4840E+00  0.1537E+01  0.1537E+01
      5.051  0.4239E+00  0.4238E+00  0.1568E+01  0.1568E+01
      5.125  0.4214E+00  0.4215E+00  0.1599E+01  0.1599E+01
      5.198  0.5211E+00  0.5212E+00  0.1637E+01  0.1637E+01
      5.271  0.5125E+00  0.5125E+00  0.1675E+01  0.1675E+01
      5.345  0.4877E+00  0.4877E+00  0.1711E+01  0.1711E+01
      5.418  0.5164E+00  0.5164E+00  0.1749E+01  0.1749E+01
      5.492  0.4806E+00  0.4806E+00  0.1784E+01  0.1784E+01
      5.565  0.4127E+00  0.4127E+00  0.1814E+01  0.1814E+01
      5.639  0.4163E+00  0.4165E+00  0.1845E+01  0.1845E+01
      5.712  0.5854E+00  0.5856E+00  0.1888E+01  0.1888E+01
      5.786  0.6394E+00  0.6394E+00  0.1935E+01  0.1935E+01
      5.859  0.5530E+00  0.5529E+00  0.1976E+01  0.1976E+01
      5.933  0.5406E+00  0.5409E+00  0.2015E+01  0.2015E+01
      6.006  0.6643E+00  0.6646E+00  0.2064E+01  0.2064E+01
      6.079  0.7098E+00  0.7097E+00  0.2116E+01  0.2116E+01
      6.153  0.6034E+00  0.6033E+00  0.2161E+01  0.2161E+01
      6.226  0.5920E+00  0.5921E+00  0.2204E+01  0.2204E+01
      6.300  0.5825E+00  0.5824E+00  0.2247E+01  0.2247E+01
      6.373  0.5254E+00  0.5254E+00  0.2286E+01  0.2286E+01
      6.447  0.5740E+00  0.5741E+00  0.2328E+01  0.2328E+01
      6.520  0.5777E+00  0.5776E+00  0.2370E+01  0.2370E+01
      6.594  0.5379E+00  0.5379E+00  0.2410E+01  0.2410E+01
      6.667  0.4732E+00  0.4731E+00  0.2445E+01  0.2445E+01
      6.740  0.4310E+00  0.4313E+00  0.2476E+01  0.2476E+01
      6.814  0.5430E+00  0.5436E+00  0.2516E+01  0.2516E+01
      6.887  0.6481E+00  0.6483E+00  0.2564E+01  0.2564E+01
      6.961  0.6410E+00  0.6408E+00  0.2611E+01  0.2611E+01
      7.034  0.5606E+00  0.5605E+00  0.2652E+01  0.2652E+01
      7.108  0.5941E+00  0.5944E+00  0.2696E+01  0.2696E+01
      7.181  0.6859E+00  0.6861E+00  0.2746E+01  0.2746E+01
      7.255  0.7327E+00  0.7329E+00  0.2800E+01  0.2800E+01
      7.328  0.6956E+00  0.6955E+00  0.2851E+01  0.2851E+01
      7.402  0.6336E+00  0.6337E+00  0.2898E+01  0.2898E+01
      7.475  0.6321E+00  0.6323E+00  0.2944E+01  0.2944E+01
      7.548  0.6347E+00  0.6347E+00  0.2991E+01  0.2991E+01
      7.622  0.7058E+00  0.7062E+00  0.3043E+01  0.3043E+01
      7.695  0.7999E+00  0.8002E+00  0.3102E+01  0.3102E+01
      7.769  0.8606E+00  0.8610E+00  0.3165E+01  0.3165E+01
      7.842  0.8630E+00  0.8629E+00  0.3228E+01  0.3229E+01
      7.916  0.7052E+00  0.7047E+00  0.3280E+01  0.3280E+01
      7.989  0.7409E+00  0.7418E+00  0.3335E+01  0.3335E+01
      8.063  0.1013E+01  0.1014E+01  0.3409E+01  0.3409E+01
      8.136  0.1183E+01  0.1184E+01  0.3496E+01  0.3496E+01
      8.210  0.1144E+01  0.1144E+01  0.3580E+01  0.3580E+01
      8.283  0.9847E+00  0.9842E+00  0.3652E+01  0.3653E+01
      8.356  0.8865E+00  0.8863E+00  0.3718E+01  0.3718E+01
      8.430  0.8584E+00  0.8591E+00  0.3781E+01  0.3781E+01
      8.503  0.1032E+01  0.1034E+01  0.3857E+01  0.3857E+01
      8.577  0.1262E+01  0.1263E+01  0.3949E+01  0.3950E+01
      8.650  0.1317E+01  0.1316E+01  0.4046E+01  0.4047E+01
      8.724  0.1221E+01  0.1220E+01  0.4136E+01  0.4136E+01
      8.797  0.1081E+01  0.1081E+01  0.4215E+01  0.4216E+01
      8.871  0.1065E+01  0.1065E+01  0.4294E+01  0.4294E+01
      8.944  0.1020E+01  0.1020E+01  0.4369E+01  0.4369E+01
      9.018  0.9530E+00  0.9532E+00  0.4439E+01  0.4439E+01
      9.091  0.1005E+01  0.1006E+01  0.4513E+01  0.4513E+01
      9.164  0.1236E+01  0.1238E+01  0.4603E+01  0.4604E+01
      9.238  0.1367E+01  0.1367E+01  0.4704E+01  0.4705E+01
      9.311  0.1266E+01  0.1265E+01  0.4797E+01  0.4798E+01
      9.385  0.1179E+01  0.1178E+01  0.4884E+01  0.4884E+01
      9.458  0.1084E+01  0.1083E+01  0.4963E+01  0.4964E+01
      9.532  0.9943E+00  0.9938E+00  0.5036E+01  0.5037E+01
      9.605  0.9443E+00  0.9447E+00  0.5106E+01  0.5106E+01
      9.679  0.9746E+00  0.9756E+00  0.5178E+01  0.5178E+01
      9.752  0.9837E+00  0.9832E+00  0.5250E+01  0.5250E+01
      9.826  0.8306E+00  0.8290E+00  0.5311E+01  0.5311E+01
      9.899  0.6880E+00  0.6879E+00  0.5362E+01  0.5362E+01
      9.972  0.6544E+00  0.6545E+00  0.5410E+01  0.5410E+01
     10.046  0.6209E+00  0.6211E+00  0.5455E+01  0.5456E+01
     10.119  0.6436E+00  0.6442E+00  0.5503E+01  0.5503E+01
     10.193  0.6745E+00  0.6746E+00  0.5552E+01  0.5553E+01
     10.266  0.6894E+00  0.6895E+00  0.5603E+01  0.5603E+01
     10.340  0.6577E+00  0.6571E+00  0.5651E+01  0.5652E+01
     10.413  0.6295E+00  0.6301E+00  0.5697E+01  0.5698E+01
     10.487  0.6919E+00  0.6929E+00  0.5748E+01  0.5749E+01
     10.560  0.7100E+00  0.7093E+00  0.5801E+01  0.5801E+01
     10.633  0.5720E+00  0.5700E+00  0.5843E+01  0.5843E+01
     10.707  0.4601E+00  0.4601E+00  0.5876E+01  0.5877E+01
     10.780  0.5365E+00  0.5384E+00  0.5916E+01  0.5916E+01
     10.854  0.6484E+00  0.6493E+00  0.5964E+01  0.5964E+01
     10.927  0.6510E+00  0.6495E+00  0.6011E+01  0.6012E+01
     11.001  0.4721E+00  0.4695E+00  0.6046E+01  0.6046E+01
     11.074  0.3797E+00  0.3802E+00  0.6074E+01  0.6074E+01
     11.148  0.5158E+00  0.5178E+00  0.6112E+01  0.6112E+01
     11.221  0.5776E+00  0.5776E+00  0.6154E+01  0.6155E+01
     11.295  0.5148E+00  0.5144E+00  0.6192E+01  0.6193E+01
     11.368  0.5071E+00  0.5080E+00  0.6230E+01  0.6230E+01
     11.441  0.6053E+00  0.6070E+00  0.6274E+01  0.6275E+01
     11.515  0.7034E+00  0.7045E+00  0.6326E+01  0.6326E+01
     11.588  0.8009E+00  0.8025E+00  0.6385E+01  0.6385E+01
     11.662  0.8928E+00  0.8932E+00  0.6450E+01  0.6451E+01
     11.735  0.8762E+00  0.8756E+00  0.6515E+01  0.6515E+01
     11.809  0.8927E+00  0.8933E+00  0.6580E+01  0.6581E+01
     11.882  0.9340E+00  0.9346E+00  0.6649E+01  0.6650E+01
     11.956  0.9728E+00  0.9743E+00  0.6720E+01  0.6721E+01
     12.029  0.1173E+01  0.1177E+01  0.6807E+01  0.6808E+01
     12.103  0.1322E+01  0.1322E+01  0.6904E+01  0.6905E+01
     12.176  0.1082E+01  0.1077E+01  0.6983E+01  0.6984E+01
     12.249  0.7774E+00  0.7738E+00  0.7040E+01  0.7041E+01
     12.323  0.6898E+00  0.6909E+00  0.7091E+01  0.7092E+01
     12.396  0.9041E+00  0.9082E+00  0.7158E+01  0.7159E+01
     12.470  0.1138E+01  0.1140E+01  0.7241E+01  0.7242E+01
     12.543  0.1131E+01  0.1130E+01  0.7324E+01  0.7326E+01
     12.617  0.1101E+01  0.1104E+01  0.7405E+01  0.7407E+01
     12.690  0.1413E+01  0.1421E+01  0.7509E+01  0.7511E+01
     12.764  0.1865E+01  0.1874E+01  0.7646E+01  0.7649E+01
     12.837  0.2347E+01  0.2359E+01  0.7819E+01  0.7822E+01
     12.911  0.2800E+01  0.2809E+01  0.8024E+01  0.8028E+01
     12.984  0.2847E+01  0.2841E+01  0.8234E+01  0.8237E+01
     13.057  0.2307E+01  0.2293E+01  0.8403E+01  0.8406E+01
     13.131  0.1758E+01  0.1749E+01  0.8532E+01  0.8534E+01
     13.204  0.1548E+01  0.1543E+01  0.8646E+01  0.8648E+01
     13.278  0.1320E+01  0.1314E+01  0.8743E+01  0.8744E+01
     13.351  0.1054E+01  0.1050E+01  0.8821E+01  0.8822E+01
     13.425  0.8511E+00  0.8485E+00  0.8884E+01  0.8884E+01
     13.498  0.7242E+00  0.7223E+00  0.8937E+01  0.8937E+01
     13.572  0.6583E+00  0.6569E+00  0.8985E+01  0.8986E+01
     13.645  0.5065E+00  0.5045E+00  0.9023E+01  0.9023E+01
     13.719  0.3149E+00  0.3136E+00  0.9046E+01  0.9046E+01
     13.792  0.2769E+00  0.2771E+00  0.9066E+01  0.9066E+01
     13.865  0.4239E+00  0.4254E+00  0.9097E+01  0.9098E+01
     13.939  0.6443E+00  0.6459E+00  0.9145E+01  0.9145E+01
     14.012  0.7226E+00  0.7228E+00  0.9198E+01  0.9198E+01
     14.086  0.7181E+00  0.7180E+00  0.9251E+01  0.9251E+01
     14.159  0.7404E+00  0.7403E+00  0.9305E+01  0.9305E+01
     14.233  0.7518E+00  0.7519E+00  0.9360E+01  0.9361E+01
     14.306  0.8009E+00  0.8016E+00  0.9419E+01  0.9420E+01
     14.380  0.8347E+00  0.8345E+00  0.9480E+01  0.9481E+01
     14.453  0.7512E+00  0.7508E+00  0.9536E+01  0.9536E+01
     14.526  0.7233E+00  0.7236E+00  0.9589E+01  0.9589E+01
     14.600  0.6928E+00  0.6923E+00  0.9640E+01  0.9640E+01
     14.673  0.6912E+00  0.6919E+00  0.9690E+01  0.9691E+01
     14.747  0.8233E+00  0.8247E+00  0.9751E+01  0.9752E+01
     14.820  0.8786E+00  0.8781E+00  0.9816E+01  0.9816E+01
     14.894  0.7585E+00  0.7569E+00  0.9871E+01  0.9872E+01
     14.967  0.5607E+00  0.5593E+00  0.9913E+01  0.9913E+01
     15.041  0.3827E+00  0.3814E+00  0.9941E+01  0.9941E+01
     15.114  0.2945E+00  0.2944E+00  0.9962E+01  0.9963E+01
     15.188  0.3849E+00  0.3865E+00  0.9991E+01  0.9991E+01
     15.261  0.5183E+00  0.5194E+00  0.1003E+02  0.1003E+02
     15.334  0.5655E+00  0.5655E+00  0.1007E+02  0.1007E+02
     15.408  0.5210E+00  0.5225E+00  0.1011E+02  0.1011E+02
     15.481  0.6346E+00  0.6390E+00  0.1016E+02  0.1016E+02
     15.555  0.8202E+00  0.8234E+00  0.1022E+02  0.1022E+02
     15.628  0.1000E+01  0.1004E+01  0.1029E+02  0.1029E+02
     15.702  0.1069E+01  0.1073E+01  0.1037E+02  0.1037E+02
     15.775  0.9472E+00  0.9478E+00  0.1044E+02  0.1044E+02
     15.849  0.8241E+00  0.8213E+00  0.1050E+02  0.1050E+02
     15.922  0.8019E+00  0.8104E+00  0.1056E+02  0.1056E+02
     15.996  0.9430E+00  0.9570E+00  0.1063E+02  0.1063E+02
     16.069  0.1034E+01  0.1026E+01  0.1070E+02  0.1070E+02
     16.142  0.1110E+01  0.1090E+01  0.1078E+02  0.1078E+02
     16.216  0.1155E+01  0.1126E+01  0.1087E+02  0.1087E+02
     16.289  0.1112E+01  0.1089E+01  0.1095E+02  0.1095E+02
     16.363  0.1140E+01  0.1148E+01  0.1103E+02  0.1103E+02
     16.436  0.1179E+01  0.1203E+01  0.1112E+02  0.1112E+02
     16.510  0.1186E+01  0.1198E+01  0.1121E+02  0.1121E+02
     16.583  0.1084E+01  0.1084E+01  0.1129E+02  0.1129E+02
     16.657  0.8378E+00  0.8401E+00  0.1135E+02  0.1135E+02
     16.730  0.7758E+00  0.7801E+00  0.1141E+02  0.1141E+02
     16.804  0.9435E+00  0.9392E+00  0.1148E+02  0.1148E+02
     16.877  0.9834E+00  0.9826E+00  0.1155E+02  0.1155E+02
     16.950  0.8760E+00  0.8792E+00  0.1161E+02  0.1161E+02
     17.024  0.6870E+00  0.6853E+00  0.1166E+02  0.1166E+02
     17.097  0.5136E+00  0.5181E+00  0.1170E+02  0.1170E+02
     17.171  0.4488E+00  0.4494E+00  0.1173E+02  0.1173E+02
     17.244  0.4181E+00  0.3930E+00  0.1176E+02  0.1176E+02
     17.318  0.3556E+00  0.3237E+00  0.1179E+02  0.1179E+02
     17.391  0.2639E+00  0.2713E+00  0.1181E+02  0.1181E+02
     17.465  0.2125E+00  0.2330E+00  0.1183E+02  0.1182E+02
     17.538  0.2414E+00  0.2520E+00  0.1184E+02  0.1184E+02
     17.612  0.2491E+00  0.2520E+00  0.1186E+02  0.1186E+02
     17.685  0.1748E+00  0.1752E+00  0.1187E+02  0.1187E+02
     17.758  0.9914E-01  0.9938E-01  0.1188E+02  0.1188E+02
     17.832  0.1013E+00  0.1030E+00  0.1189E+02  0.1189E+02
     17.905  0.1593E+00  0.1595E+00  0.1190E+02  0.1190E+02
     17.979  0.1595E+00  0.1577E+00  0.1191E+02  0.1191E+02
     18.052  0.1283E+00  0.1297E+00  0.1192E+02  0.1192E+02
     18.126  0.1326E+00  0.1376E+00  0.1193E+02  0.1193E+02
     18.199  0.1543E+00  0.1580E+00  0.1194E+02  0.1194E+02
     18.273  0.1641E+00  0.1645E+00  0.1196E+02  0.1196E+02
     18.346  0.1293E+00  0.1284E+00  0.1196E+02  0.1197E+02
     18.419  0.6730E-01  0.7770E-01  0.1197E+02  0.1197E+02
     18.493  0.5806E-01  0.7673E-01  0.1197E+02  0.1198E+02
     18.566  0.8945E-01  0.7640E-01  0.1198E+02  0.1198E+02
     18.640  0.9169E-01  0.5040E-01  0.1199E+02  0.1199E+02
     18.713  0.6893E-01  0.3532E-01  0.1199E+02  0.1199E+02
     18.787  0.4293E-01  0.3878E-01  0.1200E+02  0.1199E+02
     18.860  0.1774E-01  0.3631E-01  0.1200E+02  0.1199E+02
     18.934  0.6874E-02  0.2205E-01  0.1200E+02  0.1200E+02
     19.007  0.7780E-02  0.1601E-01  0.1200E+02  0.1200E+02
     19.081  0.1205E-01  0.1883E-01  0.1200E+02  0.1200E+02
     19.154  0.9841E-02  0.1269E-01  0.1200E+02  0.1200E+02
     19.227  0.4292E-02  0.4398E-02  0.1200E+02  0.1200E+02
     19.301  0.1238E-02  0.1130E-02  0.1200E+02  0.1200E+02
     19.374  0.3025E-03  0.2675E-03  0.1200E+02  0.1200E+02
     19.448  0.4540E-04  0.6198E-04  0.1200E+02  0.1200E+02
     19.521  0.0000E+00  0.0000E+00  0.1200E+02  0.1200E+02
     19.595  0.0000E+00  0.0000E+00  0.1200E+02  0.1200E+02
     19.668  0.0000E+00  0.0000E+00  0.1200E+02  0.1200E+02
     19.742  0.0000E+00  0.0000E+00  0.1200E+02  0.1200E+02
     19.815  0.0000E+00  0.0000E+00  0.1200E+02  0.1200E+02
     19.889  0.0000E+00  0.0000E+00  0.1200E+02  0.1200E+02
     19.962  0.0000E+00  0.0000E+00  0.1200E+02  0.1200E+02
     20.035  0.0000E+00  0.0000E+00  0.1200E+02  0.1200E+02
     20.109  0.0000E+00  0.0000E+00  0.1200E+02  0.1200E+02
     20.10891057     -1.92695239  301     12.19479357      1.00000000
     -1.927  0.0000E+00  0.0000E+00  0.0000E+00  0.0000E+00  0.0000E+00  0.0000E+00  0.0000E+00  0.0000E+00  0.0000E+00  0.0000E+00  0.0000E+00  0.0000E+00  0.0000E+00  0.0000E+00  0.0000E+00  0.0000E+00  0.0000E+00  0.0000E+00
     -1.853  0.0000E+00  0.0000E+00  0.0000E+00  0.0000E+00  0.0000E+00  0.0000E+00  0.0000E+00  0.0000E+00  0.0000E+00  0.0000E+00  0.0000E+00  0.0000E+00  0.0000E+00  0.0000E+00  0.0000E+00  0.0000E+00  0.0000E+00  0.0000E+00
     -1.780  0.0000E+00  0.0000E+00  0.0000E+00  0.0000E+00  0.0000E+00  0.0000E+00  0.0000E+00  0.0000E+00  0.0000E+00  0.0000E+00  0.0000E+00  0.0000E+00  0.0000E+00  0.0000E+00  0.0000E+00  0.0000E+00  0.0000E+00  0.0000E+00
     -1.707  0.0000E+00  0.0000E+00  0.0000E+00  0.0000E+00  0.0000E+00  0.0000E+00  0.0000E+00  0.0000E+00  0.0000E+00  0.0000E+00  0.0000E+00  0.0000E+00  0.0000E+00  0.0000E+00  0.0000E+00  0.0000E+00  0.0000E+00  0.0000E+00
     -1.633  0.0000E+00  0.0000E+00  0.0000E+00  0.0000E+00  0.0000E+00  0.0000E+00  0.0000E+00  0.0000E+00  0.0000E+00  0.0000E+00  0.0000E+00  0.0000E+00  0.0000E+00  0.0000E+00  0.0000E+00  0.0000E+00  0.0000E+00  0.0000E+00
     -1.560  0.0000E+00  0.0000E+00  0.0000E+00  0.0000E+00  0.0000E+00  0.0000E+00  0.0000E+00  0.0000E+00  0.0000E+00  0.0000E+00  0.0000E+00  0.0000E+00  0.0000E+00  0.0000E+00  0.0000E+00  0.0000E+00  0.0000E+00  0.0000E+00
     -1.486  0.0000E+00  0.0000E+00  0.0000E+00  0.0000E+00  0.0000E+00  0.0000E+00  0.0000E+00  0.0000E+00  0.0000E+00  0.0000E+00  0.0000E+00  0.0000E+00  0.0000E+00  0.0000E+00  0.0000E+00  0.0000E+00  0.0000E+00  0.0000E+00
     -1.413  0.0000E+00  0.0000E+00  0.0000E+00  0.0000E+00  0.0000E+00  0.0000E+00  0.0000E+00  0.0000E+00  0.0000E+00  0.0000E+00  0.0000E+00  0.0000E+00  0.0000E+00  0.0000E+00  0.0000E+00  0.0000E+00  0.0000E+00  0.0000E+00
     -1.339  0.2991E-06  0.2993E-06  0.4288E-22  0.5708E-22  0.4288E-22  0.5708E-22  0.1982E-23  0.1141E-21  0.5906E-14  0.2635E-14  0.6022E-15  0.8603E-15  0.7647E-15  0.8684E-15  0.5906E-14  0.2635E-14  0.9923E-15  0.1207E-14
     -1.266  0.2747E-05  0.2749E-05  0.6990E-08  0.6994E-08  0.6990E-08  0.6994E-08  0.6984E-08  0.6988E-08  0.4680E-13  0.1737E-13  0.2842E-13  0.8407E-14  0.2847E-10  0.2855E-10  0.4680E-13  0.1737E-13  0.3633E-10  0.3643E-10
     -1.192  0.1359E-04  0.1359E-04  0.5091E-07  0.5094E-07  0.5091E-07  0.5094E-07  0.5088E-07  0.5091E-07  0.2216E-09  0.2221E-09  0.2195E-09  0.2223E-09  0.1671E-09  0.1670E-09  0.2216E-09  0.2221E-09  0.1770E-09  0.1770E-09
     -1.119  0.5737E-04  0.5740E-04  0.2204E-06  0.2205E-06  0.2204E-06  0.2205E-06  0.2203E-06  0.2204E-06  0.1188E-08  0.1182E-08  0.1181E-08  0.1182E-08  0.6519E-09  0.6520E-09  0.1188E-08  0.1182E-08  0.7111E-09  0.7114E-09
     -1.046  0.2401E-03  0.2402E-03  0.9476E-06  0.9481E-06  0.9476E-06  0.9481E-06  0.9469E-06  0.9475E-06  0.4700E-08  0.4680E-08  0.4669E-08  0.4682E-08  0.3227E-08  0.3229E-08  0.4700E-08  0.4680E-08  0.3599E-08  0.3601E-08
     -0.972  0.9220E-03  0.9225E-03  0.4047E-05  0.4049E-05  0.4047E-05  0.4049E-05  0.4044E-05  0.4047E-05  0.2195E-07  0.2187E-07  0.2183E-07  0.2188E-07  0.1440E-07  0.1441E-07  0.2195E-07  0.2187E-07  0.1599E-07  0.1600E-07
     -0.899  0.2827E-02  0.2829E-02  0.1503E-04  0.1503E-04  0.1503E-04  0.1503E-04  0.1502E-04  0.1502E-04  0.9258E-07  0.9225E-07  0.9210E-07  0.9228E-07  0.5245E-07  0.5247E-07  0.9258E-07  0.9225E-07  0.5750E-07  0.5752E-07
     -0.825  0.6210E-02  0.6212E-02  0.4249E-04  0.4251E-04  0.4249E-04  0.4251E-04  0.4247E-04  0.4249E-04  0.3261E-06  0.3247E-06  0.3246E-06  0.3247E-06  0.1480E-06  0.1480E-06  0.3261E-06  0.3247E-06  0.1580E-06  0.1580E-06
     -0.752  0.9352E-02  0.9353E-02  0.8495E-04  0.8497E-04  0.8495E-04  0.8497E-04  0.8490E-04  0.8492E-04  0.8408E-06  0.8357E-06  0.8382E-06  0.8356E-06  0.3434E-06  0.3436E-06  0.8408E-06  0.8357E-06  0.3776E-06  0.3778E-06
     -0.678  0.1066E-01  0.1066E-01  0.1352E-03  0.1353E-03  0.1352E-03  0.1353E-03  0.1351E-03  0.1351E-03  0.1585E-05  0.1576E-05  0.1585E-05  0.1576E-05  0.8616E-06  0.8634E-06  0.1585E-05  0.1576E-05  0.1022E-05  0.1023E-05
     -0.605  0.1294E-01  0.1295E-01  0.2288E-03  0.2288E-03  0.2288E-03  0.2288E-03  0.2285E-03  0.2286E-03  0.3104E-05  0.3101E-05  0.3111E-05  0.3101E-05  0.2089E-05  0.2094E-05  0.3104E-05  0.3101E-05  0.2517E-05  0.2521E-05
     -0.531  0.1758E-01  0.1759E-01  0.3737E-03  0.3738E-03  0.3737E-03  0.3738E-03  0.3736E-03  0.3737E-03  0.6433E-05  0.6437E-05  0.6444E-05  0.6434E-05  0.3452E-05  0.3456E-05  0.6433E-05  0.6437E-05  0.4130E-05  0.4133E-05
     -0.458  0.1806E-01  0.1807E-01  0.4312E-03  0.4313E-03  0.4312E-03  0.4313E-03  0.4313E-03  0.4313E-03  0.9435E-05  0.9436E-05  0.9446E-05  0.9431E-05  0.3670E-05  0.3666E-05  0.9435E-05  0.9436E-05  0.4336E-05  0.4328E-05
     -0.384  0.1427E-01  0.1427E-01  0.4071E-03  0.4072E-03  0.4071E-03  0.4072E-03  0.4069E-03  0.4070E-03  0.1133E-04  0.1133E-04  0.1136E-04  0.1134E-04  0.3986E-05  0.3976E-05  0.1133E-04  0.1133E-04  0.4402E-05  0.4387E-05
     -0.311  0.1597E-01  0.1597E-01  0.5687E-03  0.5689E-03  0.5687E-03  0.5689E-03  0.5678E-03  0.5679E-03  0.1825E-04  0.1825E-04  0.1829E-04  0.1825E-04  0.7421E-05  0.7398E-05  0.1825E-04  0.1825E-04  0.8109E-05  0.8078E-05
     -0.238  0.2181E-01  0.2182E-01  0.8704E-03  0.8705E-03  0.8704E-03  0.8705E-03  0.8689E-03  0.8690E-03  0.2700E-04  0.2698E-04  0.2703E-04  0.2699E-04  0.1446E-04  0.1441E-04  0.2700E-04  0.2698E-04  0.1682E-04  0.1675E-04
     -0.164  0.2371E-01  0.2371E-01  0.1033E-02  0.1033E-02  0.1033E-02  0.1033E-02  0.1033E-02  0.1033E-02  0.3058E-04  0.3052E-04  0.3060E-04  0.3054E-04  0.2097E-04  0.2090E-04  0.3058E-04  0.3052E-04  0.2547E-04  0.2539E-04
     -0.091  0.2163E-01  0.2163E-01  0.1037E-02  0.1037E-02  0.1037E-02  0.1037E-02  0.1038E-02  0.1038E-02  0.3715E-04  0.3706E-04  0.3718E-04  0.3710E-04  0.2094E-04  0.2089E-04  0.3715E-04  0.3706E-04  0.2558E-04  0.2552E-04
     -0.017  0.2019E-01  0.2020E-01  0.1089E-02  0.1089E-02  0.1089E-02  0.1089E-02  0.1089E-02  0.1089E-02  0.5357E-04  0.5345E-04  0.5365E-04  0.5356E-04  0.1916E-04  0.1912E-04  0.5357E-04  0.5345E-04  0.2211E-04  0.2206E-04
      0.056  0.2373E-01  0.2374E-01  0.1412E-02  0.1413E-02  0.1412E-02  0.1413E-02  0.1411E-02  0.1412E-02  0.8196E-04  0.8174E-04  0.8204E-04  0.8183E-04  0.2412E-04  0.2408E-04  0.8196E-04  0.8174E-04  0.2637E-04  0.2631E-04
      0.130  0.2406E-01  0.2406E-01  0.1518E-02  0.1518E-02  0.1518E-02  0.1518E-02  0.1517E-02  0.1517E-02  0.9206E-04  0.9177E-04  0.9200E-04  0.9171E-04  0.2730E-04  0.2726E-04  0.9206E-04  0.9177E-04  0.3030E-04  0.3024E-04
      0.203  0.1810E-01  0.1810E-01  0.1261E-02  0.1261E-02  0.1261E-02  0.1261E-02  0.1259E-02  0.1259E-02  0.7191E-04  0.7169E-04  0.7187E-04  0.7165E-04  0.3021E-04  0.3016E-04  0.7191E-04  0.7169E-04  0.3583E-04  0.3575E-04
      0.277  0.2079E-01  0.2080E-01  0.1663E-02  0.1663E-02  0.1663E-02  0.1663E-02  0.1657E-02  0.1658E-02  0.9163E-04  0.9141E-04  0.9180E-04  0.9157E-04  0.5092E-04  0.5083E-04  0.9163E-04  0.9141E-04  0.6249E-04  0.6236E-04
      0.350  0.2868E-01  0.2869E-01  0.2428E-02  0.2429E-02  0.2428E-02  0.2429E-02  0.2425E-02  0.2426E-02  0.1455E-03  0.1452E-03  0.1458E-03  0.1455E-03  0.7657E-04  0.7647E-04  0.1455E-03  0.1452E-03  0.9241E-04  0.9225E-04
      0.424  0.2921E-01  0.2922E-01  0.2596E-02  0.2597E-02  0.2596E-02  0.2597E-02  0.2597E-02  0.2598E-02  0.1794E-03  0.1790E-03  0.1796E-03  0.1792E-03  0.8031E-04  0.8022E-04  0.1794E-03  0.1790E-03  0.9298E-04  0.9284E-04
      0.497  0.2693E-01  0.2693E-01  0.2568E-02  0.2568E-02  0.2568E-02  0.2568E-02  0.2566E-02  0.2567E-02  0.2041E-03  0.2037E-03  0.2042E-03  0.2039E-03  0.7813E-04  0.7801E-04  0.2041E-03  0.2037E-03  0.8823E-04  0.8806E-04
      0.570  0.2749E-01  0.2750E-01  0.2809E-02  0.2809E-02  0.2809E-02  0.2809E-02  0.2807E-02  0.2808E-02  0.2439E-03  0.2436E-03  0.2440E-03  0.2436E-03  0.8503E-04  0.8485E-04  0.2439E-03  0.2436E-03  0.9778E-04  0.9752E-04
      0.644  0.2498E-01  0.2498E-01  0.2658E-02  0.2658E-02  0.2658E-02  0.2658E-02  0.2663E-02  0.2663E-02  0.2646E-03  0.2641E-03  0.2643E-03  0.2638E-03  0.7045E-04  0.7028E-04  0.2646E-03  0.2641E-03  0.8138E-04  0.8114E-04
      0.717  0.1828E-01  0.1828E-01  0.2076E-02  0.2076E-02  0.2076E-02  0.2076E-02  0.2076E-02  0.2076E-02  0.2353E-03  0.2349E-03  0.2354E-03  0.2350E-03  0.4973E-04  0.4962E-04  0.2353E-03  0.2349E-03  0.5727E-04  0.5712E-04
      0.791  0.1858E-01  0.1858E-01  0.2389E-02  0.2389E-02  0.2389E-02  0.2389E-02  0.2377E-02  0.2378E-02  0.2732E-03  0.2728E-03  0.2741E-03  0.2737E-03  0.7213E-04  0.7203E-04  0.2732E-03  0.2728E-03  0.8351E-04  0.8337E-04
      0.864  0.2643E-01  0.2644E-01  0.3713E-02  0.3713E-02  0.3713E-02  0.3713E-02  0.3694E-02  0.3695E-02  0.3992E-03  0.3987E-03  0.4004E-03  0.3999E-03  0.1386E-03  0.1384E-03  0.3992E-03  0.3987E-03  0.1595E-03  0.1593E-03
      0.938  0.3261E-01  0.3261E-01  0.4852E-02  0.4852E-02  0.4852E-02  0.4852E-02  0.4842E-02  0.4842E-02  0.4981E-03  0.4974E-03  0.4981E-03  0.4974E-03  0.1982E-03  0.1979E-03  0.4981E-03  0.4974E-03  0.2311E-03  0.2307E-03
      1.011  0.2893E-01  0.2893E-01  0.4547E-02  0.4547E-02  0.4547E-02  0.4547E-02  0.4552E-02  0.4552E-02  0.4766E-03  0.4759E-03  0.4761E-03  0.4754E-03  0.1873E-03  0.1869E-03  0.4766E-03  0.4759E-03  0.2234E-03  0.2229E-03
      1.085  0.2641E-01  0.2642E-01  0.4452E-02  0.4452E-02  0.4452E-02  0.4452E-02  0.4446E-02  0.4447E-02  0.5476E-03  0.5470E-03  0.5486E-03  0.5479E-03  0.1693E-03  0.1688E-03  0.5476E-03  0.5470E-03  0.2028E-03  0.2022E-03
      1.158  0.2924E-01  0.2924E-01  0.5203E-02  0.5203E-02  0.5203E-02  0.5203E-02  0.5196E-02  0.5197E-02  0.6908E-03  0.6899E-03  0.6915E-03  0.6906E-03  0.1954E-03  0.1949E-03  0.6908E-03  0.6899E-03  0.2329E-03  0.2323E-03
      1.232  0.2318E-01  0.2318E-01  0.4330E-02  0.4330E-02  0.4330E-02  0.4330E-02  0.4343E-02  0.4343E-02  0.5905E-03  0.5897E-03  0.5902E-03  0.5895E-03  0.1724E-03  0.1720E-03  0.5905E-03  0.5897E-03  0.2032E-03  0.2027E-03
      1.305  0.1747E-01  0.1747E-01  0.3484E-02  0.3485E-02  0.3484E-02  0.3485E-02  0.3485E-02  0.3486E-02  0.5845E-03  0.5842E-03  0.5862E-03  0.5860E-03  0.1317E-03  0.1316E-03  0.5845E-03  0.5842E-03  0.1461E-03  0.1459E-03
      1.378  0.2194E-01  0.2195E-01  0.4729E-02  0.4730E-02  0.4729E-02  0.4730E-02  0.4708E-02  0.4709E-02  0.9149E-03  0.9148E-03  0.9177E-03  0.9176E-03  0.1603E-03  0.1603E-03  0.9149E-03  0.9148E-03  0.1718E-03  0.1718E-03
      1.452  0.2760E-01  0.2760E-01  0.6540E-02  0.6541E-02  0.6540E-02  0.6541E-02  0.6508E-02  0.6509E-02  0.1247E-02  0.1247E-02  0.1248E-02  0.1248E-02  0.2102E-03  0.2103E-03  0.1247E-02  0.1247E-02  0.2303E-03  0.2304E-03
      1.525  0.2708E-01  0.2708E-01  0.7578E-02  0.7578E-02  0.7578E-02  0.7578E-02  0.7540E-02  0.7541E-02  0.1282E-02  0.1281E-02  0.1281E-02  0.1281E-02  0.2378E-03  0.2378E-03  0.1282E-02  0.1281E-02  0.2680E-03  0.2680E-03
      1.599  0.2223E-01  0.2223E-01  0.7675E-02  0.7675E-02  0.7675E-02  0.7675E-02  0.7657E-02  0.7657E-02  0.1133E-02  0.1132E-02  0.1132E-02  0.1131E-02  0.2282E-03  0.2281E-03  0.1133E-02  0.1132E-02  0.2647E-03  0.2645E-03
      1.672  0.1880E-01  0.1880E-01  0.7455E-02  0.7455E-02  0.7455E-02  0.7455E-02  0.7451E-02  0.7451E-02  0.1146E-02  0.1146E-02  0.1148E-02  0.1148E-02  0.2102E-03  0.2101E-03  0.1146E-02  0.1146E-02  0.2492E-03  0.2490E-03
      1.746  0.1719E-01  0.1719E-01  0.7722E-02  0.7723E-02  0.7722E-02  0.7723E-02  0.7702E-02  0.7703E-02  0.1311E-02  0.1310E-02  0.1314E-02  0.1314E-02  0.2089E-03  0.2087E-03  0.1311E-02  0.1310E-02  0.2472E-03  0.2470E-03