   4   4   1   0
  0.1664577E+02  0.4052204E-09  0.4053557E-09  0.4053557E-09  0.5000000E-15
  1.000000000000000E-004
  CAR 
 unknown system                          
     12.09864253     -3.77790395  301      7.27784790      1.00000000
     -3.778  0.0000E+00  0.0000E+00  0.0000E+00  0.0000E+00
     -3.725  0.0000E+00  0.0000E+00  0.0000E+00  0.0000E+00
     -3.672  0.0000E+00  0.0000E+00  0.0000E+00  0.0000E+00
     -3.619  0.0000E+00  0.0000E+00  0.0000E+00  0.0000E+00
     -3.566  0.0000E+00  0.0000E+00  0.0000E+00  0.0000E+00
     -3.513  0.0000E+00  0.0000E+00  0.0000E+00  0.0000E+00
     -3.460  0.2594E-05  0.2656E-05  0.1373E-06  0.1405E-06
     -3.407  0.2016E-04  0.2064E-04  0.1204E-05  0.1233E-05
     -3.355  0.7283E-04  0.7456E-04  0.5058E-05  0.5179E-05
     -3.302  0.1991E-03  0.2038E-03  0.1560E-04  0.1597E-04
     -3.249  0.5647E-03  0.5780E-03  0.4548E-04  0.4656E-04
     -3.196  0.1640E-02  0.1677E-02  0.1322E-03  0.1353E-03
     -3.143  0.4488E-02  0.4587E-02  0.3698E-03  0.3781E-03
     -3.090  0.1134E-01  0.1157E-01  0.9701E-03  0.9901E-03
     -3.037  0.2505E-01  0.2544E-01  0.2296E-02  0.2336E-02
     -2.984  0.4520E-01  0.4568E-01  0.4688E-02  0.4754E-02
     -2.931  0.6543E-01  0.6583E-01  0.8151E-02  0.8237E-02
     -2.878  0.8167E-01  0.8202E-01  0.1247E-01  0.1258E-01
     -2.825  0.1007E+00  0.1012E+00  0.1780E-01  0.1793E-01
     -2.772  0.1232E+00  0.1236E+00  0.2432E-01  0.2448E-01
     -2.719  0.1317E+00  0.1316E+00  0.3129E-01  0.3144E-01
     -2.667  0.1266E+00  0.1266E+00  0.3799E-01  0.3814E-01
     -2.614  0.1370E+00  0.1375E+00  0.4525E-01  0.4542E-01
     -2.561  0.1654E+00  0.1660E+00  0.5400E-01  0.5420E-01
     -2.508  0.1839E+00  0.1841E+00  0.6373E-01  0.6395E-01
     -2.455  0.1837E+00  0.1836E+00  0.7346E-01  0.7367E-01
     -2.402  0.1818E+00  0.1819E+00  0.8308E-01  0.8329E-01
     -2.349  0.1944E+00  0.1947E+00  0.9338E-01  0.9360E-01
     -2.296  0.2025E+00  0.2024E+00  0.1041E+00  0.1043E+00
     -2.243  0.1900E+00  0.1898E+00  0.1142E+00  0.1144E+00
     -2.190  0.1972E+00  0.1977E+00  0.1246E+00  0.1248E+00
     -2.137  0.2373E+00  0.2382E+00  0.1372E+00  0.1374E+00
     -2.084  0.2642E+00  0.2644E+00  0.1511E+00  0.1514E+00
     -2.031  0.2652E+00  0.2651E+00  0.1652E+00  0.1655E+00
     -1.979  0.2634E+00  0.2634E+00  0.1791E+00  0.1794E+00
     -1.926  0.2553E+00  0.2549E+00  0.1926E+00  0.1929E+00
     -1.873  0.2278E+00  0.2271E+00  0.2047E+00  0.2049E+00
     -1.820  0.2146E+00  0.2148E+00  0.2161E+00  0.2163E+00
     -1.767  0.2520E+00  0.2531E+00  0.2294E+00  0.2297E+00
     -1.714  0.3148E+00  0.3158E+00  0.2461E+00  0.2464E+00
     -1.661  0.3442E+00  0.3441E+00  0.2643E+00  0.2646E+00
     -1.608  0.3297E+00  0.3293E+00  0.2817E+00  0.2821E+00
     -1.555  0.3291E+00  0.3293E+00  0.2992E+00  0.2995E+00
     -1.502  0.3308E+00  0.3304E+00  0.3167E+00  0.3170E+00
     -1.449  0.2894E+00  0.2884E+00  0.3320E+00  0.3323E+00
     -1.396  0.2670E+00  0.2670E+00  0.3461E+00  0.3464E+00
     -1.344  0.3167E+00  0.3179E+00  0.3629E+00  0.3632E+00
     -1.291  0.3934E+00  0.3944E+00  0.3838E+00  0.3841E+00
     -1.238  0.4335E+00  0.4334E+00  0.4067E+00  0.4071E+00
     -1.185  0.4179E+00  0.4171E+00  0.4288E+00  0.4292E+00
     -1.132  0.3877E+00  0.3872E+00  0.4494E+00  0.4497E+00
     -1.079  0.3803E+00  0.3801E+00  0.4695E+00  0.4698E+00
     -1.026  0.3753E+00  0.3751E+00  0.4894E+00  0.4897E+00
     -0.973  0.3805E+00  0.3809E+00  0.5095E+00  0.5098E+00
     -0.920  0.4202E+00  0.4209E+00  0.5318E+00  0.5321E+00
     -0.867  0.4506E+00  0.4505E+00  0.5556E+00  0.5560E+00
     -0.814  0.4364E+00  0.4358E+00  0.5787E+00  0.5790E+00
     -0.761  0.3854E+00  0.3844E+00  0.5991E+00  0.5994E+00
     -0.708  0.3163E+00  0.3153E+00  0.6159E+00  0.6161E+00
     -0.656  0.2752E+00  0.2748E+00  0.6304E+00  0.6306E+00
     -0.603  0.2811E+00  0.2815E+00  0.6453E+00  0.6455E+00
     -0.550  0.3387E+00  0.3396E+00  0.6633E+00  0.6635E+00
     -0.497  0.4087E+00  0.4091E+00  0.6849E+00  0.6852E+00
     -0.444  0.4024E+00  0.4017E+00  0.7062E+00  0.7065E+00
     -0.391  0.3419E+00  0.3412E+00  0.7243E+00  0.7246E+00
     -0.338  0.2982E+00  0.2981E+00  0.7401E+00  0.7403E+00
     -0.285  0.2670E+00  0.2674E+00  0.7543E+00  0.7545E+00
     -0.232  0.2676E+00  0.2691E+00  0.7684E+00  0.7687E+00
     -0.179  0.3449E+00  0.3469E+00  0.7867E+00  0.7871E+00
     -0.126  0.4582E+00  0.4593E+00  0.8110E+00  0.8114E+00
     -0.073  0.5121E+00  0.5123E+00  0.8381E+00  0.8386E+00
     -0.020  0.4704E+00  0.4703E+00  0.8630E+00  0.8635E+00
      0.032  0.4038E+00  0.4029E+00  0.8844E+00  0.8848E+00
      0.085  0.3434E+00  0.3420E+00  0.9026E+00  0.9029E+00
      0.138  0.3064E+00  0.3065E+00  0.9188E+00  0.9191E+00
      0.191  0.3472E+00  0.3488E+00  0.9371E+00  0.9376E+00
      0.244  0.4390E+00  0.4400E+00  0.9604E+00  0.9609E+00
      0.297  0.4799E+00  0.4792E+00  0.9858E+00  0.9863E+00
      0.350  0.4290E+00  0.4281E+00  0.1009E+01  0.1009E+01
      0.403  0.3724E+00  0.3732E+00  0.1028E+01  0.1029E+01
      0.456  0.3715E+00  0.3725E+00  0.1048E+01  0.1048E+01
      0.509  0.3852E+00  0.3861E+00  0.1068E+01  0.1069E+01
      0.562  0.4307E+00  0.4329E+00  0.1091E+01  0.1092E+01
      0.615  0.5306E+00  0.5330E+00  0.1119E+01  0.1120E+01
      0.668  0.5822E+00  0.5818E+00  0.1150E+01  0.1151E+01
      0.720  0.5142E+00  0.5120E+00  0.1177E+01  0.1178E+01
      0.773  0.4161E+00  0.4148E+00  0.1199E+01  0.1200E+01
      0.826  0.3579E+00  0.3574E+00  0.1218E+01  0.1219E+01
      0.879  0.3464E+00  0.3469E+00  0.1237E+01  0.1237E+01
      0.932  0.3850E+00  0.3867E+00  0.1257E+01  0.1258E+01
      0.985  0.4743E+00  0.4768E+00  0.1282E+01  0.1283E+01
      1.038  0.5526E+00  0.5529E+00  0.1311E+01  0.1312E+01
      1.091  0.5161E+00  0.5140E+00  0.1339E+01  0.1339E+01
      1.144  0.4427E+00  0.4424E+00  0.1362E+01  0.1363E+01
      1.197  0.4464E+00  0.4480E+00  0.1386E+01  0.1387E+01
      1.250  0.4963E+00  0.4982E+00  0.1412E+01  0.1413E+01
      1.303  0.5611E+00  0.5635E+00  0.1442E+01  0.1443E+01
      1.356  0.6422E+00  0.6445E+00  0.1476E+01  0.1477E+01
      1.408  0.6981E+00  0.6980E+00  0.1513E+01  0.1514E+01
      1.461  0.6753E+00  0.6732E+00  0.1548E+01  0.1549E+01
      1.514  0.6251E+00  0.6245E+00  0.1582E+01  0.1583E+01
      1.567  0.6336E+00  0.6351E+00  0.1615E+01  0.1616E+01
      1.620  0.6830E+00  0.6843E+00  0.1651E+01  0.1652E+01
      1.673  0.6971E+00  0.6962E+00  0.1688E+01  0.1689E+01
      1.726  0.6342E+00  0.6310E+00  0.1722E+01  0.1723E+01
      1.779  0.5395E+00  0.5368E+00  0.1750E+01  0.1751E+01
      1.832  0.5067E+00  0.5068E+00  0.1777E+01  0.1778E+01
      1.885  0.5459E+00  0.5475E+00  0.1806E+01  0.1807E+01
      1.938  0.6190E+00  0.6205E+00  0.1839E+01  0.1840E+01
      1.991  0.6748E+00  0.6751E+00  0.1875E+01  0.1876E+01
      2.043  0.6817E+00  0.6808E+00  0.1911E+01  0.1912E+01
      2.096  0.6380E+00  0.6365E+00  0.1944E+01  0.1945E+01
      2.149  0.5818E+00  0.5810E+00  0.1975E+01  0.1976E+01
      2.202  0.5810E+00  0.5820E+00  0.2006E+01  0.2007E+01
      2.255  0.6449E+00  0.6468E+00  0.2040E+01  0.2041E+01
      2.308  0.7203E+00  0.7218E+00  0.2078E+01  0.2079E+01
      2.361  0.7425E+00  0.7423E+00  0.2118E+01  0.2119E+01
      2.414  0.7085E+00  0.7076E+00  0.2155E+01  0.2156E+01
      2.467  0.6674E+00  0.6659E+00  0.2190E+01  0.2191E+01
      2.520  0.6068E+00  0.6044E+00  0.2223E+01  0.2223E+01
      2.573  0.5393E+00  0.5379E+00  0.2251E+01  0.2252E+01
      2.626  0.5460E+00  0.5472E+00  0.2280E+01  0.2281E+01
      2.679  0.6197E+00  0.6218E+00  0.2313E+01  0.2314E+01
      2.731  0.6508E+00  0.6510E+00  0.2347E+01  0.2348E+01
      2.784  0.6233E+00  0.6223E+00  0.2380E+01  0.2381E+01
      2.837  0.5829E+00  0.5819E+00  0.2411E+01  0.2412E+01
      2.890  0.5416E+00  0.5407E+00  0.2440E+01  0.2441E+01
      2.943  0.5324E+00  0.5323E+00  0.2468E+01  0.2469E+01
      2.996  0.5361E+00  0.5364E+00  0.2497E+01  0.2497E+01
      3.049  0.5301E+00  0.5318E+00  0.2525E+01  0.2525E+01
      3.102  0.5628E+00  0.5655E+00  0.2554E+01  0.2555E+01
      3.155  0.6077E+00  0.6091E+00  0.2587E+01  0.2588E+01
      3.208  0.6261E+00  0.6262E+00  0.2620E+01  0.2621E+01
      3.261  0.6261E+00  0.6251E+00  0.2653E+01  0.2654E+01
      3.314  0.6363E+00  0.6362E+00  0.2687E+01  0.2688E+01
      3.367  0.7184E+00  0.7207E+00  0.2725E+01  0.2726E+01
      3.419  0.8494E+00  0.8505E+00  0.2770E+01  0.2771E+01
      3.472  0.9106E+00  0.9084E+00  0.2818E+01  0.2819E+01
      3.525  0.8492E+00  0.8466E+00  0.2863E+01  0.2864E+01
      3.578  0.7208E+00  0.7197E+00  0.2901E+01  0.2902E+01
      3.631  0.6134E+00  0.6133E+00  0.2933E+01  0.2934E+01
      3.684  0.5847E+00  0.5862E+00  0.2964E+01  0.2965E+01
      3.737  0.6192E+00  0.6210E+00  0.2997E+01  0.2998E+01
      3.790  0.6766E+00  0.6790E+00  0.3033E+01  0.3034E+01
      3.843  0.7836E+00  0.7877E+00  0.3075E+01  0.3076E+01
      3.896  0.9400E+00  0.9438E+00  0.3124E+01  0.3126E+01
      3.949  0.1029E+01  0.1029E+01  0.3179E+01  0.3180E+01
      4.002  0.9529E+00  0.9498E+00  0.3229E+01  0.3231E+01
      4.055  0.8137E+00  0.8106E+00  0.3272E+01  0.3274E+01
      4.107  0.8188E+00  0.8196E+00  0.3316E+01  0.3317E+01
      4.160  0.9755E+00  0.9777E+00  0.3367E+01  0.3369E+01
      4.213  0.1098E+01  0.1100E+01  0.3425E+01  0.3427E+01
      4.266  0.1094E+01  0.1094E+01  0.3483E+01  0.3485E+01
      4.319  0.9781E+00  0.9758E+00  0.3535E+01  0.3537E+01
      4.372  0.8749E+00  0.8731E+00  0.3581E+01  0.3583E+01
      4.425  0.8670E+00  0.8679E+00  0.3627E+01  0.3629E+01
      4.478  0.9402E+00  0.9442E+00  0.3677E+01  0.3679E+01
      4.531  0.1075E+01  0.1079E+01  0.3734E+01  0.3736E+01
      4.584  0.1190E+01  0.1189E+01  0.3797E+01  0.3799E+01
      4.637  0.1207E+01  0.1202E+01  0.3861E+01  0.3862E+01
      4.690  0.1140E+01  0.1136E+01  0.3921E+01  0.3923E+01
      4.743  0.1094E+01  0.1095E+01  0.3979E+01  0.3981E+01
      4.795  0.1158E+01  0.1162E+01  0.4041E+01  0.4042E+01
      4.848  0.1305E+01  0.1308E+01  0.4110E+01  0.4111E+01
      4.901  0.1424E+01  0.1424E+01  0.4185E+01  0.4187E+01
      4.954  0.1354E+01  0.1349E+01  0.4257E+01  0.4258E+01
      5.007  0.1129E+01  0.1122E+01  0.4317E+01  0.4318E+01
      5.060  0.1020E+01  0.1017E+01  0.4371E+01  0.4371E+01
      5.113  0.1199E+01  0.1202E+01  0.4434E+01  0.4435E+01
      5.166  0.1619E+01  0.1626E+01  0.4520E+01  0.4521E+01
      5.219  0.2023E+01  0.2028E+01  0.4627E+01  0.4629E+01
      5.272  0.2157E+01  0.2156E+01  0.4741E+01  0.4743E+01
      5.325  0.1972E+01  0.1965E+01  0.4845E+01  0.4847E+01
      5.378  0.1582E+01  0.1573E+01  0.4929E+01  0.4930E+01
      5.430  0.1269E+01  0.1263E+01  0.4996E+01  0.4997E+01
      5.483  0.1143E+01  0.1141E+01  0.5057E+01  0.5057E+01
      5.536  0.1108E+01  0.1106E+01  0.5116E+01  0.5116E+01
      5.589  0.1144E+01  0.1143E+01  0.5176E+01  0.5176E+01
      5.642  0.1193E+01  0.1193E+01  0.5239E+01  0.5240E+01
      5.695  0.1136E+01  0.1136E+01  0.5300E+01  0.5300E+01
      5.748  0.1007E+01  0.1007E+01  0.5353E+01  0.5353E+01
      5.801  0.9212E+00  0.9190E+00  0.5402E+01  0.5402E+01
      5.854  0.8912E+00  0.8876E+00  0.5449E+01  0.5449E+01
      5.907  0.8826E+00  0.8784E+00  0.5496E+01  0.5495E+01
      5.960  0.9206E+00  0.9175E+00  0.5544E+01  0.5544E+01
      6.013  0.9545E+00  0.9536E+00  0.5595E+01  0.5594E+01
      6.066  0.9355E+00  0.9364E+00  0.5645E+01  0.5644E+01
      6.118  0.9025E+00  0.9037E+00  0.5692E+01  0.5692E+01
      6.171  0.9160E+00  0.9162E+00  0.5741E+01  0.5740E+01
      6.224  0.8974E+00  0.8972E+00  0.5788E+01  0.5788E+01
      6.277  0.7884E+00  0.7878E+00  0.5830E+01  0.5830E+01
      6.330  0.7345E+00  0.7328E+00  0.5869E+01  0.5868E+01
      6.383  0.8299E+00  0.8272E+00  0.5913E+01  0.5912E+01
      6.436  0.9407E+00  0.9399E+00  0.5963E+01  0.5962E+01
      6.489  0.8783E+00  0.8807E+00  0.6009E+01  0.6009E+01
      6.542  0.7304E+00  0.7316E+00  0.6048E+01  0.6047E+01
      6.595  0.6893E+00  0.6869E+00  0.6085E+01  0.6084E+01
      6.648  0.7507E+00  0.7485E+00  0.6124E+01  0.6123E+01
      6.701  0.8142E+00  0.8145E+00  0.6167E+01  0.6167E+01
      6.754  0.8549E+00  0.8553E+00  0.6213E+01  0.6212E+01
      6.806  0.8982E+00  0.8960E+00  0.6260E+01  0.6259E+01
      6.859  0.1030E+01  0.1025E+01  0.6315E+01  0.6314E+01
      6.912  0.1248E+01  0.1243E+01  0.6381E+01  0.6379E+01
      6.965  0.1447E+01  0.1446E+01  0.6457E+01  0.6456E+01
      7.018  0.1531E+01  0.1534E+01  0.6538E+01  0.6537E+01
      7.071  0.1547E+01  0.1550E+01  0.6620E+01  0.6619E+01
      7.124  0.1640E+01  0.1643E+01  0.6707E+01  0.6706E+01
      7.177  0.1815E+01  0.1817E+01  0.6803E+01  0.6802E+01
      7.230  0.1944E+01  0.1943E+01  0.6906E+01  0.6905E+01
      7.283  0.1959E+01  0.1964E+01  0.7010E+01  0.7009E+01
      7.336  0.1926E+01  0.1940E+01  0.7112E+01  0.7112E+01
      7.389  0.2041E+01  0.2057E+01  0.7220E+01  0.7221E+01
      7.442  0.2434E+01  0.2451E+01  0.7349E+01  0.7351E+01
      7.494  0.3051E+01  0.3071E+01  0.7510E+01  0.7513E+01
      7.547  0.3681E+01  0.3698E+01  0.7705E+01  0.7709E+01
      7.600  0.4071E+01  0.4074E+01  0.7921E+01  0.7925E+01
      7.653  0.4029E+01  0.4016E+01  0.8134E+01  0.8137E+01
      7.706  0.3585E+01  0.3567E+01  0.8324E+01  0.8326E+01
      7.759  0.2952E+01  0.2938E+01  0.8480E+01  0.8482E+01
      7.812  0.2304E+01  0.2292E+01  0.8602E+01  0.8603E+01
      7.865  0.1780E+01  0.1769E+01  0.8696E+01  0.8697E+01
      7.918  0.1453E+01  0.1445E+01  0.8773E+01  0.8773E+01
      7.971  0.1242E+01  0.1238E+01  0.8839E+01  0.8839E+01
      8.024  0.1096E+01  0.1094E+01  0.8897E+01  0.8897E+01
      8.077  0.1019E+01  0.1017E+01  0.8951E+01  0.8951E+01
      8.130  0.9683E+00  0.9671E+00  0.9003E+01  0.9002E+01
      8.182  0.8931E+00  0.8938E+00  0.9050E+01  0.9050E+01
      8.235  0.8099E+00  0.8113E+00  0.9093E+01  0.9093E+01
      8.288  0.7786E+00  0.7794E+00  0.9134E+01  0.9134E+01
      8.341  0.8207E+00  0.8208E+00  0.9178E+01  0.9177E+01
      8.394  0.9090E+00  0.9089E+00  0.9226E+01  0.9226E+01
      8.447  0.9906E+00  0.9898E+00  0.9278E+01  0.9278E+01
      8.500  0.1038E+01  0.1036E+01  0.9333E+01  0.9333E+01
      8.553  0.1110E+01  0.1107E+01  0.9392E+01  0.9391E+01
      8.606  0.1211E+01  0.1207E+01  0.9456E+01  0.9455E+01
      8.659  0.1296E+01  0.1293E+01  0.9525E+01  0.9524E+01
      8.712  0.1438E+01  0.1433E+01  0.9601E+01  0.9600E+01
      8.765  0.1668E+01  0.1660E+01  0.9689E+01  0.9687E+01
      8.817  0.1815E+01  0.1806E+01  0.9785E+01  0.9783E+01
      8.870  0.1812E+01  0.1804E+01  0.9881E+01  0.9879E+01
      8.923  0.1779E+01  0.1776E+01  0.9975E+01  0.9973E+01
      8.976  0.1786E+01  0.1786E+01  0.1007E+02  0.1007E+02
      9.029  0.1817E+01  0.1815E+01  0.1017E+02  0.1016E+02
      9.082  0.1737E+01  0.1743E+01  0.1026E+02  0.1026E+02
      9.135  0.1460E+01  0.1479E+01  0.1034E+02  0.1033E+02
      9.188  0.1147E+01  0.1163E+01  0.1040E+02  0.1040E+02
      9.241  0.1004E+01  0.1010E+01  0.1045E+02  0.1045E+02
      9.294  0.1031E+01  0.1031E+01  0.1050E+02  0.1050E+02
      9.347  0.1090E+01  0.1089E+01  0.1056E+02  0.1056E+02
      9.400  0.1091E+01  0.1088E+01  0.1062E+02  0.1062E+02
      9.453  0.1058E+01  0.1054E+01  0.1068E+02  0.1067E+02
      9.505  0.1109E+01  0.1112E+01  0.1073E+02  0.1073E+02
      9.558  0.1218E+01  0.1240E+01  0.1080E+02  0.1080E+02
      9.611  0.1230E+01  0.1257E+01  0.1086E+02  0.1087E+02
      9.664  0.1130E+01  0.1139E+01  0.1092E+02  0.1093E+02
      9.717  0.9832E+00  0.9835E+00  0.1098E+02  0.1098E+02
      9.770  0.8674E+00  0.8722E+00  0.1102E+02  0.1102E+02
      9.823  0.8636E+00  0.8662E+00  0.1107E+02  0.1107E+02
      9.876  0.9847E+00  0.9787E+00  0.1112E+02  0.1112E+02
      9.929  0.1190E+01  0.1178E+01  0.1118E+02  0.1118E+02
      9.982  0.1355E+01  0.1342E+01  0.1125E+02  0.1126E+02
     10.035  0.1352E+01  0.1340E+01  0.1133E+02  0.1133E+02
     10.088  0.1269E+01  0.1257E+01  0.1139E+02  0.1139E+02
     10.141  0.1208E+01  0.1204E+01  0.1146E+02  0.1146E+02
     10.193  0.1120E+01  0.1125E+01  0.1152E+02  0.1152E+02
     10.246  0.9143E+00  0.9202E+00  0.1156E+02  0.1157E+02
     10.299  0.6560E+00  0.6622E+00  0.1160E+02  0.1160E+02
     10.352  0.5164E+00  0.5281E+00  0.1163E+02  0.1163E+02
     10.405  0.5284E+00  0.5461E+00  0.1165E+02  0.1166E+02
     10.458  0.5972E+00  0.6173E+00  0.1169E+02  0.1169E+02
     10.511  0.6507E+00  0.6766E+00  0.1172E+02  0.1173E+02
     10.564  0.6770E+00  0.7129E+00  0.1176E+02  0.1176E+02
     10.617  0.6906E+00  0.7218E+00  0.1179E+02  0.1180E+02
     10.670  0.6773E+00  0.6899E+00  0.1183E+02  0.1184E+02
     10.723  0.6197E+00  0.6257E+00  0.1186E+02  0.1187E+02
     10.776  0.5444E+00  0.5539E+00  0.1189E+02  0.1190E+02
     10.829  0.4855E+00  0.4855E+00  0.1192E+02  0.1193E+02
     10.881  0.4462E+00  0.4189E+00  0.1194E+02  0.1195E+02
     10.934  0.3896E+00  0.3409E+00  0.1196E+02  0.1197E+02
     10.987  0.2870E+00  0.2388E+00  0.1198E+02  0.1198E+02
     11.040  0.1681E+00  0.1352E+00  0.1199E+02  0.1199E+02
     11.093  0.7889E-01  0.6198E-01  0.1199E+02  0.1199E+02
     11.146  0.3402E-01  0.2679E-01  0.1199E+02  0.1199E+02
     11.199  0.1957E-01  0.1624E-01  0.1199E+02  0.1199E+02
     11.252  0.2275E-01  0.2075E-01  0.1199E+02  0.1199E+02
     11.305  0.3271E-01  0.3177E-01  0.1200E+02  0.1200E+02
     11.358  0.3559E-01  0.3639E-01  0.1200E+02  0.1200E+02
     11.411  0.2769E-01  0.2882E-01  0.1200E+02  0.1200E+02
     11.464  0.1598E-01  0.1651E-01  0.1200E+02  0.1200E+02
     11.517  0.7162E-02  0.7332E-02  0.1200E+02  0.1200E+02
     11.569  0.2764E-02  0.2816E-02  0.1200E+02  0.1200E+02
     11.622  0.9977E-03  0.1015E-02  0.1200E+02  0.1200E+02
     11.675  0.3511E-03  0.3568E-03  0.1200E+02  0.1200E+02
     11.728  0.8593E-04  0.8311E-04  0.1200E+02  0.1200E+02
     11.781  0.0000E+00  0.0000E+00  0.1200E+02  0.1200E+02
     11.834  0.0000E+00  0.0000E+00  0.1200E+02  0.1200E+02
     11.887  0.0000E+00  0.0000E+00  0.1200E+02  0.1200E+02
     11.940  0.0000E+00  0.0000E+00  0.1200E+02  0.1200E+02
     11.993  0.0000E+00  0.0000E+00  0.1200E+02  0.1200E+02
     12.046  0.0000E+00  0.0000E+00  0.1200E+02  0.1200E+02
     12.099  0.0000E+00  0.0000E+00  0.1200E+02  0.1200E+02
     12.09864253     -3.77790395  301      7.27784790      1.00000000
     -3.778  0.0000E+00  0.0000E+00  0.0000E+00  0.0000E+00  0.0000E+00  0.0000E+00  0.0000E+00  0.0000E+00  0.0000E+00  0.0000E+00  0.0000E+00  0.0000E+00  0.0000E+00  0.0000E+00  0.0000E+00  0.0000E+00  0.0000E+00  0.0000E+00
     -3.725  0.0000E+00  0.0000E+00  0.0000E+00  0.0000E+00  0.0000E+00  0.0000E+00  0.0000E+00  0.0000E+00  0.0000E+00  0.0000E+00  0.0000E+00  0.0000E+00  0.0000E+00  0.0000E+00  0.0000E+00  0.0000E+00  0.0000E+00  0.0000E+00
     -3.672  0.0000E+00  0.0000E+00  0.0000E+00  0.0000E+00  0.0000E+00  0.0000E+00  0.0000E+00  0.0000E+00  0.0000E+00  0.0000E+00  0.0000E+00  0.0000E+00  0.0000E+00  0.0000E+00  0.0000E+00  0.0000E+00  0.0000E+00  0.0000E+00
     -3.619  0.0000E+00  0.0000E+00  0.0000E+00  0.0000E+00  0.0000E+00  0.0000E+00  0.0000E+00  0.0000E+00  0.0000E+00  0.0000E+00  0.0000E+00  0.0000E+00  0.0000E+00  0.0000E+00  0.0000E+00  0.0000E+00  0.0000E+00  0.0000E+00
     -3.566  0.0000E+00  0.0000E+00  0.0000E+00  0.0000E+00  0.0000E+00  0.0000E+00  0.0000E+00  0.0000E+00  0.0000E+00  0.0000E+00  0.0000E+00  0.0000E+00  0.0000E+00  0.0000E+00  0.0000E+00  0.0000E+00  0.0000E+00  0.0000E+00
     -3.513  0.0000E+00  0.0000E+00  0.0000E+00  0.0000E+00  0.0000E+00  0.0000E+00  0.0000E+00  0.0000E+00  0.0000E+00  0.0000E+00  0.0000E+00  0.0000E+00  0.0000E+00  0.0000E+00  0.0000E+00  0.0000E+00  0.0000E+00  0.0000E+00
     -3.460  0.2588E-06  0.2649E-06  0.2099E-23  0.1188E-22  0.2099E-23  0.1188E-22  0.2204E-23  0.5856E-23  0.1340E-14  0.3477E-15  0.3521E-14  0.6708E-17  0.1449E-14  0.6840E-15  0.1340E-14  0.3477E-15  0.1626E-14  0.7867E-15
     -3.407  0.1991E-05  0.2038E-05  0.5063E-08  0.5179E-08  0.5063E-08  0.5179E-08  0.5060E-08  0.5177E-08  0.6676E-14  0.1225E-13  0.8955E-14  0.1404E-13  0.1535E-10  0.1538E-10  0.6676E-14  0.1225E-13  0.1969E-10  0.1968E-10
     -3.355  0.7151E-05  0.7319E-05  0.2929E-07  0.2996E-07  0.2929E-07  0.2996E-07  0.2928E-07  0.2995E-07  0.1508E-09  0.1547E-09  0.1507E-09  0.1548E-09  0.6697E-10  0.6802E-10  0.1508E-09  0.1547E-09  0.6653E-10  0.6727E-10
     -3.302  0.1953E-04  0.1999E-04  0.8387E-07  0.8579E-07  0.8387E-07  0.8579E-07  0.8386E-07  0.8578E-07  0.5803E-09  0.5915E-09  0.5802E-09  0.5928E-09  0.1546E-09  0.1567E-09  0.5803E-09  0.5915E-09  0.1620E-09  0.1633E-09
     -3.249  0.5540E-04  0.5669E-04  0.2410E-06  0.2465E-06  0.2410E-06  0.2465E-06  0.2409E-06  0.2464E-06  0.1373E-08  0.1402E-08  0.1373E-08  0.1404E-08  0.6715E-09  0.6823E-09  0.1373E-08  0.1402E-08  0.7570E-09  0.7672E-09
     -3.196  0.1606E-03  0.1642E-03  0.7639E-06  0.7811E-06  0.7639E-06  0.7811E-06  0.7635E-06  0.7807E-06  0.5127E-08  0.5236E-08  0.5121E-08  0.5245E-08  0.2461E-08  0.2507E-08  0.5127E-08  0.5236E-08  0.2766E-08  0.2812E-08
     -3.143  0.4392E-03  0.4488E-03  0.2169E-05  0.2217E-05  0.2169E-05  0.2217E-05  0.2168E-05  0.2216E-05  0.1608E-07  0.1642E-07  0.1607E-07  0.1645E-07  0.6692E-08  0.6815E-08  0.1608E-07  0.1642E-07  0.7566E-08  0.7689E-08
     -3.090  0.1109E-02  0.1130E-02  0.5779E-05  0.5898E-05  0.5779E-05  0.5898E-05  0.5776E-05  0.5896E-05  0.4254E-07  0.4341E-07  0.4252E-07  0.4348E-07  0.1785E-07  0.1816E-07  0.4254E-07  0.4341E-07  0.2008E-07  0.2039E-07
     -3.037  0.2442E-02  0.2479E-02  0.1445E-04  0.1471E-04  0.1445E-04  0.1471E-04  0.1444E-04  0.1470E-04  0.1165E-06  0.1187E-06  0.1164E-06  0.1189E-06  0.4622E-07  0.4700E-07  0.1165E-06  0.1187E-06  0.5174E-07  0.5253E-07
     -2.984  0.4387E-02  0.4431E-02  0.3116E-04  0.3160E-04  0.3116E-04  0.3160E-04  0.3115E-04  0.3159E-04  0.2888E-06  0.2933E-06  0.2887E-06  0.2938E-06  0.1088E-06  0.1106E-06  0.2888E-06  0.2933E-06  0.1227E-06  0.1246E-06
     -2.931  0.6305E-02  0.6339E-02  0.5644E-04  0.5704E-04  0.5644E-04  0.5704E-04  0.5640E-04  0.5700E-04  0.6069E-06  0.6142E-06  0.6065E-06  0.6152E-06  0.2391E-06  0.2432E-06  0.6069E-06  0.6142E-06  0.2765E-06  0.2813E-06
     -2.878  0.7785E-02  0.7813E-02  0.9150E-04  0.9235E-04  0.9150E-04  0.9235E-04  0.9144E-04  0.9228E-04  0.1144E-05  0.1157E-05  0.1143E-05  0.1159E-05  0.5023E-06  0.5109E-06  0.1144E-05  0.1157E-05  0.5958E-06  0.6061E-06
     -2.825  0.9476E-02  0.9516E-02  0.1433E-03  0.1445E-03  0.1433E-03  0.1445E-03  0.1432E-03  0.1444E-03  0.2094E-05  0.2118E-05  0.2092E-05  0.2120E-05  0.9423E-06  0.9553E-06  0.2094E-05  0.2118E-05  0.1125E-05  0.1140E-05
     -2.772  0.1147E-01  0.1150E-01  0.2061E-03  0.2072E-03  0.2061E-03  0.2072E-03  0.2060E-03  0.2071E-03  0.3602E-05  0.3636E-05  0.3600E-05  0.3637E-05  0.1426E-05  0.1439E-05  0.3602E-05  0.3636E-05  0.1693E-05  0.1707E-05
     -2.719  0.1214E-01  0.1212E-01  0.2495E-03  0.2499E-03  0.2495E-03  0.2499E-03  0.2495E-03  0.2499E-03  0.5287E-05  0.5316E-05  0.5288E-05  0.5317E-05  0.1781E-05  0.1793E-05  0.5287E-05  0.5316E-05  0.2077E-05  0.2090E-05
     -2.667  0.1150E-01  0.1149E-01  0.2799E-03  0.2806E-03  0.2799E-03  0.2806E-03  0.2797E-03  0.2805E-03  0.7129E-05  0.7164E-05  0.7133E-05  0.7167E-05  0.2320E-05  0.2343E-05  0.7129E-05  0.7164E-05  0.2633E-05  0.2658E-05
     -2.614  0.1221E-01  0.1224E-01  0.3586E-03  0.3607E-03  0.3586E-03  0.3607E-03  0.3582E-03  0.3603E-03  0.1024E-04  0.1029E-04  0.1025E-04  0.1030E-04  0.3712E-05  0.3759E-05  0.1024E-04  0.1029E-04  0.4214E-05  0.4270E-05
     -2.561  0.1451E-01  0.1456E-01  0.4848E-03  0.4871E-03  0.4848E-03  0.4871E-03  0.4842E-03  0.4866E-03  0.1419E-04  0.1422E-04  0.1419E-04  0.1422E-04  0.6037E-05  0.6098E-05  0.1419E-04  0.1422E-04  0.7059E-05  0.7137E-05
     -2.508  0.1595E-01  0.1596E-01  0.5842E-03  0.5853E-03  0.5842E-03  0.5853E-03  0.5839E-03  0.5849E-03  0.1757E-04  0.1757E-04  0.1757E-04  0.1758E-04  0.8273E-05  0.8316E-05  0.1757E-04  0.1757E-04  0.9920E-05  0.9977E-05
     -2.455  0.1571E-01  0.1570E-01  0.6312E-03  0.6316E-03  0.6312E-03  0.6316E-03  0.6312E-03  0.6316E-03  0.2186E-04  0.2191E-04  0.2188E-04  0.2192E-04  0.9191E-05  0.9204E-05  0.2186E-04  0.2191E-04  0.1105E-04  0.1106E-04
     -2.402  0.1530E-01  0.1530E-01  0.6812E-03  0.6824E-03  0.6812E-03  0.6824E-03  0.6813E-03  0.6824E-03  0.2940E-04  0.2949E-04  0.2941E-04  0.2951E-04  0.9442E-05  0.9451E-05  0.2940E-04  0.2949E-04  0.1102E-04  0.1103E-04
     -2.349  0.1608E-01  0.1611E-01  0.7888E-03  0.7908E-03  0.7888E-03  0.7908E-03  0.7884E-03  0.7905E-03  0.3983E-04  0.3989E-04  0.3985E-04  0.3991E-04  0.1072E-04  0.1075E-04  0.3983E-04  0.3989E-04  0.1211E-04  0.1215E-04
     -2.296  0.1651E-01  0.1650E-01  0.8737E-03  0.8738E-03  0.8737E-03  0.8738E-03  0.8732E-03  0.8733E-03  0.4683E-04  0.4670E-04  0.4682E-04  0.4669E-04  0.1269E-04  0.1272E-04  0.4683E-04  0.4670E-04  0.1438E-04  0.1443E-04
     -2.243  0.1521E-01  0.1518E-01  0.8812E-03  0.8811E-03  0.8812E-03  0.8811E-03  0.8801E-03  0.8800E-03  0.4685E-04  0.4665E-04  0.4682E-04  0.4664E-04  0.1538E-04  0.1544E-04  0.4685E-04  0.4665E-04  0.1806E-04  0.1815E-04
     -2.190  0.1537E-01  0.1541E-01  0.1002E-02  0.1006E-02  0.1002E-02  0.1006E-02  0.9996E-03  0.1004E-02  0.5257E-04  0.5263E-04  0.5260E-04  0.5266E-04  0.2137E-04  0.2150E-04  0.5257E-04  0.5263E-04  0.2578E-04  0.2595E-04
     -2.137  0.1813E-01  0.1820E-01  0.1282E-02  0.1287E-02  0.1282E-02  0.1287E-02  0.1280E-02  0.1285E-02  0.7098E-04  0.7113E-04  0.7106E-04  0.7121E-04  0.2951E-04  0.2961E-04  0.7098E-04  0.7113E-04  0.3550E-04  0.3561E-04
     -2.084  0.1991E-01  0.1992E-01  0.1483E-02  0.1484E-02  0.1483E-02  0.1484E-02  0.1483E-02  0.1484E-02  0.9081E-04  0.9080E-04  0.9090E-04  0.9088E-04  0.3433E-04  0.3431E-04  0.9081E-04  0.9080E-04  0.4040E-04  0.4036E-04
     -2.031  0.1967E-01  0.1966E-01  0.1549E-02  0.1549E-02  0.1549E-02  0.1549E-02  0.1549E-02  0.1549E-02  0.1068E-03  0.1067E-03  0.1069E-03  0.1068E-03  0.3542E-04  0.3536E-04  0.1068E-03  0.1067E-03  0.4075E-04  0.4067E-04
     -1.979  0.1918E-01  0.1918E-01  0.1608E-02  0.1608E-02  0.1608E-02  0.1608E-02  0.1607E-02  0.1608E-02  0.1228E-03  0.1226E-03  0.1228E-03  0.1226E-03  0.3641E-04  0.3633E-04  0.1228E-03  0.1226E-03  0.4178E-04  0.4171E-04
     -1.926  0.1828E-01  0.1825E-01  0.1617E-02  0.1614E-02  0.1617E-02  0.1614E-02  0.1617E-02  0.1615E-02  0.1364E-03  0.1360E-03  0.1363E-03  0.1359E-03  0.3514E-04  0.3497E-04  0.1364E-03  0.1360E-03  0.4060E-04  0.4042E-04
     -1.873  0.1600E-01  0.1595E-01  0.1500E-02  0.1496E-02  0.1500E-02  0.1496E-02  0.1500E-02  0.1496E-02  0.1400E-03  0.1394E-03  0.1399E-03  0.1394E-03  0.3099E-04  0.3085E-04  0.1400E-03  0.1394E-03  0.3591E-04  0.3577E-04
     -1.820  0.1457E-01  0.1458E-01  0.1506E-02  0.1509E-02  0.1506E-02  0.1509E-02  0.1503E-02  0.1505E-02  0.1475E-03  0.1473E-03  0.1476E-03  0.1475E-03  0.3364E-04  0.3374E-04  0.1475E-03  0.1473E-03  0.3917E-04  0.3930E-04
     -1.767  0.1644E-01  0.1651E-01  0.1892E-02  0.1901E-02  0.1892E-02  0.1901E-02  0.1885E-02  0.1894E-02  0.1814E-03  0.1816E-03  0.1817E-03  0.1820E-03  0.4965E-04  0.4997E-04  0.1814E-03  0.1816E-03  0.5792E-04  0.5830E-04
     -1.714  0.1996E-01  0.2002E-01  0.2470E-02  0.2478E-02  0.2470E-02  0.2478E-02  0.2463E-02  0.2471E-02  0.2303E-03  0.2303E-03  0.2306E-03  0.2306E-03  0.7177E-04  0.7202E-04  0.2303E-03  0.2303E-03  0.8386E-04  0.8417E-04
     -1.661  0.2135E-01  0.2134E-01  0.2782E-02  0.2781E-02  0.2782E-02  0.2781E-02  0.2780E-02  0.2779E-02  0.2619E-03  0.2612E-03  0.2618E-03  0.2612E-03  0.8366E-04  0.8356E-04  0.2619E-03  0.2612E-03  0.9852E-04  0.9845E-04
     -1.608  0.1996E-01  0.1994E-01  0.2745E-02  0.2742E-02  0.2745E-02  0.2742E-02  0.2746E-02  0.2742E-02  0.2771E-03  0.2765E-03  0.2770E-03  0.2764E-03  0.8142E-04  0.8119E-04  0.2771E-03  0.2765E-03  0.9682E-04  0.9660E-04
     -1.555  0.1938E-01  0.1939E-01  0.2827E-02  0.2829E-02  0.2827E-02  0.2829E-02  0.2826E-02  0.2827E-02  0.3166E-03  0.3163E-03  0.3168E-03  0.3165E-03  0.8114E-04  0.8106E-04  0.3166E-03  0.3163E-03  0.9678E-04  0.9672E-04
     -1.502  0.1901E-01  0.1898E-01  0.2916E-02  0.2911E-02  0.2916E-02  0.2911E-02  0.2916E-02  0.2911E-02  0.3481E-03  0.3467E-03  0.3482E-03  0.3468E-03  0.8333E-04  0.8313E-04  0.3481E-03  0.3467E-03  0.9902E-04  0.9882E-04
     -1.449  0.1616E-01  0.1610E-01  0.2619E-02  0.2610E-02  0.2619E-02  0.2610E-02  0.2623E-02  0.2614E-02  0.3338E-03  0.3322E-03  0.3338E-03  0.3322E-03  0.7525E-04  0.7489E-04  0.3338E-03  0.3322E-03  0.8799E-04  0.8757E-04
     -1.396  0.1423E-01  0.1423E-01  0.2512E-02  0.2514E-02  0.2512E-02  0.2514E-02  0.2509E-02  0.2510E-02  0.3609E-03  0.3608E-03  0.3615E-03  0.3615E-03  0.6904E-04  0.6893E-04  0.3609E-03  0.3608E-03  0.7787E-04  0.7772E-04
     -1.344  0.1594E-01  0.1600E-01  0.3120E-02  0.3133E-02  0.3120E-02  0.3133E-02  0.3107E-02  0.3119E-02  0.4805E-03  0.4813E-03  0.4814E-03  0.4823E-03  0.7971E-04  0.7987E-04  0.4805E-03  0.4813E-03  0.8808E-04  0.8830E-04
     -1.291  0.1855E-01  0.1859E-01  0.4066E-02  0.4077E-02  0.4066E-02  0.4077E-02  0.4047E-02  0.4058E-02  0.6124E-03  0.6119E-03  0.6130E-03  0.6125E-03  0.9799E-04  0.9809E-04  0.6124E-03  0.6119E-03  0.1093E-03  0.1095E-03
     -1.238  0.1886E-01  0.1885E-01  0.4719E-02  0.4719E-02  0.4719E-02  0.4719E-02  0.4704E-02  0.4705E-02  0.6666E-03  0.6640E-03  0.6664E-03  0.6638E-03  0.1085E-03  0.1083E-03  0.6666E-03  0.6640E-03  0.1232E-03  0.1231E-03
     -1.185  0.1665E-01  0.1661E-01  0.4772E-02  0.4764E-02  0.4772E-02  0.4764E-02  0.4768E-02  0.4761E-02  0.6500E-03  0.6467E-03  0.6496E-03  0.6464E-03  0.1041E-03  0.1038E-03  0.6500E-03  0.6467E-03  0.1200E-03  0.1197E-03
     -1.132  0.1417E-01  0.1414E-01  0.4595E-02  0.4589E-02  0.4595E-02  0.4589E-02  0.4593E-02  0.4587E-02  0.6501E-03  0.6477E-03  0.6505E-03  0.6482E-03  0.9531E-04  0.9515E-04  0.6501E-03  0.6477E-03  0.1111E-03  0.1110E-03