   4   4   1   0
  0.1152305E+02  0.3584642E-09  0.3585839E-09  0.3585839E-09  0.5000000E-15
  1.000000000000000E-004
  CAR 
 unknown system                          
     18.84988060     -2.29962763  301     11.34305894      1.00000000
     -2.300  0.0000E+00  0.0000E+00  0.0000E+00  0.0000E+00
     -2.229  0.0000E+00  0.0000E+00  0.0000E+00  0.0000E+00
     -2.159  0.0000E+00  0.0000E+00  0.0000E+00  0.0000E+00
     -2.088  0.0000E+00  0.0000E+00  0.0000E+00  0.0000E+00
     -2.018  0.0000E+00  0.0000E+00  0.0000E+00  0.0000E+00
     -1.947  0.0000E+00  0.0000E+00  0.0000E+00  0.0000E+00
     -1.877  0.0000E+00  0.0000E+00  0.0000E+00  0.0000E+00
     -1.806  0.5552E-06  0.5575E-06  0.3914E-07  0.3930E-07
     -1.736  0.5050E-05  0.5070E-05  0.3951E-06  0.3967E-06
     -1.665  0.2403E-04  0.2413E-04  0.2089E-05  0.2098E-05
     -1.595  0.9602E-04  0.9641E-04  0.8858E-05  0.8894E-05
     -1.524  0.3885E-03  0.3901E-03  0.3625E-04  0.3639E-04
     -1.454  0.1544E-02  0.1550E-02  0.1451E-03  0.1457E-03
     -1.383  0.5575E-02  0.5595E-02  0.5382E-03  0.5401E-03
     -1.313  0.1636E-01  0.1641E-01  0.1692E-02  0.1697E-02
     -1.242  0.3512E-01  0.3518E-01  0.4168E-02  0.4177E-02
     -1.172  0.5284E-01  0.5288E-01  0.7893E-02  0.7905E-02
     -1.101  0.6191E-01  0.6194E-01  0.1226E-01  0.1227E-01
     -1.031  0.7724E-01  0.7730E-01  0.1770E-01  0.1772E-01
     -0.960  0.1036E+00  0.1036E+00  0.2501E-01  0.2503E-01
     -0.890  0.1061E+00  0.1061E+00  0.3249E-01  0.3250E-01
     -0.819  0.8828E-01  0.8825E-01  0.3871E-01  0.3873E-01
     -0.749  0.1028E+00  0.1029E+00  0.4596E-01  0.4598E-01
     -0.678  0.1383E+00  0.1384E+00  0.5571E-01  0.5574E-01
     -0.608  0.1501E+00  0.1501E+00  0.6630E-01  0.6632E-01
     -0.537  0.1396E+00  0.1395E+00  0.7614E-01  0.7617E-01
     -0.467  0.1363E+00  0.1364E+00  0.8576E-01  0.8578E-01
     -0.396  0.1612E+00  0.1612E+00  0.9712E-01  0.9715E-01
     -0.326  0.1599E+00  0.1599E+00  0.1084E+00  0.1084E+00
     -0.255  0.1286E+00  0.1286E+00  0.1175E+00  0.1175E+00
     -0.185  0.1578E+00  0.1579E+00  0.1286E+00  0.1286E+00
     -0.114  0.2106E+00  0.2107E+00  0.1434E+00  0.1435E+00
     -0.044  0.2146E+00  0.2145E+00  0.1586E+00  0.1586E+00
      0.027  0.2054E+00  0.2054E+00  0.1731E+00  0.1731E+00
      0.097  0.2122E+00  0.2122E+00  0.1880E+00  0.1881E+00
      0.168  0.1904E+00  0.1902E+00  0.2015E+00  0.2015E+00
      0.238  0.1479E+00  0.1478E+00  0.2119E+00  0.2119E+00
      0.309  0.1662E+00  0.1663E+00  0.2236E+00  0.2237E+00
      0.379  0.2397E+00  0.2398E+00  0.2406E+00  0.2406E+00
      0.450  0.2894E+00  0.2895E+00  0.2610E+00  0.2610E+00
      0.520  0.2606E+00  0.2605E+00  0.2794E+00  0.2794E+00
      0.591  0.2556E+00  0.2557E+00  0.2974E+00  0.2974E+00
      0.661  0.2809E+00  0.2809E+00  0.3172E+00  0.3172E+00
      0.732  0.2237E+00  0.2235E+00  0.3330E+00  0.3330E+00
      0.802  0.1874E+00  0.1874E+00  0.3462E+00  0.3462E+00
      0.873  0.2496E+00  0.2497E+00  0.3638E+00  0.3638E+00
      0.943  0.3238E+00  0.3238E+00  0.3866E+00  0.3867E+00
      1.014  0.3457E+00  0.3456E+00  0.4110E+00  0.4111E+00
      1.084  0.3214E+00  0.3213E+00  0.4337E+00  0.4337E+00
      1.155  0.3008E+00  0.3008E+00  0.4549E+00  0.4549E+00
      1.225  0.3046E+00  0.3046E+00  0.4764E+00  0.4764E+00
      1.296  0.3151E+00  0.3152E+00  0.4986E+00  0.4986E+00
      1.366  0.3449E+00  0.3450E+00  0.5230E+00  0.5230E+00
      1.437  0.3740E+00  0.3740E+00  0.5493E+00  0.5494E+00
      1.507  0.3715E+00  0.3714E+00  0.5755E+00  0.5756E+00
      1.578  0.3375E+00  0.3374E+00  0.5994E+00  0.5994E+00
      1.648  0.2534E+00  0.2533E+00  0.6172E+00  0.6172E+00
      1.719  0.2151E+00  0.2151E+00  0.6324E+00  0.6324E+00
      1.789  0.2437E+00  0.2437E+00  0.6496E+00  0.6496E+00
      1.860  0.3323E+00  0.3323E+00  0.6731E+00  0.6731E+00
      1.930  0.3758E+00  0.3757E+00  0.6996E+00  0.6996E+00
      2.001  0.3016E+00  0.3016E+00  0.7209E+00  0.7209E+00
      2.071  0.2553E+00  0.2553E+00  0.7389E+00  0.7389E+00
      2.142  0.2193E+00  0.2193E+00  0.7543E+00  0.7543E+00
      2.212  0.2116E+00  0.2117E+00  0.7692E+00  0.7693E+00
      2.283  0.3288E+00  0.3289E+00  0.7925E+00  0.7925E+00
      2.353  0.4525E+00  0.4524E+00  0.8244E+00  0.8244E+00
      2.424  0.4140E+00  0.4141E+00  0.8536E+00  0.8536E+00
      2.494  0.3400E+00  0.3401E+00  0.8776E+00  0.8776E+00
      2.565  0.3132E+00  0.3131E+00  0.8997E+00  0.8997E+00
      2.635  0.2471E+00  0.2469E+00  0.9171E+00  0.9171E+00
      2.706  0.2774E+00  0.2774E+00  0.9367E+00  0.9367E+00
      2.776  0.3878E+00  0.3880E+00  0.9641E+00  0.9641E+00
      2.847  0.4073E+00  0.4074E+00  0.9928E+00  0.9928E+00
      2.917  0.3182E+00  0.3181E+00  0.1015E+01  0.1015E+01
      2.988  0.2181E+00  0.2182E+00  0.1031E+01  0.1031E+01
      3.058  0.2298E+00  0.2301E+00  0.1047E+01  0.1047E+01
      3.129  0.3050E+00  0.3049E+00  0.1068E+01  0.1068E+01
      3.199  0.3758E+00  0.3757E+00  0.1095E+01  0.1095E+01
      3.270  0.4297E+00  0.4302E+00  0.1125E+01  0.1125E+01
      3.340  0.4285E+00  0.4287E+00  0.1155E+01  0.1155E+01
      3.411  0.3429E+00  0.3426E+00  0.1180E+01  0.1180E+01
      3.481  0.2748E+00  0.2747E+00  0.1199E+01  0.1199E+01
      3.552  0.3079E+00  0.3078E+00  0.1221E+01  0.1221E+01
      3.622  0.3371E+00  0.3368E+00  0.1244E+01  0.1245E+01
      3.693  0.3201E+00  0.3201E+00  0.1267E+01  0.1267E+01
      3.763  0.3115E+00  0.3120E+00  0.1289E+01  0.1289E+01
      3.834  0.3912E+00  0.3916E+00  0.1317E+01  0.1317E+01
      3.904  0.3784E+00  0.3781E+00  0.1343E+01  0.1343E+01
      3.975  0.3357E+00  0.3356E+00  0.1367E+01  0.1367E+01
      4.045  0.4112E+00  0.4113E+00  0.1396E+01  0.1396E+01
      4.116  0.4655E+00  0.4653E+00  0.1429E+01  0.1429E+01
      4.186  0.4645E+00  0.4645E+00  0.1462E+01  0.1462E+01
      4.257  0.4861E+00  0.4863E+00  0.1496E+01  0.1496E+01
      4.327  0.5130E+00  0.5131E+00  0.1532E+01  0.1532E+01
      4.398  0.4648E+00  0.4646E+00  0.1565E+01  0.1565E+01
      4.468  0.4481E+00  0.4482E+00  0.1596E+01  0.1597E+01
      4.539  0.5381E+00  0.5382E+00  0.1634E+01  0.1635E+01
      4.609  0.5511E+00  0.5510E+00  0.1673E+01  0.1673E+01
      4.680  0.5197E+00  0.5196E+00  0.1710E+01  0.1710E+01
      4.750  0.5038E+00  0.5037E+00  0.1746E+01  0.1746E+01
      4.821  0.4850E+00  0.4849E+00  0.1780E+01  0.1780E+01
      4.891  0.4389E+00  0.4388E+00  0.1811E+01  0.1811E+01
      4.962  0.4440E+00  0.4442E+00  0.1842E+01  0.1842E+01
      5.032  0.5958E+00  0.5961E+00  0.1884E+01  0.1884E+01
      5.103  0.6502E+00  0.6499E+00  0.1930E+01  0.1930E+01
      5.173  0.5556E+00  0.5552E+00  0.1969E+01  0.1969E+01
      5.244  0.5048E+00  0.5046E+00  0.2005E+01  0.2005E+01
      5.314  0.6032E+00  0.6033E+00  0.2047E+01  0.2047E+01
      5.385  0.7299E+00  0.7300E+00  0.2099E+01  0.2099E+01
      5.455  0.6350E+00  0.6348E+00  0.2144E+01  0.2144E+01
      5.526  0.5700E+00  0.5699E+00  0.2184E+01  0.2184E+01
      5.596  0.6141E+00  0.6141E+00  0.2227E+01  0.2227E+01
      5.667  0.5702E+00  0.5701E+00  0.2267E+01  0.2267E+01
      5.737  0.5509E+00  0.5510E+00  0.2306E+01  0.2306E+01
      5.808  0.5991E+00  0.5991E+00  0.2348E+01  0.2349E+01
      5.878  0.5631E+00  0.5629E+00  0.2388E+01  0.2388E+01
      5.949  0.5234E+00  0.5233E+00  0.2425E+01  0.2425E+01
      6.019  0.4376E+00  0.4375E+00  0.2456E+01  0.2456E+01
      6.090  0.4564E+00  0.4563E+00  0.2488E+01  0.2488E+01
      6.160  0.5736E+00  0.5733E+00  0.2529E+01  0.2529E+01
      6.231  0.6588E+00  0.6586E+00  0.2575E+01  0.2575E+01
      6.301  0.6395E+00  0.6396E+00  0.2620E+01  0.2620E+01
      6.372  0.5689E+00  0.5690E+00  0.2660E+01  0.2660E+01
      6.442  0.6187E+00  0.6186E+00  0.2704E+01  0.2704E+01
      6.513  0.6983E+00  0.6981E+00  0.2753E+01  0.2753E+01
      6.583  0.7437E+00  0.7436E+00  0.2806E+01  0.2806E+01
      6.654  0.7103E+00  0.7105E+00  0.2856E+01  0.2856E+01
      6.724  0.6335E+00  0.6334E+00  0.2901E+01  0.2900E+01
      6.795  0.6167E+00  0.6163E+00  0.2944E+01  0.2944E+01
      6.865  0.6399E+00  0.6399E+00  0.2989E+01  0.2989E+01
      6.936  0.7143E+00  0.7142E+00  0.3040E+01  0.3039E+01
      7.006  0.7993E+00  0.7988E+00  0.3096E+01  0.3096E+01
      7.077  0.8478E+00  0.8472E+00  0.3156E+01  0.3156E+01
      7.147  0.8618E+00  0.8615E+00  0.3217E+01  0.3216E+01
      7.218  0.7387E+00  0.7389E+00  0.3269E+01  0.3268E+01
      7.288  0.7607E+00  0.7607E+00  0.3322E+01  0.3322E+01
      7.359  0.9552E+00  0.9545E+00  0.3390E+01  0.3389E+01
      7.429  0.1130E+01  0.1129E+01  0.3469E+01  0.3469E+01
      7.500  0.1125E+01  0.1125E+01  0.3549E+01  0.3548E+01
      7.570  0.1020E+01  0.1019E+01  0.3621E+01  0.3620E+01
      7.641  0.9541E+00  0.9545E+00  0.3688E+01  0.3688E+01
      7.711  0.8489E+00  0.8490E+00  0.3748E+01  0.3748E+01
      7.782  0.8592E+00  0.8580E+00  0.3808E+01  0.3808E+01
      7.852  0.1082E+01  0.1080E+01  0.3885E+01  0.3884E+01
      7.923  0.1327E+01  0.1325E+01  0.3978E+01  0.3978E+01
      7.993  0.1368E+01  0.1369E+01  0.4075E+01  0.4074E+01
      8.064  0.1229E+01  0.1231E+01  0.4162E+01  0.4161E+01
      8.134  0.1124E+01  0.1125E+01  0.4241E+01  0.4240E+01
      8.205  0.1092E+01  0.1093E+01  0.4318E+01  0.4318E+01
      8.275  0.9751E+00  0.9755E+00  0.4387E+01  0.4386E+01
      8.346  0.9188E+00  0.9172E+00  0.4452E+01  0.4451E+01
      8.416  0.1137E+01  0.1134E+01  0.4532E+01  0.4531E+01
      8.487  0.1447E+01  0.1447E+01  0.4634E+01  0.4633E+01
      8.557  0.1461E+01  0.1463E+01  0.4737E+01  0.4736E+01
      8.628  0.1295E+01  0.1295E+01  0.4828E+01  0.4828E+01
      8.698  0.1234E+01  0.1234E+01  0.4915E+01  0.4915E+01
      8.769  0.1142E+01  0.1143E+01  0.4996E+01  0.4995E+01
      8.839  0.1004E+01  0.1004E+01  0.5067E+01  0.5066E+01
      8.910  0.9209E+00  0.9197E+00  0.5132E+01  0.5131E+01
      8.980  0.9937E+00  0.9924E+00  0.5202E+01  0.5201E+01
      9.051  0.9791E+00  0.9799E+00  0.5271E+01  0.5270E+01
      9.121  0.7969E+00  0.7982E+00  0.5327E+01  0.5327E+01
      9.192  0.6962E+00  0.6963E+00  0.5376E+01  0.5376E+01
      9.262  0.6574E+00  0.6576E+00  0.5423E+01  0.5422E+01
      9.333  0.6344E+00  0.6340E+00  0.5467E+01  0.5467E+01
      9.403  0.6783E+00  0.6774E+00  0.5515E+01  0.5515E+01
      9.474  0.7158E+00  0.7154E+00  0.5566E+01  0.5565E+01
      9.544  0.7264E+00  0.7266E+00  0.5617E+01  0.5617E+01
      9.615  0.6740E+00  0.6743E+00  0.5665E+01  0.5664E+01
      9.685  0.6796E+00  0.6785E+00  0.5713E+01  0.5712E+01
      9.756  0.7434E+00  0.7426E+00  0.5765E+01  0.5764E+01
      9.826  0.6978E+00  0.6992E+00  0.5814E+01  0.5814E+01
      9.897  0.5324E+00  0.5339E+00  0.5852E+01  0.5851E+01
      9.967  0.4864E+00  0.4852E+00  0.5886E+01  0.5886E+01
     10.038  0.6113E+00  0.6091E+00  0.5929E+01  0.5929E+01
     10.108  0.7241E+00  0.7238E+00  0.5980E+01  0.5980E+01
     10.179  0.6400E+00  0.6427E+00  0.6026E+01  0.6025E+01
     10.249  0.4343E+00  0.4360E+00  0.6056E+01  0.6056E+01
     10.320  0.4357E+00  0.4338E+00  0.6087E+01  0.6086E+01
     10.390  0.5737E+00  0.5719E+00  0.6127E+01  0.6127E+01
     10.461  0.5761E+00  0.5763E+00  0.6168E+01  0.6167E+01
     10.531  0.5287E+00  0.5285E+00  0.6205E+01  0.6205E+01
     10.602  0.5715E+00  0.5695E+00  0.6246E+01  0.6245E+01
     10.672  0.6945E+00  0.6920E+00  0.6295E+01  0.6294E+01
     10.743  0.8033E+00  0.8012E+00  0.6351E+01  0.6350E+01
     10.813  0.9103E+00  0.9081E+00  0.6416E+01  0.6414E+01
     10.884  0.9589E+00  0.9587E+00  0.6483E+01  0.6482E+01
     10.954  0.9548E+00  0.9537E+00  0.6550E+01  0.6549E+01
     11.025  0.1001E+01  0.9988E+00  0.6621E+01  0.6620E+01
     11.095  0.1040E+01  0.1038E+01  0.6694E+01  0.6693E+01
     11.166  0.1169E+01  0.1164E+01  0.6777E+01  0.6775E+01
     11.236  0.1375E+01  0.1372E+01  0.6874E+01  0.6872E+01
     11.307  0.1263E+01  0.1268E+01  0.6963E+01  0.6961E+01
     11.377  0.9697E+00  0.9756E+00  0.7031E+01  0.7030E+01
     11.448  0.8179E+00  0.8170E+00  0.7089E+01  0.7088E+01
     11.518  0.9574E+00  0.9499E+00  0.7157E+01  0.7155E+01
     11.589  0.1201E+01  0.1194E+01  0.7241E+01  0.7239E+01
     11.659  0.1299E+01  0.1294E+01  0.7333E+01  0.7330E+01
     11.730  0.1402E+01  0.1389E+01  0.7432E+01  0.7428E+01
     11.800  0.1762E+01  0.1741E+01  0.7556E+01  0.7551E+01
     11.871  0.2255E+01  0.2230E+01  0.7715E+01  0.7708E+01
     11.941  0.2768E+01  0.2741E+01  0.7910E+01  0.7901E+01
     12.012  0.3065E+01  0.3060E+01  0.8126E+01  0.8117E+01
     12.082  0.2757E+01  0.2786E+01  0.8321E+01  0.8314E+01
     12.153  0.2125E+01  0.2156E+01  0.8471E+01  0.8466E+01
     12.223  0.1736E+01  0.1753E+01  0.8593E+01  0.8589E+01
     12.294  0.1513E+01  0.1529E+01  0.8700E+01  0.8697E+01
     12.364  0.1244E+01  0.1256E+01  0.8788E+01  0.8786E+01
     12.435  0.1018E+01  0.1025E+01  0.8860E+01  0.8859E+01
     12.505  0.8101E+00  0.8162E+00  0.8917E+01  0.8916E+01
     12.576  0.6735E+00  0.6772E+00  0.8965E+01  0.8964E+01
     12.646  0.5703E+00  0.5734E+00  0.9005E+01  0.9005E+01
     12.717  0.4337E+00  0.4362E+00  0.9036E+01  0.9035E+01
     12.787  0.3526E+00  0.3534E+00  0.9061E+01  0.9060E+01
     12.858  0.3962E+00  0.3953E+00  0.9089E+01  0.9088E+01
     12.928  0.5543E+00  0.5527E+00  0.9128E+01  0.9127E+01
     12.999  0.7036E+00  0.7024E+00  0.9177E+01  0.9177E+01
     13.069  0.7628E+00  0.7625E+00  0.9231E+01  0.9231E+01
     13.140  0.7709E+00  0.7706E+00  0.9286E+01  0.9285E+01
     13.210  0.7906E+00  0.7905E+00  0.9341E+01  0.9341E+01
     13.281  0.8038E+00  0.8034E+00  0.9398E+01  0.9397E+01
     13.351  0.8302E+00  0.8299E+00  0.9457E+01  0.9456E+01
     13.422  0.7880E+00  0.7882E+00  0.9512E+01  0.9512E+01
     13.492  0.7469E+00  0.7461E+00  0.9565E+01  0.9564E+01
     13.563  0.7510E+00  0.7509E+00  0.9618E+01  0.9617E+01
     13.633  0.7272E+00  0.7268E+00  0.9669E+01  0.9668E+01
     13.704  0.8271E+00  0.8249E+00  0.9727E+01  0.9727E+01
     13.774  0.9267E+00  0.9271E+00  0.9793E+01  0.9792E+01
     13.844  0.8272E+00  0.8293E+00  0.9851E+01  0.9851E+01
     13.915  0.6629E+00  0.6652E+00  0.9898E+01  0.9897E+01
     13.985  0.4807E+00  0.4833E+00  0.9932E+01  0.9932E+01
     14.056  0.3513E+00  0.3514E+00  0.9957E+01  0.9956E+01
     14.126  0.3925E+00  0.3898E+00  0.9984E+01  0.9984E+01
     14.197  0.5613E+00  0.5581E+00  0.1002E+02  0.1002E+02
     14.267  0.7003E+00  0.6961E+00  0.1007E+02  0.1007E+02
     14.338  0.8542E+00  0.8460E+00  0.1013E+02  0.1013E+02
     14.408  0.1004E+01  0.9969E+00  0.1020E+02  0.1020E+02
     14.479  0.1055E+01  0.1050E+01  0.1028E+02  0.1028E+02
     14.549  0.1002E+01  0.9919E+00  0.1035E+02  0.1035E+02
     14.620  0.9601E+00  0.9638E+00  0.1042E+02  0.1041E+02
     14.690  0.8856E+00  0.9142E+00  0.1048E+02  0.1048E+02
     14.761  0.8491E+00  0.8767E+00  0.1054E+02  0.1054E+02
     14.831  0.9277E+00  0.9306E+00  0.1061E+02  0.1061E+02
     14.902  0.9665E+00  0.9591E+00  0.1067E+02  0.1067E+02
     14.972  0.9679E+00  0.9668E+00  0.1074E+02  0.1074E+02
     15.043  0.1017E+01  0.9989E+00  0.1081E+02  0.1081E+02
     15.113  0.1088E+01  0.1046E+01  0.1089E+02  0.1089E+02
     15.184  0.1095E+01  0.1054E+01  0.1097E+02  0.1096E+02
     15.254  0.1176E+01  0.1151E+01  0.1105E+02  0.1104E+02
     15.325  0.1367E+01  0.1355E+01  0.1115E+02  0.1114E+02
     15.395  0.1373E+01  0.1388E+01  0.1124E+02  0.1124E+02
     15.466  0.1063E+01  0.1105E+01  0.1132E+02  0.1131E+02
     15.536  0.8369E+00  0.8747E+00  0.1138E+02  0.1138E+02
     15.607  0.9056E+00  0.9255E+00  0.1144E+02  0.1144E+02
     15.677  0.1026E+01  0.1040E+01  0.1151E+02  0.1151E+02
     15.748  0.9207E+00  0.9433E+00  0.1158E+02  0.1158E+02
     15.818  0.6798E+00  0.7039E+00  0.1163E+02  0.1163E+02
     15.889  0.5682E+00  0.5726E+00  0.1167E+02  0.1167E+02
     15.959  0.5726E+00  0.5605E+00  0.1171E+02  0.1171E+02
     16.030  0.5624E+00  0.5498E+00  0.1175E+02  0.1175E+02
     16.100  0.4425E+00  0.4398E+00  0.1178E+02  0.1178E+02
     16.171  0.3080E+00  0.3203E+00  0.1180E+02  0.1180E+02
     16.241  0.2136E+00  0.2237E+00  0.1182E+02  0.1182E+02
     16.312  0.1958E+00  0.1998E+00  0.1183E+02  0.1183E+02
     16.382  0.2469E+00  0.2504E+00  0.1185E+02  0.1185E+02
     16.453  0.2846E+00  0.2849E+00  0.1187E+02  0.1187E+02
     16.523  0.2579E+00  0.2544E+00  0.1188E+02  0.1189E+02
     16.594  0.1807E+00  0.1715E+00  0.1190E+02  0.1190E+02
     16.664  0.1286E+00  0.1098E+00  0.1191E+02  0.1191E+02
     16.735  0.1493E+00  0.1303E+00  0.1192E+02  0.1192E+02
     16.805  0.1927E+00  0.1871E+00  0.1193E+02  0.1193E+02
     16.876  0.1824E+00  0.1883E+00  0.1194E+02  0.1194E+02
     16.946  0.1275E+00  0.1337E+00  0.1195E+02  0.1195E+02
     17.017  0.8345E-01  0.9551E-01  0.1196E+02  0.1196E+02
     17.087  0.8285E-01  0.1168E+00  0.1196E+02  0.1197E+02
     17.158  0.1082E+00  0.1448E+00  0.1197E+02  0.1198E+02
     17.228  0.1108E+00  0.1106E+00  0.1198E+02  0.1199E+02
     17.299  0.8395E-01  0.7004E-01  0.1199E+02  0.1199E+02
     17.369  0.5003E-01  0.5087E-01  0.1199E+02  0.1199E+02
     17.440  0.3055E-01  0.4149E-01  0.1199E+02  0.1200E+02
     17.510  0.2103E-01  0.2097E-01  0.1199E+02  0.1200E+02
     17.581  0.1956E-01  0.6672E-02  0.1199E+02  0.1200E+02
     17.651  0.2353E-01  0.1729E-02  0.1200E+02  0.1200E+02
     17.722  0.2219E-01  0.4172E-03  0.1200E+02  0.1200E+02
     17.792  0.1472E-01  0.0000E+00  0.1200E+02  0.1200E+02
     17.863  0.8608E-02  0.0000E+00  0.1200E+02  0.1200E+02
     17.933  0.5900E-02  0.0000E+00  0.1200E+02  0.1200E+02
     18.004  0.2971E-02  0.0000E+00  0.1200E+02  0.1200E+02
     18.074  0.9389E-03  0.0000E+00  0.1200E+02  0.1200E+02
     18.145  0.2302E-03  0.0000E+00  0.1200E+02  0.1200E+02
     18.215  0.5749E-04  0.0000E+00  0.1200E+02  0.1200E+02
     18.286  0.1411E-04  0.0000E+00  0.1200E+02  0.1200E+02
     18.356  0.0000E+00  0.0000E+00  0.1200E+02  0.1200E+02
     18.427  0.0000E+00  0.0000E+00  0.1200E+02  0.1200E+02
     18.497  0.0000E+00  0.0000E+00  0.1200E+02  0.1200E+02
     18.568  0.0000E+00  0.0000E+00  0.1200E+02  0.1200E+02
     18.638  0.0000E+00  0.0000E+00  0.1200E+02  0.1200E+02
     18.709  0.0000E+00  0.0000E+00  0.1200E+02  0.1200E+02
     18.779  0.0000E+00  0.0000E+00  0.1200E+02  0.1200E+02
     18.850  0.0000E+00  0.0000E+00  0.1200E+02  0.1200E+02
     18.84988060     -2.29962763  301     11.34305894      1.00000000
     -2.300  0.0000E+00  0.0000E+00  0.0000E+00  0.0000E+00  0.0000E+00  0.0000E+00  0.0000E+00  0.0000E+00  0.0000E+00  0.0000E+00  0.0000E+00  0.0000E+00  0.0000E+00  0.0000E+00  0.0000E+00  0.0000E+00  0.0000E+00  0.0000E+00
     -2.229  0.0000E+00  0.0000E+00  0.0000E+00  0.0000E+00  0.0000E+00  0.0000E+00  0.0000E+00  0.0000E+00  0.0000E+00  0.0000E+00  0.0000E+00  0.0000E+00  0.0000E+00  0.0000E+00  0.0000E+00  0.0000E+00  0.0000E+00  0.0000E+00
     -2.159  0.0000E+00  0.0000E+00  0.0000E+00  0.0000E+00  0.0000E+00  0.0000E+00  0.0000E+00  0.0000E+00  0.0000E+00  0.0000E+00  0.0000E+00  0.0000E+00  0.0000E+00  0.0000E+00  0.0000E+00  0.0000E+00  0.0000E+00  0.0000E+00
     -2.088  0.0000E+00  0.0000E+00  0.0000E+00  0.0000E+00  0.0000E+00  0.0000E+00  0.0000E+00  0.0000E+00  0.0000E+00  0.0000E+00  0.0000E+00  0.0000E+00  0.0000E+00  0.0000E+00  0.0000E+00  0.0000E+00  0.0000E+00  0.0000E+00
     -2.018  0.0000E+00  0.0000E+00  0.0000E+00  0.0000E+00  0.0000E+00  0.0000E+00  0.0000E+00  0.0000E+00  0.0000E+00  0.0000E+00  0.0000E+00  0.0000E+00  0.0000E+00  0.0000E+00  0.0000E+00  0.0000E+00  0.0000E+00  0.0000E+00
     -1.947  0.0000E+00  0.0000E+00  0.0000E+00  0.0000E+00  0.0000E+00  0.0000E+00  0.0000E+00  0.0000E+00  0.0000E+00  0.0000E+00  0.0000E+00  0.0000E+00  0.0000E+00  0.0000E+00  0.0000E+00  0.0000E+00  0.0000E+00  0.0000E+00
     -1.877  0.0000E+00  0.0000E+00  0.0000E+00  0.0000E+00  0.0000E+00  0.0000E+00  0.0000E+00  0.0000E+00  0.0000E+00  0.0000E+00  0.0000E+00  0.0000E+00  0.0000E+00  0.0000E+00  0.0000E+00  0.0000E+00  0.0000E+00  0.0000E+00
     -1.806  0.9589E-07  0.9625E-07  0.8863E-21  0.2050E-21  0.8863E-21  0.2050E-21  0.4484E-21  0.7764E-22  0.2533E-14  0.4260E-15  0.2210E-14  0.1533E-15  0.5437E-15  0.4789E-15  0.2533E-14  0.4260E-15  0.7516E-15  0.5005E-15
     -1.736  0.8640E-06  0.8676E-06  0.2213E-08  0.2223E-08  0.2213E-08  0.2223E-08  0.2212E-08  0.2221E-08  0.1469E-13  0.2265E-14  0.6008E-13  0.7077E-15  0.8470E-11  0.8439E-11  0.1469E-13  0.2265E-14  0.1081E-10  0.1077E-10
     -1.665  0.4094E-05  0.4110E-05  0.1568E-07  0.1574E-07  0.1568E-07  0.1574E-07  0.1567E-07  0.1573E-07  0.6881E-10  0.7025E-10  0.6901E-10  0.7023E-10  0.4879E-10  0.4839E-10  0.6881E-10  0.7025E-10  0.5092E-10  0.5053E-10
     -1.595  0.1635E-04  0.1642E-04  0.6417E-07  0.6444E-07  0.6417E-07  0.6444E-07  0.6414E-07  0.6440E-07  0.3538E-09  0.3585E-09  0.3545E-09  0.3584E-09  0.1771E-09  0.1757E-09  0.3538E-09  0.3585E-09  0.1909E-09  0.1895E-09
     -1.524  0.6614E-04  0.6641E-04  0.2622E-06  0.2633E-06  0.2622E-06  0.2633E-06  0.2620E-06  0.2631E-06  0.1307E-08  0.1326E-08  0.1310E-08  0.1326E-08  0.8578E-09  0.8525E-09  0.1307E-08  0.1326E-08  0.9521E-09  0.9469E-09
     -1.454  0.2627E-03  0.2637E-03  0.1097E-05  0.1102E-05  0.1097E-05  0.1102E-05  0.1096E-05  0.1101E-05  0.5924E-08  0.6003E-08  0.5937E-08  0.6003E-08  0.3801E-08  0.3780E-08  0.5924E-08  0.6003E-08  0.4216E-08  0.4196E-08
     -1.383  0.9473E-03  0.9506E-03  0.4300E-05  0.4317E-05  0.4300E-05  0.4317E-05  0.4298E-05  0.4314E-05  0.2466E-07  0.2499E-07  0.2471E-07  0.2498E-07  0.1469E-07  0.1461E-07  0.2466E-07  0.2499E-07  0.1626E-07  0.1618E-07
     -1.313  0.2772E-02  0.2780E-02  0.1497E-04  0.1502E-04  0.1497E-04  0.1502E-04  0.1496E-04  0.1501E-04  0.9400E-07  0.9520E-07  0.9415E-07  0.9520E-07  0.5091E-07  0.5059E-07  0.9400E-07  0.9520E-07  0.5557E-07  0.5526E-07
     -1.242  0.5918E-02  0.5929E-02  0.4074E-04  0.4084E-04  0.4074E-04  0.4084E-04  0.4073E-04  0.4083E-04  0.3165E-06  0.3200E-06  0.3168E-06  0.3200E-06  0.1415E-06  0.1406E-06  0.3165E-06  0.3200E-06  0.1518E-06  0.1509E-06
     -1.172  0.8834E-02  0.8840E-02  0.8034E-04  0.8046E-04  0.8034E-04  0.8046E-04  0.8029E-04  0.8042E-04  0.7914E-06  0.7971E-06  0.7917E-06  0.7970E-06  0.3318E-06  0.3305E-06  0.7914E-06  0.7971E-06  0.3684E-06  0.3674E-06
     -1.101  0.1022E-01  0.1022E-01  0.1295E-03  0.1296E-03  0.1295E-03  0.1296E-03  0.1293E-03  0.1295E-03  0.1508E-05  0.1512E-05  0.1508E-05  0.1513E-05  0.8203E-06  0.8200E-06  0.1508E-05  0.1512E-05  0.9730E-06  0.9732E-06
     -1.031  0.1254E-01  0.1255E-01  0.2185E-03  0.2188E-03  0.2185E-03  0.2188E-03  0.2183E-03  0.2186E-03  0.2992E-05  0.2998E-05  0.2995E-05  0.3000E-05  0.1895E-05  0.1895E-05  0.2992E-05  0.2998E-05  0.2278E-05  0.2278E-05
     -0.960  0.1661E-01  0.1662E-01  0.3464E-03  0.3466E-03  0.3464E-03  0.3466E-03  0.3463E-03  0.3466E-03  0.5975E-05  0.5982E-05  0.5977E-05  0.5984E-05  0.3027E-05  0.3025E-05  0.5975E-05  0.5982E-05  0.3617E-05  0.3615E-05
     -0.890  0.1686E-01  0.1685E-01  0.3963E-03  0.3962E-03  0.3963E-03  0.3962E-03  0.3963E-03  0.3962E-03  0.8629E-05  0.8633E-05  0.8631E-05  0.8634E-05  0.3259E-05  0.3256E-05  0.8629E-05  0.8633E-05  0.3831E-05  0.3828E-05
     -0.819  0.1379E-01  0.1379E-01  0.3902E-03  0.3904E-03  0.3902E-03  0.3904E-03  0.3900E-03  0.3901E-03  0.1074E-04  0.1075E-04  0.1075E-04  0.1076E-04  0.3754E-05  0.3758E-05  0.1074E-04  0.1075E-04  0.4149E-05  0.4152E-05
     -0.749  0.1568E-01  0.1570E-01  0.5496E-03  0.5503E-03  0.5496E-03  0.5503E-03  0.5487E-03  0.5494E-03  0.1713E-04  0.1716E-04  0.1715E-04  0.1717E-04  0.6972E-05  0.6986E-05  0.1713E-04  0.1716E-04  0.7696E-05  0.7712E-05
     -0.678  0.2080E-01  0.2082E-01  0.8155E-03  0.8163E-03  0.8155E-03  0.8163E-03  0.8143E-03  0.8150E-03  0.2459E-04  0.2461E-04  0.2460E-04  0.2462E-04  0.1307E-04  0.1308E-04  0.2459E-04  0.2461E-04  0.1527E-04  0.1529E-04
     -0.608  0.2231E-01  0.2231E-01  0.9558E-03  0.9562E-03  0.9558E-03  0.9562E-03  0.9553E-03  0.9556E-03  0.2814E-04  0.2817E-04  0.2815E-04  0.2819E-04  0.1828E-04  0.1828E-04  0.2814E-04  0.2817E-04  0.2221E-04  0.2221E-04
     -0.537  0.2042E-01  0.2042E-01  0.9643E-03  0.9645E-03  0.9643E-03  0.9645E-03  0.9648E-03  0.9650E-03  0.3483E-04  0.3489E-04  0.3486E-04  0.3492E-04  0.1813E-04  0.1812E-04  0.3483E-04  0.3489E-04  0.2205E-04  0.2203E-04
     -0.467  0.1954E-01  0.1955E-01  0.1038E-02  0.1038E-02  0.1038E-02  0.1038E-02  0.1037E-02  0.1038E-02  0.5056E-04  0.5065E-04  0.5063E-04  0.5073E-04  0.1728E-04  0.1727E-04  0.5056E-04  0.5065E-04  0.1982E-04  0.1981E-04
     -0.396  0.2269E-01  0.2270E-01  0.1324E-02  0.1325E-02  0.1324E-02  0.1325E-02  0.1323E-02  0.1324E-02  0.7490E-04  0.7498E-04  0.7495E-04  0.7504E-04  0.2158E-04  0.2158E-04  0.7490E-04  0.7498E-04  0.2367E-04  0.2366E-04
     -0.326  0.2223E-01  0.2223E-01  0.1378E-02  0.1378E-02  0.1378E-02  0.1378E-02  0.1378E-02  0.1378E-02  0.8075E-04  0.8075E-04  0.8069E-04  0.8069E-04  0.2421E-04  0.2420E-04  0.8075E-04  0.8075E-04  0.2710E-04  0.2709E-04
     -0.255  0.1746E-01  0.1746E-01  0.1207E-02  0.1208E-02  0.1207E-02  0.1208E-02  0.1205E-02  0.1205E-02  0.6636E-04  0.6638E-04  0.6633E-04  0.6635E-04  0.2850E-04  0.2852E-04  0.6636E-04  0.6638E-04  0.3399E-04  0.3402E-04
     -0.185  0.2077E-01  0.2079E-01  0.1632E-02  0.1634E-02  0.1632E-02  0.1634E-02  0.1627E-02  0.1629E-02  0.8833E-04  0.8851E-04  0.8848E-04  0.8863E-04  0.4750E-04  0.4756E-04  0.8833E-04  0.8851E-04  0.5815E-04  0.5821E-04
     -0.114  0.2731E-01  0.2733E-01  0.2270E-02  0.2271E-02  0.2270E-02  0.2271E-02  0.2267E-02  0.2269E-02  0.1342E-03  0.1344E-03  0.1345E-03  0.1346E-03  0.6768E-04  0.6770E-04  0.1342E-03  0.1344E-03  0.8129E-04  0.8129E-04
     -0.044  0.2741E-01  0.2741E-01  0.2395E-02  0.2395E-02  0.2395E-02  0.2395E-02  0.2396E-02  0.2396E-02  0.1635E-03  0.1637E-03  0.1637E-03  0.1638E-03  0.6991E-04  0.6988E-04  0.1635E-03  0.1637E-03  0.8067E-04  0.8061E-04
      0.027  0.2568E-01  0.2569E-01  0.2409E-02  0.2409E-02  0.2409E-02  0.2409E-02  0.2407E-02  0.2408E-02  0.1873E-03  0.1875E-03  0.1874E-03  0.1876E-03  0.6952E-04  0.6952E-04  0.1873E-03  0.1875E-03  0.7874E-04  0.7872E-04
      0.097  0.2598E-01  0.2599E-01  0.2602E-02  0.2602E-02  0.2602E-02  0.2602E-02  0.2601E-02  0.2602E-02  0.2222E-03  0.2225E-03  0.2221E-03  0.2225E-03  0.7379E-04  0.7379E-04  0.2222E-03  0.2225E-03  0.8495E-04  0.8492E-04
      0.168  0.2296E-01  0.2295E-01  0.2396E-02  0.2395E-02  0.2396E-02  0.2395E-02  0.2400E-02  0.2399E-02  0.2344E-03  0.2347E-03  0.2341E-03  0.2344E-03  0.5956E-04  0.5953E-04  0.2344E-03  0.2347E-03  0.6876E-04  0.6870E-04
      0.238  0.1736E-01  0.1735E-01  0.1952E-02  0.1952E-02  0.1952E-02  0.1952E-02  0.1951E-02  0.1950E-02  0.2140E-03  0.2143E-03  0.2141E-03  0.2144E-03  0.4607E-04  0.4609E-04  0.2140E-03  0.2143E-03  0.5318E-04  0.5320E-04
      0.309  0.1864E-01  0.1865E-01  0.2372E-02  0.2374E-02  0.2372E-02  0.2374E-02  0.2361E-02  0.2363E-02  0.2585E-03  0.2590E-03  0.2593E-03  0.2598E-03  0.7094E-04  0.7106E-04  0.2585E-03  0.2590E-03  0.8219E-04  0.8233E-04
      0.379  0.2600E-01  0.2602E-01  0.3600E-02  0.3603E-02  0.3600E-02  0.3603E-02  0.3584E-02  0.3586E-02  0.3696E-03  0.3701E-03  0.3705E-03  0.3710E-03  0.1298E-03  0.1300E-03  0.3696E-03  0.3701E-03  0.1498E-03  0.1501E-03
      0.450  0.3067E-01  0.3067E-01  0.4489E-02  0.4490E-02  0.4489E-02  0.4490E-02  0.4483E-02  0.4483E-02  0.4452E-03  0.4455E-03  0.4450E-03  0.4453E-03  0.1742E-03  0.1744E-03  0.4452E-03  0.4455E-03  0.2039E-03  0.2041E-03
      0.520  0.2692E-01  0.2691E-01  0.4167E-02  0.4165E-02  0.4167E-02  0.4165E-02  0.4171E-02  0.4170E-02  0.4310E-03  0.4313E-03  0.4306E-03  0.4310E-03  0.1610E-03  0.1612E-03  0.4310E-03  0.4313E-03  0.1922E-03  0.1923E-03
      0.591  0.2552E-01  0.2552E-01  0.4230E-02  0.4230E-02  0.4230E-02  0.4230E-02  0.4224E-02  0.4224E-02  0.5102E-03  0.5111E-03  0.5111E-03  0.5119E-03  0.1519E-03  0.1521E-03  0.5102E-03  0.5111E-03  0.1818E-03  0.1820E-03
      0.661  0.2730E-01  0.2730E-01  0.4768E-02  0.4767E-02  0.4768E-02  0.4767E-02  0.4764E-02  0.4763E-02  0.6121E-03  0.6128E-03  0.6125E-03  0.6132E-03  0.1714E-03  0.1716E-03  0.6121E-03  0.6128E-03  0.2043E-03  0.2045E-03
      0.732  0.2116E-01  0.2115E-01  0.3882E-02  0.3879E-02  0.3882E-02  0.3879E-02  0.3893E-02  0.3890E-02  0.5211E-03  0.5214E-03  0.5210E-03  0.5213E-03  0.1461E-03  0.1462E-03  0.5211E-03  0.5214E-03  0.1715E-03  0.1716E-03
      0.802  0.1697E-01  0.1698E-01  0.3341E-02  0.3341E-02  0.3341E-02  0.3341E-02  0.3340E-02  0.3340E-02  0.5504E-03  0.5512E-03  0.5520E-03  0.5528E-03  0.1183E-03  0.1184E-03  0.5504E-03  0.5512E-03  0.1307E-03  0.1309E-03
      0.873  0.2155E-01  0.2156E-01  0.4600E-02  0.4602E-02  0.4600E-02  0.4602E-02  0.4579E-02  0.4581E-02  0.8490E-03  0.8504E-03  0.8514E-03  0.8526E-03  0.1478E-03  0.1480E-03  0.8490E-03  0.8504E-03  0.1593E-03  0.1596E-03
      0.943  0.2633E-01  0.2634E-01  0.6245E-02  0.6246E-02  0.6245E-02  0.6246E-02  0.6213E-02  0.6214E-02  0.1119E-02  0.1120E-02  0.1120E-02  0.1121E-02  0.1908E-03  0.1911E-03  0.1119E-02  0.1120E-02  0.2103E-03  0.2106E-03
      1.014  0.2542E-01  0.2542E-01  0.7158E-02  0.7156E-02  0.7158E-02  0.7156E-02  0.7126E-02  0.7124E-02  0.1134E-02  0.1134E-02  0.1133E-02  0.1134E-02  0.2123E-03  0.2126E-03  0.1134E-02  0.1134E-02  0.2405E-03  0.2408E-03
      1.084  0.2086E-01  0.2085E-01  0.7134E-02  0.7133E-02  0.7134E-02  0.7133E-02  0.7124E-02  0.7122E-02  0.1016E-02  0.1017E-02  0.1016E-02  0.1016E-02  0.2000E-03  0.2001E-03  0.1016E-02  0.1017E-02  0.2323E-03  0.2325E-03
      1.155  0.1777E-01  0.1776E-01  0.6911E-02  0.6910E-02  0.6911E-02  0.6910E-02  0.6906E-02  0.6905E-02  0.1046E-02  0.1046E-02  0.1048E-02  0.1048E-02  0.1842E-03  0.1843E-03  0.1046E-02  0.1046E-02  0.2180E-03  0.2182E-03
      1.225  0.1626E-01  0.1626E-01  0.7199E-02  0.7199E-02  0.7199E-02  0.7199E-02  0.7183E-02  0.7183E-02  0.1189E-02  0.1190E-02  0.1192E-02  0.1193E-02  0.1848E-03  0.1850E-03  0.1189E-02  0.1190E-02  0.2182E-03  0.2184E-03