   4   4   1   0
  0.1268746E+02  0.3701533E-09  0.3702769E-09  0.3702769E-09  0.5000000E-15
  1.000000000000000E-004
  CAR 
 unknown system                          
     16.44380841     -2.74853498  301     10.16813715      1.00000000
     -2.749  0.0000E+00  0.0000E+00  0.0000E+00  0.0000E+00
     -2.685  0.0000E+00  0.0000E+00  0.0000E+00  0.0000E+00
     -2.621  0.0000E+00  0.0000E+00  0.0000E+00  0.0000E+00
     -2.557  0.0000E+00  0.0000E+00  0.0000E+00  0.0000E+00
     -2.493  0.0000E+00  0.0000E+00  0.0000E+00  0.0000E+00
     -2.429  0.0000E+00  0.0000E+00  0.0000E+00  0.0000E+00
     -2.365  0.0000E+00  0.0000E+00  0.0000E+00  0.0000E+00
     -2.301  0.1460E-05  0.1391E-05  0.9342E-07  0.8900E-07
     -2.237  0.1226E-04  0.1168E-04  0.8779E-06  0.8364E-06
     -2.173  0.5202E-04  0.4956E-04  0.4206E-05  0.4007E-05
     -2.109  0.1806E-03  0.1721E-03  0.1576E-04  0.1502E-04
     -2.045  0.6383E-03  0.6086E-03  0.5659E-04  0.5395E-04
     -1.981  0.2221E-02  0.2122E-02  0.1987E-03  0.1897E-03
     -1.917  0.7025E-02  0.6743E-02  0.6481E-03  0.6211E-03
     -1.853  0.1851E-01  0.1792E-01  0.1832E-02  0.1767E-02
     -1.789  0.3727E-01  0.3650E-01  0.4216E-02  0.4102E-02
     -1.725  0.5536E-01  0.5482E-01  0.7758E-02  0.7609E-02
     -1.661  0.6623E-01  0.6586E-01  0.1199E-01  0.1182E-01
     -1.597  0.8135E-01  0.8052E-01  0.1720E-01  0.1697E-01
     -1.533  0.1063E+00  0.1054E+00  0.2400E-01  0.2372E-01
     -1.469  0.1136E+00  0.1139E+00  0.3127E-01  0.3101E-01
     -1.405  0.9896E-01  0.9940E-01  0.3760E-01  0.3737E-01
     -1.341  0.1059E+00  0.1049E+00  0.4438E-01  0.4409E-01
     -1.277  0.1389E+00  0.1377E+00  0.5327E-01  0.5290E-01
     -1.213  0.1581E+00  0.1580E+00  0.6339E-01  0.6301E-01
     -1.149  0.1531E+00  0.1537E+00  0.7320E-01  0.7284E-01
     -1.085  0.1455E+00  0.1454E+00  0.8251E-01  0.8215E-01
     -1.021  0.1615E+00  0.1606E+00  0.9285E-01  0.9243E-01
     -0.957  0.1754E+00  0.1756E+00  0.1041E+00  0.1037E+00
     -0.893  0.1506E+00  0.1517E+00  0.1137E+00  0.1134E+00
     -0.829  0.1502E+00  0.1490E+00  0.1233E+00  0.1229E+00
     -0.765  0.2006E+00  0.1986E+00  0.1362E+00  0.1356E+00
     -0.701  0.2291E+00  0.2289E+00  0.1508E+00  0.1503E+00
     -0.637  0.2222E+00  0.2226E+00  0.1650E+00  0.1645E+00
     -0.573  0.2211E+00  0.2211E+00  0.1792E+00  0.1787E+00
     -0.509  0.2200E+00  0.2206E+00  0.1933E+00  0.1928E+00
     -0.445  0.1851E+00  0.1867E+00  0.2051E+00  0.2047E+00
     -0.381  0.1607E+00  0.1605E+00  0.2154E+00  0.2150E+00
     -0.318  0.2006E+00  0.1981E+00  0.2283E+00  0.2277E+00
     -0.254  0.2727E+00  0.2703E+00  0.2457E+00  0.2450E+00
     -0.190  0.3016E+00  0.3020E+00  0.2650E+00  0.2644E+00
     -0.126  0.2715E+00  0.2725E+00  0.2824E+00  0.2818E+00
     -0.062  0.2773E+00  0.2762E+00  0.3002E+00  0.2995E+00
      0.002  0.2900E+00  0.2909E+00  0.3187E+00  0.3181E+00
      0.066  0.2324E+00  0.2349E+00  0.3336E+00  0.3331E+00
      0.130  0.2053E+00  0.2045E+00  0.3468E+00  0.3462E+00
      0.194  0.2659E+00  0.2628E+00  0.3638E+00  0.3631E+00
      0.258  0.3405E+00  0.3383E+00  0.3856E+00  0.3847E+00
      0.322  0.3684E+00  0.3685E+00  0.4091E+00  0.4083E+00
      0.386  0.3458E+00  0.3471E+00  0.4313E+00  0.4305E+00
      0.450  0.3196E+00  0.3201E+00  0.4517E+00  0.4510E+00
      0.514  0.3205E+00  0.3204E+00  0.4723E+00  0.4715E+00
      0.578  0.3244E+00  0.3242E+00  0.4930E+00  0.4922E+00
      0.642  0.3434E+00  0.3421E+00  0.5150E+00  0.5142E+00
      0.706  0.3819E+00  0.3808E+00  0.5395E+00  0.5385E+00
      0.770  0.3931E+00  0.3934E+00  0.5646E+00  0.5637E+00
      0.834  0.3722E+00  0.3735E+00  0.5884E+00  0.5876E+00
      0.898  0.3097E+00  0.3127E+00  0.6083E+00  0.6076E+00
      0.962  0.2384E+00  0.2400E+00  0.6236E+00  0.6230E+00
      1.026  0.2301E+00  0.2295E+00  0.6383E+00  0.6377E+00
      1.090  0.2732E+00  0.2705E+00  0.6558E+00  0.6551E+00
      1.154  0.3625E+00  0.3598E+00  0.6790E+00  0.6781E+00
      1.218  0.3767E+00  0.3785E+00  0.7031E+00  0.7023E+00
      1.282  0.3051E+00  0.3075E+00  0.7226E+00  0.7220E+00
      1.346  0.2639E+00  0.2648E+00  0.7395E+00  0.7389E+00
      1.410  0.2314E+00  0.2326E+00  0.7543E+00  0.7538E+00
      1.474  0.2256E+00  0.2240E+00  0.7688E+00  0.7682E+00
      1.538  0.3221E+00  0.3172E+00  0.7894E+00  0.7885E+00
      1.602  0.4461E+00  0.4430E+00  0.8180E+00  0.8169E+00
      1.666  0.4569E+00  0.4589E+00  0.8472E+00  0.8462E+00
      1.730  0.3813E+00  0.3835E+00  0.8716E+00  0.8708E+00
      1.794  0.3359E+00  0.3377E+00  0.8931E+00  0.8924E+00
      1.858  0.2679E+00  0.2707E+00  0.9103E+00  0.9097E+00
      1.922  0.2506E+00  0.2488E+00  0.9263E+00  0.9256E+00
      1.986  0.3577E+00  0.3529E+00  0.9492E+00  0.9482E+00
      2.050  0.4466E+00  0.4456E+00  0.9778E+00  0.9768E+00
      2.114  0.3986E+00  0.4024E+00  0.1003E+01  0.1003E+01
      2.177  0.2928E+00  0.2958E+00  0.1022E+01  0.1021E+01
      2.241  0.2619E+00  0.2614E+00  0.1039E+01  0.1038E+01
      2.305  0.2867E+00  0.2856E+00  0.1057E+01  0.1056E+01
      2.369  0.3183E+00  0.3165E+00  0.1078E+01  0.1077E+01
      2.433  0.4121E+00  0.4074E+00  0.1104E+01  0.1103E+01
      2.497  0.5096E+00  0.5078E+00  0.1137E+01  0.1135E+01
      2.561  0.4636E+00  0.4678E+00  0.1166E+01  0.1165E+01
      2.625  0.3383E+00  0.3421E+00  0.1188E+01  0.1187E+01
      2.689  0.2926E+00  0.2927E+00  0.1207E+01  0.1206E+01
      2.753  0.3008E+00  0.3005E+00  0.1226E+01  0.1225E+01
      2.817  0.3155E+00  0.3147E+00  0.1246E+01  0.1245E+01
      2.881  0.3491E+00  0.3474E+00  0.1268E+01  0.1268E+01
      2.945  0.4110E+00  0.4081E+00  0.1295E+01  0.1294E+01
      3.009  0.4488E+00  0.4493E+00  0.1323E+01  0.1322E+01
      3.073  0.3768E+00  0.3802E+00  0.1348E+01  0.1347E+01
      3.137  0.3449E+00  0.3435E+00  0.1370E+01  0.1369E+01
      3.201  0.4170E+00  0.4142E+00  0.1396E+01  0.1395E+01
      3.265  0.4570E+00  0.4565E+00  0.1426E+01  0.1424E+01
      3.329  0.4812E+00  0.4796E+00  0.1456E+01  0.1455E+01
      3.393  0.5351E+00  0.5331E+00  0.1491E+01  0.1489E+01
      3.457  0.5612E+00  0.5614E+00  0.1527E+01  0.1525E+01
      3.521  0.5243E+00  0.5262E+00  0.1560E+01  0.1559E+01
      3.585  0.5069E+00  0.5061E+00  0.1593E+01  0.1591E+01
      3.649  0.5561E+00  0.5540E+00  0.1628E+01  0.1627E+01
      3.713  0.5931E+00  0.5925E+00  0.1666E+01  0.1665E+01
      3.777  0.5760E+00  0.5780E+00  0.1703E+01  0.1702E+01
      3.841  0.5107E+00  0.5127E+00  0.1736E+01  0.1735E+01
      3.905  0.4782E+00  0.4792E+00  0.1766E+01  0.1765E+01
      3.969  0.4455E+00  0.4463E+00  0.1795E+01  0.1794E+01
      4.033  0.4788E+00  0.4756E+00  0.1826E+01  0.1824E+01
      4.097  0.5955E+00  0.5913E+00  0.1864E+01  0.1862E+01
      4.161  0.6604E+00  0.6604E+00  0.1906E+01  0.1904E+01
      4.225  0.6105E+00  0.6133E+00  0.1945E+01  0.1944E+01
      4.289  0.5319E+00  0.5347E+00  0.1979E+01  0.1978E+01
      4.353  0.5014E+00  0.5004E+00  0.2011E+01  0.2010E+01
      4.417  0.6134E+00  0.6073E+00  0.2050E+01  0.2049E+01
      4.481  0.7323E+00  0.7314E+00  0.2097E+01  0.2096E+01
      4.545  0.6476E+00  0.6526E+00  0.2139E+01  0.2137E+01
      4.609  0.5688E+00  0.5688E+00  0.2175E+01  0.2174E+01
      4.673  0.6078E+00  0.6061E+00  0.2214E+01  0.2213E+01
      4.736  0.6109E+00  0.6120E+00  0.2253E+01  0.2252E+01
      4.800  0.5756E+00  0.5763E+00  0.2290E+01  0.2289E+01
      4.864  0.5917E+00  0.5906E+00  0.2328E+01  0.2327E+01
      4.928  0.5960E+00  0.5966E+00  0.2366E+01  0.2365E+01
      4.992  0.5672E+00  0.5686E+00  0.2402E+01  0.2401E+01
      5.056  0.4982E+00  0.5017E+00  0.2434E+01  0.2433E+01
      5.120  0.4301E+00  0.4304E+00  0.2462E+01  0.2461E+01
      5.184  0.4843E+00  0.4806E+00  0.2493E+01  0.2492E+01
      5.248  0.5796E+00  0.5762E+00  0.2530E+01  0.2528E+01
      5.312  0.6477E+00  0.6455E+00  0.2571E+01  0.2570E+01
      5.376  0.6560E+00  0.6574E+00  0.2613E+01  0.2612E+01
      5.440  0.5965E+00  0.5981E+00  0.2652E+01  0.2650E+01
      5.504  0.6146E+00  0.6121E+00  0.2691E+01  0.2689E+01
      5.568  0.6855E+00  0.6832E+00  0.2735E+01  0.2733E+01
      5.632  0.7421E+00  0.7402E+00  0.2782E+01  0.2780E+01
      5.696  0.7684E+00  0.7693E+00  0.2831E+01  0.2830E+01
      5.760  0.6990E+00  0.7025E+00  0.2876E+01  0.2875E+01
      5.824  0.6268E+00  0.6284E+00  0.2916E+01  0.2915E+01
      5.888  0.6169E+00  0.6158E+00  0.2956E+01  0.2954E+01
      5.952  0.6604E+00  0.6578E+00  0.2998E+01  0.2996E+01
      6.016  0.7306E+00  0.7275E+00  0.3045E+01  0.3043E+01
      6.080  0.7955E+00  0.7933E+00  0.3096E+01  0.3094E+01
      6.144  0.8613E+00  0.8590E+00  0.3151E+01  0.3149E+01
      6.208  0.8797E+00  0.8815E+00  0.3207E+01  0.3205E+01
      6.272  0.7823E+00  0.7864E+00  0.3257E+01  0.3255E+01
      6.336  0.7558E+00  0.7530E+00  0.3306E+01  0.3304E+01
      6.400  0.8995E+00  0.8932E+00  0.3363E+01  0.3361E+01
      6.464  0.1066E+01  0.1060E+01  0.3431E+01  0.3429E+01
      6.528  0.1122E+01  0.1124E+01  0.3503E+01  0.3501E+01
      6.592  0.1008E+01  0.1011E+01  0.3568E+01  0.3565E+01
      6.656  0.9717E+00  0.9711E+00  0.3630E+01  0.3628E+01
      6.720  0.9602E+00  0.9623E+00  0.3691E+01  0.3689E+01
      6.784  0.8823E+00  0.8851E+00  0.3748E+01  0.3746E+01
      6.848  0.8848E+00  0.8824E+00  0.3805E+01  0.3802E+01
      6.912  0.1036E+01  0.1028E+01  0.3871E+01  0.3868E+01
      6.976  0.1245E+01  0.1239E+01  0.3951E+01  0.3947E+01
      7.040  0.1347E+01  0.1345E+01  0.4037E+01  0.4034E+01
      7.104  0.1346E+01  0.1348E+01  0.4123E+01  0.4120E+01
      7.168  0.1260E+01  0.1265E+01  0.4204E+01  0.4201E+01
      7.231  0.1136E+01  0.1141E+01  0.4276E+01  0.4274E+01
      7.295  0.1045E+01  0.1049E+01  0.4343E+01  0.4341E+01
      7.359  0.9457E+00  0.9485E+00  0.4404E+01  0.4402E+01
      7.423  0.1010E+01  0.1003E+01  0.4468E+01  0.4466E+01
      7.487  0.1378E+01  0.1363E+01  0.4557E+01  0.4553E+01
      7.551  0.1698E+01  0.1693E+01  0.4665E+01  0.4662E+01
      7.615  0.1626E+01  0.1634E+01  0.4769E+01  0.4766E+01
      7.679  0.1421E+01  0.1427E+01  0.4860E+01  0.4857E+01
      7.743  0.1328E+01  0.1331E+01  0.4945E+01  0.4943E+01
      7.807  0.1206E+01  0.1213E+01  0.5023E+01  0.5020E+01
      7.871  0.9686E+00  0.9764E+00  0.5085E+01  0.5083E+01
      7.935  0.8681E+00  0.8673E+00  0.5140E+01  0.5138E+01
      7.999  0.9982E+00  0.9931E+00  0.5204E+01  0.5202E+01
      8.063  0.1031E+01  0.1035E+01  0.5270E+01  0.5268E+01
      8.127  0.8623E+00  0.8679E+00  0.5325E+01  0.5324E+01
      8.191  0.7591E+00  0.7612E+00  0.5374E+01  0.5372E+01
      8.255  0.7023E+00  0.7041E+00  0.5419E+01  0.5418E+01
      8.319  0.6776E+00  0.6777E+00  0.5462E+01  0.5461E+01
      8.383  0.7038E+00  0.7027E+00  0.5507E+01  0.5506E+01
      8.447  0.7472E+00  0.7461E+00  0.5555E+01  0.5554E+01
      8.511  0.7828E+00  0.7823E+00  0.5605E+01  0.5604E+01
      8.575  0.7579E+00  0.7598E+00  0.5654E+01  0.5652E+01
      8.639  0.7234E+00  0.7229E+00  0.5700E+01  0.5699E+01
      8.703  0.7766E+00  0.7747E+00  0.5750E+01  0.5748E+01
      8.767  0.7628E+00  0.7663E+00  0.5799E+01  0.5797E+01
      8.831  0.6107E+00  0.6161E+00  0.5838E+01  0.5837E+01
      8.895  0.5196E+00  0.5198E+00  0.5871E+01  0.5870E+01
      8.959  0.6069E+00  0.6021E+00  0.5910E+01  0.5909E+01
      9.023  0.7672E+00  0.7633E+00  0.5959E+01  0.5958E+01
      9.087  0.7670E+00  0.7712E+00  0.6008E+01  0.6007E+01
      9.151  0.5572E+00  0.5637E+00  0.6044E+01  0.6043E+01
      9.215  0.4510E+00  0.4508E+00  0.6073E+01  0.6072E+01
      9.279  0.5460E+00  0.5423E+00  0.6108E+01  0.6107E+01
      9.343  0.6174E+00  0.6171E+00  0.6147E+01  0.6146E+01
      9.407  0.5958E+00  0.5966E+00  0.6185E+01  0.6184E+01
      9.471  0.5970E+00  0.5958E+00  0.6224E+01  0.6222E+01
      9.535  0.6907E+00  0.6867E+00  0.6268E+01  0.6266E+01
      9.599  0.8326E+00  0.8287E+00  0.6321E+01  0.6319E+01
      9.663  0.9478E+00  0.9448E+00  0.6382E+01  0.6380E+01
      9.726  0.1045E+01  0.1043E+01  0.6449E+01  0.6447E+01
      9.790  0.1079E+01  0.1078E+01  0.6518E+01  0.6516E+01
      9.854  0.1109E+01  0.1107E+01  0.6589E+01  0.6586E+01
      9.918  0.1158E+01  0.1157E+01  0.6663E+01  0.6660E+01
      9.982  0.1234E+01  0.1230E+01  0.6742E+01  0.6739E+01
     10.046  0.1418E+01  0.1413E+01  0.6833E+01  0.6830E+01
     10.110  0.1465E+01  0.1468E+01  0.6926E+01  0.6924E+01
     10.174  0.1283E+01  0.1290E+01  0.7008E+01  0.7006E+01
     10.238  0.1080E+01  0.1083E+01  0.7078E+01  0.7075E+01
     10.302  0.1092E+01  0.1086E+01  0.7147E+01  0.7145E+01
     10.366  0.1311E+01  0.1303E+01  0.7231E+01  0.7228E+01
     10.430  0.1532E+01  0.1524E+01  0.7329E+01  0.7326E+01
     10.494  0.1791E+01  0.1779E+01  0.7444E+01  0.7440E+01
     10.558  0.2212E+01  0.2195E+01  0.7586E+01  0.7580E+01
     10.622  0.2734E+01  0.2717E+01  0.7761E+01  0.7754E+01
     10.686  0.3170E+01  0.3160E+01  0.7963E+01  0.7956E+01
     10.750  0.3261E+01  0.3267E+01  0.8172E+01  0.8166E+01
     10.814  0.2821E+01  0.2841E+01  0.8353E+01  0.8347E+01
     10.878  0.2232E+01  0.2248E+01  0.8496E+01  0.8491E+01
     10.942  0.1846E+01  0.1855E+01  0.8614E+01  0.8610E+01
     11.006  0.1551E+01  0.1560E+01  0.8713E+01  0.8710E+01
     11.070  0.1274E+01  0.1282E+01  0.8795E+01  0.8792E+01
     11.134  0.1037E+01  0.1044E+01  0.8861E+01  0.8859E+01
     11.198  0.8590E+00  0.8639E+00  0.8916E+01  0.8914E+01
     11.262  0.7502E+00  0.7540E+00  0.8964E+01  0.8963E+01
     11.326  0.6209E+00  0.6261E+00  0.9004E+01  0.9003E+01
     11.390  0.4918E+00  0.4950E+00  0.9036E+01  0.9035E+01
     11.454  0.4640E+00  0.4628E+00  0.9065E+01  0.9064E+01
     11.518  0.5382E+00  0.5346E+00  0.9100E+01  0.9099E+01
     11.582  0.6103E+00  0.6087E+00  0.9139E+01  0.9137E+01
     11.646  0.6316E+00  0.6307E+00  0.9179E+01  0.9178E+01
     11.710  0.6905E+00  0.6871E+00  0.9224E+01  0.9222E+01
     11.774  0.8025E+00  0.7984E+00  0.9275E+01  0.9273E+01
     11.838  0.9013E+00  0.8989E+00  0.9333E+01  0.9330E+01
     11.902  0.9141E+00  0.9167E+00  0.9391E+01  0.9389E+01
     11.966  0.8287E+00  0.8324E+00  0.9444E+01  0.9442E+01
     12.030  0.7878E+00  0.7888E+00  0.9495E+01  0.9493E+01
     12.094  0.8012E+00  0.8011E+00  0.9546E+01  0.9544E+01
     12.158  0.8100E+00  0.8100E+00  0.9598E+01  0.9596E+01
     12.221  0.8181E+00  0.8170E+00  0.9650E+01  0.9648E+01
     12.285  0.8854E+00  0.8822E+00  0.9707E+01  0.9705E+01
     12.349  0.9660E+00  0.9652E+00  0.9769E+01  0.9767E+01
     12.413  0.9387E+00  0.9415E+00  0.9829E+01  0.9827E+01
     12.477  0.7752E+00  0.7820E+00  0.9878E+01  0.9877E+01
     12.541  0.5675E+00  0.5725E+00  0.9915E+01  0.9914E+01
     12.605  0.5294E+00  0.5290E+00  0.9949E+01  0.9948E+01
     12.669  0.6931E+00  0.6904E+00  0.9993E+01  0.9992E+01
     12.733  0.9354E+00  0.9312E+00  0.1005E+02  0.1005E+02
     12.797  0.1195E+01  0.1184E+01  0.1013E+02  0.1013E+02
     12.861  0.1296E+01  0.1291E+01  0.1021E+02  0.1021E+02
     12.925  0.1222E+01  0.1226E+01  0.1029E+02  0.1029E+02
     12.989  0.1136E+01  0.1143E+01  0.1036E+02  0.1036E+02
     13.053  0.1009E+01  0.1015E+01  0.1043E+02  0.1043E+02
     13.117  0.9314E+00  0.9303E+00  0.1049E+02  0.1049E+02
     13.181  0.9649E+00  0.9739E+00  0.1055E+02  0.1055E+02
     13.245  0.9676E+00  0.9935E+00  0.1061E+02  0.1061E+02
     13.309  0.8458E+00  0.8714E+00  0.1067E+02  0.1067E+02
     13.373  0.7137E+00  0.7333E+00  0.1071E+02  0.1071E+02
     13.437  0.7634E+00  0.7805E+00  0.1076E+02  0.1076E+02
     13.501  0.9878E+00  0.9930E+00  0.1082E+02  0.1083E+02
     13.565  0.1214E+01  0.1196E+01  0.1090E+02  0.1090E+02
     13.629  0.1324E+01  0.1293E+01  0.1099E+02  0.1099E+02
     13.693  0.1234E+01  0.1211E+01  0.1106E+02  0.1106E+02
     13.757  0.1158E+01  0.1157E+01  0.1114E+02  0.1114E+02
     13.821  0.1250E+01  0.1270E+01  0.1122E+02  0.1122E+02
     13.885  0.1183E+01  0.1215E+01  0.1129E+02  0.1130E+02
     13.949  0.9975E+00  0.1020E+01  0.1136E+02  0.1136E+02
     14.013  0.9987E+00  0.1006E+01  0.1142E+02  0.1143E+02
     14.077  0.1088E+01  0.1091E+01  0.1149E+02  0.1150E+02
     14.141  0.1061E+01  0.1064E+01  0.1156E+02  0.1157E+02
     14.205  0.9034E+00  0.8978E+00  0.1162E+02  0.1162E+02
     14.269  0.6859E+00  0.6634E+00  0.1166E+02  0.1167E+02
     14.333  0.4792E+00  0.4480E+00  0.1169E+02  0.1169E+02
     14.397  0.3775E+00  0.3583E+00  0.1172E+02  0.1172E+02
     14.461  0.4205E+00  0.4223E+00  0.1174E+02  0.1174E+02
     14.525  0.5071E+00  0.5327E+00  0.1178E+02  0.1178E+02
     14.589  0.4688E+00  0.5195E+00  0.1181E+02  0.1181E+02
     14.653  0.3450E+00  0.3993E+00  0.1183E+02  0.1184E+02
     14.716  0.2720E+00  0.3012E+00  0.1185E+02  0.1186E+02
     14.780  0.2936E+00  0.2948E+00  0.1186E+02  0.1188E+02
     14.844  0.3631E+00  0.3275E+00  0.1189E+02  0.1190E+02
     14.908  0.3489E+00  0.2845E+00  0.1191E+02  0.1191E+02
     14.972  0.2342E+00  0.1852E+00  0.1192E+02  0.1193E+02
     15.036  0.1237E+00  0.1001E+00  0.1193E+02  0.1193E+02
     15.100  0.7993E-01  0.7092E-01  0.1194E+02  0.1194E+02
     15.164  0.8595E-01  0.9605E-01  0.1194E+02  0.1194E+02
     15.228  0.1316E+00  0.1464E+00  0.1195E+02  0.1195E+02
     15.292  0.1991E+00  0.1911E+00  0.1196E+02  0.1197E+02
     15.356  0.1971E+00  0.1723E+00  0.1198E+02  0.1198E+02
     15.420  0.1385E+00  0.1279E+00  0.1199E+02  0.1198E+02
     15.484  0.9831E-01  0.1028E+00  0.1199E+02  0.1199E+02
     15.548  0.6861E-01  0.7158E-01  0.1200E+02  0.1200E+02
     15.612  0.3339E-01  0.4080E-01  0.1200E+02  0.1200E+02
     15.676  0.1146E-01  0.1831E-01  0.1200E+02  0.1200E+02
     15.740  0.3302E-02  0.6346E-02  0.1200E+02  0.1200E+02
     15.804  0.9112E-03  0.1896E-02  0.1200E+02  0.1200E+02
     15.868  0.2400E-03  0.4862E-03  0.1200E+02  0.1200E+02
     15.932  0.0000E+00  0.1086E-03  0.1200E+02  0.1200E+02
     15.996  0.0000E+00  0.0000E+00  0.1200E+02  0.1200E+02
     16.060  0.0000E+00  0.0000E+00  0.1200E+02  0.1200E+02
     16.124  0.0000E+00  0.0000E+00  0.1200E+02  0.1200E+02
     16.188  0.0000E+00  0.0000E+00  0.1200E+02  0.1200E+02
     16.252  0.0000E+00  0.0000E+00  0.1200E+02  0.1200E+02
     16.316  0.0000E+00  0.0000E+00  0.1200E+02  0.1200E+02
     16.380  0.0000E+00  0.0000E+00  0.1200E+02  0.1200E+02
     16.444  0.0000E+00  0.0000E+00  0.1200E+02  0.1200E+02
     16.44380841     -2.74853498  301     10.16813715      1.00000000
     -2.749  0.0000E+00  0.0000E+00  0.0000E+00  0.0000E+00  0.0000E+00  0.0000E+00  0.0000E+00  0.0000E+00  0.0000E+00  0.0000E+00  0.0000E+00  0.0000E+00  0.0000E+00  0.0000E+00  0.0000E+00  0.0000E+00  0.0000E+00  0.0000E+00
     -2.685  0.0000E+00  0.0000E+00  0.0000E+00  0.0000E+00  0.0000E+00  0.0000E+00  0.0000E+00  0.0000E+00  0.0000E+00  0.0000E+00  0.0000E+00  0.0000E+00  0.0000E+00  0.0000E+00  0.0000E+00  0.0000E+00  0.0000E+00  0.0000E+00
     -2.621  0.0000E+00  0.0000E+00  0.0000E+00  0.0000E+00  0.0000E+00  0.0000E+00  0.0000E+00  0.0000E+00  0.0000E+00  0.0000E+00  0.0000E+00  0.0000E+00  0.0000E+00  0.0000E+00  0.0000E+00  0.0000E+00  0.0000E+00  0.0000E+00
     -2.557  0.0000E+00  0.0000E+00  0.0000E+00  0.0000E+00  0.0000E+00  0.0000E+00  0.0000E+00  0.0000E+00  0.0000E+00  0.0000E+00  0.0000E+00  0.0000E+00  0.0000E+00  0.0000E+00  0.0000E+00  0.0000E+00  0.0000E+00  0.0000E+00
     -2.493  0.0000E+00  0.0000E+00  0.0000E+00  0.0000E+00  0.0000E+00  0.0000E+00  0.0000E+00  0.0000E+00  0.0000E+00  0.0000E+00  0.0000E+00  0.0000E+00  0.0000E+00  0.0000E+00  0.0000E+00  0.0000E+00  0.0000E+00  0.0000E+00
     -2.429  0.0000E+00  0.0000E+00  0.0000E+00  0.0000E+00  0.0000E+00  0.0000E+00  0.0000E+00  0.0000E+00  0.0000E+00  0.0000E+00  0.0000E+00  0.0000E+00  0.0000E+00  0.0000E+00  0.0000E+00  0.0000E+00  0.0000E+00  0.0000E+00
     -2.365  0.0000E+00  0.0000E+00  0.0000E+00  0.0000E+00  0.0000E+00  0.0000E+00  0.0000E+00  0.0000E+00  0.0000E+00  0.0000E+00  0.0000E+00  0.0000E+00  0.0000E+00  0.0000E+00  0.0000E+00  0.0000E+00  0.0000E+00  0.0000E+00
     -2.301  0.2184E-06  0.2080E-06  0.2955E-21  0.5023E-22  0.2955E-21  0.5023E-22  0.2272E-21  0.1450E-22  0.1784E-13  0.5115E-14  0.8518E-15  0.1538E-14  0.1136E-14  0.7696E-15  0.1784E-13  0.5115E-14  0.1046E-14  0.8585E-15
     -2.237  0.1817E-05  0.1730E-05  0.4700E-08  0.4476E-08  0.4700E-08  0.4476E-08  0.4696E-08  0.4473E-08  0.7301E-13  0.1970E-13  0.1943E-13  0.4704E-14  0.1617E-10  0.1592E-10  0.7301E-13  0.1970E-13  0.2068E-10  0.2033E-10
     -2.173  0.7669E-05  0.7306E-05  0.3030E-07  0.2887E-07  0.3030E-07  0.2887E-07  0.3029E-07  0.2885E-07  0.1401E-09  0.1353E-09  0.1400E-09  0.1355E-09  0.8343E-10  0.8300E-10  0.1401E-09  0.1353E-09  0.8571E-10  0.8497E-10
     -2.109  0.2661E-04  0.2536E-04  0.1082E-06  0.1031E-06  0.1082E-06  0.1031E-06  0.1082E-06  0.1030E-06  0.6355E-09  0.6078E-09  0.6351E-09  0.6078E-09  0.2580E-09  0.2563E-09  0.6355E-09  0.6078E-09  0.2755E-09  0.2727E-09
     -2.045  0.9403E-04  0.8966E-04  0.3870E-06  0.3687E-06  0.3870E-06  0.3687E-06  0.3867E-06  0.3685E-06  0.2009E-08  0.1925E-08  0.2007E-08  0.1925E-08  0.1162E-08  0.1145E-08  0.2009E-08  0.1925E-08  0.1291E-08  0.1268E-08
     -1.981  0.3269E-03  0.3123E-03  0.1436E-05  0.1369E-05  0.1436E-05  0.1369E-05  0.1435E-05  0.1368E-05  0.8246E-08  0.7901E-08  0.8244E-08  0.7902E-08  0.4671E-08  0.4589E-08  0.8246E-08  0.7901E-08  0.5188E-08  0.5079E-08
     -1.917  0.1032E-02  0.9911E-03  0.4916E-05  0.4698E-05  0.4916E-05  0.4698E-05  0.4913E-05  0.4695E-05  0.3038E-07  0.2913E-07  0.3037E-07  0.2913E-07  0.1569E-07  0.1545E-07  0.3038E-07  0.2913E-07  0.1741E-07  0.1709E-07
     -1.853  0.2712E-02  0.2627E-02  0.1503E-04  0.1445E-04  0.1503E-04  0.1445E-04  0.1503E-04  0.1444E-04  0.1003E-06  0.9643E-07  0.1003E-06  0.9644E-07  0.4814E-07  0.4762E-07  0.1003E-06  0.9643E-07  0.5285E-07  0.5209E-07
     -1.789  0.5435E-02  0.5325E-02  0.3748E-04  0.3639E-04  0.3748E-04  0.3639E-04  0.3747E-04  0.3637E-04  0.3003E-06  0.2905E-06  0.3004E-06  0.2905E-06  0.1257E-06  0.1247E-06  0.3003E-06  0.2905E-06  0.1369E-06  0.1352E-06
     -1.725  0.8015E-02  0.7941E-02  0.7170E-04  0.7026E-04  0.7170E-04  0.7026E-04  0.7166E-04  0.7022E-04  0.7070E-06  0.6894E-06  0.7072E-06  0.6892E-06  0.2897E-06  0.2855E-06  0.7070E-06  0.6894E-06  0.3260E-06  0.3193E-06
     -1.661  0.9476E-02  0.9431E-02  0.1155E-03  0.1135E-03  0.1155E-03  0.1135E-03  0.1154E-03  0.1134E-03  0.1337E-05  0.1308E-05  0.1338E-05  0.1307E-05  0.6808E-06  0.6634E-06  0.1337E-05  0.1308E-05  0.8068E-06  0.7838E-06
     -1.597  0.1146E-01  0.1136E-01  0.1889E-03  0.1853E-03  0.1889E-03  0.1853E-03  0.1887E-03  0.1851E-03  0.2557E-05  0.2496E-05  0.2559E-05  0.2494E-05  0.1481E-05  0.1449E-05  0.2557E-05  0.2496E-05  0.1779E-05  0.1739E-05
     -1.533  0.1480E-01  0.1469E-01  0.2929E-03  0.2893E-03  0.2929E-03  0.2893E-03  0.2928E-03  0.2892E-03  0.4884E-05  0.4798E-05  0.4886E-05  0.4793E-05  0.2381E-05  0.2359E-05  0.4884E-05  0.4798E-05  0.2844E-05  0.2818E-05
     -1.469  0.1568E-01  0.1573E-01  0.3503E-03  0.3497E-03  0.3503E-03  0.3497E-03  0.3503E-03  0.3498E-03  0.7262E-05  0.7215E-05  0.7263E-05  0.7208E-05  0.2736E-05  0.2738E-05  0.7262E-05  0.7215E-05  0.3221E-05  0.3226E-05
     -1.405  0.1346E-01  0.1353E-01  0.3550E-03  0.3541E-03  0.3550E-03  0.3541E-03  0.3549E-03  0.3539E-03  0.9166E-05  0.9096E-05  0.9170E-05  0.9095E-05  0.3133E-05  0.3113E-05  0.9166E-05  0.9096E-05  0.3515E-05  0.3500E-05
     -1.341  0.1409E-01  0.1397E-01  0.4594E-03  0.4526E-03  0.4594E-03  0.4526E-03  0.4588E-03  0.4520E-03  0.1369E-04  0.1349E-04  0.1370E-04  0.1349E-04  0.5264E-05  0.5184E-05  0.1369E-04  0.1349E-04  0.5826E-05  0.5735E-05
     -1.277  0.1820E-01  0.1805E-01  0.6740E-03  0.6661E-03  0.6740E-03  0.6661E-03  0.6730E-03  0.6651E-03  0.2006E-04  0.1989E-04  0.2007E-04  0.1989E-04  0.9625E-05  0.9534E-05  0.2006E-04  0.1989E-04  0.1115E-04  0.1103E-04
     -1.213  0.2047E-01  0.2046E-01  0.8277E-03  0.8245E-03  0.8277E-03  0.8245E-03  0.8270E-03  0.8238E-03  0.2396E-04  0.2387E-04  0.2397E-04  0.2387E-04  0.1413E-04  0.1417E-04  0.2396E-04  0.2387E-04  0.1703E-04  0.1707E-04
     -1.149  0.1955E-01  0.1964E-01  0.8660E-03  0.8663E-03  0.8660E-03  0.8663E-03  0.8662E-03  0.8665E-03  0.2867E-04  0.2842E-04  0.2868E-04  0.2842E-04  0.1536E-04  0.1557E-04  0.2867E-04  0.2842E-04  0.1869E-04  0.1896E-04
     -1.085  0.1825E-01  0.1826E-01  0.8995E-03  0.8961E-03  0.8995E-03  0.8961E-03  0.8996E-03  0.8963E-03  0.3926E-04  0.3869E-04  0.3930E-04  0.3872E-04  0.1448E-04  0.1463E-04  0.3926E-04  0.3869E-04  0.1698E-04  0.1720E-04
     -1.021  0.1989E-01  0.1979E-01  0.1087E-02  0.1078E-02  0.1087E-02  0.1078E-02  0.1086E-02  0.1077E-02  0.5738E-04  0.5662E-04  0.5743E-04  0.5665E-04  0.1665E-04  0.1663E-04  0.5738E-04  0.5662E-04  0.1851E-04  0.1850E-04
     -0.957  0.2131E-01  0.2135E-01  0.1246E-02  0.1245E-02  0.1246E-02  0.1245E-02  0.1245E-02  0.1245E-02  0.7023E-04  0.7010E-04  0.7021E-04  0.7007E-04  0.1984E-04  0.1990E-04  0.7023E-04  0.7010E-04  0.2204E-04  0.2205E-04
     -0.893  0.1800E-01  0.1815E-01  0.1140E-02  0.1144E-02  0.1140E-02  0.1144E-02  0.1139E-02  0.1143E-02  0.6286E-04  0.6319E-04  0.6280E-04  0.6313E-04  0.2211E-04  0.2206E-04  0.6286E-04  0.6319E-04  0.2575E-04  0.2560E-04
     -0.829  0.1742E-01  0.1730E-01  0.1260E-02  0.1246E-02  0.1260E-02  0.1246E-02  0.1256E-02  0.1242E-02  0.6602E-04  0.6517E-04  0.6607E-04  0.6523E-04  0.3211E-04  0.3159E-04  0.6602E-04  0.6517E-04  0.3905E-04  0.3837E-04
     -0.765  0.2278E-01  0.2257E-01  0.1787E-02  0.1767E-02  0.1787E-02  0.1767E-02  0.1784E-02  0.1764E-02  0.9866E-04  0.9710E-04  0.9882E-04  0.9728E-04  0.4925E-04  0.4869E-04  0.9866E-04  0.9710E-04  0.5975E-04  0.5910E-04
     -0.701  0.2568E-01  0.2567E-01  0.2111E-02  0.2106E-02  0.2111E-02  0.2106E-02  0.2110E-02  0.2105E-02  0.1301E-03  0.1291E-03  0.1303E-03  0.1293E-03  0.5811E-04  0.5807E-04  0.1301E-03  0.1291E-03  0.6848E-04  0.6851E-04
     -0.637  0.2449E-01  0.2456E-01  0.2131E-02  0.2131E-02  0.2131E-02  0.2131E-02  0.2132E-02  0.2132E-02  0.1512E-03  0.1504E-03  0.1513E-03  0.1506E-03  0.5737E-04  0.5748E-04  0.1512E-03  0.1504E-03  0.6543E-04  0.6557E-04
     -0.573  0.2386E-01  0.2388E-01  0.2226E-02  0.2221E-02  0.2226E-02  0.2221E-02  0.2224E-02  0.2220E-02  0.1746E-03  0.1737E-03  0.1747E-03  0.1739E-03  0.5992E-04  0.5985E-04  0.1746E-03  0.1737E-03  0.6842E-04  0.6828E-04
     -0.509  0.2335E-01  0.2342E-01  0.2293E-02  0.2296E-02  0.2293E-02  0.2296E-02  0.2294E-02  0.2297E-02  0.1996E-03  0.1991E-03  0.1995E-03  0.1991E-03  0.5830E-04  0.5862E-04  0.1996E-03  0.1991E-03  0.6734E-04  0.6769E-04
     -0.445  0.1933E-01  0.1951E-01  0.1988E-02  0.2002E-02  0.1988E-02  0.2002E-02  0.1990E-02  0.2004E-02  0.1967E-03  0.1973E-03  0.1966E-03  0.1973E-03  0.4496E-04  0.4540E-04  0.1967E-03  0.1973E-03  0.5189E-04  0.5240E-04
     -0.381  0.1621E-01  0.1621E-01  0.1838E-02  0.1830E-02  0.1838E-02  0.1830E-02  0.1834E-02  0.1826E-02  0.1944E-03  0.1936E-03  0.1947E-03  0.1939E-03  0.4457E-04  0.4405E-04  0.1944E-03  0.1936E-03  0.5169E-04  0.5107E-04
     -0.318  0.1940E-01  0.1918E-01  0.2461E-02  0.2425E-02  0.2461E-02  0.2425E-02  0.2449E-02  0.2414E-02  0.2518E-03  0.2488E-03  0.2526E-03  0.2495E-03  0.7449E-04  0.7295E-04  0.2518E-03  0.2488E-03  0.8638E-04  0.8459E-04
     -0.254  0.2564E-01  0.2543E-01  0.3493E-02  0.3457E-02  0.3493E-02  0.3457E-02  0.3481E-02  0.3445E-02  0.3402E-03  0.3374E-03  0.3408E-03  0.3379E-03  0.1209E-03  0.1194E-03  0.3402E-03  0.3374E-03  0.1403E-03  0.1385E-03
     -0.190  0.2775E-01  0.2780E-01  0.3976E-02  0.3977E-02  0.3976E-02  0.3977E-02  0.3974E-02  0.3974E-02  0.3826E-03  0.3826E-03  0.3823E-03  0.3823E-03  0.1440E-03  0.1441E-03  0.3826E-03  0.3826E-03  0.1694E-03  0.1693E-03
     -0.126  0.2433E-01  0.2445E-01  0.3690E-02  0.3698E-02  0.3690E-02  0.3698E-02  0.3692E-02  0.3700E-02  0.3813E-03  0.3806E-03  0.3812E-03  0.3804E-03  0.1309E-03  0.1315E-03  0.3813E-03  0.3806E-03  0.1563E-03  0.1570E-03
     -0.062  0.2410E-01  0.2402E-01  0.3894E-02  0.3873E-02  0.3894E-02  0.3873E-02  0.3888E-02  0.3868E-02  0.4602E-03  0.4562E-03  0.4609E-03  0.4568E-03  0.1305E-03  0.1300E-03  0.4602E-03  0.4562E-03  0.1559E-03  0.1553E-03
      0.002  0.2460E-01  0.2469E-01  0.4170E-02  0.4178E-02  0.4170E-02  0.4178E-02  0.4170E-02  0.4177E-02  0.5184E-03  0.5191E-03  0.5186E-03  0.5193E-03  0.1411E-03  0.1412E-03  0.5184E-03  0.5191E-03  0.1680E-03  0.1681E-03
      0.066  0.1919E-01  0.1942E-01  0.3418E-02  0.3451E-02  0.3418E-02  0.3451E-02  0.3427E-02  0.3460E-02  0.4508E-03  0.4534E-03  0.4509E-03  0.4534E-03  0.1192E-03  0.1203E-03  0.4508E-03  0.4534E-03  0.1393E-03  0.1409E-03
      0.130  0.1623E-01  0.1620E-01  0.3113E-02  0.3097E-02  0.3113E-02  0.3097E-02  0.3110E-02  0.3094E-02  0.4920E-03  0.4865E-03  0.4934E-03  0.4878E-03  0.1022E-03  0.1021E-03  0.4920E-03  0.4865E-03  0.1133E-03  0.1133E-03
      0.194  0.2002E-01  0.1982E-01  0.4178E-02  0.4123E-02  0.4178E-02  0.4123E-02  0.4159E-02  0.4105E-02  0.7255E-03  0.7158E-03  0.7273E-03  0.7176E-03  0.1259E-03  0.1246E-03  0.7255E-03  0.7158E-03  0.1366E-03  0.1351E-03
      0.258  0.2414E-01  0.2405E-01  0.5604E-02  0.5556E-02  0.5604E-02  0.5556E-02  0.5575E-02  0.5528E-02  0.9425E-03  0.9375E-03  0.9433E-03  0.9384E-03  0.1604E-03  0.1593E-03  0.9425E-03  0.9375E-03  0.1774E-03  0.1760E-03
      0.322  0.2380E-01  0.2389E-01  0.6467E-02  0.6451E-02  0.6467E-02  0.6451E-02  0.6441E-02  0.6424E-02  0.9775E-03  0.9797E-03  0.9770E-03  0.9792E-03  0.1789E-03  0.1787E-03  0.9775E-03  0.9797E-03  0.2027E-03  0.2024E-03
      0.386  0.1998E-01  0.2013E-01  0.6462E-02  0.6473E-02  0.6462E-02  0.6473E-02  0.6454E-02  0.6464E-02  0.8959E-03  0.8988E-03  0.8953E-03  0.8982E-03  0.1694E-03  0.1701E-03  0.8959E-03  0.8988E-03  0.1962E-03  0.1968E-03
      0.450  0.1684E-01  0.1692E-01  0.6196E-02  0.6197E-02  0.6196E-02  0.6197E-02  0.6192E-02  0.6194E-02  0.8987E-03  0.8963E-03  0.8999E-03  0.8974E-03  0.1543E-03  0.1546E-03  0.8987E-03  0.8963E-03  0.1818E-03  0.1820E-03