   4   4   1   0
  0.1479803E+02  0.3896350E-09  0.3897651E-09  0.3897651E-09  0.5000000E-15
  1.000000000000000E-004
  CAR 
 unknown system                          
     13.77692157     -3.37864986  301      8.46957875      1.00000000
     -3.379  0.0000E+00  0.0000E+00  0.0000E+00  0.0000E+00
     -3.321  0.0000E+00  0.0000E+00  0.0000E+00  0.0000E+00
     -3.264  0.0000E+00  0.0000E+00  0.0000E+00  0.0000E+00
     -3.207  0.0000E+00  0.0000E+00  0.0000E+00  0.0000E+00
     -3.150  0.0000E+00  0.0000E+00  0.0000E+00  0.0000E+00
     -3.093  0.0000E+00  0.0000E+00  0.0000E+00  0.0000E+00
     -3.036  0.1282E-05  0.1220E-05  0.7330E-07  0.6978E-07
     -2.978  0.1021E-04  0.9721E-05  0.6571E-06  0.6257E-06
     -2.921  0.3910E-04  0.3724E-04  0.2893E-05  0.2755E-05
     -2.864  0.1174E-03  0.1118E-03  0.9609E-05  0.9151E-05
     -2.807  0.3641E-03  0.3468E-03  0.3043E-04  0.2898E-04
     -2.750  0.1144E-02  0.1091E-02  0.9585E-04  0.9136E-04
     -2.692  0.3421E-02  0.3268E-02  0.2915E-03  0.2782E-03
     -2.635  0.9414E-02  0.9038E-02  0.8298E-03  0.7951E-03
     -2.578  0.2222E-01  0.2151E-01  0.2100E-02  0.2025E-02
     -2.521  0.4172E-01  0.4083E-01  0.4486E-02  0.4360E-02
     -2.464  0.6084E-01  0.6015E-01  0.7965E-02  0.7800E-02
     -2.407  0.7466E-01  0.7412E-01  0.1223E-01  0.1204E-01
     -2.349  0.9199E-01  0.9107E-01  0.1749E-01  0.1725E-01
     -2.292  0.1154E+00  0.1145E+00  0.2409E-01  0.2380E-01
     -2.235  0.1233E+00  0.1235E+00  0.3115E-01  0.3086E-01
     -2.178  0.1141E+00  0.1144E+00  0.3767E-01  0.3740E-01
     -2.121  0.1224E+00  0.1214E+00  0.4467E-01  0.4435E-01
     -2.063  0.1524E+00  0.1512E+00  0.5339E-01  0.5300E-01
     -2.006  0.1719E+00  0.1716E+00  0.6323E-01  0.6282E-01
     -1.949  0.1700E+00  0.1704E+00  0.7295E-01  0.7257E-01
     -1.892  0.1651E+00  0.1650E+00  0.8240E-01  0.8201E-01
     -1.835  0.1785E+00  0.1777E+00  0.9262E-01  0.9218E-01
     -1.777  0.1899E+00  0.1901E+00  0.1035E+00  0.1031E+00
     -1.720  0.1729E+00  0.1737E+00  0.1134E+00  0.1130E+00
     -1.663  0.1740E+00  0.1730E+00  0.1233E+00  0.1229E+00
     -1.606  0.2171E+00  0.2153E+00  0.1358E+00  0.1352E+00
     -1.549  0.2473E+00  0.2469E+00  0.1499E+00  0.1493E+00
     -1.492  0.2463E+00  0.2465E+00  0.1640E+00  0.1634E+00
     -1.434  0.2441E+00  0.2441E+00  0.1780E+00  0.1774E+00
     -1.377  0.2401E+00  0.2407E+00  0.1917E+00  0.1912E+00
     -1.320  0.2112E+00  0.2126E+00  0.2038E+00  0.2034E+00
     -1.263  0.1891E+00  0.1892E+00  0.2146E+00  0.2142E+00
     -1.206  0.2216E+00  0.2195E+00  0.2273E+00  0.2267E+00
     -1.148  0.2886E+00  0.2863E+00  0.2438E+00  0.2431E+00
     -1.091  0.3247E+00  0.3246E+00  0.2624E+00  0.2617E+00
     -1.034  0.3062E+00  0.3072E+00  0.2799E+00  0.2793E+00
     -0.977  0.3026E+00  0.3020E+00  0.2972E+00  0.2966E+00
     -0.920  0.3139E+00  0.3144E+00  0.3152E+00  0.3145E+00
     -0.862  0.2714E+00  0.2736E+00  0.3307E+00  0.3302E+00
     -0.805  0.2360E+00  0.2360E+00  0.3442E+00  0.3437E+00
     -0.748  0.2798E+00  0.2773E+00  0.3602E+00  0.3596E+00
     -0.691  0.3582E+00  0.3560E+00  0.3807E+00  0.3799E+00
     -0.634  0.4030E+00  0.4029E+00  0.4038E+00  0.4030E+00
     -0.577  0.3912E+00  0.3926E+00  0.4261E+00  0.4254E+00
     -0.519  0.3589E+00  0.3599E+00  0.4467E+00  0.4460E+00
     -0.462  0.3517E+00  0.3518E+00  0.4668E+00  0.4661E+00
     -0.405  0.3511E+00  0.3512E+00  0.4869E+00  0.4862E+00
     -0.348  0.3556E+00  0.3544E+00  0.5072E+00  0.5065E+00
     -0.291  0.3930E+00  0.3913E+00  0.5297E+00  0.5289E+00
     -0.233  0.4241E+00  0.4239E+00  0.5540E+00  0.5532E+00
     -0.176  0.4138E+00  0.4148E+00  0.5777E+00  0.5769E+00
     -0.119  0.3679E+00  0.3699E+00  0.5987E+00  0.5981E+00
     -0.062  0.2949E+00  0.2972E+00  0.6156E+00  0.6151E+00
     -0.005  0.2521E+00  0.2526E+00  0.6300E+00  0.6296E+00
      0.052  0.2608E+00  0.2594E+00  0.6449E+00  0.6444E+00
      0.110  0.3217E+00  0.3184E+00  0.6633E+00  0.6626E+00
      0.167  0.3960E+00  0.3944E+00  0.6860E+00  0.6852E+00
      0.224  0.3815E+00  0.3836E+00  0.7078E+00  0.7071E+00
      0.281  0.3163E+00  0.3180E+00  0.7259E+00  0.7253E+00
      0.338  0.2785E+00  0.2790E+00  0.7419E+00  0.7413E+00
      0.396  0.2479E+00  0.2478E+00  0.7561E+00  0.7555E+00
      0.453  0.2550E+00  0.2518E+00  0.7707E+00  0.7699E+00
      0.510  0.3459E+00  0.3404E+00  0.7904E+00  0.7894E+00
      0.567  0.4596E+00  0.4559E+00  0.8168E+00  0.8155E+00
      0.624  0.4897E+00  0.4905E+00  0.8448E+00  0.8435E+00
      0.682  0.4279E+00  0.4301E+00  0.8692E+00  0.8681E+00
      0.739  0.3641E+00  0.3667E+00  0.8901E+00  0.8891E+00
      0.796  0.3011E+00  0.3043E+00  0.9073E+00  0.9065E+00
      0.853  0.2750E+00  0.2738E+00  0.9230E+00  0.9222E+00
      0.910  0.3500E+00  0.3442E+00  0.9431E+00  0.9419E+00
      0.967  0.4534E+00  0.4496E+00  0.9690E+00  0.9676E+00
      1.025  0.4555E+00  0.4585E+00  0.9951E+00  0.9938E+00
      1.082  0.3654E+00  0.3696E+00  0.1016E+01  0.1015E+01
      1.139  0.3246E+00  0.3241E+00  0.1035E+01  0.1034E+01
      1.196  0.3372E+00  0.3366E+00  0.1054E+01  0.1053E+01
      1.253  0.3453E+00  0.3444E+00  0.1074E+01  0.1072E+01
      1.311  0.4113E+00  0.4057E+00  0.1097E+01  0.1096E+01
      1.368  0.5315E+00  0.5261E+00  0.1128E+01  0.1126E+01
      1.425  0.5494E+00  0.5525E+00  0.1159E+01  0.1157E+01
      1.482  0.4382E+00  0.4449E+00  0.1184E+01  0.1183E+01
      1.539  0.3484E+00  0.3514E+00  0.1204E+01  0.1203E+01
      1.596  0.3164E+00  0.3173E+00  0.1222E+01  0.1221E+01
      1.654  0.3167E+00  0.3158E+00  0.1240E+01  0.1239E+01
      1.711  0.3601E+00  0.3566E+00  0.1261E+01  0.1260E+01
      1.768  0.4616E+00  0.4559E+00  0.1287E+01  0.1286E+01
      1.825  0.5272E+00  0.5277E+00  0.1317E+01  0.1316E+01
      1.882  0.4520E+00  0.4578E+00  0.1343E+01  0.1342E+01
      1.940  0.3840E+00  0.3845E+00  0.1365E+01  0.1364E+01
      1.997  0.4201E+00  0.4166E+00  0.1389E+01  0.1388E+01
      2.054  0.4702E+00  0.4678E+00  0.1416E+01  0.1415E+01
      2.111  0.5097E+00  0.5076E+00  0.1445E+01  0.1444E+01
      2.168  0.5789E+00  0.5759E+00  0.1478E+01  0.1477E+01
      2.226  0.6470E+00  0.6466E+00  0.1516E+01  0.1514E+01
      2.283  0.6255E+00  0.6294E+00  0.1551E+01  0.1550E+01
      2.340  0.5658E+00  0.5662E+00  0.1584E+01  0.1582E+01
      2.397  0.6032E+00  0.5988E+00  0.1618E+01  0.1616E+01
      2.454  0.6587E+00  0.6575E+00  0.1656E+01  0.1654E+01
      2.511  0.6412E+00  0.6433E+00  0.1693E+01  0.1691E+01
      2.569  0.5828E+00  0.5861E+00  0.1726E+01  0.1724E+01
      2.626  0.5075E+00  0.5109E+00  0.1755E+01  0.1754E+01
      2.683  0.4510E+00  0.4519E+00  0.1781E+01  0.1779E+01
      2.740  0.4829E+00  0.4784E+00  0.1808E+01  0.1807E+01
      2.797  0.6094E+00  0.6007E+00  0.1843E+01  0.1841E+01
      2.855  0.7057E+00  0.7020E+00  0.1884E+01  0.1881E+01
      2.912  0.6673E+00  0.6712E+00  0.1922E+01  0.1920E+01
      2.969  0.5838E+00  0.5865E+00  0.1955E+01  0.1953E+01
      3.026  0.5399E+00  0.5390E+00  0.1986E+01  0.1984E+01
      3.083  0.5542E+00  0.5495E+00  0.2018E+01  0.2016E+01
      3.140  0.6479E+00  0.6391E+00  0.2055E+01  0.2052E+01
      3.198  0.7239E+00  0.7211E+00  0.2096E+01  0.2093E+01
      3.255  0.6819E+00  0.6857E+00  0.2135E+01  0.2133E+01
      3.312  0.6284E+00  0.6296E+00  0.2171E+01  0.2169E+01
      3.369  0.6086E+00  0.6085E+00  0.2206E+01  0.2203E+01
      3.426  0.5798E+00  0.5781E+00  0.2239E+01  0.2237E+01
      3.484  0.5844E+00  0.5783E+00  0.2273E+01  0.2270E+01
      3.541  0.6247E+00  0.6215E+00  0.2308E+01  0.2305E+01
      3.598  0.6227E+00  0.6251E+00  0.2344E+01  0.2341E+01
      3.655  0.6054E+00  0.6054E+00  0.2379E+01  0.2376E+01
      3.712  0.5769E+00  0.5816E+00  0.2412E+01  0.2409E+01
      3.770  0.4876E+00  0.4949E+00  0.2440E+01  0.2437E+01
      3.827  0.4596E+00  0.4554E+00  0.2466E+01  0.2463E+01
      3.884  0.5278E+00  0.5189E+00  0.2496E+01  0.2493E+01
      3.941  0.5802E+00  0.5748E+00  0.2529E+01  0.2526E+01
      3.998  0.6126E+00  0.6074E+00  0.2564E+01  0.2561E+01
      4.055  0.6352E+00  0.6323E+00  0.2601E+01  0.2597E+01
      4.113  0.6218E+00  0.6228E+00  0.2636E+01  0.2632E+01
      4.170  0.6230E+00  0.6196E+00  0.2672E+01  0.2668E+01
      4.227  0.6760E+00  0.6686E+00  0.2711E+01  0.2706E+01
      4.284  0.7479E+00  0.7385E+00  0.2753E+01  0.2748E+01
      4.341  0.8211E+00  0.8132E+00  0.2800E+01  0.2795E+01
      4.399  0.8182E+00  0.8216E+00  0.2847E+01  0.2842E+01
      4.456  0.7291E+00  0.7377E+00  0.2889E+01  0.2884E+01
      4.513  0.6347E+00  0.6424E+00  0.2925E+01  0.2921E+01
      4.570  0.6042E+00  0.6026E+00  0.2960E+01  0.2955E+01
      4.627  0.6459E+00  0.6392E+00  0.2997E+01  0.2992E+01
      4.684  0.6975E+00  0.6872E+00  0.3037E+01  0.3031E+01
      4.742  0.7811E+00  0.7641E+00  0.3081E+01  0.3075E+01
      4.799  0.9004E+00  0.8841E+00  0.3133E+01  0.3126E+01
      4.856  0.9561E+00  0.9539E+00  0.3188E+01  0.3180E+01
      4.913  0.8763E+00  0.8909E+00  0.3238E+01  0.3231E+01
      4.970  0.7625E+00  0.7687E+00  0.3281E+01  0.3275E+01
      5.028  0.8212E+00  0.7954E+00  0.3328E+01  0.3321E+01
      5.085  0.1006E+01  0.9763E+00  0.3386E+01  0.3376E+01
      5.142  0.1124E+01  0.1113E+01  0.3450E+01  0.3440E+01
      5.199  0.1070E+01  0.1085E+01  0.3511E+01  0.3502E+01
      5.256  0.9237E+00  0.9353E+00  0.3564E+01  0.3556E+01
      5.314  0.8870E+00  0.8753E+00  0.3615E+01  0.3606E+01
      5.371  0.9346E+00  0.9144E+00  0.3668E+01  0.3658E+01
      5.428  0.9999E+00  0.9834E+00  0.3726E+01  0.3714E+01
      5.485  0.1048E+01  0.1040E+01  0.3786E+01  0.3774E+01
      5.542  0.1087E+01  0.1076E+01  0.3848E+01  0.3835E+01
      5.599  0.1130E+01  0.1113E+01  0.3913E+01  0.3899E+01
      5.657  0.1168E+01  0.1146E+01  0.3979E+01  0.3965E+01
      5.714  0.1229E+01  0.1194E+01  0.4050E+01  0.4033E+01
      5.771  0.1343E+01  0.1297E+01  0.4126E+01  0.4107E+01
      5.828  0.1405E+01  0.1399E+01  0.4207E+01  0.4187E+01
      5.885  0.1232E+01  0.1290E+01  0.4277E+01  0.4261E+01
      5.943  0.9810E+00  0.1018E+01  0.4333E+01  0.4319E+01
      6.000  0.9570E+00  0.9115E+00  0.4388E+01  0.4371E+01
      6.057  0.1201E+01  0.1098E+01  0.4457E+01  0.4434E+01
      6.114  0.1589E+01  0.1470E+01  0.4548E+01  0.4518E+01
      6.171  0.1950E+01  0.1870E+01  0.4659E+01  0.4625E+01
      6.228  0.2041E+01  0.2062E+01  0.4776E+01  0.4743E+01
      6.286  0.1755E+01  0.1869E+01  0.4877E+01  0.4850E+01
      6.343  0.1364E+01  0.1446E+01  0.4955E+01  0.4933E+01
      6.400  0.1161E+01  0.1179E+01  0.5021E+01  0.5000E+01
      6.457  0.1023E+01  0.1052E+01  0.5080E+01  0.5061E+01
      6.514  0.9549E+00  0.9481E+00  0.5134E+01  0.5115E+01
      6.572  0.1061E+01  0.9992E+00  0.5195E+01  0.5172E+01
      6.629  0.1125E+01  0.1112E+01  0.5259E+01  0.5236E+01
      6.686  0.1013E+01  0.1058E+01  0.5317E+01  0.5296E+01
      6.743  0.8807E+00  0.9182E+00  0.5368E+01  0.5349E+01
      6.800  0.8105E+00  0.8240E+00  0.5414E+01  0.5396E+01
      6.858  0.7807E+00  0.7833E+00  0.5459E+01  0.5441E+01
      6.915  0.7775E+00  0.7623E+00  0.5503E+01  0.5485E+01
      6.972  0.8294E+00  0.7939E+00  0.5551E+01  0.5530E+01
      7.029  0.8823E+00  0.8582E+00  0.5601E+01  0.5579E+01
      7.086  0.8664E+00  0.8754E+00  0.5651E+01  0.5629E+01
      7.143  0.8209E+00  0.8292E+00  0.5698E+01  0.5677E+01
      7.201  0.8480E+00  0.8226E+00  0.5746E+01  0.5724E+01
      7.258  0.8303E+00  0.8532E+00  0.5794E+01  0.5773E+01
      7.315  0.6933E+00  0.7589E+00  0.5834E+01  0.5816E+01
      7.372  0.6226E+00  0.6309E+00  0.5869E+01  0.5852E+01
      7.429  0.7239E+00  0.6496E+00  0.5911E+01  0.5889E+01
      7.487  0.8734E+00  0.8057E+00  0.5961E+01  0.5935E+01
      7.544  0.8349E+00  0.8864E+00  0.6008E+01  0.5986E+01
      7.601  0.6428E+00  0.7423E+00  0.6045E+01  0.6029E+01
      7.658  0.5676E+00  0.5840E+00  0.6078E+01  0.6062E+01
      7.715  0.6362E+00  0.5879E+00  0.6114E+01  0.6096E+01
      7.772  0.6907E+00  0.6526E+00  0.6154E+01  0.6133E+01
      7.830  0.7128E+00  0.6882E+00  0.6194E+01  0.6172E+01
      7.887  0.7521E+00  0.7213E+00  0.6237E+01  0.6214E+01
      7.944  0.8602E+00  0.7846E+00  0.6287E+01  0.6259E+01
      8.001  0.1020E+01  0.9187E+00  0.6345E+01  0.6311E+01
      8.058  0.1174E+01  0.1086E+01  0.6412E+01  0.6373E+01
      8.116  0.1292E+01  0.1235E+01  0.6486E+01  0.6444E+01
      8.173  0.1339E+01  0.1324E+01  0.6563E+01  0.6520E+01
      8.230  0.1370E+01  0.1349E+01  0.6641E+01  0.6597E+01
      8.287  0.1454E+01  0.1384E+01  0.6724E+01  0.6676E+01
      8.344  0.1614E+01  0.1508E+01  0.6817E+01  0.6762E+01
      8.402  0.1716E+01  0.1667E+01  0.6915E+01  0.6858E+01
      8.459  0.1661E+01  0.1704E+01  0.7010E+01  0.6955E+01
      8.516  0.1523E+01  0.1594E+01  0.7097E+01  0.7046E+01
      8.573  0.1558E+01  0.1492E+01  0.7186E+01  0.7132E+01
      8.630  0.1830E+01  0.1607E+01  0.7291E+01  0.7224E+01
      8.687  0.2274E+01  0.1920E+01  0.7421E+01  0.7333E+01
      8.745  0.2834E+01  0.2399E+01  0.7583E+01  0.7471E+01
      8.802  0.3378E+01  0.2954E+01  0.7776E+01  0.7640E+01
      8.859  0.3704E+01  0.3446E+01  0.7988E+01  0.7837E+01
      8.916  0.3610E+01  0.3713E+01  0.8195E+01  0.8049E+01
      8.973  0.3104E+01  0.3542E+01  0.8372E+01  0.8252E+01
      9.031  0.2490E+01  0.2980E+01  0.8515E+01  0.8422E+01
      9.088  0.1978E+01  0.2375E+01  0.8628E+01  0.8558E+01
      9.145  0.1603E+01  0.1897E+01  0.8720E+01  0.8667E+01
      9.202  0.1338E+01  0.1553E+01  0.8796E+01  0.8756E+01
      9.259  0.1094E+01  0.1263E+01  0.8859E+01  0.8828E+01
      9.316  0.9125E+00  0.1015E+01  0.8911E+01  0.8886E+01
      9.374  0.8110E+00  0.8669E+00  0.8958E+01  0.8936E+01
      9.431  0.7765E+00  0.7990E+00  0.9002E+01  0.8982E+01
      9.488  0.7742E+00  0.7813E+00  0.9047E+01  0.9026E+01
      9.545  0.7365E+00  0.7586E+00  0.9089E+01  0.9070E+01
      9.602  0.6724E+00  0.7025E+00  0.9127E+01  0.9110E+01
      9.660  0.6492E+00  0.6587E+00  0.9164E+01  0.9148E+01
      9.717  0.6956E+00  0.6730E+00  0.9204E+01  0.9186E+01
      9.774  0.7922E+00  0.7537E+00  0.9250E+01  0.9229E+01
      9.831  0.8510E+00  0.8368E+00  0.9298E+01  0.9277E+01
      9.888  0.8654E+00  0.8700E+00  0.9348E+01  0.9327E+01
      9.946  0.9372E+00  0.9150E+00  0.9401E+01  0.9379E+01
     10.003  0.1037E+01  0.1003E+01  0.9461E+01  0.9437E+01
     10.060  0.1044E+01  0.1042E+01  0.9520E+01  0.9496E+01
     10.117  0.9801E+00  0.1001E+01  0.9577E+01  0.9554E+01
     10.174  0.9606E+00  0.9494E+00  0.9631E+01  0.9608E+01
     10.231  0.1046E+01  0.9957E+00  0.9691E+01  0.9665E+01
     10.289  0.1171E+01  0.1127E+01  0.9758E+01  0.9729E+01
     10.346  0.1284E+01  0.1239E+01  0.9832E+01  0.9800E+01
     10.403  0.1450E+01  0.1336E+01  0.9915E+01  0.9877E+01
     10.460  0.1661E+01  0.1525E+01  0.1001E+02  0.9964E+01
     10.517  0.1699E+01  0.1695E+01  0.1011E+02  0.1006E+02
     10.575  0.1537E+01  0.1648E+01  0.1019E+02  0.1016E+02
     10.632  0.1330E+01  0.1443E+01  0.1027E+02  0.1024E+02
     10.689  0.1163E+01  0.1250E+01  0.1034E+02  0.1031E+02
     10.746  0.1047E+01  0.1106E+01  0.1040E+02  0.1037E+02
     10.803  0.9808E+00  0.9976E+00  0.1045E+02  0.1043E+02
     10.860  0.9769E+00  0.9720E+00  0.1051E+02  0.1049E+02
     10.918  0.1031E+01  0.1038E+01  0.1057E+02  0.1054E+02
     10.975  0.1109E+01  0.1120E+01  0.1063E+02  0.1061E+02
     11.032  0.1124E+01  0.1140E+01  0.1070E+02  0.1067E+02
     11.089  0.1058E+01  0.1066E+01  0.1076E+02  0.1074E+02
     11.146  0.9960E+00  0.1002E+01  0.1081E+02  0.1079E+02
     11.204  0.9040E+00  0.9547E+00  0.1087E+02  0.1085E+02
     11.261  0.8326E+00  0.8787E+00  0.1091E+02  0.1090E+02
     11.318  0.9363E+00  0.9162E+00  0.1097E+02  0.1095E+02
     11.375  0.1141E+01  0.1115E+01  0.1103E+02  0.1101E+02
     11.432  0.1277E+01  0.1278E+01  0.1111E+02  0.1109E+02
     11.490  0.1317E+01  0.1321E+01  0.1118E+02  0.1116E+02
     11.547  0.1267E+01  0.1280E+01  0.1125E+02  0.1124E+02
     11.604  0.1186E+01  0.1199E+01  0.1132E+02  0.1130E+02
     11.661  0.1142E+01  0.1154E+01  0.1139E+02  0.1137E+02
     11.718  0.1084E+01  0.1113E+01  0.1145E+02  0.1143E+02
     11.775  0.9836E+00  0.1013E+01  0.1150E+02  0.1149E+02
     11.833  0.8955E+00  0.9112E+00  0.1156E+02  0.1154E+02
     11.890  0.8224E+00  0.8275E+00  0.1160E+02  0.1159E+02
     11.947  0.7337E+00  0.7347E+00  0.1164E+02  0.1163E+02
     12.004  0.6666E+00  0.6626E+00  0.1168E+02  0.1167E+02
     12.061  0.6396E+00  0.6356E+00  0.1172E+02  0.1171E+02
     12.119  0.6237E+00  0.6132E+00  0.1176E+02  0.1174E+02
     12.176  0.6147E+00  0.6070E+00  0.1179E+02  0.1178E+02
     12.233  0.5675E+00  0.5804E+00  0.1182E+02  0.1181E+02
     12.290  0.4409E+00  0.4659E+00  0.1185E+02  0.1184E+02
     12.347  0.3529E+00  0.3713E+00  0.1187E+02  0.1186E+02
     12.404  0.3676E+00  0.3782E+00  0.1189E+02  0.1188E+02
     12.462  0.4040E+00  0.4211E+00  0.1191E+02  0.1190E+02
     12.519  0.3852E+00  0.4245E+00  0.1193E+02  0.1193E+02
     12.576  0.3039E+00  0.3652E+00  0.1195E+02  0.1195E+02
     12.633  0.2286E+00  0.2756E+00  0.1197E+02  0.1197E+02
     12.690  0.1937E+00  0.2069E+00  0.1198E+02  0.1198E+02
     12.748  0.1573E+00  0.1582E+00  0.1199E+02  0.1199E+02
     12.805  0.1071E+00  0.1050E+00  0.1199E+02  0.1199E+02
     12.862  0.6258E-01  0.5466E-01  0.1199E+02  0.1200E+02
     12.919  0.3396E-01  0.2598E-01  0.1200E+02  0.1200E+02
     12.976  0.2226E-01  0.1770E-01  0.1200E+02  0.1200E+02
     13.034  0.1643E-01  0.1546E-01  0.1200E+02  0.1200E+02
     13.091  0.9049E-02  0.9813E-02  0.1200E+02  0.1200E+02
     13.148  0.3664E-02  0.4222E-02  0.1200E+02  0.1200E+02
     13.205  0.1265E-02  0.1497E-02  0.1200E+02  0.1200E+02
     13.262  0.3958E-03  0.4977E-03  0.1200E+02  0.1200E+02
     13.319  0.1275E-03  0.1608E-03  0.1200E+02  0.1200E+02
     13.377  0.4078E-04  0.5147E-04  0.1200E+02  0.1200E+02
     13.434  0.0000E+00  0.0000E+00  0.1200E+02  0.1200E+02
     13.491  0.0000E+00  0.0000E+00  0.1200E+02  0.1200E+02
     13.548  0.0000E+00  0.0000E+00  0.1200E+02  0.1200E+02
     13.605  0.0000E+00  0.0000E+00  0.1200E+02  0.1200E+02
     13.663  0.0000E+00  0.0000E+00  0.1200E+02  0.1200E+02
     13.720  0.0000E+00  0.0000E+00  0.1200E+02  0.1200E+02
     13.777  0.0000E+00  0.0000E+00  0.1200E+02  0.1200E+02
     13.77692157     -3.37864986  301      8.46957875      1.00000000
     -3.379  0.0000E+00  0.0000E+00  0.0000E+00  0.0000E+00  0.0000E+00  0.0000E+00  0.0000E+00  0.0000E+00  0.0000E+00  0.0000E+00  0.0000E+00  0.0000E+00  0.0000E+00  0.0000E+00  0.0000E+00  0.0000E+00  0.0000E+00  0.0000E+00
     -3.321  0.0000E+00  0.0000E+00  0.0000E+00  0.0000E+00  0.0000E+00  0.0000E+00  0.0000E+00  0.0000E+00  0.0000E+00  0.0000E+00  0.0000E+00  0.0000E+00  0.0000E+00  0.0000E+00  0.0000E+00  0.0000E+00  0.0000E+00  0.0000E+00
     -3.264  0.0000E+00  0.0000E+00  0.0000E+00  0.0000E+00  0.0000E+00  0.0000E+00  0.0000E+00  0.0000E+00  0.0000E+00  0.0000E+00  0.0000E+00  0.0000E+00  0.0000E+00  0.0000E+00  0.0000E+00  0.0000E+00  0.0000E+00  0.0000E+00
     -3.207  0.0000E+00  0.0000E+00  0.0000E+00  0.0000E+00  0.0000E+00  0.0000E+00  0.0000E+00  0.0000E+00  0.0000E+00  0.0000E+00  0.0000E+00  0.0000E+00  0.0000E+00  0.0000E+00  0.0000E+00  0.0000E+00  0.0000E+00  0.0000E+00
     -3.150  0.0000E+00  0.0000E+00  0.0000E+00  0.0000E+00  0.0000E+00  0.0000E+00  0.0000E+00  0.0000E+00  0.0000E+00  0.0000E+00  0.0000E+00  0.0000E+00  0.0000E+00  0.0000E+00  0.0000E+00  0.0000E+00  0.0000E+00  0.0000E+00
     -3.093  0.0000E+00  0.0000E+00  0.0000E+00  0.0000E+00  0.0000E+00  0.0000E+00  0.0000E+00  0.0000E+00  0.0000E+00  0.0000E+00  0.0000E+00  0.0000E+00  0.0000E+00  0.0000E+00  0.0000E+00  0.0000E+00  0.0000E+00  0.0000E+00
     -3.036  0.1524E-06  0.1446E-06  0.6768E-21  0.2864E-21  0.6768E-21  0.2864E-21  0.9367E-21  0.1577E-20  0.4423E-14  0.2193E-15  0.4078E-14  0.8658E-15  0.1760E-15  0.3294E-15  0.4423E-14  0.2193E-15  0.2271E-15  0.4989E-15
     -2.978  0.1202E-05  0.1141E-05  0.3096E-08  0.2944E-08  0.3096E-08  0.2944E-08  0.3094E-08  0.2942E-08  0.2506E-13  0.5562E-14  0.4341E-13  0.6279E-14  0.9996E-11  0.9373E-11  0.2506E-13  0.5562E-14  0.1281E-10  0.1200E-10
     -2.921  0.4577E-05  0.4345E-05  0.1858E-07  0.1767E-07  0.1858E-07  0.1767E-07  0.1857E-07  0.1766E-07  0.9041E-10  0.8656E-10  0.9046E-10  0.8656E-10  0.4602E-10  0.4344E-10  0.9041E-10  0.8656E-10  0.4645E-10  0.4377E-10
     -2.864  0.1374E-04  0.1304E-04  0.5791E-07  0.5507E-07  0.5791E-07  0.5507E-07  0.5789E-07  0.5505E-07  0.3700E-09  0.3541E-09  0.3696E-09  0.3540E-09  0.1197E-09  0.1128E-09  0.3700E-09  0.3541E-09  0.1266E-09  0.1191E-09
     -2.807  0.4259E-04  0.4044E-04  0.1812E-06  0.1724E-06  0.1812E-06  0.1724E-06  0.1811E-06  0.1723E-06  0.9835E-09  0.9414E-09  0.9828E-09  0.9410E-09  0.5189E-09  0.4897E-09  0.9835E-09  0.9414E-09  0.5814E-09  0.5482E-09
     -2.750  0.1337E-03  0.1270E-03  0.6090E-06  0.5795E-06  0.6090E-06  0.5795E-06  0.6087E-06  0.5792E-06  0.3774E-08  0.3610E-08  0.3773E-08  0.3609E-08  0.1956E-08  0.1849E-08  0.3774E-08  0.3610E-08  0.2189E-08  0.2068E-08
     -2.692  0.3994E-03  0.3804E-03  0.1884E-05  0.1794E-05  0.1884E-05  0.1794E-05  0.1883E-05  0.1793E-05  0.1260E-07  0.1205E-07  0.1259E-07  0.1204E-07  0.5859E-08  0.5545E-08  0.1260E-07  0.1205E-07  0.6579E-08  0.6221E-08
     -2.635  0.1098E-02  0.1051E-02  0.5517E-05  0.5267E-05  0.5517E-05  0.5267E-05  0.5514E-05  0.5265E-05  0.3710E-07  0.3552E-07  0.3708E-07  0.3552E-07  0.1715E-07  0.1627E-07  0.3710E-07  0.3552E-07  0.1916E-07  0.1816E-07
     -2.578  0.2584E-02  0.2495E-02  0.1490E-04  0.1431E-04  0.1490E-04  0.1431E-04  0.1490E-04  0.1430E-04  0.1100E-06  0.1056E-06  0.1099E-06  0.1056E-06  0.4740E-07  0.4521E-07  0.1100E-06  0.1056E-06  0.5261E-07  0.5015E-07
     -2.521  0.4829E-02  0.4713E-02  0.3387E-04  0.3281E-04  0.3387E-04  0.3281E-04  0.3386E-04  0.3279E-04  0.2916E-06  0.2817E-06  0.2914E-06  0.2816E-06  0.1158E-06  0.1111E-06  0.2916E-06  0.2817E-06  0.1289E-06  0.1236E-06
     -2.464  0.6992E-02  0.6894E-02  0.6253E-04  0.6106E-04  0.6253E-04  0.6106E-04  0.6250E-04  0.6103E-04  0.6384E-06  0.6214E-06  0.6379E-06  0.6212E-06  0.2599E-06  0.2502E-06  0.6384E-06  0.6214E-06  0.2979E-06  0.2862E-06
     -2.407  0.8485E-02  0.8402E-02  0.1013E-03  0.9923E-04  0.1013E-03  0.9923E-04  0.1012E-03  0.9915E-04  0.1210E-05  0.1181E-05  0.1210E-05  0.1181E-05  0.5720E-06  0.5515E-06  0.1210E-05  0.1181E-05  0.6787E-06  0.6535E-06
     -2.349  0.1031E-01  0.1018E-01  0.1616E-03  0.1583E-03  0.1616E-03  0.1583E-03  0.1615E-03  0.1582E-03  0.2264E-05  0.2203E-05  0.2265E-05  0.2203E-05  0.1136E-05  0.1105E-05  0.2264E-05  0.2203E-05  0.1361E-05  0.1323E-05
     -2.292  0.1279E-01  0.1266E-01  0.2392E-03  0.2359E-03  0.2392E-03  0.2359E-03  0.2392E-03  0.2358E-03  0.4054E-05  0.3963E-05  0.4055E-05  0.3962E-05  0.1757E-05  0.1730E-05  0.4054E-05  0.3963E-05  0.2092E-05  0.2060E-05
     -2.235  0.1354E-01  0.1353E-01  0.2880E-03  0.2865E-03  0.2880E-03  0.2865E-03  0.2880E-03  0.2865E-03  0.5975E-05  0.5889E-05  0.5976E-05  0.5888E-05  0.2115E-05  0.2099E-05  0.5975E-05  0.5889E-05  0.2478E-05  0.2460E-05
     -2.178  0.1235E-01  0.1235E-01  0.3103E-03  0.3083E-03  0.3103E-03  0.3083E-03  0.3101E-03  0.3082E-03  0.7857E-05  0.7738E-05  0.7860E-05  0.7740E-05  0.2614E-05  0.2570E-05  0.7857E-05  0.7738E-05  0.2954E-05  0.2906E-05
     -2.121  0.1298E-01  0.1285E-01  0.3975E-03  0.3915E-03  0.3975E-03  0.3915E-03  0.3970E-03  0.3910E-03  0.1143E-04  0.1121E-04  0.1144E-04  0.1122E-04  0.4253E-05  0.4138E-05  0.1143E-04  0.1121E-04  0.4781E-05  0.4642E-05
     -2.063  0.1592E-01  0.1575E-01  0.5552E-03  0.5480E-03  0.5552E-03  0.5480E-03  0.5545E-03  0.5473E-03  0.1620E-04  0.1597E-04  0.1620E-04  0.1597E-04  0.7272E-05  0.7085E-05  0.1620E-04  0.1597E-04  0.8468E-05  0.8230E-05
     -2.006  0.1775E-01  0.1766E-01  0.6771E-03  0.6728E-03  0.6771E-03  0.6728E-03  0.6766E-03  0.6723E-03  0.1981E-04  0.1960E-04  0.1981E-04  0.1960E-04  0.1032E-04  0.1013E-04  0.1981E-04  0.1960E-04  0.1240E-04  0.1215E-04
     -1.949  0.1732E-01  0.1731E-01  0.7234E-03  0.7213E-03  0.7234E-03  0.7213E-03  0.7235E-03  0.7214E-03  0.2420E-04  0.2384E-04  0.2421E-04  0.2386E-04  0.1143E-04  0.1131E-04  0.2420E-04  0.2384E-04  0.1383E-04  0.1367E-04
     -1.892  0.1654E-01  0.1649E-01  0.7668E-03  0.7624E-03  0.7668E-03  0.7624E-03  0.7668E-03  0.7625E-03  0.3268E-04  0.3206E-04  0.3271E-04  0.3209E-04  0.1133E-04  0.1119E-04  0.3268E-04  0.3206E-04  0.1329E-04  0.1314E-04
     -1.835  0.1756E-01  0.1744E-01  0.8998E-03  0.8919E-03  0.8998E-03  0.8919E-03  0.8994E-03  0.8915E-03  0.4575E-04  0.4494E-04  0.4578E-04  0.4497E-04  0.1282E-04  0.1257E-04  0.4575E-04  0.4494E-04  0.1440E-04  0.1414E-04
     -1.777  0.1844E-01  0.1840E-01  0.1015E-02  0.1012E-02  0.1015E-02  0.1012E-02  0.1014E-02  0.1011E-02  0.5514E-04  0.5467E-04  0.5512E-04  0.5465E-04  0.1519E-04  0.1492E-04  0.5514E-04  0.5467E-04  0.1704E-04  0.1674E-04
     -1.720  0.1649E-01  0.1653E-01  0.9878E-03  0.9876E-03  0.9878E-03  0.9876E-03  0.9867E-03  0.9866E-03  0.5301E-04  0.5284E-04  0.5298E-04  0.5280E-04  0.1775E-04  0.1741E-04  0.5301E-04  0.5284E-04  0.2072E-04  0.2029E-04
     -1.663  0.1615E-01  0.1601E-01  0.1094E-02  0.1083E-02  0.1094E-02  0.1083E-02  0.1092E-02  0.1080E-02  0.5693E-04  0.5603E-04  0.5696E-04  0.5606E-04  0.2487E-04  0.2422E-04  0.5693E-04  0.5603E-04  0.3008E-04  0.2928E-04
     -1.606  0.1974E-01  0.1951E-01  0.1456E-02  0.1439E-02  0.1456E-02  0.1439E-02  0.1453E-02  0.1436E-02  0.7939E-04  0.7782E-04  0.7950E-04  0.7791E-04  0.3606E-04  0.3526E-04  0.7939E-04  0.7782E-04  0.4358E-04  0.4265E-04
     -1.549  0.2217E-01  0.2207E-01  0.1719E-02  0.1711E-02  0.1719E-02  0.1711E-02  0.1719E-02  0.1711E-02  0.1039E-03  0.1024E-03  0.1040E-03  0.1025E-03  0.4283E-04  0.4223E-04  0.1039E-03  0.1024E-03  0.5054E-04  0.4990E-04
     -1.492  0.2174E-01  0.2170E-01  0.1781E-02  0.1776E-02  0.1781E-02  0.1776E-02  0.1781E-02  0.1777E-02  0.1221E-03  0.1206E-03  0.1222E-03  0.1207E-03  0.4364E-04  0.4313E-04  0.1221E-03  0.1206E-03  0.5009E-04  0.4955E-04
     -1.434  0.2114E-01  0.2108E-01  0.1847E-02  0.1841E-02  0.1847E-02  0.1841E-02  0.1847E-02  0.1840E-02  0.1405E-03  0.1388E-03  0.1406E-03  0.1389E-03  0.4498E-04  0.4440E-04  0.1405E-03  0.1388E-03  0.5145E-04  0.5079E-04
     -1.377  0.2044E-01  0.2043E-01  0.1884E-02  0.1884E-02  0.1884E-02  0.1884E-02  0.1885E-02  0.1885E-02  0.1584E-03  0.1569E-03  0.1583E-03  0.1569E-03  0.4396E-04  0.4365E-04  0.1584E-03  0.1569E-03  0.5074E-04  0.5039E-04
     -1.320  0.1768E-01  0.1775E-01  0.1714E-02  0.1720E-02  0.1714E-02  0.1720E-02  0.1716E-02  0.1722E-02  0.1612E-03  0.1604E-03  0.1611E-03  0.1603E-03  0.3689E-04  0.3675E-04  0.1612E-03  0.1604E-03  0.4267E-04  0.4253E-04
     -1.263  0.1534E-01  0.1531E-01  0.1631E-02  0.1624E-02  0.1631E-02  0.1624E-02  0.1627E-02  0.1621E-02  0.1633E-03  0.1618E-03  0.1635E-03  0.1620E-03  0.3702E-04  0.3635E-04  0.1633E-03  0.1618E-03  0.4300E-04  0.4224E-04
     -1.206  0.1724E-01  0.1703E-01  0.2050E-02  0.2023E-02  0.2050E-02  0.2023E-02  0.2042E-02  0.2015E-02  0.2011E-03  0.1979E-03  0.2015E-03  0.1983E-03  0.5605E-04  0.5454E-04  0.2011E-03  0.1979E-03  0.6524E-04  0.6351E-04
     -1.148  0.2179E-01  0.2155E-01  0.2795E-02  0.2765E-02  0.2795E-02  0.2765E-02  0.2786E-02  0.2756E-02  0.2636E-03  0.2599E-03  0.2640E-03  0.2603E-03  0.8652E-04  0.8466E-04  0.2636E-03  0.2599E-03  0.1008E-03  0.9861E-04
     -1.091  0.2399E-01  0.2391E-01  0.3241E-02  0.3232E-02  0.3241E-02  0.3232E-02  0.3238E-02  0.3229E-02  0.3041E-03  0.3018E-03  0.3040E-03  0.3017E-03  0.1050E-03  0.1038E-03  0.3041E-03  0.3018E-03  0.1234E-03  0.1220E-03
     -1.034  0.2209E-01  0.2210E-01  0.3146E-02  0.3148E-02  0.3146E-02  0.3148E-02  0.3148E-02  0.3149E-02  0.3138E-03  0.3116E-03  0.3137E-03  0.3114E-03  0.1009E-03  0.1002E-03  0.3138E-03  0.3116E-03  0.1200E-03  0.1192E-03
     -0.977  0.2121E-01  0.2110E-01  0.3211E-02  0.3197E-02  0.3211E-02  0.3197E-02  0.3209E-02  0.3194E-02  0.3597E-03  0.3553E-03  0.3600E-03  0.3556E-03  0.9869E-04  0.9750E-04  0.3597E-03  0.3553E-03  0.1179E-03  0.1164E-03
     -0.920  0.2146E-01  0.2143E-01  0.3417E-02  0.3414E-02  0.3417E-02  0.3414E-02  0.3416E-02  0.3412E-02  0.4092E-03  0.4067E-03  0.4095E-03  0.4068E-03  0.1045E-03  0.1033E-03  0.4092E-03  0.4067E-03  0.1244E-03  0.1231E-03
     -0.862  0.1808E-01  0.1818E-01  0.3024E-02  0.3041E-02  0.3024E-02  0.3041E-02  0.3029E-02  0.3046E-02  0.3825E-03  0.3818E-03  0.3825E-03  0.3817E-03  0.9416E-04  0.9380E-04  0.3825E-03  0.3818E-03  0.1106E-03  0.1103E-03
     -0.805  0.1509E-01  0.1505E-01  0.2719E-02  0.2711E-02  0.2719E-02  0.2711E-02  0.2718E-02  0.2711E-02  0.3944E-03  0.3892E-03  0.3951E-03  0.3899E-03  0.8153E-04  0.8077E-04  0.3944E-03  0.3892E-03  0.9195E-04  0.9124E-04
     -0.748  0.1697E-01  0.1678E-01  0.3361E-02  0.3321E-02  0.3361E-02  0.3321E-02  0.3347E-02  0.3308E-02  0.5382E-03  0.5282E-03  0.5395E-03  0.5295E-03  0.9313E-04  0.9140E-04  0.5382E-03  0.5282E-03  0.1021E-03  0.1003E-03
     -0.691  0.2045E-01  0.2028E-01  0.4504E-02  0.4463E-02  0.4504E-02  0.4463E-02  0.4482E-02  0.4441E-02  0.7113E-03  0.7021E-03  0.7121E-03  0.7030E-03  0.1177E-03  0.1157E-03  0.7113E-03  0.7021E-03  0.1304E-03  0.1281E-03
     -0.634  0.2121E-01  0.2117E-01  0.5360E-02  0.5340E-02  0.5360E-02  0.5340E-02  0.5339E-02  0.5319E-02  0.7827E-03  0.7780E-03  0.7826E-03  0.7779E-03  0.1342E-03  0.1325E-03  0.7827E-03  0.7780E-03  0.1518E-03  0.1498E-03
     -0.577  0.1869E-01  0.1873E-01  0.5498E-02  0.5500E-02  0.5498E-02  0.5500E-02  0.5491E-02  0.5493E-02  0.7505E-03  0.7481E-03  0.7500E-03  0.7476E-03  0.1310E-03  0.1299E-03  0.7505E-03  0.7481E-03  0.1508E-03  0.1494E-03
     -0.519  0.1567E-01  0.1568E-01  0.5251E-02  0.5249E-02  0.5251E-02  0.5249E-02  0.5249E-02  0.5248E-02  0.7339E-03  0.7292E-03  0.7343E-03  0.7296E-03  0.1186E-03  0.1175E-03  0.7339E-03  0.7292E-03  0.1385E-03  0.1372E-03