   4   4   1   0
  0.1524642E+02  0.3935314E-09  0.3936628E-09  0.3936628E-09  0.5000000E-15
  1.000000000000000E-004
  CAR 
 unknown system                          
     13.34168409     -3.48886228  301      8.15341896      1.00000000
     -3.489  0.0000E+00  0.0000E+00  0.0000E+00  0.0000E+00
     -3.433  0.0000E+00  0.0000E+00  0.0000E+00  0.0000E+00
     -3.377  0.0000E+00  0.0000E+00  0.0000E+00  0.0000E+00
     -3.321  0.0000E+00  0.0000E+00  0.0000E+00  0.0000E+00
     -3.264  0.0000E+00  0.0000E+00  0.0000E+00  0.0000E+00
     -3.208  0.0000E+00  0.0000E+00  0.0000E+00  0.0000E+00
     -3.152  0.1542E-05  0.1332E-05  0.8648E-07  0.7472E-07
     -3.096  0.1221E-04  0.1055E-04  0.7713E-06  0.6665E-06
     -3.040  0.4606E-04  0.3982E-04  0.3356E-05  0.2901E-05
     -2.984  0.1351E-03  0.1168E-03  0.1093E-04  0.9455E-05
     -2.928  0.4095E-03  0.3544E-03  0.3391E-04  0.2934E-04
     -2.872  0.1261E-02  0.1094E-02  0.1046E-03  0.9068E-04
     -2.816  0.3685E-02  0.3216E-02  0.3114E-03  0.2711E-03
     -2.760  0.9919E-02  0.8781E-02  0.8679E-03  0.7638E-03
     -2.703  0.2300E-01  0.2086E-01  0.2158E-02  0.1934E-02
     -2.647  0.4269E-01  0.3996E-01  0.4553E-02  0.4176E-02
     -2.591  0.6205E-01  0.5987E-01  0.8034E-02  0.7535E-02
     -2.535  0.7648E-01  0.7472E-01  0.1232E-01  0.1173E-01
     -2.479  0.9431E-01  0.9153E-01  0.1762E-01  0.1686E-01
     -2.423  0.1174E+00  0.1149E+00  0.2420E-01  0.2331E-01
     -2.367  0.1253E+00  0.1257E+00  0.3123E-01  0.3036E-01
     -2.311  0.1171E+00  0.1179E+00  0.3780E-01  0.3698E-01
     -2.255  0.1261E+00  0.1234E+00  0.4488E-01  0.4390E-01
     -2.199  0.1558E+00  0.1521E+00  0.5363E-01  0.5244E-01
     -2.142  0.1749E+00  0.1738E+00  0.6345E-01  0.6219E-01
     -2.086  0.1733E+00  0.1742E+00  0.7317E-01  0.7197E-01
     -2.030  0.1692E+00  0.1689E+00  0.8267E-01  0.8146E-01
     -1.974  0.1825E+00  0.1802E+00  0.9292E-01  0.9158E-01
     -1.918  0.1929E+00  0.1932E+00  0.1037E+00  0.1024E+00
     -1.862  0.1767E+00  0.1792E+00  0.1137E+00  0.1125E+00
     -1.806  0.1799E+00  0.1771E+00  0.1238E+00  0.1224E+00
     -1.750  0.2226E+00  0.2171E+00  0.1363E+00  0.1346E+00
     -1.694  0.2515E+00  0.2501E+00  0.1504E+00  0.1486E+00
     -1.638  0.2508E+00  0.2516E+00  0.1645E+00  0.1627E+00
     -1.581  0.2489E+00  0.2489E+00  0.1784E+00  0.1767E+00
     -1.525  0.2435E+00  0.2454E+00  0.1921E+00  0.1905E+00
     -1.469  0.2145E+00  0.2189E+00  0.2041E+00  0.2028E+00
     -1.413  0.1952E+00  0.1952E+00  0.2151E+00  0.2137E+00
     -1.357  0.2296E+00  0.2229E+00  0.2280E+00  0.2263E+00
     -1.301  0.2957E+00  0.2884E+00  0.2446E+00  0.2425E+00
     -1.245  0.3293E+00  0.3289E+00  0.2631E+00  0.2609E+00
     -1.189  0.3115E+00  0.3143E+00  0.2806E+00  0.2786E+00
     -1.133  0.3093E+00  0.3076E+00  0.2979E+00  0.2958E+00
     -1.076  0.3178E+00  0.3192E+00  0.3158E+00  0.3138E+00
     -1.020  0.2747E+00  0.2814E+00  0.3312E+00  0.3295E+00
     -0.964  0.2432E+00  0.2432E+00  0.3448E+00  0.3432E+00
     -0.908  0.2894E+00  0.2812E+00  0.3611E+00  0.3590E+00
     -0.852  0.3673E+00  0.3598E+00  0.3817E+00  0.3792E+00
     -0.796  0.4103E+00  0.4093E+00  0.4047E+00  0.4022E+00
     -0.740  0.3970E+00  0.4013E+00  0.4270E+00  0.4247E+00
     -0.684  0.3654E+00  0.3683E+00  0.4475E+00  0.4453E+00
     -0.628  0.3585E+00  0.3587E+00  0.4676E+00  0.4655E+00
     -0.572  0.3570E+00  0.3574E+00  0.4877E+00  0.4855E+00
     -0.515  0.3620E+00  0.3591E+00  0.5080E+00  0.5057E+00
     -0.459  0.4000E+00  0.3947E+00  0.5304E+00  0.5278E+00
     -0.403  0.4303E+00  0.4294E+00  0.5546E+00  0.5520E+00
     -0.347  0.4189E+00  0.4224E+00  0.5781E+00  0.5757E+00
     -0.291  0.3715E+00  0.3783E+00  0.5990E+00  0.5969E+00
     -0.235  0.2994E+00  0.3068E+00  0.6158E+00  0.6141E+00
     -0.179  0.2574E+00  0.2596E+00  0.6302E+00  0.6287E+00
     -0.123  0.2659E+00  0.2622E+00  0.6452E+00  0.6434E+00
     -0.067  0.3263E+00  0.3167E+00  0.6635E+00  0.6612E+00
     -0.011  0.3991E+00  0.3940E+00  0.6859E+00  0.6833E+00
      0.046  0.3862E+00  0.3922E+00  0.7076E+00  0.7053E+00
      0.102  0.3225E+00  0.3285E+00  0.7257E+00  0.7238E+00
      0.158  0.2836E+00  0.2860E+00  0.7416E+00  0.7398E+00
      0.214  0.2541E+00  0.2549E+00  0.7558E+00  0.7541E+00
      0.270  0.2603E+00  0.2525E+00  0.7704E+00  0.7683E+00
      0.326  0.3475E+00  0.3319E+00  0.7899E+00  0.7869E+00
      0.382  0.4600E+00  0.4483E+00  0.8158E+00  0.8121E+00
      0.438  0.4966E+00  0.4977E+00  0.8436E+00  0.8400E+00
      0.494  0.4394E+00  0.4465E+00  0.8683E+00  0.8651E+00
      0.550  0.3725E+00  0.3802E+00  0.8892E+00  0.8864E+00
      0.607  0.3096E+00  0.3184E+00  0.9066E+00  0.9043E+00
      0.663  0.2824E+00  0.2805E+00  0.9224E+00  0.9200E+00
      0.719  0.3501E+00  0.3352E+00  0.9421E+00  0.9389E+00
      0.775  0.4511E+00  0.4398E+00  0.9674E+00  0.9636E+00
      0.831  0.4628E+00  0.4686E+00  0.9934E+00  0.9899E+00
      0.887  0.3812E+00  0.3927E+00  0.1015E+01  0.1012E+01
      0.943  0.3371E+00  0.3365E+00  0.1034E+01  0.1031E+01
      0.999  0.3474E+00  0.3451E+00  0.1053E+01  0.1050E+01
      1.055  0.3558E+00  0.3534E+00  0.1073E+01  0.1070E+01
      1.111  0.4174E+00  0.4032E+00  0.1097E+01  0.1093E+01
      1.168  0.5338E+00  0.5183E+00  0.1127E+01  0.1122E+01
      1.224  0.5581E+00  0.5642E+00  0.1158E+01  0.1153E+01
      1.280  0.4553E+00  0.4730E+00  0.1183E+01  0.1180E+01
      1.336  0.3625E+00  0.3720E+00  0.1204E+01  0.1201E+01
      1.392  0.3242E+00  0.3273E+00  0.1222E+01  0.1219E+01
      1.448  0.3228E+00  0.3209E+00  0.1240E+01  0.1237E+01
      1.504  0.3670E+00  0.3575E+00  0.1261E+01  0.1257E+01
      1.560  0.4686E+00  0.4525E+00  0.1287E+01  0.1283E+01
      1.616  0.5365E+00  0.5356E+00  0.1317E+01  0.1313E+01
      1.673  0.4652E+00  0.4808E+00  0.1343E+01  0.1340E+01
      1.729  0.3970E+00  0.3998E+00  0.1366E+01  0.1362E+01
      1.785  0.4276E+00  0.4189E+00  0.1390E+01  0.1386E+01
      1.841  0.4774E+00  0.4705E+00  0.1416E+01  0.1412E+01
      1.897  0.5230E+00  0.5161E+00  0.1446E+01  0.1441E+01
      1.953  0.5952E+00  0.5858E+00  0.1479E+01  0.1474E+01
      2.009  0.6608E+00  0.6584E+00  0.1516E+01  0.1511E+01
      2.065  0.6368E+00  0.6469E+00  0.1552E+01  0.1547E+01
      2.121  0.5785E+00  0.5813E+00  0.1584E+01  0.1580E+01
      2.177  0.6153E+00  0.6032E+00  0.1619E+01  0.1614E+01
      2.234  0.6701E+00  0.6648E+00  0.1657E+01  0.1651E+01
      2.290  0.6535E+00  0.6595E+00  0.1693E+01  0.1688E+01
      2.346  0.5913E+00  0.6020E+00  0.1726E+01  0.1722E+01
      2.402  0.5116E+00  0.5218E+00  0.1755E+01  0.1751E+01
      2.458  0.4607E+00  0.4638E+00  0.1781E+01  0.1777E+01
      2.514  0.4977E+00  0.4869E+00  0.1809E+01  0.1805E+01
      2.570  0.6157E+00  0.5947E+00  0.1844E+01  0.1838E+01
      2.626  0.7050E+00  0.6937E+00  0.1883E+01  0.1877E+01
      2.682  0.6754E+00  0.6843E+00  0.1921E+01  0.1915E+01
      2.738  0.5928E+00  0.6033E+00  0.1954E+01  0.1949E+01
      2.795  0.5472E+00  0.5470E+00  0.1985E+01  0.1980E+01
      2.851  0.5648E+00  0.5543E+00  0.2017E+01  0.2011E+01
      2.907  0.6502E+00  0.6309E+00  0.2053E+01  0.2046E+01
      2.963  0.7245E+00  0.7158E+00  0.2094E+01  0.2087E+01
      3.019  0.6964E+00  0.7047E+00  0.2133E+01  0.2126E+01
      3.075  0.6463E+00  0.6512E+00  0.2169E+01  0.2163E+01
      3.131  0.6181E+00  0.6218E+00  0.2204E+01  0.2198E+01
      3.187  0.5772E+00  0.5793E+00  0.2236E+01  0.2230E+01
      3.243  0.5720E+00  0.5595E+00  0.2268E+01  0.2262E+01
      3.299  0.6217E+00  0.6075E+00  0.2303E+01  0.2296E+01
      3.356  0.6345E+00  0.6381E+00  0.2339E+01  0.2331E+01
      3.412  0.6124E+00  0.6154E+00  0.2373E+01  0.2366E+01
      3.468  0.5885E+00  0.5950E+00  0.2406E+01  0.2399E+01
      3.524  0.5114E+00  0.5296E+00  0.2435E+01  0.2429E+01
      3.580  0.4683E+00  0.4672E+00  0.2461E+01  0.2455E+01
      3.636  0.5210E+00  0.5036E+00  0.2491E+01  0.2484E+01
      3.692  0.5703E+00  0.5584E+00  0.2523E+01  0.2515E+01
      3.748  0.6006E+00  0.5881E+00  0.2556E+01  0.2548E+01
      3.804  0.6285E+00  0.6190E+00  0.2592E+01  0.2583E+01
      3.860  0.6261E+00  0.6257E+00  0.2627E+01  0.2618E+01
      3.917  0.6193E+00  0.6168E+00  0.2662E+01  0.2653E+01
      3.973  0.6583E+00  0.6439E+00  0.2699E+01  0.2689E+01
      4.029  0.7321E+00  0.7107E+00  0.2740E+01  0.2729E+01
      4.085  0.8180E+00  0.7969E+00  0.2786E+01  0.2773E+01
      4.141  0.8488E+00  0.8483E+00  0.2833E+01  0.2821E+01
      4.197  0.7775E+00  0.7971E+00  0.2877E+01  0.2866E+01
      4.253  0.6686E+00  0.6921E+00  0.2914E+01  0.2905E+01
      4.309  0.6013E+00  0.6079E+00  0.2948E+01  0.2939E+01
      4.365  0.6225E+00  0.6091E+00  0.2983E+01  0.2973E+01
      4.421  0.6727E+00  0.6551E+00  0.3021E+01  0.3010E+01
      4.478  0.7424E+00  0.7100E+00  0.3063E+01  0.3049E+01
      4.534  0.8632E+00  0.8197E+00  0.3111E+01  0.3095E+01
      4.590  0.9682E+00  0.9447E+00  0.3165E+01  0.3149E+01
      4.646  0.9413E+00  0.9602E+00  0.3218E+01  0.3202E+01
      4.702  0.8086E+00  0.8454E+00  0.3264E+01  0.3250E+01
      4.758  0.7764E+00  0.7569E+00  0.3307E+01  0.3292E+01
      4.814  0.9318E+00  0.8641E+00  0.3359E+01  0.3341E+01
      4.870  0.1094E+01  0.1048E+01  0.3421E+01  0.3400E+01
      4.926  0.1119E+01  0.1125E+01  0.3484E+01  0.3463E+01
      4.983  0.9888E+00  0.1030E+01  0.3539E+01  0.3521E+01
      5.039  0.8854E+00  0.8918E+00  0.3589E+01  0.3571E+01
      5.095  0.9011E+00  0.8684E+00  0.3639E+01  0.3619E+01
      5.151  0.9720E+00  0.9244E+00  0.3694E+01  0.3671E+01
      5.207  0.1052E+01  0.1017E+01  0.3753E+01  0.3728E+01
      5.263  0.1102E+01  0.1087E+01  0.3815E+01  0.3789E+01
      5.319  0.1128E+01  0.1116E+01  0.3878E+01  0.3852E+01
      5.375  0.1142E+01  0.1120E+01  0.3942E+01  0.3915E+01
      5.431  0.1176E+01  0.1127E+01  0.4008E+01  0.3978E+01
      5.487  0.1270E+01  0.1186E+01  0.4080E+01  0.4045E+01
      5.544  0.1397E+01  0.1311E+01  0.4158E+01  0.4118E+01
      5.600  0.1388E+01  0.1409E+01  0.4236E+01  0.4197E+01
      5.656  0.1148E+01  0.1277E+01  0.4300E+01  0.4269E+01
      5.712  0.9554E+00  0.1002E+01  0.4354E+01  0.4325E+01
      5.768  0.1052E+01  0.9241E+00  0.4413E+01  0.4377E+01
      5.824  0.1391E+01  0.1156E+01  0.4491E+01  0.4442E+01
      5.880  0.1803E+01  0.1573E+01  0.4592E+01  0.4530E+01
      5.936  0.2077E+01  0.1963E+01  0.4709E+01  0.4641E+01
      5.992  0.2006E+01  0.2100E+01  0.4821E+01  0.4758E+01
      6.048  0.1613E+01  0.1850E+01  0.4912E+01  0.4862E+01
      6.105  0.1275E+01  0.1415E+01  0.4984E+01  0.4942E+01
      6.161  0.1123E+01  0.1160E+01  0.5047E+01  0.5007E+01
      6.217  0.1012E+01  0.1053E+01  0.5103E+01  0.5066E+01
      6.273  0.1027E+01  0.9800E+00  0.5161E+01  0.5121E+01
      6.329  0.1139E+01  0.1040E+01  0.5225E+01  0.5179E+01
      6.385  0.1114E+01  0.1128E+01  0.5288E+01  0.5243E+01
      6.441  0.9738E+00  0.1064E+01  0.5342E+01  0.5302E+01
      6.497  0.8654E+00  0.9266E+00  0.5391E+01  0.5354E+01
      6.553  0.8210E+00  0.8381E+00  0.5437E+01  0.5402E+01
      6.609  0.8007E+00  0.8018E+00  0.5482E+01  0.5447E+01
      6.666  0.8269E+00  0.7840E+00  0.5528E+01  0.5491E+01
      6.722  0.8887E+00  0.8245E+00  0.5578E+01  0.5537E+01
      6.778  0.9061E+00  0.8839E+00  0.5629E+01  0.5587E+01
      6.834  0.8607E+00  0.8854E+00  0.5677E+01  0.5636E+01
      6.890  0.8528E+00  0.8407E+00  0.5725E+01  0.5683E+01
      6.946  0.8717E+00  0.8466E+00  0.5774E+01  0.5731E+01
      7.002  0.7738E+00  0.8615E+00  0.5818E+01  0.5779E+01
      7.058  0.6581E+00  0.7516E+00  0.5855E+01  0.5821E+01
      7.114  0.6979E+00  0.6448E+00  0.5894E+01  0.5858E+01
      7.170  0.8513E+00  0.6955E+00  0.5942E+01  0.5897E+01
      7.227  0.8910E+00  0.8540E+00  0.5992E+01  0.5945E+01
      7.283  0.7279E+00  0.8861E+00  0.6032E+01  0.5994E+01
      7.339  0.5960E+00  0.7230E+00  0.6066E+01  0.6035E+01
      7.395  0.6346E+00  0.5997E+00  0.6102E+01  0.6069E+01
      7.451  0.7123E+00  0.6227E+00  0.6142E+01  0.6104E+01
      7.507  0.7435E+00  0.6809E+00  0.6183E+01  0.6142E+01
      7.563  0.7732E+00  0.7223E+00  0.6227E+01  0.6182E+01
      7.619  0.8574E+00  0.7631E+00  0.6275E+01  0.6225E+01
      7.675  0.1014E+01  0.8363E+00  0.6332E+01  0.6272E+01
      7.732  0.1182E+01  0.9869E+00  0.6398E+01  0.6328E+01
      7.788  0.1323E+01  0.1169E+01  0.6472E+01  0.6393E+01
      7.844  0.1386E+01  0.1319E+01  0.6550E+01  0.6467E+01
      7.900  0.1416E+01  0.1386E+01  0.6630E+01  0.6545E+01
      7.956  0.1500E+01  0.1400E+01  0.6714E+01  0.6624E+01
      8.012  0.1656E+01  0.1464E+01  0.6807E+01  0.6706E+01
      8.068  0.1776E+01  0.1624E+01  0.6906E+01  0.6797E+01
      8.124  0.1754E+01  0.1753E+01  0.7005E+01  0.6895E+01
      8.180  0.1641E+01  0.1742E+01  0.7097E+01  0.6993E+01
      8.236  0.1696E+01  0.1622E+01  0.7192E+01  0.7084E+01
      8.293  0.2009E+01  0.1610E+01  0.7305E+01  0.7174E+01
      8.349  0.2519E+01  0.1828E+01  0.7446E+01  0.7277E+01
      8.405  0.3125E+01  0.2256E+01  0.7622E+01  0.7404E+01
      8.461  0.3645E+01  0.2819E+01  0.7826E+01  0.7562E+01
      8.517  0.3828E+01  0.3366E+01  0.8041E+01  0.7751E+01
      8.573  0.3547E+01  0.3744E+01  0.8240E+01  0.7961E+01
      8.629  0.2973E+01  0.3760E+01  0.8407E+01  0.8172E+01
      8.685  0.2379E+01  0.3321E+01  0.8540E+01  0.8358E+01
      8.741  0.1878E+01  0.2685E+01  0.8646E+01  0.8509E+01
      8.797  0.1519E+01  0.2118E+01  0.8731E+01  0.8628E+01
      8.854  0.1278E+01  0.1701E+01  0.8803E+01  0.8723E+01
      8.910  0.1067E+01  0.1392E+01  0.8863E+01  0.8801E+01
      8.966  0.9228E+00  0.1122E+01  0.8915E+01  0.8864E+01
      9.022  0.8408E+00  0.9455E+00  0.8962E+01  0.8918E+01
      9.078  0.8064E+00  0.8581E+00  0.9008E+01  0.8966E+01
      9.134  0.7964E+00  0.8213E+00  0.9052E+01  0.9012E+01
      9.190  0.7520E+00  0.8014E+00  0.9094E+01  0.9057E+01
      9.246  0.6947E+00  0.7532E+00  0.9134E+01  0.9099E+01
      9.302  0.6894E+00  0.7023E+00  0.9172E+01  0.9139E+01
      9.358  0.7409E+00  0.6996E+00  0.9214E+01  0.9178E+01
      9.415  0.8215E+00  0.7585E+00  0.9260E+01  0.9221E+01
      9.471  0.8527E+00  0.8378E+00  0.9308E+01  0.9268E+01
      9.527  0.8663E+00  0.8682E+00  0.9356E+01  0.9317E+01
      9.583  0.9628E+00  0.9048E+00  0.9410E+01  0.9367E+01
      9.639  0.1085E+01  0.1007E+01  0.9471E+01  0.9424E+01
      9.695  0.1098E+01  0.1095E+01  0.9533E+01  0.9485E+01
      9.751  0.1067E+01  0.1087E+01  0.9593E+01  0.9546E+01
      9.807  0.1147E+01  0.1072E+01  0.9657E+01  0.9607E+01
      9.863  0.1272E+01  0.1157E+01  0.9729E+01  0.9671E+01
      9.919  0.1357E+01  0.1267E+01  0.9805E+01  0.9743E+01
      9.976  0.1508E+01  0.1342E+01  0.9890E+01  0.9818E+01
     10.032  0.1741E+01  0.1497E+01  0.9987E+01  0.9902E+01
     10.088  0.1818E+01  0.1738E+01  0.1009E+02  0.9999E+01
     10.144  0.1668E+01  0.1809E+01  0.1018E+02  0.1010E+02
     10.200  0.1447E+01  0.1636E+01  0.1026E+02  0.1019E+02
     10.256  0.1201E+01  0.1423E+01  0.1033E+02  0.1027E+02
     10.312  0.9941E+00  0.1214E+01  0.1039E+02  0.1034E+02
     10.368  0.9403E+00  0.1026E+01  0.1044E+02  0.1040E+02
     10.424  0.1014E+01  0.9864E+00  0.1050E+02  0.1045E+02
     10.480  0.1048E+01  0.1048E+01  0.1056E+02  0.1051E+02
     10.537  0.1068E+01  0.1078E+01  0.1062E+02  0.1057E+02
     10.593  0.1140E+01  0.1107E+01  0.1068E+02  0.1064E+02
     10.649  0.1162E+01  0.1142E+01  0.1075E+02  0.1070E+02
     10.705  0.1065E+01  0.1091E+01  0.1080E+02  0.1076E+02
     10.761  0.9191E+00  0.9931E+00  0.1086E+02  0.1082E+02
     10.817  0.8478E+00  0.9219E+00  0.1090E+02  0.1087E+02
     10.873  0.9370E+00  0.9418E+00  0.1096E+02  0.1092E+02
     10.929  0.1068E+01  0.1070E+01  0.1102E+02  0.1098E+02
     10.985  0.1096E+01  0.1171E+01  0.1108E+02  0.1105E+02
     11.042  0.1097E+01  0.1172E+01  0.1114E+02  0.1111E+02
     11.098  0.1160E+01  0.1193E+01  0.1120E+02  0.1118E+02
     11.154  0.1221E+01  0.1241E+01  0.1127E+02  0.1125E+02
     11.210  0.1241E+01  0.1245E+01  0.1134E+02  0.1132E+02
     11.266  0.1222E+01  0.1224E+01  0.1141E+02  0.1139E+02
     11.322  0.1128E+01  0.1183E+01  0.1148E+02  0.1145E+02
     11.378  0.9332E+00  0.1039E+01  0.1153E+02  0.1151E+02
     11.434  0.7515E+00  0.8477E+00  0.1157E+02  0.1156E+02
     11.490  0.6679E+00  0.7237E+00  0.1161E+02  0.1160E+02
     11.546  0.6640E+00  0.6855E+00  0.1164E+02  0.1164E+02
     11.603  0.6535E+00  0.6580E+00  0.1168E+02  0.1168E+02
     11.659  0.6143E+00  0.6327E+00  0.1172E+02  0.1171E+02
     11.715  0.5924E+00  0.6459E+00  0.1175E+02  0.1175E+02
     11.771  0.5781E+00  0.6670E+00  0.1178E+02  0.1179E+02
     11.827  0.5143E+00  0.5975E+00  0.1181E+02  0.1182E+02
     11.883  0.4442E+00  0.4525E+00  0.1184E+02  0.1184E+02
     11.939  0.4657E+00  0.3832E+00  0.1186E+02  0.1187E+02
     11.995  0.5613E+00  0.4425E+00  0.1189E+02  0.1189E+02
     12.051  0.5746E+00  0.5170E+00  0.1193E+02  0.1192E+02
     12.107  0.4432E+00  0.4541E+00  0.1195E+02  0.1195E+02
     12.164  0.2934E+00  0.3030E+00  0.1197E+02  0.1196E+02
     12.220  0.1953E+00  0.1956E+00  0.1198E+02  0.1197E+02
     12.276  0.1266E+00  0.1464E+00  0.1198E+02  0.1198E+02
     12.332  0.8153E-01  0.1150E+00  0.1199E+02  0.1199E+02
     12.388  0.6161E-01  0.8350E-01  0.1199E+02  0.1199E+02
     12.444  0.4650E-01  0.4883E-01  0.1200E+02  0.1200E+02
     12.500  0.3154E-01  0.2559E-01  0.1200E+02  0.1200E+02
     12.556  0.2267E-01  0.1816E-01  0.1200E+02  0.1200E+02
     12.612  0.1587E-01  0.1567E-01  0.1200E+02  0.1200E+02
     12.668  0.8355E-02  0.9900E-02  0.1200E+02  0.1200E+02
     12.725  0.3367E-02  0.4411E-02  0.1200E+02  0.1200E+02
     12.781  0.1146E-02  0.1556E-02  0.1200E+02  0.1200E+02
     12.837  0.3548E-03  0.5294E-03  0.1200E+02  0.1200E+02
     12.893  0.1167E-03  0.1749E-03  0.1200E+02  0.1200E+02
     12.949  0.3810E-04  0.5723E-04  0.1200E+02  0.1200E+02
     13.005  0.0000E+00  0.0000E+00  0.1200E+02  0.1200E+02
     13.061  0.0000E+00  0.0000E+00  0.1200E+02  0.1200E+02
     13.117  0.0000E+00  0.0000E+00  0.1200E+02  0.1200E+02
     13.173  0.0000E+00  0.0000E+00  0.1200E+02  0.1200E+02
     13.229  0.0000E+00  0.0000E+00  0.1200E+02  0.1200E+02
     13.286  0.0000E+00  0.0000E+00  0.1200E+02  0.1200E+02
     13.342  0.0000E+00  0.0000E+00  0.1200E+02  0.1200E+02
     13.34168409     -3.48886228  301      8.15341896      1.00000000
     -3.489  0.0000E+00  0.0000E+00  0.0000E+00  0.0000E+00  0.0000E+00  0.0000E+00  0.0000E+00  0.0000E+00  0.0000E+00  0.0000E+00  0.0000E+00  0.0000E+00  0.0000E+00  0.0000E+00  0.0000E+00  0.0000E+00  0.0000E+00  0.0000E+00
     -3.433  0.0000E+00  0.0000E+00  0.0000E+00  0.0000E+00  0.0000E+00  0.0000E+00  0.0000E+00  0.0000E+00  0.0000E+00  0.0000E+00  0.0000E+00  0.0000E+00  0.0000E+00  0.0000E+00  0.0000E+00  0.0000E+00  0.0000E+00  0.0000E+00
     -3.377  0.0000E+00  0.0000E+00  0.0000E+00  0.0000E+00  0.0000E+00  0.0000E+00  0.0000E+00  0.0000E+00  0.0000E+00  0.0000E+00  0.0000E+00  0.0000E+00  0.0000E+00  0.0000E+00  0.0000E+00  0.0000E+00  0.0000E+00  0.0000E+00
     -3.321  0.0000E+00  0.0000E+00  0.0000E+00  0.0000E+00  0.0000E+00  0.0000E+00  0.0000E+00  0.0000E+00  0.0000E+00  0.0000E+00  0.0000E+00  0.0000E+00  0.0000E+00  0.0000E+00  0.0000E+00  0.0000E+00  0.0000E+00  0.0000E+00
     -3.264  0.0000E+00  0.0000E+00  0.0000E+00  0.0000E+00  0.0000E+00  0.0000E+00  0.0000E+00  0.0000E+00  0.0000E+00  0.0000E+00  0.0000E+00  0.0000E+00  0.0000E+00  0.0000E+00  0.0000E+00  0.0000E+00  0.0000E+00  0.0000E+00
     -3.208  0.0000E+00  0.0000E+00  0.0000E+00  0.0000E+00  0.0000E+00  0.0000E+00  0.0000E+00  0.0000E+00  0.0000E+00  0.0000E+00  0.0000E+00  0.0000E+00  0.0000E+00  0.0000E+00  0.0000E+00  0.0000E+00  0.0000E+00  0.0000E+00
     -3.152  0.1756E-06  0.1509E-06  0.3267E-21  0.1194E-20  0.3267E-21  0.1194E-20  0.1931E-21  0.1754E-20  0.1639E-15  0.1477E-15  0.5756E-15  0.1447E-15  0.7215E-14  0.1378E-14  0.1639E-15  0.1477E-15  0.5380E-14  0.1970E-14
     -3.096  0.1377E-05  0.1184E-05  0.3534E-08  0.3046E-08  0.3534E-08  0.3046E-08  0.3532E-08  0.3044E-08  0.3419E-13  0.1019E-13  0.2251E-13  0.1447E-13  0.1126E-10  0.9617E-11  0.3419E-13  0.1019E-13  0.1439E-10  0.1229E-10
     -3.040  0.5169E-05  0.4442E-05  0.2102E-07  0.1812E-07  0.2102E-07  0.1812E-07  0.2101E-07  0.1812E-07  0.1048E-09  0.9058E-10  0.1049E-09  0.9064E-10  0.5117E-10  0.4425E-10  0.1048E-09  0.9058E-10  0.5134E-10  0.4429E-10
     -2.984  0.1515E-04  0.1302E-04  0.6412E-07  0.5529E-07  0.6412E-07  0.5529E-07  0.6410E-07  0.5527E-07  0.4203E-09  0.3615E-09  0.4195E-09  0.3615E-09  0.1292E-09  0.1114E-09  0.4203E-09  0.3615E-09  0.1360E-09  0.1171E-09
     -2.928  0.4591E-04  0.3950E-04  0.1964E-06  0.1694E-06  0.1964E-06  0.1694E-06  0.1963E-06  0.1693E-06  0.1086E-08  0.9354E-09  0.1085E-08  0.9355E-09  0.5582E-09  0.4804E-09  0.1086E-08  0.9354E-09  0.6250E-09  0.5372E-09
     -2.872  0.1412E-03  0.1217E-03  0.6497E-06  0.5610E-06  0.6497E-06  0.5610E-06  0.6494E-06  0.5607E-06  0.4131E-08  0.3555E-08  0.4132E-08  0.3556E-08  0.2091E-08  0.1796E-08  0.4131E-08  0.3555E-08  0.2339E-08  0.2006E-08
     -2.816  0.4124E-03  0.3579E-03  0.1966E-05  0.1702E-05  0.1966E-05  0.1702E-05  0.1965E-05  0.1701E-05  0.1355E-07  0.1168E-07  0.1354E-07  0.1168E-07  0.6105E-08  0.5265E-08  0.1355E-07  0.1168E-07  0.6855E-08  0.5906E-08
     -2.760  0.1109E-02  0.9761E-03  0.5620E-05  0.4902E-05  0.5620E-05  0.4902E-05  0.5617E-05  0.4899E-05  0.3886E-07  0.3361E-07  0.3885E-07  0.3361E-07  0.1745E-07  0.1515E-07  0.3886E-07  0.3361E-07  0.1950E-07  0.1691E-07
     -2.703  0.2563E-02  0.2313E-02  0.1487E-04  0.1319E-04  0.1487E-04  0.1319E-04  0.1487E-04  0.1318E-04  0.1128E-06  0.9837E-07  0.1127E-06  0.9837E-07  0.4740E-07  0.4168E-07  0.1128E-06  0.9837E-07  0.5266E-07  0.4626E-07
     -2.647  0.4736E-02  0.4412E-02  0.3332E-04  0.3028E-04  0.3332E-04  0.3028E-04  0.3330E-04  0.3027E-04  0.2933E-06  0.2604E-06  0.2933E-06  0.2604E-06  0.1146E-06  0.1022E-06  0.2933E-06  0.2604E-06  0.1279E-06  0.1138E-06
     -2.591  0.6836E-02  0.6564E-02  0.6116E-04  0.5694E-04  0.6116E-04  0.5694E-04  0.6113E-04  0.5691E-04  0.6340E-06  0.5761E-06  0.6341E-06  0.5759E-06  0.2560E-06  0.2292E-06  0.6340E-06  0.5761E-06  0.2942E-06  0.2619E-06
     -2.535  0.8332E-02  0.8105E-02  0.9916E-04  0.9315E-04  0.9916E-04  0.9315E-04  0.9909E-04  0.9308E-04  0.1199E-05  0.1101E-05  0.1200E-05  0.1100E-05  0.5570E-06  0.4993E-06  0.1199E-05  0.1101E-05  0.6609E-06  0.5906E-06
     -2.479  0.1014E-01  0.9795E-02  0.1575E-03  0.1482E-03  0.1575E-03  0.1482E-03  0.1574E-03  0.1481E-03  0.2229E-05  0.2045E-05  0.2234E-05  0.2043E-05  0.1089E-05  0.9977E-06  0.2229E-05  0.2045E-05  0.1303E-05  0.1194E-05
     -2.423  0.1249E-01  0.1215E-01  0.2311E-03  0.2216E-03  0.2311E-03  0.2216E-03  0.2310E-03  0.2215E-03  0.3943E-05  0.3678E-05  0.3950E-05  0.3674E-05  0.1671E-05  0.1587E-05  0.3943E-05  0.3678E-05  0.1988E-05  0.1891E-05
     -2.367  0.1319E-01  0.1317E-01  0.2781E-03  0.2737E-03  0.2781E-03  0.2737E-03  0.2781E-03  0.2737E-03  0.5796E-05  0.5548E-05  0.5802E-05  0.5540E-05  0.2030E-05  0.1970E-05  0.5796E-05  0.5548E-05  0.2373E-05  0.2313E-05
     -2.311  0.1215E-01  0.1219E-01  0.3030E-03  0.2974E-03  0.3030E-03  0.2974E-03  0.3028E-03  0.2973E-03  0.7693E-05  0.7351E-05  0.7699E-05  0.7346E-05  0.2558E-05  0.2423E-05  0.7693E-05  0.7351E-05  0.2889E-05  0.2751E-05
     -2.255  0.1283E-01  0.1251E-01  0.3889E-03  0.3721E-03  0.3889E-03  0.3721E-03  0.3885E-03  0.3717E-03  0.1119E-04  0.1056E-04  0.1120E-04  0.1056E-04  0.4164E-05  0.3838E-05  0.1119E-04  0.1056E-04  0.4687E-05  0.4316E-05
     -2.199  0.1561E-01  0.1516E-01  0.5383E-03  0.5179E-03  0.5383E-03  0.5179E-03  0.5376E-03  0.5172E-03  0.1574E-04  0.1508E-04  0.1575E-04  0.1508E-04  0.7011E-05  0.6547E-05  0.1574E-04  0.1508E-04  0.8167E-05  0.7599E-05
     -2.142  0.1731E-01  0.1712E-01  0.6534E-03  0.6414E-03  0.6534E-03  0.6414E-03  0.6529E-03  0.6409E-03  0.1929E-04  0.1872E-04  0.1930E-04  0.1872E-04  0.9811E-05  0.9452E-05  0.1929E-04  0.1872E-04  0.1178E-04  0.1132E-04
     -2.086  0.1692E-01  0.1694E-01  0.6995E-03  0.6941E-03  0.6995E-03  0.6941E-03  0.6995E-03  0.6941E-03  0.2368E-04  0.2279E-04  0.2370E-04  0.2280E-04  0.1083E-04  0.1073E-04  0.2368E-04  0.2279E-04  0.1307E-04  0.1297E-04
     -2.030  0.1625E-01  0.1616E-01  0.7455E-03  0.7340E-03  0.7455E-03  0.7340E-03  0.7456E-03  0.7341E-03  0.3197E-04  0.3043E-04  0.3202E-04  0.3046E-04  0.1083E-04  0.1072E-04  0.3197E-04  0.3043E-04  0.1267E-04  0.1261E-04
     -1.974  0.1723E-01  0.1693E-01  0.8727E-03  0.8515E-03  0.8727E-03  0.8515E-03  0.8723E-03  0.8511E-03  0.4436E-04  0.4244E-04  0.4441E-04  0.4247E-04  0.1228E-04  0.1193E-04  0.4436E-04  0.4244E-04  0.1380E-04  0.1346E-04
     -1.918  0.1796E-01  0.1790E-01  0.9776E-03  0.9699E-03  0.9776E-03  0.9699E-03  0.9772E-03  0.9695E-03  0.5296E-04  0.5211E-04  0.5298E-04  0.5210E-04  0.1454E-04  0.1417E-04  0.5296E-04  0.5211E-04  0.1635E-04  0.1591E-04
     -1.862  0.1616E-01  0.1633E-01  0.9595E-03  0.9598E-03  0.9595E-03  0.9598E-03  0.9584E-03  0.9588E-03  0.5135E-04  0.5133E-04  0.5133E-04  0.5129E-04  0.1721E-04  0.1658E-04  0.5135E-04  0.5133E-04  0.2013E-04  0.1928E-04
     -1.806  0.1601E-01  0.1571E-01  0.1074E-02  0.1042E-02  0.1074E-02  0.1042E-02  0.1072E-02  0.1040E-02  0.5602E-04  0.5403E-04  0.5606E-04  0.5405E-04  0.2417E-04  0.2273E-04  0.5602E-04  0.5403E-04  0.2922E-04  0.2742E-04
     -1.750  0.1940E-01  0.1884E-01  0.1415E-02  0.1368E-02  0.1415E-02  0.1368E-02  0.1412E-02  0.1366E-02  0.7752E-04  0.7383E-04  0.7762E-04  0.7391E-04  0.3458E-04  0.3292E-04  0.7752E-04  0.7383E-04  0.4174E-04  0.3980E-04
     -1.694  0.2163E-01  0.2141E-01  0.1658E-02  0.1637E-02  0.1658E-02  0.1637E-02  0.1658E-02  0.1637E-02  0.1007E-03  0.9742E-04  0.1008E-03  0.9752E-04  0.4075E-04  0.3980E-04  0.1007E-03  0.9742E-04  0.4803E-04  0.4708E-04
     -1.638  0.2124E-01  0.2120E-01  0.1721E-02  0.1712E-02  0.1721E-02  0.1712E-02  0.1721E-02  0.1712E-02  0.1184E-03  0.1154E-03  0.1184E-03  0.1154E-03  0.4163E-04  0.4097E-04  0.1184E-03  0.1154E-03  0.4779E-04  0.4715E-04
     -1.581  0.2068E-01  0.2059E-01  0.1786E-02  0.1772E-02  0.1786E-02  0.1772E-02  0.1785E-02  0.1771E-02  0.1362E-03  0.1328E-03  0.1362E-03  0.1328E-03  0.4287E-04  0.4208E-04  0.1362E-03  0.1328E-03  0.4908E-04  0.4813E-04
     -1.525  0.1989E-01  0.1995E-01  0.1813E-02  0.1814E-02  0.1813E-02  0.1814E-02  0.1814E-02  0.1815E-02  0.1529E-03  0.1501E-03  0.1528E-03  0.1500E-03  0.4166E-04  0.4155E-04  0.1529E-03  0.1501E-03  0.4810E-04  0.4794E-04
     -1.469  0.1723E-01  0.1750E-01  0.1654E-02  0.1674E-02  0.1654E-02  0.1674E-02  0.1655E-02  0.1675E-02  0.1556E-03  0.1546E-03  0.1555E-03  0.1545E-03  0.3535E-04  0.3555E-04  0.1556E-03  0.1546E-03  0.4090E-04  0.4114E-04
     -1.413  0.1517E-01  0.1514E-01  0.1601E-02  0.1582E-02  0.1601E-02  0.1582E-02  0.1597E-02  0.1579E-02  0.1596E-03  0.1564E-03  0.1598E-03  0.1565E-03  0.3647E-04  0.3495E-04  0.1596E-03  0.1564E-03  0.4238E-04  0.4061E-04
     -1.357  0.1713E-01  0.1658E-01  0.2019E-02  0.1941E-02  0.2019E-02  0.1941E-02  0.2011E-02  0.1933E-02  0.1969E-03  0.1890E-03  0.1974E-03  0.1894E-03  0.5505E-04  0.5124E-04  0.1969E-03  0.1890E-03  0.6411E-04  0.5969E-04
     -1.301  0.2143E-01  0.2080E-01  0.2720E-02  0.2634E-02  0.2720E-02  0.2634E-02  0.2712E-02  0.2625E-02  0.2557E-03  0.2468E-03  0.2561E-03  0.2472E-03  0.8338E-04  0.7898E-04  0.2557E-03  0.2468E-03  0.9718E-04  0.9202E-04
     -1.245  0.2335E-01  0.2320E-01  0.3121E-02  0.3098E-02  0.3121E-02  0.3098E-02  0.3118E-02  0.3094E-02  0.2931E-03  0.2884E-03  0.2930E-03  0.2884E-03  0.9975E-04  0.9753E-04  0.2931E-03  0.2884E-03  0.1173E-03  0.1145E-03
     -1.189  0.2157E-01  0.2166E-01  0.3040E-02  0.3047E-02  0.3040E-02  0.3047E-02  0.3040E-02  0.3048E-02  0.3046E-03  0.3000E-03  0.3045E-03  0.2999E-03  0.9597E-04  0.9529E-04  0.3046E-03  0.3000E-03  0.1142E-03  0.1132E-03
     -1.133  0.2081E-01  0.2060E-01  0.3116E-02  0.3080E-02  0.3116E-02  0.3080E-02  0.3114E-02  0.3078E-02  0.3497E-03  0.3394E-03  0.3499E-03  0.3396E-03  0.9457E-04  0.9259E-04  0.3497E-03  0.3394E-03  0.1129E-03  0.1105E-03
     -1.076  0.2086E-01  0.2085E-01  0.3283E-02  0.3280E-02  0.3283E-02  0.3280E-02  0.3283E-02  0.3279E-02  0.3933E-03  0.3887E-03  0.3934E-03  0.3888E-03  0.9924E-04  0.9769E-04  0.3933E-03  0.3887E-03  0.1181E-03  0.1163E-03
     -1.020  0.1757E-01  0.1792E-01  0.2908E-02  0.2961E-02  0.2908E-02  0.2961E-02  0.2912E-02  0.2966E-02  0.3691E-03  0.3698E-03  0.3691E-03  0.3698E-03  0.8917E-04  0.8963E-04  0.3691E-03  0.3698E-03  0.1046E-03  0.1054E-03
     -0.964  0.1491E-01  0.1487E-01  0.2667E-02  0.2646E-02  0.2667E-02  0.2646E-02  0.2665E-02  0.2646E-02  0.3868E-03  0.3749E-03  0.3875E-03  0.3755E-03  0.7851E-04  0.7755E-04  0.3868E-03  0.3749E-03  0.8849E-04  0.8786E-04
     -0.908  0.1681E-01  0.1629E-01  0.3311E-02  0.3194E-02  0.3311E-02  0.3194E-02  0.3297E-02  0.3181E-02  0.5256E-03  0.5009E-03  0.5269E-03  0.5020E-03  0.9020E-04  0.8662E-04  0.5256E-03  0.5009E-03  0.9911E-04  0.9524E-04
     -0.852  0.2006E-01  0.1962E-01  0.4402E-02  0.4278E-02  0.4402E-02  0.4278E-02  0.4380E-02  0.4257E-02  0.6869E-03  0.6656E-03  0.6875E-03  0.6664E-03  0.1131E-03  0.1091E-03  0.6869E-03  0.6656E-03  0.1256E-03  0.1209E-03
     -0.796  0.2065E-01  0.2061E-01  0.5197E-02  0.5138E-02  0.5197E-02  0.5138E-02  0.5178E-02  0.5118E-02  0.7519E-03  0.7440E-03  0.7517E-03  0.7439E-03  0.1278E-03  0.1252E-03  0.7519E-03  0.7440E-03  0.1448E-03  0.1415E-03
     -0.740  0.1818E-01  0.1840E-01  0.5305E-02  0.5317E-02  0.5305E-02  0.5317E-02  0.5299E-02  0.5310E-02  0.7233E-03  0.7218E-03  0.7229E-03  0.7213E-03  0.1241E-03  0.1233E-03  0.7233E-03  0.7218E-03  0.1429E-03  0.1417E-03
     -0.684  0.1531E-01  0.1543E-01  0.5077E-02  0.5082E-02  0.5077E-02  0.5082E-02  0.5075E-02  0.5080E-02  0.7124E-03  0.7035E-03  0.7128E-03  0.7038E-03  0.1128E-03  0.1116E-03  0.7124E-03  0.7035E-03  0.1317E-03  0.1301E-03