   4   4   1   0
  0.1570379E+02  0.3974277E-09  0.3975604E-09  0.3975604E-09  0.5000000E-15
  1.000000000000000E-004
  CAR 
 unknown system                          
     12.92451564     -3.59355758  301      7.85377671      1.00000000
     -3.594  0.0000E+00  0.0000E+00  0.0000E+00  0.0000E+00
     -3.538  0.0000E+00  0.0000E+00  0.0000E+00  0.0000E+00
     -3.483  0.0000E+00  0.0000E+00  0.0000E+00  0.0000E+00
     -3.428  0.0000E+00  0.0000E+00  0.0000E+00  0.0000E+00
     -3.373  0.0000E+00  0.0000E+00  0.0000E+00  0.0000E+00
     -3.318  0.0000E+00  0.0000E+00  0.0000E+00  0.0000E+00
     -3.263  0.1841E-05  0.1490E-05  0.1014E-06  0.8203E-07
     -3.208  0.1450E-04  0.1174E-04  0.8998E-06  0.7283E-06
     -3.153  0.5396E-04  0.4370E-04  0.3871E-05  0.3134E-05
     -3.098  0.1547E-03  0.1253E-03  0.1239E-04  0.1003E-04
     -3.043  0.4588E-03  0.3721E-03  0.3765E-04  0.3052E-04
     -2.988  0.1385E-02  0.1127E-02  0.1139E-03  0.9259E-04
     -2.933  0.3962E-02  0.3253E-02  0.3321E-03  0.2717E-03
     -2.878  0.1044E-01  0.8746E-02  0.9068E-03  0.7533E-03
     -2.823  0.2379E-01  0.2063E-01  0.2217E-02  0.1889E-02
     -2.768  0.4367E-01  0.3963E-01  0.4621E-02  0.4071E-02
     -2.713  0.6330E-01  0.5997E-01  0.8107E-02  0.7373E-02
     -2.658  0.7833E-01  0.7561E-01  0.1242E-01  0.1154E-01
     -2.602  0.9666E-01  0.9257E-01  0.1774E-01  0.1663E-01
     -2.547  0.1196E+00  0.1158E+00  0.2432E-01  0.2301E-01
     -2.492  0.1273E+00  0.1277E+00  0.3134E-01  0.3004E-01
     -2.437  0.1202E+00  0.1213E+00  0.3795E-01  0.3672E-01
     -2.382  0.1300E+00  0.1261E+00  0.4511E-01  0.4366E-01
     -2.327  0.1593E+00  0.1539E+00  0.5389E-01  0.5214E-01
     -2.272  0.1779E+00  0.1763E+00  0.6369E-01  0.6185E-01
     -2.217  0.1765E+00  0.1778E+00  0.7341E-01  0.7164E-01
     -2.162  0.1733E+00  0.1731E+00  0.8297E-01  0.8117E-01
     -2.107  0.1867E+00  0.1836E+00  0.9326E-01  0.9128E-01
     -2.052  0.1959E+00  0.1964E+00  0.1040E+00  0.1021E+00
     -1.997  0.1807E+00  0.1840E+00  0.1140E+00  0.1122E+00
     -1.942  0.1862E+00  0.1818E+00  0.1243E+00  0.1222E+00
     -1.887  0.2283E+00  0.2203E+00  0.1368E+00  0.1344E+00
     -1.832  0.2558E+00  0.2537E+00  0.1509E+00  0.1484E+00
     -1.777  0.2554E+00  0.2564E+00  0.1650E+00  0.1625E+00
     -1.722  0.2536E+00  0.2538E+00  0.1790E+00  0.1765E+00
     -1.666  0.2468E+00  0.2500E+00  0.1926E+00  0.1902E+00
     -1.611  0.2180E+00  0.2241E+00  0.2046E+00  0.2026E+00
     -1.556  0.2016E+00  0.2014E+00  0.2157E+00  0.2137E+00
     -1.501  0.2382E+00  0.2287E+00  0.2288E+00  0.2262E+00
     -1.446  0.3033E+00  0.2931E+00  0.2455E+00  0.2424E+00
     -1.391  0.3341E+00  0.3336E+00  0.2639E+00  0.2608E+00
     -1.336  0.3168E+00  0.3208E+00  0.2814E+00  0.2784E+00
     -1.281  0.3161E+00  0.3139E+00  0.2988E+00  0.2957E+00
     -1.226  0.3214E+00  0.3241E+00  0.3165E+00  0.3136E+00
     -1.171  0.2778E+00  0.2873E+00  0.3318E+00  0.3294E+00
     -1.116  0.2510E+00  0.2505E+00  0.3456E+00  0.3432E+00
     -1.061  0.3002E+00  0.2883E+00  0.3622E+00  0.3591E+00
     -1.006  0.3774E+00  0.3666E+00  0.3830E+00  0.3793E+00
     -0.951  0.4179E+00  0.4167E+00  0.4060E+00  0.4023E+00
     -0.896  0.4027E+00  0.4090E+00  0.4282E+00  0.4248E+00
     -0.841  0.3719E+00  0.3760E+00  0.4487E+00  0.4455E+00
     -0.785  0.3655E+00  0.3660E+00  0.4688E+00  0.4657E+00
     -0.730  0.3629E+00  0.3636E+00  0.4888E+00  0.4857E+00
     -0.675  0.3689E+00  0.3644E+00  0.5091E+00  0.5058E+00
     -0.620  0.4081E+00  0.4002E+00  0.5316E+00  0.5278E+00
     -0.565  0.4369E+00  0.4360E+00  0.5557E+00  0.5518E+00
     -0.510  0.4236E+00  0.4289E+00  0.5790E+00  0.5755E+00
     -0.455  0.3740E+00  0.3840E+00  0.5996E+00  0.5966E+00
     -0.400  0.3027E+00  0.3133E+00  0.6163E+00  0.6139E+00
     -0.345  0.2628E+00  0.2657E+00  0.6308E+00  0.6285E+00
     -0.290  0.2721E+00  0.2666E+00  0.6457E+00  0.6432E+00
     -0.235  0.3331E+00  0.3192E+00  0.6641E+00  0.6608E+00
     -0.180  0.4035E+00  0.3961E+00  0.6863E+00  0.6826E+00
     -0.125  0.3897E+00  0.3981E+00  0.7078E+00  0.7046E+00
     -0.070  0.3271E+00  0.3359E+00  0.7258E+00  0.7231E+00
     -0.015  0.2878E+00  0.2913E+00  0.7417E+00  0.7391E+00
      0.040  0.2586E+00  0.2596E+00  0.7559E+00  0.7534E+00
      0.095  0.2659E+00  0.2546E+00  0.7706E+00  0.7674E+00
      0.151  0.3520E+00  0.3293E+00  0.7899E+00  0.7856E+00
      0.206  0.4632E+00  0.4456E+00  0.8155E+00  0.8101E+00
      0.261  0.5021E+00  0.5025E+00  0.8431E+00  0.8378E+00
      0.316  0.4479E+00  0.4579E+00  0.8678E+00  0.8630E+00
      0.371  0.3796E+00  0.3910E+00  0.8887E+00  0.8846E+00
      0.426  0.3173E+00  0.3301E+00  0.9062E+00  0.9028E+00
      0.481  0.2905E+00  0.2890E+00  0.9222E+00  0.9187E+00
      0.536  0.3534E+00  0.3333E+00  0.9417E+00  0.9370E+00
      0.591  0.4510E+00  0.4340E+00  0.9665E+00  0.9609E+00
      0.646  0.4677E+00  0.4741E+00  0.9923E+00  0.9871E+00
      0.701  0.3939E+00  0.4102E+00  0.1014E+01  0.1010E+01
      0.756  0.3485E+00  0.3492E+00  0.1033E+01  0.1029E+01
      0.811  0.3568E+00  0.3529E+00  0.1053E+01  0.1048E+01
      0.866  0.3669E+00  0.3634E+00  0.1073E+01  0.1068E+01
      0.921  0.4267E+00  0.4072E+00  0.1097E+01  0.1091E+01
      0.976  0.5384E+00  0.5158E+00  0.1126E+01  0.1119E+01
      1.032  0.5648E+00  0.5716E+00  0.1157E+01  0.1151E+01
      1.087  0.4686E+00  0.4936E+00  0.1183E+01  0.1178E+01
      1.142  0.3752E+00  0.3907E+00  0.1204E+01  0.1199E+01
      1.197  0.3325E+00  0.3381E+00  0.1222E+01  0.1218E+01
      1.252  0.3308E+00  0.3280E+00  0.1240E+01  0.1236E+01
      1.307  0.3767E+00  0.3629E+00  0.1261E+01  0.1256E+01
      1.362  0.4778E+00  0.4544E+00  0.1287E+01  0.1281E+01
      1.417  0.5435E+00  0.5412E+00  0.1317E+01  0.1311E+01
      1.472  0.4759E+00  0.4977E+00  0.1344E+01  0.1338E+01
      1.527  0.4099E+00  0.4155E+00  0.1366E+01  0.1361E+01
      1.582  0.4366E+00  0.4249E+00  0.1390E+01  0.1385E+01
      1.637  0.4868E+00  0.4755E+00  0.1417E+01  0.1411E+01
      1.692  0.5391E+00  0.5279E+00  0.1447E+01  0.1440E+01
      1.747  0.6148E+00  0.6017E+00  0.1481E+01  0.1473E+01
      1.802  0.6745E+00  0.6717E+00  0.1518E+01  0.1510E+01
      1.857  0.6454E+00  0.6594E+00  0.1553E+01  0.1546E+01
      1.912  0.5916E+00  0.5962E+00  0.1586E+01  0.1579E+01
      1.968  0.6273E+00  0.6103E+00  0.1620E+01  0.1613E+01
      2.023  0.6798E+00  0.6696E+00  0.1658E+01  0.1650E+01
      2.078  0.6655E+00  0.6737E+00  0.1695E+01  0.1687E+01
      2.133  0.5978E+00  0.6155E+00  0.1728E+01  0.1721E+01
      2.188  0.5147E+00  0.5288E+00  0.1756E+01  0.1750E+01
      2.243  0.4737E+00  0.4771E+00  0.1782E+01  0.1776E+01
      2.298  0.5170E+00  0.5030E+00  0.1810E+01  0.1804E+01
      2.353  0.6241E+00  0.5970E+00  0.1845E+01  0.1837E+01
      2.408  0.7014E+00  0.6834E+00  0.1884E+01  0.1874E+01
      2.463  0.6793E+00  0.6868E+00  0.1921E+01  0.1912E+01
      2.518  0.6023E+00  0.6181E+00  0.1954E+01  0.1946E+01
      2.573  0.5553E+00  0.5561E+00  0.1985E+01  0.1977E+01
      2.628  0.5763E+00  0.5599E+00  0.2016E+01  0.2008E+01
      2.683  0.6567E+00  0.6304E+00  0.2053E+01  0.2043E+01
      2.738  0.7270E+00  0.7124E+00  0.2093E+01  0.2082E+01
      2.793  0.7092E+00  0.7182E+00  0.2132E+01  0.2121E+01
      2.848  0.6631E+00  0.6715E+00  0.2168E+01  0.2158E+01
      2.904  0.6285E+00  0.6370E+00  0.2203E+01  0.2193E+01
      2.959  0.5768E+00  0.5854E+00  0.2235E+01  0.2226E+01
      3.014  0.5591E+00  0.5446E+00  0.2266E+01  0.2256E+01
      3.069  0.6124E+00  0.5837E+00  0.2299E+01  0.2288E+01
      3.124  0.6439E+00  0.6407E+00  0.2335E+01  0.2323E+01
      3.179  0.6219E+00  0.6303E+00  0.2369E+01  0.2358E+01
      3.234  0.5959E+00  0.6031E+00  0.2402E+01  0.2391E+01
      3.289  0.5333E+00  0.5545E+00  0.2431E+01  0.2422E+01
      3.344  0.4850E+00  0.4912E+00  0.2458E+01  0.2449E+01
      3.399  0.5192E+00  0.5006E+00  0.2487E+01  0.2476E+01
      3.454  0.5580E+00  0.5430E+00  0.2517E+01  0.2506E+01
      3.509  0.5857E+00  0.5667E+00  0.2550E+01  0.2537E+01
      3.564  0.6199E+00  0.6011E+00  0.2584E+01  0.2571E+01
      3.619  0.6284E+00  0.6213E+00  0.2618E+01  0.2605E+01
      3.674  0.6208E+00  0.6195E+00  0.2653E+01  0.2639E+01
      3.729  0.6428E+00  0.6284E+00  0.2688E+01  0.2674E+01
      3.785  0.7135E+00  0.6808E+00  0.2727E+01  0.2711E+01
      3.840  0.8126E+00  0.7742E+00  0.2772E+01  0.2754E+01
      3.895  0.8699E+00  0.8563E+00  0.2820E+01  0.2801E+01
      3.950  0.8216E+00  0.8462E+00  0.2865E+01  0.2848E+01
      4.005  0.7080E+00  0.7473E+00  0.2904E+01  0.2889E+01
      4.060  0.6114E+00  0.6367E+00  0.2938E+01  0.2924E+01
      4.115  0.6023E+00  0.5918E+00  0.2971E+01  0.2956E+01
      4.170  0.6484E+00  0.6249E+00  0.3007E+01  0.2991E+01
      4.225  0.7094E+00  0.6703E+00  0.3046E+01  0.3028E+01
      4.280  0.8206E+00  0.7519E+00  0.3091E+01  0.3069E+01
      4.335  0.9549E+00  0.8936E+00  0.3144E+01  0.3118E+01
      4.390  0.9887E+00  0.9883E+00  0.3198E+01  0.3173E+01
      4.445  0.8757E+00  0.9329E+00  0.3246E+01  0.3224E+01
      4.500  0.7732E+00  0.7961E+00  0.3289E+01  0.3268E+01
      4.555  0.8624E+00  0.7831E+00  0.3337E+01  0.3311E+01
      4.610  0.1042E+01  0.9497E+00  0.3394E+01  0.3363E+01
      4.665  0.1129E+01  0.1099E+01  0.3456E+01  0.3424E+01
      4.721  0.1058E+01  0.1101E+01  0.3514E+01  0.3485E+01
      4.776  0.9189E+00  0.9654E+00  0.3565E+01  0.3538E+01
      4.831  0.8798E+00  0.8605E+00  0.3614E+01  0.3585E+01
      4.886  0.9317E+00  0.8655E+00  0.3665E+01  0.3633E+01
      4.941  0.1027E+01  0.9426E+00  0.3721E+01  0.3685E+01
      4.996  0.1113E+01  0.1058E+01  0.3783E+01  0.3743E+01
      5.051  0.1149E+01  0.1136E+01  0.3846E+01  0.3806E+01
      5.106  0.1144E+01  0.1144E+01  0.3909E+01  0.3869E+01
      5.161  0.1141E+01  0.1109E+01  0.3972E+01  0.3930E+01
      5.216  0.1202E+01  0.1102E+01  0.4038E+01  0.3991E+01
      5.271  0.1330E+01  0.1181E+01  0.4111E+01  0.4056E+01
      5.326  0.1435E+01  0.1323E+01  0.4190E+01  0.4129E+01
      5.381  0.1330E+01  0.1409E+01  0.4264E+01  0.4206E+01
      5.436  0.1070E+01  0.1259E+01  0.4323E+01  0.4275E+01
      5.491  0.9829E+00  0.9951E+00  0.4377E+01  0.4330E+01
      5.546  0.1202E+01  0.9444E+00  0.4443E+01  0.4382E+01
      5.602  0.1612E+01  0.1210E+01  0.4532E+01  0.4449E+01
      5.657  0.1996E+01  0.1662E+01  0.4642E+01  0.4541E+01
      5.712  0.2133E+01  0.2032E+01  0.4759E+01  0.4652E+01
      5.767  0.1894E+01  0.2104E+01  0.4864E+01  0.4768E+01
      5.822  0.1469E+01  0.1828E+01  0.4944E+01  0.4869E+01
      5.877  0.1216E+01  0.1403E+01  0.5011E+01  0.4946E+01
      5.932  0.1098E+01  0.1151E+01  0.5072E+01  0.5010E+01
      5.987  0.1039E+01  0.1060E+01  0.5129E+01  0.5068E+01
      6.042  0.1115E+01  0.1014E+01  0.5191E+01  0.5124E+01
      6.097  0.1174E+01  0.1068E+01  0.5255E+01  0.5183E+01
      6.152  0.1077E+01  0.1137E+01  0.5315E+01  0.5246E+01
      6.207  0.9392E+00  0.1074E+01  0.5367E+01  0.5305E+01
      6.262  0.8658E+00  0.9404E+00  0.5414E+01  0.5357E+01
      6.317  0.8368E+00  0.8550E+00  0.5460E+01  0.5404E+01
      6.372  0.8357E+00  0.8210E+00  0.5506E+01  0.5449E+01
      6.427  0.8890E+00  0.8068E+00  0.5555E+01  0.5493E+01
      6.482  0.9316E+00  0.8502E+00  0.5607E+01  0.5540E+01
      6.538  0.9066E+00  0.9001E+00  0.5657E+01  0.5590E+01
      6.593  0.8712E+00  0.8915E+00  0.5705E+01  0.5639E+01
      6.648  0.8917E+00  0.8530E+00  0.5754E+01  0.5686E+01
      6.703  0.8456E+00  0.8651E+00  0.5800E+01  0.5734E+01
      6.758  0.7179E+00  0.8706E+00  0.5840E+01  0.5782E+01
      6.813  0.6920E+00  0.7592E+00  0.5878E+01  0.5823E+01
      6.868  0.8204E+00  0.6659E+00  0.5923E+01  0.5860E+01
      6.923  0.9191E+00  0.7295E+00  0.5974E+01  0.5900E+01
      6.978  0.8138E+00  0.8817E+00  0.6019E+01  0.5949E+01
      7.033  0.6481E+00  0.8881E+00  0.6054E+01  0.5998E+01
      7.088  0.6361E+00  0.7299E+00  0.6090E+01  0.6038E+01
      7.143  0.7236E+00  0.6274E+00  0.6129E+01  0.6073E+01
      7.198  0.7748E+00  0.6475E+00  0.6172E+01  0.6108E+01
      7.253  0.8019E+00  0.7008E+00  0.6216E+01  0.6147E+01
      7.308  0.8636E+00  0.7542E+00  0.6264E+01  0.6188E+01
      7.363  0.1007E+01  0.7985E+00  0.6319E+01  0.6232E+01
      7.418  0.1187E+01  0.8720E+00  0.6385E+01  0.6281E+01
      7.474  0.1352E+01  0.1037E+01  0.6459E+01  0.6338E+01
      7.529  0.1436E+01  0.1239E+01  0.6538E+01  0.6406E+01
      7.584  0.1465E+01  0.1389E+01  0.6619E+01  0.6482E+01
      7.639  0.1549E+01  0.1435E+01  0.6704E+01  0.6561E+01
      7.694  0.1706E+01  0.1446E+01  0.6798E+01  0.6641E+01
      7.749  0.1837E+01  0.1539E+01  0.6899E+01  0.6726E+01
      7.804  0.1844E+01  0.1714E+01  0.7001E+01  0.6820E+01
      7.859  0.1768E+01  0.1816E+01  0.7098E+01  0.6920E+01
      7.914  0.1852E+01  0.1776E+01  0.7200E+01  0.7018E+01
      7.969  0.2215E+01  0.1679E+01  0.7322E+01  0.7111E+01
      8.024  0.2787E+01  0.1728E+01  0.7476E+01  0.7206E+01
      8.079  0.3420E+01  0.2016E+01  0.7664E+01  0.7317E+01
      8.134  0.3871E+01  0.2520E+01  0.7877E+01  0.7456E+01
      8.189  0.3877E+01  0.3103E+01  0.8091E+01  0.7627E+01
      8.244  0.3445E+01  0.3610E+01  0.8281E+01  0.7825E+01
      8.299  0.2848E+01  0.3892E+01  0.8438E+01  0.8040E+01
      8.355  0.2277E+01  0.3747E+01  0.8563E+01  0.8246E+01
      8.410  0.1787E+01  0.3196E+01  0.8662E+01  0.8422E+01
      8.465  0.1446E+01  0.2544E+01  0.8741E+01  0.8562E+01
      8.520  0.1229E+01  0.1999E+01  0.8809E+01  0.8672E+01
      8.575  0.1056E+01  0.1612E+01  0.8867E+01  0.8761E+01
      8.630  0.9433E+00  0.1300E+01  0.8919E+01  0.8833E+01
      8.685  0.8796E+00  0.1065E+01  0.8968E+01  0.8892E+01
      8.740  0.8449E+00  0.9447E+00  0.9015E+01  0.8944E+01
      8.795  0.8104E+00  0.8878E+00  0.9059E+01  0.8993E+01
      8.850  0.7532E+00  0.8491E+00  0.9101E+01  0.9040E+01
      8.905  0.7131E+00  0.8011E+00  0.9140E+01  0.9084E+01
      8.960  0.7348E+00  0.7465E+00  0.9181E+01  0.9125E+01
      9.015  0.8015E+00  0.7325E+00  0.9225E+01  0.9166E+01
      9.070  0.8571E+00  0.7769E+00  0.9272E+01  0.9208E+01
      9.125  0.8618E+00  0.8497E+00  0.9319E+01  0.9255E+01
      9.180  0.8963E+00  0.8867E+00  0.9369E+01  0.9304E+01
      9.235  0.1022E+01  0.9163E+00  0.9425E+01  0.9354E+01
      9.291  0.1151E+01  0.1023E+01  0.9488E+01  0.9411E+01
      9.346  0.1201E+01  0.1160E+01  0.9555E+01  0.9475E+01
      9.401  0.1263E+01  0.1213E+01  0.9624E+01  0.9542E+01
      9.456  0.1389E+01  0.1204E+01  0.9701E+01  0.9608E+01
      9.511  0.1501E+01  0.1272E+01  0.9783E+01  0.9678E+01
      9.566  0.1621E+01  0.1407E+01  0.9873E+01  0.9755E+01
      9.621  0.1757E+01  0.1523E+01  0.9969E+01  0.9839E+01
      9.676  0.1788E+01  0.1624E+01  0.1007E+02  0.9929E+01
      9.731  0.1706E+01  0.1747E+01  0.1016E+02  0.1002E+02
      9.786  0.1567E+01  0.1803E+01  0.1025E+02  0.1012E+02
      9.841  0.1317E+01  0.1720E+01  0.1032E+02  0.1022E+02
      9.896  0.1045E+01  0.1494E+01  0.1038E+02  0.1030E+02
      9.951  0.9639E+00  0.1175E+01  0.1043E+02  0.1037E+02
     10.006  0.1046E+01  0.9922E+00  0.1049E+02  0.1042E+02
     10.061  0.1056E+01  0.1023E+01  0.1055E+02  0.1048E+02
     10.116  0.1003E+01  0.1083E+01  0.1060E+02  0.1054E+02
     10.172  0.1053E+01  0.1080E+01  0.1066E+02  0.1060E+02
     10.227  0.1149E+01  0.1102E+01  0.1072E+02  0.1066E+02
     10.282  0.1172E+01  0.1149E+01  0.1079E+02  0.1072E+02
     10.337  0.1070E+01  0.1169E+01  0.1085E+02  0.1078E+02
     10.392  0.9500E+00  0.1106E+01  0.1090E+02  0.1085E+02
     10.447  0.9694E+00  0.1020E+01  0.1095E+02  0.1090E+02
     10.502  0.1006E+01  0.1026E+01  0.1101E+02  0.1096E+02
     10.557  0.9344E+00  0.1040E+01  0.1106E+02  0.1102E+02
     10.612  0.9182E+00  0.1002E+01  0.1111E+02  0.1107E+02
     10.667  0.1082E+01  0.1044E+01  0.1117E+02  0.1113E+02
     10.722  0.1289E+01  0.1198E+01  0.1124E+02  0.1119E+02
     10.777  0.1362E+01  0.1316E+01  0.1132E+02  0.1127E+02
     10.832  0.1320E+01  0.1320E+01  0.1139E+02  0.1134E+02
     10.887  0.1253E+01  0.1277E+01  0.1146E+02  0.1141E+02
     10.942  0.1084E+01  0.1196E+01  0.1152E+02  0.1148E+02
     10.997  0.8266E+00  0.1003E+01  0.1156E+02  0.1153E+02
     11.052  0.6425E+00  0.7770E+00  0.1160E+02  0.1157E+02
     11.108  0.5980E+00  0.6459E+00  0.1163E+02  0.1161E+02
     11.163  0.6117E+00  0.6362E+00  0.1167E+02  0.1164E+02
     11.218  0.6053E+00  0.6499E+00  0.1170E+02  0.1168E+02
     11.273  0.5975E+00  0.6311E+00  0.1173E+02  0.1172E+02
     11.328  0.5933E+00  0.6185E+00  0.1176E+02  0.1175E+02
     11.383  0.5565E+00  0.6006E+00  0.1180E+02  0.1178E+02
     11.438  0.5194E+00  0.5592E+00  0.1182E+02  0.1181E+02
     11.493  0.5408E+00  0.5241E+00  0.1185E+02  0.1184E+02
     11.548  0.6029E+00  0.5474E+00  0.1189E+02  0.1187E+02
     11.603  0.5985E+00  0.5901E+00  0.1192E+02  0.1190E+02
     11.658  0.4827E+00  0.5426E+00  0.1195E+02  0.1193E+02
     11.713  0.3263E+00  0.3970E+00  0.1196E+02  0.1196E+02
     11.768  0.2132E+00  0.2610E+00  0.1198E+02  0.1197E+02
     11.823  0.1354E+00  0.1820E+00  0.1198E+02  0.1198E+02
     11.878  0.8137E-01  0.1168E+00  0.1199E+02  0.1199E+02
     11.933  0.5752E-01  0.6520E-01  0.1199E+02  0.1199E+02
     11.988  0.4875E-01  0.4363E-01  0.1199E+02  0.1199E+02
     12.044  0.3817E-01  0.3532E-01  0.1200E+02  0.1200E+02
     12.099  0.2702E-01  0.2576E-01  0.1200E+02  0.1200E+02
     12.154  0.2046E-01  0.1988E-01  0.1200E+02  0.1200E+02
     12.209  0.1395E-01  0.1642E-01  0.1200E+02  0.1200E+02
     12.264  0.6992E-02  0.1040E-01  0.1200E+02  0.1200E+02
     12.319  0.2729E-02  0.4734E-02  0.1200E+02  0.1200E+02
     12.374  0.9678E-03  0.1780E-02  0.1200E+02  0.1200E+02
     12.429  0.3001E-03  0.5778E-03  0.1200E+02  0.1200E+02
     12.484  0.1006E-03  0.1951E-03  0.1200E+02  0.1200E+02
     12.539  0.3353E-04  0.6522E-04  0.1200E+02  0.1200E+02
     12.594  0.0000E+00  0.0000E+00  0.1200E+02  0.1200E+02
     12.649  0.0000E+00  0.0000E+00  0.1200E+02  0.1200E+02
     12.704  0.0000E+00  0.0000E+00  0.1200E+02  0.1200E+02
     12.759  0.0000E+00  0.0000E+00  0.1200E+02  0.1200E+02
     12.814  0.0000E+00  0.0000E+00  0.1200E+02  0.1200E+02
     12.869  0.0000E+00  0.0000E+00  0.1200E+02  0.1200E+02
     12.925  0.0000E+00  0.0000E+00  0.1200E+02  0.1200E+02
     12.92451564     -3.59355758  301      7.85377671      1.00000000
     -3.594  0.0000E+00  0.0000E+00  0.0000E+00  0.0000E+00  0.0000E+00  0.0000E+00  0.0000E+00  0.0000E+00  0.0000E+00  0.0000E+00  0.0000E+00  0.0000E+00  0.0000E+00  0.0000E+00  0.0000E+00  0.0000E+00  0.0000E+00  0.0000E+00
     -3.538  0.0000E+00  0.0000E+00  0.0000E+00  0.0000E+00  0.0000E+00  0.0000E+00  0.0000E+00  0.0000E+00  0.0000E+00  0.0000E+00  0.0000E+00  0.0000E+00  0.0000E+00  0.0000E+00  0.0000E+00  0.0000E+00  0.0000E+00  0.0000E+00
     -3.483  0.0000E+00  0.0000E+00  0.0000E+00  0.0000E+00  0.0000E+00  0.0000E+00  0.0000E+00  0.0000E+00  0.0000E+00  0.0000E+00  0.0000E+00  0.0000E+00  0.0000E+00  0.0000E+00  0.0000E+00  0.0000E+00  0.0000E+00  0.0000E+00
     -3.428  0.0000E+00  0.0000E+00  0.0000E+00  0.0000E+00  0.0000E+00  0.0000E+00  0.0000E+00  0.0000E+00  0.0000E+00  0.0000E+00  0.0000E+00  0.0000E+00  0.0000E+00  0.0000E+00  0.0000E+00  0.0000E+00  0.0000E+00  0.0000E+00
     -3.373  0.0000E+00  0.0000E+00  0.0000E+00  0.0000E+00  0.0000E+00  0.0000E+00  0.0000E+00  0.0000E+00  0.0000E+00  0.0000E+00  0.0000E+00  0.0000E+00  0.0000E+00  0.0000E+00  0.0000E+00  0.0000E+00  0.0000E+00  0.0000E+00
     -3.318  0.0000E+00  0.0000E+00  0.0000E+00  0.0000E+00  0.0000E+00  0.0000E+00  0.0000E+00  0.0000E+00  0.0000E+00  0.0000E+00  0.0000E+00  0.0000E+00  0.0000E+00  0.0000E+00  0.0000E+00  0.0000E+00  0.0000E+00  0.0000E+00
     -3.263  0.2011E-06  0.1613E-06  0.2825E-22  0.1506E-20  0.2825E-22  0.1506E-20  0.1758E-21  0.2404E-20  0.2819E-15  0.3381E-14  0.6492E-15  0.5116E-15  0.8454E-14  0.1154E-14  0.2819E-15  0.3381E-14  0.7490E-14  0.1300E-14
     -3.208  0.1569E-05  0.1258E-05  0.4008E-08  0.3231E-08  0.4008E-08  0.3231E-08  0.4005E-08  0.3229E-08  0.2126E-13  0.2920E-13  0.4261E-13  0.2340E-14  0.1233E-10  0.9968E-11  0.2126E-13  0.2920E-13  0.1578E-10  0.1279E-10
     -3.153  0.5804E-05  0.4657E-05  0.2363E-07  0.1906E-07  0.2363E-07  0.1906E-07  0.2362E-07  0.1905E-07  0.1188E-09  0.9493E-10  0.1189E-09  0.9491E-10  0.5605E-10  0.4505E-10  0.1188E-09  0.9493E-10  0.5589E-10  0.4513E-10
     -3.098  0.1662E-04  0.1334E-04  0.7061E-07  0.5697E-07  0.7061E-07  0.5697E-07  0.7060E-07  0.5696E-07  0.4730E-09  0.3764E-09  0.4712E-09  0.3767E-09  0.1371E-09  0.1104E-09  0.4730E-09  0.3764E-09  0.1437E-09  0.1162E-09
     -3.043  0.4930E-04  0.3962E-04  0.2118E-06  0.1710E-06  0.2118E-06  0.1710E-06  0.2117E-06  0.1709E-06  0.1187E-08  0.9454E-09  0.1183E-08  0.9458E-09  0.5964E-09  0.4771E-09  0.1187E-08  0.9454E-09  0.6686E-09  0.5360E-09
     -2.988  0.1486E-03  0.1199E-03  0.6908E-06  0.5585E-06  0.6908E-06  0.5585E-06  0.6904E-06  0.5582E-06  0.4476E-08  0.3576E-08  0.4467E-08  0.3578E-08  0.2216E-08  0.1774E-08  0.4476E-08  0.3576E-08  0.2481E-08  0.1989E-08
     -2.933  0.4248E-03  0.3457E-03  0.2047E-05  0.1661E-05  0.2047E-05  0.1661E-05  0.2046E-05  0.1661E-05  0.1447E-07  0.1159E-07  0.1444E-07  0.1160E-07  0.6322E-08  0.5086E-08  0.1447E-07  0.1159E-07  0.7109E-08  0.5731E-08
     -2.878  0.1118E-02  0.9285E-03  0.5716E-05  0.4689E-05  0.5716E-05  0.4689E-05  0.5713E-05  0.4687E-05  0.4041E-07  0.3252E-07  0.4033E-07  0.3254E-07  0.1767E-07  0.1433E-07  0.4041E-07  0.3252E-07  0.1977E-07  0.1608E-07
     -2.823  0.2541E-02  0.2185E-02  0.1483E-04  0.1245E-04  0.1483E-04  0.1245E-04  0.1483E-04  0.1244E-04  0.1150E-06  0.9366E-07  0.1148E-06  0.9373E-07  0.4727E-07  0.3900E-07  0.1150E-06  0.9366E-07  0.5262E-07  0.4350E-07
     -2.768  0.4644E-02  0.4179E-02  0.3277E-04  0.2849E-04  0.3277E-04  0.2849E-04  0.3275E-04  0.2848E-04  0.2941E-06  0.2457E-06  0.2934E-06  0.2459E-06  0.1135E-06  0.9541E-07  0.2941E-06  0.2457E-06  0.1271E-06  0.1067E-06
     -2.713  0.6683E-02  0.6282E-02  0.5983E-04  0.5382E-04  0.5983E-04  0.5382E-04  0.5980E-04  0.5379E-04  0.6290E-06  0.5437E-06  0.6276E-06  0.5442E-06  0.2527E-06  0.2139E-06  0.6290E-06  0.5437E-06  0.2911E-06  0.2449E-06
     -2.658  0.8178E-02  0.7839E-02  0.9703E-04  0.8848E-04  0.9703E-04  0.8848E-04  0.9696E-04  0.8842E-04  0.1187E-05  0.1046E-05  0.1186E-05  0.1046E-05  0.5435E-06  0.4627E-06  0.1187E-05  0.1046E-05  0.6452E-06  0.5471E-06
     -2.602  0.9958E-02  0.9470E-02  0.1534E-03  0.1404E-03  0.1534E-03  0.1404E-03  0.1533E-03  0.1403E-03  0.2194E-05  0.1937E-05  0.2194E-05  0.1938E-05  0.1046E-05  0.9202E-06  0.2194E-05  0.1937E-05  0.1251E-05  0.1101E-05
     -2.547  0.1218E-01  0.1171E-01  0.2232E-03  0.2098E-03  0.2232E-03  0.2098E-03  0.2232E-03  0.2098E-03  0.3839E-05  0.3471E-05  0.3839E-05  0.3472E-05  0.1591E-05  0.1475E-05  0.3839E-05  0.3471E-05  0.1891E-05  0.1758E-05
     -2.492  0.1285E-01  0.1279E-01  0.2686E-03  0.2620E-03  0.2686E-03  0.2620E-03  0.2686E-03  0.2619E-03  0.5632E-05  0.5277E-05  0.5634E-05  0.5277E-05  0.1949E-05  0.1863E-05  0.5632E-05  0.5277E-05  0.2276E-05  0.2188E-05
     -2.437  0.1195E-01  0.1198E-01  0.2958E-03  0.2875E-03  0.2958E-03  0.2875E-03  0.2957E-03  0.2874E-03  0.7530E-05  0.7045E-05  0.7534E-05  0.7047E-05  0.2496E-05  0.2305E-05  0.7530E-05  0.7045E-05  0.2823E-05  0.2625E-05
     -2.382  0.1268E-01  0.1222E-01  0.3805E-03  0.3571E-03  0.3805E-03  0.3571E-03  0.3801E-03  0.3567E-03  0.1092E-04  0.1006E-04  0.1093E-04  0.1006E-04  0.4057E-05  0.3608E-05  0.1092E-04  0.1006E-04  0.4584E-05  0.4066E-05
     -2.327  0.1530E-01  0.1468E-01  0.5220E-03  0.4936E-03  0.5220E-03  0.4936E-03  0.5214E-03  0.4930E-03  0.1526E-04  0.1435E-04  0.1527E-04  0.1435E-04  0.6750E-05  0.6101E-05  0.1526E-04  0.1435E-04  0.7881E-05  0.7081E-05
     -2.272  0.1689E-01  0.1661E-01  0.6308E-03  0.6136E-03  0.6308E-03  0.6136E-03  0.6304E-03  0.6132E-03  0.1876E-04  0.1795E-04  0.1877E-04  0.1795E-04  0.9355E-05  0.8821E-05  0.1876E-04  0.1795E-04  0.1123E-04  0.1055E-04
     -2.217  0.1653E-01  0.1653E-01  0.6767E-03  0.6684E-03  0.6767E-03  0.6684E-03  0.6767E-03  0.6684E-03  0.2318E-04  0.2191E-04  0.2320E-04  0.2192E-04  0.1032E-04  0.1012E-04  0.2318E-04  0.2191E-04  0.1244E-04  0.1222E-04
     -2.162  0.1596E-01  0.1583E-01  0.7251E-03  0.7089E-03  0.7251E-03  0.7089E-03  0.7251E-03  0.7090E-03  0.3131E-04  0.2914E-04  0.3133E-04  0.2916E-04  0.1042E-04  0.1019E-04  0.3131E-04  0.2914E-04  0.1218E-04  0.1201E-04
     -2.107  0.1690E-01  0.1650E-01  0.8466E-03  0.8178E-03  0.8466E-03  0.8178E-03  0.8462E-03  0.8175E-03  0.4307E-04  0.4041E-04  0.4308E-04  0.4044E-04  0.1185E-04  0.1130E-04  0.4307E-04  0.4041E-04  0.1333E-04  0.1278E-04
     -2.052  0.1749E-01  0.1740E-01  0.9424E-03  0.9309E-03  0.9424E-03  0.9309E-03  0.9419E-03  0.9305E-03  0.5096E-04  0.4971E-04  0.5093E-04  0.4970E-04  0.1400E-04  0.1341E-04  0.5096E-04  0.4971E-04  0.1580E-04  0.1508E-04
     -1.997  0.1584E-01  0.1603E-01  0.9330E-03  0.9310E-03  0.9330E-03  0.9310E-03  0.9319E-03  0.9302E-03  0.4983E-04  0.4965E-04  0.4980E-04  0.4962E-04  0.1673E-04  0.1578E-04  0.4983E-04  0.4965E-04  0.1960E-04  0.1835E-04
     -1.942  0.1589E-01  0.1543E-01  0.1056E-02  0.1010E-02  0.1056E-02  0.1010E-02  0.1053E-02  0.1008E-02  0.5525E-04  0.5239E-04  0.5528E-04  0.5240E-04  0.2347E-04  0.2149E-04  0.5525E-04  0.5239E-04  0.2835E-04  0.2589E-04
     -1.887  0.1909E-01  0.1828E-01  0.1376E-02  0.1311E-02  0.1376E-02  0.1311E-02  0.1374E-02  0.1309E-02  0.7589E-04  0.7072E-04  0.7598E-04  0.7080E-04  0.3307E-04  0.3087E-04  0.7589E-04  0.7072E-04  0.3986E-04  0.3730E-04
     -1.832  0.2110E-01  0.2076E-01  0.1601E-02  0.1570E-02  0.1601E-02  0.1570E-02  0.1601E-02  0.1570E-02  0.9787E-04  0.9322E-04  0.9796E-04  0.9330E-04  0.3866E-04  0.3741E-04  0.9787E-04  0.9322E-04  0.4551E-04  0.4427E-04
     -1.777  0.2074E-01  0.2066E-01  0.1663E-02  0.1650E-02  0.1663E-02  0.1650E-02  0.1663E-02  0.1650E-02  0.1150E-03  0.1107E-03  0.1150E-03  0.1107E-03  0.3963E-04  0.3875E-04  0.1150E-03  0.1107E-03  0.4551E-04  0.4465E-04
     -1.722  0.2022E-01  0.2008E-01  0.1727E-02  0.1707E-02  0.1727E-02  0.1707E-02  0.1727E-02  0.1707E-02  0.1323E-03  0.1274E-03  0.1323E-03  0.1274E-03  0.4086E-04  0.3977E-04  0.1323E-03  0.1274E-03  0.4682E-04  0.4552E-04
     -1.666  0.1934E-01  0.1944E-01  0.1743E-02  0.1747E-02  0.1743E-02  0.1747E-02  0.1744E-02  0.1748E-02  0.1476E-03  0.1439E-03  0.1475E-03  0.1438E-03  0.3947E-04  0.3929E-04  0.1476E-03  0.1439E-03  0.4558E-04  0.4533E-04
     -1.611  0.1678E-01  0.1713E-01  0.1597E-02  0.1621E-02  0.1597E-02  0.1621E-02  0.1598E-02  0.1623E-02  0.1504E-03  0.1487E-03  0.1503E-03  0.1486E-03  0.3391E-04  0.3401E-04  0.1504E-03  0.1487E-03  0.3925E-04  0.3936E-04
     -1.556  0.1501E-01  0.1493E-01  0.1573E-02  0.1544E-02  0.1573E-02  0.1544E-02  0.1570E-02  0.1542E-02  0.1562E-03  0.1514E-03  0.1563E-03  0.1515E-03  0.3595E-04  0.3369E-04  0.1562E-03  0.1514E-03  0.4180E-04  0.3917E-04
     -1.501  0.1703E-01  0.1627E-01  0.1991E-02  0.1883E-02  0.1991E-02  0.1883E-02  0.1984E-02  0.1877E-02  0.1933E-03  0.1820E-03  0.1936E-03  0.1824E-03  0.5413E-04  0.4873E-04  0.1933E-03  0.1820E-03  0.6306E-04  0.5682E-04
     -1.446  0.2107E-01  0.2021E-01  0.2650E-02  0.2534E-02  0.2650E-02  0.2534E-02  0.2642E-02  0.2526E-02  0.2487E-03  0.2361E-03  0.2489E-03  0.2365E-03  0.8043E-04  0.7418E-04  0.2487E-03  0.2361E-03  0.9381E-04  0.8653E-04
     -1.391  0.2271E-01  0.2249E-01  0.3007E-02  0.2974E-02  0.3007E-02  0.2974E-02  0.3005E-02  0.2972E-02  0.2832E-03  0.2760E-03  0.2830E-03  0.2760E-03  0.9478E-04  0.9136E-04  0.2832E-03  0.2760E-03  0.1115E-03  0.1074E-03
     -1.336  0.2103E-01  0.2114E-01  0.2937E-02  0.2944E-02  0.2937E-02  0.2944E-02  0.2938E-02  0.2946E-02  0.2963E-03  0.2891E-03  0.2962E-03  0.2889E-03  0.9131E-04  0.8991E-04  0.2963E-03  0.2891E-03  0.1086E-03  0.1068E-03
     -1.281  0.2040E-01  0.2010E-01  0.3025E-02  0.2975E-02  0.3025E-02  0.2975E-02  0.3022E-02  0.2975E-02  0.3406E-03  0.3262E-03  0.3408E-03  0.3263E-03  0.9066E-04  0.8760E-04  0.3406E-03  0.3262E-03  0.1082E-03  0.1046E-03
     -1.226  0.2024E-01  0.2023E-01  0.3154E-02  0.3153E-02  0.3154E-02  0.3153E-02  0.3154E-02  0.3153E-02  0.3785E-03  0.3718E-03  0.3786E-03  0.3719E-03  0.9431E-04  0.9191E-04  0.3785E-03  0.3718E-03  0.1121E-03  0.1094E-03
     -1.171  0.1703E-01  0.1748E-01  0.2795E-02  0.2864E-02  0.2795E-02  0.2864E-02  0.2799E-02  0.2869E-02  0.3570E-03  0.3566E-03  0.3570E-03  0.3566E-03  0.8448E-04  0.8463E-04  0.3570E-03  0.3566E-03  0.9890E-04  0.9951E-04
     -1.116  0.1472E-01  0.1463E-01  0.2620E-02  0.2586E-02  0.2620E-02  0.2586E-02  0.2617E-02  0.2585E-02  0.3812E-03  0.3633E-03  0.3819E-03  0.3639E-03  0.7577E-04  0.7395E-04  0.3812E-03  0.3633E-03  0.8530E-04  0.8389E-04
     -1.061  0.1667E-01  0.1593E-01  0.3273E-02  0.3109E-02  0.3273E-02  0.3109E-02  0.3259E-02  0.3097E-02  0.5162E-03  0.4811E-03  0.5172E-03  0.4823E-03  0.8769E-04  0.8240E-04  0.5162E-03  0.4811E-03  0.9651E-04  0.9081E-04
     -1.006  0.1967E-01  0.1905E-01  0.4314E-02  0.4142E-02  0.4314E-02  0.4142E-02  0.4293E-02  0.4122E-02  0.6659E-03  0.6357E-03  0.6664E-03  0.6364E-03  0.1091E-03  0.1032E-03  0.6659E-03  0.6357E-03  0.1213E-03  0.1145E-03
     -0.951  0.2007E-01  0.2000E-01  0.5045E-02  0.4966E-02  0.5045E-02  0.4966E-02  0.5027E-02  0.4948E-02  0.7238E-03  0.7119E-03  0.7236E-03  0.7118E-03  0.1219E-03  0.1181E-03  0.7238E-03  0.7119E-03  0.1383E-03  0.1336E-03
     -0.896  0.1763E-01  0.1791E-01  0.5117E-02  0.5135E-02  0.5117E-02  0.5135E-02  0.5112E-02  0.5129E-02  0.6981E-03  0.6946E-03  0.6977E-03  0.6942E-03  0.1176E-03  0.1161E-03  0.6981E-03  0.6946E-03  0.1355E-03  0.1335E-03
     -0.841  0.1491E-01  0.1507E-01  0.4910E-02  0.4914E-02  0.4910E-02  0.4914E-02  0.4908E-02  0.4913E-02  0.6932E-03  0.6794E-03  0.6936E-03  0.6797E-03  0.1073E-03  0.1053E-03  0.6932E-03  0.6794E-03  0.1253E-03  0.1226E-03