   4   4   1   0
  0.1190290E+02  0.3623606E-09  0.3624816E-09  0.3624816E-09  0.5000000E-15
  1.000000000000000E-004
  CAR 
 unknown system                          
     18.03303677     -2.45877945  301     10.93949438      1.00000000
     -2.459  0.0000E+00  0.0000E+00  0.0000E+00  0.0000E+00
     -2.390  0.0000E+00  0.0000E+00  0.0000E+00  0.0000E+00
     -2.322  0.0000E+00  0.0000E+00  0.0000E+00  0.0000E+00
     -2.254  0.0000E+00  0.0000E+00  0.0000E+00  0.0000E+00
     -2.186  0.0000E+00  0.0000E+00  0.0000E+00  0.0000E+00
     -2.117  0.0000E+00  0.0000E+00  0.0000E+00  0.0000E+00
     -2.049  0.0000E+00  0.0000E+00  0.0000E+00  0.0000E+00
     -1.981  0.7682E-06  0.7697E-06  0.5247E-07  0.5257E-07
     -1.912  0.6805E-05  0.6818E-05  0.5173E-06  0.5183E-06
     -1.844  0.3117E-04  0.3123E-04  0.2646E-05  0.2651E-05
     -1.776  0.1188E-03  0.1191E-03  0.1076E-04  0.1078E-04
     -1.707  0.4595E-03  0.4604E-03  0.4215E-04  0.4223E-04
     -1.639  0.1747E-02  0.1750E-02  0.1615E-03  0.1618E-03
     -1.571  0.6031E-02  0.6041E-02  0.5735E-03  0.5744E-03
     -1.502  0.1707E-01  0.1709E-01  0.1740E-02  0.1742E-02
     -1.434  0.3586E-01  0.3589E-01  0.4189E-02  0.4193E-02
     -1.366  0.5371E-01  0.5373E-01  0.7858E-02  0.7863E-02
     -1.298  0.6340E-01  0.6341E-01  0.1219E-01  0.1219E-01
     -1.229  0.7870E-01  0.7872E-01  0.1756E-01  0.1757E-01
     -1.161  0.1046E+00  0.1046E+00  0.2471E-01  0.2472E-01
     -1.093  0.1086E+00  0.1086E+00  0.3213E-01  0.3214E-01
     -1.024  0.9172E-01  0.9171E-01  0.3840E-01  0.3840E-01
     -0.956  0.1039E+00  0.1039E+00  0.4550E-01  0.4550E-01
     -0.888  0.1389E+00  0.1389E+00  0.5498E-01  0.5499E-01
     -0.819  0.1531E+00  0.1531E+00  0.6544E-01  0.6545E-01
     -0.751  0.1440E+00  0.1440E+00  0.7528E-01  0.7529E-01
     -0.683  0.1390E+00  0.1390E+00  0.8479E-01  0.8480E-01
     -0.615  0.1615E+00  0.1616E+00  0.9582E-01  0.9583E-01
     -0.546  0.1658E+00  0.1658E+00  0.1071E+00  0.1072E+00
     -0.478  0.1349E+00  0.1349E+00  0.1164E+00  0.1164E+00
     -0.410  0.1546E+00  0.1546E+00  0.1269E+00  0.1269E+00
     -0.341  0.2090E+00  0.2090E+00  0.1412E+00  0.1412E+00
     -0.273  0.2203E+00  0.2203E+00  0.1563E+00  0.1563E+00
     -0.205  0.2103E+00  0.2103E+00  0.1706E+00  0.1706E+00
     -0.136  0.2154E+00  0.2154E+00  0.1854E+00  0.1854E+00
     -0.068  0.2014E+00  0.2014E+00  0.1991E+00  0.1991E+00
      0.000  0.1582E+00  0.1581E+00  0.2099E+00  0.2099E+00
      0.069  0.1616E+00  0.1616E+00  0.2210E+00  0.2210E+00
      0.137  0.2277E+00  0.2277E+00  0.2365E+00  0.2365E+00
      0.205  0.2896E+00  0.2896E+00  0.2563E+00  0.2563E+00
      0.273  0.2757E+00  0.2757E+00  0.2752E+00  0.2752E+00
      0.342  0.2551E+00  0.2551E+00  0.2926E+00  0.2926E+00
      0.410  0.2846E+00  0.2845E+00  0.3121E+00  0.3121E+00
      0.478  0.2487E+00  0.2487E+00  0.3291E+00  0.3291E+00
      0.547  0.1922E+00  0.1922E+00  0.3422E+00  0.3422E+00
      0.615  0.2301E+00  0.2300E+00  0.3579E+00  0.3579E+00
      0.683  0.3108E+00  0.3107E+00  0.3792E+00  0.3792E+00
      0.752  0.3526E+00  0.3525E+00  0.4033E+00  0.4032E+00
      0.820  0.3393E+00  0.3392E+00  0.4265E+00  0.4264E+00
      0.888  0.3102E+00  0.3102E+00  0.4477E+00  0.4476E+00
      0.957  0.3078E+00  0.3077E+00  0.4687E+00  0.4686E+00
      1.025  0.3141E+00  0.3140E+00  0.4902E+00  0.4901E+00
      1.093  0.3333E+00  0.3333E+00  0.5130E+00  0.5129E+00
      1.161  0.3702E+00  0.3701E+00  0.5383E+00  0.5382E+00
      1.230  0.3814E+00  0.3813E+00  0.5643E+00  0.5643E+00
      1.298  0.3630E+00  0.3630E+00  0.5891E+00  0.5891E+00
      1.366  0.2980E+00  0.2983E+00  0.6095E+00  0.6094E+00
      1.435  0.2262E+00  0.2263E+00  0.6250E+00  0.6249E+00
      1.503  0.2261E+00  0.2260E+00  0.6404E+00  0.6404E+00
      1.571  0.2819E+00  0.2815E+00  0.6597E+00  0.6596E+00
      1.640  0.3718E+00  0.3715E+00  0.6851E+00  0.6850E+00
      1.708  0.3528E+00  0.3531E+00  0.7092E+00  0.7092E+00
      1.776  0.2792E+00  0.2794E+00  0.7283E+00  0.7282E+00
      1.845  0.2476E+00  0.2478E+00  0.7452E+00  0.7452E+00
      1.913  0.2101E+00  0.2105E+00  0.7596E+00  0.7596E+00
      1.981  0.2451E+00  0.2451E+00  0.7763E+00  0.7763E+00
      2.049  0.3827E+00  0.3821E+00  0.8025E+00  0.8024E+00
      2.118  0.4631E+00  0.4630E+00  0.8342E+00  0.8341E+00
      2.186  0.3946E+00  0.3953E+00  0.8611E+00  0.8611E+00
      2.254  0.3408E+00  0.3412E+00  0.8844E+00  0.8844E+00
      2.323  0.2955E+00  0.2954E+00  0.9046E+00  0.9046E+00
      2.391  0.2385E+00  0.2381E+00  0.9209E+00  0.9209E+00
      2.459  0.3085E+00  0.3081E+00  0.9420E+00  0.9419E+00
      2.528  0.4161E+00  0.4163E+00  0.9704E+00  0.9704E+00
      2.596  0.4051E+00  0.4055E+00  0.9981E+00  0.9981E+00
      2.664  0.3004E+00  0.3006E+00  0.1019E+01  0.1019E+01
      2.732  0.2274E+00  0.2279E+00  0.1034E+01  0.1034E+01
      2.801  0.2561E+00  0.2564E+00  0.1052E+01  0.1052E+01
      2.869  0.3116E+00  0.3110E+00  0.1073E+01  0.1073E+01
      2.937  0.3889E+00  0.3886E+00  0.1100E+01  0.1100E+01
      3.006  0.4627E+00  0.4638E+00  0.1131E+01  0.1131E+01
      3.074  0.4405E+00  0.4411E+00  0.1161E+01  0.1161E+01
      3.142  0.3314E+00  0.3312E+00  0.1184E+01  0.1184E+01
      3.211  0.2799E+00  0.2799E+00  0.1203E+01  0.1203E+01
      3.279  0.3070E+00  0.3065E+00  0.1224E+01  0.1224E+01
      3.347  0.3283E+00  0.3276E+00  0.1247E+01  0.1247E+01
      3.416  0.3295E+00  0.3296E+00  0.1269E+01  0.1269E+01
      3.484  0.3514E+00  0.3526E+00  0.1293E+01  0.1293E+01
      3.552  0.4150E+00  0.4156E+00  0.1321E+01  0.1322E+01
      3.620  0.3696E+00  0.3691E+00  0.1347E+01  0.1347E+01
      3.689  0.3391E+00  0.3391E+00  0.1370E+01  0.1370E+01
      3.757  0.4186E+00  0.4188E+00  0.1399E+01  0.1399E+01
      3.825  0.4616E+00  0.4611E+00  0.1430E+01  0.1430E+01
      3.894  0.4747E+00  0.4748E+00  0.1462E+01  0.1463E+01
      3.962  0.5064E+00  0.5070E+00  0.1497E+01  0.1497E+01
      4.030  0.5265E+00  0.5267E+00  0.1533E+01  0.1533E+01
      4.099  0.4798E+00  0.4796E+00  0.1566E+01  0.1566E+01
      4.167  0.4728E+00  0.4731E+00  0.1598E+01  0.1598E+01
      4.235  0.5478E+00  0.5480E+00  0.1636E+01  0.1636E+01
      4.304  0.5665E+00  0.5665E+00  0.1674E+01  0.1675E+01
      4.372  0.5346E+00  0.5344E+00  0.1711E+01  0.1711E+01
      4.440  0.4986E+00  0.4983E+00  0.1745E+01  0.1745E+01
      4.508  0.4808E+00  0.4806E+00  0.1778E+01  0.1778E+01
      4.577  0.4452E+00  0.4450E+00  0.1808E+01  0.1808E+01
      4.645  0.4663E+00  0.4668E+00  0.1840E+01  0.1840E+01
      4.713  0.6001E+00  0.6007E+00  0.1881E+01  0.1881E+01
      4.782  0.6536E+00  0.6533E+00  0.1926E+01  0.1926E+01
      4.850  0.5662E+00  0.5657E+00  0.1965E+01  0.1965E+01
      4.918  0.4998E+00  0.4995E+00  0.1999E+01  0.1999E+01
      4.987  0.5658E+00  0.5660E+00  0.2037E+01  0.2037E+01
      5.055  0.7192E+00  0.7194E+00  0.2087E+01  0.2087E+01
      5.123  0.6732E+00  0.6728E+00  0.2133E+01  0.2133E+01
      5.191  0.5652E+00  0.5652E+00  0.2171E+01  0.2171E+01
      5.260  0.6055E+00  0.6057E+00  0.2213E+01  0.2213E+01
      5.328  0.6034E+00  0.6032E+00  0.2254E+01  0.2254E+01
      5.396  0.5525E+00  0.5523E+00  0.2292E+01  0.2292E+01
      5.465  0.5892E+00  0.5892E+00  0.2332E+01  0.2332E+01
      5.533  0.5864E+00  0.5862E+00  0.2372E+01  0.2372E+01
      5.601  0.5481E+00  0.5478E+00  0.2409E+01  0.2409E+01
      5.670  0.4768E+00  0.4765E+00  0.2442E+01  0.2442E+01
      5.738  0.4273E+00  0.4275E+00  0.2471E+01  0.2471E+01
      5.806  0.5120E+00  0.5126E+00  0.2506E+01  0.2506E+01
      5.875  0.6166E+00  0.6170E+00  0.2548E+01  0.2549E+01
      5.943  0.6675E+00  0.6675E+00  0.2594E+01  0.2594E+01
      6.011  0.6121E+00  0.6117E+00  0.2636E+01  0.2636E+01
      6.079  0.5796E+00  0.5795E+00  0.2675E+01  0.2676E+01
      6.148  0.6536E+00  0.6534E+00  0.2720E+01  0.2720E+01
      6.216  0.7187E+00  0.7183E+00  0.2769E+01  0.2769E+01
      6.284  0.7529E+00  0.7528E+00  0.2821E+01  0.2821E+01
      6.353  0.6965E+00  0.6968E+00  0.2868E+01  0.2868E+01
      6.421  0.6247E+00  0.6247E+00  0.2911E+01  0.2911E+01
      6.489  0.6168E+00  0.6168E+00  0.2953E+01  0.2953E+01
      6.558  0.6533E+00  0.6537E+00  0.2998E+01  0.2998E+01
      6.626  0.7347E+00  0.7350E+00  0.3048E+01  0.3048E+01
      6.694  0.8036E+00  0.8032E+00  0.3103E+01  0.3103E+01
      6.763  0.8568E+00  0.8566E+00  0.3162E+01  0.3162E+01
      6.831  0.8546E+00  0.8547E+00  0.3220E+01  0.3220E+01
      6.899  0.7415E+00  0.7416E+00  0.3271E+01  0.3271E+01
      6.967  0.7812E+00  0.7812E+00  0.3324E+01  0.3324E+01
      7.036  0.9563E+00  0.9559E+00  0.3389E+01  0.3389E+01
      7.104  0.1119E+01  0.1119E+01  0.3466E+01  0.3466E+01
      7.172  0.1107E+01  0.1107E+01  0.3542E+01  0.3542E+01
      7.241  0.1010E+01  0.1010E+01  0.3611E+01  0.3611E+01
      7.309  0.9737E+00  0.9735E+00  0.3677E+01  0.3677E+01
      7.377  0.8718E+00  0.8711E+00  0.3737E+01  0.3737E+01
      7.446  0.8389E+00  0.8379E+00  0.3794E+01  0.3794E+01
      7.514  0.1005E+01  0.1005E+01  0.3863E+01  0.3863E+01
      7.582  0.1262E+01  0.1261E+01  0.3949E+01  0.3949E+01
      7.651  0.1385E+01  0.1385E+01  0.4044E+01  0.4043E+01
      7.719  0.1305E+01  0.1305E+01  0.4133E+01  0.4133E+01
      7.787  0.1179E+01  0.1179E+01  0.4214E+01  0.4213E+01
      7.855  0.1115E+01  0.1115E+01  0.4290E+01  0.4289E+01
      7.924  0.1034E+01  0.1034E+01  0.4360E+01  0.4360E+01
      7.992  0.9088E+00  0.9082E+00  0.4423E+01  0.4422E+01
      8.060  0.1030E+01  0.1028E+01  0.4493E+01  0.4493E+01
      8.129  0.1396E+01  0.1395E+01  0.4589E+01  0.4588E+01
      8.197  0.1572E+01  0.1573E+01  0.4696E+01  0.4695E+01
      8.265  0.1412E+01  0.1413E+01  0.4792E+01  0.4792E+01
      8.334  0.1291E+01  0.1291E+01  0.4881E+01  0.4880E+01
      8.402  0.1236E+01  0.1236E+01  0.4965E+01  0.4965E+01
      8.470  0.1099E+01  0.1100E+01  0.5040E+01  0.5040E+01
      8.538  0.9288E+00  0.9290E+00  0.5104E+01  0.5103E+01
      8.607  0.9298E+00  0.9284E+00  0.5167E+01  0.5167E+01
      8.675  0.1021E+01  0.1021E+01  0.5237E+01  0.5237E+01
      8.743  0.9120E+00  0.9133E+00  0.5300E+01  0.5299E+01
      8.812  0.7507E+00  0.7514E+00  0.5351E+01  0.5350E+01
      8.880  0.6940E+00  0.6942E+00  0.5398E+01  0.5398E+01
      8.948  0.6505E+00  0.6504E+00  0.5443E+01  0.5442E+01
      9.017  0.6607E+00  0.6599E+00  0.5488E+01  0.5488E+01
      9.085  0.7102E+00  0.7094E+00  0.5537E+01  0.5536E+01
      9.153  0.7400E+00  0.7393E+00  0.5587E+01  0.5587E+01
      9.222  0.7308E+00  0.7312E+00  0.5637E+01  0.5637E+01
      9.290  0.6819E+00  0.6819E+00  0.5684E+01  0.5683E+01
      9.358  0.7232E+00  0.7222E+00  0.5733E+01  0.5733E+01
      9.426  0.7597E+00  0.7598E+00  0.5785E+01  0.5784E+01
      9.495  0.6433E+00  0.6449E+00  0.5829E+01  0.5829E+01
      9.563  0.5012E+00  0.5016E+00  0.5863E+01  0.5863E+01
      9.631  0.5342E+00  0.5323E+00  0.5900E+01  0.5899E+01
      9.700  0.6862E+00  0.6843E+00  0.5947E+01  0.5946E+01
      9.768  0.7486E+00  0.7494E+00  0.5998E+01  0.5997E+01
      9.836  0.5774E+00  0.5804E+00  0.6037E+01  0.6037E+01
      9.905  0.4184E+00  0.4185E+00  0.6066E+01  0.6066E+01
      9.973  0.4946E+00  0.4919E+00  0.6100E+01  0.6099E+01
     10.041  0.5985E+00  0.5979E+00  0.6141E+01  0.6140E+01
     10.110  0.5698E+00  0.5705E+00  0.6180E+01  0.6179E+01
     10.178  0.5480E+00  0.5473E+00  0.6217E+01  0.6216E+01
     10.246  0.6258E+00  0.6233E+00  0.6260E+01  0.6259E+01
     10.314  0.7577E+00  0.7551E+00  0.6312E+01  0.6311E+01
     10.383  0.8669E+00  0.8646E+00  0.6371E+01  0.6370E+01
     10.451  0.9677E+00  0.9660E+00  0.6437E+01  0.6436E+01
     10.519  0.9938E+00  0.9938E+00  0.6505E+01  0.6504E+01
     10.588  0.1008E+01  0.1007E+01  0.6574E+01  0.6572E+01
     10.656  0.1059E+01  0.1058E+01  0.6646E+01  0.6645E+01
     10.724  0.1109E+01  0.1107E+01  0.6722E+01  0.6720E+01
     10.793  0.1295E+01  0.1290E+01  0.6811E+01  0.6809E+01
     10.861  0.1408E+01  0.1408E+01  0.6907E+01  0.6905E+01
     10.929  0.1217E+01  0.1223E+01  0.6990E+01  0.6988E+01
     10.998  0.9575E+00  0.9620E+00  0.7055E+01  0.7054E+01
     11.066  0.9075E+00  0.9054E+00  0.7117E+01  0.7116E+01
     11.134  0.1110E+01  0.1104E+01  0.7193E+01  0.7192E+01
     11.202  0.1317E+01  0.1313E+01  0.7283E+01  0.7281E+01
     11.271  0.1436E+01  0.1430E+01  0.7382E+01  0.7379E+01
     11.339  0.1687E+01  0.1675E+01  0.7497E+01  0.7493E+01
     11.407  0.2149E+01  0.2132E+01  0.7644E+01  0.7639E+01
     11.476  0.2664E+01  0.2645E+01  0.7826E+01  0.7820E+01
     11.544  0.3079E+01  0.3067E+01  0.8036E+01  0.8029E+01
     11.612  0.3031E+01  0.3042E+01  0.8243E+01  0.8237E+01
     11.681  0.2464E+01  0.2487E+01  0.8411E+01  0.8407E+01
     11.749  0.1932E+01  0.1947E+01  0.8543E+01  0.8540E+01
     11.817  0.1655E+01  0.1666E+01  0.8657E+01  0.8654E+01
     11.885  0.1380E+01  0.1390E+01  0.8751E+01  0.8749E+01
     11.954  0.1138E+01  0.1144E+01  0.8829E+01  0.8828E+01
     12.022  0.9367E+00  0.9414E+00  0.8893E+01  0.8892E+01
     12.090  0.7493E+00  0.7530E+00  0.8944E+01  0.8944E+01
     12.159  0.6282E+00  0.6308E+00  0.8987E+01  0.8987E+01
     12.227  0.4951E+00  0.4972E+00  0.9021E+01  0.9021E+01
     12.295  0.4078E+00  0.4087E+00  0.9049E+01  0.9049E+01
     12.364  0.4174E+00  0.4174E+00  0.9078E+01  0.9077E+01
     12.432  0.5070E+00  0.5061E+00  0.9112E+01  0.9112E+01
     12.500  0.6207E+00  0.6197E+00  0.9155E+01  0.9154E+01
     12.569  0.7097E+00  0.7085E+00  0.9203E+01  0.9203E+01
     12.637  0.7843E+00  0.7835E+00  0.9257E+01  0.9256E+01
     12.705  0.8231E+00  0.8228E+00  0.9313E+01  0.9313E+01
     12.773  0.8352E+00  0.8351E+00  0.9370E+01  0.9370E+01
     12.842  0.8166E+00  0.8164E+00  0.9426E+01  0.9425E+01
     12.910  0.7987E+00  0.7980E+00  0.9481E+01  0.9480E+01
     12.978  0.7822E+00  0.7816E+00  0.9534E+01  0.9533E+01
     13.047  0.7682E+00  0.7676E+00  0.9587E+01  0.9586E+01
     13.115  0.7594E+00  0.7591E+00  0.9638E+01  0.9638E+01
     13.183  0.7901E+00  0.7890E+00  0.9692E+01  0.9692E+01
     13.252  0.9120E+00  0.9106E+00  0.9755E+01  0.9754E+01
     13.320  0.9178E+00  0.9191E+00  0.9817E+01  0.9817E+01
     13.388  0.7838E+00  0.7859E+00  0.9871E+01  0.9870E+01
     13.457  0.5824E+00  0.5855E+00  0.9911E+01  0.9910E+01
     13.525  0.4351E+00  0.4362E+00  0.9941E+01  0.9940E+01
     13.593  0.4235E+00  0.4226E+00  0.9970E+01  0.9969E+01
     13.661  0.5195E+00  0.5182E+00  0.1001E+02  0.1000E+02
     13.730  0.7040E+00  0.7031E+00  0.1005E+02  0.1005E+02
     13.798  0.9621E+00  0.9584E+00  0.1012E+02  0.1012E+02
     13.866  0.1136E+01  0.1133E+01  0.1020E+02  0.1020E+02
     13.935  0.1124E+01  0.1121E+01  0.1027E+02  0.1027E+02
     14.003  0.1017E+01  0.1015E+01  0.1034E+02  0.1034E+02
     14.071  0.9468E+00  0.9437E+00  0.1041E+02  0.1041E+02
     14.140  0.9305E+00  0.9305E+00  0.1047E+02  0.1047E+02
     14.208  0.9343E+00  0.9229E+00  0.1054E+02  0.1053E+02
     14.276  0.9545E+00  0.9397E+00  0.1060E+02  0.1060E+02
     14.345  0.9199E+00  0.9335E+00  0.1066E+02  0.1066E+02
     14.413  0.8884E+00  0.9007E+00  0.1072E+02  0.1072E+02
     14.481  0.9302E+00  0.9227E+00  0.1079E+02  0.1079E+02
     14.549  0.1039E+01  0.1034E+01  0.1086E+02  0.1086E+02
     14.618  0.1108E+01  0.1123E+01  0.1093E+02  0.1093E+02
     14.686  0.1121E+01  0.1134E+01  0.1101E+02  0.1101E+02
     14.754  0.1255E+01  0.1266E+01  0.1110E+02  0.1110E+02
     14.823  0.1476E+01  0.1485E+01  0.1120E+02  0.1120E+02
     14.891  0.1303E+01  0.1305E+01  0.1129E+02  0.1129E+02
     14.959  0.8940E+00  0.8930E+00  0.1135E+02  0.1135E+02
     15.028  0.8466E+00  0.8384E+00  0.1141E+02  0.1141E+02
     15.096  0.1071E+01  0.1063E+01  0.1148E+02  0.1148E+02
     15.164  0.1066E+01  0.1060E+01  0.1155E+02  0.1155E+02
     15.232  0.8158E+00  0.8132E+00  0.1161E+02  0.1161E+02
     15.301  0.6266E+00  0.6377E+00  0.1165E+02  0.1165E+02
     15.369  0.5684E+00  0.5994E+00  0.1169E+02  0.1169E+02
     15.437  0.5163E+00  0.5368E+00  0.1172E+02  0.1173E+02
     15.506  0.4785E+00  0.4394E+00  0.1176E+02  0.1176E+02
     15.574  0.4073E+00  0.3512E+00  0.1179E+02  0.1178E+02
     15.642  0.2998E+00  0.3007E+00  0.1181E+02  0.1180E+02
     15.711  0.2307E+00  0.2576E+00  0.1182E+02  0.1182E+02
     15.779  0.2422E+00  0.2580E+00  0.1184E+02  0.1184E+02
     15.847  0.3069E+00  0.3209E+00  0.1186E+02  0.1186E+02
     15.916  0.3242E+00  0.3364E+00  0.1188E+02  0.1188E+02
     15.984  0.2454E+00  0.2412E+00  0.1190E+02  0.1190E+02
     16.052  0.1628E+00  0.1511E+00  0.1191E+02  0.1191E+02
     16.120  0.1382E+00  0.1320E+00  0.1192E+02  0.1192E+02
     16.189  0.1440E+00  0.1413E+00  0.1193E+02  0.1193E+02
     16.257  0.1518E+00  0.1508E+00  0.1194E+02  0.1194E+02
     16.325  0.1307E+00  0.1330E+00  0.1195E+02  0.1195E+02
     16.394  0.9755E-01  0.1076E+00  0.1195E+02  0.1196E+02
     16.462  0.8727E-01  0.1148E+00  0.1196E+02  0.1196E+02
     16.530  0.1133E+00  0.1500E+00  0.1197E+02  0.1197E+02
     16.599  0.1522E+00  0.1605E+00  0.1198E+02  0.1198E+02
     16.667  0.1359E+00  0.1110E+00  0.1199E+02  0.1199E+02
     16.735  0.8368E-01  0.6435E-01  0.1199E+02  0.1200E+02
     16.804  0.4298E-01  0.3445E-01  0.1200E+02  0.1200E+02
     16.872  0.1785E-01  0.1363E-01  0.1200E+02  0.1200E+02
     16.940  0.6240E-02  0.4020E-02  0.1200E+02  0.1200E+02
     17.008  0.3916E-02  0.9392E-03  0.1200E+02  0.1200E+02
     17.077  0.6762E-02  0.2431E-03  0.1200E+02  0.1200E+02
     17.145  0.8764E-02  0.0000E+00  0.1200E+02  0.1200E+02
     17.213  0.5298E-02  0.0000E+00  0.1200E+02  0.1200E+02
     17.282  0.1867E-02  0.0000E+00  0.1200E+02  0.1200E+02
     17.350  0.5236E-03  0.0000E+00  0.1200E+02  0.1200E+02
     17.418  0.1370E-03  0.0000E+00  0.1200E+02  0.1200E+02
     17.487  0.3517E-04  0.0000E+00  0.1200E+02  0.1200E+02
     17.555  0.0000E+00  0.0000E+00  0.1200E+02  0.1200E+02
     17.623  0.0000E+00  0.0000E+00  0.1200E+02  0.1200E+02
     17.692  0.0000E+00  0.0000E+00  0.1200E+02  0.1200E+02
     17.760  0.0000E+00  0.0000E+00  0.1200E+02  0.1200E+02
     17.828  0.0000E+00  0.0000E+00  0.1200E+02  0.1200E+02
     17.896  0.0000E+00  0.0000E+00  0.1200E+02  0.1200E+02
     17.965  0.0000E+00  0.0000E+00  0.1200E+02  0.1200E+02
     18.033  0.0000E+00  0.0000E+00  0.1200E+02  0.1200E+02
     18.03303677     -2.45877945  301     10.93949438      1.00000000
     -2.459  0.0000E+00  0.0000E+00  0.0000E+00  0.0000E+00  0.0000E+00  0.0000E+00  0.0000E+00  0.0000E+00  0.0000E+00  0.0000E+00  0.0000E+00  0.0000E+00  0.0000E+00  0.0000E+00  0.0000E+00  0.0000E+00  0.0000E+00  0.0000E+00
     -2.390  0.0000E+00  0.0000E+00  0.0000E+00  0.0000E+00  0.0000E+00  0.0000E+00  0.0000E+00  0.0000E+00  0.0000E+00  0.0000E+00  0.0000E+00  0.0000E+00  0.0000E+00  0.0000E+00  0.0000E+00  0.0000E+00  0.0000E+00  0.0000E+00
     -2.322  0.0000E+00  0.0000E+00  0.0000E+00  0.0000E+00  0.0000E+00  0.0000E+00  0.0000E+00  0.0000E+00  0.0000E+00  0.0000E+00  0.0000E+00  0.0000E+00  0.0000E+00  0.0000E+00  0.0000E+00  0.0000E+00  0.0000E+00  0.0000E+00
     -2.254  0.0000E+00  0.0000E+00  0.0000E+00  0.0000E+00  0.0000E+00  0.0000E+00  0.0000E+00  0.0000E+00  0.0000E+00  0.0000E+00  0.0000E+00  0.0000E+00  0.0000E+00  0.0000E+00  0.0000E+00  0.0000E+00  0.0000E+00  0.0000E+00
     -2.186  0.0000E+00  0.0000E+00  0.0000E+00  0.0000E+00  0.0000E+00  0.0000E+00  0.0000E+00  0.0000E+00  0.0000E+00  0.0000E+00  0.0000E+00  0.0000E+00  0.0000E+00  0.0000E+00  0.0000E+00  0.0000E+00  0.0000E+00  0.0000E+00
     -2.117  0.0000E+00  0.0000E+00  0.0000E+00  0.0000E+00  0.0000E+00  0.0000E+00  0.0000E+00  0.0000E+00  0.0000E+00  0.0000E+00  0.0000E+00  0.0000E+00  0.0000E+00  0.0000E+00  0.0000E+00  0.0000E+00  0.0000E+00  0.0000E+00
     -2.049  0.0000E+00  0.0000E+00  0.0000E+00  0.0000E+00  0.0000E+00  0.0000E+00  0.0000E+00  0.0000E+00  0.0000E+00  0.0000E+00  0.0000E+00  0.0000E+00  0.0000E+00  0.0000E+00  0.0000E+00  0.0000E+00  0.0000E+00  0.0000E+00
     -1.981  0.1264E-06  0.1266E-06  0.3506E-21  0.9536E-22  0.3506E-21  0.9536E-22  0.7174E-22  0.5155E-22  0.3257E-14  0.1143E-15  0.1012E-14  0.3035E-15  0.8332E-15  0.4646E-15  0.3257E-14  0.1143E-15  0.8283E-15  0.5682E-15
     -1.912  0.1109E-05  0.1111E-05  0.2853E-08  0.2859E-08  0.2853E-08  0.2859E-08  0.2850E-08  0.2856E-08  0.2932E-13  0.7475E-14  0.4084E-14  0.2125E-14  0.1052E-10  0.1049E-10  0.2932E-13  0.7475E-14  0.1343E-10  0.1340E-10
     -1.844  0.5057E-05  0.5067E-05  0.1959E-07  0.1963E-07  0.1959E-07  0.1963E-07  0.1958E-07  0.1961E-07  0.8836E-10  0.8851E-10  0.8697E-10  0.8853E-10  0.5823E-10  0.5810E-10  0.8836E-10  0.8851E-10  0.6060E-10  0.6035E-10
     -1.776  0.1927E-04  0.1931E-04  0.7662E-07  0.7676E-07  0.7662E-07  0.7676E-07  0.7657E-07  0.7672E-07  0.4326E-09  0.4346E-09  0.4284E-09  0.4346E-09  0.2005E-09  0.2001E-09  0.4326E-09  0.4346E-09  0.2159E-09  0.2151E-09
     -1.707  0.7451E-04  0.7466E-04  0.2994E-06  0.2999E-06  0.2994E-06  0.2999E-06  0.2992E-06  0.2997E-06  0.1519E-08  0.1526E-08  0.1503E-08  0.1526E-08  0.9458E-09  0.9453E-09  0.1519E-08  0.1526E-08  0.1051E-08  0.1050E-08
     -1.639  0.2830E-03  0.2835E-03  0.1203E-05  0.1205E-05  0.1203E-05  0.1205E-05  0.1202E-05  0.1204E-05  0.6654E-08  0.6678E-08  0.6591E-08  0.6680E-08  0.4054E-08  0.4053E-08  0.6654E-08  0.6678E-08  0.4503E-08  0.4499E-08
     -1.571  0.9759E-03  0.9775E-03  0.4505E-05  0.4513E-05  0.4505E-05  0.4513E-05  0.4502E-05  0.4509E-05  0.2657E-07  0.2667E-07  0.2634E-07  0.2668E-07  0.1495E-07  0.1495E-07  0.2657E-07  0.2667E-07  0.1658E-07  0.1656E-07
     -1.502  0.2754E-02  0.2758E-02  0.1501E-04  0.1503E-04  0.1501E-04  0.1503E-04  0.1500E-04  0.1503E-04  0.9651E-07  0.9689E-07  0.9567E-07  0.9691E-07  0.4969E-07  0.4969E-07  0.9651E-07  0.9689E-07  0.5441E-07  0.5436E-07
     -1.434  0.5755E-02  0.5761E-02  0.3966E-04  0.3970E-04  0.3966E-04  0.3970E-04  0.3964E-04  0.3968E-04  0.3119E-06  0.3131E-06  0.3095E-06  0.3131E-06  0.1352E-06  0.1353E-06  0.3119E-06  0.3131E-06  0.1460E-06  0.1460E-06
     -1.366  0.8554E-02  0.8558E-02  0.7741E-04  0.7746E-04  0.7741E-04  0.7746E-04  0.7737E-04  0.7742E-04  0.7623E-06  0.7653E-06  0.7584E-06  0.7654E-06  0.3157E-06  0.3166E-06  0.7623E-06  0.7653E-06  0.3526E-06  0.3536E-06
     -1.298  0.9972E-02  0.9975E-02  0.1249E-03  0.1249E-03  0.1249E-03  0.1249E-03  0.1247E-03  0.1248E-03  0.1448E-05  0.1452E-05  0.1445E-05  0.1453E-05  0.7686E-06  0.7722E-06  0.1448E-05  0.1452E-05  0.9116E-06  0.9161E-06
     -1.229  0.1218E-01  0.1218E-01  0.2085E-03  0.2086E-03  0.2085E-03  0.2086E-03  0.2083E-03  0.2084E-03  0.2842E-05  0.2846E-05  0.2843E-05  0.2848E-05  0.1740E-05  0.1748E-05  0.2842E-05  0.2846E-05  0.2091E-05  0.2101E-05
     -1.161  0.1599E-01  0.1600E-01  0.3281E-03  0.3282E-03  0.3281E-03  0.3282E-03  0.3279E-03  0.3280E-03  0.5593E-05  0.5595E-05  0.5594E-05  0.5597E-05  0.2786E-05  0.2796E-05  0.5593E-05  0.5595E-05  0.3328E-05  0.3341E-05
     -1.093  0.1646E-01  0.1646E-01  0.3808E-03  0.3807E-03  0.3808E-03  0.3807E-03  0.3808E-03  0.3808E-03  0.8157E-05  0.8158E-05  0.8158E-05  0.8157E-05  0.3067E-05  0.3077E-05  0.8157E-05  0.8158E-05  0.3606E-05  0.3618E-05
     -1.024  0.1367E-01  0.1367E-01  0.3785E-03  0.3785E-03  0.3785E-03  0.3785E-03  0.3783E-03  0.3783E-03  0.1019E-04  0.1020E-04  0.1020E-04  0.1020E-04  0.3530E-05  0.3542E-05  0.1019E-04  0.1020E-04  0.3921E-05  0.3933E-05
     -0.956  0.1513E-01  0.1514E-01  0.5186E-03  0.5189E-03  0.5186E-03  0.5189E-03  0.5178E-03  0.5180E-03  0.1591E-04  0.1593E-04  0.1592E-04  0.1593E-04  0.6354E-05  0.6378E-05  0.1591E-04  0.1593E-04  0.7019E-05  0.7045E-05
     -0.888  0.1994E-01  0.1995E-01  0.7679E-03  0.7681E-03  0.7679E-03  0.7681E-03  0.7667E-03  0.7669E-03  0.2301E-04  0.2304E-04  0.2302E-04  0.2304E-04  0.1182E-04  0.1186E-04  0.2301E-04  0.2304E-04  0.1377E-04  0.1383E-04
     -0.819  0.2171E-01  0.2171E-01  0.9132E-03  0.9133E-03  0.9132E-03  0.9133E-03  0.9126E-03  0.9127E-03  0.2667E-04  0.2671E-04  0.2668E-04  0.2671E-04  0.1678E-04  0.1684E-04  0.2667E-04  0.2671E-04  0.2034E-04  0.2042E-04
     -0.751  0.2013E-01  0.2013E-01  0.9313E-03  0.9314E-03  0.9313E-03  0.9314E-03  0.9316E-03  0.9317E-03  0.3263E-04  0.3268E-04  0.3265E-04  0.3270E-04  0.1712E-04  0.1719E-04  0.3263E-04  0.3268E-04  0.2083E-04  0.2091E-04
     -0.683  0.1905E-01  0.1906E-01  0.9883E-03  0.9885E-03  0.9883E-03  0.9885E-03  0.9881E-03  0.9884E-03  0.4649E-04  0.4657E-04  0.4655E-04  0.4663E-04  0.1617E-04  0.1624E-04  0.4649E-04  0.4657E-04  0.1869E-04  0.1876E-04
     -0.615  0.2173E-01  0.2174E-01  0.1243E-02  0.1243E-02  0.1243E-02  0.1243E-02  0.1242E-02  0.1242E-02  0.6871E-04  0.6883E-04  0.6877E-04  0.6889E-04  0.1974E-04  0.1982E-04  0.6871E-04  0.6883E-04  0.2172E-04  0.2182E-04
     -0.546  0.2202E-01  0.2203E-01  0.1340E-02  0.1340E-02  0.1340E-02  0.1340E-02  0.1340E-02  0.1340E-02  0.7742E-04  0.7752E-04  0.7738E-04  0.7748E-04  0.2266E-04  0.2275E-04  0.7742E-04  0.7752E-04  0.2529E-04  0.2539E-04
     -0.478  0.1754E-01  0.1754E-01  0.1179E-02  0.1179E-02  0.1179E-02  0.1179E-02  0.1177E-02  0.1177E-02  0.6471E-04  0.6478E-04  0.6468E-04  0.6474E-04  0.2602E-04  0.2610E-04  0.6471E-04  0.6478E-04  0.3082E-04  0.3092E-04
     -0.410  0.1948E-01  0.1949E-01  0.1495E-02  0.1496E-02  0.1495E-02  0.1496E-02  0.1491E-02  0.1491E-02  0.7967E-04  0.7975E-04  0.7979E-04  0.7986E-04  0.4178E-04  0.4188E-04  0.7967E-04  0.7975E-04  0.5108E-04  0.5121E-04
     -0.341  0.2591E-01  0.2593E-01  0.2116E-02  0.2116E-02  0.2116E-02  0.2116E-02  0.2113E-02  0.2113E-02  0.1220E-03  0.1221E-03  0.1222E-03  0.1223E-03  0.6134E-04  0.6146E-04  0.1220E-03  0.1221E-03  0.7395E-04  0.7409E-04
     -0.273  0.2693E-01  0.2694E-01  0.2307E-02  0.2307E-02  0.2307E-02  0.2307E-02  0.2308E-02  0.2308E-02  0.1520E-03  0.1521E-03  0.1522E-03  0.1523E-03  0.6590E-04  0.6601E-04  0.1520E-03  0.1521E-03  0.7655E-04  0.7667E-04
     -0.205  0.2519E-01  0.2520E-01  0.2307E-02  0.2307E-02  0.2307E-02  0.2307E-02  0.2306E-02  0.2306E-02  0.1742E-03  0.1744E-03  0.1744E-03  0.1745E-03  0.6479E-04  0.6490E-04  0.1742E-03  0.1744E-03  0.7342E-04  0.7355E-04
     -0.136  0.2526E-01  0.2526E-01  0.2475E-02  0.2475E-02  0.2475E-02  0.2475E-02  0.2474E-02  0.2475E-02  0.2051E-03  0.2054E-03  0.2051E-03  0.2054E-03  0.6908E-04  0.6921E-04  0.2051E-03  0.2054E-03  0.7933E-04  0.7949E-04
     -0.068  0.2326E-01  0.2327E-01  0.2381E-02  0.2381E-02  0.2381E-02  0.2381E-02  0.2384E-02  0.2384E-02  0.2238E-03  0.2241E-03  0.2235E-03  0.2239E-03  0.5963E-04  0.5975E-04  0.2238E-03  0.2241E-03  0.6890E-04  0.6904E-04
      0.000  0.1787E-01  0.1787E-01  0.1947E-02  0.1946E-02  0.1947E-02  0.1946E-02  0.1947E-02  0.1947E-02  0.2069E-03  0.2071E-03  0.2069E-03  0.2071E-03  0.4461E-04  0.4469E-04  0.2069E-03  0.2071E-03  0.5147E-04  0.5155E-04
      0.069  0.1746E-01  0.1747E-01  0.2147E-02  0.2147E-02  0.2147E-02  0.2147E-02  0.2138E-02  0.2138E-02  0.2319E-03  0.2321E-03  0.2326E-03  0.2327E-03  0.5994E-04  0.6000E-04  0.2319E-03  0.2321E-03  0.6954E-04  0.6962E-04
      0.137  0.2374E-01  0.2374E-01  0.3204E-02  0.3204E-02  0.3204E-02  0.3204E-02  0.3188E-02  0.3188E-02  0.3276E-03  0.3276E-03  0.3284E-03  0.3285E-03  0.1096E-03  0.1097E-03  0.3276E-03  0.3276E-03  0.1267E-03  0.1268E-03
      0.205  0.2946E-01  0.2947E-01  0.4218E-02  0.4217E-02  0.4218E-02  0.4217E-02  0.4208E-02  0.4208E-02  0.4142E-03  0.4141E-03  0.4143E-03  0.4142E-03  0.1580E-03  0.1583E-03  0.4142E-03  0.4141E-03  0.1842E-03  0.1845E-03
      0.273  0.2739E-01  0.2740E-01  0.4133E-02  0.4133E-02  0.4133E-02  0.4133E-02  0.4137E-02  0.4137E-02  0.4140E-03  0.4139E-03  0.4135E-03  0.4134E-03  0.1568E-03  0.1571E-03  0.4140E-03  0.4139E-03  0.1863E-03  0.1867E-03
      0.342  0.2455E-01  0.2455E-01  0.3958E-02  0.3958E-02  0.3958E-02  0.3958E-02  0.3955E-02  0.3955E-02  0.4542E-03  0.4540E-03  0.4546E-03  0.4545E-03  0.1413E-03  0.1416E-03  0.4542E-03  0.4540E-03  0.1692E-03  0.1696E-03
      0.410  0.2661E-01  0.2662E-01  0.4538E-02  0.4537E-02  0.4538E-02  0.4537E-02  0.4532E-02  0.4531E-02  0.5713E-03  0.5712E-03  0.5719E-03  0.5718E-03  0.1578E-03  0.1582E-03  0.5713E-03  0.5712E-03  0.1882E-03  0.1886E-03
      0.478  0.2269E-01  0.2270E-01  0.4055E-02  0.4055E-02  0.4055E-02  0.4055E-02  0.4064E-02  0.4064E-02  0.5251E-03  0.5252E-03  0.5250E-03  0.5250E-03  0.1477E-03  0.1481E-03  0.5251E-03  0.5252E-03  0.1746E-03  0.1751E-03
      0.547  0.1689E-01  0.1689E-01  0.3215E-02  0.3215E-02  0.3215E-02  0.3215E-02  0.3219E-02  0.3218E-02  0.4889E-03  0.4889E-03  0.4900E-03  0.4899E-03  0.1143E-03  0.1145E-03  0.4889E-03  0.4889E-03  0.1289E-03  0.1292E-03
      0.615  0.1925E-01  0.1925E-01  0.3978E-02  0.3976E-02  0.3978E-02  0.3976E-02  0.3962E-02  0.3960E-02  0.7087E-03  0.7086E-03  0.7110E-03  0.7108E-03  0.1279E-03  0.1281E-03  0.7087E-03  0.7086E-03  0.1381E-03  0.1383E-03
      0.683  0.2466E-01  0.2467E-01  0.5594E-02  0.5591E-02  0.5594E-02  0.5591E-02  0.5566E-02  0.5563E-02  0.9993E-03  0.9991E-03  0.1001E-02  0.1000E-02  0.1690E-03  0.1692E-03  0.9993E-03  0.9991E-03  0.1851E-03  0.1852E-03
      0.752  0.2568E-01  0.2569E-01  0.6756E-02  0.6753E-02  0.6756E-02  0.6753E-02  0.6723E-02  0.6720E-02  0.1095E-02  0.1095E-02  0.1095E-02  0.1094E-02  0.1977E-03  0.1978E-03  0.1095E-02  0.1095E-02  0.2223E-03  0.2224E-03
      0.820  0.2194E-01  0.2195E-01  0.6985E-02  0.6983E-02  0.6985E-02  0.6983E-02  0.6968E-02  0.6967E-02  0.1001E-02  0.1001E-02  0.9999E-03  0.1000E-02  0.1948E-03  0.1951E-03  0.1001E-02  0.1001E-02  0.2245E-03  0.2248E-03
      0.888  0.1808E-01  0.1809E-01  0.6683E-02  0.6683E-02  0.6683E-02  0.6683E-02  0.6681E-02  0.6681E-02  0.9650E-03  0.9656E-03  0.9659E-03  0.9665E-03  0.1761E-03  0.1766E-03  0.9650E-03  0.9656E-03  0.2073E-03  0.2079E-03
      0.957  0.1641E-01  0.1641E-01  0.6811E-02  0.6808E-02  0.6811E-02  0.6808E-02  0.6796E-02  0.6794E-02  0.1081E-02  0.1082E-02  0.1084E-02  0.1085E-02  0.1726E-03  0.1730E-03  0.1081E-02  0.1082E-02  0.2044E-03  0.2050E-03