   4   4   1   0
  0.1310485E+02  0.3741686E-09  0.3742935E-09  0.3742935E-09  0.5000000E-15
  1.000000000000000E-004
  CAR 
 unknown system                          
     23.24232210     -3.45888496  301      9.58621896      1.00000000
     -3.459  0.0000E+00  0.0000E+00  0.0000E+00  0.0000E+00
     -3.370  0.0000E+00  0.0000E+00  0.0000E+00  0.0000E+00
     -3.281  0.0000E+00  0.0000E+00  0.0000E+00  0.0000E+00
     -3.192  0.0000E+00  0.0000E+00  0.0000E+00  0.0000E+00
     -3.103  0.0000E+00  0.0000E+00  0.0000E+00  0.0000E+00
     -3.014  0.0000E+00  0.0000E+00  0.0000E+00  0.0000E+00
     -2.925  0.0000E+00  0.0000E+00  0.0000E+00  0.0000E+00
     -2.836  0.0000E+00  0.0000E+00  0.0000E+00  0.0000E+00
     -2.747  0.0000E+00  0.0000E+00  0.0000E+00  0.0000E+00
     -2.658  0.3569E-05  0.0000E+00  0.3176E-06  0.0000E+00
     -2.569  0.2503E-04  0.7795E-06  0.2546E-05  0.6938E-07
     -2.480  0.1505E-03  0.1611E-04  0.1594E-04  0.1503E-05
     -2.391  0.8763E-03  0.8805E-04  0.9394E-04  0.9340E-05
     -2.302  0.4686E-02  0.5244E-03  0.5110E-03  0.5601E-04
     -2.213  0.1888E-01  0.2912E-02  0.2191E-02  0.3151E-03
     -2.124  0.4571E-01  0.1312E-01  0.6259E-02  0.1483E-02
     -2.035  0.6636E-01  0.3761E-01  0.1217E-01  0.4831E-02
     -1.946  0.9009E-01  0.6196E-01  0.2018E-01  0.1035E-01
     -1.857  0.1154E+00  0.8185E-01  0.3046E-01  0.1763E-01
     -1.768  0.1030E+00  0.1128E+00  0.3963E-01  0.2767E-01
     -1.679  0.1265E+00  0.1075E+00  0.5090E-01  0.3724E-01
     -1.590  0.1599E+00  0.1162E+00  0.6514E-01  0.4759E-01
     -1.501  0.1531E+00  0.1566E+00  0.7878E-01  0.6152E-01
     -1.412  0.1614E+00  0.1573E+00  0.9315E-01  0.7554E-01
     -1.323  0.1735E+00  0.1564E+00  0.1086E+00  0.8948E-01
     -1.234  0.1513E+00  0.1777E+00  0.1221E+00  0.1053E+00
     -1.145  0.2068E+00  0.1532E+00  0.1405E+00  0.1189E+00
     -1.056  0.2307E+00  0.1939E+00  0.1610E+00  0.1362E+00
     -0.967  0.2251E+00  0.2328E+00  0.1811E+00  0.1569E+00
     -0.878  0.2131E+00  0.2267E+00  0.2001E+00  0.1771E+00
     -0.789  0.1690E+00  0.2210E+00  0.2151E+00  0.1968E+00
     -0.700  0.2183E+00  0.1759E+00  0.2346E+00  0.2125E+00
     -0.611  0.2993E+00  0.2066E+00  0.2613E+00  0.2309E+00
     -0.522  0.2778E+00  0.2960E+00  0.2860E+00  0.2573E+00
     -0.433  0.2904E+00  0.2853E+00  0.3119E+00  0.2827E+00
     -0.344  0.2476E+00  0.2891E+00  0.3339E+00  0.3084E+00
     -0.255  0.2195E+00  0.2608E+00  0.3535E+00  0.3317E+00
     -0.166  0.3161E+00  0.2172E+00  0.3816E+00  0.3510E+00
     -0.077  0.3659E+00  0.3174E+00  0.4142E+00  0.3793E+00
      0.012  0.3328E+00  0.3857E+00  0.4439E+00  0.4136E+00
      0.101  0.3184E+00  0.3437E+00  0.4722E+00  0.4443E+00
      0.190  0.3293E+00  0.3275E+00  0.5015E+00  0.4734E+00
      0.279  0.3676E+00  0.3177E+00  0.5343E+00  0.5017E+00
      0.368  0.3877E+00  0.3598E+00  0.5688E+00  0.5338E+00
      0.457  0.3522E+00  0.4007E+00  0.6002E+00  0.5695E+00
      0.546  0.2513E+00  0.3507E+00  0.6226E+00  0.6007E+00
      0.635  0.2344E+00  0.2535E+00  0.6435E+00  0.6233E+00
      0.724  0.3182E+00  0.2274E+00  0.6719E+00  0.6436E+00
      0.813  0.3722E+00  0.3097E+00  0.7050E+00  0.6712E+00
      0.902  0.2980E+00  0.3779E+00  0.7316E+00  0.7048E+00
      0.991  0.2733E+00  0.2882E+00  0.7559E+00  0.7305E+00
      1.080  0.2741E+00  0.2328E+00  0.7803E+00  0.7513E+00
      1.169  0.3794E+00  0.2059E+00  0.8141E+00  0.7696E+00
      1.258  0.4845E+00  0.3511E+00  0.8573E+00  0.8009E+00
      1.347  0.3713E+00  0.4647E+00  0.8904E+00  0.8423E+00
      1.436  0.2662E+00  0.3717E+00  0.9141E+00  0.8754E+00
      1.525  0.2951E+00  0.3096E+00  0.9404E+00  0.9030E+00
      1.614  0.4224E+00  0.2455E+00  0.9780E+00  0.9248E+00
      1.703  0.3941E+00  0.3703E+00  0.1013E+01  0.9578E+00
      1.792  0.3321E+00  0.4367E+00  0.1043E+01  0.9967E+00
      1.881  0.3153E+00  0.3053E+00  0.1071E+01  0.1024E+01
      1.970  0.3731E+00  0.2939E+00  0.1104E+01  0.1050E+01
      2.059  0.5283E+00  0.3177E+00  0.1151E+01  0.1078E+01
      2.148  0.4305E+00  0.4440E+00  0.1189E+01  0.1118E+01
      2.237  0.3121E+00  0.5143E+00  0.1217E+01  0.1164E+01
      2.326  0.2816E+00  0.3545E+00  0.1242E+01  0.1195E+01
      2.415  0.3329E+00  0.2917E+00  0.1272E+01  0.1221E+01
      2.504  0.4898E+00  0.2984E+00  0.1316E+01  0.1248E+01
      2.593  0.4136E+00  0.3925E+00  0.1352E+01  0.1283E+01
      2.682  0.3804E+00  0.4862E+00  0.1386E+01  0.1326E+01
      2.771  0.4395E+00  0.3609E+00  0.1425E+01  0.1358E+01
      2.860  0.4709E+00  0.3755E+00  0.1467E+01  0.1392E+01
      2.949  0.5645E+00  0.4403E+00  0.1518E+01  0.1431E+01
      3.038  0.5450E+00  0.5164E+00  0.1566E+01  0.1477E+01
      3.127  0.5315E+00  0.6088E+00  0.1614E+01  0.1531E+01
      3.216  0.5870E+00  0.5240E+00  0.1666E+01  0.1578E+01
      3.305  0.5550E+00  0.5434E+00  0.1715E+01  0.1626E+01
      3.394  0.4778E+00  0.5910E+00  0.1758E+01  0.1679E+01
      3.483  0.4542E+00  0.5362E+00  0.1798E+01  0.1727E+01
      3.572  0.5056E+00  0.4529E+00  0.1843E+01  0.1767E+01
      3.661  0.6475E+00  0.4075E+00  0.1901E+01  0.1803E+01
      3.750  0.6245E+00  0.5552E+00  0.1957E+01  0.1853E+01
      3.839  0.5183E+00  0.6318E+00  0.2003E+01  0.1909E+01
      3.928  0.6134E+00  0.5452E+00  0.2057E+01  0.1958E+01
      4.017  0.7429E+00  0.4563E+00  0.2124E+01  0.1998E+01
      4.106  0.6387E+00  0.5348E+00  0.2181E+01  0.2046E+01
      4.195  0.6230E+00  0.6886E+00  0.2236E+01  0.2107E+01
      4.284  0.5818E+00  0.5611E+00  0.2288E+01  0.2157E+01
      4.373  0.6080E+00  0.5252E+00  0.2342E+01  0.2204E+01
      4.462  0.5946E+00  0.5823E+00  0.2395E+01  0.2256E+01
      4.551  0.5421E+00  0.5906E+00  0.2443E+01  0.2309E+01
      4.640  0.5244E+00  0.5764E+00  0.2490E+01  0.2360E+01
      4.729  0.6619E+00  0.5746E+00  0.2549E+01  0.2411E+01
      4.818  0.7073E+00  0.4571E+00  0.2612E+01  0.2452E+01
      4.907  0.6372E+00  0.4058E+00  0.2669E+01  0.2488E+01
      4.996  0.6613E+00  0.5017E+00  0.2728E+01  0.2533E+01
      5.086  0.7271E+00  0.6839E+00  0.2792E+01  0.2594E+01
      5.175  0.7655E+00  0.6936E+00  0.2861E+01  0.2655E+01
      5.264  0.7008E+00  0.6131E+00  0.2923E+01  0.2710E+01
      5.353  0.7662E+00  0.6520E+00  0.2991E+01  0.2768E+01
      5.442  0.8451E+00  0.7155E+00  0.3067E+01  0.2832E+01
      5.531  0.8400E+00  0.6672E+00  0.3141E+01  0.2891E+01
      5.620  0.9207E+00  0.5764E+00  0.3223E+01  0.2943E+01
      5.709  0.8565E+00  0.6664E+00  0.3300E+01  0.3002E+01
      5.798  0.9543E+00  0.7777E+00  0.3385E+01  0.3071E+01
      5.887  0.1190E+01  0.7596E+00  0.3491E+01  0.3139E+01
      5.976  0.1241E+01  0.6920E+00  0.3601E+01  0.3200E+01
      6.065  0.1110E+01  0.7393E+00  0.3700E+01  0.3266E+01
      6.154  0.9986E+00  0.7661E+00  0.3789E+01  0.3335E+01
      6.243  0.1242E+01  0.8996E+00  0.3900E+01  0.3415E+01
      6.332  0.1547E+01  0.9551E+00  0.4037E+01  0.3500E+01
      6.421  0.1446E+01  0.8674E+00  0.4166E+01  0.3577E+01
      6.510  0.1280E+01  0.7423E+00  0.4280E+01  0.3643E+01
      6.599  0.1260E+01  0.8667E+00  0.4392E+01  0.3720E+01
      6.688  0.1380E+01  0.9854E+00  0.4515E+01  0.3808E+01
      6.777  0.1658E+01  0.9223E+00  0.4663E+01  0.3890E+01
      6.866  0.1670E+01  0.9514E+00  0.4812E+01  0.3975E+01
      6.955  0.1452E+01  0.9803E+00  0.4941E+01  0.4062E+01
      7.044  0.1375E+01  0.1137E+01  0.5063E+01  0.4164E+01
      7.133  0.1414E+01  0.1150E+01  0.5189E+01  0.4266E+01
      7.222  0.1245E+01  0.7738E+00  0.5300E+01  0.4335E+01
      7.311  0.1103E+01  0.7848E+00  0.5399E+01  0.4405E+01
      7.400  0.9976E+00  0.1370E+01  0.5488E+01  0.4527E+01
      7.489  0.8960E+00  0.1661E+01  0.5568E+01  0.4675E+01
      7.578  0.8968E+00  0.1637E+01  0.5647E+01  0.4820E+01
      7.667  0.9966E+00  0.1340E+01  0.5736E+01  0.4940E+01
      7.756  0.9338E+00  0.9229E+00  0.5819E+01  0.5022E+01
      7.845  0.8345E+00  0.8335E+00  0.5894E+01  0.5096E+01
      7.934  0.8320E+00  0.7891E+00  0.5968E+01  0.5167E+01
      8.023  0.6996E+00  0.8918E+00  0.6030E+01  0.5246E+01
      8.112  0.7529E+00  0.8712E+00  0.6097E+01  0.5324E+01
      8.201  0.8812E+00  0.7469E+00  0.6176E+01  0.5390E+01
      8.290  0.1036E+01  0.7248E+00  0.6268E+01  0.5455E+01
      8.379  0.1171E+01  0.6879E+00  0.6372E+01  0.5516E+01
      8.468  0.1254E+01  0.6974E+00  0.6484E+01  0.5578E+01
      8.557  0.1593E+01  0.6948E+00  0.6626E+01  0.5640E+01
      8.646  0.2058E+01  0.7235E+00  0.6809E+01  0.5705E+01
      8.735  0.2855E+01  0.7810E+00  0.7063E+01  0.5774E+01
      8.824  0.3681E+01  0.6512E+00  0.7391E+01  0.5832E+01
      8.913  0.3412E+01  0.5526E+00  0.7695E+01  0.5882E+01
      9.002  0.2543E+01  0.7485E+00  0.7921E+01  0.5948E+01
      9.091  0.1907E+01  0.8080E+00  0.8091E+01  0.6020E+01
      9.180  0.1469E+01  0.6301E+00  0.8222E+01  0.6076E+01
      9.269  0.1286E+01  0.4340E+00  0.8337E+01  0.6115E+01
      9.358  0.1115E+01  0.5329E+00  0.8437E+01  0.6163E+01
      9.447  0.1052E+01  0.6693E+00  0.8531E+01  0.6222E+01
      9.536  0.1064E+01  0.7133E+00  0.8625E+01  0.6286E+01
      9.625  0.8389E+00  0.9109E+00  0.8700E+01  0.6367E+01
      9.714  0.6196E+00  0.1123E+01  0.8755E+01  0.6467E+01
      9.803  0.5664E+00  0.1234E+01  0.8806E+01  0.6577E+01
      9.892  0.7060E+00  0.1126E+01  0.8869E+01  0.6677E+01
      9.981  0.7603E+00  0.1248E+01  0.8937E+01  0.6788E+01
     10.070  0.6884E+00  0.1529E+01  0.8998E+01  0.6924E+01
     10.159  0.5577E+00  0.1390E+01  0.9047E+01  0.7048E+01
     10.248  0.4948E+00  0.1157E+01  0.9092E+01  0.7151E+01
     10.337  0.6003E+00  0.1142E+01  0.9145E+01  0.7253E+01
     10.426  0.6423E+00  0.1093E+01  0.9202E+01  0.7350E+01
     10.515  0.6092E+00  0.1321E+01  0.9257E+01  0.7468E+01
     10.604  0.6934E+00  0.1740E+01  0.9318E+01  0.7623E+01
     10.693  0.7915E+00  0.2160E+01  0.9389E+01  0.7815E+01
     10.782  0.8362E+00  0.2277E+01  0.9463E+01  0.8018E+01
     10.871  0.8858E+00  0.2246E+01  0.9542E+01  0.8218E+01
     10.960  0.1074E+01  0.2197E+01  0.9638E+01  0.8414E+01
     11.049  0.1386E+01  0.2390E+01  0.9761E+01  0.8627E+01
     11.138  0.1505E+01  0.2395E+01  0.9895E+01  0.8840E+01
     11.227  0.1334E+01  0.1959E+01  0.1001E+02  0.9015E+01
     11.316  0.1196E+01  0.1387E+01  0.1012E+02  0.9138E+01
     11.405  0.9054E+00  0.9854E+00  0.1020E+02  0.9226E+01
     11.494  0.7849E+00  0.1025E+01  0.1027E+02  0.9318E+01
     11.583  0.9023E+00  0.1042E+01  0.1035E+02  0.9411E+01
     11.672  0.8769E+00  0.1039E+01  0.1043E+02  0.9503E+01
     11.761  0.6561E+00  0.9326E+00  0.1049E+02  0.9586E+01
     11.850  0.5720E+00  0.7905E+00  0.1054E+02  0.9657E+01
     11.939  0.7585E+00  0.9459E+00  0.1061E+02  0.9741E+01
     12.028  0.7966E+00  0.1025E+01  0.1068E+02  0.9832E+01
     12.117  0.7785E+00  0.7708E+00  0.1075E+02  0.9901E+01
     12.206  0.8056E+00  0.6418E+00  0.1082E+02  0.9958E+01
     12.295  0.7902E+00  0.9386E+00  0.1089E+02  0.1004E+02
     12.384  0.7626E+00  0.1388E+01  0.1096E+02  0.1017E+02
     12.473  0.7865E+00  0.1462E+01  0.1103E+02  0.1030E+02
     12.562  0.8329E+00  0.1397E+01  0.1110E+02  0.1042E+02
     12.651  0.8913E+00  0.1286E+01  0.1118E+02  0.1053E+02
     12.740  0.9312E+00  0.1113E+01  0.1126E+02  0.1063E+02
     12.829  0.1013E+01  0.9729E+00  0.1135E+02  0.1072E+02
     12.918  0.1269E+01  0.9498E+00  0.1147E+02  0.1080E+02
     13.007  0.1269E+01  0.1256E+01  0.1158E+02  0.1092E+02
     13.096  0.1177E+01  0.1433E+01  0.1168E+02  0.1104E+02
     13.185  0.1075E+01  0.1346E+01  0.1178E+02  0.1116E+02
     13.274  0.9873E+00  0.1353E+01  0.1187E+02  0.1128E+02
     13.363  0.1019E+01  0.1341E+01  0.1196E+02  0.1140E+02
     13.452  0.7737E+00  0.1204E+01  0.1203E+02  0.1151E+02
     13.541  0.4373E+00  0.1227E+01  0.1207E+02  0.1162E+02
     13.630  0.3713E+00  0.1234E+01  0.1210E+02  0.1173E+02
     13.719  0.5052E+00  0.1047E+01  0.1215E+02  0.1182E+02
     13.808  0.8218E+00  0.7216E+00  0.1222E+02  0.1189E+02
     13.897  0.1085E+01  0.5341E+00  0.1232E+02  0.1194E+02
     13.986  0.9999E+00  0.6302E+00  0.1240E+02  0.1199E+02
     14.075  0.9126E+00  0.6469E+00  0.1249E+02  0.1205E+02
     14.164  0.8779E+00  0.5418E+00  0.1256E+02  0.1210E+02
     14.253  0.8733E+00  0.5525E+00  0.1264E+02  0.1215E+02
     14.342  0.7013E+00  0.7699E+00  0.1270E+02  0.1222E+02
     14.431  0.5786E+00  0.9460E+00  0.1276E+02  0.1230E+02
     14.520  0.6413E+00  0.1007E+01  0.1281E+02  0.1239E+02
     14.609  0.7788E+00  0.9735E+00  0.1288E+02  0.1248E+02
     14.698  0.9848E+00  0.1067E+01  0.1297E+02  0.1257E+02
     14.787  0.9232E+00  0.1160E+01  0.1305E+02  0.1268E+02
     14.876  0.7793E+00  0.8201E+00  0.1312E+02  0.1275E+02
     14.965  0.7299E+00  0.5902E+00  0.1319E+02  0.1280E+02
     15.054  0.8725E+00  0.5048E+00  0.1326E+02  0.1285E+02
     15.143  0.1058E+01  0.5154E+00  0.1336E+02  0.1289E+02
     15.232  0.1086E+01  0.6433E+00  0.1346E+02  0.1295E+02
     15.321  0.9153E+00  0.8179E+00  0.1354E+02  0.1302E+02
     15.410  0.5803E+00  0.1009E+01  0.1359E+02  0.1311E+02
     15.499  0.6099E+00  0.1040E+01  0.1364E+02  0.1320E+02
     15.588  0.9140E+00  0.1121E+01  0.1372E+02  0.1330E+02
     15.677  0.9703E+00  0.1297E+01  0.1381E+02  0.1342E+02
     15.766  0.9857E+00  0.1130E+01  0.1390E+02  0.1352E+02
     15.855  0.1123E+01  0.1139E+01  0.1400E+02  0.1362E+02
     15.944  0.1144E+01  0.1129E+01  0.1410E+02  0.1372E+02
     16.033  0.1050E+01  0.1080E+01  0.1419E+02  0.1382E+02
     16.122  0.9229E+00  0.1095E+01  0.1428E+02  0.1392E+02
     16.211  0.7658E+00  0.1135E+01  0.1434E+02  0.1402E+02
     16.300  0.7272E+00  0.1127E+01  0.1441E+02  0.1412E+02
     16.389  0.9130E+00  0.1097E+01  0.1449E+02  0.1422E+02
     16.478  0.1168E+01  0.1018E+01  0.1459E+02  0.1431E+02
     16.567  0.1196E+01  0.1025E+01  0.1470E+02  0.1440E+02
     16.656  0.1050E+01  0.1126E+01  0.1479E+02  0.1450E+02
     16.745  0.1001E+01  0.1084E+01  0.1488E+02  0.1459E+02
     16.834  0.9041E+00  0.1163E+01  0.1496E+02  0.1470E+02
     16.923  0.7869E+00  0.1321E+01  0.1503E+02  0.1482E+02
     17.012  0.7759E+00  0.1196E+01  0.1510E+02  0.1492E+02
     17.101  0.7815E+00  0.7078E+00  0.1517E+02  0.1499E+02
     17.190  0.7984E+00  0.5648E+00  0.1524E+02  0.1504E+02
     17.279  0.6883E+00  0.7917E+00  0.1531E+02  0.1511E+02
     17.368  0.5653E+00  0.8412E+00  0.1536E+02  0.1518E+02
     17.457  0.4871E+00  0.7919E+00  0.1540E+02  0.1525E+02
     17.546  0.6068E+00  0.6725E+00  0.1545E+02  0.1531E+02
     17.635  0.6367E+00  0.7219E+00  0.1551E+02  0.1538E+02
     17.724  0.4504E+00  0.6999E+00  0.1555E+02  0.1544E+02
     17.813  0.3043E+00  0.4829E+00  0.1558E+02  0.1548E+02
     17.902  0.3154E+00  0.4695E+00  0.1561E+02  0.1552E+02
     17.991  0.3589E+00  0.5930E+00  0.1564E+02  0.1558E+02
     18.080  0.2700E+00  0.5752E+00  0.1566E+02  0.1563E+02
     18.169  0.2630E+00  0.3590E+00  0.1569E+02  0.1566E+02
     18.258  0.2529E+00  0.2801E+00  0.1571E+02  0.1568E+02
     18.347  0.1592E+00  0.2446E+00  0.1572E+02  0.1571E+02
     18.436  0.7253E-01  0.1426E+00  0.1573E+02  0.1572E+02
     18.525  0.8404E-01  0.8232E-01  0.1574E+02  0.1573E+02
     18.614  0.1338E+00  0.1234E+00  0.1575E+02  0.1574E+02
     18.703  0.1576E+00  0.1863E+00  0.1576E+02  0.1575E+02
     18.792  0.8043E-01  0.1215E+00  0.1577E+02  0.1576E+02
     18.881  0.4662E-01  0.6156E-01  0.1577E+02  0.1577E+02
     18.970  0.8829E-01  0.9284E-01  0.1578E+02  0.1578E+02
     19.059  0.1737E+00  0.1746E+00  0.1580E+02  0.1579E+02
     19.148  0.2926E+00  0.2946E+00  0.1582E+02  0.1582E+02
     19.237  0.2570E+00  0.2718E+00  0.1585E+02  0.1584E+02
     19.326  0.1093E+00  0.1246E+00  0.1586E+02  0.1586E+02
     19.415  0.3512E-01  0.4588E-01  0.1586E+02  0.1586E+02
     19.504  0.5016E-01  0.6869E-01  0.1586E+02  0.1587E+02
     19.593  0.9117E-01  0.9808E-01  0.1587E+02  0.1587E+02
     19.682  0.7268E-01  0.8389E-01  0.1588E+02  0.1588E+02
     19.771  0.7781E-01  0.7818E-01  0.1588E+02  0.1589E+02
     19.860  0.1030E+00  0.1055E+00  0.1589E+02  0.1590E+02
     19.949  0.1357E+00  0.1166E+00  0.1591E+02  0.1591E+02
     20.038  0.1290E+00  0.1114E+00  0.1592E+02  0.1592E+02
     20.127  0.1092E+00  0.1046E+00  0.1593E+02  0.1593E+02
     20.216  0.6937E-01  0.6820E-01  0.1593E+02  0.1593E+02
     20.305  0.6160E-01  0.6676E-01  0.1594E+02  0.1594E+02
     20.394  0.3934E-01  0.5876E-01  0.1594E+02  0.1594E+02
     20.483  0.4713E-01  0.7024E-01  0.1595E+02  0.1595E+02
     20.572  0.7145E-01  0.6175E-01  0.1595E+02  0.1596E+02
     20.661  0.6503E-01  0.5987E-01  0.1596E+02  0.1596E+02
     20.750  0.6182E-01  0.5151E-01  0.1596E+02  0.1597E+02
     20.839  0.3818E-01  0.4447E-01  0.1597E+02  0.1597E+02
     20.928  0.4307E-01  0.5314E-01  0.1597E+02  0.1598E+02
     21.017  0.4992E-01  0.2476E-01  0.1598E+02  0.1598E+02
     21.106  0.1973E-01  0.5465E-02  0.1598E+02  0.1598E+02
     21.195  0.4171E-02  0.1025E-02  0.1598E+02  0.1598E+02
     21.284  0.8826E-03  0.3046E-03  0.1598E+02  0.1598E+02
     21.373  0.9152E-03  0.1780E-02  0.1598E+02  0.1598E+02
     21.462  0.5157E-02  0.9494E-02  0.1598E+02  0.1598E+02
     21.551  0.2340E-01  0.3454E-01  0.1598E+02  0.1598E+02
     21.640  0.5064E-01  0.4984E-01  0.1599E+02  0.1599E+02
     21.729  0.3314E-01  0.2942E-01  0.1599E+02  0.1599E+02
     21.818  0.1208E-01  0.3312E-01  0.1599E+02  0.1599E+02
     21.907  0.1938E-01  0.4837E-01  0.1599E+02  0.1600E+02
     21.996  0.4454E-01  0.2878E-01  0.1600E+02  0.1600E+02
     22.085  0.3903E-01  0.7866E-02  0.1600E+02  0.1600E+02
     22.174  0.1357E-01  0.1487E-02  0.1600E+02  0.1600E+02
     22.263  0.2787E-02  0.1663E-03  0.1600E+02  0.1600E+02
     22.352  0.4882E-03  0.0000E+00  0.1600E+02  0.1600E+02
     22.441  0.0000E+00  0.0000E+00  0.1600E+02  0.1600E+02
     22.530  0.0000E+00  0.0000E+00  0.1600E+02  0.1600E+02
     22.619  0.0000E+00  0.0000E+00  0.1600E+02  0.1600E+02
     22.708  0.0000E+00  0.0000E+00  0.1600E+02  0.1600E+02
     22.797  0.0000E+00  0.0000E+00  0.1600E+02  0.1600E+02
     22.886  0.0000E+00  0.0000E+00  0.1600E+02  0.1600E+02
     22.975  0.0000E+00  0.0000E+00  0.1600E+02  0.1600E+02
     23.064  0.0000E+00  0.0000E+00  0.1600E+02  0.1600E+02
     23.153  0.0000E+00  0.0000E+00  0.1600E+02  0.1600E+02
     23.242  0.0000E+00  0.0000E+00  0.1600E+02  0.1600E+02
     23.24232210     -3.45888496  301      9.58621896      1.00000000
     -3.459  0.0000E+00  0.0000E+00  0.0000E+00  0.0000E+00  0.0000E+00  0.0000E+00  0.0000E+00  0.0000E+00  0.0000E+00  0.0000E+00  0.0000E+00  0.0000E+00  0.0000E+00  0.0000E+00  0.0000E+00  0.0000E+00  0.0000E+00  0.0000E+00
     -3.370  0.0000E+00  0.0000E+00  0.0000E+00  0.0000E+00  0.0000E+00  0.0000E+00  0.0000E+00  0.0000E+00  0.0000E+00  0.0000E+00  0.0000E+00  0.0000E+00  0.0000E+00  0.0000E+00  0.0000E+00  0.0000E+00  0.0000E+00  0.0000E+00
     -3.281  0.0000E+00  0.0000E+00  0.0000E+00  0.0000E+00  0.0000E+00  0.0000E+00  0.0000E+00  0.0000E+00  0.0000E+00  0.0000E+00  0.0000E+00  0.0000E+00  0.0000E+00  0.0000E+00  0.0000E+00  0.0000E+00  0.0000E+00  0.0000E+00
     -3.192  0.0000E+00  0.0000E+00  0.0000E+00  0.0000E+00  0.0000E+00  0.0000E+00  0.0000E+00  0.0000E+00  0.0000E+00  0.0000E+00  0.0000E+00  0.0000E+00  0.0000E+00  0.0000E+00  0.0000E+00  0.0000E+00  0.0000E+00  0.0000E+00
     -3.103  0.0000E+00  0.0000E+00  0.0000E+00  0.0000E+00  0.0000E+00  0.0000E+00  0.0000E+00  0.0000E+00  0.0000E+00  0.0000E+00  0.0000E+00  0.0000E+00  0.0000E+00  0.0000E+00  0.0000E+00  0.0000E+00  0.0000E+00  0.0000E+00
     -3.014  0.0000E+00  0.0000E+00  0.0000E+00  0.0000E+00  0.0000E+00  0.0000E+00  0.0000E+00  0.0000E+00  0.0000E+00  0.0000E+00  0.0000E+00  0.0000E+00  0.0000E+00  0.0000E+00  0.0000E+00  0.0000E+00  0.0000E+00  0.0000E+00
     -2.925  0.0000E+00  0.0000E+00  0.0000E+00  0.0000E+00  0.0000E+00  0.0000E+00  0.0000E+00  0.0000E+00  0.0000E+00  0.0000E+00  0.0000E+00  0.0000E+00  0.0000E+00  0.0000E+00  0.0000E+00  0.0000E+00  0.0000E+00  0.0000E+00
     -2.836  0.0000E+00  0.0000E+00  0.0000E+00  0.0000E+00  0.0000E+00  0.0000E+00  0.0000E+00  0.0000E+00  0.0000E+00  0.0000E+00  0.0000E+00  0.0000E+00  0.0000E+00  0.0000E+00  0.0000E+00  0.0000E+00  0.0000E+00  0.0000E+00
     -2.747  0.0000E+00  0.0000E+00  0.0000E+00  0.0000E+00  0.0000E+00  0.0000E+00  0.0000E+00  0.0000E+00  0.0000E+00  0.0000E+00  0.0000E+00  0.0000E+00  0.0000E+00  0.0000E+00  0.0000E+00  0.0000E+00  0.0000E+00  0.0000E+00
     -2.658  0.4401E-06  0.0000E+00  0.8893E-09  0.0000E+00  0.8893E-09  0.0000E+00  0.8886E-09  0.0000E+00  0.2594E-14  0.0000E+00  0.2617E-14  0.0000E+00  0.3299E-11  0.0000E+00  0.2594E-14  0.0000E+00  0.4213E-11  0.0000E+00
     -2.569  0.3071E-05  0.8760E-07  0.1026E-07  0.1290E-21  0.1026E-07  0.1307E-21  0.1026E-07  0.2167E-21  0.4505E-10  0.1772E-14  0.4507E-10  0.7037E-15  0.3009E-10  0.1747E-15  0.4505E-10  0.1772E-14  0.3145E-10  0.2267E-15
     -2.480  0.1845E-04  0.1785E-05  0.6743E-07  0.6268E-08  0.6743E-07  0.6268E-08  0.6740E-07  0.6265E-08  0.3774E-09  0.2423E-10  0.3774E-09  0.2424E-10  0.2044E-09  0.1485E-10  0.3774E-09  0.2423E-10  0.2269E-09  0.1592E-10
     -2.391  0.1073E-03  0.9750E-05  0.4075E-06  0.3642E-07  0.4075E-06  0.3642E-07  0.4072E-06  0.3640E-07  0.2378E-08  0.2014E-09  0.2379E-08  0.2014E-09  0.1397E-08  0.7316E-10  0.2378E-08  0.2014E-09  0.1555E-08  0.7839E-10
     -2.302  0.5733E-03  0.5800E-04  0.2341E-05  0.2323E-06  0.2341E-05  0.2323E-06  0.2339E-05  0.2321E-06  0.1471E-07  0.1272E-08  0.1472E-07  0.1272E-08  0.7980E-08  0.6437E-09  0.1471E-07  0.1272E-08  0.8893E-08  0.7221E-09
     -2.213  0.2302E-02  0.3218E-03  0.1137E-04  0.1348E-05  0.1137E-04  0.1348E-05  0.1137E-04  0.1347E-05  0.7982E-07  0.7925E-08  0.7984E-07  0.7928E-08  0.3919E-07  0.3631E-08  0.7982E-07  0.7925E-08  0.4317E-07  0.4064E-08
     -2.124  0.5536E-02  0.1446E-02  0.3725E-04  0.7006E-05  0.3725E-04  0.7006E-05  0.3723E-04  0.7003E-05  0.3379E-06  0.4408E-07  0.3380E-06  0.4409E-07  0.1442E-06  0.1893E-07  0.3379E-06  0.4408E-07  0.1599E-06  0.2101E-07
     -2.035  0.7935E-02  0.4121E-02  0.7992E-04  0.2646E-04  0.7992E-04  0.2646E-04  0.7986E-04  0.2645E-04  0.9322E-06  0.2086E-06  0.9326E-06  0.2087E-06  0.4775E-06  0.7633E-07  0.9322E-06  0.2086E-06  0.5631E-06  0.8413E-07
     -1.946  0.1057E-01  0.6712E-02  0.1589E-03  0.6272E-04  0.1589E-03  0.6272E-04  0.1587E-03  0.6268E-04  0.2354E-05  0.6408E-06  0.2355E-05  0.6410E-06  0.1338E-05  0.2526E-06  0.2354E-05  0.6408E-06  0.1603E-05  0.2933E-06
     -1.857  0.1337E-01  0.8692E-02  0.2478E-03  0.1252E-03  0.2478E-03  0.1252E-03  0.2477E-03  0.1251E-03  0.4918E-05  0.1604E-05  0.4919E-05  0.1605E-05  0.2084E-05  0.7778E-06  0.4918E-05  0.1604E-05  0.2464E-05  0.9332E-06
     -1.768  0.1171E-01  0.1178E-01  0.2731E-03  0.2194E-03  0.2731E-03  0.2194E-03  0.2730E-03  0.2193E-03  0.7334E-05  0.3734E-05  0.7339E-05  0.3735E-05  0.2694E-05  0.1440E-05  0.7334E-05  0.3734E-05  0.3017E-05  0.1715E-05
     -1.679  0.1402E-01  0.1105E-01  0.4242E-03  0.2516E-03  0.4242E-03  0.2516E-03  0.4235E-03  0.2516E-03  0.1297E-04  0.5794E-05  0.1298E-04  0.5795E-05  0.5935E-05  0.1763E-05  0.1297E-04  0.5794E-05  0.6752E-05  0.2010E-05
     -1.590  0.1743E-01  0.1160E-01  0.6038E-03  0.3522E-03  0.6038E-03  0.3522E-03  0.6033E-03  0.3518E-03  0.1813E-04  0.9869E-05  0.1814E-04  0.9873E-05  0.1089E-04  0.3483E-05  0.1813E-04  0.9869E-05  0.1308E-04  0.3911E-05
     -1.501  0.1637E-01  0.1533E-01  0.6476E-03  0.5450E-03  0.6476E-03  0.5450E-03  0.6478E-03  0.5445E-03  0.2464E-04  0.1502E-04  0.2467E-04  0.1502E-04  0.1189E-04  0.7122E-05  0.2464E-04  0.1502E-04  0.1430E-04  0.8474E-05
     -1.412  0.1686E-01  0.1512E-01  0.7758E-03  0.6118E-03  0.7758E-03  0.6118E-03  0.7754E-03  0.6119E-03  0.4083E-04  0.1959E-04  0.4090E-04  0.1960E-04  0.1295E-04  0.8715E-05  0.4083E-04  0.1959E-04  0.1455E-04  0.1056E-04
     -1.323  0.1779E-01  0.1465E-01  0.9053E-03  0.6917E-03  0.9053E-03  0.6917E-03  0.9049E-03  0.6916E-03  0.5221E-04  0.3153E-04  0.5222E-04  0.3156E-04  0.1636E-04  0.8850E-05  0.5221E-04  0.3153E-04  0.1840E-04  0.1011E-04
     -1.234  0.1505E-01  0.1630E-01  0.8908E-03  0.8616E-03  0.8908E-03  0.8616E-03  0.8887E-03  0.8612E-03  0.4854E-04  0.4517E-04  0.4860E-04  0.4516E-04  0.2292E-04  0.1133E-04  0.4854E-04  0.4517E-04  0.2758E-04  0.1264E-04
     -1.145  0.1997E-01  0.1366E-01  0.1344E-02  0.8265E-03  0.1344E-02  0.8265E-03  0.1342E-02  0.8250E-03  0.7717E-04  0.4162E-04  0.7741E-04  0.4160E-04  0.4037E-04  0.1468E-04  0.7717E-04  0.4162E-04  0.4877E-04  0.1744E-04
     -1.056  0.2188E-01  0.1665E-01  0.1578E-02  0.1179E-02  0.1578E-02  0.1179E-02  0.1578E-02  0.1176E-02  0.1073E-03  0.6010E-04  0.1075E-03  0.6018E-04  0.4698E-04  0.2612E-04  0.1073E-03  0.6010E-04  0.5439E-04  0.3172E-04
     -0.967  0.2082E-01  0.1961E-01  0.1646E-02  0.1491E-02  0.1646E-02  0.1491E-02  0.1645E-02  0.1491E-02  0.1316E-03  0.8884E-04  0.1317E-03  0.8893E-04  0.4861E-04  0.3311E-04  0.1316E-03  0.8884E-04  0.5550E-04  0.3873E-04
     -0.878  0.1929E-01  0.1861E-01  0.1636E-02  0.1547E-02  0.1636E-02  0.1547E-02  0.1638E-02  0.1546E-02  0.1525E-03  0.1096E-03  0.1524E-03  0.1096E-03  0.4422E-04  0.3379E-04  0.1525E-03  0.1096E-03  0.5108E-04  0.3852E-04
     -0.789  0.1480E-01  0.1770E-01  0.1391E-02  0.1592E-02  0.1391E-02  0.1592E-02  0.1389E-02  0.1593E-02  0.1486E-03  0.1302E-03  0.1487E-03  0.1301E-03  0.3672E-04  0.3269E-04  0.1486E-03  0.1302E-03  0.4255E-04  0.3777E-04
     -0.700  0.1812E-01  0.1366E-01  0.1982E-02  0.1344E-02  0.1982E-02  0.1344E-02  0.1973E-02  0.1343E-02  0.2051E-03  0.1275E-03  0.2056E-03  0.1275E-03  0.6975E-04  0.2542E-04  0.2051E-03  0.1275E-03  0.8094E-04  0.2946E-04
     -0.611  0.2406E-01  0.1509E-01  0.2861E-02  0.1756E-02  0.2861E-02  0.1756E-02  0.2856E-02  0.1748E-02  0.2832E-03  0.1635E-03  0.2832E-03  0.1638E-03  0.1150E-03  0.4298E-04  0.2832E-03  0.1635E-03  0.1346E-03  0.5002E-04
     -0.522  0.2163E-01  0.2077E-01  0.2771E-02  0.2668E-02  0.2771E-02  0.2668E-02  0.2772E-02  0.2662E-02  0.2969E-03  0.2359E-03  0.2968E-03  0.2360E-03  0.1107E-03  0.7574E-04  0.2969E-03  0.2359E-03  0.1321E-03  0.8840E-04
     -0.433  0.2178E-01  0.1937E-01  0.3029E-02  0.2679E-02  0.3029E-02  0.2679E-02  0.3026E-02  0.2681E-02  0.3792E-03  0.2516E-03  0.3794E-03  0.2515E-03  0.1153E-03  0.7605E-04  0.3792E-03  0.2516E-03  0.1376E-03  0.9035E-04
     -0.344  0.1799E-01  0.1883E-01  0.2668E-02  0.2841E-02  0.2668E-02  0.2841E-02  0.2673E-02  0.2838E-02  0.3581E-03  0.3137E-03  0.3580E-03  0.3140E-03  0.1056E-03  0.7604E-04  0.3581E-03  0.3137E-03  0.1240E-03  0.9076E-04
     -0.255  0.1510E-01  0.1641E-01  0.2479E-02  0.2648E-02  0.2479E-02  0.2648E-02  0.2475E-02  0.2653E-02  0.4172E-03  0.3129E-03  0.4183E-03  0.3128E-03  0.9152E-04  0.7252E-04  0.4172E-03  0.3129E-03  0.1007E-03  0.8557E-04
     -0.166  0.2032E-01  0.1284E-01  0.3782E-02  0.2319E-02  0.3782E-02  0.2319E-02  0.3764E-02  0.2315E-02  0.6698E-03  0.3319E-03  0.6707E-03  0.3328E-03  0.1279E-03  0.6003E-04  0.6698E-03  0.3319E-03  0.1405E-03  0.6670E-04
     -0.077  0.2102E-01  0.1723E-01  0.4763E-02  0.3618E-02  0.4763E-02  0.3618E-02  0.4745E-02  0.3598E-02  0.7449E-03  0.5440E-03  0.7445E-03  0.5450E-03  0.1550E-03  0.8386E-04  0.7449E-03  0.5440E-03  0.1761E-03  0.9224E-04
      0.012  0.1660E-01  0.1856E-01  0.4698E-02  0.4764E-02  0.4698E-02  0.4764E-02  0.4695E-02  0.4749E-02  0.6806E-03  0.6404E-03  0.6806E-03  0.6402E-03  0.1441E-03  0.1023E-03  0.6806E-03  0.6404E-03  0.1686E-03  0.1161E-03
      0.101  0.1414E-01  0.1441E-01  0.4701E-02  0.4548E-02  0.4701E-02  0.4548E-02  0.4693E-02  0.4549E-02  0.7574E-03  0.5894E-03  0.7588E-03  0.5894E-03  0.1379E-03  0.8946E-04  0.7574E-03  0.5894E-03  0.1632E-03  0.1036E-03
      0.190  0.1363E-01  0.1204E-01  0.4926E-02  0.4540E-02  0.4926E-02  0.4540E-02  0.4933E-02  0.4533E-02  0.9539E-03  0.6487E-03  0.9561E-03  0.6498E-03  0.1412E-03  0.8414E-04  0.9539E-03  0.6487E-03  0.1607E-03  0.9902E-04
      0.279  0.1631E-01  0.1088E-01  0.5231E-02  0.4454E-02  0.5231E-02  0.4454E-02  0.5232E-02  0.4466E-02  0.1378E-02  0.7555E-03  0.1381E-02  0.7569E-03  0.1474E-03  0.8103E-04  0.1378E-02  0.7555E-03  0.1555E-03  0.9195E-04
      0.368  0.1567E-01  0.1332E-01  0.5648E-02  0.4790E-02  0.5648E-02  0.4790E-02  0.5637E-02  0.4786E-02  0.1619E-02  0.1115E-02  0.1620E-02  0.1118E-02  0.1476E-03  0.8726E-04  0.1619E-02  0.1115E-02  0.1588E-03  0.9133E-04
      0.457  0.1268E-01  0.1348E-01  0.5268E-02  0.5450E-02  0.5268E-02  0.5450E-02  0.5279E-02  0.5441E-02  0.1605E-02  0.1368E-02  0.1603E-02  0.1368E-02  0.1293E-03  0.9190E-04  0.1605E-02  0.1368E-02  0.1406E-03  0.9799E-04
      0.546  0.8383E-02  0.1058E-01  0.3777E-02  0.4873E-02  0.3777E-02  0.4873E-02  0.3795E-02  0.4888E-02  0.1286E-02  0.1300E-02  0.1284E-02  0.1297E-02  0.8622E-04  0.7651E-04  0.1286E-02  0.1300E-02  0.9330E-04  0.8270E-04
      0.635  0.6996E-02  0.7089E-02  0.3529E-02  0.3535E-02  0.3529E-02  0.3535E-02  0.3529E-02  0.3544E-02  0.1424E-02  0.1055E-02  0.1428E-02  0.1053E-02  0.7272E-04  0.5152E-04  0.1424E-02  0.1055E-02  0.7766E-04  0.5531E-04
      0.724  0.9974E-02  0.5550E-02  0.4570E-02  0.3187E-02  0.4570E-02  0.3187E-02  0.4559E-02  0.3190E-02  0.2261E-02  0.1106E-02  0.2272E-02  0.1109E-02  0.1037E-03  0.4125E-04  0.2261E-02  0.1106E-02  0.1012E-03  0.4382E-04
      0.813  0.1080E-01  0.7946E-02  0.5333E-02  0.4148E-02  0.5333E-02  0.4148E-02  0.5329E-02  0.4135E-02  0.2836E-02  0.1766E-02  0.2835E-02  0.1774E-02  0.1396E-03  0.5801E-04  0.2836E-02  0.1766E-02  0.1397E-03  0.5600E-04
      0.902  0.8661E-02  0.8979E-02  0.4225E-02  0.5050E-02  0.4225E-02  0.5050E-02  0.4233E-02  0.5048E-02  0.2353E-02  0.2298E-02  0.2347E-02  0.2296E-02  0.1996E-03  0.7334E-04  0.2353E-02  0.2298E-02  0.2290E-03  0.7038E-04
      0.991  0.1212E-01  0.6026E-02  0.3477E-02  0.3884E-02  0.3477E-02  0.3884E-02  0.3486E-02  0.3893E-02  0.2023E-02  0.1857E-02  0.2017E-02  0.1852E-02  0.5109E-03  0.6496E-04  0.2023E-02  0.1857E-02  0.6345E-03  0.6732E-04