   4   4   1   0
  0.1394108E+02  0.3819638E-09  0.3820913E-09  0.3820913E-09  0.5000000E-15
  1.000000000000000E-004
  CAR 
 unknown system                          
     22.12626440     -3.69555435  301      8.91484986      1.00000000
     -3.696  0.0000E+00  0.0000E+00  0.0000E+00  0.0000E+00
     -3.609  0.0000E+00  0.0000E+00  0.0000E+00  0.0000E+00
     -3.523  0.0000E+00  0.0000E+00  0.0000E+00  0.0000E+00
     -3.437  0.0000E+00  0.0000E+00  0.0000E+00  0.0000E+00
     -3.351  0.0000E+00  0.0000E+00  0.0000E+00  0.0000E+00
     -3.265  0.0000E+00  0.0000E+00  0.0000E+00  0.0000E+00
     -3.179  0.0000E+00  0.0000E+00  0.0000E+00  0.0000E+00
     -3.093  0.0000E+00  0.0000E+00  0.0000E+00  0.0000E+00
     -3.007  0.3232E-06  0.0000E+00  0.2782E-07  0.0000E+00
     -2.921  0.4690E-05  0.0000E+00  0.4315E-06  0.0000E+00
     -2.835  0.3363E-04  0.3623E-05  0.3326E-05  0.3119E-06
     -2.749  0.1911E-03  0.2441E-04  0.1977E-04  0.2413E-05
     -2.663  0.1049E-02  0.1390E-03  0.1100E-03  0.1438E-04
     -2.577  0.5284E-02  0.7677E-03  0.5648E-03  0.8045E-04
     -2.491  0.2026E-01  0.3973E-02  0.2308E-02  0.4224E-03
     -2.404  0.4777E-01  0.1636E-01  0.6420E-02  0.1830E-02
     -2.318  0.6972E-01  0.4276E-01  0.1242E-01  0.5510E-02
     -2.232  0.9510E-01  0.6698E-01  0.2061E-01  0.1128E-01
     -2.146  0.1191E+00  0.9020E-01  0.3085E-01  0.1904E-01
     -2.060  0.1088E+00  0.1186E+00  0.4022E-01  0.2925E-01
     -1.974  0.1350E+00  0.1110E+00  0.5185E-01  0.3880E-01
     -1.888  0.1660E+00  0.1296E+00  0.6613E-01  0.4996E-01
     -1.802  0.1594E+00  0.1654E+00  0.7987E-01  0.6421E-01
     -1.716  0.1708E+00  0.1619E+00  0.9458E-01  0.7816E-01
     -1.630  0.1774E+00  0.1688E+00  0.1099E+00  0.9270E-01
     -1.544  0.1630E+00  0.1815E+00  0.1239E+00  0.1083E+00
     -1.458  0.2203E+00  0.1635E+00  0.1429E+00  0.1224E+00
     -1.372  0.2383E+00  0.2167E+00  0.1634E+00  0.1411E+00
     -1.286  0.2348E+00  0.2405E+00  0.1836E+00  0.1618E+00
     -1.199  0.2149E+00  0.2365E+00  0.2021E+00  0.1822E+00
     -1.113  0.1795E+00  0.2194E+00  0.2176E+00  0.2010E+00
     -1.027  0.2425E+00  0.1833E+00  0.2385E+00  0.2168E+00
     -0.941  0.3108E+00  0.2433E+00  0.2652E+00  0.2378E+00
     -0.855  0.2868E+00  0.3139E+00  0.2899E+00  0.2648E+00
     -0.769  0.3011E+00  0.2899E+00  0.3159E+00  0.2898E+00
     -0.683  0.2447E+00  0.3039E+00  0.3369E+00  0.3160E+00
     -0.597  0.2437E+00  0.2468E+00  0.3579E+00  0.3372E+00
     -0.511  0.3436E+00  0.2517E+00  0.3875E+00  0.3589E+00
     -0.425  0.3770E+00  0.3649E+00  0.4200E+00  0.3904E+00
     -0.339  0.3397E+00  0.3945E+00  0.4493E+00  0.4243E+00
     -0.253  0.3319E+00  0.3458E+00  0.4778E+00  0.4541E+00
     -0.167  0.3446E+00  0.3393E+00  0.5075E+00  0.4833E+00
     -0.080  0.3864E+00  0.3304E+00  0.5408E+00  0.5118E+00
      0.006  0.3974E+00  0.3948E+00  0.5751E+00  0.5458E+00
      0.092  0.3455E+00  0.4045E+00  0.6048E+00  0.5807E+00
      0.178  0.2491E+00  0.3276E+00  0.6263E+00  0.6089E+00
      0.264  0.2518E+00  0.2446E+00  0.6480E+00  0.6300E+00
      0.350  0.3456E+00  0.2487E+00  0.6778E+00  0.6514E+00
      0.436  0.3708E+00  0.3576E+00  0.7098E+00  0.6822E+00
      0.522  0.3015E+00  0.3644E+00  0.7357E+00  0.7136E+00
      0.608  0.2818E+00  0.2760E+00  0.7600E+00  0.7374E+00
      0.694  0.2951E+00  0.2214E+00  0.7854E+00  0.7565E+00
      0.780  0.4113E+00  0.2380E+00  0.8209E+00  0.7770E+00
      0.866  0.4927E+00  0.4116E+00  0.8633E+00  0.8125E+00
      0.952  0.3581E+00  0.4585E+00  0.8942E+00  0.8519E+00
      1.038  0.2775E+00  0.3641E+00  0.9181E+00  0.8833E+00
      1.125  0.3260E+00  0.2960E+00  0.9462E+00  0.9088E+00
      1.211  0.4310E+00  0.2735E+00  0.9833E+00  0.9324E+00
      1.297  0.3991E+00  0.4158E+00  0.1018E+01  0.9682E+00
      1.383  0.3521E+00  0.4206E+00  0.1048E+01  0.1004E+01
      1.469  0.3374E+00  0.3056E+00  0.1077E+01  0.1031E+01
      1.555  0.4247E+00  0.3210E+00  0.1114E+01  0.1058E+01
      1.641  0.5355E+00  0.3567E+00  0.1160E+01  0.1089E+01
      1.727  0.4220E+00  0.5058E+00  0.1196E+01  0.1133E+01
      1.813  0.3182E+00  0.4927E+00  0.1224E+01  0.1175E+01
      1.899  0.2968E+00  0.3423E+00  0.1249E+01  0.1205E+01
      1.985  0.3841E+00  0.2986E+00  0.1282E+01  0.1230E+01
      2.071  0.5081E+00  0.3294E+00  0.1326E+01  0.1259E+01
      2.157  0.4069E+00  0.4657E+00  0.1361E+01  0.1299E+01
      2.243  0.4173E+00  0.4747E+00  0.1397E+01  0.1340E+01
      2.330  0.4596E+00  0.3616E+00  0.1437E+01  0.1371E+01
      2.416  0.5129E+00  0.4172E+00  0.1481E+01  0.1407E+01
      2.502  0.5917E+00  0.4837E+00  0.1532E+01  0.1448E+01
      2.588  0.5614E+00  0.5996E+00  0.1580E+01  0.1500E+01
      2.674  0.5842E+00  0.6148E+00  0.1630E+01  0.1553E+01
      2.760  0.6190E+00  0.5226E+00  0.1684E+01  0.1598E+01
      2.846  0.5446E+00  0.5994E+00  0.1731E+01  0.1650E+01
      2.932  0.4682E+00  0.5942E+00  0.1771E+01  0.1701E+01
      3.018  0.4566E+00  0.5175E+00  0.1810E+01  0.1746E+01
      3.104  0.6030E+00  0.4252E+00  0.1862E+01  0.1782E+01
      3.190  0.6771E+00  0.4739E+00  0.1921E+01  0.1823E+01
      3.276  0.5939E+00  0.6225E+00  0.1972E+01  0.1877E+01
      3.362  0.5299E+00  0.6203E+00  0.2017E+01  0.1930E+01
      3.448  0.6819E+00  0.5046E+00  0.2076E+01  0.1973E+01
      3.535  0.7244E+00  0.4762E+00  0.2138E+01  0.2014E+01
      3.621  0.6449E+00  0.6206E+00  0.2194E+01  0.2068E+01
      3.707  0.6366E+00  0.6663E+00  0.2249E+01  0.2125E+01
      3.793  0.5929E+00  0.5532E+00  0.2300E+01  0.2173E+01
      3.879  0.6261E+00  0.5366E+00  0.2354E+01  0.2219E+01
      3.965  0.5935E+00  0.5735E+00  0.2405E+01  0.2269E+01
      4.051  0.5257E+00  0.5977E+00  0.2450E+01  0.2320E+01
      4.137  0.5508E+00  0.5907E+00  0.2498E+01  0.2371E+01
      4.223  0.6936E+00  0.5686E+00  0.2557E+01  0.2420E+01
      4.309  0.6970E+00  0.4351E+00  0.2618E+01  0.2458E+01
      4.395  0.6387E+00  0.4360E+00  0.2673E+01  0.2495E+01
      4.481  0.6783E+00  0.5327E+00  0.2731E+01  0.2541E+01
      4.567  0.7512E+00  0.6809E+00  0.2796E+01  0.2600E+01
      4.654  0.7946E+00  0.6786E+00  0.2864E+01  0.2658E+01
      4.740  0.7256E+00  0.6277E+00  0.2927E+01  0.2712E+01
      4.826  0.7551E+00  0.6808E+00  0.2992E+01  0.2771E+01
      4.912  0.8334E+00  0.7356E+00  0.3063E+01  0.2834E+01
      4.998  0.8592E+00  0.6680E+00  0.3137E+01  0.2892E+01
      5.084  0.9452E+00  0.5911E+00  0.3219E+01  0.2943E+01
      5.170  0.8740E+00  0.6600E+00  0.3294E+01  0.3000E+01
      5.256  0.9555E+00  0.7590E+00  0.3376E+01  0.3065E+01
      5.342  0.1186E+01  0.7704E+00  0.3479E+01  0.3131E+01
      5.428  0.1241E+01  0.7155E+00  0.3585E+01  0.3193E+01
      5.514  0.1151E+01  0.7491E+00  0.3685E+01  0.3257E+01
      5.600  0.1054E+01  0.7691E+00  0.3775E+01  0.3324E+01
      5.686  0.1217E+01  0.8918E+00  0.3880E+01  0.3400E+01
      5.772  0.1573E+01  0.9440E+00  0.4016E+01  0.3482E+01
      5.859  0.1555E+01  0.8795E+00  0.4150E+01  0.3558E+01
      5.945  0.1389E+01  0.7605E+00  0.4269E+01  0.3623E+01
      6.031  0.1351E+01  0.7838E+00  0.4386E+01  0.3691E+01
      6.117  0.1475E+01  0.1019E+01  0.4513E+01  0.3778E+01
      6.203  0.1783E+01  0.9757E+00  0.4666E+01  0.3862E+01
      6.289  0.1770E+01  0.9123E+00  0.4819E+01  0.3941E+01
      6.375  0.1543E+01  0.9038E+00  0.4952E+01  0.4019E+01
      6.461  0.1480E+01  0.1017E+01  0.5079E+01  0.4106E+01
      6.547  0.1496E+01  0.1189E+01  0.5208E+01  0.4209E+01
      6.633  0.1307E+01  0.1002E+01  0.5321E+01  0.4295E+01
      6.719  0.1163E+01  0.8131E+00  0.5421E+01  0.4365E+01
      6.805  0.1039E+01  0.1076E+01  0.5510E+01  0.4458E+01
      6.891  0.9606E+00  0.1429E+01  0.5593E+01  0.4581E+01
      6.977  0.9950E+00  0.1493E+01  0.5679E+01  0.4710E+01
      7.064  0.1054E+01  0.1534E+01  0.5770E+01  0.4842E+01
      7.150  0.9425E+00  0.1261E+01  0.5851E+01  0.4950E+01
      7.236  0.9170E+00  0.9756E+00  0.5930E+01  0.5034E+01
      7.322  0.8272E+00  0.8200E+00  0.6001E+01  0.5105E+01
      7.408  0.7507E+00  0.8164E+00  0.6066E+01  0.5175E+01
      7.494  0.9143E+00  0.9392E+00  0.6145E+01  0.5256E+01
      7.580  0.1062E+01  0.8901E+00  0.6236E+01  0.5333E+01
      7.666  0.1258E+01  0.7654E+00  0.6345E+01  0.5399E+01
      7.752  0.1389E+01  0.7482E+00  0.6464E+01  0.5463E+01
      7.838  0.1740E+01  0.7006E+00  0.6614E+01  0.5524E+01
      7.924  0.2434E+01  0.6764E+00  0.6824E+01  0.5582E+01
      8.010  0.3473E+01  0.7054E+00  0.7123E+01  0.5643E+01
      8.096  0.4022E+01  0.7674E+00  0.7469E+01  0.5709E+01
      8.182  0.3242E+01  0.7743E+00  0.7748E+01  0.5776E+01
      8.269  0.2405E+01  0.6608E+00  0.7955E+01  0.5833E+01
      8.355  0.1835E+01  0.6265E+00  0.8113E+01  0.5887E+01
      8.441  0.1487E+01  0.7756E+00  0.8242E+01  0.5954E+01
      8.527  0.1313E+01  0.8247E+00  0.8355E+01  0.6025E+01
      8.613  0.1069E+01  0.6269E+00  0.8447E+01  0.6079E+01
      8.699  0.1081E+01  0.4541E+00  0.8541E+01  0.6118E+01
      8.785  0.1088E+01  0.5966E+00  0.8634E+01  0.6169E+01
      8.871  0.8519E+00  0.7237E+00  0.8708E+01  0.6232E+01
      8.957  0.6130E+00  0.7429E+00  0.8761E+01  0.6296E+01
      9.043  0.5258E+00  0.9446E+00  0.8806E+01  0.6377E+01
      9.129  0.7262E+00  0.1223E+01  0.8869E+01  0.6482E+01
      9.215  0.8841E+00  0.1285E+01  0.8945E+01  0.6593E+01
      9.301  0.7652E+00  0.1168E+01  0.9011E+01  0.6693E+01
      9.388  0.5654E+00  0.1380E+01  0.9059E+01  0.6812E+01
      9.474  0.5175E+00  0.1632E+01  0.9104E+01  0.6953E+01
      9.560  0.5802E+00  0.1432E+01  0.9154E+01  0.7076E+01
      9.646  0.6412E+00  0.1263E+01  0.9209E+01  0.7185E+01
      9.732  0.7306E+00  0.1205E+01  0.9272E+01  0.7289E+01
      9.818  0.8061E+00  0.1221E+01  0.9342E+01  0.7394E+01
      9.904  0.8906E+00  0.1591E+01  0.9418E+01  0.7531E+01
      9.990  0.9371E+00  0.2053E+01  0.9499E+01  0.7708E+01
     10.076  0.1308E+01  0.2354E+01  0.9612E+01  0.7910E+01
     10.162  0.1557E+01  0.2378E+01  0.9746E+01  0.8115E+01
     10.248  0.1415E+01  0.2136E+01  0.9867E+01  0.8299E+01
     10.334  0.1287E+01  0.2110E+01  0.9978E+01  0.8481E+01
     10.420  0.1174E+01  0.2453E+01  0.1008E+02  0.8692E+01
     10.506  0.1014E+01  0.2447E+01  0.1017E+02  0.8903E+01
     10.593  0.9790E+00  0.2024E+01  0.1025E+02  0.9077E+01
     10.679  0.9956E+00  0.1400E+01  0.1034E+02  0.9198E+01
     10.765  0.9129E+00  0.1165E+01  0.1042E+02  0.9298E+01
     10.851  0.6682E+00  0.1124E+01  0.1047E+02  0.9395E+01
     10.937  0.5447E+00  0.1117E+01  0.1052E+02  0.9492E+01
     11.023  0.7650E+00  0.1048E+01  0.1059E+02  0.9582E+01
     11.109  0.9575E+00  0.8853E+00  0.1067E+02  0.9658E+01
     11.195  0.8648E+00  0.9900E+00  0.1074E+02  0.9744E+01
     11.281  0.8853E+00  0.1119E+01  0.1082E+02  0.9840E+01
     11.367  0.7989E+00  0.9878E+00  0.1089E+02  0.9925E+01
     11.453  0.7101E+00  0.1033E+01  0.1095E+02  0.1001E+02
     11.539  0.8246E+00  0.1406E+01  0.1102E+02  0.1014E+02
     11.625  0.8619E+00  0.1540E+01  0.1109E+02  0.1027E+02
     11.711  0.9221E+00  0.1593E+01  0.1117E+02  0.1041E+02
     11.798  0.9607E+00  0.1381E+01  0.1126E+02  0.1052E+02
     11.884  0.9940E+00  0.1116E+01  0.1134E+02  0.1062E+02
     11.970  0.1230E+01  0.1134E+01  0.1145E+02  0.1072E+02
     12.056  0.1387E+01  0.1202E+01  0.1157E+02  0.1082E+02
     12.142  0.1194E+01  0.1275E+01  0.1167E+02  0.1093E+02
     12.228  0.1062E+01  0.1334E+01  0.1176E+02  0.1105E+02
     12.314  0.9072E+00  0.1448E+01  0.1184E+02  0.1117E+02
     12.400  0.7977E+00  0.1464E+01  0.1191E+02  0.1130E+02
     12.486  0.8249E+00  0.1461E+01  0.1198E+02  0.1142E+02
     12.572  0.6580E+00  0.1306E+01  0.1204E+02  0.1154E+02
     12.658  0.4974E+00  0.1206E+01  0.1208E+02  0.1164E+02
     12.744  0.5783E+00  0.1064E+01  0.1213E+02  0.1173E+02
     12.830  0.8150E+00  0.1005E+01  0.1220E+02  0.1182E+02
     12.916  0.1087E+01  0.8296E+00  0.1229E+02  0.1189E+02
     13.003  0.1041E+01  0.6797E+00  0.1238E+02  0.1195E+02
     13.089  0.9124E+00  0.6901E+00  0.1246E+02  0.1201E+02
     13.175  0.8317E+00  0.6307E+00  0.1253E+02  0.1206E+02
     13.261  0.8196E+00  0.6109E+00  0.1260E+02  0.1211E+02
     13.347  0.7884E+00  0.6776E+00  0.1267E+02  0.1217E+02
     13.433  0.7028E+00  0.8443E+00  0.1273E+02  0.1225E+02
     13.519  0.7033E+00  0.1038E+01  0.1279E+02  0.1233E+02
     13.605  0.7557E+00  0.1159E+01  0.1286E+02  0.1243E+02
     13.691  0.8269E+00  0.1088E+01  0.1293E+02  0.1253E+02
     13.777  0.9503E+00  0.1036E+01  0.1301E+02  0.1262E+02
     13.863  0.9816E+00  0.1021E+01  0.1310E+02  0.1271E+02
     13.949  0.8421E+00  0.7375E+00  0.1317E+02  0.1277E+02
     14.035  0.8355E+00  0.5376E+00  0.1324E+02  0.1282E+02
     14.122  0.9950E+00  0.4247E+00  0.1333E+02  0.1285E+02
     14.208  0.1162E+01  0.5236E+00  0.1343E+02  0.1290E+02
     14.294  0.1036E+01  0.7791E+00  0.1352E+02  0.1296E+02
     14.380  0.6727E+00  0.9702E+00  0.1357E+02  0.1305E+02
     14.466  0.5973E+00  0.1104E+01  0.1362E+02  0.1314E+02
     14.552  0.8668E+00  0.1170E+01  0.1370E+02  0.1324E+02
     14.638  0.9748E+00  0.1428E+01  0.1378E+02  0.1337E+02
     14.724  0.1052E+01  0.1360E+01  0.1387E+02  0.1348E+02
     14.810  0.1195E+01  0.1117E+01  0.1398E+02  0.1358E+02
     14.896  0.1188E+01  0.1101E+01  0.1408E+02  0.1367E+02
     14.982  0.1051E+01  0.1060E+01  0.1417E+02  0.1377E+02
     15.068  0.9593E+00  0.1120E+01  0.1425E+02  0.1386E+02
     15.154  0.7870E+00  0.1173E+01  0.1432E+02  0.1396E+02
     15.240  0.6324E+00  0.1124E+01  0.1437E+02  0.1406E+02
     15.327  0.7406E+00  0.1207E+01  0.1444E+02  0.1416E+02
     15.413  0.1050E+01  0.1239E+01  0.1453E+02  0.1427E+02
     15.499  0.1310E+01  0.9906E+00  0.1464E+02  0.1436E+02
     15.585  0.1169E+01  0.9398E+00  0.1474E+02  0.1444E+02
     15.671  0.1074E+01  0.1077E+01  0.1484E+02  0.1453E+02
     15.757  0.1080E+01  0.1127E+01  0.1493E+02  0.1463E+02
     15.843  0.1012E+01  0.1169E+01  0.1502E+02  0.1473E+02
     15.929  0.7807E+00  0.1294E+01  0.1508E+02  0.1484E+02
     16.015  0.6747E+00  0.1152E+01  0.1514E+02  0.1494E+02
     16.101  0.7755E+00  0.6987E+00  0.1521E+02  0.1500E+02
     16.187  0.7018E+00  0.7419E+00  0.1527E+02  0.1506E+02
     16.273  0.5746E+00  0.9335E+00  0.1532E+02  0.1514E+02
     16.359  0.5540E+00  0.8716E+00  0.1537E+02  0.1522E+02
     16.445  0.5838E+00  0.7616E+00  0.1542E+02  0.1528E+02
     16.532  0.7145E+00  0.7106E+00  0.1548E+02  0.1535E+02
     16.618  0.5796E+00  0.7337E+00  0.1553E+02  0.1541E+02
     16.704  0.3470E+00  0.5664E+00  0.1556E+02  0.1546E+02
     16.790  0.2731E+00  0.4183E+00  0.1558E+02  0.1549E+02
     16.876  0.3140E+00  0.4941E+00  0.1561E+02  0.1554E+02
     16.962  0.3372E+00  0.6142E+00  0.1564E+02  0.1559E+02
     17.048  0.3021E+00  0.5244E+00  0.1566E+02  0.1563E+02
     17.134  0.3029E+00  0.3748E+00  0.1569E+02  0.1567E+02
     17.220  0.2751E+00  0.3062E+00  0.1571E+02  0.1569E+02
     17.306  0.1355E+00  0.2110E+00  0.1572E+02  0.1571E+02
     17.392  0.7288E-01  0.1233E+00  0.1573E+02  0.1572E+02
     17.478  0.1002E+00  0.9817E-01  0.1574E+02  0.1573E+02
     17.564  0.1458E+00  0.1587E+00  0.1575E+02  0.1574E+02
     17.650  0.1381E+00  0.1675E+00  0.1576E+02  0.1576E+02
     17.737  0.6646E-01  0.8737E-01  0.1577E+02  0.1577E+02
     17.823  0.3729E-01  0.6740E-01  0.1577E+02  0.1577E+02
     17.909  0.9425E-01  0.1449E+00  0.1578E+02  0.1578E+02
     17.995  0.2272E+00  0.2246E+00  0.1580E+02  0.1580E+02
     18.081  0.2761E+00  0.2484E+00  0.1582E+02  0.1583E+02
     18.167  0.1898E+00  0.1941E+00  0.1584E+02  0.1584E+02
     18.253  0.1340E+00  0.1323E+00  0.1585E+02  0.1585E+02
     18.339  0.6288E-01  0.6433E-01  0.1586E+02  0.1586E+02
     18.425  0.4462E-01  0.7288E-01  0.1586E+02  0.1587E+02
     18.511  0.9033E-01  0.1209E+00  0.1587E+02  0.1588E+02
     18.597  0.1159E+00  0.1109E+00  0.1588E+02  0.1589E+02
     18.683  0.1032E+00  0.9544E-01  0.1589E+02  0.1589E+02
     18.769  0.1182E+00  0.1198E+00  0.1590E+02  0.1590E+02
     18.856  0.1253E+00  0.9942E-01  0.1591E+02  0.1591E+02
     18.942  0.1124E+00  0.1132E+00  0.1592E+02  0.1592E+02
     19.028  0.9523E-01  0.8189E-01  0.1593E+02  0.1593E+02
     19.114  0.5359E-01  0.4473E-01  0.1593E+02  0.1593E+02
     19.200  0.5422E-01  0.6767E-01  0.1594E+02  0.1594E+02
     19.286  0.6219E-01  0.8526E-01  0.1594E+02  0.1595E+02
     19.372  0.6282E-01  0.7778E-01  0.1595E+02  0.1595E+02
     19.458  0.7285E-01  0.5257E-01  0.1595E+02  0.1596E+02
     19.544  0.5811E-01  0.5528E-01  0.1596E+02  0.1596E+02
     19.630  0.5955E-01  0.4765E-01  0.1596E+02  0.1597E+02
     19.716  0.3828E-01  0.3105E-01  0.1597E+02  0.1597E+02
     19.802  0.2424E-01  0.4873E-01  0.1597E+02  0.1597E+02
     19.888  0.4535E-01  0.4298E-01  0.1597E+02  0.1598E+02
     19.974  0.4512E-01  0.1404E-01  0.1598E+02  0.1598E+02
     20.061  0.1588E-01  0.3124E-02  0.1598E+02  0.1598E+02
     20.147  0.3517E-02  0.1837E-02  0.1598E+02  0.1598E+02
     20.233  0.1590E-02  0.6796E-02  0.1598E+02  0.1598E+02
     20.319  0.5178E-02  0.2712E-01  0.1598E+02  0.1598E+02
     20.405  0.2256E-01  0.5057E-01  0.1598E+02  0.1599E+02
     20.491  0.5011E-01  0.3119E-01  0.1598E+02  0.1599E+02
     20.577  0.3559E-01  0.1025E-01  0.1599E+02  0.1599E+02
     20.663  0.1062E-01  0.1195E-01  0.1599E+02  0.1599E+02
     20.749  0.5282E-02  0.3544E-01  0.1599E+02  0.1599E+02
     20.835  0.1557E-01  0.4871E-01  0.1599E+02  0.1600E+02
     20.921  0.4155E-01  0.2321E-01  0.1599E+02  0.1600E+02
     21.007  0.4403E-01  0.5582E-02  0.1600E+02  0.1600E+02
     21.093  0.1734E-01  0.1063E-02  0.1600E+02  0.1600E+02
     21.179  0.3851E-02  0.1013E-03  0.1600E+02  0.1600E+02
     21.266  0.7193E-03  0.0000E+00  0.1600E+02  0.1600E+02
     21.352  0.6626E-04  0.0000E+00  0.1600E+02  0.1600E+02
     21.438  0.0000E+00  0.0000E+00  0.1600E+02  0.1600E+02
     21.524  0.0000E+00  0.0000E+00  0.1600E+02  0.1600E+02
     21.610  0.0000E+00  0.0000E+00  0.1600E+02  0.1600E+02
     21.696  0.0000E+00  0.0000E+00  0.1600E+02  0.1600E+02
     21.782  0.0000E+00  0.0000E+00  0.1600E+02  0.1600E+02
     21.868  0.0000E+00  0.0000E+00  0.1600E+02  0.1600E+02
     21.954  0.0000E+00  0.0000E+00  0.1600E+02  0.1600E+02
     22.040  0.0000E+00  0.0000E+00  0.1600E+02  0.1600E+02
     22.126  0.0000E+00  0.0000E+00  0.1600E+02  0.1600E+02
     22.12626440     -3.69555435  301      8.91484986      1.00000000
     -3.696  0.0000E+00  0.0000E+00  0.0000E+00  0.0000E+00  0.0000E+00  0.0000E+00  0.0000E+00  0.0000E+00  0.0000E+00  0.0000E+00  0.0000E+00  0.0000E+00  0.0000E+00  0.0000E+00  0.0000E+00  0.0000E+00  0.0000E+00  0.0000E+00
     -3.609  0.0000E+00  0.0000E+00  0.0000E+00  0.0000E+00  0.0000E+00  0.0000E+00  0.0000E+00  0.0000E+00  0.0000E+00  0.0000E+00  0.0000E+00  0.0000E+00  0.0000E+00  0.0000E+00  0.0000E+00  0.0000E+00  0.0000E+00  0.0000E+00
     -3.523  0.0000E+00  0.0000E+00  0.0000E+00  0.0000E+00  0.0000E+00  0.0000E+00  0.0000E+00  0.0000E+00  0.0000E+00  0.0000E+00  0.0000E+00  0.0000E+00  0.0000E+00  0.0000E+00  0.0000E+00  0.0000E+00  0.0000E+00  0.0000E+00
     -3.437  0.0000E+00  0.0000E+00  0.0000E+00  0.0000E+00  0.0000E+00  0.0000E+00  0.0000E+00  0.0000E+00  0.0000E+00  0.0000E+00  0.0000E+00  0.0000E+00  0.0000E+00  0.0000E+00  0.0000E+00  0.0000E+00  0.0000E+00  0.0000E+00
     -3.351  0.0000E+00  0.0000E+00  0.0000E+00  0.0000E+00  0.0000E+00  0.0000E+00  0.0000E+00  0.0000E+00  0.0000E+00  0.0000E+00  0.0000E+00  0.0000E+00  0.0000E+00  0.0000E+00  0.0000E+00  0.0000E+00  0.0000E+00  0.0000E+00
     -3.265  0.0000E+00  0.0000E+00  0.0000E+00  0.0000E+00  0.0000E+00  0.0000E+00  0.0000E+00  0.0000E+00  0.0000E+00  0.0000E+00  0.0000E+00  0.0000E+00  0.0000E+00  0.0000E+00  0.0000E+00  0.0000E+00  0.0000E+00  0.0000E+00
     -3.179  0.0000E+00  0.0000E+00  0.0000E+00  0.0000E+00  0.0000E+00  0.0000E+00  0.0000E+00  0.0000E+00  0.0000E+00  0.0000E+00  0.0000E+00  0.0000E+00  0.0000E+00  0.0000E+00  0.0000E+00  0.0000E+00  0.0000E+00  0.0000E+00
     -3.093  0.0000E+00  0.0000E+00  0.0000E+00  0.0000E+00  0.0000E+00  0.0000E+00  0.0000E+00  0.0000E+00  0.0000E+00  0.0000E+00  0.0000E+00  0.0000E+00  0.0000E+00  0.0000E+00  0.0000E+00  0.0000E+00  0.0000E+00  0.0000E+00
     -3.007  0.3699E-07  0.0000E+00  0.1723E-21  0.0000E+00  0.1723E-21  0.0000E+00  0.1713E-22  0.0000E+00  0.9474E-15  0.0000E+00  0.2630E-15  0.0000E+00  0.2855E-16  0.0000E+00  0.9474E-15  0.0000E+00  0.3741E-16  0.0000E+00
     -2.921  0.5324E-06  0.0000E+00  0.1141E-08  0.0000E+00  0.1141E-08  0.0000E+00  0.1140E-08  0.0000E+00  0.8667E-14  0.0000E+00  0.7088E-14  0.0000E+00  0.4297E-11  0.0000E+00  0.8667E-14  0.0000E+00  0.5514E-11  0.0000E+00
     -2.835  0.3800E-05  0.3656E-06  0.1274E-07  0.7769E-09  0.1274E-07  0.7769E-09  0.1274E-07  0.7764E-09  0.5742E-10  0.3617E-14  0.5749E-10  0.4978E-14  0.3669E-10  0.2065E-11  0.5742E-10  0.3617E-14  0.3842E-10  0.2641E-11
     -2.749  0.2156E-04  0.2449E-05  0.7976E-07  0.8724E-08  0.7976E-07  0.8724E-08  0.7972E-07  0.8720E-08  0.4617E-09  0.3849E-10  0.4620E-09  0.3850E-10  0.2421E-09  0.1864E-10  0.4617E-09  0.3849E-10  0.2710E-09  0.1922E-10
     -2.663  0.1182E-03  0.1393E-04  0.4570E-06  0.5477E-07  0.4570E-06  0.5477E-07  0.4567E-06  0.5475E-07  0.2779E-08  0.3017E-09  0.2782E-08  0.3017E-09  0.1593E-08  0.1230E-09  0.2779E-08  0.3017E-09  0.1786E-08  0.1363E-09
     -2.577  0.5950E-03  0.7686E-04  0.2476E-05  0.3150E-06  0.2476E-05  0.3150E-06  0.2474E-05  0.3148E-06  0.1637E-07  0.1817E-08  0.1639E-07  0.1818E-08  0.8571E-08  0.8177E-09  0.1637E-07  0.1817E-08  0.9630E-08  0.9099E-09
     -2.491  0.2274E-02  0.3974E-03  0.1134E-04  0.1727E-05  0.1134E-04  0.1727E-05  0.1133E-04  0.1726E-05  0.8336E-07  0.1075E-07  0.8342E-07  0.1076E-07  0.3990E-07  0.4456E-08  0.8336E-07  0.1075E-07  0.4437E-07  0.4971E-08
     -2.404  0.5326E-02  0.1631E-02  0.3591E-04  0.8274E-05  0.3591E-04  0.8274E-05  0.3587E-04  0.8270E-05  0.3367E-06  0.5587E-07  0.3371E-06  0.5588E-07  0.1445E-06  0.2168E-07  0.3367E-06  0.5587E-07  0.1623E-06  0.2398E-07
     -2.318  0.7674E-02  0.4236E-02  0.7706E-04  0.2850E-04  0.7706E-04  0.2850E-04  0.7702E-04  0.2849E-04  0.9235E-06  0.2392E-06  0.9238E-06  0.2392E-06  0.4706E-06  0.8288E-07  0.9235E-06  0.2392E-06  0.5569E-06  0.9211E-07
     -2.232  0.1028E-01  0.6554E-02  0.1518E-03  0.6472E-04  0.1518E-03  0.6472E-04  0.1517E-03  0.6467E-04  0.2317E-05  0.6891E-06  0.2318E-05  0.6893E-06  0.1254E-05  0.2734E-06  0.2317E-05  0.6891E-06  0.1502E-05  0.3206E-06
     -2.146  0.1270E-01  0.8653E-02  0.2312E-03  0.1287E-03  0.2312E-03  0.1287E-03  0.2311E-03  0.1286E-03  0.4708E-05  0.1720E-05  0.4709E-05  0.1721E-05  0.1925E-05  0.7777E-06  0.4708E-05  0.1720E-05  0.2269E-05  0.9320E-06
     -2.060  0.1139E-01  0.1120E-01  0.2629E-03  0.2103E-03  0.2629E-03  0.2103E-03  0.2627E-03  0.2103E-03  0.7184E-05  0.3732E-05  0.7188E-05  0.3733E-05  0.2643E-05  0.1314E-05  0.7184E-05  0.3732E-05  0.2963E-05  0.1557E-05
     -1.974  0.1378E-01  0.1029E-01  0.4090E-03  0.2414E-03  0.4090E-03  0.2414E-03  0.4084E-03  0.2413E-03  0.1255E-04  0.5748E-05  0.1256E-04  0.5750E-05  0.5776E-05  0.1724E-05  0.1255E-04  0.5748E-05  0.6620E-05  0.1950E-05
     -1.888  0.1667E-01  0.1168E-01  0.5661E-03  0.3599E-03  0.5661E-03  0.3599E-03  0.5657E-03  0.3594E-03  0.1741E-04  0.9957E-05  0.1742E-04  0.9961E-05  0.1008E-04  0.3618E-05  0.1741E-04  0.9957E-05  0.1214E-04  0.4118E-05
     -1.802  0.1571E-01  0.1464E-01  0.6113E-03  0.5220E-03  0.6113E-03  0.5220E-03  0.6114E-03  0.5216E-03  0.2429E-04  0.1437E-04  0.2431E-04  0.1437E-04  0.1090E-04  0.6715E-05  0.2429E-04  0.1437E-04  0.1304E-04  0.8045E-05
     -1.716  0.1643E-01  0.1404E-01  0.7420E-03  0.5730E-03  0.7420E-03  0.5730E-03  0.7417E-03  0.5731E-03  0.3966E-04  0.1958E-04  0.3969E-04  0.1959E-04  0.1225E-04  0.7627E-05  0.3966E-04  0.1958E-04  0.1375E-04  0.9169E-05
     -1.630  0.1676E-01  0.1427E-01  0.8384E-03  0.6782E-03  0.8384E-03  0.6782E-03  0.8379E-03  0.6779E-03  0.4830E-04  0.3184E-04  0.4828E-04  0.3187E-04  0.1542E-04  0.8276E-05  0.4830E-04  0.3184E-04  0.1751E-04  0.9352E-05
     -1.544  0.1491E-01  0.1502E-01  0.8741E-03  0.7956E-03  0.8741E-03  0.7956E-03  0.8721E-03  0.7951E-03  0.4800E-04  0.4106E-04  0.4802E-04  0.4104E-04  0.2277E-04  0.1051E-04  0.4800E-04  0.4106E-04  0.2747E-04  0.1187E-04
     -1.458  0.1962E-01  0.1309E-01  0.1293E-02  0.8110E-03  0.1293E-02  0.8110E-03  0.1292E-02  0.8093E-03  0.7626E-04  0.3982E-04  0.7635E-04  0.3982E-04  0.3813E-04  0.1487E-04  0.7626E-04  0.3982E-04  0.4585E-04  0.1788E-04
     -1.372  0.2083E-01  0.1679E-01  0.1475E-02  0.1188E-02  0.1475E-02  0.1188E-02  0.1475E-02  0.1186E-02  0.1031E-03  0.6171E-04  0.1032E-03  0.6179E-04  0.4299E-04  0.2518E-04  0.1031E-03  0.6171E-04  0.4960E-04  0.3037E-04
     -1.286  0.2002E-01  0.1826E-01  0.1552E-02  0.1389E-02  0.1552E-02  0.1389E-02  0.1552E-02  0.1389E-02  0.1268E-03  0.8545E-04  0.1268E-03  0.8552E-04  0.4475E-04  0.2917E-04  0.1268E-03  0.8545E-04  0.5124E-04  0.3378E-04
     -1.199  0.1794E-01  0.1748E-01  0.1492E-02  0.1458E-02  0.1492E-02  0.1458E-02  0.1493E-02  0.1457E-02  0.1426E-03  0.1051E-03  0.1425E-03  0.1051E-03  0.3913E-04  0.3022E-04  0.1426E-03  0.1051E-03  0.4522E-04  0.3458E-04
     -1.113  0.1443E-01  0.1584E-01  0.1349E-02  0.1421E-02  0.1349E-02  0.1421E-02  0.1346E-02  0.1423E-02  0.1444E-03  0.1191E-03  0.1446E-03  0.1190E-03  0.3691E-04  0.2700E-04  0.1444E-03  0.1191E-03  0.4285E-04  0.3124E-04
     -1.027  0.1852E-01  0.1270E-01  0.2000E-02  0.1284E-02  0.2000E-02  0.1284E-02  0.1992E-02  0.1281E-02  0.2051E-03  0.1201E-03  0.2055E-03  0.1202E-03  0.7149E-04  0.2477E-04  0.2051E-03  0.1201E-03  0.8307E-04  0.2882E-04
     -0.941  0.2302E-01  0.1589E-01  0.2690E-02  0.1881E-02  0.2690E-02  0.1881E-02  0.2687E-02  0.1873E-02  0.2682E-03  0.1677E-03  0.2681E-03  0.1682E-03  0.1067E-03  0.4669E-04  0.2682E-03  0.1677E-03  0.1253E-03  0.5440E-04
     -0.855  0.2055E-01  0.1979E-01  0.2595E-02  0.2549E-02  0.2595E-02  0.2549E-02  0.2595E-02  0.2547E-02  0.2878E-03  0.2222E-03  0.2879E-03  0.2223E-03  0.1008E-03  0.6945E-04  0.2878E-03  0.2222E-03  0.1204E-03  0.8148E-04
     -0.769  0.2082E-01  0.1762E-01  0.2842E-02  0.2459E-02  0.2842E-02  0.2459E-02  0.2841E-02  0.2460E-02  0.3604E-03  0.2387E-03  0.3607E-03  0.2387E-03  0.1071E-03  0.6508E-04  0.3604E-03  0.2387E-03  0.1277E-03  0.7753E-04
     -0.683  0.1636E-01  0.1777E-01  0.2392E-02  0.2688E-02  0.2392E-02  0.2688E-02  0.2396E-02  0.2687E-02  0.3323E-03  0.2979E-03  0.3324E-03  0.2981E-03  0.9274E-04  0.6854E-04  0.3323E-03  0.2979E-03  0.1080E-03  0.8169E-04
     -0.597  0.1536E-01  0.1387E-01  0.2510E-02  0.2263E-02  0.2510E-02  0.2263E-02  0.2503E-02  0.2267E-02  0.4307E-03  0.2738E-03  0.4319E-03  0.2739E-03  0.8936E-04  0.5856E-04  0.4307E-03  0.2738E-03  0.9804E-04  0.6823E-04
     -0.511  0.2010E-01  0.1309E-01  0.3769E-02  0.2456E-02  0.3769E-02  0.2456E-02  0.3751E-02  0.2446E-02  0.6521E-03  0.3538E-03  0.6530E-03  0.3547E-03  0.1245E-03  0.5790E-04  0.6521E-03  0.3538E-03  0.1378E-03  0.6375E-04
     -0.425  0.1955E-01  0.1724E-01  0.4508E-02  0.3822E-02  0.4508E-02  0.3822E-02  0.4494E-02  0.3802E-02  0.6862E-03  0.5383E-03  0.6862E-03  0.5389E-03  0.1427E-03  0.8160E-04  0.6862E-03  0.5383E-03  0.1632E-03  0.9083E-04
     -0.339  0.1542E-01  0.1642E-01  0.4363E-02  0.4462E-02  0.4363E-02  0.4462E-02  0.4361E-02  0.4455E-02  0.6467E-03  0.5686E-03  0.6472E-03  0.5682E-03  0.1302E-03  0.8800E-04  0.6467E-03  0.5686E-03  0.1528E-03  0.1006E-03
     -0.253  0.1341E-01  0.1263E-01  0.4452E-02  0.4143E-02  0.4452E-02  0.4143E-02  0.4445E-02  0.4141E-02  0.7376E-03  0.5464E-03  0.7390E-03  0.5468E-03  0.1277E-03  0.7493E-04  0.7376E-03  0.5464E-03  0.1506E-03  0.8722E-04
     -0.167  0.1348E-01  0.1087E-01  0.4611E-02  0.4241E-02  0.4611E-02  0.4241E-02  0.4620E-02  0.4240E-02  0.9555E-03  0.6159E-03  0.9577E-03  0.6167E-03  0.1299E-03  0.7327E-04  0.9555E-03  0.6159E-03  0.1455E-03  0.8581E-04
     -0.080  0.1588E-01  0.1060E-01  0.4973E-02  0.4056E-02  0.4973E-02  0.4056E-02  0.4969E-02  0.4067E-02  0.1347E-02  0.7598E-03  0.1349E-02  0.7616E-03  0.1368E-03  0.6994E-04  0.1347E-02  0.7598E-03  0.1444E-03  0.7693E-04
      0.006  0.1459E-01  0.1306E-01  0.5278E-02  0.4707E-02  0.5278E-02  0.4707E-02  0.5271E-02  0.4697E-02  0.1523E-02  0.1114E-02  0.1523E-02  0.1116E-02  0.1345E-03  0.7958E-04  0.1523E-02  0.1114E-02  0.1456E-03  0.8323E-04
      0.092  0.1155E-01  0.1183E-01  0.4676E-02  0.4975E-02  0.4676E-02  0.4975E-02  0.4690E-02  0.4974E-02  0.1450E-02  0.1232E-02  0.1447E-02  0.1232E-02  0.1129E-03  0.7726E-04  0.1450E-02  0.1232E-02  0.1226E-03  0.8321E-04
      0.178  0.7585E-02  0.8917E-02  0.3405E-02  0.4065E-02  0.3405E-02  0.4065E-02  0.3411E-02  0.4080E-02  0.1189E-02  0.1096E-02  0.1188E-02  0.1094E-02  0.7527E-04  0.5979E-04  0.1189E-02  0.1096E-02  0.8176E-04  0.6430E-04
      0.264  0.7150E-02  0.5899E-02  0.3408E-02  0.3075E-02  0.3408E-02  0.3075E-02  0.3408E-02  0.3078E-02  0.1433E-02  0.9300E-03  0.1437E-02  0.9297E-03  0.7073E-04  0.4059E-04  0.1433E-02  0.9300E-03  0.7441E-04  0.4379E-04
      0.350  0.1014E-01  0.5660E-02  0.4500E-02  0.3077E-02  0.4500E-02  0.3077E-02  0.4488E-02  0.3078E-02  0.2261E-02  0.1120E-02  0.2269E-02  0.1124E-02  0.1047E-03  0.3858E-04  0.2261E-02  0.1120E-02  0.1023E-03  0.3969E-04
      0.436  0.1002E-01  0.8304E-02  0.4838E-02  0.4285E-02  0.4838E-02  0.4285E-02  0.4844E-02  0.4273E-02  0.2575E-02  0.1822E-02  0.2571E-02  0.1828E-02  0.1374E-03  0.5837E-04  0.2575E-02  0.1822E-02  0.1417E-03  0.5584E-04
      0.522  0.8826E-02  0.7601E-02  0.3840E-02  0.4398E-02  0.3840E-02  0.4398E-02  0.3847E-02  0.4403E-02  0.2145E-02  0.1957E-02  0.2141E-02  0.1953E-02  0.2296E-03  0.6214E-04  0.2145E-02  0.1957E-02  0.2704E-03  0.6076E-04
      0.608  0.1317E-01  0.5325E-02  0.3149E-02  0.3328E-02  0.3149E-02  0.3328E-02  0.3159E-02  0.3335E-02  0.1818E-02  0.1580E-02  0.1813E-02  0.1577E-02  0.5760E-03  0.6335E-04  0.1818E-02  0.1580E-02  0.7205E-03  0.6829E-04