   4   4   1   0
  0.1153405E+02  0.3585783E-09  0.3586980E-09  0.3586980E-09  0.5000000E-15
  1.000000000000000E-004
  CAR 
 unknown system                          
     25.66715684     -2.87631009  301     11.08179705      1.00000000
     -2.876  0.0000E+00  0.0000E+00  0.0000E+00  0.0000E+00
     -2.781  0.0000E+00  0.0000E+00  0.0000E+00  0.0000E+00
     -2.686  0.0000E+00  0.0000E+00  0.0000E+00  0.0000E+00
     -2.591  0.0000E+00  0.0000E+00  0.0000E+00  0.0000E+00
     -2.496  0.0000E+00  0.0000E+00  0.0000E+00  0.0000E+00
     -2.401  0.0000E+00  0.0000E+00  0.0000E+00  0.0000E+00
     -2.305  0.0000E+00  0.0000E+00  0.0000E+00  0.0000E+00
     -2.210  0.0000E+00  0.0000E+00  0.0000E+00  0.0000E+00
     -2.115  0.0000E+00  0.0000E+00  0.0000E+00  0.0000E+00
     -2.020  0.7049E-06  0.0000E+00  0.6707E-07  0.0000E+00
     -1.925  0.1455E-04  0.4872E-06  0.1452E-05  0.4635E-07
     -1.830  0.9071E-04  0.7670E-05  0.1008E-04  0.7761E-06
     -1.735  0.5985E-03  0.6561E-04  0.6703E-04  0.7019E-05
     -1.639  0.3655E-02  0.4191E-03  0.4148E-03  0.4689E-04
     -1.544  0.1628E-01  0.2634E-02  0.1964E-02  0.2975E-03
     -1.449  0.4169E-01  0.1274E-01  0.5931E-02  0.1509E-02
     -1.354  0.5997E-01  0.3676E-01  0.1164E-01  0.5007E-02
     -1.259  0.7971E-01  0.5792E-01  0.1922E-01  0.1052E-01
     -1.164  0.1084E+00  0.7466E-01  0.2953E-01  0.1762E-01
     -1.069  0.9307E-01  0.1063E+00  0.3839E-01  0.2773E-01
     -0.973  0.1088E+00  0.9726E-01  0.4874E-01  0.3699E-01
     -0.878  0.1476E+00  0.1023E+00  0.6279E-01  0.4673E-01
     -0.783  0.1424E+00  0.1447E+00  0.7635E-01  0.6051E-01
     -0.688  0.1416E+00  0.1457E+00  0.8983E-01  0.7438E-01
     -0.593  0.1660E+00  0.1392E+00  0.1056E+00  0.8763E-01
     -0.498  0.1333E+00  0.1664E+00  0.1183E+00  0.1035E+00
     -0.403  0.1743E+00  0.1382E+00  0.1349E+00  0.1166E+00
     -0.307  0.2168E+00  0.1652E+00  0.1556E+00  0.1324E+00
     -0.212  0.2061E+00  0.2172E+00  0.1752E+00  0.1530E+00
     -0.117  0.2087E+00  0.2080E+00  0.1951E+00  0.1728E+00
     -0.022  0.1600E+00  0.2110E+00  0.2103E+00  0.1929E+00
      0.073  0.1691E+00  0.1673E+00  0.2264E+00  0.2088E+00
      0.168  0.2637E+00  0.1646E+00  0.2515E+00  0.2245E+00
      0.263  0.2712E+00  0.2586E+00  0.2774E+00  0.2492E+00
      0.359  0.2571E+00  0.2771E+00  0.3018E+00  0.2756E+00
      0.454  0.2626E+00  0.2559E+00  0.3268E+00  0.2999E+00
      0.549  0.1873E+00  0.2687E+00  0.3447E+00  0.3255E+00
      0.644  0.2522E+00  0.1899E+00  0.3687E+00  0.3436E+00
      0.739  0.3346E+00  0.2509E+00  0.4005E+00  0.3675E+00
      0.834  0.3246E+00  0.3471E+00  0.4315E+00  0.4005E+00
      0.929  0.2951E+00  0.3364E+00  0.4595E+00  0.4326E+00
      1.025  0.3006E+00  0.3001E+00  0.4882E+00  0.4611E+00
      1.120  0.3296E+00  0.3027E+00  0.5196E+00  0.4900E+00
      1.215  0.3637E+00  0.3163E+00  0.5542E+00  0.5201E+00
      1.310  0.3559E+00  0.3730E+00  0.5881E+00  0.5556E+00
      1.405  0.2766E+00  0.3584E+00  0.6144E+00  0.5898E+00
      1.500  0.2086E+00  0.2712E+00  0.6343E+00  0.6156E+00
      1.595  0.2588E+00  0.2088E+00  0.6590E+00  0.6355E+00
      1.691  0.3618E+00  0.2525E+00  0.6934E+00  0.6595E+00
      1.786  0.3040E+00  0.3660E+00  0.7224E+00  0.6944E+00
      1.881  0.2572E+00  0.3007E+00  0.7468E+00  0.7230E+00
      1.976  0.2372E+00  0.2368E+00  0.7694E+00  0.7456E+00
      2.071  0.3166E+00  0.1861E+00  0.7996E+00  0.7633E+00
      2.166  0.4479E+00  0.2837E+00  0.8422E+00  0.7903E+00
      2.262  0.3976E+00  0.4473E+00  0.8801E+00  0.8329E+00
      2.357  0.2755E+00  0.3656E+00  0.9063E+00  0.8678E+00
      2.452  0.2327E+00  0.3112E+00  0.9285E+00  0.8974E+00
      2.547  0.3748E+00  0.2309E+00  0.9642E+00  0.9194E+00
      2.642  0.4113E+00  0.3167E+00  0.1003E+01  0.9496E+00
      2.737  0.2863E+00  0.4215E+00  0.1031E+01  0.9897E+00
      2.832  0.2790E+00  0.3049E+00  0.1057E+01  0.1019E+01
      2.928  0.2856E+00  0.2342E+00  0.1084E+01  0.1041E+01
      3.023  0.4540E+00  0.2799E+00  0.1128E+01  0.1068E+01
      3.118  0.4720E+00  0.3709E+00  0.1173E+01  0.1103E+01
      3.213  0.2977E+00  0.4767E+00  0.1201E+01  0.1149E+01
      3.308  0.2764E+00  0.3629E+00  0.1227E+01  0.1183E+01
      3.403  0.2803E+00  0.2720E+00  0.1254E+01  0.1209E+01
      3.498  0.3654E+00  0.2917E+00  0.1289E+01  0.1237E+01
      3.594  0.4454E+00  0.3239E+00  0.1331E+01  0.1268E+01
      3.689  0.3331E+00  0.3885E+00  0.1363E+01  0.1305E+01
      3.784  0.3877E+00  0.3916E+00  0.1400E+01  0.1342E+01
      3.879  0.4254E+00  0.3145E+00  0.1440E+01  0.1372E+01
      3.974  0.4826E+00  0.4075E+00  0.1486E+01  0.1411E+01
      4.069  0.5361E+00  0.4440E+00  0.1537E+01  0.1453E+01
      4.164  0.4400E+00  0.5031E+00  0.1579E+01  0.1501E+01
      4.260  0.4900E+00  0.5171E+00  0.1626E+01  0.1550E+01
      4.355  0.5282E+00  0.4673E+00  0.1676E+01  0.1595E+01
      4.450  0.4924E+00  0.5221E+00  0.1723E+01  0.1644E+01
      4.545  0.4888E+00  0.5432E+00  0.1770E+01  0.1696E+01
      4.640  0.4368E+00  0.4735E+00  0.1811E+01  0.1741E+01
      4.735  0.4401E+00  0.4388E+00  0.1853E+01  0.1783E+01
      4.830  0.6275E+00  0.4208E+00  0.1913E+01  0.1823E+01
      4.926  0.5870E+00  0.5270E+00  0.1969E+01  0.1873E+01
      5.021  0.5145E+00  0.5966E+00  0.2018E+01  0.1930E+01
      5.116  0.6673E+00  0.4986E+00  0.2081E+01  0.1977E+01
      5.211  0.7015E+00  0.4480E+00  0.2148E+01  0.2020E+01
      5.306  0.5948E+00  0.6495E+00  0.2205E+01  0.2082E+01
      5.401  0.5542E+00  0.6144E+00  0.2258E+01  0.2141E+01
      5.496  0.5660E+00  0.5076E+00  0.2311E+01  0.2189E+01
      5.592  0.5938E+00  0.5723E+00  0.2368E+01  0.2243E+01
      5.687  0.5606E+00  0.5699E+00  0.2421E+01  0.2298E+01
      5.782  0.5176E+00  0.5814E+00  0.2471E+01  0.2353E+01
      5.877  0.5740E+00  0.5451E+00  0.2525E+01  0.2405E+01
      5.972  0.6985E+00  0.4631E+00  0.2592E+01  0.2449E+01
      6.067  0.6448E+00  0.3931E+00  0.2653E+01  0.2486E+01
      6.162  0.6294E+00  0.4919E+00  0.2713E+01  0.2533E+01
      6.258  0.6808E+00  0.6881E+00  0.2778E+01  0.2599E+01
      6.353  0.7160E+00  0.6703E+00  0.2846E+01  0.2663E+01
      6.448  0.6654E+00  0.6067E+00  0.2910E+01  0.2720E+01
      6.543  0.7449E+00  0.6257E+00  0.2981E+01  0.2780E+01
      6.638  0.8586E+00  0.6976E+00  0.3062E+01  0.2846E+01
      6.733  0.8162E+00  0.6147E+00  0.3140E+01  0.2905E+01
      6.828  0.8837E+00  0.5743E+00  0.3224E+01  0.2960E+01
      6.924  0.8217E+00  0.7262E+00  0.3302E+01  0.3029E+01
      7.019  0.9332E+00  0.7801E+00  0.3391E+01  0.3103E+01
      7.114  0.1183E+01  0.6955E+00  0.3504E+01  0.3169E+01
      7.209  0.1229E+01  0.7143E+00  0.3621E+01  0.3237E+01
      7.304  0.1021E+01  0.7397E+00  0.3718E+01  0.3308E+01
      7.399  0.9752E+00  0.8296E+00  0.3811E+01  0.3387E+01
      7.494  0.1243E+01  0.1007E+01  0.3930E+01  0.3483E+01
      7.590  0.1358E+01  0.9154E+00  0.4059E+01  0.3570E+01
      7.685  0.1247E+01  0.8110E+00  0.4178E+01  0.3647E+01
      7.780  0.1094E+01  0.8521E+00  0.4282E+01  0.3728E+01
      7.875  0.1133E+01  0.8659E+00  0.4390E+01  0.3811E+01
      7.970  0.1170E+01  0.9549E+00  0.4501E+01  0.3902E+01
      8.065  0.1384E+01  0.1099E+01  0.4633E+01  0.4006E+01
      8.160  0.1486E+01  0.1122E+01  0.4774E+01  0.4113E+01
      8.256  0.1331E+01  0.1230E+01  0.4901E+01  0.4230E+01
      8.351  0.1191E+01  0.9139E+00  0.5015E+01  0.4317E+01
      8.446  0.1246E+01  0.6959E+00  0.5133E+01  0.4383E+01
      8.541  0.1189E+01  0.1016E+01  0.5246E+01  0.4480E+01
      8.636  0.9804E+00  0.1595E+01  0.5340E+01  0.4632E+01
      8.731  0.9509E+00  0.1783E+01  0.5430E+01  0.4802E+01
      8.827  0.8352E+00  0.1380E+01  0.5510E+01  0.4933E+01
      8.922  0.7573E+00  0.9828E+00  0.5582E+01  0.5027E+01
      9.017  0.7823E+00  0.7708E+00  0.5657E+01  0.5100E+01
      9.112  0.8959E+00  0.7718E+00  0.5742E+01  0.5174E+01
      9.207  0.8348E+00  0.9217E+00  0.5822E+01  0.5262E+01
      9.302  0.6967E+00  0.7573E+00  0.5888E+01  0.5334E+01
      9.397  0.7197E+00  0.6851E+00  0.5956E+01  0.5399E+01
      9.493  0.6421E+00  0.6701E+00  0.6018E+01  0.5463E+01
      9.588  0.6209E+00  0.6844E+00  0.6077E+01  0.5528E+01
      9.683  0.6905E+00  0.7095E+00  0.6142E+01  0.5596E+01
      9.778  0.8198E+00  0.6940E+00  0.6221E+01  0.5662E+01
      9.873  0.9269E+00  0.6524E+00  0.6309E+01  0.5724E+01
      9.968  0.9541E+00  0.7584E+00  0.6400E+01  0.5796E+01
     10.063  0.1066E+01  0.5714E+00  0.6501E+01  0.5851E+01
     10.159  0.1314E+01  0.5042E+00  0.6626E+01  0.5899E+01
     10.254  0.1454E+01  0.7658E+00  0.6765E+01  0.5972E+01
     10.349  0.1718E+01  0.6769E+00  0.6928E+01  0.6036E+01
     10.444  0.2276E+01  0.5013E+00  0.7145E+01  0.6084E+01
     10.539  0.2961E+01  0.4843E+00  0.7427E+01  0.6130E+01
     10.634  0.3200E+01  0.5233E+00  0.7731E+01  0.6180E+01
     10.729  0.2434E+01  0.5887E+00  0.7963E+01  0.6236E+01
     10.825  0.1767E+01  0.7328E+00  0.8131E+01  0.6306E+01
     10.920  0.1316E+01  0.9219E+00  0.8257E+01  0.6393E+01
     11.015  0.1124E+01  0.1003E+01  0.8364E+01  0.6489E+01
     11.110  0.1170E+01  0.1008E+01  0.8476E+01  0.6585E+01
     11.205  0.1000E+01  0.1000E+01  0.8571E+01  0.6680E+01
     11.300  0.8891E+00  0.1219E+01  0.8656E+01  0.6796E+01
     11.395  0.6894E+00  0.1418E+01  0.8721E+01  0.6931E+01
     11.491  0.7068E+00  0.1070E+01  0.8789E+01  0.7033E+01
     11.586  0.7047E+00  0.8803E+00  0.8856E+01  0.7117E+01
     11.681  0.5417E+00  0.9594E+00  0.8907E+01  0.7208E+01
     11.776  0.5613E+00  0.9994E+00  0.8961E+01  0.7304E+01
     11.871  0.5431E+00  0.9301E+00  0.9013E+01  0.7392E+01
     11.966  0.5395E+00  0.1220E+01  0.9064E+01  0.7508E+01
     12.061  0.5024E+00  0.1798E+01  0.9112E+01  0.7679E+01
     12.157  0.5375E+00  0.2061E+01  0.9163E+01  0.7876E+01
     12.252  0.5647E+00  0.2097E+01  0.9217E+01  0.8075E+01
     12.347  0.5532E+00  0.2453E+01  0.9269E+01  0.8309E+01
     12.442  0.7370E+00  0.2550E+01  0.9340E+01  0.8552E+01
     12.537  0.7150E+00  0.2315E+01  0.9408E+01  0.8772E+01
     12.632  0.7073E+00  0.1756E+01  0.9475E+01  0.8939E+01
     12.727  0.8537E+00  0.1095E+01  0.9556E+01  0.9044E+01
     12.823  0.8467E+00  0.8303E+00  0.9637E+01  0.9123E+01
     12.918  0.9347E+00  0.7247E+00  0.9726E+01  0.9192E+01
     13.013  0.8993E+00  0.7244E+00  0.9812E+01  0.9262E+01
     13.108  0.9456E+00  0.9080E+00  0.9902E+01  0.9348E+01
     13.203  0.1055E+01  0.9617E+00  0.1000E+02  0.9440E+01
     13.298  0.1034E+01  0.8565E+00  0.1010E+02  0.9521E+01
     13.393  0.8811E+00  0.7573E+00  0.1018E+02  0.9593E+01
     13.489  0.7603E+00  0.7320E+00  0.1026E+02  0.9663E+01
     13.584  0.8096E+00  0.8935E+00  0.1033E+02  0.9748E+01
     13.679  0.8371E+00  0.9547E+00  0.1041E+02  0.9839E+01
     13.774  0.7905E+00  0.7078E+00  0.1049E+02  0.9907E+01
     13.869  0.6574E+00  0.4487E+00  0.1055E+02  0.9949E+01
     13.964  0.4897E+00  0.4360E+00  0.1060E+02  0.9991E+01
     14.059  0.6316E+00  0.6677E+00  0.1066E+02  0.1005E+02
     14.155  0.8493E+00  0.9483E+00  0.1074E+02  0.1014E+02
     14.250  0.7528E+00  0.1113E+01  0.1081E+02  0.1025E+02
     14.345  0.8090E+00  0.1119E+01  0.1089E+02  0.1036E+02
     14.440  0.8291E+00  0.1012E+01  0.1097E+02  0.1045E+02
     14.535  0.7059E+00  0.9349E+00  0.1103E+02  0.1054E+02
     14.630  0.7235E+00  0.1022E+01  0.1110E+02  0.1064E+02
     14.725  0.9480E+00  0.1002E+01  0.1119E+02  0.1074E+02
     14.821  0.1074E+01  0.9523E+00  0.1130E+02  0.1083E+02
     14.916  0.1048E+01  0.1042E+01  0.1140E+02  0.1093E+02
     15.011  0.1124E+01  0.1126E+01  0.1150E+02  0.1103E+02
     15.106  0.1167E+01  0.1244E+01  0.1161E+02  0.1115E+02
     15.201  0.1042E+01  0.1397E+01  0.1171E+02  0.1128E+02
     15.296  0.8647E+00  0.1154E+01  0.1180E+02  0.1139E+02
     15.392  0.7891E+00  0.9250E+00  0.1187E+02  0.1148E+02
     15.487  0.7514E+00  0.1128E+01  0.1194E+02  0.1159E+02
     15.582  0.7392E+00  0.1128E+01  0.1201E+02  0.1170E+02
     15.677  0.6024E+00  0.9646E+00  0.1207E+02  0.1179E+02
     15.772  0.4325E+00  0.8027E+00  0.1211E+02  0.1186E+02
     15.867  0.5279E+00  0.6241E+00  0.1216E+02  0.1192E+02
     15.962  0.7360E+00  0.5477E+00  0.1223E+02  0.1198E+02
     16.058  0.7638E+00  0.4985E+00  0.1230E+02  0.1202E+02
     16.153  0.9533E+00  0.4676E+00  0.1239E+02  0.1207E+02
     16.248  0.1073E+01  0.4696E+00  0.1250E+02  0.1211E+02
     16.343  0.1020E+01  0.5444E+00  0.1259E+02  0.1217E+02
     16.438  0.8187E+00  0.5823E+00  0.1267E+02  0.1222E+02
     16.533  0.5763E+00  0.7734E+00  0.1273E+02  0.1229E+02
     16.628  0.5271E+00  0.9862E+00  0.1278E+02  0.1239E+02
     16.724  0.7407E+00  0.9856E+00  0.1285E+02  0.1248E+02
     16.819  0.9028E+00  0.9484E+00  0.1293E+02  0.1257E+02
     16.914  0.7434E+00  0.8477E+00  0.1300E+02  0.1265E+02
     17.009  0.6540E+00  0.8401E+00  0.1307E+02  0.1273E+02
     17.104  0.6442E+00  0.8853E+00  0.1313E+02  0.1282E+02
     17.199  0.6873E+00  0.7404E+00  0.1319E+02  0.1289E+02
     17.294  0.8503E+00  0.6330E+00  0.1327E+02  0.1295E+02
     17.390  0.9695E+00  0.5756E+00  0.1337E+02  0.1300E+02
     17.485  0.1015E+01  0.5995E+00  0.1346E+02  0.1306E+02
     17.580  0.8502E+00  0.6755E+00  0.1354E+02  0.1312E+02
     17.675  0.5932E+00  0.9095E+00  0.1360E+02  0.1321E+02
     17.770  0.7569E+00  0.9957E+00  0.1367E+02  0.1331E+02
     17.865  0.9858E+00  0.1081E+01  0.1377E+02  0.1341E+02
     17.960  0.8600E+00  0.1064E+01  0.1385E+02  0.1351E+02
     18.056  0.7637E+00  0.1154E+01  0.1392E+02  0.1362E+02
     18.151  0.9384E+00  0.1261E+01  0.1401E+02  0.1374E+02
     18.246  0.1018E+01  0.9924E+00  0.1411E+02  0.1383E+02
     18.341  0.9592E+00  0.1036E+01  0.1420E+02  0.1393E+02
     18.436  0.1020E+01  0.1008E+01  0.1430E+02  0.1403E+02
     18.531  0.9352E+00  0.9429E+00  0.1439E+02  0.1412E+02
     18.626  0.8983E+00  0.9283E+00  0.1447E+02  0.1421E+02
     18.722  0.1023E+01  0.1008E+01  0.1457E+02  0.1430E+02
     18.817  0.1059E+01  0.1096E+01  0.1467E+02  0.1441E+02
     18.912  0.1070E+01  0.1066E+01  0.1477E+02  0.1451E+02
     19.007  0.1095E+01  0.1188E+01  0.1488E+02  0.1462E+02
     19.102  0.8373E+00  0.1277E+01  0.1496E+02  0.1474E+02
     19.197  0.6629E+00  0.1300E+01  0.1502E+02  0.1487E+02
     19.292  0.6294E+00  0.8609E+00  0.1508E+02  0.1495E+02
     19.388  0.6083E+00  0.4611E+00  0.1514E+02  0.1499E+02
     19.483  0.7967E+00  0.5330E+00  0.1521E+02  0.1504E+02
     19.578  0.8978E+00  0.7706E+00  0.1530E+02  0.1512E+02
     19.673  0.7034E+00  0.8867E+00  0.1536E+02  0.1520E+02
     19.768  0.5176E+00  0.6520E+00  0.1541E+02  0.1526E+02
     19.863  0.4067E+00  0.5619E+00  0.1545E+02  0.1532E+02
     19.958  0.4213E+00  0.6884E+00  0.1549E+02  0.1538E+02
     20.054  0.4924E+00  0.6380E+00  0.1554E+02  0.1544E+02
     20.149  0.5638E+00  0.5366E+00  0.1559E+02  0.1550E+02
     20.244  0.3359E+00  0.5861E+00  0.1563E+02  0.1555E+02
     20.339  0.2619E+00  0.5082E+00  0.1565E+02  0.1560E+02
     20.434  0.2840E+00  0.4251E+00  0.1568E+02  0.1564E+02
     20.529  0.1872E+00  0.3079E+00  0.1570E+02  0.1567E+02
     20.624  0.1122E+00  0.1892E+00  0.1571E+02  0.1569E+02
     20.720  0.1226E+00  0.1467E+00  0.1572E+02  0.1570E+02
     20.815  0.9739E-01  0.1368E+00  0.1573E+02  0.1572E+02
     20.910  0.1050E+00  0.9688E-01  0.1574E+02  0.1572E+02
     21.005  0.1673E+00  0.1420E+00  0.1575E+02  0.1574E+02
     21.100  0.1573E+00  0.2236E+00  0.1577E+02  0.1576E+02
     21.195  0.1078E+00  0.1451E+00  0.1578E+02  0.1577E+02
     21.290  0.6281E-01  0.6183E-01  0.1578E+02  0.1578E+02
     21.386  0.1445E+00  0.9238E-01  0.1580E+02  0.1579E+02
     21.481  0.2802E+00  0.2284E+00  0.1582E+02  0.1581E+02
     21.576  0.2247E+00  0.2931E+00  0.1585E+02  0.1584E+02
     21.671  0.1059E+00  0.1773E+00  0.1586E+02  0.1585E+02
     21.766  0.7176E-01  0.9409E-01  0.1586E+02  0.1586E+02
     21.861  0.8285E-01  0.8702E-01  0.1587E+02  0.1587E+02
     21.957  0.4282E-01  0.4098E-01  0.1588E+02  0.1588E+02
     22.052  0.1210E-01  0.1452E-01  0.1588E+02  0.1588E+02
     22.147  0.1664E-01  0.3188E-01  0.1588E+02  0.1588E+02
     22.242  0.5775E-01  0.7826E-01  0.1588E+02  0.1589E+02
     22.337  0.1310E+00  0.1365E+00  0.1590E+02  0.1590E+02
     22.432  0.1946E+00  0.1612E+00  0.1591E+02  0.1592E+02
     22.527  0.1606E+00  0.1093E+00  0.1593E+02  0.1593E+02
     22.623  0.9646E-01  0.1050E+00  0.1594E+02  0.1594E+02
     22.718  0.2662E-01  0.5189E-01  0.1594E+02  0.1594E+02
     22.813  0.1079E-01  0.2474E-01  0.1594E+02  0.1594E+02
     22.908  0.2880E-01  0.4596E-01  0.1595E+02  0.1595E+02
     23.003  0.7402E-01  0.9798E-01  0.1595E+02  0.1596E+02
     23.098  0.1123E+00  0.1039E+00  0.1596E+02  0.1597E+02
     23.193  0.7976E-01  0.7368E-01  0.1597E+02  0.1597E+02
     23.289  0.5701E-01  0.3556E-01  0.1598E+02  0.1598E+02
     23.384  0.1915E-01  0.7748E-02  0.1598E+02  0.1598E+02
     23.479  0.3256E-02  0.1155E-02  0.1598E+02  0.1598E+02
     23.574  0.5132E-03  0.5183E-04  0.1598E+02  0.1598E+02
     23.669  0.6382E-04  0.3520E-03  0.1598E+02  0.1598E+02
     23.764  0.4317E-03  0.2301E-02  0.1598E+02  0.1598E+02
     23.859  0.2808E-02  0.1338E-01  0.1598E+02  0.1598E+02
     23.955  0.1582E-01  0.4502E-01  0.1598E+02  0.1598E+02
     24.050  0.4774E-01  0.4996E-01  0.1598E+02  0.1599E+02
     24.145  0.4654E-01  0.4222E-01  0.1599E+02  0.1599E+02
     24.240  0.4042E-01  0.4071E-01  0.1599E+02  0.1600E+02
     24.335  0.4006E-01  0.2531E-01  0.1600E+02  0.1600E+02
     24.430  0.2524E-01  0.8419E-02  0.1600E+02  0.1600E+02
     24.525  0.8570E-02  0.1552E-02  0.1600E+02  0.1600E+02
     24.621  0.1592E-02  0.2074E-03  0.1600E+02  0.1600E+02
     24.716  0.2141E-03  0.0000E+00  0.1600E+02  0.1600E+02
     24.811  0.0000E+00  0.0000E+00  0.1600E+02  0.1600E+02
     24.906  0.0000E+00  0.0000E+00  0.1600E+02  0.1600E+02
     25.001  0.0000E+00  0.0000E+00  0.1600E+02  0.1600E+02
     25.096  0.0000E+00  0.0000E+00  0.1600E+02  0.1600E+02
     25.191  0.0000E+00  0.0000E+00  0.1600E+02  0.1600E+02
     25.287  0.0000E+00  0.0000E+00  0.1600E+02  0.1600E+02
     25.382  0.0000E+00  0.0000E+00  0.1600E+02  0.1600E+02
     25.477  0.0000E+00  0.0000E+00  0.1600E+02  0.1600E+02
     25.572  0.0000E+00  0.0000E+00  0.1600E+02  0.1600E+02
     25.667  0.0000E+00  0.0000E+00  0.1600E+02  0.1600E+02
     25.66715684     -2.87631009  301     11.08179705      1.00000000
     -2.876  0.0000E+00  0.0000E+00  0.0000E+00  0.0000E+00  0.0000E+00  0.0000E+00  0.0000E+00  0.0000E+00  0.0000E+00  0.0000E+00  0.0000E+00  0.0000E+00  0.0000E+00  0.0000E+00  0.0000E+00  0.0000E+00  0.0000E+00  0.0000E+00
     -2.781  0.0000E+00  0.0000E+00  0.0000E+00  0.0000E+00  0.0000E+00  0.0000E+00  0.0000E+00  0.0000E+00  0.0000E+00  0.0000E+00  0.0000E+00  0.0000E+00  0.0000E+00  0.0000E+00  0.0000E+00  0.0000E+00  0.0000E+00  0.0000E+00
     -2.686  0.0000E+00  0.0000E+00  0.0000E+00  0.0000E+00  0.0000E+00  0.0000E+00  0.0000E+00  0.0000E+00  0.0000E+00  0.0000E+00  0.0000E+00  0.0000E+00  0.0000E+00  0.0000E+00  0.0000E+00  0.0000E+00  0.0000E+00  0.0000E+00
     -2.591  0.0000E+00  0.0000E+00  0.0000E+00  0.0000E+00  0.0000E+00  0.0000E+00  0.0000E+00  0.0000E+00  0.0000E+00  0.0000E+00  0.0000E+00  0.0000E+00  0.0000E+00  0.0000E+00  0.0000E+00  0.0000E+00  0.0000E+00  0.0000E+00
     -2.496  0.0000E+00  0.0000E+00  0.0000E+00  0.0000E+00  0.0000E+00  0.0000E+00  0.0000E+00  0.0000E+00  0.0000E+00  0.0000E+00  0.0000E+00  0.0000E+00  0.0000E+00  0.0000E+00  0.0000E+00  0.0000E+00  0.0000E+00  0.0000E+00
     -2.401  0.0000E+00  0.0000E+00  0.0000E+00  0.0000E+00  0.0000E+00  0.0000E+00  0.0000E+00  0.0000E+00  0.0000E+00  0.0000E+00  0.0000E+00  0.0000E+00  0.0000E+00  0.0000E+00  0.0000E+00  0.0000E+00  0.0000E+00  0.0000E+00
     -2.305  0.0000E+00  0.0000E+00  0.0000E+00  0.0000E+00  0.0000E+00  0.0000E+00  0.0000E+00  0.0000E+00  0.0000E+00  0.0000E+00  0.0000E+00  0.0000E+00  0.0000E+00  0.0000E+00  0.0000E+00  0.0000E+00  0.0000E+00  0.0000E+00
     -2.210  0.0000E+00  0.0000E+00  0.0000E+00  0.0000E+00  0.0000E+00  0.0000E+00  0.0000E+00  0.0000E+00  0.0000E+00  0.0000E+00  0.0000E+00  0.0000E+00  0.0000E+00  0.0000E+00  0.0000E+00  0.0000E+00  0.0000E+00  0.0000E+00
     -2.115  0.0000E+00  0.0000E+00  0.0000E+00  0.0000E+00  0.0000E+00  0.0000E+00  0.0000E+00  0.0000E+00  0.0000E+00  0.0000E+00  0.0000E+00  0.0000E+00  0.0000E+00  0.0000E+00  0.0000E+00  0.0000E+00  0.0000E+00  0.0000E+00
     -2.020  0.1040E-06  0.0000E+00  0.1634E-21  0.0000E+00  0.1634E-21  0.0000E+00  0.2861E-22  0.0000E+00  0.2692E-14  0.0000E+00  0.4514E-15  0.0000E+00  0.1031E-15  0.0000E+00  0.2692E-14  0.0000E+00  0.1301E-15  0.0000E+00
     -1.925  0.2120E-05  0.6713E-07  0.6987E-08  0.2920E-21  0.6987E-08  0.2920E-21  0.6983E-08  0.1853E-21  0.2820E-10  0.7943E-15  0.2821E-10  0.1889E-14  0.2284E-10  0.7796E-16  0.2820E-10  0.7943E-15  0.2459E-10  0.8593E-16
     -1.830  0.1321E-04  0.1048E-05  0.4560E-07  0.2360E-08  0.4560E-07  0.2360E-08  0.4558E-07  0.2358E-08  0.2514E-09  0.4680E-14  0.2515E-09  0.1094E-13  0.1302E-09  0.7720E-11  0.2514E-09  0.4680E-14  0.1401E-09  0.9883E-11
     -1.735  0.8713E-04  0.8914E-05  0.3080E-06  0.3311E-07  0.3080E-06  0.3311E-07  0.3078E-06  0.3309E-07  0.1592E-08  0.1795E-09  0.1593E-08  0.1796E-09  0.1021E-08  0.7678E-10  0.1592E-08  0.1795E-09  0.1130E-08  0.8171E-10
     -1.639  0.5313E-03  0.5694E-04  0.2085E-05  0.2082E-06  0.2085E-05  0.2082E-06  0.2083E-05  0.2081E-06  0.1220E-07  0.1023E-08  0.1221E-07  0.1023E-08  0.7432E-08  0.5644E-09  0.1220E-07  0.1023E-08  0.8248E-08  0.6285E-09
     -1.544  0.2359E-02  0.3574E-03  0.1139E-04  0.1426E-05  0.1139E-04  0.1426E-05  0.1139E-04  0.1425E-05  0.7435E-07  0.7902E-08  0.7439E-07  0.7908E-08  0.4005E-07  0.4163E-08  0.7435E-07  0.7902E-08  0.4374E-07  0.4650E-08
     -1.449  0.5998E-02  0.1723E-02  0.4025E-04  0.8196E-05  0.4025E-04  0.8196E-05  0.4023E-04  0.8192E-05  0.3498E-06  0.4920E-07  0.3500E-06  0.4923E-07  0.1522E-06  0.2353E-07  0.3498E-06  0.4920E-07  0.1649E-06  0.2595E-07
     -1.354  0.8519E-02  0.4941E-02  0.8588E-04  0.3213E-04  0.8588E-04  0.3213E-04  0.8581E-04  0.3212E-04  0.9618E-06  0.2512E-06  0.9625E-06  0.2513E-06  0.5029E-06  0.9577E-07  0.9618E-06  0.2512E-06  0.5891E-06  0.1038E-06
     -1.259  0.1110E-01  0.7694E-02  0.1720E-03  0.7397E-04  0.1720E-03  0.7397E-04  0.1719E-03  0.7392E-04  0.2407E-05  0.7671E-06  0.2410E-05  0.7674E-06  0.1546E-05  0.3150E-06  0.2407E-05  0.7671E-06  0.1858E-05  0.3644E-06
     -1.164  0.1488E-01  0.9714E-02  0.2863E-03  0.1465E-03  0.2863E-03  0.1465E-03  0.2862E-03  0.1464E-03  0.5434E-05  0.1881E-05  0.5439E-05  0.1883E-05  0.2518E-05  0.1028E-05  0.5434E-05  0.1881E-05  0.2996E-05  0.1237E-05
     -1.069  0.1257E-01  0.1361E-01  0.2970E-03  0.2639E-03  0.2970E-03  0.2639E-03  0.2969E-03  0.2638E-03  0.7709E-05  0.4574E-05  0.7727E-05  0.4575E-05  0.2841E-05  0.1915E-05  0.7709E-05  0.4574E-05  0.3190E-05  0.2287E-05
     -0.973  0.1428E-01  0.1227E-01  0.4472E-03  0.2870E-03  0.4472E-03  0.2870E-03  0.4465E-03  0.2869E-03  0.1384E-04  0.6789E-05  0.1386E-04  0.6791E-05  0.6182E-05  0.2127E-05  0.1384E-04  0.6789E-05  0.6907E-05  0.2426E-05
     -0.878  0.1906E-01  0.1252E-01  0.6846E-03  0.3934E-03  0.6846E-03  0.3934E-03  0.6838E-03  0.3928E-03  0.2014E-04  0.1158E-04  0.2012E-04  0.1158E-04  0.1270E-04  0.4167E-05  0.2014E-04  0.1158E-04  0.1519E-04  0.4615E-05
     -0.783  0.1806E-01  0.1737E-01  0.7359E-03  0.6376E-03  0.7359E-03  0.6376E-03  0.7362E-03  0.6368E-03  0.2562E-04  0.1805E-04  0.2561E-04  0.1806E-04  0.1465E-04  0.9165E-05  0.2562E-04  0.1805E-04  0.1782E-04  0.1087E-04
     -0.688  0.1752E-01  0.1717E-01  0.8335E-03  0.7140E-03  0.8335E-03  0.7140E-03  0.8331E-03  0.7142E-03  0.4224E-04  0.2248E-04  0.4229E-04  0.2249E-04  0.1451E-04  0.1157E-04  0.4224E-04  0.2248E-04  0.1643E-04  0.1412E-04
     -0.593  0.2015E-01  0.1600E-01  0.1064E-02  0.7750E-03  0.1064E-02  0.7750E-03  0.1064E-02  0.7749E-03  0.6165E-04  0.3585E-04  0.6164E-04  0.3589E-04  0.1894E-04  0.1098E-04  0.6165E-04  0.3585E-04  0.2092E-04  0.1261E-04
     -0.498  0.1578E-01  0.1870E-01  0.9433E-03  0.1018E-02  0.9433E-03  0.1018E-02  0.9416E-03  0.1018E-02  0.5204E-04  0.5583E-04  0.5202E-04  0.5583E-04  0.2302E-04  0.1431E-04  0.5204E-04  0.5583E-04  0.2732E-04  0.1577E-04
     -0.403  0.1991E-01  0.1518E-01  0.1394E-02  0.9252E-03  0.1394E-02  0.9252E-03  0.1390E-02  0.9240E-03  0.7693E-04  0.4922E-04  0.7706E-04  0.4918E-04  0.4365E-04  0.1687E-04  0.7693E-04  0.4922E-04  0.5322E-04  0.1981E-04
     -0.307  0.2434E-01  0.1741E-01  0.1819E-02  0.1264E-02  0.1819E-02  0.1264E-02  0.1819E-02  0.1260E-02  0.1170E-03  0.6522E-04  0.1171E-03  0.6533E-04  0.5716E-04  0.3102E-04  0.1170E-03  0.6522E-04  0.6698E-04  0.3791E-04
     -0.212  0.2256E-01  0.2245E-01  0.1843E-02  0.1749E-02  0.1843E-02  0.1749E-02  0.1842E-02  0.1748E-02  0.1424E-03  0.1041E-03  0.1425E-03  0.1042E-03  0.5702E-04  0.4347E-04  0.1424E-03  0.1041E-03  0.6464E-04  0.5134E-04
     -0.117  0.2230E-01  0.2098E-01  0.1973E-02  0.1778E-02  0.1973E-02  0.1778E-02  0.1974E-02  0.1777E-02  0.1752E-03  0.1280E-03  0.1751E-03  0.1280E-03  0.5816E-04  0.4311E-04  0.1752E-03  0.1280E-03  0.6711E-04  0.4892E-04
     -0.022  0.1671E-01  0.2072E-01  0.1584E-02  0.1914E-02  0.1584E-02  0.1914E-02  0.1585E-02  0.1915E-02  0.1678E-03  0.1577E-03  0.1678E-03  0.1576E-03  0.4020E-04  0.4495E-04  0.1678E-03  0.1577E-03  0.4637E-04  0.5184E-04
      0.073  0.1672E-01  0.1605E-01  0.1854E-02  0.1583E-02  0.1854E-02  0.1583E-02  0.1846E-02  0.1585E-02  0.2002E-03  0.1556E-03  0.2008E-03  0.1555E-03  0.6123E-04  0.3169E-04  0.2002E-03  0.1556E-03  0.7096E-04  0.3659E-04
      0.168  0.2508E-01  0.1492E-01  0.3081E-02  0.1726E-02  0.3081E-02  0.1726E-02  0.3071E-02  0.1719E-02  0.3097E-03  0.1753E-03  0.3101E-03  0.1757E-03  0.1261E-03  0.4286E-04  0.3097E-03  0.1753E-03  0.1462E-03  0.4982E-04
      0.263  0.2505E-01  0.2238E-01  0.3298E-02  0.2909E-02  0.3298E-02  0.2909E-02  0.3300E-02  0.2899E-02  0.3340E-03  0.2738E-03  0.3337E-03  0.2742E-03  0.1405E-03  0.9040E-04  0.3340E-03  0.2738E-03  0.1668E-03  0.1049E-03
      0.359  0.2281E-01  0.2324E-01  0.3279E-02  0.3246E-02  0.3279E-02  0.3246E-02  0.3274E-02  0.3248E-02  0.3979E-03  0.3064E-03  0.3984E-03  0.3061E-03  0.1297E-03  0.1052E-03  0.3979E-03  0.3064E-03  0.1551E-03  0.1244E-03
      0.454  0.2257E-01  0.2058E-01  0.3462E-02  0.3141E-02  0.3462E-02  0.3141E-02  0.3465E-02  0.3138E-02  0.4485E-03  0.3525E-03  0.4485E-03  0.3529E-03  0.1407E-03  0.9464E-04  0.4485E-03  0.3525E-03  0.1672E-03  0.1132E-03
      0.549  0.1542E-01  0.2087E-01  0.2558E-02  0.3410E-02  0.2558E-02  0.3410E-02  0.2561E-02  0.3413E-02  0.3966E-03  0.4137E-03  0.3974E-03  0.4136E-03  0.1035E-03  0.1037E-03  0.3966E-03  0.4137E-03  0.1166E-03  0.1234E-03
      0.644  0.1954E-01  0.1409E-01  0.3611E-02  0.2498E-02  0.3611E-02  0.2498E-02  0.3595E-02  0.2501E-02  0.6662E-03  0.3534E-03  0.6678E-03  0.3540E-03  0.1297E-03  0.7616E-04  0.6662E-03  0.3534E-03  0.1401E-03  0.8638E-04
      0.739  0.2378E-01  0.1732E-01  0.5137E-02  0.3479E-02  0.5137E-02  0.3479E-02  0.5112E-02  0.3462E-02  0.8820E-03  0.5819E-03  0.8822E-03  0.5834E-03  0.1761E-03  0.9376E-04  0.8820E-03  0.5819E-03  0.1965E-03  0.1015E-03
      0.834  0.1987E-01  0.2168E-01  0.5498E-02  0.5185E-02  0.5498E-02  0.5185E-02  0.5486E-02  0.5159E-02  0.8003E-03  0.7983E-03  0.7996E-03  0.7985E-03  0.1800E-03  0.1297E-03  0.8003E-03  0.7983E-03  0.2080E-03  0.1450E-03
      0.929  0.1594E-01  0.1806E-01  0.5280E-02  0.5494E-02  0.5280E-02  0.5494E-02  0.5276E-02  0.5488E-02  0.8070E-03  0.7377E-03  0.8084E-03  0.7370E-03  0.1631E-03  0.1273E-03  0.8070E-03  0.7377E-03  0.1933E-03  0.1466E-03
      1.025  0.1434E-01  0.1416E-01  0.5585E-02  0.5157E-02  0.5585E-02  0.5157E-02  0.5579E-02  0.5151E-02  0.9659E-03  0.7439E-03  0.9685E-03  0.7452E-03  0.1663E-03  0.1106E-03  0.9659E-03  0.7439E-03  0.1946E-03  0.1303E-03
      1.120  0.1646E-01  0.1249E-01  0.5861E-02  0.5399E-02  0.5861E-02  0.5399E-02  0.5876E-02  0.5400E-02  0.1395E-02  0.8657E-03  0.1398E-02  0.8673E-03  0.1724E-03  0.1113E-03  0.1395E-02  0.8657E-03  0.1859E-03  0.1300E-03
      1.215  0.1800E-01  0.1390E-01  0.6359E-02  0.5365E-02  0.6359E-02  0.5365E-02  0.6345E-02  0.5377E-02  0.1828E-02  0.1203E-02  0.1830E-02  0.1206E-02  0.1770E-03  0.1111E-03  0.1828E-02  0.1203E-02  0.1862E-03  0.1187E-03
      1.310  0.1503E-01  0.1610E-01  0.6493E-02  0.6247E-02  0.6493E-02  0.6247E-02  0.6491E-02  0.6230E-02  0.1935E-02  0.1664E-02  0.1935E-02  0.1665E-02  0.1642E-03  0.1227E-03  0.1935E-02  0.1664E-02  0.1791E-03  0.1284E-03
      1.405  0.1099E-01  0.1322E-01  0.5055E-02  0.6235E-02  0.5055E-02  0.6235E-02  0.5079E-02  0.6240E-02  0.1658E-02  0.1717E-02  0.1653E-02  0.1716E-02  0.1223E-03  0.1105E-03  0.1658E-02  0.1717E-02  0.1315E-03  0.1200E-03
      1.500  0.7076E-02  0.9511E-02  0.3869E-02  0.4705E-02  0.3869E-02  0.4705E-02  0.3869E-02  0.4726E-02  0.1454E-02  0.1439E-02  0.1457E-02  0.1435E-02  0.8104E-04  0.7969E-04  0.1454E-02  0.1439E-02  0.8814E-04  0.8518E-04
      1.595  0.8962E-02  0.6117E-02  0.4582E-02  0.3686E-02  0.4582E-02  0.3686E-02  0.4577E-02  0.3687E-02  0.2161E-02  0.1275E-02  0.2172E-02  0.1276E-02  0.9832E-04  0.5353E-04  0.2161E-02  0.1275E-02  0.9819E-04  0.5797E-04
      1.691  0.1225E-01  0.7572E-02  0.6232E-02  0.4249E-02  0.6232E-02  0.4249E-02  0.6218E-02  0.4243E-02  0.3354E-02  0.1848E-02  0.3361E-02  0.1858E-02  0.1473E-03  0.6321E-04  0.3354E-02  0.1848E-02  0.1410E-03  0.6253E-04
      1.786  0.9155E-02  0.1074E-01  0.5280E-02  0.6008E-02  0.5280E-02  0.6008E-02  0.5290E-02  0.5995E-02  0.2960E-02  0.2948E-02  0.2951E-02  0.2953E-02  0.1574E-03  0.9542E-04  0.2960E-02  0.2948E-02  0.1663E-03  0.9008E-04
      1.881  0.9568E-02  0.7576E-02  0.4232E-02  0.4998E-02  0.4232E-02  0.4998E-02  0.4239E-02  0.5010E-02  0.2531E-02  0.2550E-02  0.2527E-02  0.2541E-02  0.3315E-03  0.8101E-04  0.2531E-02  0.2550E-02  0.3991E-03  0.8040E-04