   4   4   1   0
  0.1571878E+02  0.3975542E-09  0.3976869E-09  0.3976869E-09  0.5000000E-15
  1.000000000000000E-004
  CAR 
 unknown system                          
     19.93815066     -4.08206413  301      7.70387867      1.00000000
     -4.082  0.0000E+00  0.0000E+00  0.0000E+00  0.0000E+00
     -4.002  0.0000E+00  0.0000E+00  0.0000E+00  0.0000E+00
     -3.922  0.0000E+00  0.0000E+00  0.0000E+00  0.0000E+00
     -3.842  0.0000E+00  0.0000E+00  0.0000E+00  0.0000E+00
     -3.762  0.0000E+00  0.0000E+00  0.0000E+00  0.0000E+00
     -3.682  0.0000E+00  0.0000E+00  0.0000E+00  0.0000E+00
     -3.602  0.0000E+00  0.0000E+00  0.0000E+00  0.0000E+00
     -3.522  0.0000E+00  0.0000E+00  0.0000E+00  0.0000E+00
     -3.442  0.6836E-06  0.0000E+00  0.5474E-07  0.0000E+00
     -3.361  0.9344E-05  0.9040E-06  0.8029E-06  0.7238E-07
     -3.281  0.6588E-04  0.1832E-04  0.6077E-05  0.1539E-05
     -3.201  0.3046E-03  0.8241E-04  0.3046E-04  0.8138E-05
     -3.121  0.1516E-02  0.4179E-03  0.1518E-03  0.4160E-04
     -3.041  0.6691E-02  0.2004E-02  0.6875E-03  0.2021E-03
     -2.961  0.2320E-01  0.8644E-02  0.2545E-02  0.8942E-03
     -2.881  0.5189E-01  0.2806E-01  0.6700E-02  0.3141E-02
     -2.801  0.7647E-01  0.5763E-01  0.1282E-01  0.7755E-02
     -2.721  0.1043E+00  0.8175E-01  0.2117E-01  0.1430E-01
     -2.641  0.1267E+00  0.1120E+00  0.3131E-01  0.2327E-01
     -2.561  0.1214E+00  0.1274E+00  0.4103E-01  0.3347E-01
     -2.481  0.1497E+00  0.1254E+00  0.5302E-01  0.4351E-01
     -2.401  0.1778E+00  0.1610E+00  0.6726E-01  0.5641E-01
     -2.321  0.1739E+00  0.1799E+00  0.8119E-01  0.7082E-01
     -2.241  0.1871E+00  0.1760E+00  0.9619E-01  0.8493E-01
     -2.160  0.1889E+00  0.1941E+00  0.1113E+00  0.1005E+00
     -2.080  0.1862E+00  0.1857E+00  0.1262E+00  0.1154E+00
     -2.000  0.2413E+00  0.2035E+00  0.1456E+00  0.1317E+00
     -1.920  0.2553E+00  0.2535E+00  0.1660E+00  0.1520E+00
     -1.840  0.2521E+00  0.2564E+00  0.1862E+00  0.1725E+00
     -1.760  0.2252E+00  0.2505E+00  0.2043E+00  0.1926E+00
     -1.680  0.2052E+00  0.2145E+00  0.2207E+00  0.2098E+00
     -1.600  0.2777E+00  0.2291E+00  0.2429E+00  0.2281E+00
     -1.520  0.3294E+00  0.3144E+00  0.2693E+00  0.2533E+00
     -1.440  0.3113E+00  0.3264E+00  0.2943E+00  0.2794E+00
     -1.360  0.3168E+00  0.3197E+00  0.3197E+00  0.3051E+00
     -1.280  0.2586E+00  0.3007E+00  0.3404E+00  0.3291E+00
     -1.200  0.2853E+00  0.2584E+00  0.3632E+00  0.3498E+00
     -1.120  0.3820E+00  0.3497E+00  0.3938E+00  0.3779E+00
     -1.040  0.3995E+00  0.4288E+00  0.4258E+00  0.4123E+00
     -0.959  0.3627E+00  0.3925E+00  0.4549E+00  0.4437E+00
     -0.879  0.3586E+00  0.3693E+00  0.4836E+00  0.4733E+00
     -0.799  0.3734E+00  0.3510E+00  0.5136E+00  0.5014E+00
     -0.719  0.4170E+00  0.3904E+00  0.5470E+00  0.5327E+00
     -0.639  0.4172E+00  0.4396E+00  0.5804E+00  0.5679E+00
     -0.559  0.3494E+00  0.3857E+00  0.6084E+00  0.5988E+00
     -0.479  0.2652E+00  0.2918E+00  0.6296E+00  0.6222E+00
     -0.399  0.2809E+00  0.2555E+00  0.6522E+00  0.6427E+00
     -0.319  0.3745E+00  0.3249E+00  0.6822E+00  0.6687E+00
     -0.239  0.3818E+00  0.4038E+00  0.7128E+00  0.7011E+00
     -0.159  0.3206E+00  0.3286E+00  0.7385E+00  0.7274E+00
     -0.079  0.3035E+00  0.2605E+00  0.7628E+00  0.7483E+00
      0.001  0.3259E+00  0.2219E+00  0.7889E+00  0.7661E+00
      0.081  0.4431E+00  0.3340E+00  0.8244E+00  0.7928E+00
      0.162  0.5101E+00  0.4845E+00  0.8653E+00  0.8317E+00
      0.242  0.3756E+00  0.4322E+00  0.8953E+00  0.8663E+00
      0.322  0.3115E+00  0.3600E+00  0.9203E+00  0.8951E+00
      0.402  0.3580E+00  0.2943E+00  0.9490E+00  0.9187E+00
      0.482  0.4346E+00  0.3518E+00  0.9838E+00  0.9469E+00
      0.562  0.4332E+00  0.4596E+00  0.1019E+01  0.9838E+00
      0.642  0.3934E+00  0.3939E+00  0.1050E+01  0.1015E+01
      0.722  0.3885E+00  0.3403E+00  0.1081E+01  0.1043E+01
      0.802  0.4786E+00  0.3701E+00  0.1120E+01  0.1072E+01
      0.882  0.5438E+00  0.4579E+00  0.1163E+01  0.1109E+01
      0.962  0.4505E+00  0.5596E+00  0.1199E+01  0.1154E+01
      1.042  0.3523E+00  0.4568E+00  0.1227E+01  0.1190E+01
      1.122  0.3417E+00  0.3485E+00  0.1255E+01  0.1218E+01
      1.202  0.4403E+00  0.3376E+00  0.1290E+01  0.1245E+01
      1.282  0.5140E+00  0.4320E+00  0.1331E+01  0.1280E+01
      1.363  0.4474E+00  0.5360E+00  0.1367E+01  0.1323E+01
      1.443  0.4640E+00  0.4450E+00  0.1404E+01  0.1359E+01
      1.523  0.5099E+00  0.4226E+00  0.1445E+01  0.1392E+01
      1.603  0.5836E+00  0.5039E+00  0.1492E+01  0.1433E+01
      1.683  0.6312E+00  0.6289E+00  0.1543E+01  0.1483E+01
      1.763  0.6063E+00  0.6702E+00  0.1591E+01  0.1537E+01
      1.843  0.6676E+00  0.5959E+00  0.1645E+01  0.1585E+01
      1.923  0.6601E+00  0.5853E+00  0.1697E+01  0.1632E+01
      2.003  0.5630E+00  0.6429E+00  0.1743E+01  0.1683E+01
      2.083  0.4677E+00  0.5910E+00  0.1780E+01  0.1730E+01
      2.163  0.5118E+00  0.4781E+00  0.1821E+01  0.1769E+01
      2.243  0.7005E+00  0.5104E+00  0.1877E+01  0.1810E+01
      2.323  0.6911E+00  0.5825E+00  0.1933E+01  0.1856E+01
      2.403  0.5978E+00  0.6249E+00  0.1981E+01  0.1906E+01
      2.483  0.5897E+00  0.5807E+00  0.2028E+01  0.1953E+01
      2.564  0.7222E+00  0.5046E+00  0.2086E+01  0.1993E+01
      2.644  0.7303E+00  0.5750E+00  0.2144E+01  0.2039E+01
      2.724  0.6800E+00  0.6900E+00  0.2199E+01  0.2095E+01
      2.804  0.6561E+00  0.6577E+00  0.2251E+01  0.2147E+01
      2.884  0.6224E+00  0.5938E+00  0.2301E+01  0.2195E+01
      2.964  0.6464E+00  0.5275E+00  0.2353E+01  0.2237E+01
      3.044  0.6226E+00  0.5166E+00  0.2403E+01  0.2279E+01
      3.124  0.5324E+00  0.6212E+00  0.2446E+01  0.2329E+01
      3.204  0.5605E+00  0.6192E+00  0.2490E+01  0.2378E+01
      3.284  0.6811E+00  0.5510E+00  0.2545E+01  0.2422E+01
      3.364  0.7015E+00  0.4593E+00  0.2601E+01  0.2459E+01
      3.444  0.6518E+00  0.4989E+00  0.2653E+01  0.2499E+01
      3.524  0.6805E+00  0.5542E+00  0.2708E+01  0.2544E+01
      3.604  0.7487E+00  0.5978E+00  0.2768E+01  0.2591E+01
      3.684  0.8623E+00  0.6346E+00  0.2837E+01  0.2642E+01
      3.765  0.8285E+00  0.6684E+00  0.2903E+01  0.2696E+01
      3.845  0.7242E+00  0.7174E+00  0.2961E+01  0.2753E+01
      3.925  0.7531E+00  0.7948E+00  0.3022E+01  0.2817E+01
      4.005  0.8549E+00  0.7180E+00  0.3090E+01  0.2875E+01
      4.085  0.9647E+00  0.6338E+00  0.3168E+01  0.2925E+01
      4.165  0.9754E+00  0.6178E+00  0.3246E+01  0.2975E+01
      4.245  0.9106E+00  0.6733E+00  0.3319E+01  0.3029E+01
      4.325  0.1062E+01  0.7442E+00  0.3404E+01  0.3088E+01
      4.405  0.1229E+01  0.8063E+00  0.3502E+01  0.3153E+01
      4.485  0.1224E+01  0.7942E+00  0.3600E+01  0.3217E+01
      4.565  0.1200E+01  0.7760E+00  0.3697E+01  0.3279E+01
      4.645  0.1188E+01  0.8234E+00  0.3792E+01  0.3345E+01
      4.725  0.1365E+01  0.9701E+00  0.3901E+01  0.3422E+01
      4.805  0.1676E+01  0.9246E+00  0.4035E+01  0.3497E+01
      4.885  0.1697E+01  0.8233E+00  0.4171E+01  0.3563E+01
      4.966  0.1594E+01  0.7576E+00  0.4299E+01  0.3623E+01
      5.046  0.1613E+01  0.7820E+00  0.4428E+01  0.3686E+01
      5.126  0.1859E+01  0.1004E+01  0.4577E+01  0.3766E+01
      5.206  0.2075E+01  0.1098E+01  0.4743E+01  0.3854E+01
      5.286  0.1876E+01  0.9440E+00  0.4894E+01  0.3930E+01
      5.366  0.1727E+01  0.8184E+00  0.5032E+01  0.3996E+01
      5.446  0.1732E+01  0.8972E+00  0.5171E+01  0.4067E+01
      5.526  0.1596E+01  0.1148E+01  0.5299E+01  0.4159E+01
      5.606  0.1381E+01  0.1154E+01  0.5410E+01  0.4252E+01
      5.686  0.1245E+01  0.9995E+00  0.5509E+01  0.4332E+01
      5.766  0.1144E+01  0.1017E+01  0.5601E+01  0.4414E+01
      5.846  0.1152E+01  0.1189E+01  0.5693E+01  0.4509E+01
      5.926  0.1155E+01  0.1261E+01  0.5786E+01  0.4610E+01
      6.006  0.1103E+01  0.1315E+01  0.5874E+01  0.4715E+01
      6.086  0.1065E+01  0.1370E+01  0.5960E+01  0.4825E+01
      6.167  0.9146E+00  0.1248E+01  0.6033E+01  0.4925E+01
      6.247  0.9793E+00  0.1130E+01  0.6112E+01  0.5016E+01
      6.327  0.1230E+01  0.8610E+00  0.6210E+01  0.5085E+01
      6.407  0.1473E+01  0.8452E+00  0.6328E+01  0.5152E+01
      6.487  0.1828E+01  0.1061E+01  0.6475E+01  0.5237E+01
      6.567  0.2504E+01  0.9752E+00  0.6675E+01  0.5316E+01
      6.647  0.3767E+01  0.8540E+00  0.6977E+01  0.5384E+01
      6.727  0.4596E+01  0.8223E+00  0.7345E+01  0.5450E+01
      6.807  0.3805E+01  0.7109E+00  0.7650E+01  0.5507E+01
      6.887  0.2693E+01  0.6349E+00  0.7865E+01  0.5558E+01
      6.967  0.2110E+01  0.7299E+00  0.8034E+01  0.5616E+01
      7.047  0.1736E+01  0.7816E+00  0.8174E+01  0.5679E+01
      7.127  0.1531E+01  0.7888E+00  0.8297E+01  0.5742E+01
      7.207  0.1210E+01  0.7582E+00  0.8394E+01  0.5803E+01
      7.288  0.1068E+01  0.7508E+00  0.8480E+01  0.5863E+01
      7.368  0.1157E+01  0.7887E+00  0.8572E+01  0.5926E+01
      7.448  0.1080E+01  0.8382E+00  0.8659E+01  0.5994E+01
      7.528  0.8523E+00  0.7221E+00  0.8727E+01  0.6051E+01
      7.608  0.5858E+00  0.6192E+00  0.8774E+01  0.6101E+01
      7.688  0.5661E+00  0.6878E+00  0.8820E+01  0.6156E+01
      7.768  0.8907E+00  0.7784E+00  0.8891E+01  0.6218E+01
      7.848  0.1038E+01  0.7840E+00  0.8974E+01  0.6281E+01
      7.928  0.8462E+00  0.9145E+00  0.9042E+01  0.6355E+01
      8.008  0.6537E+00  0.1159E+01  0.9094E+01  0.6447E+01
      8.088  0.6037E+00  0.1352E+01  0.9143E+01  0.6556E+01
      8.168  0.6862E+00  0.1333E+01  0.9198E+01  0.6663E+01
      8.248  0.8052E+00  0.1480E+01  0.9262E+01  0.6781E+01
      8.328  0.1064E+01  0.1672E+01  0.9348E+01  0.6915E+01
      8.408  0.1527E+01  0.1598E+01  0.9470E+01  0.7043E+01
      8.489  0.1659E+01  0.1508E+01  0.9603E+01  0.7164E+01
      8.569  0.1547E+01  0.1368E+01  0.9727E+01  0.7274E+01
      8.649  0.1241E+01  0.1369E+01  0.9826E+01  0.7383E+01
      8.729  0.1005E+01  0.1815E+01  0.9907E+01  0.7529E+01
      8.809  0.1124E+01  0.2314E+01  0.9997E+01  0.7714E+01
      8.889  0.1134E+01  0.2571E+01  0.1009E+02  0.7920E+01
      8.969  0.9720E+00  0.2557E+01  0.1017E+02  0.8125E+01
      9.049  0.1034E+01  0.2057E+01  0.1025E+02  0.8290E+01
      9.129  0.1090E+01  0.1891E+01  0.1034E+02  0.8441E+01
      9.209  0.1046E+01  0.2388E+01  0.1042E+02  0.8632E+01
      9.289  0.1002E+01  0.2783E+01  0.1050E+02  0.8855E+01
      9.369  0.9337E+00  0.2639E+01  0.1057E+02  0.9067E+01
      9.449  0.8414E+00  0.2105E+01  0.1064E+02  0.9236E+01
      9.529  0.8779E+00  0.1653E+01  0.1071E+02  0.9368E+01
      9.609  0.1067E+01  0.1520E+01  0.1080E+02  0.9490E+01
      9.690  0.1137E+01  0.1463E+01  0.1089E+02  0.9607E+01
      9.770  0.8848E+00  0.1366E+01  0.1096E+02  0.9717E+01
      9.850  0.7114E+00  0.1358E+01  0.1102E+02  0.9826E+01
      9.930  0.8286E+00  0.1410E+01  0.1108E+02  0.9939E+01
     10.010  0.1085E+01  0.1491E+01  0.1117E+02  0.1006E+02
     10.090  0.1140E+01  0.1574E+01  0.1126E+02  0.1018E+02
     10.170  0.8646E+00  0.1634E+01  0.1133E+02  0.1032E+02
     10.250  0.8246E+00  0.1710E+01  0.1140E+02  0.1045E+02
     10.330  0.1085E+01  0.1640E+01  0.1148E+02  0.1058E+02
     10.410  0.1191E+01  0.1473E+01  0.1158E+02  0.1070E+02
     10.490  0.1110E+01  0.1391E+01  0.1167E+02  0.1081E+02
     10.570  0.1036E+01  0.1429E+01  0.1175E+02  0.1093E+02
     10.650  0.1054E+01  0.1560E+01  0.1184E+02  0.1105E+02
     10.730  0.8597E+00  0.1627E+01  0.1190E+02  0.1118E+02
     10.810  0.6991E+00  0.1600E+01  0.1196E+02  0.1131E+02
     10.891  0.6678E+00  0.1468E+01  0.1201E+02  0.1143E+02
     10.971  0.6584E+00  0.1331E+01  0.1207E+02  0.1154E+02
     11.051  0.6962E+00  0.1251E+01  0.1212E+02  0.1164E+02
     11.131  0.8321E+00  0.1076E+01  0.1219E+02  0.1172E+02
     11.211  0.1099E+01  0.9425E+00  0.1228E+02  0.1180E+02
     11.291  0.1205E+01  0.9462E+00  0.1237E+02  0.1187E+02
     11.371  0.1014E+01  0.9235E+00  0.1246E+02  0.1195E+02
     11.451  0.8236E+00  0.8284E+00  0.1252E+02  0.1201E+02
     11.531  0.7925E+00  0.7151E+00  0.1258E+02  0.1207E+02
     11.611  0.8156E+00  0.7957E+00  0.1265E+02  0.1213E+02
     11.691  0.8873E+00  0.9525E+00  0.1272E+02  0.1221E+02
     11.771  0.8772E+00  0.1110E+01  0.1279E+02  0.1230E+02
     11.851  0.7789E+00  0.1276E+01  0.1285E+02  0.1240E+02
     11.931  0.7952E+00  0.1223E+01  0.1292E+02  0.1250E+02
     12.011  0.9282E+00  0.9357E+00  0.1299E+02  0.1258E+02
     12.092  0.1065E+01  0.8965E+00  0.1308E+02  0.1265E+02
     12.172  0.1144E+01  0.9799E+00  0.1317E+02  0.1273E+02
     12.252  0.1060E+01  0.7501E+00  0.1325E+02  0.1279E+02
     12.332  0.9632E+00  0.5456E+00  0.1333E+02  0.1283E+02
     12.412  0.9970E+00  0.5339E+00  0.1341E+02  0.1287E+02
     12.492  0.1058E+01  0.6816E+00  0.1350E+02  0.1293E+02
     12.572  0.9679E+00  0.9509E+00  0.1357E+02  0.1300E+02
     12.652  0.8289E+00  0.1122E+01  0.1364E+02  0.1309E+02
     12.732  0.8900E+00  0.1326E+01  0.1371E+02  0.1320E+02
     12.812  0.1154E+01  0.1628E+01  0.1380E+02  0.1333E+02
     12.892  0.1172E+01  0.1579E+01  0.1390E+02  0.1346E+02
     12.972  0.1084E+01  0.1344E+01  0.1398E+02  0.1356E+02
     13.052  0.1106E+01  0.1190E+01  0.1407E+02  0.1366E+02
     13.132  0.9551E+00  0.1091E+01  0.1415E+02  0.1375E+02
     13.212  0.8980E+00  0.1135E+01  0.1422E+02  0.1384E+02
     13.293  0.9136E+00  0.1150E+01  0.1429E+02  0.1393E+02
     13.373  0.7250E+00  0.1168E+01  0.1435E+02  0.1402E+02
     13.453  0.6881E+00  0.1250E+01  0.1441E+02  0.1412E+02
     13.533  0.9925E+00  0.1315E+01  0.1449E+02  0.1423E+02
     13.613  0.1340E+01  0.1249E+01  0.1459E+02  0.1433E+02
     13.693  0.1370E+01  0.9945E+00  0.1470E+02  0.1441E+02
     13.773  0.1275E+01  0.9485E+00  0.1481E+02  0.1448E+02
     13.853  0.1193E+01  0.1051E+01  0.1490E+02  0.1457E+02
     13.933  0.1072E+01  0.1061E+01  0.1499E+02  0.1465E+02
     14.013  0.8323E+00  0.1078E+01  0.1506E+02  0.1474E+02
     14.093  0.7100E+00  0.1364E+01  0.1511E+02  0.1485E+02
     14.173  0.7915E+00  0.1478E+01  0.1518E+02  0.1497E+02
     14.253  0.8122E+00  0.1107E+01  0.1524E+02  0.1506E+02
     14.333  0.5991E+00  0.8025E+00  0.1529E+02  0.1512E+02
     14.414  0.4979E+00  0.7347E+00  0.1533E+02  0.1518E+02
     14.494  0.6024E+00  0.7958E+00  0.1538E+02  0.1524E+02
     14.574  0.6342E+00  0.8430E+00  0.1543E+02  0.1531E+02
     14.654  0.5714E+00  0.8160E+00  0.1547E+02  0.1538E+02
     14.734  0.5423E+00  0.6334E+00  0.1552E+02  0.1543E+02
     14.814  0.4758E+00  0.5036E+00  0.1555E+02  0.1547E+02
     14.894  0.3253E+00  0.4727E+00  0.1558E+02  0.1551E+02
     14.974  0.2831E+00  0.4534E+00  0.1560E+02  0.1554E+02
     15.054  0.2649E+00  0.4661E+00  0.1563E+02  0.1558E+02
     15.134  0.2768E+00  0.5049E+00  0.1565E+02  0.1562E+02
     15.214  0.3186E+00  0.5114E+00  0.1567E+02  0.1566E+02
     15.294  0.2915E+00  0.3927E+00  0.1570E+02  0.1569E+02
     15.374  0.2223E+00  0.2259E+00  0.1571E+02  0.1571E+02
     15.454  0.1763E+00  0.1703E+00  0.1573E+02  0.1572E+02
     15.534  0.1724E+00  0.2007E+00  0.1574E+02  0.1574E+02
     15.615  0.1494E+00  0.1523E+00  0.1575E+02  0.1575E+02
     15.695  0.8689E-01  0.9490E-01  0.1576E+02  0.1576E+02
     15.775  0.7680E-01  0.1112E+00  0.1577E+02  0.1577E+02
     15.855  0.8438E-01  0.1198E+00  0.1577E+02  0.1578E+02
     15.935  0.1162E+00  0.1481E+00  0.1578E+02  0.1579E+02
     16.015  0.1994E+00  0.2214E+00  0.1580E+02  0.1581E+02
     16.095  0.2642E+00  0.2084E+00  0.1582E+02  0.1583E+02
     16.175  0.1551E+00  0.1288E+00  0.1583E+02  0.1584E+02
     16.255  0.7642E-01  0.1117E+00  0.1584E+02  0.1584E+02
     16.335  0.1036E+00  0.1448E+00  0.1585E+02  0.1586E+02
     16.415  0.1199E+00  0.1418E+00  0.1586E+02  0.1587E+02
     16.495  0.1126E+00  0.1250E+00  0.1587E+02  0.1588E+02
     16.575  0.1337E+00  0.1166E+00  0.1588E+02  0.1589E+02
     16.655  0.1368E+00  0.1345E+00  0.1589E+02  0.1590E+02
     16.735  0.1433E+00  0.1389E+00  0.1590E+02  0.1591E+02
     16.816  0.1301E+00  0.1245E+00  0.1591E+02  0.1592E+02
     16.896  0.1231E+00  0.9802E-01  0.1592E+02  0.1593E+02
     16.976  0.9810E-01  0.4447E-01  0.1593E+02  0.1593E+02
     17.056  0.3895E-01  0.2357E-01  0.1593E+02  0.1593E+02
     17.136  0.1997E-01  0.4778E-01  0.1593E+02  0.1594E+02
     17.216  0.4341E-01  0.9261E-01  0.1594E+02  0.1594E+02
     17.296  0.8150E-01  0.1021E+00  0.1594E+02  0.1595E+02
     17.376  0.8788E-01  0.8137E-01  0.1595E+02  0.1596E+02
     17.456  0.8893E-01  0.6767E-01  0.1596E+02  0.1596E+02
     17.536  0.7856E-01  0.3723E-01  0.1596E+02  0.1597E+02
     17.616  0.4489E-01  0.1485E-01  0.1597E+02  0.1597E+02
     17.696  0.1520E-01  0.2085E-01  0.1597E+02  0.1597E+02
     17.776  0.1129E-01  0.4682E-01  0.1597E+02  0.1597E+02
     17.856  0.3003E-01  0.4413E-01  0.1597E+02  0.1598E+02
     17.936  0.5172E-01  0.1695E-01  0.1597E+02  0.1598E+02
     18.017  0.3274E-01  0.5826E-02  0.1598E+02  0.1598E+02
     18.097  0.1078E-01  0.9427E-02  0.1598E+02  0.1598E+02
     18.177  0.7739E-02  0.3026E-01  0.1598E+02  0.1598E+02
     18.257  0.2254E-01  0.5171E-01  0.1598E+02  0.1599E+02
     18.337  0.4909E-01  0.3187E-01  0.1598E+02  0.1599E+02
     18.417  0.4036E-01  0.9881E-02  0.1599E+02  0.1599E+02
     18.497  0.1394E-01  0.4979E-02  0.1599E+02  0.1599E+02
     18.577  0.3895E-02  0.1320E-01  0.1599E+02  0.1599E+02
     18.657  0.4082E-02  0.3820E-01  0.1599E+02  0.1599E+02
     18.737  0.1461E-01  0.4951E-01  0.1599E+02  0.1600E+02
     18.817  0.4109E-01  0.2413E-01  0.1599E+02  0.1600E+02
     18.897  0.4806E-01  0.6390E-02  0.1600E+02  0.1600E+02
     18.977  0.2144E-01  0.1372E-02  0.1600E+02  0.1600E+02
     19.057  0.5464E-02  0.2803E-03  0.1600E+02  0.1600E+02
     19.137  0.1162E-02  0.0000E+00  0.1600E+02  0.1600E+02
     19.218  0.1767E-03  0.0000E+00  0.1600E+02  0.1600E+02
     19.298  0.0000E+00  0.0000E+00  0.1600E+02  0.1600E+02
     19.378  0.0000E+00  0.0000E+00  0.1600E+02  0.1600E+02
     19.458  0.0000E+00  0.0000E+00  0.1600E+02  0.1600E+02
     19.538  0.0000E+00  0.0000E+00  0.1600E+02  0.1600E+02
     19.618  0.0000E+00  0.0000E+00  0.1600E+02  0.1600E+02
     19.698  0.0000E+00  0.0000E+00  0.1600E+02  0.1600E+02
     19.778  0.0000E+00  0.0000E+00  0.1600E+02  0.1600E+02
     19.858  0.0000E+00  0.0000E+00  0.1600E+02  0.1600E+02
     19.938  0.0000E+00  0.0000E+00  0.1600E+02  0.1600E+02
     19.93815066     -4.08206413  301      7.70387867      1.00000000
     -4.082  0.0000E+00  0.0000E+00  0.0000E+00  0.0000E+00  0.0000E+00  0.0000E+00  0.0000E+00  0.0000E+00  0.0000E+00  0.0000E+00  0.0000E+00  0.0000E+00  0.0000E+00  0.0000E+00  0.0000E+00  0.0000E+00  0.0000E+00  0.0000E+00
     -4.002  0.0000E+00  0.0000E+00  0.0000E+00  0.0000E+00  0.0000E+00  0.0000E+00  0.0000E+00  0.0000E+00  0.0000E+00  0.0000E+00  0.0000E+00  0.0000E+00  0.0000E+00  0.0000E+00  0.0000E+00  0.0000E+00  0.0000E+00  0.0000E+00
     -3.922  0.0000E+00  0.0000E+00  0.0000E+00  0.0000E+00  0.0000E+00  0.0000E+00  0.0000E+00  0.0000E+00  0.0000E+00  0.0000E+00  0.0000E+00  0.0000E+00  0.0000E+00  0.0000E+00  0.0000E+00  0.0000E+00  0.0000E+00  0.0000E+00
     -3.842  0.0000E+00  0.0000E+00  0.0000E+00  0.0000E+00  0.0000E+00  0.0000E+00  0.0000E+00  0.0000E+00  0.0000E+00  0.0000E+00  0.0000E+00  0.0000E+00  0.0000E+00  0.0000E+00  0.0000E+00  0.0000E+00  0.0000E+00  0.0000E+00
     -3.762  0.0000E+00  0.0000E+00  0.0000E+00  0.0000E+00  0.0000E+00  0.0000E+00  0.0000E+00  0.0000E+00  0.0000E+00  0.0000E+00  0.0000E+00  0.0000E+00  0.0000E+00  0.0000E+00  0.0000E+00  0.0000E+00  0.0000E+00  0.0000E+00
     -3.682  0.0000E+00  0.0000E+00  0.0000E+00  0.0000E+00  0.0000E+00  0.0000E+00  0.0000E+00  0.0000E+00  0.0000E+00  0.0000E+00  0.0000E+00  0.0000E+00  0.0000E+00  0.0000E+00  0.0000E+00  0.0000E+00  0.0000E+00  0.0000E+00
     -3.602  0.0000E+00  0.0000E+00  0.0000E+00  0.0000E+00  0.0000E+00  0.0000E+00  0.0000E+00  0.0000E+00  0.0000E+00  0.0000E+00  0.0000E+00  0.0000E+00  0.0000E+00  0.0000E+00  0.0000E+00  0.0000E+00  0.0000E+00  0.0000E+00
     -3.522  0.0000E+00  0.0000E+00  0.0000E+00  0.0000E+00  0.0000E+00  0.0000E+00  0.0000E+00  0.0000E+00  0.0000E+00  0.0000E+00  0.0000E+00  0.0000E+00  0.0000E+00  0.0000E+00  0.0000E+00  0.0000E+00  0.0000E+00  0.0000E+00
     -3.442  0.6687E-07  0.0000E+00  0.1068E-20  0.0000E+00  0.1068E-20  0.0000E+00  0.4786E-21  0.0000E+00  0.1296E-14  0.0000E+00  0.3341E-15  0.0000E+00  0.2911E-15  0.0000E+00  0.1296E-14  0.0000E+00  0.3069E-15  0.0000E+00
     -3.361  0.9064E-06  0.7589E-07  0.1904E-08  0.1560E-20  0.1904E-08  0.1560E-20  0.1903E-08  0.1743E-21  0.8873E-14  0.5562E-15  0.8822E-14  0.1008E-14  0.6470E-11  0.4221E-15  0.8873E-14  0.5562E-15  0.8277E-11  0.5740E-15
     -3.281  0.6348E-05  0.1515E-05  0.2379E-07  0.5418E-08  0.2379E-07  0.5418E-08  0.2378E-07  0.5416E-08  0.1645E-09  0.2243E-10  0.1645E-09  0.2257E-10  0.5347E-10  0.1091E-10  0.1645E-09  0.2243E-10  0.5430E-10  0.1140E-10
     -3.201  0.2936E-04  0.6808E-05  0.1081E-06  0.2644E-07  0.1081E-06  0.2644E-07  0.1080E-06  0.2644E-07  0.6508E-09  0.1602E-09  0.6508E-09  0.1607E-09  0.3285E-09  0.4316E-10  0.6508E-09  0.1602E-09  0.3649E-09  0.4508E-10
     -3.121  0.1459E-03  0.3447E-04  0.5972E-06  0.1479E-06  0.5972E-06  0.1479E-06  0.5968E-06  0.1478E-06  0.4444E-08  0.8831E-09  0.4445E-08  0.8860E-09  0.2141E-08  0.3931E-09  0.4444E-08  0.8831E-09  0.2407E-08  0.4425E-09
     -3.041  0.6433E-03  0.1652E-03  0.2750E-05  0.7282E-06  0.2750E-05  0.7282E-06  0.2748E-05  0.7278E-06  0.2038E-07  0.4790E-08  0.2039E-07  0.4804E-08  0.9582E-08  0.1850E-08  0.2038E-07  0.4790E-08  0.1072E-07  0.2080E-08
     -2.961  0.2223E-02  0.7116E-03  0.1130E-04  0.3373E-05  0.1130E-04  0.3373E-05  0.1129E-04  0.3372E-05  0.9475E-07  0.2283E-07  0.9478E-07  0.2290E-07  0.4120E-07  0.8657E-08  0.9475E-07  0.2283E-07  0.4586E-07  0.9678E-08
     -2.881  0.4940E-02  0.2300E-02  0.3334E-04  0.1321E-04  0.3334E-04  0.1321E-04  0.3332E-04  0.1320E-04  0.3426E-06  0.1017E-06  0.3427E-06  0.1020E-06  0.1433E-06  0.3573E-07  0.3426E-06  0.1017E-06  0.1625E-06  0.3990E-07
     -2.801  0.7189E-02  0.4685E-02  0.7117E-04  0.3648E-04  0.7117E-04  0.3648E-04  0.7112E-04  0.3646E-04  0.9183E-06  0.3472E-06  0.9186E-06  0.3478E-06  0.4445E-06  0.1212E-06  0.9183E-06  0.3472E-06  0.5261E-06  0.1387E-06
     -2.721  0.9639E-02  0.6542E-02  0.1364E-03  0.7580E-04  0.1364E-03  0.7580E-04  0.1363E-03  0.7574E-04  0.2233E-05  0.9004E-06  0.2234E-05  0.9012E-06  0.1093E-05  0.3674E-06  0.2233E-05  0.9004E-06  0.1305E-05  0.4372E-06
     -2.641  0.1155E-01  0.8800E-02  0.2019E-03  0.1415E-03  0.2019E-03  0.1415E-03  0.2018E-03  0.1415E-03  0.4358E-05  0.2149E-05  0.4358E-05  0.2150E-05  0.1680E-05  0.8230E-06  0.4358E-05  0.2149E-05  0.1970E-05  0.9812E-06
     -2.561  0.1086E-01  0.9860E-02  0.2425E-03  0.1946E-03  0.2425E-03  0.1946E-03  0.2423E-03  0.1945E-03  0.6874E-05  0.3907E-05  0.6877E-05  0.3908E-05  0.2515E-05  0.1181E-05  0.6874E-05  0.3907E-05  0.2837E-05  0.1375E-05
     -2.481  0.1309E-01  0.9474E-02  0.3704E-03  0.2443E-03  0.3704E-03  0.2443E-03  0.3699E-03  0.2440E-03  0.1163E-04  0.6266E-05  0.1163E-04  0.6268E-05  0.5264E-05  0.1936E-05  0.1163E-04  0.6266E-05  0.6089E-05  0.2185E-05
     -2.401  0.1529E-01  0.1187E-01  0.4959E-03  0.3783E-03  0.4959E-03  0.3783E-03  0.4957E-03  0.3779E-03  0.1617E-04  0.1029E-04  0.1617E-04  0.1029E-04  0.8584E-05  0.3998E-05  0.1617E-04  0.1029E-04  0.1032E-04  0.4681E-05
     -2.321  0.1467E-01  0.1302E-01  0.5466E-03  0.4746E-03  0.5466E-03  0.4746E-03  0.5466E-03  0.4744E-03  0.2312E-04  0.1398E-04  0.2313E-04  0.1399E-04  0.9373E-05  0.5821E-05  0.2312E-04  0.1398E-04  0.1112E-04  0.7017E-05
     -2.241  0.1543E-01  0.1245E-01  0.6639E-03  0.5257E-03  0.6639E-03  0.5257E-03  0.6636E-03  0.5257E-03  0.3623E-04  0.2096E-04  0.3624E-04  0.2097E-04  0.1088E-04  0.6156E-05  0.3623E-04  0.2096E-04  0.1226E-04  0.7201E-05
     -2.160  0.1528E-01  0.1340E-01  0.7326E-03  0.6476E-03  0.7326E-03  0.6476E-03  0.7321E-03  0.6473E-03  0.4235E-04  0.3158E-04  0.4232E-04  0.3159E-04  0.1389E-04  0.7531E-05  0.4235E-04  0.3158E-04  0.1597E-04  0.8472E-05
     -2.080  0.1458E-01  0.1251E-01  0.8215E-03  0.6834E-03  0.8215E-03  0.6834E-03  0.8198E-03  0.6826E-03  0.4636E-04  0.3378E-04  0.4637E-04  0.3376E-04  0.2138E-04  0.9807E-05  0.4636E-04  0.3378E-04  0.2580E-04  0.1147E-04
     -2.000  0.1844E-01  0.1319E-01  0.1157E-02  0.8523E-03  0.1157E-02  0.8523E-03  0.1156E-02  0.8505E-03  0.7141E-04  0.4176E-04  0.7148E-04  0.4181E-04  0.3314E-04  0.1591E-04  0.7141E-04  0.4176E-04  0.3960E-04  0.1924E-04
     -1.920  0.1914E-01  0.1605E-01  0.1294E-02  0.1135E-02  0.1294E-02  0.1135E-02  0.1294E-02  0.1135E-02  0.9457E-04  0.6302E-04  0.9461E-04  0.6306E-04  0.3672E-04  0.2202E-04  0.9457E-04  0.6302E-04  0.4234E-04  0.2603E-04
     -1.840  0.1845E-01  0.1586E-01  0.1362E-02  0.1218E-02  0.1362E-02  0.1218E-02  0.1362E-02  0.1218E-02  0.1158E-03  0.8015E-04  0.1158E-03  0.8018E-04  0.3798E-04  0.2325E-04  0.1158E-03  0.8015E-04  0.4365E-04  0.2665E-04
     -1.760  0.1612E-01  0.1509E-01  0.1282E-02  0.1262E-02  0.1282E-02  0.1262E-02  0.1283E-02  0.1263E-02  0.1270E-03  0.9579E-04  0.1269E-03  0.9574E-04  0.3298E-04  0.2324E-04  0.1270E-03  0.9579E-04  0.3817E-04  0.2681E-04
     -1.680  0.1408E-01  0.1255E-01  0.1278E-02  0.1148E-02  0.1278E-02  0.1148E-02  0.1274E-02  0.1148E-02  0.1373E-03  0.1001E-03  0.1375E-03  0.1001E-03  0.3658E-04  0.1983E-04  0.1373E-03  0.1001E-03  0.4257E-04  0.2302E-04
     -1.600  0.1818E-01  0.1264E-01  0.1883E-02  0.1360E-02  0.1883E-02  0.1360E-02  0.1877E-02  0.1355E-02  0.1942E-03  0.1199E-03  0.1945E-03  0.1201E-03  0.6741E-04  0.2831E-04  0.1942E-03  0.1199E-03  0.7857E-04  0.3307E-04
     -1.520  0.2094E-01  0.1656E-01  0.2338E-02  0.1999E-02  0.2338E-02  0.1999E-02  0.2337E-02  0.1994E-02  0.2409E-03  0.1693E-03  0.2408E-03  0.1694E-03  0.9015E-04  0.4831E-04  0.2409E-03  0.1693E-03  0.1063E-03  0.5651E-04
     -1.440  0.1914E-01  0.1663E-01  0.2313E-02  0.2164E-02  0.2313E-02  0.2164E-02  0.2313E-02  0.2164E-02  0.2698E-03  0.1932E-03  0.2699E-03  0.1931E-03  0.8682E-04  0.5296E-04  0.2698E-03  0.1932E-03  0.1036E-03  0.6267E-04
     -1.360  0.1883E-01  0.1564E-01  0.2451E-02  0.2220E-02  0.2451E-02  0.2220E-02  0.2451E-02  0.2219E-02  0.3200E-03  0.2289E-03  0.3201E-03  0.2290E-03  0.9096E-04  0.5182E-04  0.3200E-03  0.2289E-03  0.1082E-03  0.6175E-04
     -1.280  0.1479E-01  0.1417E-01  0.2082E-02  0.2166E-02  0.2082E-02  0.2166E-02  0.2084E-02  0.2168E-02  0.3062E-03  0.2430E-03  0.3064E-03  0.2429E-03  0.7776E-04  0.5047E-04  0.3062E-03  0.2430E-03  0.8971E-04  0.5957E-04
     -1.200  0.1529E-01  0.1139E-01  0.2439E-02  0.1973E-02  0.2439E-02  0.1973E-02  0.2431E-02  0.1969E-02  0.4241E-03  0.2549E-03  0.4249E-03  0.2554E-03  0.8337E-04  0.4378E-04  0.4241E-03  0.2549E-03  0.9184E-04  0.4936E-04
     -1.120  0.1884E-01  0.1398E-01  0.3497E-02  0.2874E-02  0.3497E-02  0.2874E-02  0.3482E-02  0.2859E-02  0.5924E-03  0.3894E-03  0.5927E-03  0.3900E-03  0.1119E-03  0.5716E-04  0.5924E-03  0.3894E-03  0.1252E-03  0.6340E-04
     -1.040  0.1745E-01  0.1534E-01  0.3970E-02  0.3780E-02  0.3970E-02  0.3780E-02  0.3961E-02  0.3770E-02  0.6046E-03  0.4765E-03  0.6043E-03  0.4764E-03  0.1211E-03  0.6897E-04  0.6046E-03  0.4765E-03  0.1393E-03  0.7824E-04
     -0.959  0.1401E-01  0.1242E-01  0.3836E-02  0.3675E-02  0.3836E-02  0.3675E-02  0.3834E-02  0.3675E-02  0.5972E-03  0.4609E-03  0.5976E-03  0.4608E-03  0.1106E-03  0.6149E-04  0.5972E-03  0.4609E-03  0.1300E-03  0.7094E-04
     -0.879  0.1242E-01  0.1025E-01  0.3948E-02  0.3627E-02  0.3948E-02  0.3627E-02  0.3945E-02  0.3624E-02  0.6912E-03  0.4964E-03  0.6921E-03  0.4969E-03  0.1101E-03  0.5689E-04  0.6912E-03  0.4964E-03  0.1289E-03  0.6654E-04
     -0.799  0.1295E-01  0.9155E-02  0.4051E-02  0.3486E-02  0.4051E-02  0.3486E-02  0.4058E-02  0.3495E-02  0.9110E-03  0.5653E-03  0.9126E-03  0.5661E-03  0.1113E-03  0.5371E-04  0.9110E-03  0.5653E-03  0.1231E-03  0.6090E-04
     -0.719  0.1470E-01  0.1071E-01  0.4428E-02  0.3742E-02  0.4428E-02  0.3742E-02  0.4423E-02  0.3740E-02  0.1233E-02  0.8030E-03  0.1234E-02  0.8047E-03  0.1181E-03  0.5765E-04  0.1233E-02  0.8030E-03  0.1255E-03  0.6097E-04
     -0.639  0.1315E-01  0.1122E-01  0.4574E-02  0.4275E-02  0.4574E-02  0.4275E-02  0.4572E-02  0.4271E-02  0.1351E-02  0.1001E-02  0.1351E-02  0.1002E-02  0.1140E-03  0.6207E-04  0.1351E-02  0.1001E-02  0.1240E-03  0.6609E-04
     -0.559  0.1019E-01  0.8938E-02  0.3886E-02  0.3827E-02  0.3886E-02  0.3827E-02  0.3898E-02  0.3837E-02  0.1245E-02  0.9538E-03  0.1242E-02  0.9521E-03  0.9229E-04  0.5202E-04  0.1245E-02  0.9538E-03  0.1003E-03  0.5618E-04
     -0.479  0.6996E-02  0.6278E-02  0.2986E-02  0.2915E-02  0.2986E-02  0.2915E-02  0.2990E-02  0.2921E-02  0.1087E-02  0.8094E-03  0.1087E-02  0.8083E-03  0.6489E-04  0.3698E-04  0.1087E-02  0.8094E-03  0.7067E-04  0.3973E-04
     -0.399  0.7164E-02  0.4871E-02  0.3113E-02  0.2571E-02  0.3113E-02  0.2571E-02  0.3113E-02  0.2573E-02  0.1371E-02  0.8251E-03  0.1375E-02  0.8265E-03  0.6613E-04  0.2945E-04  0.1371E-02  0.8251E-03  0.6885E-04  0.3125E-04
     -0.319  0.9659E-02  0.6339E-02  0.4041E-02  0.3167E-02  0.4041E-02  0.3167E-02  0.4032E-02  0.3159E-02  0.2063E-02  0.1223E-02  0.2069E-02  0.1228E-02  0.9794E-04  0.3814E-04  0.2063E-02  0.1223E-02  0.9721E-04  0.3735E-04
     -0.239  0.9218E-02  0.7441E-02  0.4130E-02  0.3923E-02  0.4130E-02  0.3923E-02  0.4132E-02  0.3920E-02  0.2217E-02  0.1626E-02  0.2214E-02  0.1626E-02  0.1331E-03  0.4974E-04  0.2217E-02  0.1626E-02  0.1422E-03  0.4811E-04
     -0.159  0.8983E-02  0.5432E-02  0.3340E-02  0.3217E-02  0.3340E-02  0.3217E-02  0.3346E-02  0.3225E-02  0.1885E-02  0.1400E-02  0.1881E-02  0.1396E-02  0.2485E-03  0.4649E-04  0.1885E-02  0.1400E-02  0.2980E-03  0.4786E-04
     -0.079  0.1345E-01  0.4652E-02  0.2749E-02  0.2485E-02  0.2749E-02  0.2485E-02  0.2758E-02  0.2493E-02  0.1599E-02  0.1170E-02  0.1594E-02  0.1167E-02  0.5769E-03  0.6983E-04  0.1599E-02  0.1170E-02  0.7244E-03  0.8082E-04