   4   4   1   0
  0.1526098E+02  0.3936566E-09  0.3937880E-09  0.3937880E-09  0.5000000E-15
  1.000000000000000E-004
  CAR 
 unknown system                          
     20.46921759     -3.99370147  301      7.99527978      1.00000000
     -3.994  0.0000E+00  0.0000E+00  0.0000E+00  0.0000E+00
     -3.912  0.0000E+00  0.0000E+00  0.0000E+00  0.0000E+00
     -3.831  0.0000E+00  0.0000E+00  0.0000E+00  0.0000E+00
     -3.749  0.0000E+00  0.0000E+00  0.0000E+00  0.0000E+00
     -3.668  0.0000E+00  0.0000E+00  0.0000E+00  0.0000E+00
     -3.586  0.0000E+00  0.0000E+00  0.0000E+00  0.0000E+00
     -3.504  0.0000E+00  0.0000E+00  0.0000E+00  0.0000E+00
     -3.423  0.0000E+00  0.0000E+00  0.0000E+00  0.0000E+00
     -3.341  0.5684E-06  0.0000E+00  0.4635E-07  0.0000E+00
     -3.260  0.7887E-05  0.6595E-06  0.6895E-06  0.5378E-07
     -3.178  0.5668E-04  0.9218E-05  0.5311E-05  0.8055E-06
     -3.097  0.2709E-03  0.6661E-04  0.2740E-04  0.6237E-05
     -3.015  0.1386E-02  0.3180E-03  0.1404E-03  0.3217E-04
     -2.934  0.6312E-02  0.1623E-02  0.6552E-03  0.1646E-03
     -2.852  0.2244E-01  0.7285E-02  0.2485E-02  0.7586E-03
     -2.771  0.5085E-01  0.2503E-01  0.6632E-02  0.2800E-02
     -2.689  0.7477E-01  0.5413E-01  0.1273E-01  0.7214E-02
     -2.607  0.1020E+00  0.7788E-01  0.2105E-01  0.1356E-01
     -2.526  0.1247E+00  0.1069E+00  0.3122E-01  0.2228E-01
     -2.444  0.1182E+00  0.1256E+00  0.4085E-01  0.3252E-01
     -2.363  0.1461E+00  0.1207E+00  0.5278E-01  0.4236E-01
     -2.281  0.1748E+00  0.1539E+00  0.6703E-01  0.5492E-01
     -2.200  0.1701E+00  0.1768E+00  0.8091E-01  0.6934E-01
     -2.118  0.1832E+00  0.1715E+00  0.9586E-01  0.8335E-01
     -2.037  0.1857E+00  0.1888E+00  0.1110E+00  0.9875E-01
     -1.955  0.1805E+00  0.1837E+00  0.1257E+00  0.1137E+00
     -1.874  0.2364E+00  0.1925E+00  0.1450E+00  0.1294E+00
     -1.792  0.2509E+00  0.2465E+00  0.1655E+00  0.1496E+00
     -1.710  0.2478E+00  0.2520E+00  0.1857E+00  0.1701E+00
     -1.629  0.2220E+00  0.2481E+00  0.2038E+00  0.1903E+00
     -1.547  0.1985E+00  0.2138E+00  0.2200E+00  0.2078E+00
     -1.466  0.2697E+00  0.2149E+00  0.2420E+00  0.2253E+00
     -1.384  0.3248E+00  0.3000E+00  0.2685E+00  0.2498E+00
     -1.303  0.3047E+00  0.3241E+00  0.2934E+00  0.2762E+00
     -1.221  0.3130E+00  0.3113E+00  0.3190E+00  0.3016E+00
     -1.140  0.2537E+00  0.3037E+00  0.3397E+00  0.3264E+00
     -1.058  0.2755E+00  0.2489E+00  0.3621E+00  0.3467E+00
     -0.977  0.3733E+00  0.3260E+00  0.3926E+00  0.3733E+00
     -0.895  0.3937E+00  0.4183E+00  0.4247E+00  0.4075E+00
     -0.814  0.3564E+00  0.3923E+00  0.4538E+00  0.4395E+00
     -0.732  0.3519E+00  0.3626E+00  0.4825E+00  0.4691E+00
     -0.650  0.3662E+00  0.3474E+00  0.5124E+00  0.4974E+00
     -0.569  0.4098E+00  0.3734E+00  0.5458E+00  0.5279E+00
     -0.487  0.4122E+00  0.4327E+00  0.5795E+00  0.5632E+00
     -0.406  0.3472E+00  0.3918E+00  0.6078E+00  0.5952E+00
     -0.324  0.2603E+00  0.2970E+00  0.6290E+00  0.6194E+00
     -0.243  0.2740E+00  0.2497E+00  0.6514E+00  0.6398E+00
     -0.161  0.3685E+00  0.3046E+00  0.6815E+00  0.6646E+00
     -0.080  0.3782E+00  0.3993E+00  0.7123E+00  0.6972E+00
      0.002  0.3152E+00  0.3351E+00  0.7381E+00  0.7246E+00
      0.083  0.2974E+00  0.2638E+00  0.7624E+00  0.7461E+00
      0.165  0.3187E+00  0.2175E+00  0.7883E+00  0.7638E+00
      0.247  0.4364E+00  0.3102E+00  0.8240E+00  0.7891E+00
      0.328  0.5054E+00  0.4736E+00  0.8652E+00  0.8278E+00
      0.410  0.3691E+00  0.4370E+00  0.8953E+00  0.8635E+00
      0.491  0.3027E+00  0.3599E+00  0.9200E+00  0.8928E+00
      0.573  0.3510E+00  0.2904E+00  0.9487E+00  0.9165E+00
      0.654  0.4334E+00  0.3332E+00  0.9840E+00  0.9437E+00
      0.736  0.4246E+00  0.4536E+00  0.1019E+01  0.9808E+00
      0.817  0.3827E+00  0.3968E+00  0.1050E+01  0.1013E+01
      0.899  0.3757E+00  0.3301E+00  0.1081E+01  0.1040E+01
      0.980  0.4670E+00  0.3569E+00  0.1119E+01  0.1069E+01
      1.062  0.5408E+00  0.4332E+00  0.1163E+01  0.1105E+01
      1.144  0.4424E+00  0.5530E+00  0.1199E+01  0.1150E+01
      1.225  0.3423E+00  0.4614E+00  0.1227E+01  0.1187E+01
      1.307  0.3293E+00  0.3444E+00  0.1254E+01  0.1215E+01
      1.388  0.4286E+00  0.3240E+00  0.1289E+01  0.1242E+01
      1.470  0.5128E+00  0.4053E+00  0.1331E+01  0.1275E+01
      1.551  0.4359E+00  0.5287E+00  0.1366E+01  0.1318E+01
      1.633  0.4527E+00  0.4457E+00  0.1403E+01  0.1355E+01
      1.714  0.4958E+00  0.4055E+00  0.1444E+01  0.1388E+01
      1.796  0.5655E+00  0.4774E+00  0.1490E+01  0.1427E+01
      1.877  0.6218E+00  0.5924E+00  0.1540E+01  0.1475E+01
      1.959  0.5953E+00  0.6670E+00  0.1589E+01  0.1529E+01
      2.040  0.6489E+00  0.5917E+00  0.1642E+01  0.1578E+01
      2.122  0.6500E+00  0.5737E+00  0.1695E+01  0.1624E+01
      2.204  0.5573E+00  0.6320E+00  0.1740E+01  0.1676E+01
      2.285  0.4639E+00  0.5985E+00  0.1778E+01  0.1725E+01
      2.367  0.4948E+00  0.4776E+00  0.1819E+01  0.1764E+01
      2.448  0.6854E+00  0.4792E+00  0.1875E+01  0.1803E+01
      2.530  0.6871E+00  0.5669E+00  0.1931E+01  0.1849E+01
      2.611  0.5928E+00  0.6321E+00  0.1979E+01  0.1901E+01
      2.693  0.5732E+00  0.5885E+00  0.2026E+01  0.1949E+01
      2.774  0.7149E+00  0.4957E+00  0.2084E+01  0.1989E+01
      2.856  0.7248E+00  0.5508E+00  0.2143E+01  0.2034E+01
      2.937  0.6714E+00  0.6795E+00  0.2198E+01  0.2090E+01
      3.019  0.6533E+00  0.6517E+00  0.2251E+01  0.2143E+01
      3.101  0.6150E+00  0.5828E+00  0.2302E+01  0.2190E+01
      3.182  0.6423E+00  0.5325E+00  0.2354E+01  0.2234E+01
      3.264  0.6131E+00  0.5309E+00  0.2404E+01  0.2277E+01
      3.345  0.5260E+00  0.6196E+00  0.2447E+01  0.2328E+01
      3.427  0.5602E+00  0.6134E+00  0.2493E+01  0.2378E+01
      3.508  0.6900E+00  0.5539E+00  0.2549E+01  0.2423E+01
      3.590  0.7009E+00  0.4458E+00  0.2606E+01  0.2459E+01
      3.671  0.6457E+00  0.4842E+00  0.2659E+01  0.2499E+01
      3.753  0.6824E+00  0.5526E+00  0.2715E+01  0.2544E+01
      3.834  0.7518E+00  0.6207E+00  0.2776E+01  0.2595E+01
      3.916  0.8499E+00  0.6539E+00  0.2845E+01  0.2648E+01
      3.998  0.7965E+00  0.6594E+00  0.2910E+01  0.2702E+01
      4.079  0.7223E+00  0.7113E+00  0.2969E+01  0.2760E+01
      4.161  0.7787E+00  0.7767E+00  0.3033E+01  0.2823E+01
      4.242  0.8620E+00  0.6991E+00  0.3103E+01  0.2880E+01
      4.324  0.9641E+00  0.6219E+00  0.3182E+01  0.2931E+01
      4.405  0.9468E+00  0.6267E+00  0.3259E+01  0.2982E+01
      4.487  0.9084E+00  0.6983E+00  0.3333E+01  0.3039E+01
      4.568  0.1097E+01  0.7624E+00  0.3423E+01  0.3102E+01
      4.650  0.1243E+01  0.7838E+00  0.3524E+01  0.3165E+01
      4.731  0.1210E+01  0.7746E+00  0.3623E+01  0.3229E+01
      4.813  0.1174E+01  0.7698E+00  0.3719E+01  0.3292E+01
      4.894  0.1163E+01  0.8486E+00  0.3814E+01  0.3361E+01
      4.976  0.1421E+01  0.9642E+00  0.3929E+01  0.3439E+01
      5.058  0.1685E+01  0.9037E+00  0.4067E+01  0.3513E+01
      5.139  0.1620E+01  0.8136E+00  0.4199E+01  0.3580E+01
      5.221  0.1523E+01  0.7428E+00  0.4323E+01  0.3640E+01
      5.302  0.1561E+01  0.8350E+00  0.4451E+01  0.3708E+01
      5.384  0.1844E+01  0.1066E+01  0.4601E+01  0.3795E+01
      5.465  0.2004E+01  0.1036E+01  0.4765E+01  0.3880E+01
      5.547  0.1783E+01  0.8853E+00  0.4910E+01  0.3952E+01
      5.628  0.1655E+01  0.8354E+00  0.5045E+01  0.4020E+01
      5.710  0.1666E+01  0.9960E+00  0.5181E+01  0.4101E+01
      5.791  0.1516E+01  0.1189E+01  0.5305E+01  0.4199E+01
      5.873  0.1318E+01  0.1068E+01  0.5413E+01  0.4286E+01
      5.955  0.1186E+01  0.9575E+00  0.5509E+01  0.4364E+01
      6.036  0.1093E+01  0.1077E+01  0.5599E+01  0.4452E+01
      6.118  0.1111E+01  0.1263E+01  0.5689E+01  0.4555E+01
      6.199  0.1128E+01  0.1316E+01  0.5782E+01  0.4662E+01
      6.281  0.1056E+01  0.1400E+01  0.5868E+01  0.4776E+01
      6.362  0.1030E+01  0.1337E+01  0.5952E+01  0.4885E+01
      6.444  0.8836E+00  0.1185E+01  0.6024E+01  0.4982E+01
      6.525  0.9090E+00  0.9726E+00  0.6098E+01  0.5062E+01
      6.607  0.1137E+01  0.7795E+00  0.6191E+01  0.5125E+01
      6.688  0.1348E+01  0.9648E+00  0.6301E+01  0.5204E+01
      6.770  0.1628E+01  0.1013E+01  0.6434E+01  0.5287E+01
      6.852  0.2077E+01  0.8723E+00  0.6603E+01  0.5358E+01
      6.933  0.3092E+01  0.8100E+00  0.6855E+01  0.5424E+01
      7.015  0.4282E+01  0.7702E+00  0.7205E+01  0.5487E+01
      7.096  0.4189E+01  0.6547E+00  0.7546E+01  0.5540E+01
      7.178  0.3028E+01  0.6810E+00  0.7793E+01  0.5596E+01
      7.259  0.2288E+01  0.7625E+00  0.7980E+01  0.5658E+01
      7.341  0.1822E+01  0.7916E+00  0.8129E+01  0.5723E+01
      7.422  0.1572E+01  0.7618E+00  0.8258E+01  0.5785E+01
      7.504  0.1315E+01  0.7173E+00  0.8365E+01  0.5843E+01
      7.585  0.1063E+01  0.7432E+00  0.8452E+01  0.5904E+01
      7.667  0.1123E+01  0.8253E+00  0.8544E+01  0.5971E+01
      7.748  0.1120E+01  0.7876E+00  0.8635E+01  0.6036E+01
      7.830  0.9081E+00  0.6065E+00  0.8709E+01  0.6085E+01
      7.912  0.6447E+00  0.5889E+00  0.8762E+01  0.6133E+01
      7.993  0.5119E+00  0.7390E+00  0.8804E+01  0.6193E+01
      8.075  0.7625E+00  0.7670E+00  0.8866E+01  0.6256E+01
      8.156  0.1015E+01  0.8240E+00  0.8949E+01  0.6323E+01
      8.238  0.8845E+00  0.1066E+01  0.9021E+01  0.6410E+01
      8.319  0.6454E+00  0.1311E+01  0.9074E+01  0.6517E+01
      8.401  0.5785E+00  0.1314E+01  0.9121E+01  0.6624E+01
      8.482  0.6054E+00  0.1345E+01  0.9170E+01  0.6734E+01
      8.564  0.7095E+00  0.1621E+01  0.9228E+01  0.6866E+01
      8.645  0.8488E+00  0.1627E+01  0.9297E+01  0.6999E+01
      8.727  0.1156E+01  0.1506E+01  0.9392E+01  0.7122E+01
      8.809  0.1478E+01  0.1386E+01  0.9512E+01  0.7235E+01
      8.890  0.1587E+01  0.1279E+01  0.9642E+01  0.7340E+01
      8.972  0.1458E+01  0.1536E+01  0.9761E+01  0.7465E+01
      9.053  0.1203E+01  0.2078E+01  0.9859E+01  0.7635E+01
      9.135  0.1119E+01  0.2429E+01  0.9950E+01  0.7833E+01
      9.216  0.1165E+01  0.2576E+01  0.1005E+02  0.8043E+01
      9.298  0.1007E+01  0.2277E+01  0.1013E+02  0.8229E+01
      9.379  0.1045E+01  0.1896E+01  0.1021E+02  0.8383E+01
      9.461  0.1101E+01  0.2175E+01  0.1030E+02  0.8561E+01
      9.542  0.9902E+00  0.2636E+01  0.1038E+02  0.8776E+01
      9.624  0.9124E+00  0.2625E+01  0.1046E+02  0.8990E+01
      9.706  0.8660E+00  0.2133E+01  0.1053E+02  0.9164E+01
      9.787  0.8224E+00  0.1612E+01  0.1060E+02  0.9296E+01
      9.869  0.8423E+00  0.1414E+01  0.1066E+02  0.9411E+01
      9.950  0.9688E+00  0.1399E+01  0.1074E+02  0.9526E+01
     10.032  0.1106E+01  0.1278E+01  0.1083E+02  0.9630E+01
     10.113  0.9839E+00  0.1224E+01  0.1091E+02  0.9730E+01
     10.195  0.7363E+00  0.1365E+01  0.1097E+02  0.9841E+01
     10.276  0.7112E+00  0.1346E+01  0.1103E+02  0.9951E+01
     10.358  0.8824E+00  0.1335E+01  0.1110E+02  0.1006E+02
     10.439  0.1170E+01  0.1534E+01  0.1120E+02  0.1019E+02
     10.521  0.1091E+01  0.1661E+01  0.1129E+02  0.1032E+02
     10.603  0.8694E+00  0.1698E+01  0.1136E+02  0.1046E+02
     10.684  0.9679E+00  0.1517E+01  0.1144E+02  0.1058E+02
     10.766  0.1191E+01  0.1398E+01  0.1154E+02  0.1070E+02
     10.847  0.1210E+01  0.1291E+01  0.1163E+02  0.1080E+02
     10.929  0.1058E+01  0.1289E+01  0.1172E+02  0.1091E+02
     11.010  0.1022E+01  0.1460E+01  0.1180E+02  0.1103E+02
     11.092  0.8868E+00  0.1680E+01  0.1188E+02  0.1116E+02
     11.173  0.6923E+00  0.1631E+01  0.1193E+02  0.1130E+02
     11.255  0.7102E+00  0.1440E+01  0.1199E+02  0.1141E+02
     11.336  0.7150E+00  0.1311E+01  0.1205E+02  0.1152E+02
     11.418  0.6463E+00  0.1216E+01  0.1210E+02  0.1162E+02
     11.499  0.6883E+00  0.1078E+01  0.1216E+02  0.1171E+02
     11.581  0.1038E+01  0.1002E+01  0.1224E+02  0.1179E+02
     11.663  0.1228E+01  0.9751E+00  0.1234E+02  0.1187E+02
     11.744  0.1043E+01  0.8420E+00  0.1243E+02  0.1194E+02
     11.826  0.8511E+00  0.7915E+00  0.1250E+02  0.1200E+02
     11.907  0.7713E+00  0.6920E+00  0.1256E+02  0.1206E+02
     11.989  0.7858E+00  0.7360E+00  0.1263E+02  0.1212E+02
     12.070  0.8369E+00  0.8421E+00  0.1269E+02  0.1219E+02
     12.152  0.8680E+00  0.9686E+00  0.1276E+02  0.1227E+02
     12.233  0.8028E+00  0.1234E+01  0.1283E+02  0.1237E+02
     12.315  0.7604E+00  0.1320E+01  0.1289E+02  0.1248E+02
     12.396  0.8513E+00  0.9967E+00  0.1296E+02  0.1256E+02
     12.478  0.9933E+00  0.8635E+00  0.1304E+02  0.1263E+02
     12.560  0.1089E+01  0.9988E+00  0.1313E+02  0.1271E+02
     12.641  0.1052E+01  0.8058E+00  0.1322E+02  0.1278E+02
     12.723  0.9851E+00  0.5337E+00  0.1330E+02  0.1282E+02
     12.804  0.1001E+01  0.4666E+00  0.1338E+02  0.1286E+02
     12.886  0.1043E+01  0.6106E+00  0.1346E+02  0.1291E+02
     12.967  0.9568E+00  0.8713E+00  0.1354E+02  0.1298E+02
     13.049  0.8155E+00  0.1055E+01  0.1361E+02  0.1306E+02
     13.130  0.8225E+00  0.1217E+01  0.1368E+02  0.1316E+02
     13.212  0.9978E+00  0.1522E+01  0.1376E+02  0.1329E+02
     13.293  0.1167E+01  0.1602E+01  0.1385E+02  0.1342E+02
     13.375  0.1142E+01  0.1372E+01  0.1395E+02  0.1353E+02
     13.457  0.1152E+01  0.1181E+01  0.1404E+02  0.1363E+02
     13.538  0.1025E+01  0.1078E+01  0.1412E+02  0.1371E+02
     13.620  0.9076E+00  0.1104E+01  0.1420E+02  0.1381E+02
     13.701  0.9479E+00  0.1162E+01  0.1428E+02  0.1390E+02
     13.783  0.7619E+00  0.1164E+01  0.1434E+02  0.1399E+02
     13.864  0.6126E+00  0.1190E+01  0.1439E+02  0.1409E+02
     13.946  0.8360E+00  0.1323E+01  0.1446E+02  0.1420E+02
     14.027  0.1210E+01  0.1266E+01  0.1455E+02  0.1430E+02
     14.109  0.1327E+01  0.9969E+00  0.1466E+02  0.1438E+02
     14.190  0.1331E+01  0.9040E+00  0.1477E+02  0.1446E+02
     14.272  0.1274E+01  0.1058E+01  0.1488E+02  0.1454E+02
     14.353  0.1117E+01  0.1119E+01  0.1497E+02  0.1464E+02
     14.435  0.8935E+00  0.1078E+01  0.1504E+02  0.1472E+02
     14.517  0.6895E+00  0.1250E+01  0.1510E+02  0.1483E+02
     14.598  0.7513E+00  0.1379E+01  0.1516E+02  0.1494E+02
     14.680  0.7977E+00  0.1133E+01  0.1522E+02  0.1503E+02
     14.761  0.6440E+00  0.8601E+00  0.1527E+02  0.1510E+02
     14.843  0.4843E+00  0.7719E+00  0.1531E+02  0.1516E+02
     14.924  0.5756E+00  0.8171E+00  0.1536E+02  0.1523E+02
     15.006  0.6718E+00  0.8692E+00  0.1542E+02  0.1530E+02
     15.087  0.6187E+00  0.8551E+00  0.1547E+02  0.1537E+02
     15.169  0.5689E+00  0.6379E+00  0.1551E+02  0.1542E+02
     15.250  0.4596E+00  0.4563E+00  0.1555E+02  0.1546E+02
     15.332  0.3231E+00  0.4329E+00  0.1558E+02  0.1550E+02
     15.414  0.3062E+00  0.4335E+00  0.1560E+02  0.1553E+02
     15.495  0.3066E+00  0.4839E+00  0.1563E+02  0.1557E+02
     15.577  0.2936E+00  0.4869E+00  0.1565E+02  0.1561E+02
     15.658  0.3175E+00  0.5084E+00  0.1568E+02  0.1565E+02
     15.740  0.3071E+00  0.4352E+00  0.1570E+02  0.1569E+02
     15.821  0.1983E+00  0.2493E+00  0.1572E+02  0.1571E+02
     15.903  0.1238E+00  0.1541E+00  0.1573E+02  0.1572E+02
     15.984  0.1312E+00  0.1659E+00  0.1574E+02  0.1573E+02
     16.066  0.1506E+00  0.1744E+00  0.1575E+02  0.1575E+02
     16.147  0.1091E+00  0.1152E+00  0.1576E+02  0.1576E+02
     16.229  0.8051E-01  0.9673E-01  0.1577E+02  0.1577E+02
     16.311  0.6590E-01  0.1052E+00  0.1577E+02  0.1577E+02
     16.392  0.9710E-01  0.1375E+00  0.1578E+02  0.1579E+02
     16.474  0.1907E+00  0.2021E+00  0.1580E+02  0.1580E+02
     16.555  0.2732E+00  0.2127E+00  0.1582E+02  0.1582E+02
     16.637  0.1748E+00  0.1534E+00  0.1583E+02  0.1583E+02
     16.718  0.8999E-01  0.1350E+00  0.1584E+02  0.1584E+02
     16.800  0.1110E+00  0.1380E+00  0.1585E+02  0.1585E+02
     16.881  0.1025E+00  0.1206E+00  0.1586E+02  0.1586E+02
     16.963  0.9092E-01  0.1293E+00  0.1586E+02  0.1588E+02
     17.044  0.1295E+00  0.1194E+00  0.1588E+02  0.1588E+02
     17.126  0.1362E+00  0.1199E+00  0.1589E+02  0.1589E+02
     17.207  0.1328E+00  0.1313E+00  0.1590E+02  0.1591E+02
     17.289  0.1286E+00  0.1156E+00  0.1591E+02  0.1591E+02
     17.371  0.1153E+00  0.1134E+00  0.1592E+02  0.1592E+02
     17.452  0.1073E+00  0.6263E-01  0.1593E+02  0.1593E+02
     17.534  0.5124E-01  0.2713E-01  0.1593E+02  0.1593E+02
     17.615  0.2461E-01  0.4352E-01  0.1593E+02  0.1594E+02
     17.697  0.4611E-01  0.8983E-01  0.1594E+02  0.1594E+02
     17.778  0.7947E-01  0.9926E-01  0.1594E+02  0.1595E+02
     17.860  0.8331E-01  0.7377E-01  0.1595E+02  0.1596E+02
     17.941  0.8051E-01  0.6380E-01  0.1596E+02  0.1596E+02
     18.023  0.7214E-01  0.4778E-01  0.1596E+02  0.1597E+02
     18.104  0.5046E-01  0.2008E-01  0.1597E+02  0.1597E+02
     18.186  0.1906E-01  0.2048E-01  0.1597E+02  0.1597E+02
     18.268  0.1296E-01  0.4571E-01  0.1597E+02  0.1597E+02
     18.349  0.3248E-01  0.4516E-01  0.1597E+02  0.1598E+02
     18.431  0.5151E-01  0.1725E-01  0.1597E+02  0.1598E+02
     18.512  0.2935E-01  0.4985E-02  0.1598E+02  0.1598E+02
     18.594  0.8918E-02  0.5761E-02  0.1598E+02  0.1598E+02
     18.675  0.6169E-02  0.2011E-01  0.1598E+02  0.1598E+02
     18.757  0.1902E-01  0.4685E-01  0.1598E+02  0.1598E+02
     18.838  0.4598E-01  0.4168E-01  0.1598E+02  0.1599E+02
     18.920  0.4306E-01  0.1539E-01  0.1599E+02  0.1599E+02
     19.001  0.1611E-01  0.5750E-02  0.1599E+02  0.1599E+02
     19.083  0.4323E-02  0.1136E-01  0.1599E+02  0.1599E+02
     19.165  0.3741E-02  0.3492E-01  0.1599E+02  0.1599E+02
     19.246  0.1339E-01  0.5051E-01  0.1599E+02  0.1600E+02
     19.328  0.3978E-01  0.2620E-01  0.1599E+02  0.1600E+02
     19.409  0.4867E-01  0.6949E-02  0.1600E+02  0.1600E+02
     19.491  0.2169E-01  0.1458E-02  0.1600E+02  0.1600E+02
     19.572  0.5382E-02  0.2894E-03  0.1600E+02  0.1600E+02
     19.654  0.1110E-02  0.0000E+00  0.1600E+02  0.1600E+02
     19.735  0.1583E-03  0.0000E+00  0.1600E+02  0.1600E+02
     19.817  0.0000E+00  0.0000E+00  0.1600E+02  0.1600E+02
     19.898  0.0000E+00  0.0000E+00  0.1600E+02  0.1600E+02
     19.980  0.0000E+00  0.0000E+00  0.1600E+02  0.1600E+02
     20.062  0.0000E+00  0.0000E+00  0.1600E+02  0.1600E+02
     20.143  0.0000E+00  0.0000E+00  0.1600E+02  0.1600E+02
     20.225  0.0000E+00  0.0000E+00  0.1600E+02  0.1600E+02
     20.306  0.0000E+00  0.0000E+00  0.1600E+02  0.1600E+02
     20.388  0.0000E+00  0.0000E+00  0.1600E+02  0.1600E+02
     20.469  0.0000E+00  0.0000E+00  0.1600E+02  0.1600E+02
     20.46921759     -3.99370147  301      7.99527978      1.00000000
     -3.994  0.0000E+00  0.0000E+00  0.0000E+00  0.0000E+00  0.0000E+00  0.0000E+00  0.0000E+00  0.0000E+00  0.0000E+00  0.0000E+00  0.0000E+00  0.0000E+00  0.0000E+00  0.0000E+00  0.0000E+00  0.0000E+00  0.0000E+00  0.0000E+00
     -3.912  0.0000E+00  0.0000E+00  0.0000E+00  0.0000E+00  0.0000E+00  0.0000E+00  0.0000E+00  0.0000E+00  0.0000E+00  0.0000E+00  0.0000E+00  0.0000E+00  0.0000E+00  0.0000E+00  0.0000E+00  0.0000E+00  0.0000E+00  0.0000E+00
     -3.831  0.0000E+00  0.0000E+00  0.0000E+00  0.0000E+00  0.0000E+00  0.0000E+00  0.0000E+00  0.0000E+00  0.0000E+00  0.0000E+00  0.0000E+00  0.0000E+00  0.0000E+00  0.0000E+00  0.0000E+00  0.0000E+00  0.0000E+00  0.0000E+00
     -3.749  0.0000E+00  0.0000E+00  0.0000E+00  0.0000E+00  0.0000E+00  0.0000E+00  0.0000E+00  0.0000E+00  0.0000E+00  0.0000E+00  0.0000E+00  0.0000E+00  0.0000E+00  0.0000E+00  0.0000E+00  0.0000E+00  0.0000E+00  0.0000E+00
     -3.668  0.0000E+00  0.0000E+00  0.0000E+00  0.0000E+00  0.0000E+00  0.0000E+00  0.0000E+00  0.0000E+00  0.0000E+00  0.0000E+00  0.0000E+00  0.0000E+00  0.0000E+00  0.0000E+00  0.0000E+00  0.0000E+00  0.0000E+00  0.0000E+00
     -3.586  0.0000E+00  0.0000E+00  0.0000E+00  0.0000E+00  0.0000E+00  0.0000E+00  0.0000E+00  0.0000E+00  0.0000E+00  0.0000E+00  0.0000E+00  0.0000E+00  0.0000E+00  0.0000E+00  0.0000E+00  0.0000E+00  0.0000E+00  0.0000E+00
     -3.504  0.0000E+00  0.0000E+00  0.0000E+00  0.0000E+00  0.0000E+00  0.0000E+00  0.0000E+00  0.0000E+00  0.0000E+00  0.0000E+00  0.0000E+00  0.0000E+00  0.0000E+00  0.0000E+00  0.0000E+00  0.0000E+00  0.0000E+00  0.0000E+00
     -3.423  0.0000E+00  0.0000E+00  0.0000E+00  0.0000E+00  0.0000E+00  0.0000E+00  0.0000E+00  0.0000E+00  0.0000E+00  0.0000E+00  0.0000E+00  0.0000E+00  0.0000E+00  0.0000E+00  0.0000E+00  0.0000E+00  0.0000E+00  0.0000E+00
     -3.341  0.5775E-07  0.0000E+00  0.8233E-21  0.0000E+00  0.8233E-21  0.0000E+00  0.6271E-21  0.0000E+00  0.1303E-14  0.0000E+00  0.4664E-15  0.0000E+00  0.1301E-15  0.0000E+00  0.1303E-14  0.0000E+00  0.1697E-15  0.0000E+00
     -3.260  0.7947E-06  0.5807E-07  0.1680E-08  0.4841E-21  0.1680E-08  0.4842E-21  0.1679E-08  0.7663E-21  0.8983E-14  0.8396E-15  0.1887E-13  0.6520E-15  0.5874E-11  0.5569E-16  0.8983E-14  0.8396E-15  0.7512E-11  0.6978E-16
     -3.178  0.5674E-05  0.8042E-06  0.2124E-07  0.1823E-08  0.2124E-07  0.1823E-08  0.2123E-07  0.1822E-08  0.1441E-09  0.5473E-14  0.1441E-09  0.9952E-14  0.4910E-10  0.4621E-11  0.1441E-09  0.5473E-14  0.5016E-10  0.5909E-11
     -3.097  0.2713E-04  0.5769E-05  0.9968E-07  0.2323E-07  0.9968E-07  0.2323E-07  0.9963E-07  0.2322E-07  0.5913E-09  0.1433E-09  0.5915E-09  0.1433E-09  0.3062E-09  0.3933E-10  0.5913E-09  0.1433E-09  0.3401E-09  0.4003E-10
     -3.015  0.1386E-03  0.2755E-04  0.5625E-06  0.1091E-06  0.5625E-06  0.1091E-06  0.5621E-06  0.1090E-06  0.4078E-08  0.5879E-09  0.4080E-08  0.5881E-09  0.2014E-08  0.2464E-09  0.4078E-08  0.5879E-09  0.2263E-08  0.2734E-09
     -2.934  0.6306E-03  0.1404E-03  0.2678E-05  0.6170E-06  0.2678E-05  0.6170E-06  0.2676E-05  0.6166E-06  0.1937E-07  0.4059E-08  0.1939E-07  0.4061E-08  0.9338E-08  0.1626E-08  0.1937E-07  0.4059E-08  0.1044E-07  0.1826E-08
     -2.852  0.2235E-02  0.6294E-03  0.1131E-04  0.2913E-05  0.1131E-04  0.2913E-05  0.1131E-04  0.2912E-05  0.9255E-07  0.1921E-07  0.9260E-07  0.1922E-07  0.4104E-07  0.7488E-08  0.9255E-07  0.1921E-07  0.4561E-07  0.8366E-08
     -2.771  0.5029E-02  0.2154E-02  0.3394E-04  0.1203E-04  0.3394E-04  0.1203E-04  0.3393E-04  0.1202E-04  0.3427E-06  0.9049E-07  0.3429E-06  0.9052E-07  0.1441E-06  0.3239E-07  0.3427E-06  0.9049E-07  0.1629E-06  0.3600E-07
     -2.689  0.7302E-02  0.4621E-02  0.7261E-04  0.3478E-04  0.7261E-04  0.3478E-04  0.7255E-04  0.3476E-04  0.9235E-06  0.3232E-06  0.9239E-06  0.3233E-06  0.4523E-06  0.1122E-06  0.9235E-06  0.3232E-06  0.5351E-06  0.1275E-06
     -2.607  0.9796E-02  0.6550E-02  0.1402E-03  0.7336E-04  0.1402E-03  0.7336E-04  0.1401E-03  0.7330E-04  0.2271E-05  0.8513E-06  0.2272E-05  0.8516E-06  0.1133E-05  0.3486E-06  0.2271E-05  0.8513E-06  0.1353E-05  0.4139E-06
     -2.526  0.1182E-01  0.8825E-02  0.2086E-03  0.1400E-03  0.2086E-03  0.1400E-03  0.2086E-03  0.1399E-03  0.4472E-05  0.2068E-05  0.4473E-05  0.2068E-05  0.1736E-05  0.8267E-06  0.4472E-05  0.2068E-05  0.2038E-05  0.9871E-06
     -2.444  0.1098E-01  0.1021E-01  0.2475E-03  0.1990E-03  0.2475E-03  0.1990E-03  0.2473E-03  0.1989E-03  0.6986E-05  0.3889E-05  0.6989E-05  0.3890E-05  0.2551E-05  0.1209E-05  0.6986E-05  0.3889E-05  0.2873E-05  0.1414E-05
     -2.363  0.1326E-01  0.9586E-02  0.3801E-03  0.2424E-03  0.3801E-03  0.2424E-03  0.3796E-03  0.2422E-03  0.1188E-04  0.6151E-05  0.1188E-04  0.6153E-05  0.5402E-05  0.1881E-05  0.1188E-04  0.6151E-05  0.6237E-05  0.2119E-05
     -2.281  0.1561E-01  0.1192E-01  0.5125E-03  0.3780E-03  0.5125E-03  0.3780E-03  0.5122E-03  0.3775E-03  0.1648E-04  0.1032E-04  0.1648E-04  0.1032E-04  0.8938E-05  0.3973E-05  0.1648E-04  0.1032E-04  0.1075E-04  0.4626E-05
     -2.200  0.1490E-01  0.1345E-01  0.5619E-03  0.4879E-03  0.5619E-03  0.4879E-03  0.5619E-03  0.4878E-03  0.2347E-04  0.1405E-04  0.2350E-04  0.1406E-04  0.9722E-05  0.6098E-05  0.2347E-04  0.1405E-04  0.1155E-04  0.7353E-05
     -2.118  0.1568E-01  0.1276E-01  0.6833E-03  0.5351E-03  0.6833E-03  0.5351E-03  0.6830E-03  0.5352E-03  0.3722E-04  0.2069E-04  0.3726E-04  0.2070E-04  0.1122E-04  0.6450E-05  0.3722E-04  0.2069E-04  0.1263E-04  0.7594E-05
     -2.037  0.1560E-01  0.1370E-01  0.7563E-03  0.6606E-03  0.7563E-03  0.6606E-03  0.7558E-03  0.6602E-03  0.4381E-04  0.3211E-04  0.4380E-04  0.3211E-04  0.1426E-04  0.7735E-05  0.4381E-04  0.3211E-04  0.1635E-04  0.8688E-05
     -1.955  0.1467E-01  0.1302E-01  0.8360E-03  0.7054E-03  0.8360E-03  0.7054E-03  0.8342E-03  0.7047E-03  0.4695E-04  0.3525E-04  0.4697E-04  0.3523E-04  0.2181E-04  0.9906E-05  0.4695E-04  0.3525E-04  0.2632E-04  0.1150E-04
     -1.874  0.1875E-01  0.1313E-01  0.1191E-02  0.8438E-03  0.1191E-02  0.8438E-03  0.1190E-02  0.8419E-03  0.7283E-04  0.4114E-04  0.7292E-04  0.4118E-04  0.3437E-04  0.1583E-04  0.7283E-04  0.4114E-04  0.4113E-04  0.1917E-04
     -1.792  0.1952E-01  0.1641E-01  0.1336E-02  0.1161E-02  0.1336E-02  0.1161E-02  0.1336E-02  0.1160E-02  0.9667E-04  0.6342E-04  0.9674E-04  0.6350E-04  0.3814E-04  0.2304E-04  0.9667E-04  0.6342E-04  0.4398E-04  0.2736E-04
     -1.710  0.1882E-01  0.1640E-01  0.1408E-02  0.1257E-02  0.1408E-02  0.1257E-02  0.1407E-02  0.1257E-02  0.1185E-03  0.8165E-04  0.1185E-03  0.8170E-04  0.3951E-04  0.2454E-04  0.1185E-03  0.8165E-04  0.4538E-04  0.2816E-04
     -1.629  0.1650E-01  0.1572E-01  0.1327E-02  0.1316E-02  0.1327E-02  0.1316E-02  0.1328E-02  0.1316E-02  0.1303E-03  0.9869E-04  0.1303E-03  0.9864E-04  0.3420E-04  0.2497E-04  0.1303E-03  0.9869E-04  0.3958E-04  0.2876E-04
     -1.547  0.1415E-01  0.1319E-01  0.1296E-02  0.1198E-02  0.1296E-02  0.1198E-02  0.1293E-02  0.1198E-02  0.1389E-03  0.1041E-03  0.1391E-03  0.1040E-03  0.3674E-04  0.2095E-04  0.1389E-03  0.1041E-03  0.4274E-04  0.2429E-04
     -1.466  0.1832E-01  0.1253E-01  0.1920E-02  0.1333E-02  0.1920E-02  0.1333E-02  0.1913E-02  0.1329E-02  0.1972E-03  0.1194E-03  0.1976E-03  0.1196E-03  0.6878E-04  0.2744E-04  0.1972E-03  0.1194E-03  0.8012E-04  0.3203E-04
     -1.384  0.2142E-01  0.1665E-01  0.2421E-02  0.2007E-02  0.2421E-02  0.2007E-02  0.2420E-02  0.2001E-02  0.2469E-03  0.1712E-03  0.2468E-03  0.1714E-03  0.9395E-04  0.4922E-04  0.2469E-03  0.1712E-03  0.1107E-03  0.5749E-04
     -1.303  0.1943E-01  0.1741E-01  0.2378E-02  0.2261E-02  0.2378E-02  0.2261E-02  0.2377E-02  0.2261E-02  0.2739E-03  0.1998E-03  0.2739E-03  0.1996E-03  0.8981E-04  0.5697E-04  0.2739E-03  0.1998E-03  0.1072E-03  0.6731E-04
     -1.221  0.1929E-01  0.1606E-01  0.2544E-02  0.2275E-02  0.2544E-02  0.2275E-02  0.2543E-02  0.2273E-02  0.3289E-03  0.2324E-03  0.3290E-03  0.2325E-03  0.9465E-04  0.5456E-04  0.3289E-03  0.2324E-03  0.1127E-03  0.6504E-04
     -1.140  0.1506E-01  0.1511E-01  0.2143E-02  0.2302E-02  0.2143E-02  0.2302E-02  0.2145E-02  0.2303E-02  0.3107E-03  0.2570E-03  0.3109E-03  0.2570E-03  0.8066E-04  0.5490E-04  0.3107E-03  0.2570E-03  0.9322E-04  0.6501E-04
     -1.058  0.1535E-01  0.1167E-01  0.2466E-02  0.1987E-02  0.2466E-02  0.1987E-02  0.2458E-02  0.1985E-02  0.4274E-03  0.2544E-03  0.4283E-03  0.2548E-03  0.8490E-04  0.4590E-04  0.4274E-03  0.2544E-03  0.9339E-04  0.5207E-04
     -0.977  0.1917E-01  0.1391E-01  0.3576E-02  0.2798E-02  0.3576E-02  0.2798E-02  0.3560E-02  0.2783E-02  0.6071E-03  0.3871E-03  0.6074E-03  0.3879E-03  0.1151E-03  0.5786E-04  0.6071E-03  0.3871E-03  0.1285E-03  0.6393E-04
     -0.895  0.1790E-01  0.1600E-01  0.4100E-02  0.3859E-02  0.4100E-02  0.3859E-02  0.4090E-02  0.3846E-02  0.6217E-03  0.4969E-03  0.6213E-03  0.4970E-03  0.1259E-03  0.7313E-04  0.6217E-03  0.4969E-03  0.1447E-03  0.8264E-04
     -0.814  0.1430E-01  0.1326E-01  0.3956E-02  0.3857E-02  0.3956E-02  0.3857E-02  0.3954E-02  0.3857E-02  0.6082E-03  0.4822E-03  0.6086E-03  0.4821E-03  0.1148E-03  0.6708E-04  0.6082E-03  0.4822E-03  0.1349E-03  0.7721E-04
     -0.732  0.1263E-01  0.1075E-01  0.4070E-02  0.3748E-02  0.4070E-02  0.3748E-02  0.4066E-02  0.3744E-02  0.7022E-03  0.5094E-03  0.7034E-03  0.5101E-03  0.1141E-03  0.6076E-04  0.7022E-03  0.5094E-03  0.1338E-03  0.7105E-04
     -0.650  0.1309E-01  0.9454E-02  0.4180E-02  0.3664E-02  0.4180E-02  0.3664E-02  0.4188E-02  0.3672E-02  0.9235E-03  0.5746E-03  0.9257E-03  0.5754E-03  0.1154E-03  0.5797E-04  0.9235E-03  0.5746E-03  0.1278E-03  0.6636E-04
     -0.569  0.1500E-01  0.1074E-01  0.4562E-02  0.3792E-02  0.4562E-02  0.3792E-02  0.4557E-02  0.3791E-02  0.1261E-02  0.7994E-03  0.1263E-02  0.8014E-03  0.1224E-03  0.6026E-04  0.1261E-02  0.7994E-03  0.1297E-03  0.6399E-04
     -0.487  0.1346E-01  0.1177E-01  0.4740E-02  0.4429E-02  0.4740E-02  0.4429E-02  0.4737E-02  0.4422E-02  0.1389E-02  0.1042E-02  0.1390E-02  0.1043E-02  0.1185E-03  0.6671E-04  0.1389E-02  0.1042E-02  0.1288E-03  0.7071E-04
     -0.406  0.1046E-01  0.9572E-02  0.4053E-02  0.4107E-02  0.4053E-02  0.4107E-02  0.4066E-02  0.4116E-02  0.1286E-02  0.1020E-02  0.1284E-02  0.1019E-02  0.9646E-04  0.5756E-04  0.1286E-02  0.1020E-02  0.1048E-03  0.6221E-04
     -0.324  0.7093E-02  0.6802E-02  0.3076E-02  0.3128E-02  0.3076E-02  0.3128E-02  0.3080E-02  0.3137E-02  0.1107E-02  0.8632E-03  0.1107E-02  0.8617E-03  0.6683E-04  0.4125E-04  0.1107E-02  0.8632E-03  0.7276E-04  0.4429E-04
     -0.243  0.7181E-02  0.4995E-02  0.3188E-02  0.2662E-02  0.3188E-02  0.2662E-02  0.3188E-02  0.2665E-02  0.1389E-02  0.8403E-03  0.1393E-02  0.8413E-03  0.6731E-04  0.3129E-04  0.1389E-02  0.8403E-03  0.7019E-04  0.3347E-04
     -0.161  0.9801E-02  0.6214E-02  0.4164E-02  0.3143E-02  0.4164E-02  0.3143E-02  0.4154E-02  0.3136E-02  0.2115E-02  0.1206E-02  0.2121E-02  0.1211E-02  0.9972E-04  0.3834E-04  0.2115E-02  0.1206E-02  0.9851E-04  0.3784E-04
     -0.080  0.9370E-02  0.7800E-02  0.4286E-02  0.4086E-02  0.4286E-02  0.4086E-02  0.4288E-02  0.4080E-02  0.2291E-02  0.1707E-02  0.2287E-02  0.1709E-02  0.1341E-03  0.5270E-04  0.2291E-02  0.1707E-02  0.1422E-03  0.5070E-04
      0.002  0.8957E-02  0.5837E-02  0.3449E-02  0.3461E-02  0.3449E-02  0.3461E-02  0.3455E-02  0.3468E-02  0.1938E-02  0.1511E-02  0.1934E-02  0.1507E-02  0.2460E-03  0.4923E-04  0.1938E-02  0.1511E-02  0.2941E-03  0.5004E-04
      0.083  0.1346E-01  0.4772E-02  0.2830E-02  0.2671E-02  0.2830E-02  0.2671E-02  0.2838E-02  0.2679E-02  0.1638E-02  0.1262E-02  0.1634E-02  0.1258E-02  0.5821E-03  0.6799E-04  0.1638E-02  0.1262E-02  0.7305E-03  0.7755E-04