   4   4   1   0
  0.1714692E+02  0.4092469E-09  0.4093836E-09  0.4093836E-09  0.5000000E-15
  1.000000000000000E-004
  CAR 
 unknown system                          
     18.38677299     -4.32023087  301      6.86121184      1.00000000
     -4.320  0.0000E+00  0.0000E+00  0.0000E+00  0.0000E+00
     -4.245  0.0000E+00  0.0000E+00  0.0000E+00  0.0000E+00
     -4.169  0.0000E+00  0.0000E+00  0.0000E+00  0.0000E+00
     -4.093  0.0000E+00  0.0000E+00  0.0000E+00  0.0000E+00
     -4.017  0.0000E+00  0.0000E+00  0.0000E+00  0.0000E+00
     -3.942  0.0000E+00  0.0000E+00  0.0000E+00  0.0000E+00
     -3.866  0.0000E+00  0.0000E+00  0.0000E+00  0.0000E+00
     -3.790  0.0000E+00  0.0000E+00  0.0000E+00  0.0000E+00
     -3.715  0.1184E-05  0.4499E-06  0.8965E-07  0.3406E-07
     -3.639  0.2332E-04  0.5924E-05  0.1855E-05  0.4825E-06
     -3.563  0.9503E-04  0.3648E-04  0.9048E-05  0.3244E-05
     -3.488  0.4446E-03  0.1703E-03  0.4270E-04  0.1614E-04
     -3.412  0.1962E-02  0.7722E-03  0.1912E-03  0.7458E-04
     -3.336  0.7949E-02  0.3361E-02  0.7928E-03  0.3290E-03
     -3.261  0.2556E-01  0.1279E-01  0.2727E-02  0.1297E-02
     -3.185  0.5508E-01  0.3612E-01  0.6897E-02  0.4031E-02
     -3.109  0.8157E-01  0.6657E-01  0.1307E-01  0.9070E-02
     -3.034  0.1108E+00  0.9281E-01  0.2146E-01  0.1609E-01
     -2.958  0.1327E+00  0.1242E+00  0.3150E-01  0.2550E-01
     -2.882  0.1312E+00  0.1336E+00  0.4143E-01  0.3561E-01
     -2.806  0.1599E+00  0.1410E+00  0.5354E-01  0.4629E-01
     -2.731  0.1869E+00  0.1779E+00  0.6769E-01  0.5976E-01
     -2.655  0.1854E+00  0.1894E+00  0.8172E-01  0.7410E-01
     -2.579  0.1986E+00  0.1909E+00  0.9676E-01  0.8857E-01
     -2.504  0.1996E+00  0.2068E+00  0.1119E+00  0.1042E+00
     -2.428  0.2029E+00  0.1979E+00  0.1272E+00  0.1192E+00
     -2.352  0.2548E+00  0.2325E+00  0.1465E+00  0.1368E+00
     -2.277  0.2691E+00  0.2707E+00  0.1669E+00  0.1573E+00
     -2.201  0.2651E+00  0.2708E+00  0.1870E+00  0.1778E+00
     -2.125  0.2372E+00  0.2574E+00  0.2050E+00  0.1973E+00
     -2.050  0.2249E+00  0.2267E+00  0.2220E+00  0.2145E+00
     -1.974  0.2977E+00  0.2698E+00  0.2445E+00  0.2349E+00
     -1.898  0.3440E+00  0.3438E+00  0.2706E+00  0.2609E+00
     -1.822  0.3305E+00  0.3389E+00  0.2956E+00  0.2866E+00
     -1.747  0.3296E+00  0.3401E+00  0.3206E+00  0.3124E+00
     -1.671  0.2767E+00  0.3002E+00  0.3416E+00  0.3351E+00
     -1.595  0.3108E+00  0.2986E+00  0.3651E+00  0.3577E+00
     -1.520  0.4043E+00  0.4077E+00  0.3957E+00  0.3886E+00
     -1.444  0.4186E+00  0.4493E+00  0.4274E+00  0.4226E+00
     -1.368  0.3840E+00  0.4050E+00  0.4565E+00  0.4533E+00
     -1.293  0.3790E+00  0.3866E+00  0.4852E+00  0.4826E+00
     -1.217  0.3947E+00  0.3710E+00  0.5151E+00  0.5107E+00
     -1.141  0.4371E+00  0.4336E+00  0.5482E+00  0.5435E+00
     -1.066  0.4345E+00  0.4522E+00  0.5811E+00  0.5778E+00
     -0.990  0.3635E+00  0.3751E+00  0.6086E+00  0.6062E+00
     -0.914  0.2833E+00  0.2915E+00  0.6301E+00  0.6283E+00
     -0.838  0.2988E+00  0.2798E+00  0.6527E+00  0.6495E+00
     -0.763  0.3877E+00  0.3722E+00  0.6821E+00  0.6776E+00
     -0.687  0.3974E+00  0.4079E+00  0.7122E+00  0.7086E+00
     -0.611  0.3396E+00  0.3225E+00  0.7380E+00  0.7330E+00
     -0.536  0.3221E+00  0.2564E+00  0.7623E+00  0.7524E+00
     -0.460  0.3440E+00  0.2416E+00  0.7884E+00  0.7707E+00
     -0.384  0.4542E+00  0.3837E+00  0.8228E+00  0.7997E+00
     -0.309  0.5274E+00  0.5010E+00  0.8628E+00  0.8377E+00
     -0.233  0.4066E+00  0.4314E+00  0.8935E+00  0.8704E+00
     -0.157  0.3387E+00  0.3694E+00  0.9192E+00  0.8983E+00
     -0.082  0.3754E+00  0.3175E+00  0.9476E+00  0.9224E+00
     -0.006  0.4380E+00  0.3890E+00  0.9808E+00  0.9518E+00
      0.070  0.4572E+00  0.4707E+00  0.1015E+01  0.9875E+00
      0.145  0.4292E+00  0.4034E+00  0.1048E+01  0.1018E+01
      0.221  0.4234E+00  0.3685E+00  0.1080E+01  0.1046E+01
      0.297  0.5054E+00  0.4095E+00  0.1118E+01  0.1077E+01
      0.373  0.5588E+00  0.5102E+00  0.1161E+01  0.1116E+01
      0.448  0.4824E+00  0.5749E+00  0.1197E+01  0.1159E+01
      0.524  0.3898E+00  0.4673E+00  0.1227E+01  0.1195E+01
      0.600  0.3791E+00  0.3727E+00  0.1255E+01  0.1223E+01
      0.675  0.4655E+00  0.3837E+00  0.1291E+01  0.1252E+01
      0.751  0.5217E+00  0.4910E+00  0.1330E+01  0.1289E+01
      0.827  0.4834E+00  0.5496E+00  0.1367E+01  0.1331E+01
      0.902  0.4967E+00  0.4703E+00  0.1404E+01  0.1366E+01
      0.978  0.5529E+00  0.4741E+00  0.1446E+01  0.1402E+01
      1.054  0.6346E+00  0.5871E+00  0.1494E+01  0.1447E+01
      1.129  0.6606E+00  0.6998E+00  0.1544E+01  0.1500E+01
      1.205  0.6401E+00  0.6826E+00  0.1593E+01  0.1551E+01
      1.281  0.7081E+00  0.6233E+00  0.1647E+01  0.1599E+01
      1.357  0.7004E+00  0.6130E+00  0.1700E+01  0.1645E+01
      1.432  0.5882E+00  0.6617E+00  0.1744E+01  0.1695E+01
      1.508  0.5010E+00  0.5807E+00  0.1782E+01  0.1739E+01
      1.584  0.5576E+00  0.5245E+00  0.1824E+01  0.1779E+01
      1.659  0.7120E+00  0.5867E+00  0.1878E+01  0.1823E+01
      1.735  0.7137E+00  0.6049E+00  0.1932E+01  0.1869E+01
      1.811  0.6295E+00  0.5955E+00  0.1980E+01  0.1914E+01
      1.886  0.6334E+00  0.5711E+00  0.2028E+01  0.1958E+01
      1.962  0.7378E+00  0.5480E+00  0.2084E+01  0.1999E+01
      2.038  0.7635E+00  0.6175E+00  0.2142E+01  0.2046E+01
      2.113  0.7101E+00  0.7211E+00  0.2195E+01  0.2100E+01
      2.189  0.6613E+00  0.7034E+00  0.2246E+01  0.2154E+01
      2.265  0.6333E+00  0.6296E+00  0.2294E+01  0.2201E+01
      2.340  0.6586E+00  0.5271E+00  0.2343E+01  0.2241E+01
      2.416  0.6569E+00  0.4837E+00  0.2393E+01  0.2278E+01
      2.492  0.5837E+00  0.5837E+00  0.2437E+01  0.2322E+01
      2.568  0.5631E+00  0.6116E+00  0.2480E+01  0.2369E+01
      2.643  0.6266E+00  0.5705E+00  0.2528E+01  0.2412E+01
      2.719  0.6757E+00  0.5187E+00  0.2579E+01  0.2451E+01
      2.795  0.6909E+00  0.5489E+00  0.2631E+01  0.2493E+01
      2.870  0.6731E+00  0.5365E+00  0.2682E+01  0.2533E+01
      2.946  0.7277E+00  0.5403E+00  0.2737E+01  0.2574E+01
      3.022  0.8537E+00  0.5597E+00  0.2802E+01  0.2617E+01
      3.097  0.9222E+00  0.6316E+00  0.2872E+01  0.2664E+01
      3.173  0.7960E+00  0.7099E+00  0.2932E+01  0.2718E+01
      3.249  0.7073E+00  0.8319E+00  0.2986E+01  0.2781E+01
      3.324  0.7740E+00  0.8359E+00  0.3044E+01  0.2845E+01
      3.400  0.9329E+00  0.6916E+00  0.3115E+01  0.2897E+01
      3.476  0.1037E+01  0.6081E+00  0.3193E+01  0.2943E+01
      3.552  0.9753E+00  0.6112E+00  0.3267E+01  0.2989E+01
      3.627  0.9816E+00  0.6422E+00  0.3342E+01  0.3038E+01
      3.703  0.1131E+01  0.7610E+00  0.3427E+01  0.3096E+01
      3.779  0.1222E+01  0.8889E+00  0.3520E+01  0.3163E+01
      3.854  0.1247E+01  0.8533E+00  0.3614E+01  0.3228E+01
      3.930  0.1274E+01  0.7756E+00  0.3711E+01  0.3286E+01
      4.006  0.1308E+01  0.8660E+00  0.3810E+01  0.3352E+01
      4.081  0.1510E+01  0.1025E+01  0.3924E+01  0.3429E+01
      4.157  0.1795E+01  0.9166E+00  0.4060E+01  0.3499E+01
      4.233  0.1843E+01  0.7871E+00  0.4200E+01  0.3559E+01
      4.308  0.1817E+01  0.7653E+00  0.4337E+01  0.3616E+01
      4.384  0.1933E+01  0.7829E+00  0.4484E+01  0.3676E+01
      4.460  0.2214E+01  0.9265E+00  0.4651E+01  0.3746E+01
      4.536  0.2214E+01  0.1141E+01  0.4819E+01  0.3832E+01
      4.611  0.2001E+01  0.1066E+01  0.4970E+01  0.3913E+01
      4.687  0.1954E+01  0.8397E+00  0.5118E+01  0.3977E+01
      4.763  0.1888E+01  0.8090E+00  0.5261E+01  0.4038E+01
      4.838  0.1637E+01  0.1036E+01  0.5386E+01  0.4116E+01
      4.914  0.1470E+01  0.1217E+01  0.5497E+01  0.4209E+01
      4.990  0.1339E+01  0.1089E+01  0.5598E+01  0.4291E+01
      5.065  0.1284E+01  0.1009E+01  0.5696E+01  0.4368E+01
      5.141  0.1251E+01  0.1120E+01  0.5790E+01  0.4452E+01
      5.217  0.1255E+01  0.1197E+01  0.5886E+01  0.4543E+01
      5.292  0.1195E+01  0.1172E+01  0.5976E+01  0.4632E+01
      5.368  0.1068E+01  0.1239E+01  0.6057E+01  0.4726E+01
      5.444  0.1216E+01  0.1294E+01  0.6149E+01  0.4824E+01
      5.519  0.1546E+01  0.1227E+01  0.6266E+01  0.4917E+01
      5.595  0.1982E+01  0.1076E+01  0.6416E+01  0.4998E+01
      5.671  0.2828E+01  0.9090E+00  0.6631E+01  0.5067E+01
      5.747  0.4200E+01  0.8996E+00  0.6948E+01  0.5135E+01
      5.822  0.4923E+01  0.1117E+01  0.7321E+01  0.5220E+01
      5.898  0.4016E+01  0.1078E+01  0.7625E+01  0.5301E+01
      5.974  0.2830E+01  0.9458E+00  0.7840E+01  0.5373E+01
      6.049  0.2187E+01  0.8708E+00  0.8005E+01  0.5439E+01
      6.125  0.1860E+01  0.6809E+00  0.8146E+01  0.5491E+01
      6.201  0.1643E+01  0.6146E+00  0.8271E+01  0.5537E+01
      6.276  0.1320E+01  0.7308E+00  0.8371E+01  0.5593E+01
      6.352  0.1117E+01  0.7824E+00  0.8456E+01  0.5652E+01
      6.428  0.1154E+01  0.7873E+00  0.8543E+01  0.5712E+01
      6.503  0.1160E+01  0.8046E+00  0.8631E+01  0.5773E+01
      6.579  0.9927E+00  0.8366E+00  0.8707E+01  0.5836E+01
      6.655  0.7324E+00  0.8551E+00  0.8762E+01  0.5901E+01
      6.731  0.6140E+00  0.8602E+00  0.8809E+01  0.5966E+01
      6.806  0.8561E+00  0.7864E+00  0.8873E+01  0.6025E+01
      6.882  0.1077E+01  0.7729E+00  0.8955E+01  0.6084E+01
      6.958  0.1049E+01  0.7925E+00  0.9035E+01  0.6144E+01
      7.033  0.8829E+00  0.8175E+00  0.9101E+01  0.6206E+01
      7.109  0.8450E+00  0.8458E+00  0.9165E+01  0.6270E+01
      7.185  0.1031E+01  0.9161E+00  0.9243E+01  0.6339E+01
      7.260  0.1248E+01  0.1069E+01  0.9338E+01  0.6420E+01
      7.336  0.1402E+01  0.1311E+01  0.9444E+01  0.6520E+01
      7.412  0.1508E+01  0.1391E+01  0.9558E+01  0.6625E+01
      7.487  0.1678E+01  0.1464E+01  0.9685E+01  0.6736E+01
      7.563  0.1442E+01  0.1671E+01  0.9795E+01  0.6862E+01
      7.639  0.1046E+01  0.1632E+01  0.9874E+01  0.6986E+01
      7.714  0.9250E+00  0.1562E+01  0.9944E+01  0.7104E+01
      7.790  0.9757E+00  0.1516E+01  0.1002E+02  0.7219E+01
      7.866  0.1007E+01  0.1491E+01  0.1009E+02  0.7332E+01
      7.942  0.9673E+00  0.1796E+01  0.1017E+02  0.7468E+01
      8.017  0.1038E+01  0.2321E+01  0.1025E+02  0.7644E+01
      8.093  0.1245E+01  0.2675E+01  0.1034E+02  0.7846E+01
      8.169  0.1330E+01  0.2795E+01  0.1044E+02  0.8058E+01
      8.244  0.1229E+01  0.2364E+01  0.1053E+02  0.8237E+01
      8.320  0.1018E+01  0.1890E+01  0.1061E+02  0.8380E+01
      8.396  0.9421E+00  0.2121E+01  0.1068E+02  0.8541E+01
      8.471  0.1054E+01  0.2722E+01  0.1076E+02  0.8747E+01
      8.547  0.1182E+01  0.3061E+01  0.1085E+02  0.8979E+01
      8.623  0.1180E+01  0.2927E+01  0.1094E+02  0.9201E+01
      8.698  0.1001E+01  0.2415E+01  0.1102E+02  0.9384E+01
      8.774  0.8456E+00  0.2050E+01  0.1108E+02  0.9539E+01
      8.850  0.8299E+00  0.1930E+01  0.1114E+02  0.9685E+01
      8.926  0.8391E+00  0.1798E+01  0.1121E+02  0.9822E+01
      9.001  0.8637E+00  0.1705E+01  0.1127E+02  0.9951E+01
      9.077  0.7941E+00  0.1541E+01  0.1133E+02  0.1007E+02
      9.153  0.8535E+00  0.1503E+01  0.1140E+02  0.1018E+02
      9.228  0.1062E+01  0.1827E+01  0.1148E+02  0.1032E+02
      9.304  0.1143E+01  0.2013E+01  0.1157E+02  0.1047E+02
      9.380  0.1048E+01  0.1950E+01  0.1164E+02  0.1062E+02
      9.455  0.1118E+01  0.1841E+01  0.1173E+02  0.1076E+02
      9.531  0.1245E+01  0.1730E+01  0.1182E+02  0.1089E+02
      9.607  0.1101E+01  0.1618E+01  0.1191E+02  0.1101E+02
      9.682  0.7715E+00  0.1558E+01  0.1197E+02  0.1113E+02
      9.758  0.5526E+00  0.1731E+01  0.1201E+02  0.1126E+02
      9.834  0.5675E+00  0.1764E+01  0.1205E+02  0.1140E+02
      9.909  0.7256E+00  0.1480E+01  0.1211E+02  0.1151E+02
      9.985  0.8865E+00  0.1285E+01  0.1217E+02  0.1161E+02
     10.061  0.1041E+01  0.1144E+01  0.1225E+02  0.1169E+02
     10.137  0.1083E+01  0.1022E+01  0.1233E+02  0.1177E+02
     10.212  0.1083E+01  0.1019E+01  0.1242E+02  0.1185E+02
     10.288  0.9586E+00  0.1036E+01  0.1249E+02  0.1193E+02
     10.364  0.9668E+00  0.9907E+00  0.1256E+02  0.1200E+02
     10.439  0.9698E+00  0.9474E+00  0.1263E+02  0.1207E+02
     10.515  0.9550E+00  0.9779E+00  0.1271E+02  0.1215E+02
     10.591  0.9269E+00  0.1157E+01  0.1278E+02  0.1223E+02
     10.666  0.8031E+00  0.1245E+01  0.1284E+02  0.1233E+02
     10.742  0.8395E+00  0.1203E+01  0.1290E+02  0.1242E+02
     10.818  0.1015E+01  0.1132E+01  0.1298E+02  0.1250E+02
     10.893  0.1159E+01  0.1019E+01  0.1307E+02  0.1258E+02
     10.969  0.1200E+01  0.9539E+00  0.1316E+02  0.1265E+02
     11.045  0.1071E+01  0.9040E+00  0.1324E+02  0.1272E+02
     11.121  0.1016E+01  0.8433E+00  0.1332E+02  0.1279E+02
     11.196  0.1038E+01  0.8093E+00  0.1339E+02  0.1285E+02
     11.272  0.1107E+01  0.7430E+00  0.1348E+02  0.1290E+02
     11.348  0.1094E+01  0.7569E+00  0.1356E+02  0.1296E+02
     11.423  0.9522E+00  0.9802E+00  0.1363E+02  0.1304E+02
     11.499  0.9694E+00  0.1207E+01  0.1371E+02  0.1313E+02
     11.575  0.1103E+01  0.1416E+01  0.1379E+02  0.1323E+02
     11.650  0.1184E+01  0.1706E+01  0.1388E+02  0.1336E+02
     11.726  0.1094E+01  0.1684E+01  0.1396E+02  0.1349E+02
     11.802  0.1009E+01  0.1527E+01  0.1404E+02  0.1361E+02
     11.877  0.1001E+01  0.1254E+01  0.1411E+02  0.1370E+02
     11.953  0.9228E+00  0.1007E+01  0.1418E+02  0.1378E+02
     12.029  0.8607E+00  0.1115E+01  0.1425E+02  0.1386E+02
     12.105  0.9122E+00  0.1212E+01  0.1432E+02  0.1395E+02
     12.180  0.9496E+00  0.1200E+01  0.1439E+02  0.1405E+02
     12.256  0.1033E+01  0.1312E+01  0.1447E+02  0.1414E+02
     12.332  0.1286E+01  0.1413E+01  0.1457E+02  0.1425E+02
     12.407  0.1330E+01  0.1351E+01  0.1467E+02  0.1435E+02
     12.483  0.1216E+01  0.1178E+01  0.1476E+02  0.1444E+02
     12.559  0.1089E+01  0.9322E+00  0.1484E+02  0.1451E+02
     12.634  0.1105E+01  0.9129E+00  0.1493E+02  0.1458E+02
     12.710  0.1096E+01  0.1062E+01  0.1501E+02  0.1466E+02
     12.786  0.8741E+00  0.1219E+01  0.1507E+02  0.1476E+02
     12.861  0.7503E+00  0.1420E+01  0.1513E+02  0.1486E+02
     12.937  0.7912E+00  0.1552E+01  0.1519E+02  0.1498E+02
     13.013  0.8038E+00  0.1290E+01  0.1525E+02  0.1508E+02
     13.088  0.7527E+00  0.9879E+00  0.1531E+02  0.1515E+02
     13.164  0.6775E+00  0.8894E+00  0.1536E+02  0.1522E+02
     13.240  0.5340E+00  0.8587E+00  0.1540E+02  0.1529E+02
     13.316  0.4742E+00  0.7666E+00  0.1544E+02  0.1534E+02
     13.391  0.4713E+00  0.6585E+00  0.1547E+02  0.1539E+02
     13.467  0.4756E+00  0.5438E+00  0.1551E+02  0.1544E+02
     13.543  0.4906E+00  0.4862E+00  0.1555E+02  0.1547E+02
     13.618  0.4514E+00  0.4856E+00  0.1558E+02  0.1551E+02
     13.694  0.3432E+00  0.5142E+00  0.1561E+02  0.1555E+02
     13.770  0.2609E+00  0.5057E+00  0.1563E+02  0.1559E+02
     13.845  0.3017E+00  0.5212E+00  0.1565E+02  0.1563E+02
     13.921  0.3359E+00  0.4981E+00  0.1567E+02  0.1566E+02
     13.997  0.2615E+00  0.3701E+00  0.1569E+02  0.1569E+02
     14.072  0.2040E+00  0.2577E+00  0.1571E+02  0.1571E+02
     14.148  0.2079E+00  0.2349E+00  0.1573E+02  0.1573E+02
     14.224  0.2216E+00  0.2074E+00  0.1574E+02  0.1574E+02
     14.300  0.1425E+00  0.1304E+00  0.1575E+02  0.1575E+02
     14.375  0.7821E-01  0.1081E+00  0.1576E+02  0.1576E+02
     14.451  0.9268E-01  0.1287E+00  0.1577E+02  0.1577E+02
     14.527  0.1344E+00  0.1443E+00  0.1578E+02  0.1578E+02
     14.602  0.1419E+00  0.1804E+00  0.1579E+02  0.1580E+02
     14.678  0.1920E+00  0.2008E+00  0.1580E+02  0.1581E+02
     14.754  0.2396E+00  0.1712E+00  0.1582E+02  0.1583E+02
     14.829  0.1577E+00  0.1199E+00  0.1583E+02  0.1583E+02
     14.905  0.6581E-01  0.1054E+00  0.1584E+02  0.1584E+02
     14.981  0.6529E-01  0.1737E+00  0.1584E+02  0.1586E+02
     15.056  0.1351E+00  0.1831E+00  0.1585E+02  0.1587E+02
     15.132  0.1736E+00  0.1214E+00  0.1586E+02  0.1588E+02
     15.208  0.1429E+00  0.1339E+00  0.1588E+02  0.1589E+02
     15.283  0.1348E+00  0.1837E+00  0.1589E+02  0.1590E+02
     15.359  0.1684E+00  0.1652E+00  0.1590E+02  0.1591E+02
     15.435  0.1724E+00  0.1052E+00  0.1591E+02  0.1592E+02
     15.511  0.1376E+00  0.6759E-01  0.1592E+02  0.1593E+02
     15.586  0.8080E-01  0.3167E-01  0.1593E+02  0.1593E+02
     15.662  0.3026E-01  0.2370E-01  0.1593E+02  0.1593E+02
     15.738  0.1424E-01  0.4600E-01  0.1593E+02  0.1594E+02
     15.813  0.2815E-01  0.8652E-01  0.1593E+02  0.1594E+02
     15.889  0.6909E-01  0.1207E+00  0.1594E+02  0.1595E+02
     15.965  0.9901E-01  0.1164E+00  0.1595E+02  0.1596E+02
     16.040  0.1167E+00  0.6458E-01  0.1596E+02  0.1597E+02
     16.116  0.1018E+00  0.2154E-01  0.1596E+02  0.1597E+02
     16.192  0.4402E-01  0.9444E-02  0.1597E+02  0.1597E+02
     16.267  0.1290E-01  0.1819E-01  0.1597E+02  0.1597E+02
     16.343  0.7131E-02  0.4387E-01  0.1597E+02  0.1597E+02
     16.419  0.1777E-01  0.4849E-01  0.1597E+02  0.1598E+02
     16.495  0.4354E-01  0.2281E-01  0.1597E+02  0.1598E+02
     16.570  0.4833E-01  0.1029E-01  0.1598E+02  0.1598E+02
     16.646  0.2289E-01  0.1815E-01  0.1598E+02  0.1598E+02
     16.722  0.1019E-01  0.4354E-01  0.1598E+02  0.1598E+02
     16.797  0.1763E-01  0.4866E-01  0.1598E+02  0.1599E+02
     16.873  0.4287E-01  0.2263E-01  0.1598E+02  0.1599E+02
     16.949  0.4913E-01  0.7848E-02  0.1599E+02  0.1599E+02
     17.024  0.2327E-01  0.8704E-02  0.1599E+02  0.1599E+02
     17.100  0.8024E-02  0.2469E-01  0.1599E+02  0.1599E+02
     17.176  0.8566E-02  0.4635E-01  0.1599E+02  0.1600E+02
     17.251  0.2435E-01  0.4033E-01  0.1599E+02  0.1600E+02
     17.327  0.4664E-01  0.1746E-01  0.1600E+02  0.1600E+02
     17.403  0.4079E-01  0.4846E-02  0.1600E+02  0.1600E+02
     17.478  0.1741E-01  0.1132E-02  0.1600E+02  0.1600E+02
     17.554  0.4781E-02  0.1600E-03  0.1600E+02  0.1600E+02
     17.630  0.1113E-02  0.0000E+00  0.1600E+02  0.1600E+02
     17.706  0.1519E-03  0.0000E+00  0.1600E+02  0.1600E+02
     17.781  0.0000E+00  0.0000E+00  0.1600E+02  0.1600E+02
     17.857  0.0000E+00  0.0000E+00  0.1600E+02  0.1600E+02
     17.933  0.0000E+00  0.0000E+00  0.1600E+02  0.1600E+02
     18.008  0.0000E+00  0.0000E+00  0.1600E+02  0.1600E+02
     18.084  0.0000E+00  0.0000E+00  0.1600E+02  0.1600E+02
     18.160  0.0000E+00  0.0000E+00  0.1600E+02  0.1600E+02
     18.235  0.0000E+00  0.0000E+00  0.1600E+02  0.1600E+02
     18.311  0.0000E+00  0.0000E+00  0.1600E+02  0.1600E+02
     18.387  0.0000E+00  0.0000E+00  0.1600E+02  0.1600E+02
     18.38677299     -4.32023087  301      6.86121184      1.00000000
     -4.320  0.0000E+00  0.0000E+00  0.0000E+00  0.0000E+00  0.0000E+00  0.0000E+00  0.0000E+00  0.0000E+00  0.0000E+00  0.0000E+00  0.0000E+00  0.0000E+00  0.0000E+00  0.0000E+00  0.0000E+00  0.0000E+00  0.0000E+00  0.0000E+00
     -4.245  0.0000E+00  0.0000E+00  0.0000E+00  0.0000E+00  0.0000E+00  0.0000E+00  0.0000E+00  0.0000E+00  0.0000E+00  0.0000E+00  0.0000E+00  0.0000E+00  0.0000E+00  0.0000E+00  0.0000E+00  0.0000E+00  0.0000E+00  0.0000E+00
     -4.169  0.0000E+00  0.0000E+00  0.0000E+00  0.0000E+00  0.0000E+00  0.0000E+00  0.0000E+00  0.0000E+00  0.0000E+00  0.0000E+00  0.0000E+00  0.0000E+00  0.0000E+00  0.0000E+00  0.0000E+00  0.0000E+00  0.0000E+00  0.0000E+00
     -4.093  0.0000E+00  0.0000E+00  0.0000E+00  0.0000E+00  0.0000E+00  0.0000E+00  0.0000E+00  0.0000E+00  0.0000E+00  0.0000E+00  0.0000E+00  0.0000E+00  0.0000E+00  0.0000E+00  0.0000E+00  0.0000E+00  0.0000E+00  0.0000E+00
     -4.017  0.0000E+00  0.0000E+00  0.0000E+00  0.0000E+00  0.0000E+00  0.0000E+00  0.0000E+00  0.0000E+00  0.0000E+00  0.0000E+00  0.0000E+00  0.0000E+00  0.0000E+00  0.0000E+00  0.0000E+00  0.0000E+00  0.0000E+00  0.0000E+00
     -3.942  0.0000E+00  0.0000E+00  0.0000E+00  0.0000E+00  0.0000E+00  0.0000E+00  0.0000E+00  0.0000E+00  0.0000E+00  0.0000E+00  0.0000E+00  0.0000E+00  0.0000E+00  0.0000E+00  0.0000E+00  0.0000E+00  0.0000E+00  0.0000E+00
     -3.866  0.0000E+00  0.0000E+00  0.0000E+00  0.0000E+00  0.0000E+00  0.0000E+00  0.0000E+00  0.0000E+00  0.0000E+00  0.0000E+00  0.0000E+00  0.0000E+00  0.0000E+00  0.0000E+00  0.0000E+00  0.0000E+00  0.0000E+00  0.0000E+00
     -3.790  0.0000E+00  0.0000E+00  0.0000E+00  0.0000E+00  0.0000E+00  0.0000E+00  0.0000E+00  0.0000E+00  0.0000E+00  0.0000E+00  0.0000E+00  0.0000E+00  0.0000E+00  0.0000E+00  0.0000E+00  0.0000E+00  0.0000E+00  0.0000E+00
     -3.715  0.1039E-06  0.3276E-07  0.7914E-18  0.1077E-20  0.7914E-18  0.1077E-20  0.6232E-18  0.3230E-20  0.2585E-14  0.1837E-16  0.4700E-15  0.3631E-16  0.1343E-15  0.6769E-15  0.2585E-14  0.1837E-16  0.1765E-15  0.8474E-15
     -3.639  0.2018E-05  0.4271E-06  0.6605E-08  0.9617E-09  0.6605E-08  0.9617E-09  0.6603E-08  0.9613E-09  0.3116E-10  0.5013E-15  0.3116E-10  0.1188E-14  0.1801E-10  0.2275E-11  0.3116E-10  0.5013E-15  0.1873E-10  0.2917E-11
     -3.563  0.8215E-05  0.2615E-05  0.2945E-07  0.9532E-08  0.2945E-07  0.9532E-08  0.2944E-07  0.9530E-08  0.2104E-09  0.4260E-10  0.2103E-09  0.4259E-10  0.6378E-10  0.1735E-10  0.2104E-09  0.4260E-10  0.6630E-10  0.1754E-10
     -3.488  0.3836E-04  0.1218E-04  0.1541E-06  0.5045E-07  0.1541E-06  0.5045E-07  0.1540E-06  0.5043E-07  0.1085E-08  0.2903E-09  0.1088E-08  0.2901E-09  0.5842E-09  0.1024E-09  0.1085E-08  0.2903E-09  0.6602E-09  0.1148E-09
     -3.412  0.1692E-03  0.5517E-04  0.6972E-06  0.2429E-06  0.6972E-06  0.2429E-06  0.6968E-06  0.2428E-06  0.5502E-08  0.1503E-08  0.5515E-08  0.1503E-08  0.2503E-08  0.6132E-09  0.5502E-08  0.1503E-08  0.2827E-08  0.6899E-09
     -3.336  0.6849E-03  0.2399E-03  0.2987E-05  0.1106E-05  0.2987E-05  0.1106E-05  0.2985E-05  0.1106E-05  0.2405E-07  0.7620E-08  0.2410E-07  0.7619E-08  0.1084E-07  0.2748E-08  0.2405E-07  0.7620E-08  0.1217E-07  0.3114E-08
     -3.261  0.2195E-02  0.9114E-03  0.1126E-04  0.4581E-05  0.1126E-04  0.4581E-05  0.1125E-04  0.4579E-05  0.1012E-06  0.3277E-07  0.1014E-06  0.3277E-07  0.4289E-07  0.1159E-07  0.1012E-06  0.3277E-07  0.4815E-07  0.1304E-07
     -3.185  0.4700E-02  0.2561E-02  0.3167E-04  0.1582E-04  0.3167E-04  0.1582E-04  0.3166E-04  0.1581E-04  0.3444E-06  0.1311E-06  0.3456E-06  0.1311E-06  0.1440E-06  0.4381E-07  0.3444E-06  0.1311E-06  0.1648E-06  0.4953E-07
     -3.109  0.6875E-02  0.4676E-02  0.6687E-04  0.3944E-04  0.6687E-04  0.3944E-04  0.6682E-04  0.3942E-04  0.9060E-06  0.4021E-06  0.9107E-06  0.4021E-06  0.4247E-06  0.1386E-06  0.9060E-06  0.4021E-06  0.5028E-06  0.1612E-06
     -3.034  0.9189E-02  0.6411E-02  0.1254E-03  0.7930E-04  0.1254E-03  0.7930E-04  0.1253E-03  0.7924E-04  0.2154E-05  0.1008E-05  0.2166E-05  0.1009E-05  0.9948E-06  0.3872E-06  0.2154E-05  0.1008E-05  0.1185E-05  0.4614E-06
     -2.958  0.1087E-01  0.8435E-02  0.1833E-03  0.1386E-03  0.1833E-03  0.1386E-03  0.1833E-03  0.1386E-03  0.4106E-05  0.2259E-05  0.4120E-05  0.2260E-05  0.1542E-05  0.7689E-06  0.4106E-05  0.2259E-05  0.1804E-05  0.9120E-06
     -2.882  0.1053E-01  0.8929E-02  0.2273E-03  0.1813E-03  0.2273E-03  0.1813E-03  0.2271E-03  0.1812E-03  0.6564E-05  0.3863E-05  0.6575E-05  0.3864E-05  0.2402E-05  0.1109E-05  0.6564E-05  0.3863E-05  0.2725E-05  0.1279E-05
     -2.806  0.1255E-01  0.9178E-02  0.3407E-03  0.2441E-03  0.3407E-03  0.2441E-03  0.3403E-03  0.2438E-03  0.1087E-04  0.6348E-05  0.1087E-04  0.6350E-05  0.4838E-05  0.1996E-05  0.1087E-04  0.6348E-05  0.5622E-05  0.2275E-05
     -2.731  0.1443E-01  0.1132E-01  0.4496E-03  0.3622E-03  0.4496E-03  0.3622E-03  0.4494E-03  0.3619E-03  0.1524E-04  0.9859E-05  0.1524E-04  0.9860E-05  0.7622E-05  0.3785E-05  0.1524E-04  0.9859E-05  0.9147E-05  0.4475E-05
     -2.655  0.1405E-01  0.1183E-01  0.5031E-03  0.4331E-03  0.5031E-03  0.4331E-03  0.5032E-03  0.4331E-03  0.2210E-04  0.1359E-04  0.2212E-04  0.1359E-04  0.8488E-05  0.4976E-05  0.2210E-04  0.1359E-04  0.1003E-04  0.5972E-05
     -2.579  0.1473E-01  0.1163E-01  0.6069E-03  0.4950E-03  0.6069E-03  0.4950E-03  0.6066E-03  0.4949E-03  0.3376E-04  0.2081E-04  0.3378E-04  0.2082E-04  0.9992E-05  0.5427E-05  0.3376E-04  0.2081E-04  0.1131E-04  0.6268E-05
     -2.504  0.1450E-01  0.1231E-01  0.6699E-03  0.5944E-03  0.6699E-03  0.5944E-03  0.6693E-03  0.5941E-03  0.3941E-04  0.2886E-04  0.3940E-04  0.2886E-04  0.1294E-04  0.6836E-05  0.3941E-04  0.2886E-04  0.1497E-04  0.7759E-05
     -2.428  0.1429E-01  0.1144E-01  0.7724E-03  0.6359E-03  0.7724E-03  0.6359E-03  0.7709E-03  0.6350E-03  0.4502E-04  0.3070E-04  0.4506E-04  0.3071E-04  0.1994E-04  0.9388E-05  0.4502E-04  0.3070E-04  0.2402E-04  0.1113E-04
     -2.352  0.1752E-01  0.1297E-01  0.1053E-02  0.8383E-03  0.1053E-02  0.8383E-03  0.1052E-02  0.8370E-03  0.6748E-04  0.4179E-04  0.6756E-04  0.4185E-04  0.2972E-04  0.1495E-04  0.6748E-04  0.4179E-04  0.3541E-04  0.1800E-04
     -2.277  0.1815E-01  0.1476E-01  0.1177E-02  0.1037E-02  0.1177E-02  0.1037E-02  0.1177E-02  0.1036E-02  0.8876E-04  0.5956E-04  0.8882E-04  0.5962E-04  0.3300E-04  0.1876E-04  0.8876E-04  0.5956E-04  0.3810E-04  0.2196E-04
     -2.201  0.1747E-01  0.1441E-01  0.1235E-02  0.1103E-02  0.1235E-02  0.1103E-02  0.1235E-02  0.1103E-02  0.1082E-03  0.7434E-04  0.1082E-03  0.7434E-04  0.3394E-04  0.1968E-04  0.1082E-03  0.7434E-04  0.3907E-04  0.2259E-04
     -2.125  0.1528E-01  0.1335E-01  0.1168E-02  0.1110E-02  0.1168E-02  0.1110E-02  0.1169E-02  0.1110E-02  0.1185E-03  0.8602E-04  0.1185E-03  0.8596E-04  0.3018E-04  0.1886E-04  0.1185E-03  0.8602E-04  0.3497E-04  0.2182E-04
     -2.050  0.1387E-01  0.1131E-01  0.1214E-02  0.1054E-02  0.1214E-02  0.1054E-02  0.1211E-02  0.1052E-02  0.1321E-03  0.9103E-04  0.1323E-03  0.9106E-04  0.3552E-04  0.1795E-04  0.1321E-03  0.9103E-04  0.4139E-04  0.2092E-04
     -1.974  0.1755E-01  0.1268E-01  0.1744E-02  0.1387E-02  0.1744E-02  0.1387E-02  0.1739E-02  0.1382E-02  0.1836E-03  0.1176E-03  0.1838E-03  0.1177E-03  0.6235E-04  0.2873E-04  0.1836E-03  0.1176E-03  0.7284E-04  0.3361E-04
     -1.898  0.1969E-01  0.1552E-01  0.2111E-02  0.1871E-02  0.2111E-02  0.1871E-02  0.2110E-02  0.1868E-02  0.2248E-03  0.1566E-03  0.2247E-03  0.1566E-03  0.8050E-04  0.4263E-04  0.2248E-03  0.1566E-03  0.9506E-04  0.5004E-04
     -1.822  0.1831E-01  0.1477E-01  0.2122E-02  0.1925E-02  0.2122E-02  0.1925E-02  0.2122E-02  0.1925E-02  0.2559E-03  0.1761E-03  0.2559E-03  0.1761E-03  0.7899E-04  0.4330E-04  0.2559E-03  0.1761E-03  0.9423E-04  0.5139E-04
     -1.747  0.1766E-01  0.1423E-01  0.2204E-02  0.2019E-02  0.2204E-02  0.2019E-02  0.2205E-02  0.2018E-02  0.2961E-03  0.2099E-03  0.2962E-03  0.2100E-03  0.8131E-04  0.4379E-04  0.2961E-03  0.2099E-03  0.9658E-04  0.5210E-04
     -1.671  0.1423E-01  0.1202E-01  0.1932E-02  0.1857E-02  0.1932E-02  0.1857E-02  0.1933E-02  0.1858E-02  0.2943E-03  0.2108E-03  0.2945E-03  0.2108E-03  0.7092E-04  0.3995E-04  0.2943E-03  0.2108E-03  0.8164E-04  0.4670E-04
     -1.595  0.1495E-01  0.1096E-01  0.2312E-02  0.1985E-02  0.2312E-02  0.1985E-02  0.2304E-02  0.1978E-02  0.4068E-03  0.2546E-03  0.4073E-03  0.2551E-03  0.7797E-04  0.3934E-04  0.4068E-03  0.2546E-03  0.8635E-04  0.4403E-04
     -1.520  0.1784E-01  0.1350E-01  0.3225E-02  0.2913E-02  0.3225E-02  0.2913E-02  0.3211E-02  0.2900E-02  0.5503E-03  0.3721E-03  0.5502E-03  0.3724E-03  0.1021E-03  0.5202E-04  0.5503E-03  0.3721E-03  0.1148E-03  0.5823E-04
     -1.444  0.1643E-01  0.1333E-01  0.3607E-02  0.3418E-02  0.3607E-02  0.3418E-02  0.3601E-02  0.3414E-02  0.5642E-03  0.4164E-03  0.5637E-03  0.4162E-03  0.1087E-03  0.5611E-04  0.5642E-03  0.4164E-03  0.1254E-03  0.6400E-04
     -1.368  0.1339E-01  0.1065E-01  0.3513E-02  0.3250E-02  0.3513E-02  0.3250E-02  0.3511E-02  0.3249E-02  0.5687E-03  0.4135E-03  0.5690E-03  0.4136E-03  0.1005E-03  0.4904E-04  0.5687E-03  0.4135E-03  0.1180E-03  0.5673E-04
     -1.293  0.1193E-01  0.9003E-02  0.3602E-02  0.3231E-02  0.3602E-02  0.3231E-02  0.3601E-02  0.3232E-02  0.6584E-03  0.4526E-03  0.6594E-03  0.4530E-03  0.9988E-04  0.4644E-04  0.6584E-03  0.4526E-03  0.1166E-03  0.5400E-04
     -1.217  0.1248E-01  0.8523E-02  0.3697E-02  0.3075E-02  0.3697E-02  0.3075E-02  0.3703E-02  0.3081E-02  0.8647E-03  0.5401E-03  0.8664E-03  0.5411E-03  0.1010E-03  0.4404E-04  0.8647E-03  0.5401E-03  0.1115E-03  0.4872E-04
     -1.141  0.1390E-01  0.1013E-01  0.4034E-02  0.3523E-02  0.4034E-02  0.3523E-02  0.4030E-02  0.3518E-02  0.1148E-02  0.7673E-03  0.1150E-02  0.7684E-03  0.1070E-03  0.4966E-04  0.1148E-02  0.7673E-03  0.1142E-03  0.5239E-04
     -1.066  0.1247E-01  0.9663E-02  0.4129E-02  0.3751E-02  0.4129E-02  0.3751E-02  0.4128E-02  0.3752E-02  0.1252E-02  0.8701E-03  0.1252E-02  0.8695E-03  0.1029E-03  0.4951E-04  0.1252E-02  0.8701E-03  0.1119E-03  0.5304E-04
     -0.990  0.9671E-02  0.7450E-02  0.3505E-02  0.3148E-02  0.3505E-02  0.3148E-02  0.3516E-02  0.3158E-02  0.1154E-02  0.7909E-03  0.1152E-02  0.7893E-03  0.8319E-04  0.3925E-04  0.1154E-02  0.7909E-03  0.9056E-04  0.4225E-04
     -0.914  0.6857E-02  0.5240E-02  0.2765E-02  0.2475E-02  0.2765E-02  0.2475E-02  0.2769E-02  0.2480E-02  0.1038E-02  0.6959E-03  0.1037E-02  0.6954E-03  0.6038E-04  0.2828E-04  0.1038E-02  0.6959E-03  0.6570E-04  0.3039E-04
     -0.838  0.7020E-02  0.4664E-02  0.2876E-02  0.2365E-02  0.2876E-02  0.2365E-02  0.2875E-02  0.2366E-02  0.1299E-02  0.7835E-03  0.1303E-02  0.7853E-03  0.6221E-04  0.2540E-04  0.1299E-02  0.7835E-03  0.6487E-04  0.2634E-04
     -0.763  0.9161E-02  0.6255E-02  0.3649E-02  0.3075E-02  0.3649E-02  0.3075E-02  0.3641E-02  0.3067E-02  0.1894E-02  0.1181E-02  0.1899E-02  0.1184E-02  0.9094E-04  0.3509E-04  0.1894E-02  0.1181E-02  0.9140E-04  0.3414E-04
     -0.687  0.8925E-02  0.6352E-02  0.3744E-02  0.3381E-02  0.3744E-02  0.3381E-02  0.3745E-02  0.3382E-02  0.2045E-02  0.1368E-02  0.2042E-02  0.1367E-02  0.1282E-03  0.4048E-04  0.2045E-02  0.1368E-02  0.1387E-03  0.3968E-04
     -0.611  0.8905E-02  0.4618E-02  0.3078E-02  0.2682E-02  0.3078E-02  0.2682E-02  0.3084E-02  0.2688E-02  0.1767E-02  0.1149E-02  0.1763E-02  0.1146E-02  0.2409E-03  0.3976E-04  0.1767E-02  0.1149E-02  0.2899E-03  0.4201E-04
     -0.536  0.1301E-01  0.4270E-02  0.2555E-02  0.2054E-02  0.2555E-02  0.2054E-02  0.2562E-02  0.2062E-02  0.1517E-02  0.9551E-03  0.1513E-02  0.9522E-03  0.5362E-03  0.6758E-04  0.1517E-02  0.9551E-03  0.6732E-03  0.8006E-04