   4   4   1   0
  0.1116201E+02  0.3546807E-09  0.3547991E-09  0.3547991E-09  0.5000000E-15
  1.000000000000000E-004
  CAR 
 unknown system                          
     26.31132305     -2.70434704  301     11.49806116      1.00000000
     -2.704  0.0000E+00  0.0000E+00  0.0000E+00  0.0000E+00
     -2.608  0.0000E+00  0.0000E+00  0.0000E+00  0.0000E+00
     -2.511  0.0000E+00  0.0000E+00  0.0000E+00  0.0000E+00
     -2.414  0.0000E+00  0.0000E+00  0.0000E+00  0.0000E+00
     -2.317  0.0000E+00  0.0000E+00  0.0000E+00  0.0000E+00
     -2.221  0.0000E+00  0.0000E+00  0.0000E+00  0.0000E+00
     -2.124  0.0000E+00  0.0000E+00  0.0000E+00  0.0000E+00
     -2.027  0.0000E+00  0.0000E+00  0.0000E+00  0.0000E+00
     -1.931  0.0000E+00  0.0000E+00  0.0000E+00  0.0000E+00
     -1.834  0.5993E-06  0.0000E+00  0.5796E-07  0.0000E+00
     -1.737  0.1239E-04  0.4559E-06  0.1256E-05  0.4410E-07
     -1.640  0.7987E-04  0.7265E-05  0.8981E-05  0.7467E-06
     -1.544  0.5442E-03  0.6339E-04  0.6161E-04  0.6878E-05
     -1.447  0.3426E-02  0.4185E-03  0.3930E-03  0.4735E-04
     -1.350  0.1566E-01  0.2688E-02  0.1908E-02  0.3074E-03
     -1.254  0.4069E-01  0.1311E-01  0.5844E-02  0.1575E-02
     -1.157  0.5844E-01  0.3722E-01  0.1150E-01  0.5175E-02
     -1.060  0.7701E-01  0.5716E-01  0.1894E-01  0.1070E-01
     -0.963  0.1065E+00  0.7349E-01  0.2925E-01  0.1781E-01
     -0.867  0.9103E-01  0.1051E+00  0.3806E-01  0.2798E-01
     -0.770  0.1040E+00  0.9430E-01  0.4812E-01  0.3710E-01
     -0.673  0.1443E+00  0.9968E-01  0.6208E-01  0.4675E-01
     -0.577  0.1402E+00  0.1423E+00  0.7565E-01  0.6052E-01
     -0.480  0.1366E+00  0.1426E+00  0.8886E-01  0.7432E-01
     -0.383  0.1637E+00  0.1353E+00  0.1047E+00  0.8742E-01
     -0.286  0.1306E+00  0.1637E+00  0.1173E+00  0.1033E+00
     -0.190  0.1646E+00  0.1347E+00  0.1333E+00  0.1163E+00
     -0.093  0.2132E+00  0.1590E+00  0.1539E+00  0.1317E+00
      0.004  0.2016E+00  0.2134E+00  0.1735E+00  0.1523E+00
      0.101  0.2066E+00  0.2035E+00  0.1934E+00  0.1720E+00
      0.197  0.1609E+00  0.2078E+00  0.2090E+00  0.1921E+00
      0.294  0.1572E+00  0.1658E+00  0.2242E+00  0.2082E+00
      0.391  0.2506E+00  0.1560E+00  0.2485E+00  0.2233E+00
      0.487  0.2717E+00  0.2486E+00  0.2748E+00  0.2473E+00
      0.584  0.2473E+00  0.2752E+00  0.2987E+00  0.2740E+00
      0.681  0.2659E+00  0.2478E+00  0.3245E+00  0.2980E+00
      0.778  0.1853E+00  0.2688E+00  0.3424E+00  0.3240E+00
      0.874  0.2336E+00  0.1870E+00  0.3650E+00  0.3421E+00
      0.971  0.3233E+00  0.2358E+00  0.3963E+00  0.3650E+00
      1.068  0.3228E+00  0.3355E+00  0.4276E+00  0.3974E+00
      1.164  0.2907E+00  0.3337E+00  0.4557E+00  0.4298E+00
      1.261  0.2934E+00  0.2944E+00  0.4841E+00  0.4582E+00
      1.358  0.3202E+00  0.2981E+00  0.5151E+00  0.4871E+00
      1.455  0.3563E+00  0.3086E+00  0.5496E+00  0.5170E+00
      1.551  0.3540E+00  0.3645E+00  0.5839E+00  0.5523E+00
      1.648  0.2881E+00  0.3574E+00  0.6118E+00  0.5868E+00
      1.745  0.2049E+00  0.2775E+00  0.6316E+00  0.6137E+00
      1.841  0.2440E+00  0.2056E+00  0.6552E+00  0.6336E+00
      1.938  0.3529E+00  0.2413E+00  0.6894E+00  0.6570E+00
      2.035  0.3106E+00  0.3591E+00  0.7195E+00  0.6918E+00
      2.132  0.2546E+00  0.3046E+00  0.7441E+00  0.7212E+00
      2.228  0.2312E+00  0.2370E+00  0.7665E+00  0.7442E+00
      2.325  0.2983E+00  0.1846E+00  0.7954E+00  0.7621E+00
      2.422  0.4358E+00  0.2692E+00  0.8375E+00  0.7882E+00
      2.518  0.4018E+00  0.4413E+00  0.8764E+00  0.8309E+00
      2.615  0.2858E+00  0.3641E+00  0.9041E+00  0.8662E+00
      2.712  0.2216E+00  0.3098E+00  0.9256E+00  0.8961E+00
      2.809  0.3531E+00  0.2315E+00  0.9598E+00  0.9185E+00
      2.905  0.4173E+00  0.3050E+00  0.1000E+01  0.9481E+00
      3.002  0.2829E+00  0.4134E+00  0.1028E+01  0.9881E+00
      3.099  0.2648E+00  0.3070E+00  0.1053E+01  0.1018E+01
      3.196  0.2738E+00  0.2190E+00  0.1080E+01  0.1039E+01
      3.292  0.4218E+00  0.2718E+00  0.1121E+01  0.1065E+01
      3.389  0.4803E+00  0.3604E+00  0.1167E+01  0.1100E+01
      3.486  0.2999E+00  0.4569E+00  0.1196E+01  0.1145E+01
      3.582  0.2746E+00  0.3662E+00  0.1223E+01  0.1180E+01
      3.679  0.2805E+00  0.2663E+00  0.1250E+01  0.1206E+01
      3.776  0.3319E+00  0.2944E+00  0.1282E+01  0.1234E+01
      3.873  0.4318E+00  0.3182E+00  0.1324E+01  0.1265E+01
      3.969  0.3431E+00  0.3523E+00  0.1357E+01  0.1299E+01
      4.066  0.3639E+00  0.3953E+00  0.1392E+01  0.1337E+01
      4.163  0.4235E+00  0.3093E+00  0.1433E+01  0.1367E+01
      4.259  0.4618E+00  0.3973E+00  0.1478E+01  0.1406E+01
      4.356  0.5250E+00  0.4389E+00  0.1529E+01  0.1448E+01
      4.453  0.4428E+00  0.4778E+00  0.1572E+01  0.1495E+01
      4.550  0.4475E+00  0.5075E+00  0.1615E+01  0.1544E+01
      4.646  0.5225E+00  0.4494E+00  0.1665E+01  0.1587E+01
      4.743  0.4804E+00  0.5036E+00  0.1712E+01  0.1636E+01
      4.840  0.5001E+00  0.5323E+00  0.1760E+01  0.1687E+01
      4.936  0.4441E+00  0.4790E+00  0.1803E+01  0.1734E+01
      5.033  0.4000E+00  0.4498E+00  0.1842E+01  0.1777E+01
      5.130  0.5817E+00  0.4135E+00  0.1898E+01  0.1817E+01
      5.227  0.6119E+00  0.4755E+00  0.1958E+01  0.1863E+01
      5.323  0.5192E+00  0.5970E+00  0.2008E+01  0.1921E+01
      5.420  0.6295E+00  0.5183E+00  0.2069E+01  0.1971E+01
      5.517  0.7147E+00  0.4447E+00  0.2138E+01  0.2014E+01
      5.613  0.6032E+00  0.6279E+00  0.2196E+01  0.2075E+01
      5.710  0.5457E+00  0.6331E+00  0.2249E+01  0.2137E+01
      5.807  0.5546E+00  0.5110E+00  0.2303E+01  0.2186E+01
      5.904  0.5902E+00  0.5625E+00  0.2360E+01  0.2240E+01
      6.000  0.5620E+00  0.5612E+00  0.2415E+01  0.2295E+01
      6.097  0.5230E+00  0.5861E+00  0.2465E+01  0.2352E+01
      6.194  0.5588E+00  0.5371E+00  0.2519E+01  0.2404E+01
      6.291  0.6894E+00  0.4635E+00  0.2586E+01  0.2448E+01
      6.387  0.6452E+00  0.3954E+00  0.2649E+01  0.2487E+01
      6.484  0.6224E+00  0.4951E+00  0.2709E+01  0.2535E+01
      6.581  0.6732E+00  0.6858E+00  0.2774E+01  0.2601E+01
      6.677  0.7039E+00  0.6603E+00  0.2842E+01  0.2665E+01
      6.774  0.6640E+00  0.6071E+00  0.2906E+01  0.2724E+01
      6.871  0.7374E+00  0.6229E+00  0.2978E+01  0.2784E+01
      6.968  0.8553E+00  0.6944E+00  0.3060E+01  0.2851E+01
      7.064  0.8175E+00  0.5976E+00  0.3140E+01  0.2909E+01
      7.161  0.8815E+00  0.5835E+00  0.3225E+01  0.2966E+01
      7.258  0.8110E+00  0.7438E+00  0.3303E+01  0.3038E+01
      7.354  0.9322E+00  0.7658E+00  0.3394E+01  0.3112E+01
      7.451  0.1190E+01  0.6887E+00  0.3509E+01  0.3178E+01
      7.548  0.1217E+01  0.7289E+00  0.3627E+01  0.3249E+01
      7.645  0.1003E+01  0.7427E+00  0.3724E+01  0.3321E+01
      7.741  0.1001E+01  0.8748E+00  0.3821E+01  0.3406E+01
      7.838  0.1233E+01  0.1019E+01  0.3940E+01  0.3504E+01
      7.935  0.1292E+01  0.8983E+00  0.4065E+01  0.3591E+01
      8.031  0.1203E+01  0.8337E+00  0.4182E+01  0.3672E+01
      8.128  0.1061E+01  0.8496E+00  0.4284E+01  0.3754E+01
      8.225  0.1118E+01  0.8465E+00  0.4393E+01  0.3836E+01
      8.322  0.1132E+01  0.1043E+01  0.4502E+01  0.3937E+01
      8.418  0.1334E+01  0.1143E+01  0.4631E+01  0.4048E+01
      8.515  0.1442E+01  0.1209E+01  0.4771E+01  0.4165E+01
      8.612  0.1298E+01  0.1117E+01  0.4897E+01  0.4273E+01
      8.708  0.1154E+01  0.7989E+00  0.5008E+01  0.4350E+01
      8.805  0.1210E+01  0.8065E+00  0.5125E+01  0.4428E+01
      8.902  0.1171E+01  0.1239E+01  0.5239E+01  0.4548E+01
      8.999  0.9468E+00  0.1690E+01  0.5331E+01  0.4712E+01
      9.095  0.9387E+00  0.1541E+01  0.5421E+01  0.4861E+01
      9.192  0.8344E+00  0.1211E+01  0.5502E+01  0.4978E+01
      9.289  0.7331E+00  0.9150E+00  0.5573E+01  0.5067E+01
      9.386  0.7427E+00  0.7101E+00  0.5645E+01  0.5136E+01
      9.482  0.8530E+00  0.8948E+00  0.5728E+01  0.5222E+01
      9.579  0.8421E+00  0.8447E+00  0.5809E+01  0.5304E+01
      9.676  0.6832E+00  0.6828E+00  0.5875E+01  0.5370E+01
      9.772  0.6925E+00  0.6558E+00  0.5943E+01  0.5434E+01
      9.869  0.6456E+00  0.6639E+00  0.6005E+01  0.5498E+01
      9.966  0.5898E+00  0.7070E+00  0.6062E+01  0.5566E+01
     10.063  0.6435E+00  0.7097E+00  0.6124E+01  0.5635E+01
     10.159  0.7485E+00  0.6394E+00  0.6197E+01  0.5697E+01
     10.256  0.8768E+00  0.7132E+00  0.6282E+01  0.5766E+01
     10.353  0.8891E+00  0.6693E+00  0.6368E+01  0.5831E+01
     10.449  0.9584E+00  0.4771E+00  0.6461E+01  0.5877E+01
     10.546  0.1161E+01  0.6402E+00  0.6573E+01  0.5939E+01
     10.643  0.1316E+01  0.7583E+00  0.6700E+01  0.6012E+01
     10.740  0.1453E+01  0.5075E+00  0.6841E+01  0.6062E+01
     10.836  0.1734E+01  0.4985E+00  0.7009E+01  0.6110E+01
     10.933  0.2288E+01  0.5075E+00  0.7230E+01  0.6159E+01
     11.030  0.2947E+01  0.5464E+00  0.7515E+01  0.6212E+01
     11.126  0.3051E+01  0.6406E+00  0.7811E+01  0.6274E+01
     11.223  0.2176E+01  0.8393E+00  0.8021E+01  0.6355E+01
     11.320  0.1601E+01  0.9425E+00  0.8176E+01  0.6446E+01
     11.417  0.1187E+01  0.9700E+00  0.8291E+01  0.6540E+01
     11.513  0.1123E+01  0.9533E+00  0.8400E+01  0.6632E+01
     11.610  0.1141E+01  0.1047E+01  0.8511E+01  0.6734E+01
     11.707  0.9175E+00  0.1368E+01  0.8600E+01  0.6866E+01
     11.803  0.8171E+00  0.1230E+01  0.8679E+01  0.6985E+01
     11.900  0.6857E+00  0.8574E+00  0.8745E+01  0.7068E+01
     11.997  0.7464E+00  0.8569E+00  0.8818E+01  0.7151E+01
     12.094  0.6093E+00  0.9541E+00  0.8877E+01  0.7244E+01
     12.190  0.5182E+00  0.9366E+00  0.8927E+01  0.7334E+01
     12.287  0.5609E+00  0.9088E+00  0.8981E+01  0.7422E+01
     12.384  0.5002E+00  0.1382E+01  0.9030E+01  0.7556E+01
     12.481  0.4885E+00  0.1894E+01  0.9077E+01  0.7740E+01
     12.577  0.5119E+00  0.2036E+01  0.9127E+01  0.7937E+01
     12.674  0.5467E+00  0.2213E+01  0.9179E+01  0.8151E+01
     12.771  0.5307E+00  0.2638E+01  0.9231E+01  0.8406E+01
     12.867  0.6232E+00  0.2482E+01  0.9291E+01  0.8646E+01
     12.964  0.7674E+00  0.2058E+01  0.9365E+01  0.8845E+01
     13.061  0.6386E+00  0.1357E+01  0.9427E+01  0.8977E+01
     13.158  0.7140E+00  0.8381E+00  0.9496E+01  0.9058E+01
     13.254  0.9232E+00  0.7280E+00  0.9586E+01  0.9129E+01
     13.351  0.8172E+00  0.6751E+00  0.9665E+01  0.9195E+01
     13.448  0.8564E+00  0.7022E+00  0.9748E+01  0.9263E+01
     13.544  0.8807E+00  0.8822E+00  0.9833E+01  0.9348E+01
     13.641  0.8023E+00  0.9220E+00  0.9911E+01  0.9437E+01
     13.738  0.8122E+00  0.8254E+00  0.9989E+01  0.9517E+01
     13.835  0.9865E+00  0.7499E+00  0.1008E+02  0.9590E+01
     13.931  0.8690E+00  0.7205E+00  0.1017E+02  0.9660E+01
     14.028  0.8226E+00  0.8475E+00  0.1025E+02  0.9742E+01
     14.125  0.8240E+00  0.9544E+00  0.1033E+02  0.9834E+01
     14.221  0.7636E+00  0.7164E+00  0.1040E+02  0.9903E+01
     14.318  0.8023E+00  0.4401E+00  0.1048E+02  0.9946E+01
     14.415  0.6851E+00  0.3758E+00  0.1055E+02  0.9982E+01
     14.512  0.5029E+00  0.5781E+00  0.1060E+02  0.1004E+02
     14.608  0.6165E+00  0.7750E+00  0.1065E+02  0.1011E+02
     14.705  0.8243E+00  0.9773E+00  0.1073E+02  0.1021E+02
     14.802  0.7404E+00  0.1080E+01  0.1081E+02  0.1031E+02
     14.898  0.8137E+00  0.1039E+01  0.1089E+02  0.1041E+02
     14.995  0.8969E+00  0.8957E+00  0.1097E+02  0.1050E+02
     15.092  0.6725E+00  0.9134E+00  0.1104E+02  0.1059E+02
     15.189  0.6896E+00  0.1030E+01  0.1110E+02  0.1069E+02
     15.285  0.1008E+01  0.9330E+00  0.1120E+02  0.1078E+02
     15.382  0.1101E+01  0.9517E+00  0.1131E+02  0.1087E+02
     15.479  0.9697E+00  0.1084E+01  0.1140E+02  0.1098E+02
     15.576  0.1166E+01  0.1161E+01  0.1151E+02  0.1109E+02
     15.672  0.1184E+01  0.1305E+01  0.1163E+02  0.1121E+02
     15.769  0.9602E+00  0.1218E+01  0.1172E+02  0.1133E+02
     15.866  0.7643E+00  0.9738E+00  0.1180E+02  0.1143E+02
     15.962  0.6886E+00  0.9732E+00  0.1186E+02  0.1152E+02
     16.059  0.6353E+00  0.1082E+01  0.1192E+02  0.1163E+02
     16.156  0.6224E+00  0.1049E+01  0.1198E+02  0.1173E+02
     16.253  0.5836E+00  0.8917E+00  0.1204E+02  0.1181E+02
     16.349  0.6188E+00  0.7581E+00  0.1210E+02  0.1189E+02
     16.446  0.6808E+00  0.5317E+00  0.1217E+02  0.1194E+02
     16.543  0.6610E+00  0.5010E+00  0.1223E+02  0.1199E+02
     16.639  0.6525E+00  0.4854E+00  0.1229E+02  0.1203E+02
     16.736  0.9037E+00  0.5020E+00  0.1238E+02  0.1208E+02
     16.833  0.1114E+01  0.5207E+00  0.1249E+02  0.1213E+02
     16.930  0.1022E+01  0.4842E+00  0.1259E+02  0.1218E+02
     17.026  0.8115E+00  0.5289E+00  0.1267E+02  0.1223E+02
     17.123  0.5630E+00  0.7908E+00  0.1272E+02  0.1231E+02
     17.220  0.6019E+00  0.9295E+00  0.1278E+02  0.1240E+02
     17.316  0.7766E+00  0.1003E+01  0.1286E+02  0.1249E+02
     17.413  0.8695E+00  0.9378E+00  0.1294E+02  0.1259E+02
     17.510  0.6800E+00  0.8003E+00  0.1301E+02  0.1266E+02
     17.607  0.5759E+00  0.8580E+00  0.1306E+02  0.1275E+02
     17.703  0.5903E+00  0.9045E+00  0.1312E+02  0.1283E+02
     17.800  0.6869E+00  0.8044E+00  0.1318E+02  0.1291E+02
     17.897  0.8576E+00  0.6182E+00  0.1327E+02  0.1297E+02
     17.993  0.9336E+00  0.5258E+00  0.1336E+02  0.1302E+02
     18.090  0.9922E+00  0.5673E+00  0.1345E+02  0.1308E+02
     18.187  0.8873E+00  0.6533E+00  0.1354E+02  0.1314E+02
     18.284  0.6446E+00  0.8944E+00  0.1360E+02  0.1323E+02
     18.380  0.8133E+00  0.9757E+00  0.1368E+02  0.1332E+02
     18.477  0.9477E+00  0.1082E+01  0.1377E+02  0.1343E+02
     18.574  0.7724E+00  0.1096E+01  0.1385E+02  0.1353E+02
     18.671  0.7525E+00  0.1226E+01  0.1392E+02  0.1365E+02
     18.767  0.9088E+00  0.1174E+01  0.1401E+02  0.1376E+02
     18.864  0.9921E+00  0.9151E+00  0.1410E+02  0.1385E+02
     18.961  0.9697E+00  0.1070E+01  0.1420E+02  0.1396E+02
     19.057  0.1015E+01  0.9727E+00  0.1430E+02  0.1405E+02
     19.154  0.9508E+00  0.8803E+00  0.1439E+02  0.1414E+02
     19.251  0.9129E+00  0.9004E+00  0.1448E+02  0.1422E+02
     19.348  0.1038E+01  0.1035E+01  0.1458E+02  0.1432E+02
     19.444  0.1022E+01  0.1123E+01  0.1468E+02  0.1443E+02
     19.541  0.1078E+01  0.1062E+01  0.1478E+02  0.1454E+02
     19.638  0.1081E+01  0.1263E+01  0.1489E+02  0.1466E+02
     19.734  0.7876E+00  0.1238E+01  0.1496E+02  0.1478E+02
     19.831  0.6059E+00  0.1051E+01  0.1502E+02  0.1488E+02
     19.928  0.6604E+00  0.7842E+00  0.1508E+02  0.1495E+02
     20.025  0.6611E+00  0.4928E+00  0.1515E+02  0.1500E+02
     20.121  0.7533E+00  0.6061E+00  0.1522E+02  0.1506E+02
     20.218  0.8269E+00  0.8498E+00  0.1530E+02  0.1514E+02
     20.315  0.7132E+00  0.8273E+00  0.1537E+02  0.1522E+02
     20.411  0.4730E+00  0.6051E+00  0.1542E+02  0.1528E+02
     20.508  0.4048E+00  0.5569E+00  0.1546E+02  0.1534E+02
     20.605  0.4285E+00  0.7027E+00  0.1550E+02  0.1540E+02
     20.702  0.5264E+00  0.5584E+00  0.1555E+02  0.1546E+02
     20.798  0.5608E+00  0.5499E+00  0.1560E+02  0.1551E+02
     20.895  0.2960E+00  0.5715E+00  0.1563E+02  0.1557E+02
     20.992  0.2699E+00  0.4261E+00  0.1566E+02  0.1561E+02
     21.089  0.2747E+00  0.4098E+00  0.1568E+02  0.1565E+02
     21.185  0.1524E+00  0.2979E+00  0.1570E+02  0.1568E+02
     21.282  0.8496E-01  0.1475E+00  0.1571E+02  0.1569E+02
     21.379  0.1117E+00  0.1336E+00  0.1572E+02  0.1570E+02
     21.475  0.1049E+00  0.1286E+00  0.1573E+02  0.1572E+02
     21.572  0.1311E+00  0.1091E+00  0.1574E+02  0.1573E+02
     21.669  0.1844E+00  0.1899E+00  0.1576E+02  0.1575E+02
     21.766  0.1511E+00  0.2361E+00  0.1577E+02  0.1577E+02
     21.862  0.8851E-01  0.1184E+00  0.1578E+02  0.1578E+02
     21.959  0.9288E-01  0.6973E-01  0.1579E+02  0.1579E+02
     22.056  0.1877E+00  0.1364E+00  0.1581E+02  0.1580E+02
     22.152  0.2432E+00  0.2017E+00  0.1583E+02  0.1582E+02
     22.249  0.1820E+00  0.2378E+00  0.1585E+02  0.1584E+02
     22.346  0.1079E+00  0.1601E+00  0.1586E+02  0.1586E+02
     22.443  0.9193E-01  0.1128E+00  0.1587E+02  0.1587E+02
     22.539  0.5536E-01  0.5907E-01  0.1587E+02  0.1587E+02
     22.636  0.1531E-01  0.1578E-01  0.1588E+02  0.1588E+02
     22.733  0.6726E-02  0.1029E-01  0.1588E+02  0.1588E+02
     22.829  0.2525E-01  0.3990E-01  0.1588E+02  0.1588E+02
     22.926  0.8512E-01  0.9904E-01  0.1589E+02  0.1589E+02
     23.023  0.1576E+00  0.1595E+00  0.1590E+02  0.1591E+02
     23.120  0.1873E+00  0.1506E+00  0.1592E+02  0.1592E+02
     23.216  0.1414E+00  0.9968E-01  0.1593E+02  0.1593E+02
     23.313  0.6127E-01  0.7435E-01  0.1594E+02  0.1594E+02
     23.410  0.1485E-01  0.4218E-01  0.1594E+02  0.1594E+02
     23.506  0.1466E-01  0.3273E-01  0.1594E+02  0.1594E+02
     23.603  0.4862E-01  0.7108E-01  0.1595E+02  0.1595E+02
     23.700  0.1070E+00  0.1214E+00  0.1596E+02  0.1596E+02
     23.797  0.1110E+00  0.9851E-01  0.1597E+02  0.1597E+02
     23.893  0.6892E-01  0.4417E-01  0.1598E+02  0.1598E+02
     23.990  0.2114E-01  0.9440E-02  0.1598E+02  0.1598E+02
     24.087  0.3505E-02  0.1246E-02  0.1598E+02  0.1598E+02
     24.184  0.4763E-03  0.2316E-04  0.1598E+02  0.1598E+02
     24.280  0.1984E-04  0.1422E-03  0.1598E+02  0.1598E+02
     24.377  0.1374E-03  0.9690E-03  0.1598E+02  0.1598E+02
     24.474  0.9304E-03  0.6273E-02  0.1598E+02  0.1598E+02
     24.570  0.5857E-02  0.2969E-01  0.1598E+02  0.1598E+02
     24.667  0.2554E-01  0.5825E-01  0.1598E+02  0.1599E+02
     24.764  0.5523E-01  0.5419E-01  0.1599E+02  0.1599E+02
     24.861  0.6262E-01  0.4066E-01  0.1599E+02  0.1600E+02
     24.957  0.4178E-01  0.2479E-01  0.1600E+02  0.1600E+02
     25.054  0.2392E-01  0.8854E-02  0.1600E+02  0.1600E+02
     25.151  0.8112E-02  0.1642E-02  0.1600E+02  0.1600E+02
     25.247  0.1371E-02  0.2222E-03  0.1600E+02  0.1600E+02
     25.344  0.1951E-03  0.0000E+00  0.1600E+02  0.1600E+02
     25.441  0.0000E+00  0.0000E+00  0.1600E+02  0.1600E+02
     25.538  0.0000E+00  0.0000E+00  0.1600E+02  0.1600E+02
     25.634  0.0000E+00  0.0000E+00  0.1600E+02  0.1600E+02
     25.731  0.0000E+00  0.0000E+00  0.1600E+02  0.1600E+02
     25.828  0.0000E+00  0.0000E+00  0.1600E+02  0.1600E+02
     25.924  0.0000E+00  0.0000E+00  0.1600E+02  0.1600E+02
     26.021  0.0000E+00  0.0000E+00  0.1600E+02  0.1600E+02
     26.118  0.0000E+00  0.0000E+00  0.1600E+02  0.1600E+02
     26.215  0.0000E+00  0.0000E+00  0.1600E+02  0.1600E+02
     26.311  0.0000E+00  0.0000E+00  0.1600E+02  0.1600E+02
     26.31132305     -2.70434704  301     11.49806116      1.00000000
     -2.704  0.0000E+00  0.0000E+00  0.0000E+00  0.0000E+00  0.0000E+00  0.0000E+00  0.0000E+00  0.0000E+00  0.0000E+00  0.0000E+00  0.0000E+00  0.0000E+00  0.0000E+00  0.0000E+00  0.0000E+00  0.0000E+00  0.0000E+00  0.0000E+00
     -2.608  0.0000E+00  0.0000E+00  0.0000E+00  0.0000E+00  0.0000E+00  0.0000E+00  0.0000E+00  0.0000E+00  0.0000E+00  0.0000E+00  0.0000E+00  0.0000E+00  0.0000E+00  0.0000E+00  0.0000E+00  0.0000E+00  0.0000E+00  0.0000E+00
     -2.511  0.0000E+00  0.0000E+00  0.0000E+00  0.0000E+00  0.0000E+00  0.0000E+00  0.0000E+00  0.0000E+00  0.0000E+00  0.0000E+00  0.0000E+00  0.0000E+00  0.0000E+00  0.0000E+00  0.0000E+00  0.0000E+00  0.0000E+00  0.0000E+00
     -2.414  0.0000E+00  0.0000E+00  0.0000E+00  0.0000E+00  0.0000E+00  0.0000E+00  0.0000E+00  0.0000E+00  0.0000E+00  0.0000E+00  0.0000E+00  0.0000E+00  0.0000E+00  0.0000E+00  0.0000E+00  0.0000E+00  0.0000E+00  0.0000E+00
     -2.317  0.0000E+00  0.0000E+00  0.0000E+00  0.0000E+00  0.0000E+00  0.0000E+00  0.0000E+00  0.0000E+00  0.0000E+00  0.0000E+00  0.0000E+00  0.0000E+00  0.0000E+00  0.0000E+00  0.0000E+00  0.0000E+00  0.0000E+00  0.0000E+00
     -2.221  0.0000E+00  0.0000E+00  0.0000E+00  0.0000E+00  0.0000E+00  0.0000E+00  0.0000E+00  0.0000E+00  0.0000E+00  0.0000E+00  0.0000E+00  0.0000E+00  0.0000E+00  0.0000E+00  0.0000E+00  0.0000E+00  0.0000E+00  0.0000E+00
     -2.124  0.0000E+00  0.0000E+00  0.0000E+00  0.0000E+00  0.0000E+00  0.0000E+00  0.0000E+00  0.0000E+00  0.0000E+00  0.0000E+00  0.0000E+00  0.0000E+00  0.0000E+00  0.0000E+00  0.0000E+00  0.0000E+00  0.0000E+00  0.0000E+00
     -2.027  0.0000E+00  0.0000E+00  0.0000E+00  0.0000E+00  0.0000E+00  0.0000E+00  0.0000E+00  0.0000E+00  0.0000E+00  0.0000E+00  0.0000E+00  0.0000E+00  0.0000E+00  0.0000E+00  0.0000E+00  0.0000E+00  0.0000E+00  0.0000E+00
     -1.931  0.0000E+00  0.0000E+00  0.0000E+00  0.0000E+00  0.0000E+00  0.0000E+00  0.0000E+00  0.0000E+00  0.0000E+00  0.0000E+00  0.0000E+00  0.0000E+00  0.0000E+00  0.0000E+00  0.0000E+00  0.0000E+00  0.0000E+00  0.0000E+00
     -1.834  0.9252E-07  0.0000E+00  0.6773E-23  0.0000E+00  0.6773E-23  0.0000E+00  0.1663E-22  0.0000E+00  0.3891E-15  0.0000E+00  0.1585E-14  0.0000E+00  0.8473E-15  0.0000E+00  0.3891E-15  0.0000E+00  0.1071E-14  0.0000E+00
     -1.737  0.1889E-05  0.6620E-07  0.6187E-08  0.1481E-21  0.6187E-08  0.1477E-21  0.6183E-08  0.6617E-23  0.2463E-10  0.5867E-15  0.2466E-10  0.1147E-15  0.2067E-10  0.5634E-16  0.2463E-10  0.5867E-15  0.2237E-10  0.7238E-16
     -1.640  0.1217E-04  0.1046E-05  0.4162E-07  0.2346E-08  0.4162E-07  0.2346E-08  0.4159E-07  0.2344E-08  0.2244E-09  0.3750E-14  0.2245E-09  0.7324E-15  0.1223E-09  0.7813E-11  0.2244E-09  0.3750E-14  0.1323E-09  0.1000E-10
     -1.544  0.8291E-04  0.9077E-05  0.2899E-06  0.3325E-07  0.2899E-06  0.3325E-07  0.2897E-06  0.3324E-07  0.1472E-08  0.1787E-09  0.1472E-08  0.1788E-09  0.9745E-09  0.7952E-10  0.1472E-08  0.1787E-09  0.1081E-08  0.8494E-10
     -1.447  0.5213E-03  0.5994E-04  0.2017E-05  0.2162E-06  0.2017E-05  0.2162E-06  0.2016E-05  0.2161E-06  0.1148E-07  0.1056E-08  0.1148E-07  0.1057E-08  0.7238E-08  0.5979E-09  0.1148E-07  0.1056E-08  0.8040E-08  0.6661E-09
     -1.350  0.2375E-02  0.3846E-03  0.1140E-04  0.1502E-05  0.1140E-04  0.1502E-05  0.1139E-04  0.1502E-05  0.7253E-07  0.7922E-08  0.7257E-07  0.7926E-08  0.4021E-07  0.4411E-08  0.7253E-07  0.7922E-08  0.4390E-07  0.4912E-08
     -1.254  0.6126E-02  0.1870E-02  0.4103E-04  0.8927E-05  0.4103E-04  0.8927E-05  0.4101E-04  0.8922E-05  0.3501E-06  0.5368E-07  0.3502E-06  0.5371E-07  0.1531E-06  0.2598E-07  0.3501E-06  0.5368E-07  0.1649E-06  0.2861E-07
     -1.157  0.8689E-02  0.5271E-02  0.8748E-04  0.3473E-04  0.8748E-04  0.3473E-04  0.8741E-04  0.3471E-04  0.9669E-06  0.2752E-06  0.9673E-06  0.2753E-06  0.5041E-06  0.1045E-06  0.9669E-06  0.2752E-06  0.5890E-06  0.1128E-06
     -1.060  0.1122E-01  0.7998E-02  0.1749E-03  0.7831E-04  0.1749E-03  0.7831E-04  0.1747E-03  0.7826E-04  0.2393E-05  0.8251E-06  0.2395E-05  0.8254E-06  0.1593E-05  0.3430E-06  0.2393E-05  0.8251E-06  0.1915E-05  0.3973E-06
     -0.963  0.1530E-01  0.1007E-01  0.2970E-03  0.1550E-03  0.2970E-03  0.1550E-03  0.2969E-03  0.1548E-03  0.5550E-05  0.2007E-05  0.5551E-05  0.2009E-05  0.2652E-05  0.1132E-05  0.5550E-05  0.2007E-05  0.3159E-05  0.1362E-05
     -0.867  0.1287E-01  0.1417E-01  0.3044E-03  0.2786E-03  0.3044E-03  0.2786E-03  0.3044E-03  0.2786E-03  0.7834E-05  0.4885E-05  0.7839E-05  0.4886E-05  0.2892E-05  0.2076E-05  0.7834E-05  0.4885E-05  0.3252E-05  0.2479E-05
     -0.770  0.1428E-01  0.1252E-01  0.4502E-03  0.2966E-03  0.4502E-03  0.2966E-03  0.4495E-03  0.2966E-03  0.1404E-04  0.7114E-05  0.1406E-04  0.7117E-05  0.6196E-05  0.2247E-05  0.1404E-04  0.7114E-05  0.6878E-05  0.2559E-05
     -0.673  0.1949E-01  0.1284E-01  0.7054E-03  0.4089E-03  0.7054E-03  0.4089E-03  0.7045E-03  0.4083E-03  0.2079E-04  0.1221E-04  0.2080E-04  0.1222E-04  0.1316E-04  0.4448E-05  0.2079E-04  0.1221E-04  0.1570E-04  0.4911E-05
     -0.577  0.1861E-01  0.1799E-01  0.7625E-03  0.6670E-03  0.7625E-03  0.6670E-03  0.7627E-03  0.6661E-03  0.2595E-04  0.1902E-04  0.2596E-04  0.1903E-04  0.1556E-04  0.9889E-05  0.2595E-04  0.1902E-04  0.1898E-04  0.1173E-04
     -0.480  0.1768E-01  0.1771E-01  0.8454E-03  0.7431E-03  0.8454E-03  0.7431E-03  0.8451E-03  0.7433E-03  0.4239E-04  0.2345E-04  0.4245E-04  0.2346E-04  0.1497E-04  0.1246E-04  0.4239E-04  0.2345E-04  0.1702E-04  0.1523E-04
     -0.383  0.2077E-01  0.1638E-01  0.1107E-02  0.8003E-03  0.1107E-02  0.8003E-03  0.1107E-02  0.8002E-03  0.6438E-04  0.3739E-04  0.6438E-04  0.3744E-04  0.1976E-04  0.1166E-04  0.6438E-04  0.3739E-04  0.2174E-04  0.1340E-04
     -0.286  0.1620E-01  0.1937E-01  0.9675E-03  0.1064E-02  0.9675E-03  0.1064E-02  0.9659E-03  0.1064E-02  0.5401E-04  0.5915E-04  0.5398E-04  0.5915E-04  0.2312E-04  0.1532E-04  0.5401E-04  0.5915E-04  0.2726E-04  0.1684E-04
     -0.190  0.1967E-01  0.1559E-01  0.1387E-02  0.9547E-03  0.1387E-02  0.9547E-03  0.1383E-02  0.9535E-03  0.7606E-04  0.5158E-04  0.7620E-04  0.5153E-04  0.4399E-04  0.1772E-04  0.7606E-04  0.5158E-04  0.5375E-04  0.2076E-04
     -0.093  0.2503E-01  0.1766E-01  0.1885E-02  0.1290E-02  0.1885E-02  0.1290E-02  0.1885E-02  0.1287E-02  0.1197E-03  0.6708E-04  0.1199E-03  0.6719E-04  0.6039E-04  0.3279E-04  0.1197E-03  0.6708E-04  0.7108E-04  0.4013E-04
      0.004  0.2309E-01  0.2324E-01  0.1896E-02  0.1822E-02  0.1896E-02  0.1822E-02  0.1895E-02  0.1822E-02  0.1456E-03  0.1089E-03  0.1457E-03  0.1091E-03  0.5953E-04  0.4694E-04  0.1456E-03  0.1089E-03  0.6739E-04  0.5555E-04
      0.101  0.2308E-01  0.2163E-01  0.2060E-02  0.1843E-02  0.2060E-02  0.1843E-02  0.2061E-02  0.1842E-02  0.1810E-03  0.1337E-03  0.1810E-03  0.1338E-03  0.6254E-04  0.4615E-04  0.1810E-03  0.1337E-03  0.7210E-04  0.5232E-04
      0.197  0.1759E-01  0.2149E-01  0.1673E-02  0.2000E-02  0.1673E-02  0.2000E-02  0.1674E-02  0.2000E-02  0.1763E-03  0.1657E-03  0.1762E-03  0.1656E-03  0.4277E-04  0.4881E-04  0.1763E-03  0.1657E-03  0.4930E-04  0.5626E-04
      0.294  0.1630E-01  0.1678E-01  0.1805E-02  0.1661E-02  0.1805E-02  0.1661E-02  0.1797E-02  0.1663E-02  0.1982E-03  0.1648E-03  0.1988E-03  0.1647E-03  0.5814E-04  0.3412E-04  0.1982E-03  0.1648E-03  0.6738E-04  0.3937E-04
      0.391  0.2494E-01  0.1493E-01  0.3080E-02  0.1727E-02  0.3080E-02  0.1727E-02  0.3068E-02  0.1719E-02  0.3135E-03  0.1794E-03  0.3140E-03  0.1799E-03  0.1265E-03  0.4313E-04  0.3135E-03  0.1794E-03  0.1464E-03  0.5012E-04
      0.487  0.2627E-01  0.2269E-01  0.3476E-02  0.2959E-02  0.3476E-02  0.2959E-02  0.3478E-02  0.2948E-02  0.3499E-03  0.2841E-03  0.3494E-03  0.2846E-03  0.1512E-03  0.9434E-04  0.3499E-03  0.2841E-03  0.1790E-03  0.1093E-03
      0.584  0.2298E-01  0.2436E-01  0.3317E-02  0.3413E-02  0.3317E-02  0.3413E-02  0.3313E-02  0.3414E-02  0.3974E-03  0.3244E-03  0.3979E-03  0.3240E-03  0.1341E-03  0.1147E-03  0.3974E-03  0.3244E-03  0.1605E-03  0.1356E-03
      0.681  0.2390E-01  0.2103E-01  0.3692E-02  0.3218E-02  0.3692E-02  0.3218E-02  0.3693E-02  0.3215E-02  0.4789E-03  0.3620E-03  0.4790E-03  0.3624E-03  0.1510E-03  0.1007E-03  0.4789E-03  0.3620E-03  0.1798E-03  0.1205E-03
      0.778  0.1601E-01  0.2201E-01  0.2658E-02  0.3613E-02  0.2658E-02  0.3613E-02  0.2664E-02  0.3614E-02  0.3998E-03  0.4432E-03  0.4004E-03  0.4433E-03  0.1107E-03  0.1132E-03  0.3998E-03  0.4432E-03  0.1260E-03  0.1348E-03
      0.874  0.1902E-01  0.1468E-01  0.3505E-02  0.2599E-02  0.3505E-02  0.2599E-02  0.3491E-02  0.2605E-02  0.6519E-03  0.3655E-03  0.6537E-03  0.3660E-03  0.1288E-03  0.8280E-04  0.6519E-03  0.3655E-03  0.1387E-03  0.9449E-04
      0.971  0.2433E-01  0.1727E-01  0.5169E-02  0.3442E-02  0.5169E-02  0.3442E-02  0.5144E-02  0.3426E-02  0.9165E-03  0.5894E-03  0.9169E-03  0.5911E-03  0.1803E-03  0.9671E-04  0.9165E-03  0.5894E-03  0.2000E-03  0.1044E-03
      1.068  0.2101E-01  0.2237E-01  0.5703E-02  0.5254E-02  0.5703E-02  0.5254E-02  0.5687E-02  0.5227E-02  0.8485E-03  0.8414E-03  0.8477E-03  0.8417E-03  0.1913E-03  0.1368E-03  0.8485E-03  0.8414E-03  0.2201E-03  0.1523E-03
      1.164  0.1656E-01  0.1912E-01  0.5467E-02  0.5738E-02  0.5467E-02  0.5738E-02  0.5464E-02  0.5729E-02  0.8221E-03  0.7872E-03  0.8233E-03  0.7864E-03  0.1725E-03  0.1392E-03  0.8221E-03  0.7872E-03  0.2044E-03  0.1599E-03
      1.261  0.1473E-01  0.1476E-01  0.5737E-02  0.5344E-02  0.5737E-02  0.5344E-02  0.5726E-02  0.5340E-02  0.9746E-03  0.7712E-03  0.9773E-03  0.7724E-03  0.1739E-03  0.1196E-03  0.9746E-03  0.7712E-03  0.2048E-03  0.1408E-03
      1.358  0.1635E-01  0.1302E-01  0.6064E-02  0.5630E-02  0.6064E-02  0.5630E-02  0.6081E-02  0.5627E-02  0.1384E-02  0.9015E-03  0.1388E-02  0.9033E-03  0.1811E-03  0.1207E-03  0.1384E-02  0.9015E-03  0.1977E-03  0.1416E-03
      1.455  0.1861E-01  0.1407E-01  0.6527E-02  0.5585E-02  0.6527E-02  0.5585E-02  0.6515E-02  0.5601E-02  0.1881E-02  0.1230E-02  0.1884E-02  0.1234E-02  0.1861E-03  0.1198E-03  0.1881E-02  0.1230E-02  0.1947E-03  0.1291E-03
      1.551  0.1572E-01  0.1673E-01  0.6783E-02  0.6432E-02  0.6783E-02  0.6432E-02  0.6776E-02  0.6415E-02  0.2021E-02  0.1742E-02  0.2022E-02  0.1744E-02  0.1743E-03  0.1318E-03  0.2021E-02  0.1742E-02  0.1901E-03  0.1374E-03
      1.648  0.1194E-01  0.1392E-01  0.5542E-02  0.6573E-02  0.5542E-02  0.6573E-02  0.5569E-02  0.6574E-02  0.1808E-02  0.1833E-02  0.1803E-02  0.1833E-02  0.1365E-03  0.1208E-03  0.1808E-02  0.1833E-02  0.1468E-03  0.1311E-03
      1.745  0.7304E-02  0.1024E-01  0.3999E-02  0.5092E-02  0.3999E-02  0.5092E-02  0.3999E-02  0.5117E-02  0.1483E-02  0.1571E-02  0.1484E-02  0.1567E-02  0.8563E-04  0.8957E-04  0.1483E-02  0.1571E-02  0.9314E-04  0.9577E-04
      1.841  0.8610E-02  0.6364E-02  0.4576E-02  0.3838E-02  0.4576E-02  0.3838E-02  0.4574E-02  0.3839E-02  0.2117E-02  0.1335E-02  0.2128E-02  0.1336E-02  0.9710E-04  0.5800E-04  0.2117E-02  0.1335E-02  0.9831E-04  0.6287E-04
      1.938  0.1248E-01  0.7487E-02  0.6376E-02  0.4309E-02  0.6376E-02  0.4309E-02  0.6358E-02  0.4306E-02  0.3450E-02  0.1880E-02  0.3460E-02  0.1890E-02  0.1493E-03  0.6529E-04  0.3450E-02  0.1880E-02  0.1420E-03  0.6519E-04
      2.035  0.9648E-02  0.1108E-01  0.5662E-02  0.6209E-02  0.5662E-02  0.6209E-02  0.5672E-02  0.6194E-02  0.3196E-02  0.3112E-02  0.3186E-02  0.3119E-02  0.1557E-03  0.1013E-03  0.3196E-02  0.3112E-02  0.1606E-03  0.9537E-04
      2.132  0.9070E-02  0.8074E-02  0.4457E-02  0.5330E-02  0.4457E-02  0.5330E-02  0.4464E-02  0.5342E-02  0.2687E-02  0.2776E-02  0.2683E-02  0.2767E-02  0.2898E-03  0.8735E-04  0.2687E-02  0.2776E-02  0.3441E-03  0.8598E-04