   4   4   1   0
  0.1814553E+02  0.4170421E-09  0.4171813E-09  0.4171813E-09  0.5000000E-15
  1.000000000000000E-004
  CAR 
 unknown system                          
     17.44953143     -4.46134651  301      6.33714448      1.00000000
     -4.461  0.0000E+00  0.0000E+00  0.0000E+00  0.0000E+00
     -4.388  0.0000E+00  0.0000E+00  0.0000E+00  0.0000E+00
     -4.315  0.0000E+00  0.0000E+00  0.0000E+00  0.0000E+00
     -4.242  0.0000E+00  0.0000E+00  0.0000E+00  0.0000E+00
     -4.169  0.0000E+00  0.0000E+00  0.0000E+00  0.0000E+00
     -4.096  0.0000E+00  0.0000E+00  0.0000E+00  0.0000E+00
     -4.023  0.0000E+00  0.0000E+00  0.0000E+00  0.0000E+00
     -3.950  0.0000E+00  0.0000E+00  0.0000E+00  0.0000E+00
     -3.877  0.5264E-05  0.7355E-06  0.3845E-06  0.5372E-07
     -3.804  0.2872E-04  0.9431E-05  0.2482E-05  0.7425E-06
     -3.731  0.1273E-03  0.6130E-04  0.1178E-04  0.5220E-05
     -3.658  0.5499E-03  0.2422E-03  0.5195E-04  0.2291E-04
     -3.585  0.2310E-02  0.1079E-02  0.2207E-03  0.1017E-03
     -3.512  0.8855E-02  0.4344E-02  0.8674E-03  0.4190E-03
     -3.439  0.2721E-01  0.1547E-01  0.2855E-02  0.1549E-02
     -3.366  0.5732E-01  0.4067E-01  0.7041E-02  0.4519E-02
     -3.293  0.8510E-01  0.7177E-01  0.1326E-01  0.9761E-02
     -3.220  0.1152E+00  0.9974E-01  0.2167E-01  0.1705E-01
     -3.147  0.1370E+00  0.1309E+00  0.3168E-01  0.2660E-01
     -3.074  0.1380E+00  0.1389E+00  0.4176E-01  0.3675E-01
     -3.001  0.1670E+00  0.1516E+00  0.5395E-01  0.4782E-01
     -2.928  0.1932E+00  0.1874E+00  0.6807E-01  0.6151E-01
     -2.855  0.1932E+00  0.1965E+00  0.8219E-01  0.7587E-01
     -2.782  0.2065E+00  0.2014E+00  0.9728E-01  0.9058E-01
     -2.708  0.2071E+00  0.2143E+00  0.1124E+00  0.1062E+00
     -2.635  0.2145E+00  0.2092E+00  0.1281E+00  0.1215E+00
     -2.562  0.2645E+00  0.2497E+00  0.1474E+00  0.1398E+00
     -2.489  0.2784E+00  0.2811E+00  0.1678E+00  0.1603E+00
     -2.416  0.2739E+00  0.2803E+00  0.1878E+00  0.1808E+00
     -2.343  0.2455E+00  0.2623E+00  0.2057E+00  0.2000E+00
     -2.270  0.2393E+00  0.2402E+00  0.2232E+00  0.2175E+00
     -2.197  0.3124E+00  0.2965E+00  0.2460E+00  0.2392E+00
     -2.124  0.3544E+00  0.3587E+00  0.2719E+00  0.2654E+00
     -2.051  0.3434E+00  0.3505E+00  0.2970E+00  0.2910E+00
     -1.978  0.3381E+00  0.3502E+00  0.3217E+00  0.3166E+00
     -1.905  0.2893E+00  0.3059E+00  0.3429E+00  0.3390E+00
     -1.832  0.3307E+00  0.3322E+00  0.3670E+00  0.3632E+00
     -1.759  0.4207E+00  0.4410E+00  0.3978E+00  0.3955E+00
     -1.686  0.4307E+00  0.4588E+00  0.4293E+00  0.4290E+00
     -1.613  0.3980E+00  0.4174E+00  0.4584E+00  0.4595E+00
     -1.540  0.3934E+00  0.3958E+00  0.4871E+00  0.4884E+00
     -1.467  0.4108E+00  0.3914E+00  0.5171E+00  0.5170E+00
     -1.394  0.4519E+00  0.4600E+00  0.5501E+00  0.5506E+00
     -1.321  0.4446E+00  0.4551E+00  0.5827E+00  0.5839E+00
     -1.248  0.3700E+00  0.3684E+00  0.6097E+00  0.6108E+00
     -1.175  0.2948E+00  0.2953E+00  0.6313E+00  0.6324E+00
     -1.102  0.3142E+00  0.3026E+00  0.6542E+00  0.6545E+00
     -1.029  0.4002E+00  0.4012E+00  0.6835E+00  0.6839E+00
     -0.956  0.4058E+00  0.4053E+00  0.7131E+00  0.7135E+00
     -0.883  0.3513E+00  0.3187E+00  0.7388E+00  0.7368E+00
     -0.810  0.3349E+00  0.2538E+00  0.7633E+00  0.7553E+00
     -0.736  0.3606E+00  0.2623E+00  0.7897E+00  0.7745E+00
     -0.663  0.4703E+00  0.4190E+00  0.8240E+00  0.8051E+00
     -0.590  0.5363E+00  0.5061E+00  0.8632E+00  0.8421E+00
     -0.517  0.4201E+00  0.4310E+00  0.8939E+00  0.8736E+00
     -0.444  0.3577E+00  0.3760E+00  0.9201E+00  0.9011E+00
     -0.371  0.3923E+00  0.3370E+00  0.9487E+00  0.9257E+00
     -0.298  0.4456E+00  0.4160E+00  0.9813E+00  0.9561E+00
     -0.225  0.4707E+00  0.4771E+00  0.1016E+01  0.9910E+00
     -0.152  0.4505E+00  0.4089E+00  0.1049E+01  0.1021E+01
     -0.079  0.4504E+00  0.3891E+00  0.1082E+01  0.1049E+01
     -0.006  0.5315E+00  0.4417E+00  0.1120E+01  0.1082E+01
      0.067  0.5703E+00  0.5476E+00  0.1162E+01  0.1122E+01
      0.140  0.4950E+00  0.5817E+00  0.1198E+01  0.1164E+01
      0.213  0.4112E+00  0.4713E+00  0.1228E+01  0.1199E+01
      0.286  0.4111E+00  0.3921E+00  0.1258E+01  0.1227E+01
      0.359  0.4917E+00  0.4254E+00  0.1294E+01  0.1258E+01
      0.432  0.5284E+00  0.5322E+00  0.1333E+01  0.1297E+01
      0.505  0.5046E+00  0.5565E+00  0.1370E+01  0.1338E+01
      0.578  0.5255E+00  0.4923E+00  0.1408E+01  0.1374E+01
      0.651  0.5942E+00  0.5239E+00  0.1452E+01  0.1412E+01
      0.724  0.6765E+00  0.6540E+00  0.1501E+01  0.1460E+01
      0.797  0.6780E+00  0.7324E+00  0.1551E+01  0.1513E+01
      0.870  0.6694E+00  0.6916E+00  0.1600E+01  0.1564E+01
      0.943  0.7344E+00  0.6373E+00  0.1653E+01  0.1611E+01
      1.016  0.7174E+00  0.6425E+00  0.1706E+01  0.1657E+01
      1.089  0.5931E+00  0.6551E+00  0.1749E+01  0.1705E+01
      1.162  0.5345E+00  0.5783E+00  0.1788E+01  0.1748E+01
      1.235  0.6081E+00  0.5773E+00  0.1832E+01  0.1790E+01
      1.309  0.7200E+00  0.6264E+00  0.1885E+01  0.1836E+01
      1.382  0.7176E+00  0.6146E+00  0.1938E+01  0.1881E+01
      1.455  0.6529E+00  0.5788E+00  0.1985E+01  0.1923E+01
      1.528  0.6701E+00  0.5624E+00  0.2034E+01  0.1964E+01
      1.601  0.7667E+00  0.5800E+00  0.2090E+01  0.2006E+01
      1.674  0.7837E+00  0.6550E+00  0.2148E+01  0.2054E+01
      1.747  0.7279E+00  0.7566E+00  0.2201E+01  0.2110E+01
      1.820  0.6543E+00  0.7313E+00  0.2249E+01  0.2163E+01
      1.893  0.6246E+00  0.6394E+00  0.2294E+01  0.2210E+01
      1.966  0.6742E+00  0.5226E+00  0.2344E+01  0.2248E+01
      2.039  0.6717E+00  0.4846E+00  0.2393E+01  0.2283E+01
      2.112  0.6229E+00  0.5602E+00  0.2438E+01  0.2324E+01
      2.185  0.5884E+00  0.5732E+00  0.2481E+01  0.2366E+01
      2.258  0.5907E+00  0.5711E+00  0.2524E+01  0.2408E+01
      2.331  0.6413E+00  0.5734E+00  0.2571E+01  0.2450E+01
      2.404  0.7044E+00  0.5864E+00  0.2623E+01  0.2493E+01
      2.477  0.6909E+00  0.5287E+00  0.2673E+01  0.2531E+01
      2.550  0.7234E+00  0.5042E+00  0.2726E+01  0.2568E+01
      2.623  0.8616E+00  0.5344E+00  0.2789E+01  0.2607E+01
      2.696  0.9341E+00  0.5816E+00  0.2857E+01  0.2650E+01
      2.769  0.8408E+00  0.6761E+00  0.2919E+01  0.2699E+01
      2.842  0.7301E+00  0.8433E+00  0.2972E+01  0.2761E+01
      2.915  0.7417E+00  0.9164E+00  0.3026E+01  0.2828E+01
      2.988  0.9003E+00  0.7489E+00  0.3092E+01  0.2883E+01
      3.061  0.1057E+01  0.6065E+00  0.3169E+01  0.2927E+01
      3.134  0.1024E+01  0.5907E+00  0.3244E+01  0.2970E+01
      3.207  0.9860E+00  0.6071E+00  0.3316E+01  0.3014E+01
      3.280  0.1095E+01  0.6821E+00  0.3396E+01  0.3064E+01
      3.354  0.1182E+01  0.8843E+00  0.3483E+01  0.3129E+01
      3.427  0.1243E+01  0.9430E+00  0.3574E+01  0.3198E+01
      3.500  0.1310E+01  0.8250E+00  0.3669E+01  0.3258E+01
      3.573  0.1356E+01  0.8011E+00  0.3768E+01  0.3317E+01
      3.646  0.1478E+01  0.9943E+00  0.3876E+01  0.3389E+01
      3.719  0.1773E+01  0.1012E+01  0.4006E+01  0.3463E+01
      3.792  0.1960E+01  0.8314E+00  0.4149E+01  0.3524E+01
      3.865  0.1986E+01  0.7590E+00  0.4294E+01  0.3580E+01
      3.938  0.2090E+01  0.7777E+00  0.4447E+01  0.3636E+01
      4.011  0.2335E+01  0.8106E+00  0.4617E+01  0.3696E+01
      4.084  0.2400E+01  0.9779E+00  0.4793E+01  0.3767E+01
      4.157  0.2203E+01  0.1182E+01  0.4954E+01  0.3854E+01
      4.230  0.2134E+01  0.1053E+01  0.5110E+01  0.3930E+01
      4.303  0.2063E+01  0.8248E+00  0.5260E+01  0.3991E+01
      4.376  0.1798E+01  0.8344E+00  0.5392E+01  0.4052E+01
      4.449  0.1615E+01  0.1072E+01  0.5510E+01  0.4130E+01
      4.522  0.1474E+01  0.1206E+01  0.5618E+01  0.4218E+01
      4.595  0.1377E+01  0.1074E+01  0.5718E+01  0.4297E+01
      4.668  0.1326E+01  0.1029E+01  0.5815E+01  0.4372E+01
      4.741  0.1366E+01  0.1150E+01  0.5915E+01  0.4456E+01
      4.814  0.1268E+01  0.1182E+01  0.6008E+01  0.4542E+01
      4.887  0.1235E+01  0.1130E+01  0.6098E+01  0.4625E+01
      4.960  0.1499E+01  0.1179E+01  0.6208E+01  0.4711E+01
      5.033  0.1970E+01  0.1265E+01  0.6352E+01  0.4803E+01
      5.106  0.2822E+01  0.1238E+01  0.6558E+01  0.4894E+01
      5.179  0.4244E+01  0.1060E+01  0.6868E+01  0.4972E+01
      5.252  0.5136E+01  0.9290E+00  0.7243E+01  0.5039E+01
      5.326  0.4369E+01  0.9276E+00  0.7562E+01  0.5107E+01
      5.399  0.3116E+01  0.1082E+01  0.7790E+01  0.5186E+01
      5.472  0.2346E+01  0.1161E+01  0.7962E+01  0.5271E+01
      5.545  0.1969E+01  0.1064E+01  0.8106E+01  0.5349E+01
      5.618  0.1749E+01  0.9306E+00  0.8234E+01  0.5417E+01
      5.691  0.1454E+01  0.7121E+00  0.8340E+01  0.5469E+01
      5.764  0.1198E+01  0.6057E+00  0.8428E+01  0.5513E+01
      5.837  0.1156E+01  0.6779E+00  0.8512E+01  0.5563E+01
      5.910  0.1198E+01  0.7775E+00  0.8600E+01  0.5620E+01
      5.983  0.1110E+01  0.7822E+00  0.8681E+01  0.5677E+01
      6.056  0.8800E+00  0.8062E+00  0.8746E+01  0.5736E+01
      6.129  0.7096E+00  0.8730E+00  0.8797E+01  0.5800E+01
      6.202  0.8278E+00  0.9077E+00  0.8858E+01  0.5866E+01
      6.275  0.1085E+01  0.9350E+00  0.8937E+01  0.5934E+01
      6.348  0.1178E+01  0.8770E+00  0.9023E+01  0.5998E+01
      6.421  0.1131E+01  0.8243E+00  0.9106E+01  0.6059E+01
      6.494  0.1216E+01  0.8405E+00  0.9195E+01  0.6120E+01
      6.567  0.1395E+01  0.8742E+00  0.9297E+01  0.6184E+01
      6.640  0.1408E+01  0.8940E+00  0.9400E+01  0.6249E+01
      6.713  0.1292E+01  0.9187E+00  0.9494E+01  0.6317E+01
      6.786  0.1342E+01  0.1034E+01  0.9592E+01  0.6392E+01
      6.859  0.1530E+01  0.1231E+01  0.9704E+01  0.6482E+01
      6.932  0.1434E+01  0.1353E+01  0.9809E+01  0.6581E+01
      7.005  0.1096E+01  0.1416E+01  0.9889E+01  0.6684E+01
      7.078  0.9046E+00  0.1594E+01  0.9955E+01  0.6801E+01
      7.151  0.9793E+00  0.1648E+01  0.1003E+02  0.6921E+01
      7.224  0.1006E+01  0.1585E+01  0.1010E+02  0.7037E+01
      7.297  0.9968E+00  0.1594E+01  0.1017E+02  0.7154E+01
      7.371  0.1064E+01  0.1540E+01  0.1025E+02  0.7266E+01
      7.444  0.1220E+01  0.1657E+01  0.1034E+02  0.7387E+01
      7.517  0.1365E+01  0.2125E+01  0.1044E+02  0.7542E+01
      7.590  0.1298E+01  0.2573E+01  0.1053E+02  0.7730E+01
      7.663  0.1149E+01  0.2851E+01  0.1062E+02  0.7939E+01
      7.736  0.1038E+01  0.2709E+01  0.1069E+02  0.8137E+01
      7.809  0.1124E+01  0.2183E+01  0.1078E+02  0.8296E+01
      7.882  0.1360E+01  0.1926E+01  0.1088E+02  0.8437E+01
      7.955  0.1292E+01  0.2303E+01  0.1097E+02  0.8605E+01
      8.028  0.9591E+00  0.2892E+01  0.1104E+02  0.8817E+01
      8.101  0.7288E+00  0.3247E+01  0.1109E+02  0.9054E+01
      8.174  0.6935E+00  0.3171E+01  0.1114E+02  0.9286E+01
      8.247  0.7472E+00  0.2860E+01  0.1120E+02  0.9495E+01
      8.320  0.8170E+00  0.2481E+01  0.1126E+02  0.9676E+01
      8.393  0.8233E+00  0.2027E+01  0.1132E+02  0.9824E+01
      8.466  0.8393E+00  0.1782E+01  0.1138E+02  0.9955E+01
      8.539  0.1020E+01  0.1773E+01  0.1145E+02  0.1008E+02
      8.612  0.1151E+01  0.1834E+01  0.1154E+02  0.1022E+02
      8.685  0.1156E+01  0.2004E+01  0.1162E+02  0.1036E+02
      8.758  0.1207E+01  0.2121E+01  0.1171E+02  0.1052E+02
      8.831  0.1222E+01  0.2080E+01  0.1180E+02  0.1067E+02
      8.904  0.1108E+01  0.1985E+01  0.1188E+02  0.1082E+02
      8.977  0.8918E+00  0.1871E+01  0.1195E+02  0.1095E+02
      9.050  0.6784E+00  0.1809E+01  0.1200E+02  0.1109E+02
      9.123  0.6400E+00  0.1832E+01  0.1204E+02  0.1122E+02
      9.196  0.6594E+00  0.1798E+01  0.1209E+02  0.1135E+02
      9.269  0.7668E+00  0.1544E+01  0.1215E+02  0.1146E+02
      9.343  0.9604E+00  0.1377E+01  0.1222E+02  0.1156E+02
      9.416  0.1084E+01  0.1322E+01  0.1230E+02  0.1166E+02
      9.489  0.1141E+01  0.1214E+01  0.1238E+02  0.1175E+02
      9.562  0.1043E+01  0.1107E+01  0.1246E+02  0.1183E+02
      9.635  0.9745E+00  0.1135E+01  0.1253E+02  0.1191E+02
      9.708  0.1057E+01  0.1158E+01  0.1261E+02  0.1200E+02
      9.781  0.1079E+01  0.1065E+01  0.1268E+02  0.1208E+02
      9.854  0.1007E+01  0.1053E+01  0.1276E+02  0.1215E+02
      9.927  0.8769E+00  0.1176E+01  0.1282E+02  0.1224E+02
     10.000  0.8315E+00  0.1291E+01  0.1288E+02  0.1233E+02
     10.073  0.9990E+00  0.1277E+01  0.1296E+02  0.1243E+02
     10.146  0.1237E+01  0.1155E+01  0.1305E+02  0.1251E+02
     10.219  0.1265E+01  0.1055E+01  0.1314E+02  0.1259E+02
     10.292  0.1145E+01  0.9734E+00  0.1322E+02  0.1266E+02
     10.365  0.1034E+01  0.9355E+00  0.1330E+02  0.1273E+02
     10.438  0.1020E+01  0.1002E+01  0.1337E+02  0.1280E+02
     10.511  0.1063E+01  0.9712E+00  0.1345E+02  0.1287E+02
     10.584  0.1126E+01  0.8018E+00  0.1353E+02  0.1293E+02
     10.657  0.1084E+01  0.7825E+00  0.1361E+02  0.1299E+02
     10.730  0.1040E+01  0.1009E+01  0.1369E+02  0.1306E+02
     10.803  0.1073E+01  0.1250E+01  0.1377E+02  0.1315E+02
     10.876  0.1116E+01  0.1523E+01  0.1385E+02  0.1326E+02
     10.949  0.1122E+01  0.1794E+01  0.1393E+02  0.1340E+02
     11.022  0.1046E+01  0.1792E+01  0.1401E+02  0.1353E+02
     11.095  0.1010E+01  0.1526E+01  0.1408E+02  0.1364E+02
     11.168  0.9839E+00  0.1140E+01  0.1415E+02  0.1372E+02
     11.241  0.9026E+00  0.1023E+01  0.1422E+02  0.1380E+02
     11.314  0.9639E+00  0.1135E+01  0.1429E+02  0.1388E+02
     11.388  0.1085E+01  0.1202E+01  0.1437E+02  0.1397E+02
     11.461  0.1094E+01  0.1299E+01  0.1445E+02  0.1406E+02
     11.534  0.1204E+01  0.1503E+01  0.1454E+02  0.1417E+02
     11.607  0.1319E+01  0.1533E+01  0.1463E+02  0.1428E+02
     11.680  0.1253E+01  0.1387E+01  0.1472E+02  0.1439E+02
     11.753  0.1141E+01  0.1153E+01  0.1481E+02  0.1447E+02
     11.826  0.1060E+01  0.9237E+00  0.1488E+02  0.1454E+02
     11.899  0.1108E+01  0.9180E+00  0.1497E+02  0.1460E+02
     11.972  0.1046E+01  0.1129E+01  0.1504E+02  0.1469E+02
     12.045  0.9117E+00  0.1283E+01  0.1511E+02  0.1478E+02
     12.118  0.7958E+00  0.1394E+01  0.1517E+02  0.1488E+02
     12.191  0.8096E+00  0.1584E+01  0.1523E+02  0.1500E+02
     12.264  0.8089E+00  0.1459E+01  0.1529E+02  0.1511E+02
     12.337  0.7389E+00  0.1179E+01  0.1534E+02  0.1519E+02
     12.410  0.5695E+00  0.9241E+00  0.1538E+02  0.1526E+02
     12.483  0.4401E+00  0.7619E+00  0.1541E+02  0.1531E+02
     12.556  0.4383E+00  0.7093E+00  0.1544E+02  0.1537E+02
     12.629  0.4921E+00  0.6251E+00  0.1548E+02  0.1541E+02
     12.702  0.5129E+00  0.4953E+00  0.1552E+02  0.1545E+02
     12.775  0.4870E+00  0.4308E+00  0.1555E+02  0.1548E+02
     12.848  0.3976E+00  0.4906E+00  0.1558E+02  0.1552E+02
     12.921  0.3196E+00  0.6142E+00  0.1561E+02  0.1556E+02
     12.994  0.3109E+00  0.5949E+00  0.1563E+02  0.1560E+02
     13.067  0.3387E+00  0.5281E+00  0.1565E+02  0.1564E+02
     13.140  0.3014E+00  0.4541E+00  0.1568E+02  0.1568E+02
     13.213  0.2461E+00  0.3530E+00  0.1569E+02  0.1570E+02
     13.286  0.2458E+00  0.2725E+00  0.1571E+02  0.1572E+02
     13.360  0.2615E+00  0.1987E+00  0.1573E+02  0.1574E+02
     13.433  0.2021E+00  0.1578E+00  0.1575E+02  0.1575E+02
     13.506  0.1014E+00  0.1202E+00  0.1575E+02  0.1576E+02
     13.579  0.7774E-01  0.1163E+00  0.1576E+02  0.1577E+02
     13.652  0.1070E+00  0.1512E+00  0.1577E+02  0.1578E+02
     13.725  0.1486E+00  0.1960E+00  0.1578E+02  0.1579E+02
     13.798  0.1900E+00  0.2074E+00  0.1579E+02  0.1581E+02
     13.871  0.2322E+00  0.1894E+00  0.1581E+02  0.1582E+02
     13.944  0.2198E+00  0.1455E+00  0.1582E+02  0.1583E+02
     14.017  0.1167E+00  0.9985E-01  0.1583E+02  0.1584E+02
     14.090  0.5290E-01  0.1245E+00  0.1584E+02  0.1585E+02
     14.163  0.7284E-01  0.1935E+00  0.1584E+02  0.1586E+02
     14.236  0.1555E+00  0.1693E+00  0.1585E+02  0.1587E+02
     14.309  0.1876E+00  0.1353E+00  0.1587E+02  0.1588E+02
     14.382  0.1475E+00  0.1853E+00  0.1588E+02  0.1590E+02
     14.455  0.1604E+00  0.1966E+00  0.1589E+02  0.1591E+02
     14.528  0.2037E+00  0.1254E+00  0.1590E+02  0.1592E+02
     14.601  0.1720E+00  0.8178E-01  0.1592E+02  0.1593E+02
     14.674  0.1073E+00  0.4851E-01  0.1593E+02  0.1593E+02
     14.747  0.5396E-01  0.2585E-01  0.1593E+02  0.1593E+02
     14.820  0.2029E-01  0.3317E-01  0.1593E+02  0.1593E+02
     14.893  0.1557E-01  0.6394E-01  0.1593E+02  0.1594E+02
     14.966  0.3800E-01  0.1148E+00  0.1593E+02  0.1595E+02
     15.039  0.8357E-01  0.1411E+00  0.1594E+02  0.1596E+02
     15.112  0.1191E+00  0.9237E-01  0.1595E+02  0.1596E+02
     15.185  0.1250E+00  0.3351E-01  0.1596E+02  0.1597E+02
     15.258  0.8023E-01  0.1133E-01  0.1596E+02  0.1597E+02
     15.331  0.2973E-01  0.1270E-01  0.1597E+02  0.1597E+02
     15.405  0.1049E-01  0.3279E-01  0.1597E+02  0.1597E+02
     15.478  0.1278E-01  0.5245E-01  0.1597E+02  0.1597E+02
     15.551  0.3342E-01  0.3573E-01  0.1597E+02  0.1598E+02
     15.624  0.5265E-01  0.1552E-01  0.1597E+02  0.1598E+02
     15.697  0.3569E-01  0.1675E-01  0.1598E+02  0.1598E+02
     15.770  0.1789E-01  0.3866E-01  0.1598E+02  0.1598E+02
     15.843  0.2506E-01  0.5207E-01  0.1598E+02  0.1599E+02
     15.916  0.4869E-01  0.3000E-01  0.1598E+02  0.1599E+02
     15.989  0.4531E-01  0.1212E-01  0.1599E+02  0.1599E+02
     16.062  0.1958E-01  0.1326E-01  0.1599E+02  0.1599E+02
     16.135  0.7499E-02  0.3067E-01  0.1599E+02  0.1599E+02
     16.208  0.9801E-02  0.4429E-01  0.1599E+02  0.1600E+02
     16.281  0.2512E-01  0.3540E-01  0.1599E+02  0.1600E+02
     16.354  0.3907E-01  0.1758E-01  0.1599E+02  0.1600E+02
     16.427  0.3362E-01  0.5595E-02  0.1600E+02  0.1600E+02
     16.500  0.2423E-01  0.1422E-02  0.1600E+02  0.1600E+02
     16.573  0.1170E-01  0.2618E-03  0.1600E+02  0.1600E+02
     16.646  0.3566E-02  0.6115E-04  0.1600E+02  0.1600E+02
     16.719  0.8497E-03  0.0000E+00  0.1600E+02  0.1600E+02
     16.792  0.1877E-03  0.0000E+00  0.1600E+02  0.1600E+02
     16.865  0.0000E+00  0.0000E+00  0.1600E+02  0.1600E+02
     16.938  0.0000E+00  0.0000E+00  0.1600E+02  0.1600E+02
     17.011  0.0000E+00  0.0000E+00  0.1600E+02  0.1600E+02
     17.084  0.0000E+00  0.0000E+00  0.1600E+02  0.1600E+02
     17.157  0.0000E+00  0.0000E+00  0.1600E+02  0.1600E+02
     17.230  0.0000E+00  0.0000E+00  0.1600E+02  0.1600E+02
     17.303  0.0000E+00  0.0000E+00  0.1600E+02  0.1600E+02
     17.376  0.0000E+00  0.0000E+00  0.1600E+02  0.1600E+02
     17.450  0.0000E+00  0.0000E+00  0.1600E+02  0.1600E+02
     17.44953143     -4.46134651  301      6.33714448      1.00000000
     -4.461  0.0000E+00  0.0000E+00  0.0000E+00  0.0000E+00  0.0000E+00  0.0000E+00  0.0000E+00  0.0000E+00  0.0000E+00  0.0000E+00  0.0000E+00  0.0000E+00  0.0000E+00  0.0000E+00  0.0000E+00  0.0000E+00  0.0000E+00  0.0000E+00
     -4.388  0.0000E+00  0.0000E+00  0.0000E+00  0.0000E+00  0.0000E+00  0.0000E+00  0.0000E+00  0.0000E+00  0.0000E+00  0.0000E+00  0.0000E+00  0.0000E+00  0.0000E+00  0.0000E+00  0.0000E+00  0.0000E+00  0.0000E+00  0.0000E+00
     -4.315  0.0000E+00  0.0000E+00  0.0000E+00  0.0000E+00  0.0000E+00  0.0000E+00  0.0000E+00  0.0000E+00  0.0000E+00  0.0000E+00  0.0000E+00  0.0000E+00  0.0000E+00  0.0000E+00  0.0000E+00  0.0000E+00  0.0000E+00  0.0000E+00
     -4.242  0.0000E+00  0.0000E+00  0.0000E+00  0.0000E+00  0.0000E+00  0.0000E+00  0.0000E+00  0.0000E+00  0.0000E+00  0.0000E+00  0.0000E+00  0.0000E+00  0.0000E+00  0.0000E+00  0.0000E+00  0.0000E+00  0.0000E+00  0.0000E+00
     -4.169  0.0000E+00  0.0000E+00  0.0000E+00  0.0000E+00  0.0000E+00  0.0000E+00  0.0000E+00  0.0000E+00  0.0000E+00  0.0000E+00  0.0000E+00  0.0000E+00  0.0000E+00  0.0000E+00  0.0000E+00  0.0000E+00  0.0000E+00  0.0000E+00
     -4.096  0.0000E+00  0.0000E+00  0.0000E+00  0.0000E+00  0.0000E+00  0.0000E+00  0.0000E+00  0.0000E+00  0.0000E+00  0.0000E+00  0.0000E+00  0.0000E+00  0.0000E+00  0.0000E+00  0.0000E+00  0.0000E+00  0.0000E+00  0.0000E+00
     -4.023  0.0000E+00  0.0000E+00  0.0000E+00  0.0000E+00  0.0000E+00  0.0000E+00  0.0000E+00  0.0000E+00  0.0000E+00  0.0000E+00  0.0000E+00  0.0000E+00  0.0000E+00  0.0000E+00  0.0000E+00  0.0000E+00  0.0000E+00  0.0000E+00
     -3.950  0.0000E+00  0.0000E+00  0.0000E+00  0.0000E+00  0.0000E+00  0.0000E+00  0.0000E+00  0.0000E+00  0.0000E+00  0.0000E+00  0.0000E+00  0.0000E+00  0.0000E+00  0.0000E+00  0.0000E+00  0.0000E+00  0.0000E+00  0.0000E+00
     -3.877  0.4277E-06  0.4877E-07  0.8022E-09  0.1770E-19  0.8022E-09  0.1770E-19  0.8019E-09  0.1481E-19  0.7720E-14  0.2648E-15  0.1775E-13  0.5886E-16  0.2789E-11  0.7534E-15  0.7720E-14  0.2648E-15  0.3565E-11  0.1053E-14
     -3.804  0.2320E-05  0.6193E-06  0.7647E-08  0.1387E-08  0.7647E-08  0.1387E-08  0.7645E-08  0.1387E-08  0.4163E-10  0.7944E-14  0.4173E-10  0.2098E-13  0.2024E-10  0.3216E-11  0.4163E-10  0.7944E-14  0.2032E-10  0.4127E-11
     -3.731  0.1026E-04  0.3992E-05  0.3860E-07  0.1652E-07  0.3860E-07  0.1652E-07  0.3859E-07  0.1651E-07  0.2693E-09  0.1066E-09  0.2696E-09  0.1074E-09  0.1155E-09  0.2367E-10  0.2693E-09  0.1066E-09  0.1295E-09  0.2380E-10
     -3.658  0.4428E-04  0.1577E-04  0.1775E-06  0.6435E-07  0.1775E-06  0.6435E-07  0.1775E-06  0.6432E-07  0.1337E-08  0.3524E-09  0.1339E-08  0.3553E-09  0.6704E-09  0.1359E-09  0.1337E-08  0.3524E-09  0.7546E-09  0.1527E-09
     -3.585  0.1859E-03  0.7011E-04  0.7742E-06  0.3290E-06  0.7742E-06  0.3290E-06  0.7739E-06  0.3288E-06  0.6518E-08  0.2377E-08  0.6526E-08  0.2390E-08  0.2865E-08  0.8543E-09  0.6518E-08  0.2377E-08  0.3250E-08  0.9733E-09
     -3.512  0.7118E-03  0.2822E-03  0.3134E-05  0.1324E-05  0.3134E-05  0.1324E-05  0.3133E-05  0.1324E-05  0.2690E-07  0.9272E-08  0.2694E-07  0.9326E-08  0.1175E-07  0.3293E-08  0.2690E-07  0.9272E-08  0.1324E-07  0.3734E-08
     -3.439  0.2180E-02  0.1003E-02  0.1124E-04  0.5234E-05  0.1124E-04  0.5234E-05  0.1124E-04  0.5231E-05  0.1077E-06  0.4005E-07  0.1078E-06  0.4026E-07  0.4452E-07  0.1352E-07  0.1077E-06  0.4005E-07  0.5023E-07  0.1526E-07
     -3.366  0.4563E-02  0.2622E-02  0.3071E-04  0.1680E-04  0.3071E-04  0.1680E-04  0.3070E-04  0.1679E-04  0.3520E-06  0.1460E-06  0.3523E-06  0.1466E-06  0.1458E-06  0.4783E-07  0.3520E-06  0.1460E-06  0.1677E-06  0.5441E-07
     -3.293  0.6693E-02  0.4580E-02  0.6433E-04  0.4018E-04  0.6433E-04  0.4018E-04  0.6429E-04  0.4015E-04  0.9117E-06  0.4283E-06  0.9122E-06  0.4293E-06  0.4165E-06  0.1463E-06  0.9117E-06  0.4283E-06  0.4932E-06  0.1710E-06
     -3.220  0.8923E-02  0.6258E-02  0.1189E-03  0.7932E-04  0.1189E-03  0.7932E-04  0.1189E-03  0.7927E-04  0.2127E-05  0.1049E-05  0.2127E-05  0.1050E-05  0.9463E-06  0.3864E-06  0.2127E-05  0.1049E-05  0.1125E-05  0.4602E-06
     -3.147  0.1047E-01  0.8077E-02  0.1728E-03  0.1336E-03  0.1728E-03  0.1336E-03  0.1727E-03  0.1336E-03  0.3997E-05  0.2257E-05  0.3998E-05  0.2257E-05  0.1477E-05  0.7260E-06  0.3997E-05  0.2257E-05  0.1725E-05  0.8584E-06
     -3.074  0.1034E-01  0.8422E-02  0.2182E-03  0.1734E-03  0.2182E-03  0.1734E-03  0.2181E-03  0.1734E-03  0.6449E-05  0.3797E-05  0.6451E-05  0.3797E-05  0.2353E-05  0.1070E-05  0.6449E-05  0.3797E-05  0.2679E-05  0.1231E-05
     -3.001  0.1225E-01  0.8954E-02  0.3233E-03  0.2402E-03  0.3233E-03  0.2402E-03  0.3230E-03  0.2399E-03  0.1054E-04  0.6267E-05  0.1054E-04  0.6267E-05  0.4621E-05  0.1976E-05  0.1054E-04  0.6267E-05  0.5385E-05  0.2266E-05
     -2.928  0.1394E-01  0.1083E-01  0.4229E-03  0.3459E-03  0.4229E-03  0.3459E-03  0.4228E-03  0.3456E-03  0.1485E-04  0.9496E-05  0.1486E-04  0.9496E-05  0.7129E-05  0.3550E-05  0.1485E-04  0.9496E-05  0.8545E-05  0.4213E-05
     -2.855  0.1368E-01  0.1113E-01  0.4774E-03  0.4078E-03  0.4774E-03  0.4078E-03  0.4774E-03  0.4078E-03  0.2164E-04  0.1327E-04  0.2165E-04  0.1328E-04  0.8027E-05  0.4492E-05  0.2164E-04  0.1327E-04  0.9463E-05  0.5371E-05
     -2.782  0.1431E-01  0.1114E-01  0.5734E-03  0.4734E-03  0.5734E-03  0.4734E-03  0.5732E-03  0.4733E-03  0.3248E-04  0.2021E-04  0.3249E-04  0.2026E-04  0.9541E-05  0.5017E-05  0.3248E-04  0.2021E-04  0.1083E-04  0.5774E-05
     -2.708  0.1406E-01  0.1157E-01  0.6338E-03  0.5580E-03  0.6338E-03  0.5580E-03  0.6332E-03  0.5576E-03  0.3790E-04  0.2677E-04  0.3789E-04  0.2684E-04  0.1248E-04  0.6378E-05  0.3790E-04  0.2677E-04  0.1448E-04  0.7297E-05
     -2.635  0.1412E-01  0.1094E-01  0.7432E-03  0.6124E-03  0.7432E-03  0.6124E-03  0.7419E-03  0.6114E-03  0.4453E-04  0.2920E-04  0.4455E-04  0.2925E-04  0.1919E-04  0.9017E-05  0.4453E-04  0.2920E-04  0.2309E-04  0.1075E-04
     -2.562  0.1700E-01  0.1262E-01  0.9930E-03  0.8124E-03  0.9930E-03  0.8124E-03  0.9923E-03  0.8114E-03  0.6564E-04  0.4093E-04  0.6570E-04  0.4097E-04  0.2788E-04  0.1392E-04  0.6564E-04  0.4093E-04  0.3315E-04  0.1669E-04
     -2.489  0.1756E-01  0.1390E-01  0.1108E-02  0.9708E-03  0.1108E-02  0.9708E-03  0.1108E-02  0.9708E-03  0.8596E-04  0.5669E-04  0.8599E-04  0.5668E-04  0.3099E-04  0.1676E-04  0.8596E-04  0.5669E-04  0.3579E-04  0.1953E-04
     -2.416  0.1689E-01  0.1351E-01  0.1160E-02  0.1030E-02  0.1160E-02  0.1030E-02  0.1160E-02  0.1030E-02  0.1043E-03  0.7011E-04  0.1043E-03  0.7005E-04  0.3177E-04  0.1750E-04  0.1043E-03  0.7011E-04  0.3661E-04  0.2012E-04
     -2.343  0.1477E-01  0.1231E-01  0.1102E-02  0.1021E-02  0.1102E-02  0.1021E-02  0.1102E-02  0.1021E-02  0.1143E-03  0.7970E-04  0.1143E-03  0.7963E-04  0.2877E-04  0.1651E-04  0.1143E-03  0.7970E-04  0.3336E-04  0.1913E-04
     -2.270  0.1379E-01  0.1078E-01  0.1179E-02  0.1017E-02  0.1179E-02  0.1017E-02  0.1176E-02  0.1015E-02  0.1301E-03  0.8656E-04  0.1303E-03  0.8661E-04  0.3526E-04  0.1726E-04  0.1301E-03  0.8656E-04  0.4111E-04  0.2015E-04
     -2.197  0.1723E-01  0.1255E-01  0.1666E-02  0.1380E-02  0.1666E-02  0.1380E-02  0.1662E-02  0.1375E-02  0.1787E-03  0.1146E-03  0.1789E-03  0.1148E-03  0.5989E-04  0.2815E-04  0.1787E-03  0.1146E-03  0.7005E-04  0.3297E-04
     -2.124  0.1898E-01  0.1462E-01  0.1979E-02  0.1759E-02  0.1979E-02  0.1759E-02  0.1978E-02  0.1757E-02  0.2168E-03  0.1472E-03  0.2167E-03  0.1471E-03  0.7531E-04  0.3848E-04  0.2168E-03  0.1472E-03  0.8903E-04  0.4527E-04
     -2.051  0.1780E-01  0.1377E-01  0.2008E-02  0.1795E-02  0.2008E-02  0.1795E-02  0.2007E-02  0.1795E-02  0.2490E-03  0.1668E-03  0.2491E-03  0.1668E-03  0.7473E-04  0.3838E-04  0.2490E-03  0.1668E-03  0.8915E-04  0.4559E-04
     -1.978  0.1696E-01  0.1321E-01  0.2058E-02  0.1872E-02  0.2058E-02  0.1872E-02  0.2059E-02  0.1872E-02  0.2837E-03  0.1953E-03  0.2837E-03  0.1953E-03  0.7612E-04  0.3877E-04  0.2837E-03  0.1953E-03  0.9031E-04  0.4605E-04
     -1.905  0.1389E-01  0.1095E-01  0.1844E-02  0.1716E-02  0.1844E-02  0.1716E-02  0.1845E-02  0.1716E-02  0.2896E-03  0.1963E-03  0.2899E-03  0.1964E-03  0.6737E-04  0.3480E-04  0.2896E-03  0.1963E-03  0.7740E-04  0.4040E-04
     -1.832  0.1482E-01  0.1079E-01  0.2250E-02  0.2014E-02  0.2250E-02  0.2014E-02  0.2242E-02  0.2006E-02  0.4010E-03  0.2536E-03  0.4016E-03  0.2542E-03  0.7568E-04  0.3719E-04  0.4010E-03  0.2536E-03  0.8405E-04  0.4160E-04
     -1.759  0.1726E-01  0.1290E-01  0.3071E-02  0.2865E-02  0.3071E-02  0.2865E-02  0.3060E-02  0.2854E-02  0.5285E-03  0.3538E-03  0.5286E-03  0.3541E-03  0.9720E-04  0.4792E-04  0.5285E-03  0.3538E-03  0.1096E-03  0.5393E-04
     -1.686  0.1576E-01  0.1205E-01  0.3389E-02  0.3156E-02  0.3389E-02  0.3156E-02  0.3384E-02  0.3154E-02  0.5418E-03  0.3809E-03  0.5415E-03  0.3809E-03  0.1020E-03  0.4855E-04  0.5418E-03  0.3809E-03  0.1177E-03  0.5552E-04
     -1.613  0.1296E-01  0.9707E-02  0.3318E-02  0.3020E-02  0.3318E-02  0.3020E-02  0.3316E-02  0.3019E-02  0.5548E-03  0.3880E-03  0.5552E-03  0.3883E-03  0.9492E-04  0.4286E-04  0.5548E-03  0.3880E-03  0.1114E-03  0.4967E-04
     -1.540  0.1164E-01  0.8275E-02  0.3397E-02  0.2960E-02  0.3397E-02  0.2960E-02  0.3397E-02  0.2964E-02  0.6454E-03  0.4251E-03  0.6464E-03  0.4254E-03  0.9426E-04  0.4041E-04  0.6454E-03  0.4251E-03  0.1097E-03  0.4668E-04
     -1.467  0.1226E-01  0.8240E-02  0.3495E-02  0.2883E-02  0.3495E-02  0.2883E-02  0.3499E-02  0.2886E-02  0.8489E-03  0.5295E-03  0.8504E-03  0.5305E-03  0.9542E-04  0.3928E-04  0.8489E-03  0.5295E-03  0.1052E-03  0.4287E-04
     -1.394  0.1343E-01  0.9597E-02  0.3807E-02  0.3357E-02  0.3807E-02  0.3357E-02  0.3803E-02  0.3353E-02  0.1108E-02  0.7311E-03  0.1109E-02  0.7317E-03  0.1007E-03  0.4450E-04  0.1108E-02  0.7311E-03  0.1078E-03  0.4704E-04
     -1.321  0.1198E-01  0.8681E-02  0.3852E-02  0.3390E-02  0.3852E-02  0.3390E-02  0.3853E-02  0.3394E-02  0.1196E-02  0.7836E-03  0.1196E-02  0.7828E-03  0.9606E-04  0.4209E-04  0.1196E-02  0.7836E-03  0.1046E-03  0.4521E-04
     -1.248  0.9261E-02  0.6579E-02  0.3252E-02  0.2769E-02  0.3252E-02  0.2769E-02  0.3261E-02  0.2777E-02  0.1100E-02  0.6998E-03  0.1098E-02  0.6985E-03  0.7731E-04  0.3251E-04  0.1100E-02  0.6998E-03  0.8420E-04  0.3494E-04
     -1.175  0.6732E-02  0.4718E-02  0.2622E-02  0.2248E-02  0.2622E-02  0.2248E-02  0.2625E-02  0.2252E-02  0.1015E-02  0.6391E-03  0.1015E-02  0.6389E-03  0.5764E-04  0.2402E-04  0.1015E-02  0.6391E-03  0.6269E-04  0.2575E-04
     -1.102  0.7009E-02  0.4612E-02  0.2754E-02  0.2279E-02  0.2754E-02  0.2279E-02  0.2753E-02  0.2278E-02  0.1281E-02  0.7689E-03  0.1285E-02  0.7710E-03  0.6093E-04  0.2355E-04  0.1281E-02  0.7689E-03  0.6349E-04  0.2405E-04
     -1.029  0.8927E-02  0.6061E-02  0.3443E-02  0.2973E-02  0.3443E-02  0.2973E-02  0.3437E-02  0.2967E-02  0.1822E-02  0.1132E-02  0.1826E-02  0.1134E-02  0.8884E-04  0.3257E-04  0.1822E-02  0.1132E-02  0.9018E-04  0.3167E-04
     -0.956  0.8706E-02  0.5634E-02  0.3489E-02  0.3020E-02  0.3489E-02  0.3020E-02  0.3491E-02  0.3023E-02  0.1942E-02  0.1205E-02  0.1940E-02  0.1203E-02  0.1285E-03  0.3499E-04  0.1942E-02  0.1205E-02  0.1409E-03  0.3468E-04
     -0.883  0.8967E-02  0.4168E-02  0.2894E-02  0.2373E-02  0.2894E-02  0.2373E-02  0.2899E-02  0.2380E-02  0.1693E-02  0.1010E-02  0.1689E-02  0.1007E-02  0.2466E-03  0.3640E-04  0.1693E-02  0.1010E-02  0.2983E-03  0.3916E-04
     -0.810  0.1301E-01  0.4061E-02  0.2415E-02  0.1804E-02  0.2415E-02  0.1804E-02  0.2421E-02  0.1811E-02  0.1464E-02  0.8367E-03  0.1460E-02  0.8341E-03  0.5303E-03  0.6667E-04  0.1464E-02  0.8367E-03  0.6665E-03  0.8009E-04