 vasp.6.4.1 05Apr23 (build Jul 24 2024 14:19:02) complex                         
 executed on             LinuxGNU date 2024.10.23  16:24:50
 running    1 mpi-ranks, with   24 threads/rank, on    1 nodes
 distrk:  each k-point on    1 cores,    1 groups
 distr:  one band on NCORE=   1 cores,    1 groups


--------------------------------------------------------------------------------------------------------


 INCAR:
   ISTART = 0
   ALGO = Fast
   EDIFF = 0.0001
   ENCUT = 520
   IBRION = -1
   ISIF = 2
   ISMEAR = -5
   ISPIN = 2
   LASPH = True
   LMAXMIX = 6
   LORBIT = 11
   LREAL = Auto
   LWAVE = False
   MAGMOM = 2*0.6
   NELM = 100
   NSW = 0
   PREC = Accurate
   SIGMA = 0.05

 POTCAR:    PAW_PBE Nb_pv 08Apr2002               
 POTCAR:    PAW_PBE Nb_pv 08Apr2002               
   SHA256 =  bac2b60850b34f8515cf56f9feae68b678e347865051052a0e1f5d2c6a691c0a Nb_pv/POTCAR          
   COPYR  = (c) Copyright 08Apr2002 Georg Kresse                                                    
   COPYR  = This file is part of the software VASP. Any use, copying, and all other rights are regul
   COPYR  = If you do not have a valid VASP license, you may not use, copy or distribute this file. 
   VRHFIN =Nb: 4p5s4d                                                                               
   LEXCH  = PE                                                                                      
   EATOM  =  1043.3917 eV,   76.6871 Ry                                                             
                                                                                                    
   TITEL  = PAW_PBE Nb_pv 08Apr2002                                                                 
   LULTRA =        F    use ultrasoft PP ?                                                          
   IUNSCR =        1    unscreen: 0-lin 1-nonlin 2-no                                               
   RPACOR =    2.200    partial core radius                                                         
   POMASS =   92.000; ZVAL   =   11.000    mass and valenz                                          
   RCORE  =    2.750    outmost cutoff radius                                                       
   RWIGS  =    2.840; RWIGS  =    1.503    wigner-seitz radius (au A)                               
   ENMAX  =  208.608; ENMIN  =  156.456 eV                                                          
   RCLOC  =    2.201    cutoff for local pot                                                        
   LCOR   =        T    correct aug charges                                                         
   LPAW   =        T    paw PP                                                                      
   EAUG   =  355.067                                                                                
   DEXC   =    0.000                                                                                
   RMAX   =    2.804    core radius for proj-oper                                                   
   RAUG   =    1.300    factor for augmentation sphere                                              
   RDEP   =    2.776    radius for radial grids                                                     
   RDEPT  =    2.198    core radius for aug-charge                                                  
                                                                                                    
   Atomic configuration                                                                             
   11 entries                                                                                       
     n  l   j            E        occ.                                                              
     1  0  0.50    -18805.2456   2.0000                                                             
     2  0  0.50     -2630.2869   2.0000                                                             
     2  1  1.50     -2348.4045   6.0000                                                             
     3  0  0.50      -438.8756   2.0000                                                             
     3  1  1.50      -346.7587   6.0000                                                             
     3  2  2.50      -196.2559  10.0000                                                             
     4  0  0.50       -58.3859   2.0000                                                             
     4  1  1.50       -34.5141   6.0000                                                             
     4  2  2.50        -3.0408   4.0000                                                             
     5  0  0.50        -3.9816   1.0000                                                             
     4  3  2.50        -1.3606   0.0000                                                             
   Description                                                                                      
     l       E           TYP  RCUT    TYP  RCUT                                                     
     1    -34.5140617     23  2.600                                                                 
     1     -1.3605826     23  2.600                                                                 
     2     -3.0407924     23  2.600                                                                 
     2     -1.4463597     23  2.600                                                                 
     0     -3.9816219     23  2.750                                                                 
     0     20.4087390     23  2.750                                                                 
  local pseudopotential read in
  partial core-charges read in
  partial kinetic energy density read in
  atomic valenz-charges read in
  non local Contribution for L=           1  read in
    real space projection operators read in
  non local Contribution for L=           1  read in
    real space projection operators read in
  non local Contribution for L=           2  read in
    real space projection operators read in
  non local Contribution for L=           2  read in
    real space projection operators read in
  non local Contribution for L=           0  read in
    real space projection operators read in
  non local Contribution for L=           0  read in
    real space projection operators read in
    PAW grid and wavefunctions read in

   number of l-projection  operators is LMAX  =           6
   number of lm-projection operators is LMMAX =          18

 -----------------------------------------------------------------------------
|                                                                             |
|               ----> ADVICE to this user running VASP <----                  |
|                                                                             |
|     You have a (more or less) 'small supercell' and for smaller cells       |
|     it is recommended to use the reciprocal-space projection scheme!        |
|     The real-space optimization is not efficient for small cells and it     |
|     is also less accurate ...                                               |
|     Therefore, set LREAL=.FALSE. in the INCAR file.                         |
|                                                                             |
 -----------------------------------------------------------------------------

 Optimization of the real space projectors (new method)

 maximal supplied QI-value         = 13.61
 optimisation between [QCUT,QGAM] = [ 11.57, 23.27] = [ 37.45,151.59] Ry 
 Optimized for a Real-space Cutoff    1.63 Angstroem

   l    n(q)    QCUT    max X(q) W(low)/X(q) W(high)/X(q)  e(spline) 
   1     11    11.565     4.545    0.12E-04    0.18E-04    0.64E-07
   1     11    11.565     6.014    0.42E-04    0.48E-04    0.13E-06
   2     10    11.565   266.542    0.24E-03    0.87E-04    0.13E-05
   2     10    11.565   232.726    0.24E-03    0.87E-04    0.13E-05
   0     11    11.565    38.050    0.76E-04    0.32E-05    0.94E-06
   0     11    11.565    16.565    0.58E-04    0.25E-05    0.73E-06
  PAW_PBE Nb_pv 08Apr2002               :
 energy of atom  1       EATOM=-1043.3917
 kinetic energy error for atom=    0.0011 (will be added to EATOM!!)


 POSCAR: Generated POSCAR
  positions in direct lattice
  velocities in cartesian coordinates
 exchange correlation table for  LEXCH =        8
   RHO(1)=    0.500       N(1)  =     2000
   RHO(2)=  100.500       N(2)  =     4000



--------------------------------------------------------------------------------------------------------


 ion  position               nearest neighbor table
   1  0.000  0.000  0.000-   2 2.88   2 2.88   2 2.88   2 2.88   2 2.88   2 2.88   2 2.88   2 2.88

   2  0.500  0.500  0.500-   1 2.88   1 2.88   1 2.88   1 2.88   1 2.88   1 2.88   1 2.88   1 2.88


  LATTYP: Found a simple orthorhombic cell.
 ALAT       =     3.2886711696
 B/A-ratio  =     1.0101010101
 C/A-ratio  =     1.0202020202
  
  Lattice vectors:
  
 A1 = (  -0.0000000000,  -3.2886711696,   0.0000000000)
 A2 = (   3.3218900703,   0.0000000000,   0.0000000000)
 A3 = (   0.0000000000,   0.0000000000,   3.3551089710)


Analysis of symmetry for initial positions (statically):
=====================================================================
 Subroutine PRICEL returns following result:
 
  LATTYP: Found a body centered orthorhombic cell.
 ALAT       =     3.2886711696
 B/A-ratio  =     1.0101010101
 C/A-ratio  =     1.0202020202
  
  Lattice vectors:
  
 A1 = (  -1.6609450351,   1.6443355848,  -1.6775544855)
 A2 = (   1.6609450351,  -1.6443355848,  -1.6775544855)
 A3 = (  -1.6609450351,  -1.6443355848,   1.6775544855)
 
   2 primitive cells build up your supercell.
 

 Routine SETGRP: Setting up the symmetry group for a 
 simple orthorhombic supercell.


 Subroutine GETGRP returns: Found  8 space group operations
 (whereof  8 operations were pure point group operations)
 out of a pool of  8 trial point group operations.


The static configuration has the point symmetry D_2h.


Analysis of symmetry for dynamics (positions and initial velocities):
=====================================================================
 Subroutine PRICEL returns following result:
 
  LATTYP: Found a body centered orthorhombic cell.
 ALAT       =     3.2886711696
 B/A-ratio  =     1.0101010101
 C/A-ratio  =     1.0202020202
  
  Lattice vectors:
  
 A1 = (  -1.6609450351,   1.6443355848,  -1.6775544855)
 A2 = (   1.6609450351,  -1.6443355848,  -1.6775544855)
 A3 = (  -1.6609450351,  -1.6443355848,   1.6775544855)
 
   2 primitive cells build up your supercell.
 

 Routine SETGRP: Setting up the symmetry group for a 
 simple orthorhombic supercell.


 Subroutine GETGRP returns: Found  8 space group operations
 (whereof  8 operations were pure point group operations)
 out of a pool of  8 trial point group operations.


The dynamic configuration has the point symmetry D_2h.


Analysis of structural, dynamic, and magnetic symmetry:
=====================================================================
 Subroutine PRICEL returns following result:
 
  LATTYP: Found a body centered orthorhombic cell.
 ALAT       =     3.2886711696
 B/A-ratio  =     1.0101010101
 C/A-ratio  =     1.0202020202
  
  Lattice vectors:
  
 A1 = (  -1.6609450351,   1.6443355848,  -1.6775544855)
 A2 = (   1.6609450351,  -1.6443355848,  -1.6775544855)
 A3 = (  -1.6609450351,  -1.6443355848,   1.6775544855)
 
   2 primitive cells build up your supercell.
 

 Routine SETGRP: Setting up the symmetry group for a 
 simple orthorhombic supercell.


 Subroutine GETGRP returns: Found  8 space group operations
 (whereof  8 operations were pure point group operations)
 out of a pool of  8 trial point group operations.


The overall configuration has the point symmetry D_2h.


 Subroutine INISYM returns: Found  8 space group operations
 (whereof  8 operations are pure point group operations),
 and found     2 'primitive' translations


----------------------------------------------------------------------------------------

                                     Primitive cell                                     

  volume of cell :      18.3266

  direct lattice vectors                    reciprocal lattice vectors
    -1.660945035  1.644335585 -1.677554485    -0.301033441  0.000000000 -0.298052912
     1.660945035 -1.644335585 -1.677554485     0.000000000 -0.304074183 -0.298052912
    -1.660945035 -1.644335585  1.677554485    -0.301033441 -0.304074183  0.000000000

  length of vectors
     2.876937083  2.876937083  2.876937083     0.423623266  0.425789440  0.427881107

  position of ions in fractional coordinates (direct lattice)
     0.000000000  0.000000000  0.000000000

  ion indices of the primitive-cell ions
   primitive index   ion index
                 1           1

----------------------------------------------------------------------------------------



 KPOINTS: pymatgen with grid density = 869 / numbe

Automatic generation of k-mesh.
 Grid dimensions read from file:
 generate k-points for:    7    7    7

 Generating k-lattice:

  Cartesian coordinates                     Fractional coordinates (reciprocal lattice)
     0.043004777 -0.000000000  0.000000000     0.142857143  0.000000000  0.000000000
     0.000000000  0.043439169  0.000000000     0.000000000  0.142857143  0.000000000
    -0.000000000 -0.000000000  0.042578987     0.000000000 -0.000000000  0.142857143

  Length of vectors
     0.043004777  0.043439169  0.042578987

  Shift w.r.t. Gamma in fractional coordinates (k-lattice)
     0.000000000  0.000000000  0.000000000

 TETIRR: Found   1000 inequivalent tetrahedra from     2058
 
 Subroutine IBZKPT returns following result:
 ===========================================
 
 Found     64 irreducible k-points:
 
 Following reciprocal coordinates:
            Coordinates               Weight
  0.000000  0.000000  0.000000      1.000000
  0.142857  0.000000  0.000000      2.000000
  0.285714  0.000000  0.000000      2.000000
  0.428571  0.000000  0.000000      2.000000
  0.000000  0.142857  0.000000      2.000000
  0.142857  0.142857  0.000000      4.000000
  0.285714  0.142857  0.000000      4.000000
  0.428571  0.142857  0.000000      4.000000
  0.000000  0.285714  0.000000      2.000000
  0.142857  0.285714  0.000000      4.000000
  0.285714  0.285714  0.000000      4.000000
  0.428571  0.285714  0.000000      4.000000
  0.000000  0.428571  0.000000      2.000000
  0.142857  0.428571  0.000000      4.000000
  0.285714  0.428571  0.000000      4.000000
  0.428571  0.428571  0.000000      4.000000
  0.000000  0.000000  0.142857      2.000000
  0.142857  0.000000  0.142857      4.000000
  0.285714  0.000000  0.142857      4.000000
  0.428571  0.000000  0.142857      4.000000
  0.000000  0.142857  0.142857      4.000000
  0.142857  0.142857  0.142857      8.000000
  0.285714  0.142857  0.142857      8.000000
  0.428571  0.142857  0.142857      8.000000
  0.000000  0.285714  0.142857      4.000000
  0.142857  0.285714  0.142857      8.000000
  0.285714  0.285714  0.142857      8.000000
  0.428571  0.285714  0.142857      8.000000
  0.000000  0.428571  0.142857      4.000000
  0.142857  0.428571  0.142857      8.000000
  0.285714  0.428571  0.142857      8.000000
  0.428571  0.428571  0.142857      8.000000
  0.000000  0.000000  0.285714      2.000000
  0.142857  0.000000  0.285714      4.000000
  0.285714  0.000000  0.285714      4.000000
  0.428571  0.000000  0.285714      4.000000
  0.000000  0.142857  0.285714      4.000000
  0.142857  0.142857  0.285714      8.000000
  0.285714  0.142857  0.285714      8.000000
  0.428571  0.142857  0.285714      8.000000
  0.000000  0.285714  0.285714      4.000000
  0.142857  0.285714  0.285714      8.000000
  0.285714  0.285714  0.285714      8.000000
  0.428571  0.285714  0.285714      8.000000
  0.000000  0.428571  0.285714      4.000000
  0.142857  0.428571  0.285714      8.000000
  0.285714  0.428571  0.285714      8.000000
  0.428571  0.428571  0.285714      8.000000
  0.000000  0.000000  0.428571      2.000000
  0.142857  0.000000  0.428571      4.000000
  0.285714  0.000000  0.428571      4.000000
  0.428571  0.000000  0.428571      4.000000
  0.000000  0.142857  0.428571      4.000000
  0.142857  0.142857  0.428571      8.000000
  0.285714  0.142857  0.428571      8.000000
  0.428571  0.142857  0.428571      8.000000
  0.000000  0.285714  0.428571      4.000000
  0.142857  0.285714  0.428571      8.000000
  0.285714  0.285714  0.428571      8.000000
  0.428571  0.285714  0.428571      8.000000
  0.000000  0.428571  0.428571      4.000000
  0.142857  0.428571  0.428571      8.000000
  0.285714  0.428571  0.428571      8.000000
  0.428571  0.428571  0.428571      8.000000
 
 Following cartesian coordinates:
            Coordinates               Weight
  0.000000  0.000000  0.000000      1.000000
  0.043005  0.000000  0.000000      2.000000
  0.086010  0.000000  0.000000      2.000000
  0.129014  0.000000  0.000000      2.000000
  0.000000  0.043439  0.000000      2.000000
  0.043005  0.043439  0.000000      4.000000
  0.086010  0.043439  0.000000      4.000000
  0.129014  0.043439  0.000000      4.000000
  0.000000  0.086878  0.000000      2.000000
  0.043005  0.086878  0.000000      4.000000
  0.086010  0.086878  0.000000      4.000000
  0.129014  0.086878  0.000000      4.000000
  0.000000  0.130318  0.000000      2.000000
  0.043005  0.130318  0.000000      4.000000
  0.086010  0.130318  0.000000      4.000000
  0.129014  0.130318  0.000000      4.000000
  0.000000  0.000000  0.042579      2.000000
  0.043005  0.000000  0.042579      4.000000
  0.086010  0.000000  0.042579      4.000000
  0.129014  0.000000  0.042579      4.000000
  0.000000  0.043439  0.042579      4.000000
  0.043005  0.043439  0.042579      8.000000
  0.086010  0.043439  0.042579      8.000000
  0.129014  0.043439  0.042579      8.000000
  0.000000  0.086878  0.042579      4.000000
  0.043005  0.086878  0.042579      8.000000
  0.086010  0.086878  0.042579      8.000000
  0.129014  0.086878  0.042579      8.000000
  0.000000  0.130318  0.042579      4.000000
  0.043005  0.130318  0.042579      8.000000
  0.086010  0.130318  0.042579      8.000000
  0.129014  0.130318  0.042579      8.000000
  0.000000  0.000000  0.085158      2.000000
  0.043005  0.000000  0.085158      4.000000
  0.086010  0.000000  0.085158      4.000000
  0.129014  0.000000  0.085158      4.000000
  0.000000  0.043439  0.085158      4.000000
  0.043005  0.043439  0.085158      8.000000
  0.086010  0.043439  0.085158      8.000000
  0.129014  0.043439  0.085158      8.000000
  0.000000  0.086878  0.085158      4.000000
  0.043005  0.086878  0.085158      8.000000
  0.086010  0.086878  0.085158      8.000000
  0.129014  0.086878  0.085158      8.000000
  0.000000  0.130318  0.085158      4.000000
  0.043005  0.130318  0.085158      8.000000
  0.086010  0.130318  0.085158      8.000000
  0.129014  0.130318  0.085158      8.000000
  0.000000  0.000000  0.127737      2.000000
  0.043005  0.000000  0.127737      4.000000
  0.086010  0.000000  0.127737      4.000000
  0.129014  0.000000  0.127737      4.000000
  0.000000  0.043439  0.127737      4.000000
  0.043005  0.043439  0.127737      8.000000
  0.086010  0.043439  0.127737      8.000000
  0.129014  0.043439  0.127737      8.000000
  0.000000  0.086878  0.127737      4.000000
  0.043005  0.086878  0.127737      8.000000
  0.086010  0.086878  0.127737      8.000000
  0.129014  0.086878  0.127737      8.000000
  0.000000  0.130318  0.127737      4.000000
  0.043005  0.130318  0.127737      8.000000
  0.086010  0.130318  0.127737      8.000000
  0.129014  0.130318  0.127737      8.000000
 


--------------------------------------------------------------------------------------------------------




 Dimension of arrays:
   k-points           NKPTS =     64   k-points in BZ     NKDIM =     64   number of bands    NBANDS=     16
   number of dos      NEDOS =    301   number of ions     NIONS =      2
   non local maximal  LDIM  =      6   non local SUM 2l+1 LMDIM =     18
   total plane-waves  NPLWV =  18816
   max r-space proj   IRMAX =   9315   max aug-charges    IRDMAX=  31802
   dimension x,y,z NGX =    28 NGY =   24 NGZ =   28
   dimension x,y,z NGXF=    56 NGYF=   48 NGZF=   56
   support grid    NGXF=    56 NGYF=   48 NGZF=   56
   ions per type =               2
   NGX,Y,Z   is equivalent  to a cutoff of  14.01, 12.13, 13.87 a.u.
   NGXF,Y,Z  is equivalent  to a cutoff of  28.03, 24.26, 27.75 a.u.

 SYSTEM =  unknown system                          
 POSCAR =  Generated POSCAR                        

 Startparameter for this run:
   NWRITE =      2    write-flag & timer
   PREC   = accura    normal or accurate (medium, high low for compatibility)
   ISTART =      0    job   : 0-new  1-cont  2-samecut
   ICHARG =      2    charge: 1-file 2-atom 10-const
   ISPIN  =      2    spin polarized calculation?
   LNONCOLLINEAR =      F non collinear calculations
   LSORBIT =      F    spin-orbit coupling
   INIWAV =      1    electr: 0-lowe 1-rand  2-diag
   LASPH  =      T    aspherical Exc in radial PAW
 Electronic Relaxation 1
   ENCUT  =  520.0 eV  38.22 Ry    6.18 a.u.   6.18  6.11  6.24*2*pi/ulx,y,z
   ENINI  =  520.0     initial cutoff
   ENAUG  =  355.1 eV  augmentation charge cutoff
   NELM   =    100;   NELMIN=  2; NELMDL= -5     # of ELM steps 
   EDIFF  = 0.1E-03   stopping-criterion for ELM
   LREAL  =      T    real-space projection
   NLSPLINE    = F    spline interpolate recip. space projectors
   LCOMPAT=      F    compatible to vasp.4.4
   GGA_COMPAT  = T    GGA compatible to vasp.4.4-vasp.4.6
   LMAXPAW     = -100 max onsite density
   LMAXMIX     =    6 max onsite mixed and CHGCAR
   VOSKOWN=      0    Vosko Wilk Nusair interpolation
   ROPT   =   -0.00025
 Ionic relaxation
   EDIFFG = 0.1E-02   stopping-criterion for IOM
   NSW    =      0    number of steps for IOM
   NBLOCK =      1;   KBLOCK =      1    inner block; outer block 
   IBRION =     -1    ionic relax: 0-MD 1-quasi-New 2-CG
   NFREE  =      0    steps in history (QN), initial steepest desc. (CG)
   ISIF   =      2    stress and relaxation
   IWAVPR =     10    prediction:  0-non 1-charg 2-wave 3-comb
   ISYM   =      2    0-nonsym 1-usesym 2-fastsym
   LCORR  =      T    Harris-Foulkes like correction to forces

   POTIM  = 0.5000    time-step for ionic-motion
   TEIN   =    0.0    initial temperature
   TEBEG  =    0.0;   TEEND  =   0.0 temperature during run
   SMASS  =  -3.00    Nose mass-parameter (am)
   estimated Nose-frequenzy (Omega)   =  0.10E-29 period in steps = 0.13E+47 mass=  -0.252E-27a.u.
   SCALEE = 1.0000    scale energy and forces
   NPACO  =    256;   APACO  = 10.0  distance and # of slots for P.C.
   PSTRESS=    0.0 pullay stress

  Mass of Ions in am
   POMASS =  92.00
  Ionic Valenz
   ZVAL   =  11.00
  Atomic Wigner-Seitz radii
   RWIGS  =  -1.00
  virtual crystal weights 
   VCA    =   1.00
   NELECT =      22.0000    total number of electrons
   NUPDOWN=      -1.0000    fix difference up-down

 DOS related values:
   EMIN   =  10.00;   EMAX   =-10.00  energy-range for DOS
   EFERMI =   0.00;   METHOD = LEGACY      
   ISMEAR =    -5;   SIGMA  =   0.05  broadening in eV -4-tet -1-fermi 0-gaus

 Electronic relaxation 2 (details)
   IALGO  =     68    algorithm
   LDIAG  =      T    sub-space diagonalisation (order eigenvalues)
   LSUBROT=      F    optimize rotation matrix (better conditioning)
   TURBO    =      0    0=normal 1=particle mesh
   IRESTART =      0    0=no restart 2=restart with 2 vectors
   NREBOOT  =      0    no. of reboots
   NMIN     =      0    reboot dimension
   EREF     =   0.00    reference energy to select bands
   IMIX   =      4    mixing-type and parameters
     AMIX     =   0.40;   BMIX     =  1.00
     AMIX_MAG =   1.60;   BMIX_MAG =  1.00
     AMIN     =   0.10
     WC   =   100.;   INIMIX=   1;  MIXPRE=   1;  MAXMIX= -45

 Intra band minimization:
   WEIMIN = 0.0000     energy-eigenvalue tresh-hold
   EBREAK =  0.16E-05  absolut break condition
   DEPER  =   0.30     relativ break condition  

   TIME   =   0.40     timestep for ELM

  volume/ion in A,a.u.               =      18.33       123.67
  Fermi-wavevector in a.u.,A,eV,Ry     =   1.380951  2.609619 25.946661  1.907026
  Thomas-Fermi vector in A             =   2.505781

 Write flags
   LWAVE        =      F    write WAVECAR
   LDOWNSAMPLE  =      F    k-point downsampling of WAVECAR
   LCHARG       =      T    write CHGCAR
   LVTOT        =      F    write LOCPOT, total local potential
   LVHAR        =      F    write LOCPOT, Hartree potential only
   LELF         =      F    write electronic localiz. function (ELF)
   LORBIT       =     11    0 simple, 1 ext, 2 COOP (PROOUT), +10 PAW based schemes


 Dipole corrections
   LMONO  =      F    monopole corrections only (constant potential shift)
   LDIPOL =      F    correct potential (dipole corrections)
   IDIPOL =      0    1-x, 2-y, 3-z, 4-all directions 
   EPSILON=  1.0000000 bulk dielectric constant

 Exchange correlation treatment:
   GGA     =    --    GGA type
   LEXCH   =     8    internal setting for exchange type
   LIBXC   =     F    Libxc                    
   VOSKOWN =     0    Vosko Wilk Nusair interpolation
   LHFCALC =     F    Hartree Fock is set to
   LHFONE  =     F    Hartree Fock one center treatment
   AEXX    =    0.0000 exact exchange contribution

 Linear response parameters
   LEPSILON=     F    determine dielectric tensor
   LRPA    =     F    only Hartree local field effects (RPA)
   LNABLA  =     F    use nabla operator in PAW spheres
   LVEL    =     F    velocity operator in full k-point grid
   CSHIFT  =0.1000    complex shift for real part using Kramers Kronig
   OMEGAMAX=  -1.0    maximum frequency
   DEG_THRESHOLD= 0.2000000E-02 threshold for treating states as degnerate
   RTIME   =   -0.100 relaxation time in fs
  (WPLASMAI=    0.000 imaginary part of plasma frequency in eV, 0.658/RTIME)
   DFIELD  = 0.0000000 0.0000000 0.0000000 field for delta impulse in time

  Optional k-point grid parameters
   LKPOINTS_OPT  =     F    use optional k-point grid
   KPOINTS_OPT_MODE=     1    mode for optional k-point grid

 Orbital magnetization related:
   ORBITALMAG=     F  switch on orbital magnetization
   LCHIMAG   =     F  perturbation theory with respect to B field
   DQ        =  0.001000  dq finite difference perturbation B field
   LLRAUG    =     F  two centre corrections for induced B field
   LBONE     =     F  B-component reconstruction in AE one-centre
   LVGVCALC  =     T  calculate vGv susceptibility
   LVGVAPPL  =     F  apply vGv susceptibility instead of pGv for G=0

 Random number generation:
   RANDOM_GENERATOR = DEFAULT
   PCG_SEED         = not used


--------------------------------------------------------------------------------------------------------


 Static calculation
 charge density and potential will be updated during run
 spin polarized calculation
 RMM-DIIS sequential band-by-band and
  variant of blocked Davidson during initial phase
 perform sub-space diagonalisation
    before iterative eigenvector-optimisation
 modified Broyden-mixing scheme, WC =      100.0
 initial mixing is a Kerker type mixing with AMIX =  0.4000 and BMIX =      1.0000
 Hartree-type preconditioning will be used
 using additional bands            5
 real space projection scheme for non local part
 use partial core corrections
 calculate Harris-corrections to forces   (improved forces if not selfconsistent)
 use gradient corrections 
 use of overlap-Matrix (Vanderbilt PP)
 Fermi weights with tetrahedron method with Bloechl corrections


--------------------------------------------------------------------------------------------------------


  energy-cutoff  :      520.00
  volume of cell :       36.65
      direct lattice vectors                 reciprocal lattice vectors
     3.321890070  0.000000000  0.000000000     0.301033441 -0.000000000  0.000000000
     0.000000000  3.288671170  0.000000000     0.000000000  0.304074183  0.000000000
     0.000000000  0.000000000  3.355108971    -0.000000000 -0.000000000  0.298052912

  length of vectors
     3.321890070  3.288671170  3.355108971     0.301033441  0.304074183  0.298052912



 k-points in units of 2pi/SCALE and weight: pymatgen with grid density = 869 / numbe
   0.00000000  0.00000000  0.00000000       0.003
   0.04300478  0.00000000  0.00000000       0.006
   0.08600955  0.00000000  0.00000000       0.006
   0.12901433  0.00000000  0.00000000       0.006
   0.00000000  0.04343917  0.00000000       0.006
   0.04300478  0.04343917  0.00000000       0.012
   0.08600955  0.04343917  0.00000000       0.012
   0.12901433  0.04343917  0.00000000       0.012
   0.00000000  0.08687834  0.00000000       0.006
   0.04300478  0.08687834  0.00000000       0.012
   0.08600955  0.08687834  0.00000000       0.012
   0.12901433  0.08687834  0.00000000       0.012
   0.00000000  0.13031751  0.00000000       0.006
   0.04300478  0.13031751  0.00000000       0.012
   0.08600955  0.13031751  0.00000000       0.012
   0.12901433  0.13031751  0.00000000       0.012
   0.00000000  0.00000000  0.04257899       0.006
   0.04300478  0.00000000  0.04257899       0.012
   0.08600955  0.00000000  0.04257899       0.012
   0.12901433  0.00000000  0.04257899       0.012
   0.00000000  0.04343917  0.04257899       0.012
   0.04300478  0.04343917  0.04257899       0.023
   0.08600955  0.04343917  0.04257899       0.023
   0.12901433  0.04343917  0.04257899       0.023
   0.00000000  0.08687834  0.04257899       0.012
   0.04300478  0.08687834  0.04257899       0.023
   0.08600955  0.08687834  0.04257899       0.023
   0.12901433  0.08687834  0.04257899       0.023
   0.00000000  0.13031751  0.04257899       0.012
   0.04300478  0.13031751  0.04257899       0.023
   0.08600955  0.13031751  0.04257899       0.023
   0.12901433  0.13031751  0.04257899       0.023
   0.00000000  0.00000000  0.08515797       0.006
   0.04300478  0.00000000  0.08515797       0.012
   0.08600955  0.00000000  0.08515797       0.012
   0.12901433  0.00000000  0.08515797       0.012
   0.00000000  0.04343917  0.08515797       0.012
   0.04300478  0.04343917  0.08515797       0.023
   0.08600955  0.04343917  0.08515797       0.023
   0.12901433  0.04343917  0.08515797       0.023
   0.00000000  0.08687834  0.08515797       0.012
   0.04300478  0.08687834  0.08515797       0.023
   0.08600955  0.08687834  0.08515797       0.023
   0.12901433  0.08687834  0.08515797       0.023
   0.00000000  0.13031751  0.08515797       0.012
   0.04300478  0.13031751  0.08515797       0.023
   0.08600955  0.13031751  0.08515797       0.023
   0.12901433  0.13031751  0.08515797       0.023
   0.00000000  0.00000000  0.12773696       0.006
   0.04300478  0.00000000  0.12773696       0.012
   0.08600955  0.00000000  0.12773696       0.012
   0.12901433  0.00000000  0.12773696       0.012
   0.00000000  0.04343917  0.12773696       0.012
   0.04300478  0.04343917  0.12773696       0.023
   0.08600955  0.04343917  0.12773696       0.023
   0.12901433  0.04343917  0.12773696       0.023
   0.00000000  0.08687834  0.12773696       0.012
   0.04300478  0.08687834  0.12773696       0.023
   0.08600955  0.08687834  0.12773696       0.023
   0.12901433  0.08687834  0.12773696       0.023
   0.00000000  0.13031751  0.12773696       0.012
   0.04300478  0.13031751  0.12773696       0.023
   0.08600955  0.13031751  0.12773696       0.023
   0.12901433  0.13031751  0.12773696       0.023

 k-points in reciprocal lattice and weights: pymatgen with grid density = 869 / numbe
   0.00000000  0.00000000  0.00000000       0.003
   0.14285714  0.00000000  0.00000000       0.006
   0.28571429  0.00000000  0.00000000       0.006
   0.42857143  0.00000000  0.00000000       0.006
   0.00000000  0.14285714  0.00000000       0.006
   0.14285714  0.14285714  0.00000000       0.012
   0.28571429  0.14285714  0.00000000       0.012
   0.42857143  0.14285714  0.00000000       0.012
   0.00000000  0.28571429  0.00000000       0.006
   0.14285714  0.28571429  0.00000000       0.012
   0.28571429  0.28571429  0.00000000       0.012
   0.42857143  0.28571429  0.00000000       0.012
   0.00000000  0.42857143  0.00000000       0.006
   0.14285714  0.42857143  0.00000000       0.012
   0.28571429  0.42857143  0.00000000       0.012
   0.42857143  0.42857143  0.00000000       0.012
   0.00000000  0.00000000  0.14285714       0.006
   0.14285714  0.00000000  0.14285714       0.012
   0.28571429  0.00000000  0.14285714       0.012
   0.42857143  0.00000000  0.14285714       0.012
   0.00000000  0.14285714  0.14285714       0.012
   0.14285714  0.14285714  0.14285714       0.023
   0.28571429  0.14285714  0.14285714       0.023
   0.42857143  0.14285714  0.14285714       0.023
   0.00000000  0.28571429  0.14285714       0.012
   0.14285714  0.28571429  0.14285714       0.023
   0.28571429  0.28571429  0.14285714       0.023
   0.42857143  0.28571429  0.14285714       0.023
   0.00000000  0.42857143  0.14285714       0.012
   0.14285714  0.42857143  0.14285714       0.023
   0.28571429  0.42857143  0.14285714       0.023
   0.42857143  0.42857143  0.14285714       0.023
   0.00000000  0.00000000  0.28571429       0.006
   0.14285714  0.00000000  0.28571429       0.012
   0.28571429  0.00000000  0.28571429       0.012
   0.42857143  0.00000000  0.28571429       0.012
   0.00000000  0.14285714  0.28571429       0.012
   0.14285714  0.14285714  0.28571429       0.023
   0.28571429  0.14285714  0.28571429       0.023
   0.42857143  0.14285714  0.28571429       0.023
   0.00000000  0.28571429  0.28571429       0.012
   0.14285714  0.28571429  0.28571429       0.023
   0.28571429  0.28571429  0.28571429       0.023
   0.42857143  0.28571429  0.28571429       0.023
   0.00000000  0.42857143  0.28571429       0.012
   0.14285714  0.42857143  0.28571429       0.023
   0.28571429  0.42857143  0.28571429       0.023
   0.42857143  0.42857143  0.28571429       0.023
   0.00000000  0.00000000  0.42857143       0.006
   0.14285714  0.00000000  0.42857143       0.012
   0.28571429  0.00000000  0.42857143       0.012
   0.42857143  0.00000000  0.42857143       0.012
   0.00000000  0.14285714  0.42857143       0.012
   0.14285714  0.14285714  0.42857143       0.023
   0.28571429  0.14285714  0.42857143       0.023
   0.42857143  0.14285714  0.42857143       0.023
   0.00000000  0.28571429  0.42857143       0.012
   0.14285714  0.28571429  0.42857143       0.023
   0.28571429  0.28571429  0.42857143       0.023
   0.42857143  0.28571429  0.42857143       0.023
   0.00000000  0.42857143  0.42857143       0.012
   0.14285714  0.42857143  0.42857143       0.023
   0.28571429  0.42857143  0.42857143       0.023
   0.42857143  0.42857143  0.42857143       0.023

 position of ions in fractional coordinates (direct lattice) 
   0.00000000  0.00000000  0.00000000
   0.50000000  0.50000000  0.50000000

 position of ions in cartesian coordinates  (Angst):
   0.00000000  0.00000000  0.00000000
   1.66094504  1.64433558  1.67755449



--------------------------------------------------------------------------------------------------------


 k-point   1 :   0.0000 0.0000 0.0000  plane waves:     997
 k-point   2 :   0.1429 0.0000 0.0000  plane waves:     981
 k-point   3 :   0.2857 0.0000 0.0000  plane waves:     988
 k-point   4 :   0.4286 0.0000 0.0000  plane waves:     986
 k-point   5 :   0.0000 0.1429 0.0000  plane waves:     984
 k-point   6 :   0.1429 0.1429 0.0000  plane waves:     983
 k-point   7 :   0.2857 0.1429 0.0000  plane waves:     986
 k-point   8 :   0.4286 0.1429 0.0000  plane waves:     988
 k-point   9 :   0.0000 0.2857 0.0000  plane waves:     972
 k-point  10 :   0.1429 0.2857 0.0000  plane waves:     984
 k-point  11 :   0.2857 0.2857 0.0000  plane waves:     986
 k-point  12 :   0.4286 0.2857 0.0000  plane waves:     989
 k-point  13 :   0.0000 0.4286 0.0000  plane waves:     994
 k-point  14 :   0.1429 0.4286 0.0000  plane waves:     983
 k-point  15 :   0.2857 0.4286 0.0000  plane waves:     989
 k-point  16 :   0.4286 0.4286 0.0000  plane waves:    1007
 k-point  17 :   0.0000 0.0000 0.1429  plane waves:     985
 k-point  18 :   0.1429 0.0000 0.1429  plane waves:     981
 k-point  19 :   0.2857 0.0000 0.1429  plane waves:     994
 k-point  20 :   0.4286 0.0000 0.1429  plane waves:     982
 k-point  21 :   0.0000 0.1429 0.1429  plane waves:     984
 k-point  22 :   0.1429 0.1429 0.1429  plane waves:     981
 k-point  23 :   0.2857 0.1429 0.1429  plane waves:     988
 k-point  24 :   0.4286 0.1429 0.1429  plane waves:     984
 k-point  25 :   0.0000 0.2857 0.1429  plane waves:     991
 k-point  26 :   0.1429 0.2857 0.1429  plane waves:     986
 k-point  27 :   0.2857 0.2857 0.1429  plane waves:     989
 k-point  28 :   0.4286 0.2857 0.1429  plane waves:     988
 k-point  29 :   0.0000 0.4286 0.1429  plane waves:     988
 k-point  30 :   0.1429 0.4286 0.1429  plane waves:     988
 k-point  31 :   0.2857 0.4286 0.1429  plane waves:     987
 k-point  32 :   0.4286 0.4286 0.1429  plane waves:     993
 k-point  33 :   0.0000 0.0000 0.2857  plane waves:     986
 k-point  34 :   0.1429 0.0000 0.2857  plane waves:     987
 k-point  35 :   0.2857 0.0000 0.2857  plane waves:     983
 k-point  36 :   0.4286 0.0000 0.2857  plane waves:     979
 k-point  37 :   0.0000 0.1429 0.2857  plane waves:     984
 k-point  38 :   0.1429 0.1429 0.2857  plane waves:     986
 k-point  39 :   0.2857 0.1429 0.2857  plane waves:     986
 k-point  40 :   0.4286 0.1429 0.2857  plane waves:     989
 k-point  41 :   0.0000 0.2857 0.2857  plane waves:     990
 k-point  42 :   0.1429 0.2857 0.2857  plane waves:     985
 k-point  43 :   0.2857 0.2857 0.2857  plane waves:     987
 k-point  44 :   0.4286 0.2857 0.2857  plane waves:     985
 k-point  45 :   0.0000 0.4286 0.2857  plane waves:     987
 k-point  46 :   0.1429 0.4286 0.2857  plane waves:     988
 k-point  47 :   0.2857 0.4286 0.2857  plane waves:     990
 k-point  48 :   0.4286 0.4286 0.2857  plane waves:     987
 k-point  49 :   0.0000 0.0000 0.4286  plane waves:     998
 k-point  50 :   0.1429 0.0000 0.4286  plane waves:     988
 k-point  51 :   0.2857 0.0000 0.4286  plane waves:     975
 k-point  52 :   0.4286 0.0000 0.4286  plane waves:     986
 k-point  53 :   0.0000 0.1429 0.4286  plane waves:     987
 k-point  54 :   0.1429 0.1429 0.4286  plane waves:     984
 k-point  55 :   0.2857 0.1429 0.4286  plane waves:     983
 k-point  56 :   0.4286 0.1429 0.4286  plane waves:     990
 k-point  57 :   0.0000 0.2857 0.4286  plane waves:     981
 k-point  58 :   0.1429 0.2857 0.4286  plane waves:     989
 k-point  59 :   0.2857 0.2857 0.4286  plane waves:     986
 k-point  60 :   0.4286 0.2857 0.4286  plane waves:     993
 k-point  61 :   0.0000 0.4286 0.4286  plane waves:     987
 k-point  62 :   0.1429 0.4286 0.4286  plane waves:     986
 k-point  63 :   0.2857 0.4286 0.4286  plane waves:     994
 k-point  64 :   0.4286 0.4286 0.4286  plane waves:     992

 maximum and minimum number of plane-waves per node :      1007      972

 maximum number of plane-waves:      1007
 maximum index in each direction: 
   IXMAX=    6   IYMAX=    6   IZMAX=    6
   IXMIN=   -6   IYMIN=   -6   IZMIN=   -6


 serial   3D FFT for wavefunctions
 parallel 3D FFT for charge:
    minimum data exchange during FFTs selected (reduces bandwidth)


 total amount of memory used by VASP MPI-rank0    87594. kBytes
=======================================================================

   base      :      30000. kBytes
   nonlr-proj:       5386. kBytes
   fftplans  :       5304. kBytes
   grid      :      12665. kBytes
   one-center:         62. kBytes
   wavefun   :      34177. kBytes

     INWAV:  cpu time      0.0062: real time      0.0000
 Broyden mixing: mesh for mixing (old mesh)
   NGX = 13   NGY = 13   NGZ = 13
  (NGX  = 56   NGY  = 48   NGZ  = 56)
  gives a total of   2197 points

 initial charge density was supplied:
 charge density of overlapping atoms calculated
 number of electron      22.0000000 magnetization       1.2000000
 keeping initial charge density in first step


--------------------------------------------------------------------------------------------------------


 Maximum index for non-local projection operator          978
 Maximum index for augmentation-charges        30683 (set IRDMAX)


--------------------------------------------------------------------------------------------------------


 First call to EWALD:  gamma=   0.534
 Maximum number of real-space cells 3x 3x 3
 Maximum number of reciprocal cells 3x 3x 3

    FEWALD:  cpu time      0.1519: real time      0.0060


--------------------------------------- Ionic step        1  -------------------------------------------




--------------------------------------- Iteration      1(   1)  ---------------------------------------


    POTLOK:  cpu time      2.1048: real time      0.1450
    SETDIJ:  cpu time      1.2704: real time      0.2580
     EDDAV:  cpu time    338.7258: real time     19.3004
 BZINTS: Fermi energy:   23.579875;   22.000000 electrons
         Band energy:-0.294987E+02;  BLOECHL correction:   -0.512921
       DOS:  cpu time      0.3138: real time      0.0515
    --------------------------------------------
      LOOP:  cpu time    342.4148: real time     19.7548

 eigenvalue-minimisations  :  4416
 total energy-change (2. order) : 0.2005283E+03  (-0.1159040E+04)
 number of electron      22.0000000 magnetization       1.2000000
 augmentation part       22.0000000 magnetization       1.2000000

 Free energy of the ion-electron system (eV)
  ---------------------------------------------------
  alpha Z        PSCENC =       247.02244180
  Ewald energy   TEWEN  =     -1908.87812676
  -Hartree energ DENC   =      -279.42445411
  -exchange      EXHF   =         0.00000000
  -V(xc)+E(xc)   XCENC  =        52.61736041
  PAW double counting   =      1671.32378679    -1639.41528309
  entropy T*S    EENTRO =         0.00000000
  eigenvalues    EBANDS =       -29.49871070
  atomic energy  EATOM  =      2086.78124273
  Solvation  Ediel_sol  =         0.00000000
  ---------------------------------------------------
  free energy    TOTEN  =       200.52825706 eV

  energy without entropy =      200.52825706  energy(sigma->0) =      200.52825706


--------------------------------------------------------------------------------------------------------




--------------------------------------- Iteration      1(   2)  ---------------------------------------


     EDDAV:  cpu time    345.2401: real time     19.6571
 BZINTS: Fermi energy:    7.074918;   22.000000 electrons
         Band energy:-0.241204E+03;  BLOECHL correction:   -0.418742
       DOS:  cpu time      0.2945: real time      0.0509
    --------------------------------------------
      LOOP:  cpu time    345.5346: real time     19.7080

 eigenvalue-minimisations  :  4472
 total energy-change (2. order) :-0.2117057E+03  (-0.2093389E+03)
 number of electron      22.0000000 magnetization       1.2000000
 augmentation part       22.0000000 magnetization       1.2000000

 Free energy of the ion-electron system (eV)
  ---------------------------------------------------
  alpha Z        PSCENC =       247.02244180
  Ewald energy   TEWEN  =     -1908.87812676
  -Hartree energ DENC   =      -279.42445411
  -exchange      EXHF   =         0.00000000
  -V(xc)+E(xc)   XCENC  =        52.61736041
  PAW double counting   =      1671.32378679    -1639.41528309
  entropy T*S    EENTRO =         0.00000000
  eigenvalues    EBANDS =      -241.20438743
  atomic energy  EATOM  =      2086.78124273
  Solvation  Ediel_sol  =         0.00000000
  ---------------------------------------------------
  free energy    TOTEN  =       -11.17741966 eV

  energy without entropy =      -11.17741966  energy(sigma->0) =      -11.17741966


--------------------------------------------------------------------------------------------------------




--------------------------------------- Iteration      1(   3)  ---------------------------------------


     EDDAV:  cpu time    455.7996: real time     26.0474
 BZINTS: Fermi energy:    5.475569;   22.000000 electrons
         Band energy:-0.251004E+03;  BLOECHL correction:   -0.214031
       DOS:  cpu time      0.2790: real time      0.0572
    --------------------------------------------
      LOOP:  cpu time    456.0786: real time     26.1047

 eigenvalue-minimisations  :  6760
 total energy-change (2. order) :-0.9799979E+01  (-0.9222066E+01)
 number of electron      22.0000000 magnetization       1.2000000
 augmentation part       22.0000000 magnetization       1.2000000

 Free energy of the ion-electron system (eV)
  ---------------------------------------------------
  alpha Z        PSCENC =       247.02244180
  Ewald energy   TEWEN  =     -1908.87812676
  -Hartree energ DENC   =      -279.42445411
  -exchange      EXHF   =         0.00000000
  -V(xc)+E(xc)   XCENC  =        52.61736041
  PAW double counting   =      1671.32378679    -1639.41528309
  entropy T*S    EENTRO =         0.00000000
  eigenvalues    EBANDS =      -251.00436611
  atomic energy  EATOM  =      2086.78124273
  Solvation  Ediel_sol  =         0.00000000
  ---------------------------------------------------
  free energy    TOTEN  =       -20.97739835 eV

  energy without entropy =      -20.97739835  energy(sigma->0) =      -20.97739835


--------------------------------------------------------------------------------------------------------




--------------------------------------- Iteration      1(   4)  ---------------------------------------


     EDDAV:  cpu time    373.6481: real time     21.2987
 BZINTS: Fermi energy:    5.444991;   22.000000 electrons
         Band energy:-0.251172E+03;  BLOECHL correction:   -0.209030
       DOS:  cpu time      0.3617: real time      0.0513
    --------------------------------------------
      LOOP:  cpu time    374.0098: real time     21.3500

 eigenvalue-minimisations  :  5248
 total energy-change (2. order) :-0.1674266E+00  (-0.1646464E+00)
 number of electron      22.0000000 magnetization       1.2000000
 augmentation part       22.0000000 magnetization       1.2000000

 Free energy of the ion-electron system (eV)
  ---------------------------------------------------
  alpha Z        PSCENC =       247.02244180
  Ewald energy   TEWEN  =     -1908.87812676
  -Hartree energ DENC   =      -279.42445411
  -exchange      EXHF   =         0.00000000
  -V(xc)+E(xc)   XCENC  =        52.61736041
  PAW double counting   =      1671.32378679    -1639.41528309
  entropy T*S    EENTRO =         0.00000000
  eigenvalues    EBANDS =      -251.17179268
  atomic energy  EATOM  =      2086.78124273
  Solvation  Ediel_sol  =         0.00000000
  ---------------------------------------------------
  free energy    TOTEN  =       -21.14482492 eV

  energy without entropy =      -21.14482492  energy(sigma->0) =      -21.14482492


--------------------------------------------------------------------------------------------------------




--------------------------------------- Iteration      1(   5)  ---------------------------------------


     EDDAV:  cpu time    435.6080: real time     24.8347
 BZINTS: Fermi energy:    5.443433;   22.000000 electrons
         Band energy:-0.251176E+03;  BLOECHL correction:   -0.208647
       DOS:  cpu time      0.3074: real time      0.0540
    CHARGE:  cpu time     25.6022: real time      1.4514
    MIXING:  cpu time      0.0013: real time      0.0013
    --------------------------------------------
      LOOP:  cpu time    461.5189: real time     26.3414

 eigenvalue-minimisations  :  6368
 total energy-change (2. order) :-0.4512319E-02  (-0.4526848E-02)
 number of electron      21.9999998 magnetization       0.3472616
 augmentation part        7.7576560 magnetization      -0.0551905

 Broyden mixing:
  rms(total) = 0.23999E+01    rms(broyden)= 0.23999E+01
  rms(prec ) = 0.28175E+01
  weight for this iteration     100.00

 Free energy of the ion-electron system (eV)
  ---------------------------------------------------
  alpha Z        PSCENC =       247.02244180
  Ewald energy   TEWEN  =     -1908.87812676
  -Hartree energ DENC   =      -279.42445411
  -exchange      EXHF   =         0.00000000
  -V(xc)+E(xc)   XCENC  =        52.61736041
  PAW double counting   =      1671.32378679    -1639.41528309
  entropy T*S    EENTRO =         0.00000000
  eigenvalues    EBANDS =      -251.17630500
  atomic energy  EATOM  =      2086.78124273
  Solvation  Ediel_sol  =         0.00000000
  ---------------------------------------------------
  free energy    TOTEN  =       -21.14933724 eV

  energy without entropy =      -21.14933724  energy(sigma->0) =      -21.14933724


--------------------------------------------------------------------------------------------------------




--------------------------------------- Iteration      1(   6)  ---------------------------------------


    POTLOK:  cpu time      1.5206: real time      0.1093
    SETDIJ:  cpu time      1.0817: real time      0.2517
    EDDIAG:  cpu time     73.3989: real time      4.1815
  RMM-DIIS:  cpu time    218.9703: real time     12.2853
    ORTHCH:  cpu time      2.3546: real time      0.1322
 BZINTS: Fermi energy:    5.093619;   22.000000 electrons
         Band energy:-0.265214E+03;  BLOECHL correction:   -0.210460
       DOS:  cpu time      0.2511: real time      0.0524
    CHARGE:  cpu time     27.7189: real time      1.5713
    MIXING:  cpu time      0.0011: real time      0.0011
    --------------------------------------------
      LOOP:  cpu time    325.2972: real time     18.5847

 eigenvalue-minimisations  :  4487
 total energy-change (2. order) : 0.8045406E+00  (-0.8009261E-01)
 number of electron      21.9999998 magnetization       0.1574219
 augmentation part        7.8847376 magnetization      -0.0554892

 Broyden mixing:
  rms(total) = 0.91224E+00    rms(broyden)= 0.91224E+00
  rms(prec ) = 0.11906E+01
  weight for this iteration     100.00

 eigenvalues of (default mixing * dielectric matrix)
  average eigenvalue GAMMA=   1.5000
  1.5000

 Free energy of the ion-electron system (eV)
  ---------------------------------------------------
  alpha Z        PSCENC =       247.02244180
  Ewald energy   TEWEN  =     -1908.87812676
  -Hartree energ DENC   =      -260.07262837
  -exchange      EXHF   =         0.00000000
  -V(xc)+E(xc)   XCENC  =        51.60222120
  PAW double counting   =      2186.71550064    -2158.30117696
  entropy T*S    EENTRO =         0.00000000
  eigenvalues    EBANDS =      -265.21427090
  atomic energy  EATOM  =      2086.78124273
  Solvation  Ediel_sol  =         0.00000000
  ---------------------------------------------------
  free energy    TOTEN  =       -20.34479662 eV

  energy without entropy =      -20.34479662  energy(sigma->0) =      -20.34479662


--------------------------------------------------------------------------------------------------------




--------------------------------------- Iteration      1(   7)  ---------------------------------------


    POTLOK:  cpu time      1.9476: real time      0.1323
    SETDIJ:  cpu time      1.0694: real time      0.2445
    EDDIAG:  cpu time     69.3778: real time      4.0037
  RMM-DIIS:  cpu time    273.7522: real time     15.2250
    ORTHCH:  cpu time      1.1380: real time      0.0743
 BZINTS: Fermi energy:    4.799545;   22.000000 electrons
         Band energy:-0.276989E+03;  BLOECHL correction:   -0.208674
       DOS:  cpu time      0.3021: real time      0.0573
    CHARGE:  cpu time     25.7490: real time      1.4837
    MIXING:  cpu time      0.0014: real time      0.0013
    --------------------------------------------
      LOOP:  cpu time    373.3374: real time     21.2221

 eigenvalue-minimisations  :  5585
 total energy-change (2. order) : 0.1464603E+00  (-0.2151619E+00)
 number of electron      21.9999998 magnetization       0.0371504
 augmentation part        8.0572532 magnetization       0.0361881

 Broyden mixing:
  rms(total) = 0.24598E+00    rms(broyden)= 0.24598E+00
  rms(prec ) = 0.26392E+00
  weight for this iteration     100.00

 eigenvalues of (default mixing * dielectric matrix)
  average eigenvalue GAMMA=   1.0743
  1.6154  0.5332

 Free energy of the ion-electron system (eV)
  ---------------------------------------------------
  alpha Z        PSCENC =       247.02244180
  Ewald energy   TEWEN  =     -1908.87812676
  -Hartree energ DENC   =      -244.35536116
  -exchange      EXHF   =         0.00000000
  -V(xc)+E(xc)   XCENC  =        50.82094448
  PAW double counting   =      2616.41652516    -2591.01689676
  entropy T*S    EENTRO =         0.00000000
  eigenvalues    EBANDS =      -276.98910583
  atomic energy  EATOM  =      2086.78124273
  Solvation  Ediel_sol  =         0.00000000
  ---------------------------------------------------
  free energy    TOTEN  =       -20.19833634 eV

  energy without entropy =      -20.19833634  energy(sigma->0) =      -20.19833634


--------------------------------------------------------------------------------------------------------




--------------------------------------- Iteration      1(   8)  ---------------------------------------


    POTLOK:  cpu time      1.3124: real time      0.0947
    SETDIJ:  cpu time      0.9981: real time      0.2447
    EDDIAG:  cpu time     71.2375: real time      4.0754
  RMM-DIIS:  cpu time    297.5081: real time     16.5148
    ORTHCH:  cpu time      1.6649: real time      0.0991
 BZINTS: Fermi energy:    4.810378;   22.000000 electrons
         Band energy:-0.276457E+03;  BLOECHL correction:   -0.208722
       DOS:  cpu time      0.2538: real time      0.0534
    CHARGE:  cpu time     25.8223: real time      1.4666
    MIXING:  cpu time      0.0015: real time      0.0015
    --------------------------------------------
      LOOP:  cpu time    398.7987: real time     22.5502

 eigenvalue-minimisations  :  5928
 total energy-change (2. order) :-0.1118918E-01  (-0.1063966E-01)
 number of electron      21.9999998 magnetization       0.0230028
 augmentation part        8.0640304 magnetization       0.0156572

 Broyden mixing:
  rms(total) = 0.11825E+00    rms(broyden)= 0.11825E+00
  rms(prec ) = 0.14604E+00
  weight for this iteration     100.00

 eigenvalues of (default mixing * dielectric matrix)
  average eigenvalue GAMMA=   1.0677
  1.8338  0.6847  0.6847

 Free energy of the ion-electron system (eV)
  ---------------------------------------------------
  alpha Z        PSCENC =       247.02244180
  Ewald energy   TEWEN  =     -1908.87812676
  -Hartree energ DENC   =      -244.68928871
  -exchange      EXHF   =         0.00000000
  -V(xc)+E(xc)   XCENC  =        50.83067648
  PAW double counting   =      2664.68018459    -2639.49928387
  entropy T*S    EENTRO =         0.00000000
  eigenvalues    EBANDS =      -276.45737176
  atomic energy  EATOM  =      2086.78124273
  Solvation  Ediel_sol  =         0.00000000
  ---------------------------------------------------
  free energy    TOTEN  =       -20.20952552 eV

  energy without entropy =      -20.20952552  energy(sigma->0) =      -20.20952552


--------------------------------------------------------------------------------------------------------




--------------------------------------- Iteration      1(   9)  ---------------------------------------


    POTLOK:  cpu time      2.0873: real time      0.1337
    SETDIJ:  cpu time      1.0596: real time      0.2524
    EDDIAG:  cpu time     72.9382: real time      4.1482
  RMM-DIIS:  cpu time    274.9528: real time     15.4099
    ORTHCH:  cpu time      1.6532: real time      0.1025
 BZINTS: Fermi energy:    4.819225;   22.000000 electrons
         Band energy:-0.276041E+03;  BLOECHL correction:   -0.208812
       DOS:  cpu time      0.3118: real time      0.0505
    CHARGE:  cpu time     29.5374: real time      1.6471
    MIXING:  cpu time      0.0016: real time      0.0016
    --------------------------------------------
      LOOP:  cpu time    382.5418: real time     21.7459

 eigenvalue-minimisations  :  5905
 total energy-change (2. order) : 0.1339073E-03  (-0.2397005E-02)
 number of electron      21.9999998 magnetization       0.0179981
 augmentation part        8.0642747 magnetization       0.0154194

 Broyden mixing:
  rms(total) = 0.95886E-01    rms(broyden)= 0.95886E-01
  rms(prec ) = 0.12216E+00
  weight for this iteration     100.00

 eigenvalues of (default mixing * dielectric matrix)
  average eigenvalue GAMMA=   1.0942
  2.0903  0.8418  0.8418  0.6029

 Free energy of the ion-electron system (eV)
  ---------------------------------------------------
  alpha Z        PSCENC =       247.02244180
  Ewald energy   TEWEN  =     -1908.87812676
  -Hartree energ DENC   =      -245.04545921
  -exchange      EXHF   =         0.00000000
  -V(xc)+E(xc)   XCENC  =        50.84720066
  PAW double counting   =      2705.15053477    -2680.04586741
  entropy T*S    EENTRO =         0.00000000
  eigenvalues    EBANDS =      -276.04135819
  atomic energy  EATOM  =      2086.78124273
  Solvation  Ediel_sol  =         0.00000000
  ---------------------------------------------------
  free energy    TOTEN  =       -20.20939161 eV

  energy without entropy =      -20.20939161  energy(sigma->0) =      -20.20939161


--------------------------------------------------------------------------------------------------------




--------------------------------------- Iteration      1(  10)  ---------------------------------------


    POTLOK:  cpu time      1.6724: real time      0.1225
    SETDIJ:  cpu time      1.1179: real time      0.2542
    EDDIAG:  cpu time     77.1054: real time      4.3574
  RMM-DIIS:  cpu time    231.8030: real time     12.9207
    ORTHCH:  cpu time      2.0778: real time      0.1252
 BZINTS: Fermi energy:    4.840834;   22.000000 electrons
         Band energy:-0.275082E+03;  BLOECHL correction:   -0.209015
       DOS:  cpu time      0.2856: real time      0.0520
    CHARGE:  cpu time     28.4396: real time      1.5957
    MIXING:  cpu time      0.0019: real time      0.0019
    --------------------------------------------
      LOOP:  cpu time    342.5035: real time     19.4295

 eigenvalue-minimisations  :  4744
 total energy-change (2. order) : 0.3500654E-02  (-0.5905346E-03)
 number of electron      21.9999998 magnetization      -0.0067421
 augmentation part        8.0558869 magnetization      -0.0031093

 Broyden mixing:
  rms(total) = 0.67954E-01    rms(broyden)= 0.67954E-01
  rms(prec ) = 0.75219E-01
  weight for this iteration     100.00

 eigenvalues of (default mixing * dielectric matrix)
  average eigenvalue GAMMA=   1.3622
  2.6461  1.3856  1.3856  0.7629  0.6309

 Free energy of the ion-electron system (eV)
  ---------------------------------------------------
  alpha Z        PSCENC =       247.02244180
  Ewald energy   TEWEN  =     -1908.87812676
  -Hartree energ DENC   =      -245.98557645
  -exchange      EXHF   =         0.00000000
  -V(xc)+E(xc)   XCENC  =        50.89202733
  PAW double counting   =      2782.55050345    -2757.50688964
  entropy T*S    EENTRO =         0.00000000
  eigenvalues    EBANDS =      -275.08151342
  atomic energy  EATOM  =      2086.78124273
  Solvation  Ediel_sol  =         0.00000000
  ---------------------------------------------------
  free energy    TOTEN  =       -20.20589096 eV

  energy without entropy =      -20.20589096  energy(sigma->0) =      -20.20589096


--------------------------------------------------------------------------------------------------------




--------------------------------------- Iteration      1(  11)  ---------------------------------------


    POTLOK:  cpu time      1.1477: real time      0.0913
    SETDIJ:  cpu time      1.0939: real time      0.2518
    EDDIAG:  cpu time     71.4806: real time      4.1082
  RMM-DIIS:  cpu time    257.3707: real time     14.4651
    ORTHCH:  cpu time      1.0684: real time      0.0698
 BZINTS: Fermi energy:    4.852355;   22.000000 electrons
         Band energy:-0.274561E+03;  BLOECHL correction:   -0.209121
       DOS:  cpu time      0.2425: real time      0.0550
    CHARGE:  cpu time     23.6545: real time      1.3579
    MIXING:  cpu time      0.0019: real time      0.0019
    --------------------------------------------
      LOOP:  cpu time    356.0602: real time     20.4011

 eigenvalue-minimisations  :  5401
 total energy-change (2. order) :-0.3326558E-04  (-0.5362263E-03)
 number of electron      21.9999998 magnetization      -0.0045939
 augmentation part        8.0492933 magnetization      -0.0002581

 Broyden mixing:
  rms(total) = 0.35504E-02    rms(broyden)= 0.35504E-02
  rms(prec ) = 0.45273E-02
  weight for this iteration     100.00

 eigenvalues of (default mixing * dielectric matrix)
  average eigenvalue GAMMA=   1.2761
  2.5906  1.4520  1.4520  0.6261  0.7901  0.7460

 Free energy of the ion-electron system (eV)
  ---------------------------------------------------
  alpha Z        PSCENC =       247.02244180
  Ewald energy   TEWEN  =     -1908.87812676
  -Hartree energ DENC   =      -246.45143839
  -exchange      EXHF   =         0.00000000
  -V(xc)+E(xc)   XCENC  =        50.91396012
  PAW double counting   =      2860.20464401    -2835.23724469
  entropy T*S    EENTRO =         0.00000000
  eigenvalues    EBANDS =      -274.56140304
  atomic energy  EATOM  =      2086.78124273
  Solvation  Ediel_sol  =         0.00000000
  ---------------------------------------------------
  free energy    TOTEN  =       -20.20592422 eV

  energy without entropy =      -20.20592422  energy(sigma->0) =      -20.20592422


--------------------------------------------------------------------------------------------------------




--------------------------------------- Iteration      1(  12)  ---------------------------------------


    POTLOK:  cpu time      1.4047: real time      0.1144
    SETDIJ:  cpu time      1.1039: real time      0.2550
    EDDIAG:  cpu time     65.9597: real time      3.8099
  RMM-DIIS:  cpu time    192.9222: real time     10.8299
    ORTHCH:  cpu time      1.0778: real time      0.0679
 BZINTS: Fermi energy:    4.852697;   22.000000 electrons
         Band energy:-0.274547E+03;  BLOECHL correction:   -0.209124
       DOS:  cpu time      0.2838: real time      0.0560
    --------------------------------------------
      LOOP:  cpu time    262.7521: real time     15.1330

 eigenvalue-minimisations  :  3885
 total energy-change (2. order) :-0.7250348E-04  (-0.5851659E-04)
 number of electron      21.9999998 magnetization      -0.0045939
 augmentation part        8.0492933 magnetization      -0.0002581

 Free energy of the ion-electron system (eV)
  ---------------------------------------------------
  alpha Z        PSCENC =       247.02244180
  Ewald energy   TEWEN  =     -1908.87812676
  -Hartree energ DENC   =      -246.48491108
  -exchange      EXHF   =         0.00000000
  -V(xc)+E(xc)   XCENC  =        50.91558818
  PAW double counting   =      2859.21256877    -2834.22779893
  entropy T*S    EENTRO =         0.00000000
  eigenvalues    EBANDS =      -274.54700144
  atomic energy  EATOM  =      2086.78124273
  Solvation  Ediel_sol  =         0.00000000
  ---------------------------------------------------
  free energy    TOTEN  =       -20.20599673 eV

  energy without entropy =      -20.20599673  energy(sigma->0) =      -20.20599673


--------------------------------------------------------------------------------------------------------




 average (electrostatic) potential at core
  the test charge radii are     1.2125
  (the norm of the test charge is              1.0000)
       1 -35.1717       2 -35.1717



 E-fermi :   4.8527     XC(G=0): -12.3455     alpha+bet :-12.7651

 Fermi energy:         4.8526968352

 spin component 1

 k-point     1 :       0.0000    0.0000    0.0000
  band No.  band energies     occupation 
      1     -25.8117      1.00000
      2     -25.7865      1.00000
      3     -25.7607      1.00000
      4     -24.9077      1.00000
      5     -24.9077      1.00000
      6     -24.9068      1.00000
      7      -1.0613      1.00000
      8       1.1854      1.00000
      9       1.2290      1.00000
     10       5.0911     -0.02647
     11       5.2028     -0.02148
     12       5.3090      0.00000
     13       7.9176      0.00000
     14       8.1717      0.00000
     15      10.2803      0.00000
     16      10.3160      0.00000

 k-point     2 :       0.1429    0.0000    0.0000
  band No.  band energies     occupation 
      1     -25.7898      1.00000
      2     -25.7657      1.00000
      3     -25.7170      1.00000
      4     -25.0024      1.00000
      5     -24.9509      1.00000
      6     -24.9473      1.00000
      7      -0.6517      1.00000
      8       1.4317      1.00000
      9       1.5484      1.00000
     10       5.0626      0.16788
     11       5.2749     -0.05222
     12       5.3944      0.00000
     13       7.4560      0.00000
     14       8.2704      0.00000
     15       9.1323      0.00000
     16       9.1790      0.00000

 k-point     3 :       0.2857    0.0000    0.0000
  band No.  band energies     occupation 
      1     -25.7735      1.00000
      2     -25.6374      1.00000
      3     -25.5952      1.00000
      4     -25.2352      1.00000
      5     -25.0729      1.00000
      6     -25.0619      1.00000
      7       0.4419      1.00000
      8       2.1043      1.00000
      9       2.2979      1.00000
     10       5.0948      0.53590
     11       5.2921     -0.13681
     12       5.9538      0.00000
     13       6.1249      0.00000
     14       7.4546      0.00000
     15       7.5696      0.00000
     16       8.7687      0.00000

 k-point     4 :       0.4286    0.0000    0.0000
  band No.  band energies     occupation 
      1     -25.6848      1.00000
      2     -25.4944      1.00000
      3     -25.4535      1.00000
      4     -25.4209      1.00000
      5     -25.2518      1.00000
      6     -25.2304      1.00000
      7       1.7960      1.00000
      8       2.6148      1.00000
      9       3.1807      1.00000
     10       4.5788      0.99504
     11       5.4132     -0.16869
     12       5.5895      0.00000
     13       6.1821      0.00000
     14       6.3325      0.00000
     15       6.8306      0.00000
     16       7.9244      0.00000

 k-point     5 :       0.0000    0.1429    0.0000
  band No.  band energies     occupation 
      1     -25.7698      1.00000
      2     -25.7652      1.00000
      3     -25.7412      1.00000
      4     -25.0050      1.00000
      5     -24.9503      1.00000
      6     -24.9490      1.00000
      7      -0.6433      1.00000
      8       1.4199      1.00000
      9       1.5787      1.00000
     10       5.1519      0.06612
     11       5.2554     -0.04141
     12       5.2878      0.00000
     13       7.5730      0.00000
     14       8.1744      0.00000
     15       9.0862      0.00000
     16       9.1107      0.00000

 k-point     6 :       0.1429    0.1429    0.0000
  band No.  band energies     occupation 
      1     -25.8541      1.00000
      2     -25.7230      1.00000
      3     -25.6227      1.00000
      4     -25.1655      1.00000
      5     -24.9884      1.00000
      6     -24.9113      1.00000
      7      -0.2722      1.00000
      8       1.6669      1.00000
      9       1.8728      1.00000
     10       4.6789      0.92135
     11       5.1185      0.03891
     12       5.9458     -0.00634
     13       7.6647      0.00000
     14       7.8503      0.00000
     15       8.0022      0.00000
     16       8.1996      0.00000

 k-point     7 :       0.2857    0.1429    0.0000
  band No.  band energies     occupation 
      1     -25.8970      1.00000
      2     -25.6056      1.00000
      3     -25.4600      1.00000
      4     -25.4278      1.00000
      5     -25.0965      1.00000
      6     -24.9650      1.00000
      7       0.6867      1.00000
      8       2.1935      1.00000
      9       2.6498      1.00000
     10       4.4207      1.02398
     11       4.8738      0.63070
     12       6.3350     -0.05339
     13       6.8325      0.00000
     14       6.9097      0.00000
     15       6.9859      0.00000
     16       8.5699      0.00000

 k-point     8 :       0.4286    0.1429    0.0000
  band No.  band energies     occupation 
      1     -25.8471      1.00000
      2     -25.6814      1.00000
      3     -25.4383      1.00000
      4     -25.2766      1.00000
      5     -25.2564      1.00000
      6     -25.0993      1.00000
      7       1.8031      1.00000
      8       2.4816      1.00000
      9       3.4416      1.00000
     10       4.3441      1.00323
     11       4.5654      0.97123
     12       5.2012     -0.02439
     13       6.4793      0.00000
     14       6.5383      0.00000
     15       7.8848      0.00000
     16       9.0862      0.00000

 k-point     9 :       0.0000    0.2857    0.0000
  band No.  band energies     occupation 
      1     -25.7671      1.00000
      2     -25.6358      1.00000
      3     -25.6151      1.00000
      4     -25.2447      1.00000
      5     -25.0712      1.00000
      6     -25.0661      1.00000
      7       0.4695      1.00000
      8       2.1050      1.00000
      9       2.3568      1.00000
     10       5.1344      0.50051
     11       5.2308     -0.06751
     12       5.8623      0.00000
     13       6.2095      0.00000
     14       7.4024      0.00000
     15       7.4599      0.00000
     16       8.7732      0.00000

 k-point    10 :       0.1429    0.2857    0.0000
  band No.  band energies     occupation 
      1     -25.8990      1.00000
      2     -25.6045      1.00000
      3     -25.4673      1.00000
      4     -25.4335      1.00000
      5     -25.0954      1.00000
      6     -24.9686      1.00000
      7       0.7031      1.00000
      8       2.2003      1.00000
      9       2.6810      1.00000
     10       4.4185      1.01810
     11       4.8652      0.64895
     12       6.3133     -0.05338
     13       6.7988      0.00000
     14       6.9354      0.00000
     15       6.9427      0.00000
     16       8.5791      0.00000

 k-point    11 :       0.2857    0.2857    0.0000
  band No.  band energies     occupation 
      1     -26.0294      1.00000
      2     -25.7144      1.00000
      3     -25.5184      1.00000
      4     -25.2713      1.00000
      5     -25.1654      1.00000
      6     -24.9207      1.00000
      7       1.1550      1.00000
      8       2.1367      1.00000
      9       3.6761      1.00000
     10       3.7912      1.00000
     11       4.8871      0.75981
     12       4.9606      0.12295
     13       6.5388      0.00000
     14       7.8019      0.00000
     15       8.1014      0.00000
     16       8.2837      0.00000

 k-point    12 :       0.4286    0.2857    0.0000
  band No.  band energies     occupation 
      1     -26.0557      1.00000
      2     -25.9448      1.00000
      3     -25.3986      1.00000
      4     -25.2724      1.00000
      5     -25.0967      1.00000
      6     -24.9705      1.00000
      7       1.5099      1.00000
      8       1.8477      1.00000
      9       3.6361      1.00000
     10       4.0289      1.00000
     11       4.6913      0.76812
     12       5.1702     -0.02058
     13       7.0749      0.00000
     14       7.6825      0.00000
     15       8.9330      0.00000
     16       9.3840      0.00000

 k-point    13 :       0.0000    0.4286    0.0000
  band No.  band energies     occupation 
      1     -25.6913      1.00000
      2     -25.5067      1.00000
      3     -25.4510      1.00000
      4     -25.4351      1.00000
      5     -25.2492      1.00000
      6     -25.2389      1.00000
      7       1.8437      1.00000
      8       2.6789      1.00000
      9       3.2039      1.00000
     10       4.6315      0.98850
     11       5.4044     -0.10758
     12       5.4908      0.00000
     13       6.1414      0.00000
     14       6.2155      0.00000
     15       6.7631      0.00000
     16       7.8875      0.00000

 k-point    14 :       0.1429    0.4286    0.0000
  band No.  band energies     occupation 
      1     -25.8548      1.00000
      2     -25.6910      1.00000
      3     -25.4363      1.00000
      4     -25.2853      1.00000
      5     -25.2543      1.00000
      6     -25.1063      1.00000
      7       1.8271      1.00000
      8       2.5067      1.00000
      9       3.4707      1.00000
     10       4.3722      1.00265
     11       4.5483      0.97917
     12       5.1748     -0.02157
     13       6.4224      0.00000
     14       6.4811      0.00000
     15       7.8391      0.00000
     16       8.9941      0.00000

 k-point    15 :       0.2857    0.4286    0.0000
  band No.  band energies     occupation 
      1     -26.0596      1.00000
      2     -25.9492      1.00000
      3     -25.3976      1.00000
      4     -25.2715      1.00000
      5     -25.1000      1.00000
      6     -24.9734      1.00000
      7       1.5113      1.00000
      8       1.8497      1.00000
      9       3.6278      1.00000
     10       4.0190      1.00000
     11       4.6983      0.76397
     12       5.1854     -0.02522
     13       7.0817      0.00000
     14       7.6443      0.00000
     15       9.0240      0.00000
     16       9.3617      0.00000

 k-point    16 :       0.4286    0.4286    0.0000
  band No.  band energies     occupation 
      1     -26.1663      1.00000
      2     -26.1275      1.00000
      3     -25.3485      1.00000
      4     -25.3033      1.00000
      5     -24.9741      1.00000
      6     -24.9284      1.00000
      7       1.2342      1.00000
      8       1.3421      1.00000
      9       3.1881      1.00000
     10       3.3201      1.00000
     11       6.2314     -0.16505
     12       6.5919     -0.05772
     13       7.8088      0.00000
     14       8.2253      0.00000
     15       8.7259      0.00000
     16       9.7424      0.00000

 k-point    17 :       0.0000    0.0000    0.1429
  band No.  band energies     occupation 
      1     -25.8096      1.00000
      2     -25.7421      1.00000
      3     -25.7175      1.00000
      4     -24.9993      1.00000
      5     -24.9500      1.00000
      6     -24.9478      1.00000
      7      -0.6598      1.00000
      8       1.4475      1.00000
      9       1.5153      1.00000
     10       5.0806      0.11456
     11       5.1894     -0.03279
     12       5.4957      0.00000
     13       7.3711      0.00000
     14       8.3343      0.00000
     15       9.2014      0.00000
     16       9.2235      0.00000

 k-point    18 :       0.1429    0.0000    0.1429
  band No.  band energies     occupation 
      1     -25.8755      1.00000
      2     -25.6773      1.00000
      3     -25.6398      1.00000
      4     -25.1667      1.00000
      5     -24.9835      1.00000
      6     -24.9079      1.00000
      7      -0.2888      1.00000
      8       1.6789      1.00000
      9       1.8258      1.00000
     10       4.8208      0.76633
     11       4.9594      0.27502
     12       6.0406     -0.00580
     13       7.4439      0.00000
     14       7.9769      0.00000
     15       8.1634      0.00000
     16       8.1971      0.00000

 k-point    19 :       0.2857    0.0000    0.1429
  band No.  band energies     occupation 
      1     -25.9134      1.00000
      2     -25.5658      1.00000
      3     -25.4764      1.00000
      4     -25.4337      1.00000
      5     -25.0850      1.00000
      6     -24.9635      1.00000
      7       0.6687      1.00000
      8       2.1873      1.00000
      9       2.6250      1.00000
     10       4.5879      1.00331
     11       4.7744      0.81191
     12       6.4839     -0.05095
     13       6.7877      0.00000
     14       6.8795      0.00000
     15       6.9129      0.00000
     16       8.5762      0.00000

 k-point    20 :       0.4286    0.0000    0.1429
  band No.  band energies     occupation 
      1     -25.8599      1.00000
      2     -25.6910      1.00000
      3     -25.4074      1.00000
      4     -25.2877      1.00000
      5     -25.2356      1.00000
      6     -25.1036      1.00000
      7       1.7809      1.00000
      8       2.4595      1.00000
      9       3.4426      1.00000
     10       4.3385      1.00276
     11       4.7371      0.88496
     12       5.3654     -0.03990
     13       6.2938      0.00000
     14       6.3980      0.00000
     15       7.8981      0.00000
     16       9.0386      0.00000

 k-point    21 :       0.0000    0.1429    0.1429
  band No.  band energies     occupation 
      1     -25.8658      1.00000
      2     -25.7005      1.00000
      3     -25.6301      1.00000
      4     -25.1660      1.00000
      5     -24.9863      1.00000
      6     -24.9095      1.00000
      7      -0.2803      1.00000
      8       1.6705      1.00000
      9       1.8523      1.00000
     10       4.7441      0.85301
     11       5.0404      0.12392
     12       5.9956     -0.00603
     13       7.5468      0.00000
     14       7.9134      0.00000
     15       8.0908      0.00000
     16       8.1955      0.00000

 k-point    22 :       0.1429    0.1429    0.1429
  band No.  band energies     occupation 
      1     -25.8276      1.00000
      2     -25.8051      1.00000
      3     -25.4970      1.00000
      4     -25.2978      1.00000
      5     -24.9572      1.00000
      6     -24.9536      1.00000
      7       0.0767      1.00000
      8       2.0043      1.00000
      9       2.0491      1.00000
     10       4.5558      1.01967
     11       4.6749      0.82892
     12       6.4109     -0.05530
     13       6.6240      0.00000
     14       7.7368      0.00000
     15       7.9155      0.00000
     16       9.2592      0.00000

 k-point    23 :       0.2857    0.1429    0.1429
  band No.  band energies     occupation 
      1     -25.9075      1.00000
      2     -25.6809      1.00000
      3     -25.5413      1.00000
      4     -25.3327      1.00000
      5     -25.0848      1.00000
      6     -24.9686      1.00000
      7       0.9699      1.00000
      8       2.5280      1.00000
      9       2.7382      1.00000
     10       4.2605      1.01564
     11       4.3845      1.05877
     12       5.1729      0.10065
     13       7.1887      0.00000
     14       7.6707      0.00000
     15       7.8302      0.00000
     16       8.4601      0.00000

 k-point    24 :       0.4286    0.1429    0.1429
  band No.  band energies     occupation 
      1     -25.8995      1.00000
      2     -25.7684      1.00000
      3     -25.4872      1.00000
      4     -25.2742      1.00000
      5     -25.1773      1.00000
      6     -25.0488      1.00000
      7       1.9449      1.00000
      8       2.6892      1.00000
      9       3.2318      1.00000
     10       3.8807      1.00449
     11       4.6027      0.97797
     12       4.8924      0.26138
     13       6.6870      0.00000
     14       6.8703      0.00000
     15       8.5877      0.00000
     16       8.9083      0.00000

 k-point    25 :       0.0000    0.2857    0.1429
  band No.  band energies     occupation 
      1     -25.9073      1.00000
      2     -25.5849      1.00000
      3     -25.4752      1.00000
      4     -25.4363      1.00000
      5     -25.0900      1.00000
      6     -24.9678      1.00000
      7       0.6943      1.00000
      8       2.1971      1.00000
      9       2.6692      1.00000
     10       4.4995      1.00869
     11       4.8153      0.75537
     12       6.3871     -0.05187
     13       6.8219      0.00000
     14       6.8774      0.00000
     15       6.9041      0.00000
     16       8.5815      0.00000

 k-point    26 :       0.1429    0.2857    0.1429
[...]
  band No.  band energies     occupation 
      1     -26.0182      1.00000
      2     -25.9396      1.00000
      3     -25.4777      1.00000
      4     -25.2994      1.00000
      5     -25.0610      1.00000
      6     -24.9915      1.00000
      7       1.8784      1.00000
      8       2.1910      1.00000
      9       3.5909      1.00000
     10       3.7138      1.00000
     11       4.6555      0.85604
     12       4.7434      0.59748
     13       7.4004      0.00000
     14       7.6585      0.00000
     15       8.6591      0.00000
     16       9.1706      0.00000

 k-point    59 :       0.2857    0.2857    0.4286
  band No.  band energies     occupation 
      1     -25.9402      1.00000
      2     -25.9375      1.00000
      3     -25.5991      1.00000
      4     -25.3520      1.00000
      5     -25.0767      1.00000
      6     -25.0571      1.00000
      7       2.6173      1.00000
      8       2.6318      1.00000
      9       3.4862      1.00000
     10       3.5849      1.00000
     11       4.1004      1.01080
     12       4.4163      1.00300
     13       8.0994      0.00000
     14       8.1098      0.00000
     15       8.6158      0.00000
     16       8.6762      0.00000

 k-point    60 :       0.4286    0.2857    0.4286
  band No.  band energies     occupation 
      1     -25.9532      1.00000
      2     -25.9357      1.00000
      3     -25.5468      1.00000
      4     -25.4106      1.00000
      5     -25.1466      1.00000
      6     -25.1079      1.00000
      7       2.5828      1.00000
      8       2.7190      1.00000
      9       3.2850      1.00000
     10       3.4743      1.00000
     11       4.6706      0.86536
     12       4.8356      0.73023
     13       8.3599      0.00000
     14       8.4145      0.00000
     15       8.7106      0.00000
     16       8.7605      0.00000

 k-point    61 :       0.0000    0.4286    0.4286
  band No.  band energies     occupation 
      1     -26.1704      1.00000
      2     -26.1309      1.00000
      3     -25.3377      1.00000
      4     -25.2939      1.00000
      5     -24.9659      1.00000
      6     -24.9195      1.00000
      7       1.2385      1.00000
      8       1.3492      1.00000
      9       3.2986      1.00000
     10       3.4308      1.00000
     11       6.1692     -0.16167
     12       6.5230     -0.06873
     13       7.6810      0.00000
     14       8.0693      0.00000
     15       8.6901      0.00000
     16       9.6647      0.00000

 k-point    62 :       0.1429    0.4286    0.4286
  band No.  band energies     occupation 
      1     -26.1090      1.00000
      2     -26.0821      1.00000
      3     -25.4023      1.00000
      4     -25.3331      1.00000
      5     -25.0018      1.00000
      6     -24.9816      1.00000
      7       1.6469      1.00000
      8       1.7259      1.00000
      9       3.2567      1.00000
     10       3.3568      1.00000
     11       5.7827     -0.13533
     12       5.8697     -0.13453
     13       7.9037      0.00000
     14       8.1412      0.00000
     15       8.7177      0.00000
     16       9.1346      0.00000

 k-point    63 :       0.2857    0.4286    0.4286
  band No.  band energies     occupation 
      1     -25.9546      1.00000
      2     -25.9367      1.00000
      3     -25.5457      1.00000
      4     -25.4064      1.00000
      5     -25.1557      1.00000
      6     -25.1142      1.00000
      7       2.5444      1.00000
      8       2.6771      1.00000
      9       3.2438      1.00000
     10       3.4321      1.00000
     11       4.7320      0.83274
     12       4.8954      0.58136
     13       8.3816      0.00000
     14       8.4491      0.00000
     15       8.7765      0.00000
     16       8.8386      0.00000

 k-point    64 :       0.4286    0.4286    0.4286
  band No.  band energies     occupation 
      1     -25.8082      1.00000
      2     -25.6909      1.00000
      3     -25.6816      1.00000
      4     -25.4154      1.00000
      5     -25.3992      1.00000
      6     -25.2785      1.00000
      7       3.0401      1.00000
      8       3.4504      1.00000
      9       3.4706      1.00000
     10       3.9793      1.00000
     11       4.0620      1.00000
     12       4.0768      1.09881
     13       8.7164      0.00000
     14       8.7284      0.00000
     15       8.8377      0.00000
     16       8.8385      0.00000


--------------------------------------------------------------------------------------------------------


 soft charge-density along one line, spin component           1
         0         1         2         3         4         5         6         7         8         9
 total charge-density along one line

 soft charge-density along one line, spin component           2
         0         1         2         3         4         5         6         7         8         9
 total charge-density along one line

 pseudopotential strength for first ion, spin component:           1
-28.109   0.000   0.000   5.978  -0.000  -0.000  -0.000  -0.000
  0.000 -28.109   0.000  -0.000   5.979  -0.000  -0.000  -0.000
  0.000   0.000 -28.109  -0.000  -0.000   5.979  -0.000  -0.000
  5.978  -0.000  -0.000   4.217   0.000   0.000   0.000   0.000
 -0.000   5.979  -0.000   0.000   4.217   0.000   0.000   0.000
 -0.000  -0.000   5.979   0.000   0.000   4.217   0.000   0.000
 -0.000  -0.000  -0.000   0.000   0.000   0.000  -6.358   0.000
 -0.000  -0.000  -0.000   0.000   0.000   0.000   0.000  -6.358
  0.000  -0.000  -0.000  -0.000   0.000  -0.000  -0.000  -0.000
 -0.000   0.000  -0.000   0.000  -0.000   0.000   0.000   0.000
  0.000  -0.000   0.000  -0.000   0.000  -0.000  -0.000  -0.000
 -0.000  -0.000  -0.000   0.000   0.000   0.000  -7.215   0.000
 -0.000  -0.000  -0.000   0.000   0.000   0.000   0.000  -7.215
  0.000  -0.000  -0.000  -0.000   0.000  -0.000  -0.000  -0.000
 -0.000   0.000  -0.000   0.000  -0.000   0.000   0.000   0.000
  0.000  -0.000   0.000  -0.000   0.000  -0.000  -0.000  -0.000
  0.000   0.000  -0.000   0.000  -0.000   0.000  -0.000  -0.000
 -0.000  -0.000   0.000  -0.000  -0.000  -0.000   0.000   0.000
 pseudopotential strength for first ion, spin component:           2
-28.109   0.000   0.000   5.979  -0.000  -0.000  -0.000  -0.000
  0.000 -28.109   0.000  -0.000   5.979  -0.000  -0.000  -0.000
  0.000   0.000 -28.109  -0.000  -0.000   5.979  -0.000  -0.000
  5.979  -0.000  -0.000   4.217   0.000   0.000   0.000   0.000
 -0.000   5.979  -0.000   0.000   4.217   0.000  -0.000   0.000
 -0.000  -0.000   5.979   0.000   0.000   4.217   0.000  -0.000
 -0.000  -0.000  -0.000   0.000  -0.000   0.000  -6.358   0.000
 -0.000  -0.000  -0.000   0.000   0.000  -0.000   0.000  -6.358
  0.000  -0.000  -0.000  -0.000   0.000   0.000  -0.000  -0.000
 -0.000   0.000  -0.000  -0.000  -0.000   0.000   0.000  -0.000
  0.000  -0.000   0.000  -0.000   0.000  -0.000  -0.000  -0.000
 -0.000  -0.000  -0.000   0.000   0.000   0.000  -7.215   0.000
 -0.000  -0.000  -0.000   0.000   0.000   0.000   0.000  -7.215
  0.000  -0.000  -0.000  -0.000   0.000   0.000  -0.000  -0.000
 -0.000   0.000  -0.000   0.000  -0.000   0.000   0.000  -0.000
  0.000  -0.000   0.000  -0.000   0.000  -0.000  -0.000  -0.000
  0.000   0.000  -0.000   0.000  -0.000   0.000  -0.000  -0.000
 -0.000  -0.000   0.000  -0.000  -0.000  -0.000   0.000   0.000
 total augmentation occupancy for first ion, spin component:           1
  1.993   0.000   0.000  -0.013  -0.000  -0.000   0.000   0.000   0.000   0.000   0.000   0.000   0.000   0.000   0.000  -0.000
  0.000   1.993   0.000  -0.000  -0.013  -0.000   0.000  -0.000  -0.000   0.000   0.000   0.000   0.000   0.000   0.000   0.000
  0.000   0.000   1.993  -0.000  -0.000  -0.013   0.000   0.000   0.000   0.000   0.000   0.000   0.000   0.000   0.000  -0.000
 -0.013  -0.000  -0.000   0.205   0.000   0.000  -0.000   0.000   0.000   0.000  -0.000   0.000   0.000   0.000   0.000  -0.000
 -0.000  -0.013  -0.000   0.000   0.203   0.000   0.000   0.000   0.000   0.000   0.000   0.000   0.000   0.000   0.000   0.000
 -0.000  -0.000  -0.013   0.000   0.000   0.204   0.000   0.000   0.000   0.000   0.000   0.000   0.000   0.000   0.000   0.000
  0.000   0.000   0.000   0.000   0.000   0.000   5.942   0.000  -0.000   0.000   0.000  -3.313  -0.000   0.000  -0.000   0.000
  0.000   0.000   0.000   0.000   0.000   0.000   0.000   5.985   0.000   0.000  -0.000  -0.000  -3.334  -0.000  -0.000   0.000
  0.000   0.000   0.000   0.000   0.000   0.000  -0.000   0.000   5.591   0.000   0.020   0.000  -0.000  -3.298  -0.000  -0.010
  0.000   0.000   0.000   0.000   0.000   0.000   0.000   0.000   0.000   6.030   0.000  -0.000  -0.000  -0.000  -3.355  -0.000
  0.000   0.000   0.000  -0.000   0.000   0.000   0.000  -0.000   0.020   0.000   5.662   0.000   0.000  -0.010  -0.000  -3.334
 -0.000   0.000   0.000   0.000   0.000   0.000  -3.313  -0.000   0.000  -0.000   0.000   1.885   0.000  -0.000   0.000  -0.000
  0.000   0.000   0.000   0.000   0.000   0.000  -0.000  -3.334  -0.000  -0.000   0.000   0.000   1.895   0.000   0.000  -0.000
  0.000   0.000   0.000  -0.000   0.000   0.000   0.000  -0.000  -3.298  -0.000  -0.010  -0.000   0.000   1.964   0.000   0.005
  0.000   0.000   0.000   0.000   0.000   0.000  -0.000  -0.000  -0.000  -3.355  -0.000   0.000   0.000   0.000   1.905   0.000
  0.000   0.000   0.000   0.000   0.000   0.000   0.000   0.000  -0.010  -0.000  -3.334  -0.000  -0.000   0.005   0.000   1.981
 -0.000   0.000   0.000   0.000   0.000   0.000   0.000  -0.000  -0.013   0.000  -0.009   0.000   0.000   0.007  -0.000   0.005
  0.000   0.000   0.000   0.000   0.000   0.000   0.000  -0.000  -0.000  -0.000  -0.000  -0.000  -0.000   0.000   0.000   0.000
 total augmentation occupancy for first ion, spin component:           2
  0.000   0.000   0.000   0.000   0.000   0.000   0.000   0.000   0.000   0.000  -0.000   0.000   0.000   0.000   0.000  -0.000
  0.000   0.000   0.000   0.000   0.000   0.000   0.000  -0.000   0.000   0.000   0.000   0.000   0.000   0.000  -0.000   0.000
  0.000   0.000   0.000   0.000   0.000   0.000  -0.000   0.000   0.000   0.000  -0.000   0.000   0.000   0.000   0.000  -0.000
  0.000   0.000   0.000  -0.000  -0.000  -0.000   0.000   0.000   0.000   0.000   0.000   0.000   0.000   0.000   0.000   0.000
  0.000   0.000   0.000  -0.000  -0.000  -0.000   0.000   0.000  -0.000   0.000   0.000   0.000   0.000   0.000   0.000   0.000
  0.000   0.000   0.000  -0.000  -0.000  -0.000   0.000  -0.000   0.000   0.000  -0.000   0.000  -0.000  -0.000   0.000   0.000
  0.000   0.000  -0.000   0.000   0.000   0.000  -0.003  -0.000   0.000  -0.000   0.000   0.002   0.000  -0.000   0.000  -0.000
  0.000   0.000   0.000   0.000   0.000  -0.000  -0.000  -0.002   0.000  -0.000   0.000   0.000   0.001  -0.000   0.000  -0.000
  0.000  -0.000   0.000   0.000  -0.000   0.000   0.000   0.000  -0.006   0.000   0.000  -0.000  -0.000   0.004  -0.000  -0.000
  0.000   0.000   0.000   0.000   0.000   0.000  -0.000  -0.000   0.000  -0.002  -0.000   0.000   0.000  -0.000   0.001   0.000
  0.000   0.000  -0.000   0.000   0.000   0.000   0.000   0.000   0.000  -0.000  -0.006  -0.000  -0.000  -0.000   0.000   0.004
  0.000  -0.000   0.000   0.000   0.000  -0.000   0.002   0.000  -0.000   0.000  -0.000  -0.001  -0.000   0.000  -0.000   0.000
  0.000   0.000   0.000   0.000  -0.000  -0.000   0.000   0.001  -0.000   0.000  -0.000  -0.000  -0.000   0.000  -0.000   0.000
  0.000   0.000   0.000   0.000   0.000  -0.000  -0.000  -0.000   0.004  -0.000  -0.000   0.000   0.000  -0.003   0.000   0.000
  0.000   0.000  -0.000   0.000   0.000   0.000   0.000   0.000  -0.000   0.001   0.000  -0.000  -0.000   0.000  -0.000  -0.000
  0.000   0.000   0.000   0.000   0.000   0.000  -0.000  -0.000  -0.000   0.000   0.004   0.000   0.000   0.000  -0.000  -0.003
  0.000   0.000   0.000   0.000   0.000   0.000   0.000  -0.000  -0.000   0.000  -0.000   0.000   0.000   0.000  -0.000   0.000
  0.000   0.000   0.000   0.000   0.000  -0.000   0.000   0.000  -0.000  -0.000   0.000  -0.000   0.000   0.000   0.000  -0.000


------------------------ aborting loop because EDIFF is reached ----------------------------------------





 total charge

# of ion       s       p       d       tot
------------------------------------------
    1        0.419   6.291   3.081   9.791
    2        0.419   6.291   3.081   9.791
--------------------------------------------------
tot          0.838  12.582   6.163  19.582



 magnetization (x)

# of ion       s       p       d       tot
------------------------------------------
    1       -0.000  -0.000  -0.001  -0.001
    2       -0.000  -0.000  -0.001  -0.001
--------------------------------------------------
tot         -0.000  -0.000  -0.002  -0.002

    CHARGE:  cpu time     27.0607: real time      1.5084
    FORLOC:  cpu time      0.0004: real time      0.0004
    FORNL :  cpu time    117.1529: real time      6.5188
    STRESS:  cpu time    349.7538: real time     19.5035
    FORCOR:  cpu time      1.3962: real time      0.1016
    FORHAR:  cpu time      0.1462: real time      0.0076
    MIXING:  cpu time      0.0012: real time      0.0012
    OFIELD:  cpu time      0.0000: real time      0.0000

  FORCE on cell =-STRESS in cart. coord.  units (eV):
  Direction    XX          YY          ZZ          XY          YZ          ZX
  --------------------------------------------------------------------------------------
  Alpha Z   247.02244   247.02244   247.02244
  Ewald    -636.46152  -635.15988  -637.25659     0.00000    -0.00000    -0.00000
  Hartree    82.09558    82.70899    81.67648    -0.00000    -0.00000    -0.00000
  E(xc)     -95.06006   -95.05732   -95.06241    -0.00000    -0.00000     0.00000
  Local     203.94591   202.01851   205.20260    -0.00000     0.00000    -0.00000
  n-local   -84.56082   -84.39508   -84.71491     0.88477     0.81475     0.73031
  augment    53.56821    53.55157    53.57694     0.00000     0.00000    -0.00000
  Kinetic   229.38036   229.57603   229.16677     0.21984     0.26668     0.28433
  Fock        0.00000     0.00000     0.00000     0.00000     0.00000     0.00000
  -------------------------------------------------------------------------------------
  Total      -0.06991     0.26527    -0.38868     0.00000     0.00000     0.00000
  in kB      -3.05579    11.59530   -16.98973     0.00000     0.00000     0.00000
  external pressure =       -2.82 kB  Pullay stress =        0.00 kB


 VOLUME and BASIS-vectors are now :
 -----------------------------------------------------------------------------
  energy-cutoff  :      520.00
  volume of cell :       36.65
      direct lattice vectors                 reciprocal lattice vectors
     3.321890070  0.000000000  0.000000000     0.301033441 -0.000000000  0.000000000
     0.000000000  3.288671170  0.000000000     0.000000000  0.304074183  0.000000000
     0.000000000  0.000000000  3.355108971    -0.000000000 -0.000000000  0.298052912

  length of vectors
     3.321890070  3.288671170  3.355108971     0.301033441  0.304074183  0.298052912


 FORCES acting on ions
    electron-ion (+dipol)            ewald-force                    non-local-force                 convergence-correction
 -----------------------------------------------------------------------------------------------
   -.193E-14 0.164E-13 -.306E-13   0.281E-15 -.526E-14 -.349E-14   0.340E-22 -.111E-21 -.198E-22   0.471E-14 0.337E-13 0.155E-13
   0.126E-12 0.153E-11 0.162E-11   0.190E-17 0.567E-14 0.180E-14   0.388E-22 -.206E-21 -.428E-21   -.348E-13 0.858E-14 -.529E-13
 -----------------------------------------------------------------------------------------------
   0.124E-12 0.155E-11 0.159E-11   0.283E-15 0.404E-15 -.169E-14   0.728E-22 -.317E-21 -.448E-21   -.301E-13 0.423E-13 -.374E-13


 POSITION                                       TOTAL-FORCE (eV/Angst)
 -----------------------------------------------------------------------------------
      0.00000      0.00000      0.00000         0.000000      0.000000      0.000000
      1.66095      1.64434      1.67755        -0.000000     -0.000000     -0.000000
 -----------------------------------------------------------------------------------
    total drift:                                0.000000      0.000000      0.000000


--------------------------------------------------------------------------------------------------------



  FREE ENERGIE OF THE ION-ELECTRON SYSTEM (eV)
  ---------------------------------------------------
  free  energy   TOTEN  =       -20.20599673 eV

  energy  without entropy=      -20.20599673  energy(sigma->0) =      -20.20599673



--------------------------------------------------------------------------------------------------------


    POTLOK:  cpu time      3.8200: real time      0.4283


--------------------------------------------------------------------------------------------------------


     LOOP+:  cpu time   4921.9156: real time    280.8182
 -----------------------------------------------------------------------------
|                                                                             |
|           W    W    AA    RRRRR   N    N  II  N    N   GGGG   !!!           |
|           W    W   A  A   R    R  NN   N  II  NN   N  G    G  !!!           |
|           W    W  A    A  R    R  N N  N  II  N N  N  G       !!!           |
|           W WW W  AAAAAA  RRRRR   N  N N  II  N  N N  G  GGG   !            |
|           WW  WW  A    A  R   R   N   NN  II  N   NN  G    G                |
|           W    W  A    A  R    R  N    N  II  N    N   GGGG   !!!           |
|                                                                             |
|     Tetrahedron method does not include variations of the Fermi             |
|     occupations, so forces and stress will be inaccurate. We suggest        |
|     using a different smearing scheme ISMEAR = 1 or 2 for metals in         |
|     relaxations.                                                            |
|                                                                             |
 -----------------------------------------------------------------------------

    4ORBIT:  cpu time      0.0000: real time      0.0000



 total charge

# of ion       s       p       d       tot
------------------------------------------
    1        0.419   6.291   3.081   9.791
    2        0.419   6.291   3.081   9.791
--------------------------------------------------
tot          0.838  12.582   6.163  19.582



 magnetization (x)

# of ion       s       p       d       tot
------------------------------------------
    1       -0.000  -0.000  -0.001  -0.001
    2       -0.000  -0.000  -0.001  -0.001
--------------------------------------------------
tot         -0.000  -0.000  -0.002  -0.002

 BZINTS: Fermi energy:    4.852697;   22.000000 electrons
         Band energy:-0.274547E+03;  BLOECHL correction:   -0.209124

 total amount of memory used by VASP MPI-rank0    87594. kBytes
=======================================================================

   base      :      30000. kBytes
   nonlr-proj:       5386. kBytes
   fftplans  :       5304. kBytes
   grid      :      12665. kBytes
   one-center:         62. kBytes
   wavefun   :      34177. kBytes

  
  
 General timing and accounting informations for this job:
 ========================================================
  
                  Total CPU time used (sec):     4964.325
                            User time (sec):     4750.421
                          System time (sec):      213.904
                         Elapsed time (sec):      284.075
  
                   Maximum memory used (kb):      327848.
                   Average memory used (kb):          N/A
  
                          Minor page faults:      6512453
                          Major page faults:          113
                 Voluntary context switches:      2448620
