  16  16   1   0
  0.7355291E+01  0.4108794E-09  0.4626882E-09  0.6190377E-09  0.5000000E-15
  1.000000000000000E-004
  CAR 
 unknown system                          
     39.39779979    -43.21411239  301     14.79245619      1.00000000
    -43.214  0.0000E+00  0.0000E+00  0.0000E+00  0.0000E+00
    -42.939  0.0000E+00  0.0000E+00  0.0000E+00  0.0000E+00
    -42.663  0.0000E+00  0.0000E+00  0.0000E+00  0.0000E+00
    -42.388  0.0000E+00  0.0000E+00  0.0000E+00  0.0000E+00
    -42.113  0.0000E+00  0.0000E+00  0.0000E+00  0.0000E+00
    -41.837  0.0000E+00  0.0000E+00  0.0000E+00  0.0000E+00
    -41.562  0.0000E+00  0.0000E+00  0.0000E+00  0.0000E+00
    -41.287  0.0000E+00  0.0000E+00  0.0000E+00  0.0000E+00
    -41.011  0.0000E+00  0.0000E+00  0.0000E+00  0.0000E+00
    -40.736  0.0000E+00  0.0000E+00  0.0000E+00  0.0000E+00
    -40.460  0.0000E+00  0.0000E+00  0.0000E+00  0.0000E+00
    -40.185  0.0000E+00  0.0000E+00  0.0000E+00  0.0000E+00
    -39.910  0.2741E-03  0.7512E-05  0.7547E-04  0.2069E-05
    -39.634  0.6880E-01  0.3621E-02  0.1902E-01  0.9992E-03
    -39.359  0.7537E+01  0.8149E+00  0.2095E+01  0.2254E+00
    -39.084  0.2921E+02  0.1961E+02  0.1014E+02  0.5627E+01
    -38.808  0.3883E+02  0.3267E+02  0.2094E+02  0.1470E+02
    -38.533  0.4637E+02  0.4868E+02  0.3385E+02  0.2823E+02
    -38.257  0.7139E+01  0.2692E+02  0.3599E+02  0.3586E+02
    -37.982  0.0000E+00  0.0000E+00  0.3600E+02  0.3600E+02
    -37.707  0.0000E+00  0.0000E+00  0.3600E+02  0.3600E+02
    -37.431  0.0000E+00  0.0000E+00  0.3600E+02  0.3600E+02
    -37.156  0.0000E+00  0.0000E+00  0.3600E+02  0.3600E+02
    -36.881  0.0000E+00  0.0000E+00  0.3600E+02  0.3600E+02
    -36.605  0.0000E+00  0.0000E+00  0.3600E+02  0.3600E+02
    -36.330  0.0000E+00  0.0000E+00  0.3600E+02  0.3600E+02
    -36.054  0.0000E+00  0.0000E+00  0.3600E+02  0.3600E+02
    -35.779  0.0000E+00  0.0000E+00  0.3600E+02  0.3600E+02
    -35.504  0.0000E+00  0.0000E+00  0.3600E+02  0.3600E+02
    -35.228  0.0000E+00  0.0000E+00  0.3600E+02  0.3600E+02
    -34.953  0.0000E+00  0.0000E+00  0.3600E+02  0.3600E+02
    -34.678  0.0000E+00  0.0000E+00  0.3600E+02  0.3600E+02
    -34.402  0.0000E+00  0.0000E+00  0.3600E+02  0.3600E+02
    -34.127  0.0000E+00  0.0000E+00  0.3600E+02  0.3600E+02
    -33.851  0.0000E+00  0.0000E+00  0.3600E+02  0.3600E+02
    -33.576  0.0000E+00  0.0000E+00  0.3600E+02  0.3600E+02
    -33.301  0.0000E+00  0.0000E+00  0.3600E+02  0.3600E+02
    -33.025  0.0000E+00  0.0000E+00  0.3600E+02  0.3600E+02
    -32.750  0.0000E+00  0.0000E+00  0.3600E+02  0.3600E+02
    -32.475  0.0000E+00  0.0000E+00  0.3600E+02  0.3600E+02
    -32.199  0.0000E+00  0.0000E+00  0.3600E+02  0.3600E+02
    -31.924  0.0000E+00  0.0000E+00  0.3600E+02  0.3600E+02
    -31.648  0.0000E+00  0.0000E+00  0.3600E+02  0.3600E+02
    -31.373  0.0000E+00  0.0000E+00  0.3600E+02  0.3600E+02
    -31.098  0.0000E+00  0.0000E+00  0.3600E+02  0.3600E+02
    -30.822  0.0000E+00  0.0000E+00  0.3600E+02  0.3600E+02
    -30.547  0.0000E+00  0.0000E+00  0.3600E+02  0.3600E+02
    -30.272  0.0000E+00  0.0000E+00  0.3600E+02  0.3600E+02
    -29.996  0.0000E+00  0.0000E+00  0.3600E+02  0.3600E+02
    -29.721  0.0000E+00  0.0000E+00  0.3600E+02  0.3600E+02
    -29.445  0.0000E+00  0.0000E+00  0.3600E+02  0.3600E+02
    -29.170  0.0000E+00  0.0000E+00  0.3600E+02  0.3600E+02
    -28.895  0.0000E+00  0.0000E+00  0.3600E+02  0.3600E+02
    -28.619  0.0000E+00  0.0000E+00  0.3600E+02  0.3600E+02
    -28.344  0.0000E+00  0.0000E+00  0.3600E+02  0.3600E+02
    -28.069  0.0000E+00  0.0000E+00  0.3600E+02  0.3600E+02
    -27.793  0.0000E+00  0.0000E+00  0.3600E+02  0.3600E+02
    -27.518  0.0000E+00  0.0000E+00  0.3600E+02  0.3600E+02
    -27.242  0.0000E+00  0.0000E+00  0.3600E+02  0.3600E+02
    -26.967  0.0000E+00  0.0000E+00  0.3600E+02  0.3600E+02
    -26.692  0.0000E+00  0.0000E+00  0.3600E+02  0.3600E+02
    -26.416  0.0000E+00  0.0000E+00  0.3600E+02  0.3600E+02
    -26.141  0.0000E+00  0.0000E+00  0.3600E+02  0.3600E+02
    -25.866  0.0000E+00  0.0000E+00  0.3600E+02  0.3600E+02
    -25.590  0.0000E+00  0.0000E+00  0.3600E+02  0.3600E+02
    -25.315  0.0000E+00  0.0000E+00  0.3600E+02  0.3600E+02
    -25.039  0.0000E+00  0.0000E+00  0.3600E+02  0.3600E+02
    -24.764  0.0000E+00  0.0000E+00  0.3600E+02  0.3600E+02
    -24.489  0.0000E+00  0.0000E+00  0.3600E+02  0.3600E+02
    -24.213  0.0000E+00  0.0000E+00  0.3600E+02  0.3600E+02
    -23.938  0.0000E+00  0.0000E+00  0.3600E+02  0.3600E+02
    -23.663  0.0000E+00  0.0000E+00  0.3600E+02  0.3600E+02
    -23.387  0.0000E+00  0.0000E+00  0.3600E+02  0.3600E+02
    -23.112  0.0000E+00  0.0000E+00  0.3600E+02  0.3600E+02
    -22.837  0.0000E+00  0.0000E+00  0.3600E+02  0.3600E+02
    -22.561  0.0000E+00  0.0000E+00  0.3600E+02  0.3600E+02
    -22.286  0.0000E+00  0.0000E+00  0.3600E+02  0.3600E+02
    -22.010  0.0000E+00  0.0000E+00  0.3600E+02  0.3600E+02
    -21.735  0.0000E+00  0.0000E+00  0.3600E+02  0.3600E+02
    -21.460  0.0000E+00  0.0000E+00  0.3600E+02  0.3600E+02
    -21.184  0.0000E+00  0.0000E+00  0.3600E+02  0.3600E+02
    -20.909  0.0000E+00  0.0000E+00  0.3600E+02  0.3600E+02
    -20.634  0.0000E+00  0.0000E+00  0.3600E+02  0.3600E+02
    -20.358  0.0000E+00  0.0000E+00  0.3600E+02  0.3600E+02
    -20.083  0.0000E+00  0.0000E+00  0.3600E+02  0.3600E+02
    -19.807  0.0000E+00  0.0000E+00  0.3600E+02  0.3600E+02
    -19.532  0.0000E+00  0.0000E+00  0.3600E+02  0.3600E+02
    -19.257  0.0000E+00  0.0000E+00  0.3600E+02  0.3600E+02
    -18.981  0.0000E+00  0.0000E+00  0.3600E+02  0.3600E+02
    -18.706  0.0000E+00  0.0000E+00  0.3600E+02  0.3600E+02
    -18.431  0.0000E+00  0.0000E+00  0.3600E+02  0.3600E+02
    -18.155  0.0000E+00  0.0000E+00  0.3600E+02  0.3600E+02
    -17.880  0.0000E+00  0.0000E+00  0.3600E+02  0.3600E+02
    -17.604  0.0000E+00  0.0000E+00  0.3600E+02  0.3600E+02
    -17.329  0.0000E+00  0.0000E+00  0.3600E+02  0.3600E+02
    -17.054  0.0000E+00  0.0000E+00  0.3600E+02  0.3600E+02
    -16.778  0.0000E+00  0.0000E+00  0.3600E+02  0.3600E+02
    -16.503  0.0000E+00  0.0000E+00  0.3600E+02  0.3600E+02
    -16.228  0.0000E+00  0.0000E+00  0.3600E+02  0.3600E+02
    -15.952  0.0000E+00  0.0000E+00  0.3600E+02  0.3600E+02
    -15.677  0.0000E+00  0.0000E+00  0.3600E+02  0.3600E+02
    -15.401  0.0000E+00  0.0000E+00  0.3600E+02  0.3600E+02
    -15.126  0.0000E+00  0.0000E+00  0.3600E+02  0.3600E+02
    -14.851  0.0000E+00  0.0000E+00  0.3600E+02  0.3600E+02
    -14.575  0.0000E+00  0.0000E+00  0.3600E+02  0.3600E+02
    -14.300  0.0000E+00  0.0000E+00  0.3600E+02  0.3600E+02
    -14.025  0.0000E+00  0.0000E+00  0.3600E+02  0.3600E+02
    -13.749  0.0000E+00  0.0000E+00  0.3600E+02  0.3600E+02
    -13.474  0.0000E+00  0.0000E+00  0.3600E+02  0.3600E+02
    -13.198  0.0000E+00  0.0000E+00  0.3600E+02  0.3600E+02
    -12.923  0.0000E+00  0.0000E+00  0.3600E+02  0.3600E+02
    -12.648  0.0000E+00  0.0000E+00  0.3600E+02  0.3600E+02
    -12.372  0.0000E+00  0.0000E+00  0.3600E+02  0.3600E+02
    -12.097  0.0000E+00  0.0000E+00  0.3600E+02  0.3600E+02
    -11.822  0.0000E+00  0.0000E+00  0.3600E+02  0.3600E+02
    -11.546  0.0000E+00  0.0000E+00  0.3600E+02  0.3600E+02
    -11.271  0.0000E+00  0.0000E+00  0.3600E+02  0.3600E+02
    -10.995  0.0000E+00  0.0000E+00  0.3600E+02  0.3600E+02
    -10.720  0.0000E+00  0.0000E+00  0.3600E+02  0.3600E+02
    -10.445  0.0000E+00  0.0000E+00  0.3600E+02  0.3600E+02
    -10.169  0.0000E+00  0.0000E+00  0.3600E+02  0.3600E+02
     -9.894  0.0000E+00  0.0000E+00  0.3600E+02  0.3600E+02
     -9.619  0.0000E+00  0.0000E+00  0.3600E+02  0.3600E+02
     -9.343  0.0000E+00  0.0000E+00  0.3600E+02  0.3600E+02
     -9.068  0.0000E+00  0.0000E+00  0.3600E+02  0.3600E+02
     -8.792  0.0000E+00  0.0000E+00  0.3600E+02  0.3600E+02
     -8.517  0.0000E+00  0.0000E+00  0.3600E+02  0.3600E+02
     -8.242  0.0000E+00  0.0000E+00  0.3600E+02  0.3600E+02
     -7.966  0.0000E+00  0.0000E+00  0.3600E+02  0.3600E+02
     -7.691  0.0000E+00  0.0000E+00  0.3600E+02  0.3600E+02
     -7.416  0.0000E+00  0.0000E+00  0.3600E+02  0.3600E+02
     -7.140  0.0000E+00  0.0000E+00  0.3600E+02  0.3600E+02
     -6.865  0.0000E+00  0.0000E+00  0.3600E+02  0.3600E+02
     -6.589  0.0000E+00  0.0000E+00  0.3600E+02  0.3600E+02
     -6.314  0.0000E+00  0.0000E+00  0.3600E+02  0.3600E+02
     -6.039  0.0000E+00  0.0000E+00  0.3600E+02  0.3600E+02
     -5.763  0.0000E+00  0.0000E+00  0.3600E+02  0.3600E+02
     -5.488  0.0000E+00  0.0000E+00  0.3600E+02  0.3600E+02
     -5.213  0.0000E+00  0.0000E+00  0.3600E+02  0.3600E+02
     -4.937  0.0000E+00  0.0000E+00  0.3600E+02  0.3600E+02
     -4.662  0.0000E+00  0.0000E+00  0.3600E+02  0.3600E+02
     -4.387  0.0000E+00  0.0000E+00  0.3600E+02  0.3600E+02
     -4.111  0.0000E+00  0.0000E+00  0.3600E+02  0.3600E+02
     -3.836  0.0000E+00  0.0000E+00  0.3600E+02  0.3600E+02
     -3.560  0.0000E+00  0.0000E+00  0.3600E+02  0.3600E+02
     -3.285  0.0000E+00  0.0000E+00  0.3600E+02  0.3600E+02
     -3.010  0.0000E+00  0.0000E+00  0.3600E+02  0.3600E+02
     -2.734  0.0000E+00  0.0000E+00  0.3600E+02  0.3600E+02
     -2.459  0.0000E+00  0.0000E+00  0.3600E+02  0.3600E+02
     -2.184  0.0000E+00  0.0000E+00  0.3600E+02  0.3600E+02
     -1.908  0.0000E+00  0.0000E+00  0.3600E+02  0.3600E+02
     -1.633  0.0000E+00  0.0000E+00  0.3600E+02  0.3600E+02
     -1.357  0.1066E-05  0.9518E-06  0.3600E+02  0.3600E+02
     -1.082  0.2701E-03  0.2412E-03  0.3600E+02  0.3600E+02
     -0.807  0.2976E-01  0.2797E-01  0.3601E+02  0.3601E+02
     -0.531  0.2170E+00  0.2105E+00  0.3607E+02  0.3607E+02
     -0.256  0.5002E+00  0.4958E+00  0.3621E+02  0.3620E+02
      0.019  0.5296E+00  0.5310E+00  0.3635E+02  0.3635E+02
      0.295  0.9107E+00  0.8961E+00  0.3661E+02  0.3660E+02
      0.570  0.1220E+01  0.1222E+01  0.3695E+02  0.3694E+02
      0.846  0.1803E+01  0.1767E+01  0.3745E+02  0.3743E+02
      1.121  0.2403E+01  0.2415E+01  0.3812E+02  0.3810E+02
      1.396  0.3004E+01  0.2972E+01  0.3896E+02  0.3893E+02
      1.672  0.2152E+01  0.2218E+01  0.3956E+02  0.3955E+02
      1.947  0.1275E+01  0.1296E+01  0.3992E+02  0.3991E+02
      2.222  0.2579E+00  0.2756E+00  0.4000E+02  0.4000E+02
      2.498  0.3107E-02  0.3581E-02  0.4000E+02  0.4000E+02
      2.773  0.0000E+00  0.0000E+00  0.4000E+02  0.4000E+02
      3.049  0.0000E+00  0.0000E+00  0.4000E+02  0.4000E+02
      3.324  0.0000E+00  0.0000E+00  0.4000E+02  0.4000E+02
      3.599  0.0000E+00  0.0000E+00  0.4000E+02  0.4000E+02
      3.875  0.0000E+00  0.0000E+00  0.4000E+02  0.4000E+02
      4.150  0.0000E+00  0.0000E+00  0.4000E+02  0.4000E+02
      4.425  0.0000E+00  0.0000E+00  0.4000E+02  0.4000E+02
      4.701  0.0000E+00  0.0000E+00  0.4000E+02  0.4000E+02
      4.976  0.5036E-06  0.2547E-06  0.4000E+02  0.4000E+02
      5.252  0.1438E-03  0.9129E-04  0.4000E+02  0.4000E+02
      5.527  0.2429E-01  0.1701E-01  0.4001E+02  0.4000E+02
      5.802  0.5342E+00  0.4124E+00  0.4015E+02  0.4012E+02
      6.078  0.2708E+01  0.2564E+01  0.4090E+02  0.4083E+02
      6.353  0.3130E+01  0.3037E+01  0.4177E+02  0.4167E+02
      6.628  0.4153E+01  0.3968E+01  0.4293E+02  0.4278E+02
      6.904  0.3824E+01  0.3932E+01  0.4400E+02  0.4388E+02
      7.179  0.3387E+01  0.3350E+01  0.4494E+02  0.4483E+02
      7.455  0.2572E+01  0.2698E+01  0.4567E+02  0.4559E+02
      7.730  0.2959E+01  0.2689E+01  0.4649E+02  0.4635E+02
      8.005  0.4221E+01  0.4162E+01  0.4767E+02  0.4750E+02
      8.281  0.3854E+01  0.3833E+01  0.4875E+02  0.4857E+02
      8.556  0.4204E+01  0.4001E+01  0.4992E+02  0.4968E+02
      8.831  0.5698E+01  0.5848E+01  0.5151E+02  0.5130E+02
      9.107  0.1861E+01  0.2439E+01  0.5204E+02  0.5200E+02
      9.382  0.1368E+01  0.1131E+01  0.5242E+02  0.5233E+02
      9.658  0.3880E+01  0.2837E+01  0.5350E+02  0.5311E+02
      9.933  0.5144E+01  0.5272E+01  0.5493E+02  0.5457E+02
     10.208  0.6455E+01  0.5551E+01  0.5672E+02  0.5612E+02
     10.484  0.7551E+01  0.7660E+01  0.5883E+02  0.5825E+02
     10.759  0.8283E+01  0.7203E+01  0.6114E+02  0.6027E+02
     11.034  0.9140E+01  0.9551E+01  0.6368E+02  0.6293E+02
     11.310  0.8274E+01  0.8327E+01  0.6599E+02  0.6527E+02
     11.585  0.6037E+01  0.6854E+01  0.6769E+02  0.6720E+02
     11.860  0.5584E+01  0.4972E+01  0.6925E+02  0.6860E+02
     12.136  0.9388E+01  0.8161E+01  0.7185E+02  0.7086E+02
     12.411  0.9232E+01  0.9746E+01  0.7444E+02  0.7357E+02
     12.687  0.7289E+01  0.7492E+01  0.7648E+02  0.7567E+02
     12.962  0.7991E+01  0.8064E+01  0.7870E+02  0.7793E+02
     13.237  0.4946E+01  0.5903E+01  0.8011E+02  0.7959E+02
     13.513  0.5610E+01  0.4617E+01  0.8167E+02  0.8089E+02
     13.788  0.6957E+01  0.6839E+01  0.8361E+02  0.8279E+02
     14.063  0.7675E+01  0.7276E+01  0.8574E+02  0.8483E+02
     14.339  0.8740E+01  0.8248E+01  0.8818E+02  0.8713E+02
     14.614  0.9295E+01  0.8554E+01  0.9078E+02  0.8951E+02
     14.890  0.1049E+02  0.1019E+02  0.9369E+02  0.9235E+02
     15.165  0.1026E+02  0.9960E+01  0.9656E+02  0.9514E+02
     15.440  0.1082E+02  0.1081E+02  0.9957E+02  0.9816E+02
     15.716  0.7503E+01  0.9421E+01  0.1017E+03  0.1008E+03
     15.991  0.4164E+01  0.5469E+01  0.1029E+03  0.1024E+03
     16.266  0.3952E+01  0.4188E+01  0.1040E+03  0.1035E+03
     16.542  0.2703E+01  0.3230E+01  0.1047E+03  0.1044E+03
     16.817  0.2752E+01  0.2774E+01  0.1055E+03  0.1052E+03
     17.093  0.3020E+01  0.2949E+01  0.1063E+03  0.1060E+03
     17.368  0.2788E+01  0.2992E+01  0.1071E+03  0.1069E+03
     17.643  0.1947E+01  0.2033E+01  0.1077E+03  0.1074E+03
     17.919  0.2646E+01  0.2689E+01  0.1084E+03  0.1082E+03
     18.194  0.2812E+01  0.2660E+01  0.1092E+03  0.1089E+03
     18.469  0.2090E+01  0.2483E+01  0.1098E+03  0.1096E+03
     18.745  0.2130E+01  0.1860E+01  0.1104E+03  0.1101E+03
     19.020  0.2526E+01  0.2649E+01  0.1111E+03  0.1109E+03
     19.296  0.2380E+01  0.2317E+01  0.1117E+03  0.1115E+03
     19.571  0.1359E+01  0.1820E+01  0.1121E+03  0.1120E+03
     19.846  0.6905E+00  0.7406E+00  0.1123E+03  0.1122E+03
     20.122  0.1717E+01  0.1564E+01  0.1128E+03  0.1127E+03
     20.397  0.9900E+00  0.1030E+01  0.1131E+03  0.1130E+03
     20.672  0.2160E+01  0.1968E+01  0.1137E+03  0.1135E+03
     20.948  0.1486E+01  0.1769E+01  0.1141E+03  0.1140E+03
     21.223  0.1946E+01  0.1762E+01  0.1146E+03  0.1145E+03
     21.499  0.2109E+01  0.2192E+01  0.1152E+03  0.1151E+03
     21.774  0.2260E+01  0.2248E+01  0.1159E+03  0.1157E+03
     22.049  0.1923E+01  0.2054E+01  0.1164E+03  0.1163E+03
     22.325  0.1950E+01  0.1785E+01  0.1169E+03  0.1168E+03
     22.600  0.2479E+01  0.2631E+01  0.1176E+03  0.1175E+03
     22.875  0.1447E+01  0.1677E+01  0.1180E+03  0.1180E+03
     23.151  0.5653E+00  0.4867E+00  0.1182E+03  0.1182E+03
     23.426  0.1096E+01  0.9790E+00  0.1185E+03  0.1184E+03
     23.702  0.1562E+01  0.1558E+01  0.1189E+03  0.1189E+03
     23.977  0.9604E+00  0.1134E+01  0.1192E+03  0.1192E+03
     24.252  0.9313E+00  0.8556E+00  0.1195E+03  0.1194E+03
     24.528  0.9798E+00  0.1023E+01  0.1197E+03  0.1197E+03
     24.803  0.9922E+00  0.1041E+01  0.1200E+03  0.1200E+03
     25.078  0.1605E+01  0.1413E+01  0.1205E+03  0.1204E+03
     25.354  0.2256E+01  0.2225E+01  0.1211E+03  0.1210E+03
     25.629  0.2521E+01  0.2593E+01  0.1218E+03  0.1217E+03
     25.905  0.1152E+01  0.1335E+01  0.1221E+03  0.1221E+03
     26.180  0.1590E+01  0.1324E+01  0.1226E+03  0.1225E+03
     26.455  0.3065E+01  0.2992E+01  0.1234E+03  0.1233E+03
     26.731  0.2573E+01  0.2665E+01  0.1241E+03  0.1240E+03
     27.006  0.1906E+01  0.1920E+01  0.1247E+03  0.1246E+03
     27.281  0.1672E+01  0.1871E+01  0.1252E+03  0.1251E+03
     27.557  0.1355E+01  0.1312E+01  0.1255E+03  0.1255E+03
     27.832  0.2452E+01  0.2256E+01  0.1262E+03  0.1261E+03
     28.108  0.2803E+01  0.2707E+01  0.1270E+03  0.1269E+03
     28.383  0.2365E+01  0.2627E+01  0.1277E+03  0.1276E+03
     28.658  0.1830E+01  0.1846E+01  0.1282E+03  0.1281E+03
     28.934  0.1318E+01  0.1257E+01  0.1285E+03  0.1285E+03
     29.209  0.2914E+01  0.2763E+01  0.1294E+03  0.1292E+03
     29.484  0.3190E+01  0.3174E+01  0.1303E+03  0.1301E+03
     29.760  0.3431E+01  0.3549E+01  0.1312E+03  0.1311E+03
     30.035  0.2251E+01  0.2378E+01  0.1318E+03  0.1318E+03
     30.310  0.1716E+01  0.1728E+01  0.1323E+03  0.1323E+03
     30.586  0.2199E+01  0.2130E+01  0.1329E+03  0.1328E+03
     30.861  0.2662E+01  0.2654E+01  0.1337E+03  0.1336E+03
     31.137  0.2806E+01  0.2791E+01  0.1345E+03  0.1344E+03
     31.412  0.2572E+01  0.2608E+01  0.1352E+03  0.1351E+03
     31.687  0.2293E+01  0.2383E+01  0.1358E+03  0.1358E+03
     31.963  0.2753E+01  0.2694E+01  0.1366E+03  0.1365E+03
     32.238  0.2343E+01  0.2340E+01  0.1372E+03  0.1372E+03
     32.513  0.1862E+01  0.1972E+01  0.1378E+03  0.1377E+03
     32.789  0.3086E+01  0.2862E+01  0.1386E+03  0.1385E+03
     33.064  0.2764E+01  0.2914E+01  0.1394E+03  0.1393E+03
     33.340  0.2720E+01  0.2691E+01  0.1402E+03  0.1401E+03
     33.615  0.2495E+01  0.2487E+01  0.1409E+03  0.1408E+03
     33.890  0.2473E+01  0.2566E+01  0.1416E+03  0.1415E+03
     34.166  0.2430E+01  0.2445E+01  0.1422E+03  0.1422E+03
     34.441  0.2346E+01  0.2344E+01  0.1429E+03  0.1428E+03
     34.716  0.2161E+01  0.2206E+01  0.1435E+03  0.1434E+03
     34.992  0.1168E+01  0.1251E+01  0.1438E+03  0.1438E+03
     35.267  0.4948E+00  0.5526E+00  0.1440E+03  0.1440E+03
     35.543  0.7765E-01  0.1065E+00  0.1440E+03  0.1440E+03
     35.818  0.4552E-01  0.4950E-01  0.1440E+03  0.1440E+03
     36.093  0.0000E+00  0.0000E+00  0.1440E+03  0.1440E+03
     36.369  0.0000E+00  0.0000E+00  0.1440E+03  0.1440E+03
     36.644  0.0000E+00  0.0000E+00  0.1440E+03  0.1440E+03
     36.919  0.0000E+00  0.0000E+00  0.1440E+03  0.1440E+03
     37.195  0.0000E+00  0.0000E+00  0.1440E+03  0.1440E+03
     37.470  0.0000E+00  0.0000E+00  0.1440E+03  0.1440E+03
     37.746  0.0000E+00  0.0000E+00  0.1440E+03  0.1440E+03
     38.021  0.0000E+00  0.0000E+00  0.1440E+03  0.1440E+03
     38.296  0.0000E+00  0.0000E+00  0.1440E+03  0.1440E+03
     38.572  0.0000E+00  0.0000E+00  0.1440E+03  0.1440E+03
     38.847  0.0000E+00  0.0000E+00  0.1440E+03  0.1440E+03
     39.122  0.0000E+00  0.0000E+00  0.1440E+03  0.1440E+03
     39.398  0.0000E+00  0.0000E+00  0.1440E+03  0.1440E+03
     39.39779979    -43.21411239  301     14.79245619      1.00000000
    -43.214  0.0000E+00  0.0000E+00  0.0000E+00  0.0000E+00  0.0000E+00  0.0000E+00  0.0000E+00  0.0000E+00  0.0000E+00  0.0000E+00  0.0000E+00  0.0000E+00  0.0000E+00  0.0000E+00  0.0000E+00  0.0000E+00  0.0000E+00  0.0000E+00
    -42.939  0.0000E+00  0.0000E+00  0.0000E+00  0.0000E+00  0.0000E+00  0.0000E+00  0.0000E+00  0.0000E+00  0.0000E+00  0.0000E+00  0.0000E+00  0.0000E+00  0.0000E+00  0.0000E+00  0.0000E+00  0.0000E+00  0.0000E+00  0.0000E+00
    -42.663  0.0000E+00  0.0000E+00  0.0000E+00  0.0000E+00  0.0000E+00  0.0000E+00  0.0000E+00  0.0000E+00  0.0000E+00  0.0000E+00  0.0000E+00  0.0000E+00  0.0000E+00  0.0000E+00  0.0000E+00  0.0000E+00  0.0000E+00  0.0000E+00
    -42.388  0.0000E+00  0.0000E+00  0.0000E+00  0.0000E+00  0.0000E+00  0.0000E+00  0.0000E+00  0.0000E+00  0.0000E+00  0.0000E+00  0.0000E+00  0.0000E+00  0.0000E+00  0.0000E+00  0.0000E+00  0.0000E+00  0.0000E+00  0.0000E+00
    -42.113  0.0000E+00  0.0000E+00  0.0000E+00  0.0000E+00  0.0000E+00  0.0000E+00  0.0000E+00  0.0000E+00  0.0000E+00  0.0000E+00  0.0000E+00  0.0000E+00  0.0000E+00  0.0000E+00  0.0000E+00  0.0000E+00  0.0000E+00  0.0000E+00
    -41.837  0.0000E+00  0.0000E+00  0.0000E+00  0.0000E+00  0.0000E+00  0.0000E+00  0.0000E+00  0.0000E+00  0.0000E+00  0.0000E+00  0.0000E+00  0.0000E+00  0.0000E+00  0.0000E+00  0.0000E+00  0.0000E+00  0.0000E+00  0.0000E+00
    -41.562  0.0000E+00  0.0000E+00  0.0000E+00  0.0000E+00  0.0000E+00  0.0000E+00  0.0000E+00  0.0000E+00  0.0000E+00  0.0000E+00  0.0000E+00  0.0000E+00  0.0000E+00  0.0000E+00  0.0000E+00  0.0000E+00  0.0000E+00  0.0000E+00
    -41.287  0.0000E+00  0.0000E+00  0.0000E+00  0.0000E+00  0.0000E+00  0.0000E+00  0.0000E+00  0.0000E+00  0.0000E+00  0.0000E+00  0.0000E+00  0.0000E+00  0.0000E+00  0.0000E+00  0.0000E+00  0.0000E+00  0.0000E+00  0.0000E+00
    -41.011  0.0000E+00  0.0000E+00  0.0000E+00  0.0000E+00  0.0000E+00  0.0000E+00  0.0000E+00  0.0000E+00  0.0000E+00  0.0000E+00  0.0000E+00  0.0000E+00  0.0000E+00  0.0000E+00  0.0000E+00  0.0000E+00  0.0000E+00  0.0000E+00
    -40.736  0.0000E+00  0.0000E+00  0.0000E+00  0.0000E+00  0.0000E+00  0.0000E+00  0.0000E+00  0.0000E+00  0.0000E+00  0.0000E+00  0.0000E+00  0.0000E+00  0.0000E+00  0.0000E+00  0.0000E+00  0.0000E+00  0.0000E+00  0.0000E+00
    -40.460  0.0000E+00  0.0000E+00  0.0000E+00  0.0000E+00  0.0000E+00  0.0000E+00  0.0000E+00  0.0000E+00  0.0000E+00  0.0000E+00  0.0000E+00  0.0000E+00  0.0000E+00  0.0000E+00  0.0000E+00  0.0000E+00  0.0000E+00  0.0000E+00
    -40.185  0.0000E+00  0.0000E+00  0.0000E+00  0.0000E+00  0.0000E+00  0.0000E+00  0.0000E+00  0.0000E+00  0.0000E+00  0.0000E+00  0.0000E+00  0.0000E+00  0.0000E+00  0.0000E+00  0.0000E+00  0.0000E+00  0.0000E+00  0.0000E+00
    -39.910  0.4717E-08  0.1134E-09  0.3063E-05  0.1619E-06  0.2495E-05  0.7352E-07  0.3651E-05  0.1576E-06  0.7234E-09  0.1149E-10  0.1294E-08  0.1502E-10  0.1234E-08  0.3171E-10  0.1450E-08  0.3006E-10  0.1004E-08  0.2578E-10
    -39.634  0.1186E-05  0.5849E-07  0.7713E-03  0.6983E-04  0.6389E-03  0.4155E-04  0.9197E-03  0.7095E-04  0.1836E-06  0.8864E-08  0.3294E-06  0.1641E-07  0.3083E-06  0.1563E-07  0.3647E-06  0.1746E-07  0.2544E-06  0.1436E-07
    -39.359  0.1348E-03  0.1338E-04  0.8400E-01  0.1559E-01  0.7458E-01  0.9511E-02  0.9435E-01  0.1588E-01  0.2366E-04  0.2053E-05  0.4627E-04  0.3824E-05  0.3366E-04  0.3494E-05  0.4255E-04  0.3985E-05  0.2940E-04  0.3243E-05
    -39.084  0.5168E-03  0.3413E-03  0.4745E+00  0.3752E+00  0.3923E+00  0.2841E+00  0.4302E+00  0.3535E+00  0.1147E-03  0.7491E-04  0.2276E-03  0.1358E-03  0.1258E-03  0.7960E-04  0.1617E-03  0.1046E-03  0.1346E-03  0.8694E-04
    -38.808  0.4555E-03  0.5434E-03  0.1022E+01  0.9552E+00  0.5669E+00  0.6515E+00  0.1066E+01  0.9287E+00  0.1273E-03  0.1155E-03  0.2786E-03  0.2397E-03  0.1856E-03  0.1490E-03  0.1913E-03  0.1647E-03  0.1802E-03  0.1773E-03
    -38.533  0.1333E-03  0.3088E-03  0.1597E+01  0.1289E+01  0.2046E+01  0.1385E+01  0.1677E+01  0.1505E+01  0.1149E-03  0.1369E-03  0.1555E-03  0.2630E-03  0.1777E-03  0.2225E-03  0.1223E-03  0.1821E-03  0.1477E-03  0.1739E-03
    -38.257  0.1464E-04  0.6465E-04  0.3965E+00  0.9240E+00  0.4996E+00  0.1227E+01  0.3068E+00  0.7473E+00  0.1642E-04  0.7129E-04  0.1408E-04  0.8824E-04  0.1441E-04  0.8752E-04  0.1049E-04  0.7908E-04  0.2126E-04  0.7431E-04
    -37.982  0.0000E+00  0.0000E+00  0.0000E+00  0.0000E+00  0.0000E+00  0.0000E+00  0.0000E+00  0.0000E+00  0.0000E+00  0.0000E+00  0.0000E+00  0.0000E+00  0.0000E+00  0.0000E+00  0.0000E+00  0.0000E+00  0.0000E+00  0.0000E+00
    -37.707  0.0000E+00  0.0000E+00  0.0000E+00  0.0000E+00  0.0000E+00  0.0000E+00  0.0000E+00  0.0000E+00  0.0000E+00  0.0000E+00  0.0000E+00  0.0000E+00  0.0000E+00  0.0000E+00  0.0000E+00  0.0000E+00  0.0000E+00  0.0000E+00
    -37.431  0.0000E+00  0.0000E+00  0.0000E+00  0.0000E+00  0.0000E+00  0.0000E+00  0.0000E+00  0.0000E+00  0.0000E+00  0.0000E+00  0.0000E+00  0.0000E+00  0.0000E+00  0.0000E+00  0.0000E+00  0.0000E+00  0.0000E+00  0.0000E+00
    -37.156  0.0000E+00  0.0000E+00  0.0000E+00  0.0000E+00  0.0000E+00  0.0000E+00  0.0000E+00  0.0000E+00  0.0000E+00  0.0000E+00  0.0000E+00  0.0000E+00  0.0000E+00  0.0000E+00  0.0000E+00  0.0000E+00  0.0000E+00  0.0000E+00
    -36.881  0.0000E+00  0.0000E+00  0.0000E+00  0.0000E+00  0.0000E+00  0.0000E+00  0.0000E+00  0.0000E+00  0.0000E+00  0.0000E+00  0.0000E+00  0.0000E+00  0.0000E+00  0.0000E+00  0.0000E+00  0.0000E+00  0.0000E+00  0.0000E+00
    -36.605  0.0000E+00  0.0000E+00  0.0000E+00  0.0000E+00  0.0000E+00  0.0000E+00  0.0000E+00  0.0000E+00  0.0000E+00  0.0000E+00  0.0000E+00  0.0000E+00  0.0000E+00  0.0000E+00  0.0000E+00  0.0000E+00  0.0000E+00  0.0000E+00
    -36.330  0.0000E+00  0.0000E+00  0.0000E+00  0.0000E+00  0.0000E+00  0.0000E+00  0.0000E+00  0.0000E+00  0.0000E+00  0.0000E+00  0.0000E+00  0.0000E+00  0.0000E+00  0.0000E+00  0.0000E+00  0.0000E+00  0.0000E+00  0.0000E+00
    -36.054  0.0000E+00  0.0000E+00  0.0000E+00  0.0000E+00  0.0000E+00  0.0000E+00  0.0000E+00  0.0000E+00  0.0000E+00  0.0000E+00  0.0000E+00  0.0000E+00  0.0000E+00  0.0000E+00  0.0000E+00  0.0000E+00  0.0000E+00  0.0000E+00
    -35.779  0.0000E+00  0.0000E+00  0.0000E+00  0.0000E+00  0.0000E+00  0.0000E+00  0.0000E+00  0.0000E+00  0.0000E+00  0.0000E+00  0.0000E+00  0.0000E+00  0.0000E+00  0.0000E+00  0.0000E+00  0.0000E+00  0.0000E+00  0.0000E+00
    -35.504  0.0000E+00  0.0000E+00  0.0000E+00  0.0000E+00  0.0000E+00  0.0000E+00  0.0000E+00  0.0000E+00  0.0000E+00  0.0000E+00  0.0000E+00  0.0000E+00  0.0000E+00  0.0000E+00  0.0000E+00  0.0000E+00  0.0000E+00  0.0000E+00
    -35.228  0.0000E+00  0.0000E+00  0.0000E+00  0.0000E+00  0.0000E+00  0.0000E+00  0.0000E+00  0.0000E+00  0.0000E+00  0.0000E+00  0.0000E+00  0.0000E+00  0.0000E+00  0.0000E+00  0.0000E+00  0.0000E+00  0.0000E+00  0.0000E+00
    -34.953  0.0000E+00  0.0000E+00  0.0000E+00  0.0000E+00  0.0000E+00  0.0000E+00  0.0000E+00  0.0000E+00  0.0000E+00  0.0000E+00  0.0000E+00  0.0000E+00  0.0000E+00  0.0000E+00  0.0000E+00  0.0000E+00  0.0000E+00  0.0000E+00
    -34.678  0.0000E+00  0.0000E+00  0.0000E+00  0.0000E+00  0.0000E+00  0.0000E+00  0.0000E+00  0.0000E+00  0.0000E+00  0.0000E+00  0.0000E+00  0.0000E+00  0.0000E+00  0.0000E+00  0.0000E+00  0.0000E+00  0.0000E+00  0.0000E+00
    -34.402  0.0000E+00  0.0000E+00  0.0000E+00  0.0000E+00  0.0000E+00  0.0000E+00  0.0000E+00  0.0000E+00  0.0000E+00  0.0000E+00  0.0000E+00  0.0000E+00  0.0000E+00  0.0000E+00  0.0000E+00  0.0000E+00  0.0000E+00  0.0000E+00
    -34.127  0.0000E+00  0.0000E+00  0.0000E+00  0.0000E+00  0.0000E+00  0.0000E+00  0.0000E+00  0.0000E+00  0.0000E+00  0.0000E+00  0.0000E+00  0.0000E+00  0.0000E+00  0.0000E+00  0.0000E+00  0.0000E+00  0.0000E+00  0.0000E+00
    -33.851  0.0000E+00  0.0000E+00  0.0000E+00  0.0000E+00  0.0000E+00  0.0000E+00  0.0000E+00  0.0000E+00  0.0000E+00  0.0000E+00  0.0000E+00  0.0000E+00  0.0000E+00  0.0000E+00  0.0000E+00  0.0000E+00  0.0000E+00  0.0000E+00
    -33.576  0.0000E+00  0.0000E+00  0.0000E+00  0.0000E+00  0.0000E+00  0.0000E+00  0.0000E+00  0.0000E+00  0.0000E+00  0.0000E+00  0.0000E+00  0.0000E+00  0.0000E+00  0.0000E+00  0.0000E+00  0.0000E+00  0.0000E+00  0.0000E+00
    -33.301  0.0000E+00  0.0000E+00  0.0000E+00  0.0000E+00  0.0000E+00  0.0000E+00  0.0000E+00  0.0000E+00  0.0000E+00  0.0000E+00  0.0000E+00  0.0000E+00  0.0000E+00  0.0000E+00  0.0000E+00  0.0000E+00  0.0000E+00  0.0000E+00
    -33.025  0.0000E+00  0.0000E+00  0.0000E+00  0.0000E+00  0.0000E+00  0.0000E+00  0.0000E+00  0.0000E+00  0.0000E+00  0.0000E+00  0.0000E+00  0.0000E+00  0.0000E+00  0.0000E+00  0.0000E+00  0.0000E+00  0.0000E+00  0.0000E+00
    -32.750  0.0000E+00  0.0000E+00  0.0000E+00  0.0000E+00  0.0000E+00  0.0000E+00  0.0000E+00  0.0000E+00  0.0000E+00  0.0000E+00  0.0000E+00  0.0000E+00  0.0000E+00  0.0000E+00  0.0000E+00  0.0000E+00  0.0000E+00  0.0000E+00
    -32.475  0.0000E+00  0.0000E+00  0.0000E+00  0.0000E+00  0.0000E+00  0.0000E+00  0.0000E+00  0.0000E+00  0.0000E+00  0.0000E+00  0.0000E+00  0.0000E+00  0.0000E+00  0.0000E+00  0.0000E+00  0.0000E+00  0.0000E+00  0.0000E+00
    -32.199  0.0000E+00  0.0000E+00  0.0000E+00  0.0000E+00  0.0000E+00  0.0000E+00  0.0000E+00  0.0000E+00  0.0000E+00  0.0000E+00  0.0000E+00  0.0000E+00  0.0000E+00  0.0000E+00  0.0000E+00  0.0000E+00  0.0000E+00  0.0000E+00
    -31.924  0.0000E+00  0.0000E+00  0.0000E+00  0.0000E+00  0.0000E+00  0.0000E+00  0.0000E+00  0.0000E+00  0.0000E+00  0.0000E+00  0.0000E+00  0.0000E+00  0.0000E+00  0.0000E+00  0.0000E+00  0.0000E+00  0.0000E+00  0.0000E+00
    -31.648  0.0000E+00  0.0000E+00  0.0000E+00  0.0000E+00  0.0000E+00  0.0000E+00  0.0000E+00  0.0000E+00  0.0000E+00  0.0000E+00  0.0000E+00  0.0000E+00  0.0000E+00  0.0000E+00  0.0000E+00  0.0000E+00  0.0000E+00  0.0000E+00
    -31.373  0.0000E+00  0.0000E+00  0.0000E+00  0.0000E+00  0.0000E+00  0.0000E+00  0.0000E+00  0.0000E+00  0.0000E+00  0.0000E+00  0.0000E+00  0.0000E+00  0.0000E+00  0.0000E+00  0.0000E+00  0.0000E+00  0.0000E+00  0.0000E+00
    -31.098  0.0000E+00  0.0000E+00  0.0000E+00  0.0000E+00  0.0000E+00  0.0000E+00  0.0000E+00  0.0000E+00  0.0000E+00  0.0000E+00  0.0000E+00  0.0000E+00  0.0000E+00  0.0000E+00  0.0000E+00  0.0000E+00  0.0000E+00  0.0000E+00
    -30.822  0.0000E+00  0.0000E+00  0.0000E+00  0.0000E+00  0.0000E+00  0.0000E+00  0.0000E+00  0.0000E+00  0.0000E+00  0.0000E+00  0.0000E+00  0.0000E+00  0.0000E+00  0.0000E+00  0.0000E+00  0.0000E+00  0.0000E+00  0.0000E+00
    -30.547  0.0000E+00  0.0000E+00  0.0000E+00  0.0000E+00  0.0000E+00  0.0000E+00  0.0000E+00  0.0000E+00  0.0000E+00  0.0000E+00  0.0000E+00  0.0000E+00  0.0000E+00  0.0000E+00  0.0000E+00  0.0000E+00  0.0000E+00  0.0000E+00
    -30.272  0.0000E+00  0.0000E+00  0.0000E+00  0.0000E+00  0.0000E+00  0.0000E+00  0.0000E+00  0.0000E+00  0.0000E+00  0.0000E+00  0.0000E+00  0.0000E+00  0.0000E+00  0.0000E+00  0.0000E+00  0.0000E+00  0.0000E+00  0.0000E+00
    -29.996  0.0000E+00  0.0000E+00  0.0000E+00  0.0000E+00  0.0000E+00  0.0000E+00  0.0000E+00  0.0000E+00  0.0000E+00  0.0000E+00  0.0000E+00  0.0000E+00  0.0000E+00  0.0000E+00  0.0000E+00  0.0000E+00  0.0000E+00  0.0000E+00
    -29.721  0.0000E+00  0.0000E+00  0.0000E+00  0.0000E+00  0.0000E+00  0.0000E+00  0.0000E+00  0.0000E+00  0.0000E+00  0.0000E+00  0.0000E+00  0.0000E+00  0.0000E+00  0.0000E+00  0.0000E+00  0.0000E+00  0.0000E+00  0.0000E+00
    -29.445  0.0000E+00  0.0000E+00  0.0000E+00  0.0000E+00  0.0000E+00  0.0000E+00  0.0000E+00  0.0000E+00  0.0000E+00  0.0000E+00  0.0000E+00  0.0000E+00  0.0000E+00  0.0000E+00  0.0000E+00  0.0000E+00  0.0000E+00  0.0000E+00