  16  16   1   0
  0.9731965E+01  0.4510741E-09  0.5079512E-09  0.6795957E-09  0.5000000E-15
  1.000000000000000E-004
  CAR 
 unknown system                          
     31.27424732    -47.79616148  301     10.32750648      1.00000000
    -47.796  0.0000E+00  0.0000E+00  0.0000E+00  0.0000E+00
    -47.533  0.0000E+00  0.0000E+00  0.0000E+00  0.0000E+00
    -47.269  0.0000E+00  0.0000E+00  0.0000E+00  0.0000E+00
    -47.005  0.0000E+00  0.0000E+00  0.0000E+00  0.0000E+00
    -46.742  0.0000E+00  0.0000E+00  0.0000E+00  0.0000E+00
    -46.478  0.0000E+00  0.0000E+00  0.0000E+00  0.0000E+00
    -46.215  0.0000E+00  0.0000E+00  0.0000E+00  0.0000E+00
    -45.951  0.0000E+00  0.0000E+00  0.0000E+00  0.0000E+00
    -45.688  0.0000E+00  0.0000E+00  0.0000E+00  0.0000E+00
    -45.424  0.0000E+00  0.0000E+00  0.0000E+00  0.0000E+00
    -45.160  0.0000E+00  0.0000E+00  0.0000E+00  0.0000E+00
    -44.897  0.0000E+00  0.0000E+00  0.0000E+00  0.0000E+00
    -44.633  0.1457E-02  0.0000E+00  0.3841E-03  0.0000E+00
    -44.370  0.2850E+00  0.0000E+00  0.7550E-01  0.0000E+00
    -44.106  0.2146E+02  0.0000E+00  0.5732E+01  0.0000E+00
    -43.843  0.7524E+02  0.0000E+00  0.2556E+02  0.0000E+00
    -43.579  0.3768E+02  0.0000E+00  0.3575E+02  0.0000E+00
    -43.316  0.0000E+00  0.0000E+00  0.3600E+02  0.0000E+00
    -43.052  0.0000E+00  0.0000E+00  0.3600E+02  0.0000E+00
    -42.788  0.0000E+00  0.0000E+00  0.3600E+02  0.0000E+00
    -42.525  0.0000E+00  0.1884E-03  0.3600E+02  0.4965E-04
    -42.261  0.0000E+00  0.3991E-01  0.3600E+02  0.1057E-01
    -41.998  0.0000E+00  0.5776E+01  0.3600E+02  0.1533E+01
    -41.734  0.0000E+00  0.4979E+02  0.3600E+02  0.1466E+02
    -41.471  0.0000E+00  0.5514E+02  0.3600E+02  0.2936E+02
    -41.207  0.0000E+00  0.2431E+02  0.3600E+02  0.3590E+02
    -40.943  0.0000E+00  0.0000E+00  0.3600E+02  0.3600E+02
    -40.680  0.0000E+00  0.0000E+00  0.3600E+02  0.3600E+02
    -40.416  0.0000E+00  0.0000E+00  0.3600E+02  0.3600E+02
    -40.153  0.0000E+00  0.0000E+00  0.3600E+02  0.3600E+02
    -39.889  0.0000E+00  0.0000E+00  0.3600E+02  0.3600E+02
    -39.626  0.0000E+00  0.0000E+00  0.3600E+02  0.3600E+02
    -39.362  0.0000E+00  0.0000E+00  0.3600E+02  0.3600E+02
    -39.098  0.0000E+00  0.0000E+00  0.3600E+02  0.3600E+02
    -38.835  0.0000E+00  0.0000E+00  0.3600E+02  0.3600E+02
    -38.571  0.0000E+00  0.0000E+00  0.3600E+02  0.3600E+02
    -38.308  0.0000E+00  0.0000E+00  0.3600E+02  0.3600E+02
    -38.044  0.0000E+00  0.0000E+00  0.3600E+02  0.3600E+02
    -37.781  0.0000E+00  0.0000E+00  0.3600E+02  0.3600E+02
    -37.517  0.0000E+00  0.0000E+00  0.3600E+02  0.3600E+02
    -37.253  0.0000E+00  0.0000E+00  0.3600E+02  0.3600E+02
    -36.990  0.0000E+00  0.0000E+00  0.3600E+02  0.3600E+02
    -36.726  0.0000E+00  0.0000E+00  0.3600E+02  0.3600E+02
    -36.463  0.0000E+00  0.0000E+00  0.3600E+02  0.3600E+02
    -36.199  0.0000E+00  0.0000E+00  0.3600E+02  0.3600E+02
    -35.936  0.0000E+00  0.0000E+00  0.3600E+02  0.3600E+02
    -35.672  0.0000E+00  0.0000E+00  0.3600E+02  0.3600E+02
    -35.408  0.0000E+00  0.0000E+00  0.3600E+02  0.3600E+02
    -35.145  0.0000E+00  0.0000E+00  0.3600E+02  0.3600E+02
    -34.881  0.0000E+00  0.0000E+00  0.3600E+02  0.3600E+02
    -34.618  0.0000E+00  0.0000E+00  0.3600E+02  0.3600E+02
    -34.354  0.0000E+00  0.0000E+00  0.3600E+02  0.3600E+02
    -34.091  0.0000E+00  0.0000E+00  0.3600E+02  0.3600E+02
    -33.827  0.0000E+00  0.0000E+00  0.3600E+02  0.3600E+02
    -33.563  0.0000E+00  0.0000E+00  0.3600E+02  0.3600E+02
    -33.300  0.0000E+00  0.0000E+00  0.3600E+02  0.3600E+02
    -33.036  0.0000E+00  0.0000E+00  0.3600E+02  0.3600E+02
    -32.773  0.0000E+00  0.0000E+00  0.3600E+02  0.3600E+02
    -32.509  0.0000E+00  0.0000E+00  0.3600E+02  0.3600E+02
    -32.246  0.0000E+00  0.0000E+00  0.3600E+02  0.3600E+02
    -31.982  0.0000E+00  0.0000E+00  0.3600E+02  0.3600E+02
    -31.719  0.0000E+00  0.0000E+00  0.3600E+02  0.3600E+02
    -31.455  0.0000E+00  0.0000E+00  0.3600E+02  0.3600E+02
    -31.191  0.0000E+00  0.0000E+00  0.3600E+02  0.3600E+02
    -30.928  0.0000E+00  0.0000E+00  0.3600E+02  0.3600E+02
    -30.664  0.0000E+00  0.0000E+00  0.3600E+02  0.3600E+02
    -30.401  0.0000E+00  0.0000E+00  0.3600E+02  0.3600E+02
    -30.137  0.0000E+00  0.0000E+00  0.3600E+02  0.3600E+02
    -29.874  0.0000E+00  0.0000E+00  0.3600E+02  0.3600E+02
    -29.610  0.0000E+00  0.0000E+00  0.3600E+02  0.3600E+02
    -29.346  0.0000E+00  0.0000E+00  0.3600E+02  0.3600E+02
    -29.083  0.0000E+00  0.0000E+00  0.3600E+02  0.3600E+02
    -28.819  0.0000E+00  0.0000E+00  0.3600E+02  0.3600E+02
    -28.556  0.0000E+00  0.0000E+00  0.3600E+02  0.3600E+02
    -28.292  0.0000E+00  0.0000E+00  0.3600E+02  0.3600E+02
    -28.029  0.0000E+00  0.0000E+00  0.3600E+02  0.3600E+02
    -27.765  0.0000E+00  0.0000E+00  0.3600E+02  0.3600E+02
    -27.501  0.0000E+00  0.0000E+00  0.3600E+02  0.3600E+02
    -27.238  0.0000E+00  0.0000E+00  0.3600E+02  0.3600E+02
    -26.974  0.0000E+00  0.0000E+00  0.3600E+02  0.3600E+02
    -26.711  0.0000E+00  0.0000E+00  0.3600E+02  0.3600E+02
    -26.447  0.0000E+00  0.0000E+00  0.3600E+02  0.3600E+02
    -26.184  0.0000E+00  0.0000E+00  0.3600E+02  0.3600E+02
    -25.920  0.0000E+00  0.0000E+00  0.3600E+02  0.3600E+02
    -25.656  0.0000E+00  0.0000E+00  0.3600E+02  0.3600E+02
    -25.393  0.0000E+00  0.0000E+00  0.3600E+02  0.3600E+02
    -25.129  0.0000E+00  0.0000E+00  0.3600E+02  0.3600E+02
    -24.866  0.0000E+00  0.0000E+00  0.3600E+02  0.3600E+02
    -24.602  0.0000E+00  0.0000E+00  0.3600E+02  0.3600E+02
    -24.339  0.0000E+00  0.0000E+00  0.3600E+02  0.3600E+02
    -24.075  0.0000E+00  0.0000E+00  0.3600E+02  0.3600E+02
    -23.811  0.0000E+00  0.0000E+00  0.3600E+02  0.3600E+02
    -23.548  0.0000E+00  0.0000E+00  0.3600E+02  0.3600E+02
    -23.284  0.0000E+00  0.0000E+00  0.3600E+02  0.3600E+02
    -23.021  0.0000E+00  0.0000E+00  0.3600E+02  0.3600E+02
    -22.757  0.0000E+00  0.0000E+00  0.3600E+02  0.3600E+02
    -22.494  0.0000E+00  0.0000E+00  0.3600E+02  0.3600E+02
    -22.230  0.0000E+00  0.0000E+00  0.3600E+02  0.3600E+02
    -21.966  0.0000E+00  0.0000E+00  0.3600E+02  0.3600E+02
    -21.703  0.0000E+00  0.0000E+00  0.3600E+02  0.3600E+02
    -21.439  0.0000E+00  0.0000E+00  0.3600E+02  0.3600E+02
    -21.176  0.0000E+00  0.0000E+00  0.3600E+02  0.3600E+02
    -20.912  0.0000E+00  0.0000E+00  0.3600E+02  0.3600E+02
    -20.649  0.0000E+00  0.0000E+00  0.3600E+02  0.3600E+02
    -20.385  0.0000E+00  0.0000E+00  0.3600E+02  0.3600E+02
    -20.122  0.0000E+00  0.0000E+00  0.3600E+02  0.3600E+02
    -19.858  0.0000E+00  0.0000E+00  0.3600E+02  0.3600E+02
    -19.594  0.0000E+00  0.0000E+00  0.3600E+02  0.3600E+02
    -19.331  0.0000E+00  0.0000E+00  0.3600E+02  0.3600E+02
    -19.067  0.0000E+00  0.0000E+00  0.3600E+02  0.3600E+02
    -18.804  0.0000E+00  0.0000E+00  0.3600E+02  0.3600E+02
    -18.540  0.0000E+00  0.0000E+00  0.3600E+02  0.3600E+02
    -18.277  0.0000E+00  0.0000E+00  0.3600E+02  0.3600E+02
    -18.013  0.0000E+00  0.0000E+00  0.3600E+02  0.3600E+02
    -17.749  0.0000E+00  0.0000E+00  0.3600E+02  0.3600E+02
    -17.486  0.0000E+00  0.0000E+00  0.3600E+02  0.3600E+02
    -17.222  0.0000E+00  0.0000E+00  0.3600E+02  0.3600E+02
    -16.959  0.0000E+00  0.0000E+00  0.3600E+02  0.3600E+02
    -16.695  0.0000E+00  0.0000E+00  0.3600E+02  0.3600E+02
    -16.432  0.0000E+00  0.0000E+00  0.3600E+02  0.3600E+02
    -16.168  0.0000E+00  0.0000E+00  0.3600E+02  0.3600E+02
    -15.904  0.0000E+00  0.0000E+00  0.3600E+02  0.3600E+02
    -15.641  0.0000E+00  0.0000E+00  0.3600E+02  0.3600E+02
    -15.377  0.0000E+00  0.0000E+00  0.3600E+02  0.3600E+02
    -15.114  0.0000E+00  0.0000E+00  0.3600E+02  0.3600E+02
    -14.850  0.0000E+00  0.0000E+00  0.3600E+02  0.3600E+02
    -14.587  0.0000E+00  0.0000E+00  0.3600E+02  0.3600E+02
    -14.323  0.0000E+00  0.0000E+00  0.3600E+02  0.3600E+02
    -14.059  0.0000E+00  0.0000E+00  0.3600E+02  0.3600E+02
    -13.796  0.0000E+00  0.0000E+00  0.3600E+02  0.3600E+02
    -13.532  0.0000E+00  0.0000E+00  0.3600E+02  0.3600E+02
    -13.269  0.0000E+00  0.0000E+00  0.3600E+02  0.3600E+02
    -13.005  0.0000E+00  0.0000E+00  0.3600E+02  0.3600E+02
    -12.742  0.0000E+00  0.0000E+00  0.3600E+02  0.3600E+02
    -12.478  0.0000E+00  0.0000E+00  0.3600E+02  0.3600E+02
    -12.214  0.0000E+00  0.0000E+00  0.3600E+02  0.3600E+02
    -11.951  0.0000E+00  0.0000E+00  0.3600E+02  0.3600E+02
    -11.687  0.0000E+00  0.0000E+00  0.3600E+02  0.3600E+02
    -11.424  0.0000E+00  0.0000E+00  0.3600E+02  0.3600E+02
    -11.160  0.0000E+00  0.0000E+00  0.3600E+02  0.3600E+02
    -10.897  0.0000E+00  0.0000E+00  0.3600E+02  0.3600E+02
    -10.633  0.0000E+00  0.0000E+00  0.3600E+02  0.3600E+02
    -10.370  0.0000E+00  0.0000E+00  0.3600E+02  0.3600E+02
    -10.106  0.0000E+00  0.0000E+00  0.3600E+02  0.3600E+02
     -9.842  0.0000E+00  0.0000E+00  0.3600E+02  0.3600E+02
     -9.579  0.0000E+00  0.0000E+00  0.3600E+02  0.3600E+02
     -9.315  0.0000E+00  0.0000E+00  0.3600E+02  0.3600E+02
     -9.052  0.0000E+00  0.0000E+00  0.3600E+02  0.3600E+02
     -8.788  0.0000E+00  0.0000E+00  0.3600E+02  0.3600E+02
     -8.525  0.0000E+00  0.0000E+00  0.3600E+02  0.3600E+02
     -8.261  0.0000E+00  0.0000E+00  0.3600E+02  0.3600E+02
     -7.997  0.0000E+00  0.0000E+00  0.3600E+02  0.3600E+02
     -7.734  0.0000E+00  0.0000E+00  0.3600E+02  0.3600E+02
     -7.470  0.0000E+00  0.0000E+00  0.3600E+02  0.3600E+02
     -7.207  0.0000E+00  0.0000E+00  0.3600E+02  0.3600E+02
     -6.943  0.0000E+00  0.0000E+00  0.3600E+02  0.3600E+02
     -6.680  0.0000E+00  0.0000E+00  0.3600E+02  0.3600E+02
     -6.416  0.0000E+00  0.0000E+00  0.3600E+02  0.3600E+02
     -6.152  0.0000E+00  0.0000E+00  0.3600E+02  0.3600E+02
     -5.889  0.0000E+00  0.0000E+00  0.3600E+02  0.3600E+02
     -5.625  0.0000E+00  0.0000E+00  0.3600E+02  0.3600E+02
     -5.362  0.0000E+00  0.0000E+00  0.3600E+02  0.3600E+02
     -5.098  0.0000E+00  0.0000E+00  0.3600E+02  0.3600E+02
     -4.835  0.0000E+00  0.0000E+00  0.3600E+02  0.3600E+02
     -4.571  0.0000E+00  0.0000E+00  0.3600E+02  0.3600E+02
     -4.307  0.0000E+00  0.0000E+00  0.3600E+02  0.3600E+02
     -4.044  0.0000E+00  0.0000E+00  0.3600E+02  0.3600E+02
     -3.780  0.4271E-06  0.8300E-06  0.3600E+02  0.3600E+02
     -3.517  0.9303E-04  0.1814E-03  0.3600E+02  0.3600E+02
     -3.253  0.1450E-01  0.2447E-01  0.3600E+02  0.3601E+02
     -2.990  0.2435E+00  0.3116E+00  0.3607E+02  0.3609E+02
     -2.726  0.6826E+00  0.7136E+00  0.3625E+02  0.3628E+02
     -2.462  0.8760E+00  0.1021E+01  0.3648E+02  0.3655E+02
     -2.199  0.1667E+01  0.1776E+01  0.3692E+02  0.3702E+02
     -1.935  0.2426E+01  0.2743E+01  0.3757E+02  0.3775E+02
     -1.672  0.2867E+01  0.2673E+01  0.3833E+02  0.3846E+02
     -1.408  0.3471E+01  0.3411E+01  0.3925E+02  0.3937E+02
     -1.145  0.2131E+01  0.1938E+01  0.3982E+02  0.3989E+02
     -0.881  0.6364E+00  0.3959E+00  0.4000E+02  0.4000E+02
     -0.617  0.8353E-02  0.0000E+00  0.4000E+02  0.4000E+02
     -0.354  0.0000E+00  0.0000E+00  0.4000E+02  0.4000E+02
     -0.090  0.0000E+00  0.0000E+00  0.4000E+02  0.4000E+02
      0.173  0.0000E+00  0.0000E+00  0.4000E+02  0.4000E+02
      0.437  0.0000E+00  0.0000E+00  0.4000E+02  0.4000E+02
      0.700  0.0000E+00  0.0000E+00  0.4000E+02  0.4000E+02
      0.964  0.0000E+00  0.0000E+00  0.4000E+02  0.4000E+02
      1.227  0.0000E+00  0.0000E+00  0.4000E+02  0.4000E+02
      1.491  0.0000E+00  0.0000E+00  0.4000E+02  0.4000E+02
      1.755  0.0000E+00  0.0000E+00  0.4000E+02  0.4000E+02
      2.018  0.0000E+00  0.0000E+00  0.4000E+02  0.4000E+02
      2.282  0.4675E-05  0.9619E-07  0.4000E+02  0.4000E+02
      2.545  0.9516E-03  0.2149E-04  0.4000E+02  0.4000E+02
      2.809  0.6477E-01  0.3877E-02  0.4002E+02  0.4000E+02
      3.072  0.1024E+01  0.1076E+00  0.4029E+02  0.4003E+02
      3.336  0.3416E+01  0.1040E+01  0.4119E+02  0.4030E+02
      3.600  0.4020E+01  0.2746E+01  0.4226E+02  0.4103E+02
      3.863  0.5072E+01  0.3481E+01  0.4361E+02  0.4196E+02
      4.127  0.3848E+01  0.4014E+01  0.4464E+02  0.4303E+02
      4.390  0.3443E+01  0.4067E+01  0.4556E+02  0.4411E+02
      4.654  0.3363E+01  0.3421E+01  0.4646E+02  0.4503E+02
      4.917  0.4571E+01  0.2647E+01  0.4767E+02  0.4574E+02
      5.181  0.5377E+01  0.3037E+01  0.4911E+02  0.4654E+02
      5.445  0.7035E+01  0.3731E+01  0.5098E+02  0.4754E+02
      5.708  0.3857E+01  0.4969E+01  0.5202E+02  0.4886E+02
      5.972  0.1714E+01  0.6379E+01  0.5249E+02  0.5055E+02
      6.235  0.6109E+01  0.5040E+01  0.5410E+02  0.5190E+02
      6.499  0.1005E+02  0.4428E+00  0.5677E+02  0.5204E+02
      6.762  0.1147E+02  0.6658E+00  0.5982E+02  0.5222E+02
      7.026  0.1322E+02  0.1386E+01  0.6334E+02  0.5258E+02
      7.290  0.1182E+02  0.4050E+01  0.6651E+02  0.5365E+02
      7.553  0.9810E+01  0.5981E+01  0.6914E+02  0.5524E+02
      7.817  0.1428E+02  0.6947E+01  0.7293E+02  0.5709E+02
      8.080  0.1253E+02  0.8787E+01  0.7628E+02  0.5943E+02
      8.344  0.1174E+02  0.1048E+02  0.7942E+02  0.6222E+02
      8.607  0.9843E+01  0.1070E+02  0.8206E+02  0.6507E+02
      8.871  0.1217E+02  0.9110E+01  0.8529E+02  0.6750E+02
      9.135  0.1381E+02  0.4307E+01  0.8897E+02  0.6867E+02
      9.398  0.1487E+02  0.1008E+02  0.9294E+02  0.7134E+02
      9.662  0.1663E+02  0.1219E+02  0.9737E+02  0.7458E+02
      9.925  0.1335E+02  0.1011E+02  0.1009E+03  0.7730E+02
     10.189  0.6384E+01  0.9044E+01  0.1027E+03  0.7971E+02
     10.452  0.4897E+01  0.6456E+01  0.1040E+03  0.8145E+02
     10.716  0.3293E+01  0.9901E+01  0.1049E+03  0.8407E+02
     10.980  0.3033E+01  0.1078E+02  0.1057E+03  0.8695E+02
     11.243  0.3469E+01  0.1164E+02  0.1066E+03  0.9006E+02
     11.507  0.3074E+01  0.1359E+02  0.1074E+03  0.9367E+02
     11.770  0.3264E+01  0.1442E+02  0.1083E+03  0.9751E+02
     12.034  0.3066E+01  0.1451E+02  0.1091E+03  0.1014E+03
     12.297  0.2793E+01  0.8556E+01  0.1099E+03  0.1037E+03
     12.561  0.2794E+01  0.5565E+01  0.1106E+03  0.1052E+03
     12.824  0.3241E+01  0.5229E+01  0.1115E+03  0.1066E+03
     13.088  0.2260E+01  0.3895E+01  0.1121E+03  0.1076E+03
     13.352  0.5733E+00  0.4365E+01  0.1123E+03  0.1088E+03
     13.615  0.1620E+01  0.3603E+01  0.1127E+03  0.1098E+03
     13.879  0.1913E+01  0.3477E+01  0.1132E+03  0.1107E+03
     14.142  0.2494E+01  0.3897E+01  0.1139E+03  0.1117E+03
     14.406  0.1999E+01  0.1634E+01  0.1144E+03  0.1122E+03
     14.669  0.1516E+01  0.1520E+01  0.1148E+03  0.1126E+03
     14.933  0.2811E+01  0.2350E+01  0.1155E+03  0.1132E+03
     15.197  0.2863E+01  0.3032E+01  0.1163E+03  0.1140E+03
     15.460  0.2146E+01  0.2355E+01  0.1169E+03  0.1146E+03
     15.724  0.2375E+01  0.3273E+01  0.1175E+03  0.1155E+03
     15.987  0.1816E+01  0.2802E+01  0.1180E+03  0.1163E+03
     16.251  0.9898E+00  0.2391E+01  0.1183E+03  0.1169E+03
     16.514  0.1331E+01  0.2937E+01  0.1186E+03  0.1177E+03
     16.778  0.1511E+01  0.1509E+01  0.1190E+03  0.1181E+03
     17.042  0.1561E+01  0.1045E+01  0.1194E+03  0.1184E+03
     17.305  0.1136E+01  0.1516E+01  0.1197E+03  0.1188E+03
     17.569  0.1287E+01  0.1296E+01  0.1201E+03  0.1191E+03
     17.832  0.1734E+01  0.1551E+01  0.1205E+03  0.1195E+03
     18.096  0.2365E+01  0.1278E+01  0.1212E+03  0.1199E+03
     18.359  0.2542E+01  0.1612E+01  0.1219E+03  0.1203E+03
     18.623  0.1425E+01  0.2342E+01  0.1222E+03  0.1209E+03
     18.887  0.2397E+01  0.2375E+01  0.1229E+03  0.1216E+03
     19.150  0.3112E+01  0.1850E+01  0.1237E+03  0.1221E+03
     19.414  0.2911E+01  0.1729E+01  0.1245E+03  0.1225E+03
     19.677  0.1949E+01  0.2910E+01  0.1250E+03  0.1233E+03
     19.941  0.1446E+01  0.3350E+01  0.1254E+03  0.1242E+03
     20.204  0.2470E+01  0.2541E+01  0.1261E+03  0.1249E+03
     20.468  0.2825E+01  0.1381E+01  0.1268E+03  0.1253E+03
     20.732  0.3012E+01  0.2091E+01  0.1276E+03  0.1258E+03
     20.995  0.2036E+01  0.2840E+01  0.1282E+03  0.1266E+03
     21.259  0.1958E+01  0.3123E+01  0.1287E+03  0.1274E+03
     21.522  0.2690E+01  0.2583E+01  0.1294E+03  0.1281E+03
     21.786  0.3086E+01  0.2145E+01  0.1302E+03  0.1287E+03
     22.049  0.3479E+01  0.2654E+01  0.1311E+03  0.1294E+03
     22.313  0.2747E+01  0.3143E+01  0.1319E+03  0.1302E+03
     22.577  0.2144E+01  0.3857E+01  0.1324E+03  0.1312E+03
     22.840  0.2920E+01  0.2625E+01  0.1332E+03  0.1319E+03
     23.104  0.2507E+01  0.2596E+01  0.1339E+03  0.1326E+03
     23.367  0.2941E+01  0.2670E+01  0.1347E+03  0.1333E+03
     23.631  0.3021E+01  0.2858E+01  0.1355E+03  0.1341E+03
     23.894  0.2496E+01  0.3308E+01  0.1362E+03  0.1350E+03
     24.158  0.2835E+01  0.2906E+01  0.1369E+03  0.1358E+03
     24.421  0.2604E+01  0.2415E+01  0.1376E+03  0.1364E+03
     24.685  0.3069E+01  0.2914E+01  0.1384E+03  0.1372E+03
     24.949  0.3194E+01  0.2598E+01  0.1393E+03  0.1379E+03
     25.212  0.2384E+01  0.3081E+01  0.1399E+03  0.1387E+03
     25.476  0.2542E+01  0.2953E+01  0.1406E+03  0.1395E+03
     25.739  0.2073E+01  0.2623E+01  0.1412E+03  0.1402E+03
     26.003  0.2951E+01  0.2392E+01  0.1420E+03  0.1408E+03
     26.266  0.2994E+01  0.2316E+01  0.1428E+03  0.1414E+03
     26.530  0.2356E+01  0.3276E+01  0.1434E+03  0.1423E+03
     26.794  0.1568E+01  0.2599E+01  0.1438E+03  0.1430E+03
     27.057  0.4595E+00  0.2409E+01  0.1439E+03  0.1436E+03
     27.321  0.2637E+00  0.8401E+00  0.1440E+03  0.1439E+03
     27.584  0.8269E-02  0.3352E+00  0.1440E+03  0.1440E+03
     27.848  0.0000E+00  0.9743E-01  0.1440E+03  0.1440E+03
     28.111  0.0000E+00  0.0000E+00  0.1440E+03  0.1440E+03
     28.375  0.0000E+00  0.0000E+00  0.1440E+03  0.1440E+03
     28.639  0.0000E+00  0.0000E+00  0.1440E+03  0.1440E+03
     28.902  0.0000E+00  0.0000E+00  0.1440E+03  0.1440E+03
     29.166  0.0000E+00  0.0000E+00  0.1440E+03  0.1440E+03
     29.429  0.0000E+00  0.0000E+00  0.1440E+03  0.1440E+03
     29.693  0.0000E+00  0.0000E+00  0.1440E+03  0.1440E+03
     29.956  0.0000E+00  0.0000E+00  0.1440E+03  0.1440E+03
     30.220  0.0000E+00  0.0000E+00  0.1440E+03  0.1440E+03
     30.484  0.0000E+00  0.0000E+00  0.1440E+03  0.1440E+03
     30.747  0.0000E+00  0.0000E+00  0.1440E+03  0.1440E+03
     31.011  0.0000E+00  0.0000E+00  0.1440E+03  0.1440E+03
     31.274  0.0000E+00  0.0000E+00  0.1440E+03  0.1440E+03
     31.27424732    -47.79616148  301     10.32750648      1.00000000
    -47.796  0.0000E+00  0.0000E+00  0.0000E+00  0.0000E+00  0.0000E+00  0.0000E+00  0.0000E+00  0.0000E+00  0.0000E+00  0.0000E+00  0.0000E+00  0.0000E+00  0.0000E+00  0.0000E+00  0.0000E+00  0.0000E+00  0.0000E+00  0.0000E+00
    -47.533  0.0000E+00  0.0000E+00  0.0000E+00  0.0000E+00  0.0000E+00  0.0000E+00  0.0000E+00  0.0000E+00  0.0000E+00  0.0000E+00  0.0000E+00  0.0000E+00  0.0000E+00  0.0000E+00  0.0000E+00  0.0000E+00  0.0000E+00  0.0000E+00
    -47.269  0.0000E+00  0.0000E+00  0.0000E+00  0.0000E+00  0.0000E+00  0.0000E+00  0.0000E+00  0.0000E+00  0.0000E+00  0.0000E+00  0.0000E+00  0.0000E+00  0.0000E+00  0.0000E+00  0.0000E+00  0.0000E+00  0.0000E+00  0.0000E+00
    -47.005  0.0000E+00  0.0000E+00  0.0000E+00  0.0000E+00  0.0000E+00  0.0000E+00  0.0000E+00  0.0000E+00  0.0000E+00  0.0000E+00  0.0000E+00  0.0000E+00  0.0000E+00  0.0000E+00  0.0000E+00  0.0000E+00  0.0000E+00  0.0000E+00
    -46.742  0.0000E+00  0.0000E+00  0.0000E+00  0.0000E+00  0.0000E+00  0.0000E+00  0.0000E+00  0.0000E+00  0.0000E+00  0.0000E+00  0.0000E+00  0.0000E+00  0.0000E+00  0.0000E+00  0.0000E+00  0.0000E+00  0.0000E+00  0.0000E+00
    -46.478  0.0000E+00  0.0000E+00  0.0000E+00  0.0000E+00  0.0000E+00  0.0000E+00  0.0000E+00  0.0000E+00  0.0000E+00  0.0000E+00  0.0000E+00  0.0000E+00  0.0000E+00  0.0000E+00  0.0000E+00  0.0000E+00  0.0000E+00  0.0000E+00
    -46.215  0.0000E+00  0.0000E+00  0.0000E+00  0.0000E+00  0.0000E+00  0.0000E+00  0.0000E+00  0.0000E+00  0.0000E+00  0.0000E+00  0.0000E+00  0.0000E+00  0.0000E+00  0.0000E+00  0.0000E+00  0.0000E+00  0.0000E+00  0.0000E+00
    -45.951  0.0000E+00  0.0000E+00  0.0000E+00  0.0000E+00  0.0000E+00  0.0000E+00  0.0000E+00  0.0000E+00  0.0000E+00  0.0000E+00  0.0000E+00  0.0000E+00  0.0000E+00  0.0000E+00  0.0000E+00  0.0000E+00  0.0000E+00  0.0000E+00
    -45.688  0.0000E+00  0.0000E+00  0.0000E+00  0.0000E+00  0.0000E+00  0.0000E+00  0.0000E+00  0.0000E+00  0.0000E+00  0.0000E+00  0.0000E+00  0.0000E+00  0.0000E+00  0.0000E+00  0.0000E+00  0.0000E+00  0.0000E+00  0.0000E+00
    -45.424  0.0000E+00  0.0000E+00  0.0000E+00  0.0000E+00  0.0000E+00  0.0000E+00  0.0000E+00  0.0000E+00  0.0000E+00  0.0000E+00  0.0000E+00  0.0000E+00  0.0000E+00  0.0000E+00  0.0000E+00  0.0000E+00  0.0000E+00  0.0000E+00
    -45.160  0.0000E+00  0.0000E+00  0.0000E+00  0.0000E+00  0.0000E+00  0.0000E+00  0.0000E+00  0.0000E+00  0.0000E+00  0.0000E+00  0.0000E+00  0.0000E+00  0.0000E+00  0.0000E+00  0.0000E+00  0.0000E+00  0.0000E+00  0.0000E+00
    -44.897  0.0000E+00  0.0000E+00  0.0000E+00  0.0000E+00  0.0000E+00  0.0000E+00  0.0000E+00  0.0000E+00  0.0000E+00  0.0000E+00  0.0000E+00  0.0000E+00  0.0000E+00  0.0000E+00  0.0000E+00  0.0000E+00  0.0000E+00  0.0000E+00
    -44.633  0.2491E-08  0.0000E+00  0.9489E-04  0.0000E+00  0.2603E-05  0.0000E+00  0.1227E-03  0.0000E+00  0.5003E-09  0.0000E+00  0.4717E-09  0.0000E+00  0.4679E-09  0.0000E+00  0.4748E-09  0.0000E+00  0.1429E-08  0.0000E+00
    -44.370  0.4840E-06  0.0000E+00  0.1832E-01  0.0000E+00  0.5923E-03  0.0000E+00  0.2356E-01  0.0000E+00  0.9925E-07  0.0000E+00  0.9480E-07  0.0000E+00  0.9362E-07  0.0000E+00  0.9386E-07  0.0000E+00  0.2746E-06  0.0000E+00
    -44.106  0.3868E-04  0.0000E+00  0.1128E+01  0.0000E+00  0.7657E-01  0.0000E+00  0.1496E+01  0.0000E+00  0.8323E-05  0.0000E+00  0.1099E-04  0.0000E+00  0.8134E-05  0.0000E+00  0.9595E-05  0.0000E+00  0.1815E-04  0.0000E+00
    -43.843  0.1066E-03  0.0000E+00  0.2406E+01  0.0000E+00  0.1294E+01  0.0000E+00  0.2099E+01  0.0000E+00  0.2949E-04  0.0000E+00  0.6246E-04  0.0000E+00  0.4359E-04  0.0000E+00  0.3906E-04  0.0000E+00  0.4022E-04  0.0000E+00
    -43.579  0.3235E-04  0.0000E+00  0.1755E+00  0.0000E+00  0.2330E+01  0.0000E+00  0.1132E+00  0.0000E+00  0.1431E-04  0.0000E+00  0.2732E-04  0.0000E+00  0.2245E-04  0.0000E+00  0.2180E-04  0.0000E+00  0.9011E-05  0.0000E+00
    -43.316  0.0000E+00  0.0000E+00  0.0000E+00  0.0000E+00  0.0000E+00  0.0000E+00  0.0000E+00  0.0000E+00  0.0000E+00  0.0000E+00  0.0000E+00  0.0000E+00  0.0000E+00  0.0000E+00  0.0000E+00  0.0000E+00  0.0000E+00  0.0000E+00
    -43.052  0.0000E+00  0.0000E+00  0.0000E+00  0.0000E+00  0.0000E+00  0.0000E+00  0.0000E+00  0.0000E+00  0.0000E+00  0.0000E+00  0.0000E+00  0.0000E+00  0.0000E+00  0.0000E+00  0.0000E+00  0.0000E+00  0.0000E+00  0.0000E+00
    -42.788  0.0000E+00  0.0000E+00  0.0000E+00  0.0000E+00  0.0000E+00  0.0000E+00  0.0000E+00  0.0000E+00  0.0000E+00  0.0000E+00  0.0000E+00  0.0000E+00  0.0000E+00  0.0000E+00  0.0000E+00  0.0000E+00  0.0000E+00  0.0000E+00
    -42.525  0.0000E+00  0.3912E-09  0.0000E+00  0.1095E-04  0.0000E+00  0.1405E-06  0.0000E+00  0.1265E-04  0.0000E+00  0.8175E-10  0.0000E+00  0.4445E-10  0.0000E+00  0.8270E-10  0.0000E+00  0.1008E-09  0.0000E+00  0.2189E-09
    -42.261  0.0000E+00  0.8253E-07  0.0000E+00  0.2177E-02  0.0000E+00  0.3802E-04  0.0000E+00  0.2506E-02  0.0000E+00  0.1739E-07  0.0000E+00  0.1372E-07  0.0000E+00  0.1896E-07  0.0000E+00  0.2186E-07  0.0000E+00  0.4550E-07
    -41.998  0.0000E+00  0.1230E-04  0.0000E+00  0.3004E+00  0.0000E+00  0.6504E-02  0.0000E+00  0.3521E+00  0.0000E+00  0.2681E-05  0.0000E+00  0.2256E-05  0.0000E+00  0.2671E-05  0.0000E+00  0.3397E-05  0.0000E+00  0.6276E-05
    -41.734  0.0000E+00  0.9509E-04  0.0000E+00  0.1406E+01  0.0000E+00  0.1468E+00  0.0000E+00  0.1682E+01  0.0000E+00  0.2179E-04  0.0000E+00  0.4662E-04  0.0000E+00  0.2949E-04  0.0000E+00  0.3164E-04  0.0000E+00  0.3975E-04
    -41.471  0.0000E+00  0.9065E-04  0.0000E+00  0.1663E+01  0.0000E+00  0.1459E+01  0.0000E+00  0.1402E+01  0.0000E+00  0.2636E-04  0.0000E+00  0.5669E-04  0.0000E+00  0.4187E-04  0.0000E+00  0.3339E-04  0.0000E+00  0.2616E-04
    -41.207  0.0000E+00  0.1964E-04  0.0000E+00  0.3545E+00  0.0000E+00  0.2121E+01  0.0000E+00  0.2785E+00  0.0000E+00  0.1188E-04  0.0000E+00  0.1454E-04  0.0000E+00  0.1462E-04  0.0000E+00  0.1551E-04  0.0000E+00  0.8009E-05
    -40.943  0.0000E+00  0.0000E+00  0.0000E+00  0.0000E+00  0.0000E+00  0.0000E+00  0.0000E+00  0.0000E+00  0.0000E+00  0.0000E+00  0.0000E+00  0.0000E+00  0.0000E+00  0.0000E+00  0.0000E+00  0.0000E+00  0.0000E+00  0.0000E+00
    -40.680  0.0000E+00  0.0000E+00  0.0000E+00  0.0000E+00  0.0000E+00  0.0000E+00  0.0000E+00  0.0000E+00  0.0000E+00  0.0000E+00  0.0000E+00  0.0000E+00  0.0000E+00  0.0000E+00  0.0000E+00  0.0000E+00  0.0000E+00  0.0000E+00
    -40.416  0.0000E+00  0.0000E+00  0.0000E+00  0.0000E+00  0.0000E+00  0.0000E+00  0.0000E+00  0.0000E+00  0.0000E+00  0.0000E+00  0.0000E+00  0.0000E+00  0.0000E+00  0.0000E+00  0.0000E+00  0.0000E+00  0.0000E+00  0.0000E+00
    -40.153  0.0000E+00  0.0000E+00  0.0000E+00  0.0000E+00  0.0000E+00  0.0000E+00  0.0000E+00  0.0000E+00  0.0000E+00  0.0000E+00  0.0000E+00  0.0000E+00  0.0000E+00  0.0000E+00  0.0000E+00  0.0000E+00  0.0000E+00  0.0000E+00
    -39.889  0.0000E+00  0.0000E+00  0.0000E+00  0.0000E+00  0.0000E+00  0.0000E+00  0.0000E+00  0.0000E+00  0.0000E+00  0.0000E+00  0.0000E+00  0.0000E+00  0.0000E+00  0.0000E+00  0.0000E+00  0.0000E+00  0.0000E+00  0.0000E+00
    -39.626  0.0000E+00  0.0000E+00  0.0000E+00  0.0000E+00  0.0000E+00  0.0000E+00  0.0000E+00  0.0000E+00  0.0000E+00  0.0000E+00  0.0000E+00  0.0000E+00  0.0000E+00  0.0000E+00  0.0000E+00  0.0000E+00  0.0000E+00  0.0000E+00
    -39.362  0.0000E+00  0.0000E+00  0.0000E+00  0.0000E+00  0.0000E+00  0.0000E+00  0.0000E+00  0.0000E+00  0.0000E+00  0.0000E+00  0.0000E+00  0.0000E+00  0.0000E+00  0.0000E+00  0.0000E+00  0.0000E+00  0.0000E+00  0.0000E+00
    -39.098  0.0000E+00  0.0000E+00  0.0000E+00  0.0000E+00  0.0000E+00  0.0000E+00  0.0000E+00  0.0000E+00  0.0000E+00  0.0000E+00  0.0000E+00  0.0000E+00  0.0000E+00  0.0000E+00  0.0000E+00  0.0000E+00  0.0000E+00  0.0000E+00
    -38.835  0.0000E+00  0.0000E+00  0.0000E+00  0.0000E+00  0.0000E+00  0.0000E+00  0.0000E+00  0.0000E+00  0.0000E+00  0.0000E+00  0.0000E+00  0.0000E+00  0.0000E+00  0.0000E+00  0.0000E+00  0.0000E+00  0.0000E+00  0.0000E+00
    -38.571  0.0000E+00  0.0000E+00  0.0000E+00  0.0000E+00  0.0000E+00  0.0000E+00  0.0000E+00  0.0000E+00  0.0000E+00  0.0000E+00  0.0000E+00  0.0000E+00  0.0000E+00  0.0000E+00  0.0000E+00  0.0000E+00  0.0000E+00  0.0000E+00
    -38.308  0.0000E+00  0.0000E+00  0.0000E+00  0.0000E+00  0.0000E+00  0.0000E+00  0.0000E+00  0.0000E+00  0.0000E+00  0.0000E+00  0.0000E+00  0.0000E+00  0.0000E+00  0.0000E+00  0.0000E+00  0.0000E+00  0.0000E+00  0.0000E+00
    -38.044  0.0000E+00  0.0000E+00  0.0000E+00  0.0000E+00  0.0000E+00  0.0000E+00  0.0000E+00  0.0000E+00  0.0000E+00  0.0000E+00  0.0000E+00  0.0000E+00  0.0000E+00  0.0000E+00  0.0000E+00  0.0000E+00  0.0000E+00  0.0000E+00
    -37.781  0.0000E+00  0.0000E+00  0.0000E+00  0.0000E+00  0.0000E+00  0.0000E+00  0.0000E+00  0.0000E+00  0.0000E+00  0.0000E+00  0.0000E+00  0.0000E+00  0.0000E+00  0.0000E+00  0.0000E+00  0.0000E+00  0.0000E+00  0.0000E+00
    -37.517  0.0000E+00  0.0000E+00  0.0000E+00  0.0000E+00  0.0000E+00  0.0000E+00  0.0000E+00  0.0000E+00  0.0000E+00  0.0000E+00  0.0000E+00  0.0000E+00  0.0000E+00  0.0000E+00  0.0000E+00  0.0000E+00  0.0000E+00  0.0000E+00
    -37.253  0.0000E+00  0.0000E+00  0.0000E+00  0.0000E+00  0.0000E+00  0.0000E+00  0.0000E+00  0.0000E+00  0.0000E+00  0.0000E+00  0.0000E+00  0.0000E+00  0.0000E+00  0.0000E+00  0.0000E+00  0.0000E+00  0.0000E+00  0.0000E+00
    -36.990  0.0000E+00  0.0000E+00  0.0000E+00  0.0000E+00  0.0000E+00  0.0000E+00  0.0000E+00  0.0000E+00  0.0000E+00  0.0000E+00  0.0000E+00  0.0000E+00  0.0000E+00  0.0000E+00  0.0000E+00  0.0000E+00  0.0000E+00  0.0000E+00
    -36.726  0.0000E+00  0.0000E+00  0.0000E+00  0.0000E+00  0.0000E+00  0.0000E+00  0.0000E+00  0.0000E+00  0.0000E+00  0.0000E+00  0.0000E+00  0.0000E+00  0.0000E+00  0.0000E+00  0.0000E+00  0.0000E+00  0.0000E+00  0.0000E+00
    -36.463  0.0000E+00  0.0000E+00  0.0000E+00  0.0000E+00  0.0000E+00  0.0000E+00  0.0000E+00  0.0000E+00  0.0000E+00  0.0000E+00  0.0000E+00  0.0000E+00  0.0000E+00  0.0000E+00  0.0000E+00  0.0000E+00  0.0000E+00  0.0000E+00
    -36.199  0.0000E+00  0.0000E+00  0.0000E+00  0.0000E+00  0.0000E+00  0.0000E+00  0.0000E+00  0.0000E+00  0.0000E+00  0.0000E+00  0.0000E+00  0.0000E+00  0.0000E+00  0.0000E+00  0.0000E+00  0.0000E+00  0.0000E+00  0.0000E+00
    -35.936  0.0000E+00  0.0000E+00  0.0000E+00  0.0000E+00  0.0000E+00  0.0000E+00  0.0000E+00  0.0000E+00  0.0000E+00  0.0000E+00  0.0000E+00  0.0000E+00  0.0000E+00  0.0000E+00  0.0000E+00  0.0000E+00  0.0000E+00  0.0000E+00
    -35.672  0.0000E+00  0.0000E+00  0.0000E+00  0.0000E+00  0.0000E+00  0.0000E+00  0.0000E+00  0.0000E+00  0.0000E+00  0.0000E+00  0.0000E+00  0.0000E+00  0.0000E+00  0.0000E+00  0.0000E+00  0.0000E+00  0.0000E+00  0.0000E+00
    -35.408  0.0000E+00  0.0000E+00  0.0000E+00  0.0000E+00  0.0000E+00  0.0000E+00  0.0000E+00  0.0000E+00  0.0000E+00  0.0000E+00  0.0000E+00  0.0000E+00  0.0000E+00  0.0000E+00  0.0000E+00  0.0000E+00  0.0000E+00  0.0000E+00
    -35.145  0.0000E+00  0.0000E+00  0.0000E+00  0.0000E+00  0.0000E+00  0.0000E+00  0.0000E+00  0.0000E+00  0.0000E+00  0.0000E+00  0.0000E+00  0.0000E+00  0.0000E+00  0.0000E+00  0.0000E+00  0.0000E+00  0.0000E+00  0.0000E+00
    -34.881  0.0000E+00  0.0000E+00  0.0000E+00  0.0000E+00  0.0000E+00  0.0000E+00  0.0000E+00  0.0000E+00  0.0000E+00  0.0000E+00  0.0000E+00  0.0000E+00  0.0000E+00  0.0000E+00  0.0000E+00  0.0000E+00  0.0000E+00  0.0000E+00
    -34.618  0.0000E+00  0.0000E+00  0.0000E+00  0.0000E+00  0.0000E+00  0.0000E+00  0.0000E+00  0.0000E+00  0.0000E+00  0.0000E+00  0.0000E+00  0.0000E+00  0.0000E+00  0.0000E+00  0.0000E+00  0.0000E+00  0.0000E+00  0.0000E+00