  16  16   1   0
  0.7597754E+01  0.4153454E-09  0.4677175E-09  0.6257663E-09  0.5000000E-15
  1.000000000000000E-004
  CAR 
 unknown system                          
     38.36939994    -43.77350095  301     14.20109628      1.00000000
    -43.774  0.0000E+00  0.0000E+00  0.0000E+00  0.0000E+00
    -43.500  0.0000E+00  0.0000E+00  0.0000E+00  0.0000E+00
    -43.226  0.0000E+00  0.0000E+00  0.0000E+00  0.0000E+00
    -42.952  0.0000E+00  0.0000E+00  0.0000E+00  0.0000E+00
    -42.678  0.0000E+00  0.0000E+00  0.0000E+00  0.0000E+00
    -42.404  0.0000E+00  0.0000E+00  0.0000E+00  0.0000E+00
    -42.131  0.0000E+00  0.0000E+00  0.0000E+00  0.0000E+00
    -41.857  0.0000E+00  0.0000E+00  0.0000E+00  0.0000E+00
    -41.583  0.0000E+00  0.0000E+00  0.0000E+00  0.0000E+00
    -41.309  0.0000E+00  0.0000E+00  0.0000E+00  0.0000E+00
    -41.035  0.0000E+00  0.0000E+00  0.0000E+00  0.0000E+00
    -40.762  0.0000E+00  0.0000E+00  0.0000E+00  0.0000E+00
    -40.488  0.3802E-03  0.0000E+00  0.1041E-03  0.0000E+00
    -40.214  0.9168E-01  0.6420E-04  0.2521E-01  0.1758E-04
    -39.940  0.9293E+01  0.1729E-01  0.2570E+01  0.4752E-02
    -39.666  0.3307E+02  0.3052E+01  0.1163E+02  0.8405E+00
    -39.393  0.4721E+02  0.2800E+02  0.2469E+02  0.8507E+01
    -39.119  0.3861E+02  0.4078E+02  0.3542E+02  0.1980E+02
    -38.845  0.1350E+01  0.5127E+02  0.3600E+02  0.3399E+02
    -38.571  0.0000E+00  0.6608E+01  0.3600E+02  0.3599E+02
    -38.297  0.0000E+00  0.0000E+00  0.3600E+02  0.3600E+02
    -38.023  0.0000E+00  0.0000E+00  0.3600E+02  0.3600E+02
    -37.750  0.0000E+00  0.0000E+00  0.3600E+02  0.3600E+02
    -37.476  0.0000E+00  0.0000E+00  0.3600E+02  0.3600E+02
    -37.202  0.0000E+00  0.0000E+00  0.3600E+02  0.3600E+02
    -36.928  0.0000E+00  0.0000E+00  0.3600E+02  0.3600E+02
    -36.654  0.0000E+00  0.0000E+00  0.3600E+02  0.3600E+02
    -36.381  0.0000E+00  0.0000E+00  0.3600E+02  0.3600E+02
    -36.107  0.0000E+00  0.0000E+00  0.3600E+02  0.3600E+02
    -35.833  0.0000E+00  0.0000E+00  0.3600E+02  0.3600E+02
    -35.559  0.0000E+00  0.0000E+00  0.3600E+02  0.3600E+02
    -35.285  0.0000E+00  0.0000E+00  0.3600E+02  0.3600E+02
    -35.012  0.0000E+00  0.0000E+00  0.3600E+02  0.3600E+02
    -34.738  0.0000E+00  0.0000E+00  0.3600E+02  0.3600E+02
    -34.464  0.0000E+00  0.0000E+00  0.3600E+02  0.3600E+02
    -34.190  0.0000E+00  0.0000E+00  0.3600E+02  0.3600E+02
    -33.916  0.0000E+00  0.0000E+00  0.3600E+02  0.3600E+02
    -33.643  0.0000E+00  0.0000E+00  0.3600E+02  0.3600E+02
    -33.369  0.0000E+00  0.0000E+00  0.3600E+02  0.3600E+02
    -33.095  0.0000E+00  0.0000E+00  0.3600E+02  0.3600E+02
    -32.821  0.0000E+00  0.0000E+00  0.3600E+02  0.3600E+02
    -32.547  0.0000E+00  0.0000E+00  0.3600E+02  0.3600E+02
    -32.273  0.0000E+00  0.0000E+00  0.3600E+02  0.3600E+02
    -32.000  0.0000E+00  0.0000E+00  0.3600E+02  0.3600E+02
    -31.726  0.0000E+00  0.0000E+00  0.3600E+02  0.3600E+02
    -31.452  0.0000E+00  0.0000E+00  0.3600E+02  0.3600E+02
    -31.178  0.0000E+00  0.0000E+00  0.3600E+02  0.3600E+02
    -30.904  0.0000E+00  0.0000E+00  0.3600E+02  0.3600E+02
    -30.631  0.0000E+00  0.0000E+00  0.3600E+02  0.3600E+02
    -30.357  0.0000E+00  0.0000E+00  0.3600E+02  0.3600E+02
    -30.083  0.0000E+00  0.0000E+00  0.3600E+02  0.3600E+02
    -29.809  0.0000E+00  0.0000E+00  0.3600E+02  0.3600E+02
    -29.535  0.0000E+00  0.0000E+00  0.3600E+02  0.3600E+02
    -29.262  0.0000E+00  0.0000E+00  0.3600E+02  0.3600E+02
    -28.988  0.0000E+00  0.0000E+00  0.3600E+02  0.3600E+02
    -28.714  0.0000E+00  0.0000E+00  0.3600E+02  0.3600E+02
    -28.440  0.0000E+00  0.0000E+00  0.3600E+02  0.3600E+02
    -28.166  0.0000E+00  0.0000E+00  0.3600E+02  0.3600E+02
    -27.893  0.0000E+00  0.0000E+00  0.3600E+02  0.3600E+02
    -27.619  0.0000E+00  0.0000E+00  0.3600E+02  0.3600E+02
    -27.345  0.0000E+00  0.0000E+00  0.3600E+02  0.3600E+02
    -27.071  0.0000E+00  0.0000E+00  0.3600E+02  0.3600E+02
    -26.797  0.0000E+00  0.0000E+00  0.3600E+02  0.3600E+02
    -26.523  0.0000E+00  0.0000E+00  0.3600E+02  0.3600E+02
    -26.250  0.0000E+00  0.0000E+00  0.3600E+02  0.3600E+02
    -25.976  0.0000E+00  0.0000E+00  0.3600E+02  0.3600E+02
    -25.702  0.0000E+00  0.0000E+00  0.3600E+02  0.3600E+02
    -25.428  0.0000E+00  0.0000E+00  0.3600E+02  0.3600E+02
    -25.154  0.0000E+00  0.0000E+00  0.3600E+02  0.3600E+02
    -24.881  0.0000E+00  0.0000E+00  0.3600E+02  0.3600E+02
    -24.607  0.0000E+00  0.0000E+00  0.3600E+02  0.3600E+02
    -24.333  0.0000E+00  0.0000E+00  0.3600E+02  0.3600E+02
    -24.059  0.0000E+00  0.0000E+00  0.3600E+02  0.3600E+02
    -23.785  0.0000E+00  0.0000E+00  0.3600E+02  0.3600E+02
    -23.512  0.0000E+00  0.0000E+00  0.3600E+02  0.3600E+02
    -23.238  0.0000E+00  0.0000E+00  0.3600E+02  0.3600E+02
    -22.964  0.0000E+00  0.0000E+00  0.3600E+02  0.3600E+02
    -22.690  0.0000E+00  0.0000E+00  0.3600E+02  0.3600E+02
    -22.416  0.0000E+00  0.0000E+00  0.3600E+02  0.3600E+02
    -22.143  0.0000E+00  0.0000E+00  0.3600E+02  0.3600E+02
    -21.869  0.0000E+00  0.0000E+00  0.3600E+02  0.3600E+02
    -21.595  0.0000E+00  0.0000E+00  0.3600E+02  0.3600E+02
    -21.321  0.0000E+00  0.0000E+00  0.3600E+02  0.3600E+02
    -21.047  0.0000E+00  0.0000E+00  0.3600E+02  0.3600E+02
    -20.773  0.0000E+00  0.0000E+00  0.3600E+02  0.3600E+02
    -20.500  0.0000E+00  0.0000E+00  0.3600E+02  0.3600E+02
    -20.226  0.0000E+00  0.0000E+00  0.3600E+02  0.3600E+02
    -19.952  0.0000E+00  0.0000E+00  0.3600E+02  0.3600E+02
    -19.678  0.0000E+00  0.0000E+00  0.3600E+02  0.3600E+02
    -19.404  0.0000E+00  0.0000E+00  0.3600E+02  0.3600E+02
    -19.131  0.0000E+00  0.0000E+00  0.3600E+02  0.3600E+02
    -18.857  0.0000E+00  0.0000E+00  0.3600E+02  0.3600E+02
    -18.583  0.0000E+00  0.0000E+00  0.3600E+02  0.3600E+02
    -18.309  0.0000E+00  0.0000E+00  0.3600E+02  0.3600E+02
    -18.035  0.0000E+00  0.0000E+00  0.3600E+02  0.3600E+02
    -17.762  0.0000E+00  0.0000E+00  0.3600E+02  0.3600E+02
    -17.488  0.0000E+00  0.0000E+00  0.3600E+02  0.3600E+02
    -17.214  0.0000E+00  0.0000E+00  0.3600E+02  0.3600E+02
    -16.940  0.0000E+00  0.0000E+00  0.3600E+02  0.3600E+02
    -16.666  0.0000E+00  0.0000E+00  0.3600E+02  0.3600E+02
    -16.393  0.0000E+00  0.0000E+00  0.3600E+02  0.3600E+02
    -16.119  0.0000E+00  0.0000E+00  0.3600E+02  0.3600E+02
    -15.845  0.0000E+00  0.0000E+00  0.3600E+02  0.3600E+02
    -15.571  0.0000E+00  0.0000E+00  0.3600E+02  0.3600E+02
    -15.297  0.0000E+00  0.0000E+00  0.3600E+02  0.3600E+02
    -15.023  0.0000E+00  0.0000E+00  0.3600E+02  0.3600E+02
    -14.750  0.0000E+00  0.0000E+00  0.3600E+02  0.3600E+02
    -14.476  0.0000E+00  0.0000E+00  0.3600E+02  0.3600E+02
    -14.202  0.0000E+00  0.0000E+00  0.3600E+02  0.3600E+02
    -13.928  0.0000E+00  0.0000E+00  0.3600E+02  0.3600E+02
    -13.654  0.0000E+00  0.0000E+00  0.3600E+02  0.3600E+02
    -13.381  0.0000E+00  0.0000E+00  0.3600E+02  0.3600E+02
    -13.107  0.0000E+00  0.0000E+00  0.3600E+02  0.3600E+02
    -12.833  0.0000E+00  0.0000E+00  0.3600E+02  0.3600E+02
    -12.559  0.0000E+00  0.0000E+00  0.3600E+02  0.3600E+02
    -12.285  0.0000E+00  0.0000E+00  0.3600E+02  0.3600E+02
    -12.012  0.0000E+00  0.0000E+00  0.3600E+02  0.3600E+02
    -11.738  0.0000E+00  0.0000E+00  0.3600E+02  0.3600E+02
    -11.464  0.0000E+00  0.0000E+00  0.3600E+02  0.3600E+02
    -11.190  0.0000E+00  0.0000E+00  0.3600E+02  0.3600E+02
    -10.916  0.0000E+00  0.0000E+00  0.3600E+02  0.3600E+02
    -10.643  0.0000E+00  0.0000E+00  0.3600E+02  0.3600E+02
    -10.369  0.0000E+00  0.0000E+00  0.3600E+02  0.3600E+02
    -10.095  0.0000E+00  0.0000E+00  0.3600E+02  0.3600E+02
     -9.821  0.0000E+00  0.0000E+00  0.3600E+02  0.3600E+02
     -9.547  0.0000E+00  0.0000E+00  0.3600E+02  0.3600E+02
     -9.273  0.0000E+00  0.0000E+00  0.3600E+02  0.3600E+02
     -9.000  0.0000E+00  0.0000E+00  0.3600E+02  0.3600E+02
     -8.726  0.0000E+00  0.0000E+00  0.3600E+02  0.3600E+02
     -8.452  0.0000E+00  0.0000E+00  0.3600E+02  0.3600E+02
     -8.178  0.0000E+00  0.0000E+00  0.3600E+02  0.3600E+02
     -7.904  0.0000E+00  0.0000E+00  0.3600E+02  0.3600E+02
     -7.631  0.0000E+00  0.0000E+00  0.3600E+02  0.3600E+02
     -7.357  0.0000E+00  0.0000E+00  0.3600E+02  0.3600E+02
     -7.083  0.0000E+00  0.0000E+00  0.3600E+02  0.3600E+02
     -6.809  0.0000E+00  0.0000E+00  0.3600E+02  0.3600E+02
     -6.535  0.0000E+00  0.0000E+00  0.3600E+02  0.3600E+02
     -6.262  0.0000E+00  0.0000E+00  0.3600E+02  0.3600E+02
     -5.988  0.0000E+00  0.0000E+00  0.3600E+02  0.3600E+02
     -5.714  0.0000E+00  0.0000E+00  0.3600E+02  0.3600E+02
     -5.440  0.0000E+00  0.0000E+00  0.3600E+02  0.3600E+02
     -5.166  0.0000E+00  0.0000E+00  0.3600E+02  0.3600E+02
     -4.893  0.0000E+00  0.0000E+00  0.3600E+02  0.3600E+02
     -4.619  0.0000E+00  0.0000E+00  0.3600E+02  0.3600E+02
     -4.345  0.0000E+00  0.0000E+00  0.3600E+02  0.3600E+02
     -4.071  0.0000E+00  0.0000E+00  0.3600E+02  0.3600E+02
     -3.797  0.0000E+00  0.0000E+00  0.3600E+02  0.3600E+02
     -3.523  0.0000E+00  0.0000E+00  0.3600E+02  0.3600E+02
     -3.250  0.0000E+00  0.0000E+00  0.3600E+02  0.3600E+02
     -2.976  0.0000E+00  0.0000E+00  0.3600E+02  0.3600E+02
     -2.702  0.0000E+00  0.0000E+00  0.3600E+02  0.3600E+02
     -2.428  0.0000E+00  0.0000E+00  0.3600E+02  0.3600E+02
     -2.154  0.0000E+00  0.0000E+00  0.3600E+02  0.3600E+02
     -1.881  0.0000E+00  0.0000E+00  0.3600E+02  0.3600E+02
     -1.607  0.5895E-05  0.4708E-05  0.3600E+02  0.3600E+02
     -1.333  0.1381E-02  0.1110E-02  0.3600E+02  0.3600E+02
     -1.059  0.6657E-01  0.6046E-01  0.3602E+02  0.3602E+02
     -0.785  0.3330E+00  0.3186E+00  0.3611E+02  0.3610E+02
     -0.512  0.5595E+00  0.5572E+00  0.3626E+02  0.3626E+02
     -0.238  0.6176E+00  0.6050E+00  0.3643E+02  0.3642E+02
      0.036  0.1172E+01  0.1149E+01  0.3676E+02  0.3674E+02
      0.310  0.1333E+01  0.1314E+01  0.3713E+02  0.3711E+02
      0.584  0.2300E+01  0.2261E+01  0.3776E+02  0.3773E+02
      0.857  0.2566E+01  0.2496E+01  0.3847E+02  0.3842E+02
      1.131  0.3070E+01  0.3092E+01  0.3932E+02  0.3928E+02
      1.405  0.1599E+01  0.1639E+01  0.3977E+02  0.3974E+02
      1.679  0.7578E+00  0.8441E+00  0.3998E+02  0.3998E+02
      1.953  0.5376E-01  0.6485E-01  0.4000E+02  0.4000E+02
      2.227  0.0000E+00  0.0000E+00  0.4000E+02  0.4000E+02
      2.500  0.0000E+00  0.0000E+00  0.4000E+02  0.4000E+02
      2.774  0.0000E+00  0.0000E+00  0.4000E+02  0.4000E+02
      3.048  0.0000E+00  0.0000E+00  0.4000E+02  0.4000E+02
      3.322  0.0000E+00  0.0000E+00  0.4000E+02  0.4000E+02
      3.596  0.0000E+00  0.0000E+00  0.4000E+02  0.4000E+02
      3.869  0.0000E+00  0.0000E+00  0.4000E+02  0.4000E+02
      4.143  0.0000E+00  0.0000E+00  0.4000E+02  0.4000E+02
      4.417  0.0000E+00  0.0000E+00  0.4000E+02  0.4000E+02
      4.691  0.3664E-05  0.1275E-05  0.4000E+02  0.4000E+02
      4.965  0.9042E-03  0.3364E-03  0.4000E+02  0.4000E+02
      5.238  0.7327E-01  0.3817E-01  0.4002E+02  0.4001E+02
      5.512  0.1085E+01  0.6130E+00  0.4032E+02  0.4018E+02
      5.786  0.2993E+01  0.2798E+01  0.4114E+02  0.4094E+02
      6.060  0.3492E+01  0.3152E+01  0.4211E+02  0.4183E+02
      6.334  0.4406E+01  0.4109E+01  0.4333E+02  0.4296E+02
      6.607  0.3612E+01  0.3858E+01  0.4433E+02  0.4404E+02
      6.881  0.3328E+01  0.3383E+01  0.4525E+02  0.4498E+02
      7.155  0.2292E+01  0.2479E+01  0.4589E+02  0.4567E+02
      7.429  0.3789E+01  0.3009E+01  0.4693E+02  0.4651E+02
      7.703  0.3958E+01  0.4140E+01  0.4803E+02  0.4765E+02
      7.977  0.4083E+01  0.3934E+01  0.4916E+02  0.4874E+02
      8.250  0.5382E+01  0.4395E+01  0.5066E+02  0.4996E+02
      8.524  0.4481E+01  0.5908E+01  0.5190E+02  0.5160E+02
      8.798  0.9811E+00  0.1532E+01  0.5219E+02  0.5204E+02
      9.072  0.2050E+01  0.1190E+01  0.5276E+02  0.5237E+02
      9.346  0.5393E+01  0.3143E+01  0.5424E+02  0.5323E+02
      9.619  0.5433E+01  0.5308E+01  0.5575E+02  0.5469E+02
      9.893  0.8057E+01  0.5967E+01  0.5798E+02  0.5635E+02
     10.167  0.7716E+01  0.7828E+01  0.6012E+02  0.5851E+02
     10.441  0.1005E+02  0.7682E+01  0.6290E+02  0.6064E+02
     10.715  0.8760E+01  0.9759E+01  0.6534E+02  0.6333E+02
     10.988  0.7045E+01  0.8591E+01  0.6731E+02  0.6573E+02
     11.262  0.5577E+01  0.6540E+01  0.6887E+02  0.6755E+02
     11.536  0.9228E+01  0.5103E+01  0.7141E+02  0.6898E+02
     11.810  0.9883E+01  0.9209E+01  0.7416E+02  0.7152E+02
     12.084  0.7676E+01  0.9708E+01  0.7631E+02  0.7422E+02
     12.357  0.8420E+01  0.7490E+01  0.7864E+02  0.7631E+02
     12.631  0.5300E+01  0.8367E+01  0.8014E+02  0.7863E+02
     12.905  0.6078E+01  0.5113E+01  0.8182E+02  0.8007E+02
     13.179  0.7387E+01  0.5575E+01  0.8386E+02  0.8162E+02
     13.453  0.8239E+01  0.7348E+01  0.8615E+02  0.8365E+02
     13.727  0.9387E+01  0.8042E+01  0.8874E+02  0.8588E+02
     14.000  0.1039E+02  0.8807E+01  0.9162E+02  0.8832E+02
     14.274  0.1067E+02  0.9524E+01  0.9459E+02  0.9096E+02
     14.548  0.1123E+02  0.1084E+02  0.9771E+02  0.9396E+02
     14.822  0.1028E+02  0.1084E+02  0.1006E+03  0.9697E+02
     15.096  0.5923E+01  0.1103E+02  0.1022E+03  0.1000E+03
     15.369  0.4180E+01  0.7119E+01  0.1034E+03  0.1020E+03
     15.643  0.3387E+01  0.4464E+01  0.1044E+03  0.1033E+03
     15.917  0.2748E+01  0.3756E+01  0.1051E+03  0.1043E+03
     16.191  0.2942E+01  0.2897E+01  0.1059E+03  0.1051E+03
     16.465  0.3002E+01  0.3073E+01  0.1068E+03  0.1060E+03
     16.738  0.2215E+01  0.3165E+01  0.1074E+03  0.1069E+03
     17.012  0.2619E+01  0.2137E+01  0.1081E+03  0.1075E+03
     17.286  0.2684E+01  0.2830E+01  0.1089E+03  0.1082E+03
     17.560  0.2543E+01  0.2814E+01  0.1096E+03  0.1090E+03
     17.834  0.1920E+01  0.2426E+01  0.1101E+03  0.1097E+03
     18.107  0.2664E+01  0.2094E+01  0.1109E+03  0.1103E+03
     18.381  0.2426E+01  0.2681E+01  0.1115E+03  0.1110E+03
     18.655  0.1902E+01  0.2487E+01  0.1120E+03  0.1117E+03
     18.929  0.6866E+00  0.1447E+01  0.1122E+03  0.1121E+03
     19.203  0.1567E+01  0.7571E+00  0.1127E+03  0.1123E+03
     19.477  0.1068E+01  0.1732E+01  0.1130E+03  0.1128E+03
     19.750  0.2041E+01  0.1142E+01  0.1135E+03  0.1131E+03
     20.024  0.1762E+01  0.2288E+01  0.1140E+03  0.1138E+03
     20.298  0.1689E+01  0.1590E+01  0.1145E+03  0.1142E+03
     20.572  0.2225E+01  0.2072E+01  0.1151E+03  0.1148E+03
     20.846  0.2308E+01  0.2234E+01  0.1158E+03  0.1154E+03
     21.119  0.2127E+01  0.2425E+01  0.1163E+03  0.1161E+03
     21.393  0.1790E+01  0.1800E+01  0.1168E+03  0.1166E+03
     21.667  0.2600E+01  0.2495E+01  0.1176E+03  0.1173E+03
     21.941  0.1633E+01  0.2104E+01  0.1180E+03  0.1179E+03
     22.215  0.5613E+00  0.8362E+00  0.1182E+03  0.1181E+03
     22.488  0.1061E+01  0.8332E+00  0.1185E+03  0.1183E+03
     22.762  0.1600E+01  0.1362E+01  0.1189E+03  0.1187E+03
     23.036  0.1026E+01  0.1417E+01  0.1192E+03  0.1191E+03
     23.310  0.1002E+01  0.8195E+00  0.1195E+03  0.1193E+03
     23.584  0.9957E+00  0.1110E+01  0.1198E+03  0.1196E+03
     23.857  0.9831E+00  0.1055E+01  0.1200E+03  0.1199E+03
     24.131  0.1620E+01  0.1204E+01  0.1205E+03  0.1203E+03
     24.405  0.2263E+01  0.2139E+01  0.1211E+03  0.1208E+03
     24.679  0.2520E+01  0.2552E+01  0.1218E+03  0.1215E+03
     24.953  0.1191E+01  0.1752E+01  0.1221E+03  0.1220E+03
     25.227  0.1667E+01  0.1100E+01  0.1226E+03  0.1223E+03
     25.500  0.3052E+01  0.2722E+01  0.1234E+03  0.1231E+03
     25.774  0.2676E+01  0.2926E+01  0.1242E+03  0.1239E+03
     26.048  0.1939E+01  0.2051E+01  0.1247E+03  0.1245E+03
     26.322  0.1583E+01  0.2002E+01  0.1252E+03  0.1250E+03
     26.596  0.1411E+01  0.1266E+01  0.1256E+03  0.1254E+03
     26.869  0.2538E+01  0.2050E+01  0.1263E+03  0.1260E+03
     27.143  0.2833E+01  0.2650E+01  0.1271E+03  0.1267E+03
     27.417  0.2316E+01  0.2912E+01  0.1277E+03  0.1275E+03
     27.691  0.1861E+01  0.1928E+01  0.1282E+03  0.1280E+03
     27.965  0.1454E+01  0.1404E+01  0.1286E+03  0.1284E+03
     28.238  0.2924E+01  0.2529E+01  0.1294E+03  0.1291E+03
     28.512  0.3304E+01  0.3103E+01  0.1303E+03  0.1300E+03
     28.786  0.3360E+01  0.3690E+01  0.1313E+03  0.1310E+03
     29.060  0.2189E+01  0.2540E+01  0.1319E+03  0.1317E+03
     29.334  0.1774E+01  0.1777E+01  0.1324E+03  0.1322E+03
     29.607  0.2393E+01  0.2194E+01  0.1330E+03  0.1328E+03
     29.881  0.2596E+01  0.2623E+01  0.1338E+03  0.1335E+03
     30.155  0.2805E+01  0.2741E+01  0.1345E+03  0.1343E+03
     30.429  0.2596E+01  0.2717E+01  0.1353E+03  0.1350E+03
     30.703  0.2310E+01  0.2478E+01  0.1359E+03  0.1357E+03
     30.977  0.2744E+01  0.2626E+01  0.1367E+03  0.1365E+03
     31.250  0.2399E+01  0.2405E+01  0.1373E+03  0.1371E+03
     31.524  0.1810E+01  0.2002E+01  0.1378E+03  0.1377E+03
     31.798  0.3368E+01  0.2849E+01  0.1388E+03  0.1385E+03
     32.072  0.2618E+01  0.2993E+01  0.1395E+03  0.1393E+03
     32.346  0.2723E+01  0.2607E+01  0.1402E+03  0.1400E+03
     32.619  0.2526E+01  0.2531E+01  0.1410E+03  0.1407E+03
     32.893  0.2365E+01  0.2498E+01  0.1416E+03  0.1414E+03
     33.167  0.2469E+01  0.2536E+01  0.1423E+03  0.1421E+03
     33.441  0.2452E+01  0.2404E+01  0.1430E+03  0.1428E+03
     33.715  0.2067E+01  0.2243E+01  0.1435E+03  0.1434E+03
     33.988  0.1096E+01  0.1340E+01  0.1439E+03  0.1438E+03
     34.262  0.4169E+00  0.5474E+00  0.1440E+03  0.1440E+03
     34.536  0.6642E-01  0.1208E+00  0.1440E+03  0.1440E+03
     34.810  0.3474E-01  0.4968E-01  0.1440E+03  0.1440E+03
     35.084  0.0000E+00  0.0000E+00  0.1440E+03  0.1440E+03
     35.357  0.0000E+00  0.0000E+00  0.1440E+03  0.1440E+03
     35.631  0.0000E+00  0.0000E+00  0.1440E+03  0.1440E+03
     35.905  0.0000E+00  0.0000E+00  0.1440E+03  0.1440E+03
     36.179  0.0000E+00  0.0000E+00  0.1440E+03  0.1440E+03
     36.453  0.0000E+00  0.0000E+00  0.1440E+03  0.1440E+03
     36.727  0.0000E+00  0.0000E+00  0.1440E+03  0.1440E+03
     37.000  0.0000E+00  0.0000E+00  0.1440E+03  0.1440E+03
     37.274  0.0000E+00  0.0000E+00  0.1440E+03  0.1440E+03
     37.548  0.0000E+00  0.0000E+00  0.1440E+03  0.1440E+03
     37.822  0.0000E+00  0.0000E+00  0.1440E+03  0.1440E+03
     38.096  0.0000E+00  0.0000E+00  0.1440E+03  0.1440E+03
     38.369  0.0000E+00  0.0000E+00  0.1440E+03  0.1440E+03
     38.36939994    -43.77350095  301     14.20109628      1.00000000
    -43.774  0.0000E+00  0.0000E+00  0.0000E+00  0.0000E+00  0.0000E+00  0.0000E+00  0.0000E+00  0.0000E+00  0.0000E+00  0.0000E+00  0.0000E+00  0.0000E+00  0.0000E+00  0.0000E+00  0.0000E+00  0.0000E+00  0.0000E+00  0.0000E+00
    -43.500  0.0000E+00  0.0000E+00  0.0000E+00  0.0000E+00  0.0000E+00  0.0000E+00  0.0000E+00  0.0000E+00  0.0000E+00  0.0000E+00  0.0000E+00  0.0000E+00  0.0000E+00  0.0000E+00  0.0000E+00  0.0000E+00  0.0000E+00  0.0000E+00
    -43.226  0.0000E+00  0.0000E+00  0.0000E+00  0.0000E+00  0.0000E+00  0.0000E+00  0.0000E+00  0.0000E+00  0.0000E+00  0.0000E+00  0.0000E+00  0.0000E+00  0.0000E+00  0.0000E+00  0.0000E+00  0.0000E+00  0.0000E+00  0.0000E+00
    -42.952  0.0000E+00  0.0000E+00  0.0000E+00  0.0000E+00  0.0000E+00  0.0000E+00  0.0000E+00  0.0000E+00  0.0000E+00  0.0000E+00  0.0000E+00  0.0000E+00  0.0000E+00  0.0000E+00  0.0000E+00  0.0000E+00  0.0000E+00  0.0000E+00
    -42.678  0.0000E+00  0.0000E+00  0.0000E+00  0.0000E+00  0.0000E+00  0.0000E+00  0.0000E+00  0.0000E+00  0.0000E+00  0.0000E+00  0.0000E+00  0.0000E+00  0.0000E+00  0.0000E+00  0.0000E+00  0.0000E+00  0.0000E+00  0.0000E+00
    -42.404  0.0000E+00  0.0000E+00  0.0000E+00  0.0000E+00  0.0000E+00  0.0000E+00  0.0000E+00  0.0000E+00  0.0000E+00  0.0000E+00  0.0000E+00  0.0000E+00  0.0000E+00  0.0000E+00  0.0000E+00  0.0000E+00  0.0000E+00  0.0000E+00
    -42.131  0.0000E+00  0.0000E+00  0.0000E+00  0.0000E+00  0.0000E+00  0.0000E+00  0.0000E+00  0.0000E+00  0.0000E+00  0.0000E+00  0.0000E+00  0.0000E+00  0.0000E+00  0.0000E+00  0.0000E+00  0.0000E+00  0.0000E+00  0.0000E+00
    -41.857  0.0000E+00  0.0000E+00  0.0000E+00  0.0000E+00  0.0000E+00  0.0000E+00  0.0000E+00  0.0000E+00  0.0000E+00  0.0000E+00  0.0000E+00  0.0000E+00  0.0000E+00  0.0000E+00  0.0000E+00  0.0000E+00  0.0000E+00  0.0000E+00
    -41.583  0.0000E+00  0.0000E+00  0.0000E+00  0.0000E+00  0.0000E+00  0.0000E+00  0.0000E+00  0.0000E+00  0.0000E+00  0.0000E+00  0.0000E+00  0.0000E+00  0.0000E+00  0.0000E+00  0.0000E+00  0.0000E+00  0.0000E+00  0.0000E+00
    -41.309  0.0000E+00  0.0000E+00  0.0000E+00  0.0000E+00  0.0000E+00  0.0000E+00  0.0000E+00  0.0000E+00  0.0000E+00  0.0000E+00  0.0000E+00  0.0000E+00  0.0000E+00  0.0000E+00  0.0000E+00  0.0000E+00  0.0000E+00  0.0000E+00
    -41.035  0.0000E+00  0.0000E+00  0.0000E+00  0.0000E+00  0.0000E+00  0.0000E+00  0.0000E+00  0.0000E+00  0.0000E+00  0.0000E+00  0.0000E+00  0.0000E+00  0.0000E+00  0.0000E+00  0.0000E+00  0.0000E+00  0.0000E+00  0.0000E+00
    -40.762  0.0000E+00  0.0000E+00  0.0000E+00  0.0000E+00  0.0000E+00  0.0000E+00  0.0000E+00  0.0000E+00  0.0000E+00  0.0000E+00  0.0000E+00  0.0000E+00  0.0000E+00  0.0000E+00  0.0000E+00  0.0000E+00  0.0000E+00  0.0000E+00
    -40.488  0.5349E-08  0.0000E+00  0.3856E-05  0.0000E+00  0.3265E-05  0.0000E+00  0.4598E-05  0.0000E+00  0.8058E-09  0.0000E+00  0.1571E-08  0.0000E+00  0.1314E-08  0.0000E+00  0.1610E-08  0.0000E+00  0.1163E-08  0.0000E+00
    -40.214  0.1292E-05  0.8636E-09  0.9403E-03  0.1231E-05  0.8035E-03  0.6466E-06  0.1115E-02  0.1316E-05  0.1966E-06  0.1142E-09  0.3822E-06  0.2259E-09  0.3162E-06  0.2293E-09  0.3893E-06  0.2518E-09  0.2801E-06  0.2043E-09
    -39.940  0.1328E-03  0.2341E-06  0.9686E-01  0.3355E-03  0.8676E-01  0.1814E-03  0.1051E+00  0.3464E-03  0.2334E-04  0.3603E-07  0.4925E-04  0.6750E-07  0.3246E-04  0.6057E-07  0.4173E-04  0.6846E-07  0.3027E-04  0.5716E-07
    -39.666  0.4666E-03  0.4289E-04  0.5764E+00  0.5761E-01  0.4177E+00  0.3349E-01  0.4813E+00  0.5973E-01  0.9998E-04  0.6978E-05  0.2069E-03  0.1317E-04  0.1161E-03  0.1054E-04  0.1456E-03  0.1257E-04  0.1206E-03  0.1023E-04
    -39.393  0.3308E-03  0.3840E-03  0.1239E+01  0.6017E+00  0.7621E+00  0.4264E+00  0.1354E+01  0.5899E+00  0.1169E-03  0.8863E-04  0.2391E-03  0.1652E-03  0.1759E-03  0.9136E-04  0.1659E-03  0.1186E-03  0.1617E-03  0.1109E-03
    -39.119  0.7521E-04  0.4402E-03  0.1586E+01  0.1151E+01  0.2201E+01  0.8415E+00  0.1581E+01  0.1290E+01  0.7224E-04  0.9946E-04  0.8187E-04  0.2255E-03  0.1041E-03  0.1557E-03  0.6666E-04  0.1548E-03  0.9400E-04  0.1584E-03
    -38.845  0.2204E-05  0.1562E-03  0.8403E-01  0.1542E+01  0.9630E-01  0.1961E+01  0.5647E-01  0.1452E+01  0.2538E-05  0.1140E-03  0.2220E-05  0.1752E-03  0.1821E-05  0.1700E-03  0.1432E-05  0.1313E-03  0.2544E-05  0.1257E-03
    -38.571  0.0000E+00  0.1189E-04  0.0000E+00  0.2372E+00  0.0000E+00  0.3240E+00  0.0000E+00  0.2000E+00  0.0000E+00  0.1448E-04  0.0000E+00  0.1513E-04  0.0000E+00  0.1383E-04  0.0000E+00  0.1613E-04  0.0000E+00  0.1496E-04
    -38.297  0.0000E+00  0.0000E+00  0.0000E+00  0.0000E+00  0.0000E+00  0.0000E+00  0.0000E+00  0.0000E+00  0.0000E+00  0.0000E+00  0.0000E+00  0.0000E+00  0.0000E+00  0.0000E+00  0.0000E+00  0.0000E+00  0.0000E+00  0.0000E+00
    -38.023  0.0000E+00  0.0000E+00  0.0000E+00  0.0000E+00  0.0000E+00  0.0000E+00  0.0000E+00  0.0000E+00  0.0000E+00  0.0000E+00  0.0000E+00  0.0000E+00  0.0000E+00  0.0000E+00  0.0000E+00  0.0000E+00  0.0000E+00  0.0000E+00
    -37.750  0.0000E+00  0.0000E+00  0.0000E+00  0.0000E+00  0.0000E+00  0.0000E+00  0.0000E+00  0.0000E+00  0.0000E+00  0.0000E+00  0.0000E+00  0.0000E+00  0.0000E+00  0.0000E+00  0.0000E+00  0.0000E+00  0.0000E+00  0.0000E+00
    -37.476  0.0000E+00  0.0000E+00  0.0000E+00  0.0000E+00  0.0000E+00  0.0000E+00  0.0000E+00  0.0000E+00  0.0000E+00  0.0000E+00  0.0000E+00  0.0000E+00  0.0000E+00  0.0000E+00  0.0000E+00  0.0000E+00  0.0000E+00  0.0000E+00
    -37.202  0.0000E+00  0.0000E+00  0.0000E+00  0.0000E+00  0.0000E+00  0.0000E+00  0.0000E+00  0.0000E+00  0.0000E+00  0.0000E+00  0.0000E+00  0.0000E+00  0.0000E+00  0.0000E+00  0.0000E+00  0.0000E+00  0.0000E+00  0.0000E+00
    -36.928  0.0000E+00  0.0000E+00  0.0000E+00  0.0000E+00  0.0000E+00  0.0000E+00  0.0000E+00  0.0000E+00  0.0000E+00  0.0000E+00  0.0000E+00  0.0000E+00  0.0000E+00  0.0000E+00  0.0000E+00  0.0000E+00  0.0000E+00  0.0000E+00
    -36.654  0.0000E+00  0.0000E+00  0.0000E+00  0.0000E+00  0.0000E+00  0.0000E+00  0.0000E+00  0.0000E+00  0.0000E+00  0.0000E+00  0.0000E+00  0.0000E+00  0.0000E+00  0.0000E+00  0.0000E+00  0.0000E+00  0.0000E+00  0.0000E+00
    -36.381  0.0000E+00  0.0000E+00  0.0000E+00  0.0000E+00  0.0000E+00  0.0000E+00  0.0000E+00  0.0000E+00  0.0000E+00  0.0000E+00  0.0000E+00  0.0000E+00  0.0000E+00  0.0000E+00  0.0000E+00  0.0000E+00  0.0000E+00  0.0000E+00
    -36.107  0.0000E+00  0.0000E+00  0.0000E+00  0.0000E+00  0.0000E+00  0.0000E+00  0.0000E+00  0.0000E+00  0.0000E+00  0.0000E+00  0.0000E+00  0.0000E+00  0.0000E+00  0.0000E+00  0.0000E+00  0.0000E+00  0.0000E+00  0.0000E+00
    -35.833  0.0000E+00  0.0000E+00  0.0000E+00  0.0000E+00  0.0000E+00  0.0000E+00  0.0000E+00  0.0000E+00  0.0000E+00  0.0000E+00  0.0000E+00  0.0000E+00  0.0000E+00  0.0000E+00  0.0000E+00  0.0000E+00  0.0000E+00  0.0000E+00
    -35.559  0.0000E+00  0.0000E+00  0.0000E+00  0.0000E+00  0.0000E+00  0.0000E+00  0.0000E+00  0.0000E+00  0.0000E+00  0.0000E+00  0.0000E+00  0.0000E+00  0.0000E+00  0.0000E+00  0.0000E+00  0.0000E+00  0.0000E+00  0.0000E+00
    -35.285  0.0000E+00  0.0000E+00  0.0000E+00  0.0000E+00  0.0000E+00  0.0000E+00  0.0000E+00  0.0000E+00  0.0000E+00  0.0000E+00  0.0000E+00  0.0000E+00  0.0000E+00  0.0000E+00  0.0000E+00  0.0000E+00  0.0000E+00  0.0000E+00
    -35.012  0.0000E+00  0.0000E+00  0.0000E+00  0.0000E+00  0.0000E+00  0.0000E+00  0.0000E+00  0.0000E+00  0.0000E+00  0.0000E+00  0.0000E+00  0.0000E+00  0.0000E+00  0.0000E+00  0.0000E+00  0.0000E+00  0.0000E+00  0.0000E+00
    -34.738  0.0000E+00  0.0000E+00  0.0000E+00  0.0000E+00  0.0000E+00  0.0000E+00  0.0000E+00  0.0000E+00  0.0000E+00  0.0000E+00  0.0000E+00  0.0000E+00  0.0000E+00  0.0000E+00  0.0000E+00  0.0000E+00  0.0000E+00  0.0000E+00
    -34.464  0.0000E+00  0.0000E+00  0.0000E+00  0.0000E+00  0.0000E+00  0.0000E+00  0.0000E+00  0.0000E+00  0.0000E+00  0.0000E+00  0.0000E+00  0.0000E+00  0.0000E+00  0.0000E+00  0.0000E+00  0.0000E+00  0.0000E+00  0.0000E+00
    -34.190  0.0000E+00  0.0000E+00  0.0000E+00  0.0000E+00  0.0000E+00  0.0000E+00  0.0000E+00  0.0000E+00  0.0000E+00  0.0000E+00  0.0000E+00  0.0000E+00  0.0000E+00  0.0000E+00  0.0000E+00  0.0000E+00  0.0000E+00  0.0000E+00
    -33.916  0.0000E+00  0.0000E+00  0.0000E+00  0.0000E+00  0.0000E+00  0.0000E+00  0.0000E+00  0.0000E+00  0.0000E+00  0.0000E+00  0.0000E+00  0.0000E+00  0.0000E+00  0.0000E+00  0.0000E+00  0.0000E+00  0.0000E+00  0.0000E+00
    -33.643  0.0000E+00  0.0000E+00  0.0000E+00  0.0000E+00  0.0000E+00  0.0000E+00  0.0000E+00  0.0000E+00  0.0000E+00  0.0000E+00  0.0000E+00  0.0000E+00  0.0000E+00  0.0000E+00  0.0000E+00  0.0000E+00  0.0000E+00  0.0000E+00
    -33.369  0.0000E+00  0.0000E+00  0.0000E+00  0.0000E+00  0.0000E+00  0.0000E+00  0.0000E+00  0.0000E+00  0.0000E+00  0.0000E+00  0.0000E+00  0.0000E+00  0.0000E+00  0.0000E+00  0.0000E+00  0.0000E+00  0.0000E+00  0.0000E+00
    -33.095  0.0000E+00  0.0000E+00  0.0000E+00  0.0000E+00  0.0000E+00  0.0000E+00  0.0000E+00  0.0000E+00  0.0000E+00  0.0000E+00  0.0000E+00  0.0000E+00  0.0000E+00  0.0000E+00  0.0000E+00  0.0000E+00  0.0000E+00  0.0000E+00
    -32.821  0.0000E+00  0.0000E+00  0.0000E+00  0.0000E+00  0.0000E+00  0.0000E+00  0.0000E+00  0.0000E+00  0.0000E+00  0.0000E+00  0.0000E+00  0.0000E+00  0.0000E+00  0.0000E+00  0.0000E+00  0.0000E+00  0.0000E+00  0.0000E+00
    -32.547  0.0000E+00  0.0000E+00  0.0000E+00  0.0000E+00  0.0000E+00  0.0000E+00  0.0000E+00  0.0000E+00  0.0000E+00  0.0000E+00  0.0000E+00  0.0000E+00  0.0000E+00  0.0000E+00  0.0000E+00  0.0000E+00  0.0000E+00  0.0000E+00
    -32.273  0.0000E+00  0.0000E+00  0.0000E+00  0.0000E+00  0.0000E+00  0.0000E+00  0.0000E+00  0.0000E+00  0.0000E+00  0.0000E+00  0.0000E+00  0.0000E+00  0.0000E+00  0.0000E+00  0.0000E+00  0.0000E+00  0.0000E+00  0.0000E+00
    -32.000  0.0000E+00  0.0000E+00  0.0000E+00  0.0000E+00  0.0000E+00  0.0000E+00  0.0000E+00  0.0000E+00  0.0000E+00  0.0000E+00  0.0000E+00  0.0000E+00  0.0000E+00  0.0000E+00  0.0000E+00  0.0000E+00  0.0000E+00  0.0000E+00
    -31.726  0.0000E+00  0.0000E+00  0.0000E+00  0.0000E+00  0.0000E+00  0.0000E+00  0.0000E+00  0.0000E+00  0.0000E+00  0.0000E+00  0.0000E+00  0.0000E+00  0.0000E+00  0.0000E+00  0.0000E+00  0.0000E+00  0.0000E+00  0.0000E+00
    -31.452  0.0000E+00  0.0000E+00  0.0000E+00  0.0000E+00  0.0000E+00  0.0000E+00  0.0000E+00  0.0000E+00  0.0000E+00  0.0000E+00  0.0000E+00  0.0000E+00  0.0000E+00  0.0000E+00  0.0000E+00  0.0000E+00  0.0000E+00  0.0000E+00
    -31.178  0.0000E+00  0.0000E+00  0.0000E+00  0.0000E+00  0.0000E+00  0.0000E+00  0.0000E+00  0.0000E+00  0.0000E+00  0.0000E+00  0.0000E+00  0.0000E+00  0.0000E+00  0.0000E+00  0.0000E+00  0.0000E+00  0.0000E+00  0.0000E+00
    -30.904  0.0000E+00  0.0000E+00  0.0000E+00  0.0000E+00  0.0000E+00  0.0000E+00  0.0000E+00  0.0000E+00  0.0000E+00  0.0000E+00  0.0000E+00  0.0000E+00  0.0000E+00  0.0000E+00  0.0000E+00  0.0000E+00  0.0000E+00  0.0000E+00
    -30.631  0.0000E+00  0.0000E+00  0.0000E+00  0.0000E+00  0.0000E+00  0.0000E+00  0.0000E+00  0.0000E+00  0.0000E+00  0.0000E+00  0.0000E+00  0.0000E+00  0.0000E+00  0.0000E+00  0.0000E+00  0.0000E+00  0.0000E+00  0.0000E+00
    -30.357  0.0000E+00  0.0000E+00  0.0000E+00  0.0000E+00  0.0000E+00  0.0000E+00  0.0000E+00  0.0000E+00  0.0000E+00  0.0000E+00  0.0000E+00  0.0000E+00  0.0000E+00  0.0000E+00  0.0000E+00  0.0000E+00  0.0000E+00  0.0000E+00
    -30.083  0.0000E+00  0.0000E+00  0.0000E+00  0.0000E+00  0.0000E+00  0.0000E+00  0.0000E+00  0.0000E+00  0.0000E+00  0.0000E+00  0.0000E+00  0.0000E+00  0.0000E+00  0.0000E+00  0.0000E+00  0.0000E+00  0.0000E+00  0.0000E+00