  16  16   1   0
  0.1223252E+02  0.4868027E-09  0.5481850E-09  0.7334251E-09  0.5000000E-15
  1.000000000000000E-004
  CAR 
 unknown system                          
     25.72488897    -50.55319649  301      7.58509599      1.00000000
    -50.553  0.0000E+00  0.0000E+00  0.0000E+00  0.0000E+00
    -50.299  0.0000E+00  0.0000E+00  0.0000E+00  0.0000E+00
    -50.045  0.0000E+00  0.0000E+00  0.0000E+00  0.0000E+00
    -49.790  0.0000E+00  0.0000E+00  0.0000E+00  0.0000E+00
    -49.536  0.0000E+00  0.0000E+00  0.0000E+00  0.0000E+00
    -49.282  0.0000E+00  0.0000E+00  0.0000E+00  0.0000E+00
    -49.028  0.0000E+00  0.0000E+00  0.0000E+00  0.0000E+00
    -48.773  0.0000E+00  0.0000E+00  0.0000E+00  0.0000E+00
    -48.519  0.0000E+00  0.0000E+00  0.0000E+00  0.0000E+00
    -48.265  0.0000E+00  0.0000E+00  0.0000E+00  0.0000E+00
    -48.011  0.0000E+00  0.0000E+00  0.0000E+00  0.0000E+00
    -47.756  0.0000E+00  0.0000E+00  0.0000E+00  0.0000E+00
    -47.502  0.5659E-02  0.0000E+00  0.1439E-02  0.0000E+00
    -47.248  0.8962E+00  0.0000E+00  0.2293E+00  0.0000E+00
    -46.994  0.4564E+02  0.0000E+00  0.1183E+02  0.0000E+00
    -46.739  0.8792E+02  0.0000E+00  0.3419E+02  0.0000E+00
    -46.485  0.5993E+01  0.0000E+00  0.3599E+02  0.0000E+00
    -46.231  0.0000E+00  0.0000E+00  0.3600E+02  0.0000E+00
    -45.977  0.0000E+00  0.0000E+00  0.3600E+02  0.0000E+00
    -45.722  0.0000E+00  0.0000E+00  0.3600E+02  0.0000E+00
    -45.468  0.0000E+00  0.0000E+00  0.3600E+02  0.0000E+00
    -45.214  0.0000E+00  0.0000E+00  0.3600E+02  0.0000E+00
    -44.959  0.0000E+00  0.5985E-04  0.3600E+02  0.1522E-04
    -44.705  0.0000E+00  0.1537E-01  0.3600E+02  0.3922E-02
    -44.451  0.0000E+00  0.2319E+01  0.3600E+02  0.5936E+00
    -44.197  0.0000E+00  0.5457E+02  0.3600E+02  0.1447E+02
    -43.942  0.0000E+00  0.7282E+02  0.3600E+02  0.3304E+02
    -43.688  0.0000E+00  0.1094E+02  0.3600E+02  0.3598E+02
    -43.434  0.0000E+00  0.0000E+00  0.3600E+02  0.3600E+02
    -43.180  0.0000E+00  0.0000E+00  0.3600E+02  0.3600E+02
    -42.925  0.0000E+00  0.0000E+00  0.3600E+02  0.3600E+02
    -42.671  0.0000E+00  0.0000E+00  0.3600E+02  0.3600E+02
    -42.417  0.0000E+00  0.0000E+00  0.3600E+02  0.3600E+02
    -42.163  0.0000E+00  0.0000E+00  0.3600E+02  0.3600E+02
    -41.908  0.0000E+00  0.0000E+00  0.3600E+02  0.3600E+02
    -41.654  0.0000E+00  0.0000E+00  0.3600E+02  0.3600E+02
    -41.400  0.0000E+00  0.0000E+00  0.3600E+02  0.3600E+02
    -41.146  0.0000E+00  0.0000E+00  0.3600E+02  0.3600E+02
    -40.891  0.0000E+00  0.0000E+00  0.3600E+02  0.3600E+02
    -40.637  0.0000E+00  0.0000E+00  0.3600E+02  0.3600E+02
    -40.383  0.0000E+00  0.0000E+00  0.3600E+02  0.3600E+02
    -40.129  0.0000E+00  0.0000E+00  0.3600E+02  0.3600E+02
    -39.874  0.0000E+00  0.0000E+00  0.3600E+02  0.3600E+02
    -39.620  0.0000E+00  0.0000E+00  0.3600E+02  0.3600E+02
    -39.366  0.0000E+00  0.0000E+00  0.3600E+02  0.3600E+02
    -39.111  0.0000E+00  0.0000E+00  0.3600E+02  0.3600E+02
    -38.857  0.0000E+00  0.0000E+00  0.3600E+02  0.3600E+02
    -38.603  0.0000E+00  0.0000E+00  0.3600E+02  0.3600E+02
    -38.349  0.0000E+00  0.0000E+00  0.3600E+02  0.3600E+02
    -38.094  0.0000E+00  0.0000E+00  0.3600E+02  0.3600E+02
    -37.840  0.0000E+00  0.0000E+00  0.3600E+02  0.3600E+02
    -37.586  0.0000E+00  0.0000E+00  0.3600E+02  0.3600E+02
    -37.332  0.0000E+00  0.0000E+00  0.3600E+02  0.3600E+02
    -37.077  0.0000E+00  0.0000E+00  0.3600E+02  0.3600E+02
    -36.823  0.0000E+00  0.0000E+00  0.3600E+02  0.3600E+02
    -36.569  0.0000E+00  0.0000E+00  0.3600E+02  0.3600E+02
    -36.315  0.0000E+00  0.0000E+00  0.3600E+02  0.3600E+02
    -36.060  0.0000E+00  0.0000E+00  0.3600E+02  0.3600E+02
    -35.806  0.0000E+00  0.0000E+00  0.3600E+02  0.3600E+02
    -35.552  0.0000E+00  0.0000E+00  0.3600E+02  0.3600E+02
    -35.298  0.0000E+00  0.0000E+00  0.3600E+02  0.3600E+02
    -35.043  0.0000E+00  0.0000E+00  0.3600E+02  0.3600E+02
    -34.789  0.0000E+00  0.0000E+00  0.3600E+02  0.3600E+02
    -34.535  0.0000E+00  0.0000E+00  0.3600E+02  0.3600E+02
    -34.281  0.0000E+00  0.0000E+00  0.3600E+02  0.3600E+02
    -34.026  0.0000E+00  0.0000E+00  0.3600E+02  0.3600E+02
    -33.772  0.0000E+00  0.0000E+00  0.3600E+02  0.3600E+02
    -33.518  0.0000E+00  0.0000E+00  0.3600E+02  0.3600E+02
    -33.263  0.0000E+00  0.0000E+00  0.3600E+02  0.3600E+02
    -33.009  0.0000E+00  0.0000E+00  0.3600E+02  0.3600E+02
    -32.755  0.0000E+00  0.0000E+00  0.3600E+02  0.3600E+02
    -32.501  0.0000E+00  0.0000E+00  0.3600E+02  0.3600E+02
    -32.246  0.0000E+00  0.0000E+00  0.3600E+02  0.3600E+02
    -31.992  0.0000E+00  0.0000E+00  0.3600E+02  0.3600E+02
    -31.738  0.0000E+00  0.0000E+00  0.3600E+02  0.3600E+02
    -31.484  0.0000E+00  0.0000E+00  0.3600E+02  0.3600E+02
    -31.229  0.0000E+00  0.0000E+00  0.3600E+02  0.3600E+02
    -30.975  0.0000E+00  0.0000E+00  0.3600E+02  0.3600E+02
    -30.721  0.0000E+00  0.0000E+00  0.3600E+02  0.3600E+02
    -30.467  0.0000E+00  0.0000E+00  0.3600E+02  0.3600E+02
    -30.212  0.0000E+00  0.0000E+00  0.3600E+02  0.3600E+02
    -29.958  0.0000E+00  0.0000E+00  0.3600E+02  0.3600E+02
    -29.704  0.0000E+00  0.0000E+00  0.3600E+02  0.3600E+02
    -29.450  0.0000E+00  0.0000E+00  0.3600E+02  0.3600E+02
    -29.195  0.0000E+00  0.0000E+00  0.3600E+02  0.3600E+02
    -28.941  0.0000E+00  0.0000E+00  0.3600E+02  0.3600E+02
    -28.687  0.0000E+00  0.0000E+00  0.3600E+02  0.3600E+02
    -28.433  0.0000E+00  0.0000E+00  0.3600E+02  0.3600E+02
    -28.178  0.0000E+00  0.0000E+00  0.3600E+02  0.3600E+02
    -27.924  0.0000E+00  0.0000E+00  0.3600E+02  0.3600E+02
    -27.670  0.0000E+00  0.0000E+00  0.3600E+02  0.3600E+02
    -27.416  0.0000E+00  0.0000E+00  0.3600E+02  0.3600E+02
    -27.161  0.0000E+00  0.0000E+00  0.3600E+02  0.3600E+02
    -26.907  0.0000E+00  0.0000E+00  0.3600E+02  0.3600E+02
    -26.653  0.0000E+00  0.0000E+00  0.3600E+02  0.3600E+02
    -26.398  0.0000E+00  0.0000E+00  0.3600E+02  0.3600E+02
    -26.144  0.0000E+00  0.0000E+00  0.3600E+02  0.3600E+02
    -25.890  0.0000E+00  0.0000E+00  0.3600E+02  0.3600E+02
    -25.636  0.0000E+00  0.0000E+00  0.3600E+02  0.3600E+02
    -25.381  0.0000E+00  0.0000E+00  0.3600E+02  0.3600E+02
    -25.127  0.0000E+00  0.0000E+00  0.3600E+02  0.3600E+02
    -24.873  0.0000E+00  0.0000E+00  0.3600E+02  0.3600E+02
    -24.619  0.0000E+00  0.0000E+00  0.3600E+02  0.3600E+02
    -24.364  0.0000E+00  0.0000E+00  0.3600E+02  0.3600E+02
    -24.110  0.0000E+00  0.0000E+00  0.3600E+02  0.3600E+02
    -23.856  0.0000E+00  0.0000E+00  0.3600E+02  0.3600E+02
    -23.602  0.0000E+00  0.0000E+00  0.3600E+02  0.3600E+02
    -23.347  0.0000E+00  0.0000E+00  0.3600E+02  0.3600E+02
    -23.093  0.0000E+00  0.0000E+00  0.3600E+02  0.3600E+02
    -22.839  0.0000E+00  0.0000E+00  0.3600E+02  0.3600E+02
    -22.585  0.0000E+00  0.0000E+00  0.3600E+02  0.3600E+02
    -22.330  0.0000E+00  0.0000E+00  0.3600E+02  0.3600E+02
    -22.076  0.0000E+00  0.0000E+00  0.3600E+02  0.3600E+02
    -21.822  0.0000E+00  0.0000E+00  0.3600E+02  0.3600E+02
    -21.568  0.0000E+00  0.0000E+00  0.3600E+02  0.3600E+02
    -21.313  0.0000E+00  0.0000E+00  0.3600E+02  0.3600E+02
    -21.059  0.0000E+00  0.0000E+00  0.3600E+02  0.3600E+02
    -20.805  0.0000E+00  0.0000E+00  0.3600E+02  0.3600E+02
    -20.550  0.0000E+00  0.0000E+00  0.3600E+02  0.3600E+02
    -20.296  0.0000E+00  0.0000E+00  0.3600E+02  0.3600E+02
    -20.042  0.0000E+00  0.0000E+00  0.3600E+02  0.3600E+02
    -19.788  0.0000E+00  0.0000E+00  0.3600E+02  0.3600E+02
    -19.533  0.0000E+00  0.0000E+00  0.3600E+02  0.3600E+02
    -19.279  0.0000E+00  0.0000E+00  0.3600E+02  0.3600E+02
    -19.025  0.0000E+00  0.0000E+00  0.3600E+02  0.3600E+02
    -18.771  0.0000E+00  0.0000E+00  0.3600E+02  0.3600E+02
    -18.516  0.0000E+00  0.0000E+00  0.3600E+02  0.3600E+02
    -18.262  0.0000E+00  0.0000E+00  0.3600E+02  0.3600E+02
    -18.008  0.0000E+00  0.0000E+00  0.3600E+02  0.3600E+02
    -17.754  0.0000E+00  0.0000E+00  0.3600E+02  0.3600E+02
    -17.499  0.0000E+00  0.0000E+00  0.3600E+02  0.3600E+02
    -17.245  0.0000E+00  0.0000E+00  0.3600E+02  0.3600E+02
    -16.991  0.0000E+00  0.0000E+00  0.3600E+02  0.3600E+02
    -16.737  0.0000E+00  0.0000E+00  0.3600E+02  0.3600E+02
    -16.482  0.0000E+00  0.0000E+00  0.3600E+02  0.3600E+02
    -16.228  0.0000E+00  0.0000E+00  0.3600E+02  0.3600E+02
    -15.974  0.0000E+00  0.0000E+00  0.3600E+02  0.3600E+02
    -15.720  0.0000E+00  0.0000E+00  0.3600E+02  0.3600E+02
    -15.465  0.0000E+00  0.0000E+00  0.3600E+02  0.3600E+02
    -15.211  0.0000E+00  0.0000E+00  0.3600E+02  0.3600E+02
    -14.957  0.0000E+00  0.0000E+00  0.3600E+02  0.3600E+02
    -14.702  0.0000E+00  0.0000E+00  0.3600E+02  0.3600E+02
    -14.448  0.0000E+00  0.0000E+00  0.3600E+02  0.3600E+02
    -14.194  0.0000E+00  0.0000E+00  0.3600E+02  0.3600E+02
    -13.940  0.0000E+00  0.0000E+00  0.3600E+02  0.3600E+02
    -13.685  0.0000E+00  0.0000E+00  0.3600E+02  0.3600E+02
    -13.431  0.0000E+00  0.0000E+00  0.3600E+02  0.3600E+02
    -13.177  0.0000E+00  0.0000E+00  0.3600E+02  0.3600E+02
    -12.923  0.0000E+00  0.0000E+00  0.3600E+02  0.3600E+02
    -12.668  0.0000E+00  0.0000E+00  0.3600E+02  0.3600E+02
    -12.414  0.0000E+00  0.0000E+00  0.3600E+02  0.3600E+02
    -12.160  0.0000E+00  0.0000E+00  0.3600E+02  0.3600E+02
    -11.906  0.0000E+00  0.0000E+00  0.3600E+02  0.3600E+02
    -11.651  0.0000E+00  0.0000E+00  0.3600E+02  0.3600E+02
    -11.397  0.0000E+00  0.0000E+00  0.3600E+02  0.3600E+02
    -11.143  0.0000E+00  0.0000E+00  0.3600E+02  0.3600E+02
    -10.889  0.0000E+00  0.0000E+00  0.3600E+02  0.3600E+02
    -10.634  0.0000E+00  0.0000E+00  0.3600E+02  0.3600E+02
    -10.380  0.0000E+00  0.0000E+00  0.3600E+02  0.3600E+02
    -10.126  0.0000E+00  0.0000E+00  0.3600E+02  0.3600E+02
     -9.872  0.0000E+00  0.0000E+00  0.3600E+02  0.3600E+02
     -9.617  0.0000E+00  0.0000E+00  0.3600E+02  0.3600E+02
     -9.363  0.0000E+00  0.0000E+00  0.3600E+02  0.3600E+02
     -9.109  0.0000E+00  0.0000E+00  0.3600E+02  0.3600E+02
     -8.855  0.0000E+00  0.0000E+00  0.3600E+02  0.3600E+02
     -8.600  0.0000E+00  0.0000E+00  0.3600E+02  0.3600E+02
     -8.346  0.0000E+00  0.0000E+00  0.3600E+02  0.3600E+02
     -8.092  0.0000E+00  0.0000E+00  0.3600E+02  0.3600E+02
     -7.837  0.0000E+00  0.0000E+00  0.3600E+02  0.3600E+02
     -7.583  0.0000E+00  0.0000E+00  0.3600E+02  0.3600E+02
     -7.329  0.0000E+00  0.0000E+00  0.3600E+02  0.3600E+02
     -7.075  0.0000E+00  0.0000E+00  0.3600E+02  0.3600E+02
     -6.820  0.0000E+00  0.0000E+00  0.3600E+02  0.3600E+02
     -6.566  0.0000E+00  0.0000E+00  0.3600E+02  0.3600E+02
     -6.312  0.0000E+00  0.0000E+00  0.3600E+02  0.3600E+02
     -6.058  0.0000E+00  0.0000E+00  0.3600E+02  0.3600E+02
     -5.803  0.0000E+00  0.0000E+00  0.3600E+02  0.3600E+02
     -5.549  0.0000E+00  0.0000E+00  0.3600E+02  0.3600E+02
     -5.295  0.0000E+00  0.0000E+00  0.3600E+02  0.3600E+02
     -5.041  0.6965E-06  0.9371E-05  0.3600E+02  0.3600E+02
     -4.786  0.1444E-03  0.1534E-02  0.3600E+02  0.3600E+02
     -4.532  0.1953E-01  0.1099E+00  0.3601E+02  0.3603E+02
     -4.278  0.3792E+00  0.7466E+00  0.3610E+02  0.3622E+02
     -4.024  0.9393E+00  0.1351E+01  0.3634E+02  0.3656E+02
     -3.769  0.1849E+01  0.2683E+01  0.3681E+02  0.3725E+02
     -3.515  0.3052E+01  0.3517E+01  0.3759E+02  0.3815E+02
     -3.261  0.3414E+01  0.3802E+01  0.3847E+02  0.3913E+02
     -3.007  0.3943E+01  0.2896E+01  0.3948E+02  0.3987E+02
     -2.752  0.1867E+01  0.4722E+00  0.3997E+02  0.4000E+02
     -2.498  0.8987E-01  0.0000E+00  0.4000E+02  0.4000E+02
     -2.244  0.0000E+00  0.0000E+00  0.4000E+02  0.4000E+02
     -1.989  0.0000E+00  0.0000E+00  0.4000E+02  0.4000E+02
     -1.735  0.0000E+00  0.0000E+00  0.4000E+02  0.4000E+02
     -1.481  0.0000E+00  0.0000E+00  0.4000E+02  0.4000E+02
     -1.227  0.0000E+00  0.0000E+00  0.4000E+02  0.4000E+02
     -0.972  0.0000E+00  0.0000E+00  0.4000E+02  0.4000E+02
     -0.718  0.0000E+00  0.0000E+00  0.4000E+02  0.4000E+02
     -0.464  0.0000E+00  0.0000E+00  0.4000E+02  0.4000E+02
     -0.210  0.0000E+00  0.0000E+00  0.4000E+02  0.4000E+02
      0.045  0.0000E+00  0.0000E+00  0.4000E+02  0.4000E+02
      0.299  0.0000E+00  0.0000E+00  0.4000E+02  0.4000E+02
      0.553  0.3623E-06  0.0000E+00  0.4000E+02  0.4000E+02
      0.807  0.8197E-04  0.2359E-05  0.4000E+02  0.4000E+02
      1.062  0.1138E-01  0.4073E-03  0.4000E+02  0.4000E+02
      1.316  0.3190E+00  0.3236E-01  0.4008E+02  0.4001E+02
      1.570  0.2720E+01  0.4546E+00  0.4078E+02  0.4012E+02
      1.824  0.4341E+01  0.2337E+01  0.4188E+02  0.4072E+02
      2.079  0.5423E+01  0.3520E+01  0.4327E+02  0.4162E+02
      2.333  0.4691E+01  0.3851E+01  0.4447E+02  0.4260E+02
      2.587  0.4111E+01  0.4375E+01  0.4553E+02  0.4372E+02
      2.841  0.3976E+01  0.3674E+01  0.4656E+02  0.4467E+02
      3.096  0.5316E+01  0.3401E+01  0.4792E+02  0.4554E+02
      3.350  0.7382E+01  0.2794E+01  0.4981E+02  0.4626E+02
      3.604  0.7861E+01  0.3566E+01  0.5183E+02  0.4717E+02
      3.859  0.3511E+01  0.5274E+01  0.5275E+02  0.4852E+02
      4.113  0.1046E+02  0.7027E+01  0.5541E+02  0.5032E+02
      4.367  0.1608E+02  0.5747E+01  0.5953E+02  0.5181E+02
      4.621  0.1782E+02  0.8579E+00  0.6412E+02  0.5205E+02
      4.876  0.1620E+02  0.7012E+00  0.6830E+02  0.5223E+02
      5.130  0.1970E+02  0.1562E+01  0.7336E+02  0.5263E+02
      5.384  0.1854E+02  0.4867E+01  0.7813E+02  0.5387E+02
      5.638  0.1590E+02  0.6865E+01  0.8221E+02  0.5563E+02
      5.893  0.1859E+02  0.6998E+01  0.8697E+02  0.5743E+02
      6.147  0.2122E+02  0.1159E+02  0.9241E+02  0.6039E+02
      6.401  0.2341E+02  0.1245E+02  0.9842E+02  0.6359E+02
      6.655  0.1318E+02  0.1250E+02  0.1018E+03  0.6681E+02
      6.910  0.6487E+01  0.6652E+01  0.1035E+03  0.6853E+02
      7.164  0.4338E+01  0.1296E+02  0.1046E+03  0.7185E+02
      7.418  0.3489E+01  0.1452E+02  0.1055E+03  0.7557E+02
      7.672  0.3764E+01  0.1309E+02  0.1065E+03  0.7895E+02
      7.927  0.3664E+01  0.9159E+01  0.1074E+03  0.8131E+02
      8.181  0.3969E+01  0.1338E+02  0.1085E+03  0.8474E+02
      8.435  0.3692E+01  0.1475E+02  0.1094E+03  0.8853E+02
      8.689  0.3339E+01  0.1800E+02  0.1103E+03  0.9315E+02
      8.944  0.3898E+01  0.2010E+02  0.1113E+03  0.9831E+02
      9.198  0.2898E+01  0.1760E+02  0.1120E+03  0.1028E+03
      9.452  0.1048E+01  0.9152E+01  0.1123E+03  0.1052E+03
      9.706  0.1738E+01  0.7157E+01  0.1127E+03  0.1071E+03
      9.961  0.2624E+01  0.5796E+01  0.1134E+03  0.1086E+03
     10.215  0.2318E+01  0.5206E+01  0.1140E+03  0.1099E+03
     10.469  0.2540E+01  0.5418E+01  0.1146E+03  0.1113E+03
     10.724  0.1865E+01  0.3296E+01  0.1151E+03  0.1121E+03
     10.978  0.2843E+01  0.2202E+01  0.1159E+03  0.1127E+03
     11.232  0.2887E+01  0.3788E+01  0.1166E+03  0.1137E+03
     11.486  0.2458E+01  0.3255E+01  0.1172E+03  0.1145E+03
     11.741  0.2498E+01  0.3437E+01  0.1179E+03  0.1154E+03
     11.995  0.1415E+01  0.3565E+01  0.1182E+03  0.1163E+03
     12.249  0.1610E+01  0.2959E+01  0.1186E+03  0.1171E+03
     12.503  0.1993E+01  0.3056E+01  0.1192E+03  0.1179E+03
     12.758  0.1515E+01  0.1528E+01  0.1195E+03  0.1183E+03
     13.012  0.1919E+01  0.1593E+01  0.1200E+03  0.1187E+03
     13.266  0.1676E+01  0.1806E+01  0.1205E+03  0.1191E+03
     13.520  0.2409E+01  0.1958E+01  0.1211E+03  0.1196E+03
     13.775  0.2577E+01  0.1635E+01  0.1217E+03  0.1201E+03
     14.029  0.1933E+01  0.2399E+01  0.1222E+03  0.1207E+03
     14.283  0.2734E+01  0.2321E+01  0.1229E+03  0.1213E+03
     14.537  0.3118E+01  0.2421E+01  0.1237E+03  0.1219E+03
     14.792  0.3647E+01  0.1977E+01  0.1247E+03  0.1224E+03
     15.046  0.1892E+01  0.2826E+01  0.1252E+03  0.1231E+03
     15.300  0.2252E+01  0.3817E+01  0.1257E+03  0.1241E+03
     15.554  0.3045E+01  0.3141E+01  0.1265E+03  0.1249E+03
     15.809  0.3084E+01  0.1505E+01  0.1273E+03  0.1253E+03
     16.063  0.2724E+01  0.2664E+01  0.1280E+03  0.1260E+03
     16.317  0.2328E+01  0.3385E+01  0.1286E+03  0.1269E+03
     16.572  0.2424E+01  0.3421E+01  0.1292E+03  0.1277E+03
     16.826  0.2903E+01  0.2897E+01  0.1300E+03  0.1285E+03
     17.080  0.3681E+01  0.2285E+01  0.1309E+03  0.1291E+03
     17.334  0.2791E+01  0.2958E+01  0.1317E+03  0.1298E+03
     17.589  0.3327E+01  0.3752E+01  0.1325E+03  0.1308E+03
     17.843  0.2848E+01  0.3138E+01  0.1332E+03  0.1316E+03
     18.097  0.3098E+01  0.3549E+01  0.1340E+03  0.1325E+03
     18.351  0.3329E+01  0.2937E+01  0.1349E+03  0.1333E+03
     18.606  0.2984E+01  0.3366E+01  0.1357E+03  0.1341E+03
     18.860  0.2831E+01  0.3506E+01  0.1364E+03  0.1350E+03
     19.114  0.3603E+01  0.3135E+01  0.1373E+03  0.1358E+03
     19.368  0.3318E+01  0.2735E+01  0.1382E+03  0.1365E+03
     19.623  0.3237E+01  0.3442E+01  0.1390E+03  0.1374E+03
     19.877  0.2898E+01  0.3330E+01  0.1397E+03  0.1383E+03
     20.131  0.2286E+01  0.3053E+01  0.1403E+03  0.1391E+03
     20.385  0.2560E+01  0.2852E+01  0.1410E+03  0.1398E+03
     20.640  0.3195E+01  0.2488E+01  0.1418E+03  0.1404E+03
     20.894  0.3199E+01  0.2758E+01  0.1426E+03  0.1411E+03
     21.148  0.2791E+01  0.3215E+01  0.1433E+03  0.1420E+03
     21.402  0.1881E+01  0.3184E+01  0.1438E+03  0.1428E+03
     21.657  0.3109E+00  0.2729E+01  0.1439E+03  0.1435E+03
     21.911  0.2941E+00  0.1499E+01  0.1440E+03  0.1439E+03
     22.165  0.6871E-02  0.2352E+00  0.1440E+03  0.1439E+03
     22.420  0.0000E+00  0.2550E+00  0.1440E+03  0.1440E+03
     22.674  0.0000E+00  0.0000E+00  0.1440E+03  0.1440E+03
     22.928  0.0000E+00  0.0000E+00  0.1440E+03  0.1440E+03
     23.182  0.0000E+00  0.0000E+00  0.1440E+03  0.1440E+03
     23.437  0.0000E+00  0.0000E+00  0.1440E+03  0.1440E+03
     23.691  0.0000E+00  0.0000E+00  0.1440E+03  0.1440E+03
     23.945  0.0000E+00  0.0000E+00  0.1440E+03  0.1440E+03
     24.199  0.0000E+00  0.0000E+00  0.1440E+03  0.1440E+03
     24.454  0.0000E+00  0.0000E+00  0.1440E+03  0.1440E+03
     24.708  0.0000E+00  0.0000E+00  0.1440E+03  0.1440E+03
     24.962  0.0000E+00  0.0000E+00  0.1440E+03  0.1440E+03
     25.216  0.0000E+00  0.0000E+00  0.1440E+03  0.1440E+03
     25.471  0.0000E+00  0.0000E+00  0.1440E+03  0.1440E+03
     25.725  0.0000E+00  0.0000E+00  0.1440E+03  0.1440E+03
     25.72488897    -50.55319649  301      7.58509599      1.00000000
    -50.553  0.0000E+00  0.0000E+00  0.0000E+00  0.0000E+00  0.0000E+00  0.0000E+00  0.0000E+00  0.0000E+00  0.0000E+00  0.0000E+00  0.0000E+00  0.0000E+00  0.0000E+00  0.0000E+00  0.0000E+00  0.0000E+00  0.0000E+00  0.0000E+00
    -50.299  0.0000E+00  0.0000E+00  0.0000E+00  0.0000E+00  0.0000E+00  0.0000E+00  0.0000E+00  0.0000E+00  0.0000E+00  0.0000E+00  0.0000E+00  0.0000E+00  0.0000E+00  0.0000E+00  0.0000E+00  0.0000E+00  0.0000E+00  0.0000E+00
    -50.045  0.0000E+00  0.0000E+00  0.0000E+00  0.0000E+00  0.0000E+00  0.0000E+00  0.0000E+00  0.0000E+00  0.0000E+00  0.0000E+00  0.0000E+00  0.0000E+00  0.0000E+00  0.0000E+00  0.0000E+00  0.0000E+00  0.0000E+00  0.0000E+00
    -49.790  0.0000E+00  0.0000E+00  0.0000E+00  0.0000E+00  0.0000E+00  0.0000E+00  0.0000E+00  0.0000E+00  0.0000E+00  0.0000E+00  0.0000E+00  0.0000E+00  0.0000E+00  0.0000E+00  0.0000E+00  0.0000E+00  0.0000E+00  0.0000E+00
    -49.536  0.0000E+00  0.0000E+00  0.0000E+00  0.0000E+00  0.0000E+00  0.0000E+00  0.0000E+00  0.0000E+00  0.0000E+00  0.0000E+00  0.0000E+00  0.0000E+00  0.0000E+00  0.0000E+00  0.0000E+00  0.0000E+00  0.0000E+00  0.0000E+00
    -49.282  0.0000E+00  0.0000E+00  0.0000E+00  0.0000E+00  0.0000E+00  0.0000E+00  0.0000E+00  0.0000E+00  0.0000E+00  0.0000E+00  0.0000E+00  0.0000E+00  0.0000E+00  0.0000E+00  0.0000E+00  0.0000E+00  0.0000E+00  0.0000E+00
    -49.028  0.0000E+00  0.0000E+00  0.0000E+00  0.0000E+00  0.0000E+00  0.0000E+00  0.0000E+00  0.0000E+00  0.0000E+00  0.0000E+00  0.0000E+00  0.0000E+00  0.0000E+00  0.0000E+00  0.0000E+00  0.0000E+00  0.0000E+00  0.0000E+00
    -48.773  0.0000E+00  0.0000E+00  0.0000E+00  0.0000E+00  0.0000E+00  0.0000E+00  0.0000E+00  0.0000E+00  0.0000E+00  0.0000E+00  0.0000E+00  0.0000E+00  0.0000E+00  0.0000E+00  0.0000E+00  0.0000E+00  0.0000E+00  0.0000E+00
    -48.519  0.0000E+00  0.0000E+00  0.0000E+00  0.0000E+00  0.0000E+00  0.0000E+00  0.0000E+00  0.0000E+00  0.0000E+00  0.0000E+00  0.0000E+00  0.0000E+00  0.0000E+00  0.0000E+00  0.0000E+00  0.0000E+00  0.0000E+00  0.0000E+00
    -48.265  0.0000E+00  0.0000E+00  0.0000E+00  0.0000E+00  0.0000E+00  0.0000E+00  0.0000E+00  0.0000E+00  0.0000E+00  0.0000E+00  0.0000E+00  0.0000E+00  0.0000E+00  0.0000E+00  0.0000E+00  0.0000E+00  0.0000E+00  0.0000E+00
    -48.011  0.0000E+00  0.0000E+00  0.0000E+00  0.0000E+00  0.0000E+00  0.0000E+00  0.0000E+00  0.0000E+00  0.0000E+00  0.0000E+00  0.0000E+00  0.0000E+00  0.0000E+00  0.0000E+00  0.0000E+00  0.0000E+00  0.0000E+00  0.0000E+00
    -47.756  0.0000E+00  0.0000E+00  0.0000E+00  0.0000E+00  0.0000E+00  0.0000E+00  0.0000E+00  0.0000E+00  0.0000E+00  0.0000E+00  0.0000E+00  0.0000E+00  0.0000E+00  0.0000E+00  0.0000E+00  0.0000E+00  0.0000E+00  0.0000E+00
    -47.502  0.1502E-08  0.0000E+00  0.2504E-03  0.0000E+00  0.1678E-04  0.0000E+00  0.6912E-03  0.0000E+00  0.3428E-09  0.0000E+00  0.2994E-09  0.0000E+00  0.3199E-09  0.0000E+00  0.2486E-09  0.0000E+00  0.6643E-09  0.0000E+00
    -47.248  0.2385E-06  0.0000E+00  0.3961E-01  0.0000E+00  0.2869E-02  0.0000E+00  0.1077E+00  0.0000E+00  0.5505E-07  0.0000E+00  0.4870E-07  0.0000E+00  0.5159E-07  0.0000E+00  0.4048E-07  0.0000E+00  0.1048E-06  0.0000E+00
    -46.994  0.1258E-04  0.0000E+00  0.2208E+01  0.0000E+00  0.3619E+00  0.0000E+00  0.3006E+01  0.0000E+00  0.3744E-05  0.0000E+00  0.4257E-05  0.0000E+00  0.3343E-05  0.0000E+00  0.3132E-05  0.0000E+00  0.5042E-05  0.0000E+00
    -46.739  0.2072E-04  0.0000E+00  0.1643E+01  0.0000E+00  0.3232E+01  0.0000E+00  0.7908E+00  0.0000E+00  0.6392E-05  0.0000E+00  0.1312E-04  0.0000E+00  0.9333E-05  0.0000E+00  0.8683E-05  0.0000E+00  0.5558E-05  0.0000E+00
    -46.485  0.1210E-05  0.0000E+00  0.3889E-02  0.0000E+00  0.3023E+00  0.0000E+00  0.2577E-02  0.0000E+00  0.5116E-06  0.0000E+00  0.9469E-06  0.0000E+00  0.7749E-06  0.0000E+00  0.8601E-06  0.0000E+00  0.2252E-06  0.0000E+00
    -46.231  0.0000E+00  0.0000E+00  0.0000E+00  0.0000E+00  0.0000E+00  0.0000E+00  0.0000E+00  0.0000E+00  0.0000E+00  0.0000E+00  0.0000E+00  0.0000E+00  0.0000E+00  0.0000E+00  0.0000E+00  0.0000E+00  0.0000E+00  0.0000E+00
    -45.977  0.0000E+00  0.0000E+00  0.0000E+00  0.0000E+00  0.0000E+00  0.0000E+00  0.0000E+00  0.0000E+00  0.0000E+00  0.0000E+00  0.0000E+00  0.0000E+00  0.0000E+00  0.0000E+00  0.0000E+00  0.0000E+00  0.0000E+00  0.0000E+00
    -45.722  0.0000E+00  0.0000E+00  0.0000E+00  0.0000E+00  0.0000E+00  0.0000E+00  0.0000E+00  0.0000E+00  0.0000E+00  0.0000E+00  0.0000E+00  0.0000E+00  0.0000E+00  0.0000E+00  0.0000E+00  0.0000E+00  0.0000E+00  0.0000E+00
    -45.468  0.0000E+00  0.0000E+00  0.0000E+00  0.0000E+00  0.0000E+00  0.0000E+00  0.0000E+00  0.0000E+00  0.0000E+00  0.0000E+00  0.0000E+00  0.0000E+00  0.0000E+00  0.0000E+00  0.0000E+00  0.0000E+00  0.0000E+00  0.0000E+00
    -45.214  0.0000E+00  0.0000E+00  0.0000E+00  0.0000E+00  0.0000E+00  0.0000E+00  0.0000E+00  0.0000E+00  0.0000E+00  0.0000E+00  0.0000E+00  0.0000E+00  0.0000E+00  0.0000E+00  0.0000E+00  0.0000E+00  0.0000E+00  0.0000E+00
    -44.959  0.0000E+00  0.1761E-10  0.0000E+00  0.5037E-05  0.0000E+00  0.9089E-09  0.0000E+00  0.8499E-05  0.0000E+00  0.3184E-11  0.0000E+00  0.5754E-12  0.0000E+00  0.4437E-11  0.0000E+00  0.6130E-12  0.0000E+00  0.1550E-10
    -44.705  0.0000E+00  0.4942E-08  0.0000E+00  0.8433E-03  0.0000E+00  0.6952E-05  0.0000E+00  0.1397E-02  0.0000E+00  0.9755E-09  0.0000E+00  0.9560E-09  0.0000E+00  0.1277E-08  0.0000E+00  0.1033E-08  0.0000E+00  0.3021E-08
    -44.451  0.0000E+00  0.7499E-06  0.0000E+00  0.1239E+00  0.0000E+00  0.1667E-02  0.0000E+00  0.2054E+00  0.0000E+00  0.1486E-06  0.0000E+00  0.1520E-06  0.0000E+00  0.1939E-06  0.0000E+00  0.1616E-06  0.0000E+00  0.4473E-06
    -44.197  0.0000E+00  0.1828E-04  0.0000E+00  0.1475E+01  0.0000E+00  0.1489E+00  0.0000E+00  0.2222E+01  0.0000E+00  0.3814E-05  0.0000E+00  0.8275E-05  0.0000E+00  0.5652E-05  0.0000E+00  0.5589E-05  0.0000E+00  0.7105E-05
    -43.942  0.0000E+00  0.2411E-04  0.0000E+00  0.2141E+01  0.0000E+00  0.2912E+01  0.0000E+00  0.1365E+01  0.0000E+00  0.8791E-05  0.0000E+00  0.1337E-04  0.0000E+00  0.1004E-04  0.0000E+00  0.9145E-05  0.0000E+00  0.6012E-05
    -43.688  0.0000E+00  0.2782E-05  0.0000E+00  0.1113E+00  0.0000E+00  0.8464E+00  0.0000E+00  0.6268E-01  0.0000E+00  0.1248E-05  0.0000E+00  0.1655E-05  0.0000E+00  0.1554E-05  0.0000E+00  0.1905E-05  0.0000E+00  0.6249E-06
    -43.434  0.0000E+00  0.0000E+00  0.0000E+00  0.0000E+00  0.0000E+00  0.0000E+00  0.0000E+00  0.0000E+00  0.0000E+00  0.0000E+00  0.0000E+00  0.0000E+00  0.0000E+00  0.0000E+00  0.0000E+00  0.0000E+00  0.0000E+00  0.0000E+00
    -43.180  0.0000E+00  0.0000E+00  0.0000E+00  0.0000E+00  0.0000E+00  0.0000E+00  0.0000E+00  0.0000E+00  0.0000E+00  0.0000E+00  0.0000E+00  0.0000E+00  0.0000E+00  0.0000E+00  0.0000E+00  0.0000E+00  0.0000E+00  0.0000E+00
    -42.925  0.0000E+00  0.0000E+00  0.0000E+00  0.0000E+00  0.0000E+00  0.0000E+00  0.0000E+00  0.0000E+00  0.0000E+00  0.0000E+00  0.0000E+00  0.0000E+00  0.0000E+00  0.0000E+00  0.0000E+00  0.0000E+00  0.0000E+00  0.0000E+00
    -42.671  0.0000E+00  0.0000E+00  0.0000E+00  0.0000E+00  0.0000E+00  0.0000E+00  0.0000E+00  0.0000E+00  0.0000E+00  0.0000E+00  0.0000E+00  0.0000E+00  0.0000E+00  0.0000E+00  0.0000E+00  0.0000E+00  0.0000E+00  0.0000E+00
    -42.417  0.0000E+00  0.0000E+00  0.0000E+00  0.0000E+00  0.0000E+00  0.0000E+00  0.0000E+00  0.0000E+00  0.0000E+00  0.0000E+00  0.0000E+00  0.0000E+00  0.0000E+00  0.0000E+00  0.0000E+00  0.0000E+00  0.0000E+00  0.0000E+00
    -42.163  0.0000E+00  0.0000E+00  0.0000E+00  0.0000E+00  0.0000E+00  0.0000E+00  0.0000E+00  0.0000E+00  0.0000E+00  0.0000E+00  0.0000E+00  0.0000E+00  0.0000E+00  0.0000E+00  0.0000E+00  0.0000E+00  0.0000E+00  0.0000E+00
    -41.908  0.0000E+00  0.0000E+00  0.0000E+00  0.0000E+00  0.0000E+00  0.0000E+00  0.0000E+00  0.0000E+00  0.0000E+00  0.0000E+00  0.0000E+00  0.0000E+00  0.0000E+00  0.0000E+00  0.0000E+00  0.0000E+00  0.0000E+00  0.0000E+00
    -41.654  0.0000E+00  0.0000E+00  0.0000E+00  0.0000E+00  0.0000E+00  0.0000E+00  0.0000E+00  0.0000E+00  0.0000E+00  0.0000E+00  0.0000E+00  0.0000E+00  0.0000E+00  0.0000E+00  0.0000E+00  0.0000E+00  0.0000E+00  0.0000E+00
    -41.400  0.0000E+00  0.0000E+00  0.0000E+00  0.0000E+00  0.0000E+00  0.0000E+00  0.0000E+00  0.0000E+00  0.0000E+00  0.0000E+00  0.0000E+00  0.0000E+00  0.0000E+00  0.0000E+00  0.0000E+00  0.0000E+00  0.0000E+00  0.0000E+00
    -41.146  0.0000E+00  0.0000E+00  0.0000E+00  0.0000E+00  0.0000E+00  0.0000E+00  0.0000E+00  0.0000E+00  0.0000E+00  0.0000E+00  0.0000E+00  0.0000E+00  0.0000E+00  0.0000E+00  0.0000E+00  0.0000E+00  0.0000E+00  0.0000E+00
    -40.891  0.0000E+00  0.0000E+00  0.0000E+00  0.0000E+00  0.0000E+00  0.0000E+00  0.0000E+00  0.0000E+00  0.0000E+00  0.0000E+00  0.0000E+00  0.0000E+00  0.0000E+00  0.0000E+00  0.0000E+00  0.0000E+00  0.0000E+00  0.0000E+00
    -40.637  0.0000E+00  0.0000E+00  0.0000E+00  0.0000E+00  0.0000E+00  0.0000E+00  0.0000E+00  0.0000E+00  0.0000E+00  0.0000E+00  0.0000E+00  0.0000E+00  0.0000E+00  0.0000E+00  0.0000E+00  0.0000E+00  0.0000E+00  0.0000E+00
    -40.383  0.0000E+00  0.0000E+00  0.0000E+00  0.0000E+00  0.0000E+00  0.0000E+00  0.0000E+00  0.0000E+00  0.0000E+00  0.0000E+00  0.0000E+00  0.0000E+00  0.0000E+00  0.0000E+00  0.0000E+00  0.0000E+00  0.0000E+00  0.0000E+00
    -40.129  0.0000E+00  0.0000E+00  0.0000E+00  0.0000E+00  0.0000E+00  0.0000E+00  0.0000E+00  0.0000E+00  0.0000E+00  0.0000E+00  0.0000E+00  0.0000E+00  0.0000E+00  0.0000E+00  0.0000E+00  0.0000E+00  0.0000E+00  0.0000E+00
    -39.874  0.0000E+00  0.0000E+00  0.0000E+00  0.0000E+00  0.0000E+00  0.0000E+00  0.0000E+00  0.0000E+00  0.0000E+00  0.0000E+00  0.0000E+00  0.0000E+00  0.0000E+00  0.0000E+00  0.0000E+00  0.0000E+00  0.0000E+00  0.0000E+00
    -39.620  0.0000E+00  0.0000E+00  0.0000E+00  0.0000E+00  0.0000E+00  0.0000E+00  0.0000E+00  0.0000E+00  0.0000E+00  0.0000E+00  0.0000E+00  0.0000E+00  0.0000E+00  0.0000E+00  0.0000E+00  0.0000E+00  0.0000E+00  0.0000E+00
    -39.366  0.0000E+00  0.0000E+00  0.0000E+00  0.0000E+00  0.0000E+00  0.0000E+00  0.0000E+00  0.0000E+00  0.0000E+00  0.0000E+00  0.0000E+00  0.0000E+00  0.0000E+00  0.0000E+00  0.0000E+00  0.0000E+00  0.0000E+00  0.0000E+00
    -39.111  0.0000E+00  0.0000E+00  0.0000E+00  0.0000E+00  0.0000E+00  0.0000E+00  0.0000E+00  0.0000E+00  0.0000E+00  0.0000E+00  0.0000E+00  0.0000E+00  0.0000E+00  0.0000E+00  0.0000E+00  0.0000E+00  0.0000E+00  0.0000E+00
    -38.857  0.0000E+00  0.0000E+00  0.0000E+00  0.0000E+00  0.0000E+00  0.0000E+00  0.0000E+00  0.0000E+00  0.0000E+00  0.0000E+00  0.0000E+00  0.0000E+00  0.0000E+00  0.0000E+00  0.0000E+00  0.0000E+00  0.0000E+00  0.0000E+00
    -38.603  0.0000E+00  0.0000E+00  0.0000E+00  0.0000E+00  0.0000E+00  0.0000E+00  0.0000E+00  0.0000E+00  0.0000E+00  0.0000E+00  0.0000E+00  0.0000E+00  0.0000E+00  0.0000E+00  0.0000E+00  0.0000E+00  0.0000E+00  0.0000E+00
    -38.349  0.0000E+00  0.0000E+00  0.0000E+00  0.0000E+00  0.0000E+00  0.0000E+00  0.0000E+00  0.0000E+00  0.0000E+00  0.0000E+00  0.0000E+00  0.0000E+00  0.0000E+00  0.0000E+00  0.0000E+00  0.0000E+00  0.0000E+00  0.0000E+00
    -38.094  0.0000E+00  0.0000E+00  0.0000E+00  0.0000E+00  0.0000E+00  0.0000E+00  0.0000E+00  0.0000E+00  0.0000E+00  0.0000E+00  0.0000E+00  0.0000E+00  0.0000E+00  0.0000E+00  0.0000E+00  0.0000E+00  0.0000E+00  0.0000E+00
    -37.840  0.0000E+00  0.0000E+00  0.0000E+00  0.0000E+00  0.0000E+00  0.0000E+00  0.0000E+00  0.0000E+00  0.0000E+00  0.0000E+00  0.0000E+00  0.0000E+00  0.0000E+00  0.0000E+00  0.0000E+00  0.0000E+00  0.0000E+00  0.0000E+00