  16  16   1   0
  0.9445749E+01  0.4466080E-09  0.5029220E-09  0.6728670E-09  0.5000000E-15
  1.000000000000000E-004
  CAR 
 unknown system                          
     32.08640215    -47.39827318  301     10.75159383      1.00000000
    -47.398  0.0000E+00  0.0000E+00  0.0000E+00  0.0000E+00
    -47.133  0.0000E+00  0.0000E+00  0.0000E+00  0.0000E+00
    -46.868  0.0000E+00  0.0000E+00  0.0000E+00  0.0000E+00
    -46.603  0.0000E+00  0.0000E+00  0.0000E+00  0.0000E+00
    -46.338  0.0000E+00  0.0000E+00  0.0000E+00  0.0000E+00
    -46.074  0.0000E+00  0.0000E+00  0.0000E+00  0.0000E+00
    -45.809  0.0000E+00  0.0000E+00  0.0000E+00  0.0000E+00
    -45.544  0.0000E+00  0.0000E+00  0.0000E+00  0.0000E+00
    -45.279  0.0000E+00  0.0000E+00  0.0000E+00  0.0000E+00
    -45.014  0.0000E+00  0.0000E+00  0.0000E+00  0.0000E+00
    -44.749  0.0000E+00  0.0000E+00  0.0000E+00  0.0000E+00
    -44.484  0.0000E+00  0.0000E+00  0.0000E+00  0.0000E+00
    -44.219  0.1191E-02  0.0000E+00  0.3154E-03  0.0000E+00
    -43.954  0.2398E+00  0.0000E+00  0.6385E-01  0.0000E+00
    -43.689  0.1856E+02  0.0000E+00  0.4981E+01  0.0000E+00
    -43.424  0.7093E+02  0.0000E+00  0.2377E+02  0.0000E+00
    -43.159  0.4379E+02  0.0000E+00  0.3559E+02  0.0000E+00
    -42.894  0.4006E+00  0.0000E+00  0.3600E+02  0.0000E+00
    -42.629  0.0000E+00  0.0000E+00  0.3600E+02  0.0000E+00
    -42.364  0.0000E+00  0.0000E+00  0.3600E+02  0.0000E+00
    -42.099  0.0000E+00  0.1244E-02  0.3600E+02  0.3295E-03
    -41.834  0.0000E+00  0.2476E+00  0.3600E+02  0.6594E-01
    -41.569  0.0000E+00  0.1769E+02  0.3600E+02  0.4752E+01
    -41.304  0.0000E+00  0.5450E+02  0.3600E+02  0.1919E+02
    -41.039  0.0000E+00  0.5152E+02  0.3600E+02  0.3304E+02
    -40.775  0.0000E+00  0.1052E+02  0.3600E+02  0.3598E+02
    -40.510  0.0000E+00  0.0000E+00  0.3600E+02  0.3600E+02
    -40.245  0.0000E+00  0.0000E+00  0.3600E+02  0.3600E+02
    -39.980  0.0000E+00  0.0000E+00  0.3600E+02  0.3600E+02
    -39.715  0.0000E+00  0.0000E+00  0.3600E+02  0.3600E+02
    -39.450  0.0000E+00  0.0000E+00  0.3600E+02  0.3600E+02
    -39.185  0.0000E+00  0.0000E+00  0.3600E+02  0.3600E+02
    -38.920  0.0000E+00  0.0000E+00  0.3600E+02  0.3600E+02
    -38.655  0.0000E+00  0.0000E+00  0.3600E+02  0.3600E+02
    -38.390  0.0000E+00  0.0000E+00  0.3600E+02  0.3600E+02
    -38.125  0.0000E+00  0.0000E+00  0.3600E+02  0.3600E+02
    -37.860  0.0000E+00  0.0000E+00  0.3600E+02  0.3600E+02
    -37.595  0.0000E+00  0.0000E+00  0.3600E+02  0.3600E+02
    -37.330  0.0000E+00  0.0000E+00  0.3600E+02  0.3600E+02
    -37.065  0.0000E+00  0.0000E+00  0.3600E+02  0.3600E+02
    -36.800  0.0000E+00  0.0000E+00  0.3600E+02  0.3600E+02
    -36.535  0.0000E+00  0.0000E+00  0.3600E+02  0.3600E+02
    -36.270  0.0000E+00  0.0000E+00  0.3600E+02  0.3600E+02
    -36.005  0.0000E+00  0.0000E+00  0.3600E+02  0.3600E+02
    -35.741  0.0000E+00  0.0000E+00  0.3600E+02  0.3600E+02
    -35.476  0.0000E+00  0.0000E+00  0.3600E+02  0.3600E+02
    -35.211  0.0000E+00  0.0000E+00  0.3600E+02  0.3600E+02
    -34.946  0.0000E+00  0.0000E+00  0.3600E+02  0.3600E+02
    -34.681  0.0000E+00  0.0000E+00  0.3600E+02  0.3600E+02
    -34.416  0.0000E+00  0.0000E+00  0.3600E+02  0.3600E+02
    -34.151  0.0000E+00  0.0000E+00  0.3600E+02  0.3600E+02
    -33.886  0.0000E+00  0.0000E+00  0.3600E+02  0.3600E+02
    -33.621  0.0000E+00  0.0000E+00  0.3600E+02  0.3600E+02
    -33.356  0.0000E+00  0.0000E+00  0.3600E+02  0.3600E+02
    -33.091  0.0000E+00  0.0000E+00  0.3600E+02  0.3600E+02
    -32.826  0.0000E+00  0.0000E+00  0.3600E+02  0.3600E+02
    -32.561  0.0000E+00  0.0000E+00  0.3600E+02  0.3600E+02
    -32.296  0.0000E+00  0.0000E+00  0.3600E+02  0.3600E+02
    -32.031  0.0000E+00  0.0000E+00  0.3600E+02  0.3600E+02
    -31.766  0.0000E+00  0.0000E+00  0.3600E+02  0.3600E+02
    -31.501  0.0000E+00  0.0000E+00  0.3600E+02  0.3600E+02
    -31.236  0.0000E+00  0.0000E+00  0.3600E+02  0.3600E+02
    -30.971  0.0000E+00  0.0000E+00  0.3600E+02  0.3600E+02
    -30.706  0.0000E+00  0.0000E+00  0.3600E+02  0.3600E+02
    -30.442  0.0000E+00  0.0000E+00  0.3600E+02  0.3600E+02
    -30.177  0.0000E+00  0.0000E+00  0.3600E+02  0.3600E+02
    -29.912  0.0000E+00  0.0000E+00  0.3600E+02  0.3600E+02
    -29.647  0.0000E+00  0.0000E+00  0.3600E+02  0.3600E+02
    -29.382  0.0000E+00  0.0000E+00  0.3600E+02  0.3600E+02
    -29.117  0.0000E+00  0.0000E+00  0.3600E+02  0.3600E+02
    -28.852  0.0000E+00  0.0000E+00  0.3600E+02  0.3600E+02
    -28.587  0.0000E+00  0.0000E+00  0.3600E+02  0.3600E+02
    -28.322  0.0000E+00  0.0000E+00  0.3600E+02  0.3600E+02
    -28.057  0.0000E+00  0.0000E+00  0.3600E+02  0.3600E+02
    -27.792  0.0000E+00  0.0000E+00  0.3600E+02  0.3600E+02
    -27.527  0.0000E+00  0.0000E+00  0.3600E+02  0.3600E+02
    -27.262  0.0000E+00  0.0000E+00  0.3600E+02  0.3600E+02
    -26.997  0.0000E+00  0.0000E+00  0.3600E+02  0.3600E+02
    -26.732  0.0000E+00  0.0000E+00  0.3600E+02  0.3600E+02
    -26.467  0.0000E+00  0.0000E+00  0.3600E+02  0.3600E+02
    -26.202  0.0000E+00  0.0000E+00  0.3600E+02  0.3600E+02
    -25.937  0.0000E+00  0.0000E+00  0.3600E+02  0.3600E+02
    -25.672  0.0000E+00  0.0000E+00  0.3600E+02  0.3600E+02
    -25.408  0.0000E+00  0.0000E+00  0.3600E+02  0.3600E+02
    -25.143  0.0000E+00  0.0000E+00  0.3600E+02  0.3600E+02
    -24.878  0.0000E+00  0.0000E+00  0.3600E+02  0.3600E+02
    -24.613  0.0000E+00  0.0000E+00  0.3600E+02  0.3600E+02
    -24.348  0.0000E+00  0.0000E+00  0.3600E+02  0.3600E+02
    -24.083  0.0000E+00  0.0000E+00  0.3600E+02  0.3600E+02
    -23.818  0.0000E+00  0.0000E+00  0.3600E+02  0.3600E+02
    -23.553  0.0000E+00  0.0000E+00  0.3600E+02  0.3600E+02
    -23.288  0.0000E+00  0.0000E+00  0.3600E+02  0.3600E+02
    -23.023  0.0000E+00  0.0000E+00  0.3600E+02  0.3600E+02
    -22.758  0.0000E+00  0.0000E+00  0.3600E+02  0.3600E+02
    -22.493  0.0000E+00  0.0000E+00  0.3600E+02  0.3600E+02
    -22.228  0.0000E+00  0.0000E+00  0.3600E+02  0.3600E+02
    -21.963  0.0000E+00  0.0000E+00  0.3600E+02  0.3600E+02
    -21.698  0.0000E+00  0.0000E+00  0.3600E+02  0.3600E+02
    -21.433  0.0000E+00  0.0000E+00  0.3600E+02  0.3600E+02
    -21.168  0.0000E+00  0.0000E+00  0.3600E+02  0.3600E+02
    -20.903  0.0000E+00  0.0000E+00  0.3600E+02  0.3600E+02
    -20.638  0.0000E+00  0.0000E+00  0.3600E+02  0.3600E+02
    -20.373  0.0000E+00  0.0000E+00  0.3600E+02  0.3600E+02
    -20.109  0.0000E+00  0.0000E+00  0.3600E+02  0.3600E+02
    -19.844  0.0000E+00  0.0000E+00  0.3600E+02  0.3600E+02
    -19.579  0.0000E+00  0.0000E+00  0.3600E+02  0.3600E+02
    -19.314  0.0000E+00  0.0000E+00  0.3600E+02  0.3600E+02
    -19.049  0.0000E+00  0.0000E+00  0.3600E+02  0.3600E+02
    -18.784  0.0000E+00  0.0000E+00  0.3600E+02  0.3600E+02
    -18.519  0.0000E+00  0.0000E+00  0.3600E+02  0.3600E+02
    -18.254  0.0000E+00  0.0000E+00  0.3600E+02  0.3600E+02
    -17.989  0.0000E+00  0.0000E+00  0.3600E+02  0.3600E+02
    -17.724  0.0000E+00  0.0000E+00  0.3600E+02  0.3600E+02
    -17.459  0.0000E+00  0.0000E+00  0.3600E+02  0.3600E+02
    -17.194  0.0000E+00  0.0000E+00  0.3600E+02  0.3600E+02
    -16.929  0.0000E+00  0.0000E+00  0.3600E+02  0.3600E+02
    -16.664  0.0000E+00  0.0000E+00  0.3600E+02  0.3600E+02
    -16.399  0.0000E+00  0.0000E+00  0.3600E+02  0.3600E+02
    -16.134  0.0000E+00  0.0000E+00  0.3600E+02  0.3600E+02
    -15.869  0.0000E+00  0.0000E+00  0.3600E+02  0.3600E+02
    -15.604  0.0000E+00  0.0000E+00  0.3600E+02  0.3600E+02
    -15.339  0.0000E+00  0.0000E+00  0.3600E+02  0.3600E+02
    -15.075  0.0000E+00  0.0000E+00  0.3600E+02  0.3600E+02
    -14.810  0.0000E+00  0.0000E+00  0.3600E+02  0.3600E+02
    -14.545  0.0000E+00  0.0000E+00  0.3600E+02  0.3600E+02
    -14.280  0.0000E+00  0.0000E+00  0.3600E+02  0.3600E+02
    -14.015  0.0000E+00  0.0000E+00  0.3600E+02  0.3600E+02
    -13.750  0.0000E+00  0.0000E+00  0.3600E+02  0.3600E+02
    -13.485  0.0000E+00  0.0000E+00  0.3600E+02  0.3600E+02
    -13.220  0.0000E+00  0.0000E+00  0.3600E+02  0.3600E+02
    -12.955  0.0000E+00  0.0000E+00  0.3600E+02  0.3600E+02
    -12.690  0.0000E+00  0.0000E+00  0.3600E+02  0.3600E+02
    -12.425  0.0000E+00  0.0000E+00  0.3600E+02  0.3600E+02
    -12.160  0.0000E+00  0.0000E+00  0.3600E+02  0.3600E+02
    -11.895  0.0000E+00  0.0000E+00  0.3600E+02  0.3600E+02
    -11.630  0.0000E+00  0.0000E+00  0.3600E+02  0.3600E+02
    -11.365  0.0000E+00  0.0000E+00  0.3600E+02  0.3600E+02
    -11.100  0.0000E+00  0.0000E+00  0.3600E+02  0.3600E+02
    -10.835  0.0000E+00  0.0000E+00  0.3600E+02  0.3600E+02
    -10.570  0.0000E+00  0.0000E+00  0.3600E+02  0.3600E+02
    -10.305  0.0000E+00  0.0000E+00  0.3600E+02  0.3600E+02
    -10.040  0.0000E+00  0.0000E+00  0.3600E+02  0.3600E+02
     -9.776  0.0000E+00  0.0000E+00  0.3600E+02  0.3600E+02
     -9.511  0.0000E+00  0.0000E+00  0.3600E+02  0.3600E+02
     -9.246  0.0000E+00  0.0000E+00  0.3600E+02  0.3600E+02
     -8.981  0.0000E+00  0.0000E+00  0.3600E+02  0.3600E+02
     -8.716  0.0000E+00  0.0000E+00  0.3600E+02  0.3600E+02
     -8.451  0.0000E+00  0.0000E+00  0.3600E+02  0.3600E+02
     -8.186  0.0000E+00  0.0000E+00  0.3600E+02  0.3600E+02
     -7.921  0.0000E+00  0.0000E+00  0.3600E+02  0.3600E+02
     -7.656  0.0000E+00  0.0000E+00  0.3600E+02  0.3600E+02
     -7.391  0.0000E+00  0.0000E+00  0.3600E+02  0.3600E+02
     -7.126  0.0000E+00  0.0000E+00  0.3600E+02  0.3600E+02
     -6.861  0.0000E+00  0.0000E+00  0.3600E+02  0.3600E+02
     -6.596  0.0000E+00  0.0000E+00  0.3600E+02  0.3600E+02
     -6.331  0.0000E+00  0.0000E+00  0.3600E+02  0.3600E+02
     -6.066  0.0000E+00  0.0000E+00  0.3600E+02  0.3600E+02
     -5.801  0.0000E+00  0.0000E+00  0.3600E+02  0.3600E+02
     -5.536  0.0000E+00  0.0000E+00  0.3600E+02  0.3600E+02
     -5.271  0.0000E+00  0.0000E+00  0.3600E+02  0.3600E+02
     -5.006  0.0000E+00  0.0000E+00  0.3600E+02  0.3600E+02
     -4.741  0.0000E+00  0.0000E+00  0.3600E+02  0.3600E+02
     -4.477  0.0000E+00  0.0000E+00  0.3600E+02  0.3600E+02
     -4.212  0.0000E+00  0.0000E+00  0.3600E+02  0.3600E+02
     -3.947  0.0000E+00  0.0000E+00  0.3600E+02  0.3600E+02
     -3.682  0.0000E+00  0.6086E-07  0.3600E+02  0.3600E+02
     -3.417  0.1152E-04  0.1807E-04  0.3600E+02  0.3600E+02
     -3.152  0.2241E-02  0.3466E-02  0.3600E+02  0.3600E+02
     -2.887  0.1026E+00  0.1272E+00  0.3603E+02  0.3603E+02
     -2.622  0.5160E+00  0.5628E+00  0.3616E+02  0.3618E+02
     -2.357  0.7111E+00  0.7379E+00  0.3635E+02  0.3638E+02
     -2.092  0.1304E+01  0.1435E+01  0.3670E+02  0.3676E+02
     -1.827  0.1790E+01  0.1943E+01  0.3718E+02  0.3728E+02
     -1.562  0.2898E+01  0.2928E+01  0.3795E+02  0.3806E+02
     -1.297  0.2931E+01  0.2894E+01  0.3874E+02  0.3884E+02
     -1.032  0.2965E+01  0.2811E+01  0.3953E+02  0.3959E+02
     -0.767  0.1498E+01  0.1390E+01  0.3995E+02  0.3997E+02
     -0.502  0.1611E+00  0.9230E-01  0.4000E+02  0.4000E+02
     -0.237  0.0000E+00  0.0000E+00  0.4000E+02  0.4000E+02
      0.028  0.0000E+00  0.0000E+00  0.4000E+02  0.4000E+02
      0.293  0.0000E+00  0.0000E+00  0.4000E+02  0.4000E+02
      0.557  0.0000E+00  0.0000E+00  0.4000E+02  0.4000E+02
      0.822  0.0000E+00  0.0000E+00  0.4000E+02  0.4000E+02
      1.087  0.0000E+00  0.0000E+00  0.4000E+02  0.4000E+02
      1.352  0.0000E+00  0.0000E+00  0.4000E+02  0.4000E+02
      1.617  0.0000E+00  0.0000E+00  0.4000E+02  0.4000E+02
      1.882  0.0000E+00  0.0000E+00  0.4000E+02  0.4000E+02
      2.147  0.0000E+00  0.0000E+00  0.4000E+02  0.4000E+02
      2.412  0.3485E-06  0.0000E+00  0.4000E+02  0.4000E+02
      2.677  0.9108E-04  0.1986E-05  0.4000E+02  0.4000E+02
      2.942  0.1415E-01  0.4256E-03  0.4000E+02  0.4000E+02
      3.207  0.3311E+00  0.3311E-01  0.4009E+02  0.4001E+02
      3.472  0.2662E+01  0.3931E+00  0.4080E+02  0.4011E+02
      3.737  0.3711E+01  0.2300E+01  0.4178E+02  0.4072E+02
      4.002  0.4538E+01  0.3187E+01  0.4300E+02  0.4157E+02
      4.267  0.4386E+01  0.3549E+01  0.4417E+02  0.4252E+02
      4.532  0.3849E+01  0.4477E+01  0.4520E+02  0.4371E+02
      4.797  0.2762E+01  0.3328E+01  0.4594E+02  0.4461E+02
      5.062  0.4339E+01  0.3150E+01  0.4710E+02  0.4546E+02
      5.327  0.4719E+01  0.2523E+01  0.4836E+02  0.4614E+02
      5.592  0.5645E+01  0.3714E+01  0.4987E+02  0.4713E+02
      5.856  0.6800E+01  0.4032E+01  0.5169E+02  0.4821E+02
      6.121  0.1668E+01  0.5905E+01  0.5215E+02  0.4979E+02
      6.386  0.2891E+01  0.6376E+01  0.5292E+02  0.5150E+02
      6.651  0.7350E+01  0.1852E+01  0.5488E+02  0.5201E+02
      6.916  0.1072E+02  0.3683E+00  0.5774E+02  0.5211E+02
      7.181  0.1126E+02  0.9883E+00  0.6076E+02  0.5237E+02
      7.446  0.1254E+02  0.2709E+01  0.6412E+02  0.5309E+02
      7.711  0.1087E+02  0.5458E+01  0.6705E+02  0.5455E+02
      7.976  0.9598E+01  0.5905E+01  0.6963E+02  0.5613E+02
      8.241  0.1400E+02  0.8489E+01  0.7337E+02  0.5839E+02
      8.506  0.1169E+02  0.8759E+01  0.7651E+02  0.6075E+02
      8.771  0.1105E+02  0.1079E+02  0.7948E+02  0.6363E+02
      9.036  0.9207E+01  0.1037E+02  0.8195E+02  0.6642E+02
      9.301  0.1158E+02  0.6102E+01  0.8505E+02  0.6807E+02
      9.566  0.1307E+02  0.5583E+01  0.8855E+02  0.6957E+02
      9.831  0.1391E+02  0.1236E+02  0.9229E+02  0.7285E+02
     10.096  0.1568E+02  0.1019E+02  0.9648E+02  0.7559E+02
     10.361  0.1435E+02  0.1032E+02  0.1003E+03  0.7836E+02
     10.626  0.7264E+01  0.7034E+01  0.1023E+03  0.8025E+02
     10.890  0.5163E+01  0.7398E+01  0.1037E+03  0.8223E+02
     11.155  0.3392E+01  0.9709E+01  0.1046E+03  0.8481E+02
     11.420  0.3066E+01  0.1038E+02  0.1054E+03  0.8760E+02
     11.685  0.3340E+01  0.1184E+02  0.1063E+03  0.9077E+02
     11.950  0.3259E+01  0.1306E+02  0.1072E+03  0.9427E+02
     12.215  0.2843E+01  0.1407E+02  0.1080E+03  0.9805E+02
     12.480  0.3219E+01  0.1350E+02  0.1088E+03  0.1017E+03
     12.745  0.2833E+01  0.7752E+01  0.1096E+03  0.1038E+03
     13.010  0.2591E+01  0.5222E+01  0.1103E+03  0.1052E+03
     13.275  0.3012E+01  0.4991E+01  0.1111E+03  0.1065E+03
     13.540  0.3075E+01  0.3746E+01  0.1119E+03  0.1075E+03
     13.805  0.9792E+00  0.4134E+01  0.1122E+03  0.1086E+03
     14.070  0.9662E+00  0.3712E+01  0.1124E+03  0.1096E+03
     14.335  0.1840E+01  0.3011E+01  0.1129E+03  0.1105E+03
     14.600  0.2151E+01  0.3894E+01  0.1135E+03  0.1115E+03
     14.865  0.2191E+01  0.2254E+01  0.1141E+03  0.1121E+03
     15.130  0.1734E+01  0.1110E+01  0.1146E+03  0.1124E+03
     15.395  0.2022E+01  0.2082E+01  0.1151E+03  0.1130E+03
     15.660  0.2971E+01  0.2854E+01  0.1159E+03  0.1137E+03
     15.925  0.2404E+01  0.2508E+01  0.1165E+03  0.1144E+03
     16.189  0.2219E+01  0.2570E+01  0.1171E+03  0.1151E+03
     16.454  0.2193E+01  0.3191E+01  0.1177E+03  0.1159E+03
     16.719  0.1414E+01  0.2446E+01  0.1181E+03  0.1166E+03
     16.984  0.9248E+00  0.2769E+01  0.1184E+03  0.1173E+03
     17.249  0.1597E+01  0.2310E+01  0.1188E+03  0.1179E+03
     17.514  0.1289E+01  0.1002E+01  0.1191E+03  0.1182E+03
     17.779  0.1540E+01  0.1097E+01  0.1196E+03  0.1185E+03
     18.044  0.1022E+01  0.1732E+01  0.1198E+03  0.1190E+03
     18.309  0.1335E+01  0.1125E+01  0.1202E+03  0.1193E+03
     18.574  0.1967E+01  0.1505E+01  0.1207E+03  0.1197E+03
     18.839  0.2383E+01  0.1289E+01  0.1213E+03  0.1200E+03
     19.104  0.2299E+01  0.1751E+01  0.1220E+03  0.1205E+03
     19.369  0.1369E+01  0.2420E+01  0.1223E+03  0.1211E+03
     19.634  0.2712E+01  0.2411E+01  0.1231E+03  0.1218E+03
     19.899  0.3317E+01  0.1566E+01  0.1240E+03  0.1222E+03
     20.164  0.2433E+01  0.2108E+01  0.1246E+03  0.1228E+03
     20.429  0.1801E+01  0.3047E+01  0.1251E+03  0.1236E+03
     20.694  0.1621E+01  0.3123E+01  0.1255E+03  0.1244E+03
     20.959  0.2492E+01  0.2267E+01  0.1262E+03  0.1250E+03
     21.223  0.2854E+01  0.1189E+01  0.1270E+03  0.1253E+03
     21.488  0.2819E+01  0.2467E+01  0.1277E+03  0.1260E+03
     21.753  0.2009E+01  0.2835E+01  0.1283E+03  0.1268E+03
     22.018  0.1845E+01  0.3116E+01  0.1288E+03  0.1276E+03
     22.283  0.2848E+01  0.2402E+01  0.1295E+03  0.1282E+03
     22.548  0.3382E+01  0.1963E+01  0.1304E+03  0.1288E+03
     22.813  0.3142E+01  0.2838E+01  0.1313E+03  0.1295E+03
     23.078  0.2643E+01  0.3519E+01  0.1320E+03  0.1305E+03
     23.343  0.2080E+01  0.3483E+01  0.1325E+03  0.1314E+03
     23.608  0.2888E+01  0.2462E+01  0.1333E+03  0.1321E+03
     23.873  0.2600E+01  0.2642E+01  0.1340E+03  0.1328E+03
     24.138  0.2805E+01  0.2546E+01  0.1348E+03  0.1334E+03
     24.403  0.3074E+01  0.3013E+01  0.1356E+03  0.1342E+03
     24.668  0.2393E+01  0.3176E+01  0.1362E+03  0.1351E+03
     24.933  0.2809E+01  0.2785E+01  0.1370E+03  0.1358E+03
     25.198  0.2509E+01  0.2560E+01  0.1377E+03  0.1365E+03
     25.463  0.3090E+01  0.2748E+01  0.1385E+03  0.1373E+03
     25.728  0.3181E+01  0.2595E+01  0.1393E+03  0.1380E+03
     25.993  0.2380E+01  0.3107E+01  0.1400E+03  0.1388E+03
     26.258  0.2566E+01  0.2813E+01  0.1407E+03  0.1395E+03
     26.522  0.2057E+01  0.2682E+01  0.1412E+03  0.1403E+03
     26.787  0.2947E+01  0.2348E+01  0.1420E+03  0.1409E+03
     27.052  0.2904E+01  0.2348E+01  0.1428E+03  0.1415E+03
     27.317  0.2315E+01  0.3249E+01  0.1434E+03  0.1424E+03
     27.582  0.1479E+01  0.2516E+01  0.1438E+03  0.1431E+03
     27.847  0.4958E+00  0.2288E+01  0.1439E+03  0.1437E+03
     28.112  0.2147E+00  0.7382E+00  0.1440E+03  0.1439E+03
     28.377  0.1074E-01  0.3370E+00  0.1440E+03  0.1440E+03
     28.642  0.0000E+00  0.6661E-01  0.1440E+03  0.1440E+03
     28.907  0.0000E+00  0.0000E+00  0.1440E+03  0.1440E+03
     29.172  0.0000E+00  0.0000E+00  0.1440E+03  0.1440E+03
     29.437  0.0000E+00  0.0000E+00  0.1440E+03  0.1440E+03
     29.702  0.0000E+00  0.0000E+00  0.1440E+03  0.1440E+03
     29.967  0.0000E+00  0.0000E+00  0.1440E+03  0.1440E+03
     30.232  0.0000E+00  0.0000E+00  0.1440E+03  0.1440E+03
     30.497  0.0000E+00  0.0000E+00  0.1440E+03  0.1440E+03
     30.762  0.0000E+00  0.0000E+00  0.1440E+03  0.1440E+03
     31.027  0.0000E+00  0.0000E+00  0.1440E+03  0.1440E+03
     31.292  0.0000E+00  0.0000E+00  0.1440E+03  0.1440E+03
     31.557  0.0000E+00  0.0000E+00  0.1440E+03  0.1440E+03
     31.821  0.0000E+00  0.0000E+00  0.1440E+03  0.1440E+03
     32.086  0.0000E+00  0.0000E+00  0.1440E+03  0.1440E+03
     32.08640215    -47.39827318  301     10.75159383      1.00000000
    -47.398  0.0000E+00  0.0000E+00  0.0000E+00  0.0000E+00  0.0000E+00  0.0000E+00  0.0000E+00  0.0000E+00  0.0000E+00  0.0000E+00  0.0000E+00  0.0000E+00  0.0000E+00  0.0000E+00  0.0000E+00  0.0000E+00  0.0000E+00  0.0000E+00
    -47.133  0.0000E+00  0.0000E+00  0.0000E+00  0.0000E+00  0.0000E+00  0.0000E+00  0.0000E+00  0.0000E+00  0.0000E+00  0.0000E+00  0.0000E+00  0.0000E+00  0.0000E+00  0.0000E+00  0.0000E+00  0.0000E+00  0.0000E+00  0.0000E+00
    -46.868  0.0000E+00  0.0000E+00  0.0000E+00  0.0000E+00  0.0000E+00  0.0000E+00  0.0000E+00  0.0000E+00  0.0000E+00  0.0000E+00  0.0000E+00  0.0000E+00  0.0000E+00  0.0000E+00  0.0000E+00  0.0000E+00  0.0000E+00  0.0000E+00
    -46.603  0.0000E+00  0.0000E+00  0.0000E+00  0.0000E+00  0.0000E+00  0.0000E+00  0.0000E+00  0.0000E+00  0.0000E+00  0.0000E+00  0.0000E+00  0.0000E+00  0.0000E+00  0.0000E+00  0.0000E+00  0.0000E+00  0.0000E+00  0.0000E+00
    -46.338  0.0000E+00  0.0000E+00  0.0000E+00  0.0000E+00  0.0000E+00  0.0000E+00  0.0000E+00  0.0000E+00  0.0000E+00  0.0000E+00  0.0000E+00  0.0000E+00  0.0000E+00  0.0000E+00  0.0000E+00  0.0000E+00  0.0000E+00  0.0000E+00
    -46.074  0.0000E+00  0.0000E+00  0.0000E+00  0.0000E+00  0.0000E+00  0.0000E+00  0.0000E+00  0.0000E+00  0.0000E+00  0.0000E+00  0.0000E+00  0.0000E+00  0.0000E+00  0.0000E+00  0.0000E+00  0.0000E+00  0.0000E+00  0.0000E+00
    -45.809  0.0000E+00  0.0000E+00  0.0000E+00  0.0000E+00  0.0000E+00  0.0000E+00  0.0000E+00  0.0000E+00  0.0000E+00  0.0000E+00  0.0000E+00  0.0000E+00  0.0000E+00  0.0000E+00  0.0000E+00  0.0000E+00  0.0000E+00  0.0000E+00
    -45.544  0.0000E+00  0.0000E+00  0.0000E+00  0.0000E+00  0.0000E+00  0.0000E+00  0.0000E+00  0.0000E+00  0.0000E+00  0.0000E+00  0.0000E+00  0.0000E+00  0.0000E+00  0.0000E+00  0.0000E+00  0.0000E+00  0.0000E+00  0.0000E+00
    -45.279  0.0000E+00  0.0000E+00  0.0000E+00  0.0000E+00  0.0000E+00  0.0000E+00  0.0000E+00  0.0000E+00  0.0000E+00  0.0000E+00  0.0000E+00  0.0000E+00  0.0000E+00  0.0000E+00  0.0000E+00  0.0000E+00  0.0000E+00  0.0000E+00
    -45.014  0.0000E+00  0.0000E+00  0.0000E+00  0.0000E+00  0.0000E+00  0.0000E+00  0.0000E+00  0.0000E+00  0.0000E+00  0.0000E+00  0.0000E+00  0.0000E+00  0.0000E+00  0.0000E+00  0.0000E+00  0.0000E+00  0.0000E+00  0.0000E+00
    -44.749  0.0000E+00  0.0000E+00  0.0000E+00  0.0000E+00  0.0000E+00  0.0000E+00  0.0000E+00  0.0000E+00  0.0000E+00  0.0000E+00  0.0000E+00  0.0000E+00  0.0000E+00  0.0000E+00  0.0000E+00  0.0000E+00  0.0000E+00  0.0000E+00
    -44.484  0.0000E+00  0.0000E+00  0.0000E+00  0.0000E+00  0.0000E+00  0.0000E+00  0.0000E+00  0.0000E+00  0.0000E+00  0.0000E+00  0.0000E+00  0.0000E+00  0.0000E+00  0.0000E+00  0.0000E+00  0.0000E+00  0.0000E+00  0.0000E+00
    -44.219  0.2524E-08  0.0000E+00  0.8625E-04  0.0000E+00  0.2247E-05  0.0000E+00  0.9787E-04  0.0000E+00  0.5279E-09  0.0000E+00  0.4426E-09  0.0000E+00  0.4866E-09  0.0000E+00  0.4359E-09  0.0000E+00  0.1554E-08  0.0000E+00
    -43.954  0.5089E-06  0.0000E+00  0.1717E-01  0.0000E+00  0.5261E-03  0.0000E+00  0.1941E-01  0.0000E+00  0.1071E-06  0.0000E+00  0.9153E-07  0.0000E+00  0.9955E-07  0.0000E+00  0.8882E-07  0.0000E+00  0.3077E-06  0.0000E+00
    -43.689  0.4248E-04  0.0000E+00  0.1056E+01  0.0000E+00  0.7185E-01  0.0000E+00  0.1305E+01  0.0000E+00  0.9122E-05  0.0000E+00  0.1115E-04  0.0000E+00  0.8801E-05  0.0000E+00  0.9869E-05  0.0000E+00  0.2049E-04  0.0000E+00
    -43.424  0.1301E-03  0.0000E+00  0.2355E+01  0.0000E+00  0.1110E+01  0.0000E+00  0.2185E+01  0.0000E+00  0.3524E-04  0.0000E+00  0.7309E-04  0.0000E+00  0.5048E-04  0.0000E+00  0.4633E-04  0.0000E+00  0.4989E-04  0.0000E+00
    -43.159  0.4736E-04  0.0000E+00  0.2942E+00  0.0000E+00  0.2459E+01  0.0000E+00  0.2117E+00  0.0000E+00  0.2014E-04  0.0000E+00  0.4007E-04  0.0000E+00  0.3244E-04  0.0000E+00  0.3123E-04  0.0000E+00  0.1384E-04  0.0000E+00
    -42.894  0.7230E-07  0.0000E+00  0.6818E-04  0.0000E+00  0.3072E-01  0.0000E+00  0.8255E-04  0.0000E+00  0.1188E-06  0.0000E+00  0.3725E-06  0.0000E+00  0.7427E-07  0.0000E+00  0.2422E-06  0.0000E+00  0.2326E-07  0.0000E+00
    -42.629  0.0000E+00  0.0000E+00  0.0000E+00  0.0000E+00  0.0000E+00  0.0000E+00  0.0000E+00  0.0000E+00  0.0000E+00  0.0000E+00  0.0000E+00  0.0000E+00  0.0000E+00  0.0000E+00  0.0000E+00  0.0000E+00  0.0000E+00  0.0000E+00
    -42.364  0.0000E+00  0.0000E+00  0.0000E+00  0.0000E+00  0.0000E+00  0.0000E+00  0.0000E+00  0.0000E+00  0.0000E+00  0.0000E+00  0.0000E+00  0.0000E+00  0.0000E+00  0.0000E+00  0.0000E+00  0.0000E+00  0.0000E+00  0.0000E+00
    -42.099  0.0000E+00  0.3298E-08  0.0000E+00  0.6511E-04  0.0000E+00  0.1322E-05  0.0000E+00  0.7180E-04  0.0000E+00  0.6803E-09  0.0000E+00  0.5438E-09  0.0000E+00  0.7545E-09  0.0000E+00  0.8943E-09  0.0000E+00  0.1730E-08
    -41.834  0.0000E+00  0.6552E-06  0.0000E+00  0.1278E-01  0.0000E+00  0.2793E-03  0.0000E+00  0.1411E-01  0.0000E+00  0.1354E-06  0.0000E+00  0.1107E-06  0.0000E+00  0.1499E-06  0.0000E+00  0.1785E-06  0.0000E+00  0.3400E-06
    -41.569  0.0000E+00  0.4853E-04  0.0000E+00  0.7907E+00  0.0000E+00  0.3041E-01  0.0000E+00  0.9138E+00  0.0000E+00  0.1127E-04  0.0000E+00  0.1175E-04  0.0000E+00  0.1050E-04  0.0000E+00  0.1479E-04  0.0000E+00  0.2167E-04
    -41.304  0.0000E+00  0.1252E-03  0.0000E+00  0.1230E+01  0.0000E+00  0.2902E+00  0.0000E+00  0.1390E+01  0.0000E+00  0.2628E-04  0.0000E+00  0.7363E-04  0.0000E+00  0.4410E-04  0.0000E+00  0.4134E-04  0.0000E+00  0.4554E-04
    -41.039  0.0000E+00  0.8499E-04  0.0000E+00  0.1581E+01  0.0000E+00  0.2314E+01  0.0000E+00  0.1312E+01  0.0000E+00  0.3406E-04  0.0000E+00  0.5414E-04  0.0000E+00  0.4751E-04  0.0000E+00  0.3996E-04  0.0000E+00  0.2837E-04
    -40.775  0.0000E+00  0.7582E-05  0.0000E+00  0.8995E-01  0.0000E+00  0.1099E+01  0.0000E+00  0.7799E-01  0.0000E+00  0.5342E-05  0.0000E+00  0.6455E-05  0.0000E+00  0.6226E-05  0.0000E+00  0.7571E-05  0.0000E+00  0.3443E-05
    -40.510  0.0000E+00  0.0000E+00  0.0000E+00  0.0000E+00  0.0000E+00  0.0000E+00  0.0000E+00  0.0000E+00  0.0000E+00  0.0000E+00  0.0000E+00  0.0000E+00  0.0000E+00  0.0000E+00  0.0000E+00  0.0000E+00  0.0000E+00  0.0000E+00
    -40.245  0.0000E+00  0.0000E+00  0.0000E+00  0.0000E+00  0.0000E+00  0.0000E+00  0.0000E+00  0.0000E+00  0.0000E+00  0.0000E+00  0.0000E+00  0.0000E+00  0.0000E+00  0.0000E+00  0.0000E+00  0.0000E+00  0.0000E+00  0.0000E+00
    -39.980  0.0000E+00  0.0000E+00  0.0000E+00  0.0000E+00  0.0000E+00  0.0000E+00  0.0000E+00  0.0000E+00  0.0000E+00  0.0000E+00  0.0000E+00  0.0000E+00  0.0000E+00  0.0000E+00  0.0000E+00  0.0000E+00  0.0000E+00  0.0000E+00
    -39.715  0.0000E+00  0.0000E+00  0.0000E+00  0.0000E+00  0.0000E+00  0.0000E+00  0.0000E+00  0.0000E+00  0.0000E+00  0.0000E+00  0.0000E+00  0.0000E+00  0.0000E+00  0.0000E+00  0.0000E+00  0.0000E+00  0.0000E+00  0.0000E+00
    -39.450  0.0000E+00  0.0000E+00  0.0000E+00  0.0000E+00  0.0000E+00  0.0000E+00  0.0000E+00  0.0000E+00  0.0000E+00  0.0000E+00  0.0000E+00  0.0000E+00  0.0000E+00  0.0000E+00  0.0000E+00  0.0000E+00  0.0000E+00  0.0000E+00
    -39.185  0.0000E+00  0.0000E+00  0.0000E+00  0.0000E+00  0.0000E+00  0.0000E+00  0.0000E+00  0.0000E+00  0.0000E+00  0.0000E+00  0.0000E+00  0.0000E+00  0.0000E+00  0.0000E+00  0.0000E+00  0.0000E+00  0.0000E+00  0.0000E+00
    -38.920  0.0000E+00  0.0000E+00  0.0000E+00  0.0000E+00  0.0000E+00  0.0000E+00  0.0000E+00  0.0000E+00  0.0000E+00  0.0000E+00  0.0000E+00  0.0000E+00  0.0000E+00  0.0000E+00  0.0000E+00  0.0000E+00  0.0000E+00  0.0000E+00
    -38.655  0.0000E+00  0.0000E+00  0.0000E+00  0.0000E+00  0.0000E+00  0.0000E+00  0.0000E+00  0.0000E+00  0.0000E+00  0.0000E+00  0.0000E+00  0.0000E+00  0.0000E+00  0.0000E+00  0.0000E+00  0.0000E+00  0.0000E+00  0.0000E+00
    -38.390  0.0000E+00  0.0000E+00  0.0000E+00  0.0000E+00  0.0000E+00  0.0000E+00  0.0000E+00  0.0000E+00  0.0000E+00  0.0000E+00  0.0000E+00  0.0000E+00  0.0000E+00  0.0000E+00  0.0000E+00  0.0000E+00  0.0000E+00  0.0000E+00
    -38.125  0.0000E+00  0.0000E+00  0.0000E+00  0.0000E+00  0.0000E+00  0.0000E+00  0.0000E+00  0.0000E+00  0.0000E+00  0.0000E+00  0.0000E+00  0.0000E+00  0.0000E+00  0.0000E+00  0.0000E+00  0.0000E+00  0.0000E+00  0.0000E+00
    -37.860  0.0000E+00  0.0000E+00  0.0000E+00  0.0000E+00  0.0000E+00  0.0000E+00  0.0000E+00  0.0000E+00  0.0000E+00  0.0000E+00  0.0000E+00  0.0000E+00  0.0000E+00  0.0000E+00  0.0000E+00  0.0000E+00  0.0000E+00  0.0000E+00
    -37.595  0.0000E+00  0.0000E+00  0.0000E+00  0.0000E+00  0.0000E+00  0.0000E+00  0.0000E+00  0.0000E+00  0.0000E+00  0.0000E+00  0.0000E+00  0.0000E+00  0.0000E+00  0.0000E+00  0.0000E+00  0.0000E+00  0.0000E+00  0.0000E+00
    -37.330  0.0000E+00  0.0000E+00  0.0000E+00  0.0000E+00  0.0000E+00  0.0000E+00  0.0000E+00  0.0000E+00  0.0000E+00  0.0000E+00  0.0000E+00  0.0000E+00  0.0000E+00  0.0000E+00  0.0000E+00  0.0000E+00  0.0000E+00  0.0000E+00
    -37.065  0.0000E+00  0.0000E+00  0.0000E+00  0.0000E+00  0.0000E+00  0.0000E+00  0.0000E+00  0.0000E+00  0.0000E+00  0.0000E+00  0.0000E+00  0.0000E+00  0.0000E+00  0.0000E+00  0.0000E+00  0.0000E+00  0.0000E+00  0.0000E+00
    -36.800  0.0000E+00  0.0000E+00  0.0000E+00  0.0000E+00  0.0000E+00  0.0000E+00  0.0000E+00  0.0000E+00  0.0000E+00  0.0000E+00  0.0000E+00  0.0000E+00  0.0000E+00  0.0000E+00  0.0000E+00  0.0000E+00  0.0000E+00  0.0000E+00
    -36.535  0.0000E+00  0.0000E+00  0.0000E+00  0.0000E+00  0.0000E+00  0.0000E+00  0.0000E+00  0.0000E+00  0.0000E+00  0.0000E+00  0.0000E+00  0.0000E+00  0.0000E+00  0.0000E+00  0.0000E+00  0.0000E+00  0.0000E+00  0.0000E+00
    -36.270  0.0000E+00  0.0000E+00  0.0000E+00  0.0000E+00  0.0000E+00  0.0000E+00  0.0000E+00  0.0000E+00  0.0000E+00  0.0000E+00  0.0000E+00  0.0000E+00  0.0000E+00  0.0000E+00  0.0000E+00  0.0000E+00  0.0000E+00  0.0000E+00
    -36.005  0.0000E+00  0.0000E+00  0.0000E+00  0.0000E+00  0.0000E+00  0.0000E+00  0.0000E+00  0.0000E+00  0.0000E+00  0.0000E+00  0.0000E+00  0.0000E+00  0.0000E+00  0.0000E+00  0.0000E+00  0.0000E+00  0.0000E+00  0.0000E+00
    -35.741  0.0000E+00  0.0000E+00  0.0000E+00  0.0000E+00  0.0000E+00  0.0000E+00  0.0000E+00  0.0000E+00  0.0000E+00  0.0000E+00  0.0000E+00  0.0000E+00  0.0000E+00  0.0000E+00  0.0000E+00  0.0000E+00  0.0000E+00  0.0000E+00
    -35.476  0.0000E+00  0.0000E+00  0.0000E+00  0.0000E+00  0.0000E+00  0.0000E+00  0.0000E+00  0.0000E+00  0.0000E+00  0.0000E+00  0.0000E+00  0.0000E+00  0.0000E+00  0.0000E+00  0.0000E+00  0.0000E+00  0.0000E+00  0.0000E+00
    -35.211  0.0000E+00  0.0000E+00  0.0000E+00  0.0000E+00  0.0000E+00  0.0000E+00  0.0000E+00  0.0000E+00  0.0000E+00  0.0000E+00  0.0000E+00  0.0000E+00  0.0000E+00  0.0000E+00  0.0000E+00  0.0000E+00  0.0000E+00  0.0000E+00
    -34.946  0.0000E+00  0.0000E+00  0.0000E+00  0.0000E+00  0.0000E+00  0.0000E+00  0.0000E+00  0.0000E+00  0.0000E+00  0.0000E+00  0.0000E+00  0.0000E+00  0.0000E+00  0.0000E+00  0.0000E+00  0.0000E+00  0.0000E+00  0.0000E+00
    -34.681  0.0000E+00  0.0000E+00  0.0000E+00  0.0000E+00  0.0000E+00  0.0000E+00  0.0000E+00  0.0000E+00  0.0000E+00  0.0000E+00  0.0000E+00  0.0000E+00  0.0000E+00  0.0000E+00  0.0000E+00  0.0000E+00  0.0000E+00  0.0000E+00
    -34.416  0.0000E+00  0.0000E+00  0.0000E+00  0.0000E+00  0.0000E+00  0.0000E+00  0.0000E+00  0.0000E+00  0.0000E+00  0.0000E+00  0.0000E+00  0.0000E+00  0.0000E+00  0.0000E+00  0.0000E+00  0.0000E+00  0.0000E+00  0.0000E+00
    -34.151  0.0000E+00  0.0000E+00  0.0000E+00  0.0000E+00  0.0000E+00  0.0000E+00  0.0000E+00  0.0000E+00  0.0000E+00  0.0000E+00  0.0000E+00  0.0000E+00  0.0000E+00  0.0000E+00  0.0000E+00  0.0000E+00  0.0000E+00  0.0000E+00