  16  16   1   0
  0.1257229E+02  0.4912688E-09  0.5532142E-09  0.7401537E-09  0.5000000E-15
  1.000000000000000E-004
  CAR 
 unknown system                          
     25.13075890    -50.86633590  301      7.30480750      1.00000000
    -50.866  0.0000E+00  0.0000E+00  0.0000E+00  0.0000E+00
    -50.613  0.0000E+00  0.0000E+00  0.0000E+00  0.0000E+00
    -50.360  0.0000E+00  0.0000E+00  0.0000E+00  0.0000E+00
    -50.106  0.0000E+00  0.0000E+00  0.0000E+00  0.0000E+00
    -49.853  0.0000E+00  0.0000E+00  0.0000E+00  0.0000E+00
    -49.600  0.0000E+00  0.0000E+00  0.0000E+00  0.0000E+00
    -49.346  0.0000E+00  0.0000E+00  0.0000E+00  0.0000E+00
    -49.093  0.0000E+00  0.0000E+00  0.0000E+00  0.0000E+00
    -48.840  0.0000E+00  0.0000E+00  0.0000E+00  0.0000E+00
    -48.586  0.0000E+00  0.0000E+00  0.0000E+00  0.0000E+00
    -48.333  0.0000E+00  0.0000E+00  0.0000E+00  0.0000E+00
    -48.080  0.0000E+00  0.0000E+00  0.0000E+00  0.0000E+00
    -47.826  0.6396E-02  0.0000E+00  0.1620E-02  0.0000E+00
    -47.573  0.9926E+00  0.0000E+00  0.2531E+00  0.0000E+00
    -47.320  0.4880E+02  0.0000E+00  0.1262E+02  0.0000E+00
    -47.066  0.8673E+02  0.0000E+00  0.3459E+02  0.0000E+00
    -46.813  0.4301E+01  0.0000E+00  0.3599E+02  0.0000E+00
    -46.560  0.0000E+00  0.0000E+00  0.3600E+02  0.0000E+00
    -46.307  0.0000E+00  0.0000E+00  0.3600E+02  0.0000E+00
    -46.053  0.0000E+00  0.0000E+00  0.3600E+02  0.0000E+00
    -45.800  0.0000E+00  0.0000E+00  0.3600E+02  0.0000E+00
    -45.547  0.0000E+00  0.0000E+00  0.3600E+02  0.0000E+00
    -45.293  0.0000E+00  0.0000E+00  0.3600E+02  0.0000E+00
    -45.040  0.0000E+00  0.2907E-02  0.3600E+02  0.7365E-03
    -44.787  0.0000E+00  0.4576E+00  0.3600E+02  0.1167E+00
    -44.533  0.0000E+00  0.3008E+02  0.3600E+02  0.7736E+01
    -44.280  0.0000E+00  0.8376E+02  0.3600E+02  0.2895E+02
    -44.027  0.0000E+00  0.2613E+02  0.3600E+02  0.3591E+02
    -43.773  0.0000E+00  0.0000E+00  0.3600E+02  0.3600E+02
    -43.520  0.0000E+00  0.0000E+00  0.3600E+02  0.3600E+02
    -43.267  0.0000E+00  0.0000E+00  0.3600E+02  0.3600E+02
    -43.013  0.0000E+00  0.0000E+00  0.3600E+02  0.3600E+02
    -42.760  0.0000E+00  0.0000E+00  0.3600E+02  0.3600E+02
    -42.507  0.0000E+00  0.0000E+00  0.3600E+02  0.3600E+02
    -42.253  0.0000E+00  0.0000E+00  0.3600E+02  0.3600E+02
    -42.000  0.0000E+00  0.0000E+00  0.3600E+02  0.3600E+02
    -41.747  0.0000E+00  0.0000E+00  0.3600E+02  0.3600E+02
    -41.493  0.0000E+00  0.0000E+00  0.3600E+02  0.3600E+02
    -41.240  0.0000E+00  0.0000E+00  0.3600E+02  0.3600E+02
    -40.987  0.0000E+00  0.0000E+00  0.3600E+02  0.3600E+02
    -40.733  0.0000E+00  0.0000E+00  0.3600E+02  0.3600E+02
    -40.480  0.0000E+00  0.0000E+00  0.3600E+02  0.3600E+02
    -40.227  0.0000E+00  0.0000E+00  0.3600E+02  0.3600E+02
    -39.973  0.0000E+00  0.0000E+00  0.3600E+02  0.3600E+02
    -39.720  0.0000E+00  0.0000E+00  0.3600E+02  0.3600E+02
    -39.467  0.0000E+00  0.0000E+00  0.3600E+02  0.3600E+02
    -39.213  0.0000E+00  0.0000E+00  0.3600E+02  0.3600E+02
    -38.960  0.0000E+00  0.0000E+00  0.3600E+02  0.3600E+02
    -38.707  0.0000E+00  0.0000E+00  0.3600E+02  0.3600E+02
    -38.453  0.0000E+00  0.0000E+00  0.3600E+02  0.3600E+02
    -38.200  0.0000E+00  0.0000E+00  0.3600E+02  0.3600E+02
    -37.947  0.0000E+00  0.0000E+00  0.3600E+02  0.3600E+02
    -37.694  0.0000E+00  0.0000E+00  0.3600E+02  0.3600E+02
    -37.440  0.0000E+00  0.0000E+00  0.3600E+02  0.3600E+02
    -37.187  0.0000E+00  0.0000E+00  0.3600E+02  0.3600E+02
    -36.934  0.0000E+00  0.0000E+00  0.3600E+02  0.3600E+02
    -36.680  0.0000E+00  0.0000E+00  0.3600E+02  0.3600E+02
    -36.427  0.0000E+00  0.0000E+00  0.3600E+02  0.3600E+02
    -36.174  0.0000E+00  0.0000E+00  0.3600E+02  0.3600E+02
    -35.920  0.0000E+00  0.0000E+00  0.3600E+02  0.3600E+02
    -35.667  0.0000E+00  0.0000E+00  0.3600E+02  0.3600E+02
    -35.414  0.0000E+00  0.0000E+00  0.3600E+02  0.3600E+02
    -35.160  0.0000E+00  0.0000E+00  0.3600E+02  0.3600E+02
    -34.907  0.0000E+00  0.0000E+00  0.3600E+02  0.3600E+02
    -34.654  0.0000E+00  0.0000E+00  0.3600E+02  0.3600E+02
    -34.400  0.0000E+00  0.0000E+00  0.3600E+02  0.3600E+02
    -34.147  0.0000E+00  0.0000E+00  0.3600E+02  0.3600E+02
    -33.894  0.0000E+00  0.0000E+00  0.3600E+02  0.3600E+02
    -33.640  0.0000E+00  0.0000E+00  0.3600E+02  0.3600E+02
    -33.387  0.0000E+00  0.0000E+00  0.3600E+02  0.3600E+02
    -33.134  0.0000E+00  0.0000E+00  0.3600E+02  0.3600E+02
    -32.880  0.0000E+00  0.0000E+00  0.3600E+02  0.3600E+02
    -32.627  0.0000E+00  0.0000E+00  0.3600E+02  0.3600E+02
    -32.374  0.0000E+00  0.0000E+00  0.3600E+02  0.3600E+02
    -32.120  0.0000E+00  0.0000E+00  0.3600E+02  0.3600E+02
    -31.867  0.0000E+00  0.0000E+00  0.3600E+02  0.3600E+02
    -31.614  0.0000E+00  0.0000E+00  0.3600E+02  0.3600E+02
    -31.360  0.0000E+00  0.0000E+00  0.3600E+02  0.3600E+02
    -31.107  0.0000E+00  0.0000E+00  0.3600E+02  0.3600E+02
    -30.854  0.0000E+00  0.0000E+00  0.3600E+02  0.3600E+02
    -30.600  0.0000E+00  0.0000E+00  0.3600E+02  0.3600E+02
    -30.347  0.0000E+00  0.0000E+00  0.3600E+02  0.3600E+02
    -30.094  0.0000E+00  0.0000E+00  0.3600E+02  0.3600E+02
    -29.840  0.0000E+00  0.0000E+00  0.3600E+02  0.3600E+02
    -29.587  0.0000E+00  0.0000E+00  0.3600E+02  0.3600E+02
    -29.334  0.0000E+00  0.0000E+00  0.3600E+02  0.3600E+02
    -29.081  0.0000E+00  0.0000E+00  0.3600E+02  0.3600E+02
    -28.827  0.0000E+00  0.0000E+00  0.3600E+02  0.3600E+02
    -28.574  0.0000E+00  0.0000E+00  0.3600E+02  0.3600E+02
    -28.321  0.0000E+00  0.0000E+00  0.3600E+02  0.3600E+02
    -28.067  0.0000E+00  0.0000E+00  0.3600E+02  0.3600E+02
    -27.814  0.0000E+00  0.0000E+00  0.3600E+02  0.3600E+02
    -27.561  0.0000E+00  0.0000E+00  0.3600E+02  0.3600E+02
    -27.307  0.0000E+00  0.0000E+00  0.3600E+02  0.3600E+02
    -27.054  0.0000E+00  0.0000E+00  0.3600E+02  0.3600E+02
    -26.801  0.0000E+00  0.0000E+00  0.3600E+02  0.3600E+02
    -26.547  0.0000E+00  0.0000E+00  0.3600E+02  0.3600E+02
    -26.294  0.0000E+00  0.0000E+00  0.3600E+02  0.3600E+02
    -26.041  0.0000E+00  0.0000E+00  0.3600E+02  0.3600E+02
    -25.787  0.0000E+00  0.0000E+00  0.3600E+02  0.3600E+02
    -25.534  0.0000E+00  0.0000E+00  0.3600E+02  0.3600E+02
    -25.281  0.0000E+00  0.0000E+00  0.3600E+02  0.3600E+02
    -25.027  0.0000E+00  0.0000E+00  0.3600E+02  0.3600E+02
    -24.774  0.0000E+00  0.0000E+00  0.3600E+02  0.3600E+02
    -24.521  0.0000E+00  0.0000E+00  0.3600E+02  0.3600E+02
    -24.267  0.0000E+00  0.0000E+00  0.3600E+02  0.3600E+02
    -24.014  0.0000E+00  0.0000E+00  0.3600E+02  0.3600E+02
    -23.761  0.0000E+00  0.0000E+00  0.3600E+02  0.3600E+02
    -23.507  0.0000E+00  0.0000E+00  0.3600E+02  0.3600E+02
    -23.254  0.0000E+00  0.0000E+00  0.3600E+02  0.3600E+02
    -23.001  0.0000E+00  0.0000E+00  0.3600E+02  0.3600E+02
    -22.747  0.0000E+00  0.0000E+00  0.3600E+02  0.3600E+02
    -22.494  0.0000E+00  0.0000E+00  0.3600E+02  0.3600E+02
    -22.241  0.0000E+00  0.0000E+00  0.3600E+02  0.3600E+02
    -21.987  0.0000E+00  0.0000E+00  0.3600E+02  0.3600E+02
    -21.734  0.0000E+00  0.0000E+00  0.3600E+02  0.3600E+02
    -21.481  0.0000E+00  0.0000E+00  0.3600E+02  0.3600E+02
    -21.227  0.0000E+00  0.0000E+00  0.3600E+02  0.3600E+02
    -20.974  0.0000E+00  0.0000E+00  0.3600E+02  0.3600E+02
    -20.721  0.0000E+00  0.0000E+00  0.3600E+02  0.3600E+02
    -20.467  0.0000E+00  0.0000E+00  0.3600E+02  0.3600E+02
    -20.214  0.0000E+00  0.0000E+00  0.3600E+02  0.3600E+02
    -19.961  0.0000E+00  0.0000E+00  0.3600E+02  0.3600E+02
    -19.708  0.0000E+00  0.0000E+00  0.3600E+02  0.3600E+02
    -19.454  0.0000E+00  0.0000E+00  0.3600E+02  0.3600E+02
    -19.201  0.0000E+00  0.0000E+00  0.3600E+02  0.3600E+02
    -18.948  0.0000E+00  0.0000E+00  0.3600E+02  0.3600E+02
    -18.694  0.0000E+00  0.0000E+00  0.3600E+02  0.3600E+02
    -18.441  0.0000E+00  0.0000E+00  0.3600E+02  0.3600E+02
    -18.188  0.0000E+00  0.0000E+00  0.3600E+02  0.3600E+02
    -17.934  0.0000E+00  0.0000E+00  0.3600E+02  0.3600E+02
    -17.681  0.0000E+00  0.0000E+00  0.3600E+02  0.3600E+02
    -17.428  0.0000E+00  0.0000E+00  0.3600E+02  0.3600E+02
    -17.174  0.0000E+00  0.0000E+00  0.3600E+02  0.3600E+02
    -16.921  0.0000E+00  0.0000E+00  0.3600E+02  0.3600E+02
    -16.668  0.0000E+00  0.0000E+00  0.3600E+02  0.3600E+02
    -16.414  0.0000E+00  0.0000E+00  0.3600E+02  0.3600E+02
    -16.161  0.0000E+00  0.0000E+00  0.3600E+02  0.3600E+02
    -15.908  0.0000E+00  0.0000E+00  0.3600E+02  0.3600E+02
    -15.654  0.0000E+00  0.0000E+00  0.3600E+02  0.3600E+02
    -15.401  0.0000E+00  0.0000E+00  0.3600E+02  0.3600E+02
    -15.148  0.0000E+00  0.0000E+00  0.3600E+02  0.3600E+02
    -14.894  0.0000E+00  0.0000E+00  0.3600E+02  0.3600E+02
    -14.641  0.0000E+00  0.0000E+00  0.3600E+02  0.3600E+02
    -14.388  0.0000E+00  0.0000E+00  0.3600E+02  0.3600E+02
    -14.134  0.0000E+00  0.0000E+00  0.3600E+02  0.3600E+02
    -13.881  0.0000E+00  0.0000E+00  0.3600E+02  0.3600E+02
    -13.628  0.0000E+00  0.0000E+00  0.3600E+02  0.3600E+02
    -13.374  0.0000E+00  0.0000E+00  0.3600E+02  0.3600E+02
    -13.121  0.0000E+00  0.0000E+00  0.3600E+02  0.3600E+02
    -12.868  0.0000E+00  0.0000E+00  0.3600E+02  0.3600E+02
    -12.614  0.0000E+00  0.0000E+00  0.3600E+02  0.3600E+02
    -12.361  0.0000E+00  0.0000E+00  0.3600E+02  0.3600E+02
    -12.108  0.0000E+00  0.0000E+00  0.3600E+02  0.3600E+02
    -11.854  0.0000E+00  0.0000E+00  0.3600E+02  0.3600E+02
    -11.601  0.0000E+00  0.0000E+00  0.3600E+02  0.3600E+02
    -11.348  0.0000E+00  0.0000E+00  0.3600E+02  0.3600E+02
    -11.095  0.0000E+00  0.0000E+00  0.3600E+02  0.3600E+02
    -10.841  0.0000E+00  0.0000E+00  0.3600E+02  0.3600E+02
    -10.588  0.0000E+00  0.0000E+00  0.3600E+02  0.3600E+02
    -10.335  0.0000E+00  0.0000E+00  0.3600E+02  0.3600E+02
    -10.081  0.0000E+00  0.0000E+00  0.3600E+02  0.3600E+02
     -9.828  0.0000E+00  0.0000E+00  0.3600E+02  0.3600E+02
     -9.575  0.0000E+00  0.0000E+00  0.3600E+02  0.3600E+02
     -9.321  0.0000E+00  0.0000E+00  0.3600E+02  0.3600E+02
     -9.068  0.0000E+00  0.0000E+00  0.3600E+02  0.3600E+02
     -8.815  0.0000E+00  0.0000E+00  0.3600E+02  0.3600E+02
     -8.561  0.0000E+00  0.0000E+00  0.3600E+02  0.3600E+02
     -8.308  0.0000E+00  0.0000E+00  0.3600E+02  0.3600E+02
     -8.055  0.0000E+00  0.0000E+00  0.3600E+02  0.3600E+02
     -7.801  0.0000E+00  0.0000E+00  0.3600E+02  0.3600E+02
     -7.548  0.0000E+00  0.0000E+00  0.3600E+02  0.3600E+02
     -7.295  0.0000E+00  0.0000E+00  0.3600E+02  0.3600E+02
     -7.041  0.0000E+00  0.0000E+00  0.3600E+02  0.3600E+02
     -6.788  0.0000E+00  0.0000E+00  0.3600E+02  0.3600E+02
     -6.535  0.0000E+00  0.0000E+00  0.3600E+02  0.3600E+02
     -6.281  0.0000E+00  0.0000E+00  0.3600E+02  0.3600E+02
     -6.028  0.0000E+00  0.0000E+00  0.3600E+02  0.3600E+02
     -5.775  0.0000E+00  0.0000E+00  0.3600E+02  0.3600E+02
     -5.521  0.0000E+00  0.0000E+00  0.3600E+02  0.3600E+02
     -5.268  0.0000E+00  0.9388E-06  0.3600E+02  0.3600E+02
     -5.015  0.1910E-04  0.2017E-03  0.3600E+02  0.3600E+02
     -4.761  0.2996E-02  0.2607E-01  0.3600E+02  0.3601E+02
     -4.508  0.1586E+00  0.4679E+00  0.3604E+02  0.3613E+02
     -4.255  0.8142E+00  0.1098E+01  0.3625E+02  0.3640E+02
     -4.001  0.1446E+01  0.2345E+01  0.3661E+02  0.3700E+02
     -3.748  0.2724E+01  0.3602E+01  0.3731E+02  0.3792E+02
     -3.495  0.3598E+01  0.3580E+01  0.3822E+02  0.3883E+02
     -3.241  0.4022E+01  0.3590E+01  0.3925E+02  0.3975E+02
     -2.988  0.2556E+01  0.9125E+00  0.3991E+02  0.4000E+02
     -2.735  0.3215E+00  0.0000E+00  0.4000E+02  0.4000E+02
     -2.482  0.0000E+00  0.0000E+00  0.4000E+02  0.4000E+02
     -2.228  0.0000E+00  0.0000E+00  0.4000E+02  0.4000E+02
     -1.975  0.0000E+00  0.0000E+00  0.4000E+02  0.4000E+02
     -1.722  0.0000E+00  0.0000E+00  0.4000E+02  0.4000E+02
     -1.468  0.0000E+00  0.0000E+00  0.4000E+02  0.4000E+02
     -1.215  0.0000E+00  0.0000E+00  0.4000E+02  0.4000E+02
     -0.962  0.0000E+00  0.0000E+00  0.4000E+02  0.4000E+02
     -0.708  0.0000E+00  0.0000E+00  0.4000E+02  0.4000E+02
     -0.455  0.0000E+00  0.0000E+00  0.4000E+02  0.4000E+02
     -0.202  0.0000E+00  0.0000E+00  0.4000E+02  0.4000E+02
      0.052  0.0000E+00  0.0000E+00  0.4000E+02  0.4000E+02
      0.305  0.7555E-07  0.0000E+00  0.4000E+02  0.4000E+02
      0.558  0.1645E-04  0.3342E-06  0.4000E+02  0.4000E+02
      0.812  0.2672E-02  0.6564E-04  0.4000E+02  0.4000E+02
      1.065  0.1310E+00  0.8812E-02  0.4003E+02  0.4000E+02
      1.318  0.1781E+01  0.1975E+00  0.4049E+02  0.4005E+02
      1.572  0.4133E+01  0.1662E+01  0.4153E+02  0.4047E+02
      1.825  0.5148E+01  0.3070E+01  0.4284E+02  0.4125E+02
      2.078  0.5270E+01  0.3699E+01  0.4419E+02  0.4220E+02
      2.332  0.4330E+01  0.4534E+01  0.4531E+02  0.4336E+02
      2.585  0.3800E+01  0.3886E+01  0.4628E+02  0.4436E+02
      2.838  0.5184E+01  0.3488E+01  0.4760E+02  0.4525E+02
      3.092  0.7166E+01  0.2948E+01  0.4943E+02  0.4601E+02
      3.345  0.8641E+01  0.3243E+01  0.5164E+02  0.4684E+02
      3.598  0.3965E+01  0.4598E+01  0.5267E+02  0.4801E+02
      3.852  0.1069E+02  0.6924E+01  0.5539E+02  0.4977E+02
      4.105  0.1684E+02  0.6807E+01  0.5968E+02  0.5152E+02
      4.358  0.1855E+02  0.1963E+01  0.6444E+02  0.5202E+02
      4.612  0.1721E+02  0.5826E+00  0.6886E+02  0.5218E+02
      4.865  0.2106E+02  0.1193E+01  0.7424E+02  0.5248E+02
      5.118  0.1887E+02  0.3864E+01  0.7908E+02  0.5346E+02
      5.372  0.1691E+02  0.7311E+01  0.8341E+02  0.5532E+02
      5.625  0.2058E+02  0.5944E+01  0.8867E+02  0.5684E+02
      5.878  0.2322E+02  0.1135E+02  0.9460E+02  0.5973E+02
      6.131  0.2181E+02  0.1263E+02  0.1002E+03  0.6296E+02
      6.385  0.9076E+01  0.1300E+02  0.1025E+03  0.6629E+02
      6.638  0.5795E+01  0.7771E+01  0.1040E+03  0.6828E+02
      6.891  0.3721E+01  0.1182E+02  0.1050E+03  0.7130E+02
      7.145  0.3578E+01  0.1549E+02  0.1059E+03  0.7524E+02
      7.398  0.3697E+01  0.1353E+02  0.1069E+03  0.7872E+02
      7.651  0.3770E+01  0.9618E+01  0.1078E+03  0.8120E+02
      7.905  0.4139E+01  0.1376E+02  0.1089E+03  0.8471E+02
      8.158  0.3537E+01  0.1540E+02  0.1098E+03  0.8865E+02
      8.411  0.3584E+01  0.1881E+02  0.1107E+03  0.9346E+02
      8.665  0.3813E+01  0.2112E+02  0.1117E+03  0.9886E+02
      8.918  0.1808E+01  0.1713E+02  0.1122E+03  0.1033E+03
      9.171  0.1111E+01  0.8959E+01  0.1125E+03  0.1056E+03
      9.425  0.2553E+01  0.7033E+01  0.1131E+03  0.1074E+03
      9.678  0.2311E+01  0.6072E+01  0.1137E+03  0.1089E+03
      9.931  0.2757E+01  0.5057E+01  0.1144E+03  0.1102E+03
     10.185  0.1788E+01  0.5639E+01  0.1149E+03  0.1117E+03
     10.438  0.2541E+01  0.2376E+01  0.1155E+03  0.1123E+03
     10.691  0.2956E+01  0.3150E+01  0.1163E+03  0.1131E+03
     10.945  0.2729E+01  0.3807E+01  0.1170E+03  0.1141E+03
     11.198  0.2536E+01  0.3186E+01  0.1176E+03  0.1149E+03
     11.451  0.1936E+01  0.3691E+01  0.1181E+03  0.1158E+03
     11.705  0.1392E+01  0.3232E+01  0.1185E+03  0.1167E+03
     11.958  0.2137E+01  0.3391E+01  0.1190E+03  0.1175E+03
     12.211  0.1511E+01  0.2184E+01  0.1194E+03  0.1181E+03
     12.465  0.1908E+01  0.1411E+01  0.1199E+03  0.1185E+03
     12.718  0.1762E+01  0.1957E+01  0.1203E+03  0.1190E+03
     12.971  0.2241E+01  0.1946E+01  0.1209E+03  0.1195E+03
     13.225  0.2614E+01  0.1798E+01  0.1216E+03  0.1199E+03
     13.478  0.2147E+01  0.2052E+01  0.1221E+03  0.1204E+03
     13.731  0.2385E+01  0.2449E+01  0.1227E+03  0.1211E+03
     13.985  0.3094E+01  0.2490E+01  0.1235E+03  0.1217E+03
     14.238  0.3888E+01  0.2003E+01  0.1245E+03  0.1222E+03
     14.491  0.2151E+01  0.2671E+01  0.1251E+03  0.1229E+03
     14.744  0.2175E+01  0.3444E+01  0.1256E+03  0.1238E+03
     14.998  0.2934E+01  0.3745E+01  0.1264E+03  0.1247E+03
     15.251  0.3167E+01  0.1878E+01  0.1272E+03  0.1252E+03
     15.504  0.2838E+01  0.2246E+01  0.1279E+03  0.1258E+03
     15.758  0.2429E+01  0.3400E+01  0.1286E+03  0.1267E+03
     16.011  0.2328E+01  0.3452E+01  0.1291E+03  0.1275E+03
     16.264  0.2892E+01  0.3185E+01  0.1299E+03  0.1284E+03
     16.518  0.3652E+01  0.2221E+01  0.1308E+03  0.1289E+03
     16.771  0.2722E+01  0.2977E+01  0.1315E+03  0.1297E+03
     17.024  0.3486E+01  0.3560E+01  0.1324E+03  0.1306E+03
     17.278  0.2892E+01  0.3223E+01  0.1332E+03  0.1314E+03
     17.531  0.3127E+01  0.3676E+01  0.1340E+03  0.1324E+03
     17.784  0.3407E+01  0.3091E+01  0.1348E+03  0.1332E+03
     18.038  0.3011E+01  0.3293E+01  0.1356E+03  0.1340E+03
     18.291  0.2875E+01  0.3533E+01  0.1363E+03  0.1349E+03
     18.544  0.3632E+01  0.3339E+01  0.1373E+03  0.1357E+03
     18.798  0.3430E+01  0.2681E+01  0.1381E+03  0.1364E+03
     19.051  0.3287E+01  0.3483E+01  0.1390E+03  0.1373E+03
     19.304  0.2906E+01  0.3441E+01  0.1397E+03  0.1382E+03
     19.558  0.2307E+01  0.3081E+01  0.1403E+03  0.1390E+03
     19.811  0.2615E+01  0.2876E+01  0.1410E+03  0.1397E+03
     20.064  0.3295E+01  0.2543E+01  0.1418E+03  0.1404E+03
     20.318  0.3167E+01  0.2759E+01  0.1426E+03  0.1411E+03
     20.571  0.2866E+01  0.3259E+01  0.1434E+03  0.1419E+03
     20.824  0.1808E+01  0.3188E+01  0.1438E+03  0.1427E+03
     21.078  0.3057E+00  0.2798E+01  0.1439E+03  0.1435E+03
     21.331  0.2806E+00  0.1588E+01  0.1440E+03  0.1439E+03
     21.584  0.0000E+00  0.2478E+00  0.1440E+03  0.1439E+03
     21.838  0.0000E+00  0.2601E+00  0.1440E+03  0.1440E+03
     22.091  0.0000E+00  0.0000E+00  0.1440E+03  0.1440E+03
     22.344  0.0000E+00  0.0000E+00  0.1440E+03  0.1440E+03
     22.598  0.0000E+00  0.0000E+00  0.1440E+03  0.1440E+03
     22.851  0.0000E+00  0.0000E+00  0.1440E+03  0.1440E+03
     23.104  0.0000E+00  0.0000E+00  0.1440E+03  0.1440E+03
     23.357  0.0000E+00  0.0000E+00  0.1440E+03  0.1440E+03
     23.611  0.0000E+00  0.0000E+00  0.1440E+03  0.1440E+03
     23.864  0.0000E+00  0.0000E+00  0.1440E+03  0.1440E+03
     24.117  0.0000E+00  0.0000E+00  0.1440E+03  0.1440E+03
     24.371  0.0000E+00  0.0000E+00  0.1440E+03  0.1440E+03
     24.624  0.0000E+00  0.0000E+00  0.1440E+03  0.1440E+03
     24.877  0.0000E+00  0.0000E+00  0.1440E+03  0.1440E+03
     25.131  0.0000E+00  0.0000E+00  0.1440E+03  0.1440E+03
     25.13075890    -50.86633590  301      7.30480750      1.00000000
    -50.866  0.0000E+00  0.0000E+00  0.0000E+00  0.0000E+00  0.0000E+00  0.0000E+00  0.0000E+00  0.0000E+00  0.0000E+00  0.0000E+00  0.0000E+00  0.0000E+00  0.0000E+00  0.0000E+00  0.0000E+00  0.0000E+00  0.0000E+00  0.0000E+00
    -50.613  0.0000E+00  0.0000E+00  0.0000E+00  0.0000E+00  0.0000E+00  0.0000E+00  0.0000E+00  0.0000E+00  0.0000E+00  0.0000E+00  0.0000E+00  0.0000E+00  0.0000E+00  0.0000E+00  0.0000E+00  0.0000E+00  0.0000E+00  0.0000E+00
    -50.360  0.0000E+00  0.0000E+00  0.0000E+00  0.0000E+00  0.0000E+00  0.0000E+00  0.0000E+00  0.0000E+00  0.0000E+00  0.0000E+00  0.0000E+00  0.0000E+00  0.0000E+00  0.0000E+00  0.0000E+00  0.0000E+00  0.0000E+00  0.0000E+00
    -50.106  0.0000E+00  0.0000E+00  0.0000E+00  0.0000E+00  0.0000E+00  0.0000E+00  0.0000E+00  0.0000E+00  0.0000E+00  0.0000E+00  0.0000E+00  0.0000E+00  0.0000E+00  0.0000E+00  0.0000E+00  0.0000E+00  0.0000E+00  0.0000E+00
    -49.853  0.0000E+00  0.0000E+00  0.0000E+00  0.0000E+00  0.0000E+00  0.0000E+00  0.0000E+00  0.0000E+00  0.0000E+00  0.0000E+00  0.0000E+00  0.0000E+00  0.0000E+00  0.0000E+00  0.0000E+00  0.0000E+00  0.0000E+00  0.0000E+00
    -49.600  0.0000E+00  0.0000E+00  0.0000E+00  0.0000E+00  0.0000E+00  0.0000E+00  0.0000E+00  0.0000E+00  0.0000E+00  0.0000E+00  0.0000E+00  0.0000E+00  0.0000E+00  0.0000E+00  0.0000E+00  0.0000E+00  0.0000E+00  0.0000E+00
    -49.346  0.0000E+00  0.0000E+00  0.0000E+00  0.0000E+00  0.0000E+00  0.0000E+00  0.0000E+00  0.0000E+00  0.0000E+00  0.0000E+00  0.0000E+00  0.0000E+00  0.0000E+00  0.0000E+00  0.0000E+00  0.0000E+00  0.0000E+00  0.0000E+00
    -49.093  0.0000E+00  0.0000E+00  0.0000E+00  0.0000E+00  0.0000E+00  0.0000E+00  0.0000E+00  0.0000E+00  0.0000E+00  0.0000E+00  0.0000E+00  0.0000E+00  0.0000E+00  0.0000E+00  0.0000E+00  0.0000E+00  0.0000E+00  0.0000E+00
    -48.840  0.0000E+00  0.0000E+00  0.0000E+00  0.0000E+00  0.0000E+00  0.0000E+00  0.0000E+00  0.0000E+00  0.0000E+00  0.0000E+00  0.0000E+00  0.0000E+00  0.0000E+00  0.0000E+00  0.0000E+00  0.0000E+00  0.0000E+00  0.0000E+00
    -48.586  0.0000E+00  0.0000E+00  0.0000E+00  0.0000E+00  0.0000E+00  0.0000E+00  0.0000E+00  0.0000E+00  0.0000E+00  0.0000E+00  0.0000E+00  0.0000E+00  0.0000E+00  0.0000E+00  0.0000E+00  0.0000E+00  0.0000E+00  0.0000E+00
    -48.333  0.0000E+00  0.0000E+00  0.0000E+00  0.0000E+00  0.0000E+00  0.0000E+00  0.0000E+00  0.0000E+00  0.0000E+00  0.0000E+00  0.0000E+00  0.0000E+00  0.0000E+00  0.0000E+00  0.0000E+00  0.0000E+00  0.0000E+00  0.0000E+00
    -48.080  0.0000E+00  0.0000E+00  0.0000E+00  0.0000E+00  0.0000E+00  0.0000E+00  0.0000E+00  0.0000E+00  0.0000E+00  0.0000E+00  0.0000E+00  0.0000E+00  0.0000E+00  0.0000E+00  0.0000E+00  0.0000E+00  0.0000E+00  0.0000E+00
    -47.826  0.1441E-08  0.0000E+00  0.2562E-03  0.0000E+00  0.2327E-04  0.0000E+00  0.7903E-03  0.0000E+00  0.3498E-09  0.0000E+00  0.2829E-09  0.0000E+00  0.3121E-09  0.0000E+00  0.2286E-09  0.0000E+00  0.5932E-09  0.0000E+00
    -47.573  0.2234E-06  0.0000E+00  0.3983E-01  0.0000E+00  0.3799E-02  0.0000E+00  0.1205E+00  0.0000E+00  0.5494E-07  0.0000E+00  0.4528E-07  0.0000E+00  0.4910E-07  0.0000E+00  0.3669E-07  0.0000E+00  0.9168E-07  0.0000E+00
    -47.320  0.1100E-04  0.0000E+00  0.2258E+01  0.0000E+00  0.4672E+00  0.0000E+00  0.3089E+01  0.0000E+00  0.3450E-05  0.0000E+00  0.3754E-05  0.0000E+00  0.2979E-05  0.0000E+00  0.2726E-05  0.0000E+00  0.4234E-05  0.0000E+00
    -47.066  0.1662E-04  0.0000E+00  0.1610E+01  0.0000E+00  0.3227E+01  0.0000E+00  0.7115E+00  0.0000E+00  0.5229E-05  0.0000E+00  0.1049E-04  0.0000E+00  0.7458E-05  0.0000E+00  0.7093E-05  0.0000E+00  0.4362E-05  0.0000E+00
    -46.813  0.7702E-06  0.0000E+00  0.2768E-02  0.0000E+00  0.1675E+00  0.0000E+00  0.1654E-02  0.0000E+00  0.3187E-06  0.0000E+00  0.5673E-06  0.0000E+00  0.4901E-06  0.0000E+00  0.5406E-06  0.0000E+00  0.1372E-06  0.0000E+00
    -46.560  0.0000E+00  0.0000E+00  0.0000E+00  0.0000E+00  0.0000E+00  0.0000E+00  0.0000E+00  0.0000E+00  0.0000E+00  0.0000E+00  0.0000E+00  0.0000E+00  0.0000E+00  0.0000E+00  0.0000E+00  0.0000E+00  0.0000E+00  0.0000E+00
    -46.307  0.0000E+00  0.0000E+00  0.0000E+00  0.0000E+00  0.0000E+00  0.0000E+00  0.0000E+00  0.0000E+00  0.0000E+00  0.0000E+00  0.0000E+00  0.0000E+00  0.0000E+00  0.0000E+00  0.0000E+00  0.0000E+00  0.0000E+00  0.0000E+00
    -46.053  0.0000E+00  0.0000E+00  0.0000E+00  0.0000E+00  0.0000E+00  0.0000E+00  0.0000E+00  0.0000E+00  0.0000E+00  0.0000E+00  0.0000E+00  0.0000E+00  0.0000E+00  0.0000E+00  0.0000E+00  0.0000E+00  0.0000E+00  0.0000E+00
    -45.800  0.0000E+00  0.0000E+00  0.0000E+00  0.0000E+00  0.0000E+00  0.0000E+00  0.0000E+00  0.0000E+00  0.0000E+00  0.0000E+00  0.0000E+00  0.0000E+00  0.0000E+00  0.0000E+00  0.0000E+00  0.0000E+00  0.0000E+00  0.0000E+00
    -45.547  0.0000E+00  0.0000E+00  0.0000E+00  0.0000E+00  0.0000E+00  0.0000E+00  0.0000E+00  0.0000E+00  0.0000E+00  0.0000E+00  0.0000E+00  0.0000E+00  0.0000E+00  0.0000E+00  0.0000E+00  0.0000E+00  0.0000E+00  0.0000E+00
    -45.293  0.0000E+00  0.0000E+00  0.0000E+00  0.0000E+00  0.0000E+00  0.0000E+00  0.0000E+00  0.0000E+00  0.0000E+00  0.0000E+00  0.0000E+00  0.0000E+00  0.0000E+00  0.0000E+00  0.0000E+00  0.0000E+00  0.0000E+00  0.0000E+00
    -45.040  0.0000E+00  0.7715E-09  0.0000E+00  0.1478E-03  0.0000E+00  0.1329E-05  0.0000E+00  0.2561E-03  0.0000E+00  0.1417E-09  0.0000E+00  0.1601E-09  0.0000E+00  0.2014E-09  0.0000E+00  0.1632E-09  0.0000E+00  0.4698E-09
    -44.787  0.0000E+00  0.1216E-06  0.0000E+00  0.2331E-01  0.0000E+00  0.3935E-03  0.0000E+00  0.3992E-01  0.0000E+00  0.2299E-07  0.0000E+00  0.2560E-07  0.0000E+00  0.3195E-07  0.0000E+00  0.2587E-07  0.0000E+00  0.7334E-07
    -44.533  0.0000E+00  0.8184E-05  0.0000E+00  0.1050E+01  0.0000E+00  0.5055E-01  0.0000E+00  0.1757E+01  0.0000E+00  0.1625E-05  0.0000E+00  0.2787E-05  0.0000E+00  0.2308E-05  0.0000E+00  0.2251E-05  0.0000E+00  0.3833E-05
    -44.280  0.0000E+00  0.2336E-04  0.0000E+00  0.2335E+01  0.0000E+00  0.2034E+01  0.0000E+00  0.1834E+01  0.0000E+00  0.7539E-05  0.0000E+00  0.1280E-04  0.0000E+00  0.8784E-05  0.0000E+00  0.7963E-05  0.0000E+00  0.6428E-05
    -44.027  0.0000E+00  0.6256E-05  0.0000E+00  0.5136E+00  0.0000E+00  0.1819E+01  0.0000E+00  0.2877E+00  0.0000E+00  0.2784E-05  0.0000E+00  0.3302E-05  0.0000E+00  0.3138E-05  0.0000E+00  0.3594E-05  0.0000E+00  0.1405E-05
    -43.773  0.0000E+00  0.0000E+00  0.0000E+00  0.0000E+00  0.0000E+00  0.0000E+00  0.0000E+00  0.0000E+00  0.0000E+00  0.0000E+00  0.0000E+00  0.0000E+00  0.0000E+00  0.0000E+00  0.0000E+00  0.0000E+00  0.0000E+00  0.0000E+00
    -43.520  0.0000E+00  0.0000E+00  0.0000E+00  0.0000E+00  0.0000E+00  0.0000E+00  0.0000E+00  0.0000E+00  0.0000E+00  0.0000E+00  0.0000E+00  0.0000E+00  0.0000E+00  0.0000E+00  0.0000E+00  0.0000E+00  0.0000E+00  0.0000E+00
    -43.267  0.0000E+00  0.0000E+00  0.0000E+00  0.0000E+00  0.0000E+00  0.0000E+00  0.0000E+00  0.0000E+00  0.0000E+00  0.0000E+00  0.0000E+00  0.0000E+00  0.0000E+00  0.0000E+00  0.0000E+00  0.0000E+00  0.0000E+00  0.0000E+00
    -43.013  0.0000E+00  0.0000E+00  0.0000E+00  0.0000E+00  0.0000E+00  0.0000E+00  0.0000E+00  0.0000E+00  0.0000E+00  0.0000E+00  0.0000E+00  0.0000E+00  0.0000E+00  0.0000E+00  0.0000E+00  0.0000E+00  0.0000E+00  0.0000E+00
    -42.760  0.0000E+00  0.0000E+00  0.0000E+00  0.0000E+00  0.0000E+00  0.0000E+00  0.0000E+00  0.0000E+00  0.0000E+00  0.0000E+00  0.0000E+00  0.0000E+00  0.0000E+00  0.0000E+00  0.0000E+00  0.0000E+00  0.0000E+00  0.0000E+00
    -42.507  0.0000E+00  0.0000E+00  0.0000E+00  0.0000E+00  0.0000E+00  0.0000E+00  0.0000E+00  0.0000E+00  0.0000E+00  0.0000E+00  0.0000E+00  0.0000E+00  0.0000E+00  0.0000E+00  0.0000E+00  0.0000E+00  0.0000E+00  0.0000E+00
    -42.253  0.0000E+00  0.0000E+00  0.0000E+00  0.0000E+00  0.0000E+00  0.0000E+00  0.0000E+00  0.0000E+00  0.0000E+00  0.0000E+00  0.0000E+00  0.0000E+00  0.0000E+00  0.0000E+00  0.0000E+00  0.0000E+00  0.0000E+00  0.0000E+00
    -42.000  0.0000E+00  0.0000E+00  0.0000E+00  0.0000E+00  0.0000E+00  0.0000E+00  0.0000E+00  0.0000E+00  0.0000E+00  0.0000E+00  0.0000E+00  0.0000E+00  0.0000E+00  0.0000E+00  0.0000E+00  0.0000E+00  0.0000E+00  0.0000E+00
    -41.747  0.0000E+00  0.0000E+00  0.0000E+00  0.0000E+00  0.0000E+00  0.0000E+00  0.0000E+00  0.0000E+00  0.0000E+00  0.0000E+00  0.0000E+00  0.0000E+00  0.0000E+00  0.0000E+00  0.0000E+00  0.0000E+00  0.0000E+00  0.0000E+00
    -41.493  0.0000E+00  0.0000E+00  0.0000E+00  0.0000E+00  0.0000E+00  0.0000E+00  0.0000E+00  0.0000E+00  0.0000E+00  0.0000E+00  0.0000E+00  0.0000E+00  0.0000E+00  0.0000E+00  0.0000E+00  0.0000E+00  0.0000E+00  0.0000E+00
    -41.240  0.0000E+00  0.0000E+00  0.0000E+00  0.0000E+00  0.0000E+00  0.0000E+00  0.0000E+00  0.0000E+00  0.0000E+00  0.0000E+00  0.0000E+00  0.0000E+00  0.0000E+00  0.0000E+00  0.0000E+00  0.0000E+00  0.0000E+00  0.0000E+00
    -40.987  0.0000E+00  0.0000E+00  0.0000E+00  0.0000E+00  0.0000E+00  0.0000E+00  0.0000E+00  0.0000E+00  0.0000E+00  0.0000E+00  0.0000E+00  0.0000E+00  0.0000E+00  0.0000E+00  0.0000E+00  0.0000E+00  0.0000E+00  0.0000E+00
    -40.733  0.0000E+00  0.0000E+00  0.0000E+00  0.0000E+00  0.0000E+00  0.0000E+00  0.0000E+00  0.0000E+00  0.0000E+00  0.0000E+00  0.0000E+00  0.0000E+00  0.0000E+00  0.0000E+00  0.0000E+00  0.0000E+00  0.0000E+00  0.0000E+00
    -40.480  0.0000E+00  0.0000E+00  0.0000E+00  0.0000E+00  0.0000E+00  0.0000E+00  0.0000E+00  0.0000E+00  0.0000E+00  0.0000E+00  0.0000E+00  0.0000E+00  0.0000E+00  0.0000E+00  0.0000E+00  0.0000E+00  0.0000E+00  0.0000E+00
    -40.227  0.0000E+00  0.0000E+00  0.0000E+00  0.0000E+00  0.0000E+00  0.0000E+00  0.0000E+00  0.0000E+00  0.0000E+00  0.0000E+00  0.0000E+00  0.0000E+00  0.0000E+00  0.0000E+00  0.0000E+00  0.0000E+00  0.0000E+00  0.0000E+00
    -39.973  0.0000E+00  0.0000E+00  0.0000E+00  0.0000E+00  0.0000E+00  0.0000E+00  0.0000E+00  0.0000E+00  0.0000E+00  0.0000E+00  0.0000E+00  0.0000E+00  0.0000E+00  0.0000E+00  0.0000E+00  0.0000E+00  0.0000E+00  0.0000E+00
    -39.720  0.0000E+00  0.0000E+00  0.0000E+00  0.0000E+00  0.0000E+00  0.0000E+00  0.0000E+00  0.0000E+00  0.0000E+00  0.0000E+00  0.0000E+00  0.0000E+00  0.0000E+00  0.0000E+00  0.0000E+00  0.0000E+00  0.0000E+00  0.0000E+00
    -39.467  0.0000E+00  0.0000E+00  0.0000E+00  0.0000E+00  0.0000E+00  0.0000E+00  0.0000E+00  0.0000E+00  0.0000E+00  0.0000E+00  0.0000E+00  0.0000E+00  0.0000E+00  0.0000E+00  0.0000E+00  0.0000E+00  0.0000E+00  0.0000E+00
    -39.213  0.0000E+00  0.0000E+00  0.0000E+00  0.0000E+00  0.0000E+00  0.0000E+00  0.0000E+00  0.0000E+00  0.0000E+00  0.0000E+00  0.0000E+00  0.0000E+00  0.0000E+00  0.0000E+00  0.0000E+00  0.0000E+00  0.0000E+00  0.0000E+00
    -38.960  0.0000E+00  0.0000E+00  0.0000E+00  0.0000E+00  0.0000E+00  0.0000E+00  0.0000E+00  0.0000E+00  0.0000E+00  0.0000E+00  0.0000E+00  0.0000E+00  0.0000E+00  0.0000E+00  0.0000E+00  0.0000E+00  0.0000E+00  0.0000E+00
    -38.707  0.0000E+00  0.0000E+00  0.0000E+00  0.0000E+00  0.0000E+00  0.0000E+00  0.0000E+00  0.0000E+00  0.0000E+00  0.0000E+00  0.0000E+00  0.0000E+00  0.0000E+00  0.0000E+00  0.0000E+00  0.0000E+00  0.0000E+00  0.0000E+00
    -38.453  0.0000E+00  0.0000E+00  0.0000E+00  0.0000E+00  0.0000E+00  0.0000E+00  0.0000E+00  0.0000E+00  0.0000E+00  0.0000E+00  0.0000E+00  0.0000E+00  0.0000E+00  0.0000E+00  0.0000E+00  0.0000E+00  0.0000E+00  0.0000E+00
    -38.200  0.0000E+00  0.0000E+00  0.0000E+00  0.0000E+00  0.0000E+00  0.0000E+00  0.0000E+00  0.0000E+00  0.0000E+00  0.0000E+00  0.0000E+00  0.0000E+00  0.0000E+00  0.0000E+00  0.0000E+00  0.0000E+00  0.0000E+00  0.0000E+00