  16  16   1   0
  0.1062518E+02  0.4644723E-09  0.5230389E-09  0.6997817E-09  0.5000000E-15
  1.000000000000000E-004
  CAR 
 unknown system                          
     29.02119159    -48.90560906  301      9.17046768      1.00000000
    -48.906  0.0000E+00  0.0000E+00  0.0000E+00  0.0000E+00
    -48.646  0.0000E+00  0.0000E+00  0.0000E+00  0.0000E+00
    -48.386  0.0000E+00  0.0000E+00  0.0000E+00  0.0000E+00
    -48.126  0.0000E+00  0.0000E+00  0.0000E+00  0.0000E+00
    -47.867  0.0000E+00  0.0000E+00  0.0000E+00  0.0000E+00
    -47.607  0.0000E+00  0.0000E+00  0.0000E+00  0.0000E+00
    -47.347  0.0000E+00  0.0000E+00  0.0000E+00  0.0000E+00
    -47.087  0.0000E+00  0.0000E+00  0.0000E+00  0.0000E+00
    -46.828  0.0000E+00  0.0000E+00  0.0000E+00  0.0000E+00
    -46.568  0.0000E+00  0.0000E+00  0.0000E+00  0.0000E+00
    -46.308  0.0000E+00  0.0000E+00  0.0000E+00  0.0000E+00
    -46.048  0.0000E+00  0.0000E+00  0.0000E+00  0.0000E+00
    -45.789  0.2598E-02  0.0000E+00  0.6750E-03  0.0000E+00
    -45.529  0.4639E+00  0.0000E+00  0.1212E+00  0.0000E+00
    -45.269  0.2967E+02  0.0000E+00  0.7828E+01  0.0000E+00
    -45.009  0.8403E+02  0.0000E+00  0.2965E+02  0.0000E+00
    -44.750  0.2298E+02  0.0000E+00  0.3593E+02  0.0000E+00
    -44.490  0.0000E+00  0.0000E+00  0.3600E+02  0.0000E+00
    -44.230  0.0000E+00  0.0000E+00  0.3600E+02  0.0000E+00
    -43.970  0.0000E+00  0.0000E+00  0.3600E+02  0.0000E+00
    -43.710  0.0000E+00  0.0000E+00  0.3600E+02  0.0000E+00
    -43.451  0.0000E+00  0.5078E-03  0.3600E+02  0.1319E-03
    -43.191  0.0000E+00  0.9588E-01  0.3600E+02  0.2504E-01
    -42.931  0.0000E+00  0.1101E+02  0.3600E+02  0.2885E+01
    -42.671  0.0000E+00  0.6192E+02  0.3600E+02  0.1897E+02
    -42.412  0.0000E+00  0.5670E+02  0.3600E+02  0.3384E+02
    -42.152  0.0000E+00  0.7677E+01  0.3600E+02  0.3599E+02
    -41.892  0.0000E+00  0.0000E+00  0.3600E+02  0.3600E+02
    -41.632  0.0000E+00  0.0000E+00  0.3600E+02  0.3600E+02
    -41.373  0.0000E+00  0.0000E+00  0.3600E+02  0.3600E+02
    -41.113  0.0000E+00  0.0000E+00  0.3600E+02  0.3600E+02
    -40.853  0.0000E+00  0.0000E+00  0.3600E+02  0.3600E+02
    -40.593  0.0000E+00  0.0000E+00  0.3600E+02  0.3600E+02
    -40.334  0.0000E+00  0.0000E+00  0.3600E+02  0.3600E+02
    -40.074  0.0000E+00  0.0000E+00  0.3600E+02  0.3600E+02
    -39.814  0.0000E+00  0.0000E+00  0.3600E+02  0.3600E+02
    -39.554  0.0000E+00  0.0000E+00  0.3600E+02  0.3600E+02
    -39.295  0.0000E+00  0.0000E+00  0.3600E+02  0.3600E+02
    -39.035  0.0000E+00  0.0000E+00  0.3600E+02  0.3600E+02
    -38.775  0.0000E+00  0.0000E+00  0.3600E+02  0.3600E+02
    -38.515  0.0000E+00  0.0000E+00  0.3600E+02  0.3600E+02
    -38.256  0.0000E+00  0.0000E+00  0.3600E+02  0.3600E+02
    -37.996  0.0000E+00  0.0000E+00  0.3600E+02  0.3600E+02
    -37.736  0.0000E+00  0.0000E+00  0.3600E+02  0.3600E+02
    -37.476  0.0000E+00  0.0000E+00  0.3600E+02  0.3600E+02
    -37.217  0.0000E+00  0.0000E+00  0.3600E+02  0.3600E+02
    -36.957  0.0000E+00  0.0000E+00  0.3600E+02  0.3600E+02
    -36.697  0.0000E+00  0.0000E+00  0.3600E+02  0.3600E+02
    -36.437  0.0000E+00  0.0000E+00  0.3600E+02  0.3600E+02
    -36.178  0.0000E+00  0.0000E+00  0.3600E+02  0.3600E+02
    -35.918  0.0000E+00  0.0000E+00  0.3600E+02  0.3600E+02
    -35.658  0.0000E+00  0.0000E+00  0.3600E+02  0.3600E+02
    -35.398  0.0000E+00  0.0000E+00  0.3600E+02  0.3600E+02
    -35.139  0.0000E+00  0.0000E+00  0.3600E+02  0.3600E+02
    -34.879  0.0000E+00  0.0000E+00  0.3600E+02  0.3600E+02
    -34.619  0.0000E+00  0.0000E+00  0.3600E+02  0.3600E+02
    -34.359  0.0000E+00  0.0000E+00  0.3600E+02  0.3600E+02
    -34.100  0.0000E+00  0.0000E+00  0.3600E+02  0.3600E+02
    -33.840  0.0000E+00  0.0000E+00  0.3600E+02  0.3600E+02
    -33.580  0.0000E+00  0.0000E+00  0.3600E+02  0.3600E+02
    -33.320  0.0000E+00  0.0000E+00  0.3600E+02  0.3600E+02
    -33.060  0.0000E+00  0.0000E+00  0.3600E+02  0.3600E+02
    -32.801  0.0000E+00  0.0000E+00  0.3600E+02  0.3600E+02
    -32.541  0.0000E+00  0.0000E+00  0.3600E+02  0.3600E+02
    -32.281  0.0000E+00  0.0000E+00  0.3600E+02  0.3600E+02
    -32.021  0.0000E+00  0.0000E+00  0.3600E+02  0.3600E+02
    -31.762  0.0000E+00  0.0000E+00  0.3600E+02  0.3600E+02
    -31.502  0.0000E+00  0.0000E+00  0.3600E+02  0.3600E+02
    -31.242  0.0000E+00  0.0000E+00  0.3600E+02  0.3600E+02
    -30.982  0.0000E+00  0.0000E+00  0.3600E+02  0.3600E+02
    -30.723  0.0000E+00  0.0000E+00  0.3600E+02  0.3600E+02
    -30.463  0.0000E+00  0.0000E+00  0.3600E+02  0.3600E+02
    -30.203  0.0000E+00  0.0000E+00  0.3600E+02  0.3600E+02
    -29.943  0.0000E+00  0.0000E+00  0.3600E+02  0.3600E+02
    -29.684  0.0000E+00  0.0000E+00  0.3600E+02  0.3600E+02
    -29.424  0.0000E+00  0.0000E+00  0.3600E+02  0.3600E+02
    -29.164  0.0000E+00  0.0000E+00  0.3600E+02  0.3600E+02
    -28.904  0.0000E+00  0.0000E+00  0.3600E+02  0.3600E+02
    -28.645  0.0000E+00  0.0000E+00  0.3600E+02  0.3600E+02
    -28.385  0.0000E+00  0.0000E+00  0.3600E+02  0.3600E+02
    -28.125  0.0000E+00  0.0000E+00  0.3600E+02  0.3600E+02
    -27.865  0.0000E+00  0.0000E+00  0.3600E+02  0.3600E+02
    -27.606  0.0000E+00  0.0000E+00  0.3600E+02  0.3600E+02
    -27.346  0.0000E+00  0.0000E+00  0.3600E+02  0.3600E+02
    -27.086  0.0000E+00  0.0000E+00  0.3600E+02  0.3600E+02
    -26.826  0.0000E+00  0.0000E+00  0.3600E+02  0.3600E+02
    -26.567  0.0000E+00  0.0000E+00  0.3600E+02  0.3600E+02
    -26.307  0.0000E+00  0.0000E+00  0.3600E+02  0.3600E+02
    -26.047  0.0000E+00  0.0000E+00  0.3600E+02  0.3600E+02
    -25.787  0.0000E+00  0.0000E+00  0.3600E+02  0.3600E+02
    -25.528  0.0000E+00  0.0000E+00  0.3600E+02  0.3600E+02
    -25.268  0.0000E+00  0.0000E+00  0.3600E+02  0.3600E+02
    -25.008  0.0000E+00  0.0000E+00  0.3600E+02  0.3600E+02
    -24.748  0.0000E+00  0.0000E+00  0.3600E+02  0.3600E+02
    -24.489  0.0000E+00  0.0000E+00  0.3600E+02  0.3600E+02
    -24.229  0.0000E+00  0.0000E+00  0.3600E+02  0.3600E+02
    -23.969  0.0000E+00  0.0000E+00  0.3600E+02  0.3600E+02
    -23.709  0.0000E+00  0.0000E+00  0.3600E+02  0.3600E+02
    -23.450  0.0000E+00  0.0000E+00  0.3600E+02  0.3600E+02
    -23.190  0.0000E+00  0.0000E+00  0.3600E+02  0.3600E+02
    -22.930  0.0000E+00  0.0000E+00  0.3600E+02  0.3600E+02
    -22.670  0.0000E+00  0.0000E+00  0.3600E+02  0.3600E+02
    -22.410  0.0000E+00  0.0000E+00  0.3600E+02  0.3600E+02
    -22.151  0.0000E+00  0.0000E+00  0.3600E+02  0.3600E+02
    -21.891  0.0000E+00  0.0000E+00  0.3600E+02  0.3600E+02
    -21.631  0.0000E+00  0.0000E+00  0.3600E+02  0.3600E+02
    -21.371  0.0000E+00  0.0000E+00  0.3600E+02  0.3600E+02
    -21.112  0.0000E+00  0.0000E+00  0.3600E+02  0.3600E+02
    -20.852  0.0000E+00  0.0000E+00  0.3600E+02  0.3600E+02
    -20.592  0.0000E+00  0.0000E+00  0.3600E+02  0.3600E+02
    -20.332  0.0000E+00  0.0000E+00  0.3600E+02  0.3600E+02
    -20.073  0.0000E+00  0.0000E+00  0.3600E+02  0.3600E+02
    -19.813  0.0000E+00  0.0000E+00  0.3600E+02  0.3600E+02
    -19.553  0.0000E+00  0.0000E+00  0.3600E+02  0.3600E+02
    -19.293  0.0000E+00  0.0000E+00  0.3600E+02  0.3600E+02
    -19.034  0.0000E+00  0.0000E+00  0.3600E+02  0.3600E+02
    -18.774  0.0000E+00  0.0000E+00  0.3600E+02  0.3600E+02
    -18.514  0.0000E+00  0.0000E+00  0.3600E+02  0.3600E+02
    -18.254  0.0000E+00  0.0000E+00  0.3600E+02  0.3600E+02
    -17.995  0.0000E+00  0.0000E+00  0.3600E+02  0.3600E+02
    -17.735  0.0000E+00  0.0000E+00  0.3600E+02  0.3600E+02
    -17.475  0.0000E+00  0.0000E+00  0.3600E+02  0.3600E+02
    -17.215  0.0000E+00  0.0000E+00  0.3600E+02  0.3600E+02
    -16.956  0.0000E+00  0.0000E+00  0.3600E+02  0.3600E+02
    -16.696  0.0000E+00  0.0000E+00  0.3600E+02  0.3600E+02
    -16.436  0.0000E+00  0.0000E+00  0.3600E+02  0.3600E+02
    -16.176  0.0000E+00  0.0000E+00  0.3600E+02  0.3600E+02
    -15.917  0.0000E+00  0.0000E+00  0.3600E+02  0.3600E+02
    -15.657  0.0000E+00  0.0000E+00  0.3600E+02  0.3600E+02
    -15.397  0.0000E+00  0.0000E+00  0.3600E+02  0.3600E+02
    -15.137  0.0000E+00  0.0000E+00  0.3600E+02  0.3600E+02
    -14.878  0.0000E+00  0.0000E+00  0.3600E+02  0.3600E+02
    -14.618  0.0000E+00  0.0000E+00  0.3600E+02  0.3600E+02
    -14.358  0.0000E+00  0.0000E+00  0.3600E+02  0.3600E+02
    -14.098  0.0000E+00  0.0000E+00  0.3600E+02  0.3600E+02
    -13.839  0.0000E+00  0.0000E+00  0.3600E+02  0.3600E+02
    -13.579  0.0000E+00  0.0000E+00  0.3600E+02  0.3600E+02
    -13.319  0.0000E+00  0.0000E+00  0.3600E+02  0.3600E+02
    -13.059  0.0000E+00  0.0000E+00  0.3600E+02  0.3600E+02
    -12.800  0.0000E+00  0.0000E+00  0.3600E+02  0.3600E+02
    -12.540  0.0000E+00  0.0000E+00  0.3600E+02  0.3600E+02
    -12.280  0.0000E+00  0.0000E+00  0.3600E+02  0.3600E+02
    -12.020  0.0000E+00  0.0000E+00  0.3600E+02  0.3600E+02
    -11.761  0.0000E+00  0.0000E+00  0.3600E+02  0.3600E+02
    -11.501  0.0000E+00  0.0000E+00  0.3600E+02  0.3600E+02
    -11.241  0.0000E+00  0.0000E+00  0.3600E+02  0.3600E+02
    -10.981  0.0000E+00  0.0000E+00  0.3600E+02  0.3600E+02
    -10.721  0.0000E+00  0.0000E+00  0.3600E+02  0.3600E+02
    -10.462  0.0000E+00  0.0000E+00  0.3600E+02  0.3600E+02
    -10.202  0.0000E+00  0.0000E+00  0.3600E+02  0.3600E+02
     -9.942  0.0000E+00  0.0000E+00  0.3600E+02  0.3600E+02
     -9.682  0.0000E+00  0.0000E+00  0.3600E+02  0.3600E+02
     -9.423  0.0000E+00  0.0000E+00  0.3600E+02  0.3600E+02
     -9.163  0.0000E+00  0.0000E+00  0.3600E+02  0.3600E+02
     -8.903  0.0000E+00  0.0000E+00  0.3600E+02  0.3600E+02
     -8.643  0.0000E+00  0.0000E+00  0.3600E+02  0.3600E+02
     -8.384  0.0000E+00  0.0000E+00  0.3600E+02  0.3600E+02
     -8.124  0.0000E+00  0.0000E+00  0.3600E+02  0.3600E+02
     -7.864  0.0000E+00  0.0000E+00  0.3600E+02  0.3600E+02
     -7.604  0.0000E+00  0.0000E+00  0.3600E+02  0.3600E+02
     -7.345  0.0000E+00  0.0000E+00  0.3600E+02  0.3600E+02
     -7.085  0.0000E+00  0.0000E+00  0.3600E+02  0.3600E+02
     -6.825  0.0000E+00  0.0000E+00  0.3600E+02  0.3600E+02
     -6.565  0.0000E+00  0.0000E+00  0.3600E+02  0.3600E+02
     -6.306  0.0000E+00  0.0000E+00  0.3600E+02  0.3600E+02
     -6.046  0.0000E+00  0.0000E+00  0.3600E+02  0.3600E+02
     -5.786  0.0000E+00  0.0000E+00  0.3600E+02  0.3600E+02
     -5.526  0.0000E+00  0.0000E+00  0.3600E+02  0.3600E+02
     -5.267  0.0000E+00  0.0000E+00  0.3600E+02  0.3600E+02
     -5.007  0.0000E+00  0.0000E+00  0.3600E+02  0.3600E+02
     -4.747  0.0000E+00  0.0000E+00  0.3600E+02  0.3600E+02
     -4.487  0.0000E+00  0.0000E+00  0.3600E+02  0.3600E+02
     -4.228  0.3439E-05  0.1544E-04  0.3600E+02  0.3600E+02
     -3.968  0.6688E-03  0.2714E-02  0.3600E+02  0.3600E+02
     -3.708  0.5888E-01  0.1306E+00  0.3602E+02  0.3603E+02
     -3.448  0.4859E+00  0.6581E+00  0.3614E+02  0.3621E+02
     -3.189  0.8135E+00  0.9518E+00  0.3635E+02  0.3645E+02
     -2.929  0.1546E+01  0.1906E+01  0.3676E+02  0.3695E+02
     -2.669  0.2295E+01  0.2886E+01  0.3736E+02  0.3771E+02
     -2.409  0.3167E+01  0.2873E+01  0.3818E+02  0.3846E+02
     -2.150  0.3474E+01  0.3611E+01  0.3910E+02  0.3941E+02
     -1.890  0.2595E+01  0.1969E+01  0.3978E+02  0.3993E+02
     -1.630  0.7932E+00  0.2460E+00  0.3999E+02  0.4000E+02
     -1.370  0.8190E-02  0.0000E+00  0.4000E+02  0.4000E+02
     -1.111  0.0000E+00  0.0000E+00  0.4000E+02  0.4000E+02
     -0.851  0.0000E+00  0.0000E+00  0.4000E+02  0.4000E+02
     -0.591  0.0000E+00  0.0000E+00  0.4000E+02  0.4000E+02
     -0.331  0.0000E+00  0.0000E+00  0.4000E+02  0.4000E+02
     -0.071  0.0000E+00  0.0000E+00  0.4000E+02  0.4000E+02
      0.188  0.0000E+00  0.0000E+00  0.4000E+02  0.4000E+02
      0.448  0.0000E+00  0.0000E+00  0.4000E+02  0.4000E+02
      0.708  0.0000E+00  0.0000E+00  0.4000E+02  0.4000E+02
      0.968  0.0000E+00  0.0000E+00  0.4000E+02  0.4000E+02
      1.227  0.0000E+00  0.0000E+00  0.4000E+02  0.4000E+02
      1.487  0.3303E-06  0.0000E+00  0.4000E+02  0.4000E+02
      1.747  0.7837E-04  0.1911E-05  0.4000E+02  0.4000E+02
      2.007  0.1171E-01  0.3792E-03  0.4000E+02  0.4000E+02
      2.266  0.2966E+00  0.3072E-01  0.4008E+02  0.4001E+02
      2.526  0.2565E+01  0.3990E+00  0.4075E+02  0.4011E+02
      2.786  0.3952E+01  0.2252E+01  0.4177E+02  0.4070E+02
      3.046  0.4825E+01  0.3320E+01  0.4303E+02  0.4156E+02
      3.305  0.4605E+01  0.3646E+01  0.4424E+02  0.4252E+02
      3.565  0.3989E+01  0.4393E+01  0.4529E+02  0.4367E+02
      3.825  0.3133E+01  0.3560E+01  0.4611E+02  0.4460E+02
      4.085  0.4636E+01  0.3256E+01  0.4732E+02  0.4546E+02
      4.344  0.5525E+01  0.2702E+01  0.4877E+02  0.4617E+02
      4.604  0.7263E+01  0.3523E+01  0.5067E+02  0.4709E+02
      4.864  0.5017E+01  0.4499E+01  0.5200E+02  0.4826E+02
      5.124  0.2073E+01  0.6615E+01  0.5256E+02  0.4999E+02
      5.383  0.7340E+01  0.6306E+01  0.5447E+02  0.5165E+02
      5.643  0.1217E+02  0.1336E+01  0.5766E+02  0.5202E+02
      5.903  0.1376E+02  0.4618E+00  0.6126E+02  0.5215E+02
      6.163  0.1437E+02  0.1051E+01  0.6503E+02  0.5242E+02
      6.422  0.1207E+02  0.3129E+01  0.6821E+02  0.5324E+02
      6.682  0.1504E+02  0.6211E+01  0.7216E+02  0.5485E+02
      6.942  0.1506E+02  0.5958E+01  0.7611E+02  0.5642E+02
      7.202  0.1350E+02  0.9366E+01  0.7966E+02  0.5887E+02
      7.461  0.1216E+02  0.1061E+02  0.8287E+02  0.6165E+02
      7.721  0.1482E+02  0.1142E+02  0.8675E+02  0.6465E+02
      7.981  0.1619E+02  0.1036E+02  0.9099E+02  0.6738E+02
      8.241  0.1851E+02  0.4894E+01  0.9584E+02  0.6868E+02
      8.500  0.1701E+02  0.1151E+02  0.1003E+03  0.7168E+02
      8.760  0.8022E+01  0.1283E+02  0.1025E+03  0.7505E+02
      9.020  0.5436E+01  0.1150E+02  0.1039E+03  0.7807E+02
      9.280  0.3589E+01  0.8436E+01  0.1048E+03  0.8029E+02
      9.539  0.3211E+01  0.9174E+01  0.1057E+03  0.8270E+02
      9.799  0.3627E+01  0.1171E+02  0.1066E+03  0.8576E+02
     10.059  0.3308E+01  0.1235E+02  0.1075E+03  0.8899E+02
     10.319  0.3566E+01  0.1503E+02  0.1084E+03  0.9293E+02
     10.579  0.3228E+01  0.1605E+02  0.1093E+03  0.9714E+02
     10.838  0.2985E+01  0.1642E+02  0.1101E+03  0.1015E+03
     11.098  0.3209E+01  0.9542E+01  0.1109E+03  0.1040E+03
     11.358  0.3442E+01  0.6263E+01  0.1118E+03  0.1056E+03
     11.618  0.1286E+01  0.5617E+01  0.1122E+03  0.1071E+03
     11.877  0.8696E+00  0.4656E+01  0.1124E+03  0.1083E+03
     12.137  0.2350E+01  0.4602E+01  0.1130E+03  0.1096E+03
     12.397  0.2147E+01  0.3660E+01  0.1136E+03  0.1105E+03
     12.657  0.2336E+01  0.4531E+01  0.1142E+03  0.1117E+03
     12.916  0.1863E+01  0.1828E+01  0.1147E+03  0.1122E+03
     13.176  0.2257E+01  0.1845E+01  0.1153E+03  0.1127E+03
     13.436  0.3039E+01  0.3019E+01  0.1161E+03  0.1135E+03
     13.696  0.2459E+01  0.3090E+01  0.1167E+03  0.1143E+03
     13.955  0.2373E+01  0.2638E+01  0.1174E+03  0.1150E+03
     14.215  0.2135E+01  0.3558E+01  0.1179E+03  0.1159E+03
     14.475  0.1204E+01  0.2729E+01  0.1182E+03  0.1166E+03
     14.735  0.1337E+01  0.3013E+01  0.1186E+03  0.1174E+03
     14.994  0.1693E+01  0.2212E+01  0.1190E+03  0.1180E+03
     15.254  0.1576E+01  0.1185E+01  0.1194E+03  0.1183E+03
     15.514  0.1289E+01  0.1425E+01  0.1198E+03  0.1187E+03
     15.774  0.1590E+01  0.1546E+01  0.1202E+03  0.1191E+03
     16.033  0.1850E+01  0.1700E+01  0.1207E+03  0.1195E+03
     16.293  0.2421E+01  0.1465E+01  0.1213E+03  0.1199E+03
     16.553  0.2406E+01  0.1686E+01  0.1220E+03  0.1204E+03
     16.813  0.1615E+01  0.2483E+01  0.1224E+03  0.1210E+03
     17.072  0.2867E+01  0.2373E+01  0.1231E+03  0.1216E+03
     17.332  0.3321E+01  0.1880E+01  0.1240E+03  0.1221E+03
     17.592  0.2770E+01  0.2089E+01  0.1247E+03  0.1227E+03
     17.852  0.1663E+01  0.2986E+01  0.1252E+03  0.1235E+03
     18.111  0.2137E+01  0.3627E+01  0.1257E+03  0.1244E+03
     18.371  0.2688E+01  0.2361E+01  0.1264E+03  0.1250E+03
     18.631  0.3013E+01  0.1254E+01  0.1272E+03  0.1254E+03
     18.891  0.2625E+01  0.2716E+01  0.1279E+03  0.1261E+03
     19.150  0.2175E+01  0.3051E+01  0.1285E+03  0.1269E+03
     19.410  0.2161E+01  0.3249E+01  0.1290E+03  0.1277E+03
     19.670  0.2800E+01  0.2602E+01  0.1298E+03  0.1284E+03
     19.930  0.3851E+01  0.2124E+01  0.1308E+03  0.1290E+03
     20.189  0.2704E+01  0.2849E+01  0.1315E+03  0.1297E+03
     20.449  0.2829E+01  0.3947E+01  0.1323E+03  0.1308E+03
     20.709  0.2786E+01  0.3106E+01  0.1330E+03  0.1316E+03
     20.969  0.2567E+01  0.2873E+01  0.1337E+03  0.1323E+03
     21.229  0.3164E+01  0.2849E+01  0.1345E+03  0.1331E+03
     21.488  0.2863E+01  0.2675E+01  0.1352E+03  0.1338E+03
     21.748  0.2922E+01  0.3455E+01  0.1360E+03  0.1347E+03
     22.008  0.2781E+01  0.3208E+01  0.1368E+03  0.1355E+03
     22.268  0.3014E+01  0.2423E+01  0.1375E+03  0.1362E+03
     22.527  0.3128E+01  0.3109E+01  0.1384E+03  0.1370E+03
     22.787  0.3113E+01  0.2802E+01  0.1392E+03  0.1377E+03
     23.047  0.2588E+01  0.3103E+01  0.1399E+03  0.1385E+03
     23.307  0.2457E+01  0.3037E+01  0.1405E+03  0.1393E+03
     23.566  0.2254E+01  0.2629E+01  0.1411E+03  0.1400E+03
     23.826  0.2976E+01  0.2391E+01  0.1419E+03  0.1407E+03
     24.086  0.3137E+01  0.2460E+01  0.1427E+03  0.1413E+03
     24.346  0.2507E+01  0.3244E+01  0.1434E+03  0.1422E+03
     24.605  0.1761E+01  0.2932E+01  0.1438E+03  0.1429E+03
     24.865  0.3235E+00  0.2505E+01  0.1439E+03  0.1436E+03
     25.125  0.3015E+00  0.1089E+01  0.1440E+03  0.1439E+03
     25.385  0.2297E-01  0.2134E+00  0.1440E+03  0.1439E+03
     25.644  0.0000E+00  0.2145E+00  0.1440E+03  0.1440E+03
     25.904  0.0000E+00  0.0000E+00  0.1440E+03  0.1440E+03
     26.164  0.0000E+00  0.0000E+00  0.1440E+03  0.1440E+03
     26.424  0.0000E+00  0.0000E+00  0.1440E+03  0.1440E+03
     26.683  0.0000E+00  0.0000E+00  0.1440E+03  0.1440E+03
     26.943  0.0000E+00  0.0000E+00  0.1440E+03  0.1440E+03
     27.203  0.0000E+00  0.0000E+00  0.1440E+03  0.1440E+03
     27.463  0.0000E+00  0.0000E+00  0.1440E+03  0.1440E+03
     27.722  0.0000E+00  0.0000E+00  0.1440E+03  0.1440E+03
     27.982  0.0000E+00  0.0000E+00  0.1440E+03  0.1440E+03
     28.242  0.0000E+00  0.0000E+00  0.1440E+03  0.1440E+03
     28.502  0.0000E+00  0.0000E+00  0.1440E+03  0.1440E+03
     28.761  0.0000E+00  0.0000E+00  0.1440E+03  0.1440E+03
     29.021  0.0000E+00  0.0000E+00  0.1440E+03  0.1440E+03
     29.02119159    -48.90560906  301      9.17046768      1.00000000
    -48.906  0.0000E+00  0.0000E+00  0.0000E+00  0.0000E+00  0.0000E+00  0.0000E+00  0.0000E+00  0.0000E+00  0.0000E+00  0.0000E+00  0.0000E+00  0.0000E+00  0.0000E+00  0.0000E+00  0.0000E+00  0.0000E+00  0.0000E+00  0.0000E+00
    -48.646  0.0000E+00  0.0000E+00  0.0000E+00  0.0000E+00  0.0000E+00  0.0000E+00  0.0000E+00  0.0000E+00  0.0000E+00  0.0000E+00  0.0000E+00  0.0000E+00  0.0000E+00  0.0000E+00  0.0000E+00  0.0000E+00  0.0000E+00  0.0000E+00
    -48.386  0.0000E+00  0.0000E+00  0.0000E+00  0.0000E+00  0.0000E+00  0.0000E+00  0.0000E+00  0.0000E+00  0.0000E+00  0.0000E+00  0.0000E+00  0.0000E+00  0.0000E+00  0.0000E+00  0.0000E+00  0.0000E+00  0.0000E+00  0.0000E+00
    -48.126  0.0000E+00  0.0000E+00  0.0000E+00  0.0000E+00  0.0000E+00  0.0000E+00  0.0000E+00  0.0000E+00  0.0000E+00  0.0000E+00  0.0000E+00  0.0000E+00  0.0000E+00  0.0000E+00  0.0000E+00  0.0000E+00  0.0000E+00  0.0000E+00
    -47.867  0.0000E+00  0.0000E+00  0.0000E+00  0.0000E+00  0.0000E+00  0.0000E+00  0.0000E+00  0.0000E+00  0.0000E+00  0.0000E+00  0.0000E+00  0.0000E+00  0.0000E+00  0.0000E+00  0.0000E+00  0.0000E+00  0.0000E+00  0.0000E+00
    -47.607  0.0000E+00  0.0000E+00  0.0000E+00  0.0000E+00  0.0000E+00  0.0000E+00  0.0000E+00  0.0000E+00  0.0000E+00  0.0000E+00  0.0000E+00  0.0000E+00  0.0000E+00  0.0000E+00  0.0000E+00  0.0000E+00  0.0000E+00  0.0000E+00
    -47.347  0.0000E+00  0.0000E+00  0.0000E+00  0.0000E+00  0.0000E+00  0.0000E+00  0.0000E+00  0.0000E+00  0.0000E+00  0.0000E+00  0.0000E+00  0.0000E+00  0.0000E+00  0.0000E+00  0.0000E+00  0.0000E+00  0.0000E+00  0.0000E+00
    -47.087  0.0000E+00  0.0000E+00  0.0000E+00  0.0000E+00  0.0000E+00  0.0000E+00  0.0000E+00  0.0000E+00  0.0000E+00  0.0000E+00  0.0000E+00  0.0000E+00  0.0000E+00  0.0000E+00  0.0000E+00  0.0000E+00  0.0000E+00  0.0000E+00
    -46.828  0.0000E+00  0.0000E+00  0.0000E+00  0.0000E+00  0.0000E+00  0.0000E+00  0.0000E+00  0.0000E+00  0.0000E+00  0.0000E+00  0.0000E+00  0.0000E+00  0.0000E+00  0.0000E+00  0.0000E+00  0.0000E+00  0.0000E+00  0.0000E+00
    -46.568  0.0000E+00  0.0000E+00  0.0000E+00  0.0000E+00  0.0000E+00  0.0000E+00  0.0000E+00  0.0000E+00  0.0000E+00  0.0000E+00  0.0000E+00  0.0000E+00  0.0000E+00  0.0000E+00  0.0000E+00  0.0000E+00  0.0000E+00  0.0000E+00
    -46.308  0.0000E+00  0.0000E+00  0.0000E+00  0.0000E+00  0.0000E+00  0.0000E+00  0.0000E+00  0.0000E+00  0.0000E+00  0.0000E+00  0.0000E+00  0.0000E+00  0.0000E+00  0.0000E+00  0.0000E+00  0.0000E+00  0.0000E+00  0.0000E+00
    -46.048  0.0000E+00  0.0000E+00  0.0000E+00  0.0000E+00  0.0000E+00  0.0000E+00  0.0000E+00  0.0000E+00  0.0000E+00  0.0000E+00  0.0000E+00  0.0000E+00  0.0000E+00  0.0000E+00  0.0000E+00  0.0000E+00  0.0000E+00  0.0000E+00
    -45.789  0.1995E-08  0.0000E+00  0.1520E-03  0.0000E+00  0.3481E-05  0.0000E+00  0.2785E-03  0.0000E+00  0.4078E-09  0.0000E+00  0.3760E-09  0.0000E+00  0.3922E-09  0.0000E+00  0.3679E-09  0.0000E+00  0.1173E-08  0.0000E+00
    -45.529  0.3568E-06  0.0000E+00  0.2681E-01  0.0000E+00  0.8161E-03  0.0000E+00  0.4904E-01  0.0000E+00  0.7278E-07  0.0000E+00  0.7033E-07  0.0000E+00  0.7162E-07  0.0000E+00  0.6718E-07  0.0000E+00  0.2072E-06  0.0000E+00
    -45.269  0.2482E-04  0.0000E+00  0.1551E+01  0.0000E+00  0.1055E+00  0.0000E+00  0.2256E+01  0.0000E+00  0.5753E-05  0.0000E+00  0.7577E-05  0.0000E+00  0.5722E-05  0.0000E+00  0.6276E-05  0.0000E+00  0.1184E-04  0.0000E+00
    -45.009  0.5916E-04  0.0000E+00  0.2178E+01  0.0000E+00  0.2221E+01  0.0000E+00  0.1482E+01  0.0000E+00  0.1696E-04  0.0000E+00  0.3661E-04  0.0000E+00  0.2586E-04  0.0000E+00  0.2292E-04  0.0000E+00  0.1962E-04  0.0000E+00
    -44.750  0.1091E-04  0.0000E+00  0.2931E-01  0.0000E+00  0.1480E+01  0.0000E+00  0.2009E-01  0.0000E+00  0.4805E-05  0.0000E+00  0.9171E-05  0.0000E+00  0.7419E-05  0.0000E+00  0.7429E-05  0.0000E+00  0.2503E-05  0.0000E+00
    -44.490  0.0000E+00  0.0000E+00  0.0000E+00  0.0000E+00  0.0000E+00  0.0000E+00  0.0000E+00  0.0000E+00  0.0000E+00  0.0000E+00  0.0000E+00  0.0000E+00  0.0000E+00  0.0000E+00  0.0000E+00  0.0000E+00  0.0000E+00  0.0000E+00
    -44.230  0.0000E+00  0.0000E+00  0.0000E+00  0.0000E+00  0.0000E+00  0.0000E+00  0.0000E+00  0.0000E+00  0.0000E+00  0.0000E+00  0.0000E+00  0.0000E+00  0.0000E+00  0.0000E+00  0.0000E+00  0.0000E+00  0.0000E+00  0.0000E+00
    -43.970  0.0000E+00  0.0000E+00  0.0000E+00  0.0000E+00  0.0000E+00  0.0000E+00  0.0000E+00  0.0000E+00  0.0000E+00  0.0000E+00  0.0000E+00  0.0000E+00  0.0000E+00  0.0000E+00  0.0000E+00  0.0000E+00  0.0000E+00  0.0000E+00
    -43.710  0.0000E+00  0.0000E+00  0.0000E+00  0.0000E+00  0.0000E+00  0.0000E+00  0.0000E+00  0.0000E+00  0.0000E+00  0.0000E+00  0.0000E+00  0.0000E+00  0.0000E+00  0.0000E+00  0.0000E+00  0.0000E+00  0.0000E+00  0.0000E+00
    -43.451  0.0000E+00  0.5101E-09  0.0000E+00  0.3143E-04  0.0000E+00  0.2730E-06  0.0000E+00  0.4100E-04  0.0000E+00  0.1121E-09  0.0000E+00  0.7699E-10  0.0000E+00  0.1160E-09  0.0000E+00  0.1248E-09  0.0000E+00  0.3116E-09
    -43.191  0.0000E+00  0.9580E-07  0.0000E+00  0.5644E-02  0.0000E+00  0.6107E-04  0.0000E+00  0.7360E-02  0.0000E+00  0.2072E-07  0.0000E+00  0.1645E-07  0.0000E+00  0.2252E-07  0.0000E+00  0.2345E-07  0.0000E+00  0.5720E-07
    -42.931  0.0000E+00  0.1131E-04  0.0000E+00  0.5726E+00  0.0000E+00  0.9347E-02  0.0000E+00  0.7617E+00  0.0000E+00  0.2536E-05  0.0000E+00  0.2409E-05  0.0000E+00  0.2620E-05  0.0000E+00  0.3089E-05  0.0000E+00  0.5951E-05
    -42.671  0.0000E+00  0.6015E-04  0.0000E+00  0.1465E+01  0.0000E+00  0.2234E+00  0.0000E+00  0.1744E+01  0.0000E+00  0.1277E-04  0.0000E+00  0.3354E-04  0.0000E+00  0.2040E-04  0.0000E+00  0.2000E-04  0.0000E+00  0.2138E-04
    -42.412  0.0000E+00  0.4502E-04  0.0000E+00  0.1696E+01  0.0000E+00  0.2753E+01  0.0000E+00  0.1240E+01  0.0000E+00  0.1695E-04  0.0000E+00  0.2677E-04  0.0000E+00  0.2256E-04  0.0000E+00  0.1902E-04  0.0000E+00  0.1303E-04
    -42.152  0.0000E+00  0.3189E-05  0.0000E+00  0.3428E-01  0.0000E+00  0.8280E+00  0.0000E+00  0.2785E-01  0.0000E+00  0.1702E-05  0.0000E+00  0.2213E-05  0.0000E+00  0.2250E-05  0.0000E+00  0.2668E-05  0.0000E+00  0.1011E-05
    -41.892  0.0000E+00  0.0000E+00  0.0000E+00  0.0000E+00  0.0000E+00  0.0000E+00  0.0000E+00  0.0000E+00  0.0000E+00  0.0000E+00  0.0000E+00  0.0000E+00  0.0000E+00  0.0000E+00  0.0000E+00  0.0000E+00  0.0000E+00  0.0000E+00
    -41.632  0.0000E+00  0.0000E+00  0.0000E+00  0.0000E+00  0.0000E+00  0.0000E+00  0.0000E+00  0.0000E+00  0.0000E+00  0.0000E+00  0.0000E+00  0.0000E+00  0.0000E+00  0.0000E+00  0.0000E+00  0.0000E+00  0.0000E+00  0.0000E+00
    -41.373  0.0000E+00  0.0000E+00  0.0000E+00  0.0000E+00  0.0000E+00  0.0000E+00  0.0000E+00  0.0000E+00  0.0000E+00  0.0000E+00  0.0000E+00  0.0000E+00  0.0000E+00  0.0000E+00  0.0000E+00  0.0000E+00  0.0000E+00  0.0000E+00
    -41.113  0.0000E+00  0.0000E+00  0.0000E+00  0.0000E+00  0.0000E+00  0.0000E+00  0.0000E+00  0.0000E+00  0.0000E+00  0.0000E+00  0.0000E+00  0.0000E+00  0.0000E+00  0.0000E+00  0.0000E+00  0.0000E+00  0.0000E+00  0.0000E+00
    -40.853  0.0000E+00  0.0000E+00  0.0000E+00  0.0000E+00  0.0000E+00  0.0000E+00  0.0000E+00  0.0000E+00  0.0000E+00  0.0000E+00  0.0000E+00  0.0000E+00  0.0000E+00  0.0000E+00  0.0000E+00  0.0000E+00  0.0000E+00  0.0000E+00
    -40.593  0.0000E+00  0.0000E+00  0.0000E+00  0.0000E+00  0.0000E+00  0.0000E+00  0.0000E+00  0.0000E+00  0.0000E+00  0.0000E+00  0.0000E+00  0.0000E+00  0.0000E+00  0.0000E+00  0.0000E+00  0.0000E+00  0.0000E+00  0.0000E+00
    -40.334  0.0000E+00  0.0000E+00  0.0000E+00  0.0000E+00  0.0000E+00  0.0000E+00  0.0000E+00  0.0000E+00  0.0000E+00  0.0000E+00  0.0000E+00  0.0000E+00  0.0000E+00  0.0000E+00  0.0000E+00  0.0000E+00  0.0000E+00  0.0000E+00
    -40.074  0.0000E+00  0.0000E+00  0.0000E+00  0.0000E+00  0.0000E+00  0.0000E+00  0.0000E+00  0.0000E+00  0.0000E+00  0.0000E+00  0.0000E+00  0.0000E+00  0.0000E+00  0.0000E+00  0.0000E+00  0.0000E+00  0.0000E+00  0.0000E+00
    -39.814  0.0000E+00  0.0000E+00  0.0000E+00  0.0000E+00  0.0000E+00  0.0000E+00  0.0000E+00  0.0000E+00  0.0000E+00  0.0000E+00  0.0000E+00  0.0000E+00  0.0000E+00  0.0000E+00  0.0000E+00  0.0000E+00  0.0000E+00  0.0000E+00
    -39.554  0.0000E+00  0.0000E+00  0.0000E+00  0.0000E+00  0.0000E+00  0.0000E+00  0.0000E+00  0.0000E+00  0.0000E+00  0.0000E+00  0.0000E+00  0.0000E+00  0.0000E+00  0.0000E+00  0.0000E+00  0.0000E+00  0.0000E+00  0.0000E+00
    -39.295  0.0000E+00  0.0000E+00  0.0000E+00  0.0000E+00  0.0000E+00  0.0000E+00  0.0000E+00  0.0000E+00  0.0000E+00  0.0000E+00  0.0000E+00  0.0000E+00  0.0000E+00  0.0000E+00  0.0000E+00  0.0000E+00  0.0000E+00  0.0000E+00
    -39.035  0.0000E+00  0.0000E+00  0.0000E+00  0.0000E+00  0.0000E+00  0.0000E+00  0.0000E+00  0.0000E+00  0.0000E+00  0.0000E+00  0.0000E+00  0.0000E+00  0.0000E+00  0.0000E+00  0.0000E+00  0.0000E+00  0.0000E+00  0.0000E+00
    -38.775  0.0000E+00  0.0000E+00  0.0000E+00  0.0000E+00  0.0000E+00  0.0000E+00  0.0000E+00  0.0000E+00  0.0000E+00  0.0000E+00  0.0000E+00  0.0000E+00  0.0000E+00  0.0000E+00  0.0000E+00  0.0000E+00  0.0000E+00  0.0000E+00
    -38.515  0.0000E+00  0.0000E+00  0.0000E+00  0.0000E+00  0.0000E+00  0.0000E+00  0.0000E+00  0.0000E+00  0.0000E+00  0.0000E+00  0.0000E+00  0.0000E+00  0.0000E+00  0.0000E+00  0.0000E+00  0.0000E+00  0.0000E+00  0.0000E+00
    -38.256  0.0000E+00  0.0000E+00  0.0000E+00  0.0000E+00  0.0000E+00  0.0000E+00  0.0000E+00  0.0000E+00  0.0000E+00  0.0000E+00  0.0000E+00  0.0000E+00  0.0000E+00  0.0000E+00  0.0000E+00  0.0000E+00  0.0000E+00  0.0000E+00
    -37.996  0.0000E+00  0.0000E+00  0.0000E+00  0.0000E+00  0.0000E+00  0.0000E+00  0.0000E+00  0.0000E+00  0.0000E+00  0.0000E+00  0.0000E+00  0.0000E+00  0.0000E+00  0.0000E+00  0.0000E+00  0.0000E+00  0.0000E+00  0.0000E+00
    -37.736  0.0000E+00  0.0000E+00  0.0000E+00  0.0000E+00  0.0000E+00  0.0000E+00  0.0000E+00  0.0000E+00  0.0000E+00  0.0000E+00  0.0000E+00  0.0000E+00  0.0000E+00  0.0000E+00  0.0000E+00  0.0000E+00  0.0000E+00  0.0000E+00
    -37.476  0.0000E+00  0.0000E+00  0.0000E+00  0.0000E+00  0.0000E+00  0.0000E+00  0.0000E+00  0.0000E+00  0.0000E+00  0.0000E+00  0.0000E+00  0.0000E+00  0.0000E+00  0.0000E+00  0.0000E+00  0.0000E+00  0.0000E+00  0.0000E+00
    -37.217  0.0000E+00  0.0000E+00  0.0000E+00  0.0000E+00  0.0000E+00  0.0000E+00  0.0000E+00  0.0000E+00  0.0000E+00  0.0000E+00  0.0000E+00  0.0000E+00  0.0000E+00  0.0000E+00  0.0000E+00  0.0000E+00  0.0000E+00  0.0000E+00
    -36.957  0.0000E+00  0.0000E+00  0.0000E+00  0.0000E+00  0.0000E+00  0.0000E+00  0.0000E+00  0.0000E+00  0.0000E+00  0.0000E+00  0.0000E+00  0.0000E+00  0.0000E+00  0.0000E+00  0.0000E+00  0.0000E+00  0.0000E+00  0.0000E+00
    -36.697  0.0000E+00  0.0000E+00  0.0000E+00  0.0000E+00  0.0000E+00  0.0000E+00  0.0000E+00  0.0000E+00  0.0000E+00  0.0000E+00  0.0000E+00  0.0000E+00  0.0000E+00  0.0000E+00  0.0000E+00  0.0000E+00  0.0000E+00  0.0000E+00
    -36.437  0.0000E+00  0.0000E+00  0.0000E+00  0.0000E+00  0.0000E+00  0.0000E+00  0.0000E+00  0.0000E+00  0.0000E+00  0.0000E+00  0.0000E+00  0.0000E+00  0.0000E+00  0.0000E+00  0.0000E+00  0.0000E+00  0.0000E+00  0.0000E+00
    -36.178  0.0000E+00  0.0000E+00  0.0000E+00  0.0000E+00  0.0000E+00  0.0000E+00  0.0000E+00  0.0000E+00  0.0000E+00  0.0000E+00  0.0000E+00  0.0000E+00  0.0000E+00  0.0000E+00  0.0000E+00  0.0000E+00  0.0000E+00  0.0000E+00
    -35.918  0.0000E+00  0.0000E+00  0.0000E+00  0.0000E+00  0.0000E+00  0.0000E+00  0.0000E+00  0.0000E+00  0.0000E+00  0.0000E+00  0.0000E+00  0.0000E+00  0.0000E+00  0.0000E+00  0.0000E+00  0.0000E+00  0.0000E+00  0.0000E+00