  16  16   1   0
  0.1032162E+02  0.4600062E-09  0.5180097E-09  0.6930531E-09  0.5000000E-15
  1.000000000000000E-004
  CAR 
 unknown system                          
     29.71490177    -48.54669079  301      9.53463252      1.00000000
    -48.547  0.0000E+00  0.0000E+00  0.0000E+00  0.0000E+00
    -48.286  0.0000E+00  0.0000E+00  0.0000E+00  0.0000E+00
    -48.025  0.0000E+00  0.0000E+00  0.0000E+00  0.0000E+00
    -47.764  0.0000E+00  0.0000E+00  0.0000E+00  0.0000E+00
    -47.503  0.0000E+00  0.0000E+00  0.0000E+00  0.0000E+00
    -47.242  0.0000E+00  0.0000E+00  0.0000E+00  0.0000E+00
    -46.981  0.0000E+00  0.0000E+00  0.0000E+00  0.0000E+00
    -46.721  0.0000E+00  0.0000E+00  0.0000E+00  0.0000E+00
    -46.460  0.0000E+00  0.0000E+00  0.0000E+00  0.0000E+00
    -46.199  0.0000E+00  0.0000E+00  0.0000E+00  0.0000E+00
    -45.938  0.0000E+00  0.0000E+00  0.0000E+00  0.0000E+00
    -45.677  0.0000E+00  0.0000E+00  0.0000E+00  0.0000E+00
    -45.416  0.2172E-02  0.0000E+00  0.5667E-03  0.0000E+00
    -45.155  0.3979E+00  0.0000E+00  0.1044E+00  0.0000E+00
    -44.894  0.2709E+02  0.0000E+00  0.7171E+01  0.0000E+00
    -44.634  0.8135E+02  0.0000E+00  0.2839E+02  0.0000E+00
    -44.373  0.2765E+02  0.0000E+00  0.3589E+02  0.0000E+00
    -44.112  0.0000E+00  0.0000E+00  0.3600E+02  0.0000E+00
    -43.851  0.0000E+00  0.0000E+00  0.3600E+02  0.0000E+00
    -43.590  0.0000E+00  0.0000E+00  0.3600E+02  0.0000E+00
    -43.329  0.0000E+00  0.0000E+00  0.3600E+02  0.0000E+00
    -43.068  0.0000E+00  0.2077E-02  0.3600E+02  0.5418E-03
    -42.808  0.0000E+00  0.3784E+00  0.3600E+02  0.9925E-01
    -42.547  0.0000E+00  0.2345E+02  0.3600E+02  0.6216E+01
    -42.286  0.0000E+00  0.6174E+02  0.3600E+02  0.2232E+02
    -42.025  0.0000E+00  0.4806E+02  0.3600E+02  0.3511E+02
    -41.764  0.0000E+00  0.2613E+01  0.3600E+02  0.3600E+02
    -41.503  0.0000E+00  0.0000E+00  0.3600E+02  0.3600E+02
    -41.242  0.0000E+00  0.0000E+00  0.3600E+02  0.3600E+02
    -40.981  0.0000E+00  0.0000E+00  0.3600E+02  0.3600E+02
    -40.721  0.0000E+00  0.0000E+00  0.3600E+02  0.3600E+02
    -40.460  0.0000E+00  0.0000E+00  0.3600E+02  0.3600E+02
    -40.199  0.0000E+00  0.0000E+00  0.3600E+02  0.3600E+02
    -39.938  0.0000E+00  0.0000E+00  0.3600E+02  0.3600E+02
    -39.677  0.0000E+00  0.0000E+00  0.3600E+02  0.3600E+02
    -39.416  0.0000E+00  0.0000E+00  0.3600E+02  0.3600E+02
    -39.155  0.0000E+00  0.0000E+00  0.3600E+02  0.3600E+02
    -38.894  0.0000E+00  0.0000E+00  0.3600E+02  0.3600E+02
    -38.634  0.0000E+00  0.0000E+00  0.3600E+02  0.3600E+02
    -38.373  0.0000E+00  0.0000E+00  0.3600E+02  0.3600E+02
    -38.112  0.0000E+00  0.0000E+00  0.3600E+02  0.3600E+02
    -37.851  0.0000E+00  0.0000E+00  0.3600E+02  0.3600E+02
    -37.590  0.0000E+00  0.0000E+00  0.3600E+02  0.3600E+02
    -37.329  0.0000E+00  0.0000E+00  0.3600E+02  0.3600E+02
    -37.068  0.0000E+00  0.0000E+00  0.3600E+02  0.3600E+02
    -36.807  0.0000E+00  0.0000E+00  0.3600E+02  0.3600E+02
    -36.547  0.0000E+00  0.0000E+00  0.3600E+02  0.3600E+02
    -36.286  0.0000E+00  0.0000E+00  0.3600E+02  0.3600E+02
    -36.025  0.0000E+00  0.0000E+00  0.3600E+02  0.3600E+02
    -35.764  0.0000E+00  0.0000E+00  0.3600E+02  0.3600E+02
    -35.503  0.0000E+00  0.0000E+00  0.3600E+02  0.3600E+02
    -35.242  0.0000E+00  0.0000E+00  0.3600E+02  0.3600E+02
    -34.981  0.0000E+00  0.0000E+00  0.3600E+02  0.3600E+02
    -34.720  0.0000E+00  0.0000E+00  0.3600E+02  0.3600E+02
    -34.460  0.0000E+00  0.0000E+00  0.3600E+02  0.3600E+02
    -34.199  0.0000E+00  0.0000E+00  0.3600E+02  0.3600E+02
    -33.938  0.0000E+00  0.0000E+00  0.3600E+02  0.3600E+02
    -33.677  0.0000E+00  0.0000E+00  0.3600E+02  0.3600E+02
    -33.416  0.0000E+00  0.0000E+00  0.3600E+02  0.3600E+02
    -33.155  0.0000E+00  0.0000E+00  0.3600E+02  0.3600E+02
    -32.894  0.0000E+00  0.0000E+00  0.3600E+02  0.3600E+02
    -32.634  0.0000E+00  0.0000E+00  0.3600E+02  0.3600E+02
    -32.373  0.0000E+00  0.0000E+00  0.3600E+02  0.3600E+02
    -32.112  0.0000E+00  0.0000E+00  0.3600E+02  0.3600E+02
    -31.851  0.0000E+00  0.0000E+00  0.3600E+02  0.3600E+02
    -31.590  0.0000E+00  0.0000E+00  0.3600E+02  0.3600E+02
    -31.329  0.0000E+00  0.0000E+00  0.3600E+02  0.3600E+02
    -31.068  0.0000E+00  0.0000E+00  0.3600E+02  0.3600E+02
    -30.807  0.0000E+00  0.0000E+00  0.3600E+02  0.3600E+02
    -30.547  0.0000E+00  0.0000E+00  0.3600E+02  0.3600E+02
    -30.286  0.0000E+00  0.0000E+00  0.3600E+02  0.3600E+02
    -30.025  0.0000E+00  0.0000E+00  0.3600E+02  0.3600E+02
    -29.764  0.0000E+00  0.0000E+00  0.3600E+02  0.3600E+02
    -29.503  0.0000E+00  0.0000E+00  0.3600E+02  0.3600E+02
    -29.242  0.0000E+00  0.0000E+00  0.3600E+02  0.3600E+02
    -28.981  0.0000E+00  0.0000E+00  0.3600E+02  0.3600E+02
    -28.720  0.0000E+00  0.0000E+00  0.3600E+02  0.3600E+02
    -28.460  0.0000E+00  0.0000E+00  0.3600E+02  0.3600E+02
    -28.199  0.0000E+00  0.0000E+00  0.3600E+02  0.3600E+02
    -27.938  0.0000E+00  0.0000E+00  0.3600E+02  0.3600E+02
    -27.677  0.0000E+00  0.0000E+00  0.3600E+02  0.3600E+02
    -27.416  0.0000E+00  0.0000E+00  0.3600E+02  0.3600E+02
    -27.155  0.0000E+00  0.0000E+00  0.3600E+02  0.3600E+02
    -26.894  0.0000E+00  0.0000E+00  0.3600E+02  0.3600E+02
    -26.633  0.0000E+00  0.0000E+00  0.3600E+02  0.3600E+02
    -26.373  0.0000E+00  0.0000E+00  0.3600E+02  0.3600E+02
    -26.112  0.0000E+00  0.0000E+00  0.3600E+02  0.3600E+02
    -25.851  0.0000E+00  0.0000E+00  0.3600E+02  0.3600E+02
    -25.590  0.0000E+00  0.0000E+00  0.3600E+02  0.3600E+02
    -25.329  0.0000E+00  0.0000E+00  0.3600E+02  0.3600E+02
    -25.068  0.0000E+00  0.0000E+00  0.3600E+02  0.3600E+02
    -24.807  0.0000E+00  0.0000E+00  0.3600E+02  0.3600E+02
    -24.546  0.0000E+00  0.0000E+00  0.3600E+02  0.3600E+02
    -24.286  0.0000E+00  0.0000E+00  0.3600E+02  0.3600E+02
    -24.025  0.0000E+00  0.0000E+00  0.3600E+02  0.3600E+02
    -23.764  0.0000E+00  0.0000E+00  0.3600E+02  0.3600E+02
    -23.503  0.0000E+00  0.0000E+00  0.3600E+02  0.3600E+02
    -23.242  0.0000E+00  0.0000E+00  0.3600E+02  0.3600E+02
    -22.981  0.0000E+00  0.0000E+00  0.3600E+02  0.3600E+02
    -22.720  0.0000E+00  0.0000E+00  0.3600E+02  0.3600E+02
    -22.459  0.0000E+00  0.0000E+00  0.3600E+02  0.3600E+02
    -22.199  0.0000E+00  0.0000E+00  0.3600E+02  0.3600E+02
    -21.938  0.0000E+00  0.0000E+00  0.3600E+02  0.3600E+02
    -21.677  0.0000E+00  0.0000E+00  0.3600E+02  0.3600E+02
    -21.416  0.0000E+00  0.0000E+00  0.3600E+02  0.3600E+02
    -21.155  0.0000E+00  0.0000E+00  0.3600E+02  0.3600E+02
    -20.894  0.0000E+00  0.0000E+00  0.3600E+02  0.3600E+02
    -20.633  0.0000E+00  0.0000E+00  0.3600E+02  0.3600E+02
    -20.373  0.0000E+00  0.0000E+00  0.3600E+02  0.3600E+02
    -20.112  0.0000E+00  0.0000E+00  0.3600E+02  0.3600E+02
    -19.851  0.0000E+00  0.0000E+00  0.3600E+02  0.3600E+02
    -19.590  0.0000E+00  0.0000E+00  0.3600E+02  0.3600E+02
    -19.329  0.0000E+00  0.0000E+00  0.3600E+02  0.3600E+02
    -19.068  0.0000E+00  0.0000E+00  0.3600E+02  0.3600E+02
    -18.807  0.0000E+00  0.0000E+00  0.3600E+02  0.3600E+02
    -18.546  0.0000E+00  0.0000E+00  0.3600E+02  0.3600E+02
    -18.286  0.0000E+00  0.0000E+00  0.3600E+02  0.3600E+02
    -18.025  0.0000E+00  0.0000E+00  0.3600E+02  0.3600E+02
    -17.764  0.0000E+00  0.0000E+00  0.3600E+02  0.3600E+02
    -17.503  0.0000E+00  0.0000E+00  0.3600E+02  0.3600E+02
    -17.242  0.0000E+00  0.0000E+00  0.3600E+02  0.3600E+02
    -16.981  0.0000E+00  0.0000E+00  0.3600E+02  0.3600E+02
    -16.720  0.0000E+00  0.0000E+00  0.3600E+02  0.3600E+02
    -16.459  0.0000E+00  0.0000E+00  0.3600E+02  0.3600E+02
    -16.199  0.0000E+00  0.0000E+00  0.3600E+02  0.3600E+02
    -15.938  0.0000E+00  0.0000E+00  0.3600E+02  0.3600E+02
    -15.677  0.0000E+00  0.0000E+00  0.3600E+02  0.3600E+02
    -15.416  0.0000E+00  0.0000E+00  0.3600E+02  0.3600E+02
    -15.155  0.0000E+00  0.0000E+00  0.3600E+02  0.3600E+02
    -14.894  0.0000E+00  0.0000E+00  0.3600E+02  0.3600E+02
    -14.633  0.0000E+00  0.0000E+00  0.3600E+02  0.3600E+02
    -14.372  0.0000E+00  0.0000E+00  0.3600E+02  0.3600E+02
    -14.112  0.0000E+00  0.0000E+00  0.3600E+02  0.3600E+02
    -13.851  0.0000E+00  0.0000E+00  0.3600E+02  0.3600E+02
    -13.590  0.0000E+00  0.0000E+00  0.3600E+02  0.3600E+02
    -13.329  0.0000E+00  0.0000E+00  0.3600E+02  0.3600E+02
    -13.068  0.0000E+00  0.0000E+00  0.3600E+02  0.3600E+02
    -12.807  0.0000E+00  0.0000E+00  0.3600E+02  0.3600E+02
    -12.546  0.0000E+00  0.0000E+00  0.3600E+02  0.3600E+02
    -12.285  0.0000E+00  0.0000E+00  0.3600E+02  0.3600E+02
    -12.025  0.0000E+00  0.0000E+00  0.3600E+02  0.3600E+02
    -11.764  0.0000E+00  0.0000E+00  0.3600E+02  0.3600E+02
    -11.503  0.0000E+00  0.0000E+00  0.3600E+02  0.3600E+02
    -11.242  0.0000E+00  0.0000E+00  0.3600E+02  0.3600E+02
    -10.981  0.0000E+00  0.0000E+00  0.3600E+02  0.3600E+02
    -10.720  0.0000E+00  0.0000E+00  0.3600E+02  0.3600E+02
    -10.459  0.0000E+00  0.0000E+00  0.3600E+02  0.3600E+02
    -10.199  0.0000E+00  0.0000E+00  0.3600E+02  0.3600E+02
     -9.938  0.0000E+00  0.0000E+00  0.3600E+02  0.3600E+02
     -9.677  0.0000E+00  0.0000E+00  0.3600E+02  0.3600E+02
     -9.416  0.0000E+00  0.0000E+00  0.3600E+02  0.3600E+02
     -9.155  0.0000E+00  0.0000E+00  0.3600E+02  0.3600E+02
     -8.894  0.0000E+00  0.0000E+00  0.3600E+02  0.3600E+02
     -8.633  0.0000E+00  0.0000E+00  0.3600E+02  0.3600E+02
     -8.372  0.0000E+00  0.0000E+00  0.3600E+02  0.3600E+02
     -8.112  0.0000E+00  0.0000E+00  0.3600E+02  0.3600E+02
     -7.851  0.0000E+00  0.0000E+00  0.3600E+02  0.3600E+02
     -7.590  0.0000E+00  0.0000E+00  0.3600E+02  0.3600E+02
     -7.329  0.0000E+00  0.0000E+00  0.3600E+02  0.3600E+02
     -7.068  0.0000E+00  0.0000E+00  0.3600E+02  0.3600E+02
     -6.807  0.0000E+00  0.0000E+00  0.3600E+02  0.3600E+02
     -6.546  0.0000E+00  0.0000E+00  0.3600E+02  0.3600E+02
     -6.285  0.0000E+00  0.0000E+00  0.3600E+02  0.3600E+02
     -6.025  0.0000E+00  0.0000E+00  0.3600E+02  0.3600E+02
     -5.764  0.0000E+00  0.0000E+00  0.3600E+02  0.3600E+02
     -5.503  0.0000E+00  0.0000E+00  0.3600E+02  0.3600E+02
     -5.242  0.0000E+00  0.0000E+00  0.3600E+02  0.3600E+02
     -4.981  0.0000E+00  0.0000E+00  0.3600E+02  0.3600E+02
     -4.720  0.0000E+00  0.0000E+00  0.3600E+02  0.3600E+02
     -4.459  0.0000E+00  0.0000E+00  0.3600E+02  0.3600E+02
     -4.198  0.1301E-06  0.5854E-06  0.3600E+02  0.3600E+02
     -3.938  0.3875E-04  0.1251E-03  0.3600E+02  0.3600E+02
     -3.677  0.6566E-02  0.1822E-01  0.3600E+02  0.3600E+02
     -3.416  0.1864E+00  0.3014E+00  0.3605E+02  0.3608E+02
     -3.155  0.6833E+00  0.7583E+00  0.3623E+02  0.3628E+02
     -2.894  0.9184E+00  0.1179E+01  0.3647E+02  0.3659E+02
     -2.633  0.1785E+01  0.2006E+01  0.3694E+02  0.3712E+02
     -2.372  0.2683E+01  0.3074E+01  0.3764E+02  0.3793E+02
     -2.111  0.2936E+01  0.2891E+01  0.3842E+02  0.3869E+02
     -1.851  0.3578E+01  0.3271E+01  0.3936E+02  0.3955E+02
     -1.590  0.2018E+01  0.1563E+01  0.3990E+02  0.3997E+02
     -1.329  0.3786E+00  0.9299E-01  0.4000E+02  0.4000E+02
     -1.068  0.0000E+00  0.0000E+00  0.4000E+02  0.4000E+02
     -0.807  0.0000E+00  0.0000E+00  0.4000E+02  0.4000E+02
     -0.546  0.0000E+00  0.0000E+00  0.4000E+02  0.4000E+02
     -0.285  0.0000E+00  0.0000E+00  0.4000E+02  0.4000E+02
     -0.025  0.0000E+00  0.0000E+00  0.4000E+02  0.4000E+02
      0.236  0.0000E+00  0.0000E+00  0.4000E+02  0.4000E+02
      0.497  0.0000E+00  0.0000E+00  0.4000E+02  0.4000E+02
      0.758  0.0000E+00  0.0000E+00  0.4000E+02  0.4000E+02
      1.019  0.0000E+00  0.0000E+00  0.4000E+02  0.4000E+02
      1.280  0.0000E+00  0.0000E+00  0.4000E+02  0.4000E+02
      1.541  0.0000E+00  0.0000E+00  0.4000E+02  0.4000E+02
      1.802  0.3166E-05  0.6990E-07  0.4000E+02  0.4000E+02
      2.062  0.6147E-03  0.1491E-04  0.4000E+02  0.4000E+02
      2.323  0.4899E-01  0.2642E-02  0.4001E+02  0.4000E+02
      2.584  0.8197E+00  0.8828E-01  0.4023E+02  0.4002E+02
      2.845  0.3366E+01  0.9307E+00  0.4111E+02  0.4027E+02
      3.106  0.4117E+01  0.2670E+01  0.4219E+02  0.4096E+02
      3.367  0.5165E+01  0.3544E+01  0.4355E+02  0.4190E+02
      3.628  0.4018E+01  0.4005E+01  0.4461E+02  0.4295E+02
      3.889  0.3587E+01  0.4160E+01  0.4556E+02  0.4405E+02
      4.149  0.3522E+01  0.3443E+01  0.4649E+02  0.4496E+02
      4.410  0.4681E+01  0.2845E+01  0.4772E+02  0.4572E+02
      4.671  0.5804E+01  0.2917E+01  0.4925E+02  0.4648E+02
      4.932  0.7560E+01  0.3719E+01  0.5124E+02  0.4746E+02
      5.193  0.3143E+01  0.5142E+01  0.5208E+02  0.4882E+02
      5.454  0.2635E+01  0.6623E+01  0.5278E+02  0.5056E+02
      5.715  0.7965E+01  0.5041E+01  0.5487E+02  0.5189E+02
      5.976  0.1214E+02  0.4684E+00  0.5806E+02  0.5204E+02
      6.236  0.1342E+02  0.6651E+00  0.6160E+02  0.5222E+02
      6.497  0.1370E+02  0.1395E+01  0.6521E+02  0.5258E+02
      6.758  0.1137E+02  0.4107E+01  0.6821E+02  0.5366E+02
      7.019  0.1424E+02  0.6281E+01  0.7197E+02  0.5531E+02
      7.280  0.1454E+02  0.6842E+01  0.7580E+02  0.5711E+02
      7.541  0.1316E+02  0.9404E+01  0.7928E+02  0.5958E+02
      7.802  0.1113E+02  0.1101E+02  0.8223E+02  0.6248E+02
      8.063  0.1358E+02  0.1132E+02  0.8580E+02  0.6546E+02
      8.323  0.1529E+02  0.8596E+01  0.8983E+02  0.6774E+02
      8.584  0.1696E+02  0.5007E+01  0.9430E+02  0.6908E+02
      8.845  0.1803E+02  0.1261E+02  0.9905E+02  0.7238E+02
      9.106  0.1054E+02  0.1172E+02  0.1019E+03  0.7546E+02
      9.367  0.5869E+01  0.1126E+02  0.1034E+03  0.7844E+02
      9.628  0.4033E+01  0.7590E+01  0.1045E+03  0.8045E+02
      9.889  0.3228E+01  0.9157E+01  0.1053E+03  0.8286E+02
     10.150  0.3436E+01  0.1126E+02  0.1063E+03  0.8583E+02
     10.410  0.3419E+01  0.1186E+02  0.1072E+03  0.8895E+02
     10.671  0.3191E+01  0.1445E+02  0.1080E+03  0.9275E+02
     10.932  0.3458E+01  0.1525E+02  0.1089E+03  0.9677E+02
     11.193  0.3008E+01  0.1612E+02  0.1097E+03  0.1010E+03
     11.454  0.2938E+01  0.9938E+01  0.1105E+03  0.1037E+03
     11.715  0.3392E+01  0.6157E+01  0.1114E+03  0.1053E+03
     11.976  0.2644E+01  0.5680E+01  0.1121E+03  0.1068E+03
     12.236  0.6551E+00  0.4324E+01  0.1122E+03  0.1080E+03
     12.497  0.1467E+01  0.4721E+01  0.1126E+03  0.1092E+03
     12.758  0.2247E+01  0.3364E+01  0.1132E+03  0.1101E+03
     13.019  0.2378E+01  0.4476E+01  0.1138E+03  0.1113E+03
     13.280  0.2181E+01  0.2985E+01  0.1144E+03  0.1121E+03
     13.541  0.1547E+01  0.1196E+01  0.1148E+03  0.1124E+03
     13.802  0.2771E+01  0.2535E+01  0.1155E+03  0.1130E+03
     14.063  0.2927E+01  0.3131E+01  0.1163E+03  0.1139E+03
     14.323  0.2267E+01  0.2664E+01  0.1169E+03  0.1146E+03
     14.584  0.2377E+01  0.3212E+01  0.1176E+03  0.1154E+03
     14.845  0.1824E+01  0.3084E+01  0.1180E+03  0.1162E+03
     15.106  0.1001E+01  0.2517E+01  0.1183E+03  0.1169E+03
     15.367  0.1549E+01  0.3038E+01  0.1187E+03  0.1177E+03
     15.628  0.1504E+01  0.1592E+01  0.1191E+03  0.1181E+03
     15.889  0.1592E+01  0.1096E+01  0.1195E+03  0.1184E+03
     16.150  0.1184E+01  0.1652E+01  0.1198E+03  0.1188E+03
     16.410  0.1568E+01  0.1315E+01  0.1203E+03  0.1192E+03
     16.671  0.2027E+01  0.1684E+01  0.1208E+03  0.1196E+03
     16.932  0.2441E+01  0.1432E+01  0.1214E+03  0.1200E+03
     17.193  0.2206E+01  0.1797E+01  0.1220E+03  0.1205E+03
     17.454  0.1637E+01  0.2430E+01  0.1225E+03  0.1211E+03
     17.715  0.2926E+01  0.2426E+01  0.1232E+03  0.1218E+03
     17.976  0.3381E+01  0.1723E+01  0.1241E+03  0.1222E+03
     18.237  0.2487E+01  0.2269E+01  0.1248E+03  0.1228E+03
     18.497  0.1568E+01  0.3086E+01  0.1252E+03  0.1236E+03
     18.758  0.2207E+01  0.3394E+01  0.1258E+03  0.1245E+03
     19.019  0.2696E+01  0.2158E+01  0.1265E+03  0.1251E+03
     19.280  0.3007E+01  0.1246E+01  0.1273E+03  0.1254E+03
     19.541  0.2465E+01  0.2778E+01  0.1279E+03  0.1262E+03
     19.802  0.2149E+01  0.3009E+01  0.1285E+03  0.1269E+03
     20.063  0.2188E+01  0.3162E+01  0.1291E+03  0.1278E+03
     20.324  0.2793E+01  0.2507E+01  0.1298E+03  0.1284E+03
     20.584  0.3896E+01  0.2137E+01  0.1308E+03  0.1290E+03
     20.845  0.2729E+01  0.2838E+01  0.1316E+03  0.1298E+03
     21.106  0.2687E+01  0.4043E+01  0.1323E+03  0.1308E+03
     21.367  0.2733E+01  0.3032E+01  0.1330E+03  0.1316E+03
     21.628  0.2550E+01  0.2728E+01  0.1337E+03  0.1323E+03
     21.889  0.3105E+01  0.2814E+01  0.1345E+03  0.1331E+03
     22.150  0.2821E+01  0.2629E+01  0.1352E+03  0.1338E+03
     22.410  0.2935E+01  0.3408E+01  0.1360E+03  0.1347E+03
     22.671  0.2732E+01  0.3153E+01  0.1367E+03  0.1355E+03
     22.932  0.2921E+01  0.2413E+01  0.1375E+03  0.1362E+03
     23.193  0.3030E+01  0.3059E+01  0.1383E+03  0.1370E+03
     23.454  0.3148E+01  0.2682E+01  0.1391E+03  0.1377E+03
     23.715  0.2620E+01  0.3078E+01  0.1398E+03  0.1385E+03
     23.976  0.2500E+01  0.3057E+01  0.1405E+03  0.1393E+03
     24.237  0.2166E+01  0.2622E+01  0.1411E+03  0.1400E+03
     24.497  0.2825E+01  0.2435E+01  0.1418E+03  0.1406E+03
     24.758  0.3250E+01  0.2369E+01  0.1426E+03  0.1413E+03
     25.019  0.2400E+01  0.3123E+01  0.1433E+03  0.1421E+03
     25.280  0.1908E+01  0.2983E+01  0.1438E+03  0.1429E+03
     25.541  0.4470E+00  0.2518E+01  0.1439E+03  0.1435E+03
     25.802  0.3172E+00  0.1203E+01  0.1440E+03  0.1439E+03
     26.063  0.2803E-01  0.2498E+00  0.1440E+03  0.1439E+03
     26.324  0.0000E+00  0.2213E+00  0.1440E+03  0.1440E+03
     26.584  0.0000E+00  0.0000E+00  0.1440E+03  0.1440E+03
     26.845  0.0000E+00  0.0000E+00  0.1440E+03  0.1440E+03
     27.106  0.0000E+00  0.0000E+00  0.1440E+03  0.1440E+03
     27.367  0.0000E+00  0.0000E+00  0.1440E+03  0.1440E+03
     27.628  0.0000E+00  0.0000E+00  0.1440E+03  0.1440E+03
     27.889  0.0000E+00  0.0000E+00  0.1440E+03  0.1440E+03
     28.150  0.0000E+00  0.0000E+00  0.1440E+03  0.1440E+03
     28.411  0.0000E+00  0.0000E+00  0.1440E+03  0.1440E+03
     28.671  0.0000E+00  0.0000E+00  0.1440E+03  0.1440E+03
     28.932  0.0000E+00  0.0000E+00  0.1440E+03  0.1440E+03
     29.193  0.0000E+00  0.0000E+00  0.1440E+03  0.1440E+03
     29.454  0.0000E+00  0.0000E+00  0.1440E+03  0.1440E+03
     29.715  0.0000E+00  0.0000E+00  0.1440E+03  0.1440E+03
     29.71490177    -48.54669079  301      9.53463252      1.00000000
    -48.547  0.0000E+00  0.0000E+00  0.0000E+00  0.0000E+00  0.0000E+00  0.0000E+00  0.0000E+00  0.0000E+00  0.0000E+00  0.0000E+00  0.0000E+00  0.0000E+00  0.0000E+00  0.0000E+00  0.0000E+00  0.0000E+00  0.0000E+00  0.0000E+00
    -48.286  0.0000E+00  0.0000E+00  0.0000E+00  0.0000E+00  0.0000E+00  0.0000E+00  0.0000E+00  0.0000E+00  0.0000E+00  0.0000E+00  0.0000E+00  0.0000E+00  0.0000E+00  0.0000E+00  0.0000E+00  0.0000E+00  0.0000E+00  0.0000E+00
    -48.025  0.0000E+00  0.0000E+00  0.0000E+00  0.0000E+00  0.0000E+00  0.0000E+00  0.0000E+00  0.0000E+00  0.0000E+00  0.0000E+00  0.0000E+00  0.0000E+00  0.0000E+00  0.0000E+00  0.0000E+00  0.0000E+00  0.0000E+00  0.0000E+00
    -47.764  0.0000E+00  0.0000E+00  0.0000E+00  0.0000E+00  0.0000E+00  0.0000E+00  0.0000E+00  0.0000E+00  0.0000E+00  0.0000E+00  0.0000E+00  0.0000E+00  0.0000E+00  0.0000E+00  0.0000E+00  0.0000E+00  0.0000E+00  0.0000E+00
    -47.503  0.0000E+00  0.0000E+00  0.0000E+00  0.0000E+00  0.0000E+00  0.0000E+00  0.0000E+00  0.0000E+00  0.0000E+00  0.0000E+00  0.0000E+00  0.0000E+00  0.0000E+00  0.0000E+00  0.0000E+00  0.0000E+00  0.0000E+00  0.0000E+00
    -47.242  0.0000E+00  0.0000E+00  0.0000E+00  0.0000E+00  0.0000E+00  0.0000E+00  0.0000E+00  0.0000E+00  0.0000E+00  0.0000E+00  0.0000E+00  0.0000E+00  0.0000E+00  0.0000E+00  0.0000E+00  0.0000E+00  0.0000E+00  0.0000E+00
    -46.981  0.0000E+00  0.0000E+00  0.0000E+00  0.0000E+00  0.0000E+00  0.0000E+00  0.0000E+00  0.0000E+00  0.0000E+00  0.0000E+00  0.0000E+00  0.0000E+00  0.0000E+00  0.0000E+00  0.0000E+00  0.0000E+00  0.0000E+00  0.0000E+00
    -46.721  0.0000E+00  0.0000E+00  0.0000E+00  0.0000E+00  0.0000E+00  0.0000E+00  0.0000E+00  0.0000E+00  0.0000E+00  0.0000E+00  0.0000E+00  0.0000E+00  0.0000E+00  0.0000E+00  0.0000E+00  0.0000E+00  0.0000E+00  0.0000E+00
    -46.460  0.0000E+00  0.0000E+00  0.0000E+00  0.0000E+00  0.0000E+00  0.0000E+00  0.0000E+00  0.0000E+00  0.0000E+00  0.0000E+00  0.0000E+00  0.0000E+00  0.0000E+00  0.0000E+00  0.0000E+00  0.0000E+00  0.0000E+00  0.0000E+00
    -46.199  0.0000E+00  0.0000E+00  0.0000E+00  0.0000E+00  0.0000E+00  0.0000E+00  0.0000E+00  0.0000E+00  0.0000E+00  0.0000E+00  0.0000E+00  0.0000E+00  0.0000E+00  0.0000E+00  0.0000E+00  0.0000E+00  0.0000E+00  0.0000E+00
    -45.938  0.0000E+00  0.0000E+00  0.0000E+00  0.0000E+00  0.0000E+00  0.0000E+00  0.0000E+00  0.0000E+00  0.0000E+00  0.0000E+00  0.0000E+00  0.0000E+00  0.0000E+00  0.0000E+00  0.0000E+00  0.0000E+00  0.0000E+00  0.0000E+00
    -45.677  0.0000E+00  0.0000E+00  0.0000E+00  0.0000E+00  0.0000E+00  0.0000E+00  0.0000E+00  0.0000E+00  0.0000E+00  0.0000E+00  0.0000E+00  0.0000E+00  0.0000E+00  0.0000E+00  0.0000E+00  0.0000E+00  0.0000E+00  0.0000E+00
    -45.416  0.2195E-08  0.0000E+00  0.1293E-03  0.0000E+00  0.3099E-05  0.0000E+00  0.2120E-03  0.0000E+00  0.4483E-09  0.0000E+00  0.4231E-09  0.0000E+00  0.4214E-09  0.0000E+00  0.4263E-09  0.0000E+00  0.1262E-08  0.0000E+00
    -45.155  0.4022E-06  0.0000E+00  0.2336E-01  0.0000E+00  0.7130E-03  0.0000E+00  0.3827E-01  0.0000E+00  0.8184E-07  0.0000E+00  0.8105E-07  0.0000E+00  0.7914E-07  0.0000E+00  0.7974E-07  0.0000E+00  0.2282E-06  0.0000E+00
    -44.894  0.2924E-04  0.0000E+00  0.1386E+01  0.0000E+00  0.9035E-01  0.0000E+00  0.1998E+01  0.0000E+00  0.6541E-05  0.0000E+00  0.8844E-05  0.0000E+00  0.6509E-05  0.0000E+00  0.7494E-05  0.0000E+00  0.1384E-04  0.0000E+00
    -44.634  0.7191E-04  0.0000E+00  0.2300E+01  0.0000E+00  0.1856E+01  0.0000E+00  0.1713E+01  0.0000E+00  0.2042E-04  0.0000E+00  0.4397E-04  0.0000E+00  0.3105E-04  0.0000E+00  0.2741E-04  0.0000E+00  0.2509E-04  0.0000E+00
    -44.373  0.1583E-04  0.0000E+00  0.4508E-01  0.0000E+00  0.1834E+01  0.0000E+00  0.3206E-01  0.0000E+00  0.6953E-05  0.0000E+00  0.1324E-04  0.0000E+00  0.1080E-04  0.0000E+00  0.1069E-04  0.0000E+00  0.3835E-05  0.0000E+00
    -44.112  0.0000E+00  0.0000E+00  0.0000E+00  0.0000E+00  0.0000E+00  0.0000E+00  0.0000E+00  0.0000E+00  0.0000E+00  0.0000E+00  0.0000E+00  0.0000E+00  0.0000E+00  0.0000E+00  0.0000E+00  0.0000E+00  0.0000E+00  0.0000E+00
    -43.851  0.0000E+00  0.0000E+00  0.0000E+00  0.0000E+00  0.0000E+00  0.0000E+00  0.0000E+00  0.0000E+00  0.0000E+00  0.0000E+00  0.0000E+00  0.0000E+00  0.0000E+00  0.0000E+00  0.0000E+00  0.0000E+00  0.0000E+00  0.0000E+00
    -43.590  0.0000E+00  0.0000E+00  0.0000E+00  0.0000E+00  0.0000E+00  0.0000E+00  0.0000E+00  0.0000E+00  0.0000E+00  0.0000E+00  0.0000E+00  0.0000E+00  0.0000E+00  0.0000E+00  0.0000E+00  0.0000E+00  0.0000E+00  0.0000E+00
    -43.329  0.0000E+00  0.0000E+00  0.0000E+00  0.0000E+00  0.0000E+00  0.0000E+00  0.0000E+00  0.0000E+00  0.0000E+00  0.0000E+00  0.0000E+00  0.0000E+00  0.0000E+00  0.0000E+00  0.0000E+00  0.0000E+00  0.0000E+00  0.0000E+00
    -43.068  0.0000E+00  0.2641E-08  0.0000E+00  0.1213E-03  0.0000E+00  0.1354E-05  0.0000E+00  0.1502E-03  0.0000E+00  0.5754E-09  0.0000E+00  0.4271E-09  0.0000E+00  0.6104E-09  0.0000E+00  0.6686E-09  0.0000E+00  0.1556E-08
    -42.808  0.0000E+00  0.4830E-06  0.0000E+00  0.2187E-01  0.0000E+00  0.2751E-03  0.0000E+00  0.2710E-01  0.0000E+00  0.1047E-06  0.0000E+00  0.8140E-07  0.0000E+00  0.1118E-06  0.0000E+00  0.1231E-06  0.0000E+00  0.2806E-06
    -42.547  0.0000E+00  0.3059E-04  0.0000E+00  0.1034E+01  0.0000E+00  0.2888E-01  0.0000E+00  0.1324E+01  0.0000E+00  0.7182E-05  0.0000E+00  0.8480E-05  0.0000E+00  0.7371E-05  0.0000E+00  0.9431E-05  0.0000E+00  0.1446E-04
    -42.286  0.0000E+00  0.7329E-04  0.0000E+00  0.1467E+01  0.0000E+00  0.4239E+00  0.0000E+00  0.1493E+01  0.0000E+00  0.1594E-04  0.0000E+00  0.4519E-04  0.0000E+00  0.2747E-04  0.0000E+00  0.2402E-04  0.0000E+00  0.2384E-04
    -42.025  0.0000E+00  0.4062E-04  0.0000E+00  0.1256E+01  0.0000E+00  0.2995E+01  0.0000E+00  0.9385E+00  0.0000E+00  0.1771E-04  0.0000E+00  0.2474E-04  0.0000E+00  0.2278E-04  0.0000E+00  0.2060E-04  0.0000E+00  0.1269E-04
    -41.764  0.0000E+00  0.6244E-06  0.0000E+00  0.3304E-02  0.0000E+00  0.3420E+00  0.0000E+00  0.4504E-02  0.0000E+00  0.6829E-06  0.0000E+00  0.7635E-06  0.0000E+00  0.6406E-06  0.0000E+00  0.8939E-06  0.0000E+00  0.2251E-06
    -41.503  0.0000E+00  0.0000E+00  0.0000E+00  0.0000E+00  0.0000E+00  0.0000E+00  0.0000E+00  0.0000E+00  0.0000E+00  0.0000E+00  0.0000E+00  0.0000E+00  0.0000E+00  0.0000E+00  0.0000E+00  0.0000E+00  0.0000E+00  0.0000E+00
    -41.242  0.0000E+00  0.0000E+00  0.0000E+00  0.0000E+00  0.0000E+00  0.0000E+00  0.0000E+00  0.0000E+00  0.0000E+00  0.0000E+00  0.0000E+00  0.0000E+00  0.0000E+00  0.0000E+00  0.0000E+00  0.0000E+00  0.0000E+00  0.0000E+00
    -40.981  0.0000E+00  0.0000E+00  0.0000E+00  0.0000E+00  0.0000E+00  0.0000E+00  0.0000E+00  0.0000E+00  0.0000E+00  0.0000E+00  0.0000E+00  0.0000E+00  0.0000E+00  0.0000E+00  0.0000E+00  0.0000E+00  0.0000E+00  0.0000E+00
    -40.721  0.0000E+00  0.0000E+00  0.0000E+00  0.0000E+00  0.0000E+00  0.0000E+00  0.0000E+00  0.0000E+00  0.0000E+00  0.0000E+00  0.0000E+00  0.0000E+00  0.0000E+00  0.0000E+00  0.0000E+00  0.0000E+00  0.0000E+00  0.0000E+00
    -40.460  0.0000E+00  0.0000E+00  0.0000E+00  0.0000E+00  0.0000E+00  0.0000E+00  0.0000E+00  0.0000E+00  0.0000E+00  0.0000E+00  0.0000E+00  0.0000E+00  0.0000E+00  0.0000E+00  0.0000E+00  0.0000E+00  0.0000E+00  0.0000E+00
    -40.199  0.0000E+00  0.0000E+00  0.0000E+00  0.0000E+00  0.0000E+00  0.0000E+00  0.0000E+00  0.0000E+00  0.0000E+00  0.0000E+00  0.0000E+00  0.0000E+00  0.0000E+00  0.0000E+00  0.0000E+00  0.0000E+00  0.0000E+00  0.0000E+00
    -39.938  0.0000E+00  0.0000E+00  0.0000E+00  0.0000E+00  0.0000E+00  0.0000E+00  0.0000E+00  0.0000E+00  0.0000E+00  0.0000E+00  0.0000E+00  0.0000E+00  0.0000E+00  0.0000E+00  0.0000E+00  0.0000E+00  0.0000E+00  0.0000E+00
    -39.677  0.0000E+00  0.0000E+00  0.0000E+00  0.0000E+00  0.0000E+00  0.0000E+00  0.0000E+00  0.0000E+00  0.0000E+00  0.0000E+00  0.0000E+00  0.0000E+00  0.0000E+00  0.0000E+00  0.0000E+00  0.0000E+00  0.0000E+00  0.0000E+00
    -39.416  0.0000E+00  0.0000E+00  0.0000E+00  0.0000E+00  0.0000E+00  0.0000E+00  0.0000E+00  0.0000E+00  0.0000E+00  0.0000E+00  0.0000E+00  0.0000E+00  0.0000E+00  0.0000E+00  0.0000E+00  0.0000E+00  0.0000E+00  0.0000E+00
    -39.155  0.0000E+00  0.0000E+00  0.0000E+00  0.0000E+00  0.0000E+00  0.0000E+00  0.0000E+00  0.0000E+00  0.0000E+00  0.0000E+00  0.0000E+00  0.0000E+00  0.0000E+00  0.0000E+00  0.0000E+00  0.0000E+00  0.0000E+00  0.0000E+00
    -38.894  0.0000E+00  0.0000E+00  0.0000E+00  0.0000E+00  0.0000E+00  0.0000E+00  0.0000E+00  0.0000E+00  0.0000E+00  0.0000E+00  0.0000E+00  0.0000E+00  0.0000E+00  0.0000E+00  0.0000E+00  0.0000E+00  0.0000E+00  0.0000E+00
    -38.634  0.0000E+00  0.0000E+00  0.0000E+00  0.0000E+00  0.0000E+00  0.0000E+00  0.0000E+00  0.0000E+00  0.0000E+00  0.0000E+00  0.0000E+00  0.0000E+00  0.0000E+00  0.0000E+00  0.0000E+00  0.0000E+00  0.0000E+00  0.0000E+00
    -38.373  0.0000E+00  0.0000E+00  0.0000E+00  0.0000E+00  0.0000E+00  0.0000E+00  0.0000E+00  0.0000E+00  0.0000E+00  0.0000E+00  0.0000E+00  0.0000E+00  0.0000E+00  0.0000E+00  0.0000E+00  0.0000E+00  0.0000E+00  0.0000E+00
    -38.112  0.0000E+00  0.0000E+00  0.0000E+00  0.0000E+00  0.0000E+00  0.0000E+00  0.0000E+00  0.0000E+00  0.0000E+00  0.0000E+00  0.0000E+00  0.0000E+00  0.0000E+00  0.0000E+00  0.0000E+00  0.0000E+00  0.0000E+00  0.0000E+00
    -37.851  0.0000E+00  0.0000E+00  0.0000E+00  0.0000E+00  0.0000E+00  0.0000E+00  0.0000E+00  0.0000E+00  0.0000E+00  0.0000E+00  0.0000E+00  0.0000E+00  0.0000E+00  0.0000E+00  0.0000E+00  0.0000E+00  0.0000E+00  0.0000E+00
    -37.590  0.0000E+00  0.0000E+00  0.0000E+00  0.0000E+00  0.0000E+00  0.0000E+00  0.0000E+00  0.0000E+00  0.0000E+00  0.0000E+00  0.0000E+00  0.0000E+00  0.0000E+00  0.0000E+00  0.0000E+00  0.0000E+00  0.0000E+00  0.0000E+00
    -37.329  0.0000E+00  0.0000E+00  0.0000E+00  0.0000E+00  0.0000E+00  0.0000E+00  0.0000E+00  0.0000E+00  0.0000E+00  0.0000E+00  0.0000E+00  0.0000E+00  0.0000E+00  0.0000E+00  0.0000E+00  0.0000E+00  0.0000E+00  0.0000E+00
    -37.068  0.0000E+00  0.0000E+00  0.0000E+00  0.0000E+00  0.0000E+00  0.0000E+00  0.0000E+00  0.0000E+00  0.0000E+00  0.0000E+00  0.0000E+00  0.0000E+00  0.0000E+00  0.0000E+00  0.0000E+00  0.0000E+00  0.0000E+00  0.0000E+00
    -36.807  0.0000E+00  0.0000E+00  0.0000E+00  0.0000E+00  0.0000E+00  0.0000E+00  0.0000E+00  0.0000E+00  0.0000E+00  0.0000E+00  0.0000E+00  0.0000E+00  0.0000E+00  0.0000E+00  0.0000E+00  0.0000E+00  0.0000E+00  0.0000E+00
    -36.547  0.0000E+00  0.0000E+00  0.0000E+00  0.0000E+00  0.0000E+00  0.0000E+00  0.0000E+00  0.0000E+00  0.0000E+00  0.0000E+00  0.0000E+00  0.0000E+00  0.0000E+00  0.0000E+00  0.0000E+00  0.0000E+00  0.0000E+00  0.0000E+00
    -36.286  0.0000E+00  0.0000E+00  0.0000E+00  0.0000E+00  0.0000E+00  0.0000E+00  0.0000E+00  0.0000E+00  0.0000E+00  0.0000E+00  0.0000E+00  0.0000E+00  0.0000E+00  0.0000E+00  0.0000E+00  0.0000E+00  0.0000E+00  0.0000E+00
    -36.025  0.0000E+00  0.0000E+00  0.0000E+00  0.0000E+00  0.0000E+00  0.0000E+00  0.0000E+00  0.0000E+00  0.0000E+00  0.0000E+00  0.0000E+00  0.0000E+00  0.0000E+00  0.0000E+00  0.0000E+00  0.0000E+00  0.0000E+00  0.0000E+00
    -35.764  0.0000E+00  0.0000E+00  0.0000E+00  0.0000E+00  0.0000E+00  0.0000E+00  0.0000E+00  0.0000E+00  0.0000E+00  0.0000E+00  0.0000E+00  0.0000E+00  0.0000E+00  0.0000E+00  0.0000E+00  0.0000E+00  0.0000E+00  0.0000E+00
    -35.503  0.0000E+00  0.0000E+00  0.0000E+00  0.0000E+00  0.0000E+00  0.0000E+00  0.0000E+00  0.0000E+00  0.0000E+00  0.0000E+00  0.0000E+00  0.0000E+00  0.0000E+00  0.0000E+00  0.0000E+00  0.0000E+00  0.0000E+00  0.0000E+00