  16  16   1   0
  0.8356994E+01  0.4287437E-09  0.4828051E-09  0.6459524E-09  0.5000000E-15
  1.000000000000000E-004
  CAR 
 unknown system                          
     35.58202911    -45.62052706  301     12.57109041      1.00000000
    -45.621  0.0000E+00  0.0000E+00  0.0000E+00  0.0000E+00
    -45.350  0.0000E+00  0.0000E+00  0.0000E+00  0.0000E+00
    -45.079  0.0000E+00  0.0000E+00  0.0000E+00  0.0000E+00
    -44.809  0.0000E+00  0.0000E+00  0.0000E+00  0.0000E+00
    -44.538  0.0000E+00  0.0000E+00  0.0000E+00  0.0000E+00
    -44.267  0.0000E+00  0.0000E+00  0.0000E+00  0.0000E+00
    -43.996  0.0000E+00  0.0000E+00  0.0000E+00  0.0000E+00
    -43.726  0.0000E+00  0.0000E+00  0.0000E+00  0.0000E+00
    -43.455  0.0000E+00  0.0000E+00  0.0000E+00  0.0000E+00
    -43.184  0.0000E+00  0.0000E+00  0.0000E+00  0.0000E+00
    -42.914  0.0000E+00  0.0000E+00  0.0000E+00  0.0000E+00
    -42.643  0.0000E+00  0.0000E+00  0.0000E+00  0.0000E+00
    -42.372  0.5067E-03  0.0000E+00  0.1372E-03  0.0000E+00
    -42.102  0.1152E+00  0.0000E+00  0.3131E-01  0.0000E+00
    -41.831  0.1007E+02  0.0000E+00  0.2758E+01  0.0000E+00
    -41.560  0.4636E+02  0.0000E+00  0.1531E+02  0.0000E+00
    -41.290  0.6121E+02  0.0000E+00  0.3203E+02  0.0000E+00
    -41.019  0.1369E+02  0.2506E-05  0.3597E+02  0.6782E-06
    -40.748  0.0000E+00  0.2430E-02  0.3600E+02  0.6585E-03
    -40.478  0.0000E+00  0.5213E+00  0.3600E+02  0.1418E+00
    -40.207  0.0000E+00  0.1965E+02  0.3600E+02  0.5462E+01
    -39.936  0.0000E+00  0.4552E+02  0.3600E+02  0.1780E+02
    -39.666  0.0000E+00  0.4287E+02  0.3600E+02  0.2954E+02
    -39.395  0.0000E+00  0.2295E+02  0.3600E+02  0.3589E+02
    -39.124  0.0000E+00  0.0000E+00  0.3600E+02  0.3600E+02
    -38.854  0.0000E+00  0.0000E+00  0.3600E+02  0.3600E+02
    -38.583  0.0000E+00  0.0000E+00  0.3600E+02  0.3600E+02
    -38.312  0.0000E+00  0.0000E+00  0.3600E+02  0.3600E+02
    -38.042  0.0000E+00  0.0000E+00  0.3600E+02  0.3600E+02
    -37.771  0.0000E+00  0.0000E+00  0.3600E+02  0.3600E+02
    -37.500  0.0000E+00  0.0000E+00  0.3600E+02  0.3600E+02
    -37.230  0.0000E+00  0.0000E+00  0.3600E+02  0.3600E+02
    -36.959  0.0000E+00  0.0000E+00  0.3600E+02  0.3600E+02
    -36.688  0.0000E+00  0.0000E+00  0.3600E+02  0.3600E+02
    -36.418  0.0000E+00  0.0000E+00  0.3600E+02  0.3600E+02
    -36.147  0.0000E+00  0.0000E+00  0.3600E+02  0.3600E+02
    -35.876  0.0000E+00  0.0000E+00  0.3600E+02  0.3600E+02
    -35.606  0.0000E+00  0.0000E+00  0.3600E+02  0.3600E+02
    -35.335  0.0000E+00  0.0000E+00  0.3600E+02  0.3600E+02
    -35.064  0.0000E+00  0.0000E+00  0.3600E+02  0.3600E+02
    -34.794  0.0000E+00  0.0000E+00  0.3600E+02  0.3600E+02
    -34.523  0.0000E+00  0.0000E+00  0.3600E+02  0.3600E+02
    -34.252  0.0000E+00  0.0000E+00  0.3600E+02  0.3600E+02
    -33.981  0.0000E+00  0.0000E+00  0.3600E+02  0.3600E+02
    -33.711  0.0000E+00  0.0000E+00  0.3600E+02  0.3600E+02
    -33.440  0.0000E+00  0.0000E+00  0.3600E+02  0.3600E+02
    -33.169  0.0000E+00  0.0000E+00  0.3600E+02  0.3600E+02
    -32.899  0.0000E+00  0.0000E+00  0.3600E+02  0.3600E+02
    -32.628  0.0000E+00  0.0000E+00  0.3600E+02  0.3600E+02
    -32.357  0.0000E+00  0.0000E+00  0.3600E+02  0.3600E+02
    -32.087  0.0000E+00  0.0000E+00  0.3600E+02  0.3600E+02
    -31.816  0.0000E+00  0.0000E+00  0.3600E+02  0.3600E+02
    -31.545  0.0000E+00  0.0000E+00  0.3600E+02  0.3600E+02
    -31.275  0.0000E+00  0.0000E+00  0.3600E+02  0.3600E+02
    -31.004  0.0000E+00  0.0000E+00  0.3600E+02  0.3600E+02
    -30.733  0.0000E+00  0.0000E+00  0.3600E+02  0.3600E+02
    -30.463  0.0000E+00  0.0000E+00  0.3600E+02  0.3600E+02
    -30.192  0.0000E+00  0.0000E+00  0.3600E+02  0.3600E+02
    -29.921  0.0000E+00  0.0000E+00  0.3600E+02  0.3600E+02
    -29.651  0.0000E+00  0.0000E+00  0.3600E+02  0.3600E+02
    -29.380  0.0000E+00  0.0000E+00  0.3600E+02  0.3600E+02
    -29.109  0.0000E+00  0.0000E+00  0.3600E+02  0.3600E+02
    -28.839  0.0000E+00  0.0000E+00  0.3600E+02  0.3600E+02
    -28.568  0.0000E+00  0.0000E+00  0.3600E+02  0.3600E+02
    -28.297  0.0000E+00  0.0000E+00  0.3600E+02  0.3600E+02
    -28.027  0.0000E+00  0.0000E+00  0.3600E+02  0.3600E+02
    -27.756  0.0000E+00  0.0000E+00  0.3600E+02  0.3600E+02
    -27.485  0.0000E+00  0.0000E+00  0.3600E+02  0.3600E+02
    -27.215  0.0000E+00  0.0000E+00  0.3600E+02  0.3600E+02
    -26.944  0.0000E+00  0.0000E+00  0.3600E+02  0.3600E+02
    -26.673  0.0000E+00  0.0000E+00  0.3600E+02  0.3600E+02
    -26.403  0.0000E+00  0.0000E+00  0.3600E+02  0.3600E+02
    -26.132  0.0000E+00  0.0000E+00  0.3600E+02  0.3600E+02
    -25.861  0.0000E+00  0.0000E+00  0.3600E+02  0.3600E+02
    -25.591  0.0000E+00  0.0000E+00  0.3600E+02  0.3600E+02
    -25.320  0.0000E+00  0.0000E+00  0.3600E+02  0.3600E+02
    -25.049  0.0000E+00  0.0000E+00  0.3600E+02  0.3600E+02
    -24.779  0.0000E+00  0.0000E+00  0.3600E+02  0.3600E+02
    -24.508  0.0000E+00  0.0000E+00  0.3600E+02  0.3600E+02
    -24.237  0.0000E+00  0.0000E+00  0.3600E+02  0.3600E+02
    -23.967  0.0000E+00  0.0000E+00  0.3600E+02  0.3600E+02
    -23.696  0.0000E+00  0.0000E+00  0.3600E+02  0.3600E+02
    -23.425  0.0000E+00  0.0000E+00  0.3600E+02  0.3600E+02
    -23.154  0.0000E+00  0.0000E+00  0.3600E+02  0.3600E+02
    -22.884  0.0000E+00  0.0000E+00  0.3600E+02  0.3600E+02
    -22.613  0.0000E+00  0.0000E+00  0.3600E+02  0.3600E+02
    -22.342  0.0000E+00  0.0000E+00  0.3600E+02  0.3600E+02
    -22.072  0.0000E+00  0.0000E+00  0.3600E+02  0.3600E+02
    -21.801  0.0000E+00  0.0000E+00  0.3600E+02  0.3600E+02
    -21.530  0.0000E+00  0.0000E+00  0.3600E+02  0.3600E+02
    -21.260  0.0000E+00  0.0000E+00  0.3600E+02  0.3600E+02
    -20.989  0.0000E+00  0.0000E+00  0.3600E+02  0.3600E+02
    -20.718  0.0000E+00  0.0000E+00  0.3600E+02  0.3600E+02
    -20.448  0.0000E+00  0.0000E+00  0.3600E+02  0.3600E+02
    -20.177  0.0000E+00  0.0000E+00  0.3600E+02  0.3600E+02
    -19.906  0.0000E+00  0.0000E+00  0.3600E+02  0.3600E+02
    -19.636  0.0000E+00  0.0000E+00  0.3600E+02  0.3600E+02
    -19.365  0.0000E+00  0.0000E+00  0.3600E+02  0.3600E+02
    -19.094  0.0000E+00  0.0000E+00  0.3600E+02  0.3600E+02
    -18.824  0.0000E+00  0.0000E+00  0.3600E+02  0.3600E+02
    -18.553  0.0000E+00  0.0000E+00  0.3600E+02  0.3600E+02
    -18.282  0.0000E+00  0.0000E+00  0.3600E+02  0.3600E+02
    -18.012  0.0000E+00  0.0000E+00  0.3600E+02  0.3600E+02
    -17.741  0.0000E+00  0.0000E+00  0.3600E+02  0.3600E+02
    -17.470  0.0000E+00  0.0000E+00  0.3600E+02  0.3600E+02
    -17.200  0.0000E+00  0.0000E+00  0.3600E+02  0.3600E+02
    -16.929  0.0000E+00  0.0000E+00  0.3600E+02  0.3600E+02
    -16.658  0.0000E+00  0.0000E+00  0.3600E+02  0.3600E+02
    -16.388  0.0000E+00  0.0000E+00  0.3600E+02  0.3600E+02
    -16.117  0.0000E+00  0.0000E+00  0.3600E+02  0.3600E+02
    -15.846  0.0000E+00  0.0000E+00  0.3600E+02  0.3600E+02
    -15.576  0.0000E+00  0.0000E+00  0.3600E+02  0.3600E+02
    -15.305  0.0000E+00  0.0000E+00  0.3600E+02  0.3600E+02
    -15.034  0.0000E+00  0.0000E+00  0.3600E+02  0.3600E+02
    -14.764  0.0000E+00  0.0000E+00  0.3600E+02  0.3600E+02
    -14.493  0.0000E+00  0.0000E+00  0.3600E+02  0.3600E+02
    -14.222  0.0000E+00  0.0000E+00  0.3600E+02  0.3600E+02
    -13.952  0.0000E+00  0.0000E+00  0.3600E+02  0.3600E+02
    -13.681  0.0000E+00  0.0000E+00  0.3600E+02  0.3600E+02
    -13.410  0.0000E+00  0.0000E+00  0.3600E+02  0.3600E+02
    -13.140  0.0000E+00  0.0000E+00  0.3600E+02  0.3600E+02
    -12.869  0.0000E+00  0.0000E+00  0.3600E+02  0.3600E+02
    -12.598  0.0000E+00  0.0000E+00  0.3600E+02  0.3600E+02
    -12.327  0.0000E+00  0.0000E+00  0.3600E+02  0.3600E+02
    -12.057  0.0000E+00  0.0000E+00  0.3600E+02  0.3600E+02
    -11.786  0.0000E+00  0.0000E+00  0.3600E+02  0.3600E+02
    -11.515  0.0000E+00  0.0000E+00  0.3600E+02  0.3600E+02
    -11.245  0.0000E+00  0.0000E+00  0.3600E+02  0.3600E+02
    -10.974  0.0000E+00  0.0000E+00  0.3600E+02  0.3600E+02
    -10.703  0.0000E+00  0.0000E+00  0.3600E+02  0.3600E+02
    -10.433  0.0000E+00  0.0000E+00  0.3600E+02  0.3600E+02
    -10.162  0.0000E+00  0.0000E+00  0.3600E+02  0.3600E+02
     -9.891  0.0000E+00  0.0000E+00  0.3600E+02  0.3600E+02
     -9.621  0.0000E+00  0.0000E+00  0.3600E+02  0.3600E+02
     -9.350  0.0000E+00  0.0000E+00  0.3600E+02  0.3600E+02
     -9.079  0.0000E+00  0.0000E+00  0.3600E+02  0.3600E+02
     -8.809  0.0000E+00  0.0000E+00  0.3600E+02  0.3600E+02
     -8.538  0.0000E+00  0.0000E+00  0.3600E+02  0.3600E+02
     -8.267  0.0000E+00  0.0000E+00  0.3600E+02  0.3600E+02
     -7.997  0.0000E+00  0.0000E+00  0.3600E+02  0.3600E+02
     -7.726  0.0000E+00  0.0000E+00  0.3600E+02  0.3600E+02
     -7.455  0.0000E+00  0.0000E+00  0.3600E+02  0.3600E+02
     -7.185  0.0000E+00  0.0000E+00  0.3600E+02  0.3600E+02
     -6.914  0.0000E+00  0.0000E+00  0.3600E+02  0.3600E+02
     -6.643  0.0000E+00  0.0000E+00  0.3600E+02  0.3600E+02
     -6.373  0.0000E+00  0.0000E+00  0.3600E+02  0.3600E+02
     -6.102  0.0000E+00  0.0000E+00  0.3600E+02  0.3600E+02
     -5.831  0.0000E+00  0.0000E+00  0.3600E+02  0.3600E+02
     -5.561  0.0000E+00  0.0000E+00  0.3600E+02  0.3600E+02
     -5.290  0.0000E+00  0.0000E+00  0.3600E+02  0.3600E+02
     -5.019  0.0000E+00  0.0000E+00  0.3600E+02  0.3600E+02
     -4.749  0.0000E+00  0.0000E+00  0.3600E+02  0.3600E+02
     -4.478  0.0000E+00  0.0000E+00  0.3600E+02  0.3600E+02
     -4.207  0.0000E+00  0.0000E+00  0.3600E+02  0.3600E+02
     -3.937  0.0000E+00  0.0000E+00  0.3600E+02  0.3600E+02
     -3.666  0.0000E+00  0.0000E+00  0.3600E+02  0.3600E+02
     -3.395  0.0000E+00  0.0000E+00  0.3600E+02  0.3600E+02
     -3.125  0.0000E+00  0.0000E+00  0.3600E+02  0.3600E+02
     -2.854  0.0000E+00  0.0000E+00  0.3600E+02  0.3600E+02
     -2.583  0.1149E-05  0.8509E-06  0.3600E+02  0.3600E+02
     -2.312  0.2729E-03  0.2022E-03  0.3600E+02  0.3600E+02
     -2.042  0.3149E-01  0.2621E-01  0.3601E+02  0.3601E+02
     -1.771  0.2722E+00  0.2521E+00  0.3608E+02  0.3608E+02
     -1.500  0.5996E+00  0.5931E+00  0.3624E+02  0.3624E+02
     -1.230  0.6719E+00  0.6577E+00  0.3643E+02  0.3642E+02
     -0.959  0.1308E+01  0.1298E+01  0.3678E+02  0.3677E+02
     -0.688  0.1588E+01  0.1560E+01  0.3722E+02  0.3720E+02
     -0.418  0.2645E+01  0.2625E+01  0.3794E+02  0.3791E+02
     -0.147  0.2836E+01  0.2631E+01  0.3872E+02  0.3864E+02
      0.124  0.2793E+01  0.2919E+01  0.3948E+02  0.3944E+02
      0.394  0.1513E+01  0.1605E+01  0.3991E+02  0.3988E+02
      0.665  0.3104E+00  0.4057E+00  0.4000E+02  0.4000E+02
      0.936  0.2358E-02  0.2942E-02  0.4000E+02  0.4000E+02
      1.206  0.0000E+00  0.0000E+00  0.4000E+02  0.4000E+02
      1.477  0.0000E+00  0.0000E+00  0.4000E+02  0.4000E+02
      1.748  0.0000E+00  0.0000E+00  0.4000E+02  0.4000E+02
      2.018  0.0000E+00  0.0000E+00  0.4000E+02  0.4000E+02
      2.289  0.0000E+00  0.0000E+00  0.4000E+02  0.4000E+02
      2.560  0.0000E+00  0.0000E+00  0.4000E+02  0.4000E+02
      2.830  0.0000E+00  0.0000E+00  0.4000E+02  0.4000E+02
      3.101  0.0000E+00  0.0000E+00  0.4000E+02  0.4000E+02
      3.372  0.0000E+00  0.0000E+00  0.4000E+02  0.4000E+02
      3.642  0.2780E-05  0.1067E-06  0.4000E+02  0.4000E+02
      3.913  0.6883E-03  0.2813E-04  0.4000E+02  0.4000E+02
      4.184  0.6032E-01  0.5552E-02  0.4002E+02  0.4000E+02
      4.454  0.1057E+01  0.1393E+00  0.4030E+02  0.4004E+02
      4.725  0.3264E+01  0.1369E+01  0.4119E+02  0.4041E+02
      4.996  0.3728E+01  0.2899E+01  0.4221E+02  0.4120E+02
      5.266  0.4685E+01  0.3458E+01  0.4349E+02  0.4214E+02
      5.537  0.3641E+01  0.4276E+01  0.4450E+02  0.4331E+02
      5.808  0.3353E+01  0.3556E+01  0.4542E+02  0.4429E+02
      6.078  0.2617E+01  0.3412E+01  0.4614E+02  0.4522E+02
      6.349  0.4339E+01  0.2199E+01  0.4732E+02  0.4583E+02
      6.620  0.4402E+01  0.3519E+01  0.4854E+02  0.4679E+02
      6.890  0.4865E+01  0.3760E+01  0.4986E+02  0.4781E+02
      7.161  0.6369E+01  0.4481E+01  0.5160E+02  0.4904E+02
      7.432  0.1721E+01  0.5714E+01  0.5209E+02  0.5060E+02
      7.702  0.1917E+01  0.4825E+01  0.5261E+02  0.5192E+02
      7.973  0.5692E+01  0.3485E+00  0.5416E+02  0.5205E+02
      8.244  0.7442E+01  0.8964E+00  0.5620E+02  0.5229E+02
      8.515  0.9236E+01  0.1939E+01  0.5872E+02  0.5282E+02
      8.785  0.9886E+01  0.4855E+01  0.6143E+02  0.5414E+02
      9.056  0.1023E+02  0.5353E+01  0.6423E+02  0.5560E+02
      9.327  0.9405E+01  0.7994E+01  0.6681E+02  0.5779E+02
      9.597  0.7281E+01  0.7300E+01  0.6882E+02  0.5979E+02
      9.868  0.1097E+02  0.1018E+02  0.7181E+02  0.6258E+02
     10.139  0.1086E+02  0.9472E+01  0.7480E+02  0.6519E+02
     10.409  0.9506E+01  0.7855E+01  0.7741E+02  0.6734E+02
     10.680  0.8179E+01  0.4167E+01  0.7966E+02  0.6850E+02
     10.951  0.6698E+01  0.7561E+01  0.8151E+02  0.7057E+02
     11.221  0.9507E+01  0.1126E+02  0.8410E+02  0.7364E+02
     11.492  0.1064E+02  0.8364E+01  0.8702E+02  0.7594E+02
     11.763  0.1055E+02  0.9141E+01  0.8992E+02  0.7844E+02
     12.033  0.1231E+02  0.5995E+01  0.9328E+02  0.8010E+02
     12.304  0.1291E+02  0.5940E+01  0.9682E+02  0.8173E+02
     12.575  0.1210E+02  0.8036E+01  0.1001E+03  0.8392E+02
     12.845  0.6940E+01  0.8847E+01  0.1021E+03  0.8635E+02
     13.116  0.4753E+01  0.9372E+01  0.1034E+03  0.8892E+02
     13.387  0.3525E+01  0.1119E+02  0.1044E+03  0.9197E+02
     13.657  0.2903E+01  0.1115E+02  0.1052E+03  0.9503E+02
     13.928  0.2840E+01  0.1234E+02  0.1059E+03  0.9842E+02
     14.199  0.3151E+01  0.1140E+02  0.1068E+03  0.1016E+03
     14.469  0.2453E+01  0.6215E+01  0.1075E+03  0.1033E+03
     14.740  0.2925E+01  0.4575E+01  0.1083E+03  0.1045E+03
     15.011  0.2780E+01  0.3769E+01  0.1090E+03  0.1056E+03
     15.281  0.2552E+01  0.4109E+01  0.1097E+03  0.1067E+03
     15.552  0.2211E+01  0.2806E+01  0.1103E+03  0.1075E+03
     15.823  0.2673E+01  0.3404E+01  0.1111E+03  0.1084E+03
     16.093  0.2763E+01  0.3463E+01  0.1118E+03  0.1094E+03
     16.364  0.1147E+01  0.2174E+01  0.1122E+03  0.1100E+03
     16.635  0.8091E+00  0.3217E+01  0.1124E+03  0.1108E+03
     16.905  0.1671E+01  0.3015E+01  0.1128E+03  0.1117E+03
     17.176  0.1411E+01  0.1636E+01  0.1132E+03  0.1121E+03
     17.447  0.2473E+01  0.9368E+00  0.1139E+03  0.1124E+03
     17.717  0.1593E+01  0.1808E+01  0.1143E+03  0.1129E+03
     17.988  0.1684E+01  0.1885E+01  0.1148E+03  0.1134E+03
     18.259  0.2765E+01  0.2514E+01  0.1156E+03  0.1141E+03
     18.529  0.2578E+01  0.1963E+01  0.1163E+03  0.1146E+03
     18.800  0.1800E+01  0.2694E+01  0.1168E+03  0.1154E+03
     19.071  0.2497E+01  0.2646E+01  0.1174E+03  0.1161E+03
     19.342  0.1794E+01  0.2036E+01  0.1179E+03  0.1166E+03
     19.612  0.8055E+00  0.2705E+01  0.1182E+03  0.1174E+03
     19.883  0.1000E+01  0.2115E+01  0.1184E+03  0.1180E+03
     20.154  0.1581E+01  0.7246E+00  0.1189E+03  0.1182E+03
     20.424  0.1135E+01  0.1024E+01  0.1192E+03  0.1184E+03
     20.695  0.1252E+01  0.1652E+01  0.1195E+03  0.1189E+03
     20.966  0.9978E+00  0.1053E+01  0.1198E+03  0.1192E+03
     21.236  0.1052E+01  0.1214E+01  0.1201E+03  0.1195E+03
     21.507  0.1894E+01  0.1142E+01  0.1206E+03  0.1198E+03
     21.778  0.2306E+01  0.1279E+01  0.1212E+03  0.1202E+03
     22.048  0.2426E+01  0.1923E+01  0.1219E+03  0.1207E+03
     22.319  0.1165E+01  0.2476E+01  0.1222E+03  0.1214E+03
     22.590  0.2269E+01  0.2070E+01  0.1229E+03  0.1219E+03
     22.860  0.3102E+01  0.1259E+01  0.1237E+03  0.1223E+03
     23.131  0.2469E+01  0.2479E+01  0.1244E+03  0.1230E+03
     23.402  0.2037E+01  0.3078E+01  0.1249E+03  0.1238E+03
     23.672  0.1305E+01  0.2445E+01  0.1253E+03  0.1245E+03
     23.943  0.2042E+01  0.2078E+01  0.1259E+03  0.1251E+03
     24.214  0.2587E+01  0.1179E+01  0.1266E+03  0.1254E+03
     24.484  0.3018E+01  0.2341E+01  0.1274E+03  0.1260E+03
     24.755  0.1933E+01  0.2759E+01  0.1279E+03  0.1268E+03
     25.026  0.1826E+01  0.2906E+01  0.1284E+03  0.1276E+03
     25.296  0.2105E+01  0.2139E+01  0.1290E+03  0.1282E+03
     25.567  0.2983E+01  0.1693E+01  0.1298E+03  0.1286E+03
     25.838  0.3863E+01  0.2834E+01  0.1309E+03  0.1294E+03
     26.108  0.2557E+01  0.3254E+01  0.1316E+03  0.1303E+03
     26.379  0.2099E+01  0.3646E+01  0.1322E+03  0.1313E+03
     26.650  0.2159E+01  0.2335E+01  0.1327E+03  0.1319E+03
     26.920  0.2645E+01  0.2063E+01  0.1335E+03  0.1325E+03
     27.191  0.2700E+01  0.2665E+01  0.1342E+03  0.1332E+03
     27.462  0.2698E+01  0.2594E+01  0.1349E+03  0.1339E+03
     27.732  0.2820E+01  0.3076E+01  0.1357E+03  0.1348E+03
     28.003  0.2466E+01  0.2723E+01  0.1364E+03  0.1355E+03
     28.274  0.2531E+01  0.2389E+01  0.1371E+03  0.1362E+03
     28.544  0.2177E+01  0.2788E+01  0.1377E+03  0.1370E+03
     28.815  0.3011E+01  0.2228E+01  0.1385E+03  0.1376E+03
     29.086  0.3019E+01  0.2595E+01  0.1393E+03  0.1383E+03
     29.356  0.2402E+01  0.3344E+01  0.1400E+03  0.1392E+03
     29.627  0.2674E+01  0.2402E+01  0.1407E+03  0.1398E+03
     29.898  0.2182E+01  0.2741E+01  0.1413E+03  0.1406E+03
     30.169  0.2673E+01  0.2274E+01  0.1421E+03  0.1412E+03
     30.439  0.2589E+01  0.2637E+01  0.1428E+03  0.1419E+03
     30.710  0.2250E+01  0.2664E+01  0.1434E+03  0.1427E+03
     30.981  0.1429E+01  0.2462E+01  0.1438E+03  0.1433E+03
     31.251  0.5863E+00  0.1564E+01  0.1440E+03  0.1438E+03
     31.522  0.8804E-01  0.6095E+00  0.1440E+03  0.1439E+03
     31.793  0.3321E-01  0.1389E+00  0.1440E+03  0.1440E+03
     32.063  0.0000E+00  0.5004E-01  0.1440E+03  0.1440E+03
     32.334  0.0000E+00  0.0000E+00  0.1440E+03  0.1440E+03
     32.605  0.0000E+00  0.0000E+00  0.1440E+03  0.1440E+03
     32.875  0.0000E+00  0.0000E+00  0.1440E+03  0.1440E+03
     33.146  0.0000E+00  0.0000E+00  0.1440E+03  0.1440E+03
     33.417  0.0000E+00  0.0000E+00  0.1440E+03  0.1440E+03
     33.687  0.0000E+00  0.0000E+00  0.1440E+03  0.1440E+03
     33.958  0.0000E+00  0.0000E+00  0.1440E+03  0.1440E+03
     34.229  0.0000E+00  0.0000E+00  0.1440E+03  0.1440E+03
     34.499  0.0000E+00  0.0000E+00  0.1440E+03  0.1440E+03
     34.770  0.0000E+00  0.0000E+00  0.1440E+03  0.1440E+03
     35.041  0.0000E+00  0.0000E+00  0.1440E+03  0.1440E+03
     35.311  0.0000E+00  0.0000E+00  0.1440E+03  0.1440E+03
     35.582  0.0000E+00  0.0000E+00  0.1440E+03  0.1440E+03
     35.58202911    -45.62052706  301     12.57109041      1.00000000
    -45.621  0.0000E+00  0.0000E+00  0.0000E+00  0.0000E+00  0.0000E+00  0.0000E+00  0.0000E+00  0.0000E+00  0.0000E+00  0.0000E+00  0.0000E+00  0.0000E+00  0.0000E+00  0.0000E+00  0.0000E+00  0.0000E+00  0.0000E+00  0.0000E+00
    -45.350  0.0000E+00  0.0000E+00  0.0000E+00  0.0000E+00  0.0000E+00  0.0000E+00  0.0000E+00  0.0000E+00  0.0000E+00  0.0000E+00  0.0000E+00  0.0000E+00  0.0000E+00  0.0000E+00  0.0000E+00  0.0000E+00  0.0000E+00  0.0000E+00
    -45.079  0.0000E+00  0.0000E+00  0.0000E+00  0.0000E+00  0.0000E+00  0.0000E+00  0.0000E+00  0.0000E+00  0.0000E+00  0.0000E+00  0.0000E+00  0.0000E+00  0.0000E+00  0.0000E+00  0.0000E+00  0.0000E+00  0.0000E+00  0.0000E+00
    -44.809  0.0000E+00  0.0000E+00  0.0000E+00  0.0000E+00  0.0000E+00  0.0000E+00  0.0000E+00  0.0000E+00  0.0000E+00  0.0000E+00  0.0000E+00  0.0000E+00  0.0000E+00  0.0000E+00  0.0000E+00  0.0000E+00  0.0000E+00  0.0000E+00
    -44.538  0.0000E+00  0.0000E+00  0.0000E+00  0.0000E+00  0.0000E+00  0.0000E+00  0.0000E+00  0.0000E+00  0.0000E+00  0.0000E+00  0.0000E+00  0.0000E+00  0.0000E+00  0.0000E+00  0.0000E+00  0.0000E+00  0.0000E+00  0.0000E+00
    -44.267  0.0000E+00  0.0000E+00  0.0000E+00  0.0000E+00  0.0000E+00  0.0000E+00  0.0000E+00  0.0000E+00  0.0000E+00  0.0000E+00  0.0000E+00  0.0000E+00  0.0000E+00  0.0000E+00  0.0000E+00  0.0000E+00  0.0000E+00  0.0000E+00
    -43.996  0.0000E+00  0.0000E+00  0.0000E+00  0.0000E+00  0.0000E+00  0.0000E+00  0.0000E+00  0.0000E+00  0.0000E+00  0.0000E+00  0.0000E+00  0.0000E+00  0.0000E+00  0.0000E+00  0.0000E+00  0.0000E+00  0.0000E+00  0.0000E+00
    -43.726  0.0000E+00  0.0000E+00  0.0000E+00  0.0000E+00  0.0000E+00  0.0000E+00  0.0000E+00  0.0000E+00  0.0000E+00  0.0000E+00  0.0000E+00  0.0000E+00  0.0000E+00  0.0000E+00  0.0000E+00  0.0000E+00  0.0000E+00  0.0000E+00
    -43.455  0.0000E+00  0.0000E+00  0.0000E+00  0.0000E+00  0.0000E+00  0.0000E+00  0.0000E+00  0.0000E+00  0.0000E+00  0.0000E+00  0.0000E+00  0.0000E+00  0.0000E+00  0.0000E+00  0.0000E+00  0.0000E+00  0.0000E+00  0.0000E+00
    -43.184  0.0000E+00  0.0000E+00  0.0000E+00  0.0000E+00  0.0000E+00  0.0000E+00  0.0000E+00  0.0000E+00  0.0000E+00  0.0000E+00  0.0000E+00  0.0000E+00  0.0000E+00  0.0000E+00  0.0000E+00  0.0000E+00  0.0000E+00  0.0000E+00
    -42.914  0.0000E+00  0.0000E+00  0.0000E+00  0.0000E+00  0.0000E+00  0.0000E+00  0.0000E+00  0.0000E+00  0.0000E+00  0.0000E+00  0.0000E+00  0.0000E+00  0.0000E+00  0.0000E+00  0.0000E+00  0.0000E+00  0.0000E+00  0.0000E+00
    -42.643  0.0000E+00  0.0000E+00  0.0000E+00  0.0000E+00  0.0000E+00  0.0000E+00  0.0000E+00  0.0000E+00  0.0000E+00  0.0000E+00  0.0000E+00  0.0000E+00  0.0000E+00  0.0000E+00  0.0000E+00  0.0000E+00  0.0000E+00  0.0000E+00
    -42.372  0.2503E-08  0.0000E+00  0.5589E-04  0.0000E+00  0.1436E-05  0.0000E+00  0.3215E-04  0.0000E+00  0.6429E-09  0.0000E+00  0.2774E-09  0.0000E+00  0.5250E-09  0.0000E+00  0.2470E-09  0.0000E+00  0.1765E-08  0.0000E+00
    -42.102  0.5697E-06  0.0000E+00  0.1243E-01  0.0000E+00  0.3936E-03  0.0000E+00  0.7216E-02  0.0000E+00  0.1457E-06  0.0000E+00  0.7233E-07  0.0000E+00  0.1216E-06  0.0000E+00  0.6066E-07  0.0000E+00  0.3991E-06  0.0000E+00
    -41.831  0.5683E-04  0.0000E+00  0.8709E+00  0.0000E+00  0.6765E-01  0.0000E+00  0.6377E+00  0.0000E+00  0.1285E-04  0.0000E+00  0.9804E-05  0.0000E+00  0.1160E-04  0.0000E+00  0.8548E-05  0.0000E+00  0.3082E-04  0.0000E+00
    -41.560  0.2512E-03  0.0000E+00  0.1787E+01  0.0000E+00  0.9776E+00  0.0000E+00  0.1895E+01  0.0000E+00  0.5927E-04  0.0000E+00  0.1107E-03  0.0000E+00  0.7531E-04  0.0000E+00  0.7691E-04  0.0000E+00  0.1026E-03  0.0000E+00
    -41.290  0.1901E-03  0.0000E+00  0.9349E+00  0.0000E+00  0.2065E+01  0.0000E+00  0.1040E+01  0.0000E+00  0.6815E-04  0.0000E+00  0.1465E-03  0.0000E+00  0.1107E-03  0.0000E+00  0.1012E-03  0.0000E+00  0.6205E-04  0.0000E+00
    -41.019  0.1973E-04  0.9795E-11  0.4114E-01  0.6772E-07  0.5227E+00  0.4677E-09  0.5584E-01  0.6029E-07  0.1702E-04  0.2739E-11  0.3037E-04  0.2040E-11  0.2143E-04  0.7189E-11  0.2653E-04  0.3024E-11  0.1103E-04  0.6217E-11
    -40.748  0.0000E+00  0.1837E-07  0.0000E+00  0.5397E-04  0.0000E+00  0.5868E-05  0.0000E+00  0.5644E-04  0.0000E+00  0.3380E-08  0.0000E+00  0.4184E-08  0.0000E+00  0.4700E-08  0.0000E+00  0.5661E-08  0.0000E+00  0.5139E-08
    -40.478  0.0000E+00  0.3965E-05  0.0000E+00  0.1155E-01  0.0000E+00  0.1299E-02  0.0000E+00  0.1212E-01  0.0000E+00  0.7309E-06  0.0000E+00  0.9171E-06  0.0000E+00  0.9985E-06  0.0000E+00  0.1226E-05  0.0000E+00  0.1100E-05
    -40.207  0.0000E+00  0.1506E-03  0.0000E+00  0.4666E+00  0.0000E+00  0.6723E-01  0.0000E+00  0.4783E+00  0.0000E+00  0.3394E-04  0.0000E+00  0.5256E-04  0.0000E+00  0.3368E-04  0.0000E+00  0.4889E-04  0.0000E+00  0.4617E-04
    -39.936  0.0000E+00  0.2594E-03  0.0000E+00  0.1198E+01  0.0000E+00  0.2758E+00  0.0000E+00  0.1293E+01  0.0000E+00  0.5506E-04  0.0000E+00  0.1422E-03  0.0000E+00  0.8851E-04  0.0000E+00  0.8237E-04  0.0000E+00  0.9763E-04
    -39.666  0.0000E+00  0.1506E-03  0.0000E+00  0.1119E+01  0.0000E+00  0.1028E+01  0.0000E+00  0.1122E+01  0.0000E+00  0.6204E-04  0.0000E+00  0.1157E-03  0.0000E+00  0.9594E-04  0.0000E+00  0.8372E-04  0.0000E+00  0.6150E-04
    -39.395  0.0000E+00  0.2676E-04  0.0000E+00  0.8384E+00  0.0000E+00  0.2245E+01  0.0000E+00  0.7291E+00  0.0000E+00  0.2533E-04  0.0000E+00  0.1831E-04  0.0000E+00  0.2613E-04  0.0000E+00  0.2181E-04  0.0000E+00  0.2521E-04
    -39.124  0.0000E+00  0.0000E+00  0.0000E+00  0.0000E+00  0.0000E+00  0.0000E+00  0.0000E+00  0.0000E+00  0.0000E+00  0.0000E+00  0.0000E+00  0.0000E+00  0.0000E+00  0.0000E+00  0.0000E+00  0.0000E+00  0.0000E+00  0.0000E+00
    -38.854  0.0000E+00  0.0000E+00  0.0000E+00  0.0000E+00  0.0000E+00  0.0000E+00  0.0000E+00  0.0000E+00  0.0000E+00  0.0000E+00  0.0000E+00  0.0000E+00  0.0000E+00  0.0000E+00  0.0000E+00  0.0000E+00  0.0000E+00  0.0000E+00
    -38.583  0.0000E+00  0.0000E+00  0.0000E+00  0.0000E+00  0.0000E+00  0.0000E+00  0.0000E+00  0.0000E+00  0.0000E+00  0.0000E+00  0.0000E+00  0.0000E+00  0.0000E+00  0.0000E+00  0.0000E+00  0.0000E+00  0.0000E+00  0.0000E+00
    -38.312  0.0000E+00  0.0000E+00  0.0000E+00  0.0000E+00  0.0000E+00  0.0000E+00  0.0000E+00  0.0000E+00  0.0000E+00  0.0000E+00  0.0000E+00  0.0000E+00  0.0000E+00  0.0000E+00  0.0000E+00  0.0000E+00  0.0000E+00  0.0000E+00
    -38.042  0.0000E+00  0.0000E+00  0.0000E+00  0.0000E+00  0.0000E+00  0.0000E+00  0.0000E+00  0.0000E+00  0.0000E+00  0.0000E+00  0.0000E+00  0.0000E+00  0.0000E+00  0.0000E+00  0.0000E+00  0.0000E+00  0.0000E+00  0.0000E+00
    -37.771  0.0000E+00  0.0000E+00  0.0000E+00  0.0000E+00  0.0000E+00  0.0000E+00  0.0000E+00  0.0000E+00  0.0000E+00  0.0000E+00  0.0000E+00  0.0000E+00  0.0000E+00  0.0000E+00  0.0000E+00  0.0000E+00  0.0000E+00  0.0000E+00
    -37.500  0.0000E+00  0.0000E+00  0.0000E+00  0.0000E+00  0.0000E+00  0.0000E+00  0.0000E+00  0.0000E+00  0.0000E+00  0.0000E+00  0.0000E+00  0.0000E+00  0.0000E+00  0.0000E+00  0.0000E+00  0.0000E+00  0.0000E+00  0.0000E+00
    -37.230  0.0000E+00  0.0000E+00  0.0000E+00  0.0000E+00  0.0000E+00  0.0000E+00  0.0000E+00  0.0000E+00  0.0000E+00  0.0000E+00  0.0000E+00  0.0000E+00  0.0000E+00  0.0000E+00  0.0000E+00  0.0000E+00  0.0000E+00  0.0000E+00
    -36.959  0.0000E+00  0.0000E+00  0.0000E+00  0.0000E+00  0.0000E+00  0.0000E+00  0.0000E+00  0.0000E+00  0.0000E+00  0.0000E+00  0.0000E+00  0.0000E+00  0.0000E+00  0.0000E+00  0.0000E+00  0.0000E+00  0.0000E+00  0.0000E+00
    -36.688  0.0000E+00  0.0000E+00  0.0000E+00  0.0000E+00  0.0000E+00  0.0000E+00  0.0000E+00  0.0000E+00  0.0000E+00  0.0000E+00  0.0000E+00  0.0000E+00  0.0000E+00  0.0000E+00  0.0000E+00  0.0000E+00  0.0000E+00  0.0000E+00
    -36.418  0.0000E+00  0.0000E+00  0.0000E+00  0.0000E+00  0.0000E+00  0.0000E+00  0.0000E+00  0.0000E+00  0.0000E+00  0.0000E+00  0.0000E+00  0.0000E+00  0.0000E+00  0.0000E+00  0.0000E+00  0.0000E+00  0.0000E+00  0.0000E+00
    -36.147  0.0000E+00  0.0000E+00  0.0000E+00  0.0000E+00  0.0000E+00  0.0000E+00  0.0000E+00  0.0000E+00  0.0000E+00  0.0000E+00  0.0000E+00  0.0000E+00  0.0000E+00  0.0000E+00  0.0000E+00  0.0000E+00  0.0000E+00  0.0000E+00
    -35.876  0.0000E+00  0.0000E+00  0.0000E+00  0.0000E+00  0.0000E+00  0.0000E+00  0.0000E+00  0.0000E+00  0.0000E+00  0.0000E+00  0.0000E+00  0.0000E+00  0.0000E+00  0.0000E+00  0.0000E+00  0.0000E+00  0.0000E+00  0.0000E+00
    -35.606  0.0000E+00  0.0000E+00  0.0000E+00  0.0000E+00  0.0000E+00  0.0000E+00  0.0000E+00  0.0000E+00  0.0000E+00  0.0000E+00  0.0000E+00  0.0000E+00  0.0000E+00  0.0000E+00  0.0000E+00  0.0000E+00  0.0000E+00  0.0000E+00
    -35.335  0.0000E+00  0.0000E+00  0.0000E+00  0.0000E+00  0.0000E+00  0.0000E+00  0.0000E+00  0.0000E+00  0.0000E+00  0.0000E+00  0.0000E+00  0.0000E+00  0.0000E+00  0.0000E+00  0.0000E+00  0.0000E+00  0.0000E+00  0.0000E+00
    -35.064  0.0000E+00  0.0000E+00  0.0000E+00  0.0000E+00  0.0000E+00  0.0000E+00  0.0000E+00  0.0000E+00  0.0000E+00  0.0000E+00  0.0000E+00  0.0000E+00  0.0000E+00  0.0000E+00  0.0000E+00  0.0000E+00  0.0000E+00  0.0000E+00
    -34.794  0.0000E+00  0.0000E+00  0.0000E+00  0.0000E+00  0.0000E+00  0.0000E+00  0.0000E+00  0.0000E+00  0.0000E+00  0.0000E+00  0.0000E+00  0.0000E+00  0.0000E+00  0.0000E+00  0.0000E+00  0.0000E+00  0.0000E+00  0.0000E+00
    -34.523  0.0000E+00  0.0000E+00  0.0000E+00  0.0000E+00  0.0000E+00  0.0000E+00  0.0000E+00  0.0000E+00  0.0000E+00  0.0000E+00  0.0000E+00  0.0000E+00  0.0000E+00  0.0000E+00  0.0000E+00  0.0000E+00  0.0000E+00  0.0000E+00
    -34.252  0.0000E+00  0.0000E+00  0.0000E+00  0.0000E+00  0.0000E+00  0.0000E+00  0.0000E+00  0.0000E+00  0.0000E+00  0.0000E+00  0.0000E+00  0.0000E+00  0.0000E+00  0.0000E+00  0.0000E+00  0.0000E+00  0.0000E+00  0.0000E+00
    -33.981  0.0000E+00  0.0000E+00  0.0000E+00  0.0000E+00  0.0000E+00  0.0000E+00  0.0000E+00  0.0000E+00  0.0000E+00  0.0000E+00  0.0000E+00  0.0000E+00  0.0000E+00  0.0000E+00  0.0000E+00  0.0000E+00  0.0000E+00  0.0000E+00
    -33.711  0.0000E+00  0.0000E+00  0.0000E+00  0.0000E+00  0.0000E+00  0.0000E+00  0.0000E+00  0.0000E+00  0.0000E+00  0.0000E+00  0.0000E+00  0.0000E+00  0.0000E+00  0.0000E+00  0.0000E+00  0.0000E+00  0.0000E+00  0.0000E+00
    -33.440  0.0000E+00  0.0000E+00  0.0000E+00  0.0000E+00  0.0000E+00  0.0000E+00  0.0000E+00  0.0000E+00  0.0000E+00  0.0000E+00  0.0000E+00  0.0000E+00  0.0000E+00  0.0000E+00  0.0000E+00  0.0000E+00  0.0000E+00  0.0000E+00
    -33.169  0.0000E+00  0.0000E+00  0.0000E+00  0.0000E+00  0.0000E+00  0.0000E+00  0.0000E+00  0.0000E+00  0.0000E+00  0.0000E+00  0.0000E+00  0.0000E+00  0.0000E+00  0.0000E+00  0.0000E+00  0.0000E+00  0.0000E+00  0.0000E+00
    -32.899  0.0000E+00  0.0000E+00  0.0000E+00  0.0000E+00  0.0000E+00  0.0000E+00  0.0000E+00  0.0000E+00  0.0000E+00  0.0000E+00  0.0000E+00  0.0000E+00  0.0000E+00  0.0000E+00  0.0000E+00  0.0000E+00  0.0000E+00  0.0000E+00
    -32.628  0.0000E+00  0.0000E+00  0.0000E+00  0.0000E+00  0.0000E+00  0.0000E+00  0.0000E+00  0.0000E+00  0.0000E+00  0.0000E+00  0.0000E+00  0.0000E+00  0.0000E+00  0.0000E+00  0.0000E+00  0.0000E+00  0.0000E+00  0.0000E+00
    -32.357  0.0000E+00  0.0000E+00  0.0000E+00  0.0000E+00  0.0000E+00  0.0000E+00  0.0000E+00  0.0000E+00  0.0000E+00  0.0000E+00  0.0000E+00  0.0000E+00  0.0000E+00  0.0000E+00  0.0000E+00  0.0000E+00  0.0000E+00  0.0000E+00
    -32.087  0.0000E+00  0.0000E+00  0.0000E+00  0.0000E+00  0.0000E+00  0.0000E+00  0.0000E+00  0.0000E+00  0.0000E+00  0.0000E+00  0.0000E+00  0.0000E+00  0.0000E+00  0.0000E+00  0.0000E+00  0.0000E+00  0.0000E+00  0.0000E+00