  16  16   1   0
  0.1002390E+02  0.4555402E-09  0.5129804E-09  0.6863244E-09  0.5000000E-15
  1.000000000000000E-004
  CAR 
 unknown system                          
     30.48342800    -48.17869605  301      9.91901296      1.00000000
    -48.179  0.0000E+00  0.0000E+00  0.0000E+00  0.0000E+00
    -47.916  0.0000E+00  0.0000E+00  0.0000E+00  0.0000E+00
    -47.654  0.0000E+00  0.0000E+00  0.0000E+00  0.0000E+00
    -47.392  0.0000E+00  0.0000E+00  0.0000E+00  0.0000E+00
    -47.130  0.0000E+00  0.0000E+00  0.0000E+00  0.0000E+00
    -46.868  0.0000E+00  0.0000E+00  0.0000E+00  0.0000E+00
    -46.605  0.0000E+00  0.0000E+00  0.0000E+00  0.0000E+00
    -46.343  0.0000E+00  0.0000E+00  0.0000E+00  0.0000E+00
    -46.081  0.0000E+00  0.0000E+00  0.0000E+00  0.0000E+00
    -45.819  0.0000E+00  0.0000E+00  0.0000E+00  0.0000E+00
    -45.557  0.0000E+00  0.0000E+00  0.0000E+00  0.0000E+00
    -45.294  0.0000E+00  0.0000E+00  0.0000E+00  0.0000E+00
    -45.032  0.1783E-02  0.0000E+00  0.4676E-03  0.0000E+00
    -44.770  0.3376E+00  0.0000E+00  0.8899E-01  0.0000E+00
    -44.508  0.2430E+02  0.0000E+00  0.6460E+01  0.0000E+00
    -44.246  0.7846E+02  0.0000E+00  0.2703E+02  0.0000E+00
    -43.983  0.3252E+02  0.0000E+00  0.3584E+02  0.0000E+00
    -43.721  0.0000E+00  0.0000E+00  0.3600E+02  0.0000E+00
    -43.459  0.0000E+00  0.0000E+00  0.3600E+02  0.0000E+00
    -43.197  0.0000E+00  0.0000E+00  0.3600E+02  0.0000E+00
    -42.935  0.0000E+00  0.2398E-04  0.3600E+02  0.6287E-05
    -42.672  0.0000E+00  0.8852E-02  0.3600E+02  0.2327E-02
    -42.410  0.0000E+00  0.1558E+01  0.3600E+02  0.4108E+00
    -42.148  0.0000E+00  0.3811E+02  0.3600E+02  0.1040E+02
    -41.886  0.0000E+00  0.5829E+02  0.3600E+02  0.2576E+02
    -41.624  0.0000E+00  0.3680E+02  0.3600E+02  0.3569E+02
    -41.361  0.0000E+00  0.1915E+00  0.3600E+02  0.3600E+02
    -41.099  0.0000E+00  0.0000E+00  0.3600E+02  0.3600E+02
    -40.837  0.0000E+00  0.0000E+00  0.3600E+02  0.3600E+02
    -40.575  0.0000E+00  0.0000E+00  0.3600E+02  0.3600E+02
    -40.312  0.0000E+00  0.0000E+00  0.3600E+02  0.3600E+02
    -40.050  0.0000E+00  0.0000E+00  0.3600E+02  0.3600E+02
    -39.788  0.0000E+00  0.0000E+00  0.3600E+02  0.3600E+02
    -39.526  0.0000E+00  0.0000E+00  0.3600E+02  0.3600E+02
    -39.264  0.0000E+00  0.0000E+00  0.3600E+02  0.3600E+02
    -39.001  0.0000E+00  0.0000E+00  0.3600E+02  0.3600E+02
    -38.739  0.0000E+00  0.0000E+00  0.3600E+02  0.3600E+02
    -38.477  0.0000E+00  0.0000E+00  0.3600E+02  0.3600E+02
    -38.215  0.0000E+00  0.0000E+00  0.3600E+02  0.3600E+02
    -37.953  0.0000E+00  0.0000E+00  0.3600E+02  0.3600E+02
    -37.690  0.0000E+00  0.0000E+00  0.3600E+02  0.3600E+02
    -37.428  0.0000E+00  0.0000E+00  0.3600E+02  0.3600E+02
    -37.166  0.0000E+00  0.0000E+00  0.3600E+02  0.3600E+02
    -36.904  0.0000E+00  0.0000E+00  0.3600E+02  0.3600E+02
    -36.642  0.0000E+00  0.0000E+00  0.3600E+02  0.3600E+02
    -36.379  0.0000E+00  0.0000E+00  0.3600E+02  0.3600E+02
    -36.117  0.0000E+00  0.0000E+00  0.3600E+02  0.3600E+02
    -35.855  0.0000E+00  0.0000E+00  0.3600E+02  0.3600E+02
    -35.593  0.0000E+00  0.0000E+00  0.3600E+02  0.3600E+02
    -35.331  0.0000E+00  0.0000E+00  0.3600E+02  0.3600E+02
    -35.068  0.0000E+00  0.0000E+00  0.3600E+02  0.3600E+02
    -34.806  0.0000E+00  0.0000E+00  0.3600E+02  0.3600E+02
    -34.544  0.0000E+00  0.0000E+00  0.3600E+02  0.3600E+02
    -34.282  0.0000E+00  0.0000E+00  0.3600E+02  0.3600E+02
    -34.020  0.0000E+00  0.0000E+00  0.3600E+02  0.3600E+02
    -33.757  0.0000E+00  0.0000E+00  0.3600E+02  0.3600E+02
    -33.495  0.0000E+00  0.0000E+00  0.3600E+02  0.3600E+02
    -33.233  0.0000E+00  0.0000E+00  0.3600E+02  0.3600E+02
    -32.971  0.0000E+00  0.0000E+00  0.3600E+02  0.3600E+02
    -32.708  0.0000E+00  0.0000E+00  0.3600E+02  0.3600E+02
    -32.446  0.0000E+00  0.0000E+00  0.3600E+02  0.3600E+02
    -32.184  0.0000E+00  0.0000E+00  0.3600E+02  0.3600E+02
    -31.922  0.0000E+00  0.0000E+00  0.3600E+02  0.3600E+02
    -31.660  0.0000E+00  0.0000E+00  0.3600E+02  0.3600E+02
    -31.397  0.0000E+00  0.0000E+00  0.3600E+02  0.3600E+02
    -31.135  0.0000E+00  0.0000E+00  0.3600E+02  0.3600E+02
    -30.873  0.0000E+00  0.0000E+00  0.3600E+02  0.3600E+02
    -30.611  0.0000E+00  0.0000E+00  0.3600E+02  0.3600E+02
    -30.349  0.0000E+00  0.0000E+00  0.3600E+02  0.3600E+02
    -30.086  0.0000E+00  0.0000E+00  0.3600E+02  0.3600E+02
    -29.824  0.0000E+00  0.0000E+00  0.3600E+02  0.3600E+02
    -29.562  0.0000E+00  0.0000E+00  0.3600E+02  0.3600E+02
    -29.300  0.0000E+00  0.0000E+00  0.3600E+02  0.3600E+02
    -29.038  0.0000E+00  0.0000E+00  0.3600E+02  0.3600E+02
    -28.775  0.0000E+00  0.0000E+00  0.3600E+02  0.3600E+02
    -28.513  0.0000E+00  0.0000E+00  0.3600E+02  0.3600E+02
    -28.251  0.0000E+00  0.0000E+00  0.3600E+02  0.3600E+02
    -27.989  0.0000E+00  0.0000E+00  0.3600E+02  0.3600E+02
    -27.727  0.0000E+00  0.0000E+00  0.3600E+02  0.3600E+02
    -27.464  0.0000E+00  0.0000E+00  0.3600E+02  0.3600E+02
    -27.202  0.0000E+00  0.0000E+00  0.3600E+02  0.3600E+02
    -26.940  0.0000E+00  0.0000E+00  0.3600E+02  0.3600E+02
    -26.678  0.0000E+00  0.0000E+00  0.3600E+02  0.3600E+02
    -26.416  0.0000E+00  0.0000E+00  0.3600E+02  0.3600E+02
    -26.153  0.0000E+00  0.0000E+00  0.3600E+02  0.3600E+02
    -25.891  0.0000E+00  0.0000E+00  0.3600E+02  0.3600E+02
    -25.629  0.0000E+00  0.0000E+00  0.3600E+02  0.3600E+02
    -25.367  0.0000E+00  0.0000E+00  0.3600E+02  0.3600E+02
    -25.104  0.0000E+00  0.0000E+00  0.3600E+02  0.3600E+02
    -24.842  0.0000E+00  0.0000E+00  0.3600E+02  0.3600E+02
    -24.580  0.0000E+00  0.0000E+00  0.3600E+02  0.3600E+02
    -24.318  0.0000E+00  0.0000E+00  0.3600E+02  0.3600E+02
    -24.056  0.0000E+00  0.0000E+00  0.3600E+02  0.3600E+02
    -23.793  0.0000E+00  0.0000E+00  0.3600E+02  0.3600E+02
    -23.531  0.0000E+00  0.0000E+00  0.3600E+02  0.3600E+02
    -23.269  0.0000E+00  0.0000E+00  0.3600E+02  0.3600E+02
    -23.007  0.0000E+00  0.0000E+00  0.3600E+02  0.3600E+02
    -22.745  0.0000E+00  0.0000E+00  0.3600E+02  0.3600E+02
    -22.482  0.0000E+00  0.0000E+00  0.3600E+02  0.3600E+02
    -22.220  0.0000E+00  0.0000E+00  0.3600E+02  0.3600E+02
    -21.958  0.0000E+00  0.0000E+00  0.3600E+02  0.3600E+02
    -21.696  0.0000E+00  0.0000E+00  0.3600E+02  0.3600E+02
    -21.434  0.0000E+00  0.0000E+00  0.3600E+02  0.3600E+02
    -21.171  0.0000E+00  0.0000E+00  0.3600E+02  0.3600E+02
    -20.909  0.0000E+00  0.0000E+00  0.3600E+02  0.3600E+02
    -20.647  0.0000E+00  0.0000E+00  0.3600E+02  0.3600E+02
    -20.385  0.0000E+00  0.0000E+00  0.3600E+02  0.3600E+02
    -20.123  0.0000E+00  0.0000E+00  0.3600E+02  0.3600E+02
    -19.860  0.0000E+00  0.0000E+00  0.3600E+02  0.3600E+02
    -19.598  0.0000E+00  0.0000E+00  0.3600E+02  0.3600E+02
    -19.336  0.0000E+00  0.0000E+00  0.3600E+02  0.3600E+02
    -19.074  0.0000E+00  0.0000E+00  0.3600E+02  0.3600E+02
    -18.812  0.0000E+00  0.0000E+00  0.3600E+02  0.3600E+02
    -18.549  0.0000E+00  0.0000E+00  0.3600E+02  0.3600E+02
    -18.287  0.0000E+00  0.0000E+00  0.3600E+02  0.3600E+02
    -18.025  0.0000E+00  0.0000E+00  0.3600E+02  0.3600E+02
    -17.763  0.0000E+00  0.0000E+00  0.3600E+02  0.3600E+02
    -17.500  0.0000E+00  0.0000E+00  0.3600E+02  0.3600E+02
    -17.238  0.0000E+00  0.0000E+00  0.3600E+02  0.3600E+02
    -16.976  0.0000E+00  0.0000E+00  0.3600E+02  0.3600E+02
    -16.714  0.0000E+00  0.0000E+00  0.3600E+02  0.3600E+02
    -16.452  0.0000E+00  0.0000E+00  0.3600E+02  0.3600E+02
    -16.189  0.0000E+00  0.0000E+00  0.3600E+02  0.3600E+02
    -15.927  0.0000E+00  0.0000E+00  0.3600E+02  0.3600E+02
    -15.665  0.0000E+00  0.0000E+00  0.3600E+02  0.3600E+02
    -15.403  0.0000E+00  0.0000E+00  0.3600E+02  0.3600E+02
    -15.141  0.0000E+00  0.0000E+00  0.3600E+02  0.3600E+02
    -14.878  0.0000E+00  0.0000E+00  0.3600E+02  0.3600E+02
    -14.616  0.0000E+00  0.0000E+00  0.3600E+02  0.3600E+02
    -14.354  0.0000E+00  0.0000E+00  0.3600E+02  0.3600E+02
    -14.092  0.0000E+00  0.0000E+00  0.3600E+02  0.3600E+02
    -13.830  0.0000E+00  0.0000E+00  0.3600E+02  0.3600E+02
    -13.567  0.0000E+00  0.0000E+00  0.3600E+02  0.3600E+02
    -13.305  0.0000E+00  0.0000E+00  0.3600E+02  0.3600E+02
    -13.043  0.0000E+00  0.0000E+00  0.3600E+02  0.3600E+02
    -12.781  0.0000E+00  0.0000E+00  0.3600E+02  0.3600E+02
    -12.519  0.0000E+00  0.0000E+00  0.3600E+02  0.3600E+02
    -12.256  0.0000E+00  0.0000E+00  0.3600E+02  0.3600E+02
    -11.994  0.0000E+00  0.0000E+00  0.3600E+02  0.3600E+02
    -11.732  0.0000E+00  0.0000E+00  0.3600E+02  0.3600E+02
    -11.470  0.0000E+00  0.0000E+00  0.3600E+02  0.3600E+02
    -11.207  0.0000E+00  0.0000E+00  0.3600E+02  0.3600E+02
    -10.945  0.0000E+00  0.0000E+00  0.3600E+02  0.3600E+02
    -10.683  0.0000E+00  0.0000E+00  0.3600E+02  0.3600E+02
    -10.421  0.0000E+00  0.0000E+00  0.3600E+02  0.3600E+02
    -10.159  0.0000E+00  0.0000E+00  0.3600E+02  0.3600E+02
     -9.896  0.0000E+00  0.0000E+00  0.3600E+02  0.3600E+02
     -9.634  0.0000E+00  0.0000E+00  0.3600E+02  0.3600E+02
     -9.372  0.0000E+00  0.0000E+00  0.3600E+02  0.3600E+02
     -9.110  0.0000E+00  0.0000E+00  0.3600E+02  0.3600E+02
     -8.848  0.0000E+00  0.0000E+00  0.3600E+02  0.3600E+02
     -8.585  0.0000E+00  0.0000E+00  0.3600E+02  0.3600E+02
     -8.323  0.0000E+00  0.0000E+00  0.3600E+02  0.3600E+02
     -8.061  0.0000E+00  0.0000E+00  0.3600E+02  0.3600E+02
     -7.799  0.0000E+00  0.0000E+00  0.3600E+02  0.3600E+02
     -7.537  0.0000E+00  0.0000E+00  0.3600E+02  0.3600E+02
     -7.274  0.0000E+00  0.0000E+00  0.3600E+02  0.3600E+02
     -7.012  0.0000E+00  0.0000E+00  0.3600E+02  0.3600E+02
     -6.750  0.0000E+00  0.0000E+00  0.3600E+02  0.3600E+02
     -6.488  0.0000E+00  0.0000E+00  0.3600E+02  0.3600E+02
     -6.226  0.0000E+00  0.0000E+00  0.3600E+02  0.3600E+02
     -5.963  0.0000E+00  0.0000E+00  0.3600E+02  0.3600E+02
     -5.701  0.0000E+00  0.0000E+00  0.3600E+02  0.3600E+02
     -5.439  0.0000E+00  0.0000E+00  0.3600E+02  0.3600E+02
     -5.177  0.0000E+00  0.0000E+00  0.3600E+02  0.3600E+02
     -4.915  0.0000E+00  0.0000E+00  0.3600E+02  0.3600E+02
     -4.652  0.0000E+00  0.0000E+00  0.3600E+02  0.3600E+02
     -4.390  0.0000E+00  0.0000E+00  0.3600E+02  0.3600E+02
     -4.128  0.0000E+00  0.0000E+00  0.3600E+02  0.3600E+02
     -3.866  0.3981E-05  0.1047E-04  0.3600E+02  0.3600E+02
     -3.603  0.7947E-03  0.1960E-02  0.3600E+02  0.3600E+02
     -3.341  0.6311E-01  0.1039E+00  0.3602E+02  0.3603E+02
     -3.079  0.4636E+00  0.5680E+00  0.3614E+02  0.3618E+02
     -2.817  0.7487E+00  0.8076E+00  0.3634E+02  0.3639E+02
     -2.555  0.1344E+01  0.1591E+01  0.3669E+02  0.3681E+02
     -2.292  0.1963E+01  0.2269E+01  0.3721E+02  0.3741E+02
     -2.030  0.3052E+01  0.2966E+01  0.3801E+02  0.3819E+02
     -1.768  0.3091E+01  0.3244E+01  0.3884E+02  0.3905E+02
     -1.506  0.2922E+01  0.2583E+01  0.3961E+02  0.3974E+02
     -1.244  0.1343E+01  0.9383E+00  0.3997E+02  0.3999E+02
     -0.981  0.7615E-01  0.1524E-01  0.4000E+02  0.4000E+02
     -0.719  0.0000E+00  0.0000E+00  0.4000E+02  0.4000E+02
     -0.457  0.0000E+00  0.0000E+00  0.4000E+02  0.4000E+02
     -0.195  0.0000E+00  0.0000E+00  0.4000E+02  0.4000E+02
      0.067  0.0000E+00  0.0000E+00  0.4000E+02  0.4000E+02
      0.330  0.0000E+00  0.0000E+00  0.4000E+02  0.4000E+02
      0.592  0.0000E+00  0.0000E+00  0.4000E+02  0.4000E+02
      0.854  0.0000E+00  0.0000E+00  0.4000E+02  0.4000E+02
      1.116  0.0000E+00  0.0000E+00  0.4000E+02  0.4000E+02
      1.378  0.0000E+00  0.0000E+00  0.4000E+02  0.4000E+02
      1.641  0.0000E+00  0.0000E+00  0.4000E+02  0.4000E+02
      1.903  0.2157E-06  0.0000E+00  0.4000E+02  0.4000E+02
      2.165  0.5313E-04  0.1080E-05  0.4000E+02  0.4000E+02
      2.427  0.8763E-02  0.2386E-03  0.4000E+02  0.4000E+02
      2.689  0.2447E+00  0.2370E-01  0.4007E+02  0.4001E+02
      2.952  0.2355E+01  0.3123E+00  0.4068E+02  0.4009E+02
      3.214  0.3763E+01  0.2077E+01  0.4167E+02  0.4063E+02
      3.476  0.4525E+01  0.3126E+01  0.4287E+02  0.4146E+02
      3.738  0.4692E+01  0.3547E+01  0.4411E+02  0.4240E+02
      4.001  0.3933E+01  0.4413E+01  0.4516E+02  0.4356E+02
      4.263  0.2911E+01  0.3519E+01  0.4593E+02  0.4450E+02
      4.525  0.4406E+01  0.3298E+01  0.4710E+02  0.4538E+02
      4.787  0.4935E+01  0.2581E+01  0.4841E+02  0.4607E+02
      5.049  0.6219E+01  0.3521E+01  0.5005E+02  0.4700E+02
      5.312  0.6629E+01  0.4122E+01  0.5181E+02  0.4809E+02
      5.574  0.1569E+01  0.6141E+01  0.5225E+02  0.4971E+02
      5.836  0.4297E+01  0.6515E+01  0.5338E+02  0.5143E+02
      6.098  0.9008E+01  0.2119E+01  0.5575E+02  0.5200E+02
      6.360  0.1212E+02  0.3452E+00  0.5894E+02  0.5210E+02
      6.623  0.1344E+02  0.9325E+00  0.6251E+02  0.5235E+02
      6.885  0.1273E+02  0.2502E+01  0.6589E+02  0.5301E+02
      7.147  0.1042E+02  0.5488E+01  0.6866E+02  0.5446E+02
      7.409  0.1431E+02  0.5947E+01  0.7245E+02  0.5602E+02
      7.671  0.1348E+02  0.8595E+01  0.7603E+02  0.5830E+02
      7.934  0.1248E+02  0.9439E+01  0.7935E+02  0.6079E+02
      8.196  0.1047E+02  0.1113E+02  0.8214E+02  0.6374E+02
      8.458  0.1284E+02  0.1092E+02  0.8554E+02  0.6664E+02
      8.720  0.1453E+02  0.5779E+01  0.8939E+02  0.6819E+02
      8.982  0.1590E+02  0.6987E+01  0.9360E+02  0.7004E+02
      9.245  0.1746E+02  0.1342E+02  0.9823E+02  0.7357E+02
      9.507  0.1207E+02  0.1038E+02  0.1014E+03  0.7634E+02
      9.769  0.6011E+01  0.1059E+02  0.1031E+03  0.7914E+02
     10.031  0.4465E+01  0.6503E+01  0.1043E+03  0.8088E+02
     10.293  0.3247E+01  0.9783E+01  0.1051E+03  0.8347E+02
     10.556  0.3194E+01  0.1103E+02  0.1060E+03  0.8640E+02
     10.818  0.3412E+01  0.1167E+02  0.1069E+03  0.8949E+02
     11.080  0.3011E+01  0.1405E+02  0.1077E+03  0.9320E+02
     11.342  0.3507E+01  0.1479E+02  0.1086E+03  0.9713E+02
     11.605  0.2978E+01  0.1534E+02  0.1094E+03  0.1012E+03
     11.867  0.2812E+01  0.9251E+01  0.1102E+03  0.1037E+03
     12.129  0.3097E+01  0.5870E+01  0.1110E+03  0.1052E+03
     12.391  0.3290E+01  0.5466E+01  0.1118E+03  0.1067E+03
     12.653  0.1191E+01  0.4076E+01  0.1122E+03  0.1078E+03
     12.916  0.8591E+00  0.4587E+01  0.1124E+03  0.1090E+03
     13.178  0.2090E+01  0.3442E+01  0.1129E+03  0.1099E+03
     13.440  0.2143E+01  0.4048E+01  0.1135E+03  0.1110E+03
     13.702  0.2265E+01  0.3588E+01  0.1141E+03  0.1119E+03
     13.964  0.1842E+01  0.1215E+01  0.1146E+03  0.1123E+03
     14.227  0.2077E+01  0.2024E+01  0.1152E+03  0.1128E+03
     14.489  0.3027E+01  0.2787E+01  0.1160E+03  0.1135E+03
     14.751  0.2435E+01  0.2871E+01  0.1166E+03  0.1143E+03
     15.013  0.2332E+01  0.2505E+01  0.1172E+03  0.1150E+03
     15.275  0.2178E+01  0.3483E+01  0.1178E+03  0.1159E+03
     15.538  0.1369E+01  0.2628E+01  0.1182E+03  0.1166E+03
     15.800  0.1079E+01  0.2815E+01  0.1184E+03  0.1173E+03
     16.062  0.1715E+01  0.2378E+01  0.1189E+03  0.1179E+03
     16.324  0.1437E+01  0.1116E+01  0.1193E+03  0.1182E+03
     16.586  0.1382E+01  0.1181E+01  0.1196E+03  0.1186E+03
     16.849  0.1218E+01  0.1691E+01  0.1200E+03  0.1190E+03
     17.111  0.1590E+01  0.1358E+01  0.1204E+03  0.1194E+03
     17.373  0.2303E+01  0.1464E+01  0.1210E+03  0.1198E+03
     17.635  0.2547E+01  0.1510E+01  0.1217E+03  0.1202E+03
     17.897  0.1776E+01  0.2146E+01  0.1221E+03  0.1207E+03
     18.160  0.1982E+01  0.2347E+01  0.1227E+03  0.1213E+03
     18.422  0.3002E+01  0.2200E+01  0.1235E+03  0.1219E+03
     18.684  0.3362E+01  0.1599E+01  0.1243E+03  0.1224E+03
     18.946  0.2152E+01  0.2624E+01  0.1249E+03  0.1231E+03
     19.209  0.1420E+01  0.3309E+01  0.1253E+03  0.1239E+03
     19.471  0.2391E+01  0.2890E+01  0.1259E+03  0.1247E+03
     19.733  0.2776E+01  0.1786E+01  0.1267E+03  0.1252E+03
     19.995  0.3045E+01  0.1588E+01  0.1275E+03  0.1256E+03
     20.257  0.2165E+01  0.2862E+01  0.1280E+03  0.1264E+03
     20.520  0.2082E+01  0.3022E+01  0.1286E+03  0.1272E+03
     20.782  0.2442E+01  0.2894E+01  0.1292E+03  0.1279E+03
     21.044  0.2865E+01  0.2351E+01  0.1300E+03  0.1286E+03
     21.306  0.3821E+01  0.2384E+01  0.1310E+03  0.1292E+03
     21.568  0.2742E+01  0.2894E+01  0.1317E+03  0.1300E+03
     21.831  0.2399E+01  0.4089E+01  0.1324E+03  0.1310E+03
     22.093  0.2855E+01  0.2827E+01  0.1331E+03  0.1318E+03
     22.355  0.2478E+01  0.2631E+01  0.1338E+03  0.1325E+03
     22.617  0.3045E+01  0.2771E+01  0.1346E+03  0.1332E+03
     22.879  0.2892E+01  0.2716E+01  0.1354E+03  0.1339E+03
     23.142  0.2717E+01  0.3384E+01  0.1361E+03  0.1348E+03
     23.404  0.2797E+01  0.3034E+01  0.1368E+03  0.1356E+03
     23.666  0.2763E+01  0.2371E+01  0.1376E+03  0.1363E+03
     23.928  0.3071E+01  0.3040E+01  0.1384E+03  0.1371E+03
     24.190  0.3187E+01  0.2616E+01  0.1392E+03  0.1378E+03
     24.453  0.2465E+01  0.3074E+01  0.1399E+03  0.1386E+03
     24.715  0.2527E+01  0.3046E+01  0.1406E+03  0.1394E+03
     24.977  0.2126E+01  0.2582E+01  0.1411E+03  0.1401E+03
     25.239  0.2897E+01  0.2412E+01  0.1419E+03  0.1407E+03
     25.501  0.3122E+01  0.2325E+01  0.1427E+03  0.1413E+03
     25.764  0.2373E+01  0.3208E+01  0.1433E+03  0.1422E+03
     26.026  0.1720E+01  0.2768E+01  0.1438E+03  0.1429E+03
     26.288  0.4388E+00  0.2488E+01  0.1439E+03  0.1436E+03
     26.550  0.3012E+00  0.1021E+01  0.1440E+03  0.1439E+03
     26.813  0.1535E-01  0.2983E+00  0.1440E+03  0.1440E+03
     27.075  0.0000E+00  0.1547E+00  0.1440E+03  0.1440E+03
     27.337  0.0000E+00  0.0000E+00  0.1440E+03  0.1440E+03
     27.599  0.0000E+00  0.0000E+00  0.1440E+03  0.1440E+03
     27.861  0.0000E+00  0.0000E+00  0.1440E+03  0.1440E+03
     28.124  0.0000E+00  0.0000E+00  0.1440E+03  0.1440E+03
     28.386  0.0000E+00  0.0000E+00  0.1440E+03  0.1440E+03
     28.648  0.0000E+00  0.0000E+00  0.1440E+03  0.1440E+03
     28.910  0.0000E+00  0.0000E+00  0.1440E+03  0.1440E+03
     29.172  0.0000E+00  0.0000E+00  0.1440E+03  0.1440E+03
     29.435  0.0000E+00  0.0000E+00  0.1440E+03  0.1440E+03
     29.697  0.0000E+00  0.0000E+00  0.1440E+03  0.1440E+03
     29.959  0.0000E+00  0.0000E+00  0.1440E+03  0.1440E+03
     30.221  0.0000E+00  0.0000E+00  0.1440E+03  0.1440E+03
     30.483  0.0000E+00  0.0000E+00  0.1440E+03  0.1440E+03
     30.48342800    -48.17869605  301      9.91901296      1.00000000
    -48.179  0.0000E+00  0.0000E+00  0.0000E+00  0.0000E+00  0.0000E+00  0.0000E+00  0.0000E+00  0.0000E+00  0.0000E+00  0.0000E+00  0.0000E+00  0.0000E+00  0.0000E+00  0.0000E+00  0.0000E+00  0.0000E+00  0.0000E+00  0.0000E+00
    -47.916  0.0000E+00  0.0000E+00  0.0000E+00  0.0000E+00  0.0000E+00  0.0000E+00  0.0000E+00  0.0000E+00  0.0000E+00  0.0000E+00  0.0000E+00  0.0000E+00  0.0000E+00  0.0000E+00  0.0000E+00  0.0000E+00  0.0000E+00  0.0000E+00
    -47.654  0.0000E+00  0.0000E+00  0.0000E+00  0.0000E+00  0.0000E+00  0.0000E+00  0.0000E+00  0.0000E+00  0.0000E+00  0.0000E+00  0.0000E+00  0.0000E+00  0.0000E+00  0.0000E+00  0.0000E+00  0.0000E+00  0.0000E+00  0.0000E+00
    -47.392  0.0000E+00  0.0000E+00  0.0000E+00  0.0000E+00  0.0000E+00  0.0000E+00  0.0000E+00  0.0000E+00  0.0000E+00  0.0000E+00  0.0000E+00  0.0000E+00  0.0000E+00  0.0000E+00  0.0000E+00  0.0000E+00  0.0000E+00  0.0000E+00
    -47.130  0.0000E+00  0.0000E+00  0.0000E+00  0.0000E+00  0.0000E+00  0.0000E+00  0.0000E+00  0.0000E+00  0.0000E+00  0.0000E+00  0.0000E+00  0.0000E+00  0.0000E+00  0.0000E+00  0.0000E+00  0.0000E+00  0.0000E+00  0.0000E+00
    -46.868  0.0000E+00  0.0000E+00  0.0000E+00  0.0000E+00  0.0000E+00  0.0000E+00  0.0000E+00  0.0000E+00  0.0000E+00  0.0000E+00  0.0000E+00  0.0000E+00  0.0000E+00  0.0000E+00  0.0000E+00  0.0000E+00  0.0000E+00  0.0000E+00
    -46.605  0.0000E+00  0.0000E+00  0.0000E+00  0.0000E+00  0.0000E+00  0.0000E+00  0.0000E+00  0.0000E+00  0.0000E+00  0.0000E+00  0.0000E+00  0.0000E+00  0.0000E+00  0.0000E+00  0.0000E+00  0.0000E+00  0.0000E+00  0.0000E+00
    -46.343  0.0000E+00  0.0000E+00  0.0000E+00  0.0000E+00  0.0000E+00  0.0000E+00  0.0000E+00  0.0000E+00  0.0000E+00  0.0000E+00  0.0000E+00  0.0000E+00  0.0000E+00  0.0000E+00  0.0000E+00  0.0000E+00  0.0000E+00  0.0000E+00
    -46.081  0.0000E+00  0.0000E+00  0.0000E+00  0.0000E+00  0.0000E+00  0.0000E+00  0.0000E+00  0.0000E+00  0.0000E+00  0.0000E+00  0.0000E+00  0.0000E+00  0.0000E+00  0.0000E+00  0.0000E+00  0.0000E+00  0.0000E+00  0.0000E+00
    -45.819  0.0000E+00  0.0000E+00  0.0000E+00  0.0000E+00  0.0000E+00  0.0000E+00  0.0000E+00  0.0000E+00  0.0000E+00  0.0000E+00  0.0000E+00  0.0000E+00  0.0000E+00  0.0000E+00  0.0000E+00  0.0000E+00  0.0000E+00  0.0000E+00
    -45.557  0.0000E+00  0.0000E+00  0.0000E+00  0.0000E+00  0.0000E+00  0.0000E+00  0.0000E+00  0.0000E+00  0.0000E+00  0.0000E+00  0.0000E+00  0.0000E+00  0.0000E+00  0.0000E+00  0.0000E+00  0.0000E+00  0.0000E+00  0.0000E+00
    -45.294  0.0000E+00  0.0000E+00  0.0000E+00  0.0000E+00  0.0000E+00  0.0000E+00  0.0000E+00  0.0000E+00  0.0000E+00  0.0000E+00  0.0000E+00  0.0000E+00  0.0000E+00  0.0000E+00  0.0000E+00  0.0000E+00  0.0000E+00  0.0000E+00
    -45.032  0.2356E-08  0.0000E+00  0.1102E-03  0.0000E+00  0.2831E-05  0.0000E+00  0.1606E-03  0.0000E+00  0.4787E-09  0.0000E+00  0.4560E-09  0.0000E+00  0.4450E-09  0.0000E+00  0.4630E-09  0.0000E+00  0.1340E-08  0.0000E+00
    -44.770  0.4449E-06  0.0000E+00  0.2049E-01  0.0000E+00  0.6485E-03  0.0000E+00  0.2984E-01  0.0000E+00  0.9064E-07  0.0000E+00  0.8945E-07  0.0000E+00  0.8638E-07  0.0000E+00  0.8901E-07  0.0000E+00  0.2497E-06  0.0000E+00
    -44.508  0.3391E-04  0.0000E+00  0.1244E+01  0.0000E+00  0.8219E-01  0.0000E+00  0.1739E+01  0.0000E+00  0.7406E-05  0.0000E+00  0.1002E-04  0.0000E+00  0.7310E-05  0.0000E+00  0.8633E-05  0.0000E+00  0.1593E-04  0.0000E+00
    -44.246  0.8737E-04  0.0000E+00  0.2379E+01  0.0000E+00  0.1552E+01  0.0000E+00  0.1926E+01  0.0000E+00  0.2451E-04  0.0000E+00  0.5250E-04  0.0000E+00  0.3692E-04  0.0000E+00  0.3269E-04  0.0000E+00  0.3190E-04  0.0000E+00
    -43.983  0.2273E-04  0.0000E+00  0.8281E-01  0.0000E+00  0.2112E+01  0.0000E+00  0.5867E-01  0.0000E+00  0.1002E-04  0.0000E+00  0.1906E-04  0.0000E+00  0.1567E-04  0.0000E+00  0.1533E-04  0.0000E+00  0.5871E-05  0.0000E+00
    -43.721  0.0000E+00  0.0000E+00  0.0000E+00  0.0000E+00  0.0000E+00  0.0000E+00  0.0000E+00  0.0000E+00  0.0000E+00  0.0000E+00  0.0000E+00  0.0000E+00  0.0000E+00  0.0000E+00  0.0000E+00  0.0000E+00  0.0000E+00  0.0000E+00
    -43.459  0.0000E+00  0.0000E+00  0.0000E+00  0.0000E+00  0.0000E+00  0.0000E+00  0.0000E+00  0.0000E+00  0.0000E+00  0.0000E+00  0.0000E+00  0.0000E+00  0.0000E+00  0.0000E+00  0.0000E+00  0.0000E+00  0.0000E+00  0.0000E+00
    -43.197  0.0000E+00  0.0000E+00  0.0000E+00  0.0000E+00  0.0000E+00  0.0000E+00  0.0000E+00  0.0000E+00  0.0000E+00  0.0000E+00  0.0000E+00  0.0000E+00  0.0000E+00  0.0000E+00  0.0000E+00  0.0000E+00  0.0000E+00  0.0000E+00
    -42.935  0.0000E+00  0.3099E-10  0.0000E+00  0.1803E-05  0.0000E+00  0.4204E-08  0.0000E+00  0.1973E-05  0.0000E+00  0.5135E-11  0.0000E+00  0.3048E-11  0.0000E+00  0.9807E-11  0.0000E+00  0.5414E-11  0.0000E+00  0.3012E-10
    -42.672  0.0000E+00  0.1435E-07  0.0000E+00  0.5021E-03  0.0000E+00  0.7137E-05  0.0000E+00  0.5983E-03  0.0000E+00  0.3077E-08  0.0000E+00  0.2368E-08  0.0000E+00  0.3302E-08  0.0000E+00  0.3726E-08  0.0000E+00  0.8179E-08
    -42.410  0.0000E+00  0.2545E-05  0.0000E+00  0.8730E-01  0.0000E+00  0.1340E-02  0.0000E+00  0.1044E+00  0.0000E+00  0.5500E-06  0.0000E+00  0.4310E-06  0.0000E+00  0.5778E-06  0.0000E+00  0.6685E-06  0.0000E+00  0.1421E-05
    -42.148  0.0000E+00  0.6056E-04  0.0000E+00  0.1356E+01  0.0000E+00  0.7096E-01  0.0000E+00  0.1678E+01  0.0000E+00  0.1441E-04  0.0000E+00  0.2337E-04  0.0000E+00  0.1658E-04  0.0000E+00  0.1987E-04  0.0000E+00  0.2703E-04
    -41.886  0.0000E+00  0.8328E-04  0.0000E+00  0.1563E+01  0.0000E+00  0.8203E+00  0.0000E+00  0.1400E+01  0.0000E+00  0.2012E-04  0.0000E+00  0.5286E-04  0.0000E+00  0.3433E-04  0.0000E+00  0.2755E-04  0.0000E+00  0.2451E-04
    -41.624  0.0000E+00  0.3102E-04  0.0000E+00  0.7530E+00  0.0000E+00  0.2770E+01  0.0000E+00  0.5700E+00  0.0000E+00  0.1595E-04  0.0000E+00  0.2008E-04  0.0000E+00  0.2014E-04  0.0000E+00  0.1946E-04  0.0000E+00  0.1120E-04
    -41.361  0.0000E+00  0.2202E-07  0.0000E+00  0.2615E-04  0.0000E+00  0.2806E-01  0.0000E+00  0.2693E-04  0.0000E+00  0.6979E-08  0.0000E+00  0.8025E-07  0.0000E+00  0.8121E-08  0.0000E+00  0.7524E-07  0.0000E+00  0.2997E-08
    -41.099  0.0000E+00  0.0000E+00  0.0000E+00  0.0000E+00  0.0000E+00  0.0000E+00  0.0000E+00  0.0000E+00  0.0000E+00  0.0000E+00  0.0000E+00  0.0000E+00  0.0000E+00  0.0000E+00  0.0000E+00  0.0000E+00  0.0000E+00  0.0000E+00
    -40.837  0.0000E+00  0.0000E+00  0.0000E+00  0.0000E+00  0.0000E+00  0.0000E+00  0.0000E+00  0.0000E+00  0.0000E+00  0.0000E+00  0.0000E+00  0.0000E+00  0.0000E+00  0.0000E+00  0.0000E+00  0.0000E+00  0.0000E+00  0.0000E+00
    -40.575  0.0000E+00  0.0000E+00  0.0000E+00  0.0000E+00  0.0000E+00  0.0000E+00  0.0000E+00  0.0000E+00  0.0000E+00  0.0000E+00  0.0000E+00  0.0000E+00  0.0000E+00  0.0000E+00  0.0000E+00  0.0000E+00  0.0000E+00  0.0000E+00
    -40.312  0.0000E+00  0.0000E+00  0.0000E+00  0.0000E+00  0.0000E+00  0.0000E+00  0.0000E+00  0.0000E+00  0.0000E+00  0.0000E+00  0.0000E+00  0.0000E+00  0.0000E+00  0.0000E+00  0.0000E+00  0.0000E+00  0.0000E+00  0.0000E+00
    -40.050  0.0000E+00  0.0000E+00  0.0000E+00  0.0000E+00  0.0000E+00  0.0000E+00  0.0000E+00  0.0000E+00  0.0000E+00  0.0000E+00  0.0000E+00  0.0000E+00  0.0000E+00  0.0000E+00  0.0000E+00  0.0000E+00  0.0000E+00  0.0000E+00
    -39.788  0.0000E+00  0.0000E+00  0.0000E+00  0.0000E+00  0.0000E+00  0.0000E+00  0.0000E+00  0.0000E+00  0.0000E+00  0.0000E+00  0.0000E+00  0.0000E+00  0.0000E+00  0.0000E+00  0.0000E+00  0.0000E+00  0.0000E+00  0.0000E+00
    -39.526  0.0000E+00  0.0000E+00  0.0000E+00  0.0000E+00  0.0000E+00  0.0000E+00  0.0000E+00  0.0000E+00  0.0000E+00  0.0000E+00  0.0000E+00  0.0000E+00  0.0000E+00  0.0000E+00  0.0000E+00  0.0000E+00  0.0000E+00  0.0000E+00
    -39.264  0.0000E+00  0.0000E+00  0.0000E+00  0.0000E+00  0.0000E+00  0.0000E+00  0.0000E+00  0.0000E+00  0.0000E+00  0.0000E+00  0.0000E+00  0.0000E+00  0.0000E+00  0.0000E+00  0.0000E+00  0.0000E+00  0.0000E+00  0.0000E+00
    -39.001  0.0000E+00  0.0000E+00  0.0000E+00  0.0000E+00  0.0000E+00  0.0000E+00  0.0000E+00  0.0000E+00  0.0000E+00  0.0000E+00  0.0000E+00  0.0000E+00  0.0000E+00  0.0000E+00  0.0000E+00  0.0000E+00  0.0000E+00  0.0000E+00
    -38.739  0.0000E+00  0.0000E+00  0.0000E+00  0.0000E+00  0.0000E+00  0.0000E+00  0.0000E+00  0.0000E+00  0.0000E+00  0.0000E+00  0.0000E+00  0.0000E+00  0.0000E+00  0.0000E+00  0.0000E+00  0.0000E+00  0.0000E+00  0.0000E+00
    -38.477  0.0000E+00  0.0000E+00  0.0000E+00  0.0000E+00  0.0000E+00  0.0000E+00  0.0000E+00  0.0000E+00  0.0000E+00  0.0000E+00  0.0000E+00  0.0000E+00  0.0000E+00  0.0000E+00  0.0000E+00  0.0000E+00  0.0000E+00  0.0000E+00
    -38.215  0.0000E+00  0.0000E+00  0.0000E+00  0.0000E+00  0.0000E+00  0.0000E+00  0.0000E+00  0.0000E+00  0.0000E+00  0.0000E+00  0.0000E+00  0.0000E+00  0.0000E+00  0.0000E+00  0.0000E+00  0.0000E+00  0.0000E+00  0.0000E+00
    -37.953  0.0000E+00  0.0000E+00  0.0000E+00  0.0000E+00  0.0000E+00  0.0000E+00  0.0000E+00  0.0000E+00  0.0000E+00  0.0000E+00  0.0000E+00  0.0000E+00  0.0000E+00  0.0000E+00  0.0000E+00  0.0000E+00  0.0000E+00  0.0000E+00
    -37.690  0.0000E+00  0.0000E+00  0.0000E+00  0.0000E+00  0.0000E+00  0.0000E+00  0.0000E+00  0.0000E+00  0.0000E+00  0.0000E+00  0.0000E+00  0.0000E+00  0.0000E+00  0.0000E+00  0.0000E+00  0.0000E+00  0.0000E+00  0.0000E+00
    -37.428  0.0000E+00  0.0000E+00  0.0000E+00  0.0000E+00  0.0000E+00  0.0000E+00  0.0000E+00  0.0000E+00  0.0000E+00  0.0000E+00  0.0000E+00  0.0000E+00  0.0000E+00  0.0000E+00  0.0000E+00  0.0000E+00  0.0000E+00  0.0000E+00
    -37.166  0.0000E+00  0.0000E+00  0.0000E+00  0.0000E+00  0.0000E+00  0.0000E+00  0.0000E+00  0.0000E+00  0.0000E+00  0.0000E+00  0.0000E+00  0.0000E+00  0.0000E+00  0.0000E+00  0.0000E+00  0.0000E+00  0.0000E+00  0.0000E+00
    -36.904  0.0000E+00  0.0000E+00  0.0000E+00  0.0000E+00  0.0000E+00  0.0000E+00  0.0000E+00  0.0000E+00  0.0000E+00  0.0000E+00  0.0000E+00  0.0000E+00  0.0000E+00  0.0000E+00  0.0000E+00  0.0000E+00  0.0000E+00  0.0000E+00
    -36.642  0.0000E+00  0.0000E+00  0.0000E+00  0.0000E+00  0.0000E+00  0.0000E+00  0.0000E+00  0.0000E+00  0.0000E+00  0.0000E+00  0.0000E+00  0.0000E+00  0.0000E+00  0.0000E+00  0.0000E+00  0.0000E+00  0.0000E+00  0.0000E+00
    -36.379  0.0000E+00  0.0000E+00  0.0000E+00  0.0000E+00  0.0000E+00  0.0000E+00  0.0000E+00  0.0000E+00  0.0000E+00  0.0000E+00  0.0000E+00  0.0000E+00  0.0000E+00  0.0000E+00  0.0000E+00  0.0000E+00  0.0000E+00  0.0000E+00
    -36.117  0.0000E+00  0.0000E+00  0.0000E+00  0.0000E+00  0.0000E+00  0.0000E+00  0.0000E+00  0.0000E+00  0.0000E+00  0.0000E+00  0.0000E+00  0.0000E+00  0.0000E+00  0.0000E+00  0.0000E+00  0.0000E+00  0.0000E+00  0.0000E+00
    -35.855  0.0000E+00  0.0000E+00  0.0000E+00  0.0000E+00  0.0000E+00  0.0000E+00  0.0000E+00  0.0000E+00  0.0000E+00  0.0000E+00  0.0000E+00  0.0000E+00  0.0000E+00  0.0000E+00  0.0000E+00  0.0000E+00  0.0000E+00  0.0000E+00
    -35.593  0.0000E+00  0.0000E+00  0.0000E+00  0.0000E+00  0.0000E+00  0.0000E+00  0.0000E+00  0.0000E+00  0.0000E+00  0.0000E+00  0.0000E+00  0.0000E+00  0.0000E+00  0.0000E+00  0.0000E+00  0.0000E+00  0.0000E+00  0.0000E+00
    -35.331  0.0000E+00  0.0000E+00  0.0000E+00  0.0000E+00  0.0000E+00  0.0000E+00  0.0000E+00  0.0000E+00  0.0000E+00  0.0000E+00  0.0000E+00  0.0000E+00  0.0000E+00  0.0000E+00  0.0000E+00  0.0000E+00  0.0000E+00  0.0000E+00
    -35.068  0.0000E+00  0.0000E+00  0.0000E+00  0.0000E+00  0.0000E+00  0.0000E+00  0.0000E+00  0.0000E+00  0.0000E+00  0.0000E+00  0.0000E+00  0.0000E+00  0.0000E+00  0.0000E+00  0.0000E+00  0.0000E+00  0.0000E+00  0.0000E+00