  16  16   1   0
  0.1093464E+02  0.4689384E-09  0.5280681E-09  0.7065104E-09  0.5000000E-15
  1.000000000000000E-004
  CAR 
 unknown system                          
     28.33582674    -49.25316516  301      8.82403898      1.00000000
    -49.253  0.0000E+00  0.0000E+00  0.0000E+00  0.0000E+00
    -48.995  0.0000E+00  0.0000E+00  0.0000E+00  0.0000E+00
    -48.736  0.0000E+00  0.0000E+00  0.0000E+00  0.0000E+00
    -48.477  0.0000E+00  0.0000E+00  0.0000E+00  0.0000E+00
    -48.219  0.0000E+00  0.0000E+00  0.0000E+00  0.0000E+00
    -47.960  0.0000E+00  0.0000E+00  0.0000E+00  0.0000E+00
    -47.701  0.0000E+00  0.0000E+00  0.0000E+00  0.0000E+00
    -47.443  0.0000E+00  0.0000E+00  0.0000E+00  0.0000E+00
    -47.184  0.0000E+00  0.0000E+00  0.0000E+00  0.0000E+00
    -46.925  0.0000E+00  0.0000E+00  0.0000E+00  0.0000E+00
    -46.667  0.0000E+00  0.0000E+00  0.0000E+00  0.0000E+00
    -46.408  0.0000E+00  0.0000E+00  0.0000E+00  0.0000E+00
    -46.150  0.3083E-02  0.0000E+00  0.7973E-03  0.0000E+00
    -45.891  0.5347E+00  0.0000E+00  0.1391E+00  0.0000E+00
    -45.632  0.3217E+02  0.0000E+00  0.8460E+01  0.0000E+00
    -45.374  0.8641E+02  0.0000E+00  0.3081E+02  0.0000E+00
    -45.115  0.1859E+02  0.0000E+00  0.3595E+02  0.0000E+00
    -44.856  0.0000E+00  0.0000E+00  0.3600E+02  0.0000E+00
    -44.598  0.0000E+00  0.0000E+00  0.3600E+02  0.0000E+00
    -44.339  0.0000E+00  0.0000E+00  0.3600E+02  0.0000E+00
    -44.081  0.0000E+00  0.0000E+00  0.3600E+02  0.0000E+00
    -43.822  0.0000E+00  0.1165E-03  0.3600E+02  0.3014E-04
    -43.563  0.0000E+00  0.2495E-01  0.3600E+02  0.6482E-02
    -43.305  0.0000E+00  0.3818E+01  0.3600E+02  0.9939E+00
    -43.046  0.0000E+00  0.5430E+02  0.3600E+02  0.1504E+02
    -42.787  0.0000E+00  0.6301E+02  0.3600E+02  0.3148E+02
    -42.529  0.0000E+00  0.1678E+02  0.3600E+02  0.3596E+02
    -42.270  0.0000E+00  0.0000E+00  0.3600E+02  0.3600E+02
    -42.012  0.0000E+00  0.0000E+00  0.3600E+02  0.3600E+02
    -41.753  0.0000E+00  0.0000E+00  0.3600E+02  0.3600E+02
    -41.494  0.0000E+00  0.0000E+00  0.3600E+02  0.3600E+02
    -41.236  0.0000E+00  0.0000E+00  0.3600E+02  0.3600E+02
    -40.977  0.0000E+00  0.0000E+00  0.3600E+02  0.3600E+02
    -40.718  0.0000E+00  0.0000E+00  0.3600E+02  0.3600E+02
    -40.460  0.0000E+00  0.0000E+00  0.3600E+02  0.3600E+02
    -40.201  0.0000E+00  0.0000E+00  0.3600E+02  0.3600E+02
    -39.942  0.0000E+00  0.0000E+00  0.3600E+02  0.3600E+02
    -39.684  0.0000E+00  0.0000E+00  0.3600E+02  0.3600E+02
    -39.425  0.0000E+00  0.0000E+00  0.3600E+02  0.3600E+02
    -39.167  0.0000E+00  0.0000E+00  0.3600E+02  0.3600E+02
    -38.908  0.0000E+00  0.0000E+00  0.3600E+02  0.3600E+02
    -38.649  0.0000E+00  0.0000E+00  0.3600E+02  0.3600E+02
    -38.391  0.0000E+00  0.0000E+00  0.3600E+02  0.3600E+02
    -38.132  0.0000E+00  0.0000E+00  0.3600E+02  0.3600E+02
    -37.873  0.0000E+00  0.0000E+00  0.3600E+02  0.3600E+02
    -37.615  0.0000E+00  0.0000E+00  0.3600E+02  0.3600E+02
    -37.356  0.0000E+00  0.0000E+00  0.3600E+02  0.3600E+02
    -37.098  0.0000E+00  0.0000E+00  0.3600E+02  0.3600E+02
    -36.839  0.0000E+00  0.0000E+00  0.3600E+02  0.3600E+02
    -36.580  0.0000E+00  0.0000E+00  0.3600E+02  0.3600E+02
    -36.322  0.0000E+00  0.0000E+00  0.3600E+02  0.3600E+02
    -36.063  0.0000E+00  0.0000E+00  0.3600E+02  0.3600E+02
    -35.804  0.0000E+00  0.0000E+00  0.3600E+02  0.3600E+02
    -35.546  0.0000E+00  0.0000E+00  0.3600E+02  0.3600E+02
    -35.287  0.0000E+00  0.0000E+00  0.3600E+02  0.3600E+02
    -35.029  0.0000E+00  0.0000E+00  0.3600E+02  0.3600E+02
    -34.770  0.0000E+00  0.0000E+00  0.3600E+02  0.3600E+02
    -34.511  0.0000E+00  0.0000E+00  0.3600E+02  0.3600E+02
    -34.253  0.0000E+00  0.0000E+00  0.3600E+02  0.3600E+02
    -33.994  0.0000E+00  0.0000E+00  0.3600E+02  0.3600E+02
    -33.735  0.0000E+00  0.0000E+00  0.3600E+02  0.3600E+02
    -33.477  0.0000E+00  0.0000E+00  0.3600E+02  0.3600E+02
    -33.218  0.0000E+00  0.0000E+00  0.3600E+02  0.3600E+02
    -32.959  0.0000E+00  0.0000E+00  0.3600E+02  0.3600E+02
    -32.701  0.0000E+00  0.0000E+00  0.3600E+02  0.3600E+02
    -32.442  0.0000E+00  0.0000E+00  0.3600E+02  0.3600E+02
    -32.184  0.0000E+00  0.0000E+00  0.3600E+02  0.3600E+02
    -31.925  0.0000E+00  0.0000E+00  0.3600E+02  0.3600E+02
    -31.666  0.0000E+00  0.0000E+00  0.3600E+02  0.3600E+02
    -31.408  0.0000E+00  0.0000E+00  0.3600E+02  0.3600E+02
    -31.149  0.0000E+00  0.0000E+00  0.3600E+02  0.3600E+02
    -30.890  0.0000E+00  0.0000E+00  0.3600E+02  0.3600E+02
    -30.632  0.0000E+00  0.0000E+00  0.3600E+02  0.3600E+02
    -30.373  0.0000E+00  0.0000E+00  0.3600E+02  0.3600E+02
    -30.115  0.0000E+00  0.0000E+00  0.3600E+02  0.3600E+02
    -29.856  0.0000E+00  0.0000E+00  0.3600E+02  0.3600E+02
    -29.597  0.0000E+00  0.0000E+00  0.3600E+02  0.3600E+02
    -29.339  0.0000E+00  0.0000E+00  0.3600E+02  0.3600E+02
    -29.080  0.0000E+00  0.0000E+00  0.3600E+02  0.3600E+02
    -28.821  0.0000E+00  0.0000E+00  0.3600E+02  0.3600E+02
    -28.563  0.0000E+00  0.0000E+00  0.3600E+02  0.3600E+02
    -28.304  0.0000E+00  0.0000E+00  0.3600E+02  0.3600E+02
    -28.046  0.0000E+00  0.0000E+00  0.3600E+02  0.3600E+02
    -27.787  0.0000E+00  0.0000E+00  0.3600E+02  0.3600E+02
    -27.528  0.0000E+00  0.0000E+00  0.3600E+02  0.3600E+02
    -27.270  0.0000E+00  0.0000E+00  0.3600E+02  0.3600E+02
    -27.011  0.0000E+00  0.0000E+00  0.3600E+02  0.3600E+02
    -26.752  0.0000E+00  0.0000E+00  0.3600E+02  0.3600E+02
    -26.494  0.0000E+00  0.0000E+00  0.3600E+02  0.3600E+02
    -26.235  0.0000E+00  0.0000E+00  0.3600E+02  0.3600E+02
    -25.976  0.0000E+00  0.0000E+00  0.3600E+02  0.3600E+02
    -25.718  0.0000E+00  0.0000E+00  0.3600E+02  0.3600E+02
    -25.459  0.0000E+00  0.0000E+00  0.3600E+02  0.3600E+02
    -25.201  0.0000E+00  0.0000E+00  0.3600E+02  0.3600E+02
    -24.942  0.0000E+00  0.0000E+00  0.3600E+02  0.3600E+02
    -24.683  0.0000E+00  0.0000E+00  0.3600E+02  0.3600E+02
    -24.425  0.0000E+00  0.0000E+00  0.3600E+02  0.3600E+02
    -24.166  0.0000E+00  0.0000E+00  0.3600E+02  0.3600E+02
    -23.907  0.0000E+00  0.0000E+00  0.3600E+02  0.3600E+02
    -23.649  0.0000E+00  0.0000E+00  0.3600E+02  0.3600E+02
    -23.390  0.0000E+00  0.0000E+00  0.3600E+02  0.3600E+02
    -23.132  0.0000E+00  0.0000E+00  0.3600E+02  0.3600E+02
    -22.873  0.0000E+00  0.0000E+00  0.3600E+02  0.3600E+02
    -22.614  0.0000E+00  0.0000E+00  0.3600E+02  0.3600E+02
    -22.356  0.0000E+00  0.0000E+00  0.3600E+02  0.3600E+02
    -22.097  0.0000E+00  0.0000E+00  0.3600E+02  0.3600E+02
    -21.838  0.0000E+00  0.0000E+00  0.3600E+02  0.3600E+02
    -21.580  0.0000E+00  0.0000E+00  0.3600E+02  0.3600E+02
    -21.321  0.0000E+00  0.0000E+00  0.3600E+02  0.3600E+02
    -21.062  0.0000E+00  0.0000E+00  0.3600E+02  0.3600E+02
    -20.804  0.0000E+00  0.0000E+00  0.3600E+02  0.3600E+02
    -20.545  0.0000E+00  0.0000E+00  0.3600E+02  0.3600E+02
    -20.287  0.0000E+00  0.0000E+00  0.3600E+02  0.3600E+02
    -20.028  0.0000E+00  0.0000E+00  0.3600E+02  0.3600E+02
    -19.769  0.0000E+00  0.0000E+00  0.3600E+02  0.3600E+02
    -19.511  0.0000E+00  0.0000E+00  0.3600E+02  0.3600E+02
    -19.252  0.0000E+00  0.0000E+00  0.3600E+02  0.3600E+02
    -18.993  0.0000E+00  0.0000E+00  0.3600E+02  0.3600E+02
    -18.735  0.0000E+00  0.0000E+00  0.3600E+02  0.3600E+02
    -18.476  0.0000E+00  0.0000E+00  0.3600E+02  0.3600E+02
    -18.218  0.0000E+00  0.0000E+00  0.3600E+02  0.3600E+02
    -17.959  0.0000E+00  0.0000E+00  0.3600E+02  0.3600E+02
    -17.700  0.0000E+00  0.0000E+00  0.3600E+02  0.3600E+02
    -17.442  0.0000E+00  0.0000E+00  0.3600E+02  0.3600E+02
    -17.183  0.0000E+00  0.0000E+00  0.3600E+02  0.3600E+02
    -16.924  0.0000E+00  0.0000E+00  0.3600E+02  0.3600E+02
    -16.666  0.0000E+00  0.0000E+00  0.3600E+02  0.3600E+02
    -16.407  0.0000E+00  0.0000E+00  0.3600E+02  0.3600E+02
    -16.149  0.0000E+00  0.0000E+00  0.3600E+02  0.3600E+02
    -15.890  0.0000E+00  0.0000E+00  0.3600E+02  0.3600E+02
    -15.631  0.0000E+00  0.0000E+00  0.3600E+02  0.3600E+02
    -15.373  0.0000E+00  0.0000E+00  0.3600E+02  0.3600E+02
    -15.114  0.0000E+00  0.0000E+00  0.3600E+02  0.3600E+02
    -14.855  0.0000E+00  0.0000E+00  0.3600E+02  0.3600E+02
    -14.597  0.0000E+00  0.0000E+00  0.3600E+02  0.3600E+02
    -14.338  0.0000E+00  0.0000E+00  0.3600E+02  0.3600E+02
    -14.079  0.0000E+00  0.0000E+00  0.3600E+02  0.3600E+02
    -13.821  0.0000E+00  0.0000E+00  0.3600E+02  0.3600E+02
    -13.562  0.0000E+00  0.0000E+00  0.3600E+02  0.3600E+02
    -13.304  0.0000E+00  0.0000E+00  0.3600E+02  0.3600E+02
    -13.045  0.0000E+00  0.0000E+00  0.3600E+02  0.3600E+02
    -12.786  0.0000E+00  0.0000E+00  0.3600E+02  0.3600E+02
    -12.528  0.0000E+00  0.0000E+00  0.3600E+02  0.3600E+02
    -12.269  0.0000E+00  0.0000E+00  0.3600E+02  0.3600E+02
    -12.010  0.0000E+00  0.0000E+00  0.3600E+02  0.3600E+02
    -11.752  0.0000E+00  0.0000E+00  0.3600E+02  0.3600E+02
    -11.493  0.0000E+00  0.0000E+00  0.3600E+02  0.3600E+02
    -11.235  0.0000E+00  0.0000E+00  0.3600E+02  0.3600E+02
    -10.976  0.0000E+00  0.0000E+00  0.3600E+02  0.3600E+02
    -10.717  0.0000E+00  0.0000E+00  0.3600E+02  0.3600E+02
    -10.459  0.0000E+00  0.0000E+00  0.3600E+02  0.3600E+02
    -10.200  0.0000E+00  0.0000E+00  0.3600E+02  0.3600E+02
     -9.941  0.0000E+00  0.0000E+00  0.3600E+02  0.3600E+02
     -9.683  0.0000E+00  0.0000E+00  0.3600E+02  0.3600E+02
     -9.424  0.0000E+00  0.0000E+00  0.3600E+02  0.3600E+02
     -9.166  0.0000E+00  0.0000E+00  0.3600E+02  0.3600E+02
     -8.907  0.0000E+00  0.0000E+00  0.3600E+02  0.3600E+02
     -8.648  0.0000E+00  0.0000E+00  0.3600E+02  0.3600E+02
     -8.390  0.0000E+00  0.0000E+00  0.3600E+02  0.3600E+02
     -8.131  0.0000E+00  0.0000E+00  0.3600E+02  0.3600E+02
     -7.872  0.0000E+00  0.0000E+00  0.3600E+02  0.3600E+02
     -7.614  0.0000E+00  0.0000E+00  0.3600E+02  0.3600E+02
     -7.355  0.0000E+00  0.0000E+00  0.3600E+02  0.3600E+02
     -7.096  0.0000E+00  0.0000E+00  0.3600E+02  0.3600E+02
     -6.838  0.0000E+00  0.0000E+00  0.3600E+02  0.3600E+02
     -6.579  0.0000E+00  0.0000E+00  0.3600E+02  0.3600E+02
     -6.321  0.0000E+00  0.0000E+00  0.3600E+02  0.3600E+02
     -6.062  0.0000E+00  0.0000E+00  0.3600E+02  0.3600E+02
     -5.803  0.0000E+00  0.0000E+00  0.3600E+02  0.3600E+02
     -5.545  0.0000E+00  0.0000E+00  0.3600E+02  0.3600E+02
     -5.286  0.0000E+00  0.0000E+00  0.3600E+02  0.3600E+02
     -5.027  0.0000E+00  0.0000E+00  0.3600E+02  0.3600E+02
     -4.769  0.0000E+00  0.0000E+00  0.3600E+02  0.3600E+02
     -4.510  0.2016E-06  0.1684E-05  0.3600E+02  0.3600E+02
     -4.252  0.6142E-04  0.3290E-03  0.3600E+02  0.3600E+02
     -3.993  0.9661E-02  0.3796E-01  0.3600E+02  0.3601E+02
     -3.734  0.2400E+00  0.4435E+00  0.3606E+02  0.3612E+02
     -3.476  0.7654E+00  0.8601E+00  0.3626E+02  0.3635E+02
     -3.217  0.1160E+01  0.1663E+01  0.3656E+02  0.3678E+02
     -2.958  0.2066E+01  0.2591E+01  0.3710E+02  0.3745E+02
     -2.700  0.3197E+01  0.3109E+01  0.3794E+02  0.3826E+02
     -2.441  0.3208E+01  0.3596E+01  0.3878E+02  0.3921E+02
     -2.183  0.3226E+01  0.2481E+01  0.3962E+02  0.3986E+02
     -1.924  0.1349E+01  0.5105E+00  0.3998E+02  0.4000E+02
     -1.665  0.4540E-01  0.0000E+00  0.4000E+02  0.4000E+02
     -1.407  0.0000E+00  0.0000E+00  0.4000E+02  0.4000E+02
     -1.148  0.0000E+00  0.0000E+00  0.4000E+02  0.4000E+02
     -0.889  0.0000E+00  0.0000E+00  0.4000E+02  0.4000E+02
     -0.631  0.0000E+00  0.0000E+00  0.4000E+02  0.4000E+02
     -0.372  0.0000E+00  0.0000E+00  0.4000E+02  0.4000E+02
     -0.113  0.0000E+00  0.0000E+00  0.4000E+02  0.4000E+02
      0.145  0.0000E+00  0.0000E+00  0.4000E+02  0.4000E+02
      0.404  0.0000E+00  0.0000E+00  0.4000E+02  0.4000E+02
      0.662  0.0000E+00  0.0000E+00  0.4000E+02  0.4000E+02
      0.921  0.0000E+00  0.0000E+00  0.4000E+02  0.4000E+02
      1.180  0.0000E+00  0.0000E+00  0.4000E+02  0.4000E+02
      1.438  0.9576E-05  0.2378E-06  0.4000E+02  0.4000E+02
      1.697  0.1704E-02  0.4937E-04  0.4000E+02  0.4000E+02
      1.956  0.9238E-01  0.7442E-02  0.4002E+02  0.4000E+02
      2.214  0.1358E+01  0.1639E+00  0.4038E+02  0.4004E+02
      2.473  0.3686E+01  0.1459E+01  0.4133E+02  0.4042E+02
      2.731  0.4408E+01  0.2872E+01  0.4248E+02  0.4117E+02
      2.990  0.5276E+01  0.3605E+01  0.4386E+02  0.4211E+02
      3.249  0.4066E+01  0.4318E+01  0.4493E+02  0.4324E+02
      3.507  0.3335E+01  0.3904E+01  0.4580E+02  0.4426E+02
      3.766  0.4292E+01  0.3418E+01  0.4692E+02  0.4516E+02
      4.025  0.5146E+01  0.2816E+01  0.4826E+02  0.4590E+02
      4.283  0.6822E+01  0.3144E+01  0.5003E+02  0.4673E+02
      4.542  0.6951E+01  0.4036E+01  0.5184E+02  0.4778E+02
      4.800  0.1994E+01  0.6151E+01  0.5238E+02  0.4938E+02
      5.059  0.6465E+01  0.6831E+01  0.5406E+02  0.5115E+02
      5.318  0.1203E+02  0.3151E+01  0.5718E+02  0.5198E+02
      5.576  0.1409E+02  0.3636E+00  0.6085E+02  0.5209E+02
      5.835  0.1510E+02  0.8472E+00  0.6479E+02  0.5231E+02
      6.094  0.1288E+02  0.2168E+01  0.6817E+02  0.5287E+02
      6.352  0.1583E+02  0.5480E+01  0.7230E+02  0.5429E+02
      6.611  0.1569E+02  0.6093E+01  0.7640E+02  0.5588E+02
      6.870  0.1382E+02  0.8363E+01  0.8002E+02  0.5806E+02
      7.128  0.1329E+02  0.1043E+02  0.8350E+02  0.6078E+02
      7.387  0.1598E+02  0.1167E+02  0.8767E+02  0.6382E+02
      7.645  0.1741E+02  0.1156E+02  0.9221E+02  0.6685E+02
      7.904  0.1989E+02  0.5719E+01  0.9740E+02  0.6836E+02
      8.163  0.1464E+02  0.9773E+01  0.1012E+03  0.7091E+02
      8.421  0.6682E+01  0.1402E+02  0.1030E+03  0.7456E+02
      8.680  0.4795E+01  0.1166E+02  0.1043E+03  0.7762E+02
      8.939  0.3391E+01  0.9471E+01  0.1052E+03  0.8010E+02
      9.197  0.3419E+01  0.9016E+01  0.1061E+03  0.8246E+02
      9.456  0.3526E+01  0.1213E+02  0.1070E+03  0.8562E+02
      9.714  0.3383E+01  0.1283E+02  0.1079E+03  0.8896E+02
      9.973  0.3694E+01  0.1562E+02  0.1088E+03  0.9303E+02
     10.232  0.3143E+01  0.1684E+02  0.1097E+03  0.9743E+02
     10.490  0.3140E+01  0.1669E+02  0.1105E+03  0.1018E+03
     10.749  0.3600E+01  0.9322E+01  0.1114E+03  0.1043E+03
     11.008  0.2490E+01  0.6445E+01  0.1121E+03  0.1060E+03
     11.266  0.7154E+00  0.5422E+01  0.1123E+03  0.1074E+03
     11.525  0.1715E+01  0.4985E+01  0.1127E+03  0.1087E+03
     11.784  0.2405E+01  0.4296E+01  0.1133E+03  0.1098E+03
     12.042  0.2316E+01  0.4431E+01  0.1140E+03  0.1110E+03
     12.301  0.2320E+01  0.3794E+01  0.1146E+03  0.1120E+03
     12.559  0.1648E+01  0.1351E+01  0.1150E+03  0.1123E+03
     12.818  0.2920E+01  0.2737E+01  0.1157E+03  0.1131E+03
     13.077  0.2828E+01  0.3274E+01  0.1165E+03  0.1139E+03
     13.335  0.2368E+01  0.2790E+01  0.1171E+03  0.1146E+03
     13.594  0.2358E+01  0.3473E+01  0.1177E+03  0.1155E+03
     13.853  0.1565E+01  0.3104E+01  0.1181E+03  0.1164E+03
     14.111  0.1144E+01  0.2720E+01  0.1184E+03  0.1171E+03
     14.370  0.1807E+01  0.2951E+01  0.1189E+03  0.1178E+03
     14.628  0.1554E+01  0.1414E+01  0.1193E+03  0.1182E+03
     14.887  0.1427E+01  0.1213E+01  0.1197E+03  0.1185E+03
     15.146  0.1597E+01  0.1766E+01  0.1201E+03  0.1190E+03
     15.404  0.1696E+01  0.1617E+01  0.1206E+03  0.1194E+03
     15.663  0.2428E+01  0.1557E+01  0.1212E+03  0.1198E+03
     15.922  0.2543E+01  0.1617E+01  0.1219E+03  0.1202E+03
     16.180  0.1613E+01  0.2457E+01  0.1223E+03  0.1209E+03
     16.439  0.2698E+01  0.2299E+01  0.1230E+03  0.1215E+03
     16.697  0.3130E+01  0.2101E+01  0.1238E+03  0.1220E+03
     16.956  0.3193E+01  0.1888E+01  0.1246E+03  0.1225E+03
     17.215  0.1805E+01  0.2874E+01  0.1251E+03  0.1233E+03
     17.473  0.1998E+01  0.3720E+01  0.1256E+03  0.1242E+03
     17.732  0.2637E+01  0.2694E+01  0.1263E+03  0.1249E+03
     17.991  0.3062E+01  0.1336E+01  0.1271E+03  0.1253E+03
     18.249  0.2804E+01  0.2530E+01  0.1279E+03  0.1260E+03
     18.508  0.2217E+01  0.3103E+01  0.1284E+03  0.1268E+03
     18.767  0.2131E+01  0.3319E+01  0.1290E+03  0.1276E+03
     19.025  0.2827E+01  0.2727E+01  0.1297E+03  0.1283E+03
     19.284  0.3760E+01  0.2139E+01  0.1307E+03  0.1289E+03
     19.542  0.2755E+01  0.2860E+01  0.1314E+03  0.1296E+03
     19.801  0.3023E+01  0.3750E+01  0.1322E+03  0.1306E+03
     20.060  0.2771E+01  0.3231E+01  0.1329E+03  0.1315E+03
     20.318  0.2628E+01  0.3040E+01  0.1336E+03  0.1323E+03
     20.577  0.3182E+01  0.2909E+01  0.1345E+03  0.1330E+03
     20.836  0.2895E+01  0.2687E+01  0.1352E+03  0.1337E+03
     21.094  0.2957E+01  0.3479E+01  0.1360E+03  0.1346E+03
     21.353  0.2808E+01  0.3265E+01  0.1367E+03  0.1355E+03
     21.611  0.3133E+01  0.2486E+01  0.1376E+03  0.1361E+03
     21.870  0.3183E+01  0.3128E+01  0.1384E+03  0.1370E+03
     22.129  0.3093E+01  0.2910E+01  0.1392E+03  0.1377E+03
     22.387  0.2597E+01  0.3116E+01  0.1399E+03  0.1385E+03
     22.646  0.2431E+01  0.3038E+01  0.1405E+03  0.1393E+03
     22.905  0.2338E+01  0.2662E+01  0.1411E+03  0.1400E+03
     23.163  0.3050E+01  0.2380E+01  0.1419E+03  0.1407E+03
     23.422  0.3111E+01  0.2559E+01  0.1427E+03  0.1413E+03
     23.680  0.2563E+01  0.3296E+01  0.1434E+03  0.1422E+03
     23.939  0.1691E+01  0.2939E+01  0.1438E+03  0.1429E+03
     24.198  0.2830E+00  0.2524E+01  0.1439E+03  0.1436E+03
     24.456  0.2804E+00  0.1038E+01  0.1440E+03  0.1439E+03
     24.715  0.2617E-01  0.1918E+00  0.1440E+03  0.1439E+03
     24.974  0.0000E+00  0.2314E+00  0.1440E+03  0.1440E+03
     25.232  0.0000E+00  0.0000E+00  0.1440E+03  0.1440E+03
     25.491  0.0000E+00  0.0000E+00  0.1440E+03  0.1440E+03
     25.750  0.0000E+00  0.0000E+00  0.1440E+03  0.1440E+03
     26.008  0.0000E+00  0.0000E+00  0.1440E+03  0.1440E+03
     26.267  0.0000E+00  0.0000E+00  0.1440E+03  0.1440E+03
     26.525  0.0000E+00  0.0000E+00  0.1440E+03  0.1440E+03
     26.784  0.0000E+00  0.0000E+00  0.1440E+03  0.1440E+03
     27.043  0.0000E+00  0.0000E+00  0.1440E+03  0.1440E+03
     27.301  0.0000E+00  0.0000E+00  0.1440E+03  0.1440E+03
     27.560  0.0000E+00  0.0000E+00  0.1440E+03  0.1440E+03
     27.819  0.0000E+00  0.0000E+00  0.1440E+03  0.1440E+03
     28.077  0.0000E+00  0.0000E+00  0.1440E+03  0.1440E+03
     28.336  0.0000E+00  0.0000E+00  0.1440E+03  0.1440E+03
     28.33582674    -49.25316516  301      8.82403898      1.00000000
    -49.253  0.0000E+00  0.0000E+00  0.0000E+00  0.0000E+00  0.0000E+00  0.0000E+00  0.0000E+00  0.0000E+00  0.0000E+00  0.0000E+00  0.0000E+00  0.0000E+00  0.0000E+00  0.0000E+00  0.0000E+00  0.0000E+00  0.0000E+00  0.0000E+00
    -48.995  0.0000E+00  0.0000E+00  0.0000E+00  0.0000E+00  0.0000E+00  0.0000E+00  0.0000E+00  0.0000E+00  0.0000E+00  0.0000E+00  0.0000E+00  0.0000E+00  0.0000E+00  0.0000E+00  0.0000E+00  0.0000E+00  0.0000E+00  0.0000E+00
    -48.736  0.0000E+00  0.0000E+00  0.0000E+00  0.0000E+00  0.0000E+00  0.0000E+00  0.0000E+00  0.0000E+00  0.0000E+00  0.0000E+00  0.0000E+00  0.0000E+00  0.0000E+00  0.0000E+00  0.0000E+00  0.0000E+00  0.0000E+00  0.0000E+00
    -48.477  0.0000E+00  0.0000E+00  0.0000E+00  0.0000E+00  0.0000E+00  0.0000E+00  0.0000E+00  0.0000E+00  0.0000E+00  0.0000E+00  0.0000E+00  0.0000E+00  0.0000E+00  0.0000E+00  0.0000E+00  0.0000E+00  0.0000E+00  0.0000E+00
    -48.219  0.0000E+00  0.0000E+00  0.0000E+00  0.0000E+00  0.0000E+00  0.0000E+00  0.0000E+00  0.0000E+00  0.0000E+00  0.0000E+00  0.0000E+00  0.0000E+00  0.0000E+00  0.0000E+00  0.0000E+00  0.0000E+00  0.0000E+00  0.0000E+00
    -47.960  0.0000E+00  0.0000E+00  0.0000E+00  0.0000E+00  0.0000E+00  0.0000E+00  0.0000E+00  0.0000E+00  0.0000E+00  0.0000E+00  0.0000E+00  0.0000E+00  0.0000E+00  0.0000E+00  0.0000E+00  0.0000E+00  0.0000E+00  0.0000E+00
    -47.701  0.0000E+00  0.0000E+00  0.0000E+00  0.0000E+00  0.0000E+00  0.0000E+00  0.0000E+00  0.0000E+00  0.0000E+00  0.0000E+00  0.0000E+00  0.0000E+00  0.0000E+00  0.0000E+00  0.0000E+00  0.0000E+00  0.0000E+00  0.0000E+00
    -47.443  0.0000E+00  0.0000E+00  0.0000E+00  0.0000E+00  0.0000E+00  0.0000E+00  0.0000E+00  0.0000E+00  0.0000E+00  0.0000E+00  0.0000E+00  0.0000E+00  0.0000E+00  0.0000E+00  0.0000E+00  0.0000E+00  0.0000E+00  0.0000E+00
    -47.184  0.0000E+00  0.0000E+00  0.0000E+00  0.0000E+00  0.0000E+00  0.0000E+00  0.0000E+00  0.0000E+00  0.0000E+00  0.0000E+00  0.0000E+00  0.0000E+00  0.0000E+00  0.0000E+00  0.0000E+00  0.0000E+00  0.0000E+00  0.0000E+00
    -46.925  0.0000E+00  0.0000E+00  0.0000E+00  0.0000E+00  0.0000E+00  0.0000E+00  0.0000E+00  0.0000E+00  0.0000E+00  0.0000E+00  0.0000E+00  0.0000E+00  0.0000E+00  0.0000E+00  0.0000E+00  0.0000E+00  0.0000E+00  0.0000E+00
    -46.667  0.0000E+00  0.0000E+00  0.0000E+00  0.0000E+00  0.0000E+00  0.0000E+00  0.0000E+00  0.0000E+00  0.0000E+00  0.0000E+00  0.0000E+00  0.0000E+00  0.0000E+00  0.0000E+00  0.0000E+00  0.0000E+00  0.0000E+00  0.0000E+00
    -46.408  0.0000E+00  0.0000E+00  0.0000E+00  0.0000E+00  0.0000E+00  0.0000E+00  0.0000E+00  0.0000E+00  0.0000E+00  0.0000E+00  0.0000E+00  0.0000E+00  0.0000E+00  0.0000E+00  0.0000E+00  0.0000E+00  0.0000E+00  0.0000E+00
    -46.150  0.1824E-08  0.0000E+00  0.1766E-03  0.0000E+00  0.4100E-05  0.0000E+00  0.3544E-03  0.0000E+00  0.3730E-09  0.0000E+00  0.3421E-09  0.0000E+00  0.3710E-09  0.0000E+00  0.3183E-09  0.0000E+00  0.1071E-08  0.0000E+00
    -45.891  0.3170E-06  0.0000E+00  0.3043E-01  0.0000E+00  0.9921E-03  0.0000E+00  0.6085E-01  0.0000E+00  0.6501E-07  0.0000E+00  0.6091E-07  0.0000E+00  0.6494E-07  0.0000E+00  0.5609E-07  0.0000E+00  0.1846E-06  0.0000E+00
    -45.632  0.2107E-04  0.0000E+00  0.1722E+01  0.0000E+00  0.1308E+00  0.0000E+00  0.2476E+01  0.0000E+00  0.5111E-05  0.0000E+00  0.6478E-05  0.0000E+00  0.5027E-05  0.0000E+00  0.5225E-05  0.0000E+00  0.1001E-04  0.0000E+00
    -45.374  0.4856E-04  0.0000E+00  0.2040E+01  0.0000E+00  0.2578E+01  0.0000E+00  0.1280E+01  0.0000E+00  0.1404E-04  0.0000E+00  0.3032E-04  0.0000E+00  0.2137E-04  0.0000E+00  0.1909E-04  0.0000E+00  0.1530E-04  0.0000E+00
    -45.115  0.7498E-05  0.0000E+00  0.1965E-01  0.0000E+00  0.1120E+01  0.0000E+00  0.1313E-01  0.0000E+00  0.3275E-05  0.0000E+00  0.6274E-05  0.0000E+00  0.5066E-05  0.0000E+00  0.5115E-05  0.0000E+00  0.1620E-05  0.0000E+00
    -44.856  0.0000E+00  0.0000E+00  0.0000E+00  0.0000E+00  0.0000E+00  0.0000E+00  0.0000E+00  0.0000E+00  0.0000E+00  0.0000E+00  0.0000E+00  0.0000E+00  0.0000E+00  0.0000E+00  0.0000E+00  0.0000E+00  0.0000E+00  0.0000E+00
    -44.598  0.0000E+00  0.0000E+00  0.0000E+00  0.0000E+00  0.0000E+00  0.0000E+00  0.0000E+00  0.0000E+00  0.0000E+00  0.0000E+00  0.0000E+00  0.0000E+00  0.0000E+00  0.0000E+00  0.0000E+00  0.0000E+00  0.0000E+00  0.0000E+00
    -44.339  0.0000E+00  0.0000E+00  0.0000E+00  0.0000E+00  0.0000E+00  0.0000E+00  0.0000E+00  0.0000E+00  0.0000E+00  0.0000E+00  0.0000E+00  0.0000E+00  0.0000E+00  0.0000E+00  0.0000E+00  0.0000E+00  0.0000E+00  0.0000E+00
    -44.081  0.0000E+00  0.0000E+00  0.0000E+00  0.0000E+00  0.0000E+00  0.0000E+00  0.0000E+00  0.0000E+00  0.0000E+00  0.0000E+00  0.0000E+00  0.0000E+00  0.0000E+00  0.0000E+00  0.0000E+00  0.0000E+00  0.0000E+00  0.0000E+00
    -43.822  0.0000E+00  0.9401E-10  0.0000E+00  0.8154E-05  0.0000E+00  0.3131E-07  0.0000E+00  0.1131E-04  0.0000E+00  0.1954E-10  0.0000E+00  0.6340E-11  0.0000E+00  0.1928E-10  0.0000E+00  0.1735E-10  0.0000E+00  0.6011E-10
    -43.563  0.0000E+00  0.1962E-07  0.0000E+00  0.1472E-02  0.0000E+00  0.1386E-04  0.0000E+00  0.2024E-02  0.0000E+00  0.4209E-08  0.0000E+00  0.3462E-08  0.0000E+00  0.4699E-08  0.0000E+00  0.4631E-08  0.0000E+00  0.1182E-07
    -43.305  0.0000E+00  0.3040E-05  0.0000E+00  0.2161E+00  0.0000E+00  0.2535E-02  0.0000E+00  0.2992E+00  0.0000E+00  0.6600E-06  0.0000E+00  0.5761E-06  0.0000E+00  0.7217E-06  0.0000E+00  0.7480E-06  0.0000E+00  0.1747E-05
    -43.046  0.0000E+00  0.4279E-04  0.0000E+00  0.1467E+01  0.0000E+00  0.1164E+00  0.0000E+00  0.1962E+01  0.0000E+00  0.9211E-05  0.0000E+00  0.2072E-04  0.0000E+00  0.1336E-04  0.0000E+00  0.1400E-04  0.0000E+00  0.1676E-04
    -42.787  0.0000E+00  0.4525E-04  0.0000E+00  0.1915E+01  0.0000E+00  0.2148E+01  0.0000E+00  0.1376E+01  0.0000E+00  0.1459E-04  0.0000E+00  0.2703E-04  0.0000E+00  0.2034E-04  0.0000E+00  0.1679E-04  0.0000E+00  0.1244E-04
    -42.529  0.0000E+00  0.7118E-05  0.0000E+00  0.1762E+00  0.0000E+00  0.1564E+01  0.0000E+00  0.1195E+00  0.0000E+00  0.3659E-05  0.0000E+00  0.4716E-05  0.0000E+00  0.4579E-05  0.0000E+00  0.5094E-05  0.0000E+00  0.2098E-05
    -42.270  0.0000E+00  0.0000E+00  0.0000E+00  0.0000E+00  0.0000E+00  0.0000E+00  0.0000E+00  0.0000E+00  0.0000E+00  0.0000E+00  0.0000E+00  0.0000E+00  0.0000E+00  0.0000E+00  0.0000E+00  0.0000E+00  0.0000E+00  0.0000E+00
    -42.012  0.0000E+00  0.0000E+00  0.0000E+00  0.0000E+00  0.0000E+00  0.0000E+00  0.0000E+00  0.0000E+00  0.0000E+00  0.0000E+00  0.0000E+00  0.0000E+00  0.0000E+00  0.0000E+00  0.0000E+00  0.0000E+00  0.0000E+00  0.0000E+00
    -41.753  0.0000E+00  0.0000E+00  0.0000E+00  0.0000E+00  0.0000E+00  0.0000E+00  0.0000E+00  0.0000E+00  0.0000E+00  0.0000E+00  0.0000E+00  0.0000E+00  0.0000E+00  0.0000E+00  0.0000E+00  0.0000E+00  0.0000E+00  0.0000E+00
    -41.494  0.0000E+00  0.0000E+00  0.0000E+00  0.0000E+00  0.0000E+00  0.0000E+00  0.0000E+00  0.0000E+00  0.0000E+00  0.0000E+00  0.0000E+00  0.0000E+00  0.0000E+00  0.0000E+00  0.0000E+00  0.0000E+00  0.0000E+00  0.0000E+00
    -41.236  0.0000E+00  0.0000E+00  0.0000E+00  0.0000E+00  0.0000E+00  0.0000E+00  0.0000E+00  0.0000E+00  0.0000E+00  0.0000E+00  0.0000E+00  0.0000E+00  0.0000E+00  0.0000E+00  0.0000E+00  0.0000E+00  0.0000E+00  0.0000E+00
    -40.977  0.0000E+00  0.0000E+00  0.0000E+00  0.0000E+00  0.0000E+00  0.0000E+00  0.0000E+00  0.0000E+00  0.0000E+00  0.0000E+00  0.0000E+00  0.0000E+00  0.0000E+00  0.0000E+00  0.0000E+00  0.0000E+00  0.0000E+00  0.0000E+00
    -40.718  0.0000E+00  0.0000E+00  0.0000E+00  0.0000E+00  0.0000E+00  0.0000E+00  0.0000E+00  0.0000E+00  0.0000E+00  0.0000E+00  0.0000E+00  0.0000E+00  0.0000E+00  0.0000E+00  0.0000E+00  0.0000E+00  0.0000E+00  0.0000E+00
    -40.460  0.0000E+00  0.0000E+00  0.0000E+00  0.0000E+00  0.0000E+00  0.0000E+00  0.0000E+00  0.0000E+00  0.0000E+00  0.0000E+00  0.0000E+00  0.0000E+00  0.0000E+00  0.0000E+00  0.0000E+00  0.0000E+00  0.0000E+00  0.0000E+00
    -40.201  0.0000E+00  0.0000E+00  0.0000E+00  0.0000E+00  0.0000E+00  0.0000E+00  0.0000E+00  0.0000E+00  0.0000E+00  0.0000E+00  0.0000E+00  0.0000E+00  0.0000E+00  0.0000E+00  0.0000E+00  0.0000E+00  0.0000E+00  0.0000E+00
    -39.942  0.0000E+00  0.0000E+00  0.0000E+00  0.0000E+00  0.0000E+00  0.0000E+00  0.0000E+00  0.0000E+00  0.0000E+00  0.0000E+00  0.0000E+00  0.0000E+00  0.0000E+00  0.0000E+00  0.0000E+00  0.0000E+00  0.0000E+00  0.0000E+00
    -39.684  0.0000E+00  0.0000E+00  0.0000E+00  0.0000E+00  0.0000E+00  0.0000E+00  0.0000E+00  0.0000E+00  0.0000E+00  0.0000E+00  0.0000E+00  0.0000E+00  0.0000E+00  0.0000E+00  0.0000E+00  0.0000E+00  0.0000E+00  0.0000E+00
    -39.425  0.0000E+00  0.0000E+00  0.0000E+00  0.0000E+00  0.0000E+00  0.0000E+00  0.0000E+00  0.0000E+00  0.0000E+00  0.0000E+00  0.0000E+00  0.0000E+00  0.0000E+00  0.0000E+00  0.0000E+00  0.0000E+00  0.0000E+00  0.0000E+00
    -39.167  0.0000E+00  0.0000E+00  0.0000E+00  0.0000E+00  0.0000E+00  0.0000E+00  0.0000E+00  0.0000E+00  0.0000E+00  0.0000E+00  0.0000E+00  0.0000E+00  0.0000E+00  0.0000E+00  0.0000E+00  0.0000E+00  0.0000E+00  0.0000E+00
    -38.908  0.0000E+00  0.0000E+00  0.0000E+00  0.0000E+00  0.0000E+00  0.0000E+00  0.0000E+00  0.0000E+00  0.0000E+00  0.0000E+00  0.0000E+00  0.0000E+00  0.0000E+00  0.0000E+00  0.0000E+00  0.0000E+00  0.0000E+00  0.0000E+00
    -38.649  0.0000E+00  0.0000E+00  0.0000E+00  0.0000E+00  0.0000E+00  0.0000E+00  0.0000E+00  0.0000E+00  0.0000E+00  0.0000E+00  0.0000E+00  0.0000E+00  0.0000E+00  0.0000E+00  0.0000E+00  0.0000E+00  0.0000E+00  0.0000E+00
    -38.391  0.0000E+00  0.0000E+00  0.0000E+00  0.0000E+00  0.0000E+00  0.0000E+00  0.0000E+00  0.0000E+00  0.0000E+00  0.0000E+00  0.0000E+00  0.0000E+00  0.0000E+00  0.0000E+00  0.0000E+00  0.0000E+00  0.0000E+00  0.0000E+00
    -38.132  0.0000E+00  0.0000E+00  0.0000E+00  0.0000E+00  0.0000E+00  0.0000E+00  0.0000E+00  0.0000E+00  0.0000E+00  0.0000E+00  0.0000E+00  0.0000E+00  0.0000E+00  0.0000E+00  0.0000E+00  0.0000E+00  0.0000E+00  0.0000E+00
    -37.873  0.0000E+00  0.0000E+00  0.0000E+00  0.0000E+00  0.0000E+00  0.0000E+00  0.0000E+00  0.0000E+00  0.0000E+00  0.0000E+00  0.0000E+00  0.0000E+00  0.0000E+00  0.0000E+00  0.0000E+00  0.0000E+00  0.0000E+00  0.0000E+00
    -37.615  0.0000E+00  0.0000E+00  0.0000E+00  0.0000E+00  0.0000E+00  0.0000E+00  0.0000E+00  0.0000E+00  0.0000E+00  0.0000E+00  0.0000E+00  0.0000E+00  0.0000E+00  0.0000E+00  0.0000E+00  0.0000E+00  0.0000E+00  0.0000E+00
    -37.356  0.0000E+00  0.0000E+00  0.0000E+00  0.0000E+00  0.0000E+00  0.0000E+00  0.0000E+00  0.0000E+00  0.0000E+00  0.0000E+00  0.0000E+00  0.0000E+00  0.0000E+00  0.0000E+00  0.0000E+00  0.0000E+00  0.0000E+00  0.0000E+00
    -37.098  0.0000E+00  0.0000E+00  0.0000E+00  0.0000E+00  0.0000E+00  0.0000E+00  0.0000E+00  0.0000E+00  0.0000E+00  0.0000E+00  0.0000E+00  0.0000E+00  0.0000E+00  0.0000E+00  0.0000E+00  0.0000E+00  0.0000E+00  0.0000E+00
    -36.839  0.0000E+00  0.0000E+00  0.0000E+00  0.0000E+00  0.0000E+00  0.0000E+00  0.0000E+00  0.0000E+00  0.0000E+00  0.0000E+00  0.0000E+00  0.0000E+00  0.0000E+00  0.0000E+00  0.0000E+00  0.0000E+00  0.0000E+00  0.0000E+00
    -36.580  0.0000E+00  0.0000E+00  0.0000E+00  0.0000E+00  0.0000E+00  0.0000E+00  0.0000E+00  0.0000E+00  0.0000E+00  0.0000E+00  0.0000E+00  0.0000E+00  0.0000E+00  0.0000E+00  0.0000E+00  0.0000E+00  0.0000E+00  0.0000E+00
    -36.322  0.0000E+00  0.0000E+00  0.0000E+00  0.0000E+00  0.0000E+00  0.0000E+00  0.0000E+00  0.0000E+00  0.0000E+00  0.0000E+00  0.0000E+00  0.0000E+00  0.0000E+00  0.0000E+00  0.0000E+00  0.0000E+00  0.0000E+00  0.0000E+00