  16  16   1   0
  0.6885951E+01  0.4019472E-09  0.4526298E-09  0.6055803E-09  0.5000000E-15
  1.000000000000000E-004
  CAR 
 unknown system                          
     41.63221800    -42.19749451  301     16.05870552      1.00000000
    -42.197  0.0000E+00  0.0000E+00  0.0000E+00  0.0000E+00
    -41.918  0.0000E+00  0.0000E+00  0.0000E+00  0.0000E+00
    -41.639  0.0000E+00  0.0000E+00  0.0000E+00  0.0000E+00
    -41.359  0.0000E+00  0.0000E+00  0.0000E+00  0.0000E+00
    -41.080  0.0000E+00  0.0000E+00  0.0000E+00  0.0000E+00
    -40.800  0.0000E+00  0.0000E+00  0.0000E+00  0.0000E+00
    -40.521  0.0000E+00  0.0000E+00  0.0000E+00  0.0000E+00
    -40.241  0.0000E+00  0.0000E+00  0.0000E+00  0.0000E+00
    -39.962  0.0000E+00  0.0000E+00  0.0000E+00  0.0000E+00
    -39.683  0.0000E+00  0.0000E+00  0.0000E+00  0.0000E+00
    -39.403  0.0000E+00  0.0000E+00  0.0000E+00  0.0000E+00
    -39.124  0.0000E+00  0.0000E+00  0.0000E+00  0.0000E+00
    -38.844  0.1414E-03  0.1196E-03  0.3951E-04  0.3342E-04
    -38.565  0.3900E-01  0.3319E-01  0.1094E-01  0.9308E-02
    -38.285  0.5020E+01  0.4558E+01  0.1414E+01  0.1283E+01
    -38.006  0.2398E+02  0.2378E+02  0.8115E+01  0.7929E+01
    -37.727  0.2628E+02  0.2625E+02  0.1558E+02  0.1538E+02
    -37.447  0.4077E+02  0.4058E+02  0.2708E+02  0.2683E+02
    -37.168  0.3008E+02  0.3093E+02  0.3568E+02  0.3565E+02
    -36.888  0.3282E+00  0.3939E+00  0.3600E+02  0.3600E+02
    -36.609  0.0000E+00  0.0000E+00  0.3600E+02  0.3600E+02
    -36.329  0.0000E+00  0.0000E+00  0.3600E+02  0.3600E+02
    -36.050  0.0000E+00  0.0000E+00  0.3600E+02  0.3600E+02
    -35.771  0.0000E+00  0.0000E+00  0.3600E+02  0.3600E+02
    -35.491  0.0000E+00  0.0000E+00  0.3600E+02  0.3600E+02
    -35.212  0.0000E+00  0.0000E+00  0.3600E+02  0.3600E+02
    -34.932  0.0000E+00  0.0000E+00  0.3600E+02  0.3600E+02
    -34.653  0.0000E+00  0.0000E+00  0.3600E+02  0.3600E+02
    -34.373  0.0000E+00  0.0000E+00  0.3600E+02  0.3600E+02
    -34.094  0.0000E+00  0.0000E+00  0.3600E+02  0.3600E+02
    -33.815  0.0000E+00  0.0000E+00  0.3600E+02  0.3600E+02
    -33.535  0.0000E+00  0.0000E+00  0.3600E+02  0.3600E+02
    -33.256  0.0000E+00  0.0000E+00  0.3600E+02  0.3600E+02
    -32.976  0.0000E+00  0.0000E+00  0.3600E+02  0.3600E+02
    -32.697  0.0000E+00  0.0000E+00  0.3600E+02  0.3600E+02
    -32.417  0.0000E+00  0.0000E+00  0.3600E+02  0.3600E+02
    -32.138  0.0000E+00  0.0000E+00  0.3600E+02  0.3600E+02
    -31.858  0.0000E+00  0.0000E+00  0.3600E+02  0.3600E+02
    -31.579  0.0000E+00  0.0000E+00  0.3600E+02  0.3600E+02
    -31.300  0.0000E+00  0.0000E+00  0.3600E+02  0.3600E+02
    -31.020  0.0000E+00  0.0000E+00  0.3600E+02  0.3600E+02
    -30.741  0.0000E+00  0.0000E+00  0.3600E+02  0.3600E+02
    -30.461  0.0000E+00  0.0000E+00  0.3600E+02  0.3600E+02
    -30.182  0.0000E+00  0.0000E+00  0.3600E+02  0.3600E+02
    -29.902  0.0000E+00  0.0000E+00  0.3600E+02  0.3600E+02
    -29.623  0.0000E+00  0.0000E+00  0.3600E+02  0.3600E+02
    -29.344  0.0000E+00  0.0000E+00  0.3600E+02  0.3600E+02
    -29.064  0.0000E+00  0.0000E+00  0.3600E+02  0.3600E+02
    -28.785  0.0000E+00  0.0000E+00  0.3600E+02  0.3600E+02
    -28.505  0.0000E+00  0.0000E+00  0.3600E+02  0.3600E+02
    -28.226  0.0000E+00  0.0000E+00  0.3600E+02  0.3600E+02
    -27.946  0.0000E+00  0.0000E+00  0.3600E+02  0.3600E+02
    -27.667  0.0000E+00  0.0000E+00  0.3600E+02  0.3600E+02
    -27.388  0.0000E+00  0.0000E+00  0.3600E+02  0.3600E+02
    -27.108  0.0000E+00  0.0000E+00  0.3600E+02  0.3600E+02
    -26.829  0.0000E+00  0.0000E+00  0.3600E+02  0.3600E+02
    -26.549  0.0000E+00  0.0000E+00  0.3600E+02  0.3600E+02
    -26.270  0.0000E+00  0.0000E+00  0.3600E+02  0.3600E+02
    -25.990  0.0000E+00  0.0000E+00  0.3600E+02  0.3600E+02
    -25.711  0.0000E+00  0.0000E+00  0.3600E+02  0.3600E+02
    -25.432  0.0000E+00  0.0000E+00  0.3600E+02  0.3600E+02
    -25.152  0.0000E+00  0.0000E+00  0.3600E+02  0.3600E+02
    -24.873  0.0000E+00  0.0000E+00  0.3600E+02  0.3600E+02
    -24.593  0.0000E+00  0.0000E+00  0.3600E+02  0.3600E+02
    -24.314  0.0000E+00  0.0000E+00  0.3600E+02  0.3600E+02
    -24.034  0.0000E+00  0.0000E+00  0.3600E+02  0.3600E+02
    -23.755  0.0000E+00  0.0000E+00  0.3600E+02  0.3600E+02
    -23.476  0.0000E+00  0.0000E+00  0.3600E+02  0.3600E+02
    -23.196  0.0000E+00  0.0000E+00  0.3600E+02  0.3600E+02
    -22.917  0.0000E+00  0.0000E+00  0.3600E+02  0.3600E+02
    -22.637  0.0000E+00  0.0000E+00  0.3600E+02  0.3600E+02
    -22.358  0.0000E+00  0.0000E+00  0.3600E+02  0.3600E+02
    -22.078  0.0000E+00  0.0000E+00  0.3600E+02  0.3600E+02
    -21.799  0.0000E+00  0.0000E+00  0.3600E+02  0.3600E+02
    -21.519  0.0000E+00  0.0000E+00  0.3600E+02  0.3600E+02
    -21.240  0.0000E+00  0.0000E+00  0.3600E+02  0.3600E+02
    -20.961  0.0000E+00  0.0000E+00  0.3600E+02  0.3600E+02
    -20.681  0.0000E+00  0.0000E+00  0.3600E+02  0.3600E+02
    -20.402  0.0000E+00  0.0000E+00  0.3600E+02  0.3600E+02
    -20.122  0.0000E+00  0.0000E+00  0.3600E+02  0.3600E+02
    -19.843  0.0000E+00  0.0000E+00  0.3600E+02  0.3600E+02
    -19.563  0.0000E+00  0.0000E+00  0.3600E+02  0.3600E+02
    -19.284  0.0000E+00  0.0000E+00  0.3600E+02  0.3600E+02
    -19.005  0.0000E+00  0.0000E+00  0.3600E+02  0.3600E+02
    -18.725  0.0000E+00  0.0000E+00  0.3600E+02  0.3600E+02
    -18.446  0.0000E+00  0.0000E+00  0.3600E+02  0.3600E+02
    -18.166  0.0000E+00  0.0000E+00  0.3600E+02  0.3600E+02
    -17.887  0.0000E+00  0.0000E+00  0.3600E+02  0.3600E+02
    -17.607  0.0000E+00  0.0000E+00  0.3600E+02  0.3600E+02
    -17.328  0.0000E+00  0.0000E+00  0.3600E+02  0.3600E+02
    -17.049  0.0000E+00  0.0000E+00  0.3600E+02  0.3600E+02
    -16.769  0.0000E+00  0.0000E+00  0.3600E+02  0.3600E+02
    -16.490  0.0000E+00  0.0000E+00  0.3600E+02  0.3600E+02
    -16.210  0.0000E+00  0.0000E+00  0.3600E+02  0.3600E+02
    -15.931  0.0000E+00  0.0000E+00  0.3600E+02  0.3600E+02
    -15.651  0.0000E+00  0.0000E+00  0.3600E+02  0.3600E+02
    -15.372  0.0000E+00  0.0000E+00  0.3600E+02  0.3600E+02
    -15.093  0.0000E+00  0.0000E+00  0.3600E+02  0.3600E+02
    -14.813  0.0000E+00  0.0000E+00  0.3600E+02  0.3600E+02
    -14.534  0.0000E+00  0.0000E+00  0.3600E+02  0.3600E+02
    -14.254  0.0000E+00  0.0000E+00  0.3600E+02  0.3600E+02
    -13.975  0.0000E+00  0.0000E+00  0.3600E+02  0.3600E+02
    -13.695  0.0000E+00  0.0000E+00  0.3600E+02  0.3600E+02
    -13.416  0.0000E+00  0.0000E+00  0.3600E+02  0.3600E+02
    -13.137  0.0000E+00  0.0000E+00  0.3600E+02  0.3600E+02
    -12.857  0.0000E+00  0.0000E+00  0.3600E+02  0.3600E+02
    -12.578  0.0000E+00  0.0000E+00  0.3600E+02  0.3600E+02
    -12.298  0.0000E+00  0.0000E+00  0.3600E+02  0.3600E+02
    -12.019  0.0000E+00  0.0000E+00  0.3600E+02  0.3600E+02
    -11.739  0.0000E+00  0.0000E+00  0.3600E+02  0.3600E+02
    -11.460  0.0000E+00  0.0000E+00  0.3600E+02  0.3600E+02
    -11.181  0.0000E+00  0.0000E+00  0.3600E+02  0.3600E+02
    -10.901  0.0000E+00  0.0000E+00  0.3600E+02  0.3600E+02
    -10.622  0.0000E+00  0.0000E+00  0.3600E+02  0.3600E+02
    -10.342  0.0000E+00  0.0000E+00  0.3600E+02  0.3600E+02
    -10.063  0.0000E+00  0.0000E+00  0.3600E+02  0.3600E+02
     -9.783  0.0000E+00  0.0000E+00  0.3600E+02  0.3600E+02
     -9.504  0.0000E+00  0.0000E+00  0.3600E+02  0.3600E+02
     -9.224  0.0000E+00  0.0000E+00  0.3600E+02  0.3600E+02
     -8.945  0.0000E+00  0.0000E+00  0.3600E+02  0.3600E+02
     -8.666  0.0000E+00  0.0000E+00  0.3600E+02  0.3600E+02
     -8.386  0.0000E+00  0.0000E+00  0.3600E+02  0.3600E+02
     -8.107  0.0000E+00  0.0000E+00  0.3600E+02  0.3600E+02
     -7.827  0.0000E+00  0.0000E+00  0.3600E+02  0.3600E+02
     -7.548  0.0000E+00  0.0000E+00  0.3600E+02  0.3600E+02
     -7.268  0.0000E+00  0.0000E+00  0.3600E+02  0.3600E+02
     -6.989  0.0000E+00  0.0000E+00  0.3600E+02  0.3600E+02
     -6.710  0.0000E+00  0.0000E+00  0.3600E+02  0.3600E+02
     -6.430  0.0000E+00  0.0000E+00  0.3600E+02  0.3600E+02
     -6.151  0.0000E+00  0.0000E+00  0.3600E+02  0.3600E+02
     -5.871  0.0000E+00  0.0000E+00  0.3600E+02  0.3600E+02
     -5.592  0.0000E+00  0.0000E+00  0.3600E+02  0.3600E+02
     -5.312  0.0000E+00  0.0000E+00  0.3600E+02  0.3600E+02
     -5.033  0.0000E+00  0.0000E+00  0.3600E+02  0.3600E+02
     -4.754  0.0000E+00  0.0000E+00  0.3600E+02  0.3600E+02
     -4.474  0.0000E+00  0.0000E+00  0.3600E+02  0.3600E+02
     -4.195  0.0000E+00  0.0000E+00  0.3600E+02  0.3600E+02
     -3.915  0.0000E+00  0.0000E+00  0.3600E+02  0.3600E+02
     -3.636  0.0000E+00  0.0000E+00  0.3600E+02  0.3600E+02
     -3.356  0.0000E+00  0.0000E+00  0.3600E+02  0.3600E+02
     -3.077  0.0000E+00  0.0000E+00  0.3600E+02  0.3600E+02
     -2.798  0.0000E+00  0.0000E+00  0.3600E+02  0.3600E+02
     -2.518  0.0000E+00  0.0000E+00  0.3600E+02  0.3600E+02
     -2.239  0.0000E+00  0.0000E+00  0.3600E+02  0.3600E+02
     -1.959  0.0000E+00  0.0000E+00  0.3600E+02  0.3600E+02
     -1.680  0.0000E+00  0.0000E+00  0.3600E+02  0.3600E+02
     -1.400  0.0000E+00  0.0000E+00  0.3600E+02  0.3600E+02
     -1.121  0.0000E+00  0.0000E+00  0.3600E+02  0.3600E+02
     -0.842  0.0000E+00  0.0000E+00  0.3600E+02  0.3600E+02
     -0.562  0.4622E-05  0.4595E-05  0.3600E+02  0.3600E+02
     -0.283  0.1204E-02  0.1197E-02  0.3600E+02  0.3600E+02
     -0.003  0.5777E-01  0.5763E-01  0.3602E+02  0.3602E+02
      0.276  0.2744E+00  0.2741E+00  0.3609E+02  0.3609E+02
      0.556  0.4971E+00  0.4970E+00  0.3623E+02  0.3623E+02
      0.835  0.5071E+00  0.5069E+00  0.3638E+02  0.3638E+02
      1.115  0.8869E+00  0.8863E+00  0.3663E+02  0.3663E+02
      1.394  0.1135E+01  0.1135E+01  0.3694E+02  0.3694E+02
      1.673  0.1717E+01  0.1715E+01  0.3743E+02  0.3743E+02
      1.953  0.2269E+01  0.2268E+01  0.3808E+02  0.3807E+02
      2.232  0.3075E+01  0.3072E+01  0.3894E+02  0.3894E+02
      2.512  0.2135E+01  0.2138E+01  0.3954E+02  0.3954E+02
      2.791  0.1224E+01  0.1225E+01  0.3990E+02  0.3990E+02
      3.071  0.3269E+00  0.3279E+00  0.4000E+02  0.4000E+02
      3.350  0.1415E-01  0.1425E-01  0.4000E+02  0.4000E+02
      3.629  0.0000E+00  0.0000E+00  0.4000E+02  0.4000E+02
      3.909  0.0000E+00  0.0000E+00  0.4000E+02  0.4000E+02
      4.188  0.0000E+00  0.0000E+00  0.4000E+02  0.4000E+02
      4.468  0.0000E+00  0.0000E+00  0.4000E+02  0.4000E+02
      4.747  0.0000E+00  0.0000E+00  0.4000E+02  0.4000E+02
      5.027  0.0000E+00  0.0000E+00  0.4000E+02  0.4000E+02
      5.306  0.0000E+00  0.0000E+00  0.4000E+02  0.4000E+02
      5.585  0.0000E+00  0.0000E+00  0.4000E+02  0.4000E+02
      5.865  0.3640E-05  0.3530E-05  0.4000E+02  0.4000E+02
      6.144  0.1092E-02  0.1059E-02  0.4000E+02  0.4000E+02
      6.424  0.1194E+00  0.1171E+00  0.4003E+02  0.4003E+02
      6.703  0.1538E+01  0.1525E+01  0.4046E+02  0.4046E+02
      6.983  0.2924E+01  0.2922E+01  0.4128E+02  0.4128E+02
      7.262  0.3614E+01  0.3606E+01  0.4230E+02  0.4230E+02
      7.541  0.4104E+01  0.4107E+01  0.4346E+02  0.4346E+02
      7.821  0.3483E+01  0.3480E+01  0.4445E+02  0.4445E+02
      8.100  0.3017E+01  0.3027E+01  0.4531E+02  0.4531E+02
      8.380  0.2343E+01  0.2340E+01  0.4598E+02  0.4597E+02
      8.659  0.3526E+01  0.3513E+01  0.4698E+02  0.4697E+02
      8.939  0.3947E+01  0.3951E+01  0.4809E+02  0.4808E+02
      9.218  0.3592E+01  0.3587E+01  0.4912E+02  0.4911E+02
      9.497  0.4651E+01  0.4633E+01  0.5044E+02  0.5043E+02
      9.777  0.4637E+01  0.4664E+01  0.5176E+02  0.5175E+02
     10.056  0.1220E+01  0.1222E+01  0.5213E+02  0.5213E+02
     10.336  0.1824E+01  0.1807E+01  0.5264E+02  0.5263E+02
     10.615  0.4839E+01  0.4813E+01  0.5400E+02  0.5399E+02
     10.895  0.4586E+01  0.4603E+01  0.5531E+02  0.5529E+02
     11.174  0.6568E+01  0.6535E+01  0.5717E+02  0.5715E+02
     11.454  0.6823E+01  0.6816E+01  0.5911E+02  0.5909E+02
     11.733  0.7987E+01  0.7922E+01  0.6138E+02  0.6134E+02
     12.012  0.8092E+01  0.8098E+01  0.6367E+02  0.6364E+02
     12.292  0.7778E+01  0.7779E+01  0.6587E+02  0.6584E+02
     12.571  0.5680E+01  0.5716E+01  0.6750E+02  0.6748E+02
     12.851  0.4981E+01  0.4969E+01  0.6892E+02  0.6889E+02
     13.130  0.8184E+01  0.8138E+01  0.7122E+02  0.7119E+02
     13.410  0.8811E+01  0.8823E+01  0.7373E+02  0.7369E+02
     13.689  0.6798E+01  0.6812E+01  0.7568E+02  0.7565E+02
     13.968  0.7438E+01  0.7404E+01  0.7778E+02  0.7775E+02
     14.248  0.5756E+01  0.5805E+01  0.7942E+02  0.7940E+02
     14.527  0.4136E+01  0.4116E+01  0.8060E+02  0.8058E+02
     14.807  0.5951E+01  0.5902E+01  0.8228E+02  0.8224E+02
     15.086  0.6351E+01  0.6347E+01  0.8408E+02  0.8404E+02
     15.366  0.7168E+01  0.7157E+01  0.8611E+02  0.8607E+02
     15.645  0.7951E+01  0.7947E+01  0.8837E+02  0.8833E+02
     15.924  0.8275E+01  0.8227E+01  0.9071E+02  0.9065E+02
     16.204  0.9612E+01  0.9631E+01  0.9342E+02  0.9337E+02
     16.483  0.8992E+01  0.8951E+01  0.9598E+02  0.9592E+02
     16.763  0.9935E+01  0.9922E+01  0.9879E+02  0.9873E+02
     17.042  0.7957E+01  0.8047E+01  0.1011E+03  0.1010E+03
     17.322  0.4613E+01  0.4677E+01  0.1024E+03  0.1024E+03
     17.601  0.3791E+01  0.3786E+01  0.1035E+03  0.1034E+03
     17.880  0.3095E+01  0.3111E+01  0.1043E+03  0.1043E+03
     18.160  0.2492E+01  0.2487E+01  0.1051E+03  0.1050E+03
     18.439  0.2604E+01  0.2591E+01  0.1058E+03  0.1058E+03
     18.719  0.2794E+01  0.2799E+01  0.1066E+03  0.1066E+03
     18.998  0.2350E+01  0.2369E+01  0.1073E+03  0.1072E+03
     19.278  0.2044E+01  0.2026E+01  0.1078E+03  0.1078E+03
     19.557  0.2333E+01  0.2338E+01  0.1085E+03  0.1085E+03
     19.836  0.2749E+01  0.2748E+01  0.1093E+03  0.1093E+03
     20.116  0.1798E+01  0.1805E+01  0.1098E+03  0.1098E+03
     20.395  0.2051E+01  0.2033E+01  0.1104E+03  0.1104E+03
     20.675  0.2386E+01  0.2391E+01  0.1110E+03  0.1110E+03
     20.954  0.2162E+01  0.2154E+01  0.1117E+03  0.1117E+03
     21.234  0.1426E+01  0.1436E+01  0.1121E+03  0.1121E+03
     21.513  0.6689E+00  0.6728E+00  0.1123E+03  0.1123E+03
     21.793  0.1586E+01  0.1575E+01  0.1127E+03  0.1127E+03
     22.072  0.9095E+00  0.9141E+00  0.1130E+03  0.1130E+03
     22.351  0.1836E+01  0.1820E+01  0.1135E+03  0.1135E+03
     22.631  0.1688E+01  0.1701E+01  0.1140E+03  0.1140E+03
     22.910  0.1601E+01  0.1591E+01  0.1144E+03  0.1144E+03
     23.190  0.1970E+01  0.1971E+01  0.1150E+03  0.1150E+03
     23.469  0.2079E+01  0.2080E+01  0.1156E+03  0.1156E+03
     23.749  0.1965E+01  0.1970E+01  0.1161E+03  0.1161E+03
     24.028  0.1645E+01  0.1644E+01  0.1166E+03  0.1166E+03
     24.307  0.2603E+01  0.2599E+01  0.1173E+03  0.1173E+03
     24.587  0.1995E+01  0.2000E+01  0.1179E+03  0.1179E+03
     24.866  0.6148E+00  0.6208E+00  0.1181E+03  0.1181E+03
     25.146  0.7566E+00  0.7525E+00  0.1183E+03  0.1183E+03
     25.425  0.1279E+01  0.1281E+01  0.1187E+03  0.1187E+03
     25.705  0.1403E+01  0.1402E+01  0.1191E+03  0.1191E+03
     25.984  0.6907E+00  0.6941E+00  0.1193E+03  0.1193E+03
     26.263  0.8967E+00  0.8940E+00  0.1195E+03  0.1195E+03
     26.543  0.9519E+00  0.9493E+00  0.1198E+03  0.1198E+03
     26.822  0.9888E+00  0.9907E+00  0.1201E+03  0.1201E+03
     27.102  0.1762E+01  0.1761E+01  0.1206E+03  0.1206E+03
     27.381  0.2332E+01  0.2329E+01  0.1212E+03  0.1212E+03
     27.661  0.2303E+01  0.2307E+01  0.1219E+03  0.1219E+03
     27.940  0.9233E+00  0.9242E+00  0.1222E+03  0.1222E+03
     28.219  0.1847E+01  0.1835E+01  0.1227E+03  0.1227E+03
     28.499  0.3071E+01  0.3080E+01  0.1236E+03  0.1235E+03
     28.778  0.2204E+01  0.2205E+01  0.1242E+03  0.1242E+03
     29.058  0.1916E+01  0.1912E+01  0.1247E+03  0.1247E+03
     29.337  0.1619E+01  0.1626E+01  0.1252E+03  0.1252E+03
     29.617  0.1348E+01  0.1346E+01  0.1256E+03  0.1256E+03
     29.896  0.2450E+01  0.2441E+01  0.1263E+03  0.1263E+03
     30.175  0.2887E+01  0.2882E+01  0.1271E+03  0.1271E+03
     30.455  0.2158E+01  0.2202E+01  0.1277E+03  0.1277E+03
     30.734  0.1679E+01  0.1682E+01  0.1282E+03  0.1282E+03
     31.014  0.1285E+01  0.1277E+01  0.1285E+03  0.1285E+03
     31.293  0.3123E+01  0.3119E+01  0.1294E+03  0.1294E+03
     31.573  0.3095E+01  0.3113E+01  0.1303E+03  0.1303E+03
     31.852  0.3253E+01  0.3256E+01  0.1312E+03  0.1312E+03
     32.132  0.2217E+01  0.2221E+01  0.1319E+03  0.1319E+03
     32.411  0.1640E+01  0.1636E+01  0.1323E+03  0.1323E+03
     32.690  0.2015E+01  0.2011E+01  0.1329E+03  0.1329E+03
     32.970  0.2683E+01  0.2681E+01  0.1337E+03  0.1337E+03
     33.249  0.2912E+01  0.2911E+01  0.1345E+03  0.1345E+03
     33.529  0.2411E+01  0.2429E+01  0.1352E+03  0.1352E+03
     33.808  0.2268E+01  0.2268E+01  0.1358E+03  0.1358E+03
     34.088  0.2762E+01  0.2760E+01  0.1366E+03  0.1366E+03
     34.367  0.2223E+01  0.2239E+01  0.1372E+03  0.1372E+03
     34.646  0.1892E+01  0.1897E+01  0.1378E+03  0.1378E+03
     34.926  0.2886E+01  0.2876E+01  0.1386E+03  0.1386E+03
     35.205  0.2845E+01  0.2849E+01  0.1394E+03  0.1394E+03
     35.485  0.2724E+01  0.2724E+01  0.1402E+03  0.1402E+03
     35.764  0.2592E+01  0.2588E+01  0.1409E+03  0.1409E+03
     36.044  0.2555E+01  0.2557E+01  0.1416E+03  0.1416E+03
     36.323  0.2296E+01  0.2296E+01  0.1423E+03  0.1423E+03
     36.602  0.2258E+01  0.2261E+01  0.1429E+03  0.1429E+03
     36.882  0.2028E+01  0.2033E+01  0.1435E+03  0.1435E+03
     37.161  0.1132E+01  0.1129E+01  0.1438E+03  0.1438E+03
     37.441  0.4842E+00  0.4723E+00  0.1440E+03  0.1440E+03
     37.720  0.7476E-01  0.8761E-01  0.1440E+03  0.1440E+03
     38.000  0.4665E-01  0.4904E-01  0.1440E+03  0.1440E+03
     38.279  0.0000E+00  0.0000E+00  0.1440E+03  0.1440E+03
     38.558  0.0000E+00  0.0000E+00  0.1440E+03  0.1440E+03
     38.838  0.0000E+00  0.0000E+00  0.1440E+03  0.1440E+03
     39.117  0.0000E+00  0.0000E+00  0.1440E+03  0.1440E+03
     39.397  0.0000E+00  0.0000E+00  0.1440E+03  0.1440E+03
     39.676  0.0000E+00  0.0000E+00  0.1440E+03  0.1440E+03
     39.956  0.0000E+00  0.0000E+00  0.1440E+03  0.1440E+03
     40.235  0.0000E+00  0.0000E+00  0.1440E+03  0.1440E+03
     40.514  0.0000E+00  0.0000E+00  0.1440E+03  0.1440E+03
     40.794  0.0000E+00  0.0000E+00  0.1440E+03  0.1440E+03
     41.073  0.0000E+00  0.0000E+00  0.1440E+03  0.1440E+03
     41.353  0.0000E+00  0.0000E+00  0.1440E+03  0.1440E+03
     41.632  0.0000E+00  0.0000E+00  0.1440E+03  0.1440E+03
     41.63221800    -42.19749451  301     16.05870552      1.00000000
    -42.197  0.0000E+00  0.0000E+00  0.0000E+00  0.0000E+00  0.0000E+00  0.0000E+00  0.0000E+00  0.0000E+00  0.0000E+00  0.0000E+00  0.0000E+00  0.0000E+00  0.0000E+00  0.0000E+00  0.0000E+00  0.0000E+00  0.0000E+00  0.0000E+00
    -41.918  0.0000E+00  0.0000E+00  0.0000E+00  0.0000E+00  0.0000E+00  0.0000E+00  0.0000E+00  0.0000E+00  0.0000E+00  0.0000E+00  0.0000E+00  0.0000E+00  0.0000E+00  0.0000E+00  0.0000E+00  0.0000E+00  0.0000E+00  0.0000E+00
    -41.639  0.0000E+00  0.0000E+00  0.0000E+00  0.0000E+00  0.0000E+00  0.0000E+00  0.0000E+00  0.0000E+00  0.0000E+00  0.0000E+00  0.0000E+00  0.0000E+00  0.0000E+00  0.0000E+00  0.0000E+00  0.0000E+00  0.0000E+00  0.0000E+00
    -41.359  0.0000E+00  0.0000E+00  0.0000E+00  0.0000E+00  0.0000E+00  0.0000E+00  0.0000E+00  0.0000E+00  0.0000E+00  0.0000E+00  0.0000E+00  0.0000E+00  0.0000E+00  0.0000E+00  0.0000E+00  0.0000E+00  0.0000E+00  0.0000E+00
    -41.080  0.0000E+00  0.0000E+00  0.0000E+00  0.0000E+00  0.0000E+00  0.0000E+00  0.0000E+00  0.0000E+00  0.0000E+00  0.0000E+00  0.0000E+00  0.0000E+00  0.0000E+00  0.0000E+00  0.0000E+00  0.0000E+00  0.0000E+00  0.0000E+00
    -40.800  0.0000E+00  0.0000E+00  0.0000E+00  0.0000E+00  0.0000E+00  0.0000E+00  0.0000E+00  0.0000E+00  0.0000E+00  0.0000E+00  0.0000E+00  0.0000E+00  0.0000E+00  0.0000E+00  0.0000E+00  0.0000E+00  0.0000E+00  0.0000E+00
    -40.521  0.0000E+00  0.0000E+00  0.0000E+00  0.0000E+00  0.0000E+00  0.0000E+00  0.0000E+00  0.0000E+00  0.0000E+00  0.0000E+00  0.0000E+00  0.0000E+00  0.0000E+00  0.0000E+00  0.0000E+00  0.0000E+00  0.0000E+00  0.0000E+00
    -40.241  0.0000E+00  0.0000E+00  0.0000E+00  0.0000E+00  0.0000E+00  0.0000E+00  0.0000E+00  0.0000E+00  0.0000E+00  0.0000E+00  0.0000E+00  0.0000E+00  0.0000E+00  0.0000E+00  0.0000E+00  0.0000E+00  0.0000E+00  0.0000E+00
    -39.962  0.0000E+00  0.0000E+00  0.0000E+00  0.0000E+00  0.0000E+00  0.0000E+00  0.0000E+00  0.0000E+00  0.0000E+00  0.0000E+00  0.0000E+00  0.0000E+00  0.0000E+00  0.0000E+00  0.0000E+00  0.0000E+00  0.0000E+00  0.0000E+00
    -39.683  0.0000E+00  0.0000E+00  0.0000E+00  0.0000E+00  0.0000E+00  0.0000E+00  0.0000E+00  0.0000E+00  0.0000E+00  0.0000E+00  0.0000E+00  0.0000E+00  0.0000E+00  0.0000E+00  0.0000E+00  0.0000E+00  0.0000E+00  0.0000E+00
    -39.403  0.0000E+00  0.0000E+00  0.0000E+00  0.0000E+00  0.0000E+00  0.0000E+00  0.0000E+00  0.0000E+00  0.0000E+00  0.0000E+00  0.0000E+00  0.0000E+00  0.0000E+00  0.0000E+00  0.0000E+00  0.0000E+00  0.0000E+00  0.0000E+00
    -39.124  0.0000E+00  0.0000E+00  0.0000E+00  0.0000E+00  0.0000E+00  0.0000E+00  0.0000E+00  0.0000E+00  0.0000E+00  0.0000E+00  0.0000E+00  0.0000E+00  0.0000E+00  0.0000E+00  0.0000E+00  0.0000E+00  0.0000E+00  0.0000E+00
    -38.844  0.3394E-08  0.2826E-08  0.2208E-05  0.1977E-05  0.1411E-05  0.1223E-05  0.2524E-05  0.2226E-05  0.4927E-09  0.3997E-09  0.7919E-09  0.6695E-09  0.9756E-09  0.8181E-09  0.1058E-08  0.8863E-09  0.8282E-09  0.7086E-09
    -38.565  0.9405E-06  0.7919E-06  0.6164E-03  0.5564E-03  0.3965E-03  0.3457E-03  0.6902E-03  0.6104E-03  0.1434E-06  0.1203E-06  0.2325E-06  0.1967E-06  0.2674E-06  0.2264E-06  0.2927E-06  0.2460E-06  0.2326E-06  0.1996E-06
    -38.285  0.1322E-03  0.1188E-03  0.7554E-01  0.7265E-01  0.5622E-01  0.5214E-01  0.8442E-01  0.8009E-01  0.2165E-04  0.1923E-04  0.3854E-04  0.3412E-04  0.3333E-04  0.3005E-04  0.4134E-04  0.3693E-04  0.3020E-04  0.2758E-04
    -38.006  0.6424E-03  0.6344E-03  0.4134E+00  0.4240E+00  0.3612E+00  0.3660E+00  0.4002E+00  0.4091E+00  0.1539E-03  0.1522E-03  0.2799E-03  0.2741E-03  0.1541E-03  0.1518E-03  0.2057E-03  0.2028E-03  0.1717E-03  0.1698E-03
    -37.727  0.6901E-03  0.6925E-03  0.8034E+00  0.8097E+00  0.4649E+00  0.4811E+00  0.7410E+00  0.7541E+00  0.1438E-03  0.1437E-03  0.3130E-03  0.3111E-03  0.1983E-03  0.1973E-03  0.2153E-03  0.2142E-03  0.2214E-03  0.2240E-03
    -37.447  0.3460E-03  0.3584E-03  0.1016E+01  0.1014E+01  0.9999E+00  0.1006E+01  0.1319E+01  0.1315E+01  0.1799E-03  0.1804E-03  0.3415E-03  0.3447E-03  0.2908E-03  0.2901E-03  0.2368E-03  0.2385E-03  0.2357E-03  0.2358E-03
    -37.168  0.9954E-04  0.1049E-03  0.1170E+01  0.1157E+01  0.1578E+01  0.1553E+01  0.9385E+00  0.9243E+00  0.1170E-03  0.1214E-03  0.1337E-03  0.1448E-03  0.1477E-03  0.1553E-03  0.1188E-03  0.1270E-03  0.1305E-03  0.1330E-03
    -36.888  0.3019E-06  0.3913E-06  0.2565E-02  0.3759E-02  0.3063E-01  0.3387E-01  0.7593E-02  0.9887E-02  0.2803E-06  0.4440E-06  0.1626E-05  0.1920E-05  0.6894E-06  0.8414E-06  0.1220E-05  0.1525E-05  0.3635E-06  0.4642E-06
    -36.609  0.0000E+00  0.0000E+00  0.0000E+00  0.0000E+00  0.0000E+00  0.0000E+00  0.0000E+00  0.0000E+00  0.0000E+00  0.0000E+00  0.0000E+00  0.0000E+00  0.0000E+00  0.0000E+00  0.0000E+00  0.0000E+00  0.0000E+00  0.0000E+00
    -36.329  0.0000E+00  0.0000E+00  0.0000E+00  0.0000E+00  0.0000E+00  0.0000E+00  0.0000E+00  0.0000E+00  0.0000E+00  0.0000E+00  0.0000E+00  0.0000E+00  0.0000E+00  0.0000E+00  0.0000E+00  0.0000E+00  0.0000E+00  0.0000E+00
    -36.050  0.0000E+00  0.0000E+00  0.0000E+00  0.0000E+00  0.0000E+00  0.0000E+00  0.0000E+00  0.0000E+00  0.0000E+00  0.0000E+00  0.0000E+00  0.0000E+00  0.0000E+00  0.0000E+00  0.0000E+00  0.0000E+00  0.0000E+00  0.0000E+00
    -35.771  0.0000E+00  0.0000E+00  0.0000E+00  0.0000E+00  0.0000E+00  0.0000E+00  0.0000E+00  0.0000E+00  0.0000E+00  0.0000E+00  0.0000E+00  0.0000E+00  0.0000E+00  0.0000E+00  0.0000E+00  0.0000E+00  0.0000E+00  0.0000E+00
    -35.491  0.0000E+00  0.0000E+00  0.0000E+00  0.0000E+00  0.0000E+00  0.0000E+00  0.0000E+00  0.0000E+00  0.0000E+00  0.0000E+00  0.0000E+00  0.0000E+00  0.0000E+00  0.0000E+00  0.0000E+00  0.0000E+00  0.0000E+00  0.0000E+00
    -35.212  0.0000E+00  0.0000E+00  0.0000E+00  0.0000E+00  0.0000E+00  0.0000E+00  0.0000E+00  0.0000E+00  0.0000E+00  0.0000E+00  0.0000E+00  0.0000E+00  0.0000E+00  0.0000E+00  0.0000E+00  0.0000E+00  0.0000E+00  0.0000E+00
    -34.932  0.0000E+00  0.0000E+00  0.0000E+00  0.0000E+00  0.0000E+00  0.0000E+00  0.0000E+00  0.0000E+00  0.0000E+00  0.0000E+00  0.0000E+00  0.0000E+00  0.0000E+00  0.0000E+00  0.0000E+00  0.0000E+00  0.0000E+00  0.0000E+00
    -34.653  0.0000E+00  0.0000E+00  0.0000E+00  0.0000E+00  0.0000E+00  0.0000E+00  0.0000E+00  0.0000E+00  0.0000E+00  0.0000E+00  0.0000E+00  0.0000E+00  0.0000E+00  0.0000E+00  0.0000E+00  0.0000E+00  0.0000E+00  0.0000E+00
    -34.373  0.0000E+00  0.0000E+00  0.0000E+00  0.0000E+00  0.0000E+00  0.0000E+00  0.0000E+00  0.0000E+00  0.0000E+00  0.0000E+00  0.0000E+00  0.0000E+00  0.0000E+00  0.0000E+00  0.0000E+00  0.0000E+00  0.0000E+00  0.0000E+00
    -34.094  0.0000E+00  0.0000E+00  0.0000E+00  0.0000E+00  0.0000E+00  0.0000E+00  0.0000E+00  0.0000E+00  0.0000E+00  0.0000E+00  0.0000E+00  0.0000E+00  0.0000E+00  0.0000E+00  0.0000E+00  0.0000E+00  0.0000E+00  0.0000E+00
    -33.815  0.0000E+00  0.0000E+00  0.0000E+00  0.0000E+00  0.0000E+00  0.0000E+00  0.0000E+00  0.0000E+00  0.0000E+00  0.0000E+00  0.0000E+00  0.0000E+00  0.0000E+00  0.0000E+00  0.0000E+00  0.0000E+00  0.0000E+00  0.0000E+00
    -33.535  0.0000E+00  0.0000E+00  0.0000E+00  0.0000E+00  0.0000E+00  0.0000E+00  0.0000E+00  0.0000E+00  0.0000E+00  0.0000E+00  0.0000E+00  0.0000E+00  0.0000E+00  0.0000E+00  0.0000E+00  0.0000E+00  0.0000E+00  0.0000E+00
    -33.256  0.0000E+00  0.0000E+00  0.0000E+00  0.0000E+00  0.0000E+00  0.0000E+00  0.0000E+00  0.0000E+00  0.0000E+00  0.0000E+00  0.0000E+00  0.0000E+00  0.0000E+00  0.0000E+00  0.0000E+00  0.0000E+00  0.0000E+00  0.0000E+00
    -32.976  0.0000E+00  0.0000E+00  0.0000E+00  0.0000E+00  0.0000E+00  0.0000E+00  0.0000E+00  0.0000E+00  0.0000E+00  0.0000E+00  0.0000E+00  0.0000E+00  0.0000E+00  0.0000E+00  0.0000E+00  0.0000E+00  0.0000E+00  0.0000E+00
    -32.697  0.0000E+00  0.0000E+00  0.0000E+00  0.0000E+00  0.0000E+00  0.0000E+00  0.0000E+00  0.0000E+00  0.0000E+00  0.0000E+00  0.0000E+00  0.0000E+00  0.0000E+00  0.0000E+00  0.0000E+00  0.0000E+00  0.0000E+00  0.0000E+00
    -32.417  0.0000E+00  0.0000E+00  0.0000E+00  0.0000E+00  0.0000E+00  0.0000E+00  0.0000E+00  0.0000E+00  0.0000E+00  0.0000E+00  0.0000E+00  0.0000E+00  0.0000E+00  0.0000E+00  0.0000E+00  0.0000E+00  0.0000E+00  0.0000E+00
    -32.138  0.0000E+00  0.0000E+00  0.0000E+00  0.0000E+00  0.0000E+00  0.0000E+00  0.0000E+00  0.0000E+00  0.0000E+00  0.0000E+00  0.0000E+00  0.0000E+00  0.0000E+00  0.0000E+00  0.0000E+00  0.0000E+00  0.0000E+00  0.0000E+00
    -31.858  0.0000E+00  0.0000E+00  0.0000E+00  0.0000E+00  0.0000E+00  0.0000E+00  0.0000E+00  0.0000E+00  0.0000E+00  0.0000E+00  0.0000E+00  0.0000E+00  0.0000E+00  0.0000E+00  0.0000E+00  0.0000E+00  0.0000E+00  0.0000E+00
    -31.579  0.0000E+00  0.0000E+00  0.0000E+00  0.0000E+00  0.0000E+00  0.0000E+00  0.0000E+00  0.0000E+00  0.0000E+00  0.0000E+00  0.0000E+00  0.0000E+00  0.0000E+00  0.0000E+00  0.0000E+00  0.0000E+00  0.0000E+00  0.0000E+00
    -31.300  0.0000E+00  0.0000E+00  0.0000E+00  0.0000E+00  0.0000E+00  0.0000E+00  0.0000E+00  0.0000E+00  0.0000E+00  0.0000E+00  0.0000E+00  0.0000E+00  0.0000E+00  0.0000E+00  0.0000E+00  0.0000E+00  0.0000E+00  0.0000E+00
    -31.020  0.0000E+00  0.0000E+00  0.0000E+00  0.0000E+00  0.0000E+00  0.0000E+00  0.0000E+00  0.0000E+00  0.0000E+00  0.0000E+00  0.0000E+00  0.0000E+00  0.0000E+00  0.0000E+00  0.0000E+00  0.0000E+00  0.0000E+00  0.0000E+00
    -30.741  0.0000E+00  0.0000E+00  0.0000E+00  0.0000E+00  0.0000E+00  0.0000E+00  0.0000E+00  0.0000E+00  0.0000E+00  0.0000E+00  0.0000E+00  0.0000E+00  0.0000E+00  0.0000E+00  0.0000E+00  0.0000E+00  0.0000E+00  0.0000E+00
    -30.461  0.0000E+00  0.0000E+00  0.0000E+00  0.0000E+00  0.0000E+00  0.0000E+00  0.0000E+00  0.0000E+00  0.0000E+00  0.0000E+00  0.0000E+00  0.0000E+00  0.0000E+00  0.0000E+00  0.0000E+00  0.0000E+00  0.0000E+00  0.0000E+00
    -30.182  0.0000E+00  0.0000E+00  0.0000E+00  0.0000E+00  0.0000E+00  0.0000E+00  0.0000E+00  0.0000E+00  0.0000E+00  0.0000E+00  0.0000E+00  0.0000E+00  0.0000E+00  0.0000E+00  0.0000E+00  0.0000E+00  0.0000E+00  0.0000E+00
    -29.902  0.0000E+00  0.0000E+00  0.0000E+00  0.0000E+00  0.0000E+00  0.0000E+00  0.0000E+00  0.0000E+00  0.0000E+00  0.0000E+00  0.0000E+00  0.0000E+00  0.0000E+00  0.0000E+00  0.0000E+00  0.0000E+00  0.0000E+00  0.0000E+00
    -29.623  0.0000E+00  0.0000E+00  0.0000E+00  0.0000E+00  0.0000E+00  0.0000E+00  0.0000E+00  0.0000E+00  0.0000E+00  0.0000E+00  0.0000E+00  0.0000E+00  0.0000E+00  0.0000E+00  0.0000E+00  0.0000E+00  0.0000E+00  0.0000E+00
    -29.344  0.0000E+00  0.0000E+00  0.0000E+00  0.0000E+00  0.0000E+00  0.0000E+00  0.0000E+00  0.0000E+00  0.0000E+00  0.0000E+00  0.0000E+00  0.0000E+00  0.0000E+00  0.0000E+00  0.0000E+00  0.0000E+00  0.0000E+00  0.0000E+00
    -29.064  0.0000E+00  0.0000E+00  0.0000E+00  0.0000E+00  0.0000E+00  0.0000E+00  0.0000E+00  0.0000E+00  0.0000E+00  0.0000E+00  0.0000E+00  0.0000E+00  0.0000E+00  0.0000E+00  0.0000E+00  0.0000E+00  0.0000E+00  0.0000E+00
    -28.785  0.0000E+00  0.0000E+00  0.0000E+00  0.0000E+00  0.0000E+00  0.0000E+00  0.0000E+00  0.0000E+00  0.0000E+00  0.0000E+00  0.0000E+00  0.0000E+00  0.0000E+00  0.0000E+00  0.0000E+00  0.0000E+00  0.0000E+00  0.0000E+00
    -28.505  0.0000E+00  0.0000E+00  0.0000E+00  0.0000E+00  0.0000E+00  0.0000E+00  0.0000E+00  0.0000E+00  0.0000E+00  0.0000E+00  0.0000E+00  0.0000E+00  0.0000E+00  0.0000E+00  0.0000E+00  0.0000E+00  0.0000E+00  0.0000E+00
    -28.226  0.0000E+00  0.0000E+00  0.0000E+00  0.0000E+00  0.0000E+00  0.0000E+00  0.0000E+00  0.0000E+00  0.0000E+00  0.0000E+00  0.0000E+00  0.0000E+00  0.0000E+00  0.0000E+00  0.0000E+00  0.0000E+00  0.0000E+00  0.0000E+00