  16  16   1   0
  0.8620880E+01  0.4332098E-09  0.4878343E-09  0.6526810E-09  0.5000000E-15
  1.000000000000000E-004
  CAR 
 unknown system                          
     34.66747639    -46.11217101  301     12.07918234      1.00000000
    -46.112  0.0000E+00  0.0000E+00  0.0000E+00  0.0000E+00
    -45.843  0.0000E+00  0.0000E+00  0.0000E+00  0.0000E+00
    -45.574  0.0000E+00  0.0000E+00  0.0000E+00  0.0000E+00
    -45.304  0.0000E+00  0.0000E+00  0.0000E+00  0.0000E+00
    -45.035  0.0000E+00  0.0000E+00  0.0000E+00  0.0000E+00
    -44.766  0.0000E+00  0.0000E+00  0.0000E+00  0.0000E+00
    -44.497  0.0000E+00  0.0000E+00  0.0000E+00  0.0000E+00
    -44.227  0.0000E+00  0.0000E+00  0.0000E+00  0.0000E+00
    -43.958  0.0000E+00  0.0000E+00  0.0000E+00  0.0000E+00
    -43.689  0.0000E+00  0.0000E+00  0.0000E+00  0.0000E+00
    -43.420  0.0000E+00  0.0000E+00  0.0000E+00  0.0000E+00
    -43.150  0.0000E+00  0.0000E+00  0.0000E+00  0.0000E+00
    -42.881  0.6436E-03  0.0000E+00  0.1733E-03  0.0000E+00
    -42.612  0.1419E+00  0.0000E+00  0.3838E-01  0.0000E+00
    -42.342  0.1121E+02  0.0000E+00  0.3058E+01  0.0000E+00
    -42.073  0.4963E+02  0.0000E+00  0.1642E+02  0.0000E+00
    -41.804  0.6171E+02  0.0000E+00  0.3319E+02  0.0000E+00
    -41.535  0.9457E+01  0.0000E+00  0.3598E+02  0.0000E+00
    -41.265  0.0000E+00  0.2775E-04  0.3600E+02  0.7472E-05
    -40.996  0.0000E+00  0.8648E-02  0.3600E+02  0.2336E-02
    -40.727  0.0000E+00  0.1653E+01  0.3600E+02  0.4473E+00
    -40.458  0.0000E+00  0.3020E+02  0.3600E+02  0.8579E+01
    -40.188  0.0000E+00  0.4803E+02  0.3600E+02  0.2161E+02
    -39.919  0.0000E+00  0.4415E+02  0.3600E+02  0.3367E+02
    -39.650  0.0000E+00  0.8091E+01  0.3600E+02  0.3598E+02
    -39.381  0.0000E+00  0.0000E+00  0.3600E+02  0.3600E+02
    -39.111  0.0000E+00  0.0000E+00  0.3600E+02  0.3600E+02
    -38.842  0.0000E+00  0.0000E+00  0.3600E+02  0.3600E+02
    -38.573  0.0000E+00  0.0000E+00  0.3600E+02  0.3600E+02
    -38.303  0.0000E+00  0.0000E+00  0.3600E+02  0.3600E+02
    -38.034  0.0000E+00  0.0000E+00  0.3600E+02  0.3600E+02
    -37.765  0.0000E+00  0.0000E+00  0.3600E+02  0.3600E+02
    -37.496  0.0000E+00  0.0000E+00  0.3600E+02  0.3600E+02
    -37.226  0.0000E+00  0.0000E+00  0.3600E+02  0.3600E+02
    -36.957  0.0000E+00  0.0000E+00  0.3600E+02  0.3600E+02
    -36.688  0.0000E+00  0.0000E+00  0.3600E+02  0.3600E+02
    -36.419  0.0000E+00  0.0000E+00  0.3600E+02  0.3600E+02
    -36.149  0.0000E+00  0.0000E+00  0.3600E+02  0.3600E+02
    -35.880  0.0000E+00  0.0000E+00  0.3600E+02  0.3600E+02
    -35.611  0.0000E+00  0.0000E+00  0.3600E+02  0.3600E+02
    -35.342  0.0000E+00  0.0000E+00  0.3600E+02  0.3600E+02
    -35.072  0.0000E+00  0.0000E+00  0.3600E+02  0.3600E+02
    -34.803  0.0000E+00  0.0000E+00  0.3600E+02  0.3600E+02
    -34.534  0.0000E+00  0.0000E+00  0.3600E+02  0.3600E+02
    -34.264  0.0000E+00  0.0000E+00  0.3600E+02  0.3600E+02
    -33.995  0.0000E+00  0.0000E+00  0.3600E+02  0.3600E+02
    -33.726  0.0000E+00  0.0000E+00  0.3600E+02  0.3600E+02
    -33.457  0.0000E+00  0.0000E+00  0.3600E+02  0.3600E+02
    -33.187  0.0000E+00  0.0000E+00  0.3600E+02  0.3600E+02
    -32.918  0.0000E+00  0.0000E+00  0.3600E+02  0.3600E+02
    -32.649  0.0000E+00  0.0000E+00  0.3600E+02  0.3600E+02
    -32.380  0.0000E+00  0.0000E+00  0.3600E+02  0.3600E+02
    -32.110  0.0000E+00  0.0000E+00  0.3600E+02  0.3600E+02
    -31.841  0.0000E+00  0.0000E+00  0.3600E+02  0.3600E+02
    -31.572  0.0000E+00  0.0000E+00  0.3600E+02  0.3600E+02
    -31.303  0.0000E+00  0.0000E+00  0.3600E+02  0.3600E+02
    -31.033  0.0000E+00  0.0000E+00  0.3600E+02  0.3600E+02
    -30.764  0.0000E+00  0.0000E+00  0.3600E+02  0.3600E+02
    -30.495  0.0000E+00  0.0000E+00  0.3600E+02  0.3600E+02
    -30.226  0.0000E+00  0.0000E+00  0.3600E+02  0.3600E+02
    -29.956  0.0000E+00  0.0000E+00  0.3600E+02  0.3600E+02
    -29.687  0.0000E+00  0.0000E+00  0.3600E+02  0.3600E+02
    -29.418  0.0000E+00  0.0000E+00  0.3600E+02  0.3600E+02
    -29.148  0.0000E+00  0.0000E+00  0.3600E+02  0.3600E+02
    -28.879  0.0000E+00  0.0000E+00  0.3600E+02  0.3600E+02
    -28.610  0.0000E+00  0.0000E+00  0.3600E+02  0.3600E+02
    -28.341  0.0000E+00  0.0000E+00  0.3600E+02  0.3600E+02
    -28.071  0.0000E+00  0.0000E+00  0.3600E+02  0.3600E+02
    -27.802  0.0000E+00  0.0000E+00  0.3600E+02  0.3600E+02
    -27.533  0.0000E+00  0.0000E+00  0.3600E+02  0.3600E+02
    -27.264  0.0000E+00  0.0000E+00  0.3600E+02  0.3600E+02
    -26.994  0.0000E+00  0.0000E+00  0.3600E+02  0.3600E+02
    -26.725  0.0000E+00  0.0000E+00  0.3600E+02  0.3600E+02
    -26.456  0.0000E+00  0.0000E+00  0.3600E+02  0.3600E+02
    -26.187  0.0000E+00  0.0000E+00  0.3600E+02  0.3600E+02
    -25.917  0.0000E+00  0.0000E+00  0.3600E+02  0.3600E+02
    -25.648  0.0000E+00  0.0000E+00  0.3600E+02  0.3600E+02
    -25.379  0.0000E+00  0.0000E+00  0.3600E+02  0.3600E+02
    -25.109  0.0000E+00  0.0000E+00  0.3600E+02  0.3600E+02
    -24.840  0.0000E+00  0.0000E+00  0.3600E+02  0.3600E+02
    -24.571  0.0000E+00  0.0000E+00  0.3600E+02  0.3600E+02
    -24.302  0.0000E+00  0.0000E+00  0.3600E+02  0.3600E+02
    -24.032  0.0000E+00  0.0000E+00  0.3600E+02  0.3600E+02
    -23.763  0.0000E+00  0.0000E+00  0.3600E+02  0.3600E+02
    -23.494  0.0000E+00  0.0000E+00  0.3600E+02  0.3600E+02
    -23.225  0.0000E+00  0.0000E+00  0.3600E+02  0.3600E+02
    -22.955  0.0000E+00  0.0000E+00  0.3600E+02  0.3600E+02
    -22.686  0.0000E+00  0.0000E+00  0.3600E+02  0.3600E+02
    -22.417  0.0000E+00  0.0000E+00  0.3600E+02  0.3600E+02
    -22.148  0.0000E+00  0.0000E+00  0.3600E+02  0.3600E+02
    -21.878  0.0000E+00  0.0000E+00  0.3600E+02  0.3600E+02
    -21.609  0.0000E+00  0.0000E+00  0.3600E+02  0.3600E+02
    -21.340  0.0000E+00  0.0000E+00  0.3600E+02  0.3600E+02
    -21.070  0.0000E+00  0.0000E+00  0.3600E+02  0.3600E+02
    -20.801  0.0000E+00  0.0000E+00  0.3600E+02  0.3600E+02
    -20.532  0.0000E+00  0.0000E+00  0.3600E+02  0.3600E+02
    -20.263  0.0000E+00  0.0000E+00  0.3600E+02  0.3600E+02
    -19.993  0.0000E+00  0.0000E+00  0.3600E+02  0.3600E+02
    -19.724  0.0000E+00  0.0000E+00  0.3600E+02  0.3600E+02
    -19.455  0.0000E+00  0.0000E+00  0.3600E+02  0.3600E+02
    -19.186  0.0000E+00  0.0000E+00  0.3600E+02  0.3600E+02
    -18.916  0.0000E+00  0.0000E+00  0.3600E+02  0.3600E+02
    -18.647  0.0000E+00  0.0000E+00  0.3600E+02  0.3600E+02
    -18.378  0.0000E+00  0.0000E+00  0.3600E+02  0.3600E+02
    -18.109  0.0000E+00  0.0000E+00  0.3600E+02  0.3600E+02
    -17.839  0.0000E+00  0.0000E+00  0.3600E+02  0.3600E+02
    -17.570  0.0000E+00  0.0000E+00  0.3600E+02  0.3600E+02
    -17.301  0.0000E+00  0.0000E+00  0.3600E+02  0.3600E+02
    -17.031  0.0000E+00  0.0000E+00  0.3600E+02  0.3600E+02
    -16.762  0.0000E+00  0.0000E+00  0.3600E+02  0.3600E+02
    -16.493  0.0000E+00  0.0000E+00  0.3600E+02  0.3600E+02
    -16.224  0.0000E+00  0.0000E+00  0.3600E+02  0.3600E+02
    -15.954  0.0000E+00  0.0000E+00  0.3600E+02  0.3600E+02
    -15.685  0.0000E+00  0.0000E+00  0.3600E+02  0.3600E+02
    -15.416  0.0000E+00  0.0000E+00  0.3600E+02  0.3600E+02
    -15.147  0.0000E+00  0.0000E+00  0.3600E+02  0.3600E+02
    -14.877  0.0000E+00  0.0000E+00  0.3600E+02  0.3600E+02
    -14.608  0.0000E+00  0.0000E+00  0.3600E+02  0.3600E+02
    -14.339  0.0000E+00  0.0000E+00  0.3600E+02  0.3600E+02
    -14.070  0.0000E+00  0.0000E+00  0.3600E+02  0.3600E+02
    -13.800  0.0000E+00  0.0000E+00  0.3600E+02  0.3600E+02
    -13.531  0.0000E+00  0.0000E+00  0.3600E+02  0.3600E+02
    -13.262  0.0000E+00  0.0000E+00  0.3600E+02  0.3600E+02
    -12.993  0.0000E+00  0.0000E+00  0.3600E+02  0.3600E+02
    -12.723  0.0000E+00  0.0000E+00  0.3600E+02  0.3600E+02
    -12.454  0.0000E+00  0.0000E+00  0.3600E+02  0.3600E+02
    -12.185  0.0000E+00  0.0000E+00  0.3600E+02  0.3600E+02
    -11.915  0.0000E+00  0.0000E+00  0.3600E+02  0.3600E+02
    -11.646  0.0000E+00  0.0000E+00  0.3600E+02  0.3600E+02
    -11.377  0.0000E+00  0.0000E+00  0.3600E+02  0.3600E+02
    -11.108  0.0000E+00  0.0000E+00  0.3600E+02  0.3600E+02
    -10.838  0.0000E+00  0.0000E+00  0.3600E+02  0.3600E+02
    -10.569  0.0000E+00  0.0000E+00  0.3600E+02  0.3600E+02
    -10.300  0.0000E+00  0.0000E+00  0.3600E+02  0.3600E+02
    -10.031  0.0000E+00  0.0000E+00  0.3600E+02  0.3600E+02
     -9.761  0.0000E+00  0.0000E+00  0.3600E+02  0.3600E+02
     -9.492  0.0000E+00  0.0000E+00  0.3600E+02  0.3600E+02
     -9.223  0.0000E+00  0.0000E+00  0.3600E+02  0.3600E+02
     -8.954  0.0000E+00  0.0000E+00  0.3600E+02  0.3600E+02
     -8.684  0.0000E+00  0.0000E+00  0.3600E+02  0.3600E+02
     -8.415  0.0000E+00  0.0000E+00  0.3600E+02  0.3600E+02
     -8.146  0.0000E+00  0.0000E+00  0.3600E+02  0.3600E+02
     -7.876  0.0000E+00  0.0000E+00  0.3600E+02  0.3600E+02
     -7.607  0.0000E+00  0.0000E+00  0.3600E+02  0.3600E+02
     -7.338  0.0000E+00  0.0000E+00  0.3600E+02  0.3600E+02
     -7.069  0.0000E+00  0.0000E+00  0.3600E+02  0.3600E+02
     -6.799  0.0000E+00  0.0000E+00  0.3600E+02  0.3600E+02
     -6.530  0.0000E+00  0.0000E+00  0.3600E+02  0.3600E+02
     -6.261  0.0000E+00  0.0000E+00  0.3600E+02  0.3600E+02
     -5.992  0.0000E+00  0.0000E+00  0.3600E+02  0.3600E+02
     -5.722  0.0000E+00  0.0000E+00  0.3600E+02  0.3600E+02
     -5.453  0.0000E+00  0.0000E+00  0.3600E+02  0.3600E+02
     -5.184  0.0000E+00  0.0000E+00  0.3600E+02  0.3600E+02
     -4.915  0.0000E+00  0.0000E+00  0.3600E+02  0.3600E+02
     -4.645  0.0000E+00  0.0000E+00  0.3600E+02  0.3600E+02
     -4.376  0.0000E+00  0.0000E+00  0.3600E+02  0.3600E+02
     -4.107  0.0000E+00  0.0000E+00  0.3600E+02  0.3600E+02
     -3.837  0.0000E+00  0.0000E+00  0.3600E+02  0.3600E+02
     -3.568  0.0000E+00  0.0000E+00  0.3600E+02  0.3600E+02
     -3.299  0.0000E+00  0.0000E+00  0.3600E+02  0.3600E+02
     -3.030  0.0000E+00  0.0000E+00  0.3600E+02  0.3600E+02
     -2.760  0.6244E-05  0.5658E-05  0.3600E+02  0.3600E+02
     -2.491  0.1366E-02  0.1242E-02  0.3600E+02  0.3600E+02
     -2.222  0.7490E-01  0.7195E-01  0.3602E+02  0.3602E+02
     -1.953  0.4123E+00  0.4092E+00  0.3613E+02  0.3613E+02
     -1.683  0.6256E+00  0.6274E+00  0.3630E+02  0.3630E+02
     -1.414  0.9016E+00  0.9074E+00  0.3655E+02  0.3655E+02
     -1.145  0.1472E+01  0.1489E+01  0.3695E+02  0.3695E+02
     -0.876  0.2157E+01  0.2171E+01  0.3753E+02  0.3754E+02
     -0.606  0.2674E+01  0.2605E+01  0.3826E+02  0.3825E+02
     -0.337  0.3213E+01  0.3112E+01  0.3914E+02  0.3910E+02
     -0.068  0.2045E+01  0.2124E+01  0.3971E+02  0.3969E+02
      0.201  0.9841E+00  0.1050E+01  0.3998E+02  0.3998E+02
      0.471  0.5391E-01  0.5421E-01  0.4000E+02  0.4000E+02
      0.740  0.0000E+00  0.0000E+00  0.4000E+02  0.4000E+02
      1.009  0.0000E+00  0.0000E+00  0.4000E+02  0.4000E+02
      1.279  0.0000E+00  0.0000E+00  0.4000E+02  0.4000E+02
      1.548  0.0000E+00  0.0000E+00  0.4000E+02  0.4000E+02
      1.817  0.0000E+00  0.0000E+00  0.4000E+02  0.4000E+02
      2.086  0.0000E+00  0.0000E+00  0.4000E+02  0.4000E+02
      2.356  0.0000E+00  0.0000E+00  0.4000E+02  0.4000E+02
      2.625  0.0000E+00  0.0000E+00  0.4000E+02  0.4000E+02
      2.894  0.0000E+00  0.0000E+00  0.4000E+02  0.4000E+02
      3.163  0.6954E-07  0.0000E+00  0.4000E+02  0.4000E+02
      3.433  0.2010E-04  0.5846E-06  0.4000E+02  0.4000E+02
      3.702  0.4222E-02  0.1486E-03  0.4000E+02  0.4000E+02
      3.971  0.1733E+00  0.1915E-01  0.4005E+02  0.4001E+02
      4.240  0.2078E+01  0.2726E+00  0.4061E+02  0.4008E+02
      4.510  0.3402E+01  0.2075E+01  0.4153E+02  0.4064E+02
      4.779  0.4078E+01  0.2994E+01  0.4263E+02  0.4145E+02
      5.048  0.4531E+01  0.3509E+01  0.4387E+02  0.4240E+02
      5.318  0.3648E+01  0.4469E+01  0.4487E+02  0.4362E+02
      5.587  0.2917E+01  0.3279E+01  0.4567E+02  0.4452E+02
      5.856  0.3447E+01  0.3210E+01  0.4660E+02  0.4539E+02
      6.125  0.4389E+01  0.2266E+01  0.4779E+02  0.4602E+02
      6.395  0.4694E+01  0.3847E+01  0.4907E+02  0.4706E+02
      6.664  0.6148E+01  0.3748E+01  0.5075E+02  0.4809E+02
      6.933  0.4412E+01  0.5032E+01  0.5195E+02  0.4945E+02
      7.202  0.1203E+01  0.6302E+01  0.5230E+02  0.5116E+02
      7.472  0.3861E+01  0.2977E+01  0.5334E+02  0.5199E+02
      7.741  0.6879E+01  0.2889E+00  0.5520E+02  0.5208E+02
      8.010  0.9588E+01  0.9875E+00  0.5780E+02  0.5235E+02
      8.279  0.9356E+01  0.2470E+01  0.6036E+02  0.5301E+02
      8.549  0.1124E+02  0.5179E+01  0.6341E+02  0.5441E+02
      8.818  0.1023E+02  0.5688E+01  0.6621E+02  0.5596E+02
      9.087  0.7821E+01  0.8177E+01  0.6836E+02  0.5817E+02
      9.357  0.1065E+02  0.7597E+01  0.7126E+02  0.6026E+02
      9.626  0.1178E+02  0.1054E+02  0.7446E+02  0.6312E+02
      9.895  0.9829E+01  0.9543E+01  0.7716E+02  0.6574E+02
     10.164  0.8974E+01  0.7141E+01  0.7960E+02  0.6770E+02
     10.434  0.7219E+01  0.4110E+01  0.8159E+02  0.6884E+02
     10.703  0.1011E+02  0.9406E+01  0.8433E+02  0.7139E+02
     10.972  0.1124E+02  0.1090E+02  0.8739E+02  0.7435E+02
     11.241  0.1112E+02  0.8601E+01  0.9043E+02  0.7672E+02
     11.511  0.1309E+02  0.8859E+01  0.9400E+02  0.7913E+02
     11.780  0.1376E+02  0.5359E+01  0.9776E+02  0.8061E+02
     12.049  0.1131E+02  0.7508E+01  0.1008E+03  0.8265E+02
     12.318  0.5800E+01  0.8562E+01  0.1025E+03  0.8498E+02
     12.588  0.4770E+01  0.9314E+01  0.1038E+03  0.8752E+02
     12.857  0.3107E+01  0.1049E+02  0.1046E+03  0.9038E+02
     13.126  0.2938E+01  0.1178E+02  0.1054E+03  0.9359E+02
     13.396  0.3059E+01  0.1206E+02  0.1063E+03  0.9688E+02
     13.665  0.3188E+01  0.1304E+02  0.1071E+03  0.1004E+03
     13.934  0.2382E+01  0.8394E+01  0.1078E+03  0.1027E+03
     14.203  0.3093E+01  0.5402E+01  0.1086E+03  0.1042E+03
     14.473  0.2737E+01  0.4075E+01  0.1094E+03  0.1054E+03
     14.742  0.2346E+01  0.4356E+01  0.1100E+03  0.1065E+03
     15.011  0.2626E+01  0.3196E+01  0.1107E+03  0.1074E+03
     15.280  0.2731E+01  0.3540E+01  0.1115E+03  0.1084E+03
     15.550  0.2178E+01  0.3624E+01  0.1121E+03  0.1094E+03
     15.819  0.5941E+00  0.2296E+01  0.1122E+03  0.1100E+03
     16.088  0.1581E+01  0.3400E+01  0.1127E+03  0.1109E+03
     16.357  0.1272E+01  0.3126E+01  0.1130E+03  0.1118E+03
     16.627  0.2533E+01  0.1402E+01  0.1137E+03  0.1122E+03
     16.896  0.1782E+01  0.1207E+01  0.1142E+03  0.1125E+03
     17.165  0.1520E+01  0.1703E+01  0.1146E+03  0.1129E+03
     17.434  0.2518E+01  0.2481E+01  0.1153E+03  0.1136E+03
     17.704  0.2742E+01  0.2325E+01  0.1160E+03  0.1143E+03
     17.973  0.2091E+01  0.2179E+01  0.1166E+03  0.1149E+03
     18.242  0.2250E+01  0.2946E+01  0.1172E+03  0.1157E+03
     18.512  0.2061E+01  0.2505E+01  0.1178E+03  0.1163E+03
     18.781  0.1179E+01  0.2165E+01  0.1181E+03  0.1169E+03
     19.050  0.8732E+00  0.2728E+01  0.1183E+03  0.1177E+03
     19.319  0.1469E+01  0.1454E+01  0.1187E+03  0.1181E+03
     19.589  0.1256E+01  0.8665E+00  0.1191E+03  0.1183E+03
     19.858  0.1326E+01  0.1216E+01  0.1195E+03  0.1186E+03
     20.127  0.1062E+01  0.1545E+01  0.1197E+03  0.1191E+03
     20.396  0.1070E+01  0.9884E+00  0.1200E+03  0.1193E+03
     20.666  0.1703E+01  0.1327E+01  0.1205E+03  0.1197E+03
     20.935  0.2280E+01  0.1154E+01  0.1211E+03  0.1200E+03
     21.204  0.2576E+01  0.1704E+01  0.1218E+03  0.1205E+03
     21.473  0.1319E+01  0.2377E+01  0.1222E+03  0.1211E+03
     21.743  0.1988E+01  0.2413E+01  0.1227E+03  0.1218E+03
     22.012  0.3054E+01  0.1407E+01  0.1236E+03  0.1222E+03
     22.281  0.2813E+01  0.1908E+01  0.1243E+03  0.1227E+03
     22.551  0.2050E+01  0.3028E+01  0.1249E+03  0.1235E+03
     22.820  0.1323E+01  0.2840E+01  0.1252E+03  0.1243E+03
     23.089  0.1992E+01  0.2312E+01  0.1258E+03  0.1249E+03
     23.358  0.2592E+01  0.1274E+01  0.1265E+03  0.1253E+03
     23.628  0.3006E+01  0.1994E+01  0.1273E+03  0.1258E+03
     23.897  0.2071E+01  0.2685E+01  0.1279E+03  0.1265E+03
     24.166  0.1936E+01  0.3076E+01  0.1284E+03  0.1274E+03
     24.435  0.1966E+01  0.2265E+01  0.1289E+03  0.1280E+03
     24.705  0.2962E+01  0.1896E+01  0.1297E+03  0.1285E+03
     24.974  0.3887E+01  0.2531E+01  0.1308E+03  0.1292E+03
     25.243  0.2649E+01  0.2946E+01  0.1315E+03  0.1300E+03
     25.512  0.2221E+01  0.4039E+01  0.1321E+03  0.1311E+03
     25.782  0.2130E+01  0.2571E+01  0.1327E+03  0.1318E+03
     26.051  0.2687E+01  0.2054E+01  0.1334E+03  0.1324E+03
     26.320  0.2704E+01  0.2710E+01  0.1342E+03  0.1331E+03
     26.590  0.2706E+01  0.2511E+01  0.1349E+03  0.1338E+03
     26.859  0.2932E+01  0.3113E+01  0.1357E+03  0.1346E+03
     27.128  0.2423E+01  0.2842E+01  0.1364E+03  0.1354E+03
     27.397  0.2594E+01  0.2439E+01  0.1371E+03  0.1361E+03
     27.667  0.2229E+01  0.2811E+01  0.1377E+03  0.1369E+03
     27.936  0.3051E+01  0.2314E+01  0.1385E+03  0.1375E+03
     28.205  0.3049E+01  0.2581E+01  0.1394E+03  0.1382E+03
     28.474  0.2382E+01  0.3348E+01  0.1400E+03  0.1391E+03
     28.744  0.2670E+01  0.2409E+01  0.1407E+03  0.1398E+03
     29.013  0.2081E+01  0.2747E+01  0.1413E+03  0.1405E+03
     29.282  0.2761E+01  0.2254E+01  0.1421E+03  0.1411E+03
     29.551  0.2691E+01  0.2553E+01  0.1428E+03  0.1418E+03
     29.821  0.2232E+01  0.2848E+01  0.1434E+03  0.1426E+03
     30.090  0.1409E+01  0.2504E+01  0.1438E+03  0.1433E+03
     30.359  0.5812E+00  0.1748E+01  0.1440E+03  0.1437E+03
     30.628  0.9404E-01  0.6200E+00  0.1440E+03  0.1439E+03
     30.898  0.2689E-01  0.2031E+00  0.1440E+03  0.1440E+03
     31.167  0.0000E+00  0.5020E-01  0.1440E+03  0.1440E+03
     31.436  0.0000E+00  0.0000E+00  0.1440E+03  0.1440E+03
     31.706  0.0000E+00  0.0000E+00  0.1440E+03  0.1440E+03
     31.975  0.0000E+00  0.0000E+00  0.1440E+03  0.1440E+03
     32.244  0.0000E+00  0.0000E+00  0.1440E+03  0.1440E+03
     32.513  0.0000E+00  0.0000E+00  0.1440E+03  0.1440E+03
     32.783  0.0000E+00  0.0000E+00  0.1440E+03  0.1440E+03
     33.052  0.0000E+00  0.0000E+00  0.1440E+03  0.1440E+03
     33.321  0.0000E+00  0.0000E+00  0.1440E+03  0.1440E+03
     33.590  0.0000E+00  0.0000E+00  0.1440E+03  0.1440E+03
     33.860  0.0000E+00  0.0000E+00  0.1440E+03  0.1440E+03
     34.129  0.0000E+00  0.0000E+00  0.1440E+03  0.1440E+03
     34.398  0.0000E+00  0.0000E+00  0.1440E+03  0.1440E+03
     34.667  0.0000E+00  0.0000E+00  0.1440E+03  0.1440E+03
     34.66747639    -46.11217101  301     12.07918234      1.00000000
    -46.112  0.0000E+00  0.0000E+00  0.0000E+00  0.0000E+00  0.0000E+00  0.0000E+00  0.0000E+00  0.0000E+00  0.0000E+00  0.0000E+00  0.0000E+00  0.0000E+00  0.0000E+00  0.0000E+00  0.0000E+00  0.0000E+00  0.0000E+00  0.0000E+00
    -45.843  0.0000E+00  0.0000E+00  0.0000E+00  0.0000E+00  0.0000E+00  0.0000E+00  0.0000E+00  0.0000E+00  0.0000E+00  0.0000E+00  0.0000E+00  0.0000E+00  0.0000E+00  0.0000E+00  0.0000E+00  0.0000E+00  0.0000E+00  0.0000E+00
    -45.574  0.0000E+00  0.0000E+00  0.0000E+00  0.0000E+00  0.0000E+00  0.0000E+00  0.0000E+00  0.0000E+00  0.0000E+00  0.0000E+00  0.0000E+00  0.0000E+00  0.0000E+00  0.0000E+00  0.0000E+00  0.0000E+00  0.0000E+00  0.0000E+00
    -45.304  0.0000E+00  0.0000E+00  0.0000E+00  0.0000E+00  0.0000E+00  0.0000E+00  0.0000E+00  0.0000E+00  0.0000E+00  0.0000E+00  0.0000E+00  0.0000E+00  0.0000E+00  0.0000E+00  0.0000E+00  0.0000E+00  0.0000E+00  0.0000E+00
    -45.035  0.0000E+00  0.0000E+00  0.0000E+00  0.0000E+00  0.0000E+00  0.0000E+00  0.0000E+00  0.0000E+00  0.0000E+00  0.0000E+00  0.0000E+00  0.0000E+00  0.0000E+00  0.0000E+00  0.0000E+00  0.0000E+00  0.0000E+00  0.0000E+00
    -44.766  0.0000E+00  0.0000E+00  0.0000E+00  0.0000E+00  0.0000E+00  0.0000E+00  0.0000E+00  0.0000E+00  0.0000E+00  0.0000E+00  0.0000E+00  0.0000E+00  0.0000E+00  0.0000E+00  0.0000E+00  0.0000E+00  0.0000E+00  0.0000E+00
    -44.497  0.0000E+00  0.0000E+00  0.0000E+00  0.0000E+00  0.0000E+00  0.0000E+00  0.0000E+00  0.0000E+00  0.0000E+00  0.0000E+00  0.0000E+00  0.0000E+00  0.0000E+00  0.0000E+00  0.0000E+00  0.0000E+00  0.0000E+00  0.0000E+00
    -44.227  0.0000E+00  0.0000E+00  0.0000E+00  0.0000E+00  0.0000E+00  0.0000E+00  0.0000E+00  0.0000E+00  0.0000E+00  0.0000E+00  0.0000E+00  0.0000E+00  0.0000E+00  0.0000E+00  0.0000E+00  0.0000E+00  0.0000E+00  0.0000E+00
    -43.958  0.0000E+00  0.0000E+00  0.0000E+00  0.0000E+00  0.0000E+00  0.0000E+00  0.0000E+00  0.0000E+00  0.0000E+00  0.0000E+00  0.0000E+00  0.0000E+00  0.0000E+00  0.0000E+00  0.0000E+00  0.0000E+00  0.0000E+00  0.0000E+00
    -43.689  0.0000E+00  0.0000E+00  0.0000E+00  0.0000E+00  0.0000E+00  0.0000E+00  0.0000E+00  0.0000E+00  0.0000E+00  0.0000E+00  0.0000E+00  0.0000E+00  0.0000E+00  0.0000E+00  0.0000E+00  0.0000E+00  0.0000E+00  0.0000E+00
    -43.420  0.0000E+00  0.0000E+00  0.0000E+00  0.0000E+00  0.0000E+00  0.0000E+00  0.0000E+00  0.0000E+00  0.0000E+00  0.0000E+00  0.0000E+00  0.0000E+00  0.0000E+00  0.0000E+00  0.0000E+00  0.0000E+00  0.0000E+00  0.0000E+00
    -43.150  0.0000E+00  0.0000E+00  0.0000E+00  0.0000E+00  0.0000E+00  0.0000E+00  0.0000E+00  0.0000E+00  0.0000E+00  0.0000E+00  0.0000E+00  0.0000E+00  0.0000E+00  0.0000E+00  0.0000E+00  0.0000E+00  0.0000E+00  0.0000E+00
    -42.881  0.2383E-08  0.0000E+00  0.7027E-04  0.0000E+00  0.1158E-05  0.0000E+00  0.5171E-04  0.0000E+00  0.6247E-09  0.0000E+00  0.2157E-09  0.0000E+00  0.5103E-09  0.0000E+00  0.1966E-09  0.0000E+00  0.1958E-08  0.0000E+00
    -42.612  0.5251E-06  0.0000E+00  0.1518E-01  0.0000E+00  0.3269E-03  0.0000E+00  0.1123E-01  0.0000E+00  0.1376E-06  0.0000E+00  0.5709E-07  0.0000E+00  0.1145E-06  0.0000E+00  0.4769E-07  0.0000E+00  0.4282E-06  0.0000E+00
    -42.342  0.4721E-04  0.0000E+00  0.9636E+00  0.0000E+00  0.5652E-01  0.0000E+00  0.8883E+00  0.0000E+00  0.1088E-04  0.0000E+00  0.7569E-05  0.0000E+00  0.9869E-05  0.0000E+00  0.6571E-05  0.0000E+00  0.2885E-04  0.0000E+00
    -42.073  0.2072E-03  0.0000E+00  0.1914E+01  0.0000E+00  0.9857E+00  0.0000E+00  0.2018E+01  0.0000E+00  0.5033E-04  0.0000E+00  0.9435E-04  0.0000E+00  0.6414E-04  0.0000E+00  0.6485E-04  0.0000E+00  0.8411E-04  0.0000E+00
    -41.804  0.1521E-03  0.0000E+00  0.7566E+00  0.0000E+00  0.2226E+01  0.0000E+00  0.7196E+00  0.0000E+00  0.5469E-04  0.0000E+00  0.1208E-03  0.0000E+00  0.9045E-04  0.0000E+00  0.8427E-04  0.0000E+00  0.4650E-04  0.0000E+00
    -41.535  0.1070E-04  0.0000E+00  0.2096E-01  0.0000E+00  0.3830E+00  0.0000E+00  0.2649E-01  0.0000E+00  0.1009E-04  0.0000E+00  0.1589E-04  0.0000E+00  0.1162E-04  0.0000E+00  0.1484E-04  0.0000E+00  0.6112E-05  0.0000E+00
    -41.265  0.0000E+00  0.1497E-09  0.0000E+00  0.8212E-06  0.0000E+00  0.3808E-07  0.0000E+00  0.8852E-06  0.0000E+00  0.2213E-10  0.0000E+00  0.2304E-10  0.0000E+00  0.4240E-10  0.0000E+00  0.4586E-10  0.0000E+00  0.5446E-10
    -40.996  0.0000E+00  0.4975E-07  0.0000E+00  0.2527E-03  0.0000E+00  0.1660E-04  0.0000E+00  0.2663E-03  0.0000E+00  0.9328E-08  0.0000E+00  0.1027E-07  0.0000E+00  0.1225E-07  0.0000E+00  0.1534E-07  0.0000E+00  0.1699E-07
    -40.727  0.0000E+00  0.9711E-05  0.0000E+00  0.4800E-01  0.0000E+00  0.3383E-02  0.0000E+00  0.5084E-01  0.0000E+00  0.1834E-05  0.0000E+00  0.2067E-05  0.0000E+00  0.2272E-05  0.0000E+00  0.3016E-05  0.0000E+00  0.3218E-05
    -40.458  0.0000E+00  0.1659E-03  0.0000E+00  0.9304E+00  0.0000E+00  0.9596E-01  0.0000E+00  0.9933E+00  0.0000E+00  0.3962E-04  0.0000E+00  0.6459E-04  0.0000E+00  0.4133E-04  0.0000E+00  0.5327E-04  0.0000E+00  0.6419E-04
    -40.188  0.0000E+00  0.2084E-03  0.0000E+00  0.1024E+01  0.0000E+00  0.3589E+00  0.0000E+00  0.1160E+01  0.0000E+00  0.4265E-04  0.0000E+00  0.1270E-03  0.0000E+00  0.7874E-04  0.0000E+00  0.6963E-04  0.0000E+00  0.6653E-04
    -39.919  0.0000E+00  0.9382E-04  0.0000E+00  0.1501E+01  0.0000E+00  0.2161E+01  0.0000E+00  0.1317E+01  0.0000E+00  0.5444E-04  0.0000E+00  0.7090E-04  0.0000E+00  0.7257E-04  0.0000E+00  0.6102E-04  0.0000E+00  0.5038E-04
    -39.650  0.0000E+00  0.6633E-05  0.0000E+00  0.1518E+00  0.0000E+00  0.1054E+01  0.0000E+00  0.1322E+00  0.0000E+00  0.5871E-05  0.0000E+00  0.5795E-05  0.0000E+00  0.4945E-05  0.0000E+00  0.6065E-05  0.0000E+00  0.4637E-05
    -39.381  0.0000E+00  0.0000E+00  0.0000E+00  0.0000E+00  0.0000E+00  0.0000E+00  0.0000E+00  0.0000E+00  0.0000E+00  0.0000E+00  0.0000E+00  0.0000E+00  0.0000E+00  0.0000E+00  0.0000E+00  0.0000E+00  0.0000E+00  0.0000E+00
    -39.111  0.0000E+00  0.0000E+00  0.0000E+00  0.0000E+00  0.0000E+00  0.0000E+00  0.0000E+00  0.0000E+00  0.0000E+00  0.0000E+00  0.0000E+00  0.0000E+00  0.0000E+00  0.0000E+00  0.0000E+00  0.0000E+00  0.0000E+00  0.0000E+00
    -38.842  0.0000E+00  0.0000E+00  0.0000E+00  0.0000E+00  0.0000E+00  0.0000E+00  0.0000E+00  0.0000E+00  0.0000E+00  0.0000E+00  0.0000E+00  0.0000E+00  0.0000E+00  0.0000E+00  0.0000E+00  0.0000E+00  0.0000E+00  0.0000E+00
    -38.573  0.0000E+00  0.0000E+00  0.0000E+00  0.0000E+00  0.0000E+00  0.0000E+00  0.0000E+00  0.0000E+00  0.0000E+00  0.0000E+00  0.0000E+00  0.0000E+00  0.0000E+00  0.0000E+00  0.0000E+00  0.0000E+00  0.0000E+00  0.0000E+00
    -38.303  0.0000E+00  0.0000E+00  0.0000E+00  0.0000E+00  0.0000E+00  0.0000E+00  0.0000E+00  0.0000E+00  0.0000E+00  0.0000E+00  0.0000E+00  0.0000E+00  0.0000E+00  0.0000E+00  0.0000E+00  0.0000E+00  0.0000E+00  0.0000E+00
    -38.034  0.0000E+00  0.0000E+00  0.0000E+00  0.0000E+00  0.0000E+00  0.0000E+00  0.0000E+00  0.0000E+00  0.0000E+00  0.0000E+00  0.0000E+00  0.0000E+00  0.0000E+00  0.0000E+00  0.0000E+00  0.0000E+00  0.0000E+00  0.0000E+00
    -37.765  0.0000E+00  0.0000E+00  0.0000E+00  0.0000E+00  0.0000E+00  0.0000E+00  0.0000E+00  0.0000E+00  0.0000E+00  0.0000E+00  0.0000E+00  0.0000E+00  0.0000E+00  0.0000E+00  0.0000E+00  0.0000E+00  0.0000E+00  0.0000E+00
    -37.496  0.0000E+00  0.0000E+00  0.0000E+00  0.0000E+00  0.0000E+00  0.0000E+00  0.0000E+00  0.0000E+00  0.0000E+00  0.0000E+00  0.0000E+00  0.0000E+00  0.0000E+00  0.0000E+00  0.0000E+00  0.0000E+00  0.0000E+00  0.0000E+00
    -37.226  0.0000E+00  0.0000E+00  0.0000E+00  0.0000E+00  0.0000E+00  0.0000E+00  0.0000E+00  0.0000E+00  0.0000E+00  0.0000E+00  0.0000E+00  0.0000E+00  0.0000E+00  0.0000E+00  0.0000E+00  0.0000E+00  0.0000E+00  0.0000E+00
    -36.957  0.0000E+00  0.0000E+00  0.0000E+00  0.0000E+00  0.0000E+00  0.0000E+00  0.0000E+00  0.0000E+00  0.0000E+00  0.0000E+00  0.0000E+00  0.0000E+00  0.0000E+00  0.0000E+00  0.0000E+00  0.0000E+00  0.0000E+00  0.0000E+00
    -36.688  0.0000E+00  0.0000E+00  0.0000E+00  0.0000E+00  0.0000E+00  0.0000E+00  0.0000E+00  0.0000E+00  0.0000E+00  0.0000E+00  0.0000E+00  0.0000E+00  0.0000E+00  0.0000E+00  0.0000E+00  0.0000E+00  0.0000E+00  0.0000E+00
    -36.419  0.0000E+00  0.0000E+00  0.0000E+00  0.0000E+00  0.0000E+00  0.0000E+00  0.0000E+00  0.0000E+00  0.0000E+00  0.0000E+00  0.0000E+00  0.0000E+00  0.0000E+00  0.0000E+00  0.0000E+00  0.0000E+00  0.0000E+00  0.0000E+00
    -36.149  0.0000E+00  0.0000E+00  0.0000E+00  0.0000E+00  0.0000E+00  0.0000E+00  0.0000E+00  0.0000E+00  0.0000E+00  0.0000E+00  0.0000E+00  0.0000E+00  0.0000E+00  0.0000E+00  0.0000E+00  0.0000E+00  0.0000E+00  0.0000E+00
    -35.880  0.0000E+00  0.0000E+00  0.0000E+00  0.0000E+00  0.0000E+00  0.0000E+00  0.0000E+00  0.0000E+00  0.0000E+00  0.0000E+00  0.0000E+00  0.0000E+00  0.0000E+00  0.0000E+00  0.0000E+00  0.0000E+00  0.0000E+00  0.0000E+00
    -35.611  0.0000E+00  0.0000E+00  0.0000E+00  0.0000E+00  0.0000E+00  0.0000E+00  0.0000E+00  0.0000E+00  0.0000E+00  0.0000E+00  0.0000E+00  0.0000E+00  0.0000E+00  0.0000E+00  0.0000E+00  0.0000E+00  0.0000E+00  0.0000E+00
    -35.342  0.0000E+00  0.0000E+00  0.0000E+00  0.0000E+00  0.0000E+00  0.0000E+00  0.0000E+00  0.0000E+00  0.0000E+00  0.0000E+00  0.0000E+00  0.0000E+00  0.0000E+00  0.0000E+00  0.0000E+00  0.0000E+00  0.0000E+00  0.0000E+00
    -35.072  0.0000E+00  0.0000E+00  0.0000E+00  0.0000E+00  0.0000E+00  0.0000E+00  0.0000E+00  0.0000E+00  0.0000E+00  0.0000E+00  0.0000E+00  0.0000E+00  0.0000E+00  0.0000E+00  0.0000E+00  0.0000E+00  0.0000E+00  0.0000E+00
    -34.803  0.0000E+00  0.0000E+00  0.0000E+00  0.0000E+00  0.0000E+00  0.0000E+00  0.0000E+00  0.0000E+00  0.0000E+00  0.0000E+00  0.0000E+00  0.0000E+00  0.0000E+00  0.0000E+00  0.0000E+00  0.0000E+00  0.0000E+00  0.0000E+00
    -34.534  0.0000E+00  0.0000E+00  0.0000E+00  0.0000E+00  0.0000E+00  0.0000E+00  0.0000E+00  0.0000E+00  0.0000E+00  0.0000E+00  0.0000E+00  0.0000E+00  0.0000E+00  0.0000E+00  0.0000E+00  0.0000E+00  0.0000E+00  0.0000E+00
    -34.264  0.0000E+00  0.0000E+00  0.0000E+00  0.0000E+00  0.0000E+00  0.0000E+00  0.0000E+00  0.0000E+00  0.0000E+00  0.0000E+00  0.0000E+00  0.0000E+00  0.0000E+00  0.0000E+00  0.0000E+00  0.0000E+00  0.0000E+00  0.0000E+00
    -33.995  0.0000E+00  0.0000E+00  0.0000E+00  0.0000E+00  0.0000E+00  0.0000E+00  0.0000E+00  0.0000E+00  0.0000E+00  0.0000E+00  0.0000E+00  0.0000E+00  0.0000E+00  0.0000E+00  0.0000E+00  0.0000E+00  0.0000E+00  0.0000E+00
    -33.726  0.0000E+00  0.0000E+00  0.0000E+00  0.0000E+00  0.0000E+00  0.0000E+00  0.0000E+00  0.0000E+00  0.0000E+00  0.0000E+00  0.0000E+00  0.0000E+00  0.0000E+00  0.0000E+00  0.0000E+00  0.0000E+00  0.0000E+00  0.0000E+00
    -33.457  0.0000E+00  0.0000E+00  0.0000E+00  0.0000E+00  0.0000E+00  0.0000E+00  0.0000E+00  0.0000E+00  0.0000E+00  0.0000E+00  0.0000E+00  0.0000E+00  0.0000E+00  0.0000E+00  0.0000E+00  0.0000E+00  0.0000E+00  0.0000E+00
    -33.187  0.0000E+00  0.0000E+00  0.0000E+00  0.0000E+00  0.0000E+00  0.0000E+00  0.0000E+00  0.0000E+00  0.0000E+00  0.0000E+00  0.0000E+00  0.0000E+00  0.0000E+00  0.0000E+00  0.0000E+00  0.0000E+00  0.0000E+00  0.0000E+00
    -32.918  0.0000E+00  0.0000E+00  0.0000E+00  0.0000E+00  0.0000E+00  0.0000E+00  0.0000E+00  0.0000E+00  0.0000E+00  0.0000E+00  0.0000E+00  0.0000E+00  0.0000E+00  0.0000E+00  0.0000E+00  0.0000E+00  0.0000E+00  0.0000E+00
    -32.649  0.0000E+00  0.0000E+00  0.0000E+00  0.0000E+00  0.0000E+00  0.0000E+00  0.0000E+00  0.0000E+00  0.0000E+00  0.0000E+00  0.0000E+00  0.0000E+00  0.0000E+00  0.0000E+00  0.0000E+00  0.0000E+00  0.0000E+00  0.0000E+00