   2   2   1   0
  0.1671192E+02  0.3221208E-09  0.3221208E-09  0.3221208E-09  0.5000000E-15
  1.000000000000000E-004
  CAR 
 unknown system                          
     17.56430357    -47.99634244  301      1.23575350      1.00000000
    -47.996  0.0000E+00  0.0000E+00  0.0000E+00  0.0000E+00
    -47.778  0.0000E+00  0.0000E+00  0.0000E+00  0.0000E+00
    -47.559  0.0000E+00  0.0000E+00  0.0000E+00  0.0000E+00
    -47.341  0.0000E+00  0.0000E+00  0.0000E+00  0.0000E+00
    -47.122  0.0000E+00  0.0000E+00  0.0000E+00  0.0000E+00
    -46.904  0.0000E+00  0.0000E+00  0.0000E+00  0.0000E+00
    -46.685  0.0000E+00  0.0000E+00  0.0000E+00  0.0000E+00
    -46.467  0.0000E+00  0.0000E+00  0.0000E+00  0.0000E+00
    -46.248  0.0000E+00  0.0000E+00  0.0000E+00  0.0000E+00
    -46.030  0.0000E+00  0.0000E+00  0.0000E+00  0.0000E+00
    -45.811  0.0000E+00  0.0000E+00  0.0000E+00  0.0000E+00
    -45.592  0.3024E-04  0.1786E-04  0.6609E-05  0.3904E-05
    -45.374  0.3375E-02  0.3056E-02  0.7442E-03  0.6718E-03
    -45.155  0.2579E+00  0.2335E+00  0.5710E-01  0.5169E-01
    -44.937  0.6060E+01  0.5883E+01  0.1381E+01  0.1337E+01
    -44.718  0.2778E+01  0.2974E+01  0.1989E+01  0.1987E+01
    -44.500  0.0000E+00  0.0000E+00  0.2000E+01  0.2000E+01
    -44.281  0.0000E+00  0.0000E+00  0.2000E+01  0.2000E+01
    -44.063  0.0000E+00  0.0000E+00  0.2000E+01  0.2000E+01
    -43.844  0.0000E+00  0.0000E+00  0.2000E+01  0.2000E+01
    -43.626  0.0000E+00  0.0000E+00  0.2000E+01  0.2000E+01
    -43.407  0.0000E+00  0.0000E+00  0.2000E+01  0.2000E+01
    -43.189  0.0000E+00  0.0000E+00  0.2000E+01  0.2000E+01
    -42.970  0.0000E+00  0.0000E+00  0.2000E+01  0.2000E+01
    -42.751  0.0000E+00  0.0000E+00  0.2000E+01  0.2000E+01
    -42.533  0.0000E+00  0.0000E+00  0.2000E+01  0.2000E+01
    -42.314  0.0000E+00  0.0000E+00  0.2000E+01  0.2000E+01
    -42.096  0.0000E+00  0.0000E+00  0.2000E+01  0.2000E+01
    -41.877  0.0000E+00  0.0000E+00  0.2000E+01  0.2000E+01
    -41.659  0.0000E+00  0.0000E+00  0.2000E+01  0.2000E+01
    -41.440  0.0000E+00  0.0000E+00  0.2000E+01  0.2000E+01
    -41.222  0.0000E+00  0.0000E+00  0.2000E+01  0.2000E+01
    -41.003  0.0000E+00  0.0000E+00  0.2000E+01  0.2000E+01
    -40.785  0.0000E+00  0.0000E+00  0.2000E+01  0.2000E+01
    -40.566  0.0000E+00  0.0000E+00  0.2000E+01  0.2000E+01
    -40.348  0.0000E+00  0.0000E+00  0.2000E+01  0.2000E+01
    -40.129  0.0000E+00  0.0000E+00  0.2000E+01  0.2000E+01
    -39.911  0.0000E+00  0.0000E+00  0.2000E+01  0.2000E+01
    -39.692  0.0000E+00  0.0000E+00  0.2000E+01  0.2000E+01
    -39.473  0.0000E+00  0.0000E+00  0.2000E+01  0.2000E+01
    -39.255  0.0000E+00  0.0000E+00  0.2000E+01  0.2000E+01
    -39.036  0.0000E+00  0.0000E+00  0.2000E+01  0.2000E+01
    -38.818  0.0000E+00  0.0000E+00  0.2000E+01  0.2000E+01
    -38.599  0.0000E+00  0.0000E+00  0.2000E+01  0.2000E+01
    -38.381  0.0000E+00  0.0000E+00  0.2000E+01  0.2000E+01
    -38.162  0.0000E+00  0.0000E+00  0.2000E+01  0.2000E+01
    -37.944  0.0000E+00  0.0000E+00  0.2000E+01  0.2000E+01
    -37.725  0.0000E+00  0.0000E+00  0.2000E+01  0.2000E+01
    -37.507  0.0000E+00  0.0000E+00  0.2000E+01  0.2000E+01
    -37.288  0.0000E+00  0.0000E+00  0.2000E+01  0.2000E+01
    -37.070  0.0000E+00  0.0000E+00  0.2000E+01  0.2000E+01
    -36.851  0.0000E+00  0.0000E+00  0.2000E+01  0.2000E+01
    -36.632  0.0000E+00  0.0000E+00  0.2000E+01  0.2000E+01
    -36.414  0.0000E+00  0.0000E+00  0.2000E+01  0.2000E+01
    -36.195  0.0000E+00  0.0000E+00  0.2000E+01  0.2000E+01
    -35.977  0.0000E+00  0.0000E+00  0.2000E+01  0.2000E+01
    -35.758  0.0000E+00  0.0000E+00  0.2000E+01  0.2000E+01
    -35.540  0.0000E+00  0.0000E+00  0.2000E+01  0.2000E+01
    -35.321  0.0000E+00  0.0000E+00  0.2000E+01  0.2000E+01
    -35.103  0.0000E+00  0.0000E+00  0.2000E+01  0.2000E+01
    -34.884  0.0000E+00  0.0000E+00  0.2000E+01  0.2000E+01
    -34.666  0.0000E+00  0.0000E+00  0.2000E+01  0.2000E+01
    -34.447  0.0000E+00  0.0000E+00  0.2000E+01  0.2000E+01
    -34.229  0.0000E+00  0.0000E+00  0.2000E+01  0.2000E+01
    -34.010  0.0000E+00  0.0000E+00  0.2000E+01  0.2000E+01
    -33.792  0.0000E+00  0.0000E+00  0.2000E+01  0.2000E+01
    -33.573  0.0000E+00  0.0000E+00  0.2000E+01  0.2000E+01
    -33.354  0.0000E+00  0.0000E+00  0.2000E+01  0.2000E+01
    -33.136  0.0000E+00  0.0000E+00  0.2000E+01  0.2000E+01
    -32.917  0.0000E+00  0.0000E+00  0.2000E+01  0.2000E+01
    -32.699  0.0000E+00  0.0000E+00  0.2000E+01  0.2000E+01
    -32.480  0.0000E+00  0.0000E+00  0.2000E+01  0.2000E+01
    -32.262  0.0000E+00  0.0000E+00  0.2000E+01  0.2000E+01
    -32.043  0.0000E+00  0.0000E+00  0.2000E+01  0.2000E+01
    -31.825  0.0000E+00  0.0000E+00  0.2000E+01  0.2000E+01
    -31.606  0.0000E+00  0.0000E+00  0.2000E+01  0.2000E+01
    -31.388  0.0000E+00  0.0000E+00  0.2000E+01  0.2000E+01
    -31.169  0.0000E+00  0.0000E+00  0.2000E+01  0.2000E+01
    -30.951  0.0000E+00  0.0000E+00  0.2000E+01  0.2000E+01
    -30.732  0.0000E+00  0.0000E+00  0.2000E+01  0.2000E+01
    -30.514  0.0000E+00  0.0000E+00  0.2000E+01  0.2000E+01
    -30.295  0.0000E+00  0.0000E+00  0.2000E+01  0.2000E+01
    -30.076  0.0000E+00  0.0000E+00  0.2000E+01  0.2000E+01
    -29.858  0.0000E+00  0.0000E+00  0.2000E+01  0.2000E+01
    -29.639  0.0000E+00  0.0000E+00  0.2000E+01  0.2000E+01
    -29.421  0.0000E+00  0.0000E+00  0.2000E+01  0.2000E+01
    -29.202  0.0000E+00  0.0000E+00  0.2000E+01  0.2000E+01
    -28.984  0.0000E+00  0.0000E+00  0.2000E+01  0.2000E+01
    -28.765  0.0000E+00  0.0000E+00  0.2000E+01  0.2000E+01
    -28.547  0.0000E+00  0.0000E+00  0.2000E+01  0.2000E+01
    -28.328  0.0000E+00  0.0000E+00  0.2000E+01  0.2000E+01
    -28.110  0.0000E+00  0.0000E+00  0.2000E+01  0.2000E+01
    -27.891  0.0000E+00  0.0000E+00  0.2000E+01  0.2000E+01
    -27.673  0.0000E+00  0.0000E+00  0.2000E+01  0.2000E+01
    -27.454  0.0000E+00  0.0000E+00  0.2000E+01  0.2000E+01
    -27.235  0.0000E+00  0.0000E+00  0.2000E+01  0.2000E+01
    -27.017  0.0000E+00  0.0000E+00  0.2000E+01  0.2000E+01
    -26.798  0.0000E+00  0.0000E+00  0.2000E+01  0.2000E+01
    -26.580  0.0000E+00  0.0000E+00  0.2000E+01  0.2000E+01
    -26.361  0.0000E+00  0.0000E+00  0.2000E+01  0.2000E+01
    -26.143  0.0000E+00  0.0000E+00  0.2000E+01  0.2000E+01
    -25.924  0.0000E+00  0.0000E+00  0.2000E+01  0.2000E+01
    -25.706  0.0000E+00  0.0000E+00  0.2000E+01  0.2000E+01
    -25.487  0.0000E+00  0.0000E+00  0.2000E+01  0.2000E+01
    -25.269  0.0000E+00  0.0000E+00  0.2000E+01  0.2000E+01
    -25.050  0.0000E+00  0.0000E+00  0.2000E+01  0.2000E+01
    -24.832  0.0000E+00  0.0000E+00  0.2000E+01  0.2000E+01
    -24.613  0.0000E+00  0.0000E+00  0.2000E+01  0.2000E+01
    -24.395  0.0000E+00  0.0000E+00  0.2000E+01  0.2000E+01
    -24.176  0.0000E+00  0.0000E+00  0.2000E+01  0.2000E+01
    -23.957  0.0000E+00  0.0000E+00  0.2000E+01  0.2000E+01
    -23.739  0.0000E+00  0.0000E+00  0.2000E+01  0.2000E+01
    -23.520  0.0000E+00  0.0000E+00  0.2000E+01  0.2000E+01
    -23.302  0.0000E+00  0.0000E+00  0.2000E+01  0.2000E+01
    -23.083  0.0000E+00  0.0000E+00  0.2000E+01  0.2000E+01
    -22.865  0.0000E+00  0.0000E+00  0.2000E+01  0.2000E+01
    -22.646  0.0000E+00  0.0000E+00  0.2000E+01  0.2000E+01
    -22.428  0.0000E+00  0.0000E+00  0.2000E+01  0.2000E+01
    -22.209  0.0000E+00  0.0000E+00  0.2000E+01  0.2000E+01
    -21.991  0.0000E+00  0.0000E+00  0.2000E+01  0.2000E+01
    -21.772  0.0000E+00  0.0000E+00  0.2000E+01  0.2000E+01
    -21.554  0.0000E+00  0.0000E+00  0.2000E+01  0.2000E+01
    -21.335  0.0000E+00  0.0000E+00  0.2000E+01  0.2000E+01
    -21.116  0.0000E+00  0.0000E+00  0.2000E+01  0.2000E+01
    -20.898  0.0000E+00  0.0000E+00  0.2000E+01  0.2000E+01
    -20.679  0.0000E+00  0.0000E+00  0.2000E+01  0.2000E+01
    -20.461  0.0000E+00  0.0000E+00  0.2000E+01  0.2000E+01
    -20.242  0.0000E+00  0.0000E+00  0.2000E+01  0.2000E+01
    -20.024  0.0000E+00  0.0000E+00  0.2000E+01  0.2000E+01
    -19.805  0.0000E+00  0.0000E+00  0.2000E+01  0.2000E+01
    -19.587  0.0000E+00  0.0000E+00  0.2000E+01  0.2000E+01
    -19.368  0.0000E+00  0.0000E+00  0.2000E+01  0.2000E+01
    -19.150  0.0000E+00  0.0000E+00  0.2000E+01  0.2000E+01
    -18.931  0.0000E+00  0.0000E+00  0.2000E+01  0.2000E+01
    -18.713  0.0000E+00  0.0000E+00  0.2000E+01  0.2000E+01
    -18.494  0.0000E+00  0.0000E+00  0.2000E+01  0.2000E+01
    -18.276  0.0000E+00  0.0000E+00  0.2000E+01  0.2000E+01
    -18.057  0.0000E+00  0.0000E+00  0.2000E+01  0.2000E+01
    -17.838  0.0000E+00  0.0000E+00  0.2000E+01  0.2000E+01
    -17.620  0.0000E+00  0.0000E+00  0.2000E+01  0.2000E+01
    -17.401  0.0000E+00  0.0000E+00  0.2000E+01  0.2000E+01
    -17.183  0.0000E+00  0.0000E+00  0.2000E+01  0.2000E+01
    -16.964  0.0000E+00  0.0000E+00  0.2000E+01  0.2000E+01
    -16.746  0.0000E+00  0.0000E+00  0.2000E+01  0.2000E+01
    -16.527  0.0000E+00  0.0000E+00  0.2000E+01  0.2000E+01
    -16.309  0.0000E+00  0.0000E+00  0.2000E+01  0.2000E+01
    -16.090  0.0000E+00  0.0000E+00  0.2000E+01  0.2000E+01
    -15.872  0.0000E+00  0.0000E+00  0.2000E+01  0.2000E+01
    -15.653  0.0000E+00  0.0000E+00  0.2000E+01  0.2000E+01
    -15.435  0.0000E+00  0.0000E+00  0.2000E+01  0.2000E+01
    -15.216  0.0000E+00  0.0000E+00  0.2000E+01  0.2000E+01
    -14.997  0.0000E+00  0.0000E+00  0.2000E+01  0.2000E+01
    -14.779  0.0000E+00  0.0000E+00  0.2000E+01  0.2000E+01
    -14.560  0.0000E+00  0.0000E+00  0.2000E+01  0.2000E+01
    -14.342  0.0000E+00  0.0000E+00  0.2000E+01  0.2000E+01
    -14.123  0.0000E+00  0.0000E+00  0.2000E+01  0.2000E+01
    -13.905  0.0000E+00  0.0000E+00  0.2000E+01  0.2000E+01
    -13.686  0.0000E+00  0.0000E+00  0.2000E+01  0.2000E+01
    -13.468  0.0000E+00  0.0000E+00  0.2000E+01  0.2000E+01
    -13.249  0.0000E+00  0.0000E+00  0.2000E+01  0.2000E+01
    -13.031  0.0000E+00  0.0000E+00  0.2000E+01  0.2000E+01
    -12.812  0.0000E+00  0.0000E+00  0.2000E+01  0.2000E+01
    -12.594  0.0000E+00  0.0000E+00  0.2000E+01  0.2000E+01
    -12.375  0.0000E+00  0.0000E+00  0.2000E+01  0.2000E+01
    -12.157  0.0000E+00  0.0000E+00  0.2000E+01  0.2000E+01
    -11.938  0.0000E+00  0.0000E+00  0.2000E+01  0.2000E+01
    -11.719  0.0000E+00  0.0000E+00  0.2000E+01  0.2000E+01
    -11.501  0.0000E+00  0.0000E+00  0.2000E+01  0.2000E+01
    -11.282  0.0000E+00  0.0000E+00  0.2000E+01  0.2000E+01
    -11.064  0.0000E+00  0.0000E+00  0.2000E+01  0.2000E+01
    -10.845  0.0000E+00  0.0000E+00  0.2000E+01  0.2000E+01
    -10.627  0.0000E+00  0.0000E+00  0.2000E+01  0.2000E+01
    -10.408  0.0000E+00  0.0000E+00  0.2000E+01  0.2000E+01
    -10.190  0.0000E+00  0.0000E+00  0.2000E+01  0.2000E+01
     -9.971  0.0000E+00  0.0000E+00  0.2000E+01  0.2000E+01
     -9.753  0.0000E+00  0.0000E+00  0.2000E+01  0.2000E+01
     -9.534  0.0000E+00  0.0000E+00  0.2000E+01  0.2000E+01
     -9.316  0.0000E+00  0.0000E+00  0.2000E+01  0.2000E+01
     -9.097  0.0000E+00  0.0000E+00  0.2000E+01  0.2000E+01
     -8.878  0.0000E+00  0.0000E+00  0.2000E+01  0.2000E+01
     -8.660  0.0000E+00  0.0000E+00  0.2000E+01  0.2000E+01
     -8.441  0.0000E+00  0.0000E+00  0.2000E+01  0.2000E+01
     -8.223  0.0000E+00  0.0000E+00  0.2000E+01  0.2000E+01
     -8.004  0.0000E+00  0.0000E+00  0.2000E+01  0.2000E+01
     -7.786  0.0000E+00  0.0000E+00  0.2000E+01  0.2000E+01
     -7.567  0.0000E+00  0.0000E+00  0.2000E+01  0.2000E+01
     -7.349  0.0000E+00  0.0000E+00  0.2000E+01  0.2000E+01
     -7.130  0.0000E+00  0.0000E+00  0.2000E+01  0.2000E+01
     -6.912  0.0000E+00  0.0000E+00  0.2000E+01  0.2000E+01
     -6.693  0.0000E+00  0.0000E+00  0.2000E+01  0.2000E+01
     -6.475  0.0000E+00  0.0000E+00  0.2000E+01  0.2000E+01
     -6.256  0.0000E+00  0.0000E+00  0.2000E+01  0.2000E+01
     -6.038  0.0000E+00  0.0000E+00  0.2000E+01  0.2000E+01
     -5.819  0.0000E+00  0.0000E+00  0.2000E+01  0.2000E+01
     -5.600  0.0000E+00  0.0000E+00  0.2000E+01  0.2000E+01
     -5.382  0.0000E+00  0.0000E+00  0.2000E+01  0.2000E+01
     -5.163  0.0000E+00  0.0000E+00  0.2000E+01  0.2000E+01
     -4.945  0.0000E+00  0.0000E+00  0.2000E+01  0.2000E+01
     -4.726  0.0000E+00  0.0000E+00  0.2000E+01  0.2000E+01
     -4.508  0.0000E+00  0.0000E+00  0.2000E+01  0.2000E+01
     -4.289  0.0000E+00  0.0000E+00  0.2000E+01  0.2000E+01
     -4.071  0.0000E+00  0.0000E+00  0.2000E+01  0.2000E+01
     -3.852  0.0000E+00  0.0000E+00  0.2000E+01  0.2000E+01
     -3.634  0.0000E+00  0.0000E+00  0.2000E+01  0.2000E+01
     -3.415  0.0000E+00  0.0000E+00  0.2000E+01  0.2000E+01
     -3.197  0.1064E-07  0.9701E-08  0.2000E+01  0.2000E+01
     -2.978  0.3524E-05  0.3214E-05  0.2000E+01  0.2000E+01
     -2.759  0.2815E-03  0.2570E-03  0.2000E+01  0.2000E+01
     -2.541  0.1329E-01  0.1250E-01  0.2003E+01  0.2003E+01
     -2.322  0.7137E-01  0.6999E-01  0.2019E+01  0.2018E+01
     -2.104  0.1148E+00  0.1144E+00  0.2044E+01  0.2043E+01
     -1.885  0.1563E+00  0.1555E+00  0.2078E+01  0.2077E+01
     -1.667  0.1672E+00  0.1674E+00  0.2115E+01  0.2114E+01
     -1.448  0.2082E+00  0.2065E+00  0.2160E+01  0.2159E+01
     -1.230  0.2130E+00  0.2143E+00  0.2207E+01  0.2206E+01
     -1.011  0.2245E+00  0.2218E+00  0.2256E+01  0.2255E+01
     -0.793  0.2792E+00  0.2796E+00  0.2317E+01  0.2316E+01
     -0.574  0.2393E+00  0.2392E+00  0.2370E+01  0.2369E+01
     -0.356  0.2731E+00  0.2736E+00  0.2430E+01  0.2429E+01
     -0.137  0.3137E+00  0.3108E+00  0.2499E+01  0.2498E+01
      0.081  0.3419E+00  0.3433E+00  0.2574E+01  0.2573E+01
      0.300  0.2574E+00  0.2582E+00  0.2632E+01  0.2631E+01
      0.519  0.3800E+00  0.3772E+00  0.2716E+01  0.2714E+01
      0.737  0.3852E+00  0.3859E+00  0.2800E+01  0.2798E+01
      0.956  0.4138E+00  0.4122E+00  0.2891E+01  0.2889E+01
      1.174  0.3920E+00  0.3927E+00  0.2977E+01  0.2975E+01
      1.393  0.3888E+00  0.3862E+00  0.3062E+01  0.3060E+01
      1.611  0.6174E+00  0.6189E+00  0.3198E+01  0.3196E+01
      1.830  0.5016E+00  0.4996E+00  0.3308E+01  0.3306E+01
      2.048  0.5054E+00  0.5075E+00  0.3419E+01  0.3417E+01
      2.267  0.3590E+00  0.3622E+00  0.3498E+01  0.3497E+01
      2.485  0.1951E+00  0.1928E+00  0.3541E+01  0.3540E+01
      2.704  0.5467E+00  0.5442E+00  0.3661E+01  0.3659E+01
      2.922  0.3398E+00  0.3448E+00  0.3735E+01  0.3735E+01
      3.141  0.1858E+00  0.1857E+00  0.3776E+01  0.3776E+01
      3.359  0.1835E+00  0.1856E+00  0.3817E+01  0.3816E+01
      3.578  0.9647E-01  0.9554E-01  0.3838E+01  0.3838E+01
      3.797  0.2029E+00  0.1985E+00  0.3883E+01  0.3881E+01
      4.015  0.2536E+00  0.2585E+00  0.3938E+01  0.3938E+01
      4.234  0.3813E-01  0.4127E-01  0.3948E+01  0.3947E+01
      4.452  0.6106E-01  0.5947E-01  0.3961E+01  0.3961E+01
      4.671  0.1391E+00  0.1397E+00  0.3991E+01  0.3991E+01
      4.889  0.2352E+00  0.2317E+00  0.4043E+01  0.4042E+01
      5.108  0.4760E+00  0.4693E+00  0.4147E+01  0.4145E+01
      5.326  0.5748E+00  0.5740E+00  0.4273E+01  0.4270E+01
      5.545  0.7870E+00  0.7893E+00  0.4446E+01  0.4444E+01
      5.763  0.3255E+00  0.3309E+00  0.4518E+01  0.4517E+01
      5.982  0.3668E+00  0.3609E+00  0.4599E+01  0.4596E+01
      6.200  0.7780E+00  0.7792E+00  0.4769E+01  0.4767E+01
      6.419  0.3264E+00  0.3298E+00  0.4841E+01  0.4840E+01
      6.638  0.2238E+00  0.2253E+00  0.4890E+01  0.4889E+01
      6.856  0.2709E+00  0.2667E+00  0.4950E+01  0.4948E+01
      7.075  0.6747E+00  0.6716E+00  0.5098E+01  0.5095E+01
      7.293  0.3587E+00  0.3659E+00  0.5177E+01  0.5176E+01
      7.512  0.2145E+00  0.2129E+00  0.5225E+01  0.5224E+01
      7.730  0.2580E+00  0.2606E+00  0.5281E+01  0.5281E+01
      7.949  0.3094E+00  0.3051E+00  0.5349E+01  0.5348E+01
      8.167  0.6150E+00  0.6141E+00  0.5484E+01  0.5482E+01
      8.386  0.5536E+00  0.5523E+00  0.5605E+01  0.5603E+01
      8.604  0.4834E+00  0.4867E+00  0.5711E+01  0.5710E+01
      8.823  0.4792E+00  0.4778E+00  0.5817E+01  0.5815E+01
      9.041  0.4514E+00  0.4536E+00  0.5916E+01  0.5914E+01
      9.260  0.6338E+00  0.6263E+00  0.6055E+01  0.6052E+01
      9.478  0.6691E+00  0.6746E+00  0.6202E+01  0.6200E+01
      9.697  0.4959E+00  0.4976E+00  0.6311E+01  0.6310E+01
      9.916  0.3962E+00  0.3956E+00  0.6399E+01  0.6397E+01
     10.134  0.4064E+00  0.4082E+00  0.6488E+01  0.6487E+01
     10.353  0.4458E+00  0.4427E+00  0.6586E+01  0.6585E+01
     10.571  0.6710E+00  0.6718E+00  0.6733E+01  0.6732E+01
     10.790  0.4660E+00  0.4664E+00  0.6835E+01  0.6834E+01
     11.008  0.3482E+00  0.3508E+00  0.6912E+01  0.6911E+01
     11.227  0.2868E+00  0.2869E+00  0.6976E+01  0.6975E+01
     11.445  0.3899E+00  0.3864E+00  0.7061E+01  0.7060E+01
     11.664  0.4624E+00  0.4630E+00  0.7163E+01  0.7161E+01
     11.882  0.6396E+00  0.6366E+00  0.7303E+01  0.7301E+01
     12.101  0.3900E+00  0.3947E+00  0.7389E+01  0.7388E+01
     12.319  0.1769E+00  0.1796E+00  0.7429E+01  0.7429E+01
     12.538  0.2731E+00  0.2712E+00  0.7489E+01  0.7488E+01
     12.757  0.4674E+00  0.4661E+00  0.7591E+01  0.7590E+01
     12.975  0.3336E+00  0.3350E+00  0.7665E+01  0.7664E+01
     13.194  0.3693E+00  0.3674E+00  0.7746E+01  0.7745E+01
     13.412  0.3757E+00  0.3785E+00  0.7829E+01  0.7828E+01
     13.631  0.1963E+00  0.1976E+00  0.7872E+01  0.7872E+01
     13.849  0.1713E+00  0.1690E+00  0.7910E+01  0.7909E+01
     14.068  0.1501E+00  0.1534E+00  0.7943E+01  0.7943E+01
     14.286  0.1274E+00  0.1272E+00  0.7971E+01  0.7971E+01
     14.505  0.7779E-01  0.7857E-01  0.7988E+01  0.7988E+01
     14.723  0.5162E-01  0.5157E-01  0.7999E+01  0.7999E+01
     14.942  0.2877E-02  0.2530E-02  0.8000E+01  0.8000E+01
     15.160  0.0000E+00  0.0000E+00  0.8000E+01  0.8000E+01
     15.379  0.0000E+00  0.0000E+00  0.8000E+01  0.8000E+01
     15.597  0.0000E+00  0.0000E+00  0.8000E+01  0.8000E+01
     15.816  0.0000E+00  0.0000E+00  0.8000E+01  0.8000E+01
     16.035  0.0000E+00  0.0000E+00  0.8000E+01  0.8000E+01
     16.253  0.0000E+00  0.0000E+00  0.8000E+01  0.8000E+01
     16.472  0.0000E+00  0.0000E+00  0.8000E+01  0.8000E+01
     16.690  0.0000E+00  0.0000E+00  0.8000E+01  0.8000E+01
     16.909  0.0000E+00  0.0000E+00  0.8000E+01  0.8000E+01
     17.127  0.0000E+00  0.0000E+00  0.8000E+01  0.8000E+01
     17.346  0.0000E+00  0.0000E+00  0.8000E+01  0.8000E+01
     17.564  0.0000E+00  0.0000E+00  0.8000E+01  0.8000E+01
     17.56430357    -47.99634244  301      1.23575350      1.00000000
    -47.996  0.0000E+00  0.0000E+00  0.0000E+00  0.0000E+00  0.0000E+00  0.0000E+00  0.0000E+00  0.0000E+00  0.0000E+00  0.0000E+00  0.0000E+00  0.0000E+00  0.0000E+00  0.0000E+00  0.0000E+00  0.0000E+00  0.0000E+00  0.0000E+00
    -47.778  0.0000E+00  0.0000E+00  0.0000E+00  0.0000E+00  0.0000E+00  0.0000E+00  0.0000E+00  0.0000E+00  0.0000E+00  0.0000E+00  0.0000E+00  0.0000E+00  0.0000E+00  0.0000E+00  0.0000E+00  0.0000E+00  0.0000E+00  0.0000E+00
    -47.559  0.0000E+00  0.0000E+00  0.0000E+00  0.0000E+00  0.0000E+00  0.0000E+00  0.0000E+00  0.0000E+00  0.0000E+00  0.0000E+00  0.0000E+00  0.0000E+00  0.0000E+00  0.0000E+00  0.0000E+00  0.0000E+00  0.0000E+00  0.0000E+00
    -47.341  0.0000E+00  0.0000E+00  0.0000E+00  0.0000E+00  0.0000E+00  0.0000E+00  0.0000E+00  0.0000E+00  0.0000E+00  0.0000E+00  0.0000E+00  0.0000E+00  0.0000E+00  0.0000E+00  0.0000E+00  0.0000E+00  0.0000E+00  0.0000E+00
    -47.122  0.0000E+00  0.0000E+00  0.0000E+00  0.0000E+00  0.0000E+00  0.0000E+00  0.0000E+00  0.0000E+00  0.0000E+00  0.0000E+00  0.0000E+00  0.0000E+00  0.0000E+00  0.0000E+00  0.0000E+00  0.0000E+00  0.0000E+00  0.0000E+00
    -46.904  0.0000E+00  0.0000E+00  0.0000E+00  0.0000E+00  0.0000E+00  0.0000E+00  0.0000E+00  0.0000E+00  0.0000E+00  0.0000E+00  0.0000E+00  0.0000E+00  0.0000E+00  0.0000E+00  0.0000E+00  0.0000E+00  0.0000E+00  0.0000E+00
    -46.685  0.0000E+00  0.0000E+00  0.0000E+00  0.0000E+00  0.0000E+00  0.0000E+00  0.0000E+00  0.0000E+00  0.0000E+00  0.0000E+00  0.0000E+00  0.0000E+00  0.0000E+00  0.0000E+00  0.0000E+00  0.0000E+00  0.0000E+00  0.0000E+00
    -46.467  0.0000E+00  0.0000E+00  0.0000E+00  0.0000E+00  0.0000E+00  0.0000E+00  0.0000E+00  0.0000E+00  0.0000E+00  0.0000E+00  0.0000E+00  0.0000E+00  0.0000E+00  0.0000E+00  0.0000E+00  0.0000E+00  0.0000E+00  0.0000E+00
    -46.248  0.0000E+00  0.0000E+00  0.0000E+00  0.0000E+00  0.0000E+00  0.0000E+00  0.0000E+00  0.0000E+00  0.0000E+00  0.0000E+00  0.0000E+00  0.0000E+00  0.0000E+00  0.0000E+00  0.0000E+00  0.0000E+00  0.0000E+00  0.0000E+00
    -46.030  0.0000E+00  0.0000E+00  0.0000E+00  0.0000E+00  0.0000E+00  0.0000E+00  0.0000E+00  0.0000E+00  0.0000E+00  0.0000E+00  0.0000E+00  0.0000E+00  0.0000E+00  0.0000E+00  0.0000E+00  0.0000E+00  0.0000E+00  0.0000E+00
    -45.811  0.0000E+00  0.0000E+00  0.0000E+00  0.0000E+00  0.0000E+00  0.0000E+00  0.0000E+00  0.0000E+00  0.0000E+00  0.0000E+00  0.0000E+00  0.0000E+00  0.0000E+00  0.0000E+00  0.0000E+00  0.0000E+00  0.0000E+00  0.0000E+00
    -45.592  0.1495E-04  0.8830E-05  0.1358E-11  0.9047E-12  0.1358E-11  0.9047E-12  0.1358E-11  0.9047E-12  0.0000E+00  0.0000E+00  0.0000E+00  0.0000E+00  0.0000E+00  0.0000E+00  0.0000E+00  0.0000E+00  0.0000E+00  0.0000E+00
    -45.374  0.1669E-02  0.1512E-02  0.1384E-09  0.1233E-09  0.1384E-09  0.1233E-09  0.1384E-09  0.1233E-09  0.0000E+00  0.0000E+00  0.0000E+00  0.0000E+00  0.0000E+00  0.0000E+00  0.0000E+00  0.0000E+00  0.0000E+00  0.0000E+00
    -45.155  0.1275E+00  0.1155E+00  0.1057E-07  0.9420E-08  0.1057E-07  0.9420E-08  0.1057E-07  0.9420E-08  0.0000E+00  0.0000E+00  0.0000E+00  0.0000E+00  0.0000E+00  0.0000E+00  0.0000E+00  0.0000E+00  0.0000E+00  0.0000E+00
    -44.937  0.2997E+01  0.2910E+01  0.2393E-06  0.2290E-06  0.2393E-06  0.2290E-06  0.2393E-06  0.2290E-06  0.0000E+00  0.0000E+00  0.0000E+00  0.0000E+00  0.0000E+00  0.0000E+00  0.0000E+00  0.0000E+00  0.0000E+00  0.0000E+00
    -44.718  0.1374E+01  0.1471E+01  0.1043E-06  0.1100E-06  0.1043E-06  0.1100E-06  0.1043E-06  0.1100E-06  0.0000E+00  0.0000E+00  0.0000E+00  0.0000E+00  0.0000E+00  0.0000E+00  0.0000E+00  0.0000E+00  0.0000E+00  0.0000E+00
    -44.500  0.0000E+00  0.0000E+00  0.0000E+00  0.0000E+00  0.0000E+00  0.0000E+00  0.0000E+00  0.0000E+00  0.0000E+00  0.0000E+00  0.0000E+00  0.0000E+00  0.0000E+00  0.0000E+00  0.0000E+00  0.0000E+00  0.0000E+00  0.0000E+00
    -44.281  0.0000E+00  0.0000E+00  0.0000E+00  0.0000E+00  0.0000E+00  0.0000E+00  0.0000E+00  0.0000E+00  0.0000E+00  0.0000E+00  0.0000E+00  0.0000E+00  0.0000E+00  0.0000E+00  0.0000E+00  0.0000E+00  0.0000E+00  0.0000E+00
    -44.063  0.0000E+00  0.0000E+00  0.0000E+00  0.0000E+00  0.0000E+00  0.0000E+00  0.0000E+00  0.0000E+00  0.0000E+00  0.0000E+00  0.0000E+00  0.0000E+00  0.0000E+00  0.0000E+00  0.0000E+00  0.0000E+00  0.0000E+00  0.0000E+00
    -43.844  0.0000E+00  0.0000E+00  0.0000E+00  0.0000E+00  0.0000E+00  0.0000E+00  0.0000E+00  0.0000E+00  0.0000E+00  0.0000E+00  0.0000E+00  0.0000E+00  0.0000E+00  0.0000E+00  0.0000E+00  0.0000E+00  0.0000E+00  0.0000E+00
    -43.626  0.0000E+00  0.0000E+00  0.0000E+00  0.0000E+00  0.0000E+00  0.0000E+00  0.0000E+00  0.0000E+00  0.0000E+00  0.0000E+00  0.0000E+00  0.0000E+00  0.0000E+00  0.0000E+00  0.0000E+00  0.0000E+00  0.0000E+00  0.0000E+00
    -43.407  0.0000E+00  0.0000E+00  0.0000E+00  0.0000E+00  0.0000E+00  0.0000E+00  0.0000E+00  0.0000E+00  0.0000E+00  0.0000E+00  0.0000E+00  0.0000E+00  0.0000E+00  0.0000E+00  0.0000E+00  0.0000E+00  0.0000E+00  0.0000E+00
    -43.189  0.0000E+00  0.0000E+00  0.0000E+00  0.0000E+00  0.0000E+00  0.0000E+00  0.0000E+00  0.0000E+00  0.0000E+00  0.0000E+00  0.0000E+00  0.0000E+00  0.0000E+00  0.0000E+00  0.0000E+00  0.0000E+00  0.0000E+00  0.0000E+00
    -42.970  0.0000E+00  0.0000E+00  0.0000E+00  0.0000E+00  0.0000E+00  0.0000E+00  0.0000E+00  0.0000E+00  0.0000E+00  0.0000E+00  0.0000E+00  0.0000E+00  0.0000E+00  0.0000E+00  0.0000E+00  0.0000E+00  0.0000E+00  0.0000E+00
    -42.751  0.0000E+00  0.0000E+00  0.0000E+00  0.0000E+00  0.0000E+00  0.0000E+00  0.0000E+00  0.0000E+00  0.0000E+00  0.0000E+00  0.0000E+00  0.0000E+00  0.0000E+00  0.0000E+00  0.0000E+00  0.0000E+00  0.0000E+00  0.0000E+00
    -42.533  0.0000E+00  0.0000E+00  0.0000E+00  0.0000E+00  0.0000E+00  0.0000E+00  0.0000E+00  0.0000E+00  0.0000E+00  0.0000E+00  0.0000E+00  0.0000E+00  0.0000E+00  0.0000E+00  0.0000E+00  0.0000E+00  0.0000E+00  0.0000E+00
    -42.314  0.0000E+00  0.0000E+00  0.0000E+00  0.0000E+00  0.0000E+00  0.0000E+00  0.0000E+00  0.0000E+00  0.0000E+00  0.0000E+00  0.0000E+00  0.0000E+00  0.0000E+00  0.0000E+00  0.0000E+00  0.0000E+00  0.0000E+00  0.0000E+00
    -42.096  0.0000E+00  0.0000E+00  0.0000E+00  0.0000E+00  0.0000E+00  0.0000E+00  0.0000E+00  0.0000E+00  0.0000E+00  0.0000E+00  0.0000E+00  0.0000E+00  0.0000E+00  0.0000E+00  0.0000E+00  0.0000E+00  0.0000E+00  0.0000E+00
    -41.877  0.0000E+00  0.0000E+00  0.0000E+00  0.0000E+00  0.0000E+00  0.0000E+00  0.0000E+00  0.0000E+00  0.0000E+00  0.0000E+00  0.0000E+00  0.0000E+00  0.0000E+00  0.0000E+00  0.0000E+00  0.0000E+00  0.0000E+00  0.0000E+00
    -41.659  0.0000E+00  0.0000E+00  0.0000E+00  0.0000E+00  0.0000E+00  0.0000E+00  0.0000E+00  0.0000E+00  0.0000E+00  0.0000E+00  0.0000E+00  0.0000E+00  0.0000E+00  0.0000E+00  0.0000E+00  0.0000E+00  0.0000E+00  0.0000E+00
    -41.440  0.0000E+00  0.0000E+00  0.0000E+00  0.0000E+00  0.0000E+00  0.0000E+00  0.0000E+00  0.0000E+00  0.0000E+00  0.0000E+00  0.0000E+00  0.0000E+00  0.0000E+00  0.0000E+00  0.0000E+00  0.0000E+00  0.0000E+00  0.0000E+00
    -41.222  0.0000E+00  0.0000E+00  0.0000E+00  0.0000E+00  0.0000E+00  0.0000E+00  0.0000E+00  0.0000E+00  0.0000E+00  0.0000E+00  0.0000E+00  0.0000E+00  0.0000E+00  0.0000E+00  0.0000E+00  0.0000E+00  0.0000E+00  0.0000E+00
    -41.003  0.0000E+00  0.0000E+00  0.0000E+00  0.0000E+00  0.0000E+00  0.0000E+00  0.0000E+00  0.0000E+00  0.0000E+00  0.0000E+00  0.0000E+00  0.0000E+00  0.0000E+00  0.0000E+00  0.0000E+00  0.0000E+00  0.0000E+00  0.0000E+00
    -40.785  0.0000E+00  0.0000E+00  0.0000E+00  0.0000E+00  0.0000E+00  0.0000E+00  0.0000E+00  0.0000E+00  0.0000E+00  0.0000E+00  0.0000E+00  0.0000E+00  0.0000E+00  0.0000E+00  0.0000E+00  0.0000E+00  0.0000E+00  0.0000E+00
    -40.566  0.0000E+00  0.0000E+00  0.0000E+00  0.0000E+00  0.0000E+00  0.0000E+00  0.0000E+00  0.0000E+00  0.0000E+00  0.0000E+00  0.0000E+00  0.0000E+00  0.0000E+00  0.0000E+00  0.0000E+00  0.0000E+00  0.0000E+00  0.0000E+00
    -40.348  0.0000E+00  0.0000E+00  0.0000E+00  0.0000E+00  0.0000E+00  0.0000E+00  0.0000E+00  0.0000E+00  0.0000E+00  0.0000E+00  0.0000E+00  0.0000E+00  0.0000E+00  0.0000E+00  0.0000E+00  0.0000E+00  0.0000E+00  0.0000E+00
    -40.129  0.0000E+00  0.0000E+00  0.0000E+00  0.0000E+00  0.0000E+00  0.0000E+00  0.0000E+00  0.0000E+00  0.0000E+00  0.0000E+00  0.0000E+00  0.0000E+00  0.0000E+00  0.0000E+00  0.0000E+00  0.0000E+00  0.0000E+00  0.0000E+00
    -39.911  0.0000E+00  0.0000E+00  0.0000E+00  0.0000E+00  0.0000E+00  0.0000E+00  0.0000E+00  0.0000E+00  0.0000E+00  0.0000E+00  0.0000E+00  0.0000E+00  0.0000E+00  0.0000E+00  0.0000E+00  0.0000E+00  0.0000E+00  0.0000E+00
    -39.692  0.0000E+00  0.0000E+00  0.0000E+00  0.0000E+00  0.0000E+00  0.0000E+00  0.0000E+00  0.0000E+00  0.0000E+00  0.0000E+00  0.0000E+00  0.0000E+00  0.0000E+00  0.0000E+00  0.0000E+00  0.0000E+00  0.0000E+00  0.0000E+00
    -39.473  0.0000E+00  0.0000E+00  0.0000E+00  0.0000E+00  0.0000E+00  0.0000E+00  0.0000E+00  0.0000E+00  0.0000E+00  0.0000E+00  0.0000E+00  0.0000E+00  0.0000E+00  0.0000E+00  0.0000E+00  0.0000E+00  0.0000E+00  0.0000E+00
    -39.255  0.0000E+00  0.0000E+00  0.0000E+00  0.0000E+00  0.0000E+00  0.0000E+00  0.0000E+00  0.0000E+00  0.0000E+00  0.0000E+00  0.0000E+00  0.0000E+00  0.0000E+00  0.0000E+00  0.0000E+00  0.0000E+00  0.0000E+00  0.0000E+00
    -39.036  0.0000E+00  0.0000E+00  0.0000E+00  0.0000E+00  0.0000E+00  0.0000E+00  0.0000E+00  0.0000E+00  0.0000E+00  0.0000E+00  0.0000E+00  0.0000E+00  0.0000E+00  0.0000E+00  0.0000E+00  0.0000E+00  0.0000E+00  0.0000E+00
    -38.818  0.0000E+00  0.0000E+00  0.0000E+00  0.0000E+00  0.0000E+00  0.0000E+00  0.0000E+00  0.0000E+00  0.0000E+00  0.0000E+00  0.0000E+00  0.0000E+00  0.0000E+00  0.0000E+00  0.0000E+00  0.0000E+00  0.0000E+00  0.0000E+00
    -38.599  0.0000E+00  0.0000E+00  0.0000E+00  0.0000E+00  0.0000E+00  0.0000E+00  0.0000E+00  0.0000E+00  0.0000E+00  0.0000E+00  0.0000E+00  0.0000E+00  0.0000E+00  0.0000E+00  0.0000E+00  0.0000E+00  0.0000E+00  0.0000E+00
    -38.381  0.0000E+00  0.0000E+00  0.0000E+00  0.0000E+00  0.0000E+00  0.0000E+00  0.0000E+00  0.0000E+00  0.0000E+00  0.0000E+00  0.0000E+00  0.0000E+00  0.0000E+00  0.0000E+00  0.0000E+00  0.0000E+00  0.0000E+00  0.0000E+00
    -38.162  0.0000E+00  0.0000E+00  0.0000E+00  0.0000E+00  0.0000E+00  0.0000E+00  0.0000E+00  0.0000E+00  0.0000E+00  0.0000E+00  0.0000E+00  0.0000E+00  0.0000E+00  0.0000E+00  0.0000E+00  0.0000E+00  0.0000E+00  0.0000E+00
    -37.944  0.0000E+00  0.0000E+00  0.0000E+00  0.0000E+00  0.0000E+00  0.0000E+00  0.0000E+00  0.0000E+00  0.0000E+00  0.0000E+00  0.0000E+00  0.0000E+00  0.0000E+00  0.0000E+00  0.0000E+00  0.0000E+00  0.0000E+00  0.0000E+00
    -37.725  0.0000E+00  0.0000E+00  0.0000E+00  0.0000E+00  0.0000E+00  0.0000E+00  0.0000E+00  0.0000E+00  0.0000E+00  0.0000E+00  0.0000E+00  0.0000E+00  0.0000E+00  0.0000E+00  0.0000E+00  0.0000E+00  0.0000E+00  0.0000E+00
    -37.507  0.0000E+00  0.0000E+00  0.0000E+00  0.0000E+00  0.0000E+00  0.0000E+00  0.0000E+00  0.0000E+00  0.0000E+00  0.0000E+00  0.0000E+00  0.0000E+00  0.0000E+00  0.0000E+00  0.0000E+00  0.0000E+00  0.0000E+00  0.0000E+00
    -37.288  0.0000E+00  0.0000E+00  0.0000E+00  0.0000E+00  0.0000E+00  0.0000E+00  0.0000E+00  0.0000E+00  0.0000E+00  0.0000E+00  0.0000E+00  0.0000E+00  0.0000E+00  0.0000E+00  0.0000E+00  0.0000E+00  0.0000E+00  0.0000E+00
    -37.070  0.0000E+00  0.0000E+00  0.0000E+00  0.0000E+00  0.0000E+00  0.0000E+00  0.0000E+00  0.0000E+00  0.0000E+00  0.0000E+00  0.0000E+00  0.0000E+00  0.0000E+00  0.0000E+00  0.0000E+00  0.0000E+00  0.0000E+00  0.0000E+00