   2   2   1   0
  0.2605687E+02  0.3735231E-09  0.3735231E-09  0.3735231E-09  0.5000000E-15
  1.000000000000000E-004
  CAR 
 unknown system                          
     12.78275019    -49.83401743  301      0.01870498      1.00000000
    -49.834  0.0000E+00  0.0000E+00  0.0000E+00  0.0000E+00
    -49.625  0.0000E+00  0.0000E+00  0.0000E+00  0.0000E+00
    -49.417  0.0000E+00  0.0000E+00  0.0000E+00  0.0000E+00
    -49.208  0.0000E+00  0.0000E+00  0.0000E+00  0.0000E+00
    -48.999  0.0000E+00  0.0000E+00  0.0000E+00  0.0000E+00
    -48.790  0.0000E+00  0.0000E+00  0.0000E+00  0.0000E+00
    -48.582  0.0000E+00  0.0000E+00  0.0000E+00  0.0000E+00
    -48.373  0.0000E+00  0.0000E+00  0.0000E+00  0.0000E+00
    -48.164  0.0000E+00  0.0000E+00  0.0000E+00  0.0000E+00
    -47.956  0.0000E+00  0.0000E+00  0.0000E+00  0.0000E+00
    -47.747  0.0000E+00  0.0000E+00  0.0000E+00  0.0000E+00
    -47.538  0.1399E-03  0.1290E-03  0.2920E-04  0.2693E-04
    -47.329  0.8945E-02  0.8252E-02  0.1896E-02  0.1749E-02
    -47.121  0.5476E+00  0.5075E+00  0.1162E+00  0.1077E+00
    -46.912  0.7111E+01  0.7025E+01  0.1600E+01  0.1574E+01
    -46.703  0.1878E+01  0.2002E+01  0.1992E+01  0.1992E+01
    -46.494  0.0000E+00  0.0000E+00  0.2000E+01  0.2000E+01
    -46.286  0.0000E+00  0.0000E+00  0.2000E+01  0.2000E+01
    -46.077  0.0000E+00  0.0000E+00  0.2000E+01  0.2000E+01
    -45.868  0.0000E+00  0.0000E+00  0.2000E+01  0.2000E+01
    -45.660  0.0000E+00  0.0000E+00  0.2000E+01  0.2000E+01
    -45.451  0.0000E+00  0.0000E+00  0.2000E+01  0.2000E+01
    -45.242  0.0000E+00  0.0000E+00  0.2000E+01  0.2000E+01
    -45.033  0.0000E+00  0.0000E+00  0.2000E+01  0.2000E+01
    -44.825  0.0000E+00  0.0000E+00  0.2000E+01  0.2000E+01
    -44.616  0.0000E+00  0.0000E+00  0.2000E+01  0.2000E+01
    -44.407  0.0000E+00  0.0000E+00  0.2000E+01  0.2000E+01
    -44.199  0.0000E+00  0.0000E+00  0.2000E+01  0.2000E+01
    -43.990  0.0000E+00  0.0000E+00  0.2000E+01  0.2000E+01
    -43.781  0.0000E+00  0.0000E+00  0.2000E+01  0.2000E+01
    -43.572  0.0000E+00  0.0000E+00  0.2000E+01  0.2000E+01
    -43.364  0.0000E+00  0.0000E+00  0.2000E+01  0.2000E+01
    -43.155  0.0000E+00  0.0000E+00  0.2000E+01  0.2000E+01
    -42.946  0.0000E+00  0.0000E+00  0.2000E+01  0.2000E+01
    -42.737  0.0000E+00  0.0000E+00  0.2000E+01  0.2000E+01
    -42.529  0.0000E+00  0.0000E+00  0.2000E+01  0.2000E+01
    -42.320  0.0000E+00  0.0000E+00  0.2000E+01  0.2000E+01
    -42.111  0.0000E+00  0.0000E+00  0.2000E+01  0.2000E+01
    -41.903  0.0000E+00  0.0000E+00  0.2000E+01  0.2000E+01
    -41.694  0.0000E+00  0.0000E+00  0.2000E+01  0.2000E+01
    -41.485  0.0000E+00  0.0000E+00  0.2000E+01  0.2000E+01
    -41.276  0.0000E+00  0.0000E+00  0.2000E+01  0.2000E+01
    -41.068  0.0000E+00  0.0000E+00  0.2000E+01  0.2000E+01
    -40.859  0.0000E+00  0.0000E+00  0.2000E+01  0.2000E+01
    -40.650  0.0000E+00  0.0000E+00  0.2000E+01  0.2000E+01
    -40.442  0.0000E+00  0.0000E+00  0.2000E+01  0.2000E+01
    -40.233  0.0000E+00  0.0000E+00  0.2000E+01  0.2000E+01
    -40.024  0.0000E+00  0.0000E+00  0.2000E+01  0.2000E+01
    -39.815  0.0000E+00  0.0000E+00  0.2000E+01  0.2000E+01
    -39.607  0.0000E+00  0.0000E+00  0.2000E+01  0.2000E+01
    -39.398  0.0000E+00  0.0000E+00  0.2000E+01  0.2000E+01
    -39.189  0.0000E+00  0.0000E+00  0.2000E+01  0.2000E+01
    -38.980  0.0000E+00  0.0000E+00  0.2000E+01  0.2000E+01
    -38.772  0.0000E+00  0.0000E+00  0.2000E+01  0.2000E+01
    -38.563  0.0000E+00  0.0000E+00  0.2000E+01  0.2000E+01
    -38.354  0.0000E+00  0.0000E+00  0.2000E+01  0.2000E+01
    -38.146  0.0000E+00  0.0000E+00  0.2000E+01  0.2000E+01
    -37.937  0.0000E+00  0.0000E+00  0.2000E+01  0.2000E+01
    -37.728  0.0000E+00  0.0000E+00  0.2000E+01  0.2000E+01
    -37.519  0.0000E+00  0.0000E+00  0.2000E+01  0.2000E+01
    -37.311  0.0000E+00  0.0000E+00  0.2000E+01  0.2000E+01
    -37.102  0.0000E+00  0.0000E+00  0.2000E+01  0.2000E+01
    -36.893  0.0000E+00  0.0000E+00  0.2000E+01  0.2000E+01
    -36.684  0.0000E+00  0.0000E+00  0.2000E+01  0.2000E+01
    -36.476  0.0000E+00  0.0000E+00  0.2000E+01  0.2000E+01
    -36.267  0.0000E+00  0.0000E+00  0.2000E+01  0.2000E+01
    -36.058  0.0000E+00  0.0000E+00  0.2000E+01  0.2000E+01
    -35.850  0.0000E+00  0.0000E+00  0.2000E+01  0.2000E+01
    -35.641  0.0000E+00  0.0000E+00  0.2000E+01  0.2000E+01
    -35.432  0.0000E+00  0.0000E+00  0.2000E+01  0.2000E+01
    -35.223  0.0000E+00  0.0000E+00  0.2000E+01  0.2000E+01
    -35.015  0.0000E+00  0.0000E+00  0.2000E+01  0.2000E+01
    -34.806  0.0000E+00  0.0000E+00  0.2000E+01  0.2000E+01
    -34.597  0.0000E+00  0.0000E+00  0.2000E+01  0.2000E+01
    -34.389  0.0000E+00  0.0000E+00  0.2000E+01  0.2000E+01
    -34.180  0.0000E+00  0.0000E+00  0.2000E+01  0.2000E+01
    -33.971  0.0000E+00  0.0000E+00  0.2000E+01  0.2000E+01
    -33.762  0.0000E+00  0.0000E+00  0.2000E+01  0.2000E+01
    -33.554  0.0000E+00  0.0000E+00  0.2000E+01  0.2000E+01
    -33.345  0.0000E+00  0.0000E+00  0.2000E+01  0.2000E+01
    -33.136  0.0000E+00  0.0000E+00  0.2000E+01  0.2000E+01
    -32.927  0.0000E+00  0.0000E+00  0.2000E+01  0.2000E+01
    -32.719  0.0000E+00  0.0000E+00  0.2000E+01  0.2000E+01
    -32.510  0.0000E+00  0.0000E+00  0.2000E+01  0.2000E+01
    -32.301  0.0000E+00  0.0000E+00  0.2000E+01  0.2000E+01
    -32.093  0.0000E+00  0.0000E+00  0.2000E+01  0.2000E+01
    -31.884  0.0000E+00  0.0000E+00  0.2000E+01  0.2000E+01
    -31.675  0.0000E+00  0.0000E+00  0.2000E+01  0.2000E+01
    -31.466  0.0000E+00  0.0000E+00  0.2000E+01  0.2000E+01
    -31.258  0.0000E+00  0.0000E+00  0.2000E+01  0.2000E+01
    -31.049  0.0000E+00  0.0000E+00  0.2000E+01  0.2000E+01
    -30.840  0.0000E+00  0.0000E+00  0.2000E+01  0.2000E+01
    -30.632  0.0000E+00  0.0000E+00  0.2000E+01  0.2000E+01
    -30.423  0.0000E+00  0.0000E+00  0.2000E+01  0.2000E+01
    -30.214  0.0000E+00  0.0000E+00  0.2000E+01  0.2000E+01
    -30.005  0.0000E+00  0.0000E+00  0.2000E+01  0.2000E+01
    -29.797  0.0000E+00  0.0000E+00  0.2000E+01  0.2000E+01
    -29.588  0.0000E+00  0.0000E+00  0.2000E+01  0.2000E+01
    -29.379  0.0000E+00  0.0000E+00  0.2000E+01  0.2000E+01
    -29.170  0.0000E+00  0.0000E+00  0.2000E+01  0.2000E+01
    -28.962  0.0000E+00  0.0000E+00  0.2000E+01  0.2000E+01
    -28.753  0.0000E+00  0.0000E+00  0.2000E+01  0.2000E+01
    -28.544  0.0000E+00  0.0000E+00  0.2000E+01  0.2000E+01
    -28.336  0.0000E+00  0.0000E+00  0.2000E+01  0.2000E+01
    -28.127  0.0000E+00  0.0000E+00  0.2000E+01  0.2000E+01
    -27.918  0.0000E+00  0.0000E+00  0.2000E+01  0.2000E+01
    -27.709  0.0000E+00  0.0000E+00  0.2000E+01  0.2000E+01
    -27.501  0.0000E+00  0.0000E+00  0.2000E+01  0.2000E+01
    -27.292  0.0000E+00  0.0000E+00  0.2000E+01  0.2000E+01
    -27.083  0.0000E+00  0.0000E+00  0.2000E+01  0.2000E+01
    -26.875  0.0000E+00  0.0000E+00  0.2000E+01  0.2000E+01
    -26.666  0.0000E+00  0.0000E+00  0.2000E+01  0.2000E+01
    -26.457  0.0000E+00  0.0000E+00  0.2000E+01  0.2000E+01
    -26.248  0.0000E+00  0.0000E+00  0.2000E+01  0.2000E+01
    -26.040  0.0000E+00  0.0000E+00  0.2000E+01  0.2000E+01
    -25.831  0.0000E+00  0.0000E+00  0.2000E+01  0.2000E+01
    -25.622  0.0000E+00  0.0000E+00  0.2000E+01  0.2000E+01
    -25.413  0.0000E+00  0.0000E+00  0.2000E+01  0.2000E+01
    -25.205  0.0000E+00  0.0000E+00  0.2000E+01  0.2000E+01
    -24.996  0.0000E+00  0.0000E+00  0.2000E+01  0.2000E+01
    -24.787  0.0000E+00  0.0000E+00  0.2000E+01  0.2000E+01
    -24.579  0.0000E+00  0.0000E+00  0.2000E+01  0.2000E+01
    -24.370  0.0000E+00  0.0000E+00  0.2000E+01  0.2000E+01
    -24.161  0.0000E+00  0.0000E+00  0.2000E+01  0.2000E+01
    -23.952  0.0000E+00  0.0000E+00  0.2000E+01  0.2000E+01
    -23.744  0.0000E+00  0.0000E+00  0.2000E+01  0.2000E+01
    -23.535  0.0000E+00  0.0000E+00  0.2000E+01  0.2000E+01
    -23.326  0.0000E+00  0.0000E+00  0.2000E+01  0.2000E+01
    -23.118  0.0000E+00  0.0000E+00  0.2000E+01  0.2000E+01
    -22.909  0.0000E+00  0.0000E+00  0.2000E+01  0.2000E+01
    -22.700  0.0000E+00  0.0000E+00  0.2000E+01  0.2000E+01
    -22.491  0.0000E+00  0.0000E+00  0.2000E+01  0.2000E+01
    -22.283  0.0000E+00  0.0000E+00  0.2000E+01  0.2000E+01
    -22.074  0.0000E+00  0.0000E+00  0.2000E+01  0.2000E+01
    -21.865  0.0000E+00  0.0000E+00  0.2000E+01  0.2000E+01
    -21.656  0.0000E+00  0.0000E+00  0.2000E+01  0.2000E+01
    -21.448  0.0000E+00  0.0000E+00  0.2000E+01  0.2000E+01
    -21.239  0.0000E+00  0.0000E+00  0.2000E+01  0.2000E+01
    -21.030  0.0000E+00  0.0000E+00  0.2000E+01  0.2000E+01
    -20.822  0.0000E+00  0.0000E+00  0.2000E+01  0.2000E+01
    -20.613  0.0000E+00  0.0000E+00  0.2000E+01  0.2000E+01
    -20.404  0.0000E+00  0.0000E+00  0.2000E+01  0.2000E+01
    -20.195  0.0000E+00  0.0000E+00  0.2000E+01  0.2000E+01
    -19.987  0.0000E+00  0.0000E+00  0.2000E+01  0.2000E+01
    -19.778  0.0000E+00  0.0000E+00  0.2000E+01  0.2000E+01
    -19.569  0.0000E+00  0.0000E+00  0.2000E+01  0.2000E+01
    -19.361  0.0000E+00  0.0000E+00  0.2000E+01  0.2000E+01
    -19.152  0.0000E+00  0.0000E+00  0.2000E+01  0.2000E+01
    -18.943  0.0000E+00  0.0000E+00  0.2000E+01  0.2000E+01
    -18.734  0.0000E+00  0.0000E+00  0.2000E+01  0.2000E+01
    -18.526  0.0000E+00  0.0000E+00  0.2000E+01  0.2000E+01
    -18.317  0.0000E+00  0.0000E+00  0.2000E+01  0.2000E+01
    -18.108  0.0000E+00  0.0000E+00  0.2000E+01  0.2000E+01
    -17.899  0.0000E+00  0.0000E+00  0.2000E+01  0.2000E+01
    -17.691  0.0000E+00  0.0000E+00  0.2000E+01  0.2000E+01
    -17.482  0.0000E+00  0.0000E+00  0.2000E+01  0.2000E+01
    -17.273  0.0000E+00  0.0000E+00  0.2000E+01  0.2000E+01
    -17.065  0.0000E+00  0.0000E+00  0.2000E+01  0.2000E+01
    -16.856  0.0000E+00  0.0000E+00  0.2000E+01  0.2000E+01
    -16.647  0.0000E+00  0.0000E+00  0.2000E+01  0.2000E+01
    -16.438  0.0000E+00  0.0000E+00  0.2000E+01  0.2000E+01
    -16.230  0.0000E+00  0.0000E+00  0.2000E+01  0.2000E+01
    -16.021  0.0000E+00  0.0000E+00  0.2000E+01  0.2000E+01
    -15.812  0.0000E+00  0.0000E+00  0.2000E+01  0.2000E+01
    -15.604  0.0000E+00  0.0000E+00  0.2000E+01  0.2000E+01
    -15.395  0.0000E+00  0.0000E+00  0.2000E+01  0.2000E+01
    -15.186  0.0000E+00  0.0000E+00  0.2000E+01  0.2000E+01
    -14.977  0.0000E+00  0.0000E+00  0.2000E+01  0.2000E+01
    -14.769  0.0000E+00  0.0000E+00  0.2000E+01  0.2000E+01
    -14.560  0.0000E+00  0.0000E+00  0.2000E+01  0.2000E+01
    -14.351  0.0000E+00  0.0000E+00  0.2000E+01  0.2000E+01
    -14.142  0.0000E+00  0.0000E+00  0.2000E+01  0.2000E+01
    -13.934  0.0000E+00  0.0000E+00  0.2000E+01  0.2000E+01
    -13.725  0.0000E+00  0.0000E+00  0.2000E+01  0.2000E+01
    -13.516  0.0000E+00  0.0000E+00  0.2000E+01  0.2000E+01
    -13.308  0.0000E+00  0.0000E+00  0.2000E+01  0.2000E+01
    -13.099  0.0000E+00  0.0000E+00  0.2000E+01  0.2000E+01
    -12.890  0.0000E+00  0.0000E+00  0.2000E+01  0.2000E+01
    -12.681  0.0000E+00  0.0000E+00  0.2000E+01  0.2000E+01
    -12.473  0.0000E+00  0.0000E+00  0.2000E+01  0.2000E+01
    -12.264  0.0000E+00  0.0000E+00  0.2000E+01  0.2000E+01
    -12.055  0.0000E+00  0.0000E+00  0.2000E+01  0.2000E+01
    -11.847  0.0000E+00  0.0000E+00  0.2000E+01  0.2000E+01
    -11.638  0.0000E+00  0.0000E+00  0.2000E+01  0.2000E+01
    -11.429  0.0000E+00  0.0000E+00  0.2000E+01  0.2000E+01
    -11.220  0.0000E+00  0.0000E+00  0.2000E+01  0.2000E+01
    -11.012  0.0000E+00  0.0000E+00  0.2000E+01  0.2000E+01
    -10.803  0.0000E+00  0.0000E+00  0.2000E+01  0.2000E+01
    -10.594  0.0000E+00  0.0000E+00  0.2000E+01  0.2000E+01
    -10.385  0.0000E+00  0.0000E+00  0.2000E+01  0.2000E+01
    -10.177  0.0000E+00  0.0000E+00  0.2000E+01  0.2000E+01
     -9.968  0.0000E+00  0.0000E+00  0.2000E+01  0.2000E+01
     -9.759  0.0000E+00  0.0000E+00  0.2000E+01  0.2000E+01
     -9.551  0.0000E+00  0.0000E+00  0.2000E+01  0.2000E+01
     -9.342  0.0000E+00  0.0000E+00  0.2000E+01  0.2000E+01
     -9.133  0.0000E+00  0.0000E+00  0.2000E+01  0.2000E+01
     -8.924  0.0000E+00  0.0000E+00  0.2000E+01  0.2000E+01
     -8.716  0.0000E+00  0.0000E+00  0.2000E+01  0.2000E+01
     -8.507  0.0000E+00  0.0000E+00  0.2000E+01  0.2000E+01
     -8.298  0.0000E+00  0.0000E+00  0.2000E+01  0.2000E+01
     -8.090  0.0000E+00  0.0000E+00  0.2000E+01  0.2000E+01
     -7.881  0.0000E+00  0.0000E+00  0.2000E+01  0.2000E+01
     -7.672  0.0000E+00  0.0000E+00  0.2000E+01  0.2000E+01
     -7.463  0.0000E+00  0.0000E+00  0.2000E+01  0.2000E+01
     -7.255  0.0000E+00  0.0000E+00  0.2000E+01  0.2000E+01
     -7.046  0.0000E+00  0.0000E+00  0.2000E+01  0.2000E+01
     -6.837  0.0000E+00  0.0000E+00  0.2000E+01  0.2000E+01
     -6.628  0.0000E+00  0.0000E+00  0.2000E+01  0.2000E+01
     -6.420  0.0000E+00  0.0000E+00  0.2000E+01  0.2000E+01
     -6.211  0.0000E+00  0.0000E+00  0.2000E+01  0.2000E+01
     -6.002  0.0000E+00  0.0000E+00  0.2000E+01  0.2000E+01
     -5.794  0.0000E+00  0.0000E+00  0.2000E+01  0.2000E+01
     -5.585  0.0000E+00  0.0000E+00  0.2000E+01  0.2000E+01
     -5.376  0.0000E+00  0.0000E+00  0.2000E+01  0.2000E+01
     -5.167  0.0000E+00  0.0000E+00  0.2000E+01  0.2000E+01
     -4.959  0.0000E+00  0.0000E+00  0.2000E+01  0.2000E+01
     -4.750  0.0000E+00  0.0000E+00  0.2000E+01  0.2000E+01
     -4.541  0.0000E+00  0.0000E+00  0.2000E+01  0.2000E+01
     -4.332  0.0000E+00  0.0000E+00  0.2000E+01  0.2000E+01
     -4.124  0.0000E+00  0.0000E+00  0.2000E+01  0.2000E+01
     -3.915  0.0000E+00  0.0000E+00  0.2000E+01  0.2000E+01
     -3.706  0.6783E-06  0.6483E-06  0.2000E+01  0.2000E+01
     -3.498  0.4975E-04  0.4755E-04  0.2000E+01  0.2000E+01
     -3.289  0.2950E-02  0.2830E-02  0.2001E+01  0.2001E+01
     -3.080  0.4765E-01  0.4683E-01  0.2011E+01  0.2010E+01
     -2.871  0.1220E+00  0.1215E+00  0.2036E+01  0.2036E+01
     -2.663  0.1701E+00  0.1695E+00  0.2072E+01  0.2071E+01
     -2.454  0.1976E+00  0.1975E+00  0.2113E+01  0.2113E+01
     -2.245  0.2431E+00  0.2422E+00  0.2164E+01  0.2163E+01
     -2.037  0.2429E+00  0.2435E+00  0.2215E+01  0.2214E+01
     -1.828  0.3000E+00  0.2989E+00  0.2278E+01  0.2277E+01
     -1.619  0.3052E+00  0.3058E+00  0.2341E+01  0.2341E+01
     -1.410  0.3244E+00  0.3237E+00  0.2409E+01  0.2409E+01
     -1.202  0.3427E+00  0.3419E+00  0.2481E+01  0.2480E+01
     -0.993  0.4083E+00  0.4084E+00  0.2567E+01  0.2566E+01
     -0.784  0.3263E+00  0.3266E+00  0.2635E+01  0.2634E+01
     -0.575  0.4623E+00  0.4608E+00  0.2732E+01  0.2731E+01
     -0.367  0.4437E+00  0.4445E+00  0.2824E+01  0.2824E+01
     -0.158  0.4734E+00  0.4728E+00  0.2924E+01  0.2923E+01
      0.051  0.4365E+00  0.4363E+00  0.3015E+01  0.3014E+01
      0.259  0.6335E+00  0.6312E+00  0.3148E+01  0.3146E+01
      0.468  0.6189E+00  0.6196E+00  0.3277E+01  0.3276E+01
      0.677  0.6150E+00  0.6178E+00  0.3407E+01  0.3406E+01
      0.886  0.4460E+00  0.4476E+00  0.3501E+01  0.3500E+01
      1.094  0.4511E+00  0.4477E+00  0.3596E+01  0.3594E+01
      1.303  0.5530E+00  0.5562E+00  0.3711E+01  0.3711E+01
      1.512  0.2692E+00  0.2705E+00  0.3768E+01  0.3768E+01
      1.720  0.2248E+00  0.2257E+00  0.3816E+01  0.3815E+01
      1.929  0.1914E+00  0.1894E+00  0.3856E+01  0.3855E+01
      2.138  0.3354E+00  0.3363E+00  0.3926E+01  0.3925E+01
      2.347  0.1008E+00  0.1023E+00  0.3947E+01  0.3947E+01
      2.555  0.2092E+00  0.2050E+00  0.3991E+01  0.3990E+01
      2.764  0.6023E+00  0.5984E+00  0.4117E+01  0.4115E+01
      2.973  0.1006E+01  0.1005E+01  0.4328E+01  0.4325E+01
      3.182  0.5625E+00  0.5688E+00  0.4446E+01  0.4445E+01
      3.390  0.5676E+00  0.5638E+00  0.4565E+01  0.4564E+01
      3.599  0.6734E+00  0.6745E+00  0.4706E+01  0.4705E+01
      3.808  0.5685E+00  0.5711E+00  0.4826E+01  0.4825E+01
      4.016  0.2421E+00  0.2422E+00  0.4877E+01  0.4876E+01
      4.225  0.6292E+00  0.6248E+00  0.5008E+01  0.5007E+01
      4.434  0.6454E+00  0.6491E+00  0.5143E+01  0.5142E+01
      4.643  0.3389E+00  0.3385E+00  0.5214E+01  0.5213E+01
      4.851  0.4208E+00  0.4187E+00  0.5303E+01  0.5301E+01
      5.060  0.9190E+00  0.9139E+00  0.5495E+01  0.5492E+01
      5.269  0.9147E+00  0.9157E+00  0.5686E+01  0.5684E+01
      5.477  0.6290E+00  0.6337E+00  0.5819E+01  0.5818E+01
      5.686  0.6021E+00  0.6000E+00  0.5947E+01  0.5945E+01
      5.895  0.7310E+00  0.7291E+00  0.6100E+01  0.6097E+01
      6.104  0.7756E+00  0.7779E+00  0.6263E+01  0.6261E+01
      6.312  0.6703E+00  0.6705E+00  0.6403E+01  0.6402E+01
      6.521  0.4384E+00  0.4425E+00  0.6496E+01  0.6495E+01
      6.730  0.4523E+00  0.4457E+00  0.6590E+01  0.6588E+01
      6.939  0.9720E+00  0.9726E+00  0.6794E+01  0.6791E+01
      7.147  0.4761E+00  0.4824E+00  0.6894E+01  0.6893E+01
      7.356  0.3647E+00  0.3626E+00  0.6971E+01  0.6970E+01
      7.565  0.4857E+00  0.4852E+00  0.7073E+01  0.7071E+01
      7.773  0.6073E+00  0.6046E+00  0.7200E+01  0.7198E+01
      7.982  0.6786E+00  0.6827E+00  0.7342E+01  0.7341E+01
      8.191  0.3977E+00  0.3972E+00  0.7426E+01  0.7425E+01
      8.400  0.5177E+00  0.5169E+00  0.7534E+01  0.7533E+01
      8.608  0.4121E+00  0.4126E+00  0.7621E+01  0.7620E+01
      8.817  0.4756E+00  0.4762E+00  0.7721E+01  0.7720E+01
      9.026  0.5003E+00  0.5001E+00  0.7826E+01  0.7824E+01
      9.234  0.3933E+00  0.4019E+00  0.7908E+01  0.7908E+01
      9.443  0.1389E+00  0.1428E+00  0.7938E+01  0.7939E+01
      9.652  0.1015E+00  0.1016E+00  0.7959E+01  0.7961E+01
      9.861  0.1389E+00  0.1389E+00  0.7989E+01  0.7990E+01
     10.069  0.5228E-01  0.4710E-01  0.8000E+01  0.8000E+01
     10.278  0.1439E-02  0.1722E-02  0.8000E+01  0.8000E+01
     10.487  0.0000E+00  0.0000E+00  0.8000E+01  0.8000E+01
     10.696  0.0000E+00  0.0000E+00  0.8000E+01  0.8000E+01
     10.904  0.0000E+00  0.0000E+00  0.8000E+01  0.8000E+01
     11.113  0.0000E+00  0.0000E+00  0.8000E+01  0.8000E+01
     11.322  0.0000E+00  0.0000E+00  0.8000E+01  0.8000E+01
     11.530  0.0000E+00  0.0000E+00  0.8000E+01  0.8000E+01
     11.739  0.0000E+00  0.0000E+00  0.8000E+01  0.8000E+01
     11.948  0.0000E+00  0.0000E+00  0.8000E+01  0.8000E+01
     12.157  0.0000E+00  0.0000E+00  0.8000E+01  0.8000E+01
     12.365  0.0000E+00  0.0000E+00  0.8000E+01  0.8000E+01
     12.574  0.0000E+00  0.0000E+00  0.8000E+01  0.8000E+01
     12.783  0.0000E+00  0.0000E+00  0.8000E+01  0.8000E+01
     12.78275019    -49.83401743  301      0.01870498      1.00000000
    -49.834  0.0000E+00  0.0000E+00  0.0000E+00  0.0000E+00  0.0000E+00  0.0000E+00  0.0000E+00  0.0000E+00  0.0000E+00  0.0000E+00  0.0000E+00  0.0000E+00  0.0000E+00  0.0000E+00  0.0000E+00  0.0000E+00  0.0000E+00  0.0000E+00
    -49.625  0.0000E+00  0.0000E+00  0.0000E+00  0.0000E+00  0.0000E+00  0.0000E+00  0.0000E+00  0.0000E+00  0.0000E+00  0.0000E+00  0.0000E+00  0.0000E+00  0.0000E+00  0.0000E+00  0.0000E+00  0.0000E+00  0.0000E+00  0.0000E+00
    -49.417  0.0000E+00  0.0000E+00  0.0000E+00  0.0000E+00  0.0000E+00  0.0000E+00  0.0000E+00  0.0000E+00  0.0000E+00  0.0000E+00  0.0000E+00  0.0000E+00  0.0000E+00  0.0000E+00  0.0000E+00  0.0000E+00  0.0000E+00  0.0000E+00
    -49.208  0.0000E+00  0.0000E+00  0.0000E+00  0.0000E+00  0.0000E+00  0.0000E+00  0.0000E+00  0.0000E+00  0.0000E+00  0.0000E+00  0.0000E+00  0.0000E+00  0.0000E+00  0.0000E+00  0.0000E+00  0.0000E+00  0.0000E+00  0.0000E+00
    -48.999  0.0000E+00  0.0000E+00  0.0000E+00  0.0000E+00  0.0000E+00  0.0000E+00  0.0000E+00  0.0000E+00  0.0000E+00  0.0000E+00  0.0000E+00  0.0000E+00  0.0000E+00  0.0000E+00  0.0000E+00  0.0000E+00  0.0000E+00  0.0000E+00
    -48.790  0.0000E+00  0.0000E+00  0.0000E+00  0.0000E+00  0.0000E+00  0.0000E+00  0.0000E+00  0.0000E+00  0.0000E+00  0.0000E+00  0.0000E+00  0.0000E+00  0.0000E+00  0.0000E+00  0.0000E+00  0.0000E+00  0.0000E+00  0.0000E+00
    -48.582  0.0000E+00  0.0000E+00  0.0000E+00  0.0000E+00  0.0000E+00  0.0000E+00  0.0000E+00  0.0000E+00  0.0000E+00  0.0000E+00  0.0000E+00  0.0000E+00  0.0000E+00  0.0000E+00  0.0000E+00  0.0000E+00  0.0000E+00  0.0000E+00
    -48.373  0.0000E+00  0.0000E+00  0.0000E+00  0.0000E+00  0.0000E+00  0.0000E+00  0.0000E+00  0.0000E+00  0.0000E+00  0.0000E+00  0.0000E+00  0.0000E+00  0.0000E+00  0.0000E+00  0.0000E+00  0.0000E+00  0.0000E+00  0.0000E+00
    -48.164  0.0000E+00  0.0000E+00  0.0000E+00  0.0000E+00  0.0000E+00  0.0000E+00  0.0000E+00  0.0000E+00  0.0000E+00  0.0000E+00  0.0000E+00  0.0000E+00  0.0000E+00  0.0000E+00  0.0000E+00  0.0000E+00  0.0000E+00  0.0000E+00
    -47.956  0.0000E+00  0.0000E+00  0.0000E+00  0.0000E+00  0.0000E+00  0.0000E+00  0.0000E+00  0.0000E+00  0.0000E+00  0.0000E+00  0.0000E+00  0.0000E+00  0.0000E+00  0.0000E+00  0.0000E+00  0.0000E+00  0.0000E+00  0.0000E+00
    -47.747  0.0000E+00  0.0000E+00  0.0000E+00  0.0000E+00  0.0000E+00  0.0000E+00  0.0000E+00  0.0000E+00  0.0000E+00  0.0000E+00  0.0000E+00  0.0000E+00  0.0000E+00  0.0000E+00  0.0000E+00  0.0000E+00  0.0000E+00  0.0000E+00
    -47.538  0.6922E-04  0.6386E-04  0.3988E-12  0.3736E-12  0.3988E-12  0.3736E-12  0.3988E-12  0.3736E-12  0.0000E+00  0.0000E+00  0.0000E+00  0.0000E+00  0.0000E+00  0.0000E+00  0.0000E+00  0.0000E+00  0.0000E+00  0.0000E+00
    -47.329  0.4426E-02  0.4083E-02  0.2550E-10  0.2389E-10  0.2550E-10  0.2389E-10  0.2550E-10  0.2389E-10  0.0000E+00  0.0000E+00  0.0000E+00  0.0000E+00  0.0000E+00  0.0000E+00  0.0000E+00  0.0000E+00  0.0000E+00  0.0000E+00
    -47.121  0.2710E+00  0.2511E+00  0.1563E-08  0.1470E-08  0.1563E-08  0.1470E-08  0.1563E-08  0.1470E-08  0.0000E+00  0.0000E+00  0.0000E+00  0.0000E+00  0.0000E+00  0.0000E+00  0.0000E+00  0.0000E+00  0.0000E+00  0.0000E+00
    -46.912  0.3519E+01  0.3476E+01  0.2053E-07  0.2060E-07  0.2053E-07  0.2060E-07  0.2053E-07  0.2060E-07  0.0000E+00  0.0000E+00  0.0000E+00  0.0000E+00  0.0000E+00  0.0000E+00  0.0000E+00  0.0000E+00  0.0000E+00  0.0000E+00
    -46.703  0.9293E+00  0.9905E+00  0.5499E-08  0.5961E-08  0.5499E-08  0.5961E-08  0.5499E-08  0.5961E-08  0.0000E+00  0.0000E+00  0.0000E+00  0.0000E+00  0.0000E+00  0.0000E+00  0.0000E+00  0.0000E+00  0.0000E+00  0.0000E+00
    -46.494  0.0000E+00  0.0000E+00  0.0000E+00  0.0000E+00  0.0000E+00  0.0000E+00  0.0000E+00  0.0000E+00  0.0000E+00  0.0000E+00  0.0000E+00  0.0000E+00  0.0000E+00  0.0000E+00  0.0000E+00  0.0000E+00  0.0000E+00  0.0000E+00
    -46.286  0.0000E+00  0.0000E+00  0.0000E+00  0.0000E+00  0.0000E+00  0.0000E+00  0.0000E+00  0.0000E+00  0.0000E+00  0.0000E+00  0.0000E+00  0.0000E+00  0.0000E+00  0.0000E+00  0.0000E+00  0.0000E+00  0.0000E+00  0.0000E+00
    -46.077  0.0000E+00  0.0000E+00  0.0000E+00  0.0000E+00  0.0000E+00  0.0000E+00  0.0000E+00  0.0000E+00  0.0000E+00  0.0000E+00  0.0000E+00  0.0000E+00  0.0000E+00  0.0000E+00  0.0000E+00  0.0000E+00  0.0000E+00  0.0000E+00
    -45.868  0.0000E+00  0.0000E+00  0.0000E+00  0.0000E+00  0.0000E+00  0.0000E+00  0.0000E+00  0.0000E+00  0.0000E+00  0.0000E+00  0.0000E+00  0.0000E+00  0.0000E+00  0.0000E+00  0.0000E+00  0.0000E+00  0.0000E+00  0.0000E+00
    -45.660  0.0000E+00  0.0000E+00  0.0000E+00  0.0000E+00  0.0000E+00  0.0000E+00  0.0000E+00  0.0000E+00  0.0000E+00  0.0000E+00  0.0000E+00  0.0000E+00  0.0000E+00  0.0000E+00  0.0000E+00  0.0000E+00  0.0000E+00  0.0000E+00
    -45.451  0.0000E+00  0.0000E+00  0.0000E+00  0.0000E+00  0.0000E+00  0.0000E+00  0.0000E+00  0.0000E+00  0.0000E+00  0.0000E+00  0.0000E+00  0.0000E+00  0.0000E+00  0.0000E+00  0.0000E+00  0.0000E+00  0.0000E+00  0.0000E+00
    -45.242  0.0000E+00  0.0000E+00  0.0000E+00  0.0000E+00  0.0000E+00  0.0000E+00  0.0000E+00  0.0000E+00  0.0000E+00  0.0000E+00  0.0000E+00  0.0000E+00  0.0000E+00  0.0000E+00  0.0000E+00  0.0000E+00  0.0000E+00  0.0000E+00
    -45.033  0.0000E+00  0.0000E+00  0.0000E+00  0.0000E+00  0.0000E+00  0.0000E+00  0.0000E+00  0.0000E+00  0.0000E+00  0.0000E+00  0.0000E+00  0.0000E+00  0.0000E+00  0.0000E+00  0.0000E+00  0.0000E+00  0.0000E+00  0.0000E+00
    -44.825  0.0000E+00  0.0000E+00  0.0000E+00  0.0000E+00  0.0000E+00  0.0000E+00  0.0000E+00  0.0000E+00  0.0000E+00  0.0000E+00  0.0000E+00  0.0000E+00  0.0000E+00  0.0000E+00  0.0000E+00  0.0000E+00  0.0000E+00  0.0000E+00
    -44.616  0.0000E+00  0.0000E+00  0.0000E+00  0.0000E+00  0.0000E+00  0.0000E+00  0.0000E+00  0.0000E+00  0.0000E+00  0.0000E+00  0.0000E+00  0.0000E+00  0.0000E+00  0.0000E+00  0.0000E+00  0.0000E+00  0.0000E+00  0.0000E+00
    -44.407  0.0000E+00  0.0000E+00  0.0000E+00  0.0000E+00  0.0000E+00  0.0000E+00  0.0000E+00  0.0000E+00  0.0000E+00  0.0000E+00  0.0000E+00  0.0000E+00  0.0000E+00  0.0000E+00  0.0000E+00  0.0000E+00  0.0000E+00  0.0000E+00
    -44.199  0.0000E+00  0.0000E+00  0.0000E+00  0.0000E+00  0.0000E+00  0.0000E+00  0.0000E+00  0.0000E+00  0.0000E+00  0.0000E+00  0.0000E+00  0.0000E+00  0.0000E+00  0.0000E+00  0.0000E+00  0.0000E+00  0.0000E+00  0.0000E+00
    -43.990  0.0000E+00  0.0000E+00  0.0000E+00  0.0000E+00  0.0000E+00  0.0000E+00  0.0000E+00  0.0000E+00  0.0000E+00  0.0000E+00  0.0000E+00  0.0000E+00  0.0000E+00  0.0000E+00  0.0000E+00  0.0000E+00  0.0000E+00  0.0000E+00
    -43.781  0.0000E+00  0.0000E+00  0.0000E+00  0.0000E+00  0.0000E+00  0.0000E+00  0.0000E+00  0.0000E+00  0.0000E+00  0.0000E+00  0.0000E+00  0.0000E+00  0.0000E+00  0.0000E+00  0.0000E+00  0.0000E+00  0.0000E+00  0.0000E+00
    -43.572  0.0000E+00  0.0000E+00  0.0000E+00  0.0000E+00  0.0000E+00  0.0000E+00  0.0000E+00  0.0000E+00  0.0000E+00  0.0000E+00  0.0000E+00  0.0000E+00  0.0000E+00  0.0000E+00  0.0000E+00  0.0000E+00  0.0000E+00  0.0000E+00
    -43.364  0.0000E+00  0.0000E+00  0.0000E+00  0.0000E+00  0.0000E+00  0.0000E+00  0.0000E+00  0.0000E+00  0.0000E+00  0.0000E+00  0.0000E+00  0.0000E+00  0.0000E+00  0.0000E+00  0.0000E+00  0.0000E+00  0.0000E+00  0.0000E+00
    -43.155  0.0000E+00  0.0000E+00  0.0000E+00  0.0000E+00  0.0000E+00  0.0000E+00  0.0000E+00  0.0000E+00  0.0000E+00  0.0000E+00  0.0000E+00  0.0000E+00  0.0000E+00  0.0000E+00  0.0000E+00  0.0000E+00  0.0000E+00  0.0000E+00
    -42.946  0.0000E+00  0.0000E+00  0.0000E+00  0.0000E+00  0.0000E+00  0.0000E+00  0.0000E+00  0.0000E+00  0.0000E+00  0.0000E+00  0.0000E+00  0.0000E+00  0.0000E+00  0.0000E+00  0.0000E+00  0.0000E+00  0.0000E+00  0.0000E+00
    -42.737  0.0000E+00  0.0000E+00  0.0000E+00  0.0000E+00  0.0000E+00  0.0000E+00  0.0000E+00  0.0000E+00  0.0000E+00  0.0000E+00  0.0000E+00  0.0000E+00  0.0000E+00  0.0000E+00  0.0000E+00  0.0000E+00  0.0000E+00  0.0000E+00
    -42.529  0.0000E+00  0.0000E+00  0.0000E+00  0.0000E+00  0.0000E+00  0.0000E+00  0.0000E+00  0.0000E+00  0.0000E+00  0.0000E+00  0.0000E+00  0.0000E+00  0.0000E+00  0.0000E+00  0.0000E+00  0.0000E+00  0.0000E+00  0.0000E+00
    -42.320  0.0000E+00  0.0000E+00  0.0000E+00  0.0000E+00  0.0000E+00  0.0000E+00  0.0000E+00  0.0000E+00  0.0000E+00  0.0000E+00  0.0000E+00  0.0000E+00  0.0000E+00  0.0000E+00  0.0000E+00  0.0000E+00  0.0000E+00  0.0000E+00
    -42.111  0.0000E+00  0.0000E+00  0.0000E+00  0.0000E+00  0.0000E+00  0.0000E+00  0.0000E+00  0.0000E+00  0.0000E+00  0.0000E+00  0.0000E+00  0.0000E+00  0.0000E+00  0.0000E+00  0.0000E+00  0.0000E+00  0.0000E+00  0.0000E+00
    -41.903  0.0000E+00  0.0000E+00  0.0000E+00  0.0000E+00  0.0000E+00  0.0000E+00  0.0000E+00  0.0000E+00  0.0000E+00  0.0000E+00  0.0000E+00  0.0000E+00  0.0000E+00  0.0000E+00  0.0000E+00  0.0000E+00  0.0000E+00  0.0000E+00
    -41.694  0.0000E+00  0.0000E+00  0.0000E+00  0.0000E+00  0.0000E+00  0.0000E+00  0.0000E+00  0.0000E+00  0.0000E+00  0.0000E+00  0.0000E+00  0.0000E+00  0.0000E+00  0.0000E+00  0.0000E+00  0.0000E+00  0.0000E+00  0.0000E+00
    -41.485  0.0000E+00  0.0000E+00  0.0000E+00  0.0000E+00  0.0000E+00  0.0000E+00  0.0000E+00  0.0000E+00  0.0000E+00  0.0000E+00  0.0000E+00  0.0000E+00  0.0000E+00  0.0000E+00  0.0000E+00  0.0000E+00  0.0000E+00  0.0000E+00
    -41.276  0.0000E+00  0.0000E+00  0.0000E+00  0.0000E+00  0.0000E+00  0.0000E+00  0.0000E+00  0.0000E+00  0.0000E+00  0.0000E+00  0.0000E+00  0.0000E+00  0.0000E+00  0.0000E+00  0.0000E+00  0.0000E+00  0.0000E+00  0.0000E+00
    -41.068  0.0000E+00  0.0000E+00  0.0000E+00  0.0000E+00  0.0000E+00  0.0000E+00  0.0000E+00  0.0000E+00  0.0000E+00  0.0000E+00  0.0000E+00  0.0000E+00  0.0000E+00  0.0000E+00  0.0000E+00  0.0000E+00  0.0000E+00  0.0000E+00
    -40.859  0.0000E+00  0.0000E+00  0.0000E+00  0.0000E+00  0.0000E+00  0.0000E+00  0.0000E+00  0.0000E+00  0.0000E+00  0.0000E+00  0.0000E+00  0.0000E+00  0.0000E+00  0.0000E+00  0.0000E+00  0.0000E+00  0.0000E+00  0.0000E+00
    -40.650  0.0000E+00  0.0000E+00  0.0000E+00  0.0000E+00  0.0000E+00  0.0000E+00  0.0000E+00  0.0000E+00  0.0000E+00  0.0000E+00  0.0000E+00  0.0000E+00  0.0000E+00  0.0000E+00  0.0000E+00  0.0000E+00  0.0000E+00  0.0000E+00
    -40.442  0.0000E+00  0.0000E+00  0.0000E+00  0.0000E+00  0.0000E+00  0.0000E+00  0.0000E+00  0.0000E+00  0.0000E+00  0.0000E+00  0.0000E+00  0.0000E+00  0.0000E+00  0.0000E+00  0.0000E+00  0.0000E+00  0.0000E+00  0.0000E+00
    -40.233  0.0000E+00  0.0000E+00  0.0000E+00  0.0000E+00  0.0000E+00  0.0000E+00  0.0000E+00  0.0000E+00  0.0000E+00  0.0000E+00  0.0000E+00  0.0000E+00  0.0000E+00  0.0000E+00  0.0000E+00  0.0000E+00  0.0000E+00  0.0000E+00
    -40.024  0.0000E+00  0.0000E+00  0.0000E+00  0.0000E+00  0.0000E+00  0.0000E+00  0.0000E+00  0.0000E+00  0.0000E+00  0.0000E+00  0.0000E+00  0.0000E+00  0.0000E+00  0.0000E+00  0.0000E+00  0.0000E+00  0.0000E+00  0.0000E+00
    -39.815  0.0000E+00  0.0000E+00  0.0000E+00  0.0000E+00  0.0000E+00  0.0000E+00  0.0000E+00  0.0000E+00  0.0000E+00  0.0000E+00  0.0000E+00  0.0000E+00  0.0000E+00  0.0000E+00  0.0000E+00  0.0000E+00  0.0000E+00  0.0000E+00
    -39.607  0.0000E+00  0.0000E+00  0.0000E+00  0.0000E+00  0.0000E+00  0.0000E+00  0.0000E+00  0.0000E+00  0.0000E+00  0.0000E+00  0.0000E+00  0.0000E+00  0.0000E+00  0.0000E+00  0.0000E+00  0.0000E+00  0.0000E+00  0.0000E+00
    -39.398  0.0000E+00  0.0000E+00  0.0000E+00  0.0000E+00  0.0000E+00  0.0000E+00  0.0000E+00  0.0000E+00  0.0000E+00  0.0000E+00  0.0000E+00  0.0000E+00  0.0000E+00  0.0000E+00  0.0000E+00  0.0000E+00  0.0000E+00  0.0000E+00