   2   2   1   0
  0.1893743E+02  0.3358281E-09  0.3358281E-09  0.3358281E-09  0.5000000E-15
  1.000000000000000E-004
  CAR 
 unknown system                          
     16.03021496    -48.53418732  301      0.84800547      1.00000000
    -48.534  0.0000E+00  0.0000E+00  0.0000E+00  0.0000E+00
    -48.319  0.0000E+00  0.0000E+00  0.0000E+00  0.0000E+00
    -48.104  0.0000E+00  0.0000E+00  0.0000E+00  0.0000E+00
    -47.889  0.0000E+00  0.0000E+00  0.0000E+00  0.0000E+00
    -47.673  0.0000E+00  0.0000E+00  0.0000E+00  0.0000E+00
    -47.458  0.0000E+00  0.0000E+00  0.0000E+00  0.0000E+00
    -47.243  0.0000E+00  0.0000E+00  0.0000E+00  0.0000E+00
    -47.028  0.0000E+00  0.0000E+00  0.0000E+00  0.0000E+00
    -46.812  0.0000E+00  0.0000E+00  0.0000E+00  0.0000E+00
    -46.597  0.0000E+00  0.0000E+00  0.0000E+00  0.0000E+00
    -46.382  0.0000E+00  0.0000E+00  0.0000E+00  0.0000E+00
    -46.167  0.6809E-04  0.6329E-04  0.1465E-04  0.1362E-04
    -45.952  0.4969E-02  0.4619E-02  0.1084E-02  0.1008E-02
    -45.736  0.3533E+00  0.3293E+00  0.7711E-01  0.7187E-01
    -45.521  0.6564E+01  0.6457E+01  0.1490E+01  0.1462E+01
    -45.306  0.2328E+01  0.2456E+01  0.1991E+01  0.1990E+01
    -45.091  0.0000E+00  0.0000E+00  0.2000E+01  0.2000E+01
    -44.876  0.0000E+00  0.0000E+00  0.2000E+01  0.2000E+01
    -44.660  0.0000E+00  0.0000E+00  0.2000E+01  0.2000E+01
    -44.445  0.0000E+00  0.0000E+00  0.2000E+01  0.2000E+01
    -44.230  0.0000E+00  0.0000E+00  0.2000E+01  0.2000E+01
    -44.015  0.0000E+00  0.0000E+00  0.2000E+01  0.2000E+01
    -43.799  0.0000E+00  0.0000E+00  0.2000E+01  0.2000E+01
    -43.584  0.0000E+00  0.0000E+00  0.2000E+01  0.2000E+01
    -43.369  0.0000E+00  0.0000E+00  0.2000E+01  0.2000E+01
    -43.154  0.0000E+00  0.0000E+00  0.2000E+01  0.2000E+01
    -42.939  0.0000E+00  0.0000E+00  0.2000E+01  0.2000E+01
    -42.723  0.0000E+00  0.0000E+00  0.2000E+01  0.2000E+01
    -42.508  0.0000E+00  0.0000E+00  0.2000E+01  0.2000E+01
    -42.293  0.0000E+00  0.0000E+00  0.2000E+01  0.2000E+01
    -42.078  0.0000E+00  0.0000E+00  0.2000E+01  0.2000E+01
    -41.863  0.0000E+00  0.0000E+00  0.2000E+01  0.2000E+01
    -41.647  0.0000E+00  0.0000E+00  0.2000E+01  0.2000E+01
    -41.432  0.0000E+00  0.0000E+00  0.2000E+01  0.2000E+01
    -41.217  0.0000E+00  0.0000E+00  0.2000E+01  0.2000E+01
    -41.002  0.0000E+00  0.0000E+00  0.2000E+01  0.2000E+01
    -40.786  0.0000E+00  0.0000E+00  0.2000E+01  0.2000E+01
    -40.571  0.0000E+00  0.0000E+00  0.2000E+01  0.2000E+01
    -40.356  0.0000E+00  0.0000E+00  0.2000E+01  0.2000E+01
    -40.141  0.0000E+00  0.0000E+00  0.2000E+01  0.2000E+01
    -39.926  0.0000E+00  0.0000E+00  0.2000E+01  0.2000E+01
    -39.710  0.0000E+00  0.0000E+00  0.2000E+01  0.2000E+01
    -39.495  0.0000E+00  0.0000E+00  0.2000E+01  0.2000E+01
    -39.280  0.0000E+00  0.0000E+00  0.2000E+01  0.2000E+01
    -39.065  0.0000E+00  0.0000E+00  0.2000E+01  0.2000E+01
    -38.850  0.0000E+00  0.0000E+00  0.2000E+01  0.2000E+01
    -38.634  0.0000E+00  0.0000E+00  0.2000E+01  0.2000E+01
    -38.419  0.0000E+00  0.0000E+00  0.2000E+01  0.2000E+01
    -38.204  0.0000E+00  0.0000E+00  0.2000E+01  0.2000E+01
    -37.989  0.0000E+00  0.0000E+00  0.2000E+01  0.2000E+01
    -37.773  0.0000E+00  0.0000E+00  0.2000E+01  0.2000E+01
    -37.558  0.0000E+00  0.0000E+00  0.2000E+01  0.2000E+01
    -37.343  0.0000E+00  0.0000E+00  0.2000E+01  0.2000E+01
    -37.128  0.0000E+00  0.0000E+00  0.2000E+01  0.2000E+01
    -36.913  0.0000E+00  0.0000E+00  0.2000E+01  0.2000E+01
    -36.697  0.0000E+00  0.0000E+00  0.2000E+01  0.2000E+01
    -36.482  0.0000E+00  0.0000E+00  0.2000E+01  0.2000E+01
    -36.267  0.0000E+00  0.0000E+00  0.2000E+01  0.2000E+01
    -36.052  0.0000E+00  0.0000E+00  0.2000E+01  0.2000E+01
    -35.837  0.0000E+00  0.0000E+00  0.2000E+01  0.2000E+01
    -35.621  0.0000E+00  0.0000E+00  0.2000E+01  0.2000E+01
    -35.406  0.0000E+00  0.0000E+00  0.2000E+01  0.2000E+01
    -35.191  0.0000E+00  0.0000E+00  0.2000E+01  0.2000E+01
    -34.976  0.0000E+00  0.0000E+00  0.2000E+01  0.2000E+01
    -34.760  0.0000E+00  0.0000E+00  0.2000E+01  0.2000E+01
    -34.545  0.0000E+00  0.0000E+00  0.2000E+01  0.2000E+01
    -34.330  0.0000E+00  0.0000E+00  0.2000E+01  0.2000E+01
    -34.115  0.0000E+00  0.0000E+00  0.2000E+01  0.2000E+01
    -33.900  0.0000E+00  0.0000E+00  0.2000E+01  0.2000E+01
    -33.684  0.0000E+00  0.0000E+00  0.2000E+01  0.2000E+01
    -33.469  0.0000E+00  0.0000E+00  0.2000E+01  0.2000E+01
    -33.254  0.0000E+00  0.0000E+00  0.2000E+01  0.2000E+01
    -33.039  0.0000E+00  0.0000E+00  0.2000E+01  0.2000E+01
    -32.824  0.0000E+00  0.0000E+00  0.2000E+01  0.2000E+01
    -32.608  0.0000E+00  0.0000E+00  0.2000E+01  0.2000E+01
    -32.393  0.0000E+00  0.0000E+00  0.2000E+01  0.2000E+01
    -32.178  0.0000E+00  0.0000E+00  0.2000E+01  0.2000E+01
    -31.963  0.0000E+00  0.0000E+00  0.2000E+01  0.2000E+01
    -31.747  0.0000E+00  0.0000E+00  0.2000E+01  0.2000E+01
    -31.532  0.0000E+00  0.0000E+00  0.2000E+01  0.2000E+01
    -31.317  0.0000E+00  0.0000E+00  0.2000E+01  0.2000E+01
    -31.102  0.0000E+00  0.0000E+00  0.2000E+01  0.2000E+01
    -30.887  0.0000E+00  0.0000E+00  0.2000E+01  0.2000E+01
    -30.671  0.0000E+00  0.0000E+00  0.2000E+01  0.2000E+01
    -30.456  0.0000E+00  0.0000E+00  0.2000E+01  0.2000E+01
    -30.241  0.0000E+00  0.0000E+00  0.2000E+01  0.2000E+01
    -30.026  0.0000E+00  0.0000E+00  0.2000E+01  0.2000E+01
    -29.811  0.0000E+00  0.0000E+00  0.2000E+01  0.2000E+01
    -29.595  0.0000E+00  0.0000E+00  0.2000E+01  0.2000E+01
    -29.380  0.0000E+00  0.0000E+00  0.2000E+01  0.2000E+01
    -29.165  0.0000E+00  0.0000E+00  0.2000E+01  0.2000E+01
    -28.950  0.0000E+00  0.0000E+00  0.2000E+01  0.2000E+01
    -28.734  0.0000E+00  0.0000E+00  0.2000E+01  0.2000E+01
    -28.519  0.0000E+00  0.0000E+00  0.2000E+01  0.2000E+01
    -28.304  0.0000E+00  0.0000E+00  0.2000E+01  0.2000E+01
    -28.089  0.0000E+00  0.0000E+00  0.2000E+01  0.2000E+01
    -27.874  0.0000E+00  0.0000E+00  0.2000E+01  0.2000E+01
    -27.658  0.0000E+00  0.0000E+00  0.2000E+01  0.2000E+01
    -27.443  0.0000E+00  0.0000E+00  0.2000E+01  0.2000E+01
    -27.228  0.0000E+00  0.0000E+00  0.2000E+01  0.2000E+01
    -27.013  0.0000E+00  0.0000E+00  0.2000E+01  0.2000E+01
    -26.798  0.0000E+00  0.0000E+00  0.2000E+01  0.2000E+01
    -26.582  0.0000E+00  0.0000E+00  0.2000E+01  0.2000E+01
    -26.367  0.0000E+00  0.0000E+00  0.2000E+01  0.2000E+01
    -26.152  0.0000E+00  0.0000E+00  0.2000E+01  0.2000E+01
    -25.937  0.0000E+00  0.0000E+00  0.2000E+01  0.2000E+01
    -25.721  0.0000E+00  0.0000E+00  0.2000E+01  0.2000E+01
    -25.506  0.0000E+00  0.0000E+00  0.2000E+01  0.2000E+01
    -25.291  0.0000E+00  0.0000E+00  0.2000E+01  0.2000E+01
    -25.076  0.0000E+00  0.0000E+00  0.2000E+01  0.2000E+01
    -24.861  0.0000E+00  0.0000E+00  0.2000E+01  0.2000E+01
    -24.645  0.0000E+00  0.0000E+00  0.2000E+01  0.2000E+01
    -24.430  0.0000E+00  0.0000E+00  0.2000E+01  0.2000E+01
    -24.215  0.0000E+00  0.0000E+00  0.2000E+01  0.2000E+01
    -24.000  0.0000E+00  0.0000E+00  0.2000E+01  0.2000E+01
    -23.784  0.0000E+00  0.0000E+00  0.2000E+01  0.2000E+01
    -23.569  0.0000E+00  0.0000E+00  0.2000E+01  0.2000E+01
    -23.354  0.0000E+00  0.0000E+00  0.2000E+01  0.2000E+01
    -23.139  0.0000E+00  0.0000E+00  0.2000E+01  0.2000E+01
    -22.924  0.0000E+00  0.0000E+00  0.2000E+01  0.2000E+01
    -22.708  0.0000E+00  0.0000E+00  0.2000E+01  0.2000E+01
    -22.493  0.0000E+00  0.0000E+00  0.2000E+01  0.2000E+01
    -22.278  0.0000E+00  0.0000E+00  0.2000E+01  0.2000E+01
    -22.063  0.0000E+00  0.0000E+00  0.2000E+01  0.2000E+01
    -21.848  0.0000E+00  0.0000E+00  0.2000E+01  0.2000E+01
    -21.632  0.0000E+00  0.0000E+00  0.2000E+01  0.2000E+01
    -21.417  0.0000E+00  0.0000E+00  0.2000E+01  0.2000E+01
    -21.202  0.0000E+00  0.0000E+00  0.2000E+01  0.2000E+01
    -20.987  0.0000E+00  0.0000E+00  0.2000E+01  0.2000E+01
    -20.771  0.0000E+00  0.0000E+00  0.2000E+01  0.2000E+01
    -20.556  0.0000E+00  0.0000E+00  0.2000E+01  0.2000E+01
    -20.341  0.0000E+00  0.0000E+00  0.2000E+01  0.2000E+01
    -20.126  0.0000E+00  0.0000E+00  0.2000E+01  0.2000E+01
    -19.911  0.0000E+00  0.0000E+00  0.2000E+01  0.2000E+01
    -19.695  0.0000E+00  0.0000E+00  0.2000E+01  0.2000E+01
    -19.480  0.0000E+00  0.0000E+00  0.2000E+01  0.2000E+01
    -19.265  0.0000E+00  0.0000E+00  0.2000E+01  0.2000E+01
    -19.050  0.0000E+00  0.0000E+00  0.2000E+01  0.2000E+01
    -18.835  0.0000E+00  0.0000E+00  0.2000E+01  0.2000E+01
    -18.619  0.0000E+00  0.0000E+00  0.2000E+01  0.2000E+01
    -18.404  0.0000E+00  0.0000E+00  0.2000E+01  0.2000E+01
    -18.189  0.0000E+00  0.0000E+00  0.2000E+01  0.2000E+01
    -17.974  0.0000E+00  0.0000E+00  0.2000E+01  0.2000E+01
    -17.758  0.0000E+00  0.0000E+00  0.2000E+01  0.2000E+01
    -17.543  0.0000E+00  0.0000E+00  0.2000E+01  0.2000E+01
    -17.328  0.0000E+00  0.0000E+00  0.2000E+01  0.2000E+01
    -17.113  0.0000E+00  0.0000E+00  0.2000E+01  0.2000E+01
    -16.898  0.0000E+00  0.0000E+00  0.2000E+01  0.2000E+01
    -16.682  0.0000E+00  0.0000E+00  0.2000E+01  0.2000E+01
    -16.467  0.0000E+00  0.0000E+00  0.2000E+01  0.2000E+01
    -16.252  0.0000E+00  0.0000E+00  0.2000E+01  0.2000E+01
    -16.037  0.0000E+00  0.0000E+00  0.2000E+01  0.2000E+01
    -15.822  0.0000E+00  0.0000E+00  0.2000E+01  0.2000E+01
    -15.606  0.0000E+00  0.0000E+00  0.2000E+01  0.2000E+01
    -15.391  0.0000E+00  0.0000E+00  0.2000E+01  0.2000E+01
    -15.176  0.0000E+00  0.0000E+00  0.2000E+01  0.2000E+01
    -14.961  0.0000E+00  0.0000E+00  0.2000E+01  0.2000E+01
    -14.745  0.0000E+00  0.0000E+00  0.2000E+01  0.2000E+01
    -14.530  0.0000E+00  0.0000E+00  0.2000E+01  0.2000E+01
    -14.315  0.0000E+00  0.0000E+00  0.2000E+01  0.2000E+01
    -14.100  0.0000E+00  0.0000E+00  0.2000E+01  0.2000E+01
    -13.885  0.0000E+00  0.0000E+00  0.2000E+01  0.2000E+01
    -13.669  0.0000E+00  0.0000E+00  0.2000E+01  0.2000E+01
    -13.454  0.0000E+00  0.0000E+00  0.2000E+01  0.2000E+01
    -13.239  0.0000E+00  0.0000E+00  0.2000E+01  0.2000E+01
    -13.024  0.0000E+00  0.0000E+00  0.2000E+01  0.2000E+01
    -12.809  0.0000E+00  0.0000E+00  0.2000E+01  0.2000E+01
    -12.593  0.0000E+00  0.0000E+00  0.2000E+01  0.2000E+01
    -12.378  0.0000E+00  0.0000E+00  0.2000E+01  0.2000E+01
    -12.163  0.0000E+00  0.0000E+00  0.2000E+01  0.2000E+01
    -11.948  0.0000E+00  0.0000E+00  0.2000E+01  0.2000E+01
    -11.732  0.0000E+00  0.0000E+00  0.2000E+01  0.2000E+01
    -11.517  0.0000E+00  0.0000E+00  0.2000E+01  0.2000E+01
    -11.302  0.0000E+00  0.0000E+00  0.2000E+01  0.2000E+01
    -11.087  0.0000E+00  0.0000E+00  0.2000E+01  0.2000E+01
    -10.872  0.0000E+00  0.0000E+00  0.2000E+01  0.2000E+01
    -10.656  0.0000E+00  0.0000E+00  0.2000E+01  0.2000E+01
    -10.441  0.0000E+00  0.0000E+00  0.2000E+01  0.2000E+01
    -10.226  0.0000E+00  0.0000E+00  0.2000E+01  0.2000E+01
    -10.011  0.0000E+00  0.0000E+00  0.2000E+01  0.2000E+01
     -9.796  0.0000E+00  0.0000E+00  0.2000E+01  0.2000E+01
     -9.580  0.0000E+00  0.0000E+00  0.2000E+01  0.2000E+01
     -9.365  0.0000E+00  0.0000E+00  0.2000E+01  0.2000E+01
     -9.150  0.0000E+00  0.0000E+00  0.2000E+01  0.2000E+01
     -8.935  0.0000E+00  0.0000E+00  0.2000E+01  0.2000E+01
     -8.719  0.0000E+00  0.0000E+00  0.2000E+01  0.2000E+01
     -8.504  0.0000E+00  0.0000E+00  0.2000E+01  0.2000E+01
     -8.289  0.0000E+00  0.0000E+00  0.2000E+01  0.2000E+01
     -8.074  0.0000E+00  0.0000E+00  0.2000E+01  0.2000E+01
     -7.859  0.0000E+00  0.0000E+00  0.2000E+01  0.2000E+01
     -7.643  0.0000E+00  0.0000E+00  0.2000E+01  0.2000E+01
     -7.428  0.0000E+00  0.0000E+00  0.2000E+01  0.2000E+01
     -7.213  0.0000E+00  0.0000E+00  0.2000E+01  0.2000E+01
     -6.998  0.0000E+00  0.0000E+00  0.2000E+01  0.2000E+01
     -6.783  0.0000E+00  0.0000E+00  0.2000E+01  0.2000E+01
     -6.567  0.0000E+00  0.0000E+00  0.2000E+01  0.2000E+01
     -6.352  0.0000E+00  0.0000E+00  0.2000E+01  0.2000E+01
     -6.137  0.0000E+00  0.0000E+00  0.2000E+01  0.2000E+01
     -5.922  0.0000E+00  0.0000E+00  0.2000E+01  0.2000E+01
     -5.706  0.0000E+00  0.0000E+00  0.2000E+01  0.2000E+01
     -5.491  0.0000E+00  0.0000E+00  0.2000E+01  0.2000E+01
     -5.276  0.0000E+00  0.0000E+00  0.2000E+01  0.2000E+01
     -5.061  0.0000E+00  0.0000E+00  0.2000E+01  0.2000E+01
     -4.846  0.0000E+00  0.0000E+00  0.2000E+01  0.2000E+01
     -4.630  0.0000E+00  0.0000E+00  0.2000E+01  0.2000E+01
     -4.415  0.0000E+00  0.0000E+00  0.2000E+01  0.2000E+01
     -4.200  0.0000E+00  0.0000E+00  0.2000E+01  0.2000E+01
     -3.985  0.0000E+00  0.0000E+00  0.2000E+01  0.2000E+01
     -3.770  0.0000E+00  0.0000E+00  0.2000E+01  0.2000E+01
     -3.554  0.0000E+00  0.0000E+00  0.2000E+01  0.2000E+01
     -3.339  0.2187E-06  0.2087E-06  0.2000E+01  0.2000E+01
     -3.124  0.2487E-04  0.2374E-04  0.2000E+01  0.2000E+01
     -2.909  0.1721E-02  0.1648E-02  0.2000E+01  0.2000E+01
     -2.693  0.3572E-01  0.3505E-01  0.2008E+01  0.2008E+01
     -2.478  0.1018E+00  0.1012E+00  0.2030E+01  0.2030E+01
     -2.263  0.1356E+00  0.1350E+00  0.2059E+01  0.2059E+01
     -2.048  0.1716E+00  0.1714E+00  0.2096E+01  0.2096E+01
     -1.833  0.1816E+00  0.1811E+00  0.2136E+01  0.2135E+01
     -1.617  0.2375E+00  0.2374E+00  0.2187E+01  0.2187E+01
     -1.402  0.1988E+00  0.1986E+00  0.2230E+01  0.2230E+01
     -1.187  0.2867E+00  0.2862E+00  0.2292E+01  0.2292E+01
     -0.972  0.2586E+00  0.2594E+00  0.2348E+01  0.2348E+01
     -0.757  0.2904E+00  0.2899E+00  0.2411E+01  0.2411E+01
     -0.541  0.2909E+00  0.2915E+00  0.2474E+01  0.2474E+01
     -0.326  0.3714E+00  0.3716E+00  0.2555E+01  0.2554E+01
     -0.111  0.2972E+00  0.2982E+00  0.2619E+01  0.2618E+01
      0.104  0.3565E+00  0.3544E+00  0.2695E+01  0.2694E+01
      0.320  0.4145E+00  0.4149E+00  0.2785E+01  0.2784E+01
      0.535  0.4031E+00  0.4021E+00  0.2872E+01  0.2871E+01
      0.750  0.4141E+00  0.4148E+00  0.2962E+01  0.2961E+01
      0.965  0.3948E+00  0.3937E+00  0.3048E+01  0.3047E+01
      1.180  0.6442E+00  0.6436E+00  0.3187E+01  0.3186E+01
      1.396  0.5178E+00  0.5173E+00  0.3299E+01  0.3298E+01
      1.611  0.5405E+00  0.5417E+00  0.3416E+01  0.3415E+01
      1.826  0.3770E+00  0.3787E+00  0.3498E+01  0.3498E+01
      2.041  0.2529E+00  0.2506E+00  0.3553E+01  0.3552E+01
      2.256  0.5794E+00  0.5796E+00  0.3678E+01  0.3677E+01
      2.472  0.3088E+00  0.3112E+00  0.3745E+01  0.3744E+01
      2.687  0.2017E+00  0.2012E+00  0.3789E+01  0.3788E+01
      2.902  0.1503E+00  0.1520E+00  0.3821E+01  0.3821E+01
      3.117  0.1326E+00  0.1315E+00  0.3850E+01  0.3850E+01
      3.333  0.3181E+00  0.3172E+00  0.3919E+01  0.3918E+01
      3.548  0.1147E+00  0.1170E+00  0.3944E+01  0.3944E+01
      3.763  0.4457E-01  0.4417E-01  0.3954E+01  0.3953E+01
      3.978  0.1421E+00  0.1414E+00  0.3984E+01  0.3984E+01
      4.193  0.2336E+00  0.2306E+00  0.4034E+01  0.4033E+01
      4.409  0.6235E+00  0.6201E+00  0.4169E+01  0.4167E+01
      4.624  0.7875E+00  0.7857E+00  0.4339E+01  0.4337E+01
      4.839  0.6046E+00  0.6095E+00  0.4470E+01  0.4469E+01
      5.054  0.3073E+00  0.3077E+00  0.4537E+01  0.4536E+01
      5.269  0.6256E+00  0.6203E+00  0.4673E+01  0.4671E+01
      5.485  0.6014E+00  0.6080E+00  0.4802E+01  0.4802E+01
      5.700  0.2719E+00  0.2730E+00  0.4862E+01  0.4862E+01
      5.915  0.2339E+00  0.2328E+00  0.4912E+01  0.4912E+01
      6.130  0.6082E+00  0.6029E+00  0.5044E+01  0.5042E+01
      6.346  0.5397E+00  0.5450E+00  0.5160E+01  0.5159E+01
      6.561  0.2153E+00  0.2152E+00  0.5207E+01  0.5207E+01
      6.776  0.2851E+00  0.2854E+00  0.5269E+01  0.5268E+01
      6.991  0.3397E+00  0.3368E+00  0.5342E+01  0.5341E+01
      7.206  0.6808E+00  0.6797E+00  0.5489E+01  0.5488E+01
      7.422  0.6847E+00  0.6843E+00  0.5637E+01  0.5635E+01
      7.637  0.5425E+00  0.5452E+00  0.5754E+01  0.5753E+01
      7.852  0.5145E+00  0.5130E+00  0.5866E+01  0.5865E+01
      8.067  0.4607E+00  0.4628E+00  0.5966E+01  0.5964E+01
      8.282  0.8140E+00  0.8106E+00  0.6142E+01  0.6140E+01
      8.498  0.6154E+00  0.6197E+00  0.6275E+01  0.6274E+01
      8.713  0.3847E+00  0.3848E+00  0.6359E+01  0.6358E+01
      8.928  0.5148E+00  0.5159E+00  0.6470E+01  0.6469E+01
      9.143  0.3835E+00  0.3818E+00  0.6553E+01  0.6552E+01
      9.359  0.6500E+00  0.6476E+00  0.6693E+01  0.6692E+01
      9.574  0.6173E+00  0.6183E+00  0.6827E+01  0.6825E+01
      9.789  0.3707E+00  0.3742E+00  0.6908E+01  0.6907E+01
     10.004  0.3039E+00  0.3030E+00  0.6975E+01  0.6974E+01
     10.219  0.3592E+00  0.3575E+00  0.7053E+01  0.7051E+01
     10.435  0.5704E+00  0.5687E+00  0.7176E+01  0.7174E+01
     10.650  0.6440E+00  0.6451E+00  0.7315E+01  0.7314E+01
     10.865  0.3589E+00  0.3621E+00  0.7393E+01  0.7392E+01
     11.080  0.2480E+00  0.2475E+00  0.7447E+01  0.7446E+01
     11.295  0.3683E+00  0.3660E+00  0.7526E+01  0.7525E+01
     11.511  0.4298E+00  0.4312E+00  0.7619E+01  0.7619E+01
     11.726  0.3898E+00  0.3896E+00  0.7704E+01  0.7703E+01
     11.941  0.4148E+00  0.4137E+00  0.7793E+01  0.7792E+01
     12.156  0.3127E+00  0.3146E+00  0.7861E+01  0.7860E+01
     12.372  0.2010E+00  0.2000E+00  0.7904E+01  0.7904E+01
     12.587  0.1233E+00  0.1273E+00  0.7931E+01  0.7931E+01
     12.802  0.1499E+00  0.1527E+00  0.7964E+01  0.7965E+01
     13.017  0.1019E+00  0.9750E-01  0.7986E+01  0.7986E+01
     13.232  0.6061E-01  0.6176E-01  0.7999E+01  0.7999E+01
     13.448  0.2670E-02  0.3037E-02  0.8000E+01  0.8000E+01
     13.663  0.0000E+00  0.0000E+00  0.8000E+01  0.8000E+01
     13.878  0.0000E+00  0.0000E+00  0.8000E+01  0.8000E+01
     14.093  0.0000E+00  0.0000E+00  0.8000E+01  0.8000E+01
     14.308  0.0000E+00  0.0000E+00  0.8000E+01  0.8000E+01
     14.524  0.0000E+00  0.0000E+00  0.8000E+01  0.8000E+01
     14.739  0.0000E+00  0.0000E+00  0.8000E+01  0.8000E+01
     14.954  0.0000E+00  0.0000E+00  0.8000E+01  0.8000E+01
     15.169  0.0000E+00  0.0000E+00  0.8000E+01  0.8000E+01
     15.385  0.0000E+00  0.0000E+00  0.8000E+01  0.8000E+01
     15.600  0.0000E+00  0.0000E+00  0.8000E+01  0.8000E+01
     15.815  0.0000E+00  0.0000E+00  0.8000E+01  0.8000E+01
     16.030  0.0000E+00  0.0000E+00  0.8000E+01  0.8000E+01
     16.03021496    -48.53418732  301      0.84800547      1.00000000
    -48.534  0.0000E+00  0.0000E+00  0.0000E+00  0.0000E+00  0.0000E+00  0.0000E+00  0.0000E+00  0.0000E+00  0.0000E+00  0.0000E+00  0.0000E+00  0.0000E+00  0.0000E+00  0.0000E+00  0.0000E+00  0.0000E+00  0.0000E+00  0.0000E+00
    -48.319  0.0000E+00  0.0000E+00  0.0000E+00  0.0000E+00  0.0000E+00  0.0000E+00  0.0000E+00  0.0000E+00  0.0000E+00  0.0000E+00  0.0000E+00  0.0000E+00  0.0000E+00  0.0000E+00  0.0000E+00  0.0000E+00  0.0000E+00  0.0000E+00
    -48.104  0.0000E+00  0.0000E+00  0.0000E+00  0.0000E+00  0.0000E+00  0.0000E+00  0.0000E+00  0.0000E+00  0.0000E+00  0.0000E+00  0.0000E+00  0.0000E+00  0.0000E+00  0.0000E+00  0.0000E+00  0.0000E+00  0.0000E+00  0.0000E+00
    -47.889  0.0000E+00  0.0000E+00  0.0000E+00  0.0000E+00  0.0000E+00  0.0000E+00  0.0000E+00  0.0000E+00  0.0000E+00  0.0000E+00  0.0000E+00  0.0000E+00  0.0000E+00  0.0000E+00  0.0000E+00  0.0000E+00  0.0000E+00  0.0000E+00
    -47.673  0.0000E+00  0.0000E+00  0.0000E+00  0.0000E+00  0.0000E+00  0.0000E+00  0.0000E+00  0.0000E+00  0.0000E+00  0.0000E+00  0.0000E+00  0.0000E+00  0.0000E+00  0.0000E+00  0.0000E+00  0.0000E+00  0.0000E+00  0.0000E+00
    -47.458  0.0000E+00  0.0000E+00  0.0000E+00  0.0000E+00  0.0000E+00  0.0000E+00  0.0000E+00  0.0000E+00  0.0000E+00  0.0000E+00  0.0000E+00  0.0000E+00  0.0000E+00  0.0000E+00  0.0000E+00  0.0000E+00  0.0000E+00  0.0000E+00
    -47.243  0.0000E+00  0.0000E+00  0.0000E+00  0.0000E+00  0.0000E+00  0.0000E+00  0.0000E+00  0.0000E+00  0.0000E+00  0.0000E+00  0.0000E+00  0.0000E+00  0.0000E+00  0.0000E+00  0.0000E+00  0.0000E+00  0.0000E+00  0.0000E+00
    -47.028  0.0000E+00  0.0000E+00  0.0000E+00  0.0000E+00  0.0000E+00  0.0000E+00  0.0000E+00  0.0000E+00  0.0000E+00  0.0000E+00  0.0000E+00  0.0000E+00  0.0000E+00  0.0000E+00  0.0000E+00  0.0000E+00  0.0000E+00  0.0000E+00
    -46.812  0.0000E+00  0.0000E+00  0.0000E+00  0.0000E+00  0.0000E+00  0.0000E+00  0.0000E+00  0.0000E+00  0.0000E+00  0.0000E+00  0.0000E+00  0.0000E+00  0.0000E+00  0.0000E+00  0.0000E+00  0.0000E+00  0.0000E+00  0.0000E+00
    -46.597  0.0000E+00  0.0000E+00  0.0000E+00  0.0000E+00  0.0000E+00  0.0000E+00  0.0000E+00  0.0000E+00  0.0000E+00  0.0000E+00  0.0000E+00  0.0000E+00  0.0000E+00  0.0000E+00  0.0000E+00  0.0000E+00  0.0000E+00  0.0000E+00
    -46.382  0.0000E+00  0.0000E+00  0.0000E+00  0.0000E+00  0.0000E+00  0.0000E+00  0.0000E+00  0.0000E+00  0.0000E+00  0.0000E+00  0.0000E+00  0.0000E+00  0.0000E+00  0.0000E+00  0.0000E+00  0.0000E+00  0.0000E+00  0.0000E+00
    -46.167  0.3368E-04  0.3131E-04  0.1486E-11  0.1392E-11  0.1486E-11  0.1392E-11  0.1486E-11  0.1392E-11  0.0000E+00  0.0000E+00  0.0000E+00  0.0000E+00  0.0000E+00  0.0000E+00  0.0000E+00  0.0000E+00  0.0000E+00  0.0000E+00
    -45.952  0.2458E-02  0.2285E-02  0.1084E-09  0.1016E-09  0.1084E-09  0.1016E-09  0.1084E-09  0.1016E-09  0.0000E+00  0.0000E+00  0.0000E+00  0.0000E+00  0.0000E+00  0.0000E+00  0.0000E+00  0.0000E+00  0.0000E+00  0.0000E+00
    -45.736  0.1747E+00  0.1629E+00  0.7698E-08  0.7231E-08  0.7698E-08  0.7231E-08  0.7698E-08  0.7231E-08  0.0000E+00  0.0000E+00  0.0000E+00  0.0000E+00  0.0000E+00  0.0000E+00  0.0000E+00  0.0000E+00  0.0000E+00  0.0000E+00
    -45.521  0.3247E+01  0.3194E+01  0.1392E-06  0.1384E-06  0.1392E-06  0.1384E-06  0.1392E-06  0.1384E-06  0.0000E+00  0.0000E+00  0.0000E+00  0.0000E+00  0.0000E+00  0.0000E+00  0.0000E+00  0.0000E+00  0.0000E+00  0.0000E+00
    -45.306  0.1152E+01  0.1215E+01  0.4781E-07  0.5112E-07  0.4781E-07  0.5112E-07  0.4781E-07  0.5112E-07  0.0000E+00  0.0000E+00  0.0000E+00  0.0000E+00  0.0000E+00  0.0000E+00  0.0000E+00  0.0000E+00  0.0000E+00  0.0000E+00
    -45.091  0.0000E+00  0.0000E+00  0.0000E+00  0.0000E+00  0.0000E+00  0.0000E+00  0.0000E+00  0.0000E+00  0.0000E+00  0.0000E+00  0.0000E+00  0.0000E+00  0.0000E+00  0.0000E+00  0.0000E+00  0.0000E+00  0.0000E+00  0.0000E+00
    -44.876  0.0000E+00  0.0000E+00  0.0000E+00  0.0000E+00  0.0000E+00  0.0000E+00  0.0000E+00  0.0000E+00  0.0000E+00  0.0000E+00  0.0000E+00  0.0000E+00  0.0000E+00  0.0000E+00  0.0000E+00  0.0000E+00  0.0000E+00  0.0000E+00
    -44.660  0.0000E+00  0.0000E+00  0.0000E+00  0.0000E+00  0.0000E+00  0.0000E+00  0.0000E+00  0.0000E+00  0.0000E+00  0.0000E+00  0.0000E+00  0.0000E+00  0.0000E+00  0.0000E+00  0.0000E+00  0.0000E+00  0.0000E+00  0.0000E+00
    -44.445  0.0000E+00  0.0000E+00  0.0000E+00  0.0000E+00  0.0000E+00  0.0000E+00  0.0000E+00  0.0000E+00  0.0000E+00  0.0000E+00  0.0000E+00  0.0000E+00  0.0000E+00  0.0000E+00  0.0000E+00  0.0000E+00  0.0000E+00  0.0000E+00
    -44.230  0.0000E+00  0.0000E+00  0.0000E+00  0.0000E+00  0.0000E+00  0.0000E+00  0.0000E+00  0.0000E+00  0.0000E+00  0.0000E+00  0.0000E+00  0.0000E+00  0.0000E+00  0.0000E+00  0.0000E+00  0.0000E+00  0.0000E+00  0.0000E+00
    -44.015  0.0000E+00  0.0000E+00  0.0000E+00  0.0000E+00  0.0000E+00  0.0000E+00  0.0000E+00  0.0000E+00  0.0000E+00  0.0000E+00  0.0000E+00  0.0000E+00  0.0000E+00  0.0000E+00  0.0000E+00  0.0000E+00  0.0000E+00  0.0000E+00
    -43.799  0.0000E+00  0.0000E+00  0.0000E+00  0.0000E+00  0.0000E+00  0.0000E+00  0.0000E+00  0.0000E+00  0.0000E+00  0.0000E+00  0.0000E+00  0.0000E+00  0.0000E+00  0.0000E+00  0.0000E+00  0.0000E+00  0.0000E+00  0.0000E+00
    -43.584  0.0000E+00  0.0000E+00  0.0000E+00  0.0000E+00  0.0000E+00  0.0000E+00  0.0000E+00  0.0000E+00  0.0000E+00  0.0000E+00  0.0000E+00  0.0000E+00  0.0000E+00  0.0000E+00  0.0000E+00  0.0000E+00  0.0000E+00  0.0000E+00
    -43.369  0.0000E+00  0.0000E+00  0.0000E+00  0.0000E+00  0.0000E+00  0.0000E+00  0.0000E+00  0.0000E+00  0.0000E+00  0.0000E+00  0.0000E+00  0.0000E+00  0.0000E+00  0.0000E+00  0.0000E+00  0.0000E+00  0.0000E+00  0.0000E+00
    -43.154  0.0000E+00  0.0000E+00  0.0000E+00  0.0000E+00  0.0000E+00  0.0000E+00  0.0000E+00  0.0000E+00  0.0000E+00  0.0000E+00  0.0000E+00  0.0000E+00  0.0000E+00  0.0000E+00  0.0000E+00  0.0000E+00  0.0000E+00  0.0000E+00
    -42.939  0.0000E+00  0.0000E+00  0.0000E+00  0.0000E+00  0.0000E+00  0.0000E+00  0.0000E+00  0.0000E+00  0.0000E+00  0.0000E+00  0.0000E+00  0.0000E+00  0.0000E+00  0.0000E+00  0.0000E+00  0.0000E+00  0.0000E+00  0.0000E+00
    -42.723  0.0000E+00  0.0000E+00  0.0000E+00  0.0000E+00  0.0000E+00  0.0000E+00  0.0000E+00  0.0000E+00  0.0000E+00  0.0000E+00  0.0000E+00  0.0000E+00  0.0000E+00  0.0000E+00  0.0000E+00  0.0000E+00  0.0000E+00  0.0000E+00
    -42.508  0.0000E+00  0.0000E+00  0.0000E+00  0.0000E+00  0.0000E+00  0.0000E+00  0.0000E+00  0.0000E+00  0.0000E+00  0.0000E+00  0.0000E+00  0.0000E+00  0.0000E+00  0.0000E+00  0.0000E+00  0.0000E+00  0.0000E+00  0.0000E+00
    -42.293  0.0000E+00  0.0000E+00  0.0000E+00  0.0000E+00  0.0000E+00  0.0000E+00  0.0000E+00  0.0000E+00  0.0000E+00  0.0000E+00  0.0000E+00  0.0000E+00  0.0000E+00  0.0000E+00  0.0000E+00  0.0000E+00  0.0000E+00  0.0000E+00
    -42.078  0.0000E+00  0.0000E+00  0.0000E+00  0.0000E+00  0.0000E+00  0.0000E+00  0.0000E+00  0.0000E+00  0.0000E+00  0.0000E+00  0.0000E+00  0.0000E+00  0.0000E+00  0.0000E+00  0.0000E+00  0.0000E+00  0.0000E+00  0.0000E+00
    -41.863  0.0000E+00  0.0000E+00  0.0000E+00  0.0000E+00  0.0000E+00  0.0000E+00  0.0000E+00  0.0000E+00  0.0000E+00  0.0000E+00  0.0000E+00  0.0000E+00  0.0000E+00  0.0000E+00  0.0000E+00  0.0000E+00  0.0000E+00  0.0000E+00
    -41.647  0.0000E+00  0.0000E+00  0.0000E+00  0.0000E+00  0.0000E+00  0.0000E+00  0.0000E+00  0.0000E+00  0.0000E+00  0.0000E+00  0.0000E+00  0.0000E+00  0.0000E+00  0.0000E+00  0.0000E+00  0.0000E+00  0.0000E+00  0.0000E+00
    -41.432  0.0000E+00  0.0000E+00  0.0000E+00  0.0000E+00  0.0000E+00  0.0000E+00  0.0000E+00  0.0000E+00  0.0000E+00  0.0000E+00  0.0000E+00  0.0000E+00  0.0000E+00  0.0000E+00  0.0000E+00  0.0000E+00  0.0000E+00  0.0000E+00
    -41.217  0.0000E+00  0.0000E+00  0.0000E+00  0.0000E+00  0.0000E+00  0.0000E+00  0.0000E+00  0.0000E+00  0.0000E+00  0.0000E+00  0.0000E+00  0.0000E+00  0.0000E+00  0.0000E+00  0.0000E+00  0.0000E+00  0.0000E+00  0.0000E+00
    -41.002  0.0000E+00  0.0000E+00  0.0000E+00  0.0000E+00  0.0000E+00  0.0000E+00  0.0000E+00  0.0000E+00  0.0000E+00  0.0000E+00  0.0000E+00  0.0000E+00  0.0000E+00  0.0000E+00  0.0000E+00  0.0000E+00  0.0000E+00  0.0000E+00
    -40.786  0.0000E+00  0.0000E+00  0.0000E+00  0.0000E+00  0.0000E+00  0.0000E+00  0.0000E+00  0.0000E+00  0.0000E+00  0.0000E+00  0.0000E+00  0.0000E+00  0.0000E+00  0.0000E+00  0.0000E+00  0.0000E+00  0.0000E+00  0.0000E+00
    -40.571  0.0000E+00  0.0000E+00  0.0000E+00  0.0000E+00  0.0000E+00  0.0000E+00  0.0000E+00  0.0000E+00  0.0000E+00  0.0000E+00  0.0000E+00  0.0000E+00  0.0000E+00  0.0000E+00  0.0000E+00  0.0000E+00  0.0000E+00  0.0000E+00
    -40.356  0.0000E+00  0.0000E+00  0.0000E+00  0.0000E+00  0.0000E+00  0.0000E+00  0.0000E+00  0.0000E+00  0.0000E+00  0.0000E+00  0.0000E+00  0.0000E+00  0.0000E+00  0.0000E+00  0.0000E+00  0.0000E+00  0.0000E+00  0.0000E+00
    -40.141  0.0000E+00  0.0000E+00  0.0000E+00  0.0000E+00  0.0000E+00  0.0000E+00  0.0000E+00  0.0000E+00  0.0000E+00  0.0000E+00  0.0000E+00  0.0000E+00  0.0000E+00  0.0000E+00  0.0000E+00  0.0000E+00  0.0000E+00  0.0000E+00
    -39.926  0.0000E+00  0.0000E+00  0.0000E+00  0.0000E+00  0.0000E+00  0.0000E+00  0.0000E+00  0.0000E+00  0.0000E+00  0.0000E+00  0.0000E+00  0.0000E+00  0.0000E+00  0.0000E+00  0.0000E+00  0.0000E+00  0.0000E+00  0.0000E+00
    -39.710  0.0000E+00  0.0000E+00  0.0000E+00  0.0000E+00  0.0000E+00  0.0000E+00  0.0000E+00  0.0000E+00  0.0000E+00  0.0000E+00  0.0000E+00  0.0000E+00  0.0000E+00  0.0000E+00  0.0000E+00  0.0000E+00  0.0000E+00  0.0000E+00
    -39.495  0.0000E+00  0.0000E+00  0.0000E+00  0.0000E+00  0.0000E+00  0.0000E+00  0.0000E+00  0.0000E+00  0.0000E+00  0.0000E+00  0.0000E+00  0.0000E+00  0.0000E+00  0.0000E+00  0.0000E+00  0.0000E+00  0.0000E+00  0.0000E+00
    -39.280  0.0000E+00  0.0000E+00  0.0000E+00  0.0000E+00  0.0000E+00  0.0000E+00  0.0000E+00  0.0000E+00  0.0000E+00  0.0000E+00  0.0000E+00  0.0000E+00  0.0000E+00  0.0000E+00  0.0000E+00  0.0000E+00  0.0000E+00  0.0000E+00
    -39.065  0.0000E+00  0.0000E+00  0.0000E+00  0.0000E+00  0.0000E+00  0.0000E+00  0.0000E+00  0.0000E+00  0.0000E+00  0.0000E+00  0.0000E+00  0.0000E+00  0.0000E+00  0.0000E+00  0.0000E+00  0.0000E+00  0.0000E+00  0.0000E+00
    -38.850  0.0000E+00  0.0000E+00  0.0000E+00  0.0000E+00  0.0000E+00  0.0000E+00  0.0000E+00  0.0000E+00  0.0000E+00  0.0000E+00  0.0000E+00  0.0000E+00  0.0000E+00  0.0000E+00  0.0000E+00  0.0000E+00  0.0000E+00  0.0000E+00
    -38.634  0.0000E+00  0.0000E+00  0.0000E+00  0.0000E+00  0.0000E+00  0.0000E+00  0.0000E+00  0.0000E+00  0.0000E+00  0.0000E+00  0.0000E+00  0.0000E+00  0.0000E+00  0.0000E+00  0.0000E+00  0.0000E+00  0.0000E+00  0.0000E+00
    -38.419  0.0000E+00  0.0000E+00  0.0000E+00  0.0000E+00  0.0000E+00  0.0000E+00  0.0000E+00  0.0000E+00  0.0000E+00  0.0000E+00  0.0000E+00  0.0000E+00  0.0000E+00  0.0000E+00  0.0000E+00  0.0000E+00  0.0000E+00  0.0000E+00
    -38.204  0.0000E+00  0.0000E+00  0.0000E+00  0.0000E+00  0.0000E+00  0.0000E+00  0.0000E+00  0.0000E+00  0.0000E+00  0.0000E+00  0.0000E+00  0.0000E+00  0.0000E+00  0.0000E+00  0.0000E+00  0.0000E+00  0.0000E+00  0.0000E+00
    -37.989  0.0000E+00  0.0000E+00  0.0000E+00  0.0000E+00  0.0000E+00  0.0000E+00  0.0000E+00  0.0000E+00  0.0000E+00  0.0000E+00  0.0000E+00  0.0000E+00  0.0000E+00  0.0000E+00  0.0000E+00  0.0000E+00  0.0000E+00  0.0000E+00
    -37.773  0.0000E+00  0.0000E+00  0.0000E+00  0.0000E+00  0.0000E+00  0.0000E+00  0.0000E+00  0.0000E+00  0.0000E+00  0.0000E+00  0.0000E+00  0.0000E+00  0.0000E+00  0.0000E+00  0.0000E+00  0.0000E+00  0.0000E+00  0.0000E+00