   2   2   1   0
  0.1952308E+02  0.3392549E-09  0.3392549E-09  0.3392549E-09  0.5000000E-15
  1.000000000000000E-004
  CAR 
 unknown system                          
     15.73873170    -48.66802378  301      0.75910314      1.00000000
    -48.668  0.0000E+00  0.0000E+00  0.0000E+00  0.0000E+00
    -48.453  0.0000E+00  0.0000E+00  0.0000E+00  0.0000E+00
    -48.239  0.0000E+00  0.0000E+00  0.0000E+00  0.0000E+00
    -48.024  0.0000E+00  0.0000E+00  0.0000E+00  0.0000E+00
    -47.809  0.0000E+00  0.0000E+00  0.0000E+00  0.0000E+00
    -47.595  0.0000E+00  0.0000E+00  0.0000E+00  0.0000E+00
    -47.380  0.0000E+00  0.0000E+00  0.0000E+00  0.0000E+00
    -47.165  0.0000E+00  0.0000E+00  0.0000E+00  0.0000E+00
    -46.951  0.0000E+00  0.0000E+00  0.0000E+00  0.0000E+00
    -46.736  0.0000E+00  0.0000E+00  0.0000E+00  0.0000E+00
    -46.521  0.0000E+00  0.0000E+00  0.0000E+00  0.0000E+00
    -46.306  0.7405E-04  0.6730E-04  0.1590E-04  0.1445E-04
    -46.092  0.5346E-02  0.4859E-02  0.1164E-02  0.1058E-02
    -45.877  0.3753E+00  0.3424E+00  0.8173E-01  0.7456E-01
    -45.662  0.6651E+01  0.6517E+01  0.1510E+01  0.1474E+01
    -45.448  0.2242E+01  0.2406E+01  0.1991E+01  0.1990E+01
    -45.233  0.0000E+00  0.0000E+00  0.2000E+01  0.2000E+01
    -45.018  0.0000E+00  0.0000E+00  0.2000E+01  0.2000E+01
    -44.804  0.0000E+00  0.0000E+00  0.2000E+01  0.2000E+01
    -44.589  0.0000E+00  0.0000E+00  0.2000E+01  0.2000E+01
    -44.374  0.0000E+00  0.0000E+00  0.2000E+01  0.2000E+01
    -44.160  0.0000E+00  0.0000E+00  0.2000E+01  0.2000E+01
    -43.945  0.0000E+00  0.0000E+00  0.2000E+01  0.2000E+01
    -43.730  0.0000E+00  0.0000E+00  0.2000E+01  0.2000E+01
    -43.515  0.0000E+00  0.0000E+00  0.2000E+01  0.2000E+01
    -43.301  0.0000E+00  0.0000E+00  0.2000E+01  0.2000E+01
    -43.086  0.0000E+00  0.0000E+00  0.2000E+01  0.2000E+01
    -42.871  0.0000E+00  0.0000E+00  0.2000E+01  0.2000E+01
    -42.657  0.0000E+00  0.0000E+00  0.2000E+01  0.2000E+01
    -42.442  0.0000E+00  0.0000E+00  0.2000E+01  0.2000E+01
    -42.227  0.0000E+00  0.0000E+00  0.2000E+01  0.2000E+01
    -42.013  0.0000E+00  0.0000E+00  0.2000E+01  0.2000E+01
    -41.798  0.0000E+00  0.0000E+00  0.2000E+01  0.2000E+01
    -41.583  0.0000E+00  0.0000E+00  0.2000E+01  0.2000E+01
    -41.369  0.0000E+00  0.0000E+00  0.2000E+01  0.2000E+01
    -41.154  0.0000E+00  0.0000E+00  0.2000E+01  0.2000E+01
    -40.939  0.0000E+00  0.0000E+00  0.2000E+01  0.2000E+01
    -40.725  0.0000E+00  0.0000E+00  0.2000E+01  0.2000E+01
    -40.510  0.0000E+00  0.0000E+00  0.2000E+01  0.2000E+01
    -40.295  0.0000E+00  0.0000E+00  0.2000E+01  0.2000E+01
    -40.080  0.0000E+00  0.0000E+00  0.2000E+01  0.2000E+01
    -39.866  0.0000E+00  0.0000E+00  0.2000E+01  0.2000E+01
    -39.651  0.0000E+00  0.0000E+00  0.2000E+01  0.2000E+01
    -39.436  0.0000E+00  0.0000E+00  0.2000E+01  0.2000E+01
    -39.222  0.0000E+00  0.0000E+00  0.2000E+01  0.2000E+01
    -39.007  0.0000E+00  0.0000E+00  0.2000E+01  0.2000E+01
    -38.792  0.0000E+00  0.0000E+00  0.2000E+01  0.2000E+01
    -38.578  0.0000E+00  0.0000E+00  0.2000E+01  0.2000E+01
    -38.363  0.0000E+00  0.0000E+00  0.2000E+01  0.2000E+01
    -38.148  0.0000E+00  0.0000E+00  0.2000E+01  0.2000E+01
    -37.934  0.0000E+00  0.0000E+00  0.2000E+01  0.2000E+01
    -37.719  0.0000E+00  0.0000E+00  0.2000E+01  0.2000E+01
    -37.504  0.0000E+00  0.0000E+00  0.2000E+01  0.2000E+01
    -37.289  0.0000E+00  0.0000E+00  0.2000E+01  0.2000E+01
    -37.075  0.0000E+00  0.0000E+00  0.2000E+01  0.2000E+01
    -36.860  0.0000E+00  0.0000E+00  0.2000E+01  0.2000E+01
    -36.645  0.0000E+00  0.0000E+00  0.2000E+01  0.2000E+01
    -36.431  0.0000E+00  0.0000E+00  0.2000E+01  0.2000E+01
    -36.216  0.0000E+00  0.0000E+00  0.2000E+01  0.2000E+01
    -36.001  0.0000E+00  0.0000E+00  0.2000E+01  0.2000E+01
    -35.787  0.0000E+00  0.0000E+00  0.2000E+01  0.2000E+01
    -35.572  0.0000E+00  0.0000E+00  0.2000E+01  0.2000E+01
    -35.357  0.0000E+00  0.0000E+00  0.2000E+01  0.2000E+01
    -35.143  0.0000E+00  0.0000E+00  0.2000E+01  0.2000E+01
    -34.928  0.0000E+00  0.0000E+00  0.2000E+01  0.2000E+01
    -34.713  0.0000E+00  0.0000E+00  0.2000E+01  0.2000E+01
    -34.499  0.0000E+00  0.0000E+00  0.2000E+01  0.2000E+01
    -34.284  0.0000E+00  0.0000E+00  0.2000E+01  0.2000E+01
    -34.069  0.0000E+00  0.0000E+00  0.2000E+01  0.2000E+01
    -33.854  0.0000E+00  0.0000E+00  0.2000E+01  0.2000E+01
    -33.640  0.0000E+00  0.0000E+00  0.2000E+01  0.2000E+01
    -33.425  0.0000E+00  0.0000E+00  0.2000E+01  0.2000E+01
    -33.210  0.0000E+00  0.0000E+00  0.2000E+01  0.2000E+01
    -32.996  0.0000E+00  0.0000E+00  0.2000E+01  0.2000E+01
    -32.781  0.0000E+00  0.0000E+00  0.2000E+01  0.2000E+01
    -32.566  0.0000E+00  0.0000E+00  0.2000E+01  0.2000E+01
    -32.352  0.0000E+00  0.0000E+00  0.2000E+01  0.2000E+01
    -32.137  0.0000E+00  0.0000E+00  0.2000E+01  0.2000E+01
    -31.922  0.0000E+00  0.0000E+00  0.2000E+01  0.2000E+01
    -31.708  0.0000E+00  0.0000E+00  0.2000E+01  0.2000E+01
    -31.493  0.0000E+00  0.0000E+00  0.2000E+01  0.2000E+01
    -31.278  0.0000E+00  0.0000E+00  0.2000E+01  0.2000E+01
    -31.064  0.0000E+00  0.0000E+00  0.2000E+01  0.2000E+01
    -30.849  0.0000E+00  0.0000E+00  0.2000E+01  0.2000E+01
    -30.634  0.0000E+00  0.0000E+00  0.2000E+01  0.2000E+01
    -30.419  0.0000E+00  0.0000E+00  0.2000E+01  0.2000E+01
    -30.205  0.0000E+00  0.0000E+00  0.2000E+01  0.2000E+01
    -29.990  0.0000E+00  0.0000E+00  0.2000E+01  0.2000E+01
    -29.775  0.0000E+00  0.0000E+00  0.2000E+01  0.2000E+01
    -29.561  0.0000E+00  0.0000E+00  0.2000E+01  0.2000E+01
    -29.346  0.0000E+00  0.0000E+00  0.2000E+01  0.2000E+01
    -29.131  0.0000E+00  0.0000E+00  0.2000E+01  0.2000E+01
    -28.917  0.0000E+00  0.0000E+00  0.2000E+01  0.2000E+01
    -28.702  0.0000E+00  0.0000E+00  0.2000E+01  0.2000E+01
    -28.487  0.0000E+00  0.0000E+00  0.2000E+01  0.2000E+01
    -28.273  0.0000E+00  0.0000E+00  0.2000E+01  0.2000E+01
    -28.058  0.0000E+00  0.0000E+00  0.2000E+01  0.2000E+01
    -27.843  0.0000E+00  0.0000E+00  0.2000E+01  0.2000E+01
    -27.628  0.0000E+00  0.0000E+00  0.2000E+01  0.2000E+01
    -27.414  0.0000E+00  0.0000E+00  0.2000E+01  0.2000E+01
    -27.199  0.0000E+00  0.0000E+00  0.2000E+01  0.2000E+01
    -26.984  0.0000E+00  0.0000E+00  0.2000E+01  0.2000E+01
    -26.770  0.0000E+00  0.0000E+00  0.2000E+01  0.2000E+01
    -26.555  0.0000E+00  0.0000E+00  0.2000E+01  0.2000E+01
    -26.340  0.0000E+00  0.0000E+00  0.2000E+01  0.2000E+01
    -26.126  0.0000E+00  0.0000E+00  0.2000E+01  0.2000E+01
    -25.911  0.0000E+00  0.0000E+00  0.2000E+01  0.2000E+01
    -25.696  0.0000E+00  0.0000E+00  0.2000E+01  0.2000E+01
    -25.482  0.0000E+00  0.0000E+00  0.2000E+01  0.2000E+01
    -25.267  0.0000E+00  0.0000E+00  0.2000E+01  0.2000E+01
    -25.052  0.0000E+00  0.0000E+00  0.2000E+01  0.2000E+01
    -24.838  0.0000E+00  0.0000E+00  0.2000E+01  0.2000E+01
    -24.623  0.0000E+00  0.0000E+00  0.2000E+01  0.2000E+01
    -24.408  0.0000E+00  0.0000E+00  0.2000E+01  0.2000E+01
    -24.193  0.0000E+00  0.0000E+00  0.2000E+01  0.2000E+01
    -23.979  0.0000E+00  0.0000E+00  0.2000E+01  0.2000E+01
    -23.764  0.0000E+00  0.0000E+00  0.2000E+01  0.2000E+01
    -23.549  0.0000E+00  0.0000E+00  0.2000E+01  0.2000E+01
    -23.335  0.0000E+00  0.0000E+00  0.2000E+01  0.2000E+01
    -23.120  0.0000E+00  0.0000E+00  0.2000E+01  0.2000E+01
    -22.905  0.0000E+00  0.0000E+00  0.2000E+01  0.2000E+01
    -22.691  0.0000E+00  0.0000E+00  0.2000E+01  0.2000E+01
    -22.476  0.0000E+00  0.0000E+00  0.2000E+01  0.2000E+01
    -22.261  0.0000E+00  0.0000E+00  0.2000E+01  0.2000E+01
    -22.047  0.0000E+00  0.0000E+00  0.2000E+01  0.2000E+01
    -21.832  0.0000E+00  0.0000E+00  0.2000E+01  0.2000E+01
    -21.617  0.0000E+00  0.0000E+00  0.2000E+01  0.2000E+01
    -21.402  0.0000E+00  0.0000E+00  0.2000E+01  0.2000E+01
    -21.188  0.0000E+00  0.0000E+00  0.2000E+01  0.2000E+01
    -20.973  0.0000E+00  0.0000E+00  0.2000E+01  0.2000E+01
    -20.758  0.0000E+00  0.0000E+00  0.2000E+01  0.2000E+01
    -20.544  0.0000E+00  0.0000E+00  0.2000E+01  0.2000E+01
    -20.329  0.0000E+00  0.0000E+00  0.2000E+01  0.2000E+01
    -20.114  0.0000E+00  0.0000E+00  0.2000E+01  0.2000E+01
    -19.900  0.0000E+00  0.0000E+00  0.2000E+01  0.2000E+01
    -19.685  0.0000E+00  0.0000E+00  0.2000E+01  0.2000E+01
    -19.470  0.0000E+00  0.0000E+00  0.2000E+01  0.2000E+01
    -19.256  0.0000E+00  0.0000E+00  0.2000E+01  0.2000E+01
    -19.041  0.0000E+00  0.0000E+00  0.2000E+01  0.2000E+01
    -18.826  0.0000E+00  0.0000E+00  0.2000E+01  0.2000E+01
    -18.612  0.0000E+00  0.0000E+00  0.2000E+01  0.2000E+01
    -18.397  0.0000E+00  0.0000E+00  0.2000E+01  0.2000E+01
    -18.182  0.0000E+00  0.0000E+00  0.2000E+01  0.2000E+01
    -17.967  0.0000E+00  0.0000E+00  0.2000E+01  0.2000E+01
    -17.753  0.0000E+00  0.0000E+00  0.2000E+01  0.2000E+01
    -17.538  0.0000E+00  0.0000E+00  0.2000E+01  0.2000E+01
    -17.323  0.0000E+00  0.0000E+00  0.2000E+01  0.2000E+01
    -17.109  0.0000E+00  0.0000E+00  0.2000E+01  0.2000E+01
    -16.894  0.0000E+00  0.0000E+00  0.2000E+01  0.2000E+01
    -16.679  0.0000E+00  0.0000E+00  0.2000E+01  0.2000E+01
    -16.465  0.0000E+00  0.0000E+00  0.2000E+01  0.2000E+01
    -16.250  0.0000E+00  0.0000E+00  0.2000E+01  0.2000E+01
    -16.035  0.0000E+00  0.0000E+00  0.2000E+01  0.2000E+01
    -15.821  0.0000E+00  0.0000E+00  0.2000E+01  0.2000E+01
    -15.606  0.0000E+00  0.0000E+00  0.2000E+01  0.2000E+01
    -15.391  0.0000E+00  0.0000E+00  0.2000E+01  0.2000E+01
    -15.177  0.0000E+00  0.0000E+00  0.2000E+01  0.2000E+01
    -14.962  0.0000E+00  0.0000E+00  0.2000E+01  0.2000E+01
    -14.747  0.0000E+00  0.0000E+00  0.2000E+01  0.2000E+01
    -14.532  0.0000E+00  0.0000E+00  0.2000E+01  0.2000E+01
    -14.318  0.0000E+00  0.0000E+00  0.2000E+01  0.2000E+01
    -14.103  0.0000E+00  0.0000E+00  0.2000E+01  0.2000E+01
    -13.888  0.0000E+00  0.0000E+00  0.2000E+01  0.2000E+01
    -13.674  0.0000E+00  0.0000E+00  0.2000E+01  0.2000E+01
    -13.459  0.0000E+00  0.0000E+00  0.2000E+01  0.2000E+01
    -13.244  0.0000E+00  0.0000E+00  0.2000E+01  0.2000E+01
    -13.030  0.0000E+00  0.0000E+00  0.2000E+01  0.2000E+01
    -12.815  0.0000E+00  0.0000E+00  0.2000E+01  0.2000E+01
    -12.600  0.0000E+00  0.0000E+00  0.2000E+01  0.2000E+01
    -12.386  0.0000E+00  0.0000E+00  0.2000E+01  0.2000E+01
    -12.171  0.0000E+00  0.0000E+00  0.2000E+01  0.2000E+01
    -11.956  0.0000E+00  0.0000E+00  0.2000E+01  0.2000E+01
    -11.741  0.0000E+00  0.0000E+00  0.2000E+01  0.2000E+01
    -11.527  0.0000E+00  0.0000E+00  0.2000E+01  0.2000E+01
    -11.312  0.0000E+00  0.0000E+00  0.2000E+01  0.2000E+01
    -11.097  0.0000E+00  0.0000E+00  0.2000E+01  0.2000E+01
    -10.883  0.0000E+00  0.0000E+00  0.2000E+01  0.2000E+01
    -10.668  0.0000E+00  0.0000E+00  0.2000E+01  0.2000E+01
    -10.453  0.0000E+00  0.0000E+00  0.2000E+01  0.2000E+01
    -10.239  0.0000E+00  0.0000E+00  0.2000E+01  0.2000E+01
    -10.024  0.0000E+00  0.0000E+00  0.2000E+01  0.2000E+01
     -9.809  0.0000E+00  0.0000E+00  0.2000E+01  0.2000E+01
     -9.595  0.0000E+00  0.0000E+00  0.2000E+01  0.2000E+01
     -9.380  0.0000E+00  0.0000E+00  0.2000E+01  0.2000E+01
     -9.165  0.0000E+00  0.0000E+00  0.2000E+01  0.2000E+01
     -8.951  0.0000E+00  0.0000E+00  0.2000E+01  0.2000E+01
     -8.736  0.0000E+00  0.0000E+00  0.2000E+01  0.2000E+01
     -8.521  0.0000E+00  0.0000E+00  0.2000E+01  0.2000E+01
     -8.306  0.0000E+00  0.0000E+00  0.2000E+01  0.2000E+01
     -8.092  0.0000E+00  0.0000E+00  0.2000E+01  0.2000E+01
     -7.877  0.0000E+00  0.0000E+00  0.2000E+01  0.2000E+01
     -7.662  0.0000E+00  0.0000E+00  0.2000E+01  0.2000E+01
     -7.448  0.0000E+00  0.0000E+00  0.2000E+01  0.2000E+01
     -7.233  0.0000E+00  0.0000E+00  0.2000E+01  0.2000E+01
     -7.018  0.0000E+00  0.0000E+00  0.2000E+01  0.2000E+01
     -6.804  0.0000E+00  0.0000E+00  0.2000E+01  0.2000E+01
     -6.589  0.0000E+00  0.0000E+00  0.2000E+01  0.2000E+01
     -6.374  0.0000E+00  0.0000E+00  0.2000E+01  0.2000E+01
     -6.160  0.0000E+00  0.0000E+00  0.2000E+01  0.2000E+01
     -5.945  0.0000E+00  0.0000E+00  0.2000E+01  0.2000E+01
     -5.730  0.0000E+00  0.0000E+00  0.2000E+01  0.2000E+01
     -5.515  0.0000E+00  0.0000E+00  0.2000E+01  0.2000E+01
     -5.301  0.0000E+00  0.0000E+00  0.2000E+01  0.2000E+01
     -5.086  0.0000E+00  0.0000E+00  0.2000E+01  0.2000E+01
     -4.871  0.0000E+00  0.0000E+00  0.2000E+01  0.2000E+01
     -4.657  0.0000E+00  0.0000E+00  0.2000E+01  0.2000E+01
     -4.442  0.0000E+00  0.0000E+00  0.2000E+01  0.2000E+01
     -4.227  0.0000E+00  0.0000E+00  0.2000E+01  0.2000E+01
     -4.013  0.0000E+00  0.0000E+00  0.2000E+01  0.2000E+01
     -3.798  0.0000E+00  0.0000E+00  0.2000E+01  0.2000E+01
     -3.583  0.0000E+00  0.0000E+00  0.2000E+01  0.2000E+01
     -3.369  0.4828E-06  0.4540E-06  0.2000E+01  0.2000E+01
     -3.154  0.3832E-04  0.3604E-04  0.2000E+01  0.2000E+01
     -2.939  0.2558E-02  0.2419E-02  0.2001E+01  0.2001E+01
     -2.725  0.4231E-01  0.4138E-01  0.2010E+01  0.2009E+01
     -2.510  0.1076E+00  0.1069E+00  0.2033E+01  0.2032E+01
     -2.295  0.1429E+00  0.1421E+00  0.2064E+01  0.2063E+01
     -2.080  0.1755E+00  0.1753E+00  0.2101E+01  0.2101E+01
     -1.866  0.1914E+00  0.1905E+00  0.2143E+01  0.2142E+01
     -1.651  0.2387E+00  0.2390E+00  0.2194E+01  0.2193E+01
     -1.436  0.2073E+00  0.2063E+00  0.2239E+01  0.2238E+01
     -1.222  0.2937E+00  0.2934E+00  0.2303E+01  0.2302E+01
     -1.007  0.2559E+00  0.2562E+00  0.2358E+01  0.2357E+01
     -0.792  0.2961E+00  0.2960E+00  0.2422E+01  0.2421E+01
     -0.578  0.3121E+00  0.3104E+00  0.2489E+01  0.2488E+01
     -0.363  0.3679E+00  0.3686E+00  0.2568E+01  0.2567E+01
     -0.148  0.2821E+00  0.2841E+00  0.2629E+01  0.2628E+01
      0.066  0.3974E+00  0.3951E+00  0.2715E+01  0.2714E+01
      0.281  0.4087E+00  0.4095E+00  0.2803E+01  0.2802E+01
      0.496  0.4249E+00  0.4236E+00  0.2895E+01  0.2894E+01
      0.710  0.4032E+00  0.4040E+00  0.2982E+01  0.2981E+01
      0.925  0.4465E+00  0.4432E+00  0.3078E+01  0.3077E+01
      1.140  0.6300E+00  0.6323E+00  0.3214E+01  0.3213E+01
      1.355  0.5376E+00  0.5363E+00  0.3330E+01  0.3329E+01
      1.569  0.5099E+00  0.5118E+00  0.3440E+01  0.3439E+01
      1.784  0.3279E+00  0.3316E+00  0.3511E+01  0.3511E+01
      1.999  0.3736E+00  0.3678E+00  0.3592E+01  0.3590E+01
      2.213  0.5291E+00  0.5327E+00  0.3706E+01  0.3705E+01
      2.428  0.2450E+00  0.2470E+00  0.3759E+01  0.3759E+01
      2.643  0.2148E+00  0.2145E+00  0.3806E+01  0.3805E+01
      2.857  0.1100E+00  0.1107E+00  0.3830E+01  0.3829E+01
      3.072  0.2009E+00  0.1982E+00  0.3873E+01  0.3872E+01
      3.287  0.2892E+00  0.2931E+00  0.3935E+01  0.3935E+01
      3.501  0.5333E-01  0.5416E-01  0.3947E+01  0.3947E+01
      3.716  0.7941E-01  0.7806E-01  0.3964E+01  0.3964E+01
      3.931  0.1613E+00  0.1608E+00  0.3999E+01  0.3999E+01
      4.146  0.4687E+00  0.4624E+00  0.4100E+01  0.4098E+01
      4.360  0.7591E+00  0.7565E+00  0.4263E+01  0.4260E+01
      4.575  0.7618E+00  0.7663E+00  0.4427E+01  0.4426E+01
      4.790  0.3841E+00  0.3880E+00  0.4511E+01  0.4510E+01
      5.004  0.4323E+00  0.4267E+00  0.4604E+01  0.4602E+01
      5.219  0.7758E+00  0.7789E+00  0.4771E+01  0.4770E+01
      5.434  0.3403E+00  0.3429E+00  0.4844E+01  0.4844E+01
      5.648  0.2085E+00  0.2083E+00  0.4890E+01  0.4889E+01
      5.863  0.4500E+00  0.4433E+00  0.4987E+01  0.4985E+01
      6.078  0.6869E+00  0.6909E+00  0.5134E+01  0.5133E+01
      6.292  0.2551E+00  0.2589E+00  0.5190E+01  0.5190E+01
      6.507  0.2854E+00  0.2848E+00  0.5253E+01  0.5252E+01
      6.722  0.2981E+00  0.2965E+00  0.5317E+01  0.5316E+01
      6.936  0.6581E+00  0.6541E+00  0.5458E+01  0.5456E+01
      7.151  0.7048E+00  0.7037E+00  0.5610E+01  0.5608E+01
      7.366  0.6085E+00  0.6122E+00  0.5742E+01  0.5740E+01
      7.581  0.5040E+00  0.5028E+00  0.5851E+01  0.5850E+01
      7.795  0.4825E+00  0.4839E+00  0.5955E+01  0.5954E+01
      8.010  0.7791E+00  0.7739E+00  0.6123E+01  0.6121E+01
      8.225  0.6619E+00  0.6660E+00  0.6266E+01  0.6264E+01
      8.439  0.3999E+00  0.4012E+00  0.6353E+01  0.6351E+01
      8.654  0.5312E+00  0.5319E+00  0.6467E+01  0.6467E+01
      8.869  0.3679E+00  0.3667E+00  0.6547E+01  0.6545E+01
      9.083  0.6442E+00  0.6411E+00  0.6685E+01  0.6684E+01
      9.298  0.6564E+00  0.6579E+00  0.6827E+01  0.6826E+01
      9.513  0.3743E+00  0.3777E+00  0.6909E+01  0.6908E+01
      9.727  0.3074E+00  0.3064E+00  0.6976E+01  0.6975E+01
      9.942  0.3611E+00  0.3599E+00  0.7054E+01  0.7053E+01
     10.157  0.5972E+00  0.5950E+00  0.7182E+01  0.7181E+01
     10.372  0.6397E+00  0.6410E+00  0.7320E+01  0.7319E+01
     10.586  0.3459E+00  0.3490E+00  0.7395E+01  0.7394E+01
     10.801  0.2742E+00  0.2740E+00  0.7454E+01  0.7454E+01
     11.016  0.3946E+00  0.3924E+00  0.7539E+01  0.7538E+01
     11.230  0.4155E+00  0.4167E+00  0.7629E+01  0.7628E+01
     11.445  0.3988E+00  0.3987E+00  0.7715E+01  0.7714E+01
     11.660  0.4175E+00  0.4164E+00  0.7805E+01  0.7804E+01
     11.874  0.3022E+00  0.3037E+00  0.7870E+01  0.7870E+01
     12.089  0.2009E+00  0.2042E+00  0.7914E+01  0.7914E+01
     12.304  0.1246E+00  0.1277E+00  0.7941E+01  0.7941E+01
     12.518  0.1328E+00  0.1261E+00  0.7969E+01  0.7969E+01
     12.733  0.1002E+00  0.8411E-01  0.7991E+01  0.7987E+01
     12.948  0.3949E-01  0.5749E-01  0.8000E+01  0.7999E+01
     13.162  0.0000E+00  0.3063E-02  0.8000E+01  0.8000E+01
     13.377  0.0000E+00  0.0000E+00  0.8000E+01  0.8000E+01
     13.592  0.0000E+00  0.0000E+00  0.8000E+01  0.8000E+01
     13.807  0.0000E+00  0.0000E+00  0.8000E+01  0.8000E+01
     14.021  0.0000E+00  0.0000E+00  0.8000E+01  0.8000E+01
     14.236  0.0000E+00  0.0000E+00  0.8000E+01  0.8000E+01
     14.451  0.0000E+00  0.0000E+00  0.8000E+01  0.8000E+01
     14.665  0.0000E+00  0.0000E+00  0.8000E+01  0.8000E+01
     14.880  0.0000E+00  0.0000E+00  0.8000E+01  0.8000E+01
     15.095  0.0000E+00  0.0000E+00  0.8000E+01  0.8000E+01
     15.309  0.0000E+00  0.0000E+00  0.8000E+01  0.8000E+01
     15.524  0.0000E+00  0.0000E+00  0.8000E+01  0.8000E+01
     15.739  0.0000E+00  0.0000E+00  0.8000E+01  0.8000E+01
     15.73873170    -48.66802378  301      0.75910314      1.00000000
    -48.668  0.0000E+00  0.0000E+00  0.0000E+00  0.0000E+00  0.0000E+00  0.0000E+00  0.0000E+00  0.0000E+00  0.0000E+00  0.0000E+00  0.0000E+00  0.0000E+00  0.0000E+00  0.0000E+00  0.0000E+00  0.0000E+00  0.0000E+00  0.0000E+00
    -48.453  0.0000E+00  0.0000E+00  0.0000E+00  0.0000E+00  0.0000E+00  0.0000E+00  0.0000E+00  0.0000E+00  0.0000E+00  0.0000E+00  0.0000E+00  0.0000E+00  0.0000E+00  0.0000E+00  0.0000E+00  0.0000E+00  0.0000E+00  0.0000E+00
    -48.239  0.0000E+00  0.0000E+00  0.0000E+00  0.0000E+00  0.0000E+00  0.0000E+00  0.0000E+00  0.0000E+00  0.0000E+00  0.0000E+00  0.0000E+00  0.0000E+00  0.0000E+00  0.0000E+00  0.0000E+00  0.0000E+00  0.0000E+00  0.0000E+00
    -48.024  0.0000E+00  0.0000E+00  0.0000E+00  0.0000E+00  0.0000E+00  0.0000E+00  0.0000E+00  0.0000E+00  0.0000E+00  0.0000E+00  0.0000E+00  0.0000E+00  0.0000E+00  0.0000E+00  0.0000E+00  0.0000E+00  0.0000E+00  0.0000E+00
    -47.809  0.0000E+00  0.0000E+00  0.0000E+00  0.0000E+00  0.0000E+00  0.0000E+00  0.0000E+00  0.0000E+00  0.0000E+00  0.0000E+00  0.0000E+00  0.0000E+00  0.0000E+00  0.0000E+00  0.0000E+00  0.0000E+00  0.0000E+00  0.0000E+00
    -47.595  0.0000E+00  0.0000E+00  0.0000E+00  0.0000E+00  0.0000E+00  0.0000E+00  0.0000E+00  0.0000E+00  0.0000E+00  0.0000E+00  0.0000E+00  0.0000E+00  0.0000E+00  0.0000E+00  0.0000E+00  0.0000E+00  0.0000E+00  0.0000E+00
    -47.380  0.0000E+00  0.0000E+00  0.0000E+00  0.0000E+00  0.0000E+00  0.0000E+00  0.0000E+00  0.0000E+00  0.0000E+00  0.0000E+00  0.0000E+00  0.0000E+00  0.0000E+00  0.0000E+00  0.0000E+00  0.0000E+00  0.0000E+00  0.0000E+00
    -47.165  0.0000E+00  0.0000E+00  0.0000E+00  0.0000E+00  0.0000E+00  0.0000E+00  0.0000E+00  0.0000E+00  0.0000E+00  0.0000E+00  0.0000E+00  0.0000E+00  0.0000E+00  0.0000E+00  0.0000E+00  0.0000E+00  0.0000E+00  0.0000E+00
    -46.951  0.0000E+00  0.0000E+00  0.0000E+00  0.0000E+00  0.0000E+00  0.0000E+00  0.0000E+00  0.0000E+00  0.0000E+00  0.0000E+00  0.0000E+00  0.0000E+00  0.0000E+00  0.0000E+00  0.0000E+00  0.0000E+00  0.0000E+00  0.0000E+00
    -46.736  0.0000E+00  0.0000E+00  0.0000E+00  0.0000E+00  0.0000E+00  0.0000E+00  0.0000E+00  0.0000E+00  0.0000E+00  0.0000E+00  0.0000E+00  0.0000E+00  0.0000E+00  0.0000E+00  0.0000E+00  0.0000E+00  0.0000E+00  0.0000E+00
    -46.521  0.0000E+00  0.0000E+00  0.0000E+00  0.0000E+00  0.0000E+00  0.0000E+00  0.0000E+00  0.0000E+00  0.0000E+00  0.0000E+00  0.0000E+00  0.0000E+00  0.0000E+00  0.0000E+00  0.0000E+00  0.0000E+00  0.0000E+00  0.0000E+00
    -46.306  0.3663E-04  0.3329E-04  0.9276E-12  0.8483E-12  0.9276E-12  0.8483E-12  0.9276E-12  0.8483E-12  0.0000E+00  0.0000E+00  0.0000E+00  0.0000E+00  0.0000E+00  0.0000E+00  0.0000E+00  0.0000E+00  0.0000E+00  0.0000E+00
    -46.092  0.2645E-02  0.2404E-02  0.6697E-10  0.6125E-10  0.6697E-10  0.6125E-10  0.6697E-10  0.6125E-10  0.0000E+00  0.0000E+00  0.0000E+00  0.0000E+00  0.0000E+00  0.0000E+00  0.0000E+00  0.0000E+00  0.0000E+00  0.0000E+00
    -45.877  0.1856E+00  0.1694E+00  0.4691E-08  0.4308E-08  0.4691E-08  0.4308E-08  0.4691E-08  0.4308E-08  0.0000E+00  0.0000E+00  0.0000E+00  0.0000E+00  0.0000E+00  0.0000E+00  0.0000E+00  0.0000E+00  0.0000E+00  0.0000E+00
    -45.662  0.3291E+01  0.3224E+01  0.8005E-07  0.7905E-07  0.8005E-07  0.7905E-07  0.8005E-07  0.7905E-07  0.0000E+00  0.0000E+00  0.0000E+00  0.0000E+00  0.0000E+00  0.0000E+00  0.0000E+00  0.0000E+00  0.0000E+00  0.0000E+00
    -45.448  0.1109E+01  0.1191E+01  0.2565E-07  0.2775E-07  0.2565E-07  0.2775E-07  0.2565E-07  0.2775E-07  0.0000E+00  0.0000E+00  0.0000E+00  0.0000E+00  0.0000E+00  0.0000E+00  0.0000E+00  0.0000E+00  0.0000E+00  0.0000E+00
    -45.233  0.0000E+00  0.0000E+00  0.0000E+00  0.0000E+00  0.0000E+00  0.0000E+00  0.0000E+00  0.0000E+00  0.0000E+00  0.0000E+00  0.0000E+00  0.0000E+00  0.0000E+00  0.0000E+00  0.0000E+00  0.0000E+00  0.0000E+00  0.0000E+00
    -45.018  0.0000E+00  0.0000E+00  0.0000E+00  0.0000E+00  0.0000E+00  0.0000E+00  0.0000E+00  0.0000E+00  0.0000E+00  0.0000E+00  0.0000E+00  0.0000E+00  0.0000E+00  0.0000E+00  0.0000E+00  0.0000E+00  0.0000E+00  0.0000E+00
    -44.804  0.0000E+00  0.0000E+00  0.0000E+00  0.0000E+00  0.0000E+00  0.0000E+00  0.0000E+00  0.0000E+00  0.0000E+00  0.0000E+00  0.0000E+00  0.0000E+00  0.0000E+00  0.0000E+00  0.0000E+00  0.0000E+00  0.0000E+00  0.0000E+00
    -44.589  0.0000E+00  0.0000E+00  0.0000E+00  0.0000E+00  0.0000E+00  0.0000E+00  0.0000E+00  0.0000E+00  0.0000E+00  0.0000E+00  0.0000E+00  0.0000E+00  0.0000E+00  0.0000E+00  0.0000E+00  0.0000E+00  0.0000E+00  0.0000E+00
    -44.374  0.0000E+00  0.0000E+00  0.0000E+00  0.0000E+00  0.0000E+00  0.0000E+00  0.0000E+00  0.0000E+00  0.0000E+00  0.0000E+00  0.0000E+00  0.0000E+00  0.0000E+00  0.0000E+00  0.0000E+00  0.0000E+00  0.0000E+00  0.0000E+00
    -44.160  0.0000E+00  0.0000E+00  0.0000E+00  0.0000E+00  0.0000E+00  0.0000E+00  0.0000E+00  0.0000E+00  0.0000E+00  0.0000E+00  0.0000E+00  0.0000E+00  0.0000E+00  0.0000E+00  0.0000E+00  0.0000E+00  0.0000E+00  0.0000E+00
    -43.945  0.0000E+00  0.0000E+00  0.0000E+00  0.0000E+00  0.0000E+00  0.0000E+00  0.0000E+00  0.0000E+00  0.0000E+00  0.0000E+00  0.0000E+00  0.0000E+00  0.0000E+00  0.0000E+00  0.0000E+00  0.0000E+00  0.0000E+00  0.0000E+00
    -43.730  0.0000E+00  0.0000E+00  0.0000E+00  0.0000E+00  0.0000E+00  0.0000E+00  0.0000E+00  0.0000E+00  0.0000E+00  0.0000E+00  0.0000E+00  0.0000E+00  0.0000E+00  0.0000E+00  0.0000E+00  0.0000E+00  0.0000E+00  0.0000E+00
    -43.515  0.0000E+00  0.0000E+00  0.0000E+00  0.0000E+00  0.0000E+00  0.0000E+00  0.0000E+00  0.0000E+00  0.0000E+00  0.0000E+00  0.0000E+00  0.0000E+00  0.0000E+00  0.0000E+00  0.0000E+00  0.0000E+00  0.0000E+00  0.0000E+00
    -43.301  0.0000E+00  0.0000E+00  0.0000E+00  0.0000E+00  0.0000E+00  0.0000E+00  0.0000E+00  0.0000E+00  0.0000E+00  0.0000E+00  0.0000E+00  0.0000E+00  0.0000E+00  0.0000E+00  0.0000E+00  0.0000E+00  0.0000E+00  0.0000E+00
    -43.086  0.0000E+00  0.0000E+00  0.0000E+00  0.0000E+00  0.0000E+00  0.0000E+00  0.0000E+00  0.0000E+00  0.0000E+00  0.0000E+00  0.0000E+00  0.0000E+00  0.0000E+00  0.0000E+00  0.0000E+00  0.0000E+00  0.0000E+00  0.0000E+00
    -42.871  0.0000E+00  0.0000E+00  0.0000E+00  0.0000E+00  0.0000E+00  0.0000E+00  0.0000E+00  0.0000E+00  0.0000E+00  0.0000E+00  0.0000E+00  0.0000E+00  0.0000E+00  0.0000E+00  0.0000E+00  0.0000E+00  0.0000E+00  0.0000E+00
    -42.657  0.0000E+00  0.0000E+00  0.0000E+00  0.0000E+00  0.0000E+00  0.0000E+00  0.0000E+00  0.0000E+00  0.0000E+00  0.0000E+00  0.0000E+00  0.0000E+00  0.0000E+00  0.0000E+00  0.0000E+00  0.0000E+00  0.0000E+00  0.0000E+00
    -42.442  0.0000E+00  0.0000E+00  0.0000E+00  0.0000E+00  0.0000E+00  0.0000E+00  0.0000E+00  0.0000E+00  0.0000E+00  0.0000E+00  0.0000E+00  0.0000E+00  0.0000E+00  0.0000E+00  0.0000E+00  0.0000E+00  0.0000E+00  0.0000E+00
    -42.227  0.0000E+00  0.0000E+00  0.0000E+00  0.0000E+00  0.0000E+00  0.0000E+00  0.0000E+00  0.0000E+00  0.0000E+00  0.0000E+00  0.0000E+00  0.0000E+00  0.0000E+00  0.0000E+00  0.0000E+00  0.0000E+00  0.0000E+00  0.0000E+00
    -42.013  0.0000E+00  0.0000E+00  0.0000E+00  0.0000E+00  0.0000E+00  0.0000E+00  0.0000E+00  0.0000E+00  0.0000E+00  0.0000E+00  0.0000E+00  0.0000E+00  0.0000E+00  0.0000E+00  0.0000E+00  0.0000E+00  0.0000E+00  0.0000E+00
    -41.798  0.0000E+00  0.0000E+00  0.0000E+00  0.0000E+00  0.0000E+00  0.0000E+00  0.0000E+00  0.0000E+00  0.0000E+00  0.0000E+00  0.0000E+00  0.0000E+00  0.0000E+00  0.0000E+00  0.0000E+00  0.0000E+00  0.0000E+00  0.0000E+00
    -41.583  0.0000E+00  0.0000E+00  0.0000E+00  0.0000E+00  0.0000E+00  0.0000E+00  0.0000E+00  0.0000E+00  0.0000E+00  0.0000E+00  0.0000E+00  0.0000E+00  0.0000E+00  0.0000E+00  0.0000E+00  0.0000E+00  0.0000E+00  0.0000E+00
    -41.369  0.0000E+00  0.0000E+00  0.0000E+00  0.0000E+00  0.0000E+00  0.0000E+00  0.0000E+00  0.0000E+00  0.0000E+00  0.0000E+00  0.0000E+00  0.0000E+00  0.0000E+00  0.0000E+00  0.0000E+00  0.0000E+00  0.0000E+00  0.0000E+00
    -41.154  0.0000E+00  0.0000E+00  0.0000E+00  0.0000E+00  0.0000E+00  0.0000E+00  0.0000E+00  0.0000E+00  0.0000E+00  0.0000E+00  0.0000E+00  0.0000E+00  0.0000E+00  0.0000E+00  0.0000E+00  0.0000E+00  0.0000E+00  0.0000E+00
    -40.939  0.0000E+00  0.0000E+00  0.0000E+00  0.0000E+00  0.0000E+00  0.0000E+00  0.0000E+00  0.0000E+00  0.0000E+00  0.0000E+00  0.0000E+00  0.0000E+00  0.0000E+00  0.0000E+00  0.0000E+00  0.0000E+00  0.0000E+00  0.0000E+00
    -40.725  0.0000E+00  0.0000E+00  0.0000E+00  0.0000E+00  0.0000E+00  0.0000E+00  0.0000E+00  0.0000E+00  0.0000E+00  0.0000E+00  0.0000E+00  0.0000E+00  0.0000E+00  0.0000E+00  0.0000E+00  0.0000E+00  0.0000E+00  0.0000E+00
    -40.510  0.0000E+00  0.0000E+00  0.0000E+00  0.0000E+00  0.0000E+00  0.0000E+00  0.0000E+00  0.0000E+00  0.0000E+00  0.0000E+00  0.0000E+00  0.0000E+00  0.0000E+00  0.0000E+00  0.0000E+00  0.0000E+00  0.0000E+00  0.0000E+00
    -40.295  0.0000E+00  0.0000E+00  0.0000E+00  0.0000E+00  0.0000E+00  0.0000E+00  0.0000E+00  0.0000E+00  0.0000E+00  0.0000E+00  0.0000E+00  0.0000E+00  0.0000E+00  0.0000E+00  0.0000E+00  0.0000E+00  0.0000E+00  0.0000E+00
    -40.080  0.0000E+00  0.0000E+00  0.0000E+00  0.0000E+00  0.0000E+00  0.0000E+00  0.0000E+00  0.0000E+00  0.0000E+00  0.0000E+00  0.0000E+00  0.0000E+00  0.0000E+00  0.0000E+00  0.0000E+00  0.0000E+00  0.0000E+00  0.0000E+00
    -39.866  0.0000E+00  0.0000E+00  0.0000E+00  0.0000E+00  0.0000E+00  0.0000E+00  0.0000E+00  0.0000E+00  0.0000E+00  0.0000E+00  0.0000E+00  0.0000E+00  0.0000E+00  0.0000E+00  0.0000E+00  0.0000E+00  0.0000E+00  0.0000E+00
    -39.651  0.0000E+00  0.0000E+00  0.0000E+00  0.0000E+00  0.0000E+00  0.0000E+00  0.0000E+00  0.0000E+00  0.0000E+00  0.0000E+00  0.0000E+00  0.0000E+00  0.0000E+00  0.0000E+00  0.0000E+00  0.0000E+00  0.0000E+00  0.0000E+00
    -39.436  0.0000E+00  0.0000E+00  0.0000E+00  0.0000E+00  0.0000E+00  0.0000E+00  0.0000E+00  0.0000E+00  0.0000E+00  0.0000E+00  0.0000E+00  0.0000E+00  0.0000E+00  0.0000E+00  0.0000E+00  0.0000E+00  0.0000E+00  0.0000E+00
    -39.222  0.0000E+00  0.0000E+00  0.0000E+00  0.0000E+00  0.0000E+00  0.0000E+00  0.0000E+00  0.0000E+00  0.0000E+00  0.0000E+00  0.0000E+00  0.0000E+00  0.0000E+00  0.0000E+00  0.0000E+00  0.0000E+00  0.0000E+00  0.0000E+00
    -39.007  0.0000E+00  0.0000E+00  0.0000E+00  0.0000E+00  0.0000E+00  0.0000E+00  0.0000E+00  0.0000E+00  0.0000E+00  0.0000E+00  0.0000E+00  0.0000E+00  0.0000E+00  0.0000E+00  0.0000E+00  0.0000E+00  0.0000E+00  0.0000E+00
    -38.792  0.0000E+00  0.0000E+00  0.0000E+00  0.0000E+00  0.0000E+00  0.0000E+00  0.0000E+00  0.0000E+00  0.0000E+00  0.0000E+00  0.0000E+00  0.0000E+00  0.0000E+00  0.0000E+00  0.0000E+00  0.0000E+00  0.0000E+00  0.0000E+00
    -38.578  0.0000E+00  0.0000E+00  0.0000E+00  0.0000E+00  0.0000E+00  0.0000E+00  0.0000E+00  0.0000E+00  0.0000E+00  0.0000E+00  0.0000E+00  0.0000E+00  0.0000E+00  0.0000E+00  0.0000E+00  0.0000E+00  0.0000E+00  0.0000E+00
    -38.363  0.0000E+00  0.0000E+00  0.0000E+00  0.0000E+00  0.0000E+00  0.0000E+00  0.0000E+00  0.0000E+00  0.0000E+00  0.0000E+00  0.0000E+00  0.0000E+00  0.0000E+00  0.0000E+00  0.0000E+00  0.0000E+00  0.0000E+00  0.0000E+00
    -38.148  0.0000E+00  0.0000E+00  0.0000E+00  0.0000E+00  0.0000E+00  0.0000E+00  0.0000E+00  0.0000E+00  0.0000E+00  0.0000E+00  0.0000E+00  0.0000E+00  0.0000E+00  0.0000E+00  0.0000E+00  0.0000E+00  0.0000E+00  0.0000E+00
    -37.934  0.0000E+00  0.0000E+00  0.0000E+00  0.0000E+00  0.0000E+00  0.0000E+00  0.0000E+00  0.0000E+00  0.0000E+00  0.0000E+00  0.0000E+00  0.0000E+00  0.0000E+00  0.0000E+00  0.0000E+00  0.0000E+00  0.0000E+00  0.0000E+00