   2   2   1   0
  0.2012068E+02  0.3426817E-09  0.3426817E-09  0.3426817E-09  0.5000000E-15
  1.000000000000000E-004
  CAR 
 unknown system                          
     15.33510681    -48.79150089  301      0.67335932      1.00000000
    -48.792  0.0000E+00  0.0000E+00  0.0000E+00  0.0000E+00
    -48.578  0.0000E+00  0.0000E+00  0.0000E+00  0.0000E+00
    -48.364  0.0000E+00  0.0000E+00  0.0000E+00  0.0000E+00
    -48.150  0.0000E+00  0.0000E+00  0.0000E+00  0.0000E+00
    -47.936  0.0000E+00  0.0000E+00  0.0000E+00  0.0000E+00
    -47.723  0.0000E+00  0.0000E+00  0.0000E+00  0.0000E+00
    -47.509  0.0000E+00  0.0000E+00  0.0000E+00  0.0000E+00
    -47.295  0.0000E+00  0.0000E+00  0.0000E+00  0.0000E+00
    -47.081  0.0000E+00  0.0000E+00  0.0000E+00  0.0000E+00
    -46.868  0.0000E+00  0.0000E+00  0.0000E+00  0.0000E+00
    -46.654  0.0000E+00  0.0000E+00  0.0000E+00  0.0000E+00
    -46.440  0.8176E-04  0.7443E-04  0.1748E-04  0.1591E-04
    -46.226  0.5792E-02  0.5273E-02  0.1256E-02  0.1143E-02
    -46.013  0.3981E+00  0.3639E+00  0.8636E-01  0.7892E-01
    -45.799  0.6730E+01  0.6602E+01  0.1525E+01  0.1490E+01
    -45.585  0.2182E+01  0.2341E+01  0.1991E+01  0.1990E+01
    -45.371  0.0000E+00  0.0000E+00  0.2000E+01  0.2000E+01
    -45.158  0.0000E+00  0.0000E+00  0.2000E+01  0.2000E+01
    -44.944  0.0000E+00  0.0000E+00  0.2000E+01  0.2000E+01
    -44.730  0.0000E+00  0.0000E+00  0.2000E+01  0.2000E+01
    -44.516  0.0000E+00  0.0000E+00  0.2000E+01  0.2000E+01
    -44.303  0.0000E+00  0.0000E+00  0.2000E+01  0.2000E+01
    -44.089  0.0000E+00  0.0000E+00  0.2000E+01  0.2000E+01
    -43.875  0.0000E+00  0.0000E+00  0.2000E+01  0.2000E+01
    -43.661  0.0000E+00  0.0000E+00  0.2000E+01  0.2000E+01
    -43.448  0.0000E+00  0.0000E+00  0.2000E+01  0.2000E+01
    -43.234  0.0000E+00  0.0000E+00  0.2000E+01  0.2000E+01
    -43.020  0.0000E+00  0.0000E+00  0.2000E+01  0.2000E+01
    -42.806  0.0000E+00  0.0000E+00  0.2000E+01  0.2000E+01
    -42.593  0.0000E+00  0.0000E+00  0.2000E+01  0.2000E+01
    -42.379  0.0000E+00  0.0000E+00  0.2000E+01  0.2000E+01
    -42.165  0.0000E+00  0.0000E+00  0.2000E+01  0.2000E+01
    -41.951  0.0000E+00  0.0000E+00  0.2000E+01  0.2000E+01
    -41.738  0.0000E+00  0.0000E+00  0.2000E+01  0.2000E+01
    -41.524  0.0000E+00  0.0000E+00  0.2000E+01  0.2000E+01
    -41.310  0.0000E+00  0.0000E+00  0.2000E+01  0.2000E+01
    -41.096  0.0000E+00  0.0000E+00  0.2000E+01  0.2000E+01
    -40.883  0.0000E+00  0.0000E+00  0.2000E+01  0.2000E+01
    -40.669  0.0000E+00  0.0000E+00  0.2000E+01  0.2000E+01
    -40.455  0.0000E+00  0.0000E+00  0.2000E+01  0.2000E+01
    -40.241  0.0000E+00  0.0000E+00  0.2000E+01  0.2000E+01
    -40.028  0.0000E+00  0.0000E+00  0.2000E+01  0.2000E+01
    -39.814  0.0000E+00  0.0000E+00  0.2000E+01  0.2000E+01
    -39.600  0.0000E+00  0.0000E+00  0.2000E+01  0.2000E+01
    -39.386  0.0000E+00  0.0000E+00  0.2000E+01  0.2000E+01
    -39.173  0.0000E+00  0.0000E+00  0.2000E+01  0.2000E+01
    -38.959  0.0000E+00  0.0000E+00  0.2000E+01  0.2000E+01
    -38.745  0.0000E+00  0.0000E+00  0.2000E+01  0.2000E+01
    -38.531  0.0000E+00  0.0000E+00  0.2000E+01  0.2000E+01
    -38.317  0.0000E+00  0.0000E+00  0.2000E+01  0.2000E+01
    -38.104  0.0000E+00  0.0000E+00  0.2000E+01  0.2000E+01
    -37.890  0.0000E+00  0.0000E+00  0.2000E+01  0.2000E+01
    -37.676  0.0000E+00  0.0000E+00  0.2000E+01  0.2000E+01
    -37.462  0.0000E+00  0.0000E+00  0.2000E+01  0.2000E+01
    -37.249  0.0000E+00  0.0000E+00  0.2000E+01  0.2000E+01
    -37.035  0.0000E+00  0.0000E+00  0.2000E+01  0.2000E+01
    -36.821  0.0000E+00  0.0000E+00  0.2000E+01  0.2000E+01
    -36.607  0.0000E+00  0.0000E+00  0.2000E+01  0.2000E+01
    -36.394  0.0000E+00  0.0000E+00  0.2000E+01  0.2000E+01
    -36.180  0.0000E+00  0.0000E+00  0.2000E+01  0.2000E+01
    -35.966  0.0000E+00  0.0000E+00  0.2000E+01  0.2000E+01
    -35.752  0.0000E+00  0.0000E+00  0.2000E+01  0.2000E+01
    -35.539  0.0000E+00  0.0000E+00  0.2000E+01  0.2000E+01
    -35.325  0.0000E+00  0.0000E+00  0.2000E+01  0.2000E+01
    -35.111  0.0000E+00  0.0000E+00  0.2000E+01  0.2000E+01
    -34.897  0.0000E+00  0.0000E+00  0.2000E+01  0.2000E+01
    -34.684  0.0000E+00  0.0000E+00  0.2000E+01  0.2000E+01
    -34.470  0.0000E+00  0.0000E+00  0.2000E+01  0.2000E+01
    -34.256  0.0000E+00  0.0000E+00  0.2000E+01  0.2000E+01
    -34.042  0.0000E+00  0.0000E+00  0.2000E+01  0.2000E+01
    -33.829  0.0000E+00  0.0000E+00  0.2000E+01  0.2000E+01
    -33.615  0.0000E+00  0.0000E+00  0.2000E+01  0.2000E+01
    -33.401  0.0000E+00  0.0000E+00  0.2000E+01  0.2000E+01
    -33.187  0.0000E+00  0.0000E+00  0.2000E+01  0.2000E+01
    -32.974  0.0000E+00  0.0000E+00  0.2000E+01  0.2000E+01
    -32.760  0.0000E+00  0.0000E+00  0.2000E+01  0.2000E+01
    -32.546  0.0000E+00  0.0000E+00  0.2000E+01  0.2000E+01
    -32.332  0.0000E+00  0.0000E+00  0.2000E+01  0.2000E+01
    -32.119  0.0000E+00  0.0000E+00  0.2000E+01  0.2000E+01
    -31.905  0.0000E+00  0.0000E+00  0.2000E+01  0.2000E+01
    -31.691  0.0000E+00  0.0000E+00  0.2000E+01  0.2000E+01
    -31.477  0.0000E+00  0.0000E+00  0.2000E+01  0.2000E+01
    -31.264  0.0000E+00  0.0000E+00  0.2000E+01  0.2000E+01
    -31.050  0.0000E+00  0.0000E+00  0.2000E+01  0.2000E+01
    -30.836  0.0000E+00  0.0000E+00  0.2000E+01  0.2000E+01
    -30.622  0.0000E+00  0.0000E+00  0.2000E+01  0.2000E+01
    -30.409  0.0000E+00  0.0000E+00  0.2000E+01  0.2000E+01
    -30.195  0.0000E+00  0.0000E+00  0.2000E+01  0.2000E+01
    -29.981  0.0000E+00  0.0000E+00  0.2000E+01  0.2000E+01
    -29.767  0.0000E+00  0.0000E+00  0.2000E+01  0.2000E+01
    -29.554  0.0000E+00  0.0000E+00  0.2000E+01  0.2000E+01
    -29.340  0.0000E+00  0.0000E+00  0.2000E+01  0.2000E+01
    -29.126  0.0000E+00  0.0000E+00  0.2000E+01  0.2000E+01
    -28.912  0.0000E+00  0.0000E+00  0.2000E+01  0.2000E+01
    -28.698  0.0000E+00  0.0000E+00  0.2000E+01  0.2000E+01
    -28.485  0.0000E+00  0.0000E+00  0.2000E+01  0.2000E+01
    -28.271  0.0000E+00  0.0000E+00  0.2000E+01  0.2000E+01
    -28.057  0.0000E+00  0.0000E+00  0.2000E+01  0.2000E+01
    -27.843  0.0000E+00  0.0000E+00  0.2000E+01  0.2000E+01
    -27.630  0.0000E+00  0.0000E+00  0.2000E+01  0.2000E+01
    -27.416  0.0000E+00  0.0000E+00  0.2000E+01  0.2000E+01
    -27.202  0.0000E+00  0.0000E+00  0.2000E+01  0.2000E+01
    -26.988  0.0000E+00  0.0000E+00  0.2000E+01  0.2000E+01
    -26.775  0.0000E+00  0.0000E+00  0.2000E+01  0.2000E+01
    -26.561  0.0000E+00  0.0000E+00  0.2000E+01  0.2000E+01
    -26.347  0.0000E+00  0.0000E+00  0.2000E+01  0.2000E+01
    -26.133  0.0000E+00  0.0000E+00  0.2000E+01  0.2000E+01
    -25.920  0.0000E+00  0.0000E+00  0.2000E+01  0.2000E+01
    -25.706  0.0000E+00  0.0000E+00  0.2000E+01  0.2000E+01
    -25.492  0.0000E+00  0.0000E+00  0.2000E+01  0.2000E+01
    -25.278  0.0000E+00  0.0000E+00  0.2000E+01  0.2000E+01
    -25.065  0.0000E+00  0.0000E+00  0.2000E+01  0.2000E+01
    -24.851  0.0000E+00  0.0000E+00  0.2000E+01  0.2000E+01
    -24.637  0.0000E+00  0.0000E+00  0.2000E+01  0.2000E+01
    -24.423  0.0000E+00  0.0000E+00  0.2000E+01  0.2000E+01
    -24.210  0.0000E+00  0.0000E+00  0.2000E+01  0.2000E+01
    -23.996  0.0000E+00  0.0000E+00  0.2000E+01  0.2000E+01
    -23.782  0.0000E+00  0.0000E+00  0.2000E+01  0.2000E+01
    -23.568  0.0000E+00  0.0000E+00  0.2000E+01  0.2000E+01
    -23.355  0.0000E+00  0.0000E+00  0.2000E+01  0.2000E+01
    -23.141  0.0000E+00  0.0000E+00  0.2000E+01  0.2000E+01
    -22.927  0.0000E+00  0.0000E+00  0.2000E+01  0.2000E+01
    -22.713  0.0000E+00  0.0000E+00  0.2000E+01  0.2000E+01
    -22.500  0.0000E+00  0.0000E+00  0.2000E+01  0.2000E+01
    -22.286  0.0000E+00  0.0000E+00  0.2000E+01  0.2000E+01
    -22.072  0.0000E+00  0.0000E+00  0.2000E+01  0.2000E+01
    -21.858  0.0000E+00  0.0000E+00  0.2000E+01  0.2000E+01
    -21.645  0.0000E+00  0.0000E+00  0.2000E+01  0.2000E+01
    -21.431  0.0000E+00  0.0000E+00  0.2000E+01  0.2000E+01
    -21.217  0.0000E+00  0.0000E+00  0.2000E+01  0.2000E+01
    -21.003  0.0000E+00  0.0000E+00  0.2000E+01  0.2000E+01
    -20.790  0.0000E+00  0.0000E+00  0.2000E+01  0.2000E+01
    -20.576  0.0000E+00  0.0000E+00  0.2000E+01  0.2000E+01
    -20.362  0.0000E+00  0.0000E+00  0.2000E+01  0.2000E+01
    -20.148  0.0000E+00  0.0000E+00  0.2000E+01  0.2000E+01
    -19.935  0.0000E+00  0.0000E+00  0.2000E+01  0.2000E+01
    -19.721  0.0000E+00  0.0000E+00  0.2000E+01  0.2000E+01
    -19.507  0.0000E+00  0.0000E+00  0.2000E+01  0.2000E+01
    -19.293  0.0000E+00  0.0000E+00  0.2000E+01  0.2000E+01
    -19.080  0.0000E+00  0.0000E+00  0.2000E+01  0.2000E+01
    -18.866  0.0000E+00  0.0000E+00  0.2000E+01  0.2000E+01
    -18.652  0.0000E+00  0.0000E+00  0.2000E+01  0.2000E+01
    -18.438  0.0000E+00  0.0000E+00  0.2000E+01  0.2000E+01
    -18.224  0.0000E+00  0.0000E+00  0.2000E+01  0.2000E+01
    -18.011  0.0000E+00  0.0000E+00  0.2000E+01  0.2000E+01
    -17.797  0.0000E+00  0.0000E+00  0.2000E+01  0.2000E+01
    -17.583  0.0000E+00  0.0000E+00  0.2000E+01  0.2000E+01
    -17.369  0.0000E+00  0.0000E+00  0.2000E+01  0.2000E+01
    -17.156  0.0000E+00  0.0000E+00  0.2000E+01  0.2000E+01
    -16.942  0.0000E+00  0.0000E+00  0.2000E+01  0.2000E+01
    -16.728  0.0000E+00  0.0000E+00  0.2000E+01  0.2000E+01
    -16.514  0.0000E+00  0.0000E+00  0.2000E+01  0.2000E+01
    -16.301  0.0000E+00  0.0000E+00  0.2000E+01  0.2000E+01
    -16.087  0.0000E+00  0.0000E+00  0.2000E+01  0.2000E+01
    -15.873  0.0000E+00  0.0000E+00  0.2000E+01  0.2000E+01
    -15.659  0.0000E+00  0.0000E+00  0.2000E+01  0.2000E+01
    -15.446  0.0000E+00  0.0000E+00  0.2000E+01  0.2000E+01
    -15.232  0.0000E+00  0.0000E+00  0.2000E+01  0.2000E+01
    -15.018  0.0000E+00  0.0000E+00  0.2000E+01  0.2000E+01
    -14.804  0.0000E+00  0.0000E+00  0.2000E+01  0.2000E+01
    -14.591  0.0000E+00  0.0000E+00  0.2000E+01  0.2000E+01
    -14.377  0.0000E+00  0.0000E+00  0.2000E+01  0.2000E+01
    -14.163  0.0000E+00  0.0000E+00  0.2000E+01  0.2000E+01
    -13.949  0.0000E+00  0.0000E+00  0.2000E+01  0.2000E+01
    -13.736  0.0000E+00  0.0000E+00  0.2000E+01  0.2000E+01
    -13.522  0.0000E+00  0.0000E+00  0.2000E+01  0.2000E+01
    -13.308  0.0000E+00  0.0000E+00  0.2000E+01  0.2000E+01
    -13.094  0.0000E+00  0.0000E+00  0.2000E+01  0.2000E+01
    -12.881  0.0000E+00  0.0000E+00  0.2000E+01  0.2000E+01
    -12.667  0.0000E+00  0.0000E+00  0.2000E+01  0.2000E+01
    -12.453  0.0000E+00  0.0000E+00  0.2000E+01  0.2000E+01
    -12.239  0.0000E+00  0.0000E+00  0.2000E+01  0.2000E+01
    -12.026  0.0000E+00  0.0000E+00  0.2000E+01  0.2000E+01
    -11.812  0.0000E+00  0.0000E+00  0.2000E+01  0.2000E+01
    -11.598  0.0000E+00  0.0000E+00  0.2000E+01  0.2000E+01
    -11.384  0.0000E+00  0.0000E+00  0.2000E+01  0.2000E+01
    -11.171  0.0000E+00  0.0000E+00  0.2000E+01  0.2000E+01
    -10.957  0.0000E+00  0.0000E+00  0.2000E+01  0.2000E+01
    -10.743  0.0000E+00  0.0000E+00  0.2000E+01  0.2000E+01
    -10.529  0.0000E+00  0.0000E+00  0.2000E+01  0.2000E+01
    -10.316  0.0000E+00  0.0000E+00  0.2000E+01  0.2000E+01
    -10.102  0.0000E+00  0.0000E+00  0.2000E+01  0.2000E+01
     -9.888  0.0000E+00  0.0000E+00  0.2000E+01  0.2000E+01
     -9.674  0.0000E+00  0.0000E+00  0.2000E+01  0.2000E+01
     -9.461  0.0000E+00  0.0000E+00  0.2000E+01  0.2000E+01
     -9.247  0.0000E+00  0.0000E+00  0.2000E+01  0.2000E+01
     -9.033  0.0000E+00  0.0000E+00  0.2000E+01  0.2000E+01
     -8.819  0.0000E+00  0.0000E+00  0.2000E+01  0.2000E+01
     -8.605  0.0000E+00  0.0000E+00  0.2000E+01  0.2000E+01
     -8.392  0.0000E+00  0.0000E+00  0.2000E+01  0.2000E+01
     -8.178  0.0000E+00  0.0000E+00  0.2000E+01  0.2000E+01
     -7.964  0.0000E+00  0.0000E+00  0.2000E+01  0.2000E+01
     -7.750  0.0000E+00  0.0000E+00  0.2000E+01  0.2000E+01
     -7.537  0.0000E+00  0.0000E+00  0.2000E+01  0.2000E+01
     -7.323  0.0000E+00  0.0000E+00  0.2000E+01  0.2000E+01
     -7.109  0.0000E+00  0.0000E+00  0.2000E+01  0.2000E+01
     -6.895  0.0000E+00  0.0000E+00  0.2000E+01  0.2000E+01
     -6.682  0.0000E+00  0.0000E+00  0.2000E+01  0.2000E+01
     -6.468  0.0000E+00  0.0000E+00  0.2000E+01  0.2000E+01
     -6.254  0.0000E+00  0.0000E+00  0.2000E+01  0.2000E+01
     -6.040  0.0000E+00  0.0000E+00  0.2000E+01  0.2000E+01
     -5.827  0.0000E+00  0.0000E+00  0.2000E+01  0.2000E+01
     -5.613  0.0000E+00  0.0000E+00  0.2000E+01  0.2000E+01
     -5.399  0.0000E+00  0.0000E+00  0.2000E+01  0.2000E+01
     -5.185  0.0000E+00  0.0000E+00  0.2000E+01  0.2000E+01
     -4.972  0.0000E+00  0.0000E+00  0.2000E+01  0.2000E+01
     -4.758  0.0000E+00  0.0000E+00  0.2000E+01  0.2000E+01
     -4.544  0.0000E+00  0.0000E+00  0.2000E+01  0.2000E+01
     -4.330  0.0000E+00  0.0000E+00  0.2000E+01  0.2000E+01
     -4.117  0.0000E+00  0.0000E+00  0.2000E+01  0.2000E+01
     -3.903  0.0000E+00  0.0000E+00  0.2000E+01  0.2000E+01
     -3.689  0.0000E+00  0.0000E+00  0.2000E+01  0.2000E+01
     -3.475  0.1036E-06  0.9790E-07  0.2000E+01  0.2000E+01
     -3.262  0.1140E-04  0.1077E-04  0.2000E+01  0.2000E+01
     -3.048  0.8108E-03  0.7677E-03  0.2000E+01  0.2000E+01
     -2.834  0.2484E-01  0.2411E-01  0.2005E+01  0.2005E+01
     -2.620  0.9253E-01  0.9164E-01  0.2025E+01  0.2025E+01
     -2.407  0.1308E+00  0.1302E+00  0.2053E+01  0.2053E+01
     -2.193  0.1728E+00  0.1726E+00  0.2090E+01  0.2090E+01
     -1.979  0.1815E+00  0.1811E+00  0.2129E+01  0.2129E+01
     -1.765  0.2424E+00  0.2420E+00  0.2181E+01  0.2181E+01
     -1.552  0.2038E+00  0.2039E+00  0.2225E+01  0.2225E+01
     -1.338  0.2868E+00  0.2859E+00  0.2287E+01  0.2286E+01
     -1.124  0.2693E+00  0.2700E+00  0.2345E+01  0.2344E+01
     -0.910  0.2960E+00  0.2953E+00  0.2408E+01  0.2408E+01
     -0.697  0.2979E+00  0.2974E+00  0.2472E+01  0.2471E+01
     -0.483  0.3777E+00  0.3777E+00  0.2553E+01  0.2552E+01
     -0.269  0.3048E+00  0.3059E+00  0.2618E+01  0.2618E+01
     -0.055  0.3658E+00  0.3632E+00  0.2697E+01  0.2696E+01
      0.158  0.4248E+00  0.4253E+00  0.2788E+01  0.2787E+01
      0.372  0.4102E+00  0.4091E+00  0.2876E+01  0.2875E+01
      0.586  0.4190E+00  0.4198E+00  0.2966E+01  0.2965E+01
      0.800  0.4160E+00  0.4140E+00  0.3056E+01  0.3054E+01
      1.013  0.6525E+00  0.6528E+00  0.3196E+01  0.3195E+01
      1.227  0.5330E+00  0.5325E+00  0.3311E+01  0.3309E+01
      1.441  0.5397E+00  0.5413E+00  0.3427E+01  0.3426E+01
      1.655  0.3647E+00  0.3667E+00  0.3505E+01  0.3505E+01
      1.869  0.3304E+00  0.3259E+00  0.3576E+01  0.3574E+01
      2.082  0.5631E+00  0.5656E+00  0.3697E+01  0.3696E+01
      2.296  0.2669E+00  0.2701E+00  0.3755E+01  0.3754E+01
      2.510  0.2165E+00  0.2161E+00  0.3802E+01  0.3801E+01
      2.724  0.1198E+00  0.1209E+00  0.3828E+01  0.3827E+01
      2.937  0.1965E+00  0.1940E+00  0.3870E+01  0.3869E+01
      3.151  0.2999E+00  0.3021E+00  0.3934E+01  0.3934E+01
      3.365  0.5899E-01  0.5996E-01  0.3947E+01  0.3947E+01
      3.579  0.8082E-01  0.7955E-01  0.3964E+01  0.3964E+01
      3.792  0.1729E+00  0.1719E+00  0.4002E+01  0.4001E+01
      4.006  0.5357E+00  0.5301E+00  0.4116E+01  0.4114E+01
      4.220  0.8206E+00  0.8174E+00  0.4292E+01  0.4289E+01
      4.434  0.6904E+00  0.6963E+00  0.4440E+01  0.4439E+01
      4.647  0.3652E+00  0.3663E+00  0.4520E+01  0.4519E+01
      4.861  0.5272E+00  0.5212E+00  0.4633E+01  0.4631E+01
      5.075  0.7090E+00  0.7140E+00  0.4785E+01  0.4784E+01
      5.289  0.3136E+00  0.3158E+00  0.4852E+01  0.4852E+01
      5.502  0.2221E+00  0.2208E+00  0.4900E+01  0.4899E+01
      5.716  0.5804E+00  0.5744E+00  0.5024E+01  0.5022E+01
      5.930  0.5961E+00  0.6016E+00  0.5152E+01  0.5152E+01
      6.144  0.2287E+00  0.2290E+00  0.5203E+01  0.5202E+01
      6.357  0.2948E+00  0.2950E+00  0.5266E+01  0.5265E+01
      6.571  0.3752E+00  0.3714E+00  0.5347E+01  0.5345E+01
      6.785  0.7413E+00  0.7400E+00  0.5505E+01  0.5504E+01
      6.999  0.7536E+00  0.7534E+00  0.5667E+01  0.5665E+01
      7.212  0.5385E+00  0.5404E+00  0.5782E+01  0.5781E+01
      7.426  0.5255E+00  0.5255E+00  0.5896E+01  0.5894E+01
      7.640  0.5146E+00  0.5124E+00  0.6006E+01  0.6004E+01
      7.854  0.8449E+00  0.8456E+00  0.6188E+01  0.6186E+01
      8.067  0.5426E+00  0.5488E+00  0.6304E+01  0.6304E+01
      8.281  0.4751E+00  0.4717E+00  0.6407E+01  0.6405E+01
      8.495  0.4289E+00  0.4327E+00  0.6499E+01  0.6498E+01
      8.709  0.4693E+00  0.4676E+00  0.6600E+01  0.6599E+01
      8.922  0.7196E+00  0.7193E+00  0.6754E+01  0.6753E+01
      9.136  0.5649E+00  0.5688E+00  0.6876E+01  0.6875E+01
      9.350  0.2939E+00  0.2941E+00  0.6939E+01  0.6938E+01
      9.564  0.3491E+00  0.3480E+00  0.7014E+01  0.7013E+01
      9.777  0.4512E+00  0.4485E+00  0.7110E+01  0.7109E+01
      9.991  0.6785E+00  0.6779E+00  0.7256E+01  0.7254E+01
     10.205  0.5071E+00  0.5144E+00  0.7365E+01  0.7365E+01
     10.419  0.2801E+00  0.2812E+00  0.7426E+01  0.7426E+01
     10.632  0.3396E+00  0.3385E+00  0.7499E+01  0.7498E+01
     10.846  0.4442E+00  0.4455E+00  0.7594E+01  0.7594E+01
     11.060  0.4089E+00  0.4076E+00  0.7682E+01  0.7681E+01
     11.274  0.4249E+00  0.4237E+00  0.7773E+01  0.7772E+01
     11.488  0.3637E+00  0.3651E+00  0.7851E+01  0.7850E+01
     11.701  0.2357E+00  0.2347E+00  0.7902E+01  0.7901E+01
     11.915  0.1278E+00  0.1370E+00  0.7930E+01  0.7931E+01
     12.129  0.1543E+00  0.1472E+00  0.7964E+01  0.7963E+01
     12.343  0.9866E-01  0.9872E-01  0.7985E+01  0.7984E+01
     12.556  0.6727E-01  0.6861E-01  0.7999E+01  0.7999E+01
     12.770  0.2763E-02  0.3110E-02  0.8000E+01  0.8000E+01
     12.984  0.0000E+00  0.0000E+00  0.8000E+01  0.8000E+01
     13.198  0.0000E+00  0.0000E+00  0.8000E+01  0.8000E+01
     13.411  0.0000E+00  0.0000E+00  0.8000E+01  0.8000E+01
     13.625  0.0000E+00  0.0000E+00  0.8000E+01  0.8000E+01
     13.839  0.0000E+00  0.0000E+00  0.8000E+01  0.8000E+01
     14.053  0.0000E+00  0.0000E+00  0.8000E+01  0.8000E+01
     14.266  0.0000E+00  0.0000E+00  0.8000E+01  0.8000E+01
     14.480  0.0000E+00  0.0000E+00  0.8000E+01  0.8000E+01
     14.694  0.0000E+00  0.0000E+00  0.8000E+01  0.8000E+01
     14.908  0.0000E+00  0.0000E+00  0.8000E+01  0.8000E+01
     15.121  0.0000E+00  0.0000E+00  0.8000E+01  0.8000E+01
     15.335  0.0000E+00  0.0000E+00  0.8000E+01  0.8000E+01
     15.33510681    -48.79150089  301      0.67335932      1.00000000
    -48.792  0.0000E+00  0.0000E+00  0.0000E+00  0.0000E+00  0.0000E+00  0.0000E+00  0.0000E+00  0.0000E+00  0.0000E+00  0.0000E+00  0.0000E+00  0.0000E+00  0.0000E+00  0.0000E+00  0.0000E+00  0.0000E+00  0.0000E+00  0.0000E+00
    -48.578  0.0000E+00  0.0000E+00  0.0000E+00  0.0000E+00  0.0000E+00  0.0000E+00  0.0000E+00  0.0000E+00  0.0000E+00  0.0000E+00  0.0000E+00  0.0000E+00  0.0000E+00  0.0000E+00  0.0000E+00  0.0000E+00  0.0000E+00  0.0000E+00
    -48.364  0.0000E+00  0.0000E+00  0.0000E+00  0.0000E+00  0.0000E+00  0.0000E+00  0.0000E+00  0.0000E+00  0.0000E+00  0.0000E+00  0.0000E+00  0.0000E+00  0.0000E+00  0.0000E+00  0.0000E+00  0.0000E+00  0.0000E+00  0.0000E+00
    -48.150  0.0000E+00  0.0000E+00  0.0000E+00  0.0000E+00  0.0000E+00  0.0000E+00  0.0000E+00  0.0000E+00  0.0000E+00  0.0000E+00  0.0000E+00  0.0000E+00  0.0000E+00  0.0000E+00  0.0000E+00  0.0000E+00  0.0000E+00  0.0000E+00
    -47.936  0.0000E+00  0.0000E+00  0.0000E+00  0.0000E+00  0.0000E+00  0.0000E+00  0.0000E+00  0.0000E+00  0.0000E+00  0.0000E+00  0.0000E+00  0.0000E+00  0.0000E+00  0.0000E+00  0.0000E+00  0.0000E+00  0.0000E+00  0.0000E+00
    -47.723  0.0000E+00  0.0000E+00  0.0000E+00  0.0000E+00  0.0000E+00  0.0000E+00  0.0000E+00  0.0000E+00  0.0000E+00  0.0000E+00  0.0000E+00  0.0000E+00  0.0000E+00  0.0000E+00  0.0000E+00  0.0000E+00  0.0000E+00  0.0000E+00
    -47.509  0.0000E+00  0.0000E+00  0.0000E+00  0.0000E+00  0.0000E+00  0.0000E+00  0.0000E+00  0.0000E+00  0.0000E+00  0.0000E+00  0.0000E+00  0.0000E+00  0.0000E+00  0.0000E+00  0.0000E+00  0.0000E+00  0.0000E+00  0.0000E+00
    -47.295  0.0000E+00  0.0000E+00  0.0000E+00  0.0000E+00  0.0000E+00  0.0000E+00  0.0000E+00  0.0000E+00  0.0000E+00  0.0000E+00  0.0000E+00  0.0000E+00  0.0000E+00  0.0000E+00  0.0000E+00  0.0000E+00  0.0000E+00  0.0000E+00
    -47.081  0.0000E+00  0.0000E+00  0.0000E+00  0.0000E+00  0.0000E+00  0.0000E+00  0.0000E+00  0.0000E+00  0.0000E+00  0.0000E+00  0.0000E+00  0.0000E+00  0.0000E+00  0.0000E+00  0.0000E+00  0.0000E+00  0.0000E+00  0.0000E+00
    -46.868  0.0000E+00  0.0000E+00  0.0000E+00  0.0000E+00  0.0000E+00  0.0000E+00  0.0000E+00  0.0000E+00  0.0000E+00  0.0000E+00  0.0000E+00  0.0000E+00  0.0000E+00  0.0000E+00  0.0000E+00  0.0000E+00  0.0000E+00  0.0000E+00
    -46.654  0.0000E+00  0.0000E+00  0.0000E+00  0.0000E+00  0.0000E+00  0.0000E+00  0.0000E+00  0.0000E+00  0.0000E+00  0.0000E+00  0.0000E+00  0.0000E+00  0.0000E+00  0.0000E+00  0.0000E+00  0.0000E+00  0.0000E+00  0.0000E+00
    -46.440  0.4045E-04  0.3682E-04  0.5180E-12  0.4681E-12  0.5180E-12  0.4681E-12  0.5180E-12  0.4681E-12  0.0000E+00  0.0000E+00  0.0000E+00  0.0000E+00  0.0000E+00  0.0000E+00  0.0000E+00  0.0000E+00  0.0000E+00  0.0000E+00
    -46.226  0.2865E-02  0.2609E-02  0.3669E-10  0.3317E-10  0.3669E-10  0.3317E-10  0.3669E-10  0.3317E-10  0.0000E+00  0.0000E+00  0.0000E+00  0.0000E+00  0.0000E+00  0.0000E+00  0.0000E+00  0.0000E+00  0.0000E+00  0.0000E+00
    -46.013  0.1970E+00  0.1800E+00  0.2524E-08  0.2290E-08  0.2524E-08  0.2290E-08  0.2524E-08  0.2290E-08  0.0000E+00  0.0000E+00  0.0000E+00  0.0000E+00  0.0000E+00  0.0000E+00  0.0000E+00  0.0000E+00  0.0000E+00  0.0000E+00
    -45.799  0.3330E+01  0.3266E+01  0.4339E-07  0.4214E-07  0.4339E-07  0.4214E-07  0.4339E-07  0.4214E-07  0.0000E+00  0.0000E+00  0.0000E+00  0.0000E+00  0.0000E+00  0.0000E+00  0.0000E+00  0.0000E+00  0.0000E+00  0.0000E+00
    -45.585  0.1080E+01  0.1158E+01  0.1444E-07  0.1528E-07  0.1444E-07  0.1528E-07  0.1444E-07  0.1528E-07  0.0000E+00  0.0000E+00  0.0000E+00  0.0000E+00  0.0000E+00  0.0000E+00  0.0000E+00  0.0000E+00  0.0000E+00  0.0000E+00
    -45.371  0.0000E+00  0.0000E+00  0.0000E+00  0.0000E+00  0.0000E+00  0.0000E+00  0.0000E+00  0.0000E+00  0.0000E+00  0.0000E+00  0.0000E+00  0.0000E+00  0.0000E+00  0.0000E+00  0.0000E+00  0.0000E+00  0.0000E+00  0.0000E+00
    -45.158  0.0000E+00  0.0000E+00  0.0000E+00  0.0000E+00  0.0000E+00  0.0000E+00  0.0000E+00  0.0000E+00  0.0000E+00  0.0000E+00  0.0000E+00  0.0000E+00  0.0000E+00  0.0000E+00  0.0000E+00  0.0000E+00  0.0000E+00  0.0000E+00
    -44.944  0.0000E+00  0.0000E+00  0.0000E+00  0.0000E+00  0.0000E+00  0.0000E+00  0.0000E+00  0.0000E+00  0.0000E+00  0.0000E+00  0.0000E+00  0.0000E+00  0.0000E+00  0.0000E+00  0.0000E+00  0.0000E+00  0.0000E+00  0.0000E+00
    -44.730  0.0000E+00  0.0000E+00  0.0000E+00  0.0000E+00  0.0000E+00  0.0000E+00  0.0000E+00  0.0000E+00  0.0000E+00  0.0000E+00  0.0000E+00  0.0000E+00  0.0000E+00  0.0000E+00  0.0000E+00  0.0000E+00  0.0000E+00  0.0000E+00
    -44.516  0.0000E+00  0.0000E+00  0.0000E+00  0.0000E+00  0.0000E+00  0.0000E+00  0.0000E+00  0.0000E+00  0.0000E+00  0.0000E+00  0.0000E+00  0.0000E+00  0.0000E+00  0.0000E+00  0.0000E+00  0.0000E+00  0.0000E+00  0.0000E+00
    -44.303  0.0000E+00  0.0000E+00  0.0000E+00  0.0000E+00  0.0000E+00  0.0000E+00  0.0000E+00  0.0000E+00  0.0000E+00  0.0000E+00  0.0000E+00  0.0000E+00  0.0000E+00  0.0000E+00  0.0000E+00  0.0000E+00  0.0000E+00  0.0000E+00
    -44.089  0.0000E+00  0.0000E+00  0.0000E+00  0.0000E+00  0.0000E+00  0.0000E+00  0.0000E+00  0.0000E+00  0.0000E+00  0.0000E+00  0.0000E+00  0.0000E+00  0.0000E+00  0.0000E+00  0.0000E+00  0.0000E+00  0.0000E+00  0.0000E+00
    -43.875  0.0000E+00  0.0000E+00  0.0000E+00  0.0000E+00  0.0000E+00  0.0000E+00  0.0000E+00  0.0000E+00  0.0000E+00  0.0000E+00  0.0000E+00  0.0000E+00  0.0000E+00  0.0000E+00  0.0000E+00  0.0000E+00  0.0000E+00  0.0000E+00
    -43.661  0.0000E+00  0.0000E+00  0.0000E+00  0.0000E+00  0.0000E+00  0.0000E+00  0.0000E+00  0.0000E+00  0.0000E+00  0.0000E+00  0.0000E+00  0.0000E+00  0.0000E+00  0.0000E+00  0.0000E+00  0.0000E+00  0.0000E+00  0.0000E+00
    -43.448  0.0000E+00  0.0000E+00  0.0000E+00  0.0000E+00  0.0000E+00  0.0000E+00  0.0000E+00  0.0000E+00  0.0000E+00  0.0000E+00  0.0000E+00  0.0000E+00  0.0000E+00  0.0000E+00  0.0000E+00  0.0000E+00  0.0000E+00  0.0000E+00
    -43.234  0.0000E+00  0.0000E+00  0.0000E+00  0.0000E+00  0.0000E+00  0.0000E+00  0.0000E+00  0.0000E+00  0.0000E+00  0.0000E+00  0.0000E+00  0.0000E+00  0.0000E+00  0.0000E+00  0.0000E+00  0.0000E+00  0.0000E+00  0.0000E+00
    -43.020  0.0000E+00  0.0000E+00  0.0000E+00  0.0000E+00  0.0000E+00  0.0000E+00  0.0000E+00  0.0000E+00  0.0000E+00  0.0000E+00  0.0000E+00  0.0000E+00  0.0000E+00  0.0000E+00  0.0000E+00  0.0000E+00  0.0000E+00  0.0000E+00
    -42.806  0.0000E+00  0.0000E+00  0.0000E+00  0.0000E+00  0.0000E+00  0.0000E+00  0.0000E+00  0.0000E+00  0.0000E+00  0.0000E+00  0.0000E+00  0.0000E+00  0.0000E+00  0.0000E+00  0.0000E+00  0.0000E+00  0.0000E+00  0.0000E+00
    -42.593  0.0000E+00  0.0000E+00  0.0000E+00  0.0000E+00  0.0000E+00  0.0000E+00  0.0000E+00  0.0000E+00  0.0000E+00  0.0000E+00  0.0000E+00  0.0000E+00  0.0000E+00  0.0000E+00  0.0000E+00  0.0000E+00  0.0000E+00  0.0000E+00
    -42.379  0.0000E+00  0.0000E+00  0.0000E+00  0.0000E+00  0.0000E+00  0.0000E+00  0.0000E+00  0.0000E+00  0.0000E+00  0.0000E+00  0.0000E+00  0.0000E+00  0.0000E+00  0.0000E+00  0.0000E+00  0.0000E+00  0.0000E+00  0.0000E+00
    -42.165  0.0000E+00  0.0000E+00  0.0000E+00  0.0000E+00  0.0000E+00  0.0000E+00  0.0000E+00  0.0000E+00  0.0000E+00  0.0000E+00  0.0000E+00  0.0000E+00  0.0000E+00  0.0000E+00  0.0000E+00  0.0000E+00  0.0000E+00  0.0000E+00
    -41.951  0.0000E+00  0.0000E+00  0.0000E+00  0.0000E+00  0.0000E+00  0.0000E+00  0.0000E+00  0.0000E+00  0.0000E+00  0.0000E+00  0.0000E+00  0.0000E+00  0.0000E+00  0.0000E+00  0.0000E+00  0.0000E+00  0.0000E+00  0.0000E+00
    -41.738  0.0000E+00  0.0000E+00  0.0000E+00  0.0000E+00  0.0000E+00  0.0000E+00  0.0000E+00  0.0000E+00  0.0000E+00  0.0000E+00  0.0000E+00  0.0000E+00  0.0000E+00  0.0000E+00  0.0000E+00  0.0000E+00  0.0000E+00  0.0000E+00
    -41.524  0.0000E+00  0.0000E+00  0.0000E+00  0.0000E+00  0.0000E+00  0.0000E+00  0.0000E+00  0.0000E+00  0.0000E+00  0.0000E+00  0.0000E+00  0.0000E+00  0.0000E+00  0.0000E+00  0.0000E+00  0.0000E+00  0.0000E+00  0.0000E+00
    -41.310  0.0000E+00  0.0000E+00  0.0000E+00  0.0000E+00  0.0000E+00  0.0000E+00  0.0000E+00  0.0000E+00  0.0000E+00  0.0000E+00  0.0000E+00  0.0000E+00  0.0000E+00  0.0000E+00  0.0000E+00  0.0000E+00  0.0000E+00  0.0000E+00
    -41.096  0.0000E+00  0.0000E+00  0.0000E+00  0.0000E+00  0.0000E+00  0.0000E+00  0.0000E+00  0.0000E+00  0.0000E+00  0.0000E+00  0.0000E+00  0.0000E+00  0.0000E+00  0.0000E+00  0.0000E+00  0.0000E+00  0.0000E+00  0.0000E+00
    -40.883  0.0000E+00  0.0000E+00  0.0000E+00  0.0000E+00  0.0000E+00  0.0000E+00  0.0000E+00  0.0000E+00  0.0000E+00  0.0000E+00  0.0000E+00  0.0000E+00  0.0000E+00  0.0000E+00  0.0000E+00  0.0000E+00  0.0000E+00  0.0000E+00
    -40.669  0.0000E+00  0.0000E+00  0.0000E+00  0.0000E+00  0.0000E+00  0.0000E+00  0.0000E+00  0.0000E+00  0.0000E+00  0.0000E+00  0.0000E+00  0.0000E+00  0.0000E+00  0.0000E+00  0.0000E+00  0.0000E+00  0.0000E+00  0.0000E+00
    -40.455  0.0000E+00  0.0000E+00  0.0000E+00  0.0000E+00  0.0000E+00  0.0000E+00  0.0000E+00  0.0000E+00  0.0000E+00  0.0000E+00  0.0000E+00  0.0000E+00  0.0000E+00  0.0000E+00  0.0000E+00  0.0000E+00  0.0000E+00  0.0000E+00
    -40.241  0.0000E+00  0.0000E+00  0.0000E+00  0.0000E+00  0.0000E+00  0.0000E+00  0.0000E+00  0.0000E+00  0.0000E+00  0.0000E+00  0.0000E+00  0.0000E+00  0.0000E+00  0.0000E+00  0.0000E+00  0.0000E+00  0.0000E+00  0.0000E+00
    -40.028  0.0000E+00  0.0000E+00  0.0000E+00  0.0000E+00  0.0000E+00  0.0000E+00  0.0000E+00  0.0000E+00  0.0000E+00  0.0000E+00  0.0000E+00  0.0000E+00  0.0000E+00  0.0000E+00  0.0000E+00  0.0000E+00  0.0000E+00  0.0000E+00
    -39.814  0.0000E+00  0.0000E+00  0.0000E+00  0.0000E+00  0.0000E+00  0.0000E+00  0.0000E+00  0.0000E+00  0.0000E+00  0.0000E+00  0.0000E+00  0.0000E+00  0.0000E+00  0.0000E+00  0.0000E+00  0.0000E+00  0.0000E+00  0.0000E+00
    -39.600  0.0000E+00  0.0000E+00  0.0000E+00  0.0000E+00  0.0000E+00  0.0000E+00  0.0000E+00  0.0000E+00  0.0000E+00  0.0000E+00  0.0000E+00  0.0000E+00  0.0000E+00  0.0000E+00  0.0000E+00  0.0000E+00  0.0000E+00  0.0000E+00
    -39.386  0.0000E+00  0.0000E+00  0.0000E+00  0.0000E+00  0.0000E+00  0.0000E+00  0.0000E+00  0.0000E+00  0.0000E+00  0.0000E+00  0.0000E+00  0.0000E+00  0.0000E+00  0.0000E+00  0.0000E+00  0.0000E+00  0.0000E+00  0.0000E+00
    -39.173  0.0000E+00  0.0000E+00  0.0000E+00  0.0000E+00  0.0000E+00  0.0000E+00  0.0000E+00  0.0000E+00  0.0000E+00  0.0000E+00  0.0000E+00  0.0000E+00  0.0000E+00  0.0000E+00  0.0000E+00  0.0000E+00  0.0000E+00  0.0000E+00
    -38.959  0.0000E+00  0.0000E+00  0.0000E+00  0.0000E+00  0.0000E+00  0.0000E+00  0.0000E+00  0.0000E+00  0.0000E+00  0.0000E+00  0.0000E+00  0.0000E+00  0.0000E+00  0.0000E+00  0.0000E+00  0.0000E+00  0.0000E+00  0.0000E+00
    -38.745  0.0000E+00  0.0000E+00  0.0000E+00  0.0000E+00  0.0000E+00  0.0000E+00  0.0000E+00  0.0000E+00  0.0000E+00  0.0000E+00  0.0000E+00  0.0000E+00  0.0000E+00  0.0000E+00  0.0000E+00  0.0000E+00  0.0000E+00  0.0000E+00
    -38.531  0.0000E+00  0.0000E+00  0.0000E+00  0.0000E+00  0.0000E+00  0.0000E+00  0.0000E+00  0.0000E+00  0.0000E+00  0.0000E+00  0.0000E+00  0.0000E+00  0.0000E+00  0.0000E+00  0.0000E+00  0.0000E+00  0.0000E+00  0.0000E+00
    -38.317  0.0000E+00  0.0000E+00  0.0000E+00  0.0000E+00  0.0000E+00  0.0000E+00  0.0000E+00  0.0000E+00  0.0000E+00  0.0000E+00  0.0000E+00  0.0000E+00  0.0000E+00  0.0000E+00  0.0000E+00  0.0000E+00  0.0000E+00  0.0000E+00
    -38.104  0.0000E+00  0.0000E+00  0.0000E+00  0.0000E+00  0.0000E+00  0.0000E+00  0.0000E+00  0.0000E+00  0.0000E+00  0.0000E+00  0.0000E+00  0.0000E+00  0.0000E+00  0.0000E+00  0.0000E+00  0.0000E+00  0.0000E+00  0.0000E+00