   2   2   1   0
  0.2678063E+02  0.3769499E-09  0.3769499E-09  0.3769499E-09  0.5000000E-15
  1.000000000000000E-004
  CAR 
 unknown system                          
     12.51490267    -49.93626079  301     -0.04264563      1.00000000
    -49.936  0.0000E+00  0.0000E+00  0.0000E+00  0.0000E+00
    -49.728  0.0000E+00  0.0000E+00  0.0000E+00  0.0000E+00
    -49.520  0.0000E+00  0.0000E+00  0.0000E+00  0.0000E+00
    -49.312  0.0000E+00  0.0000E+00  0.0000E+00  0.0000E+00
    -49.104  0.0000E+00  0.0000E+00  0.0000E+00  0.0000E+00
    -48.895  0.0000E+00  0.0000E+00  0.0000E+00  0.0000E+00
    -48.687  0.0000E+00  0.0000E+00  0.0000E+00  0.0000E+00
    -48.479  0.0000E+00  0.0000E+00  0.0000E+00  0.0000E+00
    -48.271  0.0000E+00  0.0000E+00  0.0000E+00  0.0000E+00
    -48.063  0.0000E+00  0.0000E+00  0.0000E+00  0.0000E+00
    -47.855  0.0000E+00  0.0000E+00  0.0000E+00  0.0000E+00
    -47.646  0.1467E-03  0.1367E-03  0.3053E-04  0.2845E-04
    -47.438  0.9273E-02  0.8642E-02  0.1961E-02  0.1828E-02
    -47.230  0.5607E+00  0.5247E+00  0.1187E+00  0.1111E+00
    -47.022  0.7136E+01  0.7062E+01  0.1604E+01  0.1581E+01
    -46.814  0.1865E+01  0.1972E+01  0.1992E+01  0.1992E+01
    -46.606  0.0000E+00  0.0000E+00  0.2000E+01  0.2000E+01
    -46.397  0.0000E+00  0.0000E+00  0.2000E+01  0.2000E+01
    -46.189  0.0000E+00  0.0000E+00  0.2000E+01  0.2000E+01
    -45.981  0.0000E+00  0.0000E+00  0.2000E+01  0.2000E+01
    -45.773  0.0000E+00  0.0000E+00  0.2000E+01  0.2000E+01
    -45.565  0.0000E+00  0.0000E+00  0.2000E+01  0.2000E+01
    -45.357  0.0000E+00  0.0000E+00  0.2000E+01  0.2000E+01
    -45.148  0.0000E+00  0.0000E+00  0.2000E+01  0.2000E+01
    -44.940  0.0000E+00  0.0000E+00  0.2000E+01  0.2000E+01
    -44.732  0.0000E+00  0.0000E+00  0.2000E+01  0.2000E+01
    -44.524  0.0000E+00  0.0000E+00  0.2000E+01  0.2000E+01
    -44.316  0.0000E+00  0.0000E+00  0.2000E+01  0.2000E+01
    -44.107  0.0000E+00  0.0000E+00  0.2000E+01  0.2000E+01
    -43.899  0.0000E+00  0.0000E+00  0.2000E+01  0.2000E+01
    -43.691  0.0000E+00  0.0000E+00  0.2000E+01  0.2000E+01
    -43.483  0.0000E+00  0.0000E+00  0.2000E+01  0.2000E+01
    -43.275  0.0000E+00  0.0000E+00  0.2000E+01  0.2000E+01
    -43.067  0.0000E+00  0.0000E+00  0.2000E+01  0.2000E+01
    -42.858  0.0000E+00  0.0000E+00  0.2000E+01  0.2000E+01
    -42.650  0.0000E+00  0.0000E+00  0.2000E+01  0.2000E+01
    -42.442  0.0000E+00  0.0000E+00  0.2000E+01  0.2000E+01
    -42.234  0.0000E+00  0.0000E+00  0.2000E+01  0.2000E+01
    -42.026  0.0000E+00  0.0000E+00  0.2000E+01  0.2000E+01
    -41.818  0.0000E+00  0.0000E+00  0.2000E+01  0.2000E+01
    -41.609  0.0000E+00  0.0000E+00  0.2000E+01  0.2000E+01
    -41.401  0.0000E+00  0.0000E+00  0.2000E+01  0.2000E+01
    -41.193  0.0000E+00  0.0000E+00  0.2000E+01  0.2000E+01
    -40.985  0.0000E+00  0.0000E+00  0.2000E+01  0.2000E+01
    -40.777  0.0000E+00  0.0000E+00  0.2000E+01  0.2000E+01
    -40.569  0.0000E+00  0.0000E+00  0.2000E+01  0.2000E+01
    -40.360  0.0000E+00  0.0000E+00  0.2000E+01  0.2000E+01
    -40.152  0.0000E+00  0.0000E+00  0.2000E+01  0.2000E+01
    -39.944  0.0000E+00  0.0000E+00  0.2000E+01  0.2000E+01
    -39.736  0.0000E+00  0.0000E+00  0.2000E+01  0.2000E+01
    -39.528  0.0000E+00  0.0000E+00  0.2000E+01  0.2000E+01
    -39.320  0.0000E+00  0.0000E+00  0.2000E+01  0.2000E+01
    -39.111  0.0000E+00  0.0000E+00  0.2000E+01  0.2000E+01
    -38.903  0.0000E+00  0.0000E+00  0.2000E+01  0.2000E+01
    -38.695  0.0000E+00  0.0000E+00  0.2000E+01  0.2000E+01
    -38.487  0.0000E+00  0.0000E+00  0.2000E+01  0.2000E+01
    -38.279  0.0000E+00  0.0000E+00  0.2000E+01  0.2000E+01
    -38.071  0.0000E+00  0.0000E+00  0.2000E+01  0.2000E+01
    -37.862  0.0000E+00  0.0000E+00  0.2000E+01  0.2000E+01
    -37.654  0.0000E+00  0.0000E+00  0.2000E+01  0.2000E+01
    -37.446  0.0000E+00  0.0000E+00  0.2000E+01  0.2000E+01
    -37.238  0.0000E+00  0.0000E+00  0.2000E+01  0.2000E+01
    -37.030  0.0000E+00  0.0000E+00  0.2000E+01  0.2000E+01
    -36.822  0.0000E+00  0.0000E+00  0.2000E+01  0.2000E+01
    -36.613  0.0000E+00  0.0000E+00  0.2000E+01  0.2000E+01
    -36.405  0.0000E+00  0.0000E+00  0.2000E+01  0.2000E+01
    -36.197  0.0000E+00  0.0000E+00  0.2000E+01  0.2000E+01
    -35.989  0.0000E+00  0.0000E+00  0.2000E+01  0.2000E+01
    -35.781  0.0000E+00  0.0000E+00  0.2000E+01  0.2000E+01
    -35.572  0.0000E+00  0.0000E+00  0.2000E+01  0.2000E+01
    -35.364  0.0000E+00  0.0000E+00  0.2000E+01  0.2000E+01
    -35.156  0.0000E+00  0.0000E+00  0.2000E+01  0.2000E+01
    -34.948  0.0000E+00  0.0000E+00  0.2000E+01  0.2000E+01
    -34.740  0.0000E+00  0.0000E+00  0.2000E+01  0.2000E+01
    -34.532  0.0000E+00  0.0000E+00  0.2000E+01  0.2000E+01
    -34.323  0.0000E+00  0.0000E+00  0.2000E+01  0.2000E+01
    -34.115  0.0000E+00  0.0000E+00  0.2000E+01  0.2000E+01
    -33.907  0.0000E+00  0.0000E+00  0.2000E+01  0.2000E+01
    -33.699  0.0000E+00  0.0000E+00  0.2000E+01  0.2000E+01
    -33.491  0.0000E+00  0.0000E+00  0.2000E+01  0.2000E+01
    -33.283  0.0000E+00  0.0000E+00  0.2000E+01  0.2000E+01
    -33.074  0.0000E+00  0.0000E+00  0.2000E+01  0.2000E+01
    -32.866  0.0000E+00  0.0000E+00  0.2000E+01  0.2000E+01
    -32.658  0.0000E+00  0.0000E+00  0.2000E+01  0.2000E+01
    -32.450  0.0000E+00  0.0000E+00  0.2000E+01  0.2000E+01
    -32.242  0.0000E+00  0.0000E+00  0.2000E+01  0.2000E+01
    -32.034  0.0000E+00  0.0000E+00  0.2000E+01  0.2000E+01
    -31.825  0.0000E+00  0.0000E+00  0.2000E+01  0.2000E+01
    -31.617  0.0000E+00  0.0000E+00  0.2000E+01  0.2000E+01
    -31.409  0.0000E+00  0.0000E+00  0.2000E+01  0.2000E+01
    -31.201  0.0000E+00  0.0000E+00  0.2000E+01  0.2000E+01
    -30.993  0.0000E+00  0.0000E+00  0.2000E+01  0.2000E+01
    -30.785  0.0000E+00  0.0000E+00  0.2000E+01  0.2000E+01
    -30.576  0.0000E+00  0.0000E+00  0.2000E+01  0.2000E+01
    -30.368  0.0000E+00  0.0000E+00  0.2000E+01  0.2000E+01
    -30.160  0.0000E+00  0.0000E+00  0.2000E+01  0.2000E+01
    -29.952  0.0000E+00  0.0000E+00  0.2000E+01  0.2000E+01
    -29.744  0.0000E+00  0.0000E+00  0.2000E+01  0.2000E+01
    -29.536  0.0000E+00  0.0000E+00  0.2000E+01  0.2000E+01
    -29.327  0.0000E+00  0.0000E+00  0.2000E+01  0.2000E+01
    -29.119  0.0000E+00  0.0000E+00  0.2000E+01  0.2000E+01
    -28.911  0.0000E+00  0.0000E+00  0.2000E+01  0.2000E+01
    -28.703  0.0000E+00  0.0000E+00  0.2000E+01  0.2000E+01
    -28.495  0.0000E+00  0.0000E+00  0.2000E+01  0.2000E+01
    -28.287  0.0000E+00  0.0000E+00  0.2000E+01  0.2000E+01
    -28.078  0.0000E+00  0.0000E+00  0.2000E+01  0.2000E+01
    -27.870  0.0000E+00  0.0000E+00  0.2000E+01  0.2000E+01
    -27.662  0.0000E+00  0.0000E+00  0.2000E+01  0.2000E+01
    -27.454  0.0000E+00  0.0000E+00  0.2000E+01  0.2000E+01
    -27.246  0.0000E+00  0.0000E+00  0.2000E+01  0.2000E+01
    -27.038  0.0000E+00  0.0000E+00  0.2000E+01  0.2000E+01
    -26.829  0.0000E+00  0.0000E+00  0.2000E+01  0.2000E+01
    -26.621  0.0000E+00  0.0000E+00  0.2000E+01  0.2000E+01
    -26.413  0.0000E+00  0.0000E+00  0.2000E+01  0.2000E+01
    -26.205  0.0000E+00  0.0000E+00  0.2000E+01  0.2000E+01
    -25.997  0.0000E+00  0.0000E+00  0.2000E+01  0.2000E+01
    -25.788  0.0000E+00  0.0000E+00  0.2000E+01  0.2000E+01
    -25.580  0.0000E+00  0.0000E+00  0.2000E+01  0.2000E+01
    -25.372  0.0000E+00  0.0000E+00  0.2000E+01  0.2000E+01
    -25.164  0.0000E+00  0.0000E+00  0.2000E+01  0.2000E+01
    -24.956  0.0000E+00  0.0000E+00  0.2000E+01  0.2000E+01
    -24.748  0.0000E+00  0.0000E+00  0.2000E+01  0.2000E+01
    -24.539  0.0000E+00  0.0000E+00  0.2000E+01  0.2000E+01
    -24.331  0.0000E+00  0.0000E+00  0.2000E+01  0.2000E+01
    -24.123  0.0000E+00  0.0000E+00  0.2000E+01  0.2000E+01
    -23.915  0.0000E+00  0.0000E+00  0.2000E+01  0.2000E+01
    -23.707  0.0000E+00  0.0000E+00  0.2000E+01  0.2000E+01
    -23.499  0.0000E+00  0.0000E+00  0.2000E+01  0.2000E+01
    -23.290  0.0000E+00  0.0000E+00  0.2000E+01  0.2000E+01
    -23.082  0.0000E+00  0.0000E+00  0.2000E+01  0.2000E+01
    -22.874  0.0000E+00  0.0000E+00  0.2000E+01  0.2000E+01
    -22.666  0.0000E+00  0.0000E+00  0.2000E+01  0.2000E+01
    -22.458  0.0000E+00  0.0000E+00  0.2000E+01  0.2000E+01
    -22.250  0.0000E+00  0.0000E+00  0.2000E+01  0.2000E+01
    -22.041  0.0000E+00  0.0000E+00  0.2000E+01  0.2000E+01
    -21.833  0.0000E+00  0.0000E+00  0.2000E+01  0.2000E+01
    -21.625  0.0000E+00  0.0000E+00  0.2000E+01  0.2000E+01
    -21.417  0.0000E+00  0.0000E+00  0.2000E+01  0.2000E+01
    -21.209  0.0000E+00  0.0000E+00  0.2000E+01  0.2000E+01
    -21.001  0.0000E+00  0.0000E+00  0.2000E+01  0.2000E+01
    -20.792  0.0000E+00  0.0000E+00  0.2000E+01  0.2000E+01
    -20.584  0.0000E+00  0.0000E+00  0.2000E+01  0.2000E+01
    -20.376  0.0000E+00  0.0000E+00  0.2000E+01  0.2000E+01
    -20.168  0.0000E+00  0.0000E+00  0.2000E+01  0.2000E+01
    -19.960  0.0000E+00  0.0000E+00  0.2000E+01  0.2000E+01
    -19.752  0.0000E+00  0.0000E+00  0.2000E+01  0.2000E+01
    -19.543  0.0000E+00  0.0000E+00  0.2000E+01  0.2000E+01
    -19.335  0.0000E+00  0.0000E+00  0.2000E+01  0.2000E+01
    -19.127  0.0000E+00  0.0000E+00  0.2000E+01  0.2000E+01
    -18.919  0.0000E+00  0.0000E+00  0.2000E+01  0.2000E+01
    -18.711  0.0000E+00  0.0000E+00  0.2000E+01  0.2000E+01
    -18.503  0.0000E+00  0.0000E+00  0.2000E+01  0.2000E+01
    -18.294  0.0000E+00  0.0000E+00  0.2000E+01  0.2000E+01
    -18.086  0.0000E+00  0.0000E+00  0.2000E+01  0.2000E+01
    -17.878  0.0000E+00  0.0000E+00  0.2000E+01  0.2000E+01
    -17.670  0.0000E+00  0.0000E+00  0.2000E+01  0.2000E+01
    -17.462  0.0000E+00  0.0000E+00  0.2000E+01  0.2000E+01
    -17.253  0.0000E+00  0.0000E+00  0.2000E+01  0.2000E+01
    -17.045  0.0000E+00  0.0000E+00  0.2000E+01  0.2000E+01
    -16.837  0.0000E+00  0.0000E+00  0.2000E+01  0.2000E+01
    -16.629  0.0000E+00  0.0000E+00  0.2000E+01  0.2000E+01
    -16.421  0.0000E+00  0.0000E+00  0.2000E+01  0.2000E+01
    -16.213  0.0000E+00  0.0000E+00  0.2000E+01  0.2000E+01
    -16.004  0.0000E+00  0.0000E+00  0.2000E+01  0.2000E+01
    -15.796  0.0000E+00  0.0000E+00  0.2000E+01  0.2000E+01
    -15.588  0.0000E+00  0.0000E+00  0.2000E+01  0.2000E+01
    -15.380  0.0000E+00  0.0000E+00  0.2000E+01  0.2000E+01
    -15.172  0.0000E+00  0.0000E+00  0.2000E+01  0.2000E+01
    -14.964  0.0000E+00  0.0000E+00  0.2000E+01  0.2000E+01
    -14.755  0.0000E+00  0.0000E+00  0.2000E+01  0.2000E+01
    -14.547  0.0000E+00  0.0000E+00  0.2000E+01  0.2000E+01
    -14.339  0.0000E+00  0.0000E+00  0.2000E+01  0.2000E+01
    -14.131  0.0000E+00  0.0000E+00  0.2000E+01  0.2000E+01
    -13.923  0.0000E+00  0.0000E+00  0.2000E+01  0.2000E+01
    -13.715  0.0000E+00  0.0000E+00  0.2000E+01  0.2000E+01
    -13.506  0.0000E+00  0.0000E+00  0.2000E+01  0.2000E+01
    -13.298  0.0000E+00  0.0000E+00  0.2000E+01  0.2000E+01
    -13.090  0.0000E+00  0.0000E+00  0.2000E+01  0.2000E+01
    -12.882  0.0000E+00  0.0000E+00  0.2000E+01  0.2000E+01
    -12.674  0.0000E+00  0.0000E+00  0.2000E+01  0.2000E+01
    -12.466  0.0000E+00  0.0000E+00  0.2000E+01  0.2000E+01
    -12.257  0.0000E+00  0.0000E+00  0.2000E+01  0.2000E+01
    -12.049  0.0000E+00  0.0000E+00  0.2000E+01  0.2000E+01
    -11.841  0.0000E+00  0.0000E+00  0.2000E+01  0.2000E+01
    -11.633  0.0000E+00  0.0000E+00  0.2000E+01  0.2000E+01
    -11.425  0.0000E+00  0.0000E+00  0.2000E+01  0.2000E+01
    -11.217  0.0000E+00  0.0000E+00  0.2000E+01  0.2000E+01
    -11.008  0.0000E+00  0.0000E+00  0.2000E+01  0.2000E+01
    -10.800  0.0000E+00  0.0000E+00  0.2000E+01  0.2000E+01
    -10.592  0.0000E+00  0.0000E+00  0.2000E+01  0.2000E+01
    -10.384  0.0000E+00  0.0000E+00  0.2000E+01  0.2000E+01
    -10.176  0.0000E+00  0.0000E+00  0.2000E+01  0.2000E+01
     -9.968  0.0000E+00  0.0000E+00  0.2000E+01  0.2000E+01
     -9.759  0.0000E+00  0.0000E+00  0.2000E+01  0.2000E+01
     -9.551  0.0000E+00  0.0000E+00  0.2000E+01  0.2000E+01
     -9.343  0.0000E+00  0.0000E+00  0.2000E+01  0.2000E+01
     -9.135  0.0000E+00  0.0000E+00  0.2000E+01  0.2000E+01
     -8.927  0.0000E+00  0.0000E+00  0.2000E+01  0.2000E+01
     -8.718  0.0000E+00  0.0000E+00  0.2000E+01  0.2000E+01
     -8.510  0.0000E+00  0.0000E+00  0.2000E+01  0.2000E+01
     -8.302  0.0000E+00  0.0000E+00  0.2000E+01  0.2000E+01
     -8.094  0.0000E+00  0.0000E+00  0.2000E+01  0.2000E+01
     -7.886  0.0000E+00  0.0000E+00  0.2000E+01  0.2000E+01
     -7.678  0.0000E+00  0.0000E+00  0.2000E+01  0.2000E+01
     -7.469  0.0000E+00  0.0000E+00  0.2000E+01  0.2000E+01
     -7.261  0.0000E+00  0.0000E+00  0.2000E+01  0.2000E+01
     -7.053  0.0000E+00  0.0000E+00  0.2000E+01  0.2000E+01
     -6.845  0.0000E+00  0.0000E+00  0.2000E+01  0.2000E+01
     -6.637  0.0000E+00  0.0000E+00  0.2000E+01  0.2000E+01
     -6.429  0.0000E+00  0.0000E+00  0.2000E+01  0.2000E+01
     -6.220  0.0000E+00  0.0000E+00  0.2000E+01  0.2000E+01
     -6.012  0.0000E+00  0.0000E+00  0.2000E+01  0.2000E+01
     -5.804  0.0000E+00  0.0000E+00  0.2000E+01  0.2000E+01
     -5.596  0.0000E+00  0.0000E+00  0.2000E+01  0.2000E+01
     -5.388  0.0000E+00  0.0000E+00  0.2000E+01  0.2000E+01
     -5.180  0.0000E+00  0.0000E+00  0.2000E+01  0.2000E+01
     -4.971  0.0000E+00  0.0000E+00  0.2000E+01  0.2000E+01
     -4.763  0.0000E+00  0.0000E+00  0.2000E+01  0.2000E+01
     -4.555  0.0000E+00  0.0000E+00  0.2000E+01  0.2000E+01
     -4.347  0.0000E+00  0.0000E+00  0.2000E+01  0.2000E+01
     -4.139  0.0000E+00  0.0000E+00  0.2000E+01  0.2000E+01
     -3.931  0.0000E+00  0.0000E+00  0.2000E+01  0.2000E+01
     -3.722  0.7730E-06  0.7509E-06  0.2000E+01  0.2000E+01
     -3.514  0.5633E-04  0.5472E-04  0.2000E+01  0.2000E+01
     -3.306  0.3280E-02  0.3194E-02  0.2001E+01  0.2001E+01
     -3.098  0.5019E-01  0.4965E-01  0.2011E+01  0.2011E+01
     -2.890  0.1248E+00  0.1245E+00  0.2037E+01  0.2037E+01
     -2.682  0.1745E+00  0.1741E+00  0.2074E+01  0.2073E+01
     -2.473  0.2002E+00  0.2002E+00  0.2115E+01  0.2115E+01
     -2.265  0.2509E+00  0.2503E+00  0.2168E+01  0.2167E+01
     -2.057  0.2432E+00  0.2434E+00  0.2218E+01  0.2218E+01
     -1.849  0.3118E+00  0.3111E+00  0.2284E+01  0.2283E+01
     -1.641  0.3030E+00  0.3034E+00  0.2347E+01  0.2346E+01
     -1.433  0.3347E+00  0.3343E+00  0.2417E+01  0.2416E+01
     -1.224  0.3576E+00  0.3568E+00  0.2491E+01  0.2491E+01
     -1.016  0.4084E+00  0.4087E+00  0.2577E+01  0.2576E+01
     -0.808  0.3310E+00  0.3307E+00  0.2646E+01  0.2645E+01
     -0.600  0.4807E+00  0.4800E+00  0.2747E+01  0.2746E+01
     -0.392  0.4376E+00  0.4379E+00  0.2838E+01  0.2838E+01
     -0.184  0.4796E+00  0.4795E+00  0.2939E+01  0.2938E+01
      0.025  0.4530E+00  0.4522E+00  0.3033E+01  0.3033E+01
      0.233  0.6642E+00  0.6633E+00  0.3172E+01  0.3171E+01
      0.441  0.6149E+00  0.6152E+00  0.3301E+01  0.3300E+01
      0.649  0.6016E+00  0.6024E+00  0.3427E+01  0.3426E+01
      0.857  0.4267E+00  0.4275E+00  0.3516E+01  0.3516E+01
      1.066  0.5362E+00  0.5336E+00  0.3628E+01  0.3627E+01
      1.274  0.4771E+00  0.4798E+00  0.3728E+01  0.3727E+01
      1.482  0.2495E+00  0.2519E+00  0.3781E+01  0.3780E+01
      1.690  0.1984E+00  0.1993E+00  0.3822E+01  0.3822E+01
      1.898  0.2592E+00  0.2571E+00  0.3877E+01  0.3876E+01
      2.106  0.2860E+00  0.2881E+00  0.3936E+01  0.3936E+01
      2.315  0.8901E-01  0.8854E-01  0.3955E+01  0.3955E+01
      2.523  0.3809E+00  0.3768E+00  0.4035E+01  0.4033E+01
      2.731  0.7906E+00  0.7862E+00  0.4199E+01  0.4197E+01
      2.939  0.9261E+00  0.9303E+00  0.4393E+01  0.4392E+01
      3.147  0.4465E+00  0.4460E+00  0.4487E+01  0.4486E+01
      3.355  0.6870E+00  0.6857E+00  0.4631E+01  0.4630E+01
      3.564  0.6362E+00  0.6367E+00  0.4764E+01  0.4762E+01
      3.772  0.4101E+00  0.4142E+00  0.4850E+01  0.4849E+01
      3.980  0.3878E+00  0.3825E+00  0.4931E+01  0.4929E+01
      4.188  0.7294E+00  0.7294E+00  0.5083E+01  0.5081E+01
      4.396  0.4492E+00  0.4539E+00  0.5177E+01  0.5176E+01
      4.604  0.3883E+00  0.3858E+00  0.5259E+01  0.5258E+01
      4.813  0.7121E+00  0.7049E+00  0.5408E+01  0.5405E+01
      5.021  0.9910E+00  0.9906E+00  0.5614E+01  0.5611E+01
      5.229  0.7666E+00  0.7722E+00  0.5775E+01  0.5773E+01
      5.437  0.5801E+00  0.5782E+00  0.5896E+01  0.5894E+01
      5.645  0.6785E+00  0.6784E+00  0.6038E+01  0.6036E+01
      5.853  0.8245E+00  0.8241E+00  0.6210E+01  0.6208E+01
      6.062  0.7163E+00  0.7175E+00  0.6360E+01  0.6358E+01
      6.270  0.5371E+00  0.5443E+00  0.6473E+01  0.6472E+01
      6.478  0.3566E+00  0.3537E+00  0.6548E+01  0.6547E+01
      6.686  0.8997E+00  0.8926E+00  0.6736E+01  0.6733E+01
      6.894  0.6522E+00  0.6612E+00  0.6872E+01  0.6871E+01
      7.102  0.3526E+00  0.3534E+00  0.6947E+01  0.6945E+01
      7.311  0.4759E+00  0.4740E+00  0.7046E+01  0.7045E+01
      7.519  0.5596E+00  0.5576E+00  0.7163E+01  0.7161E+01
      7.727  0.7358E+00  0.7378E+00  0.7317E+01  0.7315E+01
      7.935  0.4354E+00  0.4359E+00  0.7408E+01  0.7407E+01
      8.143  0.5041E+00  0.5019E+00  0.7514E+01  0.7512E+01
      8.351  0.4393E+00  0.4406E+00  0.7606E+01  0.7604E+01
      8.560  0.4586E+00  0.4578E+00  0.7702E+01  0.7700E+01
      8.768  0.5285E+00  0.5291E+00  0.7812E+01  0.7811E+01
      8.976  0.4299E+00  0.4305E+00  0.7902E+01  0.7901E+01
      9.184  0.1674E+00  0.1734E+00  0.7938E+01  0.7937E+01
      9.392  0.9642E-01  0.9048E-01  0.7958E+01  0.7957E+01
      9.601  0.1426E+00  0.1337E+00  0.7988E+01  0.7985E+01
      9.809  0.5464E-01  0.7033E-01  0.7999E+01  0.7999E+01
     10.017  0.2042E-02  0.2245E-02  0.8000E+01  0.8000E+01
     10.225  0.0000E+00  0.0000E+00  0.8000E+01  0.8000E+01
     10.433  0.0000E+00  0.0000E+00  0.8000E+01  0.8000E+01
     10.641  0.0000E+00  0.0000E+00  0.8000E+01  0.8000E+01
     10.850  0.0000E+00  0.0000E+00  0.8000E+01  0.8000E+01
     11.058  0.0000E+00  0.0000E+00  0.8000E+01  0.8000E+01
     11.266  0.0000E+00  0.0000E+00  0.8000E+01  0.8000E+01
     11.474  0.0000E+00  0.0000E+00  0.8000E+01  0.8000E+01
     11.682  0.0000E+00  0.0000E+00  0.8000E+01  0.8000E+01
     11.890  0.0000E+00  0.0000E+00  0.8000E+01  0.8000E+01
     12.099  0.0000E+00  0.0000E+00  0.8000E+01  0.8000E+01
     12.307  0.0000E+00  0.0000E+00  0.8000E+01  0.8000E+01
     12.515  0.0000E+00  0.0000E+00  0.8000E+01  0.8000E+01
     12.51490267    -49.93626079  301     -0.04264563      1.00000000
    -49.936  0.0000E+00  0.0000E+00  0.0000E+00  0.0000E+00  0.0000E+00  0.0000E+00  0.0000E+00  0.0000E+00  0.0000E+00  0.0000E+00  0.0000E+00  0.0000E+00  0.0000E+00  0.0000E+00  0.0000E+00  0.0000E+00  0.0000E+00  0.0000E+00
    -49.728  0.0000E+00  0.0000E+00  0.0000E+00  0.0000E+00  0.0000E+00  0.0000E+00  0.0000E+00  0.0000E+00  0.0000E+00  0.0000E+00  0.0000E+00  0.0000E+00  0.0000E+00  0.0000E+00  0.0000E+00  0.0000E+00  0.0000E+00  0.0000E+00
    -49.520  0.0000E+00  0.0000E+00  0.0000E+00  0.0000E+00  0.0000E+00  0.0000E+00  0.0000E+00  0.0000E+00  0.0000E+00  0.0000E+00  0.0000E+00  0.0000E+00  0.0000E+00  0.0000E+00  0.0000E+00  0.0000E+00  0.0000E+00  0.0000E+00
    -49.312  0.0000E+00  0.0000E+00  0.0000E+00  0.0000E+00  0.0000E+00  0.0000E+00  0.0000E+00  0.0000E+00  0.0000E+00  0.0000E+00  0.0000E+00  0.0000E+00  0.0000E+00  0.0000E+00  0.0000E+00  0.0000E+00  0.0000E+00  0.0000E+00
    -49.104  0.0000E+00  0.0000E+00  0.0000E+00  0.0000E+00  0.0000E+00  0.0000E+00  0.0000E+00  0.0000E+00  0.0000E+00  0.0000E+00  0.0000E+00  0.0000E+00  0.0000E+00  0.0000E+00  0.0000E+00  0.0000E+00  0.0000E+00  0.0000E+00
    -48.895  0.0000E+00  0.0000E+00  0.0000E+00  0.0000E+00  0.0000E+00  0.0000E+00  0.0000E+00  0.0000E+00  0.0000E+00  0.0000E+00  0.0000E+00  0.0000E+00  0.0000E+00  0.0000E+00  0.0000E+00  0.0000E+00  0.0000E+00  0.0000E+00
    -48.687  0.0000E+00  0.0000E+00  0.0000E+00  0.0000E+00  0.0000E+00  0.0000E+00  0.0000E+00  0.0000E+00  0.0000E+00  0.0000E+00  0.0000E+00  0.0000E+00  0.0000E+00  0.0000E+00  0.0000E+00  0.0000E+00  0.0000E+00  0.0000E+00
    -48.479  0.0000E+00  0.0000E+00  0.0000E+00  0.0000E+00  0.0000E+00  0.0000E+00  0.0000E+00  0.0000E+00  0.0000E+00  0.0000E+00  0.0000E+00  0.0000E+00  0.0000E+00  0.0000E+00  0.0000E+00  0.0000E+00  0.0000E+00  0.0000E+00
    -48.271  0.0000E+00  0.0000E+00  0.0000E+00  0.0000E+00  0.0000E+00  0.0000E+00  0.0000E+00  0.0000E+00  0.0000E+00  0.0000E+00  0.0000E+00  0.0000E+00  0.0000E+00  0.0000E+00  0.0000E+00  0.0000E+00  0.0000E+00  0.0000E+00
    -48.063  0.0000E+00  0.0000E+00  0.0000E+00  0.0000E+00  0.0000E+00  0.0000E+00  0.0000E+00  0.0000E+00  0.0000E+00  0.0000E+00  0.0000E+00  0.0000E+00  0.0000E+00  0.0000E+00  0.0000E+00  0.0000E+00  0.0000E+00  0.0000E+00
    -47.855  0.0000E+00  0.0000E+00  0.0000E+00  0.0000E+00  0.0000E+00  0.0000E+00  0.0000E+00  0.0000E+00  0.0000E+00  0.0000E+00  0.0000E+00  0.0000E+00  0.0000E+00  0.0000E+00  0.0000E+00  0.0000E+00  0.0000E+00  0.0000E+00
    -47.646  0.7257E-04  0.6764E-04  0.8963E-12  0.8334E-12  0.8963E-12  0.8334E-12  0.8963E-12  0.8334E-12  0.0000E+00  0.0000E+00  0.0000E+00  0.0000E+00  0.0000E+00  0.0000E+00  0.0000E+00  0.0000E+00  0.0000E+00  0.0000E+00
    -47.438  0.4588E-02  0.4277E-02  0.5667E-10  0.5270E-10  0.5667E-10  0.5270E-10  0.5667E-10  0.5270E-10  0.0000E+00  0.0000E+00  0.0000E+00  0.0000E+00  0.0000E+00  0.0000E+00  0.0000E+00  0.0000E+00  0.0000E+00  0.0000E+00
    -47.230  0.2775E+00  0.2597E+00  0.3427E-08  0.3200E-08  0.3427E-08  0.3200E-08  0.3427E-08  0.3200E-08  0.0000E+00  0.0000E+00  0.0000E+00  0.0000E+00  0.0000E+00  0.0000E+00  0.0000E+00  0.0000E+00  0.0000E+00  0.0000E+00
    -47.022  0.3531E+01  0.3495E+01  0.4358E-07  0.4305E-07  0.4358E-07  0.4305E-07  0.4358E-07  0.4305E-07  0.0000E+00  0.0000E+00  0.0000E+00  0.0000E+00  0.0000E+00  0.0000E+00  0.0000E+00  0.0000E+00  0.0000E+00  0.0000E+00
    -46.814  0.9229E+00  0.9759E+00  0.1138E-07  0.1201E-07  0.1138E-07  0.1201E-07  0.1138E-07  0.1201E-07  0.0000E+00  0.0000E+00  0.0000E+00  0.0000E+00  0.0000E+00  0.0000E+00  0.0000E+00  0.0000E+00  0.0000E+00  0.0000E+00
    -46.606  0.0000E+00  0.0000E+00  0.0000E+00  0.0000E+00  0.0000E+00  0.0000E+00  0.0000E+00  0.0000E+00  0.0000E+00  0.0000E+00  0.0000E+00  0.0000E+00  0.0000E+00  0.0000E+00  0.0000E+00  0.0000E+00  0.0000E+00  0.0000E+00
    -46.397  0.0000E+00  0.0000E+00  0.0000E+00  0.0000E+00  0.0000E+00  0.0000E+00  0.0000E+00  0.0000E+00  0.0000E+00  0.0000E+00  0.0000E+00  0.0000E+00  0.0000E+00  0.0000E+00  0.0000E+00  0.0000E+00  0.0000E+00  0.0000E+00
    -46.189  0.0000E+00  0.0000E+00  0.0000E+00  0.0000E+00  0.0000E+00  0.0000E+00  0.0000E+00  0.0000E+00  0.0000E+00  0.0000E+00  0.0000E+00  0.0000E+00  0.0000E+00  0.0000E+00  0.0000E+00  0.0000E+00  0.0000E+00  0.0000E+00
    -45.981  0.0000E+00  0.0000E+00  0.0000E+00  0.0000E+00  0.0000E+00  0.0000E+00  0.0000E+00  0.0000E+00  0.0000E+00  0.0000E+00  0.0000E+00  0.0000E+00  0.0000E+00  0.0000E+00  0.0000E+00  0.0000E+00  0.0000E+00  0.0000E+00
    -45.773  0.0000E+00  0.0000E+00  0.0000E+00  0.0000E+00  0.0000E+00  0.0000E+00  0.0000E+00  0.0000E+00  0.0000E+00  0.0000E+00  0.0000E+00  0.0000E+00  0.0000E+00  0.0000E+00  0.0000E+00  0.0000E+00  0.0000E+00  0.0000E+00
    -45.565  0.0000E+00  0.0000E+00  0.0000E+00  0.0000E+00  0.0000E+00  0.0000E+00  0.0000E+00  0.0000E+00  0.0000E+00  0.0000E+00  0.0000E+00  0.0000E+00  0.0000E+00  0.0000E+00  0.0000E+00  0.0000E+00  0.0000E+00  0.0000E+00
    -45.357  0.0000E+00  0.0000E+00  0.0000E+00  0.0000E+00  0.0000E+00  0.0000E+00  0.0000E+00  0.0000E+00  0.0000E+00  0.0000E+00  0.0000E+00  0.0000E+00  0.0000E+00  0.0000E+00  0.0000E+00  0.0000E+00  0.0000E+00  0.0000E+00
    -45.148  0.0000E+00  0.0000E+00  0.0000E+00  0.0000E+00  0.0000E+00  0.0000E+00  0.0000E+00  0.0000E+00  0.0000E+00  0.0000E+00  0.0000E+00  0.0000E+00  0.0000E+00  0.0000E+00  0.0000E+00  0.0000E+00  0.0000E+00  0.0000E+00
    -44.940  0.0000E+00  0.0000E+00  0.0000E+00  0.0000E+00  0.0000E+00  0.0000E+00  0.0000E+00  0.0000E+00  0.0000E+00  0.0000E+00  0.0000E+00  0.0000E+00  0.0000E+00  0.0000E+00  0.0000E+00  0.0000E+00  0.0000E+00  0.0000E+00
    -44.732  0.0000E+00  0.0000E+00  0.0000E+00  0.0000E+00  0.0000E+00  0.0000E+00  0.0000E+00  0.0000E+00  0.0000E+00  0.0000E+00  0.0000E+00  0.0000E+00  0.0000E+00  0.0000E+00  0.0000E+00  0.0000E+00  0.0000E+00  0.0000E+00
    -44.524  0.0000E+00  0.0000E+00  0.0000E+00  0.0000E+00  0.0000E+00  0.0000E+00  0.0000E+00  0.0000E+00  0.0000E+00  0.0000E+00  0.0000E+00  0.0000E+00  0.0000E+00  0.0000E+00  0.0000E+00  0.0000E+00  0.0000E+00  0.0000E+00
    -44.316  0.0000E+00  0.0000E+00  0.0000E+00  0.0000E+00  0.0000E+00  0.0000E+00  0.0000E+00  0.0000E+00  0.0000E+00  0.0000E+00  0.0000E+00  0.0000E+00  0.0000E+00  0.0000E+00  0.0000E+00  0.0000E+00  0.0000E+00  0.0000E+00
    -44.107  0.0000E+00  0.0000E+00  0.0000E+00  0.0000E+00  0.0000E+00  0.0000E+00  0.0000E+00  0.0000E+00  0.0000E+00  0.0000E+00  0.0000E+00  0.0000E+00  0.0000E+00  0.0000E+00  0.0000E+00  0.0000E+00  0.0000E+00  0.0000E+00
    -43.899  0.0000E+00  0.0000E+00  0.0000E+00  0.0000E+00  0.0000E+00  0.0000E+00  0.0000E+00  0.0000E+00  0.0000E+00  0.0000E+00  0.0000E+00  0.0000E+00  0.0000E+00  0.0000E+00  0.0000E+00  0.0000E+00  0.0000E+00  0.0000E+00
    -43.691  0.0000E+00  0.0000E+00  0.0000E+00  0.0000E+00  0.0000E+00  0.0000E+00  0.0000E+00  0.0000E+00  0.0000E+00  0.0000E+00  0.0000E+00  0.0000E+00  0.0000E+00  0.0000E+00  0.0000E+00  0.0000E+00  0.0000E+00  0.0000E+00
    -43.483  0.0000E+00  0.0000E+00  0.0000E+00  0.0000E+00  0.0000E+00  0.0000E+00  0.0000E+00  0.0000E+00  0.0000E+00  0.0000E+00  0.0000E+00  0.0000E+00  0.0000E+00  0.0000E+00  0.0000E+00  0.0000E+00  0.0000E+00  0.0000E+00
    -43.275  0.0000E+00  0.0000E+00  0.0000E+00  0.0000E+00  0.0000E+00  0.0000E+00  0.0000E+00  0.0000E+00  0.0000E+00  0.0000E+00  0.0000E+00  0.0000E+00  0.0000E+00  0.0000E+00  0.0000E+00  0.0000E+00  0.0000E+00  0.0000E+00
    -43.067  0.0000E+00  0.0000E+00  0.0000E+00  0.0000E+00  0.0000E+00  0.0000E+00  0.0000E+00  0.0000E+00  0.0000E+00  0.0000E+00  0.0000E+00  0.0000E+00  0.0000E+00  0.0000E+00  0.0000E+00  0.0000E+00  0.0000E+00  0.0000E+00
    -42.858  0.0000E+00  0.0000E+00  0.0000E+00  0.0000E+00  0.0000E+00  0.0000E+00  0.0000E+00  0.0000E+00  0.0000E+00  0.0000E+00  0.0000E+00  0.0000E+00  0.0000E+00  0.0000E+00  0.0000E+00  0.0000E+00  0.0000E+00  0.0000E+00
    -42.650  0.0000E+00  0.0000E+00  0.0000E+00  0.0000E+00  0.0000E+00  0.0000E+00  0.0000E+00  0.0000E+00  0.0000E+00  0.0000E+00  0.0000E+00  0.0000E+00  0.0000E+00  0.0000E+00  0.0000E+00  0.0000E+00  0.0000E+00  0.0000E+00
    -42.442  0.0000E+00  0.0000E+00  0.0000E+00  0.0000E+00  0.0000E+00  0.0000E+00  0.0000E+00  0.0000E+00  0.0000E+00  0.0000E+00  0.0000E+00  0.0000E+00  0.0000E+00  0.0000E+00  0.0000E+00  0.0000E+00  0.0000E+00  0.0000E+00
    -42.234  0.0000E+00  0.0000E+00  0.0000E+00  0.0000E+00  0.0000E+00  0.0000E+00  0.0000E+00  0.0000E+00  0.0000E+00  0.0000E+00  0.0000E+00  0.0000E+00  0.0000E+00  0.0000E+00  0.0000E+00  0.0000E+00  0.0000E+00  0.0000E+00
    -42.026  0.0000E+00  0.0000E+00  0.0000E+00  0.0000E+00  0.0000E+00  0.0000E+00  0.0000E+00  0.0000E+00  0.0000E+00  0.0000E+00  0.0000E+00  0.0000E+00  0.0000E+00  0.0000E+00  0.0000E+00  0.0000E+00  0.0000E+00  0.0000E+00
    -41.818  0.0000E+00  0.0000E+00  0.0000E+00  0.0000E+00  0.0000E+00  0.0000E+00  0.0000E+00  0.0000E+00  0.0000E+00  0.0000E+00  0.0000E+00  0.0000E+00  0.0000E+00  0.0000E+00  0.0000E+00  0.0000E+00  0.0000E+00  0.0000E+00
    -41.609  0.0000E+00  0.0000E+00  0.0000E+00  0.0000E+00  0.0000E+00  0.0000E+00  0.0000E+00  0.0000E+00  0.0000E+00  0.0000E+00  0.0000E+00  0.0000E+00  0.0000E+00  0.0000E+00  0.0000E+00  0.0000E+00  0.0000E+00  0.0000E+00
    -41.401  0.0000E+00  0.0000E+00  0.0000E+00  0.0000E+00  0.0000E+00  0.0000E+00  0.0000E+00  0.0000E+00  0.0000E+00  0.0000E+00  0.0000E+00  0.0000E+00  0.0000E+00  0.0000E+00  0.0000E+00  0.0000E+00  0.0000E+00  0.0000E+00
    -41.193  0.0000E+00  0.0000E+00  0.0000E+00  0.0000E+00  0.0000E+00  0.0000E+00  0.0000E+00  0.0000E+00  0.0000E+00  0.0000E+00  0.0000E+00  0.0000E+00  0.0000E+00  0.0000E+00  0.0000E+00  0.0000E+00  0.0000E+00  0.0000E+00
    -40.985  0.0000E+00  0.0000E+00  0.0000E+00  0.0000E+00  0.0000E+00  0.0000E+00  0.0000E+00  0.0000E+00  0.0000E+00  0.0000E+00  0.0000E+00  0.0000E+00  0.0000E+00  0.0000E+00  0.0000E+00  0.0000E+00  0.0000E+00  0.0000E+00
    -40.777  0.0000E+00  0.0000E+00  0.0000E+00  0.0000E+00  0.0000E+00  0.0000E+00  0.0000E+00  0.0000E+00  0.0000E+00  0.0000E+00  0.0000E+00  0.0000E+00  0.0000E+00  0.0000E+00  0.0000E+00  0.0000E+00  0.0000E+00  0.0000E+00
    -40.569  0.0000E+00  0.0000E+00  0.0000E+00  0.0000E+00  0.0000E+00  0.0000E+00  0.0000E+00  0.0000E+00  0.0000E+00  0.0000E+00  0.0000E+00  0.0000E+00  0.0000E+00  0.0000E+00  0.0000E+00  0.0000E+00  0.0000E+00  0.0000E+00
    -40.360  0.0000E+00  0.0000E+00  0.0000E+00  0.0000E+00  0.0000E+00  0.0000E+00  0.0000E+00  0.0000E+00  0.0000E+00  0.0000E+00  0.0000E+00  0.0000E+00  0.0000E+00  0.0000E+00  0.0000E+00  0.0000E+00  0.0000E+00  0.0000E+00
    -40.152  0.0000E+00  0.0000E+00  0.0000E+00  0.0000E+00  0.0000E+00  0.0000E+00  0.0000E+00  0.0000E+00  0.0000E+00  0.0000E+00  0.0000E+00  0.0000E+00  0.0000E+00  0.0000E+00  0.0000E+00  0.0000E+00  0.0000E+00  0.0000E+00
    -39.944  0.0000E+00  0.0000E+00  0.0000E+00  0.0000E+00  0.0000E+00  0.0000E+00  0.0000E+00  0.0000E+00  0.0000E+00  0.0000E+00  0.0000E+00  0.0000E+00  0.0000E+00  0.0000E+00  0.0000E+00  0.0000E+00  0.0000E+00  0.0000E+00
    -39.736  0.0000E+00  0.0000E+00  0.0000E+00  0.0000E+00  0.0000E+00  0.0000E+00  0.0000E+00  0.0000E+00  0.0000E+00  0.0000E+00  0.0000E+00  0.0000E+00  0.0000E+00  0.0000E+00  0.0000E+00  0.0000E+00  0.0000E+00  0.0000E+00
    -39.528  0.0000E+00  0.0000E+00  0.0000E+00  0.0000E+00  0.0000E+00  0.0000E+00  0.0000E+00  0.0000E+00  0.0000E+00  0.0000E+00  0.0000E+00  0.0000E+00  0.0000E+00  0.0000E+00  0.0000E+00  0.0000E+00  0.0000E+00  0.0000E+00