   2   2   1   0
  0.1618421E+02  0.3186940E-09  0.3186940E-09  0.3186940E-09  0.5000000E-15
  1.000000000000000E-004
  CAR 
 unknown system                          
     17.97773289    -47.85506783  301      1.34171284      1.00000000
    -47.855  0.0000E+00  0.0000E+00  0.0000E+00  0.0000E+00
    -47.636  0.0000E+00  0.0000E+00  0.0000E+00  0.0000E+00
    -47.416  0.0000E+00  0.0000E+00  0.0000E+00  0.0000E+00
    -47.197  0.0000E+00  0.0000E+00  0.0000E+00  0.0000E+00
    -46.977  0.0000E+00  0.0000E+00  0.0000E+00  0.0000E+00
    -46.758  0.0000E+00  0.0000E+00  0.0000E+00  0.0000E+00
    -46.538  0.0000E+00  0.0000E+00  0.0000E+00  0.0000E+00
    -46.319  0.0000E+00  0.0000E+00  0.0000E+00  0.0000E+00
    -46.100  0.0000E+00  0.0000E+00  0.0000E+00  0.0000E+00
    -45.880  0.0000E+00  0.0000E+00  0.0000E+00  0.0000E+00
    -45.661  0.0000E+00  0.0000E+00  0.0000E+00  0.0000E+00
    -45.441  0.1640E-04  0.1081E-04  0.3600E-05  0.2373E-05
    -45.222  0.2990E-02  0.2691E-02  0.6597E-03  0.5928E-03
    -45.002  0.2324E+00  0.2095E+00  0.5166E-01  0.4656E-01
    -44.783  0.5874E+01  0.5681E+01  0.1341E+01  0.1293E+01
    -44.563  0.2949E+01  0.3158E+01  0.1988E+01  0.1986E+01
    -44.344  0.0000E+00  0.0000E+00  0.2000E+01  0.2000E+01
    -44.125  0.0000E+00  0.0000E+00  0.2000E+01  0.2000E+01
    -43.905  0.0000E+00  0.0000E+00  0.2000E+01  0.2000E+01
    -43.686  0.0000E+00  0.0000E+00  0.2000E+01  0.2000E+01
    -43.466  0.0000E+00  0.0000E+00  0.2000E+01  0.2000E+01
    -43.247  0.0000E+00  0.0000E+00  0.2000E+01  0.2000E+01
    -43.027  0.0000E+00  0.0000E+00  0.2000E+01  0.2000E+01
    -42.808  0.0000E+00  0.0000E+00  0.2000E+01  0.2000E+01
    -42.588  0.0000E+00  0.0000E+00  0.2000E+01  0.2000E+01
    -42.369  0.0000E+00  0.0000E+00  0.2000E+01  0.2000E+01
    -42.150  0.0000E+00  0.0000E+00  0.2000E+01  0.2000E+01
    -41.930  0.0000E+00  0.0000E+00  0.2000E+01  0.2000E+01
    -41.711  0.0000E+00  0.0000E+00  0.2000E+01  0.2000E+01
    -41.491  0.0000E+00  0.0000E+00  0.2000E+01  0.2000E+01
    -41.272  0.0000E+00  0.0000E+00  0.2000E+01  0.2000E+01
    -41.052  0.0000E+00  0.0000E+00  0.2000E+01  0.2000E+01
    -40.833  0.0000E+00  0.0000E+00  0.2000E+01  0.2000E+01
    -40.613  0.0000E+00  0.0000E+00  0.2000E+01  0.2000E+01
    -40.394  0.0000E+00  0.0000E+00  0.2000E+01  0.2000E+01
    -40.175  0.0000E+00  0.0000E+00  0.2000E+01  0.2000E+01
    -39.955  0.0000E+00  0.0000E+00  0.2000E+01  0.2000E+01
    -39.736  0.0000E+00  0.0000E+00  0.2000E+01  0.2000E+01
    -39.516  0.0000E+00  0.0000E+00  0.2000E+01  0.2000E+01
    -39.297  0.0000E+00  0.0000E+00  0.2000E+01  0.2000E+01
    -39.077  0.0000E+00  0.0000E+00  0.2000E+01  0.2000E+01
    -38.858  0.0000E+00  0.0000E+00  0.2000E+01  0.2000E+01
    -38.638  0.0000E+00  0.0000E+00  0.2000E+01  0.2000E+01
    -38.419  0.0000E+00  0.0000E+00  0.2000E+01  0.2000E+01
    -38.200  0.0000E+00  0.0000E+00  0.2000E+01  0.2000E+01
    -37.980  0.0000E+00  0.0000E+00  0.2000E+01  0.2000E+01
    -37.761  0.0000E+00  0.0000E+00  0.2000E+01  0.2000E+01
    -37.541  0.0000E+00  0.0000E+00  0.2000E+01  0.2000E+01
    -37.322  0.0000E+00  0.0000E+00  0.2000E+01  0.2000E+01
    -37.102  0.0000E+00  0.0000E+00  0.2000E+01  0.2000E+01
    -36.883  0.0000E+00  0.0000E+00  0.2000E+01  0.2000E+01
    -36.663  0.0000E+00  0.0000E+00  0.2000E+01  0.2000E+01
    -36.444  0.0000E+00  0.0000E+00  0.2000E+01  0.2000E+01
    -36.225  0.0000E+00  0.0000E+00  0.2000E+01  0.2000E+01
    -36.005  0.0000E+00  0.0000E+00  0.2000E+01  0.2000E+01
    -35.786  0.0000E+00  0.0000E+00  0.2000E+01  0.2000E+01
    -35.566  0.0000E+00  0.0000E+00  0.2000E+01  0.2000E+01
    -35.347  0.0000E+00  0.0000E+00  0.2000E+01  0.2000E+01
    -35.127  0.0000E+00  0.0000E+00  0.2000E+01  0.2000E+01
    -34.908  0.0000E+00  0.0000E+00  0.2000E+01  0.2000E+01
    -34.689  0.0000E+00  0.0000E+00  0.2000E+01  0.2000E+01
    -34.469  0.0000E+00  0.0000E+00  0.2000E+01  0.2000E+01
    -34.250  0.0000E+00  0.0000E+00  0.2000E+01  0.2000E+01
    -34.030  0.0000E+00  0.0000E+00  0.2000E+01  0.2000E+01
    -33.811  0.0000E+00  0.0000E+00  0.2000E+01  0.2000E+01
    -33.591  0.0000E+00  0.0000E+00  0.2000E+01  0.2000E+01
    -33.372  0.0000E+00  0.0000E+00  0.2000E+01  0.2000E+01
    -33.152  0.0000E+00  0.0000E+00  0.2000E+01  0.2000E+01
    -32.933  0.0000E+00  0.0000E+00  0.2000E+01  0.2000E+01
    -32.714  0.0000E+00  0.0000E+00  0.2000E+01  0.2000E+01
    -32.494  0.0000E+00  0.0000E+00  0.2000E+01  0.2000E+01
    -32.275  0.0000E+00  0.0000E+00  0.2000E+01  0.2000E+01
    -32.055  0.0000E+00  0.0000E+00  0.2000E+01  0.2000E+01
    -31.836  0.0000E+00  0.0000E+00  0.2000E+01  0.2000E+01
    -31.616  0.0000E+00  0.0000E+00  0.2000E+01  0.2000E+01
    -31.397  0.0000E+00  0.0000E+00  0.2000E+01  0.2000E+01
    -31.177  0.0000E+00  0.0000E+00  0.2000E+01  0.2000E+01
    -30.958  0.0000E+00  0.0000E+00  0.2000E+01  0.2000E+01
    -30.739  0.0000E+00  0.0000E+00  0.2000E+01  0.2000E+01
    -30.519  0.0000E+00  0.0000E+00  0.2000E+01  0.2000E+01
    -30.300  0.0000E+00  0.0000E+00  0.2000E+01  0.2000E+01
    -30.080  0.0000E+00  0.0000E+00  0.2000E+01  0.2000E+01
    -29.861  0.0000E+00  0.0000E+00  0.2000E+01  0.2000E+01
    -29.641  0.0000E+00  0.0000E+00  0.2000E+01  0.2000E+01
    -29.422  0.0000E+00  0.0000E+00  0.2000E+01  0.2000E+01
    -29.202  0.0000E+00  0.0000E+00  0.2000E+01  0.2000E+01
    -28.983  0.0000E+00  0.0000E+00  0.2000E+01  0.2000E+01
    -28.764  0.0000E+00  0.0000E+00  0.2000E+01  0.2000E+01
    -28.544  0.0000E+00  0.0000E+00  0.2000E+01  0.2000E+01
    -28.325  0.0000E+00  0.0000E+00  0.2000E+01  0.2000E+01
    -28.105  0.0000E+00  0.0000E+00  0.2000E+01  0.2000E+01
    -27.886  0.0000E+00  0.0000E+00  0.2000E+01  0.2000E+01
    -27.666  0.0000E+00  0.0000E+00  0.2000E+01  0.2000E+01
    -27.447  0.0000E+00  0.0000E+00  0.2000E+01  0.2000E+01
    -27.227  0.0000E+00  0.0000E+00  0.2000E+01  0.2000E+01
    -27.008  0.0000E+00  0.0000E+00  0.2000E+01  0.2000E+01
    -26.789  0.0000E+00  0.0000E+00  0.2000E+01  0.2000E+01
    -26.569  0.0000E+00  0.0000E+00  0.2000E+01  0.2000E+01
    -26.350  0.0000E+00  0.0000E+00  0.2000E+01  0.2000E+01
    -26.130  0.0000E+00  0.0000E+00  0.2000E+01  0.2000E+01
    -25.911  0.0000E+00  0.0000E+00  0.2000E+01  0.2000E+01
    -25.691  0.0000E+00  0.0000E+00  0.2000E+01  0.2000E+01
    -25.472  0.0000E+00  0.0000E+00  0.2000E+01  0.2000E+01
    -25.252  0.0000E+00  0.0000E+00  0.2000E+01  0.2000E+01
    -25.033  0.0000E+00  0.0000E+00  0.2000E+01  0.2000E+01
    -24.814  0.0000E+00  0.0000E+00  0.2000E+01  0.2000E+01
    -24.594  0.0000E+00  0.0000E+00  0.2000E+01  0.2000E+01
    -24.375  0.0000E+00  0.0000E+00  0.2000E+01  0.2000E+01
    -24.155  0.0000E+00  0.0000E+00  0.2000E+01  0.2000E+01
    -23.936  0.0000E+00  0.0000E+00  0.2000E+01  0.2000E+01
    -23.716  0.0000E+00  0.0000E+00  0.2000E+01  0.2000E+01
    -23.497  0.0000E+00  0.0000E+00  0.2000E+01  0.2000E+01
    -23.277  0.0000E+00  0.0000E+00  0.2000E+01  0.2000E+01
    -23.058  0.0000E+00  0.0000E+00  0.2000E+01  0.2000E+01
    -22.839  0.0000E+00  0.0000E+00  0.2000E+01  0.2000E+01
    -22.619  0.0000E+00  0.0000E+00  0.2000E+01  0.2000E+01
    -22.400  0.0000E+00  0.0000E+00  0.2000E+01  0.2000E+01
    -22.180  0.0000E+00  0.0000E+00  0.2000E+01  0.2000E+01
    -21.961  0.0000E+00  0.0000E+00  0.2000E+01  0.2000E+01
    -21.741  0.0000E+00  0.0000E+00  0.2000E+01  0.2000E+01
    -21.522  0.0000E+00  0.0000E+00  0.2000E+01  0.2000E+01
    -21.303  0.0000E+00  0.0000E+00  0.2000E+01  0.2000E+01
    -21.083  0.0000E+00  0.0000E+00  0.2000E+01  0.2000E+01
    -20.864  0.0000E+00  0.0000E+00  0.2000E+01  0.2000E+01
    -20.644  0.0000E+00  0.0000E+00  0.2000E+01  0.2000E+01
    -20.425  0.0000E+00  0.0000E+00  0.2000E+01  0.2000E+01
    -20.205  0.0000E+00  0.0000E+00  0.2000E+01  0.2000E+01
    -19.986  0.0000E+00  0.0000E+00  0.2000E+01  0.2000E+01
    -19.766  0.0000E+00  0.0000E+00  0.2000E+01  0.2000E+01
    -19.547  0.0000E+00  0.0000E+00  0.2000E+01  0.2000E+01
    -19.328  0.0000E+00  0.0000E+00  0.2000E+01  0.2000E+01
    -19.108  0.0000E+00  0.0000E+00  0.2000E+01  0.2000E+01
    -18.889  0.0000E+00  0.0000E+00  0.2000E+01  0.2000E+01
    -18.669  0.0000E+00  0.0000E+00  0.2000E+01  0.2000E+01
    -18.450  0.0000E+00  0.0000E+00  0.2000E+01  0.2000E+01
    -18.230  0.0000E+00  0.0000E+00  0.2000E+01  0.2000E+01
    -18.011  0.0000E+00  0.0000E+00  0.2000E+01  0.2000E+01
    -17.791  0.0000E+00  0.0000E+00  0.2000E+01  0.2000E+01
    -17.572  0.0000E+00  0.0000E+00  0.2000E+01  0.2000E+01
    -17.353  0.0000E+00  0.0000E+00  0.2000E+01  0.2000E+01
    -17.133  0.0000E+00  0.0000E+00  0.2000E+01  0.2000E+01
    -16.914  0.0000E+00  0.0000E+00  0.2000E+01  0.2000E+01
    -16.694  0.0000E+00  0.0000E+00  0.2000E+01  0.2000E+01
    -16.475  0.0000E+00  0.0000E+00  0.2000E+01  0.2000E+01
    -16.255  0.0000E+00  0.0000E+00  0.2000E+01  0.2000E+01
    -16.036  0.0000E+00  0.0000E+00  0.2000E+01  0.2000E+01
    -15.816  0.0000E+00  0.0000E+00  0.2000E+01  0.2000E+01
    -15.597  0.0000E+00  0.0000E+00  0.2000E+01  0.2000E+01
    -15.378  0.0000E+00  0.0000E+00  0.2000E+01  0.2000E+01
    -15.158  0.0000E+00  0.0000E+00  0.2000E+01  0.2000E+01
    -14.939  0.0000E+00  0.0000E+00  0.2000E+01  0.2000E+01
    -14.719  0.0000E+00  0.0000E+00  0.2000E+01  0.2000E+01
    -14.500  0.0000E+00  0.0000E+00  0.2000E+01  0.2000E+01
    -14.280  0.0000E+00  0.0000E+00  0.2000E+01  0.2000E+01
    -14.061  0.0000E+00  0.0000E+00  0.2000E+01  0.2000E+01
    -13.841  0.0000E+00  0.0000E+00  0.2000E+01  0.2000E+01
    -13.622  0.0000E+00  0.0000E+00  0.2000E+01  0.2000E+01
    -13.403  0.0000E+00  0.0000E+00  0.2000E+01  0.2000E+01
    -13.183  0.0000E+00  0.0000E+00  0.2000E+01  0.2000E+01
    -12.964  0.0000E+00  0.0000E+00  0.2000E+01  0.2000E+01
    -12.744  0.0000E+00  0.0000E+00  0.2000E+01  0.2000E+01
    -12.525  0.0000E+00  0.0000E+00  0.2000E+01  0.2000E+01
    -12.305  0.0000E+00  0.0000E+00  0.2000E+01  0.2000E+01
    -12.086  0.0000E+00  0.0000E+00  0.2000E+01  0.2000E+01
    -11.866  0.0000E+00  0.0000E+00  0.2000E+01  0.2000E+01
    -11.647  0.0000E+00  0.0000E+00  0.2000E+01  0.2000E+01
    -11.428  0.0000E+00  0.0000E+00  0.2000E+01  0.2000E+01
    -11.208  0.0000E+00  0.0000E+00  0.2000E+01  0.2000E+01
    -10.989  0.0000E+00  0.0000E+00  0.2000E+01  0.2000E+01
    -10.769  0.0000E+00  0.0000E+00  0.2000E+01  0.2000E+01
    -10.550  0.0000E+00  0.0000E+00  0.2000E+01  0.2000E+01
    -10.330  0.0000E+00  0.0000E+00  0.2000E+01  0.2000E+01
    -10.111  0.0000E+00  0.0000E+00  0.2000E+01  0.2000E+01
     -9.891  0.0000E+00  0.0000E+00  0.2000E+01  0.2000E+01
     -9.672  0.0000E+00  0.0000E+00  0.2000E+01  0.2000E+01
     -9.453  0.0000E+00  0.0000E+00  0.2000E+01  0.2000E+01
     -9.233  0.0000E+00  0.0000E+00  0.2000E+01  0.2000E+01
     -9.014  0.0000E+00  0.0000E+00  0.2000E+01  0.2000E+01
     -8.794  0.0000E+00  0.0000E+00  0.2000E+01  0.2000E+01
     -8.575  0.0000E+00  0.0000E+00  0.2000E+01  0.2000E+01
     -8.355  0.0000E+00  0.0000E+00  0.2000E+01  0.2000E+01
     -8.136  0.0000E+00  0.0000E+00  0.2000E+01  0.2000E+01
     -7.917  0.0000E+00  0.0000E+00  0.2000E+01  0.2000E+01
     -7.697  0.0000E+00  0.0000E+00  0.2000E+01  0.2000E+01
     -7.478  0.0000E+00  0.0000E+00  0.2000E+01  0.2000E+01
     -7.258  0.0000E+00  0.0000E+00  0.2000E+01  0.2000E+01
     -7.039  0.0000E+00  0.0000E+00  0.2000E+01  0.2000E+01
     -6.819  0.0000E+00  0.0000E+00  0.2000E+01  0.2000E+01
     -6.600  0.0000E+00  0.0000E+00  0.2000E+01  0.2000E+01
     -6.380  0.0000E+00  0.0000E+00  0.2000E+01  0.2000E+01
     -6.161  0.0000E+00  0.0000E+00  0.2000E+01  0.2000E+01
     -5.942  0.0000E+00  0.0000E+00  0.2000E+01  0.2000E+01
     -5.722  0.0000E+00  0.0000E+00  0.2000E+01  0.2000E+01
     -5.503  0.0000E+00  0.0000E+00  0.2000E+01  0.2000E+01
     -5.283  0.0000E+00  0.0000E+00  0.2000E+01  0.2000E+01
     -5.064  0.0000E+00  0.0000E+00  0.2000E+01  0.2000E+01
     -4.844  0.0000E+00  0.0000E+00  0.2000E+01  0.2000E+01
     -4.625  0.0000E+00  0.0000E+00  0.2000E+01  0.2000E+01
     -4.405  0.0000E+00  0.0000E+00  0.2000E+01  0.2000E+01
     -4.186  0.0000E+00  0.0000E+00  0.2000E+01  0.2000E+01
     -3.967  0.0000E+00  0.0000E+00  0.2000E+01  0.2000E+01
     -3.747  0.0000E+00  0.0000E+00  0.2000E+01  0.2000E+01
     -3.528  0.0000E+00  0.0000E+00  0.2000E+01  0.2000E+01
     -3.308  0.0000E+00  0.0000E+00  0.2000E+01  0.2000E+01
     -3.089  0.2240E-07  0.2020E-07  0.2000E+01  0.2000E+01
     -2.869  0.7505E-05  0.6770E-05  0.2000E+01  0.2000E+01
     -2.650  0.5943E-03  0.5374E-03  0.2000E+01  0.2000E+01
     -2.430  0.2115E-01  0.1998E-01  0.2005E+01  0.2005E+01
     -2.211  0.8258E-01  0.8105E-01  0.2023E+01  0.2022E+01
     -1.992  0.1172E+00  0.1165E+00  0.2049E+01  0.2048E+01
     -1.772  0.1592E+00  0.1588E+00  0.2084E+01  0.2083E+01
     -1.553  0.1637E+00  0.1637E+00  0.2120E+01  0.2119E+01
     -1.333  0.2172E+00  0.2170E+00  0.2168E+01  0.2167E+01
     -1.114  0.2009E+00  0.2024E+00  0.2212E+01  0.2211E+01
     -0.894  0.2403E+00  0.2375E+00  0.2265E+01  0.2264E+01
     -0.675  0.2725E+00  0.2734E+00  0.2325E+01  0.2324E+01
     -0.455  0.2429E+00  0.2415E+00  0.2379E+01  0.2377E+01
     -0.236  0.2661E+00  0.2666E+00  0.2437E+01  0.2436E+01
     -0.017  0.3291E+00  0.3262E+00  0.2510E+01  0.2508E+01
      0.203  0.3278E+00  0.3294E+00  0.2582E+01  0.2581E+01
      0.422  0.2525E+00  0.2527E+00  0.2639E+01  0.2637E+01
      0.642  0.3876E+00  0.3857E+00  0.2724E+01  0.2722E+01
      0.861  0.3754E+00  0.3760E+00  0.2807E+01  0.2805E+01
      1.081  0.4200E+00  0.4187E+00  0.2900E+01  0.2898E+01
      1.300  0.3886E+00  0.3889E+00  0.2985E+01  0.2983E+01
      1.520  0.3971E+00  0.3933E+00  0.3073E+01  0.3070E+01
      1.739  0.5954E+00  0.6009E+00  0.3204E+01  0.3202E+01
      1.958  0.5040E+00  0.5015E+00  0.3316E+01  0.3313E+01
      2.178  0.4912E+00  0.4935E+00  0.3424E+01  0.3422E+01
      2.397  0.3438E+00  0.3473E+00  0.3500E+01  0.3499E+01
      2.617  0.1905E+00  0.1875E+00  0.3542E+01  0.3541E+01
      2.836  0.5396E+00  0.5370E+00  0.3661E+01  0.3659E+01
      3.056  0.3363E+00  0.3419E+00  0.3735E+01  0.3734E+01
      3.275  0.1829E+00  0.1829E+00  0.3776E+01  0.3775E+01
      3.495  0.1841E+00  0.1863E+00  0.3816E+01  0.3816E+01
      3.714  0.9232E-01  0.9264E-01  0.3837E+01  0.3836E+01
      3.933  0.1767E+00  0.1724E+00  0.3876E+01  0.3874E+01
      4.153  0.2756E+00  0.2801E+00  0.3936E+01  0.3936E+01
      4.372  0.4323E-01  0.4554E-01  0.3947E+01  0.3947E+01
      4.592  0.4883E-01  0.4760E-01  0.3958E+01  0.3957E+01
      4.811  0.1410E+00  0.1412E+00  0.3989E+01  0.3988E+01
      5.031  0.1943E+00  0.1905E+00  0.4031E+01  0.4030E+01
      5.250  0.3726E+00  0.3670E+00  0.4113E+01  0.4111E+01
      5.470  0.5437E+00  0.5445E+00  0.4233E+01  0.4231E+01
      5.689  0.7645E+00  0.7591E+00  0.4402E+01  0.4399E+01
      5.908  0.4562E+00  0.4668E+00  0.4503E+01  0.4502E+01
      6.128  0.2921E+00  0.2891E+00  0.4568E+01  0.4566E+01
      6.347  0.6929E+00  0.6846E+00  0.4720E+01  0.4717E+01
      6.567  0.4425E+00  0.4520E+00  0.4817E+01  0.4816E+01
      6.786  0.2638E+00  0.2682E+00  0.4876E+01  0.4876E+01
      7.006  0.2127E+00  0.2116E+00  0.4924E+01  0.4923E+01
      7.225  0.5041E+00  0.4949E+00  0.5034E+01  0.5032E+01
      7.444  0.5605E+00  0.5687E+00  0.5157E+01  0.5156E+01
      7.664  0.2024E+00  0.2043E+00  0.5203E+01  0.5202E+01
      7.883  0.2685E+00  0.2682E+00  0.5262E+01  0.5261E+01
      8.103  0.2317E+00  0.2312E+00  0.5313E+01  0.5312E+01
      8.322  0.4828E+00  0.4757E+00  0.5420E+01  0.5417E+01
      8.542  0.5591E+00  0.5619E+00  0.5543E+01  0.5541E+01
      8.761  0.5424E+00  0.5419E+00  0.5663E+01  0.5661E+01
      8.981  0.3622E+00  0.3635E+00  0.5743E+01  0.5742E+01
      9.200  0.5536E+00  0.5540E+00  0.5865E+01  0.5864E+01
      9.419  0.4010E+00  0.3976E+00  0.5954E+01  0.5952E+01
      9.639  0.7665E+00  0.7658E+00  0.6123E+01  0.6120E+01
      9.858  0.5450E+00  0.5471E+00  0.6243E+01  0.6241E+01
     10.078  0.4399E+00  0.4421E+00  0.6340E+01  0.6339E+01
     10.297  0.4079E+00  0.4073E+00  0.6431E+01  0.6429E+01
     10.517  0.3883E+00  0.3881E+00  0.6516E+01  0.6515E+01
     10.736  0.5391E+00  0.5341E+00  0.6635E+01  0.6632E+01
     10.956  0.5804E+00  0.5857E+00  0.6763E+01  0.6762E+01
     11.175  0.4503E+00  0.4494E+00  0.6862E+01  0.6861E+01
     11.394  0.3054E+00  0.3073E+00  0.6929E+01  0.6929E+01
     11.614  0.2853E+00  0.2845E+00  0.6993E+01  0.6992E+01
     11.833  0.4395E+00  0.4378E+00  0.7090E+01  0.7088E+01
     12.053  0.4535E+00  0.4524E+00  0.7189E+01  0.7188E+01
     12.272  0.6393E+00  0.6390E+00  0.7330E+01  0.7329E+01
     12.492  0.3310E+00  0.3351E+00  0.7404E+01  0.7403E+01
     12.711  0.1361E+00  0.1374E+00  0.7434E+01  0.7434E+01
     12.931  0.3133E+00  0.3101E+00  0.7503E+01  0.7502E+01
     13.150  0.4596E+00  0.4607E+00  0.7604E+01  0.7603E+01
     13.369  0.3316E+00  0.3315E+00  0.7677E+01  0.7676E+01
     13.589  0.3642E+00  0.3629E+00  0.7757E+01  0.7756E+01
     13.808  0.3474E+00  0.3514E+00  0.7834E+01  0.7834E+01
     14.028  0.1739E+00  0.1741E+00  0.7873E+01  0.7873E+01
     14.247  0.1691E+00  0.1670E+00  0.7911E+01  0.7910E+01
     14.467  0.1459E+00  0.1544E+00  0.7943E+01  0.7944E+01
     14.686  0.1288E+00  0.1243E+00  0.7972E+01  0.7972E+01
     14.906  0.7486E-01  0.7352E-01  0.7988E+01  0.7988E+01
     15.125  0.5075E-01  0.5134E-01  0.7999E+01  0.7999E+01
     15.344  0.2500E-02  0.2835E-02  0.8000E+01  0.8000E+01
     15.564  0.0000E+00  0.0000E+00  0.8000E+01  0.8000E+01
     15.783  0.0000E+00  0.0000E+00  0.8000E+01  0.8000E+01
     16.003  0.0000E+00  0.0000E+00  0.8000E+01  0.8000E+01
     16.222  0.0000E+00  0.0000E+00  0.8000E+01  0.8000E+01
     16.442  0.0000E+00  0.0000E+00  0.8000E+01  0.8000E+01
     16.661  0.0000E+00  0.0000E+00  0.8000E+01  0.8000E+01
     16.881  0.0000E+00  0.0000E+00  0.8000E+01  0.8000E+01
     17.100  0.0000E+00  0.0000E+00  0.8000E+01  0.8000E+01
     17.319  0.0000E+00  0.0000E+00  0.8000E+01  0.8000E+01
     17.539  0.0000E+00  0.0000E+00  0.8000E+01  0.8000E+01
     17.758  0.0000E+00  0.0000E+00  0.8000E+01  0.8000E+01
     17.978  0.0000E+00  0.0000E+00  0.8000E+01  0.8000E+01
     17.97773289    -47.85506783  301      1.34171284      1.00000000
    -47.855  0.0000E+00  0.0000E+00  0.0000E+00  0.0000E+00  0.0000E+00  0.0000E+00  0.0000E+00  0.0000E+00  0.0000E+00  0.0000E+00  0.0000E+00  0.0000E+00  0.0000E+00  0.0000E+00  0.0000E+00  0.0000E+00  0.0000E+00  0.0000E+00
    -47.636  0.0000E+00  0.0000E+00  0.0000E+00  0.0000E+00  0.0000E+00  0.0000E+00  0.0000E+00  0.0000E+00  0.0000E+00  0.0000E+00  0.0000E+00  0.0000E+00  0.0000E+00  0.0000E+00  0.0000E+00  0.0000E+00  0.0000E+00  0.0000E+00
    -47.416  0.0000E+00  0.0000E+00  0.0000E+00  0.0000E+00  0.0000E+00  0.0000E+00  0.0000E+00  0.0000E+00  0.0000E+00  0.0000E+00  0.0000E+00  0.0000E+00  0.0000E+00  0.0000E+00  0.0000E+00  0.0000E+00  0.0000E+00  0.0000E+00
    -47.197  0.0000E+00  0.0000E+00  0.0000E+00  0.0000E+00  0.0000E+00  0.0000E+00  0.0000E+00  0.0000E+00  0.0000E+00  0.0000E+00  0.0000E+00  0.0000E+00  0.0000E+00  0.0000E+00  0.0000E+00  0.0000E+00  0.0000E+00  0.0000E+00
    -46.977  0.0000E+00  0.0000E+00  0.0000E+00  0.0000E+00  0.0000E+00  0.0000E+00  0.0000E+00  0.0000E+00  0.0000E+00  0.0000E+00  0.0000E+00  0.0000E+00  0.0000E+00  0.0000E+00  0.0000E+00  0.0000E+00  0.0000E+00  0.0000E+00
    -46.758  0.0000E+00  0.0000E+00  0.0000E+00  0.0000E+00  0.0000E+00  0.0000E+00  0.0000E+00  0.0000E+00  0.0000E+00  0.0000E+00  0.0000E+00  0.0000E+00  0.0000E+00  0.0000E+00  0.0000E+00  0.0000E+00  0.0000E+00  0.0000E+00
    -46.538  0.0000E+00  0.0000E+00  0.0000E+00  0.0000E+00  0.0000E+00  0.0000E+00  0.0000E+00  0.0000E+00  0.0000E+00  0.0000E+00  0.0000E+00  0.0000E+00  0.0000E+00  0.0000E+00  0.0000E+00  0.0000E+00  0.0000E+00  0.0000E+00
    -46.319  0.0000E+00  0.0000E+00  0.0000E+00  0.0000E+00  0.0000E+00  0.0000E+00  0.0000E+00  0.0000E+00  0.0000E+00  0.0000E+00  0.0000E+00  0.0000E+00  0.0000E+00  0.0000E+00  0.0000E+00  0.0000E+00  0.0000E+00  0.0000E+00
    -46.100  0.0000E+00  0.0000E+00  0.0000E+00  0.0000E+00  0.0000E+00  0.0000E+00  0.0000E+00  0.0000E+00  0.0000E+00  0.0000E+00  0.0000E+00  0.0000E+00  0.0000E+00  0.0000E+00  0.0000E+00  0.0000E+00  0.0000E+00  0.0000E+00
    -45.880  0.0000E+00  0.0000E+00  0.0000E+00  0.0000E+00  0.0000E+00  0.0000E+00  0.0000E+00  0.0000E+00  0.0000E+00  0.0000E+00  0.0000E+00  0.0000E+00  0.0000E+00  0.0000E+00  0.0000E+00  0.0000E+00  0.0000E+00  0.0000E+00
    -45.661  0.0000E+00  0.0000E+00  0.0000E+00  0.0000E+00  0.0000E+00  0.0000E+00  0.0000E+00  0.0000E+00  0.0000E+00  0.0000E+00  0.0000E+00  0.0000E+00  0.0000E+00  0.0000E+00  0.0000E+00  0.0000E+00  0.0000E+00  0.0000E+00
    -45.441  0.8105E-05  0.5342E-05  0.7397E-12  0.4351E-12  0.7397E-12  0.4351E-12  0.7397E-12  0.4351E-12  0.0000E+00  0.0000E+00  0.0000E+00  0.0000E+00  0.0000E+00  0.0000E+00  0.0000E+00  0.0000E+00  0.0000E+00  0.0000E+00
    -45.222  0.1478E-02  0.1331E-02  0.1235E-09  0.1086E-09  0.1235E-09  0.1086E-09  0.1235E-09  0.1086E-09  0.0000E+00  0.0000E+00  0.0000E+00  0.0000E+00  0.0000E+00  0.0000E+00  0.0000E+00  0.0000E+00  0.0000E+00  0.0000E+00
    -45.002  0.1149E+00  0.1036E+00  0.9610E-08  0.8455E-08  0.9610E-08  0.8455E-08  0.9610E-08  0.8455E-08  0.0000E+00  0.0000E+00  0.0000E+00  0.0000E+00  0.0000E+00  0.0000E+00  0.0000E+00  0.0000E+00  0.0000E+00  0.0000E+00
    -44.783  0.2905E+01  0.2810E+01  0.2410E-06  0.2277E-06  0.2410E-06  0.2277E-06  0.2410E-06  0.2277E-06  0.0000E+00  0.0000E+00  0.0000E+00  0.0000E+00  0.0000E+00  0.0000E+00  0.0000E+00  0.0000E+00  0.0000E+00  0.0000E+00
    -44.563  0.1459E+01  0.1562E+01  0.1173E-06  0.1227E-06  0.1173E-06  0.1227E-06  0.1173E-06  0.1227E-06  0.0000E+00  0.0000E+00  0.0000E+00  0.0000E+00  0.0000E+00  0.0000E+00  0.0000E+00  0.0000E+00  0.0000E+00  0.0000E+00
    -44.344  0.0000E+00  0.0000E+00  0.0000E+00  0.0000E+00  0.0000E+00  0.0000E+00  0.0000E+00  0.0000E+00  0.0000E+00  0.0000E+00  0.0000E+00  0.0000E+00  0.0000E+00  0.0000E+00  0.0000E+00  0.0000E+00  0.0000E+00  0.0000E+00
    -44.125  0.0000E+00  0.0000E+00  0.0000E+00  0.0000E+00  0.0000E+00  0.0000E+00  0.0000E+00  0.0000E+00  0.0000E+00  0.0000E+00  0.0000E+00  0.0000E+00  0.0000E+00  0.0000E+00  0.0000E+00  0.0000E+00  0.0000E+00  0.0000E+00
    -43.905  0.0000E+00  0.0000E+00  0.0000E+00  0.0000E+00  0.0000E+00  0.0000E+00  0.0000E+00  0.0000E+00  0.0000E+00  0.0000E+00  0.0000E+00  0.0000E+00  0.0000E+00  0.0000E+00  0.0000E+00  0.0000E+00  0.0000E+00  0.0000E+00
    -43.686  0.0000E+00  0.0000E+00  0.0000E+00  0.0000E+00  0.0000E+00  0.0000E+00  0.0000E+00  0.0000E+00  0.0000E+00  0.0000E+00  0.0000E+00  0.0000E+00  0.0000E+00  0.0000E+00  0.0000E+00  0.0000E+00  0.0000E+00  0.0000E+00
    -43.466  0.0000E+00  0.0000E+00  0.0000E+00  0.0000E+00  0.0000E+00  0.0000E+00  0.0000E+00  0.0000E+00  0.0000E+00  0.0000E+00  0.0000E+00  0.0000E+00  0.0000E+00  0.0000E+00  0.0000E+00  0.0000E+00  0.0000E+00  0.0000E+00
    -43.247  0.0000E+00  0.0000E+00  0.0000E+00  0.0000E+00  0.0000E+00  0.0000E+00  0.0000E+00  0.0000E+00  0.0000E+00  0.0000E+00  0.0000E+00  0.0000E+00  0.0000E+00  0.0000E+00  0.0000E+00  0.0000E+00  0.0000E+00  0.0000E+00
    -43.027  0.0000E+00  0.0000E+00  0.0000E+00  0.0000E+00  0.0000E+00  0.0000E+00  0.0000E+00  0.0000E+00  0.0000E+00  0.0000E+00  0.0000E+00  0.0000E+00  0.0000E+00  0.0000E+00  0.0000E+00  0.0000E+00  0.0000E+00  0.0000E+00
    -42.808  0.0000E+00  0.0000E+00  0.0000E+00  0.0000E+00  0.0000E+00  0.0000E+00  0.0000E+00  0.0000E+00  0.0000E+00  0.0000E+00  0.0000E+00  0.0000E+00  0.0000E+00  0.0000E+00  0.0000E+00  0.0000E+00  0.0000E+00  0.0000E+00
    -42.588  0.0000E+00  0.0000E+00  0.0000E+00  0.0000E+00  0.0000E+00  0.0000E+00  0.0000E+00  0.0000E+00  0.0000E+00  0.0000E+00  0.0000E+00  0.0000E+00  0.0000E+00  0.0000E+00  0.0000E+00  0.0000E+00  0.0000E+00  0.0000E+00
    -42.369  0.0000E+00  0.0000E+00  0.0000E+00  0.0000E+00  0.0000E+00  0.0000E+00  0.0000E+00  0.0000E+00  0.0000E+00  0.0000E+00  0.0000E+00  0.0000E+00  0.0000E+00  0.0000E+00  0.0000E+00  0.0000E+00  0.0000E+00  0.0000E+00
    -42.150  0.0000E+00  0.0000E+00  0.0000E+00  0.0000E+00  0.0000E+00  0.0000E+00  0.0000E+00  0.0000E+00  0.0000E+00  0.0000E+00  0.0000E+00  0.0000E+00  0.0000E+00  0.0000E+00  0.0000E+00  0.0000E+00  0.0000E+00  0.0000E+00
    -41.930  0.0000E+00  0.0000E+00  0.0000E+00  0.0000E+00  0.0000E+00  0.0000E+00  0.0000E+00  0.0000E+00  0.0000E+00  0.0000E+00  0.0000E+00  0.0000E+00  0.0000E+00  0.0000E+00  0.0000E+00  0.0000E+00  0.0000E+00  0.0000E+00
    -41.711  0.0000E+00  0.0000E+00  0.0000E+00  0.0000E+00  0.0000E+00  0.0000E+00  0.0000E+00  0.0000E+00  0.0000E+00  0.0000E+00  0.0000E+00  0.0000E+00  0.0000E+00  0.0000E+00  0.0000E+00  0.0000E+00  0.0000E+00  0.0000E+00
    -41.491  0.0000E+00  0.0000E+00  0.0000E+00  0.0000E+00  0.0000E+00  0.0000E+00  0.0000E+00  0.0000E+00  0.0000E+00  0.0000E+00  0.0000E+00  0.0000E+00  0.0000E+00  0.0000E+00  0.0000E+00  0.0000E+00  0.0000E+00  0.0000E+00
    -41.272  0.0000E+00  0.0000E+00  0.0000E+00  0.0000E+00  0.0000E+00  0.0000E+00  0.0000E+00  0.0000E+00  0.0000E+00  0.0000E+00  0.0000E+00  0.0000E+00  0.0000E+00  0.0000E+00  0.0000E+00  0.0000E+00  0.0000E+00  0.0000E+00
    -41.052  0.0000E+00  0.0000E+00  0.0000E+00  0.0000E+00  0.0000E+00  0.0000E+00  0.0000E+00  0.0000E+00  0.0000E+00  0.0000E+00  0.0000E+00  0.0000E+00  0.0000E+00  0.0000E+00  0.0000E+00  0.0000E+00  0.0000E+00  0.0000E+00
    -40.833  0.0000E+00  0.0000E+00  0.0000E+00  0.0000E+00  0.0000E+00  0.0000E+00  0.0000E+00  0.0000E+00  0.0000E+00  0.0000E+00  0.0000E+00  0.0000E+00  0.0000E+00  0.0000E+00  0.0000E+00  0.0000E+00  0.0000E+00  0.0000E+00
    -40.613  0.0000E+00  0.0000E+00  0.0000E+00  0.0000E+00  0.0000E+00  0.0000E+00  0.0000E+00  0.0000E+00  0.0000E+00  0.0000E+00  0.0000E+00  0.0000E+00  0.0000E+00  0.0000E+00  0.0000E+00  0.0000E+00  0.0000E+00  0.0000E+00
    -40.394  0.0000E+00  0.0000E+00  0.0000E+00  0.0000E+00  0.0000E+00  0.0000E+00  0.0000E+00  0.0000E+00  0.0000E+00  0.0000E+00  0.0000E+00  0.0000E+00  0.0000E+00  0.0000E+00  0.0000E+00  0.0000E+00  0.0000E+00  0.0000E+00
    -40.175  0.0000E+00  0.0000E+00  0.0000E+00  0.0000E+00  0.0000E+00  0.0000E+00  0.0000E+00  0.0000E+00  0.0000E+00  0.0000E+00  0.0000E+00  0.0000E+00  0.0000E+00  0.0000E+00  0.0000E+00  0.0000E+00  0.0000E+00  0.0000E+00
    -39.955  0.0000E+00  0.0000E+00  0.0000E+00  0.0000E+00  0.0000E+00  0.0000E+00  0.0000E+00  0.0000E+00  0.0000E+00  0.0000E+00  0.0000E+00  0.0000E+00  0.0000E+00  0.0000E+00  0.0000E+00  0.0000E+00  0.0000E+00  0.0000E+00
    -39.736  0.0000E+00  0.0000E+00  0.0000E+00  0.0000E+00  0.0000E+00  0.0000E+00  0.0000E+00  0.0000E+00  0.0000E+00  0.0000E+00  0.0000E+00  0.0000E+00  0.0000E+00  0.0000E+00  0.0000E+00  0.0000E+00  0.0000E+00  0.0000E+00
    -39.516  0.0000E+00  0.0000E+00  0.0000E+00  0.0000E+00  0.0000E+00  0.0000E+00  0.0000E+00  0.0000E+00  0.0000E+00  0.0000E+00  0.0000E+00  0.0000E+00  0.0000E+00  0.0000E+00  0.0000E+00  0.0000E+00  0.0000E+00  0.0000E+00
    -39.297  0.0000E+00  0.0000E+00  0.0000E+00  0.0000E+00  0.0000E+00  0.0000E+00  0.0000E+00  0.0000E+00  0.0000E+00  0.0000E+00  0.0000E+00  0.0000E+00  0.0000E+00  0.0000E+00  0.0000E+00  0.0000E+00  0.0000E+00  0.0000E+00
    -39.077  0.0000E+00  0.0000E+00  0.0000E+00  0.0000E+00  0.0000E+00  0.0000E+00  0.0000E+00  0.0000E+00  0.0000E+00  0.0000E+00  0.0000E+00  0.0000E+00  0.0000E+00  0.0000E+00  0.0000E+00  0.0000E+00  0.0000E+00  0.0000E+00
    -38.858  0.0000E+00  0.0000E+00  0.0000E+00  0.0000E+00  0.0000E+00  0.0000E+00  0.0000E+00  0.0000E+00  0.0000E+00  0.0000E+00  0.0000E+00  0.0000E+00  0.0000E+00  0.0000E+00  0.0000E+00  0.0000E+00  0.0000E+00  0.0000E+00
    -38.638  0.0000E+00  0.0000E+00  0.0000E+00  0.0000E+00  0.0000E+00  0.0000E+00  0.0000E+00  0.0000E+00  0.0000E+00  0.0000E+00  0.0000E+00  0.0000E+00  0.0000E+00  0.0000E+00  0.0000E+00  0.0000E+00  0.0000E+00  0.0000E+00
    -38.419  0.0000E+00  0.0000E+00  0.0000E+00  0.0000E+00  0.0000E+00  0.0000E+00  0.0000E+00  0.0000E+00  0.0000E+00  0.0000E+00  0.0000E+00  0.0000E+00  0.0000E+00  0.0000E+00  0.0000E+00  0.0000E+00  0.0000E+00  0.0000E+00
    -38.200  0.0000E+00  0.0000E+00  0.0000E+00  0.0000E+00  0.0000E+00  0.0000E+00  0.0000E+00  0.0000E+00  0.0000E+00  0.0000E+00  0.0000E+00  0.0000E+00  0.0000E+00  0.0000E+00  0.0000E+00  0.0000E+00  0.0000E+00  0.0000E+00
    -37.980  0.0000E+00  0.0000E+00  0.0000E+00  0.0000E+00  0.0000E+00  0.0000E+00  0.0000E+00  0.0000E+00  0.0000E+00  0.0000E+00  0.0000E+00  0.0000E+00  0.0000E+00  0.0000E+00  0.0000E+00  0.0000E+00  0.0000E+00  0.0000E+00
    -37.761  0.0000E+00  0.0000E+00  0.0000E+00  0.0000E+00  0.0000E+00  0.0000E+00  0.0000E+00  0.0000E+00  0.0000E+00  0.0000E+00  0.0000E+00  0.0000E+00  0.0000E+00  0.0000E+00  0.0000E+00  0.0000E+00  0.0000E+00  0.0000E+00
    -37.541  0.0000E+00  0.0000E+00  0.0000E+00  0.0000E+00  0.0000E+00  0.0000E+00  0.0000E+00  0.0000E+00  0.0000E+00  0.0000E+00  0.0000E+00  0.0000E+00  0.0000E+00  0.0000E+00  0.0000E+00  0.0000E+00  0.0000E+00  0.0000E+00
    -37.322  0.0000E+00  0.0000E+00  0.0000E+00  0.0000E+00  0.0000E+00  0.0000E+00  0.0000E+00  0.0000E+00  0.0000E+00  0.0000E+00  0.0000E+00  0.0000E+00  0.0000E+00  0.0000E+00  0.0000E+00  0.0000E+00  0.0000E+00  0.0000E+00
    -37.102  0.0000E+00  0.0000E+00  0.0000E+00  0.0000E+00  0.0000E+00  0.0000E+00  0.0000E+00  0.0000E+00  0.0000E+00  0.0000E+00  0.0000E+00  0.0000E+00  0.0000E+00  0.0000E+00  0.0000E+00  0.0000E+00  0.0000E+00  0.0000E+00
    -36.883  0.0000E+00  0.0000E+00  0.0000E+00  0.0000E+00  0.0000E+00  0.0000E+00  0.0000E+00  0.0000E+00  0.0000E+00  0.0000E+00  0.0000E+00  0.0000E+00  0.0000E+00  0.0000E+00  0.0000E+00  0.0000E+00  0.0000E+00  0.0000E+00