   2   2   1   0
  0.1566774E+02  0.3152672E-09  0.3152672E-09  0.3152672E-09  0.5000000E-15
  1.000000000000000E-004
  CAR 
 unknown system                          
     18.40258902    -47.71144286  301      1.45161348      1.00000000
    -47.711  0.0000E+00  0.0000E+00  0.0000E+00  0.0000E+00
    -47.491  0.0000E+00  0.0000E+00  0.0000E+00  0.0000E+00
    -47.271  0.0000E+00  0.0000E+00  0.0000E+00  0.0000E+00
    -47.050  0.0000E+00  0.0000E+00  0.0000E+00  0.0000E+00
    -46.830  0.0000E+00  0.0000E+00  0.0000E+00  0.0000E+00
    -46.610  0.0000E+00  0.0000E+00  0.0000E+00  0.0000E+00
    -46.389  0.0000E+00  0.0000E+00  0.0000E+00  0.0000E+00
    -46.169  0.0000E+00  0.0000E+00  0.0000E+00  0.0000E+00
    -45.948  0.0000E+00  0.0000E+00  0.0000E+00  0.0000E+00
    -45.728  0.0000E+00  0.0000E+00  0.0000E+00  0.0000E+00
    -45.508  0.0000E+00  0.0000E+00  0.0000E+00  0.0000E+00
    -45.287  0.1036E-04  0.7190E-05  0.2284E-05  0.1585E-05
    -45.067  0.2612E-02  0.2322E-02  0.5780E-03  0.5133E-03
    -44.847  0.2072E+00  0.1845E+00  0.4623E-01  0.4117E-01
    -44.626  0.5656E+01  0.5433E+01  0.1293E+01  0.1238E+01
    -44.406  0.3148E+01  0.3386E+01  0.1986E+01  0.1985E+01
    -44.185  0.0000E+00  0.0000E+00  0.2000E+01  0.2000E+01
    -43.965  0.0000E+00  0.0000E+00  0.2000E+01  0.2000E+01
    -43.745  0.0000E+00  0.0000E+00  0.2000E+01  0.2000E+01
    -43.524  0.0000E+00  0.0000E+00  0.2000E+01  0.2000E+01
    -43.304  0.0000E+00  0.0000E+00  0.2000E+01  0.2000E+01
    -43.083  0.0000E+00  0.0000E+00  0.2000E+01  0.2000E+01
    -42.863  0.0000E+00  0.0000E+00  0.2000E+01  0.2000E+01
    -42.643  0.0000E+00  0.0000E+00  0.2000E+01  0.2000E+01
    -42.422  0.0000E+00  0.0000E+00  0.2000E+01  0.2000E+01
    -42.202  0.0000E+00  0.0000E+00  0.2000E+01  0.2000E+01
    -41.982  0.0000E+00  0.0000E+00  0.2000E+01  0.2000E+01
    -41.761  0.0000E+00  0.0000E+00  0.2000E+01  0.2000E+01
    -41.541  0.0000E+00  0.0000E+00  0.2000E+01  0.2000E+01
    -41.320  0.0000E+00  0.0000E+00  0.2000E+01  0.2000E+01
    -41.100  0.0000E+00  0.0000E+00  0.2000E+01  0.2000E+01
    -40.880  0.0000E+00  0.0000E+00  0.2000E+01  0.2000E+01
    -40.659  0.0000E+00  0.0000E+00  0.2000E+01  0.2000E+01
    -40.439  0.0000E+00  0.0000E+00  0.2000E+01  0.2000E+01
    -40.219  0.0000E+00  0.0000E+00  0.2000E+01  0.2000E+01
    -39.998  0.0000E+00  0.0000E+00  0.2000E+01  0.2000E+01
    -39.778  0.0000E+00  0.0000E+00  0.2000E+01  0.2000E+01
    -39.557  0.0000E+00  0.0000E+00  0.2000E+01  0.2000E+01
    -39.337  0.0000E+00  0.0000E+00  0.2000E+01  0.2000E+01
    -39.117  0.0000E+00  0.0000E+00  0.2000E+01  0.2000E+01
    -38.896  0.0000E+00  0.0000E+00  0.2000E+01  0.2000E+01
    -38.676  0.0000E+00  0.0000E+00  0.2000E+01  0.2000E+01
    -38.455  0.0000E+00  0.0000E+00  0.2000E+01  0.2000E+01
    -38.235  0.0000E+00  0.0000E+00  0.2000E+01  0.2000E+01
    -38.015  0.0000E+00  0.0000E+00  0.2000E+01  0.2000E+01
    -37.794  0.0000E+00  0.0000E+00  0.2000E+01  0.2000E+01
    -37.574  0.0000E+00  0.0000E+00  0.2000E+01  0.2000E+01
    -37.354  0.0000E+00  0.0000E+00  0.2000E+01  0.2000E+01
    -37.133  0.0000E+00  0.0000E+00  0.2000E+01  0.2000E+01
    -36.913  0.0000E+00  0.0000E+00  0.2000E+01  0.2000E+01
    -36.692  0.0000E+00  0.0000E+00  0.2000E+01  0.2000E+01
    -36.472  0.0000E+00  0.0000E+00  0.2000E+01  0.2000E+01
    -36.252  0.0000E+00  0.0000E+00  0.2000E+01  0.2000E+01
    -36.031  0.0000E+00  0.0000E+00  0.2000E+01  0.2000E+01
    -35.811  0.0000E+00  0.0000E+00  0.2000E+01  0.2000E+01
    -35.591  0.0000E+00  0.0000E+00  0.2000E+01  0.2000E+01
    -35.370  0.0000E+00  0.0000E+00  0.2000E+01  0.2000E+01
    -35.150  0.0000E+00  0.0000E+00  0.2000E+01  0.2000E+01
    -34.929  0.0000E+00  0.0000E+00  0.2000E+01  0.2000E+01
    -34.709  0.0000E+00  0.0000E+00  0.2000E+01  0.2000E+01
    -34.489  0.0000E+00  0.0000E+00  0.2000E+01  0.2000E+01
    -34.268  0.0000E+00  0.0000E+00  0.2000E+01  0.2000E+01
    -34.048  0.0000E+00  0.0000E+00  0.2000E+01  0.2000E+01
    -33.827  0.0000E+00  0.0000E+00  0.2000E+01  0.2000E+01
    -33.607  0.0000E+00  0.0000E+00  0.2000E+01  0.2000E+01
    -33.387  0.0000E+00  0.0000E+00  0.2000E+01  0.2000E+01
    -33.166  0.0000E+00  0.0000E+00  0.2000E+01  0.2000E+01
    -32.946  0.0000E+00  0.0000E+00  0.2000E+01  0.2000E+01
    -32.726  0.0000E+00  0.0000E+00  0.2000E+01  0.2000E+01
    -32.505  0.0000E+00  0.0000E+00  0.2000E+01  0.2000E+01
    -32.285  0.0000E+00  0.0000E+00  0.2000E+01  0.2000E+01
    -32.064  0.0000E+00  0.0000E+00  0.2000E+01  0.2000E+01
    -31.844  0.0000E+00  0.0000E+00  0.2000E+01  0.2000E+01
    -31.624  0.0000E+00  0.0000E+00  0.2000E+01  0.2000E+01
    -31.403  0.0000E+00  0.0000E+00  0.2000E+01  0.2000E+01
    -31.183  0.0000E+00  0.0000E+00  0.2000E+01  0.2000E+01
    -30.963  0.0000E+00  0.0000E+00  0.2000E+01  0.2000E+01
    -30.742  0.0000E+00  0.0000E+00  0.2000E+01  0.2000E+01
    -30.522  0.0000E+00  0.0000E+00  0.2000E+01  0.2000E+01
    -30.301  0.0000E+00  0.0000E+00  0.2000E+01  0.2000E+01
    -30.081  0.0000E+00  0.0000E+00  0.2000E+01  0.2000E+01
    -29.861  0.0000E+00  0.0000E+00  0.2000E+01  0.2000E+01
    -29.640  0.0000E+00  0.0000E+00  0.2000E+01  0.2000E+01
    -29.420  0.0000E+00  0.0000E+00  0.2000E+01  0.2000E+01
    -29.200  0.0000E+00  0.0000E+00  0.2000E+01  0.2000E+01
    -28.979  0.0000E+00  0.0000E+00  0.2000E+01  0.2000E+01
    -28.759  0.0000E+00  0.0000E+00  0.2000E+01  0.2000E+01
    -28.538  0.0000E+00  0.0000E+00  0.2000E+01  0.2000E+01
    -28.318  0.0000E+00  0.0000E+00  0.2000E+01  0.2000E+01
    -28.098  0.0000E+00  0.0000E+00  0.2000E+01  0.2000E+01
    -27.877  0.0000E+00  0.0000E+00  0.2000E+01  0.2000E+01
    -27.657  0.0000E+00  0.0000E+00  0.2000E+01  0.2000E+01
    -27.436  0.0000E+00  0.0000E+00  0.2000E+01  0.2000E+01
    -27.216  0.0000E+00  0.0000E+00  0.2000E+01  0.2000E+01
    -26.996  0.0000E+00  0.0000E+00  0.2000E+01  0.2000E+01
    -26.775  0.0000E+00  0.0000E+00  0.2000E+01  0.2000E+01
    -26.555  0.0000E+00  0.0000E+00  0.2000E+01  0.2000E+01
    -26.335  0.0000E+00  0.0000E+00  0.2000E+01  0.2000E+01
    -26.114  0.0000E+00  0.0000E+00  0.2000E+01  0.2000E+01
    -25.894  0.0000E+00  0.0000E+00  0.2000E+01  0.2000E+01
    -25.673  0.0000E+00  0.0000E+00  0.2000E+01  0.2000E+01
    -25.453  0.0000E+00  0.0000E+00  0.2000E+01  0.2000E+01
    -25.233  0.0000E+00  0.0000E+00  0.2000E+01  0.2000E+01
    -25.012  0.0000E+00  0.0000E+00  0.2000E+01  0.2000E+01
    -24.792  0.0000E+00  0.0000E+00  0.2000E+01  0.2000E+01
    -24.572  0.0000E+00  0.0000E+00  0.2000E+01  0.2000E+01
    -24.351  0.0000E+00  0.0000E+00  0.2000E+01  0.2000E+01
    -24.131  0.0000E+00  0.0000E+00  0.2000E+01  0.2000E+01
    -23.910  0.0000E+00  0.0000E+00  0.2000E+01  0.2000E+01
    -23.690  0.0000E+00  0.0000E+00  0.2000E+01  0.2000E+01
    -23.470  0.0000E+00  0.0000E+00  0.2000E+01  0.2000E+01
    -23.249  0.0000E+00  0.0000E+00  0.2000E+01  0.2000E+01
    -23.029  0.0000E+00  0.0000E+00  0.2000E+01  0.2000E+01
    -22.808  0.0000E+00  0.0000E+00  0.2000E+01  0.2000E+01
    -22.588  0.0000E+00  0.0000E+00  0.2000E+01  0.2000E+01
    -22.368  0.0000E+00  0.0000E+00  0.2000E+01  0.2000E+01
    -22.147  0.0000E+00  0.0000E+00  0.2000E+01  0.2000E+01
    -21.927  0.0000E+00  0.0000E+00  0.2000E+01  0.2000E+01
    -21.707  0.0000E+00  0.0000E+00  0.2000E+01  0.2000E+01
    -21.486  0.0000E+00  0.0000E+00  0.2000E+01  0.2000E+01
    -21.266  0.0000E+00  0.0000E+00  0.2000E+01  0.2000E+01
    -21.045  0.0000E+00  0.0000E+00  0.2000E+01  0.2000E+01
    -20.825  0.0000E+00  0.0000E+00  0.2000E+01  0.2000E+01
    -20.605  0.0000E+00  0.0000E+00  0.2000E+01  0.2000E+01
    -20.384  0.0000E+00  0.0000E+00  0.2000E+01  0.2000E+01
    -20.164  0.0000E+00  0.0000E+00  0.2000E+01  0.2000E+01
    -19.944  0.0000E+00  0.0000E+00  0.2000E+01  0.2000E+01
    -19.723  0.0000E+00  0.0000E+00  0.2000E+01  0.2000E+01
    -19.503  0.0000E+00  0.0000E+00  0.2000E+01  0.2000E+01
    -19.282  0.0000E+00  0.0000E+00  0.2000E+01  0.2000E+01
    -19.062  0.0000E+00  0.0000E+00  0.2000E+01  0.2000E+01
    -18.842  0.0000E+00  0.0000E+00  0.2000E+01  0.2000E+01
    -18.621  0.0000E+00  0.0000E+00  0.2000E+01  0.2000E+01
    -18.401  0.0000E+00  0.0000E+00  0.2000E+01  0.2000E+01
    -18.181  0.0000E+00  0.0000E+00  0.2000E+01  0.2000E+01
    -17.960  0.0000E+00  0.0000E+00  0.2000E+01  0.2000E+01
    -17.740  0.0000E+00  0.0000E+00  0.2000E+01  0.2000E+01
    -17.519  0.0000E+00  0.0000E+00  0.2000E+01  0.2000E+01
    -17.299  0.0000E+00  0.0000E+00  0.2000E+01  0.2000E+01
    -17.079  0.0000E+00  0.0000E+00  0.2000E+01  0.2000E+01
    -16.858  0.0000E+00  0.0000E+00  0.2000E+01  0.2000E+01
    -16.638  0.0000E+00  0.0000E+00  0.2000E+01  0.2000E+01
    -16.417  0.0000E+00  0.0000E+00  0.2000E+01  0.2000E+01
    -16.197  0.0000E+00  0.0000E+00  0.2000E+01  0.2000E+01
    -15.977  0.0000E+00  0.0000E+00  0.2000E+01  0.2000E+01
    -15.756  0.0000E+00  0.0000E+00  0.2000E+01  0.2000E+01
    -15.536  0.0000E+00  0.0000E+00  0.2000E+01  0.2000E+01
    -15.316  0.0000E+00  0.0000E+00  0.2000E+01  0.2000E+01
    -15.095  0.0000E+00  0.0000E+00  0.2000E+01  0.2000E+01
    -14.875  0.0000E+00  0.0000E+00  0.2000E+01  0.2000E+01
    -14.654  0.0000E+00  0.0000E+00  0.2000E+01  0.2000E+01
    -14.434  0.0000E+00  0.0000E+00  0.2000E+01  0.2000E+01
    -14.214  0.0000E+00  0.0000E+00  0.2000E+01  0.2000E+01
    -13.993  0.0000E+00  0.0000E+00  0.2000E+01  0.2000E+01
    -13.773  0.0000E+00  0.0000E+00  0.2000E+01  0.2000E+01
    -13.553  0.0000E+00  0.0000E+00  0.2000E+01  0.2000E+01
    -13.332  0.0000E+00  0.0000E+00  0.2000E+01  0.2000E+01
    -13.112  0.0000E+00  0.0000E+00  0.2000E+01  0.2000E+01
    -12.891  0.0000E+00  0.0000E+00  0.2000E+01  0.2000E+01
    -12.671  0.0000E+00  0.0000E+00  0.2000E+01  0.2000E+01
    -12.451  0.0000E+00  0.0000E+00  0.2000E+01  0.2000E+01
    -12.230  0.0000E+00  0.0000E+00  0.2000E+01  0.2000E+01
    -12.010  0.0000E+00  0.0000E+00  0.2000E+01  0.2000E+01
    -11.789  0.0000E+00  0.0000E+00  0.2000E+01  0.2000E+01
    -11.569  0.0000E+00  0.0000E+00  0.2000E+01  0.2000E+01
    -11.349  0.0000E+00  0.0000E+00  0.2000E+01  0.2000E+01
    -11.128  0.0000E+00  0.0000E+00  0.2000E+01  0.2000E+01
    -10.908  0.0000E+00  0.0000E+00  0.2000E+01  0.2000E+01
    -10.688  0.0000E+00  0.0000E+00  0.2000E+01  0.2000E+01
    -10.467  0.0000E+00  0.0000E+00  0.2000E+01  0.2000E+01
    -10.247  0.0000E+00  0.0000E+00  0.2000E+01  0.2000E+01
    -10.026  0.0000E+00  0.0000E+00  0.2000E+01  0.2000E+01
     -9.806  0.0000E+00  0.0000E+00  0.2000E+01  0.2000E+01
     -9.586  0.0000E+00  0.0000E+00  0.2000E+01  0.2000E+01
     -9.365  0.0000E+00  0.0000E+00  0.2000E+01  0.2000E+01
     -9.145  0.0000E+00  0.0000E+00  0.2000E+01  0.2000E+01
     -8.925  0.0000E+00  0.0000E+00  0.2000E+01  0.2000E+01
     -8.704  0.0000E+00  0.0000E+00  0.2000E+01  0.2000E+01
     -8.484  0.0000E+00  0.0000E+00  0.2000E+01  0.2000E+01
     -8.263  0.0000E+00  0.0000E+00  0.2000E+01  0.2000E+01
     -8.043  0.0000E+00  0.0000E+00  0.2000E+01  0.2000E+01
     -7.823  0.0000E+00  0.0000E+00  0.2000E+01  0.2000E+01
     -7.602  0.0000E+00  0.0000E+00  0.2000E+01  0.2000E+01
     -7.382  0.0000E+00  0.0000E+00  0.2000E+01  0.2000E+01
     -7.162  0.0000E+00  0.0000E+00  0.2000E+01  0.2000E+01
     -6.941  0.0000E+00  0.0000E+00  0.2000E+01  0.2000E+01
     -6.721  0.0000E+00  0.0000E+00  0.2000E+01  0.2000E+01
     -6.500  0.0000E+00  0.0000E+00  0.2000E+01  0.2000E+01
     -6.280  0.0000E+00  0.0000E+00  0.2000E+01  0.2000E+01
     -6.060  0.0000E+00  0.0000E+00  0.2000E+01  0.2000E+01
     -5.839  0.0000E+00  0.0000E+00  0.2000E+01  0.2000E+01
     -5.619  0.0000E+00  0.0000E+00  0.2000E+01  0.2000E+01
     -5.398  0.0000E+00  0.0000E+00  0.2000E+01  0.2000E+01
     -5.178  0.0000E+00  0.0000E+00  0.2000E+01  0.2000E+01
     -4.958  0.0000E+00  0.0000E+00  0.2000E+01  0.2000E+01
     -4.737  0.0000E+00  0.0000E+00  0.2000E+01  0.2000E+01
     -4.517  0.0000E+00  0.0000E+00  0.2000E+01  0.2000E+01
     -4.297  0.0000E+00  0.0000E+00  0.2000E+01  0.2000E+01
     -4.076  0.0000E+00  0.0000E+00  0.2000E+01  0.2000E+01
     -3.856  0.0000E+00  0.0000E+00  0.2000E+01  0.2000E+01
     -3.635  0.0000E+00  0.0000E+00  0.2000E+01  0.2000E+01
     -3.415  0.0000E+00  0.0000E+00  0.2000E+01  0.2000E+01
     -3.195  0.0000E+00  0.0000E+00  0.2000E+01  0.2000E+01
     -2.974  0.1342E-06  0.1193E-06  0.2000E+01  0.2000E+01
     -2.754  0.1636E-04  0.1435E-04  0.2000E+01  0.2000E+01
     -2.534  0.1268E-02  0.1135E-02  0.2000E+01  0.2000E+01
     -2.313  0.3105E-01  0.2952E-01  0.2007E+01  0.2007E+01
     -2.093  0.9338E-01  0.9189E-01  0.2028E+01  0.2027E+01
     -1.872  0.1226E+00  0.1216E+00  0.2055E+01  0.2054E+01
     -1.652  0.1598E+00  0.1594E+00  0.2090E+01  0.2089E+01
     -1.432  0.1627E+00  0.1635E+00  0.2126E+01  0.2125E+01
     -1.211  0.2244E+00  0.2235E+00  0.2176E+01  0.2175E+01
     -0.991  0.1877E+00  0.1888E+00  0.2218E+01  0.2217E+01
     -0.770  0.2549E+00  0.2527E+00  0.2274E+01  0.2273E+01
     -0.550  0.2631E+00  0.2643E+00  0.2332E+01  0.2331E+01
     -0.330  0.2525E+00  0.2504E+00  0.2388E+01  0.2387E+01
     -0.109  0.2591E+00  0.2600E+00  0.2446E+01  0.2444E+01
      0.111  0.3410E+00  0.3386E+00  0.2521E+01  0.2519E+01
      0.331  0.3141E+00  0.3157E+00  0.2591E+01  0.2590E+01
      0.552  0.2528E+00  0.2518E+00  0.2647E+01  0.2645E+01
      0.772  0.3873E+00  0.3863E+00  0.2733E+01  0.2731E+01
      0.993  0.3681E+00  0.3686E+00  0.2815E+01  0.2813E+01
      1.213  0.4224E+00  0.4216E+00  0.2908E+01  0.2907E+01
      1.433  0.3881E+00  0.3882E+00  0.2994E+01  0.2992E+01
      1.654  0.4129E+00  0.4074E+00  0.3085E+01  0.3082E+01
      1.874  0.5687E+00  0.5732E+00  0.3211E+01  0.3209E+01
      2.094  0.5086E+00  0.5072E+00  0.3325E+01  0.3322E+01
      2.315  0.4762E+00  0.4786E+00  0.3430E+01  0.3428E+01
      2.535  0.3272E+00  0.3316E+00  0.3503E+01  0.3502E+01
      2.756  0.1865E+00  0.1836E+00  0.3545E+01  0.3543E+01
      2.976  0.5332E+00  0.5306E+00  0.3663E+01  0.3660E+01
      3.196  0.3269E+00  0.3346E+00  0.3735E+01  0.3735E+01
      3.417  0.1802E+00  0.1802E+00  0.3776E+01  0.3775E+01
      3.637  0.1832E+00  0.1855E+00  0.3816E+01  0.3816E+01
      3.858  0.8900E-01  0.8931E-01  0.3836E+01  0.3835E+01
      4.078  0.1549E+00  0.1509E+00  0.3870E+01  0.3869E+01
      4.298  0.2910E+00  0.2949E+00  0.3935E+01  0.3934E+01
      4.519  0.4823E-01  0.4969E-01  0.3946E+01  0.3946E+01
      4.739  0.4065E-01  0.3978E-01  0.3955E+01  0.3955E+01
      4.959  0.1394E+00  0.1388E+00  0.3986E+01  0.3985E+01
      5.180  0.1598E+00  0.1562E+00  0.4021E+01  0.4020E+01
      5.400  0.3048E+00  0.3012E+00  0.4088E+01  0.4086E+01
      5.621  0.5094E+00  0.5090E+00  0.4201E+01  0.4199E+01
      5.841  0.6543E+00  0.6453E+00  0.4346E+01  0.4342E+01
      6.061  0.6275E+00  0.6385E+00  0.4484E+01  0.4483E+01
      6.282  0.2745E+00  0.2744E+00  0.4546E+01  0.4544E+01
      6.502  0.5051E+00  0.4949E+00  0.4658E+01  0.4654E+01
      6.722  0.6196E+00  0.6311E+00  0.4795E+01  0.4793E+01
      6.943  0.2964E+00  0.3001E+00  0.4862E+01  0.4861E+01
      7.163  0.2076E+00  0.2083E+00  0.4908E+01  0.4907E+01
      7.384  0.3286E+00  0.3224E+00  0.4980E+01  0.4978E+01
      7.604  0.6506E+00  0.6508E+00  0.5124E+01  0.5122E+01
      7.824  0.2772E+00  0.2831E+00  0.5186E+01  0.5185E+01
      8.045  0.2290E+00  0.2273E+00  0.5237E+01  0.5236E+01
      8.265  0.2389E+00  0.2405E+00  0.5289E+01  0.5289E+01
      8.485  0.2991E+00  0.2940E+00  0.5356E+01  0.5354E+01
      8.706  0.5902E+00  0.5894E+00  0.5486E+01  0.5484E+01
      8.926  0.5133E+00  0.5149E+00  0.5600E+01  0.5598E+01
      9.147  0.4513E+00  0.4547E+00  0.5700E+01  0.5699E+01
      9.367  0.4037E+00  0.3987E+00  0.5790E+01  0.5788E+01
      9.587  0.4751E+00  0.4799E+00  0.5895E+01  0.5894E+01
      9.808  0.5470E+00  0.5383E+00  0.6016E+01  0.6013E+01
     10.028  0.6802E+00  0.6869E+00  0.6166E+01  0.6164E+01
     10.249  0.5114E+00  0.5115E+00  0.6281E+01  0.6279E+01
     10.469  0.4074E+00  0.4076E+00  0.6371E+01  0.6370E+01
     10.689  0.3819E+00  0.3827E+00  0.6456E+01  0.6455E+01
     10.910  0.3975E+00  0.3970E+00  0.6544E+01  0.6543E+01
     11.130  0.6532E+00  0.6476E+00  0.6689E+01  0.6686E+01
     11.350  0.4460E+00  0.4533E+00  0.6788E+01  0.6786E+01
     11.571  0.4227E+00  0.4223E+00  0.6882E+01  0.6881E+01
     11.791  0.2822E+00  0.2838E+00  0.6945E+01  0.6944E+01
     12.012  0.3071E+00  0.3040E+00  0.7013E+01  0.7012E+01
     12.232  0.4542E+00  0.4558E+00  0.7114E+01  0.7112E+01
     12.452  0.4652E+00  0.4644E+00  0.7217E+01  0.7215E+01
     12.673  0.6041E+00  0.6072E+00  0.7350E+01  0.7349E+01
     12.893  0.2803E+00  0.2848E+00  0.7413E+01  0.7413E+01
     13.113  0.1207E+00  0.1201E+00  0.7440E+01  0.7439E+01
     13.334  0.3511E+00  0.3449E+00  0.7517E+01  0.7516E+01
     13.554  0.4290E+00  0.4322E+00  0.7612E+01  0.7611E+01
     13.775  0.3384E+00  0.3398E+00  0.7687E+01  0.7686E+01
     13.995  0.3655E+00  0.3623E+00  0.7768E+01  0.7767E+01
     14.215  0.3178E+00  0.3237E+00  0.7839E+01  0.7838E+01
     14.436  0.1557E+00  0.1592E+00  0.7873E+01  0.7874E+01
     14.656  0.1747E+00  0.1695E+00  0.7912E+01  0.7912E+01
     14.877  0.1491E+00  0.1513E+00  0.7945E+01  0.7945E+01
     15.097  0.1208E+00  0.1217E+00  0.7972E+01  0.7972E+01
     15.317  0.7187E-01  0.7061E-01  0.7988E+01  0.7988E+01
     15.538  0.5079E-01  0.5109E-01  0.7999E+01  0.7999E+01
     15.758  0.2777E-02  0.2792E-02  0.8000E+01  0.8000E+01
     15.978  0.0000E+00  0.0000E+00  0.8000E+01  0.8000E+01
     16.199  0.0000E+00  0.0000E+00  0.8000E+01  0.8000E+01
     16.419  0.0000E+00  0.0000E+00  0.8000E+01  0.8000E+01
     16.640  0.0000E+00  0.0000E+00  0.8000E+01  0.8000E+01
     16.860  0.0000E+00  0.0000E+00  0.8000E+01  0.8000E+01
     17.080  0.0000E+00  0.0000E+00  0.8000E+01  0.8000E+01
     17.301  0.0000E+00  0.0000E+00  0.8000E+01  0.8000E+01
     17.521  0.0000E+00  0.0000E+00  0.8000E+01  0.8000E+01
     17.741  0.0000E+00  0.0000E+00  0.8000E+01  0.8000E+01
     17.962  0.0000E+00  0.0000E+00  0.8000E+01  0.8000E+01
     18.182  0.0000E+00  0.0000E+00  0.8000E+01  0.8000E+01
     18.403  0.0000E+00  0.0000E+00  0.8000E+01  0.8000E+01
     18.40258902    -47.71144286  301      1.45161348      1.00000000
    -47.711  0.0000E+00  0.0000E+00  0.0000E+00  0.0000E+00  0.0000E+00  0.0000E+00  0.0000E+00  0.0000E+00  0.0000E+00  0.0000E+00  0.0000E+00  0.0000E+00  0.0000E+00  0.0000E+00  0.0000E+00  0.0000E+00  0.0000E+00  0.0000E+00
    -47.491  0.0000E+00  0.0000E+00  0.0000E+00  0.0000E+00  0.0000E+00  0.0000E+00  0.0000E+00  0.0000E+00  0.0000E+00  0.0000E+00  0.0000E+00  0.0000E+00  0.0000E+00  0.0000E+00  0.0000E+00  0.0000E+00  0.0000E+00  0.0000E+00
    -47.271  0.0000E+00  0.0000E+00  0.0000E+00  0.0000E+00  0.0000E+00  0.0000E+00  0.0000E+00  0.0000E+00  0.0000E+00  0.0000E+00  0.0000E+00  0.0000E+00  0.0000E+00  0.0000E+00  0.0000E+00  0.0000E+00  0.0000E+00  0.0000E+00
    -47.050  0.0000E+00  0.0000E+00  0.0000E+00  0.0000E+00  0.0000E+00  0.0000E+00  0.0000E+00  0.0000E+00  0.0000E+00  0.0000E+00  0.0000E+00  0.0000E+00  0.0000E+00  0.0000E+00  0.0000E+00  0.0000E+00  0.0000E+00  0.0000E+00
    -46.830  0.0000E+00  0.0000E+00  0.0000E+00  0.0000E+00  0.0000E+00  0.0000E+00  0.0000E+00  0.0000E+00  0.0000E+00  0.0000E+00  0.0000E+00  0.0000E+00  0.0000E+00  0.0000E+00  0.0000E+00  0.0000E+00  0.0000E+00  0.0000E+00
    -46.610  0.0000E+00  0.0000E+00  0.0000E+00  0.0000E+00  0.0000E+00  0.0000E+00  0.0000E+00  0.0000E+00  0.0000E+00  0.0000E+00  0.0000E+00  0.0000E+00  0.0000E+00  0.0000E+00  0.0000E+00  0.0000E+00  0.0000E+00  0.0000E+00
    -46.389  0.0000E+00  0.0000E+00  0.0000E+00  0.0000E+00  0.0000E+00  0.0000E+00  0.0000E+00  0.0000E+00  0.0000E+00  0.0000E+00  0.0000E+00  0.0000E+00  0.0000E+00  0.0000E+00  0.0000E+00  0.0000E+00  0.0000E+00  0.0000E+00
    -46.169  0.0000E+00  0.0000E+00  0.0000E+00  0.0000E+00  0.0000E+00  0.0000E+00  0.0000E+00  0.0000E+00  0.0000E+00  0.0000E+00  0.0000E+00  0.0000E+00  0.0000E+00  0.0000E+00  0.0000E+00  0.0000E+00  0.0000E+00  0.0000E+00
    -45.948  0.0000E+00  0.0000E+00  0.0000E+00  0.0000E+00  0.0000E+00  0.0000E+00  0.0000E+00  0.0000E+00  0.0000E+00  0.0000E+00  0.0000E+00  0.0000E+00  0.0000E+00  0.0000E+00  0.0000E+00  0.0000E+00  0.0000E+00  0.0000E+00
    -45.728  0.0000E+00  0.0000E+00  0.0000E+00  0.0000E+00  0.0000E+00  0.0000E+00  0.0000E+00  0.0000E+00  0.0000E+00  0.0000E+00  0.0000E+00  0.0000E+00  0.0000E+00  0.0000E+00  0.0000E+00  0.0000E+00  0.0000E+00  0.0000E+00
    -45.508  0.0000E+00  0.0000E+00  0.0000E+00  0.0000E+00  0.0000E+00  0.0000E+00  0.0000E+00  0.0000E+00  0.0000E+00  0.0000E+00  0.0000E+00  0.0000E+00  0.0000E+00  0.0000E+00  0.0000E+00  0.0000E+00  0.0000E+00  0.0000E+00
    -45.287  0.5119E-05  0.3551E-05  0.2736E-12  0.1427E-12  0.2736E-12  0.1427E-12  0.2736E-12  0.1427E-12  0.0000E+00  0.0000E+00  0.0000E+00  0.0000E+00  0.0000E+00  0.0000E+00  0.0000E+00  0.0000E+00  0.0000E+00  0.0000E+00
    -45.067  0.1292E-02  0.1148E-02  0.9567E-10  0.8246E-10  0.9567E-10  0.8246E-10  0.9567E-10  0.8246E-10  0.0000E+00  0.0000E+00  0.0000E+00  0.0000E+00  0.0000E+00  0.0000E+00  0.0000E+00  0.0000E+00  0.0000E+00  0.0000E+00
    -44.847  0.1024E+00  0.9123E-01  0.7590E-08  0.6553E-08  0.7590E-08  0.6553E-08  0.7590E-08  0.6553E-08  0.0000E+00  0.0000E+00  0.0000E+00  0.0000E+00  0.0000E+00  0.0000E+00  0.0000E+00  0.0000E+00  0.0000E+00  0.0000E+00
    -44.626  0.2797E+01  0.2687E+01  0.2128E-06  0.1982E-06  0.2128E-06  0.1982E-06  0.2128E-06  0.1982E-06  0.0000E+00  0.0000E+00  0.0000E+00  0.0000E+00  0.0000E+00  0.0000E+00  0.0000E+00  0.0000E+00  0.0000E+00  0.0000E+00
    -44.406  0.1557E+01  0.1675E+01  0.1189E-06  0.1240E-06  0.1189E-06  0.1240E-06  0.1189E-06  0.1240E-06  0.0000E+00  0.0000E+00  0.0000E+00  0.0000E+00  0.0000E+00  0.0000E+00  0.0000E+00  0.0000E+00  0.0000E+00  0.0000E+00
    -44.185  0.0000E+00  0.0000E+00  0.0000E+00  0.0000E+00  0.0000E+00  0.0000E+00  0.0000E+00  0.0000E+00  0.0000E+00  0.0000E+00  0.0000E+00  0.0000E+00  0.0000E+00  0.0000E+00  0.0000E+00  0.0000E+00  0.0000E+00  0.0000E+00
    -43.965  0.0000E+00  0.0000E+00  0.0000E+00  0.0000E+00  0.0000E+00  0.0000E+00  0.0000E+00  0.0000E+00  0.0000E+00  0.0000E+00  0.0000E+00  0.0000E+00  0.0000E+00  0.0000E+00  0.0000E+00  0.0000E+00  0.0000E+00  0.0000E+00
    -43.745  0.0000E+00  0.0000E+00  0.0000E+00  0.0000E+00  0.0000E+00  0.0000E+00  0.0000E+00  0.0000E+00  0.0000E+00  0.0000E+00  0.0000E+00  0.0000E+00  0.0000E+00  0.0000E+00  0.0000E+00  0.0000E+00  0.0000E+00  0.0000E+00
    -43.524  0.0000E+00  0.0000E+00  0.0000E+00  0.0000E+00  0.0000E+00  0.0000E+00  0.0000E+00  0.0000E+00  0.0000E+00  0.0000E+00  0.0000E+00  0.0000E+00  0.0000E+00  0.0000E+00  0.0000E+00  0.0000E+00  0.0000E+00  0.0000E+00
    -43.304  0.0000E+00  0.0000E+00  0.0000E+00  0.0000E+00  0.0000E+00  0.0000E+00  0.0000E+00  0.0000E+00  0.0000E+00  0.0000E+00  0.0000E+00  0.0000E+00  0.0000E+00  0.0000E+00  0.0000E+00  0.0000E+00  0.0000E+00  0.0000E+00
    -43.083  0.0000E+00  0.0000E+00  0.0000E+00  0.0000E+00  0.0000E+00  0.0000E+00  0.0000E+00  0.0000E+00  0.0000E+00  0.0000E+00  0.0000E+00  0.0000E+00  0.0000E+00  0.0000E+00  0.0000E+00  0.0000E+00  0.0000E+00  0.0000E+00
    -42.863  0.0000E+00  0.0000E+00  0.0000E+00  0.0000E+00  0.0000E+00  0.0000E+00  0.0000E+00  0.0000E+00  0.0000E+00  0.0000E+00  0.0000E+00  0.0000E+00  0.0000E+00  0.0000E+00  0.0000E+00  0.0000E+00  0.0000E+00  0.0000E+00
    -42.643  0.0000E+00  0.0000E+00  0.0000E+00  0.0000E+00  0.0000E+00  0.0000E+00  0.0000E+00  0.0000E+00  0.0000E+00  0.0000E+00  0.0000E+00  0.0000E+00  0.0000E+00  0.0000E+00  0.0000E+00  0.0000E+00  0.0000E+00  0.0000E+00
    -42.422  0.0000E+00  0.0000E+00  0.0000E+00  0.0000E+00  0.0000E+00  0.0000E+00  0.0000E+00  0.0000E+00  0.0000E+00  0.0000E+00  0.0000E+00  0.0000E+00  0.0000E+00  0.0000E+00  0.0000E+00  0.0000E+00  0.0000E+00  0.0000E+00
    -42.202  0.0000E+00  0.0000E+00  0.0000E+00  0.0000E+00  0.0000E+00  0.0000E+00  0.0000E+00  0.0000E+00  0.0000E+00  0.0000E+00  0.0000E+00  0.0000E+00  0.0000E+00  0.0000E+00  0.0000E+00  0.0000E+00  0.0000E+00  0.0000E+00
    -41.982  0.0000E+00  0.0000E+00  0.0000E+00  0.0000E+00  0.0000E+00  0.0000E+00  0.0000E+00  0.0000E+00  0.0000E+00  0.0000E+00  0.0000E+00  0.0000E+00  0.0000E+00  0.0000E+00  0.0000E+00  0.0000E+00  0.0000E+00  0.0000E+00
    -41.761  0.0000E+00  0.0000E+00  0.0000E+00  0.0000E+00  0.0000E+00  0.0000E+00  0.0000E+00  0.0000E+00  0.0000E+00  0.0000E+00  0.0000E+00  0.0000E+00  0.0000E+00  0.0000E+00  0.0000E+00  0.0000E+00  0.0000E+00  0.0000E+00
    -41.541  0.0000E+00  0.0000E+00  0.0000E+00  0.0000E+00  0.0000E+00  0.0000E+00  0.0000E+00  0.0000E+00  0.0000E+00  0.0000E+00  0.0000E+00  0.0000E+00  0.0000E+00  0.0000E+00  0.0000E+00  0.0000E+00  0.0000E+00  0.0000E+00
    -41.320  0.0000E+00  0.0000E+00  0.0000E+00  0.0000E+00  0.0000E+00  0.0000E+00  0.0000E+00  0.0000E+00  0.0000E+00  0.0000E+00  0.0000E+00  0.0000E+00  0.0000E+00  0.0000E+00  0.0000E+00  0.0000E+00  0.0000E+00  0.0000E+00
    -41.100  0.0000E+00  0.0000E+00  0.0000E+00  0.0000E+00  0.0000E+00  0.0000E+00  0.0000E+00  0.0000E+00  0.0000E+00  0.0000E+00  0.0000E+00  0.0000E+00  0.0000E+00  0.0000E+00  0.0000E+00  0.0000E+00  0.0000E+00  0.0000E+00
    -40.880  0.0000E+00  0.0000E+00  0.0000E+00  0.0000E+00  0.0000E+00  0.0000E+00  0.0000E+00  0.0000E+00  0.0000E+00  0.0000E+00  0.0000E+00  0.0000E+00  0.0000E+00  0.0000E+00  0.0000E+00  0.0000E+00  0.0000E+00  0.0000E+00
    -40.659  0.0000E+00  0.0000E+00  0.0000E+00  0.0000E+00  0.0000E+00  0.0000E+00  0.0000E+00  0.0000E+00  0.0000E+00  0.0000E+00  0.0000E+00  0.0000E+00  0.0000E+00  0.0000E+00  0.0000E+00  0.0000E+00  0.0000E+00  0.0000E+00
    -40.439  0.0000E+00  0.0000E+00  0.0000E+00  0.0000E+00  0.0000E+00  0.0000E+00  0.0000E+00  0.0000E+00  0.0000E+00  0.0000E+00  0.0000E+00  0.0000E+00  0.0000E+00  0.0000E+00  0.0000E+00  0.0000E+00  0.0000E+00  0.0000E+00
    -40.219  0.0000E+00  0.0000E+00  0.0000E+00  0.0000E+00  0.0000E+00  0.0000E+00  0.0000E+00  0.0000E+00  0.0000E+00  0.0000E+00  0.0000E+00  0.0000E+00  0.0000E+00  0.0000E+00  0.0000E+00  0.0000E+00  0.0000E+00  0.0000E+00
    -39.998  0.0000E+00  0.0000E+00  0.0000E+00  0.0000E+00  0.0000E+00  0.0000E+00  0.0000E+00  0.0000E+00  0.0000E+00  0.0000E+00  0.0000E+00  0.0000E+00  0.0000E+00  0.0000E+00  0.0000E+00  0.0000E+00  0.0000E+00  0.0000E+00
    -39.778  0.0000E+00  0.0000E+00  0.0000E+00  0.0000E+00  0.0000E+00  0.0000E+00  0.0000E+00  0.0000E+00  0.0000E+00  0.0000E+00  0.0000E+00  0.0000E+00  0.0000E+00  0.0000E+00  0.0000E+00  0.0000E+00  0.0000E+00  0.0000E+00
    -39.557  0.0000E+00  0.0000E+00  0.0000E+00  0.0000E+00  0.0000E+00  0.0000E+00  0.0000E+00  0.0000E+00  0.0000E+00  0.0000E+00  0.0000E+00  0.0000E+00  0.0000E+00  0.0000E+00  0.0000E+00  0.0000E+00  0.0000E+00  0.0000E+00
    -39.337  0.0000E+00  0.0000E+00  0.0000E+00  0.0000E+00  0.0000E+00  0.0000E+00  0.0000E+00  0.0000E+00  0.0000E+00  0.0000E+00  0.0000E+00  0.0000E+00  0.0000E+00  0.0000E+00  0.0000E+00  0.0000E+00  0.0000E+00  0.0000E+00
    -39.117  0.0000E+00  0.0000E+00  0.0000E+00  0.0000E+00  0.0000E+00  0.0000E+00  0.0000E+00  0.0000E+00  0.0000E+00  0.0000E+00  0.0000E+00  0.0000E+00  0.0000E+00  0.0000E+00  0.0000E+00  0.0000E+00  0.0000E+00  0.0000E+00
    -38.896  0.0000E+00  0.0000E+00  0.0000E+00  0.0000E+00  0.0000E+00  0.0000E+00  0.0000E+00  0.0000E+00  0.0000E+00  0.0000E+00  0.0000E+00  0.0000E+00  0.0000E+00  0.0000E+00  0.0000E+00  0.0000E+00  0.0000E+00  0.0000E+00
    -38.676  0.0000E+00  0.0000E+00  0.0000E+00  0.0000E+00  0.0000E+00  0.0000E+00  0.0000E+00  0.0000E+00  0.0000E+00  0.0000E+00  0.0000E+00  0.0000E+00  0.0000E+00  0.0000E+00  0.0000E+00  0.0000E+00  0.0000E+00  0.0000E+00
    -38.455  0.0000E+00  0.0000E+00  0.0000E+00  0.0000E+00  0.0000E+00  0.0000E+00  0.0000E+00  0.0000E+00  0.0000E+00  0.0000E+00  0.0000E+00  0.0000E+00  0.0000E+00  0.0000E+00  0.0000E+00  0.0000E+00  0.0000E+00  0.0000E+00
    -38.235  0.0000E+00  0.0000E+00  0.0000E+00  0.0000E+00  0.0000E+00  0.0000E+00  0.0000E+00  0.0000E+00  0.0000E+00  0.0000E+00  0.0000E+00  0.0000E+00  0.0000E+00  0.0000E+00  0.0000E+00  0.0000E+00  0.0000E+00  0.0000E+00
    -38.015  0.0000E+00  0.0000E+00  0.0000E+00  0.0000E+00  0.0000E+00  0.0000E+00  0.0000E+00  0.0000E+00  0.0000E+00  0.0000E+00  0.0000E+00  0.0000E+00  0.0000E+00  0.0000E+00  0.0000E+00  0.0000E+00  0.0000E+00  0.0000E+00
    -37.794  0.0000E+00  0.0000E+00  0.0000E+00  0.0000E+00  0.0000E+00  0.0000E+00  0.0000E+00  0.0000E+00  0.0000E+00  0.0000E+00  0.0000E+00  0.0000E+00  0.0000E+00  0.0000E+00  0.0000E+00  0.0000E+00  0.0000E+00  0.0000E+00
    -37.574  0.0000E+00  0.0000E+00  0.0000E+00  0.0000E+00  0.0000E+00  0.0000E+00  0.0000E+00  0.0000E+00  0.0000E+00  0.0000E+00  0.0000E+00  0.0000E+00  0.0000E+00  0.0000E+00  0.0000E+00  0.0000E+00  0.0000E+00  0.0000E+00
    -37.354  0.0000E+00  0.0000E+00  0.0000E+00  0.0000E+00  0.0000E+00  0.0000E+00  0.0000E+00  0.0000E+00  0.0000E+00  0.0000E+00  0.0000E+00  0.0000E+00  0.0000E+00  0.0000E+00  0.0000E+00  0.0000E+00  0.0000E+00  0.0000E+00
    -37.133  0.0000E+00  0.0000E+00  0.0000E+00  0.0000E+00  0.0000E+00  0.0000E+00  0.0000E+00  0.0000E+00  0.0000E+00  0.0000E+00  0.0000E+00  0.0000E+00  0.0000E+00  0.0000E+00  0.0000E+00  0.0000E+00  0.0000E+00  0.0000E+00
    -36.913  0.0000E+00  0.0000E+00  0.0000E+00  0.0000E+00  0.0000E+00  0.0000E+00  0.0000E+00  0.0000E+00  0.0000E+00  0.0000E+00  0.0000E+00  0.0000E+00  0.0000E+00  0.0000E+00  0.0000E+00  0.0000E+00  0.0000E+00  0.0000E+00
    -36.692  0.0000E+00  0.0000E+00  0.0000E+00  0.0000E+00  0.0000E+00  0.0000E+00  0.0000E+00  0.0000E+00  0.0000E+00  0.0000E+00  0.0000E+00  0.0000E+00  0.0000E+00  0.0000E+00  0.0000E+00  0.0000E+00  0.0000E+00  0.0000E+00