   2   2   1   0
  0.2329221E+02  0.3598158E-09  0.3598158E-09  0.3598158E-09  0.5000000E-15
  1.000000000000000E-004
  CAR 
 unknown system                          
     13.85739447    -49.39285949  301      0.28557575      1.00000000
    -49.393  0.0000E+00  0.0000E+00  0.0000E+00  0.0000E+00
    -49.182  0.0000E+00  0.0000E+00  0.0000E+00  0.0000E+00
    -48.971  0.0000E+00  0.0000E+00  0.0000E+00  0.0000E+00
    -48.760  0.0000E+00  0.0000E+00  0.0000E+00  0.0000E+00
    -48.550  0.0000E+00  0.0000E+00  0.0000E+00  0.0000E+00
    -48.339  0.0000E+00  0.0000E+00  0.0000E+00  0.0000E+00
    -48.128  0.0000E+00  0.0000E+00  0.0000E+00  0.0000E+00
    -47.917  0.0000E+00  0.0000E+00  0.0000E+00  0.0000E+00
    -47.706  0.0000E+00  0.0000E+00  0.0000E+00  0.0000E+00
    -47.495  0.0000E+00  0.0000E+00  0.0000E+00  0.0000E+00
    -47.285  0.0000E+00  0.0000E+00  0.0000E+00  0.0000E+00
    -47.074  0.1144E-03  0.1053E-03  0.2412E-04  0.2220E-04
    -46.863  0.7636E-02  0.7030E-02  0.1634E-02  0.1504E-02
    -46.652  0.4905E+00  0.4535E+00  0.1050E+00  0.9711E-01
    -46.441  0.6989E+01  0.6893E+01  0.1579E+01  0.1550E+01
    -46.230  0.1961E+01  0.2092E+01  0.1992E+01  0.1991E+01
    -46.020  0.0000E+00  0.0000E+00  0.2000E+01  0.2000E+01
    -45.809  0.0000E+00  0.0000E+00  0.2000E+01  0.2000E+01
    -45.598  0.0000E+00  0.0000E+00  0.2000E+01  0.2000E+01
    -45.387  0.0000E+00  0.0000E+00  0.2000E+01  0.2000E+01
    -45.176  0.0000E+00  0.0000E+00  0.2000E+01  0.2000E+01
    -44.965  0.0000E+00  0.0000E+00  0.2000E+01  0.2000E+01
    -44.755  0.0000E+00  0.0000E+00  0.2000E+01  0.2000E+01
    -44.544  0.0000E+00  0.0000E+00  0.2000E+01  0.2000E+01
    -44.333  0.0000E+00  0.0000E+00  0.2000E+01  0.2000E+01
    -44.122  0.0000E+00  0.0000E+00  0.2000E+01  0.2000E+01
    -43.911  0.0000E+00  0.0000E+00  0.2000E+01  0.2000E+01
    -43.700  0.0000E+00  0.0000E+00  0.2000E+01  0.2000E+01
    -43.490  0.0000E+00  0.0000E+00  0.2000E+01  0.2000E+01
    -43.279  0.0000E+00  0.0000E+00  0.2000E+01  0.2000E+01
    -43.068  0.0000E+00  0.0000E+00  0.2000E+01  0.2000E+01
    -42.857  0.0000E+00  0.0000E+00  0.2000E+01  0.2000E+01
    -42.646  0.0000E+00  0.0000E+00  0.2000E+01  0.2000E+01
    -42.435  0.0000E+00  0.0000E+00  0.2000E+01  0.2000E+01
    -42.224  0.0000E+00  0.0000E+00  0.2000E+01  0.2000E+01
    -42.014  0.0000E+00  0.0000E+00  0.2000E+01  0.2000E+01
    -41.803  0.0000E+00  0.0000E+00  0.2000E+01  0.2000E+01
    -41.592  0.0000E+00  0.0000E+00  0.2000E+01  0.2000E+01
    -41.381  0.0000E+00  0.0000E+00  0.2000E+01  0.2000E+01
    -41.170  0.0000E+00  0.0000E+00  0.2000E+01  0.2000E+01
    -40.959  0.0000E+00  0.0000E+00  0.2000E+01  0.2000E+01
    -40.749  0.0000E+00  0.0000E+00  0.2000E+01  0.2000E+01
    -40.538  0.0000E+00  0.0000E+00  0.2000E+01  0.2000E+01
    -40.327  0.0000E+00  0.0000E+00  0.2000E+01  0.2000E+01
    -40.116  0.0000E+00  0.0000E+00  0.2000E+01  0.2000E+01
    -39.905  0.0000E+00  0.0000E+00  0.2000E+01  0.2000E+01
    -39.694  0.0000E+00  0.0000E+00  0.2000E+01  0.2000E+01
    -39.484  0.0000E+00  0.0000E+00  0.2000E+01  0.2000E+01
    -39.273  0.0000E+00  0.0000E+00  0.2000E+01  0.2000E+01
    -39.062  0.0000E+00  0.0000E+00  0.2000E+01  0.2000E+01
    -38.851  0.0000E+00  0.0000E+00  0.2000E+01  0.2000E+01
    -38.640  0.0000E+00  0.0000E+00  0.2000E+01  0.2000E+01
    -38.429  0.0000E+00  0.0000E+00  0.2000E+01  0.2000E+01
    -38.219  0.0000E+00  0.0000E+00  0.2000E+01  0.2000E+01
    -38.008  0.0000E+00  0.0000E+00  0.2000E+01  0.2000E+01
    -37.797  0.0000E+00  0.0000E+00  0.2000E+01  0.2000E+01
    -37.586  0.0000E+00  0.0000E+00  0.2000E+01  0.2000E+01
    -37.375  0.0000E+00  0.0000E+00  0.2000E+01  0.2000E+01
    -37.164  0.0000E+00  0.0000E+00  0.2000E+01  0.2000E+01
    -36.954  0.0000E+00  0.0000E+00  0.2000E+01  0.2000E+01
    -36.743  0.0000E+00  0.0000E+00  0.2000E+01  0.2000E+01
    -36.532  0.0000E+00  0.0000E+00  0.2000E+01  0.2000E+01
    -36.321  0.0000E+00  0.0000E+00  0.2000E+01  0.2000E+01
    -36.110  0.0000E+00  0.0000E+00  0.2000E+01  0.2000E+01
    -35.899  0.0000E+00  0.0000E+00  0.2000E+01  0.2000E+01
    -35.689  0.0000E+00  0.0000E+00  0.2000E+01  0.2000E+01
    -35.478  0.0000E+00  0.0000E+00  0.2000E+01  0.2000E+01
    -35.267  0.0000E+00  0.0000E+00  0.2000E+01  0.2000E+01
    -35.056  0.0000E+00  0.0000E+00  0.2000E+01  0.2000E+01
    -34.845  0.0000E+00  0.0000E+00  0.2000E+01  0.2000E+01
    -34.634  0.0000E+00  0.0000E+00  0.2000E+01  0.2000E+01
    -34.424  0.0000E+00  0.0000E+00  0.2000E+01  0.2000E+01
    -34.213  0.0000E+00  0.0000E+00  0.2000E+01  0.2000E+01
    -34.002  0.0000E+00  0.0000E+00  0.2000E+01  0.2000E+01
    -33.791  0.0000E+00  0.0000E+00  0.2000E+01  0.2000E+01
    -33.580  0.0000E+00  0.0000E+00  0.2000E+01  0.2000E+01
    -33.369  0.0000E+00  0.0000E+00  0.2000E+01  0.2000E+01
    -33.159  0.0000E+00  0.0000E+00  0.2000E+01  0.2000E+01
    -32.948  0.0000E+00  0.0000E+00  0.2000E+01  0.2000E+01
    -32.737  0.0000E+00  0.0000E+00  0.2000E+01  0.2000E+01
    -32.526  0.0000E+00  0.0000E+00  0.2000E+01  0.2000E+01
    -32.315  0.0000E+00  0.0000E+00  0.2000E+01  0.2000E+01
    -32.104  0.0000E+00  0.0000E+00  0.2000E+01  0.2000E+01
    -31.894  0.0000E+00  0.0000E+00  0.2000E+01  0.2000E+01
    -31.683  0.0000E+00  0.0000E+00  0.2000E+01  0.2000E+01
    -31.472  0.0000E+00  0.0000E+00  0.2000E+01  0.2000E+01
    -31.261  0.0000E+00  0.0000E+00  0.2000E+01  0.2000E+01
    -31.050  0.0000E+00  0.0000E+00  0.2000E+01  0.2000E+01
    -30.839  0.0000E+00  0.0000E+00  0.2000E+01  0.2000E+01
    -30.629  0.0000E+00  0.0000E+00  0.2000E+01  0.2000E+01
    -30.418  0.0000E+00  0.0000E+00  0.2000E+01  0.2000E+01
    -30.207  0.0000E+00  0.0000E+00  0.2000E+01  0.2000E+01
    -29.996  0.0000E+00  0.0000E+00  0.2000E+01  0.2000E+01
    -29.785  0.0000E+00  0.0000E+00  0.2000E+01  0.2000E+01
    -29.574  0.0000E+00  0.0000E+00  0.2000E+01  0.2000E+01
    -29.364  0.0000E+00  0.0000E+00  0.2000E+01  0.2000E+01
    -29.153  0.0000E+00  0.0000E+00  0.2000E+01  0.2000E+01
    -28.942  0.0000E+00  0.0000E+00  0.2000E+01  0.2000E+01
    -28.731  0.0000E+00  0.0000E+00  0.2000E+01  0.2000E+01
    -28.520  0.0000E+00  0.0000E+00  0.2000E+01  0.2000E+01
    -28.309  0.0000E+00  0.0000E+00  0.2000E+01  0.2000E+01
    -28.099  0.0000E+00  0.0000E+00  0.2000E+01  0.2000E+01
    -27.888  0.0000E+00  0.0000E+00  0.2000E+01  0.2000E+01
    -27.677  0.0000E+00  0.0000E+00  0.2000E+01  0.2000E+01
    -27.466  0.0000E+00  0.0000E+00  0.2000E+01  0.2000E+01
    -27.255  0.0000E+00  0.0000E+00  0.2000E+01  0.2000E+01
    -27.044  0.0000E+00  0.0000E+00  0.2000E+01  0.2000E+01
    -26.834  0.0000E+00  0.0000E+00  0.2000E+01  0.2000E+01
    -26.623  0.0000E+00  0.0000E+00  0.2000E+01  0.2000E+01
    -26.412  0.0000E+00  0.0000E+00  0.2000E+01  0.2000E+01
    -26.201  0.0000E+00  0.0000E+00  0.2000E+01  0.2000E+01
    -25.990  0.0000E+00  0.0000E+00  0.2000E+01  0.2000E+01
    -25.779  0.0000E+00  0.0000E+00  0.2000E+01  0.2000E+01
    -25.569  0.0000E+00  0.0000E+00  0.2000E+01  0.2000E+01
    -25.358  0.0000E+00  0.0000E+00  0.2000E+01  0.2000E+01
    -25.147  0.0000E+00  0.0000E+00  0.2000E+01  0.2000E+01
    -24.936  0.0000E+00  0.0000E+00  0.2000E+01  0.2000E+01
    -24.725  0.0000E+00  0.0000E+00  0.2000E+01  0.2000E+01
    -24.514  0.0000E+00  0.0000E+00  0.2000E+01  0.2000E+01
    -24.304  0.0000E+00  0.0000E+00  0.2000E+01  0.2000E+01
    -24.093  0.0000E+00  0.0000E+00  0.2000E+01  0.2000E+01
    -23.882  0.0000E+00  0.0000E+00  0.2000E+01  0.2000E+01
    -23.671  0.0000E+00  0.0000E+00  0.2000E+01  0.2000E+01
    -23.460  0.0000E+00  0.0000E+00  0.2000E+01  0.2000E+01
    -23.249  0.0000E+00  0.0000E+00  0.2000E+01  0.2000E+01
    -23.039  0.0000E+00  0.0000E+00  0.2000E+01  0.2000E+01
    -22.828  0.0000E+00  0.0000E+00  0.2000E+01  0.2000E+01
    -22.617  0.0000E+00  0.0000E+00  0.2000E+01  0.2000E+01
    -22.406  0.0000E+00  0.0000E+00  0.2000E+01  0.2000E+01
    -22.195  0.0000E+00  0.0000E+00  0.2000E+01  0.2000E+01
    -21.984  0.0000E+00  0.0000E+00  0.2000E+01  0.2000E+01
    -21.774  0.0000E+00  0.0000E+00  0.2000E+01  0.2000E+01
    -21.563  0.0000E+00  0.0000E+00  0.2000E+01  0.2000E+01
    -21.352  0.0000E+00  0.0000E+00  0.2000E+01  0.2000E+01
    -21.141  0.0000E+00  0.0000E+00  0.2000E+01  0.2000E+01
    -20.930  0.0000E+00  0.0000E+00  0.2000E+01  0.2000E+01
    -20.719  0.0000E+00  0.0000E+00  0.2000E+01  0.2000E+01
    -20.509  0.0000E+00  0.0000E+00  0.2000E+01  0.2000E+01
    -20.298  0.0000E+00  0.0000E+00  0.2000E+01  0.2000E+01
    -20.087  0.0000E+00  0.0000E+00  0.2000E+01  0.2000E+01
    -19.876  0.0000E+00  0.0000E+00  0.2000E+01  0.2000E+01
    -19.665  0.0000E+00  0.0000E+00  0.2000E+01  0.2000E+01
    -19.454  0.0000E+00  0.0000E+00  0.2000E+01  0.2000E+01
    -19.244  0.0000E+00  0.0000E+00  0.2000E+01  0.2000E+01
    -19.033  0.0000E+00  0.0000E+00  0.2000E+01  0.2000E+01
    -18.822  0.0000E+00  0.0000E+00  0.2000E+01  0.2000E+01
    -18.611  0.0000E+00  0.0000E+00  0.2000E+01  0.2000E+01
    -18.400  0.0000E+00  0.0000E+00  0.2000E+01  0.2000E+01
    -18.189  0.0000E+00  0.0000E+00  0.2000E+01  0.2000E+01
    -17.979  0.0000E+00  0.0000E+00  0.2000E+01  0.2000E+01
    -17.768  0.0000E+00  0.0000E+00  0.2000E+01  0.2000E+01
    -17.557  0.0000E+00  0.0000E+00  0.2000E+01  0.2000E+01
    -17.346  0.0000E+00  0.0000E+00  0.2000E+01  0.2000E+01
    -17.135  0.0000E+00  0.0000E+00  0.2000E+01  0.2000E+01
    -16.924  0.0000E+00  0.0000E+00  0.2000E+01  0.2000E+01
    -16.714  0.0000E+00  0.0000E+00  0.2000E+01  0.2000E+01
    -16.503  0.0000E+00  0.0000E+00  0.2000E+01  0.2000E+01
    -16.292  0.0000E+00  0.0000E+00  0.2000E+01  0.2000E+01
    -16.081  0.0000E+00  0.0000E+00  0.2000E+01  0.2000E+01
    -15.870  0.0000E+00  0.0000E+00  0.2000E+01  0.2000E+01
    -15.659  0.0000E+00  0.0000E+00  0.2000E+01  0.2000E+01
    -15.449  0.0000E+00  0.0000E+00  0.2000E+01  0.2000E+01
    -15.238  0.0000E+00  0.0000E+00  0.2000E+01  0.2000E+01
    -15.027  0.0000E+00  0.0000E+00  0.2000E+01  0.2000E+01
    -14.816  0.0000E+00  0.0000E+00  0.2000E+01  0.2000E+01
    -14.605  0.0000E+00  0.0000E+00  0.2000E+01  0.2000E+01
    -14.394  0.0000E+00  0.0000E+00  0.2000E+01  0.2000E+01
    -14.184  0.0000E+00  0.0000E+00  0.2000E+01  0.2000E+01
    -13.973  0.0000E+00  0.0000E+00  0.2000E+01  0.2000E+01
    -13.762  0.0000E+00  0.0000E+00  0.2000E+01  0.2000E+01
    -13.551  0.0000E+00  0.0000E+00  0.2000E+01  0.2000E+01
    -13.340  0.0000E+00  0.0000E+00  0.2000E+01  0.2000E+01
    -13.129  0.0000E+00  0.0000E+00  0.2000E+01  0.2000E+01
    -12.919  0.0000E+00  0.0000E+00  0.2000E+01  0.2000E+01
    -12.708  0.0000E+00  0.0000E+00  0.2000E+01  0.2000E+01
    -12.497  0.0000E+00  0.0000E+00  0.2000E+01  0.2000E+01
    -12.286  0.0000E+00  0.0000E+00  0.2000E+01  0.2000E+01
    -12.075  0.0000E+00  0.0000E+00  0.2000E+01  0.2000E+01
    -11.864  0.0000E+00  0.0000E+00  0.2000E+01  0.2000E+01
    -11.654  0.0000E+00  0.0000E+00  0.2000E+01  0.2000E+01
    -11.443  0.0000E+00  0.0000E+00  0.2000E+01  0.2000E+01
    -11.232  0.0000E+00  0.0000E+00  0.2000E+01  0.2000E+01
    -11.021  0.0000E+00  0.0000E+00  0.2000E+01  0.2000E+01
    -10.810  0.0000E+00  0.0000E+00  0.2000E+01  0.2000E+01
    -10.599  0.0000E+00  0.0000E+00  0.2000E+01  0.2000E+01
    -10.389  0.0000E+00  0.0000E+00  0.2000E+01  0.2000E+01
    -10.178  0.0000E+00  0.0000E+00  0.2000E+01  0.2000E+01
     -9.967  0.0000E+00  0.0000E+00  0.2000E+01  0.2000E+01
     -9.756  0.0000E+00  0.0000E+00  0.2000E+01  0.2000E+01
     -9.545  0.0000E+00  0.0000E+00  0.2000E+01  0.2000E+01
     -9.334  0.0000E+00  0.0000E+00  0.2000E+01  0.2000E+01
     -9.124  0.0000E+00  0.0000E+00  0.2000E+01  0.2000E+01
     -8.913  0.0000E+00  0.0000E+00  0.2000E+01  0.2000E+01
     -8.702  0.0000E+00  0.0000E+00  0.2000E+01  0.2000E+01
     -8.491  0.0000E+00  0.0000E+00  0.2000E+01  0.2000E+01
     -8.280  0.0000E+00  0.0000E+00  0.2000E+01  0.2000E+01
     -8.069  0.0000E+00  0.0000E+00  0.2000E+01  0.2000E+01
     -7.859  0.0000E+00  0.0000E+00  0.2000E+01  0.2000E+01
     -7.648  0.0000E+00  0.0000E+00  0.2000E+01  0.2000E+01
     -7.437  0.0000E+00  0.0000E+00  0.2000E+01  0.2000E+01
     -7.226  0.0000E+00  0.0000E+00  0.2000E+01  0.2000E+01
     -7.015  0.0000E+00  0.0000E+00  0.2000E+01  0.2000E+01
     -6.804  0.0000E+00  0.0000E+00  0.2000E+01  0.2000E+01
     -6.594  0.0000E+00  0.0000E+00  0.2000E+01  0.2000E+01
     -6.383  0.0000E+00  0.0000E+00  0.2000E+01  0.2000E+01
     -6.172  0.0000E+00  0.0000E+00  0.2000E+01  0.2000E+01
     -5.961  0.0000E+00  0.0000E+00  0.2000E+01  0.2000E+01
     -5.750  0.0000E+00  0.0000E+00  0.2000E+01  0.2000E+01
     -5.539  0.0000E+00  0.0000E+00  0.2000E+01  0.2000E+01
     -5.329  0.0000E+00  0.0000E+00  0.2000E+01  0.2000E+01
     -5.118  0.0000E+00  0.0000E+00  0.2000E+01  0.2000E+01
     -4.907  0.0000E+00  0.0000E+00  0.2000E+01  0.2000E+01
     -4.696  0.0000E+00  0.0000E+00  0.2000E+01  0.2000E+01
     -4.485  0.0000E+00  0.0000E+00  0.2000E+01  0.2000E+01
     -4.274  0.0000E+00  0.0000E+00  0.2000E+01  0.2000E+01
     -4.064  0.0000E+00  0.0000E+00  0.2000E+01  0.2000E+01
     -3.853  0.0000E+00  0.0000E+00  0.2000E+01  0.2000E+01
     -3.642  0.1762E-06  0.1696E-06  0.2000E+01  0.2000E+01
     -3.431  0.1941E-04  0.1868E-04  0.2000E+01  0.2000E+01
     -3.220  0.1265E-02  0.1219E-02  0.2000E+01  0.2000E+01
     -3.009  0.3174E-01  0.3116E-01  0.2007E+01  0.2007E+01
     -2.799  0.1051E+00  0.1046E+00  0.2029E+01  0.2029E+01
     -2.588  0.1474E+00  0.1469E+00  0.2060E+01  0.2060E+01
     -2.377  0.1861E+00  0.1859E+00  0.2100E+01  0.2099E+01
     -2.166  0.2065E+00  0.2059E+00  0.2144E+01  0.2143E+01
     -1.955  0.2514E+00  0.2517E+00  0.2197E+01  0.2197E+01
     -1.744  0.2360E+00  0.2350E+00  0.2247E+01  0.2247E+01
     -1.534  0.3140E+00  0.3141E+00  0.2314E+01  0.2313E+01
     -1.323  0.2746E+00  0.2754E+00  0.2372E+01  0.2372E+01
     -1.112  0.3176E+00  0.3176E+00  0.2440E+01  0.2439E+01
     -0.901  0.3718E+00  0.3708E+00  0.2519E+01  0.2518E+01
     -0.690  0.3616E+00  0.3625E+00  0.2596E+01  0.2595E+01
     -0.479  0.3196E+00  0.3184E+00  0.2664E+01  0.2663E+01
     -0.268  0.4609E+00  0.4608E+00  0.2761E+01  0.2761E+01
     -0.058  0.4089E+00  0.4087E+00  0.2848E+01  0.2848E+01
      0.153  0.4596E+00  0.4600E+00  0.2946E+01  0.2945E+01
      0.364  0.4234E+00  0.4225E+00  0.3036E+01  0.3035E+01
      0.575  0.6576E+00  0.6565E+00  0.3175E+01  0.3174E+01
      0.786  0.5748E+00  0.5751E+00  0.3296E+01  0.3295E+01
      0.997  0.5823E+00  0.5833E+00  0.3420E+01  0.3419E+01
      1.207  0.4016E+00  0.4030E+00  0.3505E+01  0.3504E+01
      1.418  0.4128E+00  0.4094E+00  0.3592E+01  0.3591E+01
      1.629  0.5485E+00  0.5512E+00  0.3708E+01  0.3708E+01
      1.840  0.2590E+00  0.2603E+00  0.3764E+01  0.3763E+01
      2.051  0.2244E+00  0.2259E+00  0.3812E+01  0.3812E+01
      2.262  0.1375E+00  0.1369E+00  0.3841E+01  0.3841E+01
      2.472  0.3219E+00  0.3209E+00  0.3909E+01  0.3908E+01
      2.683  0.1596E+00  0.1620E+00  0.3943E+01  0.3943E+01
      2.894  0.6426E-01  0.6358E-01  0.3957E+01  0.3957E+01
      3.105  0.2544E+00  0.2512E+00  0.4010E+01  0.4010E+01
      3.316  0.6609E+00  0.6570E+00  0.4150E+01  0.4148E+01
      3.527  0.9826E+00  0.9830E+00  0.4357E+01  0.4356E+01
      3.737  0.4829E+00  0.4869E+00  0.4460E+01  0.4459E+01
      3.948  0.4976E+00  0.4950E+00  0.4565E+01  0.4564E+01
      4.159  0.7039E+00  0.7034E+00  0.4714E+01  0.4713E+01
      4.370  0.5252E+00  0.5280E+00  0.4825E+01  0.4825E+01
      4.581  0.2159E+00  0.2192E+00  0.4872E+01  0.4871E+01
      4.792  0.5164E+00  0.5113E+00  0.4981E+01  0.4980E+01
      5.002  0.6957E+00  0.6980E+00  0.5128E+01  0.5127E+01
      5.213  0.3023E+00  0.3040E+00  0.5193E+01  0.5192E+01
      5.424  0.3294E+00  0.3290E+00  0.5263E+01  0.5262E+01
      5.635  0.5136E+00  0.5076E+00  0.5371E+01  0.5369E+01
      5.846  0.9591E+00  0.9592E+00  0.5573E+01  0.5571E+01
      6.057  0.7413E+00  0.7420E+00  0.5731E+01  0.5729E+01
      6.267  0.5469E+00  0.5500E+00  0.5847E+01  0.5845E+01
      6.478  0.5647E+00  0.5621E+00  0.5966E+01  0.5965E+01
      6.689  0.7849E+00  0.7836E+00  0.6132E+01  0.6130E+01
      6.900  0.6964E+00  0.6995E+00  0.6280E+01  0.6279E+01
      7.111  0.5682E+00  0.5663E+00  0.6400E+01  0.6399E+01
      7.322  0.4482E+00  0.4522E+00  0.6495E+01  0.6494E+01
      7.532  0.4300E+00  0.4254E+00  0.6587E+01  0.6585E+01
      7.743  0.8725E+00  0.8695E+00  0.6771E+01  0.6769E+01
      7.954  0.5235E+00  0.5299E+00  0.6882E+01  0.6881E+01
      8.165  0.3198E+00  0.3205E+00  0.6951E+01  0.6950E+01
      8.376  0.4095E+00  0.4083E+00  0.7038E+01  0.7037E+01
      8.587  0.5585E+00  0.5560E+00  0.7156E+01  0.7155E+01
      8.797  0.7054E+00  0.7062E+00  0.7305E+01  0.7304E+01
      9.008  0.4015E+00  0.4049E+00  0.7390E+01  0.7390E+01
      9.219  0.3878E+00  0.3855E+00  0.7473E+01  0.7472E+01
      9.430  0.4588E+00  0.4594E+00  0.7570E+01  0.7569E+01
      9.641  0.4150E+00  0.4143E+00  0.7658E+01  0.7657E+01
      9.852  0.4721E+00  0.4713E+00  0.7758E+01  0.7756E+01
     10.062  0.4208E+00  0.4214E+00  0.7847E+01  0.7846E+01
     10.273  0.3062E+00  0.3084E+00  0.7912E+01  0.7912E+01
     10.484  0.1217E+00  0.1258E+00  0.7938E+01  0.7939E+01
     10.695  0.1219E+00  0.1195E+00  0.7964E+01  0.7964E+01
     10.906  0.1185E+00  0.1213E+00  0.7989E+01  0.7990E+01
     11.117  0.4739E-01  0.4623E-01  0.8000E+01  0.8000E+01
     11.327  0.1087E-02  0.0000E+00  0.8000E+01  0.8000E+01
     11.538  0.0000E+00  0.0000E+00  0.8000E+01  0.8000E+01
     11.749  0.0000E+00  0.0000E+00  0.8000E+01  0.8000E+01
     11.960  0.0000E+00  0.0000E+00  0.8000E+01  0.8000E+01
     12.171  0.0000E+00  0.0000E+00  0.8000E+01  0.8000E+01
     12.382  0.0000E+00  0.0000E+00  0.8000E+01  0.8000E+01
     12.592  0.0000E+00  0.0000E+00  0.8000E+01  0.8000E+01
     12.803  0.0000E+00  0.0000E+00  0.8000E+01  0.8000E+01
     13.014  0.0000E+00  0.0000E+00  0.8000E+01  0.8000E+01
     13.225  0.0000E+00  0.0000E+00  0.8000E+01  0.8000E+01
     13.436  0.0000E+00  0.0000E+00  0.8000E+01  0.8000E+01
     13.647  0.0000E+00  0.0000E+00  0.8000E+01  0.8000E+01
     13.857  0.0000E+00  0.0000E+00  0.8000E+01  0.8000E+01
     13.85739447    -49.39285949  301      0.28557575      1.00000000
    -49.393  0.0000E+00  0.0000E+00  0.0000E+00  0.0000E+00  0.0000E+00  0.0000E+00  0.0000E+00  0.0000E+00  0.0000E+00  0.0000E+00  0.0000E+00  0.0000E+00  0.0000E+00  0.0000E+00  0.0000E+00  0.0000E+00  0.0000E+00  0.0000E+00
    -49.182  0.0000E+00  0.0000E+00  0.0000E+00  0.0000E+00  0.0000E+00  0.0000E+00  0.0000E+00  0.0000E+00  0.0000E+00  0.0000E+00  0.0000E+00  0.0000E+00  0.0000E+00  0.0000E+00  0.0000E+00  0.0000E+00  0.0000E+00  0.0000E+00
    -48.971  0.0000E+00  0.0000E+00  0.0000E+00  0.0000E+00  0.0000E+00  0.0000E+00  0.0000E+00  0.0000E+00  0.0000E+00  0.0000E+00  0.0000E+00  0.0000E+00  0.0000E+00  0.0000E+00  0.0000E+00  0.0000E+00  0.0000E+00  0.0000E+00
    -48.760  0.0000E+00  0.0000E+00  0.0000E+00  0.0000E+00  0.0000E+00  0.0000E+00  0.0000E+00  0.0000E+00  0.0000E+00  0.0000E+00  0.0000E+00  0.0000E+00  0.0000E+00  0.0000E+00  0.0000E+00  0.0000E+00  0.0000E+00  0.0000E+00
    -48.550  0.0000E+00  0.0000E+00  0.0000E+00  0.0000E+00  0.0000E+00  0.0000E+00  0.0000E+00  0.0000E+00  0.0000E+00  0.0000E+00  0.0000E+00  0.0000E+00  0.0000E+00  0.0000E+00  0.0000E+00  0.0000E+00  0.0000E+00  0.0000E+00
    -48.339  0.0000E+00  0.0000E+00  0.0000E+00  0.0000E+00  0.0000E+00  0.0000E+00  0.0000E+00  0.0000E+00  0.0000E+00  0.0000E+00  0.0000E+00  0.0000E+00  0.0000E+00  0.0000E+00  0.0000E+00  0.0000E+00  0.0000E+00  0.0000E+00
    -48.128  0.0000E+00  0.0000E+00  0.0000E+00  0.0000E+00  0.0000E+00  0.0000E+00  0.0000E+00  0.0000E+00  0.0000E+00  0.0000E+00  0.0000E+00  0.0000E+00  0.0000E+00  0.0000E+00  0.0000E+00  0.0000E+00  0.0000E+00  0.0000E+00
    -47.917  0.0000E+00  0.0000E+00  0.0000E+00  0.0000E+00  0.0000E+00  0.0000E+00  0.0000E+00  0.0000E+00  0.0000E+00  0.0000E+00  0.0000E+00  0.0000E+00  0.0000E+00  0.0000E+00  0.0000E+00  0.0000E+00  0.0000E+00  0.0000E+00
    -47.706  0.0000E+00  0.0000E+00  0.0000E+00  0.0000E+00  0.0000E+00  0.0000E+00  0.0000E+00  0.0000E+00  0.0000E+00  0.0000E+00  0.0000E+00  0.0000E+00  0.0000E+00  0.0000E+00  0.0000E+00  0.0000E+00  0.0000E+00  0.0000E+00
    -47.495  0.0000E+00  0.0000E+00  0.0000E+00  0.0000E+00  0.0000E+00  0.0000E+00  0.0000E+00  0.0000E+00  0.0000E+00  0.0000E+00  0.0000E+00  0.0000E+00  0.0000E+00  0.0000E+00  0.0000E+00  0.0000E+00  0.0000E+00  0.0000E+00
    -47.285  0.0000E+00  0.0000E+00  0.0000E+00  0.0000E+00  0.0000E+00  0.0000E+00  0.0000E+00  0.0000E+00  0.0000E+00  0.0000E+00  0.0000E+00  0.0000E+00  0.0000E+00  0.0000E+00  0.0000E+00  0.0000E+00  0.0000E+00  0.0000E+00
    -47.074  0.5660E-04  0.5211E-04  0.1051E-11  0.9844E-12  0.1051E-11  0.9844E-12  0.1051E-11  0.9844E-12  0.0000E+00  0.0000E+00  0.0000E+00  0.0000E+00  0.0000E+00  0.0000E+00  0.0000E+00  0.0000E+00  0.0000E+00  0.0000E+00
    -46.863  0.3778E-02  0.3479E-02  0.7015E-10  0.6572E-10  0.7015E-10  0.6572E-10  0.7015E-10  0.6572E-10  0.0000E+00  0.0000E+00  0.0000E+00  0.0000E+00  0.0000E+00  0.0000E+00  0.0000E+00  0.0000E+00  0.0000E+00  0.0000E+00
    -46.652  0.2427E+00  0.2244E+00  0.4502E-08  0.4235E-08  0.4502E-08  0.4235E-08  0.4502E-08  0.4235E-08  0.0000E+00  0.0000E+00  0.0000E+00  0.0000E+00  0.0000E+00  0.0000E+00  0.0000E+00  0.0000E+00  0.0000E+00  0.0000E+00
    -46.441  0.3458E+01  0.3411E+01  0.6327E-07  0.6350E-07  0.6327E-07  0.6350E-07  0.6327E-07  0.6350E-07  0.0000E+00  0.0000E+00  0.0000E+00  0.0000E+00  0.0000E+00  0.0000E+00  0.0000E+00  0.0000E+00  0.0000E+00  0.0000E+00
    -46.230  0.9704E+00  0.1035E+01  0.1745E-07  0.1893E-07  0.1745E-07  0.1893E-07  0.1745E-07  0.1893E-07  0.0000E+00  0.0000E+00  0.0000E+00  0.0000E+00  0.0000E+00  0.0000E+00  0.0000E+00  0.0000E+00  0.0000E+00  0.0000E+00
    -46.020  0.0000E+00  0.0000E+00  0.0000E+00  0.0000E+00  0.0000E+00  0.0000E+00  0.0000E+00  0.0000E+00  0.0000E+00  0.0000E+00  0.0000E+00  0.0000E+00  0.0000E+00  0.0000E+00  0.0000E+00  0.0000E+00  0.0000E+00  0.0000E+00
    -45.809  0.0000E+00  0.0000E+00  0.0000E+00  0.0000E+00  0.0000E+00  0.0000E+00  0.0000E+00  0.0000E+00  0.0000E+00  0.0000E+00  0.0000E+00  0.0000E+00  0.0000E+00  0.0000E+00  0.0000E+00  0.0000E+00  0.0000E+00  0.0000E+00
    -45.598  0.0000E+00  0.0000E+00  0.0000E+00  0.0000E+00  0.0000E+00  0.0000E+00  0.0000E+00  0.0000E+00  0.0000E+00  0.0000E+00  0.0000E+00  0.0000E+00  0.0000E+00  0.0000E+00  0.0000E+00  0.0000E+00  0.0000E+00  0.0000E+00
    -45.387  0.0000E+00  0.0000E+00  0.0000E+00  0.0000E+00  0.0000E+00  0.0000E+00  0.0000E+00  0.0000E+00  0.0000E+00  0.0000E+00  0.0000E+00  0.0000E+00  0.0000E+00  0.0000E+00  0.0000E+00  0.0000E+00  0.0000E+00  0.0000E+00
    -45.176  0.0000E+00  0.0000E+00  0.0000E+00  0.0000E+00  0.0000E+00  0.0000E+00  0.0000E+00  0.0000E+00  0.0000E+00  0.0000E+00  0.0000E+00  0.0000E+00  0.0000E+00  0.0000E+00  0.0000E+00  0.0000E+00  0.0000E+00  0.0000E+00
    -44.965  0.0000E+00  0.0000E+00  0.0000E+00  0.0000E+00  0.0000E+00  0.0000E+00  0.0000E+00  0.0000E+00  0.0000E+00  0.0000E+00  0.0000E+00  0.0000E+00  0.0000E+00  0.0000E+00  0.0000E+00  0.0000E+00  0.0000E+00  0.0000E+00
    -44.755  0.0000E+00  0.0000E+00  0.0000E+00  0.0000E+00  0.0000E+00  0.0000E+00  0.0000E+00  0.0000E+00  0.0000E+00  0.0000E+00  0.0000E+00  0.0000E+00  0.0000E+00  0.0000E+00  0.0000E+00  0.0000E+00  0.0000E+00  0.0000E+00
    -44.544  0.0000E+00  0.0000E+00  0.0000E+00  0.0000E+00  0.0000E+00  0.0000E+00  0.0000E+00  0.0000E+00  0.0000E+00  0.0000E+00  0.0000E+00  0.0000E+00  0.0000E+00  0.0000E+00  0.0000E+00  0.0000E+00  0.0000E+00  0.0000E+00
    -44.333  0.0000E+00  0.0000E+00  0.0000E+00  0.0000E+00  0.0000E+00  0.0000E+00  0.0000E+00  0.0000E+00  0.0000E+00  0.0000E+00  0.0000E+00  0.0000E+00  0.0000E+00  0.0000E+00  0.0000E+00  0.0000E+00  0.0000E+00  0.0000E+00
    -44.122  0.0000E+00  0.0000E+00  0.0000E+00  0.0000E+00  0.0000E+00  0.0000E+00  0.0000E+00  0.0000E+00  0.0000E+00  0.0000E+00  0.0000E+00  0.0000E+00  0.0000E+00  0.0000E+00  0.0000E+00  0.0000E+00  0.0000E+00  0.0000E+00
    -43.911  0.0000E+00  0.0000E+00  0.0000E+00  0.0000E+00  0.0000E+00  0.0000E+00  0.0000E+00  0.0000E+00  0.0000E+00  0.0000E+00  0.0000E+00  0.0000E+00  0.0000E+00  0.0000E+00  0.0000E+00  0.0000E+00  0.0000E+00  0.0000E+00
    -43.700  0.0000E+00  0.0000E+00  0.0000E+00  0.0000E+00  0.0000E+00  0.0000E+00  0.0000E+00  0.0000E+00  0.0000E+00  0.0000E+00  0.0000E+00  0.0000E+00  0.0000E+00  0.0000E+00  0.0000E+00  0.0000E+00  0.0000E+00  0.0000E+00
    -43.490  0.0000E+00  0.0000E+00  0.0000E+00  0.0000E+00  0.0000E+00  0.0000E+00  0.0000E+00  0.0000E+00  0.0000E+00  0.0000E+00  0.0000E+00  0.0000E+00  0.0000E+00  0.0000E+00  0.0000E+00  0.0000E+00  0.0000E+00  0.0000E+00
    -43.279  0.0000E+00  0.0000E+00  0.0000E+00  0.0000E+00  0.0000E+00  0.0000E+00  0.0000E+00  0.0000E+00  0.0000E+00  0.0000E+00  0.0000E+00  0.0000E+00  0.0000E+00  0.0000E+00  0.0000E+00  0.0000E+00  0.0000E+00  0.0000E+00
    -43.068  0.0000E+00  0.0000E+00  0.0000E+00  0.0000E+00  0.0000E+00  0.0000E+00  0.0000E+00  0.0000E+00  0.0000E+00  0.0000E+00  0.0000E+00  0.0000E+00  0.0000E+00  0.0000E+00  0.0000E+00  0.0000E+00  0.0000E+00  0.0000E+00
    -42.857  0.0000E+00  0.0000E+00  0.0000E+00  0.0000E+00  0.0000E+00  0.0000E+00  0.0000E+00  0.0000E+00  0.0000E+00  0.0000E+00  0.0000E+00  0.0000E+00  0.0000E+00  0.0000E+00  0.0000E+00  0.0000E+00  0.0000E+00  0.0000E+00
    -42.646  0.0000E+00  0.0000E+00  0.0000E+00  0.0000E+00  0.0000E+00  0.0000E+00  0.0000E+00  0.0000E+00  0.0000E+00  0.0000E+00  0.0000E+00  0.0000E+00  0.0000E+00  0.0000E+00  0.0000E+00  0.0000E+00  0.0000E+00  0.0000E+00
    -42.435  0.0000E+00  0.0000E+00  0.0000E+00  0.0000E+00  0.0000E+00  0.0000E+00  0.0000E+00  0.0000E+00  0.0000E+00  0.0000E+00  0.0000E+00  0.0000E+00  0.0000E+00  0.0000E+00  0.0000E+00  0.0000E+00  0.0000E+00  0.0000E+00
    -42.224  0.0000E+00  0.0000E+00  0.0000E+00  0.0000E+00  0.0000E+00  0.0000E+00  0.0000E+00  0.0000E+00  0.0000E+00  0.0000E+00  0.0000E+00  0.0000E+00  0.0000E+00  0.0000E+00  0.0000E+00  0.0000E+00  0.0000E+00  0.0000E+00
    -42.014  0.0000E+00  0.0000E+00  0.0000E+00  0.0000E+00  0.0000E+00  0.0000E+00  0.0000E+00  0.0000E+00  0.0000E+00  0.0000E+00  0.0000E+00  0.0000E+00  0.0000E+00  0.0000E+00  0.0000E+00  0.0000E+00  0.0000E+00  0.0000E+00
    -41.803  0.0000E+00  0.0000E+00  0.0000E+00  0.0000E+00  0.0000E+00  0.0000E+00  0.0000E+00  0.0000E+00  0.0000E+00  0.0000E+00  0.0000E+00  0.0000E+00  0.0000E+00  0.0000E+00  0.0000E+00  0.0000E+00  0.0000E+00  0.0000E+00
    -41.592  0.0000E+00  0.0000E+00  0.0000E+00  0.0000E+00  0.0000E+00  0.0000E+00  0.0000E+00  0.0000E+00  0.0000E+00  0.0000E+00  0.0000E+00  0.0000E+00  0.0000E+00  0.0000E+00  0.0000E+00  0.0000E+00  0.0000E+00  0.0000E+00
    -41.381  0.0000E+00  0.0000E+00  0.0000E+00  0.0000E+00  0.0000E+00  0.0000E+00  0.0000E+00  0.0000E+00  0.0000E+00  0.0000E+00  0.0000E+00  0.0000E+00  0.0000E+00  0.0000E+00  0.0000E+00  0.0000E+00  0.0000E+00  0.0000E+00
    -41.170  0.0000E+00  0.0000E+00  0.0000E+00  0.0000E+00  0.0000E+00  0.0000E+00  0.0000E+00  0.0000E+00  0.0000E+00  0.0000E+00  0.0000E+00  0.0000E+00  0.0000E+00  0.0000E+00  0.0000E+00  0.0000E+00  0.0000E+00  0.0000E+00
    -40.959  0.0000E+00  0.0000E+00  0.0000E+00  0.0000E+00  0.0000E+00  0.0000E+00  0.0000E+00  0.0000E+00  0.0000E+00  0.0000E+00  0.0000E+00  0.0000E+00  0.0000E+00  0.0000E+00  0.0000E+00  0.0000E+00  0.0000E+00  0.0000E+00
    -40.749  0.0000E+00  0.0000E+00  0.0000E+00  0.0000E+00  0.0000E+00  0.0000E+00  0.0000E+00  0.0000E+00  0.0000E+00  0.0000E+00  0.0000E+00  0.0000E+00  0.0000E+00  0.0000E+00  0.0000E+00  0.0000E+00  0.0000E+00  0.0000E+00
    -40.538  0.0000E+00  0.0000E+00  0.0000E+00  0.0000E+00  0.0000E+00  0.0000E+00  0.0000E+00  0.0000E+00  0.0000E+00  0.0000E+00  0.0000E+00  0.0000E+00  0.0000E+00  0.0000E+00  0.0000E+00  0.0000E+00  0.0000E+00  0.0000E+00
    -40.327  0.0000E+00  0.0000E+00  0.0000E+00  0.0000E+00  0.0000E+00  0.0000E+00  0.0000E+00  0.0000E+00  0.0000E+00  0.0000E+00  0.0000E+00  0.0000E+00  0.0000E+00  0.0000E+00  0.0000E+00  0.0000E+00  0.0000E+00  0.0000E+00
    -40.116  0.0000E+00  0.0000E+00  0.0000E+00  0.0000E+00  0.0000E+00  0.0000E+00  0.0000E+00  0.0000E+00  0.0000E+00  0.0000E+00  0.0000E+00  0.0000E+00  0.0000E+00  0.0000E+00  0.0000E+00  0.0000E+00  0.0000E+00  0.0000E+00
    -39.905  0.0000E+00  0.0000E+00  0.0000E+00  0.0000E+00  0.0000E+00  0.0000E+00  0.0000E+00  0.0000E+00  0.0000E+00  0.0000E+00  0.0000E+00  0.0000E+00  0.0000E+00  0.0000E+00  0.0000E+00  0.0000E+00  0.0000E+00  0.0000E+00
    -39.694  0.0000E+00  0.0000E+00  0.0000E+00  0.0000E+00  0.0000E+00  0.0000E+00  0.0000E+00  0.0000E+00  0.0000E+00  0.0000E+00  0.0000E+00  0.0000E+00  0.0000E+00  0.0000E+00  0.0000E+00  0.0000E+00  0.0000E+00  0.0000E+00
    -39.484  0.0000E+00  0.0000E+00  0.0000E+00  0.0000E+00  0.0000E+00  0.0000E+00  0.0000E+00  0.0000E+00  0.0000E+00  0.0000E+00  0.0000E+00  0.0000E+00  0.0000E+00  0.0000E+00  0.0000E+00  0.0000E+00  0.0000E+00  0.0000E+00
    -39.273  0.0000E+00  0.0000E+00  0.0000E+00  0.0000E+00  0.0000E+00  0.0000E+00  0.0000E+00  0.0000E+00  0.0000E+00  0.0000E+00  0.0000E+00  0.0000E+00  0.0000E+00  0.0000E+00  0.0000E+00  0.0000E+00  0.0000E+00  0.0000E+00
    -39.062  0.0000E+00  0.0000E+00  0.0000E+00  0.0000E+00  0.0000E+00  0.0000E+00  0.0000E+00  0.0000E+00  0.0000E+00  0.0000E+00  0.0000E+00  0.0000E+00  0.0000E+00  0.0000E+00  0.0000E+00  0.0000E+00  0.0000E+00  0.0000E+00
    -38.851  0.0000E+00  0.0000E+00  0.0000E+00  0.0000E+00  0.0000E+00  0.0000E+00  0.0000E+00  0.0000E+00  0.0000E+00  0.0000E+00  0.0000E+00  0.0000E+00  0.0000E+00  0.0000E+00  0.0000E+00  0.0000E+00  0.0000E+00  0.0000E+00