   2   2   1   0
  0.1466798E+02  0.3084135E-09  0.3084135E-09  0.3084135E-09  0.5000000E-15
  1.000000000000000E-004
  CAR 
 unknown system                          
     19.31621680    -47.41588766  301      1.68444874      1.00000000
    -47.416  0.0000E+00  0.0000E+00  0.0000E+00  0.0000E+00
    -47.193  0.0000E+00  0.0000E+00  0.0000E+00  0.0000E+00
    -46.971  0.0000E+00  0.0000E+00  0.0000E+00  0.0000E+00
    -46.749  0.0000E+00  0.0000E+00  0.0000E+00  0.0000E+00
    -46.526  0.0000E+00  0.0000E+00  0.0000E+00  0.0000E+00
    -46.304  0.0000E+00  0.0000E+00  0.0000E+00  0.0000E+00
    -46.081  0.0000E+00  0.0000E+00  0.0000E+00  0.0000E+00
    -45.859  0.0000E+00  0.0000E+00  0.0000E+00  0.0000E+00
    -45.636  0.0000E+00  0.0000E+00  0.0000E+00  0.0000E+00
    -45.414  0.0000E+00  0.0000E+00  0.0000E+00  0.0000E+00
    -45.191  0.0000E+00  0.0000E+00  0.0000E+00  0.0000E+00
    -44.969  0.4934E-05  0.3216E-05  0.1098E-05  0.7153E-06
    -44.747  0.1929E-02  0.1688E-02  0.4302E-03  0.3763E-03
    -44.524  0.1599E+00  0.1403E+00  0.3601E-01  0.3158E-01
    -44.302  0.5130E+01  0.4864E+01  0.1177E+01  0.1114E+01
    -44.079  0.3623E+01  0.3897E+01  0.1983E+01  0.1981E+01
    -43.857  0.0000E+00  0.0000E+00  0.2000E+01  0.2000E+01
    -43.634  0.0000E+00  0.0000E+00  0.2000E+01  0.2000E+01
    -43.412  0.0000E+00  0.0000E+00  0.2000E+01  0.2000E+01
    -43.190  0.0000E+00  0.0000E+00  0.2000E+01  0.2000E+01
    -42.967  0.0000E+00  0.0000E+00  0.2000E+01  0.2000E+01
    -42.745  0.0000E+00  0.0000E+00  0.2000E+01  0.2000E+01
    -42.522  0.0000E+00  0.0000E+00  0.2000E+01  0.2000E+01
    -42.300  0.0000E+00  0.0000E+00  0.2000E+01  0.2000E+01
    -42.077  0.0000E+00  0.0000E+00  0.2000E+01  0.2000E+01
    -41.855  0.0000E+00  0.0000E+00  0.2000E+01  0.2000E+01
    -41.632  0.0000E+00  0.0000E+00  0.2000E+01  0.2000E+01
    -41.410  0.0000E+00  0.0000E+00  0.2000E+01  0.2000E+01
    -41.188  0.0000E+00  0.0000E+00  0.2000E+01  0.2000E+01
    -40.965  0.0000E+00  0.0000E+00  0.2000E+01  0.2000E+01
    -40.743  0.0000E+00  0.0000E+00  0.2000E+01  0.2000E+01
    -40.520  0.0000E+00  0.0000E+00  0.2000E+01  0.2000E+01
    -40.298  0.0000E+00  0.0000E+00  0.2000E+01  0.2000E+01
    -40.075  0.0000E+00  0.0000E+00  0.2000E+01  0.2000E+01
    -39.853  0.0000E+00  0.0000E+00  0.2000E+01  0.2000E+01
    -39.630  0.0000E+00  0.0000E+00  0.2000E+01  0.2000E+01
    -39.408  0.0000E+00  0.0000E+00  0.2000E+01  0.2000E+01
    -39.186  0.0000E+00  0.0000E+00  0.2000E+01  0.2000E+01
    -38.963  0.0000E+00  0.0000E+00  0.2000E+01  0.2000E+01
    -38.741  0.0000E+00  0.0000E+00  0.2000E+01  0.2000E+01
    -38.518  0.0000E+00  0.0000E+00  0.2000E+01  0.2000E+01
    -38.296  0.0000E+00  0.0000E+00  0.2000E+01  0.2000E+01
    -38.073  0.0000E+00  0.0000E+00  0.2000E+01  0.2000E+01
    -37.851  0.0000E+00  0.0000E+00  0.2000E+01  0.2000E+01
    -37.629  0.0000E+00  0.0000E+00  0.2000E+01  0.2000E+01
    -37.406  0.0000E+00  0.0000E+00  0.2000E+01  0.2000E+01
    -37.184  0.0000E+00  0.0000E+00  0.2000E+01  0.2000E+01
    -36.961  0.0000E+00  0.0000E+00  0.2000E+01  0.2000E+01
    -36.739  0.0000E+00  0.0000E+00  0.2000E+01  0.2000E+01
    -36.516  0.0000E+00  0.0000E+00  0.2000E+01  0.2000E+01
    -36.294  0.0000E+00  0.0000E+00  0.2000E+01  0.2000E+01
    -36.071  0.0000E+00  0.0000E+00  0.2000E+01  0.2000E+01
    -35.849  0.0000E+00  0.0000E+00  0.2000E+01  0.2000E+01
    -35.627  0.0000E+00  0.0000E+00  0.2000E+01  0.2000E+01
    -35.404  0.0000E+00  0.0000E+00  0.2000E+01  0.2000E+01
    -35.182  0.0000E+00  0.0000E+00  0.2000E+01  0.2000E+01
    -34.959  0.0000E+00  0.0000E+00  0.2000E+01  0.2000E+01
    -34.737  0.0000E+00  0.0000E+00  0.2000E+01  0.2000E+01
    -34.514  0.0000E+00  0.0000E+00  0.2000E+01  0.2000E+01
    -34.292  0.0000E+00  0.0000E+00  0.2000E+01  0.2000E+01
    -34.069  0.0000E+00  0.0000E+00  0.2000E+01  0.2000E+01
    -33.847  0.0000E+00  0.0000E+00  0.2000E+01  0.2000E+01
    -33.625  0.0000E+00  0.0000E+00  0.2000E+01  0.2000E+01
    -33.402  0.0000E+00  0.0000E+00  0.2000E+01  0.2000E+01
    -33.180  0.0000E+00  0.0000E+00  0.2000E+01  0.2000E+01
    -32.957  0.0000E+00  0.0000E+00  0.2000E+01  0.2000E+01
    -32.735  0.0000E+00  0.0000E+00  0.2000E+01  0.2000E+01
    -32.512  0.0000E+00  0.0000E+00  0.2000E+01  0.2000E+01
    -32.290  0.0000E+00  0.0000E+00  0.2000E+01  0.2000E+01
    -32.068  0.0000E+00  0.0000E+00  0.2000E+01  0.2000E+01
    -31.845  0.0000E+00  0.0000E+00  0.2000E+01  0.2000E+01
    -31.623  0.0000E+00  0.0000E+00  0.2000E+01  0.2000E+01
    -31.400  0.0000E+00  0.0000E+00  0.2000E+01  0.2000E+01
    -31.178  0.0000E+00  0.0000E+00  0.2000E+01  0.2000E+01
    -30.955  0.0000E+00  0.0000E+00  0.2000E+01  0.2000E+01
    -30.733  0.0000E+00  0.0000E+00  0.2000E+01  0.2000E+01
    -30.510  0.0000E+00  0.0000E+00  0.2000E+01  0.2000E+01
    -30.288  0.0000E+00  0.0000E+00  0.2000E+01  0.2000E+01
    -30.066  0.0000E+00  0.0000E+00  0.2000E+01  0.2000E+01
    -29.843  0.0000E+00  0.0000E+00  0.2000E+01  0.2000E+01
    -29.621  0.0000E+00  0.0000E+00  0.2000E+01  0.2000E+01
    -29.398  0.0000E+00  0.0000E+00  0.2000E+01  0.2000E+01
    -29.176  0.0000E+00  0.0000E+00  0.2000E+01  0.2000E+01
    -28.953  0.0000E+00  0.0000E+00  0.2000E+01  0.2000E+01
    -28.731  0.0000E+00  0.0000E+00  0.2000E+01  0.2000E+01
    -28.508  0.0000E+00  0.0000E+00  0.2000E+01  0.2000E+01
    -28.286  0.0000E+00  0.0000E+00  0.2000E+01  0.2000E+01
    -28.064  0.0000E+00  0.0000E+00  0.2000E+01  0.2000E+01
    -27.841  0.0000E+00  0.0000E+00  0.2000E+01  0.2000E+01
    -27.619  0.0000E+00  0.0000E+00  0.2000E+01  0.2000E+01
    -27.396  0.0000E+00  0.0000E+00  0.2000E+01  0.2000E+01
    -27.174  0.0000E+00  0.0000E+00  0.2000E+01  0.2000E+01
    -26.951  0.0000E+00  0.0000E+00  0.2000E+01  0.2000E+01
    -26.729  0.0000E+00  0.0000E+00  0.2000E+01  0.2000E+01
    -26.506  0.0000E+00  0.0000E+00  0.2000E+01  0.2000E+01
    -26.284  0.0000E+00  0.0000E+00  0.2000E+01  0.2000E+01
    -26.062  0.0000E+00  0.0000E+00  0.2000E+01  0.2000E+01
    -25.839  0.0000E+00  0.0000E+00  0.2000E+01  0.2000E+01
    -25.617  0.0000E+00  0.0000E+00  0.2000E+01  0.2000E+01
    -25.394  0.0000E+00  0.0000E+00  0.2000E+01  0.2000E+01
    -25.172  0.0000E+00  0.0000E+00  0.2000E+01  0.2000E+01
    -24.949  0.0000E+00  0.0000E+00  0.2000E+01  0.2000E+01
    -24.727  0.0000E+00  0.0000E+00  0.2000E+01  0.2000E+01
    -24.505  0.0000E+00  0.0000E+00  0.2000E+01  0.2000E+01
    -24.282  0.0000E+00  0.0000E+00  0.2000E+01  0.2000E+01
    -24.060  0.0000E+00  0.0000E+00  0.2000E+01  0.2000E+01
    -23.837  0.0000E+00  0.0000E+00  0.2000E+01  0.2000E+01
    -23.615  0.0000E+00  0.0000E+00  0.2000E+01  0.2000E+01
    -23.392  0.0000E+00  0.0000E+00  0.2000E+01  0.2000E+01
    -23.170  0.0000E+00  0.0000E+00  0.2000E+01  0.2000E+01
    -22.947  0.0000E+00  0.0000E+00  0.2000E+01  0.2000E+01
    -22.725  0.0000E+00  0.0000E+00  0.2000E+01  0.2000E+01
    -22.503  0.0000E+00  0.0000E+00  0.2000E+01  0.2000E+01
    -22.280  0.0000E+00  0.0000E+00  0.2000E+01  0.2000E+01
    -22.058  0.0000E+00  0.0000E+00  0.2000E+01  0.2000E+01
    -21.835  0.0000E+00  0.0000E+00  0.2000E+01  0.2000E+01
    -21.613  0.0000E+00  0.0000E+00  0.2000E+01  0.2000E+01
    -21.390  0.0000E+00  0.0000E+00  0.2000E+01  0.2000E+01
    -21.168  0.0000E+00  0.0000E+00  0.2000E+01  0.2000E+01
    -20.945  0.0000E+00  0.0000E+00  0.2000E+01  0.2000E+01
    -20.723  0.0000E+00  0.0000E+00  0.2000E+01  0.2000E+01
    -20.501  0.0000E+00  0.0000E+00  0.2000E+01  0.2000E+01
    -20.278  0.0000E+00  0.0000E+00  0.2000E+01  0.2000E+01
    -20.056  0.0000E+00  0.0000E+00  0.2000E+01  0.2000E+01
    -19.833  0.0000E+00  0.0000E+00  0.2000E+01  0.2000E+01
    -19.611  0.0000E+00  0.0000E+00  0.2000E+01  0.2000E+01
    -19.388  0.0000E+00  0.0000E+00  0.2000E+01  0.2000E+01
    -19.166  0.0000E+00  0.0000E+00  0.2000E+01  0.2000E+01
    -18.944  0.0000E+00  0.0000E+00  0.2000E+01  0.2000E+01
    -18.721  0.0000E+00  0.0000E+00  0.2000E+01  0.2000E+01
    -18.499  0.0000E+00  0.0000E+00  0.2000E+01  0.2000E+01
    -18.276  0.0000E+00  0.0000E+00  0.2000E+01  0.2000E+01
    -18.054  0.0000E+00  0.0000E+00  0.2000E+01  0.2000E+01
    -17.831  0.0000E+00  0.0000E+00  0.2000E+01  0.2000E+01
    -17.609  0.0000E+00  0.0000E+00  0.2000E+01  0.2000E+01
    -17.386  0.0000E+00  0.0000E+00  0.2000E+01  0.2000E+01
    -17.164  0.0000E+00  0.0000E+00  0.2000E+01  0.2000E+01
    -16.942  0.0000E+00  0.0000E+00  0.2000E+01  0.2000E+01
    -16.719  0.0000E+00  0.0000E+00  0.2000E+01  0.2000E+01
    -16.497  0.0000E+00  0.0000E+00  0.2000E+01  0.2000E+01
    -16.274  0.0000E+00  0.0000E+00  0.2000E+01  0.2000E+01
    -16.052  0.0000E+00  0.0000E+00  0.2000E+01  0.2000E+01
    -15.829  0.0000E+00  0.0000E+00  0.2000E+01  0.2000E+01
    -15.607  0.0000E+00  0.0000E+00  0.2000E+01  0.2000E+01
    -15.384  0.0000E+00  0.0000E+00  0.2000E+01  0.2000E+01
    -15.162  0.0000E+00  0.0000E+00  0.2000E+01  0.2000E+01
    -14.940  0.0000E+00  0.0000E+00  0.2000E+01  0.2000E+01
    -14.717  0.0000E+00  0.0000E+00  0.2000E+01  0.2000E+01
    -14.495  0.0000E+00  0.0000E+00  0.2000E+01  0.2000E+01
    -14.272  0.0000E+00  0.0000E+00  0.2000E+01  0.2000E+01
    -14.050  0.0000E+00  0.0000E+00  0.2000E+01  0.2000E+01
    -13.827  0.0000E+00  0.0000E+00  0.2000E+01  0.2000E+01
    -13.605  0.0000E+00  0.0000E+00  0.2000E+01  0.2000E+01
    -13.383  0.0000E+00  0.0000E+00  0.2000E+01  0.2000E+01
    -13.160  0.0000E+00  0.0000E+00  0.2000E+01  0.2000E+01
    -12.938  0.0000E+00  0.0000E+00  0.2000E+01  0.2000E+01
    -12.715  0.0000E+00  0.0000E+00  0.2000E+01  0.2000E+01
    -12.493  0.0000E+00  0.0000E+00  0.2000E+01  0.2000E+01
    -12.270  0.0000E+00  0.0000E+00  0.2000E+01  0.2000E+01
    -12.048  0.0000E+00  0.0000E+00  0.2000E+01  0.2000E+01
    -11.825  0.0000E+00  0.0000E+00  0.2000E+01  0.2000E+01
    -11.603  0.0000E+00  0.0000E+00  0.2000E+01  0.2000E+01
    -11.381  0.0000E+00  0.0000E+00  0.2000E+01  0.2000E+01
    -11.158  0.0000E+00  0.0000E+00  0.2000E+01  0.2000E+01
    -10.936  0.0000E+00  0.0000E+00  0.2000E+01  0.2000E+01
    -10.713  0.0000E+00  0.0000E+00  0.2000E+01  0.2000E+01
    -10.491  0.0000E+00  0.0000E+00  0.2000E+01  0.2000E+01
    -10.268  0.0000E+00  0.0000E+00  0.2000E+01  0.2000E+01
    -10.046  0.0000E+00  0.0000E+00  0.2000E+01  0.2000E+01
     -9.823  0.0000E+00  0.0000E+00  0.2000E+01  0.2000E+01
     -9.601  0.0000E+00  0.0000E+00  0.2000E+01  0.2000E+01
     -9.379  0.0000E+00  0.0000E+00  0.2000E+01  0.2000E+01
     -9.156  0.0000E+00  0.0000E+00  0.2000E+01  0.2000E+01
     -8.934  0.0000E+00  0.0000E+00  0.2000E+01  0.2000E+01
     -8.711  0.0000E+00  0.0000E+00  0.2000E+01  0.2000E+01
     -8.489  0.0000E+00  0.0000E+00  0.2000E+01  0.2000E+01
     -8.266  0.0000E+00  0.0000E+00  0.2000E+01  0.2000E+01
     -8.044  0.0000E+00  0.0000E+00  0.2000E+01  0.2000E+01
     -7.822  0.0000E+00  0.0000E+00  0.2000E+01  0.2000E+01
     -7.599  0.0000E+00  0.0000E+00  0.2000E+01  0.2000E+01
     -7.377  0.0000E+00  0.0000E+00  0.2000E+01  0.2000E+01
     -7.154  0.0000E+00  0.0000E+00  0.2000E+01  0.2000E+01
     -6.932  0.0000E+00  0.0000E+00  0.2000E+01  0.2000E+01
     -6.709  0.0000E+00  0.0000E+00  0.2000E+01  0.2000E+01
     -6.487  0.0000E+00  0.0000E+00  0.2000E+01  0.2000E+01
     -6.264  0.0000E+00  0.0000E+00  0.2000E+01  0.2000E+01
     -6.042  0.0000E+00  0.0000E+00  0.2000E+01  0.2000E+01
     -5.820  0.0000E+00  0.0000E+00  0.2000E+01  0.2000E+01
     -5.597  0.0000E+00  0.0000E+00  0.2000E+01  0.2000E+01
     -5.375  0.0000E+00  0.0000E+00  0.2000E+01  0.2000E+01
     -5.152  0.0000E+00  0.0000E+00  0.2000E+01  0.2000E+01
     -4.930  0.0000E+00  0.0000E+00  0.2000E+01  0.2000E+01
     -4.707  0.0000E+00  0.0000E+00  0.2000E+01  0.2000E+01
     -4.485  0.0000E+00  0.0000E+00  0.2000E+01  0.2000E+01
     -4.262  0.0000E+00  0.0000E+00  0.2000E+01  0.2000E+01
     -4.040  0.0000E+00  0.0000E+00  0.2000E+01  0.2000E+01
     -3.818  0.0000E+00  0.0000E+00  0.2000E+01  0.2000E+01
     -3.595  0.0000E+00  0.0000E+00  0.2000E+01  0.2000E+01
     -3.373  0.0000E+00  0.0000E+00  0.2000E+01  0.2000E+01
     -3.150  0.0000E+00  0.0000E+00  0.2000E+01  0.2000E+01
     -2.928  0.0000E+00  0.0000E+00  0.2000E+01  0.2000E+01
     -2.705  0.1353E-05  0.1119E-05  0.2000E+01  0.2000E+01
     -2.483  0.1170E-03  0.1021E-03  0.2000E+01  0.2000E+01
     -2.260  0.7312E-02  0.6572E-02  0.2002E+01  0.2001E+01
     -2.038  0.5817E-01  0.5633E-01  0.2015E+01  0.2014E+01
     -1.816  0.1084E+00  0.1079E+00  0.2039E+01  0.2038E+01
     -1.593  0.1448E+00  0.1433E+00  0.2071E+01  0.2070E+01
     -1.371  0.1632E+00  0.1632E+00  0.2107E+01  0.2106E+01
     -1.148  0.1818E+00  0.1795E+00  0.2148E+01  0.2147E+01
     -0.926  0.2195E+00  0.2206E+00  0.2197E+01  0.2196E+01
     -0.703  0.1853E+00  0.1834E+00  0.2238E+01  0.2237E+01
     -0.481  0.2687E+00  0.2681E+00  0.2299E+01  0.2297E+01
     -0.259  0.2346E+00  0.2358E+00  0.2351E+01  0.2350E+01
     -0.036  0.2690E+00  0.2687E+00  0.2412E+01  0.2410E+01
      0.186  0.2599E+00  0.2593E+00  0.2470E+01  0.2468E+01
      0.409  0.3515E+00  0.3520E+00  0.2548E+01  0.2547E+01
      0.631  0.2848E+00  0.2879E+00  0.2612E+01  0.2611E+01
      0.854  0.2930E+00  0.2885E+00  0.2677E+01  0.2675E+01
      1.076  0.3712E+00  0.3720E+00  0.2760E+01  0.2758E+01
      1.299  0.3727E+00  0.3710E+00  0.2843E+01  0.2841E+01
      1.521  0.4071E+00  0.4086E+00  0.2934E+01  0.2932E+01
      1.743  0.3845E+00  0.3856E+00  0.3021E+01  0.3019E+01
      1.966  0.5026E+00  0.4943E+00  0.3133E+01  0.3129E+01
      2.188  0.4787E+00  0.4830E+00  0.3239E+01  0.3237E+01
      2.411  0.5161E+00  0.5172E+00  0.3356E+01  0.3353E+01
      2.633  0.4374E+00  0.4415E+00  0.3454E+01  0.3452E+01
      2.856  0.2526E+00  0.2579E+00  0.3511E+01  0.3510E+01
      3.078  0.2348E+00  0.2269E+00  0.3563E+01  0.3561E+01
      3.301  0.5220E+00  0.5221E+00  0.3679E+01  0.3677E+01
      3.523  0.2754E+00  0.2810E+00  0.3742E+01  0.3741E+01
      3.745  0.1728E+00  0.1736E+00  0.3781E+01  0.3780E+01
      3.968  0.1625E+00  0.1656E+00  0.3818E+01  0.3817E+01
      4.190  0.9021E-01  0.8899E-01  0.3838E+01  0.3837E+01
      4.413  0.1405E+00  0.1362E+00  0.3869E+01  0.3868E+01
      4.635  0.2916E+00  0.2955E+00  0.3934E+01  0.3934E+01
      4.858  0.4795E-01  0.5102E-01  0.3946E+01  0.3945E+01
      5.080  0.3420E-01  0.3370E-01  0.3953E+01  0.3953E+01
      5.302  0.1329E+00  0.1314E+00  0.3983E+01  0.3983E+01
      5.525  0.1248E+00  0.1224E+00  0.4011E+01  0.4010E+01
      5.747  0.2459E+00  0.2444E+00  0.4066E+01  0.4064E+01
      5.970  0.4395E+00  0.4374E+00  0.4164E+01  0.4162E+01
      6.192  0.4427E+00  0.4369E+00  0.4263E+01  0.4260E+01
      6.415  0.7262E+00  0.7278E+00  0.4425E+01  0.4422E+01
      6.637  0.3875E+00  0.3951E+00  0.4513E+01  0.4512E+01
      6.860  0.3385E+00  0.3353E+00  0.4589E+01  0.4587E+01
      7.082  0.6334E+00  0.6284E+00  0.4730E+01  0.4727E+01
      7.304  0.4213E+00  0.4309E+00  0.4825E+01  0.4823E+01
      7.527  0.2641E+00  0.2670E+00  0.4884E+01  0.4884E+01
      7.749  0.2051E+00  0.2048E+00  0.4931E+01  0.4930E+01
      7.972  0.4180E+00  0.4118E+00  0.5024E+01  0.5021E+01
      8.194  0.5680E+00  0.5737E+00  0.5151E+01  0.5149E+01
      8.417  0.2184E+00  0.2211E+00  0.5200E+01  0.5199E+01
      8.639  0.2489E+00  0.2478E+00  0.5256E+01  0.5255E+01
      8.862  0.2137E+00  0.2149E+00  0.5304E+01  0.5303E+01
      9.084  0.3178E+00  0.3115E+00  0.5375E+01  0.5373E+01
      9.306  0.5706E+00  0.5707E+00  0.5502E+01  0.5500E+01
      9.529  0.4739E+00  0.4748E+00  0.5608E+01  0.5607E+01
      9.751  0.3964E+00  0.3997E+00  0.5697E+01  0.5696E+01
      9.974  0.3433E+00  0.3418E+00  0.5775E+01  0.5773E+01
     10.196  0.4926E+00  0.4950E+00  0.5884E+01  0.5883E+01
     10.419  0.4698E+00  0.4624E+00  0.5990E+01  0.5987E+01
     10.641  0.6886E+00  0.6959E+00  0.6144E+01  0.6142E+01
     10.863  0.4986E+00  0.4967E+00  0.6256E+01  0.6254E+01
     11.086  0.4370E+00  0.4379E+00  0.6354E+01  0.6352E+01
     11.308  0.3653E+00  0.3672E+00  0.6436E+01  0.6434E+01
     11.531  0.3689E+00  0.3687E+00  0.6518E+01  0.6517E+01
     11.753  0.5563E+00  0.5485E+00  0.6642E+01  0.6639E+01
     11.976  0.5525E+00  0.5615E+00  0.6766E+01  0.6765E+01
     12.198  0.3683E+00  0.3662E+00  0.6849E+01  0.6848E+01
     12.421  0.3099E+00  0.3122E+00  0.6918E+01  0.6917E+01
     12.643  0.2916E+00  0.2901E+00  0.6983E+01  0.6982E+01
     12.865  0.4405E+00  0.4386E+00  0.7081E+01  0.7080E+01
     13.088  0.3628E+00  0.3647E+00  0.7162E+01  0.7161E+01
     13.310  0.5975E+00  0.5904E+00  0.7296E+01  0.7293E+01
     13.533  0.4129E+00  0.4209E+00  0.7388E+01  0.7387E+01
     13.755  0.1541E+00  0.1570E+00  0.7424E+01  0.7424E+01
     13.978  0.1820E+00  0.1790E+00  0.7465E+01  0.7464E+01
     14.200  0.4438E+00  0.4335E+00  0.7564E+01  0.7561E+01
     14.423  0.3117E+00  0.3214E+00  0.7634E+01  0.7633E+01
     14.645  0.3484E+00  0.3486E+00  0.7712E+01  0.7711E+01
     14.867  0.3853E+00  0.3816E+00  0.7798E+01  0.7797E+01
     15.090  0.2223E+00  0.2283E+00  0.7848E+01  0.7848E+01
     15.312  0.1316E+00  0.1318E+00  0.7878E+01  0.7878E+01
     15.535  0.1894E+00  0.1869E+00  0.7920E+01  0.7919E+01
     15.757  0.1295E+00  0.1311E+00  0.7949E+01  0.7949E+01
     15.980  0.1153E+00  0.1168E+00  0.7975E+01  0.7975E+01
     16.202  0.6382E-01  0.6224E-01  0.7989E+01  0.7989E+01
     16.424  0.4630E-01  0.4800E-01  0.7999E+01  0.7999E+01
     16.647  0.2140E-02  0.2700E-02  0.8000E+01  0.8000E+01
     16.869  0.0000E+00  0.0000E+00  0.8000E+01  0.8000E+01
     17.092  0.0000E+00  0.0000E+00  0.8000E+01  0.8000E+01
     17.314  0.0000E+00  0.0000E+00  0.8000E+01  0.8000E+01
     17.537  0.0000E+00  0.0000E+00  0.8000E+01  0.8000E+01
     17.759  0.0000E+00  0.0000E+00  0.8000E+01  0.8000E+01
     17.982  0.0000E+00  0.0000E+00  0.8000E+01  0.8000E+01
     18.204  0.0000E+00  0.0000E+00  0.8000E+01  0.8000E+01
     18.426  0.0000E+00  0.0000E+00  0.8000E+01  0.8000E+01
     18.649  0.0000E+00  0.0000E+00  0.8000E+01  0.8000E+01
     18.871  0.0000E+00  0.0000E+00  0.8000E+01  0.8000E+01
     19.094  0.0000E+00  0.0000E+00  0.8000E+01  0.8000E+01
     19.316  0.0000E+00  0.0000E+00  0.8000E+01  0.8000E+01
     19.31621680    -47.41588766  301      1.68444874      1.00000000
    -47.416  0.0000E+00  0.0000E+00  0.0000E+00  0.0000E+00  0.0000E+00  0.0000E+00  0.0000E+00  0.0000E+00  0.0000E+00  0.0000E+00  0.0000E+00  0.0000E+00  0.0000E+00  0.0000E+00  0.0000E+00  0.0000E+00  0.0000E+00  0.0000E+00
    -47.193  0.0000E+00  0.0000E+00  0.0000E+00  0.0000E+00  0.0000E+00  0.0000E+00  0.0000E+00  0.0000E+00  0.0000E+00  0.0000E+00  0.0000E+00  0.0000E+00  0.0000E+00  0.0000E+00  0.0000E+00  0.0000E+00  0.0000E+00  0.0000E+00
    -46.971  0.0000E+00  0.0000E+00  0.0000E+00  0.0000E+00  0.0000E+00  0.0000E+00  0.0000E+00  0.0000E+00  0.0000E+00  0.0000E+00  0.0000E+00  0.0000E+00  0.0000E+00  0.0000E+00  0.0000E+00  0.0000E+00  0.0000E+00  0.0000E+00
    -46.749  0.0000E+00  0.0000E+00  0.0000E+00  0.0000E+00  0.0000E+00  0.0000E+00  0.0000E+00  0.0000E+00  0.0000E+00  0.0000E+00  0.0000E+00  0.0000E+00  0.0000E+00  0.0000E+00  0.0000E+00  0.0000E+00  0.0000E+00  0.0000E+00
    -46.526  0.0000E+00  0.0000E+00  0.0000E+00  0.0000E+00  0.0000E+00  0.0000E+00  0.0000E+00  0.0000E+00  0.0000E+00  0.0000E+00  0.0000E+00  0.0000E+00  0.0000E+00  0.0000E+00  0.0000E+00  0.0000E+00  0.0000E+00  0.0000E+00
    -46.304  0.0000E+00  0.0000E+00  0.0000E+00  0.0000E+00  0.0000E+00  0.0000E+00  0.0000E+00  0.0000E+00  0.0000E+00  0.0000E+00  0.0000E+00  0.0000E+00  0.0000E+00  0.0000E+00  0.0000E+00  0.0000E+00  0.0000E+00  0.0000E+00
    -46.081  0.0000E+00  0.0000E+00  0.0000E+00  0.0000E+00  0.0000E+00  0.0000E+00  0.0000E+00  0.0000E+00  0.0000E+00  0.0000E+00  0.0000E+00  0.0000E+00  0.0000E+00  0.0000E+00  0.0000E+00  0.0000E+00  0.0000E+00  0.0000E+00
    -45.859  0.0000E+00  0.0000E+00  0.0000E+00  0.0000E+00  0.0000E+00  0.0000E+00  0.0000E+00  0.0000E+00  0.0000E+00  0.0000E+00  0.0000E+00  0.0000E+00  0.0000E+00  0.0000E+00  0.0000E+00  0.0000E+00  0.0000E+00  0.0000E+00
    -45.636  0.0000E+00  0.0000E+00  0.0000E+00  0.0000E+00  0.0000E+00  0.0000E+00  0.0000E+00  0.0000E+00  0.0000E+00  0.0000E+00  0.0000E+00  0.0000E+00  0.0000E+00  0.0000E+00  0.0000E+00  0.0000E+00  0.0000E+00  0.0000E+00
    -45.414  0.0000E+00  0.0000E+00  0.0000E+00  0.0000E+00  0.0000E+00  0.0000E+00  0.0000E+00  0.0000E+00  0.0000E+00  0.0000E+00  0.0000E+00  0.0000E+00  0.0000E+00  0.0000E+00  0.0000E+00  0.0000E+00  0.0000E+00  0.0000E+00
    -45.191  0.0000E+00  0.0000E+00  0.0000E+00  0.0000E+00  0.0000E+00  0.0000E+00  0.0000E+00  0.0000E+00  0.0000E+00  0.0000E+00  0.0000E+00  0.0000E+00  0.0000E+00  0.0000E+00  0.0000E+00  0.0000E+00  0.0000E+00  0.0000E+00
    -44.969  0.2435E-05  0.1587E-05  0.3908E-13  0.1782E-13  0.3908E-13  0.1782E-13  0.3908E-13  0.1782E-13  0.0000E+00  0.0000E+00  0.0000E+00  0.0000E+00  0.0000E+00  0.0000E+00  0.0000E+00  0.0000E+00  0.0000E+00  0.0000E+00
    -44.747  0.9536E-03  0.8346E-03  0.3177E-10  0.2697E-10  0.3177E-10  0.2697E-10  0.3177E-10  0.2697E-10  0.0000E+00  0.0000E+00  0.0000E+00  0.0000E+00  0.0000E+00  0.0000E+00  0.0000E+00  0.0000E+00  0.0000E+00  0.0000E+00
    -44.524  0.7906E-01  0.6934E-01  0.2640E-08  0.2245E-08  0.2640E-08  0.2245E-08  0.2640E-08  0.2245E-08  0.0000E+00  0.0000E+00  0.0000E+00  0.0000E+00  0.0000E+00  0.0000E+00  0.0000E+00  0.0000E+00  0.0000E+00  0.0000E+00
    -44.302  0.2537E+01  0.2405E+01  0.9250E-07  0.8470E-07  0.9250E-07  0.8470E-07  0.9250E-07  0.8470E-07  0.0000E+00  0.0000E+00  0.0000E+00  0.0000E+00  0.0000E+00  0.0000E+00  0.0000E+00  0.0000E+00  0.0000E+00  0.0000E+00
    -44.079  0.1792E+01  0.1928E+01  0.7197E-07  0.7473E-07  0.7197E-07  0.7473E-07  0.7197E-07  0.7473E-07  0.0000E+00  0.0000E+00  0.0000E+00  0.0000E+00  0.0000E+00  0.0000E+00  0.0000E+00  0.0000E+00  0.0000E+00  0.0000E+00
    -43.857  0.0000E+00  0.0000E+00  0.0000E+00  0.0000E+00  0.0000E+00  0.0000E+00  0.0000E+00  0.0000E+00  0.0000E+00  0.0000E+00  0.0000E+00  0.0000E+00  0.0000E+00  0.0000E+00  0.0000E+00  0.0000E+00  0.0000E+00  0.0000E+00
    -43.634  0.0000E+00  0.0000E+00  0.0000E+00  0.0000E+00  0.0000E+00  0.0000E+00  0.0000E+00  0.0000E+00  0.0000E+00  0.0000E+00  0.0000E+00  0.0000E+00  0.0000E+00  0.0000E+00  0.0000E+00  0.0000E+00  0.0000E+00  0.0000E+00
    -43.412  0.0000E+00  0.0000E+00  0.0000E+00  0.0000E+00  0.0000E+00  0.0000E+00  0.0000E+00  0.0000E+00  0.0000E+00  0.0000E+00  0.0000E+00  0.0000E+00  0.0000E+00  0.0000E+00  0.0000E+00  0.0000E+00  0.0000E+00  0.0000E+00
    -43.190  0.0000E+00  0.0000E+00  0.0000E+00  0.0000E+00  0.0000E+00  0.0000E+00  0.0000E+00  0.0000E+00  0.0000E+00  0.0000E+00  0.0000E+00  0.0000E+00  0.0000E+00  0.0000E+00  0.0000E+00  0.0000E+00  0.0000E+00  0.0000E+00
    -42.967  0.0000E+00  0.0000E+00  0.0000E+00  0.0000E+00  0.0000E+00  0.0000E+00  0.0000E+00  0.0000E+00  0.0000E+00  0.0000E+00  0.0000E+00  0.0000E+00  0.0000E+00  0.0000E+00  0.0000E+00  0.0000E+00  0.0000E+00  0.0000E+00
    -42.745  0.0000E+00  0.0000E+00  0.0000E+00  0.0000E+00  0.0000E+00  0.0000E+00  0.0000E+00  0.0000E+00  0.0000E+00  0.0000E+00  0.0000E+00  0.0000E+00  0.0000E+00  0.0000E+00  0.0000E+00  0.0000E+00  0.0000E+00  0.0000E+00
    -42.522  0.0000E+00  0.0000E+00  0.0000E+00  0.0000E+00  0.0000E+00  0.0000E+00  0.0000E+00  0.0000E+00  0.0000E+00  0.0000E+00  0.0000E+00  0.0000E+00  0.0000E+00  0.0000E+00  0.0000E+00  0.0000E+00  0.0000E+00  0.0000E+00
    -42.300  0.0000E+00  0.0000E+00  0.0000E+00  0.0000E+00  0.0000E+00  0.0000E+00  0.0000E+00  0.0000E+00  0.0000E+00  0.0000E+00  0.0000E+00  0.0000E+00  0.0000E+00  0.0000E+00  0.0000E+00  0.0000E+00  0.0000E+00  0.0000E+00
    -42.077  0.0000E+00  0.0000E+00  0.0000E+00  0.0000E+00  0.0000E+00  0.0000E+00  0.0000E+00  0.0000E+00  0.0000E+00  0.0000E+00  0.0000E+00  0.0000E+00  0.0000E+00  0.0000E+00  0.0000E+00  0.0000E+00  0.0000E+00  0.0000E+00
    -41.855  0.0000E+00  0.0000E+00  0.0000E+00  0.0000E+00  0.0000E+00  0.0000E+00  0.0000E+00  0.0000E+00  0.0000E+00  0.0000E+00  0.0000E+00  0.0000E+00  0.0000E+00  0.0000E+00  0.0000E+00  0.0000E+00  0.0000E+00  0.0000E+00
    -41.632  0.0000E+00  0.0000E+00  0.0000E+00  0.0000E+00  0.0000E+00  0.0000E+00  0.0000E+00  0.0000E+00  0.0000E+00  0.0000E+00  0.0000E+00  0.0000E+00  0.0000E+00  0.0000E+00  0.0000E+00  0.0000E+00  0.0000E+00  0.0000E+00
    -41.410  0.0000E+00  0.0000E+00  0.0000E+00  0.0000E+00  0.0000E+00  0.0000E+00  0.0000E+00  0.0000E+00  0.0000E+00  0.0000E+00  0.0000E+00  0.0000E+00  0.0000E+00  0.0000E+00  0.0000E+00  0.0000E+00  0.0000E+00  0.0000E+00
    -41.188  0.0000E+00  0.0000E+00  0.0000E+00  0.0000E+00  0.0000E+00  0.0000E+00  0.0000E+00  0.0000E+00  0.0000E+00  0.0000E+00  0.0000E+00  0.0000E+00  0.0000E+00  0.0000E+00  0.0000E+00  0.0000E+00  0.0000E+00  0.0000E+00
    -40.965  0.0000E+00  0.0000E+00  0.0000E+00  0.0000E+00  0.0000E+00  0.0000E+00  0.0000E+00  0.0000E+00  0.0000E+00  0.0000E+00  0.0000E+00  0.0000E+00  0.0000E+00  0.0000E+00  0.0000E+00  0.0000E+00  0.0000E+00  0.0000E+00
    -40.743  0.0000E+00  0.0000E+00  0.0000E+00  0.0000E+00  0.0000E+00  0.0000E+00  0.0000E+00  0.0000E+00  0.0000E+00  0.0000E+00  0.0000E+00  0.0000E+00  0.0000E+00  0.0000E+00  0.0000E+00  0.0000E+00  0.0000E+00  0.0000E+00
    -40.520  0.0000E+00  0.0000E+00  0.0000E+00  0.0000E+00  0.0000E+00  0.0000E+00  0.0000E+00  0.0000E+00  0.0000E+00  0.0000E+00  0.0000E+00  0.0000E+00  0.0000E+00  0.0000E+00  0.0000E+00  0.0000E+00  0.0000E+00  0.0000E+00
    -40.298  0.0000E+00  0.0000E+00  0.0000E+00  0.0000E+00  0.0000E+00  0.0000E+00  0.0000E+00  0.0000E+00  0.0000E+00  0.0000E+00  0.0000E+00  0.0000E+00  0.0000E+00  0.0000E+00  0.0000E+00  0.0000E+00  0.0000E+00  0.0000E+00
    -40.075  0.0000E+00  0.0000E+00  0.0000E+00  0.0000E+00  0.0000E+00  0.0000E+00  0.0000E+00  0.0000E+00  0.0000E+00  0.0000E+00  0.0000E+00  0.0000E+00  0.0000E+00  0.0000E+00  0.0000E+00  0.0000E+00  0.0000E+00  0.0000E+00
    -39.853  0.0000E+00  0.0000E+00  0.0000E+00  0.0000E+00  0.0000E+00  0.0000E+00  0.0000E+00  0.0000E+00  0.0000E+00  0.0000E+00  0.0000E+00  0.0000E+00  0.0000E+00  0.0000E+00  0.0000E+00  0.0000E+00  0.0000E+00  0.0000E+00
    -39.630  0.0000E+00  0.0000E+00  0.0000E+00  0.0000E+00  0.0000E+00  0.0000E+00  0.0000E+00  0.0000E+00  0.0000E+00  0.0000E+00  0.0000E+00  0.0000E+00  0.0000E+00  0.0000E+00  0.0000E+00  0.0000E+00  0.0000E+00  0.0000E+00
    -39.408  0.0000E+00  0.0000E+00  0.0000E+00  0.0000E+00  0.0000E+00  0.0000E+00  0.0000E+00  0.0000E+00  0.0000E+00  0.0000E+00  0.0000E+00  0.0000E+00  0.0000E+00  0.0000E+00  0.0000E+00  0.0000E+00  0.0000E+00  0.0000E+00
    -39.186  0.0000E+00  0.0000E+00  0.0000E+00  0.0000E+00  0.0000E+00  0.0000E+00  0.0000E+00  0.0000E+00  0.0000E+00  0.0000E+00  0.0000E+00  0.0000E+00  0.0000E+00  0.0000E+00  0.0000E+00  0.0000E+00  0.0000E+00  0.0000E+00
    -38.963  0.0000E+00  0.0000E+00  0.0000E+00  0.0000E+00  0.0000E+00  0.0000E+00  0.0000E+00  0.0000E+00  0.0000E+00  0.0000E+00  0.0000E+00  0.0000E+00  0.0000E+00  0.0000E+00  0.0000E+00  0.0000E+00  0.0000E+00  0.0000E+00
    -38.741  0.0000E+00  0.0000E+00  0.0000E+00  0.0000E+00  0.0000E+00  0.0000E+00  0.0000E+00  0.0000E+00  0.0000E+00  0.0000E+00  0.0000E+00  0.0000E+00  0.0000E+00  0.0000E+00  0.0000E+00  0.0000E+00  0.0000E+00  0.0000E+00
    -38.518  0.0000E+00  0.0000E+00  0.0000E+00  0.0000E+00  0.0000E+00  0.0000E+00  0.0000E+00  0.0000E+00  0.0000E+00  0.0000E+00  0.0000E+00  0.0000E+00  0.0000E+00  0.0000E+00  0.0000E+00  0.0000E+00  0.0000E+00  0.0000E+00
    -38.296  0.0000E+00  0.0000E+00  0.0000E+00  0.0000E+00  0.0000E+00  0.0000E+00  0.0000E+00  0.0000E+00  0.0000E+00  0.0000E+00  0.0000E+00  0.0000E+00  0.0000E+00  0.0000E+00  0.0000E+00  0.0000E+00  0.0000E+00  0.0000E+00
    -38.073  0.0000E+00  0.0000E+00  0.0000E+00  0.0000E+00  0.0000E+00  0.0000E+00  0.0000E+00  0.0000E+00  0.0000E+00  0.0000E+00  0.0000E+00  0.0000E+00  0.0000E+00  0.0000E+00  0.0000E+00  0.0000E+00  0.0000E+00  0.0000E+00
    -37.851  0.0000E+00  0.0000E+00  0.0000E+00  0.0000E+00  0.0000E+00  0.0000E+00  0.0000E+00  0.0000E+00  0.0000E+00  0.0000E+00  0.0000E+00  0.0000E+00  0.0000E+00  0.0000E+00  0.0000E+00  0.0000E+00  0.0000E+00  0.0000E+00
    -37.629  0.0000E+00  0.0000E+00  0.0000E+00  0.0000E+00  0.0000E+00  0.0000E+00  0.0000E+00  0.0000E+00  0.0000E+00  0.0000E+00  0.0000E+00  0.0000E+00  0.0000E+00  0.0000E+00  0.0000E+00  0.0000E+00  0.0000E+00  0.0000E+00
    -37.406  0.0000E+00  0.0000E+00  0.0000E+00  0.0000E+00  0.0000E+00  0.0000E+00  0.0000E+00  0.0000E+00  0.0000E+00  0.0000E+00  0.0000E+00  0.0000E+00  0.0000E+00  0.0000E+00  0.0000E+00  0.0000E+00  0.0000E+00  0.0000E+00
    -37.184  0.0000E+00  0.0000E+00  0.0000E+00  0.0000E+00  0.0000E+00  0.0000E+00  0.0000E+00  0.0000E+00  0.0000E+00  0.0000E+00  0.0000E+00  0.0000E+00  0.0000E+00  0.0000E+00  0.0000E+00  0.0000E+00  0.0000E+00  0.0000E+00
    -36.961  0.0000E+00  0.0000E+00  0.0000E+00  0.0000E+00  0.0000E+00  0.0000E+00  0.0000E+00  0.0000E+00  0.0000E+00  0.0000E+00  0.0000E+00  0.0000E+00  0.0000E+00  0.0000E+00  0.0000E+00  0.0000E+00  0.0000E+00  0.0000E+00
    -36.739  0.0000E+00  0.0000E+00  0.0000E+00  0.0000E+00  0.0000E+00  0.0000E+00  0.0000E+00  0.0000E+00  0.0000E+00  0.0000E+00  0.0000E+00  0.0000E+00  0.0000E+00  0.0000E+00  0.0000E+00  0.0000E+00  0.0000E+00  0.0000E+00
    -36.516  0.0000E+00  0.0000E+00  0.0000E+00  0.0000E+00  0.0000E+00  0.0000E+00  0.0000E+00  0.0000E+00  0.0000E+00  0.0000E+00  0.0000E+00  0.0000E+00  0.0000E+00  0.0000E+00  0.0000E+00  0.0000E+00  0.0000E+00  0.0000E+00
    -36.294  0.0000E+00  0.0000E+00  0.0000E+00  0.0000E+00  0.0000E+00  0.0000E+00  0.0000E+00  0.0000E+00  0.0000E+00  0.0000E+00  0.0000E+00  0.0000E+00  0.0000E+00  0.0000E+00  0.0000E+00  0.0000E+00  0.0000E+00  0.0000E+00