   2   2   1   0
  0.2073036E+02  0.3461085E-09  0.3461085E-09  0.3461085E-09  0.5000000E-15
  1.000000000000000E-004
  CAR 
 unknown system                          
     15.02840231    -48.91613123  301      0.59046765      1.00000000
    -48.916  0.0000E+00  0.0000E+00  0.0000E+00  0.0000E+00
    -48.703  0.0000E+00  0.0000E+00  0.0000E+00  0.0000E+00
    -48.490  0.0000E+00  0.0000E+00  0.0000E+00  0.0000E+00
    -48.277  0.0000E+00  0.0000E+00  0.0000E+00  0.0000E+00
    -48.064  0.0000E+00  0.0000E+00  0.0000E+00  0.0000E+00
    -47.850  0.0000E+00  0.0000E+00  0.0000E+00  0.0000E+00
    -47.637  0.0000E+00  0.0000E+00  0.0000E+00  0.0000E+00
    -47.424  0.0000E+00  0.0000E+00  0.0000E+00  0.0000E+00
    -47.211  0.0000E+00  0.0000E+00  0.0000E+00  0.0000E+00
    -46.998  0.0000E+00  0.0000E+00  0.0000E+00  0.0000E+00
    -46.785  0.0000E+00  0.0000E+00  0.0000E+00  0.0000E+00
    -46.571  0.8838E-04  0.8091E-04  0.1884E-04  0.1724E-04
    -46.358  0.6184E-02  0.5662E-02  0.1337E-02  0.1224E-02
    -46.145  0.4191E+00  0.3851E+00  0.9066E-01  0.8332E-01
    -45.932  0.6798E+01  0.6682E+01  0.1540E+01  0.1508E+01
    -45.719  0.2121E+01  0.2267E+01  0.1992E+01  0.1991E+01
    -45.506  0.0000E+00  0.0000E+00  0.2000E+01  0.2000E+01
    -45.293  0.0000E+00  0.0000E+00  0.2000E+01  0.2000E+01
    -45.079  0.0000E+00  0.0000E+00  0.2000E+01  0.2000E+01
    -44.866  0.0000E+00  0.0000E+00  0.2000E+01  0.2000E+01
    -44.653  0.0000E+00  0.0000E+00  0.2000E+01  0.2000E+01
    -44.440  0.0000E+00  0.0000E+00  0.2000E+01  0.2000E+01
    -44.227  0.0000E+00  0.0000E+00  0.2000E+01  0.2000E+01
    -44.014  0.0000E+00  0.0000E+00  0.2000E+01  0.2000E+01
    -43.801  0.0000E+00  0.0000E+00  0.2000E+01  0.2000E+01
    -43.587  0.0000E+00  0.0000E+00  0.2000E+01  0.2000E+01
    -43.374  0.0000E+00  0.0000E+00  0.2000E+01  0.2000E+01
    -43.161  0.0000E+00  0.0000E+00  0.2000E+01  0.2000E+01
    -42.948  0.0000E+00  0.0000E+00  0.2000E+01  0.2000E+01
    -42.735  0.0000E+00  0.0000E+00  0.2000E+01  0.2000E+01
    -42.522  0.0000E+00  0.0000E+00  0.2000E+01  0.2000E+01
    -42.309  0.0000E+00  0.0000E+00  0.2000E+01  0.2000E+01
    -42.095  0.0000E+00  0.0000E+00  0.2000E+01  0.2000E+01
    -41.882  0.0000E+00  0.0000E+00  0.2000E+01  0.2000E+01
    -41.669  0.0000E+00  0.0000E+00  0.2000E+01  0.2000E+01
    -41.456  0.0000E+00  0.0000E+00  0.2000E+01  0.2000E+01
    -41.243  0.0000E+00  0.0000E+00  0.2000E+01  0.2000E+01
    -41.030  0.0000E+00  0.0000E+00  0.2000E+01  0.2000E+01
    -40.816  0.0000E+00  0.0000E+00  0.2000E+01  0.2000E+01
    -40.603  0.0000E+00  0.0000E+00  0.2000E+01  0.2000E+01
    -40.390  0.0000E+00  0.0000E+00  0.2000E+01  0.2000E+01
    -40.177  0.0000E+00  0.0000E+00  0.2000E+01  0.2000E+01
    -39.964  0.0000E+00  0.0000E+00  0.2000E+01  0.2000E+01
    -39.751  0.0000E+00  0.0000E+00  0.2000E+01  0.2000E+01
    -39.538  0.0000E+00  0.0000E+00  0.2000E+01  0.2000E+01
    -39.324  0.0000E+00  0.0000E+00  0.2000E+01  0.2000E+01
    -39.111  0.0000E+00  0.0000E+00  0.2000E+01  0.2000E+01
    -38.898  0.0000E+00  0.0000E+00  0.2000E+01  0.2000E+01
    -38.685  0.0000E+00  0.0000E+00  0.2000E+01  0.2000E+01
    -38.472  0.0000E+00  0.0000E+00  0.2000E+01  0.2000E+01
    -38.259  0.0000E+00  0.0000E+00  0.2000E+01  0.2000E+01
    -38.046  0.0000E+00  0.0000E+00  0.2000E+01  0.2000E+01
    -37.832  0.0000E+00  0.0000E+00  0.2000E+01  0.2000E+01
    -37.619  0.0000E+00  0.0000E+00  0.2000E+01  0.2000E+01
    -37.406  0.0000E+00  0.0000E+00  0.2000E+01  0.2000E+01
    -37.193  0.0000E+00  0.0000E+00  0.2000E+01  0.2000E+01
    -36.980  0.0000E+00  0.0000E+00  0.2000E+01  0.2000E+01
    -36.767  0.0000E+00  0.0000E+00  0.2000E+01  0.2000E+01
    -36.554  0.0000E+00  0.0000E+00  0.2000E+01  0.2000E+01
    -36.340  0.0000E+00  0.0000E+00  0.2000E+01  0.2000E+01
    -36.127  0.0000E+00  0.0000E+00  0.2000E+01  0.2000E+01
    -35.914  0.0000E+00  0.0000E+00  0.2000E+01  0.2000E+01
    -35.701  0.0000E+00  0.0000E+00  0.2000E+01  0.2000E+01
    -35.488  0.0000E+00  0.0000E+00  0.2000E+01  0.2000E+01
    -35.275  0.0000E+00  0.0000E+00  0.2000E+01  0.2000E+01
    -35.061  0.0000E+00  0.0000E+00  0.2000E+01  0.2000E+01
    -34.848  0.0000E+00  0.0000E+00  0.2000E+01  0.2000E+01
    -34.635  0.0000E+00  0.0000E+00  0.2000E+01  0.2000E+01
    -34.422  0.0000E+00  0.0000E+00  0.2000E+01  0.2000E+01
    -34.209  0.0000E+00  0.0000E+00  0.2000E+01  0.2000E+01
    -33.996  0.0000E+00  0.0000E+00  0.2000E+01  0.2000E+01
    -33.783  0.0000E+00  0.0000E+00  0.2000E+01  0.2000E+01
    -33.569  0.0000E+00  0.0000E+00  0.2000E+01  0.2000E+01
    -33.356  0.0000E+00  0.0000E+00  0.2000E+01  0.2000E+01
    -33.143  0.0000E+00  0.0000E+00  0.2000E+01  0.2000E+01
    -32.930  0.0000E+00  0.0000E+00  0.2000E+01  0.2000E+01
    -32.717  0.0000E+00  0.0000E+00  0.2000E+01  0.2000E+01
    -32.504  0.0000E+00  0.0000E+00  0.2000E+01  0.2000E+01
    -32.291  0.0000E+00  0.0000E+00  0.2000E+01  0.2000E+01
    -32.077  0.0000E+00  0.0000E+00  0.2000E+01  0.2000E+01
    -31.864  0.0000E+00  0.0000E+00  0.2000E+01  0.2000E+01
    -31.651  0.0000E+00  0.0000E+00  0.2000E+01  0.2000E+01
    -31.438  0.0000E+00  0.0000E+00  0.2000E+01  0.2000E+01
    -31.225  0.0000E+00  0.0000E+00  0.2000E+01  0.2000E+01
    -31.012  0.0000E+00  0.0000E+00  0.2000E+01  0.2000E+01
    -30.799  0.0000E+00  0.0000E+00  0.2000E+01  0.2000E+01
    -30.585  0.0000E+00  0.0000E+00  0.2000E+01  0.2000E+01
    -30.372  0.0000E+00  0.0000E+00  0.2000E+01  0.2000E+01
    -30.159  0.0000E+00  0.0000E+00  0.2000E+01  0.2000E+01
    -29.946  0.0000E+00  0.0000E+00  0.2000E+01  0.2000E+01
    -29.733  0.0000E+00  0.0000E+00  0.2000E+01  0.2000E+01
    -29.520  0.0000E+00  0.0000E+00  0.2000E+01  0.2000E+01
    -29.306  0.0000E+00  0.0000E+00  0.2000E+01  0.2000E+01
    -29.093  0.0000E+00  0.0000E+00  0.2000E+01  0.2000E+01
    -28.880  0.0000E+00  0.0000E+00  0.2000E+01  0.2000E+01
    -28.667  0.0000E+00  0.0000E+00  0.2000E+01  0.2000E+01
    -28.454  0.0000E+00  0.0000E+00  0.2000E+01  0.2000E+01
    -28.241  0.0000E+00  0.0000E+00  0.2000E+01  0.2000E+01
    -28.028  0.0000E+00  0.0000E+00  0.2000E+01  0.2000E+01
    -27.814  0.0000E+00  0.0000E+00  0.2000E+01  0.2000E+01
    -27.601  0.0000E+00  0.0000E+00  0.2000E+01  0.2000E+01
    -27.388  0.0000E+00  0.0000E+00  0.2000E+01  0.2000E+01
    -27.175  0.0000E+00  0.0000E+00  0.2000E+01  0.2000E+01
    -26.962  0.0000E+00  0.0000E+00  0.2000E+01  0.2000E+01
    -26.749  0.0000E+00  0.0000E+00  0.2000E+01  0.2000E+01
    -26.536  0.0000E+00  0.0000E+00  0.2000E+01  0.2000E+01
    -26.322  0.0000E+00  0.0000E+00  0.2000E+01  0.2000E+01
    -26.109  0.0000E+00  0.0000E+00  0.2000E+01  0.2000E+01
    -25.896  0.0000E+00  0.0000E+00  0.2000E+01  0.2000E+01
    -25.683  0.0000E+00  0.0000E+00  0.2000E+01  0.2000E+01
    -25.470  0.0000E+00  0.0000E+00  0.2000E+01  0.2000E+01
    -25.257  0.0000E+00  0.0000E+00  0.2000E+01  0.2000E+01
    -25.044  0.0000E+00  0.0000E+00  0.2000E+01  0.2000E+01
    -24.830  0.0000E+00  0.0000E+00  0.2000E+01  0.2000E+01
    -24.617  0.0000E+00  0.0000E+00  0.2000E+01  0.2000E+01
    -24.404  0.0000E+00  0.0000E+00  0.2000E+01  0.2000E+01
    -24.191  0.0000E+00  0.0000E+00  0.2000E+01  0.2000E+01
    -23.978  0.0000E+00  0.0000E+00  0.2000E+01  0.2000E+01
    -23.765  0.0000E+00  0.0000E+00  0.2000E+01  0.2000E+01
    -23.551  0.0000E+00  0.0000E+00  0.2000E+01  0.2000E+01
    -23.338  0.0000E+00  0.0000E+00  0.2000E+01  0.2000E+01
    -23.125  0.0000E+00  0.0000E+00  0.2000E+01  0.2000E+01
    -22.912  0.0000E+00  0.0000E+00  0.2000E+01  0.2000E+01
    -22.699  0.0000E+00  0.0000E+00  0.2000E+01  0.2000E+01
    -22.486  0.0000E+00  0.0000E+00  0.2000E+01  0.2000E+01
    -22.273  0.0000E+00  0.0000E+00  0.2000E+01  0.2000E+01
    -22.059  0.0000E+00  0.0000E+00  0.2000E+01  0.2000E+01
    -21.846  0.0000E+00  0.0000E+00  0.2000E+01  0.2000E+01
    -21.633  0.0000E+00  0.0000E+00  0.2000E+01  0.2000E+01
    -21.420  0.0000E+00  0.0000E+00  0.2000E+01  0.2000E+01
    -21.207  0.0000E+00  0.0000E+00  0.2000E+01  0.2000E+01
    -20.994  0.0000E+00  0.0000E+00  0.2000E+01  0.2000E+01
    -20.781  0.0000E+00  0.0000E+00  0.2000E+01  0.2000E+01
    -20.567  0.0000E+00  0.0000E+00  0.2000E+01  0.2000E+01
    -20.354  0.0000E+00  0.0000E+00  0.2000E+01  0.2000E+01
    -20.141  0.0000E+00  0.0000E+00  0.2000E+01  0.2000E+01
    -19.928  0.0000E+00  0.0000E+00  0.2000E+01  0.2000E+01
    -19.715  0.0000E+00  0.0000E+00  0.2000E+01  0.2000E+01
    -19.502  0.0000E+00  0.0000E+00  0.2000E+01  0.2000E+01
    -19.288  0.0000E+00  0.0000E+00  0.2000E+01  0.2000E+01
    -19.075  0.0000E+00  0.0000E+00  0.2000E+01  0.2000E+01
    -18.862  0.0000E+00  0.0000E+00  0.2000E+01  0.2000E+01
    -18.649  0.0000E+00  0.0000E+00  0.2000E+01  0.2000E+01
    -18.436  0.0000E+00  0.0000E+00  0.2000E+01  0.2000E+01
    -18.223  0.0000E+00  0.0000E+00  0.2000E+01  0.2000E+01
    -18.010  0.0000E+00  0.0000E+00  0.2000E+01  0.2000E+01
    -17.796  0.0000E+00  0.0000E+00  0.2000E+01  0.2000E+01
    -17.583  0.0000E+00  0.0000E+00  0.2000E+01  0.2000E+01
    -17.370  0.0000E+00  0.0000E+00  0.2000E+01  0.2000E+01
    -17.157  0.0000E+00  0.0000E+00  0.2000E+01  0.2000E+01
    -16.944  0.0000E+00  0.0000E+00  0.2000E+01  0.2000E+01
    -16.731  0.0000E+00  0.0000E+00  0.2000E+01  0.2000E+01
    -16.518  0.0000E+00  0.0000E+00  0.2000E+01  0.2000E+01
    -16.304  0.0000E+00  0.0000E+00  0.2000E+01  0.2000E+01
    -16.091  0.0000E+00  0.0000E+00  0.2000E+01  0.2000E+01
    -15.878  0.0000E+00  0.0000E+00  0.2000E+01  0.2000E+01
    -15.665  0.0000E+00  0.0000E+00  0.2000E+01  0.2000E+01
    -15.452  0.0000E+00  0.0000E+00  0.2000E+01  0.2000E+01
    -15.239  0.0000E+00  0.0000E+00  0.2000E+01  0.2000E+01
    -15.026  0.0000E+00  0.0000E+00  0.2000E+01  0.2000E+01
    -14.812  0.0000E+00  0.0000E+00  0.2000E+01  0.2000E+01
    -14.599  0.0000E+00  0.0000E+00  0.2000E+01  0.2000E+01
    -14.386  0.0000E+00  0.0000E+00  0.2000E+01  0.2000E+01
    -14.173  0.0000E+00  0.0000E+00  0.2000E+01  0.2000E+01
    -13.960  0.0000E+00  0.0000E+00  0.2000E+01  0.2000E+01
    -13.747  0.0000E+00  0.0000E+00  0.2000E+01  0.2000E+01
    -13.533  0.0000E+00  0.0000E+00  0.2000E+01  0.2000E+01
    -13.320  0.0000E+00  0.0000E+00  0.2000E+01  0.2000E+01
    -13.107  0.0000E+00  0.0000E+00  0.2000E+01  0.2000E+01
    -12.894  0.0000E+00  0.0000E+00  0.2000E+01  0.2000E+01
    -12.681  0.0000E+00  0.0000E+00  0.2000E+01  0.2000E+01
    -12.468  0.0000E+00  0.0000E+00  0.2000E+01  0.2000E+01
    -12.255  0.0000E+00  0.0000E+00  0.2000E+01  0.2000E+01
    -12.041  0.0000E+00  0.0000E+00  0.2000E+01  0.2000E+01
    -11.828  0.0000E+00  0.0000E+00  0.2000E+01  0.2000E+01
    -11.615  0.0000E+00  0.0000E+00  0.2000E+01  0.2000E+01
    -11.402  0.0000E+00  0.0000E+00  0.2000E+01  0.2000E+01
    -11.189  0.0000E+00  0.0000E+00  0.2000E+01  0.2000E+01
    -10.976  0.0000E+00  0.0000E+00  0.2000E+01  0.2000E+01
    -10.763  0.0000E+00  0.0000E+00  0.2000E+01  0.2000E+01
    -10.549  0.0000E+00  0.0000E+00  0.2000E+01  0.2000E+01
    -10.336  0.0000E+00  0.0000E+00  0.2000E+01  0.2000E+01
    -10.123  0.0000E+00  0.0000E+00  0.2000E+01  0.2000E+01
     -9.910  0.0000E+00  0.0000E+00  0.2000E+01  0.2000E+01
     -9.697  0.0000E+00  0.0000E+00  0.2000E+01  0.2000E+01
     -9.484  0.0000E+00  0.0000E+00  0.2000E+01  0.2000E+01
     -9.271  0.0000E+00  0.0000E+00  0.2000E+01  0.2000E+01
     -9.057  0.0000E+00  0.0000E+00  0.2000E+01  0.2000E+01
     -8.844  0.0000E+00  0.0000E+00  0.2000E+01  0.2000E+01
     -8.631  0.0000E+00  0.0000E+00  0.2000E+01  0.2000E+01
     -8.418  0.0000E+00  0.0000E+00  0.2000E+01  0.2000E+01
     -8.205  0.0000E+00  0.0000E+00  0.2000E+01  0.2000E+01
     -7.992  0.0000E+00  0.0000E+00  0.2000E+01  0.2000E+01
     -7.778  0.0000E+00  0.0000E+00  0.2000E+01  0.2000E+01
     -7.565  0.0000E+00  0.0000E+00  0.2000E+01  0.2000E+01
     -7.352  0.0000E+00  0.0000E+00  0.2000E+01  0.2000E+01
     -7.139  0.0000E+00  0.0000E+00  0.2000E+01  0.2000E+01
     -6.926  0.0000E+00  0.0000E+00  0.2000E+01  0.2000E+01
     -6.713  0.0000E+00  0.0000E+00  0.2000E+01  0.2000E+01
     -6.500  0.0000E+00  0.0000E+00  0.2000E+01  0.2000E+01
     -6.286  0.0000E+00  0.0000E+00  0.2000E+01  0.2000E+01
     -6.073  0.0000E+00  0.0000E+00  0.2000E+01  0.2000E+01
     -5.860  0.0000E+00  0.0000E+00  0.2000E+01  0.2000E+01
     -5.647  0.0000E+00  0.0000E+00  0.2000E+01  0.2000E+01
     -5.434  0.0000E+00  0.0000E+00  0.2000E+01  0.2000E+01
     -5.221  0.0000E+00  0.0000E+00  0.2000E+01  0.2000E+01
     -5.008  0.0000E+00  0.0000E+00  0.2000E+01  0.2000E+01
     -4.794  0.0000E+00  0.0000E+00  0.2000E+01  0.2000E+01
     -4.581  0.0000E+00  0.0000E+00  0.2000E+01  0.2000E+01
     -4.368  0.0000E+00  0.0000E+00  0.2000E+01  0.2000E+01
     -4.155  0.0000E+00  0.0000E+00  0.2000E+01  0.2000E+01
     -3.942  0.0000E+00  0.0000E+00  0.2000E+01  0.2000E+01
     -3.729  0.0000E+00  0.0000E+00  0.2000E+01  0.2000E+01
     -3.516  0.1121E-06  0.1068E-06  0.2000E+01  0.2000E+01
     -3.302  0.1254E-04  0.1171E-04  0.2000E+01  0.2000E+01
     -3.089  0.8638E-03  0.8244E-03  0.2000E+01  0.2000E+01
     -2.876  0.2578E-01  0.2513E-01  0.2006E+01  0.2006E+01
     -2.663  0.9455E-01  0.9378E-01  0.2026E+01  0.2026E+01
     -2.450  0.1335E+00  0.1330E+00  0.2054E+01  0.2054E+01
     -2.237  0.1754E+00  0.1752E+00  0.2092E+01  0.2091E+01
     -2.023  0.1855E+00  0.1851E+00  0.2132E+01  0.2131E+01
     -1.810  0.2457E+00  0.2455E+00  0.2184E+01  0.2184E+01
     -1.597  0.2071E+00  0.2070E+00  0.2229E+01  0.2228E+01
     -1.384  0.2940E+00  0.2933E+00  0.2292E+01  0.2291E+01
     -1.171  0.2675E+00  0.2680E+00  0.2349E+01  0.2348E+01
     -0.958  0.3028E+00  0.3024E+00  0.2414E+01  0.2413E+01
     -0.745  0.3083E+00  0.3074E+00  0.2479E+01  0.2479E+01
     -0.531  0.3793E+00  0.3796E+00  0.2561E+01  0.2560E+01
     -0.318  0.2979E+00  0.2988E+00  0.2624E+01  0.2624E+01
     -0.105  0.3936E+00  0.3915E+00  0.2709E+01  0.2708E+01
      0.108  0.4227E+00  0.4234E+00  0.2799E+01  0.2798E+01
      0.321  0.4253E+00  0.4242E+00  0.2890E+01  0.2889E+01
      0.534  0.4130E+00  0.4138E+00  0.2978E+01  0.2978E+01
      0.747  0.4548E+00  0.4520E+00  0.3076E+01  0.3075E+01
      0.961  0.6411E+00  0.6427E+00  0.3213E+01  0.3212E+01
      1.174  0.5488E+00  0.5479E+00  0.3331E+01  0.3330E+01
      1.387  0.5199E+00  0.5215E+00  0.3442E+01  0.3441E+01
      1.600  0.3341E+00  0.3360E+00  0.3514E+01  0.3513E+01
      1.813  0.4308E+00  0.4260E+00  0.3606E+01  0.3605E+01
      2.026  0.5041E+00  0.5076E+00  0.3714E+01  0.3713E+01
      2.239  0.2346E+00  0.2359E+00  0.3764E+01  0.3764E+01
      2.453  0.2178E+00  0.2181E+00  0.3811E+01  0.3811E+01
      2.666  0.1145E+00  0.1143E+00  0.3836E+01  0.3835E+01
      2.879  0.2711E+00  0.2688E+00  0.3894E+01  0.3893E+01
      3.092  0.2171E+00  0.2202E+00  0.3940E+01  0.3940E+01
      3.305  0.4406E-01  0.4402E-01  0.3950E+01  0.3950E+01
      3.518  0.1259E+00  0.1247E+00  0.3977E+01  0.3977E+01
      3.732  0.2772E+00  0.2730E+00  0.4036E+01  0.4035E+01
      3.945  0.7035E+00  0.7007E+00  0.4187E+01  0.4185E+01
      4.158  0.8912E+00  0.8927E+00  0.4377E+01  0.4375E+01
      4.371  0.4724E+00  0.4755E+00  0.4478E+01  0.4478E+01
      4.584  0.3924E+00  0.3906E+00  0.4563E+01  0.4561E+01
      4.797  0.7544E+00  0.7521E+00  0.4724E+01  0.4722E+01
      5.010  0.4712E+00  0.4754E+00  0.4824E+01  0.4824E+01
      5.224  0.2203E+00  0.2216E+00  0.4872E+01  0.4872E+01
      5.437  0.3705E+00  0.3660E+00  0.4952E+01  0.4950E+01
      5.650  0.7318E+00  0.7322E+00  0.5108E+01  0.5107E+01
      5.863  0.3376E+00  0.3414E+00  0.5180E+01  0.5180E+01
      6.076  0.2842E+00  0.2831E+00  0.5242E+01  0.5241E+01
      6.289  0.3062E+00  0.3052E+00  0.5307E+01  0.5306E+01
      6.502  0.6778E+00  0.6729E+00  0.5452E+01  0.5450E+01
      6.716  0.7871E+00  0.7869E+00  0.5620E+01  0.5618E+01
      6.929  0.6233E+00  0.6259E+00  0.5754E+01  0.5753E+01
      7.142  0.5182E+00  0.5186E+00  0.5866E+01  0.5865E+01
      7.355  0.4982E+00  0.4974E+00  0.5973E+01  0.5971E+01
      7.568  0.8243E+00  0.8218E+00  0.6149E+01  0.6147E+01
      7.781  0.6364E+00  0.6401E+00  0.6285E+01  0.6284E+01
      7.995  0.4510E+00  0.4487E+00  0.6382E+01  0.6380E+01
      8.208  0.4912E+00  0.4947E+00  0.6487E+01  0.6486E+01
      8.421  0.4051E+00  0.4018E+00  0.6574E+01  0.6573E+01
      8.634  0.7238E+00  0.7218E+00  0.6728E+01  0.6727E+01
      8.847  0.6311E+00  0.6353E+00  0.6863E+01  0.6862E+01
      9.060  0.3083E+00  0.3094E+00  0.6930E+01  0.6929E+01
      9.273  0.3483E+00  0.3468E+00  0.7005E+01  0.7004E+01
      9.487  0.4206E+00  0.4186E+00  0.7094E+01  0.7093E+01
      9.700  0.6865E+00  0.6857E+00  0.7241E+01  0.7240E+01
      9.913  0.5481E+00  0.5513E+00  0.7359E+01  0.7358E+01
     10.126  0.2897E+00  0.2899E+00  0.7421E+01  0.7420E+01
     10.339  0.3550E+00  0.3537E+00  0.7497E+01  0.7496E+01
     10.552  0.4415E+00  0.4418E+00  0.7592E+01  0.7591E+01
     10.765  0.4150E+00  0.4148E+00  0.7680E+01  0.7680E+01
     10.979  0.4329E+00  0.4317E+00  0.7773E+01  0.7772E+01
     11.192  0.3732E+00  0.3746E+00  0.7853E+01  0.7852E+01
     11.405  0.2472E+00  0.2482E+00  0.7906E+01  0.7905E+01
     11.618  0.1285E+00  0.1300E+00  0.7934E+01  0.7934E+01
     11.831  0.1403E+00  0.1405E+00  0.7964E+01  0.7964E+01
     12.044  0.9196E-01  0.8870E-01  0.7984E+01  0.7983E+01
     12.257  0.7016E-01  0.7449E-01  0.7999E+01  0.7999E+01
     12.471  0.3158E-02  0.1791E-02  0.8000E+01  0.8000E+01
     12.684  0.0000E+00  0.0000E+00  0.8000E+01  0.8000E+01
     12.897  0.0000E+00  0.0000E+00  0.8000E+01  0.8000E+01
     13.110  0.0000E+00  0.0000E+00  0.8000E+01  0.8000E+01
     13.323  0.0000E+00  0.0000E+00  0.8000E+01  0.8000E+01
     13.536  0.0000E+00  0.0000E+00  0.8000E+01  0.8000E+01
     13.750  0.0000E+00  0.0000E+00  0.8000E+01  0.8000E+01
     13.963  0.0000E+00  0.0000E+00  0.8000E+01  0.8000E+01
     14.176  0.0000E+00  0.0000E+00  0.8000E+01  0.8000E+01
     14.389  0.0000E+00  0.0000E+00  0.8000E+01  0.8000E+01
     14.602  0.0000E+00  0.0000E+00  0.8000E+01  0.8000E+01
     14.815  0.0000E+00  0.0000E+00  0.8000E+01  0.8000E+01
     15.028  0.0000E+00  0.0000E+00  0.8000E+01  0.8000E+01
     15.02840231    -48.91613123  301      0.59046765      1.00000000
    -48.916  0.0000E+00  0.0000E+00  0.0000E+00  0.0000E+00  0.0000E+00  0.0000E+00  0.0000E+00  0.0000E+00  0.0000E+00  0.0000E+00  0.0000E+00  0.0000E+00  0.0000E+00  0.0000E+00  0.0000E+00  0.0000E+00  0.0000E+00  0.0000E+00
    -48.703  0.0000E+00  0.0000E+00  0.0000E+00  0.0000E+00  0.0000E+00  0.0000E+00  0.0000E+00  0.0000E+00  0.0000E+00  0.0000E+00  0.0000E+00  0.0000E+00  0.0000E+00  0.0000E+00  0.0000E+00  0.0000E+00  0.0000E+00  0.0000E+00
    -48.490  0.0000E+00  0.0000E+00  0.0000E+00  0.0000E+00  0.0000E+00  0.0000E+00  0.0000E+00  0.0000E+00  0.0000E+00  0.0000E+00  0.0000E+00  0.0000E+00  0.0000E+00  0.0000E+00  0.0000E+00  0.0000E+00  0.0000E+00  0.0000E+00
    -48.277  0.0000E+00  0.0000E+00  0.0000E+00  0.0000E+00  0.0000E+00  0.0000E+00  0.0000E+00  0.0000E+00  0.0000E+00  0.0000E+00  0.0000E+00  0.0000E+00  0.0000E+00  0.0000E+00  0.0000E+00  0.0000E+00  0.0000E+00  0.0000E+00
    -48.064  0.0000E+00  0.0000E+00  0.0000E+00  0.0000E+00  0.0000E+00  0.0000E+00  0.0000E+00  0.0000E+00  0.0000E+00  0.0000E+00  0.0000E+00  0.0000E+00  0.0000E+00  0.0000E+00  0.0000E+00  0.0000E+00  0.0000E+00  0.0000E+00
    -47.850  0.0000E+00  0.0000E+00  0.0000E+00  0.0000E+00  0.0000E+00  0.0000E+00  0.0000E+00  0.0000E+00  0.0000E+00  0.0000E+00  0.0000E+00  0.0000E+00  0.0000E+00  0.0000E+00  0.0000E+00  0.0000E+00  0.0000E+00  0.0000E+00
    -47.637  0.0000E+00  0.0000E+00  0.0000E+00  0.0000E+00  0.0000E+00  0.0000E+00  0.0000E+00  0.0000E+00  0.0000E+00  0.0000E+00  0.0000E+00  0.0000E+00  0.0000E+00  0.0000E+00  0.0000E+00  0.0000E+00  0.0000E+00  0.0000E+00
    -47.424  0.0000E+00  0.0000E+00  0.0000E+00  0.0000E+00  0.0000E+00  0.0000E+00  0.0000E+00  0.0000E+00  0.0000E+00  0.0000E+00  0.0000E+00  0.0000E+00  0.0000E+00  0.0000E+00  0.0000E+00  0.0000E+00  0.0000E+00  0.0000E+00
    -47.211  0.0000E+00  0.0000E+00  0.0000E+00  0.0000E+00  0.0000E+00  0.0000E+00  0.0000E+00  0.0000E+00  0.0000E+00  0.0000E+00  0.0000E+00  0.0000E+00  0.0000E+00  0.0000E+00  0.0000E+00  0.0000E+00  0.0000E+00  0.0000E+00
    -46.998  0.0000E+00  0.0000E+00  0.0000E+00  0.0000E+00  0.0000E+00  0.0000E+00  0.0000E+00  0.0000E+00  0.0000E+00  0.0000E+00  0.0000E+00  0.0000E+00  0.0000E+00  0.0000E+00  0.0000E+00  0.0000E+00  0.0000E+00  0.0000E+00
    -46.785  0.0000E+00  0.0000E+00  0.0000E+00  0.0000E+00  0.0000E+00  0.0000E+00  0.0000E+00  0.0000E+00  0.0000E+00  0.0000E+00  0.0000E+00  0.0000E+00  0.0000E+00  0.0000E+00  0.0000E+00  0.0000E+00  0.0000E+00  0.0000E+00
    -46.571  0.4372E-04  0.4003E-04  0.5063E-12  0.4593E-12  0.5063E-12  0.4593E-12  0.5063E-12  0.4593E-12  0.0000E+00  0.0000E+00  0.0000E+00  0.0000E+00  0.0000E+00  0.0000E+00  0.0000E+00  0.0000E+00  0.0000E+00  0.0000E+00
    -46.358  0.3059E-02  0.2801E-02  0.3543E-10  0.3214E-10  0.3543E-10  0.3214E-10  0.3543E-10  0.3214E-10  0.0000E+00  0.0000E+00  0.0000E+00  0.0000E+00  0.0000E+00  0.0000E+00  0.0000E+00  0.0000E+00  0.0000E+00  0.0000E+00
    -46.145  0.2073E+00  0.1906E+00  0.2408E-08  0.2193E-08  0.2408E-08  0.2193E-08  0.2408E-08  0.2193E-08  0.0000E+00  0.0000E+00  0.0000E+00  0.0000E+00  0.0000E+00  0.0000E+00  0.0000E+00  0.0000E+00  0.0000E+00  0.0000E+00
    -45.932  0.3363E+01  0.3306E+01  0.4136E-07  0.4013E-07  0.4136E-07  0.4013E-07  0.4136E-07  0.4013E-07  0.0000E+00  0.0000E+00  0.0000E+00  0.0000E+00  0.0000E+00  0.0000E+00  0.0000E+00  0.0000E+00  0.0000E+00  0.0000E+00
    -45.719  0.1049E+01  0.1122E+01  0.1390E-07  0.1462E-07  0.1390E-07  0.1462E-07  0.1390E-07  0.1462E-07  0.0000E+00  0.0000E+00  0.0000E+00  0.0000E+00  0.0000E+00  0.0000E+00  0.0000E+00  0.0000E+00  0.0000E+00  0.0000E+00
    -45.506  0.0000E+00  0.0000E+00  0.0000E+00  0.0000E+00  0.0000E+00  0.0000E+00  0.0000E+00  0.0000E+00  0.0000E+00  0.0000E+00  0.0000E+00  0.0000E+00  0.0000E+00  0.0000E+00  0.0000E+00  0.0000E+00  0.0000E+00  0.0000E+00
    -45.293  0.0000E+00  0.0000E+00  0.0000E+00  0.0000E+00  0.0000E+00  0.0000E+00  0.0000E+00  0.0000E+00  0.0000E+00  0.0000E+00  0.0000E+00  0.0000E+00  0.0000E+00  0.0000E+00  0.0000E+00  0.0000E+00  0.0000E+00  0.0000E+00
    -45.079  0.0000E+00  0.0000E+00  0.0000E+00  0.0000E+00  0.0000E+00  0.0000E+00  0.0000E+00  0.0000E+00  0.0000E+00  0.0000E+00  0.0000E+00  0.0000E+00  0.0000E+00  0.0000E+00  0.0000E+00  0.0000E+00  0.0000E+00  0.0000E+00
    -44.866  0.0000E+00  0.0000E+00  0.0000E+00  0.0000E+00  0.0000E+00  0.0000E+00  0.0000E+00  0.0000E+00  0.0000E+00  0.0000E+00  0.0000E+00  0.0000E+00  0.0000E+00  0.0000E+00  0.0000E+00  0.0000E+00  0.0000E+00  0.0000E+00
    -44.653  0.0000E+00  0.0000E+00  0.0000E+00  0.0000E+00  0.0000E+00  0.0000E+00  0.0000E+00  0.0000E+00  0.0000E+00  0.0000E+00  0.0000E+00  0.0000E+00  0.0000E+00  0.0000E+00  0.0000E+00  0.0000E+00  0.0000E+00  0.0000E+00
    -44.440  0.0000E+00  0.0000E+00  0.0000E+00  0.0000E+00  0.0000E+00  0.0000E+00  0.0000E+00  0.0000E+00  0.0000E+00  0.0000E+00  0.0000E+00  0.0000E+00  0.0000E+00  0.0000E+00  0.0000E+00  0.0000E+00  0.0000E+00  0.0000E+00
    -44.227  0.0000E+00  0.0000E+00  0.0000E+00  0.0000E+00  0.0000E+00  0.0000E+00  0.0000E+00  0.0000E+00  0.0000E+00  0.0000E+00  0.0000E+00  0.0000E+00  0.0000E+00  0.0000E+00  0.0000E+00  0.0000E+00  0.0000E+00  0.0000E+00
    -44.014  0.0000E+00  0.0000E+00  0.0000E+00  0.0000E+00  0.0000E+00  0.0000E+00  0.0000E+00  0.0000E+00  0.0000E+00  0.0000E+00  0.0000E+00  0.0000E+00  0.0000E+00  0.0000E+00  0.0000E+00  0.0000E+00  0.0000E+00  0.0000E+00
    -43.801  0.0000E+00  0.0000E+00  0.0000E+00  0.0000E+00  0.0000E+00  0.0000E+00  0.0000E+00  0.0000E+00  0.0000E+00  0.0000E+00  0.0000E+00  0.0000E+00  0.0000E+00  0.0000E+00  0.0000E+00  0.0000E+00  0.0000E+00  0.0000E+00
    -43.587  0.0000E+00  0.0000E+00  0.0000E+00  0.0000E+00  0.0000E+00  0.0000E+00  0.0000E+00  0.0000E+00  0.0000E+00  0.0000E+00  0.0000E+00  0.0000E+00  0.0000E+00  0.0000E+00  0.0000E+00  0.0000E+00  0.0000E+00  0.0000E+00
    -43.374  0.0000E+00  0.0000E+00  0.0000E+00  0.0000E+00  0.0000E+00  0.0000E+00  0.0000E+00  0.0000E+00  0.0000E+00  0.0000E+00  0.0000E+00  0.0000E+00  0.0000E+00  0.0000E+00  0.0000E+00  0.0000E+00  0.0000E+00  0.0000E+00
    -43.161  0.0000E+00  0.0000E+00  0.0000E+00  0.0000E+00  0.0000E+00  0.0000E+00  0.0000E+00  0.0000E+00  0.0000E+00  0.0000E+00  0.0000E+00  0.0000E+00  0.0000E+00  0.0000E+00  0.0000E+00  0.0000E+00  0.0000E+00  0.0000E+00
    -42.948  0.0000E+00  0.0000E+00  0.0000E+00  0.0000E+00  0.0000E+00  0.0000E+00  0.0000E+00  0.0000E+00  0.0000E+00  0.0000E+00  0.0000E+00  0.0000E+00  0.0000E+00  0.0000E+00  0.0000E+00  0.0000E+00  0.0000E+00  0.0000E+00
    -42.735  0.0000E+00  0.0000E+00  0.0000E+00  0.0000E+00  0.0000E+00  0.0000E+00  0.0000E+00  0.0000E+00  0.0000E+00  0.0000E+00  0.0000E+00  0.0000E+00  0.0000E+00  0.0000E+00  0.0000E+00  0.0000E+00  0.0000E+00  0.0000E+00
    -42.522  0.0000E+00  0.0000E+00  0.0000E+00  0.0000E+00  0.0000E+00  0.0000E+00  0.0000E+00  0.0000E+00  0.0000E+00  0.0000E+00  0.0000E+00  0.0000E+00  0.0000E+00  0.0000E+00  0.0000E+00  0.0000E+00  0.0000E+00  0.0000E+00
    -42.309  0.0000E+00  0.0000E+00  0.0000E+00  0.0000E+00  0.0000E+00  0.0000E+00  0.0000E+00  0.0000E+00  0.0000E+00  0.0000E+00  0.0000E+00  0.0000E+00  0.0000E+00  0.0000E+00  0.0000E+00  0.0000E+00  0.0000E+00  0.0000E+00
    -42.095  0.0000E+00  0.0000E+00  0.0000E+00  0.0000E+00  0.0000E+00  0.0000E+00  0.0000E+00  0.0000E+00  0.0000E+00  0.0000E+00  0.0000E+00  0.0000E+00  0.0000E+00  0.0000E+00  0.0000E+00  0.0000E+00  0.0000E+00  0.0000E+00
    -41.882  0.0000E+00  0.0000E+00  0.0000E+00  0.0000E+00  0.0000E+00  0.0000E+00  0.0000E+00  0.0000E+00  0.0000E+00  0.0000E+00  0.0000E+00  0.0000E+00  0.0000E+00  0.0000E+00  0.0000E+00  0.0000E+00  0.0000E+00  0.0000E+00
    -41.669  0.0000E+00  0.0000E+00  0.0000E+00  0.0000E+00  0.0000E+00  0.0000E+00  0.0000E+00  0.0000E+00  0.0000E+00  0.0000E+00  0.0000E+00  0.0000E+00  0.0000E+00  0.0000E+00  0.0000E+00  0.0000E+00  0.0000E+00  0.0000E+00
    -41.456  0.0000E+00  0.0000E+00  0.0000E+00  0.0000E+00  0.0000E+00  0.0000E+00  0.0000E+00  0.0000E+00  0.0000E+00  0.0000E+00  0.0000E+00  0.0000E+00  0.0000E+00  0.0000E+00  0.0000E+00  0.0000E+00  0.0000E+00  0.0000E+00
    -41.243  0.0000E+00  0.0000E+00  0.0000E+00  0.0000E+00  0.0000E+00  0.0000E+00  0.0000E+00  0.0000E+00  0.0000E+00  0.0000E+00  0.0000E+00  0.0000E+00  0.0000E+00  0.0000E+00  0.0000E+00  0.0000E+00  0.0000E+00  0.0000E+00
    -41.030  0.0000E+00  0.0000E+00  0.0000E+00  0.0000E+00  0.0000E+00  0.0000E+00  0.0000E+00  0.0000E+00  0.0000E+00  0.0000E+00  0.0000E+00  0.0000E+00  0.0000E+00  0.0000E+00  0.0000E+00  0.0000E+00  0.0000E+00  0.0000E+00
    -40.816  0.0000E+00  0.0000E+00  0.0000E+00  0.0000E+00  0.0000E+00  0.0000E+00  0.0000E+00  0.0000E+00  0.0000E+00  0.0000E+00  0.0000E+00  0.0000E+00  0.0000E+00  0.0000E+00  0.0000E+00  0.0000E+00  0.0000E+00  0.0000E+00
    -40.603  0.0000E+00  0.0000E+00  0.0000E+00  0.0000E+00  0.0000E+00  0.0000E+00  0.0000E+00  0.0000E+00  0.0000E+00  0.0000E+00  0.0000E+00  0.0000E+00  0.0000E+00  0.0000E+00  0.0000E+00  0.0000E+00  0.0000E+00  0.0000E+00
    -40.390  0.0000E+00  0.0000E+00  0.0000E+00  0.0000E+00  0.0000E+00  0.0000E+00  0.0000E+00  0.0000E+00  0.0000E+00  0.0000E+00  0.0000E+00  0.0000E+00  0.0000E+00  0.0000E+00  0.0000E+00  0.0000E+00  0.0000E+00  0.0000E+00
    -40.177  0.0000E+00  0.0000E+00  0.0000E+00  0.0000E+00  0.0000E+00  0.0000E+00  0.0000E+00  0.0000E+00  0.0000E+00  0.0000E+00  0.0000E+00  0.0000E+00  0.0000E+00  0.0000E+00  0.0000E+00  0.0000E+00  0.0000E+00  0.0000E+00
    -39.964  0.0000E+00  0.0000E+00  0.0000E+00  0.0000E+00  0.0000E+00  0.0000E+00  0.0000E+00  0.0000E+00  0.0000E+00  0.0000E+00  0.0000E+00  0.0000E+00  0.0000E+00  0.0000E+00  0.0000E+00  0.0000E+00  0.0000E+00  0.0000E+00
    -39.751  0.0000E+00  0.0000E+00  0.0000E+00  0.0000E+00  0.0000E+00  0.0000E+00  0.0000E+00  0.0000E+00  0.0000E+00  0.0000E+00  0.0000E+00  0.0000E+00  0.0000E+00  0.0000E+00  0.0000E+00  0.0000E+00  0.0000E+00  0.0000E+00
    -39.538  0.0000E+00  0.0000E+00  0.0000E+00  0.0000E+00  0.0000E+00  0.0000E+00  0.0000E+00  0.0000E+00  0.0000E+00  0.0000E+00  0.0000E+00  0.0000E+00  0.0000E+00  0.0000E+00  0.0000E+00  0.0000E+00  0.0000E+00  0.0000E+00
    -39.324  0.0000E+00  0.0000E+00  0.0000E+00  0.0000E+00  0.0000E+00  0.0000E+00  0.0000E+00  0.0000E+00  0.0000E+00  0.0000E+00  0.0000E+00  0.0000E+00  0.0000E+00  0.0000E+00  0.0000E+00  0.0000E+00  0.0000E+00  0.0000E+00
    -39.111  0.0000E+00  0.0000E+00  0.0000E+00  0.0000E+00  0.0000E+00  0.0000E+00  0.0000E+00  0.0000E+00  0.0000E+00  0.0000E+00  0.0000E+00  0.0000E+00  0.0000E+00  0.0000E+00  0.0000E+00  0.0000E+00  0.0000E+00  0.0000E+00
    -38.898  0.0000E+00  0.0000E+00  0.0000E+00  0.0000E+00  0.0000E+00  0.0000E+00  0.0000E+00  0.0000E+00  0.0000E+00  0.0000E+00  0.0000E+00  0.0000E+00  0.0000E+00  0.0000E+00  0.0000E+00  0.0000E+00  0.0000E+00  0.0000E+00
    -38.685  0.0000E+00  0.0000E+00  0.0000E+00  0.0000E+00  0.0000E+00  0.0000E+00  0.0000E+00  0.0000E+00  0.0000E+00  0.0000E+00  0.0000E+00  0.0000E+00  0.0000E+00  0.0000E+00  0.0000E+00  0.0000E+00  0.0000E+00  0.0000E+00
    -38.472  0.0000E+00  0.0000E+00  0.0000E+00  0.0000E+00  0.0000E+00  0.0000E+00  0.0000E+00  0.0000E+00  0.0000E+00  0.0000E+00  0.0000E+00  0.0000E+00  0.0000E+00  0.0000E+00  0.0000E+00  0.0000E+00  0.0000E+00  0.0000E+00
    -38.259  0.0000E+00  0.0000E+00  0.0000E+00  0.0000E+00  0.0000E+00  0.0000E+00  0.0000E+00  0.0000E+00  0.0000E+00  0.0000E+00  0.0000E+00  0.0000E+00  0.0000E+00  0.0000E+00  0.0000E+00  0.0000E+00  0.0000E+00  0.0000E+00