   2   2   1   0
  0.2534627E+02  0.3700962E-09  0.3700962E-09  0.3700962E-09  0.5000000E-15
  1.000000000000000E-004
  CAR 
 unknown system                          
     12.99026417    -49.72437359  301      0.08210300      1.00000000
    -49.724  0.0000E+00  0.0000E+00  0.0000E+00  0.0000E+00
    -49.515  0.0000E+00  0.0000E+00  0.0000E+00  0.0000E+00
    -49.306  0.0000E+00  0.0000E+00  0.0000E+00  0.0000E+00
    -49.097  0.0000E+00  0.0000E+00  0.0000E+00  0.0000E+00
    -48.888  0.0000E+00  0.0000E+00  0.0000E+00  0.0000E+00
    -48.679  0.0000E+00  0.0000E+00  0.0000E+00  0.0000E+00
    -48.470  0.0000E+00  0.0000E+00  0.0000E+00  0.0000E+00
    -48.261  0.0000E+00  0.0000E+00  0.0000E+00  0.0000E+00
    -48.052  0.0000E+00  0.0000E+00  0.0000E+00  0.0000E+00
    -47.843  0.0000E+00  0.0000E+00  0.0000E+00  0.0000E+00
    -47.634  0.0000E+00  0.0000E+00  0.0000E+00  0.0000E+00
    -47.425  0.1350E-03  0.1248E-03  0.2822E-04  0.2609E-04
    -47.216  0.8688E-02  0.8033E-02  0.1845E-02  0.1705E-02
    -47.007  0.5360E+00  0.4977E+00  0.1139E+00  0.1058E+00
    -46.798  0.7088E+01  0.7003E+01  0.1596E+01  0.1570E+01
    -46.589  0.1898E+01  0.2019E+01  0.1992E+01  0.1992E+01
    -46.380  0.0000E+00  0.0000E+00  0.2000E+01  0.2000E+01
    -46.171  0.0000E+00  0.0000E+00  0.2000E+01  0.2000E+01
    -45.961  0.0000E+00  0.0000E+00  0.2000E+01  0.2000E+01
    -45.752  0.0000E+00  0.0000E+00  0.2000E+01  0.2000E+01
    -45.543  0.0000E+00  0.0000E+00  0.2000E+01  0.2000E+01
    -45.334  0.0000E+00  0.0000E+00  0.2000E+01  0.2000E+01
    -45.125  0.0000E+00  0.0000E+00  0.2000E+01  0.2000E+01
    -44.916  0.0000E+00  0.0000E+00  0.2000E+01  0.2000E+01
    -44.707  0.0000E+00  0.0000E+00  0.2000E+01  0.2000E+01
    -44.498  0.0000E+00  0.0000E+00  0.2000E+01  0.2000E+01
    -44.289  0.0000E+00  0.0000E+00  0.2000E+01  0.2000E+01
    -44.080  0.0000E+00  0.0000E+00  0.2000E+01  0.2000E+01
    -43.871  0.0000E+00  0.0000E+00  0.2000E+01  0.2000E+01
    -43.662  0.0000E+00  0.0000E+00  0.2000E+01  0.2000E+01
    -43.453  0.0000E+00  0.0000E+00  0.2000E+01  0.2000E+01
    -43.244  0.0000E+00  0.0000E+00  0.2000E+01  0.2000E+01
    -43.035  0.0000E+00  0.0000E+00  0.2000E+01  0.2000E+01
    -42.826  0.0000E+00  0.0000E+00  0.2000E+01  0.2000E+01
    -42.617  0.0000E+00  0.0000E+00  0.2000E+01  0.2000E+01
    -42.408  0.0000E+00  0.0000E+00  0.2000E+01  0.2000E+01
    -42.199  0.0000E+00  0.0000E+00  0.2000E+01  0.2000E+01
    -41.990  0.0000E+00  0.0000E+00  0.2000E+01  0.2000E+01
    -41.781  0.0000E+00  0.0000E+00  0.2000E+01  0.2000E+01
    -41.571  0.0000E+00  0.0000E+00  0.2000E+01  0.2000E+01
    -41.362  0.0000E+00  0.0000E+00  0.2000E+01  0.2000E+01
    -41.153  0.0000E+00  0.0000E+00  0.2000E+01  0.2000E+01
    -40.944  0.0000E+00  0.0000E+00  0.2000E+01  0.2000E+01
    -40.735  0.0000E+00  0.0000E+00  0.2000E+01  0.2000E+01
    -40.526  0.0000E+00  0.0000E+00  0.2000E+01  0.2000E+01
    -40.317  0.0000E+00  0.0000E+00  0.2000E+01  0.2000E+01
    -40.108  0.0000E+00  0.0000E+00  0.2000E+01  0.2000E+01
    -39.899  0.0000E+00  0.0000E+00  0.2000E+01  0.2000E+01
    -39.690  0.0000E+00  0.0000E+00  0.2000E+01  0.2000E+01
    -39.481  0.0000E+00  0.0000E+00  0.2000E+01  0.2000E+01
    -39.272  0.0000E+00  0.0000E+00  0.2000E+01  0.2000E+01
    -39.063  0.0000E+00  0.0000E+00  0.2000E+01  0.2000E+01
    -38.854  0.0000E+00  0.0000E+00  0.2000E+01  0.2000E+01
    -38.645  0.0000E+00  0.0000E+00  0.2000E+01  0.2000E+01
    -38.436  0.0000E+00  0.0000E+00  0.2000E+01  0.2000E+01
    -38.227  0.0000E+00  0.0000E+00  0.2000E+01  0.2000E+01
    -38.018  0.0000E+00  0.0000E+00  0.2000E+01  0.2000E+01
    -37.809  0.0000E+00  0.0000E+00  0.2000E+01  0.2000E+01
    -37.600  0.0000E+00  0.0000E+00  0.2000E+01  0.2000E+01
    -37.390  0.0000E+00  0.0000E+00  0.2000E+01  0.2000E+01
    -37.181  0.0000E+00  0.0000E+00  0.2000E+01  0.2000E+01
    -36.972  0.0000E+00  0.0000E+00  0.2000E+01  0.2000E+01
    -36.763  0.0000E+00  0.0000E+00  0.2000E+01  0.2000E+01
    -36.554  0.0000E+00  0.0000E+00  0.2000E+01  0.2000E+01
    -36.345  0.0000E+00  0.0000E+00  0.2000E+01  0.2000E+01
    -36.136  0.0000E+00  0.0000E+00  0.2000E+01  0.2000E+01
    -35.927  0.0000E+00  0.0000E+00  0.2000E+01  0.2000E+01
    -35.718  0.0000E+00  0.0000E+00  0.2000E+01  0.2000E+01
    -35.509  0.0000E+00  0.0000E+00  0.2000E+01  0.2000E+01
    -35.300  0.0000E+00  0.0000E+00  0.2000E+01  0.2000E+01
    -35.091  0.0000E+00  0.0000E+00  0.2000E+01  0.2000E+01
    -34.882  0.0000E+00  0.0000E+00  0.2000E+01  0.2000E+01
    -34.673  0.0000E+00  0.0000E+00  0.2000E+01  0.2000E+01
    -34.464  0.0000E+00  0.0000E+00  0.2000E+01  0.2000E+01
    -34.255  0.0000E+00  0.0000E+00  0.2000E+01  0.2000E+01
    -34.046  0.0000E+00  0.0000E+00  0.2000E+01  0.2000E+01
    -33.837  0.0000E+00  0.0000E+00  0.2000E+01  0.2000E+01
    -33.628  0.0000E+00  0.0000E+00  0.2000E+01  0.2000E+01
    -33.419  0.0000E+00  0.0000E+00  0.2000E+01  0.2000E+01
    -33.210  0.0000E+00  0.0000E+00  0.2000E+01  0.2000E+01
    -33.000  0.0000E+00  0.0000E+00  0.2000E+01  0.2000E+01
    -32.791  0.0000E+00  0.0000E+00  0.2000E+01  0.2000E+01
    -32.582  0.0000E+00  0.0000E+00  0.2000E+01  0.2000E+01
    -32.373  0.0000E+00  0.0000E+00  0.2000E+01  0.2000E+01
    -32.164  0.0000E+00  0.0000E+00  0.2000E+01  0.2000E+01
    -31.955  0.0000E+00  0.0000E+00  0.2000E+01  0.2000E+01
    -31.746  0.0000E+00  0.0000E+00  0.2000E+01  0.2000E+01
    -31.537  0.0000E+00  0.0000E+00  0.2000E+01  0.2000E+01
    -31.328  0.0000E+00  0.0000E+00  0.2000E+01  0.2000E+01
    -31.119  0.0000E+00  0.0000E+00  0.2000E+01  0.2000E+01
    -30.910  0.0000E+00  0.0000E+00  0.2000E+01  0.2000E+01
    -30.701  0.0000E+00  0.0000E+00  0.2000E+01  0.2000E+01
    -30.492  0.0000E+00  0.0000E+00  0.2000E+01  0.2000E+01
    -30.283  0.0000E+00  0.0000E+00  0.2000E+01  0.2000E+01
    -30.074  0.0000E+00  0.0000E+00  0.2000E+01  0.2000E+01
    -29.865  0.0000E+00  0.0000E+00  0.2000E+01  0.2000E+01
    -29.656  0.0000E+00  0.0000E+00  0.2000E+01  0.2000E+01
    -29.447  0.0000E+00  0.0000E+00  0.2000E+01  0.2000E+01
    -29.238  0.0000E+00  0.0000E+00  0.2000E+01  0.2000E+01
    -29.029  0.0000E+00  0.0000E+00  0.2000E+01  0.2000E+01
    -28.819  0.0000E+00  0.0000E+00  0.2000E+01  0.2000E+01
    -28.610  0.0000E+00  0.0000E+00  0.2000E+01  0.2000E+01
    -28.401  0.0000E+00  0.0000E+00  0.2000E+01  0.2000E+01
    -28.192  0.0000E+00  0.0000E+00  0.2000E+01  0.2000E+01
    -27.983  0.0000E+00  0.0000E+00  0.2000E+01  0.2000E+01
    -27.774  0.0000E+00  0.0000E+00  0.2000E+01  0.2000E+01
    -27.565  0.0000E+00  0.0000E+00  0.2000E+01  0.2000E+01
    -27.356  0.0000E+00  0.0000E+00  0.2000E+01  0.2000E+01
    -27.147  0.0000E+00  0.0000E+00  0.2000E+01  0.2000E+01
    -26.938  0.0000E+00  0.0000E+00  0.2000E+01  0.2000E+01
    -26.729  0.0000E+00  0.0000E+00  0.2000E+01  0.2000E+01
    -26.520  0.0000E+00  0.0000E+00  0.2000E+01  0.2000E+01
    -26.311  0.0000E+00  0.0000E+00  0.2000E+01  0.2000E+01
    -26.102  0.0000E+00  0.0000E+00  0.2000E+01  0.2000E+01
    -25.893  0.0000E+00  0.0000E+00  0.2000E+01  0.2000E+01
    -25.684  0.0000E+00  0.0000E+00  0.2000E+01  0.2000E+01
    -25.475  0.0000E+00  0.0000E+00  0.2000E+01  0.2000E+01
    -25.266  0.0000E+00  0.0000E+00  0.2000E+01  0.2000E+01
    -25.057  0.0000E+00  0.0000E+00  0.2000E+01  0.2000E+01
    -24.848  0.0000E+00  0.0000E+00  0.2000E+01  0.2000E+01
    -24.639  0.0000E+00  0.0000E+00  0.2000E+01  0.2000E+01
    -24.429  0.0000E+00  0.0000E+00  0.2000E+01  0.2000E+01
    -24.220  0.0000E+00  0.0000E+00  0.2000E+01  0.2000E+01
    -24.011  0.0000E+00  0.0000E+00  0.2000E+01  0.2000E+01
    -23.802  0.0000E+00  0.0000E+00  0.2000E+01  0.2000E+01
    -23.593  0.0000E+00  0.0000E+00  0.2000E+01  0.2000E+01
    -23.384  0.0000E+00  0.0000E+00  0.2000E+01  0.2000E+01
    -23.175  0.0000E+00  0.0000E+00  0.2000E+01  0.2000E+01
    -22.966  0.0000E+00  0.0000E+00  0.2000E+01  0.2000E+01
    -22.757  0.0000E+00  0.0000E+00  0.2000E+01  0.2000E+01
    -22.548  0.0000E+00  0.0000E+00  0.2000E+01  0.2000E+01
    -22.339  0.0000E+00  0.0000E+00  0.2000E+01  0.2000E+01
    -22.130  0.0000E+00  0.0000E+00  0.2000E+01  0.2000E+01
    -21.921  0.0000E+00  0.0000E+00  0.2000E+01  0.2000E+01
    -21.712  0.0000E+00  0.0000E+00  0.2000E+01  0.2000E+01
    -21.503  0.0000E+00  0.0000E+00  0.2000E+01  0.2000E+01
    -21.294  0.0000E+00  0.0000E+00  0.2000E+01  0.2000E+01
    -21.085  0.0000E+00  0.0000E+00  0.2000E+01  0.2000E+01
    -20.876  0.0000E+00  0.0000E+00  0.2000E+01  0.2000E+01
    -20.667  0.0000E+00  0.0000E+00  0.2000E+01  0.2000E+01
    -20.458  0.0000E+00  0.0000E+00  0.2000E+01  0.2000E+01
    -20.248  0.0000E+00  0.0000E+00  0.2000E+01  0.2000E+01
    -20.039  0.0000E+00  0.0000E+00  0.2000E+01  0.2000E+01
    -19.830  0.0000E+00  0.0000E+00  0.2000E+01  0.2000E+01
    -19.621  0.0000E+00  0.0000E+00  0.2000E+01  0.2000E+01
    -19.412  0.0000E+00  0.0000E+00  0.2000E+01  0.2000E+01
    -19.203  0.0000E+00  0.0000E+00  0.2000E+01  0.2000E+01
    -18.994  0.0000E+00  0.0000E+00  0.2000E+01  0.2000E+01
    -18.785  0.0000E+00  0.0000E+00  0.2000E+01  0.2000E+01
    -18.576  0.0000E+00  0.0000E+00  0.2000E+01  0.2000E+01
    -18.367  0.0000E+00  0.0000E+00  0.2000E+01  0.2000E+01
    -18.158  0.0000E+00  0.0000E+00  0.2000E+01  0.2000E+01
    -17.949  0.0000E+00  0.0000E+00  0.2000E+01  0.2000E+01
    -17.740  0.0000E+00  0.0000E+00  0.2000E+01  0.2000E+01
    -17.531  0.0000E+00  0.0000E+00  0.2000E+01  0.2000E+01
    -17.322  0.0000E+00  0.0000E+00  0.2000E+01  0.2000E+01
    -17.113  0.0000E+00  0.0000E+00  0.2000E+01  0.2000E+01
    -16.904  0.0000E+00  0.0000E+00  0.2000E+01  0.2000E+01
    -16.695  0.0000E+00  0.0000E+00  0.2000E+01  0.2000E+01
    -16.486  0.0000E+00  0.0000E+00  0.2000E+01  0.2000E+01
    -16.277  0.0000E+00  0.0000E+00  0.2000E+01  0.2000E+01
    -16.068  0.0000E+00  0.0000E+00  0.2000E+01  0.2000E+01
    -15.858  0.0000E+00  0.0000E+00  0.2000E+01  0.2000E+01
    -15.649  0.0000E+00  0.0000E+00  0.2000E+01  0.2000E+01
    -15.440  0.0000E+00  0.0000E+00  0.2000E+01  0.2000E+01
    -15.231  0.0000E+00  0.0000E+00  0.2000E+01  0.2000E+01
    -15.022  0.0000E+00  0.0000E+00  0.2000E+01  0.2000E+01
    -14.813  0.0000E+00  0.0000E+00  0.2000E+01  0.2000E+01
    -14.604  0.0000E+00  0.0000E+00  0.2000E+01  0.2000E+01
    -14.395  0.0000E+00  0.0000E+00  0.2000E+01  0.2000E+01
    -14.186  0.0000E+00  0.0000E+00  0.2000E+01  0.2000E+01
    -13.977  0.0000E+00  0.0000E+00  0.2000E+01  0.2000E+01
    -13.768  0.0000E+00  0.0000E+00  0.2000E+01  0.2000E+01
    -13.559  0.0000E+00  0.0000E+00  0.2000E+01  0.2000E+01
    -13.350  0.0000E+00  0.0000E+00  0.2000E+01  0.2000E+01
    -13.141  0.0000E+00  0.0000E+00  0.2000E+01  0.2000E+01
    -12.932  0.0000E+00  0.0000E+00  0.2000E+01  0.2000E+01
    -12.723  0.0000E+00  0.0000E+00  0.2000E+01  0.2000E+01
    -12.514  0.0000E+00  0.0000E+00  0.2000E+01  0.2000E+01
    -12.305  0.0000E+00  0.0000E+00  0.2000E+01  0.2000E+01
    -12.096  0.0000E+00  0.0000E+00  0.2000E+01  0.2000E+01
    -11.887  0.0000E+00  0.0000E+00  0.2000E+01  0.2000E+01
    -11.677  0.0000E+00  0.0000E+00  0.2000E+01  0.2000E+01
    -11.468  0.0000E+00  0.0000E+00  0.2000E+01  0.2000E+01
    -11.259  0.0000E+00  0.0000E+00  0.2000E+01  0.2000E+01
    -11.050  0.0000E+00  0.0000E+00  0.2000E+01  0.2000E+01
    -10.841  0.0000E+00  0.0000E+00  0.2000E+01  0.2000E+01
    -10.632  0.0000E+00  0.0000E+00  0.2000E+01  0.2000E+01
    -10.423  0.0000E+00  0.0000E+00  0.2000E+01  0.2000E+01
    -10.214  0.0000E+00  0.0000E+00  0.2000E+01  0.2000E+01
    -10.005  0.0000E+00  0.0000E+00  0.2000E+01  0.2000E+01
     -9.796  0.0000E+00  0.0000E+00  0.2000E+01  0.2000E+01
     -9.587  0.0000E+00  0.0000E+00  0.2000E+01  0.2000E+01
     -9.378  0.0000E+00  0.0000E+00  0.2000E+01  0.2000E+01
     -9.169  0.0000E+00  0.0000E+00  0.2000E+01  0.2000E+01
     -8.960  0.0000E+00  0.0000E+00  0.2000E+01  0.2000E+01
     -8.751  0.0000E+00  0.0000E+00  0.2000E+01  0.2000E+01
     -8.542  0.0000E+00  0.0000E+00  0.2000E+01  0.2000E+01
     -8.333  0.0000E+00  0.0000E+00  0.2000E+01  0.2000E+01
     -8.124  0.0000E+00  0.0000E+00  0.2000E+01  0.2000E+01
     -7.915  0.0000E+00  0.0000E+00  0.2000E+01  0.2000E+01
     -7.706  0.0000E+00  0.0000E+00  0.2000E+01  0.2000E+01
     -7.497  0.0000E+00  0.0000E+00  0.2000E+01  0.2000E+01
     -7.287  0.0000E+00  0.0000E+00  0.2000E+01  0.2000E+01
     -7.078  0.0000E+00  0.0000E+00  0.2000E+01  0.2000E+01
     -6.869  0.0000E+00  0.0000E+00  0.2000E+01  0.2000E+01
     -6.660  0.0000E+00  0.0000E+00  0.2000E+01  0.2000E+01
     -6.451  0.0000E+00  0.0000E+00  0.2000E+01  0.2000E+01
     -6.242  0.0000E+00  0.0000E+00  0.2000E+01  0.2000E+01
     -6.033  0.0000E+00  0.0000E+00  0.2000E+01  0.2000E+01
     -5.824  0.0000E+00  0.0000E+00  0.2000E+01  0.2000E+01
     -5.615  0.0000E+00  0.0000E+00  0.2000E+01  0.2000E+01
     -5.406  0.0000E+00  0.0000E+00  0.2000E+01  0.2000E+01
     -5.197  0.0000E+00  0.0000E+00  0.2000E+01  0.2000E+01
     -4.988  0.0000E+00  0.0000E+00  0.2000E+01  0.2000E+01
     -4.779  0.0000E+00  0.0000E+00  0.2000E+01  0.2000E+01
     -4.570  0.0000E+00  0.0000E+00  0.2000E+01  0.2000E+01
     -4.361  0.0000E+00  0.0000E+00  0.2000E+01  0.2000E+01
     -4.152  0.0000E+00  0.0000E+00  0.2000E+01  0.2000E+01
     -3.943  0.0000E+00  0.0000E+00  0.2000E+01  0.2000E+01
     -3.734  0.1610E-06  0.1544E-06  0.2000E+01  0.2000E+01
     -3.525  0.1754E-04  0.1683E-04  0.2000E+01  0.2000E+01
     -3.316  0.1113E-02  0.1069E-02  0.2000E+01  0.2000E+01
     -3.106  0.2997E-01  0.2934E-01  0.2007E+01  0.2006E+01
     -2.897  0.1066E+00  0.1059E+00  0.2029E+01  0.2029E+01
     -2.688  0.1531E+00  0.1526E+00  0.2061E+01  0.2061E+01
     -2.479  0.1930E+00  0.1928E+00  0.2102E+01  0.2101E+01
     -2.270  0.2189E+00  0.2182E+00  0.2148E+01  0.2147E+01
     -2.061  0.2560E+00  0.2564E+00  0.2201E+01  0.2201E+01
     -1.852  0.2598E+00  0.2586E+00  0.2256E+01  0.2255E+01
     -1.643  0.3203E+00  0.3208E+00  0.2323E+01  0.2323E+01
     -1.434  0.2954E+00  0.2947E+00  0.2385E+01  0.2385E+01
     -1.225  0.3307E+00  0.3307E+00  0.2455E+01  0.2454E+01
     -1.016  0.4004E+00  0.3999E+00  0.2539E+01  0.2538E+01
     -0.807  0.3488E+00  0.3498E+00  0.2612E+01  0.2612E+01
     -0.598  0.3856E+00  0.3835E+00  0.2693E+01  0.2692E+01
     -0.389  0.4689E+00  0.4695E+00  0.2792E+01  0.2791E+01
     -0.180  0.4380E+00  0.4371E+00  0.2884E+01  0.2883E+01
      0.029  0.4479E+00  0.4486E+00  0.2978E+01  0.2977E+01
      0.238  0.5178E+00  0.5152E+00  0.3086E+01  0.3085E+01
      0.447  0.6541E+00  0.6552E+00  0.3224E+01  0.3223E+01
      0.656  0.6037E+00  0.6029E+00  0.3351E+01  0.3350E+01
      0.865  0.5313E+00  0.5331E+00  0.3462E+01  0.3461E+01
      1.074  0.3714E+00  0.3716E+00  0.3540E+01  0.3540E+01
      1.284  0.6076E+00  0.6063E+00  0.3668E+01  0.3667E+01
      1.493  0.3688E+00  0.3715E+00  0.3745E+01  0.3745E+01
      1.702  0.2394E+00  0.2393E+00  0.3795E+01  0.3795E+01
      1.911  0.1591E+00  0.1600E+00  0.3829E+01  0.3829E+01
      2.120  0.2905E+00  0.2883E+00  0.3890E+01  0.3890E+01
      2.329  0.2362E+00  0.2391E+00  0.3940E+01  0.3940E+01
      2.538  0.7094E-01  0.7029E-01  0.3955E+01  0.3955E+01
      2.747  0.3372E+00  0.3326E+00  0.4026E+01  0.4025E+01
      2.956  0.7446E+00  0.7394E+00  0.4181E+01  0.4179E+01
      3.165  0.9621E+00  0.9661E+00  0.4383E+01  0.4382E+01
      3.374  0.4304E+00  0.4321E+00  0.4474E+01  0.4473E+01
      3.583  0.6292E+00  0.6264E+00  0.4606E+01  0.4605E+01
      3.792  0.6632E+00  0.6642E+00  0.4745E+01  0.4744E+01
      4.001  0.4628E+00  0.4669E+00  0.4842E+01  0.4842E+01
      4.210  0.2699E+00  0.2664E+00  0.4900E+01  0.4898E+01
      4.419  0.6974E+00  0.6950E+00  0.5046E+01  0.5044E+01
      4.628  0.5486E+00  0.5534E+00  0.5160E+01  0.5160E+01
      4.837  0.3331E+00  0.3340E+00  0.5231E+01  0.5230E+01
      5.046  0.4378E+00  0.4333E+00  0.5323E+01  0.5321E+01
      5.255  0.9673E+00  0.9640E+00  0.5525E+01  0.5523E+01
      5.465  0.8560E+00  0.8568E+00  0.5705E+01  0.5702E+01
      5.674  0.5951E+00  0.5994E+00  0.5830E+01  0.5829E+01
      5.883  0.5964E+00  0.5930E+00  0.5957E+01  0.5955E+01
      6.092  0.7508E+00  0.7490E+00  0.6114E+01  0.6112E+01
      6.301  0.7489E+00  0.7517E+00  0.6272E+01  0.6270E+01
      6.510  0.6419E+00  0.6425E+00  0.6407E+01  0.6405E+01
      6.719  0.4304E+00  0.4345E+00  0.6498E+01  0.6497E+01
      6.928  0.4555E+00  0.4493E+00  0.6594E+01  0.6592E+01
      7.137  0.9580E+00  0.9572E+00  0.6794E+01  0.6792E+01
      7.346  0.4701E+00  0.4761E+00  0.6893E+01  0.6892E+01
      7.555  0.3531E+00  0.3514E+00  0.6968E+01  0.6967E+01
      7.764  0.4684E+00  0.4670E+00  0.7066E+01  0.7065E+01
      7.973  0.6046E+00  0.6022E+00  0.7193E+01  0.7191E+01
      8.182  0.6866E+00  0.6897E+00  0.7337E+01  0.7336E+01
      8.391  0.3811E+00  0.3815E+00  0.7417E+01  0.7416E+01
      8.600  0.4994E+00  0.4974E+00  0.7522E+01  0.7521E+01
      8.809  0.4164E+00  0.4175E+00  0.7609E+01  0.7608E+01
      9.018  0.4583E+00  0.4577E+00  0.7706E+01  0.7705E+01
      9.227  0.4961E+00  0.4972E+00  0.7810E+01  0.7809E+01
      9.436  0.4128E+00  0.4127E+00  0.7897E+01  0.7896E+01
      9.645  0.1771E+00  0.1781E+00  0.7934E+01  0.7933E+01
      9.855  0.9949E-01  0.1028E+00  0.7956E+01  0.7956E+01
     10.064  0.1302E+00  0.1249E+00  0.7983E+01  0.7982E+01
     10.273  0.7636E-01  0.8276E-01  0.7999E+01  0.7999E+01
     10.482  0.2153E-02  0.3536E-02  0.8000E+01  0.8000E+01
     10.691  0.0000E+00  0.0000E+00  0.8000E+01  0.8000E+01
     10.900  0.0000E+00  0.0000E+00  0.8000E+01  0.8000E+01
     11.109  0.0000E+00  0.0000E+00  0.8000E+01  0.8000E+01
     11.318  0.0000E+00  0.0000E+00  0.8000E+01  0.8000E+01
     11.527  0.0000E+00  0.0000E+00  0.8000E+01  0.8000E+01
     11.736  0.0000E+00  0.0000E+00  0.8000E+01  0.8000E+01
     11.945  0.0000E+00  0.0000E+00  0.8000E+01  0.8000E+01
     12.154  0.0000E+00  0.0000E+00  0.8000E+01  0.8000E+01
     12.363  0.0000E+00  0.0000E+00  0.8000E+01  0.8000E+01
     12.572  0.0000E+00  0.0000E+00  0.8000E+01  0.8000E+01
     12.781  0.0000E+00  0.0000E+00  0.8000E+01  0.8000E+01
     12.990  0.0000E+00  0.0000E+00  0.8000E+01  0.8000E+01
     12.99026417    -49.72437359  301      0.08210300      1.00000000
    -49.724  0.0000E+00  0.0000E+00  0.0000E+00  0.0000E+00  0.0000E+00  0.0000E+00  0.0000E+00  0.0000E+00  0.0000E+00  0.0000E+00  0.0000E+00  0.0000E+00  0.0000E+00  0.0000E+00  0.0000E+00  0.0000E+00  0.0000E+00  0.0000E+00
    -49.515  0.0000E+00  0.0000E+00  0.0000E+00  0.0000E+00  0.0000E+00  0.0000E+00  0.0000E+00  0.0000E+00  0.0000E+00  0.0000E+00  0.0000E+00  0.0000E+00  0.0000E+00  0.0000E+00  0.0000E+00  0.0000E+00  0.0000E+00  0.0000E+00
    -49.306  0.0000E+00  0.0000E+00  0.0000E+00  0.0000E+00  0.0000E+00  0.0000E+00  0.0000E+00  0.0000E+00  0.0000E+00  0.0000E+00  0.0000E+00  0.0000E+00  0.0000E+00  0.0000E+00  0.0000E+00  0.0000E+00  0.0000E+00  0.0000E+00
    -49.097  0.0000E+00  0.0000E+00  0.0000E+00  0.0000E+00  0.0000E+00  0.0000E+00  0.0000E+00  0.0000E+00  0.0000E+00  0.0000E+00  0.0000E+00  0.0000E+00  0.0000E+00  0.0000E+00  0.0000E+00  0.0000E+00  0.0000E+00  0.0000E+00
    -48.888  0.0000E+00  0.0000E+00  0.0000E+00  0.0000E+00  0.0000E+00  0.0000E+00  0.0000E+00  0.0000E+00  0.0000E+00  0.0000E+00  0.0000E+00  0.0000E+00  0.0000E+00  0.0000E+00  0.0000E+00  0.0000E+00  0.0000E+00  0.0000E+00
    -48.679  0.0000E+00  0.0000E+00  0.0000E+00  0.0000E+00  0.0000E+00  0.0000E+00  0.0000E+00  0.0000E+00  0.0000E+00  0.0000E+00  0.0000E+00  0.0000E+00  0.0000E+00  0.0000E+00  0.0000E+00  0.0000E+00  0.0000E+00  0.0000E+00
    -48.470  0.0000E+00  0.0000E+00  0.0000E+00  0.0000E+00  0.0000E+00  0.0000E+00  0.0000E+00  0.0000E+00  0.0000E+00  0.0000E+00  0.0000E+00  0.0000E+00  0.0000E+00  0.0000E+00  0.0000E+00  0.0000E+00  0.0000E+00  0.0000E+00
    -48.261  0.0000E+00  0.0000E+00  0.0000E+00  0.0000E+00  0.0000E+00  0.0000E+00  0.0000E+00  0.0000E+00  0.0000E+00  0.0000E+00  0.0000E+00  0.0000E+00  0.0000E+00  0.0000E+00  0.0000E+00  0.0000E+00  0.0000E+00  0.0000E+00
    -48.052  0.0000E+00  0.0000E+00  0.0000E+00  0.0000E+00  0.0000E+00  0.0000E+00  0.0000E+00  0.0000E+00  0.0000E+00  0.0000E+00  0.0000E+00  0.0000E+00  0.0000E+00  0.0000E+00  0.0000E+00  0.0000E+00  0.0000E+00  0.0000E+00
    -47.843  0.0000E+00  0.0000E+00  0.0000E+00  0.0000E+00  0.0000E+00  0.0000E+00  0.0000E+00  0.0000E+00  0.0000E+00  0.0000E+00  0.0000E+00  0.0000E+00  0.0000E+00  0.0000E+00  0.0000E+00  0.0000E+00  0.0000E+00  0.0000E+00
    -47.634  0.0000E+00  0.0000E+00  0.0000E+00  0.0000E+00  0.0000E+00  0.0000E+00  0.0000E+00  0.0000E+00  0.0000E+00  0.0000E+00  0.0000E+00  0.0000E+00  0.0000E+00  0.0000E+00  0.0000E+00  0.0000E+00  0.0000E+00  0.0000E+00
    -47.425  0.6679E-04  0.6175E-04  0.5348E-12  0.5050E-12  0.5348E-12  0.5050E-12  0.5348E-12  0.5050E-12  0.0000E+00  0.0000E+00  0.0000E+00  0.0000E+00  0.0000E+00  0.0000E+00  0.0000E+00  0.0000E+00  0.0000E+00  0.0000E+00
    -47.216  0.4299E-02  0.3975E-02  0.3443E-10  0.3251E-10  0.3443E-10  0.3251E-10  0.3443E-10  0.3251E-10  0.0000E+00  0.0000E+00  0.0000E+00  0.0000E+00  0.0000E+00  0.0000E+00  0.0000E+00  0.0000E+00  0.0000E+00  0.0000E+00
    -47.007  0.2652E+00  0.2463E+00  0.2125E-08  0.2015E-08  0.2125E-08  0.2015E-08  0.2125E-08  0.2015E-08  0.0000E+00  0.0000E+00  0.0000E+00  0.0000E+00  0.0000E+00  0.0000E+00  0.0000E+00  0.0000E+00  0.0000E+00  0.0000E+00
    -46.798  0.3507E+01  0.3465E+01  0.2835E-07  0.2860E-07  0.2835E-07  0.2860E-07  0.2835E-07  0.2860E-07  0.0000E+00  0.0000E+00  0.0000E+00  0.0000E+00  0.0000E+00  0.0000E+00  0.0000E+00  0.0000E+00  0.0000E+00  0.0000E+00
    -46.589  0.9391E+00  0.9990E+00  0.7687E-08  0.8347E-08  0.7687E-08  0.8347E-08  0.7687E-08  0.8347E-08  0.0000E+00  0.0000E+00  0.0000E+00  0.0000E+00  0.0000E+00  0.0000E+00  0.0000E+00  0.0000E+00  0.0000E+00  0.0000E+00
    -46.380  0.0000E+00  0.0000E+00  0.0000E+00  0.0000E+00  0.0000E+00  0.0000E+00  0.0000E+00  0.0000E+00  0.0000E+00  0.0000E+00  0.0000E+00  0.0000E+00  0.0000E+00  0.0000E+00  0.0000E+00  0.0000E+00  0.0000E+00  0.0000E+00
    -46.171  0.0000E+00  0.0000E+00  0.0000E+00  0.0000E+00  0.0000E+00  0.0000E+00  0.0000E+00  0.0000E+00  0.0000E+00  0.0000E+00  0.0000E+00  0.0000E+00  0.0000E+00  0.0000E+00  0.0000E+00  0.0000E+00  0.0000E+00  0.0000E+00
    -45.961  0.0000E+00  0.0000E+00  0.0000E+00  0.0000E+00  0.0000E+00  0.0000E+00  0.0000E+00  0.0000E+00  0.0000E+00  0.0000E+00  0.0000E+00  0.0000E+00  0.0000E+00  0.0000E+00  0.0000E+00  0.0000E+00  0.0000E+00  0.0000E+00
    -45.752  0.0000E+00  0.0000E+00  0.0000E+00  0.0000E+00  0.0000E+00  0.0000E+00  0.0000E+00  0.0000E+00  0.0000E+00  0.0000E+00  0.0000E+00  0.0000E+00  0.0000E+00  0.0000E+00  0.0000E+00  0.0000E+00  0.0000E+00  0.0000E+00
    -45.543  0.0000E+00  0.0000E+00  0.0000E+00  0.0000E+00  0.0000E+00  0.0000E+00  0.0000E+00  0.0000E+00  0.0000E+00  0.0000E+00  0.0000E+00  0.0000E+00  0.0000E+00  0.0000E+00  0.0000E+00  0.0000E+00  0.0000E+00  0.0000E+00
    -45.334  0.0000E+00  0.0000E+00  0.0000E+00  0.0000E+00  0.0000E+00  0.0000E+00  0.0000E+00  0.0000E+00  0.0000E+00  0.0000E+00  0.0000E+00  0.0000E+00  0.0000E+00  0.0000E+00  0.0000E+00  0.0000E+00  0.0000E+00  0.0000E+00
    -45.125  0.0000E+00  0.0000E+00  0.0000E+00  0.0000E+00  0.0000E+00  0.0000E+00  0.0000E+00  0.0000E+00  0.0000E+00  0.0000E+00  0.0000E+00  0.0000E+00  0.0000E+00  0.0000E+00  0.0000E+00  0.0000E+00  0.0000E+00  0.0000E+00
    -44.916  0.0000E+00  0.0000E+00  0.0000E+00  0.0000E+00  0.0000E+00  0.0000E+00  0.0000E+00  0.0000E+00  0.0000E+00  0.0000E+00  0.0000E+00  0.0000E+00  0.0000E+00  0.0000E+00  0.0000E+00  0.0000E+00  0.0000E+00  0.0000E+00
    -44.707  0.0000E+00  0.0000E+00  0.0000E+00  0.0000E+00  0.0000E+00  0.0000E+00  0.0000E+00  0.0000E+00  0.0000E+00  0.0000E+00  0.0000E+00  0.0000E+00  0.0000E+00  0.0000E+00  0.0000E+00  0.0000E+00  0.0000E+00  0.0000E+00
    -44.498  0.0000E+00  0.0000E+00  0.0000E+00  0.0000E+00  0.0000E+00  0.0000E+00  0.0000E+00  0.0000E+00  0.0000E+00  0.0000E+00  0.0000E+00  0.0000E+00  0.0000E+00  0.0000E+00  0.0000E+00  0.0000E+00  0.0000E+00  0.0000E+00
    -44.289  0.0000E+00  0.0000E+00  0.0000E+00  0.0000E+00  0.0000E+00  0.0000E+00  0.0000E+00  0.0000E+00  0.0000E+00  0.0000E+00  0.0000E+00  0.0000E+00  0.0000E+00  0.0000E+00  0.0000E+00  0.0000E+00  0.0000E+00  0.0000E+00
    -44.080  0.0000E+00  0.0000E+00  0.0000E+00  0.0000E+00  0.0000E+00  0.0000E+00  0.0000E+00  0.0000E+00  0.0000E+00  0.0000E+00  0.0000E+00  0.0000E+00  0.0000E+00  0.0000E+00  0.0000E+00  0.0000E+00  0.0000E+00  0.0000E+00
    -43.871  0.0000E+00  0.0000E+00  0.0000E+00  0.0000E+00  0.0000E+00  0.0000E+00  0.0000E+00  0.0000E+00  0.0000E+00  0.0000E+00  0.0000E+00  0.0000E+00  0.0000E+00  0.0000E+00  0.0000E+00  0.0000E+00  0.0000E+00  0.0000E+00
    -43.662  0.0000E+00  0.0000E+00  0.0000E+00  0.0000E+00  0.0000E+00  0.0000E+00  0.0000E+00  0.0000E+00  0.0000E+00  0.0000E+00  0.0000E+00  0.0000E+00  0.0000E+00  0.0000E+00  0.0000E+00  0.0000E+00  0.0000E+00  0.0000E+00
    -43.453  0.0000E+00  0.0000E+00  0.0000E+00  0.0000E+00  0.0000E+00  0.0000E+00  0.0000E+00  0.0000E+00  0.0000E+00  0.0000E+00  0.0000E+00  0.0000E+00  0.0000E+00  0.0000E+00  0.0000E+00  0.0000E+00  0.0000E+00  0.0000E+00
    -43.244  0.0000E+00  0.0000E+00  0.0000E+00  0.0000E+00  0.0000E+00  0.0000E+00  0.0000E+00  0.0000E+00  0.0000E+00  0.0000E+00  0.0000E+00  0.0000E+00  0.0000E+00  0.0000E+00  0.0000E+00  0.0000E+00  0.0000E+00  0.0000E+00
    -43.035  0.0000E+00  0.0000E+00  0.0000E+00  0.0000E+00  0.0000E+00  0.0000E+00  0.0000E+00  0.0000E+00  0.0000E+00  0.0000E+00  0.0000E+00  0.0000E+00  0.0000E+00  0.0000E+00  0.0000E+00  0.0000E+00  0.0000E+00  0.0000E+00
    -42.826  0.0000E+00  0.0000E+00  0.0000E+00  0.0000E+00  0.0000E+00  0.0000E+00  0.0000E+00  0.0000E+00  0.0000E+00  0.0000E+00  0.0000E+00  0.0000E+00  0.0000E+00  0.0000E+00  0.0000E+00  0.0000E+00  0.0000E+00  0.0000E+00
    -42.617  0.0000E+00  0.0000E+00  0.0000E+00  0.0000E+00  0.0000E+00  0.0000E+00  0.0000E+00  0.0000E+00  0.0000E+00  0.0000E+00  0.0000E+00  0.0000E+00  0.0000E+00  0.0000E+00  0.0000E+00  0.0000E+00  0.0000E+00  0.0000E+00
    -42.408  0.0000E+00  0.0000E+00  0.0000E+00  0.0000E+00  0.0000E+00  0.0000E+00  0.0000E+00  0.0000E+00  0.0000E+00  0.0000E+00  0.0000E+00  0.0000E+00  0.0000E+00  0.0000E+00  0.0000E+00  0.0000E+00  0.0000E+00  0.0000E+00
    -42.199  0.0000E+00  0.0000E+00  0.0000E+00  0.0000E+00  0.0000E+00  0.0000E+00  0.0000E+00  0.0000E+00  0.0000E+00  0.0000E+00  0.0000E+00  0.0000E+00  0.0000E+00  0.0000E+00  0.0000E+00  0.0000E+00  0.0000E+00  0.0000E+00
    -41.990  0.0000E+00  0.0000E+00  0.0000E+00  0.0000E+00  0.0000E+00  0.0000E+00  0.0000E+00  0.0000E+00  0.0000E+00  0.0000E+00  0.0000E+00  0.0000E+00  0.0000E+00  0.0000E+00  0.0000E+00  0.0000E+00  0.0000E+00  0.0000E+00
    -41.781  0.0000E+00  0.0000E+00  0.0000E+00  0.0000E+00  0.0000E+00  0.0000E+00  0.0000E+00  0.0000E+00  0.0000E+00  0.0000E+00  0.0000E+00  0.0000E+00  0.0000E+00  0.0000E+00  0.0000E+00  0.0000E+00  0.0000E+00  0.0000E+00
    -41.571  0.0000E+00  0.0000E+00  0.0000E+00  0.0000E+00  0.0000E+00  0.0000E+00  0.0000E+00  0.0000E+00  0.0000E+00  0.0000E+00  0.0000E+00  0.0000E+00  0.0000E+00  0.0000E+00  0.0000E+00  0.0000E+00  0.0000E+00  0.0000E+00
    -41.362  0.0000E+00  0.0000E+00  0.0000E+00  0.0000E+00  0.0000E+00  0.0000E+00  0.0000E+00  0.0000E+00  0.0000E+00  0.0000E+00  0.0000E+00  0.0000E+00  0.0000E+00  0.0000E+00  0.0000E+00  0.0000E+00  0.0000E+00  0.0000E+00
    -41.153  0.0000E+00  0.0000E+00  0.0000E+00  0.0000E+00  0.0000E+00  0.0000E+00  0.0000E+00  0.0000E+00  0.0000E+00  0.0000E+00  0.0000E+00  0.0000E+00  0.0000E+00  0.0000E+00  0.0000E+00  0.0000E+00  0.0000E+00  0.0000E+00
    -40.944  0.0000E+00  0.0000E+00  0.0000E+00  0.0000E+00  0.0000E+00  0.0000E+00  0.0000E+00  0.0000E+00  0.0000E+00  0.0000E+00  0.0000E+00  0.0000E+00  0.0000E+00  0.0000E+00  0.0000E+00  0.0000E+00  0.0000E+00  0.0000E+00
    -40.735  0.0000E+00  0.0000E+00  0.0000E+00  0.0000E+00  0.0000E+00  0.0000E+00  0.0000E+00  0.0000E+00  0.0000E+00  0.0000E+00  0.0000E+00  0.0000E+00  0.0000E+00  0.0000E+00  0.0000E+00  0.0000E+00  0.0000E+00  0.0000E+00
    -40.526  0.0000E+00  0.0000E+00  0.0000E+00  0.0000E+00  0.0000E+00  0.0000E+00  0.0000E+00  0.0000E+00  0.0000E+00  0.0000E+00  0.0000E+00  0.0000E+00  0.0000E+00  0.0000E+00  0.0000E+00  0.0000E+00  0.0000E+00  0.0000E+00
    -40.317  0.0000E+00  0.0000E+00  0.0000E+00  0.0000E+00  0.0000E+00  0.0000E+00  0.0000E+00  0.0000E+00  0.0000E+00  0.0000E+00  0.0000E+00  0.0000E+00  0.0000E+00  0.0000E+00  0.0000E+00  0.0000E+00  0.0000E+00  0.0000E+00
    -40.108  0.0000E+00  0.0000E+00  0.0000E+00  0.0000E+00  0.0000E+00  0.0000E+00  0.0000E+00  0.0000E+00  0.0000E+00  0.0000E+00  0.0000E+00  0.0000E+00  0.0000E+00  0.0000E+00  0.0000E+00  0.0000E+00  0.0000E+00  0.0000E+00
    -39.899  0.0000E+00  0.0000E+00  0.0000E+00  0.0000E+00  0.0000E+00  0.0000E+00  0.0000E+00  0.0000E+00  0.0000E+00  0.0000E+00  0.0000E+00  0.0000E+00  0.0000E+00  0.0000E+00  0.0000E+00  0.0000E+00  0.0000E+00  0.0000E+00
    -39.690  0.0000E+00  0.0000E+00  0.0000E+00  0.0000E+00  0.0000E+00  0.0000E+00  0.0000E+00  0.0000E+00  0.0000E+00  0.0000E+00  0.0000E+00  0.0000E+00  0.0000E+00  0.0000E+00  0.0000E+00  0.0000E+00  0.0000E+00  0.0000E+00
    -39.481  0.0000E+00  0.0000E+00  0.0000E+00  0.0000E+00  0.0000E+00  0.0000E+00  0.0000E+00  0.0000E+00  0.0000E+00  0.0000E+00  0.0000E+00  0.0000E+00  0.0000E+00  0.0000E+00  0.0000E+00  0.0000E+00  0.0000E+00  0.0000E+00
    -39.272  0.0000E+00  0.0000E+00  0.0000E+00  0.0000E+00  0.0000E+00  0.0000E+00  0.0000E+00  0.0000E+00  0.0000E+00  0.0000E+00  0.0000E+00  0.0000E+00  0.0000E+00  0.0000E+00  0.0000E+00  0.0000E+00  0.0000E+00  0.0000E+00