   2   2   1   0
  0.1780149E+02  0.3289744E-09  0.3289744E-09  0.3289744E-09  0.5000000E-15
  1.000000000000000E-004
  CAR 
 unknown system                          
     16.76997971    -48.27465265  301      1.03488770      1.00000000
    -48.275  0.0000E+00  0.0000E+00  0.0000E+00  0.0000E+00
    -48.058  0.0000E+00  0.0000E+00  0.0000E+00  0.0000E+00
    -47.841  0.0000E+00  0.0000E+00  0.0000E+00  0.0000E+00
    -47.624  0.0000E+00  0.0000E+00  0.0000E+00  0.0000E+00
    -47.407  0.0000E+00  0.0000E+00  0.0000E+00  0.0000E+00
    -47.191  0.0000E+00  0.0000E+00  0.0000E+00  0.0000E+00
    -46.974  0.0000E+00  0.0000E+00  0.0000E+00  0.0000E+00
    -46.757  0.0000E+00  0.0000E+00  0.0000E+00  0.0000E+00
    -46.540  0.0000E+00  0.0000E+00  0.0000E+00  0.0000E+00
    -46.323  0.0000E+00  0.0000E+00  0.0000E+00  0.0000E+00
    -46.106  0.0000E+00  0.0000E+00  0.0000E+00  0.0000E+00
    -45.890  0.5311E-04  0.4293E-04  0.1151E-04  0.9307E-05
    -45.673  0.4171E-02  0.3663E-02  0.9158E-03  0.8035E-03
    -45.456  0.3074E+00  0.2709E+00  0.6756E-01  0.5953E-01
    -45.239  0.6353E+01  0.6143E+01  0.1445E+01  0.1391E+01
    -45.022  0.2513E+01  0.2754E+01  0.1990E+01  0.1989E+01
    -44.806  0.0000E+00  0.0000E+00  0.2000E+01  0.2000E+01
    -44.589  0.0000E+00  0.0000E+00  0.2000E+01  0.2000E+01
    -44.372  0.0000E+00  0.0000E+00  0.2000E+01  0.2000E+01
    -44.155  0.0000E+00  0.0000E+00  0.2000E+01  0.2000E+01
    -43.938  0.0000E+00  0.0000E+00  0.2000E+01  0.2000E+01
    -43.722  0.0000E+00  0.0000E+00  0.2000E+01  0.2000E+01
    -43.505  0.0000E+00  0.0000E+00  0.2000E+01  0.2000E+01
    -43.288  0.0000E+00  0.0000E+00  0.2000E+01  0.2000E+01
    -43.071  0.0000E+00  0.0000E+00  0.2000E+01  0.2000E+01
    -42.854  0.0000E+00  0.0000E+00  0.2000E+01  0.2000E+01
    -42.637  0.0000E+00  0.0000E+00  0.2000E+01  0.2000E+01
    -42.421  0.0000E+00  0.0000E+00  0.2000E+01  0.2000E+01
    -42.204  0.0000E+00  0.0000E+00  0.2000E+01  0.2000E+01
    -41.987  0.0000E+00  0.0000E+00  0.2000E+01  0.2000E+01
    -41.770  0.0000E+00  0.0000E+00  0.2000E+01  0.2000E+01
    -41.553  0.0000E+00  0.0000E+00  0.2000E+01  0.2000E+01
    -41.337  0.0000E+00  0.0000E+00  0.2000E+01  0.2000E+01
    -41.120  0.0000E+00  0.0000E+00  0.2000E+01  0.2000E+01
    -40.903  0.0000E+00  0.0000E+00  0.2000E+01  0.2000E+01
    -40.686  0.0000E+00  0.0000E+00  0.2000E+01  0.2000E+01
    -40.469  0.0000E+00  0.0000E+00  0.2000E+01  0.2000E+01
    -40.252  0.0000E+00  0.0000E+00  0.2000E+01  0.2000E+01
    -40.036  0.0000E+00  0.0000E+00  0.2000E+01  0.2000E+01
    -39.819  0.0000E+00  0.0000E+00  0.2000E+01  0.2000E+01
    -39.602  0.0000E+00  0.0000E+00  0.2000E+01  0.2000E+01
    -39.385  0.0000E+00  0.0000E+00  0.2000E+01  0.2000E+01
    -39.168  0.0000E+00  0.0000E+00  0.2000E+01  0.2000E+01
    -38.952  0.0000E+00  0.0000E+00  0.2000E+01  0.2000E+01
    -38.735  0.0000E+00  0.0000E+00  0.2000E+01  0.2000E+01
    -38.518  0.0000E+00  0.0000E+00  0.2000E+01  0.2000E+01
    -38.301  0.0000E+00  0.0000E+00  0.2000E+01  0.2000E+01
    -38.084  0.0000E+00  0.0000E+00  0.2000E+01  0.2000E+01
    -37.868  0.0000E+00  0.0000E+00  0.2000E+01  0.2000E+01
    -37.651  0.0000E+00  0.0000E+00  0.2000E+01  0.2000E+01
    -37.434  0.0000E+00  0.0000E+00  0.2000E+01  0.2000E+01
    -37.217  0.0000E+00  0.0000E+00  0.2000E+01  0.2000E+01
    -37.000  0.0000E+00  0.0000E+00  0.2000E+01  0.2000E+01
    -36.783  0.0000E+00  0.0000E+00  0.2000E+01  0.2000E+01
    -36.567  0.0000E+00  0.0000E+00  0.2000E+01  0.2000E+01
    -36.350  0.0000E+00  0.0000E+00  0.2000E+01  0.2000E+01
    -36.133  0.0000E+00  0.0000E+00  0.2000E+01  0.2000E+01
    -35.916  0.0000E+00  0.0000E+00  0.2000E+01  0.2000E+01
    -35.699  0.0000E+00  0.0000E+00  0.2000E+01  0.2000E+01
    -35.483  0.0000E+00  0.0000E+00  0.2000E+01  0.2000E+01
    -35.266  0.0000E+00  0.0000E+00  0.2000E+01  0.2000E+01
    -35.049  0.0000E+00  0.0000E+00  0.2000E+01  0.2000E+01
    -34.832  0.0000E+00  0.0000E+00  0.2000E+01  0.2000E+01
    -34.615  0.0000E+00  0.0000E+00  0.2000E+01  0.2000E+01
    -34.398  0.0000E+00  0.0000E+00  0.2000E+01  0.2000E+01
    -34.182  0.0000E+00  0.0000E+00  0.2000E+01  0.2000E+01
    -33.965  0.0000E+00  0.0000E+00  0.2000E+01  0.2000E+01
    -33.748  0.0000E+00  0.0000E+00  0.2000E+01  0.2000E+01
    -33.531  0.0000E+00  0.0000E+00  0.2000E+01  0.2000E+01
    -33.314  0.0000E+00  0.0000E+00  0.2000E+01  0.2000E+01
    -33.098  0.0000E+00  0.0000E+00  0.2000E+01  0.2000E+01
    -32.881  0.0000E+00  0.0000E+00  0.2000E+01  0.2000E+01
    -32.664  0.0000E+00  0.0000E+00  0.2000E+01  0.2000E+01
    -32.447  0.0000E+00  0.0000E+00  0.2000E+01  0.2000E+01
    -32.230  0.0000E+00  0.0000E+00  0.2000E+01  0.2000E+01
    -32.013  0.0000E+00  0.0000E+00  0.2000E+01  0.2000E+01
    -31.797  0.0000E+00  0.0000E+00  0.2000E+01  0.2000E+01
    -31.580  0.0000E+00  0.0000E+00  0.2000E+01  0.2000E+01
    -31.363  0.0000E+00  0.0000E+00  0.2000E+01  0.2000E+01
    -31.146  0.0000E+00  0.0000E+00  0.2000E+01  0.2000E+01
    -30.929  0.0000E+00  0.0000E+00  0.2000E+01  0.2000E+01
    -30.713  0.0000E+00  0.0000E+00  0.2000E+01  0.2000E+01
    -30.496  0.0000E+00  0.0000E+00  0.2000E+01  0.2000E+01
    -30.279  0.0000E+00  0.0000E+00  0.2000E+01  0.2000E+01
    -30.062  0.0000E+00  0.0000E+00  0.2000E+01  0.2000E+01
    -29.845  0.0000E+00  0.0000E+00  0.2000E+01  0.2000E+01
    -29.629  0.0000E+00  0.0000E+00  0.2000E+01  0.2000E+01
    -29.412  0.0000E+00  0.0000E+00  0.2000E+01  0.2000E+01
    -29.195  0.0000E+00  0.0000E+00  0.2000E+01  0.2000E+01
    -28.978  0.0000E+00  0.0000E+00  0.2000E+01  0.2000E+01
    -28.761  0.0000E+00  0.0000E+00  0.2000E+01  0.2000E+01
    -28.544  0.0000E+00  0.0000E+00  0.2000E+01  0.2000E+01
    -28.328  0.0000E+00  0.0000E+00  0.2000E+01  0.2000E+01
    -28.111  0.0000E+00  0.0000E+00  0.2000E+01  0.2000E+01
    -27.894  0.0000E+00  0.0000E+00  0.2000E+01  0.2000E+01
    -27.677  0.0000E+00  0.0000E+00  0.2000E+01  0.2000E+01
    -27.460  0.0000E+00  0.0000E+00  0.2000E+01  0.2000E+01
    -27.244  0.0000E+00  0.0000E+00  0.2000E+01  0.2000E+01
    -27.027  0.0000E+00  0.0000E+00  0.2000E+01  0.2000E+01
    -26.810  0.0000E+00  0.0000E+00  0.2000E+01  0.2000E+01
    -26.593  0.0000E+00  0.0000E+00  0.2000E+01  0.2000E+01
    -26.376  0.0000E+00  0.0000E+00  0.2000E+01  0.2000E+01
    -26.159  0.0000E+00  0.0000E+00  0.2000E+01  0.2000E+01
    -25.943  0.0000E+00  0.0000E+00  0.2000E+01  0.2000E+01
    -25.726  0.0000E+00  0.0000E+00  0.2000E+01  0.2000E+01
    -25.509  0.0000E+00  0.0000E+00  0.2000E+01  0.2000E+01
    -25.292  0.0000E+00  0.0000E+00  0.2000E+01  0.2000E+01
    -25.075  0.0000E+00  0.0000E+00  0.2000E+01  0.2000E+01
    -24.859  0.0000E+00  0.0000E+00  0.2000E+01  0.2000E+01
    -24.642  0.0000E+00  0.0000E+00  0.2000E+01  0.2000E+01
    -24.425  0.0000E+00  0.0000E+00  0.2000E+01  0.2000E+01
    -24.208  0.0000E+00  0.0000E+00  0.2000E+01  0.2000E+01
    -23.991  0.0000E+00  0.0000E+00  0.2000E+01  0.2000E+01
    -23.775  0.0000E+00  0.0000E+00  0.2000E+01  0.2000E+01
    -23.558  0.0000E+00  0.0000E+00  0.2000E+01  0.2000E+01
    -23.341  0.0000E+00  0.0000E+00  0.2000E+01  0.2000E+01
    -23.124  0.0000E+00  0.0000E+00  0.2000E+01  0.2000E+01
    -22.907  0.0000E+00  0.0000E+00  0.2000E+01  0.2000E+01
    -22.690  0.0000E+00  0.0000E+00  0.2000E+01  0.2000E+01
    -22.474  0.0000E+00  0.0000E+00  0.2000E+01  0.2000E+01
    -22.257  0.0000E+00  0.0000E+00  0.2000E+01  0.2000E+01
    -22.040  0.0000E+00  0.0000E+00  0.2000E+01  0.2000E+01
    -21.823  0.0000E+00  0.0000E+00  0.2000E+01  0.2000E+01
    -21.606  0.0000E+00  0.0000E+00  0.2000E+01  0.2000E+01
    -21.390  0.0000E+00  0.0000E+00  0.2000E+01  0.2000E+01
    -21.173  0.0000E+00  0.0000E+00  0.2000E+01  0.2000E+01
    -20.956  0.0000E+00  0.0000E+00  0.2000E+01  0.2000E+01
    -20.739  0.0000E+00  0.0000E+00  0.2000E+01  0.2000E+01
    -20.522  0.0000E+00  0.0000E+00  0.2000E+01  0.2000E+01
    -20.305  0.0000E+00  0.0000E+00  0.2000E+01  0.2000E+01
    -20.089  0.0000E+00  0.0000E+00  0.2000E+01  0.2000E+01
    -19.872  0.0000E+00  0.0000E+00  0.2000E+01  0.2000E+01
    -19.655  0.0000E+00  0.0000E+00  0.2000E+01  0.2000E+01
    -19.438  0.0000E+00  0.0000E+00  0.2000E+01  0.2000E+01
    -19.221  0.0000E+00  0.0000E+00  0.2000E+01  0.2000E+01
    -19.005  0.0000E+00  0.0000E+00  0.2000E+01  0.2000E+01
    -18.788  0.0000E+00  0.0000E+00  0.2000E+01  0.2000E+01
    -18.571  0.0000E+00  0.0000E+00  0.2000E+01  0.2000E+01
    -18.354  0.0000E+00  0.0000E+00  0.2000E+01  0.2000E+01
    -18.137  0.0000E+00  0.0000E+00  0.2000E+01  0.2000E+01
    -17.920  0.0000E+00  0.0000E+00  0.2000E+01  0.2000E+01
    -17.704  0.0000E+00  0.0000E+00  0.2000E+01  0.2000E+01
    -17.487  0.0000E+00  0.0000E+00  0.2000E+01  0.2000E+01
    -17.270  0.0000E+00  0.0000E+00  0.2000E+01  0.2000E+01
    -17.053  0.0000E+00  0.0000E+00  0.2000E+01  0.2000E+01
    -16.836  0.0000E+00  0.0000E+00  0.2000E+01  0.2000E+01
    -16.620  0.0000E+00  0.0000E+00  0.2000E+01  0.2000E+01
    -16.403  0.0000E+00  0.0000E+00  0.2000E+01  0.2000E+01
    -16.186  0.0000E+00  0.0000E+00  0.2000E+01  0.2000E+01
    -15.969  0.0000E+00  0.0000E+00  0.2000E+01  0.2000E+01
    -15.752  0.0000E+00  0.0000E+00  0.2000E+01  0.2000E+01
    -15.536  0.0000E+00  0.0000E+00  0.2000E+01  0.2000E+01
    -15.319  0.0000E+00  0.0000E+00  0.2000E+01  0.2000E+01
    -15.102  0.0000E+00  0.0000E+00  0.2000E+01  0.2000E+01
    -14.885  0.0000E+00  0.0000E+00  0.2000E+01  0.2000E+01
    -14.668  0.0000E+00  0.0000E+00  0.2000E+01  0.2000E+01
    -14.451  0.0000E+00  0.0000E+00  0.2000E+01  0.2000E+01
    -14.235  0.0000E+00  0.0000E+00  0.2000E+01  0.2000E+01
    -14.018  0.0000E+00  0.0000E+00  0.2000E+01  0.2000E+01
    -13.801  0.0000E+00  0.0000E+00  0.2000E+01  0.2000E+01
    -13.584  0.0000E+00  0.0000E+00  0.2000E+01  0.2000E+01
    -13.367  0.0000E+00  0.0000E+00  0.2000E+01  0.2000E+01
    -13.151  0.0000E+00  0.0000E+00  0.2000E+01  0.2000E+01
    -12.934  0.0000E+00  0.0000E+00  0.2000E+01  0.2000E+01
    -12.717  0.0000E+00  0.0000E+00  0.2000E+01  0.2000E+01
    -12.500  0.0000E+00  0.0000E+00  0.2000E+01  0.2000E+01
    -12.283  0.0000E+00  0.0000E+00  0.2000E+01  0.2000E+01
    -12.066  0.0000E+00  0.0000E+00  0.2000E+01  0.2000E+01
    -11.850  0.0000E+00  0.0000E+00  0.2000E+01  0.2000E+01
    -11.633  0.0000E+00  0.0000E+00  0.2000E+01  0.2000E+01
    -11.416  0.0000E+00  0.0000E+00  0.2000E+01  0.2000E+01
    -11.199  0.0000E+00  0.0000E+00  0.2000E+01  0.2000E+01
    -10.982  0.0000E+00  0.0000E+00  0.2000E+01  0.2000E+01
    -10.766  0.0000E+00  0.0000E+00  0.2000E+01  0.2000E+01
    -10.549  0.0000E+00  0.0000E+00  0.2000E+01  0.2000E+01
    -10.332  0.0000E+00  0.0000E+00  0.2000E+01  0.2000E+01
    -10.115  0.0000E+00  0.0000E+00  0.2000E+01  0.2000E+01
     -9.898  0.0000E+00  0.0000E+00  0.2000E+01  0.2000E+01
     -9.682  0.0000E+00  0.0000E+00  0.2000E+01  0.2000E+01
     -9.465  0.0000E+00  0.0000E+00  0.2000E+01  0.2000E+01
     -9.248  0.0000E+00  0.0000E+00  0.2000E+01  0.2000E+01
     -9.031  0.0000E+00  0.0000E+00  0.2000E+01  0.2000E+01
     -8.814  0.0000E+00  0.0000E+00  0.2000E+01  0.2000E+01
     -8.597  0.0000E+00  0.0000E+00  0.2000E+01  0.2000E+01
     -8.381  0.0000E+00  0.0000E+00  0.2000E+01  0.2000E+01
     -8.164  0.0000E+00  0.0000E+00  0.2000E+01  0.2000E+01
     -7.947  0.0000E+00  0.0000E+00  0.2000E+01  0.2000E+01
     -7.730  0.0000E+00  0.0000E+00  0.2000E+01  0.2000E+01
     -7.513  0.0000E+00  0.0000E+00  0.2000E+01  0.2000E+01
     -7.297  0.0000E+00  0.0000E+00  0.2000E+01  0.2000E+01
     -7.080  0.0000E+00  0.0000E+00  0.2000E+01  0.2000E+01
     -6.863  0.0000E+00  0.0000E+00  0.2000E+01  0.2000E+01
     -6.646  0.0000E+00  0.0000E+00  0.2000E+01  0.2000E+01
     -6.429  0.0000E+00  0.0000E+00  0.2000E+01  0.2000E+01
     -6.212  0.0000E+00  0.0000E+00  0.2000E+01  0.2000E+01
     -5.996  0.0000E+00  0.0000E+00  0.2000E+01  0.2000E+01
     -5.779  0.0000E+00  0.0000E+00  0.2000E+01  0.2000E+01
     -5.562  0.0000E+00  0.0000E+00  0.2000E+01  0.2000E+01
     -5.345  0.0000E+00  0.0000E+00  0.2000E+01  0.2000E+01
     -5.128  0.0000E+00  0.0000E+00  0.2000E+01  0.2000E+01
     -4.912  0.0000E+00  0.0000E+00  0.2000E+01  0.2000E+01
     -4.695  0.0000E+00  0.0000E+00  0.2000E+01  0.2000E+01
     -4.478  0.0000E+00  0.0000E+00  0.2000E+01  0.2000E+01
     -4.261  0.0000E+00  0.0000E+00  0.2000E+01  0.2000E+01
     -4.044  0.0000E+00  0.0000E+00  0.2000E+01  0.2000E+01
     -3.827  0.0000E+00  0.0000E+00  0.2000E+01  0.2000E+01
     -3.611  0.0000E+00  0.0000E+00  0.2000E+01  0.2000E+01
     -3.394  0.0000E+00  0.0000E+00  0.2000E+01  0.2000E+01
     -3.177  0.8492E-06  0.7551E-06  0.2000E+01  0.2000E+01
     -2.960  0.7014E-04  0.6239E-04  0.2000E+01  0.2000E+01
     -2.743  0.4483E-02  0.4054E-02  0.2001E+01  0.2001E+01
     -2.527  0.5112E-01  0.4941E-01  0.2012E+01  0.2012E+01
     -2.310  0.1098E+00  0.1090E+00  0.2036E+01  0.2035E+01
     -2.093  0.1456E+00  0.1440E+00  0.2068E+01  0.2067E+01
     -1.876  0.1715E+00  0.1714E+00  0.2105E+01  0.2104E+01
     -1.659  0.1885E+00  0.1866E+00  0.2146E+01  0.2145E+01
     -1.443  0.2309E+00  0.2317E+00  0.2196E+01  0.2195E+01
     -1.226  0.2007E+00  0.1988E+00  0.2240E+01  0.2238E+01
     -1.009  0.2850E+00  0.2845E+00  0.2302E+01  0.2301E+01
     -0.792  0.2451E+00  0.2483E+00  0.2356E+01  0.2355E+01
     -0.575  0.2860E+00  0.2860E+00  0.2418E+01  0.2417E+01
     -0.358  0.2933E+00  0.2907E+00  0.2482E+01  0.2480E+01
     -0.142  0.3620E+00  0.3631E+00  0.2561E+01  0.2559E+01
      0.075  0.2816E+00  0.2836E+00  0.2622E+01  0.2621E+01
      0.292  0.3619E+00  0.3572E+00  0.2701E+01  0.2699E+01
      0.509  0.4012E+00  0.4020E+00  0.2788E+01  0.2786E+01
      0.726  0.4045E+00  0.4023E+00  0.2876E+01  0.2874E+01
      0.942  0.4043E+00  0.4058E+00  0.2965E+01  0.2963E+01
      1.159  0.3843E+00  0.3822E+00  0.3049E+01  0.3047E+01
      1.376  0.6347E+00  0.6336E+00  0.3187E+01  0.3185E+01
      1.593  0.5041E+00  0.5028E+00  0.3297E+01  0.3294E+01
      1.810  0.5294E+00  0.5345E+00  0.3413E+01  0.3411E+01
      2.027  0.3765E+00  0.3801E+00  0.3495E+01  0.3494E+01
      2.243  0.2135E+00  0.2110E+00  0.3542E+01  0.3540E+01
      2.460  0.5632E+00  0.5606E+00  0.3664E+01  0.3662E+01
      2.677  0.3365E+00  0.3424E+00  0.3738E+01  0.3737E+01
      2.894  0.1925E+00  0.1922E+00  0.3780E+01  0.3779E+01
      3.111  0.1743E+00  0.1771E+00  0.3818E+01  0.3818E+01
      3.327  0.1082E+00  0.1069E+00  0.3842E+01  0.3841E+01
      3.544  0.2633E+00  0.2584E+00  0.3899E+01  0.3897E+01
      3.761  0.1932E+00  0.1997E+00  0.3941E+01  0.3941E+01
      3.978  0.3747E-01  0.3753E-01  0.3950E+01  0.3949E+01
      4.195  0.9816E-01  0.9550E-01  0.3971E+01  0.3970E+01
      4.411  0.1430E+00  0.1424E+00  0.4002E+01  0.4001E+01
      4.628  0.3531E+00  0.3465E+00  0.4079E+01  0.4077E+01
      4.845  0.6622E+00  0.6605E+00  0.4223E+01  0.4220E+01
      5.062  0.7789E+00  0.7749E+00  0.4392E+01  0.4388E+01
      5.279  0.4860E+00  0.4967E+00  0.4497E+01  0.4496E+01
      5.496  0.2903E+00  0.2872E+00  0.4561E+01  0.4559E+01
      5.712  0.7493E+00  0.7405E+00  0.4724E+01  0.4720E+01
      5.929  0.4392E+00  0.4500E+00  0.4819E+01  0.4818E+01
      6.146  0.2475E+00  0.2495E+00  0.4874E+01  0.4873E+01
      6.363  0.2404E+00  0.2378E+00  0.4927E+01  0.4925E+01
      6.580  0.6490E+00  0.6408E+00  0.5067E+01  0.5064E+01
      6.796  0.4641E+00  0.4741E+00  0.5168E+01  0.5167E+01
      7.013  0.2078E+00  0.2069E+00  0.5214E+01  0.5213E+01
      7.230  0.2752E+00  0.2764E+00  0.5274E+01  0.5273E+01
      7.447  0.3159E+00  0.3112E+00  0.5343E+01  0.5341E+01
      7.664  0.6415E+00  0.6399E+00  0.5482E+01  0.5480E+01
      7.881  0.6120E+00  0.6098E+00  0.5615E+01  0.5612E+01
      8.097  0.5307E+00  0.5350E+00  0.5730E+01  0.5729E+01
      8.314  0.4862E+00  0.4862E+00  0.5837E+01  0.5835E+01
      8.531  0.4708E+00  0.4724E+00  0.5940E+01  0.5938E+01
      8.748  0.7090E+00  0.7004E+00  0.6094E+01  0.6090E+01
      8.965  0.6591E+00  0.6656E+00  0.6237E+01  0.6235E+01
      9.181  0.4392E+00  0.4421E+00  0.6333E+01  0.6332E+01
      9.398  0.4620E+00  0.4590E+00  0.6434E+01  0.6432E+01
      9.615  0.3789E+00  0.3807E+00  0.6516E+01  0.6515E+01
      9.832  0.5467E+00  0.5418E+00  0.6636E+01  0.6633E+01
     10.049  0.6084E+00  0.6116E+00  0.6768E+01  0.6766E+01
     10.266  0.5112E+00  0.5136E+00  0.6880E+01  0.6879E+01
     10.482  0.2875E+00  0.2877E+00  0.6942E+01  0.6941E+01
     10.699  0.3069E+00  0.3055E+00  0.7009E+01  0.7008E+01
     10.916  0.4433E+00  0.4416E+00  0.7105E+01  0.7104E+01
     11.133  0.5930E+00  0.5910E+00  0.7234E+01  0.7232E+01
     11.350  0.5506E+00  0.5547E+00  0.7354E+01  0.7353E+01
     11.566  0.2859E+00  0.2880E+00  0.7417E+01  0.7416E+01
     11.783  0.2223E+00  0.2220E+00  0.7465E+01  0.7464E+01
     12.000  0.4209E+00  0.4022E+00  0.7556E+01  0.7552E+01
     12.217  0.3872E+00  0.3998E+00  0.7641E+01  0.7639E+01
     12.434  0.3787E+00  0.3847E+00  0.7723E+01  0.7723E+01
     12.650  0.4068E+00  0.4047E+00  0.7812E+01  0.7811E+01
     12.867  0.2518E+00  0.2523E+00  0.7867E+01  0.7866E+01
     13.084  0.1787E+00  0.1837E+00  0.7906E+01  0.7906E+01
     13.301  0.1369E+00  0.1423E+00  0.7936E+01  0.7937E+01
     13.518  0.1396E+00  0.1397E+00  0.7967E+01  0.7968E+01
     13.735  0.9283E-01  0.8632E-01  0.7987E+01  0.7987E+01
     13.951  0.5557E-01  0.5742E-01  0.7999E+01  0.7999E+01
     14.168  0.2701E-02  0.2959E-02  0.8000E+01  0.8000E+01
     14.385  0.0000E+00  0.0000E+00  0.8000E+01  0.8000E+01
     14.602  0.0000E+00  0.0000E+00  0.8000E+01  0.8000E+01
     14.819  0.0000E+00  0.0000E+00  0.8000E+01  0.8000E+01
     15.035  0.0000E+00  0.0000E+00  0.8000E+01  0.8000E+01
     15.252  0.0000E+00  0.0000E+00  0.8000E+01  0.8000E+01
     15.469  0.0000E+00  0.0000E+00  0.8000E+01  0.8000E+01
     15.686  0.0000E+00  0.0000E+00  0.8000E+01  0.8000E+01
     15.903  0.0000E+00  0.0000E+00  0.8000E+01  0.8000E+01
     16.120  0.0000E+00  0.0000E+00  0.8000E+01  0.8000E+01
     16.336  0.0000E+00  0.0000E+00  0.8000E+01  0.8000E+01
     16.553  0.0000E+00  0.0000E+00  0.8000E+01  0.8000E+01
     16.770  0.0000E+00  0.0000E+00  0.8000E+01  0.8000E+01
     16.76997971    -48.27465265  301      1.03488770      1.00000000
    -48.275  0.0000E+00  0.0000E+00  0.0000E+00  0.0000E+00  0.0000E+00  0.0000E+00  0.0000E+00  0.0000E+00  0.0000E+00  0.0000E+00  0.0000E+00  0.0000E+00  0.0000E+00  0.0000E+00  0.0000E+00  0.0000E+00  0.0000E+00  0.0000E+00
    -48.058  0.0000E+00  0.0000E+00  0.0000E+00  0.0000E+00  0.0000E+00  0.0000E+00  0.0000E+00  0.0000E+00  0.0000E+00  0.0000E+00  0.0000E+00  0.0000E+00  0.0000E+00  0.0000E+00  0.0000E+00  0.0000E+00  0.0000E+00  0.0000E+00
    -47.841  0.0000E+00  0.0000E+00  0.0000E+00  0.0000E+00  0.0000E+00  0.0000E+00  0.0000E+00  0.0000E+00  0.0000E+00  0.0000E+00  0.0000E+00  0.0000E+00  0.0000E+00  0.0000E+00  0.0000E+00  0.0000E+00  0.0000E+00  0.0000E+00
    -47.624  0.0000E+00  0.0000E+00  0.0000E+00  0.0000E+00  0.0000E+00  0.0000E+00  0.0000E+00  0.0000E+00  0.0000E+00  0.0000E+00  0.0000E+00  0.0000E+00  0.0000E+00  0.0000E+00  0.0000E+00  0.0000E+00  0.0000E+00  0.0000E+00
    -47.407  0.0000E+00  0.0000E+00  0.0000E+00  0.0000E+00  0.0000E+00  0.0000E+00  0.0000E+00  0.0000E+00  0.0000E+00  0.0000E+00  0.0000E+00  0.0000E+00  0.0000E+00  0.0000E+00  0.0000E+00  0.0000E+00  0.0000E+00  0.0000E+00
    -47.191  0.0000E+00  0.0000E+00  0.0000E+00  0.0000E+00  0.0000E+00  0.0000E+00  0.0000E+00  0.0000E+00  0.0000E+00  0.0000E+00  0.0000E+00  0.0000E+00  0.0000E+00  0.0000E+00  0.0000E+00  0.0000E+00  0.0000E+00  0.0000E+00
    -46.974  0.0000E+00  0.0000E+00  0.0000E+00  0.0000E+00  0.0000E+00  0.0000E+00  0.0000E+00  0.0000E+00  0.0000E+00  0.0000E+00  0.0000E+00  0.0000E+00  0.0000E+00  0.0000E+00  0.0000E+00  0.0000E+00  0.0000E+00  0.0000E+00
    -46.757  0.0000E+00  0.0000E+00  0.0000E+00  0.0000E+00  0.0000E+00  0.0000E+00  0.0000E+00  0.0000E+00  0.0000E+00  0.0000E+00  0.0000E+00  0.0000E+00  0.0000E+00  0.0000E+00  0.0000E+00  0.0000E+00  0.0000E+00  0.0000E+00
    -46.540  0.0000E+00  0.0000E+00  0.0000E+00  0.0000E+00  0.0000E+00  0.0000E+00  0.0000E+00  0.0000E+00  0.0000E+00  0.0000E+00  0.0000E+00  0.0000E+00  0.0000E+00  0.0000E+00  0.0000E+00  0.0000E+00  0.0000E+00  0.0000E+00
    -46.323  0.0000E+00  0.0000E+00  0.0000E+00  0.0000E+00  0.0000E+00  0.0000E+00  0.0000E+00  0.0000E+00  0.0000E+00  0.0000E+00  0.0000E+00  0.0000E+00  0.0000E+00  0.0000E+00  0.0000E+00  0.0000E+00  0.0000E+00  0.0000E+00
    -46.106  0.0000E+00  0.0000E+00  0.0000E+00  0.0000E+00  0.0000E+00  0.0000E+00  0.0000E+00  0.0000E+00  0.0000E+00  0.0000E+00  0.0000E+00  0.0000E+00  0.0000E+00  0.0000E+00  0.0000E+00  0.0000E+00  0.0000E+00  0.0000E+00
    -45.890  0.2627E-04  0.2123E-04  0.1924E-11  0.1519E-11  0.1924E-11  0.1519E-11  0.1924E-11  0.1519E-11  0.0000E+00  0.0000E+00  0.0000E+00  0.0000E+00  0.0000E+00  0.0000E+00  0.0000E+00  0.0000E+00  0.0000E+00  0.0000E+00
    -45.673  0.2063E-02  0.1812E-02  0.1610E-09  0.1401E-09  0.1610E-09  0.1401E-09  0.1610E-09  0.1401E-09  0.0000E+00  0.0000E+00  0.0000E+00  0.0000E+00  0.0000E+00  0.0000E+00  0.0000E+00  0.0000E+00  0.0000E+00  0.0000E+00
    -45.456  0.1520E+00  0.1340E+00  0.1184E-07  0.1034E-07  0.1184E-07  0.1034E-07  0.1184E-07  0.1034E-07  0.0000E+00  0.0000E+00  0.0000E+00  0.0000E+00  0.0000E+00  0.0000E+00  0.0000E+00  0.0000E+00  0.0000E+00  0.0000E+00
    -45.239  0.3143E+01  0.3039E+01  0.2383E-06  0.2289E-06  0.2383E-06  0.2289E-06  0.2383E-06  0.2289E-06  0.0000E+00  0.0000E+00  0.0000E+00  0.0000E+00  0.0000E+00  0.0000E+00  0.0000E+00  0.0000E+00  0.0000E+00  0.0000E+00
    -45.022  0.1243E+01  0.1363E+01  0.9277E-07  0.1011E-06  0.9277E-07  0.1011E-06  0.9277E-07  0.1011E-06  0.0000E+00  0.0000E+00  0.0000E+00  0.0000E+00  0.0000E+00  0.0000E+00  0.0000E+00  0.0000E+00  0.0000E+00  0.0000E+00
    -44.806  0.0000E+00  0.0000E+00  0.0000E+00  0.0000E+00  0.0000E+00  0.0000E+00  0.0000E+00  0.0000E+00  0.0000E+00  0.0000E+00  0.0000E+00  0.0000E+00  0.0000E+00  0.0000E+00  0.0000E+00  0.0000E+00  0.0000E+00  0.0000E+00
    -44.589  0.0000E+00  0.0000E+00  0.0000E+00  0.0000E+00  0.0000E+00  0.0000E+00  0.0000E+00  0.0000E+00  0.0000E+00  0.0000E+00  0.0000E+00  0.0000E+00  0.0000E+00  0.0000E+00  0.0000E+00  0.0000E+00  0.0000E+00  0.0000E+00
    -44.372  0.0000E+00  0.0000E+00  0.0000E+00  0.0000E+00  0.0000E+00  0.0000E+00  0.0000E+00  0.0000E+00  0.0000E+00  0.0000E+00  0.0000E+00  0.0000E+00  0.0000E+00  0.0000E+00  0.0000E+00  0.0000E+00  0.0000E+00  0.0000E+00
    -44.155  0.0000E+00  0.0000E+00  0.0000E+00  0.0000E+00  0.0000E+00  0.0000E+00  0.0000E+00  0.0000E+00  0.0000E+00  0.0000E+00  0.0000E+00  0.0000E+00  0.0000E+00  0.0000E+00  0.0000E+00  0.0000E+00  0.0000E+00  0.0000E+00
    -43.938  0.0000E+00  0.0000E+00  0.0000E+00  0.0000E+00  0.0000E+00  0.0000E+00  0.0000E+00  0.0000E+00  0.0000E+00  0.0000E+00  0.0000E+00  0.0000E+00  0.0000E+00  0.0000E+00  0.0000E+00  0.0000E+00  0.0000E+00  0.0000E+00
    -43.722  0.0000E+00  0.0000E+00  0.0000E+00  0.0000E+00  0.0000E+00  0.0000E+00  0.0000E+00  0.0000E+00  0.0000E+00  0.0000E+00  0.0000E+00  0.0000E+00  0.0000E+00  0.0000E+00  0.0000E+00  0.0000E+00  0.0000E+00  0.0000E+00
    -43.505  0.0000E+00  0.0000E+00  0.0000E+00  0.0000E+00  0.0000E+00  0.0000E+00  0.0000E+00  0.0000E+00  0.0000E+00  0.0000E+00  0.0000E+00  0.0000E+00  0.0000E+00  0.0000E+00  0.0000E+00  0.0000E+00  0.0000E+00  0.0000E+00
    -43.288  0.0000E+00  0.0000E+00  0.0000E+00  0.0000E+00  0.0000E+00  0.0000E+00  0.0000E+00  0.0000E+00  0.0000E+00  0.0000E+00  0.0000E+00  0.0000E+00  0.0000E+00  0.0000E+00  0.0000E+00  0.0000E+00  0.0000E+00  0.0000E+00
    -43.071  0.0000E+00  0.0000E+00  0.0000E+00  0.0000E+00  0.0000E+00  0.0000E+00  0.0000E+00  0.0000E+00  0.0000E+00  0.0000E+00  0.0000E+00  0.0000E+00  0.0000E+00  0.0000E+00  0.0000E+00  0.0000E+00  0.0000E+00  0.0000E+00
    -42.854  0.0000E+00  0.0000E+00  0.0000E+00  0.0000E+00  0.0000E+00  0.0000E+00  0.0000E+00  0.0000E+00  0.0000E+00  0.0000E+00  0.0000E+00  0.0000E+00  0.0000E+00  0.0000E+00  0.0000E+00  0.0000E+00  0.0000E+00  0.0000E+00
    -42.637  0.0000E+00  0.0000E+00  0.0000E+00  0.0000E+00  0.0000E+00  0.0000E+00  0.0000E+00  0.0000E+00  0.0000E+00  0.0000E+00  0.0000E+00  0.0000E+00  0.0000E+00  0.0000E+00  0.0000E+00  0.0000E+00  0.0000E+00  0.0000E+00
    -42.421  0.0000E+00  0.0000E+00  0.0000E+00  0.0000E+00  0.0000E+00  0.0000E+00  0.0000E+00  0.0000E+00  0.0000E+00  0.0000E+00  0.0000E+00  0.0000E+00  0.0000E+00  0.0000E+00  0.0000E+00  0.0000E+00  0.0000E+00  0.0000E+00
    -42.204  0.0000E+00  0.0000E+00  0.0000E+00  0.0000E+00  0.0000E+00  0.0000E+00  0.0000E+00  0.0000E+00  0.0000E+00  0.0000E+00  0.0000E+00  0.0000E+00  0.0000E+00  0.0000E+00  0.0000E+00  0.0000E+00  0.0000E+00  0.0000E+00
    -41.987  0.0000E+00  0.0000E+00  0.0000E+00  0.0000E+00  0.0000E+00  0.0000E+00  0.0000E+00  0.0000E+00  0.0000E+00  0.0000E+00  0.0000E+00  0.0000E+00  0.0000E+00  0.0000E+00  0.0000E+00  0.0000E+00  0.0000E+00  0.0000E+00
    -41.770  0.0000E+00  0.0000E+00  0.0000E+00  0.0000E+00  0.0000E+00  0.0000E+00  0.0000E+00  0.0000E+00  0.0000E+00  0.0000E+00  0.0000E+00  0.0000E+00  0.0000E+00  0.0000E+00  0.0000E+00  0.0000E+00  0.0000E+00  0.0000E+00
    -41.553  0.0000E+00  0.0000E+00  0.0000E+00  0.0000E+00  0.0000E+00  0.0000E+00  0.0000E+00  0.0000E+00  0.0000E+00  0.0000E+00  0.0000E+00  0.0000E+00  0.0000E+00  0.0000E+00  0.0000E+00  0.0000E+00  0.0000E+00  0.0000E+00
    -41.337  0.0000E+00  0.0000E+00  0.0000E+00  0.0000E+00  0.0000E+00  0.0000E+00  0.0000E+00  0.0000E+00  0.0000E+00  0.0000E+00  0.0000E+00  0.0000E+00  0.0000E+00  0.0000E+00  0.0000E+00  0.0000E+00  0.0000E+00  0.0000E+00
    -41.120  0.0000E+00  0.0000E+00  0.0000E+00  0.0000E+00  0.0000E+00  0.0000E+00  0.0000E+00  0.0000E+00  0.0000E+00  0.0000E+00  0.0000E+00  0.0000E+00  0.0000E+00  0.0000E+00  0.0000E+00  0.0000E+00  0.0000E+00  0.0000E+00
    -40.903  0.0000E+00  0.0000E+00  0.0000E+00  0.0000E+00  0.0000E+00  0.0000E+00  0.0000E+00  0.0000E+00  0.0000E+00  0.0000E+00  0.0000E+00  0.0000E+00  0.0000E+00  0.0000E+00  0.0000E+00  0.0000E+00  0.0000E+00  0.0000E+00
    -40.686  0.0000E+00  0.0000E+00  0.0000E+00  0.0000E+00  0.0000E+00  0.0000E+00  0.0000E+00  0.0000E+00  0.0000E+00  0.0000E+00  0.0000E+00  0.0000E+00  0.0000E+00  0.0000E+00  0.0000E+00  0.0000E+00  0.0000E+00  0.0000E+00
    -40.469  0.0000E+00  0.0000E+00  0.0000E+00  0.0000E+00  0.0000E+00  0.0000E+00  0.0000E+00  0.0000E+00  0.0000E+00  0.0000E+00  0.0000E+00  0.0000E+00  0.0000E+00  0.0000E+00  0.0000E+00  0.0000E+00  0.0000E+00  0.0000E+00
    -40.252  0.0000E+00  0.0000E+00  0.0000E+00  0.0000E+00  0.0000E+00  0.0000E+00  0.0000E+00  0.0000E+00  0.0000E+00  0.0000E+00  0.0000E+00  0.0000E+00  0.0000E+00  0.0000E+00  0.0000E+00  0.0000E+00  0.0000E+00  0.0000E+00
    -40.036  0.0000E+00  0.0000E+00  0.0000E+00  0.0000E+00  0.0000E+00  0.0000E+00  0.0000E+00  0.0000E+00  0.0000E+00  0.0000E+00  0.0000E+00  0.0000E+00  0.0000E+00  0.0000E+00  0.0000E+00  0.0000E+00  0.0000E+00  0.0000E+00
    -39.819  0.0000E+00  0.0000E+00  0.0000E+00  0.0000E+00  0.0000E+00  0.0000E+00  0.0000E+00  0.0000E+00  0.0000E+00  0.0000E+00  0.0000E+00  0.0000E+00  0.0000E+00  0.0000E+00  0.0000E+00  0.0000E+00  0.0000E+00  0.0000E+00
    -39.602  0.0000E+00  0.0000E+00  0.0000E+00  0.0000E+00  0.0000E+00  0.0000E+00  0.0000E+00  0.0000E+00  0.0000E+00  0.0000E+00  0.0000E+00  0.0000E+00  0.0000E+00  0.0000E+00  0.0000E+00  0.0000E+00  0.0000E+00  0.0000E+00
    -39.385  0.0000E+00  0.0000E+00  0.0000E+00  0.0000E+00  0.0000E+00  0.0000E+00  0.0000E+00  0.0000E+00  0.0000E+00  0.0000E+00  0.0000E+00  0.0000E+00  0.0000E+00  0.0000E+00  0.0000E+00  0.0000E+00  0.0000E+00  0.0000E+00
    -39.168  0.0000E+00  0.0000E+00  0.0000E+00  0.0000E+00  0.0000E+00  0.0000E+00  0.0000E+00  0.0000E+00  0.0000E+00  0.0000E+00  0.0000E+00  0.0000E+00  0.0000E+00  0.0000E+00  0.0000E+00  0.0000E+00  0.0000E+00  0.0000E+00
    -38.952  0.0000E+00  0.0000E+00  0.0000E+00  0.0000E+00  0.0000E+00  0.0000E+00  0.0000E+00  0.0000E+00  0.0000E+00  0.0000E+00  0.0000E+00  0.0000E+00  0.0000E+00  0.0000E+00  0.0000E+00  0.0000E+00  0.0000E+00  0.0000E+00
    -38.735  0.0000E+00  0.0000E+00  0.0000E+00  0.0000E+00  0.0000E+00  0.0000E+00  0.0000E+00  0.0000E+00  0.0000E+00  0.0000E+00  0.0000E+00  0.0000E+00  0.0000E+00  0.0000E+00  0.0000E+00  0.0000E+00  0.0000E+00  0.0000E+00
    -38.518  0.0000E+00  0.0000E+00  0.0000E+00  0.0000E+00  0.0000E+00  0.0000E+00  0.0000E+00  0.0000E+00  0.0000E+00  0.0000E+00  0.0000E+00  0.0000E+00  0.0000E+00  0.0000E+00  0.0000E+00  0.0000E+00  0.0000E+00  0.0000E+00
    -38.301  0.0000E+00  0.0000E+00  0.0000E+00  0.0000E+00  0.0000E+00  0.0000E+00  0.0000E+00  0.0000E+00  0.0000E+00  0.0000E+00  0.0000E+00  0.0000E+00  0.0000E+00  0.0000E+00  0.0000E+00  0.0000E+00  0.0000E+00  0.0000E+00
    -38.084  0.0000E+00  0.0000E+00  0.0000E+00  0.0000E+00  0.0000E+00  0.0000E+00  0.0000E+00  0.0000E+00  0.0000E+00  0.0000E+00  0.0000E+00  0.0000E+00  0.0000E+00  0.0000E+00  0.0000E+00  0.0000E+00  0.0000E+00  0.0000E+00
    -37.868  0.0000E+00  0.0000E+00  0.0000E+00  0.0000E+00  0.0000E+00  0.0000E+00  0.0000E+00  0.0000E+00  0.0000E+00  0.0000E+00  0.0000E+00  0.0000E+00  0.0000E+00  0.0000E+00  0.0000E+00  0.0000E+00  0.0000E+00  0.0000E+00
    -37.651  0.0000E+00  0.0000E+00  0.0000E+00  0.0000E+00  0.0000E+00  0.0000E+00  0.0000E+00  0.0000E+00  0.0000E+00  0.0000E+00  0.0000E+00  0.0000E+00  0.0000E+00  0.0000E+00  0.0000E+00  0.0000E+00  0.0000E+00  0.0000E+00
    -37.434  0.0000E+00  0.0000E+00  0.0000E+00  0.0000E+00  0.0000E+00  0.0000E+00  0.0000E+00  0.0000E+00  0.0000E+00  0.0000E+00  0.0000E+00  0.0000E+00  0.0000E+00  0.0000E+00  0.0000E+00  0.0000E+00  0.0000E+00  0.0000E+00