   2   2   1   0
  0.1516236E+02  0.3118404E-09  0.3118404E-09  0.3118404E-09  0.5000000E-15
  1.000000000000000E-004
  CAR 
 unknown system                          
     18.87200725    -47.56636746  301      1.56581043      1.00000000
    -47.566  0.0000E+00  0.0000E+00  0.0000E+00  0.0000E+00
    -47.345  0.0000E+00  0.0000E+00  0.0000E+00  0.0000E+00
    -47.123  0.0000E+00  0.0000E+00  0.0000E+00  0.0000E+00
    -46.902  0.0000E+00  0.0000E+00  0.0000E+00  0.0000E+00
    -46.681  0.0000E+00  0.0000E+00  0.0000E+00  0.0000E+00
    -46.459  0.0000E+00  0.0000E+00  0.0000E+00  0.0000E+00
    -46.238  0.0000E+00  0.0000E+00  0.0000E+00  0.0000E+00
    -46.016  0.0000E+00  0.0000E+00  0.0000E+00  0.0000E+00
    -45.795  0.0000E+00  0.0000E+00  0.0000E+00  0.0000E+00
    -45.573  0.0000E+00  0.0000E+00  0.0000E+00  0.0000E+00
    -45.352  0.0000E+00  0.0000E+00  0.0000E+00  0.0000E+00
    -45.130  0.7271E-05  0.4795E-05  0.1610E-05  0.1062E-05
    -44.909  0.2263E-02  0.1981E-02  0.5027E-03  0.4398E-03
    -44.687  0.1837E+00  0.1611E+00  0.4118E-01  0.3613E-01
    -44.466  0.5418E+01  0.5160E+01  0.1241E+01  0.1179E+01
    -44.244  0.3359E+01  0.3631E+01  0.1985E+01  0.1983E+01
    -44.023  0.0000E+00  0.0000E+00  0.2000E+01  0.2000E+01
    -43.802  0.0000E+00  0.0000E+00  0.2000E+01  0.2000E+01
    -43.580  0.0000E+00  0.0000E+00  0.2000E+01  0.2000E+01
    -43.359  0.0000E+00  0.0000E+00  0.2000E+01  0.2000E+01
    -43.137  0.0000E+00  0.0000E+00  0.2000E+01  0.2000E+01
    -42.916  0.0000E+00  0.0000E+00  0.2000E+01  0.2000E+01
    -42.694  0.0000E+00  0.0000E+00  0.2000E+01  0.2000E+01
    -42.473  0.0000E+00  0.0000E+00  0.2000E+01  0.2000E+01
    -42.251  0.0000E+00  0.0000E+00  0.2000E+01  0.2000E+01
    -42.030  0.0000E+00  0.0000E+00  0.2000E+01  0.2000E+01
    -41.808  0.0000E+00  0.0000E+00  0.2000E+01  0.2000E+01
    -41.587  0.0000E+00  0.0000E+00  0.2000E+01  0.2000E+01
    -41.365  0.0000E+00  0.0000E+00  0.2000E+01  0.2000E+01
    -41.144  0.0000E+00  0.0000E+00  0.2000E+01  0.2000E+01
    -40.923  0.0000E+00  0.0000E+00  0.2000E+01  0.2000E+01
    -40.701  0.0000E+00  0.0000E+00  0.2000E+01  0.2000E+01
    -40.480  0.0000E+00  0.0000E+00  0.2000E+01  0.2000E+01
    -40.258  0.0000E+00  0.0000E+00  0.2000E+01  0.2000E+01
    -40.037  0.0000E+00  0.0000E+00  0.2000E+01  0.2000E+01
    -39.815  0.0000E+00  0.0000E+00  0.2000E+01  0.2000E+01
    -39.594  0.0000E+00  0.0000E+00  0.2000E+01  0.2000E+01
    -39.372  0.0000E+00  0.0000E+00  0.2000E+01  0.2000E+01
    -39.151  0.0000E+00  0.0000E+00  0.2000E+01  0.2000E+01
    -38.929  0.0000E+00  0.0000E+00  0.2000E+01  0.2000E+01
    -38.708  0.0000E+00  0.0000E+00  0.2000E+01  0.2000E+01
    -38.486  0.0000E+00  0.0000E+00  0.2000E+01  0.2000E+01
    -38.265  0.0000E+00  0.0000E+00  0.2000E+01  0.2000E+01
    -38.044  0.0000E+00  0.0000E+00  0.2000E+01  0.2000E+01
    -37.822  0.0000E+00  0.0000E+00  0.2000E+01  0.2000E+01
    -37.601  0.0000E+00  0.0000E+00  0.2000E+01  0.2000E+01
    -37.379  0.0000E+00  0.0000E+00  0.2000E+01  0.2000E+01
    -37.158  0.0000E+00  0.0000E+00  0.2000E+01  0.2000E+01
    -36.936  0.0000E+00  0.0000E+00  0.2000E+01  0.2000E+01
    -36.715  0.0000E+00  0.0000E+00  0.2000E+01  0.2000E+01
    -36.493  0.0000E+00  0.0000E+00  0.2000E+01  0.2000E+01
    -36.272  0.0000E+00  0.0000E+00  0.2000E+01  0.2000E+01
    -36.050  0.0000E+00  0.0000E+00  0.2000E+01  0.2000E+01
    -35.829  0.0000E+00  0.0000E+00  0.2000E+01  0.2000E+01
    -35.607  0.0000E+00  0.0000E+00  0.2000E+01  0.2000E+01
    -35.386  0.0000E+00  0.0000E+00  0.2000E+01  0.2000E+01
    -35.165  0.0000E+00  0.0000E+00  0.2000E+01  0.2000E+01
    -34.943  0.0000E+00  0.0000E+00  0.2000E+01  0.2000E+01
    -34.722  0.0000E+00  0.0000E+00  0.2000E+01  0.2000E+01
    -34.500  0.0000E+00  0.0000E+00  0.2000E+01  0.2000E+01
    -34.279  0.0000E+00  0.0000E+00  0.2000E+01  0.2000E+01
    -34.057  0.0000E+00  0.0000E+00  0.2000E+01  0.2000E+01
    -33.836  0.0000E+00  0.0000E+00  0.2000E+01  0.2000E+01
    -33.614  0.0000E+00  0.0000E+00  0.2000E+01  0.2000E+01
    -33.393  0.0000E+00  0.0000E+00  0.2000E+01  0.2000E+01
    -33.171  0.0000E+00  0.0000E+00  0.2000E+01  0.2000E+01
    -32.950  0.0000E+00  0.0000E+00  0.2000E+01  0.2000E+01
    -32.728  0.0000E+00  0.0000E+00  0.2000E+01  0.2000E+01
    -32.507  0.0000E+00  0.0000E+00  0.2000E+01  0.2000E+01
    -32.286  0.0000E+00  0.0000E+00  0.2000E+01  0.2000E+01
    -32.064  0.0000E+00  0.0000E+00  0.2000E+01  0.2000E+01
    -31.843  0.0000E+00  0.0000E+00  0.2000E+01  0.2000E+01
    -31.621  0.0000E+00  0.0000E+00  0.2000E+01  0.2000E+01
    -31.400  0.0000E+00  0.0000E+00  0.2000E+01  0.2000E+01
    -31.178  0.0000E+00  0.0000E+00  0.2000E+01  0.2000E+01
    -30.957  0.0000E+00  0.0000E+00  0.2000E+01  0.2000E+01
    -30.735  0.0000E+00  0.0000E+00  0.2000E+01  0.2000E+01
    -30.514  0.0000E+00  0.0000E+00  0.2000E+01  0.2000E+01
    -30.292  0.0000E+00  0.0000E+00  0.2000E+01  0.2000E+01
    -30.071  0.0000E+00  0.0000E+00  0.2000E+01  0.2000E+01
    -29.849  0.0000E+00  0.0000E+00  0.2000E+01  0.2000E+01
    -29.628  0.0000E+00  0.0000E+00  0.2000E+01  0.2000E+01
    -29.407  0.0000E+00  0.0000E+00  0.2000E+01  0.2000E+01
    -29.185  0.0000E+00  0.0000E+00  0.2000E+01  0.2000E+01
    -28.964  0.0000E+00  0.0000E+00  0.2000E+01  0.2000E+01
    -28.742  0.0000E+00  0.0000E+00  0.2000E+01  0.2000E+01
    -28.521  0.0000E+00  0.0000E+00  0.2000E+01  0.2000E+01
    -28.299  0.0000E+00  0.0000E+00  0.2000E+01  0.2000E+01
    -28.078  0.0000E+00  0.0000E+00  0.2000E+01  0.2000E+01
    -27.856  0.0000E+00  0.0000E+00  0.2000E+01  0.2000E+01
    -27.635  0.0000E+00  0.0000E+00  0.2000E+01  0.2000E+01
    -27.413  0.0000E+00  0.0000E+00  0.2000E+01  0.2000E+01
    -27.192  0.0000E+00  0.0000E+00  0.2000E+01  0.2000E+01
    -26.970  0.0000E+00  0.0000E+00  0.2000E+01  0.2000E+01
    -26.749  0.0000E+00  0.0000E+00  0.2000E+01  0.2000E+01
    -26.528  0.0000E+00  0.0000E+00  0.2000E+01  0.2000E+01
    -26.306  0.0000E+00  0.0000E+00  0.2000E+01  0.2000E+01
    -26.085  0.0000E+00  0.0000E+00  0.2000E+01  0.2000E+01
    -25.863  0.0000E+00  0.0000E+00  0.2000E+01  0.2000E+01
    -25.642  0.0000E+00  0.0000E+00  0.2000E+01  0.2000E+01
    -25.420  0.0000E+00  0.0000E+00  0.2000E+01  0.2000E+01
    -25.199  0.0000E+00  0.0000E+00  0.2000E+01  0.2000E+01
    -24.977  0.0000E+00  0.0000E+00  0.2000E+01  0.2000E+01
    -24.756  0.0000E+00  0.0000E+00  0.2000E+01  0.2000E+01
    -24.534  0.0000E+00  0.0000E+00  0.2000E+01  0.2000E+01
    -24.313  0.0000E+00  0.0000E+00  0.2000E+01  0.2000E+01
    -24.091  0.0000E+00  0.0000E+00  0.2000E+01  0.2000E+01
    -23.870  0.0000E+00  0.0000E+00  0.2000E+01  0.2000E+01
    -23.649  0.0000E+00  0.0000E+00  0.2000E+01  0.2000E+01
    -23.427  0.0000E+00  0.0000E+00  0.2000E+01  0.2000E+01
    -23.206  0.0000E+00  0.0000E+00  0.2000E+01  0.2000E+01
    -22.984  0.0000E+00  0.0000E+00  0.2000E+01  0.2000E+01
    -22.763  0.0000E+00  0.0000E+00  0.2000E+01  0.2000E+01
    -22.541  0.0000E+00  0.0000E+00  0.2000E+01  0.2000E+01
    -22.320  0.0000E+00  0.0000E+00  0.2000E+01  0.2000E+01
    -22.098  0.0000E+00  0.0000E+00  0.2000E+01  0.2000E+01
    -21.877  0.0000E+00  0.0000E+00  0.2000E+01  0.2000E+01
    -21.655  0.0000E+00  0.0000E+00  0.2000E+01  0.2000E+01
    -21.434  0.0000E+00  0.0000E+00  0.2000E+01  0.2000E+01
    -21.212  0.0000E+00  0.0000E+00  0.2000E+01  0.2000E+01
    -20.991  0.0000E+00  0.0000E+00  0.2000E+01  0.2000E+01
    -20.770  0.0000E+00  0.0000E+00  0.2000E+01  0.2000E+01
    -20.548  0.0000E+00  0.0000E+00  0.2000E+01  0.2000E+01
    -20.327  0.0000E+00  0.0000E+00  0.2000E+01  0.2000E+01
    -20.105  0.0000E+00  0.0000E+00  0.2000E+01  0.2000E+01
    -19.884  0.0000E+00  0.0000E+00  0.2000E+01  0.2000E+01
    -19.662  0.0000E+00  0.0000E+00  0.2000E+01  0.2000E+01
    -19.441  0.0000E+00  0.0000E+00  0.2000E+01  0.2000E+01
    -19.219  0.0000E+00  0.0000E+00  0.2000E+01  0.2000E+01
    -18.998  0.0000E+00  0.0000E+00  0.2000E+01  0.2000E+01
    -18.776  0.0000E+00  0.0000E+00  0.2000E+01  0.2000E+01
    -18.555  0.0000E+00  0.0000E+00  0.2000E+01  0.2000E+01
    -18.333  0.0000E+00  0.0000E+00  0.2000E+01  0.2000E+01
    -18.112  0.0000E+00  0.0000E+00  0.2000E+01  0.2000E+01
    -17.891  0.0000E+00  0.0000E+00  0.2000E+01  0.2000E+01
    -17.669  0.0000E+00  0.0000E+00  0.2000E+01  0.2000E+01
    -17.448  0.0000E+00  0.0000E+00  0.2000E+01  0.2000E+01
    -17.226  0.0000E+00  0.0000E+00  0.2000E+01  0.2000E+01
    -17.005  0.0000E+00  0.0000E+00  0.2000E+01  0.2000E+01
    -16.783  0.0000E+00  0.0000E+00  0.2000E+01  0.2000E+01
    -16.562  0.0000E+00  0.0000E+00  0.2000E+01  0.2000E+01
    -16.340  0.0000E+00  0.0000E+00  0.2000E+01  0.2000E+01
    -16.119  0.0000E+00  0.0000E+00  0.2000E+01  0.2000E+01
    -15.897  0.0000E+00  0.0000E+00  0.2000E+01  0.2000E+01
    -15.676  0.0000E+00  0.0000E+00  0.2000E+01  0.2000E+01
    -15.454  0.0000E+00  0.0000E+00  0.2000E+01  0.2000E+01
    -15.233  0.0000E+00  0.0000E+00  0.2000E+01  0.2000E+01
    -15.012  0.0000E+00  0.0000E+00  0.2000E+01  0.2000E+01
    -14.790  0.0000E+00  0.0000E+00  0.2000E+01  0.2000E+01
    -14.569  0.0000E+00  0.0000E+00  0.2000E+01  0.2000E+01
    -14.347  0.0000E+00  0.0000E+00  0.2000E+01  0.2000E+01
    -14.126  0.0000E+00  0.0000E+00  0.2000E+01  0.2000E+01
    -13.904  0.0000E+00  0.0000E+00  0.2000E+01  0.2000E+01
    -13.683  0.0000E+00  0.0000E+00  0.2000E+01  0.2000E+01
    -13.461  0.0000E+00  0.0000E+00  0.2000E+01  0.2000E+01
    -13.240  0.0000E+00  0.0000E+00  0.2000E+01  0.2000E+01
    -13.018  0.0000E+00  0.0000E+00  0.2000E+01  0.2000E+01
    -12.797  0.0000E+00  0.0000E+00  0.2000E+01  0.2000E+01
    -12.575  0.0000E+00  0.0000E+00  0.2000E+01  0.2000E+01
    -12.354  0.0000E+00  0.0000E+00  0.2000E+01  0.2000E+01
    -12.133  0.0000E+00  0.0000E+00  0.2000E+01  0.2000E+01
    -11.911  0.0000E+00  0.0000E+00  0.2000E+01  0.2000E+01
    -11.690  0.0000E+00  0.0000E+00  0.2000E+01  0.2000E+01
    -11.468  0.0000E+00  0.0000E+00  0.2000E+01  0.2000E+01
    -11.247  0.0000E+00  0.0000E+00  0.2000E+01  0.2000E+01
    -11.025  0.0000E+00  0.0000E+00  0.2000E+01  0.2000E+01
    -10.804  0.0000E+00  0.0000E+00  0.2000E+01  0.2000E+01
    -10.582  0.0000E+00  0.0000E+00  0.2000E+01  0.2000E+01
    -10.361  0.0000E+00  0.0000E+00  0.2000E+01  0.2000E+01
    -10.139  0.0000E+00  0.0000E+00  0.2000E+01  0.2000E+01
     -9.918  0.0000E+00  0.0000E+00  0.2000E+01  0.2000E+01
     -9.696  0.0000E+00  0.0000E+00  0.2000E+01  0.2000E+01
     -9.475  0.0000E+00  0.0000E+00  0.2000E+01  0.2000E+01
     -9.254  0.0000E+00  0.0000E+00  0.2000E+01  0.2000E+01
     -9.032  0.0000E+00  0.0000E+00  0.2000E+01  0.2000E+01
     -8.811  0.0000E+00  0.0000E+00  0.2000E+01  0.2000E+01
     -8.589  0.0000E+00  0.0000E+00  0.2000E+01  0.2000E+01
     -8.368  0.0000E+00  0.0000E+00  0.2000E+01  0.2000E+01
     -8.146  0.0000E+00  0.0000E+00  0.2000E+01  0.2000E+01
     -7.925  0.0000E+00  0.0000E+00  0.2000E+01  0.2000E+01
     -7.703  0.0000E+00  0.0000E+00  0.2000E+01  0.2000E+01
     -7.482  0.0000E+00  0.0000E+00  0.2000E+01  0.2000E+01
     -7.260  0.0000E+00  0.0000E+00  0.2000E+01  0.2000E+01
     -7.039  0.0000E+00  0.0000E+00  0.2000E+01  0.2000E+01
     -6.817  0.0000E+00  0.0000E+00  0.2000E+01  0.2000E+01
     -6.596  0.0000E+00  0.0000E+00  0.2000E+01  0.2000E+01
     -6.375  0.0000E+00  0.0000E+00  0.2000E+01  0.2000E+01
     -6.153  0.0000E+00  0.0000E+00  0.2000E+01  0.2000E+01
     -5.932  0.0000E+00  0.0000E+00  0.2000E+01  0.2000E+01
     -5.710  0.0000E+00  0.0000E+00  0.2000E+01  0.2000E+01
     -5.489  0.0000E+00  0.0000E+00  0.2000E+01  0.2000E+01
     -5.267  0.0000E+00  0.0000E+00  0.2000E+01  0.2000E+01
     -5.046  0.0000E+00  0.0000E+00  0.2000E+01  0.2000E+01
     -4.824  0.0000E+00  0.0000E+00  0.2000E+01  0.2000E+01
     -4.603  0.0000E+00  0.0000E+00  0.2000E+01  0.2000E+01
     -4.381  0.0000E+00  0.0000E+00  0.2000E+01  0.2000E+01
     -4.160  0.0000E+00  0.0000E+00  0.2000E+01  0.2000E+01
     -3.939  0.0000E+00  0.0000E+00  0.2000E+01  0.2000E+01
     -3.717  0.0000E+00  0.0000E+00  0.2000E+01  0.2000E+01
     -3.496  0.0000E+00  0.0000E+00  0.2000E+01  0.2000E+01
     -3.274  0.0000E+00  0.0000E+00  0.2000E+01  0.2000E+01
     -3.053  0.0000E+00  0.0000E+00  0.2000E+01  0.2000E+01
     -2.831  0.6154E-06  0.5387E-06  0.2000E+01  0.2000E+01
     -2.610  0.5526E-04  0.4820E-04  0.2000E+01  0.2000E+01
     -2.388  0.3909E-02  0.3485E-02  0.2001E+01  0.2001E+01
     -2.167  0.4787E-01  0.4608E-01  0.2011E+01  0.2011E+01
     -1.945  0.1050E+00  0.1041E+00  0.2035E+01  0.2034E+01
     -1.724  0.1361E+00  0.1345E+00  0.2065E+01  0.2064E+01
     -1.502  0.1636E+00  0.1632E+00  0.2101E+01  0.2100E+01
     -1.281  0.1712E+00  0.1709E+00  0.2140E+01  0.2138E+01
     -1.060  0.2246E+00  0.2248E+00  0.2190E+01  0.2188E+01
     -0.838  0.1797E+00  0.1793E+00  0.2230E+01  0.2228E+01
     -0.617  0.2674E+00  0.2663E+00  0.2289E+01  0.2288E+01
     -0.395  0.2464E+00  0.2483E+00  0.2344E+01  0.2343E+01
     -0.174  0.2674E+00  0.2658E+00  0.2404E+01  0.2402E+01
      0.048  0.2579E+00  0.2572E+00  0.2461E+01  0.2459E+01
      0.269  0.3532E+00  0.3526E+00  0.2540E+01  0.2538E+01
      0.491  0.2968E+00  0.2984E+00  0.2606E+01  0.2604E+01
      0.712  0.2744E+00  0.2706E+00  0.2667E+01  0.2664E+01
      0.934  0.3810E+00  0.3818E+00  0.2751E+01  0.2749E+01
      1.155  0.3670E+00  0.3662E+00  0.2833E+01  0.2831E+01
      1.377  0.4160E+00  0.4181E+00  0.2926E+01  0.2924E+01
      1.598  0.3876E+00  0.3881E+00  0.3012E+01  0.3010E+01
      1.819  0.4748E+00  0.4662E+00  0.3118E+01  0.3114E+01
      2.041  0.5071E+00  0.5126E+00  0.3230E+01  0.3228E+01
      2.262  0.5198E+00  0.5185E+00  0.3347E+01  0.3344E+01
      2.484  0.4502E+00  0.4523E+00  0.3447E+01  0.3445E+01
      2.705  0.2789E+00  0.2849E+00  0.3509E+01  0.3508E+01
      2.927  0.2260E+00  0.2185E+00  0.3559E+01  0.3557E+01
      3.148  0.5312E+00  0.5312E+00  0.3677E+01  0.3675E+01
      3.370  0.2848E+00  0.2905E+00  0.3741E+01  0.3740E+01
      3.591  0.1762E+00  0.1770E+00  0.3781E+01  0.3780E+01
      3.813  0.1641E+00  0.1671E+00  0.3818E+01  0.3817E+01
      4.034  0.9290E-01  0.9172E-01  0.3839E+01  0.3838E+01
      4.256  0.1611E+00  0.1561E+00  0.3874E+01  0.3873E+01
      4.477  0.2781E+00  0.2831E+00  0.3936E+01  0.3935E+01
      4.698  0.4411E-01  0.4542E-01  0.3946E+01  0.3946E+01
      4.920  0.3954E-01  0.3861E-01  0.3955E+01  0.3955E+01
      5.141  0.1387E+00  0.1382E+00  0.3986E+01  0.3986E+01
      5.363  0.1510E+00  0.1474E+00  0.4019E+01  0.4018E+01
      5.584  0.2782E+00  0.2752E+00  0.4081E+01  0.4079E+01
      5.806  0.4696E+00  0.4695E+00  0.4186E+01  0.4184E+01
      6.027  0.5766E+00  0.5665E+00  0.4314E+01  0.4310E+01
      6.249  0.6905E+00  0.6984E+00  0.4467E+01  0.4465E+01
      6.470  0.2974E+00  0.3001E+00  0.4534E+01  0.4533E+01
      6.692  0.4134E+00  0.4061E+00  0.4626E+01  0.4623E+01
      6.913  0.6717E+00  0.6759E+00  0.4776E+01  0.4773E+01
      7.135  0.3317E+00  0.3351E+00  0.4850E+01  0.4848E+01
      7.356  0.2196E+00  0.2214E+00  0.4899E+01  0.4898E+01
      7.577  0.2597E+00  0.2553E+00  0.4957E+01  0.4955E+01
      7.799  0.5885E+00  0.5819E+00  0.5088E+01  0.5084E+01
      8.020  0.3891E+00  0.3992E+00  0.5174E+01  0.5173E+01
      8.242  0.2013E+00  0.2008E+00  0.5220E+01  0.5219E+01
      8.463  0.2571E+00  0.2581E+00  0.5277E+01  0.5277E+01
      8.685  0.2332E+00  0.2315E+00  0.5329E+01  0.5328E+01
      8.906  0.5071E+00  0.5002E+00  0.5441E+01  0.5439E+01
      9.128  0.5301E+00  0.5336E+00  0.5559E+01  0.5557E+01
      9.349  0.4761E+00  0.4784E+00  0.5666E+01  0.5664E+01
      9.571  0.3006E+00  0.3025E+00  0.5733E+01  0.5731E+01
      9.792  0.5446E+00  0.5425E+00  0.5854E+01  0.5852E+01
     10.014  0.3776E+00  0.3760E+00  0.5938E+01  0.5935E+01
     10.235  0.7575E+00  0.7559E+00  0.6106E+01  0.6104E+01
     10.456  0.5079E+00  0.5102E+00  0.6219E+01  0.6217E+01
     10.678  0.4666E+00  0.4693E+00  0.6323E+01  0.6322E+01
     10.899  0.4007E+00  0.4014E+00  0.6413E+01  0.6411E+01
     11.121  0.3667E+00  0.3660E+00  0.6495E+01  0.6493E+01
     11.342  0.4465E+00  0.4423E+00  0.6594E+01  0.6592E+01
     11.564  0.6804E+00  0.6839E+00  0.6745E+01  0.6744E+01
     11.785  0.3700E+00  0.3701E+00  0.6828E+01  0.6827E+01
     12.007  0.3508E+00  0.3527E+00  0.6906E+01  0.6905E+01
     12.228  0.2780E+00  0.2779E+00  0.6968E+01  0.6967E+01
     12.450  0.3951E+00  0.3904E+00  0.7056E+01  0.7054E+01
     12.671  0.4023E+00  0.4059E+00  0.7145E+01  0.7144E+01
     12.893  0.5471E+00  0.5407E+00  0.7267E+01  0.7265E+01
     13.114  0.4895E+00  0.4952E+00  0.7376E+01  0.7375E+01
     13.335  0.1953E+00  0.1993E+00  0.7421E+01  0.7421E+01
     13.557  0.1574E+00  0.1549E+00  0.7457E+01  0.7456E+01
     13.778  0.4212E+00  0.4139E+00  0.7550E+01  0.7548E+01
     14.000  0.3485E+00  0.3557E+00  0.7627E+01  0.7627E+01
     14.221  0.3520E+00  0.3531E+00  0.7706E+01  0.7706E+01
     14.443  0.3838E+00  0.3796E+00  0.7792E+01  0.7790E+01
     14.664  0.2475E+00  0.2532E+00  0.7847E+01  0.7847E+01
     14.886  0.1386E+00  0.1389E+00  0.7878E+01  0.7878E+01
     15.107  0.1846E+00  0.1852E+00  0.7919E+01  0.7919E+01
     15.329  0.1359E+00  0.1330E+00  0.7949E+01  0.7949E+01
     15.550  0.1151E+00  0.1169E+00  0.7975E+01  0.7975E+01
     15.772  0.6431E-01  0.6305E-01  0.7989E+01  0.7989E+01
     15.993  0.4523E-01  0.4695E-01  0.7999E+01  0.7999E+01
     16.214  0.2100E-02  0.2743E-02  0.8000E+01  0.8000E+01
     16.436  0.0000E+00  0.0000E+00  0.8000E+01  0.8000E+01
     16.657  0.0000E+00  0.0000E+00  0.8000E+01  0.8000E+01
     16.879  0.0000E+00  0.0000E+00  0.8000E+01  0.8000E+01
     17.100  0.0000E+00  0.0000E+00  0.8000E+01  0.8000E+01
     17.322  0.0000E+00  0.0000E+00  0.8000E+01  0.8000E+01
     17.543  0.0000E+00  0.0000E+00  0.8000E+01  0.8000E+01
     17.765  0.0000E+00  0.0000E+00  0.8000E+01  0.8000E+01
     17.986  0.0000E+00  0.0000E+00  0.8000E+01  0.8000E+01
     18.208  0.0000E+00  0.0000E+00  0.8000E+01  0.8000E+01
     18.429  0.0000E+00  0.0000E+00  0.8000E+01  0.8000E+01
     18.651  0.0000E+00  0.0000E+00  0.8000E+01  0.8000E+01
     18.872  0.0000E+00  0.0000E+00  0.8000E+01  0.8000E+01
     18.87200725    -47.56636746  301      1.56581043      1.00000000
    -47.566  0.0000E+00  0.0000E+00  0.0000E+00  0.0000E+00  0.0000E+00  0.0000E+00  0.0000E+00  0.0000E+00  0.0000E+00  0.0000E+00  0.0000E+00  0.0000E+00  0.0000E+00  0.0000E+00  0.0000E+00  0.0000E+00  0.0000E+00  0.0000E+00
    -47.345  0.0000E+00  0.0000E+00  0.0000E+00  0.0000E+00  0.0000E+00  0.0000E+00  0.0000E+00  0.0000E+00  0.0000E+00  0.0000E+00  0.0000E+00  0.0000E+00  0.0000E+00  0.0000E+00  0.0000E+00  0.0000E+00  0.0000E+00  0.0000E+00
    -47.123  0.0000E+00  0.0000E+00  0.0000E+00  0.0000E+00  0.0000E+00  0.0000E+00  0.0000E+00  0.0000E+00  0.0000E+00  0.0000E+00  0.0000E+00  0.0000E+00  0.0000E+00  0.0000E+00  0.0000E+00  0.0000E+00  0.0000E+00  0.0000E+00
    -46.902  0.0000E+00  0.0000E+00  0.0000E+00  0.0000E+00  0.0000E+00  0.0000E+00  0.0000E+00  0.0000E+00  0.0000E+00  0.0000E+00  0.0000E+00  0.0000E+00  0.0000E+00  0.0000E+00  0.0000E+00  0.0000E+00  0.0000E+00  0.0000E+00
    -46.681  0.0000E+00  0.0000E+00  0.0000E+00  0.0000E+00  0.0000E+00  0.0000E+00  0.0000E+00  0.0000E+00  0.0000E+00  0.0000E+00  0.0000E+00  0.0000E+00  0.0000E+00  0.0000E+00  0.0000E+00  0.0000E+00  0.0000E+00  0.0000E+00
    -46.459  0.0000E+00  0.0000E+00  0.0000E+00  0.0000E+00  0.0000E+00  0.0000E+00  0.0000E+00  0.0000E+00  0.0000E+00  0.0000E+00  0.0000E+00  0.0000E+00  0.0000E+00  0.0000E+00  0.0000E+00  0.0000E+00  0.0000E+00  0.0000E+00
    -46.238  0.0000E+00  0.0000E+00  0.0000E+00  0.0000E+00  0.0000E+00  0.0000E+00  0.0000E+00  0.0000E+00  0.0000E+00  0.0000E+00  0.0000E+00  0.0000E+00  0.0000E+00  0.0000E+00  0.0000E+00  0.0000E+00  0.0000E+00  0.0000E+00
    -46.016  0.0000E+00  0.0000E+00  0.0000E+00  0.0000E+00  0.0000E+00  0.0000E+00  0.0000E+00  0.0000E+00  0.0000E+00  0.0000E+00  0.0000E+00  0.0000E+00  0.0000E+00  0.0000E+00  0.0000E+00  0.0000E+00  0.0000E+00  0.0000E+00
    -45.795  0.0000E+00  0.0000E+00  0.0000E+00  0.0000E+00  0.0000E+00  0.0000E+00  0.0000E+00  0.0000E+00  0.0000E+00  0.0000E+00  0.0000E+00  0.0000E+00  0.0000E+00  0.0000E+00  0.0000E+00  0.0000E+00  0.0000E+00  0.0000E+00
    -45.573  0.0000E+00  0.0000E+00  0.0000E+00  0.0000E+00  0.0000E+00  0.0000E+00  0.0000E+00  0.0000E+00  0.0000E+00  0.0000E+00  0.0000E+00  0.0000E+00  0.0000E+00  0.0000E+00  0.0000E+00  0.0000E+00  0.0000E+00  0.0000E+00
    -45.352  0.0000E+00  0.0000E+00  0.0000E+00  0.0000E+00  0.0000E+00  0.0000E+00  0.0000E+00  0.0000E+00  0.0000E+00  0.0000E+00  0.0000E+00  0.0000E+00  0.0000E+00  0.0000E+00  0.0000E+00  0.0000E+00  0.0000E+00  0.0000E+00
    -45.130  0.3590E-05  0.2367E-05  0.1046E-12  0.4827E-13  0.1046E-12  0.4827E-13  0.1046E-12  0.4827E-13  0.0000E+00  0.0000E+00  0.0000E+00  0.0000E+00  0.0000E+00  0.0000E+00  0.0000E+00  0.0000E+00  0.0000E+00  0.0000E+00
    -44.909  0.1119E-02  0.9795E-03  0.6331E-10  0.5357E-10  0.6331E-10  0.5357E-10  0.6331E-10  0.5357E-10  0.0000E+00  0.0000E+00  0.0000E+00  0.0000E+00  0.0000E+00  0.0000E+00  0.0000E+00  0.0000E+00  0.0000E+00  0.0000E+00
    -44.687  0.9080E-01  0.7968E-01  0.5142E-08  0.4359E-08  0.5142E-08  0.4359E-08  0.5142E-08  0.4359E-08  0.0000E+00  0.0000E+00  0.0000E+00  0.0000E+00  0.0000E+00  0.0000E+00  0.0000E+00  0.0000E+00  0.0000E+00  0.0000E+00
    -44.466  0.2680E+01  0.2552E+01  0.1581E-06  0.1454E-06  0.1581E-06  0.1454E-06  0.1581E-06  0.1454E-06  0.0000E+00  0.0000E+00  0.0000E+00  0.0000E+00  0.0000E+00  0.0000E+00  0.0000E+00  0.0000E+00  0.0000E+00  0.0000E+00
    -44.244  0.1661E+01  0.1796E+01  0.9966E-07  0.1041E-06  0.9966E-07  0.1041E-06  0.9966E-07  0.1041E-06  0.0000E+00  0.0000E+00  0.0000E+00  0.0000E+00  0.0000E+00  0.0000E+00  0.0000E+00  0.0000E+00  0.0000E+00  0.0000E+00
    -44.023  0.0000E+00  0.0000E+00  0.0000E+00  0.0000E+00  0.0000E+00  0.0000E+00  0.0000E+00  0.0000E+00  0.0000E+00  0.0000E+00  0.0000E+00  0.0000E+00  0.0000E+00  0.0000E+00  0.0000E+00  0.0000E+00  0.0000E+00  0.0000E+00
    -43.802  0.0000E+00  0.0000E+00  0.0000E+00  0.0000E+00  0.0000E+00  0.0000E+00  0.0000E+00  0.0000E+00  0.0000E+00  0.0000E+00  0.0000E+00  0.0000E+00  0.0000E+00  0.0000E+00  0.0000E+00  0.0000E+00  0.0000E+00  0.0000E+00
    -43.580  0.0000E+00  0.0000E+00  0.0000E+00  0.0000E+00  0.0000E+00  0.0000E+00  0.0000E+00  0.0000E+00  0.0000E+00  0.0000E+00  0.0000E+00  0.0000E+00  0.0000E+00  0.0000E+00  0.0000E+00  0.0000E+00  0.0000E+00  0.0000E+00
    -43.359  0.0000E+00  0.0000E+00  0.0000E+00  0.0000E+00  0.0000E+00  0.0000E+00  0.0000E+00  0.0000E+00  0.0000E+00  0.0000E+00  0.0000E+00  0.0000E+00  0.0000E+00  0.0000E+00  0.0000E+00  0.0000E+00  0.0000E+00  0.0000E+00
    -43.137  0.0000E+00  0.0000E+00  0.0000E+00  0.0000E+00  0.0000E+00  0.0000E+00  0.0000E+00  0.0000E+00  0.0000E+00  0.0000E+00  0.0000E+00  0.0000E+00  0.0000E+00  0.0000E+00  0.0000E+00  0.0000E+00  0.0000E+00  0.0000E+00
    -42.916  0.0000E+00  0.0000E+00  0.0000E+00  0.0000E+00  0.0000E+00  0.0000E+00  0.0000E+00  0.0000E+00  0.0000E+00  0.0000E+00  0.0000E+00  0.0000E+00  0.0000E+00  0.0000E+00  0.0000E+00  0.0000E+00  0.0000E+00  0.0000E+00
    -42.694  0.0000E+00  0.0000E+00  0.0000E+00  0.0000E+00  0.0000E+00  0.0000E+00  0.0000E+00  0.0000E+00  0.0000E+00  0.0000E+00  0.0000E+00  0.0000E+00  0.0000E+00  0.0000E+00  0.0000E+00  0.0000E+00  0.0000E+00  0.0000E+00
    -42.473  0.0000E+00  0.0000E+00  0.0000E+00  0.0000E+00  0.0000E+00  0.0000E+00  0.0000E+00  0.0000E+00  0.0000E+00  0.0000E+00  0.0000E+00  0.0000E+00  0.0000E+00  0.0000E+00  0.0000E+00  0.0000E+00  0.0000E+00  0.0000E+00
    -42.251  0.0000E+00  0.0000E+00  0.0000E+00  0.0000E+00  0.0000E+00  0.0000E+00  0.0000E+00  0.0000E+00  0.0000E+00  0.0000E+00  0.0000E+00  0.0000E+00  0.0000E+00  0.0000E+00  0.0000E+00  0.0000E+00  0.0000E+00  0.0000E+00
    -42.030  0.0000E+00  0.0000E+00  0.0000E+00  0.0000E+00  0.0000E+00  0.0000E+00  0.0000E+00  0.0000E+00  0.0000E+00  0.0000E+00  0.0000E+00  0.0000E+00  0.0000E+00  0.0000E+00  0.0000E+00  0.0000E+00  0.0000E+00  0.0000E+00
    -41.808  0.0000E+00  0.0000E+00  0.0000E+00  0.0000E+00  0.0000E+00  0.0000E+00  0.0000E+00  0.0000E+00  0.0000E+00  0.0000E+00  0.0000E+00  0.0000E+00  0.0000E+00  0.0000E+00  0.0000E+00  0.0000E+00  0.0000E+00  0.0000E+00
    -41.587  0.0000E+00  0.0000E+00  0.0000E+00  0.0000E+00  0.0000E+00  0.0000E+00  0.0000E+00  0.0000E+00  0.0000E+00  0.0000E+00  0.0000E+00  0.0000E+00  0.0000E+00  0.0000E+00  0.0000E+00  0.0000E+00  0.0000E+00  0.0000E+00
    -41.365  0.0000E+00  0.0000E+00  0.0000E+00  0.0000E+00  0.0000E+00  0.0000E+00  0.0000E+00  0.0000E+00  0.0000E+00  0.0000E+00  0.0000E+00  0.0000E+00  0.0000E+00  0.0000E+00  0.0000E+00  0.0000E+00  0.0000E+00  0.0000E+00
    -41.144  0.0000E+00  0.0000E+00  0.0000E+00  0.0000E+00  0.0000E+00  0.0000E+00  0.0000E+00  0.0000E+00  0.0000E+00  0.0000E+00  0.0000E+00  0.0000E+00  0.0000E+00  0.0000E+00  0.0000E+00  0.0000E+00  0.0000E+00  0.0000E+00
    -40.923  0.0000E+00  0.0000E+00  0.0000E+00  0.0000E+00  0.0000E+00  0.0000E+00  0.0000E+00  0.0000E+00  0.0000E+00  0.0000E+00  0.0000E+00  0.0000E+00  0.0000E+00  0.0000E+00  0.0000E+00  0.0000E+00  0.0000E+00  0.0000E+00
    -40.701  0.0000E+00  0.0000E+00  0.0000E+00  0.0000E+00  0.0000E+00  0.0000E+00  0.0000E+00  0.0000E+00  0.0000E+00  0.0000E+00  0.0000E+00  0.0000E+00  0.0000E+00  0.0000E+00  0.0000E+00  0.0000E+00  0.0000E+00  0.0000E+00
    -40.480  0.0000E+00  0.0000E+00  0.0000E+00  0.0000E+00  0.0000E+00  0.0000E+00  0.0000E+00  0.0000E+00  0.0000E+00  0.0000E+00  0.0000E+00  0.0000E+00  0.0000E+00  0.0000E+00  0.0000E+00  0.0000E+00  0.0000E+00  0.0000E+00
    -40.258  0.0000E+00  0.0000E+00  0.0000E+00  0.0000E+00  0.0000E+00  0.0000E+00  0.0000E+00  0.0000E+00  0.0000E+00  0.0000E+00  0.0000E+00  0.0000E+00  0.0000E+00  0.0000E+00  0.0000E+00  0.0000E+00  0.0000E+00  0.0000E+00
    -40.037  0.0000E+00  0.0000E+00  0.0000E+00  0.0000E+00  0.0000E+00  0.0000E+00  0.0000E+00  0.0000E+00  0.0000E+00  0.0000E+00  0.0000E+00  0.0000E+00  0.0000E+00  0.0000E+00  0.0000E+00  0.0000E+00  0.0000E+00  0.0000E+00
    -39.815  0.0000E+00  0.0000E+00  0.0000E+00  0.0000E+00  0.0000E+00  0.0000E+00  0.0000E+00  0.0000E+00  0.0000E+00  0.0000E+00  0.0000E+00  0.0000E+00  0.0000E+00  0.0000E+00  0.0000E+00  0.0000E+00  0.0000E+00  0.0000E+00
    -39.594  0.0000E+00  0.0000E+00  0.0000E+00  0.0000E+00  0.0000E+00  0.0000E+00  0.0000E+00  0.0000E+00  0.0000E+00  0.0000E+00  0.0000E+00  0.0000E+00  0.0000E+00  0.0000E+00  0.0000E+00  0.0000E+00  0.0000E+00  0.0000E+00
    -39.372  0.0000E+00  0.0000E+00  0.0000E+00  0.0000E+00  0.0000E+00  0.0000E+00  0.0000E+00  0.0000E+00  0.0000E+00  0.0000E+00  0.0000E+00  0.0000E+00  0.0000E+00  0.0000E+00  0.0000E+00  0.0000E+00  0.0000E+00  0.0000E+00
    -39.151  0.0000E+00  0.0000E+00  0.0000E+00  0.0000E+00  0.0000E+00  0.0000E+00  0.0000E+00  0.0000E+00  0.0000E+00  0.0000E+00  0.0000E+00  0.0000E+00  0.0000E+00  0.0000E+00  0.0000E+00  0.0000E+00  0.0000E+00  0.0000E+00
    -38.929  0.0000E+00  0.0000E+00  0.0000E+00  0.0000E+00  0.0000E+00  0.0000E+00  0.0000E+00  0.0000E+00  0.0000E+00  0.0000E+00  0.0000E+00  0.0000E+00  0.0000E+00  0.0000E+00  0.0000E+00  0.0000E+00  0.0000E+00  0.0000E+00
    -38.708  0.0000E+00  0.0000E+00  0.0000E+00  0.0000E+00  0.0000E+00  0.0000E+00  0.0000E+00  0.0000E+00  0.0000E+00  0.0000E+00  0.0000E+00  0.0000E+00  0.0000E+00  0.0000E+00  0.0000E+00  0.0000E+00  0.0000E+00  0.0000E+00
    -38.486  0.0000E+00  0.0000E+00  0.0000E+00  0.0000E+00  0.0000E+00  0.0000E+00  0.0000E+00  0.0000E+00  0.0000E+00  0.0000E+00  0.0000E+00  0.0000E+00  0.0000E+00  0.0000E+00  0.0000E+00  0.0000E+00  0.0000E+00  0.0000E+00
    -38.265  0.0000E+00  0.0000E+00  0.0000E+00  0.0000E+00  0.0000E+00  0.0000E+00  0.0000E+00  0.0000E+00  0.0000E+00  0.0000E+00  0.0000E+00  0.0000E+00  0.0000E+00  0.0000E+00  0.0000E+00  0.0000E+00  0.0000E+00  0.0000E+00
    -38.044  0.0000E+00  0.0000E+00  0.0000E+00  0.0000E+00  0.0000E+00  0.0000E+00  0.0000E+00  0.0000E+00  0.0000E+00  0.0000E+00  0.0000E+00  0.0000E+00  0.0000E+00  0.0000E+00  0.0000E+00  0.0000E+00  0.0000E+00  0.0000E+00
    -37.822  0.0000E+00  0.0000E+00  0.0000E+00  0.0000E+00  0.0000E+00  0.0000E+00  0.0000E+00  0.0000E+00  0.0000E+00  0.0000E+00  0.0000E+00  0.0000E+00  0.0000E+00  0.0000E+00  0.0000E+00  0.0000E+00  0.0000E+00  0.0000E+00
    -37.601  0.0000E+00  0.0000E+00  0.0000E+00  0.0000E+00  0.0000E+00  0.0000E+00  0.0000E+00  0.0000E+00  0.0000E+00  0.0000E+00  0.0000E+00  0.0000E+00  0.0000E+00  0.0000E+00  0.0000E+00  0.0000E+00  0.0000E+00  0.0000E+00
    -37.379  0.0000E+00  0.0000E+00  0.0000E+00  0.0000E+00  0.0000E+00  0.0000E+00  0.0000E+00  0.0000E+00  0.0000E+00  0.0000E+00  0.0000E+00  0.0000E+00  0.0000E+00  0.0000E+00  0.0000E+00  0.0000E+00  0.0000E+00  0.0000E+00
    -37.158  0.0000E+00  0.0000E+00  0.0000E+00  0.0000E+00  0.0000E+00  0.0000E+00  0.0000E+00  0.0000E+00  0.0000E+00  0.0000E+00  0.0000E+00  0.0000E+00  0.0000E+00  0.0000E+00  0.0000E+00  0.0000E+00  0.0000E+00  0.0000E+00
    -36.936  0.0000E+00  0.0000E+00  0.0000E+00  0.0000E+00  0.0000E+00  0.0000E+00  0.0000E+00  0.0000E+00  0.0000E+00  0.0000E+00  0.0000E+00  0.0000E+00  0.0000E+00  0.0000E+00  0.0000E+00  0.0000E+00  0.0000E+00  0.0000E+00
    -36.715  0.0000E+00  0.0000E+00  0.0000E+00  0.0000E+00  0.0000E+00  0.0000E+00  0.0000E+00  0.0000E+00  0.0000E+00  0.0000E+00  0.0000E+00  0.0000E+00  0.0000E+00  0.0000E+00  0.0000E+00  0.0000E+00  0.0000E+00  0.0000E+00
    -36.493  0.0000E+00  0.0000E+00  0.0000E+00  0.0000E+00  0.0000E+00  0.0000E+00  0.0000E+00  0.0000E+00  0.0000E+00  0.0000E+00  0.0000E+00  0.0000E+00  0.0000E+00  0.0000E+00  0.0000E+00  0.0000E+00  0.0000E+00  0.0000E+00