 vasp.6.1.0 28Jan20 (build Jun 11 2020 16:13:15) complex                        
  
 executed on             LinuxIFC date 2021.04.15  23:47:24
 running on    4 total cores
 distrk:  each k-point on    4 cores,    1 groups
 distr:  one band on NCORE=   1 cores,    4 groups


--------------------------------------------------------------------------------------------------------


 INCAR:
 POTCAR:    PAW_PBE Li_sv 10Sep2004               
 POTCAR:    PAW_PBE Li_sv 10Sep2004               
   SHA256 =  7e51fe1804c037e1dccc81a9c376d94d693a7559600c847f4b41960edb8ab895 Li_sv/POTCAR          
   COPYR  = (c) Copyright 10Sep2004 Georg Kresse                                                    
   COPYR  = This file is part of the software VASP. Any use, copying, and all other rights are regul
   COPYR  = If you do not have a valid VASP license, you may not use, copy or distribute this file. 
   VRHFIN =Li: 1s2s2p                                                                               
   LEXCH  = PE                                                                                      
   EATOM  =   202.7858 eV,   14.9043 Ry                                                             
                                                                                                    
   TITEL  = PAW_PBE Li_sv 10Sep2004                                                                 
   LULTRA =        F    use ultrasoft PP ?                                                          
   IUNSCR =        0    unscreen: 0-lin 1-nonlin 2-no                                               
   RPACOR =    0.000    partial core radius                                                         
   POMASS =    7.010; ZVAL   =    3.000    mass and valenz                                          
   RCORE  =    1.700    outmost cutoff radius                                                       
   RWIGS  =    2.050; RWIGS  =    1.085    wigner-seitz radius (au A)                               
   ENMAX  =  499.034; ENMIN  =  374.276 eV                                                          
   ICORE  =        2    local potential                                                             
   LCOR   =        T    correct aug charges                                                         
   LPAW   =        T    paw PP                                                                      
   EAUG   =  628.945                                                                                
   RMAX   =    1.732    core radius for proj-oper                                                   
   RAUG   =    1.300    factor for augmentation sphere                                              
   RDEP   =    1.728    radius for radial grids                                                     
   RDEPT  =    1.329    core radius for aug-charge                                                  
                                                                                                    
   Atomic configuration                                                                             
    4 entries                                                                                       
     n  l   j            E        occ.                                                              
     1  0  0.50       -51.8549   2.0000                                                             
     2  0  0.50        -2.8742   1.0000                                                             
     2  1  0.50        -1.3606   0.0000                                                             
     3  2  1.50        -1.3606   0.0000                                                             
   Description                                                                                      
     l       E           TYP  RCUT    TYP  RCUT                                                     
     0    -51.8548813     23  1.400                                                                 
     0     -2.8742052     23  1.700                                                                 
     1     -1.3605826     23  1.400                                                                 
     2     -1.3605826     23  1.400                                                                 
  local pseudopotential read in
  atomic valenz-charges read in
  non local Contribution for L=           0  read in
    real space projection operators read in
  non local Contribution for L=           0  read in
    real space projection operators read in
  non local Contribution for L=           1  read in
    real space projection operators read in
    PAW grid and wavefunctions read in
 
   number of l-projection  operators is LMAX  =           3
   number of lm-projection operators is LMMAX =           5
 
  PAW_PBE Li_sv 10Sep2004               :
 energy of atom  1       EATOM= -202.7858
 kinetic energy error for atom=    0.0130 (will be added to EATOM!!)
 
 
 POSCAR: Li2
  positions in direct lattice
  velocities in cartesian coordinates
 exchange correlation table for  LEXCH =        8
   RHO(1)=    0.500       N(1)  =     2000
   RHO(2)=  100.500       N(2)  =     4000
 


--------------------------------------------------------------------------------------------------------


 ion  position               nearest neighbor table
   1  0.000  0.000  0.000-
   2  0.500  0.500  0.500-
 
  LATTYP: Found a simple cubic cell.
 ALAT       =     3.4268170000
  
  Lattice vectors:
  
 A1 = (   3.4268170000,   0.0000000000,   0.0000000000)
 A2 = (   0.0000000000,   3.4268170000,   0.0000000000)
 A3 = (   0.0000000000,   0.0000000000,   3.4268170000)


Analysis of symmetry for initial positions (statically):
=====================================================================
 Subroutine PRICEL returns following result:
 
  LATTYP: Found a body centered cubic cell.
 ALAT       =     3.4268170000
  
  Lattice vectors:
  
 A1 = (   1.7134085000,   1.7134085000,   1.7134085000)
 A2 = (   1.7134085000,  -1.7134085000,  -1.7134085000)
 A3 = (  -1.7134085000,   1.7134085000,  -1.7134085000)
 
   2 primitive cells build up your supercell.
 

 Routine SETGRP: Setting up the symmetry group for a 
 simple cubic supercell.


 Subroutine GETGRP returns: Found 48 space group operations
 (whereof 48 operations were pure point group operations)
 out of a pool of 48 trial point group operations.


The static configuration has the point symmetry O_h .


Analysis of symmetry for dynamics (positions and initial velocities):
=====================================================================
 Subroutine PRICEL returns following result:
 
  LATTYP: Found a body centered cubic cell.
 ALAT       =     3.4268170000
  
  Lattice vectors:
  
 A1 = (   1.7134085000,   1.7134085000,   1.7134085000)
 A2 = (   1.7134085000,  -1.7134085000,  -1.7134085000)
 A3 = (  -1.7134085000,   1.7134085000,  -1.7134085000)
 
   2 primitive cells build up your supercell.
 

 Routine SETGRP: Setting up the symmetry group for a 
 simple cubic supercell.


 Subroutine GETGRP returns: Found 48 space group operations
 (whereof 48 operations were pure point group operations)
 out of a pool of 48 trial point group operations.


The dynamic configuration has the point symmetry O_h .


 Subroutine INISYM returns: Found 48 space group operations
 (whereof 48 operations are pure point group operations),
 and found     2 'primitive' translations


----------------------------------------------------------------------------------------

                                     Primitive cell                                     

  volume of cell :      20.1207

  direct lattice vectors                    reciprocal lattice vectors
     1.713408500  1.713408500  1.713408500     0.291815991  0.291815991 -0.000000000
     1.713408500 -1.713408500 -1.713408500     0.291815991 -0.000000000 -0.291815991
    -1.713408500  1.713408500 -1.713408500     0.000000000  0.291815991 -0.291815991

  length of vectors
     2.967710576  2.967710576  2.967710576     0.412690133  0.412690133  0.412690133

  position of ions in fractional coordinates (direct lattice)
     0.000000000  0.000000000  0.000000000

  ion indices of the primitive-cell ions
   primitive index   ion index
                 1           1

----------------------------------------------------------------------------------------

 
 
 KPOINTS: k points                                

Automatic generation of k-mesh.
Space group operators:
 irot       det(A)        alpha          n_x          n_y          n_z        tau_x        tau_y        tau_z
    1     1.000000     0.000000     1.000000     0.000000     0.000000     0.000000     0.000000     0.000000
    2    -1.000000     0.000000     1.000000     0.000000     0.000000     0.000000     0.000000     0.000000
    3     1.000000   120.000000    -0.577350    -0.577350    -0.577350     0.000000     0.000000     0.000000
    4    -1.000000   120.000000    -0.577350    -0.577350    -0.577350     0.000000     0.000000     0.000000
    5     1.000000   120.000000     0.577350     0.577350     0.577350     0.000000     0.000000     0.000000
    6    -1.000000   120.000000     0.577350     0.577350     0.577350     0.000000     0.000000     0.000000
    7     1.000000    90.000000     0.000000     0.000000    -1.000000     0.000000     0.000000     0.000000
    8    -1.000000    90.000000     0.000000     0.000000    -1.000000     0.000000     0.000000     0.000000
    9     1.000000   180.000000     0.000000     0.707107     0.707107     0.000000     0.000000     0.000000
   10    -1.000000   180.000000     0.000000     0.707107     0.707107     0.000000     0.000000     0.000000
   11     1.000000    90.000000     0.000000     1.000000     0.000000     0.000000     0.000000     0.000000
   12    -1.000000    90.000000     0.000000     1.000000     0.000000     0.000000     0.000000     0.000000
   13     1.000000   180.000000     0.000000     0.000000     1.000000     0.000000     0.000000     0.000000
   14    -1.000000   180.000000     0.000000     0.000000     1.000000     0.000000     0.000000     0.000000
   15     1.000000   120.000000    -0.577350     0.577350     0.577350     0.000000     0.000000     0.000000
   16    -1.000000   120.000000    -0.577350     0.577350     0.577350     0.000000     0.000000     0.000000
   17     1.000000   120.000000    -0.577350     0.577350    -0.577350     0.000000     0.000000     0.000000
   18    -1.000000   120.000000    -0.577350     0.577350    -0.577350     0.000000     0.000000     0.000000
   19     1.000000    90.000000     0.000000     0.000000     1.000000     0.000000     0.000000     0.000000
   20    -1.000000    90.000000     0.000000     0.000000     1.000000     0.000000     0.000000     0.000000
   21     1.000000    90.000000    -1.000000     0.000000     0.000000     0.000000     0.000000     0.000000
   22    -1.000000    90.000000    -1.000000     0.000000     0.000000     0.000000     0.000000     0.000000
   23     1.000000   180.000000     0.707107     0.000000     0.707107     0.000000     0.000000     0.000000
   24    -1.000000   180.000000     0.707107     0.000000     0.707107     0.000000     0.000000     0.000000
   25     1.000000   120.000000     0.577350    -0.577350     0.577350     0.000000     0.000000     0.000000
   26    -1.000000   120.000000     0.577350    -0.577350     0.577350     0.000000     0.000000     0.000000
   27     1.000000   120.000000    -0.577350    -0.577350     0.577350     0.000000     0.000000     0.000000
   28    -1.000000   120.000000    -0.577350    -0.577350     0.577350     0.000000     0.000000     0.000000
   29     1.000000   180.000000     1.000000     0.000000     0.000000     0.000000     0.000000     0.000000
   30    -1.000000   180.000000     1.000000     0.000000     0.000000     0.000000     0.000000     0.000000
   31     1.000000    90.000000     0.000000    -1.000000     0.000000     0.000000     0.000000     0.000000
   32    -1.000000    90.000000     0.000000    -1.000000     0.000000     0.000000     0.000000     0.000000
   33     1.000000   180.000000     0.707107     0.707107     0.000000     0.000000     0.000000     0.000000
   34    -1.000000   180.000000     0.707107     0.707107     0.000000     0.000000     0.000000     0.000000
   35     1.000000    90.000000     1.000000     0.000000     0.000000     0.000000     0.000000     0.000000
   36    -1.000000    90.000000     1.000000     0.000000     0.000000     0.000000     0.000000     0.000000
   37     1.000000   120.000000     0.577350    -0.577350    -0.577350     0.000000     0.000000     0.000000
   38    -1.000000   120.000000     0.577350    -0.577350    -0.577350     0.000000     0.000000     0.000000
   39     1.000000   180.000000     0.000000     1.000000     0.000000     0.000000     0.000000     0.000000
   40    -1.000000   180.000000     0.000000     1.000000     0.000000     0.000000     0.000000     0.000000
   41     1.000000   120.000000     0.577350     0.577350    -0.577350     0.000000     0.000000     0.000000
   42    -1.000000   120.000000     0.577350     0.577350    -0.577350     0.000000     0.000000     0.000000
   43     1.000000   180.000000     0.000000    -0.707107     0.707107     0.000000     0.000000     0.000000
   44    -1.000000   180.000000     0.000000    -0.707107     0.707107     0.000000     0.000000     0.000000
   45     1.000000   180.000000     0.707107    -0.707107     0.000000     0.000000     0.000000     0.000000
   46    -1.000000   180.000000     0.707107    -0.707107     0.000000     0.000000     0.000000     0.000000
   47     1.000000   180.000000     0.707107     0.000000    -0.707107     0.000000     0.000000     0.000000
   48    -1.000000   180.000000     0.707107     0.000000    -0.707107     0.000000     0.000000     0.000000
 
 Subroutine IBZKPT returns following result:
 ===========================================
 
 Found     84 irreducible k-points:
 
 Following reciprocal coordinates:
            Coordinates               Weight
  0.000000  0.000000  0.000000      1.000000
  0.076923  0.000000  0.000000      6.000000
  0.153846  0.000000  0.000000      6.000000
  0.230769  0.000000  0.000000      6.000000
  0.307692  0.000000  0.000000      6.000000
  0.384615  0.000000  0.000000      6.000000
  0.461538  0.000000  0.000000      6.000000
  0.076923  0.076923  0.000000     12.000000
  0.153846  0.076923  0.000000     24.000000
  0.230769  0.076923  0.000000     24.000000
  0.307692  0.076923  0.000000     24.000000
  0.384615  0.076923  0.000000     24.000000
  0.461538  0.076923  0.000000     24.000000
  0.153846  0.153846  0.000000     12.000000
  0.230769  0.153846  0.000000     24.000000
  0.307692  0.153846  0.000000     24.000000
  0.384615  0.153846  0.000000     24.000000
  0.461538  0.153846  0.000000     24.000000
  0.230769  0.230769  0.000000     12.000000
  0.307692  0.230769  0.000000     24.000000
  0.384615  0.230769  0.000000     24.000000
  0.461538  0.230769  0.000000     24.000000
  0.307692  0.307692  0.000000     12.000000
  0.384615  0.307692  0.000000     24.000000
  0.461538  0.307692  0.000000     24.000000
  0.384615  0.384615  0.000000     12.000000
  0.461538  0.384615  0.000000     24.000000
  0.461538  0.461538  0.000000     12.000000
  0.076923  0.076923  0.076923      8.000000
  0.153846  0.076923  0.076923     24.000000
  0.230769  0.076923  0.076923     24.000000
  0.307692  0.076923  0.076923     24.000000
  0.384615  0.076923  0.076923     24.000000
  0.461538  0.076923  0.076923     24.000000
  0.153846  0.153846  0.076923     24.000000
  0.230769  0.153846  0.076923     48.000000
  0.307692  0.153846  0.076923     48.000000
  0.384615  0.153846  0.076923     48.000000
  0.461538  0.153846  0.076923     48.000000
  0.230769  0.230769  0.076923     24.000000
  0.307692  0.230769  0.076923     48.000000
  0.384615  0.230769  0.076923     48.000000
  0.461538  0.230769  0.076923     48.000000
  0.307692  0.307692  0.076923     24.000000
  0.384615  0.307692  0.076923     48.000000
  0.461538  0.307692  0.076923     48.000000
  0.384615  0.384615  0.076923     24.000000
  0.461538  0.384615  0.076923     48.000000
  0.461538  0.461538  0.076923     24.000000
  0.153846  0.153846  0.153846      8.000000
  0.230769  0.153846  0.153846     24.000000
  0.307692  0.153846  0.153846     24.000000
  0.384615  0.153846  0.153846     24.000000
  0.461538  0.153846  0.153846     24.000000
  0.230769  0.230769  0.153846     24.000000
  0.307692  0.230769  0.153846     48.000000
  0.384615  0.230769  0.153846     48.000000
  0.461538  0.230769  0.153846     48.000000
  0.307692  0.307692  0.153846     24.000000
  0.384615  0.307692  0.153846     48.000000
  0.461538  0.307692  0.153846     48.000000
  0.384615  0.384615  0.153846     24.000000
  0.461538  0.384615  0.153846     48.000000
  0.461538  0.461538  0.153846     24.000000
  0.230769  0.230769  0.230769      8.000000
  0.307692  0.230769  0.230769     24.000000
  0.384615  0.230769  0.230769     24.000000
  0.461538  0.230769  0.230769     24.000000
  0.307692  0.307692  0.230769     24.000000
  0.384615  0.307692  0.230769     48.000000
  0.461538  0.307692  0.230769     48.000000
  0.384615  0.384615  0.230769     24.000000
  0.461538  0.384615  0.230769     48.000000
  0.461538  0.461538  0.230769     24.000000
  0.307692  0.307692  0.307692      8.000000
  0.384615  0.307692  0.307692     24.000000
  0.461538  0.307692  0.307692     24.000000
  0.384615  0.384615  0.307692     24.000000
  0.461538  0.384615  0.307692     48.000000
  0.461538  0.461538  0.307692     24.000000
  0.384615  0.384615  0.384615      8.000000
  0.461538  0.384615  0.384615     24.000000
  0.461538  0.461538  0.384615     24.000000
  0.461538  0.461538  0.461538      8.000000
 
 Following cartesian coordinates:
            Coordinates               Weight
  0.000000  0.000000  0.000000      1.000000
  0.022447  0.000000  0.000000      6.000000
  0.044895  0.000000  0.000000      6.000000
  0.067342  0.000000  0.000000      6.000000
  0.089790  0.000000  0.000000      6.000000
  0.112237  0.000000  0.000000      6.000000
  0.134684  0.000000  0.000000      6.000000
  0.022447  0.022447  0.000000     12.000000
  0.044895  0.022447  0.000000     24.000000
  0.067342  0.022447  0.000000     24.000000
  0.089790  0.022447  0.000000     24.000000
  0.112237  0.022447  0.000000     24.000000
  0.134684  0.022447  0.000000     24.000000
  0.044895  0.044895  0.000000     12.000000
  0.067342  0.044895  0.000000     24.000000
  0.089790  0.044895  0.000000     24.000000
  0.112237  0.044895  0.000000     24.000000
  0.134684  0.044895  0.000000     24.000000
  0.067342  0.067342  0.000000     12.000000
  0.089790  0.067342  0.000000     24.000000
  0.112237  0.067342  0.000000     24.000000
  0.134684  0.067342  0.000000     24.000000
  0.089790  0.089790  0.000000     12.000000
  0.112237  0.089790  0.000000     24.000000
  0.134684  0.089790  0.000000     24.000000
  0.112237  0.112237  0.000000     12.000000
  0.134684  0.112237  0.000000     24.000000
  0.134684  0.134684  0.000000     12.000000
  0.022447  0.022447  0.022447      8.000000
  0.044895  0.022447  0.022447     24.000000
  0.067342  0.022447  0.022447     24.000000
  0.089790  0.022447  0.022447     24.000000
  0.112237  0.022447  0.022447     24.000000
  0.134684  0.022447  0.022447     24.000000
  0.044895  0.044895  0.022447     24.000000
  0.067342  0.044895  0.022447     48.000000
  0.089790  0.044895  0.022447     48.000000
  0.112237  0.044895  0.022447     48.000000
  0.134684  0.044895  0.022447     48.000000
  0.067342  0.067342  0.022447     24.000000
  0.089790  0.067342  0.022447     48.000000
  0.112237  0.067342  0.022447     48.000000
  0.134684  0.067342  0.022447     48.000000
  0.089790  0.089790  0.022447     24.000000
  0.112237  0.089790  0.022447     48.000000
  0.134684  0.089790  0.022447     48.000000
  0.112237  0.112237  0.022447     24.000000
  0.134684  0.112237  0.022447     48.000000
  0.134684  0.134684  0.022447     24.000000
  0.044895  0.044895  0.044895      8.000000
  0.067342  0.044895  0.044895     24.000000
  0.089790  0.044895  0.044895     24.000000
  0.112237  0.044895  0.044895     24.000000
  0.134684  0.044895  0.044895     24.000000
  0.067342  0.067342  0.044895     24.000000
  0.089790  0.067342  0.044895     48.000000
  0.112237  0.067342  0.044895     48.000000
  0.134684  0.067342  0.044895     48.000000
  0.089790  0.089790  0.044895     24.000000
  0.112237  0.089790  0.044895     48.000000
  0.134684  0.089790  0.044895     48.000000
  0.112237  0.112237  0.044895     24.000000
  0.134684  0.112237  0.044895     48.000000
  0.134684  0.134684  0.044895     24.000000
  0.067342  0.067342  0.067342      8.000000
  0.089790  0.067342  0.067342     24.000000
  0.112237  0.067342  0.067342     24.000000
  0.134684  0.067342  0.067342     24.000000
  0.089790  0.089790  0.067342     24.000000
  0.112237  0.089790  0.067342     48.000000
  0.134684  0.089790  0.067342     48.000000
  0.112237  0.112237  0.067342     24.000000
  0.134684  0.112237  0.067342     48.000000
  0.134684  0.134684  0.067342     24.000000
  0.089790  0.089790  0.089790      8.000000
  0.112237  0.089790  0.089790     24.000000
  0.134684  0.089790  0.089790     24.000000
  0.112237  0.112237  0.089790     24.000000
  0.134684  0.112237  0.089790     48.000000
  0.134684  0.134684  0.089790     24.000000
  0.112237  0.112237  0.112237      8.000000
  0.134684  0.112237  0.112237     24.000000
  0.134684  0.134684  0.112237     24.000000
  0.134684  0.134684  0.134684      8.000000
 
 
 Subroutine IBZKPT_HF returns following result:
 ==============================================
 
 Found   2197 k-points in 1st BZ
 the following   2197 k-points will be used (e.g. in the exchange kernel)
 Following reciprocal coordinates:   # in IRBZ
  0.000000  0.000000  0.000000    0.00045517   1 t-inv F
  0.076923  0.000000  0.000000    0.00045517   2 t-inv F
  0.153846  0.000000  0.000000    0.00045517   3 t-inv F
  0.230769  0.000000  0.000000    0.00045517   4 t-inv F
  0.307692  0.000000  0.000000    0.00045517   5 t-inv F
  0.384615  0.000000  0.000000    0.00045517   6 t-inv F
  0.461538  0.000000  0.000000    0.00045517   7 t-inv F
  0.076923  0.076923  0.000000    0.00045517   8 t-inv F
  0.153846  0.076923  0.000000    0.00045517   9 t-inv F
  0.230769  0.076923  0.000000    0.00045517  10 t-inv F
  0.307692  0.076923  0.000000    0.00045517  11 t-inv F
  0.384615  0.076923  0.000000    0.00045517  12 t-inv F
  0.461538  0.076923  0.000000    0.00045517  13 t-inv F
  0.153846  0.153846  0.000000    0.00045517  14 t-inv F
  0.230769  0.153846  0.000000    0.00045517  15 t-inv F
  0.307692  0.153846  0.000000    0.00045517  16 t-inv F
  0.384615  0.153846  0.000000    0.00045517  17 t-inv F
  0.461538  0.153846  0.000000    0.00045517  18 t-inv F
  0.230769  0.230769  0.000000    0.00045517  19 t-inv F
  0.307692  0.230769  0.000000    0.00045517  20 t-inv F
  0.384615  0.230769  0.000000    0.00045517  21 t-inv F
  0.461538  0.230769  0.000000    0.00045517  22 t-inv F
  0.307692  0.307692  0.000000    0.00045517  23 t-inv F
  0.384615  0.307692  0.000000    0.00045517  24 t-inv F
  0.461538  0.307692  0.000000    0.00045517  25 t-inv F
  0.384615  0.384615  0.000000    0.00045517  26 t-inv F
  0.461538  0.384615  0.000000    0.00045517  27 t-inv F
  0.461538  0.461538  0.000000    0.00045517  28 t-inv F
  0.076923  0.076923  0.076923    0.00045517  29 t-inv F
  0.153846  0.076923  0.076923    0.00045517  30 t-inv F
  0.230769  0.076923  0.076923    0.00045517  31 t-inv F
  0.307692  0.076923  0.076923    0.00045517  32 t-inv F
  0.384615  0.076923  0.076923    0.00045517  33 t-inv F
  0.461538  0.076923  0.076923    0.00045517  34 t-inv F
  0.153846  0.153846  0.076923    0.00045517  35 t-inv F
  0.230769  0.153846  0.076923    0.00045517  36 t-inv F
  0.307692  0.153846  0.076923    0.00045517  37 t-inv F
  0.384615  0.153846  0.076923    0.00045517  38 t-inv F
  0.461538  0.153846  0.076923    0.00045517  39 t-inv F
  0.230769  0.230769  0.076923    0.00045517  40 t-inv F
  0.307692  0.230769  0.076923    0.00045517  41 t-inv F
  0.384615  0.230769  0.076923    0.00045517  42 t-inv F
  0.461538  0.230769  0.076923    0.00045517  43 t-inv F
  0.307692  0.307692  0.076923    0.00045517  44 t-inv F
  0.384615  0.307692  0.076923    0.00045517  45 t-inv F
  0.461538  0.307692  0.076923    0.00045517  46 t-inv F
  0.384615  0.384615  0.076923    0.00045517  47 t-inv F
  0.461538  0.384615  0.076923    0.00045517  48 t-inv F
  0.461538  0.461538  0.076923    0.00045517  49 t-inv F
  0.153846  0.153846  0.153846    0.00045517  50 t-inv F
  0.230769  0.153846  0.153846    0.00045517  51 t-inv F
  0.307692  0.153846  0.153846    0.00045517  52 t-inv F
  0.384615  0.153846  0.153846    0.00045517  53 t-inv F
  0.461538  0.153846  0.153846    0.00045517  54 t-inv F
  0.230769  0.230769  0.153846    0.00045517  55 t-inv F
  0.307692  0.230769  0.153846    0.00045517  56 t-inv F
  0.384615  0.230769  0.153846    0.00045517  57 t-inv F
  0.461538  0.230769  0.153846    0.00045517  58 t-inv F
  0.307692  0.307692  0.153846    0.00045517  59 t-inv F
  0.384615  0.307692  0.153846    0.00045517  60 t-inv F
  0.461538  0.307692  0.153846    0.00045517  61 t-inv F
  0.384615  0.384615  0.153846    0.00045517  62 t-inv F
  0.461538  0.384615  0.153846    0.00045517  63 t-inv F
  0.461538  0.461538  0.153846    0.00045517  64 t-inv F
  0.230769  0.230769  0.230769    0.00045517  65 t-inv F
  0.307692  0.230769  0.230769    0.00045517  66 t-inv F
  0.384615  0.230769  0.230769    0.00045517  67 t-inv F
  0.461538  0.230769  0.230769    0.00045517  68 t-inv F
  0.307692  0.307692  0.230769    0.00045517  69 t-inv F
  0.384615  0.307692  0.230769    0.00045517  70 t-inv F
  0.461538  0.307692  0.230769    0.00045517  71 t-inv F
  0.384615  0.384615  0.230769    0.00045517  72 t-inv F
  0.461538  0.384615  0.230769    0.00045517  73 t-inv F
  0.461538  0.461538  0.230769    0.00045517  74 t-inv F
  0.307692  0.307692  0.307692    0.00045517  75 t-inv F
  0.384615  0.307692  0.307692    0.00045517  76 t-inv F
  0.461538  0.307692  0.307692    0.00045517  77 t-inv F
  0.384615  0.384615  0.307692    0.00045517  78 t-inv F
  0.461538  0.384615  0.307692    0.00045517  79 t-inv F
  0.461538  0.461538  0.307692    0.00045517  80 t-inv F
  0.384615  0.384615  0.384615    0.00045517  81 t-inv F
  0.461538  0.384615  0.384615    0.00045517  82 t-inv F
  0.461538  0.461538  0.384615    0.00045517  83 t-inv F
  0.461538  0.461538  0.461538    0.00045517  84 t-inv F
 -0.076923  0.000000  0.000000    0.00045517   2 t-inv F
  0.000000  0.076923  0.000000    0.00045517   2 t-inv F
  0.000000 -0.076923  0.000000    0.00045517   2 t-inv F
  0.000000  0.000000  0.076923    0.00045517   2 t-inv F
  0.000000  0.000000 -0.076923    0.00045517   2 t-inv F
 -0.153846  0.000000  0.000000    0.00045517   3 t-inv F
  0.000000  0.153846  0.000000    0.00045517   3 t-inv F
  0.000000 -0.153846  0.000000    0.00045517   3 t-inv F
  0.000000  0.000000  0.153846    0.00045517   3 t-inv F
  0.000000  0.000000 -0.153846    0.00045517   3 t-inv F
 -0.230769  0.000000  0.000000    0.00045517   4 t-inv F
  0.000000  0.230769  0.000000    0.00045517   4 t-inv F
  0.000000 -0.230769  0.000000    0.00045517   4 t-inv F
  0.000000  0.000000  0.230769    0.00045517   4 t-inv F
  0.000000  0.000000 -0.230769    0.00045517   4 t-inv F
 -0.307692  0.000000  0.000000    0.00045517   5 t-inv F
  0.000000  0.307692  0.000000    0.00045517   5 t-inv F
  0.000000 -0.307692  0.000000    0.00045517   5 t-inv F
  0.000000  0.000000  0.307692    0.00045517   5 t-inv F
  0.000000  0.000000 -0.307692    0.00045517   5 t-inv F
 -0.384615  0.000000  0.000000    0.00045517   6 t-inv F
  0.000000  0.384615  0.000000    0.00045517   6 t-inv F
  0.000000 -0.384615  0.000000    0.00045517   6 t-inv F
  0.000000  0.000000  0.384615    0.00045517   6 t-inv F
  0.000000  0.000000 -0.384615    0.00045517   6 t-inv F
 -0.461538  0.000000  0.000000    0.00045517   7 t-inv F
  0.000000  0.461538  0.000000    0.00045517   7 t-inv F
  0.000000 -0.461538  0.000000    0.00045517   7 t-inv F
  0.000000  0.000000  0.461538    0.00045517   7 t-inv F
  0.000000  0.000000 -0.461538    0.00045517   7 t-inv F
 -0.076923 -0.076923  0.000000    0.00045517   8 t-inv F
  0.000000  0.076923  0.076923    0.00045517   8 t-inv F
  0.000000 -0.076923 -0.076923    0.00045517   8 t-inv F
  0.076923  0.000000  0.076923    0.00045517   8 t-inv F
 -0.076923  0.000000 -0.076923    0.00045517   8 t-inv F
 -0.076923  0.076923  0.000000    0.00045517   8 t-inv F
  0.076923 -0.076923  0.000000    0.00045517   8 t-inv F
 -0.076923  0.000000  0.076923    0.00045517   8 t-inv F
  0.076923  0.000000 -0.076923    0.00045517   8 t-inv F
  0.000000 -0.076923  0.076923    0.00045517   8 t-inv F
  0.000000  0.076923 -0.076923    0.00045517   8 t-inv F
 -0.153846 -0.076923  0.000000    0.00045517   9 t-inv F
  0.000000  0.153846  0.076923    0.00045517   9 t-inv F
  0.000000 -0.153846 -0.076923    0.00045517   9 t-inv F
  0.076923  0.000000  0.153846    0.00045517   9 t-inv F
 -0.076923  0.000000 -0.153846    0.00045517   9 t-inv F
 -0.076923  0.153846  0.000000    0.00045517   9 t-inv F
  0.076923 -0.153846  0.000000    0.00045517   9 t-inv F
 -0.153846  0.000000  0.076923    0.00045517   9 t-inv F
  0.153846  0.000000 -0.076923    0.00045517   9 t-inv F
  0.000000  0.076923  0.153846    0.00045517   9 t-inv F
  0.000000 -0.076923 -0.153846    0.00045517   9 t-inv F
  0.000000 -0.153846  0.076923    0.00045517   9 t-inv F
  0.000000  0.153846 -0.076923    0.00045517   9 t-inv F
 -0.076923  0.000000  0.153846    0.00045517   9 t-inv F
  0.076923  0.000000 -0.153846    0.00045517   9 t-inv F
  0.153846  0.000000  0.076923    0.00045517   9 t-inv F
 -0.153846  0.000000 -0.076923    0.00045517   9 t-inv F
  0.000000 -0.076923  0.153846    0.00045517   9 t-inv F
  0.000000  0.076923 -0.153846    0.00045517   9 t-inv F
  0.153846 -0.076923  0.000000    0.00045517   9 t-inv F
 -0.153846  0.076923  0.000000    0.00045517   9 t-inv F
  0.076923  0.153846  0.000000    0.00045517   9 t-inv F
 -0.076923 -0.153846  0.000000    0.00045517   9 t-inv F
 -0.230769 -0.076923  0.000000    0.00045517  10 t-inv F
  0.000000  0.230769  0.076923    0.00045517  10 t-inv F
  0.000000 -0.230769 -0.076923    0.00045517  10 t-inv F
  0.076923  0.000000  0.230769    0.00045517  10 t-inv F
 -0.076923  0.000000 -0.230769    0.00045517  10 t-inv F
 -0.076923  0.230769  0.000000    0.00045517  10 t-inv F
  0.076923 -0.230769  0.000000    0.00045517  10 t-inv F
 -0.230769  0.000000  0.076923    0.00045517  10 t-inv F
  0.230769  0.000000 -0.076923    0.00045517  10 t-inv F
  0.000000  0.076923  0.230769    0.00045517  10 t-inv F
  0.000000 -0.076923 -0.230769    0.00045517  10 t-inv F
  0.000000 -0.230769  0.076923    0.00045517  10 t-inv F
  0.000000  0.230769 -0.076923    0.00045517  10 t-inv F
 -0.076923  0.000000  0.230769    0.00045517  10 t-inv F
  0.076923  0.000000 -0.230769    0.00045517  10 t-inv F
  0.230769  0.000000  0.076923    0.00045517  10 t-inv F
 -0.230769  0.000000 -0.076923    0.00045517  10 t-inv F
  0.000000 -0.076923  0.230769    0.00045517  10 t-inv F
  0.000000  0.076923 -0.230769    0.00045517  10 t-inv F
  0.230769 -0.076923  0.000000    0.00045517  10 t-inv F
 -0.230769  0.076923  0.000000    0.00045517  10 t-inv F
  0.076923  0.230769  0.000000    0.00045517  10 t-inv F
 -0.076923 -0.230769  0.000000    0.00045517  10 t-inv F
 -0.307692 -0.076923  0.000000    0.00045517  11 t-inv F
  0.000000  0.307692  0.076923    0.00045517  11 t-inv F
  0.000000 -0.307692 -0.076923    0.00045517  11 t-inv F
  0.076923  0.000000  0.307692    0.00045517  11 t-inv F
 -0.076923  0.000000 -0.307692    0.00045517  11 t-inv F
 -0.076923  0.307692  0.000000    0.00045517  11 t-inv F
  0.076923 -0.307692  0.000000    0.00045517  11 t-inv F
 -0.307692  0.000000  0.076923    0.00045517  11 t-inv F
  0.307692  0.000000 -0.076923    0.00045517  11 t-inv F
  0.000000  0.076923  0.307692    0.00045517  11 t-inv F
  0.000000 -0.076923 -0.307692    0.00045517  11 t-inv F
  0.000000 -0.307692  0.076923    0.00045517  11 t-inv F
  0.000000  0.307692 -0.076923    0.00045517  11 t-inv F
 -0.076923  0.000000  0.307692    0.00045517  11 t-inv F
  0.076923  0.000000 -0.307692    0.00045517  11 t-inv F
  0.307692  0.000000  0.076923    0.00045517  11 t-inv F
 -0.307692  0.000000 -0.076923    0.00045517  11 t-inv F
  0.000000 -0.076923  0.307692    0.00045517  11 t-inv F
  0.000000  0.076923 -0.307692    0.00045517  11 t-inv F
  0.307692 -0.076923  0.000000    0.00045517  11 t-inv F
 -0.307692  0.076923  0.000000    0.00045517  11 t-inv F
  0.076923  0.307692  0.000000    0.00045517  11 t-inv F
 -0.076923 -0.307692  0.000000    0.00045517  11 t-inv F
 -0.384615 -0.076923  0.000000    0.00045517  12 t-inv F
  0.000000  0.384615  0.076923    0.00045517  12 t-inv F
  0.000000 -0.384615 -0.076923    0.00045517  12 t-inv F
  0.076923  0.000000  0.384615    0.00045517  12 t-inv F
 -0.076923  0.000000 -0.384615    0.00045517  12 t-inv F
 -0.076923  0.384615  0.000000    0.00045517  12 t-inv F
  0.076923 -0.384615  0.000000    0.00045517  12 t-inv F
 -0.384615  0.000000  0.076923    0.00045517  12 t-inv F
  0.384615  0.000000 -0.076923    0.00045517  12 t-inv F
  0.000000  0.076923  0.384615    0.00045517  12 t-inv F
  0.000000 -0.076923 -0.384615    0.00045517  12 t-inv F
  0.000000 -0.384615  0.076923    0.00045517  12 t-inv F
  0.000000  0.384615 -0.076923    0.00045517  12 t-inv F
 -0.076923  0.000000  0.384615    0.00045517  12 t-inv F
  0.076923  0.000000 -0.384615    0.00045517  12 t-inv F
  0.384615  0.000000  0.076923    0.00045517  12 t-inv F
 -0.384615  0.000000 -0.076923    0.00045517  12 t-inv F
  0.000000 -0.076923  0.384615    0.00045517  12 t-inv F
  0.000000  0.076923 -0.384615    0.00045517  12 t-inv F
  0.384615 -0.076923  0.000000    0.00045517  12 t-inv F
 -0.384615  0.076923  0.000000    0.00045517  12 t-inv F
  0.076923  0.384615  0.000000    0.00045517  12 t-inv F
 -0.076923 -0.384615  0.000000    0.00045517  12 t-inv F
 -0.461538 -0.076923  0.000000    0.00045517  13 t-inv F
  0.000000  0.461538  0.076923    0.00045517  13 t-inv F
  0.000000 -0.461538 -0.076923    0.00045517  13 t-inv F
  0.076923  0.000000  0.461538    0.00045517  13 t-inv F
 -0.076923  0.000000 -0.461538    0.00045517  13 t-inv F
 -0.076923  0.461538  0.000000    0.00045517  13 t-inv F
  0.076923 -0.461538  0.000000    0.00045517  13 t-inv F
 -0.461538  0.000000  0.076923    0.00045517  13 t-inv F
  0.461538  0.000000 -0.076923    0.00045517  13 t-inv F
  0.000000  0.076923  0.461538    0.00045517  13 t-inv F
  0.000000 -0.076923 -0.461538    0.00045517  13 t-inv F
  0.000000 -0.461538  0.076923    0.00045517  13 t-inv F
  0.000000  0.461538 -0.076923    0.00045517  13 t-inv F
 -0.076923  0.000000  0.461538    0.00045517  13 t-inv F
  0.076923  0.000000 -0.461538    0.00045517  13 t-inv F
  0.461538  0.000000  0.076923    0.00045517  13 t-inv F
 -0.461538  0.000000 -0.076923    0.00045517  13 t-inv F
  0.000000 -0.076923  0.461538    0.00045517  13 t-inv F
  0.000000  0.076923 -0.461538    0.00045517  13 t-inv F
  0.461538 -0.076923  0.000000    0.00045517  13 t-inv F
 -0.461538  0.076923  0.000000    0.00045517  13 t-inv F
  0.076923  0.461538  0.000000    0.00045517  13 t-inv F
 -0.076923 -0.461538  0.000000    0.00045517  13 t-inv F
 -0.153846 -0.153846  0.000000    0.00045517  14 t-inv F
  0.000000  0.153846  0.153846    0.00045517  14 t-inv F
  0.000000 -0.153846 -0.153846    0.00045517  14 t-inv F
  0.153846  0.000000  0.153846    0.00045517  14 t-inv F
 -0.153846  0.000000 -0.153846    0.00045517  14 t-inv F
 -0.153846  0.153846  0.000000    0.00045517  14 t-inv F
  0.153846 -0.153846  0.000000    0.00045517  14 t-inv F
 -0.153846  0.000000  0.153846    0.00045517  14 t-inv F
  0.153846  0.000000 -0.153846    0.00045517  14 t-inv F
  0.000000 -0.153846  0.153846    0.00045517  14 t-inv F
  0.000000  0.153846 -0.153846    0.00045517  14 t-inv F
 -0.230769 -0.153846  0.000000    0.00045517  15 t-inv F
  0.000000  0.230769  0.153846    0.00045517  15 t-inv F
  0.000000 -0.230769 -0.153846    0.00045517  15 t-inv F
  0.153846  0.000000  0.230769    0.00045517  15 t-inv F
 -0.153846  0.000000 -0.230769    0.00045517  15 t-inv F
 -0.153846  0.230769  0.000000    0.00045517  15 t-inv F
  0.153846 -0.230769  0.000000    0.00045517  15 t-inv F
 -0.230769  0.000000  0.153846    0.00045517  15 t-inv F
  0.230769  0.000000 -0.153846    0.00045517  15 t-inv F
  0.000000  0.153846  0.230769    0.00045517  15 t-inv F
  0.000000 -0.153846 -0.230769    0.00045517  15 t-inv F
  0.000000 -0.230769  0.153846    0.00045517  15 t-inv F
  0.000000  0.230769 -0.153846    0.00045517  15 t-inv F
 -0.153846  0.000000  0.230769    0.00045517  15 t-inv F
  0.153846  0.000000 -0.230769    0.00045517  15 t-inv F
  0.230769  0.000000  0.153846    0.00045517  15 t-inv F
 -0.230769  0.000000 -0.153846    0.00045517  15 t-inv F
  0.000000 -0.153846  0.230769    0.00045517  15 t-inv F
  0.000000  0.153846 -0.230769    0.00045517  15 t-inv F
  0.230769 -0.153846  0.000000    0.00045517  15 t-inv F
 -0.230769  0.153846  0.000000    0.00045517  15 t-inv F
  0.153846  0.230769  0.000000    0.00045517  15 t-inv F
 -0.153846 -0.230769  0.000000    0.00045517  15 t-inv F
 -0.307692 -0.153846  0.000000    0.00045517  16 t-inv F
  0.000000  0.307692  0.153846    0.00045517  16 t-inv F
  0.000000 -0.307692 -0.153846    0.00045517  16 t-inv F
  0.153846  0.000000  0.307692    0.00045517  16 t-inv F
 -0.153846  0.000000 -0.307692    0.00045517  16 t-inv F
 -0.153846  0.307692  0.000000    0.00045517  16 t-inv F
  0.153846 -0.307692  0.000000    0.00045517  16 t-inv F
 -0.307692  0.000000  0.153846    0.00045517  16 t-inv F
  0.307692  0.000000 -0.153846    0.00045517  16 t-inv F
  0.000000  0.153846  0.307692    0.00045517  16 t-inv F
  0.000000 -0.153846 -0.307692    0.00045517  16 t-inv F
  0.000000 -0.307692  0.153846    0.00045517  16 t-inv F
  0.000000  0.307692 -0.153846    0.00045517  16 t-inv F
 -0.153846  0.000000  0.307692    0.00045517  16 t-inv F
  0.153846  0.000000 -0.307692    0.00045517  16 t-inv F
  0.307692  0.000000  0.153846    0.00045517  16 t-inv F
 -0.307692  0.000000 -0.153846    0.00045517  16 t-inv F
  0.000000 -0.153846  0.307692    0.00045517  16 t-inv F
  0.000000  0.153846 -0.307692    0.00045517  16 t-inv F
  0.307692 -0.153846  0.000000    0.00045517  16 t-inv F
 -0.307692  0.153846  0.000000    0.00045517  16 t-inv F
  0.153846  0.307692  0.000000    0.00045517  16 t-inv F
 -0.153846 -0.307692  0.000000    0.00045517  16 t-inv F
 -0.384615 -0.153846  0.000000    0.00045517  17 t-inv F
  0.000000  0.384615  0.153846    0.00045517  17 t-inv F
  0.000000 -0.384615 -0.153846    0.00045517  17 t-inv F
  0.153846  0.000000  0.384615    0.00045517  17 t-inv F
 -0.153846  0.000000 -0.384615    0.00045517  17 t-inv F
 -0.153846  0.384615  0.000000    0.00045517  17 t-inv F
  0.153846 -0.384615  0.000000    0.00045517  17 t-inv F
 -0.384615  0.000000  0.153846    0.00045517  17 t-inv F
  0.384615  0.000000 -0.153846    0.00045517  17 t-inv F
  0.000000  0.153846  0.384615    0.00045517  17 t-inv F
  0.000000 -0.153846 -0.384615    0.00045517  17 t-inv F
  0.000000 -0.384615  0.153846    0.00045517  17 t-inv F
  0.000000  0.384615 -0.153846    0.00045517  17 t-inv F
 -0.153846  0.000000  0.384615    0.00045517  17 t-inv F
  0.153846  0.000000 -0.384615    0.00045517  17 t-inv F
  0.384615  0.000000  0.153846    0.00045517  17 t-inv F
 -0.384615  0.000000 -0.153846    0.00045517  17 t-inv F
  0.000000 -0.153846  0.384615    0.00045517  17 t-inv F
  0.000000  0.153846 -0.384615    0.00045517  17 t-inv F
  0.384615 -0.153846  0.000000    0.00045517  17 t-inv F
 -0.384615  0.153846  0.000000    0.00045517  17 t-inv F
  0.153846  0.384615  0.000000    0.00045517  17 t-inv F
 -0.153846 -0.384615  0.000000    0.00045517  17 t-inv F
 -0.461538 -0.153846  0.000000    0.00045517  18 t-inv F
  0.000000  0.461538  0.153846    0.00045517  18 t-inv F
  0.000000 -0.461538 -0.153846    0.00045517  18 t-inv F
  0.153846  0.000000  0.461538    0.00045517  18 t-inv F
 -0.153846  0.000000 -0.461538    0.00045517  18 t-inv F
 -0.153846  0.461538  0.000000    0.00045517  18 t-inv F
  0.153846 -0.461538  0.000000    0.00045517  18 t-inv F
 -0.461538  0.000000  0.153846    0.00045517  18 t-inv F
  0.461538  0.000000 -0.153846    0.00045517  18 t-inv F
  0.000000  0.153846  0.461538    0.00045517  18 t-inv F
  0.000000 -0.153846 -0.461538    0.00045517  18 t-inv F
  0.000000 -0.461538  0.153846    0.00045517  18 t-inv F
  0.000000  0.461538 -0.153846    0.00045517  18 t-inv F
 -0.153846  0.000000  0.461538    0.00045517  18 t-inv F
  0.153846  0.000000 -0.461538    0.00045517  18 t-inv F
  0.461538  0.000000  0.153846    0.00045517  18 t-inv F
 -0.461538  0.000000 -0.153846    0.00045517  18 t-inv F
  0.000000 -0.153846  0.461538    0.00045517  18 t-inv F
  0.000000  0.153846 -0.461538    0.00045517  18 t-inv F
  0.461538 -0.153846  0.000000    0.00045517  18 t-inv F
 -0.461538  0.153846  0.000000    0.00045517  18 t-inv F
  0.153846  0.461538  0.000000    0.00045517  18 t-inv F
 -0.153846 -0.461538  0.000000    0.00045517  18 t-inv F
 -0.230769 -0.230769  0.000000    0.00045517  19 t-inv F
  0.000000  0.230769  0.230769    0.00045517  19 t-inv F
  0.000000 -0.230769 -0.230769    0.00045517  19 t-inv F
  0.230769  0.000000  0.230769    0.00045517  19 t-inv F
 -0.230769  0.000000 -0.230769    0.00045517  19 t-inv F
 -0.230769  0.230769  0.000000    0.00045517  19 t-inv F
  0.230769 -0.230769  0.000000    0.00045517  19 t-inv F
 -0.230769  0.000000  0.230769    0.00045517  19 t-inv F
  0.230769  0.000000 -0.230769    0.00045517  19 t-inv F
  0.000000 -0.230769  0.230769    0.00045517  19 t-inv F
  0.000000  0.230769 -0.230769    0.00045517  19 t-inv F
 -0.307692 -0.230769  0.000000    0.00045517  20 t-inv F
  0.000000  0.307692  0.230769    0.00045517  20 t-inv F
  0.000000 -0.307692 -0.230769    0.00045517  20 t-inv F
  0.230769  0.000000  0.307692    0.00045517  20 t-inv F
 -0.230769  0.000000 -0.307692    0.00045517  20 t-inv F
 -0.230769  0.307692  0.000000    0.00045517  20 t-inv F
  0.230769 -0.307692  0.000000    0.00045517  20 t-inv F
 -0.307692  0.000000  0.230769    0.00045517  20 t-inv F
  0.307692  0.000000 -0.230769    0.00045517  20 t-inv F
  0.000000  0.230769  0.307692    0.00045517  20 t-inv F
  0.000000 -0.230769 -0.307692    0.00045517  20 t-inv F
  0.000000 -0.307692  0.230769    0.00045517  20 t-inv F
  0.000000  0.307692 -0.230769    0.00045517  20 t-inv F
 -0.230769  0.000000  0.307692    0.00045517  20 t-inv F
  0.230769  0.000000 -0.307692    0.00045517  20 t-inv F
  0.307692  0.000000  0.230769    0.00045517  20 t-inv F
 -0.307692  0.000000 -0.230769    0.00045517  20 t-inv F
  0.000000 -0.230769  0.307692    0.00045517  20 t-inv F
  0.000000  0.230769 -0.307692    0.00045517  20 t-inv F
  0.307692 -0.230769  0.000000    0.00045517  20 t-inv F
 -0.307692  0.230769  0.000000    0.00045517  20 t-inv F
  0.230769  0.307692  0.000000    0.00045517  20 t-inv F
 -0.230769 -0.307692  0.000000    0.00045517  20 t-inv F
 -0.384615 -0.230769  0.000000    0.00045517  21 t-inv F
  0.000000  0.384615  0.230769    0.00045517  21 t-inv F
  0.000000 -0.384615 -0.230769    0.00045517  21 t-inv F
  0.230769  0.000000  0.384615    0.00045517  21 t-inv F
 -0.230769  0.000000 -0.384615    0.00045517  21 t-inv F
 -0.230769  0.384615  0.000000    0.00045517  21 t-inv F
  0.230769 -0.384615  0.000000    0.00045517  21 t-inv F
 -0.384615  0.000000  0.230769    0.00045517  21 t-inv F
  0.384615  0.000000 -0.230769    0.00045517  21 t-inv F
  0.000000  0.230769  0.384615    0.00045517  21 t-inv F
  0.000000 -0.230769 -0.384615    0.00045517  21 t-inv F
  0.000000 -0.384615  0.230769    0.00045517  21 t-inv F
  0.000000  0.384615 -0.230769    0.00045517  21 t-inv F
 -0.230769  0.000000  0.384615    0.00045517  21 t-inv F
  0.230769  0.000000 -0.384615    0.00045517  21 t-inv F
  0.384615  0.000000  0.230769    0.00045517  21 t-inv F
 -0.384615  0.000000 -0.230769    0.00045517  21 t-inv F
  0.000000 -0.230769  0.384615    0.00045517  21 t-inv F
  0.000000  0.230769 -0.384615    0.00045517  21 t-inv F
  0.384615 -0.230769  0.000000    0.00045517  21 t-inv F
 -0.384615  0.230769  0.000000    0.00045517  21 t-inv F
  0.230769  0.384615  0.000000    0.00045517  21 t-inv F
 -0.230769 -0.384615  0.000000    0.00045517  21 t-inv F
 -0.461538 -0.230769  0.000000    0.00045517  22 t-inv F
  0.000000  0.461538  0.230769    0.00045517  22 t-inv F
  0.000000 -0.461538 -0.230769    0.00045517  22 t-inv F
  0.230769  0.000000  0.461538    0.00045517  22 t-inv F
 -0.230769  0.000000 -0.461538    0.00045517  22 t-inv F
 -0.230769  0.461538  0.000000    0.00045517  22 t-inv F
  0.230769 -0.461538  0.000000    0.00045517  22 t-inv F
 -0.461538  0.000000  0.230769    0.00045517  22 t-inv F
  0.461538  0.000000 -0.230769    0.00045517  22 t-inv F
  0.000000  0.230769  0.461538    0.00045517  22 t-inv F
  0.000000 -0.230769 -0.461538    0.00045517  22 t-inv F
  0.000000 -0.461538  0.230769    0.00045517  22 t-inv F
  0.000000  0.461538 -0.230769    0.00045517  22 t-inv F
 -0.230769  0.000000  0.461538    0.00045517  22 t-inv F
  0.230769  0.000000 -0.461538    0.00045517  22 t-inv F
  0.461538  0.000000  0.230769    0.00045517  22 t-inv F
 -0.461538  0.000000 -0.230769    0.00045517  22 t-inv F
  0.000000 -0.230769  0.461538    0.00045517  22 t-inv F
  0.000000  0.230769 -0.461538    0.00045517  22 t-inv F
  0.461538 -0.230769  0.000000    0.00045517  22 t-inv F
 -0.461538  0.230769  0.000000    0.00045517  22 t-inv F
  0.230769  0.461538  0.000000    0.00045517  22 t-inv F
 -0.230769 -0.461538  0.000000    0.00045517  22 t-inv F
 -0.307692 -0.307692  0.000000    0.00045517  23 t-inv F
  0.000000  0.307692  0.307692    0.00045517  23 t-inv F
  0.000000 -0.307692 -0.307692    0.00045517  23 t-inv F
  0.307692  0.000000  0.307692    0.00045517  23 t-inv F
 -0.307692  0.000000 -0.307692    0.00045517  23 t-inv F
 -0.307692  0.307692  0.000000    0.00045517  23 t-inv F
  0.307692 -0.307692  0.000000    0.00045517  23 t-inv F
 -0.307692  0.000000  0.307692    0.00045517  23 t-inv F
  0.307692  0.000000 -0.307692    0.00045517  23 t-inv F
  0.000000 -0.307692  0.307692    0.00045517  23 t-inv F
  0.000000  0.307692 -0.307692    0.00045517  23 t-inv F
 -0.384615 -0.307692  0.000000    0.00045517  24 t-inv F
  0.000000  0.384615  0.307692    0.00045517  24 t-inv F
  0.000000 -0.384615 -0.307692    0.00045517  24 t-inv F
  0.307692  0.000000  0.384615    0.00045517  24 t-inv F
 -0.307692  0.000000 -0.384615    0.00045517  24 t-inv F
 -0.307692  0.384615  0.000000    0.00045517  24 t-inv F
  0.307692 -0.384615  0.000000    0.00045517  24 t-inv F
 -0.384615  0.000000  0.307692    0.00045517  24 t-inv F
  0.384615  0.000000 -0.307692    0.00045517  24 t-inv F
  0.000000  0.307692  0.384615    0.00045517  24 t-inv F
  0.000000 -0.307692 -0.384615    0.00045517  24 t-inv F
  0.000000 -0.384615  0.307692    0.00045517  24 t-inv F
  0.000000  0.384615 -0.307692    0.00045517  24 t-inv F
 -0.307692  0.000000  0.384615    0.00045517  24 t-inv F
  0.307692  0.000000 -0.384615    0.00045517  24 t-inv F
  0.384615  0.000000  0.307692    0.00045517  24 t-inv F
 -0.384615  0.000000 -0.307692    0.00045517  24 t-inv F
  0.000000 -0.307692  0.384615    0.00045517  24 t-inv F
  0.000000  0.307692 -0.384615    0.00045517  24 t-inv F
  0.384615 -0.307692  0.000000    0.00045517  24 t-inv F
 -0.384615  0.307692  0.000000    0.00045517  24 t-inv F
  0.307692  0.384615  0.000000    0.00045517  24 t-inv F
 -0.307692 -0.384615  0.000000    0.00045517  24 t-inv F
 -0.461538 -0.307692  0.000000    0.00045517  25 t-inv F
  0.000000  0.461538  0.307692    0.00045517  25 t-inv F
  0.000000 -0.461538 -0.307692    0.00045517  25 t-inv F
  0.307692  0.000000  0.461538    0.00045517  25 t-inv F
 -0.307692  0.000000 -0.461538    0.00045517  25 t-inv F
 -0.307692  0.461538  0.000000    0.00045517  25 t-inv F
  0.307692 -0.461538  0.000000    0.00045517  25 t-inv F
 -0.461538  0.000000  0.307692    0.00045517  25 t-inv F
  0.461538  0.000000 -0.307692    0.00045517  25 t-inv F
  0.000000  0.307692  0.461538    0.00045517  25 t-inv F
  0.000000 -0.307692 -0.461538    0.00045517  25 t-inv F
  0.000000 -0.461538  0.307692    0.00045517  25 t-inv F
  0.000000  0.461538 -0.307692    0.00045517  25 t-inv F
 -0.307692  0.000000  0.461538    0.00045517  25 t-inv F
  0.307692  0.000000 -0.461538    0.00045517  25 t-inv F
  0.461538  0.000000  0.307692    0.00045517  25 t-inv F
 -0.461538  0.000000 -0.307692    0.00045517  25 t-inv F
  0.000000 -0.307692  0.461538    0.00045517  25 t-inv F
  0.000000  0.307692 -0.461538    0.00045517  25 t-inv F
  0.461538 -0.307692  0.000000    0.00045517  25 t-inv F
 -0.461538  0.307692  0.000000    0.00045517  25 t-inv F
  0.307692  0.461538  0.000000    0.00045517  25 t-inv F
 -0.307692 -0.461538  0.000000    0.00045517  25 t-inv F
 -0.384615 -0.384615  0.000000    0.00045517  26 t-inv F
  0.000000  0.384615  0.384615    0.00045517  26 t-inv F
  0.000000 -0.384615 -0.384615    0.00045517  26 t-inv F
  0.384615  0.000000  0.384615    0.00045517  26 t-inv F
 -0.384615  0.000000 -0.384615    0.00045517  26 t-inv F
 -0.384615  0.384615  0.000000    0.00045517  26 t-inv F
  0.384615 -0.384615  0.000000    0.00045517  26 t-inv F
 -0.384615  0.000000  0.384615    0.00045517  26 t-inv F
  0.384615  0.000000 -0.384615    0.00045517  26 t-inv F
  0.000000 -0.384615  0.384615    0.00045517  26 t-inv F
  0.000000  0.384615 -0.384615    0.00045517  26 t-inv F
 -0.461538 -0.384615  0.000000    0.00045517  27 t-inv F
  0.000000  0.461538  0.384615    0.00045517  27 t-inv F
  0.000000 -0.461538 -0.384615    0.00045517  27 t-inv F
  0.384615  0.000000  0.461538    0.00045517  27 t-inv F
 -0.384615  0.000000 -0.461538    0.00045517  27 t-inv F
 -0.384615  0.461538  0.000000    0.00045517  27 t-inv F
  0.384615 -0.461538  0.000000    0.00045517  27 t-inv F
 -0.461538  0.000000  0.384615    0.00045517  27 t-inv F
  0.461538  0.000000 -0.384615    0.00045517  27 t-inv F
  0.000000  0.384615  0.461538    0.00045517  27 t-inv F
  0.000000 -0.384615 -0.461538    0.00045517  27 t-inv F
  0.000000 -0.461538  0.384615    0.00045517  27 t-inv F
  0.000000  0.461538 -0.384615    0.00045517  27 t-inv F
 -0.384615  0.000000  0.461538    0.00045517  27 t-inv F
  0.384615  0.000000 -0.461538    0.00045517  27 t-inv F
  0.461538  0.000000  0.384615    0.00045517  27 t-inv F
 -0.461538  0.000000 -0.384615    0.00045517  27 t-inv F
  0.000000 -0.384615  0.461538    0.00045517  27 t-inv F
  0.000000  0.384615 -0.461538    0.00045517  27 t-inv F
  0.461538 -0.384615  0.000000    0.00045517  27 t-inv F
 -0.461538  0.384615  0.000000    0.00045517  27 t-inv F
  0.384615  0.461538  0.000000    0.00045517  27 t-inv F
 -0.384615 -0.461538  0.000000    0.00045517  27 t-inv F
 -0.461538 -0.461538  0.000000    0.00045517  28 t-inv F
  0.000000  0.461538  0.461538    0.00045517  28 t-inv F
  0.000000 -0.461538 -0.461538    0.00045517  28 t-inv F
  0.461538  0.000000  0.461538    0.00045517  28 t-inv F
 -0.461538  0.000000 -0.461538    0.00045517  28 t-inv F
 -0.461538  0.461538  0.000000    0.00045517  28 t-inv F
  0.461538 -0.461538  0.000000    0.00045517  28 t-inv F
 -0.461538  0.000000  0.461538    0.00045517  28 t-inv F
  0.461538  0.000000 -0.461538    0.00045517  28 t-inv F
  0.000000 -0.461538  0.461538    0.00045517  28 t-inv F
  0.000000  0.461538 -0.461538    0.00045517  28 t-inv F
 -0.076923 -0.076923 -0.076923    0.00045517  29 t-inv F
 -0.076923  0.076923  0.076923    0.00045517  29 t-inv F
  0.076923 -0.076923 -0.076923    0.00045517  29 t-inv F
 -0.076923 -0.076923  0.076923    0.00045517  29 t-inv F
  0.076923  0.076923 -0.076923    0.00045517  29 t-inv F
  0.076923 -0.076923  0.076923    0.00045517  29 t-inv F
 -0.076923  0.076923 -0.076923    0.00045517  29 t-inv F
 -0.153846 -0.076923 -0.076923    0.00045517  30 t-inv F
  0.076923  0.153846  0.076923    0.00045517  30 t-inv F
 -0.076923 -0.153846 -0.076923    0.00045517  30 t-inv F
  0.076923  0.076923  0.153846    0.00045517  30 t-inv F
 -0.076923 -0.076923 -0.153846    0.00045517  30 t-inv F
 -0.076923  0.153846  0.076923    0.00045517  30 t-inv F
  0.076923 -0.153846 -0.076923    0.00045517  30 t-inv F
 -0.153846  0.076923  0.076923    0.00045517  30 t-inv F
  0.153846 -0.076923 -0.076923    0.00045517  30 t-inv F
 -0.076923  0.076923  0.153846    0.00045517  30 t-inv F
  0.076923 -0.076923 -0.153846    0.00045517  30 t-inv F
 -0.153846 -0.076923  0.076923    0.00045517  30 t-inv F
  0.153846  0.076923 -0.076923    0.00045517  30 t-inv F
 -0.076923 -0.153846  0.076923    0.00045517  30 t-inv F
  0.076923  0.153846 -0.076923    0.00045517  30 t-inv F
 -0.076923 -0.076923  0.153846    0.00045517  30 t-inv F
  0.076923  0.076923 -0.153846    0.00045517  30 t-inv F
  0.076923 -0.153846  0.076923    0.00045517  30 t-inv F
 -0.076923  0.153846 -0.076923    0.00045517  30 t-inv F
  0.153846 -0.076923  0.076923    0.00045517  30 t-inv F
 -0.153846  0.076923 -0.076923    0.00045517  30 t-inv F
  0.076923 -0.076923  0.153846    0.00045517  30 t-inv F
 -0.076923  0.076923 -0.153846    0.00045517  30 t-inv F
 -0.230769 -0.076923 -0.076923    0.00045517  31 t-inv F
  0.076923  0.230769  0.076923    0.00045517  31 t-inv F
 -0.076923 -0.230769 -0.076923    0.00045517  31 t-inv F
  0.076923  0.076923  0.230769    0.00045517  31 t-inv F
 -0.076923 -0.076923 -0.230769    0.00045517  31 t-inv F
 -0.076923  0.230769  0.076923    0.00045517  31 t-inv F
  0.076923 -0.230769 -0.076923    0.00045517  31 t-inv F
 -0.230769  0.076923  0.076923    0.00045517  31 t-inv F
  0.230769 -0.076923 -0.076923    0.00045517  31 t-inv F
 -0.076923  0.076923  0.230769    0.00045517  31 t-inv F
  0.076923 -0.076923 -0.230769    0.00045517  31 t-inv F
 -0.230769 -0.076923  0.076923    0.00045517  31 t-inv F
  0.230769  0.076923 -0.076923    0.00045517  31 t-inv F
 -0.076923 -0.230769  0.076923    0.00045517  31 t-inv F
  0.076923  0.230769 -0.076923    0.00045517  31 t-inv F
 -0.076923 -0.076923  0.230769    0.00045517  31 t-inv F
  0.076923  0.076923 -0.230769    0.00045517  31 t-inv F
  0.076923 -0.230769  0.076923    0.00045517  31 t-inv F
 -0.076923  0.230769 -0.076923    0.00045517  31 t-inv F
  0.230769 -0.076923  0.076923    0.00045517  31 t-inv F
 -0.230769  0.076923 -0.076923    0.00045517  31 t-inv F
  0.076923 -0.076923  0.230769    0.00045517  31 t-inv F
 -0.076923  0.076923 -0.230769    0.00045517  31 t-inv F
 -0.307692 -0.076923 -0.076923    0.00045517  32 t-inv F
  0.076923  0.307692  0.076923    0.00045517  32 t-inv F
 -0.076923 -0.307692 -0.076923    0.00045517  32 t-inv F
  0.076923  0.076923  0.307692    0.00045517  32 t-inv F
 -0.076923 -0.076923 -0.307692    0.00045517  32 t-inv F
 -0.076923  0.307692  0.076923    0.00045517  32 t-inv F
  0.076923 -0.307692 -0.076923    0.00045517  32 t-inv F
 -0.307692  0.076923  0.076923    0.00045517  32 t-inv F
  0.307692 -0.076923 -0.076923    0.00045517  32 t-inv F
 -0.076923  0.076923  0.307692    0.00045517  32 t-inv F
  0.076923 -0.076923 -0.307692    0.00045517  32 t-inv F
 -0.307692 -0.076923  0.076923    0.00045517  32 t-inv F
  0.307692  0.076923 -0.076923    0.00045517  32 t-inv F
 -0.076923 -0.307692  0.076923    0.00045517  32 t-inv F
  0.076923  0.307692 -0.076923    0.00045517  32 t-inv F
 -0.076923 -0.076923  0.307692    0.00045517  32 t-inv F
  0.076923  0.076923 -0.307692    0.00045517  32 t-inv F
  0.076923 -0.307692  0.076923    0.00045517  32 t-inv F
 -0.076923  0.307692 -0.076923    0.00045517  32 t-inv F
  0.307692 -0.076923  0.076923    0.00045517  32 t-inv F
 -0.307692  0.076923 -0.076923    0.00045517  32 t-inv F
  0.076923 -0.076923  0.307692    0.00045517  32 t-inv F
 -0.076923  0.076923 -0.307692    0.00045517  32 t-inv F
 -0.384615 -0.076923 -0.076923    0.00045517  33 t-inv F
  0.076923  0.384615  0.076923    0.00045517  33 t-inv F
 -0.076923 -0.384615 -0.076923    0.00045517  33 t-inv F
  0.076923  0.076923  0.384615    0.00045517  33 t-inv F
 -0.076923 -0.076923 -0.384615    0.00045517  33 t-inv F
 -0.076923  0.384615  0.076923    0.00045517  33 t-inv F
  0.076923 -0.384615 -0.076923    0.00045517  33 t-inv F
 -0.384615  0.076923  0.076923    0.00045517  33 t-inv F
  0.384615 -0.076923 -0.076923    0.00045517  33 t-inv F
 -0.076923  0.076923  0.384615    0.00045517  33 t-inv F
  0.076923 -0.076923 -0.384615    0.00045517  33 t-inv F
 -0.384615 -0.076923  0.076923    0.00045517  33 t-inv F
  0.384615  0.076923 -0.076923    0.00045517  33 t-inv F
 -0.076923 -0.384615  0.076923    0.00045517  33 t-inv F
  0.076923  0.384615 -0.076923    0.00045517  33 t-inv F
 -0.076923 -0.076923  0.384615    0.00045517  33 t-inv F
  0.076923  0.076923 -0.384615    0.00045517  33 t-inv F
  0.076923 -0.384615  0.076923    0.00045517  33 t-inv F
 -0.076923  0.384615 -0.076923    0.00045517  33 t-inv F
  0.384615 -0.076923  0.076923    0.00045517  33 t-inv F
 -0.384615  0.076923 -0.076923    0.00045517  33 t-inv F
  0.076923 -0.076923  0.384615    0.00045517  33 t-inv F
 -0.076923  0.076923 -0.384615    0.00045517  33 t-inv F
 -0.461538 -0.076923 -0.076923    0.00045517  34 t-inv F
  0.076923  0.461538  0.076923    0.00045517  34 t-inv F
 -0.076923 -0.461538 -0.076923    0.00045517  34 t-inv F
  0.076923  0.076923  0.461538    0.00045517  34 t-inv F
 -0.076923 -0.076923 -0.461538    0.00045517  34 t-inv F
 -0.076923  0.461538  0.076923    0.00045517  34 t-inv F
  0.076923 -0.461538 -0.076923    0.00045517  34 t-inv F
 -0.461538  0.076923  0.076923    0.00045517  34 t-inv F
  0.461538 -0.076923 -0.076923    0.00045517  34 t-inv F
 -0.076923  0.076923  0.461538    0.00045517  34 t-inv F
  0.076923 -0.076923 -0.461538    0.00045517  34 t-inv F
 -0.461538 -0.076923  0.076923    0.00045517  34 t-inv F
  0.461538  0.076923 -0.076923    0.00045517  34 t-inv F
 -0.076923 -0.461538  0.076923    0.00045517  34 t-inv F
  0.076923  0.461538 -0.076923    0.00045517  34 t-inv F
 -0.076923 -0.076923  0.461538    0.00045517  34 t-inv F
  0.076923  0.076923 -0.461538    0.00045517  34 t-inv F
  0.076923 -0.461538  0.076923    0.00045517  34 t-inv F
 -0.076923  0.461538 -0.076923    0.00045517  34 t-inv F
  0.461538 -0.076923  0.076923    0.00045517  34 t-inv F
 -0.461538  0.076923 -0.076923    0.00045517  34 t-inv F
  0.076923 -0.076923  0.461538    0.00045517  34 t-inv F
 -0.076923  0.076923 -0.461538    0.00045517  34 t-inv F
 -0.153846 -0.153846 -0.076923    0.00045517  35 t-inv F
  0.076923  0.153846  0.153846    0.00045517  35 t-inv F
 -0.076923 -0.153846 -0.153846    0.00045517  35 t-inv F
  0.153846  0.076923  0.153846    0.00045517  35 t-inv F
 -0.153846 -0.076923 -0.153846    0.00045517  35 t-inv F
 -0.153846  0.153846  0.076923    0.00045517  35 t-inv F
  0.153846 -0.153846 -0.076923    0.00045517  35 t-inv F
 -0.153846  0.076923  0.153846    0.00045517  35 t-inv F
  0.153846 -0.076923 -0.153846    0.00045517  35 t-inv F
 -0.076923  0.153846  0.153846    0.00045517  35 t-inv F
  0.076923 -0.153846 -0.153846    0.00045517  35 t-inv F
 -0.153846 -0.153846  0.076923    0.00045517  35 t-inv F
  0.153846  0.153846 -0.076923    0.00045517  35 t-inv F
 -0.076923 -0.153846  0.153846    0.00045517  35 t-inv F
  0.076923  0.153846 -0.153846    0.00045517  35 t-inv F
 -0.153846 -0.076923  0.153846    0.00045517  35 t-inv F
  0.153846  0.076923 -0.153846    0.00045517  35 t-inv F
  0.153846 -0.153846  0.076923    0.00045517  35 t-inv F
 -0.153846  0.153846 -0.076923    0.00045517  35 t-inv F
  0.153846 -0.076923  0.153846    0.00045517  35 t-inv F
 -0.153846  0.076923 -0.153846    0.00045517  35 t-inv F
  0.076923 -0.153846  0.153846    0.00045517  35 t-inv F
 -0.076923  0.153846 -0.153846    0.00045517  35 t-inv F
 -0.230769 -0.153846 -0.076923    0.00045517  36 t-inv F
  0.076923  0.230769  0.153846    0.00045517  36 t-inv F
 -0.076923 -0.230769 -0.153846    0.00045517  36 t-inv F
  0.153846  0.076923  0.230769    0.00045517  36 t-inv F
 -0.153846 -0.076923 -0.230769    0.00045517  36 t-inv F
 -0.153846  0.230769  0.076923    0.00045517  36 t-inv F
  0.153846 -0.230769 -0.076923    0.00045517  36 t-inv F
 -0.230769  0.076923  0.153846    0.00045517  36 t-inv F
  0.230769 -0.076923 -0.153846    0.00045517  36 t-inv F
 -0.076923  0.153846  0.230769    0.00045517  36 t-inv F
  0.076923 -0.153846 -0.230769    0.00045517  36 t-inv F
 -0.230769 -0.153846  0.076923    0.00045517  36 t-inv F
  0.230769  0.153846 -0.076923    0.00045517  36 t-inv F
 -0.076923 -0.230769  0.153846    0.00045517  36 t-inv F
  0.076923  0.230769 -0.153846    0.00045517  36 t-inv F
 -0.153846 -0.076923  0.230769    0.00045517  36 t-inv F
  0.153846  0.076923 -0.230769    0.00045517  36 t-inv F
  0.153846 -0.230769  0.076923    0.00045517  36 t-inv F
 -0.153846  0.230769 -0.076923    0.00045517  36 t-inv F
  0.230769 -0.076923  0.153846    0.00045517  36 t-inv F
 -0.230769  0.076923 -0.153846    0.00045517  36 t-inv F
  0.076923 -0.153846  0.230769    0.00045517  36 t-inv F
 -0.076923  0.153846 -0.230769    0.00045517  36 t-inv F
  0.076923 -0.230769 -0.153846    0.00045517  36 t-inv F
 -0.076923  0.230769  0.153846    0.00045517  36 t-inv F
  0.153846 -0.076923 -0.230769    0.00045517  36 t-inv F
 -0.153846  0.076923  0.230769    0.00045517  36 t-inv F
  0.230769 -0.153846 -0.076923    0.00045517  36 t-inv F
 -0.230769  0.153846  0.076923    0.00045517  36 t-inv F
  0.076923  0.153846 -0.230769    0.00045517  36 t-inv F
 -0.076923 -0.153846  0.230769    0.00045517  36 t-inv F
  0.153846  0.230769 -0.076923    0.00045517  36 t-inv F
 -0.153846 -0.230769  0.076923    0.00045517  36 t-inv F
  0.230769  0.076923 -0.153846    0.00045517  36 t-inv F
 -0.230769 -0.076923  0.153846    0.00045517  36 t-inv F
 -0.153846  0.076923 -0.230769    0.00045517  36 t-inv F
  0.153846 -0.076923  0.230769    0.00045517  36 t-inv F
 -0.230769  0.153846 -0.076923    0.00045517  36 t-inv F
  0.230769 -0.153846  0.076923    0.00045517  36 t-inv F
 -0.076923  0.230769 -0.153846    0.00045517  36 t-inv F
  0.076923 -0.230769  0.153846    0.00045517  36 t-inv F
 -0.230769 -0.076923 -0.153846    0.00045517  36 t-inv F
  0.230769  0.076923  0.153846    0.00045517  36 t-inv F
 -0.153846 -0.230769 -0.076923    0.00045517  36 t-inv F
  0.153846  0.230769  0.076923    0.00045517  36 t-inv F
 -0.076923 -0.153846 -0.230769    0.00045517  36 t-inv F
  0.076923  0.153846  0.230769    0.00045517  36 t-inv F
 -0.307692 -0.153846 -0.076923    0.00045517  37 t-inv F
  0.076923  0.307692  0.153846    0.00045517  37 t-inv F
 -0.076923 -0.307692 -0.153846    0.00045517  37 t-inv F
  0.153846  0.076923  0.307692    0.00045517  37 t-inv F
 -0.153846 -0.076923 -0.307692    0.00045517  37 t-inv F
 -0.153846  0.307692  0.076923    0.00045517  37 t-inv F
  0.153846 -0.307692 -0.076923    0.00045517  37 t-inv F
 -0.307692  0.076923  0.153846    0.00045517  37 t-inv F
  0.307692 -0.076923 -0.153846    0.00045517  37 t-inv F
 -0.076923  0.153846  0.307692    0.00045517  37 t-inv F
  0.076923 -0.153846 -0.307692    0.00045517  37 t-inv F
 -0.307692 -0.153846  0.076923    0.00045517  37 t-inv F
  0.307692  0.153846 -0.076923    0.00045517  37 t-inv F
 -0.076923 -0.307692  0.153846    0.00045517  37 t-inv F
  0.076923  0.307692 -0.153846    0.00045517  37 t-inv F
 -0.153846 -0.076923  0.307692    0.00045517  37 t-inv F
  0.153846  0.076923 -0.307692    0.00045517  37 t-inv F
  0.153846 -0.307692  0.076923    0.00045517  37 t-inv F
 -0.153846  0.307692 -0.076923    0.00045517  37 t-inv F
  0.307692 -0.076923  0.153846    0.00045517  37 t-inv F
 -0.307692  0.076923 -0.153846    0.00045517  37 t-inv F
  0.076923 -0.153846  0.307692    0.00045517  37 t-inv F
 -0.076923  0.153846 -0.307692    0.00045517  37 t-inv F
  0.076923 -0.307692 -0.153846    0.00045517  37 t-inv F
 -0.076923  0.307692  0.153846    0.00045517  37 t-inv F
  0.153846 -0.076923 -0.307692    0.00045517  37 t-inv F
 -0.153846  0.076923  0.307692    0.00045517  37 t-inv F
  0.307692 -0.153846 -0.076923    0.00045517  37 t-inv F
 -0.307692  0.153846  0.076923    0.00045517  37 t-inv F
  0.076923  0.153846 -0.307692    0.00045517  37 t-inv F
 -0.076923 -0.153846  0.307692    0.00045517  37 t-inv F
  0.153846  0.307692 -0.076923    0.00045517  37 t-inv F
 -0.153846 -0.307692  0.076923    0.00045517  37 t-inv F
  0.307692  0.076923 -0.153846    0.00045517  37 t-inv F
 -0.307692 -0.076923  0.153846    0.00045517  37 t-inv F
 -0.153846  0.076923 -0.307692    0.00045517  37 t-inv F
  0.153846 -0.076923  0.307692    0.00045517  37 t-inv F
 -0.307692  0.153846 -0.076923    0.00045517  37 t-inv F
  0.307692 -0.153846  0.076923    0.00045517  37 t-inv F
 -0.076923  0.307692 -0.153846    0.00045517  37 t-inv F
  0.076923 -0.307692  0.153846    0.00045517  37 t-inv F
 -0.307692 -0.076923 -0.153846    0.00045517  37 t-inv F
  0.307692  0.076923  0.153846    0.00045517  37 t-inv F
 -0.153846 -0.307692 -0.076923    0.00045517  37 t-inv F
  0.153846  0.307692  0.076923    0.00045517  37 t-inv F
 -0.076923 -0.153846 -0.307692    0.00045517  37 t-inv F
  0.076923  0.153846  0.307692    0.00045517  37 t-inv F
 -0.384615 -0.153846 -0.076923    0.00045517  38 t-inv F
  0.076923  0.384615  0.153846    0.00045517  38 t-inv F
 -0.076923 -0.384615 -0.153846    0.00045517  38 t-inv F
  0.153846  0.076923  0.384615    0.00045517  38 t-inv F
 -0.153846 -0.076923 -0.384615    0.00045517  38 t-inv F
 -0.153846  0.384615  0.076923    0.00045517  38 t-inv F
  0.153846 -0.384615 -0.076923    0.00045517  38 t-inv F
 -0.384615  0.076923  0.153846    0.00045517  38 t-inv F
  0.384615 -0.076923 -0.153846    0.00045517  38 t-inv F
 -0.076923  0.153846  0.384615    0.00045517  38 t-inv F
  0.076923 -0.153846 -0.384615    0.00045517  38 t-inv F
 -0.384615 -0.153846  0.076923    0.00045517  38 t-inv F
  0.384615  0.153846 -0.076923    0.00045517  38 t-inv F
 -0.076923 -0.384615  0.153846    0.00045517  38 t-inv F
  0.076923  0.384615 -0.153846    0.00045517  38 t-inv F
 -0.153846 -0.076923  0.384615    0.00045517  38 t-inv F
  0.153846  0.076923 -0.384615    0.00045517  38 t-inv F
  0.153846 -0.384615  0.076923    0.00045517  38 t-inv F
 -0.153846  0.384615 -0.076923    0.00045517  38 t-inv F
  0.384615 -0.076923  0.153846    0.00045517  38 t-inv F
 -0.384615  0.076923 -0.153846    0.00045517  38 t-inv F
  0.076923 -0.153846  0.384615    0.00045517  38 t-inv F
 -0.076923  0.153846 -0.384615    0.00045517  38 t-inv F
  0.076923 -0.384615 -0.153846    0.00045517  38 t-inv F
 -0.076923  0.384615  0.153846    0.00045517  38 t-inv F
  0.153846 -0.076923 -0.384615    0.00045517  38 t-inv F
 -0.153846  0.076923  0.384615    0.00045517  38 t-inv F
  0.384615 -0.153846 -0.076923    0.00045517  38 t-inv F
 -0.384615  0.153846  0.076923    0.00045517  38 t-inv F
  0.076923  0.153846 -0.384615    0.00045517  38 t-inv F
 -0.076923 -0.153846  0.384615    0.00045517  38 t-inv F
  0.153846  0.384615 -0.076923    0.00045517  38 t-inv F
 -0.153846 -0.384615  0.076923    0.00045517  38 t-inv F
  0.384615  0.076923 -0.153846    0.00045517  38 t-inv F
 -0.384615 -0.076923  0.153846    0.00045517  38 t-inv F
 -0.153846  0.076923 -0.384615    0.00045517  38 t-inv F
  0.153846 -0.076923  0.384615    0.00045517  38 t-inv F
 -0.384615  0.153846 -0.076923    0.00045517  38 t-inv F
  0.384615 -0.153846  0.076923    0.00045517  38 t-inv F
 -0.076923  0.384615 -0.153846    0.00045517  38 t-inv F
  0.076923 -0.384615  0.153846    0.00045517  38 t-inv F
 -0.384615 -0.076923 -0.153846    0.00045517  38 t-inv F
  0.384615  0.076923  0.153846    0.00045517  38 t-inv F
 -0.153846 -0.384615 -0.076923    0.00045517  38 t-inv F
  0.153846  0.384615  0.076923    0.00045517  38 t-inv F
 -0.076923 -0.153846 -0.384615    0.00045517  38 t-inv F
  0.076923  0.153846  0.384615    0.00045517  38 t-inv F
 -0.461538 -0.153846 -0.076923    0.00045517  39 t-inv F
  0.076923  0.461538  0.153846    0.00045517  39 t-inv F
 -0.076923 -0.461538 -0.153846    0.00045517  39 t-inv F
  0.153846  0.076923  0.461538    0.00045517  39 t-inv F
 -0.153846 -0.076923 -0.461538    0.00045517  39 t-inv F
 -0.153846  0.461538  0.076923    0.00045517  39 t-inv F
  0.153846 -0.461538 -0.076923    0.00045517  39 t-inv F
 -0.461538  0.076923  0.153846    0.00045517  39 t-inv F
  0.461538 -0.076923 -0.153846    0.00045517  39 t-inv F
 -0.076923  0.153846  0.461538    0.00045517  39 t-inv F
  0.076923 -0.153846 -0.461538    0.00045517  39 t-inv F
 -0.461538 -0.153846  0.076923    0.00045517  39 t-inv F
  0.461538  0.153846 -0.076923    0.00045517  39 t-inv F
 -0.076923 -0.461538  0.153846    0.00045517  39 t-inv F
  0.076923  0.461538 -0.153846    0.00045517  39 t-inv F
 -0.153846 -0.076923  0.461538    0.00045517  39 t-inv F
  0.153846  0.076923 -0.461538    0.00045517  39 t-inv F
  0.153846 -0.461538  0.076923    0.00045517  39 t-inv F
 -0.153846  0.461538 -0.076923    0.00045517  39 t-inv F
  0.461538 -0.076923  0.153846    0.00045517  39 t-inv F
 -0.461538  0.076923 -0.153846    0.00045517  39 t-inv F
  0.076923 -0.153846  0.461538    0.00045517  39 t-inv F
 -0.076923  0.153846 -0.461538    0.00045517  39 t-inv F
  0.076923 -0.461538 -0.153846    0.00045517  39 t-inv F
 -0.076923  0.461538  0.153846    0.00045517  39 t-inv F
  0.153846 -0.076923 -0.461538    0.00045517  39 t-inv F
 -0.153846  0.076923  0.461538    0.00045517  39 t-inv F
  0.461538 -0.153846 -0.076923    0.00045517  39 t-inv F
 -0.461538  0.153846  0.076923    0.00045517  39 t-inv F
  0.076923  0.153846 -0.461538    0.00045517  39 t-inv F
 -0.076923 -0.153846  0.461538    0.00045517  39 t-inv F
  0.153846  0.461538 -0.076923    0.00045517  39 t-inv F
 -0.153846 -0.461538  0.076923    0.00045517  39 t-inv F
  0.461538  0.076923 -0.153846    0.00045517  39 t-inv F
 -0.461538 -0.076923  0.153846    0.00045517  39 t-inv F
 -0.153846  0.076923 -0.461538    0.00045517  39 t-inv F
  0.153846 -0.076923  0.461538    0.00045517  39 t-inv F
 -0.461538  0.153846 -0.076923    0.00045517  39 t-inv F
  0.461538 -0.153846  0.076923    0.00045517  39 t-inv F
 -0.076923  0.461538 -0.153846    0.00045517  39 t-inv F
  0.076923 -0.461538  0.153846    0.00045517  39 t-inv F
 -0.461538 -0.076923 -0.153846    0.00045517  39 t-inv F
  0.461538  0.076923  0.153846    0.00045517  39 t-inv F
 -0.153846 -0.461538 -0.076923    0.00045517  39 t-inv F
  0.153846  0.461538  0.076923    0.00045517  39 t-inv F
 -0.076923 -0.153846 -0.461538    0.00045517  39 t-inv F
  0.076923  0.153846  0.461538    0.00045517  39 t-inv F
 -0.230769 -0.230769 -0.076923    0.00045517  40 t-inv F
  0.076923  0.230769  0.230769    0.00045517  40 t-inv F
 -0.076923 -0.230769 -0.230769    0.00045517  40 t-inv F
  0.230769  0.076923  0.230769    0.00045517  40 t-inv F
 -0.230769 -0.076923 -0.230769    0.00045517  40 t-inv F
 -0.230769  0.230769  0.076923    0.00045517  40 t-inv F
  0.230769 -0.230769 -0.076923    0.00045517  40 t-inv F
 -0.230769  0.076923  0.230769    0.00045517  40 t-inv F
  0.230769 -0.076923 -0.230769    0.00045517  40 t-inv F
 -0.076923  0.230769  0.230769    0.00045517  40 t-inv F
  0.076923 -0.230769 -0.230769    0.00045517  40 t-inv F
 -0.230769 -0.230769  0.076923    0.00045517  40 t-inv F
  0.230769  0.230769 -0.076923    0.00045517  40 t-inv F
 -0.076923 -0.230769  0.230769    0.00045517  40 t-inv F
  0.076923  0.230769 -0.230769    0.00045517  40 t-inv F
 -0.230769 -0.076923  0.230769    0.00045517  40 t-inv F
  0.230769  0.076923 -0.230769    0.00045517  40 t-inv F
  0.230769 -0.230769  0.076923    0.00045517  40 t-inv F
 -0.230769  0.230769 -0.076923    0.00045517  40 t-inv F
  0.230769 -0.076923  0.230769    0.00045517  40 t-inv F
 -0.230769  0.076923 -0.230769    0.00045517  40 t-inv F
  0.076923 -0.230769  0.230769    0.00045517  40 t-inv F
 -0.076923  0.230769 -0.230769    0.00045517  40 t-inv F
 -0.307692 -0.230769 -0.076923    0.00045517  41 t-inv F
  0.076923  0.307692  0.230769    0.00045517  41 t-inv F
 -0.076923 -0.307692 -0.230769    0.00045517  41 t-inv F
  0.230769  0.076923  0.307692    0.00045517  41 t-inv F
 -0.230769 -0.076923 -0.307692    0.00045517  41 t-inv F
 -0.230769  0.307692  0.076923    0.00045517  41 t-inv F
  0.230769 -0.307692 -0.076923    0.00045517  41 t-inv F
 -0.307692  0.076923  0.230769    0.00045517  41 t-inv F
  0.307692 -0.076923 -0.230769    0.00045517  41 t-inv F
 -0.076923  0.230769  0.307692    0.00045517  41 t-inv F
  0.076923 -0.230769 -0.307692    0.00045517  41 t-inv F
 -0.307692 -0.230769  0.076923    0.00045517  41 t-inv F
  0.307692  0.230769 -0.076923    0.00045517  41 t-inv F
 -0.076923 -0.307692  0.230769    0.00045517  41 t-inv F
  0.076923  0.307692 -0.230769    0.00045517  41 t-inv F
 -0.230769 -0.076923  0.307692    0.00045517  41 t-inv F
  0.230769  0.076923 -0.307692    0.00045517  41 t-inv F
  0.230769 -0.307692  0.076923    0.00045517  41 t-inv F
 -0.230769  0.307692 -0.076923    0.00045517  41 t-inv F
  0.307692 -0.076923  0.230769    0.00045517  41 t-inv F
 -0.307692  0.076923 -0.230769    0.00045517  41 t-inv F
  0.076923 -0.230769  0.307692    0.00045517  41 t-inv F
 -0.076923  0.230769 -0.307692    0.00045517  41 t-inv F
  0.076923 -0.307692 -0.230769    0.00045517  41 t-inv F
 -0.076923  0.307692  0.230769    0.00045517  41 t-inv F
  0.230769 -0.076923 -0.307692    0.00045517  41 t-inv F
 -0.230769  0.076923  0.307692    0.00045517  41 t-inv F
  0.307692 -0.230769 -0.076923    0.00045517  41 t-inv F
 -0.307692  0.230769  0.076923    0.00045517  41 t-inv F
  0.076923  0.230769 -0.307692    0.00045517  41 t-inv F
 -0.076923 -0.230769  0.307692    0.00045517  41 t-inv F
  0.230769  0.307692 -0.076923    0.00045517  41 t-inv F
 -0.230769 -0.307692  0.076923    0.00045517  41 t-inv F
  0.307692  0.076923 -0.230769    0.00045517  41 t-inv F
 -0.307692 -0.076923  0.230769    0.00045517  41 t-inv F
 -0.230769  0.076923 -0.307692    0.00045517  41 t-inv F
  0.230769 -0.076923  0.307692    0.00045517  41 t-inv F
 -0.307692  0.230769 -0.076923    0.00045517  41 t-inv F
  0.307692 -0.230769  0.076923    0.00045517  41 t-inv F
 -0.076923  0.307692 -0.230769    0.00045517  41 t-inv F
  0.076923 -0.307692  0.230769    0.00045517  41 t-inv F
 -0.307692 -0.076923 -0.230769    0.00045517  41 t-inv F
  0.307692  0.076923  0.230769    0.00045517  41 t-inv F
 -0.230769 -0.307692 -0.076923    0.00045517  41 t-inv F
  0.230769  0.307692  0.076923    0.00045517  41 t-inv F
 -0.076923 -0.230769 -0.307692    0.00045517  41 t-inv F
  0.076923  0.230769  0.307692    0.00045517  41 t-inv F
 -0.384615 -0.230769 -0.076923    0.00045517  42 t-inv F
  0.076923  0.384615  0.230769    0.00045517  42 t-inv F
 -0.076923 -0.384615 -0.230769    0.00045517  42 t-inv F
  0.230769  0.076923  0.384615    0.00045517  42 t-inv F
 -0.230769 -0.076923 -0.384615    0.00045517  42 t-inv F
 -0.230769  0.384615  0.076923    0.00045517  42 t-inv F
  0.230769 -0.384615 -0.076923    0.00045517  42 t-inv F
 -0.384615  0.076923  0.230769    0.00045517  42 t-inv F
  0.384615 -0.076923 -0.230769    0.00045517  42 t-inv F
 -0.076923  0.230769  0.384615    0.00045517  42 t-inv F
  0.076923 -0.230769 -0.384615    0.00045517  42 t-inv F
 -0.384615 -0.230769  0.076923    0.00045517  42 t-inv F
  0.384615  0.230769 -0.076923    0.00045517  42 t-inv F
 -0.076923 -0.384615  0.230769    0.00045517  42 t-inv F
  0.076923  0.384615 -0.230769    0.00045517  42 t-inv F
 -0.230769 -0.076923  0.384615    0.00045517  42 t-inv F
  0.230769  0.076923 -0.384615    0.00045517  42 t-inv F
  0.230769 -0.384615  0.076923    0.00045517  42 t-inv F
 -0.230769  0.384615 -0.076923    0.00045517  42 t-inv F
  0.384615 -0.076923  0.230769    0.00045517  42 t-inv F
 -0.384615  0.076923 -0.230769    0.00045517  42 t-inv F
  0.076923 -0.230769  0.384615    0.00045517  42 t-inv F
 -0.076923  0.230769 -0.384615    0.00045517  42 t-inv F
  0.076923 -0.384615 -0.230769    0.00045517  42 t-inv F
 -0.076923  0.384615  0.230769    0.00045517  42 t-inv F
  0.230769 -0.076923 -0.384615    0.00045517  42 t-inv F
 -0.230769  0.076923  0.384615    0.00045517  42 t-inv F
  0.384615 -0.230769 -0.076923    0.00045517  42 t-inv F
 -0.384615  0.230769  0.076923    0.00045517  42 t-inv F
  0.076923  0.230769 -0.384615    0.00045517  42 t-inv F
 -0.076923 -0.230769  0.384615    0.00045517  42 t-inv F
  0.230769  0.384615 -0.076923    0.00045517  42 t-inv F
 -0.230769 -0.384615  0.076923    0.00045517  42 t-inv F
  0.384615  0.076923 -0.230769    0.00045517  42 t-inv F
 -0.384615 -0.076923  0.230769    0.00045517  42 t-inv F
 -0.230769  0.076923 -0.384615    0.00045517  42 t-inv F
  0.230769 -0.076923  0.384615    0.00045517  42 t-inv F
 -0.384615  0.230769 -0.076923    0.00045517  42 t-inv F
  0.384615 -0.230769  0.076923    0.00045517  42 t-inv F
 -0.076923  0.384615 -0.230769    0.00045517  42 t-inv F
  0.076923 -0.384615  0.230769    0.00045517  42 t-inv F
 -0.384615 -0.076923 -0.230769    0.00045517  42 t-inv F
  0.384615  0.076923  0.230769    0.00045517  42 t-inv F
 -0.230769 -0.384615 -0.076923    0.00045517  42 t-inv F
  0.230769  0.384615  0.076923    0.00045517  42 t-inv F
 -0.076923 -0.230769 -0.384615    0.00045517  42 t-inv F
  0.076923  0.230769  0.384615    0.00045517  42 t-inv F
 -0.461538 -0.230769 -0.076923    0.00045517  43 t-inv F
  0.076923  0.461538  0.230769    0.00045517  43 t-inv F
 -0.076923 -0.461538 -0.230769    0.00045517  43 t-inv F
  0.230769  0.076923  0.461538    0.00045517  43 t-inv F
 -0.230769 -0.076923 -0.461538    0.00045517  43 t-inv F
 -0.230769  0.461538  0.076923    0.00045517  43 t-inv F
  0.230769 -0.461538 -0.076923    0.00045517  43 t-inv F
 -0.461538  0.076923  0.230769    0.00045517  43 t-inv F
  0.461538 -0.076923 -0.230769    0.00045517  43 t-inv F
 -0.076923  0.230769  0.461538    0.00045517  43 t-inv F
  0.076923 -0.230769 -0.461538    0.00045517  43 t-inv F
 -0.461538 -0.230769  0.076923    0.00045517  43 t-inv F
  0.461538  0.230769 -0.076923    0.00045517  43 t-inv F
 -0.076923 -0.461538  0.230769    0.00045517  43 t-inv F
  0.076923  0.461538 -0.230769    0.00045517  43 t-inv F
 -0.230769 -0.076923  0.461538    0.00045517  43 t-inv F
  0.230769  0.076923 -0.461538    0.00045517  43 t-inv F
  0.230769 -0.461538  0.076923    0.00045517  43 t-inv F
 -0.230769  0.461538 -0.076923    0.00045517  43 t-inv F
  0.461538 -0.076923  0.230769    0.00045517  43 t-inv F
 -0.461538  0.076923 -0.230769    0.00045517  43 t-inv F
  0.076923 -0.230769  0.461538    0.00045517  43 t-inv F
 -0.076923  0.230769 -0.461538    0.00045517  43 t-inv F
  0.076923 -0.461538 -0.230769    0.00045517  43 t-inv F
 -0.076923  0.461538  0.230769    0.00045517  43 t-inv F
  0.230769 -0.076923 -0.461538    0.00045517  43 t-inv F
 -0.230769  0.076923  0.461538    0.00045517  43 t-inv F
  0.461538 -0.230769 -0.076923    0.00045517  43 t-inv F
 -0.461538  0.230769  0.076923    0.00045517  43 t-inv F
  0.076923  0.230769 -0.461538    0.00045517  43 t-inv F
 -0.076923 -0.230769  0.461538    0.00045517  43 t-inv F
  0.230769  0.461538 -0.076923    0.00045517  43 t-inv F
 -0.230769 -0.461538  0.076923    0.00045517  43 t-inv F
  0.461538  0.076923 -0.230769    0.00045517  43 t-inv F
 -0.461538 -0.076923  0.230769    0.00045517  43 t-inv F
 -0.230769  0.076923 -0.461538    0.00045517  43 t-inv F
  0.230769 -0.076923  0.461538    0.00045517  43 t-inv F
 -0.461538  0.230769 -0.076923    0.00045517  43 t-inv F
  0.461538 -0.230769  0.076923    0.00045517  43 t-inv F
 -0.076923  0.461538 -0.230769    0.00045517  43 t-inv F
  0.076923 -0.461538  0.230769    0.00045517  43 t-inv F
[...]
      0.000000  0.000000  0.000000     0.628845   -0.323348    0.000000  
      1.713408  1.713408  1.713408    -0.628845    0.323348    0.000000  
 
   2 f  =    9.897241 THz    62.186202 2PiTHz  330.136426 cm-1    40.931715 meV
             X         Y         Z           dx          dy          dz
      0.000000  0.000000  0.000000    -0.323348   -0.628845    0.000000  
      1.713408  1.713408  1.713408     0.323348    0.628845    0.000000  
 
   3 f  =    9.897241 THz    62.186202 2PiTHz  330.136426 cm-1    40.931715 meV
             X         Y         Z           dx          dy          dz
      0.000000  0.000000  0.000000     0.000000    0.000000    0.707107  
      1.713408  1.713408  1.713408    -0.000000    0.000000   -0.707107  
 
   4 f  =    0.000000 THz     0.000001 2PiTHz    0.000005 cm-1     0.000001 meV
             X         Y         Z           dx          dy          dz
      0.000000  0.000000  0.000000     0.031987   -0.706383    0.000000  
      1.713408  1.713408  1.713408     0.031987   -0.706383    0.000000  
 
   5 f  =    0.000000 THz     0.000000 2PiTHz    0.000000 cm-1     0.000000 meV
             X         Y         Z           dx          dy          dz
      0.000000  0.000000  0.000000     0.000000    0.000000    0.707107  
      1.713408  1.713408  1.713408    -0.000000    0.000000    0.707107  
 
   6 f/i=    0.000000 THz     0.000000 2PiTHz    0.000002 cm-1     0.000000 meV
             X         Y         Z           dx          dy          dz
      0.000000  0.000000  0.000000    -0.706383   -0.031987    0.000000  
      1.713408  1.713408  1.713408    -0.706383   -0.031987    0.000000  
 


--------------------------------------------------------------------------------------------------------



 ELASTIC MODULI CONTR FROM IONIC RELAXATION (kBar)
 Direction    XX          YY          ZZ          XY          YZ          ZX
 --------------------------------------------------------------------------------
 XX           0.0000      0.0000      0.0000      0.0000      0.0000      0.0000
 YY           0.0000      0.0000      0.0000      0.0000      0.0000      0.0000
 ZZ           0.0000      0.0000      0.0000      0.0000      0.0000      0.0000
 XY           0.0000      0.0000      0.0000      0.0000      0.0000      0.0000
 YZ           0.0000      0.0000      0.0000      0.0000      0.0000      0.0000
 ZX           0.0000      0.0000      0.0000      0.0000      0.0000      0.0000
 --------------------------------------------------------------------------------


 TOTAL ELASTIC MODULI (kBar)
 Direction    XX          YY          ZZ          XY          YZ          ZX
 --------------------------------------------------------------------------------
 XX         192.2456    136.6401    136.6401      0.0000     -0.0000     -0.0000
 YY         136.6401    192.2456    136.6401      0.0000      0.0000      0.0000
 ZZ         136.6401    136.6401    192.2456     -0.0000      0.0000      0.0000
 XY           0.0000      0.0000     -0.0000    122.2235      0.0000      0.0000
 YZ          -0.0000      0.0000      0.0000      0.0000    122.2235      0.0000
 ZX          -0.0000      0.0000      0.0000      0.0000      0.0000    122.2235
 --------------------------------------------------------------------------------



--------------------------------------------------------------------------------------------------------


  LATTYP: Found a simple cubic cell.
 ALAT       =     3.4268170000
  
  Lattice vectors:
  
 A1 = (   3.4268170000,   0.0000000000,   0.0000000000)
 A2 = (   0.0000000000,   3.4268170000,   0.0000000000)
 A3 = (   0.0000000000,   0.0000000000,   3.4268170000)


Analysis of symmetry for initial positions (statically):
=====================================================================
 Subroutine PRICEL returns following result:
 
  LATTYP: Found a body centered cubic cell.
 ALAT       =     3.4268170000
  
  Lattice vectors:
  
 A1 = (   1.7134085000,   1.7134085000,   1.7134085000)
 A2 = (   1.7134085000,  -1.7134085000,  -1.7134085000)
 A3 = (  -1.7134085000,   1.7134085000,  -1.7134085000)
 
   2 primitive cells build up your supercell.
 

 Routine SETGRP: Setting up the symmetry group for a 
 simple cubic supercell.


 Subroutine GETGRP returns: Found 48 space group operations
 (whereof 48 operations were pure point group operations)
 out of a pool of 48 trial point group operations.


The static configuration has the point symmetry O_h .


Analysis of symmetry for dynamics (positions and initial velocities):
=====================================================================
 Subroutine PRICEL returns following result:
 
  LATTYP: Found a body centered cubic cell.
 ALAT       =     3.4268170000
  
  Lattice vectors:
  
 A1 = (   1.7134085000,   1.7134085000,   1.7134085000)
 A2 = (   1.7134085000,  -1.7134085000,  -1.7134085000)
 A3 = (  -1.7134085000,   1.7134085000,  -1.7134085000)
 
   2 primitive cells build up your supercell.
 

 Routine SETGRP: Setting up the symmetry group for a 
 simple cubic supercell.


 Subroutine GETGRP returns: Found 48 space group operations
 (whereof 48 operations were pure point group operations)
 out of a pool of 48 trial point group operations.


The dynamic configuration has the point symmetry O_h .


 Subroutine INISYM returns: Found 48 space group operations
 (whereof 48 operations are pure point group operations),
 and found     2 'primitive' translations

 
 KPOINTS: k points                                

Automatic generation of k-mesh.
Space group operators:
 irot       det(A)        alpha          n_x          n_y          n_z        tau_x        tau_y        tau_z
    1     1.000000     0.000000     1.000000     0.000000     0.000000     0.000000     0.000000     0.000000
    2    -1.000000     0.000000     1.000000     0.000000     0.000000     0.000000     0.000000     0.000000
    3     1.000000   120.000000    -0.577350    -0.577350    -0.577350     0.000000     0.000000     0.000000
    4    -1.000000   120.000000    -0.577350    -0.577350    -0.577350     0.000000     0.000000     0.000000
    5     1.000000   120.000000     0.577350     0.577350     0.577350     0.000000     0.000000     0.000000
    6    -1.000000   120.000000     0.577350     0.577350     0.577350     0.000000     0.000000     0.000000
    7     1.000000    90.000000     0.000000     0.000000    -1.000000     0.000000     0.000000     0.000000
    8    -1.000000    90.000000     0.000000     0.000000    -1.000000     0.000000     0.000000     0.000000
    9     1.000000   180.000000     0.000000     0.707107     0.707107     0.000000     0.000000     0.000000
   10    -1.000000   180.000000     0.000000     0.707107     0.707107     0.000000     0.000000     0.000000
   11     1.000000    90.000000     0.000000     1.000000     0.000000     0.000000     0.000000     0.000000
   12    -1.000000    90.000000     0.000000     1.000000     0.000000     0.000000     0.000000     0.000000
   13     1.000000   180.000000     0.000000     0.000000     1.000000     0.000000     0.000000     0.000000
   14    -1.000000   180.000000     0.000000     0.000000     1.000000     0.000000     0.000000     0.000000
   15     1.000000   120.000000    -0.577350     0.577350     0.577350     0.000000     0.000000     0.000000
   16    -1.000000   120.000000    -0.577350     0.577350     0.577350     0.000000     0.000000     0.000000
   17     1.000000   120.000000    -0.577350     0.577350    -0.577350     0.000000     0.000000     0.000000
   18    -1.000000   120.000000    -0.577350     0.577350    -0.577350     0.000000     0.000000     0.000000
   19     1.000000    90.000000     0.000000     0.000000     1.000000     0.000000     0.000000     0.000000
   20    -1.000000    90.000000     0.000000     0.000000     1.000000     0.000000     0.000000     0.000000
   21     1.000000    90.000000    -1.000000     0.000000     0.000000     0.000000     0.000000     0.000000
   22    -1.000000    90.000000    -1.000000     0.000000     0.000000     0.000000     0.000000     0.000000
   23     1.000000   180.000000     0.707107     0.000000     0.707107     0.000000     0.000000     0.000000
   24    -1.000000   180.000000     0.707107     0.000000     0.707107     0.000000     0.000000     0.000000
   25     1.000000   120.000000     0.577350    -0.577350     0.577350     0.000000     0.000000     0.000000
   26    -1.000000   120.000000     0.577350    -0.577350     0.577350     0.000000     0.000000     0.000000
   27     1.000000   120.000000    -0.577350    -0.577350     0.577350     0.000000     0.000000     0.000000
   28    -1.000000   120.000000    -0.577350    -0.577350     0.577350     0.000000     0.000000     0.000000
   29     1.000000   180.000000     1.000000     0.000000     0.000000     0.000000     0.000000     0.000000
   30    -1.000000   180.000000     1.000000     0.000000     0.000000     0.000000     0.000000     0.000000
   31     1.000000    90.000000     0.000000    -1.000000     0.000000     0.000000     0.000000     0.000000
   32    -1.000000    90.000000     0.000000    -1.000000     0.000000     0.000000     0.000000     0.000000
   33     1.000000   180.000000     0.707107     0.707107     0.000000     0.000000     0.000000     0.000000
   34    -1.000000   180.000000     0.707107     0.707107     0.000000     0.000000     0.000000     0.000000
   35     1.000000    90.000000     1.000000     0.000000     0.000000     0.000000     0.000000     0.000000
   36    -1.000000    90.000000     1.000000     0.000000     0.000000     0.000000     0.000000     0.000000
   37     1.000000   120.000000     0.577350    -0.577350    -0.577350     0.000000     0.000000     0.000000
   38    -1.000000   120.000000     0.577350    -0.577350    -0.577350     0.000000     0.000000     0.000000
   39     1.000000   180.000000     0.000000     1.000000     0.000000     0.000000     0.000000     0.000000
   40    -1.000000   180.000000     0.000000     1.000000     0.000000     0.000000     0.000000     0.000000
   41     1.000000   120.000000     0.577350     0.577350    -0.577350     0.000000     0.000000     0.000000
   42    -1.000000   120.000000     0.577350     0.577350    -0.577350     0.000000     0.000000     0.000000
   43     1.000000   180.000000     0.000000    -0.707107     0.707107     0.000000     0.000000     0.000000
   44    -1.000000   180.000000     0.000000    -0.707107     0.707107     0.000000     0.000000     0.000000
   45     1.000000   180.000000     0.707107    -0.707107     0.000000     0.000000     0.000000     0.000000
   46    -1.000000   180.000000     0.707107    -0.707107     0.000000     0.000000     0.000000     0.000000
   47     1.000000   180.000000     0.707107     0.000000    -0.707107     0.000000     0.000000     0.000000
   48    -1.000000   180.000000     0.707107     0.000000    -0.707107     0.000000     0.000000     0.000000
 
 Subroutine IBZKPT returns following result:
 ===========================================
 
 Found     84 irreducible k-points:
 
 Following reciprocal coordinates:
            Coordinates               Weight
  0.000000  0.000000  0.000000      1.000000
  0.076923  0.000000  0.000000      6.000000
  0.153846  0.000000  0.000000      6.000000
  0.230769  0.000000  0.000000      6.000000
  0.307692  0.000000  0.000000      6.000000
  0.384615  0.000000  0.000000      6.000000
  0.461538  0.000000  0.000000      6.000000
  0.076923  0.076923  0.000000     12.000000
  0.153846  0.076923  0.000000     24.000000
  0.230769  0.076923  0.000000     24.000000
  0.307692  0.076923  0.000000     24.000000
  0.384615  0.076923  0.000000     24.000000
  0.461538  0.076923  0.000000     24.000000
  0.153846  0.153846  0.000000     12.000000
  0.230769  0.153846  0.000000     24.000000
  0.307692  0.153846  0.000000     24.000000
  0.384615  0.153846  0.000000     24.000000
  0.461538  0.153846  0.000000     24.000000
  0.230769  0.230769  0.000000     12.000000
  0.307692  0.230769  0.000000     24.000000
  0.384615  0.230769  0.000000     24.000000
  0.461538  0.230769  0.000000     24.000000
  0.307692  0.307692  0.000000     12.000000
  0.384615  0.307692  0.000000     24.000000
  0.461538  0.307692  0.000000     24.000000
  0.384615  0.384615  0.000000     12.000000
  0.461538  0.384615  0.000000     24.000000
  0.461538  0.461538  0.000000     12.000000
  0.076923  0.076923  0.076923      8.000000
  0.153846  0.076923  0.076923     24.000000
  0.230769  0.076923  0.076923     24.000000
  0.307692  0.076923  0.076923     24.000000
  0.384615  0.076923  0.076923     24.000000
  0.461538  0.076923  0.076923     24.000000
  0.153846  0.153846  0.076923     24.000000
  0.230769  0.153846  0.076923     48.000000
  0.307692  0.153846  0.076923     48.000000
  0.384615  0.153846  0.076923     48.000000
  0.461538  0.153846  0.076923     48.000000
  0.230769  0.230769  0.076923     24.000000
  0.307692  0.230769  0.076923     48.000000
  0.384615  0.230769  0.076923     48.000000
  0.461538  0.230769  0.076923     48.000000
  0.307692  0.307692  0.076923     24.000000
  0.384615  0.307692  0.076923     48.000000
  0.461538  0.307692  0.076923     48.000000
  0.384615  0.384615  0.076923     24.000000
  0.461538  0.384615  0.076923     48.000000
  0.461538  0.461538  0.076923     24.000000
  0.153846  0.153846  0.153846      8.000000
  0.230769  0.153846  0.153846     24.000000
  0.307692  0.153846  0.153846     24.000000
  0.384615  0.153846  0.153846     24.000000
  0.461538  0.153846  0.153846     24.000000
  0.230769  0.230769  0.153846     24.000000
  0.307692  0.230769  0.153846     48.000000
  0.384615  0.230769  0.153846     48.000000
  0.461538  0.230769  0.153846     48.000000
  0.307692  0.307692  0.153846     24.000000
  0.384615  0.307692  0.153846     48.000000
  0.461538  0.307692  0.153846     48.000000
  0.384615  0.384615  0.153846     24.000000
  0.461538  0.384615  0.153846     48.000000
  0.461538  0.461538  0.153846     24.000000
  0.230769  0.230769  0.230769      8.000000
  0.307692  0.230769  0.230769     24.000000
  0.384615  0.230769  0.230769     24.000000
  0.461538  0.230769  0.230769     24.000000
  0.307692  0.307692  0.230769     24.000000
  0.384615  0.307692  0.230769     48.000000
  0.461538  0.307692  0.230769     48.000000
  0.384615  0.384615  0.230769     24.000000
  0.461538  0.384615  0.230769     48.000000
  0.461538  0.461538  0.230769     24.000000
  0.307692  0.307692  0.307692      8.000000
  0.384615  0.307692  0.307692     24.000000
  0.461538  0.307692  0.307692     24.000000
  0.384615  0.384615  0.307692     24.000000
  0.461538  0.384615  0.307692     48.000000
  0.461538  0.461538  0.307692     24.000000
  0.384615  0.384615  0.384615      8.000000
  0.461538  0.384615  0.384615     24.000000
  0.461538  0.461538  0.384615     24.000000
  0.461538  0.461538  0.461538      8.000000
 
 Following cartesian coordinates:
            Coordinates               Weight
  0.000000  0.000000  0.000000      1.000000
  0.022447  0.000000  0.000000      6.000000
  0.044895  0.000000  0.000000      6.000000
  0.067342  0.000000  0.000000      6.000000
  0.089790  0.000000  0.000000      6.000000
  0.112237  0.000000  0.000000      6.000000
  0.134684  0.000000  0.000000      6.000000
  0.022447  0.022447  0.000000     12.000000
  0.044895  0.022447  0.000000     24.000000
  0.067342  0.022447  0.000000     24.000000
  0.089790  0.022447  0.000000     24.000000
  0.112237  0.022447  0.000000     24.000000
  0.134684  0.022447  0.000000     24.000000
  0.044895  0.044895  0.000000     12.000000
  0.067342  0.044895  0.000000     24.000000
  0.089790  0.044895  0.000000     24.000000
  0.112237  0.044895  0.000000     24.000000
  0.134684  0.044895  0.000000     24.000000
  0.067342  0.067342  0.000000     12.000000
  0.089790  0.067342  0.000000     24.000000
  0.112237  0.067342  0.000000     24.000000
  0.134684  0.067342  0.000000     24.000000
  0.089790  0.089790  0.000000     12.000000
  0.112237  0.089790  0.000000     24.000000
  0.134684  0.089790  0.000000     24.000000
  0.112237  0.112237  0.000000     12.000000
  0.134684  0.112237  0.000000     24.000000
  0.134684  0.134684  0.000000     12.000000
  0.022447  0.022447  0.022447      8.000000
  0.044895  0.022447  0.022447     24.000000
  0.067342  0.022447  0.022447     24.000000
  0.089790  0.022447  0.022447     24.000000
  0.112237  0.022447  0.022447     24.000000
  0.134684  0.022447  0.022447     24.000000
  0.044895  0.044895  0.022447     24.000000
  0.067342  0.044895  0.022447     48.000000
  0.089790  0.044895  0.022447     48.000000
  0.112237  0.044895  0.022447     48.000000
  0.134684  0.044895  0.022447     48.000000
  0.067342  0.067342  0.022447     24.000000
  0.089790  0.067342  0.022447     48.000000
  0.112237  0.067342  0.022447     48.000000
  0.134684  0.067342  0.022447     48.000000
  0.089790  0.089790  0.022447     24.000000
  0.112237  0.089790  0.022447     48.000000
  0.134684  0.089790  0.022447     48.000000
  0.112237  0.112237  0.022447     24.000000
  0.134684  0.112237  0.022447     48.000000
  0.134684  0.134684  0.022447     24.000000
  0.044895  0.044895  0.044895      8.000000
  0.067342  0.044895  0.044895     24.000000
  0.089790  0.044895  0.044895     24.000000
  0.112237  0.044895  0.044895     24.000000
  0.134684  0.044895  0.044895     24.000000
  0.067342  0.067342  0.044895     24.000000
  0.089790  0.067342  0.044895     48.000000
  0.112237  0.067342  0.044895     48.000000
  0.134684  0.067342  0.044895     48.000000
  0.089790  0.089790  0.044895     24.000000
  0.112237  0.089790  0.044895     48.000000
  0.134684  0.089790  0.044895     48.000000
  0.112237  0.112237  0.044895     24.000000
  0.134684  0.112237  0.044895     48.000000
  0.134684  0.134684  0.044895     24.000000
  0.067342  0.067342  0.067342      8.000000
  0.089790  0.067342  0.067342     24.000000
  0.112237  0.067342  0.067342     24.000000
  0.134684  0.067342  0.067342     24.000000
  0.089790  0.089790  0.067342     24.000000
  0.112237  0.089790  0.067342     48.000000
  0.134684  0.089790  0.067342     48.000000
  0.112237  0.112237  0.067342     24.000000
  0.134684  0.112237  0.067342     48.000000
  0.134684  0.134684  0.067342     24.000000
  0.089790  0.089790  0.089790      8.000000
  0.112237  0.089790  0.089790     24.000000
  0.134684  0.089790  0.089790     24.000000
  0.112237  0.112237  0.089790     24.000000
  0.134684  0.112237  0.089790     48.000000
  0.134684  0.134684  0.089790     24.000000
  0.112237  0.112237  0.112237      8.000000
  0.134684  0.112237  0.112237     24.000000
  0.134684  0.134684  0.112237     24.000000
  0.134684  0.134684  0.134684      8.000000
 
 writing wavefunctions
     LOOP+:  cpu time   19.3869: real time   19.4428
    4ORBIT:  cpu time    0.0000: real time    0.0000

 total amount of memory used by VASP MPI-rank0    38412. kBytes
=======================================================================

   base      :      30000. kBytes
   nonl-proj :       3717. kBytes
   fftplans  :        595. kBytes
   grid      :       1120. kBytes
   one-center:          2. kBytes
   wavefun   :       2978. kBytes
 
  
  
 General timing and accounting informations for this job:
 ========================================================
  
                  Total CPU time used (sec):      692.602
                            User time (sec):      269.396
                          System time (sec):      423.206
                         Elapsed time (sec):      694.613
  
                   Maximum memory used (kb):      186976.
                   Average memory used (kb):           0.
  
                          Minor page faults:       211766
                          Major page faults:          262
                 Voluntary context switches:         1492
