  16  16   1   0
  0.1780430E+02  0.4112383E-09  0.4112383E-09  0.1684449E-08  0.5000000E-15
  1.000000000000000E-004
  CAR 
 unknown system                          
     12.26944924     -4.42767555  301      6.39679571      1.00000000
     -4.428  0.0000E+00  0.0000E+00  0.0000E+00  0.0000E+00
     -4.372  0.0000E+00  0.0000E+00  0.0000E+00  0.0000E+00
     -4.316  0.0000E+00  0.0000E+00  0.0000E+00  0.0000E+00
     -4.261  0.0000E+00  0.0000E+00  0.0000E+00  0.0000E+00
     -4.205  0.0000E+00  0.0000E+00  0.0000E+00  0.0000E+00
     -4.149  0.0000E+00  0.0000E+00  0.0000E+00  0.0000E+00
     -4.094  0.7207E-05  0.7115E-05  0.4011E-06  0.3960E-06
     -4.038  0.6008E-04  0.5932E-04  0.3745E-05  0.3697E-05
     -3.982  0.2325E-03  0.2295E-03  0.1668E-04  0.1647E-04
     -3.927  0.6775E-03  0.6690E-03  0.5439E-04  0.5370E-04
     -3.871  0.2038E-02  0.2012E-02  0.1678E-03  0.1657E-03
     -3.815  0.6264E-02  0.6187E-02  0.5164E-03  0.5100E-03
     -3.760  0.1816E-01  0.1795E-01  0.1527E-02  0.1509E-02
     -3.704  0.4845E-01  0.4794E-01  0.4224E-02  0.4177E-02
     -3.648  0.1114E+00  0.1105E+00  0.1042E-01  0.1033E-01
     -3.593  0.2047E+00  0.2036E+00  0.2182E-01  0.2166E-01
     -3.537  0.2962E+00  0.2953E+00  0.3830E-01  0.3809E-01
     -3.482  0.3709E+00  0.3700E+00  0.5895E-01  0.5868E-01
     -3.426  0.4636E+00  0.4624E+00  0.8475E-01  0.8442E-01
     -3.370  0.5548E+00  0.5541E+00  0.1156E+00  0.1153E+00
     -3.315  0.5661E+00  0.5664E+00  0.1471E+00  0.1468E+00
     -3.259  0.5607E+00  0.5603E+00  0.1783E+00  0.1780E+00
     -3.203  0.6532E+00  0.6517E+00  0.2147E+00  0.2143E+00
     -3.148  0.7642E+00  0.7633E+00  0.2573E+00  0.2568E+00
     -3.092  0.7909E+00  0.7910E+00  0.3013E+00  0.3008E+00
     -3.036  0.7811E+00  0.7810E+00  0.3448E+00  0.3443E+00
     -2.981  0.8188E+00  0.8181E+00  0.3904E+00  0.3898E+00
     -2.925  0.8723E+00  0.8721E+00  0.4390E+00  0.4384E+00
     -2.869  0.8459E+00  0.8465E+00  0.4860E+00  0.4855E+00
     -2.814  0.8443E+00  0.8435E+00  0.5330E+00  0.5325E+00
     -2.758  0.9725E+00  0.9708E+00  0.5872E+00  0.5865E+00
     -2.702  0.1092E+01  0.1091E+01  0.6480E+00  0.6473E+00
     -2.647  0.1130E+01  0.1130E+01  0.7109E+00  0.7102E+00
     -2.591  0.1118E+01  0.1118E+01  0.7732E+00  0.7725E+00
     -2.535  0.1065E+01  0.1065E+01  0.8325E+00  0.8318E+00
     -2.480  0.9903E+00  0.9911E+00  0.8876E+00  0.8870E+00
     -2.424  0.9750E+00  0.9743E+00  0.9419E+00  0.9412E+00
     -2.368  0.1109E+01  0.1107E+01  0.1004E+01  0.1003E+01
     -2.313  0.1301E+01  0.1299E+01  0.1076E+01  0.1075E+01
     -2.257  0.1383E+01  0.1383E+01  0.1153E+01  0.1152E+01
     -2.201  0.1389E+01  0.1389E+01  0.1230E+01  0.1230E+01
     -2.146  0.1402E+01  0.1402E+01  0.1309E+01  0.1308E+01
     -2.090  0.1314E+01  0.1316E+01  0.1382E+01  0.1381E+01
     -2.034  0.1166E+01  0.1167E+01  0.1447E+01  0.1446E+01
     -1.979  0.1176E+01  0.1175E+01  0.1512E+01  0.1511E+01
     -1.923  0.1380E+01  0.1377E+01  0.1589E+01  0.1588E+01
     -1.867  0.1625E+01  0.1622E+01  0.1679E+01  0.1678E+01
     -1.812  0.1714E+01  0.1714E+01  0.1775E+01  0.1774E+01
     -1.756  0.1643E+01  0.1644E+01  0.1866E+01  0.1865E+01
     -1.700  0.1537E+01  0.1538E+01  0.1952E+01  0.1951E+01
     -1.645  0.1476E+01  0.1477E+01  0.2034E+01  0.2033E+01
     -1.589  0.1450E+01  0.1450E+01  0.2115E+01  0.2114E+01
     -1.534  0.1502E+01  0.1500E+01  0.2198E+01  0.2197E+01
     -1.478  0.1655E+01  0.1653E+01  0.2291E+01  0.2290E+01
     -1.422  0.1697E+01  0.1698E+01  0.2385E+01  0.2384E+01
     -1.367  0.1572E+01  0.1574E+01  0.2473E+01  0.2472E+01
     -1.311  0.1385E+01  0.1387E+01  0.2550E+01  0.2549E+01
     -1.255  0.1225E+01  0.1226E+01  0.2618E+01  0.2617E+01
     -1.200  0.1175E+01  0.1175E+01  0.2684E+01  0.2683E+01
     -1.144  0.1306E+01  0.1304E+01  0.2756E+01  0.2755E+01
     -1.088  0.1563E+01  0.1560E+01  0.2843E+01  0.2842E+01
     -1.033  0.1749E+01  0.1748E+01  0.2941E+01  0.2940E+01
     -0.977  0.1719E+01  0.1720E+01  0.3036E+01  0.3035E+01
     -0.921  0.1570E+01  0.1572E+01  0.3124E+01  0.3123E+01
     -0.866  0.1468E+01  0.1469E+01  0.3206E+01  0.3205E+01
     -0.810  0.1429E+01  0.1429E+01  0.3285E+01  0.3284E+01
     -0.754  0.1560E+01  0.1558E+01  0.3372E+01  0.3371E+01
     -0.699  0.1768E+01  0.1766E+01  0.3471E+01  0.3469E+01
     -0.643  0.1818E+01  0.1818E+01  0.3572E+01  0.3571E+01
     -0.587  0.1821E+01  0.1821E+01  0.3673E+01  0.3672E+01
     -0.532  0.1794E+01  0.1795E+01  0.3773E+01  0.3772E+01
     -0.476  0.1673E+01  0.1674E+01  0.3866E+01  0.3865E+01
     -0.420  0.1613E+01  0.1613E+01  0.3956E+01  0.3955E+01
     -0.365  0.1736E+01  0.1733E+01  0.4053E+01  0.4052E+01
     -0.309  0.1947E+01  0.1945E+01  0.4161E+01  0.4160E+01
     -0.253  0.2095E+01  0.2095E+01  0.4278E+01  0.4277E+01
     -0.198  0.2114E+01  0.2114E+01  0.4396E+01  0.4394E+01
     -0.142  0.2106E+01  0.2106E+01  0.4513E+01  0.4511E+01
     -0.086  0.2060E+01  0.2061E+01  0.4628E+01  0.4626E+01
     -0.031  0.1961E+01  0.1961E+01  0.4737E+01  0.4735E+01
      0.025  0.1916E+01  0.1917E+01  0.4843E+01  0.4842E+01
      0.081  0.1904E+01  0.1904E+01  0.4949E+01  0.4948E+01
      0.136  0.1910E+01  0.1909E+01  0.5056E+01  0.5055E+01
      0.192  0.1945E+01  0.1944E+01  0.5164E+01  0.5163E+01
      0.248  0.1959E+01  0.1959E+01  0.5273E+01  0.5272E+01
      0.303  0.1917E+01  0.1918E+01  0.5380E+01  0.5379E+01
      0.359  0.1885E+01  0.1884E+01  0.5485E+01  0.5484E+01
      0.414  0.1981E+01  0.1980E+01  0.5595E+01  0.5594E+01
      0.470  0.2122E+01  0.2120E+01  0.5713E+01  0.5712E+01
      0.526  0.2179E+01  0.2180E+01  0.5835E+01  0.5833E+01
      0.581  0.2105E+01  0.2106E+01  0.5952E+01  0.5951E+01
      0.637  0.2019E+01  0.2020E+01  0.6064E+01  0.6063E+01
      0.693  0.1943E+01  0.1944E+01  0.6173E+01  0.6171E+01
      0.748  0.1893E+01  0.1893E+01  0.6278E+01  0.6277E+01
      0.804  0.1899E+01  0.1899E+01  0.6384E+01  0.6383E+01
      0.860  0.1965E+01  0.1964E+01  0.6493E+01  0.6492E+01
      0.915  0.2155E+01  0.2153E+01  0.6613E+01  0.6612E+01
      0.971  0.2354E+01  0.2353E+01  0.6744E+01  0.6743E+01
      1.027  0.2423E+01  0.2423E+01  0.6879E+01  0.6878E+01
      1.082  0.2401E+01  0.2402E+01  0.7013E+01  0.7012E+01
      1.138  0.2382E+01  0.2382E+01  0.7146E+01  0.7144E+01
      1.194  0.2314E+01  0.2315E+01  0.7275E+01  0.7273E+01
      1.249  0.2147E+01  0.2150E+01  0.7394E+01  0.7393E+01
      1.305  0.2054E+01  0.2054E+01  0.7509E+01  0.7507E+01
      1.361  0.2131E+01  0.2129E+01  0.7627E+01  0.7626E+01
      1.416  0.2309E+01  0.2306E+01  0.7756E+01  0.7754E+01
      1.472  0.2478E+01  0.2477E+01  0.7894E+01  0.7892E+01
      1.528  0.2501E+01  0.2501E+01  0.8033E+01  0.8031E+01
      1.583  0.2427E+01  0.2428E+01  0.8168E+01  0.8167E+01
      1.639  0.2353E+01  0.2354E+01  0.8299E+01  0.8298E+01
      1.695  0.2335E+01  0.2335E+01  0.8429E+01  0.8428E+01
      1.750  0.2387E+01  0.2387E+01  0.8562E+01  0.8561E+01
      1.806  0.2475E+01  0.2474E+01  0.8700E+01  0.8698E+01
      1.862  0.2478E+01  0.2479E+01  0.8838E+01  0.8836E+01
      1.917  0.2335E+01  0.2336E+01  0.8968E+01  0.8967E+01
      1.973  0.2259E+01  0.2259E+01  0.9094E+01  0.9092E+01
      2.029  0.2290E+01  0.2289E+01  0.9221E+01  0.9220E+01
      2.084  0.2327E+01  0.2327E+01  0.9351E+01  0.9349E+01
      2.140  0.2311E+01  0.2311E+01  0.9480E+01  0.9478E+01
      2.196  0.2353E+01  0.2352E+01  0.9611E+01  0.9609E+01
      2.251  0.2406E+01  0.2406E+01  0.9745E+01  0.9743E+01
      2.307  0.2347E+01  0.2348E+01  0.9875E+01  0.9874E+01
      2.362  0.2353E+01  0.2352E+01  0.1001E+02  0.1000E+02
      2.418  0.2508E+01  0.2506E+01  0.1015E+02  0.1014E+02
      2.474  0.2706E+01  0.2703E+01  0.1030E+02  0.1029E+02
      2.529  0.2807E+01  0.2807E+01  0.1045E+02  0.1045E+02
      2.585  0.2759E+01  0.2760E+01  0.1061E+02  0.1060E+02
      2.641  0.2721E+01  0.2722E+01  0.1076E+02  0.1076E+02
      2.696  0.2735E+01  0.2735E+01  0.1091E+02  0.1091E+02
      2.752  0.2694E+01  0.2696E+01  0.1106E+02  0.1106E+02
      2.808  0.2586E+01  0.2587E+01  0.1120E+02  0.1120E+02
      2.863  0.2579E+01  0.2578E+01  0.1135E+02  0.1135E+02
      2.919  0.2755E+01  0.2753E+01  0.1150E+02  0.1150E+02
      2.975  0.2938E+01  0.2937E+01  0.1167E+02  0.1166E+02
      3.030  0.2919E+01  0.2921E+01  0.1183E+02  0.1183E+02
      3.086  0.2755E+01  0.2756E+01  0.1198E+02  0.1198E+02
      3.142  0.2646E+01  0.2646E+01  0.1213E+02  0.1213E+02
      3.197  0.2517E+01  0.2518E+01  0.1227E+02  0.1227E+02
      3.253  0.2391E+01  0.2392E+01  0.1240E+02  0.1240E+02
      3.309  0.2535E+01  0.2531E+01  0.1254E+02  0.1254E+02
      3.364  0.2984E+01  0.2978E+01  0.1271E+02  0.1271E+02
      3.420  0.3335E+01  0.3333E+01  0.1290E+02  0.1289E+02
      3.476  0.3333E+01  0.3335E+01  0.1308E+02  0.1308E+02
      3.531  0.3040E+01  0.3044E+01  0.1325E+02  0.1325E+02
      3.587  0.2656E+01  0.2660E+01  0.1340E+02  0.1340E+02
      3.643  0.2471E+01  0.2471E+01  0.1354E+02  0.1353E+02
      3.698  0.2564E+01  0.2562E+01  0.1368E+02  0.1368E+02
      3.754  0.2854E+01  0.2849E+01  0.1384E+02  0.1384E+02
      3.810  0.3265E+01  0.3261E+01  0.1402E+02  0.1402E+02
      3.865  0.3468E+01  0.3468E+01  0.1421E+02  0.1421E+02
      3.921  0.3294E+01  0.3297E+01  0.1440E+02  0.1439E+02
      3.977  0.3074E+01  0.3076E+01  0.1457E+02  0.1456E+02
      4.032  0.2941E+01  0.2943E+01  0.1473E+02  0.1473E+02
      4.088  0.2790E+01  0.2791E+01  0.1489E+02  0.1488E+02
      4.144  0.2683E+01  0.2684E+01  0.1504E+02  0.1503E+02
      4.199  0.2708E+01  0.2706E+01  0.1519E+02  0.1518E+02
      4.255  0.2996E+01  0.2991E+01  0.1535E+02  0.1535E+02
      4.310  0.3379E+01  0.3376E+01  0.1554E+02  0.1554E+02
      4.366  0.3486E+01  0.3487E+01  0.1574E+02  0.1573E+02
      4.422  0.3330E+01  0.3332E+01  0.1592E+02  0.1592E+02
      4.477  0.3275E+01  0.3274E+01  0.1610E+02  0.1610E+02
      4.533  0.3389E+01  0.3388E+01  0.1629E+02  0.1629E+02
      4.589  0.3398E+01  0.3400E+01  0.1648E+02  0.1648E+02
      4.644  0.3034E+01  0.3040E+01  0.1665E+02  0.1665E+02
      4.700  0.2512E+01  0.2518E+01  0.1679E+02  0.1679E+02
      4.756  0.2356E+01  0.2355E+01  0.1692E+02  0.1692E+02
      4.811  0.2561E+01  0.2558E+01  0.1706E+02  0.1706E+02
      4.867  0.2777E+01  0.2775E+01  0.1722E+02  0.1722E+02
      4.923  0.2995E+01  0.2991E+01  0.1739E+02  0.1738E+02
      4.978  0.3217E+01  0.3216E+01  0.1756E+02  0.1756E+02
      5.034  0.3104E+01  0.3107E+01  0.1774E+02  0.1774E+02
      5.090  0.2908E+01  0.2909E+01  0.1790E+02  0.1790E+02
      5.145  0.3102E+01  0.3097E+01  0.1807E+02  0.1807E+02
      5.201  0.3508E+01  0.3504E+01  0.1827E+02  0.1827E+02
      5.257  0.3663E+01  0.3664E+01  0.1847E+02  0.1847E+02
      5.312  0.3462E+01  0.3466E+01  0.1866E+02  0.1866E+02
      5.368  0.3151E+01  0.3155E+01  0.1884E+02  0.1884E+02
      5.424  0.2858E+01  0.2861E+01  0.1900E+02  0.1900E+02
      5.479  0.2686E+01  0.2686E+01  0.1915E+02  0.1915E+02
      5.535  0.2762E+01  0.2761E+01  0.1930E+02  0.1930E+02
      5.591  0.2857E+01  0.2857E+01  0.1946E+02  0.1946E+02
      5.646  0.2730E+01  0.2732E+01  0.1961E+02  0.1961E+02
      5.702  0.2564E+01  0.2565E+01  0.1976E+02  0.1975E+02
      5.758  0.2626E+01  0.2623E+01  0.1990E+02  0.1990E+02
      5.813  0.2967E+01  0.2962E+01  0.2007E+02  0.2007E+02
      5.869  0.3420E+01  0.3415E+01  0.2026E+02  0.2026E+02
      5.925  0.3726E+01  0.3724E+01  0.2047E+02  0.2046E+02
      5.980  0.3783E+01  0.3784E+01  0.2068E+02  0.2067E+02
      6.036  0.3607E+01  0.3610E+01  0.2088E+02  0.2088E+02
      6.092  0.3294E+01  0.3297E+01  0.2106E+02  0.2106E+02
      6.147  0.3178E+01  0.3178E+01  0.2124E+02  0.2124E+02
      6.203  0.3261E+01  0.3260E+01  0.2142E+02  0.2142E+02
      6.258  0.3264E+01  0.3265E+01  0.2160E+02  0.2160E+02
      6.314  0.3035E+01  0.3038E+01  0.2177E+02  0.2177E+02
      6.370  0.2809E+01  0.2810E+01  0.2193E+02  0.2192E+02
      6.425  0.2750E+01  0.2751E+01  0.2208E+02  0.2208E+02
      6.481  0.2723E+01  0.2724E+01  0.2223E+02  0.2223E+02
      6.537  0.2755E+01  0.2754E+01  0.2238E+02  0.2238E+02
      6.592  0.2912E+01  0.2910E+01  0.2255E+02  0.2255E+02
      6.648  0.3126E+01  0.3124E+01  0.2272E+02  0.2272E+02
      6.704  0.3336E+01  0.3333E+01  0.2291E+02  0.2290E+02
      6.759  0.3575E+01  0.3572E+01  0.2311E+02  0.2310E+02
      6.815  0.3785E+01  0.3783E+01  0.2332E+02  0.2331E+02
      6.871  0.3788E+01  0.3789E+01  0.2353E+02  0.2353E+02
      6.926  0.3525E+01  0.3529E+01  0.2372E+02  0.2372E+02
      6.982  0.3186E+01  0.3189E+01  0.2390E+02  0.2390E+02
      7.038  0.2967E+01  0.2969E+01  0.2407E+02  0.2406E+02
      7.093  0.2776E+01  0.2779E+01  0.2422E+02  0.2422E+02
      7.149  0.2750E+01  0.2748E+01  0.2437E+02  0.2437E+02
      7.205  0.3121E+01  0.3116E+01  0.2455E+02  0.2455E+02
      7.260  0.3545E+01  0.3541E+01  0.2475E+02  0.2474E+02
      7.316  0.3688E+01  0.3688E+01  0.2495E+02  0.2495E+02
      7.372  0.3697E+01  0.3697E+01  0.2516E+02  0.2515E+02
      7.427  0.3790E+01  0.3789E+01  0.2537E+02  0.2537E+02
      7.483  0.3864E+01  0.3865E+01  0.2558E+02  0.2558E+02
      7.539  0.3679E+01  0.3682E+01  0.2579E+02  0.2579E+02
      7.594  0.3415E+01  0.3417E+01  0.2598E+02  0.2598E+02
      7.650  0.3306E+01  0.3306E+01  0.2616E+02  0.2616E+02
      7.706  0.3271E+01  0.3272E+01  0.2634E+02  0.2634E+02
      7.761  0.3240E+01  0.3240E+01  0.2652E+02  0.2652E+02
      7.817  0.3394E+01  0.3392E+01  0.2671E+02  0.2671E+02
      7.873  0.3645E+01  0.3643E+01  0.2692E+02  0.2691E+02
      7.928  0.3715E+01  0.3715E+01  0.2712E+02  0.2712E+02
      7.984  0.3670E+01  0.3670E+01  0.2733E+02  0.2733E+02
      8.040  0.3682E+01  0.3682E+01  0.2753E+02  0.2753E+02
      8.095  0.3731E+01  0.3731E+01  0.2774E+02  0.2774E+02
      8.151  0.3746E+01  0.3746E+01  0.2795E+02  0.2795E+02
      8.206  0.3698E+01  0.3700E+01  0.2816E+02  0.2815E+02
      8.262  0.3524E+01  0.3527E+01  0.2835E+02  0.2835E+02
      8.318  0.3324E+01  0.3326E+01  0.2854E+02  0.2853E+02
      8.373  0.3258E+01  0.3258E+01  0.2872E+02  0.2872E+02
      8.429  0.3413E+01  0.3409E+01  0.2891E+02  0.2891E+02
      8.485  0.3758E+01  0.3754E+01  0.2912E+02  0.2912E+02
      8.540  0.3994E+01  0.3992E+01  0.2934E+02  0.2934E+02
      8.596  0.3920E+01  0.3922E+01  0.2956E+02  0.2956E+02
      8.652  0.3744E+01  0.3745E+01  0.2977E+02  0.2976E+02
      8.707  0.3766E+01  0.3765E+01  0.2998E+02  0.2997E+02
      8.763  0.3842E+01  0.3842E+01  0.3019E+02  0.3019E+02
      8.819  0.3882E+01  0.3882E+01  0.3041E+02  0.3040E+02
      8.874  0.3785E+01  0.3787E+01  0.3062E+02  0.3062E+02
      8.930  0.3596E+01  0.3598E+01  0.3082E+02  0.3082E+02
      8.986  0.3453E+01  0.3455E+01  0.3101E+02  0.3101E+02
      9.041  0.3329E+01  0.3330E+01  0.3120E+02  0.3119E+02
      9.097  0.3292E+01  0.3291E+01  0.3138E+02  0.3138E+02
      9.153  0.3422E+01  0.3420E+01  0.3157E+02  0.3157E+02
      9.208  0.3641E+01  0.3640E+01  0.3177E+02  0.3177E+02
      9.264  0.3689E+01  0.3691E+01  0.3198E+02  0.3198E+02
      9.320  0.3503E+01  0.3505E+01  0.3217E+02  0.3217E+02
      9.375  0.3442E+01  0.3441E+01  0.3236E+02  0.3236E+02
      9.431  0.3724E+01  0.3720E+01  0.3257E+02  0.3257E+02
      9.487  0.4133E+01  0.4129E+01  0.3280E+02  0.3280E+02
      9.542  0.4368E+01  0.4359E+01  0.3305E+02  0.3304E+02
      9.598  0.4408E+01  0.4396E+01  0.3329E+02  0.3329E+02
      9.654  0.4245E+01  0.4242E+01  0.3353E+02  0.3352E+02
      9.709  0.3758E+01  0.3765E+01  0.3374E+02  0.3373E+02
      9.765  0.3345E+01  0.3362E+01  0.3392E+02  0.3392E+02
      9.821  0.3255E+01  0.3289E+01  0.3410E+02  0.3410E+02
      9.876  0.3265E+01  0.3299E+01  0.3429E+02  0.3429E+02
      9.932  0.3037E+01  0.3047E+01  0.3446E+02  0.3446E+02
      9.988  0.2578E+01  0.2572E+01  0.3460E+02  0.3460E+02
     10.043  0.2275E+01  0.2255E+01  0.3473E+02  0.3473E+02
     10.099  0.2216E+01  0.2191E+01  0.3485E+02  0.3485E+02
     10.154  0.2203E+01  0.2198E+01  0.3497E+02  0.3497E+02
     10.210  0.2100E+01  0.2121E+01  0.3509E+02  0.3509E+02
     10.266  0.1884E+01  0.1899E+01  0.3519E+02  0.3519E+02
     10.321  0.1517E+01  0.1515E+01  0.3528E+02  0.3528E+02
     10.377  0.1139E+01  0.1148E+01  0.3534E+02  0.3534E+02
     10.433  0.1017E+01  0.1035E+01  0.3540E+02  0.3540E+02
     10.488  0.1115E+01  0.1118E+01  0.3546E+02  0.3546E+02
     10.544  0.1066E+01  0.1048E+01  0.3552E+02  0.3552E+02
     10.600  0.8751E+00  0.8544E+00  0.3557E+02  0.3557E+02
     10.655  0.7602E+00  0.7427E+00  0.3561E+02  0.3561E+02
     10.711  0.7050E+00  0.6852E+00  0.3565E+02  0.3565E+02
     10.767  0.6922E+00  0.6608E+00  0.3569E+02  0.3569E+02
     10.822  0.7250E+00  0.6934E+00  0.3573E+02  0.3572E+02
     10.878  0.7035E+00  0.7102E+00  0.3577E+02  0.3576E+02
     10.934  0.6070E+00  0.6491E+00  0.3580E+02  0.3580E+02
     10.989  0.5249E+00  0.5734E+00  0.3583E+02  0.3583E+02
     11.045  0.4726E+00  0.5253E+00  0.3586E+02  0.3586E+02
     11.101  0.4503E+00  0.4938E+00  0.3588E+02  0.3589E+02
     11.156  0.3934E+00  0.4302E+00  0.3590E+02  0.3591E+02
     11.212  0.3343E+00  0.3504E+00  0.3592E+02  0.3593E+02
     11.268  0.3260E+00  0.2825E+00  0.3594E+02  0.3595E+02
     11.323  0.2962E+00  0.2386E+00  0.3596E+02  0.3596E+02
     11.379  0.2119E+00  0.1797E+00  0.3597E+02  0.3597E+02
     11.435  0.1422E+00  0.1284E+00  0.3598E+02  0.3598E+02
     11.490  0.1312E+00  0.1254E+00  0.3599E+02  0.3599E+02
     11.546  0.1259E+00  0.1251E+00  0.3599E+02  0.3599E+02
     11.602  0.8181E-01  0.8318E-01  0.3600E+02  0.3600E+02
     11.657  0.3655E-01  0.3801E-01  0.3600E+02  0.3600E+02
     11.713  0.1319E-01  0.1381E-01  0.3600E+02  0.3600E+02
     11.769  0.4524E-02  0.4744E-02  0.3600E+02  0.3600E+02
     11.824  0.1508E-02  0.1582E-02  0.3600E+02  0.3600E+02
     11.880  0.4977E-03  0.5223E-03  0.3600E+02  0.3600E+02
     11.936  0.0000E+00  0.0000E+00  0.3600E+02  0.3600E+02
     11.991  0.0000E+00  0.0000E+00  0.3600E+02  0.3600E+02
     12.047  0.0000E+00  0.0000E+00  0.3600E+02  0.3600E+02
     12.102  0.0000E+00  0.0000E+00  0.3600E+02  0.3600E+02
     12.158  0.0000E+00  0.0000E+00  0.3600E+02  0.3600E+02
     12.214  0.0000E+00  0.0000E+00  0.3600E+02  0.3600E+02
     12.269  0.0000E+00  0.0000E+00  0.3600E+02  0.3600E+02
     12.26944924     -4.42767555  301      6.39679571      1.00000000
     -4.428  0.0000E+00  0.0000E+00  0.0000E+00  0.0000E+00  0.0000E+00  0.0000E+00  0.0000E+00  0.0000E+00  0.0000E+00  0.0000E+00  0.0000E+00  0.0000E+00  0.0000E+00  0.0000E+00  0.0000E+00  0.0000E+00  0.0000E+00  0.0000E+00
     -4.372  0.0000E+00  0.0000E+00  0.0000E+00  0.0000E+00  0.0000E+00  0.0000E+00  0.0000E+00  0.0000E+00  0.0000E+00  0.0000E+00  0.0000E+00  0.0000E+00  0.0000E+00  0.0000E+00  0.0000E+00  0.0000E+00  0.0000E+00  0.0000E+00
     -4.316  0.0000E+00  0.0000E+00  0.0000E+00  0.0000E+00  0.0000E+00  0.0000E+00  0.0000E+00  0.0000E+00  0.0000E+00  0.0000E+00  0.0000E+00  0.0000E+00  0.0000E+00  0.0000E+00  0.0000E+00  0.0000E+00  0.0000E+00  0.0000E+00
     -4.261  0.0000E+00  0.0000E+00  0.0000E+00  0.0000E+00  0.0000E+00  0.0000E+00  0.0000E+00  0.0000E+00  0.0000E+00  0.0000E+00  0.0000E+00  0.0000E+00  0.0000E+00  0.0000E+00  0.0000E+00  0.0000E+00  0.0000E+00  0.0000E+00
     -4.205  0.0000E+00  0.0000E+00  0.0000E+00  0.0000E+00  0.0000E+00  0.0000E+00  0.0000E+00  0.0000E+00  0.0000E+00  0.0000E+00  0.0000E+00  0.0000E+00  0.0000E+00  0.0000E+00  0.0000E+00  0.0000E+00  0.0000E+00  0.0000E+00
     -4.149  0.0000E+00  0.0000E+00  0.0000E+00  0.0000E+00  0.0000E+00  0.0000E+00  0.0000E+00  0.0000E+00  0.0000E+00  0.0000E+00  0.0000E+00  0.0000E+00  0.0000E+00  0.0000E+00  0.0000E+00  0.0000E+00  0.0000E+00  0.0000E+00
     -4.094  0.6125E-07  0.6045E-07  0.7287E-22  0.9237E-22  0.3093E-12  0.2986E-12  0.7287E-22  0.9237E-22  0.6624E-23  0.6397E-23  0.1896E-22  0.1964E-22  0.1151E-12  0.1106E-12  0.1896E-22  0.1964E-22  0.4696E-22  0.4252E-21
     -4.038  0.5069E-06  0.5003E-06  0.8191E-09  0.8089E-09  0.8617E-09  0.8510E-09  0.8191E-09  0.8089E-09  0.1149E-20  0.9148E-21  0.2971E-13  0.3066E-13  0.1849E-11  0.1800E-11  0.2971E-13  0.3066E-13  0.7143E-12  0.7022E-12
     -3.982  0.1952E-05  0.1927E-05  0.5027E-08  0.4964E-08  0.5494E-08  0.5425E-08  0.5027E-08  0.4964E-08  0.5984E-11  0.5901E-11  0.5973E-11  0.5910E-11  0.7457E-11  0.7262E-11  0.5973E-11  0.5910E-11  0.2827E-11  0.2781E-11
     -3.927  0.5687E-05  0.5614E-05  0.1536E-07  0.1516E-07  0.1703E-07  0.1682E-07  0.1536E-07  0.1516E-07  0.2384E-10  0.2350E-10  0.2501E-10  0.2473E-10  0.2016E-10  0.1961E-10  0.2501E-10  0.2473E-10  0.7226E-11  0.7108E-11
     -3.871  0.1710E-04  0.1688E-04  0.4745E-07  0.4686E-07  0.5082E-07  0.5019E-07  0.4745E-07  0.4686E-07  0.6087E-10  0.6000E-10  0.6347E-10  0.6277E-10  0.7584E-10  0.7397E-10  0.6347E-10  0.6277E-10  0.3654E-10  0.3597E-10
     -3.815  0.5251E-04  0.5184E-04  0.1602E-06  0.1582E-06  0.1689E-06  0.1668E-06  0.1602E-06  0.1582E-06  0.2471E-09  0.2438E-09  0.2449E-09  0.2421E-09  0.2684E-09  0.2622E-09  0.2449E-09  0.2421E-09  0.1430E-09  0.1409E-09
     -3.760  0.1522E-03  0.1503E-03  0.4811E-06  0.4753E-06  0.5106E-06  0.5044E-06  0.4811E-06  0.4753E-06  0.8143E-09  0.8035E-09  0.8160E-09  0.8068E-09  0.7771E-09  0.7594E-09  0.8160E-09  0.8068E-09  0.4149E-09  0.4089E-09
     -3.704  0.4056E-03  0.4012E-03  0.1355E-05  0.1340E-05  0.1442E-05  0.1425E-05  0.1355E-05  0.1340E-05  0.2333E-08  0.2303E-08  0.2290E-08  0.2265E-08  0.2152E-08  0.2106E-08  0.2290E-08  0.2265E-08  0.1167E-08  0.1151E-08
     -3.648  0.9305E-03  0.9226E-03  0.3542E-05  0.3507E-05  0.3795E-05  0.3757E-05  0.3542E-05  0.3507E-05  0.6617E-08  0.6537E-08  0.6597E-08  0.6530E-08  0.5475E-08  0.5369E-08  0.6597E-08  0.6530E-08  0.3212E-08  0.3171E-08
     -3.593  0.1704E-02  0.1694E-02  0.7868E-05  0.7806E-05  0.8441E-05  0.8375E-05  0.7868E-05  0.7806E-05  0.1679E-07  0.1661E-07  0.1691E-07  0.1676E-07  0.1222E-07  0.1201E-07  0.1691E-07  0.1676E-07  0.8032E-08  0.7941E-08
     -3.537  0.2450E-02  0.2442E-02  0.1458E-04  0.1449E-04  0.1535E-04  0.1526E-04  0.1458E-04  0.1449E-04  0.3637E-07  0.3606E-07  0.3623E-07  0.3597E-07  0.2516E-07  0.2480E-07  0.3623E-07  0.3597E-07  0.1862E-07  0.1843E-07
     -3.482  0.3041E-02  0.3034E-02  0.2424E-04  0.2411E-04  0.2496E-04  0.2482E-04  0.2424E-04  0.2411E-04  0.7092E-07  0.7040E-07  0.6918E-07  0.6872E-07  0.5073E-07  0.5012E-07  0.6918E-07  0.6872E-07  0.4012E-07  0.3977E-07
     -3.426  0.3763E-02  0.3753E-02  0.3805E-04  0.3788E-04  0.4018E-04  0.3998E-04  0.3805E-04  0.3788E-04  0.1322E-06  0.1314E-06  0.1290E-06  0.1282E-06  0.9143E-07  0.9064E-07  0.1290E-06  0.1282E-06  0.7251E-07  0.7208E-07
     -3.370  0.4467E-02  0.4461E-02  0.5223E-04  0.5211E-04  0.5841E-04  0.5824E-04  0.5223E-04  0.5211E-04  0.2189E-06  0.2180E-06  0.2193E-06  0.2182E-06  0.1309E-06  0.1302E-06  0.2193E-06  0.2182E-06  0.1023E-06  0.1020E-06
     -3.315  0.4519E-02  0.4521E-02  0.6114E-04  0.6105E-04  0.6891E-04  0.6885E-04  0.6114E-04  0.6105E-04  0.3116E-06  0.3107E-06  0.3110E-06  0.3100E-06  0.1593E-06  0.1586E-06  0.3110E-06  0.3100E-06  0.1289E-06  0.1284E-06
     -3.259  0.4418E-02  0.4414E-02  0.7438E-04  0.7415E-04  0.7743E-04  0.7728E-04  0.7438E-04  0.7415E-04  0.4407E-06  0.4390E-06  0.4311E-06  0.4293E-06  0.2160E-06  0.2144E-06  0.4311E-06  0.4293E-06  0.1969E-06  0.1955E-06
     -3.203  0.5076E-02  0.5064E-02  0.1031E-03  0.1027E-03  0.1010E-03  0.1007E-03  0.1031E-03  0.1027E-03  0.6364E-06  0.6342E-06  0.6332E-06  0.6307E-06  0.3497E-06  0.3469E-06  0.6332E-06  0.6307E-06  0.3444E-06  0.3420E-06
     -3.148  0.5878E-02  0.5870E-02  0.1318E-03  0.1315E-03  0.1329E-03  0.1326E-03  0.1318E-03  0.1315E-03  0.8289E-06  0.8267E-06  0.8309E-06  0.8290E-06  0.5450E-06  0.5415E-06  0.8309E-06  0.8290E-06  0.5128E-06  0.5106E-06
     -3.092  0.6019E-02  0.6020E-02  0.1438E-03  0.1438E-03  0.1601E-03  0.1598E-03  0.1438E-03  0.1438E-03  0.1030E-05  0.1028E-05  0.1003E-05  0.1001E-05  0.7121E-06  0.7095E-06  0.1003E-05  0.1001E-05  0.5848E-06  0.5839E-06
     -3.036  0.5872E-02  0.5871E-02  0.1526E-03  0.1525E-03  0.1805E-03  0.1803E-03  0.1526E-03  0.1525E-03  0.1390E-05  0.1385E-05  0.1301E-05  0.1296E-05  0.7851E-06  0.7834E-06  0.1301E-05  0.1296E-05  0.5755E-06  0.5746E-06
     -2.981  0.6076E-02  0.6070E-02  0.1775E-03  0.1772E-03  0.2023E-03  0.2020E-03  0.1775E-03  0.1772E-03  0.1890E-05  0.1885E-05  0.1799E-05  0.1792E-05  0.8358E-06  0.8336E-06  0.1799E-05  0.1792E-05  0.6478E-06  0.6451E-06
     -2.925  0.6398E-02  0.6396E-02  0.2047E-03  0.2045E-03  0.2287E-03  0.2285E-03  0.2047E-03  0.2045E-03  0.2198E-05  0.2197E-05  0.2307E-05  0.2303E-05  0.9356E-06  0.9328E-06  0.2307E-05  0.2303E-05  0.8430E-06  0.8388E-06
     -2.869  0.6126E-02  0.6130E-02  0.2164E-03  0.2163E-03  0.2307E-03  0.2308E-03  0.2164E-03  0.2163E-03  0.2206E-05  0.2205E-05  0.2449E-05  0.2449E-05  0.1081E-05  0.1077E-05  0.2449E-05  0.2449E-05  0.1132E-05  0.1126E-05
     -2.814  0.6009E-02  0.6003E-02  0.2473E-03  0.2468E-03  0.2279E-03  0.2277E-03  0.2473E-03  0.2468E-03  0.2587E-05  0.2578E-05  0.2544E-05  0.2539E-05  0.1412E-05  0.1403E-05  0.2544E-05  0.2539E-05  0.1583E-05  0.1575E-05
     -2.758  0.6806E-02  0.6794E-02  0.3060E-03  0.3054E-03  0.2834E-03  0.2824E-03  0.3060E-03  0.3054E-03  0.3628E-05  0.3615E-05  0.3194E-05  0.3183E-05  0.2013E-05  0.2001E-05  0.3194E-05  0.3183E-05  0.2011E-05  0.2004E-05
     -2.702  0.7537E-02  0.7531E-02  0.3427E-03  0.3425E-03  0.3745E-03  0.3736E-03  0.3427E-03  0.3425E-03  0.4578E-05  0.4569E-05  0.4129E-05  0.4116E-05  0.2604E-05  0.2593E-05  0.4129E-05  0.4116E-05  0.2147E-05  0.2143E-05
     -2.647  0.7692E-02  0.7691E-02  0.3592E-03  0.3590E-03  0.4329E-03  0.4326E-03  0.3592E-03  0.3590E-03  0.5157E-05  0.5151E-05  0.5040E-05  0.5028E-05  0.2866E-05  0.2859E-05  0.5040E-05  0.5028E-05  0.2225E-05  0.2220E-05
     -2.591  0.7512E-02  0.7515E-02  0.3725E-03  0.3725E-03  0.4484E-03  0.4484E-03  0.3725E-03  0.3725E-03  0.5611E-05  0.5606E-05  0.5852E-05  0.5841E-05  0.2856E-05  0.2851E-05  0.5852E-05  0.5841E-05  0.2359E-05  0.2354E-05
     -2.535  0.7049E-02  0.7054E-02  0.3631E-03  0.3633E-03  0.4637E-03  0.4636E-03  0.3631E-03  0.3633E-03  0.5954E-05  0.5950E-05  0.6562E-05  0.6552E-05  0.2809E-05  0.2804E-05  0.6562E-05  0.6552E-05  0.2214E-05  0.2214E-05
     -2.480  0.6449E-02  0.6454E-02  0.3526E-03  0.3525E-03  0.4568E-03  0.4573E-03  0.3526E-03  0.3525E-03  0.6471E-05  0.6461E-05  0.6937E-05  0.6932E-05  0.2763E-05  0.2758E-05  0.6937E-05  0.6932E-05  0.2096E-05  0.2090E-05
     -2.424  0.6224E-02  0.6221E-02  0.4013E-03  0.4003E-03  0.4097E-03  0.4101E-03  0.4013E-03  0.4003E-03  0.7777E-05  0.7756E-05  0.6993E-05  0.6986E-05  0.2983E-05  0.2972E-05  0.6993E-05  0.6986E-05  0.2786E-05  0.2769E-05
     -2.368  0.6915E-02  0.6901E-02  0.5162E-03  0.5148E-03  0.4299E-03  0.4290E-03  0.5162E-03  0.5148E-03  0.9642E-05  0.9621E-05  0.7993E-05  0.7969E-05  0.3882E-05  0.3861E-05  0.7993E-05  0.7969E-05  0.4288E-05  0.4264E-05
     -2.313  0.7927E-02  0.7917E-02  0.6169E-03  0.6162E-03  0.5630E-03  0.5612E-03  0.6169E-03  0.6162E-03  0.1072E-04  0.1071E-04  0.1028E-04  0.1025E-04  0.5025E-05  0.5004E-05  0.1028E-04  0.1025E-04  0.5635E-05  0.5619E-05
     -2.257  0.8222E-02  0.8222E-02  0.6351E-03  0.6353E-03  0.7205E-03  0.7191E-03  0.6351E-03  0.6353E-03  0.1099E-04  0.1098E-04  0.1232E-04  0.1230E-04  0.5813E-05  0.5797E-05  0.1232E-04  0.1230E-04  0.5901E-05  0.5896E-05
     -2.201  0.8050E-02  0.8050E-02  0.6402E-03  0.6398E-03  0.8047E-03  0.8044E-03  0.6402E-03  0.6398E-03  0.1250E-04  0.1247E-04  0.1338E-04  0.1337E-04  0.6314E-05  0.6299E-05  0.1338E-04  0.1337E-04  0.5738E-05  0.5732E-05
     -2.146  0.7964E-02  0.7966E-02  0.6773E-03  0.6771E-03  0.8229E-03  0.8229E-03  0.6773E-03  0.6771E-03  0.1480E-04  0.1478E-04  0.1450E-04  0.1448E-04  0.6545E-05  0.6534E-05  0.1450E-04  0.1448E-04  0.5884E-05  0.5879E-05
     -2.090  0.7305E-02  0.7316E-02  0.6378E-03  0.6389E-03  0.8305E-03  0.8305E-03  0.6378E-03  0.6389E-03  0.1504E-04  0.1505E-04  0.1499E-04  0.1499E-04  0.6494E-05  0.6485E-05  0.1499E-04  0.1499E-04  0.5318E-05  0.5326E-05
     -2.034  0.6258E-02  0.6266E-02  0.5611E-03  0.5614E-03  0.8277E-03  0.8279E-03  0.5611E-03  0.5614E-03  0.1516E-04  0.1514E-04  0.1455E-04  0.1454E-04  0.6499E-05  0.6488E-05  0.1455E-04  0.1454E-04  0.4281E-05  0.4285E-05
     -1.979  0.6103E-02  0.6097E-02  0.6158E-03  0.6142E-03  0.8270E-03  0.8268E-03  0.6158E-03  0.6142E-03  0.1838E-04  0.1833E-04  0.1607E-04  0.1602E-04  0.6593E-05  0.6582E-05  0.1607E-04  0.1602E-04  0.4527E-05  0.4511E-05
     -1.923  0.6924E-02  0.6911E-02  0.7938E-03  0.7915E-03  0.9269E-03  0.9250E-03  0.7938E-03  0.7915E-03  0.2283E-04  0.2278E-04  0.2101E-04  0.2093E-04  0.6924E-05  0.6906E-05  0.2101E-04  0.2093E-04  0.6216E-05  0.6187E-05
     -1.867  0.7778E-02  0.7771E-02  0.9752E-03  0.9736E-03  0.1141E-02  0.1139E-02  0.9752E-03  0.9736E-03  0.2516E-04  0.2515E-04  0.2667E-04  0.2661E-04  0.7789E-05  0.7766E-05  0.2667E-04  0.2661E-04  0.8393E-05  0.8362E-05
     -1.812  0.7749E-02  0.7753E-02  0.1063E-02  0.1062E-02  0.1288E-02  0.1287E-02  0.1063E-02  0.1062E-02  0.2452E-04  0.2452E-04  0.2923E-04  0.2920E-04  0.8579E-05  0.8562E-05  0.2923E-04  0.2920E-04  0.9944E-05  0.9926E-05
     -1.756  0.7017E-02  0.7025E-02  0.1068E-02  0.1068E-02  0.1273E-02  0.1274E-02  0.1068E-02  0.1068E-02  0.2412E-04  0.2410E-04  0.2913E-04  0.2912E-04  0.8520E-05  0.8514E-05  0.2913E-04  0.2912E-04  0.1016E-04  0.1016E-04
     -1.700  0.6162E-02  0.6171E-02  0.1074E-02  0.1074E-02  0.1174E-02  0.1175E-02  0.1074E-02  0.1074E-02  0.2613E-04  0.2609E-04  0.2800E-04  0.2799E-04  0.7916E-05  0.7909E-05  0.2800E-04  0.2799E-04  0.9750E-05  0.9748E-05
     -1.645  0.5517E-02  0.5522E-02  0.1113E-02  0.1113E-02  0.1101E-02  0.1101E-02  0.1113E-02  0.1113E-02  0.2978E-04  0.2972E-04  0.2728E-04  0.2726E-04  0.7886E-05  0.7869E-05  0.2728E-04  0.2726E-04  0.9387E-05  0.9389E-05