  16  16   1   0
  0.1624951E+02  0.3989012E-09  0.3989012E-09  0.1633915E-08  0.5000000E-15
  1.000000000000000E-004
  CAR 
 unknown system                          
     13.56124855     -4.20795921  301      7.23081079      1.00000000
     -4.208  0.0000E+00  0.0000E+00  0.0000E+00  0.0000E+00
     -4.149  0.0000E+00  0.0000E+00  0.0000E+00  0.0000E+00
     -4.089  0.0000E+00  0.0000E+00  0.0000E+00  0.0000E+00
     -4.030  0.0000E+00  0.0000E+00  0.0000E+00  0.0000E+00
     -3.971  0.0000E+00  0.0000E+00  0.0000E+00  0.0000E+00
     -3.912  0.0000E+00  0.0000E+00  0.0000E+00  0.0000E+00
     -3.853  0.3924E-05  0.3884E-05  0.2324E-06  0.2300E-06
     -3.793  0.3368E-04  0.3333E-04  0.2227E-05  0.2204E-05
     -3.734  0.1374E-03  0.1360E-03  0.1036E-04  0.1026E-04
     -3.675  0.4329E-03  0.4285E-03  0.3600E-04  0.3564E-04
     -3.616  0.1402E-02  0.1388E-02  0.1190E-03  0.1178E-03
     -3.556  0.4609E-02  0.4563E-02  0.3920E-03  0.3881E-03
     -3.497  0.1440E-01  0.1427E-01  0.1245E-02  0.1233E-02
     -3.438  0.4135E-01  0.4099E-01  0.3694E-02  0.3661E-02
     -3.379  0.1009E+00  0.1002E+00  0.9669E-02  0.9596E-02
     -3.319  0.1922E+00  0.1913E+00  0.2105E-01  0.2093E-01
     -3.260  0.2801E+00  0.2794E+00  0.3764E-01  0.3748E-01
     -3.201  0.3471E+00  0.3465E+00  0.5820E-01  0.5800E-01
     -3.142  0.4364E+00  0.4355E+00  0.8405E-01  0.8380E-01
     -3.083  0.5303E+00  0.5298E+00  0.1155E+00  0.1152E+00
     -3.023  0.5340E+00  0.5343E+00  0.1471E+00  0.1468E+00
     -2.964  0.5166E+00  0.5164E+00  0.1777E+00  0.1774E+00
     -2.905  0.6123E+00  0.6111E+00  0.2140E+00  0.2136E+00
     -2.846  0.7277E+00  0.7271E+00  0.2571E+00  0.2567E+00
     -2.786  0.7477E+00  0.7478E+00  0.3014E+00  0.3010E+00
     -2.727  0.7297E+00  0.7298E+00  0.3446E+00  0.3442E+00
     -2.668  0.7688E+00  0.7682E+00  0.3902E+00  0.3897E+00
     -2.609  0.8284E+00  0.8282E+00  0.4392E+00  0.4388E+00
     -2.549  0.7915E+00  0.7921E+00  0.4861E+00  0.4857E+00
     -2.490  0.7798E+00  0.7791E+00  0.5323E+00  0.5319E+00
     -2.431  0.9160E+00  0.9146E+00  0.5866E+00  0.5861E+00
     -2.372  0.1036E+01  0.1036E+01  0.6480E+00  0.6475E+00
     -2.313  0.1069E+01  0.1069E+01  0.7114E+00  0.7108E+00
     -2.253  0.1056E+01  0.1057E+01  0.7740E+00  0.7734E+00
     -2.194  0.1003E+01  0.1003E+01  0.8334E+00  0.8329E+00
     -2.135  0.9233E+00  0.9239E+00  0.8881E+00  0.8876E+00
     -2.076  0.8997E+00  0.8992E+00  0.9414E+00  0.9409E+00
     -2.016  0.1037E+01  0.1035E+01  0.1003E+01  0.1002E+01
     -1.957  0.1235E+01  0.1234E+01  0.1076E+01  0.1075E+01
     -1.898  0.1308E+01  0.1308E+01  0.1154E+01  0.1153E+01
     -1.839  0.1307E+01  0.1307E+01  0.1231E+01  0.1230E+01
     -1.780  0.1330E+01  0.1330E+01  0.1310E+01  0.1309E+01
     -1.720  0.1239E+01  0.1240E+01  0.1383E+01  0.1383E+01
     -1.661  0.1075E+01  0.1076E+01  0.1447E+01  0.1446E+01
     -1.602  0.1086E+01  0.1085E+01  0.1511E+01  0.1511E+01
     -1.543  0.1293E+01  0.1291E+01  0.1588E+01  0.1587E+01
     -1.483  0.1540E+01  0.1538E+01  0.1679E+01  0.1678E+01
     -1.424  0.1624E+01  0.1624E+01  0.1776E+01  0.1775E+01
     -1.365  0.1547E+01  0.1548E+01  0.1867E+01  0.1866E+01
     -1.306  0.1435E+01  0.1436E+01  0.1952E+01  0.1952E+01
     -1.246  0.1380E+01  0.1380E+01  0.2034E+01  0.2033E+01
     -1.187  0.1359E+01  0.1359E+01  0.2115E+01  0.2114E+01
     -1.128  0.1406E+01  0.1405E+01  0.2198E+01  0.2197E+01
     -1.069  0.1569E+01  0.1568E+01  0.2291E+01  0.2290E+01
     -1.010  0.1616E+01  0.1617E+01  0.2387E+01  0.2386E+01
     -0.950  0.1489E+01  0.1490E+01  0.2475E+01  0.2474E+01
     -0.891  0.1303E+01  0.1304E+01  0.2552E+01  0.2552E+01
     -0.832  0.1146E+01  0.1147E+01  0.2620E+01  0.2620E+01
     -0.773  0.1097E+01  0.1097E+01  0.2685E+01  0.2685E+01
     -0.713  0.1227E+01  0.1225E+01  0.2758E+01  0.2757E+01
     -0.654  0.1490E+01  0.1488E+01  0.2846E+01  0.2845E+01
     -0.595  0.1680E+01  0.1679E+01  0.2946E+01  0.2945E+01
     -0.536  0.1636E+01  0.1637E+01  0.3043E+01  0.3042E+01
     -0.476  0.1486E+01  0.1487E+01  0.3131E+01  0.3130E+01
     -0.417  0.1394E+01  0.1394E+01  0.3213E+01  0.3213E+01
     -0.358  0.1354E+01  0.1354E+01  0.3294E+01  0.3293E+01
     -0.299  0.1493E+01  0.1491E+01  0.3382E+01  0.3381E+01
     -0.240  0.1684E+01  0.1684E+01  0.3482E+01  0.3481E+01
     -0.180  0.1713E+01  0.1713E+01  0.3583E+01  0.3583E+01
     -0.121  0.1734E+01  0.1734E+01  0.3686E+01  0.3685E+01
     -0.062  0.1699E+01  0.1700E+01  0.3787E+01  0.3786E+01
     -0.003  0.1549E+01  0.1551E+01  0.3879E+01  0.3878E+01
      0.057  0.1503E+01  0.1502E+01  0.3968E+01  0.3967E+01
      0.116  0.1657E+01  0.1655E+01  0.4066E+01  0.4065E+01
      0.175  0.1862E+01  0.1860E+01  0.4176E+01  0.4175E+01
      0.234  0.1990E+01  0.1990E+01  0.4294E+01  0.4293E+01
      0.294  0.2003E+01  0.2003E+01  0.4413E+01  0.4412E+01
      0.353  0.1990E+01  0.1990E+01  0.4531E+01  0.4530E+01
      0.412  0.1922E+01  0.1923E+01  0.4645E+01  0.4644E+01
      0.471  0.1822E+01  0.1823E+01  0.4753E+01  0.4752E+01
      0.530  0.1792E+01  0.1792E+01  0.4859E+01  0.4858E+01
      0.590  0.1794E+01  0.1794E+01  0.4965E+01  0.4964E+01
      0.649  0.1824E+01  0.1824E+01  0.5073E+01  0.5072E+01
      0.708  0.1868E+01  0.1868E+01  0.5184E+01  0.5183E+01
      0.767  0.1854E+01  0.1854E+01  0.5294E+01  0.5293E+01
      0.827  0.1780E+01  0.1780E+01  0.5399E+01  0.5399E+01
      0.886  0.1761E+01  0.1761E+01  0.5504E+01  0.5503E+01
      0.945  0.1895E+01  0.1894E+01  0.5616E+01  0.5615E+01
      1.004  0.2039E+01  0.2038E+01  0.5737E+01  0.5736E+01
      1.064  0.2060E+01  0.2061E+01  0.5859E+01  0.5858E+01
      1.123  0.1963E+01  0.1964E+01  0.5976E+01  0.5975E+01
      1.182  0.1911E+01  0.1911E+01  0.6089E+01  0.6088E+01
      1.241  0.1834E+01  0.1835E+01  0.6198E+01  0.6197E+01
      1.300  0.1813E+01  0.1812E+01  0.6305E+01  0.6304E+01
      1.360  0.1862E+01  0.1862E+01  0.6415E+01  0.6414E+01
      1.419  0.1925E+01  0.1924E+01  0.6529E+01  0.6528E+01
      1.478  0.2104E+01  0.2102E+01  0.6654E+01  0.6653E+01
      1.537  0.2266E+01  0.2265E+01  0.6788E+01  0.6787E+01
      1.597  0.2298E+01  0.2298E+01  0.6925E+01  0.6924E+01
      1.656  0.2279E+01  0.2279E+01  0.7060E+01  0.7059E+01
      1.715  0.2221E+01  0.2222E+01  0.7191E+01  0.7190E+01
      1.774  0.2114E+01  0.2115E+01  0.7317E+01  0.7316E+01
      1.834  0.1956E+01  0.1957E+01  0.7433E+01  0.7432E+01
      1.893  0.1914E+01  0.1914E+01  0.7546E+01  0.7545E+01
      1.952  0.2037E+01  0.2035E+01  0.7667E+01  0.7666E+01
      2.011  0.2280E+01  0.2278E+01  0.7802E+01  0.7801E+01
      2.070  0.2403E+01  0.2403E+01  0.7944E+01  0.7943E+01
      2.130  0.2320E+01  0.2321E+01  0.8082E+01  0.8081E+01
      2.189  0.2220E+01  0.2221E+01  0.8213E+01  0.8212E+01
      2.248  0.2215E+01  0.2214E+01  0.8345E+01  0.8343E+01
      2.307  0.2275E+01  0.2275E+01  0.8479E+01  0.8478E+01
      2.367  0.2320E+01  0.2320E+01  0.8617E+01  0.8616E+01
      2.426  0.2377E+01  0.2377E+01  0.8758E+01  0.8757E+01
      2.485  0.2347E+01  0.2348E+01  0.8897E+01  0.8896E+01
      2.544  0.2255E+01  0.2256E+01  0.9031E+01  0.9030E+01
      2.604  0.2232E+01  0.2232E+01  0.9163E+01  0.9162E+01
      2.663  0.2198E+01  0.2199E+01  0.9293E+01  0.9292E+01
      2.722  0.2164E+01  0.2164E+01  0.9422E+01  0.9420E+01
      2.781  0.2206E+01  0.2205E+01  0.9552E+01  0.9551E+01
      2.840  0.2320E+01  0.2319E+01  0.9690E+01  0.9689E+01
      2.900  0.2369E+01  0.2369E+01  0.9830E+01  0.9829E+01
      2.959  0.2348E+01  0.2348E+01  0.9969E+01  0.9968E+01
      3.018  0.2368E+01  0.2367E+01  0.1011E+02  0.1011E+02
      3.077  0.2476E+01  0.2475E+01  0.1026E+02  0.1026E+02
      3.137  0.2677E+01  0.2676E+01  0.1042E+02  0.1041E+02
      3.196  0.2806E+01  0.2805E+01  0.1058E+02  0.1058E+02
      3.255  0.2851E+01  0.2851E+01  0.1075E+02  0.1075E+02
      3.314  0.2738E+01  0.2740E+01  0.1091E+02  0.1091E+02
      3.374  0.2527E+01  0.2528E+01  0.1106E+02  0.1106E+02
      3.433  0.2304E+01  0.2306E+01  0.1120E+02  0.1120E+02
      3.492  0.2306E+01  0.2304E+01  0.1134E+02  0.1133E+02
      3.551  0.2612E+01  0.2609E+01  0.1149E+02  0.1149E+02
      3.610  0.2933E+01  0.2931E+01  0.1166E+02  0.1166E+02
      3.670  0.2949E+01  0.2950E+01  0.1184E+02  0.1184E+02
      3.729  0.2674E+01  0.2676E+01  0.1200E+02  0.1200E+02
      3.788  0.2428E+01  0.2429E+01  0.1214E+02  0.1214E+02
      3.847  0.2240E+01  0.2241E+01  0.1227E+02  0.1227E+02
      3.907  0.2227E+01  0.2226E+01  0.1241E+02  0.1240E+02
      3.966  0.2467E+01  0.2464E+01  0.1255E+02  0.1255E+02
      4.025  0.2827E+01  0.2824E+01  0.1272E+02  0.1272E+02
      4.084  0.3080E+01  0.3079E+01  0.1290E+02  0.1290E+02
      4.144  0.3027E+01  0.3028E+01  0.1308E+02  0.1308E+02
      4.203  0.2795E+01  0.2797E+01  0.1325E+02  0.1325E+02
      4.262  0.2574E+01  0.2575E+01  0.1340E+02  0.1340E+02
      4.321  0.2386E+01  0.2387E+01  0.1354E+02  0.1354E+02
      4.380  0.2354E+01  0.2353E+01  0.1368E+02  0.1368E+02
      4.440  0.2696E+01  0.2692E+01  0.1384E+02  0.1384E+02
      4.499  0.3201E+01  0.3198E+01  0.1403E+02  0.1403E+02
      4.558  0.3362E+01  0.3363E+01  0.1423E+02  0.1423E+02
      4.617  0.3137E+01  0.3140E+01  0.1442E+02  0.1441E+02
      4.677  0.2866E+01  0.2868E+01  0.1459E+02  0.1458E+02
      4.736  0.2728E+01  0.2729E+01  0.1475E+02  0.1475E+02
      4.795  0.2650E+01  0.2651E+01  0.1490E+02  0.1490E+02
      4.854  0.2562E+01  0.2562E+01  0.1506E+02  0.1505E+02
      4.914  0.2572E+01  0.2570E+01  0.1521E+02  0.1521E+02
      4.973  0.2861E+01  0.2858E+01  0.1538E+02  0.1538E+02
      5.032  0.3173E+01  0.3171E+01  0.1557E+02  0.1556E+02
      5.091  0.3203E+01  0.3204E+01  0.1576E+02  0.1575E+02
      5.150  0.3054E+01  0.3056E+01  0.1594E+02  0.1594E+02
      5.210  0.3032E+01  0.3031E+01  0.1612E+02  0.1611E+02
      5.269  0.3302E+01  0.3300E+01  0.1631E+02  0.1631E+02
      5.328  0.3326E+01  0.3329E+01  0.1651E+02  0.1651E+02
      5.387  0.2846E+01  0.2851E+01  0.1668E+02  0.1668E+02
      5.447  0.2392E+01  0.2394E+01  0.1682E+02  0.1682E+02
      5.506  0.2247E+01  0.2247E+01  0.1695E+02  0.1695E+02
      5.565  0.2329E+01  0.2328E+01  0.1709E+02  0.1709E+02
      5.624  0.2520E+01  0.2518E+01  0.1724E+02  0.1724E+02
      5.684  0.2765E+01  0.2763E+01  0.1740E+02  0.1740E+02
      5.743  0.2891E+01  0.2891E+01  0.1758E+02  0.1757E+02
      5.802  0.2803E+01  0.2805E+01  0.1774E+02  0.1774E+02
      5.861  0.2705E+01  0.2704E+01  0.1790E+02  0.1790E+02
      5.920  0.2945E+01  0.2942E+01  0.1808E+02  0.1807E+02
      5.980  0.3363E+01  0.3360E+01  0.1828E+02  0.1827E+02
      6.039  0.3443E+01  0.3444E+01  0.1848E+02  0.1848E+02
      6.098  0.3167E+01  0.3170E+01  0.1867E+02  0.1867E+02
      6.157  0.2926E+01  0.2928E+01  0.1884E+02  0.1884E+02
      6.217  0.2767E+01  0.2768E+01  0.1901E+02  0.1900E+02
      6.276  0.2655E+01  0.2656E+01  0.1916E+02  0.1916E+02
      6.335  0.2717E+01  0.2716E+01  0.1932E+02  0.1932E+02
      6.394  0.2746E+01  0.2747E+01  0.1949E+02  0.1948E+02
      6.454  0.2514E+01  0.2516E+01  0.1964E+02  0.1963E+02
      6.513  0.2375E+01  0.2375E+01  0.1978E+02  0.1977E+02
      6.572  0.2645E+01  0.2642E+01  0.1993E+02  0.1993E+02
      6.631  0.3108E+01  0.3104E+01  0.2012E+02  0.2012E+02
      6.690  0.3468E+01  0.3466E+01  0.2032E+02  0.2032E+02
      6.750  0.3602E+01  0.3602E+01  0.2054E+02  0.2053E+02
      6.809  0.3512E+01  0.3514E+01  0.2074E+02  0.2074E+02
      6.868  0.3255E+01  0.3258E+01  0.2094E+02  0.2094E+02
      6.927  0.3027E+01  0.3028E+01  0.2112E+02  0.2111E+02
      6.987  0.3000E+01  0.3000E+01  0.2129E+02  0.2129E+02
      7.046  0.3098E+01  0.3097E+01  0.2148E+02  0.2148E+02
      7.105  0.3086E+01  0.3087E+01  0.2166E+02  0.2166E+02
      7.164  0.2806E+01  0.2809E+01  0.2183E+02  0.2183E+02
      7.224  0.2615E+01  0.2616E+01  0.2198E+02  0.2198E+02
      7.283  0.2564E+01  0.2564E+01  0.2213E+02  0.2213E+02
      7.342  0.2561E+01  0.2560E+01  0.2229E+02  0.2228E+02
      7.401  0.2654E+01  0.2653E+01  0.2244E+02  0.2244E+02
      7.460  0.2901E+01  0.2898E+01  0.2262E+02  0.2261E+02
      7.520  0.3230E+01  0.3228E+01  0.2281E+02  0.2280E+02
      7.579  0.3349E+01  0.3349E+01  0.2300E+02  0.2300E+02
      7.638  0.3344E+01  0.3344E+01  0.2320E+02  0.2320E+02
      7.697  0.3392E+01  0.3392E+01  0.2340E+02  0.2340E+02
      7.757  0.3325E+01  0.3327E+01  0.2360E+02  0.2360E+02
      7.816  0.3050E+01  0.3053E+01  0.2378E+02  0.2378E+02
      7.875  0.2813E+01  0.2814E+01  0.2395E+02  0.2395E+02
      7.934  0.2604E+01  0.2605E+01  0.2410E+02  0.2410E+02
      7.994  0.2488E+01  0.2487E+01  0.2425E+02  0.2425E+02
      8.053  0.2719E+01  0.2716E+01  0.2441E+02  0.2441E+02
      8.112  0.2973E+01  0.2972E+01  0.2459E+02  0.2459E+02
      8.171  0.2936E+01  0.2937E+01  0.2476E+02  0.2476E+02
      8.230  0.3083E+01  0.3080E+01  0.2494E+02  0.2494E+02
      8.290  0.3607E+01  0.3603E+01  0.2516E+02  0.2516E+02
      8.349  0.4024E+01  0.4022E+01  0.2540E+02  0.2539E+02
      8.408  0.3849E+01  0.3853E+01  0.2562E+02  0.2562E+02
      8.467  0.3273E+01  0.3277E+01  0.2582E+02  0.2582E+02
      8.527  0.3015E+01  0.3015E+01  0.2600E+02  0.2600E+02
      8.586  0.3213E+01  0.3211E+01  0.2619E+02  0.2619E+02
      8.645  0.3323E+01  0.3324E+01  0.2638E+02  0.2638E+02
      8.704  0.3191E+01  0.3192E+01  0.2657E+02  0.2657E+02
      8.764  0.3311E+01  0.3309E+01  0.2677E+02  0.2677E+02
      8.823  0.3602E+01  0.3600E+01  0.2698E+02  0.2698E+02
      8.882  0.3647E+01  0.3647E+01  0.2720E+02  0.2720E+02
      8.941  0.3541E+01  0.3542E+01  0.2741E+02  0.2741E+02
      9.000  0.3388E+01  0.3389E+01  0.2761E+02  0.2761E+02
      9.060  0.3327E+01  0.3327E+01  0.2781E+02  0.2781E+02
      9.119  0.3312E+01  0.3312E+01  0.2800E+02  0.2800E+02
      9.178  0.3235E+01  0.3235E+01  0.2820E+02  0.2819E+02
      9.237  0.3231E+01  0.3232E+01  0.2839E+02  0.2839E+02
      9.297  0.3186E+01  0.3187E+01  0.2858E+02  0.2857E+02
      9.356  0.3132E+01  0.3132E+01  0.2876E+02  0.2876E+02
      9.415  0.3261E+01  0.3259E+01  0.2895E+02  0.2895E+02
      9.474  0.3419E+01  0.3418E+01  0.2916E+02  0.2916E+02
      9.534  0.3591E+01  0.3589E+01  0.2937E+02  0.2937E+02
      9.593  0.3775E+01  0.3774E+01  0.2959E+02  0.2959E+02
      9.652  0.3865E+01  0.3865E+01  0.2982E+02  0.2982E+02
      9.711  0.3851E+01  0.3852E+01  0.3005E+02  0.3005E+02
      9.770  0.3717E+01  0.3718E+01  0.3027E+02  0.3027E+02
      9.830  0.3575E+01  0.3576E+01  0.3048E+02  0.3048E+02
      9.889  0.3442E+01  0.3443E+01  0.3069E+02  0.3069E+02
      9.948  0.3194E+01  0.3196E+01  0.3088E+02  0.3088E+02
     10.007  0.2971E+01  0.2972E+01  0.3105E+02  0.3105E+02
     10.067  0.2900E+01  0.2900E+01  0.3122E+02  0.3122E+02
     10.126  0.2952E+01  0.2952E+01  0.3140E+02  0.3140E+02
     10.185  0.3087E+01  0.3086E+01  0.3158E+02  0.3158E+02
     10.244  0.3271E+01  0.3270E+01  0.3178E+02  0.3178E+02
     10.304  0.3395E+01  0.3395E+01  0.3198E+02  0.3198E+02
     10.363  0.3504E+01  0.3504E+01  0.3219E+02  0.3218E+02
     10.422  0.3828E+01  0.3830E+01  0.3241E+02  0.3241E+02
     10.481  0.4212E+01  0.4218E+01  0.3266E+02  0.3266E+02
     10.540  0.4159E+01  0.4176E+01  0.3291E+02  0.3291E+02
     10.600  0.3848E+01  0.3882E+01  0.3314E+02  0.3314E+02
     10.659  0.3616E+01  0.3668E+01  0.3335E+02  0.3336E+02
     10.718  0.3329E+01  0.3385E+01  0.3355E+02  0.3356E+02
     10.777  0.3118E+01  0.3170E+01  0.3373E+02  0.3374E+02
     10.837  0.3122E+01  0.3163E+01  0.3392E+02  0.3393E+02
     10.896  0.3168E+01  0.3156E+01  0.3411E+02  0.3412E+02
     10.955  0.2918E+01  0.2856E+01  0.3428E+02  0.3429E+02
     11.014  0.2520E+01  0.2465E+01  0.3443E+02  0.3443E+02
     11.074  0.2440E+01  0.2414E+01  0.3457E+02  0.3458E+02
     11.133  0.2621E+01  0.2601E+01  0.3473E+02  0.3473E+02
     11.192  0.2536E+01  0.2513E+01  0.3488E+02  0.3488E+02
     11.251  0.2179E+01  0.2155E+01  0.3501E+02  0.3501E+02
     11.310  0.1769E+01  0.1723E+01  0.3511E+02  0.3511E+02
     11.370  0.1417E+01  0.1368E+01  0.3520E+02  0.3519E+02
     11.429  0.1240E+01  0.1237E+01  0.3527E+02  0.3527E+02
     11.488  0.1209E+01  0.1268E+01  0.3534E+02  0.3534E+02
     11.547  0.1126E+01  0.1180E+01  0.3541E+02  0.3541E+02
     11.607  0.9629E+00  0.9685E+00  0.3547E+02  0.3547E+02
     11.666  0.8436E+00  0.8265E+00  0.3552E+02  0.3552E+02
     11.725  0.7520E+00  0.7395E+00  0.3556E+02  0.3556E+02
     11.784  0.6754E+00  0.6680E+00  0.3560E+02  0.3560E+02
     11.844  0.6437E+00  0.6356E+00  0.3564E+02  0.3564E+02
     11.903  0.6805E+00  0.6684E+00  0.3568E+02  0.3568E+02
     11.962  0.7713E+00  0.7632E+00  0.3572E+02  0.3572E+02
     12.021  0.7784E+00  0.7823E+00  0.3577E+02  0.3577E+02
     12.080  0.6613E+00  0.6749E+00  0.3581E+02  0.3581E+02
     12.140  0.5352E+00  0.5684E+00  0.3584E+02  0.3584E+02
     12.199  0.4714E+00  0.5283E+00  0.3587E+02  0.3587E+02
     12.258  0.4850E+00  0.5188E+00  0.3590E+02  0.3590E+02
     12.317  0.4519E+00  0.4341E+00  0.3593E+02  0.3593E+02
     12.377  0.3244E+00  0.3088E+00  0.3594E+02  0.3595E+02
     12.436  0.2420E+00  0.2304E+00  0.3596E+02  0.3596E+02
     12.495  0.1722E+00  0.1447E+00  0.3597E+02  0.3597E+02
     12.554  0.9427E-01  0.7315E-01  0.3597E+02  0.3598E+02
     12.614  0.6296E-01  0.5395E-01  0.3598E+02  0.3598E+02
     12.673  0.7959E-01  0.7213E-01  0.3598E+02  0.3598E+02
     12.732  0.1062E+00  0.9603E-01  0.3599E+02  0.3599E+02
     12.791  0.9486E-01  0.9409E-01  0.3600E+02  0.3599E+02
     12.850  0.5207E-01  0.5820E-01  0.3600E+02  0.3600E+02
     12.910  0.2038E-01  0.2440E-01  0.3600E+02  0.3600E+02
     12.969  0.6790E-02  0.8356E-02  0.3600E+02  0.3600E+02
     13.028  0.2134E-02  0.2651E-02  0.3600E+02  0.3600E+02
     13.087  0.5786E-03  0.7575E-03  0.3600E+02  0.3600E+02
     13.147  0.0000E+00  0.2326E-03  0.3600E+02  0.3600E+02
     13.206  0.0000E+00  0.0000E+00  0.3600E+02  0.3600E+02
     13.265  0.0000E+00  0.0000E+00  0.3600E+02  0.3600E+02
     13.324  0.0000E+00  0.0000E+00  0.3600E+02  0.3600E+02
     13.384  0.0000E+00  0.0000E+00  0.3600E+02  0.3600E+02
     13.443  0.0000E+00  0.0000E+00  0.3600E+02  0.3600E+02
     13.502  0.0000E+00  0.0000E+00  0.3600E+02  0.3600E+02
     13.561  0.0000E+00  0.0000E+00  0.3600E+02  0.3600E+02
     13.56124855     -4.20795921  301      7.23081079      1.00000000
     -4.208  0.0000E+00  0.0000E+00  0.0000E+00  0.0000E+00  0.0000E+00  0.0000E+00  0.0000E+00  0.0000E+00  0.0000E+00  0.0000E+00  0.0000E+00  0.0000E+00  0.0000E+00  0.0000E+00  0.0000E+00  0.0000E+00  0.0000E+00  0.0000E+00
     -4.149  0.0000E+00  0.0000E+00  0.0000E+00  0.0000E+00  0.0000E+00  0.0000E+00  0.0000E+00  0.0000E+00  0.0000E+00  0.0000E+00  0.0000E+00  0.0000E+00  0.0000E+00  0.0000E+00  0.0000E+00  0.0000E+00  0.0000E+00  0.0000E+00
     -4.089  0.0000E+00  0.0000E+00  0.0000E+00  0.0000E+00  0.0000E+00  0.0000E+00  0.0000E+00  0.0000E+00  0.0000E+00  0.0000E+00  0.0000E+00  0.0000E+00  0.0000E+00  0.0000E+00  0.0000E+00  0.0000E+00  0.0000E+00  0.0000E+00
     -4.030  0.0000E+00  0.0000E+00  0.0000E+00  0.0000E+00  0.0000E+00  0.0000E+00  0.0000E+00  0.0000E+00  0.0000E+00  0.0000E+00  0.0000E+00  0.0000E+00  0.0000E+00  0.0000E+00  0.0000E+00  0.0000E+00  0.0000E+00  0.0000E+00
     -3.971  0.0000E+00  0.0000E+00  0.0000E+00  0.0000E+00  0.0000E+00  0.0000E+00  0.0000E+00  0.0000E+00  0.0000E+00  0.0000E+00  0.0000E+00  0.0000E+00  0.0000E+00  0.0000E+00  0.0000E+00  0.0000E+00  0.0000E+00  0.0000E+00
     -3.912  0.0000E+00  0.0000E+00  0.0000E+00  0.0000E+00  0.0000E+00  0.0000E+00  0.0000E+00  0.0000E+00  0.0000E+00  0.0000E+00  0.0000E+00  0.0000E+00  0.0000E+00  0.0000E+00  0.0000E+00  0.0000E+00  0.0000E+00  0.0000E+00
     -3.853  0.3705E-07  0.3667E-07  0.1955E-22  0.8162E-22  0.2502E-12  0.2447E-12  0.1955E-22  0.8162E-22  0.1413E-23  0.5846E-23  0.1268E-23  0.7603E-23  0.8641E-13  0.8345E-13  0.1268E-23  0.7603E-23  0.1625E-22  0.1012E-21
     -3.793  0.3158E-06  0.3125E-06  0.5225E-09  0.5172E-09  0.5465E-09  0.5411E-09  0.5225E-09  0.5172E-09  0.3857E-21  0.4941E-21  0.2228E-13  0.2281E-13  0.1342E-11  0.1311E-11  0.2228E-13  0.2281E-13  0.4900E-12  0.4831E-12
     -3.734  0.1282E-05  0.1269E-05  0.3329E-08  0.3296E-08  0.3620E-08  0.3584E-08  0.3329E-08  0.3296E-08  0.3978E-11  0.3935E-11  0.3964E-11  0.3930E-11  0.5706E-11  0.5577E-11  0.3964E-11  0.3930E-11  0.2045E-11  0.2019E-11
     -3.675  0.4039E-05  0.3997E-05  0.1092E-07  0.1082E-07  0.1205E-07  0.1193E-07  0.1092E-07  0.1082E-07  0.1673E-10  0.1655E-10  0.1752E-10  0.1736E-10  0.1687E-10  0.1647E-10  0.1752E-10  0.1736E-10  0.5748E-11  0.5672E-11
     -3.616  0.1308E-04  0.1294E-04  0.3622E-07  0.3585E-07  0.3871E-07  0.3832E-07  0.3622E-07  0.3585E-07  0.4695E-10  0.4643E-10  0.4889E-10  0.4846E-10  0.6519E-10  0.6379E-10  0.4889E-10  0.4846E-10  0.2896E-10  0.2861E-10
     -3.556  0.4296E-04  0.4252E-04  0.1286E-06  0.1273E-06  0.1356E-06  0.1343E-06  0.1286E-06  0.1273E-06  0.1953E-09  0.1932E-09  0.1944E-09  0.1926E-09  0.2393E-09  0.2344E-09  0.1944E-09  0.1926E-09  0.1169E-09  0.1155E-09
     -3.497  0.1342E-03  0.1329E-03  0.4151E-06  0.4110E-06  0.4401E-06  0.4358E-06  0.4151E-06  0.4110E-06  0.6800E-09  0.6727E-09  0.6829E-09  0.6767E-09  0.7485E-09  0.7335E-09  0.6829E-09  0.6767E-09  0.3670E-09  0.3628E-09
     -3.438  0.3849E-03  0.3816E-03  0.1263E-05  0.1251E-05  0.1346E-05  0.1334E-05  0.1263E-05  0.1251E-05  0.2079E-08  0.2057E-08  0.2093E-08  0.2074E-08  0.2218E-08  0.2175E-08  0.2093E-08  0.2074E-08  0.1116E-08  0.1104E-08
     -3.379  0.9370E-03  0.9306E-03  0.3526E-05  0.3498E-05  0.3791E-05  0.3761E-05  0.3526E-05  0.3498E-05  0.6396E-08  0.6333E-08  0.6427E-08  0.6375E-08  0.5940E-08  0.5839E-08  0.6427E-08  0.6375E-08  0.3213E-08  0.3182E-08
     -3.319  0.1778E-02  0.1770E-02  0.8200E-05  0.8149E-05  0.8848E-05  0.8794E-05  0.8200E-05  0.8149E-05  0.1730E-07  0.1716E-07  0.1750E-07  0.1738E-07  0.1353E-07  0.1334E-07  0.1750E-07  0.1738E-07  0.8316E-08  0.8247E-08
     -3.260  0.2576E-02  0.2570E-02  0.1549E-04  0.1541E-04  0.1635E-04  0.1628E-04  0.1549E-04  0.1541E-04  0.3853E-07  0.3827E-07  0.3870E-07  0.3849E-07  0.2806E-07  0.2772E-07  0.3870E-07  0.3849E-07  0.2016E-07  0.2000E-07
     -3.201  0.3164E-02  0.3158E-02  0.2597E-04  0.2586E-04  0.2656E-04  0.2645E-04  0.2597E-04  0.2586E-04  0.7620E-07  0.7576E-07  0.7438E-07  0.7401E-07  0.5820E-07  0.5761E-07  0.7438E-07  0.7401E-07  0.4566E-07  0.4537E-07
     -3.142  0.3937E-02  0.3928E-02  0.4156E-04  0.4142E-04  0.4364E-04  0.4346E-04  0.4156E-04  0.4142E-04  0.1456E-06  0.1449E-06  0.1421E-06  0.1413E-06  0.1086E-06  0.1078E-06  0.1421E-06  0.1413E-06  0.8537E-07  0.8501E-07
     -3.083  0.4744E-02  0.4739E-02  0.5773E-04  0.5762E-04  0.6491E-04  0.6476E-04  0.5773E-04  0.5762E-04  0.2457E-06  0.2449E-06  0.2479E-06  0.2470E-06  0.1560E-06  0.1554E-06  0.2479E-06  0.2470E-06  0.1202E-06  0.1199E-06
     -3.023  0.4737E-02  0.4739E-02  0.6629E-04  0.6624E-04  0.7567E-04  0.7564E-04  0.6629E-04  0.6624E-04  0.3474E-06  0.3466E-06  0.3492E-06  0.3484E-06  0.1838E-06  0.1832E-06  0.3492E-06  0.3484E-06  0.1455E-06  0.1451E-06
     -2.964  0.4522E-02  0.4519E-02  0.7945E-04  0.7926E-04  0.8287E-04  0.8274E-04  0.7945E-04  0.7926E-04  0.4898E-06  0.4883E-06  0.4791E-06  0.4776E-06  0.2445E-06  0.2431E-06  0.4791E-06  0.4776E-06  0.2211E-06  0.2198E-06
     -2.905  0.5284E-02  0.5274E-02  0.1129E-03  0.1125E-03  0.1096E-03  0.1093E-03  0.1129E-03  0.1125E-03  0.7196E-06  0.7176E-06  0.7198E-06  0.7176E-06  0.4056E-06  0.4029E-06  0.7198E-06  0.7176E-06  0.4037E-06  0.4013E-06
     -2.846  0.6217E-02  0.6211E-02  0.1463E-03  0.1461E-03  0.1462E-03  0.1459E-03  0.1463E-03  0.1461E-03  0.9357E-06  0.9343E-06  0.9467E-06  0.9454E-06  0.6489E-06  0.6454E-06  0.9467E-06  0.9454E-06  0.6183E-06  0.6159E-06
     -2.786  0.6321E-02  0.6321E-02  0.1578E-03  0.1578E-03  0.1761E-03  0.1759E-03  0.1578E-03  0.1578E-03  0.1146E-05  0.1143E-05  0.1122E-05  0.1121E-05  0.8547E-06  0.8521E-06  0.1122E-05  0.1121E-05  0.7005E-06  0.6995E-06
     -2.727  0.6091E-02  0.6092E-02  0.1650E-03  0.1650E-03  0.1978E-03  0.1976E-03  0.1650E-03  0.1650E-03  0.1558E-05  0.1554E-05  0.1454E-05  0.1450E-05  0.9301E-06  0.9288E-06  0.1454E-05  0.1450E-05  0.6667E-06  0.6659E-06
     -2.668  0.6334E-02  0.6329E-02  0.1940E-03  0.1937E-03  0.2213E-03  0.2211E-03  0.1940E-03  0.1937E-03  0.2168E-05  0.2163E-05  0.2046E-05  0.2040E-05  0.9797E-06  0.9778E-06  0.2046E-05  0.2040E-05  0.7461E-06  0.7436E-06
     -2.609  0.6747E-02  0.6746E-02  0.2257E-03  0.2256E-03  0.2533E-03  0.2531E-03  0.2257E-03  0.2256E-03  0.2526E-05  0.2525E-05  0.2670E-05  0.2666E-05  0.1095E-05  0.1092E-05  0.2670E-05  0.2666E-05  0.9806E-06  0.9771E-06
     -2.549  0.6367E-02  0.6372E-02  0.2342E-03  0.2341E-03  0.2525E-03  0.2527E-03  0.2342E-03  0.2341E-03  0.2444E-05  0.2444E-05  0.2786E-05  0.2787E-05  0.1247E-05  0.1243E-05  0.2786E-05  0.2787E-05  0.1315E-05  0.1310E-05
     -2.490  0.6163E-02  0.6158E-02  0.2673E-03  0.2668E-03  0.2417E-03  0.2416E-03  0.2673E-03  0.2668E-03  0.2845E-05  0.2837E-05  0.2818E-05  0.2814E-05  0.1631E-05  0.1623E-05  0.2818E-05  0.2814E-05  0.1875E-05  0.1867E-05
     -2.431  0.7119E-02  0.7108E-02  0.3378E-03  0.3373E-03  0.3056E-03  0.3048E-03  0.3378E-03  0.3373E-03  0.4124E-05  0.4112E-05  0.3593E-05  0.3583E-05  0.2384E-05  0.2372E-05  0.3593E-05  0.3583E-05  0.2416E-05  0.2410E-05
     -2.372  0.7941E-02  0.7936E-02  0.3778E-03  0.3776E-03  0.4139E-03  0.4131E-03  0.3778E-03  0.3776E-03  0.5234E-05  0.5227E-05  0.4696E-05  0.4685E-05  0.3128E-05  0.3117E-05  0.4696E-05  0.4685E-05  0.2547E-05  0.2544E-05
     -2.313  0.8080E-02  0.8080E-02  0.3937E-03  0.3936E-03  0.4797E-03  0.4795E-03  0.3937E-03  0.3936E-03  0.5858E-05  0.5853E-05  0.5748E-05  0.5738E-05  0.3431E-05  0.3425E-05  0.5748E-05  0.5738E-05  0.2627E-05  0.2622E-05
     -2.253  0.7882E-02  0.7884E-02  0.4102E-03  0.4101E-03  0.4915E-03  0.4915E-03  0.4102E-03  0.4101E-03  0.6362E-05  0.6358E-05  0.6673E-05  0.6663E-05  0.3383E-05  0.3378E-05  0.6673E-05  0.6663E-05  0.2823E-05  0.2818E-05
     -2.194  0.7371E-02  0.7376E-02  0.3964E-03  0.3967E-03  0.5107E-03  0.5105E-03  0.3964E-03  0.3967E-03  0.6707E-05  0.6705E-05  0.7502E-05  0.7493E-05  0.3316E-05  0.3311E-05  0.7502E-05  0.7493E-05  0.2600E-05  0.2601E-05
     -2.135  0.6679E-02  0.6684E-02  0.3776E-03  0.3775E-03  0.5040E-03  0.5044E-03  0.3776E-03  0.3775E-03  0.7215E-05  0.7207E-05  0.7907E-05  0.7904E-05  0.3220E-05  0.3216E-05  0.7907E-05  0.7904E-05  0.2356E-05  0.2352E-05
     -2.076  0.6384E-02  0.6381E-02  0.4306E-03  0.4297E-03  0.4382E-03  0.4387E-03  0.4306E-03  0.4297E-03  0.8739E-05  0.8720E-05  0.7804E-05  0.7800E-05  0.3433E-05  0.3422E-05  0.7804E-05  0.7800E-05  0.3185E-05  0.3170E-05
     -2.016  0.7189E-02  0.7177E-02  0.5669E-03  0.5657E-03  0.4551E-03  0.4543E-03  0.5669E-03  0.5657E-03  0.1103E-04  0.1101E-04  0.8921E-05  0.8900E-05  0.4562E-05  0.4541E-05  0.8921E-05  0.8900E-05  0.5106E-05  0.5084E-05
     -1.957  0.8371E-02  0.8363E-02  0.6848E-03  0.6843E-03  0.6115E-03  0.6098E-03  0.6848E-03  0.6843E-03  0.1221E-04  0.1221E-04  0.1173E-04  0.1170E-04  0.5993E-05  0.5973E-05  0.1173E-04  0.1170E-04  0.6831E-05  0.6816E-05
     -1.898  0.8649E-02  0.8650E-02  0.6960E-03  0.6962E-03  0.7951E-03  0.7938E-03  0.6960E-03  0.6962E-03  0.1226E-04  0.1226E-04  0.1413E-04  0.1411E-04  0.6921E-05  0.6905E-05  0.1413E-04  0.1411E-04  0.7058E-05  0.7056E-05
     -1.839  0.8417E-02  0.8417E-02  0.6967E-03  0.6964E-03  0.8871E-03  0.8868E-03  0.6967E-03  0.6964E-03  0.1406E-04  0.1403E-04  0.1520E-04  0.1519E-04  0.7534E-05  0.7520E-05  0.1520E-04  0.1519E-04  0.6772E-05  0.6767E-05
     -1.780  0.8405E-02  0.8405E-02  0.7497E-03  0.7495E-03  0.9014E-03  0.9015E-03  0.7497E-03  0.7495E-03  0.1698E-04  0.1696E-04  0.1654E-04  0.1652E-04  0.7829E-05  0.7818E-05  0.1654E-04  0.1652E-04  0.7075E-05  0.7070E-05
     -1.720  0.7668E-02  0.7678E-02  0.6988E-03  0.6999E-03  0.9073E-03  0.9073E-03  0.6988E-03  0.6999E-03  0.1697E-04  0.1698E-04  0.1707E-04  0.1707E-04  0.7714E-05  0.7705E-05  0.1707E-04  0.1707E-04  0.6340E-05  0.6350E-05
     -1.661  0.6424E-02  0.6430E-02  0.5944E-03  0.5948E-03  0.9002E-03  0.9004E-03  0.5944E-03  0.5948E-03  0.1675E-04  0.1673E-04  0.1619E-04  0.1619E-04  0.7719E-05  0.7709E-05  0.1619E-04  0.1619E-04  0.4874E-05  0.4879E-05
     -1.602  0.6282E-02  0.6277E-02  0.6580E-03  0.6566E-03  0.8881E-03  0.8880E-03  0.6580E-03  0.6566E-03  0.2073E-04  0.2068E-04  0.1784E-04  0.1780E-04  0.7829E-05  0.7818E-05  0.1784E-04  0.1780E-04  0.5176E-05  0.5161E-05
     -1.543  0.7261E-02  0.7250E-02  0.8668E-03  0.8648E-03  0.9933E-03  0.9916E-03  0.8668E-03  0.8648E-03  0.2616E-04  0.2611E-04  0.2383E-04  0.2376E-04  0.8169E-05  0.8152E-05  0.2383E-04  0.2376E-04  0.7323E-05  0.7296E-05
     -1.483  0.8250E-02  0.8244E-02  0.1074E-02  0.1072E-02  0.1247E-02  0.1245E-02  0.1074E-02  0.1072E-02  0.2878E-04  0.2877E-04  0.3069E-04  0.3063E-04  0.9256E-05  0.9233E-05  0.3069E-04  0.3063E-04  0.1006E-04  0.1003E-04
     -1.424  0.8192E-02  0.8196E-02  0.1165E-02  0.1165E-02  0.1424E-02  0.1424E-02  0.1165E-02  0.1165E-02  0.2752E-04  0.2753E-04  0.3344E-04  0.3342E-04  0.1030E-04  0.1028E-04  0.3344E-04  0.3342E-04  0.1202E-04  0.1200E-04
     -1.365  0.7367E-02  0.7374E-02  0.1162E-02  0.1162E-02  0.1404E-02  0.1405E-02  0.1162E-02  0.1162E-02  0.2682E-04  0.2680E-04  0.3309E-04  0.3309E-04  0.1021E-04  0.1021E-04  0.3309E-04  0.3309E-04  0.1223E-04  0.1223E-04
     -1.306  0.6431E-02  0.6439E-02  0.1164E-02  0.1164E-02  0.1276E-02  0.1277E-02  0.1164E-02  0.1164E-02  0.2920E-04  0.2916E-04  0.3152E-04  0.3152E-04  0.9348E-05  0.9342E-05  0.3152E-04  0.3152E-04  0.1165E-04  0.1165E-04
     -1.246  0.5737E-02  0.5740E-02  0.1210E-02  0.1210E-02  0.1202E-02  0.1202E-02  0.1210E-02  0.1210E-02  0.3334E-04  0.3329E-04  0.3052E-04  0.3051E-04  0.9371E-05  0.9354E-05  0.3052E-04  0.3051E-04  0.1131E-04  0.1132E-04