  16  16   1   0
  0.2369753E+02  0.4523622E-09  0.4523622E-09  0.1852894E-08  0.5000000E-15
  1.000000000000000E-004
  CAR 
 unknown system                          
      8.70651047     -4.94769549  301      4.09834283      1.00000000
     -4.948  0.0000E+00  0.0000E+00  0.0000E+00  0.0000E+00
     -4.902  0.0000E+00  0.0000E+00  0.0000E+00  0.0000E+00
     -4.857  0.0000E+00  0.0000E+00  0.0000E+00  0.0000E+00
     -4.811  0.0000E+00  0.0000E+00  0.0000E+00  0.0000E+00
     -4.766  0.6718E-05  0.6641E-05  0.3058E-06  0.3023E-06
     -4.720  0.5180E-04  0.5121E-04  0.2664E-05  0.2633E-05
     -4.675  0.1736E-03  0.1717E-03  0.1057E-04  0.1045E-04
     -4.629  0.4044E-03  0.3998E-03  0.2897E-04  0.2864E-04
     -4.584  0.9906E-03  0.9793E-03  0.7406E-04  0.7321E-04
     -4.538  0.2600E-02  0.2570E-02  0.1924E-03  0.1902E-03
     -4.493  0.6398E-02  0.6326E-02  0.4836E-03  0.4781E-03
     -4.447  0.1529E-01  0.1512E-01  0.1179E-02  0.1166E-02
     -4.402  0.3587E-01  0.3550E-01  0.2812E-02  0.2782E-02
     -4.356  0.7846E-01  0.7774E-01  0.6383E-02  0.6321E-02
     -4.310  0.1524E+00  0.1512E+00  0.1332E-01  0.1320E-01
     -4.265  0.2527E+00  0.2513E+00  0.2482E-01  0.2464E-01
     -4.219  0.3568E+00  0.3556E+00  0.4106E-01  0.4083E-01
     -4.174  0.4546E+00  0.4534E+00  0.6175E-01  0.6146E-01
     -4.128  0.5574E+00  0.5561E+00  0.8712E-01  0.8677E-01
     -4.083  0.6462E+00  0.6454E+00  0.1165E+00  0.1161E+00
     -4.037  0.6853E+00  0.6850E+00  0.1477E+00  0.1473E+00
     -3.992  0.7160E+00  0.7153E+00  0.1803E+00  0.1799E+00
     -3.946  0.8016E+00  0.8003E+00  0.2168E+00  0.2163E+00
     -3.901  0.9006E+00  0.8997E+00  0.2578E+00  0.2573E+00
     -3.855  0.9480E+00  0.9477E+00  0.3009E+00  0.3004E+00
     -3.810  0.9645E+00  0.9642E+00  0.3448E+00  0.3443E+00
     -3.764  0.1001E+01  0.1001E+01  0.3904E+00  0.3898E+00
     -3.719  0.1043E+01  0.1043E+01  0.4379E+00  0.4373E+00
     -3.673  0.1048E+01  0.1048E+01  0.4856E+00  0.4850E+00
     -3.628  0.1076E+01  0.1075E+01  0.5346E+00  0.5340E+00
     -3.582  0.1183E+01  0.1182E+01  0.5885E+00  0.5878E+00
     -3.537  0.1295E+01  0.1294E+01  0.6474E+00  0.6467E+00
     -3.491  0.1347E+01  0.1347E+01  0.7088E+00  0.7080E+00
     -3.446  0.1343E+01  0.1343E+01  0.7700E+00  0.7692E+00
     -3.400  0.1299E+01  0.1300E+01  0.8291E+00  0.8284E+00
     -3.355  0.1248E+01  0.1248E+01  0.8859E+00  0.8852E+00
     -3.309  0.1256E+01  0.1255E+01  0.9431E+00  0.9424E+00
     -3.264  0.1378E+01  0.1376E+01  0.1006E+01  0.1005E+01
     -3.218  0.1549E+01  0.1547E+01  0.1076E+01  0.1076E+01
     -3.173  0.1652E+01  0.1652E+01  0.1152E+01  0.1151E+01
     -3.127  0.1681E+01  0.1681E+01  0.1228E+01  0.1227E+01
     -3.082  0.1676E+01  0.1676E+01  0.1305E+01  0.1304E+01
     -3.036  0.1603E+01  0.1605E+01  0.1378E+01  0.1377E+01
     -2.991  0.1507E+01  0.1508E+01  0.1446E+01  0.1445E+01
     -2.945  0.1531E+01  0.1530E+01  0.1516E+01  0.1515E+01
     -2.900  0.1718E+01  0.1715E+01  0.1594E+01  0.1593E+01
     -2.854  0.1941E+01  0.1939E+01  0.1682E+01  0.1681E+01
     -2.809  0.2041E+01  0.2041E+01  0.1775E+01  0.1774E+01
     -2.763  0.2000E+01  0.2001E+01  0.1866E+01  0.1865E+01
     -2.718  0.1912E+01  0.1913E+01  0.1953E+01  0.1952E+01
     -2.672  0.1840E+01  0.1840E+01  0.2037E+01  0.2036E+01
     -2.626  0.1810E+01  0.1810E+01  0.2120E+01  0.2119E+01
     -2.581  0.1867E+01  0.1866E+01  0.2205E+01  0.2204E+01
     -2.535  0.1978E+01  0.1977E+01  0.2295E+01  0.2294E+01
     -2.490  0.1994E+01  0.1995E+01  0.2386E+01  0.2384E+01
     -2.444  0.1873E+01  0.1875E+01  0.2471E+01  0.2470E+01
     -2.399  0.1690E+01  0.1692E+01  0.2548E+01  0.2547E+01
     -2.353  0.1531E+01  0.1532E+01  0.2618E+01  0.2617E+01
     -2.308  0.1488E+01  0.1488E+01  0.2685E+01  0.2685E+01
     -2.262  0.1622E+01  0.1619E+01  0.2759E+01  0.2758E+01
     -2.217  0.1855E+01  0.1853E+01  0.2844E+01  0.2843E+01
     -2.171  0.2009E+01  0.2009E+01  0.2935E+01  0.2934E+01
     -2.126  0.1992E+01  0.1993E+01  0.3026E+01  0.3025E+01
     -2.080  0.1869E+01  0.1871E+01  0.3111E+01  0.3110E+01
     -2.035  0.1751E+01  0.1752E+01  0.3191E+01  0.3190E+01
     -1.989  0.1718E+01  0.1718E+01  0.3269E+01  0.3268E+01
     -1.944  0.1843E+01  0.1841E+01  0.3353E+01  0.3352E+01
     -1.898  0.2054E+01  0.2052E+01  0.3446E+01  0.3445E+01
     -1.853  0.2173E+01  0.2173E+01  0.3545E+01  0.3544E+01
     -1.807  0.2174E+01  0.2174E+01  0.3644E+01  0.3643E+01
     -1.762  0.2131E+01  0.2131E+01  0.3741E+01  0.3740E+01
     -1.716  0.2082E+01  0.2082E+01  0.3836E+01  0.3835E+01
     -1.671  0.2060E+01  0.2060E+01  0.3930E+01  0.3929E+01
     -1.625  0.2132E+01  0.2130E+01  0.4027E+01  0.4026E+01
     -1.580  0.2311E+01  0.2309E+01  0.4132E+01  0.4131E+01
     -1.534  0.2483E+01  0.2482E+01  0.4245E+01  0.4244E+01
     -1.489  0.2543E+01  0.2543E+01  0.4361E+01  0.4360E+01
     -1.443  0.2549E+01  0.2549E+01  0.4477E+01  0.4476E+01
     -1.398  0.2540E+01  0.2540E+01  0.4593E+01  0.4592E+01
     -1.352  0.2488E+01  0.2489E+01  0.4706E+01  0.4705E+01
     -1.307  0.2426E+01  0.2427E+01  0.4817E+01  0.4815E+01
     -1.261  0.2358E+01  0.2359E+01  0.4924E+01  0.4923E+01
     -1.216  0.2288E+01  0.2289E+01  0.5028E+01  0.5027E+01
     -1.170  0.2279E+01  0.2279E+01  0.5132E+01  0.5131E+01
     -1.125  0.2332E+01  0.2331E+01  0.5238E+01  0.5237E+01
     -1.079  0.2388E+01  0.2387E+01  0.5347E+01  0.5346E+01
     -1.033  0.2415E+01  0.2414E+01  0.5457E+01  0.5456E+01
     -0.988  0.2472E+01  0.2471E+01  0.5570E+01  0.5568E+01
     -0.942  0.2547E+01  0.2547E+01  0.5686E+01  0.5684E+01
     -0.897  0.2574E+01  0.2574E+01  0.5803E+01  0.5801E+01
     -0.851  0.2547E+01  0.2547E+01  0.5919E+01  0.5917E+01
     -0.806  0.2489E+01  0.2490E+01  0.6032E+01  0.6031E+01
     -0.760  0.2375E+01  0.2377E+01  0.6140E+01  0.6139E+01
     -0.715  0.2185E+01  0.2187E+01  0.6240E+01  0.6239E+01
     -0.669  0.2046E+01  0.2046E+01  0.6333E+01  0.6332E+01
     -0.624  0.2122E+01  0.2119E+01  0.6430E+01  0.6428E+01
     -0.578  0.2406E+01  0.2402E+01  0.6539E+01  0.6538E+01
     -0.533  0.2712E+01  0.2709E+01  0.6663E+01  0.6661E+01
     -0.487  0.2896E+01  0.2895E+01  0.6795E+01  0.6793E+01
     -0.442  0.2944E+01  0.2944E+01  0.6929E+01  0.6927E+01
     -0.396  0.2901E+01  0.2902E+01  0.7061E+01  0.7059E+01
     -0.351  0.2857E+01  0.2857E+01  0.7191E+01  0.7189E+01
     -0.305  0.2853E+01  0.2853E+01  0.7321E+01  0.7319E+01
     -0.260  0.2846E+01  0.2847E+01  0.7450E+01  0.7449E+01
     -0.214  0.2839E+01  0.2839E+01  0.7580E+01  0.7578E+01
     -0.169  0.2868E+01  0.2867E+01  0.7710E+01  0.7708E+01
     -0.123  0.2976E+01  0.2975E+01  0.7846E+01  0.7844E+01
     -0.078  0.3086E+01  0.3086E+01  0.7986E+01  0.7984E+01
     -0.032  0.3079E+01  0.3080E+01  0.8126E+01  0.8125E+01
      0.013  0.3002E+01  0.3003E+01  0.8263E+01  0.8261E+01
      0.059  0.2953E+01  0.2953E+01  0.8398E+01  0.8396E+01
      0.104  0.2938E+01  0.2938E+01  0.8531E+01  0.8530E+01
      0.150  0.2924E+01  0.2924E+01  0.8664E+01  0.8663E+01
      0.195  0.2883E+01  0.2883E+01  0.8796E+01  0.8794E+01
      0.241  0.2822E+01  0.2823E+01  0.8924E+01  0.8923E+01
      0.286  0.2732E+01  0.2734E+01  0.9049E+01  0.9047E+01
      0.332  0.2606E+01  0.2608E+01  0.9167E+01  0.9166E+01
      0.377  0.2518E+01  0.2519E+01  0.9282E+01  0.9281E+01
      0.423  0.2522E+01  0.2522E+01  0.9397E+01  0.9395E+01
      0.468  0.2566E+01  0.2565E+01  0.9514E+01  0.9512E+01
      0.514  0.2578E+01  0.2578E+01  0.9631E+01  0.9630E+01
      0.560  0.2502E+01  0.2503E+01  0.9745E+01  0.9744E+01
      0.605  0.2418E+01  0.2418E+01  0.9855E+01  0.9854E+01
      0.651  0.2439E+01  0.2438E+01  0.9966E+01  0.9965E+01
      0.696  0.2502E+01  0.2501E+01  0.1008E+02  0.1008E+02
      0.742  0.2546E+01  0.2545E+01  0.1020E+02  0.1019E+02
      0.787  0.2600E+01  0.2599E+01  0.1031E+02  0.1031E+02
      0.833  0.2665E+01  0.2664E+01  0.1044E+02  0.1043E+02
      0.878  0.2764E+01  0.2762E+01  0.1056E+02  0.1056E+02
      0.924  0.2877E+01  0.2876E+01  0.1069E+02  0.1069E+02
      0.969  0.2909E+01  0.2909E+01  0.1083E+02  0.1082E+02
      1.015  0.2911E+01  0.2911E+01  0.1096E+02  0.1096E+02
      1.060  0.2941E+01  0.2940E+01  0.1109E+02  0.1109E+02
      1.106  0.2944E+01  0.2944E+01  0.1123E+02  0.1122E+02
      1.151  0.2862E+01  0.2863E+01  0.1136E+02  0.1135E+02
      1.197  0.2794E+01  0.2794E+01  0.1148E+02  0.1148E+02
      1.242  0.2872E+01  0.2870E+01  0.1161E+02  0.1161E+02
      1.288  0.3021E+01  0.3019E+01  0.1175E+02  0.1175E+02
      1.333  0.3141E+01  0.3140E+01  0.1189E+02  0.1189E+02
      1.379  0.3208E+01  0.3207E+01  0.1204E+02  0.1204E+02
      1.424  0.3217E+01  0.3217E+01  0.1219E+02  0.1219E+02
      1.470  0.3233E+01  0.3232E+01  0.1233E+02  0.1233E+02
      1.515  0.3391E+01  0.3388E+01  0.1249E+02  0.1249E+02
      1.561  0.3663E+01  0.3660E+01  0.1266E+02  0.1265E+02
      1.606  0.3782E+01  0.3782E+01  0.1283E+02  0.1283E+02
      1.652  0.3654E+01  0.3657E+01  0.1299E+02  0.1299E+02
      1.697  0.3435E+01  0.3438E+01  0.1315E+02  0.1315E+02
      1.743  0.3256E+01  0.3258E+01  0.1330E+02  0.1330E+02
      1.788  0.3182E+01  0.3182E+01  0.1344E+02  0.1344E+02
      1.834  0.3221E+01  0.3221E+01  0.1359E+02  0.1359E+02
      1.879  0.3299E+01  0.3298E+01  0.1374E+02  0.1374E+02
      1.925  0.3387E+01  0.3386E+01  0.1390E+02  0.1389E+02
      1.970  0.3496E+01  0.3494E+01  0.1405E+02  0.1405E+02
      2.016  0.3585E+01  0.3584E+01  0.1422E+02  0.1422E+02
      2.061  0.3613E+01  0.3613E+01  0.1438E+02  0.1438E+02
      2.107  0.3559E+01  0.3560E+01  0.1454E+02  0.1454E+02
      2.152  0.3456E+01  0.3457E+01  0.1470E+02  0.1470E+02
      2.198  0.3347E+01  0.3348E+01  0.1485E+02  0.1485E+02
      2.244  0.3290E+01  0.3290E+01  0.1500E+02  0.1500E+02
      2.289  0.3377E+01  0.3375E+01  0.1516E+02  0.1516E+02
      2.335  0.3630E+01  0.3626E+01  0.1532E+02  0.1532E+02
      2.380  0.3924E+01  0.3920E+01  0.1550E+02  0.1550E+02
      2.426  0.4034E+01  0.4035E+01  0.1569E+02  0.1568E+02
      2.471  0.3844E+01  0.3849E+01  0.1586E+02  0.1586E+02
      2.517  0.3537E+01  0.3541E+01  0.1602E+02  0.1602E+02
      2.562  0.3392E+01  0.3392E+01  0.1618E+02  0.1617E+02
      2.608  0.3458E+01  0.3457E+01  0.1633E+02  0.1633E+02
      2.653  0.3552E+01  0.3551E+01  0.1650E+02  0.1649E+02
      2.699  0.3600E+01  0.3599E+01  0.1666E+02  0.1666E+02
      2.744  0.3658E+01  0.3657E+01  0.1683E+02  0.1682E+02
      2.790  0.3702E+01  0.3701E+01  0.1699E+02  0.1699E+02
      2.835  0.3777E+01  0.3775E+01  0.1717E+02  0.1716E+02
      2.881  0.3922E+01  0.3920E+01  0.1734E+02  0.1734E+02
      2.926  0.4003E+01  0.4003E+01  0.1753E+02  0.1752E+02
      2.972  0.3851E+01  0.3855E+01  0.1770E+02  0.1770E+02
      3.017  0.3590E+01  0.3592E+01  0.1787E+02  0.1786E+02
      3.063  0.3586E+01  0.3584E+01  0.1803E+02  0.1803E+02
      3.108  0.3892E+01  0.3888E+01  0.1821E+02  0.1820E+02
      3.154  0.4196E+01  0.4193E+01  0.1840E+02  0.1840E+02
      3.199  0.4272E+01  0.4273E+01  0.1859E+02  0.1859E+02
      3.245  0.4098E+01  0.4102E+01  0.1878E+02  0.1878E+02
      3.290  0.3758E+01  0.3763E+01  0.1895E+02  0.1895E+02
      3.336  0.3380E+01  0.3385E+01  0.1910E+02  0.1910E+02
      3.381  0.3148E+01  0.3149E+01  0.1925E+02  0.1925E+02
      3.427  0.3204E+01  0.3202E+01  0.1939E+02  0.1939E+02
      3.472  0.3454E+01  0.3450E+01  0.1955E+02  0.1955E+02
      3.518  0.3675E+01  0.3672E+01  0.1972E+02  0.1972E+02
      3.563  0.3802E+01  0.3800E+01  0.1989E+02  0.1989E+02
      3.609  0.3909E+01  0.3907E+01  0.2007E+02  0.2007E+02
      3.654  0.4067E+01  0.4064E+01  0.2025E+02  0.2025E+02
      3.700  0.4243E+01  0.4241E+01  0.2045E+02  0.2044E+02
      3.745  0.4318E+01  0.4318E+01  0.2064E+02  0.2064E+02
      3.791  0.4236E+01  0.4239E+01  0.2084E+02  0.2083E+02
      3.837  0.4085E+01  0.4087E+01  0.2102E+02  0.2102E+02
      3.882  0.4007E+01  0.4008E+01  0.2121E+02  0.2120E+02
      3.928  0.4016E+01  0.4016E+01  0.2139E+02  0.2139E+02
      3.973  0.3941E+01  0.3943E+01  0.2157E+02  0.2157E+02
      4.019  0.3681E+01  0.3685E+01  0.2174E+02  0.2173E+02
      4.064  0.3381E+01  0.3384E+01  0.2189E+02  0.2189E+02
      4.110  0.3262E+01  0.3262E+01  0.2204E+02  0.2204E+02
      4.155  0.3382E+01  0.3380E+01  0.2219E+02  0.2219E+02
      4.201  0.3626E+01  0.3623E+01  0.2236E+02  0.2235E+02
      4.246  0.3908E+01  0.3904E+01  0.2254E+02  0.2253E+02
      4.292  0.4172E+01  0.4170E+01  0.2273E+02  0.2272E+02
      4.337  0.4253E+01  0.4254E+01  0.2292E+02  0.2292E+02
      4.383  0.4171E+01  0.4172E+01  0.2311E+02  0.2311E+02
      4.428  0.4118E+01  0.4118E+01  0.2330E+02  0.2329E+02
      4.474  0.4143E+01  0.4142E+01  0.2348E+02  0.2348E+02
      4.519  0.4187E+01  0.4187E+01  0.2368E+02  0.2367E+02
      4.565  0.4113E+01  0.4115E+01  0.2386E+02  0.2386E+02
      4.610  0.3882E+01  0.3885E+01  0.2404E+02  0.2404E+02
      4.656  0.3698E+01  0.3699E+01  0.2421E+02  0.2421E+02
      4.701  0.3760E+01  0.3758E+01  0.2438E+02  0.2438E+02
      4.747  0.4039E+01  0.4035E+01  0.2456E+02  0.2456E+02
      4.792  0.4347E+01  0.4344E+01  0.2476E+02  0.2476E+02
      4.838  0.4516E+01  0.4516E+01  0.2497E+02  0.2496E+02
      4.883  0.4483E+01  0.4484E+01  0.2517E+02  0.2517E+02
      4.929  0.4365E+01  0.4366E+01  0.2537E+02  0.2537E+02
      4.974  0.4366E+01  0.4365E+01  0.2557E+02  0.2557E+02
      5.020  0.4489E+01  0.4489E+01  0.2577E+02  0.2577E+02
      5.065  0.4470E+01  0.4473E+01  0.2598E+02  0.2597E+02
      5.111  0.4212E+01  0.4216E+01  0.2617E+02  0.2617E+02
      5.156  0.3984E+01  0.3985E+01  0.2635E+02  0.2635E+02
      5.202  0.3909E+01  0.3909E+01  0.2653E+02  0.2653E+02
      5.247  0.3857E+01  0.3858E+01  0.2670E+02  0.2670E+02
      5.293  0.3796E+01  0.3797E+01  0.2688E+02  0.2687E+02
      5.338  0.3808E+01  0.3807E+01  0.2705E+02  0.2705E+02
      5.384  0.3960E+01  0.3957E+01  0.2723E+02  0.2723E+02
      5.430  0.4234E+01  0.4231E+01  0.2742E+02  0.2742E+02
      5.475  0.4433E+01  0.4432E+01  0.2762E+02  0.2762E+02
      5.521  0.4444E+01  0.4444E+01  0.2783E+02  0.2782E+02
      5.566  0.4455E+01  0.4454E+01  0.2803E+02  0.2803E+02
      5.612  0.4628E+01  0.4625E+01  0.2824E+02  0.2824E+02
      5.657  0.4804E+01  0.4802E+01  0.2846E+02  0.2846E+02
      5.703  0.4748E+01  0.4750E+01  0.2868E+02  0.2867E+02
      5.748  0.4518E+01  0.4521E+01  0.2888E+02  0.2888E+02
      5.794  0.4340E+01  0.4342E+01  0.2908E+02  0.2908E+02
      5.839  0.4378E+01  0.4376E+01  0.2928E+02  0.2928E+02
      5.885  0.4639E+01  0.4635E+01  0.2949E+02  0.2949E+02
      5.930  0.4832E+01  0.4831E+01  0.2971E+02  0.2971E+02
      5.976  0.4690E+01  0.4693E+01  0.2992E+02  0.2992E+02
      6.021  0.4329E+01  0.4333E+01  0.3012E+02  0.3012E+02
      6.067  0.4019E+01  0.4021E+01  0.3030E+02  0.3030E+02
      6.112  0.3972E+01  0.3971E+01  0.3048E+02  0.3048E+02
      6.158  0.4262E+01  0.4257E+01  0.3068E+02  0.3068E+02
      6.203  0.4637E+01  0.4633E+01  0.3089E+02  0.3089E+02
      6.249  0.4802E+01  0.4801E+01  0.3111E+02  0.3111E+02
      6.294  0.4772E+01  0.4770E+01  0.3133E+02  0.3132E+02
      6.340  0.4606E+01  0.4601E+01  0.3154E+02  0.3153E+02
      6.385  0.4381E+01  0.4365E+01  0.3173E+02  0.3173E+02
      6.431  0.4274E+01  0.4236E+01  0.3193E+02  0.3192E+02
      6.476  0.4323E+01  0.4266E+01  0.3213E+02  0.3212E+02
      6.522  0.4356E+01  0.4308E+01  0.3232E+02  0.3231E+02
      6.567  0.4286E+01  0.4281E+01  0.3252E+02  0.3251E+02
      6.613  0.4219E+01  0.4241E+01  0.3271E+02  0.3270E+02
      6.658  0.4319E+01  0.4306E+01  0.3291E+02  0.3290E+02
      6.704  0.4628E+01  0.4563E+01  0.3312E+02  0.3311E+02
      6.749  0.4913E+01  0.4863E+01  0.3334E+02  0.3333E+02
      6.795  0.4946E+01  0.4971E+01  0.3357E+02  0.3355E+02
      6.840  0.4813E+01  0.4881E+01  0.3379E+02  0.3378E+02
      6.886  0.4582E+01  0.4633E+01  0.3400E+02  0.3399E+02
      6.931  0.4225E+01  0.4227E+01  0.3419E+02  0.3418E+02
      6.977  0.3839E+01  0.3812E+01  0.3436E+02  0.3435E+02
      7.022  0.3540E+01  0.3549E+01  0.3452E+02  0.3451E+02
      7.068  0.3310E+01  0.3396E+01  0.3468E+02  0.3467E+02
      7.114  0.3117E+01  0.3228E+01  0.3482E+02  0.3482E+02
      7.159  0.2941E+01  0.3001E+01  0.3495E+02  0.3495E+02
      7.205  0.2751E+01  0.2742E+01  0.3508E+02  0.3508E+02
      7.250  0.2493E+01  0.2425E+01  0.3519E+02  0.3519E+02
      7.296  0.2149E+01  0.2047E+01  0.3529E+02  0.3528E+02
      7.341  0.1773E+01  0.1687E+01  0.3537E+02  0.3536E+02
      7.387  0.1419E+01  0.1388E+01  0.3543E+02  0.3542E+02
      7.432  0.1145E+01  0.1174E+01  0.3549E+02  0.3548E+02
      7.478  0.1003E+01  0.1073E+01  0.3553E+02  0.3552E+02
      7.523  0.9949E+00  0.1070E+01  0.3558E+02  0.3557E+02
      7.569  0.1058E+01  0.1115E+01  0.3563E+02  0.3562E+02
      7.614  0.1107E+01  0.1138E+01  0.3568E+02  0.3568E+02
      7.660  0.1043E+01  0.1050E+01  0.3572E+02  0.3572E+02
      7.705  0.8416E+00  0.8393E+00  0.3576E+02  0.3576E+02
      7.751  0.6079E+00  0.6089E+00  0.3579E+02  0.3579E+02
      7.796  0.4629E+00  0.4736E+00  0.3581E+02  0.3581E+02
      7.842  0.4418E+00  0.4704E+00  0.3583E+02  0.3583E+02
      7.887  0.5025E+00  0.5553E+00  0.3585E+02  0.3586E+02
      7.933  0.5701E+00  0.6363E+00  0.3588E+02  0.3589E+02
      7.978  0.5888E+00  0.6367E+00  0.3591E+02  0.3592E+02
      8.024  0.5635E+00  0.5651E+00  0.3593E+02  0.3594E+02
      8.069  0.5215E+00  0.4762E+00  0.3596E+02  0.3596E+02
      8.115  0.4296E+00  0.3631E+00  0.3598E+02  0.3598E+02
      8.160  0.2817E+00  0.2266E+00  0.3599E+02  0.3599E+02
      8.206  0.1480E+00  0.1158E+00  0.3599E+02  0.3600E+02
      8.251  0.6757E-01  0.5215E-01  0.3600E+02  0.3600E+02
      8.297  0.2850E-01  0.2181E-01  0.3600E+02  0.3600E+02
      8.342  0.1133E-01  0.8606E-02  0.3600E+02  0.3600E+02
      8.388  0.4329E-02  0.3154E-02  0.3600E+02  0.3600E+02
      8.433  0.1749E-02  0.1274E-02  0.3600E+02  0.3600E+02
      8.479  0.3845E-03  0.1848E-03  0.3600E+02  0.3600E+02
      8.524  0.0000E+00  0.0000E+00  0.3600E+02  0.3600E+02
      8.570  0.0000E+00  0.0000E+00  0.3600E+02  0.3600E+02
      8.615  0.0000E+00  0.0000E+00  0.3600E+02  0.3600E+02
      8.661  0.0000E+00  0.0000E+00  0.3600E+02  0.3600E+02
      8.707  0.0000E+00  0.0000E+00  0.3600E+02  0.3600E+02
      8.70651047     -4.94769549  301      4.09834283      1.00000000
     -4.948  0.0000E+00  0.0000E+00  0.0000E+00  0.0000E+00  0.0000E+00  0.0000E+00  0.0000E+00  0.0000E+00  0.0000E+00  0.0000E+00  0.0000E+00  0.0000E+00  0.0000E+00  0.0000E+00  0.0000E+00  0.0000E+00  0.0000E+00  0.0000E+00
     -4.902  0.0000E+00  0.0000E+00  0.0000E+00  0.0000E+00  0.0000E+00  0.0000E+00  0.0000E+00  0.0000E+00  0.0000E+00  0.0000E+00  0.0000E+00  0.0000E+00  0.0000E+00  0.0000E+00  0.0000E+00  0.0000E+00  0.0000E+00  0.0000E+00
     -4.857  0.0000E+00  0.0000E+00  0.0000E+00  0.0000E+00  0.0000E+00  0.0000E+00  0.0000E+00  0.0000E+00  0.0000E+00  0.0000E+00  0.0000E+00  0.0000E+00  0.0000E+00  0.0000E+00  0.0000E+00  0.0000E+00  0.0000E+00  0.0000E+00
     -4.811  0.0000E+00  0.0000E+00  0.0000E+00  0.0000E+00  0.0000E+00  0.0000E+00  0.0000E+00  0.0000E+00  0.0000E+00  0.0000E+00  0.0000E+00  0.0000E+00  0.0000E+00  0.0000E+00  0.0000E+00  0.0000E+00  0.0000E+00  0.0000E+00
     -4.766  0.4212E-07  0.4162E-07  0.1881E-21  0.8620E-21  0.4038E-13  0.3630E-13  0.1881E-21  0.8620E-21  0.2616E-22  0.4497E-22  0.7270E-22  0.5852E-21  0.4558E-13  0.4429E-13  0.7270E-22  0.5852E-21  0.5428E-22  0.3832E-19
     -4.720  0.3223E-06  0.3185E-06  0.4684E-09  0.4632E-09  0.5012E-09  0.4956E-09  0.4684E-09  0.4632E-09  0.6813E-21  0.1440E-20  0.9600E-14  0.1077E-13  0.7502E-12  0.7325E-12  0.9600E-14  0.1077E-13  0.3271E-12  0.3233E-12
     -4.675  0.1075E-05  0.1062E-05  0.2598E-08  0.2569E-08  0.2881E-08  0.2849E-08  0.2598E-08  0.2569E-08  0.3058E-11  0.3010E-11  0.3041E-11  0.3004E-11  0.2615E-11  0.2551E-11  0.3041E-11  0.3004E-11  0.1110E-11  0.1099E-11
     -4.629  0.2500E-05  0.2471E-05  0.6480E-08  0.6409E-08  0.7299E-08  0.7217E-08  0.6480E-08  0.6409E-08  0.1051E-10  0.1034E-10  0.1097E-10  0.1086E-10  0.5408E-11  0.5267E-11  0.1097E-10  0.1086E-10  0.2132E-11  0.2110E-11
     -4.584  0.6123E-05  0.6051E-05  0.1647E-07  0.1629E-07  0.1771E-07  0.1751E-07  0.1647E-07  0.1629E-07  0.2013E-10  0.1981E-10  0.2087E-10  0.2065E-10  0.2002E-10  0.1956E-10  0.2087E-10  0.2065E-10  0.1161E-10  0.1147E-10
     -4.538  0.1603E-04  0.1585E-04  0.4997E-07  0.4942E-07  0.5263E-07  0.5204E-07  0.4997E-07  0.4942E-07  0.8016E-10  0.7913E-10  0.7799E-10  0.7717E-10  0.6696E-10  0.6560E-10  0.7799E-10  0.7717E-10  0.4278E-10  0.4224E-10
     -4.493  0.3944E-04  0.3899E-04  0.1258E-06  0.1244E-06  0.1336E-06  0.1322E-06  0.1258E-06  0.1244E-06  0.2331E-09  0.2300E-09  0.2312E-09  0.2287E-09  0.1585E-09  0.1552E-09  0.2312E-09  0.2287E-09  0.1002E-09  0.9895E-10
     -4.447  0.9429E-04  0.9322E-04  0.2951E-06  0.2918E-06  0.3142E-06  0.3107E-06  0.2951E-06  0.2918E-06  0.5112E-09  0.5045E-09  0.5072E-09  0.5019E-09  0.3712E-09  0.3635E-09  0.5072E-09  0.5019E-09  0.2324E-09  0.2295E-09
     -4.402  0.2210E-03  0.2187E-03  0.7212E-06  0.7136E-06  0.7679E-06  0.7597E-06  0.7212E-06  0.7136E-06  0.1326E-08  0.1309E-08  0.1298E-08  0.1284E-08  0.9119E-09  0.8935E-09  0.1298E-08  0.1284E-08  0.5762E-09  0.5689E-09
     -4.356  0.4829E-03  0.4783E-03  0.1693E-05  0.1677E-05  0.1800E-05  0.1782E-05  0.1693E-05  0.1677E-05  0.3309E-08  0.3269E-08  0.3251E-08  0.3218E-08  0.2136E-08  0.2095E-08  0.3251E-08  0.3218E-08  0.1414E-08  0.1397E-08
     -4.310  0.9356E-03  0.9283E-03  0.3664E-05  0.3632E-05  0.3895E-05  0.3860E-05  0.3664E-05  0.3632E-05  0.7532E-08  0.7446E-08  0.7382E-08  0.7312E-08  0.4767E-08  0.4681E-08  0.7382E-08  0.7312E-08  0.3327E-08  0.3287E-08
     -4.265  0.1546E-02  0.1537E-02  0.7131E-05  0.7078E-05  0.7572E-05  0.7516E-05  0.7131E-05  0.7078E-05  0.1626E-07  0.1610E-07  0.1597E-07  0.1583E-07  0.9754E-08  0.9596E-08  0.1597E-07  0.1583E-07  0.7193E-08  0.7111E-08
     -4.219  0.2171E-02  0.2162E-02  0.1238E-04  0.1231E-04  0.1301E-04  0.1293E-04  0.1238E-04  0.1231E-04  0.3214E-07  0.3187E-07  0.3121E-07  0.3098E-07  0.1872E-07  0.1845E-07  0.3121E-07  0.3098E-07  0.1459E-07  0.1443E-07
     -4.174  0.2744E-02  0.2736E-02  0.1978E-04  0.1968E-04  0.2070E-04  0.2059E-04  0.1978E-04  0.1968E-04  0.5895E-07  0.5855E-07  0.5695E-07  0.5658E-07  0.3427E-07  0.3384E-07  0.5695E-07  0.5658E-07  0.2753E-07  0.2726E-07
     -4.128  0.3335E-02  0.3326E-02  0.2933E-04  0.2920E-04  0.3135E-04  0.3121E-04  0.2933E-04  0.2920E-04  0.1013E-06  0.1007E-06  0.9879E-07  0.9819E-07  0.5628E-07  0.5572E-07  0.9879E-07  0.9819E-07  0.4542E-07  0.4505E-07
     -4.083  0.3834E-02  0.3829E-02  0.3924E-04  0.3913E-04  0.4310E-04  0.4297E-04  0.3924E-04  0.3913E-04  0.1588E-06  0.1582E-06  0.1562E-06  0.1555E-06  0.8006E-07  0.7941E-07  0.1562E-06  0.1555E-06  0.6504E-07  0.6459E-07
     -4.037  0.4029E-02  0.4026E-02  0.4827E-04  0.4816E-04  0.5265E-04  0.5255E-04  0.4827E-04  0.4816E-04  0.2295E-06  0.2288E-06  0.2249E-06  0.2240E-06  0.1057E-06  0.1049E-06  0.2249E-06  0.2240E-06  0.8988E-07  0.8918E-07
     -3.992  0.4158E-02  0.4153E-02  0.6023E-04  0.6005E-04  0.6269E-04  0.6254E-04  0.6023E-04  0.6005E-04  0.3237E-06  0.3226E-06  0.3149E-06  0.3135E-06  0.1480E-06  0.1466E-06  0.3149E-06  0.3135E-06  0.1351E-06  0.1339E-06
     -3.946  0.4597E-02  0.4588E-02  0.7837E-04  0.7813E-04  0.7926E-04  0.7902E-04  0.7837E-04  0.7813E-04  0.4483E-06  0.4471E-06  0.4387E-06  0.4369E-06  0.2228E-06  0.2206E-06  0.4387E-06  0.4369E-06  0.2094E-06  0.2076E-06
     -3.901  0.5109E-02  0.5102E-02  0.9671E-04  0.9653E-04  0.1003E-03  0.1000E-03  0.9671E-04  0.9653E-04  0.5872E-06  0.5859E-06  0.5742E-06  0.5721E-06  0.3212E-06  0.3185E-06  0.5742E-06  0.5721E-06  0.2898E-06  0.2878E-06
     -3.855  0.5319E-02  0.5317E-02  0.1089E-03  0.1088E-03  0.1201E-03  0.1199E-03  0.1089E-03  0.1088E-03  0.7517E-06  0.7496E-06  0.7209E-06  0.7181E-06  0.4110E-06  0.4082E-06  0.7209E-06  0.7181E-06  0.3391E-06  0.3373E-06
     -3.810  0.5347E-02  0.5344E-02  0.1197E-03  0.1195E-03  0.1371E-03  0.1369E-03  0.1197E-03  0.1195E-03  0.9855E-06  0.9821E-06  0.9310E-06  0.9267E-06  0.4693E-06  0.4667E-06  0.9310E-06  0.9267E-06  0.3647E-06  0.3626E-06
     -3.764  0.5480E-02  0.5476E-02  0.1361E-03  0.1359E-03  0.1537E-03  0.1535E-03  0.1361E-03  0.1359E-03  0.1267E-05  0.1263E-05  0.1222E-05  0.1216E-05  0.5175E-06  0.5143E-06  0.1222E-05  0.1216E-05  0.4206E-06  0.4174E-06
     -3.719  0.5639E-02  0.5636E-02  0.1544E-03  0.1542E-03  0.1697E-03  0.1695E-03  0.1544E-03  0.1542E-03  0.1483E-05  0.1480E-05  0.1509E-05  0.1503E-05  0.5880E-06  0.5840E-06  0.1509E-05  0.1503E-05  0.5343E-06  0.5297E-06
     -3.673  0.5589E-02  0.5588E-02  0.1701E-03  0.1699E-03  0.1779E-03  0.1779E-03  0.1701E-03  0.1699E-03  0.1628E-05  0.1625E-05  0.1684E-05  0.1679E-05  0.7014E-06  0.6959E-06  0.1684E-05  0.1679E-05  0.7060E-06  0.6999E-06
     -3.628  0.5641E-02  0.5636E-02  0.1941E-03  0.1937E-03  0.1889E-03  0.1886E-03  0.1941E-03  0.1937E-03  0.1933E-05  0.1926E-05  0.1866E-05  0.1859E-05  0.9010E-06  0.8930E-06  0.1866E-05  0.1859E-05  0.9327E-06  0.9253E-06
     -3.582  0.6102E-02  0.6092E-02  0.2281E-03  0.2277E-03  0.2250E-03  0.2244E-03  0.2281E-03  0.2277E-03  0.2497E-05  0.2487E-05  0.2264E-05  0.2253E-05  0.1197E-05  0.1186E-05  0.2264E-05  0.2253E-05  0.1141E-05  0.1134E-05
     -3.537  0.6584E-02  0.6576E-02  0.2551E-03  0.2548E-03  0.2777E-03  0.2771E-03  0.2551E-03  0.2548E-03  0.3078E-05  0.3069E-05  0.2823E-05  0.2811E-05  0.1485E-05  0.1474E-05  0.2823E-05  0.2811E-05  0.1254E-05  0.1247E-05
     -3.491  0.6754E-02  0.6751E-02  0.2710E-03  0.2709E-03  0.3179E-03  0.3176E-03  0.2710E-03  0.2709E-03  0.3522E-05  0.3513E-05  0.3409E-05  0.3396E-05  0.1650E-05  0.1639E-05  0.3409E-05  0.3396E-05  0.1320E-05  0.1313E-05
     -3.446  0.6640E-02  0.6640E-02  0.2802E-03  0.2801E-03  0.3372E-03  0.3371E-03  0.2802E-03  0.2801E-03  0.3874E-05  0.3866E-05  0.3947E-05  0.3933E-05  0.1696E-05  0.1686E-05  0.3947E-05  0.3933E-05  0.1371E-05  0.1364E-05
     -3.400  0.6326E-02  0.6328E-02  0.2813E-03  0.2813E-03  0.3474E-03  0.3474E-03  0.2813E-03  0.2813E-03  0.4208E-05  0.4199E-05  0.4410E-05  0.4397E-05  0.1706E-05  0.1696E-05  0.4410E-05  0.4397E-05  0.1366E-05  0.1360E-05
     -3.355  0.5967E-02  0.5968E-02  0.2873E-03  0.2871E-03  0.3454E-03  0.3456E-03  0.2873E-03  0.2871E-03  0.4680E-05  0.4667E-05  0.4739E-05  0.4727E-05  0.1743E-05  0.1732E-05  0.4739E-05  0.4727E-05  0.1430E-05  0.1422E-05
     -3.309  0.5876E-02  0.5871E-02  0.3232E-03  0.3225E-03  0.3358E-03  0.3358E-03  0.3232E-03  0.3225E-03  0.5487E-05  0.5467E-05  0.5036E-05  0.5021E-05  0.1927E-05  0.1913E-05  0.5036E-05  0.5021E-05  0.1808E-05  0.1794E-05
     -3.264  0.6290E-02  0.6280E-02  0.3901E-03  0.3892E-03  0.3615E-03  0.3609E-03  0.3901E-03  0.3892E-03  0.6511E-05  0.6490E-05  0.5747E-05  0.5725E-05  0.2368E-05  0.2351E-05  0.5747E-05  0.5725E-05  0.2484E-05  0.2466E-05
     -3.218  0.6899E-02  0.6890E-02  0.4518E-03  0.4512E-03  0.4417E-03  0.4406E-03  0.4518E-03  0.4512E-03  0.7299E-05  0.7282E-05  0.6979E-05  0.6951E-05  0.2927E-05  0.2908E-05  0.6979E-05  0.6951E-05  0.3101E-05  0.3085E-05
     -3.173  0.7178E-02  0.7175E-02  0.4790E-03  0.4788E-03  0.5372E-03  0.5362E-03  0.4790E-03  0.4788E-03  0.7861E-05  0.7842E-05  0.8207E-05  0.8180E-05  0.3372E-05  0.3353E-05  0.8207E-05  0.8180E-05  0.3348E-05  0.3335E-05
     -3.127  0.7125E-02  0.7124E-02  0.4913E-03  0.4911E-03  0.5994E-03  0.5990E-03  0.4913E-03  0.4911E-03  0.8792E-05  0.8764E-05  0.9090E-05  0.9064E-05  0.3647E-05  0.3628E-05  0.9090E-05  0.9064E-05  0.3364E-05  0.3353E-05
     -3.082  0.6940E-02  0.6940E-02  0.5038E-03  0.5037E-03  0.6255E-03  0.6253E-03  0.5038E-03  0.5037E-03  0.9941E-05  0.9915E-05  0.9817E-05  0.9791E-05  0.3778E-05  0.3759E-05  0.9817E-05  0.9791E-05  0.3343E-05  0.3335E-05
     -3.036  0.6471E-02  0.6476E-02  0.4893E-03  0.4896E-03  0.6394E-03  0.6393E-03  0.4893E-03  0.4896E-03  0.1053E-04  0.1051E-04  0.1027E-04  0.1025E-04  0.3806E-05  0.3788E-05  0.1027E-04  0.1025E-04  0.3113E-05  0.3108E-05
     -2.991  0.5869E-02  0.5872E-02  0.4689E-03  0.4688E-03  0.6494E-03  0.6494E-03  0.4689E-03  0.4688E-03  0.1117E-04  0.1114E-04  0.1057E-04  0.1055E-04  0.3824E-05  0.3806E-05  0.1057E-04  0.1055E-04  0.2814E-05  0.2808E-05
     -2.945  0.5725E-02  0.5719E-02  0.5094E-03  0.5084E-03  0.6729E-03  0.6725E-03  0.5094E-03  0.5084E-03  0.1295E-04  0.1290E-04  0.1179E-04  0.1174E-04  0.3903E-05  0.3884E-05  0.1179E-04  0.1174E-04  0.2988E-05  0.2973E-05
     -2.900  0.6155E-02  0.6145E-02  0.6163E-03  0.6147E-03  0.7506E-03  0.7494E-03  0.6163E-03  0.6147E-03  0.1533E-04  0.1527E-04  0.1450E-04  0.1444E-04  0.4138E-05  0.4117E-05  0.1450E-04  0.1444E-04  0.3759E-05  0.3736E-05
     -2.854  0.6639E-02  0.6632E-02  0.7325E-03  0.7312E-03  0.8697E-03  0.8686E-03  0.7325E-03  0.7312E-03  0.1692E-04  0.1688E-04  0.1759E-04  0.1752E-04  0.4543E-05  0.4521E-05  0.1759E-04  0.1752E-04  0.4761E-05  0.4735E-05
     -2.809  0.6625E-02  0.6625E-02  0.8026E-03  0.8020E-03  0.9482E-03  0.9479E-03  0.8026E-03  0.8020E-03  0.1730E-04  0.1727E-04  0.1941E-04  0.1936E-04  0.4864E-05  0.4844E-05  0.1941E-04  0.1936E-04  0.5480E-05  0.5458E-05
     -2.763  0.6130E-02  0.6135E-02  0.8268E-03  0.8265E-03  0.9475E-03  0.9479E-03  0.8268E-03  0.8265E-03  0.1765E-04  0.1761E-04  0.1981E-04  0.1977E-04  0.4863E-05  0.4847E-05  0.1981E-04  0.1977E-04  0.5661E-05  0.5646E-05
     -2.718  0.5502E-02  0.5507E-02  0.8432E-03  0.8428E-03  0.8993E-03  0.9000E-03  0.8432E-03  0.8428E-03  0.1902E-04  0.1896E-04  0.1959E-04  0.1955E-04  0.4675E-05  0.4660E-05  0.1959E-04  0.1955E-04  0.5516E-05  0.5505E-05
     -2.672  0.4984E-02  0.4987E-02  0.8660E-03  0.8656E-03  0.8433E-03  0.8439E-03  0.8660E-03  0.8656E-03  0.2145E-04  0.2137E-04  0.1958E-04  0.1953E-04  0.4602E-05  0.4583E-05  0.1958E-04  0.1953E-04  0.5213E-05  0.5206E-05