  16  16   1   0
  0.2242830E+02  0.4441374E-09  0.4441374E-09  0.1819205E-08  0.5000000E-15
  1.000000000000000E-004
  CAR 
 unknown system                          
      9.33881186     -4.86402281  301      4.50325046      1.00000000
     -4.864  0.0000E+00  0.0000E+00  0.0000E+00  0.0000E+00
     -4.817  0.0000E+00  0.0000E+00  0.0000E+00  0.0000E+00
     -4.769  0.0000E+00  0.0000E+00  0.0000E+00  0.0000E+00
     -4.722  0.0000E+00  0.0000E+00  0.0000E+00  0.0000E+00
     -4.675  0.0000E+00  0.0000E+00  0.0000E+00  0.0000E+00
     -4.627  0.1170E-04  0.1157E-04  0.5540E-06  0.5477E-06
     -4.580  0.9144E-04  0.9041E-04  0.4883E-05  0.4828E-05
     -4.533  0.3142E-03  0.3107E-03  0.1976E-04  0.1954E-04
     -4.485  0.7862E-03  0.7774E-03  0.5698E-04  0.5634E-04
     -4.438  0.2010E-02  0.1988E-02  0.1521E-03  0.1504E-03
     -4.391  0.5203E-02  0.5145E-02  0.3984E-03  0.3940E-03
     -4.343  0.1300E-01  0.1286E-01  0.1014E-02  0.1003E-02
     -4.296  0.3158E-01  0.3126E-01  0.2509E-02  0.2483E-02
     -4.249  0.7163E-01  0.7097E-01  0.5900E-02  0.5843E-02
     -4.201  0.1433E+00  0.1423E+00  0.1268E-01  0.1258E-01
     -4.154  0.2421E+00  0.2408E+00  0.2415E-01  0.2398E-01
     -4.107  0.3437E+00  0.3425E+00  0.4042E-01  0.4020E-01
     -4.059  0.4371E+00  0.4360E+00  0.6111E-01  0.6084E-01
     -4.012  0.5380E+00  0.5367E+00  0.8658E-01  0.8625E-01
     -3.965  0.6264E+00  0.6257E+00  0.1162E+00  0.1159E+00
     -3.917  0.6598E+00  0.6596E+00  0.1475E+00  0.1471E+00
     -3.870  0.6838E+00  0.6832E+00  0.1798E+00  0.1794E+00
     -3.822  0.7699E+00  0.7686E+00  0.2163E+00  0.2158E+00
     -3.775  0.8711E+00  0.8702E+00  0.2575E+00  0.2570E+00
     -3.728  0.9146E+00  0.9144E+00  0.3008E+00  0.3003E+00
     -3.680  0.9258E+00  0.9256E+00  0.3447E+00  0.3442E+00
     -3.633  0.9625E+00  0.9619E+00  0.3903E+00  0.3897E+00
     -3.586  0.1005E+01  0.1005E+01  0.4379E+00  0.4373E+00
     -3.538  0.1005E+01  0.1005E+01  0.4855E+00  0.4849E+00
     -3.491  0.1027E+01  0.1026E+01  0.5341E+00  0.5335E+00
     -3.444  0.1137E+01  0.1136E+01  0.5880E+00  0.5873E+00
     -3.396  0.1251E+01  0.1250E+01  0.6472E+00  0.6465E+00
     -3.349  0.1302E+01  0.1301E+01  0.7089E+00  0.7081E+00
     -3.302  0.1296E+01  0.1296E+01  0.7702E+00  0.7695E+00
     -3.254  0.1249E+01  0.1250E+01  0.8294E+00  0.8287E+00
     -3.207  0.1192E+01  0.1193E+01  0.8858E+00  0.8852E+00
     -3.160  0.1195E+01  0.1194E+01  0.9424E+00  0.9418E+00
     -3.112  0.1319E+01  0.1317E+01  0.1005E+01  0.1004E+01
     -3.065  0.1494E+01  0.1492E+01  0.1076E+01  0.1075E+01
     -3.018  0.1595E+01  0.1594E+01  0.1151E+01  0.1150E+01
     -2.970  0.1620E+01  0.1620E+01  0.1228E+01  0.1227E+01
     -2.923  0.1617E+01  0.1617E+01  0.1304E+01  0.1304E+01
     -2.876  0.1541E+01  0.1543E+01  0.1377E+01  0.1377E+01
     -2.828  0.1433E+01  0.1434E+01  0.1445E+01  0.1445E+01
     -2.781  0.1452E+01  0.1451E+01  0.1514E+01  0.1513E+01
     -2.734  0.1641E+01  0.1638E+01  0.1592E+01  0.1591E+01
     -2.686  0.1870E+01  0.1868E+01  0.1680E+01  0.1679E+01
     -2.639  0.1970E+01  0.1970E+01  0.1774E+01  0.1773E+01
     -2.592  0.1924E+01  0.1925E+01  0.1865E+01  0.1864E+01
     -2.544  0.1832E+01  0.1833E+01  0.1952E+01  0.1951E+01
     -2.497  0.1761E+01  0.1761E+01  0.2035E+01  0.2034E+01
     -2.450  0.1730E+01  0.1730E+01  0.2117E+01  0.2116E+01
     -2.402  0.1786E+01  0.1785E+01  0.2202E+01  0.2201E+01
     -2.355  0.1907E+01  0.1906E+01  0.2292E+01  0.2291E+01
     -2.308  0.1932E+01  0.1933E+01  0.2383E+01  0.2382E+01
     -2.260  0.1813E+01  0.1815E+01  0.2469E+01  0.2468E+01
     -2.213  0.1627E+01  0.1630E+01  0.2546E+01  0.2546E+01
     -2.165  0.1465E+01  0.1467E+01  0.2616E+01  0.2615E+01
     -2.118  0.1417E+01  0.1417E+01  0.2683E+01  0.2682E+01
     -2.071  0.1547E+01  0.1545E+01  0.2756E+01  0.2755E+01
     -2.023  0.1787E+01  0.1785E+01  0.2841E+01  0.2840E+01
     -1.976  0.1952E+01  0.1951E+01  0.2933E+01  0.2932E+01
     -1.929  0.1938E+01  0.1939E+01  0.3025E+01  0.3024E+01
     -1.881  0.1810E+01  0.1812E+01  0.3111E+01  0.3110E+01
     -1.834  0.1691E+01  0.1691E+01  0.3191E+01  0.3190E+01
     -1.787  0.1654E+01  0.1653E+01  0.3269E+01  0.3268E+01
     -1.739  0.1775E+01  0.1773E+01  0.3353E+01  0.3352E+01
     -1.692  0.1989E+01  0.1987E+01  0.3448E+01  0.3446E+01
     -1.645  0.2102E+01  0.2101E+01  0.3547E+01  0.3546E+01
     -1.597  0.2098E+01  0.2099E+01  0.3647E+01  0.3645E+01
     -1.550  0.2058E+01  0.2058E+01  0.3744E+01  0.3743E+01
     -1.503  0.1998E+01  0.1999E+01  0.3839E+01  0.3838E+01
     -1.455  0.1962E+01  0.1962E+01  0.3932E+01  0.3930E+01
     -1.408  0.2032E+01  0.2031E+01  0.4028E+01  0.4027E+01
     -1.361  0.2221E+01  0.2218E+01  0.4133E+01  0.4132E+01
     -1.313  0.2396E+01  0.2395E+01  0.4247E+01  0.4245E+01
     -1.266  0.2450E+01  0.2450E+01  0.4363E+01  0.4361E+01
     -1.219  0.2450E+01  0.2450E+01  0.4479E+01  0.4477E+01
     -1.171  0.2437E+01  0.2438E+01  0.4594E+01  0.4593E+01
     -1.124  0.2375E+01  0.2376E+01  0.4707E+01  0.4705E+01
     -1.077  0.2313E+01  0.2314E+01  0.4816E+01  0.4815E+01
     -1.029  0.2257E+01  0.2258E+01  0.4923E+01  0.4922E+01
     -0.982  0.2202E+01  0.2202E+01  0.5027E+01  0.5026E+01
     -0.935  0.2199E+01  0.2198E+01  0.5131E+01  0.5130E+01
     -0.887  0.2246E+01  0.2245E+01  0.5238E+01  0.5237E+01
     -0.840  0.2286E+01  0.2286E+01  0.5346E+01  0.5345E+01
     -0.793  0.2295E+01  0.2295E+01  0.5455E+01  0.5454E+01
     -0.745  0.2350E+01  0.2349E+01  0.5566E+01  0.5565E+01
     -0.698  0.2439E+01  0.2438E+01  0.5682E+01  0.5680E+01
     -0.651  0.2480E+01  0.2480E+01  0.5799E+01  0.5798E+01
     -0.603  0.2455E+01  0.2456E+01  0.5915E+01  0.5914E+01
     -0.556  0.2395E+01  0.2396E+01  0.6029E+01  0.6028E+01
     -0.508  0.2290E+01  0.2291E+01  0.6137E+01  0.6136E+01
     -0.461  0.2129E+01  0.2130E+01  0.6238E+01  0.6237E+01
     -0.414  0.2012E+01  0.2012E+01  0.6334E+01  0.6332E+01
     -0.366  0.2073E+01  0.2071E+01  0.6432E+01  0.6430E+01
     -0.319  0.2332E+01  0.2328E+01  0.6542E+01  0.6541E+01
     -0.272  0.2622E+01  0.2619E+01  0.6666E+01  0.6665E+01
     -0.224  0.2792E+01  0.2791E+01  0.6799E+01  0.6797E+01
     -0.177  0.2822E+01  0.2823E+01  0.6932E+01  0.6931E+01
     -0.130  0.2784E+01  0.2785E+01  0.7064E+01  0.7063E+01
     -0.082  0.2749E+01  0.2749E+01  0.7194E+01  0.7193E+01
     -0.035  0.2702E+01  0.2703E+01  0.7322E+01  0.7321E+01
      0.012  0.2653E+01  0.2654E+01  0.7448E+01  0.7447E+01
      0.060  0.2651E+01  0.2651E+01  0.7574E+01  0.7572E+01
      0.107  0.2692E+01  0.2691E+01  0.7701E+01  0.7700E+01
      0.154  0.2809E+01  0.2807E+01  0.7834E+01  0.7833E+01
      0.202  0.2946E+01  0.2945E+01  0.7974E+01  0.7972E+01
      0.249  0.2953E+01  0.2954E+01  0.8114E+01  0.8112E+01
      0.296  0.2859E+01  0.2860E+01  0.8249E+01  0.8247E+01
      0.344  0.2791E+01  0.2792E+01  0.8381E+01  0.8380E+01
      0.391  0.2791E+01  0.2790E+01  0.8513E+01  0.8512E+01
      0.438  0.2800E+01  0.2800E+01  0.8646E+01  0.8644E+01
      0.486  0.2778E+01  0.2779E+01  0.8778E+01  0.8776E+01
      0.533  0.2730E+01  0.2731E+01  0.8907E+01  0.8905E+01
      0.580  0.2622E+01  0.2624E+01  0.9031E+01  0.9030E+01
      0.628  0.2477E+01  0.2479E+01  0.9149E+01  0.9147E+01
      0.675  0.2429E+01  0.2428E+01  0.9264E+01  0.9262E+01
      0.722  0.2530E+01  0.2528E+01  0.9383E+01  0.9382E+01
      0.770  0.2646E+01  0.2645E+01  0.9509E+01  0.9507E+01
      0.817  0.2631E+01  0.2632E+01  0.9633E+01  0.9632E+01
      0.864  0.2479E+01  0.2481E+01  0.9751E+01  0.9749E+01
      0.912  0.2342E+01  0.2343E+01  0.9862E+01  0.9860E+01
      0.959  0.2354E+01  0.2353E+01  0.9973E+01  0.9972E+01
      1.006  0.2465E+01  0.2463E+01  0.1009E+02  0.1009E+02
      1.054  0.2619E+01  0.2616E+01  0.1021E+02  0.1021E+02
      1.101  0.2778E+01  0.2776E+01  0.1035E+02  0.1034E+02
      1.149  0.2840E+01  0.2840E+01  0.1048E+02  0.1048E+02
      1.196  0.2811E+01  0.2811E+01  0.1061E+02  0.1061E+02
      1.243  0.2768E+01  0.2769E+01  0.1074E+02  0.1074E+02
      1.291  0.2746E+01  0.2746E+01  0.1087E+02  0.1087E+02
      1.338  0.2795E+01  0.2795E+01  0.1101E+02  0.1101E+02
      1.385  0.2898E+01  0.2897E+01  0.1114E+02  0.1114E+02
      1.433  0.2959E+01  0.2959E+01  0.1128E+02  0.1128E+02
      1.480  0.2955E+01  0.2955E+01  0.1142E+02  0.1142E+02
      1.527  0.2951E+01  0.2951E+01  0.1156E+02  0.1156E+02
      1.575  0.2966E+01  0.2966E+01  0.1170E+02  0.1170E+02
      1.622  0.2969E+01  0.2969E+01  0.1185E+02  0.1184E+02
      1.669  0.2975E+01  0.2975E+01  0.1199E+02  0.1198E+02
      1.717  0.3021E+01  0.3020E+01  0.1213E+02  0.1213E+02
      1.764  0.3127E+01  0.3125E+01  0.1228E+02  0.1228E+02
      1.811  0.3271E+01  0.3269E+01  0.1243E+02  0.1243E+02
      1.859  0.3476E+01  0.3473E+01  0.1260E+02  0.1259E+02
      1.906  0.3688E+01  0.3686E+01  0.1277E+02  0.1277E+02
      1.953  0.3659E+01  0.3661E+01  0.1294E+02  0.1294E+02
      2.001  0.3390E+01  0.3394E+01  0.1311E+02  0.1310E+02
      2.048  0.3149E+01  0.3152E+01  0.1325E+02  0.1325E+02
      2.095  0.3039E+01  0.3040E+01  0.1340E+02  0.1340E+02
      2.143  0.3050E+01  0.3050E+01  0.1354E+02  0.1354E+02
      2.190  0.3149E+01  0.3148E+01  0.1369E+02  0.1369E+02
      2.237  0.3247E+01  0.3246E+01  0.1385E+02  0.1384E+02
      2.285  0.3404E+01  0.3400E+01  0.1401E+02  0.1401E+02
      2.332  0.3680E+01  0.3676E+01  0.1418E+02  0.1418E+02
      2.379  0.3785E+01  0.3786E+01  0.1436E+02  0.1436E+02
      2.427  0.3541E+01  0.3546E+01  0.1453E+02  0.1453E+02
      2.474  0.3237E+01  0.3240E+01  0.1468E+02  0.1468E+02
      2.521  0.3144E+01  0.3143E+01  0.1483E+02  0.1483E+02
      2.569  0.3206E+01  0.3205E+01  0.1498E+02  0.1498E+02
      2.616  0.3309E+01  0.3308E+01  0.1514E+02  0.1514E+02
      2.663  0.3480E+01  0.3477E+01  0.1530E+02  0.1530E+02
      2.711  0.3704E+01  0.3702E+01  0.1548E+02  0.1548E+02
      2.758  0.3830E+01  0.3829E+01  0.1566E+02  0.1566E+02
      2.806  0.3763E+01  0.3764E+01  0.1584E+02  0.1584E+02
      2.853  0.3608E+01  0.3610E+01  0.1601E+02  0.1601E+02
      2.900  0.3481E+01  0.3482E+01  0.1618E+02  0.1617E+02
      2.948  0.3434E+01  0.3435E+01  0.1634E+02  0.1634E+02
      2.995  0.3410E+01  0.3411E+01  0.1650E+02  0.1650E+02
      3.042  0.3397E+01  0.3397E+01  0.1666E+02  0.1666E+02
      3.090  0.3431E+01  0.3430E+01  0.1682E+02  0.1682E+02
      3.137  0.3507E+01  0.3505E+01  0.1699E+02  0.1699E+02
      3.184  0.3647E+01  0.3644E+01  0.1716E+02  0.1716E+02
      3.232  0.3796E+01  0.3793E+01  0.1734E+02  0.1734E+02
      3.279  0.3818E+01  0.3819E+01  0.1752E+02  0.1752E+02
      3.326  0.3638E+01  0.3641E+01  0.1769E+02  0.1769E+02
      3.374  0.3434E+01  0.3435E+01  0.1786E+02  0.1786E+02
      3.421  0.3458E+01  0.3456E+01  0.1802E+02  0.1802E+02
      3.468  0.3743E+01  0.3739E+01  0.1820E+02  0.1820E+02
      3.516  0.4076E+01  0.4072E+01  0.1839E+02  0.1839E+02
      3.563  0.4202E+01  0.4202E+01  0.1859E+02  0.1859E+02
      3.610  0.4006E+01  0.4011E+01  0.1878E+02  0.1878E+02
      3.658  0.3588E+01  0.3594E+01  0.1895E+02  0.1895E+02
      3.705  0.3179E+01  0.3183E+01  0.1910E+02  0.1910E+02
      3.752  0.3002E+01  0.3003E+01  0.1924E+02  0.1924E+02
      3.800  0.3070E+01  0.3069E+01  0.1939E+02  0.1939E+02
      3.847  0.3217E+01  0.3215E+01  0.1954E+02  0.1954E+02
      3.894  0.3310E+01  0.3309E+01  0.1970E+02  0.1970E+02
      3.942  0.3391E+01  0.3389E+01  0.1986E+02  0.1986E+02
      3.989  0.3580E+01  0.3577E+01  0.2003E+02  0.2003E+02
      4.036  0.3867E+01  0.3863E+01  0.2021E+02  0.2021E+02
      4.084  0.4121E+01  0.4119E+01  0.2041E+02  0.2040E+02
      4.131  0.4225E+01  0.4225E+01  0.2061E+02  0.2060E+02
      4.178  0.4123E+01  0.4125E+01  0.2080E+02  0.2080E+02
      4.226  0.3886E+01  0.3889E+01  0.2099E+02  0.2098E+02
      4.273  0.3785E+01  0.3785E+01  0.2117E+02  0.2116E+02
      4.320  0.3915E+01  0.3913E+01  0.2135E+02  0.2135E+02
      4.368  0.3957E+01  0.3958E+01  0.2154E+02  0.2154E+02
      4.415  0.3704E+01  0.3709E+01  0.2171E+02  0.2171E+02
      4.463  0.3341E+01  0.3345E+01  0.2187E+02  0.2187E+02
      4.510  0.3168E+01  0.3169E+01  0.2202E+02  0.2202E+02
      4.557  0.3233E+01  0.3231E+01  0.2218E+02  0.2217E+02
      4.605  0.3357E+01  0.3355E+01  0.2233E+02  0.2233E+02
      4.652  0.3492E+01  0.3491E+01  0.2250E+02  0.2250E+02
      4.699  0.3702E+01  0.3700E+01  0.2267E+02  0.2267E+02
      4.747  0.3951E+01  0.3949E+01  0.2286E+02  0.2286E+02
      4.794  0.4143E+01  0.4141E+01  0.2306E+02  0.2306E+02
      4.841  0.4164E+01  0.4164E+01  0.2326E+02  0.2325E+02
      4.889  0.4102E+01  0.4102E+01  0.2345E+02  0.2345E+02
      4.936  0.4089E+01  0.4089E+01  0.2364E+02  0.2364E+02
      4.983  0.3998E+01  0.4001E+01  0.2383E+02  0.2383E+02
      5.031  0.3808E+01  0.3811E+01  0.2401E+02  0.2401E+02
      5.078  0.3749E+01  0.3749E+01  0.2419E+02  0.2419E+02
      5.125  0.3871E+01  0.3869E+01  0.2437E+02  0.2437E+02
      5.173  0.3984E+01  0.3982E+01  0.2456E+02  0.2456E+02
      5.220  0.4062E+01  0.4060E+01  0.2476E+02  0.2475E+02
      5.267  0.4153E+01  0.4152E+01  0.2495E+02  0.2495E+02
      5.315  0.4169E+01  0.4170E+01  0.2515E+02  0.2515E+02
      5.362  0.4101E+01  0.4102E+01  0.2534E+02  0.2534E+02
      5.409  0.4082E+01  0.4082E+01  0.2554E+02  0.2553E+02
      5.457  0.4173E+01  0.4171E+01  0.2573E+02  0.2573E+02
      5.504  0.4240E+01  0.4240E+01  0.2594E+02  0.2593E+02
      5.551  0.4142E+01  0.4144E+01  0.2613E+02  0.2613E+02
      5.599  0.3962E+01  0.3964E+01  0.2632E+02  0.2632E+02
      5.646  0.3837E+01  0.3838E+01  0.2650E+02  0.2650E+02
      5.693  0.3759E+01  0.3759E+01  0.2668E+02  0.2668E+02
      5.741  0.3726E+01  0.3726E+01  0.2686E+02  0.2685E+02
      5.788  0.3777E+01  0.3775E+01  0.2703E+02  0.2703E+02
      5.835  0.3932E+01  0.3929E+01  0.2722E+02  0.2722E+02
      5.883  0.4162E+01  0.4159E+01  0.2742E+02  0.2742E+02
      5.930  0.4284E+01  0.4284E+01  0.2762E+02  0.2762E+02
      5.977  0.4231E+01  0.4232E+01  0.2782E+02  0.2782E+02
      6.025  0.4237E+01  0.4236E+01  0.2802E+02  0.2802E+02
      6.072  0.4419E+01  0.4416E+01  0.2823E+02  0.2823E+02
      6.120  0.4590E+01  0.4588E+01  0.2845E+02  0.2845E+02
      6.167  0.4555E+01  0.4557E+01  0.2866E+02  0.2866E+02
      6.214  0.4349E+01  0.4353E+01  0.2887E+02  0.2887E+02
      6.262  0.4139E+01  0.4142E+01  0.2907E+02  0.2906E+02
      6.309  0.4079E+01  0.4079E+01  0.2926E+02  0.2926E+02
      6.356  0.4266E+01  0.4263E+01  0.2946E+02  0.2946E+02
      6.404  0.4513E+01  0.4510E+01  0.2968E+02  0.2967E+02
      6.451  0.4524E+01  0.4525E+01  0.2989E+02  0.2989E+02
      6.498  0.4344E+01  0.4346E+01  0.3010E+02  0.3009E+02
      6.546  0.4144E+01  0.4145E+01  0.3029E+02  0.3029E+02
      6.593  0.4023E+01  0.4024E+01  0.3048E+02  0.3048E+02
      6.640  0.4131E+01  0.4128E+01  0.3068E+02  0.3068E+02
      6.688  0.4404E+01  0.4401E+01  0.3089E+02  0.3088E+02
      6.735  0.4627E+01  0.4625E+01  0.3111E+02  0.3110E+02
      6.782  0.4701E+01  0.4701E+01  0.3133E+02  0.3133E+02
      6.830  0.4541E+01  0.4543E+01  0.3154E+02  0.3154E+02
      6.877  0.4194E+01  0.4195E+01  0.3174E+02  0.3174E+02
      6.924  0.3887E+01  0.3881E+01  0.3193E+02  0.3192E+02
      6.972  0.3870E+01  0.3859E+01  0.3211E+02  0.3211E+02
      7.019  0.4071E+01  0.4065E+01  0.3230E+02  0.3230E+02
      7.066  0.4185E+01  0.4192E+01  0.3250E+02  0.3250E+02
      7.114  0.4168E+01  0.4181E+01  0.3270E+02  0.3270E+02
      7.161  0.4230E+01  0.4244E+01  0.3290E+02  0.3290E+02
      7.208  0.4535E+01  0.4552E+01  0.3311E+02  0.3311E+02
      7.256  0.4864E+01  0.4883E+01  0.3334E+02  0.3334E+02
      7.303  0.4895E+01  0.4906E+01  0.3358E+02  0.3358E+02
      7.350  0.4705E+01  0.4704E+01  0.3380E+02  0.3380E+02
      7.398  0.4436E+01  0.4435E+01  0.3401E+02  0.3401E+02
      7.445  0.4097E+01  0.4100E+01  0.3420E+02  0.3420E+02
      7.492  0.3729E+01  0.3719E+01  0.3438E+02  0.3438E+02
      7.540  0.3356E+01  0.3314E+01  0.3454E+02  0.3454E+02
      7.587  0.3024E+01  0.2987E+01  0.3468E+02  0.3468E+02
      7.634  0.2843E+01  0.2862E+01  0.3482E+02  0.3481E+02
      7.682  0.2781E+01  0.2832E+01  0.3495E+02  0.3495E+02
      7.729  0.2671E+01  0.2687E+01  0.3507E+02  0.3508E+02
      7.777  0.2429E+01  0.2385E+01  0.3519E+02  0.3519E+02
      7.824  0.2065E+01  0.1992E+01  0.3529E+02  0.3528E+02
      7.871  0.1639E+01  0.1595E+01  0.3537E+02  0.3536E+02
      7.919  0.1283E+01  0.1296E+01  0.3543E+02  0.3542E+02
      7.966  0.1091E+01  0.1137E+01  0.3548E+02  0.3547E+02
      8.013  0.1010E+01  0.1048E+01  0.3553E+02  0.3552E+02
      8.061  0.9456E+00  0.9569E+00  0.3557E+02  0.3557E+02
      8.108  0.9200E+00  0.9033E+00  0.3561E+02  0.3561E+02
      8.155  0.9610E+00  0.9203E+00  0.3566E+02  0.3566E+02
      8.203  0.9741E+00  0.9268E+00  0.3571E+02  0.3570E+02
      8.250  0.8681E+00  0.8466E+00  0.3575E+02  0.3574E+02
      8.297  0.6733E+00  0.7010E+00  0.3578E+02  0.3577E+02
      8.345  0.5016E+00  0.5520E+00  0.3580E+02  0.3580E+02
      8.392  0.4403E+00  0.4685E+00  0.3582E+02  0.3582E+02
      8.439  0.4818E+00  0.4726E+00  0.3585E+02  0.3584E+02
      8.487  0.5520E+00  0.5116E+00  0.3587E+02  0.3587E+02
      8.534  0.5721E+00  0.5251E+00  0.3590E+02  0.3589E+02
      8.581  0.5321E+00  0.5213E+00  0.3593E+02  0.3592E+02
      8.629  0.4752E+00  0.5166E+00  0.3595E+02  0.3594E+02
      8.676  0.4179E+00  0.4747E+00  0.3597E+02  0.3596E+02
      8.723  0.3227E+00  0.3632E+00  0.3598E+02  0.3598E+02
      8.771  0.1961E+00  0.2177E+00  0.3599E+02  0.3599E+02
      8.818  0.9626E-01  0.1062E+00  0.3600E+02  0.3600E+02
      8.865  0.4131E-01  0.4545E-01  0.3600E+02  0.3600E+02
      8.913  0.1642E-01  0.1804E-01  0.3600E+02  0.3600E+02
      8.960  0.6207E-02  0.7122E-02  0.3600E+02  0.3600E+02
      9.007  0.2310E-02  0.2551E-02  0.3600E+02  0.3600E+02
      9.055  0.8989E-03  0.9205E-03  0.3600E+02  0.3600E+02
      9.102  0.0000E+00  0.0000E+00  0.3600E+02  0.3600E+02
      9.149  0.0000E+00  0.0000E+00  0.3600E+02  0.3600E+02
      9.197  0.0000E+00  0.0000E+00  0.3600E+02  0.3600E+02
      9.244  0.0000E+00  0.0000E+00  0.3600E+02  0.3600E+02
      9.291  0.0000E+00  0.0000E+00  0.3600E+02  0.3600E+02
      9.339  0.0000E+00  0.0000E+00  0.3600E+02  0.3600E+02
      9.33881186     -4.86402281  301      4.50325046      1.00000000
     -4.864  0.0000E+00  0.0000E+00  0.0000E+00  0.0000E+00  0.0000E+00  0.0000E+00  0.0000E+00  0.0000E+00  0.0000E+00  0.0000E+00  0.0000E+00  0.0000E+00  0.0000E+00  0.0000E+00  0.0000E+00  0.0000E+00  0.0000E+00  0.0000E+00
     -4.817  0.0000E+00  0.0000E+00  0.0000E+00  0.0000E+00  0.0000E+00  0.0000E+00  0.0000E+00  0.0000E+00  0.0000E+00  0.0000E+00  0.0000E+00  0.0000E+00  0.0000E+00  0.0000E+00  0.0000E+00  0.0000E+00  0.0000E+00  0.0000E+00
     -4.769  0.0000E+00  0.0000E+00  0.0000E+00  0.0000E+00  0.0000E+00  0.0000E+00  0.0000E+00  0.0000E+00  0.0000E+00  0.0000E+00  0.0000E+00  0.0000E+00  0.0000E+00  0.0000E+00  0.0000E+00  0.0000E+00  0.0000E+00  0.0000E+00
     -4.722  0.0000E+00  0.0000E+00  0.0000E+00  0.0000E+00  0.0000E+00  0.0000E+00  0.0000E+00  0.0000E+00  0.0000E+00  0.0000E+00  0.0000E+00  0.0000E+00  0.0000E+00  0.0000E+00  0.0000E+00  0.0000E+00  0.0000E+00  0.0000E+00
     -4.675  0.0000E+00  0.0000E+00  0.0000E+00  0.0000E+00  0.0000E+00  0.0000E+00  0.0000E+00  0.0000E+00  0.0000E+00  0.0000E+00  0.0000E+00  0.0000E+00  0.0000E+00  0.0000E+00  0.0000E+00  0.0000E+00  0.0000E+00  0.0000E+00
     -4.627  0.7759E-07  0.7669E-07  0.1109E-20  0.2558E-20  0.8914E-13  0.7796E-13  0.1109E-20  0.2558E-20  0.2213E-22  0.3982E-22  0.3445E-22  0.2471E-20  0.9836E-13  0.9688E-13  0.3445E-22  0.2471E-20  0.6641E-21  0.3132E-20
     -4.580  0.6017E-06  0.5948E-06  0.8951E-09  0.8853E-09  0.9549E-09  0.9447E-09  0.8951E-09  0.8853E-09  0.1701E-21  0.1217E-20  0.1893E-13  0.2110E-13  0.1552E-11  0.1525E-11  0.1893E-13  0.2110E-13  0.6417E-12  0.6243E-12
     -4.533  0.2057E-05  0.2033E-05  0.5053E-08  0.4998E-08  0.5590E-08  0.5529E-08  0.5053E-08  0.4998E-08  0.5942E-11  0.5852E-11  0.5934E-11  0.5888E-11  0.5524E-11  0.5424E-11  0.5934E-11  0.5888E-11  0.2244E-11  0.2195E-11
     -4.485  0.5139E-05  0.5080E-05  0.1480E-07  0.1464E-07  0.1468E-07  0.1452E-07  0.1480E-07  0.1464E-07  0.2096E-10  0.2064E-10  0.2203E-10  0.2184E-10  0.1525E-10  0.1497E-10  0.2203E-10  0.2184E-10  0.9471E-11  0.9321E-11
     -4.438  0.1313E-04  0.1298E-04  0.4062E-07  0.4017E-07  0.3891E-07  0.3848E-07  0.4062E-07  0.4017E-07  0.6547E-10  0.6463E-10  0.5555E-10  0.5507E-10  0.5274E-10  0.5187E-10  0.5555E-10  0.5507E-10  0.3486E-10  0.3433E-10
     -4.391  0.3395E-04  0.3356E-04  0.1068E-06  0.1056E-06  0.1137E-06  0.1125E-06  0.1068E-06  0.1056E-06  0.1903E-09  0.1880E-09  0.1838E-09  0.1821E-09  0.1441E-09  0.1418E-09  0.1838E-09  0.1821E-09  0.8671E-10  0.8541E-10
     -4.343  0.8481E-04  0.8386E-04  0.2649E-06  0.2621E-06  0.2869E-06  0.2838E-06  0.2649E-06  0.2621E-06  0.4537E-09  0.4480E-09  0.4661E-09  0.4618E-09  0.3546E-09  0.3489E-09  0.4661E-09  0.4618E-09  0.2092E-09  0.2060E-09
     -4.296  0.2060E-03  0.2038E-03  0.6677E-06  0.6607E-06  0.7107E-06  0.7033E-06  0.6677E-06  0.6607E-06  0.1200E-08  0.1185E-08  0.1181E-08  0.1170E-08  0.8855E-09  0.8716E-09  0.1181E-08  0.1170E-08  0.5366E-09  0.5287E-09
     -4.249  0.4666E-03  0.4622E-03  0.1624E-05  0.1608E-05  0.1727E-05  0.1710E-05  0.1624E-05  0.1608E-05  0.3089E-08  0.3052E-08  0.3049E-08  0.3022E-08  0.2140E-08  0.2108E-08  0.3049E-08  0.3022E-08  0.1358E-08  0.1339E-08
     -4.201  0.9316E-03  0.9245E-03  0.3630E-05  0.3598E-05  0.3860E-05  0.3826E-05  0.3630E-05  0.3598E-05  0.7304E-08  0.7224E-08  0.7191E-08  0.7131E-08  0.4850E-08  0.4783E-08  0.7191E-08  0.7131E-08  0.3278E-08  0.3237E-08
     -4.154  0.1568E-02  0.1559E-02  0.7232E-05  0.7180E-05  0.7685E-05  0.7631E-05  0.7232E-05  0.7180E-05  0.1622E-07  0.1606E-07  0.1598E-07  0.1586E-07  0.1012E-07  0.9997E-08  0.1598E-07  0.1586E-07  0.7287E-08  0.7208E-08
     -4.107  0.2213E-02  0.2205E-02  0.1273E-04  0.1265E-04  0.1339E-04  0.1331E-04  0.1273E-04  0.1265E-04  0.3250E-07  0.3225E-07  0.3193E-07  0.3171E-07  0.1979E-07  0.1957E-07  0.3193E-07  0.3171E-07  0.1519E-07  0.1505E-07
     -4.059  0.2792E-02  0.2784E-02  0.2052E-04  0.2042E-04  0.2141E-04  0.2130E-04  0.2052E-04  0.2042E-04  0.6060E-07  0.6022E-07  0.5870E-07  0.5833E-07  0.3684E-07  0.3647E-07  0.5870E-07  0.5833E-07  0.2940E-07  0.2918E-07
     -4.012  0.3406E-02  0.3397E-02  0.3077E-04  0.3064E-04  0.3283E-04  0.3269E-04  0.3077E-04  0.3064E-04  0.1063E-06  0.1058E-06  0.1035E-06  0.1029E-06  0.6161E-07  0.6113E-07  0.1035E-06  0.1029E-06  0.4932E-07  0.4903E-07
     -3.965  0.3933E-02  0.3928E-02  0.4131E-04  0.4120E-04  0.4554E-04  0.4542E-04  0.4131E-04  0.4120E-04  0.1679E-06  0.1673E-06  0.1658E-06  0.1650E-06  0.8760E-07  0.8707E-07  0.1658E-06  0.1650E-06  0.7045E-07  0.7012E-07
     -3.917  0.4105E-02  0.4103E-02  0.5040E-04  0.5029E-04  0.5528E-04  0.5519E-04  0.5040E-04  0.5029E-04  0.2421E-06  0.2414E-06  0.2381E-06  0.2371E-06  0.1141E-06  0.1134E-06  0.2381E-06  0.2371E-06  0.9617E-07  0.9560E-07
     -3.870  0.4202E-02  0.4197E-02  0.6273E-04  0.6255E-04  0.6527E-04  0.6513E-04  0.6273E-04  0.6255E-04  0.3428E-06  0.3417E-06  0.3339E-06  0.3325E-06  0.1592E-06  0.1579E-06  0.3339E-06  0.3325E-06  0.1455E-06  0.1444E-06
     -3.822  0.4671E-02  0.4662E-02  0.8245E-04  0.8220E-04  0.8287E-04  0.8264E-04  0.8245E-04  0.8220E-04  0.4776E-06  0.4762E-06  0.4686E-06  0.4668E-06  0.2427E-06  0.2405E-06  0.4686E-06  0.4668E-06  0.2304E-06  0.2286E-06
     -3.775  0.5228E-02  0.5221E-02  0.1024E-03  0.1022E-03  0.1057E-03  0.1054E-03  0.1024E-03  0.1022E-03  0.6252E-06  0.6237E-06  0.6139E-06  0.6119E-06  0.3552E-06  0.3523E-06  0.6139E-06  0.6119E-06  0.3230E-06  0.3210E-06
     -3.728  0.5431E-02  0.5429E-02  0.1147E-03  0.1146E-03  0.1267E-03  0.1265E-03  0.1147E-03  0.1146E-03  0.7973E-06  0.7950E-06  0.7662E-06  0.7635E-06  0.4558E-06  0.4530E-06  0.7662E-06  0.7635E-06  0.3763E-06  0.3746E-06
     -3.680  0.5432E-02  0.5429E-02  0.1253E-03  0.1251E-03  0.1444E-03  0.1442E-03  0.1253E-03  0.1251E-03  0.1051E-05  0.1047E-05  0.9905E-06  0.9863E-06  0.5175E-06  0.5149E-06  0.9905E-06  0.9863E-06  0.3987E-06  0.3967E-06
     -3.633  0.5575E-02  0.5571E-02  0.1430E-03  0.1427E-03  0.1620E-03  0.1618E-03  0.1430E-03  0.1427E-03  0.1364E-05  0.1360E-05  0.1314E-05  0.1308E-05  0.5671E-06  0.5642E-06  0.1314E-05  0.1308E-05  0.4573E-06  0.4540E-06
     -3.586  0.5753E-02  0.5750E-02  0.1625E-03  0.1623E-03  0.1792E-03  0.1791E-03  0.1625E-03  0.1623E-03  0.1593E-05  0.1591E-05  0.1631E-05  0.1626E-05  0.6413E-06  0.6378E-06  0.1631E-05  0.1626E-05  0.5829E-06  0.5783E-06
     -3.538  0.5671E-02  0.5671E-02  0.1780E-03  0.1778E-03  0.1866E-03  0.1866E-03  0.1780E-03  0.1778E-03  0.1723E-05  0.1721E-05  0.1805E-05  0.1801E-05  0.7617E-06  0.7569E-06  0.1805E-05  0.1801E-05  0.7739E-06  0.7677E-06
     -3.491  0.5701E-02  0.5695E-02  0.2032E-03  0.2028E-03  0.1959E-03  0.1957E-03  0.2032E-03  0.2028E-03  0.2044E-05  0.2037E-05  0.1979E-05  0.1973E-05  0.9825E-06  0.9750E-06  0.1979E-05  0.1973E-05  0.1033E-05  0.1026E-05
     -3.444  0.6208E-02  0.6198E-02  0.2407E-03  0.2403E-03  0.2349E-03  0.2343E-03  0.2407E-03  0.2403E-03  0.2674E-05  0.2664E-05  0.2412E-05  0.2402E-05  0.1321E-05  0.1311E-05  0.2412E-05  0.2402E-05  0.1273E-05  0.1265E-05
     -3.396  0.6733E-02  0.6727E-02  0.2695E-03  0.2693E-03  0.2934E-03  0.2928E-03  0.2695E-03  0.2693E-03  0.3312E-05  0.3303E-05  0.3029E-05  0.3016E-05  0.1653E-05  0.1642E-05  0.3029E-05  0.3016E-05  0.1393E-05  0.1387E-05
     -3.349  0.6910E-02  0.6907E-02  0.2859E-03  0.2857E-03  0.3369E-03  0.3366E-03  0.2859E-03  0.2857E-03  0.3784E-05  0.3777E-05  0.3668E-05  0.3655E-05  0.1835E-05  0.1825E-05  0.3668E-05  0.3655E-05  0.1462E-05  0.1455E-05
     -3.302  0.6784E-02  0.6784E-02  0.2954E-03  0.2954E-03  0.3563E-03  0.3562E-03  0.2954E-03  0.2954E-03  0.4151E-05  0.4144E-05  0.4252E-05  0.4239E-05  0.1876E-05  0.1866E-05  0.4252E-05  0.4239E-05  0.1520E-05  0.1514E-05
     -3.254  0.6443E-02  0.6445E-02  0.2949E-03  0.2949E-03  0.3668E-03  0.3668E-03  0.2949E-03  0.2949E-03  0.4488E-05  0.4481E-05  0.4751E-05  0.4739E-05  0.1876E-05  0.1867E-05  0.4751E-05  0.4739E-05  0.1498E-05  0.1493E-05
     -3.207  0.6042E-02  0.6043E-02  0.2985E-03  0.2983E-03  0.3636E-03  0.3638E-03  0.2985E-03  0.2983E-03  0.4971E-05  0.4959E-05  0.5088E-05  0.5077E-05  0.1902E-05  0.1893E-05  0.5088E-05  0.5077E-05  0.1543E-05  0.1535E-05
     -3.160  0.5925E-02  0.5921E-02  0.3362E-03  0.3354E-03  0.3485E-03  0.3486E-03  0.3362E-03  0.3354E-03  0.5850E-05  0.5831E-05  0.5357E-05  0.5344E-05  0.2094E-05  0.2082E-05  0.5357E-05  0.5344E-05  0.1965E-05  0.1950E-05
     -3.112  0.6384E-02  0.6373E-02  0.4104E-03  0.4094E-03  0.3733E-03  0.3727E-03  0.4104E-03  0.4094E-03  0.6999E-05  0.6979E-05  0.6113E-05  0.6091E-05  0.2599E-05  0.2582E-05  0.6113E-05  0.6091E-05  0.2755E-05  0.2736E-05
     -3.065  0.7059E-02  0.7050E-02  0.4784E-03  0.4778E-03  0.4614E-03  0.4602E-03  0.4784E-03  0.4778E-03  0.7836E-05  0.7820E-05  0.7494E-05  0.7466E-05  0.3243E-05  0.3225E-05  0.7494E-05  0.7466E-05  0.3477E-05  0.3460E-05
     -3.018  0.7351E-02  0.7348E-02  0.5053E-03  0.5052E-03  0.5669E-03  0.5660E-03  0.5053E-03  0.5052E-03  0.8373E-05  0.8356E-05  0.8852E-05  0.8826E-05  0.3747E-05  0.3729E-05  0.8852E-05  0.8826E-05  0.3741E-05  0.3729E-05
     -2.970  0.7285E-02  0.7283E-02  0.5168E-03  0.5166E-03  0.6335E-03  0.6331E-03  0.5168E-03  0.5166E-03  0.9386E-05  0.9359E-05  0.9784E-05  0.9760E-05  0.4056E-05  0.4038E-05  0.9784E-05  0.9760E-05  0.3739E-05  0.3728E-05
     -2.923  0.7109E-02  0.7109E-02  0.5320E-03  0.5319E-03  0.6589E-03  0.6588E-03  0.5320E-03  0.5319E-03  0.1069E-04  0.1066E-04  0.1056E-04  0.1054E-04  0.4201E-05  0.4184E-05  0.1056E-04  0.1054E-04  0.3728E-05  0.3720E-05
     -2.876  0.6611E-02  0.6616E-02  0.5140E-03  0.5143E-03  0.6715E-03  0.6715E-03  0.5140E-03  0.5143E-03  0.1126E-04  0.1124E-04  0.1102E-04  0.1101E-04  0.4222E-05  0.4206E-05  0.1102E-04  0.1101E-04  0.3452E-05  0.3449E-05
     -2.828  0.5936E-02  0.5939E-02  0.4851E-03  0.4851E-03  0.6788E-03  0.6789E-03  0.4851E-03  0.4851E-03  0.1183E-04  0.1180E-04  0.1122E-04  0.1120E-04  0.4234E-05  0.4217E-05  0.1122E-04  0.1120E-04  0.3060E-05  0.3055E-05
     -2.781  0.5781E-02  0.5775E-02  0.5265E-03  0.5255E-03  0.6989E-03  0.6986E-03  0.5265E-03  0.5255E-03  0.1380E-04  0.1375E-04  0.1248E-04  0.1244E-04  0.4314E-05  0.4297E-05  0.1248E-04  0.1244E-04  0.3234E-05  0.3220E-05
     -2.734  0.6272E-02  0.6261E-02  0.6439E-03  0.6422E-03  0.7805E-03  0.7794E-03  0.6439E-03  0.6422E-03  0.1648E-04  0.1642E-04  0.1551E-04  0.1544E-04  0.4569E-05  0.4549E-05  0.1551E-04  0.1544E-04  0.4130E-05  0.4106E-05
     -2.686  0.6823E-02  0.6816E-02  0.7711E-03  0.7698E-03  0.9147E-03  0.9135E-03  0.7711E-03  0.7698E-03  0.1821E-04  0.1817E-04  0.1899E-04  0.1893E-04  0.5039E-05  0.5017E-05  0.1899E-04  0.1893E-04  0.5302E-05  0.5276E-05
     -2.639  0.6820E-02  0.6821E-02  0.8455E-03  0.8449E-03  0.1005E-02  0.1004E-02  0.8455E-03  0.8449E-03  0.1848E-04  0.1845E-04  0.2097E-04  0.2092E-04  0.5426E-05  0.5407E-05  0.2097E-04  0.2092E-04  0.6148E-05  0.6127E-05
     -2.592  0.6291E-02  0.6296E-02  0.8676E-03  0.8674E-03  0.1003E-02  0.1003E-02  0.8676E-03  0.8674E-03  0.1871E-04  0.1867E-04  0.2133E-04  0.2129E-04  0.5424E-05  0.5410E-05  0.2133E-04  0.2129E-04  0.6351E-05  0.6337E-05
     -2.544  0.5624E-02  0.5629E-02  0.8825E-03  0.8821E-03  0.9482E-03  0.9490E-03  0.8825E-03  0.8821E-03  0.2014E-04  0.2008E-04  0.2097E-04  0.2094E-04  0.5187E-05  0.5174E-05  0.2097E-04  0.2094E-04  0.6178E-05  0.6167E-05
     -2.497  0.5078E-02  0.5081E-02  0.9072E-03  0.9068E-03  0.8876E-03  0.8882E-03  0.9072E-03  0.9068E-03  0.2274E-04  0.2267E-04  0.2083E-04  0.2079E-04  0.5110E-05  0.5094E-05  0.2083E-04  0.2079E-04  0.5856E-05  0.5849E-05