  16  16   1   0
  0.1945524E+02  0.4235755E-09  0.4235755E-09  0.1734982E-08  0.5000000E-15
  1.000000000000000E-004
  CAR 
 unknown system                          
     11.09674991     -4.61401420  301      5.63432647      1.00000000
     -4.614  0.0000E+00  0.0000E+00  0.0000E+00  0.0000E+00
     -4.562  0.0000E+00  0.0000E+00  0.0000E+00  0.0000E+00
     -4.509  0.0000E+00  0.0000E+00  0.0000E+00  0.0000E+00
     -4.457  0.0000E+00  0.0000E+00  0.0000E+00  0.0000E+00
     -4.405  0.0000E+00  0.0000E+00  0.0000E+00  0.0000E+00
     -4.352  0.4440E-05  0.0000E+00  0.2325E-06  0.0000E+00
     -4.300  0.2746E-04  0.3149E-04  0.1671E-05  0.1649E-05
     -4.247  0.1418E-03  0.1400E-03  0.9096E-05  0.8980E-05
     -4.195  0.3615E-03  0.3569E-03  0.2803E-04  0.2767E-04
     -4.143  0.1012E-02  0.9990E-03  0.8102E-04  0.7999E-04
     -4.090  0.2962E-02  0.2925E-02  0.2361E-03  0.2332E-03
     -4.038  0.8393E-02  0.8289E-02  0.6757E-03  0.6672E-03
     -3.986  0.2246E-01  0.2220E-01  0.1852E-02  0.1830E-02
     -3.933  0.5636E-01  0.5577E-01  0.4804E-02  0.4750E-02
     -3.881  0.1227E+00  0.1217E+00  0.1123E-01  0.1112E-01
     -3.828  0.2179E+00  0.2167E+00  0.2264E-01  0.2247E-01
     -3.776  0.3133E+00  0.3122E+00  0.3905E-01  0.3882E-01
     -3.724  0.3954E+00  0.3943E+00  0.5975E-01  0.5947E-01
     -3.671  0.4912E+00  0.4899E+00  0.8548E-01  0.8513E-01
     -3.619  0.5806E+00  0.5799E+00  0.1159E+00  0.1155E+00
     -3.567  0.5998E+00  0.5999E+00  0.1473E+00  0.1469E+00
     -3.514  0.6060E+00  0.6055E+00  0.1790E+00  0.1786E+00
     -3.462  0.6960E+00  0.6945E+00  0.2155E+00  0.2150E+00
     -3.410  0.8028E+00  0.8019E+00  0.2575E+00  0.2570E+00
     -3.357  0.8359E+00  0.8359E+00  0.3013E+00  0.3008E+00
     -3.305  0.8341E+00  0.8340E+00  0.3450E+00  0.3445E+00
     -3.252  0.8710E+00  0.8705E+00  0.3907E+00  0.3901E+00
     -3.200  0.9193E+00  0.9191E+00  0.4388E+00  0.4382E+00
     -3.148  0.9029E+00  0.9033E+00  0.4861E+00  0.4856E+00
     -3.095  0.9113E+00  0.9105E+00  0.5338E+00  0.5332E+00
     -3.043  0.1032E+01  0.1030E+01  0.5880E+00  0.5872E+00
     -2.991  0.1150E+01  0.1149E+01  0.6482E+00  0.6475E+00
     -2.938  0.1193E+01  0.1192E+01  0.7107E+00  0.7099E+00
     -2.886  0.1182E+01  0.1182E+01  0.7726E+00  0.7719E+00
     -2.833  0.1130E+01  0.1131E+01  0.8318E+00  0.8311E+00
     -2.781  0.1061E+01  0.1062E+01  0.8874E+00  0.8868E+00
     -2.729  0.1054E+01  0.1054E+01  0.9427E+00  0.9420E+00
     -2.676  0.1186E+01  0.1183E+01  0.1005E+01  0.1004E+01
     -2.624  0.1371E+01  0.1369E+01  0.1077E+01  0.1076E+01
     -2.572  0.1460E+01  0.1460E+01  0.1153E+01  0.1152E+01
     -2.519  0.1473E+01  0.1473E+01  0.1230E+01  0.1229E+01
     -2.467  0.1478E+01  0.1478E+01  0.1308E+01  0.1307E+01
     -2.415  0.1394E+01  0.1395E+01  0.1381E+01  0.1380E+01
     -2.362  0.1260E+01  0.1261E+01  0.1447E+01  0.1446E+01
     -2.310  0.1275E+01  0.1273E+01  0.1514E+01  0.1513E+01
     -2.257  0.1475E+01  0.1472E+01  0.1591E+01  0.1590E+01
     -2.205  0.1715E+01  0.1713E+01  0.1681E+01  0.1680E+01
     -2.153  0.1807E+01  0.1807E+01  0.1775E+01  0.1774E+01
     -2.100  0.1743E+01  0.1744E+01  0.1867E+01  0.1866E+01
     -2.048  0.1642E+01  0.1643E+01  0.1953E+01  0.1952E+01
     -1.996  0.1577E+01  0.1577E+01  0.2035E+01  0.2034E+01
     -1.943  0.1547E+01  0.1547E+01  0.2116E+01  0.2115E+01
     -1.891  0.1605E+01  0.1603E+01  0.2201E+01  0.2199E+01
     -1.838  0.1747E+01  0.1746E+01  0.2292E+01  0.2291E+01
     -1.786  0.1782E+01  0.1782E+01  0.2385E+01  0.2384E+01
     -1.734  0.1657E+01  0.1659E+01  0.2472E+01  0.2471E+01
     -1.681  0.1469E+01  0.1471E+01  0.2549E+01  0.2548E+01
     -1.629  0.1307E+01  0.1309E+01  0.2618E+01  0.2617E+01
     -1.577  0.1260E+01  0.1259E+01  0.2684E+01  0.2683E+01
     -1.524  0.1395E+01  0.1392E+01  0.2757E+01  0.2756E+01
     -1.472  0.1646E+01  0.1643E+01  0.2843E+01  0.2842E+01
     -1.419  0.1822E+01  0.1821E+01  0.2939E+01  0.2938E+01
     -1.367  0.1798E+01  0.1800E+01  0.3033E+01  0.3032E+01
     -1.315  0.1656E+01  0.1657E+01  0.3120E+01  0.3119E+01
     -1.262  0.1545E+01  0.1546E+01  0.3201E+01  0.3200E+01
     -1.210  0.1509E+01  0.1509E+01  0.3280E+01  0.3279E+01
     -1.158  0.1639E+01  0.1636E+01  0.3366E+01  0.3364E+01
     -1.105  0.1852E+01  0.1850E+01  0.3463E+01  0.3461E+01
     -1.053  0.1925E+01  0.1925E+01  0.3563E+01  0.3562E+01
     -1.001  0.1918E+01  0.1918E+01  0.3664E+01  0.3663E+01
     -0.948  0.1887E+01  0.1887E+01  0.3763E+01  0.3762E+01
     -0.896  0.1792E+01  0.1793E+01  0.3857E+01  0.3856E+01
     -0.843  0.1735E+01  0.1735E+01  0.3948E+01  0.3946E+01
     -0.791  0.1835E+01  0.1833E+01  0.4044E+01  0.4042E+01
     -0.739  0.2046E+01  0.2043E+01  0.4151E+01  0.4150E+01
     -0.686  0.2206E+01  0.2205E+01  0.4267E+01  0.4265E+01
     -0.634  0.2233E+01  0.2234E+01  0.4384E+01  0.4382E+01
     -0.582  0.2226E+01  0.2226E+01  0.4500E+01  0.4499E+01
     -0.529  0.2196E+01  0.2196E+01  0.4615E+01  0.4614E+01
     -0.477  0.2106E+01  0.2108E+01  0.4726E+01  0.4724E+01
     -0.424  0.2053E+01  0.2053E+01  0.4833E+01  0.4832E+01
     -0.372  0.2025E+01  0.2025E+01  0.4939E+01  0.4938E+01
     -0.320  0.2008E+01  0.2008E+01  0.5044E+01  0.5043E+01
     -0.267  0.2030E+01  0.2030E+01  0.5151E+01  0.5150E+01
     -0.215  0.2062E+01  0.2061E+01  0.5259E+01  0.5258E+01
     -0.163  0.2052E+01  0.2053E+01  0.5366E+01  0.5365E+01
     -0.110  0.2027E+01  0.2027E+01  0.5473E+01  0.5471E+01
     -0.058  0.2101E+01  0.2100E+01  0.5583E+01  0.5581E+01
     -0.006  0.2224E+01  0.2222E+01  0.5699E+01  0.5698E+01
      0.047  0.2286E+01  0.2286E+01  0.5819E+01  0.5818E+01
      0.099  0.2240E+01  0.2241E+01  0.5936E+01  0.5935E+01
      0.152  0.2150E+01  0.2151E+01  0.6049E+01  0.6048E+01
      0.204  0.2058E+01  0.2059E+01  0.6157E+01  0.6156E+01
      0.256  0.1977E+01  0.1977E+01  0.6260E+01  0.6259E+01
      0.309  0.1938E+01  0.1938E+01  0.6362E+01  0.6361E+01
      0.361  0.2004E+01  0.2002E+01  0.6467E+01  0.6466E+01
      0.413  0.2222E+01  0.2219E+01  0.6584E+01  0.6582E+01
      0.466  0.2454E+01  0.2451E+01  0.6712E+01  0.6710E+01
      0.518  0.2558E+01  0.2558E+01  0.6846E+01  0.6844E+01
      0.571  0.2540E+01  0.2541E+01  0.6979E+01  0.6978E+01
      0.623  0.2525E+01  0.2525E+01  0.7112E+01  0.7110E+01
      0.675  0.2490E+01  0.2490E+01  0.7242E+01  0.7240E+01
      0.728  0.2349E+01  0.2352E+01  0.7365E+01  0.7364E+01
      0.780  0.2241E+01  0.2241E+01  0.7482E+01  0.7481E+01
      0.832  0.2285E+01  0.2284E+01  0.7602E+01  0.7601E+01
      0.885  0.2404E+01  0.2402E+01  0.7728E+01  0.7727E+01
      0.937  0.2563E+01  0.2561E+01  0.7862E+01  0.7861E+01
      0.989  0.2661E+01  0.2661E+01  0.8002E+01  0.8000E+01
      1.042  0.2628E+01  0.2629E+01  0.8140E+01  0.8138E+01
      1.094  0.2527E+01  0.2528E+01  0.8272E+01  0.8270E+01
      1.147  0.2456E+01  0.2456E+01  0.8401E+01  0.8399E+01
      1.199  0.2488E+01  0.2487E+01  0.8531E+01  0.8529E+01
      1.251  0.2584E+01  0.2583E+01  0.8666E+01  0.8665E+01
      1.304  0.2610E+01  0.2610E+01  0.8803E+01  0.8802E+01
      1.356  0.2466E+01  0.2469E+01  0.8932E+01  0.8931E+01
      1.408  0.2302E+01  0.2303E+01  0.9053E+01  0.9052E+01
      1.461  0.2279E+01  0.2279E+01  0.9173E+01  0.9171E+01
      1.513  0.2407E+01  0.2405E+01  0.9299E+01  0.9297E+01
      1.566  0.2529E+01  0.2529E+01  0.9431E+01  0.9430E+01
      1.618  0.2538E+01  0.2538E+01  0.9564E+01  0.9563E+01
      1.670  0.2447E+01  0.2449E+01  0.9692E+01  0.9691E+01
      1.723  0.2302E+01  0.2303E+01  0.9813E+01  0.9812E+01
      1.775  0.2287E+01  0.2286E+01  0.9933E+01  0.9931E+01
      1.827  0.2454E+01  0.2451E+01  0.1006E+02  0.1006E+02
      1.880  0.2682E+01  0.2679E+01  0.1020E+02  0.1020E+02
      1.932  0.2859E+01  0.2857E+01  0.1035E+02  0.1035E+02
      1.985  0.2841E+01  0.2842E+01  0.1050E+02  0.1050E+02
      2.037  0.2699E+01  0.2700E+01  0.1064E+02  0.1064E+02
      2.089  0.2684E+01  0.2683E+01  0.1078E+02  0.1078E+02
      2.142  0.2758E+01  0.2758E+01  0.1093E+02  0.1093E+02
      2.194  0.2750E+01  0.2751E+01  0.1107E+02  0.1107E+02
      2.246  0.2759E+01  0.2758E+01  0.1122E+02  0.1121E+02
      2.299  0.2867E+01  0.2865E+01  0.1137E+02  0.1136E+02
      2.351  0.2961E+01  0.2961E+01  0.1152E+02  0.1152E+02
      2.403  0.2920E+01  0.2922E+01  0.1167E+02  0.1167E+02
      2.456  0.2791E+01  0.2792E+01  0.1182E+02  0.1182E+02
      2.508  0.2774E+01  0.2774E+01  0.1197E+02  0.1196E+02
      2.561  0.2804E+01  0.2804E+01  0.1211E+02  0.1211E+02
      2.613  0.2779E+01  0.2779E+01  0.1226E+02  0.1226E+02
      2.665  0.2775E+01  0.2774E+01  0.1240E+02  0.1240E+02
      2.718  0.2873E+01  0.2870E+01  0.1255E+02  0.1255E+02
      2.770  0.3158E+01  0.3154E+01  0.1272E+02  0.1272E+02
      2.822  0.3444E+01  0.3442E+01  0.1290E+02  0.1290E+02
      2.875  0.3448E+01  0.3450E+01  0.1308E+02  0.1308E+02
      2.927  0.3185E+01  0.3189E+01  0.1325E+02  0.1325E+02
      2.980  0.2822E+01  0.2827E+01  0.1340E+02  0.1339E+02
      3.032  0.2623E+01  0.2624E+01  0.1353E+02  0.1353E+02
      3.084  0.2716E+01  0.2714E+01  0.1368E+02  0.1367E+02
      3.137  0.3019E+01  0.3014E+01  0.1383E+02  0.1383E+02
      3.189  0.3378E+01  0.3374E+01  0.1401E+02  0.1401E+02
      3.241  0.3568E+01  0.3567E+01  0.1420E+02  0.1420E+02
      3.294  0.3452E+01  0.3455E+01  0.1438E+02  0.1438E+02
      3.346  0.3180E+01  0.3183E+01  0.1455E+02  0.1454E+02
      3.398  0.3053E+01  0.3054E+01  0.1470E+02  0.1470E+02
      3.451  0.3015E+01  0.3016E+01  0.1486E+02  0.1486E+02
      3.503  0.2916E+01  0.2917E+01  0.1502E+02  0.1501E+02
      3.556  0.2911E+01  0.2909E+01  0.1517E+02  0.1517E+02
      3.608  0.3176E+01  0.3172E+01  0.1533E+02  0.1533E+02
      3.660  0.3533E+01  0.3529E+01  0.1552E+02  0.1552E+02
      3.713  0.3664E+01  0.3664E+01  0.1571E+02  0.1571E+02
      3.765  0.3568E+01  0.3569E+01  0.1590E+02  0.1590E+02
      3.817  0.3452E+01  0.3453E+01  0.1608E+02  0.1608E+02
      3.870  0.3368E+01  0.3369E+01  0.1626E+02  0.1625E+02
      3.922  0.3320E+01  0.3321E+01  0.1643E+02  0.1643E+02
      3.975  0.3169E+01  0.3172E+01  0.1660E+02  0.1659E+02
      4.027  0.2867E+01  0.2871E+01  0.1675E+02  0.1674E+02
      4.079  0.2684E+01  0.2685E+01  0.1689E+02  0.1689E+02
      4.132  0.2824E+01  0.2820E+01  0.1704E+02  0.1703E+02
      4.184  0.3134E+01  0.3130E+01  0.1720E+02  0.1720E+02
      4.236  0.3355E+01  0.3353E+01  0.1738E+02  0.1737E+02
      4.289  0.3422E+01  0.3422E+01  0.1755E+02  0.1755E+02
      4.341  0.3292E+01  0.3294E+01  0.1773E+02  0.1772E+02
      4.393  0.3165E+01  0.3165E+01  0.1789E+02  0.1789E+02
      4.446  0.3317E+01  0.3313E+01  0.1807E+02  0.1806E+02
      4.498  0.3636E+01  0.3632E+01  0.1826E+02  0.1825E+02
      4.551  0.3800E+01  0.3800E+01  0.1846E+02  0.1845E+02
      4.603  0.3689E+01  0.3692E+01  0.1865E+02  0.1865E+02
      4.655  0.3415E+01  0.3419E+01  0.1883E+02  0.1883E+02
      4.708  0.3091E+01  0.3095E+01  0.1899E+02  0.1899E+02
      4.760  0.2829E+01  0.2831E+01  0.1914E+02  0.1914E+02
      4.812  0.2813E+01  0.2812E+01  0.1929E+02  0.1928E+02
      4.865  0.2936E+01  0.2935E+01  0.1944E+02  0.1944E+02
      4.917  0.2890E+01  0.2892E+01  0.1959E+02  0.1959E+02
      4.970  0.2779E+01  0.2779E+01  0.1974E+02  0.1974E+02
      5.022  0.2847E+01  0.2844E+01  0.1989E+02  0.1988E+02
      5.074  0.3052E+01  0.3049E+01  0.2005E+02  0.2004E+02
      5.127  0.3366E+01  0.3361E+01  0.2022E+02  0.2022E+02
      5.179  0.3743E+01  0.3738E+01  0.2042E+02  0.2042E+02
      5.231  0.4008E+01  0.4007E+01  0.2063E+02  0.2063E+02
      5.284  0.3983E+01  0.3986E+01  0.2084E+02  0.2083E+02
      5.336  0.3646E+01  0.3651E+01  0.2103E+02  0.2103E+02
      5.389  0.3377E+01  0.3378E+01  0.2121E+02  0.2120E+02
      5.441  0.3365E+01  0.3365E+01  0.2138E+02  0.2138E+02
      5.493  0.3387E+01  0.3387E+01  0.2156E+02  0.2156E+02
      5.546  0.3291E+01  0.3293E+01  0.2173E+02  0.2173E+02
      5.598  0.3101E+01  0.3104E+01  0.2189E+02  0.2189E+02
      5.650  0.2923E+01  0.2924E+01  0.2205E+02  0.2205E+02
      5.703  0.2872E+01  0.2871E+01  0.2220E+02  0.2220E+02
      5.755  0.3007E+01  0.3005E+01  0.2236E+02  0.2235E+02
      5.807  0.3199E+01  0.3197E+01  0.2252E+02  0.2252E+02
      5.860  0.3250E+01  0.3250E+01  0.2269E+02  0.2269E+02
      5.912  0.3275E+01  0.3274E+01  0.2286E+02  0.2286E+02
      5.965  0.3566E+01  0.3561E+01  0.2305E+02  0.2305E+02
      6.017  0.4032E+01  0.4026E+01  0.2326E+02  0.2326E+02
      6.069  0.4263E+01  0.4263E+01  0.2349E+02  0.2348E+02
      6.122  0.3989E+01  0.3995E+01  0.2370E+02  0.2369E+02
      6.174  0.3404E+01  0.3410E+01  0.2387E+02  0.2387E+02
      6.226  0.3021E+01  0.3022E+01  0.2403E+02  0.2403E+02
      6.279  0.3096E+01  0.3092E+01  0.2419E+02  0.2419E+02
      6.331  0.3405E+01  0.3401E+01  0.2437E+02  0.2437E+02
      6.384  0.3738E+01  0.3735E+01  0.2457E+02  0.2457E+02
      6.436  0.3935E+01  0.3935E+01  0.2477E+02  0.2477E+02
      6.488  0.3902E+01  0.3904E+01  0.2498E+02  0.2498E+02
      6.541  0.3764E+01  0.3766E+01  0.2518E+02  0.2517E+02
      6.593  0.3709E+01  0.3708E+01  0.2537E+02  0.2537E+02
      6.645  0.3783E+01  0.3782E+01  0.2557E+02  0.2557E+02
      6.698  0.3740E+01  0.3742E+01  0.2576E+02  0.2576E+02
      6.750  0.3621E+01  0.3622E+01  0.2595E+02  0.2595E+02
      6.802  0.3570E+01  0.3571E+01  0.2614E+02  0.2614E+02
      6.855  0.3498E+01  0.3500E+01  0.2632E+02  0.2632E+02
      6.907  0.3455E+01  0.3455E+01  0.2651E+02  0.2650E+02
      6.960  0.3551E+01  0.3549E+01  0.2669E+02  0.2669E+02
      7.012  0.3778E+01  0.3775E+01  0.2689E+02  0.2689E+02
      7.064  0.3953E+01  0.3952E+01  0.2710E+02  0.2709E+02
      7.117  0.3906E+01  0.3908E+01  0.2730E+02  0.2730E+02
      7.169  0.3773E+01  0.3774E+01  0.2750E+02  0.2750E+02
      7.221  0.3777E+01  0.3776E+01  0.2770E+02  0.2770E+02
      7.274  0.3915E+01  0.3913E+01  0.2790E+02  0.2790E+02
      7.326  0.3982E+01  0.3982E+01  0.2811E+02  0.2811E+02
      7.379  0.3954E+01  0.3955E+01  0.2832E+02  0.2832E+02
      7.431  0.3882E+01  0.3883E+01  0.2852E+02  0.2852E+02
      7.483  0.3785E+01  0.3787E+01  0.2872E+02  0.2872E+02
      7.536  0.3698E+01  0.3699E+01  0.2891E+02  0.2891E+02
      7.588  0.3713E+01  0.3713E+01  0.2911E+02  0.2911E+02
      7.640  0.3813E+01  0.3811E+01  0.2931E+02  0.2931E+02
      7.693  0.3912E+01  0.3911E+01  0.2951E+02  0.2951E+02
      7.745  0.3940E+01  0.3940E+01  0.2972E+02  0.2972E+02
      7.797  0.4023E+01  0.4021E+01  0.2993E+02  0.2993E+02
      7.850  0.4173E+01  0.4172E+01  0.3015E+02  0.3015E+02
      7.902  0.4091E+01  0.4094E+01  0.3036E+02  0.3036E+02
      7.955  0.3842E+01  0.3844E+01  0.3056E+02  0.3056E+02
      8.007  0.3794E+01  0.3792E+01  0.3076E+02  0.3076E+02
      8.059  0.3958E+01  0.3956E+01  0.3097E+02  0.3097E+02
      8.112  0.4077E+01  0.4077E+01  0.3118E+02  0.3118E+02
      8.164  0.4013E+01  0.4015E+01  0.3139E+02  0.3139E+02
      8.216  0.3901E+01  0.3902E+01  0.3160E+02  0.3160E+02
      8.269  0.3801E+01  0.3802E+01  0.3180E+02  0.3180E+02
      8.321  0.3602E+01  0.3604E+01  0.3199E+02  0.3199E+02
      8.374  0.3398E+01  0.3398E+01  0.3217E+02  0.3216E+02
      8.426  0.3411E+01  0.3408E+01  0.3234E+02  0.3234E+02
      8.478  0.3738E+01  0.3731E+01  0.3254E+02  0.3254E+02
      8.531  0.4179E+01  0.4167E+01  0.3276E+02  0.3276E+02
      8.583  0.4458E+01  0.4439E+01  0.3299E+02  0.3299E+02
      8.635  0.4525E+01  0.4498E+01  0.3323E+02  0.3322E+02
      8.688  0.4448E+01  0.4431E+01  0.3346E+02  0.3346E+02
      8.740  0.4306E+01  0.4300E+01  0.3369E+02  0.3368E+02
      8.793  0.4143E+01  0.4119E+01  0.3391E+02  0.3390E+02
      8.845  0.3972E+01  0.3930E+01  0.3411E+02  0.3410E+02
      8.897  0.3616E+01  0.3597E+01  0.3430E+02  0.3429E+02
      8.950  0.3043E+01  0.3065E+01  0.3446E+02  0.3445E+02
      9.002  0.2558E+01  0.2598E+01  0.3460E+02  0.3459E+02
      9.054  0.2353E+01  0.2372E+01  0.3472E+02  0.3471E+02
      9.107  0.2349E+01  0.2353E+01  0.3484E+02  0.3484E+02
      9.159  0.2393E+01  0.2416E+01  0.3497E+02  0.3496E+02
      9.211  0.2345E+01  0.2385E+01  0.3509E+02  0.3509E+02
      9.264  0.2159E+01  0.2190E+01  0.3520E+02  0.3520E+02
      9.316  0.1818E+01  0.1821E+01  0.3530E+02  0.3530E+02
      9.369  0.1384E+01  0.1379E+01  0.3537E+02  0.3537E+02
      9.421  0.1069E+01  0.1084E+01  0.3543E+02  0.3543E+02
      9.473  0.9478E+00  0.9664E+00  0.3548E+02  0.3548E+02
      9.526  0.8712E+00  0.8840E+00  0.3552E+02  0.3552E+02
      9.578  0.7791E+00  0.7844E+00  0.3556E+02  0.3557E+02
      9.630  0.7598E+00  0.7491E+00  0.3560E+02  0.3560E+02
      9.683  0.8359E+00  0.8120E+00  0.3565E+02  0.3565E+02
      9.735  0.9005E+00  0.8763E+00  0.3570E+02  0.3569E+02
      9.788  0.8301E+00  0.8198E+00  0.3574E+02  0.3574E+02
      9.840  0.6613E+00  0.6746E+00  0.3577E+02  0.3577E+02
      9.892  0.5041E+00  0.5257E+00  0.3580E+02  0.3580E+02
      9.945  0.4548E+00  0.4657E+00  0.3582E+02  0.3582E+02
      9.997  0.4927E+00  0.4901E+00  0.3585E+02  0.3585E+02
     10.049  0.5129E+00  0.5053E+00  0.3588E+02  0.3588E+02
     10.102  0.4746E+00  0.4614E+00  0.3590E+02  0.3590E+02
     10.154  0.4096E+00  0.3902E+00  0.3592E+02  0.3592E+02
     10.206  0.3352E+00  0.3338E+00  0.3594E+02  0.3594E+02
     10.259  0.2881E+00  0.3099E+00  0.3596E+02  0.3595E+02
     10.311  0.2648E+00  0.2832E+00  0.3597E+02  0.3597E+02
     10.364  0.2281E+00  0.2353E+00  0.3598E+02  0.3598E+02
     10.416  0.1714E+00  0.1756E+00  0.3599E+02  0.3599E+02
     10.468  0.1003E+00  0.1040E+00  0.3600E+02  0.3600E+02
     10.521  0.4537E-01  0.4775E-01  0.3600E+02  0.3600E+02
     10.573  0.1747E-01  0.1869E-01  0.3600E+02  0.3600E+02
     10.625  0.6378E-02  0.6722E-02  0.3600E+02  0.3600E+02
     10.678  0.1936E-02  0.2069E-02  0.3600E+02  0.3600E+02
     10.730  0.6831E-03  0.7306E-03  0.3600E+02  0.3600E+02
     10.783  0.0000E+00  0.1871E-03  0.3600E+02  0.3600E+02
     10.835  0.0000E+00  0.0000E+00  0.3600E+02  0.3600E+02
     10.887  0.0000E+00  0.0000E+00  0.3600E+02  0.3600E+02
     10.940  0.0000E+00  0.0000E+00  0.3600E+02  0.3600E+02
     10.992  0.0000E+00  0.0000E+00  0.3600E+02  0.3600E+02
     11.044  0.0000E+00  0.0000E+00  0.3600E+02  0.3600E+02
     11.097  0.0000E+00  0.0000E+00  0.3600E+02  0.3600E+02
     11.09674991     -4.61401420  301      5.63432647      1.00000000
     -4.614  0.0000E+00  0.0000E+00  0.0000E+00  0.0000E+00  0.0000E+00  0.0000E+00  0.0000E+00  0.0000E+00  0.0000E+00  0.0000E+00  0.0000E+00  0.0000E+00  0.0000E+00  0.0000E+00  0.0000E+00  0.0000E+00  0.0000E+00  0.0000E+00
     -4.562  0.0000E+00  0.0000E+00  0.0000E+00  0.0000E+00  0.0000E+00  0.0000E+00  0.0000E+00  0.0000E+00  0.0000E+00  0.0000E+00  0.0000E+00  0.0000E+00  0.0000E+00  0.0000E+00  0.0000E+00  0.0000E+00  0.0000E+00  0.0000E+00
     -4.509  0.0000E+00  0.0000E+00  0.0000E+00  0.0000E+00  0.0000E+00  0.0000E+00  0.0000E+00  0.0000E+00  0.0000E+00  0.0000E+00  0.0000E+00  0.0000E+00  0.0000E+00  0.0000E+00  0.0000E+00  0.0000E+00  0.0000E+00  0.0000E+00
     -4.457  0.0000E+00  0.0000E+00  0.0000E+00  0.0000E+00  0.0000E+00  0.0000E+00  0.0000E+00  0.0000E+00  0.0000E+00  0.0000E+00  0.0000E+00  0.0000E+00  0.0000E+00  0.0000E+00  0.0000E+00  0.0000E+00  0.0000E+00  0.0000E+00
     -4.405  0.0000E+00  0.0000E+00  0.0000E+00  0.0000E+00  0.0000E+00  0.0000E+00  0.0000E+00  0.0000E+00  0.0000E+00  0.0000E+00  0.0000E+00  0.0000E+00  0.0000E+00  0.0000E+00  0.0000E+00  0.0000E+00  0.0000E+00  0.0000E+00
     -4.352  0.3420E-07  0.0000E+00  0.1246E-21  0.0000E+00  0.7969E-13  0.0000E+00  0.1246E-21  0.0000E+00  0.1380E-22  0.0000E+00  0.1616E-22  0.0000E+00  0.5758E-13  0.0000E+00  0.1616E-22  0.0000E+00  0.8961E-22  0.0000E+00
     -4.300  0.2102E-06  0.2412E-06  0.4329E-09  0.4274E-09  0.4390E-12  0.4859E-12  0.4329E-09  0.4274E-09  0.4172E-22  0.7875E-21  0.1256E-13  0.1317E-13  0.8446E-12  0.8783E-12  0.1256E-13  0.1317E-13  0.3500E-12  0.3435E-12
     -4.247  0.1079E-05  0.1065E-05  0.2570E-08  0.2537E-08  0.3279E-08  0.3238E-08  0.2570E-08  0.2537E-08  0.3058E-11  0.3012E-11  0.3049E-11  0.3018E-11  0.3498E-11  0.3416E-11  0.3049E-11  0.3018E-11  0.1322E-11  0.1299E-11
     -4.195  0.2749E-05  0.2713E-05  0.7354E-08  0.7262E-08  0.8198E-08  0.8095E-08  0.7354E-08  0.7262E-08  0.1160E-10  0.1142E-10  0.1217E-10  0.1203E-10  0.8591E-11  0.8377E-11  0.1217E-10  0.1203E-10  0.3092E-11  0.3036E-11
     -4.143  0.7695E-05  0.7595E-05  0.2135E-07  0.2108E-07  0.2121E-07  0.2094E-07  0.2135E-07  0.2108E-07  0.2710E-10  0.2669E-10  0.2823E-10  0.2793E-10  0.2875E-10  0.2807E-10  0.2823E-10  0.2793E-10  0.1591E-10  0.1567E-10
     -4.090  0.2250E-04  0.2221E-04  0.6868E-07  0.6782E-07  0.6755E-07  0.6671E-07  0.6868E-07  0.6782E-07  0.1086E-09  0.1070E-09  0.9582E-10  0.9478E-10  0.1029E-09  0.1006E-09  0.9582E-10  0.9478E-10  0.6045E-10  0.5955E-10
     -4.038  0.6369E-04  0.6288E-04  0.1991E-06  0.1966E-06  0.2177E-06  0.2150E-06  0.1991E-06  0.1966E-06  0.3435E-09  0.3387E-09  0.3542E-09  0.3502E-09  0.3109E-09  0.3044E-09  0.3542E-09  0.3502E-09  0.1672E-09  0.1647E-09
     -3.986  0.1705E-03  0.1684E-03  0.5386E-06  0.5321E-06  0.5728E-06  0.5659E-06  0.5386E-06  0.5321E-06  0.9017E-09  0.8891E-09  0.9017E-09  0.8918E-09  0.8115E-09  0.7947E-09  0.9017E-09  0.8918E-09  0.4494E-09  0.4428E-09
     -3.933  0.4272E-03  0.4226E-03  0.1448E-05  0.1432E-05  0.1544E-05  0.1527E-05  0.1448E-05  0.1432E-05  0.2571E-08  0.2537E-08  0.2552E-08  0.2524E-08  0.2157E-08  0.2114E-08  0.2552E-08  0.2524E-08  0.1231E-08  0.1214E-08
     -3.881  0.9280E-03  0.9200E-03  0.3564E-05  0.3529E-05  0.3813E-05  0.3775E-05  0.3564E-05  0.3529E-05  0.6906E-08  0.6820E-08  0.6880E-08  0.6811E-08  0.5223E-08  0.5131E-08  0.6880E-08  0.6811E-08  0.3204E-08  0.3163E-08
     -3.828  0.1642E-02  0.1633E-02  0.7576E-05  0.7515E-05  0.8082E-05  0.8018E-05  0.7576E-05  0.7515E-05  0.1645E-07  0.1627E-07  0.1638E-07  0.1624E-07  0.1137E-07  0.1120E-07  0.1638E-07  0.1624E-07  0.7735E-08  0.7646E-08
     -3.776  0.2347E-02  0.2339E-02  0.1380E-04  0.1371E-04  0.1450E-04  0.1441E-04  0.1380E-04  0.1371E-04  0.3472E-07  0.3441E-07  0.3436E-07  0.3411E-07  0.2314E-07  0.2282E-07  0.3436E-07  0.3411E-07  0.1731E-07  0.1713E-07
     -3.724  0.2937E-02  0.2929E-02  0.2271E-04  0.2258E-04  0.2350E-04  0.2337E-04  0.2271E-04  0.2258E-04  0.6679E-07  0.6627E-07  0.6490E-07  0.6445E-07  0.4512E-07  0.4460E-07  0.6490E-07  0.6445E-07  0.3565E-07  0.3534E-07
     -3.671  0.3614E-02  0.3604E-02  0.3499E-04  0.3484E-04  0.3713E-04  0.3694E-04  0.3499E-04  0.3484E-04  0.1213E-06  0.1206E-06  0.1185E-06  0.1177E-06  0.7870E-07  0.7801E-07  0.1185E-06  0.1177E-06  0.6242E-07  0.6204E-07
     -3.619  0.4237E-02  0.4231E-02  0.4756E-04  0.4743E-04  0.5292E-04  0.5276E-04  0.4756E-04  0.4743E-04  0.1971E-06  0.1962E-06  0.1967E-06  0.1957E-06  0.1121E-06  0.1114E-06  0.1967E-06  0.1957E-06  0.8838E-07  0.8801E-07
     -3.567  0.4339E-02  0.4339E-02  0.5664E-04  0.5654E-04  0.6310E-04  0.6302E-04  0.5664E-04  0.5654E-04  0.2825E-06  0.2815E-06  0.2803E-06  0.2793E-06  0.1403E-06  0.1395E-06  0.2803E-06  0.2793E-06  0.1152E-06  0.1146E-06
     -3.514  0.4328E-02  0.4323E-02  0.6970E-04  0.6948E-04  0.7247E-04  0.7231E-04  0.6970E-04  0.6948E-04  0.3998E-06  0.3982E-06  0.3911E-06  0.3894E-06  0.1929E-06  0.1914E-06  0.3911E-06  0.3894E-06  0.1760E-06  0.1746E-06
     -3.462  0.4904E-02  0.4893E-02  0.9455E-04  0.9422E-04  0.9353E-04  0.9321E-04  0.9455E-04  0.9422E-04  0.5693E-06  0.5674E-06  0.5639E-06  0.5616E-06  0.3050E-06  0.3024E-06  0.5639E-06  0.5616E-06  0.2954E-06  0.2932E-06
     -3.410  0.5598E-02  0.5591E-02  0.1193E-03  0.1191E-03  0.1215E-03  0.1212E-03  0.1193E-03  0.1191E-03  0.7423E-06  0.7405E-06  0.7383E-06  0.7363E-06  0.4634E-06  0.4602E-06  0.7383E-06  0.7363E-06  0.4282E-06  0.4261E-06
     -3.357  0.5767E-02  0.5767E-02  0.1316E-03  0.1316E-03  0.1462E-03  0.1460E-03  0.1316E-03  0.1316E-03  0.9336E-06  0.9309E-06  0.9051E-06  0.9024E-06  0.6010E-06  0.5982E-06  0.9051E-06  0.9024E-06  0.4919E-06  0.4907E-06
     -3.305  0.5685E-02  0.5684E-02  0.1415E-03  0.1413E-03  0.1656E-03  0.1654E-03  0.1415E-03  0.1413E-03  0.1250E-05  0.1245E-05  0.1173E-05  0.1169E-05  0.6701E-06  0.6680E-06  0.1173E-05  0.1169E-05  0.4992E-06  0.4978E-06
     -3.252  0.5861E-02  0.5857E-02  0.1631E-03  0.1629E-03  0.1857E-03  0.1854E-03  0.1631E-03  0.1629E-03  0.1665E-05  0.1661E-05  0.1596E-05  0.1589E-05  0.7209E-06  0.7185E-06  0.1596E-05  0.1589E-05  0.5658E-06  0.5630E-06
     -3.200  0.6113E-02  0.6111E-02  0.1868E-03  0.1866E-03  0.2077E-03  0.2075E-03  0.1868E-03  0.1866E-03  0.1935E-05  0.1934E-05  0.2016E-05  0.2011E-05  0.8091E-06  0.8060E-06  0.2016E-05  0.2011E-05  0.7303E-06  0.7260E-06
     -3.148  0.5926E-02  0.5928E-02  0.2007E-03  0.2005E-03  0.2120E-03  0.2121E-03  0.2007E-03  0.2005E-03  0.2006E-05  0.2004E-05  0.2175E-05  0.2173E-05  0.9474E-06  0.9429E-06  0.2175E-05  0.2173E-05  0.9793E-06  0.9731E-06
     -3.095  0.5879E-02  0.5874E-02  0.2295E-03  0.2290E-03  0.2152E-03  0.2150E-03  0.2295E-03  0.2290E-03  0.2367E-05  0.2359E-05  0.2313E-05  0.2308E-05  0.1234E-05  0.1226E-05  0.2313E-05  0.2308E-05  0.1345E-05  0.1337E-05
     -3.043  0.6549E-02  0.6537E-02  0.2787E-03  0.2781E-03  0.2638E-03  0.2629E-03  0.2787E-03  0.2781E-03  0.3223E-05  0.3211E-05  0.2867E-05  0.2856E-05  0.1718E-05  0.1706E-05  0.2867E-05  0.2856E-05  0.1685E-05  0.1678E-05
     -2.991  0.7195E-02  0.7189E-02  0.3122E-03  0.3119E-03  0.3409E-03  0.3400E-03  0.3122E-03  0.3119E-03  0.4038E-05  0.4029E-05  0.3667E-05  0.3654E-05  0.2191E-05  0.2180E-05  0.3667E-05  0.3654E-05  0.1816E-05  0.1811E-05
     -2.938  0.7360E-02  0.7359E-02  0.3288E-03  0.3286E-03  0.3928E-03  0.3925E-03  0.3288E-03  0.3286E-03  0.4574E-05  0.4568E-05  0.4462E-05  0.4449E-05  0.2418E-05  0.2410E-05  0.4462E-05  0.4449E-05  0.1892E-05  0.1886E-05
     -2.886  0.7198E-02  0.7200E-02  0.3401E-03  0.3400E-03  0.4103E-03  0.4102E-03  0.3401E-03  0.3400E-03  0.4990E-05  0.4984E-05  0.5176E-05  0.5164E-05  0.2432E-05  0.2425E-05  0.5176E-05  0.5164E-05  0.1985E-05  0.1980E-05
     -2.833  0.6782E-02  0.6786E-02  0.3343E-03  0.3344E-03  0.4232E-03  0.4231E-03  0.3343E-03  0.3344E-03  0.5332E-05  0.5327E-05  0.5792E-05  0.5781E-05  0.2404E-05  0.2399E-05  0.5792E-05  0.5781E-05  0.1897E-05  0.1894E-05
     -2.781  0.6262E-02  0.6266E-02  0.3304E-03  0.3303E-03  0.4168E-03  0.4172E-03  0.3304E-03  0.3303E-03  0.5844E-05  0.5834E-05  0.6144E-05  0.6137E-05  0.2392E-05  0.2386E-05  0.6144E-05  0.6137E-05  0.1865E-05  0.1859E-05
     -2.729  0.6094E-02  0.6090E-02  0.3753E-03  0.3744E-03  0.3843E-03  0.3846E-03  0.3753E-03  0.3744E-03  0.6974E-05  0.6954E-05  0.6310E-05  0.6301E-05  0.2611E-05  0.2599E-05  0.6310E-05  0.6301E-05  0.2445E-05  0.2429E-05
     -2.676  0.6692E-02  0.6679E-02  0.4728E-03  0.4715E-03  0.4076E-03  0.4068E-03  0.4728E-03  0.4715E-03  0.8514E-05  0.8493E-05  0.7217E-05  0.7194E-05  0.3335E-05  0.3316E-05  0.7217E-05  0.7194E-05  0.3625E-05  0.3602E-05
     -2.624  0.7558E-02  0.7548E-02  0.5587E-03  0.5581E-03  0.5220E-03  0.5204E-03  0.5587E-03  0.5581E-03  0.9479E-05  0.9469E-05  0.9105E-05  0.9074E-05  0.4255E-05  0.4236E-05  0.9105E-05  0.9074E-05  0.4680E-05  0.4663E-05
     -2.572  0.7855E-02  0.7853E-02  0.5814E-03  0.5814E-03  0.6572E-03  0.6559E-03  0.5814E-03  0.5814E-03  0.9900E-05  0.9888E-05  0.1084E-04  0.1082E-04  0.4922E-05  0.4906E-05  0.1084E-04  0.1082E-04  0.4952E-05  0.4945E-05
     -2.519  0.7729E-02  0.7728E-02  0.5896E-03  0.5893E-03  0.7334E-03  0.7330E-03  0.5896E-03  0.5893E-03  0.1120E-04  0.1117E-04  0.1186E-04  0.1184E-04  0.5332E-05  0.5317E-05  0.1186E-04  0.1184E-04  0.4870E-05  0.4862E-05
     -2.467  0.7593E-02  0.7594E-02  0.6156E-03  0.6155E-03  0.7547E-03  0.7546E-03  0.6156E-03  0.6155E-03  0.1302E-04  0.1300E-04  0.1282E-04  0.1280E-04  0.5519E-05  0.5507E-05  0.1282E-04  0.1280E-04  0.4925E-05  0.4919E-05
     -2.415  0.6997E-02  0.7006E-02  0.5850E-03  0.5858E-03  0.7644E-03  0.7644E-03  0.5850E-03  0.5858E-03  0.1342E-04  0.1342E-04  0.1329E-04  0.1328E-04  0.5507E-05  0.5496E-05  0.1329E-04  0.1328E-04  0.4485E-05  0.4489E-05
     -2.362  0.6110E-02  0.6117E-02  0.5299E-03  0.5301E-03  0.7649E-03  0.7651E-03  0.5299E-03  0.5301E-03  0.1378E-04  0.1375E-04  0.1315E-04  0.1314E-04  0.5510E-05  0.5498E-05  0.1315E-04  0.1314E-04  0.3759E-05  0.3759E-05
     -2.310  0.5962E-02  0.5956E-02  0.5798E-03  0.5784E-03  0.7741E-03  0.7738E-03  0.5798E-03  0.5784E-03  0.1646E-04  0.1640E-04  0.1458E-04  0.1454E-04  0.5599E-05  0.5586E-05  0.1458E-04  0.1454E-04  0.3984E-05  0.3968E-05
     -2.257  0.6653E-02  0.6641E-02  0.7327E-03  0.7306E-03  0.8689E-03  0.8673E-03  0.7327E-03  0.7306E-03  0.2012E-04  0.2007E-04  0.1870E-04  0.1863E-04  0.5910E-05  0.5892E-05  0.1870E-04  0.1863E-04  0.5324E-05  0.5296E-05
     -2.205  0.7380E-02  0.7373E-02  0.8910E-03  0.8895E-03  0.1050E-02  0.1048E-02  0.8910E-03  0.8895E-03  0.2217E-04  0.2214E-04  0.2341E-04  0.2334E-04  0.6602E-05  0.6580E-05  0.2341E-04  0.2334E-04  0.7051E-05  0.7021E-05
     -2.153  0.7359E-02  0.7362E-02  0.9728E-03  0.9723E-03  0.1170E-02  0.1170E-02  0.9728E-03  0.9723E-03  0.2195E-04  0.2195E-04  0.2571E-04  0.2567E-04  0.7202E-05  0.7186E-05  0.2571E-04  0.2567E-04  0.8274E-05  0.8255E-05
     -2.100  0.6705E-02  0.6712E-02  0.9850E-03  0.9850E-03  0.1159E-02  0.1160E-02  0.9850E-03  0.9850E-03  0.2184E-04  0.2181E-04  0.2579E-04  0.2577E-04  0.7159E-05  0.7151E-05  0.2579E-04  0.2577E-04  0.8480E-05  0.8472E-05
     -2.048  0.5925E-02  0.5932E-02  0.9953E-03  0.9950E-03  0.1081E-02  0.1082E-02  0.9953E-03  0.9950E-03  0.2360E-04  0.2355E-04  0.2500E-04  0.2498E-04  0.6735E-05  0.6727E-05  0.2500E-04  0.2498E-04  0.8182E-05  0.8176E-05
     -1.996  0.5324E-02  0.5328E-02  0.1028E-02  0.1027E-02  0.1011E-02  0.1012E-02  0.1028E-02  0.1027E-02  0.2682E-04  0.2675E-04  0.2453E-04  0.2450E-04  0.6679E-05  0.6664E-05  0.2453E-04  0.2450E-04  0.7821E-05  0.7821E-05