  16  16   1   0
  0.1675727E+02  0.4030136E-09  0.4030136E-09  0.1650760E-08  0.5000000E-15
  1.000000000000000E-004
  CAR 
 unknown system                          
     13.12444348     -4.28571740  301      6.94398029      1.00000000
     -4.286  0.0000E+00  0.0000E+00  0.0000E+00  0.0000E+00
     -4.228  0.0000E+00  0.0000E+00  0.0000E+00  0.0000E+00
     -4.170  0.0000E+00  0.0000E+00  0.0000E+00  0.0000E+00
     -4.112  0.0000E+00  0.0000E+00  0.0000E+00  0.0000E+00
     -4.054  0.0000E+00  0.0000E+00  0.0000E+00  0.0000E+00
     -3.996  0.0000E+00  0.0000E+00  0.0000E+00  0.0000E+00
     -3.938  0.4808E-05  0.4753E-05  0.2790E-06  0.2759E-06
     -3.879  0.4087E-04  0.4041E-04  0.2651E-05  0.2621E-05
     -3.821  0.1638E-03  0.1620E-03  0.1216E-04  0.1202E-04
     -3.763  0.5029E-03  0.4973E-03  0.4135E-04  0.4088E-04
     -3.705  0.1589E-02  0.1571E-02  0.1336E-03  0.1321E-03
     -3.647  0.5108E-02  0.5051E-02  0.4300E-03  0.4252E-03
     -3.589  0.1557E-01  0.1540E-01  0.1333E-02  0.1319E-02
     -3.531  0.4360E-01  0.4319E-01  0.3864E-02  0.3825E-02
     -3.473  0.1043E+00  0.1035E+00  0.9916E-02  0.9832E-02
     -3.415  0.1963E+00  0.1954E+00  0.2131E-01  0.2117E-01
     -3.357  0.2854E+00  0.2847E+00  0.3787E-01  0.3769E-01
     -3.299  0.3550E+00  0.3543E+00  0.5848E-01  0.5825E-01
     -3.241  0.4456E+00  0.4446E+00  0.8434E-01  0.8405E-01
     -3.183  0.5385E+00  0.5379E+00  0.1156E+00  0.1153E+00
     -3.125  0.5445E+00  0.5448E+00  0.1472E+00  0.1469E+00
     -3.067  0.5313E+00  0.5310E+00  0.1780E+00  0.1777E+00
     -3.009  0.6262E+00  0.6249E+00  0.2144E+00  0.2140E+00
     -2.951  0.7400E+00  0.7393E+00  0.2573E+00  0.2569E+00
     -2.893  0.7618E+00  0.7620E+00  0.3015E+00  0.3011E+00
     -2.835  0.7468E+00  0.7467E+00  0.3449E+00  0.3445E+00
     -2.777  0.7857E+00  0.7850E+00  0.3905E+00  0.3900E+00
     -2.719  0.8429E+00  0.8427E+00  0.4394E+00  0.4390E+00
     -2.661  0.8089E+00  0.8095E+00  0.4864E+00  0.4860E+00
     -2.603  0.8015E+00  0.8008E+00  0.5329E+00  0.5325E+00
     -2.545  0.9355E+00  0.9340E+00  0.5873E+00  0.5867E+00
     -2.487  0.1055E+01  0.1054E+01  0.6485E+00  0.6479E+00
     -2.429  0.1089E+01  0.1089E+01  0.7118E+00  0.7111E+00
     -2.371  0.1076E+01  0.1077E+01  0.7743E+00  0.7736E+00
     -2.313  0.1022E+01  0.1023E+01  0.8336E+00  0.8331E+00
     -2.255  0.9445E+00  0.9452E+00  0.8884E+00  0.8879E+00
     -2.196  0.9250E+00  0.9245E+00  0.9421E+00  0.9416E+00
     -2.138  0.1063E+01  0.1061E+01  0.1004E+01  0.1003E+01
     -2.080  0.1259E+01  0.1257E+01  0.1077E+01  0.1076E+01
     -2.022  0.1333E+01  0.1333E+01  0.1154E+01  0.1154E+01
     -1.964  0.1334E+01  0.1334E+01  0.1232E+01  0.1231E+01
     -1.906  0.1354E+01  0.1354E+01  0.1310E+01  0.1310E+01
     -1.848  0.1261E+01  0.1263E+01  0.1384E+01  0.1383E+01
     -1.790  0.1103E+01  0.1104E+01  0.1448E+01  0.1447E+01
     -1.732  0.1117E+01  0.1116E+01  0.1513E+01  0.1512E+01
     -1.674  0.1325E+01  0.1323E+01  0.1590E+01  0.1589E+01
     -1.616  0.1571E+01  0.1569E+01  0.1681E+01  0.1680E+01
     -1.558  0.1653E+01  0.1654E+01  0.1777E+01  0.1776E+01
     -1.500  0.1577E+01  0.1578E+01  0.1868E+01  0.1867E+01
     -1.442  0.1467E+01  0.1468E+01  0.1953E+01  0.1953E+01
     -1.384  0.1411E+01  0.1411E+01  0.2035E+01  0.2035E+01
     -1.326  0.1388E+01  0.1388E+01  0.2116E+01  0.2115E+01
     -1.268  0.1440E+01  0.1438E+01  0.2200E+01  0.2199E+01
     -1.210  0.1600E+01  0.1598E+01  0.2293E+01  0.2292E+01
     -1.152  0.1642E+01  0.1642E+01  0.2388E+01  0.2387E+01
     -1.094  0.1513E+01  0.1514E+01  0.2476E+01  0.2475E+01
     -1.036  0.1326E+01  0.1328E+01  0.2553E+01  0.2552E+01
     -0.978  0.1169E+01  0.1170E+01  0.2621E+01  0.2620E+01
     -0.920  0.1123E+01  0.1123E+01  0.2686E+01  0.2685E+01
     -0.862  0.1257E+01  0.1255E+01  0.2759E+01  0.2758E+01
     -0.804  0.1519E+01  0.1516E+01  0.2847E+01  0.2846E+01
     -0.746  0.1704E+01  0.1703E+01  0.2946E+01  0.2945E+01
     -0.688  0.1661E+01  0.1662E+01  0.3042E+01  0.3042E+01
     -0.630  0.1510E+01  0.1512E+01  0.3130E+01  0.3129E+01
     -0.572  0.1417E+01  0.1418E+01  0.3212E+01  0.3212E+01
     -0.514  0.1379E+01  0.1379E+01  0.3293E+01  0.3292E+01
     -0.455  0.1520E+01  0.1517E+01  0.3381E+01  0.3380E+01
     -0.397  0.1716E+01  0.1714E+01  0.3480E+01  0.3479E+01
     -0.339  0.1748E+01  0.1748E+01  0.3582E+01  0.3581E+01
     -0.281  0.1762E+01  0.1762E+01  0.3684E+01  0.3683E+01
     -0.223  0.1729E+01  0.1730E+01  0.3785E+01  0.3784E+01
     -0.165  0.1587E+01  0.1589E+01  0.3877E+01  0.3876E+01
     -0.107  0.1540E+01  0.1539E+01  0.3966E+01  0.3965E+01
     -0.049  0.1687E+01  0.1684E+01  0.4064E+01  0.4063E+01
      0.009  0.1895E+01  0.1893E+01  0.4174E+01  0.4173E+01
      0.067  0.2027E+01  0.2026E+01  0.4292E+01  0.4291E+01
      0.125  0.2038E+01  0.2038E+01  0.4410E+01  0.4409E+01
      0.183  0.2027E+01  0.2028E+01  0.4528E+01  0.4527E+01
      0.241  0.1965E+01  0.1966E+01  0.4642E+01  0.4641E+01
      0.299  0.1865E+01  0.1866E+01  0.4750E+01  0.4749E+01
      0.357  0.1832E+01  0.1832E+01  0.4857E+01  0.4856E+01
      0.415  0.1830E+01  0.1830E+01  0.4963E+01  0.4962E+01
      0.473  0.1853E+01  0.1852E+01  0.5070E+01  0.5069E+01
      0.531  0.1894E+01  0.1894E+01  0.5180E+01  0.5179E+01
      0.589  0.1888E+01  0.1889E+01  0.5290E+01  0.5289E+01
      0.647  0.1823E+01  0.1824E+01  0.5396E+01  0.5395E+01
      0.705  0.1801E+01  0.1801E+01  0.5501E+01  0.5500E+01
      0.763  0.1926E+01  0.1924E+01  0.5612E+01  0.5611E+01
      0.821  0.2070E+01  0.2068E+01  0.5733E+01  0.5731E+01
      0.879  0.2101E+01  0.2101E+01  0.5855E+01  0.5853E+01
      0.937  0.2007E+01  0.2007E+01  0.5971E+01  0.5970E+01
      0.995  0.1943E+01  0.1943E+01  0.6084E+01  0.6083E+01
      1.053  0.1868E+01  0.1869E+01  0.6192E+01  0.6191E+01
      1.111  0.1838E+01  0.1838E+01  0.6299E+01  0.6298E+01
      1.169  0.1876E+01  0.1876E+01  0.6408E+01  0.6407E+01
      1.228  0.1944E+01  0.1943E+01  0.6521E+01  0.6520E+01
      1.286  0.2128E+01  0.2126E+01  0.6645E+01  0.6643E+01
      1.344  0.2299E+01  0.2298E+01  0.6778E+01  0.6777E+01
      1.402  0.2338E+01  0.2338E+01  0.6914E+01  0.6912E+01
      1.460  0.2318E+01  0.2319E+01  0.7048E+01  0.7047E+01
      1.518  0.2276E+01  0.2276E+01  0.7181E+01  0.7179E+01
      1.576  0.2177E+01  0.2178E+01  0.7307E+01  0.7306E+01
      1.634  0.2011E+01  0.2013E+01  0.7424E+01  0.7423E+01
      1.692  0.1957E+01  0.1957E+01  0.7537E+01  0.7536E+01
      1.750  0.2068E+01  0.2066E+01  0.7657E+01  0.7656E+01
      1.808  0.2293E+01  0.2291E+01  0.7791E+01  0.7789E+01
      1.866  0.2432E+01  0.2431E+01  0.7932E+01  0.7930E+01
      1.924  0.2380E+01  0.2381E+01  0.8070E+01  0.8069E+01
      1.982  0.2285E+01  0.2286E+01  0.8203E+01  0.8201E+01
      2.040  0.2253E+01  0.2253E+01  0.8334E+01  0.8332E+01
      2.098  0.2292E+01  0.2291E+01  0.8467E+01  0.8465E+01
      2.156  0.2346E+01  0.2345E+01  0.8603E+01  0.8601E+01
      2.214  0.2410E+01  0.2409E+01  0.8743E+01  0.8741E+01
      2.272  0.2381E+01  0.2382E+01  0.8881E+01  0.8880E+01
      2.330  0.2277E+01  0.2278E+01  0.9013E+01  0.9012E+01
      2.388  0.2251E+01  0.2251E+01  0.9144E+01  0.9143E+01
      2.446  0.2239E+01  0.2239E+01  0.9274E+01  0.9273E+01
      2.504  0.2211E+01  0.2211E+01  0.9402E+01  0.9401E+01
      2.562  0.2224E+01  0.2224E+01  0.9532E+01  0.9530E+01
      2.620  0.2329E+01  0.2328E+01  0.9667E+01  0.9665E+01
      2.678  0.2387E+01  0.2387E+01  0.9805E+01  0.9804E+01
      2.736  0.2350E+01  0.2350E+01  0.9942E+01  0.9940E+01
      2.794  0.2380E+01  0.2379E+01  0.1008E+02  0.1008E+02
      2.852  0.2497E+01  0.2495E+01  0.1022E+02  0.1022E+02
      2.910  0.2684E+01  0.2682E+01  0.1038E+02  0.1038E+02
      2.969  0.2795E+01  0.2795E+01  0.1054E+02  0.1054E+02
      3.027  0.2818E+01  0.2819E+01  0.1071E+02  0.1071E+02
      3.085  0.2767E+01  0.2768E+01  0.1087E+02  0.1087E+02
      3.143  0.2634E+01  0.2636E+01  0.1102E+02  0.1102E+02
      3.201  0.2437E+01  0.2438E+01  0.1116E+02  0.1116E+02
      3.259  0.2348E+01  0.2347E+01  0.1130E+02  0.1130E+02
      3.317  0.2565E+01  0.2562E+01  0.1145E+02  0.1145E+02
      3.375  0.2900E+01  0.2897E+01  0.1162E+02  0.1161E+02
      3.433  0.3005E+01  0.3006E+01  0.1179E+02  0.1179E+02
      3.491  0.2773E+01  0.2776E+01  0.1195E+02  0.1195E+02
      3.549  0.2540E+01  0.2542E+01  0.1210E+02  0.1210E+02
      3.607  0.2362E+01  0.2363E+01  0.1224E+02  0.1223E+02
      3.665  0.2257E+01  0.2257E+01  0.1237E+02  0.1237E+02
      3.723  0.2399E+01  0.2397E+01  0.1251E+02  0.1250E+02
      3.781  0.2773E+01  0.2769E+01  0.1267E+02  0.1267E+02
      3.839  0.3111E+01  0.3109E+01  0.1285E+02  0.1285E+02
      3.897  0.3171E+01  0.3172E+01  0.1303E+02  0.1303E+02
      3.955  0.2969E+01  0.2972E+01  0.1320E+02  0.1320E+02
      4.013  0.2680E+01  0.2682E+01  0.1336E+02  0.1336E+02
      4.071  0.2449E+01  0.2451E+01  0.1350E+02  0.1350E+02
      4.129  0.2376E+01  0.2375E+01  0.1364E+02  0.1364E+02
      4.187  0.2625E+01  0.2621E+01  0.1379E+02  0.1379E+02
      4.245  0.3110E+01  0.3105E+01  0.1397E+02  0.1397E+02
      4.303  0.3403E+01  0.3402E+01  0.1417E+02  0.1417E+02
      4.361  0.3266E+01  0.3268E+01  0.1436E+02  0.1436E+02
      4.419  0.3004E+01  0.3006E+01  0.1454E+02  0.1453E+02
      4.477  0.2849E+01  0.2850E+01  0.1470E+02  0.1470E+02
      4.535  0.2720E+01  0.2721E+01  0.1486E+02  0.1486E+02
      4.593  0.2611E+01  0.2612E+01  0.1501E+02  0.1501E+02
      4.651  0.2571E+01  0.2570E+01  0.1516E+02  0.1516E+02
      4.710  0.2784E+01  0.2780E+01  0.1532E+02  0.1532E+02
      4.768  0.3183E+01  0.3179E+01  0.1551E+02  0.1550E+02
      4.826  0.3338E+01  0.3338E+01  0.1570E+02  0.1570E+02
      4.884  0.3183E+01  0.3184E+01  0.1588E+02  0.1588E+02
      4.942  0.3084E+01  0.3083E+01  0.1606E+02  0.1606E+02
      5.000  0.3293E+01  0.3290E+01  0.1625E+02  0.1625E+02
      5.058  0.3431E+01  0.3432E+01  0.1645E+02  0.1645E+02
      5.116  0.3052E+01  0.3058E+01  0.1663E+02  0.1663E+02
      5.174  0.2503E+01  0.2507E+01  0.1678E+02  0.1678E+02
      5.232  0.2269E+01  0.2269E+01  0.1691E+02  0.1691E+02
      5.290  0.2361E+01  0.2359E+01  0.1705E+02  0.1704E+02
      5.348  0.2533E+01  0.2532E+01  0.1719E+02  0.1719E+02
      5.406  0.2761E+01  0.2759E+01  0.1735E+02  0.1735E+02
      5.464  0.2993E+01  0.2992E+01  0.1753E+02  0.1753E+02
      5.522  0.2965E+01  0.2967E+01  0.1770E+02  0.1770E+02
      5.580  0.2774E+01  0.2775E+01  0.1786E+02  0.1786E+02
      5.638  0.2876E+01  0.2873E+01  0.1803E+02  0.1803E+02
      5.696  0.3320E+01  0.3316E+01  0.1822E+02  0.1822E+02
      5.754  0.3563E+01  0.3563E+01  0.1843E+02  0.1842E+02
      5.812  0.3350E+01  0.3353E+01  0.1862E+02  0.1862E+02
      5.870  0.3042E+01  0.3044E+01  0.1880E+02  0.1880E+02
      5.928  0.2836E+01  0.2838E+01  0.1896E+02  0.1896E+02
      5.986  0.2675E+01  0.2676E+01  0.1912E+02  0.1912E+02
      6.044  0.2697E+01  0.2696E+01  0.1927E+02  0.1927E+02
      6.102  0.2798E+01  0.2798E+01  0.1944E+02  0.1944E+02
      6.160  0.2654E+01  0.2656E+01  0.1959E+02  0.1959E+02
      6.218  0.2436E+01  0.2438E+01  0.1973E+02  0.1973E+02
      6.276  0.2532E+01  0.2530E+01  0.1988E+02  0.1988E+02
      6.334  0.2935E+01  0.2930E+01  0.2005E+02  0.2005E+02
      6.393  0.3378E+01  0.3374E+01  0.2025E+02  0.2024E+02
      6.451  0.3641E+01  0.3640E+01  0.2046E+02  0.2046E+02
      6.509  0.3633E+01  0.3634E+01  0.2067E+02  0.2067E+02
      6.567  0.3429E+01  0.3432E+01  0.2087E+02  0.2087E+02
      6.625  0.3143E+01  0.3145E+01  0.2105E+02  0.2105E+02
      6.683  0.3049E+01  0.3048E+01  0.2123E+02  0.2123E+02
      6.741  0.3138E+01  0.3137E+01  0.2141E+02  0.2141E+02
      6.799  0.3192E+01  0.3193E+01  0.2159E+02  0.2159E+02
      6.857  0.2950E+01  0.2954E+01  0.2177E+02  0.2176E+02
      6.915  0.2709E+01  0.2710E+01  0.2192E+02  0.2192E+02
      6.973  0.2639E+01  0.2639E+01  0.2208E+02  0.2208E+02
      7.031  0.2608E+01  0.2608E+01  0.2223E+02  0.2223E+02
      7.089  0.2647E+01  0.2646E+01  0.2238E+02  0.2238E+02
      7.147  0.2792E+01  0.2790E+01  0.2254E+02  0.2254E+02
      7.205  0.3074E+01  0.3071E+01  0.2272E+02  0.2272E+02
      7.263  0.3345E+01  0.3343E+01  0.2292E+02  0.2291E+02
      7.321  0.3490E+01  0.3489E+01  0.2312E+02  0.2312E+02
      7.379  0.3535E+01  0.3535E+01  0.2332E+02  0.2332E+02
      7.437  0.3451E+01  0.3453E+01  0.2353E+02  0.2352E+02
      7.495  0.3241E+01  0.3243E+01  0.2371E+02  0.2371E+02
      7.553  0.3031E+01  0.3032E+01  0.2389E+02  0.2389E+02
      7.611  0.2828E+01  0.2830E+01  0.2405E+02  0.2405E+02
      7.669  0.2599E+01  0.2600E+01  0.2420E+02  0.2420E+02
      7.727  0.2634E+01  0.2632E+01  0.2436E+02  0.2436E+02
      7.785  0.2944E+01  0.2942E+01  0.2453E+02  0.2453E+02
      7.843  0.3089E+01  0.3089E+01  0.2471E+02  0.2471E+02
      7.901  0.3167E+01  0.3165E+01  0.2489E+02  0.2489E+02
      7.959  0.3533E+01  0.3529E+01  0.2510E+02  0.2509E+02
      8.017  0.3951E+01  0.3948E+01  0.2533E+02  0.2532E+02
      8.075  0.3991E+01  0.3993E+01  0.2556E+02  0.2556E+02
      8.134  0.3576E+01  0.3581E+01  0.2577E+02  0.2576E+02
      8.192  0.3173E+01  0.3175E+01  0.2595E+02  0.2595E+02
      8.250  0.3164E+01  0.3163E+01  0.2613E+02  0.2613E+02
      8.308  0.3249E+01  0.3249E+01  0.2632E+02  0.2632E+02
      8.366  0.3192E+01  0.3193E+01  0.2651E+02  0.2651E+02
      8.424  0.3280E+01  0.3278E+01  0.2670E+02  0.2670E+02
      8.482  0.3589E+01  0.3586E+01  0.2691E+02  0.2690E+02
      8.540  0.3682E+01  0.3683E+01  0.2712E+02  0.2712E+02
      8.598  0.3598E+01  0.3598E+01  0.2733E+02  0.2733E+02
      8.656  0.3534E+01  0.3534E+01  0.2753E+02  0.2753E+02
      8.714  0.3462E+01  0.3462E+01  0.2774E+02  0.2773E+02
      8.772  0.3470E+01  0.3469E+01  0.2794E+02  0.2794E+02
      8.830  0.3422E+01  0.3423E+01  0.2814E+02  0.2813E+02
      8.888  0.3296E+01  0.3297E+01  0.2833E+02  0.2833E+02
      8.946  0.3230E+01  0.3231E+01  0.2851E+02  0.2851E+02
      9.004  0.3198E+01  0.3198E+01  0.2870E+02  0.2870E+02
      9.062  0.3271E+01  0.3269E+01  0.2889E+02  0.2889E+02
      9.120  0.3481E+01  0.3478E+01  0.2909E+02  0.2909E+02
      9.178  0.3670E+01  0.3669E+01  0.2931E+02  0.2930E+02
      9.236  0.3809E+01  0.3808E+01  0.2953E+02  0.2952E+02
      9.294  0.3854E+01  0.3854E+01  0.2975E+02  0.2975E+02
      9.352  0.3844E+01  0.3845E+01  0.2997E+02  0.2997E+02
      9.410  0.3775E+01  0.3776E+01  0.3019E+02  0.3019E+02
      9.468  0.3703E+01  0.3703E+01  0.3041E+02  0.3041E+02
      9.526  0.3656E+01  0.3657E+01  0.3062E+02  0.3062E+02
      9.584  0.3456E+01  0.3459E+01  0.3082E+02  0.3082E+02
      9.642  0.3141E+01  0.3144E+01  0.3100E+02  0.3100E+02
      9.700  0.2955E+01  0.2956E+01  0.3117E+02  0.3117E+02
      9.758  0.2926E+01  0.2925E+01  0.3134E+02  0.3134E+02
      9.817  0.3027E+01  0.3025E+01  0.3152E+02  0.3152E+02
      9.875  0.3305E+01  0.3302E+01  0.3171E+02  0.3171E+02
      9.933  0.3632E+01  0.3630E+01  0.3192E+02  0.3192E+02
      9.991  0.3710E+01  0.3710E+01  0.3214E+02  0.3214E+02
     10.049  0.3645E+01  0.3644E+01  0.3235E+02  0.3235E+02
     10.107  0.3900E+01  0.3895E+01  0.3258E+02  0.3257E+02
     10.165  0.4135E+01  0.4131E+01  0.3282E+02  0.3281E+02
     10.223  0.3989E+01  0.3982E+01  0.3305E+02  0.3305E+02
     10.281  0.3904E+01  0.3891E+01  0.3328E+02  0.3327E+02
     10.339  0.3884E+01  0.3873E+01  0.3350E+02  0.3350E+02
     10.397  0.3560E+01  0.3572E+01  0.3371E+02  0.3370E+02
     10.455  0.3140E+01  0.3181E+01  0.3389E+02  0.3389E+02
     10.513  0.3065E+01  0.3088E+01  0.3407E+02  0.3407E+02
     10.571  0.3078E+01  0.3061E+01  0.3425E+02  0.3425E+02
     10.629  0.2777E+01  0.2742E+01  0.3441E+02  0.3441E+02
     10.687  0.2521E+01  0.2500E+01  0.3455E+02  0.3455E+02
     10.745  0.2475E+01  0.2480E+01  0.3470E+02  0.3469E+02
     10.803  0.2411E+01  0.2409E+01  0.3484E+02  0.3483E+02
     10.861  0.2220E+01  0.2206E+01  0.3497E+02  0.3496E+02
     10.919  0.1953E+01  0.1947E+01  0.3508E+02  0.3508E+02
     10.977  0.1595E+01  0.1609E+01  0.3517E+02  0.3517E+02
     11.035  0.1312E+01  0.1327E+01  0.3525E+02  0.3525E+02
     11.093  0.1199E+01  0.1209E+01  0.3532E+02  0.3532E+02
     11.151  0.1173E+01  0.1161E+01  0.3539E+02  0.3538E+02
     11.209  0.1092E+01  0.1072E+01  0.3545E+02  0.3545E+02
     11.267  0.9455E+00  0.9617E+00  0.3551E+02  0.3550E+02
     11.325  0.8133E+00  0.8452E+00  0.3555E+02  0.3555E+02
     11.383  0.7276E+00  0.7474E+00  0.3560E+02  0.3559E+02
     11.441  0.6891E+00  0.7000E+00  0.3564E+02  0.3564E+02
     11.499  0.6495E+00  0.6638E+00  0.3567E+02  0.3567E+02
     11.558  0.6512E+00  0.6890E+00  0.3571E+02  0.3571E+02
     11.616  0.6915E+00  0.7652E+00  0.3575E+02  0.3576E+02
     11.674  0.6346E+00  0.7086E+00  0.3579E+02  0.3580E+02
     11.732  0.5506E+00  0.5904E+00  0.3582E+02  0.3583E+02
     11.790  0.5196E+00  0.5249E+00  0.3585E+02  0.3586E+02
     11.848  0.5387E+00  0.4932E+00  0.3588E+02  0.3589E+02
     11.906  0.5281E+00  0.4469E+00  0.3591E+02  0.3592E+02
     11.964  0.4142E+00  0.3565E+00  0.3594E+02  0.3594E+02
     12.022  0.2986E+00  0.2732E+00  0.3595E+02  0.3596E+02
     12.080  0.2134E+00  0.1974E+00  0.3597E+02  0.3597E+02
     12.138  0.1239E+00  0.1099E+00  0.3597E+02  0.3597E+02
     12.196  0.7587E-01  0.6204E-01  0.3598E+02  0.3598E+02
     12.254  0.8575E-01  0.6852E-01  0.3598E+02  0.3598E+02
     12.312  0.1129E+00  0.1031E+00  0.3599E+02  0.3599E+02
     12.370  0.9916E-01  0.1091E+00  0.3600E+02  0.3599E+02
     12.428  0.5344E-01  0.6826E-01  0.3600E+02  0.3600E+02
     12.486  0.2077E-01  0.2912E-01  0.3600E+02  0.3600E+02
     12.544  0.7033E-02  0.1020E-01  0.3600E+02  0.3600E+02
     12.602  0.2260E-02  0.3317E-02  0.3600E+02  0.3600E+02
     12.660  0.7137E-03  0.1051E-02  0.3600E+02  0.3600E+02
     12.718  0.0000E+00  0.2687E-03  0.3600E+02  0.3600E+02
     12.776  0.0000E+00  0.0000E+00  0.3600E+02  0.3600E+02
     12.834  0.0000E+00  0.0000E+00  0.3600E+02  0.3600E+02
     12.892  0.0000E+00  0.0000E+00  0.3600E+02  0.3600E+02
     12.950  0.0000E+00  0.0000E+00  0.3600E+02  0.3600E+02
     13.008  0.0000E+00  0.0000E+00  0.3600E+02  0.3600E+02
     13.066  0.0000E+00  0.0000E+00  0.3600E+02  0.3600E+02
     13.124  0.0000E+00  0.0000E+00  0.3600E+02  0.3600E+02
     13.12444348     -4.28571740  301      6.94398029      1.00000000
     -4.286  0.0000E+00  0.0000E+00  0.0000E+00  0.0000E+00  0.0000E+00  0.0000E+00  0.0000E+00  0.0000E+00  0.0000E+00  0.0000E+00  0.0000E+00  0.0000E+00  0.0000E+00  0.0000E+00  0.0000E+00  0.0000E+00  0.0000E+00  0.0000E+00
     -4.228  0.0000E+00  0.0000E+00  0.0000E+00  0.0000E+00  0.0000E+00  0.0000E+00  0.0000E+00  0.0000E+00  0.0000E+00  0.0000E+00  0.0000E+00  0.0000E+00  0.0000E+00  0.0000E+00  0.0000E+00  0.0000E+00  0.0000E+00  0.0000E+00
     -4.170  0.0000E+00  0.0000E+00  0.0000E+00  0.0000E+00  0.0000E+00  0.0000E+00  0.0000E+00  0.0000E+00  0.0000E+00  0.0000E+00  0.0000E+00  0.0000E+00  0.0000E+00  0.0000E+00  0.0000E+00  0.0000E+00  0.0000E+00  0.0000E+00
     -4.112  0.0000E+00  0.0000E+00  0.0000E+00  0.0000E+00  0.0000E+00  0.0000E+00  0.0000E+00  0.0000E+00  0.0000E+00  0.0000E+00  0.0000E+00  0.0000E+00  0.0000E+00  0.0000E+00  0.0000E+00  0.0000E+00  0.0000E+00  0.0000E+00
     -4.054  0.0000E+00  0.0000E+00  0.0000E+00  0.0000E+00  0.0000E+00  0.0000E+00  0.0000E+00  0.0000E+00  0.0000E+00  0.0000E+00  0.0000E+00  0.0000E+00  0.0000E+00  0.0000E+00  0.0000E+00  0.0000E+00  0.0000E+00  0.0000E+00
     -3.996  0.0000E+00  0.0000E+00  0.0000E+00  0.0000E+00  0.0000E+00  0.0000E+00  0.0000E+00  0.0000E+00  0.0000E+00  0.0000E+00  0.0000E+00  0.0000E+00  0.0000E+00  0.0000E+00  0.0000E+00  0.0000E+00  0.0000E+00  0.0000E+00
     -3.938  0.4380E-07  0.4329E-07  0.8812E-22  0.1311E-21  0.2813E-12  0.2743E-12  0.8812E-22  0.1311E-21  0.9742E-24  0.2361E-23  0.2958E-23  0.2130E-22  0.1007E-12  0.9713E-13  0.2958E-23  0.2130E-22  0.2111E-22  0.1927E-21
     -3.879  0.3697E-06  0.3654E-06  0.6071E-09  0.6003E-09  0.6362E-09  0.6292E-09  0.6071E-09  0.6003E-09  0.3792E-21  0.8938E-21  0.2382E-13  0.2437E-13  0.1526E-11  0.1488E-11  0.2382E-13  0.2437E-13  0.5472E-12  0.5413E-12
     -3.821  0.1475E-05  0.1458E-05  0.3821E-08  0.3778E-08  0.4163E-08  0.4116E-08  0.3821E-08  0.3778E-08  0.4526E-11  0.4475E-11  0.4547E-11  0.4504E-11  0.6340E-11  0.6185E-11  0.4547E-11  0.4504E-11  0.2257E-11  0.2230E-11
     -3.763  0.4527E-05  0.4475E-05  0.1224E-07  0.1211E-07  0.1353E-07  0.1338E-07  0.1224E-07  0.1211E-07  0.1872E-10  0.1849E-10  0.1975E-10  0.1955E-10  0.1822E-10  0.1776E-10  0.1975E-10  0.1955E-10  0.6140E-11  0.6068E-11
     -3.705  0.1430E-04  0.1413E-04  0.3964E-07  0.3920E-07  0.4241E-07  0.4194E-07  0.3964E-07  0.3920E-07  0.5089E-10  0.5028E-10  0.5340E-10  0.5287E-10  0.6949E-10  0.6788E-10  0.5340E-10  0.5287E-10  0.3105E-10  0.3070E-10
     -3.647  0.4592E-04  0.4540E-04  0.1384E-06  0.1368E-06  0.1460E-06  0.1444E-06  0.1384E-06  0.1368E-06  0.2102E-09  0.2077E-09  0.2100E-09  0.2079E-09  0.2513E-09  0.2458E-09  0.2100E-09  0.2079E-09  0.1242E-09  0.1228E-09
     -3.589  0.1399E-03  0.1384E-03  0.4359E-06  0.4312E-06  0.4625E-06  0.4575E-06  0.4359E-06  0.4312E-06  0.7183E-09  0.7100E-09  0.7249E-09  0.7176E-09  0.7659E-09  0.7494E-09  0.7249E-09  0.7176E-09  0.3798E-09  0.3756E-09
     -3.531  0.3914E-03  0.3877E-03  0.1291E-05  0.1278E-05  0.1378E-05  0.1363E-05  0.1291E-05  0.1278E-05  0.2133E-08  0.2109E-08  0.2158E-08  0.2137E-08  0.2212E-08  0.2166E-08  0.2158E-08  0.2137E-08  0.1126E-08  0.1114E-08
     -3.473  0.9342E-03  0.9271E-03  0.3527E-05  0.3496E-05  0.3791E-05  0.3757E-05  0.3527E-05  0.3496E-05  0.6418E-08  0.6350E-08  0.6476E-08  0.6417E-08  0.5813E-08  0.5708E-08  0.6476E-08  0.6417E-08  0.3183E-08  0.3152E-08
     -3.415  0.1752E-02  0.1743E-02  0.8089E-05  0.8033E-05  0.8706E-05  0.8646E-05  0.8089E-05  0.8033E-05  0.1710E-07  0.1695E-07  0.1730E-07  0.1716E-07  0.1315E-07  0.1295E-07  0.1730E-07  0.1716E-07  0.8207E-08  0.8134E-08
     -3.357  0.2532E-02  0.2525E-02  0.1518E-04  0.1510E-04  0.1601E-04  0.1593E-04  0.1518E-04  0.1510E-04  0.3767E-07  0.3739E-07  0.3791E-07  0.3767E-07  0.2715E-07  0.2676E-07  0.3791E-07  0.3767E-07  0.1965E-07  0.1948E-07
     -3.299  0.3121E-02  0.3115E-02  0.2538E-04  0.2526E-04  0.2602E-04  0.2591E-04  0.2538E-04  0.2526E-04  0.7415E-07  0.7368E-07  0.7261E-07  0.7221E-07  0.5561E-07  0.5503E-07  0.7261E-07  0.7221E-07  0.4363E-07  0.4332E-07
     -3.241  0.3878E-02  0.3868E-02  0.4037E-04  0.4021E-04  0.4247E-04  0.4228E-04  0.4037E-04  0.4021E-04  0.1409E-06  0.1401E-06  0.1377E-06  0.1369E-06  0.1025E-06  0.1017E-06  0.1377E-06  0.1369E-06  0.8069E-07  0.8032E-07
     -3.183  0.4647E-02  0.4642E-02  0.5582E-04  0.5570E-04  0.6266E-04  0.6249E-04  0.5582E-04  0.5570E-04  0.2362E-06  0.2353E-06  0.2380E-06  0.2370E-06  0.1471E-06  0.1464E-06  0.2380E-06  0.2370E-06  0.1137E-06  0.1134E-06
     -3.125  0.4659E-02  0.4661E-02  0.6452E-04  0.6446E-04  0.7332E-04  0.7327E-04  0.6452E-04  0.6446E-04  0.3350E-06  0.3341E-06  0.3362E-06  0.3353E-06  0.1754E-06  0.1747E-06  0.3362E-06  0.3353E-06  0.1398E-06  0.1394E-06
     -3.067  0.4486E-02  0.4483E-02  0.7780E-04  0.7759E-04  0.8105E-04  0.8091E-04  0.7780E-04  0.7759E-04  0.4735E-06  0.4719E-06  0.4630E-06  0.4614E-06  0.2351E-06  0.2337E-06  0.4630E-06  0.4614E-06  0.2132E-06  0.2119E-06
     -3.009  0.5215E-02  0.5203E-02  0.1096E-03  0.1092E-03  0.1067E-03  0.1064E-03  0.1096E-03  0.1092E-03  0.6916E-06  0.6895E-06  0.6901E-06  0.6878E-06  0.3871E-06  0.3843E-06  0.6901E-06  0.6878E-06  0.3838E-06  0.3815E-06
     -2.951  0.6099E-02  0.6093E-02  0.1413E-03  0.1411E-03  0.1417E-03  0.1414E-03  0.1413E-03  0.1411E-03  0.8997E-06  0.8981E-06  0.9065E-06  0.9050E-06  0.6133E-06  0.6099E-06  0.9065E-06  0.9050E-06  0.5816E-06  0.5797E-06
     -2.893  0.6214E-02  0.6214E-02  0.1530E-03  0.1529E-03  0.1706E-03  0.1704E-03  0.1530E-03  0.1529E-03  0.1108E-05  0.1105E-05  0.1082E-05  0.1080E-05  0.8044E-06  0.8019E-06  0.1082E-05  0.1080E-05  0.6596E-06  0.6593E-06
     -2.835  0.6015E-02  0.6014E-02  0.1609E-03  0.1607E-03  0.1919E-03  0.1917E-03  0.1609E-03  0.1607E-03  0.1504E-05  0.1498E-05  0.1403E-05  0.1399E-05  0.8791E-06  0.8776E-06  0.1403E-05  0.1399E-05  0.6350E-06  0.6346E-06
     -2.777  0.6246E-02  0.6240E-02  0.1885E-03  0.1882E-03  0.2149E-03  0.2146E-03  0.1885E-03  0.1882E-03  0.2075E-05  0.2070E-05  0.1963E-05  0.1957E-05  0.9299E-06  0.9278E-06  0.1963E-05  0.1957E-05  0.7130E-06  0.7105E-06
     -2.719  0.6624E-02  0.6622E-02  0.2184E-03  0.2183E-03  0.2448E-03  0.2446E-03  0.2184E-03  0.2183E-03  0.2413E-05  0.2412E-05  0.2544E-05  0.2540E-05  0.1040E-05  0.1037E-05  0.2544E-05  0.2540E-05  0.9342E-06  0.9304E-06
     -2.661  0.6277E-02  0.6282E-02  0.2281E-03  0.2280E-03  0.2447E-03  0.2449E-03  0.2281E-03  0.2280E-03  0.2363E-05  0.2363E-05  0.2667E-05  0.2667E-05  0.1191E-05  0.1187E-05  0.2667E-05  0.2667E-05  0.1255E-05  0.1249E-05
     -2.603  0.6111E-02  0.6106E-02  0.2608E-03  0.2603E-03  0.2371E-03  0.2370E-03  0.2608E-03  0.2603E-03  0.2764E-05  0.2755E-05  0.2726E-05  0.2722E-05  0.1559E-05  0.1551E-05  0.2726E-05  0.2722E-05  0.1778E-05  0.1770E-05
     -2.545  0.7015E-02  0.7003E-02  0.3270E-03  0.3265E-03  0.2986E-03  0.2977E-03  0.3270E-03  0.3265E-03  0.3961E-05  0.3948E-05  0.3461E-05  0.3450E-05  0.2260E-05  0.2247E-05  0.3461E-05  0.3450E-05  0.2276E-05  0.2270E-05
     -2.487  0.7800E-02  0.7795E-02  0.3656E-03  0.3655E-03  0.4008E-03  0.3999E-03  0.3656E-03  0.3655E-03  0.5011E-05  0.5003E-05  0.4504E-05  0.4493E-05  0.2947E-05  0.2936E-05  0.4504E-05  0.4493E-05  0.2408E-05  0.2404E-05
     -2.429  0.7943E-02  0.7942E-02  0.3818E-03  0.3817E-03  0.4635E-03  0.4633E-03  0.3818E-03  0.3817E-03  0.5618E-05  0.5613E-05  0.5507E-05  0.5496E-05  0.3233E-05  0.3226E-05  0.5507E-05  0.5496E-05  0.2489E-05  0.2483E-05
     -2.371  0.7749E-02  0.7751E-02  0.3970E-03  0.3970E-03  0.4766E-03  0.4766E-03  0.3970E-03  0.3970E-03  0.6104E-05  0.6100E-05  0.6392E-05  0.6382E-05  0.3197E-05  0.3192E-05  0.6392E-05  0.6382E-05  0.2659E-05  0.2655E-05
     -2.313  0.7251E-02  0.7256E-02  0.3845E-03  0.3847E-03  0.4944E-03  0.4942E-03  0.3845E-03  0.3847E-03  0.6448E-05  0.6445E-05  0.7177E-05  0.7168E-05  0.3136E-05  0.3132E-05  0.7177E-05  0.7168E-05  0.2461E-05  0.2461E-05
     -2.255  0.6591E-02  0.6596E-02  0.3690E-03  0.3689E-03  0.4868E-03  0.4873E-03  0.3690E-03  0.3689E-03  0.6967E-05  0.6958E-05  0.7564E-05  0.7562E-05  0.3058E-05  0.3054E-05  0.7564E-05  0.7562E-05  0.2269E-05  0.2264E-05
     -2.196  0.6330E-02  0.6327E-02  0.4215E-03  0.4206E-03  0.4278E-03  0.4283E-03  0.4215E-03  0.4206E-03  0.8425E-05  0.8404E-05  0.7524E-05  0.7520E-05  0.3283E-05  0.3271E-05  0.7524E-05  0.7520E-05  0.3061E-05  0.3045E-05
     -2.138  0.7106E-02  0.7094E-02  0.5509E-03  0.5495E-03  0.4474E-03  0.4465E-03  0.5509E-03  0.5495E-03  0.1056E-04  0.1054E-04  0.8621E-05  0.8598E-05  0.4336E-05  0.4315E-05  0.8621E-05  0.8598E-05  0.4838E-05  0.4815E-05
     -2.080  0.8224E-02  0.8215E-02  0.6617E-03  0.6612E-03  0.5966E-03  0.5948E-03  0.6617E-03  0.6612E-03  0.1169E-04  0.1169E-04  0.1125E-04  0.1122E-04  0.5662E-05  0.5641E-05  0.1125E-04  0.1122E-04  0.6414E-05  0.6399E-05
     -2.022  0.8498E-02  0.8498E-02  0.6746E-03  0.6748E-03  0.7705E-03  0.7692E-03  0.6746E-03  0.6748E-03  0.1183E-04  0.1182E-04  0.1351E-04  0.1349E-04  0.6535E-05  0.6519E-05  0.1351E-04  0.1349E-04  0.6643E-05  0.6640E-05
     -1.964  0.8287E-02  0.8286E-02  0.6775E-03  0.6772E-03  0.8587E-03  0.8584E-03  0.6775E-03  0.6772E-03  0.1354E-04  0.1351E-04  0.1458E-04  0.1456E-04  0.7105E-05  0.7091E-05  0.1458E-04  0.1456E-04  0.6407E-05  0.6402E-05
     -1.906  0.8248E-02  0.8249E-02  0.7246E-03  0.7244E-03  0.8741E-03  0.8741E-03  0.7246E-03  0.7244E-03  0.1622E-04  0.1620E-04  0.1584E-04  0.1582E-04  0.7372E-05  0.7361E-05  0.1584E-04  0.1582E-04  0.6648E-05  0.6643E-05
     -1.848  0.7524E-02  0.7535E-02  0.6760E-03  0.6771E-03  0.8804E-03  0.8804E-03  0.6760E-03  0.6771E-03  0.1627E-04  0.1628E-04  0.1633E-04  0.1633E-04  0.7279E-05  0.7270E-05  0.1633E-04  0.1633E-04  0.5956E-05  0.5966E-05
     -1.790  0.6354E-02  0.6361E-02  0.5825E-03  0.5828E-03  0.8745E-03  0.8747E-03  0.5825E-03  0.5828E-03  0.1622E-04  0.1620E-04  0.1561E-04  0.1561E-04  0.7286E-05  0.7275E-05  0.1561E-04  0.1561E-04  0.4656E-05  0.4661E-05
     -1.732  0.6227E-02  0.6221E-02  0.6454E-03  0.6440E-03  0.8672E-03  0.8671E-03  0.6454E-03  0.6440E-03  0.1997E-04  0.1991E-04  0.1727E-04  0.1723E-04  0.7390E-05  0.7379E-05  0.1727E-04  0.1723E-04  0.4965E-05  0.4949E-05
     -1.674  0.7157E-02  0.7146E-02  0.8442E-03  0.8421E-03  0.9728E-03  0.9711E-03  0.8442E-03  0.8421E-03  0.2503E-04  0.2498E-04  0.2293E-04  0.2285E-04  0.7735E-05  0.7717E-05  0.2293E-04  0.2285E-04  0.6961E-05  0.6933E-05
     -1.616  0.8091E-02  0.8085E-02  0.1042E-02  0.1040E-02  0.1213E-02  0.1211E-02  0.1042E-02  0.1040E-02  0.2750E-04  0.2749E-04  0.2934E-04  0.2927E-04  0.8750E-05  0.8727E-05  0.2934E-04  0.2927E-04  0.9499E-05  0.9469E-05
     -1.558  0.8029E-02  0.8033E-02  0.1130E-02  0.1130E-02  0.1378E-02  0.1377E-02  0.1130E-02  0.1130E-02  0.2644E-04  0.2645E-04  0.3197E-04  0.3194E-04  0.9689E-05  0.9672E-05  0.3197E-04  0.3194E-04  0.1129E-04  0.1127E-04
     -1.500  0.7230E-02  0.7238E-02  0.1129E-02  0.1129E-02  0.1357E-02  0.1358E-02  0.1129E-02  0.1129E-02  0.2588E-04  0.2586E-04  0.3168E-04  0.3168E-04  0.9593E-05  0.9588E-05  0.3168E-04  0.3168E-04  0.1148E-04  0.1148E-04
     -1.442  0.6324E-02  0.6332E-02  0.1133E-02  0.1133E-02  0.1239E-02  0.1240E-02  0.1133E-02  0.1133E-02  0.2816E-04  0.2812E-04  0.3026E-04  0.3026E-04  0.8832E-05  0.8826E-05  0.3026E-04  0.3026E-04  0.1097E-04  0.1097E-04
     -1.384  0.5651E-02  0.5655E-02  0.1177E-02  0.1177E-02  0.1165E-02  0.1166E-02  0.1177E-02  0.1177E-02  0.3217E-04  0.3211E-04  0.2938E-04  0.2937E-04  0.8845E-05  0.8828E-05  0.2938E-04  0.2937E-04  0.1061E-04  0.1061E-04