  16  16   1   0
  0.1341681E+02  0.3742269E-09  0.3742269E-09  0.1532849E-08  0.5000000E-15
  1.000000000000000E-004
  CAR 
 unknown system                          
     16.29145010     -3.62281606  301      9.16632970      1.00000000
     -3.623  0.0000E+00  0.0000E+00  0.0000E+00  0.0000E+00
     -3.556  0.0000E+00  0.0000E+00  0.0000E+00  0.0000E+00
     -3.490  0.0000E+00  0.0000E+00  0.0000E+00  0.0000E+00
     -3.424  0.0000E+00  0.0000E+00  0.0000E+00  0.0000E+00
     -3.357  0.0000E+00  0.0000E+00  0.0000E+00  0.0000E+00
     -3.291  0.0000E+00  0.0000E+00  0.0000E+00  0.0000E+00
     -3.225  0.0000E+00  0.0000E+00  0.0000E+00  0.0000E+00
     -3.158  0.4431E-05  0.4388E-05  0.2941E-06  0.2913E-06
     -3.092  0.3988E-04  0.3949E-04  0.2941E-05  0.2912E-05
     -3.025  0.1799E-03  0.1782E-03  0.1489E-04  0.1474E-04
     -2.959  0.6590E-03  0.6526E-03  0.5863E-04  0.5806E-04
     -2.893  0.2451E-02  0.2427E-02  0.2213E-03  0.2192E-03
     -2.826  0.8983E-02  0.8899E-02  0.8176E-03  0.8099E-03
     -2.760  0.2987E-01  0.2962E-01  0.2801E-02  0.2776E-02
     -2.693  0.8188E-01  0.8135E-01  0.8236E-02  0.8176E-02
     -2.627  0.1679E+00  0.1672E+00  0.1938E-01  0.1927E-01
     -2.561  0.2487E+00  0.2482E+00  0.3589E-01  0.3575E-01
     -2.494  0.2986E+00  0.2982E+00  0.5571E-01  0.5555E-01
     -2.428  0.3763E+00  0.3755E+00  0.8069E-01  0.8048E-01
     -2.362  0.4800E+00  0.4795E+00  0.1126E+00  0.1123E+00
     -2.295  0.4798E+00  0.4802E+00  0.1444E+00  0.1442E+00
     -2.229  0.4299E+00  0.4298E+00  0.1729E+00  0.1727E+00
     -2.162  0.5167E+00  0.5156E+00  0.2073E+00  0.2070E+00
     -2.096  0.6495E+00  0.6488E+00  0.2504E+00  0.2500E+00
     -2.030  0.6702E+00  0.6704E+00  0.2949E+00  0.2946E+00
     -1.963  0.6341E+00  0.6343E+00  0.3370E+00  0.3367E+00
     -1.897  0.6581E+00  0.6575E+00  0.3807E+00  0.3804E+00
     -1.831  0.7413E+00  0.7409E+00  0.4299E+00  0.4295E+00
     -1.764  0.7118E+00  0.7126E+00  0.4772E+00  0.4769E+00
     -1.698  0.6453E+00  0.6454E+00  0.5201E+00  0.5197E+00
     -1.631  0.7686E+00  0.7672E+00  0.5711E+00  0.5707E+00
     -1.565  0.9140E+00  0.9133E+00  0.6318E+00  0.6313E+00
     -1.499  0.9498E+00  0.9498E+00  0.6949E+00  0.6944E+00
     -1.432  0.9462E+00  0.9463E+00  0.7577E+00  0.7573E+00
     -1.366  0.9065E+00  0.9069E+00  0.8179E+00  0.8175E+00
     -1.299  0.8291E+00  0.8298E+00  0.8730E+00  0.8726E+00
     -1.233  0.7563E+00  0.7565E+00  0.9232E+00  0.9229E+00
     -1.167  0.8357E+00  0.8344E+00  0.9788E+00  0.9783E+00
     -1.100  0.1052E+01  0.1050E+01  0.1049E+01  0.1048E+01
     -1.034  0.1169E+01  0.1169E+01  0.1126E+01  0.1126E+01
     -0.968  0.1146E+01  0.1146E+01  0.1202E+01  0.1202E+01
     -0.901  0.1179E+01  0.1178E+01  0.1281E+01  0.1280E+01
     -0.835  0.1169E+01  0.1170E+01  0.1358E+01  0.1358E+01
     -0.768  0.9744E+00  0.9759E+00  0.1423E+01  0.1423E+01
     -0.702  0.8846E+00  0.8843E+00  0.1482E+01  0.1481E+01
     -0.636  0.1024E+01  0.1023E+01  0.1550E+01  0.1549E+01
     -0.569  0.1281E+01  0.1279E+01  0.1635E+01  0.1634E+01
     -0.503  0.1446E+01  0.1445E+01  0.1731E+01  0.1730E+01
     -0.437  0.1417E+01  0.1418E+01  0.1825E+01  0.1824E+01
     -0.370  0.1303E+01  0.1304E+01  0.1912E+01  0.1911E+01
     -0.304  0.1208E+01  0.1209E+01  0.1992E+01  0.1991E+01
     -0.237  0.1206E+01  0.1206E+01  0.2072E+01  0.2071E+01
     -0.171  0.1193E+01  0.1193E+01  0.2151E+01  0.2151E+01
     -0.105  0.1302E+01  0.1300E+01  0.2238E+01  0.2237E+01
     -0.038  0.1465E+01  0.1464E+01  0.2335E+01  0.2334E+01
      0.028  0.1422E+01  0.1423E+01  0.2429E+01  0.2429E+01
      0.095  0.1258E+01  0.1259E+01  0.2513E+01  0.2512E+01
      0.161  0.1083E+01  0.1084E+01  0.2585E+01  0.2584E+01
      0.227  0.9671E+00  0.9677E+00  0.2649E+01  0.2649E+01
      0.294  0.9758E+00  0.9751E+00  0.2714E+01  0.2714E+01
      0.360  0.1177E+01  0.1175E+01  0.2792E+01  0.2792E+01
      0.426  0.1451E+01  0.1449E+01  0.2889E+01  0.2888E+01
      0.493  0.1548E+01  0.1548E+01  0.2991E+01  0.2991E+01
      0.559  0.1421E+01  0.1422E+01  0.3086E+01  0.3085E+01
      0.626  0.1300E+01  0.1300E+01  0.3172E+01  0.3171E+01
      0.692  0.1229E+01  0.1230E+01  0.3254E+01  0.3253E+01
      0.758  0.1235E+01  0.1234E+01  0.3336E+01  0.3335E+01
      0.825  0.1421E+01  0.1420E+01  0.3430E+01  0.3430E+01
      0.891  0.1515E+01  0.1515E+01  0.3531E+01  0.3530E+01
      0.957  0.1536E+01  0.1536E+01  0.3633E+01  0.3632E+01
      1.024  0.1586E+01  0.1586E+01  0.3738E+01  0.3737E+01
      1.090  0.1455E+01  0.1456E+01  0.3835E+01  0.3834E+01
      1.157  0.1282E+01  0.1283E+01  0.3920E+01  0.3919E+01
      1.223  0.1361E+01  0.1360E+01  0.4010E+01  0.4010E+01
      1.289  0.1564E+01  0.1563E+01  0.4114E+01  0.4114E+01
      1.356  0.1714E+01  0.1713E+01  0.4228E+01  0.4227E+01
      1.422  0.1802E+01  0.1802E+01  0.4348E+01  0.4347E+01
      1.489  0.1802E+01  0.1802E+01  0.4468E+01  0.4467E+01
      1.555  0.1750E+01  0.1750E+01  0.4584E+01  0.4583E+01
      1.621  0.1645E+01  0.1646E+01  0.4693E+01  0.4692E+01
      1.688  0.1571E+01  0.1572E+01  0.4797E+01  0.4797E+01
      1.754  0.1580E+01  0.1579E+01  0.4902E+01  0.4902E+01
      1.820  0.1620E+01  0.1619E+01  0.5010E+01  0.5009E+01
      1.887  0.1693E+01  0.1693E+01  0.5122E+01  0.5122E+01
      1.953  0.1711E+01  0.1711E+01  0.5236E+01  0.5235E+01
      2.020  0.1616E+01  0.1617E+01  0.5343E+01  0.5343E+01
      2.086  0.1522E+01  0.1522E+01  0.5444E+01  0.5444E+01
      2.152  0.1603E+01  0.1601E+01  0.5551E+01  0.5550E+01
      2.219  0.1774E+01  0.1773E+01  0.5669E+01  0.5668E+01
      2.285  0.1851E+01  0.1851E+01  0.5792E+01  0.5791E+01
      2.351  0.1804E+01  0.1804E+01  0.5912E+01  0.5911E+01
      2.418  0.1738E+01  0.1738E+01  0.6027E+01  0.6026E+01
      2.484  0.1723E+01  0.1724E+01  0.6141E+01  0.6141E+01
      2.551  0.1643E+01  0.1643E+01  0.6250E+01  0.6250E+01
      2.617  0.1694E+01  0.1694E+01  0.6363E+01  0.6362E+01
      2.683  0.1739E+01  0.1739E+01  0.6479E+01  0.6478E+01
      2.750  0.1820E+01  0.1819E+01  0.6599E+01  0.6599E+01
      2.816  0.2022E+01  0.2021E+01  0.6734E+01  0.6733E+01
      2.883  0.2078E+01  0.2078E+01  0.6872E+01  0.6871E+01
      2.949  0.2084E+01  0.2084E+01  0.7010E+01  0.7009E+01
      3.015  0.1999E+01  0.2000E+01  0.7143E+01  0.7142E+01
      3.082  0.1868E+01  0.1869E+01  0.7267E+01  0.7266E+01
      3.148  0.1746E+01  0.1747E+01  0.7383E+01  0.7382E+01
      3.214  0.1701E+01  0.1701E+01  0.7496E+01  0.7495E+01
      3.281  0.1739E+01  0.1738E+01  0.7612E+01  0.7611E+01
      3.347  0.1971E+01  0.1969E+01  0.7742E+01  0.7741E+01
      3.414  0.2244E+01  0.2243E+01  0.7891E+01  0.7890E+01
      3.480  0.2153E+01  0.2155E+01  0.8035E+01  0.8034E+01
      3.546  0.1939E+01  0.1939E+01  0.8163E+01  0.8162E+01
      3.613  0.1931E+01  0.1931E+01  0.8292E+01  0.8291E+01
      3.679  0.2063E+01  0.2062E+01  0.8429E+01  0.8428E+01
      3.745  0.2170E+01  0.2170E+01  0.8573E+01  0.8572E+01
      3.812  0.2219E+01  0.2219E+01  0.8720E+01  0.8719E+01
      3.878  0.2222E+01  0.2223E+01  0.8868E+01  0.8867E+01
      3.945  0.2110E+01  0.2111E+01  0.9008E+01  0.9007E+01
      4.011  0.2078E+01  0.2078E+01  0.9146E+01  0.9145E+01
      4.077  0.2080E+01  0.2080E+01  0.9284E+01  0.9283E+01
      4.144  0.2015E+01  0.2015E+01  0.9418E+01  0.9417E+01
      4.210  0.1950E+01  0.1950E+01  0.9548E+01  0.9547E+01
      4.277  0.2079E+01  0.2077E+01  0.9686E+01  0.9685E+01
      4.343  0.2313E+01  0.2311E+01  0.9839E+01  0.9838E+01
      4.409  0.2373E+01  0.2374E+01  0.9997E+01  0.9996E+01
      4.476  0.2175E+01  0.2176E+01  0.1014E+02  0.1014E+02
      4.542  0.2213E+01  0.2211E+01  0.1029E+02  0.1029E+02
      4.608  0.2532E+01  0.2530E+01  0.1046E+02  0.1046E+02
      4.675  0.2674E+01  0.2674E+01  0.1063E+02  0.1063E+02
      4.741  0.2641E+01  0.2642E+01  0.1081E+02  0.1081E+02
      4.808  0.2374E+01  0.2377E+01  0.1097E+02  0.1097E+02
      4.874  0.2149E+01  0.2150E+01  0.1111E+02  0.1111E+02
      4.940  0.2203E+01  0.2202E+01  0.1126E+02  0.1126E+02
      5.007  0.2373E+01  0.2372E+01  0.1141E+02  0.1141E+02
      5.073  0.2444E+01  0.2444E+01  0.1158E+02  0.1158E+02
      5.139  0.2374E+01  0.2375E+01  0.1173E+02  0.1173E+02
      5.206  0.2280E+01  0.2281E+01  0.1189E+02  0.1188E+02
      5.272  0.2224E+01  0.2224E+01  0.1203E+02  0.1203E+02
      5.339  0.2263E+01  0.2262E+01  0.1218E+02  0.1218E+02
      5.405  0.2256E+01  0.2257E+01  0.1233E+02  0.1233E+02
      5.471  0.2129E+01  0.2130E+01  0.1247E+02  0.1247E+02
      5.538  0.2142E+01  0.2140E+01  0.1262E+02  0.1262E+02
      5.604  0.2475E+01  0.2472E+01  0.1278E+02  0.1278E+02
      5.671  0.2699E+01  0.2699E+01  0.1296E+02  0.1296E+02
      5.737  0.2484E+01  0.2487E+01  0.1313E+02  0.1312E+02
      5.803  0.2116E+01  0.2118E+01  0.1327E+02  0.1327E+02
      5.870  0.2034E+01  0.2033E+01  0.1340E+02  0.1340E+02
      5.936  0.2210E+01  0.2208E+01  0.1355E+02  0.1355E+02
      6.002  0.2543E+01  0.2540E+01  0.1372E+02  0.1372E+02
      6.069  0.2814E+01  0.2812E+01  0.1390E+02  0.1390E+02
      6.135  0.3007E+01  0.3006E+01  0.1410E+02  0.1410E+02
      6.202  0.2715E+01  0.2719E+01  0.1428E+02  0.1428E+02
      6.268  0.2301E+01  0.2303E+01  0.1444E+02  0.1444E+02
      6.334  0.2277E+01  0.2277E+01  0.1459E+02  0.1459E+02
      6.401  0.2261E+01  0.2262E+01  0.1474E+02  0.1474E+02
      6.467  0.2303E+01  0.2301E+01  0.1489E+02  0.1489E+02
      6.533  0.2685E+01  0.2682E+01  0.1507E+02  0.1507E+02
      6.600  0.2898E+01  0.2899E+01  0.1526E+02  0.1526E+02
      6.666  0.2632E+01  0.2634E+01  0.1544E+02  0.1544E+02
      6.733  0.2533E+01  0.2532E+01  0.1561E+02  0.1560E+02
      6.799  0.2716E+01  0.2715E+01  0.1579E+02  0.1578E+02
      6.865  0.2689E+01  0.2691E+01  0.1596E+02  0.1596E+02
      6.932  0.2525E+01  0.2526E+01  0.1613E+02  0.1613E+02
      6.998  0.2405E+01  0.2406E+01  0.1629E+02  0.1629E+02
      7.065  0.2408E+01  0.2407E+01  0.1645E+02  0.1645E+02
      7.131  0.2670E+01  0.2669E+01  0.1663E+02  0.1663E+02
      7.197  0.2665E+01  0.2667E+01  0.1681E+02  0.1681E+02
      7.264  0.2370E+01  0.2372E+01  0.1696E+02  0.1696E+02
      7.330  0.2185E+01  0.2186E+01  0.1711E+02  0.1711E+02
      7.396  0.2176E+01  0.2176E+01  0.1725E+02  0.1725E+02
      7.463  0.2189E+01  0.2189E+01  0.1740E+02  0.1740E+02
      7.529  0.2160E+01  0.2159E+01  0.1754E+02  0.1754E+02
      7.596  0.2363E+01  0.2361E+01  0.1770E+02  0.1770E+02
      7.662  0.2645E+01  0.2644E+01  0.1788E+02  0.1787E+02
      7.728  0.2671E+01  0.2672E+01  0.1805E+02  0.1805E+02
      7.795  0.2640E+01  0.2640E+01  0.1823E+02  0.1823E+02
      7.861  0.2701E+01  0.2701E+01  0.1841E+02  0.1841E+02
      7.927  0.2777E+01  0.2777E+01  0.1859E+02  0.1859E+02
      7.994  0.2875E+01  0.2874E+01  0.1878E+02  0.1878E+02
      8.060  0.2890E+01  0.2891E+01  0.1897E+02  0.1897E+02
      8.127  0.2671E+01  0.2673E+01  0.1915E+02  0.1915E+02
      8.193  0.2498E+01  0.2499E+01  0.1932E+02  0.1932E+02
      8.259  0.2548E+01  0.2547E+01  0.1949E+02  0.1949E+02
      8.326  0.2531E+01  0.2531E+01  0.1966E+02  0.1965E+02
      8.392  0.2421E+01  0.2422E+01  0.1982E+02  0.1982E+02
      8.459  0.2497E+01  0.2495E+01  0.1998E+02  0.1998E+02
      8.525  0.2800E+01  0.2797E+01  0.2017E+02  0.2017E+02
      8.591  0.3199E+01  0.3196E+01  0.2038E+02  0.2038E+02
      8.658  0.3545E+01  0.3544E+01  0.2062E+02  0.2061E+02
      8.724  0.3484E+01  0.3486E+01  0.2085E+02  0.2085E+02
      8.790  0.3033E+01  0.3037E+01  0.2105E+02  0.2105E+02
      8.857  0.2557E+01  0.2560E+01  0.2122E+02  0.2122E+02
      8.923  0.2364E+01  0.2364E+01  0.2138E+02  0.2137E+02
      8.990  0.2573E+01  0.2571E+01  0.2155E+02  0.2155E+02
      9.056  0.2818E+01  0.2819E+01  0.2173E+02  0.2173E+02
      9.122  0.2539E+01  0.2543E+01  0.2190E+02  0.2190E+02
      9.189  0.2199E+01  0.2200E+01  0.2205E+02  0.2205E+02
      9.255  0.2282E+01  0.2281E+01  0.2220E+02  0.2220E+02
      9.321  0.2677E+01  0.2673E+01  0.2238E+02  0.2238E+02
      9.388  0.3030E+01  0.3028E+01  0.2258E+02  0.2258E+02
      9.454  0.3038E+01  0.3038E+01  0.2278E+02  0.2278E+02
      9.521  0.2926E+01  0.2927E+01  0.2298E+02  0.2297E+02
      9.587  0.2759E+01  0.2760E+01  0.2316E+02  0.2316E+02
      9.653  0.2674E+01  0.2674E+01  0.2334E+02  0.2334E+02
      9.720  0.2714E+01  0.2714E+01  0.2352E+02  0.2352E+02
      9.786  0.2649E+01  0.2650E+01  0.2369E+02  0.2369E+02
      9.853  0.2475E+01  0.2477E+01  0.2386E+02  0.2386E+02
      9.919  0.2200E+01  0.2202E+01  0.2400E+02  0.2400E+02
      9.985  0.1999E+01  0.1999E+01  0.2414E+02  0.2414E+02
     10.052  0.2114E+01  0.2112E+01  0.2428E+02  0.2428E+02
     10.118  0.2424E+01  0.2422E+01  0.2444E+02  0.2444E+02
     10.184  0.2581E+01  0.2581E+01  0.2461E+02  0.2461E+02
     10.251  0.2546E+01  0.2546E+01  0.2478E+02  0.2478E+02
     10.317  0.2644E+01  0.2643E+01  0.2495E+02  0.2495E+02
     10.384  0.3008E+01  0.3006E+01  0.2515E+02  0.2515E+02
     10.450  0.3178E+01  0.3179E+01  0.2536E+02  0.2536E+02
     10.516  0.2913E+01  0.2915E+01  0.2556E+02  0.2556E+02
     10.583  0.2574E+01  0.2576E+01  0.2573E+02  0.2573E+02
     10.649  0.2621E+01  0.2619E+01  0.2590E+02  0.2590E+02
     10.715  0.3329E+01  0.3323E+01  0.2612E+02  0.2612E+02
     10.782  0.3981E+01  0.3979E+01  0.2639E+02  0.2639E+02
     10.848  0.3857E+01  0.3860E+01  0.2665E+02  0.2664E+02
     10.915  0.3341E+01  0.3345E+01  0.2687E+02  0.2687E+02
     10.981  0.2993E+01  0.2995E+01  0.2707E+02  0.2706E+02
     11.047  0.2933E+01  0.2933E+01  0.2726E+02  0.2726E+02
     11.114  0.3019E+01  0.3019E+01  0.2746E+02  0.2746E+02
     11.180  0.2924E+01  0.2926E+01  0.2766E+02  0.2765E+02
     11.247  0.2749E+01  0.2749E+01  0.2784E+02  0.2784E+02
     11.313  0.2814E+01  0.2813E+01  0.2803E+02  0.2802E+02
     11.379  0.2814E+01  0.2814E+01  0.2821E+02  0.2821E+02
     11.446  0.2644E+01  0.2645E+01  0.2839E+02  0.2839E+02
     11.512  0.2580E+01  0.2579E+01  0.2856E+02  0.2856E+02
     11.578  0.2753E+01  0.2751E+01  0.2874E+02  0.2874E+02
     11.645  0.3088E+01  0.3085E+01  0.2895E+02  0.2895E+02
     11.711  0.3410E+01  0.3408E+01  0.2917E+02  0.2917E+02
     11.778  0.3527E+01  0.3527E+01  0.2941E+02  0.2941E+02
     11.844  0.3467E+01  0.3468E+01  0.2964E+02  0.2964E+02
     11.910  0.3359E+01  0.3361E+01  0.2986E+02  0.2986E+02
     11.977  0.2972E+01  0.2975E+01  0.3006E+02  0.3006E+02
     12.043  0.2606E+01  0.2608E+01  0.3023E+02  0.3023E+02
     12.109  0.2614E+01  0.2613E+01  0.3041E+02  0.3040E+02
     12.176  0.2732E+01  0.2731E+01  0.3059E+02  0.3059E+02
     12.242  0.2779E+01  0.2779E+01  0.3077E+02  0.3077E+02
     12.309  0.2808E+01  0.2807E+01  0.3096E+02  0.3096E+02
     12.375  0.3000E+01  0.2998E+01  0.3116E+02  0.3116E+02
     12.441  0.3346E+01  0.3345E+01  0.3138E+02  0.3138E+02
     12.508  0.3374E+01  0.3376E+01  0.3160E+02  0.3160E+02
     12.574  0.3052E+01  0.3055E+01  0.3181E+02  0.3181E+02
     12.641  0.2761E+01  0.2763E+01  0.3199E+02  0.3199E+02
     12.707  0.2842E+01  0.2845E+01  0.3218E+02  0.3218E+02
     12.773  0.3040E+01  0.3043E+01  0.3238E+02  0.3238E+02
     12.840  0.3207E+01  0.3202E+01  0.3259E+02  0.3259E+02
     12.906  0.3499E+01  0.3492E+01  0.3283E+02  0.3282E+02
     12.972  0.3475E+01  0.3475E+01  0.3306E+02  0.3306E+02
     13.039  0.2963E+01  0.2967E+01  0.3325E+02  0.3325E+02
     13.105  0.2403E+01  0.2397E+01  0.3341E+02  0.3341E+02
     13.172  0.2046E+01  0.2056E+01  0.3355E+02  0.3355E+02
     13.238  0.2004E+01  0.2027E+01  0.3368E+02  0.3368E+02
     13.304  0.2384E+01  0.2386E+01  0.3384E+02  0.3384E+02
     13.371  0.2816E+01  0.2813E+01  0.3403E+02  0.3403E+02
     13.437  0.2908E+01  0.2923E+01  0.3422E+02  0.3422E+02
     13.503  0.2661E+01  0.2685E+01  0.3440E+02  0.3440E+02
     13.570  0.2370E+01  0.2372E+01  0.3456E+02  0.3456E+02
     13.636  0.2259E+01  0.2260E+01  0.3471E+02  0.3471E+02
     13.703  0.2221E+01  0.2224E+01  0.3485E+02  0.3486E+02
     13.769  0.2086E+01  0.2068E+01  0.3499E+02  0.3499E+02
     13.835  0.1816E+01  0.1782E+01  0.3511E+02  0.3511E+02
     13.902  0.1520E+01  0.1511E+01  0.3521E+02  0.3521E+02
     13.968  0.1297E+01  0.1358E+01  0.3530E+02  0.3530E+02
     14.034  0.1150E+01  0.1190E+01  0.3538E+02  0.3538E+02
     14.101  0.9880E+00  0.9508E+00  0.3544E+02  0.3545E+02
     14.167  0.7672E+00  0.7294E+00  0.3549E+02  0.3549E+02
     14.234  0.6640E+00  0.6455E+00  0.3554E+02  0.3554E+02
     14.300  0.6819E+00  0.6693E+00  0.3558E+02  0.3558E+02
     14.366  0.6925E+00  0.6737E+00  0.3563E+02  0.3563E+02
     14.433  0.6350E+00  0.6123E+00  0.3567E+02  0.3567E+02
     14.499  0.5863E+00  0.5779E+00  0.3571E+02  0.3571E+02
     14.566  0.5777E+00  0.5605E+00  0.3575E+02  0.3574E+02
     14.632  0.5239E+00  0.5005E+00  0.3578E+02  0.3578E+02
     14.698  0.4952E+00  0.4862E+00  0.3582E+02  0.3581E+02
     14.765  0.5592E+00  0.5756E+00  0.3585E+02  0.3585E+02
     14.831  0.6656E+00  0.7119E+00  0.3590E+02  0.3589E+02
     14.897  0.6502E+00  0.6840E+00  0.3594E+02  0.3594E+02
     14.964  0.3673E+00  0.3786E+00  0.3596E+02  0.3596E+02
     15.030  0.1318E+00  0.1341E+00  0.3597E+02  0.3597E+02
     15.097  0.3941E-01  0.3957E-01  0.3598E+02  0.3598E+02
     15.163  0.1488E-01  0.1401E-01  0.3598E+02  0.3598E+02
     15.229  0.1919E-01  0.1686E-01  0.3598E+02  0.3598E+02
     15.296  0.4863E-01  0.4510E-01  0.3598E+02  0.3598E+02
     15.362  0.9530E-01  0.9784E-01  0.3599E+02  0.3599E+02
     15.428  0.1027E+00  0.1082E+00  0.3599E+02  0.3599E+02
     15.495  0.5789E-01  0.5799E-01  0.3600E+02  0.3600E+02
     15.561  0.2058E-01  0.1979E-01  0.3600E+02  0.3600E+02
     15.628  0.5969E-02  0.5653E-02  0.3600E+02  0.3600E+02
     15.694  0.1622E-02  0.1530E-02  0.3600E+02  0.3600E+02
     15.760  0.3697E-03  0.4077E-03  0.3600E+02  0.3600E+02
     15.827  0.0000E+00  0.0000E+00  0.3600E+02  0.3600E+02
     15.893  0.0000E+00  0.0000E+00  0.3600E+02  0.3600E+02
     15.960  0.0000E+00  0.0000E+00  0.3600E+02  0.3600E+02
     16.026  0.0000E+00  0.0000E+00  0.3600E+02  0.3600E+02
     16.092  0.0000E+00  0.0000E+00  0.3600E+02  0.3600E+02
     16.159  0.0000E+00  0.0000E+00  0.3600E+02  0.3600E+02
     16.225  0.0000E+00  0.0000E+00  0.3600E+02  0.3600E+02
     16.291  0.0000E+00  0.0000E+00  0.3600E+02  0.3600E+02
     16.29145010     -3.62281606  301      9.16632970      1.00000000
     -3.623  0.0000E+00  0.0000E+00  0.0000E+00  0.0000E+00  0.0000E+00  0.0000E+00  0.0000E+00  0.0000E+00  0.0000E+00  0.0000E+00  0.0000E+00  0.0000E+00  0.0000E+00  0.0000E+00  0.0000E+00  0.0000E+00  0.0000E+00  0.0000E+00
     -3.556  0.0000E+00  0.0000E+00  0.0000E+00  0.0000E+00  0.0000E+00  0.0000E+00  0.0000E+00  0.0000E+00  0.0000E+00  0.0000E+00  0.0000E+00  0.0000E+00  0.0000E+00  0.0000E+00  0.0000E+00  0.0000E+00  0.0000E+00  0.0000E+00
     -3.490  0.0000E+00  0.0000E+00  0.0000E+00  0.0000E+00  0.0000E+00  0.0000E+00  0.0000E+00  0.0000E+00  0.0000E+00  0.0000E+00  0.0000E+00  0.0000E+00  0.0000E+00  0.0000E+00  0.0000E+00  0.0000E+00  0.0000E+00  0.0000E+00
     -3.424  0.0000E+00  0.0000E+00  0.0000E+00  0.0000E+00  0.0000E+00  0.0000E+00  0.0000E+00  0.0000E+00  0.0000E+00  0.0000E+00  0.0000E+00  0.0000E+00  0.0000E+00  0.0000E+00  0.0000E+00  0.0000E+00  0.0000E+00  0.0000E+00
     -3.357  0.0000E+00  0.0000E+00  0.0000E+00  0.0000E+00  0.0000E+00  0.0000E+00  0.0000E+00  0.0000E+00  0.0000E+00  0.0000E+00  0.0000E+00  0.0000E+00  0.0000E+00  0.0000E+00  0.0000E+00  0.0000E+00  0.0000E+00  0.0000E+00
     -3.291  0.0000E+00  0.0000E+00  0.0000E+00  0.0000E+00  0.0000E+00  0.0000E+00  0.0000E+00  0.0000E+00  0.0000E+00  0.0000E+00  0.0000E+00  0.0000E+00  0.0000E+00  0.0000E+00  0.0000E+00  0.0000E+00  0.0000E+00  0.0000E+00
     -3.225  0.0000E+00  0.0000E+00  0.0000E+00  0.0000E+00  0.0000E+00  0.0000E+00  0.0000E+00  0.0000E+00  0.0000E+00  0.0000E+00  0.0000E+00  0.0000E+00  0.0000E+00  0.0000E+00  0.0000E+00  0.0000E+00  0.0000E+00  0.0000E+00
     -3.158  0.5289E-07  0.5237E-07  0.6368E-23  0.1531E-22  0.3180E-12  0.3136E-12  0.6368E-23  0.1531E-22  0.1015E-23  0.3312E-23  0.1591E-23  0.1834E-23  0.2222E-12  0.2164E-12  0.1591E-23  0.1834E-23  0.3906E-23  0.1564E-22
     -3.092  0.4727E-06  0.4680E-06  0.8109E-09  0.8029E-09  0.8353E-09  0.8271E-09  0.8109E-09  0.8029E-09  0.8196E-22  0.2466E-19  0.3447E-13  0.3487E-13  0.3091E-11  0.3028E-11  0.3447E-13  0.3487E-13  0.8787E-12  0.8687E-12
     -3.025  0.2125E-05  0.2104E-05  0.5521E-08  0.5467E-08  0.5926E-08  0.5868E-08  0.5521E-08  0.5467E-08  0.6515E-11  0.6456E-11  0.6489E-11  0.6432E-11  0.1437E-10  0.1408E-10  0.6489E-11  0.6432E-11  0.4079E-11  0.4034E-11
     -2.959  0.7780E-05  0.7703E-05  0.2082E-07  0.2062E-07  0.2263E-07  0.2241E-07  0.2082E-07  0.2062E-07  0.3035E-10  0.3005E-10  0.3181E-10  0.3153E-10  0.5056E-10  0.4953E-10  0.3181E-10  0.3153E-10  0.1372E-10  0.1357E-10
     -2.893  0.2893E-04  0.2865E-04  0.7910E-07  0.7833E-07  0.8397E-07  0.8316E-07  0.7910E-07  0.7833E-07  0.1020E-09  0.1010E-09  0.1063E-09  0.1054E-09  0.2068E-09  0.2027E-09  0.1063E-09  0.1054E-09  0.6943E-10  0.6870E-10
     -2.826  0.1059E-03  0.1050E-03  0.3100E-06  0.3070E-06  0.3265E-06  0.3233E-06  0.3100E-06  0.3070E-06  0.4502E-09  0.4459E-09  0.4534E-09  0.4493E-09  0.8061E-09  0.7911E-09  0.4534E-09  0.4493E-09  0.2966E-09  0.2936E-09
     -2.760  0.3520E-03  0.3490E-03  0.1112E-05  0.1102E-05  0.1181E-05  0.1170E-05  0.1112E-05  0.1102E-05  0.1735E-08  0.1718E-08  0.1759E-08  0.1743E-08  0.2745E-08  0.2696E-08  0.1759E-08  0.1743E-08  0.1047E-08  0.1037E-08
     -2.693  0.9627E-03  0.9565E-03  0.3534E-05  0.3506E-05  0.3807E-05  0.3776E-05  0.3534E-05  0.3506E-05  0.5961E-08  0.5908E-08  0.6081E-08  0.6031E-08  0.8010E-08  0.7885E-08  0.6081E-08  0.6031E-08  0.3340E-08  0.3311E-08
     -2.627  0.1966E-02  0.1958E-02  0.9016E-05  0.8963E-05  0.9845E-05  0.9786E-05  0.9016E-05  0.8963E-05  0.1826E-07  0.1813E-07  0.1881E-07  0.1868E-07  0.1861E-07  0.1837E-07  0.1881E-07  0.1868E-07  0.9118E-08  0.9053E-08
     -2.561  0.2896E-02  0.2890E-02  0.1758E-04  0.1751E-04  0.1881E-04  0.1874E-04  0.1758E-04  0.1751E-04  0.4344E-07  0.4320E-07  0.4478E-07  0.4457E-07  0.3689E-07  0.3649E-07  0.4478E-07  0.4457E-07  0.2302E-07  0.2287E-07
     -2.494  0.3444E-02  0.3440E-02  0.2946E-04  0.2935E-04  0.2979E-04  0.2969E-04  0.2946E-04  0.2935E-04  0.8596E-07  0.8554E-07  0.8493E-07  0.8457E-07  0.7682E-07  0.7610E-07  0.8493E-07  0.8457E-07  0.5727E-07  0.5693E-07
     -2.428  0.4290E-02  0.4281E-02  0.4889E-04  0.4872E-04  0.5026E-04  0.5005E-04  0.4889E-04  0.4872E-04  0.1712E-06  0.1704E-06  0.1665E-06  0.1656E-06  0.1536E-06  0.1526E-06  0.1665E-06  0.1656E-06  0.1177E-06  0.1172E-06
     -2.362  0.5426E-02  0.5420E-02  0.7106E-04  0.7094E-04  0.8016E-04  0.7996E-04  0.7106E-04  0.7094E-04  0.3068E-06  0.3058E-06  0.3138E-06  0.3127E-06  0.2276E-06  0.2268E-06  0.3138E-06  0.3127E-06  0.1695E-06  0.1693E-06
     -2.295  0.5382E-02  0.5387E-02  0.7917E-04  0.7916E-04  0.9328E-04  0.9328E-04  0.7917E-04  0.7916E-04  0.4284E-06  0.4277E-06  0.4404E-06  0.4398E-06  0.2508E-06  0.2503E-06  0.4404E-06  0.4398E-06  0.1863E-06  0.1862E-06
     -2.229  0.4759E-02  0.4759E-02  0.8826E-04  0.8808E-04  0.9403E-04  0.9395E-04  0.8826E-04  0.8808E-04  0.5841E-06  0.5825E-06  0.5705E-06  0.5691E-06  0.3042E-06  0.3029E-06  0.5705E-06  0.5691E-06  0.2610E-06  0.2598E-06
     -2.162  0.5634E-02  0.5622E-02  0.1306E-03  0.1302E-03  0.1250E-03  0.1247E-03  0.1306E-03  0.1302E-03  0.8959E-06  0.8935E-06  0.8997E-06  0.8970E-06  0.5182E-06  0.5152E-06  0.8997E-06  0.8970E-06  0.5200E-06  0.5174E-06
     -2.096  0.7011E-02  0.7005E-02  0.1798E-03  0.1796E-03  0.1741E-03  0.1738E-03  0.1798E-03  0.1796E-03  0.1190E-05  0.1189E-05  0.1229E-05  0.1228E-05  0.8881E-06  0.8841E-06  0.1229E-05  0.1228E-05  0.8813E-06  0.8789E-06
     -2.030  0.7162E-02  0.7164E-02  0.1936E-03  0.1936E-03  0.2119E-03  0.2117E-03  0.1936E-03  0.1936E-03  0.1388E-05  0.1387E-05  0.1393E-05  0.1392E-05  0.1227E-05  0.1225E-05  0.1393E-05  0.1392E-05  0.1040E-05  0.1040E-05
     -1.963  0.6691E-02  0.6693E-02  0.1926E-03  0.1925E-03  0.2379E-03  0.2378E-03  0.1926E-03  0.1925E-03  0.1852E-05  0.1847E-05  0.1741E-05  0.1737E-05  0.1330E-05  0.1330E-05  0.1741E-05  0.1737E-05  0.9261E-06  0.9269E-06
     -1.897  0.6851E-02  0.6845E-02  0.2253E-03  0.2249E-03  0.2606E-03  0.2604E-03  0.2253E-03  0.2249E-03  0.2733E-05  0.2726E-05  0.2500E-05  0.2493E-05  0.1352E-05  0.1351E-05  0.2500E-05  0.2493E-05  0.9631E-06  0.9611E-06
     -1.831  0.7629E-02  0.7625E-02  0.2758E-03  0.2755E-03  0.3093E-03  0.3090E-03  0.2758E-03  0.2755E-03  0.3397E-05  0.3396E-05  0.3518E-05  0.3512E-05  0.1511E-05  0.1508E-05  0.3518E-05  0.3512E-05  0.1295E-05  0.1291E-05
     -1.764  0.7245E-02  0.7253E-02  0.2794E-03  0.2795E-03  0.3190E-03  0.3193E-03  0.2794E-03  0.2795E-03  0.3125E-05  0.3129E-05  0.3769E-05  0.3772E-05  0.1656E-05  0.1654E-05  0.3769E-05  0.3772E-05  0.1689E-05  0.1684E-05
     -1.698  0.6459E-02  0.6460E-02  0.2972E-03  0.2968E-03  0.2735E-03  0.2737E-03  0.2972E-03  0.2968E-03  0.3184E-05  0.3178E-05  0.3417E-05  0.3417E-05  0.2033E-05  0.2026E-05  0.3417E-05  0.3417E-05  0.2449E-05  0.2440E-05
     -1.631  0.7558E-02  0.7545E-02  0.3963E-03  0.3955E-03  0.3275E-03  0.3266E-03  0.3963E-03  0.3955E-03  0.4930E-05  0.4914E-05  0.4267E-05  0.4256E-05  0.3100E-05  0.3086E-05  0.4267E-05  0.4256E-05  0.3442E-05  0.3435E-05
     -1.565  0.8864E-02  0.8858E-02  0.4620E-03  0.4618E-03  0.4793E-03  0.4782E-03  0.4620E-03  0.4618E-03  0.6706E-05  0.6698E-05  0.5823E-05  0.5812E-05  0.4375E-05  0.4363E-05  0.5823E-05  0.5812E-05  0.3704E-05  0.3703E-05
     -1.499  0.9082E-02  0.9081E-02  0.4724E-03  0.4722E-03  0.5886E-03  0.5882E-03  0.4724E-03  0.4722E-03  0.7502E-05  0.7498E-05  0.7244E-05  0.7233E-05  0.4993E-05  0.4987E-05  0.7244E-05  0.7233E-05  0.3646E-05  0.3642E-05
     -1.432  0.8931E-02  0.8933E-02  0.5007E-03  0.5005E-03  0.5993E-03  0.5994E-03  0.5007E-03  0.5005E-03  0.8154E-05  0.8150E-05  0.8513E-05  0.8504E-05  0.4892E-05  0.4889E-05  0.8513E-05  0.8504E-05  0.4094E-05  0.4088E-05
     -1.366  0.8437E-02  0.8442E-02  0.4954E-03  0.4957E-03  0.6136E-03  0.6132E-03  0.4954E-03  0.4957E-03  0.8620E-05  0.8620E-05  0.9642E-05  0.9633E-05  0.4749E-05  0.4744E-05  0.9642E-05  0.9633E-05  0.3962E-05  0.3965E-05
     -1.299  0.7596E-02  0.7603E-02  0.4451E-03  0.4454E-03  0.6450E-03  0.6452E-03  0.4451E-03  0.4454E-03  0.8873E-05  0.8869E-05  0.1054E-04  0.1054E-04  0.4573E-05  0.4571E-05  0.1054E-04  0.1054E-04  0.3092E-05  0.3095E-05
     -1.233  0.6816E-02  0.6819E-02  0.4632E-03  0.4626E-03  0.5461E-03  0.5471E-03  0.4632E-03  0.4626E-03  0.1027E-04  0.1025E-04  0.1004E-04  0.1005E-04  0.4413E-05  0.4406E-05  0.1004E-04  0.1005E-04  0.3572E-05  0.3558E-05
     -1.167  0.7372E-02  0.7362E-02  0.6217E-03  0.6201E-03  0.4845E-03  0.4841E-03  0.6217E-03  0.6201E-03  0.1360E-04  0.1357E-04  0.1039E-04  0.1037E-04  0.5689E-05  0.5666E-05  0.1039E-04  0.1037E-04  0.6235E-05  0.6207E-05
     -1.100  0.9076E-02  0.9064E-02  0.8194E-03  0.8182E-03  0.6440E-03  0.6422E-03  0.8194E-03  0.8182E-03  0.1611E-04  0.1610E-04  0.1398E-04  0.1394E-04  0.8069E-05  0.8044E-05  0.1398E-04  0.1394E-04  0.9569E-05  0.9546E-05
     -1.034  0.9855E-02  0.9856E-02  0.8674E-03  0.8677E-03  0.9054E-03  0.9035E-03  0.8674E-03  0.8677E-03  0.1565E-04  0.1565E-04  0.1816E-04  0.1814E-04  0.9631E-05  0.9614E-05  0.1816E-04  0.1814E-04  0.1067E-04  0.1067E-04
     -0.968  0.9403E-02  0.9406E-02  0.8176E-03  0.8176E-03  0.1073E-02  0.1073E-02  0.8176E-03  0.8176E-03  0.1643E-04  0.1641E-04  0.1964E-04  0.1963E-04  0.1057E-04  0.1055E-04  0.1964E-04  0.1963E-04  0.9640E-05  0.9642E-05
     -0.901  0.9460E-02  0.9457E-02  0.8986E-03  0.8977E-03  0.1098E-02  0.1098E-02  0.8986E-03  0.8977E-03  0.2141E-04  0.2137E-04  0.2097E-04  0.2095E-04  0.1139E-04  0.1138E-04  0.2097E-04  0.2095E-04  0.1016E-04  0.1014E-04
     -0.835  0.9243E-02  0.9252E-02  0.9229E-03  0.9237E-03  0.1100E-02  0.1100E-02  0.9229E-03  0.9237E-03  0.2315E-04  0.2317E-04  0.2298E-04  0.2297E-04  0.1128E-04  0.1128E-04  0.2298E-04  0.2297E-04  0.1028E-04  0.1029E-04
     -0.768  0.7475E-02  0.7489E-02  0.7269E-03  0.7283E-03  0.1096E-02  0.1096E-02  0.7269E-03  0.7283E-03  0.2041E-04  0.2042E-04  0.2126E-04  0.2128E-04  0.1101E-04  0.1100E-04  0.2126E-04  0.2128E-04  0.7404E-05  0.7426E-05
     -0.702  0.6545E-02  0.6545E-02  0.6836E-03  0.6826E-03  0.1058E-02  0.1059E-02  0.6836E-03  0.6826E-03  0.2342E-04  0.2336E-04  0.2061E-04  0.2059E-04  0.1129E-04  0.1128E-04  0.2061E-04  0.2059E-04  0.6171E-05  0.6163E-05
     -0.636  0.7443E-02  0.7432E-02  0.9137E-03  0.9115E-03  0.1069E-02  0.1068E-02  0.9137E-03  0.9115E-03  0.3174E-04  0.3168E-04  0.2674E-04  0.2667E-04  0.1134E-04  0.1133E-04  0.2674E-04  0.2667E-04  0.8687E-05  0.8658E-05
     -0.569  0.8989E-02  0.8979E-02  0.1212E-02  0.1210E-02  0.1338E-02  0.1335E-02  0.1212E-02  0.1210E-02  0.3782E-04  0.3779E-04  0.3760E-04  0.3752E-04  0.1238E-04  0.1236E-04  0.3760E-04  0.3752E-04  0.1281E-04  0.1277E-04
     -0.503  0.9564E-02  0.9566E-02  0.1395E-02  0.1395E-02  0.1680E-02  0.1678E-02  0.1395E-02  0.1395E-02  0.3720E-04  0.3722E-04  0.4417E-04  0.4415E-04  0.1444E-04  0.1442E-04  0.4417E-04  0.4415E-04  0.1678E-04  0.1676E-04
     -0.437  0.8778E-02  0.8786E-02  0.1410E-02  0.1411E-02  0.1789E-02  0.1789E-02  0.1410E-02  0.1411E-02  0.3359E-04  0.3360E-04  0.4427E-04  0.4427E-04  0.1542E-04  0.1541E-04  0.4427E-04  0.4427E-04  0.1844E-04  0.1844E-04
     -0.370  0.7686E-02  0.7695E-02  0.1379E-02  0.1379E-02  0.1631E-02  0.1633E-02  0.1379E-02  0.1379E-02  0.3518E-04  0.3515E-04  0.4239E-04  0.4241E-04  0.1413E-04  0.1413E-04  0.4239E-04  0.4241E-04  0.1750E-04  0.1751E-04
     -0.304  0.6630E-02  0.6636E-02  0.1402E-02  0.1402E-02  0.1459E-02  0.1459E-02  0.1402E-02  0.1402E-02  0.3936E-04  0.3932E-04  0.3931E-04  0.3932E-04  0.1304E-04  0.1303E-04  0.3931E-04  0.3932E-04  0.1686E-04  0.1687E-04