  16  16   1   0
  0.2002742E+02  0.4276879E-09  0.4276879E-09  0.1751827E-08  0.5000000E-15
  1.000000000000000E-004
  CAR 
 unknown system                          
     10.77650791     -4.67190831  301      5.39455484      1.00000000
     -4.672  0.0000E+00  0.0000E+00  0.0000E+00  0.0000E+00
     -4.620  0.0000E+00  0.0000E+00  0.0000E+00  0.0000E+00
     -4.569  0.0000E+00  0.0000E+00  0.0000E+00  0.0000E+00
     -4.517  0.0000E+00  0.0000E+00  0.0000E+00  0.0000E+00
     -4.466  0.0000E+00  0.0000E+00  0.0000E+00  0.0000E+00
     -4.414  0.5252E-05  0.5183E-05  0.2704E-06  0.2669E-06
     -4.363  0.4249E-04  0.4193E-04  0.2458E-05  0.2426E-05
     -4.311  0.1551E-03  0.1531E-03  0.1045E-04  0.1031E-04
     -4.260  0.4132E-03  0.4077E-03  0.3172E-04  0.3131E-04
     -4.208  0.1145E-02  0.1130E-02  0.9066E-04  0.8947E-04
     -4.157  0.3305E-02  0.3262E-02  0.2608E-03  0.2574E-03
     -4.105  0.9076E-02  0.8960E-02  0.7282E-03  0.7188E-03
     -4.054  0.2393E-01  0.2364E-01  0.1960E-02  0.1936E-02
     -4.002  0.5900E-01  0.5836E-01  0.4999E-02  0.4942E-02
     -3.951  0.1266E+00  0.1255E+00  0.1152E-01  0.1140E-01
     -3.899  0.2229E+00  0.2216E+00  0.2299E-01  0.2281E-01
     -3.848  0.3197E+00  0.3186E+00  0.3946E-01  0.3922E-01
     -3.796  0.4045E+00  0.4033E+00  0.6028E-01  0.5999E-01
     -3.745  0.5018E+00  0.5005E+00  0.8612E-01  0.8576E-01
     -3.694  0.5904E+00  0.5897E+00  0.1165E+00  0.1161E+00
     -3.642  0.6113E+00  0.6114E+00  0.1480E+00  0.1476E+00
     -3.591  0.6225E+00  0.6219E+00  0.1801E+00  0.1796E+00
     -3.539  0.7136E+00  0.7121E+00  0.2168E+00  0.2163E+00
     -3.488  0.8182E+00  0.8172E+00  0.2589E+00  0.2584E+00
     -3.436  0.8513E+00  0.8513E+00  0.3028E+00  0.3022E+00
     -3.385  0.8527E+00  0.8525E+00  0.3467E+00  0.3461E+00
     -3.333  0.8913E+00  0.8907E+00  0.3926E+00  0.3920E+00
     -3.282  0.9368E+00  0.9366E+00  0.4409E+00  0.4403E+00
     -3.230  0.9212E+00  0.9216E+00  0.4883E+00  0.4877E+00
     -3.179  0.9377E+00  0.9367E+00  0.5366E+00  0.5360E+00
     -3.127  0.1060E+01  0.1059E+01  0.5913E+00  0.5905E+00
     -3.076  0.1174E+01  0.1173E+01  0.6518E+00  0.6510E+00
     -3.024  0.1215E+01  0.1214E+01  0.7143E+00  0.7135E+00
     -2.973  0.1202E+01  0.1202E+01  0.7763E+00  0.7755E+00
     -2.921  0.1148E+01  0.1149E+01  0.8354E+00  0.8347E+00
     -2.870  0.1083E+01  0.1083E+01  0.8912E+00  0.8905E+00
     -2.818  0.1086E+01  0.1086E+01  0.9472E+00  0.9464E+00
     -2.767  0.1226E+01  0.1224E+01  0.1010E+01  0.1009E+01
     -2.715  0.1407E+01  0.1405E+01  0.1083E+01  0.1082E+01
     -2.664  0.1489E+01  0.1489E+01  0.1160E+01  0.1159E+01
     -2.612  0.1503E+01  0.1503E+01  0.1237E+01  0.1236E+01
     -2.561  0.1502E+01  0.1502E+01  0.1314E+01  0.1313E+01
     -2.509  0.1409E+01  0.1410E+01  0.1387E+01  0.1386E+01
     -2.458  0.1285E+01  0.1286E+01  0.1453E+01  0.1452E+01
     -2.406  0.1322E+01  0.1320E+01  0.1521E+01  0.1520E+01
     -2.355  0.1534E+01  0.1531E+01  0.1600E+01  0.1599E+01
     -2.303  0.1764E+01  0.1763E+01  0.1691E+01  0.1690E+01
     -2.252  0.1838E+01  0.1838E+01  0.1786E+01  0.1785E+01
     -2.200  0.1766E+01  0.1768E+01  0.1877E+01  0.1876E+01
     -2.149  0.1668E+01  0.1669E+01  0.1963E+01  0.1962E+01
     -2.097  0.1606E+01  0.1606E+01  0.2046E+01  0.2045E+01
     -2.046  0.1583E+01  0.1582E+01  0.2127E+01  0.2126E+01
     -1.994  0.1656E+01  0.1655E+01  0.2212E+01  0.2211E+01
     -1.943  0.1792E+01  0.1791E+01  0.2305E+01  0.2304E+01
     -1.891  0.1801E+01  0.1802E+01  0.2398E+01  0.2396E+01
     -1.840  0.1663E+01  0.1665E+01  0.2483E+01  0.2482E+01
     -1.788  0.1472E+01  0.1475E+01  0.2559E+01  0.2558E+01
     -1.737  0.1321E+01  0.1322E+01  0.2627E+01  0.2626E+01
     -1.685  0.1298E+01  0.1297E+01  0.2694E+01  0.2693E+01
     -1.634  0.1460E+01  0.1457E+01  0.2769E+01  0.2768E+01
     -1.582  0.1711E+01  0.1708E+01  0.2857E+01  0.2856E+01
     -1.531  0.1857E+01  0.1857E+01  0.2953E+01  0.2952E+01
     -1.479  0.1806E+01  0.1808E+01  0.3046E+01  0.3045E+01
     -1.428  0.1663E+01  0.1664E+01  0.3132E+01  0.3131E+01
     -1.376  0.1559E+01  0.1560E+01  0.3212E+01  0.3211E+01
     -1.325  0.1545E+01  0.1544E+01  0.3292E+01  0.3291E+01
     -1.273  0.1704E+01  0.1701E+01  0.3380E+01  0.3378E+01
     -1.222  0.1907E+01  0.1905E+01  0.3478E+01  0.3477E+01
     -1.170  0.1961E+01  0.1961E+01  0.3579E+01  0.3578E+01
     -1.119  0.1949E+01  0.1949E+01  0.3679E+01  0.3678E+01
     -1.067  0.1906E+01  0.1907E+01  0.3778E+01  0.3776E+01
     -1.016  0.1815E+01  0.1816E+01  0.3871E+01  0.3870E+01
     -0.964  0.1783E+01  0.1783E+01  0.3963E+01  0.3962E+01
     -0.913  0.1908E+01  0.1905E+01  0.4061E+01  0.4060E+01
     -0.861  0.2122E+01  0.2119E+01  0.4170E+01  0.4169E+01
     -0.810  0.2260E+01  0.2259E+01  0.4287E+01  0.4285E+01
     -0.758  0.2273E+01  0.2273E+01  0.4404E+01  0.4403E+01
     -0.707  0.2268E+01  0.2268E+01  0.4521E+01  0.4519E+01
     -0.655  0.2227E+01  0.2228E+01  0.4636E+01  0.4634E+01
     -0.604  0.2141E+01  0.2141E+01  0.4746E+01  0.4744E+01
     -0.552  0.2095E+01  0.2095E+01  0.4854E+01  0.4852E+01
     -0.501  0.2060E+01  0.2060E+01  0.4960E+01  0.4959E+01
     -0.449  0.2044E+01  0.2044E+01  0.5065E+01  0.5064E+01
     -0.398  0.2069E+01  0.2069E+01  0.5172E+01  0.5170E+01
     -0.346  0.2102E+01  0.2102E+01  0.5280E+01  0.5279E+01
     -0.295  0.2091E+01  0.2091E+01  0.5388E+01  0.5386E+01
     -0.243  0.2085E+01  0.2085E+01  0.5495E+01  0.5494E+01
     -0.192  0.2175E+01  0.2173E+01  0.5607E+01  0.5606E+01
     -0.140  0.2285E+01  0.2284E+01  0.5725E+01  0.5724E+01
     -0.089  0.2321E+01  0.2321E+01  0.5845E+01  0.5843E+01
     -0.037  0.2262E+01  0.2264E+01  0.5961E+01  0.5960E+01
      0.014  0.2174E+01  0.2175E+01  0.6073E+01  0.6072E+01
      0.066  0.2073E+01  0.2074E+01  0.6180E+01  0.6179E+01
      0.117  0.1985E+01  0.1986E+01  0.6282E+01  0.6281E+01
      0.169  0.1953E+01  0.1953E+01  0.6383E+01  0.6382E+01
      0.220  0.2066E+01  0.2063E+01  0.6489E+01  0.6488E+01
      0.272  0.2318E+01  0.2314E+01  0.6609E+01  0.6607E+01
      0.323  0.2536E+01  0.2534E+01  0.6739E+01  0.6738E+01
      0.375  0.2609E+01  0.2610E+01  0.6874E+01  0.6872E+01
      0.426  0.2583E+01  0.2583E+01  0.7007E+01  0.7005E+01
      0.478  0.2571E+01  0.2571E+01  0.7139E+01  0.7138E+01
      0.529  0.2517E+01  0.2518E+01  0.7269E+01  0.7267E+01
      0.581  0.2376E+01  0.2377E+01  0.7392E+01  0.7390E+01
      0.632  0.2311E+01  0.2311E+01  0.7511E+01  0.7509E+01
      0.684  0.2373E+01  0.2372E+01  0.7633E+01  0.7631E+01
      0.735  0.2489E+01  0.2488E+01  0.7761E+01  0.7759E+01
      0.787  0.2646E+01  0.2644E+01  0.7897E+01  0.7896E+01
      0.838  0.2723E+01  0.2723E+01  0.8038E+01  0.8036E+01
      0.890  0.2665E+01  0.2666E+01  0.8175E+01  0.8173E+01
      0.941  0.2556E+01  0.2557E+01  0.8307E+01  0.8305E+01
      0.993  0.2507E+01  0.2507E+01  0.8436E+01  0.8434E+01
      1.044  0.2563E+01  0.2562E+01  0.8568E+01  0.8566E+01
      1.096  0.2643E+01  0.2642E+01  0.8704E+01  0.8702E+01
      1.147  0.2617E+01  0.2618E+01  0.8839E+01  0.8837E+01
      1.198  0.2458E+01  0.2460E+01  0.8966E+01  0.8964E+01
      1.250  0.2309E+01  0.2310E+01  0.9085E+01  0.9083E+01
      1.301  0.2308E+01  0.2306E+01  0.9204E+01  0.9202E+01
      1.353  0.2465E+01  0.2462E+01  0.9330E+01  0.9329E+01
      1.404  0.2603E+01  0.2602E+01  0.9465E+01  0.9463E+01
      1.456  0.2582E+01  0.2584E+01  0.9598E+01  0.9596E+01
      1.507  0.2423E+01  0.2425E+01  0.9722E+01  0.9721E+01
      1.559  0.2277E+01  0.2278E+01  0.9840E+01  0.9838E+01
      1.610  0.2302E+01  0.2300E+01  0.9958E+01  0.9957E+01
      1.662  0.2476E+01  0.2473E+01  0.1009E+02  0.1008E+02
      1.713  0.2721E+01  0.2717E+01  0.1023E+02  0.1022E+02
      1.765  0.2904E+01  0.2903E+01  0.1038E+02  0.1037E+02
      1.816  0.2847E+01  0.2848E+01  0.1052E+02  0.1052E+02
      1.868  0.2696E+01  0.2697E+01  0.1066E+02  0.1066E+02
      1.919  0.2695E+01  0.2694E+01  0.1080E+02  0.1080E+02
      1.971  0.2747E+01  0.2747E+01  0.1094E+02  0.1094E+02
      2.022  0.2741E+01  0.2742E+01  0.1108E+02  0.1108E+02
      2.074  0.2793E+01  0.2792E+01  0.1123E+02  0.1122E+02
      2.125  0.2954E+01  0.2952E+01  0.1138E+02  0.1138E+02
      2.177  0.3040E+01  0.3040E+01  0.1154E+02  0.1153E+02
      2.228  0.2923E+01  0.2926E+01  0.1169E+02  0.1168E+02
      2.280  0.2762E+01  0.2764E+01  0.1183E+02  0.1183E+02
      2.331  0.2764E+01  0.2764E+01  0.1197E+02  0.1197E+02
      2.383  0.2825E+01  0.2824E+01  0.1212E+02  0.1211E+02
      2.434  0.2871E+01  0.2870E+01  0.1226E+02  0.1226E+02
      2.486  0.2944E+01  0.2943E+01  0.1242E+02  0.1241E+02
      2.537  0.3039E+01  0.3037E+01  0.1257E+02  0.1257E+02
      2.589  0.3243E+01  0.3239E+01  0.1274E+02  0.1274E+02
      2.640  0.3456E+01  0.3454E+01  0.1292E+02  0.1292E+02
      2.692  0.3445E+01  0.3447E+01  0.1310E+02  0.1309E+02
      2.743  0.3191E+01  0.3196E+01  0.1326E+02  0.1326E+02
      2.795  0.2842E+01  0.2846E+01  0.1341E+02  0.1340E+02
      2.846  0.2677E+01  0.2677E+01  0.1354E+02  0.1354E+02
      2.898  0.2809E+01  0.2806E+01  0.1369E+02  0.1369E+02
      2.949  0.3105E+01  0.3101E+01  0.1385E+02  0.1385E+02
      3.001  0.3415E+01  0.3411E+01  0.1402E+02  0.1402E+02
      3.052  0.3605E+01  0.3604E+01  0.1421E+02  0.1421E+02
      3.104  0.3505E+01  0.3508E+01  0.1439E+02  0.1439E+02
      3.155  0.3214E+01  0.3217E+01  0.1456E+02  0.1455E+02
      3.207  0.3084E+01  0.3085E+01  0.1472E+02  0.1471E+02
      3.258  0.3061E+01  0.3062E+01  0.1487E+02  0.1487E+02
      3.310  0.2970E+01  0.2971E+01  0.1503E+02  0.1502E+02
      3.361  0.2994E+01  0.2991E+01  0.1518E+02  0.1518E+02
      3.413  0.3288E+01  0.3283E+01  0.1535E+02  0.1535E+02
      3.464  0.3622E+01  0.3619E+01  0.1554E+02  0.1553E+02
      3.516  0.3704E+01  0.3704E+01  0.1573E+02  0.1573E+02
      3.567  0.3587E+01  0.3589E+01  0.1591E+02  0.1591E+02
      3.619  0.3470E+01  0.3471E+01  0.1609E+02  0.1609E+02
      3.670  0.3365E+01  0.3367E+01  0.1626E+02  0.1626E+02
      3.722  0.3300E+01  0.3301E+01  0.1643E+02  0.1643E+02
      3.773  0.3182E+01  0.3184E+01  0.1660E+02  0.1660E+02
      3.825  0.2965E+01  0.2969E+01  0.1675E+02  0.1675E+02
      3.876  0.2834E+01  0.2835E+01  0.1690E+02  0.1690E+02
      3.928  0.2978E+01  0.2974E+01  0.1705E+02  0.1705E+02
      3.979  0.3295E+01  0.3290E+01  0.1722E+02  0.1722E+02
      4.031  0.3497E+01  0.3496E+01  0.1740E+02  0.1740E+02
      4.082  0.3480E+01  0.3482E+01  0.1758E+02  0.1758E+02
      4.134  0.3311E+01  0.3314E+01  0.1775E+02  0.1775E+02
      4.185  0.3233E+01  0.3233E+01  0.1792E+02  0.1792E+02
      4.237  0.3429E+01  0.3425E+01  0.1809E+02  0.1809E+02
      4.288  0.3720E+01  0.3717E+01  0.1829E+02  0.1828E+02
      4.340  0.3831E+01  0.3831E+01  0.1848E+02  0.1848E+02
      4.391  0.3731E+01  0.3733E+01  0.1868E+02  0.1867E+02
      4.443  0.3479E+01  0.3483E+01  0.1885E+02  0.1885E+02
      4.494  0.3131E+01  0.3135E+01  0.1902E+02  0.1901E+02
      4.546  0.2851E+01  0.2853E+01  0.1916E+02  0.1916E+02
      4.597  0.2843E+01  0.2842E+01  0.1931E+02  0.1931E+02
      4.649  0.2957E+01  0.2956E+01  0.1946E+02  0.1946E+02
      4.700  0.2941E+01  0.2942E+01  0.1961E+02  0.1961E+02
      4.752  0.2891E+01  0.2891E+01  0.1976E+02  0.1976E+02
      4.803  0.2960E+01  0.2958E+01  0.1991E+02  0.1991E+02
      4.855  0.3148E+01  0.3145E+01  0.2008E+02  0.2007E+02
      4.906  0.3480E+01  0.3474E+01  0.2026E+02  0.2025E+02
      4.958  0.3869E+01  0.3865E+01  0.2046E+02  0.2045E+02
      5.009  0.4112E+01  0.4111E+01  0.2067E+02  0.2066E+02
      5.061  0.4009E+01  0.4014E+01  0.2087E+02  0.2087E+02
      5.112  0.3629E+01  0.3635E+01  0.2106E+02  0.2106E+02
      5.164  0.3403E+01  0.3405E+01  0.2124E+02  0.2123E+02
      5.215  0.3443E+01  0.3442E+01  0.2141E+02  0.2141E+02
      5.267  0.3475E+01  0.3475E+01  0.2159E+02  0.2159E+02
      5.318  0.3354E+01  0.3357E+01  0.2177E+02  0.2176E+02
      5.370  0.3128E+01  0.3131E+01  0.2193E+02  0.2192E+02
      5.421  0.2944E+01  0.2945E+01  0.2208E+02  0.2208E+02
      5.473  0.2972E+01  0.2971E+01  0.2223E+02  0.2223E+02
      5.524  0.3154E+01  0.3152E+01  0.2239E+02  0.2239E+02
      5.576  0.3273E+01  0.3272E+01  0.2256E+02  0.2256E+02
      5.627  0.3292E+01  0.3292E+01  0.2273E+02  0.2273E+02
      5.679  0.3420E+01  0.3417E+01  0.2291E+02  0.2291E+02
      5.730  0.3788E+01  0.3783E+01  0.2310E+02  0.2310E+02
      5.782  0.4147E+01  0.4144E+01  0.2332E+02  0.2331E+02
      5.833  0.4203E+01  0.4205E+01  0.2353E+02  0.2353E+02
      5.885  0.3877E+01  0.3882E+01  0.2373E+02  0.2373E+02
      5.936  0.3407E+01  0.3412E+01  0.2391E+02  0.2391E+02
      5.987  0.3180E+01  0.3180E+01  0.2407E+02  0.2407E+02
      6.039  0.3355E+01  0.3351E+01  0.2425E+02  0.2424E+02
      6.090  0.3711E+01  0.3707E+01  0.2444E+02  0.2443E+02
      6.142  0.3945E+01  0.3945E+01  0.2464E+02  0.2464E+02
      6.193  0.3946E+01  0.3948E+01  0.2484E+02  0.2484E+02
      6.245  0.3862E+01  0.3864E+01  0.2504E+02  0.2504E+02
      6.296  0.3782E+01  0.3783E+01  0.2524E+02  0.2524E+02
      6.348  0.3739E+01  0.3739E+01  0.2543E+02  0.2543E+02
      6.399  0.3758E+01  0.3757E+01  0.2562E+02  0.2562E+02
      6.451  0.3746E+01  0.3747E+01  0.2582E+02  0.2581E+02
      6.502  0.3714E+01  0.3714E+01  0.2601E+02  0.2601E+02
      6.554  0.3685E+01  0.3685E+01  0.2620E+02  0.2620E+02
      6.605  0.3602E+01  0.3604E+01  0.2638E+02  0.2638E+02
      6.657  0.3553E+01  0.3553E+01  0.2657E+02  0.2656E+02
      6.708  0.3640E+01  0.3637E+01  0.2675E+02  0.2675E+02
      6.760  0.3883E+01  0.3880E+01  0.2695E+02  0.2695E+02
      6.811  0.3997E+01  0.3998E+01  0.2716E+02  0.2716E+02
      6.863  0.3864E+01  0.3866E+01  0.2736E+02  0.2736E+02
      6.914  0.3781E+01  0.3781E+01  0.2755E+02  0.2755E+02
      6.966  0.3896E+01  0.3894E+01  0.2776E+02  0.2775E+02
      7.017  0.4028E+01  0.4027E+01  0.2796E+02  0.2796E+02
      7.069  0.4060E+01  0.4060E+01  0.2817E+02  0.2817E+02
      7.120  0.4066E+01  0.4066E+01  0.2838E+02  0.2838E+02
      7.172  0.4024E+01  0.4025E+01  0.2859E+02  0.2859E+02
      7.223  0.3894E+01  0.3896E+01  0.2879E+02  0.2879E+02
      7.275  0.3770E+01  0.3771E+01  0.2898E+02  0.2898E+02
      7.326  0.3750E+01  0.3749E+01  0.2918E+02  0.2917E+02
      7.378  0.3834E+01  0.3832E+01  0.2937E+02  0.2937E+02
      7.429  0.3988E+01  0.3986E+01  0.2958E+02  0.2958E+02
      7.481  0.4089E+01  0.4088E+01  0.2979E+02  0.2979E+02
      7.532  0.4173E+01  0.4172E+01  0.3001E+02  0.3000E+02
      7.584  0.4222E+01  0.4223E+01  0.3022E+02  0.3022E+02
      7.635  0.4060E+01  0.4063E+01  0.3043E+02  0.3043E+02
      7.687  0.3867E+01  0.3869E+01  0.3063E+02  0.3063E+02
      7.738  0.3930E+01  0.3928E+01  0.3083E+02  0.3083E+02
      7.790  0.4143E+01  0.4141E+01  0.3105E+02  0.3104E+02
      7.841  0.4219E+01  0.4222E+01  0.3126E+02  0.3126E+02
      7.893  0.4120E+01  0.4125E+01  0.3148E+02  0.3147E+02
      7.944  0.3999E+01  0.4007E+01  0.3168E+02  0.3168E+02
      7.996  0.3811E+01  0.3824E+01  0.3188E+02  0.3188E+02
      8.047  0.3534E+01  0.3543E+01  0.3206E+02  0.3206E+02
      8.099  0.3402E+01  0.3395E+01  0.3224E+02  0.3224E+02
      8.150  0.3567E+01  0.3552E+01  0.3242E+02  0.3242E+02
      8.202  0.3923E+01  0.3910E+01  0.3262E+02  0.3262E+02
      8.253  0.4294E+01  0.4281E+01  0.3284E+02  0.3284E+02
      8.305  0.4530E+01  0.4514E+01  0.3308E+02  0.3307E+02
      8.356  0.4594E+01  0.4570E+01  0.3331E+02  0.3331E+02
      8.408  0.4529E+01  0.4509E+01  0.3355E+02  0.3354E+02
      8.459  0.4370E+01  0.4367E+01  0.3377E+02  0.3377E+02
      8.511  0.4180E+01  0.4191E+01  0.3399E+02  0.3398E+02
      8.562  0.3894E+01  0.3925E+01  0.3419E+02  0.3418E+02
      8.614  0.3370E+01  0.3451E+01  0.3436E+02  0.3436E+02
      8.665  0.2821E+01  0.2914E+01  0.3451E+02  0.3451E+02
      8.717  0.2508E+01  0.2549E+01  0.3464E+02  0.3464E+02
      8.768  0.2485E+01  0.2449E+01  0.3477E+02  0.3477E+02
      8.820  0.2609E+01  0.2522E+01  0.3490E+02  0.3490E+02
      8.871  0.2619E+01  0.2544E+01  0.3503E+02  0.3503E+02
      8.923  0.2413E+01  0.2384E+01  0.3516E+02  0.3515E+02
      8.974  0.2042E+01  0.2036E+01  0.3526E+02  0.3526E+02
      9.026  0.1555E+01  0.1549E+01  0.3534E+02  0.3534E+02
      9.077  0.1177E+01  0.1169E+01  0.3541E+02  0.3540E+02
      9.129  0.1002E+01  0.1008E+01  0.3546E+02  0.3545E+02
      9.180  0.9001E+00  0.9155E+00  0.3550E+02  0.3550E+02
      9.232  0.7951E+00  0.7950E+00  0.3554E+02  0.3554E+02
      9.283  0.7563E+00  0.7517E+00  0.3558E+02  0.3558E+02
      9.335  0.8226E+00  0.8565E+00  0.3563E+02  0.3562E+02
      9.386  0.9332E+00  0.9896E+00  0.3567E+02  0.3567E+02
      9.438  0.9312E+00  0.9620E+00  0.3572E+02  0.3572E+02
      9.489  0.7634E+00  0.7685E+00  0.3576E+02  0.3576E+02
      9.541  0.5563E+00  0.5522E+00  0.3579E+02  0.3579E+02
      9.592  0.4400E+00  0.4322E+00  0.3581E+02  0.3581E+02
      9.644  0.4454E+00  0.4384E+00  0.3584E+02  0.3584E+02
      9.695  0.4946E+00  0.5039E+00  0.3586E+02  0.3586E+02
      9.747  0.4913E+00  0.5313E+00  0.3589E+02  0.3589E+02
      9.798  0.4267E+00  0.4824E+00  0.3591E+02  0.3591E+02
      9.850  0.3563E+00  0.3932E+00  0.3593E+02  0.3593E+02
      9.901  0.3285E+00  0.3228E+00  0.3594E+02  0.3595E+02
      9.953  0.3200E+00  0.2845E+00  0.3596E+02  0.3597E+02
     10.004  0.2751E+00  0.2383E+00  0.3597E+02  0.3598E+02
     10.056  0.2131E+00  0.1832E+00  0.3599E+02  0.3599E+02
     10.107  0.1469E+00  0.1260E+00  0.3599E+02  0.3599E+02
     10.159  0.8110E-01  0.6942E-01  0.3600E+02  0.3600E+02
     10.210  0.3589E-01  0.3064E-01  0.3600E+02  0.3600E+02
     10.262  0.1408E-01  0.1188E-01  0.3600E+02  0.3600E+02
     10.313  0.5054E-02  0.4391E-02  0.3600E+02  0.3600E+02
     10.365  0.1621E-02  0.1406E-02  0.3600E+02  0.3600E+02
     10.416  0.5818E-03  0.4481E-03  0.3600E+02  0.3600E+02
     10.468  0.1058E-03  0.0000E+00  0.3600E+02  0.3600E+02
     10.519  0.0000E+00  0.0000E+00  0.3600E+02  0.3600E+02
     10.571  0.0000E+00  0.0000E+00  0.3600E+02  0.3600E+02
     10.622  0.0000E+00  0.0000E+00  0.3600E+02  0.3600E+02
     10.674  0.0000E+00  0.0000E+00  0.3600E+02  0.3600E+02
     10.725  0.0000E+00  0.0000E+00  0.3600E+02  0.3600E+02
     10.777  0.0000E+00  0.0000E+00  0.3600E+02  0.3600E+02
     10.77650791     -4.67190831  301      5.39455484      1.00000000
     -4.672  0.0000E+00  0.0000E+00  0.0000E+00  0.0000E+00  0.0000E+00  0.0000E+00  0.0000E+00  0.0000E+00  0.0000E+00  0.0000E+00  0.0000E+00  0.0000E+00  0.0000E+00  0.0000E+00  0.0000E+00  0.0000E+00  0.0000E+00  0.0000E+00
     -4.620  0.0000E+00  0.0000E+00  0.0000E+00  0.0000E+00  0.0000E+00  0.0000E+00  0.0000E+00  0.0000E+00  0.0000E+00  0.0000E+00  0.0000E+00  0.0000E+00  0.0000E+00  0.0000E+00  0.0000E+00  0.0000E+00  0.0000E+00  0.0000E+00
     -4.569  0.0000E+00  0.0000E+00  0.0000E+00  0.0000E+00  0.0000E+00  0.0000E+00  0.0000E+00  0.0000E+00  0.0000E+00  0.0000E+00  0.0000E+00  0.0000E+00  0.0000E+00  0.0000E+00  0.0000E+00  0.0000E+00  0.0000E+00  0.0000E+00
     -4.517  0.0000E+00  0.0000E+00  0.0000E+00  0.0000E+00  0.0000E+00  0.0000E+00  0.0000E+00  0.0000E+00  0.0000E+00  0.0000E+00  0.0000E+00  0.0000E+00  0.0000E+00  0.0000E+00  0.0000E+00  0.0000E+00  0.0000E+00  0.0000E+00
     -4.466  0.0000E+00  0.0000E+00  0.0000E+00  0.0000E+00  0.0000E+00  0.0000E+00  0.0000E+00  0.0000E+00  0.0000E+00  0.0000E+00  0.0000E+00  0.0000E+00  0.0000E+00  0.0000E+00  0.0000E+00  0.0000E+00  0.0000E+00  0.0000E+00
     -4.414  0.3921E-07  0.3868E-07  0.3625E-22  0.1345E-21  0.7264E-13  0.6705E-13  0.3625E-22  0.1345E-21  0.1345E-22  0.7894E-23  0.1381E-22  0.2398E-22  0.6449E-13  0.6267E-13  0.1381E-22  0.2398E-22  0.2691E-22  0.3623E-21
     -4.363  0.3149E-06  0.3107E-06  0.4890E-09  0.4827E-09  0.5178E-09  0.5112E-09  0.4890E-09  0.4827E-09  0.9403E-22  0.1362E-20  0.1323E-13  0.1401E-13  0.9945E-12  0.9722E-12  0.1323E-13  0.1401E-13  0.3883E-12  0.3799E-12
     -4.311  0.1144E-05  0.1129E-05  0.2884E-08  0.2847E-08  0.3171E-08  0.3130E-08  0.2884E-08  0.2847E-08  0.3431E-11  0.3377E-11  0.3422E-11  0.3386E-11  0.3766E-11  0.3680E-11  0.3422E-11  0.3386E-11  0.1447E-11  0.1419E-11
     -4.260  0.3045E-05  0.3004E-05  0.8118E-08  0.8013E-08  0.9062E-08  0.8944E-08  0.8118E-08  0.8013E-08  0.1286E-10  0.1266E-10  0.1350E-10  0.1335E-10  0.9176E-11  0.8961E-11  0.1350E-10  0.1335E-10  0.3303E-11  0.3237E-11
     -4.208  0.8433E-05  0.8320E-05  0.2318E-07  0.2288E-07  0.2487E-07  0.2455E-07  0.2318E-07  0.2288E-07  0.2931E-10  0.2885E-10  0.3056E-10  0.3023E-10  0.3374E-10  0.3302E-10  0.3056E-10  0.3023E-10  0.1711E-10  0.1683E-10
     -4.157  0.2431E-04  0.2399E-04  0.7469E-07  0.7373E-07  0.7871E-07  0.7770E-07  0.7469E-07  0.7373E-07  0.1173E-09  0.1156E-09  0.1156E-09  0.1142E-09  0.1160E-09  0.1137E-09  0.1156E-09  0.1142E-09  0.6538E-10  0.6433E-10
     -4.105  0.6675E-04  0.6588E-04  0.2098E-06  0.2071E-06  0.2226E-06  0.2197E-06  0.2098E-06  0.2071E-06  0.3673E-09  0.3621E-09  0.3668E-09  0.3626E-09  0.3126E-09  0.3063E-09  0.3668E-09  0.3626E-09  0.1749E-09  0.1722E-09
     -4.054  0.1760E-03  0.1738E-03  0.5581E-06  0.5511E-06  0.5937E-06  0.5863E-06  0.5581E-06  0.5511E-06  0.9417E-09  0.9283E-09  0.9418E-09  0.9311E-09  0.8255E-09  0.8092E-09  0.9418E-09  0.9311E-09  0.4623E-09  0.4550E-09
     -4.002  0.4334E-03  0.4285E-03  0.1475E-05  0.1458E-05  0.1573E-05  0.1554E-05  0.1475E-05  0.1458E-05  0.2645E-08  0.2609E-08  0.2623E-08  0.2594E-08  0.2159E-08  0.2119E-08  0.2623E-08  0.2594E-08  0.1246E-08  0.1228E-08
     -3.951  0.9278E-03  0.9195E-03  0.3574E-05  0.3537E-05  0.3823E-05  0.3783E-05  0.3574E-05  0.3537E-05  0.6999E-08  0.6910E-08  0.6966E-08  0.6894E-08  0.5174E-08  0.5087E-08  0.6966E-08  0.6894E-08  0.3202E-08  0.3159E-08
     -3.899  0.1627E-02  0.1617E-02  0.7513E-05  0.7450E-05  0.8009E-05  0.7943E-05  0.7513E-05  0.7450E-05  0.1642E-07  0.1624E-07  0.1634E-07  0.1619E-07  0.1120E-07  0.1103E-07  0.1634E-07  0.1619E-07  0.7661E-08  0.7569E-08
     -3.848  0.2321E-02  0.2312E-02  0.1361E-04  0.1352E-04  0.1430E-04  0.1421E-04  0.1361E-04  0.1352E-04  0.3440E-07  0.3409E-07  0.3400E-07  0.3374E-07  0.2261E-07  0.2231E-07  0.3400E-07  0.3374E-07  0.1696E-07  0.1678E-07
     -3.796  0.2911E-02  0.2903E-02  0.2234E-04  0.2221E-04  0.2316E-04  0.2302E-04  0.2234E-04  0.2221E-04  0.6589E-07  0.6539E-07  0.6398E-07  0.6352E-07  0.4366E-07  0.4317E-07  0.6398E-07  0.6352E-07  0.3444E-07  0.3414E-07
     -3.745  0.3578E-02  0.3568E-02  0.3424E-04  0.3408E-04  0.3640E-04  0.3622E-04  0.3424E-04  0.3408E-04  0.1189E-06  0.1182E-06  0.1161E-06  0.1153E-06  0.7541E-07  0.7477E-07  0.1161E-06  0.1153E-06  0.5970E-07  0.5934E-07
     -3.694  0.4176E-02  0.4169E-02  0.4635E-04  0.4622E-04  0.5152E-04  0.5136E-04  0.4635E-04  0.4622E-04  0.1920E-06  0.1912E-06  0.1913E-06  0.1903E-06  0.1072E-06  0.1065E-06  0.1913E-06  0.1903E-06  0.8458E-07  0.8424E-07
     -3.642  0.4285E-02  0.4284E-02  0.5547E-04  0.5536E-04  0.6155E-04  0.6146E-04  0.5547E-04  0.5536E-04  0.2756E-06  0.2747E-06  0.2728E-06  0.2718E-06  0.1353E-06  0.1346E-06  0.2728E-06  0.2718E-06  0.1117E-06  0.1111E-06
     -3.591  0.4307E-02  0.4302E-02  0.6869E-04  0.6846E-04  0.7130E-04  0.7113E-04  0.6869E-04  0.6846E-04  0.3912E-06  0.3897E-06  0.3823E-06  0.3805E-06  0.1876E-06  0.1862E-06  0.3823E-06  0.3805E-06  0.1715E-06  0.1702E-06
     -3.539  0.4873E-02  0.4862E-02  0.9263E-04  0.9230E-04  0.9195E-04  0.9163E-04  0.9263E-04  0.9230E-04  0.5539E-06  0.5520E-06  0.5476E-06  0.5453E-06  0.2954E-06  0.2928E-06  0.5476E-06  0.5453E-06  0.2845E-06  0.2825E-06
     -3.488  0.5528E-02  0.5521E-02  0.1161E-03  0.1159E-03  0.1189E-03  0.1186E-03  0.1161E-03  0.1159E-03  0.7222E-06  0.7204E-06  0.7155E-06  0.7134E-06  0.4439E-06  0.4408E-06  0.7155E-06  0.7134E-06  0.4074E-06  0.4056E-06
     -3.436  0.5691E-02  0.5690E-02  0.1282E-03  0.1281E-03  0.1427E-03  0.1424E-03  0.1282E-03  0.1281E-03  0.9130E-06  0.9102E-06  0.8819E-06  0.8791E-06  0.5715E-06  0.5688E-06  0.8819E-06  0.8791E-06  0.4666E-06  0.4655E-06
     -3.385  0.5631E-02  0.5629E-02  0.1386E-03  0.1384E-03  0.1616E-03  0.1614E-03  0.1386E-03  0.1384E-03  0.1222E-05  0.1217E-05  0.1147E-05  0.1142E-05  0.6378E-06  0.6357E-06  0.1147E-05  0.1142E-05  0.4782E-06  0.4769E-06
     -3.333  0.5811E-02  0.5806E-02  0.1598E-03  0.1595E-03  0.1815E-03  0.1812E-03  0.1598E-03  0.1595E-03  0.1615E-05  0.1611E-05  0.1553E-05  0.1546E-05  0.6896E-06  0.6870E-06  0.1553E-05  0.1546E-05  0.5471E-06  0.5441E-06
     -3.282  0.6035E-02  0.6033E-02  0.1822E-03  0.1820E-03  0.2021E-03  0.2019E-03  0.1822E-03  0.1820E-03  0.1867E-05  0.1865E-05  0.1944E-05  0.1939E-05  0.7766E-06  0.7734E-06  0.1944E-05  0.1939E-05  0.7068E-06  0.7022E-06
     -3.230  0.5856E-02  0.5857E-02  0.1966E-03  0.1964E-03  0.2063E-03  0.2064E-03  0.1966E-03  0.1964E-03  0.1953E-05  0.1951E-05  0.2098E-05  0.2095E-05  0.9159E-06  0.9111E-06  0.2098E-05  0.2095E-05  0.9488E-06  0.9423E-06
     -3.179  0.5858E-02  0.5852E-02  0.2261E-03  0.2255E-03  0.2124E-03  0.2121E-03  0.2261E-03  0.2255E-03  0.2333E-05  0.2324E-05  0.2259E-05  0.2253E-05  0.1199E-05  0.1190E-05  0.2259E-05  0.2253E-05  0.1295E-05  0.1286E-05
     -3.127  0.6517E-02  0.6505E-02  0.2728E-03  0.2722E-03  0.2614E-03  0.2606E-03  0.2728E-03  0.2722E-03  0.3151E-05  0.3139E-05  0.2807E-05  0.2796E-05  0.1657E-05  0.1645E-05  0.2807E-05  0.2796E-05  0.1605E-05  0.1598E-05
     -3.076  0.7115E-02  0.7108E-02  0.3041E-03  0.3039E-03  0.3344E-03  0.3336E-03  0.3041E-03  0.3039E-03  0.3915E-05  0.3906E-05  0.3573E-05  0.3560E-05  0.2090E-05  0.2079E-05  0.3573E-05  0.3560E-05  0.1726E-05  0.1720E-05
     -3.024  0.7259E-02  0.7257E-02  0.3203E-03  0.3202E-03  0.3824E-03  0.3821E-03  0.3203E-03  0.3202E-03  0.4428E-05  0.4421E-05  0.4333E-05  0.4320E-05  0.2292E-05  0.2283E-05  0.4333E-05  0.4320E-05  0.1803E-05  0.1796E-05
     -2.973  0.7087E-02  0.7089E-02  0.3305E-03  0.3305E-03  0.3994E-03  0.3993E-03  0.3305E-03  0.3305E-03  0.4830E-05  0.4824E-05  0.5017E-05  0.5004E-05  0.2306E-05  0.2299E-05  0.5017E-05  0.5004E-05  0.1882E-05  0.1876E-05
     -2.921  0.6670E-02  0.6675E-02  0.3249E-03  0.3251E-03  0.4114E-03  0.4114E-03  0.3249E-03  0.3251E-03  0.5172E-05  0.5166E-05  0.5596E-05  0.5584E-05  0.2285E-05  0.2278E-05  0.5596E-05  0.5584E-05  0.1799E-05  0.1796E-05
     -2.870  0.6182E-02  0.6185E-02  0.3248E-03  0.3246E-03  0.4033E-03  0.4036E-03  0.3248E-03  0.3246E-03  0.5710E-05  0.5698E-05  0.5923E-05  0.5916E-05  0.2288E-05  0.2281E-05  0.5923E-05  0.5916E-05  0.1813E-05  0.1805E-05
     -2.818  0.6074E-02  0.6068E-02  0.3727E-03  0.3717E-03  0.3755E-03  0.3757E-03  0.3727E-03  0.3717E-03  0.6836E-05  0.6815E-05  0.6134E-05  0.6123E-05  0.2533E-05  0.2521E-05  0.6134E-05  0.6123E-05  0.2409E-05  0.2392E-05
     -2.767  0.6693E-02  0.6679E-02  0.4671E-03  0.4659E-03  0.4063E-03  0.4054E-03  0.4671E-03  0.4659E-03  0.8281E-05  0.8261E-05  0.7095E-05  0.7070E-05  0.3240E-05  0.3221E-05  0.7095E-05  0.7070E-05  0.3521E-05  0.3499E-05
     -2.715  0.7497E-02  0.7487E-02  0.5453E-03  0.5447E-03  0.5200E-03  0.5184E-03  0.5453E-03  0.5447E-03  0.9155E-05  0.9145E-05  0.8905E-05  0.8874E-05  0.4091E-05  0.4072E-05  0.8905E-05  0.8874E-05  0.4456E-05  0.4440E-05
     -2.664  0.7742E-02  0.7740E-02  0.5652E-03  0.5652E-03  0.6466E-03  0.6454E-03  0.5652E-03  0.5652E-03  0.9628E-05  0.9614E-05  0.1051E-04  0.1048E-04  0.4701E-05  0.4684E-05  0.1051E-04  0.1048E-04  0.4673E-05  0.4665E-05
     -2.612  0.7621E-02  0.7620E-02  0.5761E-03  0.5758E-03  0.7151E-03  0.7147E-03  0.5761E-03  0.5758E-03  0.1096E-04  0.1093E-04  0.1149E-04  0.1147E-04  0.5071E-05  0.5056E-05  0.1149E-04  0.1147E-04  0.4618E-05  0.4610E-05
     -2.561  0.7457E-02  0.7458E-02  0.5976E-03  0.5975E-03  0.7350E-03  0.7349E-03  0.5976E-03  0.5975E-03  0.1260E-04  0.1258E-04  0.1240E-04  0.1238E-04  0.5228E-05  0.5215E-05  0.1240E-04  0.1238E-04  0.4641E-05  0.4635E-05
     -2.509  0.6827E-02  0.6836E-02  0.5637E-03  0.5644E-03  0.7448E-03  0.7449E-03  0.5637E-03  0.5644E-03  0.1294E-04  0.1293E-04  0.1278E-04  0.1277E-04  0.5217E-05  0.5206E-05  0.1278E-04  0.1277E-04  0.4182E-05  0.4185E-05
     -2.458  0.6014E-02  0.6018E-02  0.5196E-03  0.5196E-03  0.7460E-03  0.7461E-03  0.5196E-03  0.5196E-03  0.1350E-04  0.1348E-04  0.1277E-04  0.1275E-04  0.5229E-05  0.5216E-05  0.1277E-04  0.1275E-04  0.3575E-05  0.3573E-05
     -2.406  0.5959E-02  0.5952E-02  0.5801E-03  0.5786E-03  0.7625E-03  0.7620E-03  0.5801E-03  0.5786E-03  0.1623E-04  0.1617E-04  0.1442E-04  0.1437E-04  0.5328E-05  0.5314E-05  0.1442E-04  0.1437E-04  0.3908E-05  0.3890E-05
     -2.355  0.6657E-02  0.6646E-02  0.7309E-03  0.7289E-03  0.8665E-03  0.8647E-03  0.7309E-03  0.7289E-03  0.1962E-04  0.1957E-04  0.1850E-04  0.1842E-04  0.5666E-05  0.5648E-05  0.1850E-04  0.1842E-04  0.5223E-05  0.5196E-05
     -2.303  0.7297E-02  0.7293E-02  0.8781E-03  0.8768E-03  0.1038E-02  0.1037E-02  0.8781E-03  0.8768E-03  0.2137E-04  0.2134E-04  0.2280E-04  0.2274E-04  0.6329E-05  0.6309E-05  0.2280E-04  0.2274E-04  0.6817E-05  0.6791E-05
     -2.252  0.7192E-02  0.7195E-02  0.9491E-03  0.9487E-03  0.1139E-02  0.1139E-02  0.9491E-03  0.9487E-03  0.2112E-04  0.2111E-04  0.2475E-04  0.2472E-04  0.6830E-05  0.6814E-05  0.2475E-04  0.2472E-04  0.7859E-05  0.7840E-05
     -2.200  0.6527E-02  0.6534E-02  0.9601E-03  0.9600E-03  0.1119E-02  0.1120E-02  0.9601E-03  0.9600E-03  0.2126E-04  0.2123E-04  0.2474E-04  0.2473E-04  0.6730E-05  0.6721E-05  0.2474E-04  0.2473E-04  0.7975E-05  0.7966E-05
     -2.149  0.5774E-02  0.5781E-02  0.9740E-03  0.9736E-03  0.1043E-02  0.1044E-02  0.9740E-03  0.9736E-03  0.2313E-04  0.2308E-04  0.2402E-04  0.2400E-04  0.6358E-05  0.6349E-05  0.2402E-04  0.2400E-04  0.7694E-05  0.7688E-05
     -2.097  0.5217E-02  0.5221E-02  0.1005E-02  0.1005E-02  0.9766E-03  0.9774E-03  0.1005E-02  0.1005E-02  0.2641E-04  0.2634E-04  0.2375E-04  0.2372E-04  0.6342E-05  0.6327E-05  0.2375E-04  0.2372E-04  0.7303E-05  0.7303E-05