   8   8   1   0
  0.1731900E+02  0.3982903E-09  0.3982903E-09  0.8734002E-09  0.5000000E-15
  1.000000000000000E-004
  CAR 
 unknown system                          
     13.38387283    -44.63717095  301      6.76580186      1.00000000
    -44.637  0.0000E+00  0.0000E+00  0.0000E+00  0.0000E+00
    -44.444  0.0000E+00  0.0000E+00  0.0000E+00  0.0000E+00
    -44.250  0.0000E+00  0.0000E+00  0.0000E+00  0.0000E+00
    -44.057  0.0000E+00  0.0000E+00  0.0000E+00  0.0000E+00
    -43.864  0.0000E+00  0.0000E+00  0.0000E+00  0.0000E+00
    -43.670  0.0000E+00  0.0000E+00  0.0000E+00  0.0000E+00
    -43.477  0.0000E+00  0.0000E+00  0.0000E+00  0.0000E+00
    -43.283  0.0000E+00  0.0000E+00  0.0000E+00  0.0000E+00
    -43.090  0.0000E+00  0.0000E+00  0.0000E+00  0.0000E+00
    -42.897  0.0000E+00  0.0000E+00  0.0000E+00  0.0000E+00
    -42.703  0.0000E+00  0.0000E+00  0.0000E+00  0.0000E+00
    -42.510  0.3715E-03  0.3445E-03  0.7186E-04  0.6663E-04
    -42.316  0.1738E-01  0.1611E-01  0.3432E-02  0.3183E-02
    -42.123  0.7683E+00  0.7164E+00  0.1520E+00  0.1417E+00
    -41.930  0.7460E+01  0.7384E+01  0.1595E+01  0.1570E+01
    -41.736  0.2041E+01  0.2165E+01  0.1989E+01  0.1989E+01
    -41.543  0.0000E+00  0.0000E+00  0.2000E+01  0.2000E+01
    -41.349  0.0000E+00  0.0000E+00  0.2000E+01  0.2000E+01
    -41.156  0.0000E+00  0.0000E+00  0.2000E+01  0.2000E+01
    -40.963  0.0000E+00  0.0000E+00  0.2000E+01  0.2000E+01
    -40.769  0.0000E+00  0.0000E+00  0.2000E+01  0.2000E+01
    -40.576  0.0000E+00  0.0000E+00  0.2000E+01  0.2000E+01
    -40.382  0.0000E+00  0.0000E+00  0.2000E+01  0.2000E+01
    -40.189  0.0000E+00  0.0000E+00  0.2000E+01  0.2000E+01
    -39.995  0.0000E+00  0.0000E+00  0.2000E+01  0.2000E+01
    -39.802  0.0000E+00  0.0000E+00  0.2000E+01  0.2000E+01
    -39.609  0.0000E+00  0.0000E+00  0.2000E+01  0.2000E+01
    -39.415  0.0000E+00  0.0000E+00  0.2000E+01  0.2000E+01
    -39.222  0.0000E+00  0.0000E+00  0.2000E+01  0.2000E+01
    -39.028  0.0000E+00  0.0000E+00  0.2000E+01  0.2000E+01
    -38.835  0.0000E+00  0.0000E+00  0.2000E+01  0.2000E+01
    -38.642  0.0000E+00  0.0000E+00  0.2000E+01  0.2000E+01
    -38.448  0.0000E+00  0.0000E+00  0.2000E+01  0.2000E+01
    -38.255  0.0000E+00  0.0000E+00  0.2000E+01  0.2000E+01
    -38.061  0.0000E+00  0.0000E+00  0.2000E+01  0.2000E+01
    -37.868  0.0000E+00  0.0000E+00  0.2000E+01  0.2000E+01
    -37.675  0.0000E+00  0.0000E+00  0.2000E+01  0.2000E+01
    -37.481  0.0000E+00  0.0000E+00  0.2000E+01  0.2000E+01
    -37.288  0.0000E+00  0.0000E+00  0.2000E+01  0.2000E+01
    -37.094  0.0000E+00  0.0000E+00  0.2000E+01  0.2000E+01
    -36.901  0.0000E+00  0.0000E+00  0.2000E+01  0.2000E+01
    -36.708  0.0000E+00  0.0000E+00  0.2000E+01  0.2000E+01
    -36.514  0.0000E+00  0.0000E+00  0.2000E+01  0.2000E+01
    -36.321  0.0000E+00  0.0000E+00  0.2000E+01  0.2000E+01
    -36.127  0.0000E+00  0.0000E+00  0.2000E+01  0.2000E+01
    -35.934  0.0000E+00  0.0000E+00  0.2000E+01  0.2000E+01
    -35.741  0.0000E+00  0.0000E+00  0.2000E+01  0.2000E+01
    -35.547  0.0000E+00  0.0000E+00  0.2000E+01  0.2000E+01
    -35.354  0.0000E+00  0.0000E+00  0.2000E+01  0.2000E+01
    -35.160  0.0000E+00  0.0000E+00  0.2000E+01  0.2000E+01
    -34.967  0.0000E+00  0.0000E+00  0.2000E+01  0.2000E+01
    -34.774  0.0000E+00  0.0000E+00  0.2000E+01  0.2000E+01
    -34.580  0.0000E+00  0.0000E+00  0.2000E+01  0.2000E+01
    -34.387  0.0000E+00  0.0000E+00  0.2000E+01  0.2000E+01
    -34.193  0.0000E+00  0.0000E+00  0.2000E+01  0.2000E+01
    -34.000  0.0000E+00  0.0000E+00  0.2000E+01  0.2000E+01
    -33.807  0.0000E+00  0.0000E+00  0.2000E+01  0.2000E+01
    -33.613  0.0000E+00  0.0000E+00  0.2000E+01  0.2000E+01
    -33.420  0.0000E+00  0.0000E+00  0.2000E+01  0.2000E+01
    -33.226  0.0000E+00  0.0000E+00  0.2000E+01  0.2000E+01
    -33.033  0.0000E+00  0.0000E+00  0.2000E+01  0.2000E+01
    -32.840  0.0000E+00  0.0000E+00  0.2000E+01  0.2000E+01
    -32.646  0.0000E+00  0.0000E+00  0.2000E+01  0.2000E+01
    -32.453  0.0000E+00  0.0000E+00  0.2000E+01  0.2000E+01
    -32.259  0.0000E+00  0.0000E+00  0.2000E+01  0.2000E+01
    -32.066  0.0000E+00  0.0000E+00  0.2000E+01  0.2000E+01
    -31.873  0.0000E+00  0.0000E+00  0.2000E+01  0.2000E+01
    -31.679  0.0000E+00  0.0000E+00  0.2000E+01  0.2000E+01
    -31.486  0.0000E+00  0.0000E+00  0.2000E+01  0.2000E+01
    -31.292  0.0000E+00  0.0000E+00  0.2000E+01  0.2000E+01
    -31.099  0.0000E+00  0.0000E+00  0.2000E+01  0.2000E+01
    -30.906  0.0000E+00  0.0000E+00  0.2000E+01  0.2000E+01
    -30.712  0.0000E+00  0.0000E+00  0.2000E+01  0.2000E+01
    -30.519  0.0000E+00  0.0000E+00  0.2000E+01  0.2000E+01
    -30.325  0.0000E+00  0.0000E+00  0.2000E+01  0.2000E+01
    -30.132  0.0000E+00  0.0000E+00  0.2000E+01  0.2000E+01
    -29.939  0.0000E+00  0.0000E+00  0.2000E+01  0.2000E+01
    -29.745  0.0000E+00  0.0000E+00  0.2000E+01  0.2000E+01
    -29.552  0.0000E+00  0.0000E+00  0.2000E+01  0.2000E+01
    -29.358  0.0000E+00  0.0000E+00  0.2000E+01  0.2000E+01
    -29.165  0.0000E+00  0.0000E+00  0.2000E+01  0.2000E+01
    -28.971  0.0000E+00  0.0000E+00  0.2000E+01  0.2000E+01
    -28.778  0.0000E+00  0.0000E+00  0.2000E+01  0.2000E+01
    -28.585  0.0000E+00  0.0000E+00  0.2000E+01  0.2000E+01
    -28.391  0.0000E+00  0.0000E+00  0.2000E+01  0.2000E+01
    -28.198  0.0000E+00  0.0000E+00  0.2000E+01  0.2000E+01
    -28.004  0.0000E+00  0.0000E+00  0.2000E+01  0.2000E+01
    -27.811  0.0000E+00  0.0000E+00  0.2000E+01  0.2000E+01
    -27.618  0.0000E+00  0.0000E+00  0.2000E+01  0.2000E+01
    -27.424  0.0000E+00  0.0000E+00  0.2000E+01  0.2000E+01
    -27.231  0.0000E+00  0.0000E+00  0.2000E+01  0.2000E+01
    -27.037  0.0000E+00  0.0000E+00  0.2000E+01  0.2000E+01
    -26.844  0.0000E+00  0.0000E+00  0.2000E+01  0.2000E+01
    -26.651  0.0000E+00  0.0000E+00  0.2000E+01  0.2000E+01
    -26.457  0.0000E+00  0.0000E+00  0.2000E+01  0.2000E+01
    -26.264  0.0000E+00  0.0000E+00  0.2000E+01  0.2000E+01
    -26.070  0.0000E+00  0.0000E+00  0.2000E+01  0.2000E+01
    -25.877  0.0000E+00  0.0000E+00  0.2000E+01  0.2000E+01
    -25.684  0.0000E+00  0.0000E+00  0.2000E+01  0.2000E+01
    -25.490  0.0000E+00  0.0000E+00  0.2000E+01  0.2000E+01
    -25.297  0.0000E+00  0.0000E+00  0.2000E+01  0.2000E+01
    -25.103  0.0000E+00  0.0000E+00  0.2000E+01  0.2000E+01
    -24.910  0.0000E+00  0.0000E+00  0.2000E+01  0.2000E+01
    -24.717  0.0000E+00  0.0000E+00  0.2000E+01  0.2000E+01
    -24.523  0.0000E+00  0.0000E+00  0.2000E+01  0.2000E+01
    -24.330  0.0000E+00  0.0000E+00  0.2000E+01  0.2000E+01
    -24.136  0.0000E+00  0.0000E+00  0.2000E+01  0.2000E+01
    -23.943  0.0000E+00  0.0000E+00  0.2000E+01  0.2000E+01
    -23.750  0.0000E+00  0.0000E+00  0.2000E+01  0.2000E+01
    -23.556  0.0000E+00  0.0000E+00  0.2000E+01  0.2000E+01
    -23.363  0.0000E+00  0.0000E+00  0.2000E+01  0.2000E+01
    -23.169  0.0000E+00  0.0000E+00  0.2000E+01  0.2000E+01
    -22.976  0.0000E+00  0.0000E+00  0.2000E+01  0.2000E+01
    -22.783  0.0000E+00  0.0000E+00  0.2000E+01  0.2000E+01
    -22.589  0.0000E+00  0.0000E+00  0.2000E+01  0.2000E+01
    -22.396  0.0000E+00  0.0000E+00  0.2000E+01  0.2000E+01
    -22.202  0.0000E+00  0.0000E+00  0.2000E+01  0.2000E+01
    -22.009  0.0000E+00  0.0000E+00  0.2000E+01  0.2000E+01
    -21.816  0.0000E+00  0.0000E+00  0.2000E+01  0.2000E+01
    -21.622  0.0000E+00  0.0000E+00  0.2000E+01  0.2000E+01
    -21.429  0.0000E+00  0.0000E+00  0.2000E+01  0.2000E+01
    -21.235  0.7792E-03  0.7198E-03  0.2000E+01  0.2000E+01
    -21.042  0.3646E-01  0.3368E-01  0.2007E+01  0.2007E+01
    -20.849  0.1646E+01  0.1527E+01  0.2325E+01  0.2302E+01
    -20.655  0.2085E+02  0.2048E+02  0.6357E+01  0.6262E+01
    -20.462  0.8247E+01  0.8719E+01  0.7952E+01  0.7949E+01
    -20.268  0.0000E+00  0.0000E+00  0.8000E+01  0.8000E+01
    -20.075  0.0000E+00  0.0000E+00  0.8000E+01  0.8000E+01
    -19.882  0.0000E+00  0.0000E+00  0.8000E+01  0.8000E+01
    -19.688  0.0000E+00  0.0000E+00  0.8000E+01  0.8000E+01
    -19.495  0.0000E+00  0.0000E+00  0.8000E+01  0.8000E+01
    -19.301  0.0000E+00  0.0000E+00  0.8000E+01  0.8000E+01
    -19.108  0.0000E+00  0.0000E+00  0.8000E+01  0.8000E+01
    -18.915  0.0000E+00  0.0000E+00  0.8000E+01  0.8000E+01
    -18.721  0.0000E+00  0.0000E+00  0.8000E+01  0.8000E+01
    -18.528  0.0000E+00  0.0000E+00  0.8000E+01  0.8000E+01
    -18.334  0.0000E+00  0.0000E+00  0.8000E+01  0.8000E+01
    -18.141  0.0000E+00  0.0000E+00  0.8000E+01  0.8000E+01
    -17.947  0.0000E+00  0.0000E+00  0.8000E+01  0.8000E+01
    -17.754  0.0000E+00  0.0000E+00  0.8000E+01  0.8000E+01
    -17.561  0.0000E+00  0.0000E+00  0.8000E+01  0.8000E+01
    -17.367  0.0000E+00  0.0000E+00  0.8000E+01  0.8000E+01
    -17.174  0.0000E+00  0.0000E+00  0.8000E+01  0.8000E+01
    -16.980  0.0000E+00  0.0000E+00  0.8000E+01  0.8000E+01
    -16.787  0.0000E+00  0.0000E+00  0.8000E+01  0.8000E+01
    -16.594  0.0000E+00  0.0000E+00  0.8000E+01  0.8000E+01
    -16.400  0.0000E+00  0.0000E+00  0.8000E+01  0.8000E+01
    -16.207  0.0000E+00  0.0000E+00  0.8000E+01  0.8000E+01
    -16.013  0.0000E+00  0.0000E+00  0.8000E+01  0.8000E+01
    -15.820  0.0000E+00  0.0000E+00  0.8000E+01  0.8000E+01
    -15.627  0.0000E+00  0.0000E+00  0.8000E+01  0.8000E+01
    -15.433  0.0000E+00  0.0000E+00  0.8000E+01  0.8000E+01
    -15.240  0.0000E+00  0.0000E+00  0.8000E+01  0.8000E+01
    -15.046  0.0000E+00  0.0000E+00  0.8000E+01  0.8000E+01
    -14.853  0.0000E+00  0.0000E+00  0.8000E+01  0.8000E+01
    -14.660  0.0000E+00  0.0000E+00  0.8000E+01  0.8000E+01
    -14.466  0.0000E+00  0.0000E+00  0.8000E+01  0.8000E+01
    -14.273  0.0000E+00  0.0000E+00  0.8000E+01  0.8000E+01
    -14.079  0.0000E+00  0.0000E+00  0.8000E+01  0.8000E+01
    -13.886  0.0000E+00  0.0000E+00  0.8000E+01  0.8000E+01
    -13.693  0.0000E+00  0.0000E+00  0.8000E+01  0.8000E+01
    -13.499  0.0000E+00  0.0000E+00  0.8000E+01  0.8000E+01
    -13.306  0.0000E+00  0.0000E+00  0.8000E+01  0.8000E+01
    -13.112  0.0000E+00  0.0000E+00  0.8000E+01  0.8000E+01
    -12.919  0.0000E+00  0.0000E+00  0.8000E+01  0.8000E+01
    -12.726  0.0000E+00  0.0000E+00  0.8000E+01  0.8000E+01
    -12.532  0.0000E+00  0.0000E+00  0.8000E+01  0.8000E+01
    -12.339  0.0000E+00  0.0000E+00  0.8000E+01  0.8000E+01
    -12.145  0.0000E+00  0.0000E+00  0.8000E+01  0.8000E+01
    -11.952  0.0000E+00  0.0000E+00  0.8000E+01  0.8000E+01
    -11.759  0.0000E+00  0.0000E+00  0.8000E+01  0.8000E+01
    -11.565  0.0000E+00  0.0000E+00  0.8000E+01  0.8000E+01
    -11.372  0.0000E+00  0.0000E+00  0.8000E+01  0.8000E+01
    -11.178  0.0000E+00  0.0000E+00  0.8000E+01  0.8000E+01
    -10.985  0.0000E+00  0.0000E+00  0.8000E+01  0.8000E+01
    -10.792  0.0000E+00  0.0000E+00  0.8000E+01  0.8000E+01
    -10.598  0.0000E+00  0.0000E+00  0.8000E+01  0.8000E+01
    -10.405  0.0000E+00  0.0000E+00  0.8000E+01  0.8000E+01
    -10.211  0.0000E+00  0.0000E+00  0.8000E+01  0.8000E+01
    -10.018  0.0000E+00  0.0000E+00  0.8000E+01  0.8000E+01
     -9.825  0.0000E+00  0.0000E+00  0.8000E+01  0.8000E+01
     -9.631  0.0000E+00  0.0000E+00  0.8000E+01  0.8000E+01
     -9.438  0.0000E+00  0.0000E+00  0.8000E+01  0.8000E+01
     -9.244  0.0000E+00  0.0000E+00  0.8000E+01  0.8000E+01
     -9.051  0.0000E+00  0.0000E+00  0.8000E+01  0.8000E+01
     -8.858  0.0000E+00  0.0000E+00  0.8000E+01  0.8000E+01
     -8.664  0.0000E+00  0.0000E+00  0.8000E+01  0.8000E+01
     -8.471  0.0000E+00  0.0000E+00  0.8000E+01  0.8000E+01
     -8.277  0.0000E+00  0.0000E+00  0.8000E+01  0.8000E+01
     -8.084  0.0000E+00  0.0000E+00  0.8000E+01  0.8000E+01
     -7.891  0.0000E+00  0.0000E+00  0.8000E+01  0.8000E+01
     -7.697  0.0000E+00  0.0000E+00  0.8000E+01  0.8000E+01
     -7.504  0.0000E+00  0.0000E+00  0.8000E+01  0.8000E+01
     -7.310  0.0000E+00  0.0000E+00  0.8000E+01  0.8000E+01
     -7.117  0.0000E+00  0.0000E+00  0.8000E+01  0.8000E+01
     -6.923  0.0000E+00  0.0000E+00  0.8000E+01  0.8000E+01
     -6.730  0.0000E+00  0.0000E+00  0.8000E+01  0.8000E+01
     -6.537  0.0000E+00  0.0000E+00  0.8000E+01  0.8000E+01
     -6.343  0.0000E+00  0.0000E+00  0.8000E+01  0.8000E+01
     -6.150  0.0000E+00  0.0000E+00  0.8000E+01  0.8000E+01
     -5.956  0.0000E+00  0.0000E+00  0.8000E+01  0.8000E+01
     -5.763  0.0000E+00  0.0000E+00  0.8000E+01  0.8000E+01
     -5.570  0.0000E+00  0.0000E+00  0.8000E+01  0.8000E+01
     -5.376  0.0000E+00  0.0000E+00  0.8000E+01  0.8000E+01
     -5.183  0.0000E+00  0.0000E+00  0.8000E+01  0.8000E+01
     -4.989  0.0000E+00  0.0000E+00  0.8000E+01  0.8000E+01
     -4.796  0.0000E+00  0.0000E+00  0.8000E+01  0.8000E+01
     -4.603  0.0000E+00  0.0000E+00  0.8000E+01  0.8000E+01
     -4.409  0.0000E+00  0.0000E+00  0.8000E+01  0.8000E+01
     -4.216  0.0000E+00  0.0000E+00  0.8000E+01  0.8000E+01
     -4.022  0.0000E+00  0.0000E+00  0.8000E+01  0.8000E+01
     -3.829  0.0000E+00  0.0000E+00  0.8000E+01  0.8000E+01
     -3.636  0.0000E+00  0.0000E+00  0.8000E+01  0.8000E+01
     -3.442  0.0000E+00  0.0000E+00  0.8000E+01  0.8000E+01
     -3.249  0.2420E-05  0.2445E-05  0.8000E+01  0.8000E+01
     -3.055  0.1301E-03  0.1314E-03  0.8000E+01  0.8000E+01
     -2.862  0.5679E-02  0.5732E-02  0.8001E+01  0.8001E+01
     -2.669  0.8152E-01  0.8186E-01  0.8017E+01  0.8017E+01
     -2.475  0.2140E+00  0.2143E+00  0.8058E+01  0.8058E+01
     -2.282  0.2917E+00  0.2917E+00  0.8115E+01  0.8115E+01
     -2.088  0.3831E+00  0.3833E+00  0.8189E+01  0.8189E+01
     -1.895  0.4085E+00  0.4088E+00  0.8268E+01  0.8269E+01
     -1.702  0.5099E+00  0.5102E+00  0.8367E+01  0.8368E+01
     -1.508  0.5347E+00  0.5346E+00  0.8471E+01  0.8471E+01
     -1.315  0.6035E+00  0.6042E+00  0.8588E+01  0.8589E+01
     -1.121  0.7185E+00  0.7184E+00  0.8727E+01  0.8728E+01
     -0.928  0.6768E+00  0.6769E+00  0.8859E+01  0.8859E+01
     -0.735  0.7415E+00  0.7417E+00  0.9003E+01  0.9003E+01
     -0.541  0.7525E+00  0.7529E+00  0.9149E+01  0.9149E+01
     -0.348  0.7720E+00  0.7717E+00  0.9299E+01  0.9299E+01
     -0.154  0.7691E+00  0.7698E+00  0.9448E+01  0.9449E+01
      0.039  0.9366E+00  0.9362E+00  0.9630E+01  0.9631E+01
      0.232  0.7966E+00  0.7964E+00  0.9785E+01  0.9785E+01
      0.426  0.8923E+00  0.8929E+00  0.9958E+01  0.9959E+01
      0.619  0.1134E+01  0.1135E+01  0.1018E+02  0.1018E+02
      0.813  0.1077E+01  0.1076E+01  0.1039E+02  0.1039E+02
      1.006  0.1082E+01  0.1082E+01  0.1060E+02  0.1060E+02
      1.199  0.1078E+01  0.1078E+01  0.1081E+02  0.1081E+02
      1.393  0.8165E+00  0.8157E+00  0.1097E+02  0.1097E+02
      1.586  0.8770E+00  0.8761E+00  0.1114E+02  0.1114E+02
      1.780  0.8561E+00  0.8557E+00  0.1130E+02  0.1130E+02
      1.973  0.9963E+00  0.9968E+00  0.1150E+02  0.1150E+02
      2.166  0.1354E+01  0.1355E+01  0.1176E+02  0.1176E+02
      2.360  0.1297E+01  0.1296E+01  0.1201E+02  0.1201E+02
      2.553  0.1140E+01  0.1140E+01  0.1223E+02  0.1223E+02
      2.747  0.1310E+01  0.1310E+01  0.1249E+02  0.1249E+02
      2.940  0.1327E+01  0.1326E+01  0.1274E+02  0.1274E+02
      3.133  0.1037E+01  0.1037E+01  0.1294E+02  0.1294E+02
      3.327  0.1163E+01  0.1163E+01  0.1317E+02  0.1317E+02
      3.520  0.1312E+01  0.1312E+01  0.1343E+02  0.1343E+02
      3.714  0.1376E+01  0.1376E+01  0.1369E+02  0.1369E+02
      3.907  0.1360E+01  0.1360E+01  0.1396E+02  0.1396E+02
      4.101  0.1393E+01  0.1393E+01  0.1423E+02  0.1423E+02
      4.294  0.1642E+01  0.1641E+01  0.1454E+02  0.1454E+02
      4.487  0.1894E+01  0.1894E+01  0.1491E+02  0.1491E+02
      4.681  0.1662E+01  0.1661E+01  0.1523E+02  0.1523E+02
      4.874  0.1391E+01  0.1391E+01  0.1550E+02  0.1550E+02
      5.068  0.1986E+01  0.1985E+01  0.1589E+02  0.1589E+02
      5.261  0.2361E+01  0.2360E+01  0.1635E+02  0.1635E+02
      5.454  0.2012E+01  0.2010E+01  0.1674E+02  0.1674E+02
      5.648  0.2260E+01  0.2258E+01  0.1718E+02  0.1718E+02
      5.841  0.2954E+01  0.2954E+01  0.1775E+02  0.1775E+02
      6.035  0.2783E+01  0.2779E+01  0.1829E+02  0.1829E+02
      6.228  0.2878E+01  0.2874E+01  0.1885E+02  0.1885E+02
      6.421  0.2272E+01  0.2275E+01  0.1929E+02  0.1929E+02
      6.615  0.2070E+01  0.2067E+01  0.1969E+02  0.1969E+02
      6.808  0.2057E+01  0.2053E+01  0.2009E+02  0.2009E+02
      7.002  0.2271E+01  0.2269E+01  0.2053E+02  0.2053E+02
      7.195  0.1844E+01  0.1849E+01  0.2089E+02  0.2089E+02
      7.388  0.1518E+01  0.1518E+01  0.2119E+02  0.2118E+02
      7.582  0.1182E+01  0.1187E+01  0.2142E+02  0.2141E+02
      7.775  0.1009E+01  0.1008E+01  0.2161E+02  0.2161E+02
      7.969  0.9892E+00  0.9890E+00  0.2181E+02  0.2180E+02
      8.162  0.1206E+01  0.1203E+01  0.2204E+02  0.2204E+02
      8.355  0.1521E+01  0.1524E+01  0.2233E+02  0.2233E+02
      8.549  0.1996E+01  0.1993E+01  0.2272E+02  0.2272E+02
      8.742  0.2833E+01  0.2824E+01  0.2327E+02  0.2327E+02
      8.936  0.3197E+01  0.3182E+01  0.2389E+02  0.2388E+02
      9.129  0.3746E+01  0.3737E+01  0.2462E+02  0.2461E+02
      9.322  0.3236E+01  0.3265E+01  0.2525E+02  0.2524E+02
      9.516  0.3372E+01  0.3420E+01  0.2590E+02  0.2591E+02
      9.709  0.3471E+01  0.3461E+01  0.2657E+02  0.2658E+02
      9.903  0.3170E+01  0.3099E+01  0.2719E+02  0.2718E+02
     10.096  0.2164E+01  0.2170E+01  0.2761E+02  0.2760E+02
     10.289  0.1254E+01  0.1259E+01  0.2786E+02  0.2785E+02
     10.483  0.5824E+00  0.5148E+00  0.2797E+02  0.2795E+02
     10.676  0.1007E+00  0.1855E+00  0.2799E+02  0.2799E+02
     10.870  0.3715E-01  0.6297E-01  0.2800E+02  0.2800E+02
     11.063  0.7183E-03  0.1939E-02  0.2800E+02  0.2800E+02
     11.256  0.0000E+00  0.0000E+00  0.2800E+02  0.2800E+02
     11.450  0.0000E+00  0.0000E+00  0.2800E+02  0.2800E+02
     11.643  0.0000E+00  0.0000E+00  0.2800E+02  0.2800E+02
     11.837  0.0000E+00  0.0000E+00  0.2800E+02  0.2800E+02
     12.030  0.0000E+00  0.0000E+00  0.2800E+02  0.2800E+02
     12.223  0.0000E+00  0.0000E+00  0.2800E+02  0.2800E+02
     12.417  0.0000E+00  0.0000E+00  0.2800E+02  0.2800E+02
     12.610  0.0000E+00  0.0000E+00  0.2800E+02  0.2800E+02
     12.804  0.0000E+00  0.0000E+00  0.2800E+02  0.2800E+02
     12.997  0.0000E+00  0.0000E+00  0.2800E+02  0.2800E+02
     13.190  0.0000E+00  0.0000E+00  0.2800E+02  0.2800E+02
     13.384  0.0000E+00  0.0000E+00  0.2800E+02  0.2800E+02
     13.38387283    -44.63717095  301      6.76580186      1.00000000
    -44.637  0.0000E+00  0.0000E+00  0.0000E+00  0.0000E+00  0.0000E+00  0.0000E+00  0.0000E+00  0.0000E+00  0.0000E+00  0.0000E+00  0.0000E+00  0.0000E+00  0.0000E+00  0.0000E+00  0.0000E+00  0.0000E+00  0.0000E+00  0.0000E+00
    -44.444  0.0000E+00  0.0000E+00  0.0000E+00  0.0000E+00  0.0000E+00  0.0000E+00  0.0000E+00  0.0000E+00  0.0000E+00  0.0000E+00  0.0000E+00  0.0000E+00  0.0000E+00  0.0000E+00  0.0000E+00  0.0000E+00  0.0000E+00  0.0000E+00
    -44.250  0.0000E+00  0.0000E+00  0.0000E+00  0.0000E+00  0.0000E+00  0.0000E+00  0.0000E+00  0.0000E+00  0.0000E+00  0.0000E+00  0.0000E+00  0.0000E+00  0.0000E+00  0.0000E+00  0.0000E+00  0.0000E+00  0.0000E+00  0.0000E+00
    -44.057  0.0000E+00  0.0000E+00  0.0000E+00  0.0000E+00  0.0000E+00  0.0000E+00  0.0000E+00  0.0000E+00  0.0000E+00  0.0000E+00  0.0000E+00  0.0000E+00  0.0000E+00  0.0000E+00  0.0000E+00  0.0000E+00  0.0000E+00  0.0000E+00
    -43.864  0.0000E+00  0.0000E+00  0.0000E+00  0.0000E+00  0.0000E+00  0.0000E+00  0.0000E+00  0.0000E+00  0.0000E+00  0.0000E+00  0.0000E+00  0.0000E+00  0.0000E+00  0.0000E+00  0.0000E+00  0.0000E+00  0.0000E+00  0.0000E+00
    -43.670  0.0000E+00  0.0000E+00  0.0000E+00  0.0000E+00  0.0000E+00  0.0000E+00  0.0000E+00  0.0000E+00  0.0000E+00  0.0000E+00  0.0000E+00  0.0000E+00  0.0000E+00  0.0000E+00  0.0000E+00  0.0000E+00  0.0000E+00  0.0000E+00
    -43.477  0.0000E+00  0.0000E+00  0.0000E+00  0.0000E+00  0.0000E+00  0.0000E+00  0.0000E+00  0.0000E+00  0.0000E+00  0.0000E+00  0.0000E+00  0.0000E+00  0.0000E+00  0.0000E+00  0.0000E+00  0.0000E+00  0.0000E+00  0.0000E+00
    -43.283  0.0000E+00  0.0000E+00  0.0000E+00  0.0000E+00  0.0000E+00  0.0000E+00  0.0000E+00  0.0000E+00  0.0000E+00  0.0000E+00  0.0000E+00  0.0000E+00  0.0000E+00  0.0000E+00  0.0000E+00  0.0000E+00  0.0000E+00  0.0000E+00
    -43.090  0.0000E+00  0.0000E+00  0.0000E+00  0.0000E+00  0.0000E+00  0.0000E+00  0.0000E+00  0.0000E+00  0.0000E+00  0.0000E+00  0.0000E+00  0.0000E+00  0.0000E+00  0.0000E+00  0.0000E+00  0.0000E+00  0.0000E+00  0.0000E+00
    -42.897  0.0000E+00  0.0000E+00  0.0000E+00  0.0000E+00  0.0000E+00  0.0000E+00  0.0000E+00  0.0000E+00  0.0000E+00  0.0000E+00  0.0000E+00  0.0000E+00  0.0000E+00  0.0000E+00  0.0000E+00  0.0000E+00  0.0000E+00  0.0000E+00
    -42.703  0.0000E+00  0.0000E+00  0.0000E+00  0.0000E+00  0.0000E+00  0.0000E+00  0.0000E+00  0.0000E+00  0.0000E+00  0.0000E+00  0.0000E+00  0.0000E+00  0.0000E+00  0.0000E+00  0.0000E+00  0.0000E+00  0.0000E+00  0.0000E+00
    -42.510  0.1850E-03  0.1716E-03  0.1069E-11  0.9923E-12  0.1173E-14  0.1549E-14  0.1069E-11  0.9923E-12  0.1605E-13  0.1057E-13  0.1358E-13  0.1092E-13  0.1881E-10  0.1811E-10  0.1358E-13  0.1092E-13  0.7135E-12  0.6577E-12
    -42.316  0.8653E-02  0.8025E-02  0.5001E-10  0.4642E-10  0.5487E-13  0.7248E-13  0.5001E-10  0.4642E-10  0.7507E-12  0.4944E-12  0.6350E-12  0.5108E-12  0.8797E-09  0.8470E-09  0.6350E-12  0.5108E-12  0.3337E-10  0.3076E-10
    -42.123  0.3826E+00  0.3568E+00  0.2211E-08  0.2064E-08  0.2423E-11  0.3219E-11  0.2211E-08  0.2064E-08  0.3321E-10  0.2198E-10  0.2808E-10  0.2270E-10  0.3889E-07  0.3765E-07  0.2808E-10  0.2270E-10  0.1475E-08  0.1368E-08
    -41.930  0.3715E+01  0.3677E+01  0.2146E-07  0.2126E-07  0.2321E-10  0.3275E-10  0.2146E-07  0.2126E-07  0.3238E-09  0.2269E-09  0.2728E-09  0.2332E-09  0.3767E-06  0.3871E-06  0.2728E-09  0.2332E-09  0.1433E-07  0.1410E-07
    -41.736  0.1016E+01  0.1078E+01  0.5869E-08  0.6233E-08  0.6252E-11  0.9462E-11  0.5869E-08  0.6233E-08  0.8903E-10  0.6663E-10  0.7467E-10  0.6810E-10  0.1028E-06  0.1132E-06  0.7467E-10  0.6810E-10  0.3922E-08  0.4137E-08
    -41.543  0.0000E+00  0.0000E+00  0.0000E+00  0.0000E+00  0.0000E+00  0.0000E+00  0.0000E+00  0.0000E+00  0.0000E+00  0.0000E+00  0.0000E+00  0.0000E+00  0.0000E+00  0.0000E+00  0.0000E+00  0.0000E+00  0.0000E+00  0.0000E+00
    -41.349  0.0000E+00  0.0000E+00  0.0000E+00  0.0000E+00  0.0000E+00  0.0000E+00  0.0000E+00  0.0000E+00  0.0000E+00  0.0000E+00  0.0000E+00  0.0000E+00  0.0000E+00  0.0000E+00  0.0000E+00  0.0000E+00  0.0000E+00  0.0000E+00
    -41.156  0.0000E+00  0.0000E+00  0.0000E+00  0.0000E+00  0.0000E+00  0.0000E+00  0.0000E+00  0.0000E+00  0.0000E+00  0.0000E+00  0.0000E+00  0.0000E+00  0.0000E+00  0.0000E+00  0.0000E+00  0.0000E+00  0.0000E+00  0.0000E+00
    -40.963  0.0000E+00  0.0000E+00  0.0000E+00  0.0000E+00  0.0000E+00  0.0000E+00  0.0000E+00  0.0000E+00  0.0000E+00  0.0000E+00  0.0000E+00  0.0000E+00  0.0000E+00  0.0000E+00  0.0000E+00  0.0000E+00  0.0000E+00  0.0000E+00
    -40.769  0.0000E+00  0.0000E+00  0.0000E+00  0.0000E+00  0.0000E+00  0.0000E+00  0.0000E+00  0.0000E+00  0.0000E+00  0.0000E+00  0.0000E+00  0.0000E+00  0.0000E+00  0.0000E+00  0.0000E+00  0.0000E+00  0.0000E+00  0.0000E+00
    -40.576  0.0000E+00  0.0000E+00  0.0000E+00  0.0000E+00  0.0000E+00  0.0000E+00  0.0000E+00  0.0000E+00  0.0000E+00  0.0000E+00  0.0000E+00  0.0000E+00  0.0000E+00  0.0000E+00  0.0000E+00  0.0000E+00  0.0000E+00  0.0000E+00
    -40.382  0.0000E+00  0.0000E+00  0.0000E+00  0.0000E+00  0.0000E+00  0.0000E+00  0.0000E+00  0.0000E+00  0.0000E+00  0.0000E+00  0.0000E+00  0.0000E+00  0.0000E+00  0.0000E+00  0.0000E+00  0.0000E+00  0.0000E+00  0.0000E+00
    -40.189  0.0000E+00  0.0000E+00  0.0000E+00  0.0000E+00  0.0000E+00  0.0000E+00  0.0000E+00  0.0000E+00  0.0000E+00  0.0000E+00  0.0000E+00  0.0000E+00  0.0000E+00  0.0000E+00  0.0000E+00  0.0000E+00  0.0000E+00  0.0000E+00
    -39.995  0.0000E+00  0.0000E+00  0.0000E+00  0.0000E+00  0.0000E+00  0.0000E+00  0.0000E+00  0.0000E+00  0.0000E+00  0.0000E+00  0.0000E+00  0.0000E+00  0.0000E+00  0.0000E+00  0.0000E+00  0.0000E+00  0.0000E+00  0.0000E+00
    -39.802  0.0000E+00  0.0000E+00  0.0000E+00  0.0000E+00  0.0000E+00  0.0000E+00  0.0000E+00  0.0000E+00  0.0000E+00  0.0000E+00  0.0000E+00  0.0000E+00  0.0000E+00  0.0000E+00  0.0000E+00  0.0000E+00  0.0000E+00  0.0000E+00
    -39.609  0.0000E+00  0.0000E+00  0.0000E+00  0.0000E+00  0.0000E+00  0.0000E+00  0.0000E+00  0.0000E+00  0.0000E+00  0.0000E+00  0.0000E+00  0.0000E+00  0.0000E+00  0.0000E+00  0.0000E+00  0.0000E+00  0.0000E+00  0.0000E+00
    -39.415  0.0000E+00  0.0000E+00  0.0000E+00  0.0000E+00  0.0000E+00  0.0000E+00  0.0000E+00  0.0000E+00  0.0000E+00  0.0000E+00  0.0000E+00  0.0000E+00  0.0000E+00  0.0000E+00  0.0000E+00  0.0000E+00  0.0000E+00  0.0000E+00
    -39.222  0.0000E+00  0.0000E+00  0.0000E+00  0.0000E+00  0.0000E+00  0.0000E+00  0.0000E+00  0.0000E+00  0.0000E+00  0.0000E+00  0.0000E+00  0.0000E+00  0.0000E+00  0.0000E+00  0.0000E+00  0.0000E+00  0.0000E+00  0.0000E+00
    -39.028  0.0000E+00  0.0000E+00  0.0000E+00  0.0000E+00  0.0000E+00  0.0000E+00  0.0000E+00  0.0000E+00  0.0000E+00  0.0000E+00  0.0000E+00  0.0000E+00  0.0000E+00  0.0000E+00  0.0000E+00  0.0000E+00  0.0000E+00  0.0000E+00
    -38.835  0.0000E+00  0.0000E+00  0.0000E+00  0.0000E+00  0.0000E+00  0.0000E+00  0.0000E+00  0.0000E+00  0.0000E+00  0.0000E+00  0.0000E+00  0.0000E+00  0.0000E+00  0.0000E+00  0.0000E+00  0.0000E+00  0.0000E+00  0.0000E+00
    -38.642  0.0000E+00  0.0000E+00  0.0000E+00  0.0000E+00  0.0000E+00  0.0000E+00  0.0000E+00  0.0000E+00  0.0000E+00  0.0000E+00  0.0000E+00  0.0000E+00  0.0000E+00  0.0000E+00  0.0000E+00  0.0000E+00  0.0000E+00  0.0000E+00
    -38.448  0.0000E+00  0.0000E+00  0.0000E+00  0.0000E+00  0.0000E+00  0.0000E+00  0.0000E+00  0.0000E+00  0.0000E+00  0.0000E+00  0.0000E+00  0.0000E+00  0.0000E+00  0.0000E+00  0.0000E+00  0.0000E+00  0.0000E+00  0.0000E+00
    -38.255  0.0000E+00  0.0000E+00  0.0000E+00  0.0000E+00  0.0000E+00  0.0000E+00  0.0000E+00  0.0000E+00  0.0000E+00  0.0000E+00  0.0000E+00  0.0000E+00  0.0000E+00  0.0000E+00  0.0000E+00  0.0000E+00  0.0000E+00  0.0000E+00
    -38.061  0.0000E+00  0.0000E+00  0.0000E+00  0.0000E+00  0.0000E+00  0.0000E+00  0.0000E+00  0.0000E+00  0.0000E+00  0.0000E+00  0.0000E+00  0.0000E+00  0.0000E+00  0.0000E+00  0.0000E+00  0.0000E+00  0.0000E+00  0.0000E+00
    -37.868  0.0000E+00  0.0000E+00  0.0000E+00  0.0000E+00  0.0000E+00  0.0000E+00  0.0000E+00  0.0000E+00  0.0000E+00  0.0000E+00  0.0000E+00  0.0000E+00  0.0000E+00  0.0000E+00  0.0000E+00  0.0000E+00  0.0000E+00  0.0000E+00
    -37.675  0.0000E+00  0.0000E+00  0.0000E+00  0.0000E+00  0.0000E+00  0.0000E+00  0.0000E+00  0.0000E+00  0.0000E+00  0.0000E+00  0.0000E+00  0.0000E+00  0.0000E+00  0.0000E+00  0.0000E+00  0.0000E+00  0.0000E+00  0.0000E+00
    -37.481  0.0000E+00  0.0000E+00  0.0000E+00  0.0000E+00  0.0000E+00  0.0000E+00  0.0000E+00  0.0000E+00  0.0000E+00  0.0000E+00  0.0000E+00  0.0000E+00  0.0000E+00  0.0000E+00  0.0000E+00  0.0000E+00  0.0000E+00  0.0000E+00
    -37.288  0.0000E+00  0.0000E+00  0.0000E+00  0.0000E+00  0.0000E+00  0.0000E+00  0.0000E+00  0.0000E+00  0.0000E+00  0.0000E+00  0.0000E+00  0.0000E+00  0.0000E+00  0.0000E+00  0.0000E+00  0.0000E+00  0.0000E+00  0.0000E+00
    -37.094  0.0000E+00  0.0000E+00  0.0000E+00  0.0000E+00  0.0000E+00  0.0000E+00  0.0000E+00  0.0000E+00  0.0000E+00  0.0000E+00  0.0000E+00  0.0000E+00  0.0000E+00  0.0000E+00  0.0000E+00  0.0000E+00  0.0000E+00  0.0000E+00
    -36.901  0.0000E+00  0.0000E+00  0.0000E+00  0.0000E+00  0.0000E+00  0.0000E+00  0.0000E+00  0.0000E+00  0.0000E+00  0.0000E+00  0.0000E+00  0.0000E+00  0.0000E+00  0.0000E+00  0.0000E+00  0.0000E+00  0.0000E+00  0.0000E+00
    -36.708  0.0000E+00  0.0000E+00  0.0000E+00  0.0000E+00  0.0000E+00  0.0000E+00  0.0000E+00  0.0000E+00  0.0000E+00  0.0000E+00  0.0000E+00  0.0000E+00  0.0000E+00  0.0000E+00  0.0000E+00  0.0000E+00  0.0000E+00  0.0000E+00
    -36.514  0.0000E+00  0.0000E+00  0.0000E+00  0.0000E+00  0.0000E+00  0.0000E+00  0.0000E+00  0.0000E+00  0.0000E+00  0.0000E+00  0.0000E+00  0.0000E+00  0.0000E+00  0.0000E+00  0.0000E+00  0.0000E+00  0.0000E+00  0.0000E+00
    -36.321  0.0000E+00  0.0000E+00  0.0000E+00  0.0000E+00  0.0000E+00  0.0000E+00  0.0000E+00  0.0000E+00  0.0000E+00  0.0000E+00  0.0000E+00  0.0000E+00  0.0000E+00  0.0000E+00  0.0000E+00  0.0000E+00  0.0000E+00  0.0000E+00
    -36.127  0.0000E+00  0.0000E+00  0.0000E+00  0.0000E+00  0.0000E+00  0.0000E+00  0.0000E+00  0.0000E+00  0.0000E+00  0.0000E+00  0.0000E+00  0.0000E+00  0.0000E+00  0.0000E+00  0.0000E+00  0.0000E+00  0.0000E+00  0.0000E+00
    -35.934  0.0000E+00  0.0000E+00  0.0000E+00  0.0000E+00  0.0000E+00  0.0000E+00  0.0000E+00  0.0000E+00  0.0000E+00  0.0000E+00  0.0000E+00  0.0000E+00  0.0000E+00  0.0000E+00  0.0000E+00  0.0000E+00  0.0000E+00  0.0000E+00
    -35.741  0.0000E+00  0.0000E+00  0.0000E+00  0.0000E+00  0.0000E+00  0.0000E+00  0.0000E+00  0.0000E+00  0.0000E+00  0.0000E+00  0.0000E+00  0.0000E+00  0.0000E+00  0.0000E+00  0.0000E+00  0.0000E+00  0.0000E+00  0.0000E+00
    -35.547  0.0000E+00  0.0000E+00  0.0000E+00  0.0000E+00  0.0000E+00  0.0000E+00  0.0000E+00  0.0000E+00  0.0000E+00  0.0000E+00  0.0000E+00  0.0000E+00  0.0000E+00  0.0000E+00  0.0000E+00  0.0000E+00  0.0000E+00  0.0000E+00
    -35.354  0.0000E+00  0.0000E+00  0.0000E+00  0.0000E+00  0.0000E+00  0.0000E+00  0.0000E+00  0.0000E+00  0.0000E+00  0.0000E+00  0.0000E+00  0.0000E+00  0.0000E+00  0.0000E+00  0.0000E+00  0.0000E+00  0.0000E+00  0.0000E+00
    -35.160  0.0000E+00  0.0000E+00  0.0000E+00  0.0000E+00  0.0000E+00  0.0000E+00  0.0000E+00  0.0000E+00  0.0000E+00  0.0000E+00  0.0000E+00  0.0000E+00  0.0000E+00  0.0000E+00  0.0000E+00  0.0000E+00  0.0000E+00  0.0000E+00
    -34.967  0.0000E+00  0.0000E+00  0.0000E+00  0.0000E+00  0.0000E+00  0.0000E+00  0.0000E+00  0.0000E+00  0.0000E+00  0.0000E+00  0.0000E+00  0.0000E+00  0.0000E+00  0.0000E+00  0.0000E+00  0.0000E+00  0.0000E+00  0.0000E+00