   8   8   1   0
  0.1345059E+02  0.3661052E-09  0.3661052E-09  0.8028224E-09  0.5000000E-15
  1.000000000000000E-004
  CAR 
 unknown system                          
     16.72740773    -41.28409195  301      9.13527614      1.00000000
    -41.284  0.0000E+00  0.0000E+00  0.0000E+00  0.0000E+00
    -41.091  0.0000E+00  0.0000E+00  0.0000E+00  0.0000E+00
    -40.897  0.0000E+00  0.0000E+00  0.0000E+00  0.0000E+00
    -40.704  0.0000E+00  0.0000E+00  0.0000E+00  0.0000E+00
    -40.511  0.0000E+00  0.0000E+00  0.0000E+00  0.0000E+00
    -40.317  0.0000E+00  0.0000E+00  0.0000E+00  0.0000E+00
    -40.124  0.0000E+00  0.0000E+00  0.0000E+00  0.0000E+00
    -39.930  0.0000E+00  0.0000E+00  0.0000E+00  0.0000E+00
    -39.737  0.0000E+00  0.0000E+00  0.0000E+00  0.0000E+00
    -39.544  0.0000E+00  0.0000E+00  0.0000E+00  0.0000E+00
    -39.350  0.0000E+00  0.0000E+00  0.0000E+00  0.0000E+00
    -39.157  0.3345E-03  0.3215E-03  0.6468E-04  0.6218E-04
    -38.964  0.1564E-01  0.1503E-01  0.3088E-02  0.2969E-02
    -38.770  0.6960E+00  0.6710E+00  0.1377E+00  0.1327E+00
    -38.577  0.7345E+01  0.7299E+01  0.1558E+01  0.1544E+01
    -38.384  0.2225E+01  0.2294E+01  0.1988E+01  0.1988E+01
    -38.190  0.0000E+00  0.0000E+00  0.2000E+01  0.2000E+01
    -37.997  0.0000E+00  0.0000E+00  0.2000E+01  0.2000E+01
    -37.803  0.0000E+00  0.0000E+00  0.2000E+01  0.2000E+01
    -37.610  0.0000E+00  0.0000E+00  0.2000E+01  0.2000E+01
    -37.417  0.0000E+00  0.0000E+00  0.2000E+01  0.2000E+01
    -37.223  0.0000E+00  0.0000E+00  0.2000E+01  0.2000E+01
    -37.030  0.0000E+00  0.0000E+00  0.2000E+01  0.2000E+01
    -36.837  0.0000E+00  0.0000E+00  0.2000E+01  0.2000E+01
    -36.643  0.0000E+00  0.0000E+00  0.2000E+01  0.2000E+01
    -36.450  0.0000E+00  0.0000E+00  0.2000E+01  0.2000E+01
    -36.256  0.0000E+00  0.0000E+00  0.2000E+01  0.2000E+01
    -36.063  0.0000E+00  0.0000E+00  0.2000E+01  0.2000E+01
    -35.870  0.0000E+00  0.0000E+00  0.2000E+01  0.2000E+01
    -35.676  0.0000E+00  0.0000E+00  0.2000E+01  0.2000E+01
    -35.483  0.0000E+00  0.0000E+00  0.2000E+01  0.2000E+01
    -35.290  0.0000E+00  0.0000E+00  0.2000E+01  0.2000E+01
    -35.096  0.0000E+00  0.0000E+00  0.2000E+01  0.2000E+01
    -34.903  0.0000E+00  0.0000E+00  0.2000E+01  0.2000E+01
    -34.709  0.0000E+00  0.0000E+00  0.2000E+01  0.2000E+01
    -34.516  0.0000E+00  0.0000E+00  0.2000E+01  0.2000E+01
    -34.323  0.0000E+00  0.0000E+00  0.2000E+01  0.2000E+01
    -34.129  0.0000E+00  0.0000E+00  0.2000E+01  0.2000E+01
    -33.936  0.0000E+00  0.0000E+00  0.2000E+01  0.2000E+01
    -33.743  0.0000E+00  0.0000E+00  0.2000E+01  0.2000E+01
    -33.549  0.0000E+00  0.0000E+00  0.2000E+01  0.2000E+01
    -33.356  0.0000E+00  0.0000E+00  0.2000E+01  0.2000E+01
    -33.162  0.0000E+00  0.0000E+00  0.2000E+01  0.2000E+01
    -32.969  0.0000E+00  0.0000E+00  0.2000E+01  0.2000E+01
    -32.776  0.0000E+00  0.0000E+00  0.2000E+01  0.2000E+01
    -32.582  0.0000E+00  0.0000E+00  0.2000E+01  0.2000E+01
    -32.389  0.0000E+00  0.0000E+00  0.2000E+01  0.2000E+01
    -32.196  0.0000E+00  0.0000E+00  0.2000E+01  0.2000E+01
    -32.002  0.0000E+00  0.0000E+00  0.2000E+01  0.2000E+01
    -31.809  0.0000E+00  0.0000E+00  0.2000E+01  0.2000E+01
    -31.616  0.0000E+00  0.0000E+00  0.2000E+01  0.2000E+01
    -31.422  0.0000E+00  0.0000E+00  0.2000E+01  0.2000E+01
    -31.229  0.0000E+00  0.0000E+00  0.2000E+01  0.2000E+01
    -31.035  0.0000E+00  0.0000E+00  0.2000E+01  0.2000E+01
    -30.842  0.0000E+00  0.0000E+00  0.2000E+01  0.2000E+01
    -30.649  0.0000E+00  0.0000E+00  0.2000E+01  0.2000E+01
    -30.455  0.0000E+00  0.0000E+00  0.2000E+01  0.2000E+01
    -30.262  0.0000E+00  0.0000E+00  0.2000E+01  0.2000E+01
    -30.069  0.0000E+00  0.0000E+00  0.2000E+01  0.2000E+01
    -29.875  0.0000E+00  0.0000E+00  0.2000E+01  0.2000E+01
    -29.682  0.0000E+00  0.0000E+00  0.2000E+01  0.2000E+01
    -29.488  0.0000E+00  0.0000E+00  0.2000E+01  0.2000E+01
    -29.295  0.0000E+00  0.0000E+00  0.2000E+01  0.2000E+01
    -29.102  0.0000E+00  0.0000E+00  0.2000E+01  0.2000E+01
    -28.908  0.0000E+00  0.0000E+00  0.2000E+01  0.2000E+01
    -28.715  0.0000E+00  0.0000E+00  0.2000E+01  0.2000E+01
    -28.522  0.0000E+00  0.0000E+00  0.2000E+01  0.2000E+01
    -28.328  0.0000E+00  0.0000E+00  0.2000E+01  0.2000E+01
    -28.135  0.0000E+00  0.0000E+00  0.2000E+01  0.2000E+01
    -27.941  0.0000E+00  0.0000E+00  0.2000E+01  0.2000E+01
    -27.748  0.0000E+00  0.0000E+00  0.2000E+01  0.2000E+01
    -27.555  0.0000E+00  0.0000E+00  0.2000E+01  0.2000E+01
    -27.361  0.0000E+00  0.0000E+00  0.2000E+01  0.2000E+01
    -27.168  0.0000E+00  0.0000E+00  0.2000E+01  0.2000E+01
    -26.975  0.0000E+00  0.0000E+00  0.2000E+01  0.2000E+01
    -26.781  0.0000E+00  0.0000E+00  0.2000E+01  0.2000E+01
    -26.588  0.0000E+00  0.0000E+00  0.2000E+01  0.2000E+01
    -26.394  0.0000E+00  0.0000E+00  0.2000E+01  0.2000E+01
    -26.201  0.0000E+00  0.0000E+00  0.2000E+01  0.2000E+01
    -26.008  0.0000E+00  0.0000E+00  0.2000E+01  0.2000E+01
    -25.814  0.0000E+00  0.0000E+00  0.2000E+01  0.2000E+01
    -25.621  0.0000E+00  0.0000E+00  0.2000E+01  0.2000E+01
    -25.428  0.0000E+00  0.0000E+00  0.2000E+01  0.2000E+01
    -25.234  0.0000E+00  0.0000E+00  0.2000E+01  0.2000E+01
    -25.041  0.0000E+00  0.0000E+00  0.2000E+01  0.2000E+01
    -24.848  0.0000E+00  0.0000E+00  0.2000E+01  0.2000E+01
    -24.654  0.0000E+00  0.0000E+00  0.2000E+01  0.2000E+01
    -24.461  0.0000E+00  0.0000E+00  0.2000E+01  0.2000E+01
    -24.267  0.0000E+00  0.0000E+00  0.2000E+01  0.2000E+01
    -24.074  0.0000E+00  0.0000E+00  0.2000E+01  0.2000E+01
    -23.881  0.0000E+00  0.0000E+00  0.2000E+01  0.2000E+01
    -23.687  0.0000E+00  0.0000E+00  0.2000E+01  0.2000E+01
    -23.494  0.0000E+00  0.0000E+00  0.2000E+01  0.2000E+01
    -23.301  0.0000E+00  0.0000E+00  0.2000E+01  0.2000E+01
    -23.107  0.0000E+00  0.0000E+00  0.2000E+01  0.2000E+01
    -22.914  0.0000E+00  0.0000E+00  0.2000E+01  0.2000E+01
    -22.720  0.0000E+00  0.0000E+00  0.2000E+01  0.2000E+01
    -22.527  0.0000E+00  0.0000E+00  0.2000E+01  0.2000E+01
    -22.334  0.0000E+00  0.0000E+00  0.2000E+01  0.2000E+01
    -22.140  0.0000E+00  0.0000E+00  0.2000E+01  0.2000E+01
    -21.947  0.0000E+00  0.0000E+00  0.2000E+01  0.2000E+01
    -21.754  0.0000E+00  0.0000E+00  0.2000E+01  0.2000E+01
    -21.560  0.0000E+00  0.0000E+00  0.2000E+01  0.2000E+01
    -21.367  0.0000E+00  0.0000E+00  0.2000E+01  0.2000E+01
    -21.173  0.0000E+00  0.0000E+00  0.2000E+01  0.2000E+01
    -20.980  0.0000E+00  0.0000E+00  0.2000E+01  0.2000E+01
    -20.787  0.0000E+00  0.0000E+00  0.2000E+01  0.2000E+01
    -20.593  0.0000E+00  0.0000E+00  0.2000E+01  0.2000E+01
    -20.400  0.0000E+00  0.0000E+00  0.2000E+01  0.2000E+01
    -20.207  0.0000E+00  0.0000E+00  0.2000E+01  0.2000E+01
    -20.013  0.0000E+00  0.0000E+00  0.2000E+01  0.2000E+01
    -19.820  0.0000E+00  0.0000E+00  0.2000E+01  0.2000E+01
    -19.626  0.0000E+00  0.0000E+00  0.2000E+01  0.2000E+01
    -19.433  0.0000E+00  0.0000E+00  0.2000E+01  0.2000E+01
    -19.240  0.0000E+00  0.0000E+00  0.2000E+01  0.2000E+01
    -19.046  0.0000E+00  0.0000E+00  0.2000E+01  0.2000E+01
    -18.853  0.0000E+00  0.0000E+00  0.2000E+01  0.2000E+01
    -18.660  0.0000E+00  0.0000E+00  0.2000E+01  0.2000E+01
    -18.466  0.0000E+00  0.0000E+00  0.2000E+01  0.2000E+01
    -18.273  0.0000E+00  0.0000E+00  0.2000E+01  0.2000E+01
    -18.079  0.2655E-03  0.2464E-03  0.2000E+01  0.2000E+01
    -17.886  0.1476E-01  0.1414E-01  0.2003E+01  0.2003E+01
    -17.693  0.6807E+00  0.6524E+00  0.2135E+01  0.2129E+01
    -17.499  0.1397E+02  0.1368E+02  0.4835E+01  0.4775E+01
    -17.306  0.1548E+02  0.1576E+02  0.7829E+01  0.7822E+01
    -17.113  0.7753E+00  0.8127E+00  0.7997E+01  0.7996E+01
    -16.919  0.0000E+00  0.0000E+00  0.8000E+01  0.8000E+01
    -16.726  0.0000E+00  0.0000E+00  0.8000E+01  0.8000E+01
    -16.533  0.0000E+00  0.0000E+00  0.8000E+01  0.8000E+01
    -16.339  0.0000E+00  0.0000E+00  0.8000E+01  0.8000E+01
    -16.146  0.0000E+00  0.0000E+00  0.8000E+01  0.8000E+01
    -15.952  0.0000E+00  0.0000E+00  0.8000E+01  0.8000E+01
    -15.759  0.0000E+00  0.0000E+00  0.8000E+01  0.8000E+01
    -15.566  0.0000E+00  0.0000E+00  0.8000E+01  0.8000E+01
    -15.372  0.0000E+00  0.0000E+00  0.8000E+01  0.8000E+01
    -15.179  0.0000E+00  0.0000E+00  0.8000E+01  0.8000E+01
    -14.986  0.0000E+00  0.0000E+00  0.8000E+01  0.8000E+01
    -14.792  0.0000E+00  0.0000E+00  0.8000E+01  0.8000E+01
    -14.599  0.0000E+00  0.0000E+00  0.8000E+01  0.8000E+01
    -14.405  0.0000E+00  0.0000E+00  0.8000E+01  0.8000E+01
    -14.212  0.0000E+00  0.0000E+00  0.8000E+01  0.8000E+01
    -14.019  0.0000E+00  0.0000E+00  0.8000E+01  0.8000E+01
    -13.825  0.0000E+00  0.0000E+00  0.8000E+01  0.8000E+01
    -13.632  0.0000E+00  0.0000E+00  0.8000E+01  0.8000E+01
    -13.439  0.0000E+00  0.0000E+00  0.8000E+01  0.8000E+01
    -13.245  0.0000E+00  0.0000E+00  0.8000E+01  0.8000E+01
    -13.052  0.0000E+00  0.0000E+00  0.8000E+01  0.8000E+01
    -12.858  0.0000E+00  0.0000E+00  0.8000E+01  0.8000E+01
    -12.665  0.0000E+00  0.0000E+00  0.8000E+01  0.8000E+01
    -12.472  0.0000E+00  0.0000E+00  0.8000E+01  0.8000E+01
    -12.278  0.0000E+00  0.0000E+00  0.8000E+01  0.8000E+01
    -12.085  0.0000E+00  0.0000E+00  0.8000E+01  0.8000E+01
    -11.892  0.0000E+00  0.0000E+00  0.8000E+01  0.8000E+01
    -11.698  0.0000E+00  0.0000E+00  0.8000E+01  0.8000E+01
    -11.505  0.0000E+00  0.0000E+00  0.8000E+01  0.8000E+01
    -11.311  0.0000E+00  0.0000E+00  0.8000E+01  0.8000E+01
    -11.118  0.0000E+00  0.0000E+00  0.8000E+01  0.8000E+01
    -10.925  0.0000E+00  0.0000E+00  0.8000E+01  0.8000E+01
    -10.731  0.0000E+00  0.0000E+00  0.8000E+01  0.8000E+01
    -10.538  0.0000E+00  0.0000E+00  0.8000E+01  0.8000E+01
    -10.345  0.0000E+00  0.0000E+00  0.8000E+01  0.8000E+01
    -10.151  0.0000E+00  0.0000E+00  0.8000E+01  0.8000E+01
     -9.958  0.0000E+00  0.0000E+00  0.8000E+01  0.8000E+01
     -9.765  0.0000E+00  0.0000E+00  0.8000E+01  0.8000E+01
     -9.571  0.0000E+00  0.0000E+00  0.8000E+01  0.8000E+01
     -9.378  0.0000E+00  0.0000E+00  0.8000E+01  0.8000E+01
     -9.184  0.0000E+00  0.0000E+00  0.8000E+01  0.8000E+01
     -8.991  0.0000E+00  0.0000E+00  0.8000E+01  0.8000E+01
     -8.798  0.0000E+00  0.0000E+00  0.8000E+01  0.8000E+01
     -8.604  0.0000E+00  0.0000E+00  0.8000E+01  0.8000E+01
     -8.411  0.0000E+00  0.0000E+00  0.8000E+01  0.8000E+01
     -8.218  0.0000E+00  0.0000E+00  0.8000E+01  0.8000E+01
     -8.024  0.0000E+00  0.0000E+00  0.8000E+01  0.8000E+01
     -7.831  0.0000E+00  0.0000E+00  0.8000E+01  0.8000E+01
     -7.637  0.0000E+00  0.0000E+00  0.8000E+01  0.8000E+01
     -7.444  0.0000E+00  0.0000E+00  0.8000E+01  0.8000E+01
     -7.251  0.0000E+00  0.0000E+00  0.8000E+01  0.8000E+01
     -7.057  0.0000E+00  0.0000E+00  0.8000E+01  0.8000E+01
     -6.864  0.0000E+00  0.0000E+00  0.8000E+01  0.8000E+01
     -6.671  0.0000E+00  0.0000E+00  0.8000E+01  0.8000E+01
     -6.477  0.0000E+00  0.0000E+00  0.8000E+01  0.8000E+01
     -6.284  0.0000E+00  0.0000E+00  0.8000E+01  0.8000E+01
     -6.090  0.0000E+00  0.0000E+00  0.8000E+01  0.8000E+01
     -5.897  0.0000E+00  0.0000E+00  0.8000E+01  0.8000E+01
     -5.704  0.0000E+00  0.0000E+00  0.8000E+01  0.8000E+01
     -5.510  0.0000E+00  0.0000E+00  0.8000E+01  0.8000E+01
     -5.317  0.0000E+00  0.0000E+00  0.8000E+01  0.8000E+01
     -5.124  0.0000E+00  0.0000E+00  0.8000E+01  0.8000E+01
     -4.930  0.0000E+00  0.0000E+00  0.8000E+01  0.8000E+01
     -4.737  0.0000E+00  0.0000E+00  0.8000E+01  0.8000E+01
     -4.543  0.0000E+00  0.0000E+00  0.8000E+01  0.8000E+01
     -4.350  0.0000E+00  0.0000E+00  0.8000E+01  0.8000E+01
     -4.157  0.0000E+00  0.0000E+00  0.8000E+01  0.8000E+01
     -3.963  0.0000E+00  0.0000E+00  0.8000E+01  0.8000E+01
     -3.770  0.0000E+00  0.0000E+00  0.8000E+01  0.8000E+01
     -3.577  0.0000E+00  0.0000E+00  0.8000E+01  0.8000E+01
     -3.383  0.0000E+00  0.0000E+00  0.8000E+01  0.8000E+01
     -3.190  0.0000E+00  0.0000E+00  0.8000E+01  0.8000E+01
     -2.997  0.0000E+00  0.0000E+00  0.8000E+01  0.8000E+01
     -2.803  0.0000E+00  0.0000E+00  0.8000E+01  0.8000E+01
     -2.610  0.0000E+00  0.0000E+00  0.8000E+01  0.8000E+01
     -2.416  0.0000E+00  0.0000E+00  0.8000E+01  0.8000E+01
     -2.223  0.6902E-07  0.7005E-07  0.8000E+01  0.8000E+01
     -2.030  0.1253E-04  0.1272E-04  0.8000E+01  0.8000E+01
     -1.836  0.5940E-03  0.6027E-03  0.8000E+01  0.8000E+01
     -1.643  0.1892E-01  0.1912E-01  0.8004E+01  0.8004E+01
     -1.450  0.1063E+00  0.1067E+00  0.8024E+01  0.8024E+01
     -1.256  0.1944E+00  0.1947E+00  0.8062E+01  0.8062E+01
     -1.063  0.2358E+00  0.2360E+00  0.8108E+01  0.8108E+01
     -0.869  0.3046E+00  0.3049E+00  0.8167E+01  0.8167E+01
     -0.676  0.3268E+00  0.3266E+00  0.8230E+01  0.8230E+01
     -0.483  0.3764E+00  0.3767E+00  0.8303E+01  0.8303E+01
     -0.289  0.4527E+00  0.4530E+00  0.8391E+01  0.8391E+01
     -0.096  0.4343E+00  0.4340E+00  0.8475E+01  0.8476E+01
      0.097  0.4946E+00  0.4949E+00  0.8571E+01  0.8572E+01
      0.291  0.6292E+00  0.6291E+00  0.8693E+01  0.8694E+01
      0.484  0.5847E+00  0.5847E+00  0.8807E+01  0.8807E+01
      0.678  0.5921E+00  0.5924E+00  0.8922E+01  0.8922E+01
      0.871  0.6314E+00  0.6312E+00  0.9044E+01  0.9045E+01
      1.064  0.6965E+00  0.6971E+00  0.9180E+01  0.9180E+01
      1.258  0.6411E+00  0.6407E+00  0.9304E+01  0.9304E+01
      1.451  0.6314E+00  0.6317E+00  0.9427E+01  0.9427E+01
      1.644  0.8170E+00  0.8181E+00  0.9585E+01  0.9586E+01
      1.838  0.7718E+00  0.7714E+00  0.9735E+01  0.9736E+01
      2.031  0.8024E+00  0.8024E+00  0.9891E+01  0.9892E+01
      2.225  0.8540E+00  0.8538E+00  0.1006E+02  0.1006E+02
      2.418  0.1011E+01  0.1012E+01  0.1025E+02  0.1025E+02
      2.611  0.1024E+01  0.1025E+01  0.1045E+02  0.1045E+02
      2.805  0.1038E+01  0.1038E+01  0.1065E+02  0.1065E+02
      2.998  0.9667E+00  0.9658E+00  0.1084E+02  0.1084E+02
      3.191  0.6900E+00  0.6898E+00  0.1097E+02  0.1098E+02
      3.385  0.8019E+00  0.8025E+00  0.1113E+02  0.1113E+02
      3.578  0.7715E+00  0.7707E+00  0.1128E+02  0.1128E+02
      3.772  0.7035E+00  0.7035E+00  0.1142E+02  0.1142E+02
      3.965  0.7714E+00  0.7727E+00  0.1157E+02  0.1157E+02
      4.158  0.1095E+01  0.1096E+01  0.1178E+02  0.1178E+02
      4.352  0.1055E+01  0.1055E+01  0.1198E+02  0.1198E+02
      4.545  0.9970E+00  0.9969E+00  0.1218E+02  0.1218E+02
      4.738  0.1254E+01  0.1256E+01  0.1242E+02  0.1242E+02
      4.932  0.1288E+01  0.1287E+01  0.1267E+02  0.1267E+02
      5.125  0.1069E+01  0.1069E+01  0.1288E+02  0.1288E+02
      5.318  0.1125E+01  0.1124E+01  0.1310E+02  0.1310E+02
      5.512  0.1200E+01  0.1202E+01  0.1333E+02  0.1333E+02
      5.705  0.1272E+01  0.1271E+01  0.1358E+02  0.1358E+02
      5.899  0.1084E+01  0.1083E+01  0.1379E+02  0.1379E+02
      6.092  0.1242E+01  0.1241E+01  0.1403E+02  0.1403E+02
      6.285  0.1121E+01  0.1121E+01  0.1424E+02  0.1425E+02
      6.479  0.1320E+01  0.1321E+01  0.1450E+02  0.1450E+02
      6.672  0.1527E+01  0.1527E+01  0.1480E+02  0.1480E+02
      6.865  0.1498E+01  0.1499E+01  0.1509E+02  0.1509E+02
      7.059  0.1639E+01  0.1638E+01  0.1541E+02  0.1541E+02
      7.252  0.1555E+01  0.1556E+01  0.1571E+02  0.1571E+02
      7.446  0.2257E+01  0.2258E+01  0.1615E+02  0.1615E+02
      7.639  0.2185E+01  0.2183E+01  0.1657E+02  0.1657E+02
      7.832  0.1943E+01  0.1941E+01  0.1695E+02  0.1695E+02
      8.026  0.2565E+01  0.2564E+01  0.1745E+02  0.1745E+02
      8.219  0.2604E+01  0.2603E+01  0.1795E+02  0.1795E+02
      8.412  0.2758E+01  0.2756E+01  0.1848E+02  0.1848E+02
      8.606  0.2443E+01  0.2442E+01  0.1896E+02  0.1896E+02
      8.799  0.2028E+01  0.2027E+01  0.1935E+02  0.1935E+02
      8.993  0.2018E+01  0.2017E+01  0.1974E+02  0.1974E+02
      9.186  0.1821E+01  0.1818E+01  0.2010E+02  0.2010E+02
      9.379  0.2154E+01  0.2153E+01  0.2052E+02  0.2051E+02
      9.573  0.1491E+01  0.1493E+01  0.2081E+02  0.2080E+02
      9.766  0.1357E+01  0.1355E+01  0.2107E+02  0.2107E+02
      9.959  0.1181E+01  0.1183E+01  0.2130E+02  0.2130E+02
     10.153  0.8825E+00  0.8837E+00  0.2147E+02  0.2147E+02
     10.346  0.8676E+00  0.8671E+00  0.2164E+02  0.2164E+02
     10.540  0.7468E+00  0.7466E+00  0.2178E+02  0.2178E+02
     10.733  0.8949E+00  0.8940E+00  0.2196E+02  0.2196E+02
     10.926  0.9691E+00  0.9722E+00  0.2215E+02  0.2215E+02
     11.120  0.8473E+00  0.8480E+00  0.2231E+02  0.2231E+02
     11.313  0.1600E+01  0.1599E+01  0.2262E+02  0.2262E+02
     11.506  0.1900E+01  0.1899E+01  0.2299E+02  0.2299E+02
     11.700  0.2116E+01  0.2113E+01  0.2340E+02  0.2340E+02
     11.893  0.2648E+01  0.2642E+01  0.2391E+02  0.2391E+02
     12.086  0.3194E+01  0.3196E+01  0.2453E+02  0.2453E+02
     12.280  0.2452E+01  0.2452E+01  0.2501E+02  0.2501E+02
     12.473  0.2367E+01  0.2365E+01  0.2547E+02  0.2547E+02
     12.667  0.2459E+01  0.2465E+01  0.2595E+02  0.2595E+02
     12.860  0.2624E+01  0.2597E+01  0.2646E+02  0.2645E+02
     13.053  0.2924E+01  0.2901E+01  0.2702E+02  0.2701E+02
     13.247  0.2297E+01  0.2395E+01  0.2747E+02  0.2748E+02
     13.440  0.1225E+01  0.1165E+01  0.2771E+02  0.2771E+02
     13.633  0.8070E+00  0.7613E+00  0.2787E+02  0.2785E+02
     13.827  0.4441E+00  0.4895E+00  0.2795E+02  0.2795E+02
     14.020  0.1655E+00  0.2054E+00  0.2798E+02  0.2799E+02
     14.214  0.7291E-01  0.4568E-01  0.2800E+02  0.2800E+02
     14.407  0.4115E-02  0.2017E-02  0.2800E+02  0.2800E+02
     14.600  0.0000E+00  0.0000E+00  0.2800E+02  0.2800E+02
     14.794  0.0000E+00  0.0000E+00  0.2800E+02  0.2800E+02
     14.987  0.0000E+00  0.0000E+00  0.2800E+02  0.2800E+02
     15.180  0.0000E+00  0.0000E+00  0.2800E+02  0.2800E+02
     15.374  0.0000E+00  0.0000E+00  0.2800E+02  0.2800E+02
     15.567  0.0000E+00  0.0000E+00  0.2800E+02  0.2800E+02
     15.761  0.0000E+00  0.0000E+00  0.2800E+02  0.2800E+02
     15.954  0.0000E+00  0.0000E+00  0.2800E+02  0.2800E+02
     16.147  0.0000E+00  0.0000E+00  0.2800E+02  0.2800E+02
     16.341  0.0000E+00  0.0000E+00  0.2800E+02  0.2800E+02
     16.534  0.0000E+00  0.0000E+00  0.2800E+02  0.2800E+02
     16.727  0.0000E+00  0.0000E+00  0.2800E+02  0.2800E+02
     16.72740773    -41.28409195  301      9.13527614      1.00000000
    -41.284  0.0000E+00  0.0000E+00  0.0000E+00  0.0000E+00  0.0000E+00  0.0000E+00  0.0000E+00  0.0000E+00  0.0000E+00  0.0000E+00  0.0000E+00  0.0000E+00  0.0000E+00  0.0000E+00  0.0000E+00  0.0000E+00  0.0000E+00  0.0000E+00
    -41.091  0.0000E+00  0.0000E+00  0.0000E+00  0.0000E+00  0.0000E+00  0.0000E+00  0.0000E+00  0.0000E+00  0.0000E+00  0.0000E+00  0.0000E+00  0.0000E+00  0.0000E+00  0.0000E+00  0.0000E+00  0.0000E+00  0.0000E+00  0.0000E+00
    -40.897  0.0000E+00  0.0000E+00  0.0000E+00  0.0000E+00  0.0000E+00  0.0000E+00  0.0000E+00  0.0000E+00  0.0000E+00  0.0000E+00  0.0000E+00  0.0000E+00  0.0000E+00  0.0000E+00  0.0000E+00  0.0000E+00  0.0000E+00  0.0000E+00
    -40.704  0.0000E+00  0.0000E+00  0.0000E+00  0.0000E+00  0.0000E+00  0.0000E+00  0.0000E+00  0.0000E+00  0.0000E+00  0.0000E+00  0.0000E+00  0.0000E+00  0.0000E+00  0.0000E+00  0.0000E+00  0.0000E+00  0.0000E+00  0.0000E+00
    -40.511  0.0000E+00  0.0000E+00  0.0000E+00  0.0000E+00  0.0000E+00  0.0000E+00  0.0000E+00  0.0000E+00  0.0000E+00  0.0000E+00  0.0000E+00  0.0000E+00  0.0000E+00  0.0000E+00  0.0000E+00  0.0000E+00  0.0000E+00  0.0000E+00
    -40.317  0.0000E+00  0.0000E+00  0.0000E+00  0.0000E+00  0.0000E+00  0.0000E+00  0.0000E+00  0.0000E+00  0.0000E+00  0.0000E+00  0.0000E+00  0.0000E+00  0.0000E+00  0.0000E+00  0.0000E+00  0.0000E+00  0.0000E+00  0.0000E+00
    -40.124  0.0000E+00  0.0000E+00  0.0000E+00  0.0000E+00  0.0000E+00  0.0000E+00  0.0000E+00  0.0000E+00  0.0000E+00  0.0000E+00  0.0000E+00  0.0000E+00  0.0000E+00  0.0000E+00  0.0000E+00  0.0000E+00  0.0000E+00  0.0000E+00
    -39.930  0.0000E+00  0.0000E+00  0.0000E+00  0.0000E+00  0.0000E+00  0.0000E+00  0.0000E+00  0.0000E+00  0.0000E+00  0.0000E+00  0.0000E+00  0.0000E+00  0.0000E+00  0.0000E+00  0.0000E+00  0.0000E+00  0.0000E+00  0.0000E+00
    -39.737  0.0000E+00  0.0000E+00  0.0000E+00  0.0000E+00  0.0000E+00  0.0000E+00  0.0000E+00  0.0000E+00  0.0000E+00  0.0000E+00  0.0000E+00  0.0000E+00  0.0000E+00  0.0000E+00  0.0000E+00  0.0000E+00  0.0000E+00  0.0000E+00
    -39.544  0.0000E+00  0.0000E+00  0.0000E+00  0.0000E+00  0.0000E+00  0.0000E+00  0.0000E+00  0.0000E+00  0.0000E+00  0.0000E+00  0.0000E+00  0.0000E+00  0.0000E+00  0.0000E+00  0.0000E+00  0.0000E+00  0.0000E+00  0.0000E+00
    -39.350  0.0000E+00  0.0000E+00  0.0000E+00  0.0000E+00  0.0000E+00  0.0000E+00  0.0000E+00  0.0000E+00  0.0000E+00  0.0000E+00  0.0000E+00  0.0000E+00  0.0000E+00  0.0000E+00  0.0000E+00  0.0000E+00  0.0000E+00  0.0000E+00
    -39.157  0.1665E-03  0.1601E-03  0.1447E-10  0.1391E-10  0.3362E-13  0.3301E-13  0.1447E-10  0.1391E-10  0.3861E-13  0.6063E-13  0.2042E-13  0.2569E-13  0.3329E-10  0.3262E-10  0.2042E-13  0.2569E-13  0.9826E-11  0.9494E-11
    -38.964  0.7783E-02  0.7483E-02  0.6762E-09  0.6503E-09  0.1572E-11  0.1543E-11  0.6762E-09  0.6503E-09  0.1805E-11  0.2835E-11  0.9544E-12  0.1201E-11  0.1556E-08  0.1525E-08  0.9544E-12  0.1201E-11  0.4593E-09  0.4438E-09
    -38.770  0.3465E+00  0.3340E+00  0.3010E-07  0.2902E-07  0.6964E-10  0.6859E-10  0.3010E-07  0.2902E-07  0.8041E-10  0.1268E-09  0.4250E-10  0.5364E-10  0.6912E-07  0.6793E-07  0.4250E-10  0.5364E-10  0.2046E-07  0.1982E-07
    -38.577  0.3656E+01  0.3634E+01  0.3171E-06  0.3152E-06  0.6977E-09  0.7102E-09  0.3171E-06  0.3152E-06  0.8557E-09  0.1416E-08  0.4499E-09  0.5860E-09  0.7117E-06  0.7208E-06  0.4499E-09  0.5860E-09  0.2165E-06  0.2163E-06
    -38.384  0.1108E+01  0.1142E+01  0.9577E-07  0.9873E-07  0.1985E-09  0.2100E-09  0.9577E-07  0.9873E-07  0.2615E-09  0.4579E-09  0.1369E-09  0.1850E-09  0.2094E-06  0.2198E-06  0.1369E-09  0.1850E-09  0.6563E-07  0.6799E-07
    -38.190  0.0000E+00  0.0000E+00  0.0000E+00  0.0000E+00  0.0000E+00  0.0000E+00  0.0000E+00  0.0000E+00  0.0000E+00  0.0000E+00  0.0000E+00  0.0000E+00  0.0000E+00  0.0000E+00  0.0000E+00  0.0000E+00  0.0000E+00  0.0000E+00
    -37.997  0.0000E+00  0.0000E+00  0.0000E+00  0.0000E+00  0.0000E+00  0.0000E+00  0.0000E+00  0.0000E+00  0.0000E+00  0.0000E+00  0.0000E+00  0.0000E+00  0.0000E+00  0.0000E+00  0.0000E+00  0.0000E+00  0.0000E+00  0.0000E+00
    -37.803  0.0000E+00  0.0000E+00  0.0000E+00  0.0000E+00  0.0000E+00  0.0000E+00  0.0000E+00  0.0000E+00  0.0000E+00  0.0000E+00  0.0000E+00  0.0000E+00  0.0000E+00  0.0000E+00  0.0000E+00  0.0000E+00  0.0000E+00  0.0000E+00
    -37.610  0.0000E+00  0.0000E+00  0.0000E+00  0.0000E+00  0.0000E+00  0.0000E+00  0.0000E+00  0.0000E+00  0.0000E+00  0.0000E+00  0.0000E+00  0.0000E+00  0.0000E+00  0.0000E+00  0.0000E+00  0.0000E+00  0.0000E+00  0.0000E+00
    -37.417  0.0000E+00  0.0000E+00  0.0000E+00  0.0000E+00  0.0000E+00  0.0000E+00  0.0000E+00  0.0000E+00  0.0000E+00  0.0000E+00  0.0000E+00  0.0000E+00  0.0000E+00  0.0000E+00  0.0000E+00  0.0000E+00  0.0000E+00  0.0000E+00
    -37.223  0.0000E+00  0.0000E+00  0.0000E+00  0.0000E+00  0.0000E+00  0.0000E+00  0.0000E+00  0.0000E+00  0.0000E+00  0.0000E+00  0.0000E+00  0.0000E+00  0.0000E+00  0.0000E+00  0.0000E+00  0.0000E+00  0.0000E+00  0.0000E+00
    -37.030  0.0000E+00  0.0000E+00  0.0000E+00  0.0000E+00  0.0000E+00  0.0000E+00  0.0000E+00  0.0000E+00  0.0000E+00  0.0000E+00  0.0000E+00  0.0000E+00  0.0000E+00  0.0000E+00  0.0000E+00  0.0000E+00  0.0000E+00  0.0000E+00
    -36.837  0.0000E+00  0.0000E+00  0.0000E+00  0.0000E+00  0.0000E+00  0.0000E+00  0.0000E+00  0.0000E+00  0.0000E+00  0.0000E+00  0.0000E+00  0.0000E+00  0.0000E+00  0.0000E+00  0.0000E+00  0.0000E+00  0.0000E+00  0.0000E+00
    -36.643  0.0000E+00  0.0000E+00  0.0000E+00  0.0000E+00  0.0000E+00  0.0000E+00  0.0000E+00  0.0000E+00  0.0000E+00  0.0000E+00  0.0000E+00  0.0000E+00  0.0000E+00  0.0000E+00  0.0000E+00  0.0000E+00  0.0000E+00  0.0000E+00
    -36.450  0.0000E+00  0.0000E+00  0.0000E+00  0.0000E+00  0.0000E+00  0.0000E+00  0.0000E+00  0.0000E+00  0.0000E+00  0.0000E+00  0.0000E+00  0.0000E+00  0.0000E+00  0.0000E+00  0.0000E+00  0.0000E+00  0.0000E+00  0.0000E+00
    -36.256  0.0000E+00  0.0000E+00  0.0000E+00  0.0000E+00  0.0000E+00  0.0000E+00  0.0000E+00  0.0000E+00  0.0000E+00  0.0000E+00  0.0000E+00  0.0000E+00  0.0000E+00  0.0000E+00  0.0000E+00  0.0000E+00  0.0000E+00  0.0000E+00
    -36.063  0.0000E+00  0.0000E+00  0.0000E+00  0.0000E+00  0.0000E+00  0.0000E+00  0.0000E+00  0.0000E+00  0.0000E+00  0.0000E+00  0.0000E+00  0.0000E+00  0.0000E+00  0.0000E+00  0.0000E+00  0.0000E+00  0.0000E+00  0.0000E+00
    -35.870  0.0000E+00  0.0000E+00  0.0000E+00  0.0000E+00  0.0000E+00  0.0000E+00  0.0000E+00  0.0000E+00  0.0000E+00  0.0000E+00  0.0000E+00  0.0000E+00  0.0000E+00  0.0000E+00  0.0000E+00  0.0000E+00  0.0000E+00  0.0000E+00
    -35.676  0.0000E+00  0.0000E+00  0.0000E+00  0.0000E+00  0.0000E+00  0.0000E+00  0.0000E+00  0.0000E+00  0.0000E+00  0.0000E+00  0.0000E+00  0.0000E+00  0.0000E+00  0.0000E+00  0.0000E+00  0.0000E+00  0.0000E+00  0.0000E+00
    -35.483  0.0000E+00  0.0000E+00  0.0000E+00  0.0000E+00  0.0000E+00  0.0000E+00  0.0000E+00  0.0000E+00  0.0000E+00  0.0000E+00  0.0000E+00  0.0000E+00  0.0000E+00  0.0000E+00  0.0000E+00  0.0000E+00  0.0000E+00  0.0000E+00
    -35.290  0.0000E+00  0.0000E+00  0.0000E+00  0.0000E+00  0.0000E+00  0.0000E+00  0.0000E+00  0.0000E+00  0.0000E+00  0.0000E+00  0.0000E+00  0.0000E+00  0.0000E+00  0.0000E+00  0.0000E+00  0.0000E+00  0.0000E+00  0.0000E+00
    -35.096  0.0000E+00  0.0000E+00  0.0000E+00  0.0000E+00  0.0000E+00  0.0000E+00  0.0000E+00  0.0000E+00  0.0000E+00  0.0000E+00  0.0000E+00  0.0000E+00  0.0000E+00  0.0000E+00  0.0000E+00  0.0000E+00  0.0000E+00  0.0000E+00
    -34.903  0.0000E+00  0.0000E+00  0.0000E+00  0.0000E+00  0.0000E+00  0.0000E+00  0.0000E+00  0.0000E+00  0.0000E+00  0.0000E+00  0.0000E+00  0.0000E+00  0.0000E+00  0.0000E+00  0.0000E+00  0.0000E+00  0.0000E+00  0.0000E+00
    -34.709  0.0000E+00  0.0000E+00  0.0000E+00  0.0000E+00  0.0000E+00  0.0000E+00  0.0000E+00  0.0000E+00  0.0000E+00  0.0000E+00  0.0000E+00  0.0000E+00  0.0000E+00  0.0000E+00  0.0000E+00  0.0000E+00  0.0000E+00  0.0000E+00
    -34.516  0.0000E+00  0.0000E+00  0.0000E+00  0.0000E+00  0.0000E+00  0.0000E+00  0.0000E+00  0.0000E+00  0.0000E+00  0.0000E+00  0.0000E+00  0.0000E+00  0.0000E+00  0.0000E+00  0.0000E+00  0.0000E+00  0.0000E+00  0.0000E+00
    -34.323  0.0000E+00  0.0000E+00  0.0000E+00  0.0000E+00  0.0000E+00  0.0000E+00  0.0000E+00  0.0000E+00  0.0000E+00  0.0000E+00  0.0000E+00  0.0000E+00  0.0000E+00  0.0000E+00  0.0000E+00  0.0000E+00  0.0000E+00  0.0000E+00
    -34.129  0.0000E+00  0.0000E+00  0.0000E+00  0.0000E+00  0.0000E+00  0.0000E+00  0.0000E+00  0.0000E+00  0.0000E+00  0.0000E+00  0.0000E+00  0.0000E+00  0.0000E+00  0.0000E+00  0.0000E+00  0.0000E+00  0.0000E+00  0.0000E+00
    -33.936  0.0000E+00  0.0000E+00  0.0000E+00  0.0000E+00  0.0000E+00  0.0000E+00  0.0000E+00  0.0000E+00  0.0000E+00  0.0000E+00  0.0000E+00  0.0000E+00  0.0000E+00  0.0000E+00  0.0000E+00  0.0000E+00  0.0000E+00  0.0000E+00
    -33.743  0.0000E+00  0.0000E+00  0.0000E+00  0.0000E+00  0.0000E+00  0.0000E+00  0.0000E+00  0.0000E+00  0.0000E+00  0.0000E+00  0.0000E+00  0.0000E+00  0.0000E+00  0.0000E+00  0.0000E+00  0.0000E+00  0.0000E+00  0.0000E+00
    -33.549  0.0000E+00  0.0000E+00  0.0000E+00  0.0000E+00  0.0000E+00  0.0000E+00  0.0000E+00  0.0000E+00  0.0000E+00  0.0000E+00  0.0000E+00  0.0000E+00  0.0000E+00  0.0000E+00  0.0000E+00  0.0000E+00  0.0000E+00  0.0000E+00
    -33.356  0.0000E+00  0.0000E+00  0.0000E+00  0.0000E+00  0.0000E+00  0.0000E+00  0.0000E+00  0.0000E+00  0.0000E+00  0.0000E+00  0.0000E+00  0.0000E+00  0.0000E+00  0.0000E+00  0.0000E+00  0.0000E+00  0.0000E+00  0.0000E+00
    -33.162  0.0000E+00  0.0000E+00  0.0000E+00  0.0000E+00  0.0000E+00  0.0000E+00  0.0000E+00  0.0000E+00  0.0000E+00  0.0000E+00  0.0000E+00  0.0000E+00  0.0000E+00  0.0000E+00  0.0000E+00  0.0000E+00  0.0000E+00  0.0000E+00
    -32.969  0.0000E+00  0.0000E+00  0.0000E+00  0.0000E+00  0.0000E+00  0.0000E+00  0.0000E+00  0.0000E+00  0.0000E+00  0.0000E+00  0.0000E+00  0.0000E+00  0.0000E+00  0.0000E+00  0.0000E+00  0.0000E+00  0.0000E+00  0.0000E+00
    -32.776  0.0000E+00  0.0000E+00  0.0000E+00  0.0000E+00  0.0000E+00  0.0000E+00  0.0000E+00  0.0000E+00  0.0000E+00  0.0000E+00  0.0000E+00  0.0000E+00  0.0000E+00  0.0000E+00  0.0000E+00  0.0000E+00  0.0000E+00  0.0000E+00
    -32.582  0.0000E+00  0.0000E+00  0.0000E+00  0.0000E+00  0.0000E+00  0.0000E+00  0.0000E+00  0.0000E+00  0.0000E+00  0.0000E+00  0.0000E+00  0.0000E+00  0.0000E+00  0.0000E+00  0.0000E+00  0.0000E+00  0.0000E+00  0.0000E+00
    -32.389  0.0000E+00  0.0000E+00  0.0000E+00  0.0000E+00  0.0000E+00  0.0000E+00  0.0000E+00  0.0000E+00  0.0000E+00  0.0000E+00  0.0000E+00  0.0000E+00  0.0000E+00  0.0000E+00  0.0000E+00  0.0000E+00  0.0000E+00  0.0000E+00
    -32.196  0.0000E+00  0.0000E+00  0.0000E+00  0.0000E+00  0.0000E+00  0.0000E+00  0.0000E+00  0.0000E+00  0.0000E+00  0.0000E+00  0.0000E+00  0.0000E+00  0.0000E+00  0.0000E+00  0.0000E+00  0.0000E+00  0.0000E+00  0.0000E+00
    -32.002  0.0000E+00  0.0000E+00  0.0000E+00  0.0000E+00  0.0000E+00  0.0000E+00  0.0000E+00  0.0000E+00  0.0000E+00  0.0000E+00  0.0000E+00  0.0000E+00  0.0000E+00  0.0000E+00  0.0000E+00  0.0000E+00  0.0000E+00  0.0000E+00
    -31.809  0.0000E+00  0.0000E+00  0.0000E+00  0.0000E+00  0.0000E+00  0.0000E+00  0.0000E+00  0.0000E+00  0.0000E+00  0.0000E+00  0.0000E+00  0.0000E+00  0.0000E+00  0.0000E+00  0.0000E+00  0.0000E+00  0.0000E+00  0.0000E+00
    -31.616  0.0000E+00  0.0000E+00  0.0000E+00  0.0000E+00  0.0000E+00  0.0000E+00  0.0000E+00  0.0000E+00  0.0000E+00  0.0000E+00  0.0000E+00  0.0000E+00  0.0000E+00  0.0000E+00  0.0000E+00  0.0000E+00  0.0000E+00  0.0000E+00