   8   8   1   0
  0.1629043E+02  0.3902441E-09  0.3902441E-09  0.8557558E-09  0.5000000E-15
  1.000000000000000E-004
  CAR 
 unknown system                          
     14.18563749    -43.86660414  301      7.30187038      1.00000000
    -43.867  0.0000E+00  0.0000E+00  0.0000E+00  0.0000E+00
    -43.673  0.0000E+00  0.0000E+00  0.0000E+00  0.0000E+00
    -43.480  0.0000E+00  0.0000E+00  0.0000E+00  0.0000E+00
    -43.286  0.0000E+00  0.0000E+00  0.0000E+00  0.0000E+00
    -43.093  0.0000E+00  0.0000E+00  0.0000E+00  0.0000E+00
    -42.899  0.0000E+00  0.0000E+00  0.0000E+00  0.0000E+00
    -42.706  0.0000E+00  0.0000E+00  0.0000E+00  0.0000E+00
    -42.512  0.0000E+00  0.0000E+00  0.0000E+00  0.0000E+00
    -42.319  0.0000E+00  0.0000E+00  0.0000E+00  0.0000E+00
    -42.125  0.0000E+00  0.0000E+00  0.0000E+00  0.0000E+00
    -41.932  0.0000E+00  0.0000E+00  0.0000E+00  0.0000E+00
    -41.738  0.3639E-03  0.3398E-03  0.7041E-04  0.6576E-04
    -41.545  0.1705E-01  0.1593E-01  0.3371E-02  0.3148E-02
    -41.351  0.7565E+00  0.7102E+00  0.1498E+00  0.1406E+00
    -41.157  0.7443E+01  0.7374E+01  0.1590E+01  0.1567E+01
    -40.964  0.2063E+01  0.2176E+01  0.1989E+01  0.1989E+01
    -40.770  0.0000E+00  0.0000E+00  0.2000E+01  0.2000E+01
    -40.577  0.0000E+00  0.0000E+00  0.2000E+01  0.2000E+01
    -40.383  0.0000E+00  0.0000E+00  0.2000E+01  0.2000E+01
    -40.190  0.0000E+00  0.0000E+00  0.2000E+01  0.2000E+01
    -39.996  0.0000E+00  0.0000E+00  0.2000E+01  0.2000E+01
    -39.803  0.0000E+00  0.0000E+00  0.2000E+01  0.2000E+01
    -39.609  0.0000E+00  0.0000E+00  0.2000E+01  0.2000E+01
    -39.416  0.0000E+00  0.0000E+00  0.2000E+01  0.2000E+01
    -39.222  0.0000E+00  0.0000E+00  0.2000E+01  0.2000E+01
    -39.029  0.0000E+00  0.0000E+00  0.2000E+01  0.2000E+01
    -38.835  0.0000E+00  0.0000E+00  0.2000E+01  0.2000E+01
    -38.642  0.0000E+00  0.0000E+00  0.2000E+01  0.2000E+01
    -38.448  0.0000E+00  0.0000E+00  0.2000E+01  0.2000E+01
    -38.255  0.0000E+00  0.0000E+00  0.2000E+01  0.2000E+01
    -38.061  0.0000E+00  0.0000E+00  0.2000E+01  0.2000E+01
    -37.868  0.0000E+00  0.0000E+00  0.2000E+01  0.2000E+01
    -37.674  0.0000E+00  0.0000E+00  0.2000E+01  0.2000E+01
    -37.481  0.0000E+00  0.0000E+00  0.2000E+01  0.2000E+01
    -37.287  0.0000E+00  0.0000E+00  0.2000E+01  0.2000E+01
    -37.094  0.0000E+00  0.0000E+00  0.2000E+01  0.2000E+01
    -36.900  0.0000E+00  0.0000E+00  0.2000E+01  0.2000E+01
    -36.707  0.0000E+00  0.0000E+00  0.2000E+01  0.2000E+01
    -36.513  0.0000E+00  0.0000E+00  0.2000E+01  0.2000E+01
    -36.320  0.0000E+00  0.0000E+00  0.2000E+01  0.2000E+01
    -36.126  0.0000E+00  0.0000E+00  0.2000E+01  0.2000E+01
    -35.933  0.0000E+00  0.0000E+00  0.2000E+01  0.2000E+01
    -35.739  0.0000E+00  0.0000E+00  0.2000E+01  0.2000E+01
    -35.546  0.0000E+00  0.0000E+00  0.2000E+01  0.2000E+01
    -35.352  0.0000E+00  0.0000E+00  0.2000E+01  0.2000E+01
    -35.159  0.0000E+00  0.0000E+00  0.2000E+01  0.2000E+01
    -34.965  0.0000E+00  0.0000E+00  0.2000E+01  0.2000E+01
    -34.772  0.0000E+00  0.0000E+00  0.2000E+01  0.2000E+01
    -34.578  0.0000E+00  0.0000E+00  0.2000E+01  0.2000E+01
    -34.385  0.0000E+00  0.0000E+00  0.2000E+01  0.2000E+01
    -34.191  0.0000E+00  0.0000E+00  0.2000E+01  0.2000E+01
    -33.998  0.0000E+00  0.0000E+00  0.2000E+01  0.2000E+01
    -33.804  0.0000E+00  0.0000E+00  0.2000E+01  0.2000E+01
    -33.611  0.0000E+00  0.0000E+00  0.2000E+01  0.2000E+01
    -33.417  0.0000E+00  0.0000E+00  0.2000E+01  0.2000E+01
    -33.224  0.0000E+00  0.0000E+00  0.2000E+01  0.2000E+01
    -33.030  0.0000E+00  0.0000E+00  0.2000E+01  0.2000E+01
    -32.837  0.0000E+00  0.0000E+00  0.2000E+01  0.2000E+01
    -32.643  0.0000E+00  0.0000E+00  0.2000E+01  0.2000E+01
    -32.450  0.0000E+00  0.0000E+00  0.2000E+01  0.2000E+01
    -32.256  0.0000E+00  0.0000E+00  0.2000E+01  0.2000E+01
    -32.063  0.0000E+00  0.0000E+00  0.2000E+01  0.2000E+01
    -31.869  0.0000E+00  0.0000E+00  0.2000E+01  0.2000E+01
    -31.676  0.0000E+00  0.0000E+00  0.2000E+01  0.2000E+01
    -31.482  0.0000E+00  0.0000E+00  0.2000E+01  0.2000E+01
    -31.289  0.0000E+00  0.0000E+00  0.2000E+01  0.2000E+01
    -31.095  0.0000E+00  0.0000E+00  0.2000E+01  0.2000E+01
    -30.902  0.0000E+00  0.0000E+00  0.2000E+01  0.2000E+01
    -30.708  0.0000E+00  0.0000E+00  0.2000E+01  0.2000E+01
    -30.515  0.0000E+00  0.0000E+00  0.2000E+01  0.2000E+01
    -30.321  0.0000E+00  0.0000E+00  0.2000E+01  0.2000E+01
    -30.128  0.0000E+00  0.0000E+00  0.2000E+01  0.2000E+01
    -29.934  0.0000E+00  0.0000E+00  0.2000E+01  0.2000E+01
    -29.741  0.0000E+00  0.0000E+00  0.2000E+01  0.2000E+01
    -29.547  0.0000E+00  0.0000E+00  0.2000E+01  0.2000E+01
    -29.354  0.0000E+00  0.0000E+00  0.2000E+01  0.2000E+01
    -29.160  0.0000E+00  0.0000E+00  0.2000E+01  0.2000E+01
    -28.967  0.0000E+00  0.0000E+00  0.2000E+01  0.2000E+01
    -28.773  0.0000E+00  0.0000E+00  0.2000E+01  0.2000E+01
    -28.580  0.0000E+00  0.0000E+00  0.2000E+01  0.2000E+01
    -28.386  0.0000E+00  0.0000E+00  0.2000E+01  0.2000E+01
    -28.192  0.0000E+00  0.0000E+00  0.2000E+01  0.2000E+01
    -27.999  0.0000E+00  0.0000E+00  0.2000E+01  0.2000E+01
    -27.805  0.0000E+00  0.0000E+00  0.2000E+01  0.2000E+01
    -27.612  0.0000E+00  0.0000E+00  0.2000E+01  0.2000E+01
    -27.418  0.0000E+00  0.0000E+00  0.2000E+01  0.2000E+01
    -27.225  0.0000E+00  0.0000E+00  0.2000E+01  0.2000E+01
    -27.031  0.0000E+00  0.0000E+00  0.2000E+01  0.2000E+01
    -26.838  0.0000E+00  0.0000E+00  0.2000E+01  0.2000E+01
    -26.644  0.0000E+00  0.0000E+00  0.2000E+01  0.2000E+01
    -26.451  0.0000E+00  0.0000E+00  0.2000E+01  0.2000E+01
    -26.257  0.0000E+00  0.0000E+00  0.2000E+01  0.2000E+01
    -26.064  0.0000E+00  0.0000E+00  0.2000E+01  0.2000E+01
    -25.870  0.0000E+00  0.0000E+00  0.2000E+01  0.2000E+01
    -25.677  0.0000E+00  0.0000E+00  0.2000E+01  0.2000E+01
    -25.483  0.0000E+00  0.0000E+00  0.2000E+01  0.2000E+01
    -25.290  0.0000E+00  0.0000E+00  0.2000E+01  0.2000E+01
    -25.096  0.0000E+00  0.0000E+00  0.2000E+01  0.2000E+01
    -24.903  0.0000E+00  0.0000E+00  0.2000E+01  0.2000E+01
    -24.709  0.0000E+00  0.0000E+00  0.2000E+01  0.2000E+01
    -24.516  0.0000E+00  0.0000E+00  0.2000E+01  0.2000E+01
    -24.322  0.0000E+00  0.0000E+00  0.2000E+01  0.2000E+01
    -24.129  0.0000E+00  0.0000E+00  0.2000E+01  0.2000E+01
    -23.935  0.0000E+00  0.0000E+00  0.2000E+01  0.2000E+01
    -23.742  0.0000E+00  0.0000E+00  0.2000E+01  0.2000E+01
    -23.548  0.0000E+00  0.0000E+00  0.2000E+01  0.2000E+01
    -23.355  0.0000E+00  0.0000E+00  0.2000E+01  0.2000E+01
    -23.161  0.0000E+00  0.0000E+00  0.2000E+01  0.2000E+01
    -22.968  0.0000E+00  0.0000E+00  0.2000E+01  0.2000E+01
    -22.774  0.0000E+00  0.0000E+00  0.2000E+01  0.2000E+01
    -22.581  0.0000E+00  0.0000E+00  0.2000E+01  0.2000E+01
    -22.387  0.0000E+00  0.0000E+00  0.2000E+01  0.2000E+01
    -22.194  0.0000E+00  0.0000E+00  0.2000E+01  0.2000E+01
    -22.000  0.0000E+00  0.0000E+00  0.2000E+01  0.2000E+01
    -21.807  0.0000E+00  0.0000E+00  0.2000E+01  0.2000E+01
    -21.613  0.0000E+00  0.0000E+00  0.2000E+01  0.2000E+01
    -21.420  0.0000E+00  0.0000E+00  0.2000E+01  0.2000E+01
    -21.226  0.0000E+00  0.0000E+00  0.2000E+01  0.2000E+01
    -21.033  0.0000E+00  0.0000E+00  0.2000E+01  0.2000E+01
    -20.839  0.0000E+00  0.0000E+00  0.2000E+01  0.2000E+01
    -20.646  0.0000E+00  0.0000E+00  0.2000E+01  0.2000E+01
    -20.452  0.1730E-02  0.1616E-02  0.2000E+01  0.2000E+01
    -20.259  0.8097E-01  0.7568E-01  0.2016E+01  0.2015E+01
    -20.065  0.3412E+01  0.3214E+01  0.2676E+01  0.2637E+01
    -19.872  0.2289E+02  0.2282E+02  0.7106E+01  0.7053E+01
    -19.678  0.4508E+01  0.4770E+01  0.7978E+01  0.7976E+01
    -19.485  0.0000E+00  0.0000E+00  0.8000E+01  0.8000E+01
    -19.291  0.0000E+00  0.0000E+00  0.8000E+01  0.8000E+01
    -19.098  0.0000E+00  0.0000E+00  0.8000E+01  0.8000E+01
    -18.904  0.0000E+00  0.0000E+00  0.8000E+01  0.8000E+01
    -18.711  0.0000E+00  0.0000E+00  0.8000E+01  0.8000E+01
    -18.517  0.0000E+00  0.0000E+00  0.8000E+01  0.8000E+01
    -18.324  0.0000E+00  0.0000E+00  0.8000E+01  0.8000E+01
    -18.130  0.0000E+00  0.0000E+00  0.8000E+01  0.8000E+01
    -17.937  0.0000E+00  0.0000E+00  0.8000E+01  0.8000E+01
    -17.743  0.0000E+00  0.0000E+00  0.8000E+01  0.8000E+01
    -17.550  0.0000E+00  0.0000E+00  0.8000E+01  0.8000E+01
    -17.356  0.0000E+00  0.0000E+00  0.8000E+01  0.8000E+01
    -17.163  0.0000E+00  0.0000E+00  0.8000E+01  0.8000E+01
    -16.969  0.0000E+00  0.0000E+00  0.8000E+01  0.8000E+01
    -16.776  0.0000E+00  0.0000E+00  0.8000E+01  0.8000E+01
    -16.582  0.0000E+00  0.0000E+00  0.8000E+01  0.8000E+01
    -16.389  0.0000E+00  0.0000E+00  0.8000E+01  0.8000E+01
    -16.195  0.0000E+00  0.0000E+00  0.8000E+01  0.8000E+01
    -16.002  0.0000E+00  0.0000E+00  0.8000E+01  0.8000E+01
    -15.808  0.0000E+00  0.0000E+00  0.8000E+01  0.8000E+01
    -15.615  0.0000E+00  0.0000E+00  0.8000E+01  0.8000E+01
    -15.421  0.0000E+00  0.0000E+00  0.8000E+01  0.8000E+01
    -15.227  0.0000E+00  0.0000E+00  0.8000E+01  0.8000E+01
    -15.034  0.0000E+00  0.0000E+00  0.8000E+01  0.8000E+01
    -14.840  0.0000E+00  0.0000E+00  0.8000E+01  0.8000E+01
    -14.647  0.0000E+00  0.0000E+00  0.8000E+01  0.8000E+01
    -14.453  0.0000E+00  0.0000E+00  0.8000E+01  0.8000E+01
    -14.260  0.0000E+00  0.0000E+00  0.8000E+01  0.8000E+01
    -14.066  0.0000E+00  0.0000E+00  0.8000E+01  0.8000E+01
    -13.873  0.0000E+00  0.0000E+00  0.8000E+01  0.8000E+01
    -13.679  0.0000E+00  0.0000E+00  0.8000E+01  0.8000E+01
    -13.486  0.0000E+00  0.0000E+00  0.8000E+01  0.8000E+01
    -13.292  0.0000E+00  0.0000E+00  0.8000E+01  0.8000E+01
    -13.099  0.0000E+00  0.0000E+00  0.8000E+01  0.8000E+01
    -12.905  0.0000E+00  0.0000E+00  0.8000E+01  0.8000E+01
    -12.712  0.0000E+00  0.0000E+00  0.8000E+01  0.8000E+01
    -12.518  0.0000E+00  0.0000E+00  0.8000E+01  0.8000E+01
    -12.325  0.0000E+00  0.0000E+00  0.8000E+01  0.8000E+01
    -12.131  0.0000E+00  0.0000E+00  0.8000E+01  0.8000E+01
    -11.938  0.0000E+00  0.0000E+00  0.8000E+01  0.8000E+01
    -11.744  0.0000E+00  0.0000E+00  0.8000E+01  0.8000E+01
    -11.551  0.0000E+00  0.0000E+00  0.8000E+01  0.8000E+01
    -11.357  0.0000E+00  0.0000E+00  0.8000E+01  0.8000E+01
    -11.164  0.0000E+00  0.0000E+00  0.8000E+01  0.8000E+01
    -10.970  0.0000E+00  0.0000E+00  0.8000E+01  0.8000E+01
    -10.777  0.0000E+00  0.0000E+00  0.8000E+01  0.8000E+01
    -10.583  0.0000E+00  0.0000E+00  0.8000E+01  0.8000E+01
    -10.390  0.0000E+00  0.0000E+00  0.8000E+01  0.8000E+01
    -10.196  0.0000E+00  0.0000E+00  0.8000E+01  0.8000E+01
    -10.003  0.0000E+00  0.0000E+00  0.8000E+01  0.8000E+01
     -9.809  0.0000E+00  0.0000E+00  0.8000E+01  0.8000E+01
     -9.616  0.0000E+00  0.0000E+00  0.8000E+01  0.8000E+01
     -9.422  0.0000E+00  0.0000E+00  0.8000E+01  0.8000E+01
     -9.229  0.0000E+00  0.0000E+00  0.8000E+01  0.8000E+01
     -9.035  0.0000E+00  0.0000E+00  0.8000E+01  0.8000E+01
     -8.842  0.0000E+00  0.0000E+00  0.8000E+01  0.8000E+01
     -8.648  0.0000E+00  0.0000E+00  0.8000E+01  0.8000E+01
     -8.455  0.0000E+00  0.0000E+00  0.8000E+01  0.8000E+01
     -8.261  0.0000E+00  0.0000E+00  0.8000E+01  0.8000E+01
     -8.068  0.0000E+00  0.0000E+00  0.8000E+01  0.8000E+01
     -7.874  0.0000E+00  0.0000E+00  0.8000E+01  0.8000E+01
     -7.681  0.0000E+00  0.0000E+00  0.8000E+01  0.8000E+01
     -7.487  0.0000E+00  0.0000E+00  0.8000E+01  0.8000E+01
     -7.294  0.0000E+00  0.0000E+00  0.8000E+01  0.8000E+01
     -7.100  0.0000E+00  0.0000E+00  0.8000E+01  0.8000E+01
     -6.907  0.0000E+00  0.0000E+00  0.8000E+01  0.8000E+01
     -6.713  0.0000E+00  0.0000E+00  0.8000E+01  0.8000E+01
     -6.520  0.0000E+00  0.0000E+00  0.8000E+01  0.8000E+01
     -6.326  0.0000E+00  0.0000E+00  0.8000E+01  0.8000E+01
     -6.133  0.0000E+00  0.0000E+00  0.8000E+01  0.8000E+01
     -5.939  0.0000E+00  0.0000E+00  0.8000E+01  0.8000E+01
     -5.746  0.0000E+00  0.0000E+00  0.8000E+01  0.8000E+01
     -5.552  0.0000E+00  0.0000E+00  0.8000E+01  0.8000E+01
     -5.359  0.0000E+00  0.0000E+00  0.8000E+01  0.8000E+01
     -5.165  0.0000E+00  0.0000E+00  0.8000E+01  0.8000E+01
     -4.972  0.0000E+00  0.0000E+00  0.8000E+01  0.8000E+01
     -4.778  0.0000E+00  0.0000E+00  0.8000E+01  0.8000E+01
     -4.585  0.0000E+00  0.0000E+00  0.8000E+01  0.8000E+01
     -4.391  0.0000E+00  0.0000E+00  0.8000E+01  0.8000E+01
     -4.198  0.0000E+00  0.0000E+00  0.8000E+01  0.8000E+01
     -4.004  0.0000E+00  0.0000E+00  0.8000E+01  0.8000E+01
     -3.811  0.0000E+00  0.0000E+00  0.8000E+01  0.8000E+01
     -3.617  0.0000E+00  0.0000E+00  0.8000E+01  0.8000E+01
     -3.424  0.0000E+00  0.0000E+00  0.8000E+01  0.8000E+01
     -3.230  0.0000E+00  0.0000E+00  0.8000E+01  0.8000E+01
     -3.037  0.1270E-05  0.1289E-05  0.8000E+01  0.8000E+01
     -2.843  0.7310E-04  0.7420E-04  0.8000E+01  0.8000E+01
     -2.650  0.3310E-02  0.3357E-02  0.8001E+01  0.8001E+01
     -2.456  0.6070E-01  0.6114E-01  0.8012E+01  0.8012E+01
     -2.262  0.1839E+00  0.1843E+00  0.8048E+01  0.8048E+01
     -2.069  0.2653E+00  0.2655E+00  0.8099E+01  0.8100E+01
     -1.875  0.3444E+00  0.3442E+00  0.8166E+01  0.8166E+01
     -1.682  0.3786E+00  0.3786E+00  0.8240E+01  0.8240E+01
     -1.488  0.4512E+00  0.4516E+00  0.8327E+01  0.8328E+01
     -1.295  0.5298E+00  0.5299E+00  0.8430E+01  0.8430E+01
     -1.101  0.4975E+00  0.4979E+00  0.8527E+01  0.8527E+01
     -0.908  0.6832E+00  0.6838E+00  0.8659E+01  0.8660E+01
     -0.714  0.6610E+00  0.6609E+00  0.8788E+01  0.8788E+01
     -0.521  0.6641E+00  0.6644E+00  0.8917E+01  0.8917E+01
     -0.327  0.7091E+00  0.7089E+00  0.9055E+01  0.9055E+01
     -0.134  0.7757E+00  0.7752E+00  0.9205E+01  0.9206E+01
      0.060  0.7050E+00  0.7047E+00  0.9342E+01  0.9342E+01
      0.253  0.7855E+00  0.7866E+00  0.9494E+01  0.9495E+01
      0.447  0.8909E+00  0.8900E+00  0.9667E+01  0.9668E+01
      0.640  0.8035E+00  0.8038E+00  0.9823E+01  0.9824E+01
      0.834  0.9026E+00  0.9036E+00  0.9999E+01  0.9999E+01
      1.027  0.1096E+01  0.1095E+01  0.1021E+02  0.1021E+02
      1.221  0.1044E+01  0.1044E+01  0.1041E+02  0.1042E+02
      1.414  0.1064E+01  0.1064E+01  0.1062E+02  0.1062E+02
      1.608  0.1060E+01  0.1059E+01  0.1083E+02  0.1083E+02
      1.801  0.7618E+00  0.7611E+00  0.1097E+02  0.1098E+02
      1.995  0.8590E+00  0.8594E+00  0.1114E+02  0.1114E+02
      2.188  0.8240E+00  0.8232E+00  0.1130E+02  0.1130E+02
      2.382  0.9073E+00  0.9079E+00  0.1148E+02  0.1148E+02
      2.575  0.1225E+01  0.1227E+01  0.1172E+02  0.1172E+02
      2.769  0.1307E+01  0.1306E+01  0.1197E+02  0.1197E+02
      2.962  0.1100E+01  0.1100E+01  0.1218E+02  0.1218E+02
      3.156  0.1231E+01  0.1232E+01  0.1242E+02  0.1242E+02
      3.349  0.1362E+01  0.1361E+01  0.1269E+02  0.1269E+02
      3.543  0.1052E+01  0.1050E+01  0.1289E+02  0.1289E+02
      3.736  0.1143E+01  0.1143E+01  0.1311E+02  0.1311E+02
      3.930  0.1260E+01  0.1261E+01  0.1336E+02  0.1336E+02
      4.123  0.1341E+01  0.1341E+01  0.1362E+02  0.1362E+02
      4.317  0.1334E+01  0.1334E+01  0.1388E+02  0.1388E+02
      4.510  0.1259E+01  0.1259E+01  0.1412E+02  0.1412E+02
      4.704  0.1507E+01  0.1507E+01  0.1441E+02  0.1441E+02
      4.897  0.1742E+01  0.1742E+01  0.1475E+02  0.1475E+02
      5.091  0.1763E+01  0.1762E+01  0.1509E+02  0.1510E+02
      5.284  0.1431E+01  0.1430E+01  0.1537E+02  0.1537E+02
      5.478  0.1619E+01  0.1619E+01  0.1569E+02  0.1569E+02
      5.671  0.2275E+01  0.2275E+01  0.1613E+02  0.1613E+02
      5.865  0.2176E+01  0.2175E+01  0.1655E+02  0.1655E+02
      6.058  0.1981E+01  0.1979E+01  0.1694E+02  0.1694E+02
      6.252  0.2612E+01  0.2611E+01  0.1744E+02  0.1744E+02
      6.445  0.2890E+01  0.2889E+01  0.1800E+02  0.1800E+02
      6.639  0.2734E+01  0.2729E+01  0.1854E+02  0.1853E+02
      6.832  0.2682E+01  0.2682E+01  0.1906E+02  0.1906E+02
      7.026  0.1978E+01  0.1977E+01  0.1944E+02  0.1944E+02
      7.219  0.2073E+01  0.2072E+01  0.1985E+02  0.1984E+02
      7.413  0.2064E+01  0.2058E+01  0.2025E+02  0.2024E+02
      7.606  0.2114E+01  0.2116E+01  0.2066E+02  0.2065E+02
      7.800  0.1590E+01  0.1593E+01  0.2097E+02  0.2096E+02
      7.993  0.1428E+01  0.1430E+01  0.2124E+02  0.2124E+02
      8.187  0.1062E+01  0.1063E+01  0.2145E+02  0.2145E+02
      8.380  0.9632E+00  0.9631E+00  0.2164E+02  0.2164E+02
      8.574  0.9093E+00  0.9097E+00  0.2182E+02  0.2181E+02
      8.767  0.1140E+01  0.1137E+01  0.2204E+02  0.2203E+02
      8.961  0.1318E+01  0.1322E+01  0.2229E+02  0.2229E+02
      9.154  0.1751E+01  0.1751E+01  0.2263E+02  0.2263E+02
      9.348  0.2475E+01  0.2472E+01  0.2311E+02  0.2311E+02
      9.541  0.2883E+01  0.2888E+01  0.2367E+02  0.2367E+02
      9.735  0.3504E+01  0.3498E+01  0.2435E+02  0.2435E+02
      9.928  0.3181E+01  0.3178E+01  0.2497E+02  0.2497E+02
     10.122  0.3072E+01  0.3093E+01  0.2557E+02  0.2557E+02
     10.315  0.3175E+01  0.3213E+01  0.2618E+02  0.2619E+02
     10.509  0.3070E+01  0.3156E+01  0.2678E+02  0.2681E+02
     10.703  0.2869E+01  0.2919E+01  0.2734E+02  0.2737E+02
     10.896  0.1707E+01  0.1698E+01  0.2767E+02  0.2770E+02
     11.090  0.1036E+01  0.9004E+00  0.2787E+02  0.2788E+02
     11.283  0.4491E+00  0.3378E+00  0.2796E+02  0.2795E+02
     11.477  0.1317E+00  0.2153E+00  0.2799E+02  0.2799E+02
     11.670  0.6061E-01  0.5423E-01  0.2800E+02  0.2800E+02
     11.864  0.3612E-02  0.8519E-03  0.2800E+02  0.2800E+02
     12.057  0.0000E+00  0.0000E+00  0.2800E+02  0.2800E+02
     12.251  0.0000E+00  0.0000E+00  0.2800E+02  0.2800E+02
     12.444  0.0000E+00  0.0000E+00  0.2800E+02  0.2800E+02
     12.638  0.0000E+00  0.0000E+00  0.2800E+02  0.2800E+02
     12.831  0.0000E+00  0.0000E+00  0.2800E+02  0.2800E+02
     13.025  0.0000E+00  0.0000E+00  0.2800E+02  0.2800E+02
     13.218  0.0000E+00  0.0000E+00  0.2800E+02  0.2800E+02
     13.412  0.0000E+00  0.0000E+00  0.2800E+02  0.2800E+02
     13.605  0.0000E+00  0.0000E+00  0.2800E+02  0.2800E+02
     13.799  0.0000E+00  0.0000E+00  0.2800E+02  0.2800E+02
     13.992  0.0000E+00  0.0000E+00  0.2800E+02  0.2800E+02
     14.186  0.0000E+00  0.0000E+00  0.2800E+02  0.2800E+02
     14.18563749    -43.86660414  301      7.30187038      1.00000000
    -43.867  0.0000E+00  0.0000E+00  0.0000E+00  0.0000E+00  0.0000E+00  0.0000E+00  0.0000E+00  0.0000E+00  0.0000E+00  0.0000E+00  0.0000E+00  0.0000E+00  0.0000E+00  0.0000E+00  0.0000E+00  0.0000E+00  0.0000E+00  0.0000E+00
    -43.673  0.0000E+00  0.0000E+00  0.0000E+00  0.0000E+00  0.0000E+00  0.0000E+00  0.0000E+00  0.0000E+00  0.0000E+00  0.0000E+00  0.0000E+00  0.0000E+00  0.0000E+00  0.0000E+00  0.0000E+00  0.0000E+00  0.0000E+00  0.0000E+00
    -43.480  0.0000E+00  0.0000E+00  0.0000E+00  0.0000E+00  0.0000E+00  0.0000E+00  0.0000E+00  0.0000E+00  0.0000E+00  0.0000E+00  0.0000E+00  0.0000E+00  0.0000E+00  0.0000E+00  0.0000E+00  0.0000E+00  0.0000E+00  0.0000E+00
    -43.286  0.0000E+00  0.0000E+00  0.0000E+00  0.0000E+00  0.0000E+00  0.0000E+00  0.0000E+00  0.0000E+00  0.0000E+00  0.0000E+00  0.0000E+00  0.0000E+00  0.0000E+00  0.0000E+00  0.0000E+00  0.0000E+00  0.0000E+00  0.0000E+00
    -43.093  0.0000E+00  0.0000E+00  0.0000E+00  0.0000E+00  0.0000E+00  0.0000E+00  0.0000E+00  0.0000E+00  0.0000E+00  0.0000E+00  0.0000E+00  0.0000E+00  0.0000E+00  0.0000E+00  0.0000E+00  0.0000E+00  0.0000E+00  0.0000E+00
    -42.899  0.0000E+00  0.0000E+00  0.0000E+00  0.0000E+00  0.0000E+00  0.0000E+00  0.0000E+00  0.0000E+00  0.0000E+00  0.0000E+00  0.0000E+00  0.0000E+00  0.0000E+00  0.0000E+00  0.0000E+00  0.0000E+00  0.0000E+00  0.0000E+00
    -42.706  0.0000E+00  0.0000E+00  0.0000E+00  0.0000E+00  0.0000E+00  0.0000E+00  0.0000E+00  0.0000E+00  0.0000E+00  0.0000E+00  0.0000E+00  0.0000E+00  0.0000E+00  0.0000E+00  0.0000E+00  0.0000E+00  0.0000E+00  0.0000E+00
    -42.512  0.0000E+00  0.0000E+00  0.0000E+00  0.0000E+00  0.0000E+00  0.0000E+00  0.0000E+00  0.0000E+00  0.0000E+00  0.0000E+00  0.0000E+00  0.0000E+00  0.0000E+00  0.0000E+00  0.0000E+00  0.0000E+00  0.0000E+00  0.0000E+00
    -42.319  0.0000E+00  0.0000E+00  0.0000E+00  0.0000E+00  0.0000E+00  0.0000E+00  0.0000E+00  0.0000E+00  0.0000E+00  0.0000E+00  0.0000E+00  0.0000E+00  0.0000E+00  0.0000E+00  0.0000E+00  0.0000E+00  0.0000E+00  0.0000E+00
    -42.125  0.0000E+00  0.0000E+00  0.0000E+00  0.0000E+00  0.0000E+00  0.0000E+00  0.0000E+00  0.0000E+00  0.0000E+00  0.0000E+00  0.0000E+00  0.0000E+00  0.0000E+00  0.0000E+00  0.0000E+00  0.0000E+00  0.0000E+00  0.0000E+00
    -41.932  0.0000E+00  0.0000E+00  0.0000E+00  0.0000E+00  0.0000E+00  0.0000E+00  0.0000E+00  0.0000E+00  0.0000E+00  0.0000E+00  0.0000E+00  0.0000E+00  0.0000E+00  0.0000E+00  0.0000E+00  0.0000E+00  0.0000E+00  0.0000E+00
    -41.738  0.1812E-03  0.1692E-03  0.2057E-11  0.1919E-11  0.3099E-14  0.3031E-14  0.2057E-11  0.1919E-11  0.1159E-13  0.1164E-13  0.1106E-13  0.1105E-13  0.2203E-10  0.2076E-10  0.1106E-13  0.1105E-13  0.1270E-11  0.1214E-11
    -41.545  0.8493E-02  0.7933E-02  0.9641E-10  0.8993E-10  0.1452E-12  0.1421E-12  0.9641E-10  0.8993E-10  0.5434E-12  0.5456E-12  0.5184E-12  0.5178E-12  0.1033E-08  0.9729E-09  0.5184E-12  0.5178E-12  0.5952E-10  0.5692E-10
    -41.351  0.3767E+00  0.3536E+00  0.4277E-08  0.4009E-08  0.6431E-11  0.6323E-11  0.4277E-08  0.4009E-08  0.2413E-10  0.2433E-10  0.2300E-10  0.2307E-10  0.4579E-07  0.4336E-07  0.2300E-10  0.2307E-10  0.2640E-08  0.2538E-08
    -41.157  0.3707E+01  0.3672E+01  0.4205E-07  0.4160E-07  0.6212E-10  0.6451E-10  0.4205E-07  0.4160E-07  0.2401E-09  0.2539E-09  0.2273E-09  0.2385E-09  0.4487E-06  0.4482E-06  0.2273E-09  0.2385E-09  0.2599E-07  0.2636E-07
    -40.964  0.1027E+01  0.1084E+01  0.1165E-07  0.1227E-07  0.1685E-10  0.1865E-10  0.1165E-07  0.1227E-07  0.6740E-10  0.7539E-10  0.6332E-10  0.7005E-10  0.1238E-06  0.1316E-06  0.6332E-10  0.7005E-10  0.7205E-08  0.7783E-08
    -40.770  0.0000E+00  0.0000E+00  0.0000E+00  0.0000E+00  0.0000E+00  0.0000E+00  0.0000E+00  0.0000E+00  0.0000E+00  0.0000E+00  0.0000E+00  0.0000E+00  0.0000E+00  0.0000E+00  0.0000E+00  0.0000E+00  0.0000E+00  0.0000E+00
    -40.577  0.0000E+00  0.0000E+00  0.0000E+00  0.0000E+00  0.0000E+00  0.0000E+00  0.0000E+00  0.0000E+00  0.0000E+00  0.0000E+00  0.0000E+00  0.0000E+00  0.0000E+00  0.0000E+00  0.0000E+00  0.0000E+00  0.0000E+00  0.0000E+00
    -40.383  0.0000E+00  0.0000E+00  0.0000E+00  0.0000E+00  0.0000E+00  0.0000E+00  0.0000E+00  0.0000E+00  0.0000E+00  0.0000E+00  0.0000E+00  0.0000E+00  0.0000E+00  0.0000E+00  0.0000E+00  0.0000E+00  0.0000E+00  0.0000E+00
    -40.190  0.0000E+00  0.0000E+00  0.0000E+00  0.0000E+00  0.0000E+00  0.0000E+00  0.0000E+00  0.0000E+00  0.0000E+00  0.0000E+00  0.0000E+00  0.0000E+00  0.0000E+00  0.0000E+00  0.0000E+00  0.0000E+00  0.0000E+00  0.0000E+00
    -39.996  0.0000E+00  0.0000E+00  0.0000E+00  0.0000E+00  0.0000E+00  0.0000E+00  0.0000E+00  0.0000E+00  0.0000E+00  0.0000E+00  0.0000E+00  0.0000E+00  0.0000E+00  0.0000E+00  0.0000E+00  0.0000E+00  0.0000E+00  0.0000E+00
    -39.803  0.0000E+00  0.0000E+00  0.0000E+00  0.0000E+00  0.0000E+00  0.0000E+00  0.0000E+00  0.0000E+00  0.0000E+00  0.0000E+00  0.0000E+00  0.0000E+00  0.0000E+00  0.0000E+00  0.0000E+00  0.0000E+00  0.0000E+00  0.0000E+00
    -39.609  0.0000E+00  0.0000E+00  0.0000E+00  0.0000E+00  0.0000E+00  0.0000E+00  0.0000E+00  0.0000E+00  0.0000E+00  0.0000E+00  0.0000E+00  0.0000E+00  0.0000E+00  0.0000E+00  0.0000E+00  0.0000E+00  0.0000E+00  0.0000E+00
    -39.416  0.0000E+00  0.0000E+00  0.0000E+00  0.0000E+00  0.0000E+00  0.0000E+00  0.0000E+00  0.0000E+00  0.0000E+00  0.0000E+00  0.0000E+00  0.0000E+00  0.0000E+00  0.0000E+00  0.0000E+00  0.0000E+00  0.0000E+00  0.0000E+00
    -39.222  0.0000E+00  0.0000E+00  0.0000E+00  0.0000E+00  0.0000E+00  0.0000E+00  0.0000E+00  0.0000E+00  0.0000E+00  0.0000E+00  0.0000E+00  0.0000E+00  0.0000E+00  0.0000E+00  0.0000E+00  0.0000E+00  0.0000E+00  0.0000E+00
    -39.029  0.0000E+00  0.0000E+00  0.0000E+00  0.0000E+00  0.0000E+00  0.0000E+00  0.0000E+00  0.0000E+00  0.0000E+00  0.0000E+00  0.0000E+00  0.0000E+00  0.0000E+00  0.0000E+00  0.0000E+00  0.0000E+00  0.0000E+00  0.0000E+00
    -38.835  0.0000E+00  0.0000E+00  0.0000E+00  0.0000E+00  0.0000E+00  0.0000E+00  0.0000E+00  0.0000E+00  0.0000E+00  0.0000E+00  0.0000E+00  0.0000E+00  0.0000E+00  0.0000E+00  0.0000E+00  0.0000E+00  0.0000E+00  0.0000E+00
    -38.642  0.0000E+00  0.0000E+00  0.0000E+00  0.0000E+00  0.0000E+00  0.0000E+00  0.0000E+00  0.0000E+00  0.0000E+00  0.0000E+00  0.0000E+00  0.0000E+00  0.0000E+00  0.0000E+00  0.0000E+00  0.0000E+00  0.0000E+00  0.0000E+00
    -38.448  0.0000E+00  0.0000E+00  0.0000E+00  0.0000E+00  0.0000E+00  0.0000E+00  0.0000E+00  0.0000E+00  0.0000E+00  0.0000E+00  0.0000E+00  0.0000E+00  0.0000E+00  0.0000E+00  0.0000E+00  0.0000E+00  0.0000E+00  0.0000E+00
    -38.255  0.0000E+00  0.0000E+00  0.0000E+00  0.0000E+00  0.0000E+00  0.0000E+00  0.0000E+00  0.0000E+00  0.0000E+00  0.0000E+00  0.0000E+00  0.0000E+00  0.0000E+00  0.0000E+00  0.0000E+00  0.0000E+00  0.0000E+00  0.0000E+00
    -38.061  0.0000E+00  0.0000E+00  0.0000E+00  0.0000E+00  0.0000E+00  0.0000E+00  0.0000E+00  0.0000E+00  0.0000E+00  0.0000E+00  0.0000E+00  0.0000E+00  0.0000E+00  0.0000E+00  0.0000E+00  0.0000E+00  0.0000E+00  0.0000E+00
    -37.868  0.0000E+00  0.0000E+00  0.0000E+00  0.0000E+00  0.0000E+00  0.0000E+00  0.0000E+00  0.0000E+00  0.0000E+00  0.0000E+00  0.0000E+00  0.0000E+00  0.0000E+00  0.0000E+00  0.0000E+00  0.0000E+00  0.0000E+00  0.0000E+00
    -37.674  0.0000E+00  0.0000E+00  0.0000E+00  0.0000E+00  0.0000E+00  0.0000E+00  0.0000E+00  0.0000E+00  0.0000E+00  0.0000E+00  0.0000E+00  0.0000E+00  0.0000E+00  0.0000E+00  0.0000E+00  0.0000E+00  0.0000E+00  0.0000E+00
    -37.481  0.0000E+00  0.0000E+00  0.0000E+00  0.0000E+00  0.0000E+00  0.0000E+00  0.0000E+00  0.0000E+00  0.0000E+00  0.0000E+00  0.0000E+00  0.0000E+00  0.0000E+00  0.0000E+00  0.0000E+00  0.0000E+00  0.0000E+00  0.0000E+00
    -37.287  0.0000E+00  0.0000E+00  0.0000E+00  0.0000E+00  0.0000E+00  0.0000E+00  0.0000E+00  0.0000E+00  0.0000E+00  0.0000E+00  0.0000E+00  0.0000E+00  0.0000E+00  0.0000E+00  0.0000E+00  0.0000E+00  0.0000E+00  0.0000E+00
    -37.094  0.0000E+00  0.0000E+00  0.0000E+00  0.0000E+00  0.0000E+00  0.0000E+00  0.0000E+00  0.0000E+00  0.0000E+00  0.0000E+00  0.0000E+00  0.0000E+00  0.0000E+00  0.0000E+00  0.0000E+00  0.0000E+00  0.0000E+00  0.0000E+00
    -36.900  0.0000E+00  0.0000E+00  0.0000E+00  0.0000E+00  0.0000E+00  0.0000E+00  0.0000E+00  0.0000E+00  0.0000E+00  0.0000E+00  0.0000E+00  0.0000E+00  0.0000E+00  0.0000E+00  0.0000E+00  0.0000E+00  0.0000E+00  0.0000E+00
    -36.707  0.0000E+00  0.0000E+00  0.0000E+00  0.0000E+00  0.0000E+00  0.0000E+00  0.0000E+00  0.0000E+00  0.0000E+00  0.0000E+00  0.0000E+00  0.0000E+00  0.0000E+00  0.0000E+00  0.0000E+00  0.0000E+00  0.0000E+00  0.0000E+00
    -36.513  0.0000E+00  0.0000E+00  0.0000E+00  0.0000E+00  0.0000E+00  0.0000E+00  0.0000E+00  0.0000E+00  0.0000E+00  0.0000E+00  0.0000E+00  0.0000E+00  0.0000E+00  0.0000E+00  0.0000E+00  0.0000E+00  0.0000E+00  0.0000E+00
    -36.320  0.0000E+00  0.0000E+00  0.0000E+00  0.0000E+00  0.0000E+00  0.0000E+00  0.0000E+00  0.0000E+00  0.0000E+00  0.0000E+00  0.0000E+00  0.0000E+00  0.0000E+00  0.0000E+00  0.0000E+00  0.0000E+00  0.0000E+00  0.0000E+00
    -36.126  0.0000E+00  0.0000E+00  0.0000E+00  0.0000E+00  0.0000E+00  0.0000E+00  0.0000E+00  0.0000E+00  0.0000E+00  0.0000E+00  0.0000E+00  0.0000E+00  0.0000E+00  0.0000E+00  0.0000E+00  0.0000E+00  0.0000E+00  0.0000E+00
    -35.933  0.0000E+00  0.0000E+00  0.0000E+00  0.0000E+00  0.0000E+00  0.0000E+00  0.0000E+00  0.0000E+00  0.0000E+00  0.0000E+00  0.0000E+00  0.0000E+00  0.0000E+00  0.0000E+00  0.0000E+00  0.0000E+00  0.0000E+00  0.0000E+00
    -35.739  0.0000E+00  0.0000E+00  0.0000E+00  0.0000E+00  0.0000E+00  0.0000E+00  0.0000E+00  0.0000E+00  0.0000E+00  0.0000E+00  0.0000E+00  0.0000E+00  0.0000E+00  0.0000E+00  0.0000E+00  0.0000E+00  0.0000E+00  0.0000E+00
    -35.546  0.0000E+00  0.0000E+00  0.0000E+00  0.0000E+00  0.0000E+00  0.0000E+00  0.0000E+00  0.0000E+00  0.0000E+00  0.0000E+00  0.0000E+00  0.0000E+00  0.0000E+00  0.0000E+00  0.0000E+00  0.0000E+00  0.0000E+00  0.0000E+00
    -35.352  0.0000E+00  0.0000E+00  0.0000E+00  0.0000E+00  0.0000E+00  0.0000E+00  0.0000E+00  0.0000E+00  0.0000E+00  0.0000E+00  0.0000E+00  0.0000E+00  0.0000E+00  0.0000E+00  0.0000E+00  0.0000E+00  0.0000E+00  0.0000E+00
    -35.159  0.0000E+00  0.0000E+00  0.0000E+00  0.0000E+00  0.0000E+00  0.0000E+00  0.0000E+00  0.0000E+00  0.0000E+00  0.0000E+00  0.0000E+00  0.0000E+00  0.0000E+00  0.0000E+00  0.0000E+00  0.0000E+00  0.0000E+00  0.0000E+00
    -34.965  0.0000E+00  0.0000E+00  0.0000E+00  0.0000E+00  0.0000E+00  0.0000E+00  0.0000E+00  0.0000E+00  0.0000E+00  0.0000E+00  0.0000E+00  0.0000E+00  0.0000E+00  0.0000E+00  0.0000E+00  0.0000E+00  0.0000E+00  0.0000E+00
    -34.772  0.0000E+00  0.0000E+00  0.0000E+00  0.0000E+00  0.0000E+00  0.0000E+00  0.0000E+00  0.0000E+00  0.0000E+00  0.0000E+00  0.0000E+00  0.0000E+00  0.0000E+00  0.0000E+00  0.0000E+00  0.0000E+00  0.0000E+00  0.0000E+00
    -34.578  0.0000E+00  0.0000E+00  0.0000E+00  0.0000E+00  0.0000E+00  0.0000E+00  0.0000E+00  0.0000E+00  0.0000E+00  0.0000E+00  0.0000E+00  0.0000E+00  0.0000E+00  0.0000E+00  0.0000E+00  0.0000E+00  0.0000E+00  0.0000E+00
    -34.385  0.0000E+00  0.0000E+00  0.0000E+00  0.0000E+00  0.0000E+00  0.0000E+00  0.0000E+00  0.0000E+00  0.0000E+00  0.0000E+00  0.0000E+00  0.0000E+00  0.0000E+00  0.0000E+00  0.0000E+00  0.0000E+00  0.0000E+00  0.0000E+00
    -34.191  0.0000E+00  0.0000E+00  0.0000E+00  0.0000E+00  0.0000E+00  0.0000E+00  0.0000E+00  0.0000E+00  0.0000E+00  0.0000E+00  0.0000E+00  0.0000E+00  0.0000E+00  0.0000E+00  0.0000E+00  0.0000E+00  0.0000E+00  0.0000E+00