   8   8   1   0
  0.1784914E+02  0.4023135E-09  0.4023135E-09  0.8822224E-09  0.5000000E-15
  1.000000000000000E-004
  CAR 
 unknown system                          
     13.26422114    -45.02028755  301      6.50983702      1.00000000
    -45.020  0.0000E+00  0.0000E+00  0.0000E+00  0.0000E+00
    -44.826  0.0000E+00  0.0000E+00  0.0000E+00  0.0000E+00
    -44.632  0.0000E+00  0.0000E+00  0.0000E+00  0.0000E+00
    -44.437  0.0000E+00  0.0000E+00  0.0000E+00  0.0000E+00
    -44.243  0.0000E+00  0.0000E+00  0.0000E+00  0.0000E+00
    -44.049  0.0000E+00  0.0000E+00  0.0000E+00  0.0000E+00
    -43.855  0.0000E+00  0.0000E+00  0.0000E+00  0.0000E+00
    -43.660  0.0000E+00  0.0000E+00  0.0000E+00  0.0000E+00
    -43.466  0.0000E+00  0.0000E+00  0.0000E+00  0.0000E+00
    -43.272  0.0000E+00  0.0000E+00  0.0000E+00  0.0000E+00
    -43.077  0.0000E+00  0.0000E+00  0.0000E+00  0.0000E+00
    -42.883  0.3551E-03  0.3283E-03  0.6899E-04  0.6378E-04
    -42.689  0.1691E-01  0.1563E-01  0.3354E-02  0.3101E-02
    -42.495  0.7612E+00  0.7078E+00  0.1512E+00  0.1406E+00
    -42.300  0.7450E+01  0.7372E+01  0.1599E+01  0.1573E+01
    -42.106  0.2013E+01  0.2142E+01  0.1990E+01  0.1989E+01
    -41.912  0.0000E+00  0.0000E+00  0.2000E+01  0.2000E+01
    -41.717  0.0000E+00  0.0000E+00  0.2000E+01  0.2000E+01
    -41.523  0.0000E+00  0.0000E+00  0.2000E+01  0.2000E+01
    -41.329  0.0000E+00  0.0000E+00  0.2000E+01  0.2000E+01
    -41.135  0.0000E+00  0.0000E+00  0.2000E+01  0.2000E+01
    -40.940  0.0000E+00  0.0000E+00  0.2000E+01  0.2000E+01
    -40.746  0.0000E+00  0.0000E+00  0.2000E+01  0.2000E+01
    -40.552  0.0000E+00  0.0000E+00  0.2000E+01  0.2000E+01
    -40.358  0.0000E+00  0.0000E+00  0.2000E+01  0.2000E+01
    -40.163  0.0000E+00  0.0000E+00  0.2000E+01  0.2000E+01
    -39.969  0.0000E+00  0.0000E+00  0.2000E+01  0.2000E+01
    -39.775  0.0000E+00  0.0000E+00  0.2000E+01  0.2000E+01
    -39.580  0.0000E+00  0.0000E+00  0.2000E+01  0.2000E+01
    -39.386  0.0000E+00  0.0000E+00  0.2000E+01  0.2000E+01
    -39.192  0.0000E+00  0.0000E+00  0.2000E+01  0.2000E+01
    -38.998  0.0000E+00  0.0000E+00  0.2000E+01  0.2000E+01
    -38.803  0.0000E+00  0.0000E+00  0.2000E+01  0.2000E+01
    -38.609  0.0000E+00  0.0000E+00  0.2000E+01  0.2000E+01
    -38.415  0.0000E+00  0.0000E+00  0.2000E+01  0.2000E+01
    -38.220  0.0000E+00  0.0000E+00  0.2000E+01  0.2000E+01
    -38.026  0.0000E+00  0.0000E+00  0.2000E+01  0.2000E+01
    -37.832  0.0000E+00  0.0000E+00  0.2000E+01  0.2000E+01
    -37.638  0.0000E+00  0.0000E+00  0.2000E+01  0.2000E+01
    -37.443  0.0000E+00  0.0000E+00  0.2000E+01  0.2000E+01
    -37.249  0.0000E+00  0.0000E+00  0.2000E+01  0.2000E+01
    -37.055  0.0000E+00  0.0000E+00  0.2000E+01  0.2000E+01
    -36.860  0.0000E+00  0.0000E+00  0.2000E+01  0.2000E+01
    -36.666  0.0000E+00  0.0000E+00  0.2000E+01  0.2000E+01
    -36.472  0.0000E+00  0.0000E+00  0.2000E+01  0.2000E+01
    -36.278  0.0000E+00  0.0000E+00  0.2000E+01  0.2000E+01
    -36.083  0.0000E+00  0.0000E+00  0.2000E+01  0.2000E+01
    -35.889  0.0000E+00  0.0000E+00  0.2000E+01  0.2000E+01
    -35.695  0.0000E+00  0.0000E+00  0.2000E+01  0.2000E+01
    -35.500  0.0000E+00  0.0000E+00  0.2000E+01  0.2000E+01
    -35.306  0.0000E+00  0.0000E+00  0.2000E+01  0.2000E+01
    -35.112  0.0000E+00  0.0000E+00  0.2000E+01  0.2000E+01
    -34.918  0.0000E+00  0.0000E+00  0.2000E+01  0.2000E+01
    -34.723  0.0000E+00  0.0000E+00  0.2000E+01  0.2000E+01
    -34.529  0.0000E+00  0.0000E+00  0.2000E+01  0.2000E+01
    -34.335  0.0000E+00  0.0000E+00  0.2000E+01  0.2000E+01
    -34.141  0.0000E+00  0.0000E+00  0.2000E+01  0.2000E+01
    -33.946  0.0000E+00  0.0000E+00  0.2000E+01  0.2000E+01
    -33.752  0.0000E+00  0.0000E+00  0.2000E+01  0.2000E+01
    -33.558  0.0000E+00  0.0000E+00  0.2000E+01  0.2000E+01
    -33.363  0.0000E+00  0.0000E+00  0.2000E+01  0.2000E+01
    -33.169  0.0000E+00  0.0000E+00  0.2000E+01  0.2000E+01
    -32.975  0.0000E+00  0.0000E+00  0.2000E+01  0.2000E+01
    -32.781  0.0000E+00  0.0000E+00  0.2000E+01  0.2000E+01
    -32.586  0.0000E+00  0.0000E+00  0.2000E+01  0.2000E+01
    -32.392  0.0000E+00  0.0000E+00  0.2000E+01  0.2000E+01
    -32.198  0.0000E+00  0.0000E+00  0.2000E+01  0.2000E+01
    -32.003  0.0000E+00  0.0000E+00  0.2000E+01  0.2000E+01
    -31.809  0.0000E+00  0.0000E+00  0.2000E+01  0.2000E+01
    -31.615  0.0000E+00  0.0000E+00  0.2000E+01  0.2000E+01
    -31.421  0.0000E+00  0.0000E+00  0.2000E+01  0.2000E+01
    -31.226  0.0000E+00  0.0000E+00  0.2000E+01  0.2000E+01
    -31.032  0.0000E+00  0.0000E+00  0.2000E+01  0.2000E+01
    -30.838  0.0000E+00  0.0000E+00  0.2000E+01  0.2000E+01
    -30.643  0.0000E+00  0.0000E+00  0.2000E+01  0.2000E+01
    -30.449  0.0000E+00  0.0000E+00  0.2000E+01  0.2000E+01
    -30.255  0.0000E+00  0.0000E+00  0.2000E+01  0.2000E+01
    -30.061  0.0000E+00  0.0000E+00  0.2000E+01  0.2000E+01
    -29.866  0.0000E+00  0.0000E+00  0.2000E+01  0.2000E+01
    -29.672  0.0000E+00  0.0000E+00  0.2000E+01  0.2000E+01
    -29.478  0.0000E+00  0.0000E+00  0.2000E+01  0.2000E+01
    -29.283  0.0000E+00  0.0000E+00  0.2000E+01  0.2000E+01
    -29.089  0.0000E+00  0.0000E+00  0.2000E+01  0.2000E+01
    -28.895  0.0000E+00  0.0000E+00  0.2000E+01  0.2000E+01
    -28.701  0.0000E+00  0.0000E+00  0.2000E+01  0.2000E+01
    -28.506  0.0000E+00  0.0000E+00  0.2000E+01  0.2000E+01
    -28.312  0.0000E+00  0.0000E+00  0.2000E+01  0.2000E+01
    -28.118  0.0000E+00  0.0000E+00  0.2000E+01  0.2000E+01
    -27.923  0.0000E+00  0.0000E+00  0.2000E+01  0.2000E+01
    -27.729  0.0000E+00  0.0000E+00  0.2000E+01  0.2000E+01
    -27.535  0.0000E+00  0.0000E+00  0.2000E+01  0.2000E+01
    -27.341  0.0000E+00  0.0000E+00  0.2000E+01  0.2000E+01
    -27.146  0.0000E+00  0.0000E+00  0.2000E+01  0.2000E+01
    -26.952  0.0000E+00  0.0000E+00  0.2000E+01  0.2000E+01
    -26.758  0.0000E+00  0.0000E+00  0.2000E+01  0.2000E+01
    -26.564  0.0000E+00  0.0000E+00  0.2000E+01  0.2000E+01
    -26.369  0.0000E+00  0.0000E+00  0.2000E+01  0.2000E+01
    -26.175  0.0000E+00  0.0000E+00  0.2000E+01  0.2000E+01
    -25.981  0.0000E+00  0.0000E+00  0.2000E+01  0.2000E+01
    -25.786  0.0000E+00  0.0000E+00  0.2000E+01  0.2000E+01
    -25.592  0.0000E+00  0.0000E+00  0.2000E+01  0.2000E+01
    -25.398  0.0000E+00  0.0000E+00  0.2000E+01  0.2000E+01
    -25.204  0.0000E+00  0.0000E+00  0.2000E+01  0.2000E+01
    -25.009  0.0000E+00  0.0000E+00  0.2000E+01  0.2000E+01
    -24.815  0.0000E+00  0.0000E+00  0.2000E+01  0.2000E+01
    -24.621  0.0000E+00  0.0000E+00  0.2000E+01  0.2000E+01
    -24.426  0.0000E+00  0.0000E+00  0.2000E+01  0.2000E+01
    -24.232  0.0000E+00  0.0000E+00  0.2000E+01  0.2000E+01
    -24.038  0.0000E+00  0.0000E+00  0.2000E+01  0.2000E+01
    -23.844  0.0000E+00  0.0000E+00  0.2000E+01  0.2000E+01
    -23.649  0.0000E+00  0.0000E+00  0.2000E+01  0.2000E+01
    -23.455  0.0000E+00  0.0000E+00  0.2000E+01  0.2000E+01
    -23.261  0.0000E+00  0.0000E+00  0.2000E+01  0.2000E+01
    -23.066  0.0000E+00  0.0000E+00  0.2000E+01  0.2000E+01
    -22.872  0.0000E+00  0.0000E+00  0.2000E+01  0.2000E+01
    -22.678  0.0000E+00  0.0000E+00  0.2000E+01  0.2000E+01
    -22.484  0.0000E+00  0.0000E+00  0.2000E+01  0.2000E+01
    -22.289  0.0000E+00  0.0000E+00  0.2000E+01  0.2000E+01
    -22.095  0.0000E+00  0.0000E+00  0.2000E+01  0.2000E+01
    -21.901  0.0000E+00  0.0000E+00  0.2000E+01  0.2000E+01
    -21.706  0.0000E+00  0.0000E+00  0.2000E+01  0.2000E+01
    -21.512  0.3961E-02  0.3643E-02  0.2001E+01  0.2001E+01
    -21.318  0.1877E+00  0.1727E+00  0.2037E+01  0.2034E+01
    -21.124  0.6964E+01  0.6532E+01  0.3390E+01  0.3303E+01
    -20.929  0.2171E+02  0.2199E+02  0.7608E+01  0.7576E+01
    -20.735  0.1975E+01  0.2134E+01  0.7991E+01  0.7991E+01
    -20.541  0.0000E+00  0.0000E+00  0.8000E+01  0.8000E+01
    -20.347  0.0000E+00  0.0000E+00  0.8000E+01  0.8000E+01
    -20.152  0.0000E+00  0.0000E+00  0.8000E+01  0.8000E+01
    -19.958  0.0000E+00  0.0000E+00  0.8000E+01  0.8000E+01
    -19.764  0.0000E+00  0.0000E+00  0.8000E+01  0.8000E+01
    -19.569  0.0000E+00  0.0000E+00  0.8000E+01  0.8000E+01
    -19.375  0.0000E+00  0.0000E+00  0.8000E+01  0.8000E+01
    -19.181  0.0000E+00  0.0000E+00  0.8000E+01  0.8000E+01
    -18.987  0.0000E+00  0.0000E+00  0.8000E+01  0.8000E+01
    -18.792  0.0000E+00  0.0000E+00  0.8000E+01  0.8000E+01
    -18.598  0.0000E+00  0.0000E+00  0.8000E+01  0.8000E+01
    -18.404  0.0000E+00  0.0000E+00  0.8000E+01  0.8000E+01
    -18.209  0.0000E+00  0.0000E+00  0.8000E+01  0.8000E+01
    -18.015  0.0000E+00  0.0000E+00  0.8000E+01  0.8000E+01
    -17.821  0.0000E+00  0.0000E+00  0.8000E+01  0.8000E+01
    -17.627  0.0000E+00  0.0000E+00  0.8000E+01  0.8000E+01
    -17.432  0.0000E+00  0.0000E+00  0.8000E+01  0.8000E+01
    -17.238  0.0000E+00  0.0000E+00  0.8000E+01  0.8000E+01
    -17.044  0.0000E+00  0.0000E+00  0.8000E+01  0.8000E+01
    -16.849  0.0000E+00  0.0000E+00  0.8000E+01  0.8000E+01
    -16.655  0.0000E+00  0.0000E+00  0.8000E+01  0.8000E+01
    -16.461  0.0000E+00  0.0000E+00  0.8000E+01  0.8000E+01
    -16.267  0.0000E+00  0.0000E+00  0.8000E+01  0.8000E+01
    -16.072  0.0000E+00  0.0000E+00  0.8000E+01  0.8000E+01
    -15.878  0.0000E+00  0.0000E+00  0.8000E+01  0.8000E+01
    -15.684  0.0000E+00  0.0000E+00  0.8000E+01  0.8000E+01
    -15.489  0.0000E+00  0.0000E+00  0.8000E+01  0.8000E+01
    -15.295  0.0000E+00  0.0000E+00  0.8000E+01  0.8000E+01
    -15.101  0.0000E+00  0.0000E+00  0.8000E+01  0.8000E+01
    -14.907  0.0000E+00  0.0000E+00  0.8000E+01  0.8000E+01
    -14.712  0.0000E+00  0.0000E+00  0.8000E+01  0.8000E+01
    -14.518  0.0000E+00  0.0000E+00  0.8000E+01  0.8000E+01
    -14.324  0.0000E+00  0.0000E+00  0.8000E+01  0.8000E+01
    -14.129  0.0000E+00  0.0000E+00  0.8000E+01  0.8000E+01
    -13.935  0.0000E+00  0.0000E+00  0.8000E+01  0.8000E+01
    -13.741  0.0000E+00  0.0000E+00  0.8000E+01  0.8000E+01
    -13.547  0.0000E+00  0.0000E+00  0.8000E+01  0.8000E+01
    -13.352  0.0000E+00  0.0000E+00  0.8000E+01  0.8000E+01
    -13.158  0.0000E+00  0.0000E+00  0.8000E+01  0.8000E+01
    -12.964  0.0000E+00  0.0000E+00  0.8000E+01  0.8000E+01
    -12.770  0.0000E+00  0.0000E+00  0.8000E+01  0.8000E+01
    -12.575  0.0000E+00  0.0000E+00  0.8000E+01  0.8000E+01
    -12.381  0.0000E+00  0.0000E+00  0.8000E+01  0.8000E+01
    -12.187  0.0000E+00  0.0000E+00  0.8000E+01  0.8000E+01
    -11.992  0.0000E+00  0.0000E+00  0.8000E+01  0.8000E+01
    -11.798  0.0000E+00  0.0000E+00  0.8000E+01  0.8000E+01
    -11.604  0.0000E+00  0.0000E+00  0.8000E+01  0.8000E+01
    -11.410  0.0000E+00  0.0000E+00  0.8000E+01  0.8000E+01
    -11.215  0.0000E+00  0.0000E+00  0.8000E+01  0.8000E+01
    -11.021  0.0000E+00  0.0000E+00  0.8000E+01  0.8000E+01
    -10.827  0.0000E+00  0.0000E+00  0.8000E+01  0.8000E+01
    -10.632  0.0000E+00  0.0000E+00  0.8000E+01  0.8000E+01
    -10.438  0.0000E+00  0.0000E+00  0.8000E+01  0.8000E+01
    -10.244  0.0000E+00  0.0000E+00  0.8000E+01  0.8000E+01
    -10.050  0.0000E+00  0.0000E+00  0.8000E+01  0.8000E+01
     -9.855  0.0000E+00  0.0000E+00  0.8000E+01  0.8000E+01
     -9.661  0.0000E+00  0.0000E+00  0.8000E+01  0.8000E+01
     -9.467  0.0000E+00  0.0000E+00  0.8000E+01  0.8000E+01
     -9.272  0.0000E+00  0.0000E+00  0.8000E+01  0.8000E+01
     -9.078  0.0000E+00  0.0000E+00  0.8000E+01  0.8000E+01
     -8.884  0.0000E+00  0.0000E+00  0.8000E+01  0.8000E+01
     -8.690  0.0000E+00  0.0000E+00  0.8000E+01  0.8000E+01
     -8.495  0.0000E+00  0.0000E+00  0.8000E+01  0.8000E+01
     -8.301  0.0000E+00  0.0000E+00  0.8000E+01  0.8000E+01
     -8.107  0.0000E+00  0.0000E+00  0.8000E+01  0.8000E+01
     -7.912  0.0000E+00  0.0000E+00  0.8000E+01  0.8000E+01
     -7.718  0.0000E+00  0.0000E+00  0.8000E+01  0.8000E+01
     -7.524  0.0000E+00  0.0000E+00  0.8000E+01  0.8000E+01
     -7.330  0.0000E+00  0.0000E+00  0.8000E+01  0.8000E+01
     -7.135  0.0000E+00  0.0000E+00  0.8000E+01  0.8000E+01
     -6.941  0.0000E+00  0.0000E+00  0.8000E+01  0.8000E+01
     -6.747  0.0000E+00  0.0000E+00  0.8000E+01  0.8000E+01
     -6.553  0.0000E+00  0.0000E+00  0.8000E+01  0.8000E+01
     -6.358  0.0000E+00  0.0000E+00  0.8000E+01  0.8000E+01
     -6.164  0.0000E+00  0.0000E+00  0.8000E+01  0.8000E+01
     -5.970  0.0000E+00  0.0000E+00  0.8000E+01  0.8000E+01
     -5.775  0.0000E+00  0.0000E+00  0.8000E+01  0.8000E+01
     -5.581  0.0000E+00  0.0000E+00  0.8000E+01  0.8000E+01
     -5.387  0.0000E+00  0.0000E+00  0.8000E+01  0.8000E+01
     -5.193  0.0000E+00  0.0000E+00  0.8000E+01  0.8000E+01
     -4.998  0.0000E+00  0.0000E+00  0.8000E+01  0.8000E+01
     -4.804  0.0000E+00  0.0000E+00  0.8000E+01  0.8000E+01
     -4.610  0.0000E+00  0.0000E+00  0.8000E+01  0.8000E+01
     -4.415  0.0000E+00  0.0000E+00  0.8000E+01  0.8000E+01
     -4.221  0.0000E+00  0.0000E+00  0.8000E+01  0.8000E+01
     -4.027  0.0000E+00  0.0000E+00  0.8000E+01  0.8000E+01
     -3.833  0.0000E+00  0.0000E+00  0.8000E+01  0.8000E+01
     -3.638  0.0000E+00  0.0000E+00  0.8000E+01  0.8000E+01
     -3.444  0.2998E-06  0.3018E-06  0.8000E+01  0.8000E+01
     -3.250  0.2435E-04  0.2452E-04  0.8000E+01  0.8000E+01
     -3.055  0.1185E-02  0.1193E-02  0.8000E+01  0.8000E+01
     -2.861  0.3479E-01  0.3495E-01  0.8007E+01  0.8007E+01
     -2.667  0.1657E+00  0.1659E+00  0.8039E+01  0.8039E+01
     -2.473  0.2748E+00  0.2749E+00  0.8093E+01  0.8093E+01
     -2.278  0.3596E+00  0.3598E+00  0.8163E+01  0.8163E+01
     -2.084  0.4079E+00  0.4079E+00  0.8242E+01  0.8242E+01
     -1.890  0.4884E+00  0.4887E+00  0.8337E+01  0.8338E+01
     -1.695  0.5589E+00  0.5589E+00  0.8446E+01  0.8446E+01
     -1.501  0.5664E+00  0.5668E+00  0.8556E+01  0.8557E+01
     -1.307  0.7382E+00  0.7383E+00  0.8700E+01  0.8701E+01
     -1.113  0.6921E+00  0.6921E+00  0.8835E+01  0.8835E+01
     -0.918  0.7426E+00  0.7429E+00  0.8980E+01  0.8980E+01
     -0.724  0.7558E+00  0.7560E+00  0.9128E+01  0.9128E+01
     -0.530  0.8019E+00  0.8017E+00  0.9284E+01  0.9284E+01
     -0.335  0.7749E+00  0.7754E+00  0.9435E+01  0.9436E+01
     -0.141  0.9478E+00  0.9478E+00  0.9620E+01  0.9620E+01
      0.053  0.8043E+00  0.8041E+00  0.9777E+01  0.9777E+01
      0.247  0.9008E+00  0.9012E+00  0.9953E+01  0.9953E+01
      0.442  0.1156E+01  0.1156E+01  0.1018E+02  0.1018E+02
      0.636  0.1089E+01  0.1089E+01  0.1039E+02  0.1039E+02
      0.830  0.1092E+01  0.1092E+01  0.1060E+02  0.1060E+02
      1.024  0.1085E+01  0.1085E+01  0.1081E+02  0.1082E+02
      1.219  0.8237E+00  0.8232E+00  0.1098E+02  0.1098E+02
      1.413  0.9011E+00  0.9000E+00  0.1115E+02  0.1115E+02
      1.607  0.8682E+00  0.8680E+00  0.1132E+02  0.1132E+02
      1.802  0.1074E+01  0.1074E+01  0.1153E+02  0.1153E+02
      1.996  0.1456E+01  0.1457E+01  0.1181E+02  0.1181E+02
      2.190  0.1249E+01  0.1249E+01  0.1206E+02  0.1206E+02
      2.384  0.1165E+01  0.1165E+01  0.1228E+02  0.1228E+02
      2.579  0.1376E+01  0.1376E+01  0.1255E+02  0.1255E+02
      2.773  0.1248E+01  0.1248E+01  0.1280E+02  0.1280E+02
      2.967  0.1071E+01  0.1071E+01  0.1301E+02  0.1301E+02
      3.162  0.1205E+01  0.1205E+01  0.1324E+02  0.1324E+02
      3.356  0.1305E+01  0.1305E+01  0.1350E+02  0.1350E+02
      3.550  0.1454E+01  0.1453E+01  0.1378E+02  0.1378E+02
      3.744  0.1344E+01  0.1344E+01  0.1404E+02  0.1404E+02
      3.939  0.1501E+01  0.1501E+01  0.1433E+02  0.1433E+02
      4.133  0.1747E+01  0.1746E+01  0.1467E+02  0.1467E+02
      4.327  0.1921E+01  0.1920E+01  0.1505E+02  0.1505E+02
      4.522  0.1470E+01  0.1469E+01  0.1534E+02  0.1534E+02
      4.716  0.1599E+01  0.1598E+01  0.1565E+02  0.1565E+02
      4.910  0.2242E+01  0.2240E+01  0.1609E+02  0.1608E+02
      5.104  0.2223E+01  0.2222E+01  0.1652E+02  0.1652E+02
      5.299  0.2064E+01  0.2062E+01  0.1692E+02  0.1692E+02
      5.493  0.2607E+01  0.2604E+01  0.1743E+02  0.1743E+02
      5.687  0.2974E+01  0.2973E+01  0.1801E+02  0.1801E+02
      5.882  0.2793E+01  0.2787E+01  0.1855E+02  0.1855E+02
      6.076  0.2758E+01  0.2759E+01  0.1909E+02  0.1909E+02
      6.270  0.2040E+01  0.2038E+01  0.1949E+02  0.1949E+02
      6.464  0.2144E+01  0.2144E+01  0.1991E+02  0.1991E+02
      6.659  0.2237E+01  0.2230E+01  0.2035E+02  0.2034E+02
      6.853  0.2124E+01  0.2128E+01  0.2076E+02  0.2076E+02
      7.047  0.1627E+01  0.1631E+01  0.2108E+02  0.2107E+02
      7.241  0.1358E+01  0.1363E+01  0.2134E+02  0.2134E+02
      7.436  0.1047E+01  0.1048E+01  0.2155E+02  0.2155E+02
      7.630  0.1025E+01  0.1025E+01  0.2175E+02  0.2175E+02
      7.824  0.1168E+01  0.1165E+01  0.2198E+02  0.2197E+02
      8.019  0.1559E+01  0.1560E+01  0.2228E+02  0.2228E+02
      8.213  0.1931E+01  0.1931E+01  0.2266E+02  0.2265E+02
      8.407  0.2865E+01  0.2857E+01  0.2321E+02  0.2321E+02
      8.601  0.3214E+01  0.3263E+01  0.2384E+02  0.2385E+02
      8.796  0.3788E+01  0.3745E+01  0.2458E+02  0.2458E+02
      8.990  0.3363E+01  0.3368E+01  0.2524E+02  0.2523E+02
      9.184  0.3435E+01  0.3500E+01  0.2591E+02  0.2592E+02
      9.379  0.3505E+01  0.3593E+01  0.2659E+02  0.2662E+02
      9.573  0.3068E+01  0.3085E+01  0.2719E+02  0.2722E+02
      9.767  0.2182E+01  0.2148E+01  0.2761E+02  0.2764E+02
      9.961  0.1327E+01  0.1152E+01  0.2787E+02  0.2786E+02
     10.156  0.4273E+00  0.4633E+00  0.2796E+02  0.2796E+02
     10.350  0.8236E-01  0.1407E+00  0.2798E+02  0.2798E+02
     10.544  0.5820E-01  0.7560E-01  0.2799E+02  0.2800E+02
     10.739  0.5754E-01  0.2135E-02  0.2800E+02  0.2800E+02
     10.933  0.5295E-02  0.0000E+00  0.2800E+02  0.2800E+02
     11.127  0.0000E+00  0.0000E+00  0.2800E+02  0.2800E+02
     11.321  0.0000E+00  0.0000E+00  0.2800E+02  0.2800E+02
     11.516  0.0000E+00  0.0000E+00  0.2800E+02  0.2800E+02
     11.710  0.0000E+00  0.0000E+00  0.2800E+02  0.2800E+02
     11.904  0.0000E+00  0.0000E+00  0.2800E+02  0.2800E+02
     12.099  0.0000E+00  0.0000E+00  0.2800E+02  0.2800E+02
     12.293  0.0000E+00  0.0000E+00  0.2800E+02  0.2800E+02
     12.487  0.0000E+00  0.0000E+00  0.2800E+02  0.2800E+02
     12.681  0.0000E+00  0.0000E+00  0.2800E+02  0.2800E+02
     12.876  0.0000E+00  0.0000E+00  0.2800E+02  0.2800E+02
     13.070  0.0000E+00  0.0000E+00  0.2800E+02  0.2800E+02
     13.264  0.0000E+00  0.0000E+00  0.2800E+02  0.2800E+02
     13.26422114    -45.02028755  301      6.50983702      1.00000000
    -45.020  0.0000E+00  0.0000E+00  0.0000E+00  0.0000E+00  0.0000E+00  0.0000E+00  0.0000E+00  0.0000E+00  0.0000E+00  0.0000E+00  0.0000E+00  0.0000E+00  0.0000E+00  0.0000E+00  0.0000E+00  0.0000E+00  0.0000E+00  0.0000E+00
    -44.826  0.0000E+00  0.0000E+00  0.0000E+00  0.0000E+00  0.0000E+00  0.0000E+00  0.0000E+00  0.0000E+00  0.0000E+00  0.0000E+00  0.0000E+00  0.0000E+00  0.0000E+00  0.0000E+00  0.0000E+00  0.0000E+00  0.0000E+00  0.0000E+00
    -44.632  0.0000E+00  0.0000E+00  0.0000E+00  0.0000E+00  0.0000E+00  0.0000E+00  0.0000E+00  0.0000E+00  0.0000E+00  0.0000E+00  0.0000E+00  0.0000E+00  0.0000E+00  0.0000E+00  0.0000E+00  0.0000E+00  0.0000E+00  0.0000E+00
    -44.437  0.0000E+00  0.0000E+00  0.0000E+00  0.0000E+00  0.0000E+00  0.0000E+00  0.0000E+00  0.0000E+00  0.0000E+00  0.0000E+00  0.0000E+00  0.0000E+00  0.0000E+00  0.0000E+00  0.0000E+00  0.0000E+00  0.0000E+00  0.0000E+00
    -44.243  0.0000E+00  0.0000E+00  0.0000E+00  0.0000E+00  0.0000E+00  0.0000E+00  0.0000E+00  0.0000E+00  0.0000E+00  0.0000E+00  0.0000E+00  0.0000E+00  0.0000E+00  0.0000E+00  0.0000E+00  0.0000E+00  0.0000E+00  0.0000E+00
    -44.049  0.0000E+00  0.0000E+00  0.0000E+00  0.0000E+00  0.0000E+00  0.0000E+00  0.0000E+00  0.0000E+00  0.0000E+00  0.0000E+00  0.0000E+00  0.0000E+00  0.0000E+00  0.0000E+00  0.0000E+00  0.0000E+00  0.0000E+00  0.0000E+00
    -43.855  0.0000E+00  0.0000E+00  0.0000E+00  0.0000E+00  0.0000E+00  0.0000E+00  0.0000E+00  0.0000E+00  0.0000E+00  0.0000E+00  0.0000E+00  0.0000E+00  0.0000E+00  0.0000E+00  0.0000E+00  0.0000E+00  0.0000E+00  0.0000E+00
    -43.660  0.0000E+00  0.0000E+00  0.0000E+00  0.0000E+00  0.0000E+00  0.0000E+00  0.0000E+00  0.0000E+00  0.0000E+00  0.0000E+00  0.0000E+00  0.0000E+00  0.0000E+00  0.0000E+00  0.0000E+00  0.0000E+00  0.0000E+00  0.0000E+00
    -43.466  0.0000E+00  0.0000E+00  0.0000E+00  0.0000E+00  0.0000E+00  0.0000E+00  0.0000E+00  0.0000E+00  0.0000E+00  0.0000E+00  0.0000E+00  0.0000E+00  0.0000E+00  0.0000E+00  0.0000E+00  0.0000E+00  0.0000E+00  0.0000E+00
    -43.272  0.0000E+00  0.0000E+00  0.0000E+00  0.0000E+00  0.0000E+00  0.0000E+00  0.0000E+00  0.0000E+00  0.0000E+00  0.0000E+00  0.0000E+00  0.0000E+00  0.0000E+00  0.0000E+00  0.0000E+00  0.0000E+00  0.0000E+00  0.0000E+00
    -43.077  0.0000E+00  0.0000E+00  0.0000E+00  0.0000E+00  0.0000E+00  0.0000E+00  0.0000E+00  0.0000E+00  0.0000E+00  0.0000E+00  0.0000E+00  0.0000E+00  0.0000E+00  0.0000E+00  0.0000E+00  0.0000E+00  0.0000E+00  0.0000E+00
    -42.883  0.1768E-03  0.1635E-03  0.7298E-12  0.6762E-12  0.6009E-15  0.1004E-14  0.7298E-12  0.6762E-12  0.2185E-13  0.1043E-13  0.1715E-13  0.1052E-13  0.1696E-10  0.1619E-10  0.1715E-13  0.1052E-13  0.5430E-12  0.4735E-12
    -42.689  0.8421E-02  0.7786E-02  0.3475E-10  0.3221E-10  0.2861E-13  0.4779E-13  0.3475E-10  0.3221E-10  0.1040E-11  0.4967E-12  0.8166E-12  0.5008E-12  0.8075E-09  0.7712E-09  0.8166E-12  0.5008E-12  0.2586E-10  0.2255E-10
    -42.495  0.3791E+00  0.3525E+00  0.1564E-08  0.1458E-08  0.1287E-11  0.2162E-11  0.1564E-08  0.1458E-08  0.4685E-10  0.2249E-10  0.3676E-10  0.2266E-10  0.3634E-07  0.3491E-07  0.3676E-10  0.2266E-10  0.1164E-08  0.1021E-08
    -42.300  0.3710E+01  0.3671E+01  0.1531E-07  0.1518E-07  0.1246E-10  0.2227E-10  0.1531E-07  0.1518E-07  0.4600E-09  0.2344E-09  0.3594E-09  0.2351E-09  0.3551E-06  0.3629E-06  0.3594E-09  0.2351E-09  0.1140E-07  0.1064E-07
    -42.106  0.1003E+01  0.1067E+01  0.4134E-08  0.4409E-08  0.3326E-11  0.6388E-11  0.4134E-08  0.4409E-08  0.1247E-09  0.6813E-10  0.9700E-10  0.6798E-10  0.9575E-07  0.1052E-06  0.9700E-10  0.6798E-10  0.3083E-08  0.3091E-08
    -41.912  0.0000E+00  0.0000E+00  0.0000E+00  0.0000E+00  0.0000E+00  0.0000E+00  0.0000E+00  0.0000E+00  0.0000E+00  0.0000E+00  0.0000E+00  0.0000E+00  0.0000E+00  0.0000E+00  0.0000E+00  0.0000E+00  0.0000E+00  0.0000E+00
    -41.717  0.0000E+00  0.0000E+00  0.0000E+00  0.0000E+00  0.0000E+00  0.0000E+00  0.0000E+00  0.0000E+00  0.0000E+00  0.0000E+00  0.0000E+00  0.0000E+00  0.0000E+00  0.0000E+00  0.0000E+00  0.0000E+00  0.0000E+00  0.0000E+00
    -41.523  0.0000E+00  0.0000E+00  0.0000E+00  0.0000E+00  0.0000E+00  0.0000E+00  0.0000E+00  0.0000E+00  0.0000E+00  0.0000E+00  0.0000E+00  0.0000E+00  0.0000E+00  0.0000E+00  0.0000E+00  0.0000E+00  0.0000E+00  0.0000E+00
    -41.329  0.0000E+00  0.0000E+00  0.0000E+00  0.0000E+00  0.0000E+00  0.0000E+00  0.0000E+00  0.0000E+00  0.0000E+00  0.0000E+00  0.0000E+00  0.0000E+00  0.0000E+00  0.0000E+00  0.0000E+00  0.0000E+00  0.0000E+00  0.0000E+00
    -41.135  0.0000E+00  0.0000E+00  0.0000E+00  0.0000E+00  0.0000E+00  0.0000E+00  0.0000E+00  0.0000E+00  0.0000E+00  0.0000E+00  0.0000E+00  0.0000E+00  0.0000E+00  0.0000E+00  0.0000E+00  0.0000E+00  0.0000E+00  0.0000E+00
    -40.940  0.0000E+00  0.0000E+00  0.0000E+00  0.0000E+00  0.0000E+00  0.0000E+00  0.0000E+00  0.0000E+00  0.0000E+00  0.0000E+00  0.0000E+00  0.0000E+00  0.0000E+00  0.0000E+00  0.0000E+00  0.0000E+00  0.0000E+00  0.0000E+00
    -40.746  0.0000E+00  0.0000E+00  0.0000E+00  0.0000E+00  0.0000E+00  0.0000E+00  0.0000E+00  0.0000E+00  0.0000E+00  0.0000E+00  0.0000E+00  0.0000E+00  0.0000E+00  0.0000E+00  0.0000E+00  0.0000E+00  0.0000E+00  0.0000E+00
    -40.552  0.0000E+00  0.0000E+00  0.0000E+00  0.0000E+00  0.0000E+00  0.0000E+00  0.0000E+00  0.0000E+00  0.0000E+00  0.0000E+00  0.0000E+00  0.0000E+00  0.0000E+00  0.0000E+00  0.0000E+00  0.0000E+00  0.0000E+00  0.0000E+00
    -40.358  0.0000E+00  0.0000E+00  0.0000E+00  0.0000E+00  0.0000E+00  0.0000E+00  0.0000E+00  0.0000E+00  0.0000E+00  0.0000E+00  0.0000E+00  0.0000E+00  0.0000E+00  0.0000E+00  0.0000E+00  0.0000E+00  0.0000E+00  0.0000E+00
    -40.163  0.0000E+00  0.0000E+00  0.0000E+00  0.0000E+00  0.0000E+00  0.0000E+00  0.0000E+00  0.0000E+00  0.0000E+00  0.0000E+00  0.0000E+00  0.0000E+00  0.0000E+00  0.0000E+00  0.0000E+00  0.0000E+00  0.0000E+00  0.0000E+00
    -39.969  0.0000E+00  0.0000E+00  0.0000E+00  0.0000E+00  0.0000E+00  0.0000E+00  0.0000E+00  0.0000E+00  0.0000E+00  0.0000E+00  0.0000E+00  0.0000E+00  0.0000E+00  0.0000E+00  0.0000E+00  0.0000E+00  0.0000E+00  0.0000E+00
    -39.775  0.0000E+00  0.0000E+00  0.0000E+00  0.0000E+00  0.0000E+00  0.0000E+00  0.0000E+00  0.0000E+00  0.0000E+00  0.0000E+00  0.0000E+00  0.0000E+00  0.0000E+00  0.0000E+00  0.0000E+00  0.0000E+00  0.0000E+00  0.0000E+00
    -39.580  0.0000E+00  0.0000E+00  0.0000E+00  0.0000E+00  0.0000E+00  0.0000E+00  0.0000E+00  0.0000E+00  0.0000E+00  0.0000E+00  0.0000E+00  0.0000E+00  0.0000E+00  0.0000E+00  0.0000E+00  0.0000E+00  0.0000E+00  0.0000E+00
    -39.386  0.0000E+00  0.0000E+00  0.0000E+00  0.0000E+00  0.0000E+00  0.0000E+00  0.0000E+00  0.0000E+00  0.0000E+00  0.0000E+00  0.0000E+00  0.0000E+00  0.0000E+00  0.0000E+00  0.0000E+00  0.0000E+00  0.0000E+00  0.0000E+00
    -39.192  0.0000E+00  0.0000E+00  0.0000E+00  0.0000E+00  0.0000E+00  0.0000E+00  0.0000E+00  0.0000E+00  0.0000E+00  0.0000E+00  0.0000E+00  0.0000E+00  0.0000E+00  0.0000E+00  0.0000E+00  0.0000E+00  0.0000E+00  0.0000E+00
    -38.998  0.0000E+00  0.0000E+00  0.0000E+00  0.0000E+00  0.0000E+00  0.0000E+00  0.0000E+00  0.0000E+00  0.0000E+00  0.0000E+00  0.0000E+00  0.0000E+00  0.0000E+00  0.0000E+00  0.0000E+00  0.0000E+00  0.0000E+00  0.0000E+00
    -38.803  0.0000E+00  0.0000E+00  0.0000E+00  0.0000E+00  0.0000E+00  0.0000E+00  0.0000E+00  0.0000E+00  0.0000E+00  0.0000E+00  0.0000E+00  0.0000E+00  0.0000E+00  0.0000E+00  0.0000E+00  0.0000E+00  0.0000E+00  0.0000E+00
    -38.609  0.0000E+00  0.0000E+00  0.0000E+00  0.0000E+00  0.0000E+00  0.0000E+00  0.0000E+00  0.0000E+00  0.0000E+00  0.0000E+00  0.0000E+00  0.0000E+00  0.0000E+00  0.0000E+00  0.0000E+00  0.0000E+00  0.0000E+00  0.0000E+00
    -38.415  0.0000E+00  0.0000E+00  0.0000E+00  0.0000E+00  0.0000E+00  0.0000E+00  0.0000E+00  0.0000E+00  0.0000E+00  0.0000E+00  0.0000E+00  0.0000E+00  0.0000E+00  0.0000E+00  0.0000E+00  0.0000E+00  0.0000E+00  0.0000E+00
    -38.220  0.0000E+00  0.0000E+00  0.0000E+00  0.0000E+00  0.0000E+00  0.0000E+00  0.0000E+00  0.0000E+00  0.0000E+00  0.0000E+00  0.0000E+00  0.0000E+00  0.0000E+00  0.0000E+00  0.0000E+00  0.0000E+00  0.0000E+00  0.0000E+00
    -38.026  0.0000E+00  0.0000E+00  0.0000E+00  0.0000E+00  0.0000E+00  0.0000E+00  0.0000E+00  0.0000E+00  0.0000E+00  0.0000E+00  0.0000E+00  0.0000E+00  0.0000E+00  0.0000E+00  0.0000E+00  0.0000E+00  0.0000E+00  0.0000E+00
    -37.832  0.0000E+00  0.0000E+00  0.0000E+00  0.0000E+00  0.0000E+00  0.0000E+00  0.0000E+00  0.0000E+00  0.0000E+00  0.0000E+00  0.0000E+00  0.0000E+00  0.0000E+00  0.0000E+00  0.0000E+00  0.0000E+00  0.0000E+00  0.0000E+00
    -37.638  0.0000E+00  0.0000E+00  0.0000E+00  0.0000E+00  0.0000E+00  0.0000E+00  0.0000E+00  0.0000E+00  0.0000E+00  0.0000E+00  0.0000E+00  0.0000E+00  0.0000E+00  0.0000E+00  0.0000E+00  0.0000E+00  0.0000E+00  0.0000E+00
    -37.443  0.0000E+00  0.0000E+00  0.0000E+00  0.0000E+00  0.0000E+00  0.0000E+00  0.0000E+00  0.0000E+00  0.0000E+00  0.0000E+00  0.0000E+00  0.0000E+00  0.0000E+00  0.0000E+00  0.0000E+00  0.0000E+00  0.0000E+00  0.0000E+00
    -37.249  0.0000E+00  0.0000E+00  0.0000E+00  0.0000E+00  0.0000E+00  0.0000E+00  0.0000E+00  0.0000E+00  0.0000E+00  0.0000E+00  0.0000E+00  0.0000E+00  0.0000E+00  0.0000E+00  0.0000E+00  0.0000E+00  0.0000E+00  0.0000E+00
    -37.055  0.0000E+00  0.0000E+00  0.0000E+00  0.0000E+00  0.0000E+00  0.0000E+00  0.0000E+00  0.0000E+00  0.0000E+00  0.0000E+00  0.0000E+00  0.0000E+00  0.0000E+00  0.0000E+00  0.0000E+00  0.0000E+00  0.0000E+00  0.0000E+00
    -36.860  0.0000E+00  0.0000E+00  0.0000E+00  0.0000E+00  0.0000E+00  0.0000E+00  0.0000E+00  0.0000E+00  0.0000E+00  0.0000E+00  0.0000E+00  0.0000E+00  0.0000E+00  0.0000E+00  0.0000E+00  0.0000E+00  0.0000E+00  0.0000E+00
    -36.666  0.0000E+00  0.0000E+00  0.0000E+00  0.0000E+00  0.0000E+00  0.0000E+00  0.0000E+00  0.0000E+00  0.0000E+00  0.0000E+00  0.0000E+00  0.0000E+00  0.0000E+00  0.0000E+00  0.0000E+00  0.0000E+00  0.0000E+00  0.0000E+00
    -36.472  0.0000E+00  0.0000E+00  0.0000E+00  0.0000E+00  0.0000E+00  0.0000E+00  0.0000E+00  0.0000E+00  0.0000E+00  0.0000E+00  0.0000E+00  0.0000E+00  0.0000E+00  0.0000E+00  0.0000E+00  0.0000E+00  0.0000E+00  0.0000E+00
    -36.278  0.0000E+00  0.0000E+00  0.0000E+00  0.0000E+00  0.0000E+00  0.0000E+00  0.0000E+00  0.0000E+00  0.0000E+00  0.0000E+00  0.0000E+00  0.0000E+00  0.0000E+00  0.0000E+00  0.0000E+00  0.0000E+00  0.0000E+00  0.0000E+00
    -36.083  0.0000E+00  0.0000E+00  0.0000E+00  0.0000E+00  0.0000E+00  0.0000E+00  0.0000E+00  0.0000E+00  0.0000E+00  0.0000E+00  0.0000E+00  0.0000E+00  0.0000E+00  0.0000E+00  0.0000E+00  0.0000E+00  0.0000E+00  0.0000E+00
    -35.889  0.0000E+00  0.0000E+00  0.0000E+00  0.0000E+00  0.0000E+00  0.0000E+00  0.0000E+00  0.0000E+00  0.0000E+00  0.0000E+00  0.0000E+00  0.0000E+00  0.0000E+00  0.0000E+00  0.0000E+00  0.0000E+00  0.0000E+00  0.0000E+00
    -35.695  0.0000E+00  0.0000E+00  0.0000E+00  0.0000E+00  0.0000E+00  0.0000E+00  0.0000E+00  0.0000E+00  0.0000E+00  0.0000E+00  0.0000E+00  0.0000E+00  0.0000E+00  0.0000E+00  0.0000E+00  0.0000E+00  0.0000E+00  0.0000E+00
    -35.500  0.0000E+00  0.0000E+00  0.0000E+00  0.0000E+00  0.0000E+00  0.0000E+00  0.0000E+00  0.0000E+00  0.0000E+00  0.0000E+00  0.0000E+00  0.0000E+00  0.0000E+00  0.0000E+00  0.0000E+00  0.0000E+00  0.0000E+00  0.0000E+00
    -35.306  0.0000E+00  0.0000E+00  0.0000E+00  0.0000E+00  0.0000E+00  0.0000E+00  0.0000E+00  0.0000E+00  0.0000E+00  0.0000E+00  0.0000E+00  0.0000E+00  0.0000E+00  0.0000E+00  0.0000E+00  0.0000E+00  0.0000E+00  0.0000E+00