   8   8   1   0
  0.1530340E+02  0.3821978E-09  0.3821978E-09  0.8381113E-09  0.5000000E-15
  1.000000000000000E-004
  CAR 
 unknown system                          
     15.07343273    -43.05509160  301      7.87304858      1.00000000
    -43.055  0.0000E+00  0.0000E+00  0.0000E+00  0.0000E+00
    -42.861  0.0000E+00  0.0000E+00  0.0000E+00  0.0000E+00
    -42.668  0.0000E+00  0.0000E+00  0.0000E+00  0.0000E+00
    -42.474  0.0000E+00  0.0000E+00  0.0000E+00  0.0000E+00
    -42.280  0.0000E+00  0.0000E+00  0.0000E+00  0.0000E+00
    -42.086  0.0000E+00  0.0000E+00  0.0000E+00  0.0000E+00
    -41.893  0.0000E+00  0.0000E+00  0.0000E+00  0.0000E+00
    -41.699  0.0000E+00  0.0000E+00  0.0000E+00  0.0000E+00
    -41.505  0.0000E+00  0.0000E+00  0.0000E+00  0.0000E+00
    -41.311  0.0000E+00  0.0000E+00  0.0000E+00  0.0000E+00
    -41.117  0.0000E+00  0.0000E+00  0.0000E+00  0.0000E+00
    -40.924  0.3511E-03  0.3287E-03  0.6803E-04  0.6369E-04
    -40.730  0.1654E-01  0.1549E-01  0.3273E-02  0.3065E-02
    -40.536  0.7388E+00  0.6950E+00  0.1464E+00  0.1377E+00
    -40.342  0.7418E+01  0.7348E+01  0.1584E+01  0.1562E+01
    -40.149  0.2093E+01  0.2203E+01  0.1989E+01  0.1988E+01
    -39.955  0.0000E+00  0.0000E+00  0.2000E+01  0.2000E+01
    -39.761  0.0000E+00  0.0000E+00  0.2000E+01  0.2000E+01
    -39.567  0.0000E+00  0.0000E+00  0.2000E+01  0.2000E+01
    -39.374  0.0000E+00  0.0000E+00  0.2000E+01  0.2000E+01
    -39.180  0.0000E+00  0.0000E+00  0.2000E+01  0.2000E+01
    -38.986  0.0000E+00  0.0000E+00  0.2000E+01  0.2000E+01
    -38.792  0.0000E+00  0.0000E+00  0.2000E+01  0.2000E+01
    -38.599  0.0000E+00  0.0000E+00  0.2000E+01  0.2000E+01
    -38.405  0.0000E+00  0.0000E+00  0.2000E+01  0.2000E+01
    -38.211  0.0000E+00  0.0000E+00  0.2000E+01  0.2000E+01
    -38.017  0.0000E+00  0.0000E+00  0.2000E+01  0.2000E+01
    -37.824  0.0000E+00  0.0000E+00  0.2000E+01  0.2000E+01
    -37.630  0.0000E+00  0.0000E+00  0.2000E+01  0.2000E+01
    -37.436  0.0000E+00  0.0000E+00  0.2000E+01  0.2000E+01
    -37.242  0.0000E+00  0.0000E+00  0.2000E+01  0.2000E+01
    -37.048  0.0000E+00  0.0000E+00  0.2000E+01  0.2000E+01
    -36.855  0.0000E+00  0.0000E+00  0.2000E+01  0.2000E+01
    -36.661  0.0000E+00  0.0000E+00  0.2000E+01  0.2000E+01
    -36.467  0.0000E+00  0.0000E+00  0.2000E+01  0.2000E+01
    -36.273  0.0000E+00  0.0000E+00  0.2000E+01  0.2000E+01
    -36.080  0.0000E+00  0.0000E+00  0.2000E+01  0.2000E+01
    -35.886  0.0000E+00  0.0000E+00  0.2000E+01  0.2000E+01
    -35.692  0.0000E+00  0.0000E+00  0.2000E+01  0.2000E+01
    -35.498  0.0000E+00  0.0000E+00  0.2000E+01  0.2000E+01
    -35.305  0.0000E+00  0.0000E+00  0.2000E+01  0.2000E+01
    -35.111  0.0000E+00  0.0000E+00  0.2000E+01  0.2000E+01
    -34.917  0.0000E+00  0.0000E+00  0.2000E+01  0.2000E+01
    -34.723  0.0000E+00  0.0000E+00  0.2000E+01  0.2000E+01
    -34.530  0.0000E+00  0.0000E+00  0.2000E+01  0.2000E+01
    -34.336  0.0000E+00  0.0000E+00  0.2000E+01  0.2000E+01
    -34.142  0.0000E+00  0.0000E+00  0.2000E+01  0.2000E+01
    -33.948  0.0000E+00  0.0000E+00  0.2000E+01  0.2000E+01
    -33.755  0.0000E+00  0.0000E+00  0.2000E+01  0.2000E+01
    -33.561  0.0000E+00  0.0000E+00  0.2000E+01  0.2000E+01
    -33.367  0.0000E+00  0.0000E+00  0.2000E+01  0.2000E+01
    -33.173  0.0000E+00  0.0000E+00  0.2000E+01  0.2000E+01
    -32.979  0.0000E+00  0.0000E+00  0.2000E+01  0.2000E+01
    -32.786  0.0000E+00  0.0000E+00  0.2000E+01  0.2000E+01
    -32.592  0.0000E+00  0.0000E+00  0.2000E+01  0.2000E+01
    -32.398  0.0000E+00  0.0000E+00  0.2000E+01  0.2000E+01
    -32.204  0.0000E+00  0.0000E+00  0.2000E+01  0.2000E+01
    -32.011  0.0000E+00  0.0000E+00  0.2000E+01  0.2000E+01
    -31.817  0.0000E+00  0.0000E+00  0.2000E+01  0.2000E+01
    -31.623  0.0000E+00  0.0000E+00  0.2000E+01  0.2000E+01
    -31.429  0.0000E+00  0.0000E+00  0.2000E+01  0.2000E+01
    -31.236  0.0000E+00  0.0000E+00  0.2000E+01  0.2000E+01
    -31.042  0.0000E+00  0.0000E+00  0.2000E+01  0.2000E+01
    -30.848  0.0000E+00  0.0000E+00  0.2000E+01  0.2000E+01
    -30.654  0.0000E+00  0.0000E+00  0.2000E+01  0.2000E+01
    -30.461  0.0000E+00  0.0000E+00  0.2000E+01  0.2000E+01
    -30.267  0.0000E+00  0.0000E+00  0.2000E+01  0.2000E+01
    -30.073  0.0000E+00  0.0000E+00  0.2000E+01  0.2000E+01
    -29.879  0.0000E+00  0.0000E+00  0.2000E+01  0.2000E+01
    -29.686  0.0000E+00  0.0000E+00  0.2000E+01  0.2000E+01
    -29.492  0.0000E+00  0.0000E+00  0.2000E+01  0.2000E+01
    -29.298  0.0000E+00  0.0000E+00  0.2000E+01  0.2000E+01
    -29.104  0.0000E+00  0.0000E+00  0.2000E+01  0.2000E+01
    -28.910  0.0000E+00  0.0000E+00  0.2000E+01  0.2000E+01
    -28.717  0.0000E+00  0.0000E+00  0.2000E+01  0.2000E+01
    -28.523  0.0000E+00  0.0000E+00  0.2000E+01  0.2000E+01
    -28.329  0.0000E+00  0.0000E+00  0.2000E+01  0.2000E+01
    -28.135  0.0000E+00  0.0000E+00  0.2000E+01  0.2000E+01
    -27.942  0.0000E+00  0.0000E+00  0.2000E+01  0.2000E+01
    -27.748  0.0000E+00  0.0000E+00  0.2000E+01  0.2000E+01
    -27.554  0.0000E+00  0.0000E+00  0.2000E+01  0.2000E+01
    -27.360  0.0000E+00  0.0000E+00  0.2000E+01  0.2000E+01
    -27.167  0.0000E+00  0.0000E+00  0.2000E+01  0.2000E+01
    -26.973  0.0000E+00  0.0000E+00  0.2000E+01  0.2000E+01
    -26.779  0.0000E+00  0.0000E+00  0.2000E+01  0.2000E+01
    -26.585  0.0000E+00  0.0000E+00  0.2000E+01  0.2000E+01
    -26.392  0.0000E+00  0.0000E+00  0.2000E+01  0.2000E+01
    -26.198  0.0000E+00  0.0000E+00  0.2000E+01  0.2000E+01
    -26.004  0.0000E+00  0.0000E+00  0.2000E+01  0.2000E+01
    -25.810  0.0000E+00  0.0000E+00  0.2000E+01  0.2000E+01
    -25.617  0.0000E+00  0.0000E+00  0.2000E+01  0.2000E+01
    -25.423  0.0000E+00  0.0000E+00  0.2000E+01  0.2000E+01
    -25.229  0.0000E+00  0.0000E+00  0.2000E+01  0.2000E+01
    -25.035  0.0000E+00  0.0000E+00  0.2000E+01  0.2000E+01
    -24.841  0.0000E+00  0.0000E+00  0.2000E+01  0.2000E+01
    -24.648  0.0000E+00  0.0000E+00  0.2000E+01  0.2000E+01
    -24.454  0.0000E+00  0.0000E+00  0.2000E+01  0.2000E+01
    -24.260  0.0000E+00  0.0000E+00  0.2000E+01  0.2000E+01
    -24.066  0.0000E+00  0.0000E+00  0.2000E+01  0.2000E+01
    -23.873  0.0000E+00  0.0000E+00  0.2000E+01  0.2000E+01
    -23.679  0.0000E+00  0.0000E+00  0.2000E+01  0.2000E+01
    -23.485  0.0000E+00  0.0000E+00  0.2000E+01  0.2000E+01
    -23.291  0.0000E+00  0.0000E+00  0.2000E+01  0.2000E+01
    -23.098  0.0000E+00  0.0000E+00  0.2000E+01  0.2000E+01
    -22.904  0.0000E+00  0.0000E+00  0.2000E+01  0.2000E+01
    -22.710  0.0000E+00  0.0000E+00  0.2000E+01  0.2000E+01
    -22.516  0.0000E+00  0.0000E+00  0.2000E+01  0.2000E+01
    -22.323  0.0000E+00  0.0000E+00  0.2000E+01  0.2000E+01
    -22.129  0.0000E+00  0.0000E+00  0.2000E+01  0.2000E+01
    -21.935  0.0000E+00  0.0000E+00  0.2000E+01  0.2000E+01
    -21.741  0.0000E+00  0.0000E+00  0.2000E+01  0.2000E+01
    -21.548  0.0000E+00  0.0000E+00  0.2000E+01  0.2000E+01
    -21.354  0.0000E+00  0.0000E+00  0.2000E+01  0.2000E+01
    -21.160  0.0000E+00  0.0000E+00  0.2000E+01  0.2000E+01
    -20.966  0.0000E+00  0.0000E+00  0.2000E+01  0.2000E+01
    -20.772  0.0000E+00  0.0000E+00  0.2000E+01  0.2000E+01
    -20.579  0.0000E+00  0.0000E+00  0.2000E+01  0.2000E+01
    -20.385  0.0000E+00  0.0000E+00  0.2000E+01  0.2000E+01
    -20.191  0.0000E+00  0.0000E+00  0.2000E+01  0.2000E+01
    -19.997  0.0000E+00  0.0000E+00  0.2000E+01  0.2000E+01
    -19.804  0.1159E-04  0.5252E-05  0.2000E+01  0.2000E+01
    -19.610  0.5881E-02  0.5510E-02  0.2001E+01  0.2001E+01
    -19.416  0.2752E+00  0.2578E+00  0.2054E+01  0.2051E+01
    -19.222  0.8921E+01  0.8527E+01  0.3783E+01  0.3703E+01
    -19.029  0.2017E+02  0.2048E+02  0.7691E+01  0.7672E+01
    -18.835  0.1558E+01  0.1658E+01  0.7993E+01  0.7993E+01
    -18.641  0.0000E+00  0.0000E+00  0.8000E+01  0.8000E+01
    -18.447  0.0000E+00  0.0000E+00  0.8000E+01  0.8000E+01
    -18.254  0.0000E+00  0.0000E+00  0.8000E+01  0.8000E+01
    -18.060  0.0000E+00  0.0000E+00  0.8000E+01  0.8000E+01
    -17.866  0.0000E+00  0.0000E+00  0.8000E+01  0.8000E+01
    -17.672  0.0000E+00  0.0000E+00  0.8000E+01  0.8000E+01
    -17.479  0.0000E+00  0.0000E+00  0.8000E+01  0.8000E+01
    -17.285  0.0000E+00  0.0000E+00  0.8000E+01  0.8000E+01
    -17.091  0.0000E+00  0.0000E+00  0.8000E+01  0.8000E+01
    -16.897  0.0000E+00  0.0000E+00  0.8000E+01  0.8000E+01
    -16.703  0.0000E+00  0.0000E+00  0.8000E+01  0.8000E+01
    -16.510  0.0000E+00  0.0000E+00  0.8000E+01  0.8000E+01
    -16.316  0.0000E+00  0.0000E+00  0.8000E+01  0.8000E+01
    -16.122  0.0000E+00  0.0000E+00  0.8000E+01  0.8000E+01
    -15.928  0.0000E+00  0.0000E+00  0.8000E+01  0.8000E+01
    -15.735  0.0000E+00  0.0000E+00  0.8000E+01  0.8000E+01
    -15.541  0.0000E+00  0.0000E+00  0.8000E+01  0.8000E+01
    -15.347  0.0000E+00  0.0000E+00  0.8000E+01  0.8000E+01
    -15.153  0.0000E+00  0.0000E+00  0.8000E+01  0.8000E+01
    -14.960  0.0000E+00  0.0000E+00  0.8000E+01  0.8000E+01
    -14.766  0.0000E+00  0.0000E+00  0.8000E+01  0.8000E+01
    -14.572  0.0000E+00  0.0000E+00  0.8000E+01  0.8000E+01
    -14.378  0.0000E+00  0.0000E+00  0.8000E+01  0.8000E+01
    -14.185  0.0000E+00  0.0000E+00  0.8000E+01  0.8000E+01
    -13.991  0.0000E+00  0.0000E+00  0.8000E+01  0.8000E+01
    -13.797  0.0000E+00  0.0000E+00  0.8000E+01  0.8000E+01
    -13.603  0.0000E+00  0.0000E+00  0.8000E+01  0.8000E+01
    -13.410  0.0000E+00  0.0000E+00  0.8000E+01  0.8000E+01
    -13.216  0.0000E+00  0.0000E+00  0.8000E+01  0.8000E+01
    -13.022  0.0000E+00  0.0000E+00  0.8000E+01  0.8000E+01
    -12.828  0.0000E+00  0.0000E+00  0.8000E+01  0.8000E+01
    -12.634  0.0000E+00  0.0000E+00  0.8000E+01  0.8000E+01
    -12.441  0.0000E+00  0.0000E+00  0.8000E+01  0.8000E+01
    -12.247  0.0000E+00  0.0000E+00  0.8000E+01  0.8000E+01
    -12.053  0.0000E+00  0.0000E+00  0.8000E+01  0.8000E+01
    -11.859  0.0000E+00  0.0000E+00  0.8000E+01  0.8000E+01
    -11.666  0.0000E+00  0.0000E+00  0.8000E+01  0.8000E+01
    -11.472  0.0000E+00  0.0000E+00  0.8000E+01  0.8000E+01
    -11.278  0.0000E+00  0.0000E+00  0.8000E+01  0.8000E+01
    -11.084  0.0000E+00  0.0000E+00  0.8000E+01  0.8000E+01
    -10.891  0.0000E+00  0.0000E+00  0.8000E+01  0.8000E+01
    -10.697  0.0000E+00  0.0000E+00  0.8000E+01  0.8000E+01
    -10.503  0.0000E+00  0.0000E+00  0.8000E+01  0.8000E+01
    -10.309  0.0000E+00  0.0000E+00  0.8000E+01  0.8000E+01
    -10.116  0.0000E+00  0.0000E+00  0.8000E+01  0.8000E+01
     -9.922  0.0000E+00  0.0000E+00  0.8000E+01  0.8000E+01
     -9.728  0.0000E+00  0.0000E+00  0.8000E+01  0.8000E+01
     -9.534  0.0000E+00  0.0000E+00  0.8000E+01  0.8000E+01
     -9.341  0.0000E+00  0.0000E+00  0.8000E+01  0.8000E+01
     -9.147  0.0000E+00  0.0000E+00  0.8000E+01  0.8000E+01
     -8.953  0.0000E+00  0.0000E+00  0.8000E+01  0.8000E+01
     -8.759  0.0000E+00  0.0000E+00  0.8000E+01  0.8000E+01
     -8.566  0.0000E+00  0.0000E+00  0.8000E+01  0.8000E+01
     -8.372  0.0000E+00  0.0000E+00  0.8000E+01  0.8000E+01
     -8.178  0.0000E+00  0.0000E+00  0.8000E+01  0.8000E+01
     -7.984  0.0000E+00  0.0000E+00  0.8000E+01  0.8000E+01
     -7.790  0.0000E+00  0.0000E+00  0.8000E+01  0.8000E+01
     -7.597  0.0000E+00  0.0000E+00  0.8000E+01  0.8000E+01
     -7.403  0.0000E+00  0.0000E+00  0.8000E+01  0.8000E+01
     -7.209  0.0000E+00  0.0000E+00  0.8000E+01  0.8000E+01
     -7.015  0.0000E+00  0.0000E+00  0.8000E+01  0.8000E+01
     -6.822  0.0000E+00  0.0000E+00  0.8000E+01  0.8000E+01
     -6.628  0.0000E+00  0.0000E+00  0.8000E+01  0.8000E+01
     -6.434  0.0000E+00  0.0000E+00  0.8000E+01  0.8000E+01
     -6.240  0.0000E+00  0.0000E+00  0.8000E+01  0.8000E+01
     -6.047  0.0000E+00  0.0000E+00  0.8000E+01  0.8000E+01
     -5.853  0.0000E+00  0.0000E+00  0.8000E+01  0.8000E+01
     -5.659  0.0000E+00  0.0000E+00  0.8000E+01  0.8000E+01
     -5.465  0.0000E+00  0.0000E+00  0.8000E+01  0.8000E+01
     -5.272  0.0000E+00  0.0000E+00  0.8000E+01  0.8000E+01
     -5.078  0.0000E+00  0.0000E+00  0.8000E+01  0.8000E+01
     -4.884  0.0000E+00  0.0000E+00  0.8000E+01  0.8000E+01
     -4.690  0.0000E+00  0.0000E+00  0.8000E+01  0.8000E+01
     -4.497  0.0000E+00  0.0000E+00  0.8000E+01  0.8000E+01
     -4.303  0.0000E+00  0.0000E+00  0.8000E+01  0.8000E+01
     -4.109  0.0000E+00  0.0000E+00  0.8000E+01  0.8000E+01
     -3.915  0.0000E+00  0.0000E+00  0.8000E+01  0.8000E+01
     -3.721  0.0000E+00  0.0000E+00  0.8000E+01  0.8000E+01
     -3.528  0.0000E+00  0.0000E+00  0.8000E+01  0.8000E+01
     -3.334  0.0000E+00  0.0000E+00  0.8000E+01  0.8000E+01
     -3.140  0.0000E+00  0.0000E+00  0.8000E+01  0.8000E+01
     -2.946  0.0000E+00  0.0000E+00  0.8000E+01  0.8000E+01
     -2.753  0.1925E-05  0.1962E-05  0.8000E+01  0.8000E+01
     -2.559  0.1006E-03  0.1025E-03  0.8000E+01  0.8000E+01
     -2.365  0.4458E-02  0.4537E-02  0.8001E+01  0.8001E+01
     -2.171  0.6780E-01  0.6836E-01  0.8014E+01  0.8014E+01
     -1.978  0.1809E+00  0.1814E+00  0.8049E+01  0.8049E+01
     -1.784  0.2519E+00  0.2522E+00  0.8098E+01  0.8098E+01
     -1.590  0.3240E+00  0.3245E+00  0.8161E+01  0.8161E+01
     -1.396  0.3618E+00  0.3618E+00  0.8231E+01  0.8232E+01
     -1.203  0.4178E+00  0.4184E+00  0.8313E+01  0.8313E+01
     -1.009  0.5041E+00  0.5044E+00  0.8411E+01  0.8411E+01
     -0.815  0.4657E+00  0.4656E+00  0.8501E+01  0.8502E+01
     -0.621  0.6171E+00  0.6182E+00  0.8621E+01  0.8622E+01
     -0.428  0.6519E+00  0.6516E+00  0.8748E+01  0.8748E+01
     -0.234  0.6295E+00  0.6297E+00  0.8870E+01  0.8871E+01
     -0.040  0.6910E+00  0.6912E+00  0.9004E+01  0.9005E+01
      0.154  0.6930E+00  0.6937E+00  0.9139E+01  0.9140E+01
      0.348  0.7277E+00  0.7270E+00  0.9281E+01  0.9282E+01
      0.541  0.6753E+00  0.6759E+00  0.9413E+01  0.9413E+01
      0.735  0.8648E+00  0.8658E+00  0.9581E+01  0.9581E+01
      0.929  0.7836E+00  0.7827E+00  0.9733E+01  0.9734E+01
      1.123  0.8171E+00  0.8173E+00  0.9892E+01  0.9893E+01
      1.316  0.9689E+00  0.9704E+00  0.1008E+02  0.1008E+02
      1.510  0.1067E+01  0.1067E+01  0.1029E+02  0.1029E+02
      1.704  0.1038E+01  0.1039E+01  0.1049E+02  0.1049E+02
      1.898  0.1034E+01  0.1033E+01  0.1069E+02  0.1069E+02
      2.091  0.9630E+00  0.9610E+00  0.1088E+02  0.1088E+02
      2.285  0.7243E+00  0.7245E+00  0.1102E+02  0.1102E+02
      2.479  0.8715E+00  0.8717E+00  0.1119E+02  0.1119E+02
      2.673  0.7678E+00  0.7674E+00  0.1134E+02  0.1134E+02
      2.866  0.8517E+00  0.8521E+00  0.1150E+02  0.1150E+02
      3.060  0.1211E+01  0.1213E+01  0.1174E+02  0.1174E+02
      3.254  0.1216E+01  0.1214E+01  0.1197E+02  0.1198E+02
      3.448  0.1069E+01  0.1070E+01  0.1218E+02  0.1218E+02
      3.641  0.1217E+01  0.1218E+01  0.1242E+02  0.1242E+02
      3.835  0.1340E+01  0.1339E+01  0.1268E+02  0.1268E+02
      4.029  0.1051E+01  0.1051E+01  0.1289E+02  0.1289E+02
      4.223  0.1136E+01  0.1136E+01  0.1311E+02  0.1311E+02
      4.417  0.1242E+01  0.1243E+01  0.1335E+02  0.1335E+02
      4.610  0.1320E+01  0.1317E+01  0.1360E+02  0.1361E+02
      4.804  0.1250E+01  0.1251E+01  0.1385E+02  0.1385E+02
      4.998  0.1251E+01  0.1251E+01  0.1409E+02  0.1409E+02
      5.192  0.1324E+01  0.1325E+01  0.1435E+02  0.1435E+02
      5.385  0.1693E+01  0.1693E+01  0.1468E+02  0.1468E+02
      5.579  0.1653E+01  0.1653E+01  0.1500E+02  0.1500E+02
      5.773  0.1584E+01  0.1583E+01  0.1531E+02  0.1531E+02
      5.967  0.1434E+01  0.1435E+01  0.1559E+02  0.1559E+02
      6.160  0.2106E+01  0.2106E+01  0.1600E+02  0.1600E+02
      6.354  0.2299E+01  0.2297E+01  0.1644E+02  0.1644E+02
      6.548  0.1921E+01  0.1919E+01  0.1682E+02  0.1682E+02
      6.742  0.2355E+01  0.2354E+01  0.1727E+02  0.1727E+02
      6.935  0.2825E+01  0.2825E+01  0.1782E+02  0.1782E+02
      7.129  0.2787E+01  0.2782E+01  0.1837E+02  0.1836E+02
      7.323  0.2661E+01  0.2658E+01  0.1888E+02  0.1888E+02
      7.517  0.2147E+01  0.2147E+01  0.1930E+02  0.1930E+02
      7.710  0.2007E+01  0.2004E+01  0.1969E+02  0.1969E+02
      7.904  0.1899E+01  0.1898E+01  0.2006E+02  0.2006E+02
      8.098  0.2213E+01  0.2210E+01  0.2049E+02  0.2049E+02
      8.292  0.1711E+01  0.1715E+01  0.2083E+02  0.2082E+02
      8.486  0.1436E+01  0.1435E+01  0.2111E+02  0.2110E+02
      8.679  0.1196E+01  0.1200E+01  0.2134E+02  0.2134E+02
      8.873  0.9467E+00  0.9464E+00  0.2152E+02  0.2152E+02
      9.067  0.9022E+00  0.9024E+00  0.2170E+02  0.2170E+02
      9.261  0.8810E+00  0.8790E+00  0.2187E+02  0.2187E+02
      9.454  0.1138E+01  0.1138E+01  0.2209E+02  0.2209E+02
      9.648  0.1145E+01  0.1151E+01  0.2231E+02  0.2231E+02
      9.842  0.1717E+01  0.1717E+01  0.2265E+02  0.2265E+02
     10.036  0.2297E+01  0.2301E+01  0.2309E+02  0.2309E+02
     10.229  0.2578E+01  0.2590E+01  0.2359E+02  0.2360E+02
     10.423  0.3410E+01  0.3391E+01  0.2426E+02  0.2426E+02
     10.617  0.3067E+01  0.3074E+01  0.2485E+02  0.2485E+02
     10.811  0.2787E+01  0.2808E+01  0.2540E+02  0.2540E+02
     11.004  0.2948E+01  0.2945E+01  0.2597E+02  0.2597E+02
     11.198  0.2919E+01  0.2985E+01  0.2654E+02  0.2655E+02
     11.392  0.2988E+01  0.3076E+01  0.2712E+02  0.2715E+02
     11.586  0.2185E+01  0.2206E+01  0.2755E+02  0.2758E+02
     11.779  0.1267E+01  0.1144E+01  0.2779E+02  0.2781E+02
     11.973  0.6065E+00  0.5466E+00  0.2791E+02  0.2791E+02
     12.167  0.2870E+00  0.2999E+00  0.2797E+02  0.2797E+02
     12.361  0.8923E-01  0.1259E+00  0.2799E+02  0.2800E+02
     12.555  0.6438E-01  0.7134E-02  0.2800E+02  0.2800E+02
     12.748  0.5899E-02  0.0000E+00  0.2800E+02  0.2800E+02
     12.942  0.0000E+00  0.0000E+00  0.2800E+02  0.2800E+02
     13.136  0.0000E+00  0.0000E+00  0.2800E+02  0.2800E+02
     13.330  0.0000E+00  0.0000E+00  0.2800E+02  0.2800E+02
     13.523  0.0000E+00  0.0000E+00  0.2800E+02  0.2800E+02
     13.717  0.0000E+00  0.0000E+00  0.2800E+02  0.2800E+02
     13.911  0.0000E+00  0.0000E+00  0.2800E+02  0.2800E+02
     14.105  0.0000E+00  0.0000E+00  0.2800E+02  0.2800E+02
     14.298  0.0000E+00  0.0000E+00  0.2800E+02  0.2800E+02
     14.492  0.0000E+00  0.0000E+00  0.2800E+02  0.2800E+02
     14.686  0.0000E+00  0.0000E+00  0.2800E+02  0.2800E+02
     14.880  0.0000E+00  0.0000E+00  0.2800E+02  0.2800E+02
     15.073  0.0000E+00  0.0000E+00  0.2800E+02  0.2800E+02
     15.07343273    -43.05509160  301      7.87304858      1.00000000
    -43.055  0.0000E+00  0.0000E+00  0.0000E+00  0.0000E+00  0.0000E+00  0.0000E+00  0.0000E+00  0.0000E+00  0.0000E+00  0.0000E+00  0.0000E+00  0.0000E+00  0.0000E+00  0.0000E+00  0.0000E+00  0.0000E+00  0.0000E+00  0.0000E+00
    -42.861  0.0000E+00  0.0000E+00  0.0000E+00  0.0000E+00  0.0000E+00  0.0000E+00  0.0000E+00  0.0000E+00  0.0000E+00  0.0000E+00  0.0000E+00  0.0000E+00  0.0000E+00  0.0000E+00  0.0000E+00  0.0000E+00  0.0000E+00  0.0000E+00
    -42.668  0.0000E+00  0.0000E+00  0.0000E+00  0.0000E+00  0.0000E+00  0.0000E+00  0.0000E+00  0.0000E+00  0.0000E+00  0.0000E+00  0.0000E+00  0.0000E+00  0.0000E+00  0.0000E+00  0.0000E+00  0.0000E+00  0.0000E+00  0.0000E+00
    -42.474  0.0000E+00  0.0000E+00  0.0000E+00  0.0000E+00  0.0000E+00  0.0000E+00  0.0000E+00  0.0000E+00  0.0000E+00  0.0000E+00  0.0000E+00  0.0000E+00  0.0000E+00  0.0000E+00  0.0000E+00  0.0000E+00  0.0000E+00  0.0000E+00
    -42.280  0.0000E+00  0.0000E+00  0.0000E+00  0.0000E+00  0.0000E+00  0.0000E+00  0.0000E+00  0.0000E+00  0.0000E+00  0.0000E+00  0.0000E+00  0.0000E+00  0.0000E+00  0.0000E+00  0.0000E+00  0.0000E+00  0.0000E+00  0.0000E+00
    -42.086  0.0000E+00  0.0000E+00  0.0000E+00  0.0000E+00  0.0000E+00  0.0000E+00  0.0000E+00  0.0000E+00  0.0000E+00  0.0000E+00  0.0000E+00  0.0000E+00  0.0000E+00  0.0000E+00  0.0000E+00  0.0000E+00  0.0000E+00  0.0000E+00
    -41.893  0.0000E+00  0.0000E+00  0.0000E+00  0.0000E+00  0.0000E+00  0.0000E+00  0.0000E+00  0.0000E+00  0.0000E+00  0.0000E+00  0.0000E+00  0.0000E+00  0.0000E+00  0.0000E+00  0.0000E+00  0.0000E+00  0.0000E+00  0.0000E+00
    -41.699  0.0000E+00  0.0000E+00  0.0000E+00  0.0000E+00  0.0000E+00  0.0000E+00  0.0000E+00  0.0000E+00  0.0000E+00  0.0000E+00  0.0000E+00  0.0000E+00  0.0000E+00  0.0000E+00  0.0000E+00  0.0000E+00  0.0000E+00  0.0000E+00
    -41.505  0.0000E+00  0.0000E+00  0.0000E+00  0.0000E+00  0.0000E+00  0.0000E+00  0.0000E+00  0.0000E+00  0.0000E+00  0.0000E+00  0.0000E+00  0.0000E+00  0.0000E+00  0.0000E+00  0.0000E+00  0.0000E+00  0.0000E+00  0.0000E+00
    -41.311  0.0000E+00  0.0000E+00  0.0000E+00  0.0000E+00  0.0000E+00  0.0000E+00  0.0000E+00  0.0000E+00  0.0000E+00  0.0000E+00  0.0000E+00  0.0000E+00  0.0000E+00  0.0000E+00  0.0000E+00  0.0000E+00  0.0000E+00  0.0000E+00
    -41.117  0.0000E+00  0.0000E+00  0.0000E+00  0.0000E+00  0.0000E+00  0.0000E+00  0.0000E+00  0.0000E+00  0.0000E+00  0.0000E+00  0.0000E+00  0.0000E+00  0.0000E+00  0.0000E+00  0.0000E+00  0.0000E+00  0.0000E+00  0.0000E+00
    -40.924  0.1748E-03  0.1637E-03  0.3914E-11  0.3656E-11  0.6171E-14  0.6052E-14  0.3914E-11  0.3656E-11  0.7063E-14  0.1339E-13  0.6260E-14  0.1076E-13  0.2498E-10  0.2332E-10  0.6260E-14  0.1076E-13  0.2490E-11  0.2347E-11
    -40.730  0.8237E-02  0.7712E-02  0.1844E-09  0.1723E-09  0.2908E-12  0.2852E-12  0.1844E-09  0.1723E-09  0.3328E-12  0.6312E-12  0.2949E-12  0.5069E-12  0.1177E-08  0.1099E-08  0.2949E-12  0.5069E-12  0.1173E-09  0.1106E-09
    -40.536  0.3679E+00  0.3461E+00  0.8236E-08  0.7731E-08  0.1295E-10  0.1277E-10  0.8236E-08  0.7731E-08  0.1488E-10  0.2835E-10  0.1317E-10  0.2274E-10  0.5252E-07  0.4928E-07  0.1317E-10  0.2274E-10  0.5241E-08  0.4964E-08
    -40.342  0.3693E+01  0.3659E+01  0.8262E-07  0.8167E-07  0.1265E-09  0.1316E-09  0.8262E-07  0.8167E-07  0.1508E-09  0.3028E-09  0.1314E-09  0.2392E-09  0.5235E-06  0.5171E-06  0.1314E-09  0.2392E-09  0.5268E-07  0.5254E-07
    -40.149  0.1042E+01  0.1097E+01  0.2328E-07  0.2446E-07  0.3454E-10  0.3825E-10  0.2328E-07  0.2446E-07  0.4299E-10  0.9187E-10  0.3682E-10  0.7128E-10  0.1464E-06  0.1536E-06  0.3682E-10  0.7128E-10  0.1487E-07  0.1576E-07
    -39.955  0.0000E+00  0.0000E+00  0.0000E+00  0.0000E+00  0.0000E+00  0.0000E+00  0.0000E+00  0.0000E+00  0.0000E+00  0.0000E+00  0.0000E+00  0.0000E+00  0.0000E+00  0.0000E+00  0.0000E+00  0.0000E+00  0.0000E+00  0.0000E+00
    -39.761  0.0000E+00  0.0000E+00  0.0000E+00  0.0000E+00  0.0000E+00  0.0000E+00  0.0000E+00  0.0000E+00  0.0000E+00  0.0000E+00  0.0000E+00  0.0000E+00  0.0000E+00  0.0000E+00  0.0000E+00  0.0000E+00  0.0000E+00  0.0000E+00
    -39.567  0.0000E+00  0.0000E+00  0.0000E+00  0.0000E+00  0.0000E+00  0.0000E+00  0.0000E+00  0.0000E+00  0.0000E+00  0.0000E+00  0.0000E+00  0.0000E+00  0.0000E+00  0.0000E+00  0.0000E+00  0.0000E+00  0.0000E+00  0.0000E+00
    -39.374  0.0000E+00  0.0000E+00  0.0000E+00  0.0000E+00  0.0000E+00  0.0000E+00  0.0000E+00  0.0000E+00  0.0000E+00  0.0000E+00  0.0000E+00  0.0000E+00  0.0000E+00  0.0000E+00  0.0000E+00  0.0000E+00  0.0000E+00  0.0000E+00
    -39.180  0.0000E+00  0.0000E+00  0.0000E+00  0.0000E+00  0.0000E+00  0.0000E+00  0.0000E+00  0.0000E+00  0.0000E+00  0.0000E+00  0.0000E+00  0.0000E+00  0.0000E+00  0.0000E+00  0.0000E+00  0.0000E+00  0.0000E+00  0.0000E+00
    -38.986  0.0000E+00  0.0000E+00  0.0000E+00  0.0000E+00  0.0000E+00  0.0000E+00  0.0000E+00  0.0000E+00  0.0000E+00  0.0000E+00  0.0000E+00  0.0000E+00  0.0000E+00  0.0000E+00  0.0000E+00  0.0000E+00  0.0000E+00  0.0000E+00
    -38.792  0.0000E+00  0.0000E+00  0.0000E+00  0.0000E+00  0.0000E+00  0.0000E+00  0.0000E+00  0.0000E+00  0.0000E+00  0.0000E+00  0.0000E+00  0.0000E+00  0.0000E+00  0.0000E+00  0.0000E+00  0.0000E+00  0.0000E+00  0.0000E+00
    -38.599  0.0000E+00  0.0000E+00  0.0000E+00  0.0000E+00  0.0000E+00  0.0000E+00  0.0000E+00  0.0000E+00  0.0000E+00  0.0000E+00  0.0000E+00  0.0000E+00  0.0000E+00  0.0000E+00  0.0000E+00  0.0000E+00  0.0000E+00  0.0000E+00
    -38.405  0.0000E+00  0.0000E+00  0.0000E+00  0.0000E+00  0.0000E+00  0.0000E+00  0.0000E+00  0.0000E+00  0.0000E+00  0.0000E+00  0.0000E+00  0.0000E+00  0.0000E+00  0.0000E+00  0.0000E+00  0.0000E+00  0.0000E+00  0.0000E+00
    -38.211  0.0000E+00  0.0000E+00  0.0000E+00  0.0000E+00  0.0000E+00  0.0000E+00  0.0000E+00  0.0000E+00  0.0000E+00  0.0000E+00  0.0000E+00  0.0000E+00  0.0000E+00  0.0000E+00  0.0000E+00  0.0000E+00  0.0000E+00  0.0000E+00
    -38.017  0.0000E+00  0.0000E+00  0.0000E+00  0.0000E+00  0.0000E+00  0.0000E+00  0.0000E+00  0.0000E+00  0.0000E+00  0.0000E+00  0.0000E+00  0.0000E+00  0.0000E+00  0.0000E+00  0.0000E+00  0.0000E+00  0.0000E+00  0.0000E+00
    -37.824  0.0000E+00  0.0000E+00  0.0000E+00  0.0000E+00  0.0000E+00  0.0000E+00  0.0000E+00  0.0000E+00  0.0000E+00  0.0000E+00  0.0000E+00  0.0000E+00  0.0000E+00  0.0000E+00  0.0000E+00  0.0000E+00  0.0000E+00  0.0000E+00
    -37.630  0.0000E+00  0.0000E+00  0.0000E+00  0.0000E+00  0.0000E+00  0.0000E+00  0.0000E+00  0.0000E+00  0.0000E+00  0.0000E+00  0.0000E+00  0.0000E+00  0.0000E+00  0.0000E+00  0.0000E+00  0.0000E+00  0.0000E+00  0.0000E+00
    -37.436  0.0000E+00  0.0000E+00  0.0000E+00  0.0000E+00  0.0000E+00  0.0000E+00  0.0000E+00  0.0000E+00  0.0000E+00  0.0000E+00  0.0000E+00  0.0000E+00  0.0000E+00  0.0000E+00  0.0000E+00  0.0000E+00  0.0000E+00  0.0000E+00
    -37.242  0.0000E+00  0.0000E+00  0.0000E+00  0.0000E+00  0.0000E+00  0.0000E+00  0.0000E+00  0.0000E+00  0.0000E+00  0.0000E+00  0.0000E+00  0.0000E+00  0.0000E+00  0.0000E+00  0.0000E+00  0.0000E+00  0.0000E+00  0.0000E+00
    -37.048  0.0000E+00  0.0000E+00  0.0000E+00  0.0000E+00  0.0000E+00  0.0000E+00  0.0000E+00  0.0000E+00  0.0000E+00  0.0000E+00  0.0000E+00  0.0000E+00  0.0000E+00  0.0000E+00  0.0000E+00  0.0000E+00  0.0000E+00  0.0000E+00
    -36.855  0.0000E+00  0.0000E+00  0.0000E+00  0.0000E+00  0.0000E+00  0.0000E+00  0.0000E+00  0.0000E+00  0.0000E+00  0.0000E+00  0.0000E+00  0.0000E+00  0.0000E+00  0.0000E+00  0.0000E+00  0.0000E+00  0.0000E+00  0.0000E+00
    -36.661  0.0000E+00  0.0000E+00  0.0000E+00  0.0000E+00  0.0000E+00  0.0000E+00  0.0000E+00  0.0000E+00  0.0000E+00  0.0000E+00  0.0000E+00  0.0000E+00  0.0000E+00  0.0000E+00  0.0000E+00  0.0000E+00  0.0000E+00  0.0000E+00
    -36.467  0.0000E+00  0.0000E+00  0.0000E+00  0.0000E+00  0.0000E+00  0.0000E+00  0.0000E+00  0.0000E+00  0.0000E+00  0.0000E+00  0.0000E+00  0.0000E+00  0.0000E+00  0.0000E+00  0.0000E+00  0.0000E+00  0.0000E+00  0.0000E+00
    -36.273  0.0000E+00  0.0000E+00  0.0000E+00  0.0000E+00  0.0000E+00  0.0000E+00  0.0000E+00  0.0000E+00  0.0000E+00  0.0000E+00  0.0000E+00  0.0000E+00  0.0000E+00  0.0000E+00  0.0000E+00  0.0000E+00  0.0000E+00  0.0000E+00
    -36.080  0.0000E+00  0.0000E+00  0.0000E+00  0.0000E+00  0.0000E+00  0.0000E+00  0.0000E+00  0.0000E+00  0.0000E+00  0.0000E+00  0.0000E+00  0.0000E+00  0.0000E+00  0.0000E+00  0.0000E+00  0.0000E+00  0.0000E+00  0.0000E+00
    -35.886  0.0000E+00  0.0000E+00  0.0000E+00  0.0000E+00  0.0000E+00  0.0000E+00  0.0000E+00  0.0000E+00  0.0000E+00  0.0000E+00  0.0000E+00  0.0000E+00  0.0000E+00  0.0000E+00  0.0000E+00  0.0000E+00  0.0000E+00  0.0000E+00
    -35.692  0.0000E+00  0.0000E+00  0.0000E+00  0.0000E+00  0.0000E+00  0.0000E+00  0.0000E+00  0.0000E+00  0.0000E+00  0.0000E+00  0.0000E+00  0.0000E+00  0.0000E+00  0.0000E+00  0.0000E+00  0.0000E+00  0.0000E+00  0.0000E+00
    -35.498  0.0000E+00  0.0000E+00  0.0000E+00  0.0000E+00  0.0000E+00  0.0000E+00  0.0000E+00  0.0000E+00  0.0000E+00  0.0000E+00  0.0000E+00  0.0000E+00  0.0000E+00  0.0000E+00  0.0000E+00  0.0000E+00  0.0000E+00  0.0000E+00
    -35.305  0.0000E+00  0.0000E+00  0.0000E+00  0.0000E+00  0.0000E+00  0.0000E+00  0.0000E+00  0.0000E+00  0.0000E+00  0.0000E+00  0.0000E+00  0.0000E+00  0.0000E+00  0.0000E+00  0.0000E+00  0.0000E+00  0.0000E+00  0.0000E+00
    -35.111  0.0000E+00  0.0000E+00  0.0000E+00  0.0000E+00  0.0000E+00  0.0000E+00  0.0000E+00  0.0000E+00  0.0000E+00  0.0000E+00  0.0000E+00  0.0000E+00  0.0000E+00  0.0000E+00  0.0000E+00  0.0000E+00  0.0000E+00  0.0000E+00
    -34.917  0.0000E+00  0.0000E+00  0.0000E+00  0.0000E+00  0.0000E+00  0.0000E+00  0.0000E+00  0.0000E+00  0.0000E+00  0.0000E+00  0.0000E+00  0.0000E+00  0.0000E+00  0.0000E+00  0.0000E+00  0.0000E+00  0.0000E+00  0.0000E+00
    -34.723  0.0000E+00  0.0000E+00  0.0000E+00  0.0000E+00  0.0000E+00  0.0000E+00  0.0000E+00  0.0000E+00  0.0000E+00  0.0000E+00  0.0000E+00  0.0000E+00  0.0000E+00  0.0000E+00  0.0000E+00  0.0000E+00  0.0000E+00  0.0000E+00
    -34.530  0.0000E+00  0.0000E+00  0.0000E+00  0.0000E+00  0.0000E+00  0.0000E+00  0.0000E+00  0.0000E+00  0.0000E+00  0.0000E+00  0.0000E+00  0.0000E+00  0.0000E+00  0.0000E+00  0.0000E+00  0.0000E+00  0.0000E+00  0.0000E+00
    -34.336  0.0000E+00  0.0000E+00  0.0000E+00  0.0000E+00  0.0000E+00  0.0000E+00  0.0000E+00  0.0000E+00  0.0000E+00  0.0000E+00  0.0000E+00  0.0000E+00  0.0000E+00  0.0000E+00  0.0000E+00  0.0000E+00  0.0000E+00  0.0000E+00
    -34.142  0.0000E+00  0.0000E+00  0.0000E+00  0.0000E+00  0.0000E+00  0.0000E+00  0.0000E+00  0.0000E+00  0.0000E+00  0.0000E+00  0.0000E+00  0.0000E+00  0.0000E+00  0.0000E+00  0.0000E+00  0.0000E+00  0.0000E+00  0.0000E+00
    -33.948  0.0000E+00  0.0000E+00  0.0000E+00  0.0000E+00  0.0000E+00  0.0000E+00  0.0000E+00  0.0000E+00  0.0000E+00  0.0000E+00  0.0000E+00  0.0000E+00  0.0000E+00  0.0000E+00  0.0000E+00  0.0000E+00  0.0000E+00  0.0000E+00
    -33.755  0.0000E+00  0.0000E+00  0.0000E+00  0.0000E+00  0.0000E+00  0.0000E+00  0.0000E+00  0.0000E+00  0.0000E+00  0.0000E+00  0.0000E+00  0.0000E+00  0.0000E+00  0.0000E+00  0.0000E+00  0.0000E+00  0.0000E+00  0.0000E+00
    -33.561  0.0000E+00  0.0000E+00  0.0000E+00  0.0000E+00  0.0000E+00  0.0000E+00  0.0000E+00  0.0000E+00  0.0000E+00  0.0000E+00  0.0000E+00  0.0000E+00  0.0000E+00  0.0000E+00  0.0000E+00  0.0000E+00  0.0000E+00  0.0000E+00
    -33.367  0.0000E+00  0.0000E+00  0.0000E+00  0.0000E+00  0.0000E+00  0.0000E+00  0.0000E+00  0.0000E+00  0.0000E+00  0.0000E+00  0.0000E+00  0.0000E+00  0.0000E+00  0.0000E+00  0.0000E+00  0.0000E+00  0.0000E+00  0.0000E+00