   8   8   1   0
  0.1950423E+02  0.4143829E-09  0.4143829E-09  0.9086891E-09  0.5000000E-15
  1.000000000000000E-004
  CAR 
 unknown system                          
     12.35119324    -46.08466337  301      5.78651985      1.00000000
    -46.085  0.0000E+00  0.0000E+00  0.0000E+00  0.0000E+00
    -45.890  0.0000E+00  0.0000E+00  0.0000E+00  0.0000E+00
    -45.695  0.0000E+00  0.0000E+00  0.0000E+00  0.0000E+00
    -45.500  0.0000E+00  0.0000E+00  0.0000E+00  0.0000E+00
    -45.306  0.0000E+00  0.0000E+00  0.0000E+00  0.0000E+00
    -45.111  0.0000E+00  0.0000E+00  0.0000E+00  0.0000E+00
    -44.916  0.0000E+00  0.0000E+00  0.0000E+00  0.0000E+00
    -44.721  0.0000E+00  0.0000E+00  0.0000E+00  0.0000E+00
    -44.526  0.0000E+00  0.0000E+00  0.0000E+00  0.0000E+00
    -44.332  0.0000E+00  0.0000E+00  0.0000E+00  0.0000E+00
    -44.137  0.0000E+00  0.0000E+00  0.0000E+00  0.0000E+00
    -43.942  0.3492E-03  0.3202E-03  0.6802E-04  0.6238E-04
    -43.747  0.1680E-01  0.1541E-01  0.3340E-02  0.3064E-02
    -43.552  0.7636E+00  0.7048E+00  0.1521E+00  0.1404E+00
    -43.358  0.7453E+01  0.7368E+01  0.1604E+01  0.1576E+01
    -43.163  0.1983E+01  0.2123E+01  0.1990E+01  0.1989E+01
    -42.968  0.0000E+00  0.0000E+00  0.2000E+01  0.2000E+01
    -42.773  0.0000E+00  0.0000E+00  0.2000E+01  0.2000E+01
    -42.579  0.0000E+00  0.0000E+00  0.2000E+01  0.2000E+01
    -42.384  0.0000E+00  0.0000E+00  0.2000E+01  0.2000E+01
    -42.189  0.0000E+00  0.0000E+00  0.2000E+01  0.2000E+01
    -41.994  0.0000E+00  0.0000E+00  0.2000E+01  0.2000E+01
    -41.799  0.0000E+00  0.0000E+00  0.2000E+01  0.2000E+01
    -41.605  0.0000E+00  0.0000E+00  0.2000E+01  0.2000E+01
    -41.410  0.0000E+00  0.0000E+00  0.2000E+01  0.2000E+01
    -41.215  0.0000E+00  0.0000E+00  0.2000E+01  0.2000E+01
    -41.020  0.0000E+00  0.0000E+00  0.2000E+01  0.2000E+01
    -40.825  0.0000E+00  0.0000E+00  0.2000E+01  0.2000E+01
    -40.631  0.0000E+00  0.0000E+00  0.2000E+01  0.2000E+01
    -40.436  0.0000E+00  0.0000E+00  0.2000E+01  0.2000E+01
    -40.241  0.0000E+00  0.0000E+00  0.2000E+01  0.2000E+01
    -40.046  0.0000E+00  0.0000E+00  0.2000E+01  0.2000E+01
    -39.852  0.0000E+00  0.0000E+00  0.2000E+01  0.2000E+01
    -39.657  0.0000E+00  0.0000E+00  0.2000E+01  0.2000E+01
    -39.462  0.0000E+00  0.0000E+00  0.2000E+01  0.2000E+01
    -39.267  0.0000E+00  0.0000E+00  0.2000E+01  0.2000E+01
    -39.072  0.0000E+00  0.0000E+00  0.2000E+01  0.2000E+01
    -38.878  0.0000E+00  0.0000E+00  0.2000E+01  0.2000E+01
    -38.683  0.0000E+00  0.0000E+00  0.2000E+01  0.2000E+01
    -38.488  0.0000E+00  0.0000E+00  0.2000E+01  0.2000E+01
    -38.293  0.0000E+00  0.0000E+00  0.2000E+01  0.2000E+01
    -38.098  0.0000E+00  0.0000E+00  0.2000E+01  0.2000E+01
    -37.904  0.0000E+00  0.0000E+00  0.2000E+01  0.2000E+01
    -37.709  0.0000E+00  0.0000E+00  0.2000E+01  0.2000E+01
    -37.514  0.0000E+00  0.0000E+00  0.2000E+01  0.2000E+01
    -37.319  0.0000E+00  0.0000E+00  0.2000E+01  0.2000E+01
    -37.124  0.0000E+00  0.0000E+00  0.2000E+01  0.2000E+01
    -36.930  0.0000E+00  0.0000E+00  0.2000E+01  0.2000E+01
    -36.735  0.0000E+00  0.0000E+00  0.2000E+01  0.2000E+01
    -36.540  0.0000E+00  0.0000E+00  0.2000E+01  0.2000E+01
    -36.345  0.0000E+00  0.0000E+00  0.2000E+01  0.2000E+01
    -36.151  0.0000E+00  0.0000E+00  0.2000E+01  0.2000E+01
    -35.956  0.0000E+00  0.0000E+00  0.2000E+01  0.2000E+01
    -35.761  0.0000E+00  0.0000E+00  0.2000E+01  0.2000E+01
    -35.566  0.0000E+00  0.0000E+00  0.2000E+01  0.2000E+01
    -35.371  0.0000E+00  0.0000E+00  0.2000E+01  0.2000E+01
    -35.177  0.0000E+00  0.0000E+00  0.2000E+01  0.2000E+01
    -34.982  0.0000E+00  0.0000E+00  0.2000E+01  0.2000E+01
    -34.787  0.0000E+00  0.0000E+00  0.2000E+01  0.2000E+01
    -34.592  0.0000E+00  0.0000E+00  0.2000E+01  0.2000E+01
    -34.397  0.0000E+00  0.0000E+00  0.2000E+01  0.2000E+01
    -34.203  0.0000E+00  0.0000E+00  0.2000E+01  0.2000E+01
    -34.008  0.0000E+00  0.0000E+00  0.2000E+01  0.2000E+01
    -33.813  0.0000E+00  0.0000E+00  0.2000E+01  0.2000E+01
    -33.618  0.0000E+00  0.0000E+00  0.2000E+01  0.2000E+01
    -33.424  0.0000E+00  0.0000E+00  0.2000E+01  0.2000E+01
    -33.229  0.0000E+00  0.0000E+00  0.2000E+01  0.2000E+01
    -33.034  0.0000E+00  0.0000E+00  0.2000E+01  0.2000E+01
    -32.839  0.0000E+00  0.0000E+00  0.2000E+01  0.2000E+01
    -32.644  0.0000E+00  0.0000E+00  0.2000E+01  0.2000E+01
    -32.450  0.0000E+00  0.0000E+00  0.2000E+01  0.2000E+01
    -32.255  0.0000E+00  0.0000E+00  0.2000E+01  0.2000E+01
    -32.060  0.0000E+00  0.0000E+00  0.2000E+01  0.2000E+01
    -31.865  0.0000E+00  0.0000E+00  0.2000E+01  0.2000E+01
    -31.670  0.0000E+00  0.0000E+00  0.2000E+01  0.2000E+01
    -31.476  0.0000E+00  0.0000E+00  0.2000E+01  0.2000E+01
    -31.281  0.0000E+00  0.0000E+00  0.2000E+01  0.2000E+01
    -31.086  0.0000E+00  0.0000E+00  0.2000E+01  0.2000E+01
    -30.891  0.0000E+00  0.0000E+00  0.2000E+01  0.2000E+01
    -30.697  0.0000E+00  0.0000E+00  0.2000E+01  0.2000E+01
    -30.502  0.0000E+00  0.0000E+00  0.2000E+01  0.2000E+01
    -30.307  0.0000E+00  0.0000E+00  0.2000E+01  0.2000E+01
    -30.112  0.0000E+00  0.0000E+00  0.2000E+01  0.2000E+01
    -29.917  0.0000E+00  0.0000E+00  0.2000E+01  0.2000E+01
    -29.723  0.0000E+00  0.0000E+00  0.2000E+01  0.2000E+01
    -29.528  0.0000E+00  0.0000E+00  0.2000E+01  0.2000E+01
    -29.333  0.0000E+00  0.0000E+00  0.2000E+01  0.2000E+01
    -29.138  0.0000E+00  0.0000E+00  0.2000E+01  0.2000E+01
    -28.943  0.0000E+00  0.0000E+00  0.2000E+01  0.2000E+01
    -28.749  0.0000E+00  0.0000E+00  0.2000E+01  0.2000E+01
    -28.554  0.0000E+00  0.0000E+00  0.2000E+01  0.2000E+01
    -28.359  0.0000E+00  0.0000E+00  0.2000E+01  0.2000E+01
    -28.164  0.0000E+00  0.0000E+00  0.2000E+01  0.2000E+01
    -27.970  0.0000E+00  0.0000E+00  0.2000E+01  0.2000E+01
    -27.775  0.0000E+00  0.0000E+00  0.2000E+01  0.2000E+01
    -27.580  0.0000E+00  0.0000E+00  0.2000E+01  0.2000E+01
    -27.385  0.0000E+00  0.0000E+00  0.2000E+01  0.2000E+01
    -27.190  0.0000E+00  0.0000E+00  0.2000E+01  0.2000E+01
    -26.996  0.0000E+00  0.0000E+00  0.2000E+01  0.2000E+01
    -26.801  0.0000E+00  0.0000E+00  0.2000E+01  0.2000E+01
    -26.606  0.0000E+00  0.0000E+00  0.2000E+01  0.2000E+01
    -26.411  0.0000E+00  0.0000E+00  0.2000E+01  0.2000E+01
    -26.216  0.0000E+00  0.0000E+00  0.2000E+01  0.2000E+01
    -26.022  0.0000E+00  0.0000E+00  0.2000E+01  0.2000E+01
    -25.827  0.0000E+00  0.0000E+00  0.2000E+01  0.2000E+01
    -25.632  0.0000E+00  0.0000E+00  0.2000E+01  0.2000E+01
    -25.437  0.0000E+00  0.0000E+00  0.2000E+01  0.2000E+01
    -25.243  0.0000E+00  0.0000E+00  0.2000E+01  0.2000E+01
    -25.048  0.0000E+00  0.0000E+00  0.2000E+01  0.2000E+01
    -24.853  0.0000E+00  0.0000E+00  0.2000E+01  0.2000E+01
    -24.658  0.0000E+00  0.0000E+00  0.2000E+01  0.2000E+01
    -24.463  0.0000E+00  0.0000E+00  0.2000E+01  0.2000E+01
    -24.269  0.0000E+00  0.0000E+00  0.2000E+01  0.2000E+01
    -24.074  0.0000E+00  0.0000E+00  0.2000E+01  0.2000E+01
    -23.879  0.0000E+00  0.0000E+00  0.2000E+01  0.2000E+01
    -23.684  0.0000E+00  0.0000E+00  0.2000E+01  0.2000E+01
    -23.489  0.0000E+00  0.0000E+00  0.2000E+01  0.2000E+01
    -23.295  0.0000E+00  0.0000E+00  0.2000E+01  0.2000E+01
    -23.100  0.0000E+00  0.0000E+00  0.2000E+01  0.2000E+01
    -22.905  0.0000E+00  0.0000E+00  0.2000E+01  0.2000E+01
    -22.710  0.0000E+00  0.0000E+00  0.2000E+01  0.2000E+01
    -22.516  0.6066E-02  0.5517E-02  0.2001E+01  0.2001E+01
    -22.321  0.2895E+00  0.2635E+00  0.2058E+01  0.2052E+01
    -22.126  0.9612E+01  0.9014E+01  0.3930E+01  0.3808E+01
    -21.931  0.1962E+02  0.2012E+02  0.7751E+01  0.7727E+01
    -21.736  0.1253E+01  0.1371E+01  0.7995E+01  0.7994E+01
    -21.542  0.0000E+00  0.0000E+00  0.8000E+01  0.8000E+01
    -21.347  0.0000E+00  0.0000E+00  0.8000E+01  0.8000E+01
    -21.152  0.0000E+00  0.0000E+00  0.8000E+01  0.8000E+01
    -20.957  0.0000E+00  0.0000E+00  0.8000E+01  0.8000E+01
    -20.762  0.0000E+00  0.0000E+00  0.8000E+01  0.8000E+01
    -20.568  0.0000E+00  0.0000E+00  0.8000E+01  0.8000E+01
    -20.373  0.0000E+00  0.0000E+00  0.8000E+01  0.8000E+01
    -20.178  0.0000E+00  0.0000E+00  0.8000E+01  0.8000E+01
    -19.983  0.0000E+00  0.0000E+00  0.8000E+01  0.8000E+01
    -19.789  0.0000E+00  0.0000E+00  0.8000E+01  0.8000E+01
    -19.594  0.0000E+00  0.0000E+00  0.8000E+01  0.8000E+01
    -19.399  0.0000E+00  0.0000E+00  0.8000E+01  0.8000E+01
    -19.204  0.0000E+00  0.0000E+00  0.8000E+01  0.8000E+01
    -19.009  0.0000E+00  0.0000E+00  0.8000E+01  0.8000E+01
    -18.815  0.0000E+00  0.0000E+00  0.8000E+01  0.8000E+01
    -18.620  0.0000E+00  0.0000E+00  0.8000E+01  0.8000E+01
    -18.425  0.0000E+00  0.0000E+00  0.8000E+01  0.8000E+01
    -18.230  0.0000E+00  0.0000E+00  0.8000E+01  0.8000E+01
    -18.035  0.0000E+00  0.0000E+00  0.8000E+01  0.8000E+01
    -17.841  0.0000E+00  0.0000E+00  0.8000E+01  0.8000E+01
    -17.646  0.0000E+00  0.0000E+00  0.8000E+01  0.8000E+01
    -17.451  0.0000E+00  0.0000E+00  0.8000E+01  0.8000E+01
    -17.256  0.0000E+00  0.0000E+00  0.8000E+01  0.8000E+01
    -17.062  0.0000E+00  0.0000E+00  0.8000E+01  0.8000E+01
    -16.867  0.0000E+00  0.0000E+00  0.8000E+01  0.8000E+01
    -16.672  0.0000E+00  0.0000E+00  0.8000E+01  0.8000E+01
    -16.477  0.0000E+00  0.0000E+00  0.8000E+01  0.8000E+01
    -16.282  0.0000E+00  0.0000E+00  0.8000E+01  0.8000E+01
    -16.088  0.0000E+00  0.0000E+00  0.8000E+01  0.8000E+01
    -15.893  0.0000E+00  0.0000E+00  0.8000E+01  0.8000E+01
    -15.698  0.0000E+00  0.0000E+00  0.8000E+01  0.8000E+01
    -15.503  0.0000E+00  0.0000E+00  0.8000E+01  0.8000E+01
    -15.308  0.0000E+00  0.0000E+00  0.8000E+01  0.8000E+01
    -15.114  0.0000E+00  0.0000E+00  0.8000E+01  0.8000E+01
    -14.919  0.0000E+00  0.0000E+00  0.8000E+01  0.8000E+01
    -14.724  0.0000E+00  0.0000E+00  0.8000E+01  0.8000E+01
    -14.529  0.0000E+00  0.0000E+00  0.8000E+01  0.8000E+01
    -14.335  0.0000E+00  0.0000E+00  0.8000E+01  0.8000E+01
    -14.140  0.0000E+00  0.0000E+00  0.8000E+01  0.8000E+01
    -13.945  0.0000E+00  0.0000E+00  0.8000E+01  0.8000E+01
    -13.750  0.0000E+00  0.0000E+00  0.8000E+01  0.8000E+01
    -13.555  0.0000E+00  0.0000E+00  0.8000E+01  0.8000E+01
    -13.361  0.0000E+00  0.0000E+00  0.8000E+01  0.8000E+01
    -13.166  0.0000E+00  0.0000E+00  0.8000E+01  0.8000E+01
    -12.971  0.0000E+00  0.0000E+00  0.8000E+01  0.8000E+01
    -12.776  0.0000E+00  0.0000E+00  0.8000E+01  0.8000E+01
    -12.581  0.0000E+00  0.0000E+00  0.8000E+01  0.8000E+01
    -12.387  0.0000E+00  0.0000E+00  0.8000E+01  0.8000E+01
    -12.192  0.0000E+00  0.0000E+00  0.8000E+01  0.8000E+01
    -11.997  0.0000E+00  0.0000E+00  0.8000E+01  0.8000E+01
    -11.802  0.0000E+00  0.0000E+00  0.8000E+01  0.8000E+01
    -11.608  0.0000E+00  0.0000E+00  0.8000E+01  0.8000E+01
    -11.413  0.0000E+00  0.0000E+00  0.8000E+01  0.8000E+01
    -11.218  0.0000E+00  0.0000E+00  0.8000E+01  0.8000E+01
    -11.023  0.0000E+00  0.0000E+00  0.8000E+01  0.8000E+01
    -10.828  0.0000E+00  0.0000E+00  0.8000E+01  0.8000E+01
    -10.634  0.0000E+00  0.0000E+00  0.8000E+01  0.8000E+01
    -10.439  0.0000E+00  0.0000E+00  0.8000E+01  0.8000E+01
    -10.244  0.0000E+00  0.0000E+00  0.8000E+01  0.8000E+01
    -10.049  0.0000E+00  0.0000E+00  0.8000E+01  0.8000E+01
     -9.854  0.0000E+00  0.0000E+00  0.8000E+01  0.8000E+01
     -9.660  0.0000E+00  0.0000E+00  0.8000E+01  0.8000E+01
     -9.465  0.0000E+00  0.0000E+00  0.8000E+01  0.8000E+01
     -9.270  0.0000E+00  0.0000E+00  0.8000E+01  0.8000E+01
     -9.075  0.0000E+00  0.0000E+00  0.8000E+01  0.8000E+01
     -8.881  0.0000E+00  0.0000E+00  0.8000E+01  0.8000E+01
     -8.686  0.0000E+00  0.0000E+00  0.8000E+01  0.8000E+01
     -8.491  0.0000E+00  0.0000E+00  0.8000E+01  0.8000E+01
     -8.296  0.0000E+00  0.0000E+00  0.8000E+01  0.8000E+01
     -8.101  0.0000E+00  0.0000E+00  0.8000E+01  0.8000E+01
     -7.907  0.0000E+00  0.0000E+00  0.8000E+01  0.8000E+01
     -7.712  0.0000E+00  0.0000E+00  0.8000E+01  0.8000E+01
     -7.517  0.0000E+00  0.0000E+00  0.8000E+01  0.8000E+01
     -7.322  0.0000E+00  0.0000E+00  0.8000E+01  0.8000E+01
     -7.127  0.0000E+00  0.0000E+00  0.8000E+01  0.8000E+01
     -6.933  0.0000E+00  0.0000E+00  0.8000E+01  0.8000E+01
     -6.738  0.0000E+00  0.0000E+00  0.8000E+01  0.8000E+01
     -6.543  0.0000E+00  0.0000E+00  0.8000E+01  0.8000E+01
     -6.348  0.0000E+00  0.0000E+00  0.8000E+01  0.8000E+01
     -6.153  0.0000E+00  0.0000E+00  0.8000E+01  0.8000E+01
     -5.959  0.0000E+00  0.0000E+00  0.8000E+01  0.8000E+01
     -5.764  0.0000E+00  0.0000E+00  0.8000E+01  0.8000E+01
     -5.569  0.0000E+00  0.0000E+00  0.8000E+01  0.8000E+01
     -5.374  0.0000E+00  0.0000E+00  0.8000E+01  0.8000E+01
     -5.180  0.0000E+00  0.0000E+00  0.8000E+01  0.8000E+01
     -4.985  0.0000E+00  0.0000E+00  0.8000E+01  0.8000E+01
     -4.790  0.0000E+00  0.0000E+00  0.8000E+01  0.8000E+01
     -4.595  0.0000E+00  0.0000E+00  0.8000E+01  0.8000E+01
     -4.400  0.0000E+00  0.0000E+00  0.8000E+01  0.8000E+01
     -4.206  0.0000E+00  0.0000E+00  0.8000E+01  0.8000E+01
     -4.011  0.0000E+00  0.0000E+00  0.8000E+01  0.8000E+01
     -3.816  0.0000E+00  0.0000E+00  0.8000E+01  0.8000E+01
     -3.621  0.5996E-05  0.5961E-05  0.8000E+01  0.8000E+01
     -3.426  0.3085E-03  0.3067E-03  0.8000E+01  0.8000E+01
     -3.232  0.1277E-01  0.1271E-01  0.8003E+01  0.8003E+01
     -3.037  0.1245E+00  0.1243E+00  0.8027E+01  0.8027E+01
     -2.842  0.2687E+00  0.2685E+00  0.8079E+01  0.8079E+01
     -2.647  0.3622E+00  0.3621E+00  0.8150E+01  0.8150E+01
     -2.453  0.4358E+00  0.4358E+00  0.8235E+01  0.8235E+01
     -2.258  0.5140E+00  0.5139E+00  0.8335E+01  0.8335E+01
     -2.063  0.5902E+00  0.5902E+00  0.8451E+01  0.8451E+01
     -1.868  0.6248E+00  0.6246E+00  0.8573E+01  0.8573E+01
     -1.673  0.7760E+00  0.7760E+00  0.8724E+01  0.8724E+01
     -1.479  0.7337E+00  0.7338E+00  0.8868E+01  0.8868E+01
     -1.284  0.8018E+00  0.8018E+00  0.9024E+01  0.9024E+01
     -1.089  0.8376E+00  0.8376E+00  0.9188E+01  0.9188E+01
     -0.894  0.8163E+00  0.8165E+00  0.9348E+01  0.9348E+01
     -0.699  0.9207E+00  0.9207E+00  0.9528E+01  0.9528E+01
     -0.505  0.9062E+00  0.9062E+00  0.9705E+01  0.9705E+01
     -0.310  0.8700E+00  0.8697E+00  0.9875E+01  0.9875E+01
     -0.115  0.1136E+01  0.1136E+01  0.1010E+02  0.1010E+02
      0.080  0.1171E+01  0.1171E+01  0.1033E+02  0.1033E+02
      0.274  0.1129E+01  0.1129E+01  0.1055E+02  0.1055E+02
      0.469  0.1112E+01  0.1111E+01  0.1076E+02  0.1076E+02
      0.664  0.9428E+00  0.9430E+00  0.1095E+02  0.1095E+02
      0.859  0.9313E+00  0.9309E+00  0.1113E+02  0.1113E+02
      1.054  0.9388E+00  0.9387E+00  0.1131E+02  0.1131E+02
      1.248  0.1190E+01  0.1189E+01  0.1155E+02  0.1155E+02
      1.443  0.1551E+01  0.1551E+01  0.1185E+02  0.1185E+02
      1.638  0.1306E+01  0.1306E+01  0.1211E+02  0.1211E+02
      1.833  0.1225E+01  0.1224E+01  0.1235E+02  0.1235E+02
      2.028  0.1458E+01  0.1458E+01  0.1263E+02  0.1263E+02
      2.222  0.1179E+01  0.1180E+01  0.1286E+02  0.1286E+02
      2.417  0.1116E+01  0.1114E+01  0.1308E+02  0.1308E+02
      2.612  0.1293E+01  0.1293E+01  0.1333E+02  0.1333E+02
      2.807  0.1304E+01  0.1303E+01  0.1359E+02  0.1359E+02
      3.001  0.1585E+01  0.1585E+01  0.1390E+02  0.1390E+02
      3.196  0.1336E+01  0.1335E+01  0.1416E+02  0.1416E+02
      3.391  0.1644E+01  0.1642E+01  0.1448E+02  0.1448E+02
      3.586  0.2065E+01  0.2064E+01  0.1488E+02  0.1488E+02
      3.781  0.1696E+01  0.1697E+01  0.1521E+02  0.1521E+02
      3.975  0.1494E+01  0.1492E+01  0.1551E+02  0.1551E+02
      4.170  0.2036E+01  0.2032E+01  0.1590E+02  0.1590E+02
      4.365  0.2390E+01  0.2389E+01  0.1637E+02  0.1637E+02
      4.560  0.2106E+01  0.2104E+01  0.1678E+02  0.1678E+02
      4.755  0.2439E+01  0.2434E+01  0.1726E+02  0.1726E+02
      4.949  0.3055E+01  0.3053E+01  0.1786E+02  0.1785E+02
      5.144  0.2846E+01  0.2841E+01  0.1841E+02  0.1841E+02
      5.339  0.2996E+01  0.2996E+01  0.1900E+02  0.1899E+02
      5.534  0.2204E+01  0.2208E+01  0.1943E+02  0.1943E+02
      5.728  0.2265E+01  0.2263E+01  0.1988E+02  0.1987E+02
      5.923  0.2316E+01  0.2308E+01  0.2033E+02  0.2032E+02
      6.118  0.2284E+01  0.2287E+01  0.2078E+02  0.2077E+02
      6.313  0.1733E+01  0.1740E+01  0.2111E+02  0.2111E+02
      6.508  0.1386E+01  0.1393E+01  0.2139E+02  0.2138E+02
      6.702  0.1128E+01  0.1127E+01  0.2161E+02  0.2160E+02
      6.897  0.1217E+01  0.1216E+01  0.2185E+02  0.2184E+02
      7.092  0.1573E+01  0.1567E+01  0.2215E+02  0.2215E+02
      7.287  0.2013E+01  0.2014E+01  0.2255E+02  0.2254E+02
      7.482  0.2957E+01  0.2948E+01  0.2312E+02  0.2312E+02
      7.676  0.3578E+01  0.3599E+01  0.2382E+02  0.2382E+02
      7.871  0.3750E+01  0.3743E+01  0.2456E+02  0.2455E+02
      8.066  0.3789E+01  0.3807E+01  0.2530E+02  0.2529E+02
      8.261  0.3971E+01  0.3992E+01  0.2607E+02  0.2608E+02
      8.455  0.3744E+01  0.3943E+01  0.2680E+02  0.2685E+02
      8.650  0.3094E+01  0.3157E+01  0.2741E+02  0.2746E+02
      8.845  0.1849E+01  0.1813E+01  0.2777E+02  0.2782E+02
      9.040  0.7331E+00  0.6661E+00  0.2792E+02  0.2795E+02
      9.235  0.2971E+00  0.1546E+00  0.2798E+02  0.2798E+02
      9.429  0.9032E-01  0.7291E-01  0.2800E+02  0.2800E+02
      9.624  0.6609E-02  0.6080E-02  0.2800E+02  0.2800E+02
      9.819  0.1263E-01  0.0000E+00  0.2800E+02  0.2800E+02
     10.014  0.1313E-02  0.0000E+00  0.2800E+02  0.2800E+02
     10.209  0.0000E+00  0.0000E+00  0.2800E+02  0.2800E+02
     10.403  0.0000E+00  0.0000E+00  0.2800E+02  0.2800E+02
     10.598  0.0000E+00  0.0000E+00  0.2800E+02  0.2800E+02
     10.793  0.0000E+00  0.0000E+00  0.2800E+02  0.2800E+02
     10.988  0.0000E+00  0.0000E+00  0.2800E+02  0.2800E+02
     11.182  0.0000E+00  0.0000E+00  0.2800E+02  0.2800E+02
     11.377  0.0000E+00  0.0000E+00  0.2800E+02  0.2800E+02
     11.572  0.0000E+00  0.0000E+00  0.2800E+02  0.2800E+02
     11.767  0.0000E+00  0.0000E+00  0.2800E+02  0.2800E+02
     11.962  0.0000E+00  0.0000E+00  0.2800E+02  0.2800E+02
     12.156  0.0000E+00  0.0000E+00  0.2800E+02  0.2800E+02
     12.351  0.0000E+00  0.0000E+00  0.2800E+02  0.2800E+02
     12.35119324    -46.08466337  301      5.78651985      1.00000000
    -46.085  0.0000E+00  0.0000E+00  0.0000E+00  0.0000E+00  0.0000E+00  0.0000E+00  0.0000E+00  0.0000E+00  0.0000E+00  0.0000E+00  0.0000E+00  0.0000E+00  0.0000E+00  0.0000E+00  0.0000E+00  0.0000E+00  0.0000E+00  0.0000E+00
    -45.890  0.0000E+00  0.0000E+00  0.0000E+00  0.0000E+00  0.0000E+00  0.0000E+00  0.0000E+00  0.0000E+00  0.0000E+00  0.0000E+00  0.0000E+00  0.0000E+00  0.0000E+00  0.0000E+00  0.0000E+00  0.0000E+00  0.0000E+00  0.0000E+00
    -45.695  0.0000E+00  0.0000E+00  0.0000E+00  0.0000E+00  0.0000E+00  0.0000E+00  0.0000E+00  0.0000E+00  0.0000E+00  0.0000E+00  0.0000E+00  0.0000E+00  0.0000E+00  0.0000E+00  0.0000E+00  0.0000E+00  0.0000E+00  0.0000E+00
    -45.500  0.0000E+00  0.0000E+00  0.0000E+00  0.0000E+00  0.0000E+00  0.0000E+00  0.0000E+00  0.0000E+00  0.0000E+00  0.0000E+00  0.0000E+00  0.0000E+00  0.0000E+00  0.0000E+00  0.0000E+00  0.0000E+00  0.0000E+00  0.0000E+00
    -45.306  0.0000E+00  0.0000E+00  0.0000E+00  0.0000E+00  0.0000E+00  0.0000E+00  0.0000E+00  0.0000E+00  0.0000E+00  0.0000E+00  0.0000E+00  0.0000E+00  0.0000E+00  0.0000E+00  0.0000E+00  0.0000E+00  0.0000E+00  0.0000E+00
    -45.111  0.0000E+00  0.0000E+00  0.0000E+00  0.0000E+00  0.0000E+00  0.0000E+00  0.0000E+00  0.0000E+00  0.0000E+00  0.0000E+00  0.0000E+00  0.0000E+00  0.0000E+00  0.0000E+00  0.0000E+00  0.0000E+00  0.0000E+00  0.0000E+00
    -44.916  0.0000E+00  0.0000E+00  0.0000E+00  0.0000E+00  0.0000E+00  0.0000E+00  0.0000E+00  0.0000E+00  0.0000E+00  0.0000E+00  0.0000E+00  0.0000E+00  0.0000E+00  0.0000E+00  0.0000E+00  0.0000E+00  0.0000E+00  0.0000E+00
    -44.721  0.0000E+00  0.0000E+00  0.0000E+00  0.0000E+00  0.0000E+00  0.0000E+00  0.0000E+00  0.0000E+00  0.0000E+00  0.0000E+00  0.0000E+00  0.0000E+00  0.0000E+00  0.0000E+00  0.0000E+00  0.0000E+00  0.0000E+00  0.0000E+00
    -44.526  0.0000E+00  0.0000E+00  0.0000E+00  0.0000E+00  0.0000E+00  0.0000E+00  0.0000E+00  0.0000E+00  0.0000E+00  0.0000E+00  0.0000E+00  0.0000E+00  0.0000E+00  0.0000E+00  0.0000E+00  0.0000E+00  0.0000E+00  0.0000E+00
    -44.332  0.0000E+00  0.0000E+00  0.0000E+00  0.0000E+00  0.0000E+00  0.0000E+00  0.0000E+00  0.0000E+00  0.0000E+00  0.0000E+00  0.0000E+00  0.0000E+00  0.0000E+00  0.0000E+00  0.0000E+00  0.0000E+00  0.0000E+00  0.0000E+00
    -44.137  0.0000E+00  0.0000E+00  0.0000E+00  0.0000E+00  0.0000E+00  0.0000E+00  0.0000E+00  0.0000E+00  0.0000E+00  0.0000E+00  0.0000E+00  0.0000E+00  0.0000E+00  0.0000E+00  0.0000E+00  0.0000E+00  0.0000E+00  0.0000E+00
    -43.942  0.1739E-03  0.1595E-03  0.2607E-12  0.2393E-12  0.1354E-15  0.2923E-15  0.2607E-12  0.2393E-12  0.2221E-13  0.1466E-13  0.1624E-13  0.1484E-13  0.1376E-10  0.1306E-10  0.1624E-13  0.1484E-13  0.2323E-12  0.2038E-12
    -43.747  0.8368E-02  0.7675E-02  0.1254E-10  0.1151E-10  0.6513E-14  0.1406E-13  0.1254E-10  0.1151E-10  0.1068E-11  0.7053E-12  0.7812E-12  0.7141E-12  0.6619E-09  0.6283E-09  0.7812E-12  0.7141E-12  0.1117E-10  0.9808E-11
    -43.552  0.3803E+00  0.3511E+00  0.5701E-09  0.5267E-09  0.2959E-12  0.6430E-12  0.5701E-09  0.5267E-09  0.4858E-10  0.3226E-10  0.3551E-10  0.3266E-10  0.3008E-07  0.2874E-07  0.3551E-10  0.3266E-10  0.5079E-09  0.4486E-09
    -43.358  0.3712E+01  0.3670E+01  0.5564E-08  0.5505E-08  0.2875E-11  0.6690E-11  0.5564E-08  0.5505E-08  0.4757E-09  0.3374E-09  0.3466E-09  0.3405E-09  0.2934E-06  0.3002E-06  0.3466E-09  0.3405E-09  0.4960E-08  0.4690E-08
    -43.163  0.9875E+00  0.1057E+01  0.1480E-08  0.1586E-08  0.7610E-12  0.1917E-11  0.1480E-08  0.1586E-08  0.1270E-09  0.9725E-10  0.9222E-10  0.9781E-10  0.7797E-07  0.8640E-07  0.9222E-10  0.9781E-10  0.1320E-08  0.1351E-08
    -42.968  0.0000E+00  0.0000E+00  0.0000E+00  0.0000E+00  0.0000E+00  0.0000E+00  0.0000E+00  0.0000E+00  0.0000E+00  0.0000E+00  0.0000E+00  0.0000E+00  0.0000E+00  0.0000E+00  0.0000E+00  0.0000E+00  0.0000E+00  0.0000E+00
    -42.773  0.0000E+00  0.0000E+00  0.0000E+00  0.0000E+00  0.0000E+00  0.0000E+00  0.0000E+00  0.0000E+00  0.0000E+00  0.0000E+00  0.0000E+00  0.0000E+00  0.0000E+00  0.0000E+00  0.0000E+00  0.0000E+00  0.0000E+00  0.0000E+00
    -42.579  0.0000E+00  0.0000E+00  0.0000E+00  0.0000E+00  0.0000E+00  0.0000E+00  0.0000E+00  0.0000E+00  0.0000E+00  0.0000E+00  0.0000E+00  0.0000E+00  0.0000E+00  0.0000E+00  0.0000E+00  0.0000E+00  0.0000E+00  0.0000E+00
    -42.384  0.0000E+00  0.0000E+00  0.0000E+00  0.0000E+00  0.0000E+00  0.0000E+00  0.0000E+00  0.0000E+00  0.0000E+00  0.0000E+00  0.0000E+00  0.0000E+00  0.0000E+00  0.0000E+00  0.0000E+00  0.0000E+00  0.0000E+00  0.0000E+00
    -42.189  0.0000E+00  0.0000E+00  0.0000E+00  0.0000E+00  0.0000E+00  0.0000E+00  0.0000E+00  0.0000E+00  0.0000E+00  0.0000E+00  0.0000E+00  0.0000E+00  0.0000E+00  0.0000E+00  0.0000E+00  0.0000E+00  0.0000E+00  0.0000E+00
    -41.994  0.0000E+00  0.0000E+00  0.0000E+00  0.0000E+00  0.0000E+00  0.0000E+00  0.0000E+00  0.0000E+00  0.0000E+00  0.0000E+00  0.0000E+00  0.0000E+00  0.0000E+00  0.0000E+00  0.0000E+00  0.0000E+00  0.0000E+00  0.0000E+00
    -41.799  0.0000E+00  0.0000E+00  0.0000E+00  0.0000E+00  0.0000E+00  0.0000E+00  0.0000E+00  0.0000E+00  0.0000E+00  0.0000E+00  0.0000E+00  0.0000E+00  0.0000E+00  0.0000E+00  0.0000E+00  0.0000E+00  0.0000E+00  0.0000E+00
    -41.605  0.0000E+00  0.0000E+00  0.0000E+00  0.0000E+00  0.0000E+00  0.0000E+00  0.0000E+00  0.0000E+00  0.0000E+00  0.0000E+00  0.0000E+00  0.0000E+00  0.0000E+00  0.0000E+00  0.0000E+00  0.0000E+00  0.0000E+00  0.0000E+00
    -41.410  0.0000E+00  0.0000E+00  0.0000E+00  0.0000E+00  0.0000E+00  0.0000E+00  0.0000E+00  0.0000E+00  0.0000E+00  0.0000E+00  0.0000E+00  0.0000E+00  0.0000E+00  0.0000E+00  0.0000E+00  0.0000E+00  0.0000E+00  0.0000E+00
    -41.215  0.0000E+00  0.0000E+00  0.0000E+00  0.0000E+00  0.0000E+00  0.0000E+00  0.0000E+00  0.0000E+00  0.0000E+00  0.0000E+00  0.0000E+00  0.0000E+00  0.0000E+00  0.0000E+00  0.0000E+00  0.0000E+00  0.0000E+00  0.0000E+00
    -41.020  0.0000E+00  0.0000E+00  0.0000E+00  0.0000E+00  0.0000E+00  0.0000E+00  0.0000E+00  0.0000E+00  0.0000E+00  0.0000E+00  0.0000E+00  0.0000E+00  0.0000E+00  0.0000E+00  0.0000E+00  0.0000E+00  0.0000E+00  0.0000E+00
    -40.825  0.0000E+00  0.0000E+00  0.0000E+00  0.0000E+00  0.0000E+00  0.0000E+00  0.0000E+00  0.0000E+00  0.0000E+00  0.0000E+00  0.0000E+00  0.0000E+00  0.0000E+00  0.0000E+00  0.0000E+00  0.0000E+00  0.0000E+00  0.0000E+00
    -40.631  0.0000E+00  0.0000E+00  0.0000E+00  0.0000E+00  0.0000E+00  0.0000E+00  0.0000E+00  0.0000E+00  0.0000E+00  0.0000E+00  0.0000E+00  0.0000E+00  0.0000E+00  0.0000E+00  0.0000E+00  0.0000E+00  0.0000E+00  0.0000E+00
    -40.436  0.0000E+00  0.0000E+00  0.0000E+00  0.0000E+00  0.0000E+00  0.0000E+00  0.0000E+00  0.0000E+00  0.0000E+00  0.0000E+00  0.0000E+00  0.0000E+00  0.0000E+00  0.0000E+00  0.0000E+00  0.0000E+00  0.0000E+00  0.0000E+00
    -40.241  0.0000E+00  0.0000E+00  0.0000E+00  0.0000E+00  0.0000E+00  0.0000E+00  0.0000E+00  0.0000E+00  0.0000E+00  0.0000E+00  0.0000E+00  0.0000E+00  0.0000E+00  0.0000E+00  0.0000E+00  0.0000E+00  0.0000E+00  0.0000E+00
    -40.046  0.0000E+00  0.0000E+00  0.0000E+00  0.0000E+00  0.0000E+00  0.0000E+00  0.0000E+00  0.0000E+00  0.0000E+00  0.0000E+00  0.0000E+00  0.0000E+00  0.0000E+00  0.0000E+00  0.0000E+00  0.0000E+00  0.0000E+00  0.0000E+00
    -39.852  0.0000E+00  0.0000E+00  0.0000E+00  0.0000E+00  0.0000E+00  0.0000E+00  0.0000E+00  0.0000E+00  0.0000E+00  0.0000E+00  0.0000E+00  0.0000E+00  0.0000E+00  0.0000E+00  0.0000E+00  0.0000E+00  0.0000E+00  0.0000E+00
    -39.657  0.0000E+00  0.0000E+00  0.0000E+00  0.0000E+00  0.0000E+00  0.0000E+00  0.0000E+00  0.0000E+00  0.0000E+00  0.0000E+00  0.0000E+00  0.0000E+00  0.0000E+00  0.0000E+00  0.0000E+00  0.0000E+00  0.0000E+00  0.0000E+00
    -39.462  0.0000E+00  0.0000E+00  0.0000E+00  0.0000E+00  0.0000E+00  0.0000E+00  0.0000E+00  0.0000E+00  0.0000E+00  0.0000E+00  0.0000E+00  0.0000E+00  0.0000E+00  0.0000E+00  0.0000E+00  0.0000E+00  0.0000E+00  0.0000E+00
    -39.267  0.0000E+00  0.0000E+00  0.0000E+00  0.0000E+00  0.0000E+00  0.0000E+00  0.0000E+00  0.0000E+00  0.0000E+00  0.0000E+00  0.0000E+00  0.0000E+00  0.0000E+00  0.0000E+00  0.0000E+00  0.0000E+00  0.0000E+00  0.0000E+00
    -39.072  0.0000E+00  0.0000E+00  0.0000E+00  0.0000E+00  0.0000E+00  0.0000E+00  0.0000E+00  0.0000E+00  0.0000E+00  0.0000E+00  0.0000E+00  0.0000E+00  0.0000E+00  0.0000E+00  0.0000E+00  0.0000E+00  0.0000E+00  0.0000E+00
    -38.878  0.0000E+00  0.0000E+00  0.0000E+00  0.0000E+00  0.0000E+00  0.0000E+00  0.0000E+00  0.0000E+00  0.0000E+00  0.0000E+00  0.0000E+00  0.0000E+00  0.0000E+00  0.0000E+00  0.0000E+00  0.0000E+00  0.0000E+00  0.0000E+00
    -38.683  0.0000E+00  0.0000E+00  0.0000E+00  0.0000E+00  0.0000E+00  0.0000E+00  0.0000E+00  0.0000E+00  0.0000E+00  0.0000E+00  0.0000E+00  0.0000E+00  0.0000E+00  0.0000E+00  0.0000E+00  0.0000E+00  0.0000E+00  0.0000E+00
    -38.488  0.0000E+00  0.0000E+00  0.0000E+00  0.0000E+00  0.0000E+00  0.0000E+00  0.0000E+00  0.0000E+00  0.0000E+00  0.0000E+00  0.0000E+00  0.0000E+00  0.0000E+00  0.0000E+00  0.0000E+00  0.0000E+00  0.0000E+00  0.0000E+00
    -38.293  0.0000E+00  0.0000E+00  0.0000E+00  0.0000E+00  0.0000E+00  0.0000E+00  0.0000E+00  0.0000E+00  0.0000E+00  0.0000E+00  0.0000E+00  0.0000E+00  0.0000E+00  0.0000E+00  0.0000E+00  0.0000E+00  0.0000E+00  0.0000E+00
    -38.098  0.0000E+00  0.0000E+00  0.0000E+00  0.0000E+00  0.0000E+00  0.0000E+00  0.0000E+00  0.0000E+00  0.0000E+00  0.0000E+00  0.0000E+00  0.0000E+00  0.0000E+00  0.0000E+00  0.0000E+00  0.0000E+00  0.0000E+00  0.0000E+00
    -37.904  0.0000E+00  0.0000E+00  0.0000E+00  0.0000E+00  0.0000E+00  0.0000E+00  0.0000E+00  0.0000E+00  0.0000E+00  0.0000E+00  0.0000E+00  0.0000E+00  0.0000E+00  0.0000E+00  0.0000E+00  0.0000E+00  0.0000E+00  0.0000E+00
    -37.709  0.0000E+00  0.0000E+00  0.0000E+00  0.0000E+00  0.0000E+00  0.0000E+00  0.0000E+00  0.0000E+00  0.0000E+00  0.0000E+00  0.0000E+00  0.0000E+00  0.0000E+00  0.0000E+00  0.0000E+00  0.0000E+00  0.0000E+00  0.0000E+00
    -37.514  0.0000E+00  0.0000E+00  0.0000E+00  0.0000E+00  0.0000E+00  0.0000E+00  0.0000E+00  0.0000E+00  0.0000E+00  0.0000E+00  0.0000E+00  0.0000E+00  0.0000E+00  0.0000E+00  0.0000E+00  0.0000E+00  0.0000E+00  0.0000E+00
    -37.319  0.0000E+00  0.0000E+00  0.0000E+00  0.0000E+00  0.0000E+00  0.0000E+00  0.0000E+00  0.0000E+00  0.0000E+00  0.0000E+00  0.0000E+00  0.0000E+00  0.0000E+00  0.0000E+00  0.0000E+00  0.0000E+00  0.0000E+00  0.0000E+00
    -37.124  0.0000E+00  0.0000E+00  0.0000E+00  0.0000E+00  0.0000E+00  0.0000E+00  0.0000E+00  0.0000E+00  0.0000E+00  0.0000E+00  0.0000E+00  0.0000E+00  0.0000E+00  0.0000E+00  0.0000E+00  0.0000E+00  0.0000E+00  0.0000E+00
    -36.930  0.0000E+00  0.0000E+00  0.0000E+00  0.0000E+00  0.0000E+00  0.0000E+00  0.0000E+00  0.0000E+00  0.0000E+00  0.0000E+00  0.0000E+00  0.0000E+00  0.0000E+00  0.0000E+00  0.0000E+00  0.0000E+00  0.0000E+00  0.0000E+00
    -36.735  0.0000E+00  0.0000E+00  0.0000E+00  0.0000E+00  0.0000E+00  0.0000E+00  0.0000E+00  0.0000E+00  0.0000E+00  0.0000E+00  0.0000E+00  0.0000E+00  0.0000E+00  0.0000E+00  0.0000E+00  0.0000E+00  0.0000E+00  0.0000E+00
    -36.540  0.0000E+00  0.0000E+00  0.0000E+00  0.0000E+00  0.0000E+00  0.0000E+00  0.0000E+00  0.0000E+00  0.0000E+00  0.0000E+00  0.0000E+00  0.0000E+00  0.0000E+00  0.0000E+00  0.0000E+00  0.0000E+00  0.0000E+00  0.0000E+00
    -36.345  0.0000E+00  0.0000E+00  0.0000E+00  0.0000E+00  0.0000E+00  0.0000E+00  0.0000E+00  0.0000E+00  0.0000E+00  0.0000E+00  0.0000E+00  0.0000E+00  0.0000E+00  0.0000E+00  0.0000E+00  0.0000E+00  0.0000E+00  0.0000E+00