   8   8   1   0
  0.2311515E+02  0.4385217E-09  0.4385217E-09  0.9616225E-09  0.5000000E-15
  1.000000000000000E-004
  CAR 
 unknown system                          
     10.56204709    -47.96839188  301      4.51831163      1.00000000
    -47.968  0.0000E+00  0.0000E+00  0.0000E+00  0.0000E+00
    -47.773  0.0000E+00  0.0000E+00  0.0000E+00  0.0000E+00
    -47.578  0.0000E+00  0.0000E+00  0.0000E+00  0.0000E+00
    -47.383  0.0000E+00  0.0000E+00  0.0000E+00  0.0000E+00
    -47.188  0.0000E+00  0.0000E+00  0.0000E+00  0.0000E+00
    -46.993  0.0000E+00  0.0000E+00  0.0000E+00  0.0000E+00
    -46.798  0.0000E+00  0.0000E+00  0.0000E+00  0.0000E+00
    -46.603  0.0000E+00  0.0000E+00  0.0000E+00  0.0000E+00
    -46.408  0.0000E+00  0.0000E+00  0.0000E+00  0.0000E+00
    -46.212  0.0000E+00  0.0000E+00  0.0000E+00  0.0000E+00
    -46.017  0.0000E+00  0.0000E+00  0.0000E+00  0.0000E+00
    -45.822  0.3469E-03  0.3396E-03  0.6768E-04  0.6626E-04
    -45.627  0.1680E-01  0.1645E-01  0.3345E-02  0.3275E-02
    -45.432  0.7679E+00  0.7530E+00  0.1532E+00  0.1502E+00
    -45.237  0.7458E+01  0.7439E+01  0.1608E+01  0.1602E+01
    -45.042  0.1958E+01  0.1991E+01  0.1990E+01  0.1990E+01
    -44.847  0.0000E+00  0.0000E+00  0.2000E+01  0.2000E+01
    -44.652  0.0000E+00  0.0000E+00  0.2000E+01  0.2000E+01
    -44.457  0.0000E+00  0.0000E+00  0.2000E+01  0.2000E+01
    -44.261  0.0000E+00  0.0000E+00  0.2000E+01  0.2000E+01
    -44.066  0.0000E+00  0.0000E+00  0.2000E+01  0.2000E+01
    -43.871  0.0000E+00  0.0000E+00  0.2000E+01  0.2000E+01
    -43.676  0.0000E+00  0.0000E+00  0.2000E+01  0.2000E+01
    -43.481  0.0000E+00  0.0000E+00  0.2000E+01  0.2000E+01
    -43.286  0.0000E+00  0.0000E+00  0.2000E+01  0.2000E+01
    -43.091  0.0000E+00  0.0000E+00  0.2000E+01  0.2000E+01
    -42.896  0.0000E+00  0.0000E+00  0.2000E+01  0.2000E+01
    -42.701  0.0000E+00  0.0000E+00  0.2000E+01  0.2000E+01
    -42.506  0.0000E+00  0.0000E+00  0.2000E+01  0.2000E+01
    -42.310  0.0000E+00  0.0000E+00  0.2000E+01  0.2000E+01
    -42.115  0.0000E+00  0.0000E+00  0.2000E+01  0.2000E+01
    -41.920  0.0000E+00  0.0000E+00  0.2000E+01  0.2000E+01
    -41.725  0.0000E+00  0.0000E+00  0.2000E+01  0.2000E+01
    -41.530  0.0000E+00  0.0000E+00  0.2000E+01  0.2000E+01
    -41.335  0.0000E+00  0.0000E+00  0.2000E+01  0.2000E+01
    -41.140  0.0000E+00  0.0000E+00  0.2000E+01  0.2000E+01
    -40.945  0.0000E+00  0.0000E+00  0.2000E+01  0.2000E+01
    -40.750  0.0000E+00  0.0000E+00  0.2000E+01  0.2000E+01
    -40.555  0.0000E+00  0.0000E+00  0.2000E+01  0.2000E+01
    -40.359  0.0000E+00  0.0000E+00  0.2000E+01  0.2000E+01
    -40.164  0.0000E+00  0.0000E+00  0.2000E+01  0.2000E+01
    -39.969  0.0000E+00  0.0000E+00  0.2000E+01  0.2000E+01
    -39.774  0.0000E+00  0.0000E+00  0.2000E+01  0.2000E+01
    -39.579  0.0000E+00  0.0000E+00  0.2000E+01  0.2000E+01
    -39.384  0.0000E+00  0.0000E+00  0.2000E+01  0.2000E+01
    -39.189  0.0000E+00  0.0000E+00  0.2000E+01  0.2000E+01
    -38.994  0.0000E+00  0.0000E+00  0.2000E+01  0.2000E+01
    -38.799  0.0000E+00  0.0000E+00  0.2000E+01  0.2000E+01
    -38.604  0.0000E+00  0.0000E+00  0.2000E+01  0.2000E+01
    -38.408  0.0000E+00  0.0000E+00  0.2000E+01  0.2000E+01
    -38.213  0.0000E+00  0.0000E+00  0.2000E+01  0.2000E+01
    -38.018  0.0000E+00  0.0000E+00  0.2000E+01  0.2000E+01
    -37.823  0.0000E+00  0.0000E+00  0.2000E+01  0.2000E+01
    -37.628  0.0000E+00  0.0000E+00  0.2000E+01  0.2000E+01
    -37.433  0.0000E+00  0.0000E+00  0.2000E+01  0.2000E+01
    -37.238  0.0000E+00  0.0000E+00  0.2000E+01  0.2000E+01
    -37.043  0.0000E+00  0.0000E+00  0.2000E+01  0.2000E+01
    -36.848  0.0000E+00  0.0000E+00  0.2000E+01  0.2000E+01
    -36.653  0.0000E+00  0.0000E+00  0.2000E+01  0.2000E+01
    -36.457  0.0000E+00  0.0000E+00  0.2000E+01  0.2000E+01
    -36.262  0.0000E+00  0.0000E+00  0.2000E+01  0.2000E+01
    -36.067  0.0000E+00  0.0000E+00  0.2000E+01  0.2000E+01
    -35.872  0.0000E+00  0.0000E+00  0.2000E+01  0.2000E+01
    -35.677  0.0000E+00  0.0000E+00  0.2000E+01  0.2000E+01
    -35.482  0.0000E+00  0.0000E+00  0.2000E+01  0.2000E+01
    -35.287  0.0000E+00  0.0000E+00  0.2000E+01  0.2000E+01
    -35.092  0.0000E+00  0.0000E+00  0.2000E+01  0.2000E+01
    -34.897  0.0000E+00  0.0000E+00  0.2000E+01  0.2000E+01
    -34.701  0.0000E+00  0.0000E+00  0.2000E+01  0.2000E+01
    -34.506  0.0000E+00  0.0000E+00  0.2000E+01  0.2000E+01
    -34.311  0.0000E+00  0.0000E+00  0.2000E+01  0.2000E+01
    -34.116  0.0000E+00  0.0000E+00  0.2000E+01  0.2000E+01
    -33.921  0.0000E+00  0.0000E+00  0.2000E+01  0.2000E+01
    -33.726  0.0000E+00  0.0000E+00  0.2000E+01  0.2000E+01
    -33.531  0.0000E+00  0.0000E+00  0.2000E+01  0.2000E+01
    -33.336  0.0000E+00  0.0000E+00  0.2000E+01  0.2000E+01
    -33.141  0.0000E+00  0.0000E+00  0.2000E+01  0.2000E+01
    -32.946  0.0000E+00  0.0000E+00  0.2000E+01  0.2000E+01
    -32.750  0.0000E+00  0.0000E+00  0.2000E+01  0.2000E+01
    -32.555  0.0000E+00  0.0000E+00  0.2000E+01  0.2000E+01
    -32.360  0.0000E+00  0.0000E+00  0.2000E+01  0.2000E+01
    -32.165  0.0000E+00  0.0000E+00  0.2000E+01  0.2000E+01
    -31.970  0.0000E+00  0.0000E+00  0.2000E+01  0.2000E+01
    -31.775  0.0000E+00  0.0000E+00  0.2000E+01  0.2000E+01
    -31.580  0.0000E+00  0.0000E+00  0.2000E+01  0.2000E+01
    -31.385  0.0000E+00  0.0000E+00  0.2000E+01  0.2000E+01
    -31.190  0.0000E+00  0.0000E+00  0.2000E+01  0.2000E+01
    -30.995  0.0000E+00  0.0000E+00  0.2000E+01  0.2000E+01
    -30.799  0.0000E+00  0.0000E+00  0.2000E+01  0.2000E+01
    -30.604  0.0000E+00  0.0000E+00  0.2000E+01  0.2000E+01
    -30.409  0.0000E+00  0.0000E+00  0.2000E+01  0.2000E+01
    -30.214  0.0000E+00  0.0000E+00  0.2000E+01  0.2000E+01
    -30.019  0.0000E+00  0.0000E+00  0.2000E+01  0.2000E+01
    -29.824  0.0000E+00  0.0000E+00  0.2000E+01  0.2000E+01
    -29.629  0.0000E+00  0.0000E+00  0.2000E+01  0.2000E+01
    -29.434  0.0000E+00  0.0000E+00  0.2000E+01  0.2000E+01
    -29.239  0.0000E+00  0.0000E+00  0.2000E+01  0.2000E+01
    -29.044  0.0000E+00  0.0000E+00  0.2000E+01  0.2000E+01
    -28.848  0.0000E+00  0.0000E+00  0.2000E+01  0.2000E+01
    -28.653  0.0000E+00  0.0000E+00  0.2000E+01  0.2000E+01
    -28.458  0.0000E+00  0.0000E+00  0.2000E+01  0.2000E+01
    -28.263  0.0000E+00  0.0000E+00  0.2000E+01  0.2000E+01
    -28.068  0.0000E+00  0.0000E+00  0.2000E+01  0.2000E+01
    -27.873  0.0000E+00  0.0000E+00  0.2000E+01  0.2000E+01
    -27.678  0.0000E+00  0.0000E+00  0.2000E+01  0.2000E+01
    -27.483  0.0000E+00  0.0000E+00  0.2000E+01  0.2000E+01
    -27.288  0.0000E+00  0.0000E+00  0.2000E+01  0.2000E+01
    -27.093  0.0000E+00  0.0000E+00  0.2000E+01  0.2000E+01
    -26.897  0.0000E+00  0.0000E+00  0.2000E+01  0.2000E+01
    -26.702  0.0000E+00  0.0000E+00  0.2000E+01  0.2000E+01
    -26.507  0.0000E+00  0.0000E+00  0.2000E+01  0.2000E+01
    -26.312  0.0000E+00  0.0000E+00  0.2000E+01  0.2000E+01
    -26.117  0.0000E+00  0.0000E+00  0.2000E+01  0.2000E+01
    -25.922  0.0000E+00  0.0000E+00  0.2000E+01  0.2000E+01
    -25.727  0.0000E+00  0.0000E+00  0.2000E+01  0.2000E+01
    -25.532  0.0000E+00  0.0000E+00  0.2000E+01  0.2000E+01
    -25.337  0.0000E+00  0.0000E+00  0.2000E+01  0.2000E+01
    -25.142  0.0000E+00  0.0000E+00  0.2000E+01  0.2000E+01
    -24.946  0.0000E+00  0.0000E+00  0.2000E+01  0.2000E+01
    -24.751  0.0000E+00  0.0000E+00  0.2000E+01  0.2000E+01
    -24.556  0.0000E+00  0.0000E+00  0.2000E+01  0.2000E+01
    -24.361  0.4720E-02  0.4620E-02  0.2001E+01  0.2001E+01
    -24.166  0.2272E+00  0.2224E+00  0.2045E+01  0.2044E+01
    -23.971  0.8168E+01  0.8043E+01  0.3639E+01  0.3614E+01
    -23.776  0.2078E+02  0.2088E+02  0.7693E+01  0.7687E+01
    -23.581  0.1540E+01  0.1571E+01  0.7993E+01  0.7993E+01
    -23.386  0.0000E+00  0.0000E+00  0.8000E+01  0.8000E+01
    -23.191  0.0000E+00  0.0000E+00  0.8000E+01  0.8000E+01
    -22.995  0.0000E+00  0.0000E+00  0.8000E+01  0.8000E+01
    -22.800  0.0000E+00  0.0000E+00  0.8000E+01  0.8000E+01
    -22.605  0.0000E+00  0.0000E+00  0.8000E+01  0.8000E+01
    -22.410  0.0000E+00  0.0000E+00  0.8000E+01  0.8000E+01
    -22.215  0.0000E+00  0.0000E+00  0.8000E+01  0.8000E+01
    -22.020  0.0000E+00  0.0000E+00  0.8000E+01  0.8000E+01
    -21.825  0.0000E+00  0.0000E+00  0.8000E+01  0.8000E+01
    -21.630  0.0000E+00  0.0000E+00  0.8000E+01  0.8000E+01
    -21.435  0.0000E+00  0.0000E+00  0.8000E+01  0.8000E+01
    -21.239  0.0000E+00  0.0000E+00  0.8000E+01  0.8000E+01
    -21.044  0.0000E+00  0.0000E+00  0.8000E+01  0.8000E+01
    -20.849  0.0000E+00  0.0000E+00  0.8000E+01  0.8000E+01
    -20.654  0.0000E+00  0.0000E+00  0.8000E+01  0.8000E+01
    -20.459  0.0000E+00  0.0000E+00  0.8000E+01  0.8000E+01
    -20.264  0.0000E+00  0.0000E+00  0.8000E+01  0.8000E+01
    -20.069  0.0000E+00  0.0000E+00  0.8000E+01  0.8000E+01
    -19.874  0.0000E+00  0.0000E+00  0.8000E+01  0.8000E+01
    -19.679  0.0000E+00  0.0000E+00  0.8000E+01  0.8000E+01
    -19.484  0.0000E+00  0.0000E+00  0.8000E+01  0.8000E+01
    -19.288  0.0000E+00  0.0000E+00  0.8000E+01  0.8000E+01
    -19.093  0.0000E+00  0.0000E+00  0.8000E+01  0.8000E+01
    -18.898  0.0000E+00  0.0000E+00  0.8000E+01  0.8000E+01
    -18.703  0.0000E+00  0.0000E+00  0.8000E+01  0.8000E+01
    -18.508  0.0000E+00  0.0000E+00  0.8000E+01  0.8000E+01
    -18.313  0.0000E+00  0.0000E+00  0.8000E+01  0.8000E+01
    -18.118  0.0000E+00  0.0000E+00  0.8000E+01  0.8000E+01
    -17.923  0.0000E+00  0.0000E+00  0.8000E+01  0.8000E+01
    -17.728  0.0000E+00  0.0000E+00  0.8000E+01  0.8000E+01
    -17.533  0.0000E+00  0.0000E+00  0.8000E+01  0.8000E+01
    -17.337  0.0000E+00  0.0000E+00  0.8000E+01  0.8000E+01
    -17.142  0.0000E+00  0.0000E+00  0.8000E+01  0.8000E+01
    -16.947  0.0000E+00  0.0000E+00  0.8000E+01  0.8000E+01
    -16.752  0.0000E+00  0.0000E+00  0.8000E+01  0.8000E+01
    -16.557  0.0000E+00  0.0000E+00  0.8000E+01  0.8000E+01
    -16.362  0.0000E+00  0.0000E+00  0.8000E+01  0.8000E+01
    -16.167  0.0000E+00  0.0000E+00  0.8000E+01  0.8000E+01
    -15.972  0.0000E+00  0.0000E+00  0.8000E+01  0.8000E+01
    -15.777  0.0000E+00  0.0000E+00  0.8000E+01  0.8000E+01
    -15.582  0.0000E+00  0.0000E+00  0.8000E+01  0.8000E+01
    -15.386  0.0000E+00  0.0000E+00  0.8000E+01  0.8000E+01
    -15.191  0.0000E+00  0.0000E+00  0.8000E+01  0.8000E+01
    -14.996  0.0000E+00  0.0000E+00  0.8000E+01  0.8000E+01
    -14.801  0.0000E+00  0.0000E+00  0.8000E+01  0.8000E+01
    -14.606  0.0000E+00  0.0000E+00  0.8000E+01  0.8000E+01
    -14.411  0.0000E+00  0.0000E+00  0.8000E+01  0.8000E+01
    -14.216  0.0000E+00  0.0000E+00  0.8000E+01  0.8000E+01
    -14.021  0.0000E+00  0.0000E+00  0.8000E+01  0.8000E+01
    -13.826  0.0000E+00  0.0000E+00  0.8000E+01  0.8000E+01
    -13.631  0.0000E+00  0.0000E+00  0.8000E+01  0.8000E+01
    -13.435  0.0000E+00  0.0000E+00  0.8000E+01  0.8000E+01
    -13.240  0.0000E+00  0.0000E+00  0.8000E+01  0.8000E+01
    -13.045  0.0000E+00  0.0000E+00  0.8000E+01  0.8000E+01
    -12.850  0.0000E+00  0.0000E+00  0.8000E+01  0.8000E+01
    -12.655  0.0000E+00  0.0000E+00  0.8000E+01  0.8000E+01
    -12.460  0.0000E+00  0.0000E+00  0.8000E+01  0.8000E+01
    -12.265  0.0000E+00  0.0000E+00  0.8000E+01  0.8000E+01
    -12.070  0.0000E+00  0.0000E+00  0.8000E+01  0.8000E+01
    -11.875  0.0000E+00  0.0000E+00  0.8000E+01  0.8000E+01
    -11.680  0.0000E+00  0.0000E+00  0.8000E+01  0.8000E+01
    -11.484  0.0000E+00  0.0000E+00  0.8000E+01  0.8000E+01
    -11.289  0.0000E+00  0.0000E+00  0.8000E+01  0.8000E+01
    -11.094  0.0000E+00  0.0000E+00  0.8000E+01  0.8000E+01
    -10.899  0.0000E+00  0.0000E+00  0.8000E+01  0.8000E+01
    -10.704  0.0000E+00  0.0000E+00  0.8000E+01  0.8000E+01
    -10.509  0.0000E+00  0.0000E+00  0.8000E+01  0.8000E+01
    -10.314  0.0000E+00  0.0000E+00  0.8000E+01  0.8000E+01
    -10.119  0.0000E+00  0.0000E+00  0.8000E+01  0.8000E+01
     -9.924  0.0000E+00  0.0000E+00  0.8000E+01  0.8000E+01
     -9.729  0.0000E+00  0.0000E+00  0.8000E+01  0.8000E+01
     -9.533  0.0000E+00  0.0000E+00  0.8000E+01  0.8000E+01
     -9.338  0.0000E+00  0.0000E+00  0.8000E+01  0.8000E+01
     -9.143  0.0000E+00  0.0000E+00  0.8000E+01  0.8000E+01
     -8.948  0.0000E+00  0.0000E+00  0.8000E+01  0.8000E+01
     -8.753  0.0000E+00  0.0000E+00  0.8000E+01  0.8000E+01
     -8.558  0.0000E+00  0.0000E+00  0.8000E+01  0.8000E+01
     -8.363  0.0000E+00  0.0000E+00  0.8000E+01  0.8000E+01
     -8.168  0.0000E+00  0.0000E+00  0.8000E+01  0.8000E+01
     -7.973  0.0000E+00  0.0000E+00  0.8000E+01  0.8000E+01
     -7.777  0.0000E+00  0.0000E+00  0.8000E+01  0.8000E+01
     -7.582  0.0000E+00  0.0000E+00  0.8000E+01  0.8000E+01
     -7.387  0.0000E+00  0.0000E+00  0.8000E+01  0.8000E+01
     -7.192  0.0000E+00  0.0000E+00  0.8000E+01  0.8000E+01
     -6.997  0.0000E+00  0.0000E+00  0.8000E+01  0.8000E+01
     -6.802  0.0000E+00  0.0000E+00  0.8000E+01  0.8000E+01
     -6.607  0.0000E+00  0.0000E+00  0.8000E+01  0.8000E+01
     -6.412  0.0000E+00  0.0000E+00  0.8000E+01  0.8000E+01
     -6.217  0.0000E+00  0.0000E+00  0.8000E+01  0.8000E+01
     -6.022  0.0000E+00  0.0000E+00  0.8000E+01  0.8000E+01
     -5.826  0.0000E+00  0.0000E+00  0.8000E+01  0.8000E+01
     -5.631  0.0000E+00  0.0000E+00  0.8000E+01  0.8000E+01
     -5.436  0.0000E+00  0.0000E+00  0.8000E+01  0.8000E+01
     -5.241  0.0000E+00  0.0000E+00  0.8000E+01  0.8000E+01
     -5.046  0.0000E+00  0.0000E+00  0.8000E+01  0.8000E+01
     -4.851  0.0000E+00  0.0000E+00  0.8000E+01  0.8000E+01
     -4.656  0.0000E+00  0.0000E+00  0.8000E+01  0.8000E+01
     -4.461  0.0000E+00  0.0000E+00  0.8000E+01  0.8000E+01
     -4.266  0.3893E-07  0.3872E-07  0.8000E+01  0.8000E+01
     -4.071  0.1359E-04  0.1352E-04  0.8000E+01  0.8000E+01
     -3.875  0.6954E-03  0.6918E-03  0.8000E+01  0.8000E+01
     -3.680  0.2592E-01  0.2582E-01  0.8005E+01  0.8005E+01
     -3.485  0.1850E+00  0.1847E+00  0.8041E+01  0.8041E+01
     -3.290  0.3447E+00  0.3446E+00  0.8109E+01  0.8108E+01
     -3.095  0.4669E+00  0.4668E+00  0.8200E+01  0.8200E+01
     -2.900  0.5405E+00  0.5403E+00  0.8306E+01  0.8306E+01
     -2.705  0.6584E+00  0.6584E+00  0.8434E+01  0.8434E+01
     -2.510  0.7017E+00  0.7016E+00  0.8572E+01  0.8572E+01
     -2.315  0.8613E+00  0.8614E+00  0.8741E+01  0.8740E+01
     -2.120  0.8391E+00  0.8390E+00  0.8905E+01  0.8905E+01
     -1.924  0.9058E+00  0.9059E+00  0.9082E+01  0.9082E+01
     -1.729  0.9628E+00  0.9628E+00  0.9271E+01  0.9271E+01
     -1.534  0.9751E+00  0.9750E+00  0.9461E+01  0.9461E+01
     -1.339  0.1045E+01  0.1045E+01  0.9666E+01  0.9666E+01
     -1.144  0.9163E+00  0.9161E+00  0.9845E+01  0.9845E+01
     -0.949  0.1217E+01  0.1216E+01  0.1008E+02  0.1008E+02
     -0.754  0.1292E+01  0.1292E+01  0.1034E+02  0.1034E+02
     -0.559  0.1247E+01  0.1247E+01  0.1058E+02  0.1058E+02
     -0.364  0.1199E+01  0.1199E+01  0.1082E+02  0.1082E+02
     -0.169  0.1015E+01  0.1015E+01  0.1102E+02  0.1102E+02
      0.027  0.1091E+01  0.1091E+01  0.1123E+02  0.1123E+02
      0.222  0.1229E+01  0.1228E+01  0.1147E+02  0.1147E+02
      0.417  0.1682E+01  0.1681E+01  0.1180E+02  0.1180E+02
      0.612  0.1590E+01  0.1590E+01  0.1211E+02  0.1211E+02
      0.807  0.1301E+01  0.1301E+01  0.1237E+02  0.1237E+02
      1.002  0.1625E+01  0.1625E+01  0.1268E+02  0.1268E+02
      1.197  0.1256E+01  0.1256E+01  0.1293E+02  0.1293E+02
      1.392  0.1193E+01  0.1193E+01  0.1316E+02  0.1316E+02
      1.587  0.1306E+01  0.1305E+01  0.1342E+02  0.1342E+02
      1.782  0.1463E+01  0.1463E+01  0.1371E+02  0.1371E+02
      1.978  0.1376E+01  0.1375E+01  0.1398E+02  0.1397E+02
      2.173  0.1353E+01  0.1352E+01  0.1424E+02  0.1424E+02
      2.368  0.1772E+01  0.1770E+01  0.1459E+02  0.1459E+02
      2.563  0.2158E+01  0.2158E+01  0.1501E+02  0.1501E+02
      2.758  0.1734E+01  0.1735E+01  0.1535E+02  0.1535E+02
      2.953  0.1928E+01  0.1926E+01  0.1573E+02  0.1573E+02
      3.148  0.2397E+01  0.2395E+01  0.1620E+02  0.1620E+02
      3.343  0.2349E+01  0.2349E+01  0.1666E+02  0.1666E+02
      3.538  0.2446E+01  0.2445E+01  0.1714E+02  0.1714E+02
      3.733  0.3108E+01  0.3107E+01  0.1774E+02  0.1774E+02
      3.929  0.3090E+01  0.3088E+01  0.1835E+02  0.1835E+02
      4.124  0.3278E+01  0.3277E+01  0.1899E+02  0.1899E+02
      4.319  0.2541E+01  0.2541E+01  0.1949E+02  0.1949E+02
      4.514  0.2550E+01  0.2548E+01  0.1999E+02  0.1999E+02
      4.709  0.2675E+01  0.2672E+01  0.2051E+02  0.2051E+02
      4.904  0.2394E+01  0.2401E+01  0.2098E+02  0.2098E+02
      5.099  0.1803E+01  0.1806E+01  0.2134E+02  0.2134E+02
      5.294  0.1520E+01  0.1520E+01  0.2164E+02  0.2163E+02
      5.489  0.1743E+01  0.1741E+01  0.2198E+02  0.2197E+02
      5.685  0.2382E+01  0.2379E+01  0.2244E+02  0.2244E+02
      5.880  0.3434E+01  0.3423E+01  0.2311E+02  0.2311E+02
      6.075  0.4095E+01  0.4077E+01  0.2391E+02  0.2391E+02
      6.270  0.3989E+01  0.4041E+01  0.2470E+02  0.2470E+02
      6.465  0.4730E+01  0.4774E+01  0.2562E+02  0.2563E+02
      6.660  0.4713E+01  0.4905E+01  0.2654E+02  0.2659E+02
      6.855  0.3530E+01  0.3533E+01  0.2724E+02  0.2729E+02
      7.050  0.2330E+01  0.2360E+01  0.2770E+02  0.2775E+02
      7.245  0.1060E+01  0.8768E+00  0.2791E+02  0.2793E+02
      7.440  0.3014E+00  0.2891E+00  0.2797E+02  0.2798E+02
      7.636  0.5867E-01  0.7423E-01  0.2798E+02  0.2800E+02
      7.831  0.5165E-01  0.8639E-02  0.2799E+02  0.2800E+02
      8.026  0.5230E-01  0.0000E+00  0.2800E+02  0.2800E+02
      8.221  0.5225E-02  0.0000E+00  0.2800E+02  0.2800E+02
      8.416  0.0000E+00  0.0000E+00  0.2800E+02  0.2800E+02
      8.611  0.0000E+00  0.0000E+00  0.2800E+02  0.2800E+02
      8.806  0.0000E+00  0.0000E+00  0.2800E+02  0.2800E+02
      9.001  0.0000E+00  0.0000E+00  0.2800E+02  0.2800E+02
      9.196  0.0000E+00  0.0000E+00  0.2800E+02  0.2800E+02
      9.391  0.0000E+00  0.0000E+00  0.2800E+02  0.2800E+02
      9.587  0.0000E+00  0.0000E+00  0.2800E+02  0.2800E+02
      9.782  0.0000E+00  0.0000E+00  0.2800E+02  0.2800E+02
      9.977  0.0000E+00  0.0000E+00  0.2800E+02  0.2800E+02
     10.172  0.0000E+00  0.0000E+00  0.2800E+02  0.2800E+02
     10.367  0.0000E+00  0.0000E+00  0.2800E+02  0.2800E+02
     10.562  0.0000E+00  0.0000E+00  0.2800E+02  0.2800E+02
     10.56204709    -47.96839188  301      4.51831163      1.00000000
    -47.968  0.0000E+00  0.0000E+00  0.0000E+00  0.0000E+00  0.0000E+00  0.0000E+00  0.0000E+00  0.0000E+00  0.0000E+00  0.0000E+00  0.0000E+00  0.0000E+00  0.0000E+00  0.0000E+00  0.0000E+00  0.0000E+00  0.0000E+00  0.0000E+00
    -47.773  0.0000E+00  0.0000E+00  0.0000E+00  0.0000E+00  0.0000E+00  0.0000E+00  0.0000E+00  0.0000E+00  0.0000E+00  0.0000E+00  0.0000E+00  0.0000E+00  0.0000E+00  0.0000E+00  0.0000E+00  0.0000E+00  0.0000E+00  0.0000E+00
    -47.578  0.0000E+00  0.0000E+00  0.0000E+00  0.0000E+00  0.0000E+00  0.0000E+00  0.0000E+00  0.0000E+00  0.0000E+00  0.0000E+00  0.0000E+00  0.0000E+00  0.0000E+00  0.0000E+00  0.0000E+00  0.0000E+00  0.0000E+00  0.0000E+00
    -47.383  0.0000E+00  0.0000E+00  0.0000E+00  0.0000E+00  0.0000E+00  0.0000E+00  0.0000E+00  0.0000E+00  0.0000E+00  0.0000E+00  0.0000E+00  0.0000E+00  0.0000E+00  0.0000E+00  0.0000E+00  0.0000E+00  0.0000E+00  0.0000E+00
    -47.188  0.0000E+00  0.0000E+00  0.0000E+00  0.0000E+00  0.0000E+00  0.0000E+00  0.0000E+00  0.0000E+00  0.0000E+00  0.0000E+00  0.0000E+00  0.0000E+00  0.0000E+00  0.0000E+00  0.0000E+00  0.0000E+00  0.0000E+00  0.0000E+00
    -46.993  0.0000E+00  0.0000E+00  0.0000E+00  0.0000E+00  0.0000E+00  0.0000E+00  0.0000E+00  0.0000E+00  0.0000E+00  0.0000E+00  0.0000E+00  0.0000E+00  0.0000E+00  0.0000E+00  0.0000E+00  0.0000E+00  0.0000E+00  0.0000E+00
    -46.798  0.0000E+00  0.0000E+00  0.0000E+00  0.0000E+00  0.0000E+00  0.0000E+00  0.0000E+00  0.0000E+00  0.0000E+00  0.0000E+00  0.0000E+00  0.0000E+00  0.0000E+00  0.0000E+00  0.0000E+00  0.0000E+00  0.0000E+00  0.0000E+00
    -46.603  0.0000E+00  0.0000E+00  0.0000E+00  0.0000E+00  0.0000E+00  0.0000E+00  0.0000E+00  0.0000E+00  0.0000E+00  0.0000E+00  0.0000E+00  0.0000E+00  0.0000E+00  0.0000E+00  0.0000E+00  0.0000E+00  0.0000E+00  0.0000E+00
    -46.408  0.0000E+00  0.0000E+00  0.0000E+00  0.0000E+00  0.0000E+00  0.0000E+00  0.0000E+00  0.0000E+00  0.0000E+00  0.0000E+00  0.0000E+00  0.0000E+00  0.0000E+00  0.0000E+00  0.0000E+00  0.0000E+00  0.0000E+00  0.0000E+00
    -46.212  0.0000E+00  0.0000E+00  0.0000E+00  0.0000E+00  0.0000E+00  0.0000E+00  0.0000E+00  0.0000E+00  0.0000E+00  0.0000E+00  0.0000E+00  0.0000E+00  0.0000E+00  0.0000E+00  0.0000E+00  0.0000E+00  0.0000E+00  0.0000E+00
    -46.017  0.0000E+00  0.0000E+00  0.0000E+00  0.0000E+00  0.0000E+00  0.0000E+00  0.0000E+00  0.0000E+00  0.0000E+00  0.0000E+00  0.0000E+00  0.0000E+00  0.0000E+00  0.0000E+00  0.0000E+00  0.0000E+00  0.0000E+00  0.0000E+00
    -45.822  0.1728E-03  0.1692E-03  0.3313E-13  0.3234E-13  0.2794E-16  0.2548E-16  0.3313E-13  0.3234E-13  0.1548E-13  0.1104E-13  0.1487E-13  0.1440E-13  0.8997E-11  0.9695E-11  0.1487E-13  0.1440E-13  0.2609E-13  0.2323E-13
    -45.627  0.8368E-02  0.8192E-02  0.1604E-11  0.1566E-11  0.1353E-14  0.1234E-14  0.1604E-11  0.1566E-11  0.7494E-12  0.5345E-12  0.7202E-12  0.6972E-12  0.4356E-09  0.4695E-09  0.7202E-12  0.6972E-12  0.1264E-11  0.1125E-11
    -45.432  0.3825E+00  0.3751E+00  0.7333E-10  0.7170E-10  0.6184E-13  0.5648E-13  0.7333E-10  0.7170E-10  0.3426E-10  0.2448E-10  0.3292E-10  0.3192E-10  0.1991E-07  0.2149E-07  0.3292E-10  0.3192E-10  0.5776E-10  0.5150E-10
    -45.237  0.3715E+01  0.3706E+01  0.7122E-09  0.7083E-09  0.5998E-12  0.5577E-12  0.7122E-09  0.7083E-09  0.3333E-09  0.2419E-09  0.3197E-09  0.3152E-09  0.1934E-06  0.2123E-06  0.3197E-09  0.3152E-09  0.5611E-09  0.5089E-09
    -45.042  0.9753E+00  0.9919E+00  0.1870E-09  0.1896E-09  0.1572E-12  0.1492E-12  0.1870E-09  0.1896E-09  0.8762E-10  0.6476E-10  0.8390E-10  0.8432E-10  0.5077E-07  0.5683E-07  0.8390E-10  0.8432E-10  0.1473E-09  0.1362E-09
    -44.847  0.0000E+00  0.0000E+00  0.0000E+00  0.0000E+00  0.0000E+00  0.0000E+00  0.0000E+00  0.0000E+00  0.0000E+00  0.0000E+00  0.0000E+00  0.0000E+00  0.0000E+00  0.0000E+00  0.0000E+00  0.0000E+00  0.0000E+00  0.0000E+00
    -44.652  0.0000E+00  0.0000E+00  0.0000E+00  0.0000E+00  0.0000E+00  0.0000E+00  0.0000E+00  0.0000E+00  0.0000E+00  0.0000E+00  0.0000E+00  0.0000E+00  0.0000E+00  0.0000E+00  0.0000E+00  0.0000E+00  0.0000E+00  0.0000E+00
    -44.457  0.0000E+00  0.0000E+00  0.0000E+00  0.0000E+00  0.0000E+00  0.0000E+00  0.0000E+00  0.0000E+00  0.0000E+00  0.0000E+00  0.0000E+00  0.0000E+00  0.0000E+00  0.0000E+00  0.0000E+00  0.0000E+00  0.0000E+00  0.0000E+00
    -44.261  0.0000E+00  0.0000E+00  0.0000E+00  0.0000E+00  0.0000E+00  0.0000E+00  0.0000E+00  0.0000E+00  0.0000E+00  0.0000E+00  0.0000E+00  0.0000E+00  0.0000E+00  0.0000E+00  0.0000E+00  0.0000E+00  0.0000E+00  0.0000E+00
    -44.066  0.0000E+00  0.0000E+00  0.0000E+00  0.0000E+00  0.0000E+00  0.0000E+00  0.0000E+00  0.0000E+00  0.0000E+00  0.0000E+00  0.0000E+00  0.0000E+00  0.0000E+00  0.0000E+00  0.0000E+00  0.0000E+00  0.0000E+00  0.0000E+00
    -43.871  0.0000E+00  0.0000E+00  0.0000E+00  0.0000E+00  0.0000E+00  0.0000E+00  0.0000E+00  0.0000E+00  0.0000E+00  0.0000E+00  0.0000E+00  0.0000E+00  0.0000E+00  0.0000E+00  0.0000E+00  0.0000E+00  0.0000E+00  0.0000E+00
    -43.676  0.0000E+00  0.0000E+00  0.0000E+00  0.0000E+00  0.0000E+00  0.0000E+00  0.0000E+00  0.0000E+00  0.0000E+00  0.0000E+00  0.0000E+00  0.0000E+00  0.0000E+00  0.0000E+00  0.0000E+00  0.0000E+00  0.0000E+00  0.0000E+00
    -43.481  0.0000E+00  0.0000E+00  0.0000E+00  0.0000E+00  0.0000E+00  0.0000E+00  0.0000E+00  0.0000E+00  0.0000E+00  0.0000E+00  0.0000E+00  0.0000E+00  0.0000E+00  0.0000E+00  0.0000E+00  0.0000E+00  0.0000E+00  0.0000E+00
    -43.286  0.0000E+00  0.0000E+00  0.0000E+00  0.0000E+00  0.0000E+00  0.0000E+00  0.0000E+00  0.0000E+00  0.0000E+00  0.0000E+00  0.0000E+00  0.0000E+00  0.0000E+00  0.0000E+00  0.0000E+00  0.0000E+00  0.0000E+00  0.0000E+00
    -43.091  0.0000E+00  0.0000E+00  0.0000E+00  0.0000E+00  0.0000E+00  0.0000E+00  0.0000E+00  0.0000E+00  0.0000E+00  0.0000E+00  0.0000E+00  0.0000E+00  0.0000E+00  0.0000E+00  0.0000E+00  0.0000E+00  0.0000E+00  0.0000E+00
    -42.896  0.0000E+00  0.0000E+00  0.0000E+00  0.0000E+00  0.0000E+00  0.0000E+00  0.0000E+00  0.0000E+00  0.0000E+00  0.0000E+00  0.0000E+00  0.0000E+00  0.0000E+00  0.0000E+00  0.0000E+00  0.0000E+00  0.0000E+00  0.0000E+00
    -42.701  0.0000E+00  0.0000E+00  0.0000E+00  0.0000E+00  0.0000E+00  0.0000E+00  0.0000E+00  0.0000E+00  0.0000E+00  0.0000E+00  0.0000E+00  0.0000E+00  0.0000E+00  0.0000E+00  0.0000E+00  0.0000E+00  0.0000E+00  0.0000E+00
    -42.506  0.0000E+00  0.0000E+00  0.0000E+00  0.0000E+00  0.0000E+00  0.0000E+00  0.0000E+00  0.0000E+00  0.0000E+00  0.0000E+00  0.0000E+00  0.0000E+00  0.0000E+00  0.0000E+00  0.0000E+00  0.0000E+00  0.0000E+00  0.0000E+00
    -42.310  0.0000E+00  0.0000E+00  0.0000E+00  0.0000E+00  0.0000E+00  0.0000E+00  0.0000E+00  0.0000E+00  0.0000E+00  0.0000E+00  0.0000E+00  0.0000E+00  0.0000E+00  0.0000E+00  0.0000E+00  0.0000E+00  0.0000E+00  0.0000E+00
    -42.115  0.0000E+00  0.0000E+00  0.0000E+00  0.0000E+00  0.0000E+00  0.0000E+00  0.0000E+00  0.0000E+00  0.0000E+00  0.0000E+00  0.0000E+00  0.0000E+00  0.0000E+00  0.0000E+00  0.0000E+00  0.0000E+00  0.0000E+00  0.0000E+00
    -41.920  0.0000E+00  0.0000E+00  0.0000E+00  0.0000E+00  0.0000E+00  0.0000E+00  0.0000E+00  0.0000E+00  0.0000E+00  0.0000E+00  0.0000E+00  0.0000E+00  0.0000E+00  0.0000E+00  0.0000E+00  0.0000E+00  0.0000E+00  0.0000E+00
    -41.725  0.0000E+00  0.0000E+00  0.0000E+00  0.0000E+00  0.0000E+00  0.0000E+00  0.0000E+00  0.0000E+00  0.0000E+00  0.0000E+00  0.0000E+00  0.0000E+00  0.0000E+00  0.0000E+00  0.0000E+00  0.0000E+00  0.0000E+00  0.0000E+00
    -41.530  0.0000E+00  0.0000E+00  0.0000E+00  0.0000E+00  0.0000E+00  0.0000E+00  0.0000E+00  0.0000E+00  0.0000E+00  0.0000E+00  0.0000E+00  0.0000E+00  0.0000E+00  0.0000E+00  0.0000E+00  0.0000E+00  0.0000E+00  0.0000E+00
    -41.335  0.0000E+00  0.0000E+00  0.0000E+00  0.0000E+00  0.0000E+00  0.0000E+00  0.0000E+00  0.0000E+00  0.0000E+00  0.0000E+00  0.0000E+00  0.0000E+00  0.0000E+00  0.0000E+00  0.0000E+00  0.0000E+00  0.0000E+00  0.0000E+00
    -41.140  0.0000E+00  0.0000E+00  0.0000E+00  0.0000E+00  0.0000E+00  0.0000E+00  0.0000E+00  0.0000E+00  0.0000E+00  0.0000E+00  0.0000E+00  0.0000E+00  0.0000E+00  0.0000E+00  0.0000E+00  0.0000E+00  0.0000E+00  0.0000E+00
    -40.945  0.0000E+00  0.0000E+00  0.0000E+00  0.0000E+00  0.0000E+00  0.0000E+00  0.0000E+00  0.0000E+00  0.0000E+00  0.0000E+00  0.0000E+00  0.0000E+00  0.0000E+00  0.0000E+00  0.0000E+00  0.0000E+00  0.0000E+00  0.0000E+00
    -40.750  0.0000E+00  0.0000E+00  0.0000E+00  0.0000E+00  0.0000E+00  0.0000E+00  0.0000E+00  0.0000E+00  0.0000E+00  0.0000E+00  0.0000E+00  0.0000E+00  0.0000E+00  0.0000E+00  0.0000E+00  0.0000E+00  0.0000E+00  0.0000E+00
    -40.555  0.0000E+00  0.0000E+00  0.0000E+00  0.0000E+00  0.0000E+00  0.0000E+00  0.0000E+00  0.0000E+00  0.0000E+00  0.0000E+00  0.0000E+00  0.0000E+00  0.0000E+00  0.0000E+00  0.0000E+00  0.0000E+00  0.0000E+00  0.0000E+00
    -40.359  0.0000E+00  0.0000E+00  0.0000E+00  0.0000E+00  0.0000E+00  0.0000E+00  0.0000E+00  0.0000E+00  0.0000E+00  0.0000E+00  0.0000E+00  0.0000E+00  0.0000E+00  0.0000E+00  0.0000E+00  0.0000E+00  0.0000E+00  0.0000E+00
    -40.164  0.0000E+00  0.0000E+00  0.0000E+00  0.0000E+00  0.0000E+00  0.0000E+00  0.0000E+00  0.0000E+00  0.0000E+00  0.0000E+00  0.0000E+00  0.0000E+00  0.0000E+00  0.0000E+00  0.0000E+00  0.0000E+00  0.0000E+00  0.0000E+00
    -39.969  0.0000E+00  0.0000E+00  0.0000E+00  0.0000E+00  0.0000E+00  0.0000E+00  0.0000E+00  0.0000E+00  0.0000E+00  0.0000E+00  0.0000E+00  0.0000E+00  0.0000E+00  0.0000E+00  0.0000E+00  0.0000E+00  0.0000E+00  0.0000E+00
    -39.774  0.0000E+00  0.0000E+00  0.0000E+00  0.0000E+00  0.0000E+00  0.0000E+00  0.0000E+00  0.0000E+00  0.0000E+00  0.0000E+00  0.0000E+00  0.0000E+00  0.0000E+00  0.0000E+00  0.0000E+00  0.0000E+00  0.0000E+00  0.0000E+00
    -39.579  0.0000E+00  0.0000E+00  0.0000E+00  0.0000E+00  0.0000E+00  0.0000E+00  0.0000E+00  0.0000E+00  0.0000E+00  0.0000E+00  0.0000E+00  0.0000E+00  0.0000E+00  0.0000E+00  0.0000E+00  0.0000E+00  0.0000E+00  0.0000E+00
    -39.384  0.0000E+00  0.0000E+00  0.0000E+00  0.0000E+00  0.0000E+00  0.0000E+00  0.0000E+00  0.0000E+00  0.0000E+00  0.0000E+00  0.0000E+00  0.0000E+00  0.0000E+00  0.0000E+00  0.0000E+00  0.0000E+00  0.0000E+00  0.0000E+00
    -39.189  0.0000E+00  0.0000E+00  0.0000E+00  0.0000E+00  0.0000E+00  0.0000E+00  0.0000E+00  0.0000E+00  0.0000E+00  0.0000E+00  0.0000E+00  0.0000E+00  0.0000E+00  0.0000E+00  0.0000E+00  0.0000E+00  0.0000E+00  0.0000E+00
    -38.994  0.0000E+00  0.0000E+00  0.0000E+00  0.0000E+00  0.0000E+00  0.0000E+00  0.0000E+00  0.0000E+00  0.0000E+00  0.0000E+00  0.0000E+00  0.0000E+00  0.0000E+00  0.0000E+00  0.0000E+00  0.0000E+00  0.0000E+00  0.0000E+00
    -38.799  0.0000E+00  0.0000E+00  0.0000E+00  0.0000E+00  0.0000E+00  0.0000E+00  0.0000E+00  0.0000E+00  0.0000E+00  0.0000E+00  0.0000E+00  0.0000E+00  0.0000E+00  0.0000E+00  0.0000E+00  0.0000E+00  0.0000E+00  0.0000E+00
    -38.604  0.0000E+00  0.0000E+00  0.0000E+00  0.0000E+00  0.0000E+00  0.0000E+00  0.0000E+00  0.0000E+00  0.0000E+00  0.0000E+00  0.0000E+00  0.0000E+00  0.0000E+00  0.0000E+00  0.0000E+00  0.0000E+00  0.0000E+00  0.0000E+00
    -38.408  0.0000E+00  0.0000E+00  0.0000E+00  0.0000E+00  0.0000E+00  0.0000E+00  0.0000E+00  0.0000E+00  0.0000E+00  0.0000E+00  0.0000E+00  0.0000E+00  0.0000E+00  0.0000E+00  0.0000E+00  0.0000E+00  0.0000E+00  0.0000E+00
    -38.213  0.0000E+00  0.0000E+00  0.0000E+00  0.0000E+00  0.0000E+00  0.0000E+00  0.0000E+00  0.0000E+00  0.0000E+00  0.0000E+00  0.0000E+00  0.0000E+00  0.0000E+00  0.0000E+00  0.0000E+00  0.0000E+00  0.0000E+00  0.0000E+00