   8   8   1   0
  0.1389891E+02  0.3701284E-09  0.3701284E-09  0.8116446E-09  0.5000000E-15
  1.000000000000000E-004
  CAR 
 unknown system                          
     16.32516627    -41.74449877  301      8.80367421      1.00000000
    -41.744  0.0000E+00  0.0000E+00  0.0000E+00  0.0000E+00
    -41.551  0.0000E+00  0.0000E+00  0.0000E+00  0.0000E+00
    -41.357  0.0000E+00  0.0000E+00  0.0000E+00  0.0000E+00
    -41.164  0.0000E+00  0.0000E+00  0.0000E+00  0.0000E+00
    -40.970  0.0000E+00  0.0000E+00  0.0000E+00  0.0000E+00
    -40.777  0.0000E+00  0.0000E+00  0.0000E+00  0.0000E+00
    -40.583  0.0000E+00  0.0000E+00  0.0000E+00  0.0000E+00
    -40.390  0.0000E+00  0.0000E+00  0.0000E+00  0.0000E+00
    -40.196  0.0000E+00  0.0000E+00  0.0000E+00  0.0000E+00
    -40.002  0.0000E+00  0.0000E+00  0.0000E+00  0.0000E+00
    -39.809  0.0000E+00  0.0000E+00  0.0000E+00  0.0000E+00
    -39.615  0.3382E-03  0.3230E-03  0.6547E-04  0.6252E-04
    -39.422  0.1587E-01  0.1516E-01  0.3138E-02  0.2997E-02
    -39.228  0.7084E+00  0.6787E+00  0.1403E+00  0.1344E+00
    -39.035  0.7368E+01  0.7316E+01  0.1566E+01  0.1551E+01
    -38.841  0.2181E+01  0.2260E+01  0.1989E+01  0.1988E+01
    -38.647  0.0000E+00  0.0000E+00  0.2000E+01  0.2000E+01
    -38.454  0.0000E+00  0.0000E+00  0.2000E+01  0.2000E+01
    -38.260  0.0000E+00  0.0000E+00  0.2000E+01  0.2000E+01
    -38.067  0.0000E+00  0.0000E+00  0.2000E+01  0.2000E+01
    -37.873  0.0000E+00  0.0000E+00  0.2000E+01  0.2000E+01
    -37.680  0.0000E+00  0.0000E+00  0.2000E+01  0.2000E+01
    -37.486  0.0000E+00  0.0000E+00  0.2000E+01  0.2000E+01
    -37.292  0.0000E+00  0.0000E+00  0.2000E+01  0.2000E+01
    -37.099  0.0000E+00  0.0000E+00  0.2000E+01  0.2000E+01
    -36.905  0.0000E+00  0.0000E+00  0.2000E+01  0.2000E+01
    -36.712  0.0000E+00  0.0000E+00  0.2000E+01  0.2000E+01
    -36.518  0.0000E+00  0.0000E+00  0.2000E+01  0.2000E+01
    -36.325  0.0000E+00  0.0000E+00  0.2000E+01  0.2000E+01
    -36.131  0.0000E+00  0.0000E+00  0.2000E+01  0.2000E+01
    -35.938  0.0000E+00  0.0000E+00  0.2000E+01  0.2000E+01
    -35.744  0.0000E+00  0.0000E+00  0.2000E+01  0.2000E+01
    -35.550  0.0000E+00  0.0000E+00  0.2000E+01  0.2000E+01
    -35.357  0.0000E+00  0.0000E+00  0.2000E+01  0.2000E+01
    -35.163  0.0000E+00  0.0000E+00  0.2000E+01  0.2000E+01
    -34.970  0.0000E+00  0.0000E+00  0.2000E+01  0.2000E+01
    -34.776  0.0000E+00  0.0000E+00  0.2000E+01  0.2000E+01
    -34.583  0.0000E+00  0.0000E+00  0.2000E+01  0.2000E+01
    -34.389  0.0000E+00  0.0000E+00  0.2000E+01  0.2000E+01
    -34.195  0.0000E+00  0.0000E+00  0.2000E+01  0.2000E+01
    -34.002  0.0000E+00  0.0000E+00  0.2000E+01  0.2000E+01
    -33.808  0.0000E+00  0.0000E+00  0.2000E+01  0.2000E+01
    -33.615  0.0000E+00  0.0000E+00  0.2000E+01  0.2000E+01
    -33.421  0.0000E+00  0.0000E+00  0.2000E+01  0.2000E+01
    -33.228  0.0000E+00  0.0000E+00  0.2000E+01  0.2000E+01
    -33.034  0.0000E+00  0.0000E+00  0.2000E+01  0.2000E+01
    -32.840  0.0000E+00  0.0000E+00  0.2000E+01  0.2000E+01
    -32.647  0.0000E+00  0.0000E+00  0.2000E+01  0.2000E+01
    -32.453  0.0000E+00  0.0000E+00  0.2000E+01  0.2000E+01
    -32.260  0.0000E+00  0.0000E+00  0.2000E+01  0.2000E+01
    -32.066  0.0000E+00  0.0000E+00  0.2000E+01  0.2000E+01
    -31.873  0.0000E+00  0.0000E+00  0.2000E+01  0.2000E+01
    -31.679  0.0000E+00  0.0000E+00  0.2000E+01  0.2000E+01
    -31.486  0.0000E+00  0.0000E+00  0.2000E+01  0.2000E+01
    -31.292  0.0000E+00  0.0000E+00  0.2000E+01  0.2000E+01
    -31.098  0.0000E+00  0.0000E+00  0.2000E+01  0.2000E+01
    -30.905  0.0000E+00  0.0000E+00  0.2000E+01  0.2000E+01
    -30.711  0.0000E+00  0.0000E+00  0.2000E+01  0.2000E+01
    -30.518  0.0000E+00  0.0000E+00  0.2000E+01  0.2000E+01
    -30.324  0.0000E+00  0.0000E+00  0.2000E+01  0.2000E+01
    -30.131  0.0000E+00  0.0000E+00  0.2000E+01  0.2000E+01
    -29.937  0.0000E+00  0.0000E+00  0.2000E+01  0.2000E+01
    -29.743  0.0000E+00  0.0000E+00  0.2000E+01  0.2000E+01
    -29.550  0.0000E+00  0.0000E+00  0.2000E+01  0.2000E+01
    -29.356  0.0000E+00  0.0000E+00  0.2000E+01  0.2000E+01
    -29.163  0.0000E+00  0.0000E+00  0.2000E+01  0.2000E+01
    -28.969  0.0000E+00  0.0000E+00  0.2000E+01  0.2000E+01
    -28.776  0.0000E+00  0.0000E+00  0.2000E+01  0.2000E+01
    -28.582  0.0000E+00  0.0000E+00  0.2000E+01  0.2000E+01
    -28.388  0.0000E+00  0.0000E+00  0.2000E+01  0.2000E+01
    -28.195  0.0000E+00  0.0000E+00  0.2000E+01  0.2000E+01
    -28.001  0.0000E+00  0.0000E+00  0.2000E+01  0.2000E+01
    -27.808  0.0000E+00  0.0000E+00  0.2000E+01  0.2000E+01
    -27.614  0.0000E+00  0.0000E+00  0.2000E+01  0.2000E+01
    -27.421  0.0000E+00  0.0000E+00  0.2000E+01  0.2000E+01
    -27.227  0.0000E+00  0.0000E+00  0.2000E+01  0.2000E+01
    -27.034  0.0000E+00  0.0000E+00  0.2000E+01  0.2000E+01
    -26.840  0.0000E+00  0.0000E+00  0.2000E+01  0.2000E+01
    -26.646  0.0000E+00  0.0000E+00  0.2000E+01  0.2000E+01
    -26.453  0.0000E+00  0.0000E+00  0.2000E+01  0.2000E+01
    -26.259  0.0000E+00  0.0000E+00  0.2000E+01  0.2000E+01
    -26.066  0.0000E+00  0.0000E+00  0.2000E+01  0.2000E+01
    -25.872  0.0000E+00  0.0000E+00  0.2000E+01  0.2000E+01
    -25.679  0.0000E+00  0.0000E+00  0.2000E+01  0.2000E+01
    -25.485  0.0000E+00  0.0000E+00  0.2000E+01  0.2000E+01
    -25.291  0.0000E+00  0.0000E+00  0.2000E+01  0.2000E+01
    -25.098  0.0000E+00  0.0000E+00  0.2000E+01  0.2000E+01
    -24.904  0.0000E+00  0.0000E+00  0.2000E+01  0.2000E+01
    -24.711  0.0000E+00  0.0000E+00  0.2000E+01  0.2000E+01
    -24.517  0.0000E+00  0.0000E+00  0.2000E+01  0.2000E+01
    -24.324  0.0000E+00  0.0000E+00  0.2000E+01  0.2000E+01
    -24.130  0.0000E+00  0.0000E+00  0.2000E+01  0.2000E+01
    -23.936  0.0000E+00  0.0000E+00  0.2000E+01  0.2000E+01
    -23.743  0.0000E+00  0.0000E+00  0.2000E+01  0.2000E+01
    -23.549  0.0000E+00  0.0000E+00  0.2000E+01  0.2000E+01
    -23.356  0.0000E+00  0.0000E+00  0.2000E+01  0.2000E+01
    -23.162  0.0000E+00  0.0000E+00  0.2000E+01  0.2000E+01
    -22.969  0.0000E+00  0.0000E+00  0.2000E+01  0.2000E+01
    -22.775  0.0000E+00  0.0000E+00  0.2000E+01  0.2000E+01
    -22.582  0.0000E+00  0.0000E+00  0.2000E+01  0.2000E+01
    -22.388  0.0000E+00  0.0000E+00  0.2000E+01  0.2000E+01
    -22.194  0.0000E+00  0.0000E+00  0.2000E+01  0.2000E+01
    -22.001  0.0000E+00  0.0000E+00  0.2000E+01  0.2000E+01
    -21.807  0.0000E+00  0.0000E+00  0.2000E+01  0.2000E+01
    -21.614  0.0000E+00  0.0000E+00  0.2000E+01  0.2000E+01
    -21.420  0.0000E+00  0.0000E+00  0.2000E+01  0.2000E+01
    -21.227  0.0000E+00  0.0000E+00  0.2000E+01  0.2000E+01
    -21.033  0.0000E+00  0.0000E+00  0.2000E+01  0.2000E+01
    -20.839  0.0000E+00  0.0000E+00  0.2000E+01  0.2000E+01
    -20.646  0.0000E+00  0.0000E+00  0.2000E+01  0.2000E+01
    -20.452  0.0000E+00  0.0000E+00  0.2000E+01  0.2000E+01
    -20.259  0.0000E+00  0.0000E+00  0.2000E+01  0.2000E+01
    -20.065  0.0000E+00  0.0000E+00  0.2000E+01  0.2000E+01
    -19.872  0.0000E+00  0.0000E+00  0.2000E+01  0.2000E+01
    -19.678  0.0000E+00  0.0000E+00  0.2000E+01  0.2000E+01
    -19.484  0.0000E+00  0.0000E+00  0.2000E+01  0.2000E+01
    -19.291  0.0000E+00  0.0000E+00  0.2000E+01  0.2000E+01
    -19.097  0.0000E+00  0.0000E+00  0.2000E+01  0.2000E+01
    -18.904  0.0000E+00  0.0000E+00  0.2000E+01  0.2000E+01
    -18.710  0.0000E+00  0.0000E+00  0.2000E+01  0.2000E+01
    -18.517  0.2366E-03  0.2105E-03  0.2000E+01  0.2000E+01
    -18.323  0.1356E-01  0.1289E-01  0.2003E+01  0.2003E+01
    -18.130  0.6302E+00  0.5995E+00  0.2125E+01  0.2119E+01
    -17.936  0.1382E+02  0.1347E+02  0.4799E+01  0.4727E+01
    -17.742  0.1568E+02  0.1601E+02  0.7834E+01  0.7826E+01
    -17.549  0.7520E+00  0.8008E+00  0.7997E+01  0.7997E+01
    -17.355  0.0000E+00  0.0000E+00  0.8000E+01  0.8000E+01
    -17.162  0.0000E+00  0.0000E+00  0.8000E+01  0.8000E+01
    -16.968  0.0000E+00  0.0000E+00  0.8000E+01  0.8000E+01
    -16.775  0.0000E+00  0.0000E+00  0.8000E+01  0.8000E+01
    -16.581  0.0000E+00  0.0000E+00  0.8000E+01  0.8000E+01
    -16.387  0.0000E+00  0.0000E+00  0.8000E+01  0.8000E+01
    -16.194  0.0000E+00  0.0000E+00  0.8000E+01  0.8000E+01
    -16.000  0.0000E+00  0.0000E+00  0.8000E+01  0.8000E+01
    -15.807  0.0000E+00  0.0000E+00  0.8000E+01  0.8000E+01
    -15.613  0.0000E+00  0.0000E+00  0.8000E+01  0.8000E+01
    -15.420  0.0000E+00  0.0000E+00  0.8000E+01  0.8000E+01
    -15.226  0.0000E+00  0.0000E+00  0.8000E+01  0.8000E+01
    -15.032  0.0000E+00  0.0000E+00  0.8000E+01  0.8000E+01
    -14.839  0.0000E+00  0.0000E+00  0.8000E+01  0.8000E+01
    -14.645  0.0000E+00  0.0000E+00  0.8000E+01  0.8000E+01
    -14.452  0.0000E+00  0.0000E+00  0.8000E+01  0.8000E+01
    -14.258  0.0000E+00  0.0000E+00  0.8000E+01  0.8000E+01
    -14.065  0.0000E+00  0.0000E+00  0.8000E+01  0.8000E+01
    -13.871  0.0000E+00  0.0000E+00  0.8000E+01  0.8000E+01
    -13.677  0.0000E+00  0.0000E+00  0.8000E+01  0.8000E+01
    -13.484  0.0000E+00  0.0000E+00  0.8000E+01  0.8000E+01
    -13.290  0.0000E+00  0.0000E+00  0.8000E+01  0.8000E+01
    -13.097  0.0000E+00  0.0000E+00  0.8000E+01  0.8000E+01
    -12.903  0.0000E+00  0.0000E+00  0.8000E+01  0.8000E+01
    -12.710  0.0000E+00  0.0000E+00  0.8000E+01  0.8000E+01
    -12.516  0.0000E+00  0.0000E+00  0.8000E+01  0.8000E+01
    -12.323  0.0000E+00  0.0000E+00  0.8000E+01  0.8000E+01
    -12.129  0.0000E+00  0.0000E+00  0.8000E+01  0.8000E+01
    -11.935  0.0000E+00  0.0000E+00  0.8000E+01  0.8000E+01
    -11.742  0.0000E+00  0.0000E+00  0.8000E+01  0.8000E+01
    -11.548  0.0000E+00  0.0000E+00  0.8000E+01  0.8000E+01
    -11.355  0.0000E+00  0.0000E+00  0.8000E+01  0.8000E+01
    -11.161  0.0000E+00  0.0000E+00  0.8000E+01  0.8000E+01
    -10.968  0.0000E+00  0.0000E+00  0.8000E+01  0.8000E+01
    -10.774  0.0000E+00  0.0000E+00  0.8000E+01  0.8000E+01
    -10.580  0.0000E+00  0.0000E+00  0.8000E+01  0.8000E+01
    -10.387  0.0000E+00  0.0000E+00  0.8000E+01  0.8000E+01
    -10.193  0.0000E+00  0.0000E+00  0.8000E+01  0.8000E+01
    -10.000  0.0000E+00  0.0000E+00  0.8000E+01  0.8000E+01
     -9.806  0.0000E+00  0.0000E+00  0.8000E+01  0.8000E+01
     -9.613  0.0000E+00  0.0000E+00  0.8000E+01  0.8000E+01
     -9.419  0.0000E+00  0.0000E+00  0.8000E+01  0.8000E+01
     -9.225  0.0000E+00  0.0000E+00  0.8000E+01  0.8000E+01
     -9.032  0.0000E+00  0.0000E+00  0.8000E+01  0.8000E+01
     -8.838  0.0000E+00  0.0000E+00  0.8000E+01  0.8000E+01
     -8.645  0.0000E+00  0.0000E+00  0.8000E+01  0.8000E+01
     -8.451  0.0000E+00  0.0000E+00  0.8000E+01  0.8000E+01
     -8.258  0.0000E+00  0.0000E+00  0.8000E+01  0.8000E+01
     -8.064  0.0000E+00  0.0000E+00  0.8000E+01  0.8000E+01
     -7.871  0.0000E+00  0.0000E+00  0.8000E+01  0.8000E+01
     -7.677  0.0000E+00  0.0000E+00  0.8000E+01  0.8000E+01
     -7.483  0.0000E+00  0.0000E+00  0.8000E+01  0.8000E+01
     -7.290  0.0000E+00  0.0000E+00  0.8000E+01  0.8000E+01
     -7.096  0.0000E+00  0.0000E+00  0.8000E+01  0.8000E+01
     -6.903  0.0000E+00  0.0000E+00  0.8000E+01  0.8000E+01
     -6.709  0.0000E+00  0.0000E+00  0.8000E+01  0.8000E+01
     -6.516  0.0000E+00  0.0000E+00  0.8000E+01  0.8000E+01
     -6.322  0.0000E+00  0.0000E+00  0.8000E+01  0.8000E+01
     -6.128  0.0000E+00  0.0000E+00  0.8000E+01  0.8000E+01
     -5.935  0.0000E+00  0.0000E+00  0.8000E+01  0.8000E+01
     -5.741  0.0000E+00  0.0000E+00  0.8000E+01  0.8000E+01
     -5.548  0.0000E+00  0.0000E+00  0.8000E+01  0.8000E+01
     -5.354  0.0000E+00  0.0000E+00  0.8000E+01  0.8000E+01
     -5.161  0.0000E+00  0.0000E+00  0.8000E+01  0.8000E+01
     -4.967  0.0000E+00  0.0000E+00  0.8000E+01  0.8000E+01
     -4.773  0.0000E+00  0.0000E+00  0.8000E+01  0.8000E+01
     -4.580  0.0000E+00  0.0000E+00  0.8000E+01  0.8000E+01
     -4.386  0.0000E+00  0.0000E+00  0.8000E+01  0.8000E+01
     -4.193  0.0000E+00  0.0000E+00  0.8000E+01  0.8000E+01
     -3.999  0.0000E+00  0.0000E+00  0.8000E+01  0.8000E+01
     -3.806  0.0000E+00  0.0000E+00  0.8000E+01  0.8000E+01
     -3.612  0.0000E+00  0.0000E+00  0.8000E+01  0.8000E+01
     -3.419  0.0000E+00  0.0000E+00  0.8000E+01  0.8000E+01
     -3.225  0.0000E+00  0.0000E+00  0.8000E+01  0.8000E+01
     -3.031  0.0000E+00  0.0000E+00  0.8000E+01  0.8000E+01
     -2.838  0.0000E+00  0.0000E+00  0.8000E+01  0.8000E+01
     -2.644  0.0000E+00  0.0000E+00  0.8000E+01  0.8000E+01
     -2.451  0.0000E+00  0.0000E+00  0.8000E+01  0.8000E+01
     -2.257  0.3914E-05  0.3980E-05  0.8000E+01  0.8000E+01
     -2.064  0.1989E-03  0.2022E-03  0.8000E+01  0.8000E+01
     -1.870  0.8028E-02  0.8143E-02  0.8002E+01  0.8002E+01
     -1.676  0.8152E-01  0.8196E-01  0.8017E+01  0.8017E+01
     -1.483  0.1779E+00  0.1783E+00  0.8052E+01  0.8052E+01
     -1.289  0.2334E+00  0.2335E+00  0.8097E+01  0.8097E+01
     -1.096  0.2950E+00  0.2954E+00  0.8154E+01  0.8155E+01
     -0.902  0.3402E+00  0.3402E+00  0.8221E+01  0.8221E+01
     -0.709  0.3706E+00  0.3711E+00  0.8293E+01  0.8293E+01
     -0.515  0.4516E+00  0.4520E+00  0.8381E+01  0.8381E+01
     -0.321  0.4532E+00  0.4529E+00  0.8469E+01  0.8469E+01
     -0.128  0.4919E+00  0.4928E+00  0.8564E+01  0.8565E+01
      0.066  0.6420E+00  0.6420E+00  0.8689E+01  0.8689E+01
      0.259  0.5954E+00  0.5954E+00  0.8804E+01  0.8805E+01
      0.453  0.6036E+00  0.6034E+00  0.8922E+01  0.8922E+01
      0.646  0.6427E+00  0.6425E+00  0.9047E+01  0.9047E+01
      0.840  0.7094E+00  0.7100E+00  0.9185E+01  0.9185E+01
      1.033  0.6479E+00  0.6474E+00  0.9310E+01  0.9311E+01
      1.227  0.6485E+00  0.6489E+00  0.9437E+01  0.9437E+01
      1.421  0.8500E+00  0.8508E+00  0.9601E+01  0.9602E+01
      1.614  0.7668E+00  0.7666E+00  0.9750E+01  0.9751E+01
      1.808  0.8074E+00  0.8074E+00  0.9907E+01  0.9908E+01
      2.001  0.9000E+00  0.9011E+00  0.1008E+02  0.1008E+02
      2.195  0.1031E+01  0.1031E+01  0.1028E+02  0.1028E+02
      2.388  0.1035E+01  0.1035E+01  0.1048E+02  0.1048E+02
      2.582  0.1024E+01  0.1024E+01  0.1068E+02  0.1068E+02
      2.776  0.9335E+00  0.9321E+00  0.1086E+02  0.1086E+02
      2.969  0.6955E+00  0.6956E+00  0.1100E+02  0.1100E+02
      3.163  0.8398E+00  0.8403E+00  0.1116E+02  0.1116E+02
      3.356  0.7439E+00  0.7432E+00  0.1131E+02  0.1131E+02
      3.550  0.7203E+00  0.7203E+00  0.1145E+02  0.1145E+02
      3.743  0.9050E+00  0.9063E+00  0.1162E+02  0.1162E+02
      3.937  0.1175E+01  0.1175E+01  0.1185E+02  0.1185E+02
      4.131  0.1061E+01  0.1060E+01  0.1206E+02  0.1206E+02
      4.324  0.1043E+01  0.1044E+01  0.1226E+02  0.1226E+02
      4.518  0.1351E+01  0.1352E+01  0.1252E+02  0.1252E+02
      4.711  0.1170E+01  0.1169E+01  0.1275E+02  0.1275E+02
      4.905  0.1087E+01  0.1087E+01  0.1296E+02  0.1296E+02
      5.098  0.1084E+01  0.1084E+01  0.1317E+02  0.1317E+02
      5.292  0.1378E+01  0.1379E+01  0.1344E+02  0.1344E+02
      5.485  0.1116E+01  0.1115E+01  0.1366E+02  0.1366E+02
      5.679  0.1225E+01  0.1225E+01  0.1390E+02  0.1390E+02
      5.873  0.1168E+01  0.1167E+01  0.1412E+02  0.1412E+02
      6.066  0.1192E+01  0.1193E+01  0.1435E+02  0.1436E+02
      6.260  0.1557E+01  0.1558E+01  0.1466E+02  0.1466E+02
      6.453  0.1525E+01  0.1525E+01  0.1495E+02  0.1495E+02
      6.647  0.1663E+01  0.1664E+01  0.1528E+02  0.1528E+02
      6.840  0.1415E+01  0.1415E+01  0.1555E+02  0.1555E+02
      7.034  0.1961E+01  0.1963E+01  0.1593E+02  0.1593E+02
      7.228  0.2347E+01  0.2346E+01  0.1639E+02  0.1639E+02
      7.421  0.1988E+01  0.1986E+01  0.1677E+02  0.1678E+02
      7.615  0.2211E+01  0.2210E+01  0.1720E+02  0.1720E+02
      7.808  0.2678E+01  0.2677E+01  0.1772E+02  0.1772E+02
      8.002  0.2787E+01  0.2785E+01  0.1827E+02  0.1827E+02
      8.195  0.2555E+01  0.2553E+01  0.1876E+02  0.1876E+02
      8.389  0.2281E+01  0.2281E+01  0.1921E+02  0.1921E+02
      8.583  0.1938E+01  0.1935E+01  0.1958E+02  0.1958E+02
      8.776  0.1894E+01  0.1894E+01  0.1995E+02  0.1995E+02
      8.970  0.2084E+01  0.2078E+01  0.2036E+02  0.2035E+02
      9.163  0.1809E+01  0.1813E+01  0.2071E+02  0.2071E+02
      9.357  0.1352E+01  0.1352E+01  0.2097E+02  0.2097E+02
      9.550  0.1352E+01  0.1353E+01  0.2123E+02  0.2123E+02
      9.744  0.9403E+00  0.9422E+00  0.2142E+02  0.2142E+02
      9.938  0.8828E+00  0.8828E+00  0.2159E+02  0.2159E+02
     10.131  0.8009E+00  0.8015E+00  0.2175E+02  0.2174E+02
     10.325  0.8598E+00  0.8583E+00  0.2191E+02  0.2191E+02
     10.518  0.1047E+01  0.1049E+01  0.2212E+02  0.2211E+02
     10.712  0.8770E+00  0.8796E+00  0.2229E+02  0.2229E+02
     10.905  0.1534E+01  0.1533E+01  0.2258E+02  0.2258E+02
     11.099  0.1971E+01  0.1975E+01  0.2297E+02  0.2297E+02
     11.292  0.2197E+01  0.2198E+01  0.2339E+02  0.2339E+02
     11.486  0.2742E+01  0.2733E+01  0.2392E+02  0.2392E+02
     11.680  0.3268E+01  0.3263E+01  0.2456E+02  0.2456E+02
     11.873  0.2495E+01  0.2496E+01  0.2504E+02  0.2504E+02
     12.067  0.2459E+01  0.2448E+01  0.2552E+02  0.2552E+02
     12.260  0.2651E+01  0.2631E+01  0.2604E+02  0.2603E+02
     12.454  0.2710E+01  0.2691E+01  0.2656E+02  0.2655E+02
     12.647  0.3074E+01  0.2979E+01  0.2716E+02  0.2713E+02
     12.841  0.2006E+01  0.2089E+01  0.2755E+02  0.2754E+02
     13.035  0.1041E+01  0.1045E+01  0.2776E+02  0.2774E+02
     13.228  0.6454E+00  0.6705E+00  0.2788E+02  0.2787E+02
     13.422  0.4409E+00  0.3807E+00  0.2797E+02  0.2795E+02
     13.615  0.1432E+00  0.1865E+00  0.2800E+02  0.2798E+02
     13.809  0.1316E-01  0.7303E-01  0.2800E+02  0.2800E+02
     14.002  0.2757E-03  0.5631E-02  0.2800E+02  0.2800E+02
     14.196  0.0000E+00  0.0000E+00  0.2800E+02  0.2800E+02
     14.390  0.0000E+00  0.0000E+00  0.2800E+02  0.2800E+02
     14.583  0.0000E+00  0.0000E+00  0.2800E+02  0.2800E+02
     14.777  0.0000E+00  0.0000E+00  0.2800E+02  0.2800E+02
     14.970  0.0000E+00  0.0000E+00  0.2800E+02  0.2800E+02
     15.164  0.0000E+00  0.0000E+00  0.2800E+02  0.2800E+02
     15.357  0.0000E+00  0.0000E+00  0.2800E+02  0.2800E+02
     15.551  0.0000E+00  0.0000E+00  0.2800E+02  0.2800E+02
     15.744  0.0000E+00  0.0000E+00  0.2800E+02  0.2800E+02
     15.938  0.0000E+00  0.0000E+00  0.2800E+02  0.2800E+02
     16.132  0.0000E+00  0.0000E+00  0.2800E+02  0.2800E+02
     16.325  0.0000E+00  0.0000E+00  0.2800E+02  0.2800E+02
     16.32516627    -41.74449877  301      8.80367421      1.00000000
    -41.744  0.0000E+00  0.0000E+00  0.0000E+00  0.0000E+00  0.0000E+00  0.0000E+00  0.0000E+00  0.0000E+00  0.0000E+00  0.0000E+00  0.0000E+00  0.0000E+00  0.0000E+00  0.0000E+00  0.0000E+00  0.0000E+00  0.0000E+00  0.0000E+00
    -41.551  0.0000E+00  0.0000E+00  0.0000E+00  0.0000E+00  0.0000E+00  0.0000E+00  0.0000E+00  0.0000E+00  0.0000E+00  0.0000E+00  0.0000E+00  0.0000E+00  0.0000E+00  0.0000E+00  0.0000E+00  0.0000E+00  0.0000E+00  0.0000E+00
    -41.357  0.0000E+00  0.0000E+00  0.0000E+00  0.0000E+00  0.0000E+00  0.0000E+00  0.0000E+00  0.0000E+00  0.0000E+00  0.0000E+00  0.0000E+00  0.0000E+00  0.0000E+00  0.0000E+00  0.0000E+00  0.0000E+00  0.0000E+00  0.0000E+00
    -41.164  0.0000E+00  0.0000E+00  0.0000E+00  0.0000E+00  0.0000E+00  0.0000E+00  0.0000E+00  0.0000E+00  0.0000E+00  0.0000E+00  0.0000E+00  0.0000E+00  0.0000E+00  0.0000E+00  0.0000E+00  0.0000E+00  0.0000E+00  0.0000E+00
    -40.970  0.0000E+00  0.0000E+00  0.0000E+00  0.0000E+00  0.0000E+00  0.0000E+00  0.0000E+00  0.0000E+00  0.0000E+00  0.0000E+00  0.0000E+00  0.0000E+00  0.0000E+00  0.0000E+00  0.0000E+00  0.0000E+00  0.0000E+00  0.0000E+00
    -40.777  0.0000E+00  0.0000E+00  0.0000E+00  0.0000E+00  0.0000E+00  0.0000E+00  0.0000E+00  0.0000E+00  0.0000E+00  0.0000E+00  0.0000E+00  0.0000E+00  0.0000E+00  0.0000E+00  0.0000E+00  0.0000E+00  0.0000E+00  0.0000E+00
    -40.583  0.0000E+00  0.0000E+00  0.0000E+00  0.0000E+00  0.0000E+00  0.0000E+00  0.0000E+00  0.0000E+00  0.0000E+00  0.0000E+00  0.0000E+00  0.0000E+00  0.0000E+00  0.0000E+00  0.0000E+00  0.0000E+00  0.0000E+00  0.0000E+00
    -40.390  0.0000E+00  0.0000E+00  0.0000E+00  0.0000E+00  0.0000E+00  0.0000E+00  0.0000E+00  0.0000E+00  0.0000E+00  0.0000E+00  0.0000E+00  0.0000E+00  0.0000E+00  0.0000E+00  0.0000E+00  0.0000E+00  0.0000E+00  0.0000E+00
    -40.196  0.0000E+00  0.0000E+00  0.0000E+00  0.0000E+00  0.0000E+00  0.0000E+00  0.0000E+00  0.0000E+00  0.0000E+00  0.0000E+00  0.0000E+00  0.0000E+00  0.0000E+00  0.0000E+00  0.0000E+00  0.0000E+00  0.0000E+00  0.0000E+00
    -40.002  0.0000E+00  0.0000E+00  0.0000E+00  0.0000E+00  0.0000E+00  0.0000E+00  0.0000E+00  0.0000E+00  0.0000E+00  0.0000E+00  0.0000E+00  0.0000E+00  0.0000E+00  0.0000E+00  0.0000E+00  0.0000E+00  0.0000E+00  0.0000E+00
    -39.809  0.0000E+00  0.0000E+00  0.0000E+00  0.0000E+00  0.0000E+00  0.0000E+00  0.0000E+00  0.0000E+00  0.0000E+00  0.0000E+00  0.0000E+00  0.0000E+00  0.0000E+00  0.0000E+00  0.0000E+00  0.0000E+00  0.0000E+00  0.0000E+00
    -39.615  0.1684E-03  0.1608E-03  0.1043E-10  0.9962E-11  0.2117E-13  0.2044E-13  0.1043E-10  0.9962E-11  0.2749E-13  0.2870E-13  0.1207E-13  0.1430E-13  0.3175E-10  0.3095E-10  0.1207E-13  0.1430E-13  0.6989E-11  0.6653E-11
    -39.422  0.7902E-02  0.7547E-02  0.4894E-09  0.4676E-09  0.9935E-12  0.9592E-12  0.4894E-09  0.4676E-09  0.1290E-11  0.1347E-11  0.5667E-12  0.6710E-12  0.1490E-08  0.1453E-08  0.5667E-12  0.6710E-12  0.3280E-09  0.3123E-09
    -39.228  0.3527E+00  0.3379E+00  0.2184E-07  0.2093E-07  0.4416E-10  0.4278E-10  0.2184E-07  0.2093E-07  0.5761E-10  0.6036E-10  0.2530E-10  0.3004E-10  0.6638E-07  0.6494E-07  0.2530E-10  0.3004E-10  0.1464E-07  0.1399E-07
    -39.035  0.3668E+01  0.3642E+01  0.2268E-06  0.2253E-06  0.4393E-09  0.4419E-09  0.2268E-06  0.2253E-06  0.6032E-09  0.6570E-09  0.2636E-09  0.3239E-09  0.6778E-06  0.6875E-06  0.2636E-09  0.3239E-09  0.1527E-06  0.1511E-06
    -38.841  0.1086E+01  0.1125E+01  0.6698E-07  0.6944E-07  0.1232E-09  0.1296E-09  0.6698E-07  0.6944E-07  0.1798E-09  0.2051E-09  0.7822E-10  0.1001E-09  0.1963E-06  0.2078E-06  0.7822E-10  0.1001E-09  0.4521E-07  0.4669E-07
    -38.647  0.0000E+00  0.0000E+00  0.0000E+00  0.0000E+00  0.0000E+00  0.0000E+00  0.0000E+00  0.0000E+00  0.0000E+00  0.0000E+00  0.0000E+00  0.0000E+00  0.0000E+00  0.0000E+00  0.0000E+00  0.0000E+00  0.0000E+00  0.0000E+00
    -38.454  0.0000E+00  0.0000E+00  0.0000E+00  0.0000E+00  0.0000E+00  0.0000E+00  0.0000E+00  0.0000E+00  0.0000E+00  0.0000E+00  0.0000E+00  0.0000E+00  0.0000E+00  0.0000E+00  0.0000E+00  0.0000E+00  0.0000E+00  0.0000E+00
    -38.260  0.0000E+00  0.0000E+00  0.0000E+00  0.0000E+00  0.0000E+00  0.0000E+00  0.0000E+00  0.0000E+00  0.0000E+00  0.0000E+00  0.0000E+00  0.0000E+00  0.0000E+00  0.0000E+00  0.0000E+00  0.0000E+00  0.0000E+00  0.0000E+00
    -38.067  0.0000E+00  0.0000E+00  0.0000E+00  0.0000E+00  0.0000E+00  0.0000E+00  0.0000E+00  0.0000E+00  0.0000E+00  0.0000E+00  0.0000E+00  0.0000E+00  0.0000E+00  0.0000E+00  0.0000E+00  0.0000E+00  0.0000E+00  0.0000E+00
    -37.873  0.0000E+00  0.0000E+00  0.0000E+00  0.0000E+00  0.0000E+00  0.0000E+00  0.0000E+00  0.0000E+00  0.0000E+00  0.0000E+00  0.0000E+00  0.0000E+00  0.0000E+00  0.0000E+00  0.0000E+00  0.0000E+00  0.0000E+00  0.0000E+00
    -37.680  0.0000E+00  0.0000E+00  0.0000E+00  0.0000E+00  0.0000E+00  0.0000E+00  0.0000E+00  0.0000E+00  0.0000E+00  0.0000E+00  0.0000E+00  0.0000E+00  0.0000E+00  0.0000E+00  0.0000E+00  0.0000E+00  0.0000E+00  0.0000E+00
    -37.486  0.0000E+00  0.0000E+00  0.0000E+00  0.0000E+00  0.0000E+00  0.0000E+00  0.0000E+00  0.0000E+00  0.0000E+00  0.0000E+00  0.0000E+00  0.0000E+00  0.0000E+00  0.0000E+00  0.0000E+00  0.0000E+00  0.0000E+00  0.0000E+00
    -37.292  0.0000E+00  0.0000E+00  0.0000E+00  0.0000E+00  0.0000E+00  0.0000E+00  0.0000E+00  0.0000E+00  0.0000E+00  0.0000E+00  0.0000E+00  0.0000E+00  0.0000E+00  0.0000E+00  0.0000E+00  0.0000E+00  0.0000E+00  0.0000E+00
    -37.099  0.0000E+00  0.0000E+00  0.0000E+00  0.0000E+00  0.0000E+00  0.0000E+00  0.0000E+00  0.0000E+00  0.0000E+00  0.0000E+00  0.0000E+00  0.0000E+00  0.0000E+00  0.0000E+00  0.0000E+00  0.0000E+00  0.0000E+00  0.0000E+00
    -36.905  0.0000E+00  0.0000E+00  0.0000E+00  0.0000E+00  0.0000E+00  0.0000E+00  0.0000E+00  0.0000E+00  0.0000E+00  0.0000E+00  0.0000E+00  0.0000E+00  0.0000E+00  0.0000E+00  0.0000E+00  0.0000E+00  0.0000E+00  0.0000E+00
    -36.712  0.0000E+00  0.0000E+00  0.0000E+00  0.0000E+00  0.0000E+00  0.0000E+00  0.0000E+00  0.0000E+00  0.0000E+00  0.0000E+00  0.0000E+00  0.0000E+00  0.0000E+00  0.0000E+00  0.0000E+00  0.0000E+00  0.0000E+00  0.0000E+00
    -36.518  0.0000E+00  0.0000E+00  0.0000E+00  0.0000E+00  0.0000E+00  0.0000E+00  0.0000E+00  0.0000E+00  0.0000E+00  0.0000E+00  0.0000E+00  0.0000E+00  0.0000E+00  0.0000E+00  0.0000E+00  0.0000E+00  0.0000E+00  0.0000E+00
    -36.325  0.0000E+00  0.0000E+00  0.0000E+00  0.0000E+00  0.0000E+00  0.0000E+00  0.0000E+00  0.0000E+00  0.0000E+00  0.0000E+00  0.0000E+00  0.0000E+00  0.0000E+00  0.0000E+00  0.0000E+00  0.0000E+00  0.0000E+00  0.0000E+00
    -36.131  0.0000E+00  0.0000E+00  0.0000E+00  0.0000E+00  0.0000E+00  0.0000E+00  0.0000E+00  0.0000E+00  0.0000E+00  0.0000E+00  0.0000E+00  0.0000E+00  0.0000E+00  0.0000E+00  0.0000E+00  0.0000E+00  0.0000E+00  0.0000E+00
    -35.938  0.0000E+00  0.0000E+00  0.0000E+00  0.0000E+00  0.0000E+00  0.0000E+00  0.0000E+00  0.0000E+00  0.0000E+00  0.0000E+00  0.0000E+00  0.0000E+00  0.0000E+00  0.0000E+00  0.0000E+00  0.0000E+00  0.0000E+00  0.0000E+00
    -35.744  0.0000E+00  0.0000E+00  0.0000E+00  0.0000E+00  0.0000E+00  0.0000E+00  0.0000E+00  0.0000E+00  0.0000E+00  0.0000E+00  0.0000E+00  0.0000E+00  0.0000E+00  0.0000E+00  0.0000E+00  0.0000E+00  0.0000E+00  0.0000E+00
    -35.550  0.0000E+00  0.0000E+00  0.0000E+00  0.0000E+00  0.0000E+00  0.0000E+00  0.0000E+00  0.0000E+00  0.0000E+00  0.0000E+00  0.0000E+00  0.0000E+00  0.0000E+00  0.0000E+00  0.0000E+00  0.0000E+00  0.0000E+00  0.0000E+00
    -35.357  0.0000E+00  0.0000E+00  0.0000E+00  0.0000E+00  0.0000E+00  0.0000E+00  0.0000E+00  0.0000E+00  0.0000E+00  0.0000E+00  0.0000E+00  0.0000E+00  0.0000E+00  0.0000E+00  0.0000E+00  0.0000E+00  0.0000E+00  0.0000E+00
    -35.163  0.0000E+00  0.0000E+00  0.0000E+00  0.0000E+00  0.0000E+00  0.0000E+00  0.0000E+00  0.0000E+00  0.0000E+00  0.0000E+00  0.0000E+00  0.0000E+00  0.0000E+00  0.0000E+00  0.0000E+00  0.0000E+00  0.0000E+00  0.0000E+00
    -34.970  0.0000E+00  0.0000E+00  0.0000E+00  0.0000E+00  0.0000E+00  0.0000E+00  0.0000E+00  0.0000E+00  0.0000E+00  0.0000E+00  0.0000E+00  0.0000E+00  0.0000E+00  0.0000E+00  0.0000E+00  0.0000E+00  0.0000E+00  0.0000E+00
    -34.776  0.0000E+00  0.0000E+00  0.0000E+00  0.0000E+00  0.0000E+00  0.0000E+00  0.0000E+00  0.0000E+00  0.0000E+00  0.0000E+00  0.0000E+00  0.0000E+00  0.0000E+00  0.0000E+00  0.0000E+00  0.0000E+00  0.0000E+00  0.0000E+00
    -34.583  0.0000E+00  0.0000E+00  0.0000E+00  0.0000E+00  0.0000E+00  0.0000E+00  0.0000E+00  0.0000E+00  0.0000E+00  0.0000E+00  0.0000E+00  0.0000E+00  0.0000E+00  0.0000E+00  0.0000E+00  0.0000E+00  0.0000E+00  0.0000E+00
    -34.389  0.0000E+00  0.0000E+00  0.0000E+00  0.0000E+00  0.0000E+00  0.0000E+00  0.0000E+00  0.0000E+00  0.0000E+00  0.0000E+00  0.0000E+00  0.0000E+00  0.0000E+00  0.0000E+00  0.0000E+00  0.0000E+00  0.0000E+00  0.0000E+00
    -34.195  0.0000E+00  0.0000E+00  0.0000E+00  0.0000E+00  0.0000E+00  0.0000E+00  0.0000E+00  0.0000E+00  0.0000E+00  0.0000E+00  0.0000E+00  0.0000E+00  0.0000E+00  0.0000E+00  0.0000E+00  0.0000E+00  0.0000E+00  0.0000E+00
    -34.002  0.0000E+00  0.0000E+00  0.0000E+00  0.0000E+00  0.0000E+00  0.0000E+00  0.0000E+00  0.0000E+00  0.0000E+00  0.0000E+00  0.0000E+00  0.0000E+00  0.0000E+00  0.0000E+00  0.0000E+00  0.0000E+00  0.0000E+00  0.0000E+00
    -33.808  0.0000E+00  0.0000E+00  0.0000E+00  0.0000E+00  0.0000E+00  0.0000E+00  0.0000E+00  0.0000E+00  0.0000E+00  0.0000E+00  0.0000E+00  0.0000E+00  0.0000E+00  0.0000E+00  0.0000E+00  0.0000E+00  0.0000E+00  0.0000E+00
    -33.615  0.0000E+00  0.0000E+00  0.0000E+00  0.0000E+00  0.0000E+00  0.0000E+00  0.0000E+00  0.0000E+00  0.0000E+00  0.0000E+00  0.0000E+00  0.0000E+00  0.0000E+00  0.0000E+00  0.0000E+00  0.0000E+00  0.0000E+00  0.0000E+00
    -33.421  0.0000E+00  0.0000E+00  0.0000E+00  0.0000E+00  0.0000E+00  0.0000E+00  0.0000E+00  0.0000E+00  0.0000E+00  0.0000E+00  0.0000E+00  0.0000E+00  0.0000E+00  0.0000E+00  0.0000E+00  0.0000E+00  0.0000E+00  0.0000E+00
    -33.228  0.0000E+00  0.0000E+00  0.0000E+00  0.0000E+00  0.0000E+00  0.0000E+00  0.0000E+00  0.0000E+00  0.0000E+00  0.0000E+00  0.0000E+00  0.0000E+00  0.0000E+00  0.0000E+00  0.0000E+00  0.0000E+00  0.0000E+00  0.0000E+00
    -33.034  0.0000E+00  0.0000E+00  0.0000E+00  0.0000E+00  0.0000E+00  0.0000E+00  0.0000E+00  0.0000E+00  0.0000E+00  0.0000E+00  0.0000E+00  0.0000E+00  0.0000E+00  0.0000E+00  0.0000E+00  0.0000E+00  0.0000E+00  0.0000E+00
    -32.840  0.0000E+00  0.0000E+00  0.0000E+00  0.0000E+00  0.0000E+00  0.0000E+00  0.0000E+00  0.0000E+00  0.0000E+00  0.0000E+00  0.0000E+00  0.0000E+00  0.0000E+00  0.0000E+00  0.0000E+00  0.0000E+00  0.0000E+00  0.0000E+00
    -32.647  0.0000E+00  0.0000E+00  0.0000E+00  0.0000E+00  0.0000E+00  0.0000E+00  0.0000E+00  0.0000E+00  0.0000E+00  0.0000E+00  0.0000E+00  0.0000E+00  0.0000E+00  0.0000E+00  0.0000E+00  0.0000E+00  0.0000E+00  0.0000E+00
    -32.453  0.0000E+00  0.0000E+00  0.0000E+00  0.0000E+00  0.0000E+00  0.0000E+00  0.0000E+00  0.0000E+00  0.0000E+00  0.0000E+00  0.0000E+00  0.0000E+00  0.0000E+00  0.0000E+00  0.0000E+00  0.0000E+00  0.0000E+00  0.0000E+00
    -32.260  0.0000E+00  0.0000E+00  0.0000E+00  0.0000E+00  0.0000E+00  0.0000E+00  0.0000E+00  0.0000E+00  0.0000E+00  0.0000E+00  0.0000E+00  0.0000E+00  0.0000E+00  0.0000E+00  0.0000E+00  0.0000E+00  0.0000E+00  0.0000E+00
    -32.066  0.0000E+00  0.0000E+00  0.0000E+00  0.0000E+00  0.0000E+00  0.0000E+00  0.0000E+00  0.0000E+00  0.0000E+00  0.0000E+00  0.0000E+00  0.0000E+00  0.0000E+00  0.0000E+00  0.0000E+00  0.0000E+00  0.0000E+00  0.0000E+00