   8   8   1   0
  0.1579177E+02  0.3862209E-09  0.3862209E-09  0.8469335E-09  0.5000000E-15
  1.000000000000000E-004
  CAR 
 unknown system                          
     14.78905360    -43.47489455  301      7.58273289      1.00000000
    -43.475  0.0000E+00  0.0000E+00  0.0000E+00  0.0000E+00
    -43.281  0.0000E+00  0.0000E+00  0.0000E+00  0.0000E+00
    -43.086  0.0000E+00  0.0000E+00  0.0000E+00  0.0000E+00
    -42.892  0.0000E+00  0.0000E+00  0.0000E+00  0.0000E+00
    -42.698  0.0000E+00  0.0000E+00  0.0000E+00  0.0000E+00
    -42.504  0.0000E+00  0.0000E+00  0.0000E+00  0.0000E+00
    -42.310  0.0000E+00  0.0000E+00  0.0000E+00  0.0000E+00
    -42.115  0.0000E+00  0.0000E+00  0.0000E+00  0.0000E+00
    -41.921  0.0000E+00  0.0000E+00  0.0000E+00  0.0000E+00
    -41.727  0.0000E+00  0.0000E+00  0.0000E+00  0.0000E+00
    -41.533  0.0000E+00  0.0000E+00  0.0000E+00  0.0000E+00
    -41.339  0.3459E-03  0.3232E-03  0.6719E-04  0.6278E-04
    -41.144  0.1645E-01  0.1537E-01  0.3262E-02  0.3048E-02
    -40.950  0.7411E+00  0.6959E+00  0.1472E+00  0.1382E+00
    -40.756  0.7422E+01  0.7351E+01  0.1589E+01  0.1566E+01
    -40.562  0.2064E+01  0.2176E+01  0.1989E+01  0.1989E+01
    -40.367  0.0000E+00  0.0000E+00  0.2000E+01  0.2000E+01
    -40.173  0.0000E+00  0.0000E+00  0.2000E+01  0.2000E+01
    -39.979  0.0000E+00  0.0000E+00  0.2000E+01  0.2000E+01
    -39.785  0.0000E+00  0.0000E+00  0.2000E+01  0.2000E+01
    -39.591  0.0000E+00  0.0000E+00  0.2000E+01  0.2000E+01
    -39.396  0.0000E+00  0.0000E+00  0.2000E+01  0.2000E+01
    -39.202  0.0000E+00  0.0000E+00  0.2000E+01  0.2000E+01
    -39.008  0.0000E+00  0.0000E+00  0.2000E+01  0.2000E+01
    -38.814  0.0000E+00  0.0000E+00  0.2000E+01  0.2000E+01
    -38.620  0.0000E+00  0.0000E+00  0.2000E+01  0.2000E+01
    -38.425  0.0000E+00  0.0000E+00  0.2000E+01  0.2000E+01
    -38.231  0.0000E+00  0.0000E+00  0.2000E+01  0.2000E+01
    -38.037  0.0000E+00  0.0000E+00  0.2000E+01  0.2000E+01
    -37.843  0.0000E+00  0.0000E+00  0.2000E+01  0.2000E+01
    -37.648  0.0000E+00  0.0000E+00  0.2000E+01  0.2000E+01
    -37.454  0.0000E+00  0.0000E+00  0.2000E+01  0.2000E+01
    -37.260  0.0000E+00  0.0000E+00  0.2000E+01  0.2000E+01
    -37.066  0.0000E+00  0.0000E+00  0.2000E+01  0.2000E+01
    -36.872  0.0000E+00  0.0000E+00  0.2000E+01  0.2000E+01
    -36.677  0.0000E+00  0.0000E+00  0.2000E+01  0.2000E+01
    -36.483  0.0000E+00  0.0000E+00  0.2000E+01  0.2000E+01
    -36.289  0.0000E+00  0.0000E+00  0.2000E+01  0.2000E+01
    -36.095  0.0000E+00  0.0000E+00  0.2000E+01  0.2000E+01
    -35.901  0.0000E+00  0.0000E+00  0.2000E+01  0.2000E+01
    -35.706  0.0000E+00  0.0000E+00  0.2000E+01  0.2000E+01
    -35.512  0.0000E+00  0.0000E+00  0.2000E+01  0.2000E+01
    -35.318  0.0000E+00  0.0000E+00  0.2000E+01  0.2000E+01
    -35.124  0.0000E+00  0.0000E+00  0.2000E+01  0.2000E+01
    -34.930  0.0000E+00  0.0000E+00  0.2000E+01  0.2000E+01
    -34.735  0.0000E+00  0.0000E+00  0.2000E+01  0.2000E+01
    -34.541  0.0000E+00  0.0000E+00  0.2000E+01  0.2000E+01
    -34.347  0.0000E+00  0.0000E+00  0.2000E+01  0.2000E+01
    -34.153  0.0000E+00  0.0000E+00  0.2000E+01  0.2000E+01
    -33.958  0.0000E+00  0.0000E+00  0.2000E+01  0.2000E+01
    -33.764  0.0000E+00  0.0000E+00  0.2000E+01  0.2000E+01
    -33.570  0.0000E+00  0.0000E+00  0.2000E+01  0.2000E+01
    -33.376  0.0000E+00  0.0000E+00  0.2000E+01  0.2000E+01
    -33.182  0.0000E+00  0.0000E+00  0.2000E+01  0.2000E+01
    -32.987  0.0000E+00  0.0000E+00  0.2000E+01  0.2000E+01
    -32.793  0.0000E+00  0.0000E+00  0.2000E+01  0.2000E+01
    -32.599  0.0000E+00  0.0000E+00  0.2000E+01  0.2000E+01
    -32.405  0.0000E+00  0.0000E+00  0.2000E+01  0.2000E+01
    -32.211  0.0000E+00  0.0000E+00  0.2000E+01  0.2000E+01
    -32.016  0.0000E+00  0.0000E+00  0.2000E+01  0.2000E+01
    -31.822  0.0000E+00  0.0000E+00  0.2000E+01  0.2000E+01
    -31.628  0.0000E+00  0.0000E+00  0.2000E+01  0.2000E+01
    -31.434  0.0000E+00  0.0000E+00  0.2000E+01  0.2000E+01
    -31.239  0.0000E+00  0.0000E+00  0.2000E+01  0.2000E+01
    -31.045  0.0000E+00  0.0000E+00  0.2000E+01  0.2000E+01
    -30.851  0.0000E+00  0.0000E+00  0.2000E+01  0.2000E+01
    -30.657  0.0000E+00  0.0000E+00  0.2000E+01  0.2000E+01
    -30.463  0.0000E+00  0.0000E+00  0.2000E+01  0.2000E+01
    -30.268  0.0000E+00  0.0000E+00  0.2000E+01  0.2000E+01
    -30.074  0.0000E+00  0.0000E+00  0.2000E+01  0.2000E+01
    -29.880  0.0000E+00  0.0000E+00  0.2000E+01  0.2000E+01
    -29.686  0.0000E+00  0.0000E+00  0.2000E+01  0.2000E+01
    -29.492  0.0000E+00  0.0000E+00  0.2000E+01  0.2000E+01
    -29.297  0.0000E+00  0.0000E+00  0.2000E+01  0.2000E+01
    -29.103  0.0000E+00  0.0000E+00  0.2000E+01  0.2000E+01
    -28.909  0.0000E+00  0.0000E+00  0.2000E+01  0.2000E+01
    -28.715  0.0000E+00  0.0000E+00  0.2000E+01  0.2000E+01
    -28.520  0.0000E+00  0.0000E+00  0.2000E+01  0.2000E+01
    -28.326  0.0000E+00  0.0000E+00  0.2000E+01  0.2000E+01
    -28.132  0.0000E+00  0.0000E+00  0.2000E+01  0.2000E+01
    -27.938  0.0000E+00  0.0000E+00  0.2000E+01  0.2000E+01
    -27.744  0.0000E+00  0.0000E+00  0.2000E+01  0.2000E+01
    -27.549  0.0000E+00  0.0000E+00  0.2000E+01  0.2000E+01
    -27.355  0.0000E+00  0.0000E+00  0.2000E+01  0.2000E+01
    -27.161  0.0000E+00  0.0000E+00  0.2000E+01  0.2000E+01
    -26.967  0.0000E+00  0.0000E+00  0.2000E+01  0.2000E+01
    -26.773  0.0000E+00  0.0000E+00  0.2000E+01  0.2000E+01
    -26.578  0.0000E+00  0.0000E+00  0.2000E+01  0.2000E+01
    -26.384  0.0000E+00  0.0000E+00  0.2000E+01  0.2000E+01
    -26.190  0.0000E+00  0.0000E+00  0.2000E+01  0.2000E+01
    -25.996  0.0000E+00  0.0000E+00  0.2000E+01  0.2000E+01
    -25.801  0.0000E+00  0.0000E+00  0.2000E+01  0.2000E+01
    -25.607  0.0000E+00  0.0000E+00  0.2000E+01  0.2000E+01
    -25.413  0.0000E+00  0.0000E+00  0.2000E+01  0.2000E+01
    -25.219  0.0000E+00  0.0000E+00  0.2000E+01  0.2000E+01
    -25.025  0.0000E+00  0.0000E+00  0.2000E+01  0.2000E+01
    -24.830  0.0000E+00  0.0000E+00  0.2000E+01  0.2000E+01
    -24.636  0.0000E+00  0.0000E+00  0.2000E+01  0.2000E+01
    -24.442  0.0000E+00  0.0000E+00  0.2000E+01  0.2000E+01
    -24.248  0.0000E+00  0.0000E+00  0.2000E+01  0.2000E+01
    -24.054  0.0000E+00  0.0000E+00  0.2000E+01  0.2000E+01
    -23.859  0.0000E+00  0.0000E+00  0.2000E+01  0.2000E+01
    -23.665  0.0000E+00  0.0000E+00  0.2000E+01  0.2000E+01
    -23.471  0.0000E+00  0.0000E+00  0.2000E+01  0.2000E+01
    -23.277  0.0000E+00  0.0000E+00  0.2000E+01  0.2000E+01
    -23.083  0.0000E+00  0.0000E+00  0.2000E+01  0.2000E+01
    -22.888  0.0000E+00  0.0000E+00  0.2000E+01  0.2000E+01
    -22.694  0.0000E+00  0.0000E+00  0.2000E+01  0.2000E+01
    -22.500  0.0000E+00  0.0000E+00  0.2000E+01  0.2000E+01
    -22.306  0.0000E+00  0.0000E+00  0.2000E+01  0.2000E+01
    -22.111  0.0000E+00  0.0000E+00  0.2000E+01  0.2000E+01
    -21.917  0.0000E+00  0.0000E+00  0.2000E+01  0.2000E+01
    -21.723  0.0000E+00  0.0000E+00  0.2000E+01  0.2000E+01
    -21.529  0.0000E+00  0.0000E+00  0.2000E+01  0.2000E+01
    -21.335  0.0000E+00  0.0000E+00  0.2000E+01  0.2000E+01
    -21.140  0.0000E+00  0.0000E+00  0.2000E+01  0.2000E+01
    -20.946  0.0000E+00  0.0000E+00  0.2000E+01  0.2000E+01
    -20.752  0.0000E+00  0.0000E+00  0.2000E+01  0.2000E+01
    -20.558  0.0000E+00  0.0000E+00  0.2000E+01  0.2000E+01
    -20.364  0.0000E+00  0.0000E+00  0.2000E+01  0.2000E+01
    -20.169  0.1422E-03  0.1073E-03  0.2000E+01  0.2000E+01
    -19.975  0.1071E-01  0.1005E-01  0.2002E+01  0.2002E+01
    -19.781  0.5071E+00  0.4754E+00  0.2101E+01  0.2094E+01
    -19.587  0.1312E+02  0.1266E+02  0.4648E+01  0.4553E+01
    -19.392  0.1643E+02  0.1686E+02  0.7838E+01  0.7828E+01
    -19.198  0.7639E+00  0.8437E+00  0.7997E+01  0.7996E+01
    -19.004  0.0000E+00  0.0000E+00  0.8000E+01  0.8000E+01
    -18.810  0.0000E+00  0.0000E+00  0.8000E+01  0.8000E+01
    -18.616  0.0000E+00  0.0000E+00  0.8000E+01  0.8000E+01
    -18.421  0.0000E+00  0.0000E+00  0.8000E+01  0.8000E+01
    -18.227  0.0000E+00  0.0000E+00  0.8000E+01  0.8000E+01
    -18.033  0.0000E+00  0.0000E+00  0.8000E+01  0.8000E+01
    -17.839  0.0000E+00  0.0000E+00  0.8000E+01  0.8000E+01
    -17.645  0.0000E+00  0.0000E+00  0.8000E+01  0.8000E+01
    -17.450  0.0000E+00  0.0000E+00  0.8000E+01  0.8000E+01
    -17.256  0.0000E+00  0.0000E+00  0.8000E+01  0.8000E+01
    -17.062  0.0000E+00  0.0000E+00  0.8000E+01  0.8000E+01
    -16.868  0.0000E+00  0.0000E+00  0.8000E+01  0.8000E+01
    -16.673  0.0000E+00  0.0000E+00  0.8000E+01  0.8000E+01
    -16.479  0.0000E+00  0.0000E+00  0.8000E+01  0.8000E+01
    -16.285  0.0000E+00  0.0000E+00  0.8000E+01  0.8000E+01
    -16.091  0.0000E+00  0.0000E+00  0.8000E+01  0.8000E+01
    -15.897  0.0000E+00  0.0000E+00  0.8000E+01  0.8000E+01
    -15.702  0.0000E+00  0.0000E+00  0.8000E+01  0.8000E+01
    -15.508  0.0000E+00  0.0000E+00  0.8000E+01  0.8000E+01
    -15.314  0.0000E+00  0.0000E+00  0.8000E+01  0.8000E+01
    -15.120  0.0000E+00  0.0000E+00  0.8000E+01  0.8000E+01
    -14.926  0.0000E+00  0.0000E+00  0.8000E+01  0.8000E+01
    -14.731  0.0000E+00  0.0000E+00  0.8000E+01  0.8000E+01
    -14.537  0.0000E+00  0.0000E+00  0.8000E+01  0.8000E+01
    -14.343  0.0000E+00  0.0000E+00  0.8000E+01  0.8000E+01
    -14.149  0.0000E+00  0.0000E+00  0.8000E+01  0.8000E+01
    -13.954  0.0000E+00  0.0000E+00  0.8000E+01  0.8000E+01
    -13.760  0.0000E+00  0.0000E+00  0.8000E+01  0.8000E+01
    -13.566  0.0000E+00  0.0000E+00  0.8000E+01  0.8000E+01
    -13.372  0.0000E+00  0.0000E+00  0.8000E+01  0.8000E+01
    -13.178  0.0000E+00  0.0000E+00  0.8000E+01  0.8000E+01
    -12.983  0.0000E+00  0.0000E+00  0.8000E+01  0.8000E+01
    -12.789  0.0000E+00  0.0000E+00  0.8000E+01  0.8000E+01
    -12.595  0.0000E+00  0.0000E+00  0.8000E+01  0.8000E+01
    -12.401  0.0000E+00  0.0000E+00  0.8000E+01  0.8000E+01
    -12.207  0.0000E+00  0.0000E+00  0.8000E+01  0.8000E+01
    -12.012  0.0000E+00  0.0000E+00  0.8000E+01  0.8000E+01
    -11.818  0.0000E+00  0.0000E+00  0.8000E+01  0.8000E+01
    -11.624  0.0000E+00  0.0000E+00  0.8000E+01  0.8000E+01
    -11.430  0.0000E+00  0.0000E+00  0.8000E+01  0.8000E+01
    -11.236  0.0000E+00  0.0000E+00  0.8000E+01  0.8000E+01
    -11.041  0.0000E+00  0.0000E+00  0.8000E+01  0.8000E+01
    -10.847  0.0000E+00  0.0000E+00  0.8000E+01  0.8000E+01
    -10.653  0.0000E+00  0.0000E+00  0.8000E+01  0.8000E+01
    -10.459  0.0000E+00  0.0000E+00  0.8000E+01  0.8000E+01
    -10.264  0.0000E+00  0.0000E+00  0.8000E+01  0.8000E+01
    -10.070  0.0000E+00  0.0000E+00  0.8000E+01  0.8000E+01
     -9.876  0.0000E+00  0.0000E+00  0.8000E+01  0.8000E+01
     -9.682  0.0000E+00  0.0000E+00  0.8000E+01  0.8000E+01
     -9.488  0.0000E+00  0.0000E+00  0.8000E+01  0.8000E+01
     -9.293  0.0000E+00  0.0000E+00  0.8000E+01  0.8000E+01
     -9.099  0.0000E+00  0.0000E+00  0.8000E+01  0.8000E+01
     -8.905  0.0000E+00  0.0000E+00  0.8000E+01  0.8000E+01
     -8.711  0.0000E+00  0.0000E+00  0.8000E+01  0.8000E+01
     -8.517  0.0000E+00  0.0000E+00  0.8000E+01  0.8000E+01
     -8.322  0.0000E+00  0.0000E+00  0.8000E+01  0.8000E+01
     -8.128  0.0000E+00  0.0000E+00  0.8000E+01  0.8000E+01
     -7.934  0.0000E+00  0.0000E+00  0.8000E+01  0.8000E+01
     -7.740  0.0000E+00  0.0000E+00  0.8000E+01  0.8000E+01
     -7.545  0.0000E+00  0.0000E+00  0.8000E+01  0.8000E+01
     -7.351  0.0000E+00  0.0000E+00  0.8000E+01  0.8000E+01
     -7.157  0.0000E+00  0.0000E+00  0.8000E+01  0.8000E+01
     -6.963  0.0000E+00  0.0000E+00  0.8000E+01  0.8000E+01
     -6.769  0.0000E+00  0.0000E+00  0.8000E+01  0.8000E+01
     -6.574  0.0000E+00  0.0000E+00  0.8000E+01  0.8000E+01
     -6.380  0.0000E+00  0.0000E+00  0.8000E+01  0.8000E+01
     -6.186  0.0000E+00  0.0000E+00  0.8000E+01  0.8000E+01
     -5.992  0.0000E+00  0.0000E+00  0.8000E+01  0.8000E+01
     -5.798  0.0000E+00  0.0000E+00  0.8000E+01  0.8000E+01
     -5.603  0.0000E+00  0.0000E+00  0.8000E+01  0.8000E+01
     -5.409  0.0000E+00  0.0000E+00  0.8000E+01  0.8000E+01
     -5.215  0.0000E+00  0.0000E+00  0.8000E+01  0.8000E+01
     -5.021  0.0000E+00  0.0000E+00  0.8000E+01  0.8000E+01
     -4.826  0.0000E+00  0.0000E+00  0.8000E+01  0.8000E+01
     -4.632  0.0000E+00  0.0000E+00  0.8000E+01  0.8000E+01
     -4.438  0.0000E+00  0.0000E+00  0.8000E+01  0.8000E+01
     -4.244  0.0000E+00  0.0000E+00  0.8000E+01  0.8000E+01
     -4.050  0.0000E+00  0.0000E+00  0.8000E+01  0.8000E+01
     -3.855  0.0000E+00  0.0000E+00  0.8000E+01  0.8000E+01
     -3.661  0.0000E+00  0.0000E+00  0.8000E+01  0.8000E+01
     -3.467  0.0000E+00  0.0000E+00  0.8000E+01  0.8000E+01
     -3.273  0.0000E+00  0.0000E+00  0.8000E+01  0.8000E+01
     -3.079  0.0000E+00  0.0000E+00  0.8000E+01  0.8000E+01
     -2.884  0.2144E-05  0.2179E-05  0.8000E+01  0.8000E+01
     -2.690  0.1139E-03  0.1158E-03  0.8000E+01  0.8000E+01
     -2.496  0.5060E-02  0.5136E-02  0.8001E+01  0.8001E+01
     -2.302  0.7348E-01  0.7398E-01  0.8015E+01  0.8015E+01
     -2.107  0.1916E+00  0.1921E+00  0.8052E+01  0.8053E+01
     -1.913  0.2627E+00  0.2630E+00  0.8104E+01  0.8104E+01
     -1.719  0.3413E+00  0.3417E+00  0.8170E+01  0.8171E+01
     -1.525  0.3693E+00  0.3693E+00  0.8242E+01  0.8243E+01
     -1.331  0.4434E+00  0.4439E+00  0.8329E+01  0.8329E+01
     -1.136  0.5202E+00  0.5203E+00  0.8430E+01  0.8430E+01
     -0.942  0.4837E+00  0.4838E+00  0.8524E+01  0.8525E+01
     -0.748  0.6679E+00  0.6686E+00  0.8655E+01  0.8655E+01
     -0.554  0.6497E+00  0.6495E+00  0.8781E+01  0.8782E+01
     -0.360  0.6474E+00  0.6477E+00  0.8907E+01  0.8908E+01
     -0.165  0.6987E+00  0.6985E+00  0.9044E+01  0.9044E+01
      0.029  0.7518E+00  0.7526E+00  0.9190E+01  0.9191E+01
      0.223  0.6977E+00  0.6972E+00  0.9326E+01  0.9327E+01
      0.417  0.7394E+00  0.7404E+00  0.9470E+01  0.9471E+01
      0.611  0.9007E+00  0.9002E+00  0.9646E+01  0.9647E+01
      0.806  0.7873E+00  0.7876E+00  0.9799E+01  0.9800E+01
      1.000  0.8610E+00  0.8617E+00  0.9967E+01  0.9968E+01
      1.194  0.1067E+01  0.1067E+01  0.1017E+02  0.1018E+02
      1.388  0.1045E+01  0.1045E+01  0.1038E+02  0.1038E+02
      1.583  0.1063E+01  0.1061E+01  0.1059E+02  0.1059E+02
      1.777  0.1055E+01  0.1055E+01  0.1079E+02  0.1079E+02
      1.971  0.7895E+00  0.7881E+00  0.1095E+02  0.1095E+02
      2.165  0.8092E+00  0.8100E+00  0.1110E+02  0.1110E+02
      2.359  0.8461E+00  0.8452E+00  0.1127E+02  0.1127E+02
      2.554  0.8218E+00  0.8223E+00  0.1143E+02  0.1143E+02
      2.748  0.1045E+01  0.1046E+01  0.1163E+02  0.1163E+02
      2.942  0.1379E+01  0.1378E+01  0.1190E+02  0.1190E+02
      3.136  0.1076E+01  0.1076E+01  0.1211E+02  0.1211E+02
      3.330  0.1161E+01  0.1161E+01  0.1234E+02  0.1234E+02
      3.525  0.1378E+01  0.1378E+01  0.1261E+02  0.1261E+02
      3.719  0.1117E+01  0.1116E+01  0.1282E+02  0.1282E+02
      3.913  0.1116E+01  0.1117E+01  0.1304E+02  0.1304E+02
      4.107  0.1148E+01  0.1148E+01  0.1326E+02  0.1327E+02
      4.302  0.1410E+01  0.1409E+01  0.1354E+02  0.1354E+02
      4.496  0.1238E+01  0.1238E+01  0.1378E+02  0.1378E+02
      4.690  0.1294E+01  0.1294E+01  0.1403E+02  0.1403E+02
      4.884  0.1323E+01  0.1323E+01  0.1429E+02  0.1429E+02
      5.078  0.1659E+01  0.1659E+01  0.1461E+02  0.1461E+02
      5.273  0.1707E+01  0.1707E+01  0.1495E+02  0.1495E+02
      5.467  0.1637E+01  0.1636E+01  0.1527E+02  0.1527E+02
      5.661  0.1388E+01  0.1388E+01  0.1554E+02  0.1554E+02
      5.855  0.2020E+01  0.2020E+01  0.1593E+02  0.1593E+02
      6.049  0.2334E+01  0.2333E+01  0.1638E+02  0.1638E+02
      6.244  0.1954E+01  0.1952E+01  0.1677E+02  0.1677E+02
      6.438  0.2256E+01  0.2255E+01  0.1721E+02  0.1721E+02
      6.632  0.2863E+01  0.2863E+01  0.1776E+02  0.1776E+02
      6.826  0.2785E+01  0.2780E+01  0.1831E+02  0.1830E+02
      7.021  0.2728E+01  0.2725E+01  0.1884E+02  0.1884E+02
      7.215  0.2232E+01  0.2234E+01  0.1927E+02  0.1927E+02
      7.409  0.1997E+01  0.1994E+01  0.1966E+02  0.1966E+02
      7.603  0.1939E+01  0.1937E+01  0.2004E+02  0.2004E+02
      7.797  0.2227E+01  0.2223E+01  0.2048E+02  0.2047E+02
      7.992  0.1782E+01  0.1786E+01  0.2082E+02  0.2082E+02
      8.186  0.1462E+01  0.1462E+01  0.2111E+02  0.2111E+02
      8.380  0.1215E+01  0.1219E+01  0.2135E+02  0.2134E+02
      8.574  0.9636E+00  0.9631E+00  0.2153E+02  0.2153E+02
      8.768  0.9141E+00  0.9146E+00  0.2171E+02  0.2171E+02
      8.963  0.9394E+00  0.9375E+00  0.2190E+02  0.2189E+02
      9.157  0.1198E+01  0.1197E+01  0.2213E+02  0.2213E+02
      9.351  0.1277E+01  0.1282E+01  0.2238E+02  0.2238E+02
      9.545  0.1935E+01  0.1935E+01  0.2275E+02  0.2275E+02
      9.740  0.2499E+01  0.2507E+01  0.2324E+02  0.2324E+02
      9.934  0.2893E+01  0.2887E+01  0.2380E+02  0.2380E+02
     10.128  0.3553E+01  0.3551E+01  0.2450E+02  0.2450E+02
     10.322  0.2943E+01  0.2949E+01  0.2507E+02  0.2507E+02
     10.516  0.2965E+01  0.2977E+01  0.2565E+02  0.2565E+02
     10.711  0.3125E+01  0.3146E+01  0.2626E+02  0.2626E+02
     10.905  0.3043E+01  0.3016E+01  0.2685E+02  0.2685E+02
     11.099  0.2772E+01  0.2662E+01  0.2739E+02  0.2737E+02
     11.293  0.1625E+01  0.1661E+01  0.2771E+02  0.2770E+02
     11.487  0.8244E+00  0.8837E+00  0.2787E+02  0.2787E+02
     11.682  0.3784E+00  0.3606E+00  0.2795E+02  0.2794E+02
     11.876  0.2458E+00  0.1290E+00  0.2799E+02  0.2797E+02
     12.070  0.2586E-01  0.9493E-01  0.2800E+02  0.2799E+02
     12.264  0.3081E-03  0.6667E-01  0.2800E+02  0.2800E+02
     12.458  0.0000E+00  0.5301E-02  0.2800E+02  0.2800E+02
     12.653  0.0000E+00  0.0000E+00  0.2800E+02  0.2800E+02
     12.847  0.0000E+00  0.0000E+00  0.2800E+02  0.2800E+02
     13.041  0.0000E+00  0.0000E+00  0.2800E+02  0.2800E+02
     13.235  0.0000E+00  0.0000E+00  0.2800E+02  0.2800E+02
     13.430  0.0000E+00  0.0000E+00  0.2800E+02  0.2800E+02
     13.624  0.0000E+00  0.0000E+00  0.2800E+02  0.2800E+02
     13.818  0.0000E+00  0.0000E+00  0.2800E+02  0.2800E+02
     14.012  0.0000E+00  0.0000E+00  0.2800E+02  0.2800E+02
     14.206  0.0000E+00  0.0000E+00  0.2800E+02  0.2800E+02
     14.401  0.0000E+00  0.0000E+00  0.2800E+02  0.2800E+02
     14.595  0.0000E+00  0.0000E+00  0.2800E+02  0.2800E+02
     14.789  0.0000E+00  0.0000E+00  0.2800E+02  0.2800E+02
     14.78905360    -43.47489455  301      7.58273289      1.00000000
    -43.475  0.0000E+00  0.0000E+00  0.0000E+00  0.0000E+00  0.0000E+00  0.0000E+00  0.0000E+00  0.0000E+00  0.0000E+00  0.0000E+00  0.0000E+00  0.0000E+00  0.0000E+00  0.0000E+00  0.0000E+00  0.0000E+00  0.0000E+00  0.0000E+00
    -43.281  0.0000E+00  0.0000E+00  0.0000E+00  0.0000E+00  0.0000E+00  0.0000E+00  0.0000E+00  0.0000E+00  0.0000E+00  0.0000E+00  0.0000E+00  0.0000E+00  0.0000E+00  0.0000E+00  0.0000E+00  0.0000E+00  0.0000E+00  0.0000E+00
    -43.086  0.0000E+00  0.0000E+00  0.0000E+00  0.0000E+00  0.0000E+00  0.0000E+00  0.0000E+00  0.0000E+00  0.0000E+00  0.0000E+00  0.0000E+00  0.0000E+00  0.0000E+00  0.0000E+00  0.0000E+00  0.0000E+00  0.0000E+00  0.0000E+00
    -42.892  0.0000E+00  0.0000E+00  0.0000E+00  0.0000E+00  0.0000E+00  0.0000E+00  0.0000E+00  0.0000E+00  0.0000E+00  0.0000E+00  0.0000E+00  0.0000E+00  0.0000E+00  0.0000E+00  0.0000E+00  0.0000E+00  0.0000E+00  0.0000E+00
    -42.698  0.0000E+00  0.0000E+00  0.0000E+00  0.0000E+00  0.0000E+00  0.0000E+00  0.0000E+00  0.0000E+00  0.0000E+00  0.0000E+00  0.0000E+00  0.0000E+00  0.0000E+00  0.0000E+00  0.0000E+00  0.0000E+00  0.0000E+00  0.0000E+00
    -42.504  0.0000E+00  0.0000E+00  0.0000E+00  0.0000E+00  0.0000E+00  0.0000E+00  0.0000E+00  0.0000E+00  0.0000E+00  0.0000E+00  0.0000E+00  0.0000E+00  0.0000E+00  0.0000E+00  0.0000E+00  0.0000E+00  0.0000E+00  0.0000E+00
    -42.310  0.0000E+00  0.0000E+00  0.0000E+00  0.0000E+00  0.0000E+00  0.0000E+00  0.0000E+00  0.0000E+00  0.0000E+00  0.0000E+00  0.0000E+00  0.0000E+00  0.0000E+00  0.0000E+00  0.0000E+00  0.0000E+00  0.0000E+00  0.0000E+00
    -42.115  0.0000E+00  0.0000E+00  0.0000E+00  0.0000E+00  0.0000E+00  0.0000E+00  0.0000E+00  0.0000E+00  0.0000E+00  0.0000E+00  0.0000E+00  0.0000E+00  0.0000E+00  0.0000E+00  0.0000E+00  0.0000E+00  0.0000E+00  0.0000E+00
    -41.921  0.0000E+00  0.0000E+00  0.0000E+00  0.0000E+00  0.0000E+00  0.0000E+00  0.0000E+00  0.0000E+00  0.0000E+00  0.0000E+00  0.0000E+00  0.0000E+00  0.0000E+00  0.0000E+00  0.0000E+00  0.0000E+00  0.0000E+00  0.0000E+00
    -41.727  0.0000E+00  0.0000E+00  0.0000E+00  0.0000E+00  0.0000E+00  0.0000E+00  0.0000E+00  0.0000E+00  0.0000E+00  0.0000E+00  0.0000E+00  0.0000E+00  0.0000E+00  0.0000E+00  0.0000E+00  0.0000E+00  0.0000E+00  0.0000E+00
    -41.533  0.0000E+00  0.0000E+00  0.0000E+00  0.0000E+00  0.0000E+00  0.0000E+00  0.0000E+00  0.0000E+00  0.0000E+00  0.0000E+00  0.0000E+00  0.0000E+00  0.0000E+00  0.0000E+00  0.0000E+00  0.0000E+00  0.0000E+00  0.0000E+00
    -41.339  0.1723E-03  0.1610E-03  0.2743E-11  0.2559E-11  0.4505E-14  0.4342E-14  0.2743E-11  0.2559E-11  0.8633E-14  0.1162E-13  0.8463E-14  0.1133E-13  0.2301E-10  0.2167E-10  0.8463E-14  0.1133E-13  0.1686E-11  0.1630E-11
    -41.144  0.8192E-02  0.7655E-02  0.1305E-09  0.1217E-09  0.2142E-12  0.2065E-12  0.1305E-09  0.1217E-09  0.4105E-12  0.5525E-12  0.4024E-12  0.5390E-12  0.1094E-08  0.1031E-08  0.4024E-12  0.5390E-12  0.8016E-10  0.7750E-10
    -40.950  0.3690E+00  0.3465E+00  0.5877E-08  0.5509E-08  0.9631E-11  0.9329E-11  0.5877E-08  0.5509E-08  0.1851E-10  0.2503E-10  0.1813E-10  0.2439E-10  0.4927E-07  0.4663E-07  0.1813E-10  0.2439E-10  0.3612E-08  0.3509E-08
    -40.756  0.3696E+01  0.3661E+01  0.5882E-07  0.5816E-07  0.9433E-10  0.9646E-10  0.5882E-07  0.5816E-07  0.1874E-09  0.2663E-09  0.1819E-09  0.2566E-09  0.4908E-06  0.4898E-06  0.1819E-09  0.2566E-09  0.3619E-07  0.3710E-07
    -40.562  0.1028E+01  0.1084E+01  0.1634E-07  0.1720E-07  0.2556E-10  0.2784E-10  0.1634E-07  0.1720E-07  0.5277E-10  0.7953E-10  0.5070E-10  0.7557E-10  0.1357E-06  0.1440E-06  0.5070E-10  0.7557E-10  0.1007E-07  0.1099E-07
    -40.367  0.0000E+00  0.0000E+00  0.0000E+00  0.0000E+00  0.0000E+00  0.0000E+00  0.0000E+00  0.0000E+00  0.0000E+00  0.0000E+00  0.0000E+00  0.0000E+00  0.0000E+00  0.0000E+00  0.0000E+00  0.0000E+00  0.0000E+00  0.0000E+00
    -40.173  0.0000E+00  0.0000E+00  0.0000E+00  0.0000E+00  0.0000E+00  0.0000E+00  0.0000E+00  0.0000E+00  0.0000E+00  0.0000E+00  0.0000E+00  0.0000E+00  0.0000E+00  0.0000E+00  0.0000E+00  0.0000E+00  0.0000E+00  0.0000E+00
    -39.979  0.0000E+00  0.0000E+00  0.0000E+00  0.0000E+00  0.0000E+00  0.0000E+00  0.0000E+00  0.0000E+00  0.0000E+00  0.0000E+00  0.0000E+00  0.0000E+00  0.0000E+00  0.0000E+00  0.0000E+00  0.0000E+00  0.0000E+00  0.0000E+00
    -39.785  0.0000E+00  0.0000E+00  0.0000E+00  0.0000E+00  0.0000E+00  0.0000E+00  0.0000E+00  0.0000E+00  0.0000E+00  0.0000E+00  0.0000E+00  0.0000E+00  0.0000E+00  0.0000E+00  0.0000E+00  0.0000E+00  0.0000E+00  0.0000E+00
    -39.591  0.0000E+00  0.0000E+00  0.0000E+00  0.0000E+00  0.0000E+00  0.0000E+00  0.0000E+00  0.0000E+00  0.0000E+00  0.0000E+00  0.0000E+00  0.0000E+00  0.0000E+00  0.0000E+00  0.0000E+00  0.0000E+00  0.0000E+00  0.0000E+00
    -39.396  0.0000E+00  0.0000E+00  0.0000E+00  0.0000E+00  0.0000E+00  0.0000E+00  0.0000E+00  0.0000E+00  0.0000E+00  0.0000E+00  0.0000E+00  0.0000E+00  0.0000E+00  0.0000E+00  0.0000E+00  0.0000E+00  0.0000E+00  0.0000E+00
    -39.202  0.0000E+00  0.0000E+00  0.0000E+00  0.0000E+00  0.0000E+00  0.0000E+00  0.0000E+00  0.0000E+00  0.0000E+00  0.0000E+00  0.0000E+00  0.0000E+00  0.0000E+00  0.0000E+00  0.0000E+00  0.0000E+00  0.0000E+00  0.0000E+00
    -39.008  0.0000E+00  0.0000E+00  0.0000E+00  0.0000E+00  0.0000E+00  0.0000E+00  0.0000E+00  0.0000E+00  0.0000E+00  0.0000E+00  0.0000E+00  0.0000E+00  0.0000E+00  0.0000E+00  0.0000E+00  0.0000E+00  0.0000E+00  0.0000E+00
    -38.814  0.0000E+00  0.0000E+00  0.0000E+00  0.0000E+00  0.0000E+00  0.0000E+00  0.0000E+00  0.0000E+00  0.0000E+00  0.0000E+00  0.0000E+00  0.0000E+00  0.0000E+00  0.0000E+00  0.0000E+00  0.0000E+00  0.0000E+00  0.0000E+00
    -38.620  0.0000E+00  0.0000E+00  0.0000E+00  0.0000E+00  0.0000E+00  0.0000E+00  0.0000E+00  0.0000E+00  0.0000E+00  0.0000E+00  0.0000E+00  0.0000E+00  0.0000E+00  0.0000E+00  0.0000E+00  0.0000E+00  0.0000E+00  0.0000E+00
    -38.425  0.0000E+00  0.0000E+00  0.0000E+00  0.0000E+00  0.0000E+00  0.0000E+00  0.0000E+00  0.0000E+00  0.0000E+00  0.0000E+00  0.0000E+00  0.0000E+00  0.0000E+00  0.0000E+00  0.0000E+00  0.0000E+00  0.0000E+00  0.0000E+00
    -38.231  0.0000E+00  0.0000E+00  0.0000E+00  0.0000E+00  0.0000E+00  0.0000E+00  0.0000E+00  0.0000E+00  0.0000E+00  0.0000E+00  0.0000E+00  0.0000E+00  0.0000E+00  0.0000E+00  0.0000E+00  0.0000E+00  0.0000E+00  0.0000E+00
    -38.037  0.0000E+00  0.0000E+00  0.0000E+00  0.0000E+00  0.0000E+00  0.0000E+00  0.0000E+00  0.0000E+00  0.0000E+00  0.0000E+00  0.0000E+00  0.0000E+00  0.0000E+00  0.0000E+00  0.0000E+00  0.0000E+00  0.0000E+00  0.0000E+00
    -37.843  0.0000E+00  0.0000E+00  0.0000E+00  0.0000E+00  0.0000E+00  0.0000E+00  0.0000E+00  0.0000E+00  0.0000E+00  0.0000E+00  0.0000E+00  0.0000E+00  0.0000E+00  0.0000E+00  0.0000E+00  0.0000E+00  0.0000E+00  0.0000E+00
    -37.648  0.0000E+00  0.0000E+00  0.0000E+00  0.0000E+00  0.0000E+00  0.0000E+00  0.0000E+00  0.0000E+00  0.0000E+00  0.0000E+00  0.0000E+00  0.0000E+00  0.0000E+00  0.0000E+00  0.0000E+00  0.0000E+00  0.0000E+00  0.0000E+00
    -37.454  0.0000E+00  0.0000E+00  0.0000E+00  0.0000E+00  0.0000E+00  0.0000E+00  0.0000E+00  0.0000E+00  0.0000E+00  0.0000E+00  0.0000E+00  0.0000E+00  0.0000E+00  0.0000E+00  0.0000E+00  0.0000E+00  0.0000E+00  0.0000E+00
    -37.260  0.0000E+00  0.0000E+00  0.0000E+00  0.0000E+00  0.0000E+00  0.0000E+00  0.0000E+00  0.0000E+00  0.0000E+00  0.0000E+00  0.0000E+00  0.0000E+00  0.0000E+00  0.0000E+00  0.0000E+00  0.0000E+00  0.0000E+00  0.0000E+00
    -37.066  0.0000E+00  0.0000E+00  0.0000E+00  0.0000E+00  0.0000E+00  0.0000E+00  0.0000E+00  0.0000E+00  0.0000E+00  0.0000E+00  0.0000E+00  0.0000E+00  0.0000E+00  0.0000E+00  0.0000E+00  0.0000E+00  0.0000E+00  0.0000E+00
    -36.872  0.0000E+00  0.0000E+00  0.0000E+00  0.0000E+00  0.0000E+00  0.0000E+00  0.0000E+00  0.0000E+00  0.0000E+00  0.0000E+00  0.0000E+00  0.0000E+00  0.0000E+00  0.0000E+00  0.0000E+00  0.0000E+00  0.0000E+00  0.0000E+00
    -36.677  0.0000E+00  0.0000E+00  0.0000E+00  0.0000E+00  0.0000E+00  0.0000E+00  0.0000E+00  0.0000E+00  0.0000E+00  0.0000E+00  0.0000E+00  0.0000E+00  0.0000E+00  0.0000E+00  0.0000E+00  0.0000E+00  0.0000E+00  0.0000E+00
    -36.483  0.0000E+00  0.0000E+00  0.0000E+00  0.0000E+00  0.0000E+00  0.0000E+00  0.0000E+00  0.0000E+00  0.0000E+00  0.0000E+00  0.0000E+00  0.0000E+00  0.0000E+00  0.0000E+00  0.0000E+00  0.0000E+00  0.0000E+00  0.0000E+00
    -36.289  0.0000E+00  0.0000E+00  0.0000E+00  0.0000E+00  0.0000E+00  0.0000E+00  0.0000E+00  0.0000E+00  0.0000E+00  0.0000E+00  0.0000E+00  0.0000E+00  0.0000E+00  0.0000E+00  0.0000E+00  0.0000E+00  0.0000E+00  0.0000E+00
    -36.095  0.0000E+00  0.0000E+00  0.0000E+00  0.0000E+00  0.0000E+00  0.0000E+00  0.0000E+00  0.0000E+00  0.0000E+00  0.0000E+00  0.0000E+00  0.0000E+00  0.0000E+00  0.0000E+00  0.0000E+00  0.0000E+00  0.0000E+00  0.0000E+00
    -35.901  0.0000E+00  0.0000E+00  0.0000E+00  0.0000E+00  0.0000E+00  0.0000E+00  0.0000E+00  0.0000E+00  0.0000E+00  0.0000E+00  0.0000E+00  0.0000E+00  0.0000E+00  0.0000E+00  0.0000E+00  0.0000E+00  0.0000E+00  0.0000E+00
    -35.706  0.0000E+00  0.0000E+00  0.0000E+00  0.0000E+00  0.0000E+00  0.0000E+00  0.0000E+00  0.0000E+00  0.0000E+00  0.0000E+00  0.0000E+00  0.0000E+00  0.0000E+00  0.0000E+00  0.0000E+00  0.0000E+00  0.0000E+00  0.0000E+00
    -35.512  0.0000E+00  0.0000E+00  0.0000E+00  0.0000E+00  0.0000E+00  0.0000E+00  0.0000E+00  0.0000E+00  0.0000E+00  0.0000E+00  0.0000E+00  0.0000E+00  0.0000E+00  0.0000E+00  0.0000E+00  0.0000E+00  0.0000E+00  0.0000E+00
    -35.318  0.0000E+00  0.0000E+00  0.0000E+00  0.0000E+00  0.0000E+00  0.0000E+00  0.0000E+00  0.0000E+00  0.0000E+00  0.0000E+00  0.0000E+00  0.0000E+00  0.0000E+00  0.0000E+00  0.0000E+00  0.0000E+00  0.0000E+00  0.0000E+00
    -35.124  0.0000E+00  0.0000E+00  0.0000E+00  0.0000E+00  0.0000E+00  0.0000E+00  0.0000E+00  0.0000E+00  0.0000E+00  0.0000E+00  0.0000E+00  0.0000E+00  0.0000E+00  0.0000E+00  0.0000E+00  0.0000E+00  0.0000E+00  0.0000E+00
    -34.930  0.0000E+00  0.0000E+00  0.0000E+00  0.0000E+00  0.0000E+00  0.0000E+00  0.0000E+00  0.0000E+00  0.0000E+00  0.0000E+00  0.0000E+00  0.0000E+00  0.0000E+00  0.0000E+00  0.0000E+00  0.0000E+00  0.0000E+00  0.0000E+00
    -34.735  0.0000E+00  0.0000E+00  0.0000E+00  0.0000E+00  0.0000E+00  0.0000E+00  0.0000E+00  0.0000E+00  0.0000E+00  0.0000E+00  0.0000E+00  0.0000E+00  0.0000E+00  0.0000E+00  0.0000E+00  0.0000E+00  0.0000E+00  0.0000E+00
    -34.541  0.0000E+00  0.0000E+00  0.0000E+00  0.0000E+00  0.0000E+00  0.0000E+00  0.0000E+00  0.0000E+00  0.0000E+00  0.0000E+00  0.0000E+00  0.0000E+00  0.0000E+00  0.0000E+00  0.0000E+00  0.0000E+00  0.0000E+00  0.0000E+00
    -34.347  0.0000E+00  0.0000E+00  0.0000E+00  0.0000E+00  0.0000E+00  0.0000E+00  0.0000E+00  0.0000E+00  0.0000E+00  0.0000E+00  0.0000E+00  0.0000E+00  0.0000E+00  0.0000E+00  0.0000E+00  0.0000E+00  0.0000E+00  0.0000E+00
    -34.153  0.0000E+00  0.0000E+00  0.0000E+00  0.0000E+00  0.0000E+00  0.0000E+00  0.0000E+00  0.0000E+00  0.0000E+00  0.0000E+00  0.0000E+00  0.0000E+00  0.0000E+00  0.0000E+00  0.0000E+00  0.0000E+00  0.0000E+00  0.0000E+00
    -33.958  0.0000E+00  0.0000E+00  0.0000E+00  0.0000E+00  0.0000E+00  0.0000E+00  0.0000E+00  0.0000E+00  0.0000E+00  0.0000E+00  0.0000E+00  0.0000E+00  0.0000E+00  0.0000E+00  0.0000E+00  0.0000E+00  0.0000E+00  0.0000E+00
    -33.764  0.0000E+00  0.0000E+00  0.0000E+00  0.0000E+00  0.0000E+00  0.0000E+00  0.0000E+00  0.0000E+00  0.0000E+00  0.0000E+00  0.0000E+00  0.0000E+00  0.0000E+00  0.0000E+00  0.0000E+00  0.0000E+00  0.0000E+00  0.0000E+00