 vasp.6.4.1 05Apr23 (build Jul 24 2024 14:19:02) complex                         
 executed on             LinuxGNU date 2024.10.23  12:46:49
 running    1 mpi-ranks, with   24 threads/rank, on    1 nodes
 distrk:  each k-point on    1 cores,    1 groups
 distr:  one band on NCORE=   1 cores,    1 groups


--------------------------------------------------------------------------------------------------------


 INCAR:
   ISTART = 0
   ALGO = Fast
   EDIFF = 0.0001
   ENCUT = 520
   IBRION = -1
   ISIF = 2
   ISMEAR = -5
   ISPIN = 2
   LASPH = True
   LMAXMIX = 6
   LORBIT = 11
   LREAL = Auto
   LWAVE = False
   MAGMOM = 2*0.6
   NELM = 100
   NSW = 0
   PREC = Accurate
   SIGMA = 0.05

 POTCAR:    PAW_PBE Nb_pv 08Apr2002               
 POTCAR:    PAW_PBE Nb_pv 08Apr2002               
   SHA256 =  bac2b60850b34f8515cf56f9feae68b678e347865051052a0e1f5d2c6a691c0a Nb_pv/POTCAR          
   COPYR  = (c) Copyright 08Apr2002 Georg Kresse                                                    
   COPYR  = This file is part of the software VASP. Any use, copying, and all other rights are regul
   COPYR  = If you do not have a valid VASP license, you may not use, copy or distribute this file. 
   VRHFIN =Nb: 4p5s4d                                                                               
   LEXCH  = PE                                                                                      
   EATOM  =  1043.3917 eV,   76.6871 Ry                                                             
                                                                                                    
   TITEL  = PAW_PBE Nb_pv 08Apr2002                                                                 
   LULTRA =        F    use ultrasoft PP ?                                                          
   IUNSCR =        1    unscreen: 0-lin 1-nonlin 2-no                                               
   RPACOR =    2.200    partial core radius                                                         
   POMASS =   92.000; ZVAL   =   11.000    mass and valenz                                          
   RCORE  =    2.750    outmost cutoff radius                                                       
   RWIGS  =    2.840; RWIGS  =    1.503    wigner-seitz radius (au A)                               
   ENMAX  =  208.608; ENMIN  =  156.456 eV                                                          
   RCLOC  =    2.201    cutoff for local pot                                                        
   LCOR   =        T    correct aug charges                                                         
   LPAW   =        T    paw PP                                                                      
   EAUG   =  355.067                                                                                
   DEXC   =    0.000                                                                                
   RMAX   =    2.804    core radius for proj-oper                                                   
   RAUG   =    1.300    factor for augmentation sphere                                              
   RDEP   =    2.776    radius for radial grids                                                     
   RDEPT  =    2.198    core radius for aug-charge                                                  
                                                                                                    
   Atomic configuration                                                                             
   11 entries                                                                                       
     n  l   j            E        occ.                                                              
     1  0  0.50    -18805.2456   2.0000                                                             
     2  0  0.50     -2630.2869   2.0000                                                             
     2  1  1.50     -2348.4045   6.0000                                                             
     3  0  0.50      -438.8756   2.0000                                                             
     3  1  1.50      -346.7587   6.0000                                                             
     3  2  2.50      -196.2559  10.0000                                                             
     4  0  0.50       -58.3859   2.0000                                                             
     4  1  1.50       -34.5141   6.0000                                                             
     4  2  2.50        -3.0408   4.0000                                                             
     5  0  0.50        -3.9816   1.0000                                                             
     4  3  2.50        -1.3606   0.0000                                                             
   Description                                                                                      
     l       E           TYP  RCUT    TYP  RCUT                                                     
     1    -34.5140617     23  2.600                                                                 
     1     -1.3605826     23  2.600                                                                 
     2     -3.0407924     23  2.600                                                                 
     2     -1.4463597     23  2.600                                                                 
     0     -3.9816219     23  2.750                                                                 
     0     20.4087390     23  2.750                                                                 
  local pseudopotential read in
  partial core-charges read in
  partial kinetic energy density read in
  atomic valenz-charges read in
  non local Contribution for L=           1  read in
    real space projection operators read in
  non local Contribution for L=           1  read in
    real space projection operators read in
  non local Contribution for L=           2  read in
    real space projection operators read in
  non local Contribution for L=           2  read in
    real space projection operators read in
  non local Contribution for L=           0  read in
    real space projection operators read in
  non local Contribution for L=           0  read in
    real space projection operators read in
    PAW grid and wavefunctions read in

   number of l-projection  operators is LMAX  =           6
   number of lm-projection operators is LMMAX =          18

 -----------------------------------------------------------------------------
|                                                                             |
|               ----> ADVICE to this user running VASP <----                  |
|                                                                             |
|     You have a (more or less) 'small supercell' and for smaller cells       |
|     it is recommended to use the reciprocal-space projection scheme!        |
|     The real-space optimization is not efficient for small cells and it     |
|     is also less accurate ...                                               |
|     Therefore, set LREAL=.FALSE. in the INCAR file.                         |
|                                                                             |
 -----------------------------------------------------------------------------

 Optimization of the real space projectors (new method)

 maximal supplied QI-value         = 13.61
 optimisation between [QCUT,QGAM] = [ 11.57, 23.27] = [ 37.45,151.59] Ry 
 Optimized for a Real-space Cutoff    1.63 Angstroem

   l    n(q)    QCUT    max X(q) W(low)/X(q) W(high)/X(q)  e(spline) 
   1     11    11.565     4.545    0.12E-04    0.18E-04    0.64E-07
   1     11    11.565     6.014    0.42E-04    0.48E-04    0.13E-06
   2     10    11.565   266.542    0.24E-03    0.87E-04    0.13E-05
   2     10    11.565   232.726    0.24E-03    0.87E-04    0.13E-05
   0     11    11.565    38.050    0.76E-04    0.32E-05    0.94E-06
   0     11    11.565    16.565    0.58E-04    0.25E-05    0.73E-06
  PAW_PBE Nb_pv 08Apr2002               :
 energy of atom  1       EATOM=-1043.3917
 kinetic energy error for atom=    0.0011 (will be added to EATOM!!)


 POSCAR: Generated POSCAR
  positions in direct lattice
  velocities in cartesian coordinates
 exchange correlation table for  LEXCH =        8
   RHO(1)=    0.500       N(1)  =     2000
   RHO(2)=  100.500       N(2)  =     4000



--------------------------------------------------------------------------------------------------------


 ion  position               nearest neighbor table
   1  0.000  0.000  0.000-   2 2.87   2 2.87   2 2.87   2 2.87   2 2.87   2 2.87   2 2.87   2 2.87

   2  0.500  0.500  0.500-   1 2.87   1 2.87   1 2.87   1 2.87   1 2.87   1 2.87   1 2.87   1 2.87


  LATTYP: Found a simple tetragonal cell.
 ALAT       =     3.3217793369
 C/A-ratio  =     0.9900000000
  
  Lattice vectors:
  
 A1 = (   0.0000000000,   3.3217793369,   0.0000000000)
 A2 = (   0.0000000000,   0.0000000000,   3.3217793369)
 A3 = (   3.2885615435,   0.0000000000,   0.0000000000)


Analysis of symmetry for initial positions (statically):
=====================================================================
 Subroutine PRICEL returns following result:
 
  LATTYP: Found a body centered tetragonal cell.
 ALAT       =     3.3217793369
 C/A-ratio  =     0.9900000000
  
  Lattice vectors:
  
 A1 = (  -1.6442807718,   1.6608896685,   1.6608896685)
 A2 = (  -1.6442807718,  -1.6608896685,  -1.6608896685)
 A3 = (   1.6442807718,  -1.6608896685,   1.6608896685)
 
   2 primitive cells build up your supercell.
 

 Routine SETGRP: Setting up the symmetry group for a 
 simple tetragonal supercell.


 Subroutine GETGRP returns: Found 16 space group operations
 (whereof 16 operations were pure point group operations)
 out of a pool of 16 trial point group operations.


The static configuration has the point symmetry D_4h.


Analysis of symmetry for dynamics (positions and initial velocities):
=====================================================================
 Subroutine PRICEL returns following result:
 
  LATTYP: Found a body centered tetragonal cell.
 ALAT       =     3.3217793369
 C/A-ratio  =     0.9900000000
  
  Lattice vectors:
  
 A1 = (  -1.6442807718,   1.6608896685,   1.6608896685)
 A2 = (  -1.6442807718,  -1.6608896685,  -1.6608896685)
 A3 = (   1.6442807718,  -1.6608896685,   1.6608896685)
 
   2 primitive cells build up your supercell.
 

 Routine SETGRP: Setting up the symmetry group for a 
 simple tetragonal supercell.


 Subroutine GETGRP returns: Found 16 space group operations
 (whereof 16 operations were pure point group operations)
 out of a pool of 16 trial point group operations.


The dynamic configuration has the point symmetry D_4h.


Analysis of structural, dynamic, and magnetic symmetry:
=====================================================================
 Subroutine PRICEL returns following result:
 
  LATTYP: Found a body centered tetragonal cell.
 ALAT       =     3.3217793369
 C/A-ratio  =     0.9900000000
  
  Lattice vectors:
  
 A1 = (  -1.6442807718,   1.6608896685,   1.6608896685)
 A2 = (  -1.6442807718,  -1.6608896685,  -1.6608896685)
 A3 = (   1.6442807718,  -1.6608896685,   1.6608896685)
 
   2 primitive cells build up your supercell.
 

 Routine SETGRP: Setting up the symmetry group for a 
 simple tetragonal supercell.


 Subroutine GETGRP returns: Found 16 space group operations
 (whereof 16 operations were pure point group operations)
 out of a pool of 16 trial point group operations.


The overall configuration has the point symmetry D_4h.


 Subroutine INISYM returns: Found 16 space group operations
 (whereof 16 operations are pure point group operations),
 and found     2 'primitive' translations


----------------------------------------------------------------------------------------

                                     Primitive cell                                     

  volume of cell :      18.1434

  direct lattice vectors                    reciprocal lattice vectors
    -1.644280772  1.660889668  1.660889668    -0.304084320  0.000000000  0.301043477
    -1.644280772 -1.660889668 -1.660889668    -0.304084320 -0.301043477 -0.000000000
     1.644280772 -1.660889668  1.660889668    -0.000000000 -0.301043477  0.301043477

  length of vectors
     2.867188211  2.867188211  2.867188211     0.427895371  0.427895371  0.425739767

  position of ions in fractional coordinates (direct lattice)
     0.000000000  0.000000000  0.000000000

  ion indices of the primitive-cell ions
   primitive index   ion index
                 1           1

----------------------------------------------------------------------------------------



 KPOINTS: pymatgen with grid density = 869 / numbe

Automatic generation of k-mesh.
 Grid dimensions read from file:
 generate k-points for:    7    7    7

 Generating k-lattice:

  Cartesian coordinates                     Fractional coordinates (reciprocal lattice)
     0.043440617 -0.000000000  0.000000000     0.142857143  0.000000000  0.000000000
     0.000000000  0.043006211  0.000000000     0.000000000  0.142857143  0.000000000
    -0.000000000 -0.000000000  0.043006211    -0.000000000 -0.000000000  0.142857143

  Length of vectors
     0.043440617  0.043006211  0.043006211

  Shift w.r.t. Gamma in fractional coordinates (k-lattice)
     0.000000000  0.000000000  0.000000000

 TETIRR: Found    500 inequivalent tetrahedra from     2058
 
 Subroutine IBZKPT returns following result:
 ===========================================
 
 Found     40 irreducible k-points:
 
 Following reciprocal coordinates:
            Coordinates               Weight
  0.000000  0.000000  0.000000      1.000000
  0.142857  0.000000  0.000000      2.000000
  0.285714  0.000000  0.000000      2.000000
  0.428571  0.000000  0.000000      2.000000
  0.000000  0.142857  0.000000      4.000000
  0.142857  0.142857  0.000000      8.000000
  0.285714  0.142857  0.000000      8.000000
  0.428571  0.142857  0.000000      8.000000
  0.000000  0.285714  0.000000      4.000000
  0.142857  0.285714  0.000000      8.000000
  0.285714  0.285714  0.000000      8.000000
  0.428571  0.285714  0.000000      8.000000
  0.000000  0.428571  0.000000      4.000000
  0.142857  0.428571  0.000000      8.000000
  0.285714  0.428571  0.000000      8.000000
  0.428571  0.428571  0.000000      8.000000
  0.000000  0.142857  0.142857      4.000000
  0.142857  0.142857  0.142857      8.000000
  0.285714  0.142857  0.142857      8.000000
  0.428571  0.142857  0.142857      8.000000
  0.000000  0.285714  0.142857      8.000000
  0.142857  0.285714  0.142857     16.000000
  0.285714  0.285714  0.142857     16.000000
  0.428571  0.285714  0.142857     16.000000
  0.000000  0.428571  0.142857      8.000000
  0.142857  0.428571  0.142857     16.000000
  0.285714  0.428571  0.142857     16.000000
  0.428571  0.428571  0.142857     16.000000
  0.000000  0.285714  0.285714      4.000000
  0.142857  0.285714  0.285714      8.000000
  0.285714  0.285714  0.285714      8.000000
  0.428571  0.285714  0.285714      8.000000
  0.000000  0.428571  0.285714      8.000000
  0.142857  0.428571  0.285714     16.000000
  0.285714  0.428571  0.285714     16.000000
  0.428571  0.428571  0.285714     16.000000
  0.000000  0.428571  0.428571      4.000000
  0.142857  0.428571  0.428571      8.000000
  0.285714  0.428571  0.428571      8.000000
  0.428571  0.428571  0.428571      8.000000
 
 Following cartesian coordinates:
            Coordinates               Weight
  0.000000  0.000000  0.000000      1.000000
  0.043441  0.000000  0.000000      2.000000
  0.086881  0.000000  0.000000      2.000000
  0.130322  0.000000  0.000000      2.000000
  0.000000  0.043006  0.000000      4.000000
  0.043441  0.043006  0.000000      8.000000
  0.086881  0.043006  0.000000      8.000000
  0.130322  0.043006  0.000000      8.000000
  0.000000  0.086012  0.000000      4.000000
  0.043441  0.086012  0.000000      8.000000
  0.086881  0.086012  0.000000      8.000000
  0.130322  0.086012  0.000000      8.000000
  0.000000  0.129019  0.000000      4.000000
  0.043441  0.129019  0.000000      8.000000
  0.086881  0.129019  0.000000      8.000000
  0.130322  0.129019  0.000000      8.000000
  0.000000  0.043006  0.043006      4.000000
  0.043441  0.043006  0.043006      8.000000
  0.086881  0.043006  0.043006      8.000000
  0.130322  0.043006  0.043006      8.000000
  0.000000  0.086012  0.043006      8.000000
  0.043441  0.086012  0.043006     16.000000
  0.086881  0.086012  0.043006     16.000000
  0.130322  0.086012  0.043006     16.000000
  0.000000  0.129019  0.043006      8.000000
  0.043441  0.129019  0.043006     16.000000
  0.086881  0.129019  0.043006     16.000000
  0.130322  0.129019  0.043006     16.000000
  0.000000  0.086012  0.086012      4.000000
  0.043441  0.086012  0.086012      8.000000
  0.086881  0.086012  0.086012      8.000000
  0.130322  0.086012  0.086012      8.000000
  0.000000  0.129019  0.086012      8.000000
  0.043441  0.129019  0.086012     16.000000
  0.086881  0.129019  0.086012     16.000000
  0.130322  0.129019  0.086012     16.000000
  0.000000  0.129019  0.129019      4.000000
  0.043441  0.129019  0.129019      8.000000
  0.086881  0.129019  0.129019      8.000000
  0.130322  0.129019  0.129019      8.000000
 


--------------------------------------------------------------------------------------------------------




 Dimension of arrays:
   k-points           NKPTS =     40   k-points in BZ     NKDIM =     40   number of bands    NBANDS=     16
   number of dos      NEDOS =    301   number of ions     NIONS =      2
   non local maximal  LDIM  =      6   non local SUM 2l+1 LMDIM =     18
   total plane-waves  NPLWV =  18816
   max r-space proj   IRMAX =   9408   max aug-charges    IRDMAX=  32121
   dimension x,y,z NGX =    24 NGY =   28 NGZ =   28
   dimension x,y,z NGXF=    48 NGYF=   56 NGZF=   56
   support grid    NGXF=    48 NGYF=   56 NGZF=   56
   ions per type =               2
   NGX,Y,Z   is equivalent  to a cutoff of  12.13, 14.01, 14.01 a.u.
   NGXF,Y,Z  is equivalent  to a cutoff of  24.27, 28.03, 28.03 a.u.

 SYSTEM =  unknown system                          
 POSCAR =  Generated POSCAR                        

 Startparameter for this run:
   NWRITE =      2    write-flag & timer
   PREC   = accura    normal or accurate (medium, high low for compatibility)
   ISTART =      0    job   : 0-new  1-cont  2-samecut
   ICHARG =      2    charge: 1-file 2-atom 10-const
   ISPIN  =      2    spin polarized calculation?
   LNONCOLLINEAR =      F non collinear calculations
   LSORBIT =      F    spin-orbit coupling
   INIWAV =      1    electr: 0-lowe 1-rand  2-diag
   LASPH  =      T    aspherical Exc in radial PAW
 Electronic Relaxation 1
   ENCUT  =  520.0 eV  38.22 Ry    6.18 a.u.   6.11  6.18  6.18*2*pi/ulx,y,z
   ENINI  =  520.0     initial cutoff
   ENAUG  =  355.1 eV  augmentation charge cutoff
   NELM   =    100;   NELMIN=  2; NELMDL= -5     # of ELM steps 
   EDIFF  = 0.1E-03   stopping-criterion for ELM
   LREAL  =      T    real-space projection
   NLSPLINE    = F    spline interpolate recip. space projectors
   LCOMPAT=      F    compatible to vasp.4.4
   GGA_COMPAT  = T    GGA compatible to vasp.4.4-vasp.4.6
   LMAXPAW     = -100 max onsite density
   LMAXMIX     =    6 max onsite mixed and CHGCAR
   VOSKOWN=      0    Vosko Wilk Nusair interpolation
   ROPT   =   -0.00025
 Ionic relaxation
   EDIFFG = 0.1E-02   stopping-criterion for IOM
   NSW    =      0    number of steps for IOM
   NBLOCK =      1;   KBLOCK =      1    inner block; outer block 
   IBRION =     -1    ionic relax: 0-MD 1-quasi-New 2-CG
   NFREE  =      0    steps in history (QN), initial steepest desc. (CG)
   ISIF   =      2    stress and relaxation
   IWAVPR =     10    prediction:  0-non 1-charg 2-wave 3-comb
   ISYM   =      2    0-nonsym 1-usesym 2-fastsym
   LCORR  =      T    Harris-Foulkes like correction to forces

   POTIM  = 0.5000    time-step for ionic-motion
   TEIN   =    0.0    initial temperature
   TEBEG  =    0.0;   TEEND  =   0.0 temperature during run
   SMASS  =  -3.00    Nose mass-parameter (am)
   estimated Nose-frequenzy (Omega)   =  0.10E-29 period in steps = 0.13E+47 mass=  -0.247E-27a.u.
   SCALEE = 1.0000    scale energy and forces
   NPACO  =    256;   APACO  = 10.0  distance and # of slots for P.C.
   PSTRESS=    0.0 pullay stress

  Mass of Ions in am
   POMASS =  92.00
  Ionic Valenz
   ZVAL   =  11.00
  Atomic Wigner-Seitz radii
   RWIGS  =  -1.00
  virtual crystal weights 
   VCA    =   1.00
   NELECT =      22.0000    total number of electrons
   NUPDOWN=      -1.0000    fix difference up-down

 DOS related values:
   EMIN   =  10.00;   EMAX   =-10.00  energy-range for DOS
   EFERMI =   0.00;   METHOD = LEGACY      
   ISMEAR =    -5;   SIGMA  =   0.05  broadening in eV -4-tet -1-fermi 0-gaus

 Electronic relaxation 2 (details)
   IALGO  =     68    algorithm
   LDIAG  =      T    sub-space diagonalisation (order eigenvalues)
   LSUBROT=      F    optimize rotation matrix (better conditioning)
   TURBO    =      0    0=normal 1=particle mesh
   IRESTART =      0    0=no restart 2=restart with 2 vectors
   NREBOOT  =      0    no. of reboots
   NMIN     =      0    reboot dimension
   EREF     =   0.00    reference energy to select bands
   IMIX   =      4    mixing-type and parameters
     AMIX     =   0.40;   BMIX     =  1.00
     AMIX_MAG =   1.60;   BMIX_MAG =  1.00
     AMIN     =   0.10
     WC   =   100.;   INIMIX=   1;  MIXPRE=   1;  MAXMIX= -45

 Intra band minimization:
   WEIMIN = 0.0000     energy-eigenvalue tresh-hold
   EBREAK =  0.16E-05  absolut break condition
   DEPER  =   0.30     relativ break condition  

   TIME   =   0.40     timestep for ELM

  volume/ion in A,a.u.               =      18.14       122.44
  Fermi-wavevector in a.u.,A,eV,Ry     =   1.385585  2.618376 26.121093  1.919846
  Thomas-Fermi vector in A             =   2.509981

 Write flags
   LWAVE        =      F    write WAVECAR
   LDOWNSAMPLE  =      F    k-point downsampling of WAVECAR
   LCHARG       =      T    write CHGCAR
   LVTOT        =      F    write LOCPOT, total local potential
   LVHAR        =      F    write LOCPOT, Hartree potential only
   LELF         =      F    write electronic localiz. function (ELF)
   LORBIT       =     11    0 simple, 1 ext, 2 COOP (PROOUT), +10 PAW based schemes


 Dipole corrections
   LMONO  =      F    monopole corrections only (constant potential shift)
   LDIPOL =      F    correct potential (dipole corrections)
   IDIPOL =      0    1-x, 2-y, 3-z, 4-all directions 
   EPSILON=  1.0000000 bulk dielectric constant

 Exchange correlation treatment:
   GGA     =    --    GGA type
   LEXCH   =     8    internal setting for exchange type
   LIBXC   =     F    Libxc                    
   VOSKOWN =     0    Vosko Wilk Nusair interpolation
   LHFCALC =     F    Hartree Fock is set to
   LHFONE  =     F    Hartree Fock one center treatment
   AEXX    =    0.0000 exact exchange contribution

 Linear response parameters
   LEPSILON=     F    determine dielectric tensor
   LRPA    =     F    only Hartree local field effects (RPA)
   LNABLA  =     F    use nabla operator in PAW spheres
   LVEL    =     F    velocity operator in full k-point grid
   CSHIFT  =0.1000    complex shift for real part using Kramers Kronig
   OMEGAMAX=  -1.0    maximum frequency
   DEG_THRESHOLD= 0.2000000E-02 threshold for treating states as degnerate
   RTIME   =   -0.100 relaxation time in fs
  (WPLASMAI=    0.000 imaginary part of plasma frequency in eV, 0.658/RTIME)
   DFIELD  = 0.0000000 0.0000000 0.0000000 field for delta impulse in time

  Optional k-point grid parameters
   LKPOINTS_OPT  =     F    use optional k-point grid
   KPOINTS_OPT_MODE=     1    mode for optional k-point grid

 Orbital magnetization related:
   ORBITALMAG=     F  switch on orbital magnetization
   LCHIMAG   =     F  perturbation theory with respect to B field
   DQ        =  0.001000  dq finite difference perturbation B field
   LLRAUG    =     F  two centre corrections for induced B field
   LBONE     =     F  B-component reconstruction in AE one-centre
   LVGVCALC  =     T  calculate vGv susceptibility
   LVGVAPPL  =     F  apply vGv susceptibility instead of pGv for G=0

 Random number generation:
   RANDOM_GENERATOR = DEFAULT
   PCG_SEED         = not used


--------------------------------------------------------------------------------------------------------


 Static calculation
 charge density and potential will be updated during run
 spin polarized calculation
 RMM-DIIS sequential band-by-band and
  variant of blocked Davidson during initial phase
 perform sub-space diagonalisation
    before iterative eigenvector-optimisation
 modified Broyden-mixing scheme, WC =      100.0
 initial mixing is a Kerker type mixing with AMIX =  0.4000 and BMIX =      1.0000
 Hartree-type preconditioning will be used
 using additional bands            5
 real space projection scheme for non local part
 use partial core corrections
 calculate Harris-corrections to forces   (improved forces if not selfconsistent)
 use gradient corrections 
 use of overlap-Matrix (Vanderbilt PP)
 Fermi weights with tetrahedron method with Bloechl corrections


--------------------------------------------------------------------------------------------------------


  energy-cutoff  :      520.00
  volume of cell :       36.29
      direct lattice vectors                 reciprocal lattice vectors
     3.288561544  0.000000000  0.000000000     0.304084320 -0.000000000  0.000000000
     0.000000000  3.321779337  0.000000000     0.000000000  0.301043477  0.000000000
     0.000000000  0.000000000  3.321779337    -0.000000000 -0.000000000  0.301043477

  length of vectors
     3.288561544  3.321779337  3.321779337     0.304084320  0.301043477  0.301043477



 k-points in units of 2pi/SCALE and weight: pymatgen with grid density = 869 / numbe
   0.00000000  0.00000000  0.00000000       0.003
   0.04344062  0.00000000  0.00000000       0.006
   0.08688123  0.00000000  0.00000000       0.006
   0.13032185  0.00000000  0.00000000       0.006
   0.00000000  0.04300621  0.00000000       0.012
   0.04344062  0.04300621  0.00000000       0.023
   0.08688123  0.04300621  0.00000000       0.023
   0.13032185  0.04300621  0.00000000       0.023
   0.00000000  0.08601242  0.00000000       0.012
   0.04344062  0.08601242  0.00000000       0.023
   0.08688123  0.08601242  0.00000000       0.023
   0.13032185  0.08601242  0.00000000       0.023
   0.00000000  0.12901863  0.00000000       0.012
   0.04344062  0.12901863  0.00000000       0.023
   0.08688123  0.12901863  0.00000000       0.023
   0.13032185  0.12901863  0.00000000       0.023
   0.00000000  0.04300621  0.04300621       0.012
   0.04344062  0.04300621  0.04300621       0.023
   0.08688123  0.04300621  0.04300621       0.023
   0.13032185  0.04300621  0.04300621       0.023
   0.00000000  0.08601242  0.04300621       0.023
   0.04344062  0.08601242  0.04300621       0.047
   0.08688123  0.08601242  0.04300621       0.047
   0.13032185  0.08601242  0.04300621       0.047
   0.00000000  0.12901863  0.04300621       0.023
   0.04344062  0.12901863  0.04300621       0.047
   0.08688123  0.12901863  0.04300621       0.047
   0.13032185  0.12901863  0.04300621       0.047
   0.00000000  0.08601242  0.08601242       0.012
   0.04344062  0.08601242  0.08601242       0.023
   0.08688123  0.08601242  0.08601242       0.023
   0.13032185  0.08601242  0.08601242       0.023
   0.00000000  0.12901863  0.08601242       0.023
   0.04344062  0.12901863  0.08601242       0.047
   0.08688123  0.12901863  0.08601242       0.047
   0.13032185  0.12901863  0.08601242       0.047
   0.00000000  0.12901863  0.12901863       0.012
   0.04344062  0.12901863  0.12901863       0.023
   0.08688123  0.12901863  0.12901863       0.023
   0.13032185  0.12901863  0.12901863       0.023

 k-points in reciprocal lattice and weights: pymatgen with grid density = 869 / numbe
   0.00000000  0.00000000  0.00000000       0.003
   0.14285714  0.00000000  0.00000000       0.006
   0.28571429  0.00000000  0.00000000       0.006
   0.42857143  0.00000000  0.00000000       0.006
   0.00000000  0.14285714  0.00000000       0.012
   0.14285714  0.14285714  0.00000000       0.023
   0.28571429  0.14285714  0.00000000       0.023
   0.42857143  0.14285714  0.00000000       0.023
   0.00000000  0.28571429  0.00000000       0.012
   0.14285714  0.28571429  0.00000000       0.023
   0.28571429  0.28571429  0.00000000       0.023
   0.42857143  0.28571429  0.00000000       0.023
   0.00000000  0.42857143  0.00000000       0.012
   0.14285714  0.42857143  0.00000000       0.023
   0.28571429  0.42857143  0.00000000       0.023
   0.42857143  0.42857143  0.00000000       0.023
   0.00000000  0.14285714  0.14285714       0.012
   0.14285714  0.14285714  0.14285714       0.023
   0.28571429  0.14285714  0.14285714       0.023
   0.42857143  0.14285714  0.14285714       0.023
   0.00000000  0.28571429  0.14285714       0.023
   0.14285714  0.28571429  0.14285714       0.047
   0.28571429  0.28571429  0.14285714       0.047
   0.42857143  0.28571429  0.14285714       0.047
   0.00000000  0.42857143  0.14285714       0.023
   0.14285714  0.42857143  0.14285714       0.047
   0.28571429  0.42857143  0.14285714       0.047
   0.42857143  0.42857143  0.14285714       0.047
   0.00000000  0.28571429  0.28571429       0.012
   0.14285714  0.28571429  0.28571429       0.023
   0.28571429  0.28571429  0.28571429       0.023
   0.42857143  0.28571429  0.28571429       0.023
   0.00000000  0.42857143  0.28571429       0.023
   0.14285714  0.42857143  0.28571429       0.047
   0.28571429  0.42857143  0.28571429       0.047
   0.42857143  0.42857143  0.28571429       0.047
   0.00000000  0.42857143  0.42857143       0.012
   0.14285714  0.42857143  0.42857143       0.023
   0.28571429  0.42857143  0.42857143       0.023
   0.42857143  0.42857143  0.42857143       0.023

 position of ions in fractional coordinates (direct lattice) 
   0.00000000  0.00000000  0.00000000
   0.50000000  0.50000000  0.50000000

 position of ions in cartesian coordinates  (Angst):
   0.00000000  0.00000000  0.00000000
   1.64428077  1.66088967  1.66088967



--------------------------------------------------------------------------------------------------------


 k-point   1 :   0.0000 0.0000 0.0000  plane waves:     981
 k-point   2 :   0.1429 0.0000 0.0000  plane waves:     980
 k-point   3 :   0.2857 0.0000 0.0000  plane waves:     968
 k-point   4 :   0.4286 0.0000 0.0000  plane waves:     988
 k-point   5 :   0.0000 0.1429 0.0000  plane waves:     977
 k-point   6 :   0.1429 0.1429 0.0000  plane waves:     977
 k-point   7 :   0.2857 0.1429 0.0000  plane waves:     972
 k-point   8 :   0.4286 0.1429 0.0000  plane waves:     975
 k-point   9 :   0.0000 0.2857 0.0000  plane waves:     978
 k-point  10 :   0.1429 0.2857 0.0000  plane waves:     976
 k-point  11 :   0.2857 0.2857 0.0000  plane waves:     980
 k-point  12 :   0.4286 0.2857 0.0000  plane waves:     973
 k-point  13 :   0.0000 0.4286 0.0000  plane waves:     980
 k-point  14 :   0.1429 0.4286 0.0000  plane waves:     974
 k-point  15 :   0.2857 0.4286 0.0000  plane waves:     975
 k-point  16 :   0.4286 0.4286 0.0000  plane waves:     985
 k-point  17 :   0.0000 0.1429 0.1429  plane waves:     969
 k-point  18 :   0.1429 0.1429 0.1429  plane waves:     968
 k-point  19 :   0.2857 0.1429 0.1429  plane waves:     975
 k-point  20 :   0.4286 0.1429 0.1429  plane waves:     979
 k-point  21 :   0.0000 0.2857 0.1429  plane waves:     975
 k-point  22 :   0.1429 0.2857 0.1429  plane waves:     978
 k-point  23 :   0.2857 0.2857 0.1429  plane waves:     981
 k-point  24 :   0.4286 0.2857 0.1429  plane waves:     976
 k-point  25 :   0.0000 0.4286 0.1429  plane waves:     975
 k-point  26 :   0.1429 0.4286 0.1429  plane waves:     974
 k-point  27 :   0.2857 0.4286 0.1429  plane waves:     977
 k-point  28 :   0.4286 0.4286 0.1429  plane waves:     979
 k-point  29 :   0.0000 0.2857 0.2857  plane waves:     977
 k-point  30 :   0.1429 0.2857 0.2857  plane waves:     982
 k-point  31 :   0.2857 0.2857 0.2857  plane waves:     977
 k-point  32 :   0.4286 0.2857 0.2857  plane waves:     978
 k-point  33 :   0.0000 0.4286 0.2857  plane waves:     972
 k-point  34 :   0.1429 0.4286 0.2857  plane waves:     974
 k-point  35 :   0.2857 0.4286 0.2857  plane waves:     979
 k-point  36 :   0.4286 0.4286 0.2857  plane waves:     984
 k-point  37 :   0.0000 0.4286 0.4286  plane waves:     982
 k-point  38 :   0.1429 0.4286 0.4286  plane waves:     982
 k-point  39 :   0.2857 0.4286 0.4286  plane waves:     986
 k-point  40 :   0.4286 0.4286 0.4286  plane waves:     981

 maximum and minimum number of plane-waves per node :       988      968

 maximum number of plane-waves:       988
 maximum index in each direction: 
   IXMAX=    6   IYMAX=    6   IZMAX=    6
   IXMIN=   -6   IYMIN=   -6   IZMIN=   -6


 serial   3D FFT for wavefunctions
 parallel 3D FFT for charge:
    minimum data exchange during FFTs selected (reduces bandwidth)


 total amount of memory used by VASP MPI-rank0    74388. kBytes
=======================================================================

   base      :      30000. kBytes
   nonlr-proj:       5386. kBytes
   fftplans  :       5304. kBytes
   grid      :      12665. kBytes
   one-center:         62. kBytes
   wavefun   :      20971. kBytes

     INWAV:  cpu time      0.0045: real time      0.0000
 Broyden mixing: mesh for mixing (old mesh)
   NGX = 13   NGY = 13   NGZ = 13
  (NGX  = 48   NGY  = 56   NGZ  = 56)
  gives a total of   2197 points

 initial charge density was supplied:
 charge density of overlapping atoms calculated
 number of electron      22.0000000 magnetization       1.2000000
 keeping initial charge density in first step


--------------------------------------------------------------------------------------------------------


 Maximum index for non-local projection operator          978
 Maximum index for augmentation-charges        30915 (set IRDMAX)


--------------------------------------------------------------------------------------------------------


 First call to EWALD:  gamma=   0.535
 Maximum number of real-space cells 3x 3x 3
 Maximum number of reciprocal cells 3x 3x 3

    FEWALD:  cpu time      0.0041: real time      0.0041


--------------------------------------- Ionic step        1  -------------------------------------------




--------------------------------------- Iteration      1(   1)  ---------------------------------------


    POTLOK:  cpu time      1.7750: real time      0.1229
    SETDIJ:  cpu time      1.2171: real time      0.2572
     EDDAV:  cpu time    312.6289: real time     16.7809
 BZINTS: Fermi energy:   23.760218;   22.000000 electrons
         Band energy:-0.272080E+02;  BLOECHL correction:   -0.478359
       DOS:  cpu time      0.1975: real time      0.0265
    --------------------------------------------
      LOOP:  cpu time    315.8185: real time     17.1875

 eigenvalue-minimisations  :  2816
 total energy-change (2. order) : 0.2013815E+03  (-0.1165718E+04)
 number of electron      22.0000000 magnetization       1.2000000
 augmentation part       22.0000000 magnetization       1.2000000

 Free energy of the ion-electron system (eV)
  ---------------------------------------------------
  alpha Z        PSCENC =       249.51761798
  Ewald energy   TEWEN  =     -1915.29059055
  -Hartree energ DENC   =      -277.02786133
  -exchange      EXHF   =         0.00000000
  -V(xc)+E(xc)   XCENC  =        52.70057731
  PAW double counting   =      1671.32378679    -1639.41528309
  entropy T*S    EENTRO =         0.00000000
  eigenvalues    EBANDS =       -27.20800394
  atomic energy  EATOM  =      2086.78124273
  Solvation  Ediel_sol  =         0.00000000
  ---------------------------------------------------
  free energy    TOTEN  =       201.38148589 eV

  energy without entropy =      201.38148589  energy(sigma->0) =      201.38148589


--------------------------------------------------------------------------------------------------------




--------------------------------------- Iteration      1(   2)  ---------------------------------------


     EDDAV:  cpu time    228.1791: real time     12.8498
 BZINTS: Fermi energy:    7.134284;   22.000000 electrons
         Band energy:-0.238926E+03;  BLOECHL correction:   -0.229238
       DOS:  cpu time      0.2377: real time      0.0278
    --------------------------------------------
      LOOP:  cpu time    228.4168: real time     12.8777

 eigenvalue-minimisations  :  2704
 total energy-change (2. order) :-0.2117185E+03  (-0.2095109E+03)
 number of electron      22.0000000 magnetization       1.2000000
 augmentation part       22.0000000 magnetization       1.2000000

 Free energy of the ion-electron system (eV)
  ---------------------------------------------------
  alpha Z        PSCENC =       249.51761798
  Ewald energy   TEWEN  =     -1915.29059055
  -Hartree energ DENC   =      -277.02786133
  -exchange      EXHF   =         0.00000000
  -V(xc)+E(xc)   XCENC  =        52.70057731
  PAW double counting   =      1671.32378679    -1639.41528309
  entropy T*S    EENTRO =         0.00000000
  eigenvalues    EBANDS =      -238.92646914
  atomic energy  EATOM  =      2086.78124273
  Solvation  Ediel_sol  =         0.00000000
  ---------------------------------------------------
  free energy    TOTEN  =       -10.33697930 eV

  energy without entropy =      -10.33697930  energy(sigma->0) =      -10.33697930


--------------------------------------------------------------------------------------------------------




--------------------------------------- Iteration      1(   3)  ---------------------------------------


     EDDAV:  cpu time    341.1046: real time     19.1097
 BZINTS: Fermi energy:    5.546505;   22.000000 electrons
         Band energy:-0.249534E+03;  BLOECHL correction:   -0.216477
       DOS:  cpu time      0.2831: real time      0.0289
    --------------------------------------------
      LOOP:  cpu time    341.3877: real time     19.1387

 eigenvalue-minimisations  :  4248
 total energy-change (2. order) :-0.1060730E+02  (-0.1000709E+02)
 number of electron      22.0000000 magnetization       1.2000000
 augmentation part       22.0000000 magnetization       1.2000000

 Free energy of the ion-electron system (eV)
  ---------------------------------------------------
  alpha Z        PSCENC =       249.51761798
  Ewald energy   TEWEN  =     -1915.29059055
  -Hartree energ DENC   =      -277.02786133
  -exchange      EXHF   =         0.00000000
  -V(xc)+E(xc)   XCENC  =        52.70057731
  PAW double counting   =      1671.32378679    -1639.41528309
  entropy T*S    EENTRO =         0.00000000
  eigenvalues    EBANDS =      -249.53377390
  atomic energy  EATOM  =      2086.78124273
  Solvation  Ediel_sol  =         0.00000000
  ---------------------------------------------------
  free energy    TOTEN  =       -20.94428406 eV

  energy without entropy =      -20.94428406  energy(sigma->0) =      -20.94428406


--------------------------------------------------------------------------------------------------------




--------------------------------------- Iteration      1(   4)  ---------------------------------------


     EDDAV:  cpu time    328.3311: real time     17.9797
 BZINTS: Fermi energy:    5.516340;   22.000000 electrons
         Band energy:-0.249718E+03;  BLOECHL correction:   -0.213082
       DOS:  cpu time      0.2537: real time      0.0274
    --------------------------------------------
      LOOP:  cpu time    328.5847: real time     18.0071

 eigenvalue-minimisations  :  3240
 total energy-change (2. order) :-0.1843366E+00  (-0.1818608E+00)
 number of electron      22.0000000 magnetization       1.2000000
 augmentation part       22.0000000 magnetization       1.2000000

 Free energy of the ion-electron system (eV)
  ---------------------------------------------------
  alpha Z        PSCENC =       249.51761798
  Ewald energy   TEWEN  =     -1915.29059055
  -Hartree energ DENC   =      -277.02786133
  -exchange      EXHF   =         0.00000000
  -V(xc)+E(xc)   XCENC  =        52.70057731
  PAW double counting   =      1671.32378679    -1639.41528309
  entropy T*S    EENTRO =         0.00000000
  eigenvalues    EBANDS =      -249.71811052
  atomic energy  EATOM  =      2086.78124273
  Solvation  Ediel_sol  =         0.00000000
  ---------------------------------------------------
  free energy    TOTEN  =       -21.12862068 eV

  energy without entropy =      -21.12862068  energy(sigma->0) =      -21.12862068


--------------------------------------------------------------------------------------------------------




--------------------------------------- Iteration      1(   5)  ---------------------------------------


     EDDAV:  cpu time    478.0028: real time     25.0369
 BZINTS: Fermi energy:    5.515082;   22.000000 electrons
         Band energy:-0.249724E+03;  BLOECHL correction:   -0.213200
       DOS:  cpu time      0.3186: real time      0.0330
    CHARGE:  cpu time     24.5797: real time      1.3225
    MIXING:  cpu time      0.0011: real time      0.0011
    --------------------------------------------
      LOOP:  cpu time    502.9022: real time     26.3935

 eigenvalue-minimisations  :  4048
 total energy-change (2. order) :-0.5907801E-02  (-0.5742495E-02)
 number of electron      21.9999998 magnetization       0.3366586
 augmentation part        7.7620995 magnetization      -0.0612315

 Broyden mixing:
  rms(total) = 0.24437E+01    rms(broyden)= 0.24437E+01
  rms(prec ) = 0.28552E+01
  weight for this iteration     100.00

 Free energy of the ion-electron system (eV)
  ---------------------------------------------------
  alpha Z        PSCENC =       249.51761798
  Ewald energy   TEWEN  =     -1915.29059055
  -Hartree energ DENC   =      -277.02786133
  -exchange      EXHF   =         0.00000000
  -V(xc)+E(xc)   XCENC  =        52.70057731
  PAW double counting   =      1671.32378679    -1639.41528309
  entropy T*S    EENTRO =         0.00000000
  eigenvalues    EBANDS =      -249.72401832
  atomic energy  EATOM  =      2086.78124273
  Solvation  Ediel_sol  =         0.00000000
  ---------------------------------------------------
  free energy    TOTEN  =       -21.13452849 eV

  energy without entropy =      -21.13452849  energy(sigma->0) =      -21.13452849


--------------------------------------------------------------------------------------------------------




--------------------------------------- Iteration      1(   6)  ---------------------------------------


    POTLOK:  cpu time      1.0594: real time      0.0923
    SETDIJ:  cpu time      1.1978: real time      0.2595
    EDDIAG:  cpu time     48.9896: real time      2.7970
  RMM-DIIS:  cpu time    399.4728: real time     19.3161
    ORTHCH:  cpu time      1.4991: real time      0.0874
 BZINTS: Fermi energy:    5.169917;   22.000000 electrons
         Band energy:-0.263531E+03;  BLOECHL correction:   -0.214665
       DOS:  cpu time      0.2983: real time      0.0293
    CHARGE:  cpu time     23.2115: real time      1.2684
    MIXING:  cpu time      0.0016: real time      0.0016
    --------------------------------------------
      LOOP:  cpu time    475.7301: real time     23.8518

 eigenvalue-minimisations  :  2808
 total energy-change (2. order) : 0.7874207E+00  (-0.7786166E-01)
 number of electron      21.9999998 magnetization       0.1417610
 augmentation part        7.8873664 magnetization      -0.0612983

 Broyden mixing:
  rms(total) = 0.93992E+00    rms(broyden)= 0.93992E+00
  rms(prec ) = 0.12125E+01
  weight for this iteration     100.00

 eigenvalues of (default mixing * dielectric matrix)
  average eigenvalue GAMMA=   1.5128
  1.5128

 Free energy of the ion-electron system (eV)
  ---------------------------------------------------
  alpha Z        PSCENC =       249.51761798
  Ewald energy   TEWEN  =     -1915.29059055
  -Hartree energ DENC   =      -257.92325761
  -exchange      EXHF   =         0.00000000
  -V(xc)+E(xc)   XCENC  =        51.69675671
  PAW double counting   =      2200.23913971    -2171.83684570
  entropy T*S    EENTRO =         0.00000000
  eigenvalues    EBANDS =      -263.53117105
  atomic energy  EATOM  =      2086.78124273
  Solvation  Ediel_sol  =         0.00000000
  ---------------------------------------------------
  free energy    TOTEN  =       -20.34710779 eV

  energy without entropy =      -20.34710779  energy(sigma->0) =      -20.34710779


--------------------------------------------------------------------------------------------------------




--------------------------------------- Iteration      1(   7)  ---------------------------------------


    POTLOK:  cpu time      1.3770: real time      0.1059
    SETDIJ:  cpu time      1.0618: real time      0.2551
    EDDIAG:  cpu time     52.0647: real time      2.9450
  RMM-DIIS:  cpu time    209.4942: real time     11.3266
    ORTHCH:  cpu time      0.6306: real time      0.0408
 BZINTS: Fermi energy:    4.880821;   22.000000 electrons
         Band energy:-0.275180E+03;  BLOECHL correction:   -0.211762
       DOS:  cpu time      0.3119: real time      0.0302
    CHARGE:  cpu time     18.2962: real time      1.0408
    MIXING:  cpu time      0.0030: real time      0.0030
    --------------------------------------------
      LOOP:  cpu time    283.2394: real time     15.7474

 eigenvalue-minimisations  :  3482
 total energy-change (2. order) : 0.1489979E+00  (-0.2100346E+00)
 number of electron      21.9999998 magnetization       0.0257969
 augmentation part        8.0576541 magnetization       0.0332794

 Broyden mixing:
  rms(total) = 0.24916E+00    rms(broyden)= 0.24916E+00
  rms(prec ) = 0.26645E+00
  weight for this iteration     100.00

 eigenvalues of (default mixing * dielectric matrix)
  average eigenvalue GAMMA=   1.0813
  1.6292  0.5334

 Free energy of the ion-electron system (eV)
  ---------------------------------------------------
  alpha Z        PSCENC =       249.51761798
  Ewald energy   TEWEN  =     -1915.29059055
  -Hartree energ DENC   =      -242.30058853
  -exchange      EXHF   =         0.00000000
  -V(xc)+E(xc)   XCENC  =        50.91990501
  PAW double counting   =      2650.67473766    -2625.32088513
  entropy T*S    EENTRO =         0.00000000
  eigenvalues    EBANDS =      -275.17954909
  atomic energy  EATOM  =      2086.78124273
  Solvation  Ediel_sol  =         0.00000000
  ---------------------------------------------------
  free energy    TOTEN  =       -20.19810991 eV

  energy without entropy =      -20.19810991  energy(sigma->0) =      -20.19810991


--------------------------------------------------------------------------------------------------------




--------------------------------------- Iteration      1(   8)  ---------------------------------------


    POTLOK:  cpu time      1.2212: real time      0.1031
    SETDIJ:  cpu time      1.2219: real time      0.2535
    EDDIAG:  cpu time     55.2526: real time      3.0991
  RMM-DIIS:  cpu time    289.0571: real time     14.9213
    ORTHCH:  cpu time      2.9332: real time      0.1620
 BZINTS: Fermi energy:    4.891157;   22.000000 electrons
         Band energy:-0.274673E+03;  BLOECHL correction:   -0.211865
       DOS:  cpu time      0.2294: real time      0.0300
    CHARGE:  cpu time     22.6128: real time      1.2222
    MIXING:  cpu time      0.0017: real time      0.0017
    --------------------------------------------
      LOOP:  cpu time    372.5300: real time     19.7929

 eigenvalue-minimisations  :  3681
 total energy-change (2. order) :-0.1131051E-01  (-0.1034674E-01)
 number of electron      21.9999998 magnetization       0.0143334
 augmentation part        8.0644172 magnetization       0.0129652

 Broyden mixing:
  rms(total) = 0.11966E+00    rms(broyden)= 0.11966E+00
  rms(prec ) = 0.14686E+00
  weight for this iteration     100.00

 eigenvalues of (default mixing * dielectric matrix)
  average eigenvalue GAMMA=   1.0722
  1.8482  0.6842  0.6842

 Free energy of the ion-electron system (eV)
  ---------------------------------------------------
  alpha Z        PSCENC =       249.51761798
  Ewald energy   TEWEN  =     -1915.29059055
  -Hartree energ DENC   =      -242.60231470
  -exchange      EXHF   =         0.00000000
  -V(xc)+E(xc)   XCENC  =        50.92805236
  PAW double counting   =      2700.61150158    -2675.48193136
  entropy T*S    EENTRO =         0.00000000
  eigenvalues    EBANDS =      -274.67299846
  atomic energy  EATOM  =      2086.78124273
  Solvation  Ediel_sol  =         0.00000000
  ---------------------------------------------------
  free energy    TOTEN  =       -20.20942042 eV

  energy without entropy =      -20.20942042  energy(sigma->0) =      -20.20942042


--------------------------------------------------------------------------------------------------------




--------------------------------------- Iteration      1(   9)  ---------------------------------------


    POTLOK:  cpu time      1.3498: real time      0.1131
    SETDIJ:  cpu time      1.1154: real time      0.2527
    EDDIAG:  cpu time     46.3137: real time      2.6651
  RMM-DIIS:  cpu time   1098.2559: real time     49.8792
    ORTHCH:  cpu time      0.7824: real time      0.0462
 BZINTS: Fermi energy:    4.899855;   22.000000 electrons
         Band energy:-0.274266E+03;  BLOECHL correction:   -0.212009
       DOS:  cpu time      0.2532: real time      0.0325
    CHARGE:  cpu time     16.2064: real time      0.9231
    MIXING:  cpu time      0.0017: real time      0.0017
    --------------------------------------------
      LOOP:  cpu time   1164.2785: real time     53.9135

 eigenvalue-minimisations  :  3685
 total energy-change (2. order) : 0.1051578E-03  (-0.2367878E-02)
 number of electron      21.9999998 magnetization       0.0149835
 augmentation part        8.0646895 magnetization       0.0165856

 Broyden mixing:
  rms(total) = 0.97365E-01    rms(broyden)= 0.97365E-01
  rms(prec ) = 0.12315E+00
  weight for this iteration     100.00

 eigenvalues of (default mixing * dielectric matrix)
  average eigenvalue GAMMA=   1.0958
  2.1046  0.8378  0.8378  0.6030

 Free energy of the ion-electron system (eV)
  ---------------------------------------------------
  alpha Z        PSCENC =       249.51761798
  Ewald energy   TEWEN  =     -1915.29059055
  -Hartree energ DENC   =      -242.94457805
  -exchange      EXHF   =         0.00000000
  -V(xc)+E(xc)   XCENC  =        50.94390426
  PAW double counting   =      2742.23252916    -2717.18377085
  entropy T*S    EENTRO =         0.00000000
  eigenvalues    EBANDS =      -274.26566995
  atomic energy  EATOM  =      2086.78124273
  Solvation  Ediel_sol  =         0.00000000
  ---------------------------------------------------
  free energy    TOTEN  =       -20.20931526 eV

  energy without entropy =      -20.20931526  energy(sigma->0) =      -20.20931526


--------------------------------------------------------------------------------------------------------




--------------------------------------- Iteration      1(  10)  ---------------------------------------


    POTLOK:  cpu time      1.3356: real time      0.1015
    SETDIJ:  cpu time      1.0117: real time      0.2478
    EDDIAG:  cpu time     76.0332: real time      4.0818
  RMM-DIIS:  cpu time    175.1840: real time      9.6010
    ORTHCH:  cpu time      0.6588: real time      0.0476
 BZINTS: Fermi energy:    4.920685;   22.000000 electrons
         Band energy:-0.273341E+03;  BLOECHL correction:   -0.212341
       DOS:  cpu time      0.3059: real time      0.0245
    CHARGE:  cpu time     14.9125: real time      0.8614
    MIXING:  cpu time      0.0016: real time      0.0016
    --------------------------------------------
      LOOP:  cpu time    269.4433: real time     14.9672

 eigenvalue-minimisations  :  2945
 total energy-change (2. order) : 0.3321505E-02  (-0.5471084E-03)
 number of electron      21.9999998 magnetization      -0.0061780
 augmentation part        8.0566724 magnetization      -0.0010728

 Broyden mixing:
  rms(total) = 0.67706E-01    rms(broyden)= 0.67706E-01
  rms(prec ) = 0.75460E-01
  weight for this iteration     100.00

 eigenvalues of (default mixing * dielectric matrix)
  average eigenvalue GAMMA=   1.3565
  2.6676  1.3653  1.3653  0.6248  0.7596

 Free energy of the ion-electron system (eV)
  ---------------------------------------------------
  alpha Z        PSCENC =       249.51761798
  Ewald energy   TEWEN  =     -1915.29059055
  -Hartree energ DENC   =      -243.84301413
  -exchange      EXHF   =         0.00000000
  -V(xc)+E(xc)   XCENC  =        50.98673298
  PAW double counting   =      2819.90534207    -2794.92255894
  entropy T*S    EENTRO =         0.00000000
  eigenvalues    EBANDS =      -273.34076589
  atomic energy  EATOM  =      2086.78124273
  Solvation  Ediel_sol  =         0.00000000
  ---------------------------------------------------
  free energy    TOTEN  =       -20.20599376 eV

  energy without entropy =      -20.20599376  energy(sigma->0) =      -20.20599376


--------------------------------------------------------------------------------------------------------




--------------------------------------- Iteration      1(  11)  ---------------------------------------


    POTLOK:  cpu time      1.1546: real time      0.1043
    SETDIJ:  cpu time      1.0204: real time      0.2561
    EDDIAG:  cpu time     60.1362: real time      3.3400
  RMM-DIIS:  cpu time    240.4317: real time     12.6305
    ORTHCH:  cpu time      0.8996: real time      0.0526
 BZINTS: Fermi energy:    4.933019;   22.000000 electrons
         Band energy:-0.272787E+03;  BLOECHL correction:   -0.212526
       DOS:  cpu time      0.2350: real time      0.0255
    CHARGE:  cpu time     36.6014: real time      1.8746
    MIXING:  cpu time      0.0018: real time      0.0018
    --------------------------------------------
      LOOP:  cpu time    340.4806: real time     18.2853

 eigenvalue-minimisations  :  3357
 total energy-change (2. order) :-0.4149802E-04  (-0.5430914E-03)
 number of electron      21.9999998 magnetization      -0.0045356
 augmentation part        8.0497528 magnetization      -0.0003565

 Broyden mixing:
  rms(total) = 0.41180E-02    rms(broyden)= 0.41180E-02
  rms(prec ) = 0.47080E-02
  weight for this iteration     100.00

 eigenvalues of (default mixing * dielectric matrix)
  average eigenvalue GAMMA=   1.2705
  2.5960  1.4514  1.4514  0.7912  0.6144  0.7187

 Free energy of the ion-electron system (eV)
  ---------------------------------------------------
  alpha Z        PSCENC =       249.51761798
  Ewald energy   TEWEN  =     -1915.29059055
  -Hartree energ DENC   =      -244.34473401
  -exchange      EXHF   =         0.00000000
  -V(xc)+E(xc)   XCENC  =        51.01038506
  PAW double counting   =      2899.44886239    -2874.54218797
  entropy T*S    EENTRO =         0.00000000
  eigenvalues    EBANDS =      -272.78663089
  atomic energy  EATOM  =      2086.78124273
  Solvation  Ediel_sol  =         0.00000000
  ---------------------------------------------------
  free energy    TOTEN  =       -20.20603526 eV

  energy without entropy =      -20.20603526  energy(sigma->0) =      -20.20603526


--------------------------------------------------------------------------------------------------------




--------------------------------------- Iteration      1(  12)  ---------------------------------------


    POTLOK:  cpu time      1.2621: real time      0.1065
    SETDIJ:  cpu time      1.1033: real time      0.2590
    EDDIAG:  cpu time    118.5734: real time      6.1646
  RMM-DIIS:  cpu time    311.5201: real time     15.2832
    ORTHCH:  cpu time      1.3700: real time      0.0772
 BZINTS: Fermi energy:    4.933066;   22.000000 electrons
         Band energy:-0.272785E+03;  BLOECHL correction:   -0.212529
       DOS:  cpu time      0.2402: real time      0.0279
    --------------------------------------------
      LOOP:  cpu time    434.0692: real time     21.9185

 eigenvalue-minimisations  :  2355
 total energy-change (2. order) :-0.7440384E-04  (-0.5855028E-04)
 number of electron      21.9999998 magnetization      -0.0045356
 augmentation part        8.0497528 magnetization      -0.0003565

 Free energy of the ion-electron system (eV)
  ---------------------------------------------------
  alpha Z        PSCENC =       249.51761798
  Ewald energy   TEWEN  =     -1915.29059055
  -Hartree energ DENC   =      -244.36260360
  -exchange      EXHF   =         0.00000000
  -V(xc)+E(xc)   XCENC  =        51.01125599
  PAW double counting   =      2898.71872047    -2873.79707004
  entropy T*S    EENTRO =         0.00000000
  eigenvalues    EBANDS =      -272.78468264
  atomic energy  EATOM  =      2086.78124273
  Solvation  Ediel_sol  =         0.00000000
  ---------------------------------------------------
  free energy    TOTEN  =       -20.20610966 eV

  energy without entropy =      -20.20610966  energy(sigma->0) =      -20.20610966


--------------------------------------------------------------------------------------------------------




 average (electrostatic) potential at core
  the test charge radii are     1.2125
  (the norm of the test charge is              1.0000)
       1 -35.0653       2 -35.0653



 E-fermi :   4.9331     XC(G=0): -12.3969     alpha+bet :-12.8940

 Fermi energy:         4.9330655186

 spin component 1

 k-point     1 :       0.0000    0.0000    0.0000
  band No.  band energies     occupation 
      1     -25.7086      1.00000
      2     -25.7086      1.00000
      3     -25.6823      1.00000
      4     -24.7939      1.00000
      5     -24.7939      1.00000
      6     -24.7935      1.00000
      7      -1.0016      1.00000
      8       1.2154      1.00000
      9       1.2409      1.00000
     10       5.2010     -0.04606
     11       5.3126     -0.03041
     12       5.3126      0.00000
     13       8.0806      0.00000
     14       8.2316      0.00000
     15      10.4471      0.00000
     16      10.4569      0.00000

 k-point     2 :       0.1429    0.0000    0.0000
  band No.  band energies     occupation 
      1     -25.6900      1.00000
      2     -25.6617      1.00000
      3     -25.6617      1.00000
      4     -24.8939      1.00000
      5     -24.8371      1.00000
      6     -24.8371      1.00000
      7      -0.5816      1.00000
      8       1.4480      1.00000
      9       1.5958      1.00000
     10       5.2668      0.03104
     11       5.2668     -0.01769
     12       5.3983      0.00000
     13       7.6463      0.00000
     14       8.3099      0.00000
     15       9.2481      0.00000
     16       9.2481      0.00000

 k-point     3 :       0.2857    0.0000    0.0000
  band No.  band energies     occupation 
      1     -25.6833      1.00000
      2     -25.5310      1.00000
      3     -25.5310      1.00000
      4     -25.1395      1.00000
      5     -24.9596      1.00000
      6     -24.9596      1.00000
      7       0.5358      1.00000
      8       2.1349      1.00000
      9       2.3852      1.00000
     10       5.2615      0.43954
     11       5.2615     -0.01898
     12       5.9748      0.00000
     13       6.2632      0.00000
     14       7.5666      0.00000
     15       7.5666      0.00000
     16       8.8945      0.00000

 k-point     4 :       0.4286    0.0000    0.0000
  band No.  band energies     occupation 
      1     -25.6013      1.00000
      2     -25.4092      1.00000
      3     -25.3441      1.00000
      4     -25.3441      1.00000
      5     -25.1400      1.00000
      6     -25.1400      1.00000
      7       1.9103      1.00000
      8       2.7301      1.00000
      9       3.2379      1.00000
     10       4.6730      0.98950
     11       5.5457     -0.15432
     12       5.5457      0.00000
     13       6.2959      0.00000
     14       6.2959      0.00000
     15       6.8790      0.00000
     16       8.0084      0.00000

 k-point     5 :       0.0000    0.1429    0.0000
  band No.  band energies     occupation 
      1     -25.7104      1.00000
      2     -25.6621      1.00000
      3     -25.6371      1.00000
      4     -24.8908      1.00000
      5     -24.8376      1.00000
      6     -24.8358      1.00000
      7      -0.5900      1.00000
      8       1.4615      1.00000
      9       1.5639      1.00000
     10       5.1775      0.12296
     11       5.2861     -0.03011
     12       5.5048      0.00000
     13       7.5371      0.00000
     14       8.3979      0.00000
     15       9.2946      0.00000
     16       9.3175      0.00000

 k-point     6 :       0.1429    0.1429    0.0000
  band No.  band energies     occupation 
      1     -25.7774      1.00000
      2     -25.6191      1.00000
      3     -25.5372      1.00000
      4     -25.0609      1.00000
      5     -24.8757      1.00000
      6     -24.7966      1.00000
      7      -0.2097      1.00000
      8       1.6987      1.00000
      9       1.8897      1.00000
     10       4.7930      0.87390
     11       5.1396      0.11605
     12       6.0622     -0.00613
     13       7.6961      0.00000
     14       8.0055      0.00000
     15       8.1652      0.00000
     16       8.3176      0.00000

 k-point     7 :       0.2857    0.1429    0.0000
  band No.  band energies     occupation 
      1     -25.8218      1.00000
      2     -25.4993      1.00000
      3     -25.3744      1.00000
      4     -25.3375      1.00000
      5     -24.9842      1.00000
      6     -24.8552      1.00000
      7       0.7661      1.00000
      8       2.2325      1.00000
      9       2.7116      1.00000
     10       4.5385      1.01077
     11       4.9076      0.74790
     12       6.4621     -0.05214
     13       6.9222      0.00000
     14       6.9820      0.00000
     15       7.0344      0.00000
     16       8.6963      0.00000

 k-point     8 :       0.4286    0.1429    0.0000
  band No.  band energies     occupation 
      1     -25.7735      1.00000
      2     -25.6031      1.00000
      3     -25.3293      1.00000
      4     -25.1845      1.00000
      5     -25.1452      1.00000
      6     -24.9981      1.00000
      7       1.8857      1.00000
      8       2.5508      1.00000
      9       3.5185      1.00000
     10       4.4270      1.00261
     11       4.6775      0.95349
     12       5.3142     -0.02811
     13       6.4711      0.00000
     14       6.5468      0.00000
     15       7.9692      0.00000
     16       9.1297      0.00000

 k-point     9 :       0.0000    0.2857    0.0000
  band No.  band energies     occupation 
      1     -25.6899      1.00000
      2     -25.5325      1.00000
      3     -25.5108      1.00000
      4     -25.1297      1.00000
      5     -24.9613      1.00000
      6     -24.9557      1.00000
      7       0.5081      1.00000
      8       2.1347      1.00000
      9       2.3262      1.00000
     10       5.2217      0.47174
     11       5.3225     -0.10037
     12       6.0663      0.00000
     13       6.1807      0.00000
     14       7.6191      0.00000
     15       7.6770      0.00000
     16       8.8888      0.00000

 k-point    10 :       0.1429    0.2857    0.0000
  band No.  band energies     occupation 
      1     -25.8198      1.00000
      2     -25.5004      1.00000
      3     -25.3671      1.00000
      4     -25.3317      1.00000
      5     -24.9853      1.00000
      6     -24.8515      1.00000
      7       0.7498      1.00000
      8       2.2259      1.00000
      9       2.6806      1.00000
     10       4.5408      1.01687
     11       4.9163      0.73560
     12       6.4838     -0.05214
     13       6.9556      0.00000
     14       6.9581      0.00000
     15       7.0774      0.00000
     16       8.6843      0.00000

 k-point    11 :       0.2857    0.2857    0.0000
  band No.  band energies     occupation 
      1     -25.9560      1.00000
      2     -25.6284      1.00000
      3     -25.4124      1.00000
      4     -25.1685      1.00000
      5     -25.0552      1.00000
      6     -24.8033      1.00000
      7       1.2088      1.00000
      8       2.1762      1.00000
      9       3.7151      1.00000
     10       3.9116      1.00000
     11       4.9475      0.84293
     12       5.0992      0.09381
     13       6.6046      0.00000
     14       7.8249      0.00000
     15       8.2339      0.00000
     16       8.4077      0.00000

 k-point    12 :       0.4286    0.2857    0.0000
  band No.  band energies     occupation 
      1     -25.9858      1.00000
      2     -25.8709      1.00000
      3     -25.2903      1.00000
      4     -25.1626      1.00000
      5     -24.9890      1.00000
      6     -24.8571      1.00000
      7       1.5584      1.00000
      8       1.8948      1.00000
      9       3.7522      1.00000
     10       4.1497      1.00000
     11       4.7539      0.77493
     12       5.2544     -0.01819
     13       7.1262      0.00000
     14       7.6846      0.00000
     15       9.1149      0.00000
     16       9.5017      0.00000

 k-point    13 :       0.0000    0.4286    0.0000
  band No.  band energies     occupation 
      1     -25.5948      1.00000
      2     -25.3967      1.00000
      3     -25.3466      1.00000
      4     -25.3298      1.00000
      5     -25.1426      1.00000
      6     -25.1315      1.00000
      7       1.8627      1.00000
      8       2.6661      1.00000
      9       3.2151      1.00000
     10       4.6212      0.99564
     11       5.5545     -0.21064
     12       5.6442      0.00000
     13       6.3367      0.00000
     14       6.4130      0.00000
     15       6.9465      0.00000
     16       8.0451      0.00000

 k-point    14 :       0.1429    0.4286    0.0000
  band No.  band energies     occupation 
      1     -25.7658      1.00000
      2     -25.5935      1.00000
      3     -25.3313      1.00000
      4     -25.1757      1.00000
      5     -25.1473      1.00000
      6     -24.9911      1.00000
      7       1.8621      1.00000
      8       2.5262      1.00000
      9       3.4893      1.00000
     10       4.3983      1.00332
     11       4.6948      0.94286
     12       5.3406     -0.03034
     13       6.5286      0.00000
     14       6.6034      0.00000
     15       8.0147      0.00000
     16       9.2018      0.00000

 k-point    15 :       0.2857    0.4286    0.0000
  band No.  band energies     occupation 
      1     -25.9818      1.00000
      2     -25.8666      1.00000
      3     -25.2912      1.00000
      4     -25.1636      1.00000
      5     -24.9857      1.00000
      6     -24.8541      1.00000
      7       1.5571      1.00000
      8       1.8928      1.00000
      9       3.7606      1.00000
     10       4.1595      1.00000
     11       4.7471      0.77875
     12       5.2390     -0.01278
     13       7.1183      0.00000
     14       7.7211      0.00000
     15       9.0259      0.00000
     16       9.5347      0.00000

 k-point    16 :       0.4286    0.4286    0.0000
  band No.  band energies     occupation 
      1     -26.0954      1.00000
      2     -26.0551      1.00000
      3     -25.2406      1.00000
      4     -25.1950      1.00000
      5     -24.8565      1.00000
      6     -24.8089      1.00000
      7       1.2784      1.00000
      8       1.3868      1.00000
      9       3.3118      1.00000
     10       3.4460      1.00000
     11       6.2989     -0.16342
     12       6.6676     -0.06143
     13       7.8370      0.00000
     14       8.2531      0.00000
     15       8.8103      0.00000
     16       9.8291      0.00000

 k-point    17 :       0.0000    0.1429    0.1429
  band No.  band energies     occupation 
      1     -25.7881      1.00000
      2     -25.5955      1.00000
      3     -25.5463      1.00000
      4     -25.0615      1.00000
      5     -24.8732      1.00000
      6     -24.7947      1.00000
      7      -0.2181      1.00000
      8       1.7058      1.00000
      9       1.8647      1.00000
     10       4.8670      0.80286
     11       5.0585      0.25631
     12       6.1095     -0.00587
     13       7.5852      0.00000
     14       8.0696      0.00000
     15       8.2456      0.00000
     16       8.3178      0.00000

 k-point    18 :       0.1429    0.1429    0.1429
  band No.  band energies     occupation 
      1     -25.7376      1.00000
      2     -25.7245      1.00000
      3     -25.4020      1.00000
      4     -25.1972      1.00000
      5     -24.8444      1.00000
      6     -24.8421      1.00000
      7       0.1480      1.00000
      8       2.0478      1.00000
      9       2.0742      1.00000
     10       4.6469      1.00678
     11       4.7174      0.88886
     12       6.5065     -0.05553
     13       6.7202      0.00000
     14       7.8800      0.00000
     15       7.9857      0.00000
     16       9.4210      0.00000

 k-point    19 :       0.2857    0.1429    0.1429
  band No.  band energies     occupation 
      1     -25.8236      1.00000
      2     -25.5966      1.00000
      3     -25.4509      1.00000
      4     -25.2349      1.00000
      5     -24.9762      1.00000
      6     -24.8608      1.00000
      7       1.0558      1.00000
      8       2.5632      1.00000
      9       2.8167      1.00000
     10       4.3668      1.01280
     11       4.3855      1.06962
     12       5.2396      0.10329
     13       7.3316      0.00000
     14       7.7564      0.00000
     15       7.8917      0.00000
     16       8.5838      0.00000

 k-point    20 :       0.4286    0.1429    0.1429
  band No.  band energies     occupation 
      1     -25.8207      1.00000
      2     -25.6872      1.00000
      3     -25.3945      1.00000
      4     -25.1728      1.00000
      5     -25.0766      1.00000
      6     -24.9447      1.00000
      7       2.0259      1.00000
      8       2.7658      1.00000
      9       3.2827      1.00000
     10       3.9435      1.00578
     11       4.6554      0.98199
     12       4.9661      0.26095
     13       6.7731      0.00000
     14       6.9244      0.00000
     15       8.7346      0.00000
     16       9.0948      0.00000

 k-point    21 :       0.0000    0.2857    0.1429
  band No.  band energies     occupation 
      1     -25.8281      1.00000
      2     -25.4799      1.00000
      3     -25.3755      1.00000
      4     -25.3347      1.00000
      5     -24.9794      1.00000
      6     -24.8507      1.00000
      7       0.7406      1.00000
      8       2.2228      1.00000
      9       2.6678      1.00000
     10       4.6265      1.00545
     11       4.8663      0.81025
     12       6.5592     -0.05111
     13       6.8948      0.00000
     14       6.9795      0.00000
     15       7.0416      0.00000
     16       8.6878      0.00000

 k-point    22 :       0.1429    0.2857    0.1429
  band No.  band energies     occupation 
      1     -25.8263      1.00000
      2     -25.5894      1.00000
      3     -25.4475      1.00000
      4     -25.2313      1.00000
      5     -24.9772      1.00000
      6     -24.8550      1.00000
      7       1.0414      1.00000
      8       2.5714      1.00000
      9       2.7775      1.00000
     10       4.3523      1.01509
     11       4.4305      1.05350
     12       5.2572      0.10226
     13       7.2781      0.00000
     14       7.7856      0.00000
     15       7.9693      0.00000
     16       8.5716      0.00000

 k-point    23 :       0.2857    0.2857    0.1429
  band No.  band energies     occupation 
      1     -25.8989      1.00000
      2     -25.6712      1.00000
      3     -25.5487      1.00000
      4     -25.0743      1.00000
      5     -25.0465      1.00000
      6     -24.8599      1.00000
      7       1.6116      1.00000
      8       2.5819      1.00000
      9       3.7320      1.00000
     10       3.7995      1.00000
     11       4.2320      1.01924
     12       4.3718      0.93079
     13       7.5660      0.00000
     14       7.9305      0.00000
     15       8.4212      0.00000
     16       9.1382      0.00000

 k-point    24 :       0.4286    0.2857    0.1429
  band No.  band energies     occupation 
      1     -25.9442      1.00000
      2     -25.8643      1.00000
      3     -25.3830      1.00000
      4     -25.1965      1.00000
      5     -24.9587      1.00000
      6     -24.8886      1.00000
      7       1.9265      1.00000
      8       2.2313      1.00000
      9       3.6157      1.00000
     10       3.7251      1.00000
     11       4.7932      0.83008
     12       4.8556      0.55372
     13       7.4873      0.00000
     14       7.7358      0.00000
     15       8.9773      0.00000
     16       9.4434      0.00000

 k-point    25 :       0.0000    0.4286    0.1429
  band No.  band energies     occupation 
      1     -25.7724      1.00000
      2     -25.5984      1.00000
      3     -25.3154      1.00000
      4     -25.1813      1.00000
      5     -25.1366      1.00000
      6     -24.9932      1.00000
      7       1.8508      1.00000
      8       2.5149      1.00000
      9       3.4896      1.00000
     10       4.3958      1.00310
     11       4.7823      0.90088
     12       5.4241     -0.03787
     13       6.4339      0.00000
     14       6.5329      0.00000
     15       8.0215      0.00000
     16       9.1724      0.00000

 k-point    26 :       0.1429    0.4286    0.1429
  band No.  band energies     occupation 
      1     -25.8165      1.00000
      2     -25.6809      1.00000
      3     -25.3907      1.00000
      4     -25.1720      1.00000
      5     -25.0700      1.00000
      6     -24.9373      1.00000
      7       2.0132      1.00000
      8       2.7509      1.00000
      9       3.2796      1.00000
     10       3.9378      1.00506
     11       4.6875      0.97385
     12       4.9714      0.26478
     13       6.7816      0.00000
     14       6.9868      0.00000
     15       8.6918      0.00000
     16       9.0045      0.00000

 k-point    27 :       0.2857    0.4286    0.1429
  band No.  band energies     occupation 
      1     -25.9406      1.00000
      2     -25.8604      1.00000
      3     -25.3840      1.00000
      4     -25.1984      1.00000
      5     -24.9551      1.00000
      6     -24.8843      1.00000
      7       1.9327      1.00000
      8       2.2357      1.00000
      9       3.6212      1.00000
     10       3.7477      1.00000
     11       4.7624      0.84204
     12       4.8492      0.55942
     13       7.5115      0.00000
     14       7.7723      0.00000
     15       8.8597      0.00000
     16       9.3641      0.00000

 k-point    28 :       0.4286    0.4286    0.1429
  band No.  band energies     occupation 
      1     -26.0326      1.00000
      2     -26.0051      1.00000
      3     -25.3063      1.00000
      4     -25.2342      1.00000
      5     -24.8935      1.00000
      6     -24.8731      1.00000
      7       1.6887      1.00000
      8       1.7643      1.00000
      9       3.2789      1.00000
     10       3.3829      1.00000
     11       5.9082     -0.15124
     12       6.0039     -0.12981
     13       8.0593      0.00000
     14       8.3153      0.00000
     15       8.8406      0.00000
     16       9.2822      0.00000

 k-point    29 :       0.0000    0.2857    0.2857
  band No.  band energies     occupation 
      1     -25.9626      1.00000
      2     -25.6299      1.00000
      3     -25.3952      1.00000
      4     -25.1672      1.00000
      5     -25.0482      1.00000
      6     -24.7968      1.00000
      7       1.1911      1.00000
      8       2.1723      1.00000
      9       3.6770      1.00000
     10       4.0118      1.00000
     11       4.9103      0.88682
     12       5.1994      0.05498
     13       6.5636      0.00000
     14       7.6931      0.00000
     15       8.2604      0.00000
     16       8.4223      0.00000

 k-point    30 :       0.1429    0.2857    0.2857
  band No.  band energies     occupation 
      1     -25.9044      1.00000
      2     -25.6711      1.00000
      3     -25.5384      1.00000
      4     -25.0710      1.00000
      5     -25.0447      1.00000
      6     -24.8536      1.00000
      7       1.6039      1.00000
      8       2.5937      1.00000
      9       3.6968      1.00000
     10       3.8762      1.00000
     11       4.2618      1.01000
     12       4.3330      0.92823
     13       7.5908      0.00000
     14       7.8367      0.00000
     15       8.4406      0.00000
     16       9.1462      0.00000

 k-point    31 :       0.2857    0.2857    0.2857
  band No.  band energies     occupation 
      1     -25.7736      1.00000
      2     -25.7415      1.00000
      3     -25.7379      1.00000
      4     -25.0211      1.00000
      5     -25.0135      1.00000
      6     -24.9798      1.00000
      7       2.5470      1.00000
      8       3.1405      1.00000
      9       3.5980      1.00000
     10       3.6371      1.00000
     11       3.6975      1.03092
     12       3.7397      1.07728
     13       8.3675      0.00000
     14       8.3863      0.00000
     15       8.5755      0.00000
     16       8.6678      0.00000

 k-point    32 :       0.4286    0.2857    0.2857
  band No.  band energies     occupation 
      1     -25.8637      1.00000
      2     -25.8604      1.00000
      3     -25.5063      1.00000
      4     -25.2463      1.00000
      5     -24.9803      1.00000
      6     -24.9551      1.00000
      7       2.6129      1.00000
      8       2.6303      1.00000
      9       3.5356      1.00000
     10       3.6082      1.00000
     11       4.2293      1.00286
     12       4.5784      0.98819
     13       8.1418      0.00000
     14       8.2078      0.00000
     15       8.9216      0.00000
     16       9.0179      0.00000

 k-point    33 :       0.0000    0.4286    0.2857
  band No.  band energies     occupation 
      1     -25.9878      1.00000
      2     -25.8709      1.00000
      3     -25.2773      1.00000
      4     -25.1533      1.00000
      5     -24.9818      1.00000
      6     -24.8482      1.00000
      7       1.5504      1.00000
      8       1.8933      1.00000
      9       3.8650      1.00000
     10       4.2633      1.00000
     11       4.7103      0.80089
     12       5.2076      0.00501
     13       7.0387      0.00000
     14       7.5959      0.00000
     15       9.0147      0.00000
     16       9.5230      0.00000

 k-point    34 :       0.1429    0.4286    0.2857
  band No.  band energies     occupation 
      1     -25.9448      1.00000
      2     -25.8628      1.00000
      3     -25.3756      1.00000
      4     -25.1930      1.00000
      5     -24.9511      1.00000
      6     -24.8793      1.00000
      7       1.9355      1.00000
      8       2.2486      1.00000
      9       3.6907      1.00000
     10       3.7815      1.00000
     11       4.7538      0.85169
     12       4.8170      0.61039
     13       7.4604      0.00000
     14       7.6865      0.00000
     15       8.8577      0.00000
     16       9.3319      0.00000

 k-point    35 :       0.2857    0.4286    0.2857
  band No.  band energies     occupation 
      1     -25.8610      1.00000
      2     -25.8579      1.00000
      3     -25.5071      1.00000
      4     -25.2502      1.00000
      5     -24.9728      1.00000
      6     -24.9505      1.00000
      7       2.6538      1.00000
      8       2.6634      1.00000
      9       3.5430      1.00000
     10       3.6340      1.00000
[...]
  band No.  band energies     occupation 
      1     -25.9453      1.00000
      2     -25.8633      1.00000
      3     -25.3761      1.00000
      4     -25.1934      1.00000
      5     -24.9516      1.00000
      6     -24.8797      1.00000
      7       1.9334      1.00000
      8       2.2467      1.00000
      9       3.6891      1.00000
     10       3.7799      1.00000
     11       4.7520      0.85261
     12       4.8150      0.61395
     13       7.4594      0.00000
     14       7.6857      0.00000
     15       8.8573      0.00000
     16       9.3312      0.00000

 k-point    35 :       0.2857    0.4286    0.2857
  band No.  band energies     occupation 
      1     -25.8615      1.00000
      2     -25.8585      1.00000
      3     -25.5076      1.00000
      4     -25.2506      1.00000
      5     -24.9733      1.00000
      6     -24.9509      1.00000
      7       2.6518      1.00000
      8       2.6615      1.00000
      9       3.5413      1.00000
     10       3.6323      1.00000
     11       4.2001      1.00708
     12       4.5293      1.00091
     13       8.1848      0.00000
     14       8.2167      0.00000
     15       8.8115      0.00000
     16       8.8872      0.00000

 k-point    36 :       0.4286    0.4286    0.2857
  band No.  band energies     occupation 
      1     -25.8751      1.00000
      2     -25.8564      1.00000
      3     -25.4527      1.00000
      4     -25.3077      1.00000
      5     -25.0533      1.00000
      6     -25.0093      1.00000
      7       2.5843      1.00000
      8       2.7232      1.00000
      9       3.2861      1.00000
     10       3.4817      1.00000
     11       4.8449      0.81362
     12       5.0058      0.51387
     13       8.5298      0.00000
     14       8.6039      0.00000
     15       8.8997      0.00000
     16       8.9691      0.00000

 k-point    37 :       0.0000    0.4286    0.4286
  band No.  band energies     occupation 
      1     -26.0991      1.00000
      2     -26.0581      1.00000
      3     -25.2294      1.00000
      4     -25.1851      1.00000
      5     -24.8475      1.00000
      6     -24.7991      1.00000
      7       1.2828      1.00000
      8       1.3940      1.00000
      9       3.4268      1.00000
     10       3.5610      1.00000
     11       6.2359     -0.15916
     12       6.5957     -0.07279
     13       7.7121      0.00000
     14       8.1198      0.00000
     15       8.7451      0.00000
     16       9.7395      0.00000

 k-point    38 :       0.1429    0.4286    0.4286
  band No.  band energies     occupation 
      1     -26.0352      1.00000
      2     -26.0069      1.00000
      3     -25.2995      1.00000
      4     -25.2291      1.00000
      5     -24.8848      1.00000
      6     -24.8635      1.00000
      7       1.7050      1.00000
      8       1.7845      1.00000
      9       3.3703      1.00000
     10       3.4691      1.00000
     11       5.8444     -0.12166
     12       5.9355     -0.13840
     13       7.9597      0.00000
     14       8.2016      0.00000
     15       8.7793      0.00000
     16       9.2046      0.00000

 k-point    39 :       0.2857    0.4286    0.4286
  band No.  band energies     occupation 
      1     -25.8738      1.00000
      2     -25.8556      1.00000
      3     -25.4538      1.00000
      4     -25.3121      1.00000
      5     -25.0440      1.00000
      6     -25.0029      1.00000
      7       2.6232      1.00000
      8       2.7654      1.00000
      9       3.3274      1.00000
     10       3.5234      1.00000
     11       4.7835      0.84773
     12       4.9464      0.63184
     13       8.4979      0.00000
     14       8.5584      0.00000
     15       8.8438      0.00000
     16       8.9001      0.00000

 k-point    40 :       0.4286    0.4286    0.4286
  band No.  band energies     occupation 
      1     -25.7238      1.00000
      2     -25.6011      1.00000
      3     -25.5951      1.00000
      4     -25.3153      1.00000
      5     -25.3053      1.00000
      6     -25.1773      1.00000
      7       3.0990      1.00000
      8       3.5219      1.00000
      9       3.5324      1.00000
     10       4.0766      1.00000
     11       4.1348      1.00000
     12       4.1430      1.12932
     13       8.8676      0.00000
     14       8.8774      0.00000
     15       8.9378      0.00000
     16       8.9408      0.00000


--------------------------------------------------------------------------------------------------------


 soft charge-density along one line, spin component           1
         0         1         2         3         4         5         6         7         8         9
 total charge-density along one line

 soft charge-density along one line, spin component           2
         0         1         2         3         4         5         6         7         8         9
 total charge-density along one line

 pseudopotential strength for first ion, spin component:           1
-28.050   0.000   0.000   5.941  -0.000  -0.000  -0.000   0.000
  0.000 -28.050   0.000  -0.000   5.941  -0.000  -0.000   0.000
  0.000   0.000 -28.050  -0.000  -0.000   5.941   0.000  -0.000
  5.941  -0.000  -0.000   4.232   0.000   0.000   0.000  -0.000
 -0.000   5.941  -0.000   0.000   4.232   0.000  -0.000  -0.000
 -0.000  -0.000   5.941   0.000   0.000   4.232  -0.000  -0.000
 -0.000  -0.000   0.000   0.000  -0.000  -0.000  -6.334   0.000
  0.000   0.000  -0.000  -0.000  -0.000  -0.000   0.000  -6.334
 -0.000   0.000   0.000   0.000  -0.000  -0.000  -0.000   0.000
 -0.000   0.000   0.000  -0.000  -0.000  -0.000  -0.000   0.000
 -0.000   0.000   0.000   0.000  -0.000  -0.000  -0.000   0.000
 -0.000  -0.000   0.000   0.000  -0.000  -0.000  -7.186   0.000
  0.000   0.000  -0.000  -0.000  -0.000  -0.000   0.000  -7.186
 -0.000   0.000   0.000   0.000  -0.000  -0.000  -0.000   0.000
 -0.000   0.000   0.000  -0.000  -0.000  -0.000  -0.000   0.000
 -0.000   0.000   0.000   0.000  -0.000  -0.000  -0.000   0.000
 -0.000  -0.000  -0.000   0.000   0.000   0.000  -0.000   0.000
  0.000   0.000   0.000   0.000   0.000  -0.000   0.000  -0.000
 pseudopotential strength for first ion, spin component:           2
-28.051  -0.000   0.000   5.941   0.000  -0.000  -0.000   0.000
 -0.000 -28.051   0.000   0.000   5.941  -0.000  -0.000   0.000
  0.000   0.000 -28.051  -0.000  -0.000   5.941   0.000  -0.000
  5.941   0.000  -0.000   4.232   0.000   0.000   0.000  -0.000
  0.000   5.941  -0.000   0.000   4.232   0.000  -0.000  -0.000
 -0.000  -0.000   5.941   0.000   0.000   4.232  -0.000  -0.000
 -0.000  -0.000   0.000   0.000  -0.000  -0.000  -6.334   0.000
  0.000   0.000  -0.000  -0.000  -0.000  -0.000   0.000  -6.334
 -0.000   0.000   0.000   0.000  -0.000  -0.000  -0.000   0.000
 -0.000   0.000   0.000  -0.000  -0.000  -0.000  -0.000   0.000
 -0.000   0.000   0.000   0.000  -0.000  -0.000  -0.000   0.000
 -0.000  -0.000   0.000   0.000  -0.000  -0.000  -7.187   0.000
  0.000   0.000  -0.000  -0.000  -0.000  -0.000   0.000  -7.187
 -0.000   0.000   0.000   0.000  -0.000  -0.000  -0.000   0.000
 -0.000   0.000   0.000  -0.000  -0.000  -0.000  -0.000   0.000
 -0.000   0.000   0.000   0.000  -0.000  -0.000  -0.000   0.000
 -0.000  -0.000  -0.000   0.000   0.000   0.000  -0.000   0.000
  0.000   0.000   0.000   0.000   0.000  -0.000   0.000  -0.000
 total augmentation occupancy for first ion, spin component:           1
  1.994   0.000   0.000  -0.012  -0.000  -0.000   0.000   0.000   0.000   0.000   0.000  -0.000  -0.000   0.000   0.000   0.000
  0.000   1.994   0.000  -0.000  -0.012  -0.000   0.000  -0.000   0.000  -0.000   0.000   0.000  -0.000   0.000   0.000   0.000
  0.000   0.000   1.994  -0.000  -0.000  -0.012   0.000   0.000   0.000   0.000   0.000   0.000  -0.000   0.000  -0.000   0.000
 -0.012  -0.000  -0.000   0.206   0.000   0.000  -0.000  -0.000   0.000  -0.000   0.000   0.000  -0.000  -0.000   0.000   0.000
 -0.000  -0.012  -0.000   0.000   0.206   0.000   0.000   0.000   0.000   0.000  -0.000   0.000   0.000   0.000   0.000   0.000
 -0.000  -0.000  -0.012   0.000   0.000   0.207   0.000   0.000  -0.000   0.000  -0.000  -0.000   0.000   0.000   0.000   0.000
 -0.000   0.000   0.000  -0.000  -0.000   0.000   6.100   0.000  -0.000   0.000   0.000  -3.417  -0.000   0.000  -0.000  -0.000
 -0.000  -0.000  -0.000  -0.000   0.000   0.000   0.000   6.145   0.000   0.000  -0.000  -0.000  -3.438  -0.000  -0.000   0.000
  0.000   0.000   0.000   0.000   0.000   0.000  -0.000   0.000   5.746   0.000  -0.021   0.000  -0.000  -3.402  -0.000   0.010
  0.000  -0.000  -0.000   0.000   0.000   0.000   0.000   0.000   0.000   6.100   0.000  -0.000  -0.000  -0.000  -3.417  -0.000
  0.000  -0.000   0.000   0.000   0.000   0.000   0.000  -0.000  -0.021   0.000   5.770  -0.000   0.000   0.010  -0.000  -3.414
 -0.000   0.000   0.000  -0.000  -0.000   0.000  -3.417  -0.000   0.000  -0.000  -0.000   1.953   0.000  -0.000   0.000  -0.000
 -0.000   0.000   0.000   0.000   0.000   0.000  -0.000  -3.438  -0.000  -0.000   0.000   0.000   1.962   0.000   0.000  -0.000
  0.000   0.000   0.000  -0.000   0.000   0.000   0.000  -0.000  -3.402  -0.000   0.010  -0.000   0.000   2.032   0.000  -0.005
 -0.000  -0.000   0.000   0.000   0.000  -0.000  -0.000  -0.000  -0.000  -3.417  -0.000   0.000   0.000   0.000   1.953   0.000
  0.000   0.000   0.000   0.000   0.000   0.000  -0.000   0.000   0.010  -0.000  -3.414  -0.000  -0.000  -0.005   0.000   2.038
 -0.000  -0.000   0.000   0.000   0.000   0.000   0.000   0.000  -0.005   0.000   0.008  -0.000  -0.000   0.003   0.000  -0.005
  0.000   0.000  -0.000  -0.000   0.000   0.000  -0.000   0.000  -0.000  -0.000   0.000   0.000  -0.000   0.000   0.000  -0.000
 total augmentation occupancy for first ion, spin component:           2
  0.000   0.000   0.000   0.000   0.000   0.000  -0.000   0.000   0.000   0.000   0.000   0.000   0.000   0.000   0.000   0.000
  0.000   0.000   0.000   0.000   0.000   0.000   0.000  -0.000   0.000  -0.000   0.000   0.000   0.000   0.000   0.000   0.000
  0.000   0.000   0.000   0.000   0.000   0.000   0.000   0.000   0.000   0.000  -0.000  -0.000   0.000   0.000  -0.000  -0.000
  0.000   0.000   0.000  -0.000  -0.000  -0.000   0.000   0.000  -0.000  -0.000   0.000   0.000   0.000  -0.000   0.000   0.000
  0.000   0.000   0.000  -0.000  -0.000  -0.000   0.000  -0.000   0.000   0.000   0.000   0.000   0.000   0.000   0.000   0.000
  0.000   0.000   0.000  -0.000  -0.000  -0.000   0.000   0.000   0.000  -0.000   0.000   0.000   0.000   0.000   0.000   0.000
  0.000   0.000   0.000   0.000   0.000   0.000  -0.004  -0.000   0.000  -0.000   0.000   0.002   0.000  -0.000   0.000  -0.000
 -0.000   0.000   0.000   0.000   0.000   0.000  -0.000  -0.003  -0.000  -0.000   0.000   0.000   0.002  -0.000   0.000  -0.000
  0.000   0.000   0.000   0.000  -0.000   0.000   0.000   0.000  -0.006  -0.000  -0.000  -0.000  -0.000   0.005   0.000   0.000
  0.000  -0.000   0.000  -0.000   0.000  -0.000  -0.000  -0.000  -0.000  -0.004  -0.000   0.000   0.000   0.000   0.002   0.000
  0.000   0.000  -0.000   0.000   0.000   0.000   0.000   0.000  -0.000  -0.000  -0.006  -0.000  -0.000   0.000   0.000   0.004
  0.000   0.000   0.000   0.000   0.000   0.000   0.002   0.000  -0.000   0.000  -0.000  -0.001  -0.000   0.000  -0.000   0.000
 -0.000  -0.000   0.000   0.000   0.000  -0.000   0.000   0.002   0.000   0.000  -0.000  -0.000  -0.001   0.000  -0.000   0.000
  0.000   0.000   0.000  -0.000   0.000   0.000  -0.000  -0.000   0.005   0.000   0.000   0.000   0.000  -0.003   0.000  -0.000
  0.000   0.000   0.000  -0.000   0.000   0.000   0.000   0.000   0.000   0.002   0.000  -0.000  -0.000   0.000  -0.001  -0.000
  0.000   0.000  -0.000   0.000   0.000   0.000  -0.000  -0.000   0.000   0.000   0.004   0.000   0.000  -0.000  -0.000  -0.003
 -0.000   0.000   0.000   0.000   0.000   0.000  -0.000  -0.000   0.000   0.000  -0.000   0.000   0.000   0.000  -0.000  -0.000
  0.000   0.000   0.000   0.000   0.000   0.000  -0.000   0.000  -0.000  -0.000   0.000  -0.000   0.000   0.000  -0.000  -0.000


------------------------ aborting loop because EDIFF is reached ----------------------------------------





 total charge

# of ion       s       p       d       tot
------------------------------------------
    1        0.423   6.295   3.099   9.816
    2        0.423   6.295   3.099   9.816
--------------------------------------------------
tot          0.845  12.590   6.198  19.632



 magnetization (x)

# of ion       s       p       d       tot
------------------------------------------
    1       -0.000  -0.000  -0.001  -0.001
    2       -0.000  -0.000  -0.001  -0.001
--------------------------------------------------
tot         -0.000  -0.001  -0.002  -0.002

    CHARGE:  cpu time     18.8426: real time      1.0712
    FORLOC:  cpu time      0.1100: real time      0.0004
    FORNL :  cpu time    417.6156: real time     19.6806
    STRESS:  cpu time    436.9241: real time     22.3555
    FORCOR:  cpu time      1.9883: real time      0.1437
    FORHAR:  cpu time      0.2826: real time      0.0124
    MIXING:  cpu time      0.0016: real time      0.0016
    OFIELD:  cpu time      0.0000: real time      0.0000

  FORCE on cell =-STRESS in cart. coord.  units (eV):
  Direction    XX          YY          ZZ          XY          YZ          ZX
  --------------------------------------------------------------------------------------
  Alpha Z   249.51762   249.51762   249.51762
  Ewald    -637.67186  -638.80929  -638.80929    -0.00000    -0.00000    -0.00000
  Hartree    81.81711    81.27172    81.27172    -0.00000    -0.00000    -0.00000
  E(xc)     -95.15904   -95.16182   -95.16182     0.00000     0.00000    -0.00000
  Local     203.14715   204.84615   204.84615     0.00000    -0.00000    -0.00000
  n-local   -84.48893   -88.12988   -81.17684     1.93343     0.74078    -0.31832
  augment    53.49690    53.51405    53.51405    -0.00000     0.00000    -0.00000
  Kinetic   229.90263   222.46112   236.96099     1.68832     0.37719    -0.91065
  Fock        0.00000     0.00000     0.00000     0.00000     0.00000     0.00000
  -------------------------------------------------------------------------------------
  Total       0.56159     0.23612     0.23612     0.00000     0.00000    -0.00000
  in kB      24.79583    10.42545    10.42545     0.00000     0.00000    -0.00000
  external pressure =       15.22 kB  Pullay stress =        0.00 kB


 VOLUME and BASIS-vectors are now :
 -----------------------------------------------------------------------------
  energy-cutoff  :      520.00
  volume of cell :       36.29
      direct lattice vectors                 reciprocal lattice vectors
     3.288561544  0.000000000  0.000000000     0.304084320 -0.000000000  0.000000000
     0.000000000  3.321779337  0.000000000     0.000000000  0.301043477  0.000000000
     0.000000000  0.000000000  3.321779337    -0.000000000 -0.000000000  0.301043477

  length of vectors
     3.288561544  3.321779337  3.321779337     0.304084320  0.301043477  0.301043477


 FORCES acting on ions
    electron-ion (+dipol)            ewald-force                    non-local-force                 convergence-correction
 -----------------------------------------------------------------------------------------------
   -.654E-14 -.120E-13 -.207E-13   -.733E-14 -.377E-14 -.303E-14   0.179E-23 -.683E-23 0.742E-22   0.171E-13 -.426E-13 -.449E-14
   0.124E-12 0.162E-12 -.122E-11   0.606E-14 0.547E-14 0.397E-14   -.432E-22 -.245E-22 0.152E-21   -.109E-13 -.206E-13 0.220E-13
 -----------------------------------------------------------------------------------------------
   0.118E-12 0.150E-12 -.124E-11   -.127E-14 0.170E-14 0.942E-15   -.414E-22 -.314E-22 0.226E-21   0.617E-14 -.632E-13 0.175E-13


 POSITION                                       TOTAL-FORCE (eV/Angst)
 -----------------------------------------------------------------------------------
      0.00000      0.00000      0.00000        -0.000000     -0.000000     -0.000000
      1.64428      1.66089      1.66089         0.000000      0.000000      0.000000
 -----------------------------------------------------------------------------------
    total drift:                                0.000000      0.000000     -0.000000


--------------------------------------------------------------------------------------------------------



  FREE ENERGIE OF THE ION-ELECTRON SYSTEM (eV)
  ---------------------------------------------------
  free  energy   TOTEN  =       -20.20610966 eV

  energy  without entropy=      -20.20610966  energy(sigma->0) =      -20.20610966



--------------------------------------------------------------------------------------------------------


    POTLOK:  cpu time      2.5482: real time      0.3618


--------------------------------------------------------------------------------------------------------


     LOOP+:  cpu time   5936.9671: real time    306.1683
 -----------------------------------------------------------------------------
|                                                                             |
|           W    W    AA    RRRRR   N    N  II  N    N   GGGG   !!!           |
|           W    W   A  A   R    R  NN   N  II  NN   N  G    G  !!!           |
|           W    W  A    A  R    R  N N  N  II  N N  N  G       !!!           |
|           W WW W  AAAAAA  RRRRR   N  N N  II  N  N N  G  GGG   !            |
|           WW  WW  A    A  R   R   N   NN  II  N   NN  G    G                |
|           W    W  A    A  R    R  N    N  II  N    N   GGGG   !!!           |
|                                                                             |
|     Tetrahedron method does not include variations of the Fermi             |
|     occupations, so forces and stress will be inaccurate. We suggest        |
|     using a different smearing scheme ISMEAR = 1 or 2 for metals in         |
|     relaxations.                                                            |
|                                                                             |
 -----------------------------------------------------------------------------

    4ORBIT:  cpu time      0.0000: real time      0.0000



 total charge

# of ion       s       p       d       tot
------------------------------------------
    1        0.423   6.295   3.099   9.816
    2        0.423   6.295   3.099   9.816
--------------------------------------------------
tot          0.845  12.590   6.198  19.632



 magnetization (x)

# of ion       s       p       d       tot
------------------------------------------
    1       -0.000  -0.000  -0.001  -0.001
    2       -0.000  -0.000  -0.001  -0.001
--------------------------------------------------
tot         -0.000  -0.001  -0.002  -0.002

 BZINTS: Fermi energy:    4.933066;   22.000000 electrons
         Band energy:-0.272785E+03;  BLOECHL correction:   -0.212529

 total amount of memory used by VASP MPI-rank0    74388. kBytes
=======================================================================

   base      :      30000. kBytes
   nonlr-proj:       5386. kBytes
   fftplans  :       5304. kBytes
   grid      :      12665. kBytes
   one-center:         62. kBytes
   wavefun   :      20971. kBytes

  
  
 General timing and accounting informations for this job:
 ========================================================
  
                  Total CPU time used (sec):     5973.206
                            User time (sec):     5829.823
                          System time (sec):      143.382
                         Elapsed time (sec):      308.730
  
                   Maximum memory used (kb):      312000.
                   Average memory used (kb):          N/A
  
                          Minor page faults:      4151074
                          Major page faults:           67
                 Voluntary context switches:      1527659
