  16  16   1   0
  0.2374677E+02  0.3852760E-09  0.3852760E-09  0.2559651E-08  0.5000000E-15
  1.000000000000000E-004
  CAR 
 unknown system                          
     10.49762711    -32.73056727  301      4.72166022      1.00000000
    -32.731  0.0000E+00  0.0000E+00  0.0000E+00  0.0000E+00
    -32.586  0.0000E+00  0.0000E+00  0.0000E+00  0.0000E+00
    -32.442  0.0000E+00  0.0000E+00  0.0000E+00  0.0000E+00
    -32.298  0.0000E+00  0.0000E+00  0.0000E+00  0.0000E+00
    -32.154  0.0000E+00  0.0000E+00  0.0000E+00  0.0000E+00
    -32.010  0.0000E+00  0.0000E+00  0.0000E+00  0.0000E+00
    -31.866  0.0000E+00  0.0000E+00  0.0000E+00  0.0000E+00
    -31.722  0.0000E+00  0.0000E+00  0.0000E+00  0.0000E+00
    -31.578  0.0000E+00  0.0000E+00  0.0000E+00  0.0000E+00
    -31.434  0.0000E+00  0.0000E+00  0.0000E+00  0.0000E+00
    -31.290  0.3128E-03  0.3130E-03  0.4507E-04  0.4510E-04
    -31.146  0.9294E-02  0.9302E-02  0.1384E-02  0.1385E-02
    -31.001  0.1608E+00  0.1610E+00  0.2456E-01  0.2458E-01
    -30.857  0.2578E+01  0.2580E+01  0.3960E+00  0.3963E+00
    -30.713  0.1551E+02  0.1551E+02  0.2631E+01  0.2631E+01
    -30.569  0.8708E+01  0.8704E+01  0.3885E+01  0.3885E+01
    -30.425  0.7498E+00  0.7492E+00  0.3993E+01  0.3993E+01
    -30.281  0.0000E+00  0.0000E+00  0.4000E+01  0.4000E+01
    -30.137  0.0000E+00  0.0000E+00  0.4000E+01  0.4000E+01
    -29.993  0.0000E+00  0.0000E+00  0.4000E+01  0.4000E+01
    -29.849  0.0000E+00  0.0000E+00  0.4000E+01  0.4000E+01
    -29.705  0.0000E+00  0.0000E+00  0.4000E+01  0.4000E+01
    -29.560  0.0000E+00  0.0000E+00  0.4000E+01  0.4000E+01
    -29.416  0.0000E+00  0.0000E+00  0.4000E+01  0.4000E+01
    -29.272  0.0000E+00  0.0000E+00  0.4000E+01  0.4000E+01
    -29.128  0.0000E+00  0.0000E+00  0.4000E+01  0.4000E+01
    -28.984  0.0000E+00  0.0000E+00  0.4000E+01  0.4000E+01
    -28.840  0.0000E+00  0.0000E+00  0.4000E+01  0.4000E+01
    -28.696  0.0000E+00  0.0000E+00  0.4000E+01  0.4000E+01
    -28.552  0.0000E+00  0.0000E+00  0.4000E+01  0.4000E+01
    -28.408  0.0000E+00  0.0000E+00  0.4000E+01  0.4000E+01
    -28.264  0.0000E+00  0.0000E+00  0.4000E+01  0.4000E+01
    -28.120  0.0000E+00  0.0000E+00  0.4000E+01  0.4000E+01
    -27.975  0.0000E+00  0.0000E+00  0.4000E+01  0.4000E+01
    -27.831  0.0000E+00  0.0000E+00  0.4000E+01  0.4000E+01
    -27.687  0.0000E+00  0.0000E+00  0.4000E+01  0.4000E+01
    -27.543  0.0000E+00  0.0000E+00  0.4000E+01  0.4000E+01
    -27.399  0.0000E+00  0.0000E+00  0.4000E+01  0.4000E+01
    -27.255  0.0000E+00  0.0000E+00  0.4000E+01  0.4000E+01
    -27.111  0.0000E+00  0.0000E+00  0.4000E+01  0.4000E+01
    -26.967  0.0000E+00  0.0000E+00  0.4000E+01  0.4000E+01
    -26.823  0.0000E+00  0.0000E+00  0.4000E+01  0.4000E+01
    -26.679  0.0000E+00  0.0000E+00  0.4000E+01  0.4000E+01
    -26.535  0.0000E+00  0.0000E+00  0.4000E+01  0.4000E+01
    -26.390  0.0000E+00  0.0000E+00  0.4000E+01  0.4000E+01
    -26.246  0.0000E+00  0.0000E+00  0.4000E+01  0.4000E+01
    -26.102  0.0000E+00  0.0000E+00  0.4000E+01  0.4000E+01
    -25.958  0.0000E+00  0.0000E+00  0.4000E+01  0.4000E+01
    -25.814  0.0000E+00  0.0000E+00  0.4000E+01  0.4000E+01
    -25.670  0.0000E+00  0.0000E+00  0.4000E+01  0.4000E+01
    -25.526  0.0000E+00  0.0000E+00  0.4000E+01  0.4000E+01
    -25.382  0.0000E+00  0.0000E+00  0.4000E+01  0.4000E+01
    -25.238  0.0000E+00  0.0000E+00  0.4000E+01  0.4000E+01
    -25.094  0.0000E+00  0.0000E+00  0.4000E+01  0.4000E+01
    -24.949  0.0000E+00  0.0000E+00  0.4000E+01  0.4000E+01
    -24.805  0.0000E+00  0.0000E+00  0.4000E+01  0.4000E+01
    -24.661  0.0000E+00  0.0000E+00  0.4000E+01  0.4000E+01
    -24.517  0.0000E+00  0.0000E+00  0.4000E+01  0.4000E+01
    -24.373  0.0000E+00  0.0000E+00  0.4000E+01  0.4000E+01
    -24.229  0.0000E+00  0.0000E+00  0.4000E+01  0.4000E+01
    -24.085  0.0000E+00  0.0000E+00  0.4000E+01  0.4000E+01
    -23.941  0.0000E+00  0.0000E+00  0.4000E+01  0.4000E+01
    -23.797  0.0000E+00  0.0000E+00  0.4000E+01  0.4000E+01
    -23.653  0.0000E+00  0.0000E+00  0.4000E+01  0.4000E+01
    -23.509  0.0000E+00  0.0000E+00  0.4000E+01  0.4000E+01
    -23.364  0.0000E+00  0.0000E+00  0.4000E+01  0.4000E+01
    -23.220  0.0000E+00  0.0000E+00  0.4000E+01  0.4000E+01
    -23.076  0.0000E+00  0.0000E+00  0.4000E+01  0.4000E+01
    -22.932  0.0000E+00  0.0000E+00  0.4000E+01  0.4000E+01
    -22.788  0.0000E+00  0.0000E+00  0.4000E+01  0.4000E+01
    -22.644  0.0000E+00  0.0000E+00  0.4000E+01  0.4000E+01
    -22.500  0.0000E+00  0.0000E+00  0.4000E+01  0.4000E+01
    -22.356  0.0000E+00  0.0000E+00  0.4000E+01  0.4000E+01
    -22.212  0.0000E+00  0.0000E+00  0.4000E+01  0.4000E+01
    -22.068  0.0000E+00  0.0000E+00  0.4000E+01  0.4000E+01
    -21.924  0.0000E+00  0.0000E+00  0.4000E+01  0.4000E+01
    -21.779  0.0000E+00  0.0000E+00  0.4000E+01  0.4000E+01
    -21.635  0.0000E+00  0.0000E+00  0.4000E+01  0.4000E+01
    -21.491  0.0000E+00  0.0000E+00  0.4000E+01  0.4000E+01
    -21.347  0.0000E+00  0.0000E+00  0.4000E+01  0.4000E+01
    -21.203  0.0000E+00  0.0000E+00  0.4000E+01  0.4000E+01
    -21.059  0.0000E+00  0.0000E+00  0.4000E+01  0.4000E+01
    -20.915  0.0000E+00  0.0000E+00  0.4000E+01  0.4000E+01
    -20.771  0.0000E+00  0.0000E+00  0.4000E+01  0.4000E+01
    -20.627  0.0000E+00  0.0000E+00  0.4000E+01  0.4000E+01
    -20.483  0.0000E+00  0.0000E+00  0.4000E+01  0.4000E+01
    -20.338  0.0000E+00  0.0000E+00  0.4000E+01  0.4000E+01
    -20.194  0.0000E+00  0.0000E+00  0.4000E+01  0.4000E+01
    -20.050  0.0000E+00  0.0000E+00  0.4000E+01  0.4000E+01
    -19.906  0.0000E+00  0.0000E+00  0.4000E+01  0.4000E+01
    -19.762  0.0000E+00  0.0000E+00  0.4000E+01  0.4000E+01
    -19.618  0.0000E+00  0.0000E+00  0.4000E+01  0.4000E+01
    -19.474  0.0000E+00  0.0000E+00  0.4000E+01  0.4000E+01
    -19.330  0.0000E+00  0.0000E+00  0.4000E+01  0.4000E+01
    -19.186  0.0000E+00  0.0000E+00  0.4000E+01  0.4000E+01
    -19.042  0.0000E+00  0.0000E+00  0.4000E+01  0.4000E+01
    -18.898  0.0000E+00  0.0000E+00  0.4000E+01  0.4000E+01
    -18.753  0.0000E+00  0.0000E+00  0.4000E+01  0.4000E+01
    -18.609  0.0000E+00  0.0000E+00  0.4000E+01  0.4000E+01
    -18.465  0.0000E+00  0.0000E+00  0.4000E+01  0.4000E+01
    -18.321  0.0000E+00  0.0000E+00  0.4000E+01  0.4000E+01
    -18.177  0.0000E+00  0.0000E+00  0.4000E+01  0.4000E+01
    -18.033  0.0000E+00  0.0000E+00  0.4000E+01  0.4000E+01
    -17.889  0.0000E+00  0.0000E+00  0.4000E+01  0.4000E+01
    -17.745  0.0000E+00  0.0000E+00  0.4000E+01  0.4000E+01
    -17.601  0.0000E+00  0.0000E+00  0.4000E+01  0.4000E+01
    -17.457  0.0000E+00  0.0000E+00  0.4000E+01  0.4000E+01
    -17.313  0.0000E+00  0.0000E+00  0.4000E+01  0.4000E+01
    -17.168  0.0000E+00  0.0000E+00  0.4000E+01  0.4000E+01
    -17.024  0.0000E+00  0.0000E+00  0.4000E+01  0.4000E+01
    -16.880  0.0000E+00  0.0000E+00  0.4000E+01  0.4000E+01
    -16.736  0.0000E+00  0.0000E+00  0.4000E+01  0.4000E+01
    -16.592  0.0000E+00  0.0000E+00  0.4000E+01  0.4000E+01
    -16.448  0.0000E+00  0.0000E+00  0.4000E+01  0.4000E+01
    -16.304  0.0000E+00  0.0000E+00  0.4000E+01  0.4000E+01
    -16.160  0.0000E+00  0.0000E+00  0.4000E+01  0.4000E+01
    -16.016  0.0000E+00  0.0000E+00  0.4000E+01  0.4000E+01
    -15.872  0.0000E+00  0.0000E+00  0.4000E+01  0.4000E+01
    -15.727  0.0000E+00  0.0000E+00  0.4000E+01  0.4000E+01
    -15.583  0.0000E+00  0.0000E+00  0.4000E+01  0.4000E+01
    -15.439  0.0000E+00  0.0000E+00  0.4000E+01  0.4000E+01
    -15.295  0.0000E+00  0.0000E+00  0.4000E+01  0.4000E+01
    -15.151  0.0000E+00  0.0000E+00  0.4000E+01  0.4000E+01
    -15.007  0.0000E+00  0.0000E+00  0.4000E+01  0.4000E+01
    -14.863  0.0000E+00  0.0000E+00  0.4000E+01  0.4000E+01
    -14.719  0.0000E+00  0.0000E+00  0.4000E+01  0.4000E+01
    -14.575  0.0000E+00  0.0000E+00  0.4000E+01  0.4000E+01
    -14.431  0.0000E+00  0.0000E+00  0.4000E+01  0.4000E+01
    -14.287  0.0000E+00  0.0000E+00  0.4000E+01  0.4000E+01
    -14.142  0.0000E+00  0.0000E+00  0.4000E+01  0.4000E+01
    -13.998  0.0000E+00  0.0000E+00  0.4000E+01  0.4000E+01
    -13.854  0.0000E+00  0.0000E+00  0.4000E+01  0.4000E+01
    -13.710  0.0000E+00  0.0000E+00  0.4000E+01  0.4000E+01
    -13.566  0.0000E+00  0.0000E+00  0.4000E+01  0.4000E+01
    -13.422  0.2712E-02  0.2702E-02  0.4000E+01  0.4000E+01
    -13.278  0.4933E-01  0.4915E-01  0.4007E+01  0.4007E+01
    -13.134  0.8384E+00  0.8354E+00  0.4128E+01  0.4128E+01
    -12.990  0.8723E+01  0.8704E+01  0.5385E+01  0.5382E+01
    -12.846  0.2562E+02  0.2561E+02  0.9077E+01  0.9072E+01
    -12.702  0.3453E+02  0.3454E+02  0.1405E+02  0.1405E+02
    -12.557  0.1226E+02  0.1228E+02  0.1583E+02  0.1583E+02
    -12.413  0.1068E+01  0.1071E+01  0.1599E+02  0.1599E+02
    -12.269  0.0000E+00  0.0000E+00  0.1600E+02  0.1600E+02
    -12.125  0.0000E+00  0.0000E+00  0.1600E+02  0.1600E+02
    -11.981  0.0000E+00  0.0000E+00  0.1600E+02  0.1600E+02
    -11.837  0.0000E+00  0.0000E+00  0.1600E+02  0.1600E+02
    -11.693  0.0000E+00  0.0000E+00  0.1600E+02  0.1600E+02
    -11.549  0.0000E+00  0.0000E+00  0.1600E+02  0.1600E+02
    -11.405  0.0000E+00  0.0000E+00  0.1600E+02  0.1600E+02
    -11.261  0.0000E+00  0.0000E+00  0.1600E+02  0.1600E+02
    -11.116  0.0000E+00  0.0000E+00  0.1600E+02  0.1600E+02
    -10.972  0.0000E+00  0.0000E+00  0.1600E+02  0.1600E+02
    -10.828  0.0000E+00  0.0000E+00  0.1600E+02  0.1600E+02
    -10.684  0.0000E+00  0.0000E+00  0.1600E+02  0.1600E+02
    -10.540  0.0000E+00  0.0000E+00  0.1600E+02  0.1600E+02
    -10.396  0.0000E+00  0.0000E+00  0.1600E+02  0.1600E+02
    -10.252  0.0000E+00  0.0000E+00  0.1600E+02  0.1600E+02
    -10.108  0.0000E+00  0.0000E+00  0.1600E+02  0.1600E+02
     -9.964  0.0000E+00  0.0000E+00  0.1600E+02  0.1600E+02
     -9.820  0.0000E+00  0.0000E+00  0.1600E+02  0.1600E+02
     -9.676  0.0000E+00  0.0000E+00  0.1600E+02  0.1600E+02
     -9.531  0.0000E+00  0.0000E+00  0.1600E+02  0.1600E+02
     -9.387  0.0000E+00  0.0000E+00  0.1600E+02  0.1600E+02
     -9.243  0.0000E+00  0.0000E+00  0.1600E+02  0.1600E+02
     -9.099  0.0000E+00  0.0000E+00  0.1600E+02  0.1600E+02
     -8.955  0.0000E+00  0.0000E+00  0.1600E+02  0.1600E+02
     -8.811  0.0000E+00  0.0000E+00  0.1600E+02  0.1600E+02
     -8.667  0.0000E+00  0.0000E+00  0.1600E+02  0.1600E+02
     -8.523  0.0000E+00  0.0000E+00  0.1600E+02  0.1600E+02
     -8.379  0.0000E+00  0.0000E+00  0.1600E+02  0.1600E+02
     -8.235  0.0000E+00  0.0000E+00  0.1600E+02  0.1600E+02
     -8.090  0.0000E+00  0.0000E+00  0.1600E+02  0.1600E+02
     -7.946  0.0000E+00  0.0000E+00  0.1600E+02  0.1600E+02
     -7.802  0.0000E+00  0.0000E+00  0.1600E+02  0.1600E+02
     -7.658  0.0000E+00  0.0000E+00  0.1600E+02  0.1600E+02
     -7.514  0.0000E+00  0.0000E+00  0.1600E+02  0.1600E+02
     -7.370  0.0000E+00  0.0000E+00  0.1600E+02  0.1600E+02
     -7.226  0.0000E+00  0.0000E+00  0.1600E+02  0.1600E+02
     -7.082  0.0000E+00  0.0000E+00  0.1600E+02  0.1600E+02
     -6.938  0.0000E+00  0.0000E+00  0.1600E+02  0.1600E+02
     -6.794  0.0000E+00  0.0000E+00  0.1600E+02  0.1600E+02
     -6.650  0.0000E+00  0.0000E+00  0.1600E+02  0.1600E+02
     -6.505  0.0000E+00  0.0000E+00  0.1600E+02  0.1600E+02
     -6.361  0.0000E+00  0.0000E+00  0.1600E+02  0.1600E+02
     -6.217  0.0000E+00  0.0000E+00  0.1600E+02  0.1600E+02
     -6.073  0.0000E+00  0.0000E+00  0.1600E+02  0.1600E+02
     -5.929  0.0000E+00  0.0000E+00  0.1600E+02  0.1600E+02
     -5.785  0.0000E+00  0.0000E+00  0.1600E+02  0.1600E+02
     -5.641  0.0000E+00  0.0000E+00  0.1600E+02  0.1600E+02
     -5.497  0.1646E-04  0.1700E-04  0.1600E+02  0.1600E+02
     -5.353  0.3295E-03  0.3404E-03  0.1600E+02  0.1600E+02
     -5.209  0.5901E-02  0.6093E-02  0.1600E+02  0.1600E+02
     -5.065  0.8513E-01  0.8741E-01  0.1601E+02  0.1601E+02
     -4.920  0.4297E+00  0.4337E+00  0.1608E+02  0.1608E+02
     -4.776  0.6351E+00  0.6371E+00  0.1617E+02  0.1617E+02
     -4.632  0.6257E+00  0.6228E+00  0.1626E+02  0.1626E+02
     -4.488  0.6877E+00  0.6913E+00  0.1636E+02  0.1636E+02
     -4.344  0.6750E+00  0.6717E+00  0.1645E+02  0.1645E+02
     -4.200  0.5688E+00  0.5682E+00  0.1654E+02  0.1654E+02
     -4.056  0.7312E+00  0.7356E+00  0.1664E+02  0.1664E+02
     -3.912  0.7839E+00  0.7811E+00  0.1675E+02  0.1676E+02
     -3.768  0.4486E+00  0.4447E+00  0.1682E+02  0.1682E+02
     -3.624  0.6555E+00  0.6645E+00  0.1691E+02  0.1692E+02
     -3.479  0.9493E+00  0.9441E+00  0.1705E+02  0.1705E+02
     -3.335  0.6043E+00  0.6008E+00  0.1714E+02  0.1714E+02
     -3.191  0.6883E+00  0.6827E+00  0.1724E+02  0.1724E+02
     -3.047  0.1300E+01  0.1299E+01  0.1743E+02  0.1742E+02
     -2.903  0.1474E+01  0.1470E+01  0.1764E+02  0.1764E+02
     -2.759  0.1338E+01  0.1340E+01  0.1783E+02  0.1783E+02
     -2.615  0.1371E+01  0.1365E+01  0.1803E+02  0.1803E+02
     -2.471  0.1117E+01  0.1120E+01  0.1819E+02  0.1819E+02
     -2.327  0.1205E+01  0.1209E+01  0.1836E+02  0.1836E+02
     -2.183  0.1883E+01  0.1881E+01  0.1864E+02  0.1864E+02
     -2.039  0.1557E+01  0.1555E+01  0.1886E+02  0.1886E+02
     -1.894  0.7523E+00  0.7574E+00  0.1897E+02  0.1897E+02
     -1.750  0.1641E+01  0.1631E+01  0.1921E+02  0.1921E+02
     -1.606  0.2565E+01  0.2583E+01  0.1958E+02  0.1958E+02
     -1.462  0.2518E+01  0.2521E+01  0.1994E+02  0.1994E+02
     -1.318  0.2327E+01  0.2321E+01  0.2028E+02  0.2028E+02
     -1.174  0.2721E+01  0.2718E+01  0.2067E+02  0.2067E+02
     -1.030  0.2374E+01  0.2373E+01  0.2101E+02  0.2101E+02
     -0.886  0.2070E+01  0.2064E+01  0.2131E+02  0.2131E+02
     -0.742  0.1320E+01  0.1323E+01  0.2150E+02  0.2150E+02
     -0.598  0.1081E+01  0.1083E+01  0.2166E+02  0.2166E+02
     -0.454  0.7872E+00  0.7728E+00  0.2177E+02  0.2177E+02
     -0.309  0.1143E+01  0.1136E+01  0.2194E+02  0.2193E+02
     -0.165  0.1069E+01  0.1084E+01  0.2209E+02  0.2209E+02
     -0.021  0.6137E+00  0.6186E+00  0.2218E+02  0.2218E+02
      0.123  0.1474E+01  0.1479E+01  0.2239E+02  0.2239E+02
      0.267  0.2291E+01  0.2300E+01  0.2272E+02  0.2272E+02
      0.411  0.2894E+01  0.2885E+01  0.2314E+02  0.2314E+02
      0.555  0.3060E+01  0.3062E+01  0.2358E+02  0.2358E+02
      0.699  0.2015E+01  0.2010E+01  0.2387E+02  0.2387E+02
      0.843  0.2176E+01  0.2170E+01  0.2419E+02  0.2419E+02
      0.987  0.2672E+01  0.2684E+01  0.2457E+02  0.2457E+02
      1.132  0.2394E+01  0.2396E+01  0.2492E+02  0.2492E+02
      1.276  0.2644E+01  0.2625E+01  0.2530E+02  0.2530E+02
      1.420  0.2832E+01  0.2835E+01  0.2571E+02  0.2571E+02
      1.564  0.2604E+01  0.2612E+01  0.2608E+02  0.2608E+02
      1.708  0.2987E+01  0.2990E+01  0.2652E+02  0.2652E+02
      1.852  0.3321E+01  0.3322E+01  0.2699E+02  0.2700E+02
      1.996  0.3689E+01  0.3694E+01  0.2753E+02  0.2753E+02
      2.140  0.2957E+01  0.2949E+01  0.2795E+02  0.2795E+02
      2.284  0.2271E+01  0.2256E+01  0.2828E+02  0.2828E+02
      2.428  0.2440E+01  0.2429E+01  0.2864E+02  0.2863E+02
      2.572  0.2933E+01  0.2934E+01  0.2906E+02  0.2906E+02
      2.717  0.3604E+01  0.3611E+01  0.2958E+02  0.2958E+02
      2.861  0.3403E+01  0.3407E+01  0.3007E+02  0.3007E+02
      3.005  0.3765E+01  0.3768E+01  0.3061E+02  0.3061E+02
      3.149  0.4709E+01  0.4713E+01  0.3129E+02  0.3129E+02
      3.293  0.4981E+01  0.4972E+01  0.3201E+02  0.3201E+02
      3.437  0.4094E+01  0.4084E+01  0.3260E+02  0.3260E+02
      3.581  0.4178E+01  0.4181E+01  0.3320E+02  0.3320E+02
      3.725  0.4669E+01  0.4671E+01  0.3388E+02  0.3388E+02
      3.869  0.5089E+01  0.5090E+01  0.3461E+02  0.3461E+02
      4.013  0.4062E+01  0.4062E+01  0.3520E+02  0.3520E+02
      4.157  0.3988E+01  0.3986E+01  0.3578E+02  0.3577E+02
      4.302  0.4590E+01  0.4584E+01  0.3644E+02  0.3643E+02
      4.446  0.4224E+01  0.4226E+01  0.3705E+02  0.3705E+02
      4.590  0.3695E+01  0.3688E+01  0.3758E+02  0.3758E+02
      4.734  0.3207E+01  0.3199E+01  0.3805E+02  0.3804E+02
      4.878  0.3481E+01  0.3484E+01  0.3855E+02  0.3854E+02
      5.022  0.3077E+01  0.3072E+01  0.3899E+02  0.3899E+02
      5.166  0.2956E+01  0.2956E+01  0.3942E+02  0.3941E+02
      5.310  0.4300E+01  0.4307E+01  0.4004E+02  0.4004E+02
      5.454  0.3920E+01  0.3922E+01  0.4061E+02  0.4060E+02
      5.598  0.3123E+01  0.3121E+01  0.4106E+02  0.4105E+02
      5.743  0.3968E+01  0.3970E+01  0.4163E+02  0.4163E+02
      5.887  0.4765E+01  0.4774E+01  0.4232E+02  0.4231E+02
      6.031  0.5267E+01  0.5270E+01  0.4308E+02  0.4307E+02
      6.175  0.6505E+01  0.6512E+01  0.4402E+02  0.4401E+02
      6.319  0.6434E+01  0.6428E+01  0.4494E+02  0.4494E+02
      6.463  0.6647E+01  0.6639E+01  0.4590E+02  0.4590E+02
      6.607  0.6364E+01  0.6381E+01  0.4682E+02  0.4682E+02
      6.751  0.5368E+01  0.5371E+01  0.4760E+02  0.4760E+02
      6.895  0.4106E+01  0.4095E+01  0.4819E+02  0.4819E+02
      7.039  0.4928E+01  0.4924E+01  0.4890E+02  0.4890E+02
      7.183  0.4300E+01  0.4307E+01  0.4952E+02  0.4952E+02
      7.328  0.3603E+01  0.3617E+01  0.5004E+02  0.5005E+02
      7.472  0.2978E+01  0.3014E+01  0.5047E+02  0.5048E+02
      7.616  0.2923E+01  0.2978E+01  0.5090E+02  0.5091E+02
      7.760  0.1876E+01  0.1981E+01  0.5117E+02  0.5120E+02
      7.904  0.1874E+01  0.1955E+01  0.5144E+02  0.5148E+02
      8.048  0.1770E+01  0.1508E+01  0.5170E+02  0.5170E+02
      8.192  0.1250E+01  0.1060E+01  0.5188E+02  0.5185E+02
      8.336  0.7012E+00  0.6801E+00  0.5198E+02  0.5195E+02
      8.480  0.1429E+00  0.1740E+00  0.5200E+02  0.5198E+02
      8.624  0.8225E-02  0.1389E+00  0.5200E+02  0.5200E+02
      8.768  0.0000E+00  0.2823E-01  0.5200E+02  0.5200E+02
      8.913  0.0000E+00  0.1834E-02  0.5200E+02  0.5200E+02
      9.057  0.0000E+00  0.0000E+00  0.5200E+02  0.5200E+02
      9.201  0.0000E+00  0.0000E+00  0.5200E+02  0.5200E+02
      9.345  0.0000E+00  0.0000E+00  0.5200E+02  0.5200E+02
      9.489  0.0000E+00  0.0000E+00  0.5200E+02  0.5200E+02
      9.633  0.0000E+00  0.0000E+00  0.5200E+02  0.5200E+02
      9.777  0.0000E+00  0.0000E+00  0.5200E+02  0.5200E+02
      9.921  0.0000E+00  0.0000E+00  0.5200E+02  0.5200E+02
     10.065  0.0000E+00  0.0000E+00  0.5200E+02  0.5200E+02
     10.209  0.0000E+00  0.0000E+00  0.5200E+02  0.5200E+02
     10.354  0.0000E+00  0.0000E+00  0.5200E+02  0.5200E+02
     10.498  0.0000E+00  0.0000E+00  0.5200E+02  0.5200E+02
     10.49762711    -32.73056727  301      4.72166022      1.00000000
    -32.731  0.0000E+00  0.0000E+00  0.0000E+00  0.0000E+00  0.0000E+00  0.0000E+00  0.0000E+00  0.0000E+00  0.0000E+00  0.0000E+00  0.0000E+00  0.0000E+00  0.0000E+00  0.0000E+00  0.0000E+00  0.0000E+00  0.0000E+00  0.0000E+00
    -32.586  0.0000E+00  0.0000E+00  0.0000E+00  0.0000E+00  0.0000E+00  0.0000E+00  0.0000E+00  0.0000E+00  0.0000E+00  0.0000E+00  0.0000E+00  0.0000E+00  0.0000E+00  0.0000E+00  0.0000E+00  0.0000E+00  0.0000E+00  0.0000E+00
    -32.442  0.0000E+00  0.0000E+00  0.0000E+00  0.0000E+00  0.0000E+00  0.0000E+00  0.0000E+00  0.0000E+00  0.0000E+00  0.0000E+00  0.0000E+00  0.0000E+00  0.0000E+00  0.0000E+00  0.0000E+00  0.0000E+00  0.0000E+00  0.0000E+00
    -32.298  0.0000E+00  0.0000E+00  0.0000E+00  0.0000E+00  0.0000E+00  0.0000E+00  0.0000E+00  0.0000E+00  0.0000E+00  0.0000E+00  0.0000E+00  0.0000E+00  0.0000E+00  0.0000E+00  0.0000E+00  0.0000E+00  0.0000E+00  0.0000E+00
    -32.154  0.0000E+00  0.0000E+00  0.0000E+00  0.0000E+00  0.0000E+00  0.0000E+00  0.0000E+00  0.0000E+00  0.0000E+00  0.0000E+00  0.0000E+00  0.0000E+00  0.0000E+00  0.0000E+00  0.0000E+00  0.0000E+00  0.0000E+00  0.0000E+00
    -32.010  0.0000E+00  0.0000E+00  0.0000E+00  0.0000E+00  0.0000E+00  0.0000E+00  0.0000E+00  0.0000E+00  0.0000E+00  0.0000E+00  0.0000E+00  0.0000E+00  0.0000E+00  0.0000E+00  0.0000E+00  0.0000E+00  0.0000E+00  0.0000E+00
    -31.866  0.0000E+00  0.0000E+00  0.0000E+00  0.0000E+00  0.0000E+00  0.0000E+00  0.0000E+00  0.0000E+00  0.0000E+00  0.0000E+00  0.0000E+00  0.0000E+00  0.0000E+00  0.0000E+00  0.0000E+00  0.0000E+00  0.0000E+00  0.0000E+00
    -31.722  0.0000E+00  0.0000E+00  0.0000E+00  0.0000E+00  0.0000E+00  0.0000E+00  0.0000E+00  0.0000E+00  0.0000E+00  0.0000E+00  0.0000E+00  0.0000E+00  0.0000E+00  0.0000E+00  0.0000E+00  0.0000E+00  0.0000E+00  0.0000E+00
    -31.578  0.0000E+00  0.0000E+00  0.0000E+00  0.0000E+00  0.0000E+00  0.0000E+00  0.0000E+00  0.0000E+00  0.0000E+00  0.0000E+00  0.0000E+00  0.0000E+00  0.0000E+00  0.0000E+00  0.0000E+00  0.0000E+00  0.0000E+00  0.0000E+00
    -31.434  0.0000E+00  0.0000E+00  0.0000E+00  0.0000E+00  0.0000E+00  0.0000E+00  0.0000E+00  0.0000E+00  0.0000E+00  0.0000E+00  0.0000E+00  0.0000E+00  0.0000E+00  0.0000E+00  0.0000E+00  0.0000E+00  0.0000E+00  0.0000E+00
    -31.290  0.7645E-04  0.7650E-04  0.4660E-10  0.4672E-10  0.1144E-10  0.1227E-10  0.4660E-10  0.4672E-10  0.1866E-14  0.2032E-14  0.8153E-14  0.8838E-14  0.9825E-10  0.9780E-10  0.8153E-14  0.8838E-14  0.2671E-10  0.2660E-10
    -31.146  0.2273E-02  0.2275E-02  0.1401E-08  0.1404E-08  0.3250E-09  0.3487E-09  0.1401E-08  0.1404E-08  0.5692E-13  0.6081E-13  0.2369E-12  0.2469E-12  0.2077E-08  0.2069E-08  0.2369E-12  0.2469E-12  0.8452E-09  0.8421E-09
    -31.001  0.3933E-01  0.3936E-01  0.2423E-07  0.2428E-07  0.5631E-08  0.6042E-08  0.2423E-07  0.2428E-07  0.9842E-12  0.1052E-11  0.4102E-11  0.4281E-11  0.3639E-07  0.3624E-07  0.4102E-11  0.4281E-11  0.1460E-07  0.1455E-07
    -30.857  0.6304E+00  0.6308E+00  0.3887E-06  0.3896E-06  0.9014E-07  0.9671E-07  0.3887E-06  0.3896E-06  0.1581E-10  0.1690E-10  0.6578E-10  0.6858E-10  0.5766E-06  0.5742E-06  0.6578E-10  0.6858E-10  0.2349E-06  0.2341E-06
    -30.713  0.3793E+01  0.3793E+01  0.2346E-05  0.2350E-05  0.5379E-06  0.5768E-06  0.2346E-05  0.2350E-05  0.9565E-10  0.1021E-09  0.3953E-09  0.4098E-09  0.3217E-05  0.3203E-05  0.3953E-09  0.4098E-09  0.1434E-05  0.1428E-05
    -30.569  0.2130E+01  0.2129E+01  0.1313E-05  0.1314E-05  0.2988E-06  0.3202E-06  0.1313E-05  0.1314E-05  0.5332E-10  0.5682E-10  0.2200E-09  0.2262E-09  0.1629E-05  0.1621E-05  0.2200E-09  0.2262E-09  0.8021E-06  0.7981E-06
    -30.425  0.1834E+00  0.1833E+00  0.1126E-06  0.1127E-06  0.2562E-07  0.2745E-07  0.1126E-06  0.1127E-06  0.4552E-11  0.4847E-11  0.1882E-10  0.1929E-10  0.1346E-06  0.1339E-06  0.1882E-10  0.1929E-10  0.6838E-07  0.6802E-07
    -30.281  0.0000E+00  0.0000E+00  0.0000E+00  0.0000E+00  0.0000E+00  0.0000E+00  0.0000E+00  0.0000E+00  0.0000E+00  0.0000E+00  0.0000E+00  0.0000E+00  0.0000E+00  0.0000E+00  0.0000E+00  0.0000E+00  0.0000E+00  0.0000E+00
    -30.137  0.0000E+00  0.0000E+00  0.0000E+00  0.0000E+00  0.0000E+00  0.0000E+00  0.0000E+00  0.0000E+00  0.0000E+00  0.0000E+00  0.0000E+00  0.0000E+00  0.0000E+00  0.0000E+00  0.0000E+00  0.0000E+00  0.0000E+00  0.0000E+00
    -29.993  0.0000E+00  0.0000E+00  0.0000E+00  0.0000E+00  0.0000E+00  0.0000E+00  0.0000E+00  0.0000E+00  0.0000E+00  0.0000E+00  0.0000E+00  0.0000E+00  0.0000E+00  0.0000E+00  0.0000E+00  0.0000E+00  0.0000E+00  0.0000E+00
    -29.849  0.0000E+00  0.0000E+00  0.0000E+00  0.0000E+00  0.0000E+00  0.0000E+00  0.0000E+00  0.0000E+00  0.0000E+00  0.0000E+00  0.0000E+00  0.0000E+00  0.0000E+00  0.0000E+00  0.0000E+00  0.0000E+00  0.0000E+00  0.0000E+00
    -29.705  0.0000E+00  0.0000E+00  0.0000E+00  0.0000E+00  0.0000E+00  0.0000E+00  0.0000E+00  0.0000E+00  0.0000E+00  0.0000E+00  0.0000E+00  0.0000E+00  0.0000E+00  0.0000E+00  0.0000E+00  0.0000E+00  0.0000E+00  0.0000E+00
    -29.560  0.0000E+00  0.0000E+00  0.0000E+00  0.0000E+00  0.0000E+00  0.0000E+00  0.0000E+00  0.0000E+00  0.0000E+00  0.0000E+00  0.0000E+00  0.0000E+00  0.0000E+00  0.0000E+00  0.0000E+00  0.0000E+00  0.0000E+00  0.0000E+00
    -29.416  0.0000E+00  0.0000E+00  0.0000E+00  0.0000E+00  0.0000E+00  0.0000E+00  0.0000E+00  0.0000E+00  0.0000E+00  0.0000E+00  0.0000E+00  0.0000E+00  0.0000E+00  0.0000E+00  0.0000E+00  0.0000E+00  0.0000E+00  0.0000E+00
    -29.272  0.0000E+00  0.0000E+00  0.0000E+00  0.0000E+00  0.0000E+00  0.0000E+00  0.0000E+00  0.0000E+00  0.0000E+00  0.0000E+00  0.0000E+00  0.0000E+00  0.0000E+00  0.0000E+00  0.0000E+00  0.0000E+00  0.0000E+00  0.0000E+00
    -29.128  0.0000E+00  0.0000E+00  0.0000E+00  0.0000E+00  0.0000E+00  0.0000E+00  0.0000E+00  0.0000E+00  0.0000E+00  0.0000E+00  0.0000E+00  0.0000E+00  0.0000E+00  0.0000E+00  0.0000E+00  0.0000E+00  0.0000E+00  0.0000E+00
    -28.984  0.0000E+00  0.0000E+00  0.0000E+00  0.0000E+00  0.0000E+00  0.0000E+00  0.0000E+00  0.0000E+00  0.0000E+00  0.0000E+00  0.0000E+00  0.0000E+00  0.0000E+00  0.0000E+00  0.0000E+00  0.0000E+00  0.0000E+00  0.0000E+00
    -28.840  0.0000E+00  0.0000E+00  0.0000E+00  0.0000E+00  0.0000E+00  0.0000E+00  0.0000E+00  0.0000E+00  0.0000E+00  0.0000E+00  0.0000E+00  0.0000E+00  0.0000E+00  0.0000E+00  0.0000E+00  0.0000E+00  0.0000E+00  0.0000E+00
    -28.696  0.0000E+00  0.0000E+00  0.0000E+00  0.0000E+00  0.0000E+00  0.0000E+00  0.0000E+00  0.0000E+00  0.0000E+00  0.0000E+00  0.0000E+00  0.0000E+00  0.0000E+00  0.0000E+00  0.0000E+00  0.0000E+00  0.0000E+00  0.0000E+00
    -28.552  0.0000E+00  0.0000E+00  0.0000E+00  0.0000E+00  0.0000E+00  0.0000E+00  0.0000E+00  0.0000E+00  0.0000E+00  0.0000E+00  0.0000E+00  0.0000E+00  0.0000E+00  0.0000E+00  0.0000E+00  0.0000E+00  0.0000E+00  0.0000E+00
    -28.408  0.0000E+00  0.0000E+00  0.0000E+00  0.0000E+00  0.0000E+00  0.0000E+00  0.0000E+00  0.0000E+00  0.0000E+00  0.0000E+00  0.0000E+00  0.0000E+00  0.0000E+00  0.0000E+00  0.0000E+00  0.0000E+00  0.0000E+00  0.0000E+00
    -28.264  0.0000E+00  0.0000E+00  0.0000E+00  0.0000E+00  0.0000E+00  0.0000E+00  0.0000E+00  0.0000E+00  0.0000E+00  0.0000E+00  0.0000E+00  0.0000E+00  0.0000E+00  0.0000E+00  0.0000E+00  0.0000E+00  0.0000E+00  0.0000E+00
    -28.120  0.0000E+00  0.0000E+00  0.0000E+00  0.0000E+00  0.0000E+00  0.0000E+00  0.0000E+00  0.0000E+00  0.0000E+00  0.0000E+00  0.0000E+00  0.0000E+00  0.0000E+00  0.0000E+00  0.0000E+00  0.0000E+00  0.0000E+00  0.0000E+00
    -27.975  0.0000E+00  0.0000E+00  0.0000E+00  0.0000E+00  0.0000E+00  0.0000E+00  0.0000E+00  0.0000E+00  0.0000E+00  0.0000E+00  0.0000E+00  0.0000E+00  0.0000E+00  0.0000E+00  0.0000E+00  0.0000E+00  0.0000E+00  0.0000E+00
    -27.831  0.0000E+00  0.0000E+00  0.0000E+00  0.0000E+00  0.0000E+00  0.0000E+00  0.0000E+00  0.0000E+00  0.0000E+00  0.0000E+00  0.0000E+00  0.0000E+00  0.0000E+00  0.0000E+00  0.0000E+00  0.0000E+00  0.0000E+00  0.0000E+00
    -27.687  0.0000E+00  0.0000E+00  0.0000E+00  0.0000E+00  0.0000E+00  0.0000E+00  0.0000E+00  0.0000E+00  0.0000E+00  0.0000E+00  0.0000E+00  0.0000E+00  0.0000E+00  0.0000E+00  0.0000E+00  0.0000E+00  0.0000E+00  0.0000E+00
    -27.543  0.0000E+00  0.0000E+00  0.0000E+00  0.0000E+00  0.0000E+00  0.0000E+00  0.0000E+00  0.0000E+00  0.0000E+00  0.0000E+00  0.0000E+00  0.0000E+00  0.0000E+00  0.0000E+00  0.0000E+00  0.0000E+00  0.0000E+00  0.0000E+00
    -27.399  0.0000E+00  0.0000E+00  0.0000E+00  0.0000E+00  0.0000E+00  0.0000E+00  0.0000E+00  0.0000E+00  0.0000E+00  0.0000E+00  0.0000E+00  0.0000E+00  0.0000E+00  0.0000E+00  0.0000E+00  0.0000E+00  0.0000E+00  0.0000E+00
    -27.255  0.0000E+00  0.0000E+00  0.0000E+00  0.0000E+00  0.0000E+00  0.0000E+00  0.0000E+00  0.0000E+00  0.0000E+00  0.0000E+00  0.0000E+00  0.0000E+00  0.0000E+00  0.0000E+00  0.0000E+00  0.0000E+00  0.0000E+00  0.0000E+00
    -27.111  0.0000E+00  0.0000E+00  0.0000E+00  0.0000E+00  0.0000E+00  0.0000E+00  0.0000E+00  0.0000E+00  0.0000E+00  0.0000E+00  0.0000E+00  0.0000E+00  0.0000E+00  0.0000E+00  0.0000E+00  0.0000E+00  0.0000E+00  0.0000E+00
    -26.967  0.0000E+00  0.0000E+00  0.0000E+00  0.0000E+00  0.0000E+00  0.0000E+00  0.0000E+00  0.0000E+00  0.0000E+00  0.0000E+00  0.0000E+00  0.0000E+00  0.0000E+00  0.0000E+00  0.0000E+00  0.0000E+00  0.0000E+00  0.0000E+00
    -26.823  0.0000E+00  0.0000E+00  0.0000E+00  0.0000E+00  0.0000E+00  0.0000E+00  0.0000E+00  0.0000E+00  0.0000E+00  0.0000E+00  0.0000E+00  0.0000E+00  0.0000E+00  0.0000E+00  0.0000E+00  0.0000E+00  0.0000E+00  0.0000E+00
    -26.679  0.0000E+00  0.0000E+00  0.0000E+00  0.0000E+00  0.0000E+00  0.0000E+00  0.0000E+00  0.0000E+00  0.0000E+00  0.0000E+00  0.0000E+00  0.0000E+00  0.0000E+00  0.0000E+00  0.0000E+00  0.0000E+00  0.0000E+00  0.0000E+00
    -26.535  0.0000E+00  0.0000E+00  0.0000E+00  0.0000E+00  0.0000E+00  0.0000E+00  0.0000E+00  0.0000E+00  0.0000E+00  0.0000E+00  0.0000E+00  0.0000E+00  0.0000E+00  0.0000E+00  0.0000E+00  0.0000E+00  0.0000E+00  0.0000E+00
    -26.390  0.0000E+00  0.0000E+00  0.0000E+00  0.0000E+00  0.0000E+00  0.0000E+00  0.0000E+00  0.0000E+00  0.0000E+00  0.0000E+00  0.0000E+00  0.0000E+00  0.0000E+00  0.0000E+00  0.0000E+00  0.0000E+00  0.0000E+00  0.0000E+00
    -26.246  0.0000E+00  0.0000E+00  0.0000E+00  0.0000E+00  0.0000E+00  0.0000E+00  0.0000E+00  0.0000E+00  0.0000E+00  0.0000E+00  0.0000E+00  0.0000E+00  0.0000E+00  0.0000E+00  0.0000E+00  0.0000E+00  0.0000E+00  0.0000E+00
    -26.102  0.0000E+00  0.0000E+00  0.0000E+00  0.0000E+00  0.0000E+00  0.0000E+00  0.0000E+00  0.0000E+00  0.0000E+00  0.0000E+00  0.0000E+00  0.0000E+00  0.0000E+00  0.0000E+00  0.0000E+00  0.0000E+00  0.0000E+00  0.0000E+00
    -25.958  0.0000E+00  0.0000E+00  0.0000E+00  0.0000E+00  0.0000E+00  0.0000E+00  0.0000E+00  0.0000E+00  0.0000E+00  0.0000E+00  0.0000E+00  0.0000E+00  0.0000E+00  0.0000E+00  0.0000E+00  0.0000E+00  0.0000E+00  0.0000E+00
    -25.814  0.0000E+00  0.0000E+00  0.0000E+00  0.0000E+00  0.0000E+00  0.0000E+00  0.0000E+00  0.0000E+00  0.0000E+00  0.0000E+00  0.0000E+00  0.0000E+00  0.0000E+00  0.0000E+00  0.0000E+00  0.0000E+00  0.0000E+00  0.0000E+00
    -25.670  0.0000E+00  0.0000E+00  0.0000E+00  0.0000E+00  0.0000E+00  0.0000E+00  0.0000E+00  0.0000E+00  0.0000E+00  0.0000E+00  0.0000E+00  0.0000E+00  0.0000E+00  0.0000E+00  0.0000E+00  0.0000E+00  0.0000E+00  0.0000E+00
    -25.526  0.0000E+00  0.0000E+00  0.0000E+00  0.0000E+00  0.0000E+00  0.0000E+00  0.0000E+00  0.0000E+00  0.0000E+00  0.0000E+00  0.0000E+00  0.0000E+00  0.0000E+00  0.0000E+00  0.0000E+00  0.0000E+00  0.0000E+00  0.0000E+00