  16  16   1   0
  0.2843159E+02  0.4091075E-09  0.4091075E-09  0.2717980E-08  0.5000000E-15
  1.000000000000000E-004
  CAR 
 unknown system                          
      8.78251679    -34.38037011  301      3.56115960      1.00000000
    -34.380  0.0000E+00  0.0000E+00  0.0000E+00  0.0000E+00
    -34.236  0.0000E+00  0.0000E+00  0.0000E+00  0.0000E+00
    -34.093  0.0000E+00  0.0000E+00  0.0000E+00  0.0000E+00
    -33.949  0.0000E+00  0.0000E+00  0.0000E+00  0.0000E+00
    -33.805  0.0000E+00  0.0000E+00  0.0000E+00  0.0000E+00
    -33.661  0.0000E+00  0.0000E+00  0.0000E+00  0.0000E+00
    -33.517  0.0000E+00  0.0000E+00  0.0000E+00  0.0000E+00
    -33.373  0.0000E+00  0.0000E+00  0.0000E+00  0.0000E+00
    -33.229  0.0000E+00  0.0000E+00  0.0000E+00  0.0000E+00
    -33.085  0.0000E+00  0.0000E+00  0.0000E+00  0.0000E+00
    -32.942  0.6694E-03  0.6717E-03  0.9631E-04  0.9665E-04
    -32.798  0.1122E-01  0.1126E-01  0.1711E-02  0.1717E-02
    -32.654  0.1979E+00  0.1986E+00  0.3018E-01  0.3029E-01
    -32.510  0.3097E+01  0.3106E+01  0.4758E+00  0.4772E+00
    -32.366  0.1629E+02  0.1630E+02  0.2820E+01  0.2823E+01
    -32.222  0.7563E+01  0.7545E+01  0.3908E+01  0.3908E+01
    -32.078  0.6042E+00  0.6021E+00  0.3995E+01  0.3995E+01
    -31.934  0.0000E+00  0.0000E+00  0.4000E+01  0.4000E+01
    -31.791  0.0000E+00  0.0000E+00  0.4000E+01  0.4000E+01
    -31.647  0.0000E+00  0.0000E+00  0.4000E+01  0.4000E+01
    -31.503  0.0000E+00  0.0000E+00  0.4000E+01  0.4000E+01
    -31.359  0.0000E+00  0.0000E+00  0.4000E+01  0.4000E+01
    -31.215  0.0000E+00  0.0000E+00  0.4000E+01  0.4000E+01
    -31.071  0.0000E+00  0.0000E+00  0.4000E+01  0.4000E+01
    -30.927  0.0000E+00  0.0000E+00  0.4000E+01  0.4000E+01
    -30.783  0.0000E+00  0.0000E+00  0.4000E+01  0.4000E+01
    -30.640  0.0000E+00  0.0000E+00  0.4000E+01  0.4000E+01
    -30.496  0.0000E+00  0.0000E+00  0.4000E+01  0.4000E+01
    -30.352  0.0000E+00  0.0000E+00  0.4000E+01  0.4000E+01
    -30.208  0.0000E+00  0.0000E+00  0.4000E+01  0.4000E+01
    -30.064  0.0000E+00  0.0000E+00  0.4000E+01  0.4000E+01
    -29.920  0.0000E+00  0.0000E+00  0.4000E+01  0.4000E+01
    -29.776  0.0000E+00  0.0000E+00  0.4000E+01  0.4000E+01
    -29.632  0.0000E+00  0.0000E+00  0.4000E+01  0.4000E+01
    -29.489  0.0000E+00  0.0000E+00  0.4000E+01  0.4000E+01
    -29.345  0.0000E+00  0.0000E+00  0.4000E+01  0.4000E+01
    -29.201  0.0000E+00  0.0000E+00  0.4000E+01  0.4000E+01
    -29.057  0.0000E+00  0.0000E+00  0.4000E+01  0.4000E+01
    -28.913  0.0000E+00  0.0000E+00  0.4000E+01  0.4000E+01
    -28.769  0.0000E+00  0.0000E+00  0.4000E+01  0.4000E+01
    -28.625  0.0000E+00  0.0000E+00  0.4000E+01  0.4000E+01
    -28.481  0.0000E+00  0.0000E+00  0.4000E+01  0.4000E+01
    -28.338  0.0000E+00  0.0000E+00  0.4000E+01  0.4000E+01
    -28.194  0.0000E+00  0.0000E+00  0.4000E+01  0.4000E+01
    -28.050  0.0000E+00  0.0000E+00  0.4000E+01  0.4000E+01
    -27.906  0.0000E+00  0.0000E+00  0.4000E+01  0.4000E+01
    -27.762  0.0000E+00  0.0000E+00  0.4000E+01  0.4000E+01
    -27.618  0.0000E+00  0.0000E+00  0.4000E+01  0.4000E+01
    -27.474  0.0000E+00  0.0000E+00  0.4000E+01  0.4000E+01
    -27.330  0.0000E+00  0.0000E+00  0.4000E+01  0.4000E+01
    -27.187  0.0000E+00  0.0000E+00  0.4000E+01  0.4000E+01
    -27.043  0.0000E+00  0.0000E+00  0.4000E+01  0.4000E+01
    -26.899  0.0000E+00  0.0000E+00  0.4000E+01  0.4000E+01
    -26.755  0.0000E+00  0.0000E+00  0.4000E+01  0.4000E+01
    -26.611  0.0000E+00  0.0000E+00  0.4000E+01  0.4000E+01
    -26.467  0.0000E+00  0.0000E+00  0.4000E+01  0.4000E+01
    -26.323  0.0000E+00  0.0000E+00  0.4000E+01  0.4000E+01
    -26.179  0.0000E+00  0.0000E+00  0.4000E+01  0.4000E+01
    -26.036  0.0000E+00  0.0000E+00  0.4000E+01  0.4000E+01
    -25.892  0.0000E+00  0.0000E+00  0.4000E+01  0.4000E+01
    -25.748  0.0000E+00  0.0000E+00  0.4000E+01  0.4000E+01
    -25.604  0.0000E+00  0.0000E+00  0.4000E+01  0.4000E+01
    -25.460  0.0000E+00  0.0000E+00  0.4000E+01  0.4000E+01
    -25.316  0.0000E+00  0.0000E+00  0.4000E+01  0.4000E+01
    -25.172  0.0000E+00  0.0000E+00  0.4000E+01  0.4000E+01
    -25.028  0.0000E+00  0.0000E+00  0.4000E+01  0.4000E+01
    -24.885  0.0000E+00  0.0000E+00  0.4000E+01  0.4000E+01
    -24.741  0.0000E+00  0.0000E+00  0.4000E+01  0.4000E+01
    -24.597  0.0000E+00  0.0000E+00  0.4000E+01  0.4000E+01
    -24.453  0.0000E+00  0.0000E+00  0.4000E+01  0.4000E+01
    -24.309  0.0000E+00  0.0000E+00  0.4000E+01  0.4000E+01
    -24.165  0.0000E+00  0.0000E+00  0.4000E+01  0.4000E+01
    -24.021  0.0000E+00  0.0000E+00  0.4000E+01  0.4000E+01
    -23.877  0.0000E+00  0.0000E+00  0.4000E+01  0.4000E+01
    -23.734  0.0000E+00  0.0000E+00  0.4000E+01  0.4000E+01
    -23.590  0.0000E+00  0.0000E+00  0.4000E+01  0.4000E+01
    -23.446  0.0000E+00  0.0000E+00  0.4000E+01  0.4000E+01
    -23.302  0.0000E+00  0.0000E+00  0.4000E+01  0.4000E+01
    -23.158  0.0000E+00  0.0000E+00  0.4000E+01  0.4000E+01
    -23.014  0.0000E+00  0.0000E+00  0.4000E+01  0.4000E+01
    -22.870  0.0000E+00  0.0000E+00  0.4000E+01  0.4000E+01
    -22.726  0.0000E+00  0.0000E+00  0.4000E+01  0.4000E+01
    -22.583  0.0000E+00  0.0000E+00  0.4000E+01  0.4000E+01
    -22.439  0.0000E+00  0.0000E+00  0.4000E+01  0.4000E+01
    -22.295  0.0000E+00  0.0000E+00  0.4000E+01  0.4000E+01
    -22.151  0.0000E+00  0.0000E+00  0.4000E+01  0.4000E+01
    -22.007  0.0000E+00  0.0000E+00  0.4000E+01  0.4000E+01
    -21.863  0.0000E+00  0.0000E+00  0.4000E+01  0.4000E+01
    -21.719  0.0000E+00  0.0000E+00  0.4000E+01  0.4000E+01
    -21.575  0.0000E+00  0.0000E+00  0.4000E+01  0.4000E+01
    -21.432  0.0000E+00  0.0000E+00  0.4000E+01  0.4000E+01
    -21.288  0.0000E+00  0.0000E+00  0.4000E+01  0.4000E+01
    -21.144  0.0000E+00  0.0000E+00  0.4000E+01  0.4000E+01
    -21.000  0.0000E+00  0.0000E+00  0.4000E+01  0.4000E+01
    -20.856  0.0000E+00  0.0000E+00  0.4000E+01  0.4000E+01
    -20.712  0.0000E+00  0.0000E+00  0.4000E+01  0.4000E+01
    -20.568  0.0000E+00  0.0000E+00  0.4000E+01  0.4000E+01
    -20.424  0.0000E+00  0.0000E+00  0.4000E+01  0.4000E+01
    -20.280  0.0000E+00  0.0000E+00  0.4000E+01  0.4000E+01
    -20.137  0.0000E+00  0.0000E+00  0.4000E+01  0.4000E+01
    -19.993  0.0000E+00  0.0000E+00  0.4000E+01  0.4000E+01
    -19.849  0.0000E+00  0.0000E+00  0.4000E+01  0.4000E+01
    -19.705  0.0000E+00  0.0000E+00  0.4000E+01  0.4000E+01
    -19.561  0.0000E+00  0.0000E+00  0.4000E+01  0.4000E+01
    -19.417  0.0000E+00  0.0000E+00  0.4000E+01  0.4000E+01
    -19.273  0.0000E+00  0.0000E+00  0.4000E+01  0.4000E+01
    -19.129  0.0000E+00  0.0000E+00  0.4000E+01  0.4000E+01
    -18.986  0.0000E+00  0.0000E+00  0.4000E+01  0.4000E+01
    -18.842  0.0000E+00  0.0000E+00  0.4000E+01  0.4000E+01
    -18.698  0.0000E+00  0.0000E+00  0.4000E+01  0.4000E+01
    -18.554  0.0000E+00  0.0000E+00  0.4000E+01  0.4000E+01
    -18.410  0.0000E+00  0.0000E+00  0.4000E+01  0.4000E+01
    -18.266  0.0000E+00  0.0000E+00  0.4000E+01  0.4000E+01
    -18.122  0.0000E+00  0.0000E+00  0.4000E+01  0.4000E+01
    -17.978  0.0000E+00  0.0000E+00  0.4000E+01  0.4000E+01
    -17.835  0.0000E+00  0.0000E+00  0.4000E+01  0.4000E+01
    -17.691  0.0000E+00  0.0000E+00  0.4000E+01  0.4000E+01
    -17.547  0.0000E+00  0.0000E+00  0.4000E+01  0.4000E+01
    -17.403  0.0000E+00  0.0000E+00  0.4000E+01  0.4000E+01
    -17.259  0.0000E+00  0.0000E+00  0.4000E+01  0.4000E+01
    -17.115  0.0000E+00  0.0000E+00  0.4000E+01  0.4000E+01
    -16.971  0.0000E+00  0.0000E+00  0.4000E+01  0.4000E+01
    -16.827  0.0000E+00  0.0000E+00  0.4000E+01  0.4000E+01
    -16.684  0.0000E+00  0.0000E+00  0.4000E+01  0.4000E+01
    -16.540  0.0000E+00  0.0000E+00  0.4000E+01  0.4000E+01
    -16.396  0.0000E+00  0.0000E+00  0.4000E+01  0.4000E+01
    -16.252  0.0000E+00  0.0000E+00  0.4000E+01  0.4000E+01
    -16.108  0.0000E+00  0.0000E+00  0.4000E+01  0.4000E+01
    -15.964  0.0000E+00  0.0000E+00  0.4000E+01  0.4000E+01
    -15.820  0.0000E+00  0.0000E+00  0.4000E+01  0.4000E+01
    -15.676  0.0000E+00  0.0000E+00  0.4000E+01  0.4000E+01
    -15.533  0.0000E+00  0.0000E+00  0.4000E+01  0.4000E+01
    -15.389  0.0000E+00  0.0000E+00  0.4000E+01  0.4000E+01
    -15.245  0.0000E+00  0.0000E+00  0.4000E+01  0.4000E+01
    -15.101  0.0000E+00  0.0000E+00  0.4000E+01  0.4000E+01
    -14.957  0.2867E-02  0.2869E-02  0.4000E+01  0.4000E+01
    -14.813  0.5676E-01  0.5681E-01  0.4009E+01  0.4009E+01
    -14.669  0.9700E+00  0.9709E+00  0.4148E+01  0.4148E+01
    -14.525  0.1169E+02  0.1170E+02  0.5830E+01  0.5831E+01
    -14.382  0.4051E+02  0.4052E+02  0.1166E+02  0.1166E+02
    -14.238  0.2700E+02  0.2698E+02  0.1554E+02  0.1554E+02
    -14.094  0.2937E+01  0.2933E+01  0.1597E+02  0.1597E+02
    -13.950  0.7763E-02  0.7757E-02  0.1600E+02  0.1600E+02
    -13.806  0.0000E+00  0.0000E+00  0.1600E+02  0.1600E+02
    -13.662  0.0000E+00  0.0000E+00  0.1600E+02  0.1600E+02
    -13.518  0.0000E+00  0.0000E+00  0.1600E+02  0.1600E+02
    -13.374  0.0000E+00  0.0000E+00  0.1600E+02  0.1600E+02
    -13.231  0.0000E+00  0.0000E+00  0.1600E+02  0.1600E+02
    -13.087  0.0000E+00  0.0000E+00  0.1600E+02  0.1600E+02
    -12.943  0.0000E+00  0.0000E+00  0.1600E+02  0.1600E+02
    -12.799  0.0000E+00  0.0000E+00  0.1600E+02  0.1600E+02
    -12.655  0.0000E+00  0.0000E+00  0.1600E+02  0.1600E+02
    -12.511  0.0000E+00  0.0000E+00  0.1600E+02  0.1600E+02
    -12.367  0.0000E+00  0.0000E+00  0.1600E+02  0.1600E+02
    -12.223  0.0000E+00  0.0000E+00  0.1600E+02  0.1600E+02
    -12.080  0.0000E+00  0.0000E+00  0.1600E+02  0.1600E+02
    -11.936  0.0000E+00  0.0000E+00  0.1600E+02  0.1600E+02
    -11.792  0.0000E+00  0.0000E+00  0.1600E+02  0.1600E+02
    -11.648  0.0000E+00  0.0000E+00  0.1600E+02  0.1600E+02
    -11.504  0.0000E+00  0.0000E+00  0.1600E+02  0.1600E+02
    -11.360  0.0000E+00  0.0000E+00  0.1600E+02  0.1600E+02
    -11.216  0.0000E+00  0.0000E+00  0.1600E+02  0.1600E+02
    -11.072  0.0000E+00  0.0000E+00  0.1600E+02  0.1600E+02
    -10.929  0.0000E+00  0.0000E+00  0.1600E+02  0.1600E+02
    -10.785  0.0000E+00  0.0000E+00  0.1600E+02  0.1600E+02
    -10.641  0.0000E+00  0.0000E+00  0.1600E+02  0.1600E+02
    -10.497  0.0000E+00  0.0000E+00  0.1600E+02  0.1600E+02
    -10.353  0.0000E+00  0.0000E+00  0.1600E+02  0.1600E+02
    -10.209  0.0000E+00  0.0000E+00  0.1600E+02  0.1600E+02
    -10.065  0.0000E+00  0.0000E+00  0.1600E+02  0.1600E+02
     -9.921  0.0000E+00  0.0000E+00  0.1600E+02  0.1600E+02
     -9.778  0.0000E+00  0.0000E+00  0.1600E+02  0.1600E+02
     -9.634  0.0000E+00  0.0000E+00  0.1600E+02  0.1600E+02
     -9.490  0.0000E+00  0.0000E+00  0.1600E+02  0.1600E+02
     -9.346  0.0000E+00  0.0000E+00  0.1600E+02  0.1600E+02
     -9.202  0.0000E+00  0.0000E+00  0.1600E+02  0.1600E+02
     -9.058  0.0000E+00  0.0000E+00  0.1600E+02  0.1600E+02
     -8.914  0.0000E+00  0.0000E+00  0.1600E+02  0.1600E+02
     -8.770  0.0000E+00  0.0000E+00  0.1600E+02  0.1600E+02
     -8.627  0.0000E+00  0.0000E+00  0.1600E+02  0.1600E+02
     -8.483  0.0000E+00  0.0000E+00  0.1600E+02  0.1600E+02
     -8.339  0.0000E+00  0.0000E+00  0.1600E+02  0.1600E+02
     -8.195  0.0000E+00  0.0000E+00  0.1600E+02  0.1600E+02
     -8.051  0.0000E+00  0.0000E+00  0.1600E+02  0.1600E+02
     -7.907  0.0000E+00  0.0000E+00  0.1600E+02  0.1600E+02
     -7.763  0.0000E+00  0.0000E+00  0.1600E+02  0.1600E+02
     -7.619  0.0000E+00  0.0000E+00  0.1600E+02  0.1600E+02
     -7.476  0.0000E+00  0.0000E+00  0.1600E+02  0.1600E+02
     -7.332  0.0000E+00  0.0000E+00  0.1600E+02  0.1600E+02
     -7.188  0.0000E+00  0.0000E+00  0.1600E+02  0.1600E+02
     -7.044  0.0000E+00  0.0000E+00  0.1600E+02  0.1600E+02
     -6.900  0.0000E+00  0.0000E+00  0.1600E+02  0.1600E+02
     -6.756  0.0000E+00  0.0000E+00  0.1600E+02  0.1600E+02
     -6.612  0.0000E+00  0.0000E+00  0.1600E+02  0.1600E+02
     -6.468  0.0000E+00  0.0000E+00  0.1600E+02  0.1600E+02
     -6.324  0.0000E+00  0.0000E+00  0.1600E+02  0.1600E+02
     -6.181  0.0000E+00  0.0000E+00  0.1600E+02  0.1600E+02
     -6.037  0.0000E+00  0.0000E+00  0.1600E+02  0.1600E+02
     -5.893  0.0000E+00  0.0000E+00  0.1600E+02  0.1600E+02
     -5.749  0.1148E-04  0.1166E-04  0.1600E+02  0.1600E+02
     -5.605  0.2365E-03  0.2403E-03  0.1600E+02  0.1600E+02
     -5.461  0.4301E-02  0.4369E-02  0.1600E+02  0.1600E+02
     -5.317  0.6618E-01  0.6709E-01  0.1601E+02  0.1601E+02
     -5.173  0.4164E+00  0.4188E+00  0.1607E+02  0.1607E+02
     -5.030  0.7087E+00  0.7097E+00  0.1617E+02  0.1617E+02
     -4.886  0.6946E+00  0.6938E+00  0.1627E+02  0.1627E+02
     -4.742  0.8172E+00  0.8182E+00  0.1639E+02  0.1639E+02
     -4.598  0.6980E+00  0.6971E+00  0.1649E+02  0.1649E+02
     -4.454  0.6853E+00  0.6865E+00  0.1659E+02  0.1659E+02
     -4.310  0.9163E+00  0.9161E+00  0.1672E+02  0.1672E+02
     -4.166  0.6196E+00  0.6174E+00  0.1681E+02  0.1681E+02
     -4.022  0.6795E+00  0.6834E+00  0.1691E+02  0.1691E+02
     -3.879  0.1030E+01  0.1028E+01  0.1706E+02  0.1706E+02
     -3.735  0.7456E+00  0.7417E+00  0.1716E+02  0.1716E+02
     -3.591  0.1128E+01  0.1126E+01  0.1733E+02  0.1733E+02
     -3.447  0.1654E+01  0.1653E+01  0.1757E+02  0.1757E+02
     -3.303  0.1489E+01  0.1490E+01  0.1778E+02  0.1778E+02
     -3.159  0.1641E+01  0.1638E+01  0.1802E+02  0.1802E+02
     -3.015  0.1264E+01  0.1265E+01  0.1820E+02  0.1820E+02
     -2.871  0.1463E+01  0.1462E+01  0.1841E+02  0.1841E+02
     -2.728  0.2055E+01  0.2057E+01  0.1871E+02  0.1871E+02
     -2.584  0.1403E+01  0.1403E+01  0.1891E+02  0.1891E+02
     -2.440  0.1389E+01  0.1384E+01  0.1911E+02  0.1911E+02
     -2.296  0.2659E+01  0.2669E+01  0.1949E+02  0.1949E+02
     -2.152  0.2970E+01  0.2973E+01  0.1992E+02  0.1992E+02
     -2.008  0.2963E+01  0.2960E+01  0.2035E+02  0.2035E+02
     -1.864  0.2823E+01  0.2819E+01  0.2075E+02  0.2075E+02
     -1.720  0.2374E+01  0.2373E+01  0.2110E+02  0.2110E+02
     -1.577  0.2169E+01  0.2169E+01  0.2141E+02  0.2141E+02
     -1.433  0.1150E+01  0.1148E+01  0.2158E+02  0.2158E+02
     -1.289  0.9942E+00  0.9927E+00  0.2172E+02  0.2172E+02
     -1.145  0.1277E+01  0.1269E+01  0.2190E+02  0.2190E+02
     -1.001  0.1242E+01  0.1249E+01  0.2208E+02  0.2208E+02
     -0.857  0.6909E+00  0.6929E+00  0.2218E+02  0.2218E+02
     -0.713  0.1167E+01  0.1169E+01  0.2235E+02  0.2235E+02
     -0.569  0.2282E+01  0.2292E+01  0.2268E+02  0.2268E+02
     -0.426  0.3801E+01  0.3797E+01  0.2323E+02  0.2323E+02
     -0.282  0.3163E+01  0.3162E+01  0.2368E+02  0.2368E+02
     -0.138  0.2743E+01  0.2739E+01  0.2408E+02  0.2408E+02
      0.006  0.2566E+01  0.2569E+01  0.2445E+02  0.2445E+02
      0.150  0.2751E+01  0.2754E+01  0.2484E+02  0.2484E+02
      0.294  0.3492E+01  0.3488E+01  0.2535E+02  0.2535E+02
      0.438  0.3128E+01  0.3125E+01  0.2580E+02  0.2580E+02
      0.582  0.2525E+01  0.2528E+01  0.2616E+02  0.2616E+02
      0.725  0.3242E+01  0.3244E+01  0.2663E+02  0.2663E+02
      0.869  0.3283E+01  0.3291E+01  0.2710E+02  0.2710E+02
      1.013  0.3016E+01  0.3012E+01  0.2754E+02  0.2754E+02
      1.157  0.1992E+01  0.1986E+01  0.2783E+02  0.2782E+02
      1.301  0.2729E+01  0.2719E+01  0.2822E+02  0.2822E+02
      1.445  0.2908E+01  0.2914E+01  0.2864E+02  0.2864E+02
      1.589  0.2222E+01  0.2223E+01  0.2896E+02  0.2896E+02
      1.733  0.3334E+01  0.3333E+01  0.2944E+02  0.2944E+02
      1.876  0.4191E+01  0.4194E+01  0.3004E+02  0.3004E+02
      2.020  0.4316E+01  0.4315E+01  0.3066E+02  0.3066E+02
      2.164  0.5491E+01  0.5486E+01  0.3145E+02  0.3145E+02
      2.308  0.5771E+01  0.5780E+01  0.3229E+02  0.3229E+02
      2.452  0.3884E+01  0.3882E+01  0.3285E+02  0.3284E+02
      2.596  0.4607E+01  0.4602E+01  0.3351E+02  0.3351E+02
      2.740  0.4999E+01  0.5003E+01  0.3423E+02  0.3423E+02
      2.884  0.5131E+01  0.5124E+01  0.3497E+02  0.3497E+02
      3.027  0.5420E+01  0.5416E+01  0.3575E+02  0.3575E+02
      3.171  0.5603E+01  0.5608E+01  0.3656E+02  0.3656E+02
      3.315  0.4170E+01  0.4173E+01  0.3716E+02  0.3716E+02
      3.459  0.3335E+01  0.3330E+01  0.3764E+02  0.3764E+02
      3.603  0.3629E+01  0.3628E+01  0.3816E+02  0.3816E+02
      3.747  0.3825E+01  0.3823E+01  0.3872E+02  0.3871E+02
      3.891  0.3180E+01  0.3184E+01  0.3917E+02  0.3917E+02
      4.035  0.3966E+01  0.3961E+01  0.3975E+02  0.3974E+02
      4.178  0.4416E+01  0.4422E+01  0.4038E+02  0.4038E+02
      4.322  0.3995E+01  0.3995E+01  0.4096E+02  0.4096E+02
      4.466  0.4065E+01  0.4068E+01  0.4155E+02  0.4154E+02
      4.610  0.5860E+01  0.5864E+01  0.4239E+02  0.4239E+02
      4.754  0.6814E+01  0.6818E+01  0.4337E+02  0.4337E+02
      4.898  0.6430E+01  0.6428E+01  0.4430E+02  0.4430E+02
      5.042  0.5986E+01  0.5980E+01  0.4516E+02  0.4516E+02
      5.186  0.6761E+01  0.6766E+01  0.4614E+02  0.4614E+02
      5.329  0.6816E+01  0.6822E+01  0.4712E+02  0.4712E+02
      5.473  0.5404E+01  0.5398E+01  0.4790E+02  0.4790E+02
      5.617  0.5482E+01  0.5476E+01  0.4869E+02  0.4869E+02
      5.761  0.5090E+01  0.5100E+01  0.4942E+02  0.4942E+02
      5.905  0.4934E+01  0.4923E+01  0.5013E+02  0.5013E+02
      6.049  0.4059E+01  0.4065E+01  0.5072E+02  0.5072E+02
      6.193  0.2528E+01  0.2665E+01  0.5108E+02  0.5110E+02
      6.337  0.1920E+01  0.2005E+01  0.5136E+02  0.5139E+02
      6.480  0.2016E+01  0.2176E+01  0.5165E+02  0.5171E+02
      6.624  0.1532E+01  0.1296E+01  0.5187E+02  0.5189E+02
      6.768  0.6949E+00  0.4940E+00  0.5197E+02  0.5196E+02
      6.912  0.1694E+00  0.2132E+00  0.5200E+02  0.5200E+02
      7.056  0.1220E-01  0.2369E-01  0.5200E+02  0.5200E+02
      7.200  0.0000E+00  0.4622E-03  0.5200E+02  0.5200E+02
      7.344  0.0000E+00  0.0000E+00  0.5200E+02  0.5200E+02
      7.488  0.0000E+00  0.0000E+00  0.5200E+02  0.5200E+02
      7.632  0.0000E+00  0.0000E+00  0.5200E+02  0.5200E+02
      7.775  0.0000E+00  0.0000E+00  0.5200E+02  0.5200E+02
      7.919  0.0000E+00  0.0000E+00  0.5200E+02  0.5200E+02
      8.063  0.0000E+00  0.0000E+00  0.5200E+02  0.5200E+02
      8.207  0.0000E+00  0.0000E+00  0.5200E+02  0.5200E+02
      8.351  0.0000E+00  0.0000E+00  0.5200E+02  0.5200E+02
      8.495  0.0000E+00  0.0000E+00  0.5200E+02  0.5200E+02
      8.639  0.0000E+00  0.0000E+00  0.5200E+02  0.5200E+02
      8.783  0.0000E+00  0.0000E+00  0.5200E+02  0.5200E+02
      8.78251679    -34.38037011  301      3.56115960      1.00000000
    -34.380  0.0000E+00  0.0000E+00  0.0000E+00  0.0000E+00  0.0000E+00  0.0000E+00  0.0000E+00  0.0000E+00  0.0000E+00  0.0000E+00  0.0000E+00  0.0000E+00  0.0000E+00  0.0000E+00  0.0000E+00  0.0000E+00  0.0000E+00  0.0000E+00
    -34.236  0.0000E+00  0.0000E+00  0.0000E+00  0.0000E+00  0.0000E+00  0.0000E+00  0.0000E+00  0.0000E+00  0.0000E+00  0.0000E+00  0.0000E+00  0.0000E+00  0.0000E+00  0.0000E+00  0.0000E+00  0.0000E+00  0.0000E+00  0.0000E+00
    -34.093  0.0000E+00  0.0000E+00  0.0000E+00  0.0000E+00  0.0000E+00  0.0000E+00  0.0000E+00  0.0000E+00  0.0000E+00  0.0000E+00  0.0000E+00  0.0000E+00  0.0000E+00  0.0000E+00  0.0000E+00  0.0000E+00  0.0000E+00  0.0000E+00
    -33.949  0.0000E+00  0.0000E+00  0.0000E+00  0.0000E+00  0.0000E+00  0.0000E+00  0.0000E+00  0.0000E+00  0.0000E+00  0.0000E+00  0.0000E+00  0.0000E+00  0.0000E+00  0.0000E+00  0.0000E+00  0.0000E+00  0.0000E+00  0.0000E+00
    -33.805  0.0000E+00  0.0000E+00  0.0000E+00  0.0000E+00  0.0000E+00  0.0000E+00  0.0000E+00  0.0000E+00  0.0000E+00  0.0000E+00  0.0000E+00  0.0000E+00  0.0000E+00  0.0000E+00  0.0000E+00  0.0000E+00  0.0000E+00  0.0000E+00
    -33.661  0.0000E+00  0.0000E+00  0.0000E+00  0.0000E+00  0.0000E+00  0.0000E+00  0.0000E+00  0.0000E+00  0.0000E+00  0.0000E+00  0.0000E+00  0.0000E+00  0.0000E+00  0.0000E+00  0.0000E+00  0.0000E+00  0.0000E+00  0.0000E+00
    -33.517  0.0000E+00  0.0000E+00  0.0000E+00  0.0000E+00  0.0000E+00  0.0000E+00  0.0000E+00  0.0000E+00  0.0000E+00  0.0000E+00  0.0000E+00  0.0000E+00  0.0000E+00  0.0000E+00  0.0000E+00  0.0000E+00  0.0000E+00  0.0000E+00
    -33.373  0.0000E+00  0.0000E+00  0.0000E+00  0.0000E+00  0.0000E+00  0.0000E+00  0.0000E+00  0.0000E+00  0.0000E+00  0.0000E+00  0.0000E+00  0.0000E+00  0.0000E+00  0.0000E+00  0.0000E+00  0.0000E+00  0.0000E+00  0.0000E+00
    -33.229  0.0000E+00  0.0000E+00  0.0000E+00  0.0000E+00  0.0000E+00  0.0000E+00  0.0000E+00  0.0000E+00  0.0000E+00  0.0000E+00  0.0000E+00  0.0000E+00  0.0000E+00  0.0000E+00  0.0000E+00  0.0000E+00  0.0000E+00  0.0000E+00
    -33.085  0.0000E+00  0.0000E+00  0.0000E+00  0.0000E+00  0.0000E+00  0.0000E+00  0.0000E+00  0.0000E+00  0.0000E+00  0.0000E+00  0.0000E+00  0.0000E+00  0.0000E+00  0.0000E+00  0.0000E+00  0.0000E+00  0.0000E+00  0.0000E+00
    -32.942  0.1638E-03  0.1644E-03  0.1944E-10  0.1949E-10  0.2505E-11  0.2503E-11  0.1944E-10  0.1949E-10  0.4211E-15  0.5113E-15  0.2031E-14  0.2092E-14  0.1123E-09  0.1126E-09  0.2031E-14  0.2092E-14  0.1178E-10  0.1178E-10
    -32.798  0.2746E-02  0.2756E-02  0.3259E-09  0.3268E-09  0.4200E-10  0.4195E-10  0.3259E-09  0.3268E-09  0.7058E-14  0.8571E-14  0.3405E-13  0.3507E-13  0.1883E-08  0.1887E-08  0.3405E-13  0.3507E-13  0.1974E-09  0.1975E-09
    -32.654  0.4843E-01  0.4860E-01  0.5748E-08  0.5762E-08  0.7407E-09  0.7398E-09  0.5748E-08  0.5762E-08  0.1245E-12  0.1511E-12  0.6004E-12  0.6184E-12  0.3320E-07  0.3327E-07  0.6004E-12  0.6184E-12  0.3482E-08  0.3483E-08
    -32.510  0.7580E+00  0.7603E+00  0.8998E-07  0.9017E-07  0.1159E-07  0.1157E-07  0.8998E-07  0.9017E-07  0.1947E-11  0.2363E-11  0.9393E-11  0.9667E-11  0.5179E-06  0.5188E-06  0.9393E-11  0.9667E-11  0.5455E-07  0.5454E-07
    -32.366  0.3987E+01  0.3990E+01  0.4736E-06  0.4734E-06  0.6087E-07  0.6062E-07  0.4736E-06  0.4734E-06  0.1020E-10  0.1234E-10  0.4927E-10  0.5047E-10  0.2673E-05  0.2671E-05  0.4927E-10  0.5047E-10  0.2878E-06  0.2870E-06
    -32.222  0.1851E+01  0.1847E+01  0.2197E-06  0.2189E-06  0.2821E-07  0.2800E-07  0.2197E-06  0.2189E-06  0.4699E-11  0.5661E-11  0.2276E-10  0.2318E-10  0.1212E-05  0.1207E-05  0.2276E-10  0.2318E-10  0.1335E-06  0.1327E-06
    -32.078  0.1479E+00  0.1474E+00  0.1754E-07  0.1746E-07  0.2252E-08  0.2233E-08  0.1754E-07  0.1746E-07  0.3741E-12  0.4500E-12  0.1814E-11  0.1844E-11  0.9603E-07  0.9559E-07  0.1814E-11  0.1844E-11  0.1064E-07  0.1057E-07
    -31.934  0.0000E+00  0.0000E+00  0.0000E+00  0.0000E+00  0.0000E+00  0.0000E+00  0.0000E+00  0.0000E+00  0.0000E+00  0.0000E+00  0.0000E+00  0.0000E+00  0.0000E+00  0.0000E+00  0.0000E+00  0.0000E+00  0.0000E+00  0.0000E+00
    -31.791  0.0000E+00  0.0000E+00  0.0000E+00  0.0000E+00  0.0000E+00  0.0000E+00  0.0000E+00  0.0000E+00  0.0000E+00  0.0000E+00  0.0000E+00  0.0000E+00  0.0000E+00  0.0000E+00  0.0000E+00  0.0000E+00  0.0000E+00  0.0000E+00
    -31.647  0.0000E+00  0.0000E+00  0.0000E+00  0.0000E+00  0.0000E+00  0.0000E+00  0.0000E+00  0.0000E+00  0.0000E+00  0.0000E+00  0.0000E+00  0.0000E+00  0.0000E+00  0.0000E+00  0.0000E+00  0.0000E+00  0.0000E+00  0.0000E+00
    -31.503  0.0000E+00  0.0000E+00  0.0000E+00  0.0000E+00  0.0000E+00  0.0000E+00  0.0000E+00  0.0000E+00  0.0000E+00  0.0000E+00  0.0000E+00  0.0000E+00  0.0000E+00  0.0000E+00  0.0000E+00  0.0000E+00  0.0000E+00  0.0000E+00
    -31.359  0.0000E+00  0.0000E+00  0.0000E+00  0.0000E+00  0.0000E+00  0.0000E+00  0.0000E+00  0.0000E+00  0.0000E+00  0.0000E+00  0.0000E+00  0.0000E+00  0.0000E+00  0.0000E+00  0.0000E+00  0.0000E+00  0.0000E+00  0.0000E+00
    -31.215  0.0000E+00  0.0000E+00  0.0000E+00  0.0000E+00  0.0000E+00  0.0000E+00  0.0000E+00  0.0000E+00  0.0000E+00  0.0000E+00  0.0000E+00  0.0000E+00  0.0000E+00  0.0000E+00  0.0000E+00  0.0000E+00  0.0000E+00  0.0000E+00
    -31.071  0.0000E+00  0.0000E+00  0.0000E+00  0.0000E+00  0.0000E+00  0.0000E+00  0.0000E+00  0.0000E+00  0.0000E+00  0.0000E+00  0.0000E+00  0.0000E+00  0.0000E+00  0.0000E+00  0.0000E+00  0.0000E+00  0.0000E+00  0.0000E+00
    -30.927  0.0000E+00  0.0000E+00  0.0000E+00  0.0000E+00  0.0000E+00  0.0000E+00  0.0000E+00  0.0000E+00  0.0000E+00  0.0000E+00  0.0000E+00  0.0000E+00  0.0000E+00  0.0000E+00  0.0000E+00  0.0000E+00  0.0000E+00  0.0000E+00
    -30.783  0.0000E+00  0.0000E+00  0.0000E+00  0.0000E+00  0.0000E+00  0.0000E+00  0.0000E+00  0.0000E+00  0.0000E+00  0.0000E+00  0.0000E+00  0.0000E+00  0.0000E+00  0.0000E+00  0.0000E+00  0.0000E+00  0.0000E+00  0.0000E+00
    -30.640  0.0000E+00  0.0000E+00  0.0000E+00  0.0000E+00  0.0000E+00  0.0000E+00  0.0000E+00  0.0000E+00  0.0000E+00  0.0000E+00  0.0000E+00  0.0000E+00  0.0000E+00  0.0000E+00  0.0000E+00  0.0000E+00  0.0000E+00  0.0000E+00
    -30.496  0.0000E+00  0.0000E+00  0.0000E+00  0.0000E+00  0.0000E+00  0.0000E+00  0.0000E+00  0.0000E+00  0.0000E+00  0.0000E+00  0.0000E+00  0.0000E+00  0.0000E+00  0.0000E+00  0.0000E+00  0.0000E+00  0.0000E+00  0.0000E+00
    -30.352  0.0000E+00  0.0000E+00  0.0000E+00  0.0000E+00  0.0000E+00  0.0000E+00  0.0000E+00  0.0000E+00  0.0000E+00  0.0000E+00  0.0000E+00  0.0000E+00  0.0000E+00  0.0000E+00  0.0000E+00  0.0000E+00  0.0000E+00  0.0000E+00
    -30.208  0.0000E+00  0.0000E+00  0.0000E+00  0.0000E+00  0.0000E+00  0.0000E+00  0.0000E+00  0.0000E+00  0.0000E+00  0.0000E+00  0.0000E+00  0.0000E+00  0.0000E+00  0.0000E+00  0.0000E+00  0.0000E+00  0.0000E+00  0.0000E+00
    -30.064  0.0000E+00  0.0000E+00  0.0000E+00  0.0000E+00  0.0000E+00  0.0000E+00  0.0000E+00  0.0000E+00  0.0000E+00  0.0000E+00  0.0000E+00  0.0000E+00  0.0000E+00  0.0000E+00  0.0000E+00  0.0000E+00  0.0000E+00  0.0000E+00
    -29.920  0.0000E+00  0.0000E+00  0.0000E+00  0.0000E+00  0.0000E+00  0.0000E+00  0.0000E+00  0.0000E+00  0.0000E+00  0.0000E+00  0.0000E+00  0.0000E+00  0.0000E+00  0.0000E+00  0.0000E+00  0.0000E+00  0.0000E+00  0.0000E+00
    -29.776  0.0000E+00  0.0000E+00  0.0000E+00  0.0000E+00  0.0000E+00  0.0000E+00  0.0000E+00  0.0000E+00  0.0000E+00  0.0000E+00  0.0000E+00  0.0000E+00  0.0000E+00  0.0000E+00  0.0000E+00  0.0000E+00  0.0000E+00  0.0000E+00
    -29.632  0.0000E+00  0.0000E+00  0.0000E+00  0.0000E+00  0.0000E+00  0.0000E+00  0.0000E+00  0.0000E+00  0.0000E+00  0.0000E+00  0.0000E+00  0.0000E+00  0.0000E+00  0.0000E+00  0.0000E+00  0.0000E+00  0.0000E+00  0.0000E+00
    -29.489  0.0000E+00  0.0000E+00  0.0000E+00  0.0000E+00  0.0000E+00  0.0000E+00  0.0000E+00  0.0000E+00  0.0000E+00  0.0000E+00  0.0000E+00  0.0000E+00  0.0000E+00  0.0000E+00  0.0000E+00  0.0000E+00  0.0000E+00  0.0000E+00
    -29.345  0.0000E+00  0.0000E+00  0.0000E+00  0.0000E+00  0.0000E+00  0.0000E+00  0.0000E+00  0.0000E+00  0.0000E+00  0.0000E+00  0.0000E+00  0.0000E+00  0.0000E+00  0.0000E+00  0.0000E+00  0.0000E+00  0.0000E+00  0.0000E+00
    -29.201  0.0000E+00  0.0000E+00  0.0000E+00  0.0000E+00  0.0000E+00  0.0000E+00  0.0000E+00  0.0000E+00  0.0000E+00  0.0000E+00  0.0000E+00  0.0000E+00  0.0000E+00  0.0000E+00  0.0000E+00  0.0000E+00  0.0000E+00  0.0000E+00
    -29.057  0.0000E+00  0.0000E+00  0.0000E+00  0.0000E+00  0.0000E+00  0.0000E+00  0.0000E+00  0.0000E+00  0.0000E+00  0.0000E+00  0.0000E+00  0.0000E+00  0.0000E+00  0.0000E+00  0.0000E+00  0.0000E+00  0.0000E+00  0.0000E+00
    -28.913  0.0000E+00  0.0000E+00  0.0000E+00  0.0000E+00  0.0000E+00  0.0000E+00  0.0000E+00  0.0000E+00  0.0000E+00  0.0000E+00  0.0000E+00  0.0000E+00  0.0000E+00  0.0000E+00  0.0000E+00  0.0000E+00  0.0000E+00  0.0000E+00
    -28.769  0.0000E+00  0.0000E+00  0.0000E+00  0.0000E+00  0.0000E+00  0.0000E+00  0.0000E+00  0.0000E+00  0.0000E+00  0.0000E+00  0.0000E+00  0.0000E+00  0.0000E+00  0.0000E+00  0.0000E+00  0.0000E+00  0.0000E+00  0.0000E+00
    -28.625  0.0000E+00  0.0000E+00  0.0000E+00  0.0000E+00  0.0000E+00  0.0000E+00  0.0000E+00  0.0000E+00  0.0000E+00  0.0000E+00  0.0000E+00  0.0000E+00  0.0000E+00  0.0000E+00  0.0000E+00  0.0000E+00  0.0000E+00  0.0000E+00
    -28.481  0.0000E+00  0.0000E+00  0.0000E+00  0.0000E+00  0.0000E+00  0.0000E+00  0.0000E+00  0.0000E+00  0.0000E+00  0.0000E+00  0.0000E+00  0.0000E+00  0.0000E+00  0.0000E+00  0.0000E+00  0.0000E+00  0.0000E+00  0.0000E+00
    -28.338  0.0000E+00  0.0000E+00  0.0000E+00  0.0000E+00  0.0000E+00  0.0000E+00  0.0000E+00  0.0000E+00  0.0000E+00  0.0000E+00  0.0000E+00  0.0000E+00  0.0000E+00  0.0000E+00  0.0000E+00  0.0000E+00  0.0000E+00  0.0000E+00
    -28.194  0.0000E+00  0.0000E+00  0.0000E+00  0.0000E+00  0.0000E+00  0.0000E+00  0.0000E+00  0.0000E+00  0.0000E+00  0.0000E+00  0.0000E+00  0.0000E+00  0.0000E+00  0.0000E+00  0.0000E+00  0.0000E+00  0.0000E+00  0.0000E+00
    -28.050  0.0000E+00  0.0000E+00  0.0000E+00  0.0000E+00  0.0000E+00  0.0000E+00  0.0000E+00  0.0000E+00  0.0000E+00  0.0000E+00  0.0000E+00  0.0000E+00  0.0000E+00  0.0000E+00  0.0000E+00  0.0000E+00  0.0000E+00  0.0000E+00
    -27.906  0.0000E+00  0.0000E+00  0.0000E+00  0.0000E+00  0.0000E+00  0.0000E+00  0.0000E+00  0.0000E+00  0.0000E+00  0.0000E+00  0.0000E+00  0.0000E+00  0.0000E+00  0.0000E+00  0.0000E+00  0.0000E+00  0.0000E+00  0.0000E+00
    -27.762  0.0000E+00  0.0000E+00  0.0000E+00  0.0000E+00  0.0000E+00  0.0000E+00  0.0000E+00  0.0000E+00  0.0000E+00  0.0000E+00  0.0000E+00  0.0000E+00  0.0000E+00  0.0000E+00  0.0000E+00  0.0000E+00  0.0000E+00  0.0000E+00
    -27.618  0.0000E+00  0.0000E+00  0.0000E+00  0.0000E+00  0.0000E+00  0.0000E+00  0.0000E+00  0.0000E+00  0.0000E+00  0.0000E+00  0.0000E+00  0.0000E+00  0.0000E+00  0.0000E+00  0.0000E+00  0.0000E+00  0.0000E+00  0.0000E+00
    -27.474  0.0000E+00  0.0000E+00  0.0000E+00  0.0000E+00  0.0000E+00  0.0000E+00  0.0000E+00  0.0000E+00  0.0000E+00  0.0000E+00  0.0000E+00  0.0000E+00  0.0000E+00  0.0000E+00  0.0000E+00  0.0000E+00  0.0000E+00  0.0000E+00
    -27.330  0.0000E+00  0.0000E+00  0.0000E+00  0.0000E+00  0.0000E+00  0.0000E+00  0.0000E+00  0.0000E+00  0.0000E+00  0.0000E+00  0.0000E+00  0.0000E+00  0.0000E+00  0.0000E+00  0.0000E+00  0.0000E+00  0.0000E+00  0.0000E+00
    -27.187  0.0000E+00  0.0000E+00  0.0000E+00  0.0000E+00  0.0000E+00  0.0000E+00  0.0000E+00  0.0000E+00  0.0000E+00  0.0000E+00  0.0000E+00  0.0000E+00  0.0000E+00  0.0000E+00  0.0000E+00  0.0000E+00  0.0000E+00  0.0000E+00