  16  16   1   0
  0.2680733E+02  0.4011637E-09  0.4011637E-09  0.2665203E-08  0.5000000E-15
  1.000000000000000E-004
  CAR 
 unknown system                          
      9.26533040    -33.85264533  301      3.92110613      1.00000000
    -33.853  0.0000E+00  0.0000E+00  0.0000E+00  0.0000E+00
    -33.709  0.0000E+00  0.0000E+00  0.0000E+00  0.0000E+00
    -33.565  0.0000E+00  0.0000E+00  0.0000E+00  0.0000E+00
    -33.421  0.0000E+00  0.0000E+00  0.0000E+00  0.0000E+00
    -33.278  0.0000E+00  0.0000E+00  0.0000E+00  0.0000E+00
    -33.134  0.0000E+00  0.0000E+00  0.0000E+00  0.0000E+00
    -32.990  0.0000E+00  0.0000E+00  0.0000E+00  0.0000E+00
    -32.847  0.0000E+00  0.0000E+00  0.0000E+00  0.0000E+00
    -32.703  0.0000E+00  0.0000E+00  0.0000E+00  0.0000E+00
    -32.559  0.0000E+00  0.0000E+00  0.0000E+00  0.0000E+00
    -32.415  0.6316E-03  0.6335E-03  0.9077E-04  0.9106E-04
    -32.272  0.1077E-01  0.1080E-01  0.1639E-02  0.1644E-02
    -32.128  0.1892E+00  0.1898E+00  0.2883E-01  0.2892E-01
    -31.984  0.2968E+01  0.2976E+01  0.4554E+00  0.4566E+00
    -31.840  0.1612E+02  0.1613E+02  0.2773E+01  0.2776E+01
    -31.697  0.7857E+01  0.7841E+01  0.3902E+01  0.3902E+01
    -31.553  0.6412E+00  0.6392E+00  0.3994E+01  0.3994E+01
    -31.409  0.0000E+00  0.0000E+00  0.4000E+01  0.4000E+01
    -31.266  0.0000E+00  0.0000E+00  0.4000E+01  0.4000E+01
    -31.122  0.0000E+00  0.0000E+00  0.4000E+01  0.4000E+01
    -30.978  0.0000E+00  0.0000E+00  0.4000E+01  0.4000E+01
    -30.834  0.0000E+00  0.0000E+00  0.4000E+01  0.4000E+01
    -30.691  0.0000E+00  0.0000E+00  0.4000E+01  0.4000E+01
    -30.547  0.0000E+00  0.0000E+00  0.4000E+01  0.4000E+01
    -30.403  0.0000E+00  0.0000E+00  0.4000E+01  0.4000E+01
    -30.259  0.0000E+00  0.0000E+00  0.4000E+01  0.4000E+01
    -30.116  0.0000E+00  0.0000E+00  0.4000E+01  0.4000E+01
    -29.972  0.0000E+00  0.0000E+00  0.4000E+01  0.4000E+01
    -29.828  0.0000E+00  0.0000E+00  0.4000E+01  0.4000E+01
    -29.685  0.0000E+00  0.0000E+00  0.4000E+01  0.4000E+01
    -29.541  0.0000E+00  0.0000E+00  0.4000E+01  0.4000E+01
    -29.397  0.0000E+00  0.0000E+00  0.4000E+01  0.4000E+01
    -29.253  0.0000E+00  0.0000E+00  0.4000E+01  0.4000E+01
    -29.110  0.0000E+00  0.0000E+00  0.4000E+01  0.4000E+01
    -28.966  0.0000E+00  0.0000E+00  0.4000E+01  0.4000E+01
    -28.822  0.0000E+00  0.0000E+00  0.4000E+01  0.4000E+01
    -28.678  0.0000E+00  0.0000E+00  0.4000E+01  0.4000E+01
    -28.535  0.0000E+00  0.0000E+00  0.4000E+01  0.4000E+01
    -28.391  0.0000E+00  0.0000E+00  0.4000E+01  0.4000E+01
    -28.247  0.0000E+00  0.0000E+00  0.4000E+01  0.4000E+01
    -28.104  0.0000E+00  0.0000E+00  0.4000E+01  0.4000E+01
    -27.960  0.0000E+00  0.0000E+00  0.4000E+01  0.4000E+01
    -27.816  0.0000E+00  0.0000E+00  0.4000E+01  0.4000E+01
    -27.672  0.0000E+00  0.0000E+00  0.4000E+01  0.4000E+01
    -27.529  0.0000E+00  0.0000E+00  0.4000E+01  0.4000E+01
    -27.385  0.0000E+00  0.0000E+00  0.4000E+01  0.4000E+01
    -27.241  0.0000E+00  0.0000E+00  0.4000E+01  0.4000E+01
    -27.097  0.0000E+00  0.0000E+00  0.4000E+01  0.4000E+01
    -26.954  0.0000E+00  0.0000E+00  0.4000E+01  0.4000E+01
    -26.810  0.0000E+00  0.0000E+00  0.4000E+01  0.4000E+01
    -26.666  0.0000E+00  0.0000E+00  0.4000E+01  0.4000E+01
    -26.523  0.0000E+00  0.0000E+00  0.4000E+01  0.4000E+01
    -26.379  0.0000E+00  0.0000E+00  0.4000E+01  0.4000E+01
    -26.235  0.0000E+00  0.0000E+00  0.4000E+01  0.4000E+01
    -26.091  0.0000E+00  0.0000E+00  0.4000E+01  0.4000E+01
    -25.948  0.0000E+00  0.0000E+00  0.4000E+01  0.4000E+01
    -25.804  0.0000E+00  0.0000E+00  0.4000E+01  0.4000E+01
    -25.660  0.0000E+00  0.0000E+00  0.4000E+01  0.4000E+01
    -25.517  0.0000E+00  0.0000E+00  0.4000E+01  0.4000E+01
    -25.373  0.0000E+00  0.0000E+00  0.4000E+01  0.4000E+01
    -25.229  0.0000E+00  0.0000E+00  0.4000E+01  0.4000E+01
    -25.085  0.0000E+00  0.0000E+00  0.4000E+01  0.4000E+01
    -24.942  0.0000E+00  0.0000E+00  0.4000E+01  0.4000E+01
    -24.798  0.0000E+00  0.0000E+00  0.4000E+01  0.4000E+01
    -24.654  0.0000E+00  0.0000E+00  0.4000E+01  0.4000E+01
    -24.510  0.0000E+00  0.0000E+00  0.4000E+01  0.4000E+01
    -24.367  0.0000E+00  0.0000E+00  0.4000E+01  0.4000E+01
    -24.223  0.0000E+00  0.0000E+00  0.4000E+01  0.4000E+01
    -24.079  0.0000E+00  0.0000E+00  0.4000E+01  0.4000E+01
    -23.936  0.0000E+00  0.0000E+00  0.4000E+01  0.4000E+01
    -23.792  0.0000E+00  0.0000E+00  0.4000E+01  0.4000E+01
    -23.648  0.0000E+00  0.0000E+00  0.4000E+01  0.4000E+01
    -23.504  0.0000E+00  0.0000E+00  0.4000E+01  0.4000E+01
    -23.361  0.0000E+00  0.0000E+00  0.4000E+01  0.4000E+01
    -23.217  0.0000E+00  0.0000E+00  0.4000E+01  0.4000E+01
    -23.073  0.0000E+00  0.0000E+00  0.4000E+01  0.4000E+01
    -22.929  0.0000E+00  0.0000E+00  0.4000E+01  0.4000E+01
    -22.786  0.0000E+00  0.0000E+00  0.4000E+01  0.4000E+01
    -22.642  0.0000E+00  0.0000E+00  0.4000E+01  0.4000E+01
    -22.498  0.0000E+00  0.0000E+00  0.4000E+01  0.4000E+01
    -22.355  0.0000E+00  0.0000E+00  0.4000E+01  0.4000E+01
    -22.211  0.0000E+00  0.0000E+00  0.4000E+01  0.4000E+01
    -22.067  0.0000E+00  0.0000E+00  0.4000E+01  0.4000E+01
    -21.923  0.0000E+00  0.0000E+00  0.4000E+01  0.4000E+01
    -21.780  0.0000E+00  0.0000E+00  0.4000E+01  0.4000E+01
    -21.636  0.0000E+00  0.0000E+00  0.4000E+01  0.4000E+01
    -21.492  0.0000E+00  0.0000E+00  0.4000E+01  0.4000E+01
    -21.348  0.0000E+00  0.0000E+00  0.4000E+01  0.4000E+01
    -21.205  0.0000E+00  0.0000E+00  0.4000E+01  0.4000E+01
    -21.061  0.0000E+00  0.0000E+00  0.4000E+01  0.4000E+01
    -20.917  0.0000E+00  0.0000E+00  0.4000E+01  0.4000E+01
    -20.774  0.0000E+00  0.0000E+00  0.4000E+01  0.4000E+01
    -20.630  0.0000E+00  0.0000E+00  0.4000E+01  0.4000E+01
    -20.486  0.0000E+00  0.0000E+00  0.4000E+01  0.4000E+01
    -20.342  0.0000E+00  0.0000E+00  0.4000E+01  0.4000E+01
    -20.199  0.0000E+00  0.0000E+00  0.4000E+01  0.4000E+01
    -20.055  0.0000E+00  0.0000E+00  0.4000E+01  0.4000E+01
    -19.911  0.0000E+00  0.0000E+00  0.4000E+01  0.4000E+01
    -19.767  0.0000E+00  0.0000E+00  0.4000E+01  0.4000E+01
    -19.624  0.0000E+00  0.0000E+00  0.4000E+01  0.4000E+01
    -19.480  0.0000E+00  0.0000E+00  0.4000E+01  0.4000E+01
    -19.336  0.0000E+00  0.0000E+00  0.4000E+01  0.4000E+01
    -19.193  0.0000E+00  0.0000E+00  0.4000E+01  0.4000E+01
    -19.049  0.0000E+00  0.0000E+00  0.4000E+01  0.4000E+01
    -18.905  0.0000E+00  0.0000E+00  0.4000E+01  0.4000E+01
    -18.761  0.0000E+00  0.0000E+00  0.4000E+01  0.4000E+01
    -18.618  0.0000E+00  0.0000E+00  0.4000E+01  0.4000E+01
    -18.474  0.0000E+00  0.0000E+00  0.4000E+01  0.4000E+01
    -18.330  0.0000E+00  0.0000E+00  0.4000E+01  0.4000E+01
    -18.186  0.0000E+00  0.0000E+00  0.4000E+01  0.4000E+01
    -18.043  0.0000E+00  0.0000E+00  0.4000E+01  0.4000E+01
    -17.899  0.0000E+00  0.0000E+00  0.4000E+01  0.4000E+01
    -17.755  0.0000E+00  0.0000E+00  0.4000E+01  0.4000E+01
    -17.612  0.0000E+00  0.0000E+00  0.4000E+01  0.4000E+01
    -17.468  0.0000E+00  0.0000E+00  0.4000E+01  0.4000E+01
    -17.324  0.0000E+00  0.0000E+00  0.4000E+01  0.4000E+01
    -17.180  0.0000E+00  0.0000E+00  0.4000E+01  0.4000E+01
    -17.037  0.0000E+00  0.0000E+00  0.4000E+01  0.4000E+01
    -16.893  0.0000E+00  0.0000E+00  0.4000E+01  0.4000E+01
    -16.749  0.0000E+00  0.0000E+00  0.4000E+01  0.4000E+01
    -16.605  0.0000E+00  0.0000E+00  0.4000E+01  0.4000E+01
    -16.462  0.0000E+00  0.0000E+00  0.4000E+01  0.4000E+01
    -16.318  0.0000E+00  0.0000E+00  0.4000E+01  0.4000E+01
    -16.174  0.0000E+00  0.0000E+00  0.4000E+01  0.4000E+01
    -16.031  0.0000E+00  0.0000E+00  0.4000E+01  0.4000E+01
    -15.887  0.0000E+00  0.0000E+00  0.4000E+01  0.4000E+01
    -15.743  0.0000E+00  0.0000E+00  0.4000E+01  0.4000E+01
    -15.599  0.0000E+00  0.0000E+00  0.4000E+01  0.4000E+01
    -15.456  0.0000E+00  0.0000E+00  0.4000E+01  0.4000E+01
    -15.312  0.0000E+00  0.0000E+00  0.4000E+01  0.4000E+01
    -15.168  0.0000E+00  0.0000E+00  0.4000E+01  0.4000E+01
    -15.024  0.0000E+00  0.0000E+00  0.4000E+01  0.4000E+01
    -14.881  0.0000E+00  0.0000E+00  0.4000E+01  0.4000E+01
    -14.737  0.0000E+00  0.0000E+00  0.4000E+01  0.4000E+01
    -14.593  0.0000E+00  0.0000E+00  0.4000E+01  0.4000E+01
    -14.450  0.3765E-02  0.3768E-02  0.4001E+01  0.4001E+01
    -14.306  0.7107E-01  0.7112E-01  0.4011E+01  0.4011E+01
    -14.162  0.1196E+01  0.1197E+01  0.4183E+01  0.4183E+01
    -14.018  0.1263E+02  0.1263E+02  0.5998E+01  0.5999E+01
    -13.875  0.3796E+02  0.3796E+02  0.1145E+02  0.1146E+02
    -13.731  0.2788E+02  0.2787E+02  0.1546E+02  0.1546E+02
    -13.587  0.3469E+01  0.3466E+01  0.1597E+02  0.1597E+02
    -13.443  0.6996E-01  0.6992E-01  0.1600E+02  0.1600E+02
    -13.300  0.0000E+00  0.0000E+00  0.1600E+02  0.1600E+02
    -13.156  0.0000E+00  0.0000E+00  0.1600E+02  0.1600E+02
    -13.012  0.0000E+00  0.0000E+00  0.1600E+02  0.1600E+02
    -12.869  0.0000E+00  0.0000E+00  0.1600E+02  0.1600E+02
    -12.725  0.0000E+00  0.0000E+00  0.1600E+02  0.1600E+02
    -12.581  0.0000E+00  0.0000E+00  0.1600E+02  0.1600E+02
    -12.437  0.0000E+00  0.0000E+00  0.1600E+02  0.1600E+02
    -12.294  0.0000E+00  0.0000E+00  0.1600E+02  0.1600E+02
    -12.150  0.0000E+00  0.0000E+00  0.1600E+02  0.1600E+02
    -12.006  0.0000E+00  0.0000E+00  0.1600E+02  0.1600E+02
    -11.862  0.0000E+00  0.0000E+00  0.1600E+02  0.1600E+02
    -11.719  0.0000E+00  0.0000E+00  0.1600E+02  0.1600E+02
    -11.575  0.0000E+00  0.0000E+00  0.1600E+02  0.1600E+02
    -11.431  0.0000E+00  0.0000E+00  0.1600E+02  0.1600E+02
    -11.288  0.0000E+00  0.0000E+00  0.1600E+02  0.1600E+02
    -11.144  0.0000E+00  0.0000E+00  0.1600E+02  0.1600E+02
    -11.000  0.0000E+00  0.0000E+00  0.1600E+02  0.1600E+02
    -10.856  0.0000E+00  0.0000E+00  0.1600E+02  0.1600E+02
    -10.713  0.0000E+00  0.0000E+00  0.1600E+02  0.1600E+02
    -10.569  0.0000E+00  0.0000E+00  0.1600E+02  0.1600E+02
    -10.425  0.0000E+00  0.0000E+00  0.1600E+02  0.1600E+02
    -10.281  0.0000E+00  0.0000E+00  0.1600E+02  0.1600E+02
    -10.138  0.0000E+00  0.0000E+00  0.1600E+02  0.1600E+02
     -9.994  0.0000E+00  0.0000E+00  0.1600E+02  0.1600E+02
     -9.850  0.0000E+00  0.0000E+00  0.1600E+02  0.1600E+02
     -9.707  0.0000E+00  0.0000E+00  0.1600E+02  0.1600E+02
     -9.563  0.0000E+00  0.0000E+00  0.1600E+02  0.1600E+02
     -9.419  0.0000E+00  0.0000E+00  0.1600E+02  0.1600E+02
     -9.275  0.0000E+00  0.0000E+00  0.1600E+02  0.1600E+02
     -9.132  0.0000E+00  0.0000E+00  0.1600E+02  0.1600E+02
     -8.988  0.0000E+00  0.0000E+00  0.1600E+02  0.1600E+02
     -8.844  0.0000E+00  0.0000E+00  0.1600E+02  0.1600E+02
     -8.700  0.0000E+00  0.0000E+00  0.1600E+02  0.1600E+02
     -8.557  0.0000E+00  0.0000E+00  0.1600E+02  0.1600E+02
     -8.413  0.0000E+00  0.0000E+00  0.1600E+02  0.1600E+02
     -8.269  0.0000E+00  0.0000E+00  0.1600E+02  0.1600E+02
     -8.126  0.0000E+00  0.0000E+00  0.1600E+02  0.1600E+02
     -7.982  0.0000E+00  0.0000E+00  0.1600E+02  0.1600E+02
     -7.838  0.0000E+00  0.0000E+00  0.1600E+02  0.1600E+02
     -7.694  0.0000E+00  0.0000E+00  0.1600E+02  0.1600E+02
     -7.551  0.0000E+00  0.0000E+00  0.1600E+02  0.1600E+02
     -7.407  0.0000E+00  0.0000E+00  0.1600E+02  0.1600E+02
     -7.263  0.0000E+00  0.0000E+00  0.1600E+02  0.1600E+02
     -7.120  0.0000E+00  0.0000E+00  0.1600E+02  0.1600E+02
     -6.976  0.0000E+00  0.0000E+00  0.1600E+02  0.1600E+02
     -6.832  0.0000E+00  0.0000E+00  0.1600E+02  0.1600E+02
     -6.688  0.0000E+00  0.0000E+00  0.1600E+02  0.1600E+02
     -6.545  0.0000E+00  0.0000E+00  0.1600E+02  0.1600E+02
     -6.401  0.0000E+00  0.0000E+00  0.1600E+02  0.1600E+02
     -6.257  0.0000E+00  0.0000E+00  0.1600E+02  0.1600E+02
     -6.113  0.0000E+00  0.0000E+00  0.1600E+02  0.1600E+02
     -5.970  0.0000E+00  0.0000E+00  0.1600E+02  0.1600E+02
     -5.826  0.0000E+00  0.0000E+00  0.1600E+02  0.1600E+02
     -5.682  0.1211E-04  0.1228E-04  0.1600E+02  0.1600E+02
     -5.539  0.2460E-03  0.2495E-03  0.1600E+02  0.1600E+02
     -5.395  0.4433E-02  0.4495E-02  0.1600E+02  0.1600E+02
     -5.251  0.6739E-01  0.6821E-01  0.1601E+02  0.1601E+02
     -5.107  0.4103E+00  0.4124E+00  0.1607E+02  0.1607E+02
     -4.964  0.6790E+00  0.6800E+00  0.1617E+02  0.1617E+02
     -4.820  0.6737E+00  0.6728E+00  0.1626E+02  0.1626E+02
     -4.676  0.7715E+00  0.7727E+00  0.1637E+02  0.1638E+02
     -4.532  0.6910E+00  0.6901E+00  0.1647E+02  0.1648E+02
     -4.389  0.6263E+00  0.6266E+00  0.1656E+02  0.1657E+02
     -4.245  0.8808E+00  0.8816E+00  0.1669E+02  0.1669E+02
     -4.101  0.7008E+00  0.6990E+00  0.1679E+02  0.1679E+02
     -3.958  0.4714E+00  0.4728E+00  0.1686E+02  0.1686E+02
     -3.814  0.1053E+01  0.1054E+01  0.1701E+02  0.1701E+02
     -3.670  0.7401E+00  0.7379E+00  0.1712E+02  0.1712E+02
     -3.526  0.7661E+00  0.7627E+00  0.1723E+02  0.1723E+02
     -3.383  0.1379E+01  0.1379E+01  0.1743E+02  0.1743E+02
     -3.239  0.1583E+01  0.1582E+01  0.1766E+02  0.1765E+02
     -3.095  0.1484E+01  0.1483E+01  0.1787E+02  0.1787E+02
     -2.951  0.1416E+01  0.1416E+01  0.1807E+02  0.1807E+02
     -2.808  0.1210E+01  0.1210E+01  0.1825E+02  0.1825E+02
     -2.664  0.1586E+01  0.1585E+01  0.1848E+02  0.1848E+02
     -2.520  0.2005E+01  0.2007E+01  0.1876E+02  0.1876E+02
     -2.377  0.1121E+01  0.1121E+01  0.1893E+02  0.1893E+02
     -2.233  0.1432E+01  0.1428E+01  0.1913E+02  0.1913E+02
     -2.089  0.2642E+01  0.2650E+01  0.1951E+02  0.1951E+02
     -1.945  0.2824E+01  0.2826E+01  0.1992E+02  0.1992E+02
     -1.802  0.2750E+01  0.2747E+01  0.2031E+02  0.2031E+02
     -1.658  0.2783E+01  0.2781E+01  0.2071E+02  0.2071E+02
     -1.514  0.2353E+01  0.2352E+01  0.2105E+02  0.2105E+02
     -1.370  0.2200E+01  0.2200E+01  0.2137E+02  0.2137E+02
     -1.227  0.1192E+01  0.1191E+01  0.2154E+02  0.2154E+02
     -1.083  0.1015E+01  0.1016E+01  0.2169E+02  0.2169E+02
     -0.939  0.1056E+01  0.1047E+01  0.2184E+02  0.2184E+02
     -0.796  0.1292E+01  0.1295E+01  0.2203E+02  0.2203E+02
     -0.652  0.8093E+00  0.8149E+00  0.2214E+02  0.2214E+02
     -0.508  0.8917E+00  0.8905E+00  0.2227E+02  0.2227E+02
     -0.364  0.1877E+01  0.1884E+01  0.2254E+02  0.2254E+02
     -0.221  0.3188E+01  0.3188E+01  0.2300E+02  0.2300E+02
     -0.077  0.3437E+01  0.3436E+01  0.2350E+02  0.2350E+02
      0.067  0.2532E+01  0.2529E+01  0.2386E+02  0.2386E+02
      0.211  0.2527E+01  0.2523E+01  0.2422E+02  0.2422E+02
      0.354  0.2491E+01  0.2498E+01  0.2458E+02  0.2458E+02
      0.498  0.2967E+01  0.2965E+01  0.2501E+02  0.2501E+02
      0.642  0.3103E+01  0.3098E+01  0.2546E+02  0.2546E+02
      0.785  0.2844E+01  0.2845E+01  0.2587E+02  0.2587E+02
      0.929  0.2489E+01  0.2493E+01  0.2623E+02  0.2623E+02
      1.073  0.3449E+01  0.3451E+01  0.2672E+02  0.2672E+02
      1.217  0.3604E+01  0.3606E+01  0.2724E+02  0.2724E+02
      1.360  0.2884E+01  0.2882E+01  0.2766E+02  0.2766E+02
      1.504  0.2238E+01  0.2232E+01  0.2798E+02  0.2798E+02
      1.648  0.2658E+01  0.2651E+01  0.2836E+02  0.2836E+02
      1.792  0.2752E+01  0.2754E+01  0.2876E+02  0.2876E+02
      1.935  0.2650E+01  0.2653E+01  0.2914E+02  0.2914E+02
      2.079  0.3708E+01  0.3708E+01  0.2967E+02  0.2967E+02
      2.223  0.3781E+01  0.3782E+01  0.3022E+02  0.3022E+02
      2.366  0.4334E+01  0.4333E+01  0.3084E+02  0.3084E+02
      2.510  0.5585E+01  0.5580E+01  0.3164E+02  0.3164E+02
      2.654  0.5255E+01  0.5259E+01  0.3240E+02  0.3240E+02
      2.798  0.3809E+01  0.3807E+01  0.3295E+02  0.3295E+02
      2.941  0.4584E+01  0.4582E+01  0.3361E+02  0.3361E+02
      3.085  0.5077E+01  0.5080E+01  0.3434E+02  0.3434E+02
      3.229  0.4821E+01  0.4816E+01  0.3503E+02  0.3503E+02
      3.373  0.4934E+01  0.4932E+01  0.3575E+02  0.3574E+02
      3.516  0.5292E+01  0.5293E+01  0.3651E+02  0.3651E+02
      3.660  0.4248E+01  0.4252E+01  0.3712E+02  0.3712E+02
      3.804  0.3400E+01  0.3397E+01  0.3761E+02  0.3761E+02
      3.947  0.3419E+01  0.3416E+01  0.3810E+02  0.3810E+02
      4.091  0.3740E+01  0.3741E+01  0.3864E+02  0.3864E+02
      4.235  0.3146E+01  0.3147E+01  0.3909E+02  0.3909E+02
      4.379  0.3440E+01  0.3438E+01  0.3959E+02  0.3959E+02
      4.522  0.4479E+01  0.4484E+01  0.4023E+02  0.4023E+02
      4.666  0.3909E+01  0.3909E+01  0.4080E+02  0.4079E+02
      4.810  0.3661E+01  0.3662E+01  0.4132E+02  0.4132E+02
      4.954  0.4884E+01  0.4887E+01  0.4203E+02  0.4203E+02
      5.097  0.6047E+01  0.6052E+01  0.4290E+02  0.4290E+02
      5.241  0.6786E+01  0.6788E+01  0.4387E+02  0.4387E+02
      5.385  0.6081E+01  0.6076E+01  0.4475E+02  0.4475E+02
      5.528  0.6376E+01  0.6374E+01  0.4567E+02  0.4567E+02
      5.672  0.6747E+01  0.6754E+01  0.4664E+02  0.4664E+02
      5.816  0.6064E+01  0.6065E+01  0.4751E+02  0.4751E+02
      5.960  0.4805E+01  0.4796E+01  0.4820E+02  0.4820E+02
      6.103  0.5190E+01  0.5187E+01  0.4895E+02  0.4895E+02
      6.247  0.4666E+01  0.4689E+01  0.4962E+02  0.4963E+02
      6.391  0.4434E+01  0.4424E+01  0.5026E+02  0.5026E+02
      6.535  0.3706E+01  0.3586E+01  0.5080E+02  0.5078E+02
      6.678  0.2166E+01  0.2072E+01  0.5111E+02  0.5108E+02
      6.822  0.1727E+01  0.1829E+01  0.5136E+02  0.5134E+02
      6.966  0.2051E+01  0.2040E+01  0.5166E+02  0.5164E+02
      7.109  0.1450E+01  0.1613E+01  0.5186E+02  0.5187E+02
      7.253  0.6879E+00  0.7218E+00  0.5196E+02  0.5197E+02
      7.397  0.2175E+00  0.1569E+00  0.5200E+02  0.5200E+02
      7.541  0.2813E-01  0.1333E-01  0.5200E+02  0.5200E+02
      7.684  0.1377E-02  0.4425E-03  0.5200E+02  0.5200E+02
      7.828  0.0000E+00  0.0000E+00  0.5200E+02  0.5200E+02
      7.972  0.0000E+00  0.0000E+00  0.5200E+02  0.5200E+02
      8.116  0.0000E+00  0.0000E+00  0.5200E+02  0.5200E+02
      8.259  0.0000E+00  0.0000E+00  0.5200E+02  0.5200E+02
      8.403  0.0000E+00  0.0000E+00  0.5200E+02  0.5200E+02
      8.547  0.0000E+00  0.0000E+00  0.5200E+02  0.5200E+02
      8.690  0.0000E+00  0.0000E+00  0.5200E+02  0.5200E+02
      8.834  0.0000E+00  0.0000E+00  0.5200E+02  0.5200E+02
      8.978  0.0000E+00  0.0000E+00  0.5200E+02  0.5200E+02
      9.122  0.0000E+00  0.0000E+00  0.5200E+02  0.5200E+02
      9.265  0.0000E+00  0.0000E+00  0.5200E+02  0.5200E+02
      9.26533040    -33.85264533  301      3.92110613      1.00000000
    -33.853  0.0000E+00  0.0000E+00  0.0000E+00  0.0000E+00  0.0000E+00  0.0000E+00  0.0000E+00  0.0000E+00  0.0000E+00  0.0000E+00  0.0000E+00  0.0000E+00  0.0000E+00  0.0000E+00  0.0000E+00  0.0000E+00  0.0000E+00  0.0000E+00
    -33.709  0.0000E+00  0.0000E+00  0.0000E+00  0.0000E+00  0.0000E+00  0.0000E+00  0.0000E+00  0.0000E+00  0.0000E+00  0.0000E+00  0.0000E+00  0.0000E+00  0.0000E+00  0.0000E+00  0.0000E+00  0.0000E+00  0.0000E+00  0.0000E+00
    -33.565  0.0000E+00  0.0000E+00  0.0000E+00  0.0000E+00  0.0000E+00  0.0000E+00  0.0000E+00  0.0000E+00  0.0000E+00  0.0000E+00  0.0000E+00  0.0000E+00  0.0000E+00  0.0000E+00  0.0000E+00  0.0000E+00  0.0000E+00  0.0000E+00
    -33.421  0.0000E+00  0.0000E+00  0.0000E+00  0.0000E+00  0.0000E+00  0.0000E+00  0.0000E+00  0.0000E+00  0.0000E+00  0.0000E+00  0.0000E+00  0.0000E+00  0.0000E+00  0.0000E+00  0.0000E+00  0.0000E+00  0.0000E+00  0.0000E+00
    -33.278  0.0000E+00  0.0000E+00  0.0000E+00  0.0000E+00  0.0000E+00  0.0000E+00  0.0000E+00  0.0000E+00  0.0000E+00  0.0000E+00  0.0000E+00  0.0000E+00  0.0000E+00  0.0000E+00  0.0000E+00  0.0000E+00  0.0000E+00  0.0000E+00
    -33.134  0.0000E+00  0.0000E+00  0.0000E+00  0.0000E+00  0.0000E+00  0.0000E+00  0.0000E+00  0.0000E+00  0.0000E+00  0.0000E+00  0.0000E+00  0.0000E+00  0.0000E+00  0.0000E+00  0.0000E+00  0.0000E+00  0.0000E+00  0.0000E+00
    -32.990  0.0000E+00  0.0000E+00  0.0000E+00  0.0000E+00  0.0000E+00  0.0000E+00  0.0000E+00  0.0000E+00  0.0000E+00  0.0000E+00  0.0000E+00  0.0000E+00  0.0000E+00  0.0000E+00  0.0000E+00  0.0000E+00  0.0000E+00  0.0000E+00
    -32.847  0.0000E+00  0.0000E+00  0.0000E+00  0.0000E+00  0.0000E+00  0.0000E+00  0.0000E+00  0.0000E+00  0.0000E+00  0.0000E+00  0.0000E+00  0.0000E+00  0.0000E+00  0.0000E+00  0.0000E+00  0.0000E+00  0.0000E+00  0.0000E+00
    -32.703  0.0000E+00  0.0000E+00  0.0000E+00  0.0000E+00  0.0000E+00  0.0000E+00  0.0000E+00  0.0000E+00  0.0000E+00  0.0000E+00  0.0000E+00  0.0000E+00  0.0000E+00  0.0000E+00  0.0000E+00  0.0000E+00  0.0000E+00  0.0000E+00
    -32.559  0.0000E+00  0.0000E+00  0.0000E+00  0.0000E+00  0.0000E+00  0.0000E+00  0.0000E+00  0.0000E+00  0.0000E+00  0.0000E+00  0.0000E+00  0.0000E+00  0.0000E+00  0.0000E+00  0.0000E+00  0.0000E+00  0.0000E+00  0.0000E+00
    -32.415  0.1545E-03  0.1550E-03  0.3251E-10  0.3257E-10  0.5716E-11  0.5897E-11  0.3251E-10  0.3257E-10  0.5018E-15  0.7247E-15  0.4008E-14  0.4090E-14  0.1167E-09  0.1169E-09  0.4008E-14  0.4090E-14  0.1948E-10  0.1950E-10
    -32.272  0.2635E-02  0.2644E-02  0.5444E-09  0.5454E-09  0.9728E-10  0.1004E-09  0.5444E-09  0.5454E-09  0.8391E-14  0.1214E-13  0.6711E-13  0.6848E-13  0.1965E-08  0.1968E-08  0.6711E-13  0.6848E-13  0.3256E-09  0.3259E-09
    -32.128  0.4630E-01  0.4644E-01  0.9575E-08  0.9592E-08  0.1709E-08  0.1763E-08  0.9575E-08  0.9592E-08  0.1476E-12  0.2135E-12  0.1180E-11  0.1204E-11  0.3454E-07  0.3459E-07  0.1180E-11  0.1204E-11  0.5727E-08  0.5733E-08
    -31.984  0.7262E+00  0.7282E+00  0.1502E-06  0.1505E-06  0.2679E-07  0.2763E-07  0.1502E-06  0.1505E-06  0.2319E-11  0.3353E-11  0.1851E-10  0.1887E-10  0.5390E-06  0.5396E-06  0.1851E-10  0.1887E-10  0.8997E-07  0.9003E-07
    -31.840  0.3946E+01  0.3948E+01  0.8171E-06  0.8165E-06  0.1450E-06  0.1492E-06  0.8171E-06  0.8165E-06  0.1269E-10  0.1832E-10  0.1003E-09  0.1017E-09  0.2840E-05  0.2837E-05  0.1003E-09  0.1017E-09  0.4912E-06  0.4905E-06
    -31.697  0.1923E+01  0.1919E+01  0.3976E-06  0.3962E-06  0.7031E-07  0.7214E-07  0.3976E-06  0.3962E-06  0.6207E-11  0.8946E-11  0.4858E-10  0.4898E-10  0.1331E-05  0.1326E-05  0.4858E-10  0.4898E-10  0.2390E-06  0.2380E-06
    -31.553  0.1569E+00  0.1564E+00  0.3240E-07  0.3226E-07  0.5728E-08  0.5871E-08  0.3240E-07  0.3226E-07  0.5065E-12  0.7295E-12  0.3953E-11  0.3976E-11  0.1071E-06  0.1066E-06  0.3953E-11  0.3976E-11  0.1944E-07  0.1934E-07
    -31.409  0.0000E+00  0.0000E+00  0.0000E+00  0.0000E+00  0.0000E+00  0.0000E+00  0.0000E+00  0.0000E+00  0.0000E+00  0.0000E+00  0.0000E+00  0.0000E+00  0.0000E+00  0.0000E+00  0.0000E+00  0.0000E+00  0.0000E+00  0.0000E+00
    -31.266  0.0000E+00  0.0000E+00  0.0000E+00  0.0000E+00  0.0000E+00  0.0000E+00  0.0000E+00  0.0000E+00  0.0000E+00  0.0000E+00  0.0000E+00  0.0000E+00  0.0000E+00  0.0000E+00  0.0000E+00  0.0000E+00  0.0000E+00  0.0000E+00
    -31.122  0.0000E+00  0.0000E+00  0.0000E+00  0.0000E+00  0.0000E+00  0.0000E+00  0.0000E+00  0.0000E+00  0.0000E+00  0.0000E+00  0.0000E+00  0.0000E+00  0.0000E+00  0.0000E+00  0.0000E+00  0.0000E+00  0.0000E+00  0.0000E+00
    -30.978  0.0000E+00  0.0000E+00  0.0000E+00  0.0000E+00  0.0000E+00  0.0000E+00  0.0000E+00  0.0000E+00  0.0000E+00  0.0000E+00  0.0000E+00  0.0000E+00  0.0000E+00  0.0000E+00  0.0000E+00  0.0000E+00  0.0000E+00  0.0000E+00
    -30.834  0.0000E+00  0.0000E+00  0.0000E+00  0.0000E+00  0.0000E+00  0.0000E+00  0.0000E+00  0.0000E+00  0.0000E+00  0.0000E+00  0.0000E+00  0.0000E+00  0.0000E+00  0.0000E+00  0.0000E+00  0.0000E+00  0.0000E+00  0.0000E+00
    -30.691  0.0000E+00  0.0000E+00  0.0000E+00  0.0000E+00  0.0000E+00  0.0000E+00  0.0000E+00  0.0000E+00  0.0000E+00  0.0000E+00  0.0000E+00  0.0000E+00  0.0000E+00  0.0000E+00  0.0000E+00  0.0000E+00  0.0000E+00  0.0000E+00
    -30.547  0.0000E+00  0.0000E+00  0.0000E+00  0.0000E+00  0.0000E+00  0.0000E+00  0.0000E+00  0.0000E+00  0.0000E+00  0.0000E+00  0.0000E+00  0.0000E+00  0.0000E+00  0.0000E+00  0.0000E+00  0.0000E+00  0.0000E+00  0.0000E+00
    -30.403  0.0000E+00  0.0000E+00  0.0000E+00  0.0000E+00  0.0000E+00  0.0000E+00  0.0000E+00  0.0000E+00  0.0000E+00  0.0000E+00  0.0000E+00  0.0000E+00  0.0000E+00  0.0000E+00  0.0000E+00  0.0000E+00  0.0000E+00  0.0000E+00
    -30.259  0.0000E+00  0.0000E+00  0.0000E+00  0.0000E+00  0.0000E+00  0.0000E+00  0.0000E+00  0.0000E+00  0.0000E+00  0.0000E+00  0.0000E+00  0.0000E+00  0.0000E+00  0.0000E+00  0.0000E+00  0.0000E+00  0.0000E+00  0.0000E+00
    -30.116  0.0000E+00  0.0000E+00  0.0000E+00  0.0000E+00  0.0000E+00  0.0000E+00  0.0000E+00  0.0000E+00  0.0000E+00  0.0000E+00  0.0000E+00  0.0000E+00  0.0000E+00  0.0000E+00  0.0000E+00  0.0000E+00  0.0000E+00  0.0000E+00
    -29.972  0.0000E+00  0.0000E+00  0.0000E+00  0.0000E+00  0.0000E+00  0.0000E+00  0.0000E+00  0.0000E+00  0.0000E+00  0.0000E+00  0.0000E+00  0.0000E+00  0.0000E+00  0.0000E+00  0.0000E+00  0.0000E+00  0.0000E+00  0.0000E+00
    -29.828  0.0000E+00  0.0000E+00  0.0000E+00  0.0000E+00  0.0000E+00  0.0000E+00  0.0000E+00  0.0000E+00  0.0000E+00  0.0000E+00  0.0000E+00  0.0000E+00  0.0000E+00  0.0000E+00  0.0000E+00  0.0000E+00  0.0000E+00  0.0000E+00
    -29.685  0.0000E+00  0.0000E+00  0.0000E+00  0.0000E+00  0.0000E+00  0.0000E+00  0.0000E+00  0.0000E+00  0.0000E+00  0.0000E+00  0.0000E+00  0.0000E+00  0.0000E+00  0.0000E+00  0.0000E+00  0.0000E+00  0.0000E+00  0.0000E+00
    -29.541  0.0000E+00  0.0000E+00  0.0000E+00  0.0000E+00  0.0000E+00  0.0000E+00  0.0000E+00  0.0000E+00  0.0000E+00  0.0000E+00  0.0000E+00  0.0000E+00  0.0000E+00  0.0000E+00  0.0000E+00  0.0000E+00  0.0000E+00  0.0000E+00
    -29.397  0.0000E+00  0.0000E+00  0.0000E+00  0.0000E+00  0.0000E+00  0.0000E+00  0.0000E+00  0.0000E+00  0.0000E+00  0.0000E+00  0.0000E+00  0.0000E+00  0.0000E+00  0.0000E+00  0.0000E+00  0.0000E+00  0.0000E+00  0.0000E+00
    -29.253  0.0000E+00  0.0000E+00  0.0000E+00  0.0000E+00  0.0000E+00  0.0000E+00  0.0000E+00  0.0000E+00  0.0000E+00  0.0000E+00  0.0000E+00  0.0000E+00  0.0000E+00  0.0000E+00  0.0000E+00  0.0000E+00  0.0000E+00  0.0000E+00
    -29.110  0.0000E+00  0.0000E+00  0.0000E+00  0.0000E+00  0.0000E+00  0.0000E+00  0.0000E+00  0.0000E+00  0.0000E+00  0.0000E+00  0.0000E+00  0.0000E+00  0.0000E+00  0.0000E+00  0.0000E+00  0.0000E+00  0.0000E+00  0.0000E+00
    -28.966  0.0000E+00  0.0000E+00  0.0000E+00  0.0000E+00  0.0000E+00  0.0000E+00  0.0000E+00  0.0000E+00  0.0000E+00  0.0000E+00  0.0000E+00  0.0000E+00  0.0000E+00  0.0000E+00  0.0000E+00  0.0000E+00  0.0000E+00  0.0000E+00
    -28.822  0.0000E+00  0.0000E+00  0.0000E+00  0.0000E+00  0.0000E+00  0.0000E+00  0.0000E+00  0.0000E+00  0.0000E+00  0.0000E+00  0.0000E+00  0.0000E+00  0.0000E+00  0.0000E+00  0.0000E+00  0.0000E+00  0.0000E+00  0.0000E+00
    -28.678  0.0000E+00  0.0000E+00  0.0000E+00  0.0000E+00  0.0000E+00  0.0000E+00  0.0000E+00  0.0000E+00  0.0000E+00  0.0000E+00  0.0000E+00  0.0000E+00  0.0000E+00  0.0000E+00  0.0000E+00  0.0000E+00  0.0000E+00  0.0000E+00
    -28.535  0.0000E+00  0.0000E+00  0.0000E+00  0.0000E+00  0.0000E+00  0.0000E+00  0.0000E+00  0.0000E+00  0.0000E+00  0.0000E+00  0.0000E+00  0.0000E+00  0.0000E+00  0.0000E+00  0.0000E+00  0.0000E+00  0.0000E+00  0.0000E+00
    -28.391  0.0000E+00  0.0000E+00  0.0000E+00  0.0000E+00  0.0000E+00  0.0000E+00  0.0000E+00  0.0000E+00  0.0000E+00  0.0000E+00  0.0000E+00  0.0000E+00  0.0000E+00  0.0000E+00  0.0000E+00  0.0000E+00  0.0000E+00  0.0000E+00
    -28.247  0.0000E+00  0.0000E+00  0.0000E+00  0.0000E+00  0.0000E+00  0.0000E+00  0.0000E+00  0.0000E+00  0.0000E+00  0.0000E+00  0.0000E+00  0.0000E+00  0.0000E+00  0.0000E+00  0.0000E+00  0.0000E+00  0.0000E+00  0.0000E+00
    -28.104  0.0000E+00  0.0000E+00  0.0000E+00  0.0000E+00  0.0000E+00  0.0000E+00  0.0000E+00  0.0000E+00  0.0000E+00  0.0000E+00  0.0000E+00  0.0000E+00  0.0000E+00  0.0000E+00  0.0000E+00  0.0000E+00  0.0000E+00  0.0000E+00
    -27.960  0.0000E+00  0.0000E+00  0.0000E+00  0.0000E+00  0.0000E+00  0.0000E+00  0.0000E+00  0.0000E+00  0.0000E+00  0.0000E+00  0.0000E+00  0.0000E+00  0.0000E+00  0.0000E+00  0.0000E+00  0.0000E+00  0.0000E+00  0.0000E+00
    -27.816  0.0000E+00  0.0000E+00  0.0000E+00  0.0000E+00  0.0000E+00  0.0000E+00  0.0000E+00  0.0000E+00  0.0000E+00  0.0000E+00  0.0000E+00  0.0000E+00  0.0000E+00  0.0000E+00  0.0000E+00  0.0000E+00  0.0000E+00  0.0000E+00
    -27.672  0.0000E+00  0.0000E+00  0.0000E+00  0.0000E+00  0.0000E+00  0.0000E+00  0.0000E+00  0.0000E+00  0.0000E+00  0.0000E+00  0.0000E+00  0.0000E+00  0.0000E+00  0.0000E+00  0.0000E+00  0.0000E+00  0.0000E+00  0.0000E+00
    -27.529  0.0000E+00  0.0000E+00  0.0000E+00  0.0000E+00  0.0000E+00  0.0000E+00  0.0000E+00  0.0000E+00  0.0000E+00  0.0000E+00  0.0000E+00  0.0000E+00  0.0000E+00  0.0000E+00  0.0000E+00  0.0000E+00  0.0000E+00  0.0000E+00
    -27.385  0.0000E+00  0.0000E+00  0.0000E+00  0.0000E+00  0.0000E+00  0.0000E+00  0.0000E+00  0.0000E+00  0.0000E+00  0.0000E+00  0.0000E+00  0.0000E+00  0.0000E+00  0.0000E+00  0.0000E+00  0.0000E+00  0.0000E+00  0.0000E+00
    -27.241  0.0000E+00  0.0000E+00  0.0000E+00  0.0000E+00  0.0000E+00  0.0000E+00  0.0000E+00  0.0000E+00  0.0000E+00  0.0000E+00  0.0000E+00  0.0000E+00  0.0000E+00  0.0000E+00  0.0000E+00  0.0000E+00  0.0000E+00  0.0000E+00
    -27.097  0.0000E+00  0.0000E+00  0.0000E+00  0.0000E+00  0.0000E+00  0.0000E+00  0.0000E+00  0.0000E+00  0.0000E+00  0.0000E+00  0.0000E+00  0.0000E+00  0.0000E+00  0.0000E+00  0.0000E+00  0.0000E+00  0.0000E+00  0.0000E+00
    -26.954  0.0000E+00  0.0000E+00  0.0000E+00  0.0000E+00  0.0000E+00  0.0000E+00  0.0000E+00  0.0000E+00  0.0000E+00  0.0000E+00  0.0000E+00  0.0000E+00  0.0000E+00  0.0000E+00  0.0000E+00  0.0000E+00  0.0000E+00  0.0000E+00
    -26.810  0.0000E+00  0.0000E+00  0.0000E+00  0.0000E+00  0.0000E+00  0.0000E+00  0.0000E+00  0.0000E+00  0.0000E+00  0.0000E+00  0.0000E+00  0.0000E+00  0.0000E+00  0.0000E+00  0.0000E+00  0.0000E+00  0.0000E+00  0.0000E+00
    -26.666  0.0000E+00  0.0000E+00  0.0000E+00  0.0000E+00  0.0000E+00  0.0000E+00  0.0000E+00  0.0000E+00  0.0000E+00  0.0000E+00  0.0000E+00  0.0000E+00  0.0000E+00  0.0000E+00  0.0000E+00  0.0000E+00  0.0000E+00  0.0000E+00