  16  16   1   0
  0.2601893E+02  0.3971917E-09  0.3971917E-09  0.2638815E-08  0.5000000E-15
  1.000000000000000E-004
  CAR 
 unknown system                          
      9.53933706    -33.58061245  301      4.11053028      1.00000000
    -33.581  0.0000E+00  0.0000E+00  0.0000E+00  0.0000E+00
    -33.437  0.0000E+00  0.0000E+00  0.0000E+00  0.0000E+00
    -33.293  0.0000E+00  0.0000E+00  0.0000E+00  0.0000E+00
    -33.149  0.0000E+00  0.0000E+00  0.0000E+00  0.0000E+00
    -33.006  0.0000E+00  0.0000E+00  0.0000E+00  0.0000E+00
    -32.862  0.0000E+00  0.0000E+00  0.0000E+00  0.0000E+00
    -32.718  0.0000E+00  0.0000E+00  0.0000E+00  0.0000E+00
    -32.574  0.0000E+00  0.0000E+00  0.0000E+00  0.0000E+00
    -32.431  0.0000E+00  0.0000E+00  0.0000E+00  0.0000E+00
    -32.287  0.0000E+00  0.0000E+00  0.0000E+00  0.0000E+00
    -32.143  0.5520E-03  0.5537E-03  0.7935E-04  0.7958E-04
    -32.000  0.1050E-01  0.1053E-01  0.1588E-02  0.1593E-02
    -31.856  0.1834E+00  0.1840E+00  0.2796E-01  0.2804E-01
    -31.712  0.2887E+01  0.2894E+01  0.4429E+00  0.4440E+00
    -31.568  0.1601E+02  0.1602E+02  0.2744E+01  0.2747E+01
    -31.425  0.8033E+01  0.8017E+01  0.3899E+01  0.3899E+01
    -31.281  0.6631E+00  0.6612E+00  0.3994E+01  0.3994E+01
    -31.137  0.0000E+00  0.0000E+00  0.4000E+01  0.4000E+01
    -30.993  0.0000E+00  0.0000E+00  0.4000E+01  0.4000E+01
    -30.850  0.0000E+00  0.0000E+00  0.4000E+01  0.4000E+01
    -30.706  0.0000E+00  0.0000E+00  0.4000E+01  0.4000E+01
    -30.562  0.0000E+00  0.0000E+00  0.4000E+01  0.4000E+01
    -30.418  0.0000E+00  0.0000E+00  0.4000E+01  0.4000E+01
    -30.275  0.0000E+00  0.0000E+00  0.4000E+01  0.4000E+01
    -30.131  0.0000E+00  0.0000E+00  0.4000E+01  0.4000E+01
    -29.987  0.0000E+00  0.0000E+00  0.4000E+01  0.4000E+01
    -29.844  0.0000E+00  0.0000E+00  0.4000E+01  0.4000E+01
    -29.700  0.0000E+00  0.0000E+00  0.4000E+01  0.4000E+01
    -29.556  0.0000E+00  0.0000E+00  0.4000E+01  0.4000E+01
    -29.412  0.0000E+00  0.0000E+00  0.4000E+01  0.4000E+01
    -29.269  0.0000E+00  0.0000E+00  0.4000E+01  0.4000E+01
    -29.125  0.0000E+00  0.0000E+00  0.4000E+01  0.4000E+01
    -28.981  0.0000E+00  0.0000E+00  0.4000E+01  0.4000E+01
    -28.837  0.0000E+00  0.0000E+00  0.4000E+01  0.4000E+01
    -28.694  0.0000E+00  0.0000E+00  0.4000E+01  0.4000E+01
    -28.550  0.0000E+00  0.0000E+00  0.4000E+01  0.4000E+01
    -28.406  0.0000E+00  0.0000E+00  0.4000E+01  0.4000E+01
    -28.262  0.0000E+00  0.0000E+00  0.4000E+01  0.4000E+01
    -28.119  0.0000E+00  0.0000E+00  0.4000E+01  0.4000E+01
    -27.975  0.0000E+00  0.0000E+00  0.4000E+01  0.4000E+01
    -27.831  0.0000E+00  0.0000E+00  0.4000E+01  0.4000E+01
    -27.688  0.0000E+00  0.0000E+00  0.4000E+01  0.4000E+01
    -27.544  0.0000E+00  0.0000E+00  0.4000E+01  0.4000E+01
    -27.400  0.0000E+00  0.0000E+00  0.4000E+01  0.4000E+01
    -27.256  0.0000E+00  0.0000E+00  0.4000E+01  0.4000E+01
    -27.113  0.0000E+00  0.0000E+00  0.4000E+01  0.4000E+01
    -26.969  0.0000E+00  0.0000E+00  0.4000E+01  0.4000E+01
    -26.825  0.0000E+00  0.0000E+00  0.4000E+01  0.4000E+01
    -26.681  0.0000E+00  0.0000E+00  0.4000E+01  0.4000E+01
    -26.538  0.0000E+00  0.0000E+00  0.4000E+01  0.4000E+01
    -26.394  0.0000E+00  0.0000E+00  0.4000E+01  0.4000E+01
    -26.250  0.0000E+00  0.0000E+00  0.4000E+01  0.4000E+01
    -26.106  0.0000E+00  0.0000E+00  0.4000E+01  0.4000E+01
    -25.963  0.0000E+00  0.0000E+00  0.4000E+01  0.4000E+01
    -25.819  0.0000E+00  0.0000E+00  0.4000E+01  0.4000E+01
    -25.675  0.0000E+00  0.0000E+00  0.4000E+01  0.4000E+01
    -25.532  0.0000E+00  0.0000E+00  0.4000E+01  0.4000E+01
    -25.388  0.0000E+00  0.0000E+00  0.4000E+01  0.4000E+01
    -25.244  0.0000E+00  0.0000E+00  0.4000E+01  0.4000E+01
    -25.100  0.0000E+00  0.0000E+00  0.4000E+01  0.4000E+01
    -24.957  0.0000E+00  0.0000E+00  0.4000E+01  0.4000E+01
    -24.813  0.0000E+00  0.0000E+00  0.4000E+01  0.4000E+01
    -24.669  0.0000E+00  0.0000E+00  0.4000E+01  0.4000E+01
    -24.525  0.0000E+00  0.0000E+00  0.4000E+01  0.4000E+01
    -24.382  0.0000E+00  0.0000E+00  0.4000E+01  0.4000E+01
    -24.238  0.0000E+00  0.0000E+00  0.4000E+01  0.4000E+01
    -24.094  0.0000E+00  0.0000E+00  0.4000E+01  0.4000E+01
    -23.950  0.0000E+00  0.0000E+00  0.4000E+01  0.4000E+01
    -23.807  0.0000E+00  0.0000E+00  0.4000E+01  0.4000E+01
    -23.663  0.0000E+00  0.0000E+00  0.4000E+01  0.4000E+01
    -23.519  0.0000E+00  0.0000E+00  0.4000E+01  0.4000E+01
    -23.376  0.0000E+00  0.0000E+00  0.4000E+01  0.4000E+01
    -23.232  0.0000E+00  0.0000E+00  0.4000E+01  0.4000E+01
    -23.088  0.0000E+00  0.0000E+00  0.4000E+01  0.4000E+01
    -22.944  0.0000E+00  0.0000E+00  0.4000E+01  0.4000E+01
    -22.801  0.0000E+00  0.0000E+00  0.4000E+01  0.4000E+01
    -22.657  0.0000E+00  0.0000E+00  0.4000E+01  0.4000E+01
    -22.513  0.0000E+00  0.0000E+00  0.4000E+01  0.4000E+01
    -22.369  0.0000E+00  0.0000E+00  0.4000E+01  0.4000E+01
    -22.226  0.0000E+00  0.0000E+00  0.4000E+01  0.4000E+01
    -22.082  0.0000E+00  0.0000E+00  0.4000E+01  0.4000E+01
    -21.938  0.0000E+00  0.0000E+00  0.4000E+01  0.4000E+01
    -21.794  0.0000E+00  0.0000E+00  0.4000E+01  0.4000E+01
    -21.651  0.0000E+00  0.0000E+00  0.4000E+01  0.4000E+01
    -21.507  0.0000E+00  0.0000E+00  0.4000E+01  0.4000E+01
    -21.363  0.0000E+00  0.0000E+00  0.4000E+01  0.4000E+01
    -21.220  0.0000E+00  0.0000E+00  0.4000E+01  0.4000E+01
    -21.076  0.0000E+00  0.0000E+00  0.4000E+01  0.4000E+01
    -20.932  0.0000E+00  0.0000E+00  0.4000E+01  0.4000E+01
    -20.788  0.0000E+00  0.0000E+00  0.4000E+01  0.4000E+01
    -20.645  0.0000E+00  0.0000E+00  0.4000E+01  0.4000E+01
    -20.501  0.0000E+00  0.0000E+00  0.4000E+01  0.4000E+01
    -20.357  0.0000E+00  0.0000E+00  0.4000E+01  0.4000E+01
    -20.213  0.0000E+00  0.0000E+00  0.4000E+01  0.4000E+01
    -20.070  0.0000E+00  0.0000E+00  0.4000E+01  0.4000E+01
    -19.926  0.0000E+00  0.0000E+00  0.4000E+01  0.4000E+01
    -19.782  0.0000E+00  0.0000E+00  0.4000E+01  0.4000E+01
    -19.638  0.0000E+00  0.0000E+00  0.4000E+01  0.4000E+01
    -19.495  0.0000E+00  0.0000E+00  0.4000E+01  0.4000E+01
    -19.351  0.0000E+00  0.0000E+00  0.4000E+01  0.4000E+01
    -19.207  0.0000E+00  0.0000E+00  0.4000E+01  0.4000E+01
    -19.064  0.0000E+00  0.0000E+00  0.4000E+01  0.4000E+01
    -18.920  0.0000E+00  0.0000E+00  0.4000E+01  0.4000E+01
    -18.776  0.0000E+00  0.0000E+00  0.4000E+01  0.4000E+01
    -18.632  0.0000E+00  0.0000E+00  0.4000E+01  0.4000E+01
    -18.489  0.0000E+00  0.0000E+00  0.4000E+01  0.4000E+01
    -18.345  0.0000E+00  0.0000E+00  0.4000E+01  0.4000E+01
    -18.201  0.0000E+00  0.0000E+00  0.4000E+01  0.4000E+01
    -18.057  0.0000E+00  0.0000E+00  0.4000E+01  0.4000E+01
    -17.914  0.0000E+00  0.0000E+00  0.4000E+01  0.4000E+01
    -17.770  0.0000E+00  0.0000E+00  0.4000E+01  0.4000E+01
    -17.626  0.0000E+00  0.0000E+00  0.4000E+01  0.4000E+01
    -17.482  0.0000E+00  0.0000E+00  0.4000E+01  0.4000E+01
    -17.339  0.0000E+00  0.0000E+00  0.4000E+01  0.4000E+01
    -17.195  0.0000E+00  0.0000E+00  0.4000E+01  0.4000E+01
    -17.051  0.0000E+00  0.0000E+00  0.4000E+01  0.4000E+01
    -16.908  0.0000E+00  0.0000E+00  0.4000E+01  0.4000E+01
    -16.764  0.0000E+00  0.0000E+00  0.4000E+01  0.4000E+01
    -16.620  0.0000E+00  0.0000E+00  0.4000E+01  0.4000E+01
    -16.476  0.0000E+00  0.0000E+00  0.4000E+01  0.4000E+01
    -16.333  0.0000E+00  0.0000E+00  0.4000E+01  0.4000E+01
    -16.189  0.0000E+00  0.0000E+00  0.4000E+01  0.4000E+01
    -16.045  0.0000E+00  0.0000E+00  0.4000E+01  0.4000E+01
    -15.901  0.0000E+00  0.0000E+00  0.4000E+01  0.4000E+01
    -15.758  0.0000E+00  0.0000E+00  0.4000E+01  0.4000E+01
    -15.614  0.0000E+00  0.0000E+00  0.4000E+01  0.4000E+01
    -15.470  0.0000E+00  0.0000E+00  0.4000E+01  0.4000E+01
    -15.327  0.0000E+00  0.0000E+00  0.4000E+01  0.4000E+01
    -15.183  0.0000E+00  0.0000E+00  0.4000E+01  0.4000E+01
    -15.039  0.0000E+00  0.0000E+00  0.4000E+01  0.4000E+01
    -14.895  0.0000E+00  0.0000E+00  0.4000E+01  0.4000E+01
    -14.752  0.0000E+00  0.0000E+00  0.4000E+01  0.4000E+01
    -14.608  0.0000E+00  0.0000E+00  0.4000E+01  0.4000E+01
    -14.464  0.0000E+00  0.0000E+00  0.4000E+01  0.4000E+01
    -14.320  0.9084E-04  0.9089E-04  0.4000E+01  0.4000E+01
    -14.177  0.5547E-02  0.5554E-02  0.4001E+01  0.4001E+01
    -14.033  0.1017E+00  0.1017E+00  0.4015E+01  0.4015E+01
    -13.889  0.1672E+01  0.1673E+01  0.4256E+01  0.4256E+01
    -13.745  0.1486E+02  0.1487E+02  0.6392E+01  0.6393E+01
    -13.602  0.3775E+02  0.3775E+02  0.1182E+02  0.1182E+02
    -13.458  0.2571E+02  0.2570E+02  0.1551E+02  0.1551E+02
    -13.314  0.3130E+01  0.3128E+01  0.1597E+02  0.1597E+02
    -13.171  0.7089E-01  0.7086E-01  0.1600E+02  0.1600E+02
    -13.027  0.0000E+00  0.0000E+00  0.1600E+02  0.1600E+02
    -12.883  0.0000E+00  0.0000E+00  0.1600E+02  0.1600E+02
    -12.739  0.0000E+00  0.0000E+00  0.1600E+02  0.1600E+02
    -12.596  0.0000E+00  0.0000E+00  0.1600E+02  0.1600E+02
    -12.452  0.0000E+00  0.0000E+00  0.1600E+02  0.1600E+02
    -12.308  0.0000E+00  0.0000E+00  0.1600E+02  0.1600E+02
    -12.164  0.0000E+00  0.0000E+00  0.1600E+02  0.1600E+02
    -12.021  0.0000E+00  0.0000E+00  0.1600E+02  0.1600E+02
    -11.877  0.0000E+00  0.0000E+00  0.1600E+02  0.1600E+02
    -11.733  0.0000E+00  0.0000E+00  0.1600E+02  0.1600E+02
    -11.589  0.0000E+00  0.0000E+00  0.1600E+02  0.1600E+02
    -11.446  0.0000E+00  0.0000E+00  0.1600E+02  0.1600E+02
    -11.302  0.0000E+00  0.0000E+00  0.1600E+02  0.1600E+02
    -11.158  0.0000E+00  0.0000E+00  0.1600E+02  0.1600E+02
    -11.015  0.0000E+00  0.0000E+00  0.1600E+02  0.1600E+02
    -10.871  0.0000E+00  0.0000E+00  0.1600E+02  0.1600E+02
    -10.727  0.0000E+00  0.0000E+00  0.1600E+02  0.1600E+02
    -10.583  0.0000E+00  0.0000E+00  0.1600E+02  0.1600E+02
    -10.440  0.0000E+00  0.0000E+00  0.1600E+02  0.1600E+02
    -10.296  0.0000E+00  0.0000E+00  0.1600E+02  0.1600E+02
    -10.152  0.0000E+00  0.0000E+00  0.1600E+02  0.1600E+02
    -10.008  0.0000E+00  0.0000E+00  0.1600E+02  0.1600E+02
     -9.865  0.0000E+00  0.0000E+00  0.1600E+02  0.1600E+02
     -9.721  0.0000E+00  0.0000E+00  0.1600E+02  0.1600E+02
     -9.577  0.0000E+00  0.0000E+00  0.1600E+02  0.1600E+02
     -9.433  0.0000E+00  0.0000E+00  0.1600E+02  0.1600E+02
     -9.290  0.0000E+00  0.0000E+00  0.1600E+02  0.1600E+02
     -9.146  0.0000E+00  0.0000E+00  0.1600E+02  0.1600E+02
     -9.002  0.0000E+00  0.0000E+00  0.1600E+02  0.1600E+02
     -8.859  0.0000E+00  0.0000E+00  0.1600E+02  0.1600E+02
     -8.715  0.0000E+00  0.0000E+00  0.1600E+02  0.1600E+02
     -8.571  0.0000E+00  0.0000E+00  0.1600E+02  0.1600E+02
     -8.427  0.0000E+00  0.0000E+00  0.1600E+02  0.1600E+02
     -8.284  0.0000E+00  0.0000E+00  0.1600E+02  0.1600E+02
     -8.140  0.0000E+00  0.0000E+00  0.1600E+02  0.1600E+02
     -7.996  0.0000E+00  0.0000E+00  0.1600E+02  0.1600E+02
     -7.852  0.0000E+00  0.0000E+00  0.1600E+02  0.1600E+02
     -7.709  0.0000E+00  0.0000E+00  0.1600E+02  0.1600E+02
     -7.565  0.0000E+00  0.0000E+00  0.1600E+02  0.1600E+02
     -7.421  0.0000E+00  0.0000E+00  0.1600E+02  0.1600E+02
     -7.277  0.0000E+00  0.0000E+00  0.1600E+02  0.1600E+02
     -7.134  0.0000E+00  0.0000E+00  0.1600E+02  0.1600E+02
     -6.990  0.0000E+00  0.0000E+00  0.1600E+02  0.1600E+02
     -6.846  0.0000E+00  0.0000E+00  0.1600E+02  0.1600E+02
     -6.703  0.0000E+00  0.0000E+00  0.1600E+02  0.1600E+02
     -6.559  0.0000E+00  0.0000E+00  0.1600E+02  0.1600E+02
     -6.415  0.0000E+00  0.0000E+00  0.1600E+02  0.1600E+02
     -6.271  0.0000E+00  0.0000E+00  0.1600E+02  0.1600E+02
     -6.128  0.0000E+00  0.0000E+00  0.1600E+02  0.1600E+02
     -5.984  0.0000E+00  0.0000E+00  0.1600E+02  0.1600E+02
     -5.840  0.0000E+00  0.0000E+00  0.1600E+02  0.1600E+02
     -5.696  0.1840E-05  0.1865E-05  0.1600E+02  0.1600E+02
     -5.553  0.9057E-04  0.9175E-04  0.1600E+02  0.1600E+02
     -5.409  0.1593E-02  0.1614E-02  0.1600E+02  0.1600E+02
     -5.265  0.2652E-01  0.2684E-01  0.1600E+02  0.1600E+02
     -5.121  0.2540E+00  0.2558E+00  0.1604E+02  0.1604E+02
     -4.978  0.5960E+00  0.5969E+00  0.1613E+02  0.1613E+02
     -4.834  0.7234E+00  0.7231E+00  0.1623E+02  0.1623E+02
     -4.690  0.6455E+00  0.6464E+00  0.1632E+02  0.1632E+02
     -4.547  0.7757E+00  0.7742E+00  0.1643E+02  0.1644E+02
     -4.403  0.6161E+00  0.6159E+00  0.1652E+02  0.1652E+02
     -4.259  0.7285E+00  0.7301E+00  0.1663E+02  0.1663E+02
     -4.115  0.8408E+00  0.8398E+00  0.1675E+02  0.1675E+02
     -3.972  0.4966E+00  0.4950E+00  0.1682E+02  0.1682E+02
     -3.828  0.7378E+00  0.7413E+00  0.1693E+02  0.1693E+02
     -3.684  0.9450E+00  0.9428E+00  0.1706E+02  0.1706E+02
     -3.540  0.6481E+00  0.6460E+00  0.1716E+02  0.1716E+02
     -3.397  0.9563E+00  0.9547E+00  0.1729E+02  0.1729E+02
     -3.253  0.1507E+01  0.1506E+01  0.1751E+02  0.1751E+02
     -3.109  0.1449E+01  0.1450E+01  0.1772E+02  0.1772E+02
     -2.965  0.1544E+01  0.1541E+01  0.1794E+02  0.1794E+02
     -2.822  0.1251E+01  0.1253E+01  0.1812E+02  0.1812E+02
     -2.678  0.1195E+01  0.1196E+01  0.1829E+02  0.1829E+02
     -2.534  0.1769E+01  0.1768E+01  0.1855E+02  0.1855E+02
     -2.391  0.1872E+01  0.1873E+01  0.1882E+02  0.1882E+02
     -2.247  0.9108E+00  0.9116E+00  0.1895E+02  0.1895E+02
     -2.103  0.1656E+01  0.1654E+01  0.1919E+02  0.1919E+02
     -1.959  0.2700E+01  0.2707E+01  0.1958E+02  0.1958E+02
     -1.816  0.2727E+01  0.2728E+01  0.1997E+02  0.1997E+02
     -1.672  0.2656E+01  0.2653E+01  0.2035E+02  0.2035E+02
     -1.528  0.2744E+01  0.2742E+01  0.2075E+02  0.2075E+02
     -1.384  0.2308E+01  0.2307E+01  0.2108E+02  0.2108E+02
     -1.241  0.2121E+01  0.2120E+01  0.2138E+02  0.2138E+02
     -1.097  0.1133E+01  0.1133E+01  0.2155E+02  0.2155E+02
     -0.953  0.1014E+01  0.1014E+01  0.2169E+02  0.2169E+02
     -0.809  0.1011E+01  0.1003E+01  0.2184E+02  0.2184E+02
     -0.666  0.1265E+01  0.1268E+01  0.2202E+02  0.2202E+02
     -0.522  0.8179E+00  0.8230E+00  0.2214E+02  0.2214E+02
     -0.378  0.8659E+00  0.8654E+00  0.2227E+02  0.2227E+02
     -0.235  0.1889E+01  0.1894E+01  0.2254E+02  0.2254E+02
     -0.091  0.3003E+01  0.3004E+01  0.2297E+02  0.2297E+02
      0.053  0.3427E+01  0.3425E+01  0.2346E+02  0.2346E+02
      0.197  0.2493E+01  0.2491E+01  0.2382E+02  0.2382E+02
      0.340  0.2330E+01  0.2326E+01  0.2416E+02  0.2416E+02
      0.484  0.2590E+01  0.2595E+01  0.2453E+02  0.2453E+02
      0.628  0.2697E+01  0.2697E+01  0.2492E+02  0.2492E+02
      0.772  0.3019E+01  0.3013E+01  0.2535E+02  0.2535E+02
      0.915  0.2935E+01  0.2935E+01  0.2578E+02  0.2578E+02
      1.059  0.2412E+01  0.2415E+01  0.2612E+02  0.2612E+02
      1.203  0.3233E+01  0.3235E+01  0.2659E+02  0.2659E+02
      1.347  0.3657E+01  0.3657E+01  0.2712E+02  0.2712E+02
      1.490  0.3250E+01  0.3252E+01  0.2758E+02  0.2758E+02
      1.634  0.2461E+01  0.2457E+01  0.2794E+02  0.2794E+02
      1.778  0.2372E+01  0.2366E+01  0.2828E+02  0.2828E+02
      1.921  0.2760E+01  0.2758E+01  0.2868E+02  0.2868E+02
      2.065  0.2736E+01  0.2741E+01  0.2907E+02  0.2907E+02
      2.209  0.3486E+01  0.3486E+01  0.2957E+02  0.2957E+02
      2.353  0.3682E+01  0.3682E+01  0.3010E+02  0.3010E+02
      2.496  0.4094E+01  0.4095E+01  0.3069E+02  0.3069E+02
      2.640  0.5075E+01  0.5074E+01  0.3142E+02  0.3142E+02
      2.784  0.5526E+01  0.5524E+01  0.3222E+02  0.3222E+02
      2.928  0.3982E+01  0.3984E+01  0.3279E+02  0.3279E+02
      3.071  0.4264E+01  0.4260E+01  0.3341E+02  0.3341E+02
      3.215  0.5002E+01  0.5005E+01  0.3413E+02  0.3413E+02
      3.359  0.4895E+01  0.4893E+01  0.3483E+02  0.3483E+02
      3.503  0.4546E+01  0.4544E+01  0.3549E+02  0.3549E+02
      3.646  0.5068E+01  0.5066E+01  0.3622E+02  0.3622E+02
      3.790  0.4611E+01  0.4614E+01  0.3688E+02  0.3688E+02
      3.934  0.3767E+01  0.3767E+01  0.3742E+02  0.3742E+02
      4.077  0.3194E+01  0.3191E+01  0.3788E+02  0.3788E+02
      4.221  0.3717E+01  0.3719E+01  0.3842E+02  0.3842E+02
      4.365  0.3372E+01  0.3369E+01  0.3891E+02  0.3890E+02
      4.509  0.2932E+01  0.2935E+01  0.3933E+02  0.3933E+02
      4.652  0.4200E+01  0.4202E+01  0.3993E+02  0.3993E+02
      4.796  0.4209E+01  0.4211E+01  0.4054E+02  0.4054E+02
      4.940  0.3513E+01  0.3512E+01  0.4104E+02  0.4104E+02
      5.084  0.3989E+01  0.3992E+01  0.4162E+02  0.4162E+02
      5.227  0.5346E+01  0.5350E+01  0.4239E+02  0.4239E+02
      5.371  0.6180E+01  0.6182E+01  0.4328E+02  0.4328E+02
      5.515  0.6701E+01  0.6701E+01  0.4424E+02  0.4424E+02
      5.659  0.6063E+01  0.6059E+01  0.4511E+02  0.4511E+02
      5.802  0.6616E+01  0.6617E+01  0.4607E+02  0.4607E+02
      5.946  0.6553E+01  0.6559E+01  0.4701E+02  0.4701E+02
      6.090  0.5313E+01  0.5310E+01  0.4778E+02  0.4778E+02
      6.233  0.4715E+01  0.4710E+01  0.4846E+02  0.4845E+02
      6.377  0.5015E+01  0.5014E+01  0.4918E+02  0.4918E+02
      6.521  0.4340E+01  0.4385E+01  0.4980E+02  0.4981E+02
      6.665  0.3953E+01  0.3994E+01  0.5037E+02  0.5038E+02
      6.808  0.3348E+01  0.3311E+01  0.5086E+02  0.5086E+02
      6.952  0.1985E+01  0.2093E+01  0.5114E+02  0.5116E+02
      7.096  0.1771E+01  0.1913E+01  0.5140E+02  0.5144E+02
      7.240  0.2027E+01  0.2000E+01  0.5169E+02  0.5173E+02
      7.383  0.1554E+01  0.1274E+01  0.5191E+02  0.5191E+02
      7.527  0.4930E+00  0.4407E+00  0.5198E+02  0.5198E+02
      7.671  0.9169E-01  0.1427E+00  0.5200E+02  0.5200E+02
      7.815  0.8879E-02  0.1918E-01  0.5200E+02  0.5200E+02
      7.958  0.3852E-03  0.9295E-03  0.5200E+02  0.5200E+02
      8.102  0.0000E+00  0.0000E+00  0.5200E+02  0.5200E+02
      8.246  0.0000E+00  0.0000E+00  0.5200E+02  0.5200E+02
      8.389  0.0000E+00  0.0000E+00  0.5200E+02  0.5200E+02
      8.533  0.0000E+00  0.0000E+00  0.5200E+02  0.5200E+02
      8.677  0.0000E+00  0.0000E+00  0.5200E+02  0.5200E+02
      8.821  0.0000E+00  0.0000E+00  0.5200E+02  0.5200E+02
      8.964  0.0000E+00  0.0000E+00  0.5200E+02  0.5200E+02
      9.108  0.0000E+00  0.0000E+00  0.5200E+02  0.5200E+02
      9.252  0.0000E+00  0.0000E+00  0.5200E+02  0.5200E+02
      9.396  0.0000E+00  0.0000E+00  0.5200E+02  0.5200E+02
      9.539  0.0000E+00  0.0000E+00  0.5200E+02  0.5200E+02
      9.53933706    -33.58061245  301      4.11053028      1.00000000
    -33.581  0.0000E+00  0.0000E+00  0.0000E+00  0.0000E+00  0.0000E+00  0.0000E+00  0.0000E+00  0.0000E+00  0.0000E+00  0.0000E+00  0.0000E+00  0.0000E+00  0.0000E+00  0.0000E+00  0.0000E+00  0.0000E+00  0.0000E+00  0.0000E+00
    -33.437  0.0000E+00  0.0000E+00  0.0000E+00  0.0000E+00  0.0000E+00  0.0000E+00  0.0000E+00  0.0000E+00  0.0000E+00  0.0000E+00  0.0000E+00  0.0000E+00  0.0000E+00  0.0000E+00  0.0000E+00  0.0000E+00  0.0000E+00  0.0000E+00
    -33.293  0.0000E+00  0.0000E+00  0.0000E+00  0.0000E+00  0.0000E+00  0.0000E+00  0.0000E+00  0.0000E+00  0.0000E+00  0.0000E+00  0.0000E+00  0.0000E+00  0.0000E+00  0.0000E+00  0.0000E+00  0.0000E+00  0.0000E+00  0.0000E+00
    -33.149  0.0000E+00  0.0000E+00  0.0000E+00  0.0000E+00  0.0000E+00  0.0000E+00  0.0000E+00  0.0000E+00  0.0000E+00  0.0000E+00  0.0000E+00  0.0000E+00  0.0000E+00  0.0000E+00  0.0000E+00  0.0000E+00  0.0000E+00  0.0000E+00
    -33.006  0.0000E+00  0.0000E+00  0.0000E+00  0.0000E+00  0.0000E+00  0.0000E+00  0.0000E+00  0.0000E+00  0.0000E+00  0.0000E+00  0.0000E+00  0.0000E+00  0.0000E+00  0.0000E+00  0.0000E+00  0.0000E+00  0.0000E+00  0.0000E+00
    -32.862  0.0000E+00  0.0000E+00  0.0000E+00  0.0000E+00  0.0000E+00  0.0000E+00  0.0000E+00  0.0000E+00  0.0000E+00  0.0000E+00  0.0000E+00  0.0000E+00  0.0000E+00  0.0000E+00  0.0000E+00  0.0000E+00  0.0000E+00  0.0000E+00
    -32.718  0.0000E+00  0.0000E+00  0.0000E+00  0.0000E+00  0.0000E+00  0.0000E+00  0.0000E+00  0.0000E+00  0.0000E+00  0.0000E+00  0.0000E+00  0.0000E+00  0.0000E+00  0.0000E+00  0.0000E+00  0.0000E+00  0.0000E+00  0.0000E+00
    -32.574  0.0000E+00  0.0000E+00  0.0000E+00  0.0000E+00  0.0000E+00  0.0000E+00  0.0000E+00  0.0000E+00  0.0000E+00  0.0000E+00  0.0000E+00  0.0000E+00  0.0000E+00  0.0000E+00  0.0000E+00  0.0000E+00  0.0000E+00  0.0000E+00
    -32.431  0.0000E+00  0.0000E+00  0.0000E+00  0.0000E+00  0.0000E+00  0.0000E+00  0.0000E+00  0.0000E+00  0.0000E+00  0.0000E+00  0.0000E+00  0.0000E+00  0.0000E+00  0.0000E+00  0.0000E+00  0.0000E+00  0.0000E+00  0.0000E+00
    -32.287  0.0000E+00  0.0000E+00  0.0000E+00  0.0000E+00  0.0000E+00  0.0000E+00  0.0000E+00  0.0000E+00  0.0000E+00  0.0000E+00  0.0000E+00  0.0000E+00  0.0000E+00  0.0000E+00  0.0000E+00  0.0000E+00  0.0000E+00  0.0000E+00
    -32.143  0.1351E-03  0.1354E-03  0.3850E-10  0.3859E-10  0.7588E-11  0.7822E-11  0.3850E-10  0.3859E-10  0.6714E-15  0.9630E-15  0.5229E-14  0.5310E-14  0.1141E-09  0.1142E-09  0.5229E-14  0.5310E-14  0.2437E-10  0.2441E-10
    -32.000  0.2569E-02  0.2576E-02  0.6978E-09  0.6994E-09  0.1426E-09  0.1469E-09  0.6978E-09  0.6994E-09  0.1178E-13  0.1675E-13  0.9392E-13  0.9525E-13  0.1999E-08  0.2002E-08  0.9392E-13  0.9525E-13  0.4149E-09  0.4155E-09
    -31.856  0.4488E-01  0.4501E-01  0.1222E-07  0.1225E-07  0.2493E-08  0.2569E-08  0.1222E-07  0.1225E-07  0.2067E-12  0.2940E-12  0.1646E-11  0.1669E-11  0.3506E-07  0.3511E-07  0.1646E-11  0.1669E-11  0.7293E-08  0.7303E-08
    -31.712  0.7063E+00  0.7081E+00  0.1925E-06  0.1928E-06  0.3919E-07  0.4037E-07  0.1925E-06  0.1928E-06  0.3263E-11  0.4637E-11  0.2590E-10  0.2624E-10  0.5483E-06  0.5488E-06  0.2590E-10  0.2624E-10  0.1150E-06  0.1151E-06
    -31.568  0.3918E+01  0.3920E+01  0.1069E-05  0.1069E-05  0.2163E-06  0.2224E-06  0.1069E-05  0.1069E-05  0.1838E-10  0.2600E-10  0.1432E-09  0.1445E-09  0.2926E-05  0.2923E-05  0.1432E-09  0.1445E-09  0.6419E-06  0.6413E-06
    -31.425  0.1966E+01  0.1962E+01  0.5352E-06  0.5338E-06  0.1079E-06  0.1106E-06  0.5352E-06  0.5338E-06  0.9344E-11  0.1314E-10  0.7132E-10  0.7157E-10  0.1396E-05  0.1391E-05  0.7132E-10  0.7157E-10  0.3214E-06  0.3202E-06
    -31.281  0.1623E+00  0.1618E+00  0.4410E-07  0.4394E-07  0.8886E-08  0.9102E-08  0.4410E-07  0.4394E-07  0.7735E-12  0.1085E-11  0.5865E-11  0.5874E-11  0.1132E-06  0.1127E-06  0.5865E-11  0.5874E-11  0.2642E-07  0.2630E-07
    -31.137  0.0000E+00  0.0000E+00  0.0000E+00  0.0000E+00  0.0000E+00  0.0000E+00  0.0000E+00  0.0000E+00  0.0000E+00  0.0000E+00  0.0000E+00  0.0000E+00  0.0000E+00  0.0000E+00  0.0000E+00  0.0000E+00  0.0000E+00  0.0000E+00
    -30.993  0.0000E+00  0.0000E+00  0.0000E+00  0.0000E+00  0.0000E+00  0.0000E+00  0.0000E+00  0.0000E+00  0.0000E+00  0.0000E+00  0.0000E+00  0.0000E+00  0.0000E+00  0.0000E+00  0.0000E+00  0.0000E+00  0.0000E+00  0.0000E+00
    -30.850  0.0000E+00  0.0000E+00  0.0000E+00  0.0000E+00  0.0000E+00  0.0000E+00  0.0000E+00  0.0000E+00  0.0000E+00  0.0000E+00  0.0000E+00  0.0000E+00  0.0000E+00  0.0000E+00  0.0000E+00  0.0000E+00  0.0000E+00  0.0000E+00
    -30.706  0.0000E+00  0.0000E+00  0.0000E+00  0.0000E+00  0.0000E+00  0.0000E+00  0.0000E+00  0.0000E+00  0.0000E+00  0.0000E+00  0.0000E+00  0.0000E+00  0.0000E+00  0.0000E+00  0.0000E+00  0.0000E+00  0.0000E+00  0.0000E+00
    -30.562  0.0000E+00  0.0000E+00  0.0000E+00  0.0000E+00  0.0000E+00  0.0000E+00  0.0000E+00  0.0000E+00  0.0000E+00  0.0000E+00  0.0000E+00  0.0000E+00  0.0000E+00  0.0000E+00  0.0000E+00  0.0000E+00  0.0000E+00  0.0000E+00
    -30.418  0.0000E+00  0.0000E+00  0.0000E+00  0.0000E+00  0.0000E+00  0.0000E+00  0.0000E+00  0.0000E+00  0.0000E+00  0.0000E+00  0.0000E+00  0.0000E+00  0.0000E+00  0.0000E+00  0.0000E+00  0.0000E+00  0.0000E+00  0.0000E+00
    -30.275  0.0000E+00  0.0000E+00  0.0000E+00  0.0000E+00  0.0000E+00  0.0000E+00  0.0000E+00  0.0000E+00  0.0000E+00  0.0000E+00  0.0000E+00  0.0000E+00  0.0000E+00  0.0000E+00  0.0000E+00  0.0000E+00  0.0000E+00  0.0000E+00
    -30.131  0.0000E+00  0.0000E+00  0.0000E+00  0.0000E+00  0.0000E+00  0.0000E+00  0.0000E+00  0.0000E+00  0.0000E+00  0.0000E+00  0.0000E+00  0.0000E+00  0.0000E+00  0.0000E+00  0.0000E+00  0.0000E+00  0.0000E+00  0.0000E+00
    -29.987  0.0000E+00  0.0000E+00  0.0000E+00  0.0000E+00  0.0000E+00  0.0000E+00  0.0000E+00  0.0000E+00  0.0000E+00  0.0000E+00  0.0000E+00  0.0000E+00  0.0000E+00  0.0000E+00  0.0000E+00  0.0000E+00  0.0000E+00  0.0000E+00
    -29.844  0.0000E+00  0.0000E+00  0.0000E+00  0.0000E+00  0.0000E+00  0.0000E+00  0.0000E+00  0.0000E+00  0.0000E+00  0.0000E+00  0.0000E+00  0.0000E+00  0.0000E+00  0.0000E+00  0.0000E+00  0.0000E+00  0.0000E+00  0.0000E+00
    -29.700  0.0000E+00  0.0000E+00  0.0000E+00  0.0000E+00  0.0000E+00  0.0000E+00  0.0000E+00  0.0000E+00  0.0000E+00  0.0000E+00  0.0000E+00  0.0000E+00  0.0000E+00  0.0000E+00  0.0000E+00  0.0000E+00  0.0000E+00  0.0000E+00
    -29.556  0.0000E+00  0.0000E+00  0.0000E+00  0.0000E+00  0.0000E+00  0.0000E+00  0.0000E+00  0.0000E+00  0.0000E+00  0.0000E+00  0.0000E+00  0.0000E+00  0.0000E+00  0.0000E+00  0.0000E+00  0.0000E+00  0.0000E+00  0.0000E+00
    -29.412  0.0000E+00  0.0000E+00  0.0000E+00  0.0000E+00  0.0000E+00  0.0000E+00  0.0000E+00  0.0000E+00  0.0000E+00  0.0000E+00  0.0000E+00  0.0000E+00  0.0000E+00  0.0000E+00  0.0000E+00  0.0000E+00  0.0000E+00  0.0000E+00
    -29.269  0.0000E+00  0.0000E+00  0.0000E+00  0.0000E+00  0.0000E+00  0.0000E+00  0.0000E+00  0.0000E+00  0.0000E+00  0.0000E+00  0.0000E+00  0.0000E+00  0.0000E+00  0.0000E+00  0.0000E+00  0.0000E+00  0.0000E+00  0.0000E+00
    -29.125  0.0000E+00  0.0000E+00  0.0000E+00  0.0000E+00  0.0000E+00  0.0000E+00  0.0000E+00  0.0000E+00  0.0000E+00  0.0000E+00  0.0000E+00  0.0000E+00  0.0000E+00  0.0000E+00  0.0000E+00  0.0000E+00  0.0000E+00  0.0000E+00
    -28.981  0.0000E+00  0.0000E+00  0.0000E+00  0.0000E+00  0.0000E+00  0.0000E+00  0.0000E+00  0.0000E+00  0.0000E+00  0.0000E+00  0.0000E+00  0.0000E+00  0.0000E+00  0.0000E+00  0.0000E+00  0.0000E+00  0.0000E+00  0.0000E+00
    -28.837  0.0000E+00  0.0000E+00  0.0000E+00  0.0000E+00  0.0000E+00  0.0000E+00  0.0000E+00  0.0000E+00  0.0000E+00  0.0000E+00  0.0000E+00  0.0000E+00  0.0000E+00  0.0000E+00  0.0000E+00  0.0000E+00  0.0000E+00  0.0000E+00
    -28.694  0.0000E+00  0.0000E+00  0.0000E+00  0.0000E+00  0.0000E+00  0.0000E+00  0.0000E+00  0.0000E+00  0.0000E+00  0.0000E+00  0.0000E+00  0.0000E+00  0.0000E+00  0.0000E+00  0.0000E+00  0.0000E+00  0.0000E+00  0.0000E+00
    -28.550  0.0000E+00  0.0000E+00  0.0000E+00  0.0000E+00  0.0000E+00  0.0000E+00  0.0000E+00  0.0000E+00  0.0000E+00  0.0000E+00  0.0000E+00  0.0000E+00  0.0000E+00  0.0000E+00  0.0000E+00  0.0000E+00  0.0000E+00  0.0000E+00
    -28.406  0.0000E+00  0.0000E+00  0.0000E+00  0.0000E+00  0.0000E+00  0.0000E+00  0.0000E+00  0.0000E+00  0.0000E+00  0.0000E+00  0.0000E+00  0.0000E+00  0.0000E+00  0.0000E+00  0.0000E+00  0.0000E+00  0.0000E+00  0.0000E+00
    -28.262  0.0000E+00  0.0000E+00  0.0000E+00  0.0000E+00  0.0000E+00  0.0000E+00  0.0000E+00  0.0000E+00  0.0000E+00  0.0000E+00  0.0000E+00  0.0000E+00  0.0000E+00  0.0000E+00  0.0000E+00  0.0000E+00  0.0000E+00  0.0000E+00
    -28.119  0.0000E+00  0.0000E+00  0.0000E+00  0.0000E+00  0.0000E+00  0.0000E+00  0.0000E+00  0.0000E+00  0.0000E+00  0.0000E+00  0.0000E+00  0.0000E+00  0.0000E+00  0.0000E+00  0.0000E+00  0.0000E+00  0.0000E+00  0.0000E+00
    -27.975  0.0000E+00  0.0000E+00  0.0000E+00  0.0000E+00  0.0000E+00  0.0000E+00  0.0000E+00  0.0000E+00  0.0000E+00  0.0000E+00  0.0000E+00  0.0000E+00  0.0000E+00  0.0000E+00  0.0000E+00  0.0000E+00  0.0000E+00  0.0000E+00
    -27.831  0.0000E+00  0.0000E+00  0.0000E+00  0.0000E+00  0.0000E+00  0.0000E+00  0.0000E+00  0.0000E+00  0.0000E+00  0.0000E+00  0.0000E+00  0.0000E+00  0.0000E+00  0.0000E+00  0.0000E+00  0.0000E+00  0.0000E+00  0.0000E+00
    -27.688  0.0000E+00  0.0000E+00  0.0000E+00  0.0000E+00  0.0000E+00  0.0000E+00  0.0000E+00  0.0000E+00  0.0000E+00  0.0000E+00  0.0000E+00  0.0000E+00  0.0000E+00  0.0000E+00  0.0000E+00  0.0000E+00  0.0000E+00  0.0000E+00
    -27.544  0.0000E+00  0.0000E+00  0.0000E+00  0.0000E+00  0.0000E+00  0.0000E+00  0.0000E+00  0.0000E+00  0.0000E+00  0.0000E+00  0.0000E+00  0.0000E+00  0.0000E+00  0.0000E+00  0.0000E+00  0.0000E+00  0.0000E+00  0.0000E+00
    -27.400  0.0000E+00  0.0000E+00  0.0000E+00  0.0000E+00  0.0000E+00  0.0000E+00  0.0000E+00  0.0000E+00  0.0000E+00  0.0000E+00  0.0000E+00  0.0000E+00  0.0000E+00  0.0000E+00  0.0000E+00  0.0000E+00  0.0000E+00  0.0000E+00
    -27.256  0.0000E+00  0.0000E+00  0.0000E+00  0.0000E+00  0.0000E+00  0.0000E+00  0.0000E+00  0.0000E+00  0.0000E+00  0.0000E+00  0.0000E+00  0.0000E+00  0.0000E+00  0.0000E+00  0.0000E+00  0.0000E+00  0.0000E+00  0.0000E+00
    -27.113  0.0000E+00  0.0000E+00  0.0000E+00  0.0000E+00  0.0000E+00  0.0000E+00  0.0000E+00  0.0000E+00  0.0000E+00  0.0000E+00  0.0000E+00  0.0000E+00  0.0000E+00  0.0000E+00  0.0000E+00  0.0000E+00  0.0000E+00  0.0000E+00
    -26.969  0.0000E+00  0.0000E+00  0.0000E+00  0.0000E+00  0.0000E+00  0.0000E+00  0.0000E+00  0.0000E+00  0.0000E+00  0.0000E+00  0.0000E+00  0.0000E+00  0.0000E+00  0.0000E+00  0.0000E+00  0.0000E+00  0.0000E+00  0.0000E+00
    -26.825  0.0000E+00  0.0000E+00  0.0000E+00  0.0000E+00  0.0000E+00  0.0000E+00  0.0000E+00  0.0000E+00  0.0000E+00  0.0000E+00  0.0000E+00  0.0000E+00  0.0000E+00  0.0000E+00  0.0000E+00  0.0000E+00  0.0000E+00  0.0000E+00
    -26.681  0.0000E+00  0.0000E+00  0.0000E+00  0.0000E+00  0.0000E+00  0.0000E+00  0.0000E+00  0.0000E+00  0.0000E+00  0.0000E+00  0.0000E+00  0.0000E+00  0.0000E+00  0.0000E+00  0.0000E+00  0.0000E+00  0.0000E+00  0.0000E+00
    -26.538  0.0000E+00  0.0000E+00  0.0000E+00  0.0000E+00  0.0000E+00  0.0000E+00  0.0000E+00  0.0000E+00  0.0000E+00  0.0000E+00  0.0000E+00  0.0000E+00  0.0000E+00  0.0000E+00  0.0000E+00  0.0000E+00  0.0000E+00  0.0000E+00
    -26.394  0.0000E+00  0.0000E+00  0.0000E+00  0.0000E+00  0.0000E+00  0.0000E+00  0.0000E+00  0.0000E+00  0.0000E+00  0.0000E+00  0.0000E+00  0.0000E+00  0.0000E+00  0.0000E+00  0.0000E+00  0.0000E+00  0.0000E+00  0.0000E+00