  16  16   1   0
  0.1896780E+02  0.3574726E-09  0.3574726E-09  0.2374934E-08  0.5000000E-15
  1.000000000000000E-004
  CAR 
 unknown system                          
     12.60005158    -30.50242101  301      6.46617389      1.00000000
    -30.502  0.0000E+00  0.0000E+00  0.0000E+00  0.0000E+00
    -30.359  0.0000E+00  0.0000E+00  0.0000E+00  0.0000E+00
    -30.215  0.0000E+00  0.0000E+00  0.0000E+00  0.0000E+00
    -30.071  0.0000E+00  0.0000E+00  0.0000E+00  0.0000E+00
    -29.928  0.0000E+00  0.0000E+00  0.0000E+00  0.0000E+00
    -29.784  0.0000E+00  0.0000E+00  0.0000E+00  0.0000E+00
    -29.640  0.0000E+00  0.0000E+00  0.0000E+00  0.0000E+00
    -29.497  0.0000E+00  0.0000E+00  0.0000E+00  0.0000E+00
    -29.353  0.0000E+00  0.0000E+00  0.0000E+00  0.0000E+00
    -29.209  0.0000E+00  0.0000E+00  0.0000E+00  0.0000E+00
    -29.066  0.8377E-04  0.8385E-04  0.1204E-04  0.1205E-04
    -28.922  0.5787E-02  0.5792E-02  0.8435E-03  0.8443E-03
    -28.778  0.9758E-01  0.9767E-01  0.1486E-01  0.1488E-01
    -28.635  0.1597E+01  0.1598E+01  0.2443E+00  0.2445E+00
    -28.491  0.1243E+02  0.1244E+02  0.2031E+01  0.2032E+01
    -28.347  0.1211E+02  0.1210E+02  0.3770E+01  0.3771E+01
    -28.204  0.1502E+01  0.1500E+01  0.3986E+01  0.3986E+01
    -28.060  0.2530E-01  0.2527E-01  0.4000E+01  0.4000E+01
    -27.916  0.0000E+00  0.0000E+00  0.4000E+01  0.4000E+01
    -27.773  0.0000E+00  0.0000E+00  0.4000E+01  0.4000E+01
    -27.629  0.0000E+00  0.0000E+00  0.4000E+01  0.4000E+01
    -27.485  0.0000E+00  0.0000E+00  0.4000E+01  0.4000E+01
    -27.342  0.0000E+00  0.0000E+00  0.4000E+01  0.4000E+01
    -27.198  0.0000E+00  0.0000E+00  0.4000E+01  0.4000E+01
    -27.054  0.0000E+00  0.0000E+00  0.4000E+01  0.4000E+01
    -26.911  0.0000E+00  0.0000E+00  0.4000E+01  0.4000E+01
    -26.767  0.0000E+00  0.0000E+00  0.4000E+01  0.4000E+01
    -26.623  0.0000E+00  0.0000E+00  0.4000E+01  0.4000E+01
    -26.480  0.0000E+00  0.0000E+00  0.4000E+01  0.4000E+01
    -26.336  0.0000E+00  0.0000E+00  0.4000E+01  0.4000E+01
    -26.192  0.0000E+00  0.0000E+00  0.4000E+01  0.4000E+01
    -26.048  0.0000E+00  0.0000E+00  0.4000E+01  0.4000E+01
    -25.905  0.0000E+00  0.0000E+00  0.4000E+01  0.4000E+01
    -25.761  0.0000E+00  0.0000E+00  0.4000E+01  0.4000E+01
    -25.617  0.0000E+00  0.0000E+00  0.4000E+01  0.4000E+01
    -25.474  0.0000E+00  0.0000E+00  0.4000E+01  0.4000E+01
    -25.330  0.0000E+00  0.0000E+00  0.4000E+01  0.4000E+01
    -25.186  0.0000E+00  0.0000E+00  0.4000E+01  0.4000E+01
    -25.043  0.0000E+00  0.0000E+00  0.4000E+01  0.4000E+01
    -24.899  0.0000E+00  0.0000E+00  0.4000E+01  0.4000E+01
    -24.755  0.0000E+00  0.0000E+00  0.4000E+01  0.4000E+01
    -24.612  0.0000E+00  0.0000E+00  0.4000E+01  0.4000E+01
    -24.468  0.0000E+00  0.0000E+00  0.4000E+01  0.4000E+01
    -24.324  0.0000E+00  0.0000E+00  0.4000E+01  0.4000E+01
    -24.181  0.0000E+00  0.0000E+00  0.4000E+01  0.4000E+01
    -24.037  0.0000E+00  0.0000E+00  0.4000E+01  0.4000E+01
    -23.893  0.0000E+00  0.0000E+00  0.4000E+01  0.4000E+01
    -23.750  0.0000E+00  0.0000E+00  0.4000E+01  0.4000E+01
    -23.606  0.0000E+00  0.0000E+00  0.4000E+01  0.4000E+01
    -23.462  0.0000E+00  0.0000E+00  0.4000E+01  0.4000E+01
    -23.319  0.0000E+00  0.0000E+00  0.4000E+01  0.4000E+01
    -23.175  0.0000E+00  0.0000E+00  0.4000E+01  0.4000E+01
    -23.031  0.0000E+00  0.0000E+00  0.4000E+01  0.4000E+01
    -22.888  0.0000E+00  0.0000E+00  0.4000E+01  0.4000E+01
    -22.744  0.0000E+00  0.0000E+00  0.4000E+01  0.4000E+01
    -22.600  0.0000E+00  0.0000E+00  0.4000E+01  0.4000E+01
    -22.457  0.0000E+00  0.0000E+00  0.4000E+01  0.4000E+01
    -22.313  0.0000E+00  0.0000E+00  0.4000E+01  0.4000E+01
    -22.169  0.0000E+00  0.0000E+00  0.4000E+01  0.4000E+01
    -22.026  0.0000E+00  0.0000E+00  0.4000E+01  0.4000E+01
    -21.882  0.0000E+00  0.0000E+00  0.4000E+01  0.4000E+01
    -21.738  0.0000E+00  0.0000E+00  0.4000E+01  0.4000E+01
    -21.595  0.0000E+00  0.0000E+00  0.4000E+01  0.4000E+01
    -21.451  0.0000E+00  0.0000E+00  0.4000E+01  0.4000E+01
    -21.307  0.0000E+00  0.0000E+00  0.4000E+01  0.4000E+01
    -21.164  0.0000E+00  0.0000E+00  0.4000E+01  0.4000E+01
    -21.020  0.0000E+00  0.0000E+00  0.4000E+01  0.4000E+01
    -20.876  0.0000E+00  0.0000E+00  0.4000E+01  0.4000E+01
    -20.733  0.0000E+00  0.0000E+00  0.4000E+01  0.4000E+01
    -20.589  0.0000E+00  0.0000E+00  0.4000E+01  0.4000E+01
    -20.445  0.0000E+00  0.0000E+00  0.4000E+01  0.4000E+01
    -20.302  0.0000E+00  0.0000E+00  0.4000E+01  0.4000E+01
    -20.158  0.0000E+00  0.0000E+00  0.4000E+01  0.4000E+01
    -20.014  0.0000E+00  0.0000E+00  0.4000E+01  0.4000E+01
    -19.870  0.0000E+00  0.0000E+00  0.4000E+01  0.4000E+01
    -19.727  0.0000E+00  0.0000E+00  0.4000E+01  0.4000E+01
    -19.583  0.0000E+00  0.0000E+00  0.4000E+01  0.4000E+01
    -19.439  0.0000E+00  0.0000E+00  0.4000E+01  0.4000E+01
    -19.296  0.0000E+00  0.0000E+00  0.4000E+01  0.4000E+01
    -19.152  0.0000E+00  0.0000E+00  0.4000E+01  0.4000E+01
    -19.008  0.0000E+00  0.0000E+00  0.4000E+01  0.4000E+01
    -18.865  0.0000E+00  0.0000E+00  0.4000E+01  0.4000E+01
    -18.721  0.0000E+00  0.0000E+00  0.4000E+01  0.4000E+01
    -18.577  0.0000E+00  0.0000E+00  0.4000E+01  0.4000E+01
    -18.434  0.0000E+00  0.0000E+00  0.4000E+01  0.4000E+01
    -18.290  0.0000E+00  0.0000E+00  0.4000E+01  0.4000E+01
    -18.146  0.0000E+00  0.0000E+00  0.4000E+01  0.4000E+01
    -18.003  0.0000E+00  0.0000E+00  0.4000E+01  0.4000E+01
    -17.859  0.0000E+00  0.0000E+00  0.4000E+01  0.4000E+01
    -17.715  0.0000E+00  0.0000E+00  0.4000E+01  0.4000E+01
    -17.572  0.0000E+00  0.0000E+00  0.4000E+01  0.4000E+01
    -17.428  0.0000E+00  0.0000E+00  0.4000E+01  0.4000E+01
    -17.284  0.0000E+00  0.0000E+00  0.4000E+01  0.4000E+01
    -17.141  0.0000E+00  0.0000E+00  0.4000E+01  0.4000E+01
    -16.997  0.0000E+00  0.0000E+00  0.4000E+01  0.4000E+01
    -16.853  0.0000E+00  0.0000E+00  0.4000E+01  0.4000E+01
    -16.710  0.0000E+00  0.0000E+00  0.4000E+01  0.4000E+01
    -16.566  0.0000E+00  0.0000E+00  0.4000E+01  0.4000E+01
    -16.422  0.0000E+00  0.0000E+00  0.4000E+01  0.4000E+01
    -16.279  0.0000E+00  0.0000E+00  0.4000E+01  0.4000E+01
    -16.135  0.0000E+00  0.0000E+00  0.4000E+01  0.4000E+01
    -15.991  0.0000E+00  0.0000E+00  0.4000E+01  0.4000E+01
    -15.848  0.0000E+00  0.0000E+00  0.4000E+01  0.4000E+01
    -15.704  0.0000E+00  0.0000E+00  0.4000E+01  0.4000E+01
    -15.560  0.0000E+00  0.0000E+00  0.4000E+01  0.4000E+01
    -15.417  0.0000E+00  0.0000E+00  0.4000E+01  0.4000E+01
    -15.273  0.0000E+00  0.0000E+00  0.4000E+01  0.4000E+01
    -15.129  0.0000E+00  0.0000E+00  0.4000E+01  0.4000E+01
    -14.986  0.0000E+00  0.0000E+00  0.4000E+01  0.4000E+01
    -14.842  0.0000E+00  0.0000E+00  0.4000E+01  0.4000E+01
    -14.698  0.0000E+00  0.0000E+00  0.4000E+01  0.4000E+01
    -14.555  0.0000E+00  0.0000E+00  0.4000E+01  0.4000E+01
    -14.411  0.0000E+00  0.0000E+00  0.4000E+01  0.4000E+01
    -14.267  0.0000E+00  0.0000E+00  0.4000E+01  0.4000E+01
    -14.123  0.0000E+00  0.0000E+00  0.4000E+01  0.4000E+01
    -13.980  0.0000E+00  0.0000E+00  0.4000E+01  0.4000E+01
    -13.836  0.0000E+00  0.0000E+00  0.4000E+01  0.4000E+01
    -13.692  0.0000E+00  0.0000E+00  0.4000E+01  0.4000E+01
    -13.549  0.0000E+00  0.0000E+00  0.4000E+01  0.4000E+01
    -13.405  0.0000E+00  0.0000E+00  0.4000E+01  0.4000E+01
    -13.261  0.0000E+00  0.0000E+00  0.4000E+01  0.4000E+01
    -13.118  0.0000E+00  0.0000E+00  0.4000E+01  0.4000E+01
    -12.974  0.0000E+00  0.0000E+00  0.4000E+01  0.4000E+01
    -12.830  0.0000E+00  0.0000E+00  0.4000E+01  0.4000E+01
    -12.687  0.0000E+00  0.0000E+00  0.4000E+01  0.4000E+01
    -12.543  0.0000E+00  0.0000E+00  0.4000E+01  0.4000E+01
    -12.399  0.0000E+00  0.0000E+00  0.4000E+01  0.4000E+01
    -12.256  0.0000E+00  0.0000E+00  0.4000E+01  0.4000E+01
    -12.112  0.0000E+00  0.0000E+00  0.4000E+01  0.4000E+01
    -11.968  0.0000E+00  0.0000E+00  0.4000E+01  0.4000E+01
    -11.825  0.0000E+00  0.0000E+00  0.4000E+01  0.4000E+01
    -11.681  0.0000E+00  0.0000E+00  0.4000E+01  0.4000E+01
    -11.537  0.3690E-03  0.3553E-03  0.4000E+01  0.4000E+01
    -11.394  0.7598E-02  0.7584E-02  0.4001E+01  0.4001E+01
    -11.250  0.1324E+00  0.1319E+00  0.4020E+01  0.4020E+01
    -11.106  0.1856E+01  0.1850E+01  0.4287E+01  0.4286E+01
    -10.963  0.8968E+01  0.8960E+01  0.5575E+01  0.5573E+01
    -10.819  0.1384E+02  0.1384E+02  0.7564E+01  0.7562E+01
    -10.675  0.2138E+02  0.2137E+02  0.1064E+02  0.1063E+02
    -10.532  0.1959E+02  0.1959E+02  0.1345E+02  0.1345E+02
    -10.388  0.1247E+02  0.1248E+02  0.1525E+02  0.1525E+02
    -10.244  0.4684E+01  0.4690E+01  0.1593E+02  0.1593E+02
    -10.101  0.4231E+00  0.4240E+00  0.1600E+02  0.1600E+02
     -9.957  0.0000E+00  0.0000E+00  0.1600E+02  0.1600E+02
     -9.813  0.0000E+00  0.0000E+00  0.1600E+02  0.1600E+02
     -9.670  0.0000E+00  0.0000E+00  0.1600E+02  0.1600E+02
     -9.526  0.0000E+00  0.0000E+00  0.1600E+02  0.1600E+02
     -9.382  0.0000E+00  0.0000E+00  0.1600E+02  0.1600E+02
     -9.239  0.0000E+00  0.0000E+00  0.1600E+02  0.1600E+02
     -9.095  0.0000E+00  0.0000E+00  0.1600E+02  0.1600E+02
     -8.951  0.0000E+00  0.0000E+00  0.1600E+02  0.1600E+02
     -8.808  0.0000E+00  0.0000E+00  0.1600E+02  0.1600E+02
     -8.664  0.0000E+00  0.0000E+00  0.1600E+02  0.1600E+02
     -8.520  0.0000E+00  0.0000E+00  0.1600E+02  0.1600E+02
     -8.376  0.0000E+00  0.0000E+00  0.1600E+02  0.1600E+02
     -8.233  0.0000E+00  0.0000E+00  0.1600E+02  0.1600E+02
     -8.089  0.0000E+00  0.0000E+00  0.1600E+02  0.1600E+02
     -7.945  0.0000E+00  0.0000E+00  0.1600E+02  0.1600E+02
     -7.802  0.0000E+00  0.0000E+00  0.1600E+02  0.1600E+02
     -7.658  0.0000E+00  0.0000E+00  0.1600E+02  0.1600E+02
     -7.514  0.0000E+00  0.0000E+00  0.1600E+02  0.1600E+02
     -7.371  0.0000E+00  0.0000E+00  0.1600E+02  0.1600E+02
     -7.227  0.0000E+00  0.0000E+00  0.1600E+02  0.1600E+02
     -7.083  0.0000E+00  0.0000E+00  0.1600E+02  0.1600E+02
     -6.940  0.0000E+00  0.0000E+00  0.1600E+02  0.1600E+02
     -6.796  0.0000E+00  0.0000E+00  0.1600E+02  0.1600E+02
     -6.652  0.0000E+00  0.0000E+00  0.1600E+02  0.1600E+02
     -6.509  0.0000E+00  0.0000E+00  0.1600E+02  0.1600E+02
     -6.365  0.0000E+00  0.0000E+00  0.1600E+02  0.1600E+02
     -6.221  0.0000E+00  0.0000E+00  0.1600E+02  0.1600E+02
     -6.078  0.0000E+00  0.0000E+00  0.1600E+02  0.1600E+02
     -5.934  0.0000E+00  0.0000E+00  0.1600E+02  0.1600E+02
     -5.790  0.0000E+00  0.0000E+00  0.1600E+02  0.1600E+02
     -5.647  0.0000E+00  0.0000E+00  0.1600E+02  0.1600E+02
     -5.503  0.0000E+00  0.0000E+00  0.1600E+02  0.1600E+02
     -5.359  0.0000E+00  0.0000E+00  0.1600E+02  0.1600E+02
     -5.216  0.0000E+00  0.0000E+00  0.1600E+02  0.1600E+02
     -5.072  0.2953E-05  0.3001E-05  0.1600E+02  0.1600E+02
     -4.928  0.1195E-03  0.1215E-03  0.1600E+02  0.1600E+02
     -4.785  0.2051E-02  0.2085E-02  0.1600E+02  0.1600E+02
     -4.641  0.3305E-01  0.3354E-01  0.1601E+02  0.1601E+02
     -4.497  0.2622E+00  0.2642E+00  0.1604E+02  0.1604E+02
     -4.354  0.4936E+00  0.4939E+00  0.1611E+02  0.1611E+02
     -4.210  0.6324E+00  0.6331E+00  0.1620E+02  0.1621E+02
     -4.066  0.4564E+00  0.4555E+00  0.1627E+02  0.1627E+02
     -3.923  0.6574E+00  0.6591E+00  0.1636E+02  0.1637E+02
     -3.779  0.5800E+00  0.5783E+00  0.1645E+02  0.1645E+02
     -3.635  0.5058E+00  0.5050E+00  0.1652E+02  0.1652E+02
     -3.492  0.5211E+00  0.5231E+00  0.1660E+02  0.1660E+02
     -3.348  0.7776E+00  0.7770E+00  0.1671E+02  0.1671E+02
     -3.204  0.5795E+00  0.5781E+00  0.1679E+02  0.1679E+02
     -3.061  0.2598E+00  0.2591E+00  0.1683E+02  0.1683E+02
     -2.917  0.7375E+00  0.7421E+00  0.1693E+02  0.1694E+02
     -2.773  0.8214E+00  0.8181E+00  0.1705E+02  0.1705E+02
     -2.629  0.5230E+00  0.5224E+00  0.1713E+02  0.1713E+02
     -2.486  0.3934E+00  0.3932E+00  0.1718E+02  0.1719E+02
     -2.342  0.8143E+00  0.8142E+00  0.1730E+02  0.1730E+02
     -2.198  0.1210E+01  0.1209E+01  0.1748E+02  0.1748E+02
     -2.055  0.1204E+01  0.1202E+01  0.1765E+02  0.1765E+02
     -1.911  0.1262E+01  0.1264E+01  0.1783E+02  0.1783E+02
     -1.767  0.1033E+01  0.1029E+01  0.1798E+02  0.1798E+02
     -1.624  0.1088E+01  0.1089E+01  0.1814E+02  0.1814E+02
     -1.480  0.9505E+00  0.9520E+00  0.1827E+02  0.1827E+02
     -1.336  0.1381E+01  0.1382E+01  0.1847E+02  0.1847E+02
     -1.193  0.1777E+01  0.1776E+01  0.1873E+02  0.1873E+02
     -1.049  0.1017E+01  0.1014E+01  0.1887E+02  0.1887E+02
     -0.905  0.6889E+00  0.6922E+00  0.1897E+02  0.1897E+02
     -0.762  0.1091E+01  0.1088E+01  0.1913E+02  0.1913E+02
     -0.618  0.2085E+01  0.2090E+01  0.1943E+02  0.1943E+02
     -0.474  0.2131E+01  0.2133E+01  0.1974E+02  0.1974E+02
     -0.331  0.1820E+01  0.1818E+01  0.2000E+02  0.2000E+02
     -0.187  0.1826E+01  0.1828E+01  0.2026E+02  0.2026E+02
     -0.043  0.2769E+01  0.2770E+01  0.2066E+02  0.2066E+02
      0.100  0.2346E+01  0.2343E+01  0.2100E+02  0.2100E+02
      0.244  0.1725E+01  0.1722E+01  0.2125E+02  0.2125E+02
      0.388  0.1553E+01  0.1554E+01  0.2147E+02  0.2147E+02
      0.531  0.1059E+01  0.1057E+01  0.2162E+02  0.2162E+02
      0.675  0.7236E+00  0.7218E+00  0.2173E+02  0.2173E+02
      0.819  0.7692E+00  0.7657E+00  0.2184E+02  0.2184E+02
      0.962  0.1006E+01  0.1006E+01  0.2198E+02  0.2198E+02
      1.106  0.8771E+00  0.8823E+00  0.2211E+02  0.2211E+02
      1.250  0.9533E+00  0.9563E+00  0.2225E+02  0.2225E+02
      1.393  0.1908E+01  0.1909E+01  0.2252E+02  0.2252E+02
      1.537  0.1805E+01  0.1804E+01  0.2278E+02  0.2278E+02
      1.681  0.1759E+01  0.1760E+01  0.2303E+02  0.2303E+02
      1.824  0.2819E+01  0.2819E+01  0.2344E+02  0.2344E+02
      1.968  0.2135E+01  0.2133E+01  0.2375E+02  0.2375E+02
      2.112  0.1622E+01  0.1624E+01  0.2398E+02  0.2398E+02
      2.255  0.2371E+01  0.2369E+01  0.2432E+02  0.2432E+02
      2.399  0.2387E+01  0.2390E+01  0.2466E+02  0.2466E+02
      2.543  0.2078E+01  0.2077E+01  0.2496E+02  0.2496E+02
      2.686  0.2055E+01  0.2053E+01  0.2526E+02  0.2526E+02
      2.830  0.2425E+01  0.2423E+01  0.2561E+02  0.2561E+02
      2.974  0.2804E+01  0.2802E+01  0.2601E+02  0.2601E+02
      3.118  0.2169E+01  0.2171E+01  0.2632E+02  0.2632E+02
      3.261  0.2821E+01  0.2826E+01  0.2673E+02  0.2673E+02
      3.405  0.3348E+01  0.3346E+01  0.2721E+02  0.2721E+02
      3.549  0.2901E+01  0.2902E+01  0.2763E+02  0.2763E+02
      3.692  0.2943E+01  0.2939E+01  0.2805E+02  0.2805E+02
      3.836  0.2395E+01  0.2393E+01  0.2840E+02  0.2840E+02
      3.980  0.2612E+01  0.2609E+01  0.2877E+02  0.2877E+02
      4.123  0.3133E+01  0.3134E+01  0.2922E+02  0.2922E+02
      4.267  0.3532E+01  0.3530E+01  0.2973E+02  0.2973E+02
      4.411  0.3324E+01  0.3326E+01  0.3021E+02  0.3021E+02
      4.554  0.3573E+01  0.3579E+01  0.3073E+02  0.3073E+02
      4.698  0.4470E+01  0.4470E+01  0.3137E+02  0.3137E+02
      4.842  0.3808E+01  0.3802E+01  0.3192E+02  0.3192E+02
      4.985  0.3652E+01  0.3653E+01  0.3244E+02  0.3244E+02
      5.129  0.4415E+01  0.4411E+01  0.3308E+02  0.3308E+02
      5.273  0.4068E+01  0.4070E+01  0.3366E+02  0.3366E+02
      5.416  0.4987E+01  0.4990E+01  0.3438E+02  0.3438E+02
      5.560  0.3296E+01  0.3298E+01  0.3486E+02  0.3486E+02
      5.704  0.2706E+01  0.2706E+01  0.3525E+02  0.3525E+02
      5.847  0.3060E+01  0.3059E+01  0.3569E+02  0.3569E+02
      5.991  0.3943E+01  0.3941E+01  0.3625E+02  0.3625E+02
      6.135  0.4108E+01  0.4110E+01  0.3685E+02  0.3685E+02
      6.278  0.3715E+01  0.3711E+01  0.3738E+02  0.3738E+02
      6.422  0.3466E+01  0.3463E+01  0.3788E+02  0.3788E+02
      6.566  0.2722E+01  0.2720E+01  0.3827E+02  0.3827E+02
      6.709  0.3410E+01  0.3409E+01  0.3876E+02  0.3876E+02
      6.853  0.3165E+01  0.3165E+01  0.3922E+02  0.3922E+02
      6.997  0.3692E+01  0.3690E+01  0.3975E+02  0.3975E+02
      7.140  0.3518E+01  0.3524E+01  0.4026E+02  0.4025E+02
      7.284  0.3115E+01  0.3116E+01  0.4070E+02  0.4070E+02
      7.428  0.2907E+01  0.2904E+01  0.4112E+02  0.4112E+02
      7.571  0.3976E+01  0.3975E+01  0.4170E+02  0.4169E+02
      7.715  0.3771E+01  0.3775E+01  0.4224E+02  0.4224E+02
      7.859  0.4208E+01  0.4208E+01  0.4284E+02  0.4284E+02
      8.002  0.5693E+01  0.5691E+01  0.4366E+02  0.4366E+02
      8.146  0.5456E+01  0.5457E+01  0.4445E+02  0.4445E+02
      8.290  0.5425E+01  0.5426E+01  0.4523E+02  0.4523E+02
      8.433  0.6372E+01  0.6368E+01  0.4615E+02  0.4614E+02
      8.577  0.6509E+01  0.6514E+01  0.4708E+02  0.4708E+02
      8.721  0.4849E+01  0.4852E+01  0.4778E+02  0.4778E+02
      8.865  0.3609E+01  0.3607E+01  0.4830E+02  0.4830E+02
      9.008  0.3778E+01  0.3776E+01  0.4885E+02  0.4885E+02
      9.152  0.4181E+01  0.4181E+01  0.4945E+02  0.4945E+02
      9.296  0.2900E+01  0.2900E+01  0.4987E+02  0.4986E+02
      9.439  0.2270E+01  0.2259E+01  0.5019E+02  0.5019E+02
      9.583  0.2298E+01  0.2273E+01  0.5052E+02  0.5052E+02
      9.727  0.1692E+01  0.1752E+01  0.5077E+02  0.5077E+02
      9.870  0.2059E+01  0.2161E+01  0.5106E+02  0.5108E+02
     10.014  0.2087E+01  0.2005E+01  0.5136E+02  0.5137E+02
     10.158  0.1705E+01  0.1654E+01  0.5161E+02  0.5161E+02
     10.301  0.1189E+01  0.1220E+01  0.5178E+02  0.5178E+02
     10.445  0.7787E+00  0.9644E+00  0.5189E+02  0.5192E+02
     10.589  0.5050E+00  0.4311E+00  0.5197E+02  0.5199E+02
     10.732  0.2009E+00  0.8225E-01  0.5200E+02  0.5200E+02
     10.876  0.2201E-01  0.8314E-02  0.5200E+02  0.5200E+02
     11.020  0.4658E-03  0.4314E-03  0.5200E+02  0.5200E+02
     11.163  0.0000E+00  0.0000E+00  0.5200E+02  0.5200E+02
     11.307  0.0000E+00  0.0000E+00  0.5200E+02  0.5200E+02
     11.451  0.0000E+00  0.0000E+00  0.5200E+02  0.5200E+02
     11.594  0.0000E+00  0.0000E+00  0.5200E+02  0.5200E+02
     11.738  0.0000E+00  0.0000E+00  0.5200E+02  0.5200E+02
     11.882  0.0000E+00  0.0000E+00  0.5200E+02  0.5200E+02
     12.025  0.0000E+00  0.0000E+00  0.5200E+02  0.5200E+02
     12.169  0.0000E+00  0.0000E+00  0.5200E+02  0.5200E+02
     12.313  0.0000E+00  0.0000E+00  0.5200E+02  0.5200E+02
     12.456  0.0000E+00  0.0000E+00  0.5200E+02  0.5200E+02
     12.600  0.0000E+00  0.0000E+00  0.5200E+02  0.5200E+02
     12.60005158    -30.50242101  301      6.46617389      1.00000000
    -30.502  0.0000E+00  0.0000E+00  0.0000E+00  0.0000E+00  0.0000E+00  0.0000E+00  0.0000E+00  0.0000E+00  0.0000E+00  0.0000E+00  0.0000E+00  0.0000E+00  0.0000E+00  0.0000E+00  0.0000E+00  0.0000E+00  0.0000E+00  0.0000E+00
    -30.359  0.0000E+00  0.0000E+00  0.0000E+00  0.0000E+00  0.0000E+00  0.0000E+00  0.0000E+00  0.0000E+00  0.0000E+00  0.0000E+00  0.0000E+00  0.0000E+00  0.0000E+00  0.0000E+00  0.0000E+00  0.0000E+00  0.0000E+00  0.0000E+00
    -30.215  0.0000E+00  0.0000E+00  0.0000E+00  0.0000E+00  0.0000E+00  0.0000E+00  0.0000E+00  0.0000E+00  0.0000E+00  0.0000E+00  0.0000E+00  0.0000E+00  0.0000E+00  0.0000E+00  0.0000E+00  0.0000E+00  0.0000E+00  0.0000E+00
    -30.071  0.0000E+00  0.0000E+00  0.0000E+00  0.0000E+00  0.0000E+00  0.0000E+00  0.0000E+00  0.0000E+00  0.0000E+00  0.0000E+00  0.0000E+00  0.0000E+00  0.0000E+00  0.0000E+00  0.0000E+00  0.0000E+00  0.0000E+00  0.0000E+00
    -29.928  0.0000E+00  0.0000E+00  0.0000E+00  0.0000E+00  0.0000E+00  0.0000E+00  0.0000E+00  0.0000E+00  0.0000E+00  0.0000E+00  0.0000E+00  0.0000E+00  0.0000E+00  0.0000E+00  0.0000E+00  0.0000E+00  0.0000E+00  0.0000E+00
    -29.784  0.0000E+00  0.0000E+00  0.0000E+00  0.0000E+00  0.0000E+00  0.0000E+00  0.0000E+00  0.0000E+00  0.0000E+00  0.0000E+00  0.0000E+00  0.0000E+00  0.0000E+00  0.0000E+00  0.0000E+00  0.0000E+00  0.0000E+00  0.0000E+00
    -29.640  0.0000E+00  0.0000E+00  0.0000E+00  0.0000E+00  0.0000E+00  0.0000E+00  0.0000E+00  0.0000E+00  0.0000E+00  0.0000E+00  0.0000E+00  0.0000E+00  0.0000E+00  0.0000E+00  0.0000E+00  0.0000E+00  0.0000E+00  0.0000E+00
    -29.497  0.0000E+00  0.0000E+00  0.0000E+00  0.0000E+00  0.0000E+00  0.0000E+00  0.0000E+00  0.0000E+00  0.0000E+00  0.0000E+00  0.0000E+00  0.0000E+00  0.0000E+00  0.0000E+00  0.0000E+00  0.0000E+00  0.0000E+00  0.0000E+00
    -29.353  0.0000E+00  0.0000E+00  0.0000E+00  0.0000E+00  0.0000E+00  0.0000E+00  0.0000E+00  0.0000E+00  0.0000E+00  0.0000E+00  0.0000E+00  0.0000E+00  0.0000E+00  0.0000E+00  0.0000E+00  0.0000E+00  0.0000E+00  0.0000E+00
    -29.209  0.0000E+00  0.0000E+00  0.0000E+00  0.0000E+00  0.0000E+00  0.0000E+00  0.0000E+00  0.0000E+00  0.0000E+00  0.0000E+00  0.0000E+00  0.0000E+00  0.0000E+00  0.0000E+00  0.0000E+00  0.0000E+00  0.0000E+00  0.0000E+00
    -29.066  0.2040E-04  0.2042E-04  0.4907E-10  0.4913E-10  0.2207E-10  0.2236E-10  0.4907E-10  0.4913E-10  0.2118E-14  0.2253E-14  0.1649E-13  0.1666E-13  0.1009E-09  0.1008E-09  0.1649E-13  0.1666E-13  0.3662E-11  0.3661E-11
    -28.922  0.1412E-02  0.1414E-02  0.5796E-08  0.5802E-08  0.1369E-08  0.1386E-08  0.5796E-08  0.5802E-08  0.5427E-12  0.5947E-12  0.1798E-11  0.1810E-11  0.3008E-08  0.3005E-08  0.1798E-11  0.1810E-11  0.3296E-08  0.3294E-08
    -28.778  0.2381E-01  0.2383E-01  0.9719E-07  0.9728E-07  0.2312E-07  0.2341E-07  0.9719E-07  0.9728E-07  0.9062E-11  0.9930E-11  0.3016E-10  0.3037E-10  0.5158E-07  0.5154E-07  0.3016E-10  0.3037E-10  0.5491E-07  0.5487E-07
    -28.635  0.3898E+00  0.3901E+00  0.1599E-05  0.1601E-05  0.3773E-06  0.3820E-06  0.1599E-05  0.1601E-05  0.1498E-09  0.1643E-09  0.4954E-09  0.4987E-09  0.8211E-06  0.8205E-06  0.4954E-09  0.4987E-09  0.9139E-06  0.9131E-06
    -28.491  0.3036E+01  0.3037E+01  0.1277E-04  0.1277E-04  0.2872E-05  0.2906E-05  0.1277E-04  0.1277E-04  0.1225E-08  0.1352E-08  0.3891E-08  0.3914E-08  0.5150E-05  0.5142E-05  0.3891E-08  0.3914E-08  0.7778E-05  0.7768E-05
    -28.347  0.2958E+01  0.2957E+01  0.1236E-04  0.1235E-04  0.2693E-05  0.2722E-05  0.1236E-04  0.1235E-04  0.1177E-08  0.1313E-08  0.3656E-08  0.3673E-08  0.3557E-05  0.3547E-05  0.3656E-08  0.3673E-08  0.7608E-05  0.7593E-05
    -28.204  0.3671E+00  0.3667E+00  0.1486E-05  0.1485E-05  0.3271E-06  0.3303E-06  0.1486E-05  0.1485E-05  0.1372E-09  0.1541E-09  0.4326E-09  0.4343E-09  0.3800E-06  0.3786E-06  0.4326E-09  0.4343E-09  0.8711E-06  0.8689E-06
    -28.060  0.6196E-02  0.6189E-02  0.1541E-07  0.1538E-07  0.4972E-08  0.5015E-08  0.1541E-07  0.1538E-07  0.5058E-12  0.6033E-12  0.4059E-11  0.4074E-11  0.5929E-08  0.5888E-08  0.4059E-11  0.4074E-11  0.2044E-08  0.2042E-08
    -27.916  0.0000E+00  0.0000E+00  0.0000E+00  0.0000E+00  0.0000E+00  0.0000E+00  0.0000E+00  0.0000E+00  0.0000E+00  0.0000E+00  0.0000E+00  0.0000E+00  0.0000E+00  0.0000E+00  0.0000E+00  0.0000E+00  0.0000E+00  0.0000E+00
    -27.773  0.0000E+00  0.0000E+00  0.0000E+00  0.0000E+00  0.0000E+00  0.0000E+00  0.0000E+00  0.0000E+00  0.0000E+00  0.0000E+00  0.0000E+00  0.0000E+00  0.0000E+00  0.0000E+00  0.0000E+00  0.0000E+00  0.0000E+00  0.0000E+00
    -27.629  0.0000E+00  0.0000E+00  0.0000E+00  0.0000E+00  0.0000E+00  0.0000E+00  0.0000E+00  0.0000E+00  0.0000E+00  0.0000E+00  0.0000E+00  0.0000E+00  0.0000E+00  0.0000E+00  0.0000E+00  0.0000E+00  0.0000E+00  0.0000E+00
    -27.485  0.0000E+00  0.0000E+00  0.0000E+00  0.0000E+00  0.0000E+00  0.0000E+00  0.0000E+00  0.0000E+00  0.0000E+00  0.0000E+00  0.0000E+00  0.0000E+00  0.0000E+00  0.0000E+00  0.0000E+00  0.0000E+00  0.0000E+00  0.0000E+00
    -27.342  0.0000E+00  0.0000E+00  0.0000E+00  0.0000E+00  0.0000E+00  0.0000E+00  0.0000E+00  0.0000E+00  0.0000E+00  0.0000E+00  0.0000E+00  0.0000E+00  0.0000E+00  0.0000E+00  0.0000E+00  0.0000E+00  0.0000E+00  0.0000E+00
    -27.198  0.0000E+00  0.0000E+00  0.0000E+00  0.0000E+00  0.0000E+00  0.0000E+00  0.0000E+00  0.0000E+00  0.0000E+00  0.0000E+00  0.0000E+00  0.0000E+00  0.0000E+00  0.0000E+00  0.0000E+00  0.0000E+00  0.0000E+00  0.0000E+00
    -27.054  0.0000E+00  0.0000E+00  0.0000E+00  0.0000E+00  0.0000E+00  0.0000E+00  0.0000E+00  0.0000E+00  0.0000E+00  0.0000E+00  0.0000E+00  0.0000E+00  0.0000E+00  0.0000E+00  0.0000E+00  0.0000E+00  0.0000E+00  0.0000E+00
    -26.911  0.0000E+00  0.0000E+00  0.0000E+00  0.0000E+00  0.0000E+00  0.0000E+00  0.0000E+00  0.0000E+00  0.0000E+00  0.0000E+00  0.0000E+00  0.0000E+00  0.0000E+00  0.0000E+00  0.0000E+00  0.0000E+00  0.0000E+00  0.0000E+00
    -26.767  0.0000E+00  0.0000E+00  0.0000E+00  0.0000E+00  0.0000E+00  0.0000E+00  0.0000E+00  0.0000E+00  0.0000E+00  0.0000E+00  0.0000E+00  0.0000E+00  0.0000E+00  0.0000E+00  0.0000E+00  0.0000E+00  0.0000E+00  0.0000E+00
    -26.623  0.0000E+00  0.0000E+00  0.0000E+00  0.0000E+00  0.0000E+00  0.0000E+00  0.0000E+00  0.0000E+00  0.0000E+00  0.0000E+00  0.0000E+00  0.0000E+00  0.0000E+00  0.0000E+00  0.0000E+00  0.0000E+00  0.0000E+00  0.0000E+00
    -26.480  0.0000E+00  0.0000E+00  0.0000E+00  0.0000E+00  0.0000E+00  0.0000E+00  0.0000E+00  0.0000E+00  0.0000E+00  0.0000E+00  0.0000E+00  0.0000E+00  0.0000E+00  0.0000E+00  0.0000E+00  0.0000E+00  0.0000E+00  0.0000E+00
    -26.336  0.0000E+00  0.0000E+00  0.0000E+00  0.0000E+00  0.0000E+00  0.0000E+00  0.0000E+00  0.0000E+00  0.0000E+00  0.0000E+00  0.0000E+00  0.0000E+00  0.0000E+00  0.0000E+00  0.0000E+00  0.0000E+00  0.0000E+00  0.0000E+00
    -26.192  0.0000E+00  0.0000E+00  0.0000E+00  0.0000E+00  0.0000E+00  0.0000E+00  0.0000E+00  0.0000E+00  0.0000E+00  0.0000E+00  0.0000E+00  0.0000E+00  0.0000E+00  0.0000E+00  0.0000E+00  0.0000E+00  0.0000E+00  0.0000E+00
    -26.048  0.0000E+00  0.0000E+00  0.0000E+00  0.0000E+00  0.0000E+00  0.0000E+00  0.0000E+00  0.0000E+00  0.0000E+00  0.0000E+00  0.0000E+00  0.0000E+00  0.0000E+00  0.0000E+00  0.0000E+00  0.0000E+00  0.0000E+00  0.0000E+00
    -25.905  0.0000E+00  0.0000E+00  0.0000E+00  0.0000E+00  0.0000E+00  0.0000E+00  0.0000E+00  0.0000E+00  0.0000E+00  0.0000E+00  0.0000E+00  0.0000E+00  0.0000E+00  0.0000E+00  0.0000E+00  0.0000E+00  0.0000E+00  0.0000E+00
    -25.761  0.0000E+00  0.0000E+00  0.0000E+00  0.0000E+00  0.0000E+00  0.0000E+00  0.0000E+00  0.0000E+00  0.0000E+00  0.0000E+00  0.0000E+00  0.0000E+00  0.0000E+00  0.0000E+00  0.0000E+00  0.0000E+00  0.0000E+00  0.0000E+00
    -25.617  0.0000E+00  0.0000E+00  0.0000E+00  0.0000E+00  0.0000E+00  0.0000E+00  0.0000E+00  0.0000E+00  0.0000E+00  0.0000E+00  0.0000E+00  0.0000E+00  0.0000E+00  0.0000E+00  0.0000E+00  0.0000E+00  0.0000E+00  0.0000E+00
    -25.474  0.0000E+00  0.0000E+00  0.0000E+00  0.0000E+00  0.0000E+00  0.0000E+00  0.0000E+00  0.0000E+00  0.0000E+00  0.0000E+00  0.0000E+00  0.0000E+00  0.0000E+00  0.0000E+00  0.0000E+00  0.0000E+00  0.0000E+00  0.0000E+00
    -25.330  0.0000E+00  0.0000E+00  0.0000E+00  0.0000E+00  0.0000E+00  0.0000E+00  0.0000E+00  0.0000E+00  0.0000E+00  0.0000E+00  0.0000E+00  0.0000E+00  0.0000E+00  0.0000E+00  0.0000E+00  0.0000E+00  0.0000E+00  0.0000E+00
    -25.186  0.0000E+00  0.0000E+00  0.0000E+00  0.0000E+00  0.0000E+00  0.0000E+00  0.0000E+00  0.0000E+00  0.0000E+00  0.0000E+00  0.0000E+00  0.0000E+00  0.0000E+00  0.0000E+00  0.0000E+00  0.0000E+00  0.0000E+00  0.0000E+00
    -25.043  0.0000E+00  0.0000E+00  0.0000E+00  0.0000E+00  0.0000E+00  0.0000E+00  0.0000E+00  0.0000E+00  0.0000E+00  0.0000E+00  0.0000E+00  0.0000E+00  0.0000E+00  0.0000E+00  0.0000E+00  0.0000E+00  0.0000E+00  0.0000E+00
    -24.899  0.0000E+00  0.0000E+00  0.0000E+00  0.0000E+00  0.0000E+00  0.0000E+00  0.0000E+00  0.0000E+00  0.0000E+00  0.0000E+00  0.0000E+00  0.0000E+00  0.0000E+00  0.0000E+00  0.0000E+00  0.0000E+00  0.0000E+00  0.0000E+00
    -24.755  0.0000E+00  0.0000E+00  0.0000E+00  0.0000E+00  0.0000E+00  0.0000E+00  0.0000E+00  0.0000E+00  0.0000E+00  0.0000E+00  0.0000E+00  0.0000E+00  0.0000E+00  0.0000E+00  0.0000E+00  0.0000E+00  0.0000E+00  0.0000E+00
    -24.612  0.0000E+00  0.0000E+00  0.0000E+00  0.0000E+00  0.0000E+00  0.0000E+00  0.0000E+00  0.0000E+00  0.0000E+00  0.0000E+00  0.0000E+00  0.0000E+00  0.0000E+00  0.0000E+00  0.0000E+00  0.0000E+00  0.0000E+00  0.0000E+00
    -24.468  0.0000E+00  0.0000E+00  0.0000E+00  0.0000E+00  0.0000E+00  0.0000E+00  0.0000E+00  0.0000E+00  0.0000E+00  0.0000E+00  0.0000E+00  0.0000E+00  0.0000E+00  0.0000E+00  0.0000E+00  0.0000E+00  0.0000E+00  0.0000E+00
    -24.324  0.0000E+00  0.0000E+00  0.0000E+00  0.0000E+00  0.0000E+00  0.0000E+00  0.0000E+00  0.0000E+00  0.0000E+00  0.0000E+00  0.0000E+00  0.0000E+00  0.0000E+00  0.0000E+00  0.0000E+00  0.0000E+00  0.0000E+00  0.0000E+00
    -24.181  0.0000E+00  0.0000E+00  0.0000E+00  0.0000E+00  0.0000E+00  0.0000E+00  0.0000E+00  0.0000E+00  0.0000E+00  0.0000E+00  0.0000E+00  0.0000E+00  0.0000E+00  0.0000E+00  0.0000E+00  0.0000E+00  0.0000E+00  0.0000E+00
    -24.037  0.0000E+00  0.0000E+00  0.0000E+00  0.0000E+00  0.0000E+00  0.0000E+00  0.0000E+00  0.0000E+00  0.0000E+00  0.0000E+00  0.0000E+00  0.0000E+00  0.0000E+00  0.0000E+00  0.0000E+00  0.0000E+00  0.0000E+00  0.0000E+00
    -23.893  0.0000E+00  0.0000E+00  0.0000E+00  0.0000E+00  0.0000E+00  0.0000E+00  0.0000E+00  0.0000E+00  0.0000E+00  0.0000E+00  0.0000E+00  0.0000E+00  0.0000E+00  0.0000E+00  0.0000E+00  0.0000E+00  0.0000E+00  0.0000E+00
    -23.750  0.0000E+00  0.0000E+00  0.0000E+00  0.0000E+00  0.0000E+00  0.0000E+00  0.0000E+00  0.0000E+00  0.0000E+00  0.0000E+00  0.0000E+00  0.0000E+00  0.0000E+00  0.0000E+00  0.0000E+00  0.0000E+00  0.0000E+00  0.0000E+00
    -23.606  0.0000E+00  0.0000E+00  0.0000E+00  0.0000E+00  0.0000E+00  0.0000E+00  0.0000E+00  0.0000E+00  0.0000E+00  0.0000E+00  0.0000E+00  0.0000E+00  0.0000E+00  0.0000E+00  0.0000E+00  0.0000E+00  0.0000E+00  0.0000E+00
    -23.462  0.0000E+00  0.0000E+00  0.0000E+00  0.0000E+00  0.0000E+00  0.0000E+00  0.0000E+00  0.0000E+00  0.0000E+00  0.0000E+00  0.0000E+00  0.0000E+00  0.0000E+00  0.0000E+00  0.0000E+00  0.0000E+00  0.0000E+00  0.0000E+00
    -23.319  0.0000E+00  0.0000E+00  0.0000E+00  0.0000E+00  0.0000E+00  0.0000E+00  0.0000E+00  0.0000E+00  0.0000E+00  0.0000E+00  0.0000E+00  0.0000E+00  0.0000E+00  0.0000E+00  0.0000E+00  0.0000E+00  0.0000E+00  0.0000E+00