  16  16   1   0
  0.1960711E+02  0.3614445E-09  0.3614445E-09  0.2401322E-08  0.5000000E-15
  1.000000000000000E-004
  CAR 
 unknown system                          
     12.23655529    -30.83905158  301      6.18292146      1.00000000
    -30.839  0.0000E+00  0.0000E+00  0.0000E+00  0.0000E+00
    -30.695  0.0000E+00  0.0000E+00  0.0000E+00  0.0000E+00
    -30.552  0.0000E+00  0.0000E+00  0.0000E+00  0.0000E+00
    -30.408  0.0000E+00  0.0000E+00  0.0000E+00  0.0000E+00
    -30.265  0.0000E+00  0.0000E+00  0.0000E+00  0.0000E+00
    -30.121  0.0000E+00  0.0000E+00  0.0000E+00  0.0000E+00
    -29.978  0.0000E+00  0.0000E+00  0.0000E+00  0.0000E+00
    -29.834  0.0000E+00  0.0000E+00  0.0000E+00  0.0000E+00
    -29.690  0.0000E+00  0.0000E+00  0.0000E+00  0.0000E+00
    -29.547  0.0000E+00  0.0000E+00  0.0000E+00  0.0000E+00
    -29.403  0.1124E-03  0.1125E-03  0.1614E-04  0.1615E-04
    -29.260  0.6413E-02  0.6414E-02  0.9369E-03  0.9371E-03
    -29.116  0.1082E+00  0.1082E+00  0.1648E-01  0.1648E-01
    -28.972  0.1761E+01  0.1761E+01  0.2693E+00  0.2693E+00
    -28.829  0.1313E+02  0.1313E+02  0.2154E+01  0.2154E+01
    -28.685  0.1147E+02  0.1147E+02  0.3801E+01  0.3801E+01
    -28.542  0.1304E+01  0.1303E+01  0.3988E+01  0.3988E+01
    -28.398  0.3900E-02  0.3899E-02  0.4000E+01  0.4000E+01
    -28.255  0.0000E+00  0.0000E+00  0.4000E+01  0.4000E+01
    -28.111  0.0000E+00  0.0000E+00  0.4000E+01  0.4000E+01
    -27.967  0.0000E+00  0.0000E+00  0.4000E+01  0.4000E+01
    -27.824  0.0000E+00  0.0000E+00  0.4000E+01  0.4000E+01
    -27.680  0.0000E+00  0.0000E+00  0.4000E+01  0.4000E+01
    -27.537  0.0000E+00  0.0000E+00  0.4000E+01  0.4000E+01
    -27.393  0.0000E+00  0.0000E+00  0.4000E+01  0.4000E+01
    -27.249  0.0000E+00  0.0000E+00  0.4000E+01  0.4000E+01
    -27.106  0.0000E+00  0.0000E+00  0.4000E+01  0.4000E+01
    -26.962  0.0000E+00  0.0000E+00  0.4000E+01  0.4000E+01
    -26.819  0.0000E+00  0.0000E+00  0.4000E+01  0.4000E+01
    -26.675  0.0000E+00  0.0000E+00  0.4000E+01  0.4000E+01
    -26.531  0.0000E+00  0.0000E+00  0.4000E+01  0.4000E+01
    -26.388  0.0000E+00  0.0000E+00  0.4000E+01  0.4000E+01
    -26.244  0.0000E+00  0.0000E+00  0.4000E+01  0.4000E+01
    -26.101  0.0000E+00  0.0000E+00  0.4000E+01  0.4000E+01
    -25.957  0.0000E+00  0.0000E+00  0.4000E+01  0.4000E+01
    -25.814  0.0000E+00  0.0000E+00  0.4000E+01  0.4000E+01
    -25.670  0.0000E+00  0.0000E+00  0.4000E+01  0.4000E+01
    -25.526  0.0000E+00  0.0000E+00  0.4000E+01  0.4000E+01
    -25.383  0.0000E+00  0.0000E+00  0.4000E+01  0.4000E+01
    -25.239  0.0000E+00  0.0000E+00  0.4000E+01  0.4000E+01
    -25.096  0.0000E+00  0.0000E+00  0.4000E+01  0.4000E+01
    -24.952  0.0000E+00  0.0000E+00  0.4000E+01  0.4000E+01
    -24.808  0.0000E+00  0.0000E+00  0.4000E+01  0.4000E+01
    -24.665  0.0000E+00  0.0000E+00  0.4000E+01  0.4000E+01
    -24.521  0.0000E+00  0.0000E+00  0.4000E+01  0.4000E+01
    -24.378  0.0000E+00  0.0000E+00  0.4000E+01  0.4000E+01
    -24.234  0.0000E+00  0.0000E+00  0.4000E+01  0.4000E+01
    -24.091  0.0000E+00  0.0000E+00  0.4000E+01  0.4000E+01
    -23.947  0.0000E+00  0.0000E+00  0.4000E+01  0.4000E+01
    -23.803  0.0000E+00  0.0000E+00  0.4000E+01  0.4000E+01
    -23.660  0.0000E+00  0.0000E+00  0.4000E+01  0.4000E+01
    -23.516  0.0000E+00  0.0000E+00  0.4000E+01  0.4000E+01
    -23.373  0.0000E+00  0.0000E+00  0.4000E+01  0.4000E+01
    -23.229  0.0000E+00  0.0000E+00  0.4000E+01  0.4000E+01
    -23.085  0.0000E+00  0.0000E+00  0.4000E+01  0.4000E+01
    -22.942  0.0000E+00  0.0000E+00  0.4000E+01  0.4000E+01
    -22.798  0.0000E+00  0.0000E+00  0.4000E+01  0.4000E+01
    -22.655  0.0000E+00  0.0000E+00  0.4000E+01  0.4000E+01
    -22.511  0.0000E+00  0.0000E+00  0.4000E+01  0.4000E+01
    -22.368  0.0000E+00  0.0000E+00  0.4000E+01  0.4000E+01
    -22.224  0.0000E+00  0.0000E+00  0.4000E+01  0.4000E+01
    -22.080  0.0000E+00  0.0000E+00  0.4000E+01  0.4000E+01
    -21.937  0.0000E+00  0.0000E+00  0.4000E+01  0.4000E+01
    -21.793  0.0000E+00  0.0000E+00  0.4000E+01  0.4000E+01
    -21.650  0.0000E+00  0.0000E+00  0.4000E+01  0.4000E+01
    -21.506  0.0000E+00  0.0000E+00  0.4000E+01  0.4000E+01
    -21.362  0.0000E+00  0.0000E+00  0.4000E+01  0.4000E+01
    -21.219  0.0000E+00  0.0000E+00  0.4000E+01  0.4000E+01
    -21.075  0.0000E+00  0.0000E+00  0.4000E+01  0.4000E+01
    -20.932  0.0000E+00  0.0000E+00  0.4000E+01  0.4000E+01
    -20.788  0.0000E+00  0.0000E+00  0.4000E+01  0.4000E+01
    -20.644  0.0000E+00  0.0000E+00  0.4000E+01  0.4000E+01
    -20.501  0.0000E+00  0.0000E+00  0.4000E+01  0.4000E+01
    -20.357  0.0000E+00  0.0000E+00  0.4000E+01  0.4000E+01
    -20.214  0.0000E+00  0.0000E+00  0.4000E+01  0.4000E+01
    -20.070  0.0000E+00  0.0000E+00  0.4000E+01  0.4000E+01
    -19.927  0.0000E+00  0.0000E+00  0.4000E+01  0.4000E+01
    -19.783  0.0000E+00  0.0000E+00  0.4000E+01  0.4000E+01
    -19.639  0.0000E+00  0.0000E+00  0.4000E+01  0.4000E+01
    -19.496  0.0000E+00  0.0000E+00  0.4000E+01  0.4000E+01
    -19.352  0.0000E+00  0.0000E+00  0.4000E+01  0.4000E+01
    -19.209  0.0000E+00  0.0000E+00  0.4000E+01  0.4000E+01
    -19.065  0.0000E+00  0.0000E+00  0.4000E+01  0.4000E+01
    -18.921  0.0000E+00  0.0000E+00  0.4000E+01  0.4000E+01
    -18.778  0.0000E+00  0.0000E+00  0.4000E+01  0.4000E+01
    -18.634  0.0000E+00  0.0000E+00  0.4000E+01  0.4000E+01
    -18.491  0.0000E+00  0.0000E+00  0.4000E+01  0.4000E+01
    -18.347  0.0000E+00  0.0000E+00  0.4000E+01  0.4000E+01
    -18.204  0.0000E+00  0.0000E+00  0.4000E+01  0.4000E+01
    -18.060  0.0000E+00  0.0000E+00  0.4000E+01  0.4000E+01
    -17.916  0.0000E+00  0.0000E+00  0.4000E+01  0.4000E+01
    -17.773  0.0000E+00  0.0000E+00  0.4000E+01  0.4000E+01
    -17.629  0.0000E+00  0.0000E+00  0.4000E+01  0.4000E+01
    -17.486  0.0000E+00  0.0000E+00  0.4000E+01  0.4000E+01
    -17.342  0.0000E+00  0.0000E+00  0.4000E+01  0.4000E+01
    -17.198  0.0000E+00  0.0000E+00  0.4000E+01  0.4000E+01
    -17.055  0.0000E+00  0.0000E+00  0.4000E+01  0.4000E+01
    -16.911  0.0000E+00  0.0000E+00  0.4000E+01  0.4000E+01
    -16.768  0.0000E+00  0.0000E+00  0.4000E+01  0.4000E+01
    -16.624  0.0000E+00  0.0000E+00  0.4000E+01  0.4000E+01
    -16.481  0.0000E+00  0.0000E+00  0.4000E+01  0.4000E+01
    -16.337  0.0000E+00  0.0000E+00  0.4000E+01  0.4000E+01
    -16.193  0.0000E+00  0.0000E+00  0.4000E+01  0.4000E+01
    -16.050  0.0000E+00  0.0000E+00  0.4000E+01  0.4000E+01
    -15.906  0.0000E+00  0.0000E+00  0.4000E+01  0.4000E+01
    -15.763  0.0000E+00  0.0000E+00  0.4000E+01  0.4000E+01
    -15.619  0.0000E+00  0.0000E+00  0.4000E+01  0.4000E+01
    -15.475  0.0000E+00  0.0000E+00  0.4000E+01  0.4000E+01
    -15.332  0.0000E+00  0.0000E+00  0.4000E+01  0.4000E+01
    -15.188  0.0000E+00  0.0000E+00  0.4000E+01  0.4000E+01
    -15.045  0.0000E+00  0.0000E+00  0.4000E+01  0.4000E+01
    -14.901  0.0000E+00  0.0000E+00  0.4000E+01  0.4000E+01
    -14.757  0.0000E+00  0.0000E+00  0.4000E+01  0.4000E+01
    -14.614  0.0000E+00  0.0000E+00  0.4000E+01  0.4000E+01
    -14.470  0.0000E+00  0.0000E+00  0.4000E+01  0.4000E+01
    -14.327  0.0000E+00  0.0000E+00  0.4000E+01  0.4000E+01
    -14.183  0.0000E+00  0.0000E+00  0.4000E+01  0.4000E+01
    -14.040  0.0000E+00  0.0000E+00  0.4000E+01  0.4000E+01
    -13.896  0.0000E+00  0.0000E+00  0.4000E+01  0.4000E+01
    -13.752  0.0000E+00  0.0000E+00  0.4000E+01  0.4000E+01
    -13.609  0.0000E+00  0.0000E+00  0.4000E+01  0.4000E+01
    -13.465  0.0000E+00  0.0000E+00  0.4000E+01  0.4000E+01
    -13.322  0.0000E+00  0.0000E+00  0.4000E+01  0.4000E+01
    -13.178  0.0000E+00  0.0000E+00  0.4000E+01  0.4000E+01
    -13.034  0.0000E+00  0.0000E+00  0.4000E+01  0.4000E+01
    -12.891  0.0000E+00  0.0000E+00  0.4000E+01  0.4000E+01
    -12.747  0.0000E+00  0.0000E+00  0.4000E+01  0.4000E+01
    -12.604  0.0000E+00  0.0000E+00  0.4000E+01  0.4000E+01
    -12.460  0.0000E+00  0.0000E+00  0.4000E+01  0.4000E+01
    -12.317  0.0000E+00  0.0000E+00  0.4000E+01  0.4000E+01
    -12.173  0.0000E+00  0.0000E+00  0.4000E+01  0.4000E+01
    -12.029  0.0000E+00  0.0000E+00  0.4000E+01  0.4000E+01
    -11.886  0.5215E-04  0.5196E-04  0.4000E+01  0.4000E+01
    -11.742  0.2491E-02  0.2482E-02  0.4000E+01  0.4000E+01
    -11.599  0.4357E-01  0.4342E-01  0.4007E+01  0.4007E+01
    -11.455  0.7139E+00  0.7116E+00  0.4109E+01  0.4109E+01
    -11.311  0.6103E+01  0.6092E+01  0.4985E+01  0.4983E+01
    -11.168  0.1361E+02  0.1360E+02  0.6939E+01  0.6936E+01
    -11.024  0.2072E+02  0.2071E+02  0.9914E+01  0.9911E+01
    -10.881  0.2300E+02  0.2301E+02  0.1322E+02  0.1322E+02
    -10.737  0.1409E+02  0.1410E+02  0.1525E+02  0.1525E+02
    -10.594  0.4725E+01  0.4734E+01  0.1593E+02  0.1593E+02
    -10.450  0.3958E+00  0.3967E+00  0.1600E+02  0.1600E+02
    -10.306  0.0000E+00  0.0000E+00  0.1600E+02  0.1600E+02
    -10.163  0.0000E+00  0.0000E+00  0.1600E+02  0.1600E+02
    -10.019  0.0000E+00  0.0000E+00  0.1600E+02  0.1600E+02
     -9.876  0.0000E+00  0.0000E+00  0.1600E+02  0.1600E+02
     -9.732  0.0000E+00  0.0000E+00  0.1600E+02  0.1600E+02
     -9.588  0.0000E+00  0.0000E+00  0.1600E+02  0.1600E+02
     -9.445  0.0000E+00  0.0000E+00  0.1600E+02  0.1600E+02
     -9.301  0.0000E+00  0.0000E+00  0.1600E+02  0.1600E+02
     -9.158  0.0000E+00  0.0000E+00  0.1600E+02  0.1600E+02
     -9.014  0.0000E+00  0.0000E+00  0.1600E+02  0.1600E+02
     -8.870  0.0000E+00  0.0000E+00  0.1600E+02  0.1600E+02
     -8.727  0.0000E+00  0.0000E+00  0.1600E+02  0.1600E+02
     -8.583  0.0000E+00  0.0000E+00  0.1600E+02  0.1600E+02
     -8.440  0.0000E+00  0.0000E+00  0.1600E+02  0.1600E+02
     -8.296  0.0000E+00  0.0000E+00  0.1600E+02  0.1600E+02
     -8.153  0.0000E+00  0.0000E+00  0.1600E+02  0.1600E+02
     -8.009  0.0000E+00  0.0000E+00  0.1600E+02  0.1600E+02
     -7.865  0.0000E+00  0.0000E+00  0.1600E+02  0.1600E+02
     -7.722  0.0000E+00  0.0000E+00  0.1600E+02  0.1600E+02
     -7.578  0.0000E+00  0.0000E+00  0.1600E+02  0.1600E+02
     -7.435  0.0000E+00  0.0000E+00  0.1600E+02  0.1600E+02
     -7.291  0.0000E+00  0.0000E+00  0.1600E+02  0.1600E+02
     -7.147  0.0000E+00  0.0000E+00  0.1600E+02  0.1600E+02
     -7.004  0.0000E+00  0.0000E+00  0.1600E+02  0.1600E+02
     -6.860  0.0000E+00  0.0000E+00  0.1600E+02  0.1600E+02
     -6.717  0.0000E+00  0.0000E+00  0.1600E+02  0.1600E+02
     -6.573  0.0000E+00  0.0000E+00  0.1600E+02  0.1600E+02
     -6.430  0.0000E+00  0.0000E+00  0.1600E+02  0.1600E+02
     -6.286  0.0000E+00  0.0000E+00  0.1600E+02  0.1600E+02
     -6.142  0.0000E+00  0.0000E+00  0.1600E+02  0.1600E+02
     -5.999  0.0000E+00  0.0000E+00  0.1600E+02  0.1600E+02
     -5.855  0.0000E+00  0.0000E+00  0.1600E+02  0.1600E+02
     -5.712  0.0000E+00  0.0000E+00  0.1600E+02  0.1600E+02
     -5.568  0.0000E+00  0.0000E+00  0.1600E+02  0.1600E+02
     -5.424  0.0000E+00  0.0000E+00  0.1600E+02  0.1600E+02
     -5.281  0.0000E+00  0.0000E+00  0.1600E+02  0.1600E+02
     -5.137  0.4357E-05  0.4425E-05  0.1600E+02  0.1600E+02
     -4.994  0.1796E-03  0.1824E-03  0.1600E+02  0.1600E+02
     -4.850  0.3086E-02  0.3134E-02  0.1600E+02  0.1600E+02
     -4.707  0.4749E-01  0.4814E-01  0.1601E+02  0.1601E+02
     -4.563  0.3169E+00  0.3189E+00  0.1605E+02  0.1605E+02
     -4.419  0.5135E+00  0.5139E+00  0.1613E+02  0.1613E+02
     -4.276  0.6496E+00  0.6495E+00  0.1622E+02  0.1622E+02
     -4.132  0.4580E+00  0.4581E+00  0.1629E+02  0.1629E+02
     -3.989  0.7146E+00  0.7148E+00  0.1639E+02  0.1639E+02
     -3.845  0.5380E+00  0.5370E+00  0.1647E+02  0.1647E+02
     -3.701  0.4944E+00  0.4939E+00  0.1654E+02  0.1654E+02
     -3.558  0.6436E+00  0.6459E+00  0.1663E+02  0.1663E+02
     -3.414  0.7388E+00  0.7377E+00  0.1674E+02  0.1674E+02
     -3.271  0.4931E+00  0.4911E+00  0.1681E+02  0.1681E+02
     -3.127  0.3051E+00  0.3069E+00  0.1685E+02  0.1685E+02
     -2.983  0.9634E+00  0.9654E+00  0.1699E+02  0.1699E+02
     -2.840  0.6461E+00  0.6439E+00  0.1708E+02  0.1708E+02
     -2.696  0.4753E+00  0.4740E+00  0.1715E+02  0.1715E+02
     -2.553  0.5308E+00  0.5310E+00  0.1723E+02  0.1723E+02
     -2.409  0.1094E+01  0.1091E+01  0.1738E+02  0.1738E+02
     -2.266  0.1260E+01  0.1259E+01  0.1756E+02  0.1756E+02
     -2.122  0.1263E+01  0.1265E+01  0.1775E+02  0.1775E+02
     -1.978  0.1170E+01  0.1166E+01  0.1791E+02  0.1791E+02
     -1.835  0.1122E+01  0.1123E+01  0.1808E+02  0.1808E+02
     -1.691  0.9401E+00  0.9398E+00  0.1821E+02  0.1821E+02
     -1.548  0.1203E+01  0.1207E+01  0.1838E+02  0.1838E+02
     -1.404  0.1723E+01  0.1721E+01  0.1863E+02  0.1863E+02
     -1.260  0.1409E+01  0.1406E+01  0.1883E+02  0.1883E+02
     -1.117  0.7070E+00  0.7090E+00  0.1894E+02  0.1894E+02
     -0.973  0.8881E+00  0.8856E+00  0.1907E+02  0.1907E+02
     -0.830  0.1947E+01  0.1950E+01  0.1935E+02  0.1935E+02
     -0.686  0.2179E+01  0.2181E+01  0.1966E+02  0.1966E+02
     -0.543  0.2057E+01  0.2057E+01  0.1995E+02  0.1995E+02
     -0.399  0.1743E+01  0.1742E+01  0.2020E+02  0.2020E+02
     -0.255  0.2663E+01  0.2666E+01  0.2059E+02  0.2059E+02
     -0.112  0.2528E+01  0.2526E+01  0.2095E+02  0.2095E+02
      0.032  0.1753E+01  0.1749E+01  0.2120E+02  0.2120E+02
      0.175  0.1671E+01  0.1673E+01  0.2144E+02  0.2144E+02
      0.319  0.1058E+01  0.1057E+01  0.2160E+02  0.2160E+02
      0.463  0.8278E+00  0.8264E+00  0.2172E+02  0.2172E+02
      0.606  0.7321E+00  0.7279E+00  0.2182E+02  0.2182E+02
      0.750  0.1021E+01  0.1021E+01  0.2197E+02  0.2197E+02
      0.893  0.9107E+00  0.9158E+00  0.2210E+02  0.2210E+02
      1.037  0.8205E+00  0.8231E+00  0.2222E+02  0.2222E+02
      1.180  0.1879E+01  0.1881E+01  0.2249E+02  0.2249E+02
      1.324  0.1879E+01  0.1878E+01  0.2276E+02  0.2276E+02
      1.468  0.1867E+01  0.1868E+01  0.2303E+02  0.2303E+02
      1.611  0.2880E+01  0.2879E+01  0.2344E+02  0.2344E+02
      1.755  0.2167E+01  0.2165E+01  0.2375E+02  0.2375E+02
      1.898  0.1585E+01  0.1587E+01  0.2398E+02  0.2398E+02
      2.042  0.2468E+01  0.2465E+01  0.2434E+02  0.2434E+02
      2.186  0.2334E+01  0.2338E+01  0.2467E+02  0.2467E+02
      2.329  0.2160E+01  0.2159E+01  0.2498E+02  0.2498E+02
      2.473  0.2063E+01  0.2061E+01  0.2528E+02  0.2528E+02
      2.616  0.2570E+01  0.2570E+01  0.2565E+02  0.2565E+02
      2.760  0.2867E+01  0.2864E+01  0.2606E+02  0.2606E+02
      2.904  0.2164E+01  0.2168E+01  0.2637E+02  0.2637E+02
      3.047  0.2979E+01  0.2984E+01  0.2680E+02  0.2680E+02
      3.191  0.3376E+01  0.3375E+01  0.2729E+02  0.2729E+02
      3.334  0.3081E+01  0.3082E+01  0.2773E+02  0.2773E+02
      3.478  0.2845E+01  0.2841E+01  0.2814E+02  0.2814E+02
      3.621  0.2365E+01  0.2362E+01  0.2848E+02  0.2848E+02
      3.765  0.2597E+01  0.2595E+01  0.2885E+02  0.2885E+02
      3.909  0.3355E+01  0.3355E+01  0.2934E+02  0.2933E+02
      4.052  0.3446E+01  0.3444E+01  0.2983E+02  0.2983E+02
      4.196  0.3382E+01  0.3385E+01  0.3032E+02  0.3032E+02
      4.339  0.3748E+01  0.3753E+01  0.3086E+02  0.3086E+02
      4.483  0.4605E+01  0.4603E+01  0.3152E+02  0.3152E+02
      4.627  0.3709E+01  0.3705E+01  0.3205E+02  0.3205E+02
      4.770  0.3868E+01  0.3868E+01  0.3261E+02  0.3261E+02
      4.914  0.4291E+01  0.4288E+01  0.3323E+02  0.3323E+02
      5.057  0.4381E+01  0.4382E+01  0.3386E+02  0.3386E+02
      5.201  0.4936E+01  0.4939E+01  0.3457E+02  0.3457E+02
      5.344  0.3055E+01  0.3056E+01  0.3501E+02  0.3501E+02
      5.488  0.2844E+01  0.2844E+01  0.3542E+02  0.3542E+02
      5.632  0.3444E+01  0.3441E+01  0.3591E+02  0.3591E+02
      5.775  0.4246E+01  0.4247E+01  0.3652E+02  0.3652E+02
      5.919  0.3842E+01  0.3841E+01  0.3707E+02  0.3707E+02
      6.062  0.3815E+01  0.3810E+01  0.3762E+02  0.3762E+02
      6.206  0.3060E+01  0.3059E+01  0.3806E+02  0.3806E+02
      6.350  0.3018E+01  0.3016E+01  0.3850E+02  0.3850E+02
      6.493  0.3185E+01  0.3187E+01  0.3896E+02  0.3895E+02
      6.637  0.3320E+01  0.3318E+01  0.3943E+02  0.3943E+02
      6.780  0.3813E+01  0.3815E+01  0.3998E+02  0.3998E+02
      6.924  0.3582E+01  0.3585E+01  0.4050E+02  0.4050E+02
      7.067  0.2693E+01  0.2692E+01  0.4088E+02  0.4088E+02
      7.211  0.3582E+01  0.3579E+01  0.4140E+02  0.4140E+02
      7.355  0.4013E+01  0.4016E+01  0.4198E+02  0.4198E+02
      7.498  0.3902E+01  0.3905E+01  0.4254E+02  0.4254E+02
      7.642  0.5032E+01  0.5030E+01  0.4326E+02  0.4326E+02
      7.785  0.5867E+01  0.5869E+01  0.4410E+02  0.4410E+02
      7.929  0.5516E+01  0.5517E+01  0.4490E+02  0.4490E+02
      8.073  0.6245E+01  0.6242E+01  0.4580E+02  0.4580E+02
      8.216  0.6824E+01  0.6827E+01  0.4678E+02  0.4678E+02
      8.360  0.5357E+01  0.5362E+01  0.4755E+02  0.4755E+02
      8.503  0.3843E+01  0.3841E+01  0.4810E+02  0.4810E+02
      8.647  0.3714E+01  0.3710E+01  0.4864E+02  0.4864E+02
      8.791  0.4320E+01  0.4314E+01  0.4926E+02  0.4926E+02
      8.934  0.3447E+01  0.3448E+01  0.4975E+02  0.4975E+02
      9.078  0.2438E+01  0.2428E+01  0.5011E+02  0.5010E+02
      9.221  0.2392E+01  0.2328E+01  0.5045E+02  0.5044E+02
      9.365  0.1858E+01  0.1856E+01  0.5072E+02  0.5071E+02
      9.508  0.2125E+01  0.2101E+01  0.5102E+02  0.5101E+02
      9.652  0.2128E+01  0.2349E+01  0.5133E+02  0.5135E+02
      9.796  0.1744E+01  0.1682E+01  0.5158E+02  0.5159E+02
      9.939  0.1294E+01  0.1326E+01  0.5177E+02  0.5178E+02
     10.083  0.9823E+00  0.8894E+00  0.5191E+02  0.5191E+02
     10.226  0.5050E+00  0.4541E+00  0.5198E+02  0.5197E+02
     10.370  0.1129E+00  0.1677E+00  0.5200E+02  0.5200E+02
     10.514  0.8874E-02  0.1834E-01  0.5200E+02  0.5200E+02
     10.657  0.3072E-03  0.4674E-03  0.5200E+02  0.5200E+02
     10.801  0.0000E+00  0.0000E+00  0.5200E+02  0.5200E+02
     10.944  0.0000E+00  0.0000E+00  0.5200E+02  0.5200E+02
     11.088  0.0000E+00  0.0000E+00  0.5200E+02  0.5200E+02
     11.231  0.0000E+00  0.0000E+00  0.5200E+02  0.5200E+02
     11.375  0.0000E+00  0.0000E+00  0.5200E+02  0.5200E+02
     11.519  0.0000E+00  0.0000E+00  0.5200E+02  0.5200E+02
     11.662  0.0000E+00  0.0000E+00  0.5200E+02  0.5200E+02
     11.806  0.0000E+00  0.0000E+00  0.5200E+02  0.5200E+02
     11.949  0.0000E+00  0.0000E+00  0.5200E+02  0.5200E+02
     12.093  0.0000E+00  0.0000E+00  0.5200E+02  0.5200E+02
     12.237  0.0000E+00  0.0000E+00  0.5200E+02  0.5200E+02
     12.23655529    -30.83905158  301      6.18292146      1.00000000
    -30.839  0.0000E+00  0.0000E+00  0.0000E+00  0.0000E+00  0.0000E+00  0.0000E+00  0.0000E+00  0.0000E+00  0.0000E+00  0.0000E+00  0.0000E+00  0.0000E+00  0.0000E+00  0.0000E+00  0.0000E+00  0.0000E+00  0.0000E+00  0.0000E+00
    -30.695  0.0000E+00  0.0000E+00  0.0000E+00  0.0000E+00  0.0000E+00  0.0000E+00  0.0000E+00  0.0000E+00  0.0000E+00  0.0000E+00  0.0000E+00  0.0000E+00  0.0000E+00  0.0000E+00  0.0000E+00  0.0000E+00  0.0000E+00  0.0000E+00
    -30.552  0.0000E+00  0.0000E+00  0.0000E+00  0.0000E+00  0.0000E+00  0.0000E+00  0.0000E+00  0.0000E+00  0.0000E+00  0.0000E+00  0.0000E+00  0.0000E+00  0.0000E+00  0.0000E+00  0.0000E+00  0.0000E+00  0.0000E+00  0.0000E+00
    -30.408  0.0000E+00  0.0000E+00  0.0000E+00  0.0000E+00  0.0000E+00  0.0000E+00  0.0000E+00  0.0000E+00  0.0000E+00  0.0000E+00  0.0000E+00  0.0000E+00  0.0000E+00  0.0000E+00  0.0000E+00  0.0000E+00  0.0000E+00  0.0000E+00
    -30.265  0.0000E+00  0.0000E+00  0.0000E+00  0.0000E+00  0.0000E+00  0.0000E+00  0.0000E+00  0.0000E+00  0.0000E+00  0.0000E+00  0.0000E+00  0.0000E+00  0.0000E+00  0.0000E+00  0.0000E+00  0.0000E+00  0.0000E+00  0.0000E+00
    -30.121  0.0000E+00  0.0000E+00  0.0000E+00  0.0000E+00  0.0000E+00  0.0000E+00  0.0000E+00  0.0000E+00  0.0000E+00  0.0000E+00  0.0000E+00  0.0000E+00  0.0000E+00  0.0000E+00  0.0000E+00  0.0000E+00  0.0000E+00  0.0000E+00
    -29.978  0.0000E+00  0.0000E+00  0.0000E+00  0.0000E+00  0.0000E+00  0.0000E+00  0.0000E+00  0.0000E+00  0.0000E+00  0.0000E+00  0.0000E+00  0.0000E+00  0.0000E+00  0.0000E+00  0.0000E+00  0.0000E+00  0.0000E+00  0.0000E+00
    -29.834  0.0000E+00  0.0000E+00  0.0000E+00  0.0000E+00  0.0000E+00  0.0000E+00  0.0000E+00  0.0000E+00  0.0000E+00  0.0000E+00  0.0000E+00  0.0000E+00  0.0000E+00  0.0000E+00  0.0000E+00  0.0000E+00  0.0000E+00  0.0000E+00
    -29.690  0.0000E+00  0.0000E+00  0.0000E+00  0.0000E+00  0.0000E+00  0.0000E+00  0.0000E+00  0.0000E+00  0.0000E+00  0.0000E+00  0.0000E+00  0.0000E+00  0.0000E+00  0.0000E+00  0.0000E+00  0.0000E+00  0.0000E+00  0.0000E+00
    -29.547  0.0000E+00  0.0000E+00  0.0000E+00  0.0000E+00  0.0000E+00  0.0000E+00  0.0000E+00  0.0000E+00  0.0000E+00  0.0000E+00  0.0000E+00  0.0000E+00  0.0000E+00  0.0000E+00  0.0000E+00  0.0000E+00  0.0000E+00  0.0000E+00
    -29.403  0.2740E-04  0.2741E-04  0.6285E-10  0.6287E-10  0.2197E-10  0.2232E-10  0.6285E-10  0.6287E-10  0.3179E-14  0.3317E-14  0.1966E-13  0.1965E-13  0.1053E-09  0.1052E-09  0.1966E-13  0.1965E-13  0.7607E-11  0.7604E-11
    -29.260  0.1566E-02  0.1566E-02  0.4910E-08  0.4911E-08  0.1136E-08  0.1153E-08  0.4910E-08  0.4911E-08  0.4098E-12  0.4492E-12  0.1411E-11  0.1417E-11  0.2792E-08  0.2786E-08  0.1411E-11  0.1417E-11  0.2854E-08  0.2851E-08
    -29.116  0.2642E-01  0.2643E-01  0.8250E-07  0.8251E-07  0.1921E-07  0.1950E-07  0.8250E-07  0.8251E-07  0.6854E-11  0.7509E-11  0.2374E-10  0.2383E-10  0.4798E-07  0.4788E-07  0.2374E-10  0.2383E-10  0.4751E-07  0.4746E-07
    -28.972  0.4299E+00  0.4300E+00  0.1348E-05  0.1348E-05  0.3117E-06  0.3164E-06  0.1348E-05  0.1348E-05  0.1124E-09  0.1233E-09  0.3871E-09  0.3887E-09  0.7609E-06  0.7592E-06  0.3871E-09  0.3887E-09  0.7840E-06  0.7831E-06
    -28.829  0.3206E+01  0.3206E+01  0.1025E-04  0.1025E-04  0.2277E-05  0.2311E-05  0.1025E-04  0.1025E-04  0.8686E-09  0.9587E-09  0.2895E-08  0.2909E-08  0.4665E-05  0.4654E-05  0.2895E-08  0.2909E-08  0.6267E-05  0.6259E-05
    -28.685  0.2803E+01  0.2802E+01  0.8891E-05  0.8888E-05  0.1927E-05  0.1954E-05  0.8891E-05  0.8888E-05  0.7451E-09  0.8316E-09  0.2446E-08  0.2458E-08  0.2994E-05  0.2984E-05  0.2446E-08  0.2458E-08  0.5468E-05  0.5460E-05
    -28.542  0.3187E+00  0.3186E+00  0.9875E-06  0.9870E-06  0.2155E-06  0.2183E-06  0.9875E-06  0.9870E-06  0.8067E-10  0.9058E-10  0.2678E-09  0.2692E-09  0.2950E-06  0.2939E-06  0.2678E-09  0.2692E-09  0.5853E-06  0.5844E-06
    -28.398  0.9557E-03  0.9553E-03  0.3410E-09  0.3404E-09  0.5669E-09  0.5718E-09  0.3410E-09  0.3404E-09  0.2959E-14  0.3824E-14  0.8240E-13  0.8399E-13  0.9608E-09  0.9534E-09  0.8240E-13  0.8399E-13  0.2573E-20  0.3691E-19
    -28.255  0.0000E+00  0.0000E+00  0.0000E+00  0.0000E+00  0.0000E+00  0.0000E+00  0.0000E+00  0.0000E+00  0.0000E+00  0.0000E+00  0.0000E+00  0.0000E+00  0.0000E+00  0.0000E+00  0.0000E+00  0.0000E+00  0.0000E+00  0.0000E+00
    -28.111  0.0000E+00  0.0000E+00  0.0000E+00  0.0000E+00  0.0000E+00  0.0000E+00  0.0000E+00  0.0000E+00  0.0000E+00  0.0000E+00  0.0000E+00  0.0000E+00  0.0000E+00  0.0000E+00  0.0000E+00  0.0000E+00  0.0000E+00  0.0000E+00
    -27.967  0.0000E+00  0.0000E+00  0.0000E+00  0.0000E+00  0.0000E+00  0.0000E+00  0.0000E+00  0.0000E+00  0.0000E+00  0.0000E+00  0.0000E+00  0.0000E+00  0.0000E+00  0.0000E+00  0.0000E+00  0.0000E+00  0.0000E+00  0.0000E+00
    -27.824  0.0000E+00  0.0000E+00  0.0000E+00  0.0000E+00  0.0000E+00  0.0000E+00  0.0000E+00  0.0000E+00  0.0000E+00  0.0000E+00  0.0000E+00  0.0000E+00  0.0000E+00  0.0000E+00  0.0000E+00  0.0000E+00  0.0000E+00  0.0000E+00
    -27.680  0.0000E+00  0.0000E+00  0.0000E+00  0.0000E+00  0.0000E+00  0.0000E+00  0.0000E+00  0.0000E+00  0.0000E+00  0.0000E+00  0.0000E+00  0.0000E+00  0.0000E+00  0.0000E+00  0.0000E+00  0.0000E+00  0.0000E+00  0.0000E+00
    -27.537  0.0000E+00  0.0000E+00  0.0000E+00  0.0000E+00  0.0000E+00  0.0000E+00  0.0000E+00  0.0000E+00  0.0000E+00  0.0000E+00  0.0000E+00  0.0000E+00  0.0000E+00  0.0000E+00  0.0000E+00  0.0000E+00  0.0000E+00  0.0000E+00
    -27.393  0.0000E+00  0.0000E+00  0.0000E+00  0.0000E+00  0.0000E+00  0.0000E+00  0.0000E+00  0.0000E+00  0.0000E+00  0.0000E+00  0.0000E+00  0.0000E+00  0.0000E+00  0.0000E+00  0.0000E+00  0.0000E+00  0.0000E+00  0.0000E+00
    -27.249  0.0000E+00  0.0000E+00  0.0000E+00  0.0000E+00  0.0000E+00  0.0000E+00  0.0000E+00  0.0000E+00  0.0000E+00  0.0000E+00  0.0000E+00  0.0000E+00  0.0000E+00  0.0000E+00  0.0000E+00  0.0000E+00  0.0000E+00  0.0000E+00
    -27.106  0.0000E+00  0.0000E+00  0.0000E+00  0.0000E+00  0.0000E+00  0.0000E+00  0.0000E+00  0.0000E+00  0.0000E+00  0.0000E+00  0.0000E+00  0.0000E+00  0.0000E+00  0.0000E+00  0.0000E+00  0.0000E+00  0.0000E+00  0.0000E+00
    -26.962  0.0000E+00  0.0000E+00  0.0000E+00  0.0000E+00  0.0000E+00  0.0000E+00  0.0000E+00  0.0000E+00  0.0000E+00  0.0000E+00  0.0000E+00  0.0000E+00  0.0000E+00  0.0000E+00  0.0000E+00  0.0000E+00  0.0000E+00  0.0000E+00
    -26.819  0.0000E+00  0.0000E+00  0.0000E+00  0.0000E+00  0.0000E+00  0.0000E+00  0.0000E+00  0.0000E+00  0.0000E+00  0.0000E+00  0.0000E+00  0.0000E+00  0.0000E+00  0.0000E+00  0.0000E+00  0.0000E+00  0.0000E+00  0.0000E+00
    -26.675  0.0000E+00  0.0000E+00  0.0000E+00  0.0000E+00  0.0000E+00  0.0000E+00  0.0000E+00  0.0000E+00  0.0000E+00  0.0000E+00  0.0000E+00  0.0000E+00  0.0000E+00  0.0000E+00  0.0000E+00  0.0000E+00  0.0000E+00  0.0000E+00
    -26.531  0.0000E+00  0.0000E+00  0.0000E+00  0.0000E+00  0.0000E+00  0.0000E+00  0.0000E+00  0.0000E+00  0.0000E+00  0.0000E+00  0.0000E+00  0.0000E+00  0.0000E+00  0.0000E+00  0.0000E+00  0.0000E+00  0.0000E+00  0.0000E+00
    -26.388  0.0000E+00  0.0000E+00  0.0000E+00  0.0000E+00  0.0000E+00  0.0000E+00  0.0000E+00  0.0000E+00  0.0000E+00  0.0000E+00  0.0000E+00  0.0000E+00  0.0000E+00  0.0000E+00  0.0000E+00  0.0000E+00  0.0000E+00  0.0000E+00
    -26.244  0.0000E+00  0.0000E+00  0.0000E+00  0.0000E+00  0.0000E+00  0.0000E+00  0.0000E+00  0.0000E+00  0.0000E+00  0.0000E+00  0.0000E+00  0.0000E+00  0.0000E+00  0.0000E+00  0.0000E+00  0.0000E+00  0.0000E+00  0.0000E+00
    -26.101  0.0000E+00  0.0000E+00  0.0000E+00  0.0000E+00  0.0000E+00  0.0000E+00  0.0000E+00  0.0000E+00  0.0000E+00  0.0000E+00  0.0000E+00  0.0000E+00  0.0000E+00  0.0000E+00  0.0000E+00  0.0000E+00  0.0000E+00  0.0000E+00
    -25.957  0.0000E+00  0.0000E+00  0.0000E+00  0.0000E+00  0.0000E+00  0.0000E+00  0.0000E+00  0.0000E+00  0.0000E+00  0.0000E+00  0.0000E+00  0.0000E+00  0.0000E+00  0.0000E+00  0.0000E+00  0.0000E+00  0.0000E+00  0.0000E+00
    -25.814  0.0000E+00  0.0000E+00  0.0000E+00  0.0000E+00  0.0000E+00  0.0000E+00  0.0000E+00  0.0000E+00  0.0000E+00  0.0000E+00  0.0000E+00  0.0000E+00  0.0000E+00  0.0000E+00  0.0000E+00  0.0000E+00  0.0000E+00  0.0000E+00
    -25.670  0.0000E+00  0.0000E+00  0.0000E+00  0.0000E+00  0.0000E+00  0.0000E+00  0.0000E+00  0.0000E+00  0.0000E+00  0.0000E+00  0.0000E+00  0.0000E+00  0.0000E+00  0.0000E+00  0.0000E+00  0.0000E+00  0.0000E+00  0.0000E+00
    -25.526  0.0000E+00  0.0000E+00  0.0000E+00  0.0000E+00  0.0000E+00  0.0000E+00  0.0000E+00  0.0000E+00  0.0000E+00  0.0000E+00  0.0000E+00  0.0000E+00  0.0000E+00  0.0000E+00  0.0000E+00  0.0000E+00  0.0000E+00  0.0000E+00
    -25.383  0.0000E+00  0.0000E+00  0.0000E+00  0.0000E+00  0.0000E+00  0.0000E+00  0.0000E+00  0.0000E+00  0.0000E+00  0.0000E+00  0.0000E+00  0.0000E+00  0.0000E+00  0.0000E+00  0.0000E+00  0.0000E+00  0.0000E+00  0.0000E+00
    -25.239  0.0000E+00  0.0000E+00  0.0000E+00  0.0000E+00  0.0000E+00  0.0000E+00  0.0000E+00  0.0000E+00  0.0000E+00  0.0000E+00  0.0000E+00  0.0000E+00  0.0000E+00  0.0000E+00  0.0000E+00  0.0000E+00  0.0000E+00  0.0000E+00
    -25.096  0.0000E+00  0.0000E+00  0.0000E+00  0.0000E+00  0.0000E+00  0.0000E+00  0.0000E+00  0.0000E+00  0.0000E+00  0.0000E+00  0.0000E+00  0.0000E+00  0.0000E+00  0.0000E+00  0.0000E+00  0.0000E+00  0.0000E+00  0.0000E+00
    -24.952  0.0000E+00  0.0000E+00  0.0000E+00  0.0000E+00  0.0000E+00  0.0000E+00  0.0000E+00  0.0000E+00  0.0000E+00  0.0000E+00  0.0000E+00  0.0000E+00  0.0000E+00  0.0000E+00  0.0000E+00  0.0000E+00  0.0000E+00  0.0000E+00
    -24.808  0.0000E+00  0.0000E+00  0.0000E+00  0.0000E+00  0.0000E+00  0.0000E+00  0.0000E+00  0.0000E+00  0.0000E+00  0.0000E+00  0.0000E+00  0.0000E+00  0.0000E+00  0.0000E+00  0.0000E+00  0.0000E+00  0.0000E+00  0.0000E+00
    -24.665  0.0000E+00  0.0000E+00  0.0000E+00  0.0000E+00  0.0000E+00  0.0000E+00  0.0000E+00  0.0000E+00  0.0000E+00  0.0000E+00  0.0000E+00  0.0000E+00  0.0000E+00  0.0000E+00  0.0000E+00  0.0000E+00  0.0000E+00  0.0000E+00
    -24.521  0.0000E+00  0.0000E+00  0.0000E+00  0.0000E+00  0.0000E+00  0.0000E+00  0.0000E+00  0.0000E+00  0.0000E+00  0.0000E+00  0.0000E+00  0.0000E+00  0.0000E+00  0.0000E+00  0.0000E+00  0.0000E+00  0.0000E+00  0.0000E+00
    -24.378  0.0000E+00  0.0000E+00  0.0000E+00  0.0000E+00  0.0000E+00  0.0000E+00  0.0000E+00  0.0000E+00  0.0000E+00  0.0000E+00  0.0000E+00  0.0000E+00  0.0000E+00  0.0000E+00  0.0000E+00  0.0000E+00  0.0000E+00  0.0000E+00
    -24.234  0.0000E+00  0.0000E+00  0.0000E+00  0.0000E+00  0.0000E+00  0.0000E+00  0.0000E+00  0.0000E+00  0.0000E+00  0.0000E+00  0.0000E+00  0.0000E+00  0.0000E+00  0.0000E+00  0.0000E+00  0.0000E+00  0.0000E+00  0.0000E+00
    -24.091  0.0000E+00  0.0000E+00  0.0000E+00  0.0000E+00  0.0000E+00  0.0000E+00  0.0000E+00  0.0000E+00  0.0000E+00  0.0000E+00  0.0000E+00  0.0000E+00  0.0000E+00  0.0000E+00  0.0000E+00  0.0000E+00  0.0000E+00  0.0000E+00
    -23.947  0.0000E+00  0.0000E+00  0.0000E+00  0.0000E+00  0.0000E+00  0.0000E+00  0.0000E+00  0.0000E+00  0.0000E+00  0.0000E+00  0.0000E+00  0.0000E+00  0.0000E+00  0.0000E+00  0.0000E+00  0.0000E+00  0.0000E+00  0.0000E+00
    -23.803  0.0000E+00  0.0000E+00  0.0000E+00  0.0000E+00  0.0000E+00  0.0000E+00  0.0000E+00  0.0000E+00  0.0000E+00  0.0000E+00  0.0000E+00  0.0000E+00  0.0000E+00  0.0000E+00  0.0000E+00  0.0000E+00  0.0000E+00  0.0000E+00
    -23.660  0.0000E+00  0.0000E+00  0.0000E+00  0.0000E+00  0.0000E+00  0.0000E+00  0.0000E+00  0.0000E+00  0.0000E+00  0.0000E+00  0.0000E+00  0.0000E+00  0.0000E+00  0.0000E+00  0.0000E+00  0.0000E+00  0.0000E+00  0.0000E+00