  16  16   1   0
  0.2092851E+02  0.3693883E-09  0.3693883E-09  0.2454098E-08  0.5000000E-15
  1.000000000000000E-004
  CAR 
 unknown system                          
     11.70030566    -31.49942733  301      5.65373432      1.00000000
    -31.499  0.0000E+00  0.0000E+00  0.0000E+00  0.0000E+00
    -31.355  0.0000E+00  0.0000E+00  0.0000E+00  0.0000E+00
    -31.211  0.0000E+00  0.0000E+00  0.0000E+00  0.0000E+00
    -31.067  0.0000E+00  0.0000E+00  0.0000E+00  0.0000E+00
    -30.923  0.0000E+00  0.0000E+00  0.0000E+00  0.0000E+00
    -30.779  0.0000E+00  0.0000E+00  0.0000E+00  0.0000E+00
    -30.635  0.0000E+00  0.0000E+00  0.0000E+00  0.0000E+00
    -30.491  0.0000E+00  0.0000E+00  0.0000E+00  0.0000E+00
    -30.347  0.0000E+00  0.0000E+00  0.0000E+00  0.0000E+00
    -30.203  0.0000E+00  0.0000E+00  0.0000E+00  0.0000E+00
    -30.059  0.1409E-03  0.1410E-03  0.2029E-04  0.2030E-04
    -29.915  0.7410E-02  0.7416E-02  0.1087E-02  0.1088E-02
    -29.771  0.1263E+00  0.1264E+00  0.1927E-01  0.1929E-01
    -29.627  0.2055E+01  0.2056E+01  0.3152E+00  0.3154E+00
    -29.483  0.1421E+02  0.1421E+02  0.2361E+01  0.2362E+01
    -29.339  0.1030E+02  0.1029E+02  0.3844E+01  0.3844E+01
    -29.195  0.1020E+01  0.1019E+01  0.3991E+01  0.3991E+01
    -29.051  0.0000E+00  0.0000E+00  0.4000E+01  0.4000E+01
    -28.907  0.0000E+00  0.0000E+00  0.4000E+01  0.4000E+01
    -28.763  0.0000E+00  0.0000E+00  0.4000E+01  0.4000E+01
    -28.619  0.0000E+00  0.0000E+00  0.4000E+01  0.4000E+01
    -28.475  0.0000E+00  0.0000E+00  0.4000E+01  0.4000E+01
    -28.331  0.0000E+00  0.0000E+00  0.4000E+01  0.4000E+01
    -28.187  0.0000E+00  0.0000E+00  0.4000E+01  0.4000E+01
    -28.043  0.0000E+00  0.0000E+00  0.4000E+01  0.4000E+01
    -27.899  0.0000E+00  0.0000E+00  0.4000E+01  0.4000E+01
    -27.755  0.0000E+00  0.0000E+00  0.4000E+01  0.4000E+01
    -27.611  0.0000E+00  0.0000E+00  0.4000E+01  0.4000E+01
    -27.467  0.0000E+00  0.0000E+00  0.4000E+01  0.4000E+01
    -27.323  0.0000E+00  0.0000E+00  0.4000E+01  0.4000E+01
    -27.179  0.0000E+00  0.0000E+00  0.4000E+01  0.4000E+01
    -27.035  0.0000E+00  0.0000E+00  0.4000E+01  0.4000E+01
    -26.891  0.0000E+00  0.0000E+00  0.4000E+01  0.4000E+01
    -26.747  0.0000E+00  0.0000E+00  0.4000E+01  0.4000E+01
    -26.603  0.0000E+00  0.0000E+00  0.4000E+01  0.4000E+01
    -26.459  0.0000E+00  0.0000E+00  0.4000E+01  0.4000E+01
    -26.315  0.0000E+00  0.0000E+00  0.4000E+01  0.4000E+01
    -26.171  0.0000E+00  0.0000E+00  0.4000E+01  0.4000E+01
    -26.027  0.0000E+00  0.0000E+00  0.4000E+01  0.4000E+01
    -25.883  0.0000E+00  0.0000E+00  0.4000E+01  0.4000E+01
    -25.739  0.0000E+00  0.0000E+00  0.4000E+01  0.4000E+01
    -25.595  0.0000E+00  0.0000E+00  0.4000E+01  0.4000E+01
    -25.451  0.0000E+00  0.0000E+00  0.4000E+01  0.4000E+01
    -25.307  0.0000E+00  0.0000E+00  0.4000E+01  0.4000E+01
    -25.163  0.0000E+00  0.0000E+00  0.4000E+01  0.4000E+01
    -25.019  0.0000E+00  0.0000E+00  0.4000E+01  0.4000E+01
    -24.875  0.0000E+00  0.0000E+00  0.4000E+01  0.4000E+01
    -24.731  0.0000E+00  0.0000E+00  0.4000E+01  0.4000E+01
    -24.587  0.0000E+00  0.0000E+00  0.4000E+01  0.4000E+01
    -24.443  0.0000E+00  0.0000E+00  0.4000E+01  0.4000E+01
    -24.299  0.0000E+00  0.0000E+00  0.4000E+01  0.4000E+01
    -24.155  0.0000E+00  0.0000E+00  0.4000E+01  0.4000E+01
    -24.011  0.0000E+00  0.0000E+00  0.4000E+01  0.4000E+01
    -23.867  0.0000E+00  0.0000E+00  0.4000E+01  0.4000E+01
    -23.723  0.0000E+00  0.0000E+00  0.4000E+01  0.4000E+01
    -23.579  0.0000E+00  0.0000E+00  0.4000E+01  0.4000E+01
    -23.435  0.0000E+00  0.0000E+00  0.4000E+01  0.4000E+01
    -23.291  0.0000E+00  0.0000E+00  0.4000E+01  0.4000E+01
    -23.147  0.0000E+00  0.0000E+00  0.4000E+01  0.4000E+01
    -23.003  0.0000E+00  0.0000E+00  0.4000E+01  0.4000E+01
    -22.859  0.0000E+00  0.0000E+00  0.4000E+01  0.4000E+01
    -22.715  0.0000E+00  0.0000E+00  0.4000E+01  0.4000E+01
    -22.571  0.0000E+00  0.0000E+00  0.4000E+01  0.4000E+01
    -22.427  0.0000E+00  0.0000E+00  0.4000E+01  0.4000E+01
    -22.283  0.0000E+00  0.0000E+00  0.4000E+01  0.4000E+01
    -22.139  0.0000E+00  0.0000E+00  0.4000E+01  0.4000E+01
    -21.995  0.0000E+00  0.0000E+00  0.4000E+01  0.4000E+01
    -21.851  0.0000E+00  0.0000E+00  0.4000E+01  0.4000E+01
    -21.707  0.0000E+00  0.0000E+00  0.4000E+01  0.4000E+01
    -21.563  0.0000E+00  0.0000E+00  0.4000E+01  0.4000E+01
    -21.419  0.0000E+00  0.0000E+00  0.4000E+01  0.4000E+01
    -21.275  0.0000E+00  0.0000E+00  0.4000E+01  0.4000E+01
    -21.131  0.0000E+00  0.0000E+00  0.4000E+01  0.4000E+01
    -20.987  0.0000E+00  0.0000E+00  0.4000E+01  0.4000E+01
    -20.843  0.0000E+00  0.0000E+00  0.4000E+01  0.4000E+01
    -20.699  0.0000E+00  0.0000E+00  0.4000E+01  0.4000E+01
    -20.555  0.0000E+00  0.0000E+00  0.4000E+01  0.4000E+01
    -20.411  0.0000E+00  0.0000E+00  0.4000E+01  0.4000E+01
    -20.267  0.0000E+00  0.0000E+00  0.4000E+01  0.4000E+01
    -20.123  0.0000E+00  0.0000E+00  0.4000E+01  0.4000E+01
    -19.979  0.0000E+00  0.0000E+00  0.4000E+01  0.4000E+01
    -19.835  0.0000E+00  0.0000E+00  0.4000E+01  0.4000E+01
    -19.692  0.0000E+00  0.0000E+00  0.4000E+01  0.4000E+01
    -19.548  0.0000E+00  0.0000E+00  0.4000E+01  0.4000E+01
    -19.404  0.0000E+00  0.0000E+00  0.4000E+01  0.4000E+01
    -19.260  0.0000E+00  0.0000E+00  0.4000E+01  0.4000E+01
    -19.116  0.0000E+00  0.0000E+00  0.4000E+01  0.4000E+01
    -18.972  0.0000E+00  0.0000E+00  0.4000E+01  0.4000E+01
    -18.828  0.0000E+00  0.0000E+00  0.4000E+01  0.4000E+01
    -18.684  0.0000E+00  0.0000E+00  0.4000E+01  0.4000E+01
    -18.540  0.0000E+00  0.0000E+00  0.4000E+01  0.4000E+01
    -18.396  0.0000E+00  0.0000E+00  0.4000E+01  0.4000E+01
    -18.252  0.0000E+00  0.0000E+00  0.4000E+01  0.4000E+01
    -18.108  0.0000E+00  0.0000E+00  0.4000E+01  0.4000E+01
    -17.964  0.0000E+00  0.0000E+00  0.4000E+01  0.4000E+01
    -17.820  0.0000E+00  0.0000E+00  0.4000E+01  0.4000E+01
    -17.676  0.0000E+00  0.0000E+00  0.4000E+01  0.4000E+01
    -17.532  0.0000E+00  0.0000E+00  0.4000E+01  0.4000E+01
    -17.388  0.0000E+00  0.0000E+00  0.4000E+01  0.4000E+01
    -17.244  0.0000E+00  0.0000E+00  0.4000E+01  0.4000E+01
    -17.100  0.0000E+00  0.0000E+00  0.4000E+01  0.4000E+01
    -16.956  0.0000E+00  0.0000E+00  0.4000E+01  0.4000E+01
    -16.812  0.0000E+00  0.0000E+00  0.4000E+01  0.4000E+01
    -16.668  0.0000E+00  0.0000E+00  0.4000E+01  0.4000E+01
    -16.524  0.0000E+00  0.0000E+00  0.4000E+01  0.4000E+01
    -16.380  0.0000E+00  0.0000E+00  0.4000E+01  0.4000E+01
    -16.236  0.0000E+00  0.0000E+00  0.4000E+01  0.4000E+01
    -16.092  0.0000E+00  0.0000E+00  0.4000E+01  0.4000E+01
    -15.948  0.0000E+00  0.0000E+00  0.4000E+01  0.4000E+01
    -15.804  0.0000E+00  0.0000E+00  0.4000E+01  0.4000E+01
    -15.660  0.0000E+00  0.0000E+00  0.4000E+01  0.4000E+01
    -15.516  0.0000E+00  0.0000E+00  0.4000E+01  0.4000E+01
    -15.372  0.0000E+00  0.0000E+00  0.4000E+01  0.4000E+01
    -15.228  0.0000E+00  0.0000E+00  0.4000E+01  0.4000E+01
    -15.084  0.0000E+00  0.0000E+00  0.4000E+01  0.4000E+01
    -14.940  0.0000E+00  0.0000E+00  0.4000E+01  0.4000E+01
    -14.796  0.0000E+00  0.0000E+00  0.4000E+01  0.4000E+01
    -14.652  0.0000E+00  0.0000E+00  0.4000E+01  0.4000E+01
    -14.508  0.0000E+00  0.0000E+00  0.4000E+01  0.4000E+01
    -14.364  0.0000E+00  0.0000E+00  0.4000E+01  0.4000E+01
    -14.220  0.0000E+00  0.0000E+00  0.4000E+01  0.4000E+01
    -14.076  0.0000E+00  0.0000E+00  0.4000E+01  0.4000E+01
    -13.932  0.0000E+00  0.0000E+00  0.4000E+01  0.4000E+01
    -13.788  0.0000E+00  0.0000E+00  0.4000E+01  0.4000E+01
    -13.644  0.0000E+00  0.0000E+00  0.4000E+01  0.4000E+01
    -13.500  0.0000E+00  0.0000E+00  0.4000E+01  0.4000E+01
    -13.356  0.0000E+00  0.0000E+00  0.4000E+01  0.4000E+01
    -13.212  0.0000E+00  0.0000E+00  0.4000E+01  0.4000E+01
    -13.068  0.0000E+00  0.0000E+00  0.4000E+01  0.4000E+01
    -12.924  0.0000E+00  0.0000E+00  0.4000E+01  0.4000E+01
    -12.780  0.0000E+00  0.0000E+00  0.4000E+01  0.4000E+01
    -12.636  0.0000E+00  0.0000E+00  0.4000E+01  0.4000E+01
    -12.492  0.0000E+00  0.0000E+00  0.4000E+01  0.4000E+01
    -12.348  0.1322E-02  0.1317E-02  0.4000E+01  0.4000E+01
    -12.204  0.2414E-01  0.2406E-01  0.4004E+01  0.4004E+01
    -12.060  0.4172E+00  0.4158E+00  0.4064E+01  0.4064E+01
    -11.916  0.4788E+01  0.4777E+01  0.4753E+01  0.4751E+01
    -11.772  0.1501E+02  0.1500E+02  0.6914E+01  0.6911E+01
    -11.628  0.2453E+02  0.2452E+02  0.1045E+02  0.1044E+02
    -11.484  0.2523E+02  0.2524E+02  0.1408E+02  0.1408E+02
    -11.340  0.1152E+02  0.1153E+02  0.1574E+02  0.1574E+02
    -11.196  0.1584E+01  0.1589E+01  0.1598E+02  0.1598E+02
    -11.052  0.6929E-01  0.6945E-01  0.1600E+02  0.1600E+02
    -10.908  0.0000E+00  0.0000E+00  0.1600E+02  0.1600E+02
    -10.764  0.0000E+00  0.0000E+00  0.1600E+02  0.1600E+02
    -10.620  0.0000E+00  0.0000E+00  0.1600E+02  0.1600E+02
    -10.476  0.0000E+00  0.0000E+00  0.1600E+02  0.1600E+02
    -10.332  0.0000E+00  0.0000E+00  0.1600E+02  0.1600E+02
    -10.188  0.0000E+00  0.0000E+00  0.1600E+02  0.1600E+02
    -10.044  0.0000E+00  0.0000E+00  0.1600E+02  0.1600E+02
     -9.900  0.0000E+00  0.0000E+00  0.1600E+02  0.1600E+02
     -9.756  0.0000E+00  0.0000E+00  0.1600E+02  0.1600E+02
     -9.612  0.0000E+00  0.0000E+00  0.1600E+02  0.1600E+02
     -9.468  0.0000E+00  0.0000E+00  0.1600E+02  0.1600E+02
     -9.324  0.0000E+00  0.0000E+00  0.1600E+02  0.1600E+02
     -9.180  0.0000E+00  0.0000E+00  0.1600E+02  0.1600E+02
     -9.036  0.0000E+00  0.0000E+00  0.1600E+02  0.1600E+02
     -8.892  0.0000E+00  0.0000E+00  0.1600E+02  0.1600E+02
     -8.748  0.0000E+00  0.0000E+00  0.1600E+02  0.1600E+02
     -8.604  0.0000E+00  0.0000E+00  0.1600E+02  0.1600E+02
     -8.460  0.0000E+00  0.0000E+00  0.1600E+02  0.1600E+02
     -8.316  0.0000E+00  0.0000E+00  0.1600E+02  0.1600E+02
     -8.172  0.0000E+00  0.0000E+00  0.1600E+02  0.1600E+02
     -8.028  0.0000E+00  0.0000E+00  0.1600E+02  0.1600E+02
     -7.884  0.0000E+00  0.0000E+00  0.1600E+02  0.1600E+02
     -7.740  0.0000E+00  0.0000E+00  0.1600E+02  0.1600E+02
     -7.596  0.0000E+00  0.0000E+00  0.1600E+02  0.1600E+02
     -7.452  0.0000E+00  0.0000E+00  0.1600E+02  0.1600E+02
     -7.308  0.0000E+00  0.0000E+00  0.1600E+02  0.1600E+02
     -7.164  0.0000E+00  0.0000E+00  0.1600E+02  0.1600E+02
     -7.020  0.0000E+00  0.0000E+00  0.1600E+02  0.1600E+02
     -6.876  0.0000E+00  0.0000E+00  0.1600E+02  0.1600E+02
     -6.732  0.0000E+00  0.0000E+00  0.1600E+02  0.1600E+02
     -6.588  0.0000E+00  0.0000E+00  0.1600E+02  0.1600E+02
     -6.444  0.0000E+00  0.0000E+00  0.1600E+02  0.1600E+02
     -6.300  0.0000E+00  0.0000E+00  0.1600E+02  0.1600E+02
     -6.156  0.0000E+00  0.0000E+00  0.1600E+02  0.1600E+02
     -6.012  0.0000E+00  0.0000E+00  0.1600E+02  0.1600E+02
     -5.868  0.0000E+00  0.0000E+00  0.1600E+02  0.1600E+02
     -5.724  0.0000E+00  0.0000E+00  0.1600E+02  0.1600E+02
     -5.580  0.0000E+00  0.0000E+00  0.1600E+02  0.1600E+02
     -5.436  0.0000E+00  0.0000E+00  0.1600E+02  0.1600E+02
     -5.292  0.3966E-05  0.4068E-05  0.1600E+02  0.1600E+02
     -5.148  0.1716E-03  0.1761E-03  0.1600E+02  0.1600E+02
     -5.004  0.2984E-02  0.3061E-02  0.1600E+02  0.1600E+02
     -4.860  0.4672E-01  0.4778E-01  0.1601E+02  0.1601E+02
     -4.716  0.3221E+00  0.3255E+00  0.1605E+02  0.1605E+02
     -4.572  0.5389E+00  0.5398E+00  0.1613E+02  0.1613E+02
     -4.428  0.6608E+00  0.6600E+00  0.1623E+02  0.1623E+02
     -4.284  0.5001E+00  0.5013E+00  0.1630E+02  0.1630E+02
     -4.140  0.7397E+00  0.7396E+00  0.1641E+02  0.1641E+02
     -3.996  0.5440E+00  0.5434E+00  0.1648E+02  0.1648E+02
     -3.852  0.5011E+00  0.5010E+00  0.1656E+02  0.1656E+02
     -3.708  0.7701E+00  0.7725E+00  0.1667E+02  0.1667E+02
     -3.564  0.6909E+00  0.6889E+00  0.1677E+02  0.1677E+02
     -3.420  0.3701E+00  0.3671E+00  0.1682E+02  0.1682E+02
     -3.276  0.5878E+00  0.5950E+00  0.1691E+02  0.1691E+02
     -3.132  0.9426E+00  0.9387E+00  0.1704E+02  0.1704E+02
     -2.988  0.5686E+00  0.5672E+00  0.1712E+02  0.1712E+02
     -2.844  0.4650E+00  0.4632E+00  0.1719E+02  0.1719E+02
     -2.700  0.9822E+00  0.9808E+00  0.1733E+02  0.1733E+02
     -2.556  0.1316E+01  0.1315E+01  0.1752E+02  0.1752E+02
     -2.412  0.1288E+01  0.1290E+01  0.1771E+02  0.1771E+02
     -2.268  0.1284E+01  0.1281E+01  0.1789E+02  0.1789E+02
     -2.124  0.1163E+01  0.1162E+01  0.1806E+02  0.1806E+02
     -1.980  0.1007E+01  0.1007E+01  0.1821E+02  0.1821E+02
     -1.836  0.1181E+01  0.1186E+01  0.1838E+02  0.1838E+02
     -1.692  0.1788E+01  0.1784E+01  0.1863E+02  0.1863E+02
     -1.548  0.1468E+01  0.1464E+01  0.1885E+02  0.1885E+02
     -1.404  0.6889E+00  0.6943E+00  0.1895E+02  0.1895E+02
     -1.260  0.1101E+01  0.1093E+01  0.1911E+02  0.1910E+02
     -1.116  0.2187E+01  0.2199E+01  0.1942E+02  0.1942E+02
     -0.972  0.2315E+01  0.2318E+01  0.1975E+02  0.1975E+02
     -0.828  0.2031E+01  0.2027E+01  0.2005E+02  0.2005E+02
     -0.684  0.2181E+01  0.2183E+01  0.2036E+02  0.2036E+02
     -0.540  0.2744E+01  0.2743E+01  0.2076E+02  0.2076E+02
     -0.396  0.2161E+01  0.2156E+01  0.2107E+02  0.2107E+02
     -0.252  0.1886E+01  0.1885E+01  0.2134E+02  0.2134E+02
     -0.108  0.1199E+01  0.1199E+01  0.2152E+02  0.2152E+02
      0.036  0.1091E+01  0.1090E+01  0.2167E+02  0.2167E+02
      0.180  0.6542E+00  0.6464E+00  0.2177E+02  0.2177E+02
      0.324  0.1023E+01  0.1019E+01  0.2191E+02  0.2191E+02
      0.468  0.1040E+01  0.1046E+01  0.2206E+02  0.2206E+02
      0.612  0.6667E+00  0.6737E+00  0.2216E+02  0.2216E+02
      0.756  0.1434E+01  0.1438E+01  0.2237E+02  0.2237E+02
      0.900  0.2064E+01  0.2063E+01  0.2266E+02  0.2267E+02
      1.044  0.2035E+01  0.2038E+01  0.2296E+02  0.2296E+02
      1.188  0.2887E+01  0.2884E+01  0.2337E+02  0.2338E+02
      1.332  0.2437E+01  0.2434E+01  0.2373E+02  0.2373E+02
      1.476  0.1562E+01  0.1564E+01  0.2395E+02  0.2395E+02
      1.620  0.2493E+01  0.2490E+01  0.2431E+02  0.2431E+02
      1.764  0.2362E+01  0.2370E+01  0.2465E+02  0.2465E+02
      1.908  0.2264E+01  0.2263E+01  0.2498E+02  0.2498E+02
      2.052  0.2191E+01  0.2182E+01  0.2529E+02  0.2529E+02
      2.196  0.2715E+01  0.2718E+01  0.2569E+02  0.2569E+02
      2.340  0.2857E+01  0.2853E+01  0.2610E+02  0.2610E+02
      2.484  0.2467E+01  0.2474E+01  0.2645E+02  0.2645E+02
      2.628  0.2986E+01  0.2991E+01  0.2689E+02  0.2689E+02
      2.772  0.3593E+01  0.3594E+01  0.2740E+02  0.2740E+02
      2.916  0.3257E+01  0.3253E+01  0.2787E+02  0.2787E+02
      3.060  0.2559E+01  0.2553E+01  0.2824E+02  0.2824E+02
      3.204  0.2350E+01  0.2343E+01  0.2858E+02  0.2858E+02
      3.348  0.2685E+01  0.2683E+01  0.2897E+02  0.2897E+02
      3.492  0.3539E+01  0.3542E+01  0.2948E+02  0.2948E+02
      3.636  0.3498E+01  0.3492E+01  0.2998E+02  0.2998E+02
      3.780  0.3385E+01  0.3395E+01  0.3047E+02  0.3047E+02
      3.924  0.4163E+01  0.4170E+01  0.3107E+02  0.3107E+02
      4.068  0.4746E+01  0.4737E+01  0.3176E+02  0.3176E+02
      4.212  0.3640E+01  0.3637E+01  0.3228E+02  0.3228E+02
      4.356  0.4145E+01  0.4138E+01  0.3288E+02  0.3288E+02
      4.500  0.4271E+01  0.4270E+01  0.3350E+02  0.3349E+02
      4.644  0.5025E+01  0.5030E+01  0.3422E+02  0.3422E+02
      4.788  0.4370E+01  0.4374E+01  0.3485E+02  0.3485E+02
      4.932  0.2993E+01  0.2995E+01  0.3528E+02  0.3528E+02
      5.076  0.3393E+01  0.3387E+01  0.3577E+02  0.3577E+02
      5.220  0.4260E+01  0.4258E+01  0.3639E+02  0.3639E+02
      5.364  0.3990E+01  0.3992E+01  0.3696E+02  0.3696E+02
      5.508  0.3906E+01  0.3897E+01  0.3753E+02  0.3752E+02
      5.652  0.3258E+01  0.3256E+01  0.3800E+02  0.3799E+02
      5.796  0.3071E+01  0.3067E+01  0.3844E+02  0.3844E+02
      5.940  0.3137E+01  0.3138E+01  0.3889E+02  0.3889E+02
      6.084  0.2987E+01  0.2985E+01  0.3932E+02  0.3932E+02
      6.228  0.3972E+01  0.3973E+01  0.3990E+02  0.3989E+02
      6.372  0.3880E+01  0.3885E+01  0.4046E+02  0.4045E+02
      6.516  0.2813E+01  0.2814E+01  0.4086E+02  0.4086E+02
      6.660  0.3542E+01  0.3536E+01  0.4137E+02  0.4137E+02
      6.804  0.4146E+01  0.4153E+01  0.4197E+02  0.4197E+02
      6.948  0.4112E+01  0.4117E+01  0.4256E+02  0.4256E+02
      7.092  0.5300E+01  0.5299E+01  0.4333E+02  0.4333E+02
      7.236  0.5946E+01  0.5950E+01  0.4419E+02  0.4419E+02
      7.380  0.6096E+01  0.6095E+01  0.4506E+02  0.4506E+02
      7.524  0.6972E+01  0.6965E+01  0.4607E+02  0.4607E+02
      7.668  0.6201E+01  0.6213E+01  0.4697E+02  0.4697E+02
      7.812  0.4956E+01  0.4958E+01  0.4768E+02  0.4768E+02
      7.956  0.3692E+01  0.3685E+01  0.4822E+02  0.4821E+02
      8.100  0.4268E+01  0.4259E+01  0.4883E+02  0.4883E+02
      8.244  0.4293E+01  0.4291E+01  0.4945E+02  0.4945E+02
      8.388  0.3243E+01  0.3246E+01  0.4992E+02  0.4992E+02
      8.532  0.2449E+01  0.2471E+01  0.5027E+02  0.5027E+02
      8.676  0.2329E+01  0.2282E+01  0.5061E+02  0.5060E+02
      8.820  0.1925E+01  0.2027E+01  0.5089E+02  0.5090E+02
      8.964  0.2142E+01  0.2362E+01  0.5120E+02  0.5124E+02
      9.108  0.1979E+01  0.1944E+01  0.5148E+02  0.5152E+02
      9.252  0.1539E+01  0.1403E+01  0.5170E+02  0.5172E+02
      9.396  0.1092E+01  0.1127E+01  0.5186E+02  0.5188E+02
      9.540  0.6962E+00  0.5402E+00  0.5196E+02  0.5196E+02
      9.684  0.2279E+00  0.1943E+00  0.5200E+02  0.5199E+02
      9.828  0.2203E-01  0.5690E-01  0.5200E+02  0.5200E+02
      9.972  0.4106E-03  0.8154E-02  0.5200E+02  0.5200E+02
     10.116  0.0000E+00  0.4600E-03  0.5200E+02  0.5200E+02
     10.260  0.0000E+00  0.0000E+00  0.5200E+02  0.5200E+02
     10.404  0.0000E+00  0.0000E+00  0.5200E+02  0.5200E+02
     10.548  0.0000E+00  0.0000E+00  0.5200E+02  0.5200E+02
     10.692  0.0000E+00  0.0000E+00  0.5200E+02  0.5200E+02
     10.836  0.0000E+00  0.0000E+00  0.5200E+02  0.5200E+02
     10.980  0.0000E+00  0.0000E+00  0.5200E+02  0.5200E+02
     11.124  0.0000E+00  0.0000E+00  0.5200E+02  0.5200E+02
     11.268  0.0000E+00  0.0000E+00  0.5200E+02  0.5200E+02
     11.412  0.0000E+00  0.0000E+00  0.5200E+02  0.5200E+02
     11.556  0.0000E+00  0.0000E+00  0.5200E+02  0.5200E+02
     11.700  0.0000E+00  0.0000E+00  0.5200E+02  0.5200E+02
     11.70030566    -31.49942733  301      5.65373432      1.00000000
    -31.499  0.0000E+00  0.0000E+00  0.0000E+00  0.0000E+00  0.0000E+00  0.0000E+00  0.0000E+00  0.0000E+00  0.0000E+00  0.0000E+00  0.0000E+00  0.0000E+00  0.0000E+00  0.0000E+00  0.0000E+00  0.0000E+00  0.0000E+00  0.0000E+00
    -31.355  0.0000E+00  0.0000E+00  0.0000E+00  0.0000E+00  0.0000E+00  0.0000E+00  0.0000E+00  0.0000E+00  0.0000E+00  0.0000E+00  0.0000E+00  0.0000E+00  0.0000E+00  0.0000E+00  0.0000E+00  0.0000E+00  0.0000E+00  0.0000E+00
    -31.211  0.0000E+00  0.0000E+00  0.0000E+00  0.0000E+00  0.0000E+00  0.0000E+00  0.0000E+00  0.0000E+00  0.0000E+00  0.0000E+00  0.0000E+00  0.0000E+00  0.0000E+00  0.0000E+00  0.0000E+00  0.0000E+00  0.0000E+00  0.0000E+00
    -31.067  0.0000E+00  0.0000E+00  0.0000E+00  0.0000E+00  0.0000E+00  0.0000E+00  0.0000E+00  0.0000E+00  0.0000E+00  0.0000E+00  0.0000E+00  0.0000E+00  0.0000E+00  0.0000E+00  0.0000E+00  0.0000E+00  0.0000E+00  0.0000E+00
    -30.923  0.0000E+00  0.0000E+00  0.0000E+00  0.0000E+00  0.0000E+00  0.0000E+00  0.0000E+00  0.0000E+00  0.0000E+00  0.0000E+00  0.0000E+00  0.0000E+00  0.0000E+00  0.0000E+00  0.0000E+00  0.0000E+00  0.0000E+00  0.0000E+00
    -30.779  0.0000E+00  0.0000E+00  0.0000E+00  0.0000E+00  0.0000E+00  0.0000E+00  0.0000E+00  0.0000E+00  0.0000E+00  0.0000E+00  0.0000E+00  0.0000E+00  0.0000E+00  0.0000E+00  0.0000E+00  0.0000E+00  0.0000E+00  0.0000E+00
    -30.635  0.0000E+00  0.0000E+00  0.0000E+00  0.0000E+00  0.0000E+00  0.0000E+00  0.0000E+00  0.0000E+00  0.0000E+00  0.0000E+00  0.0000E+00  0.0000E+00  0.0000E+00  0.0000E+00  0.0000E+00  0.0000E+00  0.0000E+00  0.0000E+00
    -30.491  0.0000E+00  0.0000E+00  0.0000E+00  0.0000E+00  0.0000E+00  0.0000E+00  0.0000E+00  0.0000E+00  0.0000E+00  0.0000E+00  0.0000E+00  0.0000E+00  0.0000E+00  0.0000E+00  0.0000E+00  0.0000E+00  0.0000E+00  0.0000E+00
    -30.347  0.0000E+00  0.0000E+00  0.0000E+00  0.0000E+00  0.0000E+00  0.0000E+00  0.0000E+00  0.0000E+00  0.0000E+00  0.0000E+00  0.0000E+00  0.0000E+00  0.0000E+00  0.0000E+00  0.0000E+00  0.0000E+00  0.0000E+00  0.0000E+00
    -30.203  0.0000E+00  0.0000E+00  0.0000E+00  0.0000E+00  0.0000E+00  0.0000E+00  0.0000E+00  0.0000E+00  0.0000E+00  0.0000E+00  0.0000E+00  0.0000E+00  0.0000E+00  0.0000E+00  0.0000E+00  0.0000E+00  0.0000E+00  0.0000E+00
    -30.059  0.3437E-04  0.3440E-04  0.5202E-10  0.5207E-10  0.1569E-10  0.1627E-10  0.5202E-10  0.5207E-10  0.2053E-14  0.2028E-14  0.1387E-13  0.1412E-13  0.9229E-10  0.9182E-10  0.1387E-13  0.1412E-13  0.8875E-11  0.8848E-11
    -29.915  0.1810E-02  0.1812E-02  0.3306E-08  0.3309E-08  0.7547E-09  0.7828E-09  0.3306E-08  0.3309E-08  0.2289E-12  0.2378E-12  0.8096E-12  0.8109E-12  0.2405E-08  0.2392E-08  0.8096E-12  0.8109E-12  0.1977E-08  0.1971E-08
    -29.771  0.3085E-01  0.3088E-01  0.5616E-07  0.5621E-07  0.1288E-07  0.1336E-07  0.5616E-07  0.5621E-07  0.3865E-11  0.4012E-11  0.1377E-10  0.1380E-10  0.4170E-07  0.4148E-07  0.1377E-10  0.1380E-10  0.3323E-07  0.3313E-07
    -29.627  0.5020E+00  0.5024E+00  0.9166E-06  0.9173E-06  0.2092E-06  0.2169E-06  0.9166E-06  0.9173E-06  0.6331E-10  0.6579E-10  0.2244E-09  0.2247E-09  0.6646E-06  0.6610E-06  0.2244E-09  0.2247E-09  0.5459E-06  0.5443E-06
    -29.483  0.3472E+01  0.3473E+01  0.6408E-05  0.6410E-05  0.1424E-05  0.1476E-05  0.6408E-05  0.6410E-05  0.4509E-09  0.4715E-09  0.1548E-08  0.1545E-08  0.3946E-05  0.3922E-05  0.1548E-08  0.1545E-08  0.3936E-05  0.3922E-05
    -29.339  0.2518E+01  0.2517E+01  0.4618E-05  0.4616E-05  0.1009E-05  0.1045E-05  0.4618E-05  0.4616E-05  0.3262E-09  0.3446E-09  0.1093E-08  0.1086E-08  0.2267E-05  0.2252E-05  0.1093E-08  0.1086E-08  0.2837E-05  0.2825E-05
    -29.195  0.2494E+00  0.2492E+00  0.4514E-06  0.4511E-06  0.9893E-07  0.1024E-06  0.4514E-06  0.4511E-06  0.3161E-10  0.3356E-10  0.1059E-09  0.1049E-09  0.2018E-06  0.2004E-06  0.1059E-09  0.1049E-09  0.2718E-06  0.2705E-06
    -29.051  0.0000E+00  0.0000E+00  0.0000E+00  0.0000E+00  0.0000E+00  0.0000E+00  0.0000E+00  0.0000E+00  0.0000E+00  0.0000E+00  0.0000E+00  0.0000E+00  0.0000E+00  0.0000E+00  0.0000E+00  0.0000E+00  0.0000E+00  0.0000E+00
    -28.907  0.0000E+00  0.0000E+00  0.0000E+00  0.0000E+00  0.0000E+00  0.0000E+00  0.0000E+00  0.0000E+00  0.0000E+00  0.0000E+00  0.0000E+00  0.0000E+00  0.0000E+00  0.0000E+00  0.0000E+00  0.0000E+00  0.0000E+00  0.0000E+00
    -28.763  0.0000E+00  0.0000E+00  0.0000E+00  0.0000E+00  0.0000E+00  0.0000E+00  0.0000E+00  0.0000E+00  0.0000E+00  0.0000E+00  0.0000E+00  0.0000E+00  0.0000E+00  0.0000E+00  0.0000E+00  0.0000E+00  0.0000E+00  0.0000E+00
    -28.619  0.0000E+00  0.0000E+00  0.0000E+00  0.0000E+00  0.0000E+00  0.0000E+00  0.0000E+00  0.0000E+00  0.0000E+00  0.0000E+00  0.0000E+00  0.0000E+00  0.0000E+00  0.0000E+00  0.0000E+00  0.0000E+00  0.0000E+00  0.0000E+00
    -28.475  0.0000E+00  0.0000E+00  0.0000E+00  0.0000E+00  0.0000E+00  0.0000E+00  0.0000E+00  0.0000E+00  0.0000E+00  0.0000E+00  0.0000E+00  0.0000E+00  0.0000E+00  0.0000E+00  0.0000E+00  0.0000E+00  0.0000E+00  0.0000E+00
    -28.331  0.0000E+00  0.0000E+00  0.0000E+00  0.0000E+00  0.0000E+00  0.0000E+00  0.0000E+00  0.0000E+00  0.0000E+00  0.0000E+00  0.0000E+00  0.0000E+00  0.0000E+00  0.0000E+00  0.0000E+00  0.0000E+00  0.0000E+00  0.0000E+00
    -28.187  0.0000E+00  0.0000E+00  0.0000E+00  0.0000E+00  0.0000E+00  0.0000E+00  0.0000E+00  0.0000E+00  0.0000E+00  0.0000E+00  0.0000E+00  0.0000E+00  0.0000E+00  0.0000E+00  0.0000E+00  0.0000E+00  0.0000E+00  0.0000E+00
    -28.043  0.0000E+00  0.0000E+00  0.0000E+00  0.0000E+00  0.0000E+00  0.0000E+00  0.0000E+00  0.0000E+00  0.0000E+00  0.0000E+00  0.0000E+00  0.0000E+00  0.0000E+00  0.0000E+00  0.0000E+00  0.0000E+00  0.0000E+00  0.0000E+00
    -27.899  0.0000E+00  0.0000E+00  0.0000E+00  0.0000E+00  0.0000E+00  0.0000E+00  0.0000E+00  0.0000E+00  0.0000E+00  0.0000E+00  0.0000E+00  0.0000E+00  0.0000E+00  0.0000E+00  0.0000E+00  0.0000E+00  0.0000E+00  0.0000E+00
    -27.755  0.0000E+00  0.0000E+00  0.0000E+00  0.0000E+00  0.0000E+00  0.0000E+00  0.0000E+00  0.0000E+00  0.0000E+00  0.0000E+00  0.0000E+00  0.0000E+00  0.0000E+00  0.0000E+00  0.0000E+00  0.0000E+00  0.0000E+00  0.0000E+00
    -27.611  0.0000E+00  0.0000E+00  0.0000E+00  0.0000E+00  0.0000E+00  0.0000E+00  0.0000E+00  0.0000E+00  0.0000E+00  0.0000E+00  0.0000E+00  0.0000E+00  0.0000E+00  0.0000E+00  0.0000E+00  0.0000E+00  0.0000E+00  0.0000E+00
    -27.467  0.0000E+00  0.0000E+00  0.0000E+00  0.0000E+00  0.0000E+00  0.0000E+00  0.0000E+00  0.0000E+00  0.0000E+00  0.0000E+00  0.0000E+00  0.0000E+00  0.0000E+00  0.0000E+00  0.0000E+00  0.0000E+00  0.0000E+00  0.0000E+00
    -27.323  0.0000E+00  0.0000E+00  0.0000E+00  0.0000E+00  0.0000E+00  0.0000E+00  0.0000E+00  0.0000E+00  0.0000E+00  0.0000E+00  0.0000E+00  0.0000E+00  0.0000E+00  0.0000E+00  0.0000E+00  0.0000E+00  0.0000E+00  0.0000E+00
    -27.179  0.0000E+00  0.0000E+00  0.0000E+00  0.0000E+00  0.0000E+00  0.0000E+00  0.0000E+00  0.0000E+00  0.0000E+00  0.0000E+00  0.0000E+00  0.0000E+00  0.0000E+00  0.0000E+00  0.0000E+00  0.0000E+00  0.0000E+00  0.0000E+00
    -27.035  0.0000E+00  0.0000E+00  0.0000E+00  0.0000E+00  0.0000E+00  0.0000E+00  0.0000E+00  0.0000E+00  0.0000E+00  0.0000E+00  0.0000E+00  0.0000E+00  0.0000E+00  0.0000E+00  0.0000E+00  0.0000E+00  0.0000E+00  0.0000E+00
    -26.891  0.0000E+00  0.0000E+00  0.0000E+00  0.0000E+00  0.0000E+00  0.0000E+00  0.0000E+00  0.0000E+00  0.0000E+00  0.0000E+00  0.0000E+00  0.0000E+00  0.0000E+00  0.0000E+00  0.0000E+00  0.0000E+00  0.0000E+00  0.0000E+00
    -26.747  0.0000E+00  0.0000E+00  0.0000E+00  0.0000E+00  0.0000E+00  0.0000E+00  0.0000E+00  0.0000E+00  0.0000E+00  0.0000E+00  0.0000E+00  0.0000E+00  0.0000E+00  0.0000E+00  0.0000E+00  0.0000E+00  0.0000E+00  0.0000E+00
    -26.603  0.0000E+00  0.0000E+00  0.0000E+00  0.0000E+00  0.0000E+00  0.0000E+00  0.0000E+00  0.0000E+00  0.0000E+00  0.0000E+00  0.0000E+00  0.0000E+00  0.0000E+00  0.0000E+00  0.0000E+00  0.0000E+00  0.0000E+00  0.0000E+00
    -26.459  0.0000E+00  0.0000E+00  0.0000E+00  0.0000E+00  0.0000E+00  0.0000E+00  0.0000E+00  0.0000E+00  0.0000E+00  0.0000E+00  0.0000E+00  0.0000E+00  0.0000E+00  0.0000E+00  0.0000E+00  0.0000E+00  0.0000E+00  0.0000E+00
    -26.315  0.0000E+00  0.0000E+00  0.0000E+00  0.0000E+00  0.0000E+00  0.0000E+00  0.0000E+00  0.0000E+00  0.0000E+00  0.0000E+00  0.0000E+00  0.0000E+00  0.0000E+00  0.0000E+00  0.0000E+00  0.0000E+00  0.0000E+00  0.0000E+00
    -26.171  0.0000E+00  0.0000E+00  0.0000E+00  0.0000E+00  0.0000E+00  0.0000E+00  0.0000E+00  0.0000E+00  0.0000E+00  0.0000E+00  0.0000E+00  0.0000E+00  0.0000E+00  0.0000E+00  0.0000E+00  0.0000E+00  0.0000E+00  0.0000E+00
    -26.027  0.0000E+00  0.0000E+00  0.0000E+00  0.0000E+00  0.0000E+00  0.0000E+00  0.0000E+00  0.0000E+00  0.0000E+00  0.0000E+00  0.0000E+00  0.0000E+00  0.0000E+00  0.0000E+00  0.0000E+00  0.0000E+00  0.0000E+00  0.0000E+00
    -25.883  0.0000E+00  0.0000E+00  0.0000E+00  0.0000E+00  0.0000E+00  0.0000E+00  0.0000E+00  0.0000E+00  0.0000E+00  0.0000E+00  0.0000E+00  0.0000E+00  0.0000E+00  0.0000E+00  0.0000E+00  0.0000E+00  0.0000E+00  0.0000E+00
    -25.739  0.0000E+00  0.0000E+00  0.0000E+00  0.0000E+00  0.0000E+00  0.0000E+00  0.0000E+00  0.0000E+00  0.0000E+00  0.0000E+00  0.0000E+00  0.0000E+00  0.0000E+00  0.0000E+00  0.0000E+00  0.0000E+00  0.0000E+00  0.0000E+00
    -25.595  0.0000E+00  0.0000E+00  0.0000E+00  0.0000E+00  0.0000E+00  0.0000E+00  0.0000E+00  0.0000E+00  0.0000E+00  0.0000E+00  0.0000E+00  0.0000E+00  0.0000E+00  0.0000E+00  0.0000E+00  0.0000E+00  0.0000E+00  0.0000E+00
    -25.451  0.0000E+00  0.0000E+00  0.0000E+00  0.0000E+00  0.0000E+00  0.0000E+00  0.0000E+00  0.0000E+00  0.0000E+00  0.0000E+00  0.0000E+00  0.0000E+00  0.0000E+00  0.0000E+00  0.0000E+00  0.0000E+00  0.0000E+00  0.0000E+00
    -25.307  0.0000E+00  0.0000E+00  0.0000E+00  0.0000E+00  0.0000E+00  0.0000E+00  0.0000E+00  0.0000E+00  0.0000E+00  0.0000E+00  0.0000E+00  0.0000E+00  0.0000E+00  0.0000E+00  0.0000E+00  0.0000E+00  0.0000E+00  0.0000E+00
    -25.163  0.0000E+00  0.0000E+00  0.0000E+00  0.0000E+00  0.0000E+00  0.0000E+00  0.0000E+00  0.0000E+00  0.0000E+00  0.0000E+00  0.0000E+00  0.0000E+00  0.0000E+00  0.0000E+00  0.0000E+00  0.0000E+00  0.0000E+00  0.0000E+00
    -25.019  0.0000E+00  0.0000E+00  0.0000E+00  0.0000E+00  0.0000E+00  0.0000E+00  0.0000E+00  0.0000E+00  0.0000E+00  0.0000E+00  0.0000E+00  0.0000E+00  0.0000E+00  0.0000E+00  0.0000E+00  0.0000E+00  0.0000E+00  0.0000E+00
    -24.875  0.0000E+00  0.0000E+00  0.0000E+00  0.0000E+00  0.0000E+00  0.0000E+00  0.0000E+00  0.0000E+00  0.0000E+00  0.0000E+00  0.0000E+00  0.0000E+00  0.0000E+00  0.0000E+00  0.0000E+00  0.0000E+00  0.0000E+00  0.0000E+00
    -24.731  0.0000E+00  0.0000E+00  0.0000E+00  0.0000E+00  0.0000E+00  0.0000E+00  0.0000E+00  0.0000E+00  0.0000E+00  0.0000E+00  0.0000E+00  0.0000E+00  0.0000E+00  0.0000E+00  0.0000E+00  0.0000E+00  0.0000E+00  0.0000E+00
    -24.587  0.0000E+00  0.0000E+00  0.0000E+00  0.0000E+00  0.0000E+00  0.0000E+00  0.0000E+00  0.0000E+00  0.0000E+00  0.0000E+00  0.0000E+00  0.0000E+00  0.0000E+00  0.0000E+00  0.0000E+00  0.0000E+00  0.0000E+00  0.0000E+00
    -24.443  0.0000E+00  0.0000E+00  0.0000E+00  0.0000E+00  0.0000E+00  0.0000E+00  0.0000E+00  0.0000E+00  0.0000E+00  0.0000E+00  0.0000E+00  0.0000E+00  0.0000E+00  0.0000E+00  0.0000E+00  0.0000E+00  0.0000E+00  0.0000E+00
    -24.299  0.0000E+00  0.0000E+00  0.0000E+00  0.0000E+00  0.0000E+00  0.0000E+00  0.0000E+00  0.0000E+00  0.0000E+00  0.0000E+00  0.0000E+00  0.0000E+00  0.0000E+00  0.0000E+00  0.0000E+00  0.0000E+00  0.0000E+00  0.0000E+00