  16  16   1   0
  0.2026063E+02  0.3654164E-09  0.3654164E-09  0.2427710E-08  0.5000000E-15
  1.000000000000000E-004
  CAR 
 unknown system                          
     12.00574540    -31.17461630  301      5.91235035      1.00000000
    -31.175  0.0000E+00  0.0000E+00  0.0000E+00  0.0000E+00
    -31.031  0.0000E+00  0.0000E+00  0.0000E+00  0.0000E+00
    -30.887  0.0000E+00  0.0000E+00  0.0000E+00  0.0000E+00
    -30.743  0.0000E+00  0.0000E+00  0.0000E+00  0.0000E+00
    -30.599  0.0000E+00  0.0000E+00  0.0000E+00  0.0000E+00
    -30.455  0.0000E+00  0.0000E+00  0.0000E+00  0.0000E+00
    -30.311  0.0000E+00  0.0000E+00  0.0000E+00  0.0000E+00
    -30.167  0.0000E+00  0.0000E+00  0.0000E+00  0.0000E+00
    -30.023  0.0000E+00  0.0000E+00  0.0000E+00  0.0000E+00
    -29.879  0.0000E+00  0.0000E+00  0.0000E+00  0.0000E+00
    -29.735  0.1377E-03  0.1378E-03  0.1982E-04  0.1983E-04
    -29.591  0.6853E-02  0.6857E-02  0.1006E-02  0.1007E-02
    -29.447  0.1168E+00  0.1169E+00  0.1781E-01  0.1783E-01
    -29.303  0.1906E+01  0.1907E+01  0.2921E+00  0.2923E+00
    -29.160  0.1371E+02  0.1371E+02  0.2265E+01  0.2266E+01
    -29.016  0.1084E+02  0.1084E+02  0.3826E+01  0.3826E+01
    -28.872  0.1138E+01  0.1138E+01  0.3990E+01  0.3990E+01
    -28.728  0.0000E+00  0.0000E+00  0.4000E+01  0.4000E+01
    -28.584  0.0000E+00  0.0000E+00  0.4000E+01  0.4000E+01
    -28.440  0.0000E+00  0.0000E+00  0.4000E+01  0.4000E+01
    -28.296  0.0000E+00  0.0000E+00  0.4000E+01  0.4000E+01
    -28.152  0.0000E+00  0.0000E+00  0.4000E+01  0.4000E+01
    -28.008  0.0000E+00  0.0000E+00  0.4000E+01  0.4000E+01
    -27.864  0.0000E+00  0.0000E+00  0.4000E+01  0.4000E+01
    -27.720  0.0000E+00  0.0000E+00  0.4000E+01  0.4000E+01
    -27.576  0.0000E+00  0.0000E+00  0.4000E+01  0.4000E+01
    -27.432  0.0000E+00  0.0000E+00  0.4000E+01  0.4000E+01
    -27.288  0.0000E+00  0.0000E+00  0.4000E+01  0.4000E+01
    -27.144  0.0000E+00  0.0000E+00  0.4000E+01  0.4000E+01
    -27.001  0.0000E+00  0.0000E+00  0.4000E+01  0.4000E+01
    -26.857  0.0000E+00  0.0000E+00  0.4000E+01  0.4000E+01
    -26.713  0.0000E+00  0.0000E+00  0.4000E+01  0.4000E+01
    -26.569  0.0000E+00  0.0000E+00  0.4000E+01  0.4000E+01
    -26.425  0.0000E+00  0.0000E+00  0.4000E+01  0.4000E+01
    -26.281  0.0000E+00  0.0000E+00  0.4000E+01  0.4000E+01
    -26.137  0.0000E+00  0.0000E+00  0.4000E+01  0.4000E+01
    -25.993  0.0000E+00  0.0000E+00  0.4000E+01  0.4000E+01
    -25.849  0.0000E+00  0.0000E+00  0.4000E+01  0.4000E+01
    -25.705  0.0000E+00  0.0000E+00  0.4000E+01  0.4000E+01
    -25.561  0.0000E+00  0.0000E+00  0.4000E+01  0.4000E+01
    -25.417  0.0000E+00  0.0000E+00  0.4000E+01  0.4000E+01
    -25.273  0.0000E+00  0.0000E+00  0.4000E+01  0.4000E+01
    -25.129  0.0000E+00  0.0000E+00  0.4000E+01  0.4000E+01
    -24.985  0.0000E+00  0.0000E+00  0.4000E+01  0.4000E+01
    -24.841  0.0000E+00  0.0000E+00  0.4000E+01  0.4000E+01
    -24.698  0.0000E+00  0.0000E+00  0.4000E+01  0.4000E+01
    -24.554  0.0000E+00  0.0000E+00  0.4000E+01  0.4000E+01
    -24.410  0.0000E+00  0.0000E+00  0.4000E+01  0.4000E+01
    -24.266  0.0000E+00  0.0000E+00  0.4000E+01  0.4000E+01
    -24.122  0.0000E+00  0.0000E+00  0.4000E+01  0.4000E+01
    -23.978  0.0000E+00  0.0000E+00  0.4000E+01  0.4000E+01
    -23.834  0.0000E+00  0.0000E+00  0.4000E+01  0.4000E+01
    -23.690  0.0000E+00  0.0000E+00  0.4000E+01  0.4000E+01
    -23.546  0.0000E+00  0.0000E+00  0.4000E+01  0.4000E+01
    -23.402  0.0000E+00  0.0000E+00  0.4000E+01  0.4000E+01
    -23.258  0.0000E+00  0.0000E+00  0.4000E+01  0.4000E+01
    -23.114  0.0000E+00  0.0000E+00  0.4000E+01  0.4000E+01
    -22.970  0.0000E+00  0.0000E+00  0.4000E+01  0.4000E+01
    -22.826  0.0000E+00  0.0000E+00  0.4000E+01  0.4000E+01
    -22.682  0.0000E+00  0.0000E+00  0.4000E+01  0.4000E+01
    -22.539  0.0000E+00  0.0000E+00  0.4000E+01  0.4000E+01
    -22.395  0.0000E+00  0.0000E+00  0.4000E+01  0.4000E+01
    -22.251  0.0000E+00  0.0000E+00  0.4000E+01  0.4000E+01
    -22.107  0.0000E+00  0.0000E+00  0.4000E+01  0.4000E+01
    -21.963  0.0000E+00  0.0000E+00  0.4000E+01  0.4000E+01
    -21.819  0.0000E+00  0.0000E+00  0.4000E+01  0.4000E+01
    -21.675  0.0000E+00  0.0000E+00  0.4000E+01  0.4000E+01
    -21.531  0.0000E+00  0.0000E+00  0.4000E+01  0.4000E+01
    -21.387  0.0000E+00  0.0000E+00  0.4000E+01  0.4000E+01
    -21.243  0.0000E+00  0.0000E+00  0.4000E+01  0.4000E+01
    -21.099  0.0000E+00  0.0000E+00  0.4000E+01  0.4000E+01
    -20.955  0.0000E+00  0.0000E+00  0.4000E+01  0.4000E+01
    -20.811  0.0000E+00  0.0000E+00  0.4000E+01  0.4000E+01
    -20.667  0.0000E+00  0.0000E+00  0.4000E+01  0.4000E+01
    -20.523  0.0000E+00  0.0000E+00  0.4000E+01  0.4000E+01
    -20.380  0.0000E+00  0.0000E+00  0.4000E+01  0.4000E+01
    -20.236  0.0000E+00  0.0000E+00  0.4000E+01  0.4000E+01
    -20.092  0.0000E+00  0.0000E+00  0.4000E+01  0.4000E+01
    -19.948  0.0000E+00  0.0000E+00  0.4000E+01  0.4000E+01
    -19.804  0.0000E+00  0.0000E+00  0.4000E+01  0.4000E+01
    -19.660  0.0000E+00  0.0000E+00  0.4000E+01  0.4000E+01
    -19.516  0.0000E+00  0.0000E+00  0.4000E+01  0.4000E+01
    -19.372  0.0000E+00  0.0000E+00  0.4000E+01  0.4000E+01
    -19.228  0.0000E+00  0.0000E+00  0.4000E+01  0.4000E+01
    -19.084  0.0000E+00  0.0000E+00  0.4000E+01  0.4000E+01
    -18.940  0.0000E+00  0.0000E+00  0.4000E+01  0.4000E+01
    -18.796  0.0000E+00  0.0000E+00  0.4000E+01  0.4000E+01
    -18.652  0.0000E+00  0.0000E+00  0.4000E+01  0.4000E+01
    -18.508  0.0000E+00  0.0000E+00  0.4000E+01  0.4000E+01
    -18.364  0.0000E+00  0.0000E+00  0.4000E+01  0.4000E+01
    -18.221  0.0000E+00  0.0000E+00  0.4000E+01  0.4000E+01
    -18.077  0.0000E+00  0.0000E+00  0.4000E+01  0.4000E+01
    -17.933  0.0000E+00  0.0000E+00  0.4000E+01  0.4000E+01
    -17.789  0.0000E+00  0.0000E+00  0.4000E+01  0.4000E+01
    -17.645  0.0000E+00  0.0000E+00  0.4000E+01  0.4000E+01
    -17.501  0.0000E+00  0.0000E+00  0.4000E+01  0.4000E+01
    -17.357  0.0000E+00  0.0000E+00  0.4000E+01  0.4000E+01
    -17.213  0.0000E+00  0.0000E+00  0.4000E+01  0.4000E+01
    -17.069  0.0000E+00  0.0000E+00  0.4000E+01  0.4000E+01
    -16.925  0.0000E+00  0.0000E+00  0.4000E+01  0.4000E+01
    -16.781  0.0000E+00  0.0000E+00  0.4000E+01  0.4000E+01
    -16.637  0.0000E+00  0.0000E+00  0.4000E+01  0.4000E+01
    -16.493  0.0000E+00  0.0000E+00  0.4000E+01  0.4000E+01
    -16.349  0.0000E+00  0.0000E+00  0.4000E+01  0.4000E+01
    -16.205  0.0000E+00  0.0000E+00  0.4000E+01  0.4000E+01
    -16.061  0.0000E+00  0.0000E+00  0.4000E+01  0.4000E+01
    -15.918  0.0000E+00  0.0000E+00  0.4000E+01  0.4000E+01
    -15.774  0.0000E+00  0.0000E+00  0.4000E+01  0.4000E+01
    -15.630  0.0000E+00  0.0000E+00  0.4000E+01  0.4000E+01
    -15.486  0.0000E+00  0.0000E+00  0.4000E+01  0.4000E+01
    -15.342  0.0000E+00  0.0000E+00  0.4000E+01  0.4000E+01
    -15.198  0.0000E+00  0.0000E+00  0.4000E+01  0.4000E+01
    -15.054  0.0000E+00  0.0000E+00  0.4000E+01  0.4000E+01
    -14.910  0.0000E+00  0.0000E+00  0.4000E+01  0.4000E+01
    -14.766  0.0000E+00  0.0000E+00  0.4000E+01  0.4000E+01
    -14.622  0.0000E+00  0.0000E+00  0.4000E+01  0.4000E+01
    -14.478  0.0000E+00  0.0000E+00  0.4000E+01  0.4000E+01
    -14.334  0.0000E+00  0.0000E+00  0.4000E+01  0.4000E+01
    -14.190  0.0000E+00  0.0000E+00  0.4000E+01  0.4000E+01
    -14.046  0.0000E+00  0.0000E+00  0.4000E+01  0.4000E+01
    -13.902  0.0000E+00  0.0000E+00  0.4000E+01  0.4000E+01
    -13.759  0.0000E+00  0.0000E+00  0.4000E+01  0.4000E+01
    -13.615  0.0000E+00  0.0000E+00  0.4000E+01  0.4000E+01
    -13.471  0.0000E+00  0.0000E+00  0.4000E+01  0.4000E+01
    -13.327  0.0000E+00  0.0000E+00  0.4000E+01  0.4000E+01
    -13.183  0.0000E+00  0.0000E+00  0.4000E+01  0.4000E+01
    -13.039  0.0000E+00  0.0000E+00  0.4000E+01  0.4000E+01
    -12.895  0.0000E+00  0.0000E+00  0.4000E+01  0.4000E+01
    -12.751  0.0000E+00  0.0000E+00  0.4000E+01  0.4000E+01
    -12.607  0.0000E+00  0.0000E+00  0.4000E+01  0.4000E+01
    -12.463  0.0000E+00  0.0000E+00  0.4000E+01  0.4000E+01
    -12.319  0.0000E+00  0.0000E+00  0.4000E+01  0.4000E+01
    -12.175  0.4708E-04  0.4693E-04  0.4000E+01  0.4000E+01
    -12.031  0.2482E-02  0.2474E-02  0.4000E+01  0.4000E+01
    -11.887  0.4401E-01  0.4387E-01  0.4007E+01  0.4007E+01
    -11.743  0.7316E+00  0.7294E+00  0.4112E+01  0.4112E+01
    -11.600  0.6513E+01  0.6502E+01  0.5049E+01  0.5048E+01
    -11.456  0.1506E+02  0.1506E+02  0.7217E+01  0.7215E+01
    -11.312  0.2376E+02  0.2376E+02  0.1064E+02  0.1063E+02
    -11.168  0.2298E+02  0.2299E+02  0.1395E+02  0.1395E+02
    -11.024  0.1190E+02  0.1191E+02  0.1566E+02  0.1566E+02
    -10.880  0.2102E+01  0.2106E+01  0.1598E+02  0.1598E+02
    -10.736  0.1113E+00  0.1115E+00  0.1600E+02  0.1600E+02
    -10.592  0.0000E+00  0.0000E+00  0.1600E+02  0.1600E+02
    -10.448  0.0000E+00  0.0000E+00  0.1600E+02  0.1600E+02
    -10.304  0.0000E+00  0.0000E+00  0.1600E+02  0.1600E+02
    -10.160  0.0000E+00  0.0000E+00  0.1600E+02  0.1600E+02
    -10.016  0.0000E+00  0.0000E+00  0.1600E+02  0.1600E+02
     -9.872  0.0000E+00  0.0000E+00  0.1600E+02  0.1600E+02
     -9.728  0.0000E+00  0.0000E+00  0.1600E+02  0.1600E+02
     -9.584  0.0000E+00  0.0000E+00  0.1600E+02  0.1600E+02
     -9.441  0.0000E+00  0.0000E+00  0.1600E+02  0.1600E+02
     -9.297  0.0000E+00  0.0000E+00  0.1600E+02  0.1600E+02
     -9.153  0.0000E+00  0.0000E+00  0.1600E+02  0.1600E+02
     -9.009  0.0000E+00  0.0000E+00  0.1600E+02  0.1600E+02
     -8.865  0.0000E+00  0.0000E+00  0.1600E+02  0.1600E+02
     -8.721  0.0000E+00  0.0000E+00  0.1600E+02  0.1600E+02
     -8.577  0.0000E+00  0.0000E+00  0.1600E+02  0.1600E+02
     -8.433  0.0000E+00  0.0000E+00  0.1600E+02  0.1600E+02
     -8.289  0.0000E+00  0.0000E+00  0.1600E+02  0.1600E+02
     -8.145  0.0000E+00  0.0000E+00  0.1600E+02  0.1600E+02
     -8.001  0.0000E+00  0.0000E+00  0.1600E+02  0.1600E+02
     -7.857  0.0000E+00  0.0000E+00  0.1600E+02  0.1600E+02
     -7.713  0.0000E+00  0.0000E+00  0.1600E+02  0.1600E+02
     -7.569  0.0000E+00  0.0000E+00  0.1600E+02  0.1600E+02
     -7.425  0.0000E+00  0.0000E+00  0.1600E+02  0.1600E+02
     -7.281  0.0000E+00  0.0000E+00  0.1600E+02  0.1600E+02
     -7.138  0.0000E+00  0.0000E+00  0.1600E+02  0.1600E+02
     -6.994  0.0000E+00  0.0000E+00  0.1600E+02  0.1600E+02
     -6.850  0.0000E+00  0.0000E+00  0.1600E+02  0.1600E+02
     -6.706  0.0000E+00  0.0000E+00  0.1600E+02  0.1600E+02
     -6.562  0.0000E+00  0.0000E+00  0.1600E+02  0.1600E+02
     -6.418  0.0000E+00  0.0000E+00  0.1600E+02  0.1600E+02
     -6.274  0.0000E+00  0.0000E+00  0.1600E+02  0.1600E+02
     -6.130  0.0000E+00  0.0000E+00  0.1600E+02  0.1600E+02
     -5.986  0.0000E+00  0.0000E+00  0.1600E+02  0.1600E+02
     -5.842  0.0000E+00  0.0000E+00  0.1600E+02  0.1600E+02
     -5.698  0.0000E+00  0.0000E+00  0.1600E+02  0.1600E+02
     -5.554  0.0000E+00  0.0000E+00  0.1600E+02  0.1600E+02
     -5.410  0.0000E+00  0.0000E+00  0.1600E+02  0.1600E+02
     -5.266  0.8255E-06  0.8409E-06  0.1600E+02  0.1600E+02
     -5.122  0.6699E-04  0.6824E-04  0.1600E+02  0.1600E+02
     -4.979  0.1147E-02  0.1169E-02  0.1600E+02  0.1600E+02
     -4.835  0.1943E-01  0.1978E-01  0.1600E+02  0.1600E+02
     -4.691  0.1969E+00  0.1991E+00  0.1603E+02  0.1603E+02
     -4.547  0.4953E+00  0.4961E+00  0.1610E+02  0.1610E+02
     -4.403  0.6312E+00  0.6323E+00  0.1619E+02  0.1619E+02
     -4.259  0.5049E+00  0.5036E+00  0.1627E+02  0.1627E+02
     -4.115  0.6624E+00  0.6644E+00  0.1636E+02  0.1636E+02
     -3.971  0.6078E+00  0.6060E+00  0.1645E+02  0.1645E+02
     -3.827  0.5213E+00  0.5210E+00  0.1652E+02  0.1652E+02
     -3.683  0.5787E+00  0.5812E+00  0.1661E+02  0.1661E+02
     -3.539  0.7828E+00  0.7818E+00  0.1672E+02  0.1672E+02
     -3.395  0.5509E+00  0.5488E+00  0.1680E+02  0.1680E+02
     -3.251  0.2909E+00  0.2921E+00  0.1684E+02  0.1684E+02
     -3.107  0.9238E+00  0.9272E+00  0.1698E+02  0.1698E+02
     -2.963  0.6983E+00  0.6953E+00  0.1708E+02  0.1708E+02
     -2.820  0.4975E+00  0.4960E+00  0.1715E+02  0.1715E+02
     -2.676  0.5537E+00  0.5536E+00  0.1723E+02  0.1723E+02
     -2.532  0.1136E+01  0.1135E+01  0.1739E+02  0.1739E+02
     -2.388  0.1301E+01  0.1298E+01  0.1758E+02  0.1758E+02
     -2.244  0.1262E+01  0.1266E+01  0.1776E+02  0.1776E+02
     -2.100  0.1210E+01  0.1205E+01  0.1794E+02  0.1793E+02
     -1.956  0.1125E+01  0.1127E+01  0.1810E+02  0.1810E+02
     -1.812  0.9607E+00  0.9605E+00  0.1824E+02  0.1824E+02
     -1.668  0.1292E+01  0.1295E+01  0.1842E+02  0.1842E+02
     -1.524  0.1821E+01  0.1821E+01  0.1869E+02  0.1869E+02
     -1.380  0.1246E+01  0.1243E+01  0.1886E+02  0.1886E+02
     -1.236  0.6674E+00  0.6713E+00  0.1896E+02  0.1896E+02
     -1.092  0.1168E+01  0.1163E+01  0.1913E+02  0.1913E+02
     -0.948  0.2195E+01  0.2203E+01  0.1945E+02  0.1945E+02
     -0.804  0.2252E+01  0.2253E+01  0.1977E+02  0.1977E+02
     -0.660  0.1918E+01  0.1915E+01  0.2005E+02  0.2005E+02
     -0.517  0.2133E+01  0.2135E+01  0.2035E+02  0.2036E+02
     -0.373  0.2763E+01  0.2762E+01  0.2075E+02  0.2075E+02
     -0.229  0.2146E+01  0.2143E+01  0.2106E+02  0.2106E+02
     -0.085  0.1849E+01  0.1849E+01  0.2133E+02  0.2133E+02
      0.059  0.1248E+01  0.1248E+01  0.2151E+02  0.2151E+02
      0.203  0.1088E+01  0.1088E+01  0.2167E+02  0.2167E+02
      0.347  0.6293E+00  0.6248E+00  0.2176E+02  0.2176E+02
      0.491  0.9731E+00  0.9704E+00  0.2190E+02  0.2190E+02
      0.635  0.1044E+01  0.1046E+01  0.2205E+02  0.2205E+02
      0.779  0.7043E+00  0.7101E+00  0.2215E+02  0.2215E+02
      0.923  0.1329E+01  0.1331E+01  0.2234E+02  0.2234E+02
      1.067  0.2026E+01  0.2026E+01  0.2263E+02  0.2263E+02
      1.211  0.1892E+01  0.1894E+01  0.2291E+02  0.2291E+02
      1.355  0.2610E+01  0.2608E+01  0.2328E+02  0.2328E+02
      1.499  0.2655E+01  0.2653E+01  0.2367E+02  0.2367E+02
      1.642  0.1622E+01  0.1622E+01  0.2390E+02  0.2390E+02
      1.786  0.2157E+01  0.2157E+01  0.2421E+02  0.2421E+02
      1.930  0.2505E+01  0.2507E+01  0.2457E+02  0.2457E+02
      2.074  0.2233E+01  0.2235E+01  0.2489E+02  0.2489E+02
      2.218  0.2119E+01  0.2114E+01  0.2520E+02  0.2520E+02
      2.362  0.2407E+01  0.2407E+01  0.2555E+02  0.2555E+02
      2.506  0.2992E+01  0.2989E+01  0.2598E+02  0.2598E+02
      2.650  0.2377E+01  0.2380E+01  0.2632E+02  0.2632E+02
      2.794  0.2658E+01  0.2663E+01  0.2670E+02  0.2670E+02
      2.938  0.3583E+01  0.3584E+01  0.2722E+02  0.2722E+02
      3.082  0.3141E+01  0.3141E+01  0.2767E+02  0.2767E+02
      3.226  0.2998E+01  0.2992E+01  0.2810E+02  0.2810E+02
      3.370  0.2302E+01  0.2299E+01  0.2844E+02  0.2844E+02
      3.514  0.2556E+01  0.2553E+01  0.2881E+02  0.2881E+02
      3.658  0.3211E+01  0.3212E+01  0.2927E+02  0.2927E+02
      3.801  0.3522E+01  0.3520E+01  0.2978E+02  0.2978E+02
      3.945  0.3409E+01  0.3412E+01  0.3027E+02  0.3027E+02
      4.089  0.3671E+01  0.3678E+01  0.3080E+02  0.3080E+02
      4.233  0.4667E+01  0.4665E+01  0.3147E+02  0.3147E+02
      4.377  0.3942E+01  0.3936E+01  0.3204E+02  0.3204E+02
      4.521  0.3778E+01  0.3777E+01  0.3258E+02  0.3258E+02
      4.665  0.4280E+01  0.4275E+01  0.3320E+02  0.3320E+02
      4.809  0.4460E+01  0.4462E+01  0.3384E+02  0.3384E+02
      4.953  0.5056E+01  0.5059E+01  0.3457E+02  0.3457E+02
      5.097  0.3214E+01  0.3215E+01  0.3504E+02  0.3504E+02
      5.241  0.2958E+01  0.2958E+01  0.3546E+02  0.3546E+02
      5.385  0.3644E+01  0.3640E+01  0.3599E+02  0.3599E+02
      5.529  0.4269E+01  0.4270E+01  0.3660E+02  0.3660E+02
      5.673  0.3856E+01  0.3854E+01  0.3716E+02  0.3716E+02
      5.817  0.3762E+01  0.3758E+01  0.3770E+02  0.3770E+02
      5.960  0.3005E+01  0.3003E+01  0.3814E+02  0.3813E+02
      6.104  0.3184E+01  0.3183E+01  0.3860E+02  0.3859E+02
      6.248  0.2974E+01  0.2976E+01  0.3902E+02  0.3902E+02
      6.392  0.3407E+01  0.3404E+01  0.3952E+02  0.3951E+02
      6.536  0.3964E+01  0.3968E+01  0.4009E+02  0.4009E+02
      6.680  0.3473E+01  0.3476E+01  0.4059E+02  0.4059E+02
      6.824  0.2748E+01  0.2746E+01  0.4098E+02  0.4098E+02
      6.968  0.3876E+01  0.3873E+01  0.4154E+02  0.4154E+02
      7.112  0.3959E+01  0.3965E+01  0.4211E+02  0.4211E+02
      7.256  0.4221E+01  0.4222E+01  0.4272E+02  0.4272E+02
      7.400  0.5551E+01  0.5550E+01  0.4352E+02  0.4352E+02
      7.544  0.5743E+01  0.5746E+01  0.4435E+02  0.4435E+02
      7.688  0.6000E+01  0.5999E+01  0.4521E+02  0.4521E+02
      7.832  0.6892E+01  0.6888E+01  0.4621E+02  0.4621E+02
      7.976  0.6169E+01  0.6179E+01  0.4710E+02  0.4710E+02
      8.120  0.4694E+01  0.4695E+01  0.4778E+02  0.4778E+02
      8.263  0.3623E+01  0.3630E+01  0.4830E+02  0.4830E+02
      8.407  0.4098E+01  0.4150E+01  0.4889E+02  0.4890E+02
      8.551  0.4128E+01  0.4199E+01  0.4949E+02  0.4950E+02
      8.695  0.2851E+01  0.2982E+01  0.4990E+02  0.4993E+02
      8.839  0.2308E+01  0.2350E+01  0.5023E+02  0.5027E+02
      8.983  0.2291E+01  0.2260E+01  0.5056E+02  0.5060E+02
      9.127  0.1946E+01  0.1925E+01  0.5084E+02  0.5088E+02
      9.271  0.2319E+01  0.2388E+01  0.5118E+02  0.5122E+02
      9.415  0.2031E+01  0.1883E+01  0.5147E+02  0.5149E+02
      9.559  0.1658E+01  0.1521E+01  0.5171E+02  0.5171E+02
      9.703  0.1092E+01  0.1134E+01  0.5187E+02  0.5188E+02
      9.847  0.6159E+00  0.6166E+00  0.5196E+02  0.5197E+02
      9.991  0.2003E+00  0.1934E+00  0.5199E+02  0.5200E+02
     10.135  0.8631E-01  0.3099E-01  0.5200E+02  0.5200E+02
     10.279  0.1485E-01  0.1742E-02  0.5200E+02  0.5200E+02
     10.422  0.9224E-03  0.0000E+00  0.5200E+02  0.5200E+02
     10.566  0.0000E+00  0.0000E+00  0.5200E+02  0.5200E+02
     10.710  0.0000E+00  0.0000E+00  0.5200E+02  0.5200E+02
     10.854  0.0000E+00  0.0000E+00  0.5200E+02  0.5200E+02
     10.998  0.0000E+00  0.0000E+00  0.5200E+02  0.5200E+02
     11.142  0.0000E+00  0.0000E+00  0.5200E+02  0.5200E+02
     11.286  0.0000E+00  0.0000E+00  0.5200E+02  0.5200E+02
     11.430  0.0000E+00  0.0000E+00  0.5200E+02  0.5200E+02
     11.574  0.0000E+00  0.0000E+00  0.5200E+02  0.5200E+02
     11.718  0.0000E+00  0.0000E+00  0.5200E+02  0.5200E+02
     11.862  0.0000E+00  0.0000E+00  0.5200E+02  0.5200E+02
     12.006  0.0000E+00  0.0000E+00  0.5200E+02  0.5200E+02
     12.00574540    -31.17461630  301      5.91235035      1.00000000
    -31.175  0.0000E+00  0.0000E+00  0.0000E+00  0.0000E+00  0.0000E+00  0.0000E+00  0.0000E+00  0.0000E+00  0.0000E+00  0.0000E+00  0.0000E+00  0.0000E+00  0.0000E+00  0.0000E+00  0.0000E+00  0.0000E+00  0.0000E+00  0.0000E+00
    -31.031  0.0000E+00  0.0000E+00  0.0000E+00  0.0000E+00  0.0000E+00  0.0000E+00  0.0000E+00  0.0000E+00  0.0000E+00  0.0000E+00  0.0000E+00  0.0000E+00  0.0000E+00  0.0000E+00  0.0000E+00  0.0000E+00  0.0000E+00  0.0000E+00
    -30.887  0.0000E+00  0.0000E+00  0.0000E+00  0.0000E+00  0.0000E+00  0.0000E+00  0.0000E+00  0.0000E+00  0.0000E+00  0.0000E+00  0.0000E+00  0.0000E+00  0.0000E+00  0.0000E+00  0.0000E+00  0.0000E+00  0.0000E+00  0.0000E+00
    -30.743  0.0000E+00  0.0000E+00  0.0000E+00  0.0000E+00  0.0000E+00  0.0000E+00  0.0000E+00  0.0000E+00  0.0000E+00  0.0000E+00  0.0000E+00  0.0000E+00  0.0000E+00  0.0000E+00  0.0000E+00  0.0000E+00  0.0000E+00  0.0000E+00
    -30.599  0.0000E+00  0.0000E+00  0.0000E+00  0.0000E+00  0.0000E+00  0.0000E+00  0.0000E+00  0.0000E+00  0.0000E+00  0.0000E+00  0.0000E+00  0.0000E+00  0.0000E+00  0.0000E+00  0.0000E+00  0.0000E+00  0.0000E+00  0.0000E+00
    -30.455  0.0000E+00  0.0000E+00  0.0000E+00  0.0000E+00  0.0000E+00  0.0000E+00  0.0000E+00  0.0000E+00  0.0000E+00  0.0000E+00  0.0000E+00  0.0000E+00  0.0000E+00  0.0000E+00  0.0000E+00  0.0000E+00  0.0000E+00  0.0000E+00
    -30.311  0.0000E+00  0.0000E+00  0.0000E+00  0.0000E+00  0.0000E+00  0.0000E+00  0.0000E+00  0.0000E+00  0.0000E+00  0.0000E+00  0.0000E+00  0.0000E+00  0.0000E+00  0.0000E+00  0.0000E+00  0.0000E+00  0.0000E+00  0.0000E+00
    -30.167  0.0000E+00  0.0000E+00  0.0000E+00  0.0000E+00  0.0000E+00  0.0000E+00  0.0000E+00  0.0000E+00  0.0000E+00  0.0000E+00  0.0000E+00  0.0000E+00  0.0000E+00  0.0000E+00  0.0000E+00  0.0000E+00  0.0000E+00  0.0000E+00
    -30.023  0.0000E+00  0.0000E+00  0.0000E+00  0.0000E+00  0.0000E+00  0.0000E+00  0.0000E+00  0.0000E+00  0.0000E+00  0.0000E+00  0.0000E+00  0.0000E+00  0.0000E+00  0.0000E+00  0.0000E+00  0.0000E+00  0.0000E+00  0.0000E+00
    -29.879  0.0000E+00  0.0000E+00  0.0000E+00  0.0000E+00  0.0000E+00  0.0000E+00  0.0000E+00  0.0000E+00  0.0000E+00  0.0000E+00  0.0000E+00  0.0000E+00  0.0000E+00  0.0000E+00  0.0000E+00  0.0000E+00  0.0000E+00  0.0000E+00
    -29.735  0.3358E-04  0.3359E-04  0.6642E-10  0.6648E-10  0.2017E-10  0.2067E-10  0.6642E-10  0.6648E-10  0.3020E-14  0.3260E-14  0.1914E-13  0.1921E-13  0.1036E-09  0.1032E-09  0.1914E-13  0.1921E-13  0.1120E-10  0.1117E-10
    -29.591  0.1674E-02  0.1675E-02  0.4005E-08  0.4008E-08  0.9176E-09  0.9401E-09  0.4005E-08  0.4008E-08  0.3038E-12  0.3283E-12  0.1061E-11  0.1061E-11  0.2550E-08  0.2539E-08  0.1061E-11  0.1061E-11  0.2368E-08  0.2361E-08
    -29.447  0.2852E-01  0.2854E-01  0.6803E-07  0.6808E-07  0.1566E-07  0.1605E-07  0.6803E-07  0.6808E-07  0.5128E-11  0.5542E-11  0.1805E-10  0.1805E-10  0.4427E-07  0.4408E-07  0.1805E-10  0.1805E-10  0.3978E-07  0.3966E-07
    -29.303  0.4655E+00  0.4658E+00  0.1114E-05  0.1115E-05  0.2550E-06  0.2613E-06  0.1114E-05  0.1115E-05  0.8432E-10  0.9114E-10  0.2951E-09  0.2950E-09  0.7058E-06  0.7028E-06  0.2951E-09  0.2950E-09  0.6569E-06  0.6549E-06
    -29.160  0.3349E+01  0.3350E+01  0.8133E-05  0.8135E-05  0.1802E-05  0.1845E-05  0.8133E-05  0.8135E-05  0.6264E-09  0.6785E-09  0.2122E-08  0.2119E-08  0.4265E-05  0.4245E-05  0.2122E-08  0.2119E-08  0.4988E-05  0.4971E-05
    -29.016  0.2650E+01  0.2649E+01  0.6390E-05  0.6388E-05  0.1387E-05  0.1419E-05  0.6390E-05  0.6388E-05  0.4906E-09  0.5338E-09  0.1628E-08  0.1622E-08  0.2573E-05  0.2558E-05  0.1628E-08  0.1622E-08  0.3927E-05  0.3912E-05
    -28.872  0.2783E+00  0.2782E+00  0.6595E-06  0.6590E-06  0.1438E-06  0.1470E-06  0.6595E-06  0.6590E-06  0.4982E-10  0.5437E-10  0.1661E-09  0.1653E-09  0.2380E-06  0.2365E-06  0.1661E-09  0.1653E-09  0.3943E-06  0.3926E-06
    -28.728  0.0000E+00  0.0000E+00  0.0000E+00  0.0000E+00  0.0000E+00  0.0000E+00  0.0000E+00  0.0000E+00  0.0000E+00  0.0000E+00  0.0000E+00  0.0000E+00  0.0000E+00  0.0000E+00  0.0000E+00  0.0000E+00  0.0000E+00  0.0000E+00
    -28.584  0.0000E+00  0.0000E+00  0.0000E+00  0.0000E+00  0.0000E+00  0.0000E+00  0.0000E+00  0.0000E+00  0.0000E+00  0.0000E+00  0.0000E+00  0.0000E+00  0.0000E+00  0.0000E+00  0.0000E+00  0.0000E+00  0.0000E+00  0.0000E+00
    -28.440  0.0000E+00  0.0000E+00  0.0000E+00  0.0000E+00  0.0000E+00  0.0000E+00  0.0000E+00  0.0000E+00  0.0000E+00  0.0000E+00  0.0000E+00  0.0000E+00  0.0000E+00  0.0000E+00  0.0000E+00  0.0000E+00  0.0000E+00  0.0000E+00
    -28.296  0.0000E+00  0.0000E+00  0.0000E+00  0.0000E+00  0.0000E+00  0.0000E+00  0.0000E+00  0.0000E+00  0.0000E+00  0.0000E+00  0.0000E+00  0.0000E+00  0.0000E+00  0.0000E+00  0.0000E+00  0.0000E+00  0.0000E+00  0.0000E+00
    -28.152  0.0000E+00  0.0000E+00  0.0000E+00  0.0000E+00  0.0000E+00  0.0000E+00  0.0000E+00  0.0000E+00  0.0000E+00  0.0000E+00  0.0000E+00  0.0000E+00  0.0000E+00  0.0000E+00  0.0000E+00  0.0000E+00  0.0000E+00  0.0000E+00
    -28.008  0.0000E+00  0.0000E+00  0.0000E+00  0.0000E+00  0.0000E+00  0.0000E+00  0.0000E+00  0.0000E+00  0.0000E+00  0.0000E+00  0.0000E+00  0.0000E+00  0.0000E+00  0.0000E+00  0.0000E+00  0.0000E+00  0.0000E+00  0.0000E+00
    -27.864  0.0000E+00  0.0000E+00  0.0000E+00  0.0000E+00  0.0000E+00  0.0000E+00  0.0000E+00  0.0000E+00  0.0000E+00  0.0000E+00  0.0000E+00  0.0000E+00  0.0000E+00  0.0000E+00  0.0000E+00  0.0000E+00  0.0000E+00  0.0000E+00
    -27.720  0.0000E+00  0.0000E+00  0.0000E+00  0.0000E+00  0.0000E+00  0.0000E+00  0.0000E+00  0.0000E+00  0.0000E+00  0.0000E+00  0.0000E+00  0.0000E+00  0.0000E+00  0.0000E+00  0.0000E+00  0.0000E+00  0.0000E+00  0.0000E+00
    -27.576  0.0000E+00  0.0000E+00  0.0000E+00  0.0000E+00  0.0000E+00  0.0000E+00  0.0000E+00  0.0000E+00  0.0000E+00  0.0000E+00  0.0000E+00  0.0000E+00  0.0000E+00  0.0000E+00  0.0000E+00  0.0000E+00  0.0000E+00  0.0000E+00
    -27.432  0.0000E+00  0.0000E+00  0.0000E+00  0.0000E+00  0.0000E+00  0.0000E+00  0.0000E+00  0.0000E+00  0.0000E+00  0.0000E+00  0.0000E+00  0.0000E+00  0.0000E+00  0.0000E+00  0.0000E+00  0.0000E+00  0.0000E+00  0.0000E+00
    -27.288  0.0000E+00  0.0000E+00  0.0000E+00  0.0000E+00  0.0000E+00  0.0000E+00  0.0000E+00  0.0000E+00  0.0000E+00  0.0000E+00  0.0000E+00  0.0000E+00  0.0000E+00  0.0000E+00  0.0000E+00  0.0000E+00  0.0000E+00  0.0000E+00
    -27.144  0.0000E+00  0.0000E+00  0.0000E+00  0.0000E+00  0.0000E+00  0.0000E+00  0.0000E+00  0.0000E+00  0.0000E+00  0.0000E+00  0.0000E+00  0.0000E+00  0.0000E+00  0.0000E+00  0.0000E+00  0.0000E+00  0.0000E+00  0.0000E+00
    -27.001  0.0000E+00  0.0000E+00  0.0000E+00  0.0000E+00  0.0000E+00  0.0000E+00  0.0000E+00  0.0000E+00  0.0000E+00  0.0000E+00  0.0000E+00  0.0000E+00  0.0000E+00  0.0000E+00  0.0000E+00  0.0000E+00  0.0000E+00  0.0000E+00
    -26.857  0.0000E+00  0.0000E+00  0.0000E+00  0.0000E+00  0.0000E+00  0.0000E+00  0.0000E+00  0.0000E+00  0.0000E+00  0.0000E+00  0.0000E+00  0.0000E+00  0.0000E+00  0.0000E+00  0.0000E+00  0.0000E+00  0.0000E+00  0.0000E+00
    -26.713  0.0000E+00  0.0000E+00  0.0000E+00  0.0000E+00  0.0000E+00  0.0000E+00  0.0000E+00  0.0000E+00  0.0000E+00  0.0000E+00  0.0000E+00  0.0000E+00  0.0000E+00  0.0000E+00  0.0000E+00  0.0000E+00  0.0000E+00  0.0000E+00
    -26.569  0.0000E+00  0.0000E+00  0.0000E+00  0.0000E+00  0.0000E+00  0.0000E+00  0.0000E+00  0.0000E+00  0.0000E+00  0.0000E+00  0.0000E+00  0.0000E+00  0.0000E+00  0.0000E+00  0.0000E+00  0.0000E+00  0.0000E+00  0.0000E+00
    -26.425  0.0000E+00  0.0000E+00  0.0000E+00  0.0000E+00  0.0000E+00  0.0000E+00  0.0000E+00  0.0000E+00  0.0000E+00  0.0000E+00  0.0000E+00  0.0000E+00  0.0000E+00  0.0000E+00  0.0000E+00  0.0000E+00  0.0000E+00  0.0000E+00
    -26.281  0.0000E+00  0.0000E+00  0.0000E+00  0.0000E+00  0.0000E+00  0.0000E+00  0.0000E+00  0.0000E+00  0.0000E+00  0.0000E+00  0.0000E+00  0.0000E+00  0.0000E+00  0.0000E+00  0.0000E+00  0.0000E+00  0.0000E+00  0.0000E+00
    -26.137  0.0000E+00  0.0000E+00  0.0000E+00  0.0000E+00  0.0000E+00  0.0000E+00  0.0000E+00  0.0000E+00  0.0000E+00  0.0000E+00  0.0000E+00  0.0000E+00  0.0000E+00  0.0000E+00  0.0000E+00  0.0000E+00  0.0000E+00  0.0000E+00
    -25.993  0.0000E+00  0.0000E+00  0.0000E+00  0.0000E+00  0.0000E+00  0.0000E+00  0.0000E+00  0.0000E+00  0.0000E+00  0.0000E+00  0.0000E+00  0.0000E+00  0.0000E+00  0.0000E+00  0.0000E+00  0.0000E+00  0.0000E+00  0.0000E+00
    -25.849  0.0000E+00  0.0000E+00  0.0000E+00  0.0000E+00  0.0000E+00  0.0000E+00  0.0000E+00  0.0000E+00  0.0000E+00  0.0000E+00  0.0000E+00  0.0000E+00  0.0000E+00  0.0000E+00  0.0000E+00  0.0000E+00  0.0000E+00  0.0000E+00
    -25.705  0.0000E+00  0.0000E+00  0.0000E+00  0.0000E+00  0.0000E+00  0.0000E+00  0.0000E+00  0.0000E+00  0.0000E+00  0.0000E+00  0.0000E+00  0.0000E+00  0.0000E+00  0.0000E+00  0.0000E+00  0.0000E+00  0.0000E+00  0.0000E+00
    -25.561  0.0000E+00  0.0000E+00  0.0000E+00  0.0000E+00  0.0000E+00  0.0000E+00  0.0000E+00  0.0000E+00  0.0000E+00  0.0000E+00  0.0000E+00  0.0000E+00  0.0000E+00  0.0000E+00  0.0000E+00  0.0000E+00  0.0000E+00  0.0000E+00
    -25.417  0.0000E+00  0.0000E+00  0.0000E+00  0.0000E+00  0.0000E+00  0.0000E+00  0.0000E+00  0.0000E+00  0.0000E+00  0.0000E+00  0.0000E+00  0.0000E+00  0.0000E+00  0.0000E+00  0.0000E+00  0.0000E+00  0.0000E+00  0.0000E+00
    -25.273  0.0000E+00  0.0000E+00  0.0000E+00  0.0000E+00  0.0000E+00  0.0000E+00  0.0000E+00  0.0000E+00  0.0000E+00  0.0000E+00  0.0000E+00  0.0000E+00  0.0000E+00  0.0000E+00  0.0000E+00  0.0000E+00  0.0000E+00  0.0000E+00
    -25.129  0.0000E+00  0.0000E+00  0.0000E+00  0.0000E+00  0.0000E+00  0.0000E+00  0.0000E+00  0.0000E+00  0.0000E+00  0.0000E+00  0.0000E+00  0.0000E+00  0.0000E+00  0.0000E+00  0.0000E+00  0.0000E+00  0.0000E+00  0.0000E+00
    -24.985  0.0000E+00  0.0000E+00  0.0000E+00  0.0000E+00  0.0000E+00  0.0000E+00  0.0000E+00  0.0000E+00  0.0000E+00  0.0000E+00  0.0000E+00  0.0000E+00  0.0000E+00  0.0000E+00  0.0000E+00  0.0000E+00  0.0000E+00  0.0000E+00
    -24.841  0.0000E+00  0.0000E+00  0.0000E+00  0.0000E+00  0.0000E+00  0.0000E+00  0.0000E+00  0.0000E+00  0.0000E+00  0.0000E+00  0.0000E+00  0.0000E+00  0.0000E+00  0.0000E+00  0.0000E+00  0.0000E+00  0.0000E+00  0.0000E+00
    -24.698  0.0000E+00  0.0000E+00  0.0000E+00  0.0000E+00  0.0000E+00  0.0000E+00  0.0000E+00  0.0000E+00  0.0000E+00  0.0000E+00  0.0000E+00  0.0000E+00  0.0000E+00  0.0000E+00  0.0000E+00  0.0000E+00  0.0000E+00  0.0000E+00
    -24.554  0.0000E+00  0.0000E+00  0.0000E+00  0.0000E+00  0.0000E+00  0.0000E+00  0.0000E+00  0.0000E+00  0.0000E+00  0.0000E+00  0.0000E+00  0.0000E+00  0.0000E+00  0.0000E+00  0.0000E+00  0.0000E+00  0.0000E+00  0.0000E+00
    -24.410  0.0000E+00  0.0000E+00  0.0000E+00  0.0000E+00  0.0000E+00  0.0000E+00  0.0000E+00  0.0000E+00  0.0000E+00  0.0000E+00  0.0000E+00  0.0000E+00  0.0000E+00  0.0000E+00  0.0000E+00  0.0000E+00  0.0000E+00  0.0000E+00
    -24.266  0.0000E+00  0.0000E+00  0.0000E+00  0.0000E+00  0.0000E+00  0.0000E+00  0.0000E+00  0.0000E+00  0.0000E+00  0.0000E+00  0.0000E+00  0.0000E+00  0.0000E+00  0.0000E+00  0.0000E+00  0.0000E+00  0.0000E+00  0.0000E+00
    -24.122  0.0000E+00  0.0000E+00  0.0000E+00  0.0000E+00  0.0000E+00  0.0000E+00  0.0000E+00  0.0000E+00  0.0000E+00  0.0000E+00  0.0000E+00  0.0000E+00  0.0000E+00  0.0000E+00  0.0000E+00  0.0000E+00  0.0000E+00  0.0000E+00
    -23.978  0.0000E+00  0.0000E+00  0.0000E+00  0.0000E+00  0.0000E+00  0.0000E+00  0.0000E+00  0.0000E+00  0.0000E+00  0.0000E+00  0.0000E+00  0.0000E+00  0.0000E+00  0.0000E+00  0.0000E+00  0.0000E+00  0.0000E+00  0.0000E+00