  16  16   1   0
  0.2448881E+02  0.3892479E-09  0.3892479E-09  0.2586039E-08  0.5000000E-15
  1.000000000000000E-004
  CAR 
 unknown system                          
     10.05636870    -33.01538965  301      4.51038190      1.00000000
    -33.015  0.0000E+00  0.0000E+00  0.0000E+00  0.0000E+00
    -32.872  0.0000E+00  0.0000E+00  0.0000E+00  0.0000E+00
    -32.728  0.0000E+00  0.0000E+00  0.0000E+00  0.0000E+00
    -32.585  0.0000E+00  0.0000E+00  0.0000E+00  0.0000E+00
    -32.441  0.0000E+00  0.0000E+00  0.0000E+00  0.0000E+00
    -32.298  0.0000E+00  0.0000E+00  0.0000E+00  0.0000E+00
    -32.154  0.0000E+00  0.0000E+00  0.0000E+00  0.0000E+00
    -32.010  0.0000E+00  0.0000E+00  0.0000E+00  0.0000E+00
    -31.867  0.0000E+00  0.0000E+00  0.0000E+00  0.0000E+00
    -31.723  0.0000E+00  0.0000E+00  0.0000E+00  0.0000E+00
    -31.580  0.4400E-03  0.4412E-03  0.6317E-04  0.6334E-04
    -31.436  0.9910E-02  0.9937E-02  0.1486E-02  0.1490E-02
    -31.293  0.1713E+00  0.1718E+00  0.2608E-01  0.2615E-01
    -31.149  0.2705E+01  0.2712E+01  0.4145E+00  0.4155E+00
    -31.005  0.1572E+02  0.1573E+02  0.2671E+01  0.2673E+01
    -30.862  0.8488E+01  0.8473E+01  0.3889E+01  0.3890E+01
    -30.718  0.7250E+00  0.7231E+00  0.3994E+01  0.3994E+01
    -30.575  0.0000E+00  0.0000E+00  0.4000E+01  0.4000E+01
    -30.431  0.0000E+00  0.0000E+00  0.4000E+01  0.4000E+01
    -30.288  0.0000E+00  0.0000E+00  0.4000E+01  0.4000E+01
    -30.144  0.0000E+00  0.0000E+00  0.4000E+01  0.4000E+01
    -30.000  0.0000E+00  0.0000E+00  0.4000E+01  0.4000E+01
    -29.857  0.0000E+00  0.0000E+00  0.4000E+01  0.4000E+01
    -29.713  0.0000E+00  0.0000E+00  0.4000E+01  0.4000E+01
    -29.570  0.0000E+00  0.0000E+00  0.4000E+01  0.4000E+01
    -29.426  0.0000E+00  0.0000E+00  0.4000E+01  0.4000E+01
    -29.283  0.0000E+00  0.0000E+00  0.4000E+01  0.4000E+01
    -29.139  0.0000E+00  0.0000E+00  0.4000E+01  0.4000E+01
    -28.995  0.0000E+00  0.0000E+00  0.4000E+01  0.4000E+01
    -28.852  0.0000E+00  0.0000E+00  0.4000E+01  0.4000E+01
    -28.708  0.0000E+00  0.0000E+00  0.4000E+01  0.4000E+01
    -28.565  0.0000E+00  0.0000E+00  0.4000E+01  0.4000E+01
    -28.421  0.0000E+00  0.0000E+00  0.4000E+01  0.4000E+01
    -28.277  0.0000E+00  0.0000E+00  0.4000E+01  0.4000E+01
    -28.134  0.0000E+00  0.0000E+00  0.4000E+01  0.4000E+01
    -27.990  0.0000E+00  0.0000E+00  0.4000E+01  0.4000E+01
    -27.847  0.0000E+00  0.0000E+00  0.4000E+01  0.4000E+01
    -27.703  0.0000E+00  0.0000E+00  0.4000E+01  0.4000E+01
    -27.560  0.0000E+00  0.0000E+00  0.4000E+01  0.4000E+01
    -27.416  0.0000E+00  0.0000E+00  0.4000E+01  0.4000E+01
    -27.272  0.0000E+00  0.0000E+00  0.4000E+01  0.4000E+01
    -27.129  0.0000E+00  0.0000E+00  0.4000E+01  0.4000E+01
    -26.985  0.0000E+00  0.0000E+00  0.4000E+01  0.4000E+01
    -26.842  0.0000E+00  0.0000E+00  0.4000E+01  0.4000E+01
    -26.698  0.0000E+00  0.0000E+00  0.4000E+01  0.4000E+01
    -26.555  0.0000E+00  0.0000E+00  0.4000E+01  0.4000E+01
    -26.411  0.0000E+00  0.0000E+00  0.4000E+01  0.4000E+01
    -26.267  0.0000E+00  0.0000E+00  0.4000E+01  0.4000E+01
    -26.124  0.0000E+00  0.0000E+00  0.4000E+01  0.4000E+01
    -25.980  0.0000E+00  0.0000E+00  0.4000E+01  0.4000E+01
    -25.837  0.0000E+00  0.0000E+00  0.4000E+01  0.4000E+01
    -25.693  0.0000E+00  0.0000E+00  0.4000E+01  0.4000E+01
    -25.550  0.0000E+00  0.0000E+00  0.4000E+01  0.4000E+01
    -25.406  0.0000E+00  0.0000E+00  0.4000E+01  0.4000E+01
    -25.262  0.0000E+00  0.0000E+00  0.4000E+01  0.4000E+01
    -25.119  0.0000E+00  0.0000E+00  0.4000E+01  0.4000E+01
    -24.975  0.0000E+00  0.0000E+00  0.4000E+01  0.4000E+01
    -24.832  0.0000E+00  0.0000E+00  0.4000E+01  0.4000E+01
    -24.688  0.0000E+00  0.0000E+00  0.4000E+01  0.4000E+01
    -24.545  0.0000E+00  0.0000E+00  0.4000E+01  0.4000E+01
    -24.401  0.0000E+00  0.0000E+00  0.4000E+01  0.4000E+01
    -24.257  0.0000E+00  0.0000E+00  0.4000E+01  0.4000E+01
    -24.114  0.0000E+00  0.0000E+00  0.4000E+01  0.4000E+01
    -23.970  0.0000E+00  0.0000E+00  0.4000E+01  0.4000E+01
    -23.827  0.0000E+00  0.0000E+00  0.4000E+01  0.4000E+01
    -23.683  0.0000E+00  0.0000E+00  0.4000E+01  0.4000E+01
    -23.540  0.0000E+00  0.0000E+00  0.4000E+01  0.4000E+01
    -23.396  0.0000E+00  0.0000E+00  0.4000E+01  0.4000E+01
    -23.252  0.0000E+00  0.0000E+00  0.4000E+01  0.4000E+01
    -23.109  0.0000E+00  0.0000E+00  0.4000E+01  0.4000E+01
    -22.965  0.0000E+00  0.0000E+00  0.4000E+01  0.4000E+01
    -22.822  0.0000E+00  0.0000E+00  0.4000E+01  0.4000E+01
    -22.678  0.0000E+00  0.0000E+00  0.4000E+01  0.4000E+01
    -22.535  0.0000E+00  0.0000E+00  0.4000E+01  0.4000E+01
    -22.391  0.0000E+00  0.0000E+00  0.4000E+01  0.4000E+01
    -22.247  0.0000E+00  0.0000E+00  0.4000E+01  0.4000E+01
    -22.104  0.0000E+00  0.0000E+00  0.4000E+01  0.4000E+01
    -21.960  0.0000E+00  0.0000E+00  0.4000E+01  0.4000E+01
    -21.817  0.0000E+00  0.0000E+00  0.4000E+01  0.4000E+01
    -21.673  0.0000E+00  0.0000E+00  0.4000E+01  0.4000E+01
    -21.530  0.0000E+00  0.0000E+00  0.4000E+01  0.4000E+01
    -21.386  0.0000E+00  0.0000E+00  0.4000E+01  0.4000E+01
    -21.242  0.0000E+00  0.0000E+00  0.4000E+01  0.4000E+01
    -21.099  0.0000E+00  0.0000E+00  0.4000E+01  0.4000E+01
    -20.955  0.0000E+00  0.0000E+00  0.4000E+01  0.4000E+01
    -20.812  0.0000E+00  0.0000E+00  0.4000E+01  0.4000E+01
    -20.668  0.0000E+00  0.0000E+00  0.4000E+01  0.4000E+01
    -20.525  0.0000E+00  0.0000E+00  0.4000E+01  0.4000E+01
    -20.381  0.0000E+00  0.0000E+00  0.4000E+01  0.4000E+01
    -20.237  0.0000E+00  0.0000E+00  0.4000E+01  0.4000E+01
    -20.094  0.0000E+00  0.0000E+00  0.4000E+01  0.4000E+01
    -19.950  0.0000E+00  0.0000E+00  0.4000E+01  0.4000E+01
    -19.807  0.0000E+00  0.0000E+00  0.4000E+01  0.4000E+01
    -19.663  0.0000E+00  0.0000E+00  0.4000E+01  0.4000E+01
    -19.520  0.0000E+00  0.0000E+00  0.4000E+01  0.4000E+01
    -19.376  0.0000E+00  0.0000E+00  0.4000E+01  0.4000E+01
    -19.232  0.0000E+00  0.0000E+00  0.4000E+01  0.4000E+01
    -19.089  0.0000E+00  0.0000E+00  0.4000E+01  0.4000E+01
    -18.945  0.0000E+00  0.0000E+00  0.4000E+01  0.4000E+01
    -18.802  0.0000E+00  0.0000E+00  0.4000E+01  0.4000E+01
    -18.658  0.0000E+00  0.0000E+00  0.4000E+01  0.4000E+01
    -18.515  0.0000E+00  0.0000E+00  0.4000E+01  0.4000E+01
    -18.371  0.0000E+00  0.0000E+00  0.4000E+01  0.4000E+01
    -18.227  0.0000E+00  0.0000E+00  0.4000E+01  0.4000E+01
    -18.084  0.0000E+00  0.0000E+00  0.4000E+01  0.4000E+01
    -17.940  0.0000E+00  0.0000E+00  0.4000E+01  0.4000E+01
    -17.797  0.0000E+00  0.0000E+00  0.4000E+01  0.4000E+01
    -17.653  0.0000E+00  0.0000E+00  0.4000E+01  0.4000E+01
    -17.510  0.0000E+00  0.0000E+00  0.4000E+01  0.4000E+01
    -17.366  0.0000E+00  0.0000E+00  0.4000E+01  0.4000E+01
    -17.222  0.0000E+00  0.0000E+00  0.4000E+01  0.4000E+01
    -17.079  0.0000E+00  0.0000E+00  0.4000E+01  0.4000E+01
    -16.935  0.0000E+00  0.0000E+00  0.4000E+01  0.4000E+01
    -16.792  0.0000E+00  0.0000E+00  0.4000E+01  0.4000E+01
    -16.648  0.0000E+00  0.0000E+00  0.4000E+01  0.4000E+01
    -16.505  0.0000E+00  0.0000E+00  0.4000E+01  0.4000E+01
    -16.361  0.0000E+00  0.0000E+00  0.4000E+01  0.4000E+01
    -16.217  0.0000E+00  0.0000E+00  0.4000E+01  0.4000E+01
    -16.074  0.0000E+00  0.0000E+00  0.4000E+01  0.4000E+01
    -15.930  0.0000E+00  0.0000E+00  0.4000E+01  0.4000E+01
    -15.787  0.0000E+00  0.0000E+00  0.4000E+01  0.4000E+01
    -15.643  0.0000E+00  0.0000E+00  0.4000E+01  0.4000E+01
    -15.500  0.0000E+00  0.0000E+00  0.4000E+01  0.4000E+01
    -15.356  0.0000E+00  0.0000E+00  0.4000E+01  0.4000E+01
    -15.212  0.0000E+00  0.0000E+00  0.4000E+01  0.4000E+01
    -15.069  0.0000E+00  0.0000E+00  0.4000E+01  0.4000E+01
    -14.925  0.0000E+00  0.0000E+00  0.4000E+01  0.4000E+01
    -14.782  0.0000E+00  0.0000E+00  0.4000E+01  0.4000E+01
    -14.638  0.0000E+00  0.0000E+00  0.4000E+01  0.4000E+01
    -14.495  0.0000E+00  0.0000E+00  0.4000E+01  0.4000E+01
    -14.351  0.0000E+00  0.0000E+00  0.4000E+01  0.4000E+01
    -14.207  0.0000E+00  0.0000E+00  0.4000E+01  0.4000E+01
    -14.064  0.0000E+00  0.0000E+00  0.4000E+01  0.4000E+01
    -13.920  0.0000E+00  0.0000E+00  0.4000E+01  0.4000E+01
    -13.777  0.3533E-03  0.3533E-03  0.4000E+01  0.4000E+01
    -13.633  0.8512E-02  0.8514E-02  0.4001E+01  0.4001E+01
    -13.490  0.1529E+00  0.1530E+00  0.4023E+01  0.4023E+01
    -13.346  0.2384E+01  0.2384E+01  0.4365E+01  0.4366E+01
    -13.202  0.1613E+02  0.1614E+02  0.6682E+01  0.6682E+01
    -13.059  0.3461E+02  0.3462E+02  0.1165E+02  0.1165E+02
    -12.915  0.2602E+02  0.2602E+02  0.1539E+02  0.1539E+02
    -12.772  0.3948E+01  0.3946E+01  0.1596E+02  0.1596E+02
    -12.628  0.1439E+00  0.1438E+00  0.1600E+02  0.1600E+02
    -12.485  0.0000E+00  0.0000E+00  0.1600E+02  0.1600E+02
    -12.341  0.0000E+00  0.0000E+00  0.1600E+02  0.1600E+02
    -12.197  0.0000E+00  0.0000E+00  0.1600E+02  0.1600E+02
    -12.054  0.0000E+00  0.0000E+00  0.1600E+02  0.1600E+02
    -11.910  0.0000E+00  0.0000E+00  0.1600E+02  0.1600E+02
    -11.767  0.0000E+00  0.0000E+00  0.1600E+02  0.1600E+02
    -11.623  0.0000E+00  0.0000E+00  0.1600E+02  0.1600E+02
    -11.480  0.0000E+00  0.0000E+00  0.1600E+02  0.1600E+02
    -11.336  0.0000E+00  0.0000E+00  0.1600E+02  0.1600E+02
    -11.192  0.0000E+00  0.0000E+00  0.1600E+02  0.1600E+02
    -11.049  0.0000E+00  0.0000E+00  0.1600E+02  0.1600E+02
    -10.905  0.0000E+00  0.0000E+00  0.1600E+02  0.1600E+02
    -10.762  0.0000E+00  0.0000E+00  0.1600E+02  0.1600E+02
    -10.618  0.0000E+00  0.0000E+00  0.1600E+02  0.1600E+02
    -10.475  0.0000E+00  0.0000E+00  0.1600E+02  0.1600E+02
    -10.331  0.0000E+00  0.0000E+00  0.1600E+02  0.1600E+02
    -10.187  0.0000E+00  0.0000E+00  0.1600E+02  0.1600E+02
    -10.044  0.0000E+00  0.0000E+00  0.1600E+02  0.1600E+02
     -9.900  0.0000E+00  0.0000E+00  0.1600E+02  0.1600E+02
     -9.757  0.0000E+00  0.0000E+00  0.1600E+02  0.1600E+02
     -9.613  0.0000E+00  0.0000E+00  0.1600E+02  0.1600E+02
     -9.469  0.0000E+00  0.0000E+00  0.1600E+02  0.1600E+02
     -9.326  0.0000E+00  0.0000E+00  0.1600E+02  0.1600E+02
     -9.182  0.0000E+00  0.0000E+00  0.1600E+02  0.1600E+02
     -9.039  0.0000E+00  0.0000E+00  0.1600E+02  0.1600E+02
     -8.895  0.0000E+00  0.0000E+00  0.1600E+02  0.1600E+02
     -8.752  0.0000E+00  0.0000E+00  0.1600E+02  0.1600E+02
     -8.608  0.0000E+00  0.0000E+00  0.1600E+02  0.1600E+02
     -8.464  0.0000E+00  0.0000E+00  0.1600E+02  0.1600E+02
     -8.321  0.0000E+00  0.0000E+00  0.1600E+02  0.1600E+02
     -8.177  0.0000E+00  0.0000E+00  0.1600E+02  0.1600E+02
     -8.034  0.0000E+00  0.0000E+00  0.1600E+02  0.1600E+02
     -7.890  0.0000E+00  0.0000E+00  0.1600E+02  0.1600E+02
     -7.747  0.0000E+00  0.0000E+00  0.1600E+02  0.1600E+02
     -7.603  0.0000E+00  0.0000E+00  0.1600E+02  0.1600E+02
     -7.459  0.0000E+00  0.0000E+00  0.1600E+02  0.1600E+02
     -7.316  0.0000E+00  0.0000E+00  0.1600E+02  0.1600E+02
     -7.172  0.0000E+00  0.0000E+00  0.1600E+02  0.1600E+02
     -7.029  0.0000E+00  0.0000E+00  0.1600E+02  0.1600E+02
     -6.885  0.0000E+00  0.0000E+00  0.1600E+02  0.1600E+02
     -6.742  0.0000E+00  0.0000E+00  0.1600E+02  0.1600E+02
     -6.598  0.0000E+00  0.0000E+00  0.1600E+02  0.1600E+02
     -6.454  0.0000E+00  0.0000E+00  0.1600E+02  0.1600E+02
     -6.311  0.0000E+00  0.0000E+00  0.1600E+02  0.1600E+02
     -6.167  0.0000E+00  0.0000E+00  0.1600E+02  0.1600E+02
     -6.024  0.0000E+00  0.0000E+00  0.1600E+02  0.1600E+02
     -5.880  0.0000E+00  0.0000E+00  0.1600E+02  0.1600E+02
     -5.737  0.0000E+00  0.0000E+00  0.1600E+02  0.1600E+02
     -5.593  0.2746E-05  0.2777E-05  0.1600E+02  0.1600E+02
     -5.449  0.1298E-03  0.1312E-03  0.1600E+02  0.1600E+02
     -5.306  0.2261E-02  0.2286E-02  0.1600E+02  0.1600E+02
     -5.162  0.3652E-01  0.3690E-01  0.1601E+02  0.1601E+02
     -5.019  0.2983E+00  0.3000E+00  0.1605E+02  0.1605E+02
     -4.875  0.5917E+00  0.5923E+00  0.1613E+02  0.1613E+02
     -4.732  0.6983E+00  0.6978E+00  0.1623E+02  0.1623E+02
     -4.588  0.6145E+00  0.6154E+00  0.1632E+02  0.1632E+02
     -4.444  0.7575E+00  0.7567E+00  0.1643E+02  0.1643E+02
     -4.301  0.5935E+00  0.5933E+00  0.1652E+02  0.1652E+02
     -4.157  0.6571E+00  0.6584E+00  0.1661E+02  0.1661E+02
     -4.014  0.8439E+00  0.8432E+00  0.1673E+02  0.1673E+02
     -3.870  0.5432E+00  0.5416E+00  0.1681E+02  0.1681E+02
     -3.727  0.5260E+00  0.5286E+00  0.1689E+02  0.1689E+02
     -3.583  0.1025E+01  0.1024E+01  0.1703E+02  0.1703E+02
     -3.439  0.6479E+00  0.6467E+00  0.1713E+02  0.1713E+02
     -3.296  0.6565E+00  0.6548E+00  0.1722E+02  0.1722E+02
     -3.152  0.1275E+01  0.1274E+01  0.1740E+02  0.1740E+02
     -3.009  0.1513E+01  0.1512E+01  0.1762E+02  0.1762E+02
     -2.865  0.1349E+01  0.1350E+01  0.1782E+02  0.1782E+02
     -2.722  0.1427E+01  0.1425E+01  0.1802E+02  0.1802E+02
     -2.578  0.1142E+01  0.1143E+01  0.1819E+02  0.1819E+02
     -2.434  0.1222E+01  0.1223E+01  0.1836E+02  0.1836E+02
     -2.291  0.1903E+01  0.1903E+01  0.1864E+02  0.1864E+02
     -2.147  0.1580E+01  0.1579E+01  0.1886E+02  0.1886E+02
     -2.004  0.7885E+00  0.7894E+00  0.1898E+02  0.1898E+02
     -1.860  0.1771E+01  0.1769E+01  0.1923E+02  0.1923E+02
     -1.717  0.2641E+01  0.2647E+01  0.1961E+02  0.1961E+02
     -1.573  0.2564E+01  0.2565E+01  0.1998E+02  0.1998E+02
     -1.429  0.2460E+01  0.2458E+01  0.2033E+02  0.2033E+02
     -1.286  0.2726E+01  0.2724E+01  0.2073E+02  0.2073E+02
     -1.142  0.2300E+01  0.2299E+01  0.2106E+02  0.2106E+02
     -0.999  0.2085E+01  0.2084E+01  0.2136E+02  0.2136E+02
     -0.855  0.1178E+01  0.1177E+01  0.2153E+02  0.2153E+02
     -0.712  0.1059E+01  0.1060E+01  0.2168E+02  0.2168E+02
     -0.568  0.8503E+00  0.8450E+00  0.2180E+02  0.2180E+02
     -0.424  0.1207E+01  0.1206E+01  0.2197E+02  0.2197E+02
     -0.281  0.9766E+00  0.9815E+00  0.2211E+02  0.2211E+02
     -0.137  0.6644E+00  0.6647E+00  0.2221E+02  0.2221E+02
      0.006  0.1685E+01  0.1689E+01  0.2245E+02  0.2245E+02
      0.150  0.2491E+01  0.2494E+01  0.2281E+02  0.2281E+02
      0.293  0.3243E+01  0.3240E+01  0.2328E+02  0.2328E+02
      0.437  0.2806E+01  0.2807E+01  0.2368E+02  0.2368E+02
      0.581  0.1931E+01  0.1930E+01  0.2396E+02  0.2396E+02
      0.724  0.2550E+01  0.2549E+01  0.2433E+02  0.2432E+02
      0.868  0.2522E+01  0.2526E+01  0.2469E+02  0.2469E+02
      1.011  0.2607E+01  0.2604E+01  0.2506E+02  0.2506E+02
      1.155  0.2802E+01  0.2800E+01  0.2547E+02  0.2547E+02
      1.298  0.2778E+01  0.2777E+01  0.2586E+02  0.2586E+02
      1.442  0.2598E+01  0.2604E+01  0.2624E+02  0.2624E+02
      1.586  0.3327E+01  0.3324E+01  0.2672E+02  0.2672E+02
      1.729  0.3508E+01  0.3510E+01  0.2722E+02  0.2722E+02
      1.873  0.3463E+01  0.3463E+01  0.2772E+02  0.2772E+02
      2.016  0.2416E+01  0.2412E+01  0.2807E+02  0.2807E+02
      2.160  0.2380E+01  0.2374E+01  0.2841E+02  0.2841E+02
      2.303  0.2573E+01  0.2572E+01  0.2878E+02  0.2878E+02
      2.447  0.3176E+01  0.3177E+01  0.2924E+02  0.2924E+02
      2.591  0.3691E+01  0.3691E+01  0.2977E+02  0.2977E+02
      2.734  0.3361E+01  0.3362E+01  0.3025E+02  0.3025E+02
      2.878  0.4234E+01  0.4235E+01  0.3086E+02  0.3086E+02
      3.021  0.5147E+01  0.5146E+01  0.3160E+02  0.3160E+02
      3.165  0.4737E+01  0.4733E+01  0.3228E+02  0.3228E+02
      3.308  0.4078E+01  0.4078E+01  0.3287E+02  0.3287E+02
      3.452  0.4272E+01  0.4270E+01  0.3348E+02  0.3348E+02
      3.596  0.5085E+01  0.5088E+01  0.3421E+02  0.3421E+02
      3.739  0.4673E+01  0.4672E+01  0.3489E+02  0.3489E+02
      3.883  0.4131E+01  0.4133E+01  0.3548E+02  0.3548E+02
      4.026  0.4546E+01  0.4544E+01  0.3613E+02  0.3613E+02
      4.170  0.4518E+01  0.4520E+01  0.3678E+02  0.3678E+02
      4.313  0.4001E+01  0.4001E+01  0.3736E+02  0.3736E+02
      4.457  0.3202E+01  0.3201E+01  0.3782E+02  0.3782E+02
      4.601  0.3530E+01  0.3530E+01  0.3833E+02  0.3833E+02
      4.744  0.3326E+01  0.3324E+01  0.3881E+02  0.3881E+02
      4.888  0.2871E+01  0.2874E+01  0.3922E+02  0.3922E+02
      5.031  0.3751E+01  0.3751E+01  0.3976E+02  0.3976E+02
      5.175  0.4372E+01  0.4375E+01  0.4039E+02  0.4039E+02
      5.318  0.3367E+01  0.3366E+01  0.4087E+02  0.4087E+02
      5.462  0.3594E+01  0.3594E+01  0.4139E+02  0.4139E+02
      5.606  0.4647E+01  0.4650E+01  0.4206E+02  0.4206E+02
      5.749  0.5263E+01  0.5266E+01  0.4282E+02  0.4282E+02
      5.893  0.6297E+01  0.6300E+01  0.4372E+02  0.4372E+02
      6.036  0.6576E+01  0.6574E+01  0.4467E+02  0.4467E+02
      6.180  0.6345E+01  0.6341E+01  0.4558E+02  0.4558E+02
      6.323  0.6633E+01  0.6637E+01  0.4653E+02  0.4653E+02
      6.467  0.5888E+01  0.5891E+01  0.4738E+02  0.4738E+02
      6.611  0.4435E+01  0.4431E+01  0.4802E+02  0.4802E+02
      6.754  0.4836E+01  0.4832E+01  0.4872E+02  0.4872E+02
      6.898  0.4543E+01  0.4551E+01  0.4937E+02  0.4937E+02
      7.041  0.3995E+01  0.4005E+01  0.4994E+02  0.4995E+02
      7.185  0.3268E+01  0.3284E+01  0.5041E+02  0.5042E+02
      7.328  0.3044E+01  0.3003E+01  0.5085E+02  0.5085E+02
      7.472  0.1960E+01  0.1873E+01  0.5113E+02  0.5112E+02
      7.616  0.1808E+01  0.1985E+01  0.5140E+02  0.5141E+02
      7.759  0.1891E+01  0.1796E+01  0.5167E+02  0.5167E+02
      7.903  0.1412E+01  0.1292E+01  0.5187E+02  0.5185E+02
      8.046  0.6568E+00  0.8010E+00  0.5197E+02  0.5197E+02
      8.190  0.2067E+00  0.2103E+00  0.5200E+02  0.5200E+02
      8.333  0.2564E-01  0.1669E-01  0.5200E+02  0.5200E+02
      8.477  0.1310E-02  0.0000E+00  0.5200E+02  0.5200E+02
      8.621  0.0000E+00  0.0000E+00  0.5200E+02  0.5200E+02
      8.764  0.0000E+00  0.0000E+00  0.5200E+02  0.5200E+02
      8.908  0.0000E+00  0.0000E+00  0.5200E+02  0.5200E+02
      9.051  0.0000E+00  0.0000E+00  0.5200E+02  0.5200E+02
      9.195  0.0000E+00  0.0000E+00  0.5200E+02  0.5200E+02
      9.339  0.0000E+00  0.0000E+00  0.5200E+02  0.5200E+02
      9.482  0.0000E+00  0.0000E+00  0.5200E+02  0.5200E+02
      9.626  0.0000E+00  0.0000E+00  0.5200E+02  0.5200E+02
      9.769  0.0000E+00  0.0000E+00  0.5200E+02  0.5200E+02
      9.913  0.0000E+00  0.0000E+00  0.5200E+02  0.5200E+02
     10.056  0.0000E+00  0.0000E+00  0.5200E+02  0.5200E+02
     10.05636870    -33.01538965  301      4.51038190      1.00000000
    -33.015  0.0000E+00  0.0000E+00  0.0000E+00  0.0000E+00  0.0000E+00  0.0000E+00  0.0000E+00  0.0000E+00  0.0000E+00  0.0000E+00  0.0000E+00  0.0000E+00  0.0000E+00  0.0000E+00  0.0000E+00  0.0000E+00  0.0000E+00  0.0000E+00
    -32.872  0.0000E+00  0.0000E+00  0.0000E+00  0.0000E+00  0.0000E+00  0.0000E+00  0.0000E+00  0.0000E+00  0.0000E+00  0.0000E+00  0.0000E+00  0.0000E+00  0.0000E+00  0.0000E+00  0.0000E+00  0.0000E+00  0.0000E+00  0.0000E+00
    -32.728  0.0000E+00  0.0000E+00  0.0000E+00  0.0000E+00  0.0000E+00  0.0000E+00  0.0000E+00  0.0000E+00  0.0000E+00  0.0000E+00  0.0000E+00  0.0000E+00  0.0000E+00  0.0000E+00  0.0000E+00  0.0000E+00  0.0000E+00  0.0000E+00
    -32.585  0.0000E+00  0.0000E+00  0.0000E+00  0.0000E+00  0.0000E+00  0.0000E+00  0.0000E+00  0.0000E+00  0.0000E+00  0.0000E+00  0.0000E+00  0.0000E+00  0.0000E+00  0.0000E+00  0.0000E+00  0.0000E+00  0.0000E+00  0.0000E+00
    -32.441  0.0000E+00  0.0000E+00  0.0000E+00  0.0000E+00  0.0000E+00  0.0000E+00  0.0000E+00  0.0000E+00  0.0000E+00  0.0000E+00  0.0000E+00  0.0000E+00  0.0000E+00  0.0000E+00  0.0000E+00  0.0000E+00  0.0000E+00  0.0000E+00
    -32.298  0.0000E+00  0.0000E+00  0.0000E+00  0.0000E+00  0.0000E+00  0.0000E+00  0.0000E+00  0.0000E+00  0.0000E+00  0.0000E+00  0.0000E+00  0.0000E+00  0.0000E+00  0.0000E+00  0.0000E+00  0.0000E+00  0.0000E+00  0.0000E+00
    -32.154  0.0000E+00  0.0000E+00  0.0000E+00  0.0000E+00  0.0000E+00  0.0000E+00  0.0000E+00  0.0000E+00  0.0000E+00  0.0000E+00  0.0000E+00  0.0000E+00  0.0000E+00  0.0000E+00  0.0000E+00  0.0000E+00  0.0000E+00  0.0000E+00
    -32.010  0.0000E+00  0.0000E+00  0.0000E+00  0.0000E+00  0.0000E+00  0.0000E+00  0.0000E+00  0.0000E+00  0.0000E+00  0.0000E+00  0.0000E+00  0.0000E+00  0.0000E+00  0.0000E+00  0.0000E+00  0.0000E+00  0.0000E+00  0.0000E+00
    -31.867  0.0000E+00  0.0000E+00  0.0000E+00  0.0000E+00  0.0000E+00  0.0000E+00  0.0000E+00  0.0000E+00  0.0000E+00  0.0000E+00  0.0000E+00  0.0000E+00  0.0000E+00  0.0000E+00  0.0000E+00  0.0000E+00  0.0000E+00  0.0000E+00
    -31.723  0.0000E+00  0.0000E+00  0.0000E+00  0.0000E+00  0.0000E+00  0.0000E+00  0.0000E+00  0.0000E+00  0.0000E+00  0.0000E+00  0.0000E+00  0.0000E+00  0.0000E+00  0.0000E+00  0.0000E+00  0.0000E+00  0.0000E+00  0.0000E+00
    -31.580  0.1076E-03  0.1079E-03  0.5010E-10  0.5019E-10  0.1212E-10  0.1240E-10  0.5010E-10  0.5019E-10  0.1530E-14  0.1932E-14  0.8283E-14  0.8578E-14  0.1123E-09  0.1127E-09  0.8283E-14  0.8578E-14  0.3609E-10  0.3619E-10
    -31.436  0.2424E-02  0.2431E-02  0.1140E-08  0.1141E-08  0.2658E-09  0.2719E-09  0.1140E-08  0.1141E-08  0.3387E-13  0.4136E-13  0.1825E-12  0.1866E-12  0.2081E-08  0.2088E-08  0.1825E-12  0.1866E-12  0.6749E-09  0.6769E-09
    -31.293  0.4190E-01  0.4201E-01  0.1969E-07  0.1972E-07  0.4600E-08  0.4705E-08  0.1969E-07  0.1972E-07  0.5860E-12  0.7165E-12  0.3158E-11  0.3231E-11  0.3628E-07  0.3640E-07  0.3158E-11  0.3231E-11  0.1177E-07  0.1180E-07
    -31.149  0.6617E+00  0.6633E+00  0.3113E-06  0.3117E-06  0.7256E-07  0.7419E-07  0.3113E-06  0.3117E-06  0.9275E-11  0.1133E-10  0.4986E-10  0.5098E-10  0.5676E-06  0.5692E-06  0.4986E-10  0.5098E-10  0.1865E-06  0.1870E-06
    -31.005  0.3844E+01  0.3847E+01  0.1812E-05  0.1811E-05  0.4187E-06  0.4273E-06  0.1812E-05  0.1811E-05  0.5430E-10  0.6597E-10  0.2885E-09  0.2936E-09  0.3104E-05  0.3106E-05  0.2885E-09  0.2936E-09  0.1095E-05  0.1096E-05
    -30.862  0.2076E+01  0.2073E+01  0.9759E-06  0.9729E-06  0.2241E-06  0.2282E-06  0.9759E-06  0.9729E-06  0.2927E-10  0.3529E-10  0.1541E-09  0.1558E-09  0.1545E-05  0.1542E-05  0.1541E-09  0.1558E-09  0.5897E-06  0.5888E-06
    -30.718  0.1774E+00  0.1769E+00  0.8310E-07  0.8277E-07  0.1908E-07  0.1941E-07  0.8310E-07  0.8277E-07  0.2488E-11  0.2991E-11  0.1308E-10  0.1319E-10  0.1279E-06  0.1276E-06  0.1308E-10  0.1319E-10  0.5000E-07  0.4988E-07
    -30.575  0.0000E+00  0.0000E+00  0.0000E+00  0.0000E+00  0.0000E+00  0.0000E+00  0.0000E+00  0.0000E+00  0.0000E+00  0.0000E+00  0.0000E+00  0.0000E+00  0.0000E+00  0.0000E+00  0.0000E+00  0.0000E+00  0.0000E+00  0.0000E+00
    -30.431  0.0000E+00  0.0000E+00  0.0000E+00  0.0000E+00  0.0000E+00  0.0000E+00  0.0000E+00  0.0000E+00  0.0000E+00  0.0000E+00  0.0000E+00  0.0000E+00  0.0000E+00  0.0000E+00  0.0000E+00  0.0000E+00  0.0000E+00  0.0000E+00
    -30.288  0.0000E+00  0.0000E+00  0.0000E+00  0.0000E+00  0.0000E+00  0.0000E+00  0.0000E+00  0.0000E+00  0.0000E+00  0.0000E+00  0.0000E+00  0.0000E+00  0.0000E+00  0.0000E+00  0.0000E+00  0.0000E+00  0.0000E+00  0.0000E+00
    -30.144  0.0000E+00  0.0000E+00  0.0000E+00  0.0000E+00  0.0000E+00  0.0000E+00  0.0000E+00  0.0000E+00  0.0000E+00  0.0000E+00  0.0000E+00  0.0000E+00  0.0000E+00  0.0000E+00  0.0000E+00  0.0000E+00  0.0000E+00  0.0000E+00
    -30.000  0.0000E+00  0.0000E+00  0.0000E+00  0.0000E+00  0.0000E+00  0.0000E+00  0.0000E+00  0.0000E+00  0.0000E+00  0.0000E+00  0.0000E+00  0.0000E+00  0.0000E+00  0.0000E+00  0.0000E+00  0.0000E+00  0.0000E+00  0.0000E+00
    -29.857  0.0000E+00  0.0000E+00  0.0000E+00  0.0000E+00  0.0000E+00  0.0000E+00  0.0000E+00  0.0000E+00  0.0000E+00  0.0000E+00  0.0000E+00  0.0000E+00  0.0000E+00  0.0000E+00  0.0000E+00  0.0000E+00  0.0000E+00  0.0000E+00
    -29.713  0.0000E+00  0.0000E+00  0.0000E+00  0.0000E+00  0.0000E+00  0.0000E+00  0.0000E+00  0.0000E+00  0.0000E+00  0.0000E+00  0.0000E+00  0.0000E+00  0.0000E+00  0.0000E+00  0.0000E+00  0.0000E+00  0.0000E+00  0.0000E+00
    -29.570  0.0000E+00  0.0000E+00  0.0000E+00  0.0000E+00  0.0000E+00  0.0000E+00  0.0000E+00  0.0000E+00  0.0000E+00  0.0000E+00  0.0000E+00  0.0000E+00  0.0000E+00  0.0000E+00  0.0000E+00  0.0000E+00  0.0000E+00  0.0000E+00
    -29.426  0.0000E+00  0.0000E+00  0.0000E+00  0.0000E+00  0.0000E+00  0.0000E+00  0.0000E+00  0.0000E+00  0.0000E+00  0.0000E+00  0.0000E+00  0.0000E+00  0.0000E+00  0.0000E+00  0.0000E+00  0.0000E+00  0.0000E+00  0.0000E+00
    -29.283  0.0000E+00  0.0000E+00  0.0000E+00  0.0000E+00  0.0000E+00  0.0000E+00  0.0000E+00  0.0000E+00  0.0000E+00  0.0000E+00  0.0000E+00  0.0000E+00  0.0000E+00  0.0000E+00  0.0000E+00  0.0000E+00  0.0000E+00  0.0000E+00
    -29.139  0.0000E+00  0.0000E+00  0.0000E+00  0.0000E+00  0.0000E+00  0.0000E+00  0.0000E+00  0.0000E+00  0.0000E+00  0.0000E+00  0.0000E+00  0.0000E+00  0.0000E+00  0.0000E+00  0.0000E+00  0.0000E+00  0.0000E+00  0.0000E+00
    -28.995  0.0000E+00  0.0000E+00  0.0000E+00  0.0000E+00  0.0000E+00  0.0000E+00  0.0000E+00  0.0000E+00  0.0000E+00  0.0000E+00  0.0000E+00  0.0000E+00  0.0000E+00  0.0000E+00  0.0000E+00  0.0000E+00  0.0000E+00  0.0000E+00
    -28.852  0.0000E+00  0.0000E+00  0.0000E+00  0.0000E+00  0.0000E+00  0.0000E+00  0.0000E+00  0.0000E+00  0.0000E+00  0.0000E+00  0.0000E+00  0.0000E+00  0.0000E+00  0.0000E+00  0.0000E+00  0.0000E+00  0.0000E+00  0.0000E+00
    -28.708  0.0000E+00  0.0000E+00  0.0000E+00  0.0000E+00  0.0000E+00  0.0000E+00  0.0000E+00  0.0000E+00  0.0000E+00  0.0000E+00  0.0000E+00  0.0000E+00  0.0000E+00  0.0000E+00  0.0000E+00  0.0000E+00  0.0000E+00  0.0000E+00
    -28.565  0.0000E+00  0.0000E+00  0.0000E+00  0.0000E+00  0.0000E+00  0.0000E+00  0.0000E+00  0.0000E+00  0.0000E+00  0.0000E+00  0.0000E+00  0.0000E+00  0.0000E+00  0.0000E+00  0.0000E+00  0.0000E+00  0.0000E+00  0.0000E+00
    -28.421  0.0000E+00  0.0000E+00  0.0000E+00  0.0000E+00  0.0000E+00  0.0000E+00  0.0000E+00  0.0000E+00  0.0000E+00  0.0000E+00  0.0000E+00  0.0000E+00  0.0000E+00  0.0000E+00  0.0000E+00  0.0000E+00  0.0000E+00  0.0000E+00
    -28.277  0.0000E+00  0.0000E+00  0.0000E+00  0.0000E+00  0.0000E+00  0.0000E+00  0.0000E+00  0.0000E+00  0.0000E+00  0.0000E+00  0.0000E+00  0.0000E+00  0.0000E+00  0.0000E+00  0.0000E+00  0.0000E+00  0.0000E+00  0.0000E+00
    -28.134  0.0000E+00  0.0000E+00  0.0000E+00  0.0000E+00  0.0000E+00  0.0000E+00  0.0000E+00  0.0000E+00  0.0000E+00  0.0000E+00  0.0000E+00  0.0000E+00  0.0000E+00  0.0000E+00  0.0000E+00  0.0000E+00  0.0000E+00  0.0000E+00
    -27.990  0.0000E+00  0.0000E+00  0.0000E+00  0.0000E+00  0.0000E+00  0.0000E+00  0.0000E+00  0.0000E+00  0.0000E+00  0.0000E+00  0.0000E+00  0.0000E+00  0.0000E+00  0.0000E+00  0.0000E+00  0.0000E+00  0.0000E+00  0.0000E+00
    -27.847  0.0000E+00  0.0000E+00  0.0000E+00  0.0000E+00  0.0000E+00  0.0000E+00  0.0000E+00  0.0000E+00  0.0000E+00  0.0000E+00  0.0000E+00  0.0000E+00  0.0000E+00  0.0000E+00  0.0000E+00  0.0000E+00  0.0000E+00  0.0000E+00
    -27.703  0.0000E+00  0.0000E+00  0.0000E+00  0.0000E+00  0.0000E+00  0.0000E+00  0.0000E+00  0.0000E+00  0.0000E+00  0.0000E+00  0.0000E+00  0.0000E+00  0.0000E+00  0.0000E+00  0.0000E+00  0.0000E+00  0.0000E+00  0.0000E+00
    -27.560  0.0000E+00  0.0000E+00  0.0000E+00  0.0000E+00  0.0000E+00  0.0000E+00  0.0000E+00  0.0000E+00  0.0000E+00  0.0000E+00  0.0000E+00  0.0000E+00  0.0000E+00  0.0000E+00  0.0000E+00  0.0000E+00  0.0000E+00  0.0000E+00
    -27.416  0.0000E+00  0.0000E+00  0.0000E+00  0.0000E+00  0.0000E+00  0.0000E+00  0.0000E+00  0.0000E+00  0.0000E+00  0.0000E+00  0.0000E+00  0.0000E+00  0.0000E+00  0.0000E+00  0.0000E+00  0.0000E+00  0.0000E+00  0.0000E+00
    -27.272  0.0000E+00  0.0000E+00  0.0000E+00  0.0000E+00  0.0000E+00  0.0000E+00  0.0000E+00  0.0000E+00  0.0000E+00  0.0000E+00  0.0000E+00  0.0000E+00  0.0000E+00  0.0000E+00  0.0000E+00  0.0000E+00  0.0000E+00  0.0000E+00
    -27.129  0.0000E+00  0.0000E+00  0.0000E+00  0.0000E+00  0.0000E+00  0.0000E+00  0.0000E+00  0.0000E+00  0.0000E+00  0.0000E+00  0.0000E+00  0.0000E+00  0.0000E+00  0.0000E+00  0.0000E+00  0.0000E+00  0.0000E+00  0.0000E+00
    -26.985  0.0000E+00  0.0000E+00  0.0000E+00  0.0000E+00  0.0000E+00  0.0000E+00  0.0000E+00  0.0000E+00  0.0000E+00  0.0000E+00  0.0000E+00  0.0000E+00  0.0000E+00  0.0000E+00  0.0000E+00  0.0000E+00  0.0000E+00  0.0000E+00
    -26.842  0.0000E+00  0.0000E+00  0.0000E+00  0.0000E+00  0.0000E+00  0.0000E+00  0.0000E+00  0.0000E+00  0.0000E+00  0.0000E+00  0.0000E+00  0.0000E+00  0.0000E+00  0.0000E+00  0.0000E+00  0.0000E+00  0.0000E+00  0.0000E+00
    -26.698  0.0000E+00  0.0000E+00  0.0000E+00  0.0000E+00  0.0000E+00  0.0000E+00  0.0000E+00  0.0000E+00  0.0000E+00  0.0000E+00  0.0000E+00  0.0000E+00  0.0000E+00  0.0000E+00  0.0000E+00  0.0000E+00  0.0000E+00  0.0000E+00
    -26.555  0.0000E+00  0.0000E+00  0.0000E+00  0.0000E+00  0.0000E+00  0.0000E+00  0.0000E+00  0.0000E+00  0.0000E+00  0.0000E+00  0.0000E+00  0.0000E+00  0.0000E+00  0.0000E+00  0.0000E+00  0.0000E+00  0.0000E+00  0.0000E+00
    -26.411  0.0000E+00  0.0000E+00  0.0000E+00  0.0000E+00  0.0000E+00  0.0000E+00  0.0000E+00  0.0000E+00  0.0000E+00  0.0000E+00  0.0000E+00  0.0000E+00  0.0000E+00  0.0000E+00  0.0000E+00  0.0000E+00  0.0000E+00  0.0000E+00
    -26.267  0.0000E+00  0.0000E+00  0.0000E+00  0.0000E+00  0.0000E+00  0.0000E+00  0.0000E+00  0.0000E+00  0.0000E+00  0.0000E+00  0.0000E+00  0.0000E+00  0.0000E+00  0.0000E+00  0.0000E+00  0.0000E+00  0.0000E+00  0.0000E+00
    -26.124  0.0000E+00  0.0000E+00  0.0000E+00  0.0000E+00  0.0000E+00  0.0000E+00  0.0000E+00  0.0000E+00  0.0000E+00  0.0000E+00  0.0000E+00  0.0000E+00  0.0000E+00  0.0000E+00  0.0000E+00  0.0000E+00  0.0000E+00  0.0000E+00
    -25.980  0.0000E+00  0.0000E+00  0.0000E+00  0.0000E+00  0.0000E+00  0.0000E+00  0.0000E+00  0.0000E+00  0.0000E+00  0.0000E+00  0.0000E+00  0.0000E+00  0.0000E+00  0.0000E+00  0.0000E+00  0.0000E+00  0.0000E+00  0.0000E+00
    -25.837  0.0000E+00  0.0000E+00  0.0000E+00  0.0000E+00  0.0000E+00  0.0000E+00  0.0000E+00  0.0000E+00  0.0000E+00  0.0000E+00  0.0000E+00  0.0000E+00  0.0000E+00  0.0000E+00  0.0000E+00  0.0000E+00  0.0000E+00  0.0000E+00