  16  16   1   0
  0.3463119E+02  0.4369109E-09  0.4369109E-09  0.2902697E-08  0.5000000E-15
  1.000000000000000E-004
  CAR 
 unknown system                          
      7.32329271    -36.04513485  301      2.48307063      1.00000000
    -36.045  0.0000E+00  0.0000E+00  0.0000E+00  0.0000E+00
    -35.901  0.0000E+00  0.0000E+00  0.0000E+00  0.0000E+00
    -35.756  0.0000E+00  0.0000E+00  0.0000E+00  0.0000E+00
    -35.611  0.0000E+00  0.0000E+00  0.0000E+00  0.0000E+00
    -35.467  0.0000E+00  0.0000E+00  0.0000E+00  0.0000E+00
    -35.322  0.0000E+00  0.0000E+00  0.0000E+00  0.0000E+00
    -35.178  0.0000E+00  0.0000E+00  0.0000E+00  0.0000E+00
    -35.033  0.0000E+00  0.0000E+00  0.0000E+00  0.0000E+00
    -34.889  0.0000E+00  0.0000E+00  0.0000E+00  0.0000E+00
    -34.744  0.0000E+00  0.0000E+00  0.0000E+00  0.0000E+00
    -34.600  0.7045E-03  0.7045E-03  0.1018E-03  0.1018E-03
    -34.455  0.1198E-01  0.1198E-01  0.1834E-02  0.1834E-02
    -34.310  0.2141E+00  0.2141E+00  0.3278E-01  0.3279E-01
    -34.166  0.3358E+01  0.3358E+01  0.5182E+00  0.5183E+00
    -34.021  0.1657E+02  0.1657E+02  0.2913E+01  0.2913E+01
    -33.877  0.6958E+01  0.6957E+01  0.3919E+01  0.3919E+01
    -33.732  0.5299E+00  0.5298E+00  0.3995E+01  0.3995E+01
    -33.588  0.0000E+00  0.0000E+00  0.4000E+01  0.4000E+01
    -33.443  0.0000E+00  0.0000E+00  0.4000E+01  0.4000E+01
    -33.298  0.0000E+00  0.0000E+00  0.4000E+01  0.4000E+01
    -33.154  0.0000E+00  0.0000E+00  0.4000E+01  0.4000E+01
    -33.009  0.0000E+00  0.0000E+00  0.4000E+01  0.4000E+01
    -32.865  0.0000E+00  0.0000E+00  0.4000E+01  0.4000E+01
    -32.720  0.0000E+00  0.0000E+00  0.4000E+01  0.4000E+01
    -32.576  0.0000E+00  0.0000E+00  0.4000E+01  0.4000E+01
    -32.431  0.0000E+00  0.0000E+00  0.4000E+01  0.4000E+01
    -32.287  0.0000E+00  0.0000E+00  0.4000E+01  0.4000E+01
    -32.142  0.0000E+00  0.0000E+00  0.4000E+01  0.4000E+01
    -31.997  0.0000E+00  0.0000E+00  0.4000E+01  0.4000E+01
    -31.853  0.0000E+00  0.0000E+00  0.4000E+01  0.4000E+01
    -31.708  0.0000E+00  0.0000E+00  0.4000E+01  0.4000E+01
    -31.564  0.0000E+00  0.0000E+00  0.4000E+01  0.4000E+01
    -31.419  0.0000E+00  0.0000E+00  0.4000E+01  0.4000E+01
    -31.275  0.0000E+00  0.0000E+00  0.4000E+01  0.4000E+01
    -31.130  0.0000E+00  0.0000E+00  0.4000E+01  0.4000E+01
    -30.985  0.0000E+00  0.0000E+00  0.4000E+01  0.4000E+01
    -30.841  0.0000E+00  0.0000E+00  0.4000E+01  0.4000E+01
    -30.696  0.0000E+00  0.0000E+00  0.4000E+01  0.4000E+01
    -30.552  0.0000E+00  0.0000E+00  0.4000E+01  0.4000E+01
    -30.407  0.0000E+00  0.0000E+00  0.4000E+01  0.4000E+01
    -30.263  0.0000E+00  0.0000E+00  0.4000E+01  0.4000E+01
    -30.118  0.0000E+00  0.0000E+00  0.4000E+01  0.4000E+01
    -29.974  0.0000E+00  0.0000E+00  0.4000E+01  0.4000E+01
    -29.829  0.0000E+00  0.0000E+00  0.4000E+01  0.4000E+01
    -29.684  0.0000E+00  0.0000E+00  0.4000E+01  0.4000E+01
    -29.540  0.0000E+00  0.0000E+00  0.4000E+01  0.4000E+01
    -29.395  0.0000E+00  0.0000E+00  0.4000E+01  0.4000E+01
    -29.251  0.0000E+00  0.0000E+00  0.4000E+01  0.4000E+01
    -29.106  0.0000E+00  0.0000E+00  0.4000E+01  0.4000E+01
    -28.962  0.0000E+00  0.0000E+00  0.4000E+01  0.4000E+01
    -28.817  0.0000E+00  0.0000E+00  0.4000E+01  0.4000E+01
    -28.673  0.0000E+00  0.0000E+00  0.4000E+01  0.4000E+01
    -28.528  0.0000E+00  0.0000E+00  0.4000E+01  0.4000E+01
    -28.383  0.0000E+00  0.0000E+00  0.4000E+01  0.4000E+01
    -28.239  0.0000E+00  0.0000E+00  0.4000E+01  0.4000E+01
    -28.094  0.0000E+00  0.0000E+00  0.4000E+01  0.4000E+01
    -27.950  0.0000E+00  0.0000E+00  0.4000E+01  0.4000E+01
    -27.805  0.0000E+00  0.0000E+00  0.4000E+01  0.4000E+01
    -27.661  0.0000E+00  0.0000E+00  0.4000E+01  0.4000E+01
    -27.516  0.0000E+00  0.0000E+00  0.4000E+01  0.4000E+01
    -27.371  0.0000E+00  0.0000E+00  0.4000E+01  0.4000E+01
    -27.227  0.0000E+00  0.0000E+00  0.4000E+01  0.4000E+01
    -27.082  0.0000E+00  0.0000E+00  0.4000E+01  0.4000E+01
    -26.938  0.0000E+00  0.0000E+00  0.4000E+01  0.4000E+01
    -26.793  0.0000E+00  0.0000E+00  0.4000E+01  0.4000E+01
    -26.649  0.0000E+00  0.0000E+00  0.4000E+01  0.4000E+01
    -26.504  0.0000E+00  0.0000E+00  0.4000E+01  0.4000E+01
    -26.360  0.0000E+00  0.0000E+00  0.4000E+01  0.4000E+01
    -26.215  0.0000E+00  0.0000E+00  0.4000E+01  0.4000E+01
    -26.070  0.0000E+00  0.0000E+00  0.4000E+01  0.4000E+01
    -25.926  0.0000E+00  0.0000E+00  0.4000E+01  0.4000E+01
    -25.781  0.0000E+00  0.0000E+00  0.4000E+01  0.4000E+01
    -25.637  0.0000E+00  0.0000E+00  0.4000E+01  0.4000E+01
    -25.492  0.0000E+00  0.0000E+00  0.4000E+01  0.4000E+01
    -25.348  0.0000E+00  0.0000E+00  0.4000E+01  0.4000E+01
    -25.203  0.0000E+00  0.0000E+00  0.4000E+01  0.4000E+01
    -25.058  0.0000E+00  0.0000E+00  0.4000E+01  0.4000E+01
    -24.914  0.0000E+00  0.0000E+00  0.4000E+01  0.4000E+01
    -24.769  0.0000E+00  0.0000E+00  0.4000E+01  0.4000E+01
    -24.625  0.0000E+00  0.0000E+00  0.4000E+01  0.4000E+01
    -24.480  0.0000E+00  0.0000E+00  0.4000E+01  0.4000E+01
    -24.336  0.0000E+00  0.0000E+00  0.4000E+01  0.4000E+01
    -24.191  0.0000E+00  0.0000E+00  0.4000E+01  0.4000E+01
    -24.047  0.0000E+00  0.0000E+00  0.4000E+01  0.4000E+01
    -23.902  0.0000E+00  0.0000E+00  0.4000E+01  0.4000E+01
    -23.757  0.0000E+00  0.0000E+00  0.4000E+01  0.4000E+01
    -23.613  0.0000E+00  0.0000E+00  0.4000E+01  0.4000E+01
    -23.468  0.0000E+00  0.0000E+00  0.4000E+01  0.4000E+01
    -23.324  0.0000E+00  0.0000E+00  0.4000E+01  0.4000E+01
    -23.179  0.0000E+00  0.0000E+00  0.4000E+01  0.4000E+01
    -23.035  0.0000E+00  0.0000E+00  0.4000E+01  0.4000E+01
    -22.890  0.0000E+00  0.0000E+00  0.4000E+01  0.4000E+01
    -22.745  0.0000E+00  0.0000E+00  0.4000E+01  0.4000E+01
    -22.601  0.0000E+00  0.0000E+00  0.4000E+01  0.4000E+01
    -22.456  0.0000E+00  0.0000E+00  0.4000E+01  0.4000E+01
    -22.312  0.0000E+00  0.0000E+00  0.4000E+01  0.4000E+01
    -22.167  0.0000E+00  0.0000E+00  0.4000E+01  0.4000E+01
    -22.023  0.0000E+00  0.0000E+00  0.4000E+01  0.4000E+01
    -21.878  0.0000E+00  0.0000E+00  0.4000E+01  0.4000E+01
    -21.734  0.0000E+00  0.0000E+00  0.4000E+01  0.4000E+01
    -21.589  0.0000E+00  0.0000E+00  0.4000E+01  0.4000E+01
    -21.444  0.0000E+00  0.0000E+00  0.4000E+01  0.4000E+01
    -21.300  0.0000E+00  0.0000E+00  0.4000E+01  0.4000E+01
    -21.155  0.0000E+00  0.0000E+00  0.4000E+01  0.4000E+01
    -21.011  0.0000E+00  0.0000E+00  0.4000E+01  0.4000E+01
    -20.866  0.0000E+00  0.0000E+00  0.4000E+01  0.4000E+01
    -20.722  0.0000E+00  0.0000E+00  0.4000E+01  0.4000E+01
    -20.577  0.0000E+00  0.0000E+00  0.4000E+01  0.4000E+01
    -20.433  0.0000E+00  0.0000E+00  0.4000E+01  0.4000E+01
    -20.288  0.0000E+00  0.0000E+00  0.4000E+01  0.4000E+01
    -20.143  0.0000E+00  0.0000E+00  0.4000E+01  0.4000E+01
    -19.999  0.0000E+00  0.0000E+00  0.4000E+01  0.4000E+01
    -19.854  0.0000E+00  0.0000E+00  0.4000E+01  0.4000E+01
    -19.710  0.0000E+00  0.0000E+00  0.4000E+01  0.4000E+01
    -19.565  0.0000E+00  0.0000E+00  0.4000E+01  0.4000E+01
    -19.421  0.0000E+00  0.0000E+00  0.4000E+01  0.4000E+01
    -19.276  0.0000E+00  0.0000E+00  0.4000E+01  0.4000E+01
    -19.131  0.0000E+00  0.0000E+00  0.4000E+01  0.4000E+01
    -18.987  0.0000E+00  0.0000E+00  0.4000E+01  0.4000E+01
    -18.842  0.0000E+00  0.0000E+00  0.4000E+01  0.4000E+01
    -18.698  0.0000E+00  0.0000E+00  0.4000E+01  0.4000E+01
    -18.553  0.0000E+00  0.0000E+00  0.4000E+01  0.4000E+01
    -18.409  0.0000E+00  0.0000E+00  0.4000E+01  0.4000E+01
    -18.264  0.0000E+00  0.0000E+00  0.4000E+01  0.4000E+01
    -18.120  0.0000E+00  0.0000E+00  0.4000E+01  0.4000E+01
    -17.975  0.0000E+00  0.0000E+00  0.4000E+01  0.4000E+01
    -17.830  0.0000E+00  0.0000E+00  0.4000E+01  0.4000E+01
    -17.686  0.0000E+00  0.0000E+00  0.4000E+01  0.4000E+01
    -17.541  0.0000E+00  0.0000E+00  0.4000E+01  0.4000E+01
    -17.397  0.0000E+00  0.0000E+00  0.4000E+01  0.4000E+01
    -17.252  0.0000E+00  0.0000E+00  0.4000E+01  0.4000E+01
    -17.108  0.0000E+00  0.0000E+00  0.4000E+01  0.4000E+01
    -16.963  0.0000E+00  0.0000E+00  0.4000E+01  0.4000E+01
    -16.818  0.0000E+00  0.0000E+00  0.4000E+01  0.4000E+01
    -16.674  0.0000E+00  0.0000E+00  0.4000E+01  0.4000E+01
    -16.529  0.4614E-02  0.4604E-02  0.4001E+01  0.4001E+01
    -16.385  0.7839E-01  0.7823E-01  0.4012E+01  0.4012E+01
    -16.240  0.1376E+01  0.1373E+01  0.4211E+01  0.4210E+01
    -16.096  0.1729E+02  0.1727E+02  0.6710E+01  0.6707E+01
    -15.951  0.4818E+02  0.4819E+02  0.1368E+02  0.1367E+02
    -15.807  0.1493E+02  0.1495E+02  0.1583E+02  0.1583E+02
    -15.662  0.1006E+01  0.1007E+01  0.1599E+02  0.1599E+02
    -15.517  0.0000E+00  0.0000E+00  0.1600E+02  0.1600E+02
    -15.373  0.0000E+00  0.0000E+00  0.1600E+02  0.1600E+02
    -15.228  0.0000E+00  0.0000E+00  0.1600E+02  0.1600E+02
    -15.084  0.0000E+00  0.0000E+00  0.1600E+02  0.1600E+02
    -14.939  0.0000E+00  0.0000E+00  0.1600E+02  0.1600E+02
    -14.795  0.0000E+00  0.0000E+00  0.1600E+02  0.1600E+02
    -14.650  0.0000E+00  0.0000E+00  0.1600E+02  0.1600E+02
    -14.505  0.0000E+00  0.0000E+00  0.1600E+02  0.1600E+02
    -14.361  0.0000E+00  0.0000E+00  0.1600E+02  0.1600E+02
    -14.216  0.0000E+00  0.0000E+00  0.1600E+02  0.1600E+02
    -14.072  0.0000E+00  0.0000E+00  0.1600E+02  0.1600E+02
    -13.927  0.0000E+00  0.0000E+00  0.1600E+02  0.1600E+02
    -13.783  0.0000E+00  0.0000E+00  0.1600E+02  0.1600E+02
    -13.638  0.0000E+00  0.0000E+00  0.1600E+02  0.1600E+02
    -13.494  0.0000E+00  0.0000E+00  0.1600E+02  0.1600E+02
    -13.349  0.0000E+00  0.0000E+00  0.1600E+02  0.1600E+02
    -13.204  0.0000E+00  0.0000E+00  0.1600E+02  0.1600E+02
    -13.060  0.0000E+00  0.0000E+00  0.1600E+02  0.1600E+02
    -12.915  0.0000E+00  0.0000E+00  0.1600E+02  0.1600E+02
    -12.771  0.0000E+00  0.0000E+00  0.1600E+02  0.1600E+02
    -12.626  0.0000E+00  0.0000E+00  0.1600E+02  0.1600E+02
    -12.482  0.0000E+00  0.0000E+00  0.1600E+02  0.1600E+02
    -12.337  0.0000E+00  0.0000E+00  0.1600E+02  0.1600E+02
    -12.192  0.0000E+00  0.0000E+00  0.1600E+02  0.1600E+02
    -12.048  0.0000E+00  0.0000E+00  0.1600E+02  0.1600E+02
    -11.903  0.0000E+00  0.0000E+00  0.1600E+02  0.1600E+02
    -11.759  0.0000E+00  0.0000E+00  0.1600E+02  0.1600E+02
    -11.614  0.0000E+00  0.0000E+00  0.1600E+02  0.1600E+02
    -11.470  0.0000E+00  0.0000E+00  0.1600E+02  0.1600E+02
    -11.325  0.0000E+00  0.0000E+00  0.1600E+02  0.1600E+02
    -11.181  0.0000E+00  0.0000E+00  0.1600E+02  0.1600E+02
    -11.036  0.0000E+00  0.0000E+00  0.1600E+02  0.1600E+02
    -10.891  0.0000E+00  0.0000E+00  0.1600E+02  0.1600E+02
    -10.747  0.0000E+00  0.0000E+00  0.1600E+02  0.1600E+02
    -10.602  0.0000E+00  0.0000E+00  0.1600E+02  0.1600E+02
    -10.458  0.0000E+00  0.0000E+00  0.1600E+02  0.1600E+02
    -10.313  0.0000E+00  0.0000E+00  0.1600E+02  0.1600E+02
    -10.169  0.0000E+00  0.0000E+00  0.1600E+02  0.1600E+02
    -10.024  0.0000E+00  0.0000E+00  0.1600E+02  0.1600E+02
     -9.880  0.0000E+00  0.0000E+00  0.1600E+02  0.1600E+02
     -9.735  0.0000E+00  0.0000E+00  0.1600E+02  0.1600E+02
     -9.590  0.0000E+00  0.0000E+00  0.1600E+02  0.1600E+02
     -9.446  0.0000E+00  0.0000E+00  0.1600E+02  0.1600E+02
     -9.301  0.0000E+00  0.0000E+00  0.1600E+02  0.1600E+02
     -9.157  0.0000E+00  0.0000E+00  0.1600E+02  0.1600E+02
     -9.012  0.0000E+00  0.0000E+00  0.1600E+02  0.1600E+02
     -8.868  0.0000E+00  0.0000E+00  0.1600E+02  0.1600E+02
     -8.723  0.0000E+00  0.0000E+00  0.1600E+02  0.1600E+02
     -8.578  0.0000E+00  0.0000E+00  0.1600E+02  0.1600E+02
     -8.434  0.0000E+00  0.0000E+00  0.1600E+02  0.1600E+02
     -8.289  0.0000E+00  0.0000E+00  0.1600E+02  0.1600E+02
     -8.145  0.0000E+00  0.0000E+00  0.1600E+02  0.1600E+02
     -8.000  0.0000E+00  0.0000E+00  0.1600E+02  0.1600E+02
     -7.856  0.0000E+00  0.0000E+00  0.1600E+02  0.1600E+02
     -7.711  0.0000E+00  0.0000E+00  0.1600E+02  0.1600E+02
     -7.567  0.0000E+00  0.0000E+00  0.1600E+02  0.1600E+02
     -7.422  0.0000E+00  0.0000E+00  0.1600E+02  0.1600E+02
     -7.277  0.0000E+00  0.0000E+00  0.1600E+02  0.1600E+02
     -7.133  0.0000E+00  0.0000E+00  0.1600E+02  0.1600E+02
     -6.988  0.0000E+00  0.0000E+00  0.1600E+02  0.1600E+02
     -6.844  0.0000E+00  0.0000E+00  0.1600E+02  0.1600E+02
     -6.699  0.0000E+00  0.0000E+00  0.1600E+02  0.1600E+02
     -6.555  0.0000E+00  0.0000E+00  0.1600E+02  0.1600E+02
     -6.410  0.0000E+00  0.0000E+00  0.1600E+02  0.1600E+02
     -6.265  0.0000E+00  0.0000E+00  0.1600E+02  0.1600E+02
     -6.121  0.0000E+00  0.0000E+00  0.1600E+02  0.1600E+02
     -5.976  0.0000E+00  0.0000E+00  0.1600E+02  0.1600E+02
     -5.832  0.5814E-04  0.5863E-04  0.1600E+02  0.1600E+02
     -5.687  0.1056E-02  0.1065E-02  0.1600E+02  0.1600E+02
     -5.543  0.1836E-01  0.1851E-01  0.1600E+02  0.1600E+02
     -5.398  0.2174E+00  0.2186E+00  0.1603E+02  0.1603E+02
     -5.254  0.6844E+00  0.6854E+00  0.1613E+02  0.1613E+02
     -5.109  0.8345E+00  0.8343E+00  0.1625E+02  0.1625E+02
     -4.964  0.8913E+00  0.8915E+00  0.1638E+02  0.1638E+02
     -4.820  0.8169E+00  0.8164E+00  0.1650E+02  0.1650E+02
     -4.675  0.8663E+00  0.8671E+00  0.1663E+02  0.1663E+02
     -4.531  0.9557E+00  0.9549E+00  0.1677E+02  0.1677E+02
     -4.386  0.6556E+00  0.6559E+00  0.1686E+02  0.1686E+02
     -4.242  0.1161E+01  0.1161E+01  0.1703E+02  0.1703E+02
     -4.097  0.1106E+01  0.1102E+01  0.1719E+02  0.1719E+02
     -3.952  0.1497E+01  0.1496E+01  0.1740E+02  0.1740E+02
     -3.808  0.1852E+01  0.1852E+01  0.1767E+02  0.1767E+02
     -3.663  0.1873E+01  0.1872E+01  0.1794E+02  0.1794E+02
     -3.519  0.1574E+01  0.1575E+01  0.1817E+02  0.1817E+02
     -3.374  0.1728E+01  0.1727E+01  0.1842E+02  0.1842E+02
     -3.230  0.2146E+01  0.2149E+01  0.1873E+02  0.1873E+02
     -3.085  0.1637E+01  0.1635E+01  0.1897E+02  0.1897E+02
     -2.941  0.2381E+01  0.2383E+01  0.1932E+02  0.1932E+02
     -2.796  0.3302E+01  0.3306E+01  0.1979E+02  0.1979E+02
     -2.651  0.3707E+01  0.3706E+01  0.2033E+02  0.2033E+02
     -2.507  0.3212E+01  0.3209E+01  0.2079E+02  0.2079E+02
     -2.362  0.2662E+01  0.2662E+01  0.2118E+02  0.2118E+02
     -2.218  0.2107E+01  0.2107E+01  0.2149E+02  0.2149E+02
     -2.073  0.1159E+01  0.1158E+01  0.2165E+02  0.2165E+02
     -1.929  0.1522E+01  0.1518E+01  0.2188E+02  0.2187E+02
     -1.784  0.1431E+01  0.1436E+01  0.2208E+02  0.2208E+02
     -1.640  0.9418E+00  0.9415E+00  0.2222E+02  0.2222E+02
     -1.495  0.1204E+01  0.1205E+01  0.2239E+02  0.2239E+02
     -1.350  0.2301E+01  0.2303E+01  0.2273E+02  0.2273E+02
     -1.206  0.3995E+01  0.3996E+01  0.2331E+02  0.2331E+02
     -1.061  0.4370E+01  0.4371E+01  0.2394E+02  0.2394E+02
     -0.917  0.3575E+01  0.3573E+01  0.2446E+02  0.2446E+02
     -0.772  0.2536E+01  0.2537E+01  0.2482E+02  0.2482E+02
     -0.628  0.3942E+01  0.3944E+01  0.2539E+02  0.2539E+02
     -0.483  0.4537E+01  0.4532E+01  0.2605E+02  0.2605E+02
     -0.338  0.3638E+01  0.3642E+01  0.2658E+02  0.2658E+02
     -0.194  0.2673E+01  0.2674E+01  0.2697E+02  0.2697E+02
     -0.049  0.1238E+01  0.1237E+01  0.2715E+02  0.2715E+02
      0.095  0.1580E+01  0.1578E+01  0.2737E+02  0.2737E+02
      0.240  0.2689E+01  0.2689E+01  0.2776E+02  0.2776E+02
      0.384  0.1881E+01  0.1882E+01  0.2804E+02  0.2804E+02
      0.529  0.1980E+01  0.1979E+01  0.2832E+02  0.2832E+02
      0.673  0.2935E+01  0.2932E+01  0.2875E+02  0.2875E+02
      0.818  0.3216E+01  0.3216E+01  0.2921E+02  0.2921E+02
      0.963  0.5241E+01  0.5240E+01  0.2997E+02  0.2997E+02
      1.107  0.5269E+01  0.5272E+01  0.3073E+02  0.3073E+02
      1.252  0.5125E+01  0.5124E+01  0.3148E+02  0.3148E+02
      1.396  0.5659E+01  0.5661E+01  0.3230E+02  0.3230E+02
      1.541  0.5085E+01  0.5081E+01  0.3303E+02  0.3303E+02
      1.685  0.5330E+01  0.5330E+01  0.3380E+02  0.3380E+02
      1.830  0.5576E+01  0.5575E+01  0.3461E+02  0.3461E+02
      1.975  0.6505E+01  0.6503E+01  0.3555E+02  0.3555E+02
      2.119  0.6313E+01  0.6317E+01  0.3647E+02  0.3647E+02
      2.264  0.4835E+01  0.4834E+01  0.3717E+02  0.3717E+02
      2.408  0.3669E+01  0.3665E+01  0.3770E+02  0.3770E+02
      2.553  0.4159E+01  0.4160E+01  0.3830E+02  0.3830E+02
      2.697  0.4445E+01  0.4445E+01  0.3895E+02  0.3895E+02
      2.842  0.4096E+01  0.4093E+01  0.3954E+02  0.3954E+02
      2.986  0.4849E+01  0.4850E+01  0.4024E+02  0.4024E+02
      3.131  0.4946E+01  0.4947E+01  0.4096E+02  0.4096E+02
      3.276  0.5526E+01  0.5526E+01  0.4176E+02  0.4176E+02
      3.420  0.7563E+01  0.7565E+01  0.4285E+02  0.4285E+02
      3.565  0.6829E+01  0.6831E+01  0.4384E+02  0.4384E+02
      3.709  0.5935E+01  0.5931E+01  0.4470E+02  0.4470E+02
      3.854  0.7066E+01  0.7067E+01  0.4572E+02  0.4572E+02
      3.998  0.7228E+01  0.7234E+01  0.4677E+02  0.4677E+02
      4.143  0.6692E+01  0.6686E+01  0.4774E+02  0.4774E+02
      4.288  0.6643E+01  0.6643E+01  0.4870E+02  0.4870E+02
      4.432  0.5779E+01  0.5822E+01  0.4954E+02  0.4955E+02
      4.577  0.5779E+01  0.5841E+01  0.5038E+02  0.5039E+02
      4.721  0.3828E+01  0.3970E+01  0.5093E+02  0.5097E+02
      4.866  0.3078E+01  0.3058E+01  0.5138E+02  0.5141E+02
      5.010  0.2574E+01  0.2429E+01  0.5175E+02  0.5176E+02
      5.155  0.1329E+01  0.1199E+01  0.5195E+02  0.5194E+02
      5.299  0.3319E+00  0.3452E+00  0.5199E+02  0.5199E+02
      5.444  0.3210E-01  0.6866E-01  0.5200E+02  0.5200E+02
      5.589  0.1319E-02  0.8150E-02  0.5200E+02  0.5200E+02
      5.733  0.0000E+00  0.4503E-03  0.5200E+02  0.5200E+02
      5.878  0.0000E+00  0.0000E+00  0.5200E+02  0.5200E+02
      6.022  0.0000E+00  0.0000E+00  0.5200E+02  0.5200E+02
      6.167  0.0000E+00  0.0000E+00  0.5200E+02  0.5200E+02
      6.311  0.0000E+00  0.0000E+00  0.5200E+02  0.5200E+02
      6.456  0.0000E+00  0.0000E+00  0.5200E+02  0.5200E+02
      6.600  0.0000E+00  0.0000E+00  0.5200E+02  0.5200E+02
      6.745  0.0000E+00  0.0000E+00  0.5200E+02  0.5200E+02
      6.890  0.0000E+00  0.0000E+00  0.5200E+02  0.5200E+02
      7.034  0.0000E+00  0.0000E+00  0.5200E+02  0.5200E+02
      7.179  0.0000E+00  0.0000E+00  0.5200E+02  0.5200E+02
      7.323  0.0000E+00  0.0000E+00  0.5200E+02  0.5200E+02
      7.32329271    -36.04513485  301      2.48307063      1.00000000
    -36.045  0.0000E+00  0.0000E+00  0.0000E+00  0.0000E+00  0.0000E+00  0.0000E+00  0.0000E+00  0.0000E+00  0.0000E+00  0.0000E+00  0.0000E+00  0.0000E+00  0.0000E+00  0.0000E+00  0.0000E+00  0.0000E+00  0.0000E+00  0.0000E+00
    -35.901  0.0000E+00  0.0000E+00  0.0000E+00  0.0000E+00  0.0000E+00  0.0000E+00  0.0000E+00  0.0000E+00  0.0000E+00  0.0000E+00  0.0000E+00  0.0000E+00  0.0000E+00  0.0000E+00  0.0000E+00  0.0000E+00  0.0000E+00  0.0000E+00
    -35.756  0.0000E+00  0.0000E+00  0.0000E+00  0.0000E+00  0.0000E+00  0.0000E+00  0.0000E+00  0.0000E+00  0.0000E+00  0.0000E+00  0.0000E+00  0.0000E+00  0.0000E+00  0.0000E+00  0.0000E+00  0.0000E+00  0.0000E+00  0.0000E+00
    -35.611  0.0000E+00  0.0000E+00  0.0000E+00  0.0000E+00  0.0000E+00  0.0000E+00  0.0000E+00  0.0000E+00  0.0000E+00  0.0000E+00  0.0000E+00  0.0000E+00  0.0000E+00  0.0000E+00  0.0000E+00  0.0000E+00  0.0000E+00  0.0000E+00
    -35.467  0.0000E+00  0.0000E+00  0.0000E+00  0.0000E+00  0.0000E+00  0.0000E+00  0.0000E+00  0.0000E+00  0.0000E+00  0.0000E+00  0.0000E+00  0.0000E+00  0.0000E+00  0.0000E+00  0.0000E+00  0.0000E+00  0.0000E+00  0.0000E+00
    -35.322  0.0000E+00  0.0000E+00  0.0000E+00  0.0000E+00  0.0000E+00  0.0000E+00  0.0000E+00  0.0000E+00  0.0000E+00  0.0000E+00  0.0000E+00  0.0000E+00  0.0000E+00  0.0000E+00  0.0000E+00  0.0000E+00  0.0000E+00  0.0000E+00
    -35.178  0.0000E+00  0.0000E+00  0.0000E+00  0.0000E+00  0.0000E+00  0.0000E+00  0.0000E+00  0.0000E+00  0.0000E+00  0.0000E+00  0.0000E+00  0.0000E+00  0.0000E+00  0.0000E+00  0.0000E+00  0.0000E+00  0.0000E+00  0.0000E+00
    -35.033  0.0000E+00  0.0000E+00  0.0000E+00  0.0000E+00  0.0000E+00  0.0000E+00  0.0000E+00  0.0000E+00  0.0000E+00  0.0000E+00  0.0000E+00  0.0000E+00  0.0000E+00  0.0000E+00  0.0000E+00  0.0000E+00  0.0000E+00  0.0000E+00
    -34.889  0.0000E+00  0.0000E+00  0.0000E+00  0.0000E+00  0.0000E+00  0.0000E+00  0.0000E+00  0.0000E+00  0.0000E+00  0.0000E+00  0.0000E+00  0.0000E+00  0.0000E+00  0.0000E+00  0.0000E+00  0.0000E+00  0.0000E+00  0.0000E+00
    -34.744  0.0000E+00  0.0000E+00  0.0000E+00  0.0000E+00  0.0000E+00  0.0000E+00  0.0000E+00  0.0000E+00  0.0000E+00  0.0000E+00  0.0000E+00  0.0000E+00  0.0000E+00  0.0000E+00  0.0000E+00  0.0000E+00  0.0000E+00  0.0000E+00
    -34.600  0.1725E-03  0.1725E-03  0.3003E-11  0.3039E-11  0.1209E-10  0.1177E-10  0.3003E-11  0.3039E-11  0.1869E-16  0.3092E-16  0.1625E-15  0.1706E-15  0.8588E-10  0.8566E-10  0.1625E-15  0.1706E-15  0.1827E-11  0.1813E-11
    -34.455  0.2934E-02  0.2934E-02  0.5107E-10  0.5169E-10  0.2056E-09  0.2003E-09  0.5107E-10  0.5169E-10  0.3178E-15  0.5259E-15  0.2764E-14  0.2901E-14  0.1461E-08  0.1457E-08  0.2764E-14  0.2901E-14  0.3108E-10  0.3084E-10
    -34.310  0.5242E-01  0.5243E-01  0.9125E-09  0.9236E-09  0.3674E-08  0.3578E-08  0.9125E-09  0.9236E-09  0.5679E-14  0.9398E-14  0.4939E-13  0.5183E-13  0.2610E-07  0.2603E-07  0.4939E-13  0.5183E-13  0.5553E-09  0.5511E-09
    -34.166  0.8223E+00  0.8224E+00  0.1431E-07  0.1449E-07  0.5763E-07  0.5613E-07  0.1431E-07  0.1449E-07  0.8913E-13  0.1478E-12  0.7749E-12  0.8123E-12  0.4091E-06  0.4081E-06  0.7749E-12  0.8123E-12  0.8712E-08  0.8646E-08
    -34.021  0.4057E+01  0.4056E+01  0.7060E-07  0.7146E-07  0.2844E-06  0.2769E-06  0.7060E-07  0.7146E-07  0.4408E-12  0.7380E-12  0.3825E-11  0.3986E-11  0.2011E-05  0.2006E-05  0.3825E-11  0.3986E-11  0.4300E-07  0.4267E-07
    -33.877  0.1704E+01  0.1704E+01  0.2965E-07  0.3000E-07  0.1195E-06  0.1163E-06  0.2965E-07  0.3000E-07  0.1857E-12  0.3146E-12  0.1608E-11  0.1664E-11  0.8413E-06  0.8390E-06  0.1608E-11  0.1664E-11  0.1806E-07  0.1792E-07
    -33.732  0.1298E+00  0.1297E+00  0.2257E-08  0.2284E-08  0.9099E-08  0.8860E-08  0.2257E-08  0.2284E-08  0.1415E-13  0.2407E-13  0.1225E-12  0.1265E-12  0.6399E-07  0.6381E-07  0.1225E-12  0.1265E-12  0.1375E-08  0.1364E-08
    -33.588  0.0000E+00  0.0000E+00  0.0000E+00  0.0000E+00  0.0000E+00  0.0000E+00  0.0000E+00  0.0000E+00  0.0000E+00  0.0000E+00  0.0000E+00  0.0000E+00  0.0000E+00  0.0000E+00  0.0000E+00  0.0000E+00  0.0000E+00  0.0000E+00
    -33.443  0.0000E+00  0.0000E+00  0.0000E+00  0.0000E+00  0.0000E+00  0.0000E+00  0.0000E+00  0.0000E+00  0.0000E+00  0.0000E+00  0.0000E+00  0.0000E+00  0.0000E+00  0.0000E+00  0.0000E+00  0.0000E+00  0.0000E+00  0.0000E+00
    -33.298  0.0000E+00  0.0000E+00  0.0000E+00  0.0000E+00  0.0000E+00  0.0000E+00  0.0000E+00  0.0000E+00  0.0000E+00  0.0000E+00  0.0000E+00  0.0000E+00  0.0000E+00  0.0000E+00  0.0000E+00  0.0000E+00  0.0000E+00  0.0000E+00
    -33.154  0.0000E+00  0.0000E+00  0.0000E+00  0.0000E+00  0.0000E+00  0.0000E+00  0.0000E+00  0.0000E+00  0.0000E+00  0.0000E+00  0.0000E+00  0.0000E+00  0.0000E+00  0.0000E+00  0.0000E+00  0.0000E+00  0.0000E+00  0.0000E+00
    -33.009  0.0000E+00  0.0000E+00  0.0000E+00  0.0000E+00  0.0000E+00  0.0000E+00  0.0000E+00  0.0000E+00  0.0000E+00  0.0000E+00  0.0000E+00  0.0000E+00  0.0000E+00  0.0000E+00  0.0000E+00  0.0000E+00  0.0000E+00  0.0000E+00
    -32.865  0.0000E+00  0.0000E+00  0.0000E+00  0.0000E+00  0.0000E+00  0.0000E+00  0.0000E+00  0.0000E+00  0.0000E+00  0.0000E+00  0.0000E+00  0.0000E+00  0.0000E+00  0.0000E+00  0.0000E+00  0.0000E+00  0.0000E+00  0.0000E+00
    -32.720  0.0000E+00  0.0000E+00  0.0000E+00  0.0000E+00  0.0000E+00  0.0000E+00  0.0000E+00  0.0000E+00  0.0000E+00  0.0000E+00  0.0000E+00  0.0000E+00  0.0000E+00  0.0000E+00  0.0000E+00  0.0000E+00  0.0000E+00  0.0000E+00
    -32.576  0.0000E+00  0.0000E+00  0.0000E+00  0.0000E+00  0.0000E+00  0.0000E+00  0.0000E+00  0.0000E+00  0.0000E+00  0.0000E+00  0.0000E+00  0.0000E+00  0.0000E+00  0.0000E+00  0.0000E+00  0.0000E+00  0.0000E+00  0.0000E+00
    -32.431  0.0000E+00  0.0000E+00  0.0000E+00  0.0000E+00  0.0000E+00  0.0000E+00  0.0000E+00  0.0000E+00  0.0000E+00  0.0000E+00  0.0000E+00  0.0000E+00  0.0000E+00  0.0000E+00  0.0000E+00  0.0000E+00  0.0000E+00  0.0000E+00
    -32.287  0.0000E+00  0.0000E+00  0.0000E+00  0.0000E+00  0.0000E+00  0.0000E+00  0.0000E+00  0.0000E+00  0.0000E+00  0.0000E+00  0.0000E+00  0.0000E+00  0.0000E+00  0.0000E+00  0.0000E+00  0.0000E+00  0.0000E+00  0.0000E+00
    -32.142  0.0000E+00  0.0000E+00  0.0000E+00  0.0000E+00  0.0000E+00  0.0000E+00  0.0000E+00  0.0000E+00  0.0000E+00  0.0000E+00  0.0000E+00  0.0000E+00  0.0000E+00  0.0000E+00  0.0000E+00  0.0000E+00  0.0000E+00  0.0000E+00
    -31.997  0.0000E+00  0.0000E+00  0.0000E+00  0.0000E+00  0.0000E+00  0.0000E+00  0.0000E+00  0.0000E+00  0.0000E+00  0.0000E+00  0.0000E+00  0.0000E+00  0.0000E+00  0.0000E+00  0.0000E+00  0.0000E+00  0.0000E+00  0.0000E+00
    -31.853  0.0000E+00  0.0000E+00  0.0000E+00  0.0000E+00  0.0000E+00  0.0000E+00  0.0000E+00  0.0000E+00  0.0000E+00  0.0000E+00  0.0000E+00  0.0000E+00  0.0000E+00  0.0000E+00  0.0000E+00  0.0000E+00  0.0000E+00  0.0000E+00
    -31.708  0.0000E+00  0.0000E+00  0.0000E+00  0.0000E+00  0.0000E+00  0.0000E+00  0.0000E+00  0.0000E+00  0.0000E+00  0.0000E+00  0.0000E+00  0.0000E+00  0.0000E+00  0.0000E+00  0.0000E+00  0.0000E+00  0.0000E+00  0.0000E+00
    -31.564  0.0000E+00  0.0000E+00  0.0000E+00  0.0000E+00  0.0000E+00  0.0000E+00  0.0000E+00  0.0000E+00  0.0000E+00  0.0000E+00  0.0000E+00  0.0000E+00  0.0000E+00  0.0000E+00  0.0000E+00  0.0000E+00  0.0000E+00  0.0000E+00
    -31.419  0.0000E+00  0.0000E+00  0.0000E+00  0.0000E+00  0.0000E+00  0.0000E+00  0.0000E+00  0.0000E+00  0.0000E+00  0.0000E+00  0.0000E+00  0.0000E+00  0.0000E+00  0.0000E+00  0.0000E+00  0.0000E+00  0.0000E+00  0.0000E+00
    -31.275  0.0000E+00  0.0000E+00  0.0000E+00  0.0000E+00  0.0000E+00  0.0000E+00  0.0000E+00  0.0000E+00  0.0000E+00  0.0000E+00  0.0000E+00  0.0000E+00  0.0000E+00  0.0000E+00  0.0000E+00  0.0000E+00  0.0000E+00  0.0000E+00
    -31.130  0.0000E+00  0.0000E+00  0.0000E+00  0.0000E+00  0.0000E+00  0.0000E+00  0.0000E+00  0.0000E+00  0.0000E+00  0.0000E+00  0.0000E+00  0.0000E+00  0.0000E+00  0.0000E+00  0.0000E+00  0.0000E+00  0.0000E+00  0.0000E+00
    -30.985  0.0000E+00  0.0000E+00  0.0000E+00  0.0000E+00  0.0000E+00  0.0000E+00  0.0000E+00  0.0000E+00  0.0000E+00  0.0000E+00  0.0000E+00  0.0000E+00  0.0000E+00  0.0000E+00  0.0000E+00  0.0000E+00  0.0000E+00  0.0000E+00
    -30.841  0.0000E+00  0.0000E+00  0.0000E+00  0.0000E+00  0.0000E+00  0.0000E+00  0.0000E+00  0.0000E+00  0.0000E+00  0.0000E+00  0.0000E+00  0.0000E+00  0.0000E+00  0.0000E+00  0.0000E+00  0.0000E+00  0.0000E+00  0.0000E+00
    -30.696  0.0000E+00  0.0000E+00  0.0000E+00  0.0000E+00  0.0000E+00  0.0000E+00  0.0000E+00  0.0000E+00  0.0000E+00  0.0000E+00  0.0000E+00  0.0000E+00  0.0000E+00  0.0000E+00  0.0000E+00  0.0000E+00  0.0000E+00  0.0000E+00
    -30.552  0.0000E+00  0.0000E+00  0.0000E+00  0.0000E+00  0.0000E+00  0.0000E+00  0.0000E+00  0.0000E+00  0.0000E+00  0.0000E+00  0.0000E+00  0.0000E+00  0.0000E+00  0.0000E+00  0.0000E+00  0.0000E+00  0.0000E+00  0.0000E+00
    -30.407  0.0000E+00  0.0000E+00  0.0000E+00  0.0000E+00  0.0000E+00  0.0000E+00  0.0000E+00  0.0000E+00  0.0000E+00  0.0000E+00  0.0000E+00  0.0000E+00  0.0000E+00  0.0000E+00  0.0000E+00  0.0000E+00  0.0000E+00  0.0000E+00
    -30.263  0.0000E+00  0.0000E+00  0.0000E+00  0.0000E+00  0.0000E+00  0.0000E+00  0.0000E+00  0.0000E+00  0.0000E+00  0.0000E+00  0.0000E+00  0.0000E+00  0.0000E+00  0.0000E+00  0.0000E+00  0.0000E+00  0.0000E+00  0.0000E+00
    -30.118  0.0000E+00  0.0000E+00  0.0000E+00  0.0000E+00  0.0000E+00  0.0000E+00  0.0000E+00  0.0000E+00  0.0000E+00  0.0000E+00  0.0000E+00  0.0000E+00  0.0000E+00  0.0000E+00  0.0000E+00  0.0000E+00  0.0000E+00  0.0000E+00
    -29.974  0.0000E+00  0.0000E+00  0.0000E+00  0.0000E+00  0.0000E+00  0.0000E+00  0.0000E+00  0.0000E+00  0.0000E+00  0.0000E+00  0.0000E+00  0.0000E+00  0.0000E+00  0.0000E+00  0.0000E+00  0.0000E+00  0.0000E+00  0.0000E+00
    -29.829  0.0000E+00  0.0000E+00  0.0000E+00  0.0000E+00  0.0000E+00  0.0000E+00  0.0000E+00  0.0000E+00  0.0000E+00  0.0000E+00  0.0000E+00  0.0000E+00  0.0000E+00  0.0000E+00  0.0000E+00  0.0000E+00  0.0000E+00  0.0000E+00
    -29.684  0.0000E+00  0.0000E+00  0.0000E+00  0.0000E+00  0.0000E+00  0.0000E+00  0.0000E+00  0.0000E+00  0.0000E+00  0.0000E+00  0.0000E+00  0.0000E+00  0.0000E+00  0.0000E+00  0.0000E+00  0.0000E+00  0.0000E+00  0.0000E+00
    -29.540  0.0000E+00  0.0000E+00  0.0000E+00  0.0000E+00  0.0000E+00  0.0000E+00  0.0000E+00  0.0000E+00  0.0000E+00  0.0000E+00  0.0000E+00  0.0000E+00  0.0000E+00  0.0000E+00  0.0000E+00  0.0000E+00  0.0000E+00  0.0000E+00
    -29.395  0.0000E+00  0.0000E+00  0.0000E+00  0.0000E+00  0.0000E+00  0.0000E+00  0.0000E+00  0.0000E+00  0.0000E+00  0.0000E+00  0.0000E+00  0.0000E+00  0.0000E+00  0.0000E+00  0.0000E+00  0.0000E+00  0.0000E+00  0.0000E+00
    -29.251  0.0000E+00  0.0000E+00  0.0000E+00  0.0000E+00  0.0000E+00  0.0000E+00  0.0000E+00  0.0000E+00  0.0000E+00  0.0000E+00  0.0000E+00  0.0000E+00  0.0000E+00  0.0000E+00  0.0000E+00  0.0000E+00  0.0000E+00  0.0000E+00
    -29.106  0.0000E+00  0.0000E+00  0.0000E+00  0.0000E+00  0.0000E+00  0.0000E+00  0.0000E+00  0.0000E+00  0.0000E+00  0.0000E+00  0.0000E+00  0.0000E+00  0.0000E+00  0.0000E+00  0.0000E+00  0.0000E+00  0.0000E+00  0.0000E+00
    -28.962  0.0000E+00  0.0000E+00  0.0000E+00  0.0000E+00  0.0000E+00  0.0000E+00  0.0000E+00  0.0000E+00  0.0000E+00  0.0000E+00  0.0000E+00  0.0000E+00  0.0000E+00  0.0000E+00  0.0000E+00  0.0000E+00  0.0000E+00  0.0000E+00
    -28.817  0.0000E+00  0.0000E+00  0.0000E+00  0.0000E+00  0.0000E+00  0.0000E+00  0.0000E+00  0.0000E+00  0.0000E+00  0.0000E+00  0.0000E+00  0.0000E+00  0.0000E+00  0.0000E+00  0.0000E+00  0.0000E+00  0.0000E+00  0.0000E+00