  16  16   1   0
  0.2161091E+02  0.3733602E-09  0.3733602E-09  0.2480486E-08  0.5000000E-15
  1.000000000000000E-004
  CAR 
 unknown system                          
     11.31156914    -31.81331187  301      5.40624658      1.00000000
    -31.813  0.0000E+00  0.0000E+00  0.0000E+00  0.0000E+00
    -31.670  0.0000E+00  0.0000E+00  0.0000E+00  0.0000E+00
    -31.526  0.0000E+00  0.0000E+00  0.0000E+00  0.0000E+00
    -31.382  0.0000E+00  0.0000E+00  0.0000E+00  0.0000E+00
    -31.238  0.0000E+00  0.0000E+00  0.0000E+00  0.0000E+00
    -31.095  0.0000E+00  0.0000E+00  0.0000E+00  0.0000E+00
    -30.951  0.0000E+00  0.0000E+00  0.0000E+00  0.0000E+00
    -30.807  0.0000E+00  0.0000E+00  0.0000E+00  0.0000E+00
    -30.663  0.0000E+00  0.0000E+00  0.0000E+00  0.0000E+00
    -30.520  0.0000E+00  0.0000E+00  0.0000E+00  0.0000E+00
    -30.376  0.1859E-03  0.1860E-03  0.2673E-04  0.2673E-04
    -30.232  0.8060E-02  0.8063E-02  0.1185E-02  0.1186E-02
    -30.088  0.1371E+00  0.1372E+00  0.2090E-01  0.2090E-01
    -29.945  0.2210E+01  0.2210E+01  0.3386E+00  0.3387E+00
    -29.801  0.1464E+02  0.1464E+02  0.2443E+01  0.2443E+01
    -29.657  0.9840E+01  0.9838E+01  0.3857E+01  0.3857E+01
    -29.513  0.9358E+00  0.9356E+00  0.3992E+01  0.3992E+01
    -29.370  0.0000E+00  0.0000E+00  0.4000E+01  0.4000E+01
    -29.226  0.0000E+00  0.0000E+00  0.4000E+01  0.4000E+01
    -29.082  0.0000E+00  0.0000E+00  0.4000E+01  0.4000E+01
    -28.938  0.0000E+00  0.0000E+00  0.4000E+01  0.4000E+01
    -28.795  0.0000E+00  0.0000E+00  0.4000E+01  0.4000E+01
    -28.651  0.0000E+00  0.0000E+00  0.4000E+01  0.4000E+01
    -28.507  0.0000E+00  0.0000E+00  0.4000E+01  0.4000E+01
    -28.363  0.0000E+00  0.0000E+00  0.4000E+01  0.4000E+01
    -28.220  0.0000E+00  0.0000E+00  0.4000E+01  0.4000E+01
    -28.076  0.0000E+00  0.0000E+00  0.4000E+01  0.4000E+01
    -27.932  0.0000E+00  0.0000E+00  0.4000E+01  0.4000E+01
    -27.788  0.0000E+00  0.0000E+00  0.4000E+01  0.4000E+01
    -27.645  0.0000E+00  0.0000E+00  0.4000E+01  0.4000E+01
    -27.501  0.0000E+00  0.0000E+00  0.4000E+01  0.4000E+01
    -27.357  0.0000E+00  0.0000E+00  0.4000E+01  0.4000E+01
    -27.213  0.0000E+00  0.0000E+00  0.4000E+01  0.4000E+01
    -27.070  0.0000E+00  0.0000E+00  0.4000E+01  0.4000E+01
    -26.926  0.0000E+00  0.0000E+00  0.4000E+01  0.4000E+01
    -26.782  0.0000E+00  0.0000E+00  0.4000E+01  0.4000E+01
    -26.638  0.0000E+00  0.0000E+00  0.4000E+01  0.4000E+01
    -26.495  0.0000E+00  0.0000E+00  0.4000E+01  0.4000E+01
    -26.351  0.0000E+00  0.0000E+00  0.4000E+01  0.4000E+01
    -26.207  0.0000E+00  0.0000E+00  0.4000E+01  0.4000E+01
    -26.063  0.0000E+00  0.0000E+00  0.4000E+01  0.4000E+01
    -25.920  0.0000E+00  0.0000E+00  0.4000E+01  0.4000E+01
    -25.776  0.0000E+00  0.0000E+00  0.4000E+01  0.4000E+01
    -25.632  0.0000E+00  0.0000E+00  0.4000E+01  0.4000E+01
    -25.488  0.0000E+00  0.0000E+00  0.4000E+01  0.4000E+01
    -25.345  0.0000E+00  0.0000E+00  0.4000E+01  0.4000E+01
    -25.201  0.0000E+00  0.0000E+00  0.4000E+01  0.4000E+01
    -25.057  0.0000E+00  0.0000E+00  0.4000E+01  0.4000E+01
    -24.913  0.0000E+00  0.0000E+00  0.4000E+01  0.4000E+01
    -24.770  0.0000E+00  0.0000E+00  0.4000E+01  0.4000E+01
    -24.626  0.0000E+00  0.0000E+00  0.4000E+01  0.4000E+01
    -24.482  0.0000E+00  0.0000E+00  0.4000E+01  0.4000E+01
    -24.338  0.0000E+00  0.0000E+00  0.4000E+01  0.4000E+01
    -24.195  0.0000E+00  0.0000E+00  0.4000E+01  0.4000E+01
    -24.051  0.0000E+00  0.0000E+00  0.4000E+01  0.4000E+01
    -23.907  0.0000E+00  0.0000E+00  0.4000E+01  0.4000E+01
    -23.763  0.0000E+00  0.0000E+00  0.4000E+01  0.4000E+01
    -23.620  0.0000E+00  0.0000E+00  0.4000E+01  0.4000E+01
    -23.476  0.0000E+00  0.0000E+00  0.4000E+01  0.4000E+01
    -23.332  0.0000E+00  0.0000E+00  0.4000E+01  0.4000E+01
    -23.188  0.0000E+00  0.0000E+00  0.4000E+01  0.4000E+01
    -23.045  0.0000E+00  0.0000E+00  0.4000E+01  0.4000E+01
    -22.901  0.0000E+00  0.0000E+00  0.4000E+01  0.4000E+01
    -22.757  0.0000E+00  0.0000E+00  0.4000E+01  0.4000E+01
    -22.613  0.0000E+00  0.0000E+00  0.4000E+01  0.4000E+01
    -22.470  0.0000E+00  0.0000E+00  0.4000E+01  0.4000E+01
    -22.326  0.0000E+00  0.0000E+00  0.4000E+01  0.4000E+01
    -22.182  0.0000E+00  0.0000E+00  0.4000E+01  0.4000E+01
    -22.038  0.0000E+00  0.0000E+00  0.4000E+01  0.4000E+01
    -21.895  0.0000E+00  0.0000E+00  0.4000E+01  0.4000E+01
    -21.751  0.0000E+00  0.0000E+00  0.4000E+01  0.4000E+01
    -21.607  0.0000E+00  0.0000E+00  0.4000E+01  0.4000E+01
    -21.463  0.0000E+00  0.0000E+00  0.4000E+01  0.4000E+01
    -21.320  0.0000E+00  0.0000E+00  0.4000E+01  0.4000E+01
    -21.176  0.0000E+00  0.0000E+00  0.4000E+01  0.4000E+01
    -21.032  0.0000E+00  0.0000E+00  0.4000E+01  0.4000E+01
    -20.888  0.0000E+00  0.0000E+00  0.4000E+01  0.4000E+01
    -20.745  0.0000E+00  0.0000E+00  0.4000E+01  0.4000E+01
    -20.601  0.0000E+00  0.0000E+00  0.4000E+01  0.4000E+01
    -20.457  0.0000E+00  0.0000E+00  0.4000E+01  0.4000E+01
    -20.313  0.0000E+00  0.0000E+00  0.4000E+01  0.4000E+01
    -20.170  0.0000E+00  0.0000E+00  0.4000E+01  0.4000E+01
    -20.026  0.0000E+00  0.0000E+00  0.4000E+01  0.4000E+01
    -19.882  0.0000E+00  0.0000E+00  0.4000E+01  0.4000E+01
    -19.738  0.0000E+00  0.0000E+00  0.4000E+01  0.4000E+01
    -19.595  0.0000E+00  0.0000E+00  0.4000E+01  0.4000E+01
    -19.451  0.0000E+00  0.0000E+00  0.4000E+01  0.4000E+01
    -19.307  0.0000E+00  0.0000E+00  0.4000E+01  0.4000E+01
    -19.163  0.0000E+00  0.0000E+00  0.4000E+01  0.4000E+01
    -19.020  0.0000E+00  0.0000E+00  0.4000E+01  0.4000E+01
    -18.876  0.0000E+00  0.0000E+00  0.4000E+01  0.4000E+01
    -18.732  0.0000E+00  0.0000E+00  0.4000E+01  0.4000E+01
    -18.588  0.0000E+00  0.0000E+00  0.4000E+01  0.4000E+01
    -18.445  0.0000E+00  0.0000E+00  0.4000E+01  0.4000E+01
    -18.301  0.0000E+00  0.0000E+00  0.4000E+01  0.4000E+01
    -18.157  0.0000E+00  0.0000E+00  0.4000E+01  0.4000E+01
    -18.013  0.0000E+00  0.0000E+00  0.4000E+01  0.4000E+01
    -17.870  0.0000E+00  0.0000E+00  0.4000E+01  0.4000E+01
    -17.726  0.0000E+00  0.0000E+00  0.4000E+01  0.4000E+01
    -17.582  0.0000E+00  0.0000E+00  0.4000E+01  0.4000E+01
    -17.438  0.0000E+00  0.0000E+00  0.4000E+01  0.4000E+01
    -17.295  0.0000E+00  0.0000E+00  0.4000E+01  0.4000E+01
    -17.151  0.0000E+00  0.0000E+00  0.4000E+01  0.4000E+01
    -17.007  0.0000E+00  0.0000E+00  0.4000E+01  0.4000E+01
    -16.863  0.0000E+00  0.0000E+00  0.4000E+01  0.4000E+01
    -16.720  0.0000E+00  0.0000E+00  0.4000E+01  0.4000E+01
    -16.576  0.0000E+00  0.0000E+00  0.4000E+01  0.4000E+01
    -16.432  0.0000E+00  0.0000E+00  0.4000E+01  0.4000E+01
    -16.288  0.0000E+00  0.0000E+00  0.4000E+01  0.4000E+01
    -16.145  0.0000E+00  0.0000E+00  0.4000E+01  0.4000E+01
    -16.001  0.0000E+00  0.0000E+00  0.4000E+01  0.4000E+01
    -15.857  0.0000E+00  0.0000E+00  0.4000E+01  0.4000E+01
    -15.713  0.0000E+00  0.0000E+00  0.4000E+01  0.4000E+01
    -15.570  0.0000E+00  0.0000E+00  0.4000E+01  0.4000E+01
    -15.426  0.0000E+00  0.0000E+00  0.4000E+01  0.4000E+01
    -15.282  0.0000E+00  0.0000E+00  0.4000E+01  0.4000E+01
    -15.138  0.0000E+00  0.0000E+00  0.4000E+01  0.4000E+01
    -14.995  0.0000E+00  0.0000E+00  0.4000E+01  0.4000E+01
    -14.851  0.0000E+00  0.0000E+00  0.4000E+01  0.4000E+01
    -14.707  0.0000E+00  0.0000E+00  0.4000E+01  0.4000E+01
    -14.563  0.0000E+00  0.0000E+00  0.4000E+01  0.4000E+01
    -14.420  0.0000E+00  0.0000E+00  0.4000E+01  0.4000E+01
    -14.276  0.0000E+00  0.0000E+00  0.4000E+01  0.4000E+01
    -14.132  0.0000E+00  0.0000E+00  0.4000E+01  0.4000E+01
    -13.988  0.0000E+00  0.0000E+00  0.4000E+01  0.4000E+01
    -13.845  0.0000E+00  0.0000E+00  0.4000E+01  0.4000E+01
    -13.701  0.0000E+00  0.0000E+00  0.4000E+01  0.4000E+01
    -13.557  0.0000E+00  0.0000E+00  0.4000E+01  0.4000E+01
    -13.413  0.0000E+00  0.0000E+00  0.4000E+01  0.4000E+01
    -13.270  0.0000E+00  0.0000E+00  0.4000E+01  0.4000E+01
    -13.126  0.0000E+00  0.0000E+00  0.4000E+01  0.4000E+01
    -12.982  0.0000E+00  0.0000E+00  0.4000E+01  0.4000E+01
    -12.838  0.0000E+00  0.0000E+00  0.4000E+01  0.4000E+01
    -12.695  0.2661E-03  0.2650E-03  0.4000E+01  0.4000E+01
    -12.551  0.6649E-02  0.6622E-02  0.4001E+01  0.4001E+01
    -12.407  0.1180E+00  0.1175E+00  0.4018E+01  0.4018E+01
    -12.263  0.1813E+01  0.1806E+01  0.4279E+01  0.4278E+01
    -12.120  0.1133E+02  0.1132E+02  0.5908E+01  0.5905E+01
    -11.976  0.2205E+02  0.2204E+02  0.9077E+01  0.9073E+01
    -11.832  0.2963E+02  0.2963E+02  0.1334E+02  0.1333E+02
    -11.688  0.1566E+02  0.1567E+02  0.1559E+02  0.1559E+02
    -11.545  0.2599E+01  0.2605E+01  0.1597E+02  0.1597E+02
    -11.401  0.1308E+00  0.1330E+00  0.1600E+02  0.1600E+02
    -11.257  0.0000E+00  0.0000E+00  0.1600E+02  0.1600E+02
    -11.113  0.0000E+00  0.0000E+00  0.1600E+02  0.1600E+02
    -10.970  0.0000E+00  0.0000E+00  0.1600E+02  0.1600E+02
    -10.826  0.0000E+00  0.0000E+00  0.1600E+02  0.1600E+02
    -10.682  0.0000E+00  0.0000E+00  0.1600E+02  0.1600E+02
    -10.538  0.0000E+00  0.0000E+00  0.1600E+02  0.1600E+02
    -10.395  0.0000E+00  0.0000E+00  0.1600E+02  0.1600E+02
    -10.251  0.0000E+00  0.0000E+00  0.1600E+02  0.1600E+02
    -10.107  0.0000E+00  0.0000E+00  0.1600E+02  0.1600E+02
     -9.963  0.0000E+00  0.0000E+00  0.1600E+02  0.1600E+02
     -9.820  0.0000E+00  0.0000E+00  0.1600E+02  0.1600E+02
     -9.676  0.0000E+00  0.0000E+00  0.1600E+02  0.1600E+02
     -9.532  0.0000E+00  0.0000E+00  0.1600E+02  0.1600E+02
     -9.388  0.0000E+00  0.0000E+00  0.1600E+02  0.1600E+02
     -9.245  0.0000E+00  0.0000E+00  0.1600E+02  0.1600E+02
     -9.101  0.0000E+00  0.0000E+00  0.1600E+02  0.1600E+02
     -8.957  0.0000E+00  0.0000E+00  0.1600E+02  0.1600E+02
     -8.813  0.0000E+00  0.0000E+00  0.1600E+02  0.1600E+02
     -8.670  0.0000E+00  0.0000E+00  0.1600E+02  0.1600E+02
     -8.526  0.0000E+00  0.0000E+00  0.1600E+02  0.1600E+02
     -8.382  0.0000E+00  0.0000E+00  0.1600E+02  0.1600E+02
     -8.238  0.0000E+00  0.0000E+00  0.1600E+02  0.1600E+02
     -8.095  0.0000E+00  0.0000E+00  0.1600E+02  0.1600E+02
     -7.951  0.0000E+00  0.0000E+00  0.1600E+02  0.1600E+02
     -7.807  0.0000E+00  0.0000E+00  0.1600E+02  0.1600E+02
     -7.663  0.0000E+00  0.0000E+00  0.1600E+02  0.1600E+02
     -7.520  0.0000E+00  0.0000E+00  0.1600E+02  0.1600E+02
     -7.376  0.0000E+00  0.0000E+00  0.1600E+02  0.1600E+02
     -7.232  0.0000E+00  0.0000E+00  0.1600E+02  0.1600E+02
     -7.088  0.0000E+00  0.0000E+00  0.1600E+02  0.1600E+02
     -6.945  0.0000E+00  0.0000E+00  0.1600E+02  0.1600E+02
     -6.801  0.0000E+00  0.0000E+00  0.1600E+02  0.1600E+02
     -6.657  0.0000E+00  0.0000E+00  0.1600E+02  0.1600E+02
     -6.513  0.0000E+00  0.0000E+00  0.1600E+02  0.1600E+02
     -6.370  0.0000E+00  0.0000E+00  0.1600E+02  0.1600E+02
     -6.226  0.0000E+00  0.0000E+00  0.1600E+02  0.1600E+02
     -6.082  0.0000E+00  0.0000E+00  0.1600E+02  0.1600E+02
     -5.938  0.0000E+00  0.0000E+00  0.1600E+02  0.1600E+02
     -5.795  0.0000E+00  0.0000E+00  0.1600E+02  0.1600E+02
     -5.651  0.0000E+00  0.0000E+00  0.1600E+02  0.1600E+02
     -5.507  0.0000E+00  0.0000E+00  0.1600E+02  0.1600E+02
     -5.363  0.3551E-05  0.3659E-05  0.1600E+02  0.1600E+02
     -5.220  0.1560E-03  0.1607E-03  0.1600E+02  0.1600E+02
     -5.076  0.2704E-02  0.2785E-02  0.1600E+02  0.1600E+02
     -4.932  0.4272E-01  0.4387E-01  0.1601E+02  0.1601E+02
     -4.788  0.3113E+00  0.3153E+00  0.1605E+02  0.1605E+02
     -4.645  0.5478E+00  0.5490E+00  0.1613E+02  0.1613E+02
     -4.501  0.6694E+00  0.6685E+00  0.1623E+02  0.1623E+02
     -4.357  0.5185E+00  0.5200E+00  0.1630E+02  0.1630E+02
     -4.213  0.7473E+00  0.7469E+00  0.1641E+02  0.1641E+02
     -4.070  0.5550E+00  0.5544E+00  0.1649E+02  0.1649E+02
     -3.926  0.5163E+00  0.5167E+00  0.1656E+02  0.1656E+02
     -3.782  0.8003E+00  0.8023E+00  0.1668E+02  0.1668E+02
     -3.638  0.6788E+00  0.6763E+00  0.1678E+02  0.1678E+02
     -3.495  0.3447E+00  0.3422E+00  0.1683E+02  0.1683E+02
     -3.351  0.7193E+00  0.7279E+00  0.1693E+02  0.1693E+02
     -3.207  0.8759E+00  0.8704E+00  0.1706E+02  0.1706E+02
     -3.063  0.5586E+00  0.5565E+00  0.1714E+02  0.1714E+02
     -2.920  0.5477E+00  0.5453E+00  0.1721E+02  0.1722E+02
     -2.776  0.1146E+01  0.1144E+01  0.1738E+02  0.1738E+02
     -2.632  0.1376E+01  0.1372E+01  0.1758E+02  0.1758E+02
     -2.488  0.1271E+01  0.1277E+01  0.1776E+02  0.1776E+02
     -2.345  0.1318E+01  0.1308E+01  0.1795E+02  0.1795E+02
     -2.201  0.1129E+01  0.1134E+01  0.1811E+02  0.1811E+02
     -2.057  0.1018E+01  0.1019E+01  0.1826E+02  0.1826E+02
     -1.913  0.1427E+01  0.1426E+01  0.1846E+02  0.1846E+02
     -1.770  0.1875E+01  0.1876E+01  0.1873E+02  0.1873E+02
     -1.626  0.1100E+01  0.1098E+01  0.1889E+02  0.1889E+02
     -1.482  0.7370E+00  0.7396E+00  0.1900E+02  0.1900E+02
     -1.338  0.1672E+01  0.1668E+01  0.1924E+02  0.1924E+02
     -1.195  0.2398E+01  0.2409E+01  0.1958E+02  0.1959E+02
     -1.051  0.2335E+01  0.2337E+01  0.1992E+02  0.1992E+02
     -0.907  0.1989E+01  0.1984E+01  0.2021E+02  0.2021E+02
     -0.763  0.2649E+01  0.2650E+01  0.2059E+02  0.2059E+02
     -0.620  0.2517E+01  0.2515E+01  0.2095E+02  0.2095E+02
     -0.476  0.1915E+01  0.1907E+01  0.2123E+02  0.2123E+02
     -0.332  0.1612E+01  0.1616E+01  0.2146E+02  0.2146E+02
     -0.188  0.1058E+01  0.1057E+01  0.2161E+02  0.2161E+02
     -0.045  0.8124E+00  0.8100E+00  0.2173E+02  0.2173E+02
      0.099  0.9016E+00  0.8908E+00  0.2186E+02  0.2186E+02
      0.243  0.1100E+01  0.1103E+01  0.2202E+02  0.2201E+02
      0.387  0.7878E+00  0.8009E+00  0.2213E+02  0.2213E+02
      0.530  0.9270E+00  0.9292E+00  0.2226E+02  0.2226E+02
      0.674  0.2030E+01  0.2034E+01  0.2256E+02  0.2256E+02
      0.818  0.2097E+01  0.2101E+01  0.2286E+02  0.2286E+02
      0.962  0.2732E+01  0.2726E+01  0.2325E+02  0.2325E+02
      1.105  0.2793E+01  0.2793E+01  0.2365E+02  0.2365E+02
      1.249  0.1689E+01  0.1687E+01  0.2390E+02  0.2390E+02
      1.393  0.2202E+01  0.2201E+01  0.2421E+02  0.2421E+02
      1.537  0.2555E+01  0.2560E+01  0.2458E+02  0.2458E+02
      1.680  0.2263E+01  0.2267E+01  0.2491E+02  0.2491E+02
      1.824  0.2314E+01  0.2302E+01  0.2524E+02  0.2524E+02
      1.968  0.2602E+01  0.2603E+01  0.2562E+02  0.2561E+02
      2.112  0.2902E+01  0.2900E+01  0.2603E+02  0.2603E+02
      2.255  0.2631E+01  0.2638E+01  0.2641E+02  0.2641E+02
      2.399  0.2843E+01  0.2848E+01  0.2682E+02  0.2682E+02
      2.543  0.3684E+01  0.3689E+01  0.2735E+02  0.2735E+02
      2.687  0.3365E+01  0.3358E+01  0.2784E+02  0.2784E+02
      2.830  0.2571E+01  0.2562E+01  0.2821E+02  0.2821E+02
      2.974  0.2313E+01  0.2303E+01  0.2854E+02  0.2854E+02
      3.118  0.2641E+01  0.2640E+01  0.2892E+02  0.2892E+02
      3.262  0.3446E+01  0.3449E+01  0.2942E+02  0.2941E+02
      3.405  0.3597E+01  0.3594E+01  0.2993E+02  0.2993E+02
      3.549  0.3323E+01  0.3332E+01  0.3041E+02  0.3041E+02
      3.693  0.4130E+01  0.4138E+01  0.3101E+02  0.3101E+02
      3.837  0.4889E+01  0.4881E+01  0.3171E+02  0.3171E+02
      3.980  0.3804E+01  0.3800E+01  0.3226E+02  0.3226E+02
      4.124  0.4086E+01  0.4078E+01  0.3285E+02  0.3285E+02
      4.268  0.4324E+01  0.4323E+01  0.3347E+02  0.3347E+02
      4.412  0.4984E+01  0.4990E+01  0.3419E+02  0.3419E+02
      4.555  0.4556E+01  0.4558E+01  0.3484E+02  0.3484E+02
      4.699  0.3191E+01  0.3195E+01  0.3530E+02  0.3530E+02
      4.843  0.3556E+01  0.3551E+01  0.3582E+02  0.3582E+02
      4.987  0.4346E+01  0.4344E+01  0.3644E+02  0.3644E+02
      5.130  0.4014E+01  0.4015E+01  0.3702E+02  0.3702E+02
      5.274  0.3858E+01  0.3848E+01  0.3758E+02  0.3757E+02
      5.418  0.3208E+01  0.3204E+01  0.3804E+02  0.3803E+02
      5.562  0.3208E+01  0.3205E+01  0.3850E+02  0.3850E+02
      5.705  0.3049E+01  0.3049E+01  0.3894E+02  0.3894E+02
      5.849  0.2990E+01  0.2990E+01  0.3937E+02  0.3937E+02
      5.993  0.4089E+01  0.4092E+01  0.3996E+02  0.3996E+02
      6.137  0.3875E+01  0.3879E+01  0.4052E+02  0.4051E+02
      6.280  0.2826E+01  0.2826E+01  0.4092E+02  0.4092E+02
      6.424  0.3741E+01  0.3736E+01  0.4146E+02  0.4146E+02
      6.568  0.4202E+01  0.4211E+01  0.4207E+02  0.4207E+02
      6.712  0.4370E+01  0.4375E+01  0.4270E+02  0.4270E+02
      6.855  0.5708E+01  0.5710E+01  0.4352E+02  0.4352E+02
      6.999  0.5990E+01  0.5995E+01  0.4438E+02  0.4438E+02
      7.143  0.6542E+01  0.6539E+01  0.4532E+02  0.4532E+02
      7.287  0.6937E+01  0.6930E+01  0.4632E+02  0.4632E+02
      7.430  0.5804E+01  0.5822E+01  0.4716E+02  0.4716E+02
      7.574  0.4592E+01  0.4589E+01  0.4782E+02  0.4782E+02
      7.718  0.3850E+01  0.3841E+01  0.4838E+02  0.4837E+02
      7.862  0.4490E+01  0.4486E+01  0.4902E+02  0.4902E+02
      8.005  0.4189E+01  0.4183E+01  0.4963E+02  0.4962E+02
      8.149  0.2918E+01  0.2937E+01  0.5005E+02  0.5005E+02
      8.293  0.2395E+01  0.2500E+01  0.5039E+02  0.5041E+02
      8.437  0.2163E+01  0.2306E+01  0.5070E+02  0.5074E+02
      8.580  0.2124E+01  0.2254E+01  0.5101E+02  0.5106E+02
      8.724  0.1969E+01  0.2020E+01  0.5129E+02  0.5135E+02
      8.868  0.1806E+01  0.1896E+01  0.5155E+02  0.5163E+02
      9.012  0.1416E+01  0.1253E+01  0.5176E+02  0.5181E+02
      9.155  0.8757E+00  0.7758E+00  0.5188E+02  0.5192E+02
      9.299  0.5904E+00  0.3780E+00  0.5197E+02  0.5198E+02
      9.443  0.1910E+00  0.1465E+00  0.5200E+02  0.5200E+02
      9.587  0.2106E-01  0.2088E-01  0.5200E+02  0.5200E+02
      9.730  0.9947E-03  0.9289E-03  0.5200E+02  0.5200E+02
      9.874  0.0000E+00  0.0000E+00  0.5200E+02  0.5200E+02
     10.018  0.0000E+00  0.0000E+00  0.5200E+02  0.5200E+02
     10.162  0.0000E+00  0.0000E+00  0.5200E+02  0.5200E+02
     10.305  0.0000E+00  0.0000E+00  0.5200E+02  0.5200E+02
     10.449  0.0000E+00  0.0000E+00  0.5200E+02  0.5200E+02
     10.593  0.0000E+00  0.0000E+00  0.5200E+02  0.5200E+02
     10.737  0.0000E+00  0.0000E+00  0.5200E+02  0.5200E+02
     10.880  0.0000E+00  0.0000E+00  0.5200E+02  0.5200E+02
     11.024  0.0000E+00  0.0000E+00  0.5200E+02  0.5200E+02
     11.168  0.0000E+00  0.0000E+00  0.5200E+02  0.5200E+02
     11.312  0.0000E+00  0.0000E+00  0.5200E+02  0.5200E+02
     11.31156914    -31.81331187  301      5.40624658      1.00000000
    -31.813  0.0000E+00  0.0000E+00  0.0000E+00  0.0000E+00  0.0000E+00  0.0000E+00  0.0000E+00  0.0000E+00  0.0000E+00  0.0000E+00  0.0000E+00  0.0000E+00  0.0000E+00  0.0000E+00  0.0000E+00  0.0000E+00  0.0000E+00  0.0000E+00
    -31.670  0.0000E+00  0.0000E+00  0.0000E+00  0.0000E+00  0.0000E+00  0.0000E+00  0.0000E+00  0.0000E+00  0.0000E+00  0.0000E+00  0.0000E+00  0.0000E+00  0.0000E+00  0.0000E+00  0.0000E+00  0.0000E+00  0.0000E+00  0.0000E+00
    -31.526  0.0000E+00  0.0000E+00  0.0000E+00  0.0000E+00  0.0000E+00  0.0000E+00  0.0000E+00  0.0000E+00  0.0000E+00  0.0000E+00  0.0000E+00  0.0000E+00  0.0000E+00  0.0000E+00  0.0000E+00  0.0000E+00  0.0000E+00  0.0000E+00
    -31.382  0.0000E+00  0.0000E+00  0.0000E+00  0.0000E+00  0.0000E+00  0.0000E+00  0.0000E+00  0.0000E+00  0.0000E+00  0.0000E+00  0.0000E+00  0.0000E+00  0.0000E+00  0.0000E+00  0.0000E+00  0.0000E+00  0.0000E+00  0.0000E+00
    -31.238  0.0000E+00  0.0000E+00  0.0000E+00  0.0000E+00  0.0000E+00  0.0000E+00  0.0000E+00  0.0000E+00  0.0000E+00  0.0000E+00  0.0000E+00  0.0000E+00  0.0000E+00  0.0000E+00  0.0000E+00  0.0000E+00  0.0000E+00  0.0000E+00
    -31.095  0.0000E+00  0.0000E+00  0.0000E+00  0.0000E+00  0.0000E+00  0.0000E+00  0.0000E+00  0.0000E+00  0.0000E+00  0.0000E+00  0.0000E+00  0.0000E+00  0.0000E+00  0.0000E+00  0.0000E+00  0.0000E+00  0.0000E+00  0.0000E+00
    -30.951  0.0000E+00  0.0000E+00  0.0000E+00  0.0000E+00  0.0000E+00  0.0000E+00  0.0000E+00  0.0000E+00  0.0000E+00  0.0000E+00  0.0000E+00  0.0000E+00  0.0000E+00  0.0000E+00  0.0000E+00  0.0000E+00  0.0000E+00  0.0000E+00
    -30.807  0.0000E+00  0.0000E+00  0.0000E+00  0.0000E+00  0.0000E+00  0.0000E+00  0.0000E+00  0.0000E+00  0.0000E+00  0.0000E+00  0.0000E+00  0.0000E+00  0.0000E+00  0.0000E+00  0.0000E+00  0.0000E+00  0.0000E+00  0.0000E+00
    -30.663  0.0000E+00  0.0000E+00  0.0000E+00  0.0000E+00  0.0000E+00  0.0000E+00  0.0000E+00  0.0000E+00  0.0000E+00  0.0000E+00  0.0000E+00  0.0000E+00  0.0000E+00  0.0000E+00  0.0000E+00  0.0000E+00  0.0000E+00  0.0000E+00
    -30.520  0.0000E+00  0.0000E+00  0.0000E+00  0.0000E+00  0.0000E+00  0.0000E+00  0.0000E+00  0.0000E+00  0.0000E+00  0.0000E+00  0.0000E+00  0.0000E+00  0.0000E+00  0.0000E+00  0.0000E+00  0.0000E+00  0.0000E+00  0.0000E+00
    -30.376  0.4539E-04  0.4540E-04  0.6030E-10  0.6034E-10  0.1572E-10  0.1646E-10  0.6030E-10  0.6034E-10  0.2969E-14  0.2988E-14  0.1464E-13  0.1505E-13  0.9728E-10  0.9673E-10  0.1464E-13  0.1505E-13  0.1312E-10  0.1307E-10
    -30.232  0.1970E-02  0.1970E-02  0.2738E-08  0.2739E-08  0.6318E-09  0.6609E-09  0.2738E-08  0.2739E-08  0.1737E-12  0.1832E-12  0.6178E-12  0.6227E-12  0.2324E-08  0.2311E-08  0.6178E-12  0.6227E-12  0.1656E-08  0.1651E-08
    -30.088  0.3352E-01  0.3352E-01  0.4654E-07  0.4657E-07  0.1077E-07  0.1126E-07  0.4654E-07  0.4657E-07  0.2939E-11  0.3097E-11  0.1052E-10  0.1061E-10  0.4022E-07  0.3999E-07  0.1052E-10  0.1061E-10  0.2778E-07  0.2769E-07
    -29.945  0.5401E+00  0.5402E+00  0.7518E-06  0.7522E-06  0.1732E-06  0.1812E-06  0.7518E-06  0.7522E-06  0.4763E-10  0.5022E-10  0.1696E-09  0.1710E-09  0.6363E-06  0.6326E-06  0.1696E-09  0.1710E-09  0.4511E-06  0.4496E-06
    -29.801  0.3578E+01  0.3578E+01  0.5021E-05  0.5023E-05  0.1132E-05  0.1184E-05  0.5021E-05  0.5023E-05  0.3233E-09  0.3424E-09  0.1120E-08  0.1125E-08  0.3698E-05  0.3676E-05  0.1120E-08  0.1125E-08  0.3086E-05  0.3075E-05
    -29.657  0.2406E+01  0.2405E+01  0.3357E-05  0.3358E-05  0.7468E-06  0.7805E-06  0.3357E-05  0.3358E-05  0.2175E-09  0.2317E-09  0.7362E-09  0.7360E-09  0.2046E-05  0.2034E-05  0.7362E-09  0.7360E-09  0.2062E-05  0.2054E-05
    -29.513  0.2289E+00  0.2288E+00  0.3163E-06  0.3162E-06  0.7045E-07  0.7360E-07  0.3163E-06  0.3162E-06  0.2039E-10  0.2178E-10  0.6882E-10  0.6864E-10  0.1784E-06  0.1773E-06  0.6882E-10  0.6864E-10  0.1913E-06  0.1906E-06
    -29.370  0.0000E+00  0.0000E+00  0.0000E+00  0.0000E+00  0.0000E+00  0.0000E+00  0.0000E+00  0.0000E+00  0.0000E+00  0.0000E+00  0.0000E+00  0.0000E+00  0.0000E+00  0.0000E+00  0.0000E+00  0.0000E+00  0.0000E+00  0.0000E+00
    -29.226  0.0000E+00  0.0000E+00  0.0000E+00  0.0000E+00  0.0000E+00  0.0000E+00  0.0000E+00  0.0000E+00  0.0000E+00  0.0000E+00  0.0000E+00  0.0000E+00  0.0000E+00  0.0000E+00  0.0000E+00  0.0000E+00  0.0000E+00  0.0000E+00
    -29.082  0.0000E+00  0.0000E+00  0.0000E+00  0.0000E+00  0.0000E+00  0.0000E+00  0.0000E+00  0.0000E+00  0.0000E+00  0.0000E+00  0.0000E+00  0.0000E+00  0.0000E+00  0.0000E+00  0.0000E+00  0.0000E+00  0.0000E+00  0.0000E+00
    -28.938  0.0000E+00  0.0000E+00  0.0000E+00  0.0000E+00  0.0000E+00  0.0000E+00  0.0000E+00  0.0000E+00  0.0000E+00  0.0000E+00  0.0000E+00  0.0000E+00  0.0000E+00  0.0000E+00  0.0000E+00  0.0000E+00  0.0000E+00  0.0000E+00
    -28.795  0.0000E+00  0.0000E+00  0.0000E+00  0.0000E+00  0.0000E+00  0.0000E+00  0.0000E+00  0.0000E+00  0.0000E+00  0.0000E+00  0.0000E+00  0.0000E+00  0.0000E+00  0.0000E+00  0.0000E+00  0.0000E+00  0.0000E+00  0.0000E+00
    -28.651  0.0000E+00  0.0000E+00  0.0000E+00  0.0000E+00  0.0000E+00  0.0000E+00  0.0000E+00  0.0000E+00  0.0000E+00  0.0000E+00  0.0000E+00  0.0000E+00  0.0000E+00  0.0000E+00  0.0000E+00  0.0000E+00  0.0000E+00  0.0000E+00
    -28.507  0.0000E+00  0.0000E+00  0.0000E+00  0.0000E+00  0.0000E+00  0.0000E+00  0.0000E+00  0.0000E+00  0.0000E+00  0.0000E+00  0.0000E+00  0.0000E+00  0.0000E+00  0.0000E+00  0.0000E+00  0.0000E+00  0.0000E+00  0.0000E+00
    -28.363  0.0000E+00  0.0000E+00  0.0000E+00  0.0000E+00  0.0000E+00  0.0000E+00  0.0000E+00  0.0000E+00  0.0000E+00  0.0000E+00  0.0000E+00  0.0000E+00  0.0000E+00  0.0000E+00  0.0000E+00  0.0000E+00  0.0000E+00  0.0000E+00
    -28.220  0.0000E+00  0.0000E+00  0.0000E+00  0.0000E+00  0.0000E+00  0.0000E+00  0.0000E+00  0.0000E+00  0.0000E+00  0.0000E+00  0.0000E+00  0.0000E+00  0.0000E+00  0.0000E+00  0.0000E+00  0.0000E+00  0.0000E+00  0.0000E+00
    -28.076  0.0000E+00  0.0000E+00  0.0000E+00  0.0000E+00  0.0000E+00  0.0000E+00  0.0000E+00  0.0000E+00  0.0000E+00  0.0000E+00  0.0000E+00  0.0000E+00  0.0000E+00  0.0000E+00  0.0000E+00  0.0000E+00  0.0000E+00  0.0000E+00
    -27.932  0.0000E+00  0.0000E+00  0.0000E+00  0.0000E+00  0.0000E+00  0.0000E+00  0.0000E+00  0.0000E+00  0.0000E+00  0.0000E+00  0.0000E+00  0.0000E+00  0.0000E+00  0.0000E+00  0.0000E+00  0.0000E+00  0.0000E+00  0.0000E+00
    -27.788  0.0000E+00  0.0000E+00  0.0000E+00  0.0000E+00  0.0000E+00  0.0000E+00  0.0000E+00  0.0000E+00  0.0000E+00  0.0000E+00  0.0000E+00  0.0000E+00  0.0000E+00  0.0000E+00  0.0000E+00  0.0000E+00  0.0000E+00  0.0000E+00
    -27.645  0.0000E+00  0.0000E+00  0.0000E+00  0.0000E+00  0.0000E+00  0.0000E+00  0.0000E+00  0.0000E+00  0.0000E+00  0.0000E+00  0.0000E+00  0.0000E+00  0.0000E+00  0.0000E+00  0.0000E+00  0.0000E+00  0.0000E+00  0.0000E+00
    -27.501  0.0000E+00  0.0000E+00  0.0000E+00  0.0000E+00  0.0000E+00  0.0000E+00  0.0000E+00  0.0000E+00  0.0000E+00  0.0000E+00  0.0000E+00  0.0000E+00  0.0000E+00  0.0000E+00  0.0000E+00  0.0000E+00  0.0000E+00  0.0000E+00
    -27.357  0.0000E+00  0.0000E+00  0.0000E+00  0.0000E+00  0.0000E+00  0.0000E+00  0.0000E+00  0.0000E+00  0.0000E+00  0.0000E+00  0.0000E+00  0.0000E+00  0.0000E+00  0.0000E+00  0.0000E+00  0.0000E+00  0.0000E+00  0.0000E+00
    -27.213  0.0000E+00  0.0000E+00  0.0000E+00  0.0000E+00  0.0000E+00  0.0000E+00  0.0000E+00  0.0000E+00  0.0000E+00  0.0000E+00  0.0000E+00  0.0000E+00  0.0000E+00  0.0000E+00  0.0000E+00  0.0000E+00  0.0000E+00  0.0000E+00
    -27.070  0.0000E+00  0.0000E+00  0.0000E+00  0.0000E+00  0.0000E+00  0.0000E+00  0.0000E+00  0.0000E+00  0.0000E+00  0.0000E+00  0.0000E+00  0.0000E+00  0.0000E+00  0.0000E+00  0.0000E+00  0.0000E+00  0.0000E+00  0.0000E+00
    -26.926  0.0000E+00  0.0000E+00  0.0000E+00  0.0000E+00  0.0000E+00  0.0000E+00  0.0000E+00  0.0000E+00  0.0000E+00  0.0000E+00  0.0000E+00  0.0000E+00  0.0000E+00  0.0000E+00  0.0000E+00  0.0000E+00  0.0000E+00  0.0000E+00
    -26.782  0.0000E+00  0.0000E+00  0.0000E+00  0.0000E+00  0.0000E+00  0.0000E+00  0.0000E+00  0.0000E+00  0.0000E+00  0.0000E+00  0.0000E+00  0.0000E+00  0.0000E+00  0.0000E+00  0.0000E+00  0.0000E+00  0.0000E+00  0.0000E+00
    -26.638  0.0000E+00  0.0000E+00  0.0000E+00  0.0000E+00  0.0000E+00  0.0000E+00  0.0000E+00  0.0000E+00  0.0000E+00  0.0000E+00  0.0000E+00  0.0000E+00  0.0000E+00  0.0000E+00  0.0000E+00  0.0000E+00  0.0000E+00  0.0000E+00
    -26.495  0.0000E+00  0.0000E+00  0.0000E+00  0.0000E+00  0.0000E+00  0.0000E+00  0.0000E+00  0.0000E+00  0.0000E+00  0.0000E+00  0.0000E+00  0.0000E+00  0.0000E+00  0.0000E+00  0.0000E+00  0.0000E+00  0.0000E+00  0.0000E+00
    -26.351  0.0000E+00  0.0000E+00  0.0000E+00  0.0000E+00  0.0000E+00  0.0000E+00  0.0000E+00  0.0000E+00  0.0000E+00  0.0000E+00  0.0000E+00  0.0000E+00  0.0000E+00  0.0000E+00  0.0000E+00  0.0000E+00  0.0000E+00  0.0000E+00
    -26.207  0.0000E+00  0.0000E+00  0.0000E+00  0.0000E+00  0.0000E+00  0.0000E+00  0.0000E+00  0.0000E+00  0.0000E+00  0.0000E+00  0.0000E+00  0.0000E+00  0.0000E+00  0.0000E+00  0.0000E+00  0.0000E+00  0.0000E+00  0.0000E+00
    -26.063  0.0000E+00  0.0000E+00  0.0000E+00  0.0000E+00  0.0000E+00  0.0000E+00  0.0000E+00  0.0000E+00  0.0000E+00  0.0000E+00  0.0000E+00  0.0000E+00  0.0000E+00  0.0000E+00  0.0000E+00  0.0000E+00  0.0000E+00  0.0000E+00
    -25.920  0.0000E+00  0.0000E+00  0.0000E+00  0.0000E+00  0.0000E+00  0.0000E+00  0.0000E+00  0.0000E+00  0.0000E+00  0.0000E+00  0.0000E+00  0.0000E+00  0.0000E+00  0.0000E+00  0.0000E+00  0.0000E+00  0.0000E+00  0.0000E+00
    -25.776  0.0000E+00  0.0000E+00  0.0000E+00  0.0000E+00  0.0000E+00  0.0000E+00  0.0000E+00  0.0000E+00  0.0000E+00  0.0000E+00  0.0000E+00  0.0000E+00  0.0000E+00  0.0000E+00  0.0000E+00  0.0000E+00  0.0000E+00  0.0000E+00
    -25.632  0.0000E+00  0.0000E+00  0.0000E+00  0.0000E+00  0.0000E+00  0.0000E+00  0.0000E+00  0.0000E+00  0.0000E+00  0.0000E+00  0.0000E+00  0.0000E+00  0.0000E+00  0.0000E+00  0.0000E+00  0.0000E+00  0.0000E+00  0.0000E+00
    -25.488  0.0000E+00  0.0000E+00  0.0000E+00  0.0000E+00  0.0000E+00  0.0000E+00  0.0000E+00  0.0000E+00  0.0000E+00  0.0000E+00  0.0000E+00  0.0000E+00  0.0000E+00  0.0000E+00  0.0000E+00  0.0000E+00  0.0000E+00  0.0000E+00
    -25.345  0.0000E+00  0.0000E+00  0.0000E+00  0.0000E+00  0.0000E+00  0.0000E+00  0.0000E+00  0.0000E+00  0.0000E+00  0.0000E+00  0.0000E+00  0.0000E+00  0.0000E+00  0.0000E+00  0.0000E+00  0.0000E+00  0.0000E+00  0.0000E+00
    -25.201  0.0000E+00  0.0000E+00  0.0000E+00  0.0000E+00  0.0000E+00  0.0000E+00  0.0000E+00  0.0000E+00  0.0000E+00  0.0000E+00  0.0000E+00  0.0000E+00  0.0000E+00  0.0000E+00  0.0000E+00  0.0000E+00  0.0000E+00  0.0000E+00
    -25.057  0.0000E+00  0.0000E+00  0.0000E+00  0.0000E+00  0.0000E+00  0.0000E+00  0.0000E+00  0.0000E+00  0.0000E+00  0.0000E+00  0.0000E+00  0.0000E+00  0.0000E+00  0.0000E+00  0.0000E+00  0.0000E+00  0.0000E+00  0.0000E+00
    -24.913  0.0000E+00  0.0000E+00  0.0000E+00  0.0000E+00  0.0000E+00  0.0000E+00  0.0000E+00  0.0000E+00  0.0000E+00  0.0000E+00  0.0000E+00  0.0000E+00  0.0000E+00  0.0000E+00  0.0000E+00  0.0000E+00  0.0000E+00  0.0000E+00
    -24.770  0.0000E+00  0.0000E+00  0.0000E+00  0.0000E+00  0.0000E+00  0.0000E+00  0.0000E+00  0.0000E+00  0.0000E+00  0.0000E+00  0.0000E+00  0.0000E+00  0.0000E+00  0.0000E+00  0.0000E+00  0.0000E+00  0.0000E+00  0.0000E+00
    -24.626  0.0000E+00  0.0000E+00  0.0000E+00  0.0000E+00  0.0000E+00  0.0000E+00  0.0000E+00  0.0000E+00  0.0000E+00  0.0000E+00  0.0000E+00  0.0000E+00  0.0000E+00  0.0000E+00  0.0000E+00  0.0000E+00  0.0000E+00  0.0000E+00