  16  16   1   0
  0.3369527E+02  0.4329390E-09  0.4329390E-09  0.2876309E-08  0.5000000E-15
  1.000000000000000E-004
  CAR 
 unknown system                          
      7.37920054    -35.81779164  301      2.62217379      1.00000000
    -35.818  0.0000E+00  0.0000E+00  0.0000E+00  0.0000E+00
    -35.674  0.0000E+00  0.0000E+00  0.0000E+00  0.0000E+00
    -35.530  0.0000E+00  0.0000E+00  0.0000E+00  0.0000E+00
    -35.386  0.0000E+00  0.0000E+00  0.0000E+00  0.0000E+00
    -35.242  0.0000E+00  0.0000E+00  0.0000E+00  0.0000E+00
    -35.098  0.0000E+00  0.0000E+00  0.0000E+00  0.0000E+00
    -34.954  0.0000E+00  0.0000E+00  0.0000E+00  0.0000E+00
    -34.810  0.0000E+00  0.0000E+00  0.0000E+00  0.0000E+00
    -34.666  0.0000E+00  0.0000E+00  0.0000E+00  0.0000E+00
    -34.522  0.0000E+00  0.0000E+00  0.0000E+00  0.0000E+00
    -34.378  0.7304E-03  0.7303E-03  0.1052E-03  0.1051E-03
    -34.234  0.1227E-01  0.1227E-01  0.1872E-02  0.1872E-02
    -34.090  0.2168E+00  0.2167E+00  0.3309E-01  0.3308E-01
    -33.946  0.3363E+01  0.3362E+01  0.5173E+00  0.5172E+00
    -33.802  0.1656E+02  0.1656E+02  0.2902E+01  0.2902E+01
    -33.658  0.7047E+01  0.7048E+01  0.3917E+01  0.3917E+01
    -33.514  0.5449E+00  0.5450E+00  0.3995E+01  0.3995E+01
    -33.370  0.0000E+00  0.0000E+00  0.4000E+01  0.4000E+01
    -33.226  0.0000E+00  0.0000E+00  0.4000E+01  0.4000E+01
    -33.082  0.0000E+00  0.0000E+00  0.4000E+01  0.4000E+01
    -32.938  0.0000E+00  0.0000E+00  0.4000E+01  0.4000E+01
    -32.794  0.0000E+00  0.0000E+00  0.4000E+01  0.4000E+01
    -32.650  0.0000E+00  0.0000E+00  0.4000E+01  0.4000E+01
    -32.506  0.0000E+00  0.0000E+00  0.4000E+01  0.4000E+01
    -32.362  0.0000E+00  0.0000E+00  0.4000E+01  0.4000E+01
    -32.218  0.0000E+00  0.0000E+00  0.4000E+01  0.4000E+01
    -32.074  0.0000E+00  0.0000E+00  0.4000E+01  0.4000E+01
    -31.930  0.0000E+00  0.0000E+00  0.4000E+01  0.4000E+01
    -31.786  0.0000E+00  0.0000E+00  0.4000E+01  0.4000E+01
    -31.642  0.0000E+00  0.0000E+00  0.4000E+01  0.4000E+01
    -31.498  0.0000E+00  0.0000E+00  0.4000E+01  0.4000E+01
    -31.354  0.0000E+00  0.0000E+00  0.4000E+01  0.4000E+01
    -31.210  0.0000E+00  0.0000E+00  0.4000E+01  0.4000E+01
    -31.066  0.0000E+00  0.0000E+00  0.4000E+01  0.4000E+01
    -30.922  0.0000E+00  0.0000E+00  0.4000E+01  0.4000E+01
    -30.778  0.0000E+00  0.0000E+00  0.4000E+01  0.4000E+01
    -30.634  0.0000E+00  0.0000E+00  0.4000E+01  0.4000E+01
    -30.490  0.0000E+00  0.0000E+00  0.4000E+01  0.4000E+01
    -30.346  0.0000E+00  0.0000E+00  0.4000E+01  0.4000E+01
    -30.202  0.0000E+00  0.0000E+00  0.4000E+01  0.4000E+01
    -30.058  0.0000E+00  0.0000E+00  0.4000E+01  0.4000E+01
    -29.914  0.0000E+00  0.0000E+00  0.4000E+01  0.4000E+01
    -29.770  0.0000E+00  0.0000E+00  0.4000E+01  0.4000E+01
    -29.626  0.0000E+00  0.0000E+00  0.4000E+01  0.4000E+01
    -29.482  0.0000E+00  0.0000E+00  0.4000E+01  0.4000E+01
    -29.338  0.0000E+00  0.0000E+00  0.4000E+01  0.4000E+01
    -29.194  0.0000E+00  0.0000E+00  0.4000E+01  0.4000E+01
    -29.050  0.0000E+00  0.0000E+00  0.4000E+01  0.4000E+01
    -28.906  0.0000E+00  0.0000E+00  0.4000E+01  0.4000E+01
    -28.762  0.0000E+00  0.0000E+00  0.4000E+01  0.4000E+01
    -28.618  0.0000E+00  0.0000E+00  0.4000E+01  0.4000E+01
    -28.474  0.0000E+00  0.0000E+00  0.4000E+01  0.4000E+01
    -28.330  0.0000E+00  0.0000E+00  0.4000E+01  0.4000E+01
    -28.186  0.0000E+00  0.0000E+00  0.4000E+01  0.4000E+01
    -28.042  0.0000E+00  0.0000E+00  0.4000E+01  0.4000E+01
    -27.898  0.0000E+00  0.0000E+00  0.4000E+01  0.4000E+01
    -27.754  0.0000E+00  0.0000E+00  0.4000E+01  0.4000E+01
    -27.610  0.0000E+00  0.0000E+00  0.4000E+01  0.4000E+01
    -27.466  0.0000E+00  0.0000E+00  0.4000E+01  0.4000E+01
    -27.322  0.0000E+00  0.0000E+00  0.4000E+01  0.4000E+01
    -27.178  0.0000E+00  0.0000E+00  0.4000E+01  0.4000E+01
    -27.034  0.0000E+00  0.0000E+00  0.4000E+01  0.4000E+01
    -26.890  0.0000E+00  0.0000E+00  0.4000E+01  0.4000E+01
    -26.746  0.0000E+00  0.0000E+00  0.4000E+01  0.4000E+01
    -26.602  0.0000E+00  0.0000E+00  0.4000E+01  0.4000E+01
    -26.458  0.0000E+00  0.0000E+00  0.4000E+01  0.4000E+01
    -26.314  0.0000E+00  0.0000E+00  0.4000E+01  0.4000E+01
    -26.170  0.0000E+00  0.0000E+00  0.4000E+01  0.4000E+01
    -26.026  0.0000E+00  0.0000E+00  0.4000E+01  0.4000E+01
    -25.882  0.0000E+00  0.0000E+00  0.4000E+01  0.4000E+01
    -25.738  0.0000E+00  0.0000E+00  0.4000E+01  0.4000E+01
    -25.595  0.0000E+00  0.0000E+00  0.4000E+01  0.4000E+01
    -25.451  0.0000E+00  0.0000E+00  0.4000E+01  0.4000E+01
    -25.307  0.0000E+00  0.0000E+00  0.4000E+01  0.4000E+01
    -25.163  0.0000E+00  0.0000E+00  0.4000E+01  0.4000E+01
    -25.019  0.0000E+00  0.0000E+00  0.4000E+01  0.4000E+01
    -24.875  0.0000E+00  0.0000E+00  0.4000E+01  0.4000E+01
    -24.731  0.0000E+00  0.0000E+00  0.4000E+01  0.4000E+01
    -24.587  0.0000E+00  0.0000E+00  0.4000E+01  0.4000E+01
    -24.443  0.0000E+00  0.0000E+00  0.4000E+01  0.4000E+01
    -24.299  0.0000E+00  0.0000E+00  0.4000E+01  0.4000E+01
    -24.155  0.0000E+00  0.0000E+00  0.4000E+01  0.4000E+01
    -24.011  0.0000E+00  0.0000E+00  0.4000E+01  0.4000E+01
    -23.867  0.0000E+00  0.0000E+00  0.4000E+01  0.4000E+01
    -23.723  0.0000E+00  0.0000E+00  0.4000E+01  0.4000E+01
    -23.579  0.0000E+00  0.0000E+00  0.4000E+01  0.4000E+01
    -23.435  0.0000E+00  0.0000E+00  0.4000E+01  0.4000E+01
    -23.291  0.0000E+00  0.0000E+00  0.4000E+01  0.4000E+01
    -23.147  0.0000E+00  0.0000E+00  0.4000E+01  0.4000E+01
    -23.003  0.0000E+00  0.0000E+00  0.4000E+01  0.4000E+01
    -22.859  0.0000E+00  0.0000E+00  0.4000E+01  0.4000E+01
    -22.715  0.0000E+00  0.0000E+00  0.4000E+01  0.4000E+01
    -22.571  0.0000E+00  0.0000E+00  0.4000E+01  0.4000E+01
    -22.427  0.0000E+00  0.0000E+00  0.4000E+01  0.4000E+01
    -22.283  0.0000E+00  0.0000E+00  0.4000E+01  0.4000E+01
    -22.139  0.0000E+00  0.0000E+00  0.4000E+01  0.4000E+01
    -21.995  0.0000E+00  0.0000E+00  0.4000E+01  0.4000E+01
    -21.851  0.0000E+00  0.0000E+00  0.4000E+01  0.4000E+01
    -21.707  0.0000E+00  0.0000E+00  0.4000E+01  0.4000E+01
    -21.563  0.0000E+00  0.0000E+00  0.4000E+01  0.4000E+01
    -21.419  0.0000E+00  0.0000E+00  0.4000E+01  0.4000E+01
    -21.275  0.0000E+00  0.0000E+00  0.4000E+01  0.4000E+01
    -21.131  0.0000E+00  0.0000E+00  0.4000E+01  0.4000E+01
    -20.987  0.0000E+00  0.0000E+00  0.4000E+01  0.4000E+01
    -20.843  0.0000E+00  0.0000E+00  0.4000E+01  0.4000E+01
    -20.699  0.0000E+00  0.0000E+00  0.4000E+01  0.4000E+01
    -20.555  0.0000E+00  0.0000E+00  0.4000E+01  0.4000E+01
    -20.411  0.0000E+00  0.0000E+00  0.4000E+01  0.4000E+01
    -20.267  0.0000E+00  0.0000E+00  0.4000E+01  0.4000E+01
    -20.123  0.0000E+00  0.0000E+00  0.4000E+01  0.4000E+01
    -19.979  0.0000E+00  0.0000E+00  0.4000E+01  0.4000E+01
    -19.835  0.0000E+00  0.0000E+00  0.4000E+01  0.4000E+01
    -19.691  0.0000E+00  0.0000E+00  0.4000E+01  0.4000E+01
    -19.547  0.0000E+00  0.0000E+00  0.4000E+01  0.4000E+01
    -19.403  0.0000E+00  0.0000E+00  0.4000E+01  0.4000E+01
    -19.259  0.0000E+00  0.0000E+00  0.4000E+01  0.4000E+01
    -19.115  0.0000E+00  0.0000E+00  0.4000E+01  0.4000E+01
    -18.971  0.0000E+00  0.0000E+00  0.4000E+01  0.4000E+01
    -18.827  0.0000E+00  0.0000E+00  0.4000E+01  0.4000E+01
    -18.683  0.0000E+00  0.0000E+00  0.4000E+01  0.4000E+01
    -18.539  0.0000E+00  0.0000E+00  0.4000E+01  0.4000E+01
    -18.395  0.0000E+00  0.0000E+00  0.4000E+01  0.4000E+01
    -18.251  0.0000E+00  0.0000E+00  0.4000E+01  0.4000E+01
    -18.107  0.0000E+00  0.0000E+00  0.4000E+01  0.4000E+01
    -17.963  0.0000E+00  0.0000E+00  0.4000E+01  0.4000E+01
    -17.819  0.0000E+00  0.0000E+00  0.4000E+01  0.4000E+01
    -17.675  0.0000E+00  0.0000E+00  0.4000E+01  0.4000E+01
    -17.531  0.0000E+00  0.0000E+00  0.4000E+01  0.4000E+01
    -17.387  0.0000E+00  0.0000E+00  0.4000E+01  0.4000E+01
    -17.243  0.0000E+00  0.0000E+00  0.4000E+01  0.4000E+01
    -17.099  0.0000E+00  0.0000E+00  0.4000E+01  0.4000E+01
    -16.955  0.0000E+00  0.0000E+00  0.4000E+01  0.4000E+01
    -16.811  0.0000E+00  0.0000E+00  0.4000E+01  0.4000E+01
    -16.667  0.0000E+00  0.0000E+00  0.4000E+01  0.4000E+01
    -16.523  0.0000E+00  0.0000E+00  0.4000E+01  0.4000E+01
    -16.379  0.8309E-03  0.8292E-03  0.4000E+01  0.4000E+01
    -16.235  0.2290E-01  0.2285E-01  0.4003E+01  0.4003E+01
    -16.091  0.3957E+00  0.3950E+00  0.4060E+01  0.4060E+01
    -15.947  0.6208E+01  0.6199E+01  0.4954E+01  0.4953E+01
    -15.803  0.3895E+02  0.3893E+02  0.1056E+02  0.1056E+02
    -15.659  0.3349E+02  0.3351E+02  0.1538E+02  0.1538E+02
    -15.515  0.4016E+01  0.4021E+01  0.1596E+02  0.1596E+02
    -15.371  0.0000E+00  0.0000E+00  0.1600E+02  0.1600E+02
    -15.227  0.0000E+00  0.0000E+00  0.1600E+02  0.1600E+02
    -15.083  0.0000E+00  0.0000E+00  0.1600E+02  0.1600E+02
    -14.939  0.0000E+00  0.0000E+00  0.1600E+02  0.1600E+02
    -14.795  0.0000E+00  0.0000E+00  0.1600E+02  0.1600E+02
    -14.651  0.0000E+00  0.0000E+00  0.1600E+02  0.1600E+02
    -14.507  0.0000E+00  0.0000E+00  0.1600E+02  0.1600E+02
    -14.363  0.0000E+00  0.0000E+00  0.1600E+02  0.1600E+02
    -14.219  0.0000E+00  0.0000E+00  0.1600E+02  0.1600E+02
    -14.075  0.0000E+00  0.0000E+00  0.1600E+02  0.1600E+02
    -13.931  0.0000E+00  0.0000E+00  0.1600E+02  0.1600E+02
    -13.787  0.0000E+00  0.0000E+00  0.1600E+02  0.1600E+02
    -13.643  0.0000E+00  0.0000E+00  0.1600E+02  0.1600E+02
    -13.499  0.0000E+00  0.0000E+00  0.1600E+02  0.1600E+02
    -13.355  0.0000E+00  0.0000E+00  0.1600E+02  0.1600E+02
    -13.211  0.0000E+00  0.0000E+00  0.1600E+02  0.1600E+02
    -13.067  0.0000E+00  0.0000E+00  0.1600E+02  0.1600E+02
    -12.923  0.0000E+00  0.0000E+00  0.1600E+02  0.1600E+02
    -12.779  0.0000E+00  0.0000E+00  0.1600E+02  0.1600E+02
    -12.635  0.0000E+00  0.0000E+00  0.1600E+02  0.1600E+02
    -12.491  0.0000E+00  0.0000E+00  0.1600E+02  0.1600E+02
    -12.347  0.0000E+00  0.0000E+00  0.1600E+02  0.1600E+02
    -12.203  0.0000E+00  0.0000E+00  0.1600E+02  0.1600E+02
    -12.059  0.0000E+00  0.0000E+00  0.1600E+02  0.1600E+02
    -11.915  0.0000E+00  0.0000E+00  0.1600E+02  0.1600E+02
    -11.771  0.0000E+00  0.0000E+00  0.1600E+02  0.1600E+02
    -11.627  0.0000E+00  0.0000E+00  0.1600E+02  0.1600E+02
    -11.483  0.0000E+00  0.0000E+00  0.1600E+02  0.1600E+02
    -11.339  0.0000E+00  0.0000E+00  0.1600E+02  0.1600E+02
    -11.196  0.0000E+00  0.0000E+00  0.1600E+02  0.1600E+02
    -11.052  0.0000E+00  0.0000E+00  0.1600E+02  0.1600E+02
    -10.908  0.0000E+00  0.0000E+00  0.1600E+02  0.1600E+02
    -10.764  0.0000E+00  0.0000E+00  0.1600E+02  0.1600E+02
    -10.620  0.0000E+00  0.0000E+00  0.1600E+02  0.1600E+02
    -10.476  0.0000E+00  0.0000E+00  0.1600E+02  0.1600E+02
    -10.332  0.0000E+00  0.0000E+00  0.1600E+02  0.1600E+02
    -10.188  0.0000E+00  0.0000E+00  0.1600E+02  0.1600E+02
    -10.044  0.0000E+00  0.0000E+00  0.1600E+02  0.1600E+02
     -9.900  0.0000E+00  0.0000E+00  0.1600E+02  0.1600E+02
     -9.756  0.0000E+00  0.0000E+00  0.1600E+02  0.1600E+02
     -9.612  0.0000E+00  0.0000E+00  0.1600E+02  0.1600E+02
     -9.468  0.0000E+00  0.0000E+00  0.1600E+02  0.1600E+02
     -9.324  0.0000E+00  0.0000E+00  0.1600E+02  0.1600E+02
     -9.180  0.0000E+00  0.0000E+00  0.1600E+02  0.1600E+02
     -9.036  0.0000E+00  0.0000E+00  0.1600E+02  0.1600E+02
     -8.892  0.0000E+00  0.0000E+00  0.1600E+02  0.1600E+02
     -8.748  0.0000E+00  0.0000E+00  0.1600E+02  0.1600E+02
     -8.604  0.0000E+00  0.0000E+00  0.1600E+02  0.1600E+02
     -8.460  0.0000E+00  0.0000E+00  0.1600E+02  0.1600E+02
     -8.316  0.0000E+00  0.0000E+00  0.1600E+02  0.1600E+02
     -8.172  0.0000E+00  0.0000E+00  0.1600E+02  0.1600E+02
     -8.028  0.0000E+00  0.0000E+00  0.1600E+02  0.1600E+02
     -7.884  0.0000E+00  0.0000E+00  0.1600E+02  0.1600E+02
     -7.740  0.0000E+00  0.0000E+00  0.1600E+02  0.1600E+02
     -7.596  0.0000E+00  0.0000E+00  0.1600E+02  0.1600E+02
     -7.452  0.0000E+00  0.0000E+00  0.1600E+02  0.1600E+02
     -7.308  0.0000E+00  0.0000E+00  0.1600E+02  0.1600E+02
     -7.164  0.0000E+00  0.0000E+00  0.1600E+02  0.1600E+02
     -7.020  0.0000E+00  0.0000E+00  0.1600E+02  0.1600E+02
     -6.876  0.0000E+00  0.0000E+00  0.1600E+02  0.1600E+02
     -6.732  0.0000E+00  0.0000E+00  0.1600E+02  0.1600E+02
     -6.588  0.0000E+00  0.0000E+00  0.1600E+02  0.1600E+02
     -6.444  0.0000E+00  0.0000E+00  0.1600E+02  0.1600E+02
     -6.300  0.0000E+00  0.0000E+00  0.1600E+02  0.1600E+02
     -6.156  0.0000E+00  0.0000E+00  0.1600E+02  0.1600E+02
     -6.012  0.0000E+00  0.0000E+00  0.1600E+02  0.1600E+02
     -5.868  0.1624E-04  0.1636E-04  0.1600E+02  0.1600E+02
     -5.724  0.3586E-03  0.3611E-03  0.1600E+02  0.1600E+02
     -5.580  0.6410E-02  0.6456E-02  0.1600E+02  0.1600E+02
     -5.436  0.9523E-01  0.9579E-01  0.1601E+02  0.1601E+02
     -5.292  0.5159E+00  0.5171E+00  0.1609E+02  0.1609E+02
     -5.148  0.8196E+00  0.8198E+00  0.1621E+02  0.1621E+02
     -5.004  0.7995E+00  0.7997E+00  0.1632E+02  0.1632E+02
     -4.860  0.8845E+00  0.8841E+00  0.1645E+02  0.1645E+02
     -4.716  0.7591E+00  0.7593E+00  0.1656E+02  0.1656E+02
     -4.572  0.9806E+00  0.9809E+00  0.1670E+02  0.1670E+02
     -4.428  0.7536E+00  0.7526E+00  0.1681E+02  0.1681E+02
     -4.284  0.8289E+00  0.8305E+00  0.1693E+02  0.1693E+02
     -4.140  0.1119E+01  0.1117E+01  0.1709E+02  0.1709E+02
     -3.996  0.1137E+01  0.1135E+01  0.1725E+02  0.1725E+02
     -3.852  0.1679E+01  0.1679E+01  0.1750E+02  0.1750E+02
     -3.708  0.1761E+01  0.1760E+01  0.1775E+02  0.1775E+02
     -3.564  0.1839E+01  0.1839E+01  0.1802E+02  0.1802E+02
     -3.420  0.1462E+01  0.1462E+01  0.1823E+02  0.1823E+02
     -3.276  0.1847E+01  0.1847E+01  0.1849E+02  0.1849E+02
     -3.132  0.2094E+01  0.2096E+01  0.1880E+02  0.1880E+02
     -2.988  0.1509E+01  0.1506E+01  0.1901E+02  0.1901E+02
     -2.844  0.2553E+01  0.2556E+01  0.1938E+02  0.1938E+02
     -2.700  0.3327E+01  0.3329E+01  0.1986E+02  0.1986E+02
     -2.556  0.3598E+01  0.3596E+01  0.2038E+02  0.2038E+02
     -2.412  0.3071E+01  0.3069E+01  0.2082E+02  0.2082E+02
     -2.268  0.2613E+01  0.2613E+01  0.2120E+02  0.2120E+02
     -2.124  0.2015E+01  0.2015E+01  0.2149E+02  0.2149E+02
     -1.980  0.1122E+01  0.1122E+01  0.2165E+02  0.2165E+02
     -1.836  0.1457E+01  0.1453E+01  0.2186E+02  0.2186E+02
     -1.692  0.1447E+01  0.1449E+01  0.2207E+02  0.2207E+02
     -1.548  0.8925E+00  0.8928E+00  0.2220E+02  0.2220E+02
     -1.404  0.1182E+01  0.1182E+01  0.2237E+02  0.2237E+02
     -1.260  0.2097E+01  0.2099E+01  0.2267E+02  0.2267E+02
     -1.116  0.3911E+01  0.3912E+01  0.2324E+02  0.2324E+02
     -0.972  0.4182E+01  0.4182E+01  0.2384E+02  0.2384E+02
     -0.828  0.3635E+01  0.3634E+01  0.2436E+02  0.2436E+02
     -0.684  0.2556E+01  0.2555E+01  0.2473E+02  0.2473E+02
     -0.540  0.3477E+01  0.3481E+01  0.2523E+02  0.2524E+02
     -0.396  0.4453E+01  0.4448E+01  0.2588E+02  0.2588E+02
     -0.252  0.3624E+01  0.3626E+01  0.2640E+02  0.2640E+02
     -0.108  0.3067E+01  0.3070E+01  0.2684E+02  0.2684E+02
      0.036  0.1727E+01  0.1727E+01  0.2709E+02  0.2709E+02
      0.180  0.1432E+01  0.1431E+01  0.2730E+02  0.2730E+02
      0.324  0.2693E+01  0.2689E+01  0.2769E+02  0.2769E+02
      0.468  0.2277E+01  0.2279E+01  0.2802E+02  0.2802E+02
      0.612  0.1885E+01  0.1885E+01  0.2829E+02  0.2829E+02
      0.756  0.2756E+01  0.2754E+01  0.2869E+02  0.2868E+02
      0.900  0.2832E+01  0.2831E+01  0.2909E+02  0.2909E+02
      1.044  0.4680E+01  0.4678E+01  0.2977E+02  0.2977E+02
      1.188  0.5523E+01  0.5525E+01  0.3056E+02  0.3056E+02
      1.332  0.5011E+01  0.5012E+01  0.3129E+02  0.3129E+02
      1.476  0.5675E+01  0.5676E+01  0.3210E+02  0.3210E+02
      1.620  0.4861E+01  0.4861E+01  0.3281E+02  0.3281E+02
      1.764  0.5262E+01  0.5259E+01  0.3357E+02  0.3356E+02
      1.908  0.5224E+01  0.5225E+01  0.3432E+02  0.3432E+02
      2.052  0.6257E+01  0.6253E+01  0.3522E+02  0.3522E+02
      2.196  0.6338E+01  0.6340E+01  0.3613E+02  0.3613E+02
      2.340  0.5525E+01  0.5527E+01  0.3693E+02  0.3693E+02
      2.484  0.3712E+01  0.3709E+01  0.3747E+02  0.3747E+02
      2.628  0.3830E+01  0.3829E+01  0.3802E+02  0.3802E+02
      2.772  0.4383E+01  0.4384E+01  0.3866E+02  0.3865E+02
      2.916  0.3970E+01  0.3970E+01  0.3923E+02  0.3923E+02
      3.060  0.4432E+01  0.4430E+01  0.3987E+02  0.3987E+02
      3.203  0.4764E+01  0.4766E+01  0.4055E+02  0.4055E+02
      3.347  0.4842E+01  0.4843E+01  0.4125E+02  0.4125E+02
      3.491  0.6192E+01  0.6192E+01  0.4214E+02  0.4214E+02
      3.635  0.7474E+01  0.7477E+01  0.4322E+02  0.4322E+02
      3.779  0.6388E+01  0.6388E+01  0.4414E+02  0.4414E+02
      3.923  0.6114E+01  0.6111E+01  0.4503E+02  0.4503E+02
      4.067  0.7151E+01  0.7153E+01  0.4606E+02  0.4606E+02
      4.211  0.7176E+01  0.7178E+01  0.4709E+02  0.4709E+02
      4.355  0.6384E+01  0.6378E+01  0.4802E+02  0.4801E+02
      4.499  0.6289E+01  0.6294E+01  0.4892E+02  0.4892E+02
      4.643  0.5728E+01  0.5737E+01  0.4975E+02  0.4975E+02
      4.787  0.5330E+01  0.5434E+01  0.5052E+02  0.5053E+02
      4.931  0.3491E+01  0.3643E+01  0.5102E+02  0.5106E+02
      5.075  0.2785E+01  0.2672E+01  0.5143E+02  0.5145E+02
      5.219  0.2364E+01  0.2236E+01  0.5177E+02  0.5177E+02
      5.363  0.1275E+01  0.1220E+01  0.5195E+02  0.5195E+02
      5.507  0.2968E+00  0.3257E+00  0.5200E+02  0.5199E+02
      5.651  0.2418E-01  0.3063E-01  0.5200E+02  0.5200E+02
      5.795  0.7014E-03  0.9204E-03  0.5200E+02  0.5200E+02
      5.939  0.0000E+00  0.0000E+00  0.5200E+02  0.5200E+02
      6.083  0.0000E+00  0.0000E+00  0.5200E+02  0.5200E+02
      6.227  0.0000E+00  0.0000E+00  0.5200E+02  0.5200E+02
      6.371  0.0000E+00  0.0000E+00  0.5200E+02  0.5200E+02
      6.515  0.0000E+00  0.0000E+00  0.5200E+02  0.5200E+02
      6.659  0.0000E+00  0.0000E+00  0.5200E+02  0.5200E+02
      6.803  0.0000E+00  0.0000E+00  0.5200E+02  0.5200E+02
      6.947  0.0000E+00  0.0000E+00  0.5200E+02  0.5200E+02
      7.091  0.0000E+00  0.0000E+00  0.5200E+02  0.5200E+02
      7.235  0.0000E+00  0.0000E+00  0.5200E+02  0.5200E+02
      7.379  0.0000E+00  0.0000E+00  0.5200E+02  0.5200E+02
      7.37920054    -35.81779164  301      2.62217379      1.00000000
    -35.818  0.0000E+00  0.0000E+00  0.0000E+00  0.0000E+00  0.0000E+00  0.0000E+00  0.0000E+00  0.0000E+00  0.0000E+00  0.0000E+00  0.0000E+00  0.0000E+00  0.0000E+00  0.0000E+00  0.0000E+00  0.0000E+00  0.0000E+00  0.0000E+00
    -35.674  0.0000E+00  0.0000E+00  0.0000E+00  0.0000E+00  0.0000E+00  0.0000E+00  0.0000E+00  0.0000E+00  0.0000E+00  0.0000E+00  0.0000E+00  0.0000E+00  0.0000E+00  0.0000E+00  0.0000E+00  0.0000E+00  0.0000E+00  0.0000E+00
    -35.530  0.0000E+00  0.0000E+00  0.0000E+00  0.0000E+00  0.0000E+00  0.0000E+00  0.0000E+00  0.0000E+00  0.0000E+00  0.0000E+00  0.0000E+00  0.0000E+00  0.0000E+00  0.0000E+00  0.0000E+00  0.0000E+00  0.0000E+00  0.0000E+00
    -35.386  0.0000E+00  0.0000E+00  0.0000E+00  0.0000E+00  0.0000E+00  0.0000E+00  0.0000E+00  0.0000E+00  0.0000E+00  0.0000E+00  0.0000E+00  0.0000E+00  0.0000E+00  0.0000E+00  0.0000E+00  0.0000E+00  0.0000E+00  0.0000E+00
    -35.242  0.0000E+00  0.0000E+00  0.0000E+00  0.0000E+00  0.0000E+00  0.0000E+00  0.0000E+00  0.0000E+00  0.0000E+00  0.0000E+00  0.0000E+00  0.0000E+00  0.0000E+00  0.0000E+00  0.0000E+00  0.0000E+00  0.0000E+00  0.0000E+00
    -35.098  0.0000E+00  0.0000E+00  0.0000E+00  0.0000E+00  0.0000E+00  0.0000E+00  0.0000E+00  0.0000E+00  0.0000E+00  0.0000E+00  0.0000E+00  0.0000E+00  0.0000E+00  0.0000E+00  0.0000E+00  0.0000E+00  0.0000E+00  0.0000E+00
    -34.954  0.0000E+00  0.0000E+00  0.0000E+00  0.0000E+00  0.0000E+00  0.0000E+00  0.0000E+00  0.0000E+00  0.0000E+00  0.0000E+00  0.0000E+00  0.0000E+00  0.0000E+00  0.0000E+00  0.0000E+00  0.0000E+00  0.0000E+00  0.0000E+00
    -34.810  0.0000E+00  0.0000E+00  0.0000E+00  0.0000E+00  0.0000E+00  0.0000E+00  0.0000E+00  0.0000E+00  0.0000E+00  0.0000E+00  0.0000E+00  0.0000E+00  0.0000E+00  0.0000E+00  0.0000E+00  0.0000E+00  0.0000E+00  0.0000E+00
    -34.666  0.0000E+00  0.0000E+00  0.0000E+00  0.0000E+00  0.0000E+00  0.0000E+00  0.0000E+00  0.0000E+00  0.0000E+00  0.0000E+00  0.0000E+00  0.0000E+00  0.0000E+00  0.0000E+00  0.0000E+00  0.0000E+00  0.0000E+00  0.0000E+00
    -34.522  0.0000E+00  0.0000E+00  0.0000E+00  0.0000E+00  0.0000E+00  0.0000E+00  0.0000E+00  0.0000E+00  0.0000E+00  0.0000E+00  0.0000E+00  0.0000E+00  0.0000E+00  0.0000E+00  0.0000E+00  0.0000E+00  0.0000E+00  0.0000E+00
    -34.378  0.1789E-03  0.1788E-03  0.4064E-11  0.4108E-11  0.9218E-11  0.8963E-11  0.4064E-11  0.4108E-11  0.2592E-16  0.4319E-16  0.2387E-15  0.2699E-15  0.9404E-10  0.9379E-10  0.2387E-15  0.2699E-15  0.2513E-11  0.2489E-11
    -34.234  0.3005E-02  0.3004E-02  0.6829E-10  0.6902E-10  0.1549E-09  0.1506E-09  0.6829E-10  0.6902E-10  0.4356E-15  0.7258E-15  0.4010E-14  0.4535E-14  0.1580E-08  0.1576E-08  0.4010E-14  0.4535E-14  0.4222E-10  0.4181E-10
    -34.090  0.5309E-01  0.5307E-01  0.1206E-08  0.1219E-08  0.2736E-08  0.2660E-08  0.1206E-08  0.1219E-08  0.7694E-14  0.1282E-13  0.7084E-13  0.8011E-13  0.2791E-07  0.2783E-07  0.7084E-13  0.8011E-13  0.7458E-09  0.7386E-09
    -33.946  0.8234E+00  0.8232E+00  0.1871E-07  0.1891E-07  0.4244E-07  0.4127E-07  0.1871E-07  0.1891E-07  0.1196E-12  0.1994E-12  0.1099E-11  0.1241E-11  0.4326E-06  0.4314E-06  0.1099E-11  0.1241E-11  0.1157E-07  0.1146E-07
    -33.802  0.4056E+01  0.4055E+01  0.9215E-07  0.9315E-07  0.2091E-06  0.2034E-06  0.9215E-07  0.9315E-07  0.5951E-12  0.9964E-12  0.5418E-11  0.6078E-11  0.2121E-05  0.2116E-05  0.5418E-11  0.6078E-11  0.5702E-07  0.5648E-07
    -33.658  0.1726E+01  0.1726E+01  0.3919E-07  0.3963E-07  0.8901E-07  0.8658E-07  0.3919E-07  0.3963E-07  0.2564E-12  0.4313E-12  0.2307E-11  0.2567E-11  0.8978E-06  0.8958E-06  0.2307E-11  0.2567E-11  0.2426E-07  0.2403E-07
    -33.514  0.1334E+00  0.1335E+00  0.3030E-08  0.3064E-08  0.6884E-08  0.6696E-08  0.3030E-08  0.3064E-08  0.1990E-13  0.3353E-13  0.1784E-12  0.1980E-12  0.6930E-07  0.6915E-07  0.1784E-12  0.1980E-12  0.1875E-08  0.1858E-08
    -33.370  0.0000E+00  0.0000E+00  0.0000E+00  0.0000E+00  0.0000E+00  0.0000E+00  0.0000E+00  0.0000E+00  0.0000E+00  0.0000E+00  0.0000E+00  0.0000E+00  0.0000E+00  0.0000E+00  0.0000E+00  0.0000E+00  0.0000E+00  0.0000E+00
    -33.226  0.0000E+00  0.0000E+00  0.0000E+00  0.0000E+00  0.0000E+00  0.0000E+00  0.0000E+00  0.0000E+00  0.0000E+00  0.0000E+00  0.0000E+00  0.0000E+00  0.0000E+00  0.0000E+00  0.0000E+00  0.0000E+00  0.0000E+00  0.0000E+00
    -33.082  0.0000E+00  0.0000E+00  0.0000E+00  0.0000E+00  0.0000E+00  0.0000E+00  0.0000E+00  0.0000E+00  0.0000E+00  0.0000E+00  0.0000E+00  0.0000E+00  0.0000E+00  0.0000E+00  0.0000E+00  0.0000E+00  0.0000E+00  0.0000E+00
    -32.938  0.0000E+00  0.0000E+00  0.0000E+00  0.0000E+00  0.0000E+00  0.0000E+00  0.0000E+00  0.0000E+00  0.0000E+00  0.0000E+00  0.0000E+00  0.0000E+00  0.0000E+00  0.0000E+00  0.0000E+00  0.0000E+00  0.0000E+00  0.0000E+00
    -32.794  0.0000E+00  0.0000E+00  0.0000E+00  0.0000E+00  0.0000E+00  0.0000E+00  0.0000E+00  0.0000E+00  0.0000E+00  0.0000E+00  0.0000E+00  0.0000E+00  0.0000E+00  0.0000E+00  0.0000E+00  0.0000E+00  0.0000E+00  0.0000E+00
    -32.650  0.0000E+00  0.0000E+00  0.0000E+00  0.0000E+00  0.0000E+00  0.0000E+00  0.0000E+00  0.0000E+00  0.0000E+00  0.0000E+00  0.0000E+00  0.0000E+00  0.0000E+00  0.0000E+00  0.0000E+00  0.0000E+00  0.0000E+00  0.0000E+00
    -32.506  0.0000E+00  0.0000E+00  0.0000E+00  0.0000E+00  0.0000E+00  0.0000E+00  0.0000E+00  0.0000E+00  0.0000E+00  0.0000E+00  0.0000E+00  0.0000E+00  0.0000E+00  0.0000E+00  0.0000E+00  0.0000E+00  0.0000E+00  0.0000E+00
    -32.362  0.0000E+00  0.0000E+00  0.0000E+00  0.0000E+00  0.0000E+00  0.0000E+00  0.0000E+00  0.0000E+00  0.0000E+00  0.0000E+00  0.0000E+00  0.0000E+00  0.0000E+00  0.0000E+00  0.0000E+00  0.0000E+00  0.0000E+00  0.0000E+00
    -32.218  0.0000E+00  0.0000E+00  0.0000E+00  0.0000E+00  0.0000E+00  0.0000E+00  0.0000E+00  0.0000E+00  0.0000E+00  0.0000E+00  0.0000E+00  0.0000E+00  0.0000E+00  0.0000E+00  0.0000E+00  0.0000E+00  0.0000E+00  0.0000E+00
    -32.074  0.0000E+00  0.0000E+00  0.0000E+00  0.0000E+00  0.0000E+00  0.0000E+00  0.0000E+00  0.0000E+00  0.0000E+00  0.0000E+00  0.0000E+00  0.0000E+00  0.0000E+00  0.0000E+00  0.0000E+00  0.0000E+00  0.0000E+00  0.0000E+00
    -31.930  0.0000E+00  0.0000E+00  0.0000E+00  0.0000E+00  0.0000E+00  0.0000E+00  0.0000E+00  0.0000E+00  0.0000E+00  0.0000E+00  0.0000E+00  0.0000E+00  0.0000E+00  0.0000E+00  0.0000E+00  0.0000E+00  0.0000E+00  0.0000E+00
    -31.786  0.0000E+00  0.0000E+00  0.0000E+00  0.0000E+00  0.0000E+00  0.0000E+00  0.0000E+00  0.0000E+00  0.0000E+00  0.0000E+00  0.0000E+00  0.0000E+00  0.0000E+00  0.0000E+00  0.0000E+00  0.0000E+00  0.0000E+00  0.0000E+00
    -31.642  0.0000E+00  0.0000E+00  0.0000E+00  0.0000E+00  0.0000E+00  0.0000E+00  0.0000E+00  0.0000E+00  0.0000E+00  0.0000E+00  0.0000E+00  0.0000E+00  0.0000E+00  0.0000E+00  0.0000E+00  0.0000E+00  0.0000E+00  0.0000E+00
    -31.498  0.0000E+00  0.0000E+00  0.0000E+00  0.0000E+00  0.0000E+00  0.0000E+00  0.0000E+00  0.0000E+00  0.0000E+00  0.0000E+00  0.0000E+00  0.0000E+00  0.0000E+00  0.0000E+00  0.0000E+00  0.0000E+00  0.0000E+00  0.0000E+00
    -31.354  0.0000E+00  0.0000E+00  0.0000E+00  0.0000E+00  0.0000E+00  0.0000E+00  0.0000E+00  0.0000E+00  0.0000E+00  0.0000E+00  0.0000E+00  0.0000E+00  0.0000E+00  0.0000E+00  0.0000E+00  0.0000E+00  0.0000E+00  0.0000E+00
    -31.210  0.0000E+00  0.0000E+00  0.0000E+00  0.0000E+00  0.0000E+00  0.0000E+00  0.0000E+00  0.0000E+00  0.0000E+00  0.0000E+00  0.0000E+00  0.0000E+00  0.0000E+00  0.0000E+00  0.0000E+00  0.0000E+00  0.0000E+00  0.0000E+00
    -31.066  0.0000E+00  0.0000E+00  0.0000E+00  0.0000E+00  0.0000E+00  0.0000E+00  0.0000E+00  0.0000E+00  0.0000E+00  0.0000E+00  0.0000E+00  0.0000E+00  0.0000E+00  0.0000E+00  0.0000E+00  0.0000E+00  0.0000E+00  0.0000E+00
    -30.922  0.0000E+00  0.0000E+00  0.0000E+00  0.0000E+00  0.0000E+00  0.0000E+00  0.0000E+00  0.0000E+00  0.0000E+00  0.0000E+00  0.0000E+00  0.0000E+00  0.0000E+00  0.0000E+00  0.0000E+00  0.0000E+00  0.0000E+00  0.0000E+00
    -30.778  0.0000E+00  0.0000E+00  0.0000E+00  0.0000E+00  0.0000E+00  0.0000E+00  0.0000E+00  0.0000E+00  0.0000E+00  0.0000E+00  0.0000E+00  0.0000E+00  0.0000E+00  0.0000E+00  0.0000E+00  0.0000E+00  0.0000E+00  0.0000E+00
    -30.634  0.0000E+00  0.0000E+00  0.0000E+00  0.0000E+00  0.0000E+00  0.0000E+00  0.0000E+00  0.0000E+00  0.0000E+00  0.0000E+00  0.0000E+00  0.0000E+00  0.0000E+00  0.0000E+00  0.0000E+00  0.0000E+00  0.0000E+00  0.0000E+00
    -30.490  0.0000E+00  0.0000E+00  0.0000E+00  0.0000E+00  0.0000E+00  0.0000E+00  0.0000E+00  0.0000E+00  0.0000E+00  0.0000E+00  0.0000E+00  0.0000E+00  0.0000E+00  0.0000E+00  0.0000E+00  0.0000E+00  0.0000E+00  0.0000E+00
    -30.346  0.0000E+00  0.0000E+00  0.0000E+00  0.0000E+00  0.0000E+00  0.0000E+00  0.0000E+00  0.0000E+00  0.0000E+00  0.0000E+00  0.0000E+00  0.0000E+00  0.0000E+00  0.0000E+00  0.0000E+00  0.0000E+00  0.0000E+00  0.0000E+00
    -30.202  0.0000E+00  0.0000E+00  0.0000E+00  0.0000E+00  0.0000E+00  0.0000E+00  0.0000E+00  0.0000E+00  0.0000E+00  0.0000E+00  0.0000E+00  0.0000E+00  0.0000E+00  0.0000E+00  0.0000E+00  0.0000E+00  0.0000E+00  0.0000E+00
    -30.058  0.0000E+00  0.0000E+00  0.0000E+00  0.0000E+00  0.0000E+00  0.0000E+00  0.0000E+00  0.0000E+00  0.0000E+00  0.0000E+00  0.0000E+00  0.0000E+00  0.0000E+00  0.0000E+00  0.0000E+00  0.0000E+00  0.0000E+00  0.0000E+00
    -29.914  0.0000E+00  0.0000E+00  0.0000E+00  0.0000E+00  0.0000E+00  0.0000E+00  0.0000E+00  0.0000E+00  0.0000E+00  0.0000E+00  0.0000E+00  0.0000E+00  0.0000E+00  0.0000E+00  0.0000E+00  0.0000E+00  0.0000E+00  0.0000E+00
    -29.770  0.0000E+00  0.0000E+00  0.0000E+00  0.0000E+00  0.0000E+00  0.0000E+00  0.0000E+00  0.0000E+00  0.0000E+00  0.0000E+00  0.0000E+00  0.0000E+00  0.0000E+00  0.0000E+00  0.0000E+00  0.0000E+00  0.0000E+00  0.0000E+00
    -29.626  0.0000E+00  0.0000E+00  0.0000E+00  0.0000E+00  0.0000E+00  0.0000E+00  0.0000E+00  0.0000E+00  0.0000E+00  0.0000E+00  0.0000E+00  0.0000E+00  0.0000E+00  0.0000E+00  0.0000E+00  0.0000E+00  0.0000E+00  0.0000E+00
    -29.482  0.0000E+00  0.0000E+00  0.0000E+00  0.0000E+00  0.0000E+00  0.0000E+00  0.0000E+00  0.0000E+00  0.0000E+00  0.0000E+00  0.0000E+00  0.0000E+00  0.0000E+00  0.0000E+00  0.0000E+00  0.0000E+00  0.0000E+00  0.0000E+00
    -29.338  0.0000E+00  0.0000E+00  0.0000E+00  0.0000E+00  0.0000E+00  0.0000E+00  0.0000E+00  0.0000E+00  0.0000E+00  0.0000E+00  0.0000E+00  0.0000E+00  0.0000E+00  0.0000E+00  0.0000E+00  0.0000E+00  0.0000E+00  0.0000E+00
    -29.194  0.0000E+00  0.0000E+00  0.0000E+00  0.0000E+00  0.0000E+00  0.0000E+00  0.0000E+00  0.0000E+00  0.0000E+00  0.0000E+00  0.0000E+00  0.0000E+00  0.0000E+00  0.0000E+00  0.0000E+00  0.0000E+00  0.0000E+00  0.0000E+00
    -29.050  0.0000E+00  0.0000E+00  0.0000E+00  0.0000E+00  0.0000E+00  0.0000E+00  0.0000E+00  0.0000E+00  0.0000E+00  0.0000E+00  0.0000E+00  0.0000E+00  0.0000E+00  0.0000E+00  0.0000E+00  0.0000E+00  0.0000E+00  0.0000E+00
    -28.906  0.0000E+00  0.0000E+00  0.0000E+00  0.0000E+00  0.0000E+00  0.0000E+00  0.0000E+00  0.0000E+00  0.0000E+00  0.0000E+00  0.0000E+00  0.0000E+00  0.0000E+00  0.0000E+00  0.0000E+00  0.0000E+00  0.0000E+00  0.0000E+00
    -28.762  0.0000E+00  0.0000E+00  0.0000E+00  0.0000E+00  0.0000E+00  0.0000E+00  0.0000E+00  0.0000E+00  0.0000E+00  0.0000E+00  0.0000E+00  0.0000E+00  0.0000E+00  0.0000E+00  0.0000E+00  0.0000E+00  0.0000E+00  0.0000E+00
    -28.618  0.0000E+00  0.0000E+00  0.0000E+00  0.0000E+00  0.0000E+00  0.0000E+00  0.0000E+00  0.0000E+00  0.0000E+00  0.0000E+00  0.0000E+00  0.0000E+00  0.0000E+00  0.0000E+00  0.0000E+00  0.0000E+00  0.0000E+00  0.0000E+00