  16  16   1   0
  0.2926776E+02  0.4130794E-09  0.4130794E-09  0.2744368E-08  0.5000000E-15
  1.000000000000000E-004
  CAR 
 unknown system                          
      8.64370123    -34.63959151  301      3.39004501      1.00000000
    -34.640  0.0000E+00  0.0000E+00  0.0000E+00  0.0000E+00
    -34.495  0.0000E+00  0.0000E+00  0.0000E+00  0.0000E+00
    -34.351  0.0000E+00  0.0000E+00  0.0000E+00  0.0000E+00
    -34.207  0.0000E+00  0.0000E+00  0.0000E+00  0.0000E+00
    -34.062  0.0000E+00  0.0000E+00  0.0000E+00  0.0000E+00
    -33.918  0.0000E+00  0.0000E+00  0.0000E+00  0.0000E+00
    -33.774  0.0000E+00  0.0000E+00  0.0000E+00  0.0000E+00
    -33.630  0.0000E+00  0.0000E+00  0.0000E+00  0.0000E+00
    -33.485  0.0000E+00  0.0000E+00  0.0000E+00  0.0000E+00
    -33.341  0.0000E+00  0.0000E+00  0.0000E+00  0.0000E+00
    -33.197  0.6626E-03  0.6644E-03  0.9559E-04  0.9586E-04
    -33.053  0.1120E-01  0.1123E-01  0.1712E-02  0.1716E-02
    -32.908  0.1991E+00  0.1997E+00  0.3044E-01  0.3053E-01
    -32.764  0.3136E+01  0.3143E+01  0.4829E+00  0.4840E+00
    -32.620  0.1634E+02  0.1635E+02  0.2841E+01  0.2843E+01
    -32.475  0.7415E+01  0.7400E+01  0.3911E+01  0.3911E+01
    -32.331  0.5829E+00  0.5813E+00  0.3995E+01  0.3995E+01
    -32.187  0.0000E+00  0.0000E+00  0.4000E+01  0.4000E+01
    -32.043  0.0000E+00  0.0000E+00  0.4000E+01  0.4000E+01
    -31.898  0.0000E+00  0.0000E+00  0.4000E+01  0.4000E+01
    -31.754  0.0000E+00  0.0000E+00  0.4000E+01  0.4000E+01
    -31.610  0.0000E+00  0.0000E+00  0.4000E+01  0.4000E+01
    -31.465  0.0000E+00  0.0000E+00  0.4000E+01  0.4000E+01
    -31.321  0.0000E+00  0.0000E+00  0.4000E+01  0.4000E+01
    -31.177  0.0000E+00  0.0000E+00  0.4000E+01  0.4000E+01
    -31.033  0.0000E+00  0.0000E+00  0.4000E+01  0.4000E+01
    -30.888  0.0000E+00  0.0000E+00  0.4000E+01  0.4000E+01
    -30.744  0.0000E+00  0.0000E+00  0.4000E+01  0.4000E+01
    -30.600  0.0000E+00  0.0000E+00  0.4000E+01  0.4000E+01
    -30.456  0.0000E+00  0.0000E+00  0.4000E+01  0.4000E+01
    -30.311  0.0000E+00  0.0000E+00  0.4000E+01  0.4000E+01
    -30.167  0.0000E+00  0.0000E+00  0.4000E+01  0.4000E+01
    -30.023  0.0000E+00  0.0000E+00  0.4000E+01  0.4000E+01
    -29.878  0.0000E+00  0.0000E+00  0.4000E+01  0.4000E+01
    -29.734  0.0000E+00  0.0000E+00  0.4000E+01  0.4000E+01
    -29.590  0.0000E+00  0.0000E+00  0.4000E+01  0.4000E+01
    -29.446  0.0000E+00  0.0000E+00  0.4000E+01  0.4000E+01
    -29.301  0.0000E+00  0.0000E+00  0.4000E+01  0.4000E+01
    -29.157  0.0000E+00  0.0000E+00  0.4000E+01  0.4000E+01
    -29.013  0.0000E+00  0.0000E+00  0.4000E+01  0.4000E+01
    -28.868  0.0000E+00  0.0000E+00  0.4000E+01  0.4000E+01
    -28.724  0.0000E+00  0.0000E+00  0.4000E+01  0.4000E+01
    -28.580  0.0000E+00  0.0000E+00  0.4000E+01  0.4000E+01
    -28.436  0.0000E+00  0.0000E+00  0.4000E+01  0.4000E+01
    -28.291  0.0000E+00  0.0000E+00  0.4000E+01  0.4000E+01
    -28.147  0.0000E+00  0.0000E+00  0.4000E+01  0.4000E+01
    -28.003  0.0000E+00  0.0000E+00  0.4000E+01  0.4000E+01
    -27.859  0.0000E+00  0.0000E+00  0.4000E+01  0.4000E+01
    -27.714  0.0000E+00  0.0000E+00  0.4000E+01  0.4000E+01
    -27.570  0.0000E+00  0.0000E+00  0.4000E+01  0.4000E+01
    -27.426  0.0000E+00  0.0000E+00  0.4000E+01  0.4000E+01
    -27.281  0.0000E+00  0.0000E+00  0.4000E+01  0.4000E+01
    -27.137  0.0000E+00  0.0000E+00  0.4000E+01  0.4000E+01
    -26.993  0.0000E+00  0.0000E+00  0.4000E+01  0.4000E+01
    -26.849  0.0000E+00  0.0000E+00  0.4000E+01  0.4000E+01
    -26.704  0.0000E+00  0.0000E+00  0.4000E+01  0.4000E+01
    -26.560  0.0000E+00  0.0000E+00  0.4000E+01  0.4000E+01
    -26.416  0.0000E+00  0.0000E+00  0.4000E+01  0.4000E+01
    -26.271  0.0000E+00  0.0000E+00  0.4000E+01  0.4000E+01
    -26.127  0.0000E+00  0.0000E+00  0.4000E+01  0.4000E+01
    -25.983  0.0000E+00  0.0000E+00  0.4000E+01  0.4000E+01
    -25.839  0.0000E+00  0.0000E+00  0.4000E+01  0.4000E+01
    -25.694  0.0000E+00  0.0000E+00  0.4000E+01  0.4000E+01
    -25.550  0.0000E+00  0.0000E+00  0.4000E+01  0.4000E+01
    -25.406  0.0000E+00  0.0000E+00  0.4000E+01  0.4000E+01
    -25.262  0.0000E+00  0.0000E+00  0.4000E+01  0.4000E+01
    -25.117  0.0000E+00  0.0000E+00  0.4000E+01  0.4000E+01
    -24.973  0.0000E+00  0.0000E+00  0.4000E+01  0.4000E+01
    -24.829  0.0000E+00  0.0000E+00  0.4000E+01  0.4000E+01
    -24.684  0.0000E+00  0.0000E+00  0.4000E+01  0.4000E+01
    -24.540  0.0000E+00  0.0000E+00  0.4000E+01  0.4000E+01
    -24.396  0.0000E+00  0.0000E+00  0.4000E+01  0.4000E+01
    -24.252  0.0000E+00  0.0000E+00  0.4000E+01  0.4000E+01
    -24.107  0.0000E+00  0.0000E+00  0.4000E+01  0.4000E+01
    -23.963  0.0000E+00  0.0000E+00  0.4000E+01  0.4000E+01
    -23.819  0.0000E+00  0.0000E+00  0.4000E+01  0.4000E+01
    -23.674  0.0000E+00  0.0000E+00  0.4000E+01  0.4000E+01
    -23.530  0.0000E+00  0.0000E+00  0.4000E+01  0.4000E+01
    -23.386  0.0000E+00  0.0000E+00  0.4000E+01  0.4000E+01
    -23.242  0.0000E+00  0.0000E+00  0.4000E+01  0.4000E+01
    -23.097  0.0000E+00  0.0000E+00  0.4000E+01  0.4000E+01
    -22.953  0.0000E+00  0.0000E+00  0.4000E+01  0.4000E+01
    -22.809  0.0000E+00  0.0000E+00  0.4000E+01  0.4000E+01
    -22.665  0.0000E+00  0.0000E+00  0.4000E+01  0.4000E+01
    -22.520  0.0000E+00  0.0000E+00  0.4000E+01  0.4000E+01
    -22.376  0.0000E+00  0.0000E+00  0.4000E+01  0.4000E+01
    -22.232  0.0000E+00  0.0000E+00  0.4000E+01  0.4000E+01
    -22.087  0.0000E+00  0.0000E+00  0.4000E+01  0.4000E+01
    -21.943  0.0000E+00  0.0000E+00  0.4000E+01  0.4000E+01
    -21.799  0.0000E+00  0.0000E+00  0.4000E+01  0.4000E+01
    -21.655  0.0000E+00  0.0000E+00  0.4000E+01  0.4000E+01
    -21.510  0.0000E+00  0.0000E+00  0.4000E+01  0.4000E+01
    -21.366  0.0000E+00  0.0000E+00  0.4000E+01  0.4000E+01
    -21.222  0.0000E+00  0.0000E+00  0.4000E+01  0.4000E+01
    -21.077  0.0000E+00  0.0000E+00  0.4000E+01  0.4000E+01
    -20.933  0.0000E+00  0.0000E+00  0.4000E+01  0.4000E+01
    -20.789  0.0000E+00  0.0000E+00  0.4000E+01  0.4000E+01
    -20.645  0.0000E+00  0.0000E+00  0.4000E+01  0.4000E+01
    -20.500  0.0000E+00  0.0000E+00  0.4000E+01  0.4000E+01
    -20.356  0.0000E+00  0.0000E+00  0.4000E+01  0.4000E+01
    -20.212  0.0000E+00  0.0000E+00  0.4000E+01  0.4000E+01
    -20.068  0.0000E+00  0.0000E+00  0.4000E+01  0.4000E+01
    -19.923  0.0000E+00  0.0000E+00  0.4000E+01  0.4000E+01
    -19.779  0.0000E+00  0.0000E+00  0.4000E+01  0.4000E+01
    -19.635  0.0000E+00  0.0000E+00  0.4000E+01  0.4000E+01
    -19.490  0.0000E+00  0.0000E+00  0.4000E+01  0.4000E+01
    -19.346  0.0000E+00  0.0000E+00  0.4000E+01  0.4000E+01
    -19.202  0.0000E+00  0.0000E+00  0.4000E+01  0.4000E+01
    -19.058  0.0000E+00  0.0000E+00  0.4000E+01  0.4000E+01
    -18.913  0.0000E+00  0.0000E+00  0.4000E+01  0.4000E+01
    -18.769  0.0000E+00  0.0000E+00  0.4000E+01  0.4000E+01
    -18.625  0.0000E+00  0.0000E+00  0.4000E+01  0.4000E+01
    -18.480  0.0000E+00  0.0000E+00  0.4000E+01  0.4000E+01
    -18.336  0.0000E+00  0.0000E+00  0.4000E+01  0.4000E+01
    -18.192  0.0000E+00  0.0000E+00  0.4000E+01  0.4000E+01
    -18.048  0.0000E+00  0.0000E+00  0.4000E+01  0.4000E+01
    -17.903  0.0000E+00  0.0000E+00  0.4000E+01  0.4000E+01
    -17.759  0.0000E+00  0.0000E+00  0.4000E+01  0.4000E+01
    -17.615  0.0000E+00  0.0000E+00  0.4000E+01  0.4000E+01
    -17.471  0.0000E+00  0.0000E+00  0.4000E+01  0.4000E+01
    -17.326  0.0000E+00  0.0000E+00  0.4000E+01  0.4000E+01
    -17.182  0.0000E+00  0.0000E+00  0.4000E+01  0.4000E+01
    -17.038  0.0000E+00  0.0000E+00  0.4000E+01  0.4000E+01
    -16.893  0.0000E+00  0.0000E+00  0.4000E+01  0.4000E+01
    -16.749  0.0000E+00  0.0000E+00  0.4000E+01  0.4000E+01
    -16.605  0.0000E+00  0.0000E+00  0.4000E+01  0.4000E+01
    -16.461  0.0000E+00  0.0000E+00  0.4000E+01  0.4000E+01
    -16.316  0.0000E+00  0.0000E+00  0.4000E+01  0.4000E+01
    -16.172  0.0000E+00  0.0000E+00  0.4000E+01  0.4000E+01
    -16.028  0.0000E+00  0.0000E+00  0.4000E+01  0.4000E+01
    -15.883  0.0000E+00  0.0000E+00  0.4000E+01  0.4000E+01
    -15.739  0.0000E+00  0.0000E+00  0.4000E+01  0.4000E+01
    -15.595  0.0000E+00  0.0000E+00  0.4000E+01  0.4000E+01
    -15.451  0.0000E+00  0.0000E+00  0.4000E+01  0.4000E+01
    -15.306  0.3802E-04  0.3802E-04  0.4000E+01  0.4000E+01
    -15.162  0.6659E-02  0.6659E-02  0.4001E+01  0.4001E+01
    -15.018  0.1164E+00  0.1164E+00  0.4018E+01  0.4018E+01
    -14.874  0.1967E+01  0.1967E+01  0.4302E+01  0.4302E+01
    -14.729  0.1922E+02  0.1922E+02  0.7074E+01  0.7074E+01
    -14.585  0.4461E+02  0.4461E+02  0.1351E+02  0.1351E+02
    -14.441  0.1593E+02  0.1593E+02  0.1581E+02  0.1581E+02
    -14.296  0.1171E+01  0.1171E+01  0.1599E+02  0.1599E+02
    -14.152  0.0000E+00  0.0000E+00  0.1600E+02  0.1600E+02
    -14.008  0.0000E+00  0.0000E+00  0.1600E+02  0.1600E+02
    -13.864  0.0000E+00  0.0000E+00  0.1600E+02  0.1600E+02
    -13.719  0.0000E+00  0.0000E+00  0.1600E+02  0.1600E+02
    -13.575  0.0000E+00  0.0000E+00  0.1600E+02  0.1600E+02
    -13.431  0.0000E+00  0.0000E+00  0.1600E+02  0.1600E+02
    -13.287  0.0000E+00  0.0000E+00  0.1600E+02  0.1600E+02
    -13.142  0.0000E+00  0.0000E+00  0.1600E+02  0.1600E+02
    -12.998  0.0000E+00  0.0000E+00  0.1600E+02  0.1600E+02
    -12.854  0.0000E+00  0.0000E+00  0.1600E+02  0.1600E+02
    -12.709  0.0000E+00  0.0000E+00  0.1600E+02  0.1600E+02
    -12.565  0.0000E+00  0.0000E+00  0.1600E+02  0.1600E+02
    -12.421  0.0000E+00  0.0000E+00  0.1600E+02  0.1600E+02
    -12.277  0.0000E+00  0.0000E+00  0.1600E+02  0.1600E+02
    -12.132  0.0000E+00  0.0000E+00  0.1600E+02  0.1600E+02
    -11.988  0.0000E+00  0.0000E+00  0.1600E+02  0.1600E+02
    -11.844  0.0000E+00  0.0000E+00  0.1600E+02  0.1600E+02
    -11.699  0.0000E+00  0.0000E+00  0.1600E+02  0.1600E+02
    -11.555  0.0000E+00  0.0000E+00  0.1600E+02  0.1600E+02
    -11.411  0.0000E+00  0.0000E+00  0.1600E+02  0.1600E+02
    -11.267  0.0000E+00  0.0000E+00  0.1600E+02  0.1600E+02
    -11.122  0.0000E+00  0.0000E+00  0.1600E+02  0.1600E+02
    -10.978  0.0000E+00  0.0000E+00  0.1600E+02  0.1600E+02
    -10.834  0.0000E+00  0.0000E+00  0.1600E+02  0.1600E+02
    -10.690  0.0000E+00  0.0000E+00  0.1600E+02  0.1600E+02
    -10.545  0.0000E+00  0.0000E+00  0.1600E+02  0.1600E+02
    -10.401  0.0000E+00  0.0000E+00  0.1600E+02  0.1600E+02
    -10.257  0.0000E+00  0.0000E+00  0.1600E+02  0.1600E+02
    -10.112  0.0000E+00  0.0000E+00  0.1600E+02  0.1600E+02
     -9.968  0.0000E+00  0.0000E+00  0.1600E+02  0.1600E+02
     -9.824  0.0000E+00  0.0000E+00  0.1600E+02  0.1600E+02
     -9.680  0.0000E+00  0.0000E+00  0.1600E+02  0.1600E+02
     -9.535  0.0000E+00  0.0000E+00  0.1600E+02  0.1600E+02
     -9.391  0.0000E+00  0.0000E+00  0.1600E+02  0.1600E+02
     -9.247  0.0000E+00  0.0000E+00  0.1600E+02  0.1600E+02
     -9.102  0.0000E+00  0.0000E+00  0.1600E+02  0.1600E+02
     -8.958  0.0000E+00  0.0000E+00  0.1600E+02  0.1600E+02
     -8.814  0.0000E+00  0.0000E+00  0.1600E+02  0.1600E+02
     -8.670  0.0000E+00  0.0000E+00  0.1600E+02  0.1600E+02
     -8.525  0.0000E+00  0.0000E+00  0.1600E+02  0.1600E+02
     -8.381  0.0000E+00  0.0000E+00  0.1600E+02  0.1600E+02
     -8.237  0.0000E+00  0.0000E+00  0.1600E+02  0.1600E+02
     -8.093  0.0000E+00  0.0000E+00  0.1600E+02  0.1600E+02
     -7.948  0.0000E+00  0.0000E+00  0.1600E+02  0.1600E+02
     -7.804  0.0000E+00  0.0000E+00  0.1600E+02  0.1600E+02
     -7.660  0.0000E+00  0.0000E+00  0.1600E+02  0.1600E+02
     -7.515  0.0000E+00  0.0000E+00  0.1600E+02  0.1600E+02
     -7.371  0.0000E+00  0.0000E+00  0.1600E+02  0.1600E+02
     -7.227  0.0000E+00  0.0000E+00  0.1600E+02  0.1600E+02
     -7.083  0.0000E+00  0.0000E+00  0.1600E+02  0.1600E+02
     -6.938  0.0000E+00  0.0000E+00  0.1600E+02  0.1600E+02
     -6.794  0.0000E+00  0.0000E+00  0.1600E+02  0.1600E+02
     -6.650  0.0000E+00  0.0000E+00  0.1600E+02  0.1600E+02
     -6.505  0.0000E+00  0.0000E+00  0.1600E+02  0.1600E+02
     -6.361  0.0000E+00  0.0000E+00  0.1600E+02  0.1600E+02
     -6.217  0.0000E+00  0.0000E+00  0.1600E+02  0.1600E+02
     -6.073  0.0000E+00  0.0000E+00  0.1600E+02  0.1600E+02
     -5.928  0.0000E+00  0.0000E+00  0.1600E+02  0.1600E+02
     -5.784  0.3956E-05  0.4017E-05  0.1600E+02  0.1600E+02
     -5.640  0.2114E-03  0.2146E-03  0.1600E+02  0.1600E+02
     -5.496  0.3783E-02  0.3841E-02  0.1600E+02  0.1600E+02
     -5.351  0.5966E-01  0.6047E-01  0.1601E+02  0.1601E+02
     -5.207  0.4032E+00  0.4056E+00  0.1607E+02  0.1607E+02
     -5.063  0.7169E+00  0.7179E+00  0.1617E+02  0.1617E+02
     -4.918  0.7112E+00  0.7105E+00  0.1627E+02  0.1627E+02
     -4.774  0.8322E+00  0.8330E+00  0.1639E+02  0.1639E+02
     -4.630  0.7073E+00  0.7066E+00  0.1650E+02  0.1650E+02
     -4.486  0.7198E+00  0.7211E+00  0.1660E+02  0.1660E+02
     -4.341  0.9213E+00  0.9208E+00  0.1673E+02  0.1673E+02
     -4.197  0.5907E+00  0.5887E+00  0.1682E+02  0.1682E+02
     -4.053  0.7990E+00  0.8030E+00  0.1693E+02  0.1694E+02
     -3.908  0.9833E+00  0.9785E+00  0.1708E+02  0.1708E+02
     -3.764  0.8109E+00  0.8061E+00  0.1719E+02  0.1719E+02
     -3.620  0.1317E+01  0.1316E+01  0.1738E+02  0.1738E+02
     -3.476  0.1695E+01  0.1695E+01  0.1763E+02  0.1763E+02
     -3.331  0.1566E+01  0.1565E+01  0.1786E+02  0.1786E+02
     -3.187  0.1533E+01  0.1533E+01  0.1808E+02  0.1808E+02
     -3.043  0.1294E+01  0.1295E+01  0.1826E+02  0.1826E+02
     -2.899  0.1776E+01  0.1775E+01  0.1852E+02  0.1852E+02
     -2.754  0.1993E+01  0.1995E+01  0.1881E+02  0.1881E+02
     -2.610  0.1118E+01  0.1116E+01  0.1897E+02  0.1897E+02
     -2.466  0.2100E+01  0.2100E+01  0.1927E+02  0.1927E+02
     -2.321  0.2958E+01  0.2966E+01  0.1970E+02  0.1970E+02
     -2.177  0.3050E+01  0.3050E+01  0.2014E+02  0.2014E+02
     -2.033  0.3005E+01  0.3000E+01  0.2058E+02  0.2058E+02
     -1.889  0.2569E+01  0.2567E+01  0.2095E+02  0.2095E+02
     -1.744  0.2424E+01  0.2422E+01  0.2130E+02  0.2130E+02
     -1.600  0.1504E+01  0.1504E+01  0.2152E+02  0.2152E+02
     -1.456  0.1022E+01  0.1023E+01  0.2166E+02  0.2166E+02
     -1.311  0.1194E+01  0.1184E+01  0.2184E+02  0.2184E+02
     -1.167  0.1375E+01  0.1379E+01  0.2204E+02  0.2203E+02
     -1.023  0.8196E+00  0.8252E+00  0.2215E+02  0.2215E+02
     -0.879  0.9633E+00  0.9609E+00  0.2229E+02  0.2229E+02
     -0.734  0.1786E+01  0.1794E+01  0.2255E+02  0.2255E+02
     -0.590  0.3601E+01  0.3600E+01  0.2307E+02  0.2307E+02
     -0.446  0.3504E+01  0.3503E+01  0.2358E+02  0.2358E+02
     -0.302  0.2969E+01  0.2965E+01  0.2401E+02  0.2401E+02
     -0.157  0.2719E+01  0.2721E+01  0.2440E+02  0.2440E+02
     -0.013  0.2568E+01  0.2571E+01  0.2477E+02  0.2477E+02
      0.131  0.3608E+01  0.3607E+01  0.2529E+02  0.2529E+02
      0.276  0.3331E+01  0.3326E+01  0.2577E+02  0.2577E+02
      0.420  0.2621E+01  0.2622E+01  0.2615E+02  0.2615E+02
      0.564  0.3239E+01  0.3242E+01  0.2662E+02  0.2662E+02
      0.708  0.2965E+01  0.2972E+01  0.2705E+02  0.2705E+02
      0.853  0.2945E+01  0.2942E+01  0.2748E+02  0.2748E+02
      0.997  0.2070E+01  0.2061E+01  0.2778E+02  0.2777E+02
      1.141  0.2668E+01  0.2660E+01  0.2816E+02  0.2816E+02
      1.286  0.2882E+01  0.2887E+01  0.2858E+02  0.2858E+02
      1.430  0.2194E+01  0.2196E+01  0.2889E+02  0.2889E+02
      1.574  0.3102E+01  0.3101E+01  0.2934E+02  0.2934E+02
      1.718  0.4336E+01  0.4339E+01  0.2997E+02  0.2997E+02
      1.863  0.4443E+01  0.4441E+01  0.3061E+02  0.3061E+02
      2.007  0.5476E+01  0.5470E+01  0.3140E+02  0.3140E+02
      2.151  0.5822E+01  0.5832E+01  0.3224E+02  0.3224E+02
      2.295  0.3991E+01  0.3990E+01  0.3282E+02  0.3282E+02
      2.440  0.4669E+01  0.4664E+01  0.3350E+02  0.3350E+02
      2.584  0.4983E+01  0.4986E+01  0.3422E+02  0.3422E+02
      2.728  0.5299E+01  0.5291E+01  0.3498E+02  0.3498E+02
      2.873  0.5673E+01  0.5670E+01  0.3580E+02  0.3580E+02
      3.017  0.5663E+01  0.5669E+01  0.3662E+02  0.3662E+02
      3.161  0.4060E+01  0.4061E+01  0.3721E+02  0.3721E+02
      3.305  0.3345E+01  0.3338E+01  0.3769E+02  0.3769E+02
      3.450  0.3757E+01  0.3760E+01  0.3824E+02  0.3823E+02
      3.594  0.3842E+01  0.3838E+01  0.3879E+02  0.3879E+02
      3.738  0.3256E+01  0.3260E+01  0.3926E+02  0.3926E+02
      3.883  0.4266E+01  0.4264E+01  0.3988E+02  0.3988E+02
      4.027  0.4367E+01  0.4372E+01  0.4051E+02  0.4051E+02
      4.171  0.4057E+01  0.4057E+01  0.4110E+02  0.4109E+02
      4.315  0.4536E+01  0.4538E+01  0.4175E+02  0.4175E+02
      4.460  0.6516E+01  0.6523E+01  0.4269E+02  0.4269E+02
      4.604  0.6930E+01  0.6933E+01  0.4369E+02  0.4369E+02
      4.748  0.5947E+01  0.5942E+01  0.4455E+02  0.4455E+02
      4.892  0.6401E+01  0.6397E+01  0.4548E+02  0.4548E+02
      5.037  0.6939E+01  0.6947E+01  0.4648E+02  0.4648E+02
      5.181  0.6351E+01  0.6354E+01  0.4740E+02  0.4740E+02
      5.325  0.5593E+01  0.5583E+01  0.4821E+02  0.4821E+02
      5.470  0.5569E+01  0.5569E+01  0.4902E+02  0.4901E+02
      5.614  0.5002E+01  0.5001E+01  0.4974E+02  0.4974E+02
      5.758  0.4863E+01  0.4871E+01  0.5044E+02  0.5044E+02
      5.902  0.3150E+01  0.3241E+01  0.5090E+02  0.5091E+02
      6.047  0.2225E+01  0.2369E+01  0.5122E+02  0.5125E+02
      6.191  0.1947E+01  0.1975E+01  0.5150E+02  0.5154E+02
      6.335  0.2010E+01  0.1818E+01  0.5179E+02  0.5180E+02
      6.480  0.9832E+00  0.9155E+00  0.5194E+02  0.5194E+02
      6.624  0.3165E+00  0.3620E+00  0.5198E+02  0.5199E+02
      6.768  0.1015E+00  0.6558E-01  0.5200E+02  0.5200E+02
      6.912  0.1547E-01  0.3064E-02  0.5200E+02  0.5200E+02
      7.057  0.9104E-03  0.0000E+00  0.5200E+02  0.5200E+02
      7.201  0.0000E+00  0.0000E+00  0.5200E+02  0.5200E+02
      7.345  0.0000E+00  0.0000E+00  0.5200E+02  0.5200E+02
      7.489  0.0000E+00  0.0000E+00  0.5200E+02  0.5200E+02
      7.634  0.0000E+00  0.0000E+00  0.5200E+02  0.5200E+02
      7.778  0.0000E+00  0.0000E+00  0.5200E+02  0.5200E+02
      7.922  0.0000E+00  0.0000E+00  0.5200E+02  0.5200E+02
      8.067  0.0000E+00  0.0000E+00  0.5200E+02  0.5200E+02
      8.211  0.0000E+00  0.0000E+00  0.5200E+02  0.5200E+02
      8.355  0.0000E+00  0.0000E+00  0.5200E+02  0.5200E+02
      8.499  0.0000E+00  0.0000E+00  0.5200E+02  0.5200E+02
      8.644  0.0000E+00  0.0000E+00  0.5200E+02  0.5200E+02
      8.64370123    -34.63959151  301      3.39004501      1.00000000
    -34.640  0.0000E+00  0.0000E+00  0.0000E+00  0.0000E+00  0.0000E+00  0.0000E+00  0.0000E+00  0.0000E+00  0.0000E+00  0.0000E+00  0.0000E+00  0.0000E+00  0.0000E+00  0.0000E+00  0.0000E+00  0.0000E+00  0.0000E+00  0.0000E+00
    -34.495  0.0000E+00  0.0000E+00  0.0000E+00  0.0000E+00  0.0000E+00  0.0000E+00  0.0000E+00  0.0000E+00  0.0000E+00  0.0000E+00  0.0000E+00  0.0000E+00  0.0000E+00  0.0000E+00  0.0000E+00  0.0000E+00  0.0000E+00  0.0000E+00
    -34.351  0.0000E+00  0.0000E+00  0.0000E+00  0.0000E+00  0.0000E+00  0.0000E+00  0.0000E+00  0.0000E+00  0.0000E+00  0.0000E+00  0.0000E+00  0.0000E+00  0.0000E+00  0.0000E+00  0.0000E+00  0.0000E+00  0.0000E+00  0.0000E+00
    -34.207  0.0000E+00  0.0000E+00  0.0000E+00  0.0000E+00  0.0000E+00  0.0000E+00  0.0000E+00  0.0000E+00  0.0000E+00  0.0000E+00  0.0000E+00  0.0000E+00  0.0000E+00  0.0000E+00  0.0000E+00  0.0000E+00  0.0000E+00  0.0000E+00
    -34.062  0.0000E+00  0.0000E+00  0.0000E+00  0.0000E+00  0.0000E+00  0.0000E+00  0.0000E+00  0.0000E+00  0.0000E+00  0.0000E+00  0.0000E+00  0.0000E+00  0.0000E+00  0.0000E+00  0.0000E+00  0.0000E+00  0.0000E+00  0.0000E+00
    -33.918  0.0000E+00  0.0000E+00  0.0000E+00  0.0000E+00  0.0000E+00  0.0000E+00  0.0000E+00  0.0000E+00  0.0000E+00  0.0000E+00  0.0000E+00  0.0000E+00  0.0000E+00  0.0000E+00  0.0000E+00  0.0000E+00  0.0000E+00  0.0000E+00
    -33.774  0.0000E+00  0.0000E+00  0.0000E+00  0.0000E+00  0.0000E+00  0.0000E+00  0.0000E+00  0.0000E+00  0.0000E+00  0.0000E+00  0.0000E+00  0.0000E+00  0.0000E+00  0.0000E+00  0.0000E+00  0.0000E+00  0.0000E+00  0.0000E+00
    -33.630  0.0000E+00  0.0000E+00  0.0000E+00  0.0000E+00  0.0000E+00  0.0000E+00  0.0000E+00  0.0000E+00  0.0000E+00  0.0000E+00  0.0000E+00  0.0000E+00  0.0000E+00  0.0000E+00  0.0000E+00  0.0000E+00  0.0000E+00  0.0000E+00
    -33.485  0.0000E+00  0.0000E+00  0.0000E+00  0.0000E+00  0.0000E+00  0.0000E+00  0.0000E+00  0.0000E+00  0.0000E+00  0.0000E+00  0.0000E+00  0.0000E+00  0.0000E+00  0.0000E+00  0.0000E+00  0.0000E+00  0.0000E+00  0.0000E+00
    -33.341  0.0000E+00  0.0000E+00  0.0000E+00  0.0000E+00  0.0000E+00  0.0000E+00  0.0000E+00  0.0000E+00  0.0000E+00  0.0000E+00  0.0000E+00  0.0000E+00  0.0000E+00  0.0000E+00  0.0000E+00  0.0000E+00  0.0000E+00  0.0000E+00
    -33.197  0.1622E-03  0.1626E-03  0.1456E-10  0.1459E-10  0.1936E-11  0.1853E-11  0.1456E-10  0.1459E-10  0.3955E-15  0.4161E-15  0.1410E-14  0.1395E-14  0.1067E-09  0.1069E-09  0.1410E-14  0.1395E-14  0.8895E-11  0.8908E-11
    -33.053  0.2742E-02  0.2749E-02  0.2462E-09  0.2466E-09  0.3274E-10  0.3133E-10  0.2462E-09  0.2466E-09  0.6687E-14  0.7036E-14  0.2383E-13  0.2359E-13  0.1804E-08  0.1808E-08  0.2383E-13  0.2359E-13  0.1504E-09  0.1506E-09
    -32.908  0.4874E-01  0.4887E-01  0.4376E-08  0.4385E-08  0.5820E-09  0.5570E-09  0.4376E-08  0.4385E-08  0.1189E-12  0.1251E-12  0.4236E-12  0.4193E-12  0.3207E-07  0.3213E-07  0.4236E-12  0.4193E-12  0.2673E-08  0.2677E-08
    -32.764  0.7675E+00  0.7694E+00  0.6893E-07  0.6904E-07  0.9166E-08  0.8769E-08  0.6893E-07  0.6904E-07  0.1873E-11  0.1969E-11  0.6668E-11  0.6597E-11  0.5037E-06  0.5044E-06  0.6668E-11  0.6597E-11  0.4213E-07  0.4218E-07
    -32.620  0.4001E+01  0.4003E+01  0.3594E-06  0.3593E-06  0.4779E-07  0.4564E-07  0.3594E-06  0.3593E-06  0.9771E-11  0.1025E-10  0.3463E-10  0.3417E-10  0.2587E-05  0.2585E-05  0.3463E-10  0.3417E-10  0.2201E-06  0.2199E-06
    -32.475  0.1815E+01  0.1811E+01  0.1629E-06  0.1625E-06  0.2169E-07  0.2066E-07  0.1629E-06  0.1625E-06  0.4428E-11  0.4629E-11  0.1563E-10  0.1536E-10  0.1152E-05  0.1149E-05  0.1563E-10  0.1536E-10  0.9978E-07  0.9945E-07
    -32.331  0.1427E+00  0.1423E+00  0.1280E-07  0.1276E-07  0.1706E-08  0.1623E-08  0.1280E-07  0.1276E-07  0.3478E-12  0.3632E-12  0.1226E-11  0.1204E-11  0.9001E-07  0.8968E-07  0.1226E-11  0.1204E-11  0.7835E-08  0.7803E-08
    -32.187  0.0000E+00  0.0000E+00  0.0000E+00  0.0000E+00  0.0000E+00  0.0000E+00  0.0000E+00  0.0000E+00  0.0000E+00  0.0000E+00  0.0000E+00  0.0000E+00  0.0000E+00  0.0000E+00  0.0000E+00  0.0000E+00  0.0000E+00  0.0000E+00
    -32.043  0.0000E+00  0.0000E+00  0.0000E+00  0.0000E+00  0.0000E+00  0.0000E+00  0.0000E+00  0.0000E+00  0.0000E+00  0.0000E+00  0.0000E+00  0.0000E+00  0.0000E+00  0.0000E+00  0.0000E+00  0.0000E+00  0.0000E+00  0.0000E+00
    -31.898  0.0000E+00  0.0000E+00  0.0000E+00  0.0000E+00  0.0000E+00  0.0000E+00  0.0000E+00  0.0000E+00  0.0000E+00  0.0000E+00  0.0000E+00  0.0000E+00  0.0000E+00  0.0000E+00  0.0000E+00  0.0000E+00  0.0000E+00  0.0000E+00
    -31.754  0.0000E+00  0.0000E+00  0.0000E+00  0.0000E+00  0.0000E+00  0.0000E+00  0.0000E+00  0.0000E+00  0.0000E+00  0.0000E+00  0.0000E+00  0.0000E+00  0.0000E+00  0.0000E+00  0.0000E+00  0.0000E+00  0.0000E+00  0.0000E+00
    -31.610  0.0000E+00  0.0000E+00  0.0000E+00  0.0000E+00  0.0000E+00  0.0000E+00  0.0000E+00  0.0000E+00  0.0000E+00  0.0000E+00  0.0000E+00  0.0000E+00  0.0000E+00  0.0000E+00  0.0000E+00  0.0000E+00  0.0000E+00  0.0000E+00
    -31.465  0.0000E+00  0.0000E+00  0.0000E+00  0.0000E+00  0.0000E+00  0.0000E+00  0.0000E+00  0.0000E+00  0.0000E+00  0.0000E+00  0.0000E+00  0.0000E+00  0.0000E+00  0.0000E+00  0.0000E+00  0.0000E+00  0.0000E+00  0.0000E+00
    -31.321  0.0000E+00  0.0000E+00  0.0000E+00  0.0000E+00  0.0000E+00  0.0000E+00  0.0000E+00  0.0000E+00  0.0000E+00  0.0000E+00  0.0000E+00  0.0000E+00  0.0000E+00  0.0000E+00  0.0000E+00  0.0000E+00  0.0000E+00  0.0000E+00
    -31.177  0.0000E+00  0.0000E+00  0.0000E+00  0.0000E+00  0.0000E+00  0.0000E+00  0.0000E+00  0.0000E+00  0.0000E+00  0.0000E+00  0.0000E+00  0.0000E+00  0.0000E+00  0.0000E+00  0.0000E+00  0.0000E+00  0.0000E+00  0.0000E+00
    -31.033  0.0000E+00  0.0000E+00  0.0000E+00  0.0000E+00  0.0000E+00  0.0000E+00  0.0000E+00  0.0000E+00  0.0000E+00  0.0000E+00  0.0000E+00  0.0000E+00  0.0000E+00  0.0000E+00  0.0000E+00  0.0000E+00  0.0000E+00  0.0000E+00
    -30.888  0.0000E+00  0.0000E+00  0.0000E+00  0.0000E+00  0.0000E+00  0.0000E+00  0.0000E+00  0.0000E+00  0.0000E+00  0.0000E+00  0.0000E+00  0.0000E+00  0.0000E+00  0.0000E+00  0.0000E+00  0.0000E+00  0.0000E+00  0.0000E+00
    -30.744  0.0000E+00  0.0000E+00  0.0000E+00  0.0000E+00  0.0000E+00  0.0000E+00  0.0000E+00  0.0000E+00  0.0000E+00  0.0000E+00  0.0000E+00  0.0000E+00  0.0000E+00  0.0000E+00  0.0000E+00  0.0000E+00  0.0000E+00  0.0000E+00
    -30.600  0.0000E+00  0.0000E+00  0.0000E+00  0.0000E+00  0.0000E+00  0.0000E+00  0.0000E+00  0.0000E+00  0.0000E+00  0.0000E+00  0.0000E+00  0.0000E+00  0.0000E+00  0.0000E+00  0.0000E+00  0.0000E+00  0.0000E+00  0.0000E+00
    -30.456  0.0000E+00  0.0000E+00  0.0000E+00  0.0000E+00  0.0000E+00  0.0000E+00  0.0000E+00  0.0000E+00  0.0000E+00  0.0000E+00  0.0000E+00  0.0000E+00  0.0000E+00  0.0000E+00  0.0000E+00  0.0000E+00  0.0000E+00  0.0000E+00
    -30.311  0.0000E+00  0.0000E+00  0.0000E+00  0.0000E+00  0.0000E+00  0.0000E+00  0.0000E+00  0.0000E+00  0.0000E+00  0.0000E+00  0.0000E+00  0.0000E+00  0.0000E+00  0.0000E+00  0.0000E+00  0.0000E+00  0.0000E+00  0.0000E+00
    -30.167  0.0000E+00  0.0000E+00  0.0000E+00  0.0000E+00  0.0000E+00  0.0000E+00  0.0000E+00  0.0000E+00  0.0000E+00  0.0000E+00  0.0000E+00  0.0000E+00  0.0000E+00  0.0000E+00  0.0000E+00  0.0000E+00  0.0000E+00  0.0000E+00
    -30.023  0.0000E+00  0.0000E+00  0.0000E+00  0.0000E+00  0.0000E+00  0.0000E+00  0.0000E+00  0.0000E+00  0.0000E+00  0.0000E+00  0.0000E+00  0.0000E+00  0.0000E+00  0.0000E+00  0.0000E+00  0.0000E+00  0.0000E+00  0.0000E+00
    -29.878  0.0000E+00  0.0000E+00  0.0000E+00  0.0000E+00  0.0000E+00  0.0000E+00  0.0000E+00  0.0000E+00  0.0000E+00  0.0000E+00  0.0000E+00  0.0000E+00  0.0000E+00  0.0000E+00  0.0000E+00  0.0000E+00  0.0000E+00  0.0000E+00
    -29.734  0.0000E+00  0.0000E+00  0.0000E+00  0.0000E+00  0.0000E+00  0.0000E+00  0.0000E+00  0.0000E+00  0.0000E+00  0.0000E+00  0.0000E+00  0.0000E+00  0.0000E+00  0.0000E+00  0.0000E+00  0.0000E+00  0.0000E+00  0.0000E+00
    -29.590  0.0000E+00  0.0000E+00  0.0000E+00  0.0000E+00  0.0000E+00  0.0000E+00  0.0000E+00  0.0000E+00  0.0000E+00  0.0000E+00  0.0000E+00  0.0000E+00  0.0000E+00  0.0000E+00  0.0000E+00  0.0000E+00  0.0000E+00  0.0000E+00
    -29.446  0.0000E+00  0.0000E+00  0.0000E+00  0.0000E+00  0.0000E+00  0.0000E+00  0.0000E+00  0.0000E+00  0.0000E+00  0.0000E+00  0.0000E+00  0.0000E+00  0.0000E+00  0.0000E+00  0.0000E+00  0.0000E+00  0.0000E+00  0.0000E+00
    -29.301  0.0000E+00  0.0000E+00  0.0000E+00  0.0000E+00  0.0000E+00  0.0000E+00  0.0000E+00  0.0000E+00  0.0000E+00  0.0000E+00  0.0000E+00  0.0000E+00  0.0000E+00  0.0000E+00  0.0000E+00  0.0000E+00  0.0000E+00  0.0000E+00
    -29.157  0.0000E+00  0.0000E+00  0.0000E+00  0.0000E+00  0.0000E+00  0.0000E+00  0.0000E+00  0.0000E+00  0.0000E+00  0.0000E+00  0.0000E+00  0.0000E+00  0.0000E+00  0.0000E+00  0.0000E+00  0.0000E+00  0.0000E+00  0.0000E+00
    -29.013  0.0000E+00  0.0000E+00  0.0000E+00  0.0000E+00  0.0000E+00  0.0000E+00  0.0000E+00  0.0000E+00  0.0000E+00  0.0000E+00  0.0000E+00  0.0000E+00  0.0000E+00  0.0000E+00  0.0000E+00  0.0000E+00  0.0000E+00  0.0000E+00
    -28.868  0.0000E+00  0.0000E+00  0.0000E+00  0.0000E+00  0.0000E+00  0.0000E+00  0.0000E+00  0.0000E+00  0.0000E+00  0.0000E+00  0.0000E+00  0.0000E+00  0.0000E+00  0.0000E+00  0.0000E+00  0.0000E+00  0.0000E+00  0.0000E+00
    -28.724  0.0000E+00  0.0000E+00  0.0000E+00  0.0000E+00  0.0000E+00  0.0000E+00  0.0000E+00  0.0000E+00  0.0000E+00  0.0000E+00  0.0000E+00  0.0000E+00  0.0000E+00  0.0000E+00  0.0000E+00  0.0000E+00  0.0000E+00  0.0000E+00
    -28.580  0.0000E+00  0.0000E+00  0.0000E+00  0.0000E+00  0.0000E+00  0.0000E+00  0.0000E+00  0.0000E+00  0.0000E+00  0.0000E+00  0.0000E+00  0.0000E+00  0.0000E+00  0.0000E+00  0.0000E+00  0.0000E+00  0.0000E+00  0.0000E+00
    -28.436  0.0000E+00  0.0000E+00  0.0000E+00  0.0000E+00  0.0000E+00  0.0000E+00  0.0000E+00  0.0000E+00  0.0000E+00  0.0000E+00  0.0000E+00  0.0000E+00  0.0000E+00  0.0000E+00  0.0000E+00  0.0000E+00  0.0000E+00  0.0000E+00
    -28.291  0.0000E+00  0.0000E+00  0.0000E+00  0.0000E+00  0.0000E+00  0.0000E+00  0.0000E+00  0.0000E+00  0.0000E+00  0.0000E+00  0.0000E+00  0.0000E+00  0.0000E+00  0.0000E+00  0.0000E+00  0.0000E+00  0.0000E+00  0.0000E+00
    -28.147  0.0000E+00  0.0000E+00  0.0000E+00  0.0000E+00  0.0000E+00  0.0000E+00  0.0000E+00  0.0000E+00  0.0000E+00  0.0000E+00  0.0000E+00  0.0000E+00  0.0000E+00  0.0000E+00  0.0000E+00  0.0000E+00  0.0000E+00  0.0000E+00
    -28.003  0.0000E+00  0.0000E+00  0.0000E+00  0.0000E+00  0.0000E+00  0.0000E+00  0.0000E+00  0.0000E+00  0.0000E+00  0.0000E+00  0.0000E+00  0.0000E+00  0.0000E+00  0.0000E+00  0.0000E+00  0.0000E+00  0.0000E+00  0.0000E+00
    -27.859  0.0000E+00  0.0000E+00  0.0000E+00  0.0000E+00  0.0000E+00  0.0000E+00  0.0000E+00  0.0000E+00  0.0000E+00  0.0000E+00  0.0000E+00  0.0000E+00  0.0000E+00  0.0000E+00  0.0000E+00  0.0000E+00  0.0000E+00  0.0000E+00
    -27.714  0.0000E+00  0.0000E+00  0.0000E+00  0.0000E+00  0.0000E+00  0.0000E+00  0.0000E+00  0.0000E+00  0.0000E+00  0.0000E+00  0.0000E+00  0.0000E+00  0.0000E+00  0.0000E+00  0.0000E+00  0.0000E+00  0.0000E+00  0.0000E+00
    -27.570  0.0000E+00  0.0000E+00  0.0000E+00  0.0000E+00  0.0000E+00  0.0000E+00  0.0000E+00  0.0000E+00  0.0000E+00  0.0000E+00  0.0000E+00  0.0000E+00  0.0000E+00  0.0000E+00  0.0000E+00  0.0000E+00  0.0000E+00  0.0000E+00
    -27.426  0.0000E+00  0.0000E+00  0.0000E+00  0.0000E+00  0.0000E+00  0.0000E+00  0.0000E+00  0.0000E+00  0.0000E+00  0.0000E+00  0.0000E+00  0.0000E+00  0.0000E+00  0.0000E+00  0.0000E+00  0.0000E+00  0.0000E+00  0.0000E+00