   4   4   1   0
  0.1992533E+02  0.4302543E-09  0.4303979E-09  0.4303979E-09  0.5000000E-15
  1.000000000000000E-004
  CAR 
 unknown system                          
     14.05447161    -36.40727641  301      5.75291916      1.00000000
    -36.407  0.0000E+00  0.0000E+00  0.0000E+00  0.0000E+00
    -36.239  0.0000E+00  0.0000E+00  0.0000E+00  0.0000E+00
    -36.071  0.0000E+00  0.0000E+00  0.0000E+00  0.0000E+00
    -35.903  0.0000E+00  0.0000E+00  0.0000E+00  0.0000E+00
    -35.734  0.0000E+00  0.0000E+00  0.0000E+00  0.0000E+00
    -35.566  0.0000E+00  0.0000E+00  0.0000E+00  0.0000E+00
    -35.398  0.0000E+00  0.0000E+00  0.0000E+00  0.0000E+00
    -35.230  0.0000E+00  0.0000E+00  0.0000E+00  0.0000E+00
    -35.062  0.0000E+00  0.0000E+00  0.0000E+00  0.0000E+00
    -34.893  0.0000E+00  0.0000E+00  0.0000E+00  0.0000E+00
    -34.725  0.0000E+00  0.0000E+00  0.0000E+00  0.0000E+00
    -34.557  0.7908E-03  0.7690E-03  0.1330E-03  0.1293E-03
    -34.389  0.2198E-01  0.2138E-01  0.3831E-02  0.3726E-02
    -34.221  0.5720E+00  0.5578E+00  0.1000E+00  0.9755E-01
    -34.052  0.3939E+01  0.3923E+01  0.7626E+00  0.7575E+00
    -33.884  0.1348E+01  0.1377E+01  0.9893E+00  0.9890E+00
    -33.716  0.6113E-01  0.6284E-01  0.9996E+00  0.9996E+00
    -33.548  0.0000E+00  0.0000E+00  0.1000E+01  0.1000E+01
    -33.380  0.0000E+00  0.0000E+00  0.1000E+01  0.1000E+01
    -33.211  0.0000E+00  0.0000E+00  0.1000E+01  0.1000E+01
    -33.043  0.0000E+00  0.0000E+00  0.1000E+01  0.1000E+01
    -32.875  0.0000E+00  0.0000E+00  0.1000E+01  0.1000E+01
    -32.707  0.0000E+00  0.0000E+00  0.1000E+01  0.1000E+01
    -32.539  0.0000E+00  0.0000E+00  0.1000E+01  0.1000E+01
    -32.370  0.0000E+00  0.0000E+00  0.1000E+01  0.1000E+01
    -32.202  0.0000E+00  0.0000E+00  0.1000E+01  0.1000E+01
    -32.034  0.0000E+00  0.0000E+00  0.1000E+01  0.1000E+01
    -31.866  0.0000E+00  0.0000E+00  0.1000E+01  0.1000E+01
    -31.698  0.0000E+00  0.0000E+00  0.1000E+01  0.1000E+01
    -31.529  0.0000E+00  0.0000E+00  0.1000E+01  0.1000E+01
    -31.361  0.0000E+00  0.0000E+00  0.1000E+01  0.1000E+01
    -31.193  0.0000E+00  0.0000E+00  0.1000E+01  0.1000E+01
    -31.025  0.0000E+00  0.0000E+00  0.1000E+01  0.1000E+01
    -30.856  0.0000E+00  0.0000E+00  0.1000E+01  0.1000E+01
    -30.688  0.0000E+00  0.0000E+00  0.1000E+01  0.1000E+01
    -30.520  0.0000E+00  0.0000E+00  0.1000E+01  0.1000E+01
    -30.352  0.0000E+00  0.0000E+00  0.1000E+01  0.1000E+01
    -30.184  0.0000E+00  0.0000E+00  0.1000E+01  0.1000E+01
    -30.015  0.0000E+00  0.0000E+00  0.1000E+01  0.1000E+01
    -29.847  0.0000E+00  0.0000E+00  0.1000E+01  0.1000E+01
    -29.679  0.0000E+00  0.0000E+00  0.1000E+01  0.1000E+01
    -29.511  0.0000E+00  0.0000E+00  0.1000E+01  0.1000E+01
    -29.343  0.0000E+00  0.0000E+00  0.1000E+01  0.1000E+01
    -29.174  0.0000E+00  0.0000E+00  0.1000E+01  0.1000E+01
    -29.006  0.0000E+00  0.0000E+00  0.1000E+01  0.1000E+01
    -28.838  0.0000E+00  0.0000E+00  0.1000E+01  0.1000E+01
    -28.670  0.0000E+00  0.0000E+00  0.1000E+01  0.1000E+01
    -28.502  0.0000E+00  0.0000E+00  0.1000E+01  0.1000E+01
    -28.333  0.0000E+00  0.0000E+00  0.1000E+01  0.1000E+01
    -28.165  0.0000E+00  0.0000E+00  0.1000E+01  0.1000E+01
    -27.997  0.0000E+00  0.0000E+00  0.1000E+01  0.1000E+01
    -27.829  0.0000E+00  0.0000E+00  0.1000E+01  0.1000E+01
    -27.661  0.0000E+00  0.0000E+00  0.1000E+01  0.1000E+01
    -27.492  0.0000E+00  0.0000E+00  0.1000E+01  0.1000E+01
    -27.324  0.0000E+00  0.0000E+00  0.1000E+01  0.1000E+01
    -27.156  0.0000E+00  0.0000E+00  0.1000E+01  0.1000E+01
    -26.988  0.0000E+00  0.0000E+00  0.1000E+01  0.1000E+01
    -26.820  0.0000E+00  0.0000E+00  0.1000E+01  0.1000E+01
    -26.651  0.0000E+00  0.0000E+00  0.1000E+01  0.1000E+01
    -26.483  0.0000E+00  0.0000E+00  0.1000E+01  0.1000E+01
    -26.315  0.0000E+00  0.0000E+00  0.1000E+01  0.1000E+01
    -26.147  0.0000E+00  0.0000E+00  0.1000E+01  0.1000E+01
    -25.979  0.0000E+00  0.0000E+00  0.1000E+01  0.1000E+01
    -25.810  0.0000E+00  0.0000E+00  0.1000E+01  0.1000E+01
    -25.642  0.0000E+00  0.0000E+00  0.1000E+01  0.1000E+01
    -25.474  0.0000E+00  0.0000E+00  0.1000E+01  0.1000E+01
    -25.306  0.0000E+00  0.0000E+00  0.1000E+01  0.1000E+01
    -25.137  0.0000E+00  0.0000E+00  0.1000E+01  0.1000E+01
    -24.969  0.0000E+00  0.0000E+00  0.1000E+01  0.1000E+01
    -24.801  0.0000E+00  0.0000E+00  0.1000E+01  0.1000E+01
    -24.633  0.0000E+00  0.0000E+00  0.1000E+01  0.1000E+01
    -24.465  0.0000E+00  0.0000E+00  0.1000E+01  0.1000E+01
    -24.296  0.0000E+00  0.0000E+00  0.1000E+01  0.1000E+01
    -24.128  0.0000E+00  0.0000E+00  0.1000E+01  0.1000E+01
    -23.960  0.0000E+00  0.0000E+00  0.1000E+01  0.1000E+01
    -23.792  0.0000E+00  0.0000E+00  0.1000E+01  0.1000E+01
    -23.624  0.0000E+00  0.0000E+00  0.1000E+01  0.1000E+01
    -23.455  0.0000E+00  0.0000E+00  0.1000E+01  0.1000E+01
    -23.287  0.0000E+00  0.0000E+00  0.1000E+01  0.1000E+01
    -23.119  0.0000E+00  0.0000E+00  0.1000E+01  0.1000E+01
    -22.951  0.0000E+00  0.0000E+00  0.1000E+01  0.1000E+01
    -22.783  0.0000E+00  0.0000E+00  0.1000E+01  0.1000E+01
    -22.614  0.0000E+00  0.0000E+00  0.1000E+01  0.1000E+01
    -22.446  0.0000E+00  0.0000E+00  0.1000E+01  0.1000E+01
    -22.278  0.0000E+00  0.0000E+00  0.1000E+01  0.1000E+01
    -22.110  0.0000E+00  0.0000E+00  0.1000E+01  0.1000E+01
    -21.942  0.0000E+00  0.0000E+00  0.1000E+01  0.1000E+01
    -21.773  0.0000E+00  0.0000E+00  0.1000E+01  0.1000E+01
    -21.605  0.0000E+00  0.0000E+00  0.1000E+01  0.1000E+01
    -21.437  0.0000E+00  0.0000E+00  0.1000E+01  0.1000E+01
    -21.269  0.0000E+00  0.0000E+00  0.1000E+01  0.1000E+01
    -21.101  0.0000E+00  0.0000E+00  0.1000E+01  0.1000E+01
    -20.932  0.0000E+00  0.0000E+00  0.1000E+01  0.1000E+01
    -20.764  0.0000E+00  0.0000E+00  0.1000E+01  0.1000E+01
    -20.596  0.0000E+00  0.0000E+00  0.1000E+01  0.1000E+01
    -20.428  0.0000E+00  0.0000E+00  0.1000E+01  0.1000E+01
    -20.260  0.0000E+00  0.0000E+00  0.1000E+01  0.1000E+01
    -20.091  0.0000E+00  0.0000E+00  0.1000E+01  0.1000E+01
    -19.923  0.0000E+00  0.0000E+00  0.1000E+01  0.1000E+01
    -19.755  0.0000E+00  0.0000E+00  0.1000E+01  0.1000E+01
    -19.587  0.0000E+00  0.0000E+00  0.1000E+01  0.1000E+01
    -19.418  0.0000E+00  0.0000E+00  0.1000E+01  0.1000E+01
    -19.250  0.0000E+00  0.0000E+00  0.1000E+01  0.1000E+01
    -19.082  0.0000E+00  0.0000E+00  0.1000E+01  0.1000E+01
    -18.914  0.0000E+00  0.0000E+00  0.1000E+01  0.1000E+01
    -18.746  0.0000E+00  0.0000E+00  0.1000E+01  0.1000E+01
    -18.577  0.0000E+00  0.0000E+00  0.1000E+01  0.1000E+01
    -18.409  0.0000E+00  0.0000E+00  0.1000E+01  0.1000E+01
    -18.241  0.0000E+00  0.0000E+00  0.1000E+01  0.1000E+01
    -18.073  0.0000E+00  0.0000E+00  0.1000E+01  0.1000E+01
    -17.905  0.0000E+00  0.0000E+00  0.1000E+01  0.1000E+01
    -17.736  0.0000E+00  0.0000E+00  0.1000E+01  0.1000E+01
    -17.568  0.0000E+00  0.0000E+00  0.1000E+01  0.1000E+01
    -17.400  0.0000E+00  0.0000E+00  0.1000E+01  0.1000E+01
    -17.232  0.0000E+00  0.0000E+00  0.1000E+01  0.1000E+01
    -17.064  0.0000E+00  0.0000E+00  0.1000E+01  0.1000E+01
    -16.895  0.0000E+00  0.0000E+00  0.1000E+01  0.1000E+01
    -16.727  0.0000E+00  0.0000E+00  0.1000E+01  0.1000E+01
    -16.559  0.0000E+00  0.0000E+00  0.1000E+01  0.1000E+01
    -16.391  0.0000E+00  0.0000E+00  0.1000E+01  0.1000E+01
    -16.223  0.0000E+00  0.0000E+00  0.1000E+01  0.1000E+01
    -16.054  0.0000E+00  0.0000E+00  0.1000E+01  0.1000E+01
    -15.886  0.0000E+00  0.0000E+00  0.1000E+01  0.1000E+01
    -15.718  0.2016E-02  0.1956E-02  0.1000E+01  0.1000E+01
    -15.550  0.5604E-01  0.5440E-01  0.1010E+01  0.1009E+01
    -15.382  0.1465E+01  0.1426E+01  0.1256E+01  0.1249E+01
    -15.213  0.1119E+02  0.1113E+02  0.3139E+01  0.3121E+01
    -15.045  0.4865E+01  0.4965E+01  0.3957E+01  0.3956E+01
    -14.877  0.2067E+00  0.2178E+00  0.3999E+01  0.3999E+01
    -14.709  0.0000E+00  0.0000E+00  0.4000E+01  0.4000E+01
    -14.541  0.0000E+00  0.0000E+00  0.4000E+01  0.4000E+01
    -14.372  0.0000E+00  0.0000E+00  0.4000E+01  0.4000E+01
    -14.204  0.0000E+00  0.0000E+00  0.4000E+01  0.4000E+01
    -14.036  0.0000E+00  0.0000E+00  0.4000E+01  0.4000E+01
    -13.868  0.0000E+00  0.0000E+00  0.4000E+01  0.4000E+01
    -13.699  0.0000E+00  0.0000E+00  0.4000E+01  0.4000E+01
    -13.531  0.0000E+00  0.0000E+00  0.4000E+01  0.4000E+01
    -13.363  0.0000E+00  0.0000E+00  0.4000E+01  0.4000E+01
    -13.195  0.0000E+00  0.0000E+00  0.4000E+01  0.4000E+01
    -13.027  0.0000E+00  0.0000E+00  0.4000E+01  0.4000E+01
    -12.858  0.0000E+00  0.0000E+00  0.4000E+01  0.4000E+01
    -12.690  0.0000E+00  0.0000E+00  0.4000E+01  0.4000E+01
    -12.522  0.0000E+00  0.0000E+00  0.4000E+01  0.4000E+01
    -12.354  0.0000E+00  0.0000E+00  0.4000E+01  0.4000E+01
    -12.186  0.0000E+00  0.0000E+00  0.4000E+01  0.4000E+01
    -12.017  0.0000E+00  0.0000E+00  0.4000E+01  0.4000E+01
    -11.849  0.0000E+00  0.0000E+00  0.4000E+01  0.4000E+01
    -11.681  0.0000E+00  0.0000E+00  0.4000E+01  0.4000E+01
    -11.513  0.0000E+00  0.0000E+00  0.4000E+01  0.4000E+01
    -11.345  0.0000E+00  0.0000E+00  0.4000E+01  0.4000E+01
    -11.176  0.0000E+00  0.0000E+00  0.4000E+01  0.4000E+01
    -11.008  0.0000E+00  0.0000E+00  0.4000E+01  0.4000E+01
    -10.840  0.0000E+00  0.0000E+00  0.4000E+01  0.4000E+01
    -10.672  0.0000E+00  0.0000E+00  0.4000E+01  0.4000E+01
    -10.504  0.0000E+00  0.0000E+00  0.4000E+01  0.4000E+01
    -10.335  0.0000E+00  0.0000E+00  0.4000E+01  0.4000E+01
    -10.167  0.0000E+00  0.0000E+00  0.4000E+01  0.4000E+01
     -9.999  0.0000E+00  0.0000E+00  0.4000E+01  0.4000E+01
     -9.831  0.0000E+00  0.0000E+00  0.4000E+01  0.4000E+01
     -9.663  0.0000E+00  0.0000E+00  0.4000E+01  0.4000E+01
     -9.494  0.0000E+00  0.0000E+00  0.4000E+01  0.4000E+01
     -9.326  0.0000E+00  0.0000E+00  0.4000E+01  0.4000E+01
     -9.158  0.0000E+00  0.0000E+00  0.4000E+01  0.4000E+01
     -8.990  0.0000E+00  0.0000E+00  0.4000E+01  0.4000E+01
     -8.822  0.0000E+00  0.0000E+00  0.4000E+01  0.4000E+01
     -8.653  0.0000E+00  0.0000E+00  0.4000E+01  0.4000E+01
     -8.485  0.0000E+00  0.0000E+00  0.4000E+01  0.4000E+01
     -8.317  0.0000E+00  0.0000E+00  0.4000E+01  0.4000E+01
     -8.149  0.0000E+00  0.0000E+00  0.4000E+01  0.4000E+01
     -7.980  0.0000E+00  0.0000E+00  0.4000E+01  0.4000E+01
     -7.812  0.0000E+00  0.0000E+00  0.4000E+01  0.4000E+01
     -7.644  0.0000E+00  0.0000E+00  0.4000E+01  0.4000E+01
     -7.476  0.0000E+00  0.0000E+00  0.4000E+01  0.4000E+01
     -7.308  0.0000E+00  0.0000E+00  0.4000E+01  0.4000E+01
     -7.139  0.0000E+00  0.0000E+00  0.4000E+01  0.4000E+01
     -6.971  0.0000E+00  0.0000E+00  0.4000E+01  0.4000E+01
     -6.803  0.0000E+00  0.0000E+00  0.4000E+01  0.4000E+01
     -6.635  0.0000E+00  0.0000E+00  0.4000E+01  0.4000E+01
     -6.467  0.0000E+00  0.0000E+00  0.4000E+01  0.4000E+01
     -6.298  0.0000E+00  0.0000E+00  0.4000E+01  0.4000E+01
     -6.130  0.0000E+00  0.0000E+00  0.4000E+01  0.4000E+01
     -5.962  0.0000E+00  0.0000E+00  0.4000E+01  0.4000E+01
     -5.794  0.0000E+00  0.0000E+00  0.4000E+01  0.4000E+01
     -5.626  0.0000E+00  0.0000E+00  0.4000E+01  0.4000E+01
     -5.457  0.0000E+00  0.0000E+00  0.4000E+01  0.4000E+01
     -5.289  0.0000E+00  0.0000E+00  0.4000E+01  0.4000E+01
     -5.121  0.0000E+00  0.0000E+00  0.4000E+01  0.4000E+01
     -4.953  0.0000E+00  0.0000E+00  0.4000E+01  0.4000E+01
     -4.785  0.0000E+00  0.0000E+00  0.4000E+01  0.4000E+01
     -4.616  0.0000E+00  0.0000E+00  0.4000E+01  0.4000E+01
     -4.448  0.0000E+00  0.0000E+00  0.4000E+01  0.4000E+01
     -4.280  0.0000E+00  0.0000E+00  0.4000E+01  0.4000E+01
     -4.112  0.0000E+00  0.0000E+00  0.4000E+01  0.4000E+01
     -3.944  0.0000E+00  0.0000E+00  0.4000E+01  0.4000E+01
     -3.775  0.0000E+00  0.0000E+00  0.4000E+01  0.4000E+01
     -3.607  0.3544E-06  0.3604E-06  0.4000E+01  0.4000E+01
     -3.439  0.1673E-04  0.1701E-04  0.4000E+01  0.4000E+01
     -3.271  0.4923E-03  0.5005E-03  0.4000E+01  0.4000E+01
     -3.103  0.1095E-01  0.1109E-01  0.4002E+01  0.4002E+01
     -2.934  0.6629E-01  0.6663E-01  0.4013E+01  0.4013E+01
     -2.766  0.1298E+00  0.1300E+00  0.4035E+01  0.4035E+01
     -2.598  0.1713E+00  0.1716E+00  0.4064E+01  0.4064E+01
     -2.430  0.2078E+00  0.2079E+00  0.4099E+01  0.4099E+01
     -2.261  0.2319E+00  0.2322E+00  0.4138E+01  0.4138E+01
     -2.093  0.2913E+00  0.2913E+00  0.4187E+01  0.4187E+01
     -1.925  0.2731E+00  0.2732E+00  0.4233E+01  0.4233E+01
     -1.757  0.3713E+00  0.3714E+00  0.4295E+01  0.4296E+01
     -1.589  0.3531E+00  0.3530E+00  0.4355E+01  0.4355E+01
     -1.420  0.4648E+00  0.4650E+00  0.4433E+01  0.4434E+01
     -1.252  0.4572E+00  0.4572E+00  0.4510E+01  0.4511E+01
     -1.084  0.4972E+00  0.4971E+00  0.4594E+01  0.4595E+01
     -0.916  0.3770E+00  0.3769E+00  0.4658E+01  0.4658E+01
     -0.748  0.4314E+00  0.4312E+00  0.4731E+01  0.4731E+01
     -0.579  0.3127E+00  0.3129E+00  0.4784E+01  0.4784E+01
     -0.411  0.4266E+00  0.4269E+00  0.4856E+01  0.4856E+01
     -0.243  0.4225E+00  0.4230E+00  0.4927E+01  0.4927E+01
     -0.075  0.4098E+00  0.4093E+00  0.4996E+01  0.4996E+01
      0.093  0.3929E+00  0.3934E+00  0.5062E+01  0.5063E+01
      0.262  0.4621E+00  0.4623E+00  0.5140E+01  0.5140E+01
      0.430  0.5073E+00  0.5072E+00  0.5226E+01  0.5226E+01
      0.598  0.4908E+00  0.4908E+00  0.5308E+01  0.5309E+01
      0.766  0.5618E+00  0.5621E+00  0.5403E+01  0.5403E+01
      0.934  0.7858E+00  0.7859E+00  0.5535E+01  0.5536E+01
      1.103  0.7950E+00  0.7950E+00  0.5669E+01  0.5670E+01
      1.271  0.7818E+00  0.7812E+00  0.5801E+01  0.5801E+01
      1.439  0.7841E+00  0.7837E+00  0.5933E+01  0.5933E+01
      1.607  0.6788E+00  0.6791E+00  0.6048E+01  0.6048E+01
      1.775  0.7676E+00  0.7678E+00  0.6177E+01  0.6177E+01
      1.944  0.6502E+00  0.6495E+00  0.6287E+01  0.6287E+01
      2.112  0.5476E+00  0.5475E+00  0.6379E+01  0.6379E+01
      2.280  0.4747E+00  0.4746E+00  0.6459E+01  0.6459E+01
      2.448  0.4503E+00  0.4502E+00  0.6535E+01  0.6536E+01
      2.616  0.5331E+00  0.5335E+00  0.6625E+01  0.6625E+01
      2.785  0.6213E+00  0.6220E+00  0.6730E+01  0.6730E+01
      2.953  0.5861E+00  0.5871E+00  0.6829E+01  0.6829E+01
      3.121  0.6348E+00  0.6343E+00  0.6936E+01  0.6936E+01
      3.289  0.6960E+00  0.6972E+00  0.7053E+01  0.7054E+01
      3.458  0.8641E+00  0.8647E+00  0.7199E+01  0.7199E+01
      3.626  0.9189E+00  0.9192E+00  0.7353E+01  0.7354E+01
      3.794  0.7619E+00  0.7610E+00  0.7482E+01  0.7482E+01
      3.962  0.9700E+00  0.9716E+00  0.7645E+01  0.7646E+01
      4.130  0.9672E+00  0.9679E+00  0.7808E+01  0.7809E+01
      4.299  0.1179E+01  0.1179E+01  0.8007E+01  0.8008E+01
      4.467  0.9853E+00  0.9853E+00  0.8173E+01  0.8174E+01
      4.635  0.1193E+01  0.1194E+01  0.8374E+01  0.8376E+01
      4.803  0.1259E+01  0.1259E+01  0.8586E+01  0.8588E+01
      4.971  0.1211E+01  0.1210E+01  0.8791E+01  0.8792E+01
      5.140  0.1205E+01  0.1203E+01  0.8994E+01  0.8995E+01
      5.308  0.7657E+00  0.7650E+00  0.9123E+01  0.9124E+01
      5.476  0.1038E+01  0.1039E+01  0.9298E+01  0.9299E+01
      5.644  0.8045E+00  0.8028E+00  0.9434E+01  0.9435E+01
      5.812  0.5529E+00  0.5514E+00  0.9528E+01  0.9528E+01
      5.981  0.4694E+00  0.4706E+00  0.9607E+01  0.9608E+01
      6.149  0.6949E+00  0.6964E+00  0.9724E+01  0.9725E+01
      6.317  0.9656E+00  0.9656E+00  0.9887E+01  0.9888E+01
      6.485  0.8745E+00  0.8738E+00  0.1003E+02  0.1003E+02
      6.653  0.8087E+00  0.8082E+00  0.1017E+02  0.1017E+02
      6.822  0.9359E+00  0.9373E+00  0.1033E+02  0.1033E+02
      6.990  0.1072E+01  0.1071E+01  0.1051E+02  0.1051E+02
      7.158  0.8510E+00  0.8505E+00  0.1065E+02  0.1065E+02
      7.326  0.9572E+00  0.9579E+00  0.1081E+02  0.1081E+02
      7.494  0.1111E+01  0.1111E+01  0.1100E+02  0.1100E+02
      7.663  0.8542E+00  0.8534E+00  0.1115E+02  0.1115E+02
      7.831  0.8517E+00  0.8532E+00  0.1129E+02  0.1129E+02
      7.999  0.1033E+01  0.1033E+01  0.1146E+02  0.1146E+02
      8.167  0.9628E+00  0.9626E+00  0.1163E+02  0.1163E+02
      8.335  0.9269E+00  0.9259E+00  0.1178E+02  0.1178E+02
      8.504  0.8918E+00  0.8917E+00  0.1193E+02  0.1193E+02
      8.672  0.9843E+00  0.9862E+00  0.1210E+02  0.1210E+02
      8.840  0.1004E+01  0.1005E+01  0.1227E+02  0.1227E+02
      9.008  0.1247E+01  0.1249E+01  0.1248E+02  0.1248E+02
      9.177  0.1675E+01  0.1680E+01  0.1276E+02  0.1276E+02
      9.345  0.1737E+01  0.1733E+01  0.1305E+02  0.1306E+02
      9.513  0.1907E+01  0.1905E+01  0.1337E+02  0.1338E+02
      9.681  0.1565E+01  0.1564E+01  0.1364E+02  0.1364E+02
      9.849  0.1597E+01  0.1594E+01  0.1391E+02  0.1391E+02
     10.018  0.1903E+01  0.1880E+01  0.1423E+02  0.1423E+02
     10.186  0.1687E+01  0.1689E+01  0.1451E+02  0.1451E+02
     10.354  0.1682E+01  0.1698E+01  0.1480E+02  0.1480E+02
     10.522  0.1891E+01  0.1899E+01  0.1512E+02  0.1512E+02
     10.690  0.1692E+01  0.1697E+01  0.1540E+02  0.1540E+02
     10.859  0.1148E+01  0.1126E+01  0.1560E+02  0.1559E+02
     11.027  0.8500E+00  0.8464E+00  0.1574E+02  0.1574E+02
     11.195  0.5148E+00  0.5203E+00  0.1583E+02  0.1583E+02
     11.363  0.3497E+00  0.3640E+00  0.1589E+02  0.1589E+02
     11.531  0.3396E+00  0.3282E+00  0.1594E+02  0.1594E+02
     11.700  0.2270E+00  0.2293E+00  0.1598E+02  0.1598E+02
     11.868  0.1010E+00  0.1019E+00  0.1600E+02  0.1600E+02
     12.036  0.7635E-02  0.7228E-02  0.1600E+02  0.1600E+02
     12.204  0.0000E+00  0.0000E+00  0.1600E+02  0.1600E+02
     12.372  0.0000E+00  0.0000E+00  0.1600E+02  0.1600E+02
     12.541  0.0000E+00  0.0000E+00  0.1600E+02  0.1600E+02
     12.709  0.0000E+00  0.0000E+00  0.1600E+02  0.1600E+02
     12.877  0.0000E+00  0.0000E+00  0.1600E+02  0.1600E+02
     13.045  0.0000E+00  0.0000E+00  0.1600E+02  0.1600E+02
     13.213  0.0000E+00  0.0000E+00  0.1600E+02  0.1600E+02
     13.382  0.0000E+00  0.0000E+00  0.1600E+02  0.1600E+02
     13.550  0.0000E+00  0.0000E+00  0.1600E+02  0.1600E+02
     13.718  0.0000E+00  0.0000E+00  0.1600E+02  0.1600E+02
     13.886  0.0000E+00  0.0000E+00  0.1600E+02  0.1600E+02
     14.054  0.0000E+00  0.0000E+00  0.1600E+02  0.1600E+02
     14.05447161    -36.40727641  301      5.75291916      1.00000000
    -36.407  0.0000E+00  0.0000E+00  0.0000E+00  0.0000E+00  0.0000E+00  0.0000E+00  0.0000E+00  0.0000E+00  0.0000E+00  0.0000E+00  0.0000E+00  0.0000E+00  0.0000E+00  0.0000E+00  0.0000E+00  0.0000E+00  0.0000E+00  0.0000E+00
    -36.239  0.0000E+00  0.0000E+00  0.0000E+00  0.0000E+00  0.0000E+00  0.0000E+00  0.0000E+00  0.0000E+00  0.0000E+00  0.0000E+00  0.0000E+00  0.0000E+00  0.0000E+00  0.0000E+00  0.0000E+00  0.0000E+00  0.0000E+00  0.0000E+00
    -36.071  0.0000E+00  0.0000E+00  0.0000E+00  0.0000E+00  0.0000E+00  0.0000E+00  0.0000E+00  0.0000E+00  0.0000E+00  0.0000E+00  0.0000E+00  0.0000E+00  0.0000E+00  0.0000E+00  0.0000E+00  0.0000E+00  0.0000E+00  0.0000E+00
    -35.903  0.0000E+00  0.0000E+00  0.0000E+00  0.0000E+00  0.0000E+00  0.0000E+00  0.0000E+00  0.0000E+00  0.0000E+00  0.0000E+00  0.0000E+00  0.0000E+00  0.0000E+00  0.0000E+00  0.0000E+00  0.0000E+00  0.0000E+00  0.0000E+00
    -35.734  0.0000E+00  0.0000E+00  0.0000E+00  0.0000E+00  0.0000E+00  0.0000E+00  0.0000E+00  0.0000E+00  0.0000E+00  0.0000E+00  0.0000E+00  0.0000E+00  0.0000E+00  0.0000E+00  0.0000E+00  0.0000E+00  0.0000E+00  0.0000E+00
    -35.566  0.0000E+00  0.0000E+00  0.0000E+00  0.0000E+00  0.0000E+00  0.0000E+00  0.0000E+00  0.0000E+00  0.0000E+00  0.0000E+00  0.0000E+00  0.0000E+00  0.0000E+00  0.0000E+00  0.0000E+00  0.0000E+00  0.0000E+00  0.0000E+00
    -35.398  0.0000E+00  0.0000E+00  0.0000E+00  0.0000E+00  0.0000E+00  0.0000E+00  0.0000E+00  0.0000E+00  0.0000E+00  0.0000E+00  0.0000E+00  0.0000E+00  0.0000E+00  0.0000E+00  0.0000E+00  0.0000E+00  0.0000E+00  0.0000E+00
    -35.230  0.0000E+00  0.0000E+00  0.0000E+00  0.0000E+00  0.0000E+00  0.0000E+00  0.0000E+00  0.0000E+00  0.0000E+00  0.0000E+00  0.0000E+00  0.0000E+00  0.0000E+00  0.0000E+00  0.0000E+00  0.0000E+00  0.0000E+00  0.0000E+00
    -35.062  0.0000E+00  0.0000E+00  0.0000E+00  0.0000E+00  0.0000E+00  0.0000E+00  0.0000E+00  0.0000E+00  0.0000E+00  0.0000E+00  0.0000E+00  0.0000E+00  0.0000E+00  0.0000E+00  0.0000E+00  0.0000E+00  0.0000E+00  0.0000E+00
    -34.893  0.0000E+00  0.0000E+00  0.0000E+00  0.0000E+00  0.0000E+00  0.0000E+00  0.0000E+00  0.0000E+00  0.0000E+00  0.0000E+00  0.0000E+00  0.0000E+00  0.0000E+00  0.0000E+00  0.0000E+00  0.0000E+00  0.0000E+00  0.0000E+00
    -34.725  0.0000E+00  0.0000E+00  0.0000E+00  0.0000E+00  0.0000E+00  0.0000E+00  0.0000E+00  0.0000E+00  0.0000E+00  0.0000E+00  0.0000E+00  0.0000E+00  0.0000E+00  0.0000E+00  0.0000E+00  0.0000E+00  0.0000E+00  0.0000E+00
    -34.557  0.7788E-03  0.7573E-03  0.3670E-11  0.3872E-11  0.3670E-11  0.3872E-11  0.3705E-11  0.3903E-11  0.1948E-14  0.1043E-13  0.2168E-14  0.1163E-13  0.2328E-11  0.2331E-11  0.1948E-14  0.1043E-13  0.2333E-11  0.2342E-11
    -34.389  0.2165E-01  0.2106E-01  0.1020E-09  0.1076E-09  0.1020E-09  0.1076E-09  0.1030E-09  0.1085E-09  0.5416E-13  0.2901E-12  0.6028E-13  0.3234E-12  0.6473E-10  0.6482E-10  0.5416E-13  0.2901E-12  0.6487E-10  0.6512E-10
    -34.221  0.5633E+00  0.5493E+00  0.2655E-08  0.2808E-08  0.2655E-08  0.2808E-08  0.2680E-08  0.2832E-08  0.1410E-11  0.7567E-11  0.1569E-11  0.8437E-11  0.1684E-08  0.1691E-08  0.1410E-11  0.7567E-11  0.1688E-08  0.1699E-08
    -34.052  0.3879E+01  0.3864E+01  0.1827E-07  0.1975E-07  0.1827E-07  0.1975E-07  0.1844E-07  0.1991E-07  0.9751E-11  0.5318E-10  0.1083E-10  0.5936E-10  0.1161E-07  0.1191E-07  0.9751E-11  0.5318E-10  0.1162E-07  0.1194E-07
    -33.884  0.1328E+01  0.1356E+01  0.6246E-08  0.6926E-08  0.6246E-08  0.6926E-08  0.6305E-08  0.6983E-08  0.3353E-11  0.1864E-10  0.3715E-11  0.2083E-10  0.3978E-08  0.4180E-08  0.3353E-11  0.1864E-10  0.3972E-08  0.4184E-08
    -33.716  0.6020E-01  0.6189E-01  0.2832E-09  0.3161E-09  0.2832E-09  0.3161E-09  0.2859E-09  0.3187E-09  0.1522E-12  0.8506E-12  0.1686E-12  0.9511E-12  0.1804E-09  0.1909E-09  0.1522E-12  0.8506E-12  0.1801E-09  0.1909E-09
    -33.548  0.0000E+00  0.0000E+00  0.0000E+00  0.0000E+00  0.0000E+00  0.0000E+00  0.0000E+00  0.0000E+00  0.0000E+00  0.0000E+00  0.0000E+00  0.0000E+00  0.0000E+00  0.0000E+00  0.0000E+00  0.0000E+00  0.0000E+00  0.0000E+00
    -33.380  0.0000E+00  0.0000E+00  0.0000E+00  0.0000E+00  0.0000E+00  0.0000E+00  0.0000E+00  0.0000E+00  0.0000E+00  0.0000E+00  0.0000E+00  0.0000E+00  0.0000E+00  0.0000E+00  0.0000E+00  0.0000E+00  0.0000E+00  0.0000E+00
    -33.211  0.0000E+00  0.0000E+00  0.0000E+00  0.0000E+00  0.0000E+00  0.0000E+00  0.0000E+00  0.0000E+00  0.0000E+00  0.0000E+00  0.0000E+00  0.0000E+00  0.0000E+00  0.0000E+00  0.0000E+00  0.0000E+00  0.0000E+00  0.0000E+00
    -33.043  0.0000E+00  0.0000E+00  0.0000E+00  0.0000E+00  0.0000E+00  0.0000E+00  0.0000E+00  0.0000E+00  0.0000E+00  0.0000E+00  0.0000E+00  0.0000E+00  0.0000E+00  0.0000E+00  0.0000E+00  0.0000E+00  0.0000E+00  0.0000E+00
    -32.875  0.0000E+00  0.0000E+00  0.0000E+00  0.0000E+00  0.0000E+00  0.0000E+00  0.0000E+00  0.0000E+00  0.0000E+00  0.0000E+00  0.0000E+00  0.0000E+00  0.0000E+00  0.0000E+00  0.0000E+00  0.0000E+00  0.0000E+00  0.0000E+00
    -32.707  0.0000E+00  0.0000E+00  0.0000E+00  0.0000E+00  0.0000E+00  0.0000E+00  0.0000E+00  0.0000E+00  0.0000E+00  0.0000E+00  0.0000E+00  0.0000E+00  0.0000E+00  0.0000E+00  0.0000E+00  0.0000E+00  0.0000E+00  0.0000E+00
    -32.539  0.0000E+00  0.0000E+00  0.0000E+00  0.0000E+00  0.0000E+00  0.0000E+00  0.0000E+00  0.0000E+00  0.0000E+00  0.0000E+00  0.0000E+00  0.0000E+00  0.0000E+00  0.0000E+00  0.0000E+00  0.0000E+00  0.0000E+00  0.0000E+00
    -32.370  0.0000E+00  0.0000E+00  0.0000E+00  0.0000E+00  0.0000E+00  0.0000E+00  0.0000E+00  0.0000E+00  0.0000E+00  0.0000E+00  0.0000E+00  0.0000E+00  0.0000E+00  0.0000E+00  0.0000E+00  0.0000E+00  0.0000E+00  0.0000E+00
    -32.202  0.0000E+00  0.0000E+00  0.0000E+00  0.0000E+00  0.0000E+00  0.0000E+00  0.0000E+00  0.0000E+00  0.0000E+00  0.0000E+00  0.0000E+00  0.0000E+00  0.0000E+00  0.0000E+00  0.0000E+00  0.0000E+00  0.0000E+00  0.0000E+00
    -32.034  0.0000E+00  0.0000E+00  0.0000E+00  0.0000E+00  0.0000E+00  0.0000E+00  0.0000E+00  0.0000E+00  0.0000E+00  0.0000E+00  0.0000E+00  0.0000E+00  0.0000E+00  0.0000E+00  0.0000E+00  0.0000E+00  0.0000E+00  0.0000E+00
    -31.866  0.0000E+00  0.0000E+00  0.0000E+00  0.0000E+00  0.0000E+00  0.0000E+00  0.0000E+00  0.0000E+00  0.0000E+00  0.0000E+00  0.0000E+00  0.0000E+00  0.0000E+00  0.0000E+00  0.0000E+00  0.0000E+00  0.0000E+00  0.0000E+00
    -31.698  0.0000E+00  0.0000E+00  0.0000E+00  0.0000E+00  0.0000E+00  0.0000E+00  0.0000E+00  0.0000E+00  0.0000E+00  0.0000E+00  0.0000E+00  0.0000E+00  0.0000E+00  0.0000E+00  0.0000E+00  0.0000E+00  0.0000E+00  0.0000E+00
    -31.529  0.0000E+00  0.0000E+00  0.0000E+00  0.0000E+00  0.0000E+00  0.0000E+00  0.0000E+00  0.0000E+00  0.0000E+00  0.0000E+00  0.0000E+00  0.0000E+00  0.0000E+00  0.0000E+00  0.0000E+00  0.0000E+00  0.0000E+00  0.0000E+00
    -31.361  0.0000E+00  0.0000E+00  0.0000E+00  0.0000E+00  0.0000E+00  0.0000E+00  0.0000E+00  0.0000E+00  0.0000E+00  0.0000E+00  0.0000E+00  0.0000E+00  0.0000E+00  0.0000E+00  0.0000E+00  0.0000E+00  0.0000E+00  0.0000E+00
    -31.193  0.0000E+00  0.0000E+00  0.0000E+00  0.0000E+00  0.0000E+00  0.0000E+00  0.0000E+00  0.0000E+00  0.0000E+00  0.0000E+00  0.0000E+00  0.0000E+00  0.0000E+00  0.0000E+00  0.0000E+00  0.0000E+00  0.0000E+00  0.0000E+00
    -31.025  0.0000E+00  0.0000E+00  0.0000E+00  0.0000E+00  0.0000E+00  0.0000E+00  0.0000E+00  0.0000E+00  0.0000E+00  0.0000E+00  0.0000E+00  0.0000E+00  0.0000E+00  0.0000E+00  0.0000E+00  0.0000E+00  0.0000E+00  0.0000E+00
    -30.856  0.0000E+00  0.0000E+00  0.0000E+00  0.0000E+00  0.0000E+00  0.0000E+00  0.0000E+00  0.0000E+00  0.0000E+00  0.0000E+00  0.0000E+00  0.0000E+00  0.0000E+00  0.0000E+00  0.0000E+00  0.0000E+00  0.0000E+00  0.0000E+00
    -30.688  0.0000E+00  0.0000E+00  0.0000E+00  0.0000E+00  0.0000E+00  0.0000E+00  0.0000E+00  0.0000E+00  0.0000E+00  0.0000E+00  0.0000E+00  0.0000E+00  0.0000E+00  0.0000E+00  0.0000E+00  0.0000E+00  0.0000E+00  0.0000E+00
    -30.520  0.0000E+00  0.0000E+00  0.0000E+00  0.0000E+00  0.0000E+00  0.0000E+00  0.0000E+00  0.0000E+00  0.0000E+00  0.0000E+00  0.0000E+00  0.0000E+00  0.0000E+00  0.0000E+00  0.0000E+00  0.0000E+00  0.0000E+00  0.0000E+00
    -30.352  0.0000E+00  0.0000E+00  0.0000E+00  0.0000E+00  0.0000E+00  0.0000E+00  0.0000E+00  0.0000E+00  0.0000E+00  0.0000E+00  0.0000E+00  0.0000E+00  0.0000E+00  0.0000E+00  0.0000E+00  0.0000E+00  0.0000E+00  0.0000E+00
    -30.184  0.0000E+00  0.0000E+00  0.0000E+00  0.0000E+00  0.0000E+00  0.0000E+00  0.0000E+00  0.0000E+00  0.0000E+00  0.0000E+00  0.0000E+00  0.0000E+00  0.0000E+00  0.0000E+00  0.0000E+00  0.0000E+00  0.0000E+00  0.0000E+00
    -30.015  0.0000E+00  0.0000E+00  0.0000E+00  0.0000E+00  0.0000E+00  0.0000E+00  0.0000E+00  0.0000E+00  0.0000E+00  0.0000E+00  0.0000E+00  0.0000E+00  0.0000E+00  0.0000E+00  0.0000E+00  0.0000E+00  0.0000E+00  0.0000E+00
    -29.847  0.0000E+00  0.0000E+00  0.0000E+00  0.0000E+00  0.0000E+00  0.0000E+00  0.0000E+00  0.0000E+00  0.0000E+00  0.0000E+00  0.0000E+00  0.0000E+00  0.0000E+00  0.0000E+00  0.0000E+00  0.0000E+00  0.0000E+00  0.0000E+00
    -29.679  0.0000E+00  0.0000E+00  0.0000E+00  0.0000E+00  0.0000E+00  0.0000E+00  0.0000E+00  0.0000E+00  0.0000E+00  0.0000E+00  0.0000E+00  0.0000E+00  0.0000E+00  0.0000E+00  0.0000E+00  0.0000E+00  0.0000E+00  0.0000E+00
    -29.511  0.0000E+00  0.0000E+00  0.0000E+00  0.0000E+00  0.0000E+00  0.0000E+00  0.0000E+00  0.0000E+00  0.0000E+00  0.0000E+00  0.0000E+00  0.0000E+00  0.0000E+00  0.0000E+00  0.0000E+00  0.0000E+00  0.0000E+00  0.0000E+00
    -29.343  0.0000E+00  0.0000E+00  0.0000E+00  0.0000E+00  0.0000E+00  0.0000E+00  0.0000E+00  0.0000E+00  0.0000E+00  0.0000E+00  0.0000E+00  0.0000E+00  0.0000E+00  0.0000E+00  0.0000E+00  0.0000E+00  0.0000E+00  0.0000E+00
    -29.174  0.0000E+00  0.0000E+00  0.0000E+00  0.0000E+00  0.0000E+00  0.0000E+00  0.0000E+00  0.0000E+00  0.0000E+00  0.0000E+00  0.0000E+00  0.0000E+00  0.0000E+00  0.0000E+00  0.0000E+00  0.0000E+00  0.0000E+00  0.0000E+00
    -29.006  0.0000E+00  0.0000E+00  0.0000E+00  0.0000E+00  0.0000E+00  0.0000E+00  0.0000E+00  0.0000E+00  0.0000E+00  0.0000E+00  0.0000E+00  0.0000E+00  0.0000E+00  0.0000E+00  0.0000E+00  0.0000E+00  0.0000E+00  0.0000E+00
    -28.838  0.0000E+00  0.0000E+00  0.0000E+00  0.0000E+00  0.0000E+00  0.0000E+00  0.0000E+00  0.0000E+00  0.0000E+00  0.0000E+00  0.0000E+00  0.0000E+00  0.0000E+00  0.0000E+00  0.0000E+00  0.0000E+00  0.0000E+00  0.0000E+00
    -28.670  0.0000E+00  0.0000E+00  0.0000E+00  0.0000E+00  0.0000E+00  0.0000E+00  0.0000E+00  0.0000E+00  0.0000E+00  0.0000E+00  0.0000E+00  0.0000E+00  0.0000E+00  0.0000E+00  0.0000E+00  0.0000E+00  0.0000E+00  0.0000E+00
    -28.502  0.0000E+00  0.0000E+00  0.0000E+00  0.0000E+00  0.0000E+00  0.0000E+00  0.0000E+00  0.0000E+00  0.0000E+00  0.0000E+00  0.0000E+00  0.0000E+00  0.0000E+00  0.0000E+00  0.0000E+00  0.0000E+00  0.0000E+00  0.0000E+00
    -28.333  0.0000E+00  0.0000E+00  0.0000E+00  0.0000E+00  0.0000E+00  0.0000E+00  0.0000E+00  0.0000E+00  0.0000E+00  0.0000E+00  0.0000E+00  0.0000E+00  0.0000E+00  0.0000E+00  0.0000E+00  0.0000E+00  0.0000E+00  0.0000E+00
    -28.165  0.0000E+00  0.0000E+00  0.0000E+00  0.0000E+00  0.0000E+00  0.0000E+00  0.0000E+00  0.0000E+00  0.0000E+00  0.0000E+00  0.0000E+00  0.0000E+00  0.0000E+00  0.0000E+00  0.0000E+00  0.0000E+00  0.0000E+00  0.0000E+00
    -27.997  0.0000E+00  0.0000E+00  0.0000E+00  0.0000E+00  0.0000E+00  0.0000E+00  0.0000E+00  0.0000E+00  0.0000E+00  0.0000E+00  0.0000E+00  0.0000E+00  0.0000E+00  0.0000E+00  0.0000E+00  0.0000E+00  0.0000E+00  0.0000E+00