   4   4   1   0
  0.1875356E+02  0.4216492E-09  0.4217900E-09  0.4217900E-09  0.5000000E-15
  1.000000000000000E-004
  CAR 
 unknown system                          
     14.82884841    -35.72815536  301      6.23035378      1.00000000
    -35.728  0.0000E+00  0.0000E+00  0.0000E+00  0.0000E+00
    -35.560  0.0000E+00  0.0000E+00  0.0000E+00  0.0000E+00
    -35.391  0.0000E+00  0.0000E+00  0.0000E+00  0.0000E+00
    -35.223  0.0000E+00  0.0000E+00  0.0000E+00  0.0000E+00
    -35.054  0.0000E+00  0.0000E+00  0.0000E+00  0.0000E+00
    -34.886  0.0000E+00  0.0000E+00  0.0000E+00  0.0000E+00
    -34.717  0.0000E+00  0.0000E+00  0.0000E+00  0.0000E+00
    -34.548  0.0000E+00  0.0000E+00  0.0000E+00  0.0000E+00
    -34.380  0.0000E+00  0.0000E+00  0.0000E+00  0.0000E+00
    -34.211  0.0000E+00  0.0000E+00  0.0000E+00  0.0000E+00
    -34.043  0.0000E+00  0.0000E+00  0.0000E+00  0.0000E+00
    -33.874  0.7590E-03  0.7400E-03  0.1279E-03  0.1247E-03
    -33.706  0.2124E-01  0.2071E-01  0.3708E-02  0.3615E-02
    -33.537  0.5576E+00  0.5451E+00  0.9768E-01  0.9547E-01
    -33.369  0.3924E+01  0.3909E+01  0.7589E+00  0.7542E+00
    -33.200  0.1367E+01  0.1393E+01  0.9892E+00  0.9889E+00
    -33.032  0.6189E-01  0.6346E-01  0.9996E+00  0.9996E+00
    -32.863  0.0000E+00  0.0000E+00  0.1000E+01  0.1000E+01
    -32.695  0.0000E+00  0.0000E+00  0.1000E+01  0.1000E+01
    -32.526  0.0000E+00  0.0000E+00  0.1000E+01  0.1000E+01
    -32.358  0.0000E+00  0.0000E+00  0.1000E+01  0.1000E+01
    -32.189  0.0000E+00  0.0000E+00  0.1000E+01  0.1000E+01
    -32.021  0.0000E+00  0.0000E+00  0.1000E+01  0.1000E+01
    -31.852  0.0000E+00  0.0000E+00  0.1000E+01  0.1000E+01
    -31.684  0.0000E+00  0.0000E+00  0.1000E+01  0.1000E+01
    -31.515  0.0000E+00  0.0000E+00  0.1000E+01  0.1000E+01
    -31.347  0.0000E+00  0.0000E+00  0.1000E+01  0.1000E+01
    -31.178  0.0000E+00  0.0000E+00  0.1000E+01  0.1000E+01
    -31.010  0.0000E+00  0.0000E+00  0.1000E+01  0.1000E+01
    -30.841  0.0000E+00  0.0000E+00  0.1000E+01  0.1000E+01
    -30.672  0.0000E+00  0.0000E+00  0.1000E+01  0.1000E+01
    -30.504  0.0000E+00  0.0000E+00  0.1000E+01  0.1000E+01
    -30.335  0.0000E+00  0.0000E+00  0.1000E+01  0.1000E+01
    -30.167  0.0000E+00  0.0000E+00  0.1000E+01  0.1000E+01
    -29.998  0.0000E+00  0.0000E+00  0.1000E+01  0.1000E+01
    -29.830  0.0000E+00  0.0000E+00  0.1000E+01  0.1000E+01
    -29.661  0.0000E+00  0.0000E+00  0.1000E+01  0.1000E+01
    -29.493  0.0000E+00  0.0000E+00  0.1000E+01  0.1000E+01
    -29.324  0.0000E+00  0.0000E+00  0.1000E+01  0.1000E+01
    -29.156  0.0000E+00  0.0000E+00  0.1000E+01  0.1000E+01
    -28.987  0.0000E+00  0.0000E+00  0.1000E+01  0.1000E+01
    -28.819  0.0000E+00  0.0000E+00  0.1000E+01  0.1000E+01
    -28.650  0.0000E+00  0.0000E+00  0.1000E+01  0.1000E+01
    -28.482  0.0000E+00  0.0000E+00  0.1000E+01  0.1000E+01
    -28.313  0.0000E+00  0.0000E+00  0.1000E+01  0.1000E+01
    -28.145  0.0000E+00  0.0000E+00  0.1000E+01  0.1000E+01
    -27.976  0.0000E+00  0.0000E+00  0.1000E+01  0.1000E+01
    -27.808  0.0000E+00  0.0000E+00  0.1000E+01  0.1000E+01
    -27.639  0.0000E+00  0.0000E+00  0.1000E+01  0.1000E+01
    -27.471  0.0000E+00  0.0000E+00  0.1000E+01  0.1000E+01
    -27.302  0.0000E+00  0.0000E+00  0.1000E+01  0.1000E+01
    -27.133  0.0000E+00  0.0000E+00  0.1000E+01  0.1000E+01
    -26.965  0.0000E+00  0.0000E+00  0.1000E+01  0.1000E+01
    -26.796  0.0000E+00  0.0000E+00  0.1000E+01  0.1000E+01
    -26.628  0.0000E+00  0.0000E+00  0.1000E+01  0.1000E+01
    -26.459  0.0000E+00  0.0000E+00  0.1000E+01  0.1000E+01
    -26.291  0.0000E+00  0.0000E+00  0.1000E+01  0.1000E+01
    -26.122  0.0000E+00  0.0000E+00  0.1000E+01  0.1000E+01
    -25.954  0.0000E+00  0.0000E+00  0.1000E+01  0.1000E+01
    -25.785  0.0000E+00  0.0000E+00  0.1000E+01  0.1000E+01
    -25.617  0.0000E+00  0.0000E+00  0.1000E+01  0.1000E+01
    -25.448  0.0000E+00  0.0000E+00  0.1000E+01  0.1000E+01
    -25.280  0.0000E+00  0.0000E+00  0.1000E+01  0.1000E+01
    -25.111  0.0000E+00  0.0000E+00  0.1000E+01  0.1000E+01
    -24.943  0.0000E+00  0.0000E+00  0.1000E+01  0.1000E+01
    -24.774  0.0000E+00  0.0000E+00  0.1000E+01  0.1000E+01
    -24.606  0.0000E+00  0.0000E+00  0.1000E+01  0.1000E+01
    -24.437  0.0000E+00  0.0000E+00  0.1000E+01  0.1000E+01
    -24.269  0.0000E+00  0.0000E+00  0.1000E+01  0.1000E+01
    -24.100  0.0000E+00  0.0000E+00  0.1000E+01  0.1000E+01
    -23.932  0.0000E+00  0.0000E+00  0.1000E+01  0.1000E+01
    -23.763  0.0000E+00  0.0000E+00  0.1000E+01  0.1000E+01
    -23.594  0.0000E+00  0.0000E+00  0.1000E+01  0.1000E+01
    -23.426  0.0000E+00  0.0000E+00  0.1000E+01  0.1000E+01
    -23.257  0.0000E+00  0.0000E+00  0.1000E+01  0.1000E+01
    -23.089  0.0000E+00  0.0000E+00  0.1000E+01  0.1000E+01
    -22.920  0.0000E+00  0.0000E+00  0.1000E+01  0.1000E+01
    -22.752  0.0000E+00  0.0000E+00  0.1000E+01  0.1000E+01
    -22.583  0.0000E+00  0.0000E+00  0.1000E+01  0.1000E+01
    -22.415  0.0000E+00  0.0000E+00  0.1000E+01  0.1000E+01
    -22.246  0.0000E+00  0.0000E+00  0.1000E+01  0.1000E+01
    -22.078  0.0000E+00  0.0000E+00  0.1000E+01  0.1000E+01
    -21.909  0.0000E+00  0.0000E+00  0.1000E+01  0.1000E+01
    -21.741  0.0000E+00  0.0000E+00  0.1000E+01  0.1000E+01
    -21.572  0.0000E+00  0.0000E+00  0.1000E+01  0.1000E+01
    -21.404  0.0000E+00  0.0000E+00  0.1000E+01  0.1000E+01
    -21.235  0.0000E+00  0.0000E+00  0.1000E+01  0.1000E+01
    -21.067  0.0000E+00  0.0000E+00  0.1000E+01  0.1000E+01
    -20.898  0.0000E+00  0.0000E+00  0.1000E+01  0.1000E+01
    -20.730  0.0000E+00  0.0000E+00  0.1000E+01  0.1000E+01
    -20.561  0.0000E+00  0.0000E+00  0.1000E+01  0.1000E+01
    -20.393  0.0000E+00  0.0000E+00  0.1000E+01  0.1000E+01
    -20.224  0.0000E+00  0.0000E+00  0.1000E+01  0.1000E+01
    -20.055  0.0000E+00  0.0000E+00  0.1000E+01  0.1000E+01
    -19.887  0.0000E+00  0.0000E+00  0.1000E+01  0.1000E+01
    -19.718  0.0000E+00  0.0000E+00  0.1000E+01  0.1000E+01
    -19.550  0.0000E+00  0.0000E+00  0.1000E+01  0.1000E+01
    -19.381  0.0000E+00  0.0000E+00  0.1000E+01  0.1000E+01
    -19.213  0.0000E+00  0.0000E+00  0.1000E+01  0.1000E+01
    -19.044  0.0000E+00  0.0000E+00  0.1000E+01  0.1000E+01
    -18.876  0.0000E+00  0.0000E+00  0.1000E+01  0.1000E+01
    -18.707  0.0000E+00  0.0000E+00  0.1000E+01  0.1000E+01
    -18.539  0.0000E+00  0.0000E+00  0.1000E+01  0.1000E+01
    -18.370  0.0000E+00  0.0000E+00  0.1000E+01  0.1000E+01
    -18.202  0.0000E+00  0.0000E+00  0.1000E+01  0.1000E+01
    -18.033  0.0000E+00  0.0000E+00  0.1000E+01  0.1000E+01
    -17.865  0.0000E+00  0.0000E+00  0.1000E+01  0.1000E+01
    -17.696  0.0000E+00  0.0000E+00  0.1000E+01  0.1000E+01
    -17.528  0.0000E+00  0.0000E+00  0.1000E+01  0.1000E+01
    -17.359  0.0000E+00  0.0000E+00  0.1000E+01  0.1000E+01
    -17.191  0.0000E+00  0.0000E+00  0.1000E+01  0.1000E+01
    -17.022  0.0000E+00  0.0000E+00  0.1000E+01  0.1000E+01
    -16.854  0.0000E+00  0.0000E+00  0.1000E+01  0.1000E+01
    -16.685  0.0000E+00  0.0000E+00  0.1000E+01  0.1000E+01
    -16.516  0.0000E+00  0.0000E+00  0.1000E+01  0.1000E+01
    -16.348  0.0000E+00  0.0000E+00  0.1000E+01  0.1000E+01
    -16.179  0.0000E+00  0.0000E+00  0.1000E+01  0.1000E+01
    -16.011  0.0000E+00  0.0000E+00  0.1000E+01  0.1000E+01
    -15.842  0.0000E+00  0.0000E+00  0.1000E+01  0.1000E+01
    -15.674  0.0000E+00  0.0000E+00  0.1000E+01  0.1000E+01
    -15.505  0.0000E+00  0.0000E+00  0.1000E+01  0.1000E+01
    -15.337  0.0000E+00  0.0000E+00  0.1000E+01  0.1000E+01
    -15.168  0.2207E-03  0.2112E-03  0.1000E+01  0.1000E+01
    -15.000  0.7968E-02  0.7761E-02  0.1001E+01  0.1001E+01
    -14.831  0.2263E+00  0.2205E+00  0.1040E+01  0.1038E+01
    -14.663  0.4542E+01  0.4459E+01  0.1805E+01  0.1790E+01
    -14.494  0.1129E+02  0.1133E+02  0.3707E+01  0.3700E+01
    -14.326  0.1671E+01  0.1711E+01  0.3989E+01  0.3988E+01
    -14.157  0.0000E+00  0.0000E+00  0.4000E+01  0.4000E+01
    -13.989  0.0000E+00  0.0000E+00  0.4000E+01  0.4000E+01
    -13.820  0.0000E+00  0.0000E+00  0.4000E+01  0.4000E+01
    -13.652  0.0000E+00  0.0000E+00  0.4000E+01  0.4000E+01
    -13.483  0.0000E+00  0.0000E+00  0.4000E+01  0.4000E+01
    -13.315  0.0000E+00  0.0000E+00  0.4000E+01  0.4000E+01
    -13.146  0.0000E+00  0.0000E+00  0.4000E+01  0.4000E+01
    -12.978  0.0000E+00  0.0000E+00  0.4000E+01  0.4000E+01
    -12.809  0.0000E+00  0.0000E+00  0.4000E+01  0.4000E+01
    -12.640  0.0000E+00  0.0000E+00  0.4000E+01  0.4000E+01
    -12.472  0.0000E+00  0.0000E+00  0.4000E+01  0.4000E+01
    -12.303  0.0000E+00  0.0000E+00  0.4000E+01  0.4000E+01
    -12.135  0.0000E+00  0.0000E+00  0.4000E+01  0.4000E+01
    -11.966  0.0000E+00  0.0000E+00  0.4000E+01  0.4000E+01
    -11.798  0.0000E+00  0.0000E+00  0.4000E+01  0.4000E+01
    -11.629  0.0000E+00  0.0000E+00  0.4000E+01  0.4000E+01
    -11.461  0.0000E+00  0.0000E+00  0.4000E+01  0.4000E+01
    -11.292  0.0000E+00  0.0000E+00  0.4000E+01  0.4000E+01
    -11.124  0.0000E+00  0.0000E+00  0.4000E+01  0.4000E+01
    -10.955  0.0000E+00  0.0000E+00  0.4000E+01  0.4000E+01
    -10.787  0.0000E+00  0.0000E+00  0.4000E+01  0.4000E+01
    -10.618  0.0000E+00  0.0000E+00  0.4000E+01  0.4000E+01
    -10.450  0.0000E+00  0.0000E+00  0.4000E+01  0.4000E+01
    -10.281  0.0000E+00  0.0000E+00  0.4000E+01  0.4000E+01
    -10.113  0.0000E+00  0.0000E+00  0.4000E+01  0.4000E+01
     -9.944  0.0000E+00  0.0000E+00  0.4000E+01  0.4000E+01
     -9.776  0.0000E+00  0.0000E+00  0.4000E+01  0.4000E+01
     -9.607  0.0000E+00  0.0000E+00  0.4000E+01  0.4000E+01
     -9.439  0.0000E+00  0.0000E+00  0.4000E+01  0.4000E+01
     -9.270  0.0000E+00  0.0000E+00  0.4000E+01  0.4000E+01
     -9.101  0.0000E+00  0.0000E+00  0.4000E+01  0.4000E+01
     -8.933  0.0000E+00  0.0000E+00  0.4000E+01  0.4000E+01
     -8.764  0.0000E+00  0.0000E+00  0.4000E+01  0.4000E+01
     -8.596  0.0000E+00  0.0000E+00  0.4000E+01  0.4000E+01
     -8.427  0.0000E+00  0.0000E+00  0.4000E+01  0.4000E+01
     -8.259  0.0000E+00  0.0000E+00  0.4000E+01  0.4000E+01
     -8.090  0.0000E+00  0.0000E+00  0.4000E+01  0.4000E+01
     -7.922  0.0000E+00  0.0000E+00  0.4000E+01  0.4000E+01
     -7.753  0.0000E+00  0.0000E+00  0.4000E+01  0.4000E+01
     -7.585  0.0000E+00  0.0000E+00  0.4000E+01  0.4000E+01
     -7.416  0.0000E+00  0.0000E+00  0.4000E+01  0.4000E+01
     -7.248  0.0000E+00  0.0000E+00  0.4000E+01  0.4000E+01
     -7.079  0.0000E+00  0.0000E+00  0.4000E+01  0.4000E+01
     -6.911  0.0000E+00  0.0000E+00  0.4000E+01  0.4000E+01
     -6.742  0.0000E+00  0.0000E+00  0.4000E+01  0.4000E+01
     -6.574  0.0000E+00  0.0000E+00  0.4000E+01  0.4000E+01
     -6.405  0.0000E+00  0.0000E+00  0.4000E+01  0.4000E+01
     -6.237  0.0000E+00  0.0000E+00  0.4000E+01  0.4000E+01
     -6.068  0.0000E+00  0.0000E+00  0.4000E+01  0.4000E+01
     -5.900  0.0000E+00  0.0000E+00  0.4000E+01  0.4000E+01
     -5.731  0.0000E+00  0.0000E+00  0.4000E+01  0.4000E+01
     -5.562  0.0000E+00  0.0000E+00  0.4000E+01  0.4000E+01
     -5.394  0.0000E+00  0.0000E+00  0.4000E+01  0.4000E+01
     -5.225  0.0000E+00  0.0000E+00  0.4000E+01  0.4000E+01
     -5.057  0.0000E+00  0.0000E+00  0.4000E+01  0.4000E+01
     -4.888  0.0000E+00  0.0000E+00  0.4000E+01  0.4000E+01
     -4.720  0.0000E+00  0.0000E+00  0.4000E+01  0.4000E+01
     -4.551  0.0000E+00  0.0000E+00  0.4000E+01  0.4000E+01
     -4.383  0.0000E+00  0.0000E+00  0.4000E+01  0.4000E+01
     -4.214  0.0000E+00  0.0000E+00  0.4000E+01  0.4000E+01
     -4.046  0.0000E+00  0.0000E+00  0.4000E+01  0.4000E+01
     -3.877  0.0000E+00  0.0000E+00  0.4000E+01  0.4000E+01
     -3.709  0.0000E+00  0.0000E+00  0.4000E+01  0.4000E+01
     -3.540  0.0000E+00  0.0000E+00  0.4000E+01  0.4000E+01
     -3.372  0.5853E-06  0.5956E-06  0.4000E+01  0.4000E+01
     -3.203  0.2682E-04  0.2729E-04  0.4000E+01  0.4000E+01
     -3.035  0.7810E-03  0.7944E-03  0.4000E+01  0.4000E+01
     -2.866  0.1532E-01  0.1551E-01  0.4003E+01  0.4003E+01
     -2.698  0.7150E-01  0.7181E-01  0.4015E+01  0.4015E+01
     -2.529  0.1272E+00  0.1273E+00  0.4036E+01  0.4036E+01
     -2.361  0.1650E+00  0.1653E+00  0.4064E+01  0.4064E+01
     -2.192  0.1975E+00  0.1976E+00  0.4097E+01  0.4098E+01
     -2.023  0.2148E+00  0.2150E+00  0.4134E+01  0.4134E+01
     -1.855  0.2791E+00  0.2791E+00  0.4181E+01  0.4181E+01
     -1.686  0.2537E+00  0.2537E+00  0.4224E+01  0.4224E+01
     -1.518  0.3452E+00  0.3455E+00  0.4282E+01  0.4282E+01
     -1.349  0.3433E+00  0.3431E+00  0.4340E+01  0.4340E+01
     -1.181  0.4094E+00  0.4100E+00  0.4409E+01  0.4409E+01
     -1.012  0.4487E+00  0.4485E+00  0.4485E+01  0.4485E+01
     -0.844  0.4815E+00  0.4817E+00  0.4566E+01  0.4567E+01
     -0.675  0.4031E+00  0.4025E+00  0.4634E+01  0.4635E+01
     -0.507  0.4217E+00  0.4220E+00  0.4706E+01  0.4706E+01
     -0.338  0.3291E+00  0.3286E+00  0.4761E+01  0.4761E+01
     -0.170  0.3882E+00  0.3889E+00  0.4827E+01  0.4827E+01
     -0.001  0.3776E+00  0.3777E+00  0.4891E+01  0.4891E+01
      0.167  0.4506E+00  0.4505E+00  0.4967E+01  0.4967E+01
      0.336  0.3196E+00  0.3197E+00  0.5021E+01  0.5021E+01
      0.504  0.4174E+00  0.4176E+00  0.5092E+01  0.5092E+01
      0.673  0.4329E+00  0.4333E+00  0.5165E+01  0.5165E+01
      0.841  0.4840E+00  0.4836E+00  0.5246E+01  0.5247E+01
      1.010  0.4476E+00  0.4479E+00  0.5322E+01  0.5322E+01
      1.178  0.5652E+00  0.5656E+00  0.5417E+01  0.5418E+01
      1.347  0.7379E+00  0.7380E+00  0.5542E+01  0.5542E+01
      1.516  0.7876E+00  0.7878E+00  0.5675E+01  0.5675E+01
      1.684  0.7506E+00  0.7502E+00  0.5801E+01  0.5802E+01
      1.853  0.7700E+00  0.7700E+00  0.5931E+01  0.5932E+01
      2.021  0.6910E+00  0.6910E+00  0.6048E+01  0.6049E+01
      2.190  0.7407E+00  0.7409E+00  0.6173E+01  0.6174E+01
      2.358  0.6276E+00  0.6270E+00  0.6279E+01  0.6280E+01
      2.527  0.5630E+00  0.5630E+00  0.6375E+01  0.6375E+01
      2.695  0.4778E+00  0.4776E+00  0.6455E+01  0.6456E+01
      2.864  0.4104E+00  0.4108E+00  0.6525E+01  0.6525E+01
      3.032  0.5550E+00  0.5553E+00  0.6618E+01  0.6619E+01
      3.201  0.6361E+00  0.6371E+00  0.6726E+01  0.6726E+01
      3.369  0.6233E+00  0.6239E+00  0.6831E+01  0.6832E+01
      3.538  0.5908E+00  0.5900E+00  0.6931E+01  0.6931E+01
      3.706  0.6575E+00  0.6590E+00  0.7042E+01  0.7043E+01
      3.875  0.8427E+00  0.8430E+00  0.7184E+01  0.7185E+01
      4.043  0.9252E+00  0.9260E+00  0.7341E+01  0.7342E+01
      4.212  0.7401E+00  0.7388E+00  0.7466E+01  0.7467E+01
      4.380  0.9252E+00  0.9272E+00  0.7622E+01  0.7623E+01
      4.549  0.9754E+00  0.9756E+00  0.7787E+01  0.7788E+01
      4.717  0.1152E+01  0.1152E+01  0.7981E+01  0.7982E+01
      4.886  0.1000E+01  0.9997E+00  0.8150E+01  0.8151E+01
      5.054  0.1140E+01  0.1142E+01  0.8343E+01  0.8344E+01
      5.223  0.1247E+01  0.1247E+01  0.8553E+01  0.8555E+01
      5.392  0.1220E+01  0.1219E+01  0.8760E+01  0.8761E+01
      5.560  0.1278E+01  0.1276E+01  0.8975E+01  0.8976E+01
      5.729  0.7488E+00  0.7467E+00  0.9102E+01  0.9103E+01
      5.897  0.8924E+00  0.8955E+00  0.9254E+01  0.9255E+01
      6.066  0.8728E+00  0.8705E+00  0.9401E+01  0.9402E+01
      6.234  0.5948E+00  0.5939E+00  0.9502E+01  0.9502E+01
      6.403  0.4332E+00  0.4330E+00  0.9575E+01  0.9576E+01
      6.571  0.5616E+00  0.5629E+00  0.9670E+01  0.9671E+01
      6.740  0.7718E+00  0.7731E+00  0.9800E+01  0.9801E+01
      6.908  0.8375E+00  0.8364E+00  0.9942E+01  0.9942E+01
      7.077  0.7426E+00  0.7419E+00  0.1007E+02  0.1007E+02
      7.245  0.7559E+00  0.7566E+00  0.1020E+02  0.1020E+02
      7.414  0.9085E+00  0.9091E+00  0.1035E+02  0.1035E+02
      7.582  0.1047E+01  0.1046E+01  0.1053E+02  0.1053E+02
      7.751  0.7939E+00  0.7933E+00  0.1066E+02  0.1066E+02
      7.919  0.9644E+00  0.9665E+00  0.1082E+02  0.1082E+02
      8.088  0.1142E+01  0.1141E+01  0.1102E+02  0.1102E+02
      8.256  0.8793E+00  0.8792E+00  0.1116E+02  0.1116E+02
      8.425  0.8499E+00  0.8505E+00  0.1131E+02  0.1131E+02
      8.593  0.9845E+00  0.9852E+00  0.1147E+02  0.1147E+02
      8.762  0.8918E+00  0.8907E+00  0.1162E+02  0.1163E+02
      8.931  0.8537E+00  0.8535E+00  0.1177E+02  0.1177E+02
      9.099  0.8129E+00  0.8139E+00  0.1191E+02  0.1191E+02
      9.268  0.1011E+01  0.1012E+01  0.1208E+02  0.1208E+02
      9.436  0.9743E+00  0.9749E+00  0.1224E+02  0.1224E+02
      9.605  0.1120E+01  0.1123E+01  0.1243E+02  0.1243E+02
      9.773  0.1565E+01  0.1570E+01  0.1270E+02  0.1270E+02
      9.942  0.1769E+01  0.1767E+01  0.1299E+02  0.1300E+02
     10.110  0.1689E+01  0.1686E+01  0.1328E+02  0.1328E+02
     10.279  0.1633E+01  0.1632E+01  0.1356E+02  0.1356E+02
     10.447  0.1563E+01  0.1562E+01  0.1382E+02  0.1382E+02
     10.616  0.1468E+01  0.1467E+01  0.1407E+02  0.1407E+02
     10.784  0.1819E+01  0.1806E+01  0.1438E+02  0.1437E+02
     10.953  0.1626E+01  0.1598E+01  0.1465E+02  0.1464E+02
     11.121  0.1748E+01  0.1741E+01  0.1495E+02  0.1494E+02
     11.290  0.1700E+01  0.1707E+01  0.1523E+02  0.1523E+02
     11.458  0.1304E+01  0.1326E+01  0.1545E+02  0.1545E+02
     11.627  0.1054E+01  0.1066E+01  0.1563E+02  0.1563E+02
     11.795  0.7030E+00  0.6915E+00  0.1575E+02  0.1575E+02
     11.964  0.4338E+00  0.4466E+00  0.1582E+02  0.1583E+02
     12.132  0.3968E+00  0.4091E+00  0.1589E+02  0.1589E+02
     12.301  0.3031E+00  0.2939E+00  0.1594E+02  0.1594E+02
     12.470  0.2230E+00  0.2221E+00  0.1598E+02  0.1598E+02
     12.638  0.1024E+00  0.9879E-01  0.1600E+02  0.1600E+02
     12.807  0.7696E-02  0.7574E-02  0.1600E+02  0.1600E+02
     12.975  0.0000E+00  0.0000E+00  0.1600E+02  0.1600E+02
     13.144  0.0000E+00  0.0000E+00  0.1600E+02  0.1600E+02
     13.312  0.0000E+00  0.0000E+00  0.1600E+02  0.1600E+02
     13.481  0.0000E+00  0.0000E+00  0.1600E+02  0.1600E+02
     13.649  0.0000E+00  0.0000E+00  0.1600E+02  0.1600E+02
     13.818  0.0000E+00  0.0000E+00  0.1600E+02  0.1600E+02
     13.986  0.0000E+00  0.0000E+00  0.1600E+02  0.1600E+02
     14.155  0.0000E+00  0.0000E+00  0.1600E+02  0.1600E+02
     14.323  0.0000E+00  0.0000E+00  0.1600E+02  0.1600E+02
     14.492  0.0000E+00  0.0000E+00  0.1600E+02  0.1600E+02
     14.660  0.0000E+00  0.0000E+00  0.1600E+02  0.1600E+02
     14.829  0.0000E+00  0.0000E+00  0.1600E+02  0.1600E+02
     14.82884841    -35.72815536  301      6.23035378      1.00000000
    -35.728  0.0000E+00  0.0000E+00  0.0000E+00  0.0000E+00  0.0000E+00  0.0000E+00  0.0000E+00  0.0000E+00  0.0000E+00  0.0000E+00  0.0000E+00  0.0000E+00  0.0000E+00  0.0000E+00  0.0000E+00  0.0000E+00  0.0000E+00  0.0000E+00
    -35.560  0.0000E+00  0.0000E+00  0.0000E+00  0.0000E+00  0.0000E+00  0.0000E+00  0.0000E+00  0.0000E+00  0.0000E+00  0.0000E+00  0.0000E+00  0.0000E+00  0.0000E+00  0.0000E+00  0.0000E+00  0.0000E+00  0.0000E+00  0.0000E+00
    -35.391  0.0000E+00  0.0000E+00  0.0000E+00  0.0000E+00  0.0000E+00  0.0000E+00  0.0000E+00  0.0000E+00  0.0000E+00  0.0000E+00  0.0000E+00  0.0000E+00  0.0000E+00  0.0000E+00  0.0000E+00  0.0000E+00  0.0000E+00  0.0000E+00
    -35.223  0.0000E+00  0.0000E+00  0.0000E+00  0.0000E+00  0.0000E+00  0.0000E+00  0.0000E+00  0.0000E+00  0.0000E+00  0.0000E+00  0.0000E+00  0.0000E+00  0.0000E+00  0.0000E+00  0.0000E+00  0.0000E+00  0.0000E+00  0.0000E+00
    -35.054  0.0000E+00  0.0000E+00  0.0000E+00  0.0000E+00  0.0000E+00  0.0000E+00  0.0000E+00  0.0000E+00  0.0000E+00  0.0000E+00  0.0000E+00  0.0000E+00  0.0000E+00  0.0000E+00  0.0000E+00  0.0000E+00  0.0000E+00  0.0000E+00
    -34.886  0.0000E+00  0.0000E+00  0.0000E+00  0.0000E+00  0.0000E+00  0.0000E+00  0.0000E+00  0.0000E+00  0.0000E+00  0.0000E+00  0.0000E+00  0.0000E+00  0.0000E+00  0.0000E+00  0.0000E+00  0.0000E+00  0.0000E+00  0.0000E+00
    -34.717  0.0000E+00  0.0000E+00  0.0000E+00  0.0000E+00  0.0000E+00  0.0000E+00  0.0000E+00  0.0000E+00  0.0000E+00  0.0000E+00  0.0000E+00  0.0000E+00  0.0000E+00  0.0000E+00  0.0000E+00  0.0000E+00  0.0000E+00  0.0000E+00
    -34.548  0.0000E+00  0.0000E+00  0.0000E+00  0.0000E+00  0.0000E+00  0.0000E+00  0.0000E+00  0.0000E+00  0.0000E+00  0.0000E+00  0.0000E+00  0.0000E+00  0.0000E+00  0.0000E+00  0.0000E+00  0.0000E+00  0.0000E+00  0.0000E+00
    -34.380  0.0000E+00  0.0000E+00  0.0000E+00  0.0000E+00  0.0000E+00  0.0000E+00  0.0000E+00  0.0000E+00  0.0000E+00  0.0000E+00  0.0000E+00  0.0000E+00  0.0000E+00  0.0000E+00  0.0000E+00  0.0000E+00  0.0000E+00  0.0000E+00
    -34.211  0.0000E+00  0.0000E+00  0.0000E+00  0.0000E+00  0.0000E+00  0.0000E+00  0.0000E+00  0.0000E+00  0.0000E+00  0.0000E+00  0.0000E+00  0.0000E+00  0.0000E+00  0.0000E+00  0.0000E+00  0.0000E+00  0.0000E+00  0.0000E+00
    -34.043  0.0000E+00  0.0000E+00  0.0000E+00  0.0000E+00  0.0000E+00  0.0000E+00  0.0000E+00  0.0000E+00  0.0000E+00  0.0000E+00  0.0000E+00  0.0000E+00  0.0000E+00  0.0000E+00  0.0000E+00  0.0000E+00  0.0000E+00  0.0000E+00
    -33.874  0.7472E-03  0.7286E-03  0.7038E-11  0.6967E-11  0.7038E-11  0.6967E-11  0.7108E-11  0.7034E-11  0.1446E-14  0.3187E-14  0.1937E-14  0.3812E-14  0.4561E-11  0.4441E-11  0.1446E-14  0.3187E-14  0.4588E-11  0.4472E-11
    -33.706  0.2091E-01  0.2039E-01  0.1970E-09  0.1950E-09  0.1970E-09  0.1950E-09  0.1989E-09  0.1969E-09  0.4047E-13  0.8921E-13  0.5422E-13  0.1067E-12  0.1277E-09  0.1243E-09  0.4047E-13  0.8921E-13  0.1284E-09  0.1252E-09
    -33.537  0.5490E+00  0.5366E+00  0.5170E-08  0.5131E-08  0.5170E-08  0.5131E-08  0.5222E-08  0.5180E-08  0.1063E-11  0.2343E-11  0.1424E-11  0.2804E-11  0.3352E-08  0.3272E-08  0.1063E-11  0.2343E-11  0.3371E-08  0.3294E-08
    -33.369  0.3863E+01  0.3848E+01  0.3632E-07  0.3677E-07  0.3632E-07  0.3677E-07  0.3668E-07  0.3712E-07  0.7507E-11  0.1656E-10  0.1007E-10  0.1988E-10  0.2362E-07  0.2349E-07  0.7507E-11  0.1656E-10  0.2370E-07  0.2360E-07
    -33.200  0.1345E+01  0.1371E+01  0.1263E-07  0.1309E-07  0.1263E-07  0.1309E-07  0.1275E-07  0.1321E-07  0.2626E-11  0.5800E-11  0.3530E-11  0.6982E-11  0.8236E-08  0.8379E-08  0.2626E-11  0.5800E-11  0.8242E-08  0.8395E-08
    -33.032  0.6093E-01  0.6248E-01  0.5715E-09  0.5962E-09  0.5715E-09  0.5962E-09  0.5772E-09  0.6019E-09  0.1190E-12  0.2630E-12  0.1601E-12  0.3169E-12  0.3731E-09  0.3819E-09  0.1190E-12  0.2630E-12  0.3731E-09  0.3824E-09
    -32.863  0.0000E+00  0.0000E+00  0.0000E+00  0.0000E+00  0.0000E+00  0.0000E+00  0.0000E+00  0.0000E+00  0.0000E+00  0.0000E+00  0.0000E+00  0.0000E+00  0.0000E+00  0.0000E+00  0.0000E+00  0.0000E+00  0.0000E+00  0.0000E+00
    -32.695  0.0000E+00  0.0000E+00  0.0000E+00  0.0000E+00  0.0000E+00  0.0000E+00  0.0000E+00  0.0000E+00  0.0000E+00  0.0000E+00  0.0000E+00  0.0000E+00  0.0000E+00  0.0000E+00  0.0000E+00  0.0000E+00  0.0000E+00  0.0000E+00
    -32.526  0.0000E+00  0.0000E+00  0.0000E+00  0.0000E+00  0.0000E+00  0.0000E+00  0.0000E+00  0.0000E+00  0.0000E+00  0.0000E+00  0.0000E+00  0.0000E+00  0.0000E+00  0.0000E+00  0.0000E+00  0.0000E+00  0.0000E+00  0.0000E+00
    -32.358  0.0000E+00  0.0000E+00  0.0000E+00  0.0000E+00  0.0000E+00  0.0000E+00  0.0000E+00  0.0000E+00  0.0000E+00  0.0000E+00  0.0000E+00  0.0000E+00  0.0000E+00  0.0000E+00  0.0000E+00  0.0000E+00  0.0000E+00  0.0000E+00
    -32.189  0.0000E+00  0.0000E+00  0.0000E+00  0.0000E+00  0.0000E+00  0.0000E+00  0.0000E+00  0.0000E+00  0.0000E+00  0.0000E+00  0.0000E+00  0.0000E+00  0.0000E+00  0.0000E+00  0.0000E+00  0.0000E+00  0.0000E+00  0.0000E+00
    -32.021  0.0000E+00  0.0000E+00  0.0000E+00  0.0000E+00  0.0000E+00  0.0000E+00  0.0000E+00  0.0000E+00  0.0000E+00  0.0000E+00  0.0000E+00  0.0000E+00  0.0000E+00  0.0000E+00  0.0000E+00  0.0000E+00  0.0000E+00  0.0000E+00
    -31.852  0.0000E+00  0.0000E+00  0.0000E+00  0.0000E+00  0.0000E+00  0.0000E+00  0.0000E+00  0.0000E+00  0.0000E+00  0.0000E+00  0.0000E+00  0.0000E+00  0.0000E+00  0.0000E+00  0.0000E+00  0.0000E+00  0.0000E+00  0.0000E+00
    -31.684  0.0000E+00  0.0000E+00  0.0000E+00  0.0000E+00  0.0000E+00  0.0000E+00  0.0000E+00  0.0000E+00  0.0000E+00  0.0000E+00  0.0000E+00  0.0000E+00  0.0000E+00  0.0000E+00  0.0000E+00  0.0000E+00  0.0000E+00  0.0000E+00
    -31.515  0.0000E+00  0.0000E+00  0.0000E+00  0.0000E+00  0.0000E+00  0.0000E+00  0.0000E+00  0.0000E+00  0.0000E+00  0.0000E+00  0.0000E+00  0.0000E+00  0.0000E+00  0.0000E+00  0.0000E+00  0.0000E+00  0.0000E+00  0.0000E+00
    -31.347  0.0000E+00  0.0000E+00  0.0000E+00  0.0000E+00  0.0000E+00  0.0000E+00  0.0000E+00  0.0000E+00  0.0000E+00  0.0000E+00  0.0000E+00  0.0000E+00  0.0000E+00  0.0000E+00  0.0000E+00  0.0000E+00  0.0000E+00  0.0000E+00
    -31.178  0.0000E+00  0.0000E+00  0.0000E+00  0.0000E+00  0.0000E+00  0.0000E+00  0.0000E+00  0.0000E+00  0.0000E+00  0.0000E+00  0.0000E+00  0.0000E+00  0.0000E+00  0.0000E+00  0.0000E+00  0.0000E+00  0.0000E+00  0.0000E+00
    -31.010  0.0000E+00  0.0000E+00  0.0000E+00  0.0000E+00  0.0000E+00  0.0000E+00  0.0000E+00  0.0000E+00  0.0000E+00  0.0000E+00  0.0000E+00  0.0000E+00  0.0000E+00  0.0000E+00  0.0000E+00  0.0000E+00  0.0000E+00  0.0000E+00
    -30.841  0.0000E+00  0.0000E+00  0.0000E+00  0.0000E+00  0.0000E+00  0.0000E+00  0.0000E+00  0.0000E+00  0.0000E+00  0.0000E+00  0.0000E+00  0.0000E+00  0.0000E+00  0.0000E+00  0.0000E+00  0.0000E+00  0.0000E+00  0.0000E+00
    -30.672  0.0000E+00  0.0000E+00  0.0000E+00  0.0000E+00  0.0000E+00  0.0000E+00  0.0000E+00  0.0000E+00  0.0000E+00  0.0000E+00  0.0000E+00  0.0000E+00  0.0000E+00  0.0000E+00  0.0000E+00  0.0000E+00  0.0000E+00  0.0000E+00
    -30.504  0.0000E+00  0.0000E+00  0.0000E+00  0.0000E+00  0.0000E+00  0.0000E+00  0.0000E+00  0.0000E+00  0.0000E+00  0.0000E+00  0.0000E+00  0.0000E+00  0.0000E+00  0.0000E+00  0.0000E+00  0.0000E+00  0.0000E+00  0.0000E+00
    -30.335  0.0000E+00  0.0000E+00  0.0000E+00  0.0000E+00  0.0000E+00  0.0000E+00  0.0000E+00  0.0000E+00  0.0000E+00  0.0000E+00  0.0000E+00  0.0000E+00  0.0000E+00  0.0000E+00  0.0000E+00  0.0000E+00  0.0000E+00  0.0000E+00
    -30.167  0.0000E+00  0.0000E+00  0.0000E+00  0.0000E+00  0.0000E+00  0.0000E+00  0.0000E+00  0.0000E+00  0.0000E+00  0.0000E+00  0.0000E+00  0.0000E+00  0.0000E+00  0.0000E+00  0.0000E+00  0.0000E+00  0.0000E+00  0.0000E+00
    -29.998  0.0000E+00  0.0000E+00  0.0000E+00  0.0000E+00  0.0000E+00  0.0000E+00  0.0000E+00  0.0000E+00  0.0000E+00  0.0000E+00  0.0000E+00  0.0000E+00  0.0000E+00  0.0000E+00  0.0000E+00  0.0000E+00  0.0000E+00  0.0000E+00
    -29.830  0.0000E+00  0.0000E+00  0.0000E+00  0.0000E+00  0.0000E+00  0.0000E+00  0.0000E+00  0.0000E+00  0.0000E+00  0.0000E+00  0.0000E+00  0.0000E+00  0.0000E+00  0.0000E+00  0.0000E+00  0.0000E+00  0.0000E+00  0.0000E+00
    -29.661  0.0000E+00  0.0000E+00  0.0000E+00  0.0000E+00  0.0000E+00  0.0000E+00  0.0000E+00  0.0000E+00  0.0000E+00  0.0000E+00  0.0000E+00  0.0000E+00  0.0000E+00  0.0000E+00  0.0000E+00  0.0000E+00  0.0000E+00  0.0000E+00
    -29.493  0.0000E+00  0.0000E+00  0.0000E+00  0.0000E+00  0.0000E+00  0.0000E+00  0.0000E+00  0.0000E+00  0.0000E+00  0.0000E+00  0.0000E+00  0.0000E+00  0.0000E+00  0.0000E+00  0.0000E+00  0.0000E+00  0.0000E+00  0.0000E+00
    -29.324  0.0000E+00  0.0000E+00  0.0000E+00  0.0000E+00  0.0000E+00  0.0000E+00  0.0000E+00  0.0000E+00  0.0000E+00  0.0000E+00  0.0000E+00  0.0000E+00  0.0000E+00  0.0000E+00  0.0000E+00  0.0000E+00  0.0000E+00  0.0000E+00
    -29.156  0.0000E+00  0.0000E+00  0.0000E+00  0.0000E+00  0.0000E+00  0.0000E+00  0.0000E+00  0.0000E+00  0.0000E+00  0.0000E+00  0.0000E+00  0.0000E+00  0.0000E+00  0.0000E+00  0.0000E+00  0.0000E+00  0.0000E+00  0.0000E+00
    -28.987  0.0000E+00  0.0000E+00  0.0000E+00  0.0000E+00  0.0000E+00  0.0000E+00  0.0000E+00  0.0000E+00  0.0000E+00  0.0000E+00  0.0000E+00  0.0000E+00  0.0000E+00  0.0000E+00  0.0000E+00  0.0000E+00  0.0000E+00  0.0000E+00
    -28.819  0.0000E+00  0.0000E+00  0.0000E+00  0.0000E+00  0.0000E+00  0.0000E+00  0.0000E+00  0.0000E+00  0.0000E+00  0.0000E+00  0.0000E+00  0.0000E+00  0.0000E+00  0.0000E+00  0.0000E+00  0.0000E+00  0.0000E+00  0.0000E+00
    -28.650  0.0000E+00  0.0000E+00  0.0000E+00  0.0000E+00  0.0000E+00  0.0000E+00  0.0000E+00  0.0000E+00  0.0000E+00  0.0000E+00  0.0000E+00  0.0000E+00  0.0000E+00  0.0000E+00  0.0000E+00  0.0000E+00  0.0000E+00  0.0000E+00
    -28.482  0.0000E+00  0.0000E+00  0.0000E+00  0.0000E+00  0.0000E+00  0.0000E+00  0.0000E+00  0.0000E+00  0.0000E+00  0.0000E+00  0.0000E+00  0.0000E+00  0.0000E+00  0.0000E+00  0.0000E+00  0.0000E+00  0.0000E+00  0.0000E+00
    -28.313  0.0000E+00  0.0000E+00  0.0000E+00  0.0000E+00  0.0000E+00  0.0000E+00  0.0000E+00  0.0000E+00  0.0000E+00  0.0000E+00  0.0000E+00  0.0000E+00  0.0000E+00  0.0000E+00  0.0000E+00  0.0000E+00  0.0000E+00  0.0000E+00
    -28.145  0.0000E+00  0.0000E+00  0.0000E+00  0.0000E+00  0.0000E+00  0.0000E+00  0.0000E+00  0.0000E+00  0.0000E+00  0.0000E+00  0.0000E+00  0.0000E+00  0.0000E+00  0.0000E+00  0.0000E+00  0.0000E+00  0.0000E+00  0.0000E+00
    -27.976  0.0000E+00  0.0000E+00  0.0000E+00  0.0000E+00  0.0000E+00  0.0000E+00  0.0000E+00  0.0000E+00  0.0000E+00  0.0000E+00  0.0000E+00  0.0000E+00  0.0000E+00  0.0000E+00  0.0000E+00  0.0000E+00  0.0000E+00  0.0000E+00
    -27.808  0.0000E+00  0.0000E+00  0.0000E+00  0.0000E+00  0.0000E+00  0.0000E+00  0.0000E+00  0.0000E+00  0.0000E+00  0.0000E+00  0.0000E+00  0.0000E+00  0.0000E+00  0.0000E+00  0.0000E+00  0.0000E+00  0.0000E+00  0.0000E+00
    -27.639  0.0000E+00  0.0000E+00  0.0000E+00  0.0000E+00  0.0000E+00  0.0000E+00  0.0000E+00  0.0000E+00  0.0000E+00  0.0000E+00  0.0000E+00  0.0000E+00  0.0000E+00  0.0000E+00  0.0000E+00  0.0000E+00  0.0000E+00  0.0000E+00
    -27.471  0.0000E+00  0.0000E+00  0.0000E+00  0.0000E+00  0.0000E+00  0.0000E+00  0.0000E+00  0.0000E+00  0.0000E+00  0.0000E+00  0.0000E+00  0.0000E+00  0.0000E+00  0.0000E+00  0.0000E+00  0.0000E+00  0.0000E+00  0.0000E+00
    -27.302  0.0000E+00  0.0000E+00  0.0000E+00  0.0000E+00  0.0000E+00  0.0000E+00  0.0000E+00  0.0000E+00  0.0000E+00  0.0000E+00  0.0000E+00  0.0000E+00  0.0000E+00  0.0000E+00  0.0000E+00  0.0000E+00  0.0000E+00  0.0000E+00