   4   4   1   0
  0.2510018E+02  0.4646746E-09  0.4648298E-09  0.4648298E-09  0.5000000E-15
  1.000000000000000E-004
  CAR 
 unknown system                          
     11.30925847    -38.89589573  301      4.08833154      1.00000000
    -38.896  0.0000E+00  0.0000E+00  0.0000E+00  0.0000E+00
    -38.729  0.0000E+00  0.0000E+00  0.0000E+00  0.0000E+00
    -38.561  0.0000E+00  0.0000E+00  0.0000E+00  0.0000E+00
    -38.394  0.0000E+00  0.0000E+00  0.0000E+00  0.0000E+00
    -38.226  0.0000E+00  0.0000E+00  0.0000E+00  0.0000E+00
    -38.059  0.0000E+00  0.0000E+00  0.0000E+00  0.0000E+00
    -37.892  0.0000E+00  0.0000E+00  0.0000E+00  0.0000E+00
    -37.724  0.0000E+00  0.0000E+00  0.0000E+00  0.0000E+00
    -37.557  0.0000E+00  0.0000E+00  0.0000E+00  0.0000E+00
    -37.390  0.0000E+00  0.0000E+00  0.0000E+00  0.0000E+00
    -37.222  0.0000E+00  0.0000E+00  0.0000E+00  0.0000E+00
    -37.055  0.8667E-03  0.8371E-03  0.1450E-03  0.1401E-03
    -36.888  0.2366E-01  0.2286E-01  0.4105E-02  0.3966E-02
    -36.720  0.6021E+00  0.5837E+00  0.1049E+00  0.1016E+00
    -36.553  0.3969E+01  0.3951E+01  0.7690E+00  0.7628E+00
    -36.386  0.1318E+01  0.1353E+01  0.9895E+00  0.9892E+00
    -36.218  0.6028E-01  0.6239E-01  0.9996E+00  0.9996E+00
    -36.051  0.0000E+00  0.0000E+00  0.1000E+01  0.1000E+01
    -35.884  0.0000E+00  0.0000E+00  0.1000E+01  0.1000E+01
    -35.716  0.0000E+00  0.0000E+00  0.1000E+01  0.1000E+01
    -35.549  0.0000E+00  0.0000E+00  0.1000E+01  0.1000E+01
    -35.382  0.0000E+00  0.0000E+00  0.1000E+01  0.1000E+01
    -35.214  0.0000E+00  0.0000E+00  0.1000E+01  0.1000E+01
    -35.047  0.0000E+00  0.0000E+00  0.1000E+01  0.1000E+01
    -34.879  0.0000E+00  0.0000E+00  0.1000E+01  0.1000E+01
    -34.712  0.0000E+00  0.0000E+00  0.1000E+01  0.1000E+01
    -34.545  0.0000E+00  0.0000E+00  0.1000E+01  0.1000E+01
    -34.377  0.0000E+00  0.0000E+00  0.1000E+01  0.1000E+01
    -34.210  0.0000E+00  0.0000E+00  0.1000E+01  0.1000E+01
    -34.043  0.0000E+00  0.0000E+00  0.1000E+01  0.1000E+01
    -33.875  0.0000E+00  0.0000E+00  0.1000E+01  0.1000E+01
    -33.708  0.0000E+00  0.0000E+00  0.1000E+01  0.1000E+01
    -33.541  0.0000E+00  0.0000E+00  0.1000E+01  0.1000E+01
    -33.373  0.0000E+00  0.0000E+00  0.1000E+01  0.1000E+01
    -33.206  0.0000E+00  0.0000E+00  0.1000E+01  0.1000E+01
    -33.039  0.0000E+00  0.0000E+00  0.1000E+01  0.1000E+01
    -32.871  0.0000E+00  0.0000E+00  0.1000E+01  0.1000E+01
    -32.704  0.0000E+00  0.0000E+00  0.1000E+01  0.1000E+01
    -32.537  0.0000E+00  0.0000E+00  0.1000E+01  0.1000E+01
    -32.369  0.0000E+00  0.0000E+00  0.1000E+01  0.1000E+01
    -32.202  0.0000E+00  0.0000E+00  0.1000E+01  0.1000E+01
    -32.035  0.0000E+00  0.0000E+00  0.1000E+01  0.1000E+01
    -31.867  0.0000E+00  0.0000E+00  0.1000E+01  0.1000E+01
    -31.700  0.0000E+00  0.0000E+00  0.1000E+01  0.1000E+01
    -31.532  0.0000E+00  0.0000E+00  0.1000E+01  0.1000E+01
    -31.365  0.0000E+00  0.0000E+00  0.1000E+01  0.1000E+01
    -31.198  0.0000E+00  0.0000E+00  0.1000E+01  0.1000E+01
    -31.030  0.0000E+00  0.0000E+00  0.1000E+01  0.1000E+01
    -30.863  0.0000E+00  0.0000E+00  0.1000E+01  0.1000E+01
    -30.696  0.0000E+00  0.0000E+00  0.1000E+01  0.1000E+01
    -30.528  0.0000E+00  0.0000E+00  0.1000E+01  0.1000E+01
    -30.361  0.0000E+00  0.0000E+00  0.1000E+01  0.1000E+01
    -30.194  0.0000E+00  0.0000E+00  0.1000E+01  0.1000E+01
    -30.026  0.0000E+00  0.0000E+00  0.1000E+01  0.1000E+01
    -29.859  0.0000E+00  0.0000E+00  0.1000E+01  0.1000E+01
    -29.692  0.0000E+00  0.0000E+00  0.1000E+01  0.1000E+01
    -29.524  0.0000E+00  0.0000E+00  0.1000E+01  0.1000E+01
    -29.357  0.0000E+00  0.0000E+00  0.1000E+01  0.1000E+01
    -29.190  0.0000E+00  0.0000E+00  0.1000E+01  0.1000E+01
    -29.022  0.0000E+00  0.0000E+00  0.1000E+01  0.1000E+01
    -28.855  0.0000E+00  0.0000E+00  0.1000E+01  0.1000E+01
    -28.688  0.0000E+00  0.0000E+00  0.1000E+01  0.1000E+01
    -28.520  0.0000E+00  0.0000E+00  0.1000E+01  0.1000E+01
    -28.353  0.0000E+00  0.0000E+00  0.1000E+01  0.1000E+01
    -28.185  0.0000E+00  0.0000E+00  0.1000E+01  0.1000E+01
    -28.018  0.0000E+00  0.0000E+00  0.1000E+01  0.1000E+01
    -27.851  0.0000E+00  0.0000E+00  0.1000E+01  0.1000E+01
    -27.683  0.0000E+00  0.0000E+00  0.1000E+01  0.1000E+01
    -27.516  0.0000E+00  0.0000E+00  0.1000E+01  0.1000E+01
    -27.349  0.0000E+00  0.0000E+00  0.1000E+01  0.1000E+01
    -27.181  0.0000E+00  0.0000E+00  0.1000E+01  0.1000E+01
    -27.014  0.0000E+00  0.0000E+00  0.1000E+01  0.1000E+01
    -26.847  0.0000E+00  0.0000E+00  0.1000E+01  0.1000E+01
    -26.679  0.0000E+00  0.0000E+00  0.1000E+01  0.1000E+01
    -26.512  0.0000E+00  0.0000E+00  0.1000E+01  0.1000E+01
    -26.345  0.0000E+00  0.0000E+00  0.1000E+01  0.1000E+01
    -26.177  0.0000E+00  0.0000E+00  0.1000E+01  0.1000E+01
    -26.010  0.0000E+00  0.0000E+00  0.1000E+01  0.1000E+01
    -25.843  0.0000E+00  0.0000E+00  0.1000E+01  0.1000E+01
    -25.675  0.0000E+00  0.0000E+00  0.1000E+01  0.1000E+01
    -25.508  0.0000E+00  0.0000E+00  0.1000E+01  0.1000E+01
    -25.341  0.0000E+00  0.0000E+00  0.1000E+01  0.1000E+01
    -25.173  0.0000E+00  0.0000E+00  0.1000E+01  0.1000E+01
    -25.006  0.0000E+00  0.0000E+00  0.1000E+01  0.1000E+01
    -24.838  0.0000E+00  0.0000E+00  0.1000E+01  0.1000E+01
    -24.671  0.0000E+00  0.0000E+00  0.1000E+01  0.1000E+01
    -24.504  0.0000E+00  0.0000E+00  0.1000E+01  0.1000E+01
    -24.336  0.0000E+00  0.0000E+00  0.1000E+01  0.1000E+01
    -24.169  0.0000E+00  0.0000E+00  0.1000E+01  0.1000E+01
    -24.002  0.0000E+00  0.0000E+00  0.1000E+01  0.1000E+01
    -23.834  0.0000E+00  0.0000E+00  0.1000E+01  0.1000E+01
    -23.667  0.0000E+00  0.0000E+00  0.1000E+01  0.1000E+01
    -23.500  0.0000E+00  0.0000E+00  0.1000E+01  0.1000E+01
    -23.332  0.0000E+00  0.0000E+00  0.1000E+01  0.1000E+01
    -23.165  0.0000E+00  0.0000E+00  0.1000E+01  0.1000E+01
    -22.998  0.0000E+00  0.0000E+00  0.1000E+01  0.1000E+01
    -22.830  0.0000E+00  0.0000E+00  0.1000E+01  0.1000E+01
    -22.663  0.0000E+00  0.0000E+00  0.1000E+01  0.1000E+01
    -22.496  0.0000E+00  0.0000E+00  0.1000E+01  0.1000E+01
    -22.328  0.0000E+00  0.0000E+00  0.1000E+01  0.1000E+01
    -22.161  0.0000E+00  0.0000E+00  0.1000E+01  0.1000E+01
    -21.993  0.0000E+00  0.0000E+00  0.1000E+01  0.1000E+01
    -21.826  0.0000E+00  0.0000E+00  0.1000E+01  0.1000E+01
    -21.659  0.0000E+00  0.0000E+00  0.1000E+01  0.1000E+01
    -21.491  0.0000E+00  0.0000E+00  0.1000E+01  0.1000E+01
    -21.324  0.0000E+00  0.0000E+00  0.1000E+01  0.1000E+01
    -21.157  0.0000E+00  0.0000E+00  0.1000E+01  0.1000E+01
    -20.989  0.0000E+00  0.0000E+00  0.1000E+01  0.1000E+01
    -20.822  0.0000E+00  0.0000E+00  0.1000E+01  0.1000E+01
    -20.655  0.0000E+00  0.0000E+00  0.1000E+01  0.1000E+01
    -20.487  0.0000E+00  0.0000E+00  0.1000E+01  0.1000E+01
    -20.320  0.0000E+00  0.0000E+00  0.1000E+01  0.1000E+01
    -20.153  0.0000E+00  0.0000E+00  0.1000E+01  0.1000E+01
    -19.985  0.0000E+00  0.0000E+00  0.1000E+01  0.1000E+01
    -19.818  0.0000E+00  0.0000E+00  0.1000E+01  0.1000E+01
    -19.651  0.0000E+00  0.0000E+00  0.1000E+01  0.1000E+01
    -19.483  0.0000E+00  0.0000E+00  0.1000E+01  0.1000E+01
    -19.316  0.0000E+00  0.0000E+00  0.1000E+01  0.1000E+01
    -19.149  0.0000E+00  0.0000E+00  0.1000E+01  0.1000E+01
    -18.981  0.0000E+00  0.0000E+00  0.1000E+01  0.1000E+01
    -18.814  0.0000E+00  0.0000E+00  0.1000E+01  0.1000E+01
    -18.646  0.0000E+00  0.0000E+00  0.1000E+01  0.1000E+01
    -18.479  0.0000E+00  0.0000E+00  0.1000E+01  0.1000E+01
    -18.312  0.0000E+00  0.0000E+00  0.1000E+01  0.1000E+01
    -18.144  0.1196E-02  0.1151E-02  0.1000E+01  0.1000E+01
    -17.977  0.3274E-01  0.3149E-01  0.1006E+01  0.1005E+01
    -17.810  0.8823E+00  0.8503E+00  0.1153E+01  0.1148E+01
    -17.642  0.9892E+01  0.9758E+01  0.2809E+01  0.2781E+01
    -17.475  0.6710E+01  0.6861E+01  0.3932E+01  0.3929E+01
    -17.308  0.3935E+00  0.4087E+00  0.3998E+01  0.3997E+01
    -17.140  0.0000E+00  0.0000E+00  0.4000E+01  0.4000E+01
    -16.973  0.0000E+00  0.0000E+00  0.4000E+01  0.4000E+01
    -16.806  0.0000E+00  0.0000E+00  0.4000E+01  0.4000E+01
    -16.638  0.0000E+00  0.0000E+00  0.4000E+01  0.4000E+01
    -16.471  0.0000E+00  0.0000E+00  0.4000E+01  0.4000E+01
    -16.304  0.0000E+00  0.0000E+00  0.4000E+01  0.4000E+01
    -16.136  0.0000E+00  0.0000E+00  0.4000E+01  0.4000E+01
    -15.969  0.0000E+00  0.0000E+00  0.4000E+01  0.4000E+01
    -15.802  0.0000E+00  0.0000E+00  0.4000E+01  0.4000E+01
    -15.634  0.0000E+00  0.0000E+00  0.4000E+01  0.4000E+01
    -15.467  0.0000E+00  0.0000E+00  0.4000E+01  0.4000E+01
    -15.299  0.0000E+00  0.0000E+00  0.4000E+01  0.4000E+01
    -15.132  0.0000E+00  0.0000E+00  0.4000E+01  0.4000E+01
    -14.965  0.0000E+00  0.0000E+00  0.4000E+01  0.4000E+01
    -14.797  0.0000E+00  0.0000E+00  0.4000E+01  0.4000E+01
    -14.630  0.0000E+00  0.0000E+00  0.4000E+01  0.4000E+01
    -14.463  0.0000E+00  0.0000E+00  0.4000E+01  0.4000E+01
    -14.295  0.0000E+00  0.0000E+00  0.4000E+01  0.4000E+01
    -14.128  0.0000E+00  0.0000E+00  0.4000E+01  0.4000E+01
    -13.961  0.0000E+00  0.0000E+00  0.4000E+01  0.4000E+01
    -13.793  0.0000E+00  0.0000E+00  0.4000E+01  0.4000E+01
    -13.626  0.0000E+00  0.0000E+00  0.4000E+01  0.4000E+01
    -13.459  0.0000E+00  0.0000E+00  0.4000E+01  0.4000E+01
    -13.291  0.0000E+00  0.0000E+00  0.4000E+01  0.4000E+01
    -13.124  0.0000E+00  0.0000E+00  0.4000E+01  0.4000E+01
    -12.957  0.0000E+00  0.0000E+00  0.4000E+01  0.4000E+01
    -12.789  0.0000E+00  0.0000E+00  0.4000E+01  0.4000E+01
    -12.622  0.0000E+00  0.0000E+00  0.4000E+01  0.4000E+01
    -12.455  0.0000E+00  0.0000E+00  0.4000E+01  0.4000E+01
    -12.287  0.0000E+00  0.0000E+00  0.4000E+01  0.4000E+01
    -12.120  0.0000E+00  0.0000E+00  0.4000E+01  0.4000E+01
    -11.952  0.0000E+00  0.0000E+00  0.4000E+01  0.4000E+01
    -11.785  0.0000E+00  0.0000E+00  0.4000E+01  0.4000E+01
    -11.618  0.0000E+00  0.0000E+00  0.4000E+01  0.4000E+01
    -11.450  0.0000E+00  0.0000E+00  0.4000E+01  0.4000E+01
    -11.283  0.0000E+00  0.0000E+00  0.4000E+01  0.4000E+01
    -11.116  0.0000E+00  0.0000E+00  0.4000E+01  0.4000E+01
    -10.948  0.0000E+00  0.0000E+00  0.4000E+01  0.4000E+01
    -10.781  0.0000E+00  0.0000E+00  0.4000E+01  0.4000E+01
    -10.614  0.0000E+00  0.0000E+00  0.4000E+01  0.4000E+01
    -10.446  0.0000E+00  0.0000E+00  0.4000E+01  0.4000E+01
    -10.279  0.0000E+00  0.0000E+00  0.4000E+01  0.4000E+01
    -10.112  0.0000E+00  0.0000E+00  0.4000E+01  0.4000E+01
     -9.944  0.0000E+00  0.0000E+00  0.4000E+01  0.4000E+01
     -9.777  0.0000E+00  0.0000E+00  0.4000E+01  0.4000E+01
     -9.610  0.0000E+00  0.0000E+00  0.4000E+01  0.4000E+01
     -9.442  0.0000E+00  0.0000E+00  0.4000E+01  0.4000E+01
     -9.275  0.0000E+00  0.0000E+00  0.4000E+01  0.4000E+01
     -9.108  0.0000E+00  0.0000E+00  0.4000E+01  0.4000E+01
     -8.940  0.0000E+00  0.0000E+00  0.4000E+01  0.4000E+01
     -8.773  0.0000E+00  0.0000E+00  0.4000E+01  0.4000E+01
     -8.605  0.0000E+00  0.0000E+00  0.4000E+01  0.4000E+01
     -8.438  0.0000E+00  0.0000E+00  0.4000E+01  0.4000E+01
     -8.271  0.0000E+00  0.0000E+00  0.4000E+01  0.4000E+01
     -8.103  0.0000E+00  0.0000E+00  0.4000E+01  0.4000E+01
     -7.936  0.0000E+00  0.0000E+00  0.4000E+01  0.4000E+01
     -7.769  0.0000E+00  0.0000E+00  0.4000E+01  0.4000E+01
     -7.601  0.0000E+00  0.0000E+00  0.4000E+01  0.4000E+01
     -7.434  0.0000E+00  0.0000E+00  0.4000E+01  0.4000E+01
     -7.267  0.0000E+00  0.0000E+00  0.4000E+01  0.4000E+01
     -7.099  0.0000E+00  0.0000E+00  0.4000E+01  0.4000E+01
     -6.932  0.0000E+00  0.0000E+00  0.4000E+01  0.4000E+01
     -6.765  0.0000E+00  0.0000E+00  0.4000E+01  0.4000E+01
     -6.597  0.0000E+00  0.0000E+00  0.4000E+01  0.4000E+01
     -6.430  0.0000E+00  0.0000E+00  0.4000E+01  0.4000E+01
     -6.263  0.0000E+00  0.0000E+00  0.4000E+01  0.4000E+01
     -6.095  0.0000E+00  0.0000E+00  0.4000E+01  0.4000E+01
     -5.928  0.0000E+00  0.0000E+00  0.4000E+01  0.4000E+01
     -5.760  0.0000E+00  0.0000E+00  0.4000E+01  0.4000E+01
     -5.593  0.0000E+00  0.0000E+00  0.4000E+01  0.4000E+01
     -5.426  0.0000E+00  0.0000E+00  0.4000E+01  0.4000E+01
     -5.258  0.0000E+00  0.0000E+00  0.4000E+01  0.4000E+01
     -5.091  0.0000E+00  0.0000E+00  0.4000E+01  0.4000E+01
     -4.924  0.0000E+00  0.0000E+00  0.4000E+01  0.4000E+01
     -4.756  0.0000E+00  0.0000E+00  0.4000E+01  0.4000E+01
     -4.589  0.0000E+00  0.0000E+00  0.4000E+01  0.4000E+01
     -4.422  0.0000E+00  0.0000E+00  0.4000E+01  0.4000E+01
     -4.254  0.3710E-06  0.3643E-06  0.4000E+01  0.4000E+01
     -4.087  0.2076E-04  0.2038E-04  0.4000E+01  0.4000E+01
     -3.920  0.5912E-03  0.5806E-03  0.4000E+01  0.4000E+01
     -3.752  0.1330E-01  0.1311E-01  0.4002E+01  0.4002E+01
     -3.585  0.8591E-01  0.8537E-01  0.4017E+01  0.4017E+01
     -3.418  0.1675E+00  0.1671E+00  0.4045E+01  0.4045E+01
     -3.250  0.2315E+00  0.2312E+00  0.4084E+01  0.4083E+01
     -3.083  0.2679E+00  0.2675E+00  0.4128E+01  0.4128E+01
     -2.916  0.3356E+00  0.3354E+00  0.4185E+01  0.4184E+01
     -2.748  0.3462E+00  0.3456E+00  0.4243E+01  0.4242E+01
     -2.581  0.4361E+00  0.4359E+00  0.4316E+01  0.4316E+01
     -2.413  0.4677E+00  0.4667E+00  0.4394E+01  0.4394E+01
     -2.246  0.5465E+00  0.5468E+00  0.4486E+01  0.4485E+01
     -2.079  0.5523E+00  0.5521E+00  0.4578E+01  0.4578E+01
     -1.911  0.4479E+00  0.4485E+00  0.4654E+01  0.4653E+01
     -1.744  0.4676E+00  0.4679E+00  0.4732E+01  0.4732E+01
     -1.577  0.3695E+00  0.3689E+00  0.4794E+01  0.4794E+01
     -1.409  0.4869E+00  0.4872E+00  0.4876E+01  0.4876E+01
     -1.242  0.5094E+00  0.5090E+00  0.4961E+01  0.4961E+01
     -1.075  0.4933E+00  0.4934E+00  0.5044E+01  0.5044E+01
     -0.907  0.6142E+00  0.6135E+00  0.5147E+01  0.5147E+01
     -0.740  0.6183E+00  0.6179E+00  0.5251E+01  0.5250E+01
     -0.573  0.7208E+00  0.7205E+00  0.5372E+01  0.5371E+01
     -0.405  0.8892E+00  0.8874E+00  0.5521E+01  0.5520E+01
     -0.238  0.9168E+00  0.9177E+00  0.5675E+01  0.5674E+01
     -0.071  0.8877E+00  0.8869E+00  0.5824E+01  0.5823E+01
      0.097  0.8594E+00  0.8609E+00  0.5968E+01  0.5967E+01
      0.264  0.6982E+00  0.6978E+00  0.6085E+01  0.6084E+01
      0.431  0.8526E+00  0.8521E+00  0.6228E+01  0.6227E+01
      0.599  0.7175E+00  0.7191E+00  0.6348E+01  0.6348E+01
      0.766  0.4479E+00  0.4483E+00  0.6423E+01  0.6423E+01
      0.934  0.5836E+00  0.5831E+00  0.6522E+01  0.6521E+01
      1.101  0.5393E+00  0.5400E+00  0.6612E+01  0.6611E+01
      1.268  0.4904E+00  0.4902E+00  0.6694E+01  0.6694E+01
      1.436  0.4438E+00  0.4445E+00  0.6769E+01  0.6769E+01
      1.603  0.5274E+00  0.5259E+00  0.6858E+01  0.6857E+01
      1.770  0.8195E+00  0.8190E+00  0.6995E+01  0.6994E+01
      1.938  0.8034E+00  0.8036E+00  0.7130E+01  0.7129E+01
      2.105  0.8269E+00  0.8268E+00  0.7268E+01  0.7268E+01
      2.272  0.9297E+00  0.9296E+00  0.7424E+01  0.7424E+01
      2.440  0.9670E+00  0.9658E+00  0.7586E+01  0.7586E+01
      2.607  0.9753E+00  0.9766E+00  0.7750E+01  0.7749E+01
      2.774  0.1142E+01  0.1140E+01  0.7941E+01  0.7940E+01
      2.942  0.1142E+01  0.1143E+01  0.8133E+01  0.8132E+01
      3.109  0.1173E+01  0.1171E+01  0.8330E+01  0.8329E+01
      3.276  0.1377E+01  0.1377E+01  0.8561E+01  0.8560E+01
      3.444  0.1292E+01  0.1292E+01  0.8777E+01  0.8776E+01
      3.611  0.1233E+01  0.1234E+01  0.8984E+01  0.8983E+01
      3.778  0.1024E+01  0.1024E+01  0.9156E+01  0.9155E+01
      3.946  0.1148E+01  0.1148E+01  0.9349E+01  0.9348E+01
      4.113  0.1030E+01  0.1031E+01  0.9522E+01  0.9521E+01
      4.281  0.6897E+00  0.6906E+00  0.9638E+01  0.9638E+01
      4.448  0.1082E+01  0.1079E+01  0.9820E+01  0.9819E+01
      4.615  0.1275E+01  0.1276E+01  0.1003E+02  0.1003E+02
      4.783  0.1121E+01  0.1122E+01  0.1022E+02  0.1022E+02
      4.950  0.8791E+00  0.8793E+00  0.1037E+02  0.1037E+02
      5.117  0.1145E+01  0.1143E+01  0.1056E+02  0.1056E+02
      5.285  0.1299E+01  0.1299E+01  0.1078E+02  0.1078E+02
      5.452  0.9549E+00  0.9572E+00  0.1094E+02  0.1094E+02
      5.619  0.8464E+00  0.8453E+00  0.1108E+02  0.1108E+02
      5.787  0.9203E+00  0.9206E+00  0.1124E+02  0.1124E+02
      5.954  0.1166E+01  0.1164E+01  0.1143E+02  0.1143E+02
      6.121  0.1157E+01  0.1157E+01  0.1163E+02  0.1163E+02
      6.289  0.1189E+01  0.1189E+01  0.1183E+02  0.1182E+02
      6.456  0.1189E+01  0.1190E+01  0.1203E+02  0.1202E+02
      6.623  0.1221E+01  0.1221E+01  0.1223E+02  0.1223E+02
      6.791  0.1416E+01  0.1417E+01  0.1247E+02  0.1247E+02
      6.958  0.1755E+01  0.1755E+01  0.1276E+02  0.1276E+02
      7.125  0.1635E+01  0.1634E+01  0.1304E+02  0.1304E+02
      7.293  0.1927E+01  0.1926E+01  0.1336E+02  0.1336E+02
      7.460  0.2180E+01  0.2178E+01  0.1372E+02  0.1372E+02
      7.628  0.2103E+01  0.2097E+01  0.1408E+02  0.1408E+02
      7.795  0.2146E+01  0.2131E+01  0.1444E+02  0.1443E+02
      7.962  0.2160E+01  0.2167E+01  0.1480E+02  0.1480E+02
      8.130  0.2531E+01  0.2473E+01  0.1522E+02  0.1521E+02
      8.297  0.2120E+01  0.2130E+01  0.1558E+02  0.1557E+02
      8.464  0.1163E+01  0.1195E+01  0.1578E+02  0.1577E+02
      8.632  0.6040E+00  0.6267E+00  0.1588E+02  0.1588E+02
      8.799  0.3615E+00  0.3611E+00  0.1594E+02  0.1594E+02
      8.966  0.2635E+00  0.2703E+00  0.1598E+02  0.1598E+02
      9.134  0.8851E-01  0.9661E-01  0.1600E+02  0.1600E+02
      9.301  0.6091E-02  0.7078E-02  0.1600E+02  0.1600E+02
      9.468  0.0000E+00  0.0000E+00  0.1600E+02  0.1600E+02
      9.636  0.0000E+00  0.0000E+00  0.1600E+02  0.1600E+02
      9.803  0.0000E+00  0.0000E+00  0.1600E+02  0.1600E+02
      9.970  0.0000E+00  0.0000E+00  0.1600E+02  0.1600E+02
     10.138  0.0000E+00  0.0000E+00  0.1600E+02  0.1600E+02
     10.305  0.0000E+00  0.0000E+00  0.1600E+02  0.1600E+02
     10.473  0.0000E+00  0.0000E+00  0.1600E+02  0.1600E+02
     10.640  0.0000E+00  0.0000E+00  0.1600E+02  0.1600E+02
     10.807  0.0000E+00  0.0000E+00  0.1600E+02  0.1600E+02
     10.975  0.0000E+00  0.0000E+00  0.1600E+02  0.1600E+02
     11.142  0.0000E+00  0.0000E+00  0.1600E+02  0.1600E+02
     11.309  0.0000E+00  0.0000E+00  0.1600E+02  0.1600E+02
     11.30925847    -38.89589573  301      4.08833154      1.00000000
    -38.896  0.0000E+00  0.0000E+00  0.0000E+00  0.0000E+00  0.0000E+00  0.0000E+00  0.0000E+00  0.0000E+00  0.0000E+00  0.0000E+00  0.0000E+00  0.0000E+00  0.0000E+00  0.0000E+00  0.0000E+00  0.0000E+00  0.0000E+00  0.0000E+00
    -38.729  0.0000E+00  0.0000E+00  0.0000E+00  0.0000E+00  0.0000E+00  0.0000E+00  0.0000E+00  0.0000E+00  0.0000E+00  0.0000E+00  0.0000E+00  0.0000E+00  0.0000E+00  0.0000E+00  0.0000E+00  0.0000E+00  0.0000E+00  0.0000E+00
    -38.561  0.0000E+00  0.0000E+00  0.0000E+00  0.0000E+00  0.0000E+00  0.0000E+00  0.0000E+00  0.0000E+00  0.0000E+00  0.0000E+00  0.0000E+00  0.0000E+00  0.0000E+00  0.0000E+00  0.0000E+00  0.0000E+00  0.0000E+00  0.0000E+00
    -38.394  0.0000E+00  0.0000E+00  0.0000E+00  0.0000E+00  0.0000E+00  0.0000E+00  0.0000E+00  0.0000E+00  0.0000E+00  0.0000E+00  0.0000E+00  0.0000E+00  0.0000E+00  0.0000E+00  0.0000E+00  0.0000E+00  0.0000E+00  0.0000E+00
    -38.226  0.0000E+00  0.0000E+00  0.0000E+00  0.0000E+00  0.0000E+00  0.0000E+00  0.0000E+00  0.0000E+00  0.0000E+00  0.0000E+00  0.0000E+00  0.0000E+00  0.0000E+00  0.0000E+00  0.0000E+00  0.0000E+00  0.0000E+00  0.0000E+00
    -38.059  0.0000E+00  0.0000E+00  0.0000E+00  0.0000E+00  0.0000E+00  0.0000E+00  0.0000E+00  0.0000E+00  0.0000E+00  0.0000E+00  0.0000E+00  0.0000E+00  0.0000E+00  0.0000E+00  0.0000E+00  0.0000E+00  0.0000E+00  0.0000E+00
    -37.892  0.0000E+00  0.0000E+00  0.0000E+00  0.0000E+00  0.0000E+00  0.0000E+00  0.0000E+00  0.0000E+00  0.0000E+00  0.0000E+00  0.0000E+00  0.0000E+00  0.0000E+00  0.0000E+00  0.0000E+00  0.0000E+00  0.0000E+00  0.0000E+00
    -37.724  0.0000E+00  0.0000E+00  0.0000E+00  0.0000E+00  0.0000E+00  0.0000E+00  0.0000E+00  0.0000E+00  0.0000E+00  0.0000E+00  0.0000E+00  0.0000E+00  0.0000E+00  0.0000E+00  0.0000E+00  0.0000E+00  0.0000E+00  0.0000E+00
    -37.557  0.0000E+00  0.0000E+00  0.0000E+00  0.0000E+00  0.0000E+00  0.0000E+00  0.0000E+00  0.0000E+00  0.0000E+00  0.0000E+00  0.0000E+00  0.0000E+00  0.0000E+00  0.0000E+00  0.0000E+00  0.0000E+00  0.0000E+00  0.0000E+00
    -37.390  0.0000E+00  0.0000E+00  0.0000E+00  0.0000E+00  0.0000E+00  0.0000E+00  0.0000E+00  0.0000E+00  0.0000E+00  0.0000E+00  0.0000E+00  0.0000E+00  0.0000E+00  0.0000E+00  0.0000E+00  0.0000E+00  0.0000E+00  0.0000E+00
    -37.222  0.0000E+00  0.0000E+00  0.0000E+00  0.0000E+00  0.0000E+00  0.0000E+00  0.0000E+00  0.0000E+00  0.0000E+00  0.0000E+00  0.0000E+00  0.0000E+00  0.0000E+00  0.0000E+00  0.0000E+00  0.0000E+00  0.0000E+00  0.0000E+00
    -37.055  0.8543E-03  0.8251E-03  0.2679E-12  0.3425E-12  0.2679E-12  0.3425E-12  0.2711E-12  0.3460E-12  0.9879E-15  0.2853E-13  0.1028E-14  0.2811E-13  0.1568E-12  0.2595E-12  0.9879E-15  0.2853E-13  0.1551E-12  0.2604E-12
    -36.888  0.2333E-01  0.2253E-01  0.7315E-11  0.9353E-11  0.7315E-11  0.9353E-11  0.7403E-11  0.9448E-11  0.2698E-13  0.7792E-12  0.2808E-13  0.7677E-12  0.4281E-11  0.7086E-11  0.2698E-13  0.7792E-12  0.4234E-11  0.7111E-11
    -36.720  0.5935E+00  0.5753E+00  0.1861E-09  0.2388E-09  0.1861E-09  0.2388E-09  0.1883E-09  0.2412E-09  0.6865E-12  0.1990E-10  0.7145E-12  0.1960E-10  0.1089E-09  0.1809E-09  0.6865E-12  0.1990E-10  0.1077E-09  0.1816E-09
    -36.553  0.3912E+01  0.3894E+01  0.1227E-08  0.1617E-08  0.1227E-08  0.1617E-08  0.1242E-08  0.1633E-08  0.4535E-11  0.1347E-09  0.4717E-11  0.1327E-09  0.7182E-09  0.1225E-08  0.4535E-11  0.1347E-09  0.7100E-09  0.1228E-08
    -36.386  0.1299E+01  0.1334E+01  0.4074E-09  0.5540E-09  0.4074E-09  0.5540E-09  0.4123E-09  0.5596E-09  0.1510E-11  0.4613E-10  0.1570E-11  0.4543E-10  0.2386E-09  0.4195E-09  0.1510E-11  0.4613E-10  0.2357E-09  0.4205E-09
    -36.218  0.5943E-01  0.6150E-01  0.1864E-10  0.2555E-10  0.1864E-10  0.2555E-10  0.1886E-10  0.2581E-10  0.6912E-13  0.2128E-11  0.7184E-13  0.2095E-11  0.1091E-10  0.1934E-10  0.6912E-13  0.2128E-11  0.1078E-10  0.1939E-10
    -36.051  0.0000E+00  0.0000E+00  0.0000E+00  0.0000E+00  0.0000E+00  0.0000E+00  0.0000E+00  0.0000E+00  0.0000E+00  0.0000E+00  0.0000E+00  0.0000E+00  0.0000E+00  0.0000E+00  0.0000E+00  0.0000E+00  0.0000E+00  0.0000E+00
    -35.884  0.0000E+00  0.0000E+00  0.0000E+00  0.0000E+00  0.0000E+00  0.0000E+00  0.0000E+00  0.0000E+00  0.0000E+00  0.0000E+00  0.0000E+00  0.0000E+00  0.0000E+00  0.0000E+00  0.0000E+00  0.0000E+00  0.0000E+00  0.0000E+00
    -35.716  0.0000E+00  0.0000E+00  0.0000E+00  0.0000E+00  0.0000E+00  0.0000E+00  0.0000E+00  0.0000E+00  0.0000E+00  0.0000E+00  0.0000E+00  0.0000E+00  0.0000E+00  0.0000E+00  0.0000E+00  0.0000E+00  0.0000E+00  0.0000E+00
    -35.549  0.0000E+00  0.0000E+00  0.0000E+00  0.0000E+00  0.0000E+00  0.0000E+00  0.0000E+00  0.0000E+00  0.0000E+00  0.0000E+00  0.0000E+00  0.0000E+00  0.0000E+00  0.0000E+00  0.0000E+00  0.0000E+00  0.0000E+00  0.0000E+00
    -35.382  0.0000E+00  0.0000E+00  0.0000E+00  0.0000E+00  0.0000E+00  0.0000E+00  0.0000E+00  0.0000E+00  0.0000E+00  0.0000E+00  0.0000E+00  0.0000E+00  0.0000E+00  0.0000E+00  0.0000E+00  0.0000E+00  0.0000E+00  0.0000E+00
    -35.214  0.0000E+00  0.0000E+00  0.0000E+00  0.0000E+00  0.0000E+00  0.0000E+00  0.0000E+00  0.0000E+00  0.0000E+00  0.0000E+00  0.0000E+00  0.0000E+00  0.0000E+00  0.0000E+00  0.0000E+00  0.0000E+00  0.0000E+00  0.0000E+00
    -35.047  0.0000E+00  0.0000E+00  0.0000E+00  0.0000E+00  0.0000E+00  0.0000E+00  0.0000E+00  0.0000E+00  0.0000E+00  0.0000E+00  0.0000E+00  0.0000E+00  0.0000E+00  0.0000E+00  0.0000E+00  0.0000E+00  0.0000E+00  0.0000E+00
    -34.879  0.0000E+00  0.0000E+00  0.0000E+00  0.0000E+00  0.0000E+00  0.0000E+00  0.0000E+00  0.0000E+00  0.0000E+00  0.0000E+00  0.0000E+00  0.0000E+00  0.0000E+00  0.0000E+00  0.0000E+00  0.0000E+00  0.0000E+00  0.0000E+00
    -34.712  0.0000E+00  0.0000E+00  0.0000E+00  0.0000E+00  0.0000E+00  0.0000E+00  0.0000E+00  0.0000E+00  0.0000E+00  0.0000E+00  0.0000E+00  0.0000E+00  0.0000E+00  0.0000E+00  0.0000E+00  0.0000E+00  0.0000E+00  0.0000E+00
    -34.545  0.0000E+00  0.0000E+00  0.0000E+00  0.0000E+00  0.0000E+00  0.0000E+00  0.0000E+00  0.0000E+00  0.0000E+00  0.0000E+00  0.0000E+00  0.0000E+00  0.0000E+00  0.0000E+00  0.0000E+00  0.0000E+00  0.0000E+00  0.0000E+00
    -34.377  0.0000E+00  0.0000E+00  0.0000E+00  0.0000E+00  0.0000E+00  0.0000E+00  0.0000E+00  0.0000E+00  0.0000E+00  0.0000E+00  0.0000E+00  0.0000E+00  0.0000E+00  0.0000E+00  0.0000E+00  0.0000E+00  0.0000E+00  0.0000E+00
    -34.210  0.0000E+00  0.0000E+00  0.0000E+00  0.0000E+00  0.0000E+00  0.0000E+00  0.0000E+00  0.0000E+00  0.0000E+00  0.0000E+00  0.0000E+00  0.0000E+00  0.0000E+00  0.0000E+00  0.0000E+00  0.0000E+00  0.0000E+00  0.0000E+00
    -34.043  0.0000E+00  0.0000E+00  0.0000E+00  0.0000E+00  0.0000E+00  0.0000E+00  0.0000E+00  0.0000E+00  0.0000E+00  0.0000E+00  0.0000E+00  0.0000E+00  0.0000E+00  0.0000E+00  0.0000E+00  0.0000E+00  0.0000E+00  0.0000E+00
    -33.875  0.0000E+00  0.0000E+00  0.0000E+00  0.0000E+00  0.0000E+00  0.0000E+00  0.0000E+00  0.0000E+00  0.0000E+00  0.0000E+00  0.0000E+00  0.0000E+00  0.0000E+00  0.0000E+00  0.0000E+00  0.0000E+00  0.0000E+00  0.0000E+00
    -33.708  0.0000E+00  0.0000E+00  0.0000E+00  0.0000E+00  0.0000E+00  0.0000E+00  0.0000E+00  0.0000E+00  0.0000E+00  0.0000E+00  0.0000E+00  0.0000E+00  0.0000E+00  0.0000E+00  0.0000E+00  0.0000E+00  0.0000E+00  0.0000E+00
    -33.541  0.0000E+00  0.0000E+00  0.0000E+00  0.0000E+00  0.0000E+00  0.0000E+00  0.0000E+00  0.0000E+00  0.0000E+00  0.0000E+00  0.0000E+00  0.0000E+00  0.0000E+00  0.0000E+00  0.0000E+00  0.0000E+00  0.0000E+00  0.0000E+00
    -33.373  0.0000E+00  0.0000E+00  0.0000E+00  0.0000E+00  0.0000E+00  0.0000E+00  0.0000E+00  0.0000E+00  0.0000E+00  0.0000E+00  0.0000E+00  0.0000E+00  0.0000E+00  0.0000E+00  0.0000E+00  0.0000E+00  0.0000E+00  0.0000E+00
    -33.206  0.0000E+00  0.0000E+00  0.0000E+00  0.0000E+00  0.0000E+00  0.0000E+00  0.0000E+00  0.0000E+00  0.0000E+00  0.0000E+00  0.0000E+00  0.0000E+00  0.0000E+00  0.0000E+00  0.0000E+00  0.0000E+00  0.0000E+00  0.0000E+00
    -33.039  0.0000E+00  0.0000E+00  0.0000E+00  0.0000E+00  0.0000E+00  0.0000E+00  0.0000E+00  0.0000E+00  0.0000E+00  0.0000E+00  0.0000E+00  0.0000E+00  0.0000E+00  0.0000E+00  0.0000E+00  0.0000E+00  0.0000E+00  0.0000E+00
    -32.871  0.0000E+00  0.0000E+00  0.0000E+00  0.0000E+00  0.0000E+00  0.0000E+00  0.0000E+00  0.0000E+00  0.0000E+00  0.0000E+00  0.0000E+00  0.0000E+00  0.0000E+00  0.0000E+00  0.0000E+00  0.0000E+00  0.0000E+00  0.0000E+00
    -32.704  0.0000E+00  0.0000E+00  0.0000E+00  0.0000E+00  0.0000E+00  0.0000E+00  0.0000E+00  0.0000E+00  0.0000E+00  0.0000E+00  0.0000E+00  0.0000E+00  0.0000E+00  0.0000E+00  0.0000E+00  0.0000E+00  0.0000E+00  0.0000E+00
    -32.537  0.0000E+00  0.0000E+00  0.0000E+00  0.0000E+00  0.0000E+00  0.0000E+00  0.0000E+00  0.0000E+00  0.0000E+00  0.0000E+00  0.0000E+00  0.0000E+00  0.0000E+00  0.0000E+00  0.0000E+00  0.0000E+00  0.0000E+00  0.0000E+00
    -32.369  0.0000E+00  0.0000E+00  0.0000E+00  0.0000E+00  0.0000E+00  0.0000E+00  0.0000E+00  0.0000E+00  0.0000E+00  0.0000E+00  0.0000E+00  0.0000E+00  0.0000E+00  0.0000E+00  0.0000E+00  0.0000E+00  0.0000E+00  0.0000E+00
    -32.202  0.0000E+00  0.0000E+00  0.0000E+00  0.0000E+00  0.0000E+00  0.0000E+00  0.0000E+00  0.0000E+00  0.0000E+00  0.0000E+00  0.0000E+00  0.0000E+00  0.0000E+00  0.0000E+00  0.0000E+00  0.0000E+00  0.0000E+00  0.0000E+00
    -32.035  0.0000E+00  0.0000E+00  0.0000E+00  0.0000E+00  0.0000E+00  0.0000E+00  0.0000E+00  0.0000E+00  0.0000E+00  0.0000E+00  0.0000E+00  0.0000E+00  0.0000E+00  0.0000E+00  0.0000E+00  0.0000E+00  0.0000E+00  0.0000E+00
    -31.867  0.0000E+00  0.0000E+00  0.0000E+00  0.0000E+00  0.0000E+00  0.0000E+00  0.0000E+00  0.0000E+00  0.0000E+00  0.0000E+00  0.0000E+00  0.0000E+00  0.0000E+00  0.0000E+00  0.0000E+00  0.0000E+00  0.0000E+00  0.0000E+00
    -31.700  0.0000E+00  0.0000E+00  0.0000E+00  0.0000E+00  0.0000E+00  0.0000E+00  0.0000E+00  0.0000E+00  0.0000E+00  0.0000E+00  0.0000E+00  0.0000E+00  0.0000E+00  0.0000E+00  0.0000E+00  0.0000E+00  0.0000E+00  0.0000E+00
    -31.532  0.0000E+00  0.0000E+00  0.0000E+00  0.0000E+00  0.0000E+00  0.0000E+00  0.0000E+00  0.0000E+00  0.0000E+00  0.0000E+00  0.0000E+00  0.0000E+00  0.0000E+00  0.0000E+00  0.0000E+00  0.0000E+00  0.0000E+00  0.0000E+00
    -31.365  0.0000E+00  0.0000E+00  0.0000E+00  0.0000E+00  0.0000E+00  0.0000E+00  0.0000E+00  0.0000E+00  0.0000E+00  0.0000E+00  0.0000E+00  0.0000E+00  0.0000E+00  0.0000E+00  0.0000E+00  0.0000E+00  0.0000E+00  0.0000E+00
    -31.198  0.0000E+00  0.0000E+00  0.0000E+00  0.0000E+00  0.0000E+00  0.0000E+00  0.0000E+00  0.0000E+00  0.0000E+00  0.0000E+00  0.0000E+00  0.0000E+00  0.0000E+00  0.0000E+00  0.0000E+00  0.0000E+00  0.0000E+00  0.0000E+00
    -31.030  0.0000E+00  0.0000E+00  0.0000E+00  0.0000E+00  0.0000E+00  0.0000E+00  0.0000E+00  0.0000E+00  0.0000E+00  0.0000E+00  0.0000E+00  0.0000E+00  0.0000E+00  0.0000E+00  0.0000E+00  0.0000E+00  0.0000E+00  0.0000E+00
    -30.863  0.0000E+00  0.0000E+00  0.0000E+00  0.0000E+00  0.0000E+00  0.0000E+00  0.0000E+00  0.0000E+00  0.0000E+00  0.0000E+00  0.0000E+00  0.0000E+00  0.0000E+00  0.0000E+00  0.0000E+00  0.0000E+00  0.0000E+00  0.0000E+00
    -30.696  0.0000E+00  0.0000E+00  0.0000E+00  0.0000E+00  0.0000E+00  0.0000E+00  0.0000E+00  0.0000E+00  0.0000E+00  0.0000E+00  0.0000E+00  0.0000E+00  0.0000E+00  0.0000E+00  0.0000E+00  0.0000E+00  0.0000E+00  0.0000E+00
    -30.528  0.0000E+00  0.0000E+00  0.0000E+00  0.0000E+00  0.0000E+00  0.0000E+00  0.0000E+00  0.0000E+00  0.0000E+00  0.0000E+00  0.0000E+00  0.0000E+00  0.0000E+00  0.0000E+00  0.0000E+00  0.0000E+00  0.0000E+00  0.0000E+00