   4   4   1   0
  0.1708348E+02  0.4087416E-09  0.4088780E-09  0.4088780E-09  0.5000000E-15
  1.000000000000000E-004
  CAR 
 unknown system                          
     16.07648386    -34.66089997  301      7.00857542      1.00000000
    -34.661  0.0000E+00  0.0000E+00  0.0000E+00  0.0000E+00
    -34.492  0.0000E+00  0.0000E+00  0.0000E+00  0.0000E+00
    -34.323  0.0000E+00  0.0000E+00  0.0000E+00  0.0000E+00
    -34.154  0.0000E+00  0.0000E+00  0.0000E+00  0.0000E+00
    -33.984  0.0000E+00  0.0000E+00  0.0000E+00  0.0000E+00
    -33.815  0.0000E+00  0.0000E+00  0.0000E+00  0.0000E+00
    -33.646  0.0000E+00  0.0000E+00  0.0000E+00  0.0000E+00
    -33.477  0.0000E+00  0.0000E+00  0.0000E+00  0.0000E+00
    -33.308  0.0000E+00  0.0000E+00  0.0000E+00  0.0000E+00
    -33.139  0.0000E+00  0.0000E+00  0.0000E+00  0.0000E+00
    -32.970  0.0000E+00  0.0000E+00  0.0000E+00  0.0000E+00
    -32.801  0.6962E-03  0.6831E-03  0.1177E-03  0.1155E-03
    -32.631  0.1973E-01  0.1936E-01  0.3455E-02  0.3391E-02
    -32.462  0.5272E+00  0.5182E+00  0.9262E-01  0.9103E-01
    -32.293  0.3887E+01  0.3875E+01  0.7500E+00  0.7464E+00
    -32.124  0.1412E+01  0.1432E+01  0.9888E+00  0.9886E+00
    -31.955  0.6395E-01  0.6517E-01  0.9996E+00  0.9996E+00
    -31.786  0.0000E+00  0.0000E+00  0.1000E+01  0.1000E+01
    -31.617  0.0000E+00  0.0000E+00  0.1000E+01  0.1000E+01
    -31.448  0.0000E+00  0.0000E+00  0.1000E+01  0.1000E+01
    -31.278  0.0000E+00  0.0000E+00  0.1000E+01  0.1000E+01
    -31.109  0.0000E+00  0.0000E+00  0.1000E+01  0.1000E+01
    -30.940  0.0000E+00  0.0000E+00  0.1000E+01  0.1000E+01
    -30.771  0.0000E+00  0.0000E+00  0.1000E+01  0.1000E+01
    -30.602  0.0000E+00  0.0000E+00  0.1000E+01  0.1000E+01
    -30.433  0.0000E+00  0.0000E+00  0.1000E+01  0.1000E+01
    -30.264  0.0000E+00  0.0000E+00  0.1000E+01  0.1000E+01
    -30.095  0.0000E+00  0.0000E+00  0.1000E+01  0.1000E+01
    -29.925  0.0000E+00  0.0000E+00  0.1000E+01  0.1000E+01
    -29.756  0.0000E+00  0.0000E+00  0.1000E+01  0.1000E+01
    -29.587  0.0000E+00  0.0000E+00  0.1000E+01  0.1000E+01
    -29.418  0.0000E+00  0.0000E+00  0.1000E+01  0.1000E+01
    -29.249  0.0000E+00  0.0000E+00  0.1000E+01  0.1000E+01
    -29.080  0.0000E+00  0.0000E+00  0.1000E+01  0.1000E+01
    -28.911  0.0000E+00  0.0000E+00  0.1000E+01  0.1000E+01
    -28.742  0.0000E+00  0.0000E+00  0.1000E+01  0.1000E+01
    -28.572  0.0000E+00  0.0000E+00  0.1000E+01  0.1000E+01
    -28.403  0.0000E+00  0.0000E+00  0.1000E+01  0.1000E+01
    -28.234  0.0000E+00  0.0000E+00  0.1000E+01  0.1000E+01
    -28.065  0.0000E+00  0.0000E+00  0.1000E+01  0.1000E+01
    -27.896  0.0000E+00  0.0000E+00  0.1000E+01  0.1000E+01
    -27.727  0.0000E+00  0.0000E+00  0.1000E+01  0.1000E+01
    -27.558  0.0000E+00  0.0000E+00  0.1000E+01  0.1000E+01
    -27.389  0.0000E+00  0.0000E+00  0.1000E+01  0.1000E+01
    -27.219  0.0000E+00  0.0000E+00  0.1000E+01  0.1000E+01
    -27.050  0.0000E+00  0.0000E+00  0.1000E+01  0.1000E+01
    -26.881  0.0000E+00  0.0000E+00  0.1000E+01  0.1000E+01
    -26.712  0.0000E+00  0.0000E+00  0.1000E+01  0.1000E+01
    -26.543  0.0000E+00  0.0000E+00  0.1000E+01  0.1000E+01
    -26.374  0.0000E+00  0.0000E+00  0.1000E+01  0.1000E+01
    -26.205  0.0000E+00  0.0000E+00  0.1000E+01  0.1000E+01
    -26.036  0.0000E+00  0.0000E+00  0.1000E+01  0.1000E+01
    -25.866  0.0000E+00  0.0000E+00  0.1000E+01  0.1000E+01
    -25.697  0.0000E+00  0.0000E+00  0.1000E+01  0.1000E+01
    -25.528  0.0000E+00  0.0000E+00  0.1000E+01  0.1000E+01
    -25.359  0.0000E+00  0.0000E+00  0.1000E+01  0.1000E+01
    -25.190  0.0000E+00  0.0000E+00  0.1000E+01  0.1000E+01
    -25.021  0.0000E+00  0.0000E+00  0.1000E+01  0.1000E+01
    -24.852  0.0000E+00  0.0000E+00  0.1000E+01  0.1000E+01
    -24.683  0.0000E+00  0.0000E+00  0.1000E+01  0.1000E+01
    -24.513  0.0000E+00  0.0000E+00  0.1000E+01  0.1000E+01
    -24.344  0.0000E+00  0.0000E+00  0.1000E+01  0.1000E+01
    -24.175  0.0000E+00  0.0000E+00  0.1000E+01  0.1000E+01
    -24.006  0.0000E+00  0.0000E+00  0.1000E+01  0.1000E+01
    -23.837  0.0000E+00  0.0000E+00  0.1000E+01  0.1000E+01
    -23.668  0.0000E+00  0.0000E+00  0.1000E+01  0.1000E+01
    -23.499  0.0000E+00  0.0000E+00  0.1000E+01  0.1000E+01
    -23.330  0.0000E+00  0.0000E+00  0.1000E+01  0.1000E+01
    -23.160  0.0000E+00  0.0000E+00  0.1000E+01  0.1000E+01
    -22.991  0.0000E+00  0.0000E+00  0.1000E+01  0.1000E+01
    -22.822  0.0000E+00  0.0000E+00  0.1000E+01  0.1000E+01
    -22.653  0.0000E+00  0.0000E+00  0.1000E+01  0.1000E+01
    -22.484  0.0000E+00  0.0000E+00  0.1000E+01  0.1000E+01
    -22.315  0.0000E+00  0.0000E+00  0.1000E+01  0.1000E+01
    -22.146  0.0000E+00  0.0000E+00  0.1000E+01  0.1000E+01
    -21.977  0.0000E+00  0.0000E+00  0.1000E+01  0.1000E+01
    -21.807  0.0000E+00  0.0000E+00  0.1000E+01  0.1000E+01
    -21.638  0.0000E+00  0.0000E+00  0.1000E+01  0.1000E+01
    -21.469  0.0000E+00  0.0000E+00  0.1000E+01  0.1000E+01
    -21.300  0.0000E+00  0.0000E+00  0.1000E+01  0.1000E+01
    -21.131  0.0000E+00  0.0000E+00  0.1000E+01  0.1000E+01
    -20.962  0.0000E+00  0.0000E+00  0.1000E+01  0.1000E+01
    -20.793  0.0000E+00  0.0000E+00  0.1000E+01  0.1000E+01
    -20.624  0.0000E+00  0.0000E+00  0.1000E+01  0.1000E+01
    -20.454  0.0000E+00  0.0000E+00  0.1000E+01  0.1000E+01
    -20.285  0.0000E+00  0.0000E+00  0.1000E+01  0.1000E+01
    -20.116  0.0000E+00  0.0000E+00  0.1000E+01  0.1000E+01
    -19.947  0.0000E+00  0.0000E+00  0.1000E+01  0.1000E+01
    -19.778  0.0000E+00  0.0000E+00  0.1000E+01  0.1000E+01
    -19.609  0.0000E+00  0.0000E+00  0.1000E+01  0.1000E+01
    -19.440  0.0000E+00  0.0000E+00  0.1000E+01  0.1000E+01
    -19.271  0.0000E+00  0.0000E+00  0.1000E+01  0.1000E+01
    -19.101  0.0000E+00  0.0000E+00  0.1000E+01  0.1000E+01
    -18.932  0.0000E+00  0.0000E+00  0.1000E+01  0.1000E+01
    -18.763  0.0000E+00  0.0000E+00  0.1000E+01  0.1000E+01
    -18.594  0.0000E+00  0.0000E+00  0.1000E+01  0.1000E+01
    -18.425  0.0000E+00  0.0000E+00  0.1000E+01  0.1000E+01
    -18.256  0.0000E+00  0.0000E+00  0.1000E+01  0.1000E+01
    -18.087  0.0000E+00  0.0000E+00  0.1000E+01  0.1000E+01
    -17.918  0.0000E+00  0.0000E+00  0.1000E+01  0.1000E+01
    -17.748  0.0000E+00  0.0000E+00  0.1000E+01  0.1000E+01
    -17.579  0.0000E+00  0.0000E+00  0.1000E+01  0.1000E+01
    -17.410  0.0000E+00  0.0000E+00  0.1000E+01  0.1000E+01
    -17.241  0.0000E+00  0.0000E+00  0.1000E+01  0.1000E+01
    -17.072  0.0000E+00  0.0000E+00  0.1000E+01  0.1000E+01
    -16.903  0.0000E+00  0.0000E+00  0.1000E+01  0.1000E+01
    -16.734  0.0000E+00  0.0000E+00  0.1000E+01  0.1000E+01
    -16.565  0.0000E+00  0.0000E+00  0.1000E+01  0.1000E+01
    -16.395  0.0000E+00  0.0000E+00  0.1000E+01  0.1000E+01
    -16.226  0.0000E+00  0.0000E+00  0.1000E+01  0.1000E+01
    -16.057  0.0000E+00  0.0000E+00  0.1000E+01  0.1000E+01
    -15.888  0.0000E+00  0.0000E+00  0.1000E+01  0.1000E+01
    -15.719  0.0000E+00  0.0000E+00  0.1000E+01  0.1000E+01
    -15.550  0.0000E+00  0.0000E+00  0.1000E+01  0.1000E+01
    -15.381  0.0000E+00  0.0000E+00  0.1000E+01  0.1000E+01
    -15.212  0.0000E+00  0.0000E+00  0.1000E+01  0.1000E+01
    -15.042  0.0000E+00  0.0000E+00  0.1000E+01  0.1000E+01
    -14.873  0.0000E+00  0.0000E+00  0.1000E+01  0.1000E+01
    -14.704  0.0000E+00  0.0000E+00  0.1000E+01  0.1000E+01
    -14.535  0.0000E+00  0.0000E+00  0.1000E+01  0.1000E+01
    -14.366  0.0000E+00  0.0000E+00  0.1000E+01  0.1000E+01
    -14.197  0.6159E-04  0.5866E-04  0.1000E+01  0.1000E+01
    -14.028  0.3749E-02  0.3676E-02  0.1001E+01  0.1001E+01
    -13.859  0.1074E+00  0.1053E+00  0.1019E+01  0.1018E+01
    -13.689  0.2512E+01  0.2472E+01  0.1444E+01  0.1436E+01
    -13.520  0.1134E+02  0.1133E+02  0.3362E+01  0.3352E+01
    -13.351  0.3596E+01  0.3649E+01  0.3970E+01  0.3969E+01
    -13.182  0.1216E+00  0.1248E+00  0.3999E+01  0.3999E+01
    -13.013  0.0000E+00  0.0000E+00  0.4000E+01  0.4000E+01
    -12.844  0.0000E+00  0.0000E+00  0.4000E+01  0.4000E+01
    -12.675  0.0000E+00  0.0000E+00  0.4000E+01  0.4000E+01
    -12.506  0.0000E+00  0.0000E+00  0.4000E+01  0.4000E+01
    -12.336  0.0000E+00  0.0000E+00  0.4000E+01  0.4000E+01
    -12.167  0.0000E+00  0.0000E+00  0.4000E+01  0.4000E+01
    -11.998  0.0000E+00  0.0000E+00  0.4000E+01  0.4000E+01
    -11.829  0.0000E+00  0.0000E+00  0.4000E+01  0.4000E+01
    -11.660  0.0000E+00  0.0000E+00  0.4000E+01  0.4000E+01
    -11.491  0.0000E+00  0.0000E+00  0.4000E+01  0.4000E+01
    -11.322  0.0000E+00  0.0000E+00  0.4000E+01  0.4000E+01
    -11.153  0.0000E+00  0.0000E+00  0.4000E+01  0.4000E+01
    -10.983  0.0000E+00  0.0000E+00  0.4000E+01  0.4000E+01
    -10.814  0.0000E+00  0.0000E+00  0.4000E+01  0.4000E+01
    -10.645  0.0000E+00  0.0000E+00  0.4000E+01  0.4000E+01
    -10.476  0.0000E+00  0.0000E+00  0.4000E+01  0.4000E+01
    -10.307  0.0000E+00  0.0000E+00  0.4000E+01  0.4000E+01
    -10.138  0.0000E+00  0.0000E+00  0.4000E+01  0.4000E+01
     -9.969  0.0000E+00  0.0000E+00  0.4000E+01  0.4000E+01
     -9.800  0.0000E+00  0.0000E+00  0.4000E+01  0.4000E+01
     -9.630  0.0000E+00  0.0000E+00  0.4000E+01  0.4000E+01
     -9.461  0.0000E+00  0.0000E+00  0.4000E+01  0.4000E+01
     -9.292  0.0000E+00  0.0000E+00  0.4000E+01  0.4000E+01
     -9.123  0.0000E+00  0.0000E+00  0.4000E+01  0.4000E+01
     -8.954  0.0000E+00  0.0000E+00  0.4000E+01  0.4000E+01
     -8.785  0.0000E+00  0.0000E+00  0.4000E+01  0.4000E+01
     -8.616  0.0000E+00  0.0000E+00  0.4000E+01  0.4000E+01
     -8.447  0.0000E+00  0.0000E+00  0.4000E+01  0.4000E+01
     -8.277  0.0000E+00  0.0000E+00  0.4000E+01  0.4000E+01
     -8.108  0.0000E+00  0.0000E+00  0.4000E+01  0.4000E+01
     -7.939  0.0000E+00  0.0000E+00  0.4000E+01  0.4000E+01
     -7.770  0.0000E+00  0.0000E+00  0.4000E+01  0.4000E+01
     -7.601  0.0000E+00  0.0000E+00  0.4000E+01  0.4000E+01
     -7.432  0.0000E+00  0.0000E+00  0.4000E+01  0.4000E+01
     -7.263  0.0000E+00  0.0000E+00  0.4000E+01  0.4000E+01
     -7.094  0.0000E+00  0.0000E+00  0.4000E+01  0.4000E+01
     -6.924  0.0000E+00  0.0000E+00  0.4000E+01  0.4000E+01
     -6.755  0.0000E+00  0.0000E+00  0.4000E+01  0.4000E+01
     -6.586  0.0000E+00  0.0000E+00  0.4000E+01  0.4000E+01
     -6.417  0.0000E+00  0.0000E+00  0.4000E+01  0.4000E+01
     -6.248  0.0000E+00  0.0000E+00  0.4000E+01  0.4000E+01
     -6.079  0.0000E+00  0.0000E+00  0.4000E+01  0.4000E+01
     -5.910  0.0000E+00  0.0000E+00  0.4000E+01  0.4000E+01
     -5.741  0.0000E+00  0.0000E+00  0.4000E+01  0.4000E+01
     -5.571  0.0000E+00  0.0000E+00  0.4000E+01  0.4000E+01
     -5.402  0.0000E+00  0.0000E+00  0.4000E+01  0.4000E+01
     -5.233  0.0000E+00  0.0000E+00  0.4000E+01  0.4000E+01
     -5.064  0.0000E+00  0.0000E+00  0.4000E+01  0.4000E+01
     -4.895  0.0000E+00  0.0000E+00  0.4000E+01  0.4000E+01
     -4.726  0.0000E+00  0.0000E+00  0.4000E+01  0.4000E+01
     -4.557  0.0000E+00  0.0000E+00  0.4000E+01  0.4000E+01
     -4.388  0.0000E+00  0.0000E+00  0.4000E+01  0.4000E+01
     -4.218  0.0000E+00  0.0000E+00  0.4000E+01  0.4000E+01
     -4.049  0.0000E+00  0.0000E+00  0.4000E+01  0.4000E+01
     -3.880  0.0000E+00  0.0000E+00  0.4000E+01  0.4000E+01
     -3.711  0.0000E+00  0.0000E+00  0.4000E+01  0.4000E+01
     -3.542  0.0000E+00  0.0000E+00  0.4000E+01  0.4000E+01
     -3.373  0.0000E+00  0.0000E+00  0.4000E+01  0.4000E+01
     -3.204  0.0000E+00  0.0000E+00  0.4000E+01  0.4000E+01
     -3.035  0.3494E-06  0.3562E-06  0.4000E+01  0.4000E+01
     -2.865  0.1532E-04  0.1562E-04  0.4000E+01  0.4000E+01
     -2.696  0.4501E-03  0.4587E-03  0.4000E+01  0.4000E+01
     -2.527  0.9852E-02  0.9998E-02  0.4002E+01  0.4002E+01
     -2.358  0.5624E-01  0.5654E-01  0.4011E+01  0.4011E+01
     -2.189  0.1100E+00  0.1103E+00  0.4030E+01  0.4030E+01
     -2.020  0.1331E+00  0.1332E+00  0.4052E+01  0.4053E+01
     -1.851  0.1770E+00  0.1771E+00  0.4082E+01  0.4083E+01
     -1.682  0.1899E+00  0.1896E+00  0.4114E+01  0.4115E+01
     -1.512  0.2311E+00  0.2316E+00  0.4154E+01  0.4154E+01
     -1.343  0.2577E+00  0.2575E+00  0.4198E+01  0.4198E+01
     -1.174  0.2431E+00  0.2435E+00  0.4239E+01  0.4239E+01
     -1.005  0.3409E+00  0.3409E+00  0.4296E+01  0.4297E+01
     -0.836  0.3142E+00  0.3134E+00  0.4350E+01  0.4350E+01
     -0.667  0.4063E+00  0.4068E+00  0.4419E+01  0.4419E+01
     -0.498  0.4252E+00  0.4251E+00  0.4491E+01  0.4491E+01
     -0.329  0.4743E+00  0.4745E+00  0.4571E+01  0.4571E+01
     -0.159  0.3849E+00  0.3843E+00  0.4636E+01  0.4637E+01
      0.010  0.4186E+00  0.4190E+00  0.4707E+01  0.4708E+01
      0.179  0.3242E+00  0.3236E+00  0.4762E+01  0.4763E+01
      0.348  0.3775E+00  0.3780E+00  0.4826E+01  0.4827E+01
      0.517  0.3580E+00  0.3581E+00  0.4887E+01  0.4887E+01
      0.686  0.4279E+00  0.4280E+00  0.4960E+01  0.4960E+01
      0.855  0.2664E+00  0.2661E+00  0.5005E+01  0.5005E+01
      1.024  0.3709E+00  0.3712E+00  0.5068E+01  0.5068E+01
      1.194  0.3422E+00  0.3425E+00  0.5126E+01  0.5126E+01
      1.363  0.4748E+00  0.4750E+00  0.5207E+01  0.5207E+01
      1.532  0.3777E+00  0.3772E+00  0.5271E+01  0.5271E+01
      1.701  0.4484E+00  0.4492E+00  0.5347E+01  0.5347E+01
      1.870  0.5544E+00  0.5548E+00  0.5441E+01  0.5441E+01
      2.039  0.6671E+00  0.6674E+00  0.5554E+01  0.5554E+01
      2.208  0.7813E+00  0.7815E+00  0.5686E+01  0.5687E+01
      2.377  0.7021E+00  0.7016E+00  0.5805E+01  0.5806E+01
      2.547  0.7730E+00  0.7734E+00  0.5937E+01  0.5937E+01
      2.716  0.6978E+00  0.6975E+00  0.6055E+01  0.6055E+01
      2.885  0.7058E+00  0.7056E+00  0.6174E+01  0.6175E+01
      3.054  0.5898E+00  0.5894E+00  0.6274E+01  0.6275E+01
      3.223  0.5933E+00  0.5933E+00  0.6375E+01  0.6376E+01
      3.392  0.4661E+00  0.4654E+00  0.6454E+01  0.6455E+01
      3.561  0.3727E+00  0.3735E+00  0.6518E+01  0.6518E+01
      3.730  0.5886E+00  0.5889E+00  0.6617E+01  0.6618E+01
      3.900  0.6466E+00  0.6477E+00  0.6727E+01  0.6727E+01
      4.069  0.6574E+00  0.6574E+00  0.6838E+01  0.6839E+01
      4.238  0.5372E+00  0.5363E+00  0.6929E+01  0.6930E+01
      4.407  0.6247E+00  0.6265E+00  0.7035E+01  0.7036E+01
      4.576  0.8212E+00  0.8207E+00  0.7174E+01  0.7175E+01
      4.745  0.9053E+00  0.9068E+00  0.7328E+01  0.7329E+01
      4.914  0.7022E+00  0.7004E+00  0.7447E+01  0.7448E+01
      5.083  0.8716E+00  0.8739E+00  0.7595E+01  0.7596E+01
      5.253  0.1014E+01  0.1014E+01  0.7767E+01  0.7768E+01
      5.422  0.1099E+01  0.1099E+01  0.7953E+01  0.7954E+01
      5.591  0.1043E+01  0.1042E+01  0.8130E+01  0.8131E+01
      5.760  0.1067E+01  0.1068E+01  0.8311E+01  0.8312E+01
      5.929  0.1276E+01  0.1276E+01  0.8527E+01  0.8528E+01
      6.098  0.1226E+01  0.1226E+01  0.8735E+01  0.8736E+01
      6.267  0.1355E+01  0.1354E+01  0.8964E+01  0.8966E+01
      6.436  0.7430E+00  0.7394E+00  0.9090E+01  0.9091E+01
      6.606  0.7128E+00  0.7147E+00  0.9212E+01  0.9212E+01
      6.775  0.8947E+00  0.8947E+00  0.9363E+01  0.9364E+01
      6.944  0.5989E+00  0.5970E+00  0.9465E+01  0.9465E+01
      7.113  0.4744E+00  0.4733E+00  0.9545E+01  0.9546E+01
      7.282  0.4690E+00  0.4705E+00  0.9625E+01  0.9626E+01
      7.451  0.6126E+00  0.6129E+00  0.9729E+01  0.9730E+01
      7.620  0.7437E+00  0.7439E+00  0.9855E+01  0.9856E+01
      7.789  0.6519E+00  0.6513E+00  0.9965E+01  0.9966E+01
      7.959  0.5962E+00  0.5957E+00  0.1007E+02  0.1007E+02
      8.128  0.7003E+00  0.7012E+00  0.1019E+02  0.1019E+02
      8.297  0.7209E+00  0.7209E+00  0.1031E+02  0.1031E+02
      8.466  0.9245E+00  0.9248E+00  0.1046E+02  0.1047E+02
      8.635  0.7433E+00  0.7433E+00  0.1059E+02  0.1059E+02
      8.804  0.9934E+00  0.9956E+00  0.1076E+02  0.1076E+02
      8.973  0.1162E+01  0.1160E+01  0.1096E+02  0.1096E+02
      9.142  0.9934E+00  0.9936E+00  0.1112E+02  0.1113E+02
      9.311  0.8458E+00  0.8449E+00  0.1127E+02  0.1127E+02
      9.481  0.9289E+00  0.9301E+00  0.1143E+02  0.1143E+02
      9.650  0.8444E+00  0.8430E+00  0.1157E+02  0.1157E+02
      9.819  0.6666E+00  0.6658E+00  0.1168E+02  0.1168E+02
      9.988  0.7675E+00  0.7686E+00  0.1181E+02  0.1181E+02
     10.157  0.8552E+00  0.8568E+00  0.1196E+02  0.1196E+02
     10.326  0.1083E+01  0.1083E+01  0.1214E+02  0.1214E+02
     10.495  0.9347E+00  0.9354E+00  0.1230E+02  0.1230E+02
     10.664  0.1132E+01  0.1137E+01  0.1249E+02  0.1249E+02
     10.834  0.1566E+01  0.1568E+01  0.1276E+02  0.1276E+02
     11.003  0.1756E+01  0.1756E+01  0.1305E+02  0.1306E+02
     11.172  0.1446E+01  0.1440E+01  0.1330E+02  0.1330E+02
     11.341  0.1474E+01  0.1476E+01  0.1355E+02  0.1355E+02
     11.510  0.1570E+01  0.1566E+01  0.1382E+02  0.1382E+02
     11.679  0.1294E+01  0.1295E+01  0.1404E+02  0.1404E+02
     11.848  0.1525E+01  0.1523E+01  0.1429E+02  0.1429E+02
     12.017  0.1608E+01  0.1602E+01  0.1457E+02  0.1457E+02
     12.187  0.1663E+01  0.1643E+01  0.1485E+02  0.1485E+02
     12.356  0.1570E+01  0.1585E+01  0.1512E+02  0.1511E+02
     12.525  0.1192E+01  0.1217E+01  0.1532E+02  0.1532E+02
     12.694  0.1102E+01  0.1104E+01  0.1551E+02  0.1551E+02
     12.863  0.9704E+00  0.9540E+00  0.1567E+02  0.1567E+02
     13.032  0.5108E+00  0.4915E+00  0.1576E+02  0.1575E+02
     13.201  0.4318E+00  0.4414E+00  0.1583E+02  0.1583E+02
     13.370  0.4068E+00  0.4076E+00  0.1590E+02  0.1590E+02
     13.540  0.2750E+00  0.2819E+00  0.1595E+02  0.1595E+02
     13.709  0.2083E+00  0.2127E+00  0.1598E+02  0.1598E+02
     13.878  0.9852E-01  0.9233E-01  0.1600E+02  0.1600E+02
     14.047  0.7866E-02  0.7134E-02  0.1600E+02  0.1600E+02
     14.216  0.0000E+00  0.0000E+00  0.1600E+02  0.1600E+02
     14.385  0.0000E+00  0.0000E+00  0.1600E+02  0.1600E+02
     14.554  0.0000E+00  0.0000E+00  0.1600E+02  0.1600E+02
     14.723  0.0000E+00  0.0000E+00  0.1600E+02  0.1600E+02
     14.893  0.0000E+00  0.0000E+00  0.1600E+02  0.1600E+02
     15.062  0.0000E+00  0.0000E+00  0.1600E+02  0.1600E+02
     15.231  0.0000E+00  0.0000E+00  0.1600E+02  0.1600E+02
     15.400  0.0000E+00  0.0000E+00  0.1600E+02  0.1600E+02
     15.569  0.0000E+00  0.0000E+00  0.1600E+02  0.1600E+02
     15.738  0.0000E+00  0.0000E+00  0.1600E+02  0.1600E+02
     15.907  0.0000E+00  0.0000E+00  0.1600E+02  0.1600E+02
     16.076  0.0000E+00  0.0000E+00  0.1600E+02  0.1600E+02
     16.07648386    -34.66089997  301      7.00857542      1.00000000
    -34.661  0.0000E+00  0.0000E+00  0.0000E+00  0.0000E+00  0.0000E+00  0.0000E+00  0.0000E+00  0.0000E+00  0.0000E+00  0.0000E+00  0.0000E+00  0.0000E+00  0.0000E+00  0.0000E+00  0.0000E+00  0.0000E+00  0.0000E+00  0.0000E+00
    -34.492  0.0000E+00  0.0000E+00  0.0000E+00  0.0000E+00  0.0000E+00  0.0000E+00  0.0000E+00  0.0000E+00  0.0000E+00  0.0000E+00  0.0000E+00  0.0000E+00  0.0000E+00  0.0000E+00  0.0000E+00  0.0000E+00  0.0000E+00  0.0000E+00
    -34.323  0.0000E+00  0.0000E+00  0.0000E+00  0.0000E+00  0.0000E+00  0.0000E+00  0.0000E+00  0.0000E+00  0.0000E+00  0.0000E+00  0.0000E+00  0.0000E+00  0.0000E+00  0.0000E+00  0.0000E+00  0.0000E+00  0.0000E+00  0.0000E+00
    -34.154  0.0000E+00  0.0000E+00  0.0000E+00  0.0000E+00  0.0000E+00  0.0000E+00  0.0000E+00  0.0000E+00  0.0000E+00  0.0000E+00  0.0000E+00  0.0000E+00  0.0000E+00  0.0000E+00  0.0000E+00  0.0000E+00  0.0000E+00  0.0000E+00
    -33.984  0.0000E+00  0.0000E+00  0.0000E+00  0.0000E+00  0.0000E+00  0.0000E+00  0.0000E+00  0.0000E+00  0.0000E+00  0.0000E+00  0.0000E+00  0.0000E+00  0.0000E+00  0.0000E+00  0.0000E+00  0.0000E+00  0.0000E+00  0.0000E+00
    -33.815  0.0000E+00  0.0000E+00  0.0000E+00  0.0000E+00  0.0000E+00  0.0000E+00  0.0000E+00  0.0000E+00  0.0000E+00  0.0000E+00  0.0000E+00  0.0000E+00  0.0000E+00  0.0000E+00  0.0000E+00  0.0000E+00  0.0000E+00  0.0000E+00
    -33.646  0.0000E+00  0.0000E+00  0.0000E+00  0.0000E+00  0.0000E+00  0.0000E+00  0.0000E+00  0.0000E+00  0.0000E+00  0.0000E+00  0.0000E+00  0.0000E+00  0.0000E+00  0.0000E+00  0.0000E+00  0.0000E+00  0.0000E+00  0.0000E+00
    -33.477  0.0000E+00  0.0000E+00  0.0000E+00  0.0000E+00  0.0000E+00  0.0000E+00  0.0000E+00  0.0000E+00  0.0000E+00  0.0000E+00  0.0000E+00  0.0000E+00  0.0000E+00  0.0000E+00  0.0000E+00  0.0000E+00  0.0000E+00  0.0000E+00
    -33.308  0.0000E+00  0.0000E+00  0.0000E+00  0.0000E+00  0.0000E+00  0.0000E+00  0.0000E+00  0.0000E+00  0.0000E+00  0.0000E+00  0.0000E+00  0.0000E+00  0.0000E+00  0.0000E+00  0.0000E+00  0.0000E+00  0.0000E+00  0.0000E+00
    -33.139  0.0000E+00  0.0000E+00  0.0000E+00  0.0000E+00  0.0000E+00  0.0000E+00  0.0000E+00  0.0000E+00  0.0000E+00  0.0000E+00  0.0000E+00  0.0000E+00  0.0000E+00  0.0000E+00  0.0000E+00  0.0000E+00  0.0000E+00  0.0000E+00
    -32.970  0.0000E+00  0.0000E+00  0.0000E+00  0.0000E+00  0.0000E+00  0.0000E+00  0.0000E+00  0.0000E+00  0.0000E+00  0.0000E+00  0.0000E+00  0.0000E+00  0.0000E+00  0.0000E+00  0.0000E+00  0.0000E+00  0.0000E+00  0.0000E+00
    -32.801  0.6850E-03  0.6721E-03  0.1738E-10  0.1724E-10  0.1738E-10  0.1724E-10  0.1755E-10  0.1738E-10  0.1036E-13  0.3926E-14  0.1005E-13  0.3930E-14  0.1117E-10  0.1115E-10  0.1036E-13  0.3926E-14  0.1131E-10  0.1129E-10
    -32.631  0.1942E-01  0.1905E-01  0.4925E-09  0.4887E-09  0.4925E-09  0.4887E-09  0.4974E-09  0.4926E-09  0.2937E-12  0.1113E-12  0.2849E-12  0.1114E-12  0.3167E-09  0.3161E-09  0.2937E-12  0.1113E-12  0.3206E-09  0.3201E-09
    -32.462  0.5187E+00  0.5099E+00  0.1315E-07  0.1308E-07  0.1315E-07  0.1308E-07  0.1328E-07  0.1318E-07  0.7853E-11  0.2981E-11  0.7618E-11  0.2984E-11  0.8464E-08  0.8461E-08  0.7853E-11  0.2981E-11  0.8564E-08  0.8566E-08
    -32.293  0.3824E+01  0.3813E+01  0.9675E-07  0.9766E-07  0.9675E-07  0.9766E-07  0.9771E-07  0.9844E-07  0.5827E-10  0.2246E-10  0.5663E-10  0.2247E-10  0.6254E-07  0.6342E-07  0.5827E-10  0.2246E-10  0.6305E-07  0.6398E-07
    -32.124  0.1389E+01  0.1409E+01  0.3503E-07  0.3601E-07  0.3503E-07  0.3601E-07  0.3538E-07  0.3630E-07  0.2132E-10  0.8368E-11  0.2076E-10  0.8367E-11  0.2275E-07  0.2347E-07  0.2132E-10  0.8368E-11  0.2284E-07  0.2358E-07
    -31.955  0.6293E-01  0.6412E-01  0.1585E-08  0.1638E-08  0.1585E-08  0.1638E-08  0.1601E-08  0.1651E-08  0.9674E-12  0.3817E-12  0.9425E-12  0.3816E-12  0.1031E-08  0.1069E-08  0.9674E-12  0.3817E-12  0.1033E-08  0.1072E-08
    -31.786  0.0000E+00  0.0000E+00  0.0000E+00  0.0000E+00  0.0000E+00  0.0000E+00  0.0000E+00  0.0000E+00  0.0000E+00  0.0000E+00  0.0000E+00  0.0000E+00  0.0000E+00  0.0000E+00  0.0000E+00  0.0000E+00  0.0000E+00  0.0000E+00
    -31.617  0.0000E+00  0.0000E+00  0.0000E+00  0.0000E+00  0.0000E+00  0.0000E+00  0.0000E+00  0.0000E+00  0.0000E+00  0.0000E+00  0.0000E+00  0.0000E+00  0.0000E+00  0.0000E+00  0.0000E+00  0.0000E+00  0.0000E+00  0.0000E+00
    -31.448  0.0000E+00  0.0000E+00  0.0000E+00  0.0000E+00  0.0000E+00  0.0000E+00  0.0000E+00  0.0000E+00  0.0000E+00  0.0000E+00  0.0000E+00  0.0000E+00  0.0000E+00  0.0000E+00  0.0000E+00  0.0000E+00  0.0000E+00  0.0000E+00
    -31.278  0.0000E+00  0.0000E+00  0.0000E+00  0.0000E+00  0.0000E+00  0.0000E+00  0.0000E+00  0.0000E+00  0.0000E+00  0.0000E+00  0.0000E+00  0.0000E+00  0.0000E+00  0.0000E+00  0.0000E+00  0.0000E+00  0.0000E+00  0.0000E+00
    -31.109  0.0000E+00  0.0000E+00  0.0000E+00  0.0000E+00  0.0000E+00  0.0000E+00  0.0000E+00  0.0000E+00  0.0000E+00  0.0000E+00  0.0000E+00  0.0000E+00  0.0000E+00  0.0000E+00  0.0000E+00  0.0000E+00  0.0000E+00  0.0000E+00
    -30.940  0.0000E+00  0.0000E+00  0.0000E+00  0.0000E+00  0.0000E+00  0.0000E+00  0.0000E+00  0.0000E+00  0.0000E+00  0.0000E+00  0.0000E+00  0.0000E+00  0.0000E+00  0.0000E+00  0.0000E+00  0.0000E+00  0.0000E+00  0.0000E+00
    -30.771  0.0000E+00  0.0000E+00  0.0000E+00  0.0000E+00  0.0000E+00  0.0000E+00  0.0000E+00  0.0000E+00  0.0000E+00  0.0000E+00  0.0000E+00  0.0000E+00  0.0000E+00  0.0000E+00  0.0000E+00  0.0000E+00  0.0000E+00  0.0000E+00
    -30.602  0.0000E+00  0.0000E+00  0.0000E+00  0.0000E+00  0.0000E+00  0.0000E+00  0.0000E+00  0.0000E+00  0.0000E+00  0.0000E+00  0.0000E+00  0.0000E+00  0.0000E+00  0.0000E+00  0.0000E+00  0.0000E+00  0.0000E+00  0.0000E+00
    -30.433  0.0000E+00  0.0000E+00  0.0000E+00  0.0000E+00  0.0000E+00  0.0000E+00  0.0000E+00  0.0000E+00  0.0000E+00  0.0000E+00  0.0000E+00  0.0000E+00  0.0000E+00  0.0000E+00  0.0000E+00  0.0000E+00  0.0000E+00  0.0000E+00
    -30.264  0.0000E+00  0.0000E+00  0.0000E+00  0.0000E+00  0.0000E+00  0.0000E+00  0.0000E+00  0.0000E+00  0.0000E+00  0.0000E+00  0.0000E+00  0.0000E+00  0.0000E+00  0.0000E+00  0.0000E+00  0.0000E+00  0.0000E+00  0.0000E+00
    -30.095  0.0000E+00  0.0000E+00  0.0000E+00  0.0000E+00  0.0000E+00  0.0000E+00  0.0000E+00  0.0000E+00  0.0000E+00  0.0000E+00  0.0000E+00  0.0000E+00  0.0000E+00  0.0000E+00  0.0000E+00  0.0000E+00  0.0000E+00  0.0000E+00
    -29.925  0.0000E+00  0.0000E+00  0.0000E+00  0.0000E+00  0.0000E+00  0.0000E+00  0.0000E+00  0.0000E+00  0.0000E+00  0.0000E+00  0.0000E+00  0.0000E+00  0.0000E+00  0.0000E+00  0.0000E+00  0.0000E+00  0.0000E+00  0.0000E+00
    -29.756  0.0000E+00  0.0000E+00  0.0000E+00  0.0000E+00  0.0000E+00  0.0000E+00  0.0000E+00  0.0000E+00  0.0000E+00  0.0000E+00  0.0000E+00  0.0000E+00  0.0000E+00  0.0000E+00  0.0000E+00  0.0000E+00  0.0000E+00  0.0000E+00
    -29.587  0.0000E+00  0.0000E+00  0.0000E+00  0.0000E+00  0.0000E+00  0.0000E+00  0.0000E+00  0.0000E+00  0.0000E+00  0.0000E+00  0.0000E+00  0.0000E+00  0.0000E+00  0.0000E+00  0.0000E+00  0.0000E+00  0.0000E+00  0.0000E+00
    -29.418  0.0000E+00  0.0000E+00  0.0000E+00  0.0000E+00  0.0000E+00  0.0000E+00  0.0000E+00  0.0000E+00  0.0000E+00  0.0000E+00  0.0000E+00  0.0000E+00  0.0000E+00  0.0000E+00  0.0000E+00  0.0000E+00  0.0000E+00  0.0000E+00
    -29.249  0.0000E+00  0.0000E+00  0.0000E+00  0.0000E+00  0.0000E+00  0.0000E+00  0.0000E+00  0.0000E+00  0.0000E+00  0.0000E+00  0.0000E+00  0.0000E+00  0.0000E+00  0.0000E+00  0.0000E+00  0.0000E+00  0.0000E+00  0.0000E+00
    -29.080  0.0000E+00  0.0000E+00  0.0000E+00  0.0000E+00  0.0000E+00  0.0000E+00  0.0000E+00  0.0000E+00  0.0000E+00  0.0000E+00  0.0000E+00  0.0000E+00  0.0000E+00  0.0000E+00  0.0000E+00  0.0000E+00  0.0000E+00  0.0000E+00
    -28.911  0.0000E+00  0.0000E+00  0.0000E+00  0.0000E+00  0.0000E+00  0.0000E+00  0.0000E+00  0.0000E+00  0.0000E+00  0.0000E+00  0.0000E+00  0.0000E+00  0.0000E+00  0.0000E+00  0.0000E+00  0.0000E+00  0.0000E+00  0.0000E+00
    -28.742  0.0000E+00  0.0000E+00  0.0000E+00  0.0000E+00  0.0000E+00  0.0000E+00  0.0000E+00  0.0000E+00  0.0000E+00  0.0000E+00  0.0000E+00  0.0000E+00  0.0000E+00  0.0000E+00  0.0000E+00  0.0000E+00  0.0000E+00  0.0000E+00
    -28.572  0.0000E+00  0.0000E+00  0.0000E+00  0.0000E+00  0.0000E+00  0.0000E+00  0.0000E+00  0.0000E+00  0.0000E+00  0.0000E+00  0.0000E+00  0.0000E+00  0.0000E+00  0.0000E+00  0.0000E+00  0.0000E+00  0.0000E+00  0.0000E+00
    -28.403  0.0000E+00  0.0000E+00  0.0000E+00  0.0000E+00  0.0000E+00  0.0000E+00  0.0000E+00  0.0000E+00  0.0000E+00  0.0000E+00  0.0000E+00  0.0000E+00  0.0000E+00  0.0000E+00  0.0000E+00  0.0000E+00  0.0000E+00  0.0000E+00
    -28.234  0.0000E+00  0.0000E+00  0.0000E+00  0.0000E+00  0.0000E+00  0.0000E+00  0.0000E+00  0.0000E+00  0.0000E+00  0.0000E+00  0.0000E+00  0.0000E+00  0.0000E+00  0.0000E+00  0.0000E+00  0.0000E+00  0.0000E+00  0.0000E+00
    -28.065  0.0000E+00  0.0000E+00  0.0000E+00  0.0000E+00  0.0000E+00  0.0000E+00  0.0000E+00  0.0000E+00  0.0000E+00  0.0000E+00  0.0000E+00  0.0000E+00  0.0000E+00  0.0000E+00  0.0000E+00  0.0000E+00  0.0000E+00  0.0000E+00
    -27.896  0.0000E+00  0.0000E+00  0.0000E+00  0.0000E+00  0.0000E+00  0.0000E+00  0.0000E+00  0.0000E+00  0.0000E+00  0.0000E+00  0.0000E+00  0.0000E+00  0.0000E+00  0.0000E+00  0.0000E+00  0.0000E+00  0.0000E+00  0.0000E+00
    -27.727  0.0000E+00  0.0000E+00  0.0000E+00  0.0000E+00  0.0000E+00  0.0000E+00  0.0000E+00  0.0000E+00  0.0000E+00  0.0000E+00  0.0000E+00  0.0000E+00  0.0000E+00  0.0000E+00  0.0000E+00  0.0000E+00  0.0000E+00  0.0000E+00
    -27.558  0.0000E+00  0.0000E+00  0.0000E+00  0.0000E+00  0.0000E+00  0.0000E+00  0.0000E+00  0.0000E+00  0.0000E+00  0.0000E+00  0.0000E+00  0.0000E+00  0.0000E+00  0.0000E+00  0.0000E+00  0.0000E+00  0.0000E+00  0.0000E+00
    -27.389  0.0000E+00  0.0000E+00  0.0000E+00  0.0000E+00  0.0000E+00  0.0000E+00  0.0000E+00  0.0000E+00  0.0000E+00  0.0000E+00  0.0000E+00  0.0000E+00  0.0000E+00  0.0000E+00  0.0000E+00  0.0000E+00  0.0000E+00  0.0000E+00
    -27.219  0.0000E+00  0.0000E+00  0.0000E+00  0.0000E+00  0.0000E+00  0.0000E+00  0.0000E+00  0.0000E+00  0.0000E+00  0.0000E+00  0.0000E+00  0.0000E+00  0.0000E+00  0.0000E+00  0.0000E+00  0.0000E+00  0.0000E+00  0.0000E+00
    -27.050  0.0000E+00  0.0000E+00  0.0000E+00  0.0000E+00  0.0000E+00  0.0000E+00  0.0000E+00  0.0000E+00  0.0000E+00  0.0000E+00  0.0000E+00  0.0000E+00  0.0000E+00  0.0000E+00  0.0000E+00  0.0000E+00  0.0000E+00  0.0000E+00
    -26.881  0.0000E+00  0.0000E+00  0.0000E+00  0.0000E+00  0.0000E+00  0.0000E+00  0.0000E+00  0.0000E+00  0.0000E+00  0.0000E+00  0.0000E+00  0.0000E+00  0.0000E+00  0.0000E+00  0.0000E+00  0.0000E+00  0.0000E+00  0.0000E+00
    -26.712  0.0000E+00  0.0000E+00  0.0000E+00  0.0000E+00  0.0000E+00  0.0000E+00  0.0000E+00  0.0000E+00  0.0000E+00  0.0000E+00  0.0000E+00  0.0000E+00  0.0000E+00  0.0000E+00  0.0000E+00  0.0000E+00  0.0000E+00  0.0000E+00
    -26.543  0.0000E+00  0.0000E+00  0.0000E+00  0.0000E+00  0.0000E+00  0.0000E+00  0.0000E+00  0.0000E+00  0.0000E+00  0.0000E+00  0.0000E+00  0.0000E+00  0.0000E+00  0.0000E+00  0.0000E+00  0.0000E+00  0.0000E+00  0.0000E+00
    -26.374  0.0000E+00  0.0000E+00  0.0000E+00  0.0000E+00  0.0000E+00  0.0000E+00  0.0000E+00  0.0000E+00  0.0000E+00  0.0000E+00  0.0000E+00  0.0000E+00  0.0000E+00  0.0000E+00  0.0000E+00  0.0000E+00  0.0000E+00  0.0000E+00
    -26.205  0.0000E+00  0.0000E+00  0.0000E+00  0.0000E+00  0.0000E+00  0.0000E+00  0.0000E+00  0.0000E+00  0.0000E+00  0.0000E+00  0.0000E+00  0.0000E+00  0.0000E+00  0.0000E+00  0.0000E+00  0.0000E+00  0.0000E+00  0.0000E+00