   4   4   1   0
  0.1818531E+02  0.4173467E-09  0.4174860E-09  0.4174860E-09  0.5000000E-15
  1.000000000000000E-004
  CAR 
 unknown system                          
     15.23160526    -35.37889689  301      6.48120582      1.00000000
    -35.379  0.0000E+00  0.0000E+00  0.0000E+00  0.0000E+00
    -35.210  0.0000E+00  0.0000E+00  0.0000E+00  0.0000E+00
    -35.041  0.0000E+00  0.0000E+00  0.0000E+00  0.0000E+00
    -34.873  0.0000E+00  0.0000E+00  0.0000E+00  0.0000E+00
    -34.704  0.0000E+00  0.0000E+00  0.0000E+00  0.0000E+00
    -34.535  0.0000E+00  0.0000E+00  0.0000E+00  0.0000E+00
    -34.367  0.0000E+00  0.0000E+00  0.0000E+00  0.0000E+00
    -34.198  0.0000E+00  0.0000E+00  0.0000E+00  0.0000E+00
    -34.029  0.0000E+00  0.0000E+00  0.0000E+00  0.0000E+00
    -33.861  0.0000E+00  0.0000E+00  0.0000E+00  0.0000E+00
    -33.692  0.0000E+00  0.0000E+00  0.0000E+00  0.0000E+00
    -33.523  0.7404E-03  0.7239E-03  0.1249E-03  0.1221E-03
    -33.354  0.2080E-01  0.2034E-01  0.3634E-02  0.3553E-02
    -33.186  0.5489E+00  0.5378E+00  0.9623E-01  0.9428E-01
    -33.017  0.3914E+01  0.3900E+01  0.7564E+00  0.7523E+00
    -32.848  0.1379E+01  0.1402E+01  0.9891E+00  0.9888E+00
    -32.680  0.6244E-01  0.6385E-01  0.9996E+00  0.9996E+00
    -32.511  0.0000E+00  0.0000E+00  0.1000E+01  0.1000E+01
    -32.342  0.0000E+00  0.0000E+00  0.1000E+01  0.1000E+01
    -32.174  0.0000E+00  0.0000E+00  0.1000E+01  0.1000E+01
    -32.005  0.0000E+00  0.0000E+00  0.1000E+01  0.1000E+01
    -31.836  0.0000E+00  0.0000E+00  0.1000E+01  0.1000E+01
    -31.667  0.0000E+00  0.0000E+00  0.1000E+01  0.1000E+01
    -31.499  0.0000E+00  0.0000E+00  0.1000E+01  0.1000E+01
    -31.330  0.0000E+00  0.0000E+00  0.1000E+01  0.1000E+01
    -31.161  0.0000E+00  0.0000E+00  0.1000E+01  0.1000E+01
    -30.993  0.0000E+00  0.0000E+00  0.1000E+01  0.1000E+01
    -30.824  0.0000E+00  0.0000E+00  0.1000E+01  0.1000E+01
    -30.655  0.0000E+00  0.0000E+00  0.1000E+01  0.1000E+01
    -30.487  0.0000E+00  0.0000E+00  0.1000E+01  0.1000E+01
    -30.318  0.0000E+00  0.0000E+00  0.1000E+01  0.1000E+01
    -30.149  0.0000E+00  0.0000E+00  0.1000E+01  0.1000E+01
    -29.980  0.0000E+00  0.0000E+00  0.1000E+01  0.1000E+01
    -29.812  0.0000E+00  0.0000E+00  0.1000E+01  0.1000E+01
    -29.643  0.0000E+00  0.0000E+00  0.1000E+01  0.1000E+01
    -29.474  0.0000E+00  0.0000E+00  0.1000E+01  0.1000E+01
    -29.306  0.0000E+00  0.0000E+00  0.1000E+01  0.1000E+01
    -29.137  0.0000E+00  0.0000E+00  0.1000E+01  0.1000E+01
    -28.968  0.0000E+00  0.0000E+00  0.1000E+01  0.1000E+01
    -28.800  0.0000E+00  0.0000E+00  0.1000E+01  0.1000E+01
    -28.631  0.0000E+00  0.0000E+00  0.1000E+01  0.1000E+01
    -28.462  0.0000E+00  0.0000E+00  0.1000E+01  0.1000E+01
    -28.293  0.0000E+00  0.0000E+00  0.1000E+01  0.1000E+01
    -28.125  0.0000E+00  0.0000E+00  0.1000E+01  0.1000E+01
    -27.956  0.0000E+00  0.0000E+00  0.1000E+01  0.1000E+01
    -27.787  0.0000E+00  0.0000E+00  0.1000E+01  0.1000E+01
    -27.619  0.0000E+00  0.0000E+00  0.1000E+01  0.1000E+01
    -27.450  0.0000E+00  0.0000E+00  0.1000E+01  0.1000E+01
    -27.281  0.0000E+00  0.0000E+00  0.1000E+01  0.1000E+01
    -27.113  0.0000E+00  0.0000E+00  0.1000E+01  0.1000E+01
    -26.944  0.0000E+00  0.0000E+00  0.1000E+01  0.1000E+01
    -26.775  0.0000E+00  0.0000E+00  0.1000E+01  0.1000E+01
    -26.606  0.0000E+00  0.0000E+00  0.1000E+01  0.1000E+01
    -26.438  0.0000E+00  0.0000E+00  0.1000E+01  0.1000E+01
    -26.269  0.0000E+00  0.0000E+00  0.1000E+01  0.1000E+01
    -26.100  0.0000E+00  0.0000E+00  0.1000E+01  0.1000E+01
    -25.932  0.0000E+00  0.0000E+00  0.1000E+01  0.1000E+01
    -25.763  0.0000E+00  0.0000E+00  0.1000E+01  0.1000E+01
    -25.594  0.0000E+00  0.0000E+00  0.1000E+01  0.1000E+01
    -25.425  0.0000E+00  0.0000E+00  0.1000E+01  0.1000E+01
    -25.257  0.0000E+00  0.0000E+00  0.1000E+01  0.1000E+01
    -25.088  0.0000E+00  0.0000E+00  0.1000E+01  0.1000E+01
    -24.919  0.0000E+00  0.0000E+00  0.1000E+01  0.1000E+01
    -24.751  0.0000E+00  0.0000E+00  0.1000E+01  0.1000E+01
    -24.582  0.0000E+00  0.0000E+00  0.1000E+01  0.1000E+01
    -24.413  0.0000E+00  0.0000E+00  0.1000E+01  0.1000E+01
    -24.245  0.0000E+00  0.0000E+00  0.1000E+01  0.1000E+01
    -24.076  0.0000E+00  0.0000E+00  0.1000E+01  0.1000E+01
    -23.907  0.0000E+00  0.0000E+00  0.1000E+01  0.1000E+01
    -23.738  0.0000E+00  0.0000E+00  0.1000E+01  0.1000E+01
    -23.570  0.0000E+00  0.0000E+00  0.1000E+01  0.1000E+01
    -23.401  0.0000E+00  0.0000E+00  0.1000E+01  0.1000E+01
    -23.232  0.0000E+00  0.0000E+00  0.1000E+01  0.1000E+01
    -23.064  0.0000E+00  0.0000E+00  0.1000E+01  0.1000E+01
    -22.895  0.0000E+00  0.0000E+00  0.1000E+01  0.1000E+01
    -22.726  0.0000E+00  0.0000E+00  0.1000E+01  0.1000E+01
    -22.558  0.0000E+00  0.0000E+00  0.1000E+01  0.1000E+01
    -22.389  0.0000E+00  0.0000E+00  0.1000E+01  0.1000E+01
    -22.220  0.0000E+00  0.0000E+00  0.1000E+01  0.1000E+01
    -22.051  0.0000E+00  0.0000E+00  0.1000E+01  0.1000E+01
    -21.883  0.0000E+00  0.0000E+00  0.1000E+01  0.1000E+01
    -21.714  0.0000E+00  0.0000E+00  0.1000E+01  0.1000E+01
    -21.545  0.0000E+00  0.0000E+00  0.1000E+01  0.1000E+01
    -21.377  0.0000E+00  0.0000E+00  0.1000E+01  0.1000E+01
    -21.208  0.0000E+00  0.0000E+00  0.1000E+01  0.1000E+01
    -21.039  0.0000E+00  0.0000E+00  0.1000E+01  0.1000E+01
    -20.871  0.0000E+00  0.0000E+00  0.1000E+01  0.1000E+01
    -20.702  0.0000E+00  0.0000E+00  0.1000E+01  0.1000E+01
    -20.533  0.0000E+00  0.0000E+00  0.1000E+01  0.1000E+01
    -20.364  0.0000E+00  0.0000E+00  0.1000E+01  0.1000E+01
    -20.196  0.0000E+00  0.0000E+00  0.1000E+01  0.1000E+01
    -20.027  0.0000E+00  0.0000E+00  0.1000E+01  0.1000E+01
    -19.858  0.0000E+00  0.0000E+00  0.1000E+01  0.1000E+01
    -19.690  0.0000E+00  0.0000E+00  0.1000E+01  0.1000E+01
    -19.521  0.0000E+00  0.0000E+00  0.1000E+01  0.1000E+01
    -19.352  0.0000E+00  0.0000E+00  0.1000E+01  0.1000E+01
    -19.184  0.0000E+00  0.0000E+00  0.1000E+01  0.1000E+01
    -19.015  0.0000E+00  0.0000E+00  0.1000E+01  0.1000E+01
    -18.846  0.0000E+00  0.0000E+00  0.1000E+01  0.1000E+01
    -18.677  0.0000E+00  0.0000E+00  0.1000E+01  0.1000E+01
    -18.509  0.0000E+00  0.0000E+00  0.1000E+01  0.1000E+01
    -18.340  0.0000E+00  0.0000E+00  0.1000E+01  0.1000E+01
    -18.171  0.0000E+00  0.0000E+00  0.1000E+01  0.1000E+01
    -18.003  0.0000E+00  0.0000E+00  0.1000E+01  0.1000E+01
    -17.834  0.0000E+00  0.0000E+00  0.1000E+01  0.1000E+01
    -17.665  0.0000E+00  0.0000E+00  0.1000E+01  0.1000E+01
    -17.497  0.0000E+00  0.0000E+00  0.1000E+01  0.1000E+01
    -17.328  0.0000E+00  0.0000E+00  0.1000E+01  0.1000E+01
    -17.159  0.0000E+00  0.0000E+00  0.1000E+01  0.1000E+01
    -16.990  0.0000E+00  0.0000E+00  0.1000E+01  0.1000E+01
    -16.822  0.0000E+00  0.0000E+00  0.1000E+01  0.1000E+01
    -16.653  0.0000E+00  0.0000E+00  0.1000E+01  0.1000E+01
    -16.484  0.0000E+00  0.0000E+00  0.1000E+01  0.1000E+01
    -16.316  0.0000E+00  0.0000E+00  0.1000E+01  0.1000E+01
    -16.147  0.0000E+00  0.0000E+00  0.1000E+01  0.1000E+01
    -15.978  0.0000E+00  0.0000E+00  0.1000E+01  0.1000E+01
    -15.810  0.0000E+00  0.0000E+00  0.1000E+01  0.1000E+01
    -15.641  0.0000E+00  0.0000E+00  0.1000E+01  0.1000E+01
    -15.472  0.0000E+00  0.0000E+00  0.1000E+01  0.1000E+01
    -15.303  0.0000E+00  0.0000E+00  0.1000E+01  0.1000E+01
    -15.135  0.0000E+00  0.0000E+00  0.1000E+01  0.1000E+01
    -14.966  0.0000E+00  0.0000E+00  0.1000E+01  0.1000E+01
    -14.797  0.6175E-03  0.6028E-03  0.1000E+01  0.1000E+01
    -14.629  0.1739E-01  0.1698E-01  0.1003E+01  0.1003E+01
    -14.460  0.4892E+00  0.4780E+00  0.1086E+01  0.1084E+01
    -14.291  0.7176E+01  0.7090E+01  0.2296E+01  0.2280E+01
    -14.122  0.9214E+01  0.9292E+01  0.3851E+01  0.3847E+01
    -13.954  0.8528E+00  0.8725E+00  0.3995E+01  0.3994E+01
    -13.785  0.0000E+00  0.0000E+00  0.4000E+01  0.4000E+01
    -13.616  0.0000E+00  0.0000E+00  0.4000E+01  0.4000E+01
    -13.448  0.0000E+00  0.0000E+00  0.4000E+01  0.4000E+01
    -13.279  0.0000E+00  0.0000E+00  0.4000E+01  0.4000E+01
    -13.110  0.0000E+00  0.0000E+00  0.4000E+01  0.4000E+01
    -12.942  0.0000E+00  0.0000E+00  0.4000E+01  0.4000E+01
    -12.773  0.0000E+00  0.0000E+00  0.4000E+01  0.4000E+01
    -12.604  0.0000E+00  0.0000E+00  0.4000E+01  0.4000E+01
    -12.435  0.0000E+00  0.0000E+00  0.4000E+01  0.4000E+01
    -12.267  0.0000E+00  0.0000E+00  0.4000E+01  0.4000E+01
    -12.098  0.0000E+00  0.0000E+00  0.4000E+01  0.4000E+01
    -11.929  0.0000E+00  0.0000E+00  0.4000E+01  0.4000E+01
    -11.761  0.0000E+00  0.0000E+00  0.4000E+01  0.4000E+01
    -11.592  0.0000E+00  0.0000E+00  0.4000E+01  0.4000E+01
    -11.423  0.0000E+00  0.0000E+00  0.4000E+01  0.4000E+01
    -11.255  0.0000E+00  0.0000E+00  0.4000E+01  0.4000E+01
    -11.086  0.0000E+00  0.0000E+00  0.4000E+01  0.4000E+01
    -10.917  0.0000E+00  0.0000E+00  0.4000E+01  0.4000E+01
    -10.748  0.0000E+00  0.0000E+00  0.4000E+01  0.4000E+01
    -10.580  0.0000E+00  0.0000E+00  0.4000E+01  0.4000E+01
    -10.411  0.0000E+00  0.0000E+00  0.4000E+01  0.4000E+01
    -10.242  0.0000E+00  0.0000E+00  0.4000E+01  0.4000E+01
    -10.074  0.0000E+00  0.0000E+00  0.4000E+01  0.4000E+01
     -9.905  0.0000E+00  0.0000E+00  0.4000E+01  0.4000E+01
     -9.736  0.0000E+00  0.0000E+00  0.4000E+01  0.4000E+01
     -9.568  0.0000E+00  0.0000E+00  0.4000E+01  0.4000E+01
     -9.399  0.0000E+00  0.0000E+00  0.4000E+01  0.4000E+01
     -9.230  0.0000E+00  0.0000E+00  0.4000E+01  0.4000E+01
     -9.061  0.0000E+00  0.0000E+00  0.4000E+01  0.4000E+01
     -8.893  0.0000E+00  0.0000E+00  0.4000E+01  0.4000E+01
     -8.724  0.0000E+00  0.0000E+00  0.4000E+01  0.4000E+01
     -8.555  0.0000E+00  0.0000E+00  0.4000E+01  0.4000E+01
     -8.387  0.0000E+00  0.0000E+00  0.4000E+01  0.4000E+01
     -8.218  0.0000E+00  0.0000E+00  0.4000E+01  0.4000E+01
     -8.049  0.0000E+00  0.0000E+00  0.4000E+01  0.4000E+01
     -7.881  0.0000E+00  0.0000E+00  0.4000E+01  0.4000E+01
     -7.712  0.0000E+00  0.0000E+00  0.4000E+01  0.4000E+01
     -7.543  0.0000E+00  0.0000E+00  0.4000E+01  0.4000E+01
     -7.374  0.0000E+00  0.0000E+00  0.4000E+01  0.4000E+01
     -7.206  0.0000E+00  0.0000E+00  0.4000E+01  0.4000E+01
     -7.037  0.0000E+00  0.0000E+00  0.4000E+01  0.4000E+01
     -6.868  0.0000E+00  0.0000E+00  0.4000E+01  0.4000E+01
     -6.700  0.0000E+00  0.0000E+00  0.4000E+01  0.4000E+01
     -6.531  0.0000E+00  0.0000E+00  0.4000E+01  0.4000E+01
     -6.362  0.0000E+00  0.0000E+00  0.4000E+01  0.4000E+01
     -6.194  0.0000E+00  0.0000E+00  0.4000E+01  0.4000E+01
     -6.025  0.0000E+00  0.0000E+00  0.4000E+01  0.4000E+01
     -5.856  0.0000E+00  0.0000E+00  0.4000E+01  0.4000E+01
     -5.687  0.0000E+00  0.0000E+00  0.4000E+01  0.4000E+01
     -5.519  0.0000E+00  0.0000E+00  0.4000E+01  0.4000E+01
     -5.350  0.0000E+00  0.0000E+00  0.4000E+01  0.4000E+01
     -5.181  0.0000E+00  0.0000E+00  0.4000E+01  0.4000E+01
     -5.013  0.0000E+00  0.0000E+00  0.4000E+01  0.4000E+01
     -4.844  0.0000E+00  0.0000E+00  0.4000E+01  0.4000E+01
     -4.675  0.0000E+00  0.0000E+00  0.4000E+01  0.4000E+01
     -4.506  0.0000E+00  0.0000E+00  0.4000E+01  0.4000E+01
     -4.338  0.0000E+00  0.0000E+00  0.4000E+01  0.4000E+01
     -4.169  0.0000E+00  0.0000E+00  0.4000E+01  0.4000E+01
     -4.000  0.0000E+00  0.0000E+00  0.4000E+01  0.4000E+01
     -3.832  0.0000E+00  0.0000E+00  0.4000E+01  0.4000E+01
     -3.663  0.0000E+00  0.0000E+00  0.4000E+01  0.4000E+01
     -3.494  0.0000E+00  0.0000E+00  0.4000E+01  0.4000E+01
     -3.326  0.4968E-07  0.5056E-07  0.4000E+01  0.4000E+01
     -3.157  0.6761E-05  0.6881E-05  0.4000E+01  0.4000E+01
     -2.988  0.2004E-03  0.2040E-03  0.4000E+01  0.4000E+01
     -2.819  0.5071E-02  0.5149E-02  0.4001E+01  0.4001E+01
     -2.651  0.4507E-01  0.4537E-01  0.4008E+01  0.4009E+01
     -2.482  0.1052E+00  0.1055E+00  0.4026E+01  0.4026E+01
     -2.313  0.1367E+00  0.1369E+00  0.4049E+01  0.4049E+01
     -2.145  0.1843E+00  0.1844E+00  0.4080E+01  0.4081E+01
     -1.976  0.1995E+00  0.1995E+00  0.4114E+01  0.4114E+01
     -1.807  0.2435E+00  0.2439E+00  0.4155E+01  0.4155E+01
     -1.639  0.2664E+00  0.2663E+00  0.4200E+01  0.4201E+01
     -1.470  0.2694E+00  0.2699E+00  0.4246E+01  0.4246E+01
     -1.301  0.3563E+00  0.3562E+00  0.4306E+01  0.4306E+01
     -1.132  0.3282E+00  0.3283E+00  0.4362E+01  0.4362E+01
     -0.964  0.4458E+00  0.4459E+00  0.4437E+01  0.4437E+01
     -0.795  0.4381E+00  0.4381E+00  0.4511E+01  0.4511E+01
     -0.626  0.4839E+00  0.4838E+00  0.4593E+01  0.4593E+01
     -0.458  0.3647E+00  0.3642E+00  0.4655E+01  0.4655E+01
     -0.289  0.4269E+00  0.4268E+00  0.4727E+01  0.4727E+01
     -0.120  0.3026E+00  0.3026E+00  0.4778E+01  0.4779E+01
      0.048  0.4058E+00  0.4061E+00  0.4847E+01  0.4847E+01
      0.217  0.3839E+00  0.3844E+00  0.4912E+01  0.4912E+01
      0.386  0.4102E+00  0.4095E+00  0.4981E+01  0.4982E+01
      0.555  0.3207E+00  0.3213E+00  0.5036E+01  0.5036E+01
      0.723  0.3995E+00  0.3994E+00  0.5103E+01  0.5104E+01
      0.892  0.4444E+00  0.4451E+00  0.5178E+01  0.5179E+01
      1.061  0.4540E+00  0.4534E+00  0.5255E+01  0.5255E+01
      1.229  0.4380E+00  0.4385E+00  0.5329E+01  0.5329E+01
      1.398  0.5645E+00  0.5649E+00  0.5425E+01  0.5425E+01
      1.567  0.7128E+00  0.7129E+00  0.5545E+01  0.5545E+01
      1.735  0.7869E+00  0.7872E+00  0.5678E+01  0.5678E+01
      1.904  0.7329E+00  0.7324E+00  0.5802E+01  0.5802E+01
      2.073  0.7679E+00  0.7679E+00  0.5932E+01  0.5932E+01
      2.242  0.6952E+00  0.6951E+00  0.6049E+01  0.6050E+01
      2.410  0.7286E+00  0.7286E+00  0.6172E+01  0.6173E+01
      2.579  0.6162E+00  0.6156E+00  0.6277E+01  0.6277E+01
      2.748  0.5719E+00  0.5717E+00  0.6373E+01  0.6374E+01
      2.916  0.4781E+00  0.4777E+00  0.6454E+01  0.6455E+01
      3.085  0.3926E+00  0.3931E+00  0.6521E+01  0.6521E+01
      3.254  0.5664E+00  0.5667E+00  0.6617E+01  0.6617E+01
      3.422  0.6398E+00  0.6408E+00  0.6725E+01  0.6725E+01
      3.591  0.6382E+00  0.6387E+00  0.6833E+01  0.6833E+01
      3.760  0.5717E+00  0.5710E+00  0.6929E+01  0.6930E+01
      3.929  0.6416E+00  0.6431E+00  0.7038E+01  0.7038E+01
      4.097  0.8344E+00  0.8344E+00  0.7179E+01  0.7180E+01
      4.266  0.9220E+00  0.9230E+00  0.7335E+01  0.7336E+01
      4.435  0.7297E+00  0.7282E+00  0.7458E+01  0.7459E+01
      4.603  0.9020E+00  0.9041E+00  0.7611E+01  0.7612E+01
      4.772  0.9881E+00  0.9876E+00  0.7778E+01  0.7779E+01
      4.941  0.1131E+01  0.1131E+01  0.7969E+01  0.7970E+01
      5.110  0.1015E+01  0.1014E+01  0.8141E+01  0.8142E+01
      5.278  0.1113E+01  0.1115E+01  0.8329E+01  0.8331E+01
      5.447  0.1251E+01  0.1251E+01  0.8541E+01  0.8542E+01
      5.616  0.1223E+01  0.1222E+01  0.8747E+01  0.8749E+01
      5.784  0.1308E+01  0.1307E+01  0.8968E+01  0.8969E+01
      5.953  0.7500E+00  0.7473E+00  0.9096E+01  0.9096E+01
      6.122  0.8189E+00  0.8216E+00  0.9235E+01  0.9236E+01
      6.290  0.9014E+00  0.8996E+00  0.9387E+01  0.9388E+01
      6.459  0.5936E+00  0.5929E+00  0.9488E+01  0.9488E+01
      6.628  0.4443E+00  0.4434E+00  0.9563E+01  0.9563E+01
      6.797  0.5262E+00  0.5276E+00  0.9652E+01  0.9653E+01
      6.965  0.6991E+00  0.7003E+00  0.9770E+01  0.9771E+01
      7.134  0.8021E+00  0.8016E+00  0.9906E+01  0.9907E+01
      7.303  0.7146E+00  0.7138E+00  0.1003E+02  0.1003E+02
      7.471  0.6695E+00  0.6699E+00  0.1014E+02  0.1014E+02
      7.640  0.8397E+00  0.8393E+00  0.1028E+02  0.1028E+02
      7.809  0.9728E+00  0.9732E+00  0.1045E+02  0.1045E+02
      7.977  0.8901E+00  0.8894E+00  0.1060E+02  0.1060E+02
      8.146  0.8072E+00  0.8082E+00  0.1073E+02  0.1073E+02
      8.315  0.1195E+01  0.1196E+01  0.1094E+02  0.1094E+02
      8.484  0.9844E+00  0.9838E+00  0.1110E+02  0.1110E+02
      8.652  0.8399E+00  0.8398E+00  0.1124E+02  0.1125E+02
      8.821  0.8997E+00  0.9005E+00  0.1140E+02  0.1140E+02
      8.990  0.9450E+00  0.9435E+00  0.1156E+02  0.1156E+02
      9.158  0.7939E+00  0.7941E+00  0.1169E+02  0.1169E+02
      9.327  0.7883E+00  0.7874E+00  0.1182E+02  0.1183E+02
      9.496  0.9269E+00  0.9296E+00  0.1198E+02  0.1198E+02
      9.664  0.9941E+00  0.9944E+00  0.1215E+02  0.1215E+02
      9.833  0.9747E+00  0.9756E+00  0.1231E+02  0.1232E+02
     10.002  0.1263E+01  0.1266E+01  0.1253E+02  0.1253E+02
     10.171  0.1690E+01  0.1693E+01  0.1281E+02  0.1282E+02
     10.339  0.1749E+01  0.1746E+01  0.1311E+02  0.1311E+02
     10.508  0.1536E+01  0.1532E+01  0.1337E+02  0.1337E+02
     10.677  0.1676E+01  0.1677E+01  0.1365E+02  0.1365E+02
     10.845  0.1396E+01  0.1393E+01  0.1389E+02  0.1389E+02
     11.014  0.1531E+01  0.1529E+01  0.1415E+02  0.1415E+02
     11.183  0.1732E+01  0.1719E+01  0.1444E+02  0.1444E+02
     11.351  0.1596E+01  0.1600E+01  0.1471E+02  0.1471E+02
     11.520  0.1734E+01  0.1765E+01  0.1500E+02  0.1501E+02
     11.689  0.1553E+01  0.1543E+01  0.1527E+02  0.1527E+02
     11.858  0.1212E+01  0.1170E+01  0.1547E+02  0.1547E+02
     12.026  0.1054E+01  0.1064E+01  0.1565E+02  0.1565E+02
     12.195  0.6248E+00  0.6281E+00  0.1576E+02  0.1575E+02
     12.364  0.4117E+00  0.4181E+00  0.1583E+02  0.1582E+02
     12.532  0.4141E+00  0.4257E+00  0.1590E+02  0.1590E+02
     12.701  0.2850E+00  0.2790E+00  0.1594E+02  0.1594E+02
     12.870  0.2201E+00  0.2197E+00  0.1598E+02  0.1598E+02
     13.038  0.1012E+00  0.1007E+00  0.1600E+02  0.1600E+02
     13.207  0.8046E-02  0.7817E-02  0.1600E+02  0.1600E+02
     13.376  0.0000E+00  0.0000E+00  0.1600E+02  0.1600E+02
     13.545  0.0000E+00  0.0000E+00  0.1600E+02  0.1600E+02
     13.713  0.0000E+00  0.0000E+00  0.1600E+02  0.1600E+02
     13.882  0.0000E+00  0.0000E+00  0.1600E+02  0.1600E+02
     14.051  0.0000E+00  0.0000E+00  0.1600E+02  0.1600E+02
     14.219  0.0000E+00  0.0000E+00  0.1600E+02  0.1600E+02
     14.388  0.0000E+00  0.0000E+00  0.1600E+02  0.1600E+02
     14.557  0.0000E+00  0.0000E+00  0.1600E+02  0.1600E+02
     14.726  0.0000E+00  0.0000E+00  0.1600E+02  0.1600E+02
     14.894  0.0000E+00  0.0000E+00  0.1600E+02  0.1600E+02
     15.063  0.0000E+00  0.0000E+00  0.1600E+02  0.1600E+02
     15.232  0.0000E+00  0.0000E+00  0.1600E+02  0.1600E+02
     15.23160526    -35.37889689  301      6.48120582      1.00000000
    -35.379  0.0000E+00  0.0000E+00  0.0000E+00  0.0000E+00  0.0000E+00  0.0000E+00  0.0000E+00  0.0000E+00  0.0000E+00  0.0000E+00  0.0000E+00  0.0000E+00  0.0000E+00  0.0000E+00  0.0000E+00  0.0000E+00  0.0000E+00  0.0000E+00
    -35.210  0.0000E+00  0.0000E+00  0.0000E+00  0.0000E+00  0.0000E+00  0.0000E+00  0.0000E+00  0.0000E+00  0.0000E+00  0.0000E+00  0.0000E+00  0.0000E+00  0.0000E+00  0.0000E+00  0.0000E+00  0.0000E+00  0.0000E+00  0.0000E+00
    -35.041  0.0000E+00  0.0000E+00  0.0000E+00  0.0000E+00  0.0000E+00  0.0000E+00  0.0000E+00  0.0000E+00  0.0000E+00  0.0000E+00  0.0000E+00  0.0000E+00  0.0000E+00  0.0000E+00  0.0000E+00  0.0000E+00  0.0000E+00  0.0000E+00
    -34.873  0.0000E+00  0.0000E+00  0.0000E+00  0.0000E+00  0.0000E+00  0.0000E+00  0.0000E+00  0.0000E+00  0.0000E+00  0.0000E+00  0.0000E+00  0.0000E+00  0.0000E+00  0.0000E+00  0.0000E+00  0.0000E+00  0.0000E+00  0.0000E+00
    -34.704  0.0000E+00  0.0000E+00  0.0000E+00  0.0000E+00  0.0000E+00  0.0000E+00  0.0000E+00  0.0000E+00  0.0000E+00  0.0000E+00  0.0000E+00  0.0000E+00  0.0000E+00  0.0000E+00  0.0000E+00  0.0000E+00  0.0000E+00  0.0000E+00
    -34.535  0.0000E+00  0.0000E+00  0.0000E+00  0.0000E+00  0.0000E+00  0.0000E+00  0.0000E+00  0.0000E+00  0.0000E+00  0.0000E+00  0.0000E+00  0.0000E+00  0.0000E+00  0.0000E+00  0.0000E+00  0.0000E+00  0.0000E+00  0.0000E+00
    -34.367  0.0000E+00  0.0000E+00  0.0000E+00  0.0000E+00  0.0000E+00  0.0000E+00  0.0000E+00  0.0000E+00  0.0000E+00  0.0000E+00  0.0000E+00  0.0000E+00  0.0000E+00  0.0000E+00  0.0000E+00  0.0000E+00  0.0000E+00  0.0000E+00
    -34.198  0.0000E+00  0.0000E+00  0.0000E+00  0.0000E+00  0.0000E+00  0.0000E+00  0.0000E+00  0.0000E+00  0.0000E+00  0.0000E+00  0.0000E+00  0.0000E+00  0.0000E+00  0.0000E+00  0.0000E+00  0.0000E+00  0.0000E+00  0.0000E+00
    -34.029  0.0000E+00  0.0000E+00  0.0000E+00  0.0000E+00  0.0000E+00  0.0000E+00  0.0000E+00  0.0000E+00  0.0000E+00  0.0000E+00  0.0000E+00  0.0000E+00  0.0000E+00  0.0000E+00  0.0000E+00  0.0000E+00  0.0000E+00  0.0000E+00
    -33.861  0.0000E+00  0.0000E+00  0.0000E+00  0.0000E+00  0.0000E+00  0.0000E+00  0.0000E+00  0.0000E+00  0.0000E+00  0.0000E+00  0.0000E+00  0.0000E+00  0.0000E+00  0.0000E+00  0.0000E+00  0.0000E+00  0.0000E+00  0.0000E+00
    -33.692  0.0000E+00  0.0000E+00  0.0000E+00  0.0000E+00  0.0000E+00  0.0000E+00  0.0000E+00  0.0000E+00  0.0000E+00  0.0000E+00  0.0000E+00  0.0000E+00  0.0000E+00  0.0000E+00  0.0000E+00  0.0000E+00  0.0000E+00  0.0000E+00
    -33.523  0.7288E-03  0.7125E-03  0.9595E-11  0.9400E-11  0.9595E-11  0.9400E-11  0.9677E-11  0.9490E-11  0.2108E-14  0.1669E-14  0.2797E-14  0.1536E-14  0.6245E-11  0.6075E-11  0.2108E-14  0.1669E-14  0.6299E-11  0.6132E-11
    -33.354  0.2047E-01  0.2002E-01  0.2695E-09  0.2641E-09  0.2695E-09  0.2641E-09  0.2719E-09  0.2666E-09  0.5922E-13  0.4690E-13  0.7858E-13  0.4316E-13  0.1754E-09  0.1707E-09  0.5922E-13  0.4690E-13  0.1770E-09  0.1723E-09
    -33.186  0.5403E+00  0.5294E+00  0.7111E-08  0.6983E-08  0.7111E-08  0.6983E-08  0.7172E-08  0.7050E-08  0.1564E-11  0.1238E-11  0.2075E-11  0.1139E-11  0.4630E-08  0.4514E-08  0.1564E-11  0.1238E-11  0.4669E-08  0.4555E-08
    -33.017  0.3852E+01  0.3839E+01  0.5061E-07  0.5060E-07  0.5061E-07  0.5060E-07  0.5105E-07  0.5108E-07  0.1123E-10  0.8849E-11  0.1489E-10  0.8151E-11  0.3307E-07  0.3279E-07  0.1123E-10  0.8849E-11  0.3326E-07  0.3300E-07
    -32.848  0.1357E+01  0.1380E+01  0.1779E-07  0.1817E-07  0.1779E-07  0.1817E-07  0.1795E-07  0.1834E-07  0.3990E-11  0.3127E-11  0.5285E-11  0.2883E-11  0.1167E-07  0.1181E-07  0.3990E-11  0.3127E-11  0.1170E-07  0.1185E-07
    -32.680  0.6146E-01  0.6285E-01  0.8051E-09  0.8268E-09  0.8051E-09  0.8268E-09  0.8121E-09  0.8347E-09  0.1811E-12  0.1417E-12  0.2397E-12  0.1306E-12  0.5284E-09  0.5376E-09  0.1811E-12  0.1417E-12  0.5294E-09  0.5390E-09
    -32.511  0.0000E+00  0.0000E+00  0.0000E+00  0.0000E+00  0.0000E+00  0.0000E+00  0.0000E+00  0.0000E+00  0.0000E+00  0.0000E+00  0.0000E+00  0.0000E+00  0.0000E+00  0.0000E+00  0.0000E+00  0.0000E+00  0.0000E+00  0.0000E+00
    -32.342  0.0000E+00  0.0000E+00  0.0000E+00  0.0000E+00  0.0000E+00  0.0000E+00  0.0000E+00  0.0000E+00  0.0000E+00  0.0000E+00  0.0000E+00  0.0000E+00  0.0000E+00  0.0000E+00  0.0000E+00  0.0000E+00  0.0000E+00  0.0000E+00
    -32.174  0.0000E+00  0.0000E+00  0.0000E+00  0.0000E+00  0.0000E+00  0.0000E+00  0.0000E+00  0.0000E+00  0.0000E+00  0.0000E+00  0.0000E+00  0.0000E+00  0.0000E+00  0.0000E+00  0.0000E+00  0.0000E+00  0.0000E+00  0.0000E+00
    -32.005  0.0000E+00  0.0000E+00  0.0000E+00  0.0000E+00  0.0000E+00  0.0000E+00  0.0000E+00  0.0000E+00  0.0000E+00  0.0000E+00  0.0000E+00  0.0000E+00  0.0000E+00  0.0000E+00  0.0000E+00  0.0000E+00  0.0000E+00  0.0000E+00
    -31.836  0.0000E+00  0.0000E+00  0.0000E+00  0.0000E+00  0.0000E+00  0.0000E+00  0.0000E+00  0.0000E+00  0.0000E+00  0.0000E+00  0.0000E+00  0.0000E+00  0.0000E+00  0.0000E+00  0.0000E+00  0.0000E+00  0.0000E+00  0.0000E+00
    -31.667  0.0000E+00  0.0000E+00  0.0000E+00  0.0000E+00  0.0000E+00  0.0000E+00  0.0000E+00  0.0000E+00  0.0000E+00  0.0000E+00  0.0000E+00  0.0000E+00  0.0000E+00  0.0000E+00  0.0000E+00  0.0000E+00  0.0000E+00  0.0000E+00
    -31.499  0.0000E+00  0.0000E+00  0.0000E+00  0.0000E+00  0.0000E+00  0.0000E+00  0.0000E+00  0.0000E+00  0.0000E+00  0.0000E+00  0.0000E+00  0.0000E+00  0.0000E+00  0.0000E+00  0.0000E+00  0.0000E+00  0.0000E+00  0.0000E+00
    -31.330  0.0000E+00  0.0000E+00  0.0000E+00  0.0000E+00  0.0000E+00  0.0000E+00  0.0000E+00  0.0000E+00  0.0000E+00  0.0000E+00  0.0000E+00  0.0000E+00  0.0000E+00  0.0000E+00  0.0000E+00  0.0000E+00  0.0000E+00  0.0000E+00
    -31.161  0.0000E+00  0.0000E+00  0.0000E+00  0.0000E+00  0.0000E+00  0.0000E+00  0.0000E+00  0.0000E+00  0.0000E+00  0.0000E+00  0.0000E+00  0.0000E+00  0.0000E+00  0.0000E+00  0.0000E+00  0.0000E+00  0.0000E+00  0.0000E+00
    -30.993  0.0000E+00  0.0000E+00  0.0000E+00  0.0000E+00  0.0000E+00  0.0000E+00  0.0000E+00  0.0000E+00  0.0000E+00  0.0000E+00  0.0000E+00  0.0000E+00  0.0000E+00  0.0000E+00  0.0000E+00  0.0000E+00  0.0000E+00  0.0000E+00
    -30.824  0.0000E+00  0.0000E+00  0.0000E+00  0.0000E+00  0.0000E+00  0.0000E+00  0.0000E+00  0.0000E+00  0.0000E+00  0.0000E+00  0.0000E+00  0.0000E+00  0.0000E+00  0.0000E+00  0.0000E+00  0.0000E+00  0.0000E+00  0.0000E+00
    -30.655  0.0000E+00  0.0000E+00  0.0000E+00  0.0000E+00  0.0000E+00  0.0000E+00  0.0000E+00  0.0000E+00  0.0000E+00  0.0000E+00  0.0000E+00  0.0000E+00  0.0000E+00  0.0000E+00  0.0000E+00  0.0000E+00  0.0000E+00  0.0000E+00
    -30.487  0.0000E+00  0.0000E+00  0.0000E+00  0.0000E+00  0.0000E+00  0.0000E+00  0.0000E+00  0.0000E+00  0.0000E+00  0.0000E+00  0.0000E+00  0.0000E+00  0.0000E+00  0.0000E+00  0.0000E+00  0.0000E+00  0.0000E+00  0.0000E+00
    -30.318  0.0000E+00  0.0000E+00  0.0000E+00  0.0000E+00  0.0000E+00  0.0000E+00  0.0000E+00  0.0000E+00  0.0000E+00  0.0000E+00  0.0000E+00  0.0000E+00  0.0000E+00  0.0000E+00  0.0000E+00  0.0000E+00  0.0000E+00  0.0000E+00
    -30.149  0.0000E+00  0.0000E+00  0.0000E+00  0.0000E+00  0.0000E+00  0.0000E+00  0.0000E+00  0.0000E+00  0.0000E+00  0.0000E+00  0.0000E+00  0.0000E+00  0.0000E+00  0.0000E+00  0.0000E+00  0.0000E+00  0.0000E+00  0.0000E+00
    -29.980  0.0000E+00  0.0000E+00  0.0000E+00  0.0000E+00  0.0000E+00  0.0000E+00  0.0000E+00  0.0000E+00  0.0000E+00  0.0000E+00  0.0000E+00  0.0000E+00  0.0000E+00  0.0000E+00  0.0000E+00  0.0000E+00  0.0000E+00  0.0000E+00
    -29.812  0.0000E+00  0.0000E+00  0.0000E+00  0.0000E+00  0.0000E+00  0.0000E+00  0.0000E+00  0.0000E+00  0.0000E+00  0.0000E+00  0.0000E+00  0.0000E+00  0.0000E+00  0.0000E+00  0.0000E+00  0.0000E+00  0.0000E+00  0.0000E+00
    -29.643  0.0000E+00  0.0000E+00  0.0000E+00  0.0000E+00  0.0000E+00  0.0000E+00  0.0000E+00  0.0000E+00  0.0000E+00  0.0000E+00  0.0000E+00  0.0000E+00  0.0000E+00  0.0000E+00  0.0000E+00  0.0000E+00  0.0000E+00  0.0000E+00
    -29.474  0.0000E+00  0.0000E+00  0.0000E+00  0.0000E+00  0.0000E+00  0.0000E+00  0.0000E+00  0.0000E+00  0.0000E+00  0.0000E+00  0.0000E+00  0.0000E+00  0.0000E+00  0.0000E+00  0.0000E+00  0.0000E+00  0.0000E+00  0.0000E+00
    -29.306  0.0000E+00  0.0000E+00  0.0000E+00  0.0000E+00  0.0000E+00  0.0000E+00  0.0000E+00  0.0000E+00  0.0000E+00  0.0000E+00  0.0000E+00  0.0000E+00  0.0000E+00  0.0000E+00  0.0000E+00  0.0000E+00  0.0000E+00  0.0000E+00
    -29.137  0.0000E+00  0.0000E+00  0.0000E+00  0.0000E+00  0.0000E+00  0.0000E+00  0.0000E+00  0.0000E+00  0.0000E+00  0.0000E+00  0.0000E+00  0.0000E+00  0.0000E+00  0.0000E+00  0.0000E+00  0.0000E+00  0.0000E+00  0.0000E+00
    -28.968  0.0000E+00  0.0000E+00  0.0000E+00  0.0000E+00  0.0000E+00  0.0000E+00  0.0000E+00  0.0000E+00  0.0000E+00  0.0000E+00  0.0000E+00  0.0000E+00  0.0000E+00  0.0000E+00  0.0000E+00  0.0000E+00  0.0000E+00  0.0000E+00
    -28.800  0.0000E+00  0.0000E+00  0.0000E+00  0.0000E+00  0.0000E+00  0.0000E+00  0.0000E+00  0.0000E+00  0.0000E+00  0.0000E+00  0.0000E+00  0.0000E+00  0.0000E+00  0.0000E+00  0.0000E+00  0.0000E+00  0.0000E+00  0.0000E+00
    -28.631  0.0000E+00  0.0000E+00  0.0000E+00  0.0000E+00  0.0000E+00  0.0000E+00  0.0000E+00  0.0000E+00  0.0000E+00  0.0000E+00  0.0000E+00  0.0000E+00  0.0000E+00  0.0000E+00  0.0000E+00  0.0000E+00  0.0000E+00  0.0000E+00
    -28.462  0.0000E+00  0.0000E+00  0.0000E+00  0.0000E+00  0.0000E+00  0.0000E+00  0.0000E+00  0.0000E+00  0.0000E+00  0.0000E+00  0.0000E+00  0.0000E+00  0.0000E+00  0.0000E+00  0.0000E+00  0.0000E+00  0.0000E+00  0.0000E+00
    -28.293  0.0000E+00  0.0000E+00  0.0000E+00  0.0000E+00  0.0000E+00  0.0000E+00  0.0000E+00  0.0000E+00  0.0000E+00  0.0000E+00  0.0000E+00  0.0000E+00  0.0000E+00  0.0000E+00  0.0000E+00  0.0000E+00  0.0000E+00  0.0000E+00
    -28.125  0.0000E+00  0.0000E+00  0.0000E+00  0.0000E+00  0.0000E+00  0.0000E+00  0.0000E+00  0.0000E+00  0.0000E+00  0.0000E+00  0.0000E+00  0.0000E+00  0.0000E+00  0.0000E+00  0.0000E+00  0.0000E+00  0.0000E+00  0.0000E+00
    -27.956  0.0000E+00  0.0000E+00  0.0000E+00  0.0000E+00  0.0000E+00  0.0000E+00  0.0000E+00  0.0000E+00  0.0000E+00  0.0000E+00  0.0000E+00  0.0000E+00  0.0000E+00  0.0000E+00  0.0000E+00  0.0000E+00  0.0000E+00  0.0000E+00
    -27.787  0.0000E+00  0.0000E+00  0.0000E+00  0.0000E+00  0.0000E+00  0.0000E+00  0.0000E+00  0.0000E+00  0.0000E+00  0.0000E+00  0.0000E+00  0.0000E+00  0.0000E+00  0.0000E+00  0.0000E+00  0.0000E+00  0.0000E+00  0.0000E+00
    -27.619  0.0000E+00  0.0000E+00  0.0000E+00  0.0000E+00  0.0000E+00  0.0000E+00  0.0000E+00  0.0000E+00  0.0000E+00  0.0000E+00  0.0000E+00  0.0000E+00  0.0000E+00  0.0000E+00  0.0000E+00  0.0000E+00  0.0000E+00  0.0000E+00
    -27.450  0.0000E+00  0.0000E+00  0.0000E+00  0.0000E+00  0.0000E+00  0.0000E+00  0.0000E+00  0.0000E+00  0.0000E+00  0.0000E+00  0.0000E+00  0.0000E+00  0.0000E+00  0.0000E+00  0.0000E+00  0.0000E+00  0.0000E+00  0.0000E+00
    -27.281  0.0000E+00  0.0000E+00  0.0000E+00  0.0000E+00  0.0000E+00  0.0000E+00  0.0000E+00  0.0000E+00  0.0000E+00  0.0000E+00  0.0000E+00  0.0000E+00  0.0000E+00  0.0000E+00  0.0000E+00  0.0000E+00  0.0000E+00  0.0000E+00
    -27.113  0.0000E+00  0.0000E+00  0.0000E+00  0.0000E+00  0.0000E+00  0.0000E+00  0.0000E+00  0.0000E+00  0.0000E+00  0.0000E+00  0.0000E+00  0.0000E+00  0.0000E+00  0.0000E+00  0.0000E+00  0.0000E+00  0.0000E+00  0.0000E+00
    -26.944  0.0000E+00  0.0000E+00  0.0000E+00  0.0000E+00  0.0000E+00  0.0000E+00  0.0000E+00  0.0000E+00  0.0000E+00  0.0000E+00  0.0000E+00  0.0000E+00  0.0000E+00  0.0000E+00  0.0000E+00  0.0000E+00  0.0000E+00  0.0000E+00