   4   4   1   0
  0.2580388E+02  0.4689772E-09  0.4691337E-09  0.4691337E-09  0.5000000E-15
  1.000000000000000E-004
  CAR 
 unknown system                          
     11.00008345    -39.18224154  301      3.90417195      1.00000000
    -39.182  0.0000E+00  0.0000E+00  0.0000E+00  0.0000E+00
    -39.015  0.0000E+00  0.0000E+00  0.0000E+00  0.0000E+00
    -38.848  0.0000E+00  0.0000E+00  0.0000E+00  0.0000E+00
    -38.680  0.0000E+00  0.0000E+00  0.0000E+00  0.0000E+00
    -38.513  0.0000E+00  0.0000E+00  0.0000E+00  0.0000E+00
    -38.346  0.0000E+00  0.0000E+00  0.0000E+00  0.0000E+00
    -38.179  0.0000E+00  0.0000E+00  0.0000E+00  0.0000E+00
    -38.011  0.0000E+00  0.0000E+00  0.0000E+00  0.0000E+00
    -37.844  0.0000E+00  0.0000E+00  0.0000E+00  0.0000E+00
    -37.677  0.0000E+00  0.0000E+00  0.0000E+00  0.0000E+00
    -37.509  0.0000E+00  0.0000E+00  0.0000E+00  0.0000E+00
    -37.342  0.8725E-03  0.8414E-03  0.1460E-03  0.1407E-03
    -37.175  0.2379E-01  0.2294E-01  0.4125E-02  0.3978E-02
    -37.008  0.6040E+00  0.5847E+00  0.1052E+00  0.1018E+00
    -36.840  0.3970E+01  0.3952E+01  0.7693E+00  0.7628E+00
    -36.673  0.1317E+01  0.1353E+01  0.9895E+00  0.9892E+00
    -36.506  0.6030E-01  0.6250E-01  0.9996E+00  0.9996E+00
    -36.339  0.0000E+00  0.0000E+00  0.1000E+01  0.1000E+01
    -36.171  0.0000E+00  0.0000E+00  0.1000E+01  0.1000E+01
    -36.004  0.0000E+00  0.0000E+00  0.1000E+01  0.1000E+01
    -35.837  0.0000E+00  0.0000E+00  0.1000E+01  0.1000E+01
    -35.669  0.0000E+00  0.0000E+00  0.1000E+01  0.1000E+01
    -35.502  0.0000E+00  0.0000E+00  0.1000E+01  0.1000E+01
    -35.335  0.0000E+00  0.0000E+00  0.1000E+01  0.1000E+01
    -35.168  0.0000E+00  0.0000E+00  0.1000E+01  0.1000E+01
    -35.000  0.0000E+00  0.0000E+00  0.1000E+01  0.1000E+01
    -34.833  0.0000E+00  0.0000E+00  0.1000E+01  0.1000E+01
    -34.666  0.0000E+00  0.0000E+00  0.1000E+01  0.1000E+01
    -34.499  0.0000E+00  0.0000E+00  0.1000E+01  0.1000E+01
    -34.331  0.0000E+00  0.0000E+00  0.1000E+01  0.1000E+01
    -34.164  0.0000E+00  0.0000E+00  0.1000E+01  0.1000E+01
    -33.997  0.0000E+00  0.0000E+00  0.1000E+01  0.1000E+01
    -33.829  0.0000E+00  0.0000E+00  0.1000E+01  0.1000E+01
    -33.662  0.0000E+00  0.0000E+00  0.1000E+01  0.1000E+01
    -33.495  0.0000E+00  0.0000E+00  0.1000E+01  0.1000E+01
    -33.328  0.0000E+00  0.0000E+00  0.1000E+01  0.1000E+01
    -33.160  0.0000E+00  0.0000E+00  0.1000E+01  0.1000E+01
    -32.993  0.0000E+00  0.0000E+00  0.1000E+01  0.1000E+01
    -32.826  0.0000E+00  0.0000E+00  0.1000E+01  0.1000E+01
    -32.659  0.0000E+00  0.0000E+00  0.1000E+01  0.1000E+01
    -32.491  0.0000E+00  0.0000E+00  0.1000E+01  0.1000E+01
    -32.324  0.0000E+00  0.0000E+00  0.1000E+01  0.1000E+01
    -32.157  0.0000E+00  0.0000E+00  0.1000E+01  0.1000E+01
    -31.989  0.0000E+00  0.0000E+00  0.1000E+01  0.1000E+01
    -31.822  0.0000E+00  0.0000E+00  0.1000E+01  0.1000E+01
    -31.655  0.0000E+00  0.0000E+00  0.1000E+01  0.1000E+01
    -31.488  0.0000E+00  0.0000E+00  0.1000E+01  0.1000E+01
    -31.320  0.0000E+00  0.0000E+00  0.1000E+01  0.1000E+01
    -31.153  0.0000E+00  0.0000E+00  0.1000E+01  0.1000E+01
    -30.986  0.0000E+00  0.0000E+00  0.1000E+01  0.1000E+01
    -30.819  0.0000E+00  0.0000E+00  0.1000E+01  0.1000E+01
    -30.651  0.0000E+00  0.0000E+00  0.1000E+01  0.1000E+01
    -30.484  0.0000E+00  0.0000E+00  0.1000E+01  0.1000E+01
    -30.317  0.0000E+00  0.0000E+00  0.1000E+01  0.1000E+01
    -30.149  0.0000E+00  0.0000E+00  0.1000E+01  0.1000E+01
    -29.982  0.0000E+00  0.0000E+00  0.1000E+01  0.1000E+01
    -29.815  0.0000E+00  0.0000E+00  0.1000E+01  0.1000E+01
    -29.648  0.0000E+00  0.0000E+00  0.1000E+01  0.1000E+01
    -29.480  0.0000E+00  0.0000E+00  0.1000E+01  0.1000E+01
    -29.313  0.0000E+00  0.0000E+00  0.1000E+01  0.1000E+01
    -29.146  0.0000E+00  0.0000E+00  0.1000E+01  0.1000E+01
    -28.979  0.0000E+00  0.0000E+00  0.1000E+01  0.1000E+01
    -28.811  0.0000E+00  0.0000E+00  0.1000E+01  0.1000E+01
    -28.644  0.0000E+00  0.0000E+00  0.1000E+01  0.1000E+01
    -28.477  0.0000E+00  0.0000E+00  0.1000E+01  0.1000E+01
    -28.309  0.0000E+00  0.0000E+00  0.1000E+01  0.1000E+01
    -28.142  0.0000E+00  0.0000E+00  0.1000E+01  0.1000E+01
    -27.975  0.0000E+00  0.0000E+00  0.1000E+01  0.1000E+01
    -27.808  0.0000E+00  0.0000E+00  0.1000E+01  0.1000E+01
    -27.640  0.0000E+00  0.0000E+00  0.1000E+01  0.1000E+01
    -27.473  0.0000E+00  0.0000E+00  0.1000E+01  0.1000E+01
    -27.306  0.0000E+00  0.0000E+00  0.1000E+01  0.1000E+01
    -27.138  0.0000E+00  0.0000E+00  0.1000E+01  0.1000E+01
    -26.971  0.0000E+00  0.0000E+00  0.1000E+01  0.1000E+01
    -26.804  0.0000E+00  0.0000E+00  0.1000E+01  0.1000E+01
    -26.637  0.0000E+00  0.0000E+00  0.1000E+01  0.1000E+01
    -26.469  0.0000E+00  0.0000E+00  0.1000E+01  0.1000E+01
    -26.302  0.0000E+00  0.0000E+00  0.1000E+01  0.1000E+01
    -26.135  0.0000E+00  0.0000E+00  0.1000E+01  0.1000E+01
    -25.968  0.0000E+00  0.0000E+00  0.1000E+01  0.1000E+01
    -25.800  0.0000E+00  0.0000E+00  0.1000E+01  0.1000E+01
    -25.633  0.0000E+00  0.0000E+00  0.1000E+01  0.1000E+01
    -25.466  0.0000E+00  0.0000E+00  0.1000E+01  0.1000E+01
    -25.298  0.0000E+00  0.0000E+00  0.1000E+01  0.1000E+01
    -25.131  0.0000E+00  0.0000E+00  0.1000E+01  0.1000E+01
    -24.964  0.0000E+00  0.0000E+00  0.1000E+01  0.1000E+01
    -24.797  0.0000E+00  0.0000E+00  0.1000E+01  0.1000E+01
    -24.629  0.0000E+00  0.0000E+00  0.1000E+01  0.1000E+01
    -24.462  0.0000E+00  0.0000E+00  0.1000E+01  0.1000E+01
    -24.295  0.0000E+00  0.0000E+00  0.1000E+01  0.1000E+01
    -24.128  0.0000E+00  0.0000E+00  0.1000E+01  0.1000E+01
    -23.960  0.0000E+00  0.0000E+00  0.1000E+01  0.1000E+01
    -23.793  0.0000E+00  0.0000E+00  0.1000E+01  0.1000E+01
    -23.626  0.0000E+00  0.0000E+00  0.1000E+01  0.1000E+01
    -23.458  0.0000E+00  0.0000E+00  0.1000E+01  0.1000E+01
    -23.291  0.0000E+00  0.0000E+00  0.1000E+01  0.1000E+01
    -23.124  0.0000E+00  0.0000E+00  0.1000E+01  0.1000E+01
    -22.957  0.0000E+00  0.0000E+00  0.1000E+01  0.1000E+01
    -22.789  0.0000E+00  0.0000E+00  0.1000E+01  0.1000E+01
    -22.622  0.0000E+00  0.0000E+00  0.1000E+01  0.1000E+01
    -22.455  0.0000E+00  0.0000E+00  0.1000E+01  0.1000E+01
    -22.288  0.0000E+00  0.0000E+00  0.1000E+01  0.1000E+01
    -22.120  0.0000E+00  0.0000E+00  0.1000E+01  0.1000E+01
    -21.953  0.0000E+00  0.0000E+00  0.1000E+01  0.1000E+01
    -21.786  0.0000E+00  0.0000E+00  0.1000E+01  0.1000E+01
    -21.618  0.0000E+00  0.0000E+00  0.1000E+01  0.1000E+01
    -21.451  0.0000E+00  0.0000E+00  0.1000E+01  0.1000E+01
    -21.284  0.0000E+00  0.0000E+00  0.1000E+01  0.1000E+01
    -21.117  0.0000E+00  0.0000E+00  0.1000E+01  0.1000E+01
    -20.949  0.0000E+00  0.0000E+00  0.1000E+01  0.1000E+01
    -20.782  0.0000E+00  0.0000E+00  0.1000E+01  0.1000E+01
    -20.615  0.0000E+00  0.0000E+00  0.1000E+01  0.1000E+01
    -20.448  0.0000E+00  0.0000E+00  0.1000E+01  0.1000E+01
    -20.280  0.0000E+00  0.0000E+00  0.1000E+01  0.1000E+01
    -20.113  0.0000E+00  0.0000E+00  0.1000E+01  0.1000E+01
    -19.946  0.0000E+00  0.0000E+00  0.1000E+01  0.1000E+01
    -19.778  0.0000E+00  0.0000E+00  0.1000E+01  0.1000E+01
    -19.611  0.0000E+00  0.0000E+00  0.1000E+01  0.1000E+01
    -19.444  0.0000E+00  0.0000E+00  0.1000E+01  0.1000E+01
    -19.277  0.0000E+00  0.0000E+00  0.1000E+01  0.1000E+01
    -19.109  0.0000E+00  0.0000E+00  0.1000E+01  0.1000E+01
    -18.942  0.0000E+00  0.0000E+00  0.1000E+01  0.1000E+01
    -18.775  0.0000E+00  0.0000E+00  0.1000E+01  0.1000E+01
    -18.607  0.0000E+00  0.0000E+00  0.1000E+01  0.1000E+01
    -18.440  0.8427E-03  0.8092E-03  0.1000E+01  0.1000E+01
    -18.273  0.2304E-01  0.2212E-01  0.1004E+01  0.1004E+01
    -18.106  0.6296E+00  0.6055E+00  0.1109E+01  0.1105E+01
    -17.938  0.8606E+01  0.8450E+01  0.2549E+01  0.2519E+01
    -17.771  0.8099E+01  0.8257E+01  0.3904E+01  0.3900E+01
    -17.604  0.5551E+00  0.5772E+00  0.3996E+01  0.3996E+01
    -17.437  0.0000E+00  0.0000E+00  0.4000E+01  0.4000E+01
    -17.269  0.0000E+00  0.0000E+00  0.4000E+01  0.4000E+01
    -17.102  0.0000E+00  0.0000E+00  0.4000E+01  0.4000E+01
    -16.935  0.0000E+00  0.0000E+00  0.4000E+01  0.4000E+01
    -16.767  0.0000E+00  0.0000E+00  0.4000E+01  0.4000E+01
    -16.600  0.0000E+00  0.0000E+00  0.4000E+01  0.4000E+01
    -16.433  0.0000E+00  0.0000E+00  0.4000E+01  0.4000E+01
    -16.266  0.0000E+00  0.0000E+00  0.4000E+01  0.4000E+01
    -16.098  0.0000E+00  0.0000E+00  0.4000E+01  0.4000E+01
    -15.931  0.0000E+00  0.0000E+00  0.4000E+01  0.4000E+01
    -15.764  0.0000E+00  0.0000E+00  0.4000E+01  0.4000E+01
    -15.597  0.0000E+00  0.0000E+00  0.4000E+01  0.4000E+01
    -15.429  0.0000E+00  0.0000E+00  0.4000E+01  0.4000E+01
    -15.262  0.0000E+00  0.0000E+00  0.4000E+01  0.4000E+01
    -15.095  0.0000E+00  0.0000E+00  0.4000E+01  0.4000E+01
    -14.927  0.0000E+00  0.0000E+00  0.4000E+01  0.4000E+01
    -14.760  0.0000E+00  0.0000E+00  0.4000E+01  0.4000E+01
    -14.593  0.0000E+00  0.0000E+00  0.4000E+01  0.4000E+01
    -14.426  0.0000E+00  0.0000E+00  0.4000E+01  0.4000E+01
    -14.258  0.0000E+00  0.0000E+00  0.4000E+01  0.4000E+01
    -14.091  0.0000E+00  0.0000E+00  0.4000E+01  0.4000E+01
    -13.924  0.0000E+00  0.0000E+00  0.4000E+01  0.4000E+01
    -13.757  0.0000E+00  0.0000E+00  0.4000E+01  0.4000E+01
    -13.589  0.0000E+00  0.0000E+00  0.4000E+01  0.4000E+01
    -13.422  0.0000E+00  0.0000E+00  0.4000E+01  0.4000E+01
    -13.255  0.0000E+00  0.0000E+00  0.4000E+01  0.4000E+01
    -13.087  0.0000E+00  0.0000E+00  0.4000E+01  0.4000E+01
    -12.920  0.0000E+00  0.0000E+00  0.4000E+01  0.4000E+01
    -12.753  0.0000E+00  0.0000E+00  0.4000E+01  0.4000E+01
    -12.586  0.0000E+00  0.0000E+00  0.4000E+01  0.4000E+01
    -12.418  0.0000E+00  0.0000E+00  0.4000E+01  0.4000E+01
    -12.251  0.0000E+00  0.0000E+00  0.4000E+01  0.4000E+01
    -12.084  0.0000E+00  0.0000E+00  0.4000E+01  0.4000E+01
    -11.917  0.0000E+00  0.0000E+00  0.4000E+01  0.4000E+01
    -11.749  0.0000E+00  0.0000E+00  0.4000E+01  0.4000E+01
    -11.582  0.0000E+00  0.0000E+00  0.4000E+01  0.4000E+01
    -11.415  0.0000E+00  0.0000E+00  0.4000E+01  0.4000E+01
    -11.247  0.0000E+00  0.0000E+00  0.4000E+01  0.4000E+01
    -11.080  0.0000E+00  0.0000E+00  0.4000E+01  0.4000E+01
    -10.913  0.0000E+00  0.0000E+00  0.4000E+01  0.4000E+01
    -10.746  0.0000E+00  0.0000E+00  0.4000E+01  0.4000E+01
    -10.578  0.0000E+00  0.0000E+00  0.4000E+01  0.4000E+01
    -10.411  0.0000E+00  0.0000E+00  0.4000E+01  0.4000E+01
    -10.244  0.0000E+00  0.0000E+00  0.4000E+01  0.4000E+01
    -10.076  0.0000E+00  0.0000E+00  0.4000E+01  0.4000E+01
     -9.909  0.0000E+00  0.0000E+00  0.4000E+01  0.4000E+01
     -9.742  0.0000E+00  0.0000E+00  0.4000E+01  0.4000E+01
     -9.575  0.0000E+00  0.0000E+00  0.4000E+01  0.4000E+01
     -9.407  0.0000E+00  0.0000E+00  0.4000E+01  0.4000E+01
     -9.240  0.0000E+00  0.0000E+00  0.4000E+01  0.4000E+01
     -9.073  0.0000E+00  0.0000E+00  0.4000E+01  0.4000E+01
     -8.906  0.0000E+00  0.0000E+00  0.4000E+01  0.4000E+01
     -8.738  0.0000E+00  0.0000E+00  0.4000E+01  0.4000E+01
     -8.571  0.0000E+00  0.0000E+00  0.4000E+01  0.4000E+01
     -8.404  0.0000E+00  0.0000E+00  0.4000E+01  0.4000E+01
     -8.236  0.0000E+00  0.0000E+00  0.4000E+01  0.4000E+01
     -8.069  0.0000E+00  0.0000E+00  0.4000E+01  0.4000E+01
     -7.902  0.0000E+00  0.0000E+00  0.4000E+01  0.4000E+01
     -7.735  0.0000E+00  0.0000E+00  0.4000E+01  0.4000E+01
     -7.567  0.0000E+00  0.0000E+00  0.4000E+01  0.4000E+01
     -7.400  0.0000E+00  0.0000E+00  0.4000E+01  0.4000E+01
     -7.233  0.0000E+00  0.0000E+00  0.4000E+01  0.4000E+01
     -7.066  0.0000E+00  0.0000E+00  0.4000E+01  0.4000E+01
     -6.898  0.0000E+00  0.0000E+00  0.4000E+01  0.4000E+01
     -6.731  0.0000E+00  0.0000E+00  0.4000E+01  0.4000E+01
     -6.564  0.0000E+00  0.0000E+00  0.4000E+01  0.4000E+01
     -6.396  0.0000E+00  0.0000E+00  0.4000E+01  0.4000E+01
     -6.229  0.0000E+00  0.0000E+00  0.4000E+01  0.4000E+01
     -6.062  0.0000E+00  0.0000E+00  0.4000E+01  0.4000E+01
     -5.895  0.0000E+00  0.0000E+00  0.4000E+01  0.4000E+01
     -5.727  0.0000E+00  0.0000E+00  0.4000E+01  0.4000E+01
     -5.560  0.0000E+00  0.0000E+00  0.4000E+01  0.4000E+01
     -5.393  0.0000E+00  0.0000E+00  0.4000E+01  0.4000E+01
     -5.226  0.0000E+00  0.0000E+00  0.4000E+01  0.4000E+01
     -5.058  0.0000E+00  0.0000E+00  0.4000E+01  0.4000E+01
     -4.891  0.0000E+00  0.0000E+00  0.4000E+01  0.4000E+01
     -4.724  0.0000E+00  0.0000E+00  0.4000E+01  0.4000E+01
     -4.556  0.0000E+00  0.0000E+00  0.4000E+01  0.4000E+01
     -4.389  0.0000E+00  0.0000E+00  0.4000E+01  0.4000E+01
     -4.222  0.4745E-05  0.4623E-05  0.4000E+01  0.4000E+01
     -4.055  0.1476E-03  0.1438E-03  0.4000E+01  0.4000E+01
     -3.887  0.3917E-02  0.3822E-02  0.4001E+01  0.4001E+01
     -3.720  0.4881E-01  0.4816E-01  0.4009E+01  0.4009E+01
     -3.553  0.1432E+00  0.1426E+00  0.4033E+01  0.4033E+01
     -3.386  0.2125E+00  0.2119E+00  0.4068E+01  0.4068E+01
     -3.218  0.2612E+00  0.2609E+00  0.4112E+01  0.4112E+01
     -3.051  0.3212E+00  0.3213E+00  0.4166E+01  0.4165E+01
     -2.884  0.3415E+00  0.3414E+00  0.4223E+01  0.4223E+01
     -2.716  0.4299E+00  0.4291E+00  0.4295E+01  0.4295E+01
     -2.549  0.4488E+00  0.4481E+00  0.4371E+01  0.4370E+01
     -2.382  0.5613E+00  0.5612E+00  0.4465E+01  0.4464E+01
     -2.215  0.5522E+00  0.5518E+00  0.4557E+01  0.4556E+01
     -2.047  0.4854E+00  0.4868E+00  0.4639E+01  0.4638E+01
     -1.880  0.4791E+00  0.4789E+00  0.4719E+01  0.4718E+01
     -1.713  0.3719E+00  0.3721E+00  0.4781E+01  0.4781E+01
     -1.545  0.4916E+00  0.4913E+00  0.4864E+01  0.4863E+01
     -1.378  0.5102E+00  0.5096E+00  0.4949E+01  0.4949E+01
     -1.211  0.5109E+00  0.5112E+00  0.5035E+01  0.5034E+01
     -1.044  0.6195E+00  0.6183E+00  0.5139E+01  0.5138E+01
     -0.876  0.6399E+00  0.6396E+00  0.5246E+01  0.5245E+01
     -0.709  0.7478E+00  0.7473E+00  0.5371E+01  0.5370E+01
     -0.542  0.9083E+00  0.9060E+00  0.5524E+01  0.5522E+01
     -0.375  0.9330E+00  0.9342E+00  0.5680E+01  0.5679E+01
     -0.207  0.9079E+00  0.9069E+00  0.5832E+01  0.5831E+01
     -0.040  0.8611E+00  0.8631E+00  0.5977E+01  0.5976E+01
      0.127  0.7097E+00  0.7091E+00  0.6096E+01  0.6095E+01
      0.295  0.8675E+00  0.8669E+00  0.6241E+01  0.6240E+01
      0.462  0.7056E+00  0.7083E+00  0.6360E+01  0.6359E+01
      0.629  0.4433E+00  0.4431E+00  0.6434E+01  0.6433E+01
      0.796  0.6126E+00  0.6121E+00  0.6537E+01  0.6536E+01
      0.964  0.5320E+00  0.5330E+00  0.6626E+01  0.6625E+01
      1.131  0.4787E+00  0.4787E+00  0.6707E+01  0.6706E+01
      1.298  0.4365E+00  0.4366E+00  0.6780E+01  0.6779E+01
      1.465  0.5340E+00  0.5321E+00  0.6869E+01  0.6868E+01
      1.633  0.8359E+00  0.8349E+00  0.7009E+01  0.7008E+01
      1.800  0.7861E+00  0.7867E+00  0.7141E+01  0.7140E+01
      1.967  0.8262E+00  0.8252E+00  0.7280E+01  0.7278E+01
      2.135  0.9443E+00  0.9443E+00  0.7438E+01  0.7437E+01
      2.302  0.1003E+01  0.1002E+01  0.7606E+01  0.7605E+01
      2.469  0.9513E+00  0.9529E+00  0.7765E+01  0.7764E+01
      2.636  0.1173E+01  0.1170E+01  0.7962E+01  0.7960E+01
      2.804  0.1152E+01  0.1154E+01  0.8155E+01  0.8154E+01
      2.971  0.1219E+01  0.1217E+01  0.8360E+01  0.8358E+01
      3.138  0.1376E+01  0.1377E+01  0.8591E+01  0.8589E+01
      3.305  0.1319E+01  0.1319E+01  0.8812E+01  0.8810E+01
      3.473  0.1203E+01  0.1205E+01  0.9013E+01  0.9012E+01
      3.640  0.1080E+01  0.1079E+01  0.9194E+01  0.9193E+01
      3.807  0.1181E+01  0.1180E+01  0.9392E+01  0.9391E+01
      3.975  0.1001E+01  0.1004E+01  0.9560E+01  0.9559E+01
      4.142  0.7340E+00  0.7324E+00  0.9684E+01  0.9682E+01
      4.309  0.1267E+01  0.1266E+01  0.9896E+01  0.9895E+01
      4.476  0.1252E+01  0.1252E+01  0.1011E+02  0.1010E+02
      4.644  0.1040E+01  0.1042E+01  0.1028E+02  0.1028E+02
      4.811  0.9386E+00  0.9367E+00  0.1044E+02  0.1044E+02
      4.978  0.1296E+01  0.1294E+01  0.1066E+02  0.1065E+02
      5.145  0.1226E+01  0.1229E+01  0.1086E+02  0.1086E+02
      5.313  0.8203E+00  0.8216E+00  0.1100E+02  0.1100E+02
      5.480  0.9379E+00  0.9369E+00  0.1116E+02  0.1115E+02
      5.647  0.9828E+00  0.9820E+00  0.1132E+02  0.1132E+02
      5.815  0.1253E+01  0.1252E+01  0.1153E+02  0.1153E+02
      5.982  0.1174E+01  0.1174E+01  0.1173E+02  0.1173E+02
      6.149  0.1247E+01  0.1247E+01  0.1194E+02  0.1193E+02
      6.316  0.1256E+01  0.1256E+01  0.1215E+02  0.1215E+02
      6.484  0.1319E+01  0.1319E+01  0.1237E+02  0.1237E+02
      6.651  0.1716E+01  0.1716E+01  0.1266E+02  0.1265E+02
      6.818  0.1648E+01  0.1648E+01  0.1293E+02  0.1293E+02
      6.985  0.1775E+01  0.1773E+01  0.1323E+02  0.1323E+02
      7.153  0.2138E+01  0.2135E+01  0.1359E+02  0.1359E+02
      7.320  0.2184E+01  0.2182E+01  0.1395E+02  0.1395E+02
      7.487  0.2232E+01  0.2204E+01  0.1433E+02  0.1432E+02
      7.655  0.2192E+01  0.2187E+01  0.1469E+02  0.1469E+02
      7.822  0.2605E+01  0.2625E+01  0.1513E+02  0.1513E+02
      7.989  0.2351E+01  0.2312E+01  0.1553E+02  0.1551E+02
      8.156  0.1386E+01  0.1409E+01  0.1576E+02  0.1575E+02
      8.324  0.7019E+00  0.7424E+00  0.1588E+02  0.1588E+02
      8.491  0.3890E+00  0.3881E+00  0.1594E+02  0.1594E+02
      8.658  0.2480E+00  0.2330E+00  0.1599E+02  0.1598E+02
      8.826  0.8167E-01  0.9772E-01  0.1600E+02  0.1600E+02
      8.993  0.4979E-02  0.8107E-02  0.1600E+02  0.1600E+02
      9.160  0.0000E+00  0.0000E+00  0.1600E+02  0.1600E+02
      9.327  0.0000E+00  0.0000E+00  0.1600E+02  0.1600E+02
      9.495  0.0000E+00  0.0000E+00  0.1600E+02  0.1600E+02
      9.662  0.0000E+00  0.0000E+00  0.1600E+02  0.1600E+02
      9.829  0.0000E+00  0.0000E+00  0.1600E+02  0.1600E+02
      9.996  0.0000E+00  0.0000E+00  0.1600E+02  0.1600E+02
     10.164  0.0000E+00  0.0000E+00  0.1600E+02  0.1600E+02
     10.331  0.0000E+00  0.0000E+00  0.1600E+02  0.1600E+02
     10.498  0.0000E+00  0.0000E+00  0.1600E+02  0.1600E+02
     10.666  0.0000E+00  0.0000E+00  0.1600E+02  0.1600E+02
     10.833  0.0000E+00  0.0000E+00  0.1600E+02  0.1600E+02
     11.000  0.0000E+00  0.0000E+00  0.1600E+02  0.1600E+02
     11.00008345    -39.18224154  301      3.90417195      1.00000000
    -39.182  0.0000E+00  0.0000E+00  0.0000E+00  0.0000E+00  0.0000E+00  0.0000E+00  0.0000E+00  0.0000E+00  0.0000E+00  0.0000E+00  0.0000E+00  0.0000E+00  0.0000E+00  0.0000E+00  0.0000E+00  0.0000E+00  0.0000E+00  0.0000E+00
    -39.015  0.0000E+00  0.0000E+00  0.0000E+00  0.0000E+00  0.0000E+00  0.0000E+00  0.0000E+00  0.0000E+00  0.0000E+00  0.0000E+00  0.0000E+00  0.0000E+00  0.0000E+00  0.0000E+00  0.0000E+00  0.0000E+00  0.0000E+00  0.0000E+00
    -38.848  0.0000E+00  0.0000E+00  0.0000E+00  0.0000E+00  0.0000E+00  0.0000E+00  0.0000E+00  0.0000E+00  0.0000E+00  0.0000E+00  0.0000E+00  0.0000E+00  0.0000E+00  0.0000E+00  0.0000E+00  0.0000E+00  0.0000E+00  0.0000E+00
    -38.680  0.0000E+00  0.0000E+00  0.0000E+00  0.0000E+00  0.0000E+00  0.0000E+00  0.0000E+00  0.0000E+00  0.0000E+00  0.0000E+00  0.0000E+00  0.0000E+00  0.0000E+00  0.0000E+00  0.0000E+00  0.0000E+00  0.0000E+00  0.0000E+00
    -38.513  0.0000E+00  0.0000E+00  0.0000E+00  0.0000E+00  0.0000E+00  0.0000E+00  0.0000E+00  0.0000E+00  0.0000E+00  0.0000E+00  0.0000E+00  0.0000E+00  0.0000E+00  0.0000E+00  0.0000E+00  0.0000E+00  0.0000E+00  0.0000E+00
    -38.346  0.0000E+00  0.0000E+00  0.0000E+00  0.0000E+00  0.0000E+00  0.0000E+00  0.0000E+00  0.0000E+00  0.0000E+00  0.0000E+00  0.0000E+00  0.0000E+00  0.0000E+00  0.0000E+00  0.0000E+00  0.0000E+00  0.0000E+00  0.0000E+00
    -38.179  0.0000E+00  0.0000E+00  0.0000E+00  0.0000E+00  0.0000E+00  0.0000E+00  0.0000E+00  0.0000E+00  0.0000E+00  0.0000E+00  0.0000E+00  0.0000E+00  0.0000E+00  0.0000E+00  0.0000E+00  0.0000E+00  0.0000E+00  0.0000E+00
    -38.011  0.0000E+00  0.0000E+00  0.0000E+00  0.0000E+00  0.0000E+00  0.0000E+00  0.0000E+00  0.0000E+00  0.0000E+00  0.0000E+00  0.0000E+00  0.0000E+00  0.0000E+00  0.0000E+00  0.0000E+00  0.0000E+00  0.0000E+00  0.0000E+00
    -37.844  0.0000E+00  0.0000E+00  0.0000E+00  0.0000E+00  0.0000E+00  0.0000E+00  0.0000E+00  0.0000E+00  0.0000E+00  0.0000E+00  0.0000E+00  0.0000E+00  0.0000E+00  0.0000E+00  0.0000E+00  0.0000E+00  0.0000E+00  0.0000E+00
    -37.677  0.0000E+00  0.0000E+00  0.0000E+00  0.0000E+00  0.0000E+00  0.0000E+00  0.0000E+00  0.0000E+00  0.0000E+00  0.0000E+00  0.0000E+00  0.0000E+00  0.0000E+00  0.0000E+00  0.0000E+00  0.0000E+00  0.0000E+00  0.0000E+00
    -37.509  0.0000E+00  0.0000E+00  0.0000E+00  0.0000E+00  0.0000E+00  0.0000E+00  0.0000E+00  0.0000E+00  0.0000E+00  0.0000E+00  0.0000E+00  0.0000E+00  0.0000E+00  0.0000E+00  0.0000E+00  0.0000E+00  0.0000E+00  0.0000E+00
    -37.342  0.8602E-03  0.8294E-03  0.1950E-12  0.2489E-12  0.1950E-12  0.2489E-12  0.1963E-12  0.2508E-12  0.9441E-15  0.2876E-13  0.9477E-15  0.2849E-13  0.1006E-12  0.1870E-12  0.9441E-15  0.2876E-13  0.9919E-13  0.1892E-12
    -37.175  0.2345E-01  0.2261E-01  0.5316E-11  0.6785E-11  0.5316E-11  0.6785E-11  0.5351E-11  0.6837E-11  0.2574E-13  0.7840E-12  0.2584E-13  0.7768E-12  0.2743E-11  0.5098E-11  0.2574E-13  0.7840E-12  0.2704E-11  0.5159E-11
    -37.008  0.5955E+00  0.5764E+00  0.1350E-09  0.1730E-09  0.1350E-09  0.1730E-09  0.1359E-09  0.1743E-09  0.6538E-12  0.1999E-10  0.6563E-12  0.1980E-10  0.6967E-10  0.1300E-09  0.6538E-12  0.1999E-10  0.6867E-10  0.1315E-09
    -36.840  0.3914E+01  0.3895E+01  0.8874E-09  0.1169E-08  0.8874E-09  0.1169E-08  0.8932E-09  0.1178E-08  0.4306E-11  0.1351E-09  0.4322E-11  0.1338E-09  0.4580E-09  0.8783E-09  0.4306E-11  0.1351E-09  0.4513E-09  0.8883E-09
    -36.673  0.1298E+01  0.1334E+01  0.2943E-09  0.4006E-09  0.2943E-09  0.4006E-09  0.2962E-09  0.4037E-09  0.1432E-11  0.4626E-10  0.1437E-11  0.4583E-10  0.1519E-09  0.3008E-09  0.1432E-11  0.4626E-10  0.1496E-09  0.3041E-09
    -36.506  0.5944E-01  0.6162E-01  0.1348E-10  0.1850E-10  0.1348E-10  0.1850E-10  0.1356E-10  0.1864E-10  0.6560E-13  0.2137E-11  0.6583E-13  0.2117E-11  0.6958E-11  0.1389E-10  0.6560E-13  0.2137E-11  0.6851E-11  0.1404E-10
    -36.339  0.0000E+00  0.0000E+00  0.0000E+00  0.0000E+00  0.0000E+00  0.0000E+00  0.0000E+00  0.0000E+00  0.0000E+00  0.0000E+00  0.0000E+00  0.0000E+00  0.0000E+00  0.0000E+00  0.0000E+00  0.0000E+00  0.0000E+00  0.0000E+00
    -36.171  0.0000E+00  0.0000E+00  0.0000E+00  0.0000E+00  0.0000E+00  0.0000E+00  0.0000E+00  0.0000E+00  0.0000E+00  0.0000E+00  0.0000E+00  0.0000E+00  0.0000E+00  0.0000E+00  0.0000E+00  0.0000E+00  0.0000E+00  0.0000E+00
    -36.004  0.0000E+00  0.0000E+00  0.0000E+00  0.0000E+00  0.0000E+00  0.0000E+00  0.0000E+00  0.0000E+00  0.0000E+00  0.0000E+00  0.0000E+00  0.0000E+00  0.0000E+00  0.0000E+00  0.0000E+00  0.0000E+00  0.0000E+00  0.0000E+00
    -35.837  0.0000E+00  0.0000E+00  0.0000E+00  0.0000E+00  0.0000E+00  0.0000E+00  0.0000E+00  0.0000E+00  0.0000E+00  0.0000E+00  0.0000E+00  0.0000E+00  0.0000E+00  0.0000E+00  0.0000E+00  0.0000E+00  0.0000E+00  0.0000E+00
    -35.669  0.0000E+00  0.0000E+00  0.0000E+00  0.0000E+00  0.0000E+00  0.0000E+00  0.0000E+00  0.0000E+00  0.0000E+00  0.0000E+00  0.0000E+00  0.0000E+00  0.0000E+00  0.0000E+00  0.0000E+00  0.0000E+00  0.0000E+00  0.0000E+00
    -35.502  0.0000E+00  0.0000E+00  0.0000E+00  0.0000E+00  0.0000E+00  0.0000E+00  0.0000E+00  0.0000E+00  0.0000E+00  0.0000E+00  0.0000E+00  0.0000E+00  0.0000E+00  0.0000E+00  0.0000E+00  0.0000E+00  0.0000E+00  0.0000E+00
    -35.335  0.0000E+00  0.0000E+00  0.0000E+00  0.0000E+00  0.0000E+00  0.0000E+00  0.0000E+00  0.0000E+00  0.0000E+00  0.0000E+00  0.0000E+00  0.0000E+00  0.0000E+00  0.0000E+00  0.0000E+00  0.0000E+00  0.0000E+00  0.0000E+00
    -35.168  0.0000E+00  0.0000E+00  0.0000E+00  0.0000E+00  0.0000E+00  0.0000E+00  0.0000E+00  0.0000E+00  0.0000E+00  0.0000E+00  0.0000E+00  0.0000E+00  0.0000E+00  0.0000E+00  0.0000E+00  0.0000E+00  0.0000E+00  0.0000E+00
    -35.000  0.0000E+00  0.0000E+00  0.0000E+00  0.0000E+00  0.0000E+00  0.0000E+00  0.0000E+00  0.0000E+00  0.0000E+00  0.0000E+00  0.0000E+00  0.0000E+00  0.0000E+00  0.0000E+00  0.0000E+00  0.0000E+00  0.0000E+00  0.0000E+00
    -34.833  0.0000E+00  0.0000E+00  0.0000E+00  0.0000E+00  0.0000E+00  0.0000E+00  0.0000E+00  0.0000E+00  0.0000E+00  0.0000E+00  0.0000E+00  0.0000E+00  0.0000E+00  0.0000E+00  0.0000E+00  0.0000E+00  0.0000E+00  0.0000E+00
    -34.666  0.0000E+00  0.0000E+00  0.0000E+00  0.0000E+00  0.0000E+00  0.0000E+00  0.0000E+00  0.0000E+00  0.0000E+00  0.0000E+00  0.0000E+00  0.0000E+00  0.0000E+00  0.0000E+00  0.0000E+00  0.0000E+00  0.0000E+00  0.0000E+00
    -34.499  0.0000E+00  0.0000E+00  0.0000E+00  0.0000E+00  0.0000E+00  0.0000E+00  0.0000E+00  0.0000E+00  0.0000E+00  0.0000E+00  0.0000E+00  0.0000E+00  0.0000E+00  0.0000E+00  0.0000E+00  0.0000E+00  0.0000E+00  0.0000E+00
    -34.331  0.0000E+00  0.0000E+00  0.0000E+00  0.0000E+00  0.0000E+00  0.0000E+00  0.0000E+00  0.0000E+00  0.0000E+00  0.0000E+00  0.0000E+00  0.0000E+00  0.0000E+00  0.0000E+00  0.0000E+00  0.0000E+00  0.0000E+00  0.0000E+00
    -34.164  0.0000E+00  0.0000E+00  0.0000E+00  0.0000E+00  0.0000E+00  0.0000E+00  0.0000E+00  0.0000E+00  0.0000E+00  0.0000E+00  0.0000E+00  0.0000E+00  0.0000E+00  0.0000E+00  0.0000E+00  0.0000E+00  0.0000E+00  0.0000E+00
    -33.997  0.0000E+00  0.0000E+00  0.0000E+00  0.0000E+00  0.0000E+00  0.0000E+00  0.0000E+00  0.0000E+00  0.0000E+00  0.0000E+00  0.0000E+00  0.0000E+00  0.0000E+00  0.0000E+00  0.0000E+00  0.0000E+00  0.0000E+00  0.0000E+00
    -33.829  0.0000E+00  0.0000E+00  0.0000E+00  0.0000E+00  0.0000E+00  0.0000E+00  0.0000E+00  0.0000E+00  0.0000E+00  0.0000E+00  0.0000E+00  0.0000E+00  0.0000E+00  0.0000E+00  0.0000E+00  0.0000E+00  0.0000E+00  0.0000E+00
    -33.662  0.0000E+00  0.0000E+00  0.0000E+00  0.0000E+00  0.0000E+00  0.0000E+00  0.0000E+00  0.0000E+00  0.0000E+00  0.0000E+00  0.0000E+00  0.0000E+00  0.0000E+00  0.0000E+00  0.0000E+00  0.0000E+00  0.0000E+00  0.0000E+00
    -33.495  0.0000E+00  0.0000E+00  0.0000E+00  0.0000E+00  0.0000E+00  0.0000E+00  0.0000E+00  0.0000E+00  0.0000E+00  0.0000E+00  0.0000E+00  0.0000E+00  0.0000E+00  0.0000E+00  0.0000E+00  0.0000E+00  0.0000E+00  0.0000E+00
    -33.328  0.0000E+00  0.0000E+00  0.0000E+00  0.0000E+00  0.0000E+00  0.0000E+00  0.0000E+00  0.0000E+00  0.0000E+00  0.0000E+00  0.0000E+00  0.0000E+00  0.0000E+00  0.0000E+00  0.0000E+00  0.0000E+00  0.0000E+00  0.0000E+00
    -33.160  0.0000E+00  0.0000E+00  0.0000E+00  0.0000E+00  0.0000E+00  0.0000E+00  0.0000E+00  0.0000E+00  0.0000E+00  0.0000E+00  0.0000E+00  0.0000E+00  0.0000E+00  0.0000E+00  0.0000E+00  0.0000E+00  0.0000E+00  0.0000E+00
    -32.993  0.0000E+00  0.0000E+00  0.0000E+00  0.0000E+00  0.0000E+00  0.0000E+00  0.0000E+00  0.0000E+00  0.0000E+00  0.0000E+00  0.0000E+00  0.0000E+00  0.0000E+00  0.0000E+00  0.0000E+00  0.0000E+00  0.0000E+00  0.0000E+00
    -32.826  0.0000E+00  0.0000E+00  0.0000E+00  0.0000E+00  0.0000E+00  0.0000E+00  0.0000E+00  0.0000E+00  0.0000E+00  0.0000E+00  0.0000E+00  0.0000E+00  0.0000E+00  0.0000E+00  0.0000E+00  0.0000E+00  0.0000E+00  0.0000E+00
    -32.659  0.0000E+00  0.0000E+00  0.0000E+00  0.0000E+00  0.0000E+00  0.0000E+00  0.0000E+00  0.0000E+00  0.0000E+00  0.0000E+00  0.0000E+00  0.0000E+00  0.0000E+00  0.0000E+00  0.0000E+00  0.0000E+00  0.0000E+00  0.0000E+00
    -32.491  0.0000E+00  0.0000E+00  0.0000E+00  0.0000E+00  0.0000E+00  0.0000E+00  0.0000E+00  0.0000E+00  0.0000E+00  0.0000E+00  0.0000E+00  0.0000E+00  0.0000E+00  0.0000E+00  0.0000E+00  0.0000E+00  0.0000E+00  0.0000E+00
    -32.324  0.0000E+00  0.0000E+00  0.0000E+00  0.0000E+00  0.0000E+00  0.0000E+00  0.0000E+00  0.0000E+00  0.0000E+00  0.0000E+00  0.0000E+00  0.0000E+00  0.0000E+00  0.0000E+00  0.0000E+00  0.0000E+00  0.0000E+00  0.0000E+00
    -32.157  0.0000E+00  0.0000E+00  0.0000E+00  0.0000E+00  0.0000E+00  0.0000E+00  0.0000E+00  0.0000E+00  0.0000E+00  0.0000E+00  0.0000E+00  0.0000E+00  0.0000E+00  0.0000E+00  0.0000E+00  0.0000E+00  0.0000E+00  0.0000E+00
    -31.989  0.0000E+00  0.0000E+00  0.0000E+00  0.0000E+00  0.0000E+00  0.0000E+00  0.0000E+00  0.0000E+00  0.0000E+00  0.0000E+00  0.0000E+00  0.0000E+00  0.0000E+00  0.0000E+00  0.0000E+00  0.0000E+00  0.0000E+00  0.0000E+00
    -31.822  0.0000E+00  0.0000E+00  0.0000E+00  0.0000E+00  0.0000E+00  0.0000E+00  0.0000E+00  0.0000E+00  0.0000E+00  0.0000E+00  0.0000E+00  0.0000E+00  0.0000E+00  0.0000E+00  0.0000E+00  0.0000E+00  0.0000E+00  0.0000E+00
    -31.655  0.0000E+00  0.0000E+00  0.0000E+00  0.0000E+00  0.0000E+00  0.0000E+00  0.0000E+00  0.0000E+00  0.0000E+00  0.0000E+00  0.0000E+00  0.0000E+00  0.0000E+00  0.0000E+00  0.0000E+00  0.0000E+00  0.0000E+00  0.0000E+00
    -31.488  0.0000E+00  0.0000E+00  0.0000E+00  0.0000E+00  0.0000E+00  0.0000E+00  0.0000E+00  0.0000E+00  0.0000E+00  0.0000E+00  0.0000E+00  0.0000E+00  0.0000E+00  0.0000E+00  0.0000E+00  0.0000E+00  0.0000E+00  0.0000E+00
    -31.320  0.0000E+00  0.0000E+00  0.0000E+00  0.0000E+00  0.0000E+00  0.0000E+00  0.0000E+00  0.0000E+00  0.0000E+00  0.0000E+00  0.0000E+00  0.0000E+00  0.0000E+00  0.0000E+00  0.0000E+00  0.0000E+00  0.0000E+00  0.0000E+00
    -31.153  0.0000E+00  0.0000E+00  0.0000E+00  0.0000E+00  0.0000E+00  0.0000E+00  0.0000E+00  0.0000E+00  0.0000E+00  0.0000E+00  0.0000E+00  0.0000E+00  0.0000E+00  0.0000E+00  0.0000E+00  0.0000E+00  0.0000E+00  0.0000E+00
    -30.986  0.0000E+00  0.0000E+00  0.0000E+00  0.0000E+00  0.0000E+00  0.0000E+00  0.0000E+00  0.0000E+00  0.0000E+00  0.0000E+00  0.0000E+00  0.0000E+00  0.0000E+00  0.0000E+00  0.0000E+00  0.0000E+00  0.0000E+00  0.0000E+00
    -30.819  0.0000E+00  0.0000E+00  0.0000E+00  0.0000E+00  0.0000E+00  0.0000E+00  0.0000E+00  0.0000E+00  0.0000E+00  0.0000E+00  0.0000E+00  0.0000E+00  0.0000E+00  0.0000E+00  0.0000E+00  0.0000E+00  0.0000E+00  0.0000E+00