   4   4   1   0
  0.2241329E+02  0.4474645E-09  0.4476138E-09  0.4476138E-09  0.5000000E-15
  1.000000000000000E-004
  CAR 
 unknown system                          
     12.61278265    -37.69396544  301      4.88262919      1.00000000
    -37.694  0.0000E+00  0.0000E+00  0.0000E+00  0.0000E+00
    -37.526  0.0000E+00  0.0000E+00  0.0000E+00  0.0000E+00
    -37.359  0.0000E+00  0.0000E+00  0.0000E+00  0.0000E+00
    -37.191  0.0000E+00  0.0000E+00  0.0000E+00  0.0000E+00
    -37.023  0.0000E+00  0.0000E+00  0.0000E+00  0.0000E+00
    -36.856  0.0000E+00  0.0000E+00  0.0000E+00  0.0000E+00
    -36.688  0.0000E+00  0.0000E+00  0.0000E+00  0.0000E+00
    -36.520  0.0000E+00  0.0000E+00  0.0000E+00  0.0000E+00
    -36.352  0.0000E+00  0.0000E+00  0.0000E+00  0.0000E+00
    -36.185  0.0000E+00  0.0000E+00  0.0000E+00  0.0000E+00
    -36.017  0.0000E+00  0.0000E+00  0.0000E+00  0.0000E+00
    -35.849  0.8378E-03  0.8126E-03  0.1405E-03  0.1363E-03
    -35.682  0.2304E-01  0.2235E-01  0.4004E-02  0.3884E-02
    -35.514  0.5913E+00  0.5753E+00  0.1032E+00  0.1004E+00
    -35.346  0.3958E+01  0.3942E+01  0.7669E+00  0.7614E+00
    -35.179  0.1327E+01  0.1358E+01  0.9895E+00  0.9892E+00
    -35.011  0.6047E-01  0.6232E-01  0.9996E+00  0.9996E+00
    -34.843  0.0000E+00  0.0000E+00  0.1000E+01  0.1000E+01
    -34.676  0.0000E+00  0.0000E+00  0.1000E+01  0.1000E+01
    -34.508  0.0000E+00  0.0000E+00  0.1000E+01  0.1000E+01
    -34.340  0.0000E+00  0.0000E+00  0.1000E+01  0.1000E+01
    -34.172  0.0000E+00  0.0000E+00  0.1000E+01  0.1000E+01
    -34.005  0.0000E+00  0.0000E+00  0.1000E+01  0.1000E+01
    -33.837  0.0000E+00  0.0000E+00  0.1000E+01  0.1000E+01
    -33.669  0.0000E+00  0.0000E+00  0.1000E+01  0.1000E+01
    -33.502  0.0000E+00  0.0000E+00  0.1000E+01  0.1000E+01
    -33.334  0.0000E+00  0.0000E+00  0.1000E+01  0.1000E+01
    -33.166  0.0000E+00  0.0000E+00  0.1000E+01  0.1000E+01
    -32.999  0.0000E+00  0.0000E+00  0.1000E+01  0.1000E+01
    -32.831  0.0000E+00  0.0000E+00  0.1000E+01  0.1000E+01
    -32.663  0.0000E+00  0.0000E+00  0.1000E+01  0.1000E+01
    -32.496  0.0000E+00  0.0000E+00  0.1000E+01  0.1000E+01
    -32.328  0.0000E+00  0.0000E+00  0.1000E+01  0.1000E+01
    -32.160  0.0000E+00  0.0000E+00  0.1000E+01  0.1000E+01
    -31.993  0.0000E+00  0.0000E+00  0.1000E+01  0.1000E+01
    -31.825  0.0000E+00  0.0000E+00  0.1000E+01  0.1000E+01
    -31.657  0.0000E+00  0.0000E+00  0.1000E+01  0.1000E+01
    -31.489  0.0000E+00  0.0000E+00  0.1000E+01  0.1000E+01
    -31.322  0.0000E+00  0.0000E+00  0.1000E+01  0.1000E+01
    -31.154  0.0000E+00  0.0000E+00  0.1000E+01  0.1000E+01
    -30.986  0.0000E+00  0.0000E+00  0.1000E+01  0.1000E+01
    -30.819  0.0000E+00  0.0000E+00  0.1000E+01  0.1000E+01
    -30.651  0.0000E+00  0.0000E+00  0.1000E+01  0.1000E+01
    -30.483  0.0000E+00  0.0000E+00  0.1000E+01  0.1000E+01
    -30.316  0.0000E+00  0.0000E+00  0.1000E+01  0.1000E+01
    -30.148  0.0000E+00  0.0000E+00  0.1000E+01  0.1000E+01
    -29.980  0.0000E+00  0.0000E+00  0.1000E+01  0.1000E+01
    -29.813  0.0000E+00  0.0000E+00  0.1000E+01  0.1000E+01
    -29.645  0.0000E+00  0.0000E+00  0.1000E+01  0.1000E+01
    -29.477  0.0000E+00  0.0000E+00  0.1000E+01  0.1000E+01
    -29.310  0.0000E+00  0.0000E+00  0.1000E+01  0.1000E+01
    -29.142  0.0000E+00  0.0000E+00  0.1000E+01  0.1000E+01
    -28.974  0.0000E+00  0.0000E+00  0.1000E+01  0.1000E+01
    -28.806  0.0000E+00  0.0000E+00  0.1000E+01  0.1000E+01
    -28.639  0.0000E+00  0.0000E+00  0.1000E+01  0.1000E+01
    -28.471  0.0000E+00  0.0000E+00  0.1000E+01  0.1000E+01
    -28.303  0.0000E+00  0.0000E+00  0.1000E+01  0.1000E+01
    -28.136  0.0000E+00  0.0000E+00  0.1000E+01  0.1000E+01
    -27.968  0.0000E+00  0.0000E+00  0.1000E+01  0.1000E+01
    -27.800  0.0000E+00  0.0000E+00  0.1000E+01  0.1000E+01
    -27.633  0.0000E+00  0.0000E+00  0.1000E+01  0.1000E+01
    -27.465  0.0000E+00  0.0000E+00  0.1000E+01  0.1000E+01
    -27.297  0.0000E+00  0.0000E+00  0.1000E+01  0.1000E+01
    -27.130  0.0000E+00  0.0000E+00  0.1000E+01  0.1000E+01
    -26.962  0.0000E+00  0.0000E+00  0.1000E+01  0.1000E+01
    -26.794  0.0000E+00  0.0000E+00  0.1000E+01  0.1000E+01
    -26.626  0.0000E+00  0.0000E+00  0.1000E+01  0.1000E+01
    -26.459  0.0000E+00  0.0000E+00  0.1000E+01  0.1000E+01
    -26.291  0.0000E+00  0.0000E+00  0.1000E+01  0.1000E+01
    -26.123  0.0000E+00  0.0000E+00  0.1000E+01  0.1000E+01
    -25.956  0.0000E+00  0.0000E+00  0.1000E+01  0.1000E+01
    -25.788  0.0000E+00  0.0000E+00  0.1000E+01  0.1000E+01
    -25.620  0.0000E+00  0.0000E+00  0.1000E+01  0.1000E+01
    -25.453  0.0000E+00  0.0000E+00  0.1000E+01  0.1000E+01
    -25.285  0.0000E+00  0.0000E+00  0.1000E+01  0.1000E+01
    -25.117  0.0000E+00  0.0000E+00  0.1000E+01  0.1000E+01
    -24.950  0.0000E+00  0.0000E+00  0.1000E+01  0.1000E+01
    -24.782  0.0000E+00  0.0000E+00  0.1000E+01  0.1000E+01
    -24.614  0.0000E+00  0.0000E+00  0.1000E+01  0.1000E+01
    -24.447  0.0000E+00  0.0000E+00  0.1000E+01  0.1000E+01
    -24.279  0.0000E+00  0.0000E+00  0.1000E+01  0.1000E+01
    -24.111  0.0000E+00  0.0000E+00  0.1000E+01  0.1000E+01
    -23.943  0.0000E+00  0.0000E+00  0.1000E+01  0.1000E+01
    -23.776  0.0000E+00  0.0000E+00  0.1000E+01  0.1000E+01
    -23.608  0.0000E+00  0.0000E+00  0.1000E+01  0.1000E+01
    -23.440  0.0000E+00  0.0000E+00  0.1000E+01  0.1000E+01
    -23.273  0.0000E+00  0.0000E+00  0.1000E+01  0.1000E+01
    -23.105  0.0000E+00  0.0000E+00  0.1000E+01  0.1000E+01
    -22.937  0.0000E+00  0.0000E+00  0.1000E+01  0.1000E+01
    -22.770  0.0000E+00  0.0000E+00  0.1000E+01  0.1000E+01
    -22.602  0.0000E+00  0.0000E+00  0.1000E+01  0.1000E+01
    -22.434  0.0000E+00  0.0000E+00  0.1000E+01  0.1000E+01
    -22.267  0.0000E+00  0.0000E+00  0.1000E+01  0.1000E+01
    -22.099  0.0000E+00  0.0000E+00  0.1000E+01  0.1000E+01
    -21.931  0.0000E+00  0.0000E+00  0.1000E+01  0.1000E+01
    -21.763  0.0000E+00  0.0000E+00  0.1000E+01  0.1000E+01
    -21.596  0.0000E+00  0.0000E+00  0.1000E+01  0.1000E+01
    -21.428  0.0000E+00  0.0000E+00  0.1000E+01  0.1000E+01
    -21.260  0.0000E+00  0.0000E+00  0.1000E+01  0.1000E+01
    -21.093  0.0000E+00  0.0000E+00  0.1000E+01  0.1000E+01
    -20.925  0.0000E+00  0.0000E+00  0.1000E+01  0.1000E+01
    -20.757  0.0000E+00  0.0000E+00  0.1000E+01  0.1000E+01
    -20.590  0.0000E+00  0.0000E+00  0.1000E+01  0.1000E+01
    -20.422  0.0000E+00  0.0000E+00  0.1000E+01  0.1000E+01
    -20.254  0.0000E+00  0.0000E+00  0.1000E+01  0.1000E+01
    -20.087  0.0000E+00  0.0000E+00  0.1000E+01  0.1000E+01
    -19.919  0.0000E+00  0.0000E+00  0.1000E+01  0.1000E+01
    -19.751  0.0000E+00  0.0000E+00  0.1000E+01  0.1000E+01
    -19.584  0.0000E+00  0.0000E+00  0.1000E+01  0.1000E+01
    -19.416  0.0000E+00  0.0000E+00  0.1000E+01  0.1000E+01
    -19.248  0.0000E+00  0.0000E+00  0.1000E+01  0.1000E+01
    -19.080  0.0000E+00  0.0000E+00  0.1000E+01  0.1000E+01
    -18.913  0.0000E+00  0.0000E+00  0.1000E+01  0.1000E+01
    -18.745  0.0000E+00  0.0000E+00  0.1000E+01  0.1000E+01
    -18.577  0.0000E+00  0.0000E+00  0.1000E+01  0.1000E+01
    -18.410  0.0000E+00  0.0000E+00  0.1000E+01  0.1000E+01
    -18.242  0.0000E+00  0.0000E+00  0.1000E+01  0.1000E+01
    -18.074  0.0000E+00  0.0000E+00  0.1000E+01  0.1000E+01
    -17.907  0.0000E+00  0.0000E+00  0.1000E+01  0.1000E+01
    -17.739  0.0000E+00  0.0000E+00  0.1000E+01  0.1000E+01
    -17.571  0.0000E+00  0.0000E+00  0.1000E+01  0.1000E+01
    -17.404  0.0000E+00  0.0000E+00  0.1000E+01  0.1000E+01
    -17.236  0.0000E+00  0.0000E+00  0.1000E+01  0.1000E+01
    -17.068  0.1179E-03  0.1078E-03  0.1000E+01  0.1000E+01
    -16.901  0.5872E-02  0.5682E-02  0.1001E+01  0.1001E+01
    -16.733  0.1638E+00  0.1583E+00  0.1028E+01  0.1028E+01
    -16.565  0.3652E+01  0.3556E+01  0.1641E+01  0.1624E+01
    -16.397  0.1198E+02  0.1201E+02  0.3649E+01  0.3638E+01
    -16.230  0.2011E+01  0.2072E+01  0.3986E+01  0.3986E+01
    -16.062  0.0000E+00  0.0000E+00  0.4000E+01  0.4000E+01
    -15.894  0.0000E+00  0.0000E+00  0.4000E+01  0.4000E+01
    -15.727  0.0000E+00  0.0000E+00  0.4000E+01  0.4000E+01
    -15.559  0.0000E+00  0.0000E+00  0.4000E+01  0.4000E+01
    -15.391  0.0000E+00  0.0000E+00  0.4000E+01  0.4000E+01
    -15.224  0.0000E+00  0.0000E+00  0.4000E+01  0.4000E+01
    -15.056  0.0000E+00  0.0000E+00  0.4000E+01  0.4000E+01
    -14.888  0.0000E+00  0.0000E+00  0.4000E+01  0.4000E+01
    -14.721  0.0000E+00  0.0000E+00  0.4000E+01  0.4000E+01
    -14.553  0.0000E+00  0.0000E+00  0.4000E+01  0.4000E+01
    -14.385  0.0000E+00  0.0000E+00  0.4000E+01  0.4000E+01
    -14.217  0.0000E+00  0.0000E+00  0.4000E+01  0.4000E+01
    -14.050  0.0000E+00  0.0000E+00  0.4000E+01  0.4000E+01
    -13.882  0.0000E+00  0.0000E+00  0.4000E+01  0.4000E+01
    -13.714  0.0000E+00  0.0000E+00  0.4000E+01  0.4000E+01
    -13.547  0.0000E+00  0.0000E+00  0.4000E+01  0.4000E+01
    -13.379  0.0000E+00  0.0000E+00  0.4000E+01  0.4000E+01
    -13.211  0.0000E+00  0.0000E+00  0.4000E+01  0.4000E+01
    -13.044  0.0000E+00  0.0000E+00  0.4000E+01  0.4000E+01
    -12.876  0.0000E+00  0.0000E+00  0.4000E+01  0.4000E+01
    -12.708  0.0000E+00  0.0000E+00  0.4000E+01  0.4000E+01
    -12.541  0.0000E+00  0.0000E+00  0.4000E+01  0.4000E+01
    -12.373  0.0000E+00  0.0000E+00  0.4000E+01  0.4000E+01
    -12.205  0.0000E+00  0.0000E+00  0.4000E+01  0.4000E+01
    -12.038  0.0000E+00  0.0000E+00  0.4000E+01  0.4000E+01
    -11.870  0.0000E+00  0.0000E+00  0.4000E+01  0.4000E+01
    -11.702  0.0000E+00  0.0000E+00  0.4000E+01  0.4000E+01
    -11.534  0.0000E+00  0.0000E+00  0.4000E+01  0.4000E+01
    -11.367  0.0000E+00  0.0000E+00  0.4000E+01  0.4000E+01
    -11.199  0.0000E+00  0.0000E+00  0.4000E+01  0.4000E+01
    -11.031  0.0000E+00  0.0000E+00  0.4000E+01  0.4000E+01
    -10.864  0.0000E+00  0.0000E+00  0.4000E+01  0.4000E+01
    -10.696  0.0000E+00  0.0000E+00  0.4000E+01  0.4000E+01
    -10.528  0.0000E+00  0.0000E+00  0.4000E+01  0.4000E+01
    -10.361  0.0000E+00  0.0000E+00  0.4000E+01  0.4000E+01
    -10.193  0.0000E+00  0.0000E+00  0.4000E+01  0.4000E+01
    -10.025  0.0000E+00  0.0000E+00  0.4000E+01  0.4000E+01
     -9.858  0.0000E+00  0.0000E+00  0.4000E+01  0.4000E+01
     -9.690  0.0000E+00  0.0000E+00  0.4000E+01  0.4000E+01
     -9.522  0.0000E+00  0.0000E+00  0.4000E+01  0.4000E+01
     -9.354  0.0000E+00  0.0000E+00  0.4000E+01  0.4000E+01
     -9.187  0.0000E+00  0.0000E+00  0.4000E+01  0.4000E+01
     -9.019  0.0000E+00  0.0000E+00  0.4000E+01  0.4000E+01
     -8.851  0.0000E+00  0.0000E+00  0.4000E+01  0.4000E+01
     -8.684  0.0000E+00  0.0000E+00  0.4000E+01  0.4000E+01
     -8.516  0.0000E+00  0.0000E+00  0.4000E+01  0.4000E+01
     -8.348  0.0000E+00  0.0000E+00  0.4000E+01  0.4000E+01
     -8.181  0.0000E+00  0.0000E+00  0.4000E+01  0.4000E+01
     -8.013  0.0000E+00  0.0000E+00  0.4000E+01  0.4000E+01
     -7.845  0.0000E+00  0.0000E+00  0.4000E+01  0.4000E+01
     -7.678  0.0000E+00  0.0000E+00  0.4000E+01  0.4000E+01
     -7.510  0.0000E+00  0.0000E+00  0.4000E+01  0.4000E+01
     -7.342  0.0000E+00  0.0000E+00  0.4000E+01  0.4000E+01
     -7.175  0.0000E+00  0.0000E+00  0.4000E+01  0.4000E+01
     -7.007  0.0000E+00  0.0000E+00  0.4000E+01  0.4000E+01
     -6.839  0.0000E+00  0.0000E+00  0.4000E+01  0.4000E+01
     -6.671  0.0000E+00  0.0000E+00  0.4000E+01  0.4000E+01
     -6.504  0.0000E+00  0.0000E+00  0.4000E+01  0.4000E+01
     -6.336  0.0000E+00  0.0000E+00  0.4000E+01  0.4000E+01
     -6.168  0.0000E+00  0.0000E+00  0.4000E+01  0.4000E+01
     -6.001  0.0000E+00  0.0000E+00  0.4000E+01  0.4000E+01
     -5.833  0.0000E+00  0.0000E+00  0.4000E+01  0.4000E+01
     -5.665  0.0000E+00  0.0000E+00  0.4000E+01  0.4000E+01
     -5.498  0.0000E+00  0.0000E+00  0.4000E+01  0.4000E+01
     -5.330  0.0000E+00  0.0000E+00  0.4000E+01  0.4000E+01
     -5.162  0.0000E+00  0.0000E+00  0.4000E+01  0.4000E+01
     -4.995  0.0000E+00  0.0000E+00  0.4000E+01  0.4000E+01
     -4.827  0.0000E+00  0.0000E+00  0.4000E+01  0.4000E+01
     -4.659  0.0000E+00  0.0000E+00  0.4000E+01  0.4000E+01
     -4.492  0.0000E+00  0.0000E+00  0.4000E+01  0.4000E+01
     -4.324  0.0000E+00  0.0000E+00  0.4000E+01  0.4000E+01
     -4.156  0.0000E+00  0.0000E+00  0.4000E+01  0.4000E+01
     -3.988  0.6570E-07  0.6647E-07  0.4000E+01  0.4000E+01
     -3.821  0.1143E-04  0.1156E-04  0.4000E+01  0.4000E+01
     -3.653  0.3360E-03  0.3398E-03  0.4000E+01  0.4000E+01
     -3.485  0.8134E-02  0.8214E-02  0.4001E+01  0.4001E+01
     -3.318  0.6402E-01  0.6428E-01  0.4012E+01  0.4012E+01
     -3.150  0.1400E+00  0.1402E+00  0.4036E+01  0.4036E+01
     -2.982  0.1933E+00  0.1935E+00  0.4068E+01  0.4068E+01
     -2.815  0.2315E+00  0.2316E+00  0.4107E+01  0.4107E+01
     -2.647  0.2756E+00  0.2758E+00  0.4153E+01  0.4153E+01
     -2.479  0.3083E+00  0.3081E+00  0.4205E+01  0.4205E+01
     -2.312  0.3486E+00  0.3489E+00  0.4264E+01  0.4264E+01
     -2.144  0.3993E+00  0.3984E+00  0.4331E+01  0.4331E+01
     -1.976  0.4512E+00  0.4514E+00  0.4407E+01  0.4407E+01
     -1.808  0.5004E+00  0.5002E+00  0.4491E+01  0.4491E+01
     -1.641  0.5219E+00  0.5220E+00  0.4579E+01  0.4579E+01
     -1.473  0.4164E+00  0.4160E+00  0.4648E+01  0.4649E+01
     -1.305  0.4515E+00  0.4514E+00  0.4725E+01  0.4725E+01
     -1.138  0.3325E+00  0.3325E+00  0.4780E+01  0.4781E+01
     -0.970  0.4532E+00  0.4536E+00  0.4857E+01  0.4857E+01
     -0.802  0.4552E+00  0.4554E+00  0.4933E+01  0.4933E+01
     -0.635  0.4531E+00  0.4531E+00  0.5009E+01  0.5010E+01
     -0.467  0.4751E+00  0.4754E+00  0.5089E+01  0.5090E+01
     -0.299  0.5554E+00  0.5555E+00  0.5183E+01  0.5183E+01
     -0.132  0.5641E+00  0.5642E+00  0.5277E+01  0.5278E+01
      0.036  0.6113E+00  0.6112E+00  0.5380E+01  0.5380E+01
      0.204  0.8363E+00  0.8367E+00  0.5520E+01  0.5521E+01
      0.371  0.8480E+00  0.8477E+00  0.5663E+01  0.5663E+01
      0.539  0.8245E+00  0.8247E+00  0.5802E+01  0.5802E+01
      0.707  0.8316E+00  0.8311E+00  0.5942E+01  0.5942E+01
      0.875  0.6657E+00  0.6659E+00  0.6054E+01  0.6054E+01
      1.042  0.8123E+00  0.8125E+00  0.6190E+01  0.6191E+01
      1.210  0.6981E+00  0.6971E+00  0.6308E+01  0.6308E+01
      1.378  0.5133E+00  0.5132E+00  0.6394E+01  0.6394E+01
      1.545  0.4914E+00  0.4914E+00  0.6477E+01  0.6477E+01
      1.713  0.5186E+00  0.5187E+00  0.6564E+01  0.6564E+01
      1.881  0.5081E+00  0.5087E+00  0.6649E+01  0.6650E+01
      2.048  0.5570E+00  0.5570E+00  0.6743E+01  0.6743E+01
      2.216  0.5171E+00  0.5183E+00  0.6830E+01  0.6830E+01
      2.384  0.7252E+00  0.7255E+00  0.6952E+01  0.6952E+01
      2.551  0.7670E+00  0.7672E+00  0.7080E+01  0.7081E+01
      2.719  0.8847E+00  0.8855E+00  0.7229E+01  0.7230E+01
      2.887  0.8941E+00  0.8942E+00  0.7379E+01  0.7380E+01
      3.055  0.8370E+00  0.8370E+00  0.7520E+01  0.7521E+01
      3.222  0.1018E+01  0.1018E+01  0.7691E+01  0.7692E+01
      3.390  0.1009E+01  0.1011E+01  0.7861E+01  0.7862E+01
      3.558  0.1180E+01  0.1179E+01  0.8060E+01  0.8060E+01
      3.725  0.1023E+01  0.1024E+01  0.8231E+01  0.8232E+01
      3.893  0.1303E+01  0.1303E+01  0.8450E+01  0.8451E+01
      4.061  0.1282E+01  0.1281E+01  0.8666E+01  0.8667E+01
      4.228  0.1234E+01  0.1234E+01  0.8873E+01  0.8874E+01
      4.396  0.1035E+01  0.1033E+01  0.9048E+01  0.9048E+01
      4.564  0.9784E+00  0.9801E+00  0.9212E+01  0.9213E+01
      4.731  0.1040E+01  0.1039E+01  0.9387E+01  0.9388E+01
      4.899  0.7265E+00  0.7248E+00  0.9509E+01  0.9509E+01
      5.067  0.5735E+00  0.5744E+00  0.9606E+01  0.9606E+01
      5.234  0.8845E+00  0.8862E+00  0.9754E+01  0.9755E+01
      5.402  0.1091E+01  0.1091E+01  0.9938E+01  0.9938E+01
      5.570  0.1109E+01  0.1108E+01  0.1012E+02  0.1012E+02
      5.738  0.8956E+00  0.8947E+00  0.1027E+02  0.1028E+02
      5.905  0.9455E+00  0.9463E+00  0.1043E+02  0.1043E+02
      6.073  0.1164E+01  0.1164E+01  0.1063E+02  0.1063E+02
      6.241  0.1015E+01  0.1015E+01  0.1080E+02  0.1080E+02
      6.408  0.9472E+00  0.9468E+00  0.1096E+02  0.1096E+02
      6.576  0.9180E+00  0.9180E+00  0.1111E+02  0.1111E+02
      6.744  0.8235E+00  0.8234E+00  0.1125E+02  0.1125E+02
      6.911  0.1168E+01  0.1168E+01  0.1145E+02  0.1145E+02
      7.079  0.9919E+00  0.9910E+00  0.1161E+02  0.1162E+02
      7.247  0.1120E+01  0.1120E+01  0.1180E+02  0.1180E+02
      7.414  0.1051E+01  0.1051E+01  0.1198E+02  0.1198E+02
      7.582  0.9411E+00  0.9422E+00  0.1214E+02  0.1214E+02
      7.750  0.1261E+01  0.1261E+01  0.1235E+02  0.1235E+02
      7.917  0.1451E+01  0.1455E+01  0.1259E+02  0.1260E+02
      8.085  0.1757E+01  0.1755E+01  0.1289E+02  0.1289E+02
      8.253  0.1857E+01  0.1856E+01  0.1320E+02  0.1320E+02
      8.421  0.1858E+01  0.1858E+01  0.1351E+02  0.1351E+02
      8.588  0.1947E+01  0.1945E+01  0.1384E+02  0.1384E+02
      8.756  0.1971E+01  0.1962E+01  0.1417E+02  0.1417E+02
      8.924  0.1810E+01  0.1810E+01  0.1448E+02  0.1448E+02
      9.091  0.1897E+01  0.1887E+01  0.1480E+02  0.1479E+02
      9.259  0.2173E+01  0.2146E+01  0.1516E+02  0.1515E+02
      9.427  0.1895E+01  0.1903E+01  0.1548E+02  0.1547E+02
      9.594  0.1287E+01  0.1295E+01  0.1570E+02  0.1569E+02
      9.762  0.6948E+00  0.7157E+00  0.1581E+02  0.1581E+02
      9.930  0.3901E+00  0.4244E+00  0.1588E+02  0.1589E+02
     10.097  0.3321E+00  0.3403E+00  0.1594E+02  0.1594E+02
     10.265  0.2754E+00  0.2435E+00  0.1598E+02  0.1598E+02
     10.433  0.9727E-01  0.9100E-01  0.1600E+02  0.1600E+02
     10.601  0.6551E-02  0.6477E-02  0.1600E+02  0.1600E+02
     10.768  0.0000E+00  0.0000E+00  0.1600E+02  0.1600E+02
     10.936  0.0000E+00  0.0000E+00  0.1600E+02  0.1600E+02
     11.104  0.0000E+00  0.0000E+00  0.1600E+02  0.1600E+02
     11.271  0.0000E+00  0.0000E+00  0.1600E+02  0.1600E+02
     11.439  0.0000E+00  0.0000E+00  0.1600E+02  0.1600E+02
     11.607  0.0000E+00  0.0000E+00  0.1600E+02  0.1600E+02
     11.774  0.0000E+00  0.0000E+00  0.1600E+02  0.1600E+02
     11.942  0.0000E+00  0.0000E+00  0.1600E+02  0.1600E+02
     12.110  0.0000E+00  0.0000E+00  0.1600E+02  0.1600E+02
     12.277  0.0000E+00  0.0000E+00  0.1600E+02  0.1600E+02
     12.445  0.0000E+00  0.0000E+00  0.1600E+02  0.1600E+02
     12.613  0.0000E+00  0.0000E+00  0.1600E+02  0.1600E+02
     12.61278265    -37.69396544  301      4.88262919      1.00000000
    -37.694  0.0000E+00  0.0000E+00  0.0000E+00  0.0000E+00  0.0000E+00  0.0000E+00  0.0000E+00  0.0000E+00  0.0000E+00  0.0000E+00  0.0000E+00  0.0000E+00  0.0000E+00  0.0000E+00  0.0000E+00  0.0000E+00  0.0000E+00  0.0000E+00
    -37.526  0.0000E+00  0.0000E+00  0.0000E+00  0.0000E+00  0.0000E+00  0.0000E+00  0.0000E+00  0.0000E+00  0.0000E+00  0.0000E+00  0.0000E+00  0.0000E+00  0.0000E+00  0.0000E+00  0.0000E+00  0.0000E+00  0.0000E+00  0.0000E+00
    -37.359  0.0000E+00  0.0000E+00  0.0000E+00  0.0000E+00  0.0000E+00  0.0000E+00  0.0000E+00  0.0000E+00  0.0000E+00  0.0000E+00  0.0000E+00  0.0000E+00  0.0000E+00  0.0000E+00  0.0000E+00  0.0000E+00  0.0000E+00  0.0000E+00
    -37.191  0.0000E+00  0.0000E+00  0.0000E+00  0.0000E+00  0.0000E+00  0.0000E+00  0.0000E+00  0.0000E+00  0.0000E+00  0.0000E+00  0.0000E+00  0.0000E+00  0.0000E+00  0.0000E+00  0.0000E+00  0.0000E+00  0.0000E+00  0.0000E+00
    -37.023  0.0000E+00  0.0000E+00  0.0000E+00  0.0000E+00  0.0000E+00  0.0000E+00  0.0000E+00  0.0000E+00  0.0000E+00  0.0000E+00  0.0000E+00  0.0000E+00  0.0000E+00  0.0000E+00  0.0000E+00  0.0000E+00  0.0000E+00  0.0000E+00
    -36.856  0.0000E+00  0.0000E+00  0.0000E+00  0.0000E+00  0.0000E+00  0.0000E+00  0.0000E+00  0.0000E+00  0.0000E+00  0.0000E+00  0.0000E+00  0.0000E+00  0.0000E+00  0.0000E+00  0.0000E+00  0.0000E+00  0.0000E+00  0.0000E+00
    -36.688  0.0000E+00  0.0000E+00  0.0000E+00  0.0000E+00  0.0000E+00  0.0000E+00  0.0000E+00  0.0000E+00  0.0000E+00  0.0000E+00  0.0000E+00  0.0000E+00  0.0000E+00  0.0000E+00  0.0000E+00  0.0000E+00  0.0000E+00  0.0000E+00
    -36.520  0.0000E+00  0.0000E+00  0.0000E+00  0.0000E+00  0.0000E+00  0.0000E+00  0.0000E+00  0.0000E+00  0.0000E+00  0.0000E+00  0.0000E+00  0.0000E+00  0.0000E+00  0.0000E+00  0.0000E+00  0.0000E+00  0.0000E+00  0.0000E+00
    -36.352  0.0000E+00  0.0000E+00  0.0000E+00  0.0000E+00  0.0000E+00  0.0000E+00  0.0000E+00  0.0000E+00  0.0000E+00  0.0000E+00  0.0000E+00  0.0000E+00  0.0000E+00  0.0000E+00  0.0000E+00  0.0000E+00  0.0000E+00  0.0000E+00
    -36.185  0.0000E+00  0.0000E+00  0.0000E+00  0.0000E+00  0.0000E+00  0.0000E+00  0.0000E+00  0.0000E+00  0.0000E+00  0.0000E+00  0.0000E+00  0.0000E+00  0.0000E+00  0.0000E+00  0.0000E+00  0.0000E+00  0.0000E+00  0.0000E+00
    -36.017  0.0000E+00  0.0000E+00  0.0000E+00  0.0000E+00  0.0000E+00  0.0000E+00  0.0000E+00  0.0000E+00  0.0000E+00  0.0000E+00  0.0000E+00  0.0000E+00  0.0000E+00  0.0000E+00  0.0000E+00  0.0000E+00  0.0000E+00  0.0000E+00
    -35.849  0.8255E-03  0.8007E-03  0.9906E-12  0.1175E-11  0.9906E-12  0.1175E-11  0.1003E-11  0.1192E-11  0.1234E-14  0.2289E-13  0.1351E-14  0.2096E-13  0.6162E-12  0.7433E-12  0.1234E-14  0.2289E-13  0.6153E-12  0.7466E-12
    -35.682  0.2270E-01  0.2202E-01  0.2724E-10  0.3231E-10  0.2724E-10  0.3231E-10  0.2759E-10  0.3278E-10  0.3395E-13  0.6296E-12  0.3715E-13  0.5765E-12  0.1694E-10  0.2044E-10  0.3395E-13  0.6296E-12  0.1692E-10  0.2054E-10
    -35.514  0.5826E+00  0.5669E+00  0.6991E-09  0.8318E-09  0.6991E-09  0.8318E-09  0.7079E-09  0.8439E-09  0.8716E-12  0.1621E-10  0.9538E-12  0.1484E-10  0.4349E-09  0.5263E-09  0.8716E-12  0.1621E-10  0.4342E-09  0.5286E-09
    -35.346  0.3900E+01  0.3884E+01  0.4680E-08  0.5700E-08  0.4680E-08  0.5700E-08  0.4739E-08  0.5784E-08  0.5857E-11  0.1111E-09  0.6407E-11  0.1017E-09  0.2913E-08  0.3606E-08  0.5857E-11  0.1111E-09  0.2907E-08  0.3620E-08
    -35.179  0.1308E+01  0.1338E+01  0.1569E-08  0.1964E-08  0.1569E-08  0.1964E-08  0.1589E-08  0.1993E-08  0.1972E-11  0.3831E-10  0.2157E-11  0.3507E-10  0.9775E-09  0.1243E-08  0.1972E-11  0.3831E-10  0.9744E-09  0.1246E-08
    -35.011  0.5958E-01  0.6141E-01  0.7149E-10  0.9014E-10  0.7149E-10  0.9014E-10  0.7238E-10  0.9147E-10  0.8995E-13  0.1758E-11  0.9836E-13  0.1610E-11  0.4454E-10  0.5702E-10  0.8995E-13  0.1758E-11  0.4439E-10  0.5716E-10
    -34.843  0.0000E+00  0.0000E+00  0.0000E+00  0.0000E+00  0.0000E+00  0.0000E+00  0.0000E+00  0.0000E+00  0.0000E+00  0.0000E+00  0.0000E+00  0.0000E+00  0.0000E+00  0.0000E+00  0.0000E+00  0.0000E+00  0.0000E+00  0.0000E+00
    -34.676  0.0000E+00  0.0000E+00  0.0000E+00  0.0000E+00  0.0000E+00  0.0000E+00  0.0000E+00  0.0000E+00  0.0000E+00  0.0000E+00  0.0000E+00  0.0000E+00  0.0000E+00  0.0000E+00  0.0000E+00  0.0000E+00  0.0000E+00  0.0000E+00
    -34.508  0.0000E+00  0.0000E+00  0.0000E+00  0.0000E+00  0.0000E+00  0.0000E+00  0.0000E+00  0.0000E+00  0.0000E+00  0.0000E+00  0.0000E+00  0.0000E+00  0.0000E+00  0.0000E+00  0.0000E+00  0.0000E+00  0.0000E+00  0.0000E+00
    -34.340  0.0000E+00  0.0000E+00  0.0000E+00  0.0000E+00  0.0000E+00  0.0000E+00  0.0000E+00  0.0000E+00  0.0000E+00  0.0000E+00  0.0000E+00  0.0000E+00  0.0000E+00  0.0000E+00  0.0000E+00  0.0000E+00  0.0000E+00  0.0000E+00
    -34.172  0.0000E+00  0.0000E+00  0.0000E+00  0.0000E+00  0.0000E+00  0.0000E+00  0.0000E+00  0.0000E+00  0.0000E+00  0.0000E+00  0.0000E+00  0.0000E+00  0.0000E+00  0.0000E+00  0.0000E+00  0.0000E+00  0.0000E+00  0.0000E+00
    -34.005  0.0000E+00  0.0000E+00  0.0000E+00  0.0000E+00  0.0000E+00  0.0000E+00  0.0000E+00  0.0000E+00  0.0000E+00  0.0000E+00  0.0000E+00  0.0000E+00  0.0000E+00  0.0000E+00  0.0000E+00  0.0000E+00  0.0000E+00  0.0000E+00
    -33.837  0.0000E+00  0.0000E+00  0.0000E+00  0.0000E+00  0.0000E+00  0.0000E+00  0.0000E+00  0.0000E+00  0.0000E+00  0.0000E+00  0.0000E+00  0.0000E+00  0.0000E+00  0.0000E+00  0.0000E+00  0.0000E+00  0.0000E+00  0.0000E+00
    -33.669  0.0000E+00  0.0000E+00  0.0000E+00  0.0000E+00  0.0000E+00  0.0000E+00  0.0000E+00  0.0000E+00  0.0000E+00  0.0000E+00  0.0000E+00  0.0000E+00  0.0000E+00  0.0000E+00  0.0000E+00  0.0000E+00  0.0000E+00  0.0000E+00
    -33.502  0.0000E+00  0.0000E+00  0.0000E+00  0.0000E+00  0.0000E+00  0.0000E+00  0.0000E+00  0.0000E+00  0.0000E+00  0.0000E+00  0.0000E+00  0.0000E+00  0.0000E+00  0.0000E+00  0.0000E+00  0.0000E+00  0.0000E+00  0.0000E+00
    -33.334  0.0000E+00  0.0000E+00  0.0000E+00  0.0000E+00  0.0000E+00  0.0000E+00  0.0000E+00  0.0000E+00  0.0000E+00  0.0000E+00  0.0000E+00  0.0000E+00  0.0000E+00  0.0000E+00  0.0000E+00  0.0000E+00  0.0000E+00  0.0000E+00
    -33.166  0.0000E+00  0.0000E+00  0.0000E+00  0.0000E+00  0.0000E+00  0.0000E+00  0.0000E+00  0.0000E+00  0.0000E+00  0.0000E+00  0.0000E+00  0.0000E+00  0.0000E+00  0.0000E+00  0.0000E+00  0.0000E+00  0.0000E+00  0.0000E+00
    -32.999  0.0000E+00  0.0000E+00  0.0000E+00  0.0000E+00  0.0000E+00  0.0000E+00  0.0000E+00  0.0000E+00  0.0000E+00  0.0000E+00  0.0000E+00  0.0000E+00  0.0000E+00  0.0000E+00  0.0000E+00  0.0000E+00  0.0000E+00  0.0000E+00
    -32.831  0.0000E+00  0.0000E+00  0.0000E+00  0.0000E+00  0.0000E+00  0.0000E+00  0.0000E+00  0.0000E+00  0.0000E+00  0.0000E+00  0.0000E+00  0.0000E+00  0.0000E+00  0.0000E+00  0.0000E+00  0.0000E+00  0.0000E+00  0.0000E+00
    -32.663  0.0000E+00  0.0000E+00  0.0000E+00  0.0000E+00  0.0000E+00  0.0000E+00  0.0000E+00  0.0000E+00  0.0000E+00  0.0000E+00  0.0000E+00  0.0000E+00  0.0000E+00  0.0000E+00  0.0000E+00  0.0000E+00  0.0000E+00  0.0000E+00
    -32.496  0.0000E+00  0.0000E+00  0.0000E+00  0.0000E+00  0.0000E+00  0.0000E+00  0.0000E+00  0.0000E+00  0.0000E+00  0.0000E+00  0.0000E+00  0.0000E+00  0.0000E+00  0.0000E+00  0.0000E+00  0.0000E+00  0.0000E+00  0.0000E+00
    -32.328  0.0000E+00  0.0000E+00  0.0000E+00  0.0000E+00  0.0000E+00  0.0000E+00  0.0000E+00  0.0000E+00  0.0000E+00  0.0000E+00  0.0000E+00  0.0000E+00  0.0000E+00  0.0000E+00  0.0000E+00  0.0000E+00  0.0000E+00  0.0000E+00
    -32.160  0.0000E+00  0.0000E+00  0.0000E+00  0.0000E+00  0.0000E+00  0.0000E+00  0.0000E+00  0.0000E+00  0.0000E+00  0.0000E+00  0.0000E+00  0.0000E+00  0.0000E+00  0.0000E+00  0.0000E+00  0.0000E+00  0.0000E+00  0.0000E+00
    -31.993  0.0000E+00  0.0000E+00  0.0000E+00  0.0000E+00  0.0000E+00  0.0000E+00  0.0000E+00  0.0000E+00  0.0000E+00  0.0000E+00  0.0000E+00  0.0000E+00  0.0000E+00  0.0000E+00  0.0000E+00  0.0000E+00  0.0000E+00  0.0000E+00
    -31.825  0.0000E+00  0.0000E+00  0.0000E+00  0.0000E+00  0.0000E+00  0.0000E+00  0.0000E+00  0.0000E+00  0.0000E+00  0.0000E+00  0.0000E+00  0.0000E+00  0.0000E+00  0.0000E+00  0.0000E+00  0.0000E+00  0.0000E+00  0.0000E+00
    -31.657  0.0000E+00  0.0000E+00  0.0000E+00  0.0000E+00  0.0000E+00  0.0000E+00  0.0000E+00  0.0000E+00  0.0000E+00  0.0000E+00  0.0000E+00  0.0000E+00  0.0000E+00  0.0000E+00  0.0000E+00  0.0000E+00  0.0000E+00  0.0000E+00
    -31.489  0.0000E+00  0.0000E+00  0.0000E+00  0.0000E+00  0.0000E+00  0.0000E+00  0.0000E+00  0.0000E+00  0.0000E+00  0.0000E+00  0.0000E+00  0.0000E+00  0.0000E+00  0.0000E+00  0.0000E+00  0.0000E+00  0.0000E+00  0.0000E+00
    -31.322  0.0000E+00  0.0000E+00  0.0000E+00  0.0000E+00  0.0000E+00  0.0000E+00  0.0000E+00  0.0000E+00  0.0000E+00  0.0000E+00  0.0000E+00  0.0000E+00  0.0000E+00  0.0000E+00  0.0000E+00  0.0000E+00  0.0000E+00  0.0000E+00
    -31.154  0.0000E+00  0.0000E+00  0.0000E+00  0.0000E+00  0.0000E+00  0.0000E+00  0.0000E+00  0.0000E+00  0.0000E+00  0.0000E+00  0.0000E+00  0.0000E+00  0.0000E+00  0.0000E+00  0.0000E+00  0.0000E+00  0.0000E+00  0.0000E+00
    -30.986  0.0000E+00  0.0000E+00  0.0000E+00  0.0000E+00  0.0000E+00  0.0000E+00  0.0000E+00  0.0000E+00  0.0000E+00  0.0000E+00  0.0000E+00  0.0000E+00  0.0000E+00  0.0000E+00  0.0000E+00  0.0000E+00  0.0000E+00  0.0000E+00
    -30.819  0.0000E+00  0.0000E+00  0.0000E+00  0.0000E+00  0.0000E+00  0.0000E+00  0.0000E+00  0.0000E+00  0.0000E+00  0.0000E+00  0.0000E+00  0.0000E+00  0.0000E+00  0.0000E+00  0.0000E+00  0.0000E+00  0.0000E+00  0.0000E+00
    -30.651  0.0000E+00  0.0000E+00  0.0000E+00  0.0000E+00  0.0000E+00  0.0000E+00  0.0000E+00  0.0000E+00  0.0000E+00  0.0000E+00  0.0000E+00  0.0000E+00  0.0000E+00  0.0000E+00  0.0000E+00  0.0000E+00  0.0000E+00  0.0000E+00
    -30.483  0.0000E+00  0.0000E+00  0.0000E+00  0.0000E+00  0.0000E+00  0.0000E+00  0.0000E+00  0.0000E+00  0.0000E+00  0.0000E+00  0.0000E+00  0.0000E+00  0.0000E+00  0.0000E+00  0.0000E+00  0.0000E+00  0.0000E+00  0.0000E+00
    -30.316  0.0000E+00  0.0000E+00  0.0000E+00  0.0000E+00  0.0000E+00  0.0000E+00  0.0000E+00  0.0000E+00  0.0000E+00  0.0000E+00  0.0000E+00  0.0000E+00  0.0000E+00  0.0000E+00  0.0000E+00  0.0000E+00  0.0000E+00  0.0000E+00
    -30.148  0.0000E+00  0.0000E+00  0.0000E+00  0.0000E+00  0.0000E+00  0.0000E+00  0.0000E+00  0.0000E+00  0.0000E+00  0.0000E+00  0.0000E+00  0.0000E+00  0.0000E+00  0.0000E+00  0.0000E+00  0.0000E+00  0.0000E+00  0.0000E+00
    -29.980  0.0000E+00  0.0000E+00  0.0000E+00  0.0000E+00  0.0000E+00  0.0000E+00  0.0000E+00  0.0000E+00  0.0000E+00  0.0000E+00  0.0000E+00  0.0000E+00  0.0000E+00  0.0000E+00  0.0000E+00  0.0000E+00  0.0000E+00  0.0000E+00
    -29.813  0.0000E+00  0.0000E+00  0.0000E+00  0.0000E+00  0.0000E+00  0.0000E+00  0.0000E+00  0.0000E+00  0.0000E+00  0.0000E+00  0.0000E+00  0.0000E+00  0.0000E+00  0.0000E+00  0.0000E+00  0.0000E+00  0.0000E+00  0.0000E+00
    -29.645  0.0000E+00  0.0000E+00  0.0000E+00  0.0000E+00  0.0000E+00  0.0000E+00  0.0000E+00  0.0000E+00  0.0000E+00  0.0000E+00  0.0000E+00  0.0000E+00  0.0000E+00  0.0000E+00  0.0000E+00  0.0000E+00  0.0000E+00  0.0000E+00
    -29.477  0.0000E+00  0.0000E+00  0.0000E+00  0.0000E+00  0.0000E+00  0.0000E+00  0.0000E+00  0.0000E+00  0.0000E+00  0.0000E+00  0.0000E+00  0.0000E+00  0.0000E+00  0.0000E+00  0.0000E+00  0.0000E+00  0.0000E+00  0.0000E+00
    -29.310  0.0000E+00  0.0000E+00  0.0000E+00  0.0000E+00  0.0000E+00  0.0000E+00  0.0000E+00  0.0000E+00  0.0000E+00  0.0000E+00  0.0000E+00  0.0000E+00  0.0000E+00  0.0000E+00  0.0000E+00  0.0000E+00  0.0000E+00  0.0000E+00