   4   4   1   0
  0.2306606E+02  0.4517670E-09  0.4519178E-09  0.4519178E-09  0.5000000E-15
  1.000000000000000E-004
  CAR 
 unknown system                          
     12.27986720    -38.00185223  301      4.67890915      1.00000000
    -38.002  0.0000E+00  0.0000E+00  0.0000E+00  0.0000E+00
    -37.834  0.0000E+00  0.0000E+00  0.0000E+00  0.0000E+00
    -37.667  0.0000E+00  0.0000E+00  0.0000E+00  0.0000E+00
    -37.499  0.0000E+00  0.0000E+00  0.0000E+00  0.0000E+00
    -37.331  0.0000E+00  0.0000E+00  0.0000E+00  0.0000E+00
    -37.164  0.0000E+00  0.0000E+00  0.0000E+00  0.0000E+00
    -36.996  0.0000E+00  0.0000E+00  0.0000E+00  0.0000E+00
    -36.829  0.0000E+00  0.0000E+00  0.0000E+00  0.0000E+00
    -36.661  0.0000E+00  0.0000E+00  0.0000E+00  0.0000E+00
    -36.493  0.0000E+00  0.0000E+00  0.0000E+00  0.0000E+00
    -36.326  0.0000E+00  0.0000E+00  0.0000E+00  0.0000E+00
    -36.158  0.8456E-03  0.8204E-03  0.1417E-03  0.1375E-03
    -35.991  0.2321E-01  0.2252E-01  0.4033E-02  0.3913E-02
    -35.823  0.5944E+00  0.5785E+00  0.1037E+00  0.1009E+00
    -35.655  0.3961E+01  0.3945E+01  0.7676E+00  0.7622E+00
    -35.488  0.1324E+01  0.1355E+01  0.9895E+00  0.9892E+00
    -35.320  0.6036E-01  0.6220E-01  0.9996E+00  0.9996E+00
    -35.153  0.0000E+00  0.0000E+00  0.1000E+01  0.1000E+01
    -34.985  0.0000E+00  0.0000E+00  0.1000E+01  0.1000E+01
    -34.817  0.0000E+00  0.0000E+00  0.1000E+01  0.1000E+01
    -34.650  0.0000E+00  0.0000E+00  0.1000E+01  0.1000E+01
    -34.482  0.0000E+00  0.0000E+00  0.1000E+01  0.1000E+01
    -34.315  0.0000E+00  0.0000E+00  0.1000E+01  0.1000E+01
    -34.147  0.0000E+00  0.0000E+00  0.1000E+01  0.1000E+01
    -33.979  0.0000E+00  0.0000E+00  0.1000E+01  0.1000E+01
    -33.812  0.0000E+00  0.0000E+00  0.1000E+01  0.1000E+01
    -33.644  0.0000E+00  0.0000E+00  0.1000E+01  0.1000E+01
    -33.476  0.0000E+00  0.0000E+00  0.1000E+01  0.1000E+01
    -33.309  0.0000E+00  0.0000E+00  0.1000E+01  0.1000E+01
    -33.141  0.0000E+00  0.0000E+00  0.1000E+01  0.1000E+01
    -32.974  0.0000E+00  0.0000E+00  0.1000E+01  0.1000E+01
    -32.806  0.0000E+00  0.0000E+00  0.1000E+01  0.1000E+01
    -32.638  0.0000E+00  0.0000E+00  0.1000E+01  0.1000E+01
    -32.471  0.0000E+00  0.0000E+00  0.1000E+01  0.1000E+01
    -32.303  0.0000E+00  0.0000E+00  0.1000E+01  0.1000E+01
    -32.136  0.0000E+00  0.0000E+00  0.1000E+01  0.1000E+01
    -31.968  0.0000E+00  0.0000E+00  0.1000E+01  0.1000E+01
    -31.800  0.0000E+00  0.0000E+00  0.1000E+01  0.1000E+01
    -31.633  0.0000E+00  0.0000E+00  0.1000E+01  0.1000E+01
    -31.465  0.0000E+00  0.0000E+00  0.1000E+01  0.1000E+01
    -31.298  0.0000E+00  0.0000E+00  0.1000E+01  0.1000E+01
    -31.130  0.0000E+00  0.0000E+00  0.1000E+01  0.1000E+01
    -30.962  0.0000E+00  0.0000E+00  0.1000E+01  0.1000E+01
    -30.795  0.0000E+00  0.0000E+00  0.1000E+01  0.1000E+01
    -30.627  0.0000E+00  0.0000E+00  0.1000E+01  0.1000E+01
    -30.460  0.0000E+00  0.0000E+00  0.1000E+01  0.1000E+01
    -30.292  0.0000E+00  0.0000E+00  0.1000E+01  0.1000E+01
    -30.124  0.0000E+00  0.0000E+00  0.1000E+01  0.1000E+01
    -29.957  0.0000E+00  0.0000E+00  0.1000E+01  0.1000E+01
    -29.789  0.0000E+00  0.0000E+00  0.1000E+01  0.1000E+01
    -29.622  0.0000E+00  0.0000E+00  0.1000E+01  0.1000E+01
    -29.454  0.0000E+00  0.0000E+00  0.1000E+01  0.1000E+01
    -29.286  0.0000E+00  0.0000E+00  0.1000E+01  0.1000E+01
    -29.119  0.0000E+00  0.0000E+00  0.1000E+01  0.1000E+01
    -28.951  0.0000E+00  0.0000E+00  0.1000E+01  0.1000E+01
    -28.784  0.0000E+00  0.0000E+00  0.1000E+01  0.1000E+01
    -28.616  0.0000E+00  0.0000E+00  0.1000E+01  0.1000E+01
    -28.448  0.0000E+00  0.0000E+00  0.1000E+01  0.1000E+01
    -28.281  0.0000E+00  0.0000E+00  0.1000E+01  0.1000E+01
    -28.113  0.0000E+00  0.0000E+00  0.1000E+01  0.1000E+01
    -27.946  0.0000E+00  0.0000E+00  0.1000E+01  0.1000E+01
    -27.778  0.0000E+00  0.0000E+00  0.1000E+01  0.1000E+01
    -27.610  0.0000E+00  0.0000E+00  0.1000E+01  0.1000E+01
    -27.443  0.0000E+00  0.0000E+00  0.1000E+01  0.1000E+01
    -27.275  0.0000E+00  0.0000E+00  0.1000E+01  0.1000E+01
    -27.107  0.0000E+00  0.0000E+00  0.1000E+01  0.1000E+01
    -26.940  0.0000E+00  0.0000E+00  0.1000E+01  0.1000E+01
    -26.772  0.0000E+00  0.0000E+00  0.1000E+01  0.1000E+01
    -26.605  0.0000E+00  0.0000E+00  0.1000E+01  0.1000E+01
    -26.437  0.0000E+00  0.0000E+00  0.1000E+01  0.1000E+01
    -26.269  0.0000E+00  0.0000E+00  0.1000E+01  0.1000E+01
    -26.102  0.0000E+00  0.0000E+00  0.1000E+01  0.1000E+01
    -25.934  0.0000E+00  0.0000E+00  0.1000E+01  0.1000E+01
    -25.767  0.0000E+00  0.0000E+00  0.1000E+01  0.1000E+01
    -25.599  0.0000E+00  0.0000E+00  0.1000E+01  0.1000E+01
    -25.431  0.0000E+00  0.0000E+00  0.1000E+01  0.1000E+01
    -25.264  0.0000E+00  0.0000E+00  0.1000E+01  0.1000E+01
    -25.096  0.0000E+00  0.0000E+00  0.1000E+01  0.1000E+01
    -24.929  0.0000E+00  0.0000E+00  0.1000E+01  0.1000E+01
    -24.761  0.0000E+00  0.0000E+00  0.1000E+01  0.1000E+01
    -24.593  0.0000E+00  0.0000E+00  0.1000E+01  0.1000E+01
    -24.426  0.0000E+00  0.0000E+00  0.1000E+01  0.1000E+01
    -24.258  0.0000E+00  0.0000E+00  0.1000E+01  0.1000E+01
    -24.091  0.0000E+00  0.0000E+00  0.1000E+01  0.1000E+01
    -23.923  0.0000E+00  0.0000E+00  0.1000E+01  0.1000E+01
    -23.755  0.0000E+00  0.0000E+00  0.1000E+01  0.1000E+01
    -23.588  0.0000E+00  0.0000E+00  0.1000E+01  0.1000E+01
    -23.420  0.0000E+00  0.0000E+00  0.1000E+01  0.1000E+01
    -23.253  0.0000E+00  0.0000E+00  0.1000E+01  0.1000E+01
    -23.085  0.0000E+00  0.0000E+00  0.1000E+01  0.1000E+01
    -22.917  0.0000E+00  0.0000E+00  0.1000E+01  0.1000E+01
    -22.750  0.0000E+00  0.0000E+00  0.1000E+01  0.1000E+01
    -22.582  0.0000E+00  0.0000E+00  0.1000E+01  0.1000E+01
    -22.415  0.0000E+00  0.0000E+00  0.1000E+01  0.1000E+01
    -22.247  0.0000E+00  0.0000E+00  0.1000E+01  0.1000E+01
    -22.079  0.0000E+00  0.0000E+00  0.1000E+01  0.1000E+01
    -21.912  0.0000E+00  0.0000E+00  0.1000E+01  0.1000E+01
    -21.744  0.0000E+00  0.0000E+00  0.1000E+01  0.1000E+01
    -21.576  0.0000E+00  0.0000E+00  0.1000E+01  0.1000E+01
    -21.409  0.0000E+00  0.0000E+00  0.1000E+01  0.1000E+01
    -21.241  0.0000E+00  0.0000E+00  0.1000E+01  0.1000E+01
    -21.074  0.0000E+00  0.0000E+00  0.1000E+01  0.1000E+01
    -20.906  0.0000E+00  0.0000E+00  0.1000E+01  0.1000E+01
    -20.738  0.0000E+00  0.0000E+00  0.1000E+01  0.1000E+01
    -20.571  0.0000E+00  0.0000E+00  0.1000E+01  0.1000E+01
    -20.403  0.0000E+00  0.0000E+00  0.1000E+01  0.1000E+01
    -20.236  0.0000E+00  0.0000E+00  0.1000E+01  0.1000E+01
    -20.068  0.0000E+00  0.0000E+00  0.1000E+01  0.1000E+01
    -19.900  0.0000E+00  0.0000E+00  0.1000E+01  0.1000E+01
    -19.733  0.0000E+00  0.0000E+00  0.1000E+01  0.1000E+01
    -19.565  0.0000E+00  0.0000E+00  0.1000E+01  0.1000E+01
    -19.398  0.0000E+00  0.0000E+00  0.1000E+01  0.1000E+01
    -19.230  0.0000E+00  0.0000E+00  0.1000E+01  0.1000E+01
    -19.062  0.0000E+00  0.0000E+00  0.1000E+01  0.1000E+01
    -18.895  0.0000E+00  0.0000E+00  0.1000E+01  0.1000E+01
    -18.727  0.0000E+00  0.0000E+00  0.1000E+01  0.1000E+01
    -18.560  0.0000E+00  0.0000E+00  0.1000E+01  0.1000E+01
    -18.392  0.0000E+00  0.0000E+00  0.1000E+01  0.1000E+01
    -18.224  0.0000E+00  0.0000E+00  0.1000E+01  0.1000E+01
    -18.057  0.0000E+00  0.0000E+00  0.1000E+01  0.1000E+01
    -17.889  0.0000E+00  0.0000E+00  0.1000E+01  0.1000E+01
    -17.722  0.0000E+00  0.0000E+00  0.1000E+01  0.1000E+01
    -17.554  0.0000E+00  0.0000E+00  0.1000E+01  0.1000E+01
    -17.386  0.0000E+00  0.0000E+00  0.1000E+01  0.1000E+01
    -17.219  0.3931E-02  0.3799E-02  0.1001E+01  0.1001E+01
    -17.051  0.1077E+00  0.1041E+00  0.1019E+01  0.1018E+01
    -16.884  0.2597E+01  0.2524E+01  0.1454E+01  0.1441E+01
    -16.716  0.1220E+02  0.1219E+02  0.3498E+01  0.3484E+01
    -16.548  0.2868E+01  0.2950E+01  0.3979E+01  0.3978E+01
    -16.381  0.0000E+00  0.1403E-02  0.4000E+01  0.4000E+01
    -16.213  0.0000E+00  0.0000E+00  0.4000E+01  0.4000E+01
    -16.046  0.0000E+00  0.0000E+00  0.4000E+01  0.4000E+01
    -15.878  0.0000E+00  0.0000E+00  0.4000E+01  0.4000E+01
    -15.710  0.0000E+00  0.0000E+00  0.4000E+01  0.4000E+01
    -15.543  0.0000E+00  0.0000E+00  0.4000E+01  0.4000E+01
    -15.375  0.0000E+00  0.0000E+00  0.4000E+01  0.4000E+01
    -15.207  0.0000E+00  0.0000E+00  0.4000E+01  0.4000E+01
    -15.040  0.0000E+00  0.0000E+00  0.4000E+01  0.4000E+01
    -14.872  0.0000E+00  0.0000E+00  0.4000E+01  0.4000E+01
    -14.705  0.0000E+00  0.0000E+00  0.4000E+01  0.4000E+01
    -14.537  0.0000E+00  0.0000E+00  0.4000E+01  0.4000E+01
    -14.369  0.0000E+00  0.0000E+00  0.4000E+01  0.4000E+01
    -14.202  0.0000E+00  0.0000E+00  0.4000E+01  0.4000E+01
    -14.034  0.0000E+00  0.0000E+00  0.4000E+01  0.4000E+01
    -13.867  0.0000E+00  0.0000E+00  0.4000E+01  0.4000E+01
    -13.699  0.0000E+00  0.0000E+00  0.4000E+01  0.4000E+01
    -13.531  0.0000E+00  0.0000E+00  0.4000E+01  0.4000E+01
    -13.364  0.0000E+00  0.0000E+00  0.4000E+01  0.4000E+01
    -13.196  0.0000E+00  0.0000E+00  0.4000E+01  0.4000E+01
    -13.029  0.0000E+00  0.0000E+00  0.4000E+01  0.4000E+01
    -12.861  0.0000E+00  0.0000E+00  0.4000E+01  0.4000E+01
    -12.693  0.0000E+00  0.0000E+00  0.4000E+01  0.4000E+01
    -12.526  0.0000E+00  0.0000E+00  0.4000E+01  0.4000E+01
    -12.358  0.0000E+00  0.0000E+00  0.4000E+01  0.4000E+01
    -12.191  0.0000E+00  0.0000E+00  0.4000E+01  0.4000E+01
    -12.023  0.0000E+00  0.0000E+00  0.4000E+01  0.4000E+01
    -11.855  0.0000E+00  0.0000E+00  0.4000E+01  0.4000E+01
    -11.688  0.0000E+00  0.0000E+00  0.4000E+01  0.4000E+01
    -11.520  0.0000E+00  0.0000E+00  0.4000E+01  0.4000E+01
    -11.353  0.0000E+00  0.0000E+00  0.4000E+01  0.4000E+01
    -11.185  0.0000E+00  0.0000E+00  0.4000E+01  0.4000E+01
    -11.017  0.0000E+00  0.0000E+00  0.4000E+01  0.4000E+01
    -10.850  0.0000E+00  0.0000E+00  0.4000E+01  0.4000E+01
    -10.682  0.0000E+00  0.0000E+00  0.4000E+01  0.4000E+01
    -10.515  0.0000E+00  0.0000E+00  0.4000E+01  0.4000E+01
    -10.347  0.0000E+00  0.0000E+00  0.4000E+01  0.4000E+01
    -10.179  0.0000E+00  0.0000E+00  0.4000E+01  0.4000E+01
    -10.012  0.0000E+00  0.0000E+00  0.4000E+01  0.4000E+01
     -9.844  0.0000E+00  0.0000E+00  0.4000E+01  0.4000E+01
     -9.676  0.0000E+00  0.0000E+00  0.4000E+01  0.4000E+01
     -9.509  0.0000E+00  0.0000E+00  0.4000E+01  0.4000E+01
     -9.341  0.0000E+00  0.0000E+00  0.4000E+01  0.4000E+01
     -9.174  0.0000E+00  0.0000E+00  0.4000E+01  0.4000E+01
     -9.006  0.0000E+00  0.0000E+00  0.4000E+01  0.4000E+01
     -8.838  0.0000E+00  0.0000E+00  0.4000E+01  0.4000E+01
     -8.671  0.0000E+00  0.0000E+00  0.4000E+01  0.4000E+01
     -8.503  0.0000E+00  0.0000E+00  0.4000E+01  0.4000E+01
     -8.336  0.0000E+00  0.0000E+00  0.4000E+01  0.4000E+01
     -8.168  0.0000E+00  0.0000E+00  0.4000E+01  0.4000E+01
     -8.000  0.0000E+00  0.0000E+00  0.4000E+01  0.4000E+01
     -7.833  0.0000E+00  0.0000E+00  0.4000E+01  0.4000E+01
     -7.665  0.0000E+00  0.0000E+00  0.4000E+01  0.4000E+01
     -7.498  0.0000E+00  0.0000E+00  0.4000E+01  0.4000E+01
     -7.330  0.0000E+00  0.0000E+00  0.4000E+01  0.4000E+01
     -7.162  0.0000E+00  0.0000E+00  0.4000E+01  0.4000E+01
     -6.995  0.0000E+00  0.0000E+00  0.4000E+01  0.4000E+01
     -6.827  0.0000E+00  0.0000E+00  0.4000E+01  0.4000E+01
     -6.660  0.0000E+00  0.0000E+00  0.4000E+01  0.4000E+01
     -6.492  0.0000E+00  0.0000E+00  0.4000E+01  0.4000E+01
     -6.324  0.0000E+00  0.0000E+00  0.4000E+01  0.4000E+01
     -6.157  0.0000E+00  0.0000E+00  0.4000E+01  0.4000E+01
     -5.989  0.0000E+00  0.0000E+00  0.4000E+01  0.4000E+01
     -5.822  0.0000E+00  0.0000E+00  0.4000E+01  0.4000E+01
     -5.654  0.0000E+00  0.0000E+00  0.4000E+01  0.4000E+01
     -5.486  0.0000E+00  0.0000E+00  0.4000E+01  0.4000E+01
     -5.319  0.0000E+00  0.0000E+00  0.4000E+01  0.4000E+01
     -5.151  0.0000E+00  0.0000E+00  0.4000E+01  0.4000E+01
     -4.984  0.0000E+00  0.0000E+00  0.4000E+01  0.4000E+01
     -4.816  0.0000E+00  0.0000E+00  0.4000E+01  0.4000E+01
     -4.648  0.0000E+00  0.0000E+00  0.4000E+01  0.4000E+01
     -4.481  0.0000E+00  0.0000E+00  0.4000E+01  0.4000E+01
     -4.313  0.0000E+00  0.0000E+00  0.4000E+01  0.4000E+01
     -4.145  0.0000E+00  0.0000E+00  0.4000E+01  0.4000E+01
     -3.978  0.2130E-05  0.2147E-05  0.4000E+01  0.4000E+01
     -3.810  0.7159E-04  0.7213E-04  0.4000E+01  0.4000E+01
     -3.643  0.1961E-02  0.1976E-02  0.4000E+01  0.4000E+01
     -3.475  0.3084E-01  0.3098E-01  0.4006E+01  0.4006E+01
     -3.307  0.1116E+00  0.1118E+00  0.4024E+01  0.4024E+01
     -3.140  0.1719E+00  0.1720E+00  0.4053E+01  0.4053E+01
     -2.972  0.2266E+00  0.2267E+00  0.4091E+01  0.4091E+01
     -2.805  0.2566E+00  0.2567E+00  0.4134E+01  0.4134E+01
     -2.637  0.3196E+00  0.3196E+00  0.4188E+01  0.4188E+01
     -2.469  0.3211E+00  0.3212E+00  0.4242E+01  0.4242E+01
     -2.302  0.4126E+00  0.4126E+00  0.4311E+01  0.4311E+01
     -2.134  0.4203E+00  0.4203E+00  0.4381E+01  0.4382E+01
     -1.967  0.5236E+00  0.5234E+00  0.4469E+01  0.4469E+01
     -1.799  0.5170E+00  0.5170E+00  0.4556E+01  0.4556E+01
     -1.631  0.4585E+00  0.4583E+00  0.4633E+01  0.4633E+01
     -1.464  0.4505E+00  0.4505E+00  0.4709E+01  0.4709E+01
     -1.296  0.3508E+00  0.3507E+00  0.4768E+01  0.4768E+01
     -1.129  0.4454E+00  0.4458E+00  0.4843E+01  0.4843E+01
     -0.961  0.4510E+00  0.4511E+00  0.4919E+01  0.4919E+01
     -0.793  0.4789E+00  0.4789E+00  0.4999E+01  0.4999E+01
     -0.626  0.4723E+00  0.4725E+00  0.5079E+01  0.5079E+01
     -0.458  0.5769E+00  0.5770E+00  0.5175E+01  0.5176E+01
     -0.291  0.5762E+00  0.5762E+00  0.5272E+01  0.5272E+01
     -0.123  0.6386E+00  0.6385E+00  0.5379E+01  0.5379E+01
      0.045  0.8519E+00  0.8521E+00  0.5522E+01  0.5522E+01
      0.212  0.8628E+00  0.8626E+00  0.5667E+01  0.5667E+01
      0.380  0.8400E+00  0.8400E+00  0.5808E+01  0.5809E+01
      0.547  0.8370E+00  0.8367E+00  0.5949E+01  0.5949E+01
      0.715  0.6705E+00  0.6707E+00  0.6062E+01  0.6062E+01
      0.883  0.8226E+00  0.8227E+00  0.6200E+01  0.6201E+01
      1.050  0.7033E+00  0.7030E+00  0.6319E+01  0.6319E+01
      1.218  0.4943E+00  0.4943E+00  0.6402E+01  0.6402E+01
      1.385  0.5085E+00  0.5085E+00  0.6487E+01  0.6487E+01
      1.553  0.5318E+00  0.5318E+00  0.6577E+01  0.6577E+01
      1.721  0.5043E+00  0.5048E+00  0.6661E+01  0.6662E+01
      1.888  0.5271E+00  0.5271E+00  0.6750E+01  0.6750E+01
      2.056  0.5192E+00  0.5201E+00  0.6837E+01  0.6837E+01
      2.224  0.7511E+00  0.7515E+00  0.6963E+01  0.6964E+01
      2.391  0.7849E+00  0.7850E+00  0.7095E+01  0.7095E+01
      2.559  0.8738E+00  0.8744E+00  0.7242E+01  0.7242E+01
      2.726  0.8932E+00  0.8932E+00  0.7392E+01  0.7392E+01
      2.894  0.8643E+00  0.8645E+00  0.7537E+01  0.7537E+01
      3.062  0.1028E+01  0.1028E+01  0.7710E+01  0.7710E+01
      3.229  0.1042E+01  0.1044E+01  0.7885E+01  0.7885E+01
      3.397  0.1155E+01  0.1155E+01  0.8079E+01  0.8080E+01
      3.564  0.1060E+01  0.1061E+01  0.8257E+01  0.8258E+01
      3.732  0.1329E+01  0.1330E+01  0.8480E+01  0.8481E+01
      3.900  0.1273E+01  0.1272E+01  0.8694E+01  0.8695E+01
      4.067  0.1255E+01  0.1255E+01  0.8905E+01  0.8906E+01
      4.235  0.9846E+00  0.9836E+00  0.9071E+01  0.9072E+01
      4.402  0.1057E+01  0.1058E+01  0.9249E+01  0.9250E+01
      4.570  0.1008E+01  0.1007E+01  0.9418E+01  0.9419E+01
      4.738  0.6939E+00  0.6927E+00  0.9535E+01  0.9535E+01
      4.905  0.6838E+00  0.6851E+00  0.9650E+01  0.9651E+01
      5.073  0.9790E+00  0.9800E+00  0.9815E+01  0.9815E+01
      5.240  0.1206E+01  0.1206E+01  0.1002E+02  0.1002E+02
      5.408  0.1049E+01  0.1049E+01  0.1019E+02  0.1019E+02
      5.576  0.8569E+00  0.8566E+00  0.1034E+02  0.1034E+02
      5.743  0.1084E+01  0.1084E+01  0.1052E+02  0.1052E+02
      5.911  0.1144E+01  0.1144E+01  0.1071E+02  0.1071E+02
      6.078  0.1020E+01  0.1019E+01  0.1088E+02  0.1088E+02
      6.246  0.8681E+00  0.8684E+00  0.1103E+02  0.1103E+02
      6.414  0.9047E+00  0.9042E+00  0.1118E+02  0.1118E+02
      6.581  0.9754E+00  0.9770E+00  0.1135E+02  0.1135E+02
      6.749  0.1147E+01  0.1146E+01  0.1154E+02  0.1154E+02
      6.916  0.1045E+01  0.1046E+01  0.1171E+02  0.1171E+02
      7.084  0.1156E+01  0.1155E+01  0.1191E+02  0.1191E+02
      7.252  0.9993E+00  0.1000E+01  0.1208E+02  0.1208E+02
      7.419  0.1139E+01  0.1140E+01  0.1227E+02  0.1227E+02
      7.587  0.1396E+01  0.1399E+01  0.1250E+02  0.1250E+02
      7.755  0.1694E+01  0.1695E+01  0.1279E+02  0.1279E+02
      7.922  0.1781E+01  0.1780E+01  0.1309E+02  0.1309E+02
      8.090  0.1918E+01  0.1918E+01  0.1341E+02  0.1341E+02
      8.257  0.1978E+01  0.1977E+01  0.1374E+02  0.1374E+02
      8.425  0.2000E+01  0.1998E+01  0.1408E+02  0.1408E+02
      8.593  0.1928E+01  0.1921E+01  0.1440E+02  0.1440E+02
      8.760  0.1887E+01  0.1890E+01  0.1472E+02  0.1472E+02
      8.928  0.2183E+01  0.2165E+01  0.1508E+02  0.1508E+02
      9.095  0.2129E+01  0.2105E+01  0.1544E+02  0.1543E+02
      9.263  0.1416E+01  0.1388E+01  0.1568E+02  0.1567E+02
      9.431  0.7757E+00  0.8330E+00  0.1581E+02  0.1581E+02
      9.598  0.4415E+00  0.4559E+00  0.1589E+02  0.1589E+02
      9.766  0.3512E+00  0.3443E+00  0.1595E+02  0.1594E+02
      9.933  0.2401E+00  0.2391E+00  0.1599E+02  0.1598E+02
     10.101  0.7996E-01  0.8683E-01  0.1600E+02  0.1600E+02
     10.269  0.5481E-02  0.5822E-02  0.1600E+02  0.1600E+02
     10.436  0.0000E+00  0.0000E+00  0.1600E+02  0.1600E+02
     10.604  0.0000E+00  0.0000E+00  0.1600E+02  0.1600E+02
     10.771  0.0000E+00  0.0000E+00  0.1600E+02  0.1600E+02
     10.939  0.0000E+00  0.0000E+00  0.1600E+02  0.1600E+02
     11.107  0.0000E+00  0.0000E+00  0.1600E+02  0.1600E+02
     11.274  0.0000E+00  0.0000E+00  0.1600E+02  0.1600E+02
     11.442  0.0000E+00  0.0000E+00  0.1600E+02  0.1600E+02
     11.609  0.0000E+00  0.0000E+00  0.1600E+02  0.1600E+02
     11.777  0.0000E+00  0.0000E+00  0.1600E+02  0.1600E+02
     11.945  0.0000E+00  0.0000E+00  0.1600E+02  0.1600E+02
     12.112  0.0000E+00  0.0000E+00  0.1600E+02  0.1600E+02
     12.280  0.0000E+00  0.0000E+00  0.1600E+02  0.1600E+02
     12.27986720    -38.00185223  301      4.67890915      1.00000000
    -38.002  0.0000E+00  0.0000E+00  0.0000E+00  0.0000E+00  0.0000E+00  0.0000E+00  0.0000E+00  0.0000E+00  0.0000E+00  0.0000E+00  0.0000E+00  0.0000E+00  0.0000E+00  0.0000E+00  0.0000E+00  0.0000E+00  0.0000E+00  0.0000E+00
    -37.834  0.0000E+00  0.0000E+00  0.0000E+00  0.0000E+00  0.0000E+00  0.0000E+00  0.0000E+00  0.0000E+00  0.0000E+00  0.0000E+00  0.0000E+00  0.0000E+00  0.0000E+00  0.0000E+00  0.0000E+00  0.0000E+00  0.0000E+00  0.0000E+00
    -37.667  0.0000E+00  0.0000E+00  0.0000E+00  0.0000E+00  0.0000E+00  0.0000E+00  0.0000E+00  0.0000E+00  0.0000E+00  0.0000E+00  0.0000E+00  0.0000E+00  0.0000E+00  0.0000E+00  0.0000E+00  0.0000E+00  0.0000E+00  0.0000E+00
    -37.499  0.0000E+00  0.0000E+00  0.0000E+00  0.0000E+00  0.0000E+00  0.0000E+00  0.0000E+00  0.0000E+00  0.0000E+00  0.0000E+00  0.0000E+00  0.0000E+00  0.0000E+00  0.0000E+00  0.0000E+00  0.0000E+00  0.0000E+00  0.0000E+00
    -37.331  0.0000E+00  0.0000E+00  0.0000E+00  0.0000E+00  0.0000E+00  0.0000E+00  0.0000E+00  0.0000E+00  0.0000E+00  0.0000E+00  0.0000E+00  0.0000E+00  0.0000E+00  0.0000E+00  0.0000E+00  0.0000E+00  0.0000E+00  0.0000E+00
    -37.164  0.0000E+00  0.0000E+00  0.0000E+00  0.0000E+00  0.0000E+00  0.0000E+00  0.0000E+00  0.0000E+00  0.0000E+00  0.0000E+00  0.0000E+00  0.0000E+00  0.0000E+00  0.0000E+00  0.0000E+00  0.0000E+00  0.0000E+00  0.0000E+00
    -36.996  0.0000E+00  0.0000E+00  0.0000E+00  0.0000E+00  0.0000E+00  0.0000E+00  0.0000E+00  0.0000E+00  0.0000E+00  0.0000E+00  0.0000E+00  0.0000E+00  0.0000E+00  0.0000E+00  0.0000E+00  0.0000E+00  0.0000E+00  0.0000E+00
    -36.829  0.0000E+00  0.0000E+00  0.0000E+00  0.0000E+00  0.0000E+00  0.0000E+00  0.0000E+00  0.0000E+00  0.0000E+00  0.0000E+00  0.0000E+00  0.0000E+00  0.0000E+00  0.0000E+00  0.0000E+00  0.0000E+00  0.0000E+00  0.0000E+00
    -36.661  0.0000E+00  0.0000E+00  0.0000E+00  0.0000E+00  0.0000E+00  0.0000E+00  0.0000E+00  0.0000E+00  0.0000E+00  0.0000E+00  0.0000E+00  0.0000E+00  0.0000E+00  0.0000E+00  0.0000E+00  0.0000E+00  0.0000E+00  0.0000E+00
    -36.493  0.0000E+00  0.0000E+00  0.0000E+00  0.0000E+00  0.0000E+00  0.0000E+00  0.0000E+00  0.0000E+00  0.0000E+00  0.0000E+00  0.0000E+00  0.0000E+00  0.0000E+00  0.0000E+00  0.0000E+00  0.0000E+00  0.0000E+00  0.0000E+00
    -36.326  0.0000E+00  0.0000E+00  0.0000E+00  0.0000E+00  0.0000E+00  0.0000E+00  0.0000E+00  0.0000E+00  0.0000E+00  0.0000E+00  0.0000E+00  0.0000E+00  0.0000E+00  0.0000E+00  0.0000E+00  0.0000E+00  0.0000E+00  0.0000E+00
    -36.158  0.8333E-03  0.8085E-03  0.7087E-12  0.8852E-12  0.7087E-12  0.8852E-12  0.7144E-12  0.8852E-12  0.1183E-14  0.2743E-13  0.1230E-14  0.2618E-13  0.4370E-12  0.5818E-12  0.1183E-14  0.2743E-13  0.4356E-12  0.5837E-12
    -35.991  0.2288E-01  0.2220E-01  0.1946E-10  0.2430E-10  0.1946E-10  0.2430E-10  0.1961E-10  0.2430E-10  0.3248E-13  0.7531E-12  0.3378E-13  0.7188E-12  0.1200E-10  0.1597E-10  0.3248E-13  0.7531E-12  0.1196E-10  0.1602E-10
    -35.823  0.5858E+00  0.5701E+00  0.4982E-09  0.6243E-09  0.4982E-09  0.6243E-09  0.5022E-09  0.6242E-09  0.8322E-12  0.1935E-10  0.8653E-12  0.1847E-10  0.3072E-09  0.4103E-09  0.8322E-12  0.1935E-10  0.3062E-09  0.4116E-09
    -35.655  0.3904E+01  0.3888E+01  0.3320E-08  0.4259E-08  0.3320E-08  0.4259E-08  0.3346E-08  0.4258E-08  0.5565E-11  0.1320E-09  0.5787E-11  0.1260E-09  0.2049E-08  0.2799E-08  0.5565E-11  0.1320E-09  0.2040E-08  0.2805E-08
    -35.488  0.1305E+01  0.1335E+01  0.1110E-08  0.1463E-08  0.1110E-08  0.1463E-08  0.1118E-08  0.1463E-08  0.1867E-11  0.4536E-10  0.1942E-11  0.4331E-10  0.6852E-09  0.9610E-09  0.1867E-11  0.4536E-10  0.6818E-09  0.9625E-09
    -35.320  0.5949E-01  0.6129E-01  0.5059E-10  0.6719E-10  0.5059E-10  0.6719E-10  0.5099E-10  0.6716E-10  0.8522E-13  0.2084E-11  0.8864E-13  0.1989E-11  0.3124E-10  0.4413E-10  0.8522E-13  0.2084E-11  0.3108E-10  0.4419E-10
    -35.153  0.0000E+00  0.0000E+00  0.0000E+00  0.0000E+00  0.0000E+00  0.0000E+00  0.0000E+00  0.0000E+00  0.0000E+00  0.0000E+00  0.0000E+00  0.0000E+00  0.0000E+00  0.0000E+00  0.0000E+00  0.0000E+00  0.0000E+00  0.0000E+00
    -34.985  0.0000E+00  0.0000E+00  0.0000E+00  0.0000E+00  0.0000E+00  0.0000E+00  0.0000E+00  0.0000E+00  0.0000E+00  0.0000E+00  0.0000E+00  0.0000E+00  0.0000E+00  0.0000E+00  0.0000E+00  0.0000E+00  0.0000E+00  0.0000E+00
    -34.817  0.0000E+00  0.0000E+00  0.0000E+00  0.0000E+00  0.0000E+00  0.0000E+00  0.0000E+00  0.0000E+00  0.0000E+00  0.0000E+00  0.0000E+00  0.0000E+00  0.0000E+00  0.0000E+00  0.0000E+00  0.0000E+00  0.0000E+00  0.0000E+00
    -34.650  0.0000E+00  0.0000E+00  0.0000E+00  0.0000E+00  0.0000E+00  0.0000E+00  0.0000E+00  0.0000E+00  0.0000E+00  0.0000E+00  0.0000E+00  0.0000E+00  0.0000E+00  0.0000E+00  0.0000E+00  0.0000E+00  0.0000E+00  0.0000E+00
    -34.482  0.0000E+00  0.0000E+00  0.0000E+00  0.0000E+00  0.0000E+00  0.0000E+00  0.0000E+00  0.0000E+00  0.0000E+00  0.0000E+00  0.0000E+00  0.0000E+00  0.0000E+00  0.0000E+00  0.0000E+00  0.0000E+00  0.0000E+00  0.0000E+00
    -34.315  0.0000E+00  0.0000E+00  0.0000E+00  0.0000E+00  0.0000E+00  0.0000E+00  0.0000E+00  0.0000E+00  0.0000E+00  0.0000E+00  0.0000E+00  0.0000E+00  0.0000E+00  0.0000E+00  0.0000E+00  0.0000E+00  0.0000E+00  0.0000E+00
    -34.147  0.0000E+00  0.0000E+00  0.0000E+00  0.0000E+00  0.0000E+00  0.0000E+00  0.0000E+00  0.0000E+00  0.0000E+00  0.0000E+00  0.0000E+00  0.0000E+00  0.0000E+00  0.0000E+00  0.0000E+00  0.0000E+00  0.0000E+00  0.0000E+00
    -33.979  0.0000E+00  0.0000E+00  0.0000E+00  0.0000E+00  0.0000E+00  0.0000E+00  0.0000E+00  0.0000E+00  0.0000E+00  0.0000E+00  0.0000E+00  0.0000E+00  0.0000E+00  0.0000E+00  0.0000E+00  0.0000E+00  0.0000E+00  0.0000E+00
    -33.812  0.0000E+00  0.0000E+00  0.0000E+00  0.0000E+00  0.0000E+00  0.0000E+00  0.0000E+00  0.0000E+00  0.0000E+00  0.0000E+00  0.0000E+00  0.0000E+00  0.0000E+00  0.0000E+00  0.0000E+00  0.0000E+00  0.0000E+00  0.0000E+00
    -33.644  0.0000E+00  0.0000E+00  0.0000E+00  0.0000E+00  0.0000E+00  0.0000E+00  0.0000E+00  0.0000E+00  0.0000E+00  0.0000E+00  0.0000E+00  0.0000E+00  0.0000E+00  0.0000E+00  0.0000E+00  0.0000E+00  0.0000E+00  0.0000E+00
    -33.476  0.0000E+00  0.0000E+00  0.0000E+00  0.0000E+00  0.0000E+00  0.0000E+00  0.0000E+00  0.0000E+00  0.0000E+00  0.0000E+00  0.0000E+00  0.0000E+00  0.0000E+00  0.0000E+00  0.0000E+00  0.0000E+00  0.0000E+00  0.0000E+00
    -33.309  0.0000E+00  0.0000E+00  0.0000E+00  0.0000E+00  0.0000E+00  0.0000E+00  0.0000E+00  0.0000E+00  0.0000E+00  0.0000E+00  0.0000E+00  0.0000E+00  0.0000E+00  0.0000E+00  0.0000E+00  0.0000E+00  0.0000E+00  0.0000E+00
    -33.141  0.0000E+00  0.0000E+00  0.0000E+00  0.0000E+00  0.0000E+00  0.0000E+00  0.0000E+00  0.0000E+00  0.0000E+00  0.0000E+00  0.0000E+00  0.0000E+00  0.0000E+00  0.0000E+00  0.0000E+00  0.0000E+00  0.0000E+00  0.0000E+00
    -32.974  0.0000E+00  0.0000E+00  0.0000E+00  0.0000E+00  0.0000E+00  0.0000E+00  0.0000E+00  0.0000E+00  0.0000E+00  0.0000E+00  0.0000E+00  0.0000E+00  0.0000E+00  0.0000E+00  0.0000E+00  0.0000E+00  0.0000E+00  0.0000E+00
    -32.806  0.0000E+00  0.0000E+00  0.0000E+00  0.0000E+00  0.0000E+00  0.0000E+00  0.0000E+00  0.0000E+00  0.0000E+00  0.0000E+00  0.0000E+00  0.0000E+00  0.0000E+00  0.0000E+00  0.0000E+00  0.0000E+00  0.0000E+00  0.0000E+00
    -32.638  0.0000E+00  0.0000E+00  0.0000E+00  0.0000E+00  0.0000E+00  0.0000E+00  0.0000E+00  0.0000E+00  0.0000E+00  0.0000E+00  0.0000E+00  0.0000E+00  0.0000E+00  0.0000E+00  0.0000E+00  0.0000E+00  0.0000E+00  0.0000E+00
    -32.471  0.0000E+00  0.0000E+00  0.0000E+00  0.0000E+00  0.0000E+00  0.0000E+00  0.0000E+00  0.0000E+00  0.0000E+00  0.0000E+00  0.0000E+00  0.0000E+00  0.0000E+00  0.0000E+00  0.0000E+00  0.0000E+00  0.0000E+00  0.0000E+00
    -32.303  0.0000E+00  0.0000E+00  0.0000E+00  0.0000E+00  0.0000E+00  0.0000E+00  0.0000E+00  0.0000E+00  0.0000E+00  0.0000E+00  0.0000E+00  0.0000E+00  0.0000E+00  0.0000E+00  0.0000E+00  0.0000E+00  0.0000E+00  0.0000E+00
    -32.136  0.0000E+00  0.0000E+00  0.0000E+00  0.0000E+00  0.0000E+00  0.0000E+00  0.0000E+00  0.0000E+00  0.0000E+00  0.0000E+00  0.0000E+00  0.0000E+00  0.0000E+00  0.0000E+00  0.0000E+00  0.0000E+00  0.0000E+00  0.0000E+00
    -31.968  0.0000E+00  0.0000E+00  0.0000E+00  0.0000E+00  0.0000E+00  0.0000E+00  0.0000E+00  0.0000E+00  0.0000E+00  0.0000E+00  0.0000E+00  0.0000E+00  0.0000E+00  0.0000E+00  0.0000E+00  0.0000E+00  0.0000E+00  0.0000E+00
    -31.800  0.0000E+00  0.0000E+00  0.0000E+00  0.0000E+00  0.0000E+00  0.0000E+00  0.0000E+00  0.0000E+00  0.0000E+00  0.0000E+00  0.0000E+00  0.0000E+00  0.0000E+00  0.0000E+00  0.0000E+00  0.0000E+00  0.0000E+00  0.0000E+00
    -31.633  0.0000E+00  0.0000E+00  0.0000E+00  0.0000E+00  0.0000E+00  0.0000E+00  0.0000E+00  0.0000E+00  0.0000E+00  0.0000E+00  0.0000E+00  0.0000E+00  0.0000E+00  0.0000E+00  0.0000E+00  0.0000E+00  0.0000E+00  0.0000E+00
    -31.465  0.0000E+00  0.0000E+00  0.0000E+00  0.0000E+00  0.0000E+00  0.0000E+00  0.0000E+00  0.0000E+00  0.0000E+00  0.0000E+00  0.0000E+00  0.0000E+00  0.0000E+00  0.0000E+00  0.0000E+00  0.0000E+00  0.0000E+00  0.0000E+00
    -31.298  0.0000E+00  0.0000E+00  0.0000E+00  0.0000E+00  0.0000E+00  0.0000E+00  0.0000E+00  0.0000E+00  0.0000E+00  0.0000E+00  0.0000E+00  0.0000E+00  0.0000E+00  0.0000E+00  0.0000E+00  0.0000E+00  0.0000E+00  0.0000E+00
    -31.130  0.0000E+00  0.0000E+00  0.0000E+00  0.0000E+00  0.0000E+00  0.0000E+00  0.0000E+00  0.0000E+00  0.0000E+00  0.0000E+00  0.0000E+00  0.0000E+00  0.0000E+00  0.0000E+00  0.0000E+00  0.0000E+00  0.0000E+00  0.0000E+00
    -30.962  0.0000E+00  0.0000E+00  0.0000E+00  0.0000E+00  0.0000E+00  0.0000E+00  0.0000E+00  0.0000E+00  0.0000E+00  0.0000E+00  0.0000E+00  0.0000E+00  0.0000E+00  0.0000E+00  0.0000E+00  0.0000E+00  0.0000E+00  0.0000E+00
    -30.795  0.0000E+00  0.0000E+00  0.0000E+00  0.0000E+00  0.0000E+00  0.0000E+00  0.0000E+00  0.0000E+00  0.0000E+00  0.0000E+00  0.0000E+00  0.0000E+00  0.0000E+00  0.0000E+00  0.0000E+00  0.0000E+00  0.0000E+00  0.0000E+00
    -30.627  0.0000E+00  0.0000E+00  0.0000E+00  0.0000E+00  0.0000E+00  0.0000E+00  0.0000E+00  0.0000E+00  0.0000E+00  0.0000E+00  0.0000E+00  0.0000E+00  0.0000E+00  0.0000E+00  0.0000E+00  0.0000E+00  0.0000E+00  0.0000E+00
    -30.460  0.0000E+00  0.0000E+00  0.0000E+00  0.0000E+00  0.0000E+00  0.0000E+00  0.0000E+00  0.0000E+00  0.0000E+00  0.0000E+00  0.0000E+00  0.0000E+00  0.0000E+00  0.0000E+00  0.0000E+00  0.0000E+00  0.0000E+00  0.0000E+00
    -30.292  0.0000E+00  0.0000E+00  0.0000E+00  0.0000E+00  0.0000E+00  0.0000E+00  0.0000E+00  0.0000E+00  0.0000E+00  0.0000E+00  0.0000E+00  0.0000E+00  0.0000E+00  0.0000E+00  0.0000E+00  0.0000E+00  0.0000E+00  0.0000E+00
    -30.124  0.0000E+00  0.0000E+00  0.0000E+00  0.0000E+00  0.0000E+00  0.0000E+00  0.0000E+00  0.0000E+00  0.0000E+00  0.0000E+00  0.0000E+00  0.0000E+00  0.0000E+00  0.0000E+00  0.0000E+00  0.0000E+00  0.0000E+00  0.0000E+00
    -29.957  0.0000E+00  0.0000E+00  0.0000E+00  0.0000E+00  0.0000E+00  0.0000E+00  0.0000E+00  0.0000E+00  0.0000E+00  0.0000E+00  0.0000E+00  0.0000E+00  0.0000E+00  0.0000E+00  0.0000E+00  0.0000E+00  0.0000E+00  0.0000E+00
    -29.789  0.0000E+00  0.0000E+00  0.0000E+00  0.0000E+00  0.0000E+00  0.0000E+00  0.0000E+00  0.0000E+00  0.0000E+00  0.0000E+00  0.0000E+00  0.0000E+00  0.0000E+00  0.0000E+00  0.0000E+00  0.0000E+00  0.0000E+00  0.0000E+00
    -29.622  0.0000E+00  0.0000E+00  0.0000E+00  0.0000E+00  0.0000E+00  0.0000E+00  0.0000E+00  0.0000E+00  0.0000E+00  0.0000E+00  0.0000E+00  0.0000E+00  0.0000E+00  0.0000E+00  0.0000E+00  0.0000E+00  0.0000E+00  0.0000E+00