   4   4   1   0
  0.1933353E+02  0.4259517E-09  0.4260939E-09  0.4260939E-09  0.5000000E-15
  1.000000000000000E-004
  CAR 
 unknown system                          
     14.43492069    -36.07079433  301      5.98767003      1.00000000
    -36.071  0.0000E+00  0.0000E+00  0.0000E+00  0.0000E+00
    -35.902  0.0000E+00  0.0000E+00  0.0000E+00  0.0000E+00
    -35.734  0.0000E+00  0.0000E+00  0.0000E+00  0.0000E+00
    -35.566  0.0000E+00  0.0000E+00  0.0000E+00  0.0000E+00
    -35.397  0.0000E+00  0.0000E+00  0.0000E+00  0.0000E+00
    -35.229  0.0000E+00  0.0000E+00  0.0000E+00  0.0000E+00
    -35.061  0.0000E+00  0.0000E+00  0.0000E+00  0.0000E+00
    -34.892  0.0000E+00  0.0000E+00  0.0000E+00  0.0000E+00
    -34.724  0.0000E+00  0.0000E+00  0.0000E+00  0.0000E+00
    -34.556  0.0000E+00  0.0000E+00  0.0000E+00  0.0000E+00
    -34.387  0.0000E+00  0.0000E+00  0.0000E+00  0.0000E+00
    -34.219  0.7760E-03  0.7552E-03  0.1306E-03  0.1271E-03
    -34.051  0.2164E-01  0.2106E-01  0.3774E-02  0.3673E-02
    -33.882  0.5653E+00  0.5517E+00  0.9895E-01  0.9656E-01
    -33.714  0.3932E+01  0.3917E+01  0.7609E+00  0.7559E+00
    -33.546  0.1356E+01  0.1384E+01  0.9893E+00  0.9890E+00
    -33.377  0.6148E-01  0.6315E-01  0.9996E+00  0.9996E+00
    -33.209  0.0000E+00  0.0000E+00  0.1000E+01  0.1000E+01
    -33.040  0.0000E+00  0.0000E+00  0.1000E+01  0.1000E+01
    -32.872  0.0000E+00  0.0000E+00  0.1000E+01  0.1000E+01
    -32.704  0.0000E+00  0.0000E+00  0.1000E+01  0.1000E+01
    -32.535  0.0000E+00  0.0000E+00  0.1000E+01  0.1000E+01
    -32.367  0.0000E+00  0.0000E+00  0.1000E+01  0.1000E+01
    -32.199  0.0000E+00  0.0000E+00  0.1000E+01  0.1000E+01
    -32.030  0.0000E+00  0.0000E+00  0.1000E+01  0.1000E+01
    -31.862  0.0000E+00  0.0000E+00  0.1000E+01  0.1000E+01
    -31.694  0.0000E+00  0.0000E+00  0.1000E+01  0.1000E+01
    -31.525  0.0000E+00  0.0000E+00  0.1000E+01  0.1000E+01
    -31.357  0.0000E+00  0.0000E+00  0.1000E+01  0.1000E+01
    -31.189  0.0000E+00  0.0000E+00  0.1000E+01  0.1000E+01
    -31.020  0.0000E+00  0.0000E+00  0.1000E+01  0.1000E+01
    -30.852  0.0000E+00  0.0000E+00  0.1000E+01  0.1000E+01
    -30.684  0.0000E+00  0.0000E+00  0.1000E+01  0.1000E+01
    -30.515  0.0000E+00  0.0000E+00  0.1000E+01  0.1000E+01
    -30.347  0.0000E+00  0.0000E+00  0.1000E+01  0.1000E+01
    -30.178  0.0000E+00  0.0000E+00  0.1000E+01  0.1000E+01
    -30.010  0.0000E+00  0.0000E+00  0.1000E+01  0.1000E+01
    -29.842  0.0000E+00  0.0000E+00  0.1000E+01  0.1000E+01
    -29.673  0.0000E+00  0.0000E+00  0.1000E+01  0.1000E+01
    -29.505  0.0000E+00  0.0000E+00  0.1000E+01  0.1000E+01
    -29.337  0.0000E+00  0.0000E+00  0.1000E+01  0.1000E+01
    -29.168  0.0000E+00  0.0000E+00  0.1000E+01  0.1000E+01
    -29.000  0.0000E+00  0.0000E+00  0.1000E+01  0.1000E+01
    -28.832  0.0000E+00  0.0000E+00  0.1000E+01  0.1000E+01
    -28.663  0.0000E+00  0.0000E+00  0.1000E+01  0.1000E+01
    -28.495  0.0000E+00  0.0000E+00  0.1000E+01  0.1000E+01
    -28.327  0.0000E+00  0.0000E+00  0.1000E+01  0.1000E+01
    -28.158  0.0000E+00  0.0000E+00  0.1000E+01  0.1000E+01
    -27.990  0.0000E+00  0.0000E+00  0.1000E+01  0.1000E+01
    -27.822  0.0000E+00  0.0000E+00  0.1000E+01  0.1000E+01
    -27.653  0.0000E+00  0.0000E+00  0.1000E+01  0.1000E+01
    -27.485  0.0000E+00  0.0000E+00  0.1000E+01  0.1000E+01
    -27.316  0.0000E+00  0.0000E+00  0.1000E+01  0.1000E+01
    -27.148  0.0000E+00  0.0000E+00  0.1000E+01  0.1000E+01
    -26.980  0.0000E+00  0.0000E+00  0.1000E+01  0.1000E+01
    -26.811  0.0000E+00  0.0000E+00  0.1000E+01  0.1000E+01
    -26.643  0.0000E+00  0.0000E+00  0.1000E+01  0.1000E+01
    -26.475  0.0000E+00  0.0000E+00  0.1000E+01  0.1000E+01
    -26.306  0.0000E+00  0.0000E+00  0.1000E+01  0.1000E+01
    -26.138  0.0000E+00  0.0000E+00  0.1000E+01  0.1000E+01
    -25.970  0.0000E+00  0.0000E+00  0.1000E+01  0.1000E+01
    -25.801  0.0000E+00  0.0000E+00  0.1000E+01  0.1000E+01
    -25.633  0.0000E+00  0.0000E+00  0.1000E+01  0.1000E+01
    -25.465  0.0000E+00  0.0000E+00  0.1000E+01  0.1000E+01
    -25.296  0.0000E+00  0.0000E+00  0.1000E+01  0.1000E+01
    -25.128  0.0000E+00  0.0000E+00  0.1000E+01  0.1000E+01
    -24.960  0.0000E+00  0.0000E+00  0.1000E+01  0.1000E+01
    -24.791  0.0000E+00  0.0000E+00  0.1000E+01  0.1000E+01
    -24.623  0.0000E+00  0.0000E+00  0.1000E+01  0.1000E+01
    -24.454  0.0000E+00  0.0000E+00  0.1000E+01  0.1000E+01
    -24.286  0.0000E+00  0.0000E+00  0.1000E+01  0.1000E+01
    -24.118  0.0000E+00  0.0000E+00  0.1000E+01  0.1000E+01
    -23.949  0.0000E+00  0.0000E+00  0.1000E+01  0.1000E+01
    -23.781  0.0000E+00  0.0000E+00  0.1000E+01  0.1000E+01
    -23.613  0.0000E+00  0.0000E+00  0.1000E+01  0.1000E+01
    -23.444  0.0000E+00  0.0000E+00  0.1000E+01  0.1000E+01
    -23.276  0.0000E+00  0.0000E+00  0.1000E+01  0.1000E+01
    -23.108  0.0000E+00  0.0000E+00  0.1000E+01  0.1000E+01
    -22.939  0.0000E+00  0.0000E+00  0.1000E+01  0.1000E+01
    -22.771  0.0000E+00  0.0000E+00  0.1000E+01  0.1000E+01
    -22.603  0.0000E+00  0.0000E+00  0.1000E+01  0.1000E+01
    -22.434  0.0000E+00  0.0000E+00  0.1000E+01  0.1000E+01
    -22.266  0.0000E+00  0.0000E+00  0.1000E+01  0.1000E+01
    -22.098  0.0000E+00  0.0000E+00  0.1000E+01  0.1000E+01
    -21.929  0.0000E+00  0.0000E+00  0.1000E+01  0.1000E+01
    -21.761  0.0000E+00  0.0000E+00  0.1000E+01  0.1000E+01
    -21.592  0.0000E+00  0.0000E+00  0.1000E+01  0.1000E+01
    -21.424  0.0000E+00  0.0000E+00  0.1000E+01  0.1000E+01
    -21.256  0.0000E+00  0.0000E+00  0.1000E+01  0.1000E+01
    -21.087  0.0000E+00  0.0000E+00  0.1000E+01  0.1000E+01
    -20.919  0.0000E+00  0.0000E+00  0.1000E+01  0.1000E+01
    -20.751  0.0000E+00  0.0000E+00  0.1000E+01  0.1000E+01
    -20.582  0.0000E+00  0.0000E+00  0.1000E+01  0.1000E+01
    -20.414  0.0000E+00  0.0000E+00  0.1000E+01  0.1000E+01
    -20.246  0.0000E+00  0.0000E+00  0.1000E+01  0.1000E+01
    -20.077  0.0000E+00  0.0000E+00  0.1000E+01  0.1000E+01
    -19.909  0.0000E+00  0.0000E+00  0.1000E+01  0.1000E+01
    -19.741  0.0000E+00  0.0000E+00  0.1000E+01  0.1000E+01
    -19.572  0.0000E+00  0.0000E+00  0.1000E+01  0.1000E+01
    -19.404  0.0000E+00  0.0000E+00  0.1000E+01  0.1000E+01
    -19.236  0.0000E+00  0.0000E+00  0.1000E+01  0.1000E+01
    -19.067  0.0000E+00  0.0000E+00  0.1000E+01  0.1000E+01
    -18.899  0.0000E+00  0.0000E+00  0.1000E+01  0.1000E+01
    -18.730  0.0000E+00  0.0000E+00  0.1000E+01  0.1000E+01
    -18.562  0.0000E+00  0.0000E+00  0.1000E+01  0.1000E+01
    -18.394  0.0000E+00  0.0000E+00  0.1000E+01  0.1000E+01
    -18.225  0.0000E+00  0.0000E+00  0.1000E+01  0.1000E+01
    -18.057  0.0000E+00  0.0000E+00  0.1000E+01  0.1000E+01
    -17.889  0.0000E+00  0.0000E+00  0.1000E+01  0.1000E+01
    -17.720  0.0000E+00  0.0000E+00  0.1000E+01  0.1000E+01
    -17.552  0.0000E+00  0.0000E+00  0.1000E+01  0.1000E+01
    -17.384  0.0000E+00  0.0000E+00  0.1000E+01  0.1000E+01
    -17.215  0.0000E+00  0.0000E+00  0.1000E+01  0.1000E+01
    -17.047  0.0000E+00  0.0000E+00  0.1000E+01  0.1000E+01
    -16.879  0.0000E+00  0.0000E+00  0.1000E+01  0.1000E+01
    -16.710  0.0000E+00  0.0000E+00  0.1000E+01  0.1000E+01
    -16.542  0.0000E+00  0.0000E+00  0.1000E+01  0.1000E+01
    -16.374  0.0000E+00  0.0000E+00  0.1000E+01  0.1000E+01
    -16.205  0.0000E+00  0.0000E+00  0.1000E+01  0.1000E+01
    -16.037  0.0000E+00  0.0000E+00  0.1000E+01  0.1000E+01
    -15.869  0.0000E+00  0.0000E+00  0.1000E+01  0.1000E+01
    -15.700  0.0000E+00  0.0000E+00  0.1000E+01  0.1000E+01
    -15.532  0.3176E-04  0.2641E-04  0.1000E+01  0.1000E+01
    -15.363  0.3870E-02  0.3765E-02  0.1001E+01  0.1001E+01
    -15.195  0.1084E+00  0.1054E+00  0.1019E+01  0.1018E+01
    -15.027  0.2598E+01  0.2537E+01  0.1456E+01  0.1445E+01
    -14.858  0.1194E+02  0.1193E+02  0.3467E+01  0.3455E+01
    -14.690  0.3030E+01  0.3100E+01  0.3977E+01  0.3977E+01
    -14.522  0.6249E-01  0.6880E-01  0.4000E+01  0.4000E+01
    -14.353  0.0000E+00  0.0000E+00  0.4000E+01  0.4000E+01
    -14.185  0.0000E+00  0.0000E+00  0.4000E+01  0.4000E+01
    -14.017  0.0000E+00  0.0000E+00  0.4000E+01  0.4000E+01
    -13.848  0.0000E+00  0.0000E+00  0.4000E+01  0.4000E+01
    -13.680  0.0000E+00  0.0000E+00  0.4000E+01  0.4000E+01
    -13.512  0.0000E+00  0.0000E+00  0.4000E+01  0.4000E+01
    -13.343  0.0000E+00  0.0000E+00  0.4000E+01  0.4000E+01
    -13.175  0.0000E+00  0.0000E+00  0.4000E+01  0.4000E+01
    -13.007  0.0000E+00  0.0000E+00  0.4000E+01  0.4000E+01
    -12.838  0.0000E+00  0.0000E+00  0.4000E+01  0.4000E+01
    -12.670  0.0000E+00  0.0000E+00  0.4000E+01  0.4000E+01
    -12.501  0.0000E+00  0.0000E+00  0.4000E+01  0.4000E+01
    -12.333  0.0000E+00  0.0000E+00  0.4000E+01  0.4000E+01
    -12.165  0.0000E+00  0.0000E+00  0.4000E+01  0.4000E+01
    -11.996  0.0000E+00  0.0000E+00  0.4000E+01  0.4000E+01
    -11.828  0.0000E+00  0.0000E+00  0.4000E+01  0.4000E+01
    -11.660  0.0000E+00  0.0000E+00  0.4000E+01  0.4000E+01
    -11.491  0.0000E+00  0.0000E+00  0.4000E+01  0.4000E+01
    -11.323  0.0000E+00  0.0000E+00  0.4000E+01  0.4000E+01
    -11.155  0.0000E+00  0.0000E+00  0.4000E+01  0.4000E+01
    -10.986  0.0000E+00  0.0000E+00  0.4000E+01  0.4000E+01
    -10.818  0.0000E+00  0.0000E+00  0.4000E+01  0.4000E+01
    -10.650  0.0000E+00  0.0000E+00  0.4000E+01  0.4000E+01
    -10.481  0.0000E+00  0.0000E+00  0.4000E+01  0.4000E+01
    -10.313  0.0000E+00  0.0000E+00  0.4000E+01  0.4000E+01
    -10.145  0.0000E+00  0.0000E+00  0.4000E+01  0.4000E+01
     -9.976  0.0000E+00  0.0000E+00  0.4000E+01  0.4000E+01
     -9.808  0.0000E+00  0.0000E+00  0.4000E+01  0.4000E+01
     -9.639  0.0000E+00  0.0000E+00  0.4000E+01  0.4000E+01
     -9.471  0.0000E+00  0.0000E+00  0.4000E+01  0.4000E+01
     -9.303  0.0000E+00  0.0000E+00  0.4000E+01  0.4000E+01
     -9.134  0.0000E+00  0.0000E+00  0.4000E+01  0.4000E+01
     -8.966  0.0000E+00  0.0000E+00  0.4000E+01  0.4000E+01
     -8.798  0.0000E+00  0.0000E+00  0.4000E+01  0.4000E+01
     -8.629  0.0000E+00  0.0000E+00  0.4000E+01  0.4000E+01
     -8.461  0.0000E+00  0.0000E+00  0.4000E+01  0.4000E+01
     -8.293  0.0000E+00  0.0000E+00  0.4000E+01  0.4000E+01
     -8.124  0.0000E+00  0.0000E+00  0.4000E+01  0.4000E+01
     -7.956  0.0000E+00  0.0000E+00  0.4000E+01  0.4000E+01
     -7.788  0.0000E+00  0.0000E+00  0.4000E+01  0.4000E+01
     -7.619  0.0000E+00  0.0000E+00  0.4000E+01  0.4000E+01
     -7.451  0.0000E+00  0.0000E+00  0.4000E+01  0.4000E+01
     -7.283  0.0000E+00  0.0000E+00  0.4000E+01  0.4000E+01
     -7.114  0.0000E+00  0.0000E+00  0.4000E+01  0.4000E+01
     -6.946  0.0000E+00  0.0000E+00  0.4000E+01  0.4000E+01
     -6.777  0.0000E+00  0.0000E+00  0.4000E+01  0.4000E+01
     -6.609  0.0000E+00  0.0000E+00  0.4000E+01  0.4000E+01
     -6.441  0.0000E+00  0.0000E+00  0.4000E+01  0.4000E+01
     -6.272  0.0000E+00  0.0000E+00  0.4000E+01  0.4000E+01
     -6.104  0.0000E+00  0.0000E+00  0.4000E+01  0.4000E+01
     -5.936  0.0000E+00  0.0000E+00  0.4000E+01  0.4000E+01
     -5.767  0.0000E+00  0.0000E+00  0.4000E+01  0.4000E+01
     -5.599  0.0000E+00  0.0000E+00  0.4000E+01  0.4000E+01
     -5.431  0.0000E+00  0.0000E+00  0.4000E+01  0.4000E+01
     -5.262  0.0000E+00  0.0000E+00  0.4000E+01  0.4000E+01
     -5.094  0.0000E+00  0.0000E+00  0.4000E+01  0.4000E+01
     -4.926  0.0000E+00  0.0000E+00  0.4000E+01  0.4000E+01
     -4.757  0.0000E+00  0.0000E+00  0.4000E+01  0.4000E+01
     -4.589  0.0000E+00  0.0000E+00  0.4000E+01  0.4000E+01
     -4.421  0.0000E+00  0.0000E+00  0.4000E+01  0.4000E+01
     -4.252  0.0000E+00  0.0000E+00  0.4000E+01  0.4000E+01
     -4.084  0.0000E+00  0.0000E+00  0.4000E+01  0.4000E+01
     -3.915  0.0000E+00  0.0000E+00  0.4000E+01  0.4000E+01
     -3.747  0.0000E+00  0.0000E+00  0.4000E+01  0.4000E+01
     -3.579  0.0000E+00  0.0000E+00  0.4000E+01  0.4000E+01
     -3.410  0.3762E-05  0.3828E-05  0.4000E+01  0.4000E+01
     -3.242  0.1115E-03  0.1134E-03  0.4000E+01  0.4000E+01
     -3.074  0.2989E-02  0.3037E-02  0.4001E+01  0.4001E+01
     -2.905  0.3613E-01  0.3643E-01  0.4007E+01  0.4007E+01
     -2.737  0.1016E+00  0.1020E+00  0.4024E+01  0.4024E+01
     -2.569  0.1426E+00  0.1427E+00  0.4048E+01  0.4048E+01
     -2.400  0.1919E+00  0.1920E+00  0.4080E+01  0.4080E+01
     -2.232  0.2096E+00  0.2096E+00  0.4115E+01  0.4116E+01
     -2.064  0.2594E+00  0.2597E+00  0.4159E+01  0.4159E+01
     -1.895  0.2737E+00  0.2735E+00  0.4205E+01  0.4206E+01
     -1.727  0.3036E+00  0.3041E+00  0.4257E+01  0.4257E+01
     -1.559  0.3669E+00  0.3667E+00  0.4319E+01  0.4319E+01
     -1.390  0.3627E+00  0.3631E+00  0.4380E+01  0.4380E+01
     -1.222  0.4704E+00  0.4703E+00  0.4459E+01  0.4459E+01
     -1.053  0.4631E+00  0.4633E+00  0.4537E+01  0.4537E+01
     -0.885  0.4616E+00  0.4610E+00  0.4615E+01  0.4615E+01
     -0.717  0.3894E+00  0.3897E+00  0.4681E+01  0.4681E+01
     -0.548  0.3895E+00  0.3889E+00  0.4747E+01  0.4747E+01
     -0.380  0.3423E+00  0.3429E+00  0.4804E+01  0.4805E+01
     -0.212  0.4041E+00  0.4041E+00  0.4872E+01  0.4873E+01
     -0.043  0.4465E+00  0.4469E+00  0.4948E+01  0.4948E+01
      0.125  0.3570E+00  0.3566E+00  0.5008E+01  0.5008E+01
      0.293  0.4104E+00  0.4109E+00  0.5077E+01  0.5077E+01
      0.462  0.4403E+00  0.4406E+00  0.5151E+01  0.5152E+01
      0.630  0.5021E+00  0.5018E+00  0.5236E+01  0.5236E+01
      0.798  0.4655E+00  0.4656E+00  0.5314E+01  0.5315E+01
      0.967  0.5615E+00  0.5619E+00  0.5409E+01  0.5410E+01
      1.135  0.7622E+00  0.7623E+00  0.5538E+01  0.5538E+01
      1.303  0.7897E+00  0.7898E+00  0.5671E+01  0.5671E+01
      1.472  0.7675E+00  0.7672E+00  0.5800E+01  0.5801E+01
      1.640  0.7764E+00  0.7761E+00  0.5931E+01  0.5931E+01
      1.808  0.6856E+00  0.6857E+00  0.6047E+01  0.6047E+01
      1.977  0.7535E+00  0.7537E+00  0.6174E+01  0.6174E+01
      2.145  0.6404E+00  0.6398E+00  0.6282E+01  0.6282E+01
      2.314  0.5555E+00  0.5555E+00  0.6376E+01  0.6376E+01
      2.482  0.4768E+00  0.4766E+00  0.6456E+01  0.6457E+01
      2.650  0.4298E+00  0.4302E+00  0.6529E+01  0.6529E+01
      2.819  0.5439E+00  0.5443E+00  0.6621E+01  0.6621E+01
      2.987  0.6286E+00  0.6295E+00  0.6727E+01  0.6727E+01
      3.155  0.6055E+00  0.6062E+00  0.6829E+01  0.6830E+01
      3.324  0.6116E+00  0.6110E+00  0.6932E+01  0.6933E+01
      3.492  0.6744E+00  0.6756E+00  0.7046E+01  0.7047E+01
      3.660  0.8523E+00  0.8528E+00  0.7190E+01  0.7191E+01
      3.829  0.9250E+00  0.9245E+00  0.7346E+01  0.7346E+01
      3.997  0.7525E+00  0.7513E+00  0.7473E+01  0.7473E+01
      4.165  0.9462E+00  0.9481E+00  0.7632E+01  0.7633E+01
      4.334  0.9671E+00  0.9674E+00  0.7795E+01  0.7796E+01
      4.502  0.1168E+01  0.1169E+01  0.7992E+01  0.7994E+01
      4.670  0.9910E+00  0.9906E+00  0.8160E+01  0.8161E+01
      4.839  0.1164E+01  0.1166E+01  0.8356E+01  0.8357E+01
      5.007  0.1249E+01  0.1249E+01  0.8567E+01  0.8568E+01
      5.176  0.1216E+01  0.1215E+01  0.8772E+01  0.8773E+01
      5.344  0.1247E+01  0.1245E+01  0.8982E+01  0.8983E+01
      5.512  0.7550E+00  0.7536E+00  0.9110E+01  0.9111E+01
      5.681  0.9684E+00  0.9711E+00  0.9274E+01  0.9275E+01
      5.849  0.8382E+00  0.8355E+00  0.9415E+01  0.9416E+01
      6.017  0.5848E+00  0.5836E+00  0.9514E+01  0.9515E+01
      6.186  0.4411E+00  0.4416E+00  0.9589E+01  0.9590E+01
      6.354  0.6065E+00  0.6078E+00  0.9691E+01  0.9692E+01
      6.522  0.8798E+00  0.8808E+00  0.9840E+01  0.9841E+01
      6.691  0.8430E+00  0.8417E+00  0.9982E+01  0.9982E+01
      6.859  0.7985E+00  0.7981E+00  0.1012E+02  0.1012E+02
      7.027  0.7863E+00  0.7869E+00  0.1025E+02  0.1025E+02
      7.196  0.1078E+01  0.1079E+01  0.1043E+02  0.1043E+02
      7.364  0.9459E+00  0.9450E+00  0.1059E+02  0.1059E+02
      7.532  0.8038E+00  0.8043E+00  0.1073E+02  0.1073E+02
      7.701  0.1110E+01  0.1111E+01  0.1091E+02  0.1092E+02
      7.869  0.1007E+01  0.1005E+01  0.1108E+02  0.1109E+02
      8.038  0.8213E+00  0.8220E+00  0.1122E+02  0.1122E+02
      8.206  0.9135E+00  0.9144E+00  0.1138E+02  0.1138E+02
      8.374  0.1038E+01  0.1037E+01  0.1155E+02  0.1155E+02
      8.543  0.8698E+00  0.8703E+00  0.1170E+02  0.1170E+02
      8.711  0.8544E+00  0.8537E+00  0.1184E+02  0.1184E+02
      8.879  0.9428E+00  0.9440E+00  0.1200E+02  0.1200E+02
      9.048  0.9804E+00  0.9811E+00  0.1217E+02  0.1217E+02
      9.216  0.1057E+01  0.1059E+01  0.1235E+02  0.1235E+02
      9.384  0.1348E+01  0.1352E+01  0.1257E+02  0.1258E+02
      9.553  0.1806E+01  0.1806E+01  0.1288E+02  0.1288E+02
      9.721  0.1712E+01  0.1709E+01  0.1317E+02  0.1317E+02
      9.889  0.1775E+01  0.1773E+01  0.1347E+02  0.1347E+02
     10.058  0.1578E+01  0.1578E+01  0.1373E+02  0.1373E+02
     10.226  0.1491E+01  0.1489E+01  0.1398E+02  0.1399E+02
     10.394  0.1882E+01  0.1873E+01  0.1430E+02  0.1430E+02
     10.563  0.1654E+01  0.1659E+01  0.1458E+02  0.1458E+02
     10.731  0.1712E+01  0.1713E+01  0.1487E+02  0.1487E+02
     10.900  0.1817E+01  0.1812E+01  0.1518E+02  0.1518E+02
     11.068  0.1500E+01  0.1500E+01  0.1543E+02  0.1543E+02
     11.236  0.1081E+01  0.1076E+01  0.1561E+02  0.1561E+02
     11.405  0.7728E+00  0.7665E+00  0.1574E+02  0.1574E+02
     11.573  0.4831E+00  0.4926E+00  0.1583E+02  0.1583E+02
     11.741  0.3674E+00  0.3712E+00  0.1589E+02  0.1589E+02
     11.910  0.3225E+00  0.3228E+00  0.1594E+02  0.1594E+02
     12.078  0.2255E+00  0.2226E+00  0.1598E+02  0.1598E+02
     12.246  0.1027E+00  0.1039E+00  0.1600E+02  0.1600E+02
     12.415  0.7863E-02  0.7644E-02  0.1600E+02  0.1600E+02
     12.583  0.0000E+00  0.0000E+00  0.1600E+02  0.1600E+02
     12.751  0.0000E+00  0.0000E+00  0.1600E+02  0.1600E+02
     12.920  0.0000E+00  0.0000E+00  0.1600E+02  0.1600E+02
     13.088  0.0000E+00  0.0000E+00  0.1600E+02  0.1600E+02
     13.256  0.0000E+00  0.0000E+00  0.1600E+02  0.1600E+02
     13.425  0.0000E+00  0.0000E+00  0.1600E+02  0.1600E+02
     13.593  0.0000E+00  0.0000E+00  0.1600E+02  0.1600E+02
     13.762  0.0000E+00  0.0000E+00  0.1600E+02  0.1600E+02
     13.930  0.0000E+00  0.0000E+00  0.1600E+02  0.1600E+02
     14.098  0.0000E+00  0.0000E+00  0.1600E+02  0.1600E+02
     14.267  0.0000E+00  0.0000E+00  0.1600E+02  0.1600E+02
     14.435  0.0000E+00  0.0000E+00  0.1600E+02  0.1600E+02
     14.43492069    -36.07079433  301      5.98767003      1.00000000
    -36.071  0.0000E+00  0.0000E+00  0.0000E+00  0.0000E+00  0.0000E+00  0.0000E+00  0.0000E+00  0.0000E+00  0.0000E+00  0.0000E+00  0.0000E+00  0.0000E+00  0.0000E+00  0.0000E+00  0.0000E+00  0.0000E+00  0.0000E+00  0.0000E+00
    -35.902  0.0000E+00  0.0000E+00  0.0000E+00  0.0000E+00  0.0000E+00  0.0000E+00  0.0000E+00  0.0000E+00  0.0000E+00  0.0000E+00  0.0000E+00  0.0000E+00  0.0000E+00  0.0000E+00  0.0000E+00  0.0000E+00  0.0000E+00  0.0000E+00
    -35.734  0.0000E+00  0.0000E+00  0.0000E+00  0.0000E+00  0.0000E+00  0.0000E+00  0.0000E+00  0.0000E+00  0.0000E+00  0.0000E+00  0.0000E+00  0.0000E+00  0.0000E+00  0.0000E+00  0.0000E+00  0.0000E+00  0.0000E+00  0.0000E+00
    -35.566  0.0000E+00  0.0000E+00  0.0000E+00  0.0000E+00  0.0000E+00  0.0000E+00  0.0000E+00  0.0000E+00  0.0000E+00  0.0000E+00  0.0000E+00  0.0000E+00  0.0000E+00  0.0000E+00  0.0000E+00  0.0000E+00  0.0000E+00  0.0000E+00
    -35.397  0.0000E+00  0.0000E+00  0.0000E+00  0.0000E+00  0.0000E+00  0.0000E+00  0.0000E+00  0.0000E+00  0.0000E+00  0.0000E+00  0.0000E+00  0.0000E+00  0.0000E+00  0.0000E+00  0.0000E+00  0.0000E+00  0.0000E+00  0.0000E+00
    -35.229  0.0000E+00  0.0000E+00  0.0000E+00  0.0000E+00  0.0000E+00  0.0000E+00  0.0000E+00  0.0000E+00  0.0000E+00  0.0000E+00  0.0000E+00  0.0000E+00  0.0000E+00  0.0000E+00  0.0000E+00  0.0000E+00  0.0000E+00  0.0000E+00
    -35.061  0.0000E+00  0.0000E+00  0.0000E+00  0.0000E+00  0.0000E+00  0.0000E+00  0.0000E+00  0.0000E+00  0.0000E+00  0.0000E+00  0.0000E+00  0.0000E+00  0.0000E+00  0.0000E+00  0.0000E+00  0.0000E+00  0.0000E+00  0.0000E+00
    -34.892  0.0000E+00  0.0000E+00  0.0000E+00  0.0000E+00  0.0000E+00  0.0000E+00  0.0000E+00  0.0000E+00  0.0000E+00  0.0000E+00  0.0000E+00  0.0000E+00  0.0000E+00  0.0000E+00  0.0000E+00  0.0000E+00  0.0000E+00  0.0000E+00
    -34.724  0.0000E+00  0.0000E+00  0.0000E+00  0.0000E+00  0.0000E+00  0.0000E+00  0.0000E+00  0.0000E+00  0.0000E+00  0.0000E+00  0.0000E+00  0.0000E+00  0.0000E+00  0.0000E+00  0.0000E+00  0.0000E+00  0.0000E+00  0.0000E+00
    -34.556  0.0000E+00  0.0000E+00  0.0000E+00  0.0000E+00  0.0000E+00  0.0000E+00  0.0000E+00  0.0000E+00  0.0000E+00  0.0000E+00  0.0000E+00  0.0000E+00  0.0000E+00  0.0000E+00  0.0000E+00  0.0000E+00  0.0000E+00  0.0000E+00
    -34.387  0.0000E+00  0.0000E+00  0.0000E+00  0.0000E+00  0.0000E+00  0.0000E+00  0.0000E+00  0.0000E+00  0.0000E+00  0.0000E+00  0.0000E+00  0.0000E+00  0.0000E+00  0.0000E+00  0.0000E+00  0.0000E+00  0.0000E+00  0.0000E+00
    -34.219  0.7641E-03  0.7436E-03  0.5104E-11  0.5208E-11  0.5104E-11  0.5208E-11  0.5140E-11  0.5250E-11  0.1730E-14  0.7392E-14  0.1807E-14  0.7024E-14  0.3285E-11  0.3217E-11  0.1730E-14  0.7392E-14  0.3313E-11  0.3237E-11
    -34.051  0.2131E-01  0.2074E-01  0.1423E-09  0.1452E-09  0.1423E-09  0.1452E-09  0.1434E-09  0.1464E-09  0.4824E-13  0.2062E-12  0.5038E-13  0.1959E-12  0.9160E-10  0.8973E-10  0.4824E-13  0.2062E-12  0.9238E-10  0.9029E-10
    -33.882  0.5567E+00  0.5433E+00  0.3718E-08  0.3805E-08  0.3718E-08  0.3805E-08  0.3745E-08  0.3835E-08  0.1261E-11  0.5399E-11  0.1317E-11  0.5129E-11  0.2393E-08  0.2351E-08  0.1261E-11  0.5399E-11  0.2413E-08  0.2365E-08
    -33.714  0.3872E+01  0.3857E+01  0.2583E-07  0.2700E-07  0.2583E-07  0.2700E-07  0.2602E-07  0.2721E-07  0.8784E-11  0.3826E-10  0.9185E-11  0.3630E-10  0.1667E-07  0.1671E-07  0.8784E-11  0.3826E-10  0.1677E-07  0.1677E-07
    -33.546  0.1336E+01  0.1363E+01  0.8900E-08  0.9534E-08  0.8900E-08  0.9534E-08  0.8964E-08  0.9611E-08  0.3037E-11  0.1349E-10  0.3179E-11  0.1278E-10  0.5755E-08  0.5910E-08  0.3037E-11  0.1349E-10  0.5780E-08  0.5922E-08
    -33.377  0.6053E-01  0.6218E-01  0.4032E-09  0.4348E-09  0.4032E-09  0.4348E-09  0.4061E-09  0.4383E-09  0.1377E-12  0.6148E-12  0.1442E-12  0.5822E-12  0.2609E-09  0.2697E-09  0.1377E-12  0.6148E-12  0.2618E-09  0.2700E-09
    -33.209  0.0000E+00  0.0000E+00  0.0000E+00  0.0000E+00  0.0000E+00  0.0000E+00  0.0000E+00  0.0000E+00  0.0000E+00  0.0000E+00  0.0000E+00  0.0000E+00  0.0000E+00  0.0000E+00  0.0000E+00  0.0000E+00  0.0000E+00  0.0000E+00
    -33.040  0.0000E+00  0.0000E+00  0.0000E+00  0.0000E+00  0.0000E+00  0.0000E+00  0.0000E+00  0.0000E+00  0.0000E+00  0.0000E+00  0.0000E+00  0.0000E+00  0.0000E+00  0.0000E+00  0.0000E+00  0.0000E+00  0.0000E+00  0.0000E+00
    -32.872  0.0000E+00  0.0000E+00  0.0000E+00  0.0000E+00  0.0000E+00  0.0000E+00  0.0000E+00  0.0000E+00  0.0000E+00  0.0000E+00  0.0000E+00  0.0000E+00  0.0000E+00  0.0000E+00  0.0000E+00  0.0000E+00  0.0000E+00  0.0000E+00
    -32.704  0.0000E+00  0.0000E+00  0.0000E+00  0.0000E+00  0.0000E+00  0.0000E+00  0.0000E+00  0.0000E+00  0.0000E+00  0.0000E+00  0.0000E+00  0.0000E+00  0.0000E+00  0.0000E+00  0.0000E+00  0.0000E+00  0.0000E+00  0.0000E+00
    -32.535  0.0000E+00  0.0000E+00  0.0000E+00  0.0000E+00  0.0000E+00  0.0000E+00  0.0000E+00  0.0000E+00  0.0000E+00  0.0000E+00  0.0000E+00  0.0000E+00  0.0000E+00  0.0000E+00  0.0000E+00  0.0000E+00  0.0000E+00  0.0000E+00
    -32.367  0.0000E+00  0.0000E+00  0.0000E+00  0.0000E+00  0.0000E+00  0.0000E+00  0.0000E+00  0.0000E+00  0.0000E+00  0.0000E+00  0.0000E+00  0.0000E+00  0.0000E+00  0.0000E+00  0.0000E+00  0.0000E+00  0.0000E+00  0.0000E+00
    -32.199  0.0000E+00  0.0000E+00  0.0000E+00  0.0000E+00  0.0000E+00  0.0000E+00  0.0000E+00  0.0000E+00  0.0000E+00  0.0000E+00  0.0000E+00  0.0000E+00  0.0000E+00  0.0000E+00  0.0000E+00  0.0000E+00  0.0000E+00  0.0000E+00
    -32.030  0.0000E+00  0.0000E+00  0.0000E+00  0.0000E+00  0.0000E+00  0.0000E+00  0.0000E+00  0.0000E+00  0.0000E+00  0.0000E+00  0.0000E+00  0.0000E+00  0.0000E+00  0.0000E+00  0.0000E+00  0.0000E+00  0.0000E+00  0.0000E+00
    -31.862  0.0000E+00  0.0000E+00  0.0000E+00  0.0000E+00  0.0000E+00  0.0000E+00  0.0000E+00  0.0000E+00  0.0000E+00  0.0000E+00  0.0000E+00  0.0000E+00  0.0000E+00  0.0000E+00  0.0000E+00  0.0000E+00  0.0000E+00  0.0000E+00
    -31.694  0.0000E+00  0.0000E+00  0.0000E+00  0.0000E+00  0.0000E+00  0.0000E+00  0.0000E+00  0.0000E+00  0.0000E+00  0.0000E+00  0.0000E+00  0.0000E+00  0.0000E+00  0.0000E+00  0.0000E+00  0.0000E+00  0.0000E+00  0.0000E+00
    -31.525  0.0000E+00  0.0000E+00  0.0000E+00  0.0000E+00  0.0000E+00  0.0000E+00  0.0000E+00  0.0000E+00  0.0000E+00  0.0000E+00  0.0000E+00  0.0000E+00  0.0000E+00  0.0000E+00  0.0000E+00  0.0000E+00  0.0000E+00  0.0000E+00
    -31.357  0.0000E+00  0.0000E+00  0.0000E+00  0.0000E+00  0.0000E+00  0.0000E+00  0.0000E+00  0.0000E+00  0.0000E+00  0.0000E+00  0.0000E+00  0.0000E+00  0.0000E+00  0.0000E+00  0.0000E+00  0.0000E+00  0.0000E+00  0.0000E+00
    -31.189  0.0000E+00  0.0000E+00  0.0000E+00  0.0000E+00  0.0000E+00  0.0000E+00  0.0000E+00  0.0000E+00  0.0000E+00  0.0000E+00  0.0000E+00  0.0000E+00  0.0000E+00  0.0000E+00  0.0000E+00  0.0000E+00  0.0000E+00  0.0000E+00
    -31.020  0.0000E+00  0.0000E+00  0.0000E+00  0.0000E+00  0.0000E+00  0.0000E+00  0.0000E+00  0.0000E+00  0.0000E+00  0.0000E+00  0.0000E+00  0.0000E+00  0.0000E+00  0.0000E+00  0.0000E+00  0.0000E+00  0.0000E+00  0.0000E+00
    -30.852  0.0000E+00  0.0000E+00  0.0000E+00  0.0000E+00  0.0000E+00  0.0000E+00  0.0000E+00  0.0000E+00  0.0000E+00  0.0000E+00  0.0000E+00  0.0000E+00  0.0000E+00  0.0000E+00  0.0000E+00  0.0000E+00  0.0000E+00  0.0000E+00
    -30.684  0.0000E+00  0.0000E+00  0.0000E+00  0.0000E+00  0.0000E+00  0.0000E+00  0.0000E+00  0.0000E+00  0.0000E+00  0.0000E+00  0.0000E+00  0.0000E+00  0.0000E+00  0.0000E+00  0.0000E+00  0.0000E+00  0.0000E+00  0.0000E+00
    -30.515  0.0000E+00  0.0000E+00  0.0000E+00  0.0000E+00  0.0000E+00  0.0000E+00  0.0000E+00  0.0000E+00  0.0000E+00  0.0000E+00  0.0000E+00  0.0000E+00  0.0000E+00  0.0000E+00  0.0000E+00  0.0000E+00  0.0000E+00  0.0000E+00
    -30.347  0.0000E+00  0.0000E+00  0.0000E+00  0.0000E+00  0.0000E+00  0.0000E+00  0.0000E+00  0.0000E+00  0.0000E+00  0.0000E+00  0.0000E+00  0.0000E+00  0.0000E+00  0.0000E+00  0.0000E+00  0.0000E+00  0.0000E+00  0.0000E+00
    -30.178  0.0000E+00  0.0000E+00  0.0000E+00  0.0000E+00  0.0000E+00  0.0000E+00  0.0000E+00  0.0000E+00  0.0000E+00  0.0000E+00  0.0000E+00  0.0000E+00  0.0000E+00  0.0000E+00  0.0000E+00  0.0000E+00  0.0000E+00  0.0000E+00
    -30.010  0.0000E+00  0.0000E+00  0.0000E+00  0.0000E+00  0.0000E+00  0.0000E+00  0.0000E+00  0.0000E+00  0.0000E+00  0.0000E+00  0.0000E+00  0.0000E+00  0.0000E+00  0.0000E+00  0.0000E+00  0.0000E+00  0.0000E+00  0.0000E+00
    -29.842  0.0000E+00  0.0000E+00  0.0000E+00  0.0000E+00  0.0000E+00  0.0000E+00  0.0000E+00  0.0000E+00  0.0000E+00  0.0000E+00  0.0000E+00  0.0000E+00  0.0000E+00  0.0000E+00  0.0000E+00  0.0000E+00  0.0000E+00  0.0000E+00
    -29.673  0.0000E+00  0.0000E+00  0.0000E+00  0.0000E+00  0.0000E+00  0.0000E+00  0.0000E+00  0.0000E+00  0.0000E+00  0.0000E+00  0.0000E+00  0.0000E+00  0.0000E+00  0.0000E+00  0.0000E+00  0.0000E+00  0.0000E+00  0.0000E+00
    -29.505  0.0000E+00  0.0000E+00  0.0000E+00  0.0000E+00  0.0000E+00  0.0000E+00  0.0000E+00  0.0000E+00  0.0000E+00  0.0000E+00  0.0000E+00  0.0000E+00  0.0000E+00  0.0000E+00  0.0000E+00  0.0000E+00  0.0000E+00  0.0000E+00
    -29.337  0.0000E+00  0.0000E+00  0.0000E+00  0.0000E+00  0.0000E+00  0.0000E+00  0.0000E+00  0.0000E+00  0.0000E+00  0.0000E+00  0.0000E+00  0.0000E+00  0.0000E+00  0.0000E+00  0.0000E+00  0.0000E+00  0.0000E+00  0.0000E+00
    -29.168  0.0000E+00  0.0000E+00  0.0000E+00  0.0000E+00  0.0000E+00  0.0000E+00  0.0000E+00  0.0000E+00  0.0000E+00  0.0000E+00  0.0000E+00  0.0000E+00  0.0000E+00  0.0000E+00  0.0000E+00  0.0000E+00  0.0000E+00  0.0000E+00
    -29.000  0.0000E+00  0.0000E+00  0.0000E+00  0.0000E+00  0.0000E+00  0.0000E+00  0.0000E+00  0.0000E+00  0.0000E+00  0.0000E+00  0.0000E+00  0.0000E+00  0.0000E+00  0.0000E+00  0.0000E+00  0.0000E+00  0.0000E+00  0.0000E+00
    -28.832  0.0000E+00  0.0000E+00  0.0000E+00  0.0000E+00  0.0000E+00  0.0000E+00  0.0000E+00  0.0000E+00  0.0000E+00  0.0000E+00  0.0000E+00  0.0000E+00  0.0000E+00  0.0000E+00  0.0000E+00  0.0000E+00  0.0000E+00  0.0000E+00
    -28.663  0.0000E+00  0.0000E+00  0.0000E+00  0.0000E+00  0.0000E+00  0.0000E+00  0.0000E+00  0.0000E+00  0.0000E+00  0.0000E+00  0.0000E+00  0.0000E+00  0.0000E+00  0.0000E+00  0.0000E+00  0.0000E+00  0.0000E+00  0.0000E+00
    -28.495  0.0000E+00  0.0000E+00  0.0000E+00  0.0000E+00  0.0000E+00  0.0000E+00  0.0000E+00  0.0000E+00  0.0000E+00  0.0000E+00  0.0000E+00  0.0000E+00  0.0000E+00  0.0000E+00  0.0000E+00  0.0000E+00  0.0000E+00  0.0000E+00
    -28.327  0.0000E+00  0.0000E+00  0.0000E+00  0.0000E+00  0.0000E+00  0.0000E+00  0.0000E+00  0.0000E+00  0.0000E+00  0.0000E+00  0.0000E+00  0.0000E+00  0.0000E+00  0.0000E+00  0.0000E+00  0.0000E+00  0.0000E+00  0.0000E+00
    -28.158  0.0000E+00  0.0000E+00  0.0000E+00  0.0000E+00  0.0000E+00  0.0000E+00  0.0000E+00  0.0000E+00  0.0000E+00  0.0000E+00  0.0000E+00  0.0000E+00  0.0000E+00  0.0000E+00  0.0000E+00  0.0000E+00  0.0000E+00  0.0000E+00
    -27.990  0.0000E+00  0.0000E+00  0.0000E+00  0.0000E+00  0.0000E+00  0.0000E+00  0.0000E+00  0.0000E+00  0.0000E+00  0.0000E+00  0.0000E+00  0.0000E+00  0.0000E+00  0.0000E+00  0.0000E+00  0.0000E+00  0.0000E+00  0.0000E+00
    -27.822  0.0000E+00  0.0000E+00  0.0000E+00  0.0000E+00  0.0000E+00  0.0000E+00  0.0000E+00  0.0000E+00  0.0000E+00  0.0000E+00  0.0000E+00  0.0000E+00  0.0000E+00  0.0000E+00  0.0000E+00  0.0000E+00  0.0000E+00  0.0000E+00
    -27.653  0.0000E+00  0.0000E+00  0.0000E+00  0.0000E+00  0.0000E+00  0.0000E+00  0.0000E+00  0.0000E+00  0.0000E+00  0.0000E+00  0.0000E+00  0.0000E+00  0.0000E+00  0.0000E+00  0.0000E+00  0.0000E+00  0.0000E+00  0.0000E+00