   4   4   1   0
  0.2373139E+02  0.4560695E-09  0.4562218E-09  0.4562218E-09  0.5000000E-15
  1.000000000000000E-004
  CAR 
 unknown system                          
     11.94793705    -38.30501598  301      4.47757632      1.00000000
    -38.305  0.0000E+00  0.0000E+00  0.0000E+00  0.0000E+00
    -38.138  0.0000E+00  0.0000E+00  0.0000E+00  0.0000E+00
    -37.970  0.0000E+00  0.0000E+00  0.0000E+00  0.0000E+00
    -37.802  0.0000E+00  0.0000E+00  0.0000E+00  0.0000E+00
    -37.635  0.0000E+00  0.0000E+00  0.0000E+00  0.0000E+00
    -37.467  0.0000E+00  0.0000E+00  0.0000E+00  0.0000E+00
    -37.300  0.0000E+00  0.0000E+00  0.0000E+00  0.0000E+00
    -37.132  0.0000E+00  0.0000E+00  0.0000E+00  0.0000E+00
    -36.965  0.0000E+00  0.0000E+00  0.0000E+00  0.0000E+00
    -36.797  0.0000E+00  0.0000E+00  0.0000E+00  0.0000E+00
    -36.630  0.0000E+00  0.0000E+00  0.0000E+00  0.0000E+00
    -36.462  0.8536E-03  0.8270E-03  0.1430E-03  0.1385E-03
    -36.295  0.2339E-01  0.2266E-01  0.4060E-02  0.3934E-02
    -36.127  0.5974E+00  0.5807E+00  0.1041E+00  0.1012E+00
    -35.960  0.3964E+01  0.3948E+01  0.7682E+00  0.7625E+00
    -35.792  0.1322E+01  0.1353E+01  0.9895E+00  0.9892E+00
    -35.625  0.6032E-01  0.6224E-01  0.9996E+00  0.9996E+00
    -35.457  0.0000E+00  0.0000E+00  0.1000E+01  0.1000E+01
    -35.290  0.0000E+00  0.0000E+00  0.1000E+01  0.1000E+01
    -35.122  0.0000E+00  0.0000E+00  0.1000E+01  0.1000E+01
    -34.955  0.0000E+00  0.0000E+00  0.1000E+01  0.1000E+01
    -34.787  0.0000E+00  0.0000E+00  0.1000E+01  0.1000E+01
    -34.620  0.0000E+00  0.0000E+00  0.1000E+01  0.1000E+01
    -34.452  0.0000E+00  0.0000E+00  0.1000E+01  0.1000E+01
    -34.285  0.0000E+00  0.0000E+00  0.1000E+01  0.1000E+01
    -34.117  0.0000E+00  0.0000E+00  0.1000E+01  0.1000E+01
    -33.950  0.0000E+00  0.0000E+00  0.1000E+01  0.1000E+01
    -33.782  0.0000E+00  0.0000E+00  0.1000E+01  0.1000E+01
    -33.615  0.0000E+00  0.0000E+00  0.1000E+01  0.1000E+01
    -33.447  0.0000E+00  0.0000E+00  0.1000E+01  0.1000E+01
    -33.280  0.0000E+00  0.0000E+00  0.1000E+01  0.1000E+01
    -33.112  0.0000E+00  0.0000E+00  0.1000E+01  0.1000E+01
    -32.945  0.0000E+00  0.0000E+00  0.1000E+01  0.1000E+01
    -32.777  0.0000E+00  0.0000E+00  0.1000E+01  0.1000E+01
    -32.610  0.0000E+00  0.0000E+00  0.1000E+01  0.1000E+01
    -32.442  0.0000E+00  0.0000E+00  0.1000E+01  0.1000E+01
    -32.275  0.0000E+00  0.0000E+00  0.1000E+01  0.1000E+01
    -32.107  0.0000E+00  0.0000E+00  0.1000E+01  0.1000E+01
    -31.940  0.0000E+00  0.0000E+00  0.1000E+01  0.1000E+01
    -31.772  0.0000E+00  0.0000E+00  0.1000E+01  0.1000E+01
    -31.605  0.0000E+00  0.0000E+00  0.1000E+01  0.1000E+01
    -31.437  0.0000E+00  0.0000E+00  0.1000E+01  0.1000E+01
    -31.270  0.0000E+00  0.0000E+00  0.1000E+01  0.1000E+01
    -31.102  0.0000E+00  0.0000E+00  0.1000E+01  0.1000E+01
    -30.935  0.0000E+00  0.0000E+00  0.1000E+01  0.1000E+01
    -30.767  0.0000E+00  0.0000E+00  0.1000E+01  0.1000E+01
    -30.600  0.0000E+00  0.0000E+00  0.1000E+01  0.1000E+01
    -30.432  0.0000E+00  0.0000E+00  0.1000E+01  0.1000E+01
    -30.265  0.0000E+00  0.0000E+00  0.1000E+01  0.1000E+01
    -30.097  0.0000E+00  0.0000E+00  0.1000E+01  0.1000E+01
    -29.930  0.0000E+00  0.0000E+00  0.1000E+01  0.1000E+01
    -29.762  0.0000E+00  0.0000E+00  0.1000E+01  0.1000E+01
    -29.595  0.0000E+00  0.0000E+00  0.1000E+01  0.1000E+01
    -29.427  0.0000E+00  0.0000E+00  0.1000E+01  0.1000E+01
    -29.259  0.0000E+00  0.0000E+00  0.1000E+01  0.1000E+01
    -29.092  0.0000E+00  0.0000E+00  0.1000E+01  0.1000E+01
    -28.924  0.0000E+00  0.0000E+00  0.1000E+01  0.1000E+01
    -28.757  0.0000E+00  0.0000E+00  0.1000E+01  0.1000E+01
    -28.589  0.0000E+00  0.0000E+00  0.1000E+01  0.1000E+01
    -28.422  0.0000E+00  0.0000E+00  0.1000E+01  0.1000E+01
    -28.254  0.0000E+00  0.0000E+00  0.1000E+01  0.1000E+01
    -28.087  0.0000E+00  0.0000E+00  0.1000E+01  0.1000E+01
    -27.919  0.0000E+00  0.0000E+00  0.1000E+01  0.1000E+01
    -27.752  0.0000E+00  0.0000E+00  0.1000E+01  0.1000E+01
    -27.584  0.0000E+00  0.0000E+00  0.1000E+01  0.1000E+01
    -27.417  0.0000E+00  0.0000E+00  0.1000E+01  0.1000E+01
    -27.249  0.0000E+00  0.0000E+00  0.1000E+01  0.1000E+01
    -27.082  0.0000E+00  0.0000E+00  0.1000E+01  0.1000E+01
    -26.914  0.0000E+00  0.0000E+00  0.1000E+01  0.1000E+01
    -26.747  0.0000E+00  0.0000E+00  0.1000E+01  0.1000E+01
    -26.579  0.0000E+00  0.0000E+00  0.1000E+01  0.1000E+01
    -26.412  0.0000E+00  0.0000E+00  0.1000E+01  0.1000E+01
    -26.244  0.0000E+00  0.0000E+00  0.1000E+01  0.1000E+01
    -26.077  0.0000E+00  0.0000E+00  0.1000E+01  0.1000E+01
    -25.909  0.0000E+00  0.0000E+00  0.1000E+01  0.1000E+01
    -25.742  0.0000E+00  0.0000E+00  0.1000E+01  0.1000E+01
    -25.574  0.0000E+00  0.0000E+00  0.1000E+01  0.1000E+01
    -25.407  0.0000E+00  0.0000E+00  0.1000E+01  0.1000E+01
    -25.239  0.0000E+00  0.0000E+00  0.1000E+01  0.1000E+01
    -25.072  0.0000E+00  0.0000E+00  0.1000E+01  0.1000E+01
    -24.904  0.0000E+00  0.0000E+00  0.1000E+01  0.1000E+01
    -24.737  0.0000E+00  0.0000E+00  0.1000E+01  0.1000E+01
    -24.569  0.0000E+00  0.0000E+00  0.1000E+01  0.1000E+01
    -24.402  0.0000E+00  0.0000E+00  0.1000E+01  0.1000E+01
    -24.234  0.0000E+00  0.0000E+00  0.1000E+01  0.1000E+01
    -24.067  0.0000E+00  0.0000E+00  0.1000E+01  0.1000E+01
    -23.899  0.0000E+00  0.0000E+00  0.1000E+01  0.1000E+01
    -23.732  0.0000E+00  0.0000E+00  0.1000E+01  0.1000E+01
    -23.564  0.0000E+00  0.0000E+00  0.1000E+01  0.1000E+01
    -23.397  0.0000E+00  0.0000E+00  0.1000E+01  0.1000E+01
    -23.229  0.0000E+00  0.0000E+00  0.1000E+01  0.1000E+01
    -23.062  0.0000E+00  0.0000E+00  0.1000E+01  0.1000E+01
    -22.894  0.0000E+00  0.0000E+00  0.1000E+01  0.1000E+01
    -22.727  0.0000E+00  0.0000E+00  0.1000E+01  0.1000E+01
    -22.559  0.0000E+00  0.0000E+00  0.1000E+01  0.1000E+01
    -22.392  0.0000E+00  0.0000E+00  0.1000E+01  0.1000E+01
    -22.224  0.0000E+00  0.0000E+00  0.1000E+01  0.1000E+01
    -22.057  0.0000E+00  0.0000E+00  0.1000E+01  0.1000E+01
    -21.889  0.0000E+00  0.0000E+00  0.1000E+01  0.1000E+01
    -21.722  0.0000E+00  0.0000E+00  0.1000E+01  0.1000E+01
    -21.554  0.0000E+00  0.0000E+00  0.1000E+01  0.1000E+01
    -21.387  0.0000E+00  0.0000E+00  0.1000E+01  0.1000E+01
    -21.219  0.0000E+00  0.0000E+00  0.1000E+01  0.1000E+01
    -21.052  0.0000E+00  0.0000E+00  0.1000E+01  0.1000E+01
    -20.884  0.0000E+00  0.0000E+00  0.1000E+01  0.1000E+01
    -20.716  0.0000E+00  0.0000E+00  0.1000E+01  0.1000E+01
    -20.549  0.0000E+00  0.0000E+00  0.1000E+01  0.1000E+01
    -20.381  0.0000E+00  0.0000E+00  0.1000E+01  0.1000E+01
    -20.214  0.0000E+00  0.0000E+00  0.1000E+01  0.1000E+01
    -20.046  0.0000E+00  0.0000E+00  0.1000E+01  0.1000E+01
    -19.879  0.0000E+00  0.0000E+00  0.1000E+01  0.1000E+01
    -19.711  0.0000E+00  0.0000E+00  0.1000E+01  0.1000E+01
    -19.544  0.0000E+00  0.0000E+00  0.1000E+01  0.1000E+01
    -19.376  0.0000E+00  0.0000E+00  0.1000E+01  0.1000E+01
    -19.209  0.0000E+00  0.0000E+00  0.1000E+01  0.1000E+01
    -19.041  0.0000E+00  0.0000E+00  0.1000E+01  0.1000E+01
    -18.874  0.0000E+00  0.0000E+00  0.1000E+01  0.1000E+01
    -18.706  0.0000E+00  0.0000E+00  0.1000E+01  0.1000E+01
    -18.539  0.0000E+00  0.0000E+00  0.1000E+01  0.1000E+01
    -18.371  0.0000E+00  0.0000E+00  0.1000E+01  0.1000E+01
    -18.204  0.0000E+00  0.0000E+00  0.1000E+01  0.1000E+01
    -18.036  0.0000E+00  0.0000E+00  0.1000E+01  0.1000E+01
    -17.869  0.0000E+00  0.0000E+00  0.1000E+01  0.1000E+01
    -17.701  0.0000E+00  0.0000E+00  0.1000E+01  0.1000E+01
    -17.534  0.2547E-02  0.2458E-02  0.1000E+01  0.1000E+01
    -17.366  0.6979E-01  0.6733E-01  0.1012E+01  0.1012E+01
    -17.199  0.1779E+01  0.1723E+01  0.1310E+01  0.1300E+01
    -17.031  0.1183E+02  0.1177E+02  0.3291E+01  0.3272E+01
    -16.864  0.4038E+01  0.4147E+01  0.3968E+01  0.3966E+01
    -16.696  0.1386E+00  0.1543E+00  0.3999E+01  0.3999E+01
    -16.529  0.0000E+00  0.0000E+00  0.4000E+01  0.4000E+01
    -16.361  0.0000E+00  0.0000E+00  0.4000E+01  0.4000E+01
    -16.194  0.0000E+00  0.0000E+00  0.4000E+01  0.4000E+01
    -16.026  0.0000E+00  0.0000E+00  0.4000E+01  0.4000E+01
    -15.859  0.0000E+00  0.0000E+00  0.4000E+01  0.4000E+01
    -15.691  0.0000E+00  0.0000E+00  0.4000E+01  0.4000E+01
    -15.524  0.0000E+00  0.0000E+00  0.4000E+01  0.4000E+01
    -15.356  0.0000E+00  0.0000E+00  0.4000E+01  0.4000E+01
    -15.189  0.0000E+00  0.0000E+00  0.4000E+01  0.4000E+01
    -15.021  0.0000E+00  0.0000E+00  0.4000E+01  0.4000E+01
    -14.854  0.0000E+00  0.0000E+00  0.4000E+01  0.4000E+01
    -14.686  0.0000E+00  0.0000E+00  0.4000E+01  0.4000E+01
    -14.519  0.0000E+00  0.0000E+00  0.4000E+01  0.4000E+01
    -14.351  0.0000E+00  0.0000E+00  0.4000E+01  0.4000E+01
    -14.184  0.0000E+00  0.0000E+00  0.4000E+01  0.4000E+01
    -14.016  0.0000E+00  0.0000E+00  0.4000E+01  0.4000E+01
    -13.849  0.0000E+00  0.0000E+00  0.4000E+01  0.4000E+01
    -13.681  0.0000E+00  0.0000E+00  0.4000E+01  0.4000E+01
    -13.514  0.0000E+00  0.0000E+00  0.4000E+01  0.4000E+01
    -13.346  0.0000E+00  0.0000E+00  0.4000E+01  0.4000E+01
    -13.179  0.0000E+00  0.0000E+00  0.4000E+01  0.4000E+01
    -13.011  0.0000E+00  0.0000E+00  0.4000E+01  0.4000E+01
    -12.844  0.0000E+00  0.0000E+00  0.4000E+01  0.4000E+01
    -12.676  0.0000E+00  0.0000E+00  0.4000E+01  0.4000E+01
    -12.509  0.0000E+00  0.0000E+00  0.4000E+01  0.4000E+01
    -12.341  0.0000E+00  0.0000E+00  0.4000E+01  0.4000E+01
    -12.173  0.0000E+00  0.0000E+00  0.4000E+01  0.4000E+01
    -12.006  0.0000E+00  0.0000E+00  0.4000E+01  0.4000E+01
    -11.838  0.0000E+00  0.0000E+00  0.4000E+01  0.4000E+01
    -11.671  0.0000E+00  0.0000E+00  0.4000E+01  0.4000E+01
    -11.503  0.0000E+00  0.0000E+00  0.4000E+01  0.4000E+01
    -11.336  0.0000E+00  0.0000E+00  0.4000E+01  0.4000E+01
    -11.168  0.0000E+00  0.0000E+00  0.4000E+01  0.4000E+01
    -11.001  0.0000E+00  0.0000E+00  0.4000E+01  0.4000E+01
    -10.833  0.0000E+00  0.0000E+00  0.4000E+01  0.4000E+01
    -10.666  0.0000E+00  0.0000E+00  0.4000E+01  0.4000E+01
    -10.498  0.0000E+00  0.0000E+00  0.4000E+01  0.4000E+01
    -10.331  0.0000E+00  0.0000E+00  0.4000E+01  0.4000E+01
    -10.163  0.0000E+00  0.0000E+00  0.4000E+01  0.4000E+01
     -9.996  0.0000E+00  0.0000E+00  0.4000E+01  0.4000E+01
     -9.828  0.0000E+00  0.0000E+00  0.4000E+01  0.4000E+01
     -9.661  0.0000E+00  0.0000E+00  0.4000E+01  0.4000E+01
     -9.493  0.0000E+00  0.0000E+00  0.4000E+01  0.4000E+01
     -9.326  0.0000E+00  0.0000E+00  0.4000E+01  0.4000E+01
     -9.158  0.0000E+00  0.0000E+00  0.4000E+01  0.4000E+01
     -8.991  0.0000E+00  0.0000E+00  0.4000E+01  0.4000E+01
     -8.823  0.0000E+00  0.0000E+00  0.4000E+01  0.4000E+01
     -8.656  0.0000E+00  0.0000E+00  0.4000E+01  0.4000E+01
     -8.488  0.0000E+00  0.0000E+00  0.4000E+01  0.4000E+01
     -8.321  0.0000E+00  0.0000E+00  0.4000E+01  0.4000E+01
     -8.153  0.0000E+00  0.0000E+00  0.4000E+01  0.4000E+01
     -7.986  0.0000E+00  0.0000E+00  0.4000E+01  0.4000E+01
     -7.818  0.0000E+00  0.0000E+00  0.4000E+01  0.4000E+01
     -7.651  0.0000E+00  0.0000E+00  0.4000E+01  0.4000E+01
     -7.483  0.0000E+00  0.0000E+00  0.4000E+01  0.4000E+01
     -7.316  0.0000E+00  0.0000E+00  0.4000E+01  0.4000E+01
     -7.148  0.0000E+00  0.0000E+00  0.4000E+01  0.4000E+01
     -6.981  0.0000E+00  0.0000E+00  0.4000E+01  0.4000E+01
     -6.813  0.0000E+00  0.0000E+00  0.4000E+01  0.4000E+01
     -6.646  0.0000E+00  0.0000E+00  0.4000E+01  0.4000E+01
     -6.478  0.0000E+00  0.0000E+00  0.4000E+01  0.4000E+01
     -6.311  0.0000E+00  0.0000E+00  0.4000E+01  0.4000E+01
     -6.143  0.0000E+00  0.0000E+00  0.4000E+01  0.4000E+01
     -5.976  0.0000E+00  0.0000E+00  0.4000E+01  0.4000E+01
     -5.808  0.0000E+00  0.0000E+00  0.4000E+01  0.4000E+01
     -5.641  0.0000E+00  0.0000E+00  0.4000E+01  0.4000E+01
     -5.473  0.0000E+00  0.0000E+00  0.4000E+01  0.4000E+01
     -5.306  0.0000E+00  0.0000E+00  0.4000E+01  0.4000E+01
     -5.138  0.0000E+00  0.0000E+00  0.4000E+01  0.4000E+01
     -4.971  0.0000E+00  0.0000E+00  0.4000E+01  0.4000E+01
     -4.803  0.0000E+00  0.0000E+00  0.4000E+01  0.4000E+01
     -4.636  0.0000E+00  0.0000E+00  0.4000E+01  0.4000E+01
     -4.468  0.0000E+00  0.0000E+00  0.4000E+01  0.4000E+01
     -4.301  0.0000E+00  0.0000E+00  0.4000E+01  0.4000E+01
     -4.133  0.7528E-07  0.7524E-07  0.4000E+01  0.4000E+01
     -3.965  0.1388E-04  0.1387E-04  0.4000E+01  0.4000E+01
     -3.798  0.4107E-03  0.4105E-03  0.4000E+01  0.4000E+01
     -3.630  0.9738E-02  0.9732E-02  0.4002E+01  0.4002E+01
     -3.463  0.7214E-01  0.7211E-01  0.4014E+01  0.4014E+01
     -3.295  0.1516E+00  0.1516E+00  0.4039E+01  0.4039E+01
     -3.128  0.2113E+00  0.2112E+00  0.4075E+01  0.4075E+01
     -2.960  0.2468E+00  0.2468E+00  0.4116E+01  0.4116E+01
     -2.793  0.3071E+00  0.3070E+00  0.4168E+01  0.4167E+01
     -2.625  0.3168E+00  0.3167E+00  0.4221E+01  0.4221E+01
     -2.458  0.4009E+00  0.4007E+00  0.4288E+01  0.4288E+01
     -2.290  0.4095E+00  0.4094E+00  0.4357E+01  0.4357E+01
     -2.123  0.5242E+00  0.5239E+00  0.4445E+01  0.4445E+01
     -1.955  0.5114E+00  0.5113E+00  0.4531E+01  0.4530E+01
     -1.788  0.5092E+00  0.5094E+00  0.4616E+01  0.4616E+01
     -1.620  0.4355E+00  0.4353E+00  0.4689E+01  0.4689E+01
     -1.453  0.3951E+00  0.3954E+00  0.4756E+01  0.4756E+01
     -1.285  0.4177E+00  0.4176E+00  0.4826E+01  0.4826E+01
     -1.118  0.4581E+00  0.4583E+00  0.4903E+01  0.4903E+01
     -0.950  0.4995E+00  0.4996E+00  0.4987E+01  0.4987E+01
     -0.783  0.4705E+00  0.4705E+00  0.5066E+01  0.5066E+01
     -0.615  0.5945E+00  0.5946E+00  0.5166E+01  0.5166E+01
     -0.448  0.5865E+00  0.5862E+00  0.5264E+01  0.5264E+01
     -0.280  0.6656E+00  0.6654E+00  0.5376E+01  0.5376E+01
     -0.113  0.8604E+00  0.8600E+00  0.5520E+01  0.5520E+01
      0.055  0.8823E+00  0.8824E+00  0.5668E+01  0.5668E+01
      0.222  0.8531E+00  0.8529E+00  0.5811E+01  0.5811E+01
      0.390  0.8476E+00  0.8479E+00  0.5954E+01  0.5954E+01
      0.557  0.6773E+00  0.6773E+00  0.6068E+01  0.6067E+01
      0.725  0.8310E+00  0.8309E+00  0.6207E+01  0.6207E+01
      0.892  0.7136E+00  0.7137E+00  0.6327E+01  0.6327E+01
      1.060  0.4779E+00  0.4786E+00  0.6408E+01  0.6407E+01
      1.227  0.5295E+00  0.5292E+00  0.6496E+01  0.6496E+01
      1.395  0.5404E+00  0.5405E+00  0.6587E+01  0.6587E+01
      1.562  0.5003E+00  0.5005E+00  0.6671E+01  0.6671E+01
      1.730  0.4974E+00  0.4977E+00  0.6755E+01  0.6755E+01
      1.897  0.5193E+00  0.5194E+00  0.6842E+01  0.6842E+01
      2.065  0.7757E+00  0.7759E+00  0.6972E+01  0.6972E+01
      2.232  0.7975E+00  0.7973E+00  0.7106E+01  0.7106E+01
      2.400  0.8571E+00  0.8577E+00  0.7250E+01  0.7250E+01
      2.567  0.8989E+00  0.8989E+00  0.7401E+01  0.7401E+01
      2.735  0.8893E+00  0.8893E+00  0.7550E+01  0.7550E+01
      2.902  0.1025E+01  0.1025E+01  0.7722E+01  0.7722E+01
      3.070  0.1076E+01  0.1076E+01  0.7903E+01  0.7903E+01
      3.237  0.1140E+01  0.1140E+01  0.8094E+01  0.8094E+01
      3.405  0.1098E+01  0.1098E+01  0.8278E+01  0.8279E+01
      3.572  0.1344E+01  0.1345E+01  0.8504E+01  0.8504E+01
      3.740  0.1274E+01  0.1273E+01  0.8718E+01  0.8718E+01
      3.907  0.1266E+01  0.1265E+01  0.8931E+01  0.8931E+01
      4.075  0.9676E+00  0.9676E+00  0.9094E+01  0.9094E+01
      4.242  0.1107E+01  0.1107E+01  0.9280E+01  0.9280E+01
      4.410  0.9944E+00  0.9940E+00  0.9447E+01  0.9447E+01
      4.578  0.7231E+00  0.7230E+00  0.9568E+01  0.9568E+01
      4.745  0.7445E+00  0.7453E+00  0.9693E+01  0.9694E+01
      4.913  0.1130E+01  0.1129E+01  0.9883E+01  0.9883E+01
      5.080  0.1199E+01  0.1199E+01  0.1008E+02  0.1008E+02
      5.248  0.1016E+01  0.1016E+01  0.1025E+02  0.1025E+02
      5.415  0.8640E+00  0.8640E+00  0.1040E+02  0.1040E+02
      5.583  0.1206E+01  0.1206E+01  0.1060E+02  0.1060E+02
      5.750  0.1142E+01  0.1142E+01  0.1079E+02  0.1079E+02
      5.918  0.9230E+00  0.9230E+00  0.1095E+02  0.1095E+02
      6.085  0.8964E+00  0.8965E+00  0.1110E+02  0.1110E+02
      6.253  0.8587E+00  0.8588E+00  0.1124E+02  0.1124E+02
      6.420  0.1187E+01  0.1188E+01  0.1144E+02  0.1144E+02
      6.588  0.1044E+01  0.1043E+01  0.1162E+02  0.1162E+02
      6.755  0.1190E+01  0.1190E+01  0.1182E+02  0.1182E+02
      6.923  0.1101E+01  0.1101E+01  0.1200E+02  0.1200E+02
      7.090  0.1060E+01  0.1060E+01  0.1218E+02  0.1218E+02
      7.258  0.1345E+01  0.1346E+01  0.1241E+02  0.1241E+02
      7.425  0.1606E+01  0.1608E+01  0.1268E+02  0.1268E+02
      7.593  0.1749E+01  0.1747E+01  0.1297E+02  0.1297E+02
      7.760  0.1836E+01  0.1835E+01  0.1328E+02  0.1328E+02
      7.928  0.2017E+01  0.2016E+01  0.1362E+02  0.1362E+02
      8.095  0.2071E+01  0.2069E+01  0.1396E+02  0.1396E+02
      8.263  0.2014E+01  0.2009E+01  0.1430E+02  0.1430E+02
      8.430  0.1917E+01  0.1923E+01  0.1462E+02  0.1462E+02
      8.598  0.2182E+01  0.2175E+01  0.1499E+02  0.1499E+02
      8.765  0.2308E+01  0.2272E+01  0.1538E+02  0.1537E+02
      8.933  0.1645E+01  0.1618E+01  0.1565E+02  0.1564E+02
      9.100  0.8836E+00  0.9216E+00  0.1580E+02  0.1580E+02
      9.268  0.4696E+00  0.4996E+00  0.1588E+02  0.1588E+02
      9.435  0.3357E+00  0.3561E+00  0.1594E+02  0.1594E+02
      9.603  0.2605E+00  0.2456E+00  0.1598E+02  0.1598E+02
      9.770  0.8897E-01  0.8293E-01  0.1600E+02  0.1600E+02
      9.938  0.5664E-02  0.5803E-02  0.1600E+02  0.1600E+02
     10.105  0.0000E+00  0.0000E+00  0.1600E+02  0.1600E+02
     10.273  0.0000E+00  0.0000E+00  0.1600E+02  0.1600E+02
     10.440  0.0000E+00  0.0000E+00  0.1600E+02  0.1600E+02
     10.608  0.0000E+00  0.0000E+00  0.1600E+02  0.1600E+02
     10.775  0.0000E+00  0.0000E+00  0.1600E+02  0.1600E+02
     10.943  0.0000E+00  0.0000E+00  0.1600E+02  0.1600E+02
     11.110  0.0000E+00  0.0000E+00  0.1600E+02  0.1600E+02
     11.278  0.0000E+00  0.0000E+00  0.1600E+02  0.1600E+02
     11.445  0.0000E+00  0.0000E+00  0.1600E+02  0.1600E+02
     11.613  0.0000E+00  0.0000E+00  0.1600E+02  0.1600E+02
     11.780  0.0000E+00  0.0000E+00  0.1600E+02  0.1600E+02
     11.948  0.0000E+00  0.0000E+00  0.1600E+02  0.1600E+02
     11.94793705    -38.30501598  301      4.47757632      1.00000000
    -38.305  0.0000E+00  0.0000E+00  0.0000E+00  0.0000E+00  0.0000E+00  0.0000E+00  0.0000E+00  0.0000E+00  0.0000E+00  0.0000E+00  0.0000E+00  0.0000E+00  0.0000E+00  0.0000E+00  0.0000E+00  0.0000E+00  0.0000E+00  0.0000E+00
    -38.138  0.0000E+00  0.0000E+00  0.0000E+00  0.0000E+00  0.0000E+00  0.0000E+00  0.0000E+00  0.0000E+00  0.0000E+00  0.0000E+00  0.0000E+00  0.0000E+00  0.0000E+00  0.0000E+00  0.0000E+00  0.0000E+00  0.0000E+00  0.0000E+00
    -37.970  0.0000E+00  0.0000E+00  0.0000E+00  0.0000E+00  0.0000E+00  0.0000E+00  0.0000E+00  0.0000E+00  0.0000E+00  0.0000E+00  0.0000E+00  0.0000E+00  0.0000E+00  0.0000E+00  0.0000E+00  0.0000E+00  0.0000E+00  0.0000E+00
    -37.802  0.0000E+00  0.0000E+00  0.0000E+00  0.0000E+00  0.0000E+00  0.0000E+00  0.0000E+00  0.0000E+00  0.0000E+00  0.0000E+00  0.0000E+00  0.0000E+00  0.0000E+00  0.0000E+00  0.0000E+00  0.0000E+00  0.0000E+00  0.0000E+00
    -37.635  0.0000E+00  0.0000E+00  0.0000E+00  0.0000E+00  0.0000E+00  0.0000E+00  0.0000E+00  0.0000E+00  0.0000E+00  0.0000E+00  0.0000E+00  0.0000E+00  0.0000E+00  0.0000E+00  0.0000E+00  0.0000E+00  0.0000E+00  0.0000E+00
    -37.467  0.0000E+00  0.0000E+00  0.0000E+00  0.0000E+00  0.0000E+00  0.0000E+00  0.0000E+00  0.0000E+00  0.0000E+00  0.0000E+00  0.0000E+00  0.0000E+00  0.0000E+00  0.0000E+00  0.0000E+00  0.0000E+00  0.0000E+00  0.0000E+00
    -37.300  0.0000E+00  0.0000E+00  0.0000E+00  0.0000E+00  0.0000E+00  0.0000E+00  0.0000E+00  0.0000E+00  0.0000E+00  0.0000E+00  0.0000E+00  0.0000E+00  0.0000E+00  0.0000E+00  0.0000E+00  0.0000E+00  0.0000E+00  0.0000E+00
    -37.132  0.0000E+00  0.0000E+00  0.0000E+00  0.0000E+00  0.0000E+00  0.0000E+00  0.0000E+00  0.0000E+00  0.0000E+00  0.0000E+00  0.0000E+00  0.0000E+00  0.0000E+00  0.0000E+00  0.0000E+00  0.0000E+00  0.0000E+00  0.0000E+00
    -36.965  0.0000E+00  0.0000E+00  0.0000E+00  0.0000E+00  0.0000E+00  0.0000E+00  0.0000E+00  0.0000E+00  0.0000E+00  0.0000E+00  0.0000E+00  0.0000E+00  0.0000E+00  0.0000E+00  0.0000E+00  0.0000E+00  0.0000E+00  0.0000E+00
    -36.797  0.0000E+00  0.0000E+00  0.0000E+00  0.0000E+00  0.0000E+00  0.0000E+00  0.0000E+00  0.0000E+00  0.0000E+00  0.0000E+00  0.0000E+00  0.0000E+00  0.0000E+00  0.0000E+00  0.0000E+00  0.0000E+00  0.0000E+00  0.0000E+00
    -36.630  0.0000E+00  0.0000E+00  0.0000E+00  0.0000E+00  0.0000E+00  0.0000E+00  0.0000E+00  0.0000E+00  0.0000E+00  0.0000E+00  0.0000E+00  0.0000E+00  0.0000E+00  0.0000E+00  0.0000E+00  0.0000E+00  0.0000E+00  0.0000E+00
    -36.462  0.8413E-03  0.8151E-03  0.5142E-12  0.6471E-12  0.5142E-12  0.6471E-12  0.5215E-12  0.6494E-12  0.1187E-14  0.2800E-13  0.1084E-14  0.2800E-13  0.3159E-12  0.4538E-12  0.1187E-14  0.2800E-13  0.3120E-12  0.4550E-12
    -36.295  0.2305E-01  0.2233E-01  0.1409E-10  0.1773E-10  0.1409E-10  0.1773E-10  0.1429E-10  0.1779E-10  0.3253E-13  0.7671E-12  0.2970E-13  0.7671E-12  0.8654E-11  0.1243E-10  0.3253E-13  0.7671E-12  0.8549E-11  0.1247E-10
    -36.127  0.5887E+00  0.5723E+00  0.3598E-09  0.4544E-09  0.3598E-09  0.4544E-09  0.3649E-09  0.4560E-09  0.8311E-12  0.1966E-10  0.7590E-12  0.1966E-10  0.2211E-09  0.3186E-09  0.8311E-12  0.1966E-10  0.2184E-09  0.3195E-09
    -35.960  0.3907E+01  0.3891E+01  0.2388E-08  0.3090E-08  0.2388E-08  0.3090E-08  0.2422E-08  0.3101E-08  0.5529E-11  0.1337E-09  0.5049E-11  0.1337E-09  0.1468E-08  0.2166E-08  0.5529E-11  0.1337E-09  0.1449E-08  0.2171E-08
    -35.792  0.1302E+01  0.1334E+01  0.7961E-09  0.1060E-08  0.7961E-09  0.1060E-08  0.8074E-09  0.1064E-08  0.1848E-11  0.4586E-10  0.1688E-11  0.4584E-10  0.4895E-09  0.7429E-09  0.1848E-11  0.4586E-10  0.4829E-09  0.7439E-09
    -35.625  0.5945E-01  0.6134E-01  0.3634E-10  0.4875E-10  0.3634E-10  0.4875E-10  0.3686E-10  0.4891E-10  0.8443E-13  0.2109E-11  0.7710E-13  0.2108E-11  0.2235E-10  0.3416E-10  0.8443E-13  0.2109E-11  0.2204E-10  0.3420E-10
    -35.457  0.0000E+00  0.0000E+00  0.0000E+00  0.0000E+00  0.0000E+00  0.0000E+00  0.0000E+00  0.0000E+00  0.0000E+00  0.0000E+00  0.0000E+00  0.0000E+00  0.0000E+00  0.0000E+00  0.0000E+00  0.0000E+00  0.0000E+00  0.0000E+00
    -35.290  0.0000E+00  0.0000E+00  0.0000E+00  0.0000E+00  0.0000E+00  0.0000E+00  0.0000E+00  0.0000E+00  0.0000E+00  0.0000E+00  0.0000E+00  0.0000E+00  0.0000E+00  0.0000E+00  0.0000E+00  0.0000E+00  0.0000E+00  0.0000E+00
    -35.122  0.0000E+00  0.0000E+00  0.0000E+00  0.0000E+00  0.0000E+00  0.0000E+00  0.0000E+00  0.0000E+00  0.0000E+00  0.0000E+00  0.0000E+00  0.0000E+00  0.0000E+00  0.0000E+00  0.0000E+00  0.0000E+00  0.0000E+00  0.0000E+00
    -34.955  0.0000E+00  0.0000E+00  0.0000E+00  0.0000E+00  0.0000E+00  0.0000E+00  0.0000E+00  0.0000E+00  0.0000E+00  0.0000E+00  0.0000E+00  0.0000E+00  0.0000E+00  0.0000E+00  0.0000E+00  0.0000E+00  0.0000E+00  0.0000E+00
    -34.787  0.0000E+00  0.0000E+00  0.0000E+00  0.0000E+00  0.0000E+00  0.0000E+00  0.0000E+00  0.0000E+00  0.0000E+00  0.0000E+00  0.0000E+00  0.0000E+00  0.0000E+00  0.0000E+00  0.0000E+00  0.0000E+00  0.0000E+00  0.0000E+00
    -34.620  0.0000E+00  0.0000E+00  0.0000E+00  0.0000E+00  0.0000E+00  0.0000E+00  0.0000E+00  0.0000E+00  0.0000E+00  0.0000E+00  0.0000E+00  0.0000E+00  0.0000E+00  0.0000E+00  0.0000E+00  0.0000E+00  0.0000E+00  0.0000E+00
    -34.452  0.0000E+00  0.0000E+00  0.0000E+00  0.0000E+00  0.0000E+00  0.0000E+00  0.0000E+00  0.0000E+00  0.0000E+00  0.0000E+00  0.0000E+00  0.0000E+00  0.0000E+00  0.0000E+00  0.0000E+00  0.0000E+00  0.0000E+00  0.0000E+00
    -34.285  0.0000E+00  0.0000E+00  0.0000E+00  0.0000E+00  0.0000E+00  0.0000E+00  0.0000E+00  0.0000E+00  0.0000E+00  0.0000E+00  0.0000E+00  0.0000E+00  0.0000E+00  0.0000E+00  0.0000E+00  0.0000E+00  0.0000E+00  0.0000E+00
    -34.117  0.0000E+00  0.0000E+00  0.0000E+00  0.0000E+00  0.0000E+00  0.0000E+00  0.0000E+00  0.0000E+00  0.0000E+00  0.0000E+00  0.0000E+00  0.0000E+00  0.0000E+00  0.0000E+00  0.0000E+00  0.0000E+00  0.0000E+00  0.0000E+00
    -33.950  0.0000E+00  0.0000E+00  0.0000E+00  0.0000E+00  0.0000E+00  0.0000E+00  0.0000E+00  0.0000E+00  0.0000E+00  0.0000E+00  0.0000E+00  0.0000E+00  0.0000E+00  0.0000E+00  0.0000E+00  0.0000E+00  0.0000E+00  0.0000E+00
    -33.782  0.0000E+00  0.0000E+00  0.0000E+00  0.0000E+00  0.0000E+00  0.0000E+00  0.0000E+00  0.0000E+00  0.0000E+00  0.0000E+00  0.0000E+00  0.0000E+00  0.0000E+00  0.0000E+00  0.0000E+00  0.0000E+00  0.0000E+00  0.0000E+00
    -33.615  0.0000E+00  0.0000E+00  0.0000E+00  0.0000E+00  0.0000E+00  0.0000E+00  0.0000E+00  0.0000E+00  0.0000E+00  0.0000E+00  0.0000E+00  0.0000E+00  0.0000E+00  0.0000E+00  0.0000E+00  0.0000E+00  0.0000E+00  0.0000E+00
    -33.447  0.0000E+00  0.0000E+00  0.0000E+00  0.0000E+00  0.0000E+00  0.0000E+00  0.0000E+00  0.0000E+00  0.0000E+00  0.0000E+00  0.0000E+00  0.0000E+00  0.0000E+00  0.0000E+00  0.0000E+00  0.0000E+00  0.0000E+00  0.0000E+00
    -33.280  0.0000E+00  0.0000E+00  0.0000E+00  0.0000E+00  0.0000E+00  0.0000E+00  0.0000E+00  0.0000E+00  0.0000E+00  0.0000E+00  0.0000E+00  0.0000E+00  0.0000E+00  0.0000E+00  0.0000E+00  0.0000E+00  0.0000E+00  0.0000E+00
    -33.112  0.0000E+00  0.0000E+00  0.0000E+00  0.0000E+00  0.0000E+00  0.0000E+00  0.0000E+00  0.0000E+00  0.0000E+00  0.0000E+00  0.0000E+00  0.0000E+00  0.0000E+00  0.0000E+00  0.0000E+00  0.0000E+00  0.0000E+00  0.0000E+00
    -32.945  0.0000E+00  0.0000E+00  0.0000E+00  0.0000E+00  0.0000E+00  0.0000E+00  0.0000E+00  0.0000E+00  0.0000E+00  0.0000E+00  0.0000E+00  0.0000E+00  0.0000E+00  0.0000E+00  0.0000E+00  0.0000E+00  0.0000E+00  0.0000E+00
    -32.777  0.0000E+00  0.0000E+00  0.0000E+00  0.0000E+00  0.0000E+00  0.0000E+00  0.0000E+00  0.0000E+00  0.0000E+00  0.0000E+00  0.0000E+00  0.0000E+00  0.0000E+00  0.0000E+00  0.0000E+00  0.0000E+00  0.0000E+00  0.0000E+00
    -32.610  0.0000E+00  0.0000E+00  0.0000E+00  0.0000E+00  0.0000E+00  0.0000E+00  0.0000E+00  0.0000E+00  0.0000E+00  0.0000E+00  0.0000E+00  0.0000E+00  0.0000E+00  0.0000E+00  0.0000E+00  0.0000E+00  0.0000E+00  0.0000E+00
    -32.442  0.0000E+00  0.0000E+00  0.0000E+00  0.0000E+00  0.0000E+00  0.0000E+00  0.0000E+00  0.0000E+00  0.0000E+00  0.0000E+00  0.0000E+00  0.0000E+00  0.0000E+00  0.0000E+00  0.0000E+00  0.0000E+00  0.0000E+00  0.0000E+00
    -32.275  0.0000E+00  0.0000E+00  0.0000E+00  0.0000E+00  0.0000E+00  0.0000E+00  0.0000E+00  0.0000E+00  0.0000E+00  0.0000E+00  0.0000E+00  0.0000E+00  0.0000E+00  0.0000E+00  0.0000E+00  0.0000E+00  0.0000E+00  0.0000E+00
    -32.107  0.0000E+00  0.0000E+00  0.0000E+00  0.0000E+00  0.0000E+00  0.0000E+00  0.0000E+00  0.0000E+00  0.0000E+00  0.0000E+00  0.0000E+00  0.0000E+00  0.0000E+00  0.0000E+00  0.0000E+00  0.0000E+00  0.0000E+00  0.0000E+00
    -31.940  0.0000E+00  0.0000E+00  0.0000E+00  0.0000E+00  0.0000E+00  0.0000E+00  0.0000E+00  0.0000E+00  0.0000E+00  0.0000E+00  0.0000E+00  0.0000E+00  0.0000E+00  0.0000E+00  0.0000E+00  0.0000E+00  0.0000E+00  0.0000E+00
    -31.772  0.0000E+00  0.0000E+00  0.0000E+00  0.0000E+00  0.0000E+00  0.0000E+00  0.0000E+00  0.0000E+00  0.0000E+00  0.0000E+00  0.0000E+00  0.0000E+00  0.0000E+00  0.0000E+00  0.0000E+00  0.0000E+00  0.0000E+00  0.0000E+00
    -31.605  0.0000E+00  0.0000E+00  0.0000E+00  0.0000E+00  0.0000E+00  0.0000E+00  0.0000E+00  0.0000E+00  0.0000E+00  0.0000E+00  0.0000E+00  0.0000E+00  0.0000E+00  0.0000E+00  0.0000E+00  0.0000E+00  0.0000E+00  0.0000E+00
    -31.437  0.0000E+00  0.0000E+00  0.0000E+00  0.0000E+00  0.0000E+00  0.0000E+00  0.0000E+00  0.0000E+00  0.0000E+00  0.0000E+00  0.0000E+00  0.0000E+00  0.0000E+00  0.0000E+00  0.0000E+00  0.0000E+00  0.0000E+00  0.0000E+00
    -31.270  0.0000E+00  0.0000E+00  0.0000E+00  0.0000E+00  0.0000E+00  0.0000E+00  0.0000E+00  0.0000E+00  0.0000E+00  0.0000E+00  0.0000E+00  0.0000E+00  0.0000E+00  0.0000E+00  0.0000E+00  0.0000E+00  0.0000E+00  0.0000E+00
    -31.102  0.0000E+00  0.0000E+00  0.0000E+00  0.0000E+00  0.0000E+00  0.0000E+00  0.0000E+00  0.0000E+00  0.0000E+00  0.0000E+00  0.0000E+00  0.0000E+00  0.0000E+00  0.0000E+00  0.0000E+00  0.0000E+00  0.0000E+00  0.0000E+00
    -30.935  0.0000E+00  0.0000E+00  0.0000E+00  0.0000E+00  0.0000E+00  0.0000E+00  0.0000E+00  0.0000E+00  0.0000E+00  0.0000E+00  0.0000E+00  0.0000E+00  0.0000E+00  0.0000E+00  0.0000E+00  0.0000E+00  0.0000E+00  0.0000E+00
    -30.767  0.0000E+00  0.0000E+00  0.0000E+00  0.0000E+00  0.0000E+00  0.0000E+00  0.0000E+00  0.0000E+00  0.0000E+00  0.0000E+00  0.0000E+00  0.0000E+00  0.0000E+00  0.0000E+00  0.0000E+00  0.0000E+00  0.0000E+00  0.0000E+00
    -30.600  0.0000E+00  0.0000E+00  0.0000E+00  0.0000E+00  0.0000E+00  0.0000E+00  0.0000E+00  0.0000E+00  0.0000E+00  0.0000E+00  0.0000E+00  0.0000E+00  0.0000E+00  0.0000E+00  0.0000E+00  0.0000E+00  0.0000E+00  0.0000E+00
    -30.432  0.0000E+00  0.0000E+00  0.0000E+00  0.0000E+00  0.0000E+00  0.0000E+00  0.0000E+00  0.0000E+00  0.0000E+00  0.0000E+00  0.0000E+00  0.0000E+00  0.0000E+00  0.0000E+00  0.0000E+00  0.0000E+00  0.0000E+00  0.0000E+00
    -30.265  0.0000E+00  0.0000E+00  0.0000E+00  0.0000E+00  0.0000E+00  0.0000E+00  0.0000E+00  0.0000E+00  0.0000E+00  0.0000E+00  0.0000E+00  0.0000E+00  0.0000E+00  0.0000E+00  0.0000E+00  0.0000E+00  0.0000E+00  0.0000E+00
    -30.097  0.0000E+00  0.0000E+00  0.0000E+00  0.0000E+00  0.0000E+00  0.0000E+00  0.0000E+00  0.0000E+00  0.0000E+00  0.0000E+00  0.0000E+00  0.0000E+00  0.0000E+00  0.0000E+00  0.0000E+00  0.0000E+00  0.0000E+00  0.0000E+00
    -29.930  0.0000E+00  0.0000E+00  0.0000E+00  0.0000E+00  0.0000E+00  0.0000E+00  0.0000E+00  0.0000E+00  0.0000E+00  0.0000E+00  0.0000E+00  0.0000E+00  0.0000E+00  0.0000E+00  0.0000E+00  0.0000E+00  0.0000E+00  0.0000E+00