   4   4   1   0
  0.2114492E+02  0.4388594E-09  0.4390059E-09  0.4390059E-09  0.5000000E-15
  1.000000000000000E-004
  CAR 
 unknown system                          
     13.31559293    -37.06197121  301      5.30547627      1.00000000
    -37.062  0.0000E+00  0.0000E+00  0.0000E+00  0.0000E+00
    -36.894  0.0000E+00  0.0000E+00  0.0000E+00  0.0000E+00
    -36.726  0.0000E+00  0.0000E+00  0.0000E+00  0.0000E+00
    -36.558  0.0000E+00  0.0000E+00  0.0000E+00  0.0000E+00
    -36.390  0.0000E+00  0.0000E+00  0.0000E+00  0.0000E+00
    -36.222  0.0000E+00  0.0000E+00  0.0000E+00  0.0000E+00
    -36.054  0.0000E+00  0.0000E+00  0.0000E+00  0.0000E+00
    -35.886  0.0000E+00  0.0000E+00  0.0000E+00  0.0000E+00
    -35.719  0.0000E+00  0.0000E+00  0.0000E+00  0.0000E+00
    -35.551  0.0000E+00  0.0000E+00  0.0000E+00  0.0000E+00
    -35.383  0.0000E+00  0.0000E+00  0.0000E+00  0.0000E+00
    -35.215  0.8169E-03  0.7940E-03  0.1372E-03  0.1333E-03
    -35.047  0.2258E-01  0.2195E-01  0.3928E-02  0.3819E-02
    -34.879  0.5830E+00  0.5683E+00  0.1018E+00  0.9926E-01
    -34.711  0.3950E+01  0.3935E+01  0.7652E+00  0.7600E+00
    -34.543  0.1336E+01  0.1364E+01  0.9894E+00  0.9891E+00
    -34.375  0.6070E-01  0.6243E-01  0.9996E+00  0.9996E+00
    -34.207  0.0000E+00  0.0000E+00  0.1000E+01  0.1000E+01
    -34.039  0.0000E+00  0.0000E+00  0.1000E+01  0.1000E+01
    -33.871  0.0000E+00  0.0000E+00  0.1000E+01  0.1000E+01
    -33.703  0.0000E+00  0.0000E+00  0.1000E+01  0.1000E+01
    -33.536  0.0000E+00  0.0000E+00  0.1000E+01  0.1000E+01
    -33.368  0.0000E+00  0.0000E+00  0.1000E+01  0.1000E+01
    -33.200  0.0000E+00  0.0000E+00  0.1000E+01  0.1000E+01
    -33.032  0.0000E+00  0.0000E+00  0.1000E+01  0.1000E+01
    -32.864  0.0000E+00  0.0000E+00  0.1000E+01  0.1000E+01
    -32.696  0.0000E+00  0.0000E+00  0.1000E+01  0.1000E+01
    -32.528  0.0000E+00  0.0000E+00  0.1000E+01  0.1000E+01
    -32.360  0.0000E+00  0.0000E+00  0.1000E+01  0.1000E+01
    -32.192  0.0000E+00  0.0000E+00  0.1000E+01  0.1000E+01
    -32.024  0.0000E+00  0.0000E+00  0.1000E+01  0.1000E+01
    -31.856  0.0000E+00  0.0000E+00  0.1000E+01  0.1000E+01
    -31.688  0.0000E+00  0.0000E+00  0.1000E+01  0.1000E+01
    -31.520  0.0000E+00  0.0000E+00  0.1000E+01  0.1000E+01
    -31.353  0.0000E+00  0.0000E+00  0.1000E+01  0.1000E+01
    -31.185  0.0000E+00  0.0000E+00  0.1000E+01  0.1000E+01
    -31.017  0.0000E+00  0.0000E+00  0.1000E+01  0.1000E+01
    -30.849  0.0000E+00  0.0000E+00  0.1000E+01  0.1000E+01
    -30.681  0.0000E+00  0.0000E+00  0.1000E+01  0.1000E+01
    -30.513  0.0000E+00  0.0000E+00  0.1000E+01  0.1000E+01
    -30.345  0.0000E+00  0.0000E+00  0.1000E+01  0.1000E+01
    -30.177  0.0000E+00  0.0000E+00  0.1000E+01  0.1000E+01
    -30.009  0.0000E+00  0.0000E+00  0.1000E+01  0.1000E+01
    -29.841  0.0000E+00  0.0000E+00  0.1000E+01  0.1000E+01
    -29.673  0.0000E+00  0.0000E+00  0.1000E+01  0.1000E+01
    -29.505  0.0000E+00  0.0000E+00  0.1000E+01  0.1000E+01
    -29.337  0.0000E+00  0.0000E+00  0.1000E+01  0.1000E+01
    -29.169  0.0000E+00  0.0000E+00  0.1000E+01  0.1000E+01
    -29.002  0.0000E+00  0.0000E+00  0.1000E+01  0.1000E+01
    -28.834  0.0000E+00  0.0000E+00  0.1000E+01  0.1000E+01
    -28.666  0.0000E+00  0.0000E+00  0.1000E+01  0.1000E+01
    -28.498  0.0000E+00  0.0000E+00  0.1000E+01  0.1000E+01
    -28.330  0.0000E+00  0.0000E+00  0.1000E+01  0.1000E+01
    -28.162  0.0000E+00  0.0000E+00  0.1000E+01  0.1000E+01
    -27.994  0.0000E+00  0.0000E+00  0.1000E+01  0.1000E+01
    -27.826  0.0000E+00  0.0000E+00  0.1000E+01  0.1000E+01
    -27.658  0.0000E+00  0.0000E+00  0.1000E+01  0.1000E+01
    -27.490  0.0000E+00  0.0000E+00  0.1000E+01  0.1000E+01
    -27.322  0.0000E+00  0.0000E+00  0.1000E+01  0.1000E+01
    -27.154  0.0000E+00  0.0000E+00  0.1000E+01  0.1000E+01
    -26.986  0.0000E+00  0.0000E+00  0.1000E+01  0.1000E+01
    -26.819  0.0000E+00  0.0000E+00  0.1000E+01  0.1000E+01
    -26.651  0.0000E+00  0.0000E+00  0.1000E+01  0.1000E+01
    -26.483  0.0000E+00  0.0000E+00  0.1000E+01  0.1000E+01
    -26.315  0.0000E+00  0.0000E+00  0.1000E+01  0.1000E+01
    -26.147  0.0000E+00  0.0000E+00  0.1000E+01  0.1000E+01
    -25.979  0.0000E+00  0.0000E+00  0.1000E+01  0.1000E+01
    -25.811  0.0000E+00  0.0000E+00  0.1000E+01  0.1000E+01
    -25.643  0.0000E+00  0.0000E+00  0.1000E+01  0.1000E+01
    -25.475  0.0000E+00  0.0000E+00  0.1000E+01  0.1000E+01
    -25.307  0.0000E+00  0.0000E+00  0.1000E+01  0.1000E+01
    -25.139  0.0000E+00  0.0000E+00  0.1000E+01  0.1000E+01
    -24.971  0.0000E+00  0.0000E+00  0.1000E+01  0.1000E+01
    -24.803  0.0000E+00  0.0000E+00  0.1000E+01  0.1000E+01
    -24.636  0.0000E+00  0.0000E+00  0.1000E+01  0.1000E+01
    -24.468  0.0000E+00  0.0000E+00  0.1000E+01  0.1000E+01
    -24.300  0.0000E+00  0.0000E+00  0.1000E+01  0.1000E+01
    -24.132  0.0000E+00  0.0000E+00  0.1000E+01  0.1000E+01
    -23.964  0.0000E+00  0.0000E+00  0.1000E+01  0.1000E+01
    -23.796  0.0000E+00  0.0000E+00  0.1000E+01  0.1000E+01
    -23.628  0.0000E+00  0.0000E+00  0.1000E+01  0.1000E+01
    -23.460  0.0000E+00  0.0000E+00  0.1000E+01  0.1000E+01
    -23.292  0.0000E+00  0.0000E+00  0.1000E+01  0.1000E+01
    -23.124  0.0000E+00  0.0000E+00  0.1000E+01  0.1000E+01
    -22.956  0.0000E+00  0.0000E+00  0.1000E+01  0.1000E+01
    -22.788  0.0000E+00  0.0000E+00  0.1000E+01  0.1000E+01
    -22.620  0.0000E+00  0.0000E+00  0.1000E+01  0.1000E+01
    -22.452  0.0000E+00  0.0000E+00  0.1000E+01  0.1000E+01
    -22.285  0.0000E+00  0.0000E+00  0.1000E+01  0.1000E+01
    -22.117  0.0000E+00  0.0000E+00  0.1000E+01  0.1000E+01
    -21.949  0.0000E+00  0.0000E+00  0.1000E+01  0.1000E+01
    -21.781  0.0000E+00  0.0000E+00  0.1000E+01  0.1000E+01
    -21.613  0.0000E+00  0.0000E+00  0.1000E+01  0.1000E+01
    -21.445  0.0000E+00  0.0000E+00  0.1000E+01  0.1000E+01
    -21.277  0.0000E+00  0.0000E+00  0.1000E+01  0.1000E+01
    -21.109  0.0000E+00  0.0000E+00  0.1000E+01  0.1000E+01
    -20.941  0.0000E+00  0.0000E+00  0.1000E+01  0.1000E+01
    -20.773  0.0000E+00  0.0000E+00  0.1000E+01  0.1000E+01
    -20.605  0.0000E+00  0.0000E+00  0.1000E+01  0.1000E+01
    -20.437  0.0000E+00  0.0000E+00  0.1000E+01  0.1000E+01
    -20.269  0.0000E+00  0.0000E+00  0.1000E+01  0.1000E+01
    -20.102  0.0000E+00  0.0000E+00  0.1000E+01  0.1000E+01
    -19.934  0.0000E+00  0.0000E+00  0.1000E+01  0.1000E+01
    -19.766  0.0000E+00  0.0000E+00  0.1000E+01  0.1000E+01
    -19.598  0.0000E+00  0.0000E+00  0.1000E+01  0.1000E+01
    -19.430  0.0000E+00  0.0000E+00  0.1000E+01  0.1000E+01
    -19.262  0.0000E+00  0.0000E+00  0.1000E+01  0.1000E+01
    -19.094  0.0000E+00  0.0000E+00  0.1000E+01  0.1000E+01
    -18.926  0.0000E+00  0.0000E+00  0.1000E+01  0.1000E+01
    -18.758  0.0000E+00  0.0000E+00  0.1000E+01  0.1000E+01
    -18.590  0.0000E+00  0.0000E+00  0.1000E+01  0.1000E+01
    -18.422  0.0000E+00  0.0000E+00  0.1000E+01  0.1000E+01
    -18.254  0.0000E+00  0.0000E+00  0.1000E+01  0.1000E+01
    -18.086  0.0000E+00  0.0000E+00  0.1000E+01  0.1000E+01
    -17.918  0.0000E+00  0.0000E+00  0.1000E+01  0.1000E+01
    -17.751  0.0000E+00  0.0000E+00  0.1000E+01  0.1000E+01
    -17.583  0.0000E+00  0.0000E+00  0.1000E+01  0.1000E+01
    -17.415  0.0000E+00  0.0000E+00  0.1000E+01  0.1000E+01
    -17.247  0.0000E+00  0.0000E+00  0.1000E+01  0.1000E+01
    -17.079  0.0000E+00  0.0000E+00  0.1000E+01  0.1000E+01
    -16.911  0.0000E+00  0.0000E+00  0.1000E+01  0.1000E+01
    -16.743  0.0000E+00  0.0000E+00  0.1000E+01  0.1000E+01
    -16.575  0.0000E+00  0.0000E+00  0.1000E+01  0.1000E+01
    -16.407  0.5942E-03  0.5760E-03  0.1000E+01  0.1000E+01
    -16.239  0.1647E-01  0.1597E-01  0.1003E+01  0.1003E+01
    -16.071  0.4599E+00  0.4462E+00  0.1080E+01  0.1078E+01
    -15.903  0.7262E+01  0.7143E+01  0.2300E+01  0.2277E+01
    -15.735  0.9318E+01  0.9428E+01  0.3864E+01  0.3860E+01
    -15.568  0.7783E+00  0.8017E+00  0.3995E+01  0.3995E+01
    -15.400  0.0000E+00  0.0000E+00  0.4000E+01  0.4000E+01
    -15.232  0.0000E+00  0.0000E+00  0.4000E+01  0.4000E+01
    -15.064  0.0000E+00  0.0000E+00  0.4000E+01  0.4000E+01
    -14.896  0.0000E+00  0.0000E+00  0.4000E+01  0.4000E+01
    -14.728  0.0000E+00  0.0000E+00  0.4000E+01  0.4000E+01
    -14.560  0.0000E+00  0.0000E+00  0.4000E+01  0.4000E+01
    -14.392  0.0000E+00  0.0000E+00  0.4000E+01  0.4000E+01
    -14.224  0.0000E+00  0.0000E+00  0.4000E+01  0.4000E+01
    -14.056  0.0000E+00  0.0000E+00  0.4000E+01  0.4000E+01
    -13.888  0.0000E+00  0.0000E+00  0.4000E+01  0.4000E+01
    -13.720  0.0000E+00  0.0000E+00  0.4000E+01  0.4000E+01
    -13.552  0.0000E+00  0.0000E+00  0.4000E+01  0.4000E+01
    -13.385  0.0000E+00  0.0000E+00  0.4000E+01  0.4000E+01
    -13.217  0.0000E+00  0.0000E+00  0.4000E+01  0.4000E+01
    -13.049  0.0000E+00  0.0000E+00  0.4000E+01  0.4000E+01
    -12.881  0.0000E+00  0.0000E+00  0.4000E+01  0.4000E+01
    -12.713  0.0000E+00  0.0000E+00  0.4000E+01  0.4000E+01
    -12.545  0.0000E+00  0.0000E+00  0.4000E+01  0.4000E+01
    -12.377  0.0000E+00  0.0000E+00  0.4000E+01  0.4000E+01
    -12.209  0.0000E+00  0.0000E+00  0.4000E+01  0.4000E+01
    -12.041  0.0000E+00  0.0000E+00  0.4000E+01  0.4000E+01
    -11.873  0.0000E+00  0.0000E+00  0.4000E+01  0.4000E+01
    -11.705  0.0000E+00  0.0000E+00  0.4000E+01  0.4000E+01
    -11.537  0.0000E+00  0.0000E+00  0.4000E+01  0.4000E+01
    -11.369  0.0000E+00  0.0000E+00  0.4000E+01  0.4000E+01
    -11.201  0.0000E+00  0.0000E+00  0.4000E+01  0.4000E+01
    -11.034  0.0000E+00  0.0000E+00  0.4000E+01  0.4000E+01
    -10.866  0.0000E+00  0.0000E+00  0.4000E+01  0.4000E+01
    -10.698  0.0000E+00  0.0000E+00  0.4000E+01  0.4000E+01
    -10.530  0.0000E+00  0.0000E+00  0.4000E+01  0.4000E+01
    -10.362  0.0000E+00  0.0000E+00  0.4000E+01  0.4000E+01
    -10.194  0.0000E+00  0.0000E+00  0.4000E+01  0.4000E+01
    -10.026  0.0000E+00  0.0000E+00  0.4000E+01  0.4000E+01
     -9.858  0.0000E+00  0.0000E+00  0.4000E+01  0.4000E+01
     -9.690  0.0000E+00  0.0000E+00  0.4000E+01  0.4000E+01
     -9.522  0.0000E+00  0.0000E+00  0.4000E+01  0.4000E+01
     -9.354  0.0000E+00  0.0000E+00  0.4000E+01  0.4000E+01
     -9.186  0.0000E+00  0.0000E+00  0.4000E+01  0.4000E+01
     -9.018  0.0000E+00  0.0000E+00  0.4000E+01  0.4000E+01
     -8.851  0.0000E+00  0.0000E+00  0.4000E+01  0.4000E+01
     -8.683  0.0000E+00  0.0000E+00  0.4000E+01  0.4000E+01
     -8.515  0.0000E+00  0.0000E+00  0.4000E+01  0.4000E+01
     -8.347  0.0000E+00  0.0000E+00  0.4000E+01  0.4000E+01
     -8.179  0.0000E+00  0.0000E+00  0.4000E+01  0.4000E+01
     -8.011  0.0000E+00  0.0000E+00  0.4000E+01  0.4000E+01
     -7.843  0.0000E+00  0.0000E+00  0.4000E+01  0.4000E+01
     -7.675  0.0000E+00  0.0000E+00  0.4000E+01  0.4000E+01
     -7.507  0.0000E+00  0.0000E+00  0.4000E+01  0.4000E+01
     -7.339  0.0000E+00  0.0000E+00  0.4000E+01  0.4000E+01
     -7.171  0.0000E+00  0.0000E+00  0.4000E+01  0.4000E+01
     -7.003  0.0000E+00  0.0000E+00  0.4000E+01  0.4000E+01
     -6.835  0.0000E+00  0.0000E+00  0.4000E+01  0.4000E+01
     -6.668  0.0000E+00  0.0000E+00  0.4000E+01  0.4000E+01
     -6.500  0.0000E+00  0.0000E+00  0.4000E+01  0.4000E+01
     -6.332  0.0000E+00  0.0000E+00  0.4000E+01  0.4000E+01
     -6.164  0.0000E+00  0.0000E+00  0.4000E+01  0.4000E+01
     -5.996  0.0000E+00  0.0000E+00  0.4000E+01  0.4000E+01
     -5.828  0.0000E+00  0.0000E+00  0.4000E+01  0.4000E+01
     -5.660  0.0000E+00  0.0000E+00  0.4000E+01  0.4000E+01
     -5.492  0.0000E+00  0.0000E+00  0.4000E+01  0.4000E+01
     -5.324  0.0000E+00  0.0000E+00  0.4000E+01  0.4000E+01
     -5.156  0.0000E+00  0.0000E+00  0.4000E+01  0.4000E+01
     -4.988  0.0000E+00  0.0000E+00  0.4000E+01  0.4000E+01
     -4.820  0.0000E+00  0.0000E+00  0.4000E+01  0.4000E+01
     -4.652  0.0000E+00  0.0000E+00  0.4000E+01  0.4000E+01
     -4.484  0.0000E+00  0.0000E+00  0.4000E+01  0.4000E+01
     -4.317  0.0000E+00  0.0000E+00  0.4000E+01  0.4000E+01
     -4.149  0.0000E+00  0.0000E+00  0.4000E+01  0.4000E+01
     -3.981  0.0000E+00  0.0000E+00  0.4000E+01  0.4000E+01
     -3.813  0.7636E-07  0.7753E-07  0.4000E+01  0.4000E+01
     -3.645  0.1250E-04  0.1269E-04  0.4000E+01  0.4000E+01
     -3.477  0.3651E-03  0.3706E-03  0.4000E+01  0.4000E+01
     -3.309  0.8658E-02  0.8767E-02  0.4002E+01  0.4002E+01
     -3.141  0.6307E-01  0.6339E-01  0.4012E+01  0.4012E+01
     -2.973  0.1335E+00  0.1337E+00  0.4035E+01  0.4035E+01
     -2.805  0.1806E+00  0.1808E+00  0.4065E+01  0.4065E+01
     -2.637  0.2190E+00  0.2190E+00  0.4102E+01  0.4102E+01
     -2.469  0.2515E+00  0.2517E+00  0.4144E+01  0.4144E+01
     -2.301  0.3018E+00  0.3017E+00  0.4195E+01  0.4195E+01
     -2.134  0.3042E+00  0.3045E+00  0.4246E+01  0.4246E+01
     -1.966  0.3907E+00  0.3906E+00  0.4312E+01  0.4312E+01
     -1.798  0.3848E+00  0.3850E+00  0.4376E+01  0.4377E+01
     -1.630  0.4972E+00  0.4970E+00  0.4460E+01  0.4460E+01
     -1.462  0.4847E+00  0.4848E+00  0.4541E+01  0.4542E+01
     -1.294  0.4681E+00  0.4676E+00  0.4620E+01  0.4621E+01
     -1.126  0.4142E+00  0.4145E+00  0.4690E+01  0.4690E+01
     -0.958  0.3766E+00  0.3761E+00  0.4754E+01  0.4754E+01
     -0.790  0.3828E+00  0.3834E+00  0.4818E+01  0.4818E+01
     -0.622  0.4184E+00  0.4186E+00  0.4888E+01  0.4888E+01
     -0.454  0.4724E+00  0.4724E+00  0.4968E+01  0.4968E+01
     -0.286  0.3906E+00  0.3907E+00  0.5034E+01  0.5034E+01
     -0.118  0.4875E+00  0.4880E+00  0.5116E+01  0.5116E+01
      0.050  0.5174E+00  0.5174E+00  0.5203E+01  0.5203E+01
      0.217  0.5372E+00  0.5373E+00  0.5293E+01  0.5294E+01
      0.385  0.5728E+00  0.5728E+00  0.5390E+01  0.5390E+01
      0.553  0.8174E+00  0.8178E+00  0.5527E+01  0.5528E+01
      0.721  0.8157E+00  0.8155E+00  0.5664E+01  0.5665E+01
      0.889  0.8037E+00  0.8038E+00  0.5800E+01  0.5800E+01
      1.057  0.8074E+00  0.8069E+00  0.5936E+01  0.5936E+01
      1.225  0.6676E+00  0.6680E+00  0.6048E+01  0.6049E+01
      1.393  0.7927E+00  0.7929E+00  0.6182E+01  0.6182E+01
      1.561  0.6740E+00  0.6733E+00  0.6295E+01  0.6295E+01
      1.729  0.5334E+00  0.5331E+00  0.6385E+01  0.6385E+01
      1.897  0.4771E+00  0.4770E+00  0.6466E+01  0.6466E+01
      2.065  0.4863E+00  0.4865E+00  0.6548E+01  0.6548E+01
      2.233  0.5174E+00  0.5179E+00  0.6635E+01  0.6635E+01
      2.400  0.5952E+00  0.5955E+00  0.6735E+01  0.6735E+01
      2.568  0.5468E+00  0.5481E+00  0.6827E+01  0.6827E+01
      2.736  0.6808E+00  0.6806E+00  0.6941E+01  0.6942E+01
      2.904  0.7340E+00  0.7346E+00  0.7065E+01  0.7066E+01
      3.072  0.8829E+00  0.8838E+00  0.7213E+01  0.7214E+01
      3.240  0.9029E+00  0.9030E+00  0.7365E+01  0.7366E+01
      3.408  0.7909E+00  0.7905E+00  0.7499E+01  0.7500E+01
      3.576  0.9960E+00  0.9969E+00  0.7666E+01  0.7667E+01
      3.744  0.9841E+00  0.9855E+00  0.7832E+01  0.7833E+01
      3.912  0.1187E+01  0.1186E+01  0.8032E+01  0.8033E+01
      4.080  0.9925E+00  0.9933E+00  0.8199E+01  0.8200E+01
      4.248  0.1244E+01  0.1246E+01  0.8408E+01  0.8410E+01
      4.416  0.1281E+01  0.1281E+01  0.8624E+01  0.8625E+01
      4.583  0.1210E+01  0.1210E+01  0.8828E+01  0.8829E+01
      4.751  0.1121E+01  0.1118E+01  0.9016E+01  0.9017E+01
      4.919  0.8413E+00  0.8428E+00  0.9158E+01  0.9159E+01
      5.087  0.1083E+01  0.1082E+01  0.9340E+01  0.9341E+01
      5.255  0.7785E+00  0.7769E+00  0.9471E+01  0.9472E+01
      5.423  0.4969E+00  0.4961E+00  0.9555E+01  0.9556E+01
      5.591  0.6115E+00  0.6136E+00  0.9659E+01  0.9659E+01
      5.759  0.9709E+00  0.9723E+00  0.9822E+01  0.9823E+01
      5.927  0.9868E+00  0.9850E+00  0.9988E+01  0.9989E+01
      6.095  0.9940E+00  0.9937E+00  0.1015E+02  0.1016E+02
      6.263  0.8442E+00  0.8445E+00  0.1030E+02  0.1030E+02
      6.431  0.1061E+01  0.1061E+01  0.1048E+02  0.1048E+02
      6.599  0.1009E+01  0.1009E+01  0.1065E+02  0.1065E+02
      6.767  0.9573E+00  0.9575E+00  0.1081E+02  0.1081E+02
      6.934  0.1017E+01  0.1018E+01  0.1098E+02  0.1098E+02
      7.102  0.8992E+00  0.8984E+00  0.1113E+02  0.1113E+02
      7.270  0.8187E+00  0.8204E+00  0.1127E+02  0.1127E+02
      7.438  0.1116E+01  0.1115E+01  0.1146E+02  0.1146E+02
      7.606  0.9836E+00  0.9830E+00  0.1162E+02  0.1162E+02
      7.774  0.1016E+01  0.1016E+01  0.1179E+02  0.1179E+02
      7.942  0.9826E+00  0.9823E+00  0.1196E+02  0.1196E+02
      8.110  0.9299E+00  0.9312E+00  0.1211E+02  0.1212E+02
      8.278  0.1142E+01  0.1142E+01  0.1231E+02  0.1231E+02
      8.446  0.1314E+01  0.1318E+01  0.1253E+02  0.1253E+02
      8.614  0.1759E+01  0.1761E+01  0.1282E+02  0.1283E+02
      8.782  0.1793E+01  0.1791E+01  0.1312E+02  0.1313E+02
      8.950  0.1900E+01  0.1898E+01  0.1344E+02  0.1345E+02
      9.117  0.1669E+01  0.1668E+01  0.1373E+02  0.1373E+02
      9.285  0.1885E+01  0.1881E+01  0.1404E+02  0.1404E+02
      9.453  0.1859E+01  0.1857E+01  0.1436E+02  0.1436E+02
      9.621  0.1685E+01  0.1679E+01  0.1464E+02  0.1464E+02
      9.789  0.1928E+01  0.1923E+01  0.1496E+02  0.1496E+02
      9.957  0.2045E+01  0.2039E+01  0.1531E+02  0.1531E+02
     10.125  0.1410E+01  0.1403E+01  0.1555E+02  0.1554E+02
     10.293  0.1041E+01  0.1053E+01  0.1572E+02  0.1572E+02
     10.461  0.6006E+00  0.5954E+00  0.1582E+02  0.1582E+02
     10.629  0.3485E+00  0.3645E+00  0.1588E+02  0.1588E+02
     10.797  0.3432E+00  0.3497E+00  0.1594E+02  0.1594E+02
     10.965  0.2480E+00  0.2365E+00  0.1598E+02  0.1598E+02
     11.133  0.9124E-01  0.9396E-01  0.1600E+02  0.1600E+02
     11.300  0.6146E-02  0.6922E-02  0.1600E+02  0.1600E+02
     11.468  0.0000E+00  0.0000E+00  0.1600E+02  0.1600E+02
     11.636  0.0000E+00  0.0000E+00  0.1600E+02  0.1600E+02
     11.804  0.0000E+00  0.0000E+00  0.1600E+02  0.1600E+02
     11.972  0.0000E+00  0.0000E+00  0.1600E+02  0.1600E+02
     12.140  0.0000E+00  0.0000E+00  0.1600E+02  0.1600E+02
     12.308  0.0000E+00  0.0000E+00  0.1600E+02  0.1600E+02
     12.476  0.0000E+00  0.0000E+00  0.1600E+02  0.1600E+02
     12.644  0.0000E+00  0.0000E+00  0.1600E+02  0.1600E+02
     12.812  0.0000E+00  0.0000E+00  0.1600E+02  0.1600E+02
     12.980  0.0000E+00  0.0000E+00  0.1600E+02  0.1600E+02
     13.148  0.0000E+00  0.0000E+00  0.1600E+02  0.1600E+02
     13.316  0.0000E+00  0.0000E+00  0.1600E+02  0.1600E+02
     13.31559293    -37.06197121  301      5.30547627      1.00000000
    -37.062  0.0000E+00  0.0000E+00  0.0000E+00  0.0000E+00  0.0000E+00  0.0000E+00  0.0000E+00  0.0000E+00  0.0000E+00  0.0000E+00  0.0000E+00  0.0000E+00  0.0000E+00  0.0000E+00  0.0000E+00  0.0000E+00  0.0000E+00  0.0000E+00
    -36.894  0.0000E+00  0.0000E+00  0.0000E+00  0.0000E+00  0.0000E+00  0.0000E+00  0.0000E+00  0.0000E+00  0.0000E+00  0.0000E+00  0.0000E+00  0.0000E+00  0.0000E+00  0.0000E+00  0.0000E+00  0.0000E+00  0.0000E+00  0.0000E+00
    -36.726  0.0000E+00  0.0000E+00  0.0000E+00  0.0000E+00  0.0000E+00  0.0000E+00  0.0000E+00  0.0000E+00  0.0000E+00  0.0000E+00  0.0000E+00  0.0000E+00  0.0000E+00  0.0000E+00  0.0000E+00  0.0000E+00  0.0000E+00  0.0000E+00
    -36.558  0.0000E+00  0.0000E+00  0.0000E+00  0.0000E+00  0.0000E+00  0.0000E+00  0.0000E+00  0.0000E+00  0.0000E+00  0.0000E+00  0.0000E+00  0.0000E+00  0.0000E+00  0.0000E+00  0.0000E+00  0.0000E+00  0.0000E+00  0.0000E+00
    -36.390  0.0000E+00  0.0000E+00  0.0000E+00  0.0000E+00  0.0000E+00  0.0000E+00  0.0000E+00  0.0000E+00  0.0000E+00  0.0000E+00  0.0000E+00  0.0000E+00  0.0000E+00  0.0000E+00  0.0000E+00  0.0000E+00  0.0000E+00  0.0000E+00
    -36.222  0.0000E+00  0.0000E+00  0.0000E+00  0.0000E+00  0.0000E+00  0.0000E+00  0.0000E+00  0.0000E+00  0.0000E+00  0.0000E+00  0.0000E+00  0.0000E+00  0.0000E+00  0.0000E+00  0.0000E+00  0.0000E+00  0.0000E+00  0.0000E+00
    -36.054  0.0000E+00  0.0000E+00  0.0000E+00  0.0000E+00  0.0000E+00  0.0000E+00  0.0000E+00  0.0000E+00  0.0000E+00  0.0000E+00  0.0000E+00  0.0000E+00  0.0000E+00  0.0000E+00  0.0000E+00  0.0000E+00  0.0000E+00  0.0000E+00
    -35.886  0.0000E+00  0.0000E+00  0.0000E+00  0.0000E+00  0.0000E+00  0.0000E+00  0.0000E+00  0.0000E+00  0.0000E+00  0.0000E+00  0.0000E+00  0.0000E+00  0.0000E+00  0.0000E+00  0.0000E+00  0.0000E+00  0.0000E+00  0.0000E+00
    -35.719  0.0000E+00  0.0000E+00  0.0000E+00  0.0000E+00  0.0000E+00  0.0000E+00  0.0000E+00  0.0000E+00  0.0000E+00  0.0000E+00  0.0000E+00  0.0000E+00  0.0000E+00  0.0000E+00  0.0000E+00  0.0000E+00  0.0000E+00  0.0000E+00
    -35.551  0.0000E+00  0.0000E+00  0.0000E+00  0.0000E+00  0.0000E+00  0.0000E+00  0.0000E+00  0.0000E+00  0.0000E+00  0.0000E+00  0.0000E+00  0.0000E+00  0.0000E+00  0.0000E+00  0.0000E+00  0.0000E+00  0.0000E+00  0.0000E+00
    -35.383  0.0000E+00  0.0000E+00  0.0000E+00  0.0000E+00  0.0000E+00  0.0000E+00  0.0000E+00  0.0000E+00  0.0000E+00  0.0000E+00  0.0000E+00  0.0000E+00  0.0000E+00  0.0000E+00  0.0000E+00  0.0000E+00  0.0000E+00  0.0000E+00
    -35.215  0.8047E-03  0.7822E-03  0.1914E-11  0.2149E-11  0.1914E-11  0.2149E-11  0.1918E-11  0.2168E-11  0.1746E-14  0.1893E-13  0.1893E-14  0.1715E-13  0.1153E-11  0.1278E-11  0.1746E-14  0.1893E-13  0.1162E-11  0.1287E-11
    -35.047  0.2224E-01  0.2162E-01  0.5291E-10  0.5941E-10  0.5291E-10  0.5941E-10  0.5302E-10  0.5992E-10  0.4827E-13  0.5232E-12  0.5230E-13  0.4741E-12  0.3188E-10  0.3531E-10  0.4827E-13  0.5232E-12  0.3211E-10  0.3559E-10
    -34.879  0.5743E+00  0.5599E+00  0.1366E-08  0.1538E-08  0.1366E-08  0.1538E-08  0.1369E-08  0.1552E-08  0.1247E-11  0.1355E-10  0.1351E-11  0.1228E-10  0.8233E-09  0.9145E-09  0.1247E-11  0.1355E-10  0.8292E-09  0.9214E-09
    -34.711  0.3891E+01  0.3876E+01  0.9253E-08  0.1065E-07  0.9253E-08  0.1065E-07  0.9273E-08  0.1074E-07  0.8488E-11  0.9394E-10  0.9193E-11  0.8506E-10  0.5582E-08  0.6334E-08  0.8488E-11  0.9394E-10  0.5615E-08  0.6374E-08
    -34.543  0.1316E+01  0.1344E+01  0.3127E-08  0.3694E-08  0.3127E-08  0.3694E-08  0.3134E-08  0.3725E-08  0.2884E-11  0.3262E-10  0.3122E-11  0.2951E-10  0.1888E-08  0.2197E-08  0.2884E-11  0.3262E-10  0.1897E-08  0.2208E-08
    -34.375  0.5980E-01  0.6150E-01  0.1421E-09  0.1690E-09  0.1421E-09  0.1690E-09  0.1424E-09  0.1705E-09  0.1313E-12  0.1493E-11  0.1421E-12  0.1351E-11  0.8582E-10  0.1005E-09  0.1313E-12  0.1493E-11  0.8620E-10  0.1010E-09
    -34.207  0.0000E+00  0.0000E+00  0.0000E+00  0.0000E+00  0.0000E+00  0.0000E+00  0.0000E+00  0.0000E+00  0.0000E+00  0.0000E+00  0.0000E+00  0.0000E+00  0.0000E+00  0.0000E+00  0.0000E+00  0.0000E+00  0.0000E+00  0.0000E+00
    -34.039  0.0000E+00  0.0000E+00  0.0000E+00  0.0000E+00  0.0000E+00  0.0000E+00  0.0000E+00  0.0000E+00  0.0000E+00  0.0000E+00  0.0000E+00  0.0000E+00  0.0000E+00  0.0000E+00  0.0000E+00  0.0000E+00  0.0000E+00  0.0000E+00
    -33.871  0.0000E+00  0.0000E+00  0.0000E+00  0.0000E+00  0.0000E+00  0.0000E+00  0.0000E+00  0.0000E+00  0.0000E+00  0.0000E+00  0.0000E+00  0.0000E+00  0.0000E+00  0.0000E+00  0.0000E+00  0.0000E+00  0.0000E+00  0.0000E+00
    -33.703  0.0000E+00  0.0000E+00  0.0000E+00  0.0000E+00  0.0000E+00  0.0000E+00  0.0000E+00  0.0000E+00  0.0000E+00  0.0000E+00  0.0000E+00  0.0000E+00  0.0000E+00  0.0000E+00  0.0000E+00  0.0000E+00  0.0000E+00  0.0000E+00
    -33.536  0.0000E+00  0.0000E+00  0.0000E+00  0.0000E+00  0.0000E+00  0.0000E+00  0.0000E+00  0.0000E+00  0.0000E+00  0.0000E+00  0.0000E+00  0.0000E+00  0.0000E+00  0.0000E+00  0.0000E+00  0.0000E+00  0.0000E+00  0.0000E+00
    -33.368  0.0000E+00  0.0000E+00  0.0000E+00  0.0000E+00  0.0000E+00  0.0000E+00  0.0000E+00  0.0000E+00  0.0000E+00  0.0000E+00  0.0000E+00  0.0000E+00  0.0000E+00  0.0000E+00  0.0000E+00  0.0000E+00  0.0000E+00  0.0000E+00
    -33.200  0.0000E+00  0.0000E+00  0.0000E+00  0.0000E+00  0.0000E+00  0.0000E+00  0.0000E+00  0.0000E+00  0.0000E+00  0.0000E+00  0.0000E+00  0.0000E+00  0.0000E+00  0.0000E+00  0.0000E+00  0.0000E+00  0.0000E+00  0.0000E+00
    -33.032  0.0000E+00  0.0000E+00  0.0000E+00  0.0000E+00  0.0000E+00  0.0000E+00  0.0000E+00  0.0000E+00  0.0000E+00  0.0000E+00  0.0000E+00  0.0000E+00  0.0000E+00  0.0000E+00  0.0000E+00  0.0000E+00  0.0000E+00  0.0000E+00
    -32.864  0.0000E+00  0.0000E+00  0.0000E+00  0.0000E+00  0.0000E+00  0.0000E+00  0.0000E+00  0.0000E+00  0.0000E+00  0.0000E+00  0.0000E+00  0.0000E+00  0.0000E+00  0.0000E+00  0.0000E+00  0.0000E+00  0.0000E+00  0.0000E+00
    -32.696  0.0000E+00  0.0000E+00  0.0000E+00  0.0000E+00  0.0000E+00  0.0000E+00  0.0000E+00  0.0000E+00  0.0000E+00  0.0000E+00  0.0000E+00  0.0000E+00  0.0000E+00  0.0000E+00  0.0000E+00  0.0000E+00  0.0000E+00  0.0000E+00
    -32.528  0.0000E+00  0.0000E+00  0.0000E+00  0.0000E+00  0.0000E+00  0.0000E+00  0.0000E+00  0.0000E+00  0.0000E+00  0.0000E+00  0.0000E+00  0.0000E+00  0.0000E+00  0.0000E+00  0.0000E+00  0.0000E+00  0.0000E+00  0.0000E+00
    -32.360  0.0000E+00  0.0000E+00  0.0000E+00  0.0000E+00  0.0000E+00  0.0000E+00  0.0000E+00  0.0000E+00  0.0000E+00  0.0000E+00  0.0000E+00  0.0000E+00  0.0000E+00  0.0000E+00  0.0000E+00  0.0000E+00  0.0000E+00  0.0000E+00
    -32.192  0.0000E+00  0.0000E+00  0.0000E+00  0.0000E+00  0.0000E+00  0.0000E+00  0.0000E+00  0.0000E+00  0.0000E+00  0.0000E+00  0.0000E+00  0.0000E+00  0.0000E+00  0.0000E+00  0.0000E+00  0.0000E+00  0.0000E+00  0.0000E+00
    -32.024  0.0000E+00  0.0000E+00  0.0000E+00  0.0000E+00  0.0000E+00  0.0000E+00  0.0000E+00  0.0000E+00  0.0000E+00  0.0000E+00  0.0000E+00  0.0000E+00  0.0000E+00  0.0000E+00  0.0000E+00  0.0000E+00  0.0000E+00  0.0000E+00
    -31.856  0.0000E+00  0.0000E+00  0.0000E+00  0.0000E+00  0.0000E+00  0.0000E+00  0.0000E+00  0.0000E+00  0.0000E+00  0.0000E+00  0.0000E+00  0.0000E+00  0.0000E+00  0.0000E+00  0.0000E+00  0.0000E+00  0.0000E+00  0.0000E+00
    -31.688  0.0000E+00  0.0000E+00  0.0000E+00  0.0000E+00  0.0000E+00  0.0000E+00  0.0000E+00  0.0000E+00  0.0000E+00  0.0000E+00  0.0000E+00  0.0000E+00  0.0000E+00  0.0000E+00  0.0000E+00  0.0000E+00  0.0000E+00  0.0000E+00
    -31.520  0.0000E+00  0.0000E+00  0.0000E+00  0.0000E+00  0.0000E+00  0.0000E+00  0.0000E+00  0.0000E+00  0.0000E+00  0.0000E+00  0.0000E+00  0.0000E+00  0.0000E+00  0.0000E+00  0.0000E+00  0.0000E+00  0.0000E+00  0.0000E+00
    -31.353  0.0000E+00  0.0000E+00  0.0000E+00  0.0000E+00  0.0000E+00  0.0000E+00  0.0000E+00  0.0000E+00  0.0000E+00  0.0000E+00  0.0000E+00  0.0000E+00  0.0000E+00  0.0000E+00  0.0000E+00  0.0000E+00  0.0000E+00  0.0000E+00
    -31.185  0.0000E+00  0.0000E+00  0.0000E+00  0.0000E+00  0.0000E+00  0.0000E+00  0.0000E+00  0.0000E+00  0.0000E+00  0.0000E+00  0.0000E+00  0.0000E+00  0.0000E+00  0.0000E+00  0.0000E+00  0.0000E+00  0.0000E+00  0.0000E+00
    -31.017  0.0000E+00  0.0000E+00  0.0000E+00  0.0000E+00  0.0000E+00  0.0000E+00  0.0000E+00  0.0000E+00  0.0000E+00  0.0000E+00  0.0000E+00  0.0000E+00  0.0000E+00  0.0000E+00  0.0000E+00  0.0000E+00  0.0000E+00  0.0000E+00
    -30.849  0.0000E+00  0.0000E+00  0.0000E+00  0.0000E+00  0.0000E+00  0.0000E+00  0.0000E+00  0.0000E+00  0.0000E+00  0.0000E+00  0.0000E+00  0.0000E+00  0.0000E+00  0.0000E+00  0.0000E+00  0.0000E+00  0.0000E+00  0.0000E+00
    -30.681  0.0000E+00  0.0000E+00  0.0000E+00  0.0000E+00  0.0000E+00  0.0000E+00  0.0000E+00  0.0000E+00  0.0000E+00  0.0000E+00  0.0000E+00  0.0000E+00  0.0000E+00  0.0000E+00  0.0000E+00  0.0000E+00  0.0000E+00  0.0000E+00
    -30.513  0.0000E+00  0.0000E+00  0.0000E+00  0.0000E+00  0.0000E+00  0.0000E+00  0.0000E+00  0.0000E+00  0.0000E+00  0.0000E+00  0.0000E+00  0.0000E+00  0.0000E+00  0.0000E+00  0.0000E+00  0.0000E+00  0.0000E+00  0.0000E+00
    -30.345  0.0000E+00  0.0000E+00  0.0000E+00  0.0000E+00  0.0000E+00  0.0000E+00  0.0000E+00  0.0000E+00  0.0000E+00  0.0000E+00  0.0000E+00  0.0000E+00  0.0000E+00  0.0000E+00  0.0000E+00  0.0000E+00  0.0000E+00  0.0000E+00
    -30.177  0.0000E+00  0.0000E+00  0.0000E+00  0.0000E+00  0.0000E+00  0.0000E+00  0.0000E+00  0.0000E+00  0.0000E+00  0.0000E+00  0.0000E+00  0.0000E+00  0.0000E+00  0.0000E+00  0.0000E+00  0.0000E+00  0.0000E+00  0.0000E+00
    -30.009  0.0000E+00  0.0000E+00  0.0000E+00  0.0000E+00  0.0000E+00  0.0000E+00  0.0000E+00  0.0000E+00  0.0000E+00  0.0000E+00  0.0000E+00  0.0000E+00  0.0000E+00  0.0000E+00  0.0000E+00  0.0000E+00  0.0000E+00  0.0000E+00
    -29.841  0.0000E+00  0.0000E+00  0.0000E+00  0.0000E+00  0.0000E+00  0.0000E+00  0.0000E+00  0.0000E+00  0.0000E+00  0.0000E+00  0.0000E+00  0.0000E+00  0.0000E+00  0.0000E+00  0.0000E+00  0.0000E+00  0.0000E+00  0.0000E+00
    -29.673  0.0000E+00  0.0000E+00  0.0000E+00  0.0000E+00  0.0000E+00  0.0000E+00  0.0000E+00  0.0000E+00  0.0000E+00  0.0000E+00  0.0000E+00  0.0000E+00  0.0000E+00  0.0000E+00  0.0000E+00  0.0000E+00  0.0000E+00  0.0000E+00
    -29.505  0.0000E+00  0.0000E+00  0.0000E+00  0.0000E+00  0.0000E+00  0.0000E+00  0.0000E+00  0.0000E+00  0.0000E+00  0.0000E+00  0.0000E+00  0.0000E+00  0.0000E+00  0.0000E+00  0.0000E+00  0.0000E+00  0.0000E+00  0.0000E+00
    -29.337  0.0000E+00  0.0000E+00  0.0000E+00  0.0000E+00  0.0000E+00  0.0000E+00  0.0000E+00  0.0000E+00  0.0000E+00  0.0000E+00  0.0000E+00  0.0000E+00  0.0000E+00  0.0000E+00  0.0000E+00  0.0000E+00  0.0000E+00  0.0000E+00
    -29.169  0.0000E+00  0.0000E+00  0.0000E+00  0.0000E+00  0.0000E+00  0.0000E+00  0.0000E+00  0.0000E+00  0.0000E+00  0.0000E+00  0.0000E+00  0.0000E+00  0.0000E+00  0.0000E+00  0.0000E+00  0.0000E+00  0.0000E+00  0.0000E+00
    -29.002  0.0000E+00  0.0000E+00  0.0000E+00  0.0000E+00  0.0000E+00  0.0000E+00  0.0000E+00  0.0000E+00  0.0000E+00  0.0000E+00  0.0000E+00  0.0000E+00  0.0000E+00  0.0000E+00  0.0000E+00  0.0000E+00  0.0000E+00  0.0000E+00
    -28.834  0.0000E+00  0.0000E+00  0.0000E+00  0.0000E+00  0.0000E+00  0.0000E+00  0.0000E+00  0.0000E+00  0.0000E+00  0.0000E+00  0.0000E+00  0.0000E+00  0.0000E+00  0.0000E+00  0.0000E+00  0.0000E+00  0.0000E+00  0.0000E+00
    -28.666  0.0000E+00  0.0000E+00  0.0000E+00  0.0000E+00  0.0000E+00  0.0000E+00  0.0000E+00  0.0000E+00  0.0000E+00  0.0000E+00  0.0000E+00  0.0000E+00  0.0000E+00  0.0000E+00  0.0000E+00  0.0000E+00  0.0000E+00  0.0000E+00