 vasp.6.4.1 05Apr23 (build Jul 24 2024 14:19:02) complex                         
 executed on             LinuxGNU date 2024.10.23  13:45:05
 running    1 mpi-ranks, with   24 threads/rank, on    1 nodes
 distrk:  each k-point on    1 cores,    1 groups
 distr:  one band on NCORE=   1 cores,    1 groups


--------------------------------------------------------------------------------------------------------


 INCAR:
   ISTART = 0
   ALGO = Fast
   EDIFF = 0.0001
   ENCUT = 520
   IBRION = -1
   ISIF = 2
   ISMEAR = -5
   ISPIN = 2
   LASPH = True
   LMAXMIX = 6
   LORBIT = 11
   LREAL = Auto
   LWAVE = False
   MAGMOM = 2*0.6
   NELM = 100
   NSW = 0
   PREC = Accurate
   SIGMA = 0.05

 POTCAR:    PAW_PBE Nb_pv 08Apr2002               
 POTCAR:    PAW_PBE Nb_pv 08Apr2002               
   SHA256 =  bac2b60850b34f8515cf56f9feae68b678e347865051052a0e1f5d2c6a691c0a Nb_pv/POTCAR          
   COPYR  = (c) Copyright 08Apr2002 Georg Kresse                                                    
   COPYR  = This file is part of the software VASP. Any use, copying, and all other rights are regul
   COPYR  = If you do not have a valid VASP license, you may not use, copy or distribute this file. 
   VRHFIN =Nb: 4p5s4d                                                                               
   LEXCH  = PE                                                                                      
   EATOM  =  1043.3917 eV,   76.6871 Ry                                                             
                                                                                                    
   TITEL  = PAW_PBE Nb_pv 08Apr2002                                                                 
   LULTRA =        F    use ultrasoft PP ?                                                          
   IUNSCR =        1    unscreen: 0-lin 1-nonlin 2-no                                               
   RPACOR =    2.200    partial core radius                                                         
   POMASS =   92.000; ZVAL   =   11.000    mass and valenz                                          
   RCORE  =    2.750    outmost cutoff radius                                                       
   RWIGS  =    2.840; RWIGS  =    1.503    wigner-seitz radius (au A)                               
   ENMAX  =  208.608; ENMIN  =  156.456 eV                                                          
   RCLOC  =    2.201    cutoff for local pot                                                        
   LCOR   =        T    correct aug charges                                                         
   LPAW   =        T    paw PP                                                                      
   EAUG   =  355.067                                                                                
   DEXC   =    0.000                                                                                
   RMAX   =    2.804    core radius for proj-oper                                                   
   RAUG   =    1.300    factor for augmentation sphere                                              
   RDEP   =    2.776    radius for radial grids                                                     
   RDEPT  =    2.198    core radius for aug-charge                                                  
                                                                                                    
   Atomic configuration                                                                             
   11 entries                                                                                       
     n  l   j            E        occ.                                                              
     1  0  0.50    -18805.2456   2.0000                                                             
     2  0  0.50     -2630.2869   2.0000                                                             
     2  1  1.50     -2348.4045   6.0000                                                             
     3  0  0.50      -438.8756   2.0000                                                             
     3  1  1.50      -346.7587   6.0000                                                             
     3  2  2.50      -196.2559  10.0000                                                             
     4  0  0.50       -58.3859   2.0000                                                             
     4  1  1.50       -34.5141   6.0000                                                             
     4  2  2.50        -3.0408   4.0000                                                             
     5  0  0.50        -3.9816   1.0000                                                             
     4  3  2.50        -1.3606   0.0000                                                             
   Description                                                                                      
     l       E           TYP  RCUT    TYP  RCUT                                                     
     1    -34.5140617     23  2.600                                                                 
     1     -1.3605826     23  2.600                                                                 
     2     -3.0407924     23  2.600                                                                 
     2     -1.4463597     23  2.600                                                                 
     0     -3.9816219     23  2.750                                                                 
     0     20.4087390     23  2.750                                                                 
  local pseudopotential read in
  partial core-charges read in
  partial kinetic energy density read in
  atomic valenz-charges read in
  non local Contribution for L=           1  read in
    real space projection operators read in
  non local Contribution for L=           1  read in
    real space projection operators read in
  non local Contribution for L=           2  read in
    real space projection operators read in
  non local Contribution for L=           2  read in
    real space projection operators read in
  non local Contribution for L=           0  read in
    real space projection operators read in
  non local Contribution for L=           0  read in
    real space projection operators read in
    PAW grid and wavefunctions read in

   number of l-projection  operators is LMAX  =           6
   number of lm-projection operators is LMMAX =          18

 -----------------------------------------------------------------------------
|                                                                             |
|               ----> ADVICE to this user running VASP <----                  |
|                                                                             |
|     You have a (more or less) 'small supercell' and for smaller cells       |
|     it is recommended to use the reciprocal-space projection scheme!        |
|     The real-space optimization is not efficient for small cells and it     |
|     is also less accurate ...                                               |
|     Therefore, set LREAL=.FALSE. in the INCAR file.                         |
|                                                                             |
 -----------------------------------------------------------------------------

 Optimization of the real space projectors (new method)

 maximal supplied QI-value         = 13.61
 optimisation between [QCUT,QGAM] = [ 11.57, 23.27] = [ 37.45,151.59] Ry 
 Optimized for a Real-space Cutoff    1.63 Angstroem

   l    n(q)    QCUT    max X(q) W(low)/X(q) W(high)/X(q)  e(spline) 
   1     11    11.565     4.545    0.12E-04    0.18E-04    0.64E-07
   1     11    11.565     6.014    0.42E-04    0.48E-04    0.13E-06
   2     10    11.565   266.542    0.24E-03    0.87E-04    0.13E-05
   2     10    11.565   232.726    0.24E-03    0.87E-04    0.13E-05
   0     11    11.565    38.050    0.76E-04    0.32E-05    0.94E-06
   0     11    11.565    16.565    0.58E-04    0.25E-05    0.73E-06
  PAW_PBE Nb_pv 08Apr2002               :
 energy of atom  1       EATOM=-1043.3917
 kinetic energy error for atom=    0.0011 (will be added to EATOM!!)


 POSCAR: Generated POSCAR
  positions in direct lattice
  velocities in cartesian coordinates
 exchange correlation table for  LEXCH =        8
   RHO(1)=    0.500       N(1)  =     2000
   RHO(2)=  100.500       N(2)  =     4000



--------------------------------------------------------------------------------------------------------


 ion  position               nearest neighbor table
   1  0.000  0.000  0.000-   2 2.86   2 2.86   2 2.86   2 2.86   2 2.90   2 2.90   2 2.90   2 2.90

   2  0.500  0.500  0.500-   1 2.86   1 2.86   1 2.86   1 2.86   1 2.90   1 2.90   1 2.90   1 2.90


  LATTYP: Found a base centered orthorhombic cell.
 ALAT       =     4.6508833702
 B/A-ratio  =     1.0202020202
 C/A-ratio  =     0.7142492739
  
  Lattice vectors:
  
 A1 = (   0.0000000000,   3.3218900703,  -0.0332189007)
 A2 = (   0.0000000000,  -0.0332189007,   3.3218900703)
 A3 = (   3.3218900703,   0.0000000000,   0.0000000000)


Analysis of symmetry for initial positions (statically):
=====================================================================
 Subroutine PRICEL returns following result:
 
  LATTYP: Found a face centered orthorhombic cell.
 ALAT       =     3.3218900703
 B/A-ratio  =     1.4000714267
 C/A-ratio  =     1.4283556980
  
  Lattice vectors:
  
 A1 = (   0.0000000000,   3.3218900703,  -0.0332189007)
 A2 = (  -1.6609450351,   1.6775544855,  -1.6775544855)
 A3 = (  -1.6609450351,   1.6443355848,   1.6443355848)
 
   2 primitive cells build up your supercell.
 

 Routine SETGRP: Setting up the symmetry group for a 
 base centered orthorhombic supercell.


 Subroutine GETGRP returns: Found  8 space group operations
 (whereof  8 operations were pure point group operations)
 out of a pool of  8 trial point group operations.


The static configuration has the point symmetry D_2h.


Analysis of symmetry for dynamics (positions and initial velocities):
=====================================================================
 Subroutine PRICEL returns following result:
 
  LATTYP: Found a face centered orthorhombic cell.
 ALAT       =     3.3218900703
 B/A-ratio  =     1.4000714267
 C/A-ratio  =     1.4283556980
  
  Lattice vectors:
  
 A1 = (   0.0000000000,   3.3218900703,  -0.0332189007)
 A2 = (  -1.6609450351,   1.6775544855,  -1.6775544855)
 A3 = (  -1.6609450351,   1.6443355848,   1.6443355848)
 
   2 primitive cells build up your supercell.
 

 Routine SETGRP: Setting up the symmetry group for a 
 base centered orthorhombic supercell.


 Subroutine GETGRP returns: Found  8 space group operations
 (whereof  8 operations were pure point group operations)
 out of a pool of  8 trial point group operations.


The dynamic configuration has the point symmetry D_2h.


Analysis of structural, dynamic, and magnetic symmetry:
=====================================================================
 Subroutine PRICEL returns following result:
 
  LATTYP: Found a face centered orthorhombic cell.
 ALAT       =     3.3218900703
 B/A-ratio  =     1.4000714267
 C/A-ratio  =     1.4283556980
  
  Lattice vectors:
  
 A1 = (   0.0000000000,   3.3218900703,  -0.0332189007)
 A2 = (  -1.6609450351,   1.6775544855,  -1.6775544855)
 A3 = (  -1.6609450351,   1.6443355848,   1.6443355848)
 
   2 primitive cells build up your supercell.
 

 Routine SETGRP: Setting up the symmetry group for a 
 base centered orthorhombic supercell.


 Subroutine GETGRP returns: Found  8 space group operations
 (whereof  8 operations were pure point group operations)
 out of a pool of  8 trial point group operations.


The overall configuration has the point symmetry D_2h.


 Subroutine INISYM returns: Found  8 space group operations
 (whereof  8 operations are pure point group operations),
 and found     2 'primitive' translations


----------------------------------------------------------------------------------------

                                     Primitive cell                                     

  volume of cell :      18.3266

  direct lattice vectors                    reciprocal lattice vectors
     0.000000000  3.321890070 -0.033218901     0.301033441  0.301063548  0.003010635
    -1.660945035  1.677554485 -1.677554485    -0.301033441 -0.003010635 -0.301063548
    -1.660945035  1.644335585  1.644335585    -0.301033441  0.003010635  0.301063548

  length of vectors
     3.322056161  2.896051884  2.857694427     0.425757509  0.425757509  0.425757509

  position of ions in fractional coordinates (direct lattice)
     0.000000000  0.000000000  0.000000000

  ion indices of the primitive-cell ions
   primitive index   ion index
                 1           1

----------------------------------------------------------------------------------------



 KPOINTS: pymatgen with grid density = 869 / numbe

Automatic generation of k-mesh.
 Grid dimensions read from file:
 generate k-points for:    7    7    7

 Generating k-lattice:

  Cartesian coordinates                     Fractional coordinates (reciprocal lattice)
     0.043004777 -0.000000000 -0.000000000     0.142857143 -0.000000000  0.000000000
    -0.000000000  0.043009078  0.000430091     0.000000000  0.142857143  0.000000000
    -0.000000000  0.000430091  0.043009078     0.000000000  0.000000000  0.142857143

  Length of vectors
     0.043004777  0.043011229  0.043011229

  Shift w.r.t. Gamma in fractional coordinates (k-lattice)
     0.000000000  0.000000000  0.000000000

 TETIRR: Found    517 inequivalent tetrahedra from     2058
 
 Subroutine IBZKPT returns following result:
 ===========================================
 
 Found     64 irreducible k-points:
 
 Following reciprocal coordinates:
            Coordinates               Weight
  0.000000  0.000000  0.000000      1.000000
  0.142857  0.000000  0.000000      2.000000
  0.285714  0.000000  0.000000      2.000000
  0.428571  0.000000  0.000000      2.000000
  0.000000  0.142857  0.000000      4.000000
  0.142857  0.142857  0.000000      8.000000
  0.285714  0.142857  0.000000      8.000000
  0.428571  0.142857  0.000000      8.000000
  0.000000  0.285714  0.000000      4.000000
  0.142857  0.285714  0.000000      8.000000
  0.285714  0.285714  0.000000      8.000000
  0.428571  0.285714  0.000000      8.000000
  0.000000  0.428571  0.000000      4.000000
  0.142857  0.428571  0.000000      8.000000
  0.285714  0.428571  0.000000      8.000000
  0.428571  0.428571  0.000000      8.000000
  0.000000  0.142857  0.142857      2.000000
  0.142857  0.142857  0.142857      4.000000
  0.285714  0.142857  0.142857      4.000000
  0.428571  0.142857  0.142857      4.000000
  0.000000  0.285714  0.142857      4.000000
  0.142857  0.285714  0.142857      8.000000
  0.285714  0.285714  0.142857      8.000000
  0.428571  0.285714  0.142857      8.000000
  0.000000  0.428571  0.142857      4.000000
  0.142857  0.428571  0.142857      8.000000
  0.285714  0.428571  0.142857      8.000000
  0.428571  0.428571  0.142857      8.000000
  0.000000 -0.428571  0.142857      4.000000
  0.142857 -0.428571  0.142857      8.000000
  0.285714 -0.428571  0.142857      8.000000
  0.428571 -0.428571  0.142857      8.000000
  0.000000 -0.285714  0.142857      4.000000
  0.142857 -0.285714  0.142857      8.000000
  0.285714 -0.285714  0.142857      8.000000
  0.428571 -0.285714  0.142857      8.000000
  0.000000 -0.142857  0.142857      2.000000
  0.142857 -0.142857  0.142857      4.000000
  0.285714 -0.142857  0.142857      4.000000
  0.428571 -0.142857  0.142857      4.000000
  0.000000  0.285714  0.285714      2.000000
  0.142857  0.285714  0.285714      4.000000
  0.285714  0.285714  0.285714      4.000000
  0.428571  0.285714  0.285714      4.000000
  0.000000  0.428571  0.285714      4.000000
  0.142857  0.428571  0.285714      8.000000
  0.285714  0.428571  0.285714      8.000000
  0.428571  0.428571  0.285714      8.000000
  0.000000 -0.428571  0.285714      4.000000
  0.142857 -0.428571  0.285714      8.000000
  0.285714 -0.428571  0.285714      8.000000
  0.428571 -0.428571  0.285714      8.000000
  0.000000 -0.285714  0.285714      2.000000
  0.142857 -0.285714  0.285714      4.000000
  0.285714 -0.285714  0.285714      4.000000
  0.428571 -0.285714  0.285714      4.000000
  0.000000  0.428571  0.428571      2.000000
  0.142857  0.428571  0.428571      4.000000
  0.285714  0.428571  0.428571      4.000000
  0.428571  0.428571  0.428571      4.000000
  0.000000 -0.428571  0.428571      2.000000
  0.142857 -0.428571  0.428571      4.000000
  0.285714 -0.428571  0.428571      4.000000
  0.428571 -0.428571  0.428571      4.000000
 
 Following cartesian coordinates:
            Coordinates               Weight
  0.000000  0.000000  0.000000      1.000000
  0.043005  0.000000  0.000000      2.000000
  0.086010  0.000000  0.000000      2.000000
  0.129014  0.000000  0.000000      2.000000
  0.000000  0.043009  0.000430      4.000000
  0.043005  0.043009  0.000430      8.000000
  0.086010  0.043009  0.000430      8.000000
  0.129014  0.043009  0.000430      8.000000
  0.000000  0.086018  0.000860      4.000000
  0.043005  0.086018  0.000860      8.000000
  0.086010  0.086018  0.000860      8.000000
  0.129014  0.086018  0.000860      8.000000
  0.000000  0.129027  0.001290      4.000000
  0.043005  0.129027  0.001290      8.000000
  0.086010  0.129027  0.001290      8.000000
  0.129014  0.129027  0.001290      8.000000
  0.000000  0.043439  0.043439      2.000000
  0.043005  0.043439  0.043439      4.000000
  0.086010  0.043439  0.043439      4.000000
  0.129014  0.043439  0.043439      4.000000
  0.000000  0.086448  0.043869      4.000000
  0.043005  0.086448  0.043869      8.000000
  0.086010  0.086448  0.043869      8.000000
  0.129014  0.086448  0.043869      8.000000
  0.000000  0.129457  0.044299      4.000000
  0.043005  0.129457  0.044299      8.000000
  0.086010  0.129457  0.044299      8.000000
  0.129014  0.129457  0.044299      8.000000
  0.000000 -0.128597  0.041719      4.000000
  0.043005 -0.128597  0.041719      8.000000
  0.086010 -0.128597  0.041719      8.000000
  0.129014 -0.128597  0.041719      8.000000
  0.000000 -0.085588  0.042149      4.000000
  0.043005 -0.085588  0.042149      8.000000
  0.086010 -0.085588  0.042149      8.000000
  0.129014 -0.085588  0.042149      8.000000
  0.000000 -0.042579  0.042579      2.000000
  0.043005 -0.042579  0.042579      4.000000
  0.086010 -0.042579  0.042579      4.000000
  0.129014 -0.042579  0.042579      4.000000
  0.000000  0.086878  0.086878      2.000000
  0.043005  0.086878  0.086878      4.000000
  0.086010  0.086878  0.086878      4.000000
  0.129014  0.086878  0.086878      4.000000
  0.000000  0.129887  0.087308      4.000000
  0.043005  0.129887  0.087308      8.000000
  0.086010  0.129887  0.087308      8.000000
  0.129014  0.129887  0.087308      8.000000
  0.000000 -0.128167  0.084728      4.000000
  0.043005 -0.128167  0.084728      8.000000
  0.086010 -0.128167  0.084728      8.000000
  0.129014 -0.128167  0.084728      8.000000
  0.000000 -0.085158  0.085158      2.000000
  0.043005 -0.085158  0.085158      4.000000
  0.086010 -0.085158  0.085158      4.000000
  0.129014 -0.085158  0.085158      4.000000
  0.000000  0.130318  0.130318      2.000000
  0.043005  0.130318  0.130318      4.000000
  0.086010  0.130318  0.130318      4.000000
  0.129014  0.130318  0.130318      4.000000
  0.000000 -0.127737  0.127737      2.000000
  0.043005 -0.127737  0.127737      4.000000
  0.086010 -0.127737  0.127737      4.000000
  0.129014 -0.127737  0.127737      4.000000
 


--------------------------------------------------------------------------------------------------------




 Dimension of arrays:
   k-points           NKPTS =     64   k-points in BZ     NKDIM =     64   number of bands    NBANDS=     16
   number of dos      NEDOS =    301   number of ions     NIONS =      2
   non local maximal  LDIM  =      6   non local SUM 2l+1 LMDIM =     18
   total plane-waves  NPLWV =  21952
   max r-space proj   IRMAX =  10859   max aug-charges    IRDMAX=  37069
   dimension x,y,z NGX =    28 NGY =   28 NGZ =   28
   dimension x,y,z NGXF=    56 NGYF=   56 NGZF=   56
   support grid    NGXF=    56 NGYF=   56 NGZF=   56
   ions per type =               2
   NGX,Y,Z   is equivalent  to a cutoff of  14.01, 14.01, 14.01 a.u.
   NGXF,Y,Z  is equivalent  to a cutoff of  28.03, 28.02, 28.02 a.u.

 SYSTEM =  unknown system                          
 POSCAR =  Generated POSCAR                        

 Startparameter for this run:
   NWRITE =      2    write-flag & timer
   PREC   = accura    normal or accurate (medium, high low for compatibility)
   ISTART =      0    job   : 0-new  1-cont  2-samecut
   ICHARG =      2    charge: 1-file 2-atom 10-const
   ISPIN  =      2    spin polarized calculation?
   LNONCOLLINEAR =      F non collinear calculations
   LSORBIT =      F    spin-orbit coupling
   INIWAV =      1    electr: 0-lowe 1-rand  2-diag
   LASPH  =      T    aspherical Exc in radial PAW
 Electronic Relaxation 1
   ENCUT  =  520.0 eV  38.22 Ry    6.18 a.u.   6.18  6.18  6.18*2*pi/ulx,y,z
   ENINI  =  520.0     initial cutoff
   ENAUG  =  355.1 eV  augmentation charge cutoff
   NELM   =    100;   NELMIN=  2; NELMDL= -5     # of ELM steps 
   EDIFF  = 0.1E-03   stopping-criterion for ELM
   LREAL  =      T    real-space projection
   NLSPLINE    = F    spline interpolate recip. space projectors
   LCOMPAT=      F    compatible to vasp.4.4
   GGA_COMPAT  = T    GGA compatible to vasp.4.4-vasp.4.6
   LMAXPAW     = -100 max onsite density
   LMAXMIX     =    6 max onsite mixed and CHGCAR
   VOSKOWN=      0    Vosko Wilk Nusair interpolation
   ROPT   =   -0.00025
 Ionic relaxation
   EDIFFG = 0.1E-02   stopping-criterion for IOM
   NSW    =      0    number of steps for IOM
   NBLOCK =      1;   KBLOCK =      1    inner block; outer block 
   IBRION =     -1    ionic relax: 0-MD 1-quasi-New 2-CG
   NFREE  =      0    steps in history (QN), initial steepest desc. (CG)
   ISIF   =      2    stress and relaxation
   IWAVPR =     10    prediction:  0-non 1-charg 2-wave 3-comb
   ISYM   =      2    0-nonsym 1-usesym 2-fastsym
   LCORR  =      T    Harris-Foulkes like correction to forces

   POTIM  = 0.5000    time-step for ionic-motion
   TEIN   =    0.0    initial temperature
   TEBEG  =    0.0;   TEEND  =   0.0 temperature during run
   SMASS  =  -3.00    Nose mass-parameter (am)
   estimated Nose-frequenzy (Omega)   =  0.10E-29 period in steps = 0.13E+47 mass=  -0.252E-27a.u.
   SCALEE = 1.0000    scale energy and forces
   NPACO  =    256;   APACO  = 10.0  distance and # of slots for P.C.
   PSTRESS=    0.0 pullay stress

  Mass of Ions in am
   POMASS =  92.00
  Ionic Valenz
   ZVAL   =  11.00
  Atomic Wigner-Seitz radii
   RWIGS  =  -1.00
  virtual crystal weights 
   VCA    =   1.00
   NELECT =      22.0000    total number of electrons
   NUPDOWN=      -1.0000    fix difference up-down

 DOS related values:
   EMIN   =  10.00;   EMAX   =-10.00  energy-range for DOS
   EFERMI =   0.00;   METHOD = LEGACY      
   ISMEAR =    -5;   SIGMA  =   0.05  broadening in eV -4-tet -1-fermi 0-gaus

 Electronic relaxation 2 (details)
   IALGO  =     68    algorithm
   LDIAG  =      T    sub-space diagonalisation (order eigenvalues)
   LSUBROT=      F    optimize rotation matrix (better conditioning)
   TURBO    =      0    0=normal 1=particle mesh
   IRESTART =      0    0=no restart 2=restart with 2 vectors
   NREBOOT  =      0    no. of reboots
   NMIN     =      0    reboot dimension
   EREF     =   0.00    reference energy to select bands
   IMIX   =      4    mixing-type and parameters
     AMIX     =   0.40;   BMIX     =  1.00
     AMIX_MAG =   1.60;   BMIX_MAG =  1.00
     AMIN     =   0.10
     WC   =   100.;   INIMIX=   1;  MIXPRE=   1;  MAXMIX= -45

 Intra band minimization:
   WEIMIN = 0.0000     energy-eigenvalue tresh-hold
   EBREAK =  0.16E-05  absolut break condition
   DEPER  =   0.30     relativ break condition  

   TIME   =   0.40     timestep for ELM

  volume/ion in A,a.u.               =      18.33       123.67
  Fermi-wavevector in a.u.,A,eV,Ry     =   1.380951  2.609619 25.946661  1.907026
  Thomas-Fermi vector in A             =   2.505781

 Write flags
   LWAVE        =      F    write WAVECAR
   LDOWNSAMPLE  =      F    k-point downsampling of WAVECAR
   LCHARG       =      T    write CHGCAR
   LVTOT        =      F    write LOCPOT, total local potential
   LVHAR        =      F    write LOCPOT, Hartree potential only
   LELF         =      F    write electronic localiz. function (ELF)
   LORBIT       =     11    0 simple, 1 ext, 2 COOP (PROOUT), +10 PAW based schemes


 Dipole corrections
   LMONO  =      F    monopole corrections only (constant potential shift)
   LDIPOL =      F    correct potential (dipole corrections)
   IDIPOL =      0    1-x, 2-y, 3-z, 4-all directions 
   EPSILON=  1.0000000 bulk dielectric constant

 Exchange correlation treatment:
   GGA     =    --    GGA type
   LEXCH   =     8    internal setting for exchange type
   LIBXC   =     F    Libxc                    
   VOSKOWN =     0    Vosko Wilk Nusair interpolation
   LHFCALC =     F    Hartree Fock is set to
   LHFONE  =     F    Hartree Fock one center treatment
   AEXX    =    0.0000 exact exchange contribution

 Linear response parameters
   LEPSILON=     F    determine dielectric tensor
   LRPA    =     F    only Hartree local field effects (RPA)
   LNABLA  =     F    use nabla operator in PAW spheres
   LVEL    =     F    velocity operator in full k-point grid
   CSHIFT  =0.1000    complex shift for real part using Kramers Kronig
   OMEGAMAX=  -1.0    maximum frequency
   DEG_THRESHOLD= 0.2000000E-02 threshold for treating states as degnerate
   RTIME   =   -0.100 relaxation time in fs
  (WPLASMAI=    0.000 imaginary part of plasma frequency in eV, 0.658/RTIME)
   DFIELD  = 0.0000000 0.0000000 0.0000000 field for delta impulse in time

  Optional k-point grid parameters
   LKPOINTS_OPT  =     F    use optional k-point grid
   KPOINTS_OPT_MODE=     1    mode for optional k-point grid

 Orbital magnetization related:
   ORBITALMAG=     F  switch on orbital magnetization
   LCHIMAG   =     F  perturbation theory with respect to B field
   DQ        =  0.001000  dq finite difference perturbation B field
   LLRAUG    =     F  two centre corrections for induced B field
   LBONE     =     F  B-component reconstruction in AE one-centre
   LVGVCALC  =     T  calculate vGv susceptibility
   LVGVAPPL  =     F  apply vGv susceptibility instead of pGv for G=0

 Random number generation:
   RANDOM_GENERATOR = DEFAULT
   PCG_SEED         = not used


--------------------------------------------------------------------------------------------------------


 Static calculation
 charge density and potential will be updated during run
 spin polarized calculation
 RMM-DIIS sequential band-by-band and
  variant of blocked Davidson during initial phase
 perform sub-space diagonalisation
    before iterative eigenvector-optimisation
 modified Broyden-mixing scheme, WC =      100.0
 initial mixing is a Kerker type mixing with AMIX =  0.4000 and BMIX =      1.0000
 Hartree-type preconditioning will be used
 using additional bands            5
 real space projection scheme for non local part
 use partial core corrections
 calculate Harris-corrections to forces   (improved forces if not selfconsistent)
 use gradient corrections 
 use of overlap-Matrix (Vanderbilt PP)
 Fermi weights with tetrahedron method with Bloechl corrections


--------------------------------------------------------------------------------------------------------


  energy-cutoff  :      520.00
  volume of cell :       36.65
      direct lattice vectors                 reciprocal lattice vectors
     3.321890070  0.000000000  0.000000000     0.301033441 -0.000000000 -0.000000000
     0.000000000  3.321890070 -0.033218901    -0.000000000  0.301063548  0.003010635
    -0.000000000 -0.033218901  3.321890070    -0.000000000  0.003010635  0.301063548

  length of vectors
     3.321890070  3.322056161  3.322056161     0.301033441  0.301078601  0.301078601



 k-points in units of 2pi/SCALE and weight: pymatgen with grid density = 869 / numbe
   0.00000000  0.00000000  0.00000000       0.003
   0.04300478  0.00000000  0.00000000       0.006
   0.08600955  0.00000000  0.00000000       0.006
   0.12901433  0.00000000  0.00000000       0.006
   0.00000000  0.04300908  0.00043009       0.012
   0.04300478  0.04300908  0.00043009       0.023
   0.08600955  0.04300908  0.00043009       0.023
   0.12901433  0.04300908  0.00043009       0.023
   0.00000000  0.08601816  0.00086018       0.012
   0.04300478  0.08601816  0.00086018       0.023
   0.08600955  0.08601816  0.00086018       0.023
   0.12901433  0.08601816  0.00086018       0.023
   0.00000000  0.12902723  0.00129027       0.012
   0.04300478  0.12902723  0.00129027       0.023
   0.08600955  0.12902723  0.00129027       0.023
   0.12901433  0.12902723  0.00129027       0.023
   0.00000000  0.04343917  0.04343917       0.006
   0.04300478  0.04343917  0.04343917       0.012
   0.08600955  0.04343917  0.04343917       0.012
   0.12901433  0.04343917  0.04343917       0.012
   0.00000000  0.08644825  0.04386926       0.012
   0.04300478  0.08644825  0.04386926       0.023
   0.08600955  0.08644825  0.04386926       0.023
   0.12901433  0.08644825  0.04386926       0.023
   0.00000000  0.12945733  0.04429935       0.012
   0.04300478  0.12945733  0.04429935       0.023
   0.08600955  0.12945733  0.04429935       0.023
   0.12901433  0.12945733  0.04429935       0.023
   0.00000000 -0.12859714  0.04171881       0.012
   0.04300478 -0.12859714  0.04171881       0.023
   0.08600955 -0.12859714  0.04171881       0.023
   0.12901433 -0.12859714  0.04171881       0.023
   0.00000000 -0.08558807  0.04214890       0.012
   0.04300478 -0.08558807  0.04214890       0.023
   0.08600955 -0.08558807  0.04214890       0.023
   0.12901433 -0.08558807  0.04214890       0.023
   0.00000000 -0.04257899  0.04257899       0.006
   0.04300478 -0.04257899  0.04257899       0.012
   0.08600955 -0.04257899  0.04257899       0.012
   0.12901433 -0.04257899  0.04257899       0.012
   0.00000000  0.08687834  0.08687834       0.006
   0.04300478  0.08687834  0.08687834       0.012
   0.08600955  0.08687834  0.08687834       0.012
   0.12901433  0.08687834  0.08687834       0.012
   0.00000000  0.12988742  0.08730843       0.012
   0.04300478  0.12988742  0.08730843       0.023
   0.08600955  0.12988742  0.08730843       0.023
   0.12901433  0.12988742  0.08730843       0.023
   0.00000000 -0.12816705  0.08472788       0.012
   0.04300478 -0.12816705  0.08472788       0.023
   0.08600955 -0.12816705  0.08472788       0.023
   0.12901433 -0.12816705  0.08472788       0.023
   0.00000000 -0.08515797  0.08515797       0.006
   0.04300478 -0.08515797  0.08515797       0.012
   0.08600955 -0.08515797  0.08515797       0.012
   0.12901433 -0.08515797  0.08515797       0.012
   0.00000000  0.13031751  0.13031751       0.006
   0.04300478  0.13031751  0.13031751       0.012
   0.08600955  0.13031751  0.13031751       0.012
   0.12901433  0.13031751  0.13031751       0.012
   0.00000000 -0.12773696  0.12773696       0.006
   0.04300478 -0.12773696  0.12773696       0.012
   0.08600955 -0.12773696  0.12773696       0.012
   0.12901433 -0.12773696  0.12773696       0.012

 k-points in reciprocal lattice and weights: pymatgen with grid density = 869 / numbe
   0.00000000  0.00000000  0.00000000       0.003
   0.14285714  0.00000000  0.00000000       0.006
   0.28571429  0.00000000  0.00000000       0.006
   0.42857143  0.00000000  0.00000000       0.006
   0.00000000  0.14285714  0.00000000       0.012
   0.14285714  0.14285714  0.00000000       0.023
   0.28571429  0.14285714  0.00000000       0.023
   0.42857143  0.14285714  0.00000000       0.023
   0.00000000  0.28571429  0.00000000       0.012
   0.14285714  0.28571429  0.00000000       0.023
   0.28571429  0.28571429  0.00000000       0.023
   0.42857143  0.28571429  0.00000000       0.023
   0.00000000  0.42857143  0.00000000       0.012
   0.14285714  0.42857143  0.00000000       0.023
   0.28571429  0.42857143  0.00000000       0.023
   0.42857143  0.42857143  0.00000000       0.023
   0.00000000  0.14285714  0.14285714       0.006
   0.14285714  0.14285714  0.14285714       0.012
   0.28571429  0.14285714  0.14285714       0.012
   0.42857143  0.14285714  0.14285714       0.012
   0.00000000  0.28571429  0.14285714       0.012
   0.14285714  0.28571429  0.14285714       0.023
   0.28571429  0.28571429  0.14285714       0.023
   0.42857143  0.28571429  0.14285714       0.023
   0.00000000  0.42857143  0.14285714       0.012
   0.14285714  0.42857143  0.14285714       0.023
   0.28571429  0.42857143  0.14285714       0.023
   0.42857143  0.42857143  0.14285714       0.023
   0.00000000 -0.42857143  0.14285714       0.012
   0.14285714 -0.42857143  0.14285714       0.023
   0.28571429 -0.42857143  0.14285714       0.023
   0.42857143 -0.42857143  0.14285714       0.023
   0.00000000 -0.28571429  0.14285714       0.012
   0.14285714 -0.28571429  0.14285714       0.023
   0.28571429 -0.28571429  0.14285714       0.023
   0.42857143 -0.28571429  0.14285714       0.023
   0.00000000 -0.14285714  0.14285714       0.006
   0.14285714 -0.14285714  0.14285714       0.012
   0.28571429 -0.14285714  0.14285714       0.012
   0.42857143 -0.14285714  0.14285714       0.012
   0.00000000  0.28571429  0.28571429       0.006
   0.14285714  0.28571429  0.28571429       0.012
   0.28571429  0.28571429  0.28571429       0.012
   0.42857143  0.28571429  0.28571429       0.012
   0.00000000  0.42857143  0.28571429       0.012
   0.14285714  0.42857143  0.28571429       0.023
   0.28571429  0.42857143  0.28571429       0.023
   0.42857143  0.42857143  0.28571429       0.023
   0.00000000 -0.42857143  0.28571429       0.012
   0.14285714 -0.42857143  0.28571429       0.023
   0.28571429 -0.42857143  0.28571429       0.023
   0.42857143 -0.42857143  0.28571429       0.023
   0.00000000 -0.28571429  0.28571429       0.006
   0.14285714 -0.28571429  0.28571429       0.012
   0.28571429 -0.28571429  0.28571429       0.012
   0.42857143 -0.28571429  0.28571429       0.012
   0.00000000  0.42857143  0.42857143       0.006
   0.14285714  0.42857143  0.42857143       0.012
   0.28571429  0.42857143  0.42857143       0.012
   0.42857143  0.42857143  0.42857143       0.012
   0.00000000 -0.42857143  0.42857143       0.006
   0.14285714 -0.42857143  0.42857143       0.012
   0.28571429 -0.42857143  0.42857143       0.012
   0.42857143 -0.42857143  0.42857143       0.012

 position of ions in fractional coordinates (direct lattice) 
   0.00000000  0.00000000  0.00000000
   0.50000000  0.50000000  0.50000000

 position of ions in cartesian coordinates  (Angst):
   0.00000000  0.00000000  0.00000000
   1.66094504  1.64433558  1.64433558



--------------------------------------------------------------------------------------------------------


 k-point   1 :   0.0000 0.0000 0.0000  plane waves:     989
 k-point   2 :   0.1429 0.0000 0.0000  plane waves:     989
 k-point   3 :   0.2857 0.0000 0.0000  plane waves:     988
 k-point   4 :   0.4286 0.0000 0.0000  plane waves:     992
 k-point   5 :   0.0000 0.1429 0.0000  plane waves:     984
 k-point   6 :   0.1429 0.1429 0.0000  plane waves:     978
 k-point   7 :   0.2857 0.1429 0.0000  plane waves:     987
 k-point   8 :   0.4286 0.1429 0.0000  plane waves:     987
 k-point   9 :   0.0000 0.2857 0.0000  plane waves:     986
 k-point  10 :   0.1429 0.2857 0.0000  plane waves:     987
 k-point  11 :   0.2857 0.2857 0.0000  plane waves:     992
 k-point  12 :   0.4286 0.2857 0.0000  plane waves:     982
 k-point  13 :   0.0000 0.4286 0.0000  plane waves:     986
 k-point  14 :   0.1429 0.4286 0.0000  plane waves:     986
 k-point  15 :   0.2857 0.4286 0.0000  plane waves:     984
 k-point  16 :   0.4286 0.4286 0.0000  plane waves:     993
 k-point  17 :   0.0000 0.1429 0.1429  plane waves:     985
 k-point  18 :   0.1429 0.1429 0.1429  plane waves:     973
 k-point  19 :   0.2857 0.1429 0.1429  plane waves:     979
 k-point  20 :   0.4286 0.1429 0.1429  plane waves:     982
 k-point  21 :   0.0000 0.2857 0.1429  plane waves:     985
 k-point  22 :   0.1429 0.2857 0.1429  plane waves:     980
 k-point  23 :   0.2857 0.2857 0.1429  plane waves:     984
 k-point  24 :   0.4286 0.2857 0.1429  plane waves:     984
 k-point  25 :   0.0000 0.4286 0.1429  plane waves:     983
 k-point  26 :   0.1429 0.4286 0.1429  plane waves:     983
 k-point  27 :   0.2857 0.4286 0.1429  plane waves:     992
 k-point  28 :   0.4286 0.4286 0.1429  plane waves:     994
 k-point  29 :   0.0000-0.4286 0.1429  plane waves:     987
 k-point  30 :   0.1429-0.4286 0.1429  plane waves:     984
 k-point  31 :   0.2857-0.4286 0.1429  plane waves:     987
 k-point  32 :   0.4286-0.4286 0.1429  plane waves:     990
 k-point  33 :   0.0000-0.2857 0.1429  plane waves:     989
 k-point  34 :   0.1429-0.2857 0.1429  plane waves:     992
 k-point  35 :   0.2857-0.2857 0.1429  plane waves:     992
 k-point  36 :   0.4286-0.2857 0.1429  plane waves:     986
 k-point  37 :   0.0000-0.1429 0.1429  plane waves:     983
 k-point  38 :   0.1429-0.1429 0.1429  plane waves:     981
 k-point  39 :   0.2857-0.1429 0.1429  plane waves:     990
 k-point  40 :   0.4286-0.1429 0.1429  plane waves:     992
 k-point  41 :   0.0000 0.2857 0.2857  plane waves:     987
 k-point  42 :   0.1429 0.2857 0.2857  plane waves:     986
 k-point  43 :   0.2857 0.2857 0.2857  plane waves:     989
 k-point  44 :   0.4286 0.2857 0.2857  plane waves:     990
 k-point  45 :   0.0000 0.4286 0.2857  plane waves:     982
 k-point  46 :   0.1429 0.4286 0.2857  plane waves:     992
 k-point  47 :   0.2857 0.4286 0.2857  plane waves:     986
 k-point  48 :   0.4286 0.4286 0.2857  plane waves:     992
 k-point  49 :   0.0000-0.4286 0.2857  plane waves:     983
 k-point  50 :   0.1429-0.4286 0.2857  plane waves:     986
 k-point  51 :   0.2857-0.4286 0.2857  plane waves:     987
 k-point  52 :   0.4286-0.4286 0.2857  plane waves:     991
 k-point  53 :   0.0000-0.2857 0.2857  plane waves:     989
 k-point  54 :   0.1429-0.2857 0.2857  plane waves:     993
 k-point  55 :   0.2857-0.2857 0.2857  plane waves:     987
 k-point  56 :   0.4286-0.2857 0.2857  plane waves:     987
 k-point  57 :   0.0000 0.4286 0.4286  plane waves:     984
 k-point  58 :   0.1429 0.4286 0.4286  plane waves:     985
 k-point  59 :   0.2857 0.4286 0.4286  plane waves:     991
 k-point  60 :   0.4286 0.4286 0.4286  plane waves:     997
 k-point  61 :   0.0000-0.4286 0.4286  plane waves:     992
 k-point  62 :   0.1429-0.4286 0.4286  plane waves:     993
 k-point  63 :   0.2857-0.4286 0.4286  plane waves:     991
 k-point  64 :   0.4286-0.4286 0.4286  plane waves:     990

 maximum and minimum number of plane-waves per node :       997      973

 maximum number of plane-waves:       997
 maximum index in each direction: 
   IXMAX=    6   IYMAX=    6   IZMAX=    6
   IXMIN=   -6   IYMIN=   -6   IZMIN=   -6


 serial   3D FFT for wavefunctions
 parallel 3D FFT for charge:
    minimum data exchange during FFTs selected (reduces bandwidth)


 total amount of memory used by VASP MPI-rank0    91145. kBytes
=======================================================================

   base      :      30000. kBytes
   nonlr-proj:       6266. kBytes
   fftplans  :       6192. kBytes
   grid      :      14776. kBytes
   one-center:         62. kBytes
   wavefun   :      33849. kBytes

     INWAV:  cpu time      0.0000: real time      0.0000
 Broyden mixing: mesh for mixing (old mesh)
   NGX = 13   NGY = 13   NGZ = 13
  (NGX  = 56   NGY  = 56   NGZ  = 56)
  gives a total of   2197 points

 initial charge density was supplied:
 charge density of overlapping atoms calculated
 number of electron      22.0000000 magnetization       1.2000000
 keeping initial charge density in first step


--------------------------------------------------------------------------------------------------------


 Maximum index for non-local projection operator         1138
 Maximum index for augmentation-charges        35805 (set IRDMAX)


--------------------------------------------------------------------------------------------------------


 First call to EWALD:  gamma=   0.534
 Maximum number of real-space cells 3x 3x 3
 Maximum number of reciprocal cells 3x 3x 3

    FEWALD:  cpu time      0.0044: real time      0.0045


--------------------------------------- Ionic step        1  -------------------------------------------




--------------------------------------- Iteration      1(   1)  ---------------------------------------


    POTLOK:  cpu time      1.7457: real time      0.1285
    SETDIJ:  cpu time      1.0672: real time      0.2484
     EDDAV:  cpu time    322.7196: real time     18.5454
 BZINTS: Fermi energy:   23.705178;   22.000000 electrons
         Band energy:-0.249630E+02;  BLOECHL correction:   -0.789759
       DOS:  cpu time      0.1899: real time      0.0269
    --------------------------------------------
      LOOP:  cpu time    325.7224: real time     18.9493

 eigenvalue-minimisations  :  4416
 total energy-change (2. order) : 0.2050854E+03  (-0.1167842E+04)
 number of electron      22.0000000 magnetization       1.2000000
 augmentation part       22.0000000 magnetization       1.2000000

 Free energy of the ion-electron system (eV)
  ---------------------------------------------------
  alpha Z        PSCENC =       247.02244180
  Ewald energy   TEWEN  =     -1908.81069913
  -Hartree energ DENC   =      -279.47105396
  -exchange      EXHF   =         0.00000000
  -V(xc)+E(xc)   XCENC  =        52.61804104
  PAW double counting   =      1671.32378679    -1639.41528309
  entropy T*S    EENTRO =         0.00000000
  eigenvalues    EBANDS =       -24.96303771
  atomic energy  EATOM  =      2086.78124273
  Solvation  Ediel_sol  =         0.00000000
  ---------------------------------------------------
  free energy    TOTEN  =       205.08543847 eV

  energy without entropy =      205.08543847  energy(sigma->0) =      205.08543847


--------------------------------------------------------------------------------------------------------




--------------------------------------- Iteration      1(   2)  ---------------------------------------


     EDDAV:  cpu time    340.7973: real time     19.2767
 BZINTS: Fermi energy:    7.164303;   22.000000 electrons
         Band energy:-0.240358E+03;  BLOECHL correction:   -0.292110
       DOS:  cpu time      0.2680: real time      0.0319
    --------------------------------------------
      LOOP:  cpu time    341.0653: real time     19.3086

 eigenvalue-minimisations  :  4272
 total energy-change (2. order) :-0.2153952E+03  (-0.2131317E+03)
 number of electron      22.0000000 magnetization       1.2000000
 augmentation part       22.0000000 magnetization       1.2000000

 Free energy of the ion-electron system (eV)
  ---------------------------------------------------
  alpha Z        PSCENC =       247.02244180
  Ewald energy   TEWEN  =     -1908.81069913
  -Hartree energ DENC   =      -279.47105396
  -exchange      EXHF   =         0.00000000
  -V(xc)+E(xc)   XCENC  =        52.61804104
  PAW double counting   =      1671.32378679    -1639.41528309
  entropy T*S    EENTRO =         0.00000000
  eigenvalues    EBANDS =      -240.35824589
  atomic energy  EATOM  =      2086.78124273
  Solvation  Ediel_sol  =         0.00000000
  ---------------------------------------------------
  free energy    TOTEN  =       -10.30976971 eV

  energy without entropy =      -10.30976971  energy(sigma->0) =      -10.30976971


--------------------------------------------------------------------------------------------------------




--------------------------------------- Iteration      1(   3)  ---------------------------------------


     EDDAV:  cpu time    619.9079: real time     33.5065
 BZINTS: Fermi energy:    5.470012;   22.000000 electrons
         Band energy:-0.251011E+03;  BLOECHL correction:   -0.210601
       DOS:  cpu time      0.2781: real time      0.0274
    --------------------------------------------
      LOOP:  cpu time    620.1860: real time     33.5339

 eigenvalue-minimisations  :  6856
 total energy-change (2. order) :-0.1065314E+02  (-0.1005745E+02)
 number of electron      22.0000000 magnetization       1.2000000
 augmentation part       22.0000000 magnetization       1.2000000

 Free energy of the ion-electron system (eV)
  ---------------------------------------------------
  alpha Z        PSCENC =       247.02244180
  Ewald energy   TEWEN  =     -1908.81069913
  -Hartree energ DENC   =      -279.47105396
  -exchange      EXHF   =         0.00000000
  -V(xc)+E(xc)   XCENC  =        52.61804104
  PAW double counting   =      1671.32378679    -1639.41528309
  entropy T*S    EENTRO =         0.00000000
  eigenvalues    EBANDS =      -251.01138609
  atomic energy  EATOM  =      2086.78124273
  Solvation  Ediel_sol  =         0.00000000
  ---------------------------------------------------
  free energy    TOTEN  =       -20.96290991 eV

  energy without entropy =      -20.96290991  energy(sigma->0) =      -20.96290991


--------------------------------------------------------------------------------------------------------




--------------------------------------- Iteration      1(   4)  ---------------------------------------


     EDDAV:  cpu time    411.7679: real time     23.1118
 BZINTS: Fermi energy:    5.444602;   22.000000 electrons
         Band energy:-0.251193E+03;  BLOECHL correction:   -0.208198
       DOS:  cpu time      0.2560: real time      0.0288
    --------------------------------------------
      LOOP:  cpu time    412.0239: real time     23.1406

 eigenvalue-minimisations  :  5144
 total energy-change (2. order) :-0.1819283E+00  (-0.1795655E+00)
 number of electron      22.0000000 magnetization       1.2000000
 augmentation part       22.0000000 magnetization       1.2000000

 Free energy of the ion-electron system (eV)
  ---------------------------------------------------
  alpha Z        PSCENC =       247.02244180
  Ewald energy   TEWEN  =     -1908.81069913
  -Hartree energ DENC   =      -279.47105396
  -exchange      EXHF   =         0.00000000
  -V(xc)+E(xc)   XCENC  =        52.61804104
  PAW double counting   =      1671.32378679    -1639.41528309
  entropy T*S    EENTRO =         0.00000000
  eigenvalues    EBANDS =      -251.19331438
  atomic energy  EATOM  =      2086.78124273
  Solvation  Ediel_sol  =         0.00000000
  ---------------------------------------------------
  free energy    TOTEN  =       -21.14483820 eV

  energy without entropy =      -21.14483820  energy(sigma->0) =      -21.14483820


--------------------------------------------------------------------------------------------------------




--------------------------------------- Iteration      1(   5)  ---------------------------------------


     EDDAV:  cpu time    442.0736: real time     25.2075
 BZINTS: Fermi energy:    5.443087;   22.000000 electrons
         Band energy:-0.251198E+03;  BLOECHL correction:   -0.207689
       DOS:  cpu time      0.3071: real time      0.0309
    CHARGE:  cpu time     24.5884: real time      1.4308
    MIXING:  cpu time      0.0011: real time      0.0011
    --------------------------------------------
      LOOP:  cpu time    466.9702: real time     26.6704

 eigenvalue-minimisations  :  6448
 total energy-change (2. order) :-0.4662300E-02  (-0.4623732E-02)
 number of electron      22.0000001 magnetization       0.3424164
 augmentation part        7.7579287 magnetization      -0.0593640

 Broyden mixing:
  rms(total) = 0.24008E+01    rms(broyden)= 0.24008E+01
  rms(prec ) = 0.28256E+01
  weight for this iteration     100.00

 Free energy of the ion-electron system (eV)
  ---------------------------------------------------
  alpha Z        PSCENC =       247.02244180
  Ewald energy   TEWEN  =     -1908.81069913
  -Hartree energ DENC   =      -279.47105396
  -exchange      EXHF   =         0.00000000
  -V(xc)+E(xc)   XCENC  =        52.61804104
  PAW double counting   =      1671.32378679    -1639.41528309
  entropy T*S    EENTRO =         0.00000000
  eigenvalues    EBANDS =      -251.19797668
  atomic energy  EATOM  =      2086.78124273
  Solvation  Ediel_sol  =         0.00000000
  ---------------------------------------------------
  free energy    TOTEN  =       -21.14950050 eV

  energy without entropy =      -21.14950050  energy(sigma->0) =      -21.14950050


--------------------------------------------------------------------------------------------------------




--------------------------------------- Iteration      1(   6)  ---------------------------------------


    POTLOK:  cpu time      1.0391: real time      0.1012
    SETDIJ:  cpu time      1.1028: real time      0.2554
    EDDIAG:  cpu time     72.4657: real time      4.1300
  RMM-DIIS:  cpu time    220.5214: real time     12.3180
    ORTHCH:  cpu time      2.6021: real time      0.1447
 BZINTS: Fermi energy:    5.093432;   22.000000 electrons
         Band energy:-0.265228E+03;  BLOECHL correction:   -0.210248
       DOS:  cpu time      0.2102: real time      0.0266
    CHARGE:  cpu time     25.0572: real time      1.4061
    MIXING:  cpu time      0.0014: real time      0.0014
    --------------------------------------------
      LOOP:  cpu time    322.9998: real time     18.3833

 eigenvalue-minimisations  :  4486
 total energy-change (2. order) : 0.8024342E+00  (-0.7995058E-01)
 number of electron      22.0000001 magnetization       0.1513685
 augmentation part        7.8849469 magnetization      -0.0574706

 Broyden mixing:
  rms(total) = 0.91291E+00    rms(broyden)= 0.91291E+00
  rms(prec ) = 0.11955E+01
  weight for this iteration     100.00

 eigenvalues of (default mixing * dielectric matrix)
  average eigenvalue GAMMA=   1.5005
  1.5005

 Free energy of the ion-electron system (eV)
  ---------------------------------------------------
  alpha Z        PSCENC =       247.02244180
  Ewald energy   TEWEN  =     -1908.81069913
  -Hartree energ DENC   =      -260.13191853
  -exchange      EXHF   =         0.00000000
  -V(xc)+E(xc)   XCENC  =        51.60342483
  PAW double counting   =      2186.97199410    -2158.55536729
  entropy T*S    EENTRO =         0.00000000
  eigenvalues    EBANDS =      -265.22818483
  atomic energy  EATOM  =      2086.78124273
  Solvation  Ediel_sol  =         0.00000000
  ---------------------------------------------------
  free energy    TOTEN  =       -20.34706632 eV

  energy without entropy =      -20.34706632  energy(sigma->0) =      -20.34706632


--------------------------------------------------------------------------------------------------------




--------------------------------------- Iteration      1(   7)  ---------------------------------------


    POTLOK:  cpu time      2.2144: real time      0.1575
    SETDIJ:  cpu time      1.0109: real time      0.2422
    EDDIAG:  cpu time     74.5570: real time      4.2852
  RMM-DIIS:  cpu time    273.6113: real time     15.2259
    ORTHCH:  cpu time      1.4271: real time      0.0835
 BZINTS: Fermi energy:    4.800677;   22.000000 electrons
         Band energy:-0.276997E+03;  BLOECHL correction:   -0.207899
       DOS:  cpu time      0.1799: real time      0.0264
    CHARGE:  cpu time     26.8268: real time      1.5166
    MIXING:  cpu time      0.0012: real time      0.0012
    --------------------------------------------
      LOOP:  cpu time    379.8286: real time     21.5386

 eigenvalue-minimisations  :  5563
 total energy-change (2. order) : 0.1473038E+00  (-0.2151970E+00)
 number of electron      22.0000001 magnetization       0.0318938
 augmentation part        8.0571994 magnetization       0.0341268

 Broyden mixing:
  rms(total) = 0.24435E+00    rms(broyden)= 0.24435E+00
  rms(prec ) = 0.26280E+00
  weight for this iteration     100.00

 eigenvalues of (default mixing * dielectric matrix)
  average eigenvalue GAMMA=   1.0761
  1.6165  0.5356

 Free energy of the ion-electron system (eV)
  ---------------------------------------------------
  alpha Z        PSCENC =       247.02244180
  Ewald energy   TEWEN  =     -1908.81069913
  -Hartree energ DENC   =      -244.42040514
  -exchange      EXHF   =         0.00000000
  -V(xc)+E(xc)   XCENC  =        50.82263307
  PAW double counting   =      2617.72002654    -2592.31800973
  entropy T*S    EENTRO =         0.00000000
  eigenvalues    EBANDS =      -276.99699269
  atomic energy  EATOM  =      2086.78124273
  Solvation  Ediel_sol  =         0.00000000
  ---------------------------------------------------
  free energy    TOTEN  =       -20.19976255 eV

  energy without entropy =      -20.19976255  energy(sigma->0) =      -20.19976255


--------------------------------------------------------------------------------------------------------




--------------------------------------- Iteration      1(   8)  ---------------------------------------


    POTLOK:  cpu time      1.8123: real time      0.1364
    SETDIJ:  cpu time      1.0670: real time      0.2670
    EDDIAG:  cpu time     71.1394: real time      4.0820
  RMM-DIIS:  cpu time    285.4113: real time     15.8874
    ORTHCH:  cpu time      1.3798: real time      0.0861
 BZINTS: Fermi energy:    4.811685;   22.000000 electrons
         Band energy:-0.276460E+03;  BLOECHL correction:   -0.208042
       DOS:  cpu time      0.2371: real time      0.0269
    CHARGE:  cpu time     30.8735: real time      1.7139
    MIXING:  cpu time      0.0013: real time      0.0012
    --------------------------------------------
      LOOP:  cpu time    391.9217: real time     22.2009

 eigenvalue-minimisations  :  5988
 total energy-change (2. order) :-0.1140880E-01  (-0.1072490E-01)
 number of electron      22.0000001 magnetization       0.0196492
 augmentation part        8.0639714 magnetization       0.0144976

 Broyden mixing:
  rms(total) = 0.11861E+00    rms(broyden)= 0.11861E+00
  rms(prec ) = 0.14672E+00
  weight for this iteration     100.00

 eigenvalues of (default mixing * dielectric matrix)
  average eigenvalue GAMMA=   1.0681
  1.8349  0.6847  0.6847

 Free energy of the ion-electron system (eV)
  ---------------------------------------------------
  alpha Z        PSCENC =       247.02244180
  Ewald energy   TEWEN  =     -1908.81069913
  -Hartree energ DENC   =      -244.75919445
  -exchange      EXHF   =         0.00000000
  -V(xc)+E(xc)   XCENC  =        50.83260423
  PAW double counting   =      2665.99064049    -2640.80868586
  entropy T*S    EENTRO =         0.00000000
  eigenvalues    EBANDS =      -276.45952116
  atomic energy  EATOM  =      2086.78124273
  Solvation  Ediel_sol  =         0.00000000
  ---------------------------------------------------
  free energy    TOTEN  =       -20.21117135 eV

  energy without entropy =      -20.21117135  energy(sigma->0) =      -20.21117135


--------------------------------------------------------------------------------------------------------




--------------------------------------- Iteration      1(   9)  ---------------------------------------


    POTLOK:  cpu time      2.2078: real time      0.1557
    SETDIJ:  cpu time      1.0161: real time      0.2449
    EDDIAG:  cpu time     79.9559: real time      4.5197
  RMM-DIIS:  cpu time    290.1212: real time     16.1976
    ORTHCH:  cpu time      1.0602: real time      0.0684
 BZINTS: Fermi energy:    4.820535;   22.000000 electrons
         Band energy:-0.276045E+03;  BLOECHL correction:   -0.208175
       DOS:  cpu time      0.2332: real time      0.0266
    CHARGE:  cpu time     23.8860: real time      1.3892
    MIXING:  cpu time      0.0020: real time      0.0019
    --------------------------------------------
      LOOP:  cpu time    398.4825: real time     22.6040

 eigenvalue-minimisations  :  5941
 total energy-change (2. order) : 0.6256920E-04  (-0.2440742E-02)
 number of electron      22.0000001 magnetization       0.0172434
 augmentation part        8.0641967 magnetization       0.0161950

 Broyden mixing:
  rms(total) = 0.95916E-01    rms(broyden)= 0.95916E-01
  rms(prec ) = 0.12256E+00
  weight for this iteration     100.00

 eigenvalues of (default mixing * dielectric matrix)
  average eigenvalue GAMMA=   1.0906
  2.0866  0.8370  0.8370  0.6018

 Free energy of the ion-electron system (eV)
  ---------------------------------------------------
  alpha Z        PSCENC =       247.02244180
  Ewald energy   TEWEN  =     -1908.81069913
  -Hartree energ DENC   =      -245.11413146
  -exchange      EXHF   =         0.00000000
  -V(xc)+E(xc)   XCENC  =        50.84908472
  PAW double counting   =      2706.32656102    -2681.22092383
  entropy T*S    EENTRO =         0.00000000
  eigenvalues    EBANDS =      -276.04468463
  atomic energy  EATOM  =      2086.78124273
  Solvation  Ediel_sol  =         0.00000000
  ---------------------------------------------------
  free energy    TOTEN  =       -20.21110879 eV

  energy without entropy =      -20.21110879  energy(sigma->0) =      -20.21110879


--------------------------------------------------------------------------------------------------------




--------------------------------------- Iteration      1(  10)  ---------------------------------------


    POTLOK:  cpu time      1.7718: real time      0.1388
    SETDIJ:  cpu time      1.0959: real time      0.2509
    EDDIAG:  cpu time     69.1317: real time      3.9882
  RMM-DIIS:  cpu time    245.3532: real time     13.6282
    ORTHCH:  cpu time      1.2526: real time      0.0783
 BZINTS: Fermi energy:    4.842153;   22.000000 electrons
         Band energy:-0.275086E+03;  BLOECHL correction:   -0.208483
       DOS:  cpu time      0.2514: real time      0.0254
    CHARGE:  cpu time     27.5109: real time      1.5552
    MIXING:  cpu time      0.0015: real time      0.0015
    --------------------------------------------
      LOOP:  cpu time    346.3691: real time     19.6665

 eigenvalue-minimisations  :  4762
 total energy-change (2. order) : 0.3396464E-02  (-0.5947663E-03)
 number of electron      22.0000001 magnetization      -0.0063172
 augmentation part        8.0558339 magnetization      -0.0023337

 Broyden mixing:
  rms(total) = 0.68125E-01    rms(broyden)= 0.68125E-01
  rms(prec ) = 0.75464E-01
  weight for this iteration     100.00

 eigenvalues of (default mixing * dielectric matrix)
  average eigenvalue GAMMA=   1.3541
  2.6540  1.3651  1.3651  0.6285  0.7579

 Free energy of the ion-electron system (eV)
  ---------------------------------------------------
  alpha Z        PSCENC =       247.02244180
  Ewald energy   TEWEN  =     -1908.81069913
  -Hartree energ DENC   =      -246.05322138
  -exchange      EXHF   =         0.00000000
  -V(xc)+E(xc)   XCENC  =        50.89387440
  PAW double counting   =      2783.28762857    -2758.24323866
  entropy T*S    EENTRO =         0.00000000
  eigenvalues    EBANDS =      -275.08574065
  atomic energy  EATOM  =      2086.78124273
  Solvation  Ediel_sol  =         0.00000000
  ---------------------------------------------------
  free energy    TOTEN  =       -20.20771232 eV

  energy without entropy =      -20.20771232  energy(sigma->0) =      -20.20771232


--------------------------------------------------------------------------------------------------------




--------------------------------------- Iteration      1(  11)  ---------------------------------------


    POTLOK:  cpu time      1.5980: real time      0.1255
    SETDIJ:  cpu time      1.0423: real time      0.2469
    EDDIAG:  cpu time     67.2040: real time      3.8835
  RMM-DIIS:  cpu time    263.2586: real time     14.7032
    ORTHCH:  cpu time      1.5074: real time      0.0918
 BZINTS: Fermi energy:    4.853738;   22.000000 electrons
         Band energy:-0.274563E+03;  BLOECHL correction:   -0.208639
       DOS:  cpu time      0.2997: real time      0.0294
    CHARGE:  cpu time     26.5910: real time      1.5339
    MIXING:  cpu time      0.0018: real time      0.0018
    --------------------------------------------
      LOOP:  cpu time    361.5029: real time     20.6161

 eigenvalue-minimisations  :  5434
 total energy-change (2. order) :-0.8468644E-04  (-0.5395622E-03)
 number of electron      22.0000001 magnetization      -0.0045897
 augmentation part        8.0492261 magnetization      -0.0003350

 Broyden mixing:
  rms(total) = 0.42344E-02    rms(broyden)= 0.42344E-02
  rms(prec ) = 0.49988E-02
  weight for this iteration     100.00

 eigenvalues of (default mixing * dielectric matrix)
  average eigenvalue GAMMA=   1.2708
  2.5965  1.4514  1.4514  0.7899  0.6199  0.7157

 Free energy of the ion-electron system (eV)
  ---------------------------------------------------
  alpha Z        PSCENC =       247.02244180
  Ewald energy   TEWEN  =     -1908.81069913
  -Hartree energ DENC   =      -246.52043908
  -exchange      EXHF   =         0.00000000
  -V(xc)+E(xc)   XCENC  =        50.91587231
  PAW double counting   =      2861.32698557    -2836.36000650
  entropy T*S    EENTRO =         0.00000000
  eigenvalues    EBANDS =      -274.56319470
  atomic energy  EATOM  =      2086.78124273
  Solvation  Ediel_sol  =         0.00000000
  ---------------------------------------------------
  free energy    TOTEN  =       -20.20779701 eV

  energy without entropy =      -20.20779701  energy(sigma->0) =      -20.20779701


--------------------------------------------------------------------------------------------------------




--------------------------------------- Iteration      1(  12)  ---------------------------------------


    POTLOK:  cpu time      1.7878: real time      0.1284
    SETDIJ:  cpu time      1.0090: real time      0.2546
    EDDIAG:  cpu time     67.3131: real time      3.9148
  RMM-DIIS:  cpu time    204.3826: real time     11.3951
    ORTHCH:  cpu time      1.2504: real time      0.0788
 BZINTS: Fermi energy:    4.853953;   22.000000 electrons
         Band energy:-0.274554E+03;  BLOECHL correction:   -0.208643
       DOS:  cpu time      0.2582: real time      0.0236
    --------------------------------------------
      LOOP:  cpu time    276.0010: real time     15.7952

 eigenvalue-minimisations  :  3896
 total energy-change (2. order) :-0.7680657E-04  (-0.5919822E-04)
 number of electron      22.0000001 magnetization      -0.0045897
 augmentation part        8.0492261 magnetization      -0.0003350

 Free energy of the ion-electron system (eV)
  ---------------------------------------------------
  alpha Z        PSCENC =       247.02244180
  Ewald energy   TEWEN  =     -1908.81069913
  -Hartree energ DENC   =      -246.54705334
  -exchange      EXHF   =         0.00000000
  -V(xc)+E(xc)   XCENC  =        50.91716658
  PAW double counting   =      2860.50008445    -2835.51698662
  entropy T*S    EENTRO =         0.00000000
  eigenvalues    EBANDS =      -274.55407028
  atomic energy  EATOM  =      2086.78124273
  Solvation  Ediel_sol  =         0.00000000
  ---------------------------------------------------
  free energy    TOTEN  =       -20.20787381 eV

  energy without entropy =      -20.20787381  energy(sigma->0) =      -20.20787381


--------------------------------------------------------------------------------------------------------




 average (electrostatic) potential at core
  the test charge radii are     1.2125
  (the norm of the test charge is              1.0000)
       1 -35.1714       2 -35.1714



 E-fermi :   4.8540     XC(G=0): -12.3453     alpha+bet :-12.7651

 Fermi energy:         4.8539528990

 spin component 1

 k-point     1 :       0.0000    0.0000    0.0000
  band No.  band energies     occupation 
      1     -25.8201      1.00000
      2     -25.7878      1.00000
      3     -25.7540      1.00000
      4     -24.9397      1.00000
      5     -24.9062      1.00000
      6     -24.8747      1.00000
      7      -1.0608      1.00000
      8       1.2056      1.00000
      9       1.2080      1.00000
     10       5.0539      0.03736
     11       5.1890     -0.02645
     12       5.3416      0.00000
     13       8.0489      0.00000
     14       8.0621      0.00000
     15      10.1386      0.00000
     16      10.3106      0.00000

 k-point     2 :       0.1429    0.0000    0.0000
  band No.  band energies     occupation 
      1     -25.7909      1.00000
      2     -25.7723      1.00000
      3     -25.7120      1.00000
      4     -25.0011      1.00000
      5     -24.9780      1.00000
      6     -24.9202      1.00000
      7      -0.6512      1.00000
      8       1.4351      1.00000
      9       1.5447      1.00000
     10       5.0417      0.25029
     11       5.2910     -0.05438
     12       5.3818      0.00000
     13       7.4793      0.00000
     14       8.2663      0.00000
     15       9.0227      0.00000
     16       9.2910      0.00000

 k-point     3 :       0.2857    0.0000    0.0000
  band No.  band energies     occupation 
      1     -25.7743      1.00000
      2     -25.6390      1.00000
      3     -25.5950      1.00000
      4     -25.2343      1.00000
      5     -25.0865      1.00000
      6     -25.0487      1.00000
      7       0.4424      1.00000
      8       2.1056      1.00000
      9       2.2976      1.00000
     10       5.1132      0.52445
     11       5.2694     -0.11171
     12       5.9445      0.00000
     13       6.1322      0.00000
     14       7.4289      0.00000
     15       7.5962      0.00000
     16       8.7745      0.00000

 k-point     4 :       0.4286    0.0000    0.0000
  band No.  band energies     occupation 
      1     -25.6850      1.00000
      2     -25.4941      1.00000
      3     -25.4473      1.00000
      4     -25.4282      1.00000
      5     -25.2466      1.00000
      6     -25.2365      1.00000
      7       1.7968      1.00000
      8       2.6160      1.00000
      9       3.1821      1.00000
     10       4.5820      0.99418
     11       5.4774     -0.20817
     12       5.5223      0.00000
     13       6.2242      0.00000
     14       6.2891      0.00000
     15       6.8250      0.00000
     16       7.9197      0.00000

 k-point     5 :       0.0000    0.1429    0.0000
  band No.  band energies     occupation 
      1     -25.8043      1.00000
      2     -25.7428      1.00000
      3     -25.7281      1.00000
      4     -25.0150      1.00000
      5     -24.9482      1.00000
      6     -24.9360      1.00000
      7      -0.6511      1.00000
      8       1.4335      1.00000
      9       1.5459      1.00000
     10       5.1073      0.11719
     11       5.1587      0.00126
     12       5.4484      0.00000
     13       7.4890      0.00000
     14       8.2560      0.00000
     15       9.1344      0.00000
     16       9.1562      0.00000

 k-point     6 :       0.1429    0.1429    0.0000
  band No.  band energies     occupation 
      1     -25.8689      1.00000
      2     -25.7005      1.00000
      3     -25.6292      1.00000
      4     -25.1667      1.00000
      5     -24.9920      1.00000
      6     -24.9018      1.00000
      7      -0.2801      1.00000
      8       1.6741      1.00000
      9       1.8471      1.00000
     10       4.7294      0.88320
     11       5.0457      0.14068
     12       5.9916     -0.00620
     13       7.5658      0.00000
     14       7.8933      0.00000
     15       8.0885      0.00000
     16       8.2200      0.00000

 k-point     7 :       0.2857    0.1429    0.0000
  band No.  band energies     occupation 
      1     -25.9076      1.00000
      2     -25.5854      1.00000
      3     -25.4680      1.00000
      4     -25.4307      1.00000
      5     -25.0948      1.00000
      6     -24.9597      1.00000
      7       0.6781      1.00000
      8       2.1909      1.00000
      9       2.6370      1.00000
     10       4.4957      1.01414
     11       4.8272      0.74407
     12       6.4046     -0.05168
     13       6.8220      0.00000
     14       6.8841      0.00000
     15       6.9553      0.00000
     16       8.5771      0.00000

 k-point     8 :       0.4286    0.1429    0.0000
  band No.  band energies     occupation 
      1     -25.8550      1.00000
      2     -25.6868      1.00000
      3     -25.4227      1.00000
      4     -25.2819      1.00000
      5     -25.2474      1.00000
      6     -25.0997      1.00000
      7       1.7926      1.00000
      8       2.4713      1.00000
      9       3.4423      1.00000
     10       4.3412      1.00301
     11       4.6485      0.92607
     12       5.2826     -0.03386
     13       6.3892      0.00000
     14       6.4686      0.00000
     15       7.8874      0.00000
     16       9.0221      0.00000

 k-point     9 :       0.0000    0.2857    0.0000
  band No.  band energies     occupation 
      1     -25.7763      1.00000
      2     -25.6174      1.00000
      3     -25.6145      1.00000
      4     -25.2374      1.00000
      5     -25.0669      1.00000
      6     -25.0651      1.00000
      7       0.4428      1.00000
      8       2.1044      1.00000
      9       2.2971      1.00000
     10       5.1805      0.38867
     11       5.1818     -0.00915
     12       5.9592      0.00000
     13       6.1446      0.00000
     14       7.5075      0.00000
     15       7.5154      0.00000
     16       8.7658      0.00000

 k-point    10 :       0.1429    0.2857    0.0000
  band No.  band energies     occupation 
      1     -25.9075      1.00000
      2     -25.5849      1.00000
      3     -25.4685      1.00000
      4     -25.4309      1.00000
      5     -25.0947      1.00000
      6     -24.9595      1.00000
      7       0.6783      1.00000
      8       2.1904      1.00000
      9       2.6361      1.00000
     10       4.4969      1.01218
     11       4.8237      0.75231
     12       6.4106     -0.04850
     13       6.8386      0.00000
     14       6.8749      0.00000
     15       6.9503      0.00000
     16       8.5710      0.00000

 k-point    11 :       0.2857    0.2857    0.0000
  band No.  band energies     occupation 
      1     -26.0380      1.00000
      2     -25.7165      1.00000
      3     -25.5015      1.00000
      4     -25.2694      1.00000
      5     -25.1617      1.00000
      6     -24.9104      1.00000
      7       1.1377      1.00000
      8       2.1325      1.00000
      9       3.6365      1.00000
     10       3.8842      1.00000
     11       4.8505      0.86534
     12       5.0610      0.07500
     13       6.4990      0.00000
     14       7.6785      0.00000
     15       8.1064      0.00000
     16       8.3191      0.00000

 k-point    12 :       0.4286    0.2857    0.0000
  band No.  band energies     occupation 
      1     -26.0634      1.00000
      2     -25.9504      1.00000
      3     -25.3857      1.00000
      4     -25.2642      1.00000
      5     -25.0912      1.00000
      6     -24.9618      1.00000
      7       1.5034      1.00000
      8       1.8481      1.00000
      9       3.7342      1.00000
     10       4.1248      1.00000
     11       4.6594      0.78696
     12       5.1397     -0.00366
     13       6.9980      0.00000
     14       7.5640      0.00000
     15       8.9222      0.00000
     16       9.4180      0.00000

 k-point    13 :       0.0000    0.4286    0.0000
  band No.  band energies     occupation 
      1     -25.6850      1.00000
      2     -25.4945      1.00000
      3     -25.4378      1.00000
      4     -25.4376      1.00000
      5     -25.2413      1.00000
      6     -25.2412      1.00000
      7       1.7968      1.00000
      8       2.6145      1.00000
      9       3.1812      1.00000
     10       4.5775      0.99194
     11       5.4982     -0.23390
     12       5.5075     -0.00017
     13       6.2555      0.00000
     14       6.2613      0.00000
     15       6.8268      0.00000
     16       7.9204      0.00000

 k-point    14 :       0.1429    0.4286    0.0000
  band No.  band energies     occupation 
      1     -25.8546      1.00000
      2     -25.6866      1.00000
      3     -25.4237      1.00000
      4     -25.2812      1.00000
      5     -25.2486      1.00000
      6     -25.0986      1.00000
      7       1.7922      1.00000
      8       2.4696      1.00000
      9       3.4428      1.00000
     10       4.3418      1.00384
     11       4.6483      0.92364
     12       5.2833     -0.03261
     13       6.3905      0.00000
     14       6.4694      0.00000
     15       7.8887      0.00000
     16       9.0261      0.00000

 k-point    15 :       0.2857    0.4286    0.0000
  band No.  band energies     occupation 
      1     -26.0632      1.00000
      2     -25.9502      1.00000
      3     -25.3862      1.00000
      4     -25.2648      1.00000
      5     -25.0908      1.00000
      6     -24.9613      1.00000
      7       1.5031      1.00000
      8       1.8476      1.00000
      9       3.7345      1.00000
     10       4.1275      1.00000
     11       4.6567      0.78692
     12       5.1406     -0.00377
     13       6.9993      0.00000
     14       7.5633      0.00000
     15       8.9186      0.00000
     16       9.3972      0.00000

 k-point    16 :       0.4286    0.4286    0.0000
  band No.  band energies     occupation 
      1     -26.1713      1.00000
      2     -26.1316      1.00000
      3     -25.3386      1.00000
      4     -25.2952      1.00000
      5     -24.9618      1.00000
      6     -24.9150      1.00000
      7       1.2404      1.00000
      8       1.3509      1.00000
      9       3.2986      1.00000
     10       3.4310      1.00000
     11       6.1719     -0.16187
     12       6.5244     -0.07094
     13       7.6910      0.00000
     14       8.1004      0.00000
     15       8.6611      0.00000
     16       9.6552      0.00000

 k-point    17 :       0.0000    0.1429    0.1429
  band No.  band energies     occupation 
      1     -25.8356      1.00000
      2     -25.6958      1.00000
      3     -25.6551      1.00000
      4     -25.1437      1.00000
      5     -24.9917      1.00000
      6     -24.9402      1.00000
      7      -0.2651      1.00000
      8       1.6994      1.00000
      9       1.8447      1.00000
     10       4.8641      0.68240
     11       5.1050      0.00212
     12       5.8740      0.00000
     13       7.4615      0.00000
     14       7.9966      0.00000
     15       8.0483      0.00000
     16       8.2302      0.00000

 k-point    18 :       0.1429    0.1429    0.1429
  band No.  band energies     occupation 
      1     -25.8297      1.00000
      2     -25.7899      1.00000
      3     -25.5009      1.00000
      4     -25.2962      1.00000
      5     -24.9827      1.00000
      6     -24.9416      1.00000
      7       0.0891      1.00000
      8       2.0190      1.00000
      9       2.0506      1.00000
     10       4.6155      0.99283
     11       4.6966      0.82245
     12       6.4653     -0.04264
     13       6.5746      0.00000
     14       7.7481      0.00000
     15       7.8259      0.00000
     16       9.2265      0.00000

 k-point    19 :       0.2857    0.1429    0.1429
  band No.  band energies     occupation 
      1     -25.9261      1.00000
      2     -25.6622      1.00000
      3     -25.5543      1.00000
      4     -25.3254      1.00000
      5     -25.1030      1.00000
      6     -24.9445      1.00000
      7       0.9759      1.00000
      8       2.5083      1.00000
      9       2.7556      1.00000
     10       4.3104      1.00000
     11       4.3207      1.06496
     12       5.2099      0.03844
     13       7.2536      0.00000
     14       7.6596      0.00000
     15       7.7886      0.00000
     16       8.4109      0.00000

 k-point    20 :       0.4286    0.1429    0.1429
  band No.  band energies     occupation 
      1     -25.9205      1.00000
      2     -25.7880      1.00000
      3     -25.4796      1.00000
      4     -25.2798      1.00000
      5     -25.1602      1.00000
      6     -25.0250      1.00000
      7       1.9482      1.00000
      8       2.6986      1.00000
      9       3.1910      1.00000
     10       3.8395      1.00000
     11       4.5774      1.00000
     12       4.8983      0.19317
     13       6.7584      0.00000
     14       6.8936      0.00000
     15       8.6234      0.00000
     16       8.8877      0.00000

 k-point    21 :       0.0000    0.2857    0.1429
  band No.  band energies     occupation 
      1     -25.8829      1.00000
      2     -25.5762      1.00000
      3     -25.4794      1.00000
      4     -25.4198      1.00000
      5     -25.1020      1.00000
      6     -24.9897      1.00000
      7       0.6999      1.00000
      8       2.2381      1.00000
      9       2.6301      1.00000
     10       4.5854      1.00113
     11       4.9180      0.51143
     12       6.4450     -0.03872
     13       6.7341      0.00000
     14       6.7813      0.00000
     15       6.9501      0.00000
     16       8.5090      0.00000

 k-point    22 :       0.1429    0.2857    0.1429
  band No.  band energies     occupation 
      1     -25.8909      1.00000
      2     -25.6855      1.00000
      3     -25.5461      1.00000
      4     -25.3253      1.00000
      5     -25.0810      1.00000
      6     -24.9899      1.00000
      7       0.9904      1.00000
      8       2.5519      1.00000
      9       2.7484      1.00000
     10       4.3416      1.00754
     11       4.3887      1.06831
     12       5.1778      0.10275
     13       7.1084      0.00000
     14       7.6483      0.00000
     15       7.8316      0.00000
     16       8.4181      0.00000

 k-point    23 :       0.2857    0.2857    0.1429
  band No.  band energies     occupation 
      1     -25.9848      1.00000
      2     -25.7742      1.00000
      3     -25.6348      1.00000
      4     -25.1599      1.00000
      5     -25.1550      1.00000
      6     -24.9627      1.00000
      7       1.5517      1.00000
      8       2.5277      1.00000
      9       3.6776      1.00000
     10       3.7734      1.00000
     11       4.1629      0.98810
     12       4.2752      0.94324
     13       7.4873      0.00000
     14       7.7896      0.00000
     15       8.2740      0.00000
     16       9.0422      0.00000

 k-point    24 :       0.4286    0.2857    0.1429
  band No.  band energies     occupation 
      1     -26.0365      1.00000
      2     -25.9623      1.00000
      3     -25.4779      1.00000
      4     -25.3022      1.00000
      5     -25.0396      1.00000
      6     -24.9731      1.00000
      7       1.8781      1.00000
      8       2.1849      1.00000
      9       3.5521      1.00000
     10       3.6336      1.00000
     11       4.7099      0.78461
     12       4.7342      0.62463
     13       7.4395      0.00000
     14       7.6875      0.00000
     15       8.7599      0.00000
     16       9.2345      0.00000

 k-point    25 :       0.0000    0.4286    0.1429
  band No.  band energies     occupation 
      1     -25.8412      1.00000
      2     -25.6877      1.00000
      3     -25.4099      1.00000
      4     -25.2790      1.00000
      5     -25.2601      1.00000
      6     -25.1171      1.00000
      7       1.7980      1.00000
      8       2.5065      1.00000
      9       3.4360      1.00000
     10       4.3813      1.00000
     11       4.6930      0.89592
     12       5.2754     -0.01682
     13       6.3530      0.00000
     14       6.4440      0.00000
     15       7.8772      0.00000
     16       8.9774      0.00000

[...]
  band No.  band energies     occupation 
      1     -26.0961      1.00000
      2     -26.0955      1.00000
      3     -25.3763      1.00000
      4     -25.3582      1.00000
      5     -25.0038      1.00000
      6     -24.9785      1.00000
      7       1.6445      1.00000
      8       1.7358      1.00000
      9       3.2849      1.00000
     10       3.3398      1.00000
     11       5.6826     -0.11391
     12       5.9877     -0.20194
     13       7.9971      0.00000
     14       8.0724      0.00000
     15       8.5803      0.00000
     16       9.1926      0.00000

 k-point    59 :       0.2857    0.4286    0.4286
  band No.  band energies     occupation 
      1     -25.9682      1.00000
      2     -25.9284      1.00000
      3     -25.5337      1.00000
      4     -25.4179      1.00000
      5     -25.1718      1.00000
      6     -25.0911      1.00000
      7       2.5366      1.00000
      8       2.6750      1.00000
      9       3.2359      1.00000
     10       3.4647      1.00000
     11       4.7865      0.83868
     12       4.8311      0.66617
     13       8.3893      0.00000
     14       8.4720      0.00000
     15       8.6814      0.00000
     16       8.8957      0.00000

 k-point    60 :       0.4286    0.4286    0.4286
  band No.  band energies     occupation 
      1     -25.8216      1.00000
      2     -25.6896      1.00000
      3     -25.6853      1.00000
      4     -25.4151      1.00000
      5     -25.3998      1.00000
      6     -25.2598      1.00000
      7       3.0518      1.00000
      8       3.4143      1.00000
      9       3.4735      1.00000
     10       3.9430      1.00000
     11       4.0680      1.00000
     12       4.1204      1.16423
     13       8.7458      0.00000
     14       8.7697      0.00000
     15       8.8061      0.00000
     16       8.8204      0.00000

 k-point    61 :       0.0000   -0.4286    0.4286
  band No.  band energies     occupation 
      1     -26.1869      1.00000
      2     -26.1193      1.00000
      3     -25.3674      1.00000
      4     -25.2612      1.00000
      5     -24.9868      1.00000
      6     -24.8936      1.00000
      7       1.2380      1.00000
      8       1.3317      1.00000
      9       3.2529      1.00000
     10       3.4652      1.00000
     11       6.2380     -0.11897
     12       6.3991     -0.08912
     13       7.6092      0.00000
     14       8.1856      0.00000
     15       8.7858      0.00000
     16       9.6098      0.00000

 k-point    62 :       0.1429   -0.4286    0.4286
  band No.  band energies     occupation 
      1     -26.1238      1.00000
      2     -26.0706      1.00000
      3     -25.4262      1.00000
      4     -25.3049      1.00000
      5     -25.0235      1.00000
      6     -24.9583      1.00000
      7       1.6471      1.00000
      8       1.7128      1.00000
      9       3.2272      1.00000
     10       3.3740      1.00000
     11       5.7512     -0.08628
     12       5.8769     -0.07441
     13       7.8407      0.00000
     14       8.2660      0.00000
     15       8.8007      0.00000
     16       9.0537      0.00000

 k-point    63 :       0.2857   -0.4286    0.4286
  band No.  band energies     occupation 
      1     -25.9464      1.00000
      2     -25.9426      1.00000
      3     -25.5563      1.00000
      4     -25.3915      1.00000
      5     -25.1393      1.00000
      6     -25.1356      1.00000
      7       2.5513      1.00000
      8       2.6799      1.00000
      9       3.2527      1.00000
     10       3.4038      1.00000
     11       4.6345      0.85842
     12       5.0029      0.44596
     13       8.3398      0.00000
     14       8.5605      0.00000
     15       8.7349      0.00000
     16       8.8188      0.00000

 k-point    64 :       0.4286   -0.4286    0.4286
  band No.  band energies     occupation 
      1     -25.7951      1.00000
      2     -25.6884      1.00000
      3     -25.6813      1.00000
      4     -25.4119      1.00000
      5     -25.4002      1.00000
      6     -25.2960      1.00000
      7       3.0311      1.00000
      8       3.4508      1.00000
      9       3.5151      1.00000
     10       3.9895      1.00000
     11       3.9996      1.00000
     12       4.1166      1.07540
     13       8.7309      0.00000
     14       8.7489      0.00000
     15       8.7936      0.00000
     16       8.8216      0.00000


--------------------------------------------------------------------------------------------------------


 soft charge-density along one line, spin component           1
         0         1         2         3         4         5         6         7         8         9
 total charge-density along one line

 soft charge-density along one line, spin component           2
         0         1         2         3         4         5         6         7         8         9
 total charge-density along one line

 pseudopotential strength for first ion, spin component:           1
-28.109   0.003   0.000   5.978  -0.002  -0.000  -0.000  -0.000
  0.003 -28.109   0.000  -0.002   5.978  -0.000  -0.000  -0.000
  0.000   0.000 -28.108  -0.000  -0.000   5.978  -0.000  -0.000
  5.978  -0.002  -0.000   4.217   0.001   0.000   0.000   0.000
 -0.002   5.978  -0.000   0.001   4.217   0.000   0.000   0.000
 -0.000  -0.000   5.978   0.000   0.000   4.217   0.000   0.000
 -0.000  -0.000  -0.000   0.000   0.000   0.000  -6.358   0.000
 -0.000  -0.000  -0.000   0.000   0.000   0.000   0.000  -6.358
  0.000  -0.000   0.000  -0.000   0.000  -0.000  -0.000   0.000
 -0.000  -0.000  -0.000   0.000   0.000   0.000   0.001   0.000
  0.000  -0.000   0.000  -0.000   0.000  -0.000  -0.000  -0.001
 -0.000  -0.000  -0.000   0.000   0.000   0.000  -7.215   0.000
 -0.000  -0.000  -0.000   0.000   0.000   0.000   0.000  -7.215
  0.000  -0.000   0.000  -0.000   0.000  -0.000  -0.000   0.001
 -0.000  -0.000  -0.000   0.000   0.000   0.000   0.001   0.000
  0.000  -0.000   0.000  -0.000   0.000  -0.000  -0.000  -0.001
  0.000   0.000   0.000   0.000  -0.000   0.000  -0.000  -0.001
 -0.000  -0.000  -0.000  -0.000  -0.000  -0.000   0.000   0.003
 pseudopotential strength for first ion, spin component:           2
-28.109   0.003   0.000   5.979  -0.003  -0.000  -0.000  -0.000
  0.003 -28.109   0.000  -0.003   5.979  -0.000   0.000  -0.000
  0.000   0.000 -28.108  -0.000  -0.000   5.978  -0.000   0.000
  5.979  -0.003  -0.000   4.217   0.001   0.000   0.000   0.000
 -0.003   5.979  -0.000   0.001   4.217   0.000   0.000   0.000
 -0.000  -0.000   5.978   0.000   0.000   4.217   0.000   0.000
 -0.000   0.000  -0.000   0.000   0.000   0.000  -6.358   0.000
 -0.000  -0.000   0.000   0.000   0.000   0.000   0.000  -6.358
  0.000  -0.000   0.000  -0.000   0.000  -0.000  -0.000   0.000
  0.000  -0.000  -0.000   0.000   0.000   0.000   0.001   0.000
  0.000  -0.000   0.000  -0.000   0.000  -0.000  -0.000  -0.001
 -0.000  -0.000  -0.000   0.000   0.000   0.000  -7.215   0.000
 -0.000  -0.000  -0.000   0.000   0.000   0.000   0.000  -7.215
  0.000  -0.000   0.000  -0.000   0.000  -0.000  -0.000   0.001
 -0.000  -0.000  -0.000   0.000   0.000   0.000   0.001   0.000
  0.000  -0.000   0.000  -0.000   0.000  -0.000  -0.000  -0.001
  0.000   0.000   0.000   0.000  -0.000   0.000  -0.000  -0.001
 -0.000  -0.000  -0.000  -0.000  -0.000  -0.000   0.000   0.003
 total augmentation occupancy for first ion, spin component:           1
  1.993   0.000   0.000  -0.013   0.001  -0.000   0.000   0.000   0.000  -0.000   0.000   0.000   0.000  -0.000   0.000   0.000
  0.000   1.993   0.000   0.001  -0.013  -0.000   0.000   0.000   0.000   0.000   0.000   0.000   0.000   0.000   0.000   0.000
  0.000   0.000   1.993  -0.000  -0.000  -0.013   0.000  -0.000   0.000   0.000   0.000   0.000   0.000   0.000  -0.000   0.000
 -0.013   0.001  -0.000   0.204  -0.004   0.000   0.000   0.000   0.000   0.000   0.000   0.000   0.000   0.000  -0.000   0.000
  0.001  -0.013  -0.000  -0.004   0.204   0.000   0.000   0.000   0.000   0.000   0.000   0.000  -0.000   0.000   0.000  -0.000
 -0.000  -0.000  -0.013   0.000   0.000   0.204   0.000  -0.000  -0.000   0.000   0.000   0.000  -0.000   0.000   0.000   0.000
 -0.000   0.000   0.000   0.000   0.000   0.000   5.996   0.000  -0.000   0.107   0.000  -3.340  -0.000   0.000  -0.053  -0.000
  0.000   0.000   0.000   0.000   0.000   0.000   0.000   5.986   0.027   0.000  -0.047  -0.000  -3.335  -0.019  -0.000   0.034
  0.000   0.000   0.000   0.000   0.000  -0.000  -0.000   0.027   5.626   0.000  -0.003   0.000  -0.019  -3.317  -0.000   0.001
 -0.000   0.000   0.000   0.000   0.000   0.000   0.107   0.000   0.000   5.996   0.000  -0.053  -0.000  -0.000  -3.340  -0.000
  0.000   0.000   0.000   0.000   0.000   0.000   0.000  -0.047  -0.003   0.000   5.630  -0.000   0.033   0.001  -0.000  -3.318
  0.000   0.000   0.000   0.000   0.000   0.000  -3.340  -0.000   0.000  -0.053  -0.000   1.898   0.000  -0.000   0.028  -0.000
  0.000   0.000   0.000  -0.000   0.000   0.000  -0.000  -3.335  -0.019  -0.000   0.033   0.000   1.896   0.013   0.000  -0.022
  0.000   0.000  -0.000   0.000   0.000   0.000   0.000  -0.019  -3.317  -0.000   0.001  -0.000   0.013   1.973   0.000  -0.001
 -0.000   0.000  -0.000   0.000   0.000   0.000  -0.053  -0.000  -0.000  -3.340  -0.000   0.028   0.000   0.000   1.898   0.000
  0.000   0.000   0.000   0.000   0.000   0.000  -0.000   0.034   0.001  -0.000  -3.318  -0.000  -0.022  -0.001   0.000   1.974
  0.000   0.000   0.000   0.000   0.000   0.000  -0.000   0.029  -0.000   0.000   0.000  -0.000  -0.013  -0.000  -0.000   0.000
 -0.000   0.000   0.000   0.000   0.000   0.000   0.000   0.001  -0.000   0.000   0.000   0.000  -0.000   0.000  -0.000  -0.000
 total augmentation occupancy for first ion, spin component:           2
  0.000   0.000   0.000   0.000   0.000   0.000   0.000   0.000   0.000  -0.000   0.000   0.000   0.000   0.000   0.000   0.000
  0.000   0.000   0.000   0.000   0.000   0.000  -0.000   0.000   0.000   0.000  -0.000   0.000  -0.000   0.000   0.000   0.000
  0.000   0.000   0.000   0.000   0.000   0.000   0.000   0.000  -0.000   0.000   0.000   0.000   0.000   0.000   0.000   0.000
  0.000   0.000   0.000  -0.000  -0.000  -0.000   0.000   0.000   0.000   0.000   0.000   0.000   0.000   0.000   0.000   0.000
  0.000   0.000   0.000  -0.000  -0.000  -0.000   0.000   0.000   0.000   0.000   0.000   0.000   0.000   0.000   0.000   0.000
  0.000   0.000   0.000  -0.000  -0.000  -0.000   0.000   0.000   0.000   0.000   0.000   0.000   0.000   0.000   0.000  -0.000
  0.000   0.000   0.000   0.000   0.000   0.000   0.000   0.000   0.000   0.001   0.000   0.001   0.000  -0.000  -0.000  -0.000
  0.000   0.000   0.000   0.000   0.000   0.000   0.000  -0.010   0.000  -0.000  -0.000   0.000   0.004  -0.000   0.000   0.000
  0.000   0.000   0.000   0.000   0.000  -0.000   0.000   0.000  -0.006   0.000  -0.000  -0.000  -0.000   0.004  -0.000  -0.000
  0.000   0.000   0.000   0.000   0.000   0.000   0.001  -0.000   0.000   0.000  -0.000  -0.000   0.000  -0.000   0.001   0.000
  0.000  -0.000   0.000   0.000  -0.000   0.000   0.000  -0.000  -0.000  -0.000  -0.006  -0.000   0.000  -0.000   0.000   0.004
  0.000   0.000   0.000   0.000   0.000   0.000   0.001   0.000  -0.000  -0.000  -0.000  -0.001  -0.000   0.000   0.000   0.000
  0.000   0.000   0.000   0.000   0.000   0.000   0.000   0.004  -0.000   0.000   0.000  -0.000  -0.001   0.000  -0.000  -0.000
 -0.000   0.000   0.000   0.000   0.000   0.000  -0.000  -0.000   0.004  -0.000  -0.000   0.000   0.000  -0.003   0.000   0.000
 -0.000   0.000   0.000   0.000   0.000  -0.000  -0.000   0.000  -0.000   0.001   0.000   0.000  -0.000   0.000  -0.001  -0.000
  0.000   0.000   0.000   0.000   0.000  -0.000  -0.000   0.000  -0.000   0.000   0.004   0.000  -0.000   0.000  -0.000  -0.003
  0.000   0.000   0.000   0.000   0.000   0.000  -0.000   0.000  -0.000   0.000   0.000   0.000  -0.000   0.000  -0.000  -0.000
 -0.000   0.000   0.000  -0.000   0.000   0.000   0.000  -0.000   0.000  -0.000  -0.000  -0.000  -0.000  -0.000   0.000   0.000


------------------------ aborting loop because EDIFF is reached ----------------------------------------





 total charge

# of ion       s       p       d       tot
------------------------------------------
    1        0.419   6.291   3.082   9.792
    2        0.419   6.291   3.082   9.792
--------------------------------------------------
tot          0.838  12.581   6.164  19.584



 magnetization (x)

# of ion       s       p       d       tot
------------------------------------------
    1       -0.000  -0.000  -0.001  -0.001
    2       -0.000  -0.000  -0.001  -0.001
--------------------------------------------------
tot         -0.000  -0.001  -0.002  -0.002

    CHARGE:  cpu time     29.3033: real time      1.6441
    FORLOC:  cpu time      0.0242: real time      0.0005
    FORNL :  cpu time    118.1008: real time      6.6412
    STRESS:  cpu time    340.8790: real time     19.2575
    FORCOR:  cpu time      1.7179: real time      0.1308
    FORHAR:  cpu time      0.2002: real time      0.0144
    MIXING:  cpu time      0.1366: real time      0.0032
    OFIELD:  cpu time      0.0000: real time      0.0000

  FORCE on cell =-STRESS in cart. coord.  units (eV):
  Direction    XX          YY          ZZ          XY          YZ          ZX
  --------------------------------------------------------------------------------------
  Alpha Z   247.02244   247.02244   247.02244
  Ewald    -636.05083  -636.37986  -636.37986    -0.00000     7.79042    -0.00000
  Hartree    82.29819    82.12469    82.12469     0.00000     3.03071    -0.00000
  E(xc)     -95.06244   -95.06164   -95.06164    -0.00000    -0.00315     0.00000
  Local     203.32819   203.86956   203.86956     0.00000   -10.61925     0.00000
  n-local   -84.58581   -88.05963   -81.06183     0.91689    -0.26444    -0.26905
  augment    53.57447    53.55848    53.55848     0.00000     0.02886    -0.00000
  Kinetic   229.42222   222.28840   236.44507     0.06516     0.05426    -1.03260
  Fock        0.00000     0.00000     0.00000     0.00000     0.00000     0.00000
  -------------------------------------------------------------------------------------
  Total      -0.05356    -0.06033    -0.06033    -0.00000     0.01626     0.00000
  in kB      -2.34135    -2.63694    -2.63694    -0.00000     0.71083     0.00000
  external pressure =       -2.54 kB  Pullay stress =        0.00 kB


 VOLUME and BASIS-vectors are now :
 -----------------------------------------------------------------------------
  energy-cutoff  :      520.00
  volume of cell :       36.65
      direct lattice vectors                 reciprocal lattice vectors
     3.321890070  0.000000000  0.000000000     0.301033441 -0.000000000 -0.000000000
     0.000000000  3.321890070 -0.033218901    -0.000000000  0.301063548  0.003010635
    -0.000000000 -0.033218901  3.321890070    -0.000000000  0.003010635  0.301063548

  length of vectors
     3.321890070  3.322056161  3.322056161     0.301033441  0.301078601  0.301078601


 FORCES acting on ions
    electron-ion (+dipol)            ewald-force                    non-local-force                 convergence-correction
 -----------------------------------------------------------------------------------------------
   -.410E-14 -.120E-13 -.168E-13   -.457E-14 -.323E-14 -.370E-14   -.297E-21 0.388E-21 -.120E-20   -.697E-14 -.159E-13 0.360E-13
   0.120E-12 0.152E-11 0.157E-11   0.358E-14 0.816E-14 0.263E-14   -.148E-21 -.769E-21 0.743E-21   -.212E-13 -.570E-13 -.266E-13
 -----------------------------------------------------------------------------------------------
   0.115E-12 0.151E-11 0.155E-11   -.990E-15 0.493E-14 -.107E-14   -.445E-21 -.381E-21 -.460E-21   -.281E-13 -.728E-13 0.943E-14


 POSITION                                       TOTAL-FORCE (eV/Angst)
 -----------------------------------------------------------------------------------
      0.00000      0.00000      0.00000        -0.000000     -0.000000     -0.000000
      1.66095      1.64434      1.64434         0.000000      0.000000      0.000000
 -----------------------------------------------------------------------------------
    total drift:                                0.000000      0.000000      0.000000


--------------------------------------------------------------------------------------------------------



  FREE ENERGIE OF THE ION-ELECTRON SYSTEM (eV)
  ---------------------------------------------------
  free  energy   TOTEN  =       -20.20787381 eV

  energy  without entropy=      -20.20787381  energy(sigma->0) =      -20.20787381



--------------------------------------------------------------------------------------------------------


    POTLOK:  cpu time      3.5918: real time      0.4206


--------------------------------------------------------------------------------------------------------


     LOOP+:  cpu time   5138.8014: real time    290.9834
 -----------------------------------------------------------------------------
|                                                                             |
|           W    W    AA    RRRRR   N    N  II  N    N   GGGG   !!!           |
|           W    W   A  A   R    R  NN   N  II  NN   N  G    G  !!!           |
|           W    W  A    A  R    R  N N  N  II  N N  N  G       !!!           |
|           W WW W  AAAAAA  RRRRR   N  N N  II  N  N N  G  GGG   !            |
|           WW  WW  A    A  R   R   N   NN  II  N   NN  G    G                |
|           W    W  A    A  R    R  N    N  II  N    N   GGGG   !!!           |
|                                                                             |
|     Tetrahedron method does not include variations of the Fermi             |
|     occupations, so forces and stress will be inaccurate. We suggest        |
|     using a different smearing scheme ISMEAR = 1 or 2 for metals in         |
|     relaxations.                                                            |
|                                                                             |
 -----------------------------------------------------------------------------

    4ORBIT:  cpu time      0.0000: real time      0.0000



 total charge

# of ion       s       p       d       tot
------------------------------------------
    1        0.419   6.291   3.082   9.792
    2        0.419   6.291   3.082   9.792
--------------------------------------------------
tot          0.838  12.581   6.164  19.584



 magnetization (x)

# of ion       s       p       d       tot
------------------------------------------
    1       -0.000  -0.000  -0.001  -0.001
    2       -0.000  -0.000  -0.001  -0.001
--------------------------------------------------
tot         -0.000  -0.001  -0.002  -0.002

 BZINTS: Fermi energy:    4.853953;   22.000000 electrons
         Band energy:-0.274554E+03;  BLOECHL correction:   -0.208643

 total amount of memory used by VASP MPI-rank0    91145. kBytes
=======================================================================

   base      :      30000. kBytes
   nonlr-proj:       6266. kBytes
   fftplans  :       6192. kBytes
   grid      :      14776. kBytes
   one-center:         62. kBytes
   wavefun   :      33849. kBytes

  
  
 General timing and accounting informations for this job:
 ========================================================
  
                  Total CPU time used (sec):     5205.833
                            User time (sec):     4996.784
                          System time (sec):      209.049
                         Elapsed time (sec):      295.175
  
                   Maximum memory used (kb):      326392.
                   Average memory used (kb):          N/A
  
                          Minor page faults:      7147828
                          Major page faults:           94
                 Voluntary context switches:      2438412
