  30  30   1   0
  0.1041187E+02  0.5093330E-09  0.5093329E-09  0.1390323E-08  0.5000000E-15
  1.000000000000000E-004
  CAR 
 unknown system                          
     17.69057421    -15.27981037  301      5.27183667      1.00000000
    -15.280  0.0000E+00  0.0000E+00  0.0000E+00  0.0000E+00
    -15.170  0.0000E+00  0.0000E+00  0.0000E+00  0.0000E+00
    -15.060  0.0000E+00  0.0000E+00  0.0000E+00  0.0000E+00
    -14.950  0.0000E+00  0.0000E+00  0.0000E+00  0.0000E+00
    -14.840  0.0000E+00  0.0000E+00  0.0000E+00  0.0000E+00
    -14.730  0.0000E+00  0.0000E+00  0.0000E+00  0.0000E+00
    -14.620  0.0000E+00  0.0000E+00  0.0000E+00  0.0000E+00
    -14.511  0.0000E+00  0.0000E+00  0.0000E+00  0.0000E+00
    -14.401  0.0000E+00  0.0000E+00  0.0000E+00  0.0000E+00
    -14.291  0.1365E-04  0.1357E-04  0.1500E-05  0.1491E-05
    -14.181  0.1093E-03  0.1086E-03  0.1351E-04  0.1343E-04
    -14.071  0.1447E-02  0.1438E-02  0.1725E-03  0.1715E-03
    -13.961  0.1246E-01  0.1239E-01  0.1542E-02  0.1533E-02
    -13.851  0.9665E-01  0.9615E-01  0.1216E-01  0.1210E-01
    -13.741  0.4521E+00  0.4505E+00  0.6186E-01  0.6161E-01
    -13.631  0.1269E+01  0.1267E+01  0.2014E+00  0.2008E+00
    -13.521  0.1653E+01  0.1652E+01  0.3830E+00  0.3824E+00
    -13.411  0.2217E+01  0.2215E+01  0.6267E+00  0.6259E+00
    -13.302  0.2830E+01  0.2828E+01  0.9378E+00  0.9366E+00
    -13.192  0.3859E+01  0.3856E+01  0.1362E+01  0.1361E+01
    -13.082  0.3676E+01  0.3678E+01  0.1766E+01  0.1765E+01
    -12.972  0.4445E+01  0.4436E+01  0.2255E+01  0.2253E+01
    -12.862  0.6598E+01  0.6596E+01  0.2981E+01  0.2979E+01
    -12.752  0.5875E+01  0.5879E+01  0.3628E+01  0.3625E+01
    -12.642  0.5139E+01  0.5139E+01  0.4192E+01  0.4190E+01
    -12.532  0.5262E+01  0.5260E+01  0.4772E+01  0.4770E+01
    -12.422  0.6894E+01  0.6885E+01  0.5531E+01  0.5528E+01
    -12.312  0.8889E+01  0.8879E+01  0.6508E+01  0.6504E+01
    -12.203  0.1270E+02  0.1268E+02  0.7905E+01  0.7898E+01
    -12.093  0.1657E+02  0.1656E+02  0.9727E+01  0.9719E+01
    -11.983  0.1842E+02  0.1840E+02  0.1175E+02  0.1174E+02
    -11.873  0.2063E+02  0.2063E+02  0.1402E+02  0.1401E+02
    -11.763  0.2012E+02  0.2012E+02  0.1624E+02  0.1623E+02
    -11.653  0.1267E+02  0.1273E+02  0.1763E+02  0.1763E+02
    -11.543  0.2923E+01  0.2948E+01  0.1795E+02  0.1795E+02
    -11.433  0.3482E+00  0.3517E+00  0.1800E+02  0.1800E+02
    -11.323  0.0000E+00  0.0000E+00  0.1800E+02  0.1800E+02
    -11.213  0.0000E+00  0.0000E+00  0.1800E+02  0.1800E+02
    -11.104  0.0000E+00  0.0000E+00  0.1800E+02  0.1800E+02
    -10.994  0.0000E+00  0.0000E+00  0.1800E+02  0.1800E+02
    -10.884  0.0000E+00  0.0000E+00  0.1800E+02  0.1800E+02
    -10.774  0.0000E+00  0.0000E+00  0.1800E+02  0.1800E+02
    -10.664  0.0000E+00  0.0000E+00  0.1800E+02  0.1800E+02
    -10.554  0.0000E+00  0.0000E+00  0.1800E+02  0.1800E+02
    -10.444  0.0000E+00  0.0000E+00  0.1800E+02  0.1800E+02
    -10.334  0.0000E+00  0.0000E+00  0.1800E+02  0.1800E+02
    -10.224  0.0000E+00  0.0000E+00  0.1800E+02  0.1800E+02
    -10.114  0.0000E+00  0.0000E+00  0.1800E+02  0.1800E+02
    -10.005  0.0000E+00  0.0000E+00  0.1800E+02  0.1800E+02
     -9.895  0.0000E+00  0.0000E+00  0.1800E+02  0.1800E+02
     -9.785  0.0000E+00  0.0000E+00  0.1800E+02  0.1800E+02
     -9.675  0.0000E+00  0.0000E+00  0.1800E+02  0.1800E+02
     -9.565  0.0000E+00  0.0000E+00  0.1800E+02  0.1800E+02
     -9.455  0.0000E+00  0.0000E+00  0.1800E+02  0.1800E+02
     -9.345  0.0000E+00  0.0000E+00  0.1800E+02  0.1800E+02
     -9.235  0.0000E+00  0.0000E+00  0.1800E+02  0.1800E+02
     -9.125  0.0000E+00  0.0000E+00  0.1800E+02  0.1800E+02
     -9.015  0.0000E+00  0.0000E+00  0.1800E+02  0.1800E+02
     -8.906  0.0000E+00  0.0000E+00  0.1800E+02  0.1800E+02
     -8.796  0.0000E+00  0.0000E+00  0.1800E+02  0.1800E+02
     -8.686  0.0000E+00  0.0000E+00  0.1800E+02  0.1800E+02
     -8.576  0.0000E+00  0.0000E+00  0.1800E+02  0.1800E+02
     -8.466  0.0000E+00  0.0000E+00  0.1800E+02  0.1800E+02
     -8.356  0.0000E+00  0.0000E+00  0.1800E+02  0.1800E+02
     -8.246  0.0000E+00  0.0000E+00  0.1800E+02  0.1800E+02
     -8.136  0.0000E+00  0.0000E+00  0.1800E+02  0.1800E+02
     -8.026  0.0000E+00  0.0000E+00  0.1800E+02  0.1800E+02
     -7.916  0.0000E+00  0.0000E+00  0.1800E+02  0.1800E+02
     -7.807  0.0000E+00  0.0000E+00  0.1800E+02  0.1800E+02
     -7.697  0.0000E+00  0.0000E+00  0.1800E+02  0.1800E+02
     -7.587  0.0000E+00  0.0000E+00  0.1800E+02  0.1800E+02
     -7.477  0.0000E+00  0.0000E+00  0.1800E+02  0.1800E+02
     -7.367  0.0000E+00  0.0000E+00  0.1800E+02  0.1800E+02
     -7.257  0.0000E+00  0.0000E+00  0.1800E+02  0.1800E+02
     -7.147  0.0000E+00  0.0000E+00  0.1800E+02  0.1800E+02
     -7.037  0.0000E+00  0.0000E+00  0.1800E+02  0.1800E+02
     -6.927  0.0000E+00  0.0000E+00  0.1800E+02  0.1800E+02
     -6.817  0.0000E+00  0.0000E+00  0.1800E+02  0.1800E+02
     -6.708  0.0000E+00  0.0000E+00  0.1800E+02  0.1800E+02
     -6.598  0.0000E+00  0.0000E+00  0.1800E+02  0.1800E+02
     -6.488  0.0000E+00  0.0000E+00  0.1800E+02  0.1800E+02
     -6.378  0.0000E+00  0.0000E+00  0.1800E+02  0.1800E+02
     -6.268  0.0000E+00  0.0000E+00  0.1800E+02  0.1800E+02
     -6.158  0.0000E+00  0.0000E+00  0.1800E+02  0.1800E+02
     -6.048  0.0000E+00  0.0000E+00  0.1800E+02  0.1800E+02
     -5.938  0.0000E+00  0.0000E+00  0.1800E+02  0.1800E+02
     -5.828  0.0000E+00  0.0000E+00  0.1800E+02  0.1800E+02
     -5.718  0.0000E+00  0.0000E+00  0.1800E+02  0.1800E+02
     -5.608  0.0000E+00  0.0000E+00  0.1800E+02  0.1800E+02
     -5.499  0.0000E+00  0.0000E+00  0.1800E+02  0.1800E+02
     -5.389  0.0000E+00  0.0000E+00  0.1800E+02  0.1800E+02
     -5.279  0.0000E+00  0.0000E+00  0.1800E+02  0.1800E+02
     -5.169  0.0000E+00  0.0000E+00  0.1800E+02  0.1800E+02
     -5.059  0.0000E+00  0.0000E+00  0.1800E+02  0.1800E+02
     -4.949  0.0000E+00  0.0000E+00  0.1800E+02  0.1800E+02
     -4.839  0.0000E+00  0.0000E+00  0.1800E+02  0.1800E+02
     -4.729  0.0000E+00  0.0000E+00  0.1800E+02  0.1800E+02
     -4.619  0.0000E+00  0.0000E+00  0.1800E+02  0.1800E+02
     -4.509  0.0000E+00  0.0000E+00  0.1800E+02  0.1800E+02
     -4.400  0.0000E+00  0.0000E+00  0.1800E+02  0.1800E+02
     -4.290  0.0000E+00  0.0000E+00  0.1800E+02  0.1800E+02
     -4.180  0.0000E+00  0.0000E+00  0.1800E+02  0.1800E+02
     -4.070  0.0000E+00  0.0000E+00  0.1800E+02  0.1800E+02
     -3.960  0.0000E+00  0.0000E+00  0.1800E+02  0.1800E+02
     -3.850  0.0000E+00  0.0000E+00  0.1800E+02  0.1800E+02
     -3.740  0.0000E+00  0.0000E+00  0.1800E+02  0.1800E+02
     -3.630  0.0000E+00  0.0000E+00  0.1800E+02  0.1800E+02
     -3.520  0.0000E+00  0.0000E+00  0.1800E+02  0.1800E+02
     -3.410  0.0000E+00  0.0000E+00  0.1800E+02  0.1800E+02
     -3.301  0.0000E+00  0.0000E+00  0.1800E+02  0.1800E+02
     -3.191  0.0000E+00  0.0000E+00  0.1800E+02  0.1800E+02
     -3.081  0.0000E+00  0.0000E+00  0.1800E+02  0.1800E+02
     -2.971  0.0000E+00  0.0000E+00  0.1800E+02  0.1800E+02
     -2.861  0.0000E+00  0.0000E+00  0.1800E+02  0.1800E+02
     -2.751  0.0000E+00  0.0000E+00  0.1800E+02  0.1800E+02
     -2.641  0.0000E+00  0.0000E+00  0.1800E+02  0.1800E+02
     -2.531  0.0000E+00  0.0000E+00  0.1800E+02  0.1800E+02
     -2.421  0.0000E+00  0.0000E+00  0.1800E+02  0.1800E+02
     -2.311  0.1369E-04  0.1370E-04  0.1800E+02  0.1800E+02
     -2.202  0.1096E-03  0.1097E-03  0.1800E+02  0.1800E+02
     -2.092  0.1455E-02  0.1456E-02  0.1800E+02  0.1800E+02
     -1.982  0.1255E-01  0.1256E-01  0.1800E+02  0.1800E+02
     -1.872  0.9732E-01  0.9738E-01  0.1801E+02  0.1801E+02
     -1.762  0.4525E+00  0.4526E+00  0.1806E+02  0.1806E+02
     -1.652  0.1197E+01  0.1197E+01  0.1819E+02  0.1819E+02
     -1.542  0.1518E+01  0.1518E+01  0.1836E+02  0.1836E+02
     -1.432  0.2373E+01  0.2373E+01  0.1862E+02  0.1862E+02
     -1.322  0.4309E+01  0.4309E+01  0.1909E+02  0.1909E+02
     -1.212  0.8509E+01  0.8508E+01  0.2003E+02  0.2003E+02
     -1.103  0.9256E+01  0.9256E+01  0.2105E+02  0.2105E+02
     -0.993  0.8987E+01  0.8986E+01  0.2204E+02  0.2204E+02
     -0.883  0.9234E+01  0.9233E+01  0.2305E+02  0.2305E+02
     -0.773  0.9390E+01  0.9390E+01  0.2409E+02  0.2408E+02
     -0.663  0.6537E+01  0.6538E+01  0.2480E+02  0.2480E+02
     -0.553  0.6071E+01  0.6070E+01  0.2547E+02  0.2547E+02
     -0.443  0.6353E+01  0.6353E+01  0.2617E+02  0.2617E+02
     -0.333  0.5610E+01  0.5610E+01  0.2679E+02  0.2679E+02
     -0.223  0.5147E+01  0.5147E+01  0.2736E+02  0.2735E+02
     -0.113  0.5278E+01  0.5277E+01  0.2794E+02  0.2794E+02
     -0.004  0.5996E+01  0.5996E+01  0.2860E+02  0.2860E+02
      0.106  0.6473E+01  0.6471E+01  0.2931E+02  0.2931E+02
      0.216  0.6444E+01  0.6445E+01  0.3002E+02  0.3002E+02
      0.326  0.3863E+01  0.3865E+01  0.3044E+02  0.3044E+02
      0.436  0.3362E+01  0.3360E+01  0.3081E+02  0.3081E+02
      0.546  0.6855E+01  0.6849E+01  0.3157E+02  0.3157E+02
      0.656  0.9473E+01  0.9471E+01  0.3261E+02  0.3261E+02
      0.766  0.1052E+02  0.1052E+02  0.3377E+02  0.3377E+02
      0.876  0.1067E+02  0.1067E+02  0.3494E+02  0.3494E+02
      0.986  0.7985E+01  0.7988E+01  0.3582E+02  0.3582E+02
      1.095  0.7596E+01  0.7594E+01  0.3665E+02  0.3665E+02
      1.205  0.7269E+01  0.7272E+01  0.3746E+02  0.3745E+02
      1.315  0.5899E+01  0.5896E+01  0.3810E+02  0.3810E+02
      1.425  0.7868E+01  0.7864E+01  0.3897E+02  0.3897E+02
      1.535  0.7496E+01  0.7499E+01  0.3980E+02  0.3979E+02
      1.645  0.6116E+01  0.6116E+01  0.4047E+02  0.4047E+02
      1.755  0.6302E+01  0.6301E+01  0.4116E+02  0.4116E+02
      1.865  0.7006E+01  0.7002E+01  0.4193E+02  0.4193E+02
      1.975  0.8240E+01  0.8237E+01  0.4284E+02  0.4284E+02
      2.085  0.9970E+01  0.9960E+01  0.4394E+02  0.4393E+02
      2.194  0.1422E+02  0.1420E+02  0.4550E+02  0.4549E+02
      2.304  0.1518E+02  0.1519E+02  0.4717E+02  0.4716E+02
      2.414  0.1053E+02  0.1054E+02  0.4833E+02  0.4832E+02
      2.524  0.8116E+01  0.8115E+01  0.4922E+02  0.4922E+02
      2.634  0.1054E+02  0.1053E+02  0.5038E+02  0.5038E+02
      2.744  0.1296E+02  0.1295E+02  0.5181E+02  0.5180E+02
      2.854  0.1637E+02  0.1636E+02  0.5361E+02  0.5360E+02
      2.964  0.1609E+02  0.1609E+02  0.5538E+02  0.5537E+02
      3.074  0.1580E+02  0.1579E+02  0.5711E+02  0.5711E+02
      3.184  0.1530E+02  0.1531E+02  0.5880E+02  0.5879E+02
      3.294  0.1317E+02  0.1318E+02  0.6025E+02  0.6024E+02
      3.403  0.1390E+02  0.1389E+02  0.6178E+02  0.6177E+02
      3.513  0.1463E+02  0.1463E+02  0.6339E+02  0.6338E+02
      3.623  0.1608E+02  0.1607E+02  0.6516E+02  0.6515E+02
      3.733  0.1741E+02  0.1741E+02  0.6707E+02  0.6706E+02
      3.843  0.1795E+02  0.1795E+02  0.6905E+02  0.6904E+02
      3.953  0.1559E+02  0.1562E+02  0.7076E+02  0.7076E+02
      4.063  0.8271E+01  0.8306E+01  0.7167E+02  0.7167E+02
      4.173  0.2508E+01  0.2529E+01  0.7195E+02  0.7195E+02
      4.283  0.3522E+00  0.3561E+00  0.7199E+02  0.7199E+02
      4.393  0.3420E-01  0.3459E-01  0.7200E+02  0.7200E+02
      4.502  0.0000E+00  0.0000E+00  0.7200E+02  0.7200E+02
      4.612  0.0000E+00  0.0000E+00  0.7200E+02  0.7200E+02
      4.722  0.0000E+00  0.0000E+00  0.7200E+02  0.7200E+02
      4.832  0.0000E+00  0.0000E+00  0.7200E+02  0.7200E+02
      4.942  0.0000E+00  0.0000E+00  0.7200E+02  0.7200E+02
      5.052  0.0000E+00  0.0000E+00  0.7200E+02  0.7200E+02
      5.162  0.0000E+00  0.0000E+00  0.7200E+02  0.7200E+02
      5.272  0.0000E+00  0.0000E+00  0.7200E+02  0.7200E+02
      5.382  0.0000E+00  0.0000E+00  0.7200E+02  0.7200E+02
      5.492  0.0000E+00  0.0000E+00  0.7200E+02  0.7200E+02
      5.601  0.0000E+00  0.0000E+00  0.7200E+02  0.7200E+02
      5.711  0.0000E+00  0.0000E+00  0.7200E+02  0.7200E+02
      5.821  0.0000E+00  0.0000E+00  0.7200E+02  0.7200E+02
      5.931  0.0000E+00  0.0000E+00  0.7200E+02  0.7200E+02
      6.041  0.0000E+00  0.0000E+00  0.7200E+02  0.7200E+02
      6.151  0.0000E+00  0.0000E+00  0.7200E+02  0.7200E+02
      6.261  0.0000E+00  0.0000E+00  0.7200E+02  0.7200E+02
      6.371  0.0000E+00  0.0000E+00  0.7200E+02  0.7200E+02
      6.481  0.0000E+00  0.0000E+00  0.7200E+02  0.7200E+02
      6.591  0.0000E+00  0.0000E+00  0.7200E+02  0.7200E+02
      6.700  0.0000E+00  0.0000E+00  0.7200E+02  0.7200E+02
      6.810  0.0000E+00  0.0000E+00  0.7200E+02  0.7200E+02
      6.920  0.0000E+00  0.0000E+00  0.7200E+02  0.7200E+02
      7.030  0.0000E+00  0.0000E+00  0.7200E+02  0.7200E+02
      7.140  0.0000E+00  0.0000E+00  0.7200E+02  0.7200E+02
      7.250  0.0000E+00  0.0000E+00  0.7200E+02  0.7200E+02
      7.360  0.0000E+00  0.0000E+00  0.7200E+02  0.7200E+02
      7.470  0.0000E+00  0.0000E+00  0.7200E+02  0.7200E+02
      7.580  0.2403E-04  0.2428E-04  0.7200E+02  0.7200E+02
      7.690  0.1923E-03  0.1943E-03  0.7200E+02  0.7200E+02
      7.799  0.1723E-02  0.1741E-02  0.7200E+02  0.7200E+02
      7.909  0.1481E-01  0.1496E-01  0.7200E+02  0.7200E+02
      8.019  0.9351E-01  0.9415E-01  0.7201E+02  0.7201E+02
      8.129  0.1796E+00  0.1795E+00  0.7203E+02  0.7203E+02
      8.239  0.6402E-01  0.6351E-01  0.7204E+02  0.7204E+02
      8.349  0.8895E-02  0.8846E-02  0.7204E+02  0.7204E+02
      8.459  0.1724E-02  0.1678E-02  0.7204E+02  0.7204E+02
      8.569  0.5744E-02  0.5791E-02  0.7204E+02  0.7204E+02
      8.679  0.5036E-01  0.5076E-01  0.7205E+02  0.7205E+02
      8.789  0.3687E+00  0.3711E+00  0.7209E+02  0.7209E+02
      8.898  0.1115E+01  0.1117E+01  0.7221E+02  0.7221E+02
      9.008  0.7562E+00  0.7536E+00  0.7229E+02  0.7229E+02
      9.118  0.2140E+00  0.2128E+00  0.7232E+02  0.7232E+02
      9.228  0.3429E-01  0.3405E-01  0.7232E+02  0.7232E+02
      9.338  0.1766E-01  0.1774E-01  0.7232E+02  0.7232E+02
      9.448  0.1275E+00  0.1282E+00  0.7234E+02  0.7234E+02
      9.558  0.7073E+00  0.7098E+00  0.7241E+02  0.7241E+02
      9.668  0.1025E+01  0.1024E+01  0.7253E+02  0.7253E+02
      9.778  0.4108E+00  0.4101E+00  0.7257E+02  0.7257E+02
      9.888  0.7491E+00  0.7515E+00  0.7265E+02  0.7265E+02
      9.997  0.1054E+01  0.1053E+01  0.7277E+02  0.7277E+02
     10.107  0.4646E+00  0.4635E+00  0.7282E+02  0.7282E+02
     10.217  0.3293E+00  0.3296E+00  0.7286E+02  0.7286E+02
     10.327  0.1085E+01  0.1089E+01  0.7298E+02  0.7298E+02
     10.437  0.2281E+01  0.2281E+01  0.7323E+02  0.7323E+02
     10.547  0.1630E+01  0.1629E+01  0.7341E+02  0.7341E+02
     10.657  0.1373E+01  0.1372E+01  0.7356E+02  0.7356E+02
     10.767  0.1265E+01  0.1265E+01  0.7370E+02  0.7370E+02
     10.877  0.8373E+00  0.8353E+00  0.7379E+02  0.7379E+02
     10.987  0.4917E+00  0.4928E+00  0.7384E+02  0.7384E+02
     11.096  0.1531E+01  0.1538E+01  0.7401E+02  0.7401E+02
     11.206  0.4002E+01  0.4008E+01  0.7445E+02  0.7445E+02
     11.316  0.4276E+01  0.4275E+01  0.7492E+02  0.7492E+02
     11.426  0.3851E+01  0.3853E+01  0.7535E+02  0.7535E+02
     11.536  0.4750E+01  0.4754E+01  0.7587E+02  0.7587E+02
     11.646  0.5392E+01  0.5395E+01  0.7646E+02  0.7646E+02
     11.756  0.5213E+01  0.5208E+01  0.7703E+02  0.7704E+02
     11.866  0.5057E+01  0.5059E+01  0.7759E+02  0.7759E+02
     11.976  0.6021E+01  0.6023E+01  0.7825E+02  0.7825E+02
     12.086  0.6062E+01  0.6062E+01  0.7892E+02  0.7892E+02
     12.196  0.6187E+01  0.6190E+01  0.7960E+02  0.7960E+02
     12.305  0.7262E+01  0.7261E+01  0.8040E+02  0.8040E+02
     12.415  0.7704E+01  0.7697E+01  0.8125E+02  0.8125E+02
     12.525  0.5537E+01  0.5533E+01  0.8186E+02  0.8186E+02
     12.635  0.4915E+01  0.4914E+01  0.8240E+02  0.8240E+02
     12.745  0.4294E+01  0.4292E+01  0.8287E+02  0.8287E+02
     12.855  0.3698E+01  0.3702E+01  0.8328E+02  0.8328E+02
     12.965  0.4852E+01  0.4864E+01  0.8381E+02  0.8381E+02
     13.075  0.4883E+01  0.4877E+01  0.8435E+02  0.8435E+02
     13.185  0.4638E+01  0.4635E+01  0.8486E+02  0.8486E+02
     13.295  0.4324E+01  0.4320E+01  0.8533E+02  0.8533E+02
     13.404  0.5505E+01  0.5514E+01  0.8594E+02  0.8594E+02
     13.514  0.6788E+01  0.6786E+01  0.8669E+02  0.8669E+02
     13.624  0.5411E+01  0.5410E+01  0.8728E+02  0.8728E+02
     13.734  0.5575E+01  0.5581E+01  0.8789E+02  0.8790E+02
     13.844  0.6075E+01  0.6077E+01  0.8856E+02  0.8857E+02
     13.954  0.6082E+01  0.6076E+01  0.8923E+02  0.8923E+02
     14.064  0.4860E+01  0.4848E+01  0.8977E+02  0.8977E+02
     14.174  0.5370E+01  0.5362E+01  0.9036E+02  0.9036E+02
     14.284  0.4643E+01  0.4650E+01  0.9087E+02  0.9087E+02
     14.394  0.4595E+01  0.4611E+01  0.9137E+02  0.9138E+02
     14.503  0.3590E+01  0.3578E+01  0.9177E+02  0.9177E+02
     14.613  0.2455E+01  0.2448E+01  0.9204E+02  0.9204E+02
     14.723  0.5077E+01  0.5063E+01  0.9260E+02  0.9260E+02
     14.833  0.7439E+01  0.7433E+01  0.9342E+02  0.9342E+02
     14.943  0.6794E+01  0.6889E+01  0.9416E+02  0.9417E+02
     15.053  0.5669E+01  0.5837E+01  0.9479E+02  0.9482E+02
     15.163  0.4736E+01  0.4668E+01  0.9531E+02  0.9533E+02
     15.273  0.4527E+01  0.4283E+01  0.9581E+02  0.9580E+02
     15.383  0.5645E+01  0.5187E+01  0.9643E+02  0.9637E+02
     15.493  0.6213E+01  0.5494E+01  0.9711E+02  0.9698E+02
     15.602  0.5675E+01  0.5799E+01  0.9774E+02  0.9762E+02
     15.712  0.6189E+01  0.6459E+01  0.9842E+02  0.9833E+02
     15.822  0.6619E+01  0.6476E+01  0.9915E+02  0.9904E+02
     15.932  0.4415E+01  0.4231E+01  0.9963E+02  0.9950E+02
     16.042  0.1771E+01  0.2639E+01  0.9983E+02  0.9979E+02
     16.152  0.1101E+01  0.9982E+00  0.9995E+02  0.9991E+02
     16.262  0.3745E+00  0.6249E+00  0.9999E+02  0.9998E+02
     16.372  0.5467E-01  0.1903E+00  0.1000E+03  0.1000E+03
     16.482  0.5099E-02  0.2582E-01  0.1000E+03  0.1000E+03
     16.592  0.0000E+00  0.2944E-02  0.1000E+03  0.1000E+03
     16.701  0.0000E+00  0.0000E+00  0.1000E+03  0.1000E+03
     16.811  0.0000E+00  0.0000E+00  0.1000E+03  0.1000E+03
     16.921  0.0000E+00  0.0000E+00  0.1000E+03  0.1000E+03
     17.031  0.0000E+00  0.0000E+00  0.1000E+03  0.1000E+03
     17.141  0.0000E+00  0.0000E+00  0.1000E+03  0.1000E+03
     17.251  0.0000E+00  0.0000E+00  0.1000E+03  0.1000E+03
     17.361  0.0000E+00  0.0000E+00  0.1000E+03  0.1000E+03
     17.471  0.0000E+00  0.0000E+00  0.1000E+03  0.1000E+03
     17.581  0.0000E+00  0.0000E+00  0.1000E+03  0.1000E+03
     17.691  0.0000E+00  0.0000E+00  0.1000E+03  0.1000E+03
     17.69057421    -15.27981037  301      5.27183667      1.00000000
    -15.280  0.0000E+00  0.0000E+00  0.0000E+00  0.0000E+00  0.0000E+00  0.0000E+00  0.0000E+00  0.0000E+00  0.0000E+00  0.0000E+00  0.0000E+00  0.0000E+00  0.0000E+00  0.0000E+00  0.0000E+00  0.0000E+00  0.0000E+00  0.0000E+00
    -15.170  0.0000E+00  0.0000E+00  0.0000E+00  0.0000E+00  0.0000E+00  0.0000E+00  0.0000E+00  0.0000E+00  0.0000E+00  0.0000E+00  0.0000E+00  0.0000E+00  0.0000E+00  0.0000E+00  0.0000E+00  0.0000E+00  0.0000E+00  0.0000E+00
    -15.060  0.0000E+00  0.0000E+00  0.0000E+00  0.0000E+00  0.0000E+00  0.0000E+00  0.0000E+00  0.0000E+00  0.0000E+00  0.0000E+00  0.0000E+00  0.0000E+00  0.0000E+00  0.0000E+00  0.0000E+00  0.0000E+00  0.0000E+00  0.0000E+00
    -14.950  0.0000E+00  0.0000E+00  0.0000E+00  0.0000E+00  0.0000E+00  0.0000E+00  0.0000E+00  0.0000E+00  0.0000E+00  0.0000E+00  0.0000E+00  0.0000E+00  0.0000E+00  0.0000E+00  0.0000E+00  0.0000E+00  0.0000E+00  0.0000E+00
    -14.840  0.0000E+00  0.0000E+00  0.0000E+00  0.0000E+00  0.0000E+00  0.0000E+00  0.0000E+00  0.0000E+00  0.0000E+00  0.0000E+00  0.0000E+00  0.0000E+00  0.0000E+00  0.0000E+00  0.0000E+00  0.0000E+00  0.0000E+00  0.0000E+00
    -14.730  0.0000E+00  0.0000E+00  0.0000E+00  0.0000E+00  0.0000E+00  0.0000E+00  0.0000E+00  0.0000E+00  0.0000E+00  0.0000E+00  0.0000E+00  0.0000E+00  0.0000E+00  0.0000E+00  0.0000E+00  0.0000E+00  0.0000E+00  0.0000E+00
    -14.620  0.0000E+00  0.0000E+00  0.0000E+00  0.0000E+00  0.0000E+00  0.0000E+00  0.0000E+00  0.0000E+00  0.0000E+00  0.0000E+00  0.0000E+00  0.0000E+00  0.0000E+00  0.0000E+00  0.0000E+00  0.0000E+00  0.0000E+00  0.0000E+00
    -14.511  0.0000E+00  0.0000E+00  0.0000E+00  0.0000E+00  0.0000E+00  0.0000E+00  0.0000E+00  0.0000E+00  0.0000E+00  0.0000E+00  0.0000E+00  0.0000E+00  0.0000E+00  0.0000E+00  0.0000E+00  0.0000E+00  0.0000E+00  0.0000E+00
    -14.401  0.0000E+00  0.0000E+00  0.0000E+00  0.0000E+00  0.0000E+00  0.0000E+00  0.0000E+00  0.0000E+00  0.0000E+00  0.0000E+00  0.0000E+00  0.0000E+00  0.0000E+00  0.0000E+00  0.0000E+00  0.0000E+00  0.0000E+00  0.0000E+00
    -14.291  0.5779E-07  0.5745E-07  0.4570E-17  0.4320E-17  0.4149E-09  0.4125E-09  0.4570E-17  0.4320E-17  0.0000E+00  0.0000E+00  0.0000E+00  0.0000E+00  0.0000E+00  0.0000E+00  0.0000E+00  0.0000E+00  0.0000E+00  0.0000E+00
    -14.181  0.4625E-06  0.4598E-06  0.3658E-16  0.3458E-16  0.3321E-08  0.3302E-08  0.3658E-16  0.3458E-16  0.0000E+00  0.0000E+00  0.0000E+00  0.0000E+00  0.0000E+00  0.0000E+00  0.0000E+00  0.0000E+00  0.0000E+00  0.0000E+00
    -14.071  0.5968E-05  0.5933E-05  0.3301E-07  0.3280E-07  0.5019E-07  0.4989E-07  0.3301E-07  0.3280E-07  0.0000E+00  0.0000E+00  0.0000E+00  0.0000E+00  0.0000E+00  0.0000E+00  0.0000E+00  0.0000E+00  0.0000E+00  0.0000E+00
    -13.961  0.5141E-04  0.5111E-04  0.2733E-06  0.2716E-06  0.4489E-06  0.4463E-06  0.2733E-06  0.2716E-06  0.0000E+00  0.0000E+00  0.0000E+00  0.0000E+00  0.0000E+00  0.0000E+00  0.0000E+00  0.0000E+00  0.0000E+00  0.0000E+00
    -13.851  0.3972E-03  0.3952E-03  0.2460E-05  0.2445E-05  0.3548E-05  0.3529E-05  0.2460E-05  0.2445E-05  0.0000E+00  0.0000E+00  0.0000E+00  0.0000E+00  0.0000E+00  0.0000E+00  0.0000E+00  0.0000E+00  0.0000E+00  0.0000E+00
    -13.741  0.1818E-02  0.1812E-02  0.1955E-04  0.1944E-04  0.1898E-04  0.1890E-04  0.1955E-04  0.1944E-04  0.0000E+00  0.0000E+00  0.0000E+00  0.0000E+00  0.0000E+00  0.0000E+00  0.0000E+00  0.0000E+00  0.0000E+00  0.0000E+00
    -13.631  0.4938E-02  0.4930E-02  0.8289E-04  0.8269E-04  0.7211E-04  0.7190E-04  0.8289E-04  0.8269E-04  0.0000E+00  0.0000E+00  0.0000E+00  0.0000E+00  0.0000E+00  0.0000E+00  0.0000E+00  0.0000E+00  0.0000E+00  0.0000E+00
    -13.521  0.6154E-02  0.6154E-02  0.1296E-03  0.1294E-03  0.1656E-03  0.1653E-03  0.1296E-03  0.1294E-03  0.0000E+00  0.0000E+00  0.0000E+00  0.0000E+00  0.0000E+00  0.0000E+00  0.0000E+00  0.0000E+00  0.0000E+00  0.0000E+00
    -13.411  0.7614E-02  0.7609E-02  0.2845E-03  0.2838E-03  0.2748E-03  0.2747E-03  0.2845E-03  0.2838E-03  0.0000E+00  0.0000E+00  0.0000E+00  0.0000E+00  0.0000E+00  0.0000E+00  0.0000E+00  0.0000E+00  0.0000E+00  0.0000E+00
    -13.302  0.8949E-02  0.8945E-02  0.5295E-03  0.5287E-03  0.3430E-03  0.3424E-03  0.5295E-03  0.5287E-03  0.0000E+00  0.0000E+00  0.0000E+00  0.0000E+00  0.0000E+00  0.0000E+00  0.0000E+00  0.0000E+00  0.0000E+00  0.0000E+00
    -13.192  0.1136E-01  0.1135E-01  0.7332E-03  0.7329E-03  0.7351E-03  0.7337E-03  0.7332E-03  0.7329E-03  0.0000E+00  0.0000E+00  0.0000E+00  0.0000E+00  0.0000E+00  0.0000E+00  0.0000E+00  0.0000E+00  0.0000E+00  0.0000E+00
    -13.082  0.1005E-01  0.1006E-01  0.7223E-03  0.7221E-03  0.8984E-03  0.8989E-03  0.7223E-03  0.7221E-03  0.0000E+00  0.0000E+00  0.0000E+00  0.0000E+00  0.0000E+00  0.0000E+00  0.0000E+00  0.0000E+00  0.0000E+00  0.0000E+00
    -12.972  0.1033E-01  0.1032E-01  0.1258E-02  0.1254E-02  0.9746E-03  0.9728E-03  0.1258E-02  0.1254E-02  0.0000E+00  0.0000E+00  0.0000E+00  0.0000E+00  0.0000E+00  0.0000E+00  0.0000E+00  0.0000E+00  0.0000E+00  0.0000E+00
    -12.862  0.1405E-01  0.1405E-01  0.2011E-02  0.2010E-02  0.1599E-02  0.1597E-02  0.2011E-02  0.2010E-02  0.0000E+00  0.0000E+00  0.0000E+00  0.0000E+00  0.0000E+00  0.0000E+00  0.0000E+00  0.0000E+00  0.0000E+00  0.0000E+00
    -12.752  0.1117E-01  0.1119E-01  0.1727E-02  0.1728E-02  0.2036E-02  0.2036E-02  0.1727E-02  0.1728E-02  0.0000E+00  0.0000E+00  0.0000E+00  0.0000E+00  0.0000E+00  0.0000E+00  0.0000E+00  0.0000E+00  0.0000E+00  0.0000E+00
    -12.642  0.8074E-02  0.8081E-02  0.1672E-02  0.1671E-02  0.2018E-02  0.2018E-02  0.1672E-02  0.1671E-02  0.0000E+00  0.0000E+00  0.0000E+00  0.0000E+00  0.0000E+00  0.0000E+00  0.0000E+00  0.0000E+00  0.0000E+00  0.0000E+00
    -12.532  0.6401E-02  0.6405E-02  0.2041E-02  0.2039E-02  0.2096E-02  0.2094E-02  0.2041E-02  0.2039E-02  0.0000E+00  0.0000E+00  0.0000E+00  0.0000E+00  0.0000E+00  0.0000E+00  0.0000E+00  0.0000E+00  0.0000E+00  0.0000E+00
    -12.422  0.6468E-02  0.6465E-02  0.2790E-02  0.2786E-02  0.3112E-02  0.3108E-02  0.2790E-02  0.2786E-02  0.0000E+00  0.0000E+00  0.0000E+00  0.0000E+00  0.0000E+00  0.0000E+00  0.0000E+00  0.0000E+00  0.0000E+00  0.0000E+00
    -12.312  0.6711E-02  0.6713E-02  0.3920E-02  0.3914E-02  0.3565E-02  0.3565E-02  0.3920E-02  0.3914E-02  0.0000E+00  0.0000E+00  0.0000E+00  0.0000E+00  0.0000E+00  0.0000E+00  0.0000E+00  0.0000E+00  0.0000E+00  0.0000E+00
    -12.203  0.6530E-02  0.6529E-02  0.6288E-02  0.6276E-02  0.4113E-02  0.4109E-02  0.6288E-02  0.6276E-02  0.0000E+00  0.0000E+00  0.0000E+00  0.0000E+00  0.0000E+00  0.0000E+00  0.0000E+00  0.0000E+00  0.0000E+00  0.0000E+00
    -12.093  0.6511E-02  0.6513E-02  0.8087E-02  0.8086E-02  0.4594E-02  0.4595E-02  0.8087E-02  0.8086E-02  0.0000E+00  0.0000E+00  0.0000E+00  0.0000E+00  0.0000E+00  0.0000E+00  0.0000E+00  0.0000E+00  0.0000E+00  0.0000E+00
    -11.983  0.6447E-02  0.6443E-02  0.7341E-02  0.7345E-02  0.4805E-02  0.4801E-02  0.7341E-02  0.7345E-02  0.0000E+00  0.0000E+00  0.0000E+00  0.0000E+00  0.0000E+00  0.0000E+00  0.0000E+00  0.0000E+00  0.0000E+00  0.0000E+00
    -11.873  0.6667E-02  0.6671E-02  0.5964E-02  0.5972E-02  0.5335E-02  0.5337E-02  0.5964E-02  0.5972E-02  0.0000E+00  0.0000E+00  0.0000E+00  0.0000E+00  0.0000E+00  0.0000E+00  0.0000E+00  0.0000E+00  0.0000E+00  0.0000E+00
    -11.763  0.4907E-02  0.4915E-02  0.4260E-02  0.4267E-02  0.4488E-02  0.4494E-02  0.4260E-02  0.4267E-02  0.0000E+00  0.0000E+00  0.0000E+00  0.0000E+00  0.0000E+00  0.0000E+00  0.0000E+00  0.0000E+00  0.0000E+00  0.0000E+00
    -11.653  0.2571E-02  0.2583E-02  0.2186E-02  0.2197E-02  0.2410E-02  0.2422E-02  0.2186E-02  0.2197E-02  0.0000E+00  0.0000E+00  0.0000E+00  0.0000E+00  0.0000E+00  0.0000E+00  0.0000E+00  0.0000E+00  0.0000E+00  0.0000E+00
    -11.543  0.5667E-03  0.5717E-03  0.4664E-03  0.4706E-03  0.5095E-03  0.5141E-03  0.4664E-03  0.4706E-03  0.0000E+00  0.0000E+00  0.0000E+00  0.0000E+00  0.0000E+00  0.0000E+00  0.0000E+00  0.0000E+00  0.0000E+00  0.0000E+00
    -11.433  0.6496E-04  0.6561E-04  0.5276E-04  0.5329E-04  0.5937E-04  0.5998E-04  0.5276E-04  0.5329E-04  0.0000E+00  0.0000E+00  0.0000E+00  0.0000E+00  0.0000E+00  0.0000E+00  0.0000E+00  0.0000E+00  0.0000E+00  0.0000E+00
    -11.323  0.0000E+00  0.0000E+00  0.0000E+00  0.0000E+00  0.0000E+00  0.0000E+00  0.0000E+00  0.0000E+00  0.0000E+00  0.0000E+00  0.0000E+00  0.0000E+00  0.0000E+00  0.0000E+00  0.0000E+00  0.0000E+00  0.0000E+00  0.0000E+00
    -11.213  0.0000E+00  0.0000E+00  0.0000E+00  0.0000E+00  0.0000E+00  0.0000E+00  0.0000E+00  0.0000E+00  0.0000E+00  0.0000E+00  0.0000E+00  0.0000E+00  0.0000E+00  0.0000E+00  0.0000E+00  0.0000E+00  0.0000E+00  0.0000E+00
    -11.104  0.0000E+00  0.0000E+00  0.0000E+00  0.0000E+00  0.0000E+00  0.0000E+00  0.0000E+00  0.0000E+00  0.0000E+00  0.0000E+00  0.0000E+00  0.0000E+00  0.0000E+00  0.0000E+00  0.0000E+00  0.0000E+00  0.0000E+00  0.0000E+00
    -10.994  0.0000E+00  0.0000E+00  0.0000E+00  0.0000E+00  0.0000E+00  0.0000E+00  0.0000E+00  0.0000E+00  0.0000E+00  0.0000E+00  0.0000E+00  0.0000E+00  0.0000E+00  0.0000E+00  0.0000E+00  0.0000E+00  0.0000E+00  0.0000E+00
    -10.884  0.0000E+00  0.0000E+00  0.0000E+00  0.0000E+00  0.0000E+00  0.0000E+00  0.0000E+00  0.0000E+00  0.0000E+00  0.0000E+00  0.0000E+00  0.0000E+00  0.0000E+00  0.0000E+00  0.0000E+00  0.0000E+00  0.0000E+00  0.0000E+00
    -10.774  0.0000E+00  0.0000E+00  0.0000E+00  0.0000E+00  0.0000E+00  0.0000E+00  0.0000E+00  0.0000E+00  0.0000E+00  0.0000E+00  0.0000E+00  0.0000E+00  0.0000E+00  0.0000E+00  0.0000E+00  0.0000E+00  0.0000E+00  0.0000E+00
    -10.664  0.0000E+00  0.0000E+00  0.0000E+00  0.0000E+00  0.0000E+00  0.0000E+00  0.0000E+00  0.0000E+00  0.0000E+00  0.0000E+00  0.0000E+00  0.0000E+00  0.0000E+00  0.0000E+00  0.0000E+00  0.0000E+00  0.0000E+00  0.0000E+00
    -10.554  0.0000E+00  0.0000E+00  0.0000E+00  0.0000E+00  0.0000E+00  0.0000E+00  0.0000E+00  0.0000E+00  0.0000E+00  0.0000E+00  0.0000E+00  0.0000E+00  0.0000E+00  0.0000E+00  0.0000E+00  0.0000E+00  0.0000E+00  0.0000E+00
    -10.444  0.0000E+00  0.0000E+00  0.0000E+00  0.0000E+00  0.0000E+00  0.0000E+00  0.0000E+00  0.0000E+00  0.0000E+00  0.0000E+00  0.0000E+00  0.0000E+00  0.0000E+00  0.0000E+00  0.0000E+00  0.0000E+00  0.0000E+00  0.0000E+00
    -10.334  0.0000E+00  0.0000E+00  0.0000E+00  0.0000E+00  0.0000E+00  0.0000E+00  0.0000E+00  0.0000E+00  0.0000E+00  0.0000E+00  0.0000E+00  0.0000E+00  0.0000E+00  0.0000E+00  0.0000E+00  0.0000E+00  0.0000E+00  0.0000E+00
    -10.224  0.0000E+00  0.0000E+00  0.0000E+00  0.0000E+00  0.0000E+00  0.0000E+00  0.0000E+00  0.0000E+00  0.0000E+00  0.0000E+00  0.0000E+00  0.0000E+00  0.0000E+00  0.0000E+00  0.0000E+00  0.0000E+00  0.0000E+00  0.0000E+00
    -10.114  0.0000E+00  0.0000E+00  0.0000E+00  0.0000E+00  0.0000E+00  0.0000E+00  0.0000E+00  0.0000E+00  0.0000E+00  0.0000E+00  0.0000E+00  0.0000E+00  0.0000E+00  0.0000E+00  0.0000E+00  0.0000E+00  0.0000E+00  0.0000E+00
    -10.005  0.0000E+00  0.0000E+00  0.0000E+00  0.0000E+00  0.0000E+00  0.0000E+00  0.0000E+00  0.0000E+00  0.0000E+00  0.0000E+00  0.0000E+00  0.0000E+00  0.0000E+00  0.0000E+00  0.0000E+00  0.0000E+00  0.0000E+00  0.0000E+00
     -9.895  0.0000E+00  0.0000E+00  0.0000E+00  0.0000E+00  0.0000E+00  0.0000E+00  0.0000E+00  0.0000E+00  0.0000E+00  0.0000E+00  0.0000E+00  0.0000E+00  0.0000E+00  0.0000E+00  0.0000E+00  0.0000E+00  0.0000E+00  0.0000E+00
     -9.785  0.0000E+00  0.0000E+00  0.0000E+00  0.0000E+00  0.0000E+00  0.0000E+00  0.0000E+00  0.0000E+00  0.0000E+00  0.0000E+00  0.0000E+00  0.0000E+00  0.0000E+00  0.0000E+00  0.0000E+00  0.0000E+00  0.0000E+00  0.0000E+00