  30  30   1   0
  0.1163561E+02  0.5285531E-09  0.5285531E-09  0.1442788E-08  0.5000000E-15
  1.000000000000000E-004
  CAR 
 unknown system                          
     15.66545328    -15.56839945  301      4.31720429      1.00000000
    -15.568  0.0000E+00  0.0000E+00  0.0000E+00  0.0000E+00
    -15.464  0.0000E+00  0.0000E+00  0.0000E+00  0.0000E+00
    -15.360  0.0000E+00  0.0000E+00  0.0000E+00  0.0000E+00
    -15.256  0.0000E+00  0.0000E+00  0.0000E+00  0.0000E+00
    -15.152  0.0000E+00  0.0000E+00  0.0000E+00  0.0000E+00
    -15.048  0.0000E+00  0.0000E+00  0.0000E+00  0.0000E+00
    -14.944  0.0000E+00  0.0000E+00  0.0000E+00  0.0000E+00
    -14.840  0.0000E+00  0.0000E+00  0.0000E+00  0.0000E+00
    -14.735  0.0000E+00  0.0000E+00  0.0000E+00  0.0000E+00
    -14.631  0.2458E-04  0.2465E-04  0.2559E-05  0.2566E-05
    -14.527  0.2962E-03  0.2970E-03  0.3340E-04  0.3349E-04
    -14.423  0.2332E-02  0.2338E-02  0.2762E-03  0.2769E-03
    -14.319  0.1886E-01  0.1891E-01  0.2240E-02  0.2246E-02
    -14.215  0.1316E+00  0.1319E+00  0.1594E-01  0.1598E-01
    -14.111  0.6081E+00  0.6092E+00  0.7926E-01  0.7940E-01
    -14.007  0.1571E+01  0.1572E+01  0.2428E+00  0.2431E+00
    -13.903  0.2184E+01  0.2185E+01  0.4702E+00  0.4706E+00
    -13.798  0.3042E+01  0.3043E+01  0.7869E+00  0.7874E+00
    -13.694  0.4151E+01  0.4153E+01  0.1219E+01  0.1220E+01
    -13.590  0.4709E+01  0.4709E+01  0.1710E+01  0.1710E+01
    -13.486  0.5583E+01  0.5588E+01  0.2292E+01  0.2293E+01
    -13.382  0.7700E+01  0.7701E+01  0.3093E+01  0.3095E+01
    -13.278  0.7033E+01  0.7031E+01  0.3826E+01  0.3827E+01
    -13.174  0.6659E+01  0.6660E+01  0.4520E+01  0.4521E+01
    -13.070  0.7959E+01  0.7964E+01  0.5350E+01  0.5352E+01
    -12.966  0.1112E+02  0.1113E+02  0.6509E+01  0.6512E+01
    -12.861  0.1640E+02  0.1642E+02  0.8217E+01  0.8221E+01
    -12.757  0.2130E+02  0.2131E+02  0.1044E+02  0.1044E+02
    -12.653  0.2444E+02  0.2444E+02  0.1298E+02  0.1299E+02
    -12.549  0.2487E+02  0.2486E+02  0.1557E+02  0.1558E+02
    -12.445  0.1734E+02  0.1732E+02  0.1738E+02  0.1738E+02
    -12.341  0.5048E+01  0.5030E+01  0.1791E+02  0.1791E+02
    -12.237  0.7360E+00  0.7328E+00  0.1799E+02  0.1799E+02
    -12.133  0.6706E-01  0.6676E-01  0.1800E+02  0.1800E+02
    -12.029  0.0000E+00  0.0000E+00  0.1800E+02  0.1800E+02
    -11.924  0.0000E+00  0.0000E+00  0.1800E+02  0.1800E+02
    -11.820  0.0000E+00  0.0000E+00  0.1800E+02  0.1800E+02
    -11.716  0.0000E+00  0.0000E+00  0.1800E+02  0.1800E+02
    -11.612  0.0000E+00  0.0000E+00  0.1800E+02  0.1800E+02
    -11.508  0.0000E+00  0.0000E+00  0.1800E+02  0.1800E+02
    -11.404  0.0000E+00  0.0000E+00  0.1800E+02  0.1800E+02
    -11.300  0.0000E+00  0.0000E+00  0.1800E+02  0.1800E+02
    -11.196  0.0000E+00  0.0000E+00  0.1800E+02  0.1800E+02
    -11.092  0.0000E+00  0.0000E+00  0.1800E+02  0.1800E+02
    -10.987  0.0000E+00  0.0000E+00  0.1800E+02  0.1800E+02
    -10.883  0.0000E+00  0.0000E+00  0.1800E+02  0.1800E+02
    -10.779  0.0000E+00  0.0000E+00  0.1800E+02  0.1800E+02
    -10.675  0.0000E+00  0.0000E+00  0.1800E+02  0.1800E+02
    -10.571  0.0000E+00  0.0000E+00  0.1800E+02  0.1800E+02
    -10.467  0.0000E+00  0.0000E+00  0.1800E+02  0.1800E+02
    -10.363  0.0000E+00  0.0000E+00  0.1800E+02  0.1800E+02
    -10.259  0.0000E+00  0.0000E+00  0.1800E+02  0.1800E+02
    -10.155  0.0000E+00  0.0000E+00  0.1800E+02  0.1800E+02
    -10.050  0.0000E+00  0.0000E+00  0.1800E+02  0.1800E+02
     -9.946  0.0000E+00  0.0000E+00  0.1800E+02  0.1800E+02
     -9.842  0.0000E+00  0.0000E+00  0.1800E+02  0.1800E+02
     -9.738  0.0000E+00  0.0000E+00  0.1800E+02  0.1800E+02
     -9.634  0.0000E+00  0.0000E+00  0.1800E+02  0.1800E+02
     -9.530  0.0000E+00  0.0000E+00  0.1800E+02  0.1800E+02
     -9.426  0.0000E+00  0.0000E+00  0.1800E+02  0.1800E+02
     -9.322  0.0000E+00  0.0000E+00  0.1800E+02  0.1800E+02
     -9.218  0.0000E+00  0.0000E+00  0.1800E+02  0.1800E+02
     -9.113  0.0000E+00  0.0000E+00  0.1800E+02  0.1800E+02
     -9.009  0.0000E+00  0.0000E+00  0.1800E+02  0.1800E+02
     -8.905  0.0000E+00  0.0000E+00  0.1800E+02  0.1800E+02
     -8.801  0.0000E+00  0.0000E+00  0.1800E+02  0.1800E+02
     -8.697  0.0000E+00  0.0000E+00  0.1800E+02  0.1800E+02
     -8.593  0.0000E+00  0.0000E+00  0.1800E+02  0.1800E+02
     -8.489  0.0000E+00  0.0000E+00  0.1800E+02  0.1800E+02
     -8.385  0.0000E+00  0.0000E+00  0.1800E+02  0.1800E+02
     -8.281  0.0000E+00  0.0000E+00  0.1800E+02  0.1800E+02
     -8.176  0.0000E+00  0.0000E+00  0.1800E+02  0.1800E+02
     -8.072  0.0000E+00  0.0000E+00  0.1800E+02  0.1800E+02
     -7.968  0.0000E+00  0.0000E+00  0.1800E+02  0.1800E+02
     -7.864  0.0000E+00  0.0000E+00  0.1800E+02  0.1800E+02
     -7.760  0.0000E+00  0.0000E+00  0.1800E+02  0.1800E+02
     -7.656  0.0000E+00  0.0000E+00  0.1800E+02  0.1800E+02
     -7.552  0.0000E+00  0.0000E+00  0.1800E+02  0.1800E+02
     -7.448  0.0000E+00  0.0000E+00  0.1800E+02  0.1800E+02
     -7.343  0.0000E+00  0.0000E+00  0.1800E+02  0.1800E+02
     -7.239  0.0000E+00  0.0000E+00  0.1800E+02  0.1800E+02
     -7.135  0.0000E+00  0.0000E+00  0.1800E+02  0.1800E+02
     -7.031  0.0000E+00  0.0000E+00  0.1800E+02  0.1800E+02
     -6.927  0.0000E+00  0.0000E+00  0.1800E+02  0.1800E+02
     -6.823  0.0000E+00  0.0000E+00  0.1800E+02  0.1800E+02
     -6.719  0.0000E+00  0.0000E+00  0.1800E+02  0.1800E+02
     -6.615  0.0000E+00  0.0000E+00  0.1800E+02  0.1800E+02
     -6.511  0.0000E+00  0.0000E+00  0.1800E+02  0.1800E+02
     -6.406  0.0000E+00  0.0000E+00  0.1800E+02  0.1800E+02
     -6.302  0.0000E+00  0.0000E+00  0.1800E+02  0.1800E+02
     -6.198  0.0000E+00  0.0000E+00  0.1800E+02  0.1800E+02
     -6.094  0.0000E+00  0.0000E+00  0.1800E+02  0.1800E+02
     -5.990  0.0000E+00  0.0000E+00  0.1800E+02  0.1800E+02
     -5.886  0.0000E+00  0.0000E+00  0.1800E+02  0.1800E+02
     -5.782  0.0000E+00  0.0000E+00  0.1800E+02  0.1800E+02
     -5.678  0.0000E+00  0.0000E+00  0.1800E+02  0.1800E+02
     -5.574  0.0000E+00  0.0000E+00  0.1800E+02  0.1800E+02
     -5.469  0.0000E+00  0.0000E+00  0.1800E+02  0.1800E+02
     -5.365  0.0000E+00  0.0000E+00  0.1800E+02  0.1800E+02
     -5.261  0.0000E+00  0.0000E+00  0.1800E+02  0.1800E+02
     -5.157  0.0000E+00  0.0000E+00  0.1800E+02  0.1800E+02
     -5.053  0.0000E+00  0.0000E+00  0.1800E+02  0.1800E+02
     -4.949  0.0000E+00  0.0000E+00  0.1800E+02  0.1800E+02
     -4.845  0.0000E+00  0.0000E+00  0.1800E+02  0.1800E+02
     -4.741  0.0000E+00  0.0000E+00  0.1800E+02  0.1800E+02
     -4.637  0.0000E+00  0.0000E+00  0.1800E+02  0.1800E+02
     -4.532  0.0000E+00  0.0000E+00  0.1800E+02  0.1800E+02
     -4.428  0.0000E+00  0.0000E+00  0.1800E+02  0.1800E+02
     -4.324  0.0000E+00  0.0000E+00  0.1800E+02  0.1800E+02
     -4.220  0.0000E+00  0.0000E+00  0.1800E+02  0.1800E+02
     -4.116  0.0000E+00  0.0000E+00  0.1800E+02  0.1800E+02
     -4.012  0.0000E+00  0.0000E+00  0.1800E+02  0.1800E+02
     -3.908  0.0000E+00  0.0000E+00  0.1800E+02  0.1800E+02
     -3.804  0.0000E+00  0.0000E+00  0.1800E+02  0.1800E+02
     -3.700  0.0000E+00  0.0000E+00  0.1800E+02  0.1800E+02
     -3.595  0.0000E+00  0.0000E+00  0.1800E+02  0.1800E+02
     -3.491  0.0000E+00  0.0000E+00  0.1800E+02  0.1800E+02
     -3.387  0.0000E+00  0.0000E+00  0.1800E+02  0.1800E+02
     -3.283  0.0000E+00  0.0000E+00  0.1800E+02  0.1800E+02
     -3.179  0.0000E+00  0.0000E+00  0.1800E+02  0.1800E+02
     -3.075  0.0000E+00  0.0000E+00  0.1800E+02  0.1800E+02
     -2.971  0.0000E+00  0.0000E+00  0.1800E+02  0.1800E+02
     -2.867  0.0000E+00  0.0000E+00  0.1800E+02  0.1800E+02
     -2.763  0.8153E-04  0.8142E-04  0.1800E+02  0.1800E+02
     -2.658  0.8871E-03  0.8859E-03  0.1800E+02  0.1800E+02
     -2.554  0.6738E-02  0.6729E-02  0.1800E+02  0.1800E+02
     -2.450  0.5102E-01  0.5095E-01  0.1801E+02  0.1801E+02
     -2.346  0.2786E+00  0.2784E+00  0.1804E+02  0.1804E+02
     -2.242  0.8781E+00  0.8776E+00  0.1813E+02  0.1813E+02
     -2.138  0.1389E+01  0.1389E+01  0.1827E+02  0.1827E+02
     -2.034  0.1875E+01  0.1874E+01  0.1847E+02  0.1847E+02
     -1.930  0.3687E+01  0.3686E+01  0.1885E+02  0.1885E+02
     -1.826  0.6556E+01  0.6555E+01  0.1953E+02  0.1953E+02
     -1.721  0.9864E+01  0.9864E+01  0.2056E+02  0.2056E+02
     -1.617  0.1023E+02  0.1023E+02  0.2163E+02  0.2163E+02
     -1.513  0.9753E+01  0.9753E+01  0.2264E+02  0.2264E+02
     -1.409  0.9600E+01  0.9601E+01  0.2364E+02  0.2364E+02
     -1.305  0.8159E+01  0.8159E+01  0.2449E+02  0.2449E+02
     -1.201  0.7170E+01  0.7170E+01  0.2524E+02  0.2524E+02
     -1.097  0.7395E+01  0.7396E+01  0.2601E+02  0.2601E+02
     -0.993  0.6848E+01  0.6848E+01  0.2673E+02  0.2673E+02
     -0.888  0.5278E+01  0.5278E+01  0.2728E+02  0.2728E+02
     -0.784  0.4053E+01  0.4053E+01  0.2770E+02  0.2770E+02
     -0.680  0.4479E+01  0.4479E+01  0.2817E+02  0.2817E+02
     -0.576  0.5438E+01  0.5438E+01  0.2873E+02  0.2873E+02
     -0.472  0.5812E+01  0.5812E+01  0.2934E+02  0.2934E+02
     -0.368  0.6379E+01  0.6379E+01  0.3000E+02  0.3000E+02
     -0.264  0.4506E+01  0.4506E+01  0.3047E+02  0.3047E+02
     -0.160  0.4293E+01  0.4293E+01  0.3092E+02  0.3092E+02
     -0.056  0.7089E+01  0.7090E+01  0.3166E+02  0.3166E+02
      0.049  0.9535E+01  0.9536E+01  0.3265E+02  0.3265E+02
      0.153  0.1154E+02  0.1154E+02  0.3385E+02  0.3386E+02
      0.257  0.1129E+02  0.1129E+02  0.3503E+02  0.3503E+02
      0.361  0.9815E+01  0.9815E+01  0.3605E+02  0.3605E+02
      0.465  0.9154E+01  0.9154E+01  0.3701E+02  0.3701E+02
      0.569  0.7850E+01  0.7850E+01  0.3783E+02  0.3783E+02
      0.673  0.7985E+01  0.7986E+01  0.3866E+02  0.3866E+02
      0.777  0.8127E+01  0.8127E+01  0.3951E+02  0.3951E+02
      0.881  0.7501E+01  0.7501E+01  0.4029E+02  0.4029E+02
      0.986  0.7133E+01  0.7133E+01  0.4103E+02  0.4103E+02
      1.090  0.7695E+01  0.7697E+01  0.4183E+02  0.4183E+02
      1.194  0.9294E+01  0.9295E+01  0.4280E+02  0.4280E+02
      1.298  0.9949E+01  0.9952E+01  0.4384E+02  0.4384E+02
      1.402  0.1403E+02  0.1404E+02  0.4530E+02  0.4530E+02
      1.506  0.1712E+02  0.1712E+02  0.4708E+02  0.4709E+02
      1.610  0.1229E+02  0.1228E+02  0.4836E+02  0.4837E+02
      1.714  0.9588E+01  0.9588E+01  0.4936E+02  0.4936E+02
      1.818  0.1070E+02  0.1070E+02  0.5048E+02  0.5048E+02
      1.923  0.1351E+02  0.1352E+02  0.5189E+02  0.5189E+02
      2.027  0.1818E+02  0.1819E+02  0.5378E+02  0.5379E+02
      2.131  0.1725E+02  0.1725E+02  0.5558E+02  0.5558E+02
      2.235  0.1674E+02  0.1674E+02  0.5732E+02  0.5733E+02
      2.339  0.1560E+02  0.1560E+02  0.5895E+02  0.5895E+02
      2.443  0.1404E+02  0.1404E+02  0.6042E+02  0.6042E+02
      2.547  0.1543E+02  0.1544E+02  0.6202E+02  0.6203E+02
      2.651  0.1700E+02  0.1701E+02  0.6380E+02  0.6380E+02
      2.755  0.1921E+02  0.1922E+02  0.6580E+02  0.6580E+02
      2.860  0.2111E+02  0.2111E+02  0.6800E+02  0.6800E+02
      2.964  0.1999E+02  0.1998E+02  0.7008E+02  0.7009E+02
      3.068  0.1258E+02  0.1256E+02  0.7139E+02  0.7139E+02
      3.172  0.4728E+01  0.4713E+01  0.7189E+02  0.7189E+02
      3.276  0.9152E+00  0.9110E+00  0.7199E+02  0.7199E+02
      3.380  0.9860E-01  0.9810E-01  0.7200E+02  0.7200E+02
      3.484  0.2758E-02  0.2744E-02  0.7200E+02  0.7200E+02
      3.588  0.0000E+00  0.0000E+00  0.7200E+02  0.7200E+02
      3.692  0.0000E+00  0.0000E+00  0.7200E+02  0.7200E+02
      3.797  0.0000E+00  0.0000E+00  0.7200E+02  0.7200E+02
      3.901  0.0000E+00  0.0000E+00  0.7200E+02  0.7200E+02
      4.005  0.0000E+00  0.0000E+00  0.7200E+02  0.7200E+02
      4.109  0.0000E+00  0.0000E+00  0.7200E+02  0.7200E+02
      4.213  0.0000E+00  0.0000E+00  0.7200E+02  0.7200E+02
      4.317  0.0000E+00  0.0000E+00  0.7200E+02  0.7200E+02
      4.421  0.0000E+00  0.0000E+00  0.7200E+02  0.7200E+02
      4.525  0.0000E+00  0.0000E+00  0.7200E+02  0.7200E+02
      4.629  0.0000E+00  0.0000E+00  0.7200E+02  0.7200E+02
      4.734  0.0000E+00  0.0000E+00  0.7200E+02  0.7200E+02
      4.838  0.0000E+00  0.0000E+00  0.7200E+02  0.7200E+02
      4.942  0.0000E+00  0.0000E+00  0.7200E+02  0.7200E+02
      5.046  0.0000E+00  0.0000E+00  0.7200E+02  0.7200E+02
      5.150  0.0000E+00  0.0000E+00  0.7200E+02  0.7200E+02
      5.254  0.0000E+00  0.0000E+00  0.7200E+02  0.7200E+02
      5.358  0.0000E+00  0.0000E+00  0.7200E+02  0.7200E+02
      5.462  0.0000E+00  0.0000E+00  0.7200E+02  0.7200E+02
      5.567  0.9553E-04  0.9519E-04  0.7200E+02  0.7200E+02
      5.671  0.6696E-03  0.6671E-03  0.7200E+02  0.7200E+02
      5.775  0.5288E-02  0.5270E-02  0.7200E+02  0.7200E+02
      5.879  0.3767E-01  0.3755E-01  0.7200E+02  0.7200E+02
      5.983  0.1512E+00  0.1510E+00  0.7202E+02  0.7202E+02
      6.087  0.1478E+00  0.1480E+00  0.7204E+02  0.7204E+02
      6.191  0.3576E-01  0.3587E-01  0.7204E+02  0.7204E+02
      6.295  0.4987E-02  0.5005E-02  0.7204E+02  0.7204E+02
      6.399  0.7510E-03  0.7492E-03  0.7204E+02  0.7204E+02
      6.504  0.5327E-02  0.5314E-02  0.7204E+02  0.7204E+02
      6.608  0.4181E-01  0.4172E-01  0.7204E+02  0.7204E+02
      6.712  0.2884E+00  0.2878E+00  0.7208E+02  0.7207E+02
      6.816  0.1019E+01  0.1019E+01  0.7218E+02  0.7218E+02
      6.920  0.9152E+00  0.9160E+00  0.7228E+02  0.7228E+02
      7.024  0.3356E+00  0.3361E+00  0.7231E+02  0.7231E+02
      7.128  0.7257E-01  0.7272E-01  0.7232E+02  0.7232E+02
      7.232  0.1479E-01  0.1479E-01  0.7232E+02  0.7232E+02
      7.336  0.6087E-01  0.6077E-01  0.7233E+02  0.7233E+02
      7.441  0.3876E+00  0.3871E+00  0.7237E+02  0.7237E+02
      7.545  0.1082E+01  0.1082E+01  0.7248E+02  0.7248E+02
      7.649  0.6920E+00  0.6926E+00  0.7255E+02  0.7255E+02
      7.753  0.4749E+00  0.4746E+00  0.7260E+02  0.7260E+02
      7.857  0.1083E+01  0.1083E+01  0.7271E+02  0.7271E+02
      7.961  0.7559E+00  0.7566E+00  0.7279E+02  0.7279E+02
      8.065  0.3775E+00  0.3776E+00  0.7283E+02  0.7283E+02
      8.169  0.5817E+00  0.5812E+00  0.7289E+02  0.7289E+02
      8.273  0.1830E+01  0.1829E+01  0.7308E+02  0.7308E+02
      8.378  0.2085E+01  0.2086E+01  0.7330E+02  0.7330E+02
      8.482  0.1558E+01  0.1558E+01  0.7346E+02  0.7346E+02
      8.586  0.1424E+01  0.1424E+01  0.7361E+02  0.7361E+02
      8.690  0.1259E+01  0.1260E+01  0.7374E+02  0.7374E+02
      8.794  0.5334E+00  0.5338E+00  0.7380E+02  0.7380E+02
      8.898  0.5690E+00  0.5682E+00  0.7386E+02  0.7386E+02
      9.002  0.2363E+01  0.2360E+01  0.7410E+02  0.7410E+02
      9.106  0.4422E+01  0.4421E+01  0.7457E+02  0.7456E+02
      9.210  0.3866E+01  0.3867E+01  0.7497E+02  0.7497E+02
      9.315  0.2993E+01  0.2994E+01  0.7528E+02  0.7528E+02
      9.419  0.3370E+01  0.3368E+01  0.7563E+02  0.7563E+02
      9.523  0.4687E+01  0.4684E+01  0.7612E+02  0.7612E+02
      9.627  0.6074E+01  0.6074E+01  0.7675E+02  0.7675E+02
      9.731  0.6772E+01  0.6772E+01  0.7746E+02  0.7746E+02
      9.835  0.5738E+01  0.5740E+01  0.7805E+02  0.7805E+02
      9.939  0.4749E+01  0.4749E+01  0.7855E+02  0.7855E+02
     10.043  0.5353E+01  0.5351E+01  0.7911E+02  0.7911E+02
     10.147  0.7807E+01  0.7805E+01  0.7992E+02  0.7992E+02
     10.252  0.8640E+01  0.8641E+01  0.8082E+02  0.8082E+02
     10.356  0.6563E+01  0.6567E+01  0.8151E+02  0.8150E+02
     10.460  0.4424E+01  0.4426E+01  0.8197E+02  0.8197E+02
     10.564  0.3681E+01  0.3681E+01  0.8235E+02  0.8235E+02
     10.668  0.3880E+01  0.3880E+01  0.8276E+02  0.8276E+02
     10.772  0.3147E+01  0.3149E+01  0.8308E+02  0.8308E+02
     10.876  0.1897E+01  0.1897E+01  0.8328E+02  0.8328E+02
     10.980  0.1910E+01  0.1910E+01  0.8348E+02  0.8348E+02
     11.084  0.2575E+01  0.2573E+01  0.8375E+02  0.8375E+02
     11.189  0.4115E+01  0.4110E+01  0.8418E+02  0.8418E+02
     11.293  0.4990E+01  0.4989E+01  0.8470E+02  0.8470E+02
     11.397  0.6055E+01  0.6054E+01  0.8533E+02  0.8533E+02
     11.501  0.5965E+01  0.5966E+01  0.8595E+02  0.8595E+02
     11.605  0.6086E+01  0.6089E+01  0.8658E+02  0.8658E+02
     11.709  0.5194E+01  0.5200E+01  0.8713E+02  0.8712E+02
     11.813  0.3231E+01  0.3231E+01  0.8746E+02  0.8746E+02
     11.917  0.4795E+01  0.4787E+01  0.8796E+02  0.8796E+02
     12.022  0.6524E+01  0.6523E+01  0.8864E+02  0.8864E+02
     12.126  0.5612E+01  0.5618E+01  0.8923E+02  0.8923E+02
     12.230  0.3856E+01  0.3857E+01  0.8963E+02  0.8963E+02
     12.334  0.3758E+01  0.3752E+01  0.9002E+02  0.9002E+02
     12.438  0.5880E+01  0.5875E+01  0.9063E+02  0.9063E+02
     12.542  0.6507E+01  0.6510E+01  0.9131E+02  0.9131E+02
     12.646  0.4611E+01  0.4617E+01  0.9179E+02  0.9179E+02
     12.750  0.3196E+01  0.3191E+01  0.9213E+02  0.9212E+02
     12.854  0.4035E+01  0.4033E+01  0.9255E+02  0.9254E+02
     12.959  0.5935E+01  0.5909E+01  0.9316E+02  0.9316E+02
     13.063  0.7080E+01  0.7039E+01  0.9390E+02  0.9389E+02
     13.167  0.5337E+01  0.5264E+01  0.9446E+02  0.9444E+02
     13.271  0.4314E+01  0.4220E+01  0.9491E+02  0.9488E+02
     13.375  0.5153E+01  0.5090E+01  0.9545E+02  0.9541E+02
     13.479  0.5000E+01  0.4906E+01  0.9597E+02  0.9592E+02
     13.583  0.5173E+01  0.5125E+01  0.9651E+02  0.9646E+02
     13.687  0.5661E+01  0.5876E+01  0.9710E+02  0.9707E+02
     13.791  0.5850E+01  0.6677E+01  0.9771E+02  0.9777E+02
     13.896  0.6238E+01  0.7672E+01  0.9836E+02  0.9857E+02
     14.000  0.5823E+01  0.6223E+01  0.9896E+02  0.9921E+02
     14.104  0.5008E+01  0.3800E+01  0.9949E+02  0.9961E+02
     14.208  0.3341E+01  0.1903E+01  0.9983E+02  0.9981E+02
     14.312  0.1297E+01  0.1298E+01  0.9997E+02  0.9995E+02
     14.416  0.2469E+00  0.4328E+00  0.1000E+03  0.9999E+02
     14.520  0.2577E-01  0.6444E-01  0.1000E+03  0.1000E+03
     14.624  0.0000E+00  0.8294E-02  0.1000E+03  0.1000E+03
     14.728  0.0000E+00  0.0000E+00  0.1000E+03  0.1000E+03
     14.833  0.0000E+00  0.0000E+00  0.1000E+03  0.1000E+03
     14.937  0.0000E+00  0.0000E+00  0.1000E+03  0.1000E+03
     15.041  0.0000E+00  0.0000E+00  0.1000E+03  0.1000E+03
     15.145  0.0000E+00  0.0000E+00  0.1000E+03  0.1000E+03
     15.249  0.0000E+00  0.0000E+00  0.1000E+03  0.1000E+03
     15.353  0.0000E+00  0.0000E+00  0.1000E+03  0.1000E+03
     15.457  0.0000E+00  0.0000E+00  0.1000E+03  0.1000E+03
     15.561  0.0000E+00  0.0000E+00  0.1000E+03  0.1000E+03
     15.665  0.0000E+00  0.0000E+00  0.1000E+03  0.1000E+03
     15.66545328    -15.56839945  301      4.31720429      1.00000000
    -15.568  0.0000E+00  0.0000E+00  0.0000E+00  0.0000E+00  0.0000E+00  0.0000E+00  0.0000E+00  0.0000E+00  0.0000E+00  0.0000E+00  0.0000E+00  0.0000E+00  0.0000E+00  0.0000E+00  0.0000E+00  0.0000E+00  0.0000E+00  0.0000E+00
    -15.464  0.0000E+00  0.0000E+00  0.0000E+00  0.0000E+00  0.0000E+00  0.0000E+00  0.0000E+00  0.0000E+00  0.0000E+00  0.0000E+00  0.0000E+00  0.0000E+00  0.0000E+00  0.0000E+00  0.0000E+00  0.0000E+00  0.0000E+00  0.0000E+00
    -15.360  0.0000E+00  0.0000E+00  0.0000E+00  0.0000E+00  0.0000E+00  0.0000E+00  0.0000E+00  0.0000E+00  0.0000E+00  0.0000E+00  0.0000E+00  0.0000E+00  0.0000E+00  0.0000E+00  0.0000E+00  0.0000E+00  0.0000E+00  0.0000E+00
    -15.256  0.0000E+00  0.0000E+00  0.0000E+00  0.0000E+00  0.0000E+00  0.0000E+00  0.0000E+00  0.0000E+00  0.0000E+00  0.0000E+00  0.0000E+00  0.0000E+00  0.0000E+00  0.0000E+00  0.0000E+00  0.0000E+00  0.0000E+00  0.0000E+00
    -15.152  0.0000E+00  0.0000E+00  0.0000E+00  0.0000E+00  0.0000E+00  0.0000E+00  0.0000E+00  0.0000E+00  0.0000E+00  0.0000E+00  0.0000E+00  0.0000E+00  0.0000E+00  0.0000E+00  0.0000E+00  0.0000E+00  0.0000E+00  0.0000E+00
    -15.048  0.0000E+00  0.0000E+00  0.0000E+00  0.0000E+00  0.0000E+00  0.0000E+00  0.0000E+00  0.0000E+00  0.0000E+00  0.0000E+00  0.0000E+00  0.0000E+00  0.0000E+00  0.0000E+00  0.0000E+00  0.0000E+00  0.0000E+00  0.0000E+00
    -14.944  0.0000E+00  0.0000E+00  0.0000E+00  0.0000E+00  0.0000E+00  0.0000E+00  0.0000E+00  0.0000E+00  0.0000E+00  0.0000E+00  0.0000E+00  0.0000E+00  0.0000E+00  0.0000E+00  0.0000E+00  0.0000E+00  0.0000E+00  0.0000E+00
    -14.840  0.0000E+00  0.0000E+00  0.0000E+00  0.0000E+00  0.0000E+00  0.0000E+00  0.0000E+00  0.0000E+00  0.0000E+00  0.0000E+00  0.0000E+00  0.0000E+00  0.0000E+00  0.0000E+00  0.0000E+00  0.0000E+00  0.0000E+00  0.0000E+00
    -14.735  0.0000E+00  0.0000E+00  0.0000E+00  0.0000E+00  0.0000E+00  0.0000E+00  0.0000E+00  0.0000E+00  0.0000E+00  0.0000E+00  0.0000E+00  0.0000E+00  0.0000E+00  0.0000E+00  0.0000E+00  0.0000E+00  0.0000E+00  0.0000E+00
    -14.631  0.8152E-07  0.8174E-07  0.8393E-17  0.7796E-17  0.5310E-09  0.5325E-09  0.8393E-17  0.7796E-17  0.0000E+00  0.0000E+00  0.0000E+00  0.0000E+00  0.0000E+00  0.0000E+00  0.0000E+00  0.0000E+00  0.0000E+00  0.0000E+00
    -14.527  0.9485E-06  0.9511E-06  0.7160E-08  0.7180E-08  0.6556E-08  0.6575E-08  0.7160E-08  0.7180E-08  0.0000E+00  0.0000E+00  0.0000E+00  0.0000E+00  0.0000E+00  0.0000E+00  0.0000E+00  0.0000E+00  0.0000E+00  0.0000E+00
    -14.423  0.7469E-05  0.7490E-05  0.5026E-07  0.5040E-07  0.6194E-07  0.6211E-07  0.5026E-07  0.5040E-07  0.0000E+00  0.0000E+00  0.0000E+00  0.0000E+00  0.0000E+00  0.0000E+00  0.0000E+00  0.0000E+00  0.0000E+00  0.0000E+00
    -14.319  0.6010E-04  0.6026E-04  0.4474E-06  0.4487E-06  0.5463E-06  0.5478E-06  0.4474E-06  0.4487E-06  0.0000E+00  0.0000E+00  0.0000E+00  0.0000E+00  0.0000E+00  0.0000E+00  0.0000E+00  0.0000E+00  0.0000E+00  0.0000E+00
    -14.215  0.4174E-03  0.4184E-03  0.3487E-05  0.3496E-05  0.3900E-05  0.3910E-05  0.3487E-05  0.3496E-05  0.0000E+00  0.0000E+00  0.0000E+00  0.0000E+00  0.0000E+00  0.0000E+00  0.0000E+00  0.0000E+00  0.0000E+00  0.0000E+00
    -14.111  0.1886E-02  0.1889E-02  0.2353E-04  0.2359E-04  0.2113E-04  0.2117E-04  0.2353E-04  0.2359E-04  0.0000E+00  0.0000E+00  0.0000E+00  0.0000E+00  0.0000E+00  0.0000E+00  0.0000E+00  0.0000E+00  0.0000E+00  0.0000E+00
    -14.007  0.4706E-02  0.4710E-02  0.8278E-04  0.8287E-04  0.7740E-04  0.7751E-04  0.8278E-04  0.8287E-04  0.0000E+00  0.0000E+00  0.0000E+00  0.0000E+00  0.0000E+00  0.0000E+00  0.0000E+00  0.0000E+00  0.0000E+00  0.0000E+00
    -13.903  0.6117E-02  0.6119E-02  0.1609E-03  0.1611E-03  0.1786E-03  0.1788E-03  0.1609E-03  0.1611E-03  0.0000E+00  0.0000E+00  0.0000E+00  0.0000E+00  0.0000E+00  0.0000E+00  0.0000E+00  0.0000E+00  0.0000E+00  0.0000E+00
    -13.798  0.7755E-02  0.7757E-02  0.3617E-03  0.3621E-03  0.2720E-03  0.2722E-03  0.3617E-03  0.3621E-03  0.0000E+00  0.0000E+00  0.0000E+00  0.0000E+00  0.0000E+00  0.0000E+00  0.0000E+00  0.0000E+00  0.0000E+00  0.0000E+00
    -13.694  0.9616E-02  0.9620E-02  0.5977E-03  0.5979E-03  0.5002E-03  0.5007E-03  0.5977E-03  0.5979E-03  0.0000E+00  0.0000E+00  0.0000E+00  0.0000E+00  0.0000E+00  0.0000E+00  0.0000E+00  0.0000E+00  0.0000E+00  0.0000E+00
    -13.590  0.9987E-02  0.9985E-02  0.7073E-03  0.7075E-03  0.7841E-03  0.7842E-03  0.7073E-03  0.7075E-03  0.0000E+00  0.0000E+00  0.0000E+00  0.0000E+00  0.0000E+00  0.0000E+00  0.0000E+00  0.0000E+00  0.0000E+00  0.0000E+00
    -13.486  0.1000E-01  0.1001E-01  0.1140E-02  0.1142E-02  0.9203E-03  0.9210E-03  0.1140E-02  0.1142E-02  0.0000E+00  0.0000E+00  0.0000E+00  0.0000E+00  0.0000E+00  0.0000E+00  0.0000E+00  0.0000E+00  0.0000E+00  0.0000E+00
    -13.382  0.1224E-01  0.1223E-01  0.1732E-02  0.1732E-02  0.1450E-02  0.1451E-02  0.1732E-02  0.1732E-02  0.0000E+00  0.0000E+00  0.0000E+00  0.0000E+00  0.0000E+00  0.0000E+00  0.0000E+00  0.0000E+00  0.0000E+00  0.0000E+00
    -13.278  0.9605E-02  0.9599E-02  0.1591E-02  0.1590E-02  0.1816E-02  0.1816E-02  0.1591E-02  0.1590E-02  0.0000E+00  0.0000E+00  0.0000E+00  0.0000E+00  0.0000E+00  0.0000E+00  0.0000E+00  0.0000E+00  0.0000E+00  0.0000E+00
    -13.174  0.6995E-02  0.6992E-02  0.1758E-02  0.1759E-02  0.1882E-02  0.1882E-02  0.1758E-02  0.1759E-02  0.0000E+00  0.0000E+00  0.0000E+00  0.0000E+00  0.0000E+00  0.0000E+00  0.0000E+00  0.0000E+00  0.0000E+00  0.0000E+00
    -13.070  0.5986E-02  0.5986E-02  0.2363E-02  0.2364E-02  0.2465E-02  0.2467E-02  0.2363E-02  0.2364E-02  0.0000E+00  0.0000E+00  0.0000E+00  0.0000E+00  0.0000E+00  0.0000E+00  0.0000E+00  0.0000E+00  0.0000E+00  0.0000E+00
    -12.966  0.6266E-02  0.6266E-02  0.3585E-02  0.3588E-02  0.3215E-02  0.3216E-02  0.3585E-02  0.3588E-02  0.0000E+00  0.0000E+00  0.0000E+00  0.0000E+00  0.0000E+00  0.0000E+00  0.0000E+00  0.0000E+00  0.0000E+00  0.0000E+00
    -12.861  0.6280E-02  0.6280E-02  0.5797E-02  0.5802E-02  0.3795E-02  0.3796E-02  0.5797E-02  0.5802E-02  0.0000E+00  0.0000E+00  0.0000E+00  0.0000E+00  0.0000E+00  0.0000E+00  0.0000E+00  0.0000E+00  0.0000E+00  0.0000E+00
    -12.757  0.6204E-02  0.6204E-02  0.7048E-02  0.7047E-02  0.4219E-02  0.4219E-02  0.7048E-02  0.7047E-02  0.0000E+00  0.0000E+00  0.0000E+00  0.0000E+00  0.0000E+00  0.0000E+00  0.0000E+00  0.0000E+00  0.0000E+00  0.0000E+00
    -12.653  0.6257E-02  0.6256E-02  0.6098E-02  0.6095E-02  0.4625E-02  0.4626E-02  0.6098E-02  0.6095E-02  0.0000E+00  0.0000E+00  0.0000E+00  0.0000E+00  0.0000E+00  0.0000E+00  0.0000E+00  0.0000E+00  0.0000E+00  0.0000E+00
    -12.549  0.5173E-02  0.5169E-02  0.4386E-02  0.4382E-02  0.4268E-02  0.4266E-02  0.4386E-02  0.4382E-02  0.0000E+00  0.0000E+00  0.0000E+00  0.0000E+00  0.0000E+00  0.0000E+00  0.0000E+00  0.0000E+00  0.0000E+00  0.0000E+00
    -12.445  0.2860E-02  0.2854E-02  0.2363E-02  0.2358E-02  0.2524E-02  0.2519E-02  0.2363E-02  0.2358E-02  0.0000E+00  0.0000E+00  0.0000E+00  0.0000E+00  0.0000E+00  0.0000E+00  0.0000E+00  0.0000E+00  0.0000E+00  0.0000E+00
    -12.341  0.7700E-03  0.7672E-03  0.6193E-03  0.6170E-03  0.6635E-03  0.6611E-03  0.6193E-03  0.6170E-03  0.0000E+00  0.0000E+00  0.0000E+00  0.0000E+00  0.0000E+00  0.0000E+00  0.0000E+00  0.0000E+00  0.0000E+00  0.0000E+00
    -12.237  0.1077E-03  0.1072E-03  0.8551E-04  0.8514E-04  0.9192E-04  0.9152E-04  0.8551E-04  0.8514E-04  0.0000E+00  0.0000E+00  0.0000E+00  0.0000E+00  0.0000E+00  0.0000E+00  0.0000E+00  0.0000E+00  0.0000E+00  0.0000E+00
    -12.133  0.9135E-05  0.9094E-05  0.7319E-05  0.7287E-05  0.6609E-05  0.6580E-05  0.7319E-05  0.7287E-05  0.0000E+00  0.0000E+00  0.0000E+00  0.0000E+00  0.0000E+00  0.0000E+00  0.0000E+00  0.0000E+00  0.0000E+00  0.0000E+00
    -12.029  0.0000E+00  0.0000E+00  0.0000E+00  0.0000E+00  0.0000E+00  0.0000E+00  0.0000E+00  0.0000E+00  0.0000E+00  0.0000E+00  0.0000E+00  0.0000E+00  0.0000E+00  0.0000E+00  0.0000E+00  0.0000E+00  0.0000E+00  0.0000E+00
    -11.924  0.0000E+00  0.0000E+00  0.0000E+00  0.0000E+00  0.0000E+00  0.0000E+00  0.0000E+00  0.0000E+00  0.0000E+00  0.0000E+00  0.0000E+00  0.0000E+00  0.0000E+00  0.0000E+00  0.0000E+00  0.0000E+00  0.0000E+00  0.0000E+00
    -11.820  0.0000E+00  0.0000E+00  0.0000E+00  0.0000E+00  0.0000E+00  0.0000E+00  0.0000E+00  0.0000E+00  0.0000E+00  0.0000E+00  0.0000E+00  0.0000E+00  0.0000E+00  0.0000E+00  0.0000E+00  0.0000E+00  0.0000E+00  0.0000E+00
    -11.716  0.0000E+00  0.0000E+00  0.0000E+00  0.0000E+00  0.0000E+00  0.0000E+00  0.0000E+00  0.0000E+00  0.0000E+00  0.0000E+00  0.0000E+00  0.0000E+00  0.0000E+00  0.0000E+00  0.0000E+00  0.0000E+00  0.0000E+00  0.0000E+00
    -11.612  0.0000E+00  0.0000E+00  0.0000E+00  0.0000E+00  0.0000E+00  0.0000E+00  0.0000E+00  0.0000E+00  0.0000E+00  0.0000E+00  0.0000E+00  0.0000E+00  0.0000E+00  0.0000E+00  0.0000E+00  0.0000E+00  0.0000E+00  0.0000E+00
    -11.508  0.0000E+00  0.0000E+00  0.0000E+00  0.0000E+00  0.0000E+00  0.0000E+00  0.0000E+00  0.0000E+00  0.0000E+00  0.0000E+00  0.0000E+00  0.0000E+00  0.0000E+00  0.0000E+00  0.0000E+00  0.0000E+00  0.0000E+00  0.0000E+00
    -11.404  0.0000E+00  0.0000E+00  0.0000E+00  0.0000E+00  0.0000E+00  0.0000E+00  0.0000E+00  0.0000E+00  0.0000E+00  0.0000E+00  0.0000E+00  0.0000E+00  0.0000E+00  0.0000E+00  0.0000E+00  0.0000E+00  0.0000E+00  0.0000E+00
    -11.300  0.0000E+00  0.0000E+00  0.0000E+00  0.0000E+00  0.0000E+00  0.0000E+00  0.0000E+00  0.0000E+00  0.0000E+00  0.0000E+00  0.0000E+00  0.0000E+00  0.0000E+00  0.0000E+00  0.0000E+00  0.0000E+00  0.0000E+00  0.0000E+00
    -11.196  0.0000E+00  0.0000E+00  0.0000E+00  0.0000E+00  0.0000E+00  0.0000E+00  0.0000E+00  0.0000E+00  0.0000E+00  0.0000E+00  0.0000E+00  0.0000E+00  0.0000E+00  0.0000E+00  0.0000E+00  0.0000E+00  0.0000E+00  0.0000E+00
    -11.092  0.0000E+00  0.0000E+00  0.0000E+00  0.0000E+00  0.0000E+00  0.0000E+00  0.0000E+00  0.0000E+00  0.0000E+00  0.0000E+00  0.0000E+00  0.0000E+00  0.0000E+00  0.0000E+00  0.0000E+00  0.0000E+00  0.0000E+00  0.0000E+00
    -10.987  0.0000E+00  0.0000E+00  0.0000E+00  0.0000E+00  0.0000E+00  0.0000E+00  0.0000E+00  0.0000E+00  0.0000E+00  0.0000E+00  0.0000E+00  0.0000E+00  0.0000E+00  0.0000E+00  0.0000E+00  0.0000E+00  0.0000E+00  0.0000E+00
    -10.883  0.0000E+00  0.0000E+00  0.0000E+00  0.0000E+00  0.0000E+00  0.0000E+00  0.0000E+00  0.0000E+00  0.0000E+00  0.0000E+00  0.0000E+00  0.0000E+00  0.0000E+00  0.0000E+00  0.0000E+00  0.0000E+00  0.0000E+00  0.0000E+00
    -10.779  0.0000E+00  0.0000E+00  0.0000E+00  0.0000E+00  0.0000E+00  0.0000E+00  0.0000E+00  0.0000E+00  0.0000E+00  0.0000E+00  0.0000E+00  0.0000E+00  0.0000E+00  0.0000E+00  0.0000E+00  0.0000E+00  0.0000E+00  0.0000E+00
    -10.675  0.0000E+00  0.0000E+00  0.0000E+00  0.0000E+00  0.0000E+00  0.0000E+00  0.0000E+00  0.0000E+00  0.0000E+00  0.0000E+00  0.0000E+00  0.0000E+00  0.0000E+00  0.0000E+00  0.0000E+00  0.0000E+00  0.0000E+00  0.0000E+00
    -10.571  0.0000E+00  0.0000E+00  0.0000E+00  0.0000E+00  0.0000E+00  0.0000E+00  0.0000E+00  0.0000E+00  0.0000E+00  0.0000E+00  0.0000E+00  0.0000E+00  0.0000E+00  0.0000E+00  0.0000E+00  0.0000E+00  0.0000E+00  0.0000E+00
    -10.467  0.0000E+00  0.0000E+00  0.0000E+00  0.0000E+00  0.0000E+00  0.0000E+00  0.0000E+00  0.0000E+00  0.0000E+00  0.0000E+00  0.0000E+00  0.0000E+00  0.0000E+00  0.0000E+00  0.0000E+00  0.0000E+00  0.0000E+00  0.0000E+00
    -10.363  0.0000E+00  0.0000E+00  0.0000E+00  0.0000E+00  0.0000E+00  0.0000E+00  0.0000E+00  0.0000E+00  0.0000E+00  0.0000E+00  0.0000E+00  0.0000E+00  0.0000E+00  0.0000E+00  0.0000E+00  0.0000E+00  0.0000E+00  0.0000E+00