  30  30   1   0
  0.6372921E+01  0.4324525E-09  0.4324525E-09  0.1180463E-08  0.5000000E-15
  1.000000000000000E-004
  CAR 
 unknown system                          
     28.80561323    -13.81670357  301     10.90479516      1.00000000
    -13.817  0.0000E+00  0.0000E+00  0.0000E+00  0.0000E+00
    -13.675  0.0000E+00  0.0000E+00  0.0000E+00  0.0000E+00
    -13.533  0.0000E+00  0.0000E+00  0.0000E+00  0.0000E+00
    -13.390  0.0000E+00  0.0000E+00  0.0000E+00  0.0000E+00
    -13.248  0.0000E+00  0.0000E+00  0.0000E+00  0.0000E+00
    -13.106  0.0000E+00  0.0000E+00  0.0000E+00  0.0000E+00
    -12.964  0.0000E+00  0.0000E+00  0.0000E+00  0.0000E+00
    -12.822  0.0000E+00  0.0000E+00  0.0000E+00  0.0000E+00
    -12.680  0.0000E+00  0.0000E+00  0.0000E+00  0.0000E+00
    -12.538  0.0000E+00  0.0000E+00  0.0000E+00  0.0000E+00
    -12.396  0.9126E-05  0.9164E-05  0.1297E-05  0.1302E-05
    -12.254  0.1472E-03  0.1478E-03  0.2221E-04  0.2231E-04
    -12.112  0.2576E-02  0.2587E-02  0.3882E-03  0.3899E-03
    -11.970  0.3814E-01  0.3828E-01  0.5807E-02  0.5828E-02
    -11.828  0.1895E+00  0.1897E+00  0.3273E-01  0.3278E-01
    -11.686  0.3728E+00  0.3737E+00  0.8569E-01  0.8587E-01
    -11.544  0.1161E+01  0.1162E+01  0.2507E+00  0.2509E+00
    -11.401  0.5840E+00  0.5832E+00  0.3337E+00  0.3338E+00
    -11.259  0.9807E+00  0.9823E+00  0.4731E+00  0.4734E+00
    -11.117  0.1266E+01  0.1266E+01  0.6533E+00  0.6537E+00
    -10.975  0.1139E+01  0.1138E+01  0.8151E+00  0.8153E+00
    -10.833  0.1733E+01  0.1737E+01  0.1062E+01  0.1063E+01
    -10.691  0.2236E+01  0.2235E+01  0.1381E+01  0.1381E+01
    -10.549  0.2082E+01  0.2082E+01  0.1677E+01  0.1677E+01
    -10.407  0.8903E+00  0.8880E+00  0.1804E+01  0.1804E+01
    -10.265  0.1337E+01  0.1344E+01  0.1994E+01  0.1995E+01
    -10.123  0.3954E+01  0.3956E+01  0.2556E+01  0.2557E+01
     -9.981  0.3169E+01  0.3167E+01  0.3006E+01  0.3007E+01
     -9.839  0.3094E+01  0.3094E+01  0.3446E+01  0.3447E+01
     -9.697  0.2067E+01  0.2063E+01  0.3740E+01  0.3741E+01
     -9.554  0.1956E+01  0.1961E+01  0.4019E+01  0.4020E+01
     -9.412  0.2437E+01  0.2433E+01  0.4366E+01  0.4366E+01
     -9.270  0.1894E+01  0.1895E+01  0.4635E+01  0.4636E+01
     -9.128  0.2346E+01  0.2350E+01  0.4970E+01  0.4972E+01
     -8.986  0.3865E+01  0.3869E+01  0.5519E+01  0.5521E+01
     -8.844  0.3507E+01  0.3502E+01  0.6018E+01  0.6019E+01
     -8.702  0.3310E+01  0.3315E+01  0.6489E+01  0.6491E+01
     -8.560  0.4200E+01  0.4202E+01  0.7087E+01  0.7089E+01
     -8.418  0.5765E+01  0.5777E+01  0.7906E+01  0.7910E+01
     -8.276  0.7614E+01  0.7616E+01  0.8989E+01  0.8994E+01
     -8.134  0.6497E+01  0.6489E+01  0.9913E+01  0.9916E+01
     -7.992  0.6023E+01  0.6032E+01  0.1077E+02  0.1078E+02
     -7.850  0.8554E+01  0.8571E+01  0.1199E+02  0.1200E+02
     -7.708  0.9964E+01  0.9953E+01  0.1341E+02  0.1341E+02
     -7.565  0.7674E+01  0.7679E+01  0.1450E+02  0.1450E+02
     -7.423  0.9553E+01  0.9561E+01  0.1586E+02  0.1587E+02
     -7.281  0.1012E+02  0.1011E+02  0.1730E+02  0.1730E+02
     -7.139  0.4465E+01  0.4428E+01  0.1794E+02  0.1794E+02
     -6.997  0.4137E+00  0.4082E+00  0.1800E+02  0.1800E+02
     -6.855  0.0000E+00  0.0000E+00  0.1800E+02  0.1800E+02
     -6.713  0.0000E+00  0.0000E+00  0.1800E+02  0.1800E+02
     -6.571  0.0000E+00  0.0000E+00  0.1800E+02  0.1800E+02
     -6.429  0.0000E+00  0.0000E+00  0.1800E+02  0.1800E+02
     -6.287  0.0000E+00  0.0000E+00  0.1800E+02  0.1800E+02
     -6.145  0.0000E+00  0.0000E+00  0.1800E+02  0.1800E+02
     -6.003  0.0000E+00  0.0000E+00  0.1800E+02  0.1800E+02
     -5.861  0.0000E+00  0.0000E+00  0.1800E+02  0.1800E+02
     -5.718  0.0000E+00  0.0000E+00  0.1800E+02  0.1800E+02
     -5.576  0.0000E+00  0.0000E+00  0.1800E+02  0.1800E+02
     -5.434  0.0000E+00  0.0000E+00  0.1800E+02  0.1800E+02
     -5.292  0.0000E+00  0.0000E+00  0.1800E+02  0.1800E+02
     -5.150  0.0000E+00  0.0000E+00  0.1800E+02  0.1800E+02
     -5.008  0.0000E+00  0.0000E+00  0.1800E+02  0.1800E+02
     -4.866  0.0000E+00  0.0000E+00  0.1800E+02  0.1800E+02
     -4.724  0.0000E+00  0.0000E+00  0.1800E+02  0.1800E+02
     -4.582  0.0000E+00  0.0000E+00  0.1800E+02  0.1800E+02
     -4.440  0.0000E+00  0.0000E+00  0.1800E+02  0.1800E+02
     -4.298  0.0000E+00  0.0000E+00  0.1800E+02  0.1800E+02
     -4.156  0.0000E+00  0.0000E+00  0.1800E+02  0.1800E+02
     -4.014  0.0000E+00  0.0000E+00  0.1800E+02  0.1800E+02
     -3.871  0.0000E+00  0.0000E+00  0.1800E+02  0.1800E+02
     -3.729  0.0000E+00  0.0000E+00  0.1800E+02  0.1800E+02
     -3.587  0.0000E+00  0.0000E+00  0.1800E+02  0.1800E+02
     -3.445  0.0000E+00  0.0000E+00  0.1800E+02  0.1800E+02
     -3.303  0.0000E+00  0.0000E+00  0.1800E+02  0.1800E+02
     -3.161  0.0000E+00  0.0000E+00  0.1800E+02  0.1800E+02
     -3.019  0.0000E+00  0.0000E+00  0.1800E+02  0.1800E+02
     -2.877  0.0000E+00  0.0000E+00  0.1800E+02  0.1800E+02
     -2.735  0.0000E+00  0.0000E+00  0.1800E+02  0.1800E+02
     -2.593  0.0000E+00  0.0000E+00  0.1800E+02  0.1800E+02
     -2.451  0.0000E+00  0.0000E+00  0.1800E+02  0.1800E+02
     -2.309  0.0000E+00  0.0000E+00  0.1800E+02  0.1800E+02
     -2.167  0.0000E+00  0.0000E+00  0.1800E+02  0.1800E+02
     -2.025  0.0000E+00  0.0000E+00  0.1800E+02  0.1800E+02
     -1.882  0.0000E+00  0.0000E+00  0.1800E+02  0.1800E+02
     -1.740  0.0000E+00  0.0000E+00  0.1800E+02  0.1800E+02
     -1.598  0.0000E+00  0.0000E+00  0.1800E+02  0.1800E+02
     -1.456  0.0000E+00  0.0000E+00  0.1800E+02  0.1800E+02
     -1.314  0.0000E+00  0.0000E+00  0.1800E+02  0.1800E+02
     -1.172  0.0000E+00  0.0000E+00  0.1800E+02  0.1800E+02
     -1.030  0.0000E+00  0.0000E+00  0.1800E+02  0.1800E+02
     -0.888  0.0000E+00  0.0000E+00  0.1800E+02  0.1800E+02
     -0.746  0.0000E+00  0.0000E+00  0.1800E+02  0.1800E+02
     -0.604  0.0000E+00  0.0000E+00  0.1800E+02  0.1800E+02
     -0.462  0.0000E+00  0.0000E+00  0.1800E+02  0.1800E+02
     -0.320  0.0000E+00  0.0000E+00  0.1800E+02  0.1800E+02
     -0.178  0.0000E+00  0.0000E+00  0.1800E+02  0.1800E+02
     -0.035  0.0000E+00  0.0000E+00  0.1800E+02  0.1800E+02
      0.107  0.0000E+00  0.0000E+00  0.1800E+02  0.1800E+02
      0.249  0.0000E+00  0.0000E+00  0.1800E+02  0.1800E+02
      0.391  0.0000E+00  0.0000E+00  0.1800E+02  0.1800E+02
      0.533  0.0000E+00  0.0000E+00  0.1800E+02  0.1800E+02
      0.675  0.0000E+00  0.0000E+00  0.1800E+02  0.1800E+02
      0.817  0.7570E-05  0.7564E-05  0.1800E+02  0.1800E+02
      0.959  0.1460E-03  0.1459E-03  0.1800E+02  0.1800E+02
      1.101  0.2815E-02  0.2813E-02  0.1800E+02  0.1800E+02
      1.243  0.4394E-01  0.4391E-01  0.1801E+02  0.1801E+02
      1.385  0.3575E+00  0.3573E+00  0.1806E+02  0.1806E+02
      1.527  0.1362E+01  0.1362E+01  0.1825E+02  0.1825E+02
      1.669  0.1824E+01  0.1824E+01  0.1851E+02  0.1851E+02
      1.811  0.2169E+01  0.2169E+01  0.1882E+02  0.1882E+02
      1.954  0.3642E+01  0.3642E+01  0.1934E+02  0.1934E+02
      2.096  0.5383E+01  0.5383E+01  0.2010E+02  0.2010E+02
      2.238  0.6199E+01  0.6200E+01  0.2098E+02  0.2098E+02
      2.380  0.5340E+01  0.5341E+01  0.2174E+02  0.2174E+02
      2.522  0.6289E+01  0.6290E+01  0.2264E+02  0.2264E+02
      2.664  0.6999E+01  0.7000E+01  0.2363E+02  0.2363E+02
      2.806  0.6793E+01  0.6793E+01  0.2460E+02  0.2460E+02
      2.948  0.4627E+01  0.4626E+01  0.2526E+02  0.2526E+02
      3.090  0.4920E+01  0.4920E+01  0.2596E+02  0.2596E+02
      3.232  0.4557E+01  0.4558E+01  0.2661E+02  0.2661E+02
      3.374  0.5770E+01  0.5771E+01  0.2743E+02  0.2743E+02
      3.516  0.7547E+01  0.7548E+01  0.2850E+02  0.2850E+02
      3.658  0.7004E+01  0.7003E+01  0.2950E+02  0.2950E+02
      3.801  0.4746E+01  0.4746E+01  0.3017E+02  0.3017E+02
      3.943  0.3919E+01  0.3921E+01  0.3073E+02  0.3073E+02
      4.085  0.4434E+01  0.4434E+01  0.3136E+02  0.3136E+02
      4.227  0.4039E+01  0.4038E+01  0.3194E+02  0.3194E+02
      4.369  0.4956E+01  0.4957E+01  0.3264E+02  0.3265E+02
      4.511  0.6567E+01  0.6570E+01  0.3358E+02  0.3358E+02
      4.653  0.6253E+01  0.6255E+01  0.3447E+02  0.3447E+02
      4.795  0.5495E+01  0.5493E+01  0.3525E+02  0.3525E+02
      4.937  0.4572E+01  0.4571E+01  0.3591E+02  0.3591E+02
      5.079  0.3204E+01  0.3204E+01  0.3637E+02  0.3637E+02
      5.221  0.3377E+01  0.3378E+01  0.3685E+02  0.3685E+02
      5.363  0.4214E+01  0.4217E+01  0.3745E+02  0.3745E+02
      5.505  0.6085E+01  0.6087E+01  0.3831E+02  0.3831E+02
      5.647  0.5499E+01  0.5498E+01  0.3909E+02  0.3909E+02
      5.790  0.3750E+01  0.3745E+01  0.3963E+02  0.3963E+02
      5.932  0.3024E+01  0.3028E+01  0.4006E+02  0.4006E+02
      6.074  0.3167E+01  0.3165E+01  0.4051E+02  0.4051E+02
      6.216  0.3917E+01  0.3922E+01  0.4107E+02  0.4107E+02
      6.358  0.5265E+01  0.5266E+01  0.4182E+02  0.4182E+02
      6.500  0.5483E+01  0.5486E+01  0.4260E+02  0.4260E+02
      6.642  0.7924E+01  0.7930E+01  0.4372E+02  0.4373E+02
      6.784  0.9306E+01  0.9311E+01  0.4505E+02  0.4505E+02
      6.926  0.9354E+01  0.9351E+01  0.4638E+02  0.4638E+02
      7.068  0.6609E+01  0.6605E+01  0.4732E+02  0.4732E+02
      7.210  0.7481E+01  0.7488E+01  0.4838E+02  0.4839E+02
      7.352  0.8282E+01  0.8283E+01  0.4956E+02  0.4957E+02
      7.494  0.9427E+01  0.9436E+01  0.5090E+02  0.5091E+02
      7.637  0.1022E+02  0.1022E+02  0.5236E+02  0.5236E+02
      7.779  0.7412E+01  0.7409E+01  0.5341E+02  0.5342E+02
      7.921  0.9401E+01  0.9423E+01  0.5475E+02  0.5476E+02
      8.063  0.1408E+02  0.1408E+02  0.5676E+02  0.5676E+02
      8.205  0.1246E+02  0.1246E+02  0.5853E+02  0.5854E+02
      8.347  0.1258E+02  0.1257E+02  0.6032E+02  0.6032E+02
      8.489  0.8675E+01  0.8666E+01  0.6155E+02  0.6156E+02
      8.631  0.8605E+01  0.8613E+01  0.6278E+02  0.6279E+02
      8.773  0.1104E+02  0.1104E+02  0.6435E+02  0.6436E+02
      8.915  0.9006E+01  0.9002E+01  0.6563E+02  0.6564E+02
      9.057  0.8217E+01  0.8209E+01  0.6680E+02  0.6681E+02
      9.199  0.6995E+01  0.7002E+01  0.6780E+02  0.6780E+02
      9.341  0.9582E+01  0.9596E+01  0.6916E+02  0.6917E+02
      9.483  0.9572E+01  0.9557E+01  0.7052E+02  0.7053E+02
      9.626  0.5302E+01  0.5285E+01  0.7128E+02  0.7128E+02
      9.768  0.3590E+01  0.3582E+01  0.7179E+02  0.7179E+02
      9.910  0.1309E+01  0.1297E+01  0.7198E+02  0.7198E+02
     10.052  0.1329E+00  0.1310E+00  0.7200E+02  0.7200E+02
     10.194  0.3751E-02  0.3694E-02  0.7200E+02  0.7200E+02
     10.336  0.0000E+00  0.0000E+00  0.7200E+02  0.7200E+02
     10.478  0.0000E+00  0.0000E+00  0.7200E+02  0.7200E+02
     10.620  0.0000E+00  0.0000E+00  0.7200E+02  0.7200E+02
     10.762  0.0000E+00  0.0000E+00  0.7200E+02  0.7200E+02
     10.904  0.0000E+00  0.0000E+00  0.7200E+02  0.7200E+02
     11.046  0.0000E+00  0.0000E+00  0.7200E+02  0.7200E+02
     11.188  0.0000E+00  0.0000E+00  0.7200E+02  0.7200E+02
     11.330  0.0000E+00  0.0000E+00  0.7200E+02  0.7200E+02
     11.473  0.0000E+00  0.0000E+00  0.7200E+02  0.7200E+02
     11.615  0.0000E+00  0.0000E+00  0.7200E+02  0.7200E+02
     11.757  0.0000E+00  0.0000E+00  0.7200E+02  0.7200E+02
     11.899  0.0000E+00  0.0000E+00  0.7200E+02  0.7200E+02
     12.041  0.0000E+00  0.0000E+00  0.7200E+02  0.7200E+02
     12.183  0.0000E+00  0.0000E+00  0.7200E+02  0.7200E+02
     12.325  0.0000E+00  0.0000E+00  0.7200E+02  0.7200E+02
     12.467  0.0000E+00  0.0000E+00  0.7200E+02  0.7200E+02
     12.609  0.0000E+00  0.0000E+00  0.7200E+02  0.7200E+02
     12.751  0.0000E+00  0.0000E+00  0.7200E+02  0.7200E+02
     12.893  0.0000E+00  0.0000E+00  0.7200E+02  0.7200E+02
     13.035  0.0000E+00  0.0000E+00  0.7200E+02  0.7200E+02
     13.177  0.0000E+00  0.0000E+00  0.7200E+02  0.7200E+02
     13.320  0.0000E+00  0.0000E+00  0.7200E+02  0.7200E+02
     13.462  0.0000E+00  0.0000E+00  0.7200E+02  0.7200E+02
     13.604  0.0000E+00  0.0000E+00  0.7200E+02  0.7200E+02
     13.746  0.0000E+00  0.0000E+00  0.7200E+02  0.7200E+02
     13.888  0.0000E+00  0.0000E+00  0.7200E+02  0.7200E+02
     14.030  0.0000E+00  0.0000E+00  0.7200E+02  0.7200E+02
     14.172  0.0000E+00  0.0000E+00  0.7200E+02  0.7200E+02
     14.314  0.0000E+00  0.0000E+00  0.7200E+02  0.7200E+02
     14.456  0.0000E+00  0.0000E+00  0.7200E+02  0.7200E+02
     14.598  0.0000E+00  0.0000E+00  0.7200E+02  0.7200E+02
     14.740  0.0000E+00  0.0000E+00  0.7200E+02  0.7200E+02
     14.882  0.0000E+00  0.0000E+00  0.7200E+02  0.7200E+02
     15.024  0.0000E+00  0.0000E+00  0.7200E+02  0.7200E+02
     15.166  0.0000E+00  0.0000E+00  0.7200E+02  0.7200E+02
     15.309  0.0000E+00  0.0000E+00  0.7200E+02  0.7200E+02
     15.451  0.0000E+00  0.0000E+00  0.7200E+02  0.7200E+02
     15.593  0.0000E+00  0.0000E+00  0.7200E+02  0.7200E+02
     15.735  0.0000E+00  0.0000E+00  0.7200E+02  0.7200E+02
     15.877  0.0000E+00  0.0000E+00  0.7200E+02  0.7200E+02
     16.019  0.0000E+00  0.0000E+00  0.7200E+02  0.7200E+02
     16.161  0.0000E+00  0.0000E+00  0.7200E+02  0.7200E+02
     16.303  0.0000E+00  0.0000E+00  0.7200E+02  0.7200E+02
     16.445  0.0000E+00  0.0000E+00  0.7200E+02  0.7200E+02
     16.587  0.0000E+00  0.0000E+00  0.7200E+02  0.7200E+02
     16.729  0.0000E+00  0.0000E+00  0.7200E+02  0.7200E+02
     16.871  0.0000E+00  0.0000E+00  0.7200E+02  0.7200E+02
     17.013  0.0000E+00  0.0000E+00  0.7200E+02  0.7200E+02
     17.156  0.0000E+00  0.0000E+00  0.7200E+02  0.7200E+02
     17.298  0.0000E+00  0.0000E+00  0.7200E+02  0.7200E+02
     17.440  0.0000E+00  0.0000E+00  0.7200E+02  0.7200E+02
     17.582  0.0000E+00  0.0000E+00  0.7200E+02  0.7200E+02
     17.724  0.0000E+00  0.0000E+00  0.7200E+02  0.7200E+02
     17.866  0.0000E+00  0.0000E+00  0.7200E+02  0.7200E+02
     18.008  0.0000E+00  0.0000E+00  0.7200E+02  0.7200E+02
     18.150  0.0000E+00  0.0000E+00  0.7200E+02  0.7200E+02
     18.292  0.0000E+00  0.0000E+00  0.7200E+02  0.7200E+02
     18.434  0.0000E+00  0.0000E+00  0.7200E+02  0.7200E+02
     18.576  0.0000E+00  0.0000E+00  0.7200E+02  0.7200E+02
     18.718  0.0000E+00  0.0000E+00  0.7200E+02  0.7200E+02
     18.860  0.0000E+00  0.0000E+00  0.7200E+02  0.7200E+02
     19.002  0.0000E+00  0.0000E+00  0.7200E+02  0.7200E+02
     19.145  0.0000E+00  0.0000E+00  0.7200E+02  0.7200E+02
     19.287  0.0000E+00  0.0000E+00  0.7200E+02  0.7200E+02
     19.429  0.0000E+00  0.0000E+00  0.7200E+02  0.7200E+02
     19.571  0.3391E-04  0.3308E-04  0.7200E+02  0.7200E+02
     19.713  0.5462E-03  0.5329E-03  0.7200E+02  0.7200E+02
     19.855  0.9044E-02  0.8830E-02  0.7200E+02  0.7200E+02
     19.997  0.9671E-01  0.9529E-01  0.7202E+02  0.7201E+02
     20.139  0.1508E+00  0.1519E+00  0.7204E+02  0.7204E+02
     20.281  0.2844E-01  0.2882E-01  0.7204E+02  0.7204E+02
     20.423  0.7358E-01  0.7347E-01  0.7205E+02  0.7205E+02
     20.565  0.3759E+00  0.3717E+00  0.7210E+02  0.7210E+02
     20.707  0.1138E+01  0.1132E+01  0.7227E+02  0.7226E+02
     20.849  0.1583E+01  0.1572E+01  0.7249E+02  0.7249E+02
     20.992  0.2282E+01  0.2284E+01  0.7282E+02  0.7281E+02
     21.134  0.2579E+01  0.2569E+01  0.7318E+02  0.7318E+02
     21.276  0.3226E+01  0.3214E+01  0.7364E+02  0.7364E+02
     21.418  0.4096E+01  0.4100E+01  0.7422E+02  0.7422E+02
     21.560  0.4028E+01  0.4007E+01  0.7480E+02  0.7479E+02
     21.702  0.5712E+01  0.5714E+01  0.7561E+02  0.7560E+02
     21.844  0.4969E+01  0.4971E+01  0.7632E+02  0.7631E+02
     21.986  0.5883E+01  0.5862E+01  0.7715E+02  0.7714E+02
     22.128  0.7178E+01  0.7203E+01  0.7817E+02  0.7817E+02
     22.270  0.4235E+01  0.4252E+01  0.7878E+02  0.7877E+02
     22.412  0.3820E+01  0.3828E+01  0.7932E+02  0.7932E+02
     22.554  0.3215E+01  0.3209E+01  0.7978E+02  0.7978E+02
     22.696  0.2794E+01  0.2810E+01  0.8018E+02  0.8018E+02
     22.838  0.2961E+01  0.2947E+01  0.8060E+02  0.8060E+02
     22.981  0.5486E+01  0.5469E+01  0.8138E+02  0.8138E+02
     23.123  0.4785E+01  0.4801E+01  0.8206E+02  0.8206E+02
     23.265  0.4805E+01  0.4791E+01  0.8274E+02  0.8274E+02
     23.407  0.5472E+01  0.5487E+01  0.8352E+02  0.8352E+02
     23.549  0.5621E+01  0.5611E+01  0.8432E+02  0.8432E+02
     23.691  0.7146E+01  0.7142E+01  0.8534E+02  0.8534E+02
     23.833  0.8391E+01  0.8382E+01  0.8653E+02  0.8653E+02
     23.975  0.8817E+01  0.8822E+01  0.8779E+02  0.8779E+02
     24.117  0.7223E+01  0.7235E+01  0.8882E+02  0.8881E+02
     24.259  0.7496E+01  0.7571E+01  0.8989E+02  0.8989E+02
     24.401  0.8947E+01  0.8972E+01  0.9116E+02  0.9117E+02
     24.543  0.7877E+01  0.7774E+01  0.9228E+02  0.9228E+02
     24.685  0.6312E+01  0.6380E+01  0.9318E+02  0.9318E+02
     24.828  0.5408E+01  0.5500E+01  0.9395E+02  0.9397E+02
     24.970  0.4958E+01  0.5753E+01  0.9466E+02  0.9479E+02
     25.112  0.5689E+01  0.5533E+01  0.9547E+02  0.9558E+02
     25.254  0.7757E+01  0.7361E+01  0.9657E+02  0.9662E+02
     25.396  0.6881E+01  0.7129E+01  0.9755E+02  0.9764E+02
     25.538  0.3895E+01  0.4430E+01  0.9810E+02  0.9827E+02
     25.680  0.1909E+01  0.2234E+01  0.9838E+02  0.9859E+02
     25.822  0.2297E+01  0.2035E+01  0.9870E+02  0.9888E+02
     25.964  0.4044E+01  0.2767E+01  0.9928E+02  0.9928E+02
     26.106  0.2622E+01  0.1994E+01  0.9965E+02  0.9956E+02
     26.248  0.1239E+01  0.1165E+01  0.9983E+02  0.9973E+02
     26.390  0.4858E+00  0.5515E+00  0.9990E+02  0.9981E+02
     26.532  0.1274E+00  0.6344E+00  0.9992E+02  0.9990E+02
     26.674  0.5038E-01  0.2110E+00  0.9993E+02  0.9993E+02
     26.817  0.2353E+00  0.2572E+00  0.9996E+02  0.9996E+02
     26.959  0.2381E+00  0.2224E+00  0.9999E+02  0.9999E+02
     27.101  0.4258E-01  0.3804E-01  0.1000E+03  0.1000E+03
     27.243  0.2510E-02  0.2262E-02  0.1000E+03  0.1000E+03
     27.385  0.0000E+00  0.0000E+00  0.1000E+03  0.1000E+03
     27.527  0.0000E+00  0.0000E+00  0.1000E+03  0.1000E+03
     27.669  0.0000E+00  0.0000E+00  0.1000E+03  0.1000E+03
     27.811  0.0000E+00  0.0000E+00  0.1000E+03  0.1000E+03
     27.953  0.0000E+00  0.0000E+00  0.1000E+03  0.1000E+03
     28.095  0.0000E+00  0.0000E+00  0.1000E+03  0.1000E+03
     28.237  0.0000E+00  0.0000E+00  0.1000E+03  0.1000E+03
     28.379  0.0000E+00  0.0000E+00  0.1000E+03  0.1000E+03
     28.521  0.0000E+00  0.0000E+00  0.1000E+03  0.1000E+03
     28.664  0.0000E+00  0.0000E+00  0.1000E+03  0.1000E+03
     28.806  0.0000E+00  0.0000E+00  0.1000E+03  0.1000E+03
     28.80561323    -13.81670357  301     10.90479516      1.00000000
    -13.817  0.0000E+00  0.0000E+00  0.0000E+00  0.0000E+00  0.0000E+00  0.0000E+00  0.0000E+00  0.0000E+00  0.0000E+00  0.0000E+00  0.0000E+00  0.0000E+00  0.0000E+00  0.0000E+00  0.0000E+00  0.0000E+00  0.0000E+00  0.0000E+00
    -13.675  0.0000E+00  0.0000E+00  0.0000E+00  0.0000E+00  0.0000E+00  0.0000E+00  0.0000E+00  0.0000E+00  0.0000E+00  0.0000E+00  0.0000E+00  0.0000E+00  0.0000E+00  0.0000E+00  0.0000E+00  0.0000E+00  0.0000E+00  0.0000E+00
    -13.533  0.0000E+00  0.0000E+00  0.0000E+00  0.0000E+00  0.0000E+00  0.0000E+00  0.0000E+00  0.0000E+00  0.0000E+00  0.0000E+00  0.0000E+00  0.0000E+00  0.0000E+00  0.0000E+00  0.0000E+00  0.0000E+00  0.0000E+00  0.0000E+00
    -13.390  0.0000E+00  0.0000E+00  0.0000E+00  0.0000E+00  0.0000E+00  0.0000E+00  0.0000E+00  0.0000E+00  0.0000E+00  0.0000E+00  0.0000E+00  0.0000E+00  0.0000E+00  0.0000E+00  0.0000E+00  0.0000E+00  0.0000E+00  0.0000E+00
    -13.248  0.0000E+00  0.0000E+00  0.0000E+00  0.0000E+00  0.0000E+00  0.0000E+00  0.0000E+00  0.0000E+00  0.0000E+00  0.0000E+00  0.0000E+00  0.0000E+00  0.0000E+00  0.0000E+00  0.0000E+00  0.0000E+00  0.0000E+00  0.0000E+00
    -13.106  0.0000E+00  0.0000E+00  0.0000E+00  0.0000E+00  0.0000E+00  0.0000E+00  0.0000E+00  0.0000E+00  0.0000E+00  0.0000E+00  0.0000E+00  0.0000E+00  0.0000E+00  0.0000E+00  0.0000E+00  0.0000E+00  0.0000E+00  0.0000E+00
    -12.964  0.0000E+00  0.0000E+00  0.0000E+00  0.0000E+00  0.0000E+00  0.0000E+00  0.0000E+00  0.0000E+00  0.0000E+00  0.0000E+00  0.0000E+00  0.0000E+00  0.0000E+00  0.0000E+00  0.0000E+00  0.0000E+00  0.0000E+00  0.0000E+00
    -12.822  0.0000E+00  0.0000E+00  0.0000E+00  0.0000E+00  0.0000E+00  0.0000E+00  0.0000E+00  0.0000E+00  0.0000E+00  0.0000E+00  0.0000E+00  0.0000E+00  0.0000E+00  0.0000E+00  0.0000E+00  0.0000E+00  0.0000E+00  0.0000E+00
    -12.680  0.0000E+00  0.0000E+00  0.0000E+00  0.0000E+00  0.0000E+00  0.0000E+00  0.0000E+00  0.0000E+00  0.0000E+00  0.0000E+00  0.0000E+00  0.0000E+00  0.0000E+00  0.0000E+00  0.0000E+00  0.0000E+00  0.0000E+00  0.0000E+00
    -12.538  0.0000E+00  0.0000E+00  0.0000E+00  0.0000E+00  0.0000E+00  0.0000E+00  0.0000E+00  0.0000E+00  0.0000E+00  0.0000E+00  0.0000E+00  0.0000E+00  0.0000E+00  0.0000E+00  0.0000E+00  0.0000E+00  0.0000E+00  0.0000E+00
    -12.396  0.1010E-06  0.1014E-06  0.2753E-17  0.2894E-17  0.1088E-08  0.1093E-08  0.2753E-17  0.2894E-17  0.0000E+00  0.0000E+00  0.0000E+00  0.0000E+00  0.0000E+00  0.0000E+00  0.0000E+00  0.0000E+00  0.0000E+00  0.0000E+00
    -12.254  0.1630E-05  0.1636E-05  0.4441E-16  0.4669E-16  0.1755E-07  0.1763E-07  0.4441E-16  0.4669E-16  0.0000E+00  0.0000E+00  0.0000E+00  0.0000E+00  0.0000E+00  0.0000E+00  0.0000E+00  0.0000E+00  0.0000E+00  0.0000E+00
    -12.112  0.2846E-04  0.2858E-04  0.1728E-07  0.1736E-07  0.3079E-06  0.3093E-06  0.1728E-07  0.1736E-07  0.0000E+00  0.0000E+00  0.0000E+00  0.0000E+00  0.0000E+00  0.0000E+00  0.0000E+00  0.0000E+00  0.0000E+00  0.0000E+00
    -11.970  0.4212E-03  0.4227E-03  0.2787E-06  0.2800E-06  0.4584E-05  0.4601E-05  0.2787E-06  0.2800E-06  0.0000E+00  0.0000E+00  0.0000E+00  0.0000E+00  0.0000E+00  0.0000E+00  0.0000E+00  0.0000E+00  0.0000E+00  0.0000E+00
    -11.828  0.2083E-02  0.2084E-02  0.4715E-05  0.4737E-05  0.2320E-04  0.2323E-04  0.4715E-05  0.4737E-05  0.0000E+00  0.0000E+00  0.0000E+00  0.0000E+00  0.0000E+00  0.0000E+00  0.0000E+00  0.0000E+00  0.0000E+00  0.0000E+00
    -11.686  0.3912E-02  0.3921E-02  0.6598E-04  0.6623E-04  0.5407E-04  0.5423E-04  0.6598E-04  0.6623E-04  0.0000E+00  0.0000E+00  0.0000E+00  0.0000E+00  0.0000E+00  0.0000E+00  0.0000E+00  0.0000E+00  0.0000E+00  0.0000E+00
    -11.544  0.1203E-01  0.1203E-01  0.2351E-03  0.2351E-03  0.2123E-03  0.2125E-03  0.2351E-03  0.2351E-03  0.0000E+00  0.0000E+00  0.0000E+00  0.0000E+00  0.0000E+00  0.0000E+00  0.0000E+00  0.0000E+00  0.0000E+00  0.0000E+00
    -11.401  0.5939E-02  0.5929E-02  0.1017E-03  0.1015E-03  0.2032E-03  0.2033E-03  0.1017E-03  0.1015E-03  0.0000E+00  0.0000E+00  0.0000E+00  0.0000E+00  0.0000E+00  0.0000E+00  0.0000E+00  0.0000E+00  0.0000E+00  0.0000E+00
    -11.259  0.9405E-02  0.9419E-02  0.2328E-03  0.2332E-03  0.5568E-03  0.5576E-03  0.2328E-03  0.2332E-03  0.0000E+00  0.0000E+00  0.0000E+00  0.0000E+00  0.0000E+00  0.0000E+00  0.0000E+00  0.0000E+00  0.0000E+00  0.0000E+00
    -11.117  0.1176E-01  0.1176E-01  0.5490E-03  0.5498E-03  0.4835E-03  0.4827E-03  0.5490E-03  0.5498E-03  0.0000E+00  0.0000E+00  0.0000E+00  0.0000E+00  0.0000E+00  0.0000E+00  0.0000E+00  0.0000E+00  0.0000E+00  0.0000E+00
    -10.975  0.1015E-01  0.1014E-01  0.7054E-03  0.7050E-03  0.2856E-03  0.2857E-03  0.7054E-03  0.7050E-03  0.0000E+00  0.0000E+00  0.0000E+00  0.0000E+00  0.0000E+00  0.0000E+00  0.0000E+00  0.0000E+00  0.0000E+00  0.0000E+00
    -10.833  0.1457E-01  0.1460E-01  0.1132E-02  0.1134E-02  0.8051E-03  0.8069E-03  0.1132E-02  0.1134E-02  0.0000E+00  0.0000E+00  0.0000E+00  0.0000E+00  0.0000E+00  0.0000E+00  0.0000E+00  0.0000E+00  0.0000E+00  0.0000E+00
    -10.691  0.1844E-01  0.1843E-01  0.1252E-02  0.1250E-02  0.1581E-02  0.1583E-02  0.1252E-02  0.1250E-02  0.0000E+00  0.0000E+00  0.0000E+00  0.0000E+00  0.0000E+00  0.0000E+00  0.0000E+00  0.0000E+00  0.0000E+00  0.0000E+00
    -10.549  0.1657E-01  0.1656E-01  0.9911E-03  0.9913E-03  0.2091E-02  0.2089E-02  0.9911E-03  0.9913E-03  0.0000E+00  0.0000E+00  0.0000E+00  0.0000E+00  0.0000E+00  0.0000E+00  0.0000E+00  0.0000E+00  0.0000E+00  0.0000E+00
    -10.407  0.6824E-02  0.6803E-02  0.5927E-03  0.5915E-03  0.7127E-03  0.7105E-03  0.5927E-03  0.5915E-03  0.0000E+00  0.0000E+00  0.0000E+00  0.0000E+00  0.0000E+00  0.0000E+00  0.0000E+00  0.0000E+00  0.0000E+00  0.0000E+00
    -10.265  0.9044E-02  0.9083E-02  0.1210E-02  0.1215E-02  0.1067E-02  0.1072E-02  0.1210E-02  0.1215E-02  0.0000E+00  0.0000E+00  0.0000E+00  0.0000E+00  0.0000E+00  0.0000E+00  0.0000E+00  0.0000E+00  0.0000E+00  0.0000E+00
    -10.123  0.2618E-01  0.2619E-01  0.3910E-02  0.3912E-02  0.2796E-02  0.2797E-02  0.3910E-02  0.3912E-02  0.0000E+00  0.0000E+00  0.0000E+00  0.0000E+00  0.0000E+00  0.0000E+00  0.0000E+00  0.0000E+00  0.0000E+00  0.0000E+00
     -9.981  0.2009E-01  0.2008E-01  0.3044E-02  0.3042E-02  0.2752E-02  0.2754E-02  0.3044E-02  0.3042E-02  0.0000E+00  0.0000E+00  0.0000E+00  0.0000E+00  0.0000E+00  0.0000E+00  0.0000E+00  0.0000E+00  0.0000E+00  0.0000E+00
     -9.839  0.1821E-01  0.1820E-01  0.2870E-02  0.2868E-02  0.3734E-02  0.3737E-02  0.2870E-02  0.2868E-02  0.0000E+00  0.0000E+00  0.0000E+00  0.0000E+00  0.0000E+00  0.0000E+00  0.0000E+00  0.0000E+00  0.0000E+00  0.0000E+00
     -9.697  0.1147E-01  0.1144E-01  0.1669E-02  0.1666E-02  0.3386E-02  0.3380E-02  0.1669E-02  0.1666E-02  0.0000E+00  0.0000E+00  0.0000E+00  0.0000E+00  0.0000E+00  0.0000E+00  0.0000E+00  0.0000E+00  0.0000E+00  0.0000E+00
     -9.554  0.9606E-02  0.9627E-02  0.1923E-02  0.1928E-02  0.2952E-02  0.2959E-02  0.1923E-02  0.1928E-02  0.0000E+00  0.0000E+00  0.0000E+00  0.0000E+00  0.0000E+00  0.0000E+00  0.0000E+00  0.0000E+00  0.0000E+00  0.0000E+00
     -9.412  0.1127E-01  0.1125E-01  0.2847E-02  0.2845E-02  0.3179E-02  0.3173E-02  0.2847E-02  0.2845E-02  0.0000E+00  0.0000E+00  0.0000E+00  0.0000E+00  0.0000E+00  0.0000E+00  0.0000E+00  0.0000E+00  0.0000E+00  0.0000E+00
     -9.270  0.7393E-02  0.7392E-02  0.2587E-02  0.2587E-02  0.2532E-02  0.2535E-02  0.2587E-02  0.2587E-02  0.0000E+00  0.0000E+00  0.0000E+00  0.0000E+00  0.0000E+00  0.0000E+00  0.0000E+00  0.0000E+00  0.0000E+00  0.0000E+00
     -9.128  0.7935E-02  0.7943E-02  0.3219E-02  0.3225E-02  0.3647E-02  0.3653E-02  0.3219E-02  0.3225E-02  0.0000E+00  0.0000E+00  0.0000E+00  0.0000E+00  0.0000E+00  0.0000E+00  0.0000E+00  0.0000E+00  0.0000E+00  0.0000E+00
     -8.986  0.1198E-01  0.1198E-01  0.5148E-02  0.5152E-02  0.6546E-02  0.6556E-02  0.5148E-02  0.5152E-02  0.0000E+00  0.0000E+00  0.0000E+00  0.0000E+00  0.0000E+00  0.0000E+00  0.0000E+00  0.0000E+00  0.0000E+00  0.0000E+00
     -8.844  0.1001E-01  0.9990E-02  0.4485E-02  0.4479E-02  0.6496E-02  0.6485E-02  0.4485E-02  0.4479E-02  0.0000E+00  0.0000E+00  0.0000E+00  0.0000E+00  0.0000E+00  0.0000E+00  0.0000E+00  0.0000E+00  0.0000E+00  0.0000E+00
     -8.702  0.7829E-02  0.7833E-02  0.5311E-02  0.5324E-02  0.4292E-02  0.4289E-02  0.5311E-02  0.5324E-02  0.0000E+00  0.0000E+00  0.0000E+00  0.0000E+00  0.0000E+00  0.0000E+00  0.0000E+00  0.0000E+00  0.0000E+00  0.0000E+00
     -8.560  0.8136E-02  0.8129E-02  0.7756E-02  0.7757E-02  0.4100E-02  0.4107E-02  0.7756E-02  0.7757E-02  0.0000E+00  0.0000E+00  0.0000E+00  0.0000E+00  0.0000E+00  0.0000E+00  0.0000E+00  0.0000E+00  0.0000E+00  0.0000E+00
     -8.418  0.8255E-02  0.8261E-02  0.9785E-02  0.9805E-02  0.8025E-02  0.8041E-02  0.9785E-02  0.9805E-02  0.0000E+00  0.0000E+00  0.0000E+00  0.0000E+00  0.0000E+00  0.0000E+00  0.0000E+00  0.0000E+00  0.0000E+00  0.0000E+00
     -8.276  0.9017E-02  0.9015E-02  0.1416E-01  0.1416E-01  0.8480E-02  0.8469E-02  0.1416E-01  0.1416E-01  0.0000E+00  0.0000E+00  0.0000E+00  0.0000E+00  0.0000E+00  0.0000E+00  0.0000E+00  0.0000E+00  0.0000E+00  0.0000E+00
     -8.134  0.6898E-02  0.6884E-02  0.1208E-01  0.1207E-01  0.5614E-02  0.5604E-02  0.1208E-01  0.1207E-01  0.0000E+00  0.0000E+00  0.0000E+00  0.0000E+00  0.0000E+00  0.0000E+00  0.0000E+00  0.0000E+00  0.0000E+00  0.0000E+00
     -7.992  0.5535E-02  0.5540E-02  0.1017E-01  0.1018E-01  0.5253E-02  0.5262E-02  0.1017E-01  0.1018E-01  0.0000E+00  0.0000E+00  0.0000E+00  0.0000E+00  0.0000E+00  0.0000E+00  0.0000E+00  0.0000E+00  0.0000E+00  0.0000E+00
     -7.850  0.9867E-02  0.9899E-02  0.1098E-01  0.1099E-01  0.8207E-02  0.8228E-02  0.1098E-01  0.1099E-01  0.0000E+00  0.0000E+00  0.0000E+00  0.0000E+00  0.0000E+00  0.0000E+00  0.0000E+00  0.0000E+00  0.0000E+00  0.0000E+00
     -7.708  0.1172E-01  0.1169E-01  0.1060E-01  0.1058E-01  0.1056E-01  0.1054E-01  0.1060E-01  0.1058E-01  0.0000E+00  0.0000E+00  0.0000E+00  0.0000E+00  0.0000E+00  0.0000E+00  0.0000E+00  0.0000E+00  0.0000E+00  0.0000E+00
     -7.565  0.6465E-02  0.6462E-02  0.7868E-02  0.7864E-02  0.5931E-02  0.5926E-02  0.7868E-02  0.7864E-02  0.0000E+00  0.0000E+00  0.0000E+00  0.0000E+00  0.0000E+00  0.0000E+00  0.0000E+00  0.0000E+00  0.0000E+00  0.0000E+00
     -7.423  0.6902E-02  0.6899E-02  0.7229E-02  0.7224E-02  0.7982E-02  0.7994E-02  0.7229E-02  0.7224E-02  0.0000E+00  0.0000E+00  0.0000E+00  0.0000E+00  0.0000E+00  0.0000E+00  0.0000E+00  0.0000E+00  0.0000E+00  0.0000E+00
     -7.281  0.5903E-02  0.5896E-02  0.6143E-02  0.6136E-02  0.7565E-02  0.7551E-02  0.6143E-02  0.6136E-02  0.0000E+00  0.0000E+00  0.0000E+00  0.0000E+00  0.0000E+00  0.0000E+00  0.0000E+00  0.0000E+00  0.0000E+00  0.0000E+00
     -7.139  0.2525E-02  0.2504E-02  0.2505E-02  0.2483E-02  0.2953E-02  0.2928E-02  0.2505E-02  0.2483E-02  0.0000E+00  0.0000E+00  0.0000E+00  0.0000E+00  0.0000E+00  0.0000E+00  0.0000E+00  0.0000E+00  0.0000E+00  0.0000E+00
     -6.997  0.2271E-03  0.2240E-03  0.2282E-03  0.2252E-03  0.2666E-03  0.2630E-03  0.2282E-03  0.2252E-03  0.0000E+00  0.0000E+00  0.0000E+00  0.0000E+00  0.0000E+00  0.0000E+00  0.0000E+00  0.0000E+00  0.0000E+00  0.0000E+00
     -6.855  0.0000E+00  0.0000E+00  0.0000E+00  0.0000E+00  0.0000E+00  0.0000E+00  0.0000E+00  0.0000E+00  0.0000E+00  0.0000E+00  0.0000E+00  0.0000E+00  0.0000E+00  0.0000E+00  0.0000E+00  0.0000E+00  0.0000E+00  0.0000E+00
     -6.713  0.0000E+00  0.0000E+00  0.0000E+00  0.0000E+00  0.0000E+00  0.0000E+00  0.0000E+00  0.0000E+00  0.0000E+00  0.0000E+00  0.0000E+00  0.0000E+00  0.0000E+00  0.0000E+00  0.0000E+00  0.0000E+00  0.0000E+00  0.0000E+00