  30  30   1   0
  0.8742004E+01  0.4805028E-09  0.4805028E-09  0.1311625E-08  0.5000000E-15
  1.000000000000000E-004
  CAR 
 unknown system                          
     20.91283870    -14.79971923  301      6.98505736      1.00000000
    -14.800  0.0000E+00  0.0000E+00  0.0000E+00  0.0000E+00
    -14.681  0.0000E+00  0.0000E+00  0.0000E+00  0.0000E+00
    -14.562  0.0000E+00  0.0000E+00  0.0000E+00  0.0000E+00
    -14.443  0.0000E+00  0.0000E+00  0.0000E+00  0.0000E+00
    -14.324  0.0000E+00  0.0000E+00  0.0000E+00  0.0000E+00
    -14.205  0.0000E+00  0.0000E+00  0.0000E+00  0.0000E+00
    -14.085  0.0000E+00  0.0000E+00  0.0000E+00  0.0000E+00
    -13.966  0.0000E+00  0.0000E+00  0.0000E+00  0.0000E+00
    -13.847  0.0000E+00  0.0000E+00  0.0000E+00  0.0000E+00
    -13.728  0.0000E+00  0.0000E+00  0.0000E+00  0.0000E+00
    -13.609  0.5825E-04  0.5839E-04  0.6934E-05  0.6951E-05
    -13.490  0.6779E-03  0.6795E-03  0.8763E-04  0.8784E-04
    -13.371  0.7170E-02  0.7187E-02  0.9411E-03  0.9434E-03
    -13.252  0.6588E-01  0.6602E-01  0.8784E-02  0.8803E-02
    -13.133  0.2993E+00  0.2997E+00  0.4442E-01  0.4448E-01
    -13.014  0.8880E+00  0.8891E+00  0.1501E+00  0.1503E+00
    -12.895  0.1306E+01  0.1306E+01  0.3056E+00  0.3058E+00
    -12.776  0.1314E+01  0.1316E+01  0.4622E+00  0.4625E+00
    -12.657  0.1883E+01  0.1883E+01  0.6863E+00  0.6867E+00
    -12.538  0.2082E+01  0.2084E+01  0.9346E+00  0.9351E+00
    -12.419  0.3105E+01  0.3107E+01  0.1304E+01  0.1305E+01
    -12.300  0.2959E+01  0.2957E+01  0.1657E+01  0.1657E+01
    -12.181  0.2098E+01  0.2099E+01  0.1907E+01  0.1907E+01
    -12.062  0.4337E+01  0.4345E+01  0.2424E+01  0.2426E+01
    -11.943  0.5201E+01  0.5200E+01  0.3044E+01  0.3045E+01
    -11.824  0.4403E+01  0.4401E+01  0.3568E+01  0.3569E+01
    -11.705  0.3489E+01  0.3490E+01  0.3983E+01  0.3985E+01
    -11.586  0.3718E+01  0.3718E+01  0.4427E+01  0.4428E+01
    -11.467  0.3683E+01  0.3687E+01  0.4866E+01  0.4868E+01
    -11.348  0.5310E+01  0.5317E+01  0.5498E+01  0.5501E+01
    -11.228  0.5901E+01  0.5902E+01  0.6202E+01  0.6204E+01
    -11.109  0.7292E+01  0.7304E+01  0.7070E+01  0.7074E+01
    -10.990  0.1069E+02  0.1070E+02  0.8343E+01  0.8349E+01
    -10.871  0.1203E+02  0.1203E+02  0.9776E+01  0.9782E+01
    -10.752  0.1234E+02  0.1236E+02  0.1125E+02  0.1125E+02
    -10.633  0.1527E+02  0.1527E+02  0.1307E+02  0.1307E+02
    -10.514  0.1466E+02  0.1466E+02  0.1481E+02  0.1482E+02
    -10.395  0.1536E+02  0.1535E+02  0.1664E+02  0.1665E+02
    -10.276  0.9375E+01  0.9325E+01  0.1776E+02  0.1776E+02
    -10.157  0.1794E+01  0.1775E+01  0.1798E+02  0.1798E+02
    -10.038  0.1660E+00  0.1640E+00  0.1800E+02  0.1800E+02
     -9.919  0.0000E+00  0.0000E+00  0.1800E+02  0.1800E+02
     -9.800  0.0000E+00  0.0000E+00  0.1800E+02  0.1800E+02
     -9.681  0.0000E+00  0.0000E+00  0.1800E+02  0.1800E+02
     -9.562  0.0000E+00  0.0000E+00  0.1800E+02  0.1800E+02
     -9.443  0.0000E+00  0.0000E+00  0.1800E+02  0.1800E+02
     -9.324  0.0000E+00  0.0000E+00  0.1800E+02  0.1800E+02
     -9.205  0.0000E+00  0.0000E+00  0.1800E+02  0.1800E+02
     -9.086  0.0000E+00  0.0000E+00  0.1800E+02  0.1800E+02
     -8.967  0.0000E+00  0.0000E+00  0.1800E+02  0.1800E+02
     -8.848  0.0000E+00  0.0000E+00  0.1800E+02  0.1800E+02
     -8.729  0.0000E+00  0.0000E+00  0.1800E+02  0.1800E+02
     -8.610  0.0000E+00  0.0000E+00  0.1800E+02  0.1800E+02
     -8.491  0.0000E+00  0.0000E+00  0.1800E+02  0.1800E+02
     -8.371  0.0000E+00  0.0000E+00  0.1800E+02  0.1800E+02
     -8.252  0.0000E+00  0.0000E+00  0.1800E+02  0.1800E+02
     -8.133  0.0000E+00  0.0000E+00  0.1800E+02  0.1800E+02
     -8.014  0.0000E+00  0.0000E+00  0.1800E+02  0.1800E+02
     -7.895  0.0000E+00  0.0000E+00  0.1800E+02  0.1800E+02
     -7.776  0.0000E+00  0.0000E+00  0.1800E+02  0.1800E+02
     -7.657  0.0000E+00  0.0000E+00  0.1800E+02  0.1800E+02
     -7.538  0.0000E+00  0.0000E+00  0.1800E+02  0.1800E+02
     -7.419  0.0000E+00  0.0000E+00  0.1800E+02  0.1800E+02
     -7.300  0.0000E+00  0.0000E+00  0.1800E+02  0.1800E+02
     -7.181  0.0000E+00  0.0000E+00  0.1800E+02  0.1800E+02
     -7.062  0.0000E+00  0.0000E+00  0.1800E+02  0.1800E+02
     -6.943  0.0000E+00  0.0000E+00  0.1800E+02  0.1800E+02
     -6.824  0.0000E+00  0.0000E+00  0.1800E+02  0.1800E+02
     -6.705  0.0000E+00  0.0000E+00  0.1800E+02  0.1800E+02
     -6.586  0.0000E+00  0.0000E+00  0.1800E+02  0.1800E+02
     -6.467  0.0000E+00  0.0000E+00  0.1800E+02  0.1800E+02
     -6.348  0.0000E+00  0.0000E+00  0.1800E+02  0.1800E+02
     -6.229  0.0000E+00  0.0000E+00  0.1800E+02  0.1800E+02
     -6.110  0.0000E+00  0.0000E+00  0.1800E+02  0.1800E+02
     -5.991  0.0000E+00  0.0000E+00  0.1800E+02  0.1800E+02
     -5.872  0.0000E+00  0.0000E+00  0.1800E+02  0.1800E+02
     -5.753  0.0000E+00  0.0000E+00  0.1800E+02  0.1800E+02
     -5.633  0.0000E+00  0.0000E+00  0.1800E+02  0.1800E+02
     -5.514  0.0000E+00  0.0000E+00  0.1800E+02  0.1800E+02
     -5.395  0.0000E+00  0.0000E+00  0.1800E+02  0.1800E+02
     -5.276  0.0000E+00  0.0000E+00  0.1800E+02  0.1800E+02
     -5.157  0.0000E+00  0.0000E+00  0.1800E+02  0.1800E+02
     -5.038  0.0000E+00  0.0000E+00  0.1800E+02  0.1800E+02
     -4.919  0.0000E+00  0.0000E+00  0.1800E+02  0.1800E+02
     -4.800  0.0000E+00  0.0000E+00  0.1800E+02  0.1800E+02
     -4.681  0.0000E+00  0.0000E+00  0.1800E+02  0.1800E+02
     -4.562  0.0000E+00  0.0000E+00  0.1800E+02  0.1800E+02
     -4.443  0.0000E+00  0.0000E+00  0.1800E+02  0.1800E+02
     -4.324  0.0000E+00  0.0000E+00  0.1800E+02  0.1800E+02
     -4.205  0.0000E+00  0.0000E+00  0.1800E+02  0.1800E+02
     -4.086  0.0000E+00  0.0000E+00  0.1800E+02  0.1800E+02
     -3.967  0.0000E+00  0.0000E+00  0.1800E+02  0.1800E+02
     -3.848  0.0000E+00  0.0000E+00  0.1800E+02  0.1800E+02
     -3.729  0.0000E+00  0.0000E+00  0.1800E+02  0.1800E+02
     -3.610  0.0000E+00  0.0000E+00  0.1800E+02  0.1800E+02
     -3.491  0.0000E+00  0.0000E+00  0.1800E+02  0.1800E+02
     -3.372  0.0000E+00  0.0000E+00  0.1800E+02  0.1800E+02
     -3.253  0.0000E+00  0.0000E+00  0.1800E+02  0.1800E+02
     -3.134  0.0000E+00  0.0000E+00  0.1800E+02  0.1800E+02
     -3.015  0.0000E+00  0.0000E+00  0.1800E+02  0.1800E+02
     -2.896  0.0000E+00  0.0000E+00  0.1800E+02  0.1800E+02
     -2.776  0.0000E+00  0.0000E+00  0.1800E+02  0.1800E+02
     -2.657  0.0000E+00  0.0000E+00  0.1800E+02  0.1800E+02
     -2.538  0.0000E+00  0.0000E+00  0.1800E+02  0.1800E+02
     -2.419  0.0000E+00  0.0000E+00  0.1800E+02  0.1800E+02
     -2.300  0.0000E+00  0.0000E+00  0.1800E+02  0.1800E+02
     -2.181  0.0000E+00  0.0000E+00  0.1800E+02  0.1800E+02
     -2.062  0.0000E+00  0.0000E+00  0.1800E+02  0.1800E+02
     -1.943  0.0000E+00  0.0000E+00  0.1800E+02  0.1800E+02
     -1.824  0.0000E+00  0.0000E+00  0.1800E+02  0.1800E+02
     -1.705  0.0000E+00  0.0000E+00  0.1800E+02  0.1800E+02
     -1.586  0.0000E+00  0.0000E+00  0.1800E+02  0.1800E+02
     -1.467  0.0000E+00  0.0000E+00  0.1800E+02  0.1800E+02
     -1.348  0.1371E-04  0.1360E-04  0.1800E+02  0.1800E+02
     -1.229  0.1666E-03  0.1653E-03  0.1800E+02  0.1800E+02
     -1.110  0.2014E-02  0.1998E-02  0.1800E+02  0.1800E+02
     -0.991  0.2082E-01  0.2066E-01  0.1800E+02  0.1800E+02
     -0.872  0.1664E+00  0.1654E+00  0.1802E+02  0.1802E+02
     -0.753  0.6790E+00  0.6763E+00  0.1810E+02  0.1810E+02
     -0.634  0.1551E+01  0.1549E+01  0.1829E+02  0.1829E+02
     -0.515  0.1770E+01  0.1769E+01  0.1850E+02  0.1850E+02
     -0.396  0.2927E+01  0.2921E+01  0.1885E+02  0.1885E+02
     -0.277  0.5127E+01  0.5118E+01  0.1946E+02  0.1946E+02
     -0.158  0.8564E+01  0.8561E+01  0.2048E+02  0.2047E+02
     -0.039  0.6951E+01  0.6958E+01  0.2131E+02  0.2130E+02
      0.081  0.8518E+01  0.8509E+01  0.2232E+02  0.2232E+02
      0.200  0.9248E+01  0.9253E+01  0.2342E+02  0.2342E+02
      0.319  0.7724E+01  0.7729E+01  0.2434E+02  0.2434E+02
      0.438  0.5359E+01  0.5366E+01  0.2498E+02  0.2498E+02
      0.557  0.4629E+01  0.4629E+01  0.2553E+02  0.2553E+02
      0.676  0.5061E+01  0.5062E+01  0.2614E+02  0.2614E+02
      0.795  0.4770E+01  0.4770E+01  0.2671E+02  0.2670E+02
      0.914  0.6899E+01  0.6896E+01  0.2753E+02  0.2753E+02
      1.033  0.7282E+01  0.7284E+01  0.2840E+02  0.2839E+02
      1.152  0.6775E+01  0.6774E+01  0.2920E+02  0.2920E+02
      1.271  0.6657E+01  0.6661E+01  0.3000E+02  0.3000E+02
      1.390  0.3813E+01  0.3818E+01  0.3045E+02  0.3045E+02
      1.509  0.3420E+01  0.3417E+01  0.3086E+02  0.3086E+02
      1.628  0.5939E+01  0.5936E+01  0.3157E+02  0.3157E+02
      1.747  0.8338E+01  0.8339E+01  0.3256E+02  0.3256E+02
      1.866  0.8103E+01  0.8103E+01  0.3353E+02  0.3352E+02
      1.985  0.9478E+01  0.9478E+01  0.3466E+02  0.3465E+02
      2.104  0.7341E+01  0.7345E+01  0.3553E+02  0.3553E+02
      2.223  0.5227E+01  0.5229E+01  0.3615E+02  0.3615E+02
      2.342  0.4690E+01  0.4691E+01  0.3671E+02  0.3671E+02
      2.461  0.5794E+01  0.5795E+01  0.3740E+02  0.3740E+02
      2.580  0.5985E+01  0.5987E+01  0.3812E+02  0.3812E+02
      2.699  0.7559E+01  0.7559E+01  0.3902E+02  0.3902E+02
      2.818  0.5745E+01  0.5745E+01  0.3970E+02  0.3970E+02
      2.938  0.4602E+01  0.4603E+01  0.4025E+02  0.4025E+02
      3.057  0.5041E+01  0.5041E+01  0.4085E+02  0.4085E+02
      3.176  0.4883E+01  0.4886E+01  0.4144E+02  0.4144E+02
      3.295  0.7528E+01  0.7530E+01  0.4233E+02  0.4233E+02
      3.414  0.8143E+01  0.8146E+01  0.4330E+02  0.4330E+02
      3.533  0.1095E+02  0.1096E+02  0.4461E+02  0.4461E+02
      3.652  0.1390E+02  0.1390E+02  0.4626E+02  0.4626E+02
      3.771  0.1026E+02  0.1026E+02  0.4748E+02  0.4749E+02
      3.890  0.8378E+01  0.8378E+01  0.4848E+02  0.4849E+02
      4.009  0.7395E+01  0.7399E+01  0.4937E+02  0.4937E+02
      4.128  0.1053E+02  0.1054E+02  0.5062E+02  0.5062E+02
      4.247  0.1292E+02  0.1292E+02  0.5216E+02  0.5216E+02
      4.366  0.1324E+02  0.1325E+02  0.5374E+02  0.5374E+02
      4.485  0.1407E+02  0.1407E+02  0.5541E+02  0.5542E+02
      4.604  0.1435E+02  0.1436E+02  0.5713E+02  0.5713E+02
      4.723  0.1475E+02  0.1474E+02  0.5888E+02  0.5889E+02
      4.842  0.1223E+02  0.1223E+02  0.6034E+02  0.6035E+02
      4.961  0.1227E+02  0.1227E+02  0.6180E+02  0.6181E+02
      5.080  0.1172E+02  0.1173E+02  0.6320E+02  0.6321E+02
      5.199  0.1325E+02  0.1325E+02  0.6478E+02  0.6479E+02
      5.318  0.1347E+02  0.1347E+02  0.6639E+02  0.6640E+02
      5.437  0.1294E+02  0.1295E+02  0.6793E+02  0.6794E+02
      5.556  0.1423E+02  0.1424E+02  0.6963E+02  0.6964E+02
      5.675  0.1155E+02  0.1152E+02  0.7101E+02  0.7101E+02
      5.795  0.6186E+01  0.6160E+01  0.7174E+02  0.7175E+02
      5.914  0.1868E+01  0.1850E+01  0.7197E+02  0.7197E+02
      6.033  0.2234E+00  0.2204E+00  0.7200E+02  0.7200E+02
      6.152  0.1350E-01  0.1331E-01  0.7200E+02  0.7200E+02
      6.271  0.0000E+00  0.0000E+00  0.7200E+02  0.7200E+02
      6.390  0.0000E+00  0.0000E+00  0.7200E+02  0.7200E+02
      6.509  0.0000E+00  0.0000E+00  0.7200E+02  0.7200E+02
      6.628  0.0000E+00  0.0000E+00  0.7200E+02  0.7200E+02
      6.747  0.0000E+00  0.0000E+00  0.7200E+02  0.7200E+02
      6.866  0.0000E+00  0.0000E+00  0.7200E+02  0.7200E+02
      6.985  0.0000E+00  0.0000E+00  0.7200E+02  0.7200E+02
      7.104  0.0000E+00  0.0000E+00  0.7200E+02  0.7200E+02
      7.223  0.0000E+00  0.0000E+00  0.7200E+02  0.7200E+02
      7.342  0.0000E+00  0.0000E+00  0.7200E+02  0.7200E+02
      7.461  0.0000E+00  0.0000E+00  0.7200E+02  0.7200E+02
      7.580  0.0000E+00  0.0000E+00  0.7200E+02  0.7200E+02
      7.699  0.0000E+00  0.0000E+00  0.7200E+02  0.7200E+02
      7.818  0.0000E+00  0.0000E+00  0.7200E+02  0.7200E+02
      7.937  0.0000E+00  0.0000E+00  0.7200E+02  0.7200E+02
      8.056  0.0000E+00  0.0000E+00  0.7200E+02  0.7200E+02
      8.175  0.0000E+00  0.0000E+00  0.7200E+02  0.7200E+02
      8.294  0.0000E+00  0.0000E+00  0.7200E+02  0.7200E+02
      8.413  0.0000E+00  0.0000E+00  0.7200E+02  0.7200E+02
      8.532  0.0000E+00  0.0000E+00  0.7200E+02  0.7200E+02
      8.652  0.0000E+00  0.0000E+00  0.7200E+02  0.7200E+02
      8.771  0.0000E+00  0.0000E+00  0.7200E+02  0.7200E+02
      8.890  0.0000E+00  0.0000E+00  0.7200E+02  0.7200E+02
      9.009  0.0000E+00  0.0000E+00  0.7200E+02  0.7200E+02
      9.128  0.0000E+00  0.0000E+00  0.7200E+02  0.7200E+02
      9.247  0.0000E+00  0.0000E+00  0.7200E+02  0.7200E+02
      9.366  0.0000E+00  0.0000E+00  0.7200E+02  0.7200E+02
      9.485  0.0000E+00  0.0000E+00  0.7200E+02  0.7200E+02
      9.604  0.0000E+00  0.0000E+00  0.7200E+02  0.7200E+02
      9.723  0.0000E+00  0.0000E+00  0.7200E+02  0.7200E+02
      9.842  0.0000E+00  0.0000E+00  0.7200E+02  0.7200E+02
      9.961  0.0000E+00  0.0000E+00  0.7200E+02  0.7200E+02
     10.080  0.0000E+00  0.0000E+00  0.7200E+02  0.7200E+02
     10.199  0.0000E+00  0.0000E+00  0.7200E+02  0.7200E+02
     10.318  0.0000E+00  0.0000E+00  0.7200E+02  0.7200E+02
     10.437  0.0000E+00  0.0000E+00  0.7200E+02  0.7200E+02
     10.556  0.0000E+00  0.0000E+00  0.7200E+02  0.7200E+02
     10.675  0.0000E+00  0.0000E+00  0.7200E+02  0.7200E+02
     10.794  0.0000E+00  0.0000E+00  0.7200E+02  0.7200E+02
     10.913  0.0000E+00  0.0000E+00  0.7200E+02  0.7200E+02
     11.032  0.0000E+00  0.0000E+00  0.7200E+02  0.7200E+02
     11.151  0.0000E+00  0.0000E+00  0.7200E+02  0.7200E+02
     11.270  0.0000E+00  0.0000E+00  0.7200E+02  0.7200E+02
     11.389  0.4706E-04  0.4609E-04  0.7200E+02  0.7200E+02
     11.509  0.4612E-03  0.4516E-03  0.7200E+02  0.7200E+02
     11.628  0.4907E-02  0.4807E-02  0.7200E+02  0.7200E+02
     11.747  0.4515E-01  0.4437E-01  0.7201E+02  0.7201E+02
     11.866  0.1702E+00  0.1695E+00  0.7203E+02  0.7203E+02
     11.985  0.9977E-01  0.1011E+00  0.7204E+02  0.7204E+02
     12.104  0.1407E-01  0.1435E-01  0.7204E+02  0.7204E+02
     12.223  0.2221E-02  0.2234E-02  0.7204E+02  0.7204E+02
     12.342  0.9296E-02  0.9132E-02  0.7204E+02  0.7204E+02
     12.461  0.9555E-01  0.9395E-01  0.7205E+02  0.7205E+02
     12.580  0.6647E+00  0.6577E+00  0.7213E+02  0.7213E+02
     12.699  0.1140E+01  0.1143E+01  0.7227E+02  0.7227E+02
     12.818  0.3848E+00  0.3896E+00  0.7231E+02  0.7231E+02
     12.937  0.5203E-01  0.5289E-01  0.7232E+02  0.7232E+02
     13.056  0.1224E-01  0.1213E-01  0.7232E+02  0.7232E+02
     13.175  0.9994E-01  0.9846E-01  0.7233E+02  0.7233E+02
     13.294  0.6679E+00  0.6620E+00  0.7241E+02  0.7241E+02
     13.413  0.9932E+00  0.9969E+00  0.7253E+02  0.7253E+02
     13.532  0.3665E+00  0.3676E+00  0.7257E+02  0.7257E+02
     13.651  0.8333E+00  0.8271E+00  0.7267E+02  0.7267E+02
     13.770  0.1052E+01  0.1056E+01  0.7280E+02  0.7280E+02
     13.889  0.3270E+00  0.3304E+00  0.7284E+02  0.7284E+02
     14.008  0.2867E+00  0.2837E+00  0.7287E+02  0.7287E+02
     14.127  0.1541E+01  0.1529E+01  0.7306E+02  0.7305E+02
     14.246  0.2333E+01  0.2337E+01  0.7333E+02  0.7333E+02
     14.366  0.1542E+01  0.1547E+01  0.7352E+02  0.7352E+02
     14.485  0.9988E+00  0.9972E+00  0.7364E+02  0.7364E+02
     14.604  0.1308E+01  0.1310E+01  0.7379E+02  0.7379E+02
     14.723  0.7584E+00  0.7563E+00  0.7388E+02  0.7388E+02
     14.842  0.1977E+01  0.1954E+01  0.7412E+02  0.7411E+02
     14.961  0.6331E+01  0.6294E+01  0.7487E+02  0.7486E+02
     15.080  0.7167E+01  0.7177E+01  0.7573E+02  0.7572E+02
     15.199  0.5554E+01  0.5571E+01  0.7639E+02  0.7638E+02
     15.318  0.4701E+01  0.4701E+01  0.7695E+02  0.7694E+02
     15.437  0.5261E+01  0.5237E+01  0.7758E+02  0.7757E+02
     15.556  0.7309E+01  0.7290E+01  0.7845E+02  0.7844E+02
     15.675  0.8808E+01  0.8813E+01  0.7950E+02  0.7949E+02
     15.794  0.7852E+01  0.7856E+01  0.8043E+02  0.8042E+02
     15.913  0.6961E+01  0.6978E+01  0.8126E+02  0.8125E+02
     16.032  0.5989E+01  0.5983E+01  0.8198E+02  0.8197E+02
     16.151  0.8425E+01  0.8400E+01  0.8298E+02  0.8297E+02
     16.270  0.7997E+01  0.8030E+01  0.8393E+02  0.8393E+02
     16.389  0.3878E+01  0.3900E+01  0.8440E+02  0.8439E+02
     16.508  0.4513E+01  0.4475E+01  0.8493E+02  0.8492E+02
     16.627  0.8089E+01  0.8067E+01  0.8590E+02  0.8589E+02
     16.746  0.6880E+01  0.6921E+01  0.8672E+02  0.8671E+02
     16.865  0.4481E+01  0.4487E+01  0.8725E+02  0.8725E+02
     16.984  0.4692E+01  0.4679E+01  0.8781E+02  0.8780E+02
     17.103  0.7057E+01  0.7012E+01  0.8865E+02  0.8864E+02
     17.223  0.9293E+01  0.9305E+01  0.8976E+02  0.8975E+02
     17.342  0.6230E+01  0.6278E+01  0.9050E+02  0.9050E+02
     17.461  0.3044E+01  0.3056E+01  0.9087E+02  0.9086E+02
     17.580  0.3435E+01  0.3428E+01  0.9128E+02  0.9127E+02
     17.699  0.3893E+01  0.3872E+01  0.9174E+02  0.9173E+02
     17.818  0.5404E+01  0.5357E+01  0.9238E+02  0.9237E+02
     17.937  0.7355E+01  0.7357E+01  0.9326E+02  0.9325E+02
     18.056  0.7264E+01  0.7269E+01  0.9413E+02  0.9412E+02
     18.175  0.4957E+01  0.4930E+01  0.9472E+02  0.9470E+02
     18.294  0.4190E+01  0.3918E+01  0.9522E+02  0.9517E+02
     18.413  0.5396E+01  0.5118E+01  0.9586E+02  0.9578E+02
     18.532  0.7178E+01  0.6928E+01  0.9672E+02  0.9661E+02
     18.651  0.7309E+01  0.7548E+01  0.9759E+02  0.9751E+02
     18.770  0.5654E+01  0.5920E+01  0.9826E+02  0.9821E+02
     18.889  0.3990E+01  0.5743E+01  0.9874E+02  0.9890E+02
     19.008  0.3606E+01  0.4577E+01  0.9917E+02  0.9944E+02
     19.127  0.3425E+01  0.2691E+01  0.9958E+02  0.9976E+02
     19.246  0.1912E+01  0.1567E+01  0.9981E+02  0.9995E+02
     19.365  0.1244E+01  0.3506E+00  0.9995E+02  0.1000E+03
     19.484  0.3347E+00  0.3662E-01  0.1000E+03  0.1000E+03
     19.603  0.3638E-01  0.0000E+00  0.1000E+03  0.1000E+03
     19.722  0.0000E+00  0.0000E+00  0.1000E+03  0.1000E+03
     19.841  0.0000E+00  0.0000E+00  0.1000E+03  0.1000E+03
     19.961  0.0000E+00  0.0000E+00  0.1000E+03  0.1000E+03
     20.080  0.0000E+00  0.0000E+00  0.1000E+03  0.1000E+03
     20.199  0.0000E+00  0.0000E+00  0.1000E+03  0.1000E+03
     20.318  0.0000E+00  0.0000E+00  0.1000E+03  0.1000E+03
     20.437  0.0000E+00  0.0000E+00  0.1000E+03  0.1000E+03
     20.556  0.0000E+00  0.0000E+00  0.1000E+03  0.1000E+03
     20.675  0.0000E+00  0.0000E+00  0.1000E+03  0.1000E+03
     20.794  0.0000E+00  0.0000E+00  0.1000E+03  0.1000E+03
     20.913  0.0000E+00  0.0000E+00  0.1000E+03  0.1000E+03
     20.91283870    -14.79971923  301      6.98505736      1.00000000
    -14.800  0.0000E+00  0.0000E+00  0.0000E+00  0.0000E+00  0.0000E+00  0.0000E+00  0.0000E+00  0.0000E+00  0.0000E+00  0.0000E+00  0.0000E+00  0.0000E+00  0.0000E+00  0.0000E+00  0.0000E+00  0.0000E+00  0.0000E+00  0.0000E+00
    -14.681  0.0000E+00  0.0000E+00  0.0000E+00  0.0000E+00  0.0000E+00  0.0000E+00  0.0000E+00  0.0000E+00  0.0000E+00  0.0000E+00  0.0000E+00  0.0000E+00  0.0000E+00  0.0000E+00  0.0000E+00  0.0000E+00  0.0000E+00  0.0000E+00
    -14.562  0.0000E+00  0.0000E+00  0.0000E+00  0.0000E+00  0.0000E+00  0.0000E+00  0.0000E+00  0.0000E+00  0.0000E+00  0.0000E+00  0.0000E+00  0.0000E+00  0.0000E+00  0.0000E+00  0.0000E+00  0.0000E+00  0.0000E+00  0.0000E+00
    -14.443  0.0000E+00  0.0000E+00  0.0000E+00  0.0000E+00  0.0000E+00  0.0000E+00  0.0000E+00  0.0000E+00  0.0000E+00  0.0000E+00  0.0000E+00  0.0000E+00  0.0000E+00  0.0000E+00  0.0000E+00  0.0000E+00  0.0000E+00  0.0000E+00
    -14.324  0.0000E+00  0.0000E+00  0.0000E+00  0.0000E+00  0.0000E+00  0.0000E+00  0.0000E+00  0.0000E+00  0.0000E+00  0.0000E+00  0.0000E+00  0.0000E+00  0.0000E+00  0.0000E+00  0.0000E+00  0.0000E+00  0.0000E+00  0.0000E+00
    -14.205  0.0000E+00  0.0000E+00  0.0000E+00  0.0000E+00  0.0000E+00  0.0000E+00  0.0000E+00  0.0000E+00  0.0000E+00  0.0000E+00  0.0000E+00  0.0000E+00  0.0000E+00  0.0000E+00  0.0000E+00  0.0000E+00  0.0000E+00  0.0000E+00
    -14.085  0.0000E+00  0.0000E+00  0.0000E+00  0.0000E+00  0.0000E+00  0.0000E+00  0.0000E+00  0.0000E+00  0.0000E+00  0.0000E+00  0.0000E+00  0.0000E+00  0.0000E+00  0.0000E+00  0.0000E+00  0.0000E+00  0.0000E+00  0.0000E+00
    -13.966  0.0000E+00  0.0000E+00  0.0000E+00  0.0000E+00  0.0000E+00  0.0000E+00  0.0000E+00  0.0000E+00  0.0000E+00  0.0000E+00  0.0000E+00  0.0000E+00  0.0000E+00  0.0000E+00  0.0000E+00  0.0000E+00  0.0000E+00  0.0000E+00
    -13.847  0.0000E+00  0.0000E+00  0.0000E+00  0.0000E+00  0.0000E+00  0.0000E+00  0.0000E+00  0.0000E+00  0.0000E+00  0.0000E+00  0.0000E+00  0.0000E+00  0.0000E+00  0.0000E+00  0.0000E+00  0.0000E+00  0.0000E+00  0.0000E+00
    -13.728  0.0000E+00  0.0000E+00  0.0000E+00  0.0000E+00  0.0000E+00  0.0000E+00  0.0000E+00  0.0000E+00  0.0000E+00  0.0000E+00  0.0000E+00  0.0000E+00  0.0000E+00  0.0000E+00  0.0000E+00  0.0000E+00  0.0000E+00  0.0000E+00
    -13.609  0.3534E-06  0.3542E-06  0.3154E-16  0.3397E-16  0.2968E-08  0.2975E-08  0.3154E-16  0.3397E-16  0.0000E+00  0.0000E+00  0.0000E+00  0.0000E+00  0.0000E+00  0.0000E+00  0.0000E+00  0.0000E+00  0.0000E+00  0.0000E+00
    -13.490  0.4066E-05  0.4075E-05  0.1229E-07  0.1232E-07  0.3496E-07  0.3504E-07  0.1229E-07  0.1232E-07  0.0000E+00  0.0000E+00  0.0000E+00  0.0000E+00  0.0000E+00  0.0000E+00  0.0000E+00  0.0000E+00  0.0000E+00  0.0000E+00
    -13.371  0.4301E-04  0.4310E-04  0.1205E-06  0.1208E-06  0.3867E-06  0.3876E-06  0.1205E-06  0.1208E-06  0.0000E+00  0.0000E+00  0.0000E+00  0.0000E+00  0.0000E+00  0.0000E+00  0.0000E+00  0.0000E+00  0.0000E+00  0.0000E+00
    -13.252  0.3943E-03  0.3951E-03  0.1311E-05  0.1315E-05  0.3606E-05  0.3613E-05  0.1311E-05  0.1315E-05  0.0000E+00  0.0000E+00  0.0000E+00  0.0000E+00  0.0000E+00  0.0000E+00  0.0000E+00  0.0000E+00  0.0000E+00  0.0000E+00
    -13.133  0.1761E-02  0.1763E-02  0.1334E-04  0.1338E-04  0.1784E-04  0.1786E-04  0.1334E-04  0.1338E-04  0.0000E+00  0.0000E+00  0.0000E+00  0.0000E+00  0.0000E+00  0.0000E+00  0.0000E+00  0.0000E+00  0.0000E+00  0.0000E+00
    -13.014  0.5025E-02  0.5030E-02  0.8496E-04  0.8508E-04  0.6723E-04  0.6732E-04  0.8496E-04  0.8508E-04  0.0000E+00  0.0000E+00  0.0000E+00  0.0000E+00  0.0000E+00  0.0000E+00  0.0000E+00  0.0000E+00  0.0000E+00  0.0000E+00
    -12.895  0.7258E-02  0.7254E-02  0.1305E-03  0.1304E-03  0.1526E-03  0.1526E-03  0.1305E-03  0.1304E-03  0.0000E+00  0.0000E+00  0.0000E+00  0.0000E+00  0.0000E+00  0.0000E+00  0.0000E+00  0.0000E+00  0.0000E+00  0.0000E+00
    -12.776  0.6834E-02  0.6838E-02  0.1731E-03  0.1733E-03  0.2922E-03  0.2924E-03  0.1731E-03  0.1733E-03  0.0000E+00  0.0000E+00  0.0000E+00  0.0000E+00  0.0000E+00  0.0000E+00  0.0000E+00  0.0000E+00  0.0000E+00  0.0000E+00
    -12.657  0.9286E-02  0.9286E-02  0.4204E-03  0.4208E-03  0.3352E-03  0.3350E-03  0.4204E-03  0.4208E-03  0.0000E+00  0.0000E+00  0.0000E+00  0.0000E+00  0.0000E+00  0.0000E+00  0.0000E+00  0.0000E+00  0.0000E+00  0.0000E+00
    -12.538  0.9567E-02  0.9570E-02  0.6349E-03  0.6353E-03  0.3690E-03  0.3696E-03  0.6349E-03  0.6353E-03  0.0000E+00  0.0000E+00  0.0000E+00  0.0000E+00  0.0000E+00  0.0000E+00  0.0000E+00  0.0000E+00  0.0000E+00  0.0000E+00
    -12.419  0.1354E-01  0.1354E-01  0.9139E-03  0.9139E-03  0.8953E-03  0.8964E-03  0.9139E-03  0.9139E-03  0.0000E+00  0.0000E+00  0.0000E+00  0.0000E+00  0.0000E+00  0.0000E+00  0.0000E+00  0.0000E+00  0.0000E+00  0.0000E+00
    -12.300  0.1236E-01  0.1235E-01  0.7703E-03  0.7700E-03  0.1230E-02  0.1229E-02  0.7703E-03  0.7700E-03  0.0000E+00  0.0000E+00  0.0000E+00  0.0000E+00  0.0000E+00  0.0000E+00  0.0000E+00  0.0000E+00  0.0000E+00  0.0000E+00
    -12.181  0.7918E-02  0.7917E-02  0.7697E-03  0.7708E-03  0.7860E-03  0.7860E-03  0.7697E-03  0.7708E-03  0.0000E+00  0.0000E+00  0.0000E+00  0.0000E+00  0.0000E+00  0.0000E+00  0.0000E+00  0.0000E+00  0.0000E+00  0.0000E+00
    -12.062  0.1460E-01  0.1462E-01  0.2042E-02  0.2045E-02  0.1451E-02  0.1453E-02  0.2042E-02  0.2045E-02  0.0000E+00  0.0000E+00  0.0000E+00  0.0000E+00  0.0000E+00  0.0000E+00  0.0000E+00  0.0000E+00  0.0000E+00  0.0000E+00
    -11.943  0.1660E-01  0.1659E-01  0.2461E-02  0.2460E-02  0.2039E-02  0.2040E-02  0.2461E-02  0.2460E-02  0.0000E+00  0.0000E+00  0.0000E+00  0.0000E+00  0.0000E+00  0.0000E+00  0.0000E+00  0.0000E+00  0.0000E+00  0.0000E+00
    -11.824  0.1280E-01  0.1279E-01  0.1945E-02  0.1943E-02  0.2557E-02  0.2557E-02  0.1945E-02  0.1943E-02  0.0000E+00  0.0000E+00  0.0000E+00  0.0000E+00  0.0000E+00  0.0000E+00  0.0000E+00  0.0000E+00  0.0000E+00  0.0000E+00
    -11.705  0.8850E-02  0.8845E-02  0.1610E-02  0.1611E-02  0.2351E-02  0.2351E-02  0.1610E-02  0.1611E-02  0.0000E+00  0.0000E+00  0.0000E+00  0.0000E+00  0.0000E+00  0.0000E+00  0.0000E+00  0.0000E+00  0.0000E+00  0.0000E+00
    -11.586  0.8063E-02  0.8055E-02  0.2117E-02  0.2118E-02  0.2237E-02  0.2236E-02  0.2117E-02  0.2118E-02  0.0000E+00  0.0000E+00  0.0000E+00  0.0000E+00  0.0000E+00  0.0000E+00  0.0000E+00  0.0000E+00  0.0000E+00  0.0000E+00
    -11.467  0.6355E-02  0.6354E-02  0.2338E-02  0.2340E-02  0.2461E-02  0.2465E-02  0.2338E-02  0.2340E-02  0.0000E+00  0.0000E+00  0.0000E+00  0.0000E+00  0.0000E+00  0.0000E+00  0.0000E+00  0.0000E+00  0.0000E+00  0.0000E+00
    -11.348  0.7731E-02  0.7735E-02  0.3343E-02  0.3347E-02  0.4046E-02  0.4050E-02  0.3343E-02  0.3347E-02  0.0000E+00  0.0000E+00  0.0000E+00  0.0000E+00  0.0000E+00  0.0000E+00  0.0000E+00  0.0000E+00  0.0000E+00  0.0000E+00
    -11.228  0.7590E-02  0.7583E-02  0.3886E-02  0.3888E-02  0.4204E-02  0.4200E-02  0.3886E-02  0.3888E-02  0.0000E+00  0.0000E+00  0.0000E+00  0.0000E+00  0.0000E+00  0.0000E+00  0.0000E+00  0.0000E+00  0.0000E+00  0.0000E+00
    -11.109  0.6930E-02  0.6928E-02  0.5728E-02  0.5738E-02  0.3927E-02  0.3930E-02  0.5728E-02  0.5738E-02  0.0000E+00  0.0000E+00  0.0000E+00  0.0000E+00  0.0000E+00  0.0000E+00  0.0000E+00  0.0000E+00  0.0000E+00  0.0000E+00
    -10.990  0.7182E-02  0.7184E-02  0.8691E-02  0.8703E-02  0.5569E-02  0.5573E-02  0.8691E-02  0.8703E-02  0.0000E+00  0.0000E+00  0.0000E+00  0.0000E+00  0.0000E+00  0.0000E+00  0.0000E+00  0.0000E+00  0.0000E+00  0.0000E+00
    -10.871  0.6797E-02  0.6790E-02  0.9779E-02  0.9774E-02  0.5135E-02  0.5130E-02  0.9779E-02  0.9774E-02  0.0000E+00  0.0000E+00  0.0000E+00  0.0000E+00  0.0000E+00  0.0000E+00  0.0000E+00  0.0000E+00  0.0000E+00  0.0000E+00
    -10.752  0.6387E-02  0.6392E-02  0.8467E-02  0.8464E-02  0.5082E-02  0.5088E-02  0.8467E-02  0.8464E-02  0.0000E+00  0.0000E+00  0.0000E+00  0.0000E+00  0.0000E+00  0.0000E+00  0.0000E+00  0.0000E+00  0.0000E+00  0.0000E+00
    -10.633  0.8326E-02  0.8326E-02  0.7829E-02  0.7823E-02  0.6699E-02  0.6702E-02  0.7829E-02  0.7823E-02  0.0000E+00  0.0000E+00  0.0000E+00  0.0000E+00  0.0000E+00  0.0000E+00  0.0000E+00  0.0000E+00  0.0000E+00  0.0000E+00
    -10.514  0.6446E-02  0.6435E-02  0.5973E-02  0.5966E-02  0.5772E-02  0.5768E-02  0.5973E-02  0.5966E-02  0.0000E+00  0.0000E+00  0.0000E+00  0.0000E+00  0.0000E+00  0.0000E+00  0.0000E+00  0.0000E+00  0.0000E+00  0.0000E+00
    -10.395  0.5087E-02  0.5079E-02  0.4726E-02  0.4719E-02  0.5344E-02  0.5339E-02  0.4726E-02  0.4719E-02  0.0000E+00  0.0000E+00  0.0000E+00  0.0000E+00  0.0000E+00  0.0000E+00  0.0000E+00  0.0000E+00  0.0000E+00  0.0000E+00
    -10.276  0.2732E-02  0.2716E-02  0.2449E-02  0.2434E-02  0.2770E-02  0.2753E-02  0.2449E-02  0.2434E-02  0.0000E+00  0.0000E+00  0.0000E+00  0.0000E+00  0.0000E+00  0.0000E+00  0.0000E+00  0.0000E+00  0.0000E+00  0.0000E+00
    -10.157  0.5190E-03  0.5133E-03  0.4425E-03  0.4376E-03  0.4950E-03  0.4896E-03  0.4425E-03  0.4376E-03  0.0000E+00  0.0000E+00  0.0000E+00  0.0000E+00  0.0000E+00  0.0000E+00  0.0000E+00  0.0000E+00  0.0000E+00  0.0000E+00
    -10.038  0.4626E-04  0.4569E-04  0.3958E-04  0.3910E-04  0.4290E-04  0.4237E-04  0.3958E-04  0.3910E-04  0.0000E+00  0.0000E+00  0.0000E+00  0.0000E+00  0.0000E+00  0.0000E+00  0.0000E+00  0.0000E+00  0.0000E+00  0.0000E+00
     -9.919  0.0000E+00  0.0000E+00  0.0000E+00  0.0000E+00  0.0000E+00  0.0000E+00  0.0000E+00  0.0000E+00  0.0000E+00  0.0000E+00  0.0000E+00  0.0000E+00  0.0000E+00  0.0000E+00  0.0000E+00  0.0000E+00  0.0000E+00  0.0000E+00
     -9.800  0.0000E+00  0.0000E+00  0.0000E+00  0.0000E+00  0.0000E+00  0.0000E+00  0.0000E+00  0.0000E+00  0.0000E+00  0.0000E+00  0.0000E+00  0.0000E+00  0.0000E+00  0.0000E+00  0.0000E+00  0.0000E+00  0.0000E+00  0.0000E+00
     -9.681  0.0000E+00  0.0000E+00  0.0000E+00  0.0000E+00  0.0000E+00  0.0000E+00  0.0000E+00  0.0000E+00  0.0000E+00  0.0000E+00  0.0000E+00  0.0000E+00  0.0000E+00  0.0000E+00  0.0000E+00  0.0000E+00  0.0000E+00  0.0000E+00
     -9.562  0.0000E+00  0.0000E+00  0.0000E+00  0.0000E+00  0.0000E+00  0.0000E+00  0.0000E+00  0.0000E+00  0.0000E+00  0.0000E+00  0.0000E+00  0.0000E+00  0.0000E+00  0.0000E+00  0.0000E+00  0.0000E+00  0.0000E+00  0.0000E+00
     -9.443  0.0000E+00  0.0000E+00  0.0000E+00  0.0000E+00  0.0000E+00  0.0000E+00  0.0000E+00  0.0000E+00  0.0000E+00  0.0000E+00  0.0000E+00  0.0000E+00  0.0000E+00  0.0000E+00  0.0000E+00  0.0000E+00  0.0000E+00  0.0000E+00
     -9.324  0.0000E+00  0.0000E+00  0.0000E+00  0.0000E+00  0.0000E+00  0.0000E+00  0.0000E+00  0.0000E+00  0.0000E+00  0.0000E+00  0.0000E+00  0.0000E+00  0.0000E+00  0.0000E+00  0.0000E+00  0.0000E+00  0.0000E+00  0.0000E+00
     -9.205  0.0000E+00  0.0000E+00  0.0000E+00  0.0000E+00  0.0000E+00  0.0000E+00  0.0000E+00  0.0000E+00  0.0000E+00  0.0000E+00  0.0000E+00  0.0000E+00  0.0000E+00  0.0000E+00  0.0000E+00  0.0000E+00  0.0000E+00  0.0000E+00
     -9.086  0.0000E+00  0.0000E+00  0.0000E+00  0.0000E+00  0.0000E+00  0.0000E+00  0.0000E+00  0.0000E+00  0.0000E+00  0.0000E+00  0.0000E+00  0.0000E+00  0.0000E+00  0.0000E+00  0.0000E+00  0.0000E+00  0.0000E+00  0.0000E+00
     -8.967  0.0000E+00  0.0000E+00  0.0000E+00  0.0000E+00  0.0000E+00  0.0000E+00  0.0000E+00  0.0000E+00  0.0000E+00  0.0000E+00  0.0000E+00  0.0000E+00  0.0000E+00  0.0000E+00  0.0000E+00  0.0000E+00  0.0000E+00  0.0000E+00
     -8.848  0.0000E+00  0.0000E+00  0.0000E+00  0.0000E+00  0.0000E+00  0.0000E+00  0.0000E+00  0.0000E+00  0.0000E+00  0.0000E+00  0.0000E+00  0.0000E+00  0.0000E+00  0.0000E+00  0.0000E+00  0.0000E+00  0.0000E+00  0.0000E+00