  30  30   1   0
  0.1101241E+02  0.5189430E-09  0.5189430E-09  0.1416555E-08  0.5000000E-15
  1.000000000000000E-004
  CAR 
 unknown system                          
     16.65088663    -15.42488877  301      4.78290194      1.00000000
    -15.425  0.0000E+00  0.0000E+00  0.0000E+00  0.0000E+00
    -15.318  0.0000E+00  0.0000E+00  0.0000E+00  0.0000E+00
    -15.211  0.0000E+00  0.0000E+00  0.0000E+00  0.0000E+00
    -15.104  0.0000E+00  0.0000E+00  0.0000E+00  0.0000E+00
    -14.997  0.0000E+00  0.0000E+00  0.0000E+00  0.0000E+00
    -14.890  0.0000E+00  0.0000E+00  0.0000E+00  0.0000E+00
    -14.783  0.0000E+00  0.0000E+00  0.0000E+00  0.0000E+00
    -14.676  0.0000E+00  0.0000E+00  0.0000E+00  0.0000E+00
    -14.570  0.0000E+00  0.0000E+00  0.0000E+00  0.0000E+00
    -14.463  0.1850E-04  0.1838E-04  0.1978E-05  0.1965E-05
    -14.356  0.1385E-03  0.1375E-03  0.1678E-04  0.1667E-04
    -14.249  0.1888E-02  0.1875E-02  0.2186E-03  0.2171E-03
    -14.142  0.1527E-01  0.1516E-01  0.1851E-02  0.1838E-02
    -14.035  0.1124E+00  0.1117E+00  0.1387E-01  0.1378E-01
    -13.928  0.5239E+00  0.5216E+00  0.6988E-01  0.6955E-01
    -13.821  0.1410E+01  0.1407E+01  0.2207E+00  0.2200E+00
    -13.714  0.1883E+01  0.1882E+01  0.4220E+00  0.4212E+00
    -13.607  0.2587E+01  0.2584E+01  0.6986E+00  0.6975E+00
    -13.500  0.3436E+01  0.3431E+01  0.1066E+01  0.1064E+01
    -13.393  0.4305E+01  0.4304E+01  0.1527E+01  0.1525E+01
    -13.287  0.4164E+01  0.4161E+01  0.1973E+01  0.1971E+01
    -13.180  0.6365E+01  0.6355E+01  0.2654E+01  0.2650E+01
    -13.073  0.6958E+01  0.6961E+01  0.3399E+01  0.3396E+01
    -12.966  0.5928E+01  0.5929E+01  0.4033E+01  0.4030E+01
    -12.859  0.5919E+01  0.5916E+01  0.4666E+01  0.4663E+01
    -12.752  0.7412E+01  0.7400E+01  0.5459E+01  0.5455E+01
    -12.645  0.1001E+02  0.9998E+01  0.6531E+01  0.6525E+01
    -12.538  0.1455E+02  0.1452E+02  0.8088E+01  0.8079E+01
    -12.431  0.1878E+02  0.1877E+02  0.1010E+02  0.1009E+02
    -12.324  0.2141E+02  0.2139E+02  0.1239E+02  0.1237E+02
    -12.217  0.2289E+02  0.2289E+02  0.1484E+02  0.1482E+02
    -12.110  0.1976E+02  0.1980E+02  0.1695E+02  0.1694E+02
    -12.003  0.8179E+01  0.8238E+01  0.1783E+02  0.1783E+02
    -11.897  0.1372E+01  0.1390E+01  0.1798E+02  0.1798E+02
    -11.790  0.1469E+00  0.1485E+00  0.1800E+02  0.1800E+02
    -11.683  0.0000E+00  0.0000E+00  0.1800E+02  0.1800E+02
    -11.576  0.0000E+00  0.0000E+00  0.1800E+02  0.1800E+02
    -11.469  0.0000E+00  0.0000E+00  0.1800E+02  0.1800E+02
    -11.362  0.0000E+00  0.0000E+00  0.1800E+02  0.1800E+02
    -11.255  0.0000E+00  0.0000E+00  0.1800E+02  0.1800E+02
    -11.148  0.0000E+00  0.0000E+00  0.1800E+02  0.1800E+02
    -11.041  0.0000E+00  0.0000E+00  0.1800E+02  0.1800E+02
    -10.934  0.0000E+00  0.0000E+00  0.1800E+02  0.1800E+02
    -10.827  0.0000E+00  0.0000E+00  0.1800E+02  0.1800E+02
    -10.720  0.0000E+00  0.0000E+00  0.1800E+02  0.1800E+02
    -10.614  0.0000E+00  0.0000E+00  0.1800E+02  0.1800E+02
    -10.507  0.0000E+00  0.0000E+00  0.1800E+02  0.1800E+02
    -10.400  0.0000E+00  0.0000E+00  0.1800E+02  0.1800E+02
    -10.293  0.0000E+00  0.0000E+00  0.1800E+02  0.1800E+02
    -10.186  0.0000E+00  0.0000E+00  0.1800E+02  0.1800E+02
    -10.079  0.0000E+00  0.0000E+00  0.1800E+02  0.1800E+02
     -9.972  0.0000E+00  0.0000E+00  0.1800E+02  0.1800E+02
     -9.865  0.0000E+00  0.0000E+00  0.1800E+02  0.1800E+02
     -9.758  0.0000E+00  0.0000E+00  0.1800E+02  0.1800E+02
     -9.651  0.0000E+00  0.0000E+00  0.1800E+02  0.1800E+02
     -9.544  0.0000E+00  0.0000E+00  0.1800E+02  0.1800E+02
     -9.437  0.0000E+00  0.0000E+00  0.1800E+02  0.1800E+02
     -9.330  0.0000E+00  0.0000E+00  0.1800E+02  0.1800E+02
     -9.224  0.0000E+00  0.0000E+00  0.1800E+02  0.1800E+02
     -9.117  0.0000E+00  0.0000E+00  0.1800E+02  0.1800E+02
     -9.010  0.0000E+00  0.0000E+00  0.1800E+02  0.1800E+02
     -8.903  0.0000E+00  0.0000E+00  0.1800E+02  0.1800E+02
     -8.796  0.0000E+00  0.0000E+00  0.1800E+02  0.1800E+02
     -8.689  0.0000E+00  0.0000E+00  0.1800E+02  0.1800E+02
     -8.582  0.0000E+00  0.0000E+00  0.1800E+02  0.1800E+02
     -8.475  0.0000E+00  0.0000E+00  0.1800E+02  0.1800E+02
     -8.368  0.0000E+00  0.0000E+00  0.1800E+02  0.1800E+02
     -8.261  0.0000E+00  0.0000E+00  0.1800E+02  0.1800E+02
     -8.154  0.0000E+00  0.0000E+00  0.1800E+02  0.1800E+02
     -8.047  0.0000E+00  0.0000E+00  0.1800E+02  0.1800E+02
     -7.941  0.0000E+00  0.0000E+00  0.1800E+02  0.1800E+02
     -7.834  0.0000E+00  0.0000E+00  0.1800E+02  0.1800E+02
     -7.727  0.0000E+00  0.0000E+00  0.1800E+02  0.1800E+02
     -7.620  0.0000E+00  0.0000E+00  0.1800E+02  0.1800E+02
     -7.513  0.0000E+00  0.0000E+00  0.1800E+02  0.1800E+02
     -7.406  0.0000E+00  0.0000E+00  0.1800E+02  0.1800E+02
     -7.299  0.0000E+00  0.0000E+00  0.1800E+02  0.1800E+02
     -7.192  0.0000E+00  0.0000E+00  0.1800E+02  0.1800E+02
     -7.085  0.0000E+00  0.0000E+00  0.1800E+02  0.1800E+02
     -6.978  0.0000E+00  0.0000E+00  0.1800E+02  0.1800E+02
     -6.871  0.0000E+00  0.0000E+00  0.1800E+02  0.1800E+02
     -6.764  0.0000E+00  0.0000E+00  0.1800E+02  0.1800E+02
     -6.658  0.0000E+00  0.0000E+00  0.1800E+02  0.1800E+02
     -6.551  0.0000E+00  0.0000E+00  0.1800E+02  0.1800E+02
     -6.444  0.0000E+00  0.0000E+00  0.1800E+02  0.1800E+02
     -6.337  0.0000E+00  0.0000E+00  0.1800E+02  0.1800E+02
     -6.230  0.0000E+00  0.0000E+00  0.1800E+02  0.1800E+02
     -6.123  0.0000E+00  0.0000E+00  0.1800E+02  0.1800E+02
     -6.016  0.0000E+00  0.0000E+00  0.1800E+02  0.1800E+02
     -5.909  0.0000E+00  0.0000E+00  0.1800E+02  0.1800E+02
     -5.802  0.0000E+00  0.0000E+00  0.1800E+02  0.1800E+02
     -5.695  0.0000E+00  0.0000E+00  0.1800E+02  0.1800E+02
     -5.588  0.0000E+00  0.0000E+00  0.1800E+02  0.1800E+02
     -5.481  0.0000E+00  0.0000E+00  0.1800E+02  0.1800E+02
     -5.374  0.0000E+00  0.0000E+00  0.1800E+02  0.1800E+02
     -5.268  0.0000E+00  0.0000E+00  0.1800E+02  0.1800E+02
     -5.161  0.0000E+00  0.0000E+00  0.1800E+02  0.1800E+02
     -5.054  0.0000E+00  0.0000E+00  0.1800E+02  0.1800E+02
     -4.947  0.0000E+00  0.0000E+00  0.1800E+02  0.1800E+02
     -4.840  0.0000E+00  0.0000E+00  0.1800E+02  0.1800E+02
     -4.733  0.0000E+00  0.0000E+00  0.1800E+02  0.1800E+02
     -4.626  0.0000E+00  0.0000E+00  0.1800E+02  0.1800E+02
     -4.519  0.0000E+00  0.0000E+00  0.1800E+02  0.1800E+02
     -4.412  0.0000E+00  0.0000E+00  0.1800E+02  0.1800E+02
     -4.305  0.0000E+00  0.0000E+00  0.1800E+02  0.1800E+02
     -4.198  0.0000E+00  0.0000E+00  0.1800E+02  0.1800E+02
     -4.091  0.0000E+00  0.0000E+00  0.1800E+02  0.1800E+02
     -3.985  0.0000E+00  0.0000E+00  0.1800E+02  0.1800E+02
     -3.878  0.0000E+00  0.0000E+00  0.1800E+02  0.1800E+02
     -3.771  0.0000E+00  0.0000E+00  0.1800E+02  0.1800E+02
     -3.664  0.0000E+00  0.0000E+00  0.1800E+02  0.1800E+02
     -3.557  0.0000E+00  0.0000E+00  0.1800E+02  0.1800E+02
     -3.450  0.0000E+00  0.0000E+00  0.1800E+02  0.1800E+02
     -3.343  0.0000E+00  0.0000E+00  0.1800E+02  0.1800E+02
     -3.236  0.0000E+00  0.0000E+00  0.1800E+02  0.1800E+02
     -3.129  0.0000E+00  0.0000E+00  0.1800E+02  0.1800E+02
     -3.022  0.0000E+00  0.0000E+00  0.1800E+02  0.1800E+02
     -2.915  0.0000E+00  0.0000E+00  0.1800E+02  0.1800E+02
     -2.808  0.0000E+00  0.0000E+00  0.1800E+02  0.1800E+02
     -2.701  0.0000E+00  0.0000E+00  0.1800E+02  0.1800E+02
     -2.595  0.0000E+00  0.0000E+00  0.1800E+02  0.1800E+02
     -2.488  0.1061E-03  0.1061E-03  0.1800E+02  0.1800E+02
     -2.381  0.1199E-02  0.1200E-02  0.1800E+02  0.1800E+02
     -2.274  0.9697E-02  0.9703E-02  0.1800E+02  0.1800E+02
     -2.167  0.7426E-01  0.7430E-01  0.1801E+02  0.1801E+02
     -2.060  0.3708E+00  0.3709E+00  0.1805E+02  0.1805E+02
     -1.953  0.1058E+01  0.1058E+01  0.1816E+02  0.1816E+02
     -1.846  0.1430E+01  0.1430E+01  0.1831E+02  0.1831E+02
     -1.739  0.2187E+01  0.2187E+01  0.1855E+02  0.1855E+02
     -1.632  0.3955E+01  0.3954E+01  0.1897E+02  0.1897E+02
     -1.525  0.7723E+01  0.7723E+01  0.1980E+02  0.1980E+02
     -1.418  0.9769E+01  0.9769E+01  0.2084E+02  0.2084E+02
     -1.312  0.9610E+01  0.9610E+01  0.2187E+02  0.2187E+02
     -1.205  0.9279E+01  0.9278E+01  0.2286E+02  0.2286E+02
     -1.098  0.9604E+01  0.9604E+01  0.2389E+02  0.2389E+02
     -0.991  0.7365E+01  0.7365E+01  0.2468E+02  0.2468E+02
     -0.884  0.6562E+01  0.6561E+01  0.2538E+02  0.2538E+02
     -0.777  0.6834E+01  0.6834E+01  0.2611E+02  0.2611E+02
     -0.670  0.6226E+01  0.6226E+01  0.2678E+02  0.2678E+02
     -0.563  0.5018E+01  0.5018E+01  0.2732E+02  0.2732E+02
     -0.456  0.4547E+01  0.4547E+01  0.2780E+02  0.2780E+02
     -0.349  0.5286E+01  0.5285E+01  0.2837E+02  0.2837E+02
     -0.242  0.5938E+01  0.5936E+01  0.2901E+02  0.2901E+02
     -0.135  0.6560E+01  0.6559E+01  0.2971E+02  0.2971E+02
     -0.029  0.5279E+01  0.5281E+01  0.3027E+02  0.3027E+02
      0.078  0.3508E+01  0.3508E+01  0.3065E+02  0.3065E+02
      0.185  0.5228E+01  0.5223E+01  0.3121E+02  0.3121E+02
      0.292  0.8452E+01  0.8448E+01  0.3211E+02  0.3211E+02
      0.399  0.1055E+02  0.1055E+02  0.3324E+02  0.3324E+02
      0.506  0.1146E+02  0.1146E+02  0.3447E+02  0.3447E+02
      0.613  0.9660E+01  0.9662E+01  0.3550E+02  0.3550E+02
      0.720  0.8623E+01  0.8621E+01  0.3642E+02  0.3642E+02
      0.827  0.8115E+01  0.8116E+01  0.3729E+02  0.3729E+02
      0.934  0.6511E+01  0.6510E+01  0.3799E+02  0.3799E+02
      1.041  0.7940E+01  0.7936E+01  0.3884E+02  0.3884E+02
      1.148  0.7855E+01  0.7858E+01  0.3968E+02  0.3968E+02
      1.255  0.6764E+01  0.6764E+01  0.4041E+02  0.4040E+02
      1.361  0.6830E+01  0.6829E+01  0.4114E+02  0.4113E+02
      1.468  0.7313E+01  0.7307E+01  0.4192E+02  0.4192E+02
      1.575  0.8714E+01  0.8710E+01  0.4285E+02  0.4285E+02
      1.682  0.9973E+01  0.9964E+01  0.4392E+02  0.4392E+02
      1.789  0.1438E+02  0.1436E+02  0.4546E+02  0.4545E+02
      1.896  0.1616E+02  0.1617E+02  0.4719E+02  0.4718E+02
      2.003  0.1115E+02  0.1116E+02  0.4838E+02  0.4838E+02
      2.110  0.8830E+01  0.8826E+01  0.4933E+02  0.4932E+02
      2.217  0.1075E+02  0.1074E+02  0.5048E+02  0.5047E+02
      2.324  0.1326E+02  0.1324E+02  0.5190E+02  0.5189E+02
      2.431  0.1741E+02  0.1740E+02  0.5376E+02  0.5375E+02
      2.538  0.1666E+02  0.1666E+02  0.5554E+02  0.5553E+02
      2.644  0.1629E+02  0.1628E+02  0.5728E+02  0.5728E+02
      2.751  0.1535E+02  0.1536E+02  0.5893E+02  0.5892E+02
      2.858  0.1353E+02  0.1353E+02  0.6038E+02  0.6037E+02
      2.965  0.1468E+02  0.1467E+02  0.6195E+02  0.6194E+02
      3.072  0.1580E+02  0.1579E+02  0.6364E+02  0.6363E+02
      3.179  0.1758E+02  0.1757E+02  0.6552E+02  0.6551E+02
      3.286  0.1922E+02  0.1921E+02  0.6758E+02  0.6757E+02
      3.393  0.1928E+02  0.1929E+02  0.6964E+02  0.6963E+02
      3.500  0.1410E+02  0.1414E+02  0.7115E+02  0.7115E+02
      3.607  0.6230E+01  0.6266E+01  0.7182E+02  0.7182E+02
      3.714  0.1435E+01  0.1449E+01  0.7198E+02  0.7198E+02
      3.821  0.1708E+00  0.1728E+00  0.7200E+02  0.7200E+02
      3.927  0.9955E-02  0.1007E-01  0.7200E+02  0.7200E+02
      4.034  0.0000E+00  0.0000E+00  0.7200E+02  0.7200E+02
      4.141  0.0000E+00  0.0000E+00  0.7200E+02  0.7200E+02
      4.248  0.0000E+00  0.0000E+00  0.7200E+02  0.7200E+02
      4.355  0.0000E+00  0.0000E+00  0.7200E+02  0.7200E+02
      4.462  0.0000E+00  0.0000E+00  0.7200E+02  0.7200E+02
      4.569  0.0000E+00  0.0000E+00  0.7200E+02  0.7200E+02
      4.676  0.0000E+00  0.0000E+00  0.7200E+02  0.7200E+02
      4.783  0.0000E+00  0.0000E+00  0.7200E+02  0.7200E+02
      4.890  0.0000E+00  0.0000E+00  0.7200E+02  0.7200E+02
      4.997  0.0000E+00  0.0000E+00  0.7200E+02  0.7200E+02
      5.104  0.0000E+00  0.0000E+00  0.7200E+02  0.7200E+02
      5.211  0.0000E+00  0.0000E+00  0.7200E+02  0.7200E+02
      5.317  0.0000E+00  0.0000E+00  0.7200E+02  0.7200E+02
      5.424  0.0000E+00  0.0000E+00  0.7200E+02  0.7200E+02
      5.531  0.0000E+00  0.0000E+00  0.7200E+02  0.7200E+02
      5.638  0.0000E+00  0.0000E+00  0.7200E+02  0.7200E+02
      5.745  0.0000E+00  0.0000E+00  0.7200E+02  0.7200E+02
      5.852  0.0000E+00  0.0000E+00  0.7200E+02  0.7200E+02
      5.959  0.0000E+00  0.0000E+00  0.7200E+02  0.7200E+02
      6.066  0.0000E+00  0.0000E+00  0.7200E+02  0.7200E+02
      6.173  0.0000E+00  0.0000E+00  0.7200E+02  0.7200E+02
      6.280  0.0000E+00  0.0000E+00  0.7200E+02  0.7200E+02
      6.387  0.0000E+00  0.0000E+00  0.7200E+02  0.7200E+02
      6.494  0.2169E-04  0.2189E-04  0.7200E+02  0.7200E+02
      6.600  0.1623E-03  0.1638E-03  0.7200E+02  0.7200E+02
      6.707  0.1371E-02  0.1384E-02  0.7200E+02  0.7200E+02
      6.814  0.1124E-01  0.1134E-01  0.7200E+02  0.7200E+02
      6.921  0.7366E-01  0.7417E-01  0.7201E+02  0.7201E+02
      7.028  0.1823E+00  0.1824E+00  0.7203E+02  0.7203E+02
      7.135  0.8885E-01  0.8828E-01  0.7204E+02  0.7204E+02
      7.242  0.1450E-01  0.1437E-01  0.7204E+02  0.7204E+02
      7.349  0.2113E-02  0.2099E-02  0.7204E+02  0.7204E+02
      7.456  0.2479E-02  0.2495E-02  0.7204E+02  0.7204E+02
      7.563  0.2079E-01  0.2093E-01  0.7204E+02  0.7204E+02
      7.670  0.1623E+00  0.1633E+00  0.7206E+02  0.7206E+02
      7.777  0.7993E+00  0.8020E+00  0.7215E+02  0.7215E+02
      7.884  0.1074E+01  0.1073E+01  0.7226E+02  0.7226E+02
      7.990  0.4424E+00  0.4408E+00  0.7231E+02  0.7231E+02
      8.097  0.1016E+00  0.1011E+00  0.7232E+02  0.7232E+02
      8.204  0.1430E-01  0.1427E-01  0.7232E+02  0.7232E+02
      8.311  0.3998E-01  0.4017E-01  0.7232E+02  0.7232E+02
      8.418  0.2827E+00  0.2839E+00  0.7235E+02  0.7236E+02
      8.525  0.1004E+01  0.1005E+01  0.7246E+02  0.7246E+02
      8.632  0.7859E+00  0.7841E+00  0.7255E+02  0.7255E+02
      8.739  0.4162E+00  0.4167E+00  0.7259E+02  0.7259E+02
      8.846  0.1010E+01  0.1012E+01  0.7270E+02  0.7270E+02
      8.953  0.8422E+00  0.8404E+00  0.7279E+02  0.7279E+02
      9.060  0.3807E+00  0.3803E+00  0.7283E+02  0.7283E+02
      9.167  0.4674E+00  0.4684E+00  0.7288E+02  0.7288E+02
      9.273  0.1622E+01  0.1626E+01  0.7305E+02  0.7305E+02
      9.380  0.2162E+01  0.2160E+01  0.7328E+02  0.7329E+02
      9.487  0.1545E+01  0.1545E+01  0.7345E+02  0.7345E+02
      9.594  0.1364E+01  0.1364E+01  0.7360E+02  0.7360E+02
      9.701  0.1283E+01  0.1282E+01  0.7373E+02  0.7373E+02
      9.808  0.6013E+00  0.6000E+00  0.7380E+02  0.7380E+02
      9.915  0.5447E+00  0.5467E+00  0.7386E+02  0.7386E+02
     10.022  0.2134E+01  0.2140E+01  0.7408E+02  0.7409E+02
     10.129  0.4295E+01  0.4297E+01  0.7454E+02  0.7455E+02
     10.236  0.3996E+01  0.3993E+01  0.7497E+02  0.7497E+02
     10.343  0.3243E+01  0.3243E+01  0.7532E+02  0.7532E+02
     10.450  0.4019E+01  0.4024E+01  0.7575E+02  0.7575E+02
     10.556  0.5117E+01  0.5121E+01  0.7630E+02  0.7630E+02
     10.663  0.5758E+01  0.5757E+01  0.7691E+02  0.7691E+02
     10.770  0.6121E+01  0.6120E+01  0.7757E+02  0.7757E+02
     10.877  0.5605E+01  0.5603E+01  0.7817E+02  0.7817E+02
     10.984  0.5126E+01  0.5126E+01  0.7872E+02  0.7872E+02
     11.091  0.5662E+01  0.5665E+01  0.7932E+02  0.7932E+02
     11.198  0.7874E+01  0.7883E+01  0.8016E+02  0.8017E+02
     11.305  0.8593E+01  0.8584E+01  0.8108E+02  0.8109E+02
     11.412  0.5358E+01  0.5350E+01  0.8166E+02  0.8166E+02
     11.519  0.4170E+01  0.4170E+01  0.8210E+02  0.8210E+02
     11.626  0.4124E+01  0.4124E+01  0.8255E+02  0.8255E+02
     11.733  0.3875E+01  0.3876E+01  0.8296E+02  0.8296E+02
     11.840  0.2944E+01  0.2943E+01  0.8328E+02  0.8328E+02
     11.946  0.2632E+01  0.2637E+01  0.8356E+02  0.8356E+02
     12.053  0.3933E+01  0.3945E+01  0.8398E+02  0.8398E+02
     12.160  0.4968E+01  0.4965E+01  0.8451E+02  0.8451E+02
     12.267  0.5397E+01  0.5392E+01  0.8509E+02  0.8509E+02
     12.374  0.5098E+01  0.5096E+01  0.8563E+02  0.8563E+02
     12.481  0.6693E+01  0.6701E+01  0.8635E+02  0.8635E+02
     12.588  0.6468E+01  0.6461E+01  0.8704E+02  0.8704E+02
     12.695  0.3295E+01  0.3294E+01  0.8739E+02  0.8740E+02
     12.802  0.4695E+01  0.4708E+01  0.8790E+02  0.8790E+02
     12.909  0.6941E+01  0.6940E+01  0.8864E+02  0.8864E+02
     13.016  0.5646E+01  0.5638E+01  0.8924E+02  0.8925E+02
     13.123  0.3973E+01  0.3967E+01  0.8967E+02  0.8967E+02
     13.229  0.4691E+01  0.4694E+01  0.9017E+02  0.9017E+02
     13.336  0.5614E+01  0.5618E+01  0.9077E+02  0.9077E+02
     13.443  0.5531E+01  0.5532E+01  0.9136E+02  0.9137E+02
     13.550  0.4028E+01  0.4011E+01  0.9180E+02  0.9180E+02
     13.657  0.2595E+01  0.2573E+01  0.9207E+02  0.9207E+02
     13.764  0.4508E+01  0.4478E+01  0.9256E+02  0.9255E+02
     13.871  0.6285E+01  0.6287E+01  0.9323E+02  0.9322E+02
     13.978  0.6947E+01  0.7051E+01  0.9397E+02  0.9398E+02
     14.085  0.5835E+01  0.5774E+01  0.9460E+02  0.9460E+02
     14.192  0.4712E+01  0.4472E+01  0.9510E+02  0.9507E+02
     14.299  0.4871E+01  0.4447E+01  0.9562E+02  0.9555E+02
     14.406  0.4568E+01  0.4566E+01  0.9611E+02  0.9604E+02
     14.513  0.5489E+01  0.5303E+01  0.9670E+02  0.9661E+02
     14.619  0.6095E+01  0.6480E+01  0.9735E+02  0.9730E+02
     14.726  0.6621E+01  0.6770E+01  0.9806E+02  0.9803E+02
     14.833  0.7013E+01  0.6570E+01  0.9881E+02  0.9873E+02
     14.940  0.5671E+01  0.4574E+01  0.9942E+02  0.9922E+02
     15.047  0.3613E+01  0.3492E+01  0.9980E+02  0.9959E+02
     15.154  0.1437E+01  0.2423E+01  0.9996E+02  0.9985E+02
     15.261  0.3228E+00  0.1060E+01  0.9999E+02  0.9997E+02
     15.368  0.3852E-01  0.2671E+00  0.1000E+03  0.1000E+03
     15.475  0.3772E-02  0.3342E-01  0.1000E+03  0.1000E+03
     15.582  0.0000E+00  0.3512E-02  0.1000E+03  0.1000E+03
     15.689  0.0000E+00  0.0000E+00  0.1000E+03  0.1000E+03
     15.796  0.0000E+00  0.0000E+00  0.1000E+03  0.1000E+03
     15.902  0.0000E+00  0.0000E+00  0.1000E+03  0.1000E+03
     16.009  0.0000E+00  0.0000E+00  0.1000E+03  0.1000E+03
     16.116  0.0000E+00  0.0000E+00  0.1000E+03  0.1000E+03
     16.223  0.0000E+00  0.0000E+00  0.1000E+03  0.1000E+03
     16.330  0.0000E+00  0.0000E+00  0.1000E+03  0.1000E+03
     16.437  0.0000E+00  0.0000E+00  0.1000E+03  0.1000E+03
     16.544  0.0000E+00  0.0000E+00  0.1000E+03  0.1000E+03
     16.651  0.0000E+00  0.0000E+00  0.1000E+03  0.1000E+03
     16.65088663    -15.42488877  301      4.78290194      1.00000000
    -15.425  0.0000E+00  0.0000E+00  0.0000E+00  0.0000E+00  0.0000E+00  0.0000E+00  0.0000E+00  0.0000E+00  0.0000E+00  0.0000E+00  0.0000E+00  0.0000E+00  0.0000E+00  0.0000E+00  0.0000E+00  0.0000E+00  0.0000E+00  0.0000E+00
    -15.318  0.0000E+00  0.0000E+00  0.0000E+00  0.0000E+00  0.0000E+00  0.0000E+00  0.0000E+00  0.0000E+00  0.0000E+00  0.0000E+00  0.0000E+00  0.0000E+00  0.0000E+00  0.0000E+00  0.0000E+00  0.0000E+00  0.0000E+00  0.0000E+00
    -15.211  0.0000E+00  0.0000E+00  0.0000E+00  0.0000E+00  0.0000E+00  0.0000E+00  0.0000E+00  0.0000E+00  0.0000E+00  0.0000E+00  0.0000E+00  0.0000E+00  0.0000E+00  0.0000E+00  0.0000E+00  0.0000E+00  0.0000E+00  0.0000E+00
    -15.104  0.0000E+00  0.0000E+00  0.0000E+00  0.0000E+00  0.0000E+00  0.0000E+00  0.0000E+00  0.0000E+00  0.0000E+00  0.0000E+00  0.0000E+00  0.0000E+00  0.0000E+00  0.0000E+00  0.0000E+00  0.0000E+00  0.0000E+00  0.0000E+00
    -14.997  0.0000E+00  0.0000E+00  0.0000E+00  0.0000E+00  0.0000E+00  0.0000E+00  0.0000E+00  0.0000E+00  0.0000E+00  0.0000E+00  0.0000E+00  0.0000E+00  0.0000E+00  0.0000E+00  0.0000E+00  0.0000E+00  0.0000E+00  0.0000E+00
    -14.890  0.0000E+00  0.0000E+00  0.0000E+00  0.0000E+00  0.0000E+00  0.0000E+00  0.0000E+00  0.0000E+00  0.0000E+00  0.0000E+00  0.0000E+00  0.0000E+00  0.0000E+00  0.0000E+00  0.0000E+00  0.0000E+00  0.0000E+00  0.0000E+00
    -14.783  0.0000E+00  0.0000E+00  0.0000E+00  0.0000E+00  0.0000E+00  0.0000E+00  0.0000E+00  0.0000E+00  0.0000E+00  0.0000E+00  0.0000E+00  0.0000E+00  0.0000E+00  0.0000E+00  0.0000E+00  0.0000E+00  0.0000E+00  0.0000E+00
    -14.676  0.0000E+00  0.0000E+00  0.0000E+00  0.0000E+00  0.0000E+00  0.0000E+00  0.0000E+00  0.0000E+00  0.0000E+00  0.0000E+00  0.0000E+00  0.0000E+00  0.0000E+00  0.0000E+00  0.0000E+00  0.0000E+00  0.0000E+00  0.0000E+00
    -14.570  0.0000E+00  0.0000E+00  0.0000E+00  0.0000E+00  0.0000E+00  0.0000E+00  0.0000E+00  0.0000E+00  0.0000E+00  0.0000E+00  0.0000E+00  0.0000E+00  0.0000E+00  0.0000E+00  0.0000E+00  0.0000E+00  0.0000E+00  0.0000E+00
    -14.463  0.6936E-07  0.6890E-07  0.7431E-17  0.6674E-17  0.4751E-09  0.4720E-09  0.7431E-17  0.6674E-17  0.0000E+00  0.0000E+00  0.0000E+00  0.0000E+00  0.0000E+00  0.0000E+00  0.0000E+00  0.0000E+00  0.0000E+00  0.0000E+00
    -14.356  0.5190E-06  0.5156E-06  0.5561E-16  0.4994E-16  0.3555E-08  0.3531E-08  0.5561E-16  0.4994E-16  0.0000E+00  0.0000E+00  0.0000E+00  0.0000E+00  0.0000E+00  0.0000E+00  0.0000E+00  0.0000E+00  0.0000E+00  0.0000E+00
    -14.249  0.6860E-05  0.6814E-05  0.4415E-07  0.4384E-07  0.5710E-07  0.5671E-07  0.4415E-07  0.4384E-07  0.0000E+00  0.0000E+00  0.0000E+00  0.0000E+00  0.0000E+00  0.0000E+00  0.0000E+00  0.0000E+00  0.0000E+00  0.0000E+00
    -14.142  0.5544E-04  0.5507E-04  0.3457E-06  0.3433E-06  0.4909E-06  0.4876E-06  0.3457E-06  0.3433E-06  0.0000E+00  0.0000E+00  0.0000E+00  0.0000E+00  0.0000E+00  0.0000E+00  0.0000E+00  0.0000E+00  0.0000E+00  0.0000E+00
    -14.035  0.4061E-03  0.4038E-03  0.2946E-05  0.2926E-05  0.3687E-05  0.3665E-05  0.2946E-05  0.2926E-05  0.0000E+00  0.0000E+00  0.0000E+00  0.0000E+00  0.0000E+00  0.0000E+00  0.0000E+00  0.0000E+00  0.0000E+00  0.0000E+00
    -13.928  0.1851E-02  0.1844E-02  0.2155E-04  0.2142E-04  0.1990E-04  0.1981E-04  0.2155E-04  0.2142E-04  0.0000E+00  0.0000E+00  0.0000E+00  0.0000E+00  0.0000E+00  0.0000E+00  0.0000E+00  0.0000E+00  0.0000E+00  0.0000E+00
    -13.821  0.4822E-02  0.4814E-02  0.8219E-04  0.8197E-04  0.7433E-04  0.7407E-04  0.8219E-04  0.8197E-04  0.0000E+00  0.0000E+00  0.0000E+00  0.0000E+00  0.0000E+00  0.0000E+00  0.0000E+00  0.0000E+00  0.0000E+00  0.0000E+00
    -13.714  0.6093E-02  0.6091E-02  0.1423E-03  0.1420E-03  0.1724E-03  0.1720E-03  0.1423E-03  0.1420E-03  0.0000E+00  0.0000E+00  0.0000E+00  0.0000E+00  0.0000E+00  0.0000E+00  0.0000E+00  0.0000E+00  0.0000E+00  0.0000E+00
    -13.607  0.7678E-02  0.7674E-02  0.3229E-03  0.3220E-03  0.2663E-03  0.2661E-03  0.3229E-03  0.3220E-03  0.0000E+00  0.0000E+00  0.0000E+00  0.0000E+00  0.0000E+00  0.0000E+00  0.0000E+00  0.0000E+00  0.0000E+00  0.0000E+00
    -13.500  0.9308E-02  0.9301E-02  0.5693E-03  0.5684E-03  0.4149E-03  0.4137E-03  0.5693E-03  0.5684E-03  0.0000E+00  0.0000E+00  0.0000E+00  0.0000E+00  0.0000E+00  0.0000E+00  0.0000E+00  0.0000E+00  0.0000E+00  0.0000E+00
    -13.393  0.1085E-01  0.1085E-01  0.7039E-03  0.7038E-03  0.7900E-03  0.7891E-03  0.7039E-03  0.7038E-03  0.0000E+00  0.0000E+00  0.0000E+00  0.0000E+00  0.0000E+00  0.0000E+00  0.0000E+00  0.0000E+00  0.0000E+00  0.0000E+00
    -13.287  0.9282E-02  0.9283E-02  0.8476E-03  0.8457E-03  0.8329E-03  0.8327E-03  0.8476E-03  0.8457E-03  0.0000E+00  0.0000E+00  0.0000E+00  0.0000E+00  0.0000E+00  0.0000E+00  0.0000E+00  0.0000E+00  0.0000E+00  0.0000E+00
    -13.180  0.1225E-01  0.1224E-01  0.1646E-02  0.1643E-02  0.1227E-02  0.1224E-02  0.1646E-02  0.1643E-02  0.0000E+00  0.0000E+00  0.0000E+00  0.0000E+00  0.0000E+00  0.0000E+00  0.0000E+00  0.0000E+00  0.0000E+00  0.0000E+00
    -13.073  0.1211E-01  0.1212E-01  0.1801E-02  0.1802E-02  0.1772E-02  0.1770E-02  0.1801E-02  0.1802E-02  0.0000E+00  0.0000E+00  0.0000E+00  0.0000E+00  0.0000E+00  0.0000E+00  0.0000E+00  0.0000E+00  0.0000E+00  0.0000E+00
    -12.966  0.8657E-02  0.8669E-02  0.1591E-02  0.1590E-02  0.1943E-02  0.1943E-02  0.1591E-02  0.1590E-02  0.0000E+00  0.0000E+00  0.0000E+00  0.0000E+00  0.0000E+00  0.0000E+00  0.0000E+00  0.0000E+00  0.0000E+00  0.0000E+00
    -12.859  0.6647E-02  0.6654E-02  0.1906E-02  0.1904E-02  0.1981E-02  0.1979E-02  0.1906E-02  0.1904E-02  0.0000E+00  0.0000E+00  0.0000E+00  0.0000E+00  0.0000E+00  0.0000E+00  0.0000E+00  0.0000E+00  0.0000E+00  0.0000E+00
    -12.752  0.6166E-02  0.6164E-02  0.2579E-02  0.2575E-02  0.2778E-02  0.2773E-02  0.2579E-02  0.2575E-02  0.0000E+00  0.0000E+00  0.0000E+00  0.0000E+00  0.0000E+00  0.0000E+00  0.0000E+00  0.0000E+00  0.0000E+00  0.0000E+00
    -12.645  0.6487E-02  0.6487E-02  0.3787E-02  0.3779E-02  0.3402E-02  0.3401E-02  0.3787E-02  0.3779E-02  0.0000E+00  0.0000E+00  0.0000E+00  0.0000E+00  0.0000E+00  0.0000E+00  0.0000E+00  0.0000E+00  0.0000E+00  0.0000E+00
    -12.538  0.6403E-02  0.6402E-02  0.6099E-02  0.6087E-02  0.3968E-02  0.3964E-02  0.6099E-02  0.6087E-02  0.0000E+00  0.0000E+00  0.0000E+00  0.0000E+00  0.0000E+00  0.0000E+00  0.0000E+00  0.0000E+00  0.0000E+00  0.0000E+00
    -12.431  0.6332E-02  0.6334E-02  0.7561E-02  0.7561E-02  0.4382E-02  0.4381E-02  0.7561E-02  0.7561E-02  0.0000E+00  0.0000E+00  0.0000E+00  0.0000E+00  0.0000E+00  0.0000E+00  0.0000E+00  0.0000E+00  0.0000E+00  0.0000E+00
    -12.324  0.6452E-02  0.6449E-02  0.6713E-02  0.6719E-02  0.4787E-02  0.4783E-02  0.6713E-02  0.6719E-02  0.0000E+00  0.0000E+00  0.0000E+00  0.0000E+00  0.0000E+00  0.0000E+00  0.0000E+00  0.0000E+00  0.0000E+00  0.0000E+00
    -12.217  0.5907E-02  0.5915E-02  0.5124E-02  0.5133E-02  0.4826E-02  0.4829E-02  0.5124E-02  0.5133E-02  0.0000E+00  0.0000E+00  0.0000E+00  0.0000E+00  0.0000E+00  0.0000E+00  0.0000E+00  0.0000E+00  0.0000E+00  0.0000E+00
    -12.110  0.3887E-02  0.3899E-02  0.3293E-02  0.3304E-02  0.3532E-02  0.3542E-02  0.3293E-02  0.3304E-02  0.0000E+00  0.0000E+00  0.0000E+00  0.0000E+00  0.0000E+00  0.0000E+00  0.0000E+00  0.0000E+00  0.0000E+00  0.0000E+00
    -12.003  0.1428E-02  0.1439E-02  0.1176E-02  0.1186E-02  0.1276E-02  0.1287E-02  0.1176E-02  0.1186E-02  0.0000E+00  0.0000E+00  0.0000E+00  0.0000E+00  0.0000E+00  0.0000E+00  0.0000E+00  0.0000E+00  0.0000E+00  0.0000E+00
    -11.897  0.2297E-03  0.2323E-03  0.1871E-03  0.1902E-03  0.2002E-03  0.2024E-03  0.1871E-03  0.1902E-03  0.0000E+00  0.0000E+00  0.0000E+00  0.0000E+00  0.0000E+00  0.0000E+00  0.0000E+00  0.0000E+00  0.0000E+00  0.0000E+00
    -11.790  0.2340E-04  0.2366E-04  0.1909E-04  0.1931E-04  0.1911E-04  0.1933E-04  0.1909E-04  0.1931E-04  0.0000E+00  0.0000E+00  0.0000E+00  0.0000E+00  0.0000E+00  0.0000E+00  0.0000E+00  0.0000E+00  0.0000E+00  0.0000E+00
    -11.683  0.0000E+00  0.0000E+00  0.0000E+00  0.0000E+00  0.0000E+00  0.0000E+00  0.0000E+00  0.0000E+00  0.0000E+00  0.0000E+00  0.0000E+00  0.0000E+00  0.0000E+00  0.0000E+00  0.0000E+00  0.0000E+00  0.0000E+00  0.0000E+00
    -11.576  0.0000E+00  0.0000E+00  0.0000E+00  0.0000E+00  0.0000E+00  0.0000E+00  0.0000E+00  0.0000E+00  0.0000E+00  0.0000E+00  0.0000E+00  0.0000E+00  0.0000E+00  0.0000E+00  0.0000E+00  0.0000E+00  0.0000E+00  0.0000E+00
    -11.469  0.0000E+00  0.0000E+00  0.0000E+00  0.0000E+00  0.0000E+00  0.0000E+00  0.0000E+00  0.0000E+00  0.0000E+00  0.0000E+00  0.0000E+00  0.0000E+00  0.0000E+00  0.0000E+00  0.0000E+00  0.0000E+00  0.0000E+00  0.0000E+00
    -11.362  0.0000E+00  0.0000E+00  0.0000E+00  0.0000E+00  0.0000E+00  0.0000E+00  0.0000E+00  0.0000E+00  0.0000E+00  0.0000E+00  0.0000E+00  0.0000E+00  0.0000E+00  0.0000E+00  0.0000E+00  0.0000E+00  0.0000E+00  0.0000E+00
    -11.255  0.0000E+00  0.0000E+00  0.0000E+00  0.0000E+00  0.0000E+00  0.0000E+00  0.0000E+00  0.0000E+00  0.0000E+00  0.0000E+00  0.0000E+00  0.0000E+00  0.0000E+00  0.0000E+00  0.0000E+00  0.0000E+00  0.0000E+00  0.0000E+00
    -11.148  0.0000E+00  0.0000E+00  0.0000E+00  0.0000E+00  0.0000E+00  0.0000E+00  0.0000E+00  0.0000E+00  0.0000E+00  0.0000E+00  0.0000E+00  0.0000E+00  0.0000E+00  0.0000E+00  0.0000E+00  0.0000E+00  0.0000E+00  0.0000E+00
    -11.041  0.0000E+00  0.0000E+00  0.0000E+00  0.0000E+00  0.0000E+00  0.0000E+00  0.0000E+00  0.0000E+00  0.0000E+00  0.0000E+00  0.0000E+00  0.0000E+00  0.0000E+00  0.0000E+00  0.0000E+00  0.0000E+00  0.0000E+00  0.0000E+00
    -10.934  0.0000E+00  0.0000E+00  0.0000E+00  0.0000E+00  0.0000E+00  0.0000E+00  0.0000E+00  0.0000E+00  0.0000E+00  0.0000E+00  0.0000E+00  0.0000E+00  0.0000E+00  0.0000E+00  0.0000E+00  0.0000E+00  0.0000E+00  0.0000E+00
    -10.827  0.0000E+00  0.0000E+00  0.0000E+00  0.0000E+00  0.0000E+00  0.0000E+00  0.0000E+00  0.0000E+00  0.0000E+00  0.0000E+00  0.0000E+00  0.0000E+00  0.0000E+00  0.0000E+00  0.0000E+00  0.0000E+00  0.0000E+00  0.0000E+00
    -10.720  0.0000E+00  0.0000E+00  0.0000E+00  0.0000E+00  0.0000E+00  0.0000E+00  0.0000E+00  0.0000E+00  0.0000E+00  0.0000E+00  0.0000E+00  0.0000E+00  0.0000E+00  0.0000E+00  0.0000E+00  0.0000E+00  0.0000E+00  0.0000E+00
    -10.614  0.0000E+00  0.0000E+00  0.0000E+00  0.0000E+00  0.0000E+00  0.0000E+00  0.0000E+00  0.0000E+00  0.0000E+00  0.0000E+00  0.0000E+00  0.0000E+00  0.0000E+00  0.0000E+00  0.0000E+00  0.0000E+00  0.0000E+00  0.0000E+00
    -10.507  0.0000E+00  0.0000E+00  0.0000E+00  0.0000E+00  0.0000E+00  0.0000E+00  0.0000E+00  0.0000E+00  0.0000E+00  0.0000E+00  0.0000E+00  0.0000E+00  0.0000E+00  0.0000E+00  0.0000E+00  0.0000E+00  0.0000E+00  0.0000E+00
    -10.400  0.0000E+00  0.0000E+00  0.0000E+00  0.0000E+00  0.0000E+00  0.0000E+00  0.0000E+00  0.0000E+00  0.0000E+00  0.0000E+00  0.0000E+00  0.0000E+00  0.0000E+00  0.0000E+00  0.0000E+00  0.0000E+00  0.0000E+00  0.0000E+00
    -10.293  0.0000E+00  0.0000E+00  0.0000E+00  0.0000E+00  0.0000E+00  0.0000E+00  0.0000E+00  0.0000E+00  0.0000E+00  0.0000E+00  0.0000E+00  0.0000E+00  0.0000E+00  0.0000E+00  0.0000E+00  0.0000E+00  0.0000E+00  0.0000E+00
    -10.186  0.0000E+00  0.0000E+00  0.0000E+00  0.0000E+00  0.0000E+00  0.0000E+00  0.0000E+00  0.0000E+00  0.0000E+00  0.0000E+00  0.0000E+00  0.0000E+00  0.0000E+00  0.0000E+00  0.0000E+00  0.0000E+00  0.0000E+00  0.0000E+00
    -10.079  0.0000E+00  0.0000E+00  0.0000E+00  0.0000E+00  0.0000E+00  0.0000E+00  0.0000E+00  0.0000E+00  0.0000E+00  0.0000E+00  0.0000E+00  0.0000E+00  0.0000E+00  0.0000E+00  0.0000E+00  0.0000E+00  0.0000E+00  0.0000E+00