  30  30   1   0
  0.9833566E+01  0.4997229E-09  0.4997229E-09  0.1364090E-08  0.5000000E-15
  1.000000000000000E-004
  CAR 
 unknown system                          
     18.75984202    -15.12917322  301      5.76916316      1.00000000
    -15.129  0.0000E+00  0.0000E+00  0.0000E+00  0.0000E+00
    -15.016  0.0000E+00  0.0000E+00  0.0000E+00  0.0000E+00
    -14.903  0.0000E+00  0.0000E+00  0.0000E+00  0.0000E+00
    -14.790  0.0000E+00  0.0000E+00  0.0000E+00  0.0000E+00
    -14.677  0.0000E+00  0.0000E+00  0.0000E+00  0.0000E+00
    -14.564  0.0000E+00  0.0000E+00  0.0000E+00  0.0000E+00
    -14.451  0.0000E+00  0.0000E+00  0.0000E+00  0.0000E+00
    -14.338  0.0000E+00  0.0000E+00  0.0000E+00  0.0000E+00
    -14.225  0.0000E+00  0.0000E+00  0.0000E+00  0.0000E+00
    -14.113  0.0000E+00  0.0000E+00  0.0000E+00  0.0000E+00
    -14.000  0.9573E-04  0.9533E-04  0.1081E-04  0.1077E-04
    -13.887  0.1115E-02  0.1110E-02  0.1367E-03  0.1362E-03
    -13.774  0.1019E-01  0.1015E-01  0.1288E-02  0.1282E-02
    -13.661  0.8411E-01  0.8381E-01  0.1079E-01  0.1075E-01
    -13.548  0.3916E+00  0.3907E+00  0.5503E-01  0.5488E-01
    -13.435  0.1139E+01  0.1138E+01  0.1837E+00  0.1834E+00
    -13.322  0.1485E+01  0.1485E+01  0.3516E+00  0.3512E+00
    -13.209  0.1894E+01  0.1892E+01  0.5655E+00  0.5650E+00
    -13.096  0.2389E+01  0.2387E+01  0.8353E+00  0.8347E+00
    -12.983  0.3284E+01  0.3281E+01  0.1207E+01  0.1206E+01
    -12.870  0.3600E+01  0.3601E+01  0.1613E+01  0.1612E+01
    -12.757  0.3044E+01  0.3043E+01  0.1958E+01  0.1957E+01
    -12.644  0.5380E+01  0.5374E+01  0.2566E+01  0.2564E+01
    -12.531  0.5983E+01  0.5984E+01  0.3242E+01  0.3240E+01
    -12.418  0.4861E+01  0.4863E+01  0.3791E+01  0.3790E+01
    -12.305  0.4588E+01  0.4588E+01  0.4310E+01  0.4308E+01
    -12.192  0.4693E+01  0.4691E+01  0.4841E+01  0.4839E+01
    -12.079  0.6384E+01  0.6378E+01  0.5563E+01  0.5560E+01
    -11.966  0.7784E+01  0.7779E+01  0.6442E+01  0.6439E+01
    -11.853  0.1083E+02  0.1082E+02  0.7666E+01  0.7662E+01
    -11.740  0.1464E+02  0.1463E+02  0.9321E+01  0.9316E+01
    -11.627  0.1562E+02  0.1561E+02  0.1109E+02  0.1108E+02
    -11.514  0.1834E+02  0.1833E+02  0.1316E+02  0.1315E+02
    -11.401  0.1851E+02  0.1851E+02  0.1525E+02  0.1525E+02
    -11.288  0.1658E+02  0.1660E+02  0.1713E+02  0.1712E+02
    -11.175  0.6577E+01  0.6610E+01  0.1787E+02  0.1787E+02
    -11.062  0.9833E+00  0.9904E+00  0.1799E+02  0.1799E+02
    -10.950  0.8898E-01  0.8966E-01  0.1800E+02  0.1800E+02
    -10.837  0.0000E+00  0.0000E+00  0.1800E+02  0.1800E+02
    -10.724  0.0000E+00  0.0000E+00  0.1800E+02  0.1800E+02
    -10.611  0.0000E+00  0.0000E+00  0.1800E+02  0.1800E+02
    -10.498  0.0000E+00  0.0000E+00  0.1800E+02  0.1800E+02
    -10.385  0.0000E+00  0.0000E+00  0.1800E+02  0.1800E+02
    -10.272  0.0000E+00  0.0000E+00  0.1800E+02  0.1800E+02
    -10.159  0.0000E+00  0.0000E+00  0.1800E+02  0.1800E+02
    -10.046  0.0000E+00  0.0000E+00  0.1800E+02  0.1800E+02
     -9.933  0.0000E+00  0.0000E+00  0.1800E+02  0.1800E+02
     -9.820  0.0000E+00  0.0000E+00  0.1800E+02  0.1800E+02
     -9.707  0.0000E+00  0.0000E+00  0.1800E+02  0.1800E+02
     -9.594  0.0000E+00  0.0000E+00  0.1800E+02  0.1800E+02
     -9.481  0.0000E+00  0.0000E+00  0.1800E+02  0.1800E+02
     -9.368  0.0000E+00  0.0000E+00  0.1800E+02  0.1800E+02
     -9.255  0.0000E+00  0.0000E+00  0.1800E+02  0.1800E+02
     -9.142  0.0000E+00  0.0000E+00  0.1800E+02  0.1800E+02
     -9.029  0.0000E+00  0.0000E+00  0.1800E+02  0.1800E+02
     -8.916  0.0000E+00  0.0000E+00  0.1800E+02  0.1800E+02
     -8.803  0.0000E+00  0.0000E+00  0.1800E+02  0.1800E+02
     -8.690  0.0000E+00  0.0000E+00  0.1800E+02  0.1800E+02
     -8.577  0.0000E+00  0.0000E+00  0.1800E+02  0.1800E+02
     -8.464  0.0000E+00  0.0000E+00  0.1800E+02  0.1800E+02
     -8.351  0.0000E+00  0.0000E+00  0.1800E+02  0.1800E+02
     -8.238  0.0000E+00  0.0000E+00  0.1800E+02  0.1800E+02
     -8.125  0.0000E+00  0.0000E+00  0.1800E+02  0.1800E+02
     -8.012  0.0000E+00  0.0000E+00  0.1800E+02  0.1800E+02
     -7.900  0.0000E+00  0.0000E+00  0.1800E+02  0.1800E+02
     -7.787  0.0000E+00  0.0000E+00  0.1800E+02  0.1800E+02
     -7.674  0.0000E+00  0.0000E+00  0.1800E+02  0.1800E+02
     -7.561  0.0000E+00  0.0000E+00  0.1800E+02  0.1800E+02
     -7.448  0.0000E+00  0.0000E+00  0.1800E+02  0.1800E+02
     -7.335  0.0000E+00  0.0000E+00  0.1800E+02  0.1800E+02
     -7.222  0.0000E+00  0.0000E+00  0.1800E+02  0.1800E+02
     -7.109  0.0000E+00  0.0000E+00  0.1800E+02  0.1800E+02
     -6.996  0.0000E+00  0.0000E+00  0.1800E+02  0.1800E+02
     -6.883  0.0000E+00  0.0000E+00  0.1800E+02  0.1800E+02
     -6.770  0.0000E+00  0.0000E+00  0.1800E+02  0.1800E+02
     -6.657  0.0000E+00  0.0000E+00  0.1800E+02  0.1800E+02
     -6.544  0.0000E+00  0.0000E+00  0.1800E+02  0.1800E+02
     -6.431  0.0000E+00  0.0000E+00  0.1800E+02  0.1800E+02
     -6.318  0.0000E+00  0.0000E+00  0.1800E+02  0.1800E+02
     -6.205  0.0000E+00  0.0000E+00  0.1800E+02  0.1800E+02
     -6.092  0.0000E+00  0.0000E+00  0.1800E+02  0.1800E+02
     -5.979  0.0000E+00  0.0000E+00  0.1800E+02  0.1800E+02
     -5.866  0.0000E+00  0.0000E+00  0.1800E+02  0.1800E+02
     -5.753  0.0000E+00  0.0000E+00  0.1800E+02  0.1800E+02
     -5.640  0.0000E+00  0.0000E+00  0.1800E+02  0.1800E+02
     -5.527  0.0000E+00  0.0000E+00  0.1800E+02  0.1800E+02
     -5.414  0.0000E+00  0.0000E+00  0.1800E+02  0.1800E+02
     -5.301  0.0000E+00  0.0000E+00  0.1800E+02  0.1800E+02
     -5.188  0.0000E+00  0.0000E+00  0.1800E+02  0.1800E+02
     -5.075  0.0000E+00  0.0000E+00  0.1800E+02  0.1800E+02
     -4.962  0.0000E+00  0.0000E+00  0.1800E+02  0.1800E+02
     -4.850  0.0000E+00  0.0000E+00  0.1800E+02  0.1800E+02
     -4.737  0.0000E+00  0.0000E+00  0.1800E+02  0.1800E+02
     -4.624  0.0000E+00  0.0000E+00  0.1800E+02  0.1800E+02
     -4.511  0.0000E+00  0.0000E+00  0.1800E+02  0.1800E+02
     -4.398  0.0000E+00  0.0000E+00  0.1800E+02  0.1800E+02
     -4.285  0.0000E+00  0.0000E+00  0.1800E+02  0.1800E+02
     -4.172  0.0000E+00  0.0000E+00  0.1800E+02  0.1800E+02
     -4.059  0.0000E+00  0.0000E+00  0.1800E+02  0.1800E+02
     -3.946  0.0000E+00  0.0000E+00  0.1800E+02  0.1800E+02
     -3.833  0.0000E+00  0.0000E+00  0.1800E+02  0.1800E+02
     -3.720  0.0000E+00  0.0000E+00  0.1800E+02  0.1800E+02
     -3.607  0.0000E+00  0.0000E+00  0.1800E+02  0.1800E+02
     -3.494  0.0000E+00  0.0000E+00  0.1800E+02  0.1800E+02
     -3.381  0.0000E+00  0.0000E+00  0.1800E+02  0.1800E+02
     -3.268  0.0000E+00  0.0000E+00  0.1800E+02  0.1800E+02
     -3.155  0.0000E+00  0.0000E+00  0.1800E+02  0.1800E+02
     -3.042  0.0000E+00  0.0000E+00  0.1800E+02  0.1800E+02
     -2.929  0.0000E+00  0.0000E+00  0.1800E+02  0.1800E+02
     -2.816  0.0000E+00  0.0000E+00  0.1800E+02  0.1800E+02
     -2.703  0.0000E+00  0.0000E+00  0.1800E+02  0.1800E+02
     -2.590  0.0000E+00  0.0000E+00  0.1800E+02  0.1800E+02
     -2.477  0.0000E+00  0.0000E+00  0.1800E+02  0.1800E+02
     -2.364  0.0000E+00  0.0000E+00  0.1800E+02  0.1800E+02
     -2.251  0.0000E+00  0.0000E+00  0.1800E+02  0.1800E+02
     -2.138  0.0000E+00  0.0000E+00  0.1800E+02  0.1800E+02
     -2.025  0.0000E+00  0.0000E+00  0.1800E+02  0.1800E+02
     -1.912  0.1028E-03  0.1027E-03  0.1800E+02  0.1800E+02
     -1.799  0.1270E-02  0.1269E-02  0.1800E+02  0.1800E+02
     -1.687  0.1173E-01  0.1173E-01  0.1800E+02  0.1800E+02
     -1.574  0.9602E-01  0.9599E-01  0.1801E+02  0.1801E+02
     -1.461  0.4561E+00  0.4560E+00  0.1806E+02  0.1806E+02
     -1.348  0.1231E+01  0.1231E+01  0.1820E+02  0.1820E+02
     -1.235  0.1591E+01  0.1591E+01  0.1838E+02  0.1838E+02
     -1.122  0.2351E+01  0.2351E+01  0.1865E+02  0.1865E+02
     -1.009  0.4304E+01  0.4304E+01  0.1913E+02  0.1913E+02
     -0.896  0.8458E+01  0.8457E+01  0.2009E+02  0.2009E+02
     -0.783  0.8756E+01  0.8756E+01  0.2108E+02  0.2108E+02
     -0.670  0.8440E+01  0.8439E+01  0.2203E+02  0.2203E+02
     -0.557  0.9332E+01  0.9332E+01  0.2309E+02  0.2309E+02
     -0.444  0.9081E+01  0.9081E+01  0.2412E+02  0.2412E+02
     -0.331  0.6207E+01  0.6208E+01  0.2482E+02  0.2482E+02
     -0.218  0.5527E+01  0.5526E+01  0.2544E+02  0.2544E+02
     -0.105  0.5933E+01  0.5933E+01  0.2612E+02  0.2611E+02
      0.008  0.5161E+01  0.5160E+01  0.2670E+02  0.2670E+02
      0.121  0.5493E+01  0.5493E+01  0.2732E+02  0.2732E+02
      0.234  0.6134E+01  0.6133E+01  0.2801E+02  0.2801E+02
      0.347  0.6395E+01  0.6396E+01  0.2874E+02  0.2874E+02
      0.460  0.6799E+01  0.6798E+01  0.2951E+02  0.2951E+02
      0.573  0.5892E+01  0.5894E+01  0.3017E+02  0.3017E+02
      0.686  0.3117E+01  0.3118E+01  0.3053E+02  0.3052E+02
      0.799  0.3726E+01  0.3724E+01  0.3095E+02  0.3095E+02
      0.912  0.8056E+01  0.8053E+01  0.3186E+02  0.3186E+02
      1.025  0.9262E+01  0.9262E+01  0.3290E+02  0.3290E+02
      1.138  0.1001E+02  0.1001E+02  0.3404E+02  0.3403E+02
      1.251  0.9929E+01  0.9931E+01  0.3516E+02  0.3516E+02
      1.363  0.6838E+01  0.6840E+01  0.3593E+02  0.3593E+02
      1.476  0.6446E+01  0.6443E+01  0.3666E+02  0.3666E+02
      1.589  0.6921E+01  0.6922E+01  0.3744E+02  0.3744E+02
      1.702  0.5666E+01  0.5663E+01  0.3809E+02  0.3808E+02
      1.815  0.7534E+01  0.7531E+01  0.3894E+02  0.3894E+02
      1.928  0.7154E+01  0.7157E+01  0.3975E+02  0.3975E+02
      2.041  0.5736E+01  0.5735E+01  0.4039E+02  0.4039E+02
      2.154  0.5616E+01  0.5621E+01  0.4103E+02  0.4103E+02
      2.267  0.6433E+01  0.6429E+01  0.4176E+02  0.4176E+02
      2.380  0.7817E+01  0.7814E+01  0.4264E+02  0.4264E+02
      2.493  0.9297E+01  0.9290E+01  0.4369E+02  0.4369E+02
      2.606  0.1314E+02  0.1313E+02  0.4518E+02  0.4518E+02
      2.719  0.1479E+02  0.1479E+02  0.4685E+02  0.4685E+02
      2.832  0.1065E+02  0.1065E+02  0.4805E+02  0.4805E+02
      2.945  0.7983E+01  0.7986E+01  0.4896E+02  0.4896E+02
      3.058  0.9191E+01  0.9181E+01  0.5000E+02  0.4999E+02
      3.171  0.1236E+02  0.1235E+02  0.5140E+02  0.5139E+02
      3.284  0.1490E+02  0.1490E+02  0.5308E+02  0.5308E+02
      3.397  0.1555E+02  0.1555E+02  0.5484E+02  0.5483E+02
      3.510  0.1513E+02  0.1513E+02  0.5655E+02  0.5654E+02
      3.623  0.1543E+02  0.1543E+02  0.5830E+02  0.5829E+02
      3.736  0.1356E+02  0.1356E+02  0.5983E+02  0.5983E+02
      3.849  0.1285E+02  0.1285E+02  0.6128E+02  0.6128E+02
      3.962  0.1358E+02  0.1358E+02  0.6282E+02  0.6282E+02
      4.075  0.1447E+02  0.1446E+02  0.6446E+02  0.6445E+02
      4.188  0.1577E+02  0.1577E+02  0.6624E+02  0.6623E+02
      4.301  0.1605E+02  0.1605E+02  0.6806E+02  0.6805E+02
      4.413  0.1644E+02  0.1644E+02  0.6992E+02  0.6991E+02
      4.526  0.1180E+02  0.1182E+02  0.7125E+02  0.7125E+02
      4.639  0.5292E+01  0.5313E+01  0.7185E+02  0.7185E+02
      4.752  0.1158E+01  0.1167E+01  0.7198E+02  0.7198E+02
      4.865  0.1201E+00  0.1211E+00  0.7200E+02  0.7200E+02
      4.978  0.5440E-02  0.5487E-02  0.7200E+02  0.7200E+02
      5.091  0.0000E+00  0.0000E+00  0.7200E+02  0.7200E+02
      5.204  0.0000E+00  0.0000E+00  0.7200E+02  0.7200E+02
      5.317  0.0000E+00  0.0000E+00  0.7200E+02  0.7200E+02
      5.430  0.0000E+00  0.0000E+00  0.7200E+02  0.7200E+02
      5.543  0.0000E+00  0.0000E+00  0.7200E+02  0.7200E+02
      5.656  0.0000E+00  0.0000E+00  0.7200E+02  0.7200E+02
      5.769  0.0000E+00  0.0000E+00  0.7200E+02  0.7200E+02
      5.882  0.0000E+00  0.0000E+00  0.7200E+02  0.7200E+02
      5.995  0.0000E+00  0.0000E+00  0.7200E+02  0.7200E+02
      6.108  0.0000E+00  0.0000E+00  0.7200E+02  0.7200E+02
      6.221  0.0000E+00  0.0000E+00  0.7200E+02  0.7200E+02
      6.334  0.0000E+00  0.0000E+00  0.7200E+02  0.7200E+02
      6.447  0.0000E+00  0.0000E+00  0.7200E+02  0.7200E+02
      6.560  0.0000E+00  0.0000E+00  0.7200E+02  0.7200E+02
      6.673  0.0000E+00  0.0000E+00  0.7200E+02  0.7200E+02
      6.786  0.0000E+00  0.0000E+00  0.7200E+02  0.7200E+02
      6.899  0.0000E+00  0.0000E+00  0.7200E+02  0.7200E+02
      7.012  0.0000E+00  0.0000E+00  0.7200E+02  0.7200E+02
      7.125  0.0000E+00  0.0000E+00  0.7200E+02  0.7200E+02
      7.238  0.0000E+00  0.0000E+00  0.7200E+02  0.7200E+02
      7.351  0.0000E+00  0.0000E+00  0.7200E+02  0.7200E+02
      7.464  0.0000E+00  0.0000E+00  0.7200E+02  0.7200E+02
      7.576  0.0000E+00  0.0000E+00  0.7200E+02  0.7200E+02
      7.689  0.0000E+00  0.0000E+00  0.7200E+02  0.7200E+02
      7.802  0.0000E+00  0.0000E+00  0.7200E+02  0.7200E+02
      7.915  0.0000E+00  0.0000E+00  0.7200E+02  0.7200E+02
      8.028  0.0000E+00  0.0000E+00  0.7200E+02  0.7200E+02
      8.141  0.0000E+00  0.0000E+00  0.7200E+02  0.7200E+02
      8.254  0.0000E+00  0.0000E+00  0.7200E+02  0.7200E+02
      8.367  0.0000E+00  0.0000E+00  0.7200E+02  0.7200E+02
      8.480  0.0000E+00  0.0000E+00  0.7200E+02  0.7200E+02
      8.593  0.0000E+00  0.0000E+00  0.7200E+02  0.7200E+02
      8.706  0.0000E+00  0.0000E+00  0.7200E+02  0.7200E+02
      8.819  0.1034E-03  0.1043E-03  0.7200E+02  0.7200E+02
      8.932  0.8845E-03  0.8920E-03  0.7200E+02  0.7200E+02
      9.045  0.8251E-02  0.8320E-02  0.7200E+02  0.7200E+02
      9.158  0.6306E-01  0.6347E-01  0.7201E+02  0.7201E+02
      9.271  0.1794E+00  0.1795E+00  0.7203E+02  0.7203E+02
      9.384  0.8800E-01  0.8750E-01  0.7204E+02  0.7204E+02
      9.497  0.1287E-01  0.1277E-01  0.7204E+02  0.7204E+02
      9.610  0.2023E-02  0.2015E-02  0.7204E+02  0.7204E+02
      9.723  0.5415E-02  0.5452E-02  0.7204E+02  0.7204E+02
      9.836  0.5044E-01  0.5077E-01  0.7205E+02  0.7205E+02
      9.949  0.3866E+00  0.3886E+00  0.7209E+02  0.7209E+02
     10.062  0.1135E+01  0.1136E+01  0.7222E+02  0.7222E+02
     10.175  0.7049E+00  0.7026E+00  0.7230E+02  0.7230E+02
     10.288  0.1710E+00  0.1701E+00  0.7232E+02  0.7232E+02
     10.401  0.2472E-01  0.2459E-01  0.7232E+02  0.7232E+02
     10.514  0.2283E-01  0.2294E-01  0.7232E+02  0.7232E+02
     10.626  0.1844E+00  0.1853E+00  0.7234E+02  0.7234E+02
     10.739  0.8771E+00  0.8790E+00  0.7244E+02  0.7244E+02
     10.852  0.8713E+00  0.8695E+00  0.7254E+02  0.7254E+02
     10.965  0.3725E+00  0.3727E+00  0.7258E+02  0.7258E+02
     11.078  0.9376E+00  0.9395E+00  0.7269E+02  0.7269E+02
     11.191  0.9100E+00  0.9082E+00  0.7279E+02  0.7279E+02
     11.304  0.3699E+00  0.3691E+00  0.7283E+02  0.7283E+02
     11.417  0.3640E+00  0.3650E+00  0.7287E+02  0.7288E+02
     11.530  0.1543E+01  0.1547E+01  0.7305E+02  0.7305E+02
     11.643  0.2185E+01  0.2184E+01  0.7330E+02  0.7330E+02
     11.756  0.1551E+01  0.1550E+01  0.7347E+02  0.7347E+02
     11.869  0.1157E+01  0.1157E+01  0.7360E+02  0.7360E+02
     11.982  0.1232E+01  0.1232E+01  0.7374E+02  0.7374E+02
     12.095  0.6772E+00  0.6763E+00  0.7382E+02  0.7382E+02
     12.208  0.6728E+00  0.6745E+00  0.7390E+02  0.7390E+02
     12.321  0.2603E+01  0.2611E+01  0.7419E+02  0.7419E+02
     12.434  0.4717E+01  0.4719E+01  0.7472E+02  0.7472E+02
     12.547  0.4789E+01  0.4791E+01  0.7526E+02  0.7526E+02
     12.660  0.5350E+01  0.5351E+01  0.7587E+02  0.7587E+02
     12.773  0.5495E+01  0.5495E+01  0.7649E+02  0.7649E+02
     12.886  0.4634E+01  0.4628E+01  0.7701E+02  0.7701E+02
     12.999  0.4029E+01  0.4034E+01  0.7747E+02  0.7747E+02
     13.112  0.6448E+01  0.6455E+01  0.7820E+02  0.7820E+02
     13.225  0.7889E+01  0.7890E+01  0.7909E+02  0.7909E+02
     13.338  0.5991E+01  0.5981E+01  0.7977E+02  0.7977E+02
     13.451  0.5620E+01  0.5624E+01  0.8040E+02  0.8041E+02
     13.564  0.8392E+01  0.8395E+01  0.8135E+02  0.8135E+02
     13.676  0.7324E+01  0.7320E+01  0.8218E+02  0.8218E+02
     13.789  0.5176E+01  0.5175E+01  0.8277E+02  0.8277E+02
     13.902  0.5032E+01  0.5035E+01  0.8334E+02  0.8334E+02
     14.015  0.5361E+01  0.5364E+01  0.8394E+02  0.8395E+02
     14.128  0.5126E+01  0.5119E+01  0.8452E+02  0.8452E+02
     14.241  0.3978E+01  0.3975E+01  0.8497E+02  0.8497E+02
     14.354  0.4449E+01  0.4453E+01  0.8548E+02  0.8548E+02
     14.467  0.5697E+01  0.5700E+01  0.8612E+02  0.8612E+02
     14.580  0.6285E+01  0.6288E+01  0.8683E+02  0.8683E+02
     14.693  0.6678E+01  0.6674E+01  0.8759E+02  0.8759E+02
     14.806  0.5860E+01  0.5858E+01  0.8825E+02  0.8825E+02
     14.919  0.6820E+01  0.6826E+01  0.8902E+02  0.8902E+02
     15.032  0.6420E+01  0.6414E+01  0.8975E+02  0.8975E+02
     15.145  0.5702E+01  0.5697E+01  0.9039E+02  0.9039E+02
     15.258  0.3774E+01  0.3769E+01  0.9082E+02  0.9082E+02
     15.371  0.3746E+01  0.3755E+01  0.9124E+02  0.9124E+02
     15.484  0.3577E+01  0.3577E+01  0.9165E+02  0.9165E+02
     15.597  0.2970E+01  0.2965E+01  0.9198E+02  0.9198E+02
     15.710  0.4976E+01  0.4994E+01  0.9255E+02  0.9255E+02
     15.823  0.8217E+01  0.8273E+01  0.9347E+02  0.9348E+02
     15.936  0.6626E+01  0.6758E+01  0.9422E+02  0.9425E+02
     16.049  0.5342E+01  0.5356E+01  0.9483E+02  0.9485E+02
     16.162  0.4798E+01  0.4845E+01  0.9537E+02  0.9540E+02
     16.275  0.4582E+01  0.4818E+01  0.9589E+02  0.9595E+02
     16.388  0.6349E+01  0.6223E+01  0.9661E+02  0.9665E+02
     16.501  0.6469E+01  0.5079E+01  0.9734E+02  0.9722E+02
     16.614  0.6010E+01  0.5298E+01  0.9802E+02  0.9782E+02
     16.727  0.5270E+01  0.5837E+01  0.9861E+02  0.9848E+02
     16.839  0.5498E+01  0.5839E+01  0.9924E+02  0.9914E+02
     16.952  0.4435E+01  0.3896E+01  0.9974E+02  0.9958E+02
     17.065  0.1937E+01  0.2086E+01  0.9996E+02  0.9982E+02
     17.178  0.3363E+00  0.7745E+00  0.1000E+03  0.9991E+02
     17.291  0.2963E-01  0.5912E+00  0.1000E+03  0.9998E+02
     17.404  0.0000E+00  0.1781E+00  0.1000E+03  0.1000E+03
     17.517  0.0000E+00  0.2296E-01  0.1000E+03  0.1000E+03
     17.630  0.0000E+00  0.0000E+00  0.1000E+03  0.1000E+03
     17.743  0.0000E+00  0.0000E+00  0.1000E+03  0.1000E+03
     17.856  0.0000E+00  0.0000E+00  0.1000E+03  0.1000E+03
     17.969  0.0000E+00  0.0000E+00  0.1000E+03  0.1000E+03
     18.082  0.0000E+00  0.0000E+00  0.1000E+03  0.1000E+03
     18.195  0.0000E+00  0.0000E+00  0.1000E+03  0.1000E+03
     18.308  0.0000E+00  0.0000E+00  0.1000E+03  0.1000E+03
     18.421  0.0000E+00  0.0000E+00  0.1000E+03  0.1000E+03
     18.534  0.0000E+00  0.0000E+00  0.1000E+03  0.1000E+03
     18.647  0.0000E+00  0.0000E+00  0.1000E+03  0.1000E+03
     18.760  0.0000E+00  0.0000E+00  0.1000E+03  0.1000E+03
     18.75984202    -15.12917322  301      5.76916316      1.00000000
    -15.129  0.0000E+00  0.0000E+00  0.0000E+00  0.0000E+00  0.0000E+00  0.0000E+00  0.0000E+00  0.0000E+00  0.0000E+00  0.0000E+00  0.0000E+00  0.0000E+00  0.0000E+00  0.0000E+00  0.0000E+00  0.0000E+00  0.0000E+00  0.0000E+00
    -15.016  0.0000E+00  0.0000E+00  0.0000E+00  0.0000E+00  0.0000E+00  0.0000E+00  0.0000E+00  0.0000E+00  0.0000E+00  0.0000E+00  0.0000E+00  0.0000E+00  0.0000E+00  0.0000E+00  0.0000E+00  0.0000E+00  0.0000E+00  0.0000E+00
    -14.903  0.0000E+00  0.0000E+00  0.0000E+00  0.0000E+00  0.0000E+00  0.0000E+00  0.0000E+00  0.0000E+00  0.0000E+00  0.0000E+00  0.0000E+00  0.0000E+00  0.0000E+00  0.0000E+00  0.0000E+00  0.0000E+00  0.0000E+00  0.0000E+00
    -14.790  0.0000E+00  0.0000E+00  0.0000E+00  0.0000E+00  0.0000E+00  0.0000E+00  0.0000E+00  0.0000E+00  0.0000E+00  0.0000E+00  0.0000E+00  0.0000E+00  0.0000E+00  0.0000E+00  0.0000E+00  0.0000E+00  0.0000E+00  0.0000E+00
    -14.677  0.0000E+00  0.0000E+00  0.0000E+00  0.0000E+00  0.0000E+00  0.0000E+00  0.0000E+00  0.0000E+00  0.0000E+00  0.0000E+00  0.0000E+00  0.0000E+00  0.0000E+00  0.0000E+00  0.0000E+00  0.0000E+00  0.0000E+00  0.0000E+00
    -14.564  0.0000E+00  0.0000E+00  0.0000E+00  0.0000E+00  0.0000E+00  0.0000E+00  0.0000E+00  0.0000E+00  0.0000E+00  0.0000E+00  0.0000E+00  0.0000E+00  0.0000E+00  0.0000E+00  0.0000E+00  0.0000E+00  0.0000E+00  0.0000E+00
    -14.451  0.0000E+00  0.0000E+00  0.0000E+00  0.0000E+00  0.0000E+00  0.0000E+00  0.0000E+00  0.0000E+00  0.0000E+00  0.0000E+00  0.0000E+00  0.0000E+00  0.0000E+00  0.0000E+00  0.0000E+00  0.0000E+00  0.0000E+00  0.0000E+00
    -14.338  0.0000E+00  0.0000E+00  0.0000E+00  0.0000E+00  0.0000E+00  0.0000E+00  0.0000E+00  0.0000E+00  0.0000E+00  0.0000E+00  0.0000E+00  0.0000E+00  0.0000E+00  0.0000E+00  0.0000E+00  0.0000E+00  0.0000E+00  0.0000E+00
    -14.225  0.0000E+00  0.0000E+00  0.0000E+00  0.0000E+00  0.0000E+00  0.0000E+00  0.0000E+00  0.0000E+00  0.0000E+00  0.0000E+00  0.0000E+00  0.0000E+00  0.0000E+00  0.0000E+00  0.0000E+00  0.0000E+00  0.0000E+00  0.0000E+00
    -14.113  0.0000E+00  0.0000E+00  0.0000E+00  0.0000E+00  0.0000E+00  0.0000E+00  0.0000E+00  0.0000E+00  0.0000E+00  0.0000E+00  0.0000E+00  0.0000E+00  0.0000E+00  0.0000E+00  0.0000E+00  0.0000E+00  0.0000E+00  0.0000E+00
    -14.000  0.4572E-06  0.4553E-06  0.3926E-16  0.2553E-16  0.3464E-08  0.3450E-08  0.3926E-16  0.2553E-16  0.0000E+00  0.0000E+00  0.0000E+00  0.0000E+00  0.0000E+00  0.0000E+00  0.0000E+00  0.0000E+00  0.0000E+00  0.0000E+00
    -13.887  0.5215E-05  0.5194E-05  0.2417E-07  0.2407E-07  0.4469E-07  0.4451E-07  0.2417E-07  0.2407E-07  0.0000E+00  0.0000E+00  0.0000E+00  0.0000E+00  0.0000E+00  0.0000E+00  0.0000E+00  0.0000E+00  0.0000E+00  0.0000E+00
    -13.774  0.4773E-04  0.4754E-04  0.2071E-06  0.2062E-06  0.4060E-06  0.4044E-06  0.2071E-06  0.2062E-06  0.0000E+00  0.0000E+00  0.0000E+00  0.0000E+00  0.0000E+00  0.0000E+00  0.0000E+00  0.0000E+00  0.0000E+00  0.0000E+00
    -13.661  0.3923E-03  0.3910E-03  0.2034E-05  0.2025E-05  0.3511E-05  0.3499E-05  0.2034E-05  0.2025E-05  0.0000E+00  0.0000E+00  0.0000E+00  0.0000E+00  0.0000E+00  0.0000E+00  0.0000E+00  0.0000E+00  0.0000E+00  0.0000E+00
    -13.548  0.1789E-02  0.1785E-02  0.1750E-04  0.1743E-04  0.1835E-04  0.1830E-04  0.1750E-04  0.1743E-04  0.0000E+00  0.0000E+00  0.0000E+00  0.0000E+00  0.0000E+00  0.0000E+00  0.0000E+00  0.0000E+00  0.0000E+00  0.0000E+00
    -13.435  0.5030E-02  0.5024E-02  0.8422E-04  0.8407E-04  0.7053E-04  0.7039E-04  0.8422E-04  0.8407E-04  0.0000E+00  0.0000E+00  0.0000E+00  0.0000E+00  0.0000E+00  0.0000E+00  0.0000E+00  0.0000E+00  0.0000E+00  0.0000E+00
    -13.322  0.6340E-02  0.6342E-02  0.1233E-03  0.1233E-03  0.1590E-03  0.1588E-03  0.1233E-03  0.1233E-03  0.0000E+00  0.0000E+00  0.0000E+00  0.0000E+00  0.0000E+00  0.0000E+00  0.0000E+00  0.0000E+00  0.0000E+00  0.0000E+00
    -13.209  0.7488E-02  0.7484E-02  0.2460E-03  0.2455E-03  0.2884E-03  0.2883E-03  0.2460E-03  0.2455E-03  0.0000E+00  0.0000E+00  0.0000E+00  0.0000E+00  0.0000E+00  0.0000E+00  0.0000E+00  0.0000E+00  0.0000E+00  0.0000E+00
    -13.096  0.8798E-02  0.8797E-02  0.4900E-03  0.4895E-03  0.3018E-03  0.3016E-03  0.4900E-03  0.4895E-03  0.0000E+00  0.0000E+00  0.0000E+00  0.0000E+00  0.0000E+00  0.0000E+00  0.0000E+00  0.0000E+00  0.0000E+00  0.0000E+00
    -12.983  0.1120E-01  0.1120E-01  0.7427E-03  0.7423E-03  0.6226E-03  0.6215E-03  0.7427E-03  0.7423E-03  0.0000E+00  0.0000E+00  0.0000E+00  0.0000E+00  0.0000E+00  0.0000E+00  0.0000E+00  0.0000E+00  0.0000E+00  0.0000E+00
    -12.870  0.1167E-01  0.1167E-01  0.7444E-03  0.7446E-03  0.1010E-02  0.1010E-02  0.7444E-03  0.7446E-03  0.0000E+00  0.0000E+00  0.0000E+00  0.0000E+00  0.0000E+00  0.0000E+00  0.0000E+00  0.0000E+00  0.0000E+00  0.0000E+00
    -12.757  0.8765E-02  0.8765E-02  0.8463E-03  0.8449E-03  0.8335E-03  0.8335E-03  0.8463E-03  0.8449E-03  0.0000E+00  0.0000E+00  0.0000E+00  0.0000E+00  0.0000E+00  0.0000E+00  0.0000E+00  0.0000E+00  0.0000E+00  0.0000E+00
    -12.644  0.1369E-01  0.1368E-01  0.1889E-02  0.1886E-02  0.1355E-02  0.1353E-02  0.1889E-02  0.1886E-02  0.0000E+00  0.0000E+00  0.0000E+00  0.0000E+00  0.0000E+00  0.0000E+00  0.0000E+00  0.0000E+00  0.0000E+00  0.0000E+00
    -12.531  0.1410E-01  0.1411E-01  0.2087E-02  0.2088E-02  0.1934E-02  0.1933E-02  0.2087E-02  0.2088E-02  0.0000E+00  0.0000E+00  0.0000E+00  0.0000E+00  0.0000E+00  0.0000E+00  0.0000E+00  0.0000E+00  0.0000E+00  0.0000E+00
    -12.418  0.1012E-01  0.1013E-01  0.1630E-02  0.1631E-02  0.2208E-02  0.2208E-02  0.1630E-02  0.1631E-02  0.0000E+00  0.0000E+00  0.0000E+00  0.0000E+00  0.0000E+00  0.0000E+00  0.0000E+00  0.0000E+00  0.0000E+00  0.0000E+00
    -12.305  0.7880E-02  0.7884E-02  0.1818E-02  0.1817E-02  0.2086E-02  0.2086E-02  0.1818E-02  0.1817E-02  0.0000E+00  0.0000E+00  0.0000E+00  0.0000E+00  0.0000E+00  0.0000E+00  0.0000E+00  0.0000E+00  0.0000E+00  0.0000E+00
    -12.192  0.6298E-02  0.6300E-02  0.2163E-02  0.2162E-02  0.2231E-02  0.2229E-02  0.2163E-02  0.2162E-02  0.0000E+00  0.0000E+00  0.0000E+00  0.0000E+00  0.0000E+00  0.0000E+00  0.0000E+00  0.0000E+00  0.0000E+00  0.0000E+00
    -12.079  0.6868E-02  0.6865E-02  0.2995E-02  0.2992E-02  0.3449E-02  0.3445E-02  0.2995E-02  0.2992E-02  0.0000E+00  0.0000E+00  0.0000E+00  0.0000E+00  0.0000E+00  0.0000E+00  0.0000E+00  0.0000E+00  0.0000E+00  0.0000E+00
    -11.966  0.6940E-02  0.6942E-02  0.3971E-02  0.3967E-02  0.3718E-02  0.3719E-02  0.3971E-02  0.3967E-02  0.0000E+00  0.0000E+00  0.0000E+00  0.0000E+00  0.0000E+00  0.0000E+00  0.0000E+00  0.0000E+00  0.0000E+00  0.0000E+00
    -11.853  0.6632E-02  0.6631E-02  0.6293E-02  0.6285E-02  0.4174E-02  0.4171E-02  0.6293E-02  0.6285E-02  0.0000E+00  0.0000E+00  0.0000E+00  0.0000E+00  0.0000E+00  0.0000E+00  0.0000E+00  0.0000E+00  0.0000E+00  0.0000E+00
    -11.740  0.6782E-02  0.6783E-02  0.8586E-02  0.8583E-02  0.4911E-02  0.4912E-02  0.8586E-02  0.8583E-02  0.0000E+00  0.0000E+00  0.0000E+00  0.0000E+00  0.0000E+00  0.0000E+00  0.0000E+00  0.0000E+00  0.0000E+00  0.0000E+00
    -11.627  0.6300E-02  0.6298E-02  0.7991E-02  0.7994E-02  0.4721E-02  0.4719E-02  0.7991E-02  0.7994E-02  0.0000E+00  0.0000E+00  0.0000E+00  0.0000E+00  0.0000E+00  0.0000E+00  0.0000E+00  0.0000E+00  0.0000E+00  0.0000E+00
    -11.514  0.7278E-02  0.7277E-02  0.6919E-02  0.6924E-02  0.5724E-02  0.5722E-02  0.6919E-02  0.6924E-02  0.0000E+00  0.0000E+00  0.0000E+00  0.0000E+00  0.0000E+00  0.0000E+00  0.0000E+00  0.0000E+00  0.0000E+00  0.0000E+00
    -11.401  0.5890E-02  0.5895E-02  0.5211E-02  0.5216E-02  0.5203E-02  0.5206E-02  0.5211E-02  0.5216E-02  0.0000E+00  0.0000E+00  0.0000E+00  0.0000E+00  0.0000E+00  0.0000E+00  0.0000E+00  0.0000E+00  0.0000E+00  0.0000E+00
    -11.288  0.4046E-02  0.4053E-02  0.3565E-02  0.3572E-02  0.3975E-02  0.3983E-02  0.3565E-02  0.3572E-02  0.0000E+00  0.0000E+00  0.0000E+00  0.0000E+00  0.0000E+00  0.0000E+00  0.0000E+00  0.0000E+00  0.0000E+00  0.0000E+00
    -11.175  0.1469E-02  0.1477E-02  0.1244E-02  0.1250E-02  0.1377E-02  0.1385E-02  0.1244E-02  0.1250E-02  0.0000E+00  0.0000E+00  0.0000E+00  0.0000E+00  0.0000E+00  0.0000E+00  0.0000E+00  0.0000E+00  0.0000E+00  0.0000E+00
    -11.062  0.2162E-03  0.2178E-03  0.1784E-03  0.1797E-03  0.1958E-03  0.1973E-03  0.1784E-03  0.1797E-03  0.0000E+00  0.0000E+00  0.0000E+00  0.0000E+00  0.0000E+00  0.0000E+00  0.0000E+00  0.0000E+00  0.0000E+00  0.0000E+00
    -10.950  0.1883E-04  0.1897E-04  0.1558E-04  0.1570E-04  0.1536E-04  0.1548E-04  0.1558E-04  0.1570E-04  0.0000E+00  0.0000E+00  0.0000E+00  0.0000E+00  0.0000E+00  0.0000E+00  0.0000E+00  0.0000E+00  0.0000E+00  0.0000E+00
    -10.837  0.0000E+00  0.0000E+00  0.0000E+00  0.0000E+00  0.0000E+00  0.0000E+00  0.0000E+00  0.0000E+00  0.0000E+00  0.0000E+00  0.0000E+00  0.0000E+00  0.0000E+00  0.0000E+00  0.0000E+00  0.0000E+00  0.0000E+00  0.0000E+00
    -10.724  0.0000E+00  0.0000E+00  0.0000E+00  0.0000E+00  0.0000E+00  0.0000E+00  0.0000E+00  0.0000E+00  0.0000E+00  0.0000E+00  0.0000E+00  0.0000E+00  0.0000E+00  0.0000E+00  0.0000E+00  0.0000E+00  0.0000E+00  0.0000E+00
    -10.611  0.0000E+00  0.0000E+00  0.0000E+00  0.0000E+00  0.0000E+00  0.0000E+00  0.0000E+00  0.0000E+00  0.0000E+00  0.0000E+00  0.0000E+00  0.0000E+00  0.0000E+00  0.0000E+00  0.0000E+00  0.0000E+00  0.0000E+00  0.0000E+00
    -10.498  0.0000E+00  0.0000E+00  0.0000E+00  0.0000E+00  0.0000E+00  0.0000E+00  0.0000E+00  0.0000E+00  0.0000E+00  0.0000E+00  0.0000E+00  0.0000E+00  0.0000E+00  0.0000E+00  0.0000E+00  0.0000E+00  0.0000E+00  0.0000E+00
    -10.385  0.0000E+00  0.0000E+00  0.0000E+00  0.0000E+00  0.0000E+00  0.0000E+00  0.0000E+00  0.0000E+00  0.0000E+00  0.0000E+00  0.0000E+00  0.0000E+00  0.0000E+00  0.0000E+00  0.0000E+00  0.0000E+00  0.0000E+00  0.0000E+00
    -10.272  0.0000E+00  0.0000E+00  0.0000E+00  0.0000E+00  0.0000E+00  0.0000E+00  0.0000E+00  0.0000E+00  0.0000E+00  0.0000E+00  0.0000E+00  0.0000E+00  0.0000E+00  0.0000E+00  0.0000E+00  0.0000E+00  0.0000E+00  0.0000E+00
    -10.159  0.0000E+00  0.0000E+00  0.0000E+00  0.0000E+00  0.0000E+00  0.0000E+00  0.0000E+00  0.0000E+00  0.0000E+00  0.0000E+00  0.0000E+00  0.0000E+00  0.0000E+00  0.0000E+00  0.0000E+00  0.0000E+00  0.0000E+00  0.0000E+00
    -10.046  0.0000E+00  0.0000E+00  0.0000E+00  0.0000E+00  0.0000E+00  0.0000E+00  0.0000E+00  0.0000E+00  0.0000E+00  0.0000E+00  0.0000E+00  0.0000E+00  0.0000E+00  0.0000E+00  0.0000E+00  0.0000E+00  0.0000E+00  0.0000E+00
     -9.933  0.0000E+00  0.0000E+00  0.0000E+00  0.0000E+00  0.0000E+00  0.0000E+00  0.0000E+00  0.0000E+00  0.0000E+00  0.0000E+00  0.0000E+00  0.0000E+00  0.0000E+00  0.0000E+00  0.0000E+00  0.0000E+00  0.0000E+00  0.0000E+00
     -9.820  0.0000E+00  0.0000E+00  0.0000E+00  0.0000E+00  0.0000E+00  0.0000E+00  0.0000E+00  0.0000E+00  0.0000E+00  0.0000E+00  0.0000E+00  0.0000E+00  0.0000E+00  0.0000E+00  0.0000E+00  0.0000E+00  0.0000E+00  0.0000E+00
     -9.707  0.0000E+00  0.0000E+00  0.0000E+00  0.0000E+00  0.0000E+00  0.0000E+00  0.0000E+00  0.0000E+00  0.0000E+00  0.0000E+00  0.0000E+00  0.0000E+00  0.0000E+00  0.0000E+00  0.0000E+00  0.0000E+00  0.0000E+00  0.0000E+00
     -9.594  0.0000E+00  0.0000E+00  0.0000E+00  0.0000E+00  0.0000E+00  0.0000E+00  0.0000E+00  0.0000E+00  0.0000E+00  0.0000E+00  0.0000E+00  0.0000E+00  0.0000E+00  0.0000E+00  0.0000E+00  0.0000E+00  0.0000E+00  0.0000E+00
     -9.481  0.0000E+00  0.0000E+00  0.0000E+00  0.0000E+00  0.0000E+00  0.0000E+00  0.0000E+00  0.0000E+00  0.0000E+00  0.0000E+00  0.0000E+00  0.0000E+00  0.0000E+00  0.0000E+00  0.0000E+00  0.0000E+00  0.0000E+00  0.0000E+00