  30  30   1   0
  0.9277085E+01  0.4901129E-09  0.4901128E-09  0.1337858E-08  0.5000000E-15
  1.000000000000000E-004
  CAR 
 unknown system                          
     19.88989592    -14.97257319  301      6.40985468      1.00000000
    -14.973  0.0000E+00  0.0000E+00  0.0000E+00  0.0000E+00
    -14.856  0.0000E+00  0.0000E+00  0.0000E+00  0.0000E+00
    -14.740  0.0000E+00  0.0000E+00  0.0000E+00  0.0000E+00
    -14.624  0.0000E+00  0.0000E+00  0.0000E+00  0.0000E+00
    -14.508  0.0000E+00  0.0000E+00  0.0000E+00  0.0000E+00
    -14.392  0.0000E+00  0.0000E+00  0.0000E+00  0.0000E+00
    -14.275  0.0000E+00  0.0000E+00  0.0000E+00  0.0000E+00
    -14.159  0.0000E+00  0.0000E+00  0.0000E+00  0.0000E+00
    -14.043  0.0000E+00  0.0000E+00  0.0000E+00  0.0000E+00
    -13.927  0.0000E+00  0.0000E+00  0.0000E+00  0.0000E+00
    -13.810  0.7335E-04  0.7350E-04  0.8524E-05  0.8541E-05
    -13.694  0.8463E-03  0.8481E-03  0.1069E-03  0.1071E-03
    -13.578  0.8438E-02  0.8456E-02  0.1087E-02  0.1090E-02
    -13.462  0.7364E-01  0.7378E-01  0.9645E-02  0.9663E-02
    -13.346  0.3408E+00  0.3413E+00  0.4925E-01  0.4932E-01
    -13.229  0.1014E+01  0.1015E+01  0.1671E+00  0.1673E+00
    -13.113  0.1372E+01  0.1372E+01  0.3265E+00  0.3267E+00
    -12.997  0.1598E+01  0.1599E+01  0.5122E+00  0.5125E+00
    -12.881  0.2098E+01  0.2098E+01  0.7560E+00  0.7564E+00
    -12.765  0.2649E+01  0.2652E+01  0.1064E+01  0.1065E+01
    -12.648  0.3446E+01  0.3446E+01  0.1465E+01  0.1465E+01
    -12.532  0.2767E+01  0.2766E+01  0.1786E+01  0.1787E+01
    -12.416  0.3413E+01  0.3420E+01  0.2183E+01  0.2184E+01
    -12.300  0.5694E+01  0.5695E+01  0.2845E+01  0.2847E+01
    -12.184  0.5137E+01  0.5135E+01  0.3443E+01  0.3444E+01
    -12.067  0.4050E+01  0.4050E+01  0.3914E+01  0.3915E+01
    -11.951  0.4129E+01  0.4129E+01  0.4395E+01  0.4396E+01
    -11.835  0.4187E+01  0.4191E+01  0.4882E+01  0.4884E+01
    -11.719  0.5891E+01  0.5898E+01  0.5567E+01  0.5570E+01
    -11.603  0.6769E+01  0.6774E+01  0.6355E+01  0.6358E+01
    -11.486  0.9065E+01  0.9081E+01  0.7409E+01  0.7414E+01
    -11.370  0.1285E+02  0.1286E+02  0.8903E+01  0.8910E+01
    -11.254  0.1342E+02  0.1342E+02  0.1046E+02  0.1047E+02
    -11.138  0.1561E+02  0.1563E+02  0.1228E+02  0.1229E+02
    -11.021  0.1669E+02  0.1669E+02  0.1422E+02  0.1423E+02
    -10.905  0.1684E+02  0.1685E+02  0.1618E+02  0.1619E+02
    -10.789  0.1221E+02  0.1216E+02  0.1760E+02  0.1760E+02
    -10.673  0.3020E+01  0.2991E+01  0.1795E+02  0.1795E+02
    -10.557  0.3362E+00  0.3260E+00  0.1800E+02  0.1800E+02
    -10.440  0.0000E+00  0.0000E+00  0.1800E+02  0.1800E+02
    -10.324  0.0000E+00  0.0000E+00  0.1800E+02  0.1800E+02
    -10.208  0.0000E+00  0.0000E+00  0.1800E+02  0.1800E+02
    -10.092  0.0000E+00  0.0000E+00  0.1800E+02  0.1800E+02
     -9.976  0.0000E+00  0.0000E+00  0.1800E+02  0.1800E+02
     -9.859  0.0000E+00  0.0000E+00  0.1800E+02  0.1800E+02
     -9.743  0.0000E+00  0.0000E+00  0.1800E+02  0.1800E+02
     -9.627  0.0000E+00  0.0000E+00  0.1800E+02  0.1800E+02
     -9.511  0.0000E+00  0.0000E+00  0.1800E+02  0.1800E+02
     -9.395  0.0000E+00  0.0000E+00  0.1800E+02  0.1800E+02
     -9.278  0.0000E+00  0.0000E+00  0.1800E+02  0.1800E+02
     -9.162  0.0000E+00  0.0000E+00  0.1800E+02  0.1800E+02
     -9.046  0.0000E+00  0.0000E+00  0.1800E+02  0.1800E+02
     -8.930  0.0000E+00  0.0000E+00  0.1800E+02  0.1800E+02
     -8.814  0.0000E+00  0.0000E+00  0.1800E+02  0.1800E+02
     -8.697  0.0000E+00  0.0000E+00  0.1800E+02  0.1800E+02
     -8.581  0.0000E+00  0.0000E+00  0.1800E+02  0.1800E+02
     -8.465  0.0000E+00  0.0000E+00  0.1800E+02  0.1800E+02
     -8.349  0.0000E+00  0.0000E+00  0.1800E+02  0.1800E+02
     -8.232  0.0000E+00  0.0000E+00  0.1800E+02  0.1800E+02
     -8.116  0.0000E+00  0.0000E+00  0.1800E+02  0.1800E+02
     -8.000  0.0000E+00  0.0000E+00  0.1800E+02  0.1800E+02
     -7.884  0.0000E+00  0.0000E+00  0.1800E+02  0.1800E+02
     -7.768  0.0000E+00  0.0000E+00  0.1800E+02  0.1800E+02
     -7.651  0.0000E+00  0.0000E+00  0.1800E+02  0.1800E+02
     -7.535  0.0000E+00  0.0000E+00  0.1800E+02  0.1800E+02
     -7.419  0.0000E+00  0.0000E+00  0.1800E+02  0.1800E+02
     -7.303  0.0000E+00  0.0000E+00  0.1800E+02  0.1800E+02
     -7.187  0.0000E+00  0.0000E+00  0.1800E+02  0.1800E+02
     -7.070  0.0000E+00  0.0000E+00  0.1800E+02  0.1800E+02
     -6.954  0.0000E+00  0.0000E+00  0.1800E+02  0.1800E+02
     -6.838  0.0000E+00  0.0000E+00  0.1800E+02  0.1800E+02
     -6.722  0.0000E+00  0.0000E+00  0.1800E+02  0.1800E+02
     -6.606  0.0000E+00  0.0000E+00  0.1800E+02  0.1800E+02
     -6.489  0.0000E+00  0.0000E+00  0.1800E+02  0.1800E+02
     -6.373  0.0000E+00  0.0000E+00  0.1800E+02  0.1800E+02
     -6.257  0.0000E+00  0.0000E+00  0.1800E+02  0.1800E+02
     -6.141  0.0000E+00  0.0000E+00  0.1800E+02  0.1800E+02
     -6.025  0.0000E+00  0.0000E+00  0.1800E+02  0.1800E+02
     -5.908  0.0000E+00  0.0000E+00  0.1800E+02  0.1800E+02
     -5.792  0.0000E+00  0.0000E+00  0.1800E+02  0.1800E+02
     -5.676  0.0000E+00  0.0000E+00  0.1800E+02  0.1800E+02
     -5.560  0.0000E+00  0.0000E+00  0.1800E+02  0.1800E+02
     -5.443  0.0000E+00  0.0000E+00  0.1800E+02  0.1800E+02
     -5.327  0.0000E+00  0.0000E+00  0.1800E+02  0.1800E+02
     -5.211  0.0000E+00  0.0000E+00  0.1800E+02  0.1800E+02
     -5.095  0.0000E+00  0.0000E+00  0.1800E+02  0.1800E+02
     -4.979  0.0000E+00  0.0000E+00  0.1800E+02  0.1800E+02
     -4.862  0.0000E+00  0.0000E+00  0.1800E+02  0.1800E+02
     -4.746  0.0000E+00  0.0000E+00  0.1800E+02  0.1800E+02
     -4.630  0.0000E+00  0.0000E+00  0.1800E+02  0.1800E+02
     -4.514  0.0000E+00  0.0000E+00  0.1800E+02  0.1800E+02
     -4.398  0.0000E+00  0.0000E+00  0.1800E+02  0.1800E+02
     -4.281  0.0000E+00  0.0000E+00  0.1800E+02  0.1800E+02
     -4.165  0.0000E+00  0.0000E+00  0.1800E+02  0.1800E+02
     -4.049  0.0000E+00  0.0000E+00  0.1800E+02  0.1800E+02
     -3.933  0.0000E+00  0.0000E+00  0.1800E+02  0.1800E+02
     -3.817  0.0000E+00  0.0000E+00  0.1800E+02  0.1800E+02
     -3.700  0.0000E+00  0.0000E+00  0.1800E+02  0.1800E+02
     -3.584  0.0000E+00  0.0000E+00  0.1800E+02  0.1800E+02
     -3.468  0.0000E+00  0.0000E+00  0.1800E+02  0.1800E+02
     -3.352  0.0000E+00  0.0000E+00  0.1800E+02  0.1800E+02
     -3.236  0.0000E+00  0.0000E+00  0.1800E+02  0.1800E+02
     -3.119  0.0000E+00  0.0000E+00  0.1800E+02  0.1800E+02
     -3.003  0.0000E+00  0.0000E+00  0.1800E+02  0.1800E+02
     -2.887  0.0000E+00  0.0000E+00  0.1800E+02  0.1800E+02
     -2.771  0.0000E+00  0.0000E+00  0.1800E+02  0.1800E+02
     -2.655  0.0000E+00  0.0000E+00  0.1800E+02  0.1800E+02
     -2.538  0.0000E+00  0.0000E+00  0.1800E+02  0.1800E+02
     -2.422  0.0000E+00  0.0000E+00  0.1800E+02  0.1800E+02
     -2.306  0.0000E+00  0.0000E+00  0.1800E+02  0.1800E+02
     -2.190  0.0000E+00  0.0000E+00  0.1800E+02  0.1800E+02
     -2.073  0.0000E+00  0.0000E+00  0.1800E+02  0.1800E+02
     -1.957  0.0000E+00  0.0000E+00  0.1800E+02  0.1800E+02
     -1.841  0.0000E+00  0.0000E+00  0.1800E+02  0.1800E+02
     -1.725  0.0000E+00  0.0000E+00  0.1800E+02  0.1800E+02
     -1.609  0.7418E-04  0.7340E-04  0.1800E+02  0.1800E+02
     -1.492  0.9636E-03  0.9535E-03  0.1800E+02  0.1800E+02
     -1.376  0.9564E-02  0.9466E-02  0.1800E+02  0.1800E+02
     -1.260  0.8477E-01  0.8401E-01  0.1801E+02  0.1801E+02
     -1.144  0.4286E+00  0.4261E+00  0.1806E+02  0.1806E+02
     -1.028  0.1230E+01  0.1226E+01  0.1820E+02  0.1820E+02
     -0.911  0.1646E+01  0.1645E+01  0.1840E+02  0.1839E+02
     -0.795  0.2305E+01  0.2300E+01  0.1866E+02  0.1866E+02
     -0.679  0.4165E+01  0.4154E+01  0.1915E+02  0.1914E+02
     -0.563  0.8011E+01  0.7996E+01  0.2008E+02  0.2007E+02
     -0.447  0.8376E+01  0.8387E+01  0.2105E+02  0.2105E+02
     -0.330  0.7817E+01  0.7809E+01  0.2196E+02  0.2196E+02
     -0.214  0.9523E+01  0.9523E+01  0.2307E+02  0.2307E+02
     -0.098  0.8658E+01  0.8665E+01  0.2408E+02  0.2407E+02
      0.018  0.6217E+01  0.6227E+01  0.2480E+02  0.2480E+02
      0.134  0.4982E+01  0.4985E+01  0.2538E+02  0.2538E+02
      0.251  0.5507E+01  0.5509E+01  0.2602E+02  0.2602E+02
      0.367  0.4841E+01  0.4843E+01  0.2659E+02  0.2658E+02
      0.483  0.5797E+01  0.5794E+01  0.2726E+02  0.2726E+02
      0.599  0.6950E+01  0.6949E+01  0.2807E+02  0.2807E+02
      0.716  0.6589E+01  0.6590E+01  0.2883E+02  0.2883E+02
      0.832  0.7003E+01  0.7002E+01  0.2965E+02  0.2965E+02
      0.948  0.5292E+01  0.5301E+01  0.3027E+02  0.3026E+02
      1.064  0.2799E+01  0.2801E+01  0.3059E+02  0.3059E+02
      1.180  0.4498E+01  0.4490E+01  0.3112E+02  0.3111E+02
      1.297  0.8261E+01  0.8258E+01  0.3208E+02  0.3207E+02
      1.413  0.8720E+01  0.8723E+01  0.3309E+02  0.3309E+02
      1.529  0.9496E+01  0.9494E+01  0.3419E+02  0.3419E+02
      1.645  0.9192E+01  0.9197E+01  0.3526E+02  0.3526E+02
      1.761  0.6122E+01  0.6127E+01  0.3598E+02  0.3598E+02
      1.878  0.5336E+01  0.5337E+01  0.3660E+02  0.3660E+02
      1.994  0.6401E+01  0.6403E+01  0.3734E+02  0.3734E+02
      2.110  0.5760E+01  0.5763E+01  0.3801E+02  0.3801E+02
      2.226  0.7252E+01  0.7252E+01  0.3886E+02  0.3886E+02
      2.342  0.6838E+01  0.6840E+01  0.3965E+02  0.3965E+02
      2.459  0.5141E+01  0.5142E+01  0.4025E+02  0.4025E+02
      2.575  0.5367E+01  0.5368E+01  0.4088E+02  0.4088E+02
      2.691  0.5426E+01  0.5428E+01  0.4151E+02  0.4151E+02
      2.807  0.7534E+01  0.7535E+01  0.4238E+02  0.4238E+02
      2.923  0.8512E+01  0.8515E+01  0.4337E+02  0.4338E+02
      3.040  0.1160E+02  0.1161E+02  0.4472E+02  0.4473E+02
      3.156  0.1447E+02  0.1447E+02  0.4641E+02  0.4641E+02
      3.272  0.1086E+02  0.1086E+02  0.4767E+02  0.4767E+02
      3.388  0.8437E+01  0.8436E+01  0.4865E+02  0.4865E+02
      3.505  0.7730E+01  0.7737E+01  0.4955E+02  0.4955E+02
      3.621  0.1132E+02  0.1133E+02  0.5087E+02  0.5087E+02
      3.737  0.1367E+02  0.1368E+02  0.5246E+02  0.5246E+02
      3.853  0.1444E+02  0.1445E+02  0.5414E+02  0.5414E+02
      3.969  0.1469E+02  0.1470E+02  0.5585E+02  0.5585E+02
      4.086  0.1491E+02  0.1492E+02  0.5758E+02  0.5759E+02
      4.202  0.1455E+02  0.1455E+02  0.5927E+02  0.5928E+02
      4.318  0.1214E+02  0.1214E+02  0.6069E+02  0.6069E+02
      4.434  0.1291E+02  0.1291E+02  0.6219E+02  0.6219E+02
      4.550  0.1291E+02  0.1292E+02  0.6369E+02  0.6370E+02
      4.667  0.1431E+02  0.1432E+02  0.6536E+02  0.6536E+02
      4.783  0.1450E+02  0.1450E+02  0.6704E+02  0.6705E+02
      4.899  0.1491E+02  0.1493E+02  0.6878E+02  0.6879E+02
      5.015  0.1457E+02  0.1456E+02  0.7047E+02  0.7048E+02
      5.131  0.8911E+01  0.8877E+01  0.7151E+02  0.7152E+02
      5.248  0.3503E+01  0.3476E+01  0.7192E+02  0.7192E+02
      5.364  0.5782E+00  0.5710E+00  0.7199E+02  0.7199E+02
      5.480  0.5314E-01  0.5241E-01  0.7200E+02  0.7200E+02
      5.596  0.0000E+00  0.0000E+00  0.7200E+02  0.7200E+02
      5.712  0.0000E+00  0.0000E+00  0.7200E+02  0.7200E+02
      5.829  0.0000E+00  0.0000E+00  0.7200E+02  0.7200E+02
      5.945  0.0000E+00  0.0000E+00  0.7200E+02  0.7200E+02
      6.061  0.0000E+00  0.0000E+00  0.7200E+02  0.7200E+02
      6.177  0.0000E+00  0.0000E+00  0.7200E+02  0.7200E+02
      6.294  0.0000E+00  0.0000E+00  0.7200E+02  0.7200E+02
      6.410  0.0000E+00  0.0000E+00  0.7200E+02  0.7200E+02
      6.526  0.0000E+00  0.0000E+00  0.7200E+02  0.7200E+02
      6.642  0.0000E+00  0.0000E+00  0.7200E+02  0.7200E+02
      6.758  0.0000E+00  0.0000E+00  0.7200E+02  0.7200E+02
      6.875  0.0000E+00  0.0000E+00  0.7200E+02  0.7200E+02
      6.991  0.0000E+00  0.0000E+00  0.7200E+02  0.7200E+02
      7.107  0.0000E+00  0.0000E+00  0.7200E+02  0.7200E+02
      7.223  0.0000E+00  0.0000E+00  0.7200E+02  0.7200E+02
      7.339  0.0000E+00  0.0000E+00  0.7200E+02  0.7200E+02
      7.456  0.0000E+00  0.0000E+00  0.7200E+02  0.7200E+02
      7.572  0.0000E+00  0.0000E+00  0.7200E+02  0.7200E+02
      7.688  0.0000E+00  0.0000E+00  0.7200E+02  0.7200E+02
      7.804  0.0000E+00  0.0000E+00  0.7200E+02  0.7200E+02
      7.920  0.0000E+00  0.0000E+00  0.7200E+02  0.7200E+02
      8.037  0.0000E+00  0.0000E+00  0.7200E+02  0.7200E+02
      8.153  0.0000E+00  0.0000E+00  0.7200E+02  0.7200E+02
      8.269  0.0000E+00  0.0000E+00  0.7200E+02  0.7200E+02
      8.385  0.0000E+00  0.0000E+00  0.7200E+02  0.7200E+02
      8.501  0.0000E+00  0.0000E+00  0.7200E+02  0.7200E+02
      8.618  0.0000E+00  0.0000E+00  0.7200E+02  0.7200E+02
      8.734  0.0000E+00  0.0000E+00  0.7200E+02  0.7200E+02
      8.850  0.0000E+00  0.0000E+00  0.7200E+02  0.7200E+02
      8.966  0.0000E+00  0.0000E+00  0.7200E+02  0.7200E+02
      9.083  0.0000E+00  0.0000E+00  0.7200E+02  0.7200E+02
      9.199  0.0000E+00  0.0000E+00  0.7200E+02  0.7200E+02
      9.315  0.0000E+00  0.0000E+00  0.7200E+02  0.7200E+02
      9.431  0.0000E+00  0.0000E+00  0.7200E+02  0.7200E+02
      9.547  0.0000E+00  0.0000E+00  0.7200E+02  0.7200E+02
      9.664  0.0000E+00  0.0000E+00  0.7200E+02  0.7200E+02
      9.780  0.0000E+00  0.0000E+00  0.7200E+02  0.7200E+02
      9.896  0.0000E+00  0.0000E+00  0.7200E+02  0.7200E+02
     10.012  0.2889E-04  0.2815E-04  0.7200E+02  0.7200E+02
     10.128  0.2661E-03  0.2593E-03  0.7200E+02  0.7200E+02
     10.245  0.2696E-02  0.2627E-02  0.7200E+02  0.7200E+02
     10.361  0.2530E-01  0.2471E-01  0.7200E+02  0.7200E+02
     10.477  0.1362E+00  0.1346E+00  0.7202E+02  0.7202E+02
     10.593  0.1465E+00  0.1479E+00  0.7204E+02  0.7204E+02
     10.709  0.2969E-01  0.3039E-01  0.7204E+02  0.7204E+02
     10.826  0.3537E-02  0.3614E-02  0.7204E+02  0.7204E+02
     10.942  0.3045E-02  0.2978E-02  0.7204E+02  0.7204E+02
     11.058  0.3056E-01  0.2990E-01  0.7204E+02  0.7204E+02
     11.174  0.2687E+00  0.2637E+00  0.7208E+02  0.7207E+02
     11.290  0.1058E+01  0.1052E+01  0.7220E+02  0.7220E+02
     11.407  0.8248E+00  0.8326E+00  0.7229E+02  0.7229E+02
     11.523  0.1970E+00  0.2005E+00  0.7232E+02  0.7232E+02
     11.639  0.2625E-01  0.2674E-01  0.7232E+02  0.7232E+02
     11.755  0.2116E-01  0.2081E-01  0.7232E+02  0.7232E+02
     11.872  0.1822E+00  0.1790E+00  0.7234E+02  0.7234E+02
     11.988  0.8891E+00  0.8825E+00  0.7245E+02  0.7245E+02
     12.104  0.8328E+00  0.8394E+00  0.7254E+02  0.7254E+02
     12.220  0.3675E+00  0.3664E+00  0.7259E+02  0.7259E+02
     12.336  0.9896E+00  0.9835E+00  0.7270E+02  0.7270E+02
     12.453  0.8771E+00  0.8833E+00  0.7280E+02  0.7280E+02
     12.569  0.3076E+00  0.3104E+00  0.7284E+02  0.7284E+02
     12.685  0.3918E+00  0.3867E+00  0.7288E+02  0.7288E+02
     12.801  0.1767E+01  0.1753E+01  0.7309E+02  0.7309E+02
     12.917  0.2128E+01  0.2135E+01  0.7334E+02  0.7334E+02
     13.034  0.1490E+01  0.1495E+01  0.7351E+02  0.7351E+02
     13.150  0.1036E+01  0.1036E+01  0.7363E+02  0.7363E+02
     13.266  0.1252E+01  0.1254E+01  0.7378E+02  0.7378E+02
     13.382  0.5787E+00  0.5827E+00  0.7385E+02  0.7384E+02
     13.498  0.1024E+01  0.1008E+01  0.7396E+02  0.7396E+02
     13.615  0.4188E+01  0.4151E+01  0.7445E+02  0.7444E+02
     13.731  0.6160E+01  0.6154E+01  0.7517E+02  0.7516E+02
     13.847  0.5739E+01  0.5739E+01  0.7583E+02  0.7583E+02
     13.963  0.5829E+01  0.5831E+01  0.7651E+02  0.7651E+02
     14.079  0.4230E+01  0.4256E+01  0.7701E+02  0.7700E+02
     14.196  0.3815E+01  0.3794E+01  0.7745E+02  0.7744E+02
     14.312  0.7055E+01  0.7017E+01  0.7827E+02  0.7826E+02
     14.428  0.8688E+01  0.8699E+01  0.7928E+02  0.7927E+02
     14.544  0.6246E+01  0.6260E+01  0.8001E+02  0.8000E+02
     14.661  0.6711E+01  0.6688E+01  0.8079E+02  0.8078E+02
     14.777  0.8266E+01  0.8261E+01  0.8175E+02  0.8174E+02
     14.893  0.7977E+01  0.7989E+01  0.8268E+02  0.8267E+02
     15.009  0.6395E+01  0.6408E+01  0.8342E+02  0.8341E+02
     15.125  0.5392E+01  0.5397E+01  0.8405E+02  0.8404E+02
     15.242  0.4018E+01  0.4045E+01  0.8452E+02  0.8451E+02
     15.358  0.3764E+01  0.3738E+01  0.8496E+02  0.8495E+02
     15.474  0.6458E+01  0.6425E+01  0.8571E+02  0.8570E+02
     15.590  0.6962E+01  0.6968E+01  0.8652E+02  0.8651E+02
     15.706  0.5768E+01  0.5791E+01  0.8719E+02  0.8718E+02
     15.823  0.4649E+01  0.4648E+01  0.8773E+02  0.8772E+02
     15.939  0.7038E+01  0.6979E+01  0.8855E+02  0.8853E+02
     16.055  0.8932E+01  0.8933E+01  0.8959E+02  0.8957E+02
     16.171  0.6704E+01  0.6755E+01  0.9037E+02  0.9036E+02
     16.287  0.3196E+01  0.3231E+01  0.9074E+02  0.9073E+02
     16.404  0.3134E+01  0.3117E+01  0.9111E+02  0.9110E+02
     16.520  0.3395E+01  0.3411E+01  0.9150E+02  0.9150E+02
     16.636  0.3857E+01  0.3852E+01  0.9195E+02  0.9194E+02
     16.752  0.5433E+01  0.5321E+01  0.9258E+02  0.9256E+02
     16.868  0.8521E+01  0.8535E+01  0.9357E+02  0.9355E+02
     16.985  0.6478E+01  0.6553E+01  0.9433E+02  0.9432E+02
     17.101  0.4574E+01  0.4224E+01  0.9486E+02  0.9481E+02
     17.217  0.4389E+01  0.4317E+01  0.9537E+02  0.9531E+02
     17.333  0.5197E+01  0.5476E+01  0.9597E+02  0.9595E+02
     17.450  0.5740E+01  0.6249E+01  0.9664E+02  0.9668E+02
     17.566  0.6444E+01  0.6238E+01  0.9739E+02  0.9740E+02
     17.682  0.6304E+01  0.6179E+01  0.9812E+02  0.9812E+02
     17.798  0.5995E+01  0.5434E+01  0.9882E+02  0.9875E+02
     17.914  0.4868E+01  0.3990E+01  0.9939E+02  0.9922E+02
     18.031  0.3209E+01  0.3307E+01  0.9976E+02  0.9960E+02
     18.147  0.1578E+01  0.1954E+01  0.9995E+02  0.9983E+02
     18.263  0.4041E+00  0.6891E+00  0.9999E+02  0.9991E+02
     18.379  0.4243E-01  0.5755E+00  0.1000E+03  0.9998E+02
     18.495  0.0000E+00  0.1691E+00  0.1000E+03  0.1000E+03
     18.612  0.0000E+00  0.2028E-01  0.1000E+03  0.1000E+03
     18.728  0.0000E+00  0.0000E+00  0.1000E+03  0.1000E+03
     18.844  0.0000E+00  0.0000E+00  0.1000E+03  0.1000E+03
     18.960  0.0000E+00  0.0000E+00  0.1000E+03  0.1000E+03
     19.076  0.0000E+00  0.0000E+00  0.1000E+03  0.1000E+03
     19.193  0.0000E+00  0.0000E+00  0.1000E+03  0.1000E+03
     19.309  0.0000E+00  0.0000E+00  0.1000E+03  0.1000E+03
     19.425  0.0000E+00  0.0000E+00  0.1000E+03  0.1000E+03
     19.541  0.0000E+00  0.0000E+00  0.1000E+03  0.1000E+03
     19.657  0.0000E+00  0.0000E+00  0.1000E+03  0.1000E+03
     19.774  0.0000E+00  0.0000E+00  0.1000E+03  0.1000E+03
     19.890  0.0000E+00  0.0000E+00  0.1000E+03  0.1000E+03
     19.88989592    -14.97257319  301      6.40985468      1.00000000
    -14.973  0.0000E+00  0.0000E+00  0.0000E+00  0.0000E+00  0.0000E+00  0.0000E+00  0.0000E+00  0.0000E+00  0.0000E+00  0.0000E+00  0.0000E+00  0.0000E+00  0.0000E+00  0.0000E+00  0.0000E+00  0.0000E+00  0.0000E+00  0.0000E+00
    -14.856  0.0000E+00  0.0000E+00  0.0000E+00  0.0000E+00  0.0000E+00  0.0000E+00  0.0000E+00  0.0000E+00  0.0000E+00  0.0000E+00  0.0000E+00  0.0000E+00  0.0000E+00  0.0000E+00  0.0000E+00  0.0000E+00  0.0000E+00  0.0000E+00
    -14.740  0.0000E+00  0.0000E+00  0.0000E+00  0.0000E+00  0.0000E+00  0.0000E+00  0.0000E+00  0.0000E+00  0.0000E+00  0.0000E+00  0.0000E+00  0.0000E+00  0.0000E+00  0.0000E+00  0.0000E+00  0.0000E+00  0.0000E+00  0.0000E+00
    -14.624  0.0000E+00  0.0000E+00  0.0000E+00  0.0000E+00  0.0000E+00  0.0000E+00  0.0000E+00  0.0000E+00  0.0000E+00  0.0000E+00  0.0000E+00  0.0000E+00  0.0000E+00  0.0000E+00  0.0000E+00  0.0000E+00  0.0000E+00  0.0000E+00
    -14.508  0.0000E+00  0.0000E+00  0.0000E+00  0.0000E+00  0.0000E+00  0.0000E+00  0.0000E+00  0.0000E+00  0.0000E+00  0.0000E+00  0.0000E+00  0.0000E+00  0.0000E+00  0.0000E+00  0.0000E+00  0.0000E+00  0.0000E+00  0.0000E+00
    -14.392  0.0000E+00  0.0000E+00  0.0000E+00  0.0000E+00  0.0000E+00  0.0000E+00  0.0000E+00  0.0000E+00  0.0000E+00  0.0000E+00  0.0000E+00  0.0000E+00  0.0000E+00  0.0000E+00  0.0000E+00  0.0000E+00  0.0000E+00  0.0000E+00
    -14.275  0.0000E+00  0.0000E+00  0.0000E+00  0.0000E+00  0.0000E+00  0.0000E+00  0.0000E+00  0.0000E+00  0.0000E+00  0.0000E+00  0.0000E+00  0.0000E+00  0.0000E+00  0.0000E+00  0.0000E+00  0.0000E+00  0.0000E+00  0.0000E+00
    -14.159  0.0000E+00  0.0000E+00  0.0000E+00  0.0000E+00  0.0000E+00  0.0000E+00  0.0000E+00  0.0000E+00  0.0000E+00  0.0000E+00  0.0000E+00  0.0000E+00  0.0000E+00  0.0000E+00  0.0000E+00  0.0000E+00  0.0000E+00  0.0000E+00
    -14.043  0.0000E+00  0.0000E+00  0.0000E+00  0.0000E+00  0.0000E+00  0.0000E+00  0.0000E+00  0.0000E+00  0.0000E+00  0.0000E+00  0.0000E+00  0.0000E+00  0.0000E+00  0.0000E+00  0.0000E+00  0.0000E+00  0.0000E+00  0.0000E+00
    -13.927  0.0000E+00  0.0000E+00  0.0000E+00  0.0000E+00  0.0000E+00  0.0000E+00  0.0000E+00  0.0000E+00  0.0000E+00  0.0000E+00  0.0000E+00  0.0000E+00  0.0000E+00  0.0000E+00  0.0000E+00  0.0000E+00  0.0000E+00  0.0000E+00
    -13.810  0.3949E-06  0.3956E-06  0.2651E-16  0.4401E-16  0.3148E-08  0.3154E-08  0.2651E-16  0.4401E-16  0.0000E+00  0.0000E+00  0.0000E+00  0.0000E+00  0.0000E+00  0.0000E+00  0.0000E+00  0.0000E+00  0.0000E+00  0.0000E+00
    -13.694  0.4487E-05  0.4496E-05  0.1718E-07  0.1722E-07  0.3688E-07  0.3696E-07  0.1718E-07  0.1722E-07  0.0000E+00  0.0000E+00  0.0000E+00  0.0000E+00  0.0000E+00  0.0000E+00  0.0000E+00  0.0000E+00  0.0000E+00  0.0000E+00
    -13.578  0.4475E-04  0.4483E-04  0.1582E-06  0.1586E-06  0.3919E-06  0.3927E-06  0.1582E-06  0.1586E-06  0.0000E+00  0.0000E+00  0.0000E+00  0.0000E+00  0.0000E+00  0.0000E+00  0.0000E+00  0.0000E+00  0.0000E+00  0.0000E+00
    -13.462  0.3893E-03  0.3900E-03  0.1632E-05  0.1636E-05  0.3502E-05  0.3509E-05  0.1632E-05  0.1636E-05  0.0000E+00  0.0000E+00  0.0000E+00  0.0000E+00  0.0000E+00  0.0000E+00  0.0000E+00  0.0000E+00  0.0000E+00  0.0000E+00
    -13.346  0.1767E-02  0.1769E-02  0.1544E-04  0.1547E-04  0.1794E-04  0.1797E-04  0.1544E-04  0.1547E-04  0.0000E+00  0.0000E+00  0.0000E+00  0.0000E+00  0.0000E+00  0.0000E+00  0.0000E+00  0.0000E+00  0.0000E+00  0.0000E+00
    -13.229  0.5071E-02  0.5075E-02  0.8527E-04  0.8536E-04  0.6913E-04  0.6922E-04  0.8527E-04  0.8536E-04  0.0000E+00  0.0000E+00  0.0000E+00  0.0000E+00  0.0000E+00  0.0000E+00  0.0000E+00  0.0000E+00  0.0000E+00  0.0000E+00
    -13.113  0.6691E-02  0.6689E-02  0.1235E-03  0.1235E-03  0.1542E-03  0.1543E-03  0.1235E-03  0.1235E-03  0.0000E+00  0.0000E+00  0.0000E+00  0.0000E+00  0.0000E+00  0.0000E+00  0.0000E+00  0.0000E+00  0.0000E+00  0.0000E+00
    -12.997  0.7250E-02  0.7253E-02  0.2089E-03  0.2092E-03  0.2977E-03  0.2979E-03  0.2089E-03  0.2092E-03  0.0000E+00  0.0000E+00  0.0000E+00  0.0000E+00  0.0000E+00  0.0000E+00  0.0000E+00  0.0000E+00  0.0000E+00  0.0000E+00
    -12.881  0.8962E-02  0.8962E-02  0.4578E-03  0.4581E-03  0.2999E-03  0.2999E-03  0.4578E-03  0.4581E-03  0.0000E+00  0.0000E+00  0.0000E+00  0.0000E+00  0.0000E+00  0.0000E+00  0.0000E+00  0.0000E+00  0.0000E+00  0.0000E+00
    -12.765  0.1046E-01  0.1047E-01  0.7056E-03  0.7061E-03  0.4917E-03  0.4925E-03  0.7056E-03  0.7061E-03  0.0000E+00  0.0000E+00  0.0000E+00  0.0000E+00  0.0000E+00  0.0000E+00  0.0000E+00  0.0000E+00  0.0000E+00  0.0000E+00
    -12.648  0.1299E-01  0.1299E-01  0.8272E-03  0.8270E-03  0.1021E-02  0.1022E-02  0.8272E-03  0.8270E-03  0.0000E+00  0.0000E+00  0.0000E+00  0.0000E+00  0.0000E+00  0.0000E+00  0.0000E+00  0.0000E+00  0.0000E+00  0.0000E+00
    -12.532  0.9794E-02  0.9784E-02  0.7111E-03  0.7111E-03  0.9616E-03  0.9607E-03  0.7111E-03  0.7111E-03  0.0000E+00  0.0000E+00  0.0000E+00  0.0000E+00  0.0000E+00  0.0000E+00  0.0000E+00  0.0000E+00  0.0000E+00  0.0000E+00
    -12.416  0.1036E-01  0.1037E-01  0.1313E-02  0.1316E-02  0.1004E-02  0.1006E-02  0.1313E-02  0.1316E-02  0.0000E+00  0.0000E+00  0.0000E+00  0.0000E+00  0.0000E+00  0.0000E+00  0.0000E+00  0.0000E+00  0.0000E+00  0.0000E+00
    -12.300  0.1622E-01  0.1621E-01  0.2343E-02  0.2343E-02  0.1751E-02  0.1752E-02  0.2343E-02  0.2343E-02  0.0000E+00  0.0000E+00  0.0000E+00  0.0000E+00  0.0000E+00  0.0000E+00  0.0000E+00  0.0000E+00  0.0000E+00  0.0000E+00
    -12.184  0.1338E-01  0.1337E-01  0.2021E-02  0.2019E-02  0.2266E-02  0.2267E-02  0.2021E-02  0.2019E-02  0.0000E+00  0.0000E+00  0.0000E+00  0.0000E+00  0.0000E+00  0.0000E+00  0.0000E+00  0.0000E+00  0.0000E+00  0.0000E+00
    -12.067  0.9243E-02  0.9235E-02  0.1584E-02  0.1584E-02  0.2290E-02  0.2289E-02  0.1584E-02  0.1584E-02  0.0000E+00  0.0000E+00  0.0000E+00  0.0000E+00  0.0000E+00  0.0000E+00  0.0000E+00  0.0000E+00  0.0000E+00  0.0000E+00
    -11.951  0.7872E-02  0.7865E-02  0.1981E-02  0.1982E-02  0.2155E-02  0.2155E-02  0.1981E-02  0.1982E-02  0.0000E+00  0.0000E+00  0.0000E+00  0.0000E+00  0.0000E+00  0.0000E+00  0.0000E+00  0.0000E+00  0.0000E+00  0.0000E+00
    -11.835  0.6278E-02  0.6276E-02  0.2273E-02  0.2275E-02  0.2380E-02  0.2383E-02  0.2273E-02  0.2275E-02  0.0000E+00  0.0000E+00  0.0000E+00  0.0000E+00  0.0000E+00  0.0000E+00  0.0000E+00  0.0000E+00  0.0000E+00  0.0000E+00
    -11.719  0.7326E-02  0.7329E-02  0.3199E-02  0.3202E-02  0.3794E-02  0.3798E-02  0.3199E-02  0.3202E-02  0.0000E+00  0.0000E+00  0.0000E+00  0.0000E+00  0.0000E+00  0.0000E+00  0.0000E+00  0.0000E+00  0.0000E+00  0.0000E+00
    -11.603  0.7172E-02  0.7167E-02  0.3964E-02  0.3969E-02  0.3891E-02  0.3889E-02  0.3964E-02  0.3969E-02  0.0000E+00  0.0000E+00  0.0000E+00  0.0000E+00  0.0000E+00  0.0000E+00  0.0000E+00  0.0000E+00  0.0000E+00  0.0000E+00
    -11.486  0.6750E-02  0.6749E-02  0.6159E-02  0.6170E-02  0.4134E-02  0.4140E-02  0.6159E-02  0.6170E-02  0.0000E+00  0.0000E+00  0.0000E+00  0.0000E+00  0.0000E+00  0.0000E+00  0.0000E+00  0.0000E+00  0.0000E+00  0.0000E+00
    -11.370  0.7075E-02  0.7073E-02  0.8934E-02  0.8941E-02  0.5313E-02  0.5313E-02  0.8934E-02  0.8941E-02  0.0000E+00  0.0000E+00  0.0000E+00  0.0000E+00  0.0000E+00  0.0000E+00  0.0000E+00  0.0000E+00  0.0000E+00  0.0000E+00
    -11.254  0.6284E-02  0.6280E-02  0.8733E-02  0.8728E-02  0.4721E-02  0.4721E-02  0.8733E-02  0.8728E-02  0.0000E+00  0.0000E+00  0.0000E+00  0.0000E+00  0.0000E+00  0.0000E+00  0.0000E+00  0.0000E+00  0.0000E+00  0.0000E+00
    -11.138  0.7249E-02  0.7255E-02  0.7779E-02  0.7776E-02  0.5685E-02  0.5692E-02  0.7779E-02  0.7776E-02  0.0000E+00  0.0000E+00  0.0000E+00  0.0000E+00  0.0000E+00  0.0000E+00  0.0000E+00  0.0000E+00  0.0000E+00  0.0000E+00
    -11.021  0.7082E-02  0.7070E-02  0.6317E-02  0.6308E-02  0.5943E-02  0.5938E-02  0.6317E-02  0.6308E-02  0.0000E+00  0.0000E+00  0.0000E+00  0.0000E+00  0.0000E+00  0.0000E+00  0.0000E+00  0.0000E+00  0.0000E+00  0.0000E+00
    -10.905  0.5264E-02  0.5256E-02  0.4788E-02  0.4782E-02  0.5159E-02  0.5156E-02  0.4788E-02  0.4782E-02  0.0000E+00  0.0000E+00  0.0000E+00  0.0000E+00  0.0000E+00  0.0000E+00  0.0000E+00  0.0000E+00  0.0000E+00  0.0000E+00
    -10.789  0.3183E-02  0.3168E-02  0.2830E-02  0.2816E-02  0.3191E-02  0.3175E-02  0.2830E-02  0.2816E-02  0.0000E+00  0.0000E+00  0.0000E+00  0.0000E+00  0.0000E+00  0.0000E+00  0.0000E+00  0.0000E+00  0.0000E+00  0.0000E+00
    -10.673  0.7621E-03  0.7544E-03  0.6459E-03  0.6395E-03  0.7151E-03  0.7079E-03  0.6459E-03  0.6395E-03  0.0000E+00  0.0000E+00  0.0000E+00  0.0000E+00  0.0000E+00  0.0000E+00  0.0000E+00  0.0000E+00  0.0000E+00  0.0000E+00
    -10.557  0.8341E-04  0.8073E-04  0.6838E-04  0.6701E-04  0.7945E-04  0.7342E-04  0.6838E-04  0.6701E-04  0.0000E+00  0.0000E+00  0.0000E+00  0.0000E+00  0.0000E+00  0.0000E+00  0.0000E+00  0.0000E+00  0.0000E+00  0.0000E+00
    -10.440  0.0000E+00  0.0000E+00  0.0000E+00  0.0000E+00  0.0000E+00  0.0000E+00  0.0000E+00  0.0000E+00  0.0000E+00  0.0000E+00  0.0000E+00  0.0000E+00  0.0000E+00  0.0000E+00  0.0000E+00  0.0000E+00  0.0000E+00  0.0000E+00
    -10.324  0.0000E+00  0.0000E+00  0.0000E+00  0.0000E+00  0.0000E+00  0.0000E+00  0.0000E+00  0.0000E+00  0.0000E+00  0.0000E+00  0.0000E+00  0.0000E+00  0.0000E+00  0.0000E+00  0.0000E+00  0.0000E+00  0.0000E+00  0.0000E+00
    -10.208  0.0000E+00  0.0000E+00  0.0000E+00  0.0000E+00  0.0000E+00  0.0000E+00  0.0000E+00  0.0000E+00  0.0000E+00  0.0000E+00  0.0000E+00  0.0000E+00  0.0000E+00  0.0000E+00  0.0000E+00  0.0000E+00  0.0000E+00  0.0000E+00
    -10.092  0.0000E+00  0.0000E+00  0.0000E+00  0.0000E+00  0.0000E+00  0.0000E+00  0.0000E+00  0.0000E+00  0.0000E+00  0.0000E+00  0.0000E+00  0.0000E+00  0.0000E+00  0.0000E+00  0.0000E+00  0.0000E+00  0.0000E+00  0.0000E+00
     -9.976  0.0000E+00  0.0000E+00  0.0000E+00  0.0000E+00  0.0000E+00  0.0000E+00  0.0000E+00  0.0000E+00  0.0000E+00  0.0000E+00  0.0000E+00  0.0000E+00  0.0000E+00  0.0000E+00  0.0000E+00  0.0000E+00  0.0000E+00  0.0000E+00
     -9.859  0.0000E+00  0.0000E+00  0.0000E+00  0.0000E+00  0.0000E+00  0.0000E+00  0.0000E+00  0.0000E+00  0.0000E+00  0.0000E+00  0.0000E+00  0.0000E+00  0.0000E+00  0.0000E+00  0.0000E+00  0.0000E+00  0.0000E+00  0.0000E+00
     -9.743  0.0000E+00  0.0000E+00  0.0000E+00  0.0000E+00  0.0000E+00  0.0000E+00  0.0000E+00  0.0000E+00  0.0000E+00  0.0000E+00  0.0000E+00  0.0000E+00  0.0000E+00  0.0000E+00  0.0000E+00  0.0000E+00  0.0000E+00  0.0000E+00
     -9.627  0.0000E+00  0.0000E+00  0.0000E+00  0.0000E+00  0.0000E+00  0.0000E+00  0.0000E+00  0.0000E+00  0.0000E+00  0.0000E+00  0.0000E+00  0.0000E+00  0.0000E+00  0.0000E+00  0.0000E+00  0.0000E+00  0.0000E+00  0.0000E+00
     -9.511  0.0000E+00  0.0000E+00  0.0000E+00  0.0000E+00  0.0000E+00  0.0000E+00  0.0000E+00  0.0000E+00  0.0000E+00  0.0000E+00  0.0000E+00  0.0000E+00  0.0000E+00  0.0000E+00  0.0000E+00  0.0000E+00  0.0000E+00  0.0000E+00
     -9.395  0.0000E+00  0.0000E+00  0.0000E+00  0.0000E+00  0.0000E+00  0.0000E+00  0.0000E+00  0.0000E+00  0.0000E+00  0.0000E+00  0.0000E+00  0.0000E+00  0.0000E+00  0.0000E+00  0.0000E+00  0.0000E+00  0.0000E+00  0.0000E+00
     -9.278  0.0000E+00  0.0000E+00  0.0000E+00  0.0000E+00  0.0000E+00  0.0000E+00  0.0000E+00  0.0000E+00  0.0000E+00  0.0000E+00  0.0000E+00  0.0000E+00  0.0000E+00  0.0000E+00  0.0000E+00  0.0000E+00  0.0000E+00  0.0000E+00
     -9.162  0.0000E+00  0.0000E+00  0.0000E+00  0.0000E+00  0.0000E+00  0.0000E+00  0.0000E+00  0.0000E+00  0.0000E+00  0.0000E+00  0.0000E+00  0.0000E+00  0.0000E+00  0.0000E+00  0.0000E+00  0.0000E+00  0.0000E+00  0.0000E+00