  30  30   1   0
  0.7495176E+01  0.4564777E-09  0.4564776E-09  0.1246044E-08  0.5000000E-15
  1.000000000000000E-004
  CAR 
 unknown system                          
     24.12571679    -14.33773518  301      8.74058642      1.00000000
    -14.338  0.0000E+00  0.0000E+00  0.0000E+00  0.0000E+00
    -14.210  0.0000E+00  0.0000E+00  0.0000E+00  0.0000E+00
    -14.081  0.0000E+00  0.0000E+00  0.0000E+00  0.0000E+00
    -13.953  0.0000E+00  0.0000E+00  0.0000E+00  0.0000E+00
    -13.825  0.0000E+00  0.0000E+00  0.0000E+00  0.0000E+00
    -13.697  0.0000E+00  0.0000E+00  0.0000E+00  0.0000E+00
    -13.568  0.0000E+00  0.0000E+00  0.0000E+00  0.0000E+00
    -13.440  0.0000E+00  0.0000E+00  0.0000E+00  0.0000E+00
    -13.312  0.0000E+00  0.0000E+00  0.0000E+00  0.0000E+00
    -13.184  0.0000E+00  0.0000E+00  0.0000E+00  0.0000E+00
    -13.056  0.2775E-04  0.2783E-04  0.3558E-05  0.3568E-05
    -12.927  0.3323E-03  0.3333E-03  0.4617E-04  0.4630E-04
    -12.799  0.4621E-02  0.4634E-02  0.6386E-03  0.6405E-03
    -12.671  0.5068E-01  0.5081E-01  0.7137E-02  0.7155E-02
    -12.543  0.2284E+00  0.2286E+00  0.3641E-01  0.3646E-01
    -12.415  0.5994E+00  0.6004E+00  0.1133E+00  0.1134E+00
    -12.286  0.1236E+01  0.1236E+01  0.2718E+00  0.2719E+00
    -12.158  0.7965E+00  0.7968E+00  0.3740E+00  0.3742E+00
    -12.030  0.1413E+01  0.1414E+01  0.5552E+00  0.5554E+00
    -11.902  0.1547E+01  0.1547E+01  0.7539E+00  0.7542E+00
    -11.774  0.1703E+01  0.1705E+01  0.9722E+00  0.9728E+00
    -11.645  0.2697E+01  0.2698E+01  0.1318E+01  0.1319E+01
    -11.517  0.2501E+01  0.2500E+01  0.1640E+01  0.1640E+01
    -11.389  0.1385E+01  0.1383E+01  0.1817E+01  0.1817E+01
    -11.261  0.2352E+01  0.2358E+01  0.2119E+01  0.2120E+01
    -11.132  0.4569E+01  0.4569E+01  0.2706E+01  0.2707E+01
    -11.004  0.3920E+01  0.3919E+01  0.3208E+01  0.3209E+01
    -10.876  0.3309E+01  0.3307E+01  0.3633E+01  0.3633E+01
    -10.748  0.2423E+01  0.2424E+01  0.3944E+01  0.3945E+01
    -10.620  0.3072E+01  0.3072E+01  0.4338E+01  0.4339E+01
    -10.491  0.2523E+01  0.2524E+01  0.4663E+01  0.4664E+01
    -10.363  0.3314E+01  0.3318E+01  0.5088E+01  0.5089E+01
    -10.235  0.4828E+01  0.4829E+01  0.5708E+01  0.5709E+01
    -10.107  0.4218E+01  0.4218E+01  0.6249E+01  0.6250E+01
     -9.979  0.5306E+01  0.5310E+01  0.6930E+01  0.6932E+01
     -9.850  0.7324E+01  0.7335E+01  0.7871E+01  0.7874E+01
     -9.722  0.9594E+01  0.9595E+01  0.9101E+01  0.9105E+01
     -9.594  0.8477E+01  0.8475E+01  0.1019E+02  0.1019E+02
     -9.466  0.9382E+01  0.9393E+01  0.1139E+02  0.1140E+02
     -9.337  0.1248E+02  0.1248E+02  0.1300E+02  0.1300E+02
     -9.209  0.1073E+02  0.1073E+02  0.1437E+02  0.1438E+02
     -9.081  0.1208E+02  0.1208E+02  0.1592E+02  0.1593E+02
     -8.953  0.1156E+02  0.1155E+02  0.1741E+02  0.1741E+02
     -8.825  0.4120E+01  0.4094E+01  0.1794E+02  0.1794E+02
     -8.696  0.4248E+00  0.4210E+00  0.1800E+02  0.1800E+02
     -8.568  0.0000E+00  0.0000E+00  0.1800E+02  0.1800E+02
     -8.440  0.0000E+00  0.0000E+00  0.1800E+02  0.1800E+02
     -8.312  0.0000E+00  0.0000E+00  0.1800E+02  0.1800E+02
     -8.184  0.0000E+00  0.0000E+00  0.1800E+02  0.1800E+02
     -8.055  0.0000E+00  0.0000E+00  0.1800E+02  0.1800E+02
     -7.927  0.0000E+00  0.0000E+00  0.1800E+02  0.1800E+02
     -7.799  0.0000E+00  0.0000E+00  0.1800E+02  0.1800E+02
     -7.671  0.0000E+00  0.0000E+00  0.1800E+02  0.1800E+02
     -7.543  0.0000E+00  0.0000E+00  0.1800E+02  0.1800E+02
     -7.414  0.0000E+00  0.0000E+00  0.1800E+02  0.1800E+02
     -7.286  0.0000E+00  0.0000E+00  0.1800E+02  0.1800E+02
     -7.158  0.0000E+00  0.0000E+00  0.1800E+02  0.1800E+02
     -7.030  0.0000E+00  0.0000E+00  0.1800E+02  0.1800E+02
     -6.901  0.0000E+00  0.0000E+00  0.1800E+02  0.1800E+02
     -6.773  0.0000E+00  0.0000E+00  0.1800E+02  0.1800E+02
     -6.645  0.0000E+00  0.0000E+00  0.1800E+02  0.1800E+02
     -6.517  0.0000E+00  0.0000E+00  0.1800E+02  0.1800E+02
     -6.389  0.0000E+00  0.0000E+00  0.1800E+02  0.1800E+02
     -6.260  0.0000E+00  0.0000E+00  0.1800E+02  0.1800E+02
     -6.132  0.0000E+00  0.0000E+00  0.1800E+02  0.1800E+02
     -6.004  0.0000E+00  0.0000E+00  0.1800E+02  0.1800E+02
     -5.876  0.0000E+00  0.0000E+00  0.1800E+02  0.1800E+02
     -5.748  0.0000E+00  0.0000E+00  0.1800E+02  0.1800E+02
     -5.619  0.0000E+00  0.0000E+00  0.1800E+02  0.1800E+02
     -5.491  0.0000E+00  0.0000E+00  0.1800E+02  0.1800E+02
     -5.363  0.0000E+00  0.0000E+00  0.1800E+02  0.1800E+02
     -5.235  0.0000E+00  0.0000E+00  0.1800E+02  0.1800E+02
     -5.107  0.0000E+00  0.0000E+00  0.1800E+02  0.1800E+02
     -4.978  0.0000E+00  0.0000E+00  0.1800E+02  0.1800E+02
     -4.850  0.0000E+00  0.0000E+00  0.1800E+02  0.1800E+02
     -4.722  0.0000E+00  0.0000E+00  0.1800E+02  0.1800E+02
     -4.594  0.0000E+00  0.0000E+00  0.1800E+02  0.1800E+02
     -4.465  0.0000E+00  0.0000E+00  0.1800E+02  0.1800E+02
     -4.337  0.0000E+00  0.0000E+00  0.1800E+02  0.1800E+02
     -4.209  0.0000E+00  0.0000E+00  0.1800E+02  0.1800E+02
     -4.081  0.0000E+00  0.0000E+00  0.1800E+02  0.1800E+02
     -3.953  0.0000E+00  0.0000E+00  0.1800E+02  0.1800E+02
     -3.824  0.0000E+00  0.0000E+00  0.1800E+02  0.1800E+02
     -3.696  0.0000E+00  0.0000E+00  0.1800E+02  0.1800E+02
     -3.568  0.0000E+00  0.0000E+00  0.1800E+02  0.1800E+02
     -3.440  0.0000E+00  0.0000E+00  0.1800E+02  0.1800E+02
     -3.312  0.0000E+00  0.0000E+00  0.1800E+02  0.1800E+02
     -3.183  0.0000E+00  0.0000E+00  0.1800E+02  0.1800E+02
     -3.055  0.0000E+00  0.0000E+00  0.1800E+02  0.1800E+02
     -2.927  0.0000E+00  0.0000E+00  0.1800E+02  0.1800E+02
     -2.799  0.0000E+00  0.0000E+00  0.1800E+02  0.1800E+02
     -2.670  0.0000E+00  0.0000E+00  0.1800E+02  0.1800E+02
     -2.542  0.0000E+00  0.0000E+00  0.1800E+02  0.1800E+02
     -2.414  0.0000E+00  0.0000E+00  0.1800E+02  0.1800E+02
     -2.286  0.0000E+00  0.0000E+00  0.1800E+02  0.1800E+02
     -2.158  0.0000E+00  0.0000E+00  0.1800E+02  0.1800E+02
     -2.029  0.0000E+00  0.0000E+00  0.1800E+02  0.1800E+02
     -1.901  0.0000E+00  0.0000E+00  0.1800E+02  0.1800E+02
     -1.773  0.0000E+00  0.0000E+00  0.1800E+02  0.1800E+02
     -1.645  0.0000E+00  0.0000E+00  0.1800E+02  0.1800E+02
     -1.517  0.0000E+00  0.0000E+00  0.1800E+02  0.1800E+02
     -1.388  0.0000E+00  0.0000E+00  0.1800E+02  0.1800E+02
     -1.260  0.0000E+00  0.0000E+00  0.1800E+02  0.1800E+02
     -1.132  0.0000E+00  0.0000E+00  0.1800E+02  0.1800E+02
     -1.004  0.0000E+00  0.0000E+00  0.1800E+02  0.1800E+02
     -0.876  0.0000E+00  0.0000E+00  0.1800E+02  0.1800E+02
     -0.747  0.0000E+00  0.0000E+00  0.1800E+02  0.1800E+02
     -0.619  0.0000E+00  0.0000E+00  0.1800E+02  0.1800E+02
     -0.491  0.0000E+00  0.0000E+00  0.1800E+02  0.1800E+02
     -0.363  0.1321E-04  0.1319E-04  0.1800E+02  0.1800E+02
     -0.234  0.1947E-03  0.1945E-03  0.1800E+02  0.1800E+02
     -0.106  0.2783E-02  0.2780E-02  0.1800E+02  0.1800E+02
      0.022  0.3372E-01  0.3369E-01  0.1800E+02  0.1800E+02
      0.150  0.2599E+00  0.2597E+00  0.1804E+02  0.1804E+02
      0.278  0.1011E+01  0.1011E+01  0.1817E+02  0.1817E+02
      0.407  0.1768E+01  0.1768E+01  0.1839E+02  0.1839E+02
      0.535  0.2073E+01  0.2073E+01  0.1866E+02  0.1866E+02
      0.663  0.3439E+01  0.3438E+01  0.1910E+02  0.1910E+02
      0.791  0.5486E+01  0.5485E+01  0.1980E+02  0.1980E+02
      0.919  0.7211E+01  0.7212E+01  0.2073E+02  0.2073E+02
      1.048  0.5838E+01  0.5838E+01  0.2148E+02  0.2148E+02
      1.176  0.8100E+01  0.8101E+01  0.2252E+02  0.2252E+02
      1.304  0.8065E+01  0.8066E+01  0.2355E+02  0.2355E+02
      1.432  0.7259E+01  0.7259E+01  0.2449E+02  0.2449E+02
      1.560  0.4734E+01  0.4735E+01  0.2509E+02  0.2509E+02
      1.689  0.3847E+01  0.3847E+01  0.2559E+02  0.2559E+02
      1.817  0.4528E+01  0.4528E+01  0.2617E+02  0.2617E+02
      1.945  0.6146E+01  0.6146E+01  0.2696E+02  0.2696E+02
      2.073  0.6810E+01  0.6810E+01  0.2783E+02  0.2783E+02
      2.202  0.7790E+01  0.7790E+01  0.2883E+02  0.2883E+02
      2.330  0.6965E+01  0.6965E+01  0.2973E+02  0.2973E+02
      2.458  0.4448E+01  0.4448E+01  0.3030E+02  0.3030E+02
      2.586  0.4732E+01  0.4731E+01  0.3091E+02  0.3091E+02
      2.714  0.4524E+01  0.4524E+01  0.3149E+02  0.3149E+02
      2.843  0.4665E+01  0.4666E+01  0.3209E+02  0.3209E+02
      2.971  0.6969E+01  0.6970E+01  0.3298E+02  0.3298E+02
      3.099  0.8661E+01  0.8662E+01  0.3409E+02  0.3409E+02
      3.227  0.6981E+01  0.6981E+01  0.3499E+02  0.3499E+02
      3.355  0.5227E+01  0.5227E+01  0.3566E+02  0.3566E+02
      3.484  0.4188E+01  0.4188E+01  0.3620E+02  0.3620E+02
      3.612  0.3904E+01  0.3904E+01  0.3670E+02  0.3670E+02
      3.740  0.4215E+01  0.4217E+01  0.3724E+02  0.3724E+02
      3.868  0.6370E+01  0.6373E+01  0.3806E+02  0.3806E+02
      3.997  0.6872E+01  0.6872E+01  0.3894E+02  0.3894E+02
      4.125  0.4946E+01  0.4944E+01  0.3958E+02  0.3958E+02
      4.253  0.3645E+01  0.3645E+01  0.4004E+02  0.4005E+02
      4.381  0.4006E+01  0.4006E+01  0.4056E+02  0.4056E+02
      4.509  0.3507E+01  0.3509E+01  0.4101E+02  0.4101E+02
      4.638  0.6311E+01  0.6315E+01  0.4182E+02  0.4182E+02
      4.766  0.7108E+01  0.7108E+01  0.4273E+02  0.4273E+02
      4.894  0.8068E+01  0.8073E+01  0.4377E+02  0.4377E+02
      5.022  0.1146E+02  0.1146E+02  0.4524E+02  0.4524E+02
      5.150  0.1083E+02  0.1082E+02  0.4663E+02  0.4663E+02
      5.279  0.7582E+01  0.7582E+01  0.4760E+02  0.4760E+02
      5.407  0.8082E+01  0.8082E+01  0.4864E+02  0.4864E+02
      5.535  0.7723E+01  0.7726E+01  0.4963E+02  0.4964E+02
      5.663  0.1076E+02  0.1077E+02  0.5101E+02  0.5102E+02
      5.791  0.1109E+02  0.1109E+02  0.5244E+02  0.5244E+02
      5.920  0.1045E+02  0.1046E+02  0.5378E+02  0.5378E+02
      6.048  0.1238E+02  0.1239E+02  0.5537E+02  0.5537E+02
      6.176  0.1415E+02  0.1415E+02  0.5718E+02  0.5719E+02
      6.304  0.1369E+02  0.1369E+02  0.5894E+02  0.5895E+02
      6.433  0.1189E+02  0.1188E+02  0.6047E+02  0.6047E+02
      6.561  0.1063E+02  0.1062E+02  0.6183E+02  0.6184E+02
      6.689  0.9940E+01  0.9947E+01  0.6311E+02  0.6312E+02
      6.817  0.1181E+02  0.1181E+02  0.6463E+02  0.6463E+02
      6.945  0.1103E+02  0.1103E+02  0.6605E+02  0.6605E+02
      7.074  0.9770E+01  0.9766E+01  0.6730E+02  0.6730E+02
      7.202  0.1073E+02  0.1074E+02  0.6868E+02  0.6868E+02
      7.330  0.1192E+02  0.1192E+02  0.7021E+02  0.7021E+02
      7.458  0.7865E+01  0.7848E+01  0.7122E+02  0.7122E+02
      7.586  0.4548E+01  0.4536E+01  0.7180E+02  0.7181E+02
      7.715  0.1345E+01  0.1335E+01  0.7198E+02  0.7198E+02
      7.843  0.1449E+00  0.1435E+00  0.7200E+02  0.7200E+02
      7.971  0.3664E-02  0.3628E-02  0.7200E+02  0.7200E+02
      8.099  0.0000E+00  0.0000E+00  0.7200E+02  0.7200E+02
      8.227  0.0000E+00  0.0000E+00  0.7200E+02  0.7200E+02
      8.356  0.0000E+00  0.0000E+00  0.7200E+02  0.7200E+02
      8.484  0.0000E+00  0.0000E+00  0.7200E+02  0.7200E+02
      8.612  0.0000E+00  0.0000E+00  0.7200E+02  0.7200E+02
      8.740  0.0000E+00  0.0000E+00  0.7200E+02  0.7200E+02
      8.869  0.0000E+00  0.0000E+00  0.7200E+02  0.7200E+02
      8.997  0.0000E+00  0.0000E+00  0.7200E+02  0.7200E+02
      9.125  0.0000E+00  0.0000E+00  0.7200E+02  0.7200E+02
      9.253  0.0000E+00  0.0000E+00  0.7200E+02  0.7200E+02
      9.381  0.0000E+00  0.0000E+00  0.7200E+02  0.7200E+02
      9.510  0.0000E+00  0.0000E+00  0.7200E+02  0.7200E+02
      9.638  0.0000E+00  0.0000E+00  0.7200E+02  0.7200E+02
      9.766  0.0000E+00  0.0000E+00  0.7200E+02  0.7200E+02
      9.894  0.0000E+00  0.0000E+00  0.7200E+02  0.7200E+02
     10.022  0.0000E+00  0.0000E+00  0.7200E+02  0.7200E+02
     10.151  0.0000E+00  0.0000E+00  0.7200E+02  0.7200E+02
     10.279  0.0000E+00  0.0000E+00  0.7200E+02  0.7200E+02
     10.407  0.0000E+00  0.0000E+00  0.7200E+02  0.7200E+02
     10.535  0.0000E+00  0.0000E+00  0.7200E+02  0.7200E+02
     10.664  0.0000E+00  0.0000E+00  0.7200E+02  0.7200E+02
     10.792  0.0000E+00  0.0000E+00  0.7200E+02  0.7200E+02
     10.920  0.0000E+00  0.0000E+00  0.7200E+02  0.7200E+02
     11.048  0.0000E+00  0.0000E+00  0.7200E+02  0.7200E+02
     11.176  0.0000E+00  0.0000E+00  0.7200E+02  0.7200E+02
     11.305  0.0000E+00  0.0000E+00  0.7200E+02  0.7200E+02
     11.433  0.0000E+00  0.0000E+00  0.7200E+02  0.7200E+02
     11.561  0.0000E+00  0.0000E+00  0.7200E+02  0.7200E+02
     11.689  0.0000E+00  0.0000E+00  0.7200E+02  0.7200E+02
     11.817  0.0000E+00  0.0000E+00  0.7200E+02  0.7200E+02
     11.946  0.0000E+00  0.0000E+00  0.7200E+02  0.7200E+02
     12.074  0.0000E+00  0.0000E+00  0.7200E+02  0.7200E+02
     12.202  0.0000E+00  0.0000E+00  0.7200E+02  0.7200E+02
     12.330  0.0000E+00  0.0000E+00  0.7200E+02  0.7200E+02
     12.458  0.0000E+00  0.0000E+00  0.7200E+02  0.7200E+02
     12.587  0.0000E+00  0.0000E+00  0.7200E+02  0.7200E+02
     12.715  0.0000E+00  0.0000E+00  0.7200E+02  0.7200E+02
     12.843  0.0000E+00  0.0000E+00  0.7200E+02  0.7200E+02
     12.971  0.0000E+00  0.0000E+00  0.7200E+02  0.7200E+02
     13.100  0.0000E+00  0.0000E+00  0.7200E+02  0.7200E+02
     13.228  0.0000E+00  0.0000E+00  0.7200E+02  0.7200E+02
     13.356  0.0000E+00  0.0000E+00  0.7200E+02  0.7200E+02
     13.484  0.0000E+00  0.0000E+00  0.7200E+02  0.7200E+02
     13.612  0.0000E+00  0.0000E+00  0.7200E+02  0.7200E+02
     13.741  0.0000E+00  0.0000E+00  0.7200E+02  0.7200E+02
     13.869  0.0000E+00  0.0000E+00  0.7200E+02  0.7200E+02
     13.997  0.0000E+00  0.0000E+00  0.7200E+02  0.7200E+02
     14.125  0.0000E+00  0.0000E+00  0.7200E+02  0.7200E+02
     14.253  0.0000E+00  0.0000E+00  0.7200E+02  0.7200E+02
     14.382  0.0000E+00  0.0000E+00  0.7200E+02  0.7200E+02
     14.510  0.0000E+00  0.0000E+00  0.7200E+02  0.7200E+02
     14.638  0.0000E+00  0.0000E+00  0.7200E+02  0.7200E+02
     14.766  0.0000E+00  0.0000E+00  0.7200E+02  0.7200E+02
     14.894  0.0000E+00  0.0000E+00  0.7200E+02  0.7200E+02
     15.023  0.0000E+00  0.0000E+00  0.7200E+02  0.7200E+02
     15.151  0.1574E-04  0.1557E-04  0.7200E+02  0.7200E+02
     15.279  0.1886E-03  0.1866E-03  0.7200E+02  0.7200E+02
     15.407  0.2430E-02  0.2404E-02  0.7200E+02  0.7200E+02
     15.536  0.2844E-01  0.2816E-01  0.7200E+02  0.7200E+02
     15.664  0.1529E+00  0.1524E+00  0.7202E+02  0.7202E+02
     15.792  0.1122E+00  0.1128E+00  0.7204E+02  0.7204E+02
     15.920  0.1476E-01  0.1491E-01  0.7204E+02  0.7204E+02
     16.048  0.2160E-02  0.2139E-02  0.7204E+02  0.7204E+02
     16.177  0.2768E-01  0.2741E-01  0.7204E+02  0.7204E+02
     16.305  0.3047E+00  0.3022E+00  0.7208E+02  0.7208E+02
     16.433  0.1197E+01  0.1195E+01  0.7224E+02  0.7224E+02
     16.561  0.5829E+00  0.5868E+00  0.7231E+02  0.7231E+02
     16.689  0.6580E-01  0.6639E-01  0.7232E+02  0.7232E+02
     16.818  0.2524E-01  0.2501E-01  0.7232E+02  0.7232E+02
     16.946  0.2756E+00  0.2735E+00  0.7236E+02  0.7236E+02
     17.074  0.1043E+01  0.1042E+01  0.7249E+02  0.7249E+02
     17.202  0.5790E+00  0.5811E+00  0.7257E+02  0.7257E+02
     17.331  0.7771E+00  0.7735E+00  0.7267E+02  0.7267E+02
     17.459  0.1099E+01  0.1102E+01  0.7281E+02  0.7281E+02
     17.587  0.3307E+00  0.3317E+00  0.7285E+02  0.7285E+02
     17.715  0.9413E+00  0.9337E+00  0.7297E+02  0.7297E+02
     17.843  0.2973E+01  0.2967E+01  0.7335E+02  0.7335E+02
     17.972  0.3084E+01  0.3080E+01  0.7375E+02  0.7375E+02
     18.100  0.4701E+01  0.4684E+01  0.7435E+02  0.7435E+02
     18.228  0.5433E+01  0.5442E+01  0.7505E+02  0.7504E+02
     18.356  0.4333E+01  0.4334E+01  0.7560E+02  0.7560E+02
     18.484  0.7021E+01  0.7002E+01  0.7650E+02  0.7650E+02
     18.613  0.8164E+01  0.8165E+01  0.7755E+02  0.7755E+02
     18.741  0.7850E+01  0.7860E+01  0.7856E+02  0.7856E+02
     18.869  0.3784E+01  0.3803E+01  0.7905E+02  0.7905E+02
     18.997  0.3404E+01  0.3395E+01  0.7949E+02  0.7948E+02
     19.125  0.5836E+01  0.5820E+01  0.8024E+02  0.8023E+02
     19.254  0.8802E+01  0.8792E+01  0.8136E+02  0.8136E+02
     19.382  0.9071E+01  0.9085E+01  0.8253E+02  0.8252E+02
     19.510  0.5942E+01  0.5948E+01  0.8329E+02  0.8329E+02
     19.638  0.8022E+01  0.8011E+01  0.8432E+02  0.8432E+02
     19.767  0.8235E+01  0.8239E+01  0.8538E+02  0.8537E+02
     19.895  0.7657E+01  0.7651E+01  0.8636E+02  0.8636E+02
     20.023  0.7328E+01  0.7338E+01  0.8730E+02  0.8730E+02
     20.151  0.5339E+01  0.5349E+01  0.8799E+02  0.8799E+02
     20.279  0.3846E+01  0.3851E+01  0.8848E+02  0.8848E+02
     20.408  0.5014E+01  0.4998E+01  0.8913E+02  0.8912E+02
     20.536  0.6940E+01  0.6939E+01  0.9002E+02  0.9001E+02
     20.664  0.8045E+01  0.8042E+01  0.9105E+02  0.9105E+02
     20.792  0.5523E+01  0.5529E+01  0.9176E+02  0.9176E+02
     20.920  0.3801E+01  0.3767E+01  0.9225E+02  0.9224E+02
     21.049  0.5501E+01  0.5544E+01  0.9296E+02  0.9295E+02
     21.177  0.6724E+01  0.6679E+01  0.9382E+02  0.9381E+02
     21.305  0.7800E+01  0.7764E+01  0.9482E+02  0.9481E+02
     21.433  0.7907E+01  0.7694E+01  0.9584E+02  0.9579E+02
     21.561  0.6219E+01  0.5684E+01  0.9663E+02  0.9652E+02
     21.690  0.7197E+01  0.6707E+01  0.9756E+02  0.9739E+02
     21.818  0.6468E+01  0.6283E+01  0.9839E+02  0.9819E+02
     21.946  0.4450E+01  0.5051E+01  0.9896E+02  0.9884E+02
     22.074  0.2966E+01  0.3413E+01  0.9934E+02  0.9928E+02
     22.203  0.2091E+01  0.2441E+01  0.9961E+02  0.9960E+02
     22.331  0.1774E+01  0.2250E+01  0.9984E+02  0.9989E+02
     22.459  0.1054E+01  0.7954E+00  0.9998E+02  0.9999E+02
     22.587  0.1729E+00  0.8595E-01  0.1000E+03  0.1000E+03
     22.715  0.1170E-01  0.1480E-02  0.1000E+03  0.1000E+03
     22.844  0.0000E+00  0.0000E+00  0.1000E+03  0.1000E+03
     22.972  0.0000E+00  0.0000E+00  0.1000E+03  0.1000E+03
     23.100  0.0000E+00  0.0000E+00  0.1000E+03  0.1000E+03
     23.228  0.0000E+00  0.0000E+00  0.1000E+03  0.1000E+03
     23.356  0.0000E+00  0.0000E+00  0.1000E+03  0.1000E+03
     23.485  0.0000E+00  0.0000E+00  0.1000E+03  0.1000E+03
     23.613  0.0000E+00  0.0000E+00  0.1000E+03  0.1000E+03
     23.741  0.0000E+00  0.0000E+00  0.1000E+03  0.1000E+03
     23.869  0.0000E+00  0.0000E+00  0.1000E+03  0.1000E+03
     23.998  0.0000E+00  0.0000E+00  0.1000E+03  0.1000E+03
     24.126  0.0000E+00  0.0000E+00  0.1000E+03  0.1000E+03
     24.12571679    -14.33773518  301      8.74058642      1.00000000
    -14.338  0.0000E+00  0.0000E+00  0.0000E+00  0.0000E+00  0.0000E+00  0.0000E+00  0.0000E+00  0.0000E+00  0.0000E+00  0.0000E+00  0.0000E+00  0.0000E+00  0.0000E+00  0.0000E+00  0.0000E+00  0.0000E+00  0.0000E+00  0.0000E+00
    -14.210  0.0000E+00  0.0000E+00  0.0000E+00  0.0000E+00  0.0000E+00  0.0000E+00  0.0000E+00  0.0000E+00  0.0000E+00  0.0000E+00  0.0000E+00  0.0000E+00  0.0000E+00  0.0000E+00  0.0000E+00  0.0000E+00  0.0000E+00  0.0000E+00
    -14.081  0.0000E+00  0.0000E+00  0.0000E+00  0.0000E+00  0.0000E+00  0.0000E+00  0.0000E+00  0.0000E+00  0.0000E+00  0.0000E+00  0.0000E+00  0.0000E+00  0.0000E+00  0.0000E+00  0.0000E+00  0.0000E+00  0.0000E+00  0.0000E+00
    -13.953  0.0000E+00  0.0000E+00  0.0000E+00  0.0000E+00  0.0000E+00  0.0000E+00  0.0000E+00  0.0000E+00  0.0000E+00  0.0000E+00  0.0000E+00  0.0000E+00  0.0000E+00  0.0000E+00  0.0000E+00  0.0000E+00  0.0000E+00  0.0000E+00
    -13.825  0.0000E+00  0.0000E+00  0.0000E+00  0.0000E+00  0.0000E+00  0.0000E+00  0.0000E+00  0.0000E+00  0.0000E+00  0.0000E+00  0.0000E+00  0.0000E+00  0.0000E+00  0.0000E+00  0.0000E+00  0.0000E+00  0.0000E+00  0.0000E+00
    -13.697  0.0000E+00  0.0000E+00  0.0000E+00  0.0000E+00  0.0000E+00  0.0000E+00  0.0000E+00  0.0000E+00  0.0000E+00  0.0000E+00  0.0000E+00  0.0000E+00  0.0000E+00  0.0000E+00  0.0000E+00  0.0000E+00  0.0000E+00  0.0000E+00
    -13.568  0.0000E+00  0.0000E+00  0.0000E+00  0.0000E+00  0.0000E+00  0.0000E+00  0.0000E+00  0.0000E+00  0.0000E+00  0.0000E+00  0.0000E+00  0.0000E+00  0.0000E+00  0.0000E+00  0.0000E+00  0.0000E+00  0.0000E+00  0.0000E+00
    -13.440  0.0000E+00  0.0000E+00  0.0000E+00  0.0000E+00  0.0000E+00  0.0000E+00  0.0000E+00  0.0000E+00  0.0000E+00  0.0000E+00  0.0000E+00  0.0000E+00  0.0000E+00  0.0000E+00  0.0000E+00  0.0000E+00  0.0000E+00  0.0000E+00
    -13.312  0.0000E+00  0.0000E+00  0.0000E+00  0.0000E+00  0.0000E+00  0.0000E+00  0.0000E+00  0.0000E+00  0.0000E+00  0.0000E+00  0.0000E+00  0.0000E+00  0.0000E+00  0.0000E+00  0.0000E+00  0.0000E+00  0.0000E+00  0.0000E+00
    -13.184  0.0000E+00  0.0000E+00  0.0000E+00  0.0000E+00  0.0000E+00  0.0000E+00  0.0000E+00  0.0000E+00  0.0000E+00  0.0000E+00  0.0000E+00  0.0000E+00  0.0000E+00  0.0000E+00  0.0000E+00  0.0000E+00  0.0000E+00  0.0000E+00
    -13.056  0.2270E-06  0.2277E-06  0.8710E-17  0.1116E-16  0.2165E-08  0.2172E-08  0.8710E-17  0.1116E-16  0.0000E+00  0.0000E+00  0.0000E+00  0.0000E+00  0.0000E+00  0.0000E+00  0.0000E+00  0.0000E+00  0.0000E+00  0.0000E+00
    -12.927  0.2719E-05  0.2727E-05  0.1043E-15  0.1337E-15  0.2593E-07  0.2601E-07  0.1043E-15  0.1337E-15  0.0000E+00  0.0000E+00  0.0000E+00  0.0000E+00  0.0000E+00  0.0000E+00  0.0000E+00  0.0000E+00  0.0000E+00  0.0000E+00
    -12.799  0.3760E-04  0.3770E-04  0.5629E-07  0.5646E-07  0.3688E-06  0.3698E-06  0.5629E-07  0.5646E-07  0.0000E+00  0.0000E+00  0.0000E+00  0.0000E+00  0.0000E+00  0.0000E+00  0.0000E+00  0.0000E+00  0.0000E+00  0.0000E+00
    -12.671  0.4122E-03  0.4132E-03  0.6733E-06  0.6754E-06  0.4053E-05  0.4063E-05  0.6733E-06  0.6754E-06  0.0000E+00  0.0000E+00  0.0000E+00  0.0000E+00  0.0000E+00  0.0000E+00  0.0000E+00  0.0000E+00  0.0000E+00  0.0000E+00
    -12.543  0.1837E-02  0.1839E-02  0.8518E-05  0.8544E-05  0.1916E-04  0.1918E-04  0.8518E-05  0.8544E-05  0.0000E+00  0.0000E+00  0.0000E+00  0.0000E+00  0.0000E+00  0.0000E+00  0.0000E+00  0.0000E+00  0.0000E+00  0.0000E+00
    -12.415  0.4613E-02  0.4620E-02  0.7884E-04  0.7901E-04  0.6159E-04  0.6171E-04  0.7884E-04  0.7901E-04  0.0000E+00  0.0000E+00  0.0000E+00  0.0000E+00  0.0000E+00  0.0000E+00  0.0000E+00  0.0000E+00  0.0000E+00  0.0000E+00
    -12.286  0.9401E-02  0.9398E-02  0.1726E-03  0.1726E-03  0.1717E-03  0.1718E-03  0.1726E-03  0.1726E-03  0.0000E+00  0.0000E+00  0.0000E+00  0.0000E+00  0.0000E+00  0.0000E+00  0.0000E+00  0.0000E+00  0.0000E+00  0.0000E+00
    -12.158  0.5804E-02  0.5804E-02  0.1150E-03  0.1151E-03  0.2353E-03  0.2355E-03  0.1150E-03  0.1151E-03  0.0000E+00  0.0000E+00  0.0000E+00  0.0000E+00  0.0000E+00  0.0000E+00  0.0000E+00  0.0000E+00  0.0000E+00  0.0000E+00
    -12.030  0.9800E-02  0.9802E-02  0.3067E-03  0.3071E-03  0.4846E-03  0.4846E-03  0.3067E-03  0.3071E-03  0.0000E+00  0.0000E+00  0.0000E+00  0.0000E+00  0.0000E+00  0.0000E+00  0.0000E+00  0.0000E+00  0.0000E+00  0.0000E+00
    -11.902  0.1024E-01  0.1023E-01  0.5975E-03  0.5977E-03  0.3061E-03  0.3059E-03  0.5975E-03  0.5977E-03  0.0000E+00  0.0000E+00  0.0000E+00  0.0000E+00  0.0000E+00  0.0000E+00  0.0000E+00  0.0000E+00  0.0000E+00  0.0000E+00
    -11.774  0.1057E-01  0.1058E-01  0.7666E-03  0.7673E-03  0.4768E-03  0.4776E-03  0.7666E-03  0.7673E-03  0.0000E+00  0.0000E+00  0.0000E+00  0.0000E+00  0.0000E+00  0.0000E+00  0.0000E+00  0.0000E+00  0.0000E+00  0.0000E+00
    -11.645  0.1619E-01  0.1619E-01  0.1126E-02  0.1126E-02  0.1151E-02  0.1152E-02  0.1126E-02  0.1126E-02  0.0000E+00  0.0000E+00  0.0000E+00  0.0000E+00  0.0000E+00  0.0000E+00  0.0000E+00  0.0000E+00  0.0000E+00  0.0000E+00
    -11.517  0.1448E-01  0.1447E-01  0.8621E-03  0.8619E-03  0.1625E-02  0.1625E-02  0.8621E-03  0.8619E-03  0.0000E+00  0.0000E+00  0.0000E+00  0.0000E+00  0.0000E+00  0.0000E+00  0.0000E+00  0.0000E+00  0.0000E+00  0.0000E+00
    -11.389  0.7593E-02  0.7582E-02  0.6370E-03  0.6367E-03  0.7897E-03  0.7885E-03  0.6370E-03  0.6367E-03  0.0000E+00  0.0000E+00  0.0000E+00  0.0000E+00  0.0000E+00  0.0000E+00  0.0000E+00  0.0000E+00  0.0000E+00  0.0000E+00
    -11.261  0.1129E-01  0.1131E-01  0.1535E-02  0.1539E-02  0.1197E-02  0.1200E-02  0.1535E-02  0.1539E-02  0.0000E+00  0.0000E+00  0.0000E+00  0.0000E+00  0.0000E+00  0.0000E+00  0.0000E+00  0.0000E+00  0.0000E+00  0.0000E+00
    -11.132  0.2130E-01  0.2129E-01  0.3149E-02  0.3148E-02  0.2242E-02  0.2243E-02  0.3149E-02  0.3148E-02  0.0000E+00  0.0000E+00  0.0000E+00  0.0000E+00  0.0000E+00  0.0000E+00  0.0000E+00  0.0000E+00  0.0000E+00  0.0000E+00
    -11.004  0.1709E-01  0.1708E-01  0.2615E-02  0.2614E-02  0.2606E-02  0.2608E-02  0.2615E-02  0.2614E-02  0.0000E+00  0.0000E+00  0.0000E+00  0.0000E+00  0.0000E+00  0.0000E+00  0.0000E+00  0.0000E+00  0.0000E+00  0.0000E+00
    -10.876  0.1336E-01  0.1334E-01  0.2000E-02  0.1998E-02  0.3180E-02  0.3179E-02  0.2000E-02  0.1998E-02  0.0000E+00  0.0000E+00  0.0000E+00  0.0000E+00  0.0000E+00  0.0000E+00  0.0000E+00  0.0000E+00  0.0000E+00  0.0000E+00
    -10.748  0.8687E-02  0.8687E-02  0.1575E-02  0.1576E-02  0.2512E-02  0.2513E-02  0.1575E-02  0.1576E-02  0.0000E+00  0.0000E+00  0.0000E+00  0.0000E+00  0.0000E+00  0.0000E+00  0.0000E+00  0.0000E+00  0.0000E+00  0.0000E+00
    -10.620  0.9904E-02  0.9897E-02  0.2439E-02  0.2439E-02  0.2755E-02  0.2753E-02  0.2439E-02  0.2439E-02  0.0000E+00  0.0000E+00  0.0000E+00  0.0000E+00  0.0000E+00  0.0000E+00  0.0000E+00  0.0000E+00  0.0000E+00  0.0000E+00
    -10.491  0.6804E-02  0.6801E-02  0.2344E-02  0.2344E-02  0.2288E-02  0.2290E-02  0.2344E-02  0.2344E-02  0.0000E+00  0.0000E+00  0.0000E+00  0.0000E+00  0.0000E+00  0.0000E+00  0.0000E+00  0.0000E+00  0.0000E+00  0.0000E+00
    -10.363  0.7502E-02  0.7507E-02  0.3083E-02  0.3086E-02  0.3587E-02  0.3592E-02  0.3083E-02  0.3086E-02  0.0000E+00  0.0000E+00  0.0000E+00  0.0000E+00  0.0000E+00  0.0000E+00  0.0000E+00  0.0000E+00  0.0000E+00  0.0000E+00
    -10.235  0.9961E-02  0.9960E-02  0.4369E-02  0.4369E-02  0.5639E-02  0.5641E-02  0.4369E-02  0.4369E-02  0.0000E+00  0.0000E+00  0.0000E+00  0.0000E+00  0.0000E+00  0.0000E+00  0.0000E+00  0.0000E+00  0.0000E+00  0.0000E+00
    -10.107  0.7714E-02  0.7707E-02  0.4051E-02  0.4053E-02  0.4523E-02  0.4519E-02  0.4051E-02  0.4053E-02  0.0000E+00  0.0000E+00  0.0000E+00  0.0000E+00  0.0000E+00  0.0000E+00  0.0000E+00  0.0000E+00  0.0000E+00  0.0000E+00
     -9.979  0.7537E-02  0.7535E-02  0.6320E-02  0.6326E-02  0.3909E-02  0.3910E-02  0.6320E-02  0.6326E-02  0.0000E+00  0.0000E+00  0.0000E+00  0.0000E+00  0.0000E+00  0.0000E+00  0.0000E+00  0.0000E+00  0.0000E+00  0.0000E+00
     -9.850  0.7380E-02  0.7382E-02  0.8705E-02  0.8716E-02  0.6180E-02  0.6189E-02  0.8705E-02  0.8716E-02  0.0000E+00  0.0000E+00  0.0000E+00  0.0000E+00  0.0000E+00  0.0000E+00  0.0000E+00  0.0000E+00  0.0000E+00  0.0000E+00
     -9.722  0.8135E-02  0.8131E-02  0.1187E-01  0.1187E-01  0.6815E-02  0.6809E-02  0.1187E-01  0.1187E-01  0.0000E+00  0.0000E+00  0.0000E+00  0.0000E+00  0.0000E+00  0.0000E+00  0.0000E+00  0.0000E+00  0.0000E+00  0.0000E+00
     -9.594  0.6179E-02  0.6174E-02  0.1019E-01  0.1019E-01  0.4961E-02  0.4958E-02  0.1019E-01  0.1019E-01  0.0000E+00  0.0000E+00  0.0000E+00  0.0000E+00  0.0000E+00  0.0000E+00  0.0000E+00  0.0000E+00  0.0000E+00  0.0000E+00
     -9.466  0.6748E-02  0.6758E-02  0.9309E-02  0.9311E-02  0.5766E-02  0.5773E-02  0.9309E-02  0.9311E-02  0.0000E+00  0.0000E+00  0.0000E+00  0.0000E+00  0.0000E+00  0.0000E+00  0.0000E+00  0.0000E+00  0.0000E+00  0.0000E+00
     -9.337  0.1024E-01  0.1024E-01  0.9338E-02  0.9334E-02  0.8447E-02  0.8451E-02  0.9338E-02  0.9334E-02  0.0000E+00  0.0000E+00  0.0000E+00  0.0000E+00  0.0000E+00  0.0000E+00  0.0000E+00  0.0000E+00  0.0000E+00  0.0000E+00
     -9.209  0.6995E-02  0.6984E-02  0.7075E-02  0.7069E-02  0.6355E-02  0.6347E-02  0.7075E-02  0.7069E-02  0.0000E+00  0.0000E+00  0.0000E+00  0.0000E+00  0.0000E+00  0.0000E+00  0.0000E+00  0.0000E+00  0.0000E+00  0.0000E+00
     -9.081  0.6111E-02  0.6108E-02  0.6058E-02  0.6055E-02  0.6592E-02  0.6596E-02  0.6058E-02  0.6055E-02  0.0000E+00  0.0000E+00  0.0000E+00  0.0000E+00  0.0000E+00  0.0000E+00  0.0000E+00  0.0000E+00  0.0000E+00  0.0000E+00
     -8.953  0.4776E-02  0.4767E-02  0.4677E-02  0.4668E-02  0.5541E-02  0.5530E-02  0.4677E-02  0.4668E-02  0.0000E+00  0.0000E+00  0.0000E+00  0.0000E+00  0.0000E+00  0.0000E+00  0.0000E+00  0.0000E+00  0.0000E+00  0.0000E+00
     -8.825  0.1674E-02  0.1663E-02  0.1523E-02  0.1513E-02  0.1753E-02  0.1741E-02  0.1523E-02  0.1513E-02  0.0000E+00  0.0000E+00  0.0000E+00  0.0000E+00  0.0000E+00  0.0000E+00  0.0000E+00  0.0000E+00  0.0000E+00  0.0000E+00
     -8.696  0.1705E-03  0.1689E-03  0.1523E-03  0.1509E-03  0.1711E-03  0.1696E-03  0.1523E-03  0.1509E-03  0.0000E+00  0.0000E+00  0.0000E+00  0.0000E+00  0.0000E+00  0.0000E+00  0.0000E+00  0.0000E+00  0.0000E+00  0.0000E+00
     -8.568  0.0000E+00  0.0000E+00  0.0000E+00  0.0000E+00  0.0000E+00  0.0000E+00  0.0000E+00  0.0000E+00  0.0000E+00  0.0000E+00  0.0000E+00  0.0000E+00  0.0000E+00  0.0000E+00  0.0000E+00  0.0000E+00  0.0000E+00  0.0000E+00
     -8.440  0.0000E+00  0.0000E+00  0.0000E+00  0.0000E+00  0.0000E+00  0.0000E+00  0.0000E+00  0.0000E+00  0.0000E+00  0.0000E+00  0.0000E+00  0.0000E+00  0.0000E+00  0.0000E+00  0.0000E+00  0.0000E+00  0.0000E+00  0.0000E+00
     -8.312  0.0000E+00  0.0000E+00  0.0000E+00  0.0000E+00  0.0000E+00  0.0000E+00  0.0000E+00  0.0000E+00  0.0000E+00  0.0000E+00  0.0000E+00  0.0000E+00  0.0000E+00  0.0000E+00  0.0000E+00  0.0000E+00  0.0000E+00  0.0000E+00
     -8.184  0.0000E+00  0.0000E+00  0.0000E+00  0.0000E+00  0.0000E+00  0.0000E+00  0.0000E+00  0.0000E+00  0.0000E+00  0.0000E+00  0.0000E+00  0.0000E+00  0.0000E+00  0.0000E+00  0.0000E+00  0.0000E+00  0.0000E+00  0.0000E+00
     -8.055  0.0000E+00  0.0000E+00  0.0000E+00  0.0000E+00  0.0000E+00  0.0000E+00  0.0000E+00  0.0000E+00  0.0000E+00  0.0000E+00  0.0000E+00  0.0000E+00  0.0000E+00  0.0000E+00  0.0000E+00  0.0000E+00  0.0000E+00  0.0000E+00
     -7.927  0.0000E+00  0.0000E+00  0.0000E+00  0.0000E+00  0.0000E+00  0.0000E+00  0.0000E+00  0.0000E+00  0.0000E+00  0.0000E+00  0.0000E+00  0.0000E+00  0.0000E+00  0.0000E+00  0.0000E+00  0.0000E+00  0.0000E+00  0.0000E+00