  30  30   1   0
  0.8482358E+01  0.4756978E-09  0.4756978E-09  0.1298509E-08  0.5000000E-15
  1.000000000000000E-004
  CAR 
 unknown system                          
     21.51920478    -14.71324064  301      7.26801214      1.00000000
    -14.713  0.0000E+00  0.0000E+00  0.0000E+00  0.0000E+00
    -14.592  0.0000E+00  0.0000E+00  0.0000E+00  0.0000E+00
    -14.472  0.0000E+00  0.0000E+00  0.0000E+00  0.0000E+00
    -14.351  0.0000E+00  0.0000E+00  0.0000E+00  0.0000E+00
    -14.230  0.0000E+00  0.0000E+00  0.0000E+00  0.0000E+00
    -14.109  0.0000E+00  0.0000E+00  0.0000E+00  0.0000E+00
    -13.989  0.0000E+00  0.0000E+00  0.0000E+00  0.0000E+00
    -13.868  0.0000E+00  0.0000E+00  0.0000E+00  0.0000E+00
    -13.747  0.0000E+00  0.0000E+00  0.0000E+00  0.0000E+00
    -13.626  0.0000E+00  0.0000E+00  0.0000E+00  0.0000E+00
    -13.505  0.5065E-04  0.5074E-04  0.6117E-05  0.6128E-05
    -13.385  0.5981E-03  0.5992E-03  0.7836E-04  0.7850E-04
    -13.264  0.6558E-02  0.6570E-02  0.8704E-03  0.8720E-03
    -13.143  0.6231E-01  0.6241E-01  0.8396E-02  0.8409E-02
    -13.022  0.2816E+00  0.2819E+00  0.4241E-01  0.4245E-01
    -12.902  0.8278E+00  0.8286E+00  0.1424E+00  0.1425E+00
    -12.781  0.1285E+01  0.1285E+01  0.2976E+00  0.2977E+00
    -12.660  0.1190E+01  0.1190E+01  0.4414E+00  0.4416E+00
    -12.539  0.1786E+01  0.1786E+01  0.6570E+00  0.6573E+00
    -12.419  0.1889E+01  0.1890E+01  0.8856E+00  0.8860E+00
    -12.298  0.2874E+01  0.2876E+01  0.1233E+01  0.1233E+01
    -12.177  0.2981E+01  0.2981E+01  0.1593E+01  0.1594E+01
    -12.056  0.1992E+01  0.1992E+01  0.1834E+01  0.1834E+01
    -11.935  0.3310E+01  0.3317E+01  0.2234E+01  0.2235E+01
    -11.815  0.5149E+01  0.5149E+01  0.2857E+01  0.2858E+01
    -11.694  0.4523E+01  0.4522E+01  0.3403E+01  0.3404E+01
    -11.573  0.3414E+01  0.3413E+01  0.3816E+01  0.3817E+01
    -11.452  0.3564E+01  0.3566E+01  0.4247E+01  0.4248E+01
    -11.332  0.3285E+01  0.3285E+01  0.4645E+01  0.4646E+01
    -11.211  0.4145E+01  0.4151E+01  0.5146E+01  0.5148E+01
    -11.090  0.5619E+01  0.5621E+01  0.5826E+01  0.5828E+01
    -10.969  0.5751E+01  0.5756E+01  0.6522E+01  0.6524E+01
    -10.848  0.7898E+01  0.7909E+01  0.7476E+01  0.7480E+01
    -10.728  0.1120E+02  0.1121E+02  0.8830E+01  0.8835E+01
    -10.607  0.1110E+02  0.1110E+02  0.1017E+02  0.1018E+02
    -10.486  0.1231E+02  0.1233E+02  0.1166E+02  0.1167E+02
    -10.365  0.1471E+02  0.1471E+02  0.1344E+02  0.1345E+02
    -10.245  0.1389E+02  0.1389E+02  0.1512E+02  0.1512E+02
    -10.124  0.1456E+02  0.1455E+02  0.1688E+02  0.1688E+02
    -10.003  0.7837E+01  0.7795E+01  0.1783E+02  0.1783E+02
     -9.882  0.1286E+01  0.1266E+01  0.1798E+02  0.1798E+02
     -9.761  0.1106E+00  0.1094E+00  0.1800E+02  0.1800E+02
     -9.641  0.0000E+00  0.0000E+00  0.1800E+02  0.1800E+02
     -9.520  0.0000E+00  0.0000E+00  0.1800E+02  0.1800E+02
     -9.399  0.0000E+00  0.0000E+00  0.1800E+02  0.1800E+02
     -9.278  0.0000E+00  0.0000E+00  0.1800E+02  0.1800E+02
     -9.158  0.0000E+00  0.0000E+00  0.1800E+02  0.1800E+02
     -9.037  0.0000E+00  0.0000E+00  0.1800E+02  0.1800E+02
     -8.916  0.0000E+00  0.0000E+00  0.1800E+02  0.1800E+02
     -8.795  0.0000E+00  0.0000E+00  0.1800E+02  0.1800E+02
     -8.674  0.0000E+00  0.0000E+00  0.1800E+02  0.1800E+02
     -8.554  0.0000E+00  0.0000E+00  0.1800E+02  0.1800E+02
     -8.433  0.0000E+00  0.0000E+00  0.1800E+02  0.1800E+02
     -8.312  0.0000E+00  0.0000E+00  0.1800E+02  0.1800E+02
     -8.191  0.0000E+00  0.0000E+00  0.1800E+02  0.1800E+02
     -8.071  0.0000E+00  0.0000E+00  0.1800E+02  0.1800E+02
     -7.950  0.0000E+00  0.0000E+00  0.1800E+02  0.1800E+02
     -7.829  0.0000E+00  0.0000E+00  0.1800E+02  0.1800E+02
     -7.708  0.0000E+00  0.0000E+00  0.1800E+02  0.1800E+02
     -7.588  0.0000E+00  0.0000E+00  0.1800E+02  0.1800E+02
     -7.467  0.0000E+00  0.0000E+00  0.1800E+02  0.1800E+02
     -7.346  0.0000E+00  0.0000E+00  0.1800E+02  0.1800E+02
     -7.225  0.0000E+00  0.0000E+00  0.1800E+02  0.1800E+02
     -7.104  0.0000E+00  0.0000E+00  0.1800E+02  0.1800E+02
     -6.984  0.0000E+00  0.0000E+00  0.1800E+02  0.1800E+02
     -6.863  0.0000E+00  0.0000E+00  0.1800E+02  0.1800E+02
     -6.742  0.0000E+00  0.0000E+00  0.1800E+02  0.1800E+02
     -6.621  0.0000E+00  0.0000E+00  0.1800E+02  0.1800E+02
     -6.501  0.0000E+00  0.0000E+00  0.1800E+02  0.1800E+02
     -6.380  0.0000E+00  0.0000E+00  0.1800E+02  0.1800E+02
     -6.259  0.0000E+00  0.0000E+00  0.1800E+02  0.1800E+02
     -6.138  0.0000E+00  0.0000E+00  0.1800E+02  0.1800E+02
     -6.017  0.0000E+00  0.0000E+00  0.1800E+02  0.1800E+02
     -5.897  0.0000E+00  0.0000E+00  0.1800E+02  0.1800E+02
     -5.776  0.0000E+00  0.0000E+00  0.1800E+02  0.1800E+02
     -5.655  0.0000E+00  0.0000E+00  0.1800E+02  0.1800E+02
     -5.534  0.0000E+00  0.0000E+00  0.1800E+02  0.1800E+02
     -5.414  0.0000E+00  0.0000E+00  0.1800E+02  0.1800E+02
     -5.293  0.0000E+00  0.0000E+00  0.1800E+02  0.1800E+02
     -5.172  0.0000E+00  0.0000E+00  0.1800E+02  0.1800E+02
     -5.051  0.0000E+00  0.0000E+00  0.1800E+02  0.1800E+02
     -4.930  0.0000E+00  0.0000E+00  0.1800E+02  0.1800E+02
     -4.810  0.0000E+00  0.0000E+00  0.1800E+02  0.1800E+02
     -4.689  0.0000E+00  0.0000E+00  0.1800E+02  0.1800E+02
     -4.568  0.0000E+00  0.0000E+00  0.1800E+02  0.1800E+02
     -4.447  0.0000E+00  0.0000E+00  0.1800E+02  0.1800E+02
     -4.327  0.0000E+00  0.0000E+00  0.1800E+02  0.1800E+02
     -4.206  0.0000E+00  0.0000E+00  0.1800E+02  0.1800E+02
     -4.085  0.0000E+00  0.0000E+00  0.1800E+02  0.1800E+02
     -3.964  0.0000E+00  0.0000E+00  0.1800E+02  0.1800E+02
     -3.844  0.0000E+00  0.0000E+00  0.1800E+02  0.1800E+02
     -3.723  0.0000E+00  0.0000E+00  0.1800E+02  0.1800E+02
     -3.602  0.0000E+00  0.0000E+00  0.1800E+02  0.1800E+02
     -3.481  0.0000E+00  0.0000E+00  0.1800E+02  0.1800E+02
     -3.360  0.0000E+00  0.0000E+00  0.1800E+02  0.1800E+02
     -3.240  0.0000E+00  0.0000E+00  0.1800E+02  0.1800E+02
     -3.119  0.0000E+00  0.0000E+00  0.1800E+02  0.1800E+02
     -2.998  0.0000E+00  0.0000E+00  0.1800E+02  0.1800E+02
     -2.877  0.0000E+00  0.0000E+00  0.1800E+02  0.1800E+02
     -2.757  0.0000E+00  0.0000E+00  0.1800E+02  0.1800E+02
     -2.636  0.0000E+00  0.0000E+00  0.1800E+02  0.1800E+02
     -2.515  0.0000E+00  0.0000E+00  0.1800E+02  0.1800E+02
     -2.394  0.0000E+00  0.0000E+00  0.1800E+02  0.1800E+02
     -2.273  0.0000E+00  0.0000E+00  0.1800E+02  0.1800E+02
     -2.153  0.0000E+00  0.0000E+00  0.1800E+02  0.1800E+02
     -2.032  0.0000E+00  0.0000E+00  0.1800E+02  0.1800E+02
     -1.911  0.0000E+00  0.0000E+00  0.1800E+02  0.1800E+02
     -1.790  0.0000E+00  0.0000E+00  0.1800E+02  0.1800E+02
     -1.670  0.0000E+00  0.0000E+00  0.1800E+02  0.1800E+02
     -1.549  0.0000E+00  0.0000E+00  0.1800E+02  0.1800E+02
     -1.428  0.0000E+00  0.0000E+00  0.1800E+02  0.1800E+02
     -1.307  0.0000E+00  0.0000E+00  0.1800E+02  0.1800E+02
     -1.186  0.0000E+00  0.0000E+00  0.1800E+02  0.1800E+02
     -1.066  0.1007E-03  0.1001E-03  0.1800E+02  0.1800E+02
     -0.945  0.1437E-02  0.1428E-02  0.1800E+02  0.1800E+02
     -0.824  0.1530E-01  0.1520E-01  0.1800E+02  0.1800E+02
     -0.703  0.1337E+00  0.1331E+00  0.1802E+02  0.1802E+02
     -0.583  0.5939E+00  0.5919E+00  0.1809E+02  0.1809E+02
     -0.462  0.1515E+01  0.1513E+01  0.1827E+02  0.1827E+02
     -0.341  0.1737E+01  0.1736E+01  0.1848E+02  0.1848E+02
     -0.220  0.2790E+01  0.2785E+01  0.1882E+02  0.1882E+02
     -0.099  0.4714E+01  0.4707E+01  0.1939E+02  0.1939E+02
      0.021  0.8089E+01  0.8084E+01  0.2037E+02  0.2036E+02
      0.142  0.6964E+01  0.6971E+01  0.2121E+02  0.2121E+02
      0.263  0.7922E+01  0.7914E+01  0.2216E+02  0.2216E+02
      0.384  0.9391E+01  0.9395E+01  0.2330E+02  0.2330E+02
      0.504  0.7711E+01  0.7714E+01  0.2423E+02  0.2423E+02
      0.625  0.5689E+01  0.5695E+01  0.2492E+02  0.2492E+02
      0.746  0.4333E+01  0.4333E+01  0.2544E+02  0.2544E+02
      0.867  0.4876E+01  0.4876E+01  0.2604E+02  0.2603E+02
      0.987  0.4722E+01  0.4721E+01  0.2661E+02  0.2661E+02
      1.108  0.6890E+01  0.6887E+01  0.2744E+02  0.2744E+02
      1.229  0.7407E+01  0.7409E+01  0.2834E+02  0.2833E+02
      1.350  0.6953E+01  0.6952E+01  0.2918E+02  0.2917E+02
      1.471  0.6517E+01  0.6520E+01  0.2996E+02  0.2996E+02
      1.591  0.4058E+01  0.4062E+01  0.3046E+02  0.3046E+02
      1.712  0.3641E+01  0.3639E+01  0.3090E+02  0.3090E+02
      1.833  0.5514E+01  0.5511E+01  0.3156E+02  0.3156E+02
      1.954  0.7860E+01  0.7861E+01  0.3251E+02  0.3251E+02
      2.074  0.7932E+01  0.7932E+01  0.3347E+02  0.3347E+02
      2.195  0.9246E+01  0.9247E+01  0.3459E+02  0.3459E+02
      2.316  0.7159E+01  0.7163E+01  0.3546E+02  0.3546E+02
      2.437  0.5245E+01  0.5247E+01  0.3609E+02  0.3609E+02
      2.558  0.4314E+01  0.4315E+01  0.3661E+02  0.3661E+02
      2.678  0.5402E+01  0.5402E+01  0.3727E+02  0.3727E+02
      2.799  0.5745E+01  0.5747E+01  0.3796E+02  0.3796E+02
      2.920  0.7628E+01  0.7629E+01  0.3888E+02  0.3888E+02
      3.041  0.5855E+01  0.5855E+01  0.3959E+02  0.3959E+02
      3.161  0.4327E+01  0.4328E+01  0.4011E+02  0.4011E+02
      3.282  0.4889E+01  0.4889E+01  0.4071E+02  0.4071E+02
      3.403  0.4374E+01  0.4376E+01  0.4124E+02  0.4124E+02
      3.524  0.6950E+01  0.6952E+01  0.4208E+02  0.4208E+02
      3.645  0.7918E+01  0.7918E+01  0.4303E+02  0.4303E+02
      3.765  0.9579E+01  0.9586E+01  0.4419E+02  0.4419E+02
      3.886  0.1354E+02  0.1355E+02  0.4583E+02  0.4583E+02
      4.007  0.1088E+02  0.1088E+02  0.4714E+02  0.4715E+02
      4.128  0.8532E+01  0.8533E+01  0.4818E+02  0.4818E+02
      4.248  0.7419E+01  0.7419E+01  0.4907E+02  0.4908E+02
      4.369  0.9206E+01  0.9216E+01  0.5019E+02  0.5019E+02
      4.490  0.1236E+02  0.1236E+02  0.5168E+02  0.5169E+02
      4.611  0.1257E+02  0.1257E+02  0.5320E+02  0.5321E+02
      4.732  0.1340E+02  0.1341E+02  0.5482E+02  0.5483E+02
      4.852  0.1407E+02  0.1407E+02  0.5652E+02  0.5653E+02
      4.973  0.1467E+02  0.1467E+02  0.5830E+02  0.5830E+02
      5.094  0.1303E+02  0.1303E+02  0.5987E+02  0.5988E+02
      5.215  0.1191E+02  0.1192E+02  0.6132E+02  0.6132E+02
      5.335  0.1133E+02  0.1133E+02  0.6269E+02  0.6269E+02
      5.456  0.1249E+02  0.1250E+02  0.6420E+02  0.6420E+02
      5.577  0.1298E+02  0.1298E+02  0.6577E+02  0.6577E+02
      5.698  0.1234E+02  0.1234E+02  0.6726E+02  0.6727E+02
      5.818  0.1306E+02  0.1307E+02  0.6884E+02  0.6885E+02
      5.939  0.1323E+02  0.1322E+02  0.7044E+02  0.7044E+02
      6.060  0.8294E+01  0.8271E+01  0.7144E+02  0.7145E+02
      6.181  0.3790E+01  0.3769E+01  0.7190E+02  0.7190E+02
      6.302  0.7047E+00  0.6974E+00  0.7199E+02  0.7199E+02
      6.422  0.6757E-01  0.6678E-01  0.7200E+02  0.7200E+02
      6.543  0.0000E+00  0.0000E+00  0.7200E+02  0.7200E+02
      6.664  0.0000E+00  0.0000E+00  0.7200E+02  0.7200E+02
      6.785  0.0000E+00  0.0000E+00  0.7200E+02  0.7200E+02
      6.905  0.0000E+00  0.0000E+00  0.7200E+02  0.7200E+02
      7.026  0.0000E+00  0.0000E+00  0.7200E+02  0.7200E+02
      7.147  0.0000E+00  0.0000E+00  0.7200E+02  0.7200E+02
      7.268  0.0000E+00  0.0000E+00  0.7200E+02  0.7200E+02
      7.389  0.0000E+00  0.0000E+00  0.7200E+02  0.7200E+02
      7.509  0.0000E+00  0.0000E+00  0.7200E+02  0.7200E+02
      7.630  0.0000E+00  0.0000E+00  0.7200E+02  0.7200E+02
      7.751  0.0000E+00  0.0000E+00  0.7200E+02  0.7200E+02
      7.872  0.0000E+00  0.0000E+00  0.7200E+02  0.7200E+02
      7.992  0.0000E+00  0.0000E+00  0.7200E+02  0.7200E+02
      8.113  0.0000E+00  0.0000E+00  0.7200E+02  0.7200E+02
      8.234  0.0000E+00  0.0000E+00  0.7200E+02  0.7200E+02
      8.355  0.0000E+00  0.0000E+00  0.7200E+02  0.7200E+02
      8.476  0.0000E+00  0.0000E+00  0.7200E+02  0.7200E+02
      8.596  0.0000E+00  0.0000E+00  0.7200E+02  0.7200E+02
      8.717  0.0000E+00  0.0000E+00  0.7200E+02  0.7200E+02
      8.838  0.0000E+00  0.0000E+00  0.7200E+02  0.7200E+02
      8.959  0.0000E+00  0.0000E+00  0.7200E+02  0.7200E+02
      9.079  0.0000E+00  0.0000E+00  0.7200E+02  0.7200E+02
      9.200  0.0000E+00  0.0000E+00  0.7200E+02  0.7200E+02
      9.321  0.0000E+00  0.0000E+00  0.7200E+02  0.7200E+02
      9.442  0.0000E+00  0.0000E+00  0.7200E+02  0.7200E+02
      9.562  0.0000E+00  0.0000E+00  0.7200E+02  0.7200E+02
      9.683  0.0000E+00  0.0000E+00  0.7200E+02  0.7200E+02
      9.804  0.0000E+00  0.0000E+00  0.7200E+02  0.7200E+02
      9.925  0.0000E+00  0.0000E+00  0.7200E+02  0.7200E+02
     10.046  0.0000E+00  0.0000E+00  0.7200E+02  0.7200E+02
     10.166  0.0000E+00  0.0000E+00  0.7200E+02  0.7200E+02
     10.287  0.0000E+00  0.0000E+00  0.7200E+02  0.7200E+02
     10.408  0.0000E+00  0.0000E+00  0.7200E+02  0.7200E+02
     10.529  0.0000E+00  0.0000E+00  0.7200E+02  0.7200E+02
     10.649  0.0000E+00  0.0000E+00  0.7200E+02  0.7200E+02
     10.770  0.0000E+00  0.0000E+00  0.7200E+02  0.7200E+02
     10.891  0.0000E+00  0.0000E+00  0.7200E+02  0.7200E+02
     11.012  0.0000E+00  0.0000E+00  0.7200E+02  0.7200E+02
     11.133  0.0000E+00  0.0000E+00  0.7200E+02  0.7200E+02
     11.253  0.0000E+00  0.0000E+00  0.7200E+02  0.7200E+02
     11.374  0.0000E+00  0.0000E+00  0.7200E+02  0.7200E+02
     11.495  0.0000E+00  0.0000E+00  0.7200E+02  0.7200E+02
     11.616  0.0000E+00  0.0000E+00  0.7200E+02  0.7200E+02
     11.736  0.0000E+00  0.0000E+00  0.7200E+02  0.7200E+02
     11.857  0.0000E+00  0.0000E+00  0.7200E+02  0.7200E+02
     11.978  0.0000E+00  0.0000E+00  0.7200E+02  0.7200E+02
     12.099  0.4335E-04  0.4259E-04  0.7200E+02  0.7200E+02
     12.220  0.4414E-03  0.4336E-03  0.7200E+02  0.7200E+02
     12.340  0.4862E-02  0.4778E-02  0.7200E+02  0.7200E+02
     12.461  0.4605E-01  0.4538E-01  0.7201E+02  0.7201E+02
     12.582  0.1714E+00  0.1709E+00  0.7203E+02  0.7203E+02
     12.703  0.9457E-01  0.9563E-01  0.7204E+02  0.7204E+02
     12.823  0.1261E-01  0.1282E-01  0.7204E+02  0.7204E+02
     12.944  0.2287E-02  0.2291E-02  0.7204E+02  0.7204E+02
     13.065  0.1244E-01  0.1225E-01  0.7204E+02  0.7204E+02
     13.186  0.1299E+00  0.1280E+00  0.7206E+02  0.7206E+02
     13.307  0.8117E+00  0.8055E+00  0.7216E+02  0.7215E+02
     13.427  0.1059E+01  0.1064E+01  0.7228E+02  0.7228E+02
     13.548  0.2708E+00  0.2741E+00  0.7232E+02  0.7232E+02
     13.669  0.3192E-01  0.3235E-01  0.7232E+02  0.7232E+02
     13.790  0.1956E-01  0.1934E-01  0.7232E+02  0.7232E+02
     13.910  0.1845E+00  0.1823E+00  0.7234E+02  0.7234E+02
     14.031  0.9149E+00  0.9107E+00  0.7246E+02  0.7245E+02
     14.152  0.7685E+00  0.7731E+00  0.7255E+02  0.7255E+02
     14.273  0.3822E+00  0.3805E+00  0.7259E+02  0.7259E+02
     14.393  0.1109E+01  0.1105E+01  0.7273E+02  0.7273E+02
     14.514  0.7837E+00  0.7893E+00  0.7282E+02  0.7282E+02
     14.635  0.1920E+00  0.1930E+00  0.7285E+02  0.7285E+02
     14.756  0.5770E+00  0.5708E+00  0.7292E+02  0.7291E+02
     14.877  0.2231E+01  0.2224E+01  0.7319E+02  0.7318E+02
     14.997  0.2095E+01  0.2101E+01  0.7344E+02  0.7344E+02
     15.118  0.1161E+01  0.1165E+01  0.7358E+02  0.7358E+02
     15.239  0.1255E+01  0.1251E+01  0.7373E+02  0.7373E+02
     15.360  0.1253E+01  0.1253E+01  0.7388E+02  0.7388E+02
     15.480  0.1569E+01  0.1555E+01  0.7407E+02  0.7407E+02
     15.601  0.5403E+01  0.5366E+01  0.7472E+02  0.7472E+02
     15.722  0.8101E+01  0.8104E+01  0.7570E+02  0.7570E+02
     15.843  0.5412E+01  0.5435E+01  0.7636E+02  0.7635E+02
     15.964  0.5216E+01  0.5195E+01  0.7699E+02  0.7698E+02
     16.084  0.7375E+01  0.7360E+01  0.7788E+02  0.7787E+02
     16.205  0.7173E+01  0.7177E+01  0.7875E+02  0.7874E+02
     16.326  0.7802E+01  0.7804E+01  0.7969E+02  0.7968E+02
     16.447  0.7461E+01  0.7463E+01  0.8059E+02  0.8059E+02
     16.567  0.6702E+01  0.6719E+01  0.8140E+02  0.8140E+02
     16.688  0.6176E+01  0.6154E+01  0.8215E+02  0.8214E+02
     16.809  0.8766E+01  0.8763E+01  0.8321E+02  0.8320E+02
     16.930  0.6915E+01  0.6934E+01  0.8405E+02  0.8404E+02
     17.051  0.5715E+01  0.5707E+01  0.8474E+02  0.8473E+02
     17.171  0.6492E+01  0.6483E+01  0.8552E+02  0.8552E+02
     17.292  0.7167E+01  0.7174E+01  0.8639E+02  0.8638E+02
     17.413  0.5465E+01  0.5482E+01  0.8705E+02  0.8705E+02
     17.534  0.4294E+01  0.4291E+01  0.8757E+02  0.8757E+02
     17.654  0.5999E+01  0.5985E+01  0.8830E+02  0.8829E+02
     17.775  0.7994E+01  0.7980E+01  0.8926E+02  0.8925E+02
     17.896  0.7658E+01  0.7689E+01  0.9019E+02  0.9018E+02
     18.017  0.4463E+01  0.4507E+01  0.9073E+02  0.9073E+02
     18.138  0.3503E+01  0.3497E+01  0.9115E+02  0.9115E+02
     18.258  0.4486E+01  0.4443E+01  0.9170E+02  0.9169E+02
     18.379  0.5434E+01  0.5405E+01  0.9235E+02  0.9234E+02
     18.500  0.6047E+01  0.6009E+01  0.9308E+02  0.9307E+02
     18.621  0.6749E+01  0.6625E+01  0.9390E+02  0.9387E+02
     18.741  0.6084E+01  0.6233E+01  0.9464E+02  0.9462E+02
     18.862  0.4376E+01  0.4627E+01  0.9517E+02  0.9518E+02
     18.983  0.5458E+01  0.5447E+01  0.9583E+02  0.9584E+02
     19.104  0.7575E+01  0.6781E+01  0.9674E+02  0.9666E+02
     19.224  0.7112E+01  0.7195E+01  0.9760E+02  0.9753E+02
     19.345  0.6432E+01  0.5696E+01  0.9838E+02  0.9822E+02
     19.466  0.4977E+01  0.5231E+01  0.9898E+02  0.9886E+02
     19.587  0.3373E+01  0.3480E+01  0.9939E+02  0.9928E+02
     19.708  0.2496E+01  0.2731E+01  0.9969E+02  0.9961E+02
     19.828  0.1531E+01  0.2000E+01  0.9988E+02  0.9985E+02
     19.949  0.7924E+00  0.1030E+01  0.9998E+02  0.9998E+02
     20.070  0.1819E+00  0.1797E+00  0.1000E+03  0.1000E+03
     20.191  0.1702E-01  0.1623E-01  0.1000E+03  0.1000E+03
     20.311  0.0000E+00  0.0000E+00  0.1000E+03  0.1000E+03
     20.432  0.0000E+00  0.0000E+00  0.1000E+03  0.1000E+03
     20.553  0.0000E+00  0.0000E+00  0.1000E+03  0.1000E+03
     20.674  0.0000E+00  0.0000E+00  0.1000E+03  0.1000E+03
     20.795  0.0000E+00  0.0000E+00  0.1000E+03  0.1000E+03
     20.915  0.0000E+00  0.0000E+00  0.1000E+03  0.1000E+03
     21.036  0.0000E+00  0.0000E+00  0.1000E+03  0.1000E+03
     21.157  0.0000E+00  0.0000E+00  0.1000E+03  0.1000E+03
     21.278  0.0000E+00  0.0000E+00  0.1000E+03  0.1000E+03
     21.398  0.0000E+00  0.0000E+00  0.1000E+03  0.1000E+03
     21.519  0.0000E+00  0.0000E+00  0.1000E+03  0.1000E+03
     21.51920478    -14.71324064  301      7.26801214      1.00000000
    -14.713  0.0000E+00  0.0000E+00  0.0000E+00  0.0000E+00  0.0000E+00  0.0000E+00  0.0000E+00  0.0000E+00  0.0000E+00  0.0000E+00  0.0000E+00  0.0000E+00  0.0000E+00  0.0000E+00  0.0000E+00  0.0000E+00  0.0000E+00  0.0000E+00
    -14.592  0.0000E+00  0.0000E+00  0.0000E+00  0.0000E+00  0.0000E+00  0.0000E+00  0.0000E+00  0.0000E+00  0.0000E+00  0.0000E+00  0.0000E+00  0.0000E+00  0.0000E+00  0.0000E+00  0.0000E+00  0.0000E+00  0.0000E+00  0.0000E+00
    -14.472  0.0000E+00  0.0000E+00  0.0000E+00  0.0000E+00  0.0000E+00  0.0000E+00  0.0000E+00  0.0000E+00  0.0000E+00  0.0000E+00  0.0000E+00  0.0000E+00  0.0000E+00  0.0000E+00  0.0000E+00  0.0000E+00  0.0000E+00  0.0000E+00
    -14.351  0.0000E+00  0.0000E+00  0.0000E+00  0.0000E+00  0.0000E+00  0.0000E+00  0.0000E+00  0.0000E+00  0.0000E+00  0.0000E+00  0.0000E+00  0.0000E+00  0.0000E+00  0.0000E+00  0.0000E+00  0.0000E+00  0.0000E+00  0.0000E+00
    -14.230  0.0000E+00  0.0000E+00  0.0000E+00  0.0000E+00  0.0000E+00  0.0000E+00  0.0000E+00  0.0000E+00  0.0000E+00  0.0000E+00  0.0000E+00  0.0000E+00  0.0000E+00  0.0000E+00  0.0000E+00  0.0000E+00  0.0000E+00  0.0000E+00
    -14.109  0.0000E+00  0.0000E+00  0.0000E+00  0.0000E+00  0.0000E+00  0.0000E+00  0.0000E+00  0.0000E+00  0.0000E+00  0.0000E+00  0.0000E+00  0.0000E+00  0.0000E+00  0.0000E+00  0.0000E+00  0.0000E+00  0.0000E+00  0.0000E+00
    -13.989  0.0000E+00  0.0000E+00  0.0000E+00  0.0000E+00  0.0000E+00  0.0000E+00  0.0000E+00  0.0000E+00  0.0000E+00  0.0000E+00  0.0000E+00  0.0000E+00  0.0000E+00  0.0000E+00  0.0000E+00  0.0000E+00  0.0000E+00  0.0000E+00
    -13.868  0.0000E+00  0.0000E+00  0.0000E+00  0.0000E+00  0.0000E+00  0.0000E+00  0.0000E+00  0.0000E+00  0.0000E+00  0.0000E+00  0.0000E+00  0.0000E+00  0.0000E+00  0.0000E+00  0.0000E+00  0.0000E+00  0.0000E+00  0.0000E+00
    -13.747  0.0000E+00  0.0000E+00  0.0000E+00  0.0000E+00  0.0000E+00  0.0000E+00  0.0000E+00  0.0000E+00  0.0000E+00  0.0000E+00  0.0000E+00  0.0000E+00  0.0000E+00  0.0000E+00  0.0000E+00  0.0000E+00  0.0000E+00  0.0000E+00
    -13.626  0.0000E+00  0.0000E+00  0.0000E+00  0.0000E+00  0.0000E+00  0.0000E+00  0.0000E+00  0.0000E+00  0.0000E+00  0.0000E+00  0.0000E+00  0.0000E+00  0.0000E+00  0.0000E+00  0.0000E+00  0.0000E+00  0.0000E+00  0.0000E+00
    -13.505  0.3262E-06  0.3267E-06  0.2571E-16  0.2896E-16  0.2806E-08  0.2810E-08  0.2571E-16  0.2896E-16  0.0000E+00  0.0000E+00  0.0000E+00  0.0000E+00  0.0000E+00  0.0000E+00  0.0000E+00  0.0000E+00  0.0000E+00  0.0000E+00
    -13.385  0.3814E-05  0.3820E-05  0.1013E-07  0.1015E-07  0.3350E-07  0.3356E-07  0.1013E-07  0.1015E-07  0.0000E+00  0.0000E+00  0.0000E+00  0.0000E+00  0.0000E+00  0.0000E+00  0.0000E+00  0.0000E+00  0.0000E+00  0.0000E+00
    -13.264  0.4182E-04  0.4189E-04  0.1032E-06  0.1034E-06  0.3811E-06  0.3818E-06  0.1032E-06  0.1034E-06  0.0000E+00  0.0000E+00  0.0000E+00  0.0000E+00  0.0000E+00  0.0000E+00  0.0000E+00  0.0000E+00  0.0000E+00  0.0000E+00
    -13.143  0.3966E-03  0.3971E-03  0.1161E-05  0.1164E-05  0.3663E-05  0.3668E-05  0.1161E-05  0.1164E-05  0.0000E+00  0.0000E+00  0.0000E+00  0.0000E+00  0.0000E+00  0.0000E+00  0.0000E+00  0.0000E+00  0.0000E+00  0.0000E+00
    -13.022  0.1764E-02  0.1765E-02  0.1232E-04  0.1234E-04  0.1789E-04  0.1790E-04  0.1232E-04  0.1234E-04  0.0000E+00  0.0000E+00  0.0000E+00  0.0000E+00  0.0000E+00  0.0000E+00  0.0000E+00  0.0000E+00  0.0000E+00  0.0000E+00
    -12.902  0.4982E-02  0.4986E-02  0.8451E-04  0.8460E-04  0.6630E-04  0.6637E-04  0.8451E-04  0.8460E-04  0.0000E+00  0.0000E+00  0.0000E+00  0.0000E+00  0.0000E+00  0.0000E+00  0.0000E+00  0.0000E+00  0.0000E+00  0.0000E+00
    -12.781  0.7610E-02  0.7607E-02  0.1364E-03  0.1363E-03  0.1540E-03  0.1541E-03  0.1364E-03  0.1363E-03  0.0000E+00  0.0000E+00  0.0000E+00  0.0000E+00  0.0000E+00  0.0000E+00  0.0000E+00  0.0000E+00  0.0000E+00  0.0000E+00
    -12.660  0.6616E-02  0.6619E-02  0.1585E-03  0.1586E-03  0.2852E-03  0.2854E-03  0.1585E-03  0.1586E-03  0.0000E+00  0.0000E+00  0.0000E+00  0.0000E+00  0.0000E+00  0.0000E+00  0.0000E+00  0.0000E+00  0.0000E+00  0.0000E+00
    -12.539  0.9442E-02  0.9442E-02  0.4004E-03  0.4007E-03  0.3615E-03  0.3614E-03  0.4004E-03  0.4007E-03  0.0000E+00  0.0000E+00  0.0000E+00  0.0000E+00  0.0000E+00  0.0000E+00  0.0000E+00  0.0000E+00  0.0000E+00  0.0000E+00
    -12.419  0.9360E-02  0.9361E-02  0.6102E-03  0.6104E-03  0.3286E-03  0.3289E-03  0.6102E-03  0.6104E-03  0.0000E+00  0.0000E+00  0.0000E+00  0.0000E+00  0.0000E+00  0.0000E+00  0.0000E+00  0.0000E+00  0.0000E+00  0.0000E+00
    -12.298  0.1345E-01  0.1345E-01  0.9339E-03  0.9341E-03  0.8173E-03  0.8182E-03  0.9339E-03  0.9341E-03  0.0000E+00  0.0000E+00  0.0000E+00  0.0000E+00  0.0000E+00  0.0000E+00  0.0000E+00  0.0000E+00  0.0000E+00  0.0000E+00
    -12.177  0.1343E-01  0.1342E-01  0.8197E-03  0.8194E-03  0.1309E-02  0.1309E-02  0.8197E-03  0.8194E-03  0.0000E+00  0.0000E+00  0.0000E+00  0.0000E+00  0.0000E+00  0.0000E+00  0.0000E+00  0.0000E+00  0.0000E+00  0.0000E+00
    -12.056  0.8369E-02  0.8361E-02  0.6907E-03  0.6909E-03  0.8488E-03  0.8480E-03  0.6907E-03  0.6909E-03  0.0000E+00  0.0000E+00  0.0000E+00  0.0000E+00  0.0000E+00  0.0000E+00  0.0000E+00  0.0000E+00  0.0000E+00  0.0000E+00
    -11.935  0.1209E-01  0.1211E-01  0.1638E-02  0.1641E-02  0.1209E-02  0.1211E-02  0.1638E-02  0.1641E-02  0.0000E+00  0.0000E+00  0.0000E+00  0.0000E+00  0.0000E+00  0.0000E+00  0.0000E+00  0.0000E+00  0.0000E+00  0.0000E+00
    -11.815  0.1800E-01  0.1800E-01  0.2643E-02  0.2643E-02  0.1976E-02  0.1976E-02  0.2643E-02  0.2643E-02  0.0000E+00  0.0000E+00  0.0000E+00  0.0000E+00  0.0000E+00  0.0000E+00  0.0000E+00  0.0000E+00  0.0000E+00  0.0000E+00
    -11.694  0.1454E-01  0.1453E-01  0.2211E-02  0.2210E-02  0.2509E-02  0.2510E-02  0.2211E-02  0.2210E-02  0.0000E+00  0.0000E+00  0.0000E+00  0.0000E+00  0.0000E+00  0.0000E+00  0.0000E+00  0.0000E+00  0.0000E+00  0.0000E+00
    -11.573  0.9896E-02  0.9885E-02  0.1581E-02  0.1580E-02  0.2523E-02  0.2522E-02  0.1581E-02  0.1580E-02  0.0000E+00  0.0000E+00  0.0000E+00  0.0000E+00  0.0000E+00  0.0000E+00  0.0000E+00  0.0000E+00  0.0000E+00  0.0000E+00
    -11.452  0.8845E-02  0.8843E-02  0.2010E-02  0.2012E-02  0.2420E-02  0.2420E-02  0.2010E-02  0.2012E-02  0.0000E+00  0.0000E+00  0.0000E+00  0.0000E+00  0.0000E+00  0.0000E+00  0.0000E+00  0.0000E+00  0.0000E+00  0.0000E+00
    -11.332  0.6816E-02  0.6810E-02  0.2203E-02  0.2204E-02  0.2167E-02  0.2167E-02  0.2203E-02  0.2204E-02  0.0000E+00  0.0000E+00  0.0000E+00  0.0000E+00  0.0000E+00  0.0000E+00  0.0000E+00  0.0000E+00  0.0000E+00  0.0000E+00
    -11.211  0.6935E-02  0.6939E-02  0.2836E-02  0.2839E-02  0.3284E-02  0.3289E-02  0.2836E-02  0.2839E-02  0.0000E+00  0.0000E+00  0.0000E+00  0.0000E+00  0.0000E+00  0.0000E+00  0.0000E+00  0.0000E+00  0.0000E+00  0.0000E+00
    -11.090  0.8426E-02  0.8423E-02  0.3804E-02  0.3805E-02  0.4680E-02  0.4680E-02  0.3804E-02  0.3805E-02  0.0000E+00  0.0000E+00  0.0000E+00  0.0000E+00  0.0000E+00  0.0000E+00  0.0000E+00  0.0000E+00  0.0000E+00  0.0000E+00
    -10.969  0.7161E-02  0.7158E-02  0.4438E-02  0.4443E-02  0.3892E-02  0.3890E-02  0.4438E-02  0.4443E-02  0.0000E+00  0.0000E+00  0.0000E+00  0.0000E+00  0.0000E+00  0.0000E+00  0.0000E+00  0.0000E+00  0.0000E+00  0.0000E+00
    -10.848  0.6942E-02  0.6940E-02  0.6902E-02  0.6911E-02  0.4513E-02  0.4520E-02  0.6902E-02  0.6911E-02  0.0000E+00  0.0000E+00  0.0000E+00  0.0000E+00  0.0000E+00  0.0000E+00  0.0000E+00  0.0000E+00  0.0000E+00  0.0000E+00
    -10.728  0.7523E-02  0.7523E-02  0.9930E-02  0.9937E-02  0.6030E-02  0.6029E-02  0.9930E-02  0.9937E-02  0.0000E+00  0.0000E+00  0.0000E+00  0.0000E+00  0.0000E+00  0.0000E+00  0.0000E+00  0.0000E+00  0.0000E+00  0.0000E+00
    -10.607  0.6364E-02  0.6358E-02  0.9570E-02  0.9564E-02  0.4883E-02  0.4881E-02  0.9570E-02  0.9564E-02  0.0000E+00  0.0000E+00  0.0000E+00  0.0000E+00  0.0000E+00  0.0000E+00  0.0000E+00  0.0000E+00  0.0000E+00  0.0000E+00
    -10.486  0.6923E-02  0.6932E-02  0.8513E-02  0.8513E-02  0.5580E-02  0.5587E-02  0.8513E-02  0.8513E-02  0.0000E+00  0.0000E+00  0.0000E+00  0.0000E+00  0.0000E+00  0.0000E+00  0.0000E+00  0.0000E+00  0.0000E+00  0.0000E+00
    -10.365  0.8542E-02  0.8535E-02  0.7728E-02  0.7720E-02  0.7031E-02  0.7029E-02  0.7728E-02  0.7720E-02  0.0000E+00  0.0000E+00  0.0000E+00  0.0000E+00  0.0000E+00  0.0000E+00  0.0000E+00  0.0000E+00  0.0000E+00  0.0000E+00
    -10.245  0.6145E-02  0.6138E-02  0.5846E-02  0.5841E-02  0.5713E-02  0.5712E-02  0.5846E-02  0.5841E-02  0.0000E+00  0.0000E+00  0.0000E+00  0.0000E+00  0.0000E+00  0.0000E+00  0.0000E+00  0.0000E+00  0.0000E+00  0.0000E+00
    -10.124  0.4978E-02  0.4970E-02  0.4666E-02  0.4659E-02  0.5390E-02  0.5383E-02  0.4666E-02  0.4659E-02  0.0000E+00  0.0000E+00  0.0000E+00  0.0000E+00  0.0000E+00  0.0000E+00  0.0000E+00  0.0000E+00  0.0000E+00  0.0000E+00
    -10.003  0.2426E-02  0.2412E-02  0.2180E-02  0.2168E-02  0.2462E-02  0.2448E-02  0.2180E-02  0.2168E-02  0.0000E+00  0.0000E+00  0.0000E+00  0.0000E+00  0.0000E+00  0.0000E+00  0.0000E+00  0.0000E+00  0.0000E+00  0.0000E+00
     -9.882  0.3997E-03  0.3916E-03  0.3398E-03  0.3347E-03  0.3852E-03  0.3783E-03  0.3398E-03  0.3347E-03  0.0000E+00  0.0000E+00  0.0000E+00  0.0000E+00  0.0000E+00  0.0000E+00  0.0000E+00  0.0000E+00  0.0000E+00  0.0000E+00
     -9.761  0.3362E-04  0.3325E-04  0.2873E-04  0.2842E-04  0.2963E-04  0.2931E-04  0.2873E-04  0.2842E-04  0.0000E+00  0.0000E+00  0.0000E+00  0.0000E+00  0.0000E+00  0.0000E+00  0.0000E+00  0.0000E+00  0.0000E+00  0.0000E+00
     -9.641  0.0000E+00  0.0000E+00  0.0000E+00  0.0000E+00  0.0000E+00  0.0000E+00  0.0000E+00  0.0000E+00  0.0000E+00  0.0000E+00  0.0000E+00  0.0000E+00  0.0000E+00  0.0000E+00  0.0000E+00  0.0000E+00  0.0000E+00  0.0000E+00
     -9.520  0.0000E+00  0.0000E+00  0.0000E+00  0.0000E+00  0.0000E+00  0.0000E+00  0.0000E+00  0.0000E+00  0.0000E+00  0.0000E+00  0.0000E+00  0.0000E+00  0.0000E+00  0.0000E+00  0.0000E+00  0.0000E+00  0.0000E+00  0.0000E+00
     -9.399  0.0000E+00  0.0000E+00  0.0000E+00  0.0000E+00  0.0000E+00  0.0000E+00  0.0000E+00  0.0000E+00  0.0000E+00  0.0000E+00  0.0000E+00  0.0000E+00  0.0000E+00  0.0000E+00  0.0000E+00  0.0000E+00  0.0000E+00  0.0000E+00
     -9.278  0.0000E+00  0.0000E+00  0.0000E+00  0.0000E+00  0.0000E+00  0.0000E+00  0.0000E+00  0.0000E+00  0.0000E+00  0.0000E+00  0.0000E+00  0.0000E+00  0.0000E+00  0.0000E+00  0.0000E+00  0.0000E+00  0.0000E+00  0.0000E+00
     -9.158  0.0000E+00  0.0000E+00  0.0000E+00  0.0000E+00  0.0000E+00  0.0000E+00  0.0000E+00  0.0000E+00  0.0000E+00  0.0000E+00  0.0000E+00  0.0000E+00  0.0000E+00  0.0000E+00  0.0000E+00  0.0000E+00  0.0000E+00  0.0000E+00
     -9.037  0.0000E+00  0.0000E+00  0.0000E+00  0.0000E+00  0.0000E+00  0.0000E+00  0.0000E+00  0.0000E+00  0.0000E+00  0.0000E+00  0.0000E+00  0.0000E+00  0.0000E+00  0.0000E+00  0.0000E+00  0.0000E+00  0.0000E+00  0.0000E+00
     -8.916  0.0000E+00  0.0000E+00  0.0000E+00  0.0000E+00  0.0000E+00  0.0000E+00  0.0000E+00  0.0000E+00  0.0000E+00  0.0000E+00  0.0000E+00  0.0000E+00  0.0000E+00  0.0000E+00  0.0000E+00  0.0000E+00  0.0000E+00  0.0000E+00
     -8.795  0.0000E+00  0.0000E+00  0.0000E+00  0.0000E+00  0.0000E+00  0.0000E+00  0.0000E+00  0.0000E+00  0.0000E+00  0.0000E+00  0.0000E+00  0.0000E+00  0.0000E+00  0.0000E+00  0.0000E+00  0.0000E+00  0.0000E+00  0.0000E+00
     -8.674  0.0000E+00  0.0000E+00  0.0000E+00  0.0000E+00  0.0000E+00  0.0000E+00  0.0000E+00  0.0000E+00  0.0000E+00  0.0000E+00  0.0000E+00  0.0000E+00  0.0000E+00  0.0000E+00  0.0000E+00  0.0000E+00  0.0000E+00  0.0000E+00