  30  30   1   0
  0.7734366E+01  0.4612827E-09  0.4612827E-09  0.1259160E-08  0.5000000E-15
  1.000000000000000E-004
  CAR 
 unknown system                          
     23.45197277    -14.43704716  301      8.42278487      1.00000000
    -14.437  0.0000E+00  0.0000E+00  0.0000E+00  0.0000E+00
    -14.311  0.0000E+00  0.0000E+00  0.0000E+00  0.0000E+00
    -14.184  0.0000E+00  0.0000E+00  0.0000E+00  0.0000E+00
    -14.058  0.0000E+00  0.0000E+00  0.0000E+00  0.0000E+00
    -13.932  0.0000E+00  0.0000E+00  0.0000E+00  0.0000E+00
    -13.806  0.0000E+00  0.0000E+00  0.0000E+00  0.0000E+00
    -13.679  0.0000E+00  0.0000E+00  0.0000E+00  0.0000E+00
    -13.553  0.0000E+00  0.0000E+00  0.0000E+00  0.0000E+00
    -13.427  0.0000E+00  0.0000E+00  0.0000E+00  0.0000E+00
    -13.300  0.0000E+00  0.0000E+00  0.0000E+00  0.0000E+00
    -13.174  0.3241E-04  0.3247E-04  0.4093E-05  0.4101E-05
    -13.048  0.3723E-03  0.3731E-03  0.5111E-04  0.5122E-04
    -12.921  0.5055E-02  0.5066E-02  0.6896E-03  0.6910E-03
    -12.795  0.5323E-01  0.5332E-01  0.7412E-02  0.7425E-02
    -12.669  0.2394E+00  0.2396E+00  0.3765E-01  0.3768E-01
    -12.543  0.6546E+00  0.6554E+00  0.1203E+00  0.1205E+00
    -12.416  0.1246E+01  0.1246E+01  0.2777E+00  0.2778E+00
    -12.290  0.8757E+00  0.8761E+00  0.3884E+00  0.3886E+00
    -12.164  0.1505E+01  0.1506E+01  0.5785E+00  0.5787E+00
    -12.037  0.1596E+01  0.1596E+01  0.7806E+00  0.7808E+00
    -11.911  0.1990E+01  0.1991E+01  0.1032E+01  0.1032E+01
    -11.785  0.2796E+01  0.2796E+01  0.1385E+01  0.1386E+01
    -11.659  0.2434E+01  0.2433E+01  0.1693E+01  0.1693E+01
    -11.532  0.1372E+01  0.1372E+01  0.1867E+01  0.1867E+01
    -11.406  0.3411E+01  0.3416E+01  0.2298E+01  0.2299E+01
    -11.280  0.4569E+01  0.4568E+01  0.2875E+01  0.2876E+01
    -11.153  0.3985E+01  0.3984E+01  0.3379E+01  0.3379E+01
    -11.027  0.2950E+01  0.2948E+01  0.3752E+01  0.3753E+01
    -10.901  0.2949E+01  0.2952E+01  0.4126E+01  0.4126E+01
    -10.774  0.2883E+01  0.2882E+01  0.4491E+01  0.4492E+01
    -10.648  0.2912E+01  0.2913E+01  0.4859E+01  0.4860E+01
    -10.522  0.4412E+01  0.4416E+01  0.5417E+01  0.5418E+01
    -10.396  0.4803E+01  0.4801E+01  0.6024E+01  0.6025E+01
    -10.269  0.5023E+01  0.5027E+01  0.6658E+01  0.6660E+01
    -10.143  0.6783E+01  0.6790E+01  0.7516E+01  0.7519E+01
    -10.017  0.9767E+01  0.9772E+01  0.8750E+01  0.8753E+01
     -9.890  0.9368E+01  0.9365E+01  0.9934E+01  0.9937E+01
     -9.764  0.9466E+01  0.9473E+01  0.1113E+02  0.1113E+02
     -9.638  0.1267E+02  0.1268E+02  0.1273E+02  0.1274E+02
     -9.511  0.1166E+02  0.1166E+02  0.1421E+02  0.1421E+02
     -9.385  0.1249E+02  0.1250E+02  0.1579E+02  0.1579E+02
     -9.259  0.1220E+02  0.1219E+02  0.1733E+02  0.1733E+02
     -9.133  0.4691E+01  0.4666E+01  0.1792E+02  0.1792E+02
     -9.006  0.5208E+00  0.5169E+00  0.1799E+02  0.1799E+02
     -8.880  0.1229E-01  0.1219E-01  0.1800E+02  0.1800E+02
     -8.754  0.0000E+00  0.0000E+00  0.1800E+02  0.1800E+02
     -8.627  0.0000E+00  0.0000E+00  0.1800E+02  0.1800E+02
     -8.501  0.0000E+00  0.0000E+00  0.1800E+02  0.1800E+02
     -8.375  0.0000E+00  0.0000E+00  0.1800E+02  0.1800E+02
     -8.249  0.0000E+00  0.0000E+00  0.1800E+02  0.1800E+02
     -8.122  0.0000E+00  0.0000E+00  0.1800E+02  0.1800E+02
     -7.996  0.0000E+00  0.0000E+00  0.1800E+02  0.1800E+02
     -7.870  0.0000E+00  0.0000E+00  0.1800E+02  0.1800E+02
     -7.743  0.0000E+00  0.0000E+00  0.1800E+02  0.1800E+02
     -7.617  0.0000E+00  0.0000E+00  0.1800E+02  0.1800E+02
     -7.491  0.0000E+00  0.0000E+00  0.1800E+02  0.1800E+02
     -7.364  0.0000E+00  0.0000E+00  0.1800E+02  0.1800E+02
     -7.238  0.0000E+00  0.0000E+00  0.1800E+02  0.1800E+02
     -7.112  0.0000E+00  0.0000E+00  0.1800E+02  0.1800E+02
     -6.986  0.0000E+00  0.0000E+00  0.1800E+02  0.1800E+02
     -6.859  0.0000E+00  0.0000E+00  0.1800E+02  0.1800E+02
     -6.733  0.0000E+00  0.0000E+00  0.1800E+02  0.1800E+02
     -6.607  0.0000E+00  0.0000E+00  0.1800E+02  0.1800E+02
     -6.480  0.0000E+00  0.0000E+00  0.1800E+02  0.1800E+02
     -6.354  0.0000E+00  0.0000E+00  0.1800E+02  0.1800E+02
     -6.228  0.0000E+00  0.0000E+00  0.1800E+02  0.1800E+02
     -6.101  0.0000E+00  0.0000E+00  0.1800E+02  0.1800E+02
     -5.975  0.0000E+00  0.0000E+00  0.1800E+02  0.1800E+02
     -5.849  0.0000E+00  0.0000E+00  0.1800E+02  0.1800E+02
     -5.723  0.0000E+00  0.0000E+00  0.1800E+02  0.1800E+02
     -5.596  0.0000E+00  0.0000E+00  0.1800E+02  0.1800E+02
     -5.470  0.0000E+00  0.0000E+00  0.1800E+02  0.1800E+02
     -5.344  0.0000E+00  0.0000E+00  0.1800E+02  0.1800E+02
     -5.217  0.0000E+00  0.0000E+00  0.1800E+02  0.1800E+02
     -5.091  0.0000E+00  0.0000E+00  0.1800E+02  0.1800E+02
     -4.965  0.0000E+00  0.0000E+00  0.1800E+02  0.1800E+02
     -4.838  0.0000E+00  0.0000E+00  0.1800E+02  0.1800E+02
     -4.712  0.0000E+00  0.0000E+00  0.1800E+02  0.1800E+02
     -4.586  0.0000E+00  0.0000E+00  0.1800E+02  0.1800E+02
     -4.460  0.0000E+00  0.0000E+00  0.1800E+02  0.1800E+02
     -4.333  0.0000E+00  0.0000E+00  0.1800E+02  0.1800E+02
     -4.207  0.0000E+00  0.0000E+00  0.1800E+02  0.1800E+02
     -4.081  0.0000E+00  0.0000E+00  0.1800E+02  0.1800E+02
     -3.954  0.0000E+00  0.0000E+00  0.1800E+02  0.1800E+02
     -3.828  0.0000E+00  0.0000E+00  0.1800E+02  0.1800E+02
     -3.702  0.0000E+00  0.0000E+00  0.1800E+02  0.1800E+02
     -3.576  0.0000E+00  0.0000E+00  0.1800E+02  0.1800E+02
     -3.449  0.0000E+00  0.0000E+00  0.1800E+02  0.1800E+02
     -3.323  0.0000E+00  0.0000E+00  0.1800E+02  0.1800E+02
     -3.197  0.0000E+00  0.0000E+00  0.1800E+02  0.1800E+02
     -3.070  0.0000E+00  0.0000E+00  0.1800E+02  0.1800E+02
     -2.944  0.0000E+00  0.0000E+00  0.1800E+02  0.1800E+02
     -2.818  0.0000E+00  0.0000E+00  0.1800E+02  0.1800E+02
     -2.691  0.0000E+00  0.0000E+00  0.1800E+02  0.1800E+02
     -2.565  0.0000E+00  0.0000E+00  0.1800E+02  0.1800E+02
     -2.439  0.0000E+00  0.0000E+00  0.1800E+02  0.1800E+02
     -2.313  0.0000E+00  0.0000E+00  0.1800E+02  0.1800E+02
     -2.186  0.0000E+00  0.0000E+00  0.1800E+02  0.1800E+02
     -2.060  0.0000E+00  0.0000E+00  0.1800E+02  0.1800E+02
     -1.934  0.0000E+00  0.0000E+00  0.1800E+02  0.1800E+02
     -1.807  0.0000E+00  0.0000E+00  0.1800E+02  0.1800E+02
     -1.681  0.0000E+00  0.0000E+00  0.1800E+02  0.1800E+02
     -1.555  0.0000E+00  0.0000E+00  0.1800E+02  0.1800E+02
     -1.428  0.0000E+00  0.0000E+00  0.1800E+02  0.1800E+02
     -1.302  0.0000E+00  0.0000E+00  0.1800E+02  0.1800E+02
     -1.176  0.0000E+00  0.0000E+00  0.1800E+02  0.1800E+02
     -1.050  0.0000E+00  0.0000E+00  0.1800E+02  0.1800E+02
     -0.923  0.0000E+00  0.0000E+00  0.1800E+02  0.1800E+02
     -0.797  0.0000E+00  0.0000E+00  0.1800E+02  0.1800E+02
     -0.671  0.0000E+00  0.0000E+00  0.1800E+02  0.1800E+02
     -0.544  0.2483E-04  0.2478E-04  0.1800E+02  0.1800E+02
     -0.418  0.3781E-03  0.3773E-03  0.1800E+02  0.1800E+02
     -0.292  0.4794E-02  0.4784E-02  0.1800E+02  0.1800E+02
     -0.166  0.5403E-01  0.5393E-01  0.1801E+02  0.1801E+02
     -0.039  0.3464E+00  0.3460E+00  0.1805E+02  0.1805E+02
      0.087  0.1208E+01  0.1207E+01  0.1820E+02  0.1820E+02
      0.213  0.1745E+01  0.1745E+01  0.1842E+02  0.1842E+02
      0.340  0.2282E+01  0.2280E+01  0.1871E+02  0.1871E+02
      0.466  0.3744E+01  0.3743E+01  0.1919E+02  0.1919E+02
      0.592  0.6250E+01  0.6247E+01  0.1998E+02  0.1997E+02
      0.719  0.7106E+01  0.7109E+01  0.2087E+02  0.2087E+02
      0.845  0.6294E+01  0.6293E+01  0.2167E+02  0.2167E+02
      0.971  0.8774E+01  0.8774E+01  0.2278E+02  0.2278E+02
      1.097  0.7952E+01  0.7953E+01  0.2378E+02  0.2378E+02
      1.224  0.6865E+01  0.6866E+01  0.2465E+02  0.2465E+02
      1.350  0.4287E+01  0.4288E+01  0.2520E+02  0.2520E+02
      1.476  0.4030E+01  0.4030E+01  0.2570E+02  0.2570E+02
      1.603  0.4773E+01  0.4773E+01  0.2631E+02  0.2631E+02
      1.729  0.6352E+01  0.6351E+01  0.2711E+02  0.2711E+02
      1.855  0.7066E+01  0.7067E+01  0.2800E+02  0.2800E+02
      1.982  0.7813E+01  0.7813E+01  0.2899E+02  0.2899E+02
      2.108  0.6426E+01  0.6428E+01  0.2981E+02  0.2981E+02
      2.234  0.4608E+01  0.4608E+01  0.3039E+02  0.3039E+02
      2.360  0.4414E+01  0.4414E+01  0.3095E+02  0.3095E+02
      2.487  0.4621E+01  0.4621E+01  0.3153E+02  0.3153E+02
      2.613  0.5457E+01  0.5458E+01  0.3222E+02  0.3222E+02
      2.739  0.7561E+01  0.7561E+01  0.3318E+02  0.3318E+02
      2.866  0.8714E+01  0.8714E+01  0.3428E+02  0.3428E+02
      2.992  0.6902E+01  0.6903E+01  0.3515E+02  0.3515E+02
      3.118  0.5130E+01  0.5130E+01  0.3580E+02  0.3580E+02
      3.244  0.4182E+01  0.4182E+01  0.3633E+02  0.3633E+02
      3.371  0.4023E+01  0.4024E+01  0.3684E+02  0.3684E+02
      3.497  0.4890E+01  0.4892E+01  0.3746E+02  0.3746E+02
      3.623  0.6744E+01  0.6746E+01  0.3831E+02  0.3831E+02
      3.750  0.6826E+01  0.6826E+01  0.3917E+02  0.3917E+02
      3.876  0.4360E+01  0.4359E+01  0.3973E+02  0.3973E+02
      4.002  0.3963E+01  0.3964E+01  0.4023E+02  0.4023E+02
      4.129  0.3994E+01  0.3993E+01  0.4073E+02  0.4073E+02
      4.255  0.4168E+01  0.4171E+01  0.4126E+02  0.4126E+02
      4.381  0.7292E+01  0.7294E+01  0.4218E+02  0.4218E+02
      4.507  0.7221E+01  0.7222E+01  0.4310E+02  0.4310E+02
      4.634  0.9498E+01  0.9504E+01  0.4430E+02  0.4430E+02
      4.760  0.1248E+02  0.1248E+02  0.4587E+02  0.4588E+02
      4.886  0.9429E+01  0.9424E+01  0.4707E+02  0.4707E+02
      5.013  0.7978E+01  0.7980E+01  0.4808E+02  0.4808E+02
      5.139  0.7644E+01  0.7643E+01  0.4904E+02  0.4905E+02
      5.265  0.8812E+01  0.8819E+01  0.5016E+02  0.5016E+02
      5.392  0.1180E+02  0.1180E+02  0.5165E+02  0.5165E+02
      5.518  0.1086E+02  0.1086E+02  0.5302E+02  0.5302E+02
      5.644  0.1183E+02  0.1183E+02  0.5452E+02  0.5452E+02
      5.770  0.1357E+02  0.1357E+02  0.5623E+02  0.5624E+02
      5.897  0.1421E+02  0.1421E+02  0.5803E+02  0.5803E+02
      6.023  0.1299E+02  0.1299E+02  0.5967E+02  0.5968E+02
      6.149  0.1154E+02  0.1154E+02  0.6113E+02  0.6114E+02
      6.276  0.1024E+02  0.1024E+02  0.6243E+02  0.6243E+02
      6.402  0.1132E+02  0.1133E+02  0.6386E+02  0.6387E+02
      6.528  0.1170E+02  0.1169E+02  0.6534E+02  0.6535E+02
      6.655  0.1113E+02  0.1113E+02  0.6675E+02  0.6675E+02
      6.781  0.1033E+02  0.1034E+02  0.6806E+02  0.6806E+02
      6.907  0.1239E+02  0.1239E+02  0.6962E+02  0.6963E+02
      7.033  0.1017E+02  0.1016E+02  0.7091E+02  0.7092E+02
      7.160  0.5838E+01  0.5828E+01  0.7165E+02  0.7165E+02
      7.286  0.2369E+01  0.2358E+01  0.7195E+02  0.7195E+02
      7.412  0.3305E+00  0.3279E+00  0.7200E+02  0.7200E+02
      7.539  0.1968E-01  0.1951E-01  0.7200E+02  0.7200E+02
      7.665  0.0000E+00  0.0000E+00  0.7200E+02  0.7200E+02
      7.791  0.0000E+00  0.0000E+00  0.7200E+02  0.7200E+02
      7.917  0.0000E+00  0.0000E+00  0.7200E+02  0.7200E+02
      8.044  0.0000E+00  0.0000E+00  0.7200E+02  0.7200E+02
      8.170  0.0000E+00  0.0000E+00  0.7200E+02  0.7200E+02
      8.296  0.0000E+00  0.0000E+00  0.7200E+02  0.7200E+02
      8.423  0.0000E+00  0.0000E+00  0.7200E+02  0.7200E+02
      8.549  0.0000E+00  0.0000E+00  0.7200E+02  0.7200E+02
      8.675  0.0000E+00  0.0000E+00  0.7200E+02  0.7200E+02
      8.802  0.0000E+00  0.0000E+00  0.7200E+02  0.7200E+02
      8.928  0.0000E+00  0.0000E+00  0.7200E+02  0.7200E+02
      9.054  0.0000E+00  0.0000E+00  0.7200E+02  0.7200E+02
      9.180  0.0000E+00  0.0000E+00  0.7200E+02  0.7200E+02
      9.307  0.0000E+00  0.0000E+00  0.7200E+02  0.7200E+02
      9.433  0.0000E+00  0.0000E+00  0.7200E+02  0.7200E+02
      9.559  0.0000E+00  0.0000E+00  0.7200E+02  0.7200E+02
      9.686  0.0000E+00  0.0000E+00  0.7200E+02  0.7200E+02
      9.812  0.0000E+00  0.0000E+00  0.7200E+02  0.7200E+02
      9.938  0.0000E+00  0.0000E+00  0.7200E+02  0.7200E+02
     10.065  0.0000E+00  0.0000E+00  0.7200E+02  0.7200E+02
     10.191  0.0000E+00  0.0000E+00  0.7200E+02  0.7200E+02
     10.317  0.0000E+00  0.0000E+00  0.7200E+02  0.7200E+02
     10.443  0.0000E+00  0.0000E+00  0.7200E+02  0.7200E+02
     10.570  0.0000E+00  0.0000E+00  0.7200E+02  0.7200E+02
     10.696  0.0000E+00  0.0000E+00  0.7200E+02  0.7200E+02
     10.822  0.0000E+00  0.0000E+00  0.7200E+02  0.7200E+02
     10.949  0.0000E+00  0.0000E+00  0.7200E+02  0.7200E+02
     11.075  0.0000E+00  0.0000E+00  0.7200E+02  0.7200E+02
     11.201  0.0000E+00  0.0000E+00  0.7200E+02  0.7200E+02
     11.327  0.0000E+00  0.0000E+00  0.7200E+02  0.7200E+02
     11.454  0.0000E+00  0.0000E+00  0.7200E+02  0.7200E+02
     11.580  0.0000E+00  0.0000E+00  0.7200E+02  0.7200E+02
     11.706  0.0000E+00  0.0000E+00  0.7200E+02  0.7200E+02
     11.833  0.0000E+00  0.0000E+00  0.7200E+02  0.7200E+02
     11.959  0.0000E+00  0.0000E+00  0.7200E+02  0.7200E+02
     12.085  0.0000E+00  0.0000E+00  0.7200E+02  0.7200E+02
     12.212  0.0000E+00  0.0000E+00  0.7200E+02  0.7200E+02
     12.338  0.0000E+00  0.0000E+00  0.7200E+02  0.7200E+02
     12.464  0.0000E+00  0.0000E+00  0.7200E+02  0.7200E+02
     12.590  0.0000E+00  0.0000E+00  0.7200E+02  0.7200E+02
     12.717  0.0000E+00  0.0000E+00  0.7200E+02  0.7200E+02
     12.843  0.0000E+00  0.0000E+00  0.7200E+02  0.7200E+02
     12.969  0.0000E+00  0.0000E+00  0.7200E+02  0.7200E+02
     13.096  0.0000E+00  0.0000E+00  0.7200E+02  0.7200E+02
     13.222  0.0000E+00  0.0000E+00  0.7200E+02  0.7200E+02
     13.348  0.0000E+00  0.0000E+00  0.7200E+02  0.7200E+02
     13.475  0.0000E+00  0.0000E+00  0.7200E+02  0.7200E+02
     13.601  0.0000E+00  0.0000E+00  0.7200E+02  0.7200E+02
     13.727  0.0000E+00  0.0000E+00  0.7200E+02  0.7200E+02
     13.853  0.0000E+00  0.0000E+00  0.7200E+02  0.7200E+02
     13.980  0.0000E+00  0.0000E+00  0.7200E+02  0.7200E+02
     14.106  0.0000E+00  0.0000E+00  0.7200E+02  0.7200E+02
     14.232  0.0000E+00  0.0000E+00  0.7200E+02  0.7200E+02
     14.359  0.2369E-04  0.2344E-04  0.7200E+02  0.7200E+02
     14.485  0.2722E-03  0.2693E-03  0.7200E+02  0.7200E+02
     14.611  0.3364E-02  0.3329E-02  0.7200E+02  0.7200E+02
     14.737  0.3673E-01  0.3639E-01  0.7201E+02  0.7201E+02
     14.864  0.1643E+00  0.1639E+00  0.7203E+02  0.7203E+02
     14.990  0.9873E-01  0.9937E-01  0.7204E+02  0.7204E+02
     15.116  0.1235E-01  0.1247E-01  0.7204E+02  0.7204E+02
     15.243  0.1991E-02  0.1973E-02  0.7204E+02  0.7204E+02
     15.369  0.2459E-01  0.2436E-01  0.7204E+02  0.7204E+02
     15.495  0.2661E+00  0.2639E+00  0.7208E+02  0.7208E+02
     15.622  0.1150E+01  0.1148E+01  0.7222E+02  0.7222E+02
     15.748  0.6813E+00  0.6852E+00  0.7231E+02  0.7231E+02
     15.874  0.8593E-01  0.8669E-01  0.7232E+02  0.7232E+02
     16.000  0.1385E-01  0.1376E-01  0.7232E+02  0.7232E+02
     16.127  0.1406E+00  0.1395E+00  0.7234E+02  0.7234E+02
     16.253  0.8442E+00  0.8412E+00  0.7245E+02  0.7245E+02
     16.379  0.8086E+00  0.8114E+00  0.7255E+02  0.7255E+02
     16.506  0.4537E+00  0.4520E+00  0.7261E+02  0.7261E+02
     16.632  0.1218E+01  0.1217E+01  0.7276E+02  0.7276E+02
     16.758  0.5848E+00  0.5884E+00  0.7283E+02  0.7283E+02
     16.885  0.2509E+00  0.2498E+00  0.7287E+02  0.7286E+02
     17.011  0.1456E+01  0.1447E+01  0.7305E+02  0.7305E+02
     17.137  0.2909E+01  0.2909E+01  0.7342E+02  0.7342E+02
     17.263  0.1933E+01  0.1935E+01  0.7366E+02  0.7366E+02
     17.390  0.2398E+01  0.2388E+01  0.7396E+02  0.7396E+02
     17.516  0.4528E+01  0.4515E+01  0.7454E+02  0.7453E+02
     17.642  0.5842E+01  0.5842E+01  0.7527E+02  0.7527E+02
     17.769  0.6813E+01  0.6803E+01  0.7614E+02  0.7613E+02
     17.895  0.8599E+01  0.8597E+01  0.7722E+02  0.7722E+02
     18.021  0.7196E+01  0.7202E+01  0.7813E+02  0.7813E+02
     18.148  0.5858E+01  0.5869E+01  0.7887E+02  0.7887E+02
     18.274  0.4227E+01  0.4233E+01  0.7941E+02  0.7941E+02
     18.400  0.4962E+01  0.4960E+01  0.8004E+02  0.8003E+02
     18.526  0.7134E+01  0.7119E+01  0.8094E+02  0.8093E+02
     18.653  0.1035E+02  0.1034E+02  0.8225E+02  0.8224E+02
     18.779  0.7359E+01  0.7387E+01  0.8318E+02  0.8317E+02
     18.905  0.6858E+01  0.6846E+01  0.8405E+02  0.8404E+02
     19.032  0.8709E+01  0.8713E+01  0.8515E+02  0.8514E+02
     19.158  0.6620E+01  0.6618E+01  0.8599E+02  0.8598E+02
     19.284  0.7312E+01  0.7313E+01  0.8691E+02  0.8691E+02
     19.410  0.5666E+01  0.5675E+01  0.8763E+02  0.8763E+02
     19.537  0.4773E+01  0.4775E+01  0.8823E+02  0.8823E+02
     19.663  0.4233E+01  0.4230E+01  0.8877E+02  0.8876E+02
     19.789  0.5991E+01  0.5981E+01  0.8953E+02  0.8952E+02
     19.916  0.8645E+01  0.8649E+01  0.9062E+02  0.9061E+02
     20.042  0.6552E+01  0.6568E+01  0.9145E+02  0.9144E+02
     20.168  0.4065E+01  0.4059E+01  0.9196E+02  0.9196E+02
     20.295  0.4399E+01  0.4398E+01  0.9252E+02  0.9252E+02
     20.421  0.5720E+01  0.5722E+01  0.9324E+02  0.9324E+02
     20.547  0.6163E+01  0.6287E+01  0.9402E+02  0.9403E+02
     20.673  0.7371E+01  0.7717E+01  0.9495E+02  0.9501E+02
     20.800  0.7540E+01  0.7460E+01  0.9591E+02  0.9595E+02
     20.926  0.5844E+01  0.5565E+01  0.9665E+02  0.9666E+02
     21.052  0.6078E+01  0.6520E+01  0.9742E+02  0.9748E+02
     21.179  0.6560E+01  0.6546E+01  0.9825E+02  0.9831E+02
     21.305  0.4996E+01  0.5799E+01  0.9888E+02  0.9905E+02
     21.431  0.3050E+01  0.2617E+01  0.9927E+02  0.9938E+02
     21.558  0.2602E+01  0.1743E+01  0.9960E+02  0.9960E+02
     21.684  0.2023E+01  0.2178E+01  0.9985E+02  0.9988E+02
     21.810  0.9634E+00  0.8680E+00  0.9997E+02  0.9999E+02
     21.936  0.1813E+00  0.1068E+00  0.1000E+03  0.1000E+03
     22.063  0.1377E-01  0.7567E-02  0.1000E+03  0.1000E+03
     22.189  0.0000E+00  0.0000E+00  0.1000E+03  0.1000E+03
     22.315  0.0000E+00  0.0000E+00  0.1000E+03  0.1000E+03
     22.442  0.0000E+00  0.0000E+00  0.1000E+03  0.1000E+03
     22.568  0.0000E+00  0.0000E+00  0.1000E+03  0.1000E+03
     22.694  0.0000E+00  0.0000E+00  0.1000E+03  0.1000E+03
     22.820  0.0000E+00  0.0000E+00  0.1000E+03  0.1000E+03
     22.947  0.0000E+00  0.0000E+00  0.1000E+03  0.1000E+03
     23.073  0.0000E+00  0.0000E+00  0.1000E+03  0.1000E+03
     23.199  0.0000E+00  0.0000E+00  0.1000E+03  0.1000E+03
     23.326  0.0000E+00  0.0000E+00  0.1000E+03  0.1000E+03
     23.452  0.0000E+00  0.0000E+00  0.1000E+03  0.1000E+03
     23.45197277    -14.43704716  301      8.42278487      1.00000000
    -14.437  0.0000E+00  0.0000E+00  0.0000E+00  0.0000E+00  0.0000E+00  0.0000E+00  0.0000E+00  0.0000E+00  0.0000E+00  0.0000E+00  0.0000E+00  0.0000E+00  0.0000E+00  0.0000E+00  0.0000E+00  0.0000E+00  0.0000E+00  0.0000E+00
    -14.311  0.0000E+00  0.0000E+00  0.0000E+00  0.0000E+00  0.0000E+00  0.0000E+00  0.0000E+00  0.0000E+00  0.0000E+00  0.0000E+00  0.0000E+00  0.0000E+00  0.0000E+00  0.0000E+00  0.0000E+00  0.0000E+00  0.0000E+00  0.0000E+00
    -14.184  0.0000E+00  0.0000E+00  0.0000E+00  0.0000E+00  0.0000E+00  0.0000E+00  0.0000E+00  0.0000E+00  0.0000E+00  0.0000E+00  0.0000E+00  0.0000E+00  0.0000E+00  0.0000E+00  0.0000E+00  0.0000E+00  0.0000E+00  0.0000E+00
    -14.058  0.0000E+00  0.0000E+00  0.0000E+00  0.0000E+00  0.0000E+00  0.0000E+00  0.0000E+00  0.0000E+00  0.0000E+00  0.0000E+00  0.0000E+00  0.0000E+00  0.0000E+00  0.0000E+00  0.0000E+00  0.0000E+00  0.0000E+00  0.0000E+00
    -13.932  0.0000E+00  0.0000E+00  0.0000E+00  0.0000E+00  0.0000E+00  0.0000E+00  0.0000E+00  0.0000E+00  0.0000E+00  0.0000E+00  0.0000E+00  0.0000E+00  0.0000E+00  0.0000E+00  0.0000E+00  0.0000E+00  0.0000E+00  0.0000E+00
    -13.806  0.0000E+00  0.0000E+00  0.0000E+00  0.0000E+00  0.0000E+00  0.0000E+00  0.0000E+00  0.0000E+00  0.0000E+00  0.0000E+00  0.0000E+00  0.0000E+00  0.0000E+00  0.0000E+00  0.0000E+00  0.0000E+00  0.0000E+00  0.0000E+00
    -13.679  0.0000E+00  0.0000E+00  0.0000E+00  0.0000E+00  0.0000E+00  0.0000E+00  0.0000E+00  0.0000E+00  0.0000E+00  0.0000E+00  0.0000E+00  0.0000E+00  0.0000E+00  0.0000E+00  0.0000E+00  0.0000E+00  0.0000E+00  0.0000E+00
    -13.553  0.0000E+00  0.0000E+00  0.0000E+00  0.0000E+00  0.0000E+00  0.0000E+00  0.0000E+00  0.0000E+00  0.0000E+00  0.0000E+00  0.0000E+00  0.0000E+00  0.0000E+00  0.0000E+00  0.0000E+00  0.0000E+00  0.0000E+00  0.0000E+00
    -13.427  0.0000E+00  0.0000E+00  0.0000E+00  0.0000E+00  0.0000E+00  0.0000E+00  0.0000E+00  0.0000E+00  0.0000E+00  0.0000E+00  0.0000E+00  0.0000E+00  0.0000E+00  0.0000E+00  0.0000E+00  0.0000E+00  0.0000E+00  0.0000E+00
    -13.300  0.0000E+00  0.0000E+00  0.0000E+00  0.0000E+00  0.0000E+00  0.0000E+00  0.0000E+00  0.0000E+00  0.0000E+00  0.0000E+00  0.0000E+00  0.0000E+00  0.0000E+00  0.0000E+00  0.0000E+00  0.0000E+00  0.0000E+00  0.0000E+00
    -13.174  0.2497E-06  0.2502E-06  0.1212E-16  0.1202E-16  0.2323E-08  0.2328E-08  0.1212E-16  0.1202E-16  0.0000E+00  0.0000E+00  0.0000E+00  0.0000E+00  0.0000E+00  0.0000E+00  0.0000E+00  0.0000E+00  0.0000E+00  0.0000E+00
    -13.048  0.2869E-05  0.2874E-05  0.1392E-15  0.1381E-15  0.2669E-07  0.2674E-07  0.1392E-15  0.1381E-15  0.0000E+00  0.0000E+00  0.0000E+00  0.0000E+00  0.0000E+00  0.0000E+00  0.0000E+00  0.0000E+00  0.0000E+00  0.0000E+00
    -12.921  0.3870E-04  0.3877E-04  0.6774E-07  0.6789E-07  0.3725E-06  0.3732E-06  0.6774E-07  0.6789E-07  0.0000E+00  0.0000E+00  0.0000E+00  0.0000E+00  0.0000E+00  0.0000E+00  0.0000E+00  0.0000E+00  0.0000E+00  0.0000E+00
    -12.795  0.4073E-03  0.4079E-03  0.7768E-06  0.7785E-06  0.3932E-05  0.3939E-05  0.7768E-06  0.7785E-06  0.0000E+00  0.0000E+00  0.0000E+00  0.0000E+00  0.0000E+00  0.0000E+00  0.0000E+00  0.0000E+00  0.0000E+00  0.0000E+00
    -12.669  0.1810E-02  0.1811E-02  0.9420E-05  0.9440E-05  0.1870E-04  0.1872E-04  0.9420E-05  0.9440E-05  0.0000E+00  0.0000E+00  0.0000E+00  0.0000E+00  0.0000E+00  0.0000E+00  0.0000E+00  0.0000E+00  0.0000E+00  0.0000E+00
    -12.543  0.4737E-02  0.4742E-02  0.8097E-04  0.8108E-04  0.6305E-04  0.6313E-04  0.8097E-04  0.8108E-04  0.0000E+00  0.0000E+00  0.0000E+00  0.0000E+00  0.0000E+00  0.0000E+00  0.0000E+00  0.0000E+00  0.0000E+00  0.0000E+00
    -12.416  0.8905E-02  0.8902E-02  0.1619E-03  0.1618E-03  0.1658E-03  0.1658E-03  0.1619E-03  0.1618E-03  0.0000E+00  0.0000E+00  0.0000E+00  0.0000E+00  0.0000E+00  0.0000E+00  0.0000E+00  0.0000E+00  0.0000E+00  0.0000E+00
    -12.290  0.5962E-02  0.5962E-02  0.1234E-03  0.1235E-03  0.2491E-03  0.2493E-03  0.1234E-03  0.1235E-03  0.0000E+00  0.0000E+00  0.0000E+00  0.0000E+00  0.0000E+00  0.0000E+00  0.0000E+00  0.0000E+00  0.0000E+00  0.0000E+00
    -12.164  0.9765E-02  0.9766E-02  0.3301E-03  0.3304E-03  0.4553E-03  0.4552E-03  0.3301E-03  0.3304E-03  0.0000E+00  0.0000E+00  0.0000E+00  0.0000E+00  0.0000E+00  0.0000E+00  0.0000E+00  0.0000E+00  0.0000E+00  0.0000E+00
    -12.037  0.9848E-02  0.9846E-02  0.5942E-03  0.5943E-03  0.2914E-03  0.2914E-03  0.5942E-03  0.5943E-03  0.0000E+00  0.0000E+00  0.0000E+00  0.0000E+00  0.0000E+00  0.0000E+00  0.0000E+00  0.0000E+00  0.0000E+00  0.0000E+00
    -11.911  0.1148E-01  0.1149E-01  0.8345E-03  0.8351E-03  0.5610E-03  0.5617E-03  0.8345E-03  0.8351E-03  0.0000E+00  0.0000E+00  0.0000E+00  0.0000E+00  0.0000E+00  0.0000E+00  0.0000E+00  0.0000E+00  0.0000E+00  0.0000E+00
    -11.785  0.1565E-01  0.1564E-01  0.1038E-02  0.1038E-02  0.1233E-02  0.1234E-02  0.1038E-02  0.1038E-02  0.0000E+00  0.0000E+00  0.0000E+00  0.0000E+00  0.0000E+00  0.0000E+00  0.0000E+00  0.0000E+00  0.0000E+00  0.0000E+00
    -11.659  0.1310E-01  0.1309E-01  0.8135E-03  0.8133E-03  0.1453E-02  0.1452E-02  0.8135E-03  0.8133E-03  0.0000E+00  0.0000E+00  0.0000E+00  0.0000E+00  0.0000E+00  0.0000E+00  0.0000E+00  0.0000E+00  0.0000E+00  0.0000E+00
    -11.532  0.6777E-02  0.6775E-02  0.6654E-03  0.6659E-03  0.6956E-03  0.6954E-03  0.6654E-03  0.6659E-03  0.0000E+00  0.0000E+00  0.0000E+00  0.0000E+00  0.0000E+00  0.0000E+00  0.0000E+00  0.0000E+00  0.0000E+00  0.0000E+00
    -11.406  0.1514E-01  0.1516E-01  0.2129E-02  0.2132E-02  0.1562E-02  0.1564E-02  0.2129E-02  0.2132E-02  0.0000E+00  0.0000E+00  0.0000E+00  0.0000E+00  0.0000E+00  0.0000E+00  0.0000E+00  0.0000E+00  0.0000E+00  0.0000E+00
    -11.280  0.1959E-01  0.1958E-01  0.2914E-02  0.2912E-02  0.2211E-02  0.2212E-02  0.2914E-02  0.2912E-02  0.0000E+00  0.0000E+00  0.0000E+00  0.0000E+00  0.0000E+00  0.0000E+00  0.0000E+00  0.0000E+00  0.0000E+00  0.0000E+00
    -11.153  0.1576E-01  0.1575E-01  0.2424E-02  0.2423E-02  0.2789E-02  0.2790E-02  0.2424E-02  0.2423E-02  0.0000E+00  0.0000E+00  0.0000E+00  0.0000E+00  0.0000E+00  0.0000E+00  0.0000E+00  0.0000E+00  0.0000E+00  0.0000E+00
    -11.027  0.1074E-01  0.1073E-01  0.1634E-02  0.1633E-02  0.2828E-02  0.2826E-02  0.1634E-02  0.1633E-02  0.0000E+00  0.0000E+00  0.0000E+00  0.0000E+00  0.0000E+00  0.0000E+00  0.0000E+00  0.0000E+00  0.0000E+00  0.0000E+00
    -10.901  0.9321E-02  0.9324E-02  0.1962E-02  0.1964E-02  0.2645E-02  0.2645E-02  0.1962E-02  0.1964E-02  0.0000E+00  0.0000E+00  0.0000E+00  0.0000E+00  0.0000E+00  0.0000E+00  0.0000E+00  0.0000E+00  0.0000E+00  0.0000E+00
    -10.774  0.8069E-02  0.8061E-02  0.2326E-02  0.2326E-02  0.2303E-02  0.2302E-02  0.2326E-02  0.2326E-02  0.0000E+00  0.0000E+00  0.0000E+00  0.0000E+00  0.0000E+00  0.0000E+00  0.0000E+00  0.0000E+00  0.0000E+00  0.0000E+00
    -10.648  0.6636E-02  0.6636E-02  0.2509E-02  0.2510E-02  0.2716E-02  0.2719E-02  0.2509E-02  0.2510E-02  0.0000E+00  0.0000E+00  0.0000E+00  0.0000E+00  0.0000E+00  0.0000E+00  0.0000E+00  0.0000E+00  0.0000E+00  0.0000E+00
    -10.522  0.8730E-02  0.8734E-02  0.3762E-02  0.3764E-02  0.4626E-02  0.4631E-02  0.3762E-02  0.3764E-02  0.0000E+00  0.0000E+00  0.0000E+00  0.0000E+00  0.0000E+00  0.0000E+00  0.0000E+00  0.0000E+00  0.0000E+00  0.0000E+00
    -10.396  0.8740E-02  0.8733E-02  0.4066E-02  0.4064E-02  0.5109E-02  0.5106E-02  0.4066E-02  0.4064E-02  0.0000E+00  0.0000E+00  0.0000E+00  0.0000E+00  0.0000E+00  0.0000E+00  0.0000E+00  0.0000E+00  0.0000E+00  0.0000E+00
    -10.269  0.7340E-02  0.7340E-02  0.5181E-02  0.5187E-02  0.3865E-02  0.3864E-02  0.5181E-02  0.5187E-02  0.0000E+00  0.0000E+00  0.0000E+00  0.0000E+00  0.0000E+00  0.0000E+00  0.0000E+00  0.0000E+00  0.0000E+00  0.0000E+00
    -10.143  0.7133E-02  0.7133E-02  0.7532E-02  0.7538E-02  0.4980E-02  0.4987E-02  0.7532E-02  0.7538E-02  0.0000E+00  0.0000E+00  0.0000E+00  0.0000E+00  0.0000E+00  0.0000E+00  0.0000E+00  0.0000E+00  0.0000E+00  0.0000E+00
    -10.017  0.8050E-02  0.8050E-02  0.1099E-01  0.1099E-01  0.6922E-02  0.6920E-02  0.1099E-01  0.1099E-01  0.0000E+00  0.0000E+00  0.0000E+00  0.0000E+00  0.0000E+00  0.0000E+00  0.0000E+00  0.0000E+00  0.0000E+00  0.0000E+00
     -9.890  0.6644E-02  0.6638E-02  0.1059E-01  0.1058E-01  0.5193E-02  0.5189E-02  0.1059E-01  0.1058E-01  0.0000E+00  0.0000E+00  0.0000E+00  0.0000E+00  0.0000E+00  0.0000E+00  0.0000E+00  0.0000E+00  0.0000E+00  0.0000E+00
     -9.764  0.6276E-02  0.6280E-02  0.9102E-02  0.9102E-02  0.5302E-02  0.5307E-02  0.9102E-02  0.9102E-02  0.0000E+00  0.0000E+00  0.0000E+00  0.0000E+00  0.0000E+00  0.0000E+00  0.0000E+00  0.0000E+00  0.0000E+00  0.0000E+00
     -9.638  0.9558E-02  0.9562E-02  0.9150E-02  0.9148E-02  0.7769E-02  0.7774E-02  0.9150E-02  0.9148E-02  0.0000E+00  0.0000E+00  0.0000E+00  0.0000E+00  0.0000E+00  0.0000E+00  0.0000E+00  0.0000E+00  0.0000E+00  0.0000E+00
     -9.511  0.7447E-02  0.7435E-02  0.7177E-02  0.7170E-02  0.6644E-02  0.6636E-02  0.7177E-02  0.7170E-02  0.0000E+00  0.0000E+00  0.0000E+00  0.0000E+00  0.0000E+00  0.0000E+00  0.0000E+00  0.0000E+00  0.0000E+00  0.0000E+00
     -9.385  0.6024E-02  0.6022E-02  0.5935E-02  0.5933E-02  0.6268E-02  0.6272E-02  0.5935E-02  0.5933E-02  0.0000E+00  0.0000E+00  0.0000E+00  0.0000E+00  0.0000E+00  0.0000E+00  0.0000E+00  0.0000E+00  0.0000E+00  0.0000E+00
     -9.259  0.4766E-02  0.4759E-02  0.4614E-02  0.4608E-02  0.5455E-02  0.5446E-02  0.4614E-02  0.4608E-02  0.0000E+00  0.0000E+00  0.0000E+00  0.0000E+00  0.0000E+00  0.0000E+00  0.0000E+00  0.0000E+00  0.0000E+00  0.0000E+00
     -9.133  0.1780E-02  0.1771E-02  0.1606E-02  0.1597E-02  0.1839E-02  0.1829E-02  0.1606E-02  0.1597E-02  0.0000E+00  0.0000E+00  0.0000E+00  0.0000E+00  0.0000E+00  0.0000E+00  0.0000E+00  0.0000E+00  0.0000E+00  0.0000E+00
     -9.006  0.1942E-03  0.1927E-03  0.1731E-03  0.1718E-03  0.1906E-03  0.1891E-03  0.1731E-03  0.1718E-03  0.0000E+00  0.0000E+00  0.0000E+00  0.0000E+00  0.0000E+00  0.0000E+00  0.0000E+00  0.0000E+00  0.0000E+00  0.0000E+00
     -8.880  0.2707E-05  0.2685E-05  0.4098E-05  0.4065E-05  0.5219E-05  0.5177E-05  0.4098E-05  0.4065E-05  0.0000E+00  0.0000E+00  0.0000E+00  0.0000E+00  0.0000E+00  0.0000E+00  0.0000E+00  0.0000E+00  0.0000E+00  0.0000E+00
     -8.754  0.0000E+00  0.0000E+00  0.0000E+00  0.0000E+00  0.0000E+00  0.0000E+00  0.0000E+00  0.0000E+00  0.0000E+00  0.0000E+00  0.0000E+00  0.0000E+00  0.0000E+00  0.0000E+00  0.0000E+00  0.0000E+00  0.0000E+00  0.0000E+00
     -8.627  0.0000E+00  0.0000E+00  0.0000E+00  0.0000E+00  0.0000E+00  0.0000E+00  0.0000E+00  0.0000E+00  0.0000E+00  0.0000E+00  0.0000E+00  0.0000E+00  0.0000E+00  0.0000E+00  0.0000E+00  0.0000E+00  0.0000E+00  0.0000E+00
     -8.501  0.0000E+00  0.0000E+00  0.0000E+00  0.0000E+00  0.0000E+00  0.0000E+00  0.0000E+00  0.0000E+00  0.0000E+00  0.0000E+00  0.0000E+00  0.0000E+00  0.0000E+00  0.0000E+00  0.0000E+00  0.0000E+00  0.0000E+00  0.0000E+00
     -8.375  0.0000E+00  0.0000E+00  0.0000E+00  0.0000E+00  0.0000E+00  0.0000E+00  0.0000E+00  0.0000E+00  0.0000E+00  0.0000E+00  0.0000E+00  0.0000E+00  0.0000E+00  0.0000E+00  0.0000E+00  0.0000E+00  0.0000E+00  0.0000E+00
     -8.249  0.0000E+00  0.0000E+00  0.0000E+00  0.0000E+00  0.0000E+00  0.0000E+00  0.0000E+00  0.0000E+00  0.0000E+00  0.0000E+00  0.0000E+00  0.0000E+00  0.0000E+00  0.0000E+00  0.0000E+00  0.0000E+00  0.0000E+00  0.0000E+00
     -8.122  0.0000E+00  0.0000E+00  0.0000E+00  0.0000E+00  0.0000E+00  0.0000E+00  0.0000E+00  0.0000E+00  0.0000E+00  0.0000E+00  0.0000E+00  0.0000E+00  0.0000E+00  0.0000E+00  0.0000E+00  0.0000E+00  0.0000E+00  0.0000E+00