  30  30   1   0
  0.8227904E+01  0.4708928E-09  0.4708927E-09  0.1285393E-08  0.5000000E-15
  1.000000000000000E-004
  CAR 
 unknown system                          
     22.37135121    -14.63499397  301      7.69228808      1.00000000
    -14.635  0.0000E+00  0.0000E+00  0.0000E+00  0.0000E+00
    -14.512  0.0000E+00  0.0000E+00  0.0000E+00  0.0000E+00
    -14.388  0.0000E+00  0.0000E+00  0.0000E+00  0.0000E+00
    -14.265  0.0000E+00  0.0000E+00  0.0000E+00  0.0000E+00
    -14.142  0.0000E+00  0.0000E+00  0.0000E+00  0.0000E+00
    -14.018  0.0000E+00  0.0000E+00  0.0000E+00  0.0000E+00
    -13.895  0.0000E+00  0.0000E+00  0.0000E+00  0.0000E+00
    -13.772  0.0000E+00  0.0000E+00  0.0000E+00  0.0000E+00
    -13.648  0.0000E+00  0.0000E+00  0.0000E+00  0.0000E+00
    -13.525  0.0000E+00  0.0000E+00  0.0000E+00  0.0000E+00
    -13.401  0.4112E-04  0.4118E-04  0.5073E-05  0.5080E-05
    -13.278  0.5033E-03  0.5040E-03  0.6715E-04  0.6725E-04
    -13.155  0.5821E-02  0.5829E-02  0.7852E-03  0.7863E-03
    -13.031  0.5828E-01  0.5835E-01  0.7974E-02  0.7984E-02
    -12.908  0.2657E+00  0.2659E+00  0.4075E-01  0.4079E-01
    -12.785  0.7744E+00  0.7751E+00  0.1363E+00  0.1364E+00
    -12.661  0.1264E+01  0.1264E+01  0.2922E+00  0.2923E+00
    -12.538  0.1084E+01  0.1085E+01  0.4260E+00  0.4262E+00
    -12.415  0.1698E+01  0.1699E+01  0.6355E+00  0.6357E+00
    -12.291  0.1756E+01  0.1757E+01  0.8525E+00  0.8528E+00
    -12.168  0.2646E+01  0.2647E+01  0.1179E+01  0.1179E+01
    -12.045  0.2934E+01  0.2934E+01  0.1541E+01  0.1541E+01
    -11.921  0.2036E+01  0.2035E+01  0.1792E+01  0.1793E+01
    -11.798  0.2489E+01  0.2493E+01  0.2100E+01  0.2101E+01
    -11.674  0.4967E+01  0.4968E+01  0.2713E+01  0.2714E+01
    -11.551  0.4480E+01  0.4480E+01  0.3266E+01  0.3267E+01
    -11.428  0.3555E+01  0.3553E+01  0.3704E+01  0.3705E+01
    -11.304  0.3189E+01  0.3191E+01  0.4099E+01  0.4100E+01
    -11.181  0.3245E+01  0.3244E+01  0.4500E+01  0.4500E+01
    -11.058  0.3365E+01  0.3368E+01  0.4916E+01  0.4917E+01
    -10.934  0.5025E+01  0.5029E+01  0.5536E+01  0.5537E+01
    -10.811  0.5217E+01  0.5217E+01  0.6180E+01  0.6181E+01
    -10.688  0.6268E+01  0.6274E+01  0.6953E+01  0.6955E+01
    -10.564  0.9072E+01  0.9083E+01  0.8073E+01  0.8077E+01
    -10.441  0.1099E+02  0.1099E+02  0.9429E+01  0.9433E+01
    -10.318  0.1033E+02  0.1033E+02  0.1070E+02  0.1071E+02
    -10.194  0.1298E+02  0.1299E+02  0.1231E+02  0.1231E+02
    -10.071  0.1352E+02  0.1352E+02  0.1398E+02  0.1398E+02
     -9.948  0.1361E+02  0.1362E+02  0.1566E+02  0.1566E+02
     -9.824  0.1316E+02  0.1314E+02  0.1728E+02  0.1729E+02
     -9.701  0.5093E+01  0.5064E+01  0.1791E+02  0.1791E+02
     -9.577  0.6186E+00  0.6134E+00  0.1799E+02  0.1799E+02
     -9.454  0.2644E-01  0.2620E-01  0.1800E+02  0.1800E+02
     -9.331  0.0000E+00  0.0000E+00  0.1800E+02  0.1800E+02
     -9.207  0.0000E+00  0.0000E+00  0.1800E+02  0.1800E+02
     -9.084  0.0000E+00  0.0000E+00  0.1800E+02  0.1800E+02
     -8.961  0.0000E+00  0.0000E+00  0.1800E+02  0.1800E+02
     -8.837  0.0000E+00  0.0000E+00  0.1800E+02  0.1800E+02
     -8.714  0.0000E+00  0.0000E+00  0.1800E+02  0.1800E+02
     -8.591  0.0000E+00  0.0000E+00  0.1800E+02  0.1800E+02
     -8.467  0.0000E+00  0.0000E+00  0.1800E+02  0.1800E+02
     -8.344  0.0000E+00  0.0000E+00  0.1800E+02  0.1800E+02
     -8.221  0.0000E+00  0.0000E+00  0.1800E+02  0.1800E+02
     -8.097  0.0000E+00  0.0000E+00  0.1800E+02  0.1800E+02
     -7.974  0.0000E+00  0.0000E+00  0.1800E+02  0.1800E+02
     -7.850  0.0000E+00  0.0000E+00  0.1800E+02  0.1800E+02
     -7.727  0.0000E+00  0.0000E+00  0.1800E+02  0.1800E+02
     -7.604  0.0000E+00  0.0000E+00  0.1800E+02  0.1800E+02
     -7.480  0.0000E+00  0.0000E+00  0.1800E+02  0.1800E+02
     -7.357  0.0000E+00  0.0000E+00  0.1800E+02  0.1800E+02
     -7.234  0.0000E+00  0.0000E+00  0.1800E+02  0.1800E+02
     -7.110  0.0000E+00  0.0000E+00  0.1800E+02  0.1800E+02
     -6.987  0.0000E+00  0.0000E+00  0.1800E+02  0.1800E+02
     -6.864  0.0000E+00  0.0000E+00  0.1800E+02  0.1800E+02
     -6.740  0.0000E+00  0.0000E+00  0.1800E+02  0.1800E+02
     -6.617  0.0000E+00  0.0000E+00  0.1800E+02  0.1800E+02
     -6.494  0.0000E+00  0.0000E+00  0.1800E+02  0.1800E+02
     -6.370  0.0000E+00  0.0000E+00  0.1800E+02  0.1800E+02
     -6.247  0.0000E+00  0.0000E+00  0.1800E+02  0.1800E+02
     -6.124  0.0000E+00  0.0000E+00  0.1800E+02  0.1800E+02
     -6.000  0.0000E+00  0.0000E+00  0.1800E+02  0.1800E+02
     -5.877  0.0000E+00  0.0000E+00  0.1800E+02  0.1800E+02
     -5.753  0.0000E+00  0.0000E+00  0.1800E+02  0.1800E+02
     -5.630  0.0000E+00  0.0000E+00  0.1800E+02  0.1800E+02
     -5.507  0.0000E+00  0.0000E+00  0.1800E+02  0.1800E+02
     -5.383  0.0000E+00  0.0000E+00  0.1800E+02  0.1800E+02
     -5.260  0.0000E+00  0.0000E+00  0.1800E+02  0.1800E+02
     -5.137  0.0000E+00  0.0000E+00  0.1800E+02  0.1800E+02
     -5.013  0.0000E+00  0.0000E+00  0.1800E+02  0.1800E+02
     -4.890  0.0000E+00  0.0000E+00  0.1800E+02  0.1800E+02
     -4.767  0.0000E+00  0.0000E+00  0.1800E+02  0.1800E+02
     -4.643  0.0000E+00  0.0000E+00  0.1800E+02  0.1800E+02
     -4.520  0.0000E+00  0.0000E+00  0.1800E+02  0.1800E+02
     -4.397  0.0000E+00  0.0000E+00  0.1800E+02  0.1800E+02
     -4.273  0.0000E+00  0.0000E+00  0.1800E+02  0.1800E+02
     -4.150  0.0000E+00  0.0000E+00  0.1800E+02  0.1800E+02
     -4.027  0.0000E+00  0.0000E+00  0.1800E+02  0.1800E+02
     -3.903  0.0000E+00  0.0000E+00  0.1800E+02  0.1800E+02
     -3.780  0.0000E+00  0.0000E+00  0.1800E+02  0.1800E+02
     -3.656  0.0000E+00  0.0000E+00  0.1800E+02  0.1800E+02
     -3.533  0.0000E+00  0.0000E+00  0.1800E+02  0.1800E+02
     -3.410  0.0000E+00  0.0000E+00  0.1800E+02  0.1800E+02
     -3.286  0.0000E+00  0.0000E+00  0.1800E+02  0.1800E+02
     -3.163  0.0000E+00  0.0000E+00  0.1800E+02  0.1800E+02
     -3.040  0.0000E+00  0.0000E+00  0.1800E+02  0.1800E+02
     -2.916  0.0000E+00  0.0000E+00  0.1800E+02  0.1800E+02
     -2.793  0.0000E+00  0.0000E+00  0.1800E+02  0.1800E+02
     -2.670  0.0000E+00  0.0000E+00  0.1800E+02  0.1800E+02
     -2.546  0.0000E+00  0.0000E+00  0.1800E+02  0.1800E+02
     -2.423  0.0000E+00  0.0000E+00  0.1800E+02  0.1800E+02
     -2.300  0.0000E+00  0.0000E+00  0.1800E+02  0.1800E+02
     -2.176  0.0000E+00  0.0000E+00  0.1800E+02  0.1800E+02
     -2.053  0.0000E+00  0.0000E+00  0.1800E+02  0.1800E+02
     -1.929  0.0000E+00  0.0000E+00  0.1800E+02  0.1800E+02
     -1.806  0.0000E+00  0.0000E+00  0.1800E+02  0.1800E+02
     -1.683  0.0000E+00  0.0000E+00  0.1800E+02  0.1800E+02
     -1.559  0.0000E+00  0.0000E+00  0.1800E+02  0.1800E+02
     -1.436  0.0000E+00  0.0000E+00  0.1800E+02  0.1800E+02
     -1.313  0.0000E+00  0.0000E+00  0.1800E+02  0.1800E+02
     -1.189  0.0000E+00  0.0000E+00  0.1800E+02  0.1800E+02
     -1.066  0.0000E+00  0.0000E+00  0.1800E+02  0.1800E+02
     -0.943  0.2645E-04  0.2632E-04  0.1800E+02  0.1800E+02
     -0.819  0.3857E-03  0.3838E-03  0.1800E+02  0.1800E+02
     -0.696  0.4548E-02  0.4525E-02  0.1800E+02  0.1800E+02
     -0.573  0.4899E-01  0.4877E-01  0.1801E+02  0.1801E+02
     -0.449  0.3173E+00  0.3163E+00  0.1805E+02  0.1805E+02
     -0.326  0.1102E+01  0.1100E+01  0.1818E+02  0.1818E+02
     -0.203  0.1723E+01  0.1723E+01  0.1839E+02  0.1839E+02
     -0.079  0.2160E+01  0.2157E+01  0.1866E+02  0.1866E+02
      0.044  0.3723E+01  0.3719E+01  0.1912E+02  0.1912E+02
      0.168  0.6480E+01  0.6473E+01  0.1992E+02  0.1992E+02
      0.291  0.7768E+01  0.7773E+01  0.2088E+02  0.2088E+02
      0.414  0.6476E+01  0.6473E+01  0.2168E+02  0.2168E+02
      0.538  0.9428E+01  0.9426E+01  0.2284E+02  0.2284E+02
      0.661  0.8074E+01  0.8077E+01  0.2384E+02  0.2384E+02
      0.784  0.6803E+01  0.6807E+01  0.2468E+02  0.2468E+02
      0.908  0.4379E+01  0.4381E+01  0.2522E+02  0.2522E+02
      1.031  0.4379E+01  0.4378E+01  0.2576E+02  0.2576E+02
      1.154  0.4781E+01  0.4781E+01  0.2635E+02  0.2635E+02
      1.278  0.6089E+01  0.6085E+01  0.2711E+02  0.2710E+02
      1.401  0.7453E+01  0.7454E+01  0.2803E+02  0.2802E+02
      1.524  0.7276E+01  0.7275E+01  0.2892E+02  0.2892E+02
      1.648  0.6719E+01  0.6720E+01  0.2975E+02  0.2975E+02
      1.771  0.4846E+01  0.4849E+01  0.3035E+02  0.3035E+02
      1.895  0.3724E+01  0.3723E+01  0.3081E+02  0.3081E+02
      2.018  0.4707E+01  0.4706E+01  0.3139E+02  0.3139E+02
      2.141  0.6900E+01  0.6900E+01  0.3225E+02  0.3225E+02
      2.265  0.7638E+01  0.7639E+01  0.3319E+02  0.3319E+02
      2.388  0.8974E+01  0.8974E+01  0.3430E+02  0.3430E+02
      2.511  0.7573E+01  0.7576E+01  0.3523E+02  0.3523E+02
      2.635  0.5395E+01  0.5397E+01  0.3590E+02  0.3590E+02
      2.758  0.4310E+01  0.4311E+01  0.3643E+02  0.3643E+02
      2.881  0.4640E+01  0.4640E+01  0.3701E+02  0.3701E+02
      3.005  0.5464E+01  0.5466E+01  0.3768E+02  0.3768E+02
      3.128  0.7169E+01  0.7170E+01  0.3857E+02  0.3857E+02
      3.251  0.6651E+01  0.6651E+01  0.3939E+02  0.3939E+02
      3.375  0.4217E+01  0.4217E+01  0.3991E+02  0.3991E+02
      3.498  0.4578E+01  0.4579E+01  0.4048E+02  0.4048E+02
      3.621  0.4108E+01  0.4108E+01  0.4098E+02  0.4098E+02
      3.745  0.5705E+01  0.5708E+01  0.4169E+02  0.4169E+02
      3.868  0.7871E+01  0.7872E+01  0.4266E+02  0.4266E+02
      3.992  0.8091E+01  0.8095E+01  0.4366E+02  0.4366E+02
      4.115  0.1215E+02  0.1215E+02  0.4516E+02  0.4516E+02
      4.238  0.1221E+02  0.1220E+02  0.4667E+02  0.4667E+02
      4.362  0.8668E+01  0.8668E+01  0.4774E+02  0.4774E+02
      4.485  0.7873E+01  0.7872E+01  0.4871E+02  0.4871E+02
      4.608  0.7831E+01  0.7836E+01  0.4968E+02  0.4968E+02
      4.732  0.1137E+02  0.1137E+02  0.5108E+02  0.5108E+02
      4.855  0.1212E+02  0.1212E+02  0.5258E+02  0.5258E+02
      4.978  0.1246E+02  0.1246E+02  0.5412E+02  0.5412E+02
      5.102  0.1361E+02  0.1361E+02  0.5580E+02  0.5580E+02
      5.225  0.1428E+02  0.1429E+02  0.5756E+02  0.5757E+02
      5.348  0.1398E+02  0.1398E+02  0.5929E+02  0.5929E+02
      5.472  0.1182E+02  0.1182E+02  0.6075E+02  0.6075E+02
      5.595  0.1141E+02  0.1140E+02  0.6216E+02  0.6216E+02
      5.718  0.1134E+02  0.1135E+02  0.6356E+02  0.6356E+02
      5.842  0.1258E+02  0.1258E+02  0.6511E+02  0.6512E+02
      5.965  0.1229E+02  0.1229E+02  0.6663E+02  0.6664E+02
      6.089  0.1162E+02  0.1163E+02  0.6807E+02  0.6807E+02
      6.212  0.1329E+02  0.1330E+02  0.6971E+02  0.6971E+02
      6.335  0.1057E+02  0.1055E+02  0.7101E+02  0.7102E+02
      6.459  0.5832E+01  0.5816E+01  0.7173E+02  0.7174E+02
      6.582  0.1877E+01  0.1865E+01  0.7197E+02  0.7197E+02
      6.705  0.2244E+00  0.2223E+00  0.7200E+02  0.7200E+02
      6.829  0.9970E-02  0.9872E-02  0.7200E+02  0.7200E+02
      6.952  0.0000E+00  0.0000E+00  0.7200E+02  0.7200E+02
      7.075  0.0000E+00  0.0000E+00  0.7200E+02  0.7200E+02
      7.199  0.0000E+00  0.0000E+00  0.7200E+02  0.7200E+02
      7.322  0.0000E+00  0.0000E+00  0.7200E+02  0.7200E+02
      7.445  0.0000E+00  0.0000E+00  0.7200E+02  0.7200E+02
      7.569  0.0000E+00  0.0000E+00  0.7200E+02  0.7200E+02
      7.692  0.0000E+00  0.0000E+00  0.7200E+02  0.7200E+02
      7.816  0.0000E+00  0.0000E+00  0.7200E+02  0.7200E+02
      7.939  0.0000E+00  0.0000E+00  0.7200E+02  0.7200E+02
      8.062  0.0000E+00  0.0000E+00  0.7200E+02  0.7200E+02
      8.186  0.0000E+00  0.0000E+00  0.7200E+02  0.7200E+02
      8.309  0.0000E+00  0.0000E+00  0.7200E+02  0.7200E+02
      8.432  0.0000E+00  0.0000E+00  0.7200E+02  0.7200E+02
      8.556  0.0000E+00  0.0000E+00  0.7200E+02  0.7200E+02
      8.679  0.0000E+00  0.0000E+00  0.7200E+02  0.7200E+02
      8.802  0.0000E+00  0.0000E+00  0.7200E+02  0.7200E+02
      8.926  0.0000E+00  0.0000E+00  0.7200E+02  0.7200E+02
      9.049  0.0000E+00  0.0000E+00  0.7200E+02  0.7200E+02
      9.172  0.0000E+00  0.0000E+00  0.7200E+02  0.7200E+02
      9.296  0.0000E+00  0.0000E+00  0.7200E+02  0.7200E+02
      9.419  0.0000E+00  0.0000E+00  0.7200E+02  0.7200E+02
      9.542  0.0000E+00  0.0000E+00  0.7200E+02  0.7200E+02
      9.666  0.0000E+00  0.0000E+00  0.7200E+02  0.7200E+02
      9.789  0.0000E+00  0.0000E+00  0.7200E+02  0.7200E+02
      9.913  0.0000E+00  0.0000E+00  0.7200E+02  0.7200E+02
     10.036  0.0000E+00  0.0000E+00  0.7200E+02  0.7200E+02
     10.159  0.0000E+00  0.0000E+00  0.7200E+02  0.7200E+02
     10.283  0.0000E+00  0.0000E+00  0.7200E+02  0.7200E+02
     10.406  0.0000E+00  0.0000E+00  0.7200E+02  0.7200E+02
     10.529  0.0000E+00  0.0000E+00  0.7200E+02  0.7200E+02
     10.653  0.0000E+00  0.0000E+00  0.7200E+02  0.7200E+02
     10.776  0.0000E+00  0.0000E+00  0.7200E+02  0.7200E+02
     10.899  0.0000E+00  0.0000E+00  0.7200E+02  0.7200E+02
     11.023  0.0000E+00  0.0000E+00  0.7200E+02  0.7200E+02
     11.146  0.0000E+00  0.0000E+00  0.7200E+02  0.7200E+02
     11.269  0.0000E+00  0.0000E+00  0.7200E+02  0.7200E+02
     11.393  0.0000E+00  0.0000E+00  0.7200E+02  0.7200E+02
     11.516  0.0000E+00  0.0000E+00  0.7200E+02  0.7200E+02
     11.640  0.0000E+00  0.0000E+00  0.7200E+02  0.7200E+02
     11.763  0.0000E+00  0.0000E+00  0.7200E+02  0.7200E+02
     11.886  0.0000E+00  0.0000E+00  0.7200E+02  0.7200E+02
     12.010  0.0000E+00  0.0000E+00  0.7200E+02  0.7200E+02
     12.133  0.0000E+00  0.0000E+00  0.7200E+02  0.7200E+02
     12.256  0.0000E+00  0.0000E+00  0.7200E+02  0.7200E+02
     12.380  0.0000E+00  0.0000E+00  0.7200E+02  0.7200E+02
     12.503  0.0000E+00  0.0000E+00  0.7200E+02  0.7200E+02
     12.626  0.0000E+00  0.0000E+00  0.7200E+02  0.7200E+02
     12.750  0.0000E+00  0.0000E+00  0.7200E+02  0.7200E+02
     12.873  0.8829E-04  0.8701E-04  0.7200E+02  0.7200E+02
     12.996  0.9495E-03  0.9358E-03  0.7200E+02  0.7200E+02
     13.120  0.1079E-01  0.1064E-01  0.7200E+02  0.7200E+02
     13.243  0.8821E-01  0.8737E-01  0.7201E+02  0.7201E+02
     13.366  0.1724E+00  0.1728E+00  0.7203E+02  0.7203E+02
     13.490  0.4666E-01  0.4722E-01  0.7204E+02  0.7204E+02
     13.613  0.5044E-02  0.5108E-02  0.7204E+02  0.7204E+02
     13.737  0.3658E-02  0.3612E-02  0.7204E+02  0.7204E+02
     13.860  0.4218E-01  0.4166E-01  0.7205E+02  0.7205E+02
     13.983  0.3943E+00  0.3904E+00  0.7209E+02  0.7209E+02
     14.107  0.1196E+01  0.1194E+01  0.7224E+02  0.7224E+02
     14.230  0.5552E+00  0.5598E+00  0.7231E+02  0.7231E+02
     14.353  0.7245E-01  0.7332E-01  0.7232E+02  0.7232E+02
     14.477  0.1127E-01  0.1121E-01  0.7232E+02  0.7232E+02
     14.600  0.9856E-01  0.9752E-01  0.7233E+02  0.7233E+02
     14.723  0.6898E+00  0.6857E+00  0.7242E+02  0.7242E+02
     14.847  0.9525E+00  0.9555E+00  0.7254E+02  0.7254E+02
     14.970  0.3614E+00  0.3615E+00  0.7258E+02  0.7258E+02
     15.093  0.9807E+00  0.9761E+00  0.7270E+02  0.7270E+02
     15.217  0.9438E+00  0.9485E+00  0.7282E+02  0.7282E+02
     15.340  0.2099E+00  0.2113E+00  0.7284E+02  0.7284E+02
     15.464  0.4826E+00  0.4782E+00  0.7290E+02  0.7290E+02
     15.587  0.2166E+01  0.2159E+01  0.7317E+02  0.7317E+02
     15.710  0.2252E+01  0.2257E+01  0.7345E+02  0.7345E+02
     15.834  0.1228E+01  0.1230E+01  0.7360E+02  0.7360E+02
     15.957  0.1440E+01  0.1436E+01  0.7378E+02  0.7378E+02
     16.080  0.1588E+01  0.1586E+01  0.7397E+02  0.7397E+02
     16.204  0.3129E+01  0.3108E+01  0.7436E+02  0.7436E+02
     16.327  0.6990E+01  0.6969E+01  0.7522E+02  0.7522E+02
     16.450  0.7349E+01  0.7364E+01  0.7613E+02  0.7613E+02
     16.574  0.6069E+01  0.6057E+01  0.7688E+02  0.7687E+02
     16.697  0.7975E+01  0.7970E+01  0.7786E+02  0.7786E+02
     16.820  0.6704E+01  0.6712E+01  0.7869E+02  0.7869E+02
     16.944  0.6619E+01  0.6624E+01  0.7951E+02  0.7950E+02
     17.067  0.6307E+01  0.6304E+01  0.8029E+02  0.8028E+02
     17.190  0.7428E+01  0.7432E+01  0.8121E+02  0.8120E+02
     17.314  0.6676E+01  0.6662E+01  0.8203E+02  0.8202E+02
     17.437  0.8084E+01  0.8083E+01  0.8303E+02  0.8302E+02
     17.561  0.7645E+01  0.7645E+01  0.8397E+02  0.8397E+02
     17.684  0.7729E+01  0.7737E+01  0.8493E+02  0.8492E+02
     17.807  0.6360E+01  0.6365E+01  0.8571E+02  0.8571E+02
     17.931  0.6300E+01  0.6293E+01  0.8649E+02  0.8649E+02
     18.054  0.5750E+01  0.5765E+01  0.8720E+02  0.8720E+02
     18.177  0.4388E+01  0.4385E+01  0.8775E+02  0.8774E+02
     18.301  0.6155E+01  0.6142E+01  0.8851E+02  0.8850E+02
     18.424  0.7104E+01  0.7105E+01  0.8938E+02  0.8938E+02
     18.547  0.7200E+01  0.7207E+01  0.9027E+02  0.9027E+02
     18.671  0.4521E+01  0.4524E+01  0.9083E+02  0.9083E+02
     18.794  0.4974E+01  0.4967E+01  0.9145E+02  0.9144E+02
     18.917  0.5079E+01  0.5032E+01  0.9207E+02  0.9206E+02
     19.041  0.5190E+01  0.5127E+01  0.9271E+02  0.9270E+02
     19.164  0.5489E+01  0.5423E+01  0.9339E+02  0.9337E+02
     19.287  0.6569E+01  0.6366E+01  0.9420E+02  0.9415E+02
     19.411  0.5857E+01  0.5850E+01  0.9493E+02  0.9487E+02
     19.534  0.5788E+01  0.5997E+01  0.9564E+02  0.9562E+02
     19.658  0.5991E+01  0.6148E+01  0.9638E+02  0.9637E+02
     19.781  0.5842E+01  0.6521E+01  0.9710E+02  0.9718E+02
     19.904  0.6170E+01  0.6392E+01  0.9787E+02  0.9797E+02
     20.028  0.4294E+01  0.5606E+01  0.9840E+02  0.9866E+02
     20.151  0.3450E+01  0.3435E+01  0.9882E+02  0.9909E+02
     20.274  0.3574E+01  0.2676E+01  0.9927E+02  0.9942E+02
     20.398  0.3428E+01  0.2902E+01  0.9969E+02  0.9978E+02
     20.521  0.1369E+01  0.1544E+01  0.9986E+02  0.9997E+02
     20.644  0.4296E+00  0.2290E+00  0.9991E+02  0.1000E+03
     20.768  0.5353E+00  0.1415E-01  0.9998E+02  0.1000E+03
     20.891  0.1507E+00  0.0000E+00  0.1000E+03  0.1000E+03
     21.014  0.1542E-01  0.0000E+00  0.1000E+03  0.1000E+03
     21.138  0.0000E+00  0.0000E+00  0.1000E+03  0.1000E+03
     21.261  0.0000E+00  0.0000E+00  0.1000E+03  0.1000E+03
     21.385  0.0000E+00  0.0000E+00  0.1000E+03  0.1000E+03
     21.508  0.0000E+00  0.0000E+00  0.1000E+03  0.1000E+03
     21.631  0.0000E+00  0.0000E+00  0.1000E+03  0.1000E+03
     21.755  0.0000E+00  0.0000E+00  0.1000E+03  0.1000E+03
     21.878  0.0000E+00  0.0000E+00  0.1000E+03  0.1000E+03
     22.001  0.0000E+00  0.0000E+00  0.1000E+03  0.1000E+03
     22.125  0.0000E+00  0.0000E+00  0.1000E+03  0.1000E+03
     22.248  0.0000E+00  0.0000E+00  0.1000E+03  0.1000E+03
     22.371  0.0000E+00  0.0000E+00  0.1000E+03  0.1000E+03
     22.37135121    -14.63499397  301      7.69228808      1.00000000
    -14.635  0.0000E+00  0.0000E+00  0.0000E+00  0.0000E+00  0.0000E+00  0.0000E+00  0.0000E+00  0.0000E+00  0.0000E+00  0.0000E+00  0.0000E+00  0.0000E+00  0.0000E+00  0.0000E+00  0.0000E+00  0.0000E+00  0.0000E+00  0.0000E+00
    -14.512  0.0000E+00  0.0000E+00  0.0000E+00  0.0000E+00  0.0000E+00  0.0000E+00  0.0000E+00  0.0000E+00  0.0000E+00  0.0000E+00  0.0000E+00  0.0000E+00  0.0000E+00  0.0000E+00  0.0000E+00  0.0000E+00  0.0000E+00  0.0000E+00
    -14.388  0.0000E+00  0.0000E+00  0.0000E+00  0.0000E+00  0.0000E+00  0.0000E+00  0.0000E+00  0.0000E+00  0.0000E+00  0.0000E+00  0.0000E+00  0.0000E+00  0.0000E+00  0.0000E+00  0.0000E+00  0.0000E+00  0.0000E+00  0.0000E+00
    -14.265  0.0000E+00  0.0000E+00  0.0000E+00  0.0000E+00  0.0000E+00  0.0000E+00  0.0000E+00  0.0000E+00  0.0000E+00  0.0000E+00  0.0000E+00  0.0000E+00  0.0000E+00  0.0000E+00  0.0000E+00  0.0000E+00  0.0000E+00  0.0000E+00
    -14.142  0.0000E+00  0.0000E+00  0.0000E+00  0.0000E+00  0.0000E+00  0.0000E+00  0.0000E+00  0.0000E+00  0.0000E+00  0.0000E+00  0.0000E+00  0.0000E+00  0.0000E+00  0.0000E+00  0.0000E+00  0.0000E+00  0.0000E+00  0.0000E+00
    -14.018  0.0000E+00  0.0000E+00  0.0000E+00  0.0000E+00  0.0000E+00  0.0000E+00  0.0000E+00  0.0000E+00  0.0000E+00  0.0000E+00  0.0000E+00  0.0000E+00  0.0000E+00  0.0000E+00  0.0000E+00  0.0000E+00  0.0000E+00  0.0000E+00
    -13.895  0.0000E+00  0.0000E+00  0.0000E+00  0.0000E+00  0.0000E+00  0.0000E+00  0.0000E+00  0.0000E+00  0.0000E+00  0.0000E+00  0.0000E+00  0.0000E+00  0.0000E+00  0.0000E+00  0.0000E+00  0.0000E+00  0.0000E+00  0.0000E+00
    -13.772  0.0000E+00  0.0000E+00  0.0000E+00  0.0000E+00  0.0000E+00  0.0000E+00  0.0000E+00  0.0000E+00  0.0000E+00  0.0000E+00  0.0000E+00  0.0000E+00  0.0000E+00  0.0000E+00  0.0000E+00  0.0000E+00  0.0000E+00  0.0000E+00
    -13.648  0.0000E+00  0.0000E+00  0.0000E+00  0.0000E+00  0.0000E+00  0.0000E+00  0.0000E+00  0.0000E+00  0.0000E+00  0.0000E+00  0.0000E+00  0.0000E+00  0.0000E+00  0.0000E+00  0.0000E+00  0.0000E+00  0.0000E+00  0.0000E+00
    -13.525  0.0000E+00  0.0000E+00  0.0000E+00  0.0000E+00  0.0000E+00  0.0000E+00  0.0000E+00  0.0000E+00  0.0000E+00  0.0000E+00  0.0000E+00  0.0000E+00  0.0000E+00  0.0000E+00  0.0000E+00  0.0000E+00  0.0000E+00  0.0000E+00
    -13.401  0.2811E-06  0.2815E-06  0.1685E-16  0.1655E-16  0.2484E-08  0.2487E-08  0.1685E-16  0.1655E-16  0.0000E+00  0.0000E+00  0.0000E+00  0.0000E+00  0.0000E+00  0.0000E+00  0.0000E+00  0.0000E+00  0.0000E+00  0.0000E+00
    -13.278  0.3412E-05  0.3416E-05  0.7903E-08  0.7915E-08  0.3069E-07  0.3073E-07  0.7903E-08  0.7915E-08  0.0000E+00  0.0000E+00  0.0000E+00  0.0000E+00  0.0000E+00  0.0000E+00  0.0000E+00  0.0000E+00  0.0000E+00  0.0000E+00
    -13.155  0.3946E-04  0.3951E-04  0.8522E-07  0.8536E-07  0.3658E-06  0.3663E-06  0.8522E-07  0.8536E-07  0.0000E+00  0.0000E+00  0.0000E+00  0.0000E+00  0.0000E+00  0.0000E+00  0.0000E+00  0.0000E+00  0.0000E+00  0.0000E+00
    -13.031  0.3945E-03  0.3949E-03  0.1009E-05  0.1010E-05  0.3695E-05  0.3699E-05  0.1009E-05  0.1010E-05  0.0000E+00  0.0000E+00  0.0000E+00  0.0000E+00  0.0000E+00  0.0000E+00  0.0000E+00  0.0000E+00  0.0000E+00  0.0000E+00
    -12.908  0.1772E-02  0.1773E-02  0.1134E-04  0.1136E-04  0.1805E-04  0.1807E-04  0.1134E-04  0.1136E-04  0.0000E+00  0.0000E+00  0.0000E+00  0.0000E+00  0.0000E+00  0.0000E+00  0.0000E+00  0.0000E+00  0.0000E+00  0.0000E+00
    -12.785  0.4955E-02  0.4959E-02  0.8447E-04  0.8455E-04  0.6593E-04  0.6599E-04  0.8447E-04  0.8455E-04  0.0000E+00  0.0000E+00  0.0000E+00  0.0000E+00  0.0000E+00  0.0000E+00  0.0000E+00  0.0000E+00  0.0000E+00  0.0000E+00
    -12.661  0.7971E-02  0.7968E-02  0.1429E-03  0.1429E-03  0.1574E-03  0.1575E-03  0.1429E-03  0.1429E-03  0.0000E+00  0.0000E+00  0.0000E+00  0.0000E+00  0.0000E+00  0.0000E+00  0.0000E+00  0.0000E+00  0.0000E+00  0.0000E+00
    -12.538  0.6440E-02  0.6441E-02  0.1478E-03  0.1479E-03  0.2797E-03  0.2799E-03  0.1478E-03  0.1479E-03  0.0000E+00  0.0000E+00  0.0000E+00  0.0000E+00  0.0000E+00  0.0000E+00  0.0000E+00  0.0000E+00  0.0000E+00  0.0000E+00
    -12.415  0.9607E-02  0.9607E-02  0.3855E-03  0.3858E-03  0.3886E-03  0.3884E-03  0.3855E-03  0.3858E-03  0.0000E+00  0.0000E+00  0.0000E+00  0.0000E+00  0.0000E+00  0.0000E+00  0.0000E+00  0.0000E+00  0.0000E+00  0.0000E+00
    -12.291  0.9354E-02  0.9353E-02  0.6008E-03  0.6009E-03  0.3063E-03  0.3064E-03  0.6008E-03  0.6009E-03  0.0000E+00  0.0000E+00  0.0000E+00  0.0000E+00  0.0000E+00  0.0000E+00  0.0000E+00  0.0000E+00  0.0000E+00  0.0000E+00
    -12.168  0.1325E-01  0.1326E-01  0.9398E-03  0.9400E-03  0.7586E-03  0.7593E-03  0.9398E-03  0.9400E-03  0.0000E+00  0.0000E+00  0.0000E+00  0.0000E+00  0.0000E+00  0.0000E+00  0.0000E+00  0.0000E+00  0.0000E+00  0.0000E+00
    -12.045  0.1419E-01  0.1419E-01  0.8691E-03  0.8688E-03  0.1346E-02  0.1346E-02  0.8691E-03  0.8688E-03  0.0000E+00  0.0000E+00  0.0000E+00  0.0000E+00  0.0000E+00  0.0000E+00  0.0000E+00  0.0000E+00  0.0000E+00  0.0000E+00
    -11.921  0.9340E-02  0.9331E-02  0.6931E-03  0.6929E-03  0.9717E-03  0.9707E-03  0.6931E-03  0.6929E-03  0.0000E+00  0.0000E+00  0.0000E+00  0.0000E+00  0.0000E+00  0.0000E+00  0.0000E+00  0.0000E+00  0.0000E+00  0.0000E+00
    -11.798  0.9868E-02  0.9882E-02  0.1284E-02  0.1286E-02  0.1002E-02  0.1004E-02  0.1284E-02  0.1286E-02  0.0000E+00  0.0000E+00  0.0000E+00  0.0000E+00  0.0000E+00  0.0000E+00  0.0000E+00  0.0000E+00  0.0000E+00  0.0000E+00
    -11.674  0.1884E-01  0.1884E-01  0.2745E-02  0.2745E-02  0.1963E-02  0.1964E-02  0.2745E-02  0.2745E-02  0.0000E+00  0.0000E+00  0.0000E+00  0.0000E+00  0.0000E+00  0.0000E+00  0.0000E+00  0.0000E+00  0.0000E+00  0.0000E+00
    -11.551  0.1580E-01  0.1579E-01  0.2400E-02  0.2399E-02  0.2418E-02  0.2419E-02  0.2400E-02  0.2399E-02  0.0000E+00  0.0000E+00  0.0000E+00  0.0000E+00  0.0000E+00  0.0000E+00  0.0000E+00  0.0000E+00  0.0000E+00  0.0000E+00
    -11.428  0.1146E-01  0.1145E-01  0.1744E-02  0.1742E-02  0.2744E-02  0.2743E-02  0.1744E-02  0.1742E-02  0.0000E+00  0.0000E+00  0.0000E+00  0.0000E+00  0.0000E+00  0.0000E+00  0.0000E+00  0.0000E+00  0.0000E+00  0.0000E+00
    -11.304  0.8865E-02  0.8866E-02  0.1804E-02  0.1806E-02  0.2462E-02  0.2462E-02  0.1804E-02  0.1806E-02  0.0000E+00  0.0000E+00  0.0000E+00  0.0000E+00  0.0000E+00  0.0000E+00  0.0000E+00  0.0000E+00  0.0000E+00  0.0000E+00
    -11.181  0.7851E-02  0.7843E-02  0.2239E-02  0.2239E-02  0.2240E-02  0.2239E-02  0.2239E-02  0.2239E-02  0.0000E+00  0.0000E+00  0.0000E+00  0.0000E+00  0.0000E+00  0.0000E+00  0.0000E+00  0.0000E+00  0.0000E+00  0.0000E+00
    -11.058  0.6512E-02  0.6513E-02  0.2493E-02  0.2495E-02  0.2712E-02  0.2715E-02  0.2493E-02  0.2495E-02  0.0000E+00  0.0000E+00  0.0000E+00  0.0000E+00  0.0000E+00  0.0000E+00  0.0000E+00  0.0000E+00  0.0000E+00  0.0000E+00
    -10.934  0.8444E-02  0.8446E-02  0.3668E-02  0.3670E-02  0.4531E-02  0.4534E-02  0.3668E-02  0.3670E-02  0.0000E+00  0.0000E+00  0.0000E+00  0.0000E+00  0.0000E+00  0.0000E+00  0.0000E+00  0.0000E+00  0.0000E+00  0.0000E+00
    -10.811  0.7848E-02  0.7842E-02  0.3949E-02  0.3950E-02  0.4450E-02  0.4446E-02  0.3949E-02  0.3950E-02  0.0000E+00  0.0000E+00  0.0000E+00  0.0000E+00  0.0000E+00  0.0000E+00  0.0000E+00  0.0000E+00  0.0000E+00  0.0000E+00
    -10.688  0.7139E-02  0.7137E-02  0.5767E-02  0.5773E-02  0.3889E-02  0.3891E-02  0.5767E-02  0.5773E-02  0.0000E+00  0.0000E+00  0.0000E+00  0.0000E+00  0.0000E+00  0.0000E+00  0.0000E+00  0.0000E+00  0.0000E+00  0.0000E+00
    -10.564  0.7234E-02  0.7236E-02  0.8603E-02  0.8612E-02  0.5756E-02  0.5761E-02  0.8603E-02  0.8612E-02  0.0000E+00  0.0000E+00  0.0000E+00  0.0000E+00  0.0000E+00  0.0000E+00  0.0000E+00  0.0000E+00  0.0000E+00  0.0000E+00
    -10.441  0.7363E-02  0.7358E-02  0.1065E-01  0.1065E-01  0.5743E-02  0.5737E-02  0.1065E-01  0.1065E-01  0.0000E+00  0.0000E+00  0.0000E+00  0.0000E+00  0.0000E+00  0.0000E+00  0.0000E+00  0.0000E+00  0.0000E+00  0.0000E+00
    -10.318  0.6048E-02  0.6048E-02  0.9071E-02  0.9068E-02  0.4868E-02  0.4869E-02  0.9071E-02  0.9068E-02  0.0000E+00  0.0000E+00  0.0000E+00  0.0000E+00  0.0000E+00  0.0000E+00  0.0000E+00  0.0000E+00  0.0000E+00  0.0000E+00
    -10.194  0.8175E-02  0.8183E-02  0.8675E-02  0.8674E-02  0.6576E-02  0.6584E-02  0.8675E-02  0.8674E-02  0.0000E+00  0.0000E+00  0.0000E+00  0.0000E+00  0.0000E+00  0.0000E+00  0.0000E+00  0.0000E+00  0.0000E+00  0.0000E+00
    -10.071  0.7931E-02  0.7919E-02  0.7218E-02  0.7211E-02  0.6813E-02  0.6806E-02  0.7218E-02  0.7211E-02  0.0000E+00  0.0000E+00  0.0000E+00  0.0000E+00  0.0000E+00  0.0000E+00  0.0000E+00  0.0000E+00  0.0000E+00  0.0000E+00
     -9.948  0.5883E-02  0.5880E-02  0.5670E-02  0.5667E-02  0.5857E-02  0.5859E-02  0.5670E-02  0.5667E-02  0.0000E+00  0.0000E+00  0.0000E+00  0.0000E+00  0.0000E+00  0.0000E+00  0.0000E+00  0.0000E+00  0.0000E+00  0.0000E+00
     -9.824  0.4559E-02  0.4551E-02  0.4303E-02  0.4296E-02  0.5035E-02  0.5025E-02  0.4303E-02  0.4296E-02  0.0000E+00  0.0000E+00  0.0000E+00  0.0000E+00  0.0000E+00  0.0000E+00  0.0000E+00  0.0000E+00  0.0000E+00  0.0000E+00
     -9.701  0.1687E-02  0.1677E-02  0.1494E-02  0.1485E-02  0.1696E-02  0.1686E-02  0.1494E-02  0.1485E-02  0.0000E+00  0.0000E+00  0.0000E+00  0.0000E+00  0.0000E+00  0.0000E+00  0.0000E+00  0.0000E+00  0.0000E+00  0.0000E+00
     -9.577  0.2032E-03  0.2015E-03  0.1734E-03  0.1719E-03  0.2023E-03  0.2005E-03  0.1734E-03  0.1719E-03  0.0000E+00  0.0000E+00  0.0000E+00  0.0000E+00  0.0000E+00  0.0000E+00  0.0000E+00  0.0000E+00  0.0000E+00  0.0000E+00
     -9.454  0.9203E-05  0.9119E-05  0.6589E-05  0.6530E-05  0.6914E-05  0.6852E-05  0.6589E-05  0.6530E-05  0.0000E+00  0.0000E+00  0.0000E+00  0.0000E+00  0.0000E+00  0.0000E+00  0.0000E+00  0.0000E+00  0.0000E+00  0.0000E+00
     -9.331  0.0000E+00  0.0000E+00  0.0000E+00  0.0000E+00  0.0000E+00  0.0000E+00  0.0000E+00  0.0000E+00  0.0000E+00  0.0000E+00  0.0000E+00  0.0000E+00  0.0000E+00  0.0000E+00  0.0000E+00  0.0000E+00  0.0000E+00  0.0000E+00
     -9.207  0.0000E+00  0.0000E+00  0.0000E+00  0.0000E+00  0.0000E+00  0.0000E+00  0.0000E+00  0.0000E+00  0.0000E+00  0.0000E+00  0.0000E+00  0.0000E+00  0.0000E+00  0.0000E+00  0.0000E+00  0.0000E+00  0.0000E+00  0.0000E+00
     -9.084  0.0000E+00  0.0000E+00  0.0000E+00  0.0000E+00  0.0000E+00  0.0000E+00  0.0000E+00  0.0000E+00  0.0000E+00  0.0000E+00  0.0000E+00  0.0000E+00  0.0000E+00  0.0000E+00  0.0000E+00  0.0000E+00  0.0000E+00  0.0000E+00
     -8.961  0.0000E+00  0.0000E+00  0.0000E+00  0.0000E+00  0.0000E+00  0.0000E+00  0.0000E+00  0.0000E+00  0.0000E+00  0.0000E+00  0.0000E+00  0.0000E+00  0.0000E+00  0.0000E+00  0.0000E+00  0.0000E+00  0.0000E+00  0.0000E+00
     -8.837  0.0000E+00  0.0000E+00  0.0000E+00  0.0000E+00  0.0000E+00  0.0000E+00  0.0000E+00  0.0000E+00  0.0000E+00  0.0000E+00  0.0000E+00  0.0000E+00  0.0000E+00  0.0000E+00  0.0000E+00  0.0000E+00  0.0000E+00  0.0000E+00
     -8.714  0.0000E+00  0.0000E+00  0.0000E+00  0.0000E+00  0.0000E+00  0.0000E+00  0.0000E+00  0.0000E+00  0.0000E+00  0.0000E+00  0.0000E+00  0.0000E+00  0.0000E+00  0.0000E+00  0.0000E+00  0.0000E+00  0.0000E+00  0.0000E+00
     -8.591  0.0000E+00  0.0000E+00  0.0000E+00  0.0000E+00  0.0000E+00  0.0000E+00  0.0000E+00  0.0000E+00  0.0000E+00  0.0000E+00  0.0000E+00  0.0000E+00  0.0000E+00  0.0000E+00  0.0000E+00  0.0000E+00  0.0000E+00  0.0000E+00
     -8.467  0.0000E+00  0.0000E+00  0.0000E+00  0.0000E+00  0.0000E+00  0.0000E+00  0.0000E+00  0.0000E+00  0.0000E+00  0.0000E+00  0.0000E+00  0.0000E+00  0.0000E+00  0.0000E+00  0.0000E+00  0.0000E+00  0.0000E+00  0.0000E+00