  30  30   1   0
  0.1132115E+02  0.5237481E-09  0.5237480E-09  0.1429672E-08  0.5000000E-15
  1.000000000000000E-004
  CAR 
 unknown system                          
     16.03865107    -15.49100338  301      4.58292794      1.00000000
    -15.491  0.0000E+00  0.0000E+00  0.0000E+00  0.0000E+00
    -15.386  0.0000E+00  0.0000E+00  0.0000E+00  0.0000E+00
    -15.281  0.0000E+00  0.0000E+00  0.0000E+00  0.0000E+00
    -15.176  0.0000E+00  0.0000E+00  0.0000E+00  0.0000E+00
    -15.071  0.0000E+00  0.0000E+00  0.0000E+00  0.0000E+00
    -14.966  0.0000E+00  0.0000E+00  0.0000E+00  0.0000E+00
    -14.860  0.0000E+00  0.0000E+00  0.0000E+00  0.0000E+00
    -14.755  0.0000E+00  0.0000E+00  0.0000E+00  0.0000E+00
    -14.650  0.0000E+00  0.0000E+00  0.0000E+00  0.0000E+00
    -14.545  0.2228E-04  0.2217E-04  0.2342E-05  0.2330E-05
    -14.440  0.2621E-03  0.2608E-03  0.2989E-04  0.2974E-04
    -14.335  0.2106E-02  0.2096E-02  0.2513E-03  0.2500E-03
    -14.230  0.1719E-01  0.1710E-01  0.2058E-02  0.2048E-02
    -14.125  0.1225E+00  0.1220E+00  0.1493E-01  0.1487E-01
    -14.020  0.5649E+00  0.5631E+00  0.7430E-01  0.7404E-01
    -13.915  0.1485E+01  0.1483E+01  0.2304E+00  0.2299E+00
    -13.809  0.2021E+01  0.2019E+01  0.4428E+00  0.4421E+00
    -13.704  0.2792E+01  0.2790E+01  0.7363E+00  0.7354E+00
    -13.599  0.3767E+01  0.3764E+01  0.1132E+01  0.1131E+01
    -13.494  0.4498E+01  0.4498E+01  0.1605E+01  0.1604E+01
    -13.389  0.4721E+01  0.4716E+01  0.2102E+01  0.2100E+01
    -13.284  0.7104E+01  0.7098E+01  0.2849E+01  0.2847E+01
    -13.179  0.7017E+01  0.7020E+01  0.3587E+01  0.3585E+01
    -13.074  0.6213E+01  0.6213E+01  0.4241E+01  0.4239E+01
    -12.969  0.6641E+01  0.6636E+01  0.4939E+01  0.4936E+01
    -12.864  0.8932E+01  0.8921E+01  0.5879E+01  0.5875E+01
    -12.758  0.1245E+02  0.1243E+02  0.7188E+01  0.7182E+01
    -12.653  0.1797E+02  0.1795E+02  0.9077E+01  0.9069E+01
    -12.548  0.2124E+02  0.2123E+02  0.1131E+02  0.1130E+02
    -12.443  0.2389E+02  0.2388E+02  0.1382E+02  0.1381E+02
    -12.338  0.2289E+02  0.2290E+02  0.1623E+02  0.1622E+02
    -12.233  0.1329E+02  0.1334E+02  0.1763E+02  0.1762E+02
    -12.128  0.3049E+01  0.3071E+01  0.1795E+02  0.1795E+02
    -12.023  0.4054E+00  0.4087E+00  0.1799E+02  0.1799E+02
    -11.918  0.1824E-01  0.1839E-01  0.1800E+02  0.1800E+02
    -11.813  0.0000E+00  0.0000E+00  0.1800E+02  0.1800E+02
    -11.707  0.0000E+00  0.0000E+00  0.1800E+02  0.1800E+02
    -11.602  0.0000E+00  0.0000E+00  0.1800E+02  0.1800E+02
    -11.497  0.0000E+00  0.0000E+00  0.1800E+02  0.1800E+02
    -11.392  0.0000E+00  0.0000E+00  0.1800E+02  0.1800E+02
    -11.287  0.0000E+00  0.0000E+00  0.1800E+02  0.1800E+02
    -11.182  0.0000E+00  0.0000E+00  0.1800E+02  0.1800E+02
    -11.077  0.0000E+00  0.0000E+00  0.1800E+02  0.1800E+02
    -10.972  0.0000E+00  0.0000E+00  0.1800E+02  0.1800E+02
    -10.867  0.0000E+00  0.0000E+00  0.1800E+02  0.1800E+02
    -10.762  0.0000E+00  0.0000E+00  0.1800E+02  0.1800E+02
    -10.656  0.0000E+00  0.0000E+00  0.1800E+02  0.1800E+02
    -10.551  0.0000E+00  0.0000E+00  0.1800E+02  0.1800E+02
    -10.446  0.0000E+00  0.0000E+00  0.1800E+02  0.1800E+02
    -10.341  0.0000E+00  0.0000E+00  0.1800E+02  0.1800E+02
    -10.236  0.0000E+00  0.0000E+00  0.1800E+02  0.1800E+02
    -10.131  0.0000E+00  0.0000E+00  0.1800E+02  0.1800E+02
    -10.026  0.0000E+00  0.0000E+00  0.1800E+02  0.1800E+02
     -9.921  0.0000E+00  0.0000E+00  0.1800E+02  0.1800E+02
     -9.816  0.0000E+00  0.0000E+00  0.1800E+02  0.1800E+02
     -9.711  0.0000E+00  0.0000E+00  0.1800E+02  0.1800E+02
     -9.605  0.0000E+00  0.0000E+00  0.1800E+02  0.1800E+02
     -9.500  0.0000E+00  0.0000E+00  0.1800E+02  0.1800E+02
     -9.395  0.0000E+00  0.0000E+00  0.1800E+02  0.1800E+02
     -9.290  0.0000E+00  0.0000E+00  0.1800E+02  0.1800E+02
     -9.185  0.0000E+00  0.0000E+00  0.1800E+02  0.1800E+02
     -9.080  0.0000E+00  0.0000E+00  0.1800E+02  0.1800E+02
     -8.975  0.0000E+00  0.0000E+00  0.1800E+02  0.1800E+02
     -8.870  0.0000E+00  0.0000E+00  0.1800E+02  0.1800E+02
     -8.765  0.0000E+00  0.0000E+00  0.1800E+02  0.1800E+02
     -8.660  0.0000E+00  0.0000E+00  0.1800E+02  0.1800E+02
     -8.554  0.0000E+00  0.0000E+00  0.1800E+02  0.1800E+02
     -8.449  0.0000E+00  0.0000E+00  0.1800E+02  0.1800E+02
     -8.344  0.0000E+00  0.0000E+00  0.1800E+02  0.1800E+02
     -8.239  0.0000E+00  0.0000E+00  0.1800E+02  0.1800E+02
     -8.134  0.0000E+00  0.0000E+00  0.1800E+02  0.1800E+02
     -8.029  0.0000E+00  0.0000E+00  0.1800E+02  0.1800E+02
     -7.924  0.0000E+00  0.0000E+00  0.1800E+02  0.1800E+02
     -7.819  0.0000E+00  0.0000E+00  0.1800E+02  0.1800E+02
     -7.714  0.0000E+00  0.0000E+00  0.1800E+02  0.1800E+02
     -7.609  0.0000E+00  0.0000E+00  0.1800E+02  0.1800E+02
     -7.503  0.0000E+00  0.0000E+00  0.1800E+02  0.1800E+02
     -7.398  0.0000E+00  0.0000E+00  0.1800E+02  0.1800E+02
     -7.293  0.0000E+00  0.0000E+00  0.1800E+02  0.1800E+02
     -7.188  0.0000E+00  0.0000E+00  0.1800E+02  0.1800E+02
     -7.083  0.0000E+00  0.0000E+00  0.1800E+02  0.1800E+02
     -6.978  0.0000E+00  0.0000E+00  0.1800E+02  0.1800E+02
     -6.873  0.0000E+00  0.0000E+00  0.1800E+02  0.1800E+02
     -6.768  0.0000E+00  0.0000E+00  0.1800E+02  0.1800E+02
     -6.663  0.0000E+00  0.0000E+00  0.1800E+02  0.1800E+02
     -6.558  0.0000E+00  0.0000E+00  0.1800E+02  0.1800E+02
     -6.453  0.0000E+00  0.0000E+00  0.1800E+02  0.1800E+02
     -6.347  0.0000E+00  0.0000E+00  0.1800E+02  0.1800E+02
     -6.242  0.0000E+00  0.0000E+00  0.1800E+02  0.1800E+02
     -6.137  0.0000E+00  0.0000E+00  0.1800E+02  0.1800E+02
     -6.032  0.0000E+00  0.0000E+00  0.1800E+02  0.1800E+02
     -5.927  0.0000E+00  0.0000E+00  0.1800E+02  0.1800E+02
     -5.822  0.0000E+00  0.0000E+00  0.1800E+02  0.1800E+02
     -5.717  0.0000E+00  0.0000E+00  0.1800E+02  0.1800E+02
     -5.612  0.0000E+00  0.0000E+00  0.1800E+02  0.1800E+02
     -5.507  0.0000E+00  0.0000E+00  0.1800E+02  0.1800E+02
     -5.402  0.0000E+00  0.0000E+00  0.1800E+02  0.1800E+02
     -5.296  0.0000E+00  0.0000E+00  0.1800E+02  0.1800E+02
     -5.191  0.0000E+00  0.0000E+00  0.1800E+02  0.1800E+02
     -5.086  0.0000E+00  0.0000E+00  0.1800E+02  0.1800E+02
     -4.981  0.0000E+00  0.0000E+00  0.1800E+02  0.1800E+02
     -4.876  0.0000E+00  0.0000E+00  0.1800E+02  0.1800E+02
     -4.771  0.0000E+00  0.0000E+00  0.1800E+02  0.1800E+02
     -4.666  0.0000E+00  0.0000E+00  0.1800E+02  0.1800E+02
     -4.561  0.0000E+00  0.0000E+00  0.1800E+02  0.1800E+02
     -4.456  0.0000E+00  0.0000E+00  0.1800E+02  0.1800E+02
     -4.351  0.0000E+00  0.0000E+00  0.1800E+02  0.1800E+02
     -4.245  0.0000E+00  0.0000E+00  0.1800E+02  0.1800E+02
     -4.140  0.0000E+00  0.0000E+00  0.1800E+02  0.1800E+02
     -4.035  0.0000E+00  0.0000E+00  0.1800E+02  0.1800E+02
     -3.930  0.0000E+00  0.0000E+00  0.1800E+02  0.1800E+02
     -3.825  0.0000E+00  0.0000E+00  0.1800E+02  0.1800E+02
     -3.720  0.0000E+00  0.0000E+00  0.1800E+02  0.1800E+02
     -3.615  0.0000E+00  0.0000E+00  0.1800E+02  0.1800E+02
     -3.510  0.0000E+00  0.0000E+00  0.1800E+02  0.1800E+02
     -3.405  0.0000E+00  0.0000E+00  0.1800E+02  0.1800E+02
     -3.300  0.0000E+00  0.0000E+00  0.1800E+02  0.1800E+02
     -3.194  0.0000E+00  0.0000E+00  0.1800E+02  0.1800E+02
     -3.089  0.0000E+00  0.0000E+00  0.1800E+02  0.1800E+02
     -2.984  0.0000E+00  0.0000E+00  0.1800E+02  0.1800E+02
     -2.879  0.0000E+00  0.0000E+00  0.1800E+02  0.1800E+02
     -2.774  0.0000E+00  0.0000E+00  0.1800E+02  0.1800E+02
     -2.669  0.4026E-04  0.4028E-04  0.1800E+02  0.1800E+02
     -2.564  0.4428E-03  0.4430E-03  0.1800E+02  0.1800E+02
     -2.459  0.3452E-02  0.3454E-02  0.1800E+02  0.1800E+02
     -2.354  0.2744E-01  0.2746E-01  0.1800E+02  0.1800E+02
     -2.249  0.1752E+00  0.1753E+00  0.1802E+02  0.1802E+02
     -2.143  0.6505E+00  0.6507E+00  0.1809E+02  0.1809E+02
     -2.038  0.1332E+01  0.1332E+01  0.1823E+02  0.1823E+02
     -1.933  0.1571E+01  0.1571E+01  0.1840E+02  0.1840E+02
     -1.828  0.2983E+01  0.2983E+01  0.1871E+02  0.1871E+02
     -1.723  0.5391E+01  0.5391E+01  0.1928E+02  0.1928E+02
     -1.618  0.9227E+01  0.9227E+01  0.2025E+02  0.2025E+02
     -1.513  0.9930E+01  0.9929E+01  0.2129E+02  0.2129E+02
     -1.408  0.9714E+01  0.9713E+01  0.2231E+02  0.2231E+02
     -1.303  0.9570E+01  0.9569E+01  0.2332E+02  0.2332E+02
     -1.198  0.8850E+01  0.8850E+01  0.2425E+02  0.2425E+02
     -1.092  0.6952E+01  0.6952E+01  0.2498E+02  0.2498E+02
     -0.987  0.7031E+01  0.7030E+01  0.2572E+02  0.2572E+02
     -0.882  0.6941E+01  0.6941E+01  0.2645E+02  0.2645E+02
     -0.777  0.5801E+01  0.5801E+01  0.2706E+02  0.2706E+02
     -0.672  0.4544E+01  0.4544E+01  0.2754E+02  0.2754E+02
     -0.567  0.4387E+01  0.4387E+01  0.2800E+02  0.2800E+02
     -0.462  0.5386E+01  0.5385E+01  0.2857E+02  0.2857E+02
     -0.357  0.5947E+01  0.5946E+01  0.2919E+02  0.2919E+02
     -0.252  0.6441E+01  0.6440E+01  0.2987E+02  0.2987E+02
     -0.147  0.4828E+01  0.4829E+01  0.3038E+02  0.3038E+02
     -0.041  0.3762E+01  0.3761E+01  0.3077E+02  0.3077E+02
      0.064  0.6222E+01  0.6218E+01  0.3143E+02  0.3143E+02
      0.169  0.9001E+01  0.8998E+01  0.3238E+02  0.3238E+02
      0.274  0.1111E+02  0.1111E+02  0.3354E+02  0.3354E+02
      0.379  0.1140E+02  0.1140E+02  0.3474E+02  0.3474E+02
      0.484  0.9707E+01  0.9707E+01  0.3576E+02  0.3576E+02
      0.589  0.8953E+01  0.8952E+01  0.3671E+02  0.3670E+02
      0.694  0.7882E+01  0.7883E+01  0.3754E+02  0.3754E+02
      0.799  0.7161E+01  0.7158E+01  0.3829E+02  0.3829E+02
      0.904  0.8346E+01  0.8346E+01  0.3917E+02  0.3917E+02
      1.010  0.7462E+01  0.7463E+01  0.3995E+02  0.3995E+02
      1.115  0.7075E+01  0.7074E+01  0.4070E+02  0.4070E+02
      1.220  0.6985E+01  0.6983E+01  0.4143E+02  0.4143E+02
      1.325  0.8282E+01  0.8277E+01  0.4230E+02  0.4230E+02
      1.430  0.9302E+01  0.9299E+01  0.4328E+02  0.4328E+02
      1.535  0.1132E+02  0.1131E+02  0.4447E+02  0.4447E+02
      1.640  0.1646E+02  0.1645E+02  0.4620E+02  0.4620E+02
      1.745  0.1469E+02  0.1470E+02  0.4775E+02  0.4775E+02
      1.850  0.1001E+02  0.1002E+02  0.4880E+02  0.4880E+02
      1.955  0.9643E+01  0.9637E+01  0.4982E+02  0.4981E+02
      2.061  0.1151E+02  0.1151E+02  0.5103E+02  0.5103E+02
      2.166  0.1556E+02  0.1554E+02  0.5267E+02  0.5266E+02
      2.271  0.1802E+02  0.1803E+02  0.5456E+02  0.5456E+02
      2.376  0.1646E+02  0.1646E+02  0.5629E+02  0.5629E+02
      2.481  0.1636E+02  0.1636E+02  0.5801E+02  0.5801E+02
      2.586  0.1463E+02  0.1464E+02  0.5955E+02  0.5955E+02
      2.691  0.1391E+02  0.1390E+02  0.6102E+02  0.6101E+02
      2.796  0.1578E+02  0.1577E+02  0.6268E+02  0.6267E+02
      2.901  0.1698E+02  0.1697E+02  0.6446E+02  0.6446E+02
      3.006  0.1929E+02  0.1928E+02  0.6649E+02  0.6648E+02
      3.111  0.2037E+02  0.2037E+02  0.6863E+02  0.6863E+02
      3.217  0.1805E+02  0.1807E+02  0.7053E+02  0.7053E+02
      3.322  0.1002E+02  0.1005E+02  0.7159E+02  0.7159E+02
      3.427  0.3265E+01  0.3284E+01  0.7193E+02  0.7193E+02
      3.532  0.5319E+00  0.5362E+00  0.7199E+02  0.7199E+02
      3.637  0.5283E-01  0.5328E-01  0.7200E+02  0.7200E+02
      3.742  0.0000E+00  0.0000E+00  0.7200E+02  0.7200E+02
      3.847  0.0000E+00  0.0000E+00  0.7200E+02  0.7200E+02
      3.952  0.0000E+00  0.0000E+00  0.7200E+02  0.7200E+02
      4.057  0.0000E+00  0.0000E+00  0.7200E+02  0.7200E+02
      4.162  0.0000E+00  0.0000E+00  0.7200E+02  0.7200E+02
      4.268  0.0000E+00  0.0000E+00  0.7200E+02  0.7200E+02
      4.373  0.0000E+00  0.0000E+00  0.7200E+02  0.7200E+02
      4.478  0.0000E+00  0.0000E+00  0.7200E+02  0.7200E+02
      4.583  0.0000E+00  0.0000E+00  0.7200E+02  0.7200E+02
      4.688  0.0000E+00  0.0000E+00  0.7200E+02  0.7200E+02
      4.793  0.0000E+00  0.0000E+00  0.7200E+02  0.7200E+02
      4.898  0.0000E+00  0.0000E+00  0.7200E+02  0.7200E+02
      5.003  0.0000E+00  0.0000E+00  0.7200E+02  0.7200E+02
      5.108  0.0000E+00  0.0000E+00  0.7200E+02  0.7200E+02
      5.213  0.0000E+00  0.0000E+00  0.7200E+02  0.7200E+02
      5.319  0.0000E+00  0.0000E+00  0.7200E+02  0.7200E+02
      5.424  0.0000E+00  0.0000E+00  0.7200E+02  0.7200E+02
      5.529  0.0000E+00  0.0000E+00  0.7200E+02  0.7200E+02
      5.634  0.0000E+00  0.0000E+00  0.7200E+02  0.7200E+02
      5.739  0.0000E+00  0.0000E+00  0.7200E+02  0.7200E+02
      5.844  0.0000E+00  0.0000E+00  0.7200E+02  0.7200E+02
      5.949  0.0000E+00  0.0000E+00  0.7200E+02  0.7200E+02
      6.054  0.8951E-04  0.9015E-04  0.7200E+02  0.7200E+02
      6.159  0.6417E-03  0.6462E-03  0.7200E+02  0.7200E+02
      6.264  0.5170E-02  0.5206E-02  0.7200E+02  0.7200E+02
      6.370  0.3755E-01  0.3778E-01  0.7200E+02  0.7200E+02
      6.475  0.1519E+00  0.1523E+00  0.7202E+02  0.7202E+02
      6.580  0.1457E+00  0.1453E+00  0.7204E+02  0.7204E+02
      6.685  0.3421E-01  0.3400E-01  0.7204E+02  0.7204E+02
      6.790  0.4770E-02  0.4738E-02  0.7204E+02  0.7204E+02
      6.895  0.8010E-03  0.8051E-03  0.7204E+02  0.7204E+02
      7.000  0.6619E-02  0.6652E-02  0.7204E+02  0.7204E+02
      7.105  0.5270E-01  0.5296E-01  0.7205E+02  0.7205E+02
      7.210  0.3557E+00  0.3571E+00  0.7208E+02  0.7208E+02
      7.315  0.1091E+01  0.1092E+01  0.7220E+02  0.7220E+02
      7.421  0.8215E+00  0.8198E+00  0.7228E+02  0.7228E+02
      7.526  0.2755E+00  0.2747E+00  0.7231E+02  0.7231E+02
      7.631  0.5341E-01  0.5319E-01  0.7232E+02  0.7232E+02
      7.736  0.1509E-01  0.1511E-01  0.7232E+02  0.7232E+02
      7.841  0.8046E-01  0.8075E-01  0.7233E+02  0.7233E+02
      7.946  0.4928E+00  0.4941E+00  0.7238E+02  0.7238E+02
      8.051  0.1110E+01  0.1110E+01  0.7250E+02  0.7250E+02
      8.156  0.5765E+00  0.5755E+00  0.7256E+02  0.7256E+02
      8.261  0.5378E+00  0.5389E+00  0.7262E+02  0.7262E+02
      8.366  0.1124E+01  0.1124E+01  0.7273E+02  0.7273E+02
      8.472  0.6467E+00  0.6455E+00  0.7280E+02  0.7280E+02
      8.577  0.3612E+00  0.3611E+00  0.7284E+02  0.7284E+02
      8.682  0.6762E+00  0.6777E+00  0.7291E+02  0.7291E+02
      8.787  0.2020E+01  0.2022E+01  0.7312E+02  0.7312E+02
      8.892  0.1943E+01  0.1941E+01  0.7333E+02  0.7333E+02
      8.997  0.1537E+01  0.1536E+01  0.7349E+02  0.7349E+02
      9.102  0.1365E+01  0.1365E+01  0.7363E+02  0.7363E+02
      9.207  0.1177E+01  0.1176E+01  0.7376E+02  0.7376E+02
      9.312  0.4637E+00  0.4632E+00  0.7381E+02  0.7381E+02
      9.417  0.7145E+00  0.7168E+00  0.7388E+02  0.7388E+02
      9.523  0.2739E+01  0.2745E+01  0.7417E+02  0.7417E+02
      9.628  0.4428E+01  0.4429E+01  0.7463E+02  0.7464E+02
      9.733  0.3749E+01  0.3747E+01  0.7503E+02  0.7503E+02
      9.838  0.3079E+01  0.3079E+01  0.7535E+02  0.7535E+02
      9.943  0.3821E+01  0.3826E+01  0.7575E+02  0.7576E+02
     10.048  0.5147E+01  0.5151E+01  0.7630E+02  0.7630E+02
     10.153  0.6001E+01  0.6000E+01  0.7693E+02  0.7693E+02
     10.258  0.6490E+01  0.6489E+01  0.7761E+02  0.7761E+02
     10.363  0.5480E+01  0.5477E+01  0.7819E+02  0.7819E+02
     10.468  0.4856E+01  0.4856E+01  0.7870E+02  0.7870E+02
     10.574  0.5728E+01  0.5731E+01  0.7930E+02  0.7930E+02
     10.679  0.8078E+01  0.8083E+01  0.8015E+02  0.8015E+02
     10.784  0.8612E+01  0.8608E+01  0.8106E+02  0.8106E+02
     10.889  0.5581E+01  0.5574E+01  0.8164E+02  0.8164E+02
     10.994  0.4057E+01  0.4055E+01  0.8207E+02  0.8207E+02
     11.099  0.3902E+01  0.3901E+01  0.8248E+02  0.8248E+02
     11.204  0.3859E+01  0.3858E+01  0.8289E+02  0.8289E+02
     11.309  0.2830E+01  0.2831E+01  0.8318E+02  0.8319E+02
     11.414  0.2163E+01  0.2164E+01  0.8341E+02  0.8341E+02
     11.519  0.2473E+01  0.2478E+01  0.8367E+02  0.8367E+02
     11.624  0.4220E+01  0.4229E+01  0.8412E+02  0.8412E+02
     11.730  0.5193E+01  0.5189E+01  0.8466E+02  0.8466E+02
     11.835  0.5445E+01  0.5441E+01  0.8524E+02  0.8524E+02
     11.940  0.5915E+01  0.5915E+01  0.8586E+02  0.8586E+02
     12.045  0.6732E+01  0.6736E+01  0.8657E+02  0.8657E+02
     12.150  0.5268E+01  0.5263E+01  0.8712E+02  0.8712E+02
     12.255  0.3035E+01  0.3036E+01  0.8744E+02  0.8744E+02
     12.360  0.5033E+01  0.5042E+01  0.8797E+02  0.8797E+02
     12.465  0.6834E+01  0.6833E+01  0.8869E+02  0.8869E+02
     12.570  0.5457E+01  0.5451E+01  0.8926E+02  0.8926E+02
     12.675  0.3809E+01  0.3804E+01  0.8966E+02  0.8966E+02
     12.781  0.4268E+01  0.4266E+01  0.9011E+02  0.9011E+02
     12.886  0.5837E+01  0.5838E+01  0.9073E+02  0.9073E+02
     12.991  0.6152E+01  0.6151E+01  0.9137E+02  0.9137E+02
     13.096  0.4131E+01  0.4118E+01  0.9181E+02  0.9181E+02
     13.201  0.2823E+01  0.2803E+01  0.9211E+02  0.9210E+02
     13.306  0.4335E+01  0.4337E+01  0.9256E+02  0.9256E+02
     13.411  0.5976E+01  0.6077E+01  0.9319E+02  0.9320E+02
     13.516  0.6933E+01  0.7066E+01  0.9392E+02  0.9394E+02
     13.621  0.5693E+01  0.5438E+01  0.9452E+02  0.9451E+02
     13.726  0.4414E+01  0.3962E+01  0.9498E+02  0.9493E+02
     13.832  0.4565E+01  0.4395E+01  0.9546E+02  0.9539E+02
     13.937  0.4747E+01  0.4496E+01  0.9596E+02  0.9587E+02
     14.042  0.5677E+01  0.5437E+01  0.9656E+02  0.9644E+02
     14.147  0.5905E+01  0.6498E+01  0.9718E+02  0.9712E+02
     14.252  0.6201E+01  0.7141E+01  0.9783E+02  0.9787E+02
     14.357  0.7729E+01  0.6769E+01  0.9865E+02  0.9859E+02
     14.462  0.6488E+01  0.5728E+01  0.9933E+02  0.9919E+02
     14.567  0.4527E+01  0.4476E+01  0.9981E+02  0.9966E+02
     14.672  0.1550E+01  0.2538E+01  0.9997E+02  0.9993E+02
     14.777  0.2314E+00  0.5922E+00  0.1000E+03  0.9999E+02
     14.883  0.2786E-01  0.7941E-01  0.1000E+03  0.1000E+03
     14.988  0.0000E+00  0.3912E-02  0.1000E+03  0.1000E+03
     15.093  0.0000E+00  0.0000E+00  0.1000E+03  0.1000E+03
     15.198  0.0000E+00  0.0000E+00  0.1000E+03  0.1000E+03
     15.303  0.0000E+00  0.0000E+00  0.1000E+03  0.1000E+03
     15.408  0.0000E+00  0.0000E+00  0.1000E+03  0.1000E+03
     15.513  0.0000E+00  0.0000E+00  0.1000E+03  0.1000E+03
     15.618  0.0000E+00  0.0000E+00  0.1000E+03  0.1000E+03
     15.723  0.0000E+00  0.0000E+00  0.1000E+03  0.1000E+03
     15.828  0.0000E+00  0.0000E+00  0.1000E+03  0.1000E+03
     15.934  0.0000E+00  0.0000E+00  0.1000E+03  0.1000E+03
     16.039  0.0000E+00  0.0000E+00  0.1000E+03  0.1000E+03
     16.03865107    -15.49100338  301      4.58292794      1.00000000
    -15.491  0.0000E+00  0.0000E+00  0.0000E+00  0.0000E+00  0.0000E+00  0.0000E+00  0.0000E+00  0.0000E+00  0.0000E+00  0.0000E+00  0.0000E+00  0.0000E+00  0.0000E+00  0.0000E+00  0.0000E+00  0.0000E+00  0.0000E+00  0.0000E+00
    -15.386  0.0000E+00  0.0000E+00  0.0000E+00  0.0000E+00  0.0000E+00  0.0000E+00  0.0000E+00  0.0000E+00  0.0000E+00  0.0000E+00  0.0000E+00  0.0000E+00  0.0000E+00  0.0000E+00  0.0000E+00  0.0000E+00  0.0000E+00  0.0000E+00
    -15.281  0.0000E+00  0.0000E+00  0.0000E+00  0.0000E+00  0.0000E+00  0.0000E+00  0.0000E+00  0.0000E+00  0.0000E+00  0.0000E+00  0.0000E+00  0.0000E+00  0.0000E+00  0.0000E+00  0.0000E+00  0.0000E+00  0.0000E+00  0.0000E+00
    -15.176  0.0000E+00  0.0000E+00  0.0000E+00  0.0000E+00  0.0000E+00  0.0000E+00  0.0000E+00  0.0000E+00  0.0000E+00  0.0000E+00  0.0000E+00  0.0000E+00  0.0000E+00  0.0000E+00  0.0000E+00  0.0000E+00  0.0000E+00  0.0000E+00
    -15.071  0.0000E+00  0.0000E+00  0.0000E+00  0.0000E+00  0.0000E+00  0.0000E+00  0.0000E+00  0.0000E+00  0.0000E+00  0.0000E+00  0.0000E+00  0.0000E+00  0.0000E+00  0.0000E+00  0.0000E+00  0.0000E+00  0.0000E+00  0.0000E+00
    -14.966  0.0000E+00  0.0000E+00  0.0000E+00  0.0000E+00  0.0000E+00  0.0000E+00  0.0000E+00  0.0000E+00  0.0000E+00  0.0000E+00  0.0000E+00  0.0000E+00  0.0000E+00  0.0000E+00  0.0000E+00  0.0000E+00  0.0000E+00  0.0000E+00
    -14.860  0.0000E+00  0.0000E+00  0.0000E+00  0.0000E+00  0.0000E+00  0.0000E+00  0.0000E+00  0.0000E+00  0.0000E+00  0.0000E+00  0.0000E+00  0.0000E+00  0.0000E+00  0.0000E+00  0.0000E+00  0.0000E+00  0.0000E+00  0.0000E+00
    -14.755  0.0000E+00  0.0000E+00  0.0000E+00  0.0000E+00  0.0000E+00  0.0000E+00  0.0000E+00  0.0000E+00  0.0000E+00  0.0000E+00  0.0000E+00  0.0000E+00  0.0000E+00  0.0000E+00  0.0000E+00  0.0000E+00  0.0000E+00  0.0000E+00
    -14.650  0.0000E+00  0.0000E+00  0.0000E+00  0.0000E+00  0.0000E+00  0.0000E+00  0.0000E+00  0.0000E+00  0.0000E+00  0.0000E+00  0.0000E+00  0.0000E+00  0.0000E+00  0.0000E+00  0.0000E+00  0.0000E+00  0.0000E+00  0.0000E+00
    -14.545  0.7858E-07  0.7820E-07  0.8367E-17  0.6686E-17  0.5244E-09  0.5220E-09  0.8367E-17  0.6686E-17  0.0000E+00  0.0000E+00  0.0000E+00  0.0000E+00  0.0000E+00  0.0000E+00  0.0000E+00  0.0000E+00  0.0000E+00  0.0000E+00
    -14.440  0.8949E-06  0.8906E-06  0.6337E-08  0.6305E-08  0.6317E-08  0.6287E-08  0.6337E-08  0.6305E-08  0.0000E+00  0.0000E+00  0.0000E+00  0.0000E+00  0.0000E+00  0.0000E+00  0.0000E+00  0.0000E+00  0.0000E+00  0.0000E+00
    -14.335  0.7195E-05  0.7160E-05  0.4550E-07  0.4527E-07  0.5981E-07  0.5952E-07  0.4550E-07  0.4527E-07  0.0000E+00  0.0000E+00  0.0000E+00  0.0000E+00  0.0000E+00  0.0000E+00  0.0000E+00  0.0000E+00  0.0000E+00  0.0000E+00
    -14.230  0.5852E-04  0.5824E-04  0.3922E-06  0.3902E-06  0.5238E-06  0.5213E-06  0.3922E-06  0.3902E-06  0.0000E+00  0.0000E+00  0.0000E+00  0.0000E+00  0.0000E+00  0.0000E+00  0.0000E+00  0.0000E+00  0.0000E+00  0.0000E+00
    -14.125  0.4148E-03  0.4130E-03  0.3244E-05  0.3228E-05  0.3817E-05  0.3801E-05  0.3244E-05  0.3228E-05  0.0000E+00  0.0000E+00  0.0000E+00  0.0000E+00  0.0000E+00  0.0000E+00  0.0000E+00  0.0000E+00  0.0000E+00  0.0000E+00
    -14.020  0.1870E-02  0.1865E-02  0.2256E-04  0.2247E-04  0.2051E-04  0.2044E-04  0.2256E-04  0.2247E-04  0.0000E+00  0.0000E+00  0.0000E+00  0.0000E+00  0.0000E+00  0.0000E+00  0.0000E+00  0.0000E+00  0.0000E+00  0.0000E+00
    -13.915  0.4757E-02  0.4751E-02  0.8212E-04  0.8196E-04  0.7552E-04  0.7533E-04  0.8212E-04  0.8196E-04  0.0000E+00  0.0000E+00  0.0000E+00  0.0000E+00  0.0000E+00  0.0000E+00  0.0000E+00  0.0000E+00  0.0000E+00  0.0000E+00
    -13.809  0.6090E-02  0.6088E-02  0.1501E-03  0.1498E-03  0.1748E-03  0.1745E-03  0.1501E-03  0.1498E-03  0.0000E+00  0.0000E+00  0.0000E+00  0.0000E+00  0.0000E+00  0.0000E+00  0.0000E+00  0.0000E+00  0.0000E+00  0.0000E+00
    -13.704  0.7695E-02  0.7691E-02  0.3397E-03  0.3390E-03  0.2662E-03  0.2660E-03  0.3397E-03  0.3390E-03  0.0000E+00  0.0000E+00  0.0000E+00  0.0000E+00  0.0000E+00  0.0000E+00  0.0000E+00  0.0000E+00  0.0000E+00  0.0000E+00
    -13.599  0.9453E-02  0.9448E-02  0.5823E-03  0.5816E-03  0.4523E-03  0.4513E-03  0.5823E-03  0.5816E-03  0.0000E+00  0.0000E+00  0.0000E+00  0.0000E+00  0.0000E+00  0.0000E+00  0.0000E+00  0.0000E+00  0.0000E+00  0.0000E+00
    -13.494  0.1045E-01  0.1045E-01  0.6968E-03  0.6966E-03  0.7893E-03  0.7888E-03  0.6968E-03  0.6966E-03  0.0000E+00  0.0000E+00  0.0000E+00  0.0000E+00  0.0000E+00  0.0000E+00  0.0000E+00  0.0000E+00  0.0000E+00  0.0000E+00
    -13.389  0.9463E-02  0.9460E-02  0.9660E-03  0.9640E-03  0.8531E-03  0.8525E-03  0.9660E-03  0.9640E-03  0.0000E+00  0.0000E+00  0.0000E+00  0.0000E+00  0.0000E+00  0.0000E+00  0.0000E+00  0.0000E+00  0.0000E+00  0.0000E+00
    -13.284  0.1248E-01  0.1248E-01  0.1718E-02  0.1717E-02  0.1330E-02  0.1328E-02  0.1718E-02  0.1717E-02  0.0000E+00  0.0000E+00  0.0000E+00  0.0000E+00  0.0000E+00  0.0000E+00  0.0000E+00  0.0000E+00  0.0000E+00  0.0000E+00
    -13.179  0.1094E-01  0.1096E-01  0.1683E-02  0.1684E-02  0.1805E-02  0.1804E-02  0.1683E-02  0.1684E-02  0.0000E+00  0.0000E+00  0.0000E+00  0.0000E+00  0.0000E+00  0.0000E+00  0.0000E+00  0.0000E+00  0.0000E+00  0.0000E+00
    -13.074  0.7833E-02  0.7840E-02  0.1641E-02  0.1640E-02  0.1889E-02  0.1889E-02  0.1641E-02  0.1640E-02  0.0000E+00  0.0000E+00  0.0000E+00  0.0000E+00  0.0000E+00  0.0000E+00  0.0000E+00  0.0000E+00  0.0000E+00  0.0000E+00
    -12.969  0.6193E-02  0.6196E-02  0.2063E-02  0.2061E-02  0.2134E-02  0.2132E-02  0.2063E-02  0.2061E-02  0.0000E+00  0.0000E+00  0.0000E+00  0.0000E+00  0.0000E+00  0.0000E+00  0.0000E+00  0.0000E+00  0.0000E+00  0.0000E+00
    -12.864  0.6269E-02  0.6268E-02  0.2950E-02  0.2945E-02  0.3040E-02  0.3038E-02  0.2950E-02  0.2945E-02  0.0000E+00  0.0000E+00  0.0000E+00  0.0000E+00  0.0000E+00  0.0000E+00  0.0000E+00  0.0000E+00  0.0000E+00  0.0000E+00
    -12.758  0.6341E-02  0.6341E-02  0.4607E-02  0.4598E-02  0.3499E-02  0.3497E-02  0.4607E-02  0.4598E-02  0.0000E+00  0.0000E+00  0.0000E+00  0.0000E+00  0.0000E+00  0.0000E+00  0.0000E+00  0.0000E+00  0.0000E+00  0.0000E+00
    -12.653  0.6367E-02  0.6367E-02  0.6909E-02  0.6903E-02  0.4176E-02  0.4174E-02  0.6909E-02  0.6903E-02  0.0000E+00  0.0000E+00  0.0000E+00  0.0000E+00  0.0000E+00  0.0000E+00  0.0000E+00  0.0000E+00  0.0000E+00  0.0000E+00
    -12.548  0.6223E-02  0.6222E-02  0.7046E-02  0.7049E-02  0.4412E-02  0.4410E-02  0.7046E-02  0.7049E-02  0.0000E+00  0.0000E+00  0.0000E+00  0.0000E+00  0.0000E+00  0.0000E+00  0.0000E+00  0.0000E+00  0.0000E+00  0.0000E+00
    -12.443  0.6279E-02  0.6281E-02  0.5722E-02  0.5728E-02  0.4836E-02  0.4837E-02  0.5722E-02  0.5728E-02  0.0000E+00  0.0000E+00  0.0000E+00  0.0000E+00  0.0000E+00  0.0000E+00  0.0000E+00  0.0000E+00  0.0000E+00  0.0000E+00
    -12.338  0.4668E-02  0.4676E-02  0.3945E-02  0.3953E-02  0.4048E-02  0.4053E-02  0.3945E-02  0.3953E-02  0.0000E+00  0.0000E+00  0.0000E+00  0.0000E+00  0.0000E+00  0.0000E+00  0.0000E+00  0.0000E+00  0.0000E+00  0.0000E+00
    -12.233  0.2247E-02  0.2257E-02  0.1857E-02  0.1866E-02  0.2008E-02  0.2017E-02  0.1857E-02  0.1866E-02  0.0000E+00  0.0000E+00  0.0000E+00  0.0000E+00  0.0000E+00  0.0000E+00  0.0000E+00  0.0000E+00  0.0000E+00  0.0000E+00
    -12.128  0.4930E-03  0.4966E-03  0.3940E-03  0.3970E-03  0.4263E-03  0.4295E-03  0.3940E-03  0.3970E-03  0.0000E+00  0.0000E+00  0.0000E+00  0.0000E+00  0.0000E+00  0.0000E+00  0.0000E+00  0.0000E+00  0.0000E+00  0.0000E+00
    -12.023  0.6338E-04  0.6390E-04  0.5047E-04  0.5089E-04  0.5434E-04  0.5479E-04  0.5047E-04  0.5089E-04  0.0000E+00  0.0000E+00  0.0000E+00  0.0000E+00  0.0000E+00  0.0000E+00  0.0000E+00  0.0000E+00  0.0000E+00  0.0000E+00
    -11.918  0.2976E-05  0.3001E-05  0.1844E-05  0.1859E-05  0.1848E-05  0.1864E-05  0.1844E-05  0.1859E-05  0.0000E+00  0.0000E+00  0.0000E+00  0.0000E+00  0.0000E+00  0.0000E+00  0.0000E+00  0.0000E+00  0.0000E+00  0.0000E+00
    -11.813  0.0000E+00  0.0000E+00  0.0000E+00  0.0000E+00  0.0000E+00  0.0000E+00  0.0000E+00  0.0000E+00  0.0000E+00  0.0000E+00  0.0000E+00  0.0000E+00  0.0000E+00  0.0000E+00  0.0000E+00  0.0000E+00  0.0000E+00  0.0000E+00
    -11.707  0.0000E+00  0.0000E+00  0.0000E+00  0.0000E+00  0.0000E+00  0.0000E+00  0.0000E+00  0.0000E+00  0.0000E+00  0.0000E+00  0.0000E+00  0.0000E+00  0.0000E+00  0.0000E+00  0.0000E+00  0.0000E+00  0.0000E+00  0.0000E+00
    -11.602  0.0000E+00  0.0000E+00  0.0000E+00  0.0000E+00  0.0000E+00  0.0000E+00  0.0000E+00  0.0000E+00  0.0000E+00  0.0000E+00  0.0000E+00  0.0000E+00  0.0000E+00  0.0000E+00  0.0000E+00  0.0000E+00  0.0000E+00  0.0000E+00
    -11.497  0.0000E+00  0.0000E+00  0.0000E+00  0.0000E+00  0.0000E+00  0.0000E+00  0.0000E+00  0.0000E+00  0.0000E+00  0.0000E+00  0.0000E+00  0.0000E+00  0.0000E+00  0.0000E+00  0.0000E+00  0.0000E+00  0.0000E+00  0.0000E+00
    -11.392  0.0000E+00  0.0000E+00  0.0000E+00  0.0000E+00  0.0000E+00  0.0000E+00  0.0000E+00  0.0000E+00  0.0000E+00  0.0000E+00  0.0000E+00  0.0000E+00  0.0000E+00  0.0000E+00  0.0000E+00  0.0000E+00  0.0000E+00  0.0000E+00
    -11.287  0.0000E+00  0.0000E+00  0.0000E+00  0.0000E+00  0.0000E+00  0.0000E+00  0.0000E+00  0.0000E+00  0.0000E+00  0.0000E+00  0.0000E+00  0.0000E+00  0.0000E+00  0.0000E+00  0.0000E+00  0.0000E+00  0.0000E+00  0.0000E+00
    -11.182  0.0000E+00  0.0000E+00  0.0000E+00  0.0000E+00  0.0000E+00  0.0000E+00  0.0000E+00  0.0000E+00  0.0000E+00  0.0000E+00  0.0000E+00  0.0000E+00  0.0000E+00  0.0000E+00  0.0000E+00  0.0000E+00  0.0000E+00  0.0000E+00
    -11.077  0.0000E+00  0.0000E+00  0.0000E+00  0.0000E+00  0.0000E+00  0.0000E+00  0.0000E+00  0.0000E+00  0.0000E+00  0.0000E+00  0.0000E+00  0.0000E+00  0.0000E+00  0.0000E+00  0.0000E+00  0.0000E+00  0.0000E+00  0.0000E+00
    -10.972  0.0000E+00  0.0000E+00  0.0000E+00  0.0000E+00  0.0000E+00  0.0000E+00  0.0000E+00  0.0000E+00  0.0000E+00  0.0000E+00  0.0000E+00  0.0000E+00  0.0000E+00  0.0000E+00  0.0000E+00  0.0000E+00  0.0000E+00  0.0000E+00
    -10.867  0.0000E+00  0.0000E+00  0.0000E+00  0.0000E+00  0.0000E+00  0.0000E+00  0.0000E+00  0.0000E+00  0.0000E+00  0.0000E+00  0.0000E+00  0.0000E+00  0.0000E+00  0.0000E+00  0.0000E+00  0.0000E+00  0.0000E+00  0.0000E+00
    -10.762  0.0000E+00  0.0000E+00  0.0000E+00  0.0000E+00  0.0000E+00  0.0000E+00  0.0000E+00  0.0000E+00  0.0000E+00  0.0000E+00  0.0000E+00  0.0000E+00  0.0000E+00  0.0000E+00  0.0000E+00  0.0000E+00  0.0000E+00  0.0000E+00
    -10.656  0.0000E+00  0.0000E+00  0.0000E+00  0.0000E+00  0.0000E+00  0.0000E+00  0.0000E+00  0.0000E+00  0.0000E+00  0.0000E+00  0.0000E+00  0.0000E+00  0.0000E+00  0.0000E+00  0.0000E+00  0.0000E+00  0.0000E+00  0.0000E+00
    -10.551  0.0000E+00  0.0000E+00  0.0000E+00  0.0000E+00  0.0000E+00  0.0000E+00  0.0000E+00  0.0000E+00  0.0000E+00  0.0000E+00  0.0000E+00  0.0000E+00  0.0000E+00  0.0000E+00  0.0000E+00  0.0000E+00  0.0000E+00  0.0000E+00
    -10.446  0.0000E+00  0.0000E+00  0.0000E+00  0.0000E+00  0.0000E+00  0.0000E+00  0.0000E+00  0.0000E+00  0.0000E+00  0.0000E+00  0.0000E+00  0.0000E+00  0.0000E+00  0.0000E+00  0.0000E+00  0.0000E+00  0.0000E+00  0.0000E+00
    -10.341  0.0000E+00  0.0000E+00  0.0000E+00  0.0000E+00  0.0000E+00  0.0000E+00  0.0000E+00  0.0000E+00  0.0000E+00  0.0000E+00  0.0000E+00  0.0000E+00  0.0000E+00  0.0000E+00  0.0000E+00  0.0000E+00  0.0000E+00  0.0000E+00
    -10.236  0.0000E+00  0.0000E+00  0.0000E+00  0.0000E+00  0.0000E+00  0.0000E+00  0.0000E+00  0.0000E+00  0.0000E+00  0.0000E+00  0.0000E+00  0.0000E+00  0.0000E+00  0.0000E+00  0.0000E+00  0.0000E+00  0.0000E+00  0.0000E+00