  30  30   1   0
  0.6807294E+01  0.4420626E-09  0.4420626E-09  0.1206695E-08  0.5000000E-15
  1.000000000000000E-004
  CAR 
 unknown system                          
     27.13896421    -14.05461957  301      9.97550734      1.00000000
    -14.055  0.0000E+00  0.0000E+00  0.0000E+00  0.0000E+00
    -13.917  0.0000E+00  0.0000E+00  0.0000E+00  0.0000E+00
    -13.780  0.0000E+00  0.0000E+00  0.0000E+00  0.0000E+00
    -13.643  0.0000E+00  0.0000E+00  0.0000E+00  0.0000E+00
    -13.505  0.0000E+00  0.0000E+00  0.0000E+00  0.0000E+00
    -13.368  0.0000E+00  0.0000E+00  0.0000E+00  0.0000E+00
    -13.231  0.0000E+00  0.0000E+00  0.0000E+00  0.0000E+00
    -13.093  0.0000E+00  0.0000E+00  0.0000E+00  0.0000E+00
    -12.956  0.0000E+00  0.0000E+00  0.0000E+00  0.0000E+00
    -12.819  0.0000E+00  0.0000E+00  0.0000E+00  0.0000E+00
    -12.682  0.1335E-04  0.1341E-04  0.1833E-05  0.1841E-05
    -12.544  0.1945E-03  0.1954E-03  0.2854E-04  0.2867E-04
    -12.407  0.3136E-02  0.3150E-02  0.4592E-03  0.4612E-03
    -12.270  0.4194E-01  0.4211E-01  0.6219E-02  0.6243E-02
    -12.132  0.2017E+00  0.2020E+00  0.3392E-01  0.3397E-01
    -11.995  0.4612E+00  0.4624E+00  0.9724E-01  0.9747E-01
    -11.858  0.1195E+01  0.1195E+01  0.2613E+00  0.2616E+00
    -11.720  0.6337E+00  0.6334E+00  0.3484E+00  0.3486E+00
    -11.583  0.1178E+01  0.1179E+01  0.5101E+00  0.5105E+00
    -11.446  0.1388E+01  0.1388E+01  0.7010E+00  0.7014E+00
    -11.308  0.1227E+01  0.1227E+01  0.8695E+00  0.8699E+00
    -11.171  0.2281E+01  0.2284E+01  0.1183E+01  0.1184E+01
    -11.034  0.2323E+01  0.2323E+01  0.1503E+01  0.1504E+01
    -10.896  0.1808E+01  0.1805E+01  0.1751E+01  0.1751E+01
    -10.759  0.8610E+00  0.8624E+00  0.1870E+01  0.1871E+01
    -10.622  0.3222E+01  0.3230E+01  0.2314E+01  0.2315E+01
    -10.485  0.3888E+01  0.3885E+01  0.2848E+01  0.2849E+01
    -10.347  0.3393E+01  0.3394E+01  0.3314E+01  0.3315E+01
    -10.210  0.2677E+01  0.2673E+01  0.3683E+01  0.3684E+01
    -10.073  0.1969E+01  0.1972E+01  0.3954E+01  0.3955E+01
     -9.935  0.2762E+01  0.2760E+01  0.4334E+01  0.4335E+01
     -9.798  0.2099E+01  0.2100E+01  0.4623E+01  0.4624E+01
     -9.661  0.2618E+01  0.2622E+01  0.4982E+01  0.4984E+01
     -9.523  0.4183E+01  0.4187E+01  0.5557E+01  0.5559E+01
     -9.386  0.3731E+01  0.3727E+01  0.6070E+01  0.6071E+01
     -9.249  0.3970E+01  0.3976E+01  0.6615E+01  0.6618E+01
     -9.111  0.4940E+01  0.4946E+01  0.7296E+01  0.7299E+01
     -8.974  0.7469E+01  0.7480E+01  0.8322E+01  0.8327E+01
     -8.837  0.8178E+01  0.8175E+01  0.9447E+01  0.9451E+01
     -8.699  0.6654E+01  0.6654E+01  0.1036E+02  0.1037E+02
     -8.562  0.8177E+01  0.8191E+01  0.1149E+02  0.1149E+02
     -8.425  0.1116E+02  0.1116E+02  0.1302E+02  0.1303E+02
     -8.288  0.8866E+01  0.8861E+01  0.1424E+02  0.1425E+02
     -8.150  0.1019E+02  0.1020E+02  0.1564E+02  0.1565E+02
     -8.013  0.1097E+02  0.1096E+02  0.1715E+02  0.1716E+02
     -7.876  0.5512E+01  0.5471E+01  0.1791E+02  0.1791E+02
     -7.738  0.6076E+00  0.5998E+00  0.1799E+02  0.1799E+02
     -7.601  0.8996E-02  0.8874E-02  0.1800E+02  0.1800E+02
     -7.464  0.0000E+00  0.0000E+00  0.1800E+02  0.1800E+02
     -7.326  0.0000E+00  0.0000E+00  0.1800E+02  0.1800E+02
     -7.189  0.0000E+00  0.0000E+00  0.1800E+02  0.1800E+02
     -7.052  0.0000E+00  0.0000E+00  0.1800E+02  0.1800E+02
     -6.914  0.0000E+00  0.0000E+00  0.1800E+02  0.1800E+02
     -6.777  0.0000E+00  0.0000E+00  0.1800E+02  0.1800E+02
     -6.640  0.0000E+00  0.0000E+00  0.1800E+02  0.1800E+02
     -6.502  0.0000E+00  0.0000E+00  0.1800E+02  0.1800E+02
     -6.365  0.0000E+00  0.0000E+00  0.1800E+02  0.1800E+02
     -6.228  0.0000E+00  0.0000E+00  0.1800E+02  0.1800E+02
     -6.091  0.0000E+00  0.0000E+00  0.1800E+02  0.1800E+02
     -5.953  0.0000E+00  0.0000E+00  0.1800E+02  0.1800E+02
     -5.816  0.0000E+00  0.0000E+00  0.1800E+02  0.1800E+02
     -5.679  0.0000E+00  0.0000E+00  0.1800E+02  0.1800E+02
     -5.541  0.0000E+00  0.0000E+00  0.1800E+02  0.1800E+02
     -5.404  0.0000E+00  0.0000E+00  0.1800E+02  0.1800E+02
     -5.267  0.0000E+00  0.0000E+00  0.1800E+02  0.1800E+02
     -5.129  0.0000E+00  0.0000E+00  0.1800E+02  0.1800E+02
     -4.992  0.0000E+00  0.0000E+00  0.1800E+02  0.1800E+02
     -4.855  0.0000E+00  0.0000E+00  0.1800E+02  0.1800E+02
     -4.717  0.0000E+00  0.0000E+00  0.1800E+02  0.1800E+02
     -4.580  0.0000E+00  0.0000E+00  0.1800E+02  0.1800E+02
     -4.443  0.0000E+00  0.0000E+00  0.1800E+02  0.1800E+02
     -4.305  0.0000E+00  0.0000E+00  0.1800E+02  0.1800E+02
     -4.168  0.0000E+00  0.0000E+00  0.1800E+02  0.1800E+02
     -4.031  0.0000E+00  0.0000E+00  0.1800E+02  0.1800E+02
     -3.894  0.0000E+00  0.0000E+00  0.1800E+02  0.1800E+02
     -3.756  0.0000E+00  0.0000E+00  0.1800E+02  0.1800E+02
     -3.619  0.0000E+00  0.0000E+00  0.1800E+02  0.1800E+02
     -3.482  0.0000E+00  0.0000E+00  0.1800E+02  0.1800E+02
     -3.344  0.0000E+00  0.0000E+00  0.1800E+02  0.1800E+02
     -3.207  0.0000E+00  0.0000E+00  0.1800E+02  0.1800E+02
     -3.070  0.0000E+00  0.0000E+00  0.1800E+02  0.1800E+02
     -2.932  0.0000E+00  0.0000E+00  0.1800E+02  0.1800E+02
     -2.795  0.0000E+00  0.0000E+00  0.1800E+02  0.1800E+02
     -2.658  0.0000E+00  0.0000E+00  0.1800E+02  0.1800E+02
     -2.520  0.0000E+00  0.0000E+00  0.1800E+02  0.1800E+02
     -2.383  0.0000E+00  0.0000E+00  0.1800E+02  0.1800E+02
     -2.246  0.0000E+00  0.0000E+00  0.1800E+02  0.1800E+02
     -2.108  0.0000E+00  0.0000E+00  0.1800E+02  0.1800E+02
     -1.971  0.0000E+00  0.0000E+00  0.1800E+02  0.1800E+02
     -1.834  0.0000E+00  0.0000E+00  0.1800E+02  0.1800E+02
     -1.697  0.0000E+00  0.0000E+00  0.1800E+02  0.1800E+02
     -1.559  0.0000E+00  0.0000E+00  0.1800E+02  0.1800E+02
     -1.422  0.0000E+00  0.0000E+00  0.1800E+02  0.1800E+02
     -1.285  0.0000E+00  0.0000E+00  0.1800E+02  0.1800E+02
     -1.147  0.0000E+00  0.0000E+00  0.1800E+02  0.1800E+02
     -1.010  0.0000E+00  0.0000E+00  0.1800E+02  0.1800E+02
     -0.873  0.0000E+00  0.0000E+00  0.1800E+02  0.1800E+02
     -0.735  0.0000E+00  0.0000E+00  0.1800E+02  0.1800E+02
     -0.598  0.0000E+00  0.0000E+00  0.1800E+02  0.1800E+02
     -0.461  0.0000E+00  0.0000E+00  0.1800E+02  0.1800E+02
     -0.323  0.0000E+00  0.0000E+00  0.1800E+02  0.1800E+02
     -0.186  0.0000E+00  0.0000E+00  0.1800E+02  0.1800E+02
     -0.049  0.0000E+00  0.0000E+00  0.1800E+02  0.1800E+02
      0.089  0.0000E+00  0.0000E+00  0.1800E+02  0.1800E+02
      0.226  0.0000E+00  0.0000E+00  0.1800E+02  0.1800E+02
      0.363  0.2445E-04  0.2443E-04  0.1800E+02  0.1800E+02
      0.500  0.4692E-03  0.4689E-03  0.1800E+02  0.1800E+02
      0.638  0.7400E-02  0.7396E-02  0.1800E+02  0.1800E+02
      0.775  0.9445E-01  0.9441E-01  0.1801E+02  0.1801E+02
      0.912  0.5530E+00  0.5528E+00  0.1809E+02  0.1809E+02
      1.050  0.1632E+01  0.1632E+01  0.1831E+02  0.1831E+02
      1.187  0.1821E+01  0.1821E+01  0.1856E+02  0.1856E+02
      1.324  0.2693E+01  0.2693E+01  0.1893E+02  0.1893E+02
      1.462  0.4189E+01  0.4189E+01  0.1951E+02  0.1951E+02
      1.599  0.6460E+01  0.6461E+01  0.2040E+02  0.2040E+02
      1.736  0.5705E+01  0.5705E+01  0.2118E+02  0.2118E+02
      1.874  0.6207E+01  0.6208E+01  0.2204E+02  0.2204E+02
      2.011  0.7430E+01  0.7431E+01  0.2306E+02  0.2306E+02
      2.148  0.7433E+01  0.7434E+01  0.2408E+02  0.2408E+02
      2.286  0.5942E+01  0.5941E+01  0.2490E+02  0.2490E+02
      2.423  0.3864E+01  0.3864E+01  0.2543E+02  0.2543E+02
      2.560  0.4733E+01  0.4732E+01  0.2608E+02  0.2608E+02
      2.697  0.5255E+01  0.5256E+01  0.2680E+02  0.2680E+02
      2.835  0.6298E+01  0.6298E+01  0.2767E+02  0.2767E+02
      2.972  0.8063E+01  0.8064E+01  0.2878E+02  0.2878E+02
      3.109  0.6608E+01  0.6608E+01  0.2969E+02  0.2969E+02
      3.247  0.4600E+01  0.4600E+01  0.3032E+02  0.3032E+02
      3.384  0.4348E+01  0.4348E+01  0.3092E+02  0.3092E+02
      3.521  0.4760E+01  0.4760E+01  0.3158E+02  0.3158E+02
      3.659  0.3607E+01  0.3607E+01  0.3207E+02  0.3207E+02
      3.796  0.6177E+01  0.6180E+01  0.3292E+02  0.3292E+02
      3.933  0.7779E+01  0.7780E+01  0.3399E+02  0.3399E+02
      4.071  0.6390E+01  0.6390E+01  0.3487E+02  0.3487E+02
      4.208  0.5051E+01  0.5050E+01  0.3556E+02  0.3556E+02
      4.345  0.3985E+01  0.3983E+01  0.3611E+02  0.3611E+02
      4.482  0.3473E+01  0.3474E+01  0.3659E+02  0.3659E+02
      4.620  0.3654E+01  0.3654E+01  0.3709E+02  0.3709E+02
      4.757  0.5766E+01  0.5772E+01  0.3789E+02  0.3789E+02
      4.894  0.6421E+01  0.6420E+01  0.3877E+02  0.3877E+02
      5.032  0.4786E+01  0.4783E+01  0.3943E+02  0.3943E+02
      5.169  0.3341E+01  0.3342E+01  0.3989E+02  0.3989E+02
      5.306  0.3568E+01  0.3567E+01  0.4038E+02  0.4038E+02
      5.444  0.3226E+01  0.3228E+01  0.4082E+02  0.4082E+02
      5.581  0.5171E+01  0.5175E+01  0.4153E+02  0.4154E+02
      5.718  0.6041E+01  0.6043E+01  0.4236E+02  0.4237E+02
      5.856  0.7394E+01  0.7400E+01  0.4338E+02  0.4338E+02
      5.993  0.9439E+01  0.9448E+01  0.4468E+02  0.4468E+02
      6.130  0.1052E+02  0.1052E+02  0.4612E+02  0.4613E+02
      6.268  0.7517E+01  0.7509E+01  0.4716E+02  0.4716E+02
      6.405  0.7341E+01  0.7348E+01  0.4817E+02  0.4817E+02
      6.542  0.8191E+01  0.8189E+01  0.4930E+02  0.4930E+02
      6.679  0.9083E+01  0.9094E+01  0.5055E+02  0.5055E+02
      6.817  0.1095E+02  0.1095E+02  0.5205E+02  0.5206E+02
      6.954  0.8579E+01  0.8575E+01  0.5323E+02  0.5324E+02
      7.091  0.9900E+01  0.9916E+01  0.5459E+02  0.5460E+02
      7.229  0.1378E+02  0.1380E+02  0.5649E+02  0.5650E+02
      7.366  0.1323E+02  0.1323E+02  0.5831E+02  0.5832E+02
      7.503  0.1260E+02  0.1260E+02  0.6004E+02  0.6005E+02
      7.641  0.1000E+02  0.9994E+01  0.6142E+02  0.6142E+02
      7.778  0.8847E+01  0.8853E+01  0.6264E+02  0.6264E+02
      7.915  0.1112E+02  0.1113E+02  0.6417E+02  0.6418E+02
      8.053  0.9909E+01  0.9904E+01  0.6553E+02  0.6554E+02
      8.190  0.9146E+01  0.9139E+01  0.6679E+02  0.6679E+02
      8.327  0.7974E+01  0.7983E+01  0.6789E+02  0.6789E+02
      8.465  0.1052E+02  0.1054E+02  0.6934E+02  0.6934E+02
      8.602  0.9740E+01  0.9721E+01  0.7067E+02  0.7068E+02
      8.739  0.5417E+01  0.5399E+01  0.7142E+02  0.7142E+02
      8.876  0.3352E+01  0.3338E+01  0.7188E+02  0.7188E+02
      9.014  0.7715E+00  0.7629E+00  0.7199E+02  0.7199E+02
      9.151  0.5976E-01  0.5891E-01  0.7200E+02  0.7200E+02
      9.288  0.0000E+00  0.0000E+00  0.7200E+02  0.7200E+02
      9.426  0.0000E+00  0.0000E+00  0.7200E+02  0.7200E+02
      9.563  0.0000E+00  0.0000E+00  0.7200E+02  0.7200E+02
      9.700  0.0000E+00  0.0000E+00  0.7200E+02  0.7200E+02
      9.838  0.0000E+00  0.0000E+00  0.7200E+02  0.7200E+02
      9.975  0.0000E+00  0.0000E+00  0.7200E+02  0.7200E+02
     10.112  0.0000E+00  0.0000E+00  0.7200E+02  0.7200E+02
     10.250  0.0000E+00  0.0000E+00  0.7200E+02  0.7200E+02
     10.387  0.0000E+00  0.0000E+00  0.7200E+02  0.7200E+02
     10.524  0.0000E+00  0.0000E+00  0.7200E+02  0.7200E+02
     10.662  0.0000E+00  0.0000E+00  0.7200E+02  0.7200E+02
     10.799  0.0000E+00  0.0000E+00  0.7200E+02  0.7200E+02
     10.936  0.0000E+00  0.0000E+00  0.7200E+02  0.7200E+02
     11.073  0.0000E+00  0.0000E+00  0.7200E+02  0.7200E+02
     11.211  0.0000E+00  0.0000E+00  0.7200E+02  0.7200E+02
     11.348  0.0000E+00  0.0000E+00  0.7200E+02  0.7200E+02
     11.485  0.0000E+00  0.0000E+00  0.7200E+02  0.7200E+02
     11.623  0.0000E+00  0.0000E+00  0.7200E+02  0.7200E+02
     11.760  0.0000E+00  0.0000E+00  0.7200E+02  0.7200E+02
     11.897  0.0000E+00  0.0000E+00  0.7200E+02  0.7200E+02
     12.035  0.0000E+00  0.0000E+00  0.7200E+02  0.7200E+02
     12.172  0.0000E+00  0.0000E+00  0.7200E+02  0.7200E+02
     12.309  0.0000E+00  0.0000E+00  0.7200E+02  0.7200E+02
     12.447  0.0000E+00  0.0000E+00  0.7200E+02  0.7200E+02
     12.584  0.0000E+00  0.0000E+00  0.7200E+02  0.7200E+02
     12.721  0.0000E+00  0.0000E+00  0.7200E+02  0.7200E+02
     12.859  0.0000E+00  0.0000E+00  0.7200E+02  0.7200E+02
     12.996  0.0000E+00  0.0000E+00  0.7200E+02  0.7200E+02
     13.133  0.0000E+00  0.0000E+00  0.7200E+02  0.7200E+02
     13.270  0.0000E+00  0.0000E+00  0.7200E+02  0.7200E+02
     13.408  0.0000E+00  0.0000E+00  0.7200E+02  0.7200E+02
     13.545  0.0000E+00  0.0000E+00  0.7200E+02  0.7200E+02
     13.682  0.0000E+00  0.0000E+00  0.7200E+02  0.7200E+02
     13.820  0.0000E+00  0.0000E+00  0.7200E+02  0.7200E+02
     13.957  0.0000E+00  0.0000E+00  0.7200E+02  0.7200E+02
     14.094  0.0000E+00  0.0000E+00  0.7200E+02  0.7200E+02
     14.232  0.0000E+00  0.0000E+00  0.7200E+02  0.7200E+02
     14.369  0.0000E+00  0.0000E+00  0.7200E+02  0.7200E+02
     14.506  0.0000E+00  0.0000E+00  0.7200E+02  0.7200E+02
     14.644  0.0000E+00  0.0000E+00  0.7200E+02  0.7200E+02
     14.781  0.0000E+00  0.0000E+00  0.7200E+02  0.7200E+02
     14.918  0.0000E+00  0.0000E+00  0.7200E+02  0.7200E+02
     15.056  0.0000E+00  0.0000E+00  0.7200E+02  0.7200E+02
     15.193  0.0000E+00  0.0000E+00  0.7200E+02  0.7200E+02
     15.330  0.0000E+00  0.0000E+00  0.7200E+02  0.7200E+02
     15.467  0.0000E+00  0.0000E+00  0.7200E+02  0.7200E+02
     15.605  0.0000E+00  0.0000E+00  0.7200E+02  0.7200E+02
     15.742  0.0000E+00  0.0000E+00  0.7200E+02  0.7200E+02
     15.879  0.0000E+00  0.0000E+00  0.7200E+02  0.7200E+02
     16.017  0.0000E+00  0.0000E+00  0.7200E+02  0.7200E+02
     16.154  0.0000E+00  0.0000E+00  0.7200E+02  0.7200E+02
     16.291  0.0000E+00  0.0000E+00  0.7200E+02  0.7200E+02
     16.429  0.0000E+00  0.0000E+00  0.7200E+02  0.7200E+02
     16.566  0.0000E+00  0.0000E+00  0.7200E+02  0.7200E+02
     16.703  0.0000E+00  0.0000E+00  0.7200E+02  0.7200E+02
     16.841  0.0000E+00  0.0000E+00  0.7200E+02  0.7200E+02
     16.978  0.0000E+00  0.0000E+00  0.7200E+02  0.7200E+02
     17.115  0.0000E+00  0.0000E+00  0.7200E+02  0.7200E+02
     17.253  0.0000E+00  0.0000E+00  0.7200E+02  0.7200E+02
     17.390  0.0000E+00  0.0000E+00  0.7200E+02  0.7200E+02
     17.527  0.0000E+00  0.0000E+00  0.7200E+02  0.7200E+02
     17.664  0.0000E+00  0.0000E+00  0.7200E+02  0.7200E+02
     17.802  0.7224E-04  0.7091E-04  0.7200E+02  0.7200E+02
     17.939  0.1049E-02  0.1030E-02  0.7200E+02  0.7200E+02
     18.076  0.1543E-01  0.1516E-01  0.7200E+02  0.7200E+02
     18.214  0.1245E+00  0.1234E+00  0.7202E+02  0.7202E+02
     18.351  0.1316E+00  0.1327E+00  0.7204E+02  0.7204E+02
     18.488  0.1805E-01  0.1834E-01  0.7204E+02  0.7204E+02
     18.626  0.1014E-01  0.9950E-02  0.7204E+02  0.7204E+02
     18.763  0.1354E+00  0.1332E+00  0.7206E+02  0.7206E+02
     18.900  0.8293E+00  0.8232E+00  0.7217E+02  0.7217E+02
     19.038  0.9181E+00  0.9242E+00  0.7230E+02  0.7230E+02
     19.175  0.1446E+00  0.1467E+00  0.7232E+02  0.7232E+02
     19.312  0.1353E+00  0.1331E+00  0.7234E+02  0.7234E+02
     19.449  0.8951E+00  0.8877E+00  0.7246E+02  0.7246E+02
     19.587  0.1134E+01  0.1133E+01  0.7262E+02  0.7262E+02
     19.724  0.2484E+01  0.2460E+01  0.7296E+02  0.7295E+02
     19.861  0.3677E+01  0.3678E+01  0.7346E+02  0.7346E+02
     19.999  0.3811E+01  0.3803E+01  0.7399E+02  0.7398E+02
     20.136  0.5458E+01  0.5449E+01  0.7474E+02  0.7473E+02
     20.273  0.4840E+01  0.4850E+01  0.7540E+02  0.7540E+02
     20.411  0.4022E+01  0.4020E+01  0.7596E+02  0.7595E+02
     20.548  0.5210E+01  0.5194E+01  0.7667E+02  0.7667E+02
     20.685  0.7754E+01  0.7746E+01  0.7774E+02  0.7773E+02
     20.823  0.5464E+01  0.5497E+01  0.7849E+02  0.7849E+02
     20.960  0.4874E+01  0.4867E+01  0.7916E+02  0.7915E+02
     21.097  0.5039E+01  0.5049E+01  0.7985E+02  0.7985E+02
     21.235  0.3593E+01  0.3600E+01  0.8035E+02  0.8034E+02
     21.372  0.3199E+01  0.3195E+01  0.8079E+02  0.8078E+02
     21.509  0.4837E+01  0.4824E+01  0.8145E+02  0.8145E+02
     21.646  0.7878E+01  0.7868E+01  0.8254E+02  0.8253E+02
     21.784  0.7223E+01  0.7239E+01  0.8353E+02  0.8352E+02
     21.921  0.6458E+01  0.6441E+01  0.8442E+02  0.8441E+02
     22.058  0.8931E+01  0.8930E+01  0.8564E+02  0.8564E+02
     22.196  0.8760E+01  0.8756E+01  0.8685E+02  0.8684E+02
     22.333  0.8114E+01  0.8126E+01  0.8796E+02  0.8796E+02
     22.470  0.4856E+01  0.4868E+01  0.8863E+02  0.8863E+02
     22.608  0.5255E+01  0.5244E+01  0.8936E+02  0.8935E+02
     22.745  0.6267E+01  0.6264E+01  0.9022E+02  0.9021E+02
     22.882  0.6341E+01  0.6342E+01  0.9109E+02  0.9108E+02
     23.020  0.7103E+01  0.7053E+01  0.9207E+02  0.9205E+02
     23.157  0.7140E+01  0.7194E+01  0.9305E+02  0.9304E+02
     23.294  0.5340E+01  0.5373E+01  0.9378E+02  0.9378E+02
     23.432  0.6520E+01  0.6469E+01  0.9468E+02  0.9467E+02
     23.569  0.7254E+01  0.7468E+01  0.9568E+02  0.9570E+02
     23.706  0.7931E+01  0.8597E+01  0.9677E+02  0.9688E+02
     23.843  0.7235E+01  0.6815E+01  0.9776E+02  0.9782E+02
     23.981  0.3456E+01  0.3178E+01  0.9824E+02  0.9826E+02
     24.118  0.3721E+01  0.3848E+01  0.9875E+02  0.9879E+02
     24.255  0.3617E+01  0.2816E+01  0.9925E+02  0.9917E+02
     24.393  0.2284E+01  0.2085E+01  0.9957E+02  0.9946E+02
     24.530  0.1072E+01  0.1826E+01  0.9972E+02  0.9971E+02
     24.667  0.6111E+00  0.1238E+01  0.9980E+02  0.9988E+02
     24.805  0.6086E+00  0.4521E+00  0.9988E+02  0.9995E+02
     24.942  0.4900E+00  0.8850E-01  0.9995E+02  0.9996E+02
     25.079  0.8322E-01  0.1198E-01  0.9996E+02  0.9996E+02
     25.217  0.1432E+00  0.7170E-01  0.9998E+02  0.9997E+02
     25.354  0.1118E+00  0.1697E+00  0.1000E+03  0.9999E+02
     25.491  0.1254E-01  0.4000E-01  0.1000E+03  0.1000E+03
     25.629  0.0000E+00  0.3011E-02  0.1000E+03  0.1000E+03
     25.766  0.0000E+00  0.0000E+00  0.1000E+03  0.1000E+03
     25.903  0.0000E+00  0.0000E+00  0.1000E+03  0.1000E+03
     26.040  0.0000E+00  0.0000E+00  0.1000E+03  0.1000E+03
     26.178  0.0000E+00  0.0000E+00  0.1000E+03  0.1000E+03
     26.315  0.0000E+00  0.0000E+00  0.1000E+03  0.1000E+03
     26.452  0.0000E+00  0.0000E+00  0.1000E+03  0.1000E+03
     26.590  0.0000E+00  0.0000E+00  0.1000E+03  0.1000E+03
     26.727  0.0000E+00  0.0000E+00  0.1000E+03  0.1000E+03
     26.864  0.0000E+00  0.0000E+00  0.1000E+03  0.1000E+03
     27.002  0.0000E+00  0.0000E+00  0.1000E+03  0.1000E+03
     27.139  0.0000E+00  0.0000E+00  0.1000E+03  0.1000E+03
     27.13896421    -14.05461957  301      9.97550734      1.00000000
    -14.055  0.0000E+00  0.0000E+00  0.0000E+00  0.0000E+00  0.0000E+00  0.0000E+00  0.0000E+00  0.0000E+00  0.0000E+00  0.0000E+00  0.0000E+00  0.0000E+00  0.0000E+00  0.0000E+00  0.0000E+00  0.0000E+00  0.0000E+00  0.0000E+00
    -13.917  0.0000E+00  0.0000E+00  0.0000E+00  0.0000E+00  0.0000E+00  0.0000E+00  0.0000E+00  0.0000E+00  0.0000E+00  0.0000E+00  0.0000E+00  0.0000E+00  0.0000E+00  0.0000E+00  0.0000E+00  0.0000E+00  0.0000E+00  0.0000E+00
    -13.780  0.0000E+00  0.0000E+00  0.0000E+00  0.0000E+00  0.0000E+00  0.0000E+00  0.0000E+00  0.0000E+00  0.0000E+00  0.0000E+00  0.0000E+00  0.0000E+00  0.0000E+00  0.0000E+00  0.0000E+00  0.0000E+00  0.0000E+00  0.0000E+00
    -13.643  0.0000E+00  0.0000E+00  0.0000E+00  0.0000E+00  0.0000E+00  0.0000E+00  0.0000E+00  0.0000E+00  0.0000E+00  0.0000E+00  0.0000E+00  0.0000E+00  0.0000E+00  0.0000E+00  0.0000E+00  0.0000E+00  0.0000E+00  0.0000E+00
    -13.505  0.0000E+00  0.0000E+00  0.0000E+00  0.0000E+00  0.0000E+00  0.0000E+00  0.0000E+00  0.0000E+00  0.0000E+00  0.0000E+00  0.0000E+00  0.0000E+00  0.0000E+00  0.0000E+00  0.0000E+00  0.0000E+00  0.0000E+00  0.0000E+00
    -13.368  0.0000E+00  0.0000E+00  0.0000E+00  0.0000E+00  0.0000E+00  0.0000E+00  0.0000E+00  0.0000E+00  0.0000E+00  0.0000E+00  0.0000E+00  0.0000E+00  0.0000E+00  0.0000E+00  0.0000E+00  0.0000E+00  0.0000E+00  0.0000E+00
    -13.231  0.0000E+00  0.0000E+00  0.0000E+00  0.0000E+00  0.0000E+00  0.0000E+00  0.0000E+00  0.0000E+00  0.0000E+00  0.0000E+00  0.0000E+00  0.0000E+00  0.0000E+00  0.0000E+00  0.0000E+00  0.0000E+00  0.0000E+00  0.0000E+00
    -13.093  0.0000E+00  0.0000E+00  0.0000E+00  0.0000E+00  0.0000E+00  0.0000E+00  0.0000E+00  0.0000E+00  0.0000E+00  0.0000E+00  0.0000E+00  0.0000E+00  0.0000E+00  0.0000E+00  0.0000E+00  0.0000E+00  0.0000E+00  0.0000E+00
    -12.956  0.0000E+00  0.0000E+00  0.0000E+00  0.0000E+00  0.0000E+00  0.0000E+00  0.0000E+00  0.0000E+00  0.0000E+00  0.0000E+00  0.0000E+00  0.0000E+00  0.0000E+00  0.0000E+00  0.0000E+00  0.0000E+00  0.0000E+00  0.0000E+00
    -12.819  0.0000E+00  0.0000E+00  0.0000E+00  0.0000E+00  0.0000E+00  0.0000E+00  0.0000E+00  0.0000E+00  0.0000E+00  0.0000E+00  0.0000E+00  0.0000E+00  0.0000E+00  0.0000E+00  0.0000E+00  0.0000E+00  0.0000E+00  0.0000E+00
    -12.682  0.1308E-06  0.1314E-06  0.4130E-17  0.4032E-17  0.1344E-08  0.1351E-08  0.4130E-17  0.4032E-17  0.0000E+00  0.0000E+00  0.0000E+00  0.0000E+00  0.0000E+00  0.0000E+00  0.0000E+00  0.0000E+00  0.0000E+00  0.0000E+00
    -12.544  0.1906E-05  0.1915E-05  0.6019E-16  0.5876E-16  0.1959E-07  0.1968E-07  0.6019E-16  0.5876E-16  0.0000E+00  0.0000E+00  0.0000E+00  0.0000E+00  0.0000E+00  0.0000E+00  0.0000E+00  0.0000E+00  0.0000E+00  0.0000E+00
    -12.407  0.3065E-04  0.3078E-04  0.2725E-07  0.2738E-07  0.3171E-06  0.3185E-06  0.2725E-07  0.2738E-07  0.0000E+00  0.0000E+00  0.0000E+00  0.0000E+00  0.0000E+00  0.0000E+00  0.0000E+00  0.0000E+00  0.0000E+00  0.0000E+00
    -12.270  0.4098E-03  0.4113E-03  0.3969E-06  0.3988E-06  0.4281E-05  0.4298E-05  0.3969E-06  0.3988E-06  0.0000E+00  0.0000E+00  0.0000E+00  0.0000E+00  0.0000E+00  0.0000E+00  0.0000E+00  0.0000E+00  0.0000E+00  0.0000E+00
    -12.132  0.1956E-02  0.1958E-02  0.6082E-05  0.6111E-05  0.2117E-04  0.2120E-04  0.6082E-05  0.6111E-05  0.0000E+00  0.0000E+00  0.0000E+00  0.0000E+00  0.0000E+00  0.0000E+00  0.0000E+00  0.0000E+00  0.0000E+00  0.0000E+00
    -11.995  0.4271E-02  0.4281E-02  0.7309E-04  0.7336E-04  0.5821E-04  0.5839E-04  0.7309E-04  0.7336E-04  0.0000E+00  0.0000E+00  0.0000E+00  0.0000E+00  0.0000E+00  0.0000E+00  0.0000E+00  0.0000E+00  0.0000E+00  0.0000E+00
    -11.858  0.1093E-01  0.1093E-01  0.2077E-03  0.2076E-03  0.1958E-03  0.1959E-03  0.2077E-03  0.2076E-03  0.0000E+00  0.0000E+00  0.0000E+00  0.0000E+00  0.0000E+00  0.0000E+00  0.0000E+00  0.0000E+00  0.0000E+00  0.0000E+00
    -11.720  0.5634E-02  0.5629E-02  0.1019E-03  0.1019E-03  0.2120E-03  0.2122E-03  0.1019E-03  0.1019E-03  0.0000E+00  0.0000E+00  0.0000E+00  0.0000E+00  0.0000E+00  0.0000E+00  0.0000E+00  0.0000E+00  0.0000E+00  0.0000E+00
    -11.583  0.9924E-02  0.9933E-02  0.2671E-03  0.2676E-03  0.5533E-03  0.5537E-03  0.2671E-03  0.2676E-03  0.0000E+00  0.0000E+00  0.0000E+00  0.0000E+00  0.0000E+00  0.0000E+00  0.0000E+00  0.0000E+00  0.0000E+00  0.0000E+00
    -11.446  0.1123E-01  0.1123E-01  0.6016E-03  0.6023E-03  0.3808E-03  0.3802E-03  0.6016E-03  0.6023E-03  0.0000E+00  0.0000E+00  0.0000E+00  0.0000E+00  0.0000E+00  0.0000E+00  0.0000E+00  0.0000E+00  0.0000E+00  0.0000E+00
    -11.308  0.9446E-02  0.9446E-02  0.6726E-03  0.6728E-03  0.3369E-03  0.3376E-03  0.6726E-03  0.6728E-03  0.0000E+00  0.0000E+00  0.0000E+00  0.0000E+00  0.0000E+00  0.0000E+00  0.0000E+00  0.0000E+00  0.0000E+00  0.0000E+00
    -11.171  0.1675E-01  0.1677E-01  0.1265E-02  0.1266E-02  0.1003E-02  0.1005E-02  0.1265E-02  0.1266E-02  0.0000E+00  0.0000E+00  0.0000E+00  0.0000E+00  0.0000E+00  0.0000E+00  0.0000E+00  0.0000E+00  0.0000E+00  0.0000E+00
    -11.034  0.1660E-01  0.1660E-01  0.9960E-03  0.9952E-03  0.1762E-02  0.1763E-02  0.9960E-03  0.9952E-03  0.0000E+00  0.0000E+00  0.0000E+00  0.0000E+00  0.0000E+00  0.0000E+00  0.0000E+00  0.0000E+00  0.0000E+00  0.0000E+00
    -10.896  0.1248E-01  0.1245E-01  0.8554E-03  0.8545E-03  0.1428E-02  0.1425E-02  0.8554E-03  0.8545E-03  0.0000E+00  0.0000E+00  0.0000E+00  0.0000E+00  0.0000E+00  0.0000E+00  0.0000E+00  0.0000E+00  0.0000E+00  0.0000E+00
    -10.759  0.5380E-02  0.5385E-02  0.6018E-03  0.6034E-03  0.5849E-03  0.5857E-03  0.6018E-03  0.6034E-03  0.0000E+00  0.0000E+00  0.0000E+00  0.0000E+00  0.0000E+00  0.0000E+00  0.0000E+00  0.0000E+00  0.0000E+00  0.0000E+00
    -10.622  0.1874E-01  0.1878E-01  0.2689E-02  0.2696E-02  0.2024E-02  0.2028E-02  0.2689E-02  0.2696E-02  0.0000E+00  0.0000E+00  0.0000E+00  0.0000E+00  0.0000E+00  0.0000E+00  0.0000E+00  0.0000E+00  0.0000E+00  0.0000E+00
    -10.485  0.2200E-01  0.2198E-01  0.3316E-02  0.3313E-02  0.2512E-02  0.2511E-02  0.3316E-02  0.3313E-02  0.0000E+00  0.0000E+00  0.0000E+00  0.0000E+00  0.0000E+00  0.0000E+00  0.0000E+00  0.0000E+00  0.0000E+00  0.0000E+00
    -10.347  0.1780E-01  0.1779E-01  0.2786E-02  0.2785E-02  0.3124E-02  0.3127E-02  0.2786E-02  0.2785E-02  0.0000E+00  0.0000E+00  0.0000E+00  0.0000E+00  0.0000E+00  0.0000E+00  0.0000E+00  0.0000E+00  0.0000E+00  0.0000E+00
    -10.210  0.1314E-01  0.1312E-01  0.1919E-02  0.1915E-02  0.3530E-02  0.3527E-02  0.1919E-02  0.1915E-02  0.0000E+00  0.0000E+00  0.0000E+00  0.0000E+00  0.0000E+00  0.0000E+00  0.0000E+00  0.0000E+00  0.0000E+00  0.0000E+00
    -10.073  0.8596E-02  0.8605E-02  0.1614E-02  0.1617E-02  0.2588E-02  0.2591E-02  0.1614E-02  0.1617E-02  0.0000E+00  0.0000E+00  0.0000E+00  0.0000E+00  0.0000E+00  0.0000E+00  0.0000E+00  0.0000E+00  0.0000E+00  0.0000E+00
     -9.935  0.1113E-01  0.1112E-01  0.2715E-02  0.2714E-02  0.3146E-02  0.3142E-02  0.2715E-02  0.2714E-02  0.0000E+00  0.0000E+00  0.0000E+00  0.0000E+00  0.0000E+00  0.0000E+00  0.0000E+00  0.0000E+00  0.0000E+00  0.0000E+00
     -9.798  0.7156E-02  0.7153E-02  0.2458E-02  0.2458E-02  0.2357E-02  0.2359E-02  0.2458E-02  0.2458E-02  0.0000E+00  0.0000E+00  0.0000E+00  0.0000E+00  0.0000E+00  0.0000E+00  0.0000E+00  0.0000E+00  0.0000E+00  0.0000E+00
     -9.661  0.7624E-02  0.7630E-02  0.3066E-02  0.3071E-02  0.3508E-02  0.3514E-02  0.3066E-02  0.3071E-02  0.0000E+00  0.0000E+00  0.0000E+00  0.0000E+00  0.0000E+00  0.0000E+00  0.0000E+00  0.0000E+00  0.0000E+00  0.0000E+00
     -9.523  0.1105E-01  0.1106E-01  0.4777E-02  0.4781E-02  0.6110E-02  0.6118E-02  0.4777E-02  0.4781E-02  0.0000E+00  0.0000E+00  0.0000E+00  0.0000E+00  0.0000E+00  0.0000E+00  0.0000E+00  0.0000E+00  0.0000E+00  0.0000E+00
     -9.386  0.9052E-02  0.9035E-02  0.4186E-02  0.4182E-02  0.5686E-02  0.5677E-02  0.4186E-02  0.4182E-02  0.0000E+00  0.0000E+00  0.0000E+00  0.0000E+00  0.0000E+00  0.0000E+00  0.0000E+00  0.0000E+00  0.0000E+00  0.0000E+00
     -9.249  0.7824E-02  0.7827E-02  0.5689E-02  0.5701E-02  0.4011E-02  0.4009E-02  0.5689E-02  0.5701E-02  0.0000E+00  0.0000E+00  0.0000E+00  0.0000E+00  0.0000E+00  0.0000E+00  0.0000E+00  0.0000E+00  0.0000E+00  0.0000E+00
     -9.111  0.7511E-02  0.7507E-02  0.7586E-02  0.7591E-02  0.4713E-02  0.4724E-02  0.7586E-02  0.7591E-02  0.0000E+00  0.0000E+00  0.0000E+00  0.0000E+00  0.0000E+00  0.0000E+00  0.0000E+00  0.0000E+00  0.0000E+00  0.0000E+00
     -8.974  0.8465E-02  0.8470E-02  0.1123E-01  0.1125E-01  0.8289E-02  0.8294E-02  0.1123E-01  0.1125E-01  0.0000E+00  0.0000E+00  0.0000E+00  0.0000E+00  0.0000E+00  0.0000E+00  0.0000E+00  0.0000E+00  0.0000E+00  0.0000E+00
     -8.837  0.8113E-02  0.8103E-02  0.1307E-01  0.1306E-01  0.6700E-02  0.6688E-02  0.1307E-01  0.1306E-01  0.0000E+00  0.0000E+00  0.0000E+00  0.0000E+00  0.0000E+00  0.0000E+00  0.0000E+00  0.0000E+00  0.0000E+00  0.0000E+00
     -8.699  0.5745E-02  0.5740E-02  0.1007E-01  0.1006E-01  0.4848E-02  0.4847E-02  0.1007E-01  0.1006E-01  0.0000E+00  0.0000E+00  0.0000E+00  0.0000E+00  0.0000E+00  0.0000E+00  0.0000E+00  0.0000E+00  0.0000E+00  0.0000E+00
     -8.562  0.7217E-02  0.7236E-02  0.1015E-01  0.1015E-01  0.6423E-02  0.6436E-02  0.1015E-01  0.1015E-01  0.0000E+00  0.0000E+00  0.0000E+00  0.0000E+00  0.0000E+00  0.0000E+00  0.0000E+00  0.0000E+00  0.0000E+00  0.0000E+00
     -8.425  0.1177E-01  0.1177E-01  0.1038E-01  0.1038E-01  0.9870E-02  0.9875E-02  0.1038E-01  0.1038E-01  0.0000E+00  0.0000E+00  0.0000E+00  0.0000E+00  0.0000E+00  0.0000E+00  0.0000E+00  0.0000E+00  0.0000E+00  0.0000E+00
     -8.288  0.7095E-02  0.7078E-02  0.7816E-02  0.7806E-02  0.6602E-02  0.6587E-02  0.7816E-02  0.7806E-02  0.0000E+00  0.0000E+00  0.0000E+00  0.0000E+00  0.0000E+00  0.0000E+00  0.0000E+00  0.0000E+00  0.0000E+00  0.0000E+00
     -8.150  0.6610E-02  0.6609E-02  0.6872E-02  0.6869E-02  0.7015E-02  0.7027E-02  0.6872E-02  0.6869E-02  0.0000E+00  0.0000E+00  0.0000E+00  0.0000E+00  0.0000E+00  0.0000E+00  0.0000E+00  0.0000E+00  0.0000E+00  0.0000E+00
     -8.013  0.5663E-02  0.5657E-02  0.5781E-02  0.5774E-02  0.7120E-02  0.7108E-02  0.5781E-02  0.5774E-02  0.0000E+00  0.0000E+00  0.0000E+00  0.0000E+00  0.0000E+00  0.0000E+00  0.0000E+00  0.0000E+00  0.0000E+00  0.0000E+00
     -7.876  0.2742E-02  0.2721E-02  0.2629E-02  0.2609E-02  0.3063E-02  0.3040E-02  0.2629E-02  0.2609E-02  0.0000E+00  0.0000E+00  0.0000E+00  0.0000E+00  0.0000E+00  0.0000E+00  0.0000E+00  0.0000E+00  0.0000E+00  0.0000E+00
     -7.738  0.2971E-03  0.2933E-03  0.2812E-03  0.2775E-03  0.3233E-03  0.3191E-03  0.2812E-03  0.2775E-03  0.0000E+00  0.0000E+00  0.0000E+00  0.0000E+00  0.0000E+00  0.0000E+00  0.0000E+00  0.0000E+00  0.0000E+00  0.0000E+00
     -7.601  0.3672E-05  0.3622E-05  0.3451E-05  0.3404E-05  0.6192E-05  0.6107E-05  0.3451E-05  0.3404E-05  0.0000E+00  0.0000E+00  0.0000E+00  0.0000E+00  0.0000E+00  0.0000E+00  0.0000E+00  0.0000E+00  0.0000E+00  0.0000E+00
     -7.464  0.0000E+00  0.0000E+00  0.0000E+00  0.0000E+00  0.0000E+00  0.0000E+00  0.0000E+00  0.0000E+00  0.0000E+00  0.0000E+00  0.0000E+00  0.0000E+00  0.0000E+00  0.0000E+00  0.0000E+00  0.0000E+00  0.0000E+00  0.0000E+00
     -7.326  0.0000E+00  0.0000E+00  0.0000E+00  0.0000E+00  0.0000E+00  0.0000E+00  0.0000E+00  0.0000E+00  0.0000E+00  0.0000E+00  0.0000E+00  0.0000E+00  0.0000E+00  0.0000E+00  0.0000E+00  0.0000E+00  0.0000E+00  0.0000E+00
     -7.189  0.0000E+00  0.0000E+00  0.0000E+00  0.0000E+00  0.0000E+00  0.0000E+00  0.0000E+00  0.0000E+00  0.0000E+00  0.0000E+00  0.0000E+00  0.0000E+00  0.0000E+00  0.0000E+00  0.0000E+00  0.0000E+00  0.0000E+00  0.0000E+00