  30  30   1   0
  0.6587721E+01  0.4372576E-09  0.4372575E-09  0.1193579E-08  0.5000000E-15
  1.000000000000000E-004
  CAR 
 unknown system                          
     27.98437943    -13.93994036  301     10.51618579      1.00000000
    -13.940  0.0000E+00  0.0000E+00  0.0000E+00  0.0000E+00
    -13.800  0.0000E+00  0.0000E+00  0.0000E+00  0.0000E+00
    -13.660  0.0000E+00  0.0000E+00  0.0000E+00  0.0000E+00
    -13.521  0.0000E+00  0.0000E+00  0.0000E+00  0.0000E+00
    -13.381  0.0000E+00  0.0000E+00  0.0000E+00  0.0000E+00
    -13.241  0.0000E+00  0.0000E+00  0.0000E+00  0.0000E+00
    -13.101  0.0000E+00  0.0000E+00  0.0000E+00  0.0000E+00
    -12.962  0.0000E+00  0.0000E+00  0.0000E+00  0.0000E+00
    -12.822  0.0000E+00  0.0000E+00  0.0000E+00  0.0000E+00
    -12.682  0.0000E+00  0.0000E+00  0.0000E+00  0.0000E+00
    -12.542  0.1099E-04  0.1103E-04  0.1535E-05  0.1542E-05
    -12.403  0.1687E-03  0.1694E-03  0.2510E-04  0.2522E-04
    -12.263  0.2834E-02  0.2847E-02  0.4212E-03  0.4231E-03
    -12.123  0.3993E-01  0.4008E-01  0.6001E-02  0.6024E-02
    -11.983  0.1952E+00  0.1954E+00  0.3328E-01  0.3333E-01
    -11.844  0.4161E+00  0.4172E+00  0.9142E-01  0.9163E-01
    -11.704  0.1180E+01  0.1180E+01  0.2563E+00  0.2565E+00
    -11.564  0.6020E+00  0.6014E+00  0.3405E+00  0.3406E+00
    -11.424  0.1083E+01  0.1085E+01  0.4919E+00  0.4922E+00
    -11.285  0.1327E+01  0.1328E+01  0.6777E+00  0.6781E+00
    -11.145  0.1157E+01  0.1157E+01  0.8394E+00  0.8398E+00
    -11.005  0.2034E+01  0.2037E+01  0.1124E+01  0.1125E+01
    -10.865  0.2262E+01  0.2261E+01  0.1441E+01  0.1442E+01
    -10.726  0.1991E+01  0.1989E+01  0.1719E+01  0.1720E+01
    -10.586  0.7687E+00  0.7678E+00  0.1828E+01  0.1829E+01
    -10.446  0.2238E+01  0.2247E+01  0.2142E+01  0.2144E+01
    -10.306  0.4042E+01  0.4040E+01  0.2707E+01  0.2709E+01
    -10.167  0.3246E+01  0.3247E+01  0.3161E+01  0.3162E+01
    -10.027  0.2980E+01  0.2978E+01  0.3580E+01  0.3581E+01
     -9.887  0.1747E+01  0.1745E+01  0.3825E+01  0.3826E+01
     -9.748  0.2659E+01  0.2662E+01  0.4198E+01  0.4199E+01
     -9.608  0.2065E+01  0.2063E+01  0.4487E+01  0.4488E+01
     -9.468  0.2132E+01  0.2134E+01  0.4785E+01  0.4787E+01
     -9.328  0.3247E+01  0.3253E+01  0.5240E+01  0.5242E+01
     -9.189  0.4212E+01  0.4210E+01  0.5830E+01  0.5832E+01
     -9.049  0.3173E+01  0.3173E+01  0.6273E+01  0.6275E+01
     -8.909  0.4252E+01  0.4255E+01  0.6868E+01  0.6871E+01
     -8.769  0.5245E+01  0.5255E+01  0.7602E+01  0.7606E+01
     -8.630  0.7750E+01  0.7756E+01  0.8686E+01  0.8691E+01
     -8.490  0.7388E+01  0.7382E+01  0.9720E+01  0.9724E+01
     -8.350  0.6195E+01  0.6200E+01  0.1059E+02  0.1059E+02
     -8.210  0.8413E+01  0.8430E+01  0.1177E+02  0.1177E+02
     -8.071  0.1067E+02  0.1066E+02  0.1326E+02  0.1326E+02
     -7.931  0.8163E+01  0.8164E+01  0.1440E+02  0.1441E+02
     -7.791  0.9912E+01  0.9921E+01  0.1579E+02  0.1580E+02
     -7.651  0.1051E+02  0.1050E+02  0.1726E+02  0.1727E+02
     -7.512  0.4771E+01  0.4732E+01  0.1793E+02  0.1793E+02
     -7.372  0.4676E+00  0.4614E+00  0.1800E+02  0.1800E+02
     -7.232  0.0000E+00  0.0000E+00  0.1800E+02  0.1800E+02
     -7.092  0.0000E+00  0.0000E+00  0.1800E+02  0.1800E+02
     -6.953  0.0000E+00  0.0000E+00  0.1800E+02  0.1800E+02
     -6.813  0.0000E+00  0.0000E+00  0.1800E+02  0.1800E+02
     -6.673  0.0000E+00  0.0000E+00  0.1800E+02  0.1800E+02
     -6.533  0.0000E+00  0.0000E+00  0.1800E+02  0.1800E+02
     -6.394  0.0000E+00  0.0000E+00  0.1800E+02  0.1800E+02
     -6.254  0.0000E+00  0.0000E+00  0.1800E+02  0.1800E+02
     -6.114  0.0000E+00  0.0000E+00  0.1800E+02  0.1800E+02
     -5.974  0.0000E+00  0.0000E+00  0.1800E+02  0.1800E+02
     -5.835  0.0000E+00  0.0000E+00  0.1800E+02  0.1800E+02
     -5.695  0.0000E+00  0.0000E+00  0.1800E+02  0.1800E+02
     -5.555  0.0000E+00  0.0000E+00  0.1800E+02  0.1800E+02
     -5.415  0.0000E+00  0.0000E+00  0.1800E+02  0.1800E+02
     -5.276  0.0000E+00  0.0000E+00  0.1800E+02  0.1800E+02
     -5.136  0.0000E+00  0.0000E+00  0.1800E+02  0.1800E+02
     -4.996  0.0000E+00  0.0000E+00  0.1800E+02  0.1800E+02
     -4.856  0.0000E+00  0.0000E+00  0.1800E+02  0.1800E+02
     -4.717  0.0000E+00  0.0000E+00  0.1800E+02  0.1800E+02
     -4.577  0.0000E+00  0.0000E+00  0.1800E+02  0.1800E+02
     -4.437  0.0000E+00  0.0000E+00  0.1800E+02  0.1800E+02
     -4.297  0.0000E+00  0.0000E+00  0.1800E+02  0.1800E+02
     -4.158  0.0000E+00  0.0000E+00  0.1800E+02  0.1800E+02
     -4.018  0.0000E+00  0.0000E+00  0.1800E+02  0.1800E+02
     -3.878  0.0000E+00  0.0000E+00  0.1800E+02  0.1800E+02
     -3.738  0.0000E+00  0.0000E+00  0.1800E+02  0.1800E+02
     -3.599  0.0000E+00  0.0000E+00  0.1800E+02  0.1800E+02
     -3.459  0.0000E+00  0.0000E+00  0.1800E+02  0.1800E+02
     -3.319  0.0000E+00  0.0000E+00  0.1800E+02  0.1800E+02
     -3.179  0.0000E+00  0.0000E+00  0.1800E+02  0.1800E+02
     -3.040  0.0000E+00  0.0000E+00  0.1800E+02  0.1800E+02
     -2.900  0.0000E+00  0.0000E+00  0.1800E+02  0.1800E+02
     -2.760  0.0000E+00  0.0000E+00  0.1800E+02  0.1800E+02
     -2.620  0.0000E+00  0.0000E+00  0.1800E+02  0.1800E+02
     -2.481  0.0000E+00  0.0000E+00  0.1800E+02  0.1800E+02
     -2.341  0.0000E+00  0.0000E+00  0.1800E+02  0.1800E+02
     -2.201  0.0000E+00  0.0000E+00  0.1800E+02  0.1800E+02
     -2.061  0.0000E+00  0.0000E+00  0.1800E+02  0.1800E+02
     -1.922  0.0000E+00  0.0000E+00  0.1800E+02  0.1800E+02
     -1.782  0.0000E+00  0.0000E+00  0.1800E+02  0.1800E+02
     -1.642  0.0000E+00  0.0000E+00  0.1800E+02  0.1800E+02
     -1.502  0.0000E+00  0.0000E+00  0.1800E+02  0.1800E+02
     -1.363  0.0000E+00  0.0000E+00  0.1800E+02  0.1800E+02
     -1.223  0.0000E+00  0.0000E+00  0.1800E+02  0.1800E+02
     -1.083  0.0000E+00  0.0000E+00  0.1800E+02  0.1800E+02
     -0.943  0.0000E+00  0.0000E+00  0.1800E+02  0.1800E+02
     -0.804  0.0000E+00  0.0000E+00  0.1800E+02  0.1800E+02
     -0.664  0.0000E+00  0.0000E+00  0.1800E+02  0.1800E+02
     -0.524  0.0000E+00  0.0000E+00  0.1800E+02  0.1800E+02
     -0.384  0.0000E+00  0.0000E+00  0.1800E+02  0.1800E+02
     -0.245  0.0000E+00  0.0000E+00  0.1800E+02  0.1800E+02
     -0.105  0.0000E+00  0.0000E+00  0.1800E+02  0.1800E+02
      0.035  0.0000E+00  0.0000E+00  0.1800E+02  0.1800E+02
      0.175  0.0000E+00  0.0000E+00  0.1800E+02  0.1800E+02
      0.314  0.0000E+00  0.0000E+00  0.1800E+02  0.1800E+02
      0.454  0.0000E+00  0.0000E+00  0.1800E+02  0.1800E+02
      0.594  0.1629E-04  0.1628E-04  0.1800E+02  0.1800E+02
      0.734  0.3309E-03  0.3307E-03  0.1800E+02  0.1800E+02
      0.873  0.5474E-02  0.5471E-02  0.1800E+02  0.1800E+02
      1.013  0.7616E-01  0.7612E-01  0.1801E+02  0.1801E+02
      1.153  0.4939E+00  0.4937E+00  0.1808E+02  0.1808E+02
      1.293  0.1574E+01  0.1573E+01  0.1830E+02  0.1830E+02
      1.432  0.1817E+01  0.1817E+01  0.1855E+02  0.1855E+02
      1.572  0.2509E+01  0.2509E+01  0.1891E+02  0.1890E+02
      1.712  0.3992E+01  0.3992E+01  0.1946E+02  0.1946E+02
      1.852  0.6096E+01  0.6096E+01  0.2032E+02  0.2032E+02
      1.991  0.5831E+01  0.5831E+01  0.2113E+02  0.2113E+02
      2.131  0.5744E+01  0.5745E+01  0.2194E+02  0.2194E+02
      2.271  0.7006E+01  0.7007E+01  0.2292E+02  0.2292E+02
      2.411  0.7243E+01  0.7243E+01  0.2393E+02  0.2393E+02
      2.550  0.6316E+01  0.6316E+01  0.2481E+02  0.2481E+02
      2.690  0.4075E+01  0.4074E+01  0.2538E+02  0.2538E+02
      2.830  0.4937E+01  0.4937E+01  0.2608E+02  0.2608E+02
      2.970  0.4789E+01  0.4790E+01  0.2675E+02  0.2675E+02
      3.109  0.6217E+01  0.6217E+01  0.2762E+02  0.2762E+02
      3.249  0.7976E+01  0.7977E+01  0.2873E+02  0.2873E+02
      3.389  0.6564E+01  0.6563E+01  0.2965E+02  0.2965E+02
      3.529  0.4592E+01  0.4592E+01  0.3029E+02  0.3029E+02
      3.668  0.4183E+01  0.4183E+01  0.3088E+02  0.3088E+02
      3.808  0.4641E+01  0.4641E+01  0.3153E+02  0.3153E+02
      3.948  0.3692E+01  0.3691E+01  0.3205E+02  0.3205E+02
      4.088  0.5720E+01  0.5723E+01  0.3285E+02  0.3285E+02
      4.227  0.7253E+01  0.7256E+01  0.3387E+02  0.3387E+02
      4.367  0.6361E+01  0.6361E+01  0.3476E+02  0.3476E+02
      4.507  0.5102E+01  0.5101E+01  0.3547E+02  0.3547E+02
      4.647  0.4154E+01  0.4151E+01  0.3605E+02  0.3605E+02
      4.786  0.3274E+01  0.3274E+01  0.3651E+02  0.3651E+02
      4.926  0.3573E+01  0.3574E+01  0.3701E+02  0.3701E+02
      5.066  0.5098E+01  0.5104E+01  0.3773E+02  0.3773E+02
      5.205  0.6396E+01  0.6397E+01  0.3862E+02  0.3862E+02
      5.345  0.5040E+01  0.5037E+01  0.3933E+02  0.3933E+02
      5.485  0.3208E+01  0.3207E+01  0.3978E+02  0.3978E+02
      5.625  0.3584E+01  0.3585E+01  0.4028E+02  0.4028E+02
      5.764  0.2940E+01  0.2941E+01  0.4069E+02  0.4069E+02
      5.904  0.4839E+01  0.4843E+01  0.4137E+02  0.4137E+02
      6.044  0.5473E+01  0.5474E+01  0.4213E+02  0.4214E+02
      6.184  0.6782E+01  0.6788E+01  0.4308E+02  0.4308E+02
      6.323  0.8740E+01  0.8746E+01  0.4430E+02  0.4431E+02
      6.463  0.1009E+02  0.1009E+02  0.4571E+02  0.4572E+02
      6.603  0.8342E+01  0.8333E+01  0.4688E+02  0.4689E+02
      6.743  0.6625E+01  0.6630E+01  0.4781E+02  0.4781E+02
      6.882  0.8367E+01  0.8368E+01  0.4898E+02  0.4899E+02
      7.022  0.8370E+01  0.8376E+01  0.5015E+02  0.5016E+02
      7.162  0.1066E+02  0.1066E+02  0.5165E+02  0.5165E+02
      7.302  0.8983E+01  0.8972E+01  0.5290E+02  0.5291E+02
      7.441  0.8226E+01  0.8238E+01  0.5406E+02  0.5406E+02
      7.581  0.1248E+02  0.1250E+02  0.5580E+02  0.5581E+02
      7.721  0.1375E+02  0.1374E+02  0.5773E+02  0.5773E+02
      7.861  0.1272E+02  0.1272E+02  0.5951E+02  0.5951E+02
      8.000  0.1078E+02  0.1076E+02  0.6102E+02  0.6102E+02
      8.140  0.8422E+01  0.8423E+01  0.6219E+02  0.6220E+02
      8.280  0.1028E+02  0.1029E+02  0.6364E+02  0.6364E+02
      8.420  0.1028E+02  0.1027E+02  0.6507E+02  0.6508E+02
      8.559  0.9159E+01  0.9157E+01  0.6636E+02  0.6636E+02
      8.699  0.7459E+01  0.7446E+01  0.6740E+02  0.6741E+02
      8.839  0.9001E+01  0.9018E+01  0.6866E+02  0.6867E+02
      8.979  0.1055E+02  0.1054E+02  0.7014E+02  0.7015E+02
      9.118  0.6870E+01  0.6846E+01  0.7110E+02  0.7110E+02
      9.258  0.4166E+01  0.4159E+01  0.7168E+02  0.7169E+02
      9.398  0.1951E+01  0.1936E+01  0.7196E+02  0.7196E+02
      9.538  0.2500E+00  0.2466E+00  0.7200E+02  0.7200E+02
      9.677  0.7250E-02  0.7142E-02  0.7200E+02  0.7200E+02
      9.817  0.0000E+00  0.0000E+00  0.7200E+02  0.7200E+02
      9.957  0.0000E+00  0.0000E+00  0.7200E+02  0.7200E+02
     10.097  0.0000E+00  0.0000E+00  0.7200E+02  0.7200E+02
     10.236  0.0000E+00  0.0000E+00  0.7200E+02  0.7200E+02
     10.376  0.0000E+00  0.0000E+00  0.7200E+02  0.7200E+02
     10.516  0.0000E+00  0.0000E+00  0.7200E+02  0.7200E+02
     10.656  0.0000E+00  0.0000E+00  0.7200E+02  0.7200E+02
     10.795  0.0000E+00  0.0000E+00  0.7200E+02  0.7200E+02
     10.935  0.0000E+00  0.0000E+00  0.7200E+02  0.7200E+02
     11.075  0.0000E+00  0.0000E+00  0.7200E+02  0.7200E+02
     11.215  0.0000E+00  0.0000E+00  0.7200E+02  0.7200E+02
     11.354  0.0000E+00  0.0000E+00  0.7200E+02  0.7200E+02
     11.494  0.0000E+00  0.0000E+00  0.7200E+02  0.7200E+02
     11.634  0.0000E+00  0.0000E+00  0.7200E+02  0.7200E+02
     11.774  0.0000E+00  0.0000E+00  0.7200E+02  0.7200E+02
     11.913  0.0000E+00  0.0000E+00  0.7200E+02  0.7200E+02
     12.053  0.0000E+00  0.0000E+00  0.7200E+02  0.7200E+02
     12.193  0.0000E+00  0.0000E+00  0.7200E+02  0.7200E+02
     12.333  0.0000E+00  0.0000E+00  0.7200E+02  0.7200E+02
     12.472  0.0000E+00  0.0000E+00  0.7200E+02  0.7200E+02
     12.612  0.0000E+00  0.0000E+00  0.7200E+02  0.7200E+02
     12.752  0.0000E+00  0.0000E+00  0.7200E+02  0.7200E+02
     12.892  0.0000E+00  0.0000E+00  0.7200E+02  0.7200E+02
     13.031  0.0000E+00  0.0000E+00  0.7200E+02  0.7200E+02
     13.171  0.0000E+00  0.0000E+00  0.7200E+02  0.7200E+02
     13.311  0.0000E+00  0.0000E+00  0.7200E+02  0.7200E+02
     13.451  0.0000E+00  0.0000E+00  0.7200E+02  0.7200E+02
     13.590  0.0000E+00  0.0000E+00  0.7200E+02  0.7200E+02
     13.730  0.0000E+00  0.0000E+00  0.7200E+02  0.7200E+02
     13.870  0.0000E+00  0.0000E+00  0.7200E+02  0.7200E+02
     14.010  0.0000E+00  0.0000E+00  0.7200E+02  0.7200E+02
     14.149  0.0000E+00  0.0000E+00  0.7200E+02  0.7200E+02
     14.289  0.0000E+00  0.0000E+00  0.7200E+02  0.7200E+02
     14.429  0.0000E+00  0.0000E+00  0.7200E+02  0.7200E+02
     14.569  0.0000E+00  0.0000E+00  0.7200E+02  0.7200E+02
     14.708  0.0000E+00  0.0000E+00  0.7200E+02  0.7200E+02
     14.848  0.0000E+00  0.0000E+00  0.7200E+02  0.7200E+02
     14.988  0.0000E+00  0.0000E+00  0.7200E+02  0.7200E+02
     15.128  0.0000E+00  0.0000E+00  0.7200E+02  0.7200E+02
     15.267  0.0000E+00  0.0000E+00  0.7200E+02  0.7200E+02
     15.407  0.0000E+00  0.0000E+00  0.7200E+02  0.7200E+02
     15.547  0.0000E+00  0.0000E+00  0.7200E+02  0.7200E+02
     15.687  0.0000E+00  0.0000E+00  0.7200E+02  0.7200E+02
     15.826  0.0000E+00  0.0000E+00  0.7200E+02  0.7200E+02
     15.966  0.0000E+00  0.0000E+00  0.7200E+02  0.7200E+02
     16.106  0.0000E+00  0.0000E+00  0.7200E+02  0.7200E+02
     16.246  0.0000E+00  0.0000E+00  0.7200E+02  0.7200E+02
     16.385  0.0000E+00  0.0000E+00  0.7200E+02  0.7200E+02
     16.525  0.0000E+00  0.0000E+00  0.7200E+02  0.7200E+02
     16.665  0.0000E+00  0.0000E+00  0.7200E+02  0.7200E+02
     16.805  0.0000E+00  0.0000E+00  0.7200E+02  0.7200E+02
     16.944  0.0000E+00  0.0000E+00  0.7200E+02  0.7200E+02
     17.084  0.0000E+00  0.0000E+00  0.7200E+02  0.7200E+02
     17.224  0.0000E+00  0.0000E+00  0.7200E+02  0.7200E+02
     17.364  0.0000E+00  0.0000E+00  0.7200E+02  0.7200E+02
     17.503  0.0000E+00  0.0000E+00  0.7200E+02  0.7200E+02
     17.643  0.0000E+00  0.0000E+00  0.7200E+02  0.7200E+02
     17.783  0.0000E+00  0.0000E+00  0.7200E+02  0.7200E+02
     17.923  0.0000E+00  0.0000E+00  0.7200E+02  0.7200E+02
     18.062  0.0000E+00  0.0000E+00  0.7200E+02  0.7200E+02
     18.202  0.0000E+00  0.0000E+00  0.7200E+02  0.7200E+02
     18.342  0.0000E+00  0.0000E+00  0.7200E+02  0.7200E+02
     18.482  0.0000E+00  0.0000E+00  0.7200E+02  0.7200E+02
     18.621  0.1556E-04  0.1523E-04  0.7200E+02  0.7200E+02
     18.761  0.2389E-03  0.2337E-03  0.7200E+02  0.7200E+02
     18.901  0.3853E-02  0.3770E-02  0.7200E+02  0.7200E+02
     19.041  0.5096E-01  0.5007E-01  0.7201E+02  0.7201E+02
     19.180  0.1727E+00  0.1727E+00  0.7203E+02  0.7203E+02
     19.320  0.5454E-01  0.5547E-01  0.7204E+02  0.7204E+02
     19.460  0.1234E-01  0.1224E-01  0.7204E+02  0.7204E+02
     19.600  0.1078E+00  0.1058E+00  0.7206E+02  0.7206E+02
     19.739  0.6122E+00  0.6059E+00  0.7214E+02  0.7214E+02
     19.879  0.1042E+01  0.1046E+01  0.7229E+02  0.7229E+02
     20.019  0.2467E+00  0.2501E+00  0.7232E+02  0.7232E+02
     20.159  0.4296E+00  0.4201E+00  0.7238E+02  0.7238E+02
     20.298  0.2634E+01  0.2609E+01  0.7275E+02  0.7275E+02
     20.438  0.2955E+01  0.2963E+01  0.7316E+02  0.7316E+02
     20.578  0.3227E+01  0.3219E+01  0.7361E+02  0.7361E+02
     20.717  0.3987E+01  0.3977E+01  0.7417E+02  0.7417E+02
     20.857  0.4886E+01  0.4874E+01  0.7486E+02  0.7485E+02
     20.997  0.5099E+01  0.5110E+01  0.7557E+02  0.7556E+02
     21.137  0.4538E+01  0.4530E+01  0.7620E+02  0.7620E+02
     21.276  0.5644E+01  0.5627E+01  0.7699E+02  0.7698E+02
     21.416  0.7668E+01  0.7683E+01  0.7807E+02  0.7806E+02
     21.556  0.4660E+01  0.4680E+01  0.7872E+02  0.7872E+02
     21.696  0.4051E+01  0.4057E+01  0.7929E+02  0.7928E+02
     21.835  0.3794E+01  0.3790E+01  0.7982E+02  0.7981E+02
     21.975  0.3801E+01  0.3814E+01  0.8035E+02  0.8035E+02
     22.115  0.3084E+01  0.3075E+01  0.8078E+02  0.8078E+02
     22.255  0.4873E+01  0.4860E+01  0.8146E+02  0.8146E+02
     22.394  0.5952E+01  0.5952E+01  0.8230E+02  0.8229E+02
     22.534  0.5981E+01  0.5985E+01  0.8313E+02  0.8313E+02
     22.674  0.6995E+01  0.6990E+01  0.8411E+02  0.8411E+02
     22.814  0.7264E+01  0.7265E+01  0.8513E+02  0.8512E+02
     22.953  0.8587E+01  0.8577E+01  0.8633E+02  0.8632E+02
     23.093  0.8602E+01  0.8617E+01  0.8753E+02  0.8753E+02
     23.233  0.6666E+01  0.6659E+01  0.8847E+02  0.8846E+02
     23.373  0.5765E+01  0.5761E+01  0.8928E+02  0.8927E+02
     23.512  0.6563E+01  0.6550E+01  0.9019E+02  0.9019E+02
     23.652  0.7906E+01  0.7911E+01  0.9130E+02  0.9129E+02
     23.792  0.7592E+01  0.7581E+01  0.9236E+02  0.9235E+02
     23.932  0.6228E+01  0.6154E+01  0.9323E+02  0.9322E+02
     24.071  0.4847E+01  0.4778E+01  0.9391E+02  0.9388E+02
     24.211  0.6222E+01  0.6315E+01  0.9479E+02  0.9477E+02
     24.351  0.7649E+01  0.7740E+01  0.9586E+02  0.9585E+02
     24.491  0.8195E+01  0.7698E+01  0.9700E+02  0.9693E+02
     24.630  0.6054E+01  0.5833E+01  0.9785E+02  0.9775E+02
     24.770  0.3098E+01  0.3533E+01  0.9829E+02  0.9824E+02
     24.910  0.3305E+01  0.3086E+01  0.9875E+02  0.9868E+02
     25.050  0.3984E+01  0.3902E+01  0.9931E+02  0.9922E+02
     25.189  0.2292E+01  0.2117E+01  0.9963E+02  0.9952E+02
     25.329  0.1487E+01  0.1308E+01  0.9984E+02  0.9970E+02
     25.469  0.5269E+00  0.8630E+00  0.9991E+02  0.9983E+02
     25.609  0.5431E-01  0.5642E+00  0.9992E+02  0.9990E+02
     25.748  0.8064E-01  0.1051E+00  0.9993E+02  0.9992E+02
     25.888  0.1695E+00  0.5759E-01  0.9996E+02  0.9993E+02
     26.028  0.1022E+00  0.2703E+00  0.9997E+02  0.9997E+02
     26.168  0.1711E+00  0.2167E+00  0.9999E+02  0.1000E+03
     26.307  0.3843E-01  0.2899E-01  0.1000E+03  0.1000E+03
     26.447  0.2744E-02  0.1578E-02  0.1000E+03  0.1000E+03
     26.587  0.0000E+00  0.0000E+00  0.1000E+03  0.1000E+03
     26.727  0.0000E+00  0.0000E+00  0.1000E+03  0.1000E+03
     26.866  0.0000E+00  0.0000E+00  0.1000E+03  0.1000E+03
     27.006  0.0000E+00  0.0000E+00  0.1000E+03  0.1000E+03
     27.146  0.0000E+00  0.0000E+00  0.1000E+03  0.1000E+03
     27.286  0.0000E+00  0.0000E+00  0.1000E+03  0.1000E+03
     27.425  0.0000E+00  0.0000E+00  0.1000E+03  0.1000E+03
     27.565  0.0000E+00  0.0000E+00  0.1000E+03  0.1000E+03
     27.705  0.0000E+00  0.0000E+00  0.1000E+03  0.1000E+03
     27.845  0.0000E+00  0.0000E+00  0.1000E+03  0.1000E+03
     27.984  0.0000E+00  0.0000E+00  0.1000E+03  0.1000E+03
     27.98437943    -13.93994036  301     10.51618579      1.00000000
    -13.940  0.0000E+00  0.0000E+00  0.0000E+00  0.0000E+00  0.0000E+00  0.0000E+00  0.0000E+00  0.0000E+00  0.0000E+00  0.0000E+00  0.0000E+00  0.0000E+00  0.0000E+00  0.0000E+00  0.0000E+00  0.0000E+00  0.0000E+00  0.0000E+00
    -13.800  0.0000E+00  0.0000E+00  0.0000E+00  0.0000E+00  0.0000E+00  0.0000E+00  0.0000E+00  0.0000E+00  0.0000E+00  0.0000E+00  0.0000E+00  0.0000E+00  0.0000E+00  0.0000E+00  0.0000E+00  0.0000E+00  0.0000E+00  0.0000E+00
    -13.660  0.0000E+00  0.0000E+00  0.0000E+00  0.0000E+00  0.0000E+00  0.0000E+00  0.0000E+00  0.0000E+00  0.0000E+00  0.0000E+00  0.0000E+00  0.0000E+00  0.0000E+00  0.0000E+00  0.0000E+00  0.0000E+00  0.0000E+00  0.0000E+00
    -13.521  0.0000E+00  0.0000E+00  0.0000E+00  0.0000E+00  0.0000E+00  0.0000E+00  0.0000E+00  0.0000E+00  0.0000E+00  0.0000E+00  0.0000E+00  0.0000E+00  0.0000E+00  0.0000E+00  0.0000E+00  0.0000E+00  0.0000E+00  0.0000E+00
    -13.381  0.0000E+00  0.0000E+00  0.0000E+00  0.0000E+00  0.0000E+00  0.0000E+00  0.0000E+00  0.0000E+00  0.0000E+00  0.0000E+00  0.0000E+00  0.0000E+00  0.0000E+00  0.0000E+00  0.0000E+00  0.0000E+00  0.0000E+00  0.0000E+00
    -13.241  0.0000E+00  0.0000E+00  0.0000E+00  0.0000E+00  0.0000E+00  0.0000E+00  0.0000E+00  0.0000E+00  0.0000E+00  0.0000E+00  0.0000E+00  0.0000E+00  0.0000E+00  0.0000E+00  0.0000E+00  0.0000E+00  0.0000E+00  0.0000E+00
    -13.101  0.0000E+00  0.0000E+00  0.0000E+00  0.0000E+00  0.0000E+00  0.0000E+00  0.0000E+00  0.0000E+00  0.0000E+00  0.0000E+00  0.0000E+00  0.0000E+00  0.0000E+00  0.0000E+00  0.0000E+00  0.0000E+00  0.0000E+00  0.0000E+00
    -12.962  0.0000E+00  0.0000E+00  0.0000E+00  0.0000E+00  0.0000E+00  0.0000E+00  0.0000E+00  0.0000E+00  0.0000E+00  0.0000E+00  0.0000E+00  0.0000E+00  0.0000E+00  0.0000E+00  0.0000E+00  0.0000E+00  0.0000E+00  0.0000E+00
    -12.822  0.0000E+00  0.0000E+00  0.0000E+00  0.0000E+00  0.0000E+00  0.0000E+00  0.0000E+00  0.0000E+00  0.0000E+00  0.0000E+00  0.0000E+00  0.0000E+00  0.0000E+00  0.0000E+00  0.0000E+00  0.0000E+00  0.0000E+00  0.0000E+00
    -12.682  0.0000E+00  0.0000E+00  0.0000E+00  0.0000E+00  0.0000E+00  0.0000E+00  0.0000E+00  0.0000E+00  0.0000E+00  0.0000E+00  0.0000E+00  0.0000E+00  0.0000E+00  0.0000E+00  0.0000E+00  0.0000E+00  0.0000E+00  0.0000E+00
    -12.542  0.1144E-06  0.1149E-06  0.3403E-17  0.3322E-17  0.1204E-08  0.1210E-08  0.3403E-17  0.3322E-17  0.0000E+00  0.0000E+00  0.0000E+00  0.0000E+00  0.0000E+00  0.0000E+00  0.0000E+00  0.0000E+00  0.0000E+00  0.0000E+00
    -12.403  0.1756E-05  0.1764E-05  0.5224E-16  0.5100E-16  0.1849E-07  0.1857E-07  0.5224E-16  0.5100E-16  0.0000E+00  0.0000E+00  0.0000E+00  0.0000E+00  0.0000E+00  0.0000E+00  0.0000E+00  0.0000E+00  0.0000E+00  0.0000E+00
    -12.263  0.2945E-04  0.2957E-04  0.2172E-07  0.2183E-07  0.3117E-06  0.3131E-06  0.2172E-07  0.2183E-07  0.0000E+00  0.0000E+00  0.0000E+00  0.0000E+00  0.0000E+00  0.0000E+00  0.0000E+00  0.0000E+00  0.0000E+00  0.0000E+00
    -12.123  0.4147E-03  0.4162E-03  0.3334E-06  0.3350E-06  0.4422E-05  0.4440E-05  0.3334E-06  0.3350E-06  0.0000E+00  0.0000E+00  0.0000E+00  0.0000E+00  0.0000E+00  0.0000E+00  0.0000E+00  0.0000E+00  0.0000E+00  0.0000E+00
    -11.983  0.2015E-02  0.2017E-02  0.5378E-05  0.5403E-05  0.2213E-04  0.2216E-04  0.5378E-05  0.5403E-05  0.0000E+00  0.0000E+00  0.0000E+00  0.0000E+00  0.0000E+00  0.0000E+00  0.0000E+00  0.0000E+00  0.0000E+00  0.0000E+00
    -11.844  0.4101E-02  0.4111E-02  0.6978E-04  0.7005E-04  0.5628E-04  0.5645E-04  0.6979E-04  0.7005E-04  0.0000E+00  0.0000E+00  0.0000E+00  0.0000E+00  0.0000E+00  0.0000E+00  0.0000E+00  0.0000E+00  0.0000E+00  0.0000E+00
    -11.704  0.1149E-01  0.1148E-01  0.2212E-03  0.2212E-03  0.2041E-03  0.2043E-03  0.2212E-03  0.2212E-03  0.0000E+00  0.0000E+00  0.0000E+00  0.0000E+00  0.0000E+00  0.0000E+00  0.0000E+00  0.0000E+00  0.0000E+00  0.0000E+00
    -11.564  0.5724E-02  0.5717E-02  0.1004E-03  0.1004E-03  0.2057E-03  0.2058E-03  0.1004E-03  0.1004E-03  0.0000E+00  0.0000E+00  0.0000E+00  0.0000E+00  0.0000E+00  0.0000E+00  0.0000E+00  0.0000E+00  0.0000E+00  0.0000E+00
    -11.424  0.9739E-02  0.9750E-02  0.2503E-03  0.2508E-03  0.5611E-03  0.5617E-03  0.2503E-03  0.2508E-03  0.0000E+00  0.0000E+00  0.0000E+00  0.0000E+00  0.0000E+00  0.0000E+00  0.0000E+00  0.0000E+00  0.0000E+00  0.0000E+00
    -11.285  0.1151E-01  0.1150E-01  0.5807E-03  0.5815E-03  0.4267E-03  0.4260E-03  0.5807E-03  0.5815E-03  0.0000E+00  0.0000E+00  0.0000E+00  0.0000E+00  0.0000E+00  0.0000E+00  0.0000E+00  0.0000E+00  0.0000E+00  0.0000E+00
    -11.145  0.9596E-02  0.9590E-02  0.6744E-03  0.6742E-03  0.3023E-03  0.3028E-03  0.6744E-03  0.6742E-03  0.0000E+00  0.0000E+00  0.0000E+00  0.0000E+00  0.0000E+00  0.0000E+00  0.0000E+00  0.0000E+00  0.0000E+00  0.0000E+00
    -11.005  0.1598E-01  0.1600E-01  0.1228E-02  0.1230E-02  0.9141E-03  0.9159E-03  0.1228E-02  0.1230E-02  0.0000E+00  0.0000E+00  0.0000E+00  0.0000E+00  0.0000E+00  0.0000E+00  0.0000E+00  0.0000E+00  0.0000E+00  0.0000E+00
    -10.865  0.1737E-01  0.1736E-01  0.1099E-02  0.1098E-02  0.1684E-02  0.1686E-02  0.1099E-02  0.1098E-02  0.0000E+00  0.0000E+00  0.0000E+00  0.0000E+00  0.0000E+00  0.0000E+00  0.0000E+00  0.0000E+00  0.0000E+00  0.0000E+00
    -10.726  0.1476E-01  0.1474E-01  0.9451E-03  0.9447E-03  0.1777E-02  0.1775E-02  0.9451E-03  0.9447E-03  0.0000E+00  0.0000E+00  0.0000E+00  0.0000E+00  0.0000E+00  0.0000E+00  0.0000E+00  0.0000E+00  0.0000E+00  0.0000E+00
    -10.586  0.5355E-02  0.5346E-02  0.5205E-03  0.5203E-03  0.5654E-03  0.5646E-03  0.5205E-03  0.5203E-03  0.0000E+00  0.0000E+00  0.0000E+00  0.0000E+00  0.0000E+00  0.0000E+00  0.0000E+00  0.0000E+00  0.0000E+00  0.0000E+00
    -10.446  0.1401E-01  0.1406E-01  0.1958E-02  0.1966E-02  0.1579E-02  0.1585E-02  0.1958E-02  0.1966E-02  0.0000E+00  0.0000E+00  0.0000E+00  0.0000E+00  0.0000E+00  0.0000E+00  0.0000E+00  0.0000E+00  0.0000E+00  0.0000E+00
    -10.306  0.2480E-01  0.2478E-01  0.3738E-02  0.3736E-02  0.2660E-02  0.2660E-02  0.3738E-02  0.3736E-02  0.0000E+00  0.0000E+00  0.0000E+00  0.0000E+00  0.0000E+00  0.0000E+00  0.0000E+00  0.0000E+00  0.0000E+00  0.0000E+00
    -10.167  0.1871E-01  0.1871E-01  0.2882E-02  0.2882E-02  0.2921E-02  0.2924E-02  0.2882E-02  0.2882E-02  0.0000E+00  0.0000E+00  0.0000E+00  0.0000E+00  0.0000E+00  0.0000E+00  0.0000E+00  0.0000E+00  0.0000E+00  0.0000E+00
    -10.027  0.1602E-01  0.1600E-01  0.2416E-02  0.2413E-02  0.3833E-02  0.3834E-02  0.2416E-02  0.2413E-02  0.0000E+00  0.0000E+00  0.0000E+00  0.0000E+00  0.0000E+00  0.0000E+00  0.0000E+00  0.0000E+00  0.0000E+00  0.0000E+00
     -9.887  0.8663E-02  0.8651E-02  0.1399E-02  0.1398E-02  0.2616E-02  0.2613E-02  0.1399E-02  0.1398E-02  0.0000E+00  0.0000E+00  0.0000E+00  0.0000E+00  0.0000E+00  0.0000E+00  0.0000E+00  0.0000E+00  0.0000E+00  0.0000E+00
     -9.748  0.1184E-01  0.1185E-01  0.2608E-02  0.2613E-02  0.3493E-02  0.3495E-02  0.2608E-02  0.2613E-02  0.0000E+00  0.0000E+00  0.0000E+00  0.0000E+00  0.0000E+00  0.0000E+00  0.0000E+00  0.0000E+00  0.0000E+00  0.0000E+00
     -9.608  0.8253E-02  0.8238E-02  0.2493E-02  0.2492E-02  0.2374E-02  0.2371E-02  0.2493E-02  0.2492E-02  0.0000E+00  0.0000E+00  0.0000E+00  0.0000E+00  0.0000E+00  0.0000E+00  0.0000E+00  0.0000E+00  0.0000E+00  0.0000E+00
     -9.468  0.7236E-02  0.7235E-02  0.2650E-02  0.2651E-02  0.2942E-02  0.2945E-02  0.2650E-02  0.2651E-02  0.0000E+00  0.0000E+00  0.0000E+00  0.0000E+00  0.0000E+00  0.0000E+00  0.0000E+00  0.0000E+00  0.0000E+00  0.0000E+00
     -9.328  0.9621E-02  0.9634E-02  0.4134E-02  0.4140E-02  0.4827E-02  0.4837E-02  0.4134E-02  0.4140E-02  0.0000E+00  0.0000E+00  0.0000E+00  0.0000E+00  0.0000E+00  0.0000E+00  0.0000E+00  0.0000E+00  0.0000E+00  0.0000E+00
     -9.189  0.1159E-01  0.1158E-01  0.5059E-02  0.5056E-02  0.6994E-02  0.6992E-02  0.5059E-02  0.5056E-02  0.0000E+00  0.0000E+00  0.0000E+00  0.0000E+00  0.0000E+00  0.0000E+00  0.0000E+00  0.0000E+00  0.0000E+00  0.0000E+00
     -9.049  0.7648E-02  0.7642E-02  0.4136E-02  0.4141E-02  0.4734E-02  0.4727E-02  0.4136E-02  0.4141E-02  0.0000E+00  0.0000E+00  0.0000E+00  0.0000E+00  0.0000E+00  0.0000E+00  0.0000E+00  0.0000E+00  0.0000E+00  0.0000E+00
     -8.909  0.8300E-02  0.8298E-02  0.7128E-02  0.7135E-02  0.3884E-02  0.3884E-02  0.7128E-02  0.7135E-02  0.0000E+00  0.0000E+00  0.0000E+00  0.0000E+00  0.0000E+00  0.0000E+00  0.0000E+00  0.0000E+00  0.0000E+00  0.0000E+00
     -8.769  0.7633E-02  0.7636E-02  0.8373E-02  0.8386E-02  0.6267E-02  0.6284E-02  0.8373E-02  0.8386E-02  0.0000E+00  0.0000E+00  0.0000E+00  0.0000E+00  0.0000E+00  0.0000E+00  0.0000E+00  0.0000E+00  0.0000E+00  0.0000E+00
     -8.630  0.8904E-02  0.8904E-02  0.1299E-01  0.1300E-01  0.8706E-02  0.8700E-02  0.1299E-01  0.1300E-01  0.0000E+00  0.0000E+00  0.0000E+00  0.0000E+00  0.0000E+00  0.0000E+00  0.0000E+00  0.0000E+00  0.0000E+00  0.0000E+00
     -8.490  0.7554E-02  0.7541E-02  0.1276E-01  0.1275E-01  0.6122E-02  0.6112E-02  0.1276E-01  0.1275E-01  0.0000E+00  0.0000E+00  0.0000E+00  0.0000E+00  0.0000E+00  0.0000E+00  0.0000E+00  0.0000E+00  0.0000E+00  0.0000E+00
     -8.350  0.5508E-02  0.5509E-02  0.9887E-02  0.9889E-02  0.4913E-02  0.4918E-02  0.9887E-02  0.9889E-02  0.0000E+00  0.0000E+00  0.0000E+00  0.0000E+00  0.0000E+00  0.0000E+00  0.0000E+00  0.0000E+00  0.0000E+00  0.0000E+00
     -8.210  0.8474E-02  0.8501E-02  0.1060E-01  0.1060E-01  0.7290E-02  0.7307E-02  0.1060E-01  0.1060E-01  0.0000E+00  0.0000E+00  0.0000E+00  0.0000E+00  0.0000E+00  0.0000E+00  0.0000E+00  0.0000E+00  0.0000E+00  0.0000E+00
     -8.071  0.1195E-01  0.1193E-01  0.1051E-01  0.1050E-01  0.1038E-01  0.1038E-01  0.1051E-01  0.1050E-01  0.0000E+00  0.0000E+00  0.0000E+00  0.0000E+00  0.0000E+00  0.0000E+00  0.0000E+00  0.0000E+00  0.0000E+00  0.0000E+00
     -7.931  0.6622E-02  0.6613E-02  0.7752E-02  0.7745E-02  0.6131E-02  0.6122E-02  0.7752E-02  0.7745E-02  0.0000E+00  0.0000E+00  0.0000E+00  0.0000E+00  0.0000E+00  0.0000E+00  0.0000E+00  0.0000E+00  0.0000E+00  0.0000E+00
     -7.791  0.6741E-02  0.6738E-02  0.7024E-02  0.7020E-02  0.7531E-02  0.7543E-02  0.7024E-02  0.7020E-02  0.0000E+00  0.0000E+00  0.0000E+00  0.0000E+00  0.0000E+00  0.0000E+00  0.0000E+00  0.0000E+00  0.0000E+00  0.0000E+00
     -7.651  0.5745E-02  0.5738E-02  0.5922E-02  0.5915E-02  0.7281E-02  0.7267E-02  0.5922E-02  0.5915E-02  0.0000E+00  0.0000E+00  0.0000E+00  0.0000E+00  0.0000E+00  0.0000E+00  0.0000E+00  0.0000E+00  0.0000E+00  0.0000E+00
     -7.512  0.2530E-02  0.2509E-02  0.2464E-02  0.2443E-02  0.2884E-02  0.2859E-02  0.2464E-02  0.2443E-02  0.0000E+00  0.0000E+00  0.0000E+00  0.0000E+00  0.0000E+00  0.0000E+00  0.0000E+00  0.0000E+00  0.0000E+00  0.0000E+00
     -7.372  0.2415E-03  0.2383E-03  0.2361E-03  0.2329E-03  0.2737E-03  0.2700E-03  0.2361E-03  0.2329E-03  0.0000E+00  0.0000E+00  0.0000E+00  0.0000E+00  0.0000E+00  0.0000E+00  0.0000E+00  0.0000E+00  0.0000E+00  0.0000E+00
     -7.232  0.0000E+00  0.0000E+00  0.0000E+00  0.0000E+00  0.0000E+00  0.0000E+00  0.0000E+00  0.0000E+00  0.0000E+00  0.0000E+00  0.0000E+00  0.0000E+00  0.0000E+00  0.0000E+00  0.0000E+00  0.0000E+00  0.0000E+00  0.0000E+00
     -7.092  0.0000E+00  0.0000E+00  0.0000E+00  0.0000E+00  0.0000E+00  0.0000E+00  0.0000E+00  0.0000E+00  0.0000E+00  0.0000E+00  0.0000E+00  0.0000E+00  0.0000E+00  0.0000E+00  0.0000E+00  0.0000E+00  0.0000E+00  0.0000E+00
     -6.953  0.0000E+00  0.0000E+00  0.0000E+00  0.0000E+00  0.0000E+00  0.0000E+00  0.0000E+00  0.0000E+00  0.0000E+00  0.0000E+00  0.0000E+00  0.0000E+00  0.0000E+00  0.0000E+00  0.0000E+00  0.0000E+00  0.0000E+00  0.0000E+00