  30  30   1   0
  0.9006896E+01  0.4853078E-09  0.4853078E-09  0.1324742E-08  0.5000000E-15
  1.000000000000000E-004
  CAR 
 unknown system                          
     20.52259692    -14.89338462  301      6.71047941      1.00000000
    -14.893  0.0000E+00  0.0000E+00  0.0000E+00  0.0000E+00
    -14.775  0.0000E+00  0.0000E+00  0.0000E+00  0.0000E+00
    -14.657  0.0000E+00  0.0000E+00  0.0000E+00  0.0000E+00
    -14.539  0.0000E+00  0.0000E+00  0.0000E+00  0.0000E+00
    -14.421  0.0000E+00  0.0000E+00  0.0000E+00  0.0000E+00
    -14.303  0.0000E+00  0.0000E+00  0.0000E+00  0.0000E+00
    -14.185  0.0000E+00  0.0000E+00  0.0000E+00  0.0000E+00
    -14.067  0.0000E+00  0.0000E+00  0.0000E+00  0.0000E+00
    -13.949  0.0000E+00  0.0000E+00  0.0000E+00  0.0000E+00
    -13.831  0.0000E+00  0.0000E+00  0.0000E+00  0.0000E+00
    -13.713  0.6312E-04  0.6327E-04  0.7451E-05  0.7469E-05
    -13.595  0.7373E-03  0.7391E-03  0.9449E-04  0.9473E-04
    -13.477  0.7640E-02  0.7659E-02  0.9964E-03  0.9989E-03
    -13.359  0.6904E-01  0.6918E-01  0.9147E-02  0.9166E-02
    -13.241  0.3188E+00  0.3193E+00  0.4679E-01  0.4686E-01
    -13.123  0.9536E+00  0.9548E+00  0.1594E+00  0.1596E+00
    -13.005  0.1332E+01  0.1331E+01  0.3166E+00  0.3168E+00
    -12.886  0.1461E+01  0.1462E+01  0.4890E+00  0.4893E+00
    -12.768  0.1987E+01  0.1988E+01  0.7236E+00  0.7240E+00
    -12.650  0.2360E+01  0.2362E+01  0.1003E+01  0.1003E+01
    -12.532  0.3305E+01  0.3306E+01  0.1393E+01  0.1394E+01
    -12.414  0.2838E+01  0.2836E+01  0.1728E+01  0.1728E+01
    -12.296  0.2613E+01  0.2618E+01  0.2036E+01  0.2038E+01
    -12.178  0.5255E+01  0.5259E+01  0.2658E+01  0.2659E+01
    -12.060  0.5169E+01  0.5168E+01  0.3268E+01  0.3270E+01
    -11.942  0.4098E+01  0.4096E+01  0.3752E+01  0.3754E+01
    -11.824  0.3862E+01  0.3864E+01  0.4210E+01  0.4212E+01
    -11.706  0.3756E+01  0.3757E+01  0.4654E+01  0.4656E+01
    -11.588  0.4733E+01  0.4741E+01  0.5214E+01  0.5217E+01
    -11.470  0.6186E+01  0.6188E+01  0.5945E+01  0.5947E+01
    -11.352  0.7001E+01  0.7011E+01  0.6771E+01  0.6775E+01
    -11.234  0.1016E+02  0.1018E+02  0.7972E+01  0.7978E+01
    -11.116  0.1274E+02  0.1275E+02  0.9478E+01  0.9485E+01
    -10.998  0.1285E+02  0.1286E+02  0.1100E+02  0.1100E+02
    -10.880  0.1573E+02  0.1574E+02  0.1285E+02  0.1286E+02
    -10.762  0.1559E+02  0.1559E+02  0.1470E+02  0.1471E+02
    -10.643  0.1603E+02  0.1602E+02  0.1659E+02  0.1660E+02
    -10.525  0.9783E+01  0.9730E+01  0.1775E+02  0.1775E+02
    -10.407  0.1904E+01  0.1883E+01  0.1797E+02  0.1797E+02
    -10.289  0.1779E+00  0.1757E+00  0.1800E+02  0.1800E+02
    -10.171  0.0000E+00  0.0000E+00  0.1800E+02  0.1800E+02
    -10.053  0.0000E+00  0.0000E+00  0.1800E+02  0.1800E+02
     -9.935  0.0000E+00  0.0000E+00  0.1800E+02  0.1800E+02
     -9.817  0.0000E+00  0.0000E+00  0.1800E+02  0.1800E+02
     -9.699  0.0000E+00  0.0000E+00  0.1800E+02  0.1800E+02
     -9.581  0.0000E+00  0.0000E+00  0.1800E+02  0.1800E+02
     -9.463  0.0000E+00  0.0000E+00  0.1800E+02  0.1800E+02
     -9.345  0.0000E+00  0.0000E+00  0.1800E+02  0.1800E+02
     -9.227  0.0000E+00  0.0000E+00  0.1800E+02  0.1800E+02
     -9.109  0.0000E+00  0.0000E+00  0.1800E+02  0.1800E+02
     -8.991  0.0000E+00  0.0000E+00  0.1800E+02  0.1800E+02
     -8.873  0.0000E+00  0.0000E+00  0.1800E+02  0.1800E+02
     -8.755  0.0000E+00  0.0000E+00  0.1800E+02  0.1800E+02
     -8.637  0.0000E+00  0.0000E+00  0.1800E+02  0.1800E+02
     -8.519  0.0000E+00  0.0000E+00  0.1800E+02  0.1800E+02
     -8.400  0.0000E+00  0.0000E+00  0.1800E+02  0.1800E+02
     -8.282  0.0000E+00  0.0000E+00  0.1800E+02  0.1800E+02
     -8.164  0.0000E+00  0.0000E+00  0.1800E+02  0.1800E+02
     -8.046  0.0000E+00  0.0000E+00  0.1800E+02  0.1800E+02
     -7.928  0.0000E+00  0.0000E+00  0.1800E+02  0.1800E+02
     -7.810  0.0000E+00  0.0000E+00  0.1800E+02  0.1800E+02
     -7.692  0.0000E+00  0.0000E+00  0.1800E+02  0.1800E+02
     -7.574  0.0000E+00  0.0000E+00  0.1800E+02  0.1800E+02
     -7.456  0.0000E+00  0.0000E+00  0.1800E+02  0.1800E+02
     -7.338  0.0000E+00  0.0000E+00  0.1800E+02  0.1800E+02
     -7.220  0.0000E+00  0.0000E+00  0.1800E+02  0.1800E+02
     -7.102  0.0000E+00  0.0000E+00  0.1800E+02  0.1800E+02
     -6.984  0.0000E+00  0.0000E+00  0.1800E+02  0.1800E+02
     -6.866  0.0000E+00  0.0000E+00  0.1800E+02  0.1800E+02
     -6.748  0.0000E+00  0.0000E+00  0.1800E+02  0.1800E+02
     -6.630  0.0000E+00  0.0000E+00  0.1800E+02  0.1800E+02
     -6.512  0.0000E+00  0.0000E+00  0.1800E+02  0.1800E+02
     -6.394  0.0000E+00  0.0000E+00  0.1800E+02  0.1800E+02
     -6.275  0.0000E+00  0.0000E+00  0.1800E+02  0.1800E+02
     -6.157  0.0000E+00  0.0000E+00  0.1800E+02  0.1800E+02
     -6.039  0.0000E+00  0.0000E+00  0.1800E+02  0.1800E+02
     -5.921  0.0000E+00  0.0000E+00  0.1800E+02  0.1800E+02
     -5.803  0.0000E+00  0.0000E+00  0.1800E+02  0.1800E+02
     -5.685  0.0000E+00  0.0000E+00  0.1800E+02  0.1800E+02
     -5.567  0.0000E+00  0.0000E+00  0.1800E+02  0.1800E+02
     -5.449  0.0000E+00  0.0000E+00  0.1800E+02  0.1800E+02
     -5.331  0.0000E+00  0.0000E+00  0.1800E+02  0.1800E+02
     -5.213  0.0000E+00  0.0000E+00  0.1800E+02  0.1800E+02
     -5.095  0.0000E+00  0.0000E+00  0.1800E+02  0.1800E+02
     -4.977  0.0000E+00  0.0000E+00  0.1800E+02  0.1800E+02
     -4.859  0.0000E+00  0.0000E+00  0.1800E+02  0.1800E+02
     -4.741  0.0000E+00  0.0000E+00  0.1800E+02  0.1800E+02
     -4.623  0.0000E+00  0.0000E+00  0.1800E+02  0.1800E+02
     -4.505  0.0000E+00  0.0000E+00  0.1800E+02  0.1800E+02
     -4.387  0.0000E+00  0.0000E+00  0.1800E+02  0.1800E+02
     -4.269  0.0000E+00  0.0000E+00  0.1800E+02  0.1800E+02
     -4.151  0.0000E+00  0.0000E+00  0.1800E+02  0.1800E+02
     -4.032  0.0000E+00  0.0000E+00  0.1800E+02  0.1800E+02
     -3.914  0.0000E+00  0.0000E+00  0.1800E+02  0.1800E+02
     -3.796  0.0000E+00  0.0000E+00  0.1800E+02  0.1800E+02
     -3.678  0.0000E+00  0.0000E+00  0.1800E+02  0.1800E+02
     -3.560  0.0000E+00  0.0000E+00  0.1800E+02  0.1800E+02
     -3.442  0.0000E+00  0.0000E+00  0.1800E+02  0.1800E+02
     -3.324  0.0000E+00  0.0000E+00  0.1800E+02  0.1800E+02
     -3.206  0.0000E+00  0.0000E+00  0.1800E+02  0.1800E+02
     -3.088  0.0000E+00  0.0000E+00  0.1800E+02  0.1800E+02
     -2.970  0.0000E+00  0.0000E+00  0.1800E+02  0.1800E+02
     -2.852  0.0000E+00  0.0000E+00  0.1800E+02  0.1800E+02
     -2.734  0.0000E+00  0.0000E+00  0.1800E+02  0.1800E+02
     -2.616  0.0000E+00  0.0000E+00  0.1800E+02  0.1800E+02
     -2.498  0.0000E+00  0.0000E+00  0.1800E+02  0.1800E+02
     -2.380  0.0000E+00  0.0000E+00  0.1800E+02  0.1800E+02
     -2.262  0.0000E+00  0.0000E+00  0.1800E+02  0.1800E+02
     -2.144  0.0000E+00  0.0000E+00  0.1800E+02  0.1800E+02
     -2.026  0.0000E+00  0.0000E+00  0.1800E+02  0.1800E+02
     -1.908  0.0000E+00  0.0000E+00  0.1800E+02  0.1800E+02
     -1.789  0.0000E+00  0.0000E+00  0.1800E+02  0.1800E+02
     -1.671  0.0000E+00  0.0000E+00  0.1800E+02  0.1800E+02
     -1.553  0.0000E+00  0.0000E+00  0.1800E+02  0.1800E+02
     -1.435  0.8002E-04  0.7927E-04  0.1800E+02  0.1800E+02
     -1.317  0.1070E-02  0.1061E-02  0.1800E+02  0.1800E+02
     -1.199  0.1108E-01  0.1098E-01  0.1800E+02  0.1800E+02
     -1.081  0.9862E-01  0.9787E-01  0.1801E+02  0.1801E+02
     -0.963  0.4786E+00  0.4762E+00  0.1807E+02  0.1807E+02
     -0.845  0.1326E+01  0.1323E+01  0.1823E+02  0.1823E+02
     -0.727  0.1687E+01  0.1687E+01  0.1843E+02  0.1842E+02
     -0.609  0.2455E+01  0.2450E+01  0.1872E+02  0.1871E+02
     -0.491  0.4408E+01  0.4398E+01  0.1924E+02  0.1923E+02
     -0.373  0.8158E+01  0.8147E+01  0.2020E+02  0.2020E+02
     -0.255  0.7857E+01  0.7868E+01  0.2113E+02  0.2112E+02
     -0.137  0.7848E+01  0.7839E+01  0.2205E+02  0.2205E+02
     -0.019  0.9567E+01  0.9570E+01  0.2318E+02  0.2318E+02
      0.099  0.8252E+01  0.8257E+01  0.2416E+02  0.2416E+02
      0.217  0.5929E+01  0.5938E+01  0.2486E+02  0.2486E+02
      0.335  0.4802E+01  0.4802E+01  0.2543E+02  0.2543E+02
      0.454  0.5253E+01  0.5254E+01  0.2605E+02  0.2605E+02
      0.572  0.4742E+01  0.4744E+01  0.2661E+02  0.2661E+02
      0.690  0.6195E+01  0.6192E+01  0.2734E+02  0.2734E+02
      0.808  0.7267E+01  0.7268E+01  0.2820E+02  0.2820E+02
      0.926  0.6614E+01  0.6614E+01  0.2898E+02  0.2898E+02
      1.044  0.7029E+01  0.7030E+01  0.2981E+02  0.2981E+02
      1.162  0.4556E+01  0.4563E+01  0.3035E+02  0.3035E+02
      1.280  0.2870E+01  0.2869E+01  0.3069E+02  0.3069E+02
      1.398  0.5336E+01  0.5330E+01  0.3132E+02  0.3132E+02
      1.516  0.8390E+01  0.8389E+01  0.3232E+02  0.3231E+02
      1.634  0.8308E+01  0.8310E+01  0.3330E+02  0.3330E+02
      1.752  0.9554E+01  0.9553E+01  0.3443E+02  0.3442E+02
      1.870  0.8319E+01  0.8324E+01  0.3541E+02  0.3541E+02
      1.988  0.5605E+01  0.5608E+01  0.3607E+02  0.3607E+02
      2.106  0.4980E+01  0.4981E+01  0.3666E+02  0.3666E+02
      2.224  0.6084E+01  0.6085E+01  0.3738E+02  0.3738E+02
      2.342  0.5867E+01  0.5869E+01  0.3808E+02  0.3808E+02
      2.460  0.7431E+01  0.7431E+01  0.3895E+02  0.3895E+02
      2.578  0.6265E+01  0.6266E+01  0.3969E+02  0.3969E+02
      2.697  0.4844E+01  0.4845E+01  0.4027E+02  0.4027E+02
      2.815  0.5217E+01  0.5218E+01  0.4088E+02  0.4088E+02
      2.933  0.5181E+01  0.5184E+01  0.4150E+02  0.4150E+02
      3.051  0.7577E+01  0.7579E+01  0.4239E+02  0.4239E+02
      3.169  0.8389E+01  0.8392E+01  0.4338E+02  0.4338E+02
      3.287  0.1148E+02  0.1149E+02  0.4474E+02  0.4474E+02
      3.405  0.1412E+02  0.1412E+02  0.4641E+02  0.4641E+02
      3.523  0.1038E+02  0.1037E+02  0.4763E+02  0.4763E+02
      3.641  0.8333E+01  0.8332E+01  0.4862E+02  0.4862E+02
      3.759  0.7612E+01  0.7618E+01  0.4952E+02  0.4952E+02
      3.877  0.1115E+02  0.1116E+02  0.5084E+02  0.5084E+02
      3.995  0.1336E+02  0.1337E+02  0.5242E+02  0.5242E+02
      4.113  0.1389E+02  0.1389E+02  0.5406E+02  0.5406E+02
      4.231  0.1443E+02  0.1443E+02  0.5576E+02  0.5577E+02
      4.349  0.1466E+02  0.1467E+02  0.5749E+02  0.5750E+02
      4.467  0.1456E+02  0.1456E+02  0.5921E+02  0.5922E+02
      4.585  0.1203E+02  0.1203E+02  0.6064E+02  0.6064E+02
      4.703  0.1257E+02  0.1257E+02  0.6212E+02  0.6213E+02
      4.822  0.1241E+02  0.1242E+02  0.6359E+02  0.6360E+02
      4.940  0.1381E+02  0.1381E+02  0.6522E+02  0.6523E+02
      5.058  0.1390E+02  0.1390E+02  0.6687E+02  0.6687E+02
      5.176  0.1403E+02  0.1404E+02  0.6852E+02  0.6853E+02
      5.294  0.1450E+02  0.1449E+02  0.7024E+02  0.7025E+02
      5.412  0.9616E+01  0.9582E+01  0.7138E+02  0.7138E+02
      5.530  0.4293E+01  0.4264E+01  0.7189E+02  0.7189E+02
      5.648  0.8432E+00  0.8329E+00  0.7199E+02  0.7199E+02
      5.766  0.8253E-01  0.8137E-01  0.7200E+02  0.7200E+02
      5.884  0.0000E+00  0.0000E+00  0.7200E+02  0.7200E+02
      6.002  0.0000E+00  0.0000E+00  0.7200E+02  0.7200E+02
      6.120  0.0000E+00  0.0000E+00  0.7200E+02  0.7200E+02
      6.238  0.0000E+00  0.0000E+00  0.7200E+02  0.7200E+02
      6.356  0.0000E+00  0.0000E+00  0.7200E+02  0.7200E+02
      6.474  0.0000E+00  0.0000E+00  0.7200E+02  0.7200E+02
      6.592  0.0000E+00  0.0000E+00  0.7200E+02  0.7200E+02
      6.710  0.0000E+00  0.0000E+00  0.7200E+02  0.7200E+02
      6.828  0.0000E+00  0.0000E+00  0.7200E+02  0.7200E+02
      6.946  0.0000E+00  0.0000E+00  0.7200E+02  0.7200E+02
      7.065  0.0000E+00  0.0000E+00  0.7200E+02  0.7200E+02
      7.183  0.0000E+00  0.0000E+00  0.7200E+02  0.7200E+02
      7.301  0.0000E+00  0.0000E+00  0.7200E+02  0.7200E+02
      7.419  0.0000E+00  0.0000E+00  0.7200E+02  0.7200E+02
      7.537  0.0000E+00  0.0000E+00  0.7200E+02  0.7200E+02
      7.655  0.0000E+00  0.0000E+00  0.7200E+02  0.7200E+02
      7.773  0.0000E+00  0.0000E+00  0.7200E+02  0.7200E+02
      7.891  0.0000E+00  0.0000E+00  0.7200E+02  0.7200E+02
      8.009  0.0000E+00  0.0000E+00  0.7200E+02  0.7200E+02
      8.127  0.0000E+00  0.0000E+00  0.7200E+02  0.7200E+02
      8.245  0.0000E+00  0.0000E+00  0.7200E+02  0.7200E+02
      8.363  0.0000E+00  0.0000E+00  0.7200E+02  0.7200E+02
      8.481  0.0000E+00  0.0000E+00  0.7200E+02  0.7200E+02
      8.599  0.0000E+00  0.0000E+00  0.7200E+02  0.7200E+02
      8.717  0.0000E+00  0.0000E+00  0.7200E+02  0.7200E+02
      8.835  0.0000E+00  0.0000E+00  0.7200E+02  0.7200E+02
      8.953  0.0000E+00  0.0000E+00  0.7200E+02  0.7200E+02
      9.071  0.0000E+00  0.0000E+00  0.7200E+02  0.7200E+02
      9.189  0.0000E+00  0.0000E+00  0.7200E+02  0.7200E+02
      9.308  0.0000E+00  0.0000E+00  0.7200E+02  0.7200E+02
      9.426  0.0000E+00  0.0000E+00  0.7200E+02  0.7200E+02
      9.544  0.0000E+00  0.0000E+00  0.7200E+02  0.7200E+02
      9.662  0.0000E+00  0.0000E+00  0.7200E+02  0.7200E+02
      9.780  0.0000E+00  0.0000E+00  0.7200E+02  0.7200E+02
      9.898  0.0000E+00  0.0000E+00  0.7200E+02  0.7200E+02
     10.016  0.0000E+00  0.0000E+00  0.7200E+02  0.7200E+02
     10.134  0.0000E+00  0.0000E+00  0.7200E+02  0.7200E+02
     10.252  0.0000E+00  0.0000E+00  0.7200E+02  0.7200E+02
     10.370  0.0000E+00  0.0000E+00  0.7200E+02  0.7200E+02
     10.488  0.0000E+00  0.0000E+00  0.7200E+02  0.7200E+02
     10.606  0.0000E+00  0.0000E+00  0.7200E+02  0.7200E+02
     10.724  0.7480E-04  0.7304E-04  0.7200E+02  0.7200E+02
     10.842  0.7166E-03  0.6998E-03  0.7200E+02  0.7200E+02
     10.960  0.7415E-02  0.7245E-02  0.7200E+02  0.7200E+02
     11.078  0.6238E-01  0.6125E-01  0.7201E+02  0.7201E+02
     11.196  0.1788E+00  0.1786E+00  0.7203E+02  0.7203E+02
     11.314  0.7832E-01  0.7964E-01  0.7204E+02  0.7204E+02
     11.432  0.1011E-01  0.1034E-01  0.7204E+02  0.7204E+02
     11.551  0.1094E-02  0.1072E-02  0.7204E+02  0.7204E+02
     11.669  0.1150E-01  0.1127E-01  0.7204E+02  0.7204E+02
     11.787  0.1147E+00  0.1125E+00  0.7206E+02  0.7205E+02
     11.905  0.7326E+00  0.7245E+00  0.7214E+02  0.7214E+02
     12.023  0.1099E+01  0.1104E+01  0.7227E+02  0.7227E+02
     12.141  0.3581E+00  0.3632E+00  0.7231E+02  0.7231E+02
     12.259  0.5025E-01  0.5118E-01  0.7232E+02  0.7232E+02
     12.377  0.1246E-01  0.1234E-01  0.7232E+02  0.7232E+02
     12.495  0.9840E-01  0.9674E-01  0.7233E+02  0.7233E+02
     12.613  0.6554E+00  0.6486E+00  0.7241E+02  0.7241E+02
     12.731  0.1007E+01  0.1011E+01  0.7253E+02  0.7253E+02
     12.849  0.3744E+00  0.3760E+00  0.7257E+02  0.7257E+02
     12.967  0.8025E+00  0.7957E+00  0.7267E+02  0.7267E+02
     13.085  0.1049E+01  0.1053E+01  0.7279E+02  0.7279E+02
     13.203  0.3707E+00  0.3745E+00  0.7284E+02  0.7284E+02
     13.321  0.2764E+00  0.2737E+00  0.7287E+02  0.7287E+02
     13.439  0.1429E+01  0.1415E+01  0.7304E+02  0.7304E+02
     13.557  0.2305E+01  0.2309E+01  0.7331E+02  0.7331E+02
     13.676  0.1589E+01  0.1594E+01  0.7350E+02  0.7350E+02
     13.794  0.1000E+01  0.1001E+01  0.7362E+02  0.7361E+02
     13.912  0.1312E+01  0.1312E+01  0.7377E+02  0.7377E+02
     14.030  0.6386E+00  0.6427E+00  0.7385E+02  0.7385E+02
     14.148  0.1130E+01  0.1112E+01  0.7398E+02  0.7398E+02
     14.266  0.4670E+01  0.4631E+01  0.7453E+02  0.7453E+02
     14.384  0.6853E+01  0.6853E+01  0.7534E+02  0.7533E+02
     14.502  0.5960E+01  0.5961E+01  0.7604E+02  0.7604E+02
     14.620  0.5448E+01  0.5465E+01  0.7669E+02  0.7668E+02
     14.738  0.3847E+01  0.3852E+01  0.7714E+02  0.7714E+02
     14.856  0.5237E+01  0.5204E+01  0.7776E+02  0.7776E+02
     14.974  0.8003E+01  0.7983E+01  0.7871E+02  0.7870E+02
     15.092  0.8725E+01  0.8737E+01  0.7974E+02  0.7973E+02
     15.210  0.6698E+01  0.6698E+01  0.8053E+02  0.8052E+02
     15.328  0.7394E+01  0.7395E+01  0.8141E+02  0.8140E+02
     15.446  0.7198E+01  0.7197E+01  0.8226E+02  0.8225E+02
     15.564  0.8211E+01  0.8205E+01  0.8323E+02  0.8322E+02
     15.682  0.6542E+01  0.6570E+01  0.8400E+02  0.8399E+02
     15.800  0.3503E+01  0.3526E+01  0.8442E+02  0.8441E+02
     15.919  0.3806E+01  0.3777E+01  0.8487E+02  0.8486E+02
     16.037  0.7333E+01  0.7286E+01  0.8573E+02  0.8572E+02
     16.155  0.7592E+01  0.7630E+01  0.8663E+02  0.8662E+02
     16.273  0.4892E+01  0.4907E+01  0.8721E+02  0.8720E+02
     16.391  0.4373E+01  0.4368E+01  0.8772E+02  0.8772E+02
     16.509  0.6926E+01  0.6869E+01  0.8854E+02  0.8853E+02
     16.627  0.9665E+01  0.9672E+01  0.8969E+02  0.8967E+02
     16.745  0.6530E+01  0.6589E+01  0.9046E+02  0.9045E+02
     16.863  0.2865E+01  0.2882E+01  0.9080E+02  0.9079E+02
     16.981  0.3237E+01  0.3223E+01  0.9118E+02  0.9117E+02
     17.099  0.3454E+01  0.3429E+01  0.9159E+02  0.9158E+02
     17.217  0.4275E+01  0.4239E+01  0.9209E+02  0.9208E+02
     17.335  0.7223E+01  0.7119E+01  0.9295E+02  0.9292E+02
     17.453  0.8103E+01  0.8233E+01  0.9390E+02  0.9389E+02
     17.571  0.5231E+01  0.5309E+01  0.9452E+02  0.9452E+02
     17.689  0.4036E+01  0.3929E+01  0.9500E+02  0.9499E+02
     17.807  0.4859E+01  0.4659E+01  0.9557E+02  0.9554E+02
     17.925  0.6530E+01  0.6283E+01  0.9635E+02  0.9628E+02
     18.043  0.7444E+01  0.5886E+01  0.9723E+02  0.9698E+02
     18.162  0.6110E+01  0.5969E+01  0.9795E+02  0.9768E+02
     18.280  0.4952E+01  0.4858E+01  0.9853E+02  0.9826E+02
     18.398  0.4250E+01  0.5183E+01  0.9904E+02  0.9887E+02
     18.516  0.3737E+01  0.4456E+01  0.9948E+02  0.9940E+02
     18.634  0.2663E+01  0.3140E+01  0.9979E+02  0.9977E+02
     18.752  0.6905E+00  0.1627E+01  0.9987E+02  0.9996E+02
     18.870  0.3307E+00  0.2906E+00  0.9991E+02  0.1000E+03
     18.988  0.5289E+00  0.2660E-01  0.9998E+02  0.1000E+03
     19.106  0.1642E+00  0.0000E+00  0.1000E+03  0.1000E+03
     19.224  0.1889E-01  0.0000E+00  0.1000E+03  0.1000E+03
     19.342  0.0000E+00  0.0000E+00  0.1000E+03  0.1000E+03
     19.460  0.0000E+00  0.0000E+00  0.1000E+03  0.1000E+03
     19.578  0.0000E+00  0.0000E+00  0.1000E+03  0.1000E+03
     19.696  0.0000E+00  0.0000E+00  0.1000E+03  0.1000E+03
     19.814  0.0000E+00  0.0000E+00  0.1000E+03  0.1000E+03
     19.932  0.0000E+00  0.0000E+00  0.1000E+03  0.1000E+03
     20.050  0.0000E+00  0.0000E+00  0.1000E+03  0.1000E+03
     20.168  0.0000E+00  0.0000E+00  0.1000E+03  0.1000E+03
     20.286  0.0000E+00  0.0000E+00  0.1000E+03  0.1000E+03
     20.405  0.0000E+00  0.0000E+00  0.1000E+03  0.1000E+03
     20.523  0.0000E+00  0.0000E+00  0.1000E+03  0.1000E+03
     20.52259692    -14.89338462  301      6.71047941      1.00000000
    -14.893  0.0000E+00  0.0000E+00  0.0000E+00  0.0000E+00  0.0000E+00  0.0000E+00  0.0000E+00  0.0000E+00  0.0000E+00  0.0000E+00  0.0000E+00  0.0000E+00  0.0000E+00  0.0000E+00  0.0000E+00  0.0000E+00  0.0000E+00  0.0000E+00
    -14.775  0.0000E+00  0.0000E+00  0.0000E+00  0.0000E+00  0.0000E+00  0.0000E+00  0.0000E+00  0.0000E+00  0.0000E+00  0.0000E+00  0.0000E+00  0.0000E+00  0.0000E+00  0.0000E+00  0.0000E+00  0.0000E+00  0.0000E+00  0.0000E+00
    -14.657  0.0000E+00  0.0000E+00  0.0000E+00  0.0000E+00  0.0000E+00  0.0000E+00  0.0000E+00  0.0000E+00  0.0000E+00  0.0000E+00  0.0000E+00  0.0000E+00  0.0000E+00  0.0000E+00  0.0000E+00  0.0000E+00  0.0000E+00  0.0000E+00
    -14.539  0.0000E+00  0.0000E+00  0.0000E+00  0.0000E+00  0.0000E+00  0.0000E+00  0.0000E+00  0.0000E+00  0.0000E+00  0.0000E+00  0.0000E+00  0.0000E+00  0.0000E+00  0.0000E+00  0.0000E+00  0.0000E+00  0.0000E+00  0.0000E+00
    -14.421  0.0000E+00  0.0000E+00  0.0000E+00  0.0000E+00  0.0000E+00  0.0000E+00  0.0000E+00  0.0000E+00  0.0000E+00  0.0000E+00  0.0000E+00  0.0000E+00  0.0000E+00  0.0000E+00  0.0000E+00  0.0000E+00  0.0000E+00  0.0000E+00
    -14.303  0.0000E+00  0.0000E+00  0.0000E+00  0.0000E+00  0.0000E+00  0.0000E+00  0.0000E+00  0.0000E+00  0.0000E+00  0.0000E+00  0.0000E+00  0.0000E+00  0.0000E+00  0.0000E+00  0.0000E+00  0.0000E+00  0.0000E+00  0.0000E+00
    -14.185  0.0000E+00  0.0000E+00  0.0000E+00  0.0000E+00  0.0000E+00  0.0000E+00  0.0000E+00  0.0000E+00  0.0000E+00  0.0000E+00  0.0000E+00  0.0000E+00  0.0000E+00  0.0000E+00  0.0000E+00  0.0000E+00  0.0000E+00  0.0000E+00
    -14.067  0.0000E+00  0.0000E+00  0.0000E+00  0.0000E+00  0.0000E+00  0.0000E+00  0.0000E+00  0.0000E+00  0.0000E+00  0.0000E+00  0.0000E+00  0.0000E+00  0.0000E+00  0.0000E+00  0.0000E+00  0.0000E+00  0.0000E+00  0.0000E+00
    -13.949  0.0000E+00  0.0000E+00  0.0000E+00  0.0000E+00  0.0000E+00  0.0000E+00  0.0000E+00  0.0000E+00  0.0000E+00  0.0000E+00  0.0000E+00  0.0000E+00  0.0000E+00  0.0000E+00  0.0000E+00  0.0000E+00  0.0000E+00  0.0000E+00
    -13.831  0.0000E+00  0.0000E+00  0.0000E+00  0.0000E+00  0.0000E+00  0.0000E+00  0.0000E+00  0.0000E+00  0.0000E+00  0.0000E+00  0.0000E+00  0.0000E+00  0.0000E+00  0.0000E+00  0.0000E+00  0.0000E+00  0.0000E+00  0.0000E+00
    -13.713  0.3607E-06  0.3615E-06  0.3104E-16  0.3194E-16  0.2954E-08  0.2961E-08  0.3104E-16  0.3194E-16  0.0000E+00  0.0000E+00  0.0000E+00  0.0000E+00  0.0000E+00  0.0000E+00  0.0000E+00  0.0000E+00  0.0000E+00  0.0000E+00
    -13.595  0.4159E-05  0.4168E-05  0.1418E-07  0.1422E-07  0.3498E-07  0.3506E-07  0.1418E-07  0.1422E-07  0.0000E+00  0.0000E+00  0.0000E+00  0.0000E+00  0.0000E+00  0.0000E+00  0.0000E+00  0.0000E+00  0.0000E+00  0.0000E+00
    -13.477  0.4310E-04  0.4319E-04  0.1361E-06  0.1365E-06  0.3823E-06  0.3832E-06  0.1361E-06  0.1365E-06  0.0000E+00  0.0000E+00  0.0000E+00  0.0000E+00  0.0000E+00  0.0000E+00  0.0000E+00  0.0000E+00  0.0000E+00  0.0000E+00
    -13.359  0.3884E-03  0.3892E-03  0.1454E-05  0.1458E-05  0.3520E-05  0.3527E-05  0.1454E-05  0.1458E-05  0.0000E+00  0.0000E+00  0.0000E+00  0.0000E+00  0.0000E+00  0.0000E+00  0.0000E+00  0.0000E+00  0.0000E+00  0.0000E+00
    -13.241  0.1761E-02  0.1763E-02  0.1439E-04  0.1442E-04  0.1785E-04  0.1787E-04  0.1439E-04  0.1442E-04  0.0000E+00  0.0000E+00  0.0000E+00  0.0000E+00  0.0000E+00  0.0000E+00  0.0000E+00  0.0000E+00  0.0000E+00  0.0000E+00
    -13.123  0.5073E-02  0.5078E-02  0.8559E-04  0.8570E-04  0.6847E-04  0.6857E-04  0.8559E-04  0.8570E-04  0.0000E+00  0.0000E+00  0.0000E+00  0.0000E+00  0.0000E+00  0.0000E+00  0.0000E+00  0.0000E+00  0.0000E+00  0.0000E+00
    -13.005  0.6934E-02  0.6931E-02  0.1260E-03  0.1260E-03  0.1533E-03  0.1534E-03  0.1260E-03  0.1260E-03  0.0000E+00  0.0000E+00  0.0000E+00  0.0000E+00  0.0000E+00  0.0000E+00  0.0000E+00  0.0000E+00  0.0000E+00  0.0000E+00
    -12.886  0.7092E-02  0.7096E-02  0.1923E-03  0.1926E-03  0.2987E-03  0.2989E-03  0.1923E-03  0.1926E-03  0.0000E+00  0.0000E+00  0.0000E+00  0.0000E+00  0.0000E+00  0.0000E+00  0.0000E+00  0.0000E+00  0.0000E+00  0.0000E+00
    -12.768  0.9121E-02  0.9121E-02  0.4435E-03  0.4438E-03  0.3122E-03  0.3121E-03  0.4435E-03  0.4438E-03  0.0000E+00  0.0000E+00  0.0000E+00  0.0000E+00  0.0000E+00  0.0000E+00  0.0000E+00  0.0000E+00  0.0000E+00  0.0000E+00
    -12.650  0.1004E-01  0.1004E-01  0.6759E-03  0.6764E-03  0.4329E-03  0.4337E-03  0.6759E-03  0.6764E-03  0.0000E+00  0.0000E+00  0.0000E+00  0.0000E+00  0.0000E+00  0.0000E+00  0.0000E+00  0.0000E+00  0.0000E+00  0.0000E+00
    -12.532  0.1340E-01  0.1340E-01  0.8732E-03  0.8730E-03  0.9819E-03  0.9829E-03  0.8732E-03  0.8730E-03  0.0000E+00  0.0000E+00  0.0000E+00  0.0000E+00  0.0000E+00  0.0000E+00  0.0000E+00  0.0000E+00  0.0000E+00  0.0000E+00
    -12.414  0.1094E-01  0.1092E-01  0.7257E-03  0.7255E-03  0.1090E-02  0.1089E-02  0.7257E-03  0.7255E-03  0.0000E+00  0.0000E+00  0.0000E+00  0.0000E+00  0.0000E+00  0.0000E+00  0.0000E+00  0.0000E+00  0.0000E+00  0.0000E+00
    -12.296  0.8751E-02  0.8762E-02  0.1015E-02  0.1017E-02  0.8560E-03  0.8572E-03  0.1015E-02  0.1017E-02  0.0000E+00  0.0000E+00  0.0000E+00  0.0000E+00  0.0000E+00  0.0000E+00  0.0000E+00  0.0000E+00  0.0000E+00  0.0000E+00
    -12.178  0.1628E-01  0.1629E-01  0.2325E-02  0.2327E-02  0.1658E-02  0.1660E-02  0.2325E-02  0.2327E-02  0.0000E+00  0.0000E+00  0.0000E+00  0.0000E+00  0.0000E+00  0.0000E+00  0.0000E+00  0.0000E+00  0.0000E+00  0.0000E+00
    -12.060  0.1488E-01  0.1487E-01  0.2233E-02  0.2231E-02  0.2177E-02  0.2178E-02  0.2233E-02  0.2231E-02  0.0000E+00  0.0000E+00  0.0000E+00  0.0000E+00  0.0000E+00  0.0000E+00  0.0000E+00  0.0000E+00  0.0000E+00  0.0000E+00
    -11.942  0.1060E-01  0.1059E-01  0.1661E-02  0.1660E-02  0.2444E-02  0.2443E-02  0.1661E-02  0.1660E-02  0.0000E+00  0.0000E+00  0.0000E+00  0.0000E+00  0.0000E+00  0.0000E+00  0.0000E+00  0.0000E+00  0.0000E+00  0.0000E+00
    -11.824  0.8435E-02  0.8433E-02  0.1842E-02  0.1844E-02  0.2271E-02  0.2271E-02  0.1842E-02  0.1844E-02  0.0000E+00  0.0000E+00  0.0000E+00  0.0000E+00  0.0000E+00  0.0000E+00  0.0000E+00  0.0000E+00  0.0000E+00  0.0000E+00
    -11.706  0.6776E-02  0.6769E-02  0.2145E-02  0.2145E-02  0.2132E-02  0.2133E-02  0.2145E-02  0.2145E-02  0.0000E+00  0.0000E+00  0.0000E+00  0.0000E+00  0.0000E+00  0.0000E+00  0.0000E+00  0.0000E+00  0.0000E+00  0.0000E+00
    -11.588  0.6764E-02  0.6768E-02  0.2781E-02  0.2784E-02  0.3207E-02  0.3212E-02  0.2781E-02  0.2784E-02  0.0000E+00  0.0000E+00  0.0000E+00  0.0000E+00  0.0000E+00  0.0000E+00  0.0000E+00  0.0000E+00  0.0000E+00  0.0000E+00
    -11.470  0.7824E-02  0.7820E-02  0.3656E-02  0.3657E-02  0.4276E-02  0.4275E-02  0.3656E-02  0.3657E-02  0.0000E+00  0.0000E+00  0.0000E+00  0.0000E+00  0.0000E+00  0.0000E+00  0.0000E+00  0.0000E+00  0.0000E+00  0.0000E+00
    -11.352  0.6933E-02  0.6931E-02  0.4836E-02  0.4845E-02  0.3773E-02  0.3774E-02  0.4836E-02  0.4845E-02  0.0000E+00  0.0000E+00  0.0000E+00  0.0000E+00  0.0000E+00  0.0000E+00  0.0000E+00  0.0000E+00  0.0000E+00  0.0000E+00
    -11.234  0.6904E-02  0.6905E-02  0.7606E-02  0.7619E-02  0.4932E-02  0.4939E-02  0.7606E-02  0.7619E-02  0.0000E+00  0.0000E+00  0.0000E+00  0.0000E+00  0.0000E+00  0.0000E+00  0.0000E+00  0.0000E+00  0.0000E+00  0.0000E+00
    -11.116  0.6997E-02  0.6991E-02  0.9596E-02  0.9595E-02  0.5277E-02  0.5272E-02  0.9596E-02  0.9595E-02  0.0000E+00  0.0000E+00  0.0000E+00  0.0000E+00  0.0000E+00  0.0000E+00  0.0000E+00  0.0000E+00  0.0000E+00  0.0000E+00
    -10.998  0.6248E-02  0.6246E-02  0.8478E-02  0.8471E-02  0.4861E-02  0.4864E-02  0.8478E-02  0.8471E-02  0.0000E+00  0.0000E+00  0.0000E+00  0.0000E+00  0.0000E+00  0.0000E+00  0.0000E+00  0.0000E+00  0.0000E+00  0.0000E+00
    -10.880  0.7939E-02  0.7942E-02  0.7733E-02  0.7728E-02  0.6319E-02  0.6324E-02  0.7733E-02  0.7728E-02  0.0000E+00  0.0000E+00  0.0000E+00  0.0000E+00  0.0000E+00  0.0000E+00  0.0000E+00  0.0000E+00  0.0000E+00  0.0000E+00
    -10.762  0.6573E-02  0.6561E-02  0.5975E-02  0.5967E-02  0.5768E-02  0.5763E-02  0.5975E-02  0.5967E-02  0.0000E+00  0.0000E+00  0.0000E+00  0.0000E+00  0.0000E+00  0.0000E+00  0.0000E+00  0.0000E+00  0.0000E+00  0.0000E+00
    -10.643  0.5034E-02  0.5025E-02  0.4621E-02  0.4614E-02  0.5163E-02  0.5157E-02  0.4621E-02  0.4614E-02  0.0000E+00  0.0000E+00  0.0000E+00  0.0000E+00  0.0000E+00  0.0000E+00  0.0000E+00  0.0000E+00  0.0000E+00  0.0000E+00
    -10.525  0.2675E-02  0.2659E-02  0.2378E-02  0.2364E-02  0.2681E-02  0.2664E-02  0.2378E-02  0.2364E-02  0.0000E+00  0.0000E+00  0.0000E+00  0.0000E+00  0.0000E+00  0.0000E+00  0.0000E+00  0.0000E+00  0.0000E+00  0.0000E+00
    -10.407  0.5144E-03  0.5086E-03  0.4353E-03  0.4304E-03  0.4847E-03  0.4793E-03  0.4353E-03  0.4304E-03  0.0000E+00  0.0000E+00  0.0000E+00  0.0000E+00  0.0000E+00  0.0000E+00  0.0000E+00  0.0000E+00  0.0000E+00  0.0000E+00
    -10.289  0.4613E-04  0.4555E-04  0.3918E-04  0.3869E-04  0.4220E-04  0.4168E-04  0.3918E-04  0.3869E-04  0.0000E+00  0.0000E+00  0.0000E+00  0.0000E+00  0.0000E+00  0.0000E+00  0.0000E+00  0.0000E+00  0.0000E+00  0.0000E+00
    -10.171  0.0000E+00  0.0000E+00  0.0000E+00  0.0000E+00  0.0000E+00  0.0000E+00  0.0000E+00  0.0000E+00  0.0000E+00  0.0000E+00  0.0000E+00  0.0000E+00  0.0000E+00  0.0000E+00  0.0000E+00  0.0000E+00  0.0000E+00  0.0000E+00
    -10.053  0.0000E+00  0.0000E+00  0.0000E+00  0.0000E+00  0.0000E+00  0.0000E+00  0.0000E+00  0.0000E+00  0.0000E+00  0.0000E+00  0.0000E+00  0.0000E+00  0.0000E+00  0.0000E+00  0.0000E+00  0.0000E+00  0.0000E+00  0.0000E+00
     -9.935  0.0000E+00  0.0000E+00  0.0000E+00  0.0000E+00  0.0000E+00  0.0000E+00  0.0000E+00  0.0000E+00  0.0000E+00  0.0000E+00  0.0000E+00  0.0000E+00  0.0000E+00  0.0000E+00  0.0000E+00  0.0000E+00  0.0000E+00  0.0000E+00
     -9.817  0.0000E+00  0.0000E+00  0.0000E+00  0.0000E+00  0.0000E+00  0.0000E+00  0.0000E+00  0.0000E+00  0.0000E+00  0.0000E+00  0.0000E+00  0.0000E+00  0.0000E+00  0.0000E+00  0.0000E+00  0.0000E+00  0.0000E+00  0.0000E+00
     -9.699  0.0000E+00  0.0000E+00  0.0000E+00  0.0000E+00  0.0000E+00  0.0000E+00  0.0000E+00  0.0000E+00  0.0000E+00  0.0000E+00  0.0000E+00  0.0000E+00  0.0000E+00  0.0000E+00  0.0000E+00  0.0000E+00  0.0000E+00  0.0000E+00
     -9.581  0.0000E+00  0.0000E+00  0.0000E+00  0.0000E+00  0.0000E+00  0.0000E+00  0.0000E+00  0.0000E+00  0.0000E+00  0.0000E+00  0.0000E+00  0.0000E+00  0.0000E+00  0.0000E+00  0.0000E+00  0.0000E+00  0.0000E+00  0.0000E+00
     -9.463  0.0000E+00  0.0000E+00  0.0000E+00  0.0000E+00  0.0000E+00  0.0000E+00  0.0000E+00  0.0000E+00  0.0000E+00  0.0000E+00  0.0000E+00  0.0000E+00  0.0000E+00  0.0000E+00  0.0000E+00  0.0000E+00  0.0000E+00  0.0000E+00
     -9.345  0.0000E+00  0.0000E+00  0.0000E+00  0.0000E+00  0.0000E+00  0.0000E+00  0.0000E+00  0.0000E+00  0.0000E+00  0.0000E+00  0.0000E+00  0.0000E+00  0.0000E+00  0.0000E+00  0.0000E+00  0.0000E+00  0.0000E+00  0.0000E+00
     -9.227  0.0000E+00  0.0000E+00  0.0000E+00  0.0000E+00  0.0000E+00  0.0000E+00  0.0000E+00  0.0000E+00  0.0000E+00  0.0000E+00  0.0000E+00  0.0000E+00  0.0000E+00  0.0000E+00  0.0000E+00  0.0000E+00  0.0000E+00  0.0000E+00
     -9.109  0.0000E+00  0.0000E+00  0.0000E+00  0.0000E+00  0.0000E+00  0.0000E+00  0.0000E+00  0.0000E+00  0.0000E+00  0.0000E+00  0.0000E+00  0.0000E+00  0.0000E+00  0.0000E+00  0.0000E+00  0.0000E+00  0.0000E+00  0.0000E+00
     -8.991  0.0000E+00  0.0000E+00  0.0000E+00  0.0000E+00  0.0000E+00  0.0000E+00  0.0000E+00  0.0000E+00  0.0000E+00  0.0000E+00  0.0000E+00  0.0000E+00  0.0000E+00  0.0000E+00  0.0000E+00  0.0000E+00  0.0000E+00  0.0000E+00