   8   8   1   0
  0.1608044E+02  0.3877983E-09  0.3877983E-09  0.8554136E-09  0.5000000E-15
  1.000000000000000E-004
  CAR 
 unknown system                          
     12.72327940     -3.67872650  301      7.31630304      1.00000000
     -3.679  0.0000E+00  0.0000E+00  0.0000E+00  0.0000E+00
     -3.624  0.0000E+00  0.0000E+00  0.0000E+00  0.0000E+00
     -3.569  0.0000E+00  0.0000E+00  0.0000E+00  0.0000E+00
     -3.515  0.0000E+00  0.0000E+00  0.0000E+00  0.0000E+00
     -3.460  0.0000E+00  0.0000E+00  0.0000E+00  0.0000E+00
     -3.405  0.0000E+00  0.0000E+00  0.0000E+00  0.0000E+00
     -3.351  0.3654E-05  0.3632E-05  0.1998E-06  0.1986E-06
     -3.296  0.3011E-04  0.2993E-04  0.1846E-05  0.1835E-05
     -3.241  0.1139E-03  0.1133E-03  0.8075E-05  0.8028E-05
     -3.187  0.3314E-03  0.3295E-03  0.2619E-04  0.2604E-04
     -3.132  0.9804E-03  0.9747E-03  0.7980E-04  0.7933E-04
     -3.077  0.2907E-02  0.2890E-02  0.2387E-03  0.2373E-03
     -3.023  0.8227E-02  0.8183E-02  0.6885E-03  0.6847E-03
     -2.968  0.2156E-01  0.2146E-01  0.1867E-02  0.1858E-02
     -2.913  0.4876E-01  0.4857E-01  0.4533E-02  0.4514E-02
     -2.859  0.8902E-01  0.8879E-01  0.9401E-02  0.9368E-02
     -2.804  0.1296E+00  0.1294E+00  0.1648E-01  0.1644E-01
     -2.749  0.1618E+00  0.1617E+00  0.2533E-01  0.2528E-01
     -2.695  0.1968E+00  0.1966E+00  0.3609E-01  0.3603E-01
     -2.640  0.2359E+00  0.2357E+00  0.4899E-01  0.4891E-01
     -2.585  0.2567E+00  0.2567E+00  0.6302E-01  0.6295E-01
     -2.531  0.2642E+00  0.2641E+00  0.7747E-01  0.7739E-01
     -2.476  0.2831E+00  0.2830E+00  0.9295E-01  0.9286E-01
     -2.421  0.3028E+00  0.3027E+00  0.1095E+00  0.1094E+00
     -2.367  0.3237E+00  0.3236E+00  0.1272E+00  0.1271E+00
     -2.312  0.3648E+00  0.3646E+00  0.1472E+00  0.1471E+00
     -2.257  0.3943E+00  0.3943E+00  0.1687E+00  0.1686E+00
     -2.203  0.3930E+00  0.3931E+00  0.1902E+00  0.1901E+00
     -2.148  0.3832E+00  0.3833E+00  0.2112E+00  0.2111E+00
     -2.093  0.3747E+00  0.3747E+00  0.2317E+00  0.2316E+00
     -2.039  0.3974E+00  0.3971E+00  0.2534E+00  0.2533E+00
     -1.984  0.4480E+00  0.4478E+00  0.2779E+00  0.2778E+00
     -1.929  0.4698E+00  0.4698E+00  0.3036E+00  0.3035E+00
     -1.875  0.4812E+00  0.4810E+00  0.3299E+00  0.3298E+00
     -1.820  0.5188E+00  0.5185E+00  0.3583E+00  0.3582E+00
     -1.765  0.5492E+00  0.5492E+00  0.3884E+00  0.3882E+00
     -1.710  0.5383E+00  0.5384E+00  0.4178E+00  0.4177E+00
     -1.656  0.4988E+00  0.4990E+00  0.4451E+00  0.4449E+00
     -1.601  0.4720E+00  0.4721E+00  0.4709E+00  0.4708E+00
     -1.546  0.4813E+00  0.4812E+00  0.4972E+00  0.4971E+00
     -1.492  0.5365E+00  0.5361E+00  0.5266E+00  0.5264E+00
     -1.437  0.6252E+00  0.6247E+00  0.5608E+00  0.5606E+00
     -1.382  0.6902E+00  0.6900E+00  0.5985E+00  0.5983E+00
     -1.328  0.7058E+00  0.7058E+00  0.6371E+00  0.6369E+00
     -1.273  0.6924E+00  0.6926E+00  0.6750E+00  0.6748E+00
     -1.218  0.6575E+00  0.6577E+00  0.7110E+00  0.7108E+00
     -1.164  0.6289E+00  0.6289E+00  0.7454E+00  0.7452E+00
     -1.109  0.6348E+00  0.6347E+00  0.7801E+00  0.7799E+00
     -1.054  0.6419E+00  0.6419E+00  0.8152E+00  0.8150E+00
     -1.000  0.6390E+00  0.6390E+00  0.8502E+00  0.8500E+00
     -0.945  0.6551E+00  0.6550E+00  0.8860E+00  0.8858E+00
     -0.890  0.6963E+00  0.6960E+00  0.9241E+00  0.9239E+00
     -0.836  0.7432E+00  0.7431E+00  0.9647E+00  0.9645E+00
     -0.781  0.7243E+00  0.7246E+00  0.1004E+01  0.1004E+01
     -0.726  0.6536E+00  0.6539E+00  0.1040E+01  0.1040E+01
     -0.672  0.6623E+00  0.6620E+00  0.1076E+01  0.1076E+01
     -0.617  0.7433E+00  0.7430E+00  0.1117E+01  0.1117E+01
     -0.562  0.7926E+00  0.7925E+00  0.1160E+01  0.1160E+01
     -0.508  0.7907E+00  0.7908E+00  0.1204E+01  0.1203E+01
     -0.453  0.7488E+00  0.7491E+00  0.1245E+01  0.1244E+01
     -0.398  0.7070E+00  0.7072E+00  0.1283E+01  0.1283E+01
     -0.344  0.7030E+00  0.7030E+00  0.1322E+01  0.1322E+01
     -0.289  0.7076E+00  0.7076E+00  0.1360E+01  0.1360E+01
     -0.234  0.7365E+00  0.7363E+00  0.1401E+01  0.1401E+01
     -0.180  0.8158E+00  0.8155E+00  0.1445E+01  0.1445E+01
     -0.125  0.8959E+00  0.8957E+00  0.1494E+01  0.1494E+01
     -0.070  0.9159E+00  0.9159E+00  0.1544E+01  0.1544E+01
     -0.016  0.9059E+00  0.9059E+00  0.1594E+01  0.1594E+01
      0.039  0.8760E+00  0.8763E+00  0.1642E+01  0.1642E+01
      0.094  0.7799E+00  0.7804E+00  0.1685E+01  0.1684E+01
      0.148  0.6816E+00  0.6819E+00  0.1722E+01  0.1722E+01
      0.203  0.6743E+00  0.6739E+00  0.1759E+01  0.1759E+01
      0.258  0.7827E+00  0.7820E+00  0.1802E+01  0.1801E+01
      0.312  0.8528E+00  0.8527E+00  0.1848E+01  0.1848E+01
      0.367  0.8234E+00  0.8235E+00  0.1893E+01  0.1893E+01
      0.422  0.8484E+00  0.8480E+00  0.1940E+01  0.1939E+01
      0.476  0.9705E+00  0.9698E+00  0.1993E+01  0.1992E+01
      0.531  0.1087E+01  0.1087E+01  0.2052E+01  0.2052E+01
      0.586  0.1132E+01  0.1132E+01  0.2114E+01  0.2114E+01
      0.640  0.1095E+01  0.1096E+01  0.2174E+01  0.2174E+01
      0.695  0.1034E+01  0.1035E+01  0.2231E+01  0.2230E+01
      0.750  0.1011E+01  0.1011E+01  0.2286E+01  0.2286E+01
      0.804  0.9808E+00  0.9810E+00  0.2340E+01  0.2339E+01
      0.859  0.9114E+00  0.9117E+00  0.2389E+01  0.2389E+01
      0.914  0.8894E+00  0.8893E+00  0.2438E+01  0.2438E+01
      0.969  0.9825E+00  0.9821E+00  0.2492E+01  0.2492E+01
      1.023  0.1063E+01  0.1063E+01  0.2550E+01  0.2550E+01
      1.078  0.1022E+01  0.1022E+01  0.2606E+01  0.2606E+01
      1.133  0.9573E+00  0.9572E+00  0.2658E+01  0.2658E+01
      1.187  0.9482E+00  0.9481E+00  0.2710E+01  0.2710E+01
      1.242  0.9947E+00  0.9944E+00  0.2765E+01  0.2764E+01
      1.297  0.1040E+01  0.1041E+01  0.2821E+01  0.2821E+01
      1.351  0.9460E+00  0.9466E+00  0.2873E+01  0.2873E+01
      1.406  0.7873E+00  0.7877E+00  0.2916E+01  0.2916E+01
      1.461  0.7228E+00  0.7227E+00  0.2956E+01  0.2956E+01
      1.515  0.7720E+00  0.7715E+00  0.2998E+01  0.2998E+01
      1.570  0.8711E+00  0.8706E+00  0.3046E+01  0.3045E+01
      1.625  0.9194E+00  0.9192E+00  0.3096E+01  0.3096E+01
      1.679  0.9107E+00  0.9108E+00  0.3146E+01  0.3146E+01
      1.734  0.8852E+00  0.8854E+00  0.3194E+01  0.3194E+01
      1.789  0.8320E+00  0.8322E+00  0.3240E+01  0.3240E+01
      1.843  0.8076E+00  0.8074E+00  0.3284E+01  0.3284E+01
      1.898  0.8685E+00  0.8680E+00  0.3331E+01  0.3331E+01
      1.953  0.1000E+01  0.9992E+00  0.3386E+01  0.3386E+01
      2.007  0.1147E+01  0.1146E+01  0.3449E+01  0.3449E+01
      2.062  0.1235E+01  0.1235E+01  0.3516E+01  0.3516E+01
      2.117  0.1273E+01  0.1272E+01  0.3586E+01  0.3586E+01
      2.171  0.1293E+01  0.1294E+01  0.3657E+01  0.3656E+01
      2.226  0.1306E+01  0.1306E+01  0.3728E+01  0.3728E+01
      2.281  0.1318E+01  0.1318E+01  0.3800E+01  0.3800E+01
      2.335  0.1292E+01  0.1293E+01  0.3871E+01  0.3871E+01
      2.390  0.1196E+01  0.1197E+01  0.3936E+01  0.3936E+01
      2.445  0.1076E+01  0.1077E+01  0.3995E+01  0.3995E+01
      2.499  0.1056E+01  0.1056E+01  0.4053E+01  0.4053E+01
      2.554  0.1116E+01  0.1115E+01  0.4114E+01  0.4114E+01
      2.609  0.1136E+01  0.1136E+01  0.4176E+01  0.4176E+01
      2.663  0.1133E+01  0.1132E+01  0.4238E+01  0.4238E+01
      2.718  0.1205E+01  0.1204E+01  0.4304E+01  0.4304E+01
      2.773  0.1308E+01  0.1308E+01  0.4376E+01  0.4375E+01
      2.827  0.1407E+01  0.1406E+01  0.4453E+01  0.4452E+01
      2.882  0.1452E+01  0.1452E+01  0.4532E+01  0.4532E+01
      2.937  0.1364E+01  0.1365E+01  0.4607E+01  0.4606E+01
      2.991  0.1242E+01  0.1242E+01  0.4675E+01  0.4674E+01
      3.046  0.1161E+01  0.1161E+01  0.4738E+01  0.4738E+01
      3.101  0.1149E+01  0.1148E+01  0.4801E+01  0.4801E+01
      3.155  0.1189E+01  0.1189E+01  0.4866E+01  0.4866E+01
      3.210  0.1176E+01  0.1177E+01  0.4930E+01  0.4930E+01
      3.265  0.1151E+01  0.1151E+01  0.4993E+01  0.4993E+01
      3.319  0.1171E+01  0.1170E+01  0.5058E+01  0.5057E+01
      3.374  0.1235E+01  0.1235E+01  0.5125E+01  0.5125E+01
      3.429  0.1310E+01  0.1310E+01  0.5197E+01  0.5196E+01
      3.483  0.1319E+01  0.1319E+01  0.5269E+01  0.5268E+01
      3.538  0.1276E+01  0.1276E+01  0.5339E+01  0.5338E+01
      3.593  0.1276E+01  0.1276E+01  0.5408E+01  0.5408E+01
      3.648  0.1358E+01  0.1357E+01  0.5483E+01  0.5482E+01
      3.702  0.1464E+01  0.1463E+01  0.5563E+01  0.5562E+01
      3.757  0.1511E+01  0.1511E+01  0.5646E+01  0.5645E+01
      3.812  0.1502E+01  0.1502E+01  0.5728E+01  0.5727E+01
      3.866  0.1429E+01  0.1430E+01  0.5806E+01  0.5805E+01
      3.921  0.1336E+01  0.1336E+01  0.5879E+01  0.5878E+01
      3.976  0.1320E+01  0.1320E+01  0.5951E+01  0.5951E+01
      4.030  0.1391E+01  0.1391E+01  0.6027E+01  0.6027E+01
      4.085  0.1455E+01  0.1455E+01  0.6107E+01  0.6106E+01
      4.140  0.1508E+01  0.1508E+01  0.6189E+01  0.6189E+01
      4.194  0.1548E+01  0.1548E+01  0.6274E+01  0.6274E+01
      4.249  0.1594E+01  0.1594E+01  0.6361E+01  0.6361E+01
      4.304  0.1634E+01  0.1634E+01  0.6451E+01  0.6450E+01
      4.358  0.1632E+01  0.1632E+01  0.6540E+01  0.6539E+01
      4.413  0.1658E+01  0.1657E+01  0.6631E+01  0.6630E+01
      4.468  0.1754E+01  0.1753E+01  0.6727E+01  0.6726E+01
      4.522  0.1889E+01  0.1887E+01  0.6830E+01  0.6829E+01
      4.577  0.1967E+01  0.1966E+01  0.6937E+01  0.6937E+01
      4.632  0.1943E+01  0.1943E+01  0.7044E+01  0.7043E+01
      4.686  0.1833E+01  0.1834E+01  0.7144E+01  0.7143E+01
      4.741  0.1647E+01  0.1648E+01  0.7234E+01  0.7234E+01
      4.796  0.1509E+01  0.1510E+01  0.7317E+01  0.7316E+01
      4.850  0.1511E+01  0.1510E+01  0.7399E+01  0.7399E+01
      4.905  0.1619E+01  0.1618E+01  0.7488E+01  0.7487E+01
      4.960  0.1782E+01  0.1780E+01  0.7585E+01  0.7585E+01
      5.014  0.1948E+01  0.1946E+01  0.7692E+01  0.7691E+01
      5.069  0.2153E+01  0.2151E+01  0.7810E+01  0.7809E+01
      5.124  0.2385E+01  0.2384E+01  0.7940E+01  0.7939E+01
      5.178  0.2622E+01  0.2621E+01  0.8084E+01  0.8082E+01
      5.233  0.2743E+01  0.2743E+01  0.8234E+01  0.8232E+01
      5.288  0.2664E+01  0.2666E+01  0.8379E+01  0.8378E+01
      5.342  0.2459E+01  0.2461E+01  0.8514E+01  0.8513E+01
      5.397  0.2252E+01  0.2253E+01  0.8637E+01  0.8636E+01
      5.452  0.2181E+01  0.2181E+01  0.8756E+01  0.8755E+01
      5.506  0.2352E+01  0.2350E+01  0.8885E+01  0.8884E+01
      5.561  0.2720E+01  0.2716E+01  0.9034E+01  0.9033E+01
      5.616  0.3095E+01  0.3092E+01  0.9203E+01  0.9202E+01
      5.670  0.3279E+01  0.3278E+01  0.9383E+01  0.9381E+01
      5.725  0.3253E+01  0.3254E+01  0.9561E+01  0.9559E+01
      5.780  0.3243E+01  0.3242E+01  0.9738E+01  0.9736E+01
      5.834  0.3511E+01  0.3507E+01  0.9930E+01  0.9928E+01
      5.889  0.3925E+01  0.3920E+01  0.1014E+02  0.1014E+02
      5.944  0.4068E+01  0.4067E+01  0.1037E+02  0.1037E+02
      5.998  0.3872E+01  0.3874E+01  0.1058E+02  0.1058E+02
      6.053  0.3545E+01  0.3548E+01  0.1077E+02  0.1077E+02
      6.108  0.3210E+01  0.3212E+01  0.1095E+02  0.1095E+02
      6.162  0.2992E+01  0.2992E+01  0.1111E+02  0.1111E+02
      6.217  0.2943E+01  0.2942E+01  0.1127E+02  0.1127E+02
      6.272  0.3049E+01  0.3047E+01  0.1144E+02  0.1144E+02
      6.326  0.3148E+01  0.3148E+01  0.1161E+02  0.1161E+02
      6.381  0.3113E+01  0.3114E+01  0.1178E+02  0.1178E+02
      6.436  0.3101E+01  0.3100E+01  0.1195E+02  0.1195E+02
      6.491  0.3289E+01  0.3286E+01  0.1213E+02  0.1213E+02
      6.545  0.3511E+01  0.3510E+01  0.1232E+02  0.1232E+02
      6.600  0.3462E+01  0.3464E+01  0.1251E+02  0.1251E+02
      6.655  0.3077E+01  0.3081E+01  0.1268E+02  0.1268E+02
      6.709  0.2640E+01  0.2644E+01  0.1283E+02  0.1282E+02
      6.764  0.2389E+01  0.2390E+01  0.1296E+02  0.1296E+02
      6.819  0.2289E+01  0.2288E+01  0.1308E+02  0.1308E+02
      6.873  0.2255E+01  0.2254E+01  0.1321E+02  0.1320E+02
      6.928  0.2215E+01  0.2215E+01  0.1333E+02  0.1333E+02
      6.983  0.2128E+01  0.2129E+01  0.1344E+02  0.1344E+02
      7.037  0.2011E+01  0.2011E+01  0.1355E+02  0.1355E+02
      7.092  0.1921E+01  0.1921E+01  0.1366E+02  0.1366E+02
      7.147  0.1841E+01  0.1842E+01  0.1376E+02  0.1376E+02
      7.201  0.1692E+01  0.1694E+01  0.1385E+02  0.1385E+02
      7.256  0.1464E+01  0.1468E+01  0.1393E+02  0.1393E+02
      7.311  0.1148E+01  0.1154E+01  0.1399E+02  0.1399E+02
      7.365  0.8125E+00  0.8179E+00  0.1404E+02  0.1404E+02
      7.420  0.6046E+00  0.6071E+00  0.1407E+02  0.1407E+02
      7.475  0.5921E+00  0.5920E+00  0.1411E+02  0.1410E+02
      7.529  0.7014E+00  0.7004E+00  0.1414E+02  0.1414E+02
      7.584  0.8682E+00  0.8667E+00  0.1419E+02  0.1419E+02
      7.639  0.1140E+01  0.1137E+01  0.1425E+02  0.1425E+02
      7.693  0.1577E+01  0.1572E+01  0.1434E+02  0.1434E+02
      7.748  0.2107E+01  0.2102E+01  0.1445E+02  0.1445E+02
      7.803  0.2733E+01  0.2727E+01  0.1460E+02  0.1460E+02
      7.857  0.3634E+01  0.3625E+01  0.1480E+02  0.1480E+02
      7.912  0.4795E+01  0.4785E+01  0.1507E+02  0.1506E+02
      7.967  0.6035E+01  0.6023E+01  0.1540E+02  0.1539E+02
      8.021  0.7177E+01  0.7170E+01  0.1579E+02  0.1578E+02
      8.076  0.7448E+01  0.7454E+01  0.1619E+02  0.1619E+02
      8.131  0.6466E+01  0.6479E+01  0.1655E+02  0.1655E+02
      8.185  0.4923E+01  0.4935E+01  0.1682E+02  0.1682E+02
      8.240  0.3625E+01  0.3631E+01  0.1702E+02  0.1701E+02
      8.295  0.2841E+01  0.2844E+01  0.1717E+02  0.1717E+02
      8.349  0.2509E+01  0.2508E+01  0.1731E+02  0.1731E+02
      8.404  0.2464E+01  0.2463E+01  0.1744E+02  0.1744E+02
      8.459  0.2418E+01  0.2419E+01  0.1758E+02  0.1757E+02
      8.513  0.2245E+01  0.2248E+01  0.1770E+02  0.1770E+02
      8.568  0.2064E+01  0.2067E+01  0.1781E+02  0.1781E+02
      8.623  0.2000E+01  0.2000E+01  0.1792E+02  0.1792E+02
      8.677  0.2092E+01  0.2091E+01  0.1804E+02  0.1803E+02
      8.732  0.2303E+01  0.2301E+01  0.1816E+02  0.1816E+02
      8.787  0.2517E+01  0.2516E+01  0.1830E+02  0.1830E+02
      8.841  0.2628E+01  0.2628E+01  0.1844E+02  0.1844E+02
      8.896  0.2622E+01  0.2623E+01  0.1859E+02  0.1859E+02
      8.951  0.2630E+01  0.2630E+01  0.1873E+02  0.1873E+02
      9.005  0.2848E+01  0.2847E+01  0.1889E+02  0.1889E+02
      9.060  0.3238E+01  0.3238E+01  0.1906E+02  0.1906E+02
      9.115  0.3468E+01  0.3475E+01  0.1925E+02  0.1925E+02
      9.170  0.3397E+01  0.3409E+01  0.1944E+02  0.1944E+02
      9.224  0.3138E+01  0.3152E+01  0.1961E+02  0.1961E+02
      9.279  0.2732E+01  0.2749E+01  0.1976E+02  0.1976E+02
      9.334  0.2291E+01  0.2317E+01  0.1989E+02  0.1989E+02
      9.388  0.2054E+01  0.2088E+01  0.2000E+02  0.2000E+02
      9.443  0.2103E+01  0.2133E+01  0.2011E+02  0.2012E+02
      9.498  0.2270E+01  0.2301E+01  0.2024E+02  0.2025E+02
      9.552  0.2313E+01  0.2350E+01  0.2036E+02  0.2037E+02
      9.607  0.2166E+01  0.2198E+01  0.2048E+02  0.2049E+02
      9.662  0.2017E+01  0.2045E+01  0.2059E+02  0.2061E+02
      9.716  0.1993E+01  0.2032E+01  0.2070E+02  0.2072E+02
      9.771  0.2074E+01  0.2137E+01  0.2082E+02  0.2083E+02
      9.826  0.2195E+01  0.2274E+01  0.2094E+02  0.2096E+02
      9.880  0.2363E+01  0.2433E+01  0.2106E+02  0.2109E+02
      9.935  0.2656E+01  0.2702E+01  0.2121E+02  0.2124E+02
      9.990  0.2981E+01  0.2985E+01  0.2137E+02  0.2140E+02
     10.044  0.3191E+01  0.3156E+01  0.2155E+02  0.2158E+02
     10.099  0.3187E+01  0.3169E+01  0.2172E+02  0.2175E+02
     10.154  0.2934E+01  0.2961E+01  0.2188E+02  0.2191E+02
     10.208  0.2614E+01  0.2676E+01  0.2203E+02  0.2206E+02
     10.263  0.2401E+01  0.2459E+01  0.2216E+02  0.2219E+02
     10.318  0.2194E+01  0.2198E+01  0.2228E+02  0.2231E+02
     10.372  0.1990E+01  0.1970E+01  0.2239E+02  0.2242E+02
     10.427  0.1930E+01  0.1955E+01  0.2249E+02  0.2253E+02
     10.482  0.1944E+01  0.1999E+01  0.2260E+02  0.2264E+02
     10.536  0.1914E+01  0.1906E+01  0.2270E+02  0.2274E+02
     10.591  0.1892E+01  0.1780E+01  0.2281E+02  0.2284E+02
     10.646  0.1911E+01  0.1752E+01  0.2291E+02  0.2293E+02
     10.700  0.1865E+01  0.1759E+01  0.2301E+02  0.2303E+02
     10.755  0.1717E+01  0.1691E+01  0.2311E+02  0.2312E+02
     10.810  0.1579E+01  0.1615E+01  0.2319E+02  0.2321E+02
     10.864  0.1491E+01  0.1589E+01  0.2327E+02  0.2330E+02
     10.919  0.1390E+01  0.1529E+01  0.2335E+02  0.2338E+02
     10.974  0.1256E+01  0.1369E+01  0.2342E+02  0.2346E+02
     11.028  0.1157E+01  0.1180E+01  0.2348E+02  0.2352E+02
     11.083  0.1116E+01  0.1022E+01  0.2354E+02  0.2358E+02
     11.138  0.1074E+01  0.9158E+00  0.2360E+02  0.2363E+02
     11.192  0.1014E+01  0.8959E+00  0.2366E+02  0.2368E+02
     11.247  0.9699E+00  0.9190E+00  0.2371E+02  0.2373E+02
     11.302  0.8793E+00  0.8573E+00  0.2376E+02  0.2377E+02
     11.356  0.7158E+00  0.6896E+00  0.2380E+02  0.2381E+02
     11.411  0.5798E+00  0.5415E+00  0.2383E+02  0.2384E+02
     11.466  0.5295E+00  0.4868E+00  0.2386E+02  0.2387E+02
     11.520  0.5147E+00  0.4737E+00  0.2389E+02  0.2389E+02
     11.575  0.4642E+00  0.4442E+00  0.2391E+02  0.2392E+02
     11.630  0.3885E+00  0.3847E+00  0.2393E+02  0.2394E+02
     11.684  0.3005E+00  0.2890E+00  0.2395E+02  0.2395E+02
     11.739  0.2097E+00  0.1959E+00  0.2396E+02  0.2397E+02
     11.794  0.1419E+00  0.1590E+00  0.2397E+02  0.2397E+02
     11.849  0.1111E+00  0.1578E+00  0.2398E+02  0.2398E+02
     11.903  0.1142E+00  0.1399E+00  0.2398E+02  0.2399E+02
     11.958  0.1260E+00  0.9519E-01  0.2399E+02  0.2400E+02
     12.013  0.1049E+00  0.4988E-01  0.2399E+02  0.2400E+02
     12.067  0.5957E-01  0.2118E-01  0.2400E+02  0.2400E+02
     12.122  0.2541E-01  0.7911E-02  0.2400E+02  0.2400E+02
     12.177  0.9293E-02  0.2761E-02  0.2400E+02  0.2400E+02
     12.231  0.3222E-02  0.8497E-03  0.2400E+02  0.2400E+02
     12.286  0.1076E-02  0.1380E-03  0.2400E+02  0.2400E+02
     12.341  0.2282E-03  0.4637E-04  0.2400E+02  0.2400E+02
     12.395  0.0000E+00  0.0000E+00  0.2400E+02  0.2400E+02
     12.450  0.0000E+00  0.0000E+00  0.2400E+02  0.2400E+02
     12.505  0.0000E+00  0.0000E+00  0.2400E+02  0.2400E+02
     12.559  0.0000E+00  0.0000E+00  0.2400E+02  0.2400E+02
     12.614  0.0000E+00  0.0000E+00  0.2400E+02  0.2400E+02
     12.669  0.0000E+00  0.0000E+00  0.2400E+02  0.2400E+02
     12.723  0.0000E+00  0.0000E+00  0.2400E+02  0.2400E+02
     12.72327940     -3.67872650  301      7.31630304      1.00000000
     -3.679  0.0000E+00  0.0000E+00  0.0000E+00  0.0000E+00  0.0000E+00  0.0000E+00  0.0000E+00  0.0000E+00  0.0000E+00  0.0000E+00  0.0000E+00  0.0000E+00  0.0000E+00  0.0000E+00  0.0000E+00  0.0000E+00  0.0000E+00  0.0000E+00
     -3.624  0.0000E+00  0.0000E+00  0.0000E+00  0.0000E+00  0.0000E+00  0.0000E+00  0.0000E+00  0.0000E+00  0.0000E+00  0.0000E+00  0.0000E+00  0.0000E+00  0.0000E+00  0.0000E+00  0.0000E+00  0.0000E+00  0.0000E+00  0.0000E+00
     -3.569  0.0000E+00  0.0000E+00  0.0000E+00  0.0000E+00  0.0000E+00  0.0000E+00  0.0000E+00  0.0000E+00  0.0000E+00  0.0000E+00  0.0000E+00  0.0000E+00  0.0000E+00  0.0000E+00  0.0000E+00  0.0000E+00  0.0000E+00  0.0000E+00
     -3.515  0.0000E+00  0.0000E+00  0.0000E+00  0.0000E+00  0.0000E+00  0.0000E+00  0.0000E+00  0.0000E+00  0.0000E+00  0.0000E+00  0.0000E+00  0.0000E+00  0.0000E+00  0.0000E+00  0.0000E+00  0.0000E+00  0.0000E+00  0.0000E+00
     -3.460  0.0000E+00  0.0000E+00  0.0000E+00  0.0000E+00  0.0000E+00  0.0000E+00  0.0000E+00  0.0000E+00  0.0000E+00  0.0000E+00  0.0000E+00  0.0000E+00  0.0000E+00  0.0000E+00  0.0000E+00  0.0000E+00  0.0000E+00  0.0000E+00
     -3.405  0.0000E+00  0.0000E+00  0.0000E+00  0.0000E+00  0.0000E+00  0.0000E+00  0.0000E+00  0.0000E+00  0.0000E+00  0.0000E+00  0.0000E+00  0.0000E+00  0.0000E+00  0.0000E+00  0.0000E+00  0.0000E+00  0.0000E+00  0.0000E+00
     -3.351  0.1918E-06  0.1907E-06  0.1613E-20  0.2263E-20  0.7753E-20  0.7480E-20  0.1613E-20  0.2263E-20  0.1701E-20  0.2414E-18  0.4981E-18  0.4591E-17  0.3164E-11  0.2857E-11  0.4981E-18  0.4591E-17  0.5048E-17  0.7616E-15
     -3.296  0.1566E-05  0.1557E-05  0.3585E-08  0.3563E-08  0.4186E-08  0.4162E-08  0.3585E-08  0.3563E-08  0.2370E-19  0.5273E-18  0.4761E-17  0.1462E-16  0.4068E-10  0.3966E-10  0.4761E-17  0.1462E-16  0.1486E-10  0.1476E-10
     -3.241  0.5894E-05  0.5859E-05  0.2292E-07  0.2278E-07  0.2354E-07  0.2340E-07  0.2292E-07  0.2278E-07  0.1056E-09  0.1050E-09  0.1022E-09  0.1012E-09  0.1657E-09  0.1625E-09  0.1022E-09  0.1012E-09  0.6804E-10  0.6762E-10
     -3.187  0.1712E-04  0.1702E-04  0.6945E-07  0.6903E-07  0.8138E-07  0.8089E-07  0.6945E-07  0.6903E-07  0.4869E-09  0.4838E-09  0.3892E-09  0.3863E-09  0.5282E-09  0.5182E-09  0.3892E-09  0.3863E-09  0.1643E-09  0.1633E-09
     -3.132  0.5061E-04  0.5031E-04  0.2076E-06  0.2064E-06  0.2616E-06  0.2600E-06  0.2076E-06  0.2064E-06  0.1174E-08  0.1167E-08  0.1286E-08  0.1276E-08  0.1702E-08  0.1676E-08  0.1286E-08  0.1276E-08  0.6997E-09  0.6933E-09
     -3.077  0.1499E-03  0.1490E-03  0.6631E-06  0.6591E-06  0.7817E-06  0.7770E-06  0.6631E-06  0.6591E-06  0.4371E-08  0.4345E-08  0.4403E-08  0.4375E-08  0.5375E-08  0.5294E-08  0.4403E-08  0.4375E-08  0.2520E-08  0.2500E-08
     -3.023  0.4241E-03  0.4218E-03  0.1938E-05  0.1927E-05  0.2244E-05  0.2230E-05  0.1938E-05  0.1927E-05  0.1382E-07  0.1374E-07  0.1286E-07  0.1277E-07  0.1553E-07  0.1531E-07  0.1286E-07  0.1277E-07  0.7212E-08  0.7153E-08
     -2.968  0.1110E-02  0.1105E-02  0.5419E-05  0.5389E-05  0.6306E-05  0.6271E-05  0.5419E-05  0.5389E-05  0.3857E-07  0.3835E-07  0.3756E-07  0.3731E-07  0.4278E-07  0.4228E-07  0.3756E-07  0.3731E-07  0.2028E-07  0.2011E-07
     -2.913  0.2504E-02  0.2494E-02  0.1402E-04  0.1395E-04  0.1617E-04  0.1609E-04  0.1402E-04  0.1395E-04  0.1102E-06  0.1097E-06  0.1061E-06  0.1055E-06  0.1088E-06  0.1079E-06  0.1061E-06  0.1055E-06  0.5314E-07  0.5273E-07
     -2.859  0.4550E-02  0.4537E-02  0.3072E-04  0.3060E-04  0.3571E-04  0.3556E-04  0.3072E-04  0.3060E-04  0.2801E-06  0.2789E-06  0.2647E-06  0.2634E-06  0.2395E-06  0.2385E-06  0.2647E-06  0.2634E-06  0.1236E-06  0.1226E-06
     -2.804  0.6573E-02  0.6563E-02  0.5539E-04  0.5523E-04  0.6759E-04  0.6736E-04  0.5539E-04  0.5523E-04  0.5953E-06  0.5933E-06  0.5737E-06  0.5716E-06  0.4650E-06  0.4645E-06  0.5737E-06  0.5716E-06  0.2723E-06  0.2699E-06
     -2.749  0.8122E-02  0.8113E-02  0.8873E-04  0.8850E-04  0.1122E-03  0.1119E-03  0.8873E-04  0.8850E-04  0.1098E-05  0.1095E-05  0.1117E-05  0.1115E-05  0.8462E-06  0.8470E-06  0.1117E-05  0.1115E-05  0.6001E-06  0.5948E-06
     -2.695  0.9755E-02  0.9744E-02  0.1403E-03  0.1400E-03  0.1650E-03  0.1646E-03  0.1403E-03  0.1400E-03  0.2008E-05  0.2004E-05  0.2012E-05  0.2008E-05  0.1479E-05  0.1482E-05  0.2012E-05  0.2008E-05  0.1203E-05  0.1193E-05
     -2.640  0.1156E-01  0.1155E-01  0.2070E-03  0.2067E-03  0.2184E-03  0.2181E-03  0.2070E-03  0.2067E-03  0.3598E-05  0.3594E-05  0.3277E-05  0.3273E-05  0.2352E-05  0.2356E-05  0.3277E-05  0.3273E-05  0.1907E-05  0.1895E-05
     -2.585  0.1244E-01  0.1244E-01  0.2554E-03  0.2552E-03  0.2847E-03  0.2841E-03  0.2554E-03  0.2552E-03  0.5347E-05  0.5347E-05  0.4941E-05  0.4935E-05  0.3273E-05  0.3278E-05  0.4941E-05  0.4935E-05  0.2400E-05  0.2387E-05
     -2.531  0.1261E-01  0.1260E-01  0.2839E-03  0.2837E-03  0.3892E-03  0.3884E-03  0.2839E-03  0.2837E-03  0.7044E-05  0.7047E-05  0.7341E-05  0.7333E-05  0.4320E-05  0.4322E-05  0.7341E-05  0.7333E-05  0.2840E-05  0.2823E-05
     -2.476  0.1330E-01  0.1329E-01  0.3412E-03  0.3408E-03  0.4948E-03  0.4942E-03  0.3412E-03  0.3408E-03  0.1006E-04  0.1006E-04  0.1025E-04  0.1025E-04  0.5903E-05  0.5900E-05  0.1025E-04  0.1025E-04  0.3924E-05  0.3898E-05
     -2.421  0.1404E-01  0.1404E-01  0.4352E-03  0.4347E-03  0.5283E-03  0.5281E-03  0.4352E-03  0.4347E-03  0.1389E-04  0.1390E-04  0.1263E-04  0.1264E-04  0.8049E-05  0.8045E-05  0.1263E-04  0.1264E-04  0.6431E-05  0.6391E-05
     -2.367  0.1480E-01  0.1480E-01  0.5502E-03  0.5495E-03  0.5561E-03  0.5555E-03  0.5502E-03  0.5495E-03  0.1727E-04  0.1728E-04  0.1591E-04  0.1591E-04  0.1078E-04  0.1077E-04  0.1591E-04  0.1591E-04  0.1040E-04  0.1035E-04
     -2.312  0.1642E-01  0.1641E-01  0.6690E-03  0.6684E-03  0.7120E-03  0.7106E-03  0.6690E-03  0.6684E-03  0.2177E-04  0.2178E-04  0.2268E-04  0.2267E-04  0.1415E-04  0.1414E-04  0.2268E-04  0.2267E-04  0.1381E-04  0.1377E-04
     -2.257  0.1747E-01  0.1746E-01  0.7318E-03  0.7316E-03  0.9308E-03  0.9295E-03  0.7318E-03  0.7316E-03  0.2736E-04  0.2738E-04  0.3005E-04  0.3006E-04  0.1760E-04  0.1758E-04  0.3005E-04  0.3006E-04  0.1476E-04  0.1474E-04
     -2.203  0.1713E-01  0.1714E-01  0.7584E-03  0.7582E-03  0.1048E-02  0.1048E-02  0.7584E-03  0.7582E-03  0.3577E-04  0.3578E-04  0.3437E-04  0.3439E-04  0.2098E-04  0.2096E-04  0.3437E-04  0.3439E-04  0.1441E-04  0.1439E-04
     -2.148  0.1646E-01  0.1646E-01  0.8083E-03  0.8080E-03  0.1057E-02  0.1057E-02  0.8083E-03  0.8080E-03  0.4778E-04  0.4781E-04  0.3839E-04  0.3839E-04  0.2338E-04  0.2338E-04  0.3839E-04  0.3839E-04  0.1424E-04  0.1423E-04
     -2.093  0.1581E-01  0.1581E-01  0.8518E-03  0.8515E-03  0.1100E-02  0.1099E-02  0.8518E-03  0.8515E-03  0.5409E-04  0.5418E-04  0.4712E-04  0.4708E-04  0.2406E-04  0.2406E-04  0.4712E-04  0.4708E-04  0.1577E-04  0.1574E-04
     -2.039  0.1640E-01  0.1639E-01  0.9523E-03  0.9514E-03  0.1303E-02  0.1301E-02  0.9523E-03  0.9514E-03  0.5528E-04  0.5540E-04  0.6267E-04  0.6260E-04  0.2717E-04  0.2715E-04  0.6267E-04  0.6260E-04  0.2266E-04  0.2260E-04
     -1.984  0.1818E-01  0.1817E-01  0.1154E-02  0.1153E-02  0.1523E-02  0.1522E-02  0.1154E-02  0.1153E-02  0.6076E-04  0.6088E-04  0.7568E-04  0.7567E-04  0.3612E-04  0.3608E-04  0.7568E-04  0.7567E-04  0.3533E-04  0.3525E-04
     -1.929  0.1877E-01  0.1877E-01  0.1322E-02  0.1321E-02  0.1575E-02  0.1574E-02  0.1322E-02  0.1321E-02  0.7179E-04  0.7188E-04  0.7595E-04  0.7597E-04  0.4829E-04  0.4825E-04  0.7595E-04  0.7597E-04  0.4706E-04  0.4700E-04
     -1.875  0.1884E-01  0.1883E-01  0.1442E-02  0.1442E-02  0.1680E-02  0.1678E-02  0.1442E-02  0.1442E-02  0.9366E-04  0.9369E-04  0.8047E-04  0.8038E-04  0.5964E-04  0.5960E-04  0.8047E-04  0.8038E-04  0.5180E-04  0.5177E-04
     -1.820  0.1989E-01  0.1988E-01  0.1598E-02  0.1597E-02  0.1971E-02  0.1969E-02  0.1598E-02  0.1597E-02  0.1236E-03  0.1236E-03  0.1054E-03  0.1052E-03  0.6640E-04  0.6637E-04  0.1054E-03  0.1052E-03  0.5287E-04  0.5284E-04
     -1.765  0.2070E-01  0.2070E-01  0.1733E-02  0.1733E-02  0.2212E-02  0.2210E-02  0.1733E-02  0.1733E-02  0.1477E-03  0.1478E-03  0.1343E-03  0.1342E-03  0.6886E-04  0.6883E-04  0.1343E-03  0.1342E-03  0.5449E-04  0.5445E-04
     -1.710  0.1988E-01  0.1988E-01  0.1710E-02  0.1711E-02  0.2367E-02  0.2366E-02  0.1710E-02  0.1711E-02  0.1537E-03  0.1539E-03  0.1537E-03  0.1536E-03  0.6918E-04  0.6914E-04  0.1537E-03  0.1536E-03  0.5293E-04  0.5293E-04
     -1.656  0.1792E-01  0.1793E-01  0.1570E-02  0.1571E-02  0.2481E-02  0.2481E-02  0.1570E-02  0.1571E-02  0.1433E-03  0.1435E-03  0.1667E-03  0.1667E-03  0.6641E-04  0.6637E-04  0.1667E-03  0.1667E-03  0.5015E-04  0.5014E-04
     -1.601  0.1648E-01  0.1648E-01  0.1542E-02  0.1542E-02  0.2500E-02  0.2499E-02  0.1542E-02  0.1542E-02  0.1469E-03  0.1470E-03  0.1782E-03  0.1781E-03  0.6375E-04  0.6370E-04  0.1782E-03  0.1781E-03  0.5270E-04  0.5264E-04
     -1.546  0.1628E-01  0.1628E-01  0.1675E-02  0.1674E-02  0.2634E-02  0.2632E-02  0.1675E-02  0.1674E-02  0.1794E-03  0.1795E-03  0.1914E-03  0.1913E-03  0.7245E-04  0.7232E-04  0.1914E-03  0.1913E-03  0.6007E-04  0.5995E-04
     -1.492  0.1752E-01  0.1751E-01  0.1986E-02  0.1984E-02  0.3043E-02  0.3039E-02  0.1986E-02  0.1984E-02  0.2335E-03  0.2335E-03  0.2085E-03  0.2084E-03  0.1022E-03  0.1020E-03  0.2085E-03  0.2084E-03  0.7900E-04  0.7877E-04
     -1.437  0.1990E-01  0.1988E-01  0.2467E-02  0.2464E-02  0.3544E-02  0.3541E-02  0.2467E-02  0.2464E-02  0.2845E-03  0.2846E-03  0.2435E-03  0.2433E-03  0.1380E-03  0.1378E-03  0.2435E-03  0.2433E-03  0.1146E-03  0.1143E-03
     -1.382  0.2150E-01  0.2150E-01  0.2819E-02  0.2818E-02  0.3982E-02  0.3978E-02  0.2819E-02  0.2818E-02  0.3015E-03  0.3017E-03  0.3006E-03  0.3003E-03  0.1529E-03  0.1528E-03  0.3006E-03  0.3003E-03  0.1459E-03  0.1456E-03
     -1.328  0.2126E-01  0.2126E-01  0.2893E-02  0.2893E-02  0.4391E-02  0.4388E-02  0.2893E-02  0.2893E-02  0.3038E-03  0.3039E-03  0.3525E-03  0.3523E-03  0.1501E-03  0.1501E-03  0.3525E-03  0.3523E-03  0.1557E-03  0.1555E-03
     -1.273  0.1992E-01  0.1993E-01  0.2835E-02  0.2835E-02  0.4720E-02  0.4718E-02  0.2835E-02  0.2835E-02  0.3187E-03  0.3188E-03  0.3790E-03  0.3789E-03  0.1462E-03  0.1461E-03  0.3790E-03  0.3789E-03  0.1533E-03  0.1531E-03
     -1.218  0.1816E-01  0.1817E-01  0.2729E-02  0.2730E-02  0.4742E-02  0.4742E-02  0.2729E-02  0.2730E-02  0.3471E-03  0.3472E-03  0.3935E-03  0.3932E-03  0.1371E-03  0.1370E-03  0.3935E-03  0.3932E-03  0.1433E-03  0.1432E-03
     -1.164  0.1691E-01  0.1691E-01  0.2698E-02  0.2697E-02  0.4580E-02  0.4579E-02  0.2698E-02  0.2697E-02  0.3950E-03  0.3950E-03  0.4279E-03  0.4274E-03  0.1217E-03  0.1217E-03  0.4279E-03  0.4274E-03  0.1316E-03  0.1315E-03
     -1.109  0.1657E-01  0.1657E-01  0.2806E-02  0.2805E-02  0.4680E-02  0.4677E-02  0.2806E-02  0.2805E-02  0.4572E-03  0.4571E-03  0.4849E-03  0.4844E-03  0.1196E-03  0.1194E-03  0.4849E-03  0.4844E-03  0.1297E-03  0.1296E-03
     -1.054  0.1592E-01  0.1592E-01  0.2807E-02  0.2808E-02  0.5104E-02  0.5100E-02  0.2807E-02  0.2808E-02  0.4992E-03  0.4992E-03  0.5426E-03  0.5422E-03  0.1319E-03  0.1315E-03  0.5426E-03  0.5422E-03  0.1261E-03  0.1260E-03
     -1.000  0.1519E-01  0.1519E-01  0.2785E-02  0.2784E-02  0.5349E-02  0.5347E-02  0.2785E-02  0.2784E-02  0.5487E-03  0.5484E-03  0.5947E-03  0.5943E-03  0.1472E-03  0.1467E-03  0.5947E-03  0.5943E-03  0.1207E-03  0.1206E-03
     -0.945  0.1563E-01  0.1563E-01  0.3092E-02  0.3090E-02  0.5080E-02  0.5080E-02  0.3092E-02  0.3090E-02  0.6462E-03  0.6460E-03  0.6394E-03  0.6390E-03  0.1631E-03  0.1627E-03  0.6394E-03  0.6390E-03  0.1398E-03  0.1395E-03