   8   8   1   0
  0.1108946E+02  0.3426179E-09  0.3426179E-09  0.7557538E-09  0.5000000E-15
  1.000000000000000E-004
  CAR 
 unknown system                          
     19.08735764     -2.07289694  301     11.34047879      1.00000000
     -2.073  0.0000E+00  0.0000E+00  0.0000E+00  0.0000E+00
     -2.002  0.0000E+00  0.0000E+00  0.0000E+00  0.0000E+00
     -1.932  0.0000E+00  0.0000E+00  0.0000E+00  0.0000E+00
     -1.861  0.0000E+00  0.0000E+00  0.0000E+00  0.0000E+00
     -1.791  0.0000E+00  0.0000E+00  0.0000E+00  0.0000E+00
     -1.720  0.0000E+00  0.0000E+00  0.0000E+00  0.0000E+00
     -1.650  0.0000E+00  0.0000E+00  0.0000E+00  0.0000E+00
     -1.579  0.1030E-05  0.1017E-05  0.7264E-07  0.7173E-07
     -1.509  0.6023E-05  0.5948E-05  0.4975E-06  0.4913E-06
     -1.438  0.4630E-04  0.4572E-04  0.3763E-05  0.3716E-05
     -1.368  0.1862E-03  0.1839E-03  0.1690E-04  0.1668E-04
     -1.297  0.7422E-03  0.7330E-03  0.6925E-04  0.6839E-04
     -1.226  0.2959E-02  0.2924E-02  0.2780E-03  0.2746E-03
     -1.156  0.1070E-01  0.1059E-01  0.1033E-02  0.1022E-02
     -1.085  0.3130E-01  0.3104E-01  0.3240E-02  0.3211E-02
     -1.015  0.6701E-01  0.6666E-01  0.7967E-02  0.7913E-02
     -0.944  0.1020E+00  0.1018E+00  0.1516E-01  0.1509E-01
     -0.874  0.1215E+00  0.1214E+00  0.2373E-01  0.2365E-01
     -0.803  0.1456E+00  0.1453E+00  0.3400E-01  0.3390E-01
     -0.733  0.1864E+00  0.1861E+00  0.4715E-01  0.4703E-01
     -0.662  0.2032E+00  0.2033E+00  0.6149E-01  0.6136E-01
     -0.592  0.1957E+00  0.1958E+00  0.7530E-01  0.7517E-01
     -0.521  0.2143E+00  0.2141E+00  0.9042E-01  0.9028E-01
     -0.451  0.2335E+00  0.2335E+00  0.1069E+00  0.1068E+00
     -0.380  0.2369E+00  0.2367E+00  0.1236E+00  0.1235E+00
     -0.310  0.2784E+00  0.2780E+00  0.1433E+00  0.1431E+00
     -0.239  0.3165E+00  0.3164E+00  0.1656E+00  0.1654E+00
     -0.168  0.3076E+00  0.3078E+00  0.1873E+00  0.1871E+00
     -0.098  0.2994E+00  0.2995E+00  0.2084E+00  0.2083E+00
     -0.027  0.2803E+00  0.2805E+00  0.2282E+00  0.2281E+00
      0.043  0.2869E+00  0.2865E+00  0.2485E+00  0.2483E+00
      0.114  0.3523E+00  0.3518E+00  0.2733E+00  0.2731E+00
      0.184  0.3710E+00  0.3712E+00  0.2995E+00  0.2993E+00
      0.255  0.3602E+00  0.3601E+00  0.3249E+00  0.3247E+00
      0.325  0.4012E+00  0.4008E+00  0.3532E+00  0.3530E+00
      0.396  0.4454E+00  0.4452E+00  0.3847E+00  0.3844E+00
      0.466  0.4370E+00  0.4373E+00  0.4155E+00  0.4153E+00
      0.537  0.3890E+00  0.3894E+00  0.4430E+00  0.4428E+00
      0.607  0.3571E+00  0.3572E+00  0.4682E+00  0.4680E+00
      0.678  0.3566E+00  0.3565E+00  0.4933E+00  0.4931E+00
      0.748  0.3964E+00  0.3959E+00  0.5213E+00  0.5211E+00
      0.819  0.4919E+00  0.4911E+00  0.5561E+00  0.5558E+00
      0.890  0.5638E+00  0.5636E+00  0.5959E+00  0.5956E+00
      0.960  0.5677E+00  0.5678E+00  0.6359E+00  0.6356E+00
      1.031  0.5530E+00  0.5533E+00  0.6749E+00  0.6747E+00
      1.101  0.5210E+00  0.5214E+00  0.7117E+00  0.7115E+00
      1.172  0.4894E+00  0.4894E+00  0.7463E+00  0.7460E+00
      1.242  0.5096E+00  0.5094E+00  0.7822E+00  0.7820E+00
      1.313  0.5220E+00  0.5222E+00  0.8191E+00  0.8189E+00
      1.383  0.5066E+00  0.5066E+00  0.8549E+00  0.8546E+00
      1.454  0.5117E+00  0.5114E+00  0.8910E+00  0.8908E+00
      1.524  0.5558E+00  0.5554E+00  0.9302E+00  0.9300E+00
      1.595  0.6167E+00  0.6165E+00  0.9737E+00  0.9735E+00
      1.665  0.5665E+00  0.5673E+00  0.1014E+01  0.1014E+01
      1.736  0.4782E+00  0.4784E+00  0.1047E+01  0.1047E+01
      1.806  0.5458E+00  0.5450E+00  0.1086E+01  0.1086E+01
      1.877  0.6473E+00  0.6471E+00  0.1132E+01  0.1131E+01
      1.948  0.6518E+00  0.6519E+00  0.1178E+01  0.1177E+01
      2.018  0.6433E+00  0.6434E+00  0.1223E+01  0.1223E+01
      2.089  0.5857E+00  0.5862E+00  0.1264E+01  0.1264E+01
      2.159  0.5233E+00  0.5234E+00  0.1301E+01  0.1301E+01
      2.230  0.5292E+00  0.5291E+00  0.1339E+01  0.1339E+01
      2.300  0.5645E+00  0.5643E+00  0.1379E+01  0.1378E+01
      2.371  0.5965E+00  0.5964E+00  0.1421E+01  0.1420E+01
      2.441  0.6213E+00  0.6208E+00  0.1465E+01  0.1464E+01
      2.512  0.7497E+00  0.7489E+00  0.1517E+01  0.1517E+01
      2.582  0.8463E+00  0.8463E+00  0.1577E+01  0.1577E+01
      2.653  0.7664E+00  0.7669E+00  0.1631E+01  0.1631E+01
      2.723  0.6778E+00  0.6777E+00  0.1679E+01  0.1679E+01
      2.794  0.6634E+00  0.6636E+00  0.1726E+01  0.1726E+01
      2.864  0.6355E+00  0.6358E+00  0.1771E+01  0.1770E+01
      2.935  0.6607E+00  0.6603E+00  0.1817E+01  0.1817E+01
      3.006  0.7074E+00  0.7072E+00  0.1867E+01  0.1867E+01
      3.076  0.7135E+00  0.7132E+00  0.1918E+01  0.1917E+01
      3.147  0.7763E+00  0.7761E+00  0.1973E+01  0.1972E+01
      3.217  0.8102E+00  0.8102E+00  0.2030E+01  0.2029E+01
      3.288  0.8496E+00  0.8494E+00  0.2090E+01  0.2089E+01
      3.358  0.9222E+00  0.9220E+00  0.2155E+01  0.2154E+01
      3.429  0.9489E+00  0.9487E+00  0.2222E+01  0.2221E+01
      3.499  0.9015E+00  0.9021E+00  0.2285E+01  0.2285E+01
      3.570  0.8132E+00  0.8139E+00  0.2343E+01  0.2342E+01
      3.640  0.7989E+00  0.7991E+00  0.2399E+01  0.2399E+01
      3.711  0.8624E+00  0.8624E+00  0.2460E+01  0.2460E+01
      3.781  0.9520E+00  0.9521E+00  0.2527E+01  0.2527E+01
      3.852  0.8879E+00  0.8882E+00  0.2590E+01  0.2590E+01
      3.923  0.8399E+00  0.8397E+00  0.2649E+01  0.2649E+01
      3.993  0.8991E+00  0.8991E+00  0.2713E+01  0.2712E+01
      4.064  0.9367E+00  0.9368E+00  0.2779E+01  0.2778E+01
      4.134  0.8541E+00  0.8545E+00  0.2839E+01  0.2839E+01
      4.205  0.6933E+00  0.6936E+00  0.2888E+01  0.2888E+01
      4.275  0.6030E+00  0.6030E+00  0.2931E+01  0.2930E+01
      4.346  0.6115E+00  0.6112E+00  0.2974E+01  0.2973E+01
      4.416  0.6788E+00  0.6782E+00  0.3022E+01  0.3021E+01
      4.487  0.7443E+00  0.7437E+00  0.3074E+01  0.3074E+01
      4.557  0.7959E+00  0.7955E+00  0.3130E+01  0.3130E+01
      4.628  0.8172E+00  0.8171E+00  0.3188E+01  0.3188E+01
      4.698  0.7490E+00  0.7500E+00  0.3241E+01  0.3241E+01
      4.769  0.6156E+00  0.6162E+00  0.3284E+01  0.3284E+01
      4.839  0.6455E+00  0.6443E+00  0.3330E+01  0.3330E+01
      4.910  0.8005E+00  0.7993E+00  0.3386E+01  0.3386E+01
      4.981  0.8442E+00  0.8438E+00  0.3446E+01  0.3446E+01
      5.051  0.8172E+00  0.8163E+00  0.3504E+01  0.3503E+01
      5.122  0.8516E+00  0.8501E+00  0.3564E+01  0.3563E+01
      5.192  0.9302E+00  0.9296E+00  0.3629E+01  0.3629E+01
      5.263  0.9934E+00  0.9941E+00  0.3700E+01  0.3699E+01
      5.333  0.9842E+00  0.9848E+00  0.3769E+01  0.3768E+01
      5.404  0.9025E+00  0.9029E+00  0.3833E+01  0.3832E+01
      5.474  0.8190E+00  0.8185E+00  0.3891E+01  0.3890E+01
      5.545  0.8751E+00  0.8733E+00  0.3952E+01  0.3952E+01
      5.615  0.9991E+00  0.9974E+00  0.4023E+01  0.4022E+01
      5.686  0.1060E+01  0.1060E+01  0.4098E+01  0.4097E+01
      5.756  0.1027E+01  0.1027E+01  0.4170E+01  0.4169E+01
      5.827  0.1093E+01  0.1091E+01  0.4247E+01  0.4246E+01
      5.897  0.1177E+01  0.1177E+01  0.4330E+01  0.4329E+01
      5.968  0.1152E+01  0.1154E+01  0.4412E+01  0.4411E+01
      6.039  0.1167E+01  0.1166E+01  0.4494E+01  0.4493E+01
      6.109  0.1260E+01  0.1259E+01  0.4583E+01  0.4582E+01
      6.180  0.1332E+01  0.1331E+01  0.4677E+01  0.4676E+01
      6.250  0.1259E+01  0.1260E+01  0.4766E+01  0.4765E+01
      6.321  0.1102E+01  0.1103E+01  0.4843E+01  0.4843E+01
      6.391  0.1075E+01  0.1075E+01  0.4919E+01  0.4919E+01
      6.462  0.1130E+01  0.1129E+01  0.4999E+01  0.4998E+01
      6.532  0.1126E+01  0.1126E+01  0.5079E+01  0.5078E+01
      6.603  0.1145E+01  0.1145E+01  0.5159E+01  0.5159E+01
      6.673  0.1185E+01  0.1184E+01  0.5243E+01  0.5242E+01
      6.744  0.1203E+01  0.1204E+01  0.5328E+01  0.5327E+01
      6.814  0.1231E+01  0.1232E+01  0.5415E+01  0.5414E+01
      6.885  0.1267E+01  0.1267E+01  0.5504E+01  0.5503E+01
      6.955  0.1221E+01  0.1220E+01  0.5590E+01  0.5590E+01
      7.026  0.1193E+01  0.1192E+01  0.5675E+01  0.5674E+01
      7.097  0.1138E+01  0.1138E+01  0.5755E+01  0.5754E+01
      7.167  0.1067E+01  0.1067E+01  0.5830E+01  0.5829E+01
      7.238  0.1125E+01  0.1123E+01  0.5910E+01  0.5909E+01
      7.308  0.1208E+01  0.1208E+01  0.5995E+01  0.5994E+01
      7.379  0.1196E+01  0.1197E+01  0.6079E+01  0.6078E+01
      7.449  0.1068E+01  0.1069E+01  0.6155E+01  0.6154E+01
      7.520  0.9982E+00  0.9983E+00  0.6225E+01  0.6224E+01
      7.590  0.1071E+01  0.1070E+01  0.6301E+01  0.6300E+01
      7.661  0.1192E+01  0.1191E+01  0.6385E+01  0.6384E+01
      7.731  0.1306E+01  0.1305E+01  0.6477E+01  0.6476E+01
      7.802  0.1384E+01  0.1384E+01  0.6575E+01  0.6574E+01
      7.872  0.1375E+01  0.1375E+01  0.6672E+01  0.6671E+01
      7.943  0.1395E+01  0.1393E+01  0.6770E+01  0.6769E+01
      8.013  0.1442E+01  0.1441E+01  0.6872E+01  0.6871E+01
      8.084  0.1467E+01  0.1466E+01  0.6975E+01  0.6974E+01
      8.155  0.1547E+01  0.1546E+01  0.7085E+01  0.7083E+01
      8.225  0.1745E+01  0.1743E+01  0.7208E+01  0.7206E+01
      8.296  0.1841E+01  0.1842E+01  0.7338E+01  0.7336E+01
      8.366  0.1696E+01  0.1698E+01  0.7457E+01  0.7456E+01
      8.437  0.1679E+01  0.1679E+01  0.7576E+01  0.7575E+01
      8.507  0.1930E+01  0.1926E+01  0.7712E+01  0.7711E+01
      8.578  0.2236E+01  0.2234E+01  0.7870E+01  0.7868E+01
      8.648  0.2340E+01  0.2341E+01  0.8035E+01  0.8034E+01
      8.719  0.2286E+01  0.2287E+01  0.8196E+01  0.8195E+01
      8.789  0.2279E+01  0.2280E+01  0.8357E+01  0.8356E+01
      8.860  0.2218E+01  0.2220E+01  0.8514E+01  0.8512E+01
      8.930  0.2120E+01  0.2122E+01  0.8663E+01  0.8662E+01
      9.001  0.2052E+01  0.2053E+01  0.8808E+01  0.8807E+01
      9.072  0.2143E+01  0.2142E+01  0.8960E+01  0.8958E+01
      9.142  0.2443E+01  0.2443E+01  0.9132E+01  0.9131E+01
      9.213  0.2827E+01  0.2827E+01  0.9332E+01  0.9330E+01
      9.283  0.3026E+01  0.3026E+01  0.9545E+01  0.9544E+01
      9.354  0.3056E+01  0.3057E+01  0.9761E+01  0.9760E+01
      9.424  0.3042E+01  0.3042E+01  0.9975E+01  0.9974E+01
      9.495  0.2978E+01  0.2977E+01  0.1019E+02  0.1018E+02
      9.565  0.2899E+01  0.2898E+01  0.1039E+02  0.1039E+02
      9.636  0.2825E+01  0.2825E+01  0.1059E+02  0.1059E+02
      9.706  0.2731E+01  0.2730E+01  0.1078E+02  0.1078E+02
      9.777  0.2652E+01  0.2651E+01  0.1097E+02  0.1097E+02
      9.847  0.2722E+01  0.2721E+01  0.1116E+02  0.1116E+02
      9.918  0.2902E+01  0.2903E+01  0.1137E+02  0.1137E+02
      9.988  0.2918E+01  0.2921E+01  0.1157E+02  0.1157E+02
     10.059  0.2853E+01  0.2855E+01  0.1177E+02  0.1177E+02
     10.130  0.2800E+01  0.2803E+01  0.1197E+02  0.1197E+02
     10.200  0.2686E+01  0.2688E+01  0.1216E+02  0.1216E+02
     10.271  0.2544E+01  0.2545E+01  0.1234E+02  0.1234E+02
     10.341  0.2367E+01  0.2369E+01  0.1251E+02  0.1251E+02
     10.412  0.2102E+01  0.2104E+01  0.1266E+02  0.1266E+02
     10.482  0.1900E+01  0.1901E+01  0.1279E+02  0.1279E+02
     10.553  0.1825E+01  0.1825E+01  0.1292E+02  0.1292E+02
     10.623  0.1719E+01  0.1720E+01  0.1304E+02  0.1304E+02
     10.694  0.1587E+01  0.1588E+01  0.1315E+02  0.1315E+02
     10.764  0.1539E+01  0.1539E+01  0.1326E+02  0.1326E+02
     10.835  0.1521E+01  0.1521E+01  0.1337E+02  0.1337E+02
     10.905  0.1442E+01  0.1442E+01  0.1347E+02  0.1347E+02
     10.976  0.1367E+01  0.1367E+01  0.1357E+02  0.1357E+02
     11.046  0.1342E+01  0.1342E+01  0.1366E+02  0.1366E+02
     11.117  0.1384E+01  0.1385E+01  0.1376E+02  0.1376E+02
     11.188  0.1356E+01  0.1356E+01  0.1386E+02  0.1386E+02
     11.258  0.1178E+01  0.1178E+01  0.1394E+02  0.1394E+02
     11.329  0.7803E+00  0.7806E+00  0.1399E+02  0.1399E+02
     11.399  0.4293E+00  0.4297E+00  0.1402E+02  0.1402E+02
     11.470  0.2785E+00  0.2788E+00  0.1404E+02  0.1404E+02
     11.540  0.2087E+00  0.2088E+00  0.1406E+02  0.1406E+02
     11.611  0.2023E+00  0.2025E+00  0.1407E+02  0.1407E+02
     11.681  0.2764E+00  0.2769E+00  0.1409E+02  0.1409E+02
     11.752  0.3783E+00  0.3790E+00  0.1412E+02  0.1412E+02
     11.822  0.4470E+00  0.4476E+00  0.1415E+02  0.1415E+02
     11.893  0.4982E+00  0.4985E+00  0.1419E+02  0.1419E+02
     11.963  0.6028E+00  0.6038E+00  0.1423E+02  0.1423E+02
     12.034  0.8311E+00  0.8335E+00  0.1429E+02  0.1429E+02
     12.104  0.1156E+01  0.1160E+01  0.1437E+02  0.1437E+02
     12.175  0.1516E+01  0.1520E+01  0.1448E+02  0.1448E+02
     12.246  0.1766E+01  0.1769E+01  0.1460E+02  0.1460E+02
     12.316  0.1980E+01  0.1983E+01  0.1474E+02  0.1474E+02
     12.387  0.2146E+01  0.2152E+01  0.1489E+02  0.1489E+02
     12.457  0.2458E+01  0.2467E+01  0.1506E+02  0.1507E+02
     12.528  0.2899E+01  0.2905E+01  0.1527E+02  0.1527E+02
     12.598  0.3326E+01  0.3337E+01  0.1550E+02  0.1551E+02
     12.669  0.4242E+01  0.4265E+01  0.1580E+02  0.1581E+02
     12.739  0.5273E+01  0.5287E+01  0.1618E+02  0.1618E+02
     12.810  0.5296E+01  0.5285E+01  0.1655E+02  0.1655E+02
     12.880  0.4412E+01  0.4387E+01  0.1686E+02  0.1686E+02
     12.951  0.3356E+01  0.3335E+01  0.1710E+02  0.1710E+02
     13.021  0.2603E+01  0.2592E+01  0.1728E+02  0.1728E+02
     13.092  0.2407E+01  0.2402E+01  0.1745E+02  0.1745E+02
     13.162  0.2426E+01  0.2423E+01  0.1762E+02  0.1762E+02
     13.233  0.2031E+01  0.2028E+01  0.1777E+02  0.1777E+02
     13.304  0.1535E+01  0.1532E+01  0.1787E+02  0.1787E+02
     13.374  0.1280E+01  0.1278E+01  0.1796E+02  0.1796E+02
     13.445  0.1219E+01  0.1217E+01  0.1805E+02  0.1805E+02
     13.515  0.1343E+01  0.1342E+01  0.1815E+02  0.1815E+02
     13.586  0.1494E+01  0.1493E+01  0.1825E+02  0.1825E+02
     13.656  0.1578E+01  0.1578E+01  0.1836E+02  0.1836E+02
     13.727  0.1509E+01  0.1510E+01  0.1847E+02  0.1847E+02
     13.797  0.1374E+01  0.1376E+01  0.1857E+02  0.1857E+02
     13.868  0.1369E+01  0.1370E+01  0.1866E+02  0.1866E+02
     13.938  0.1382E+01  0.1382E+01  0.1876E+02  0.1876E+02
     14.009  0.1427E+01  0.1427E+01  0.1886E+02  0.1886E+02
     14.079  0.1499E+01  0.1500E+01  0.1897E+02  0.1897E+02
     14.150  0.1486E+01  0.1486E+01  0.1907E+02  0.1907E+02
     14.220  0.1457E+01  0.1458E+01  0.1917E+02  0.1917E+02
     14.291  0.1578E+01  0.1580E+01  0.1929E+02  0.1929E+02
     14.362  0.1871E+01  0.1874E+01  0.1942E+02  0.1942E+02
     14.432  0.2092E+01  0.2095E+01  0.1957E+02  0.1957E+02
     14.503  0.2032E+01  0.2035E+01  0.1971E+02  0.1971E+02
     14.573  0.1942E+01  0.1945E+01  0.1985E+02  0.1985E+02
     14.644  0.1844E+01  0.1843E+01  0.1998E+02  0.1998E+02
     14.714  0.1748E+01  0.1746E+01  0.2010E+02  0.2010E+02
     14.785  0.1669E+01  0.1665E+01  0.2022E+02  0.2022E+02
     14.855  0.1532E+01  0.1528E+01  0.2033E+02  0.2033E+02
     14.926  0.1467E+01  0.1466E+01  0.2043E+02  0.2043E+02
     14.996  0.1449E+01  0.1451E+01  0.2053E+02  0.2053E+02
     15.067  0.1375E+01  0.1385E+01  0.2063E+02  0.2063E+02
     15.137  0.1260E+01  0.1288E+01  0.2072E+02  0.2072E+02
     15.208  0.1328E+01  0.1379E+01  0.2081E+02  0.2082E+02
     15.279  0.1627E+01  0.1670E+01  0.2093E+02  0.2094E+02
     15.349  0.1896E+01  0.1920E+01  0.2106E+02  0.2107E+02
     15.420  0.1992E+01  0.2029E+01  0.2120E+02  0.2121E+02
     15.490  0.1922E+01  0.1982E+01  0.2134E+02  0.2135E+02
     15.561  0.1880E+01  0.1927E+01  0.2147E+02  0.2149E+02
     15.631  0.1943E+01  0.1995E+01  0.2161E+02  0.2163E+02
     15.702  0.1913E+01  0.1977E+01  0.2174E+02  0.2177E+02
     15.772  0.1983E+01  0.2010E+01  0.2188E+02  0.2191E+02
     15.843  0.2100E+01  0.2083E+01  0.2203E+02  0.2206E+02
     15.913  0.2198E+01  0.2136E+01  0.2218E+02  0.2221E+02
     15.984  0.2168E+01  0.2073E+01  0.2234E+02  0.2236E+02
     16.054  0.1992E+01  0.1914E+01  0.2248E+02  0.2249E+02
     16.125  0.1843E+01  0.1784E+01  0.2261E+02  0.2262E+02
     16.195  0.1569E+01  0.1556E+01  0.2272E+02  0.2273E+02
     16.266  0.1249E+01  0.1286E+01  0.2281E+02  0.2282E+02
     16.337  0.1142E+01  0.1148E+01  0.2289E+02  0.2290E+02
     16.407  0.1265E+01  0.1229E+01  0.2298E+02  0.2299E+02
     16.478  0.1321E+01  0.1307E+01  0.2307E+02  0.2308E+02
     16.548  0.1346E+01  0.1311E+01  0.2316E+02  0.2317E+02
     16.619  0.1433E+01  0.1351E+01  0.2327E+02  0.2327E+02
     16.689  0.1460E+01  0.1403E+01  0.2337E+02  0.2337E+02
     16.760  0.1348E+01  0.1349E+01  0.2346E+02  0.2346E+02
     16.830  0.1282E+01  0.1343E+01  0.2355E+02  0.2356E+02
     16.901  0.1187E+01  0.1255E+01  0.2364E+02  0.2364E+02
     16.971  0.1011E+01  0.1024E+01  0.2371E+02  0.2372E+02
     17.042  0.7694E+00  0.7476E+00  0.2376E+02  0.2377E+02
     17.112  0.5587E+00  0.5657E+00  0.2380E+02  0.2381E+02
     17.183  0.5101E+00  0.5598E+00  0.2384E+02  0.2385E+02
     17.253  0.5542E+00  0.5872E+00  0.2388E+02  0.2389E+02
     17.324  0.4966E+00  0.4639E+00  0.2391E+02  0.2392E+02
     17.395  0.3566E+00  0.3220E+00  0.2394E+02  0.2395E+02
     17.465  0.2684E+00  0.2675E+00  0.2396E+02  0.2396E+02
     17.536  0.1997E+00  0.2021E+00  0.2397E+02  0.2398E+02
     17.606  0.1073E+00  0.1137E+00  0.2398E+02  0.2399E+02
     17.677  0.5109E-01  0.5331E-01  0.2398E+02  0.2399E+02
     17.747  0.4142E-01  0.2679E-01  0.2399E+02  0.2399E+02
     17.818  0.3766E-01  0.1870E-01  0.2399E+02  0.2399E+02
     17.888  0.3245E-01  0.2800E-01  0.2399E+02  0.2400E+02
     17.959  0.3648E-01  0.3179E-01  0.2399E+02  0.2400E+02
     18.029  0.2922E-01  0.1694E-01  0.2400E+02  0.2400E+02
     18.100  0.2142E-01  0.5390E-02  0.2400E+02  0.2400E+02
     18.170  0.1874E-01  0.1417E-02  0.2400E+02  0.2400E+02
     18.241  0.1021E-01  0.3523E-03  0.2400E+02  0.2400E+02
     18.311  0.3365E-02  0.0000E+00  0.2400E+02  0.2400E+02
     18.382  0.8532E-03  0.0000E+00  0.2400E+02  0.2400E+02
     18.453  0.2129E-03  0.0000E+00  0.2400E+02  0.2400E+02
     18.523  0.5223E-04  0.0000E+00  0.2400E+02  0.2400E+02
     18.594  0.0000E+00  0.0000E+00  0.2400E+02  0.2400E+02
     18.664  0.0000E+00  0.0000E+00  0.2400E+02  0.2400E+02
     18.735  0.0000E+00  0.0000E+00  0.2400E+02  0.2400E+02
     18.805  0.0000E+00  0.0000E+00  0.2400E+02  0.2400E+02
     18.876  0.0000E+00  0.0000E+00  0.2400E+02  0.2400E+02
     18.946  0.0000E+00  0.0000E+00  0.2400E+02  0.2400E+02
     19.017  0.0000E+00  0.0000E+00  0.2400E+02  0.2400E+02
     19.087  0.0000E+00  0.0000E+00  0.2400E+02  0.2400E+02
     19.08735764     -2.07289694  301     11.34047879      1.00000000
     -2.073  0.0000E+00  0.0000E+00  0.0000E+00  0.0000E+00  0.0000E+00  0.0000E+00  0.0000E+00  0.0000E+00  0.0000E+00  0.0000E+00  0.0000E+00  0.0000E+00  0.0000E+00  0.0000E+00  0.0000E+00  0.0000E+00  0.0000E+00  0.0000E+00
     -2.002  0.0000E+00  0.0000E+00  0.0000E+00  0.0000E+00  0.0000E+00  0.0000E+00  0.0000E+00  0.0000E+00  0.0000E+00  0.0000E+00  0.0000E+00  0.0000E+00  0.0000E+00  0.0000E+00  0.0000E+00  0.0000E+00  0.0000E+00  0.0000E+00
     -1.932  0.0000E+00  0.0000E+00  0.0000E+00  0.0000E+00  0.0000E+00  0.0000E+00  0.0000E+00  0.0000E+00  0.0000E+00  0.0000E+00  0.0000E+00  0.0000E+00  0.0000E+00  0.0000E+00  0.0000E+00  0.0000E+00  0.0000E+00  0.0000E+00
     -1.861  0.0000E+00  0.0000E+00  0.0000E+00  0.0000E+00  0.0000E+00  0.0000E+00  0.0000E+00  0.0000E+00  0.0000E+00  0.0000E+00  0.0000E+00  0.0000E+00  0.0000E+00  0.0000E+00  0.0000E+00  0.0000E+00  0.0000E+00  0.0000E+00
     -1.791  0.0000E+00  0.0000E+00  0.0000E+00  0.0000E+00  0.0000E+00  0.0000E+00  0.0000E+00  0.0000E+00  0.0000E+00  0.0000E+00  0.0000E+00  0.0000E+00  0.0000E+00  0.0000E+00  0.0000E+00  0.0000E+00  0.0000E+00  0.0000E+00
     -1.720  0.0000E+00  0.0000E+00  0.0000E+00  0.0000E+00  0.0000E+00  0.0000E+00  0.0000E+00  0.0000E+00  0.0000E+00  0.0000E+00  0.0000E+00  0.0000E+00  0.0000E+00  0.0000E+00  0.0000E+00  0.0000E+00  0.0000E+00  0.0000E+00
     -1.650  0.0000E+00  0.0000E+00  0.0000E+00  0.0000E+00  0.0000E+00  0.0000E+00  0.0000E+00  0.0000E+00  0.0000E+00  0.0000E+00  0.0000E+00  0.0000E+00  0.0000E+00  0.0000E+00  0.0000E+00  0.0000E+00  0.0000E+00  0.0000E+00
     -1.579  0.9393E-07  0.9272E-07  0.3548E-22  0.5839E-22  0.1964E-20  0.5252E-20  0.3548E-22  0.5839E-22  0.7234E-21  0.1216E-21  0.3036E-21  0.2281E-21  0.3141E-10  0.3048E-10  0.3036E-21  0.2281E-21  0.1293E-20  0.1916E-21
     -1.509  0.5462E-06  0.5392E-06  0.2641E-21  0.3711E-21  0.2601E-08  0.2568E-08  0.2641E-21  0.3711E-21  0.3651E-20  0.4176E-21  0.3199E-20  0.1261E-20  0.1446E-09  0.1400E-09  0.3199E-20  0.1261E-20  0.3383E-19  0.7269E-19
     -1.438  0.4172E-05  0.4119E-05  0.1300E-07  0.1284E-07  0.1706E-07  0.1684E-07  0.1300E-07  0.1284E-07  0.2715E-19  0.1415E-19  0.6413E-10  0.6329E-10  0.1448E-08  0.1424E-08  0.6413E-10  0.6329E-10  0.7052E-10  0.6958E-10
     -1.368  0.1675E-04  0.1654E-04  0.6274E-07  0.6196E-07  0.6867E-07  0.6781E-07  0.6274E-07  0.6196E-07  0.3677E-09  0.3634E-09  0.3108E-09  0.3067E-09  0.6107E-08  0.6007E-08  0.3108E-09  0.3067E-09  0.2183E-09  0.2154E-09
     -1.297  0.6679E-04  0.6595E-04  0.2340E-06  0.2311E-06  0.2999E-06  0.2961E-06  0.2340E-06  0.2311E-06  0.1139E-08  0.1125E-08  0.1160E-08  0.1145E-08  0.2373E-07  0.2333E-07  0.1160E-08  0.1145E-08  0.8917E-09  0.8799E-09
     -1.226  0.2661E-03  0.2629E-03  0.9828E-06  0.9706E-06  0.1278E-05  0.1262E-05  0.9828E-06  0.9706E-06  0.4652E-08  0.4598E-08  0.5423E-08  0.5354E-08  0.9487E-07  0.9337E-07  0.5423E-08  0.5354E-08  0.4120E-08  0.4066E-08
     -1.156  0.9611E-03  0.9507E-03  0.3955E-05  0.3908E-05  0.4949E-05  0.4892E-05  0.3955E-05  0.3908E-05  0.2044E-07  0.2021E-07  0.2308E-07  0.2280E-07  0.3481E-06  0.3433E-06  0.2308E-07  0.2280E-07  0.1722E-07  0.1701E-07
     -1.085  0.2802E-02  0.2778E-02  0.1403E-04  0.1389E-04  0.1673E-04  0.1656E-04  0.1403E-04  0.1389E-04  0.8182E-07  0.8092E-07  0.8826E-07  0.8723E-07  0.1045E-05  0.1035E-05  0.8826E-07  0.8723E-07  0.5957E-07  0.5892E-07
     -1.015  0.5968E-02  0.5935E-02  0.3878E-04  0.3848E-04  0.4476E-04  0.4442E-04  0.3878E-04  0.3848E-04  0.2821E-06  0.2794E-06  0.2920E-06  0.2892E-06  0.2333E-05  0.2322E-05  0.2920E-06  0.2892E-06  0.1589E-06  0.1576E-06
     -0.944  0.9016E-02  0.8993E-02  0.7579E-04  0.7543E-04  0.9397E-04  0.9339E-04  0.7579E-04  0.7543E-04  0.7338E-06  0.7292E-06  0.7336E-06  0.7277E-06  0.3689E-05  0.3685E-05  0.7336E-06  0.7277E-06  0.3365E-06  0.3339E-06
     -0.874  0.1061E-01  0.1060E-01  0.1162E-03  0.1158E-03  0.1659E-03  0.1653E-03  0.1162E-03  0.1158E-03  0.1300E-05  0.1296E-05  0.1497E-05  0.1490E-05  0.4596E-05  0.4590E-05  0.1497E-05  0.1490E-05  0.8219E-06  0.8138E-06
     -0.803  0.1252E-01  0.1249E-01  0.1902E-03  0.1893E-03  0.2559E-03  0.2551E-03  0.1902E-03  0.1893E-03  0.2317E-05  0.2303E-05  0.2900E-05  0.2887E-05  0.6539E-05  0.6505E-05  0.2900E-05  0.2887E-05  0.2122E-05  0.2105E-05
     -0.733  0.1584E-01  0.1581E-01  0.3191E-03  0.3179E-03  0.3337E-03  0.3332E-03  0.3191E-03  0.3179E-03  0.5065E-05  0.5036E-05  0.5053E-05  0.5035E-05  0.1073E-04  0.1068E-04  0.5053E-05  0.5035E-05  0.3890E-05  0.3874E-05
     -0.662  0.1709E-01  0.1709E-01  0.4019E-03  0.4017E-03  0.4065E-03  0.4057E-03  0.4019E-03  0.4017E-03  0.8097E-05  0.8083E-05  0.7447E-05  0.7418E-05  0.1339E-04  0.1336E-04  0.7447E-05  0.7418E-05  0.4743E-05  0.4740E-05
     -0.592  0.1617E-01  0.1617E-01  0.3999E-03  0.3998E-03  0.5865E-03  0.5844E-03  0.3999E-03  0.3998E-03  0.9316E-05  0.9302E-05  0.1134E-04  0.1127E-04  0.1227E-04  0.1225E-04  0.1134E-04  0.1127E-04  0.4854E-05  0.4858E-05
     -0.521  0.1737E-01  0.1735E-01  0.4696E-03  0.4684E-03  0.8371E-03  0.8356E-03  0.4696E-03  0.4684E-03  0.1379E-04  0.1372E-04  0.1745E-04  0.1736E-04  0.1366E-04  0.1358E-04  0.1745E-04  0.1736E-04  0.5975E-05  0.5968E-05
     -0.451  0.1870E-01  0.1870E-01  0.6230E-03  0.6216E-03  0.8695E-03  0.8706E-03  0.6230E-03  0.6216E-03  0.2110E-04  0.2104E-04  0.2076E-04  0.2071E-04  0.2049E-04  0.2038E-04  0.2076E-04  0.2071E-04  0.1014E-04  0.1010E-04
     -0.380  0.1873E-01  0.1872E-01  0.7929E-03  0.7911E-03  0.7653E-03  0.7654E-03  0.7929E-03  0.7911E-03  0.2472E-04  0.2468E-04  0.2290E-04  0.2281E-04  0.2961E-04  0.2951E-04  0.2290E-04  0.2281E-04  0.1944E-04  0.1936E-04
     -0.310  0.2163E-01  0.2159E-01  0.1025E-02  0.1023E-02  0.1011E-02  0.1007E-02  0.1025E-02  0.1023E-02  0.3112E-04  0.3104E-04  0.3577E-04  0.3556E-04  0.3851E-04  0.3844E-04  0.3577E-04  0.3556E-04  0.2897E-04  0.2893E-04
     -0.239  0.2416E-01  0.2415E-01  0.1134E-02  0.1134E-02  0.1511E-02  0.1508E-02  0.1134E-02  0.1134E-02  0.3891E-04  0.3885E-04  0.5301E-04  0.5283E-04  0.4190E-04  0.4190E-04  0.5301E-04  0.5283E-04  0.3053E-04  0.3055E-04
     -0.168  0.2305E-01  0.2306E-01  0.1107E-02  0.1107E-02  0.1759E-02  0.1759E-02  0.1107E-02  0.1107E-02  0.4844E-04  0.4825E-04  0.5907E-04  0.5898E-04  0.4546E-04  0.4541E-04  0.5907E-04  0.5898E-04  0.2818E-04  0.2820E-04
     -0.098  0.2210E-01  0.2210E-01  0.1212E-02  0.1211E-02  0.1695E-02  0.1696E-02  0.1212E-02  0.1211E-02  0.7443E-04  0.7414E-04  0.6131E-04  0.6120E-04  0.5506E-04  0.5502E-04  0.6131E-04  0.6120E-04  0.2665E-04  0.2667E-04
     -0.027  0.2037E-01  0.2038E-01  0.1241E-02  0.1241E-02  0.1608E-02  0.1608E-02  0.1241E-02  0.1241E-02  0.8777E-04  0.8774E-04  0.7154E-04  0.7131E-04  0.5395E-04  0.5404E-04  0.7154E-04  0.7131E-04  0.2493E-04  0.2491E-04
      0.043  0.2030E-01  0.2028E-01  0.1293E-02  0.1291E-02  0.1971E-02  0.1967E-02  0.1293E-02  0.1291E-02  0.7994E-04  0.7991E-04  0.1032E-03  0.1028E-03  0.4994E-04  0.4990E-04  0.1032E-03  0.1028E-03  0.3481E-04  0.3463E-04
      0.114  0.2447E-01  0.2443E-01  0.1689E-02  0.1686E-02  0.2550E-02  0.2547E-02  0.1689E-02  0.1686E-02  0.8695E-04  0.8678E-04  0.1408E-03  0.1405E-03  0.6892E-04  0.6864E-04  0.1408E-03  0.1405E-03  0.6430E-04  0.6400E-04
      0.184  0.2549E-01  0.2550E-01  0.1990E-02  0.1988E-02  0.2493E-02  0.2496E-02  0.1990E-02  0.1988E-02  0.9823E-04  0.9802E-04  0.1319E-03  0.1320E-03  0.1021E-03  0.1018E-03  0.1319E-03  0.1320E-03  0.9551E-04  0.9531E-04
      0.255  0.2424E-01  0.2423E-01  0.2104E-02  0.2103E-02  0.2430E-02  0.2428E-02  0.2104E-02  0.2103E-02  0.1304E-03  0.1299E-03  0.1169E-03  0.1167E-03  0.1328E-03  0.1325E-03  0.1169E-03  0.1167E-03  0.1046E-03  0.1046E-03
      0.325  0.2628E-01  0.2625E-01  0.2354E-02  0.2352E-02  0.3125E-02  0.3119E-02  0.2354E-02  0.2352E-02  0.1866E-03  0.1860E-03  0.1694E-03  0.1687E-03  0.1474E-03  0.1472E-03  0.1694E-03  0.1687E-03  0.1014E-03  0.1014E-03
      0.396  0.2868E-01  0.2867E-01  0.2685E-02  0.2682E-02  0.3635E-02  0.3634E-02  0.2685E-02  0.2682E-02  0.2344E-03  0.2340E-03  0.2369E-03  0.2365E-03  0.1518E-03  0.1517E-03  0.2369E-03  0.2365E-03  0.1091E-03  0.1090E-03
      0.466  0.2760E-01  0.2762E-01  0.2683E-02  0.2685E-02  0.3797E-02  0.3796E-02  0.2683E-02  0.2685E-02  0.2513E-03  0.2513E-03  0.2692E-03  0.2689E-03  0.1510E-03  0.1511E-03  0.2692E-03  0.2689E-03  0.1069E-03  0.1070E-03
      0.537  0.2376E-01  0.2379E-01  0.2277E-02  0.2279E-02  0.4054E-02  0.4054E-02  0.2277E-02  0.2279E-02  0.2113E-03  0.2116E-03  0.2889E-03  0.2887E-03  0.1322E-03  0.1325E-03  0.2889E-03  0.2887E-03  0.9302E-04  0.9303E-04
      0.607  0.2123E-01  0.2123E-01  0.2160E-02  0.2159E-02  0.3937E-02  0.3940E-02  0.2160E-02  0.2159E-02  0.1993E-03  0.1991E-03  0.3085E-03  0.3083E-03  0.1158E-03  0.1159E-03  0.3085E-03  0.3083E-03  0.9782E-04  0.9769E-04
      0.678  0.2067E-01  0.2066E-01  0.2334E-02  0.2332E-02  0.3901E-02  0.3900E-02  0.2334E-02  0.2332E-02  0.2515E-03  0.2509E-03  0.3310E-03  0.3309E-03  0.1218E-03  0.1216E-03  0.3310E-03  0.3309E-03  0.1043E-03  0.1042E-03
      0.748  0.2200E-01  0.2197E-01  0.2722E-02  0.2716E-02  0.4639E-02  0.4634E-02  0.2722E-02  0.2716E-02  0.3497E-03  0.3488E-03  0.3443E-03  0.3442E-03  0.1906E-03  0.1897E-03  0.3443E-03  0.3442E-03  0.1262E-03  0.1257E-03
      0.819  0.2657E-01  0.2652E-01  0.3643E-02  0.3634E-02  0.5696E-02  0.5690E-02  0.3643E-02  0.3634E-02  0.4591E-03  0.4585E-03  0.3973E-03  0.3966E-03  0.3024E-03  0.3014E-03  0.3973E-03  0.3966E-03  0.2122E-03  0.2114E-03
      0.890  0.3000E-01  0.2998E-01  0.4345E-02  0.4342E-02  0.6477E-02  0.6474E-02  0.4345E-02  0.4342E-02  0.4724E-03  0.4726E-03  0.5272E-03  0.5262E-03  0.3413E-03  0.3410E-03  0.5272E-03  0.5262E-03  0.2999E-03  0.2995E-03
      0.960  0.2923E-01  0.2924E-01  0.4353E-02  0.4354E-02  0.7045E-02  0.7043E-02  0.4353E-02  0.4354E-02  0.4526E-03  0.4526E-03  0.6384E-03  0.6379E-03  0.3154E-03  0.3153E-03  0.6384E-03  0.6379E-03  0.3151E-03  0.3152E-03
      1.031  0.2695E-01  0.2697E-01  0.4192E-02  0.4192E-02  0.7709E-02  0.7710E-02  0.4192E-02  0.4192E-02  0.4716E-03  0.4714E-03  0.6763E-03  0.6764E-03  0.3081E-03  0.3079E-03  0.6763E-03  0.6764E-03  0.3044E-03  0.3044E-03
      1.101  0.2414E-01  0.2415E-01  0.3987E-02  0.3989E-02  0.7804E-02  0.7808E-02  0.3987E-02  0.3989E-02  0.5145E-03  0.5141E-03  0.6773E-03  0.6774E-03  0.2963E-03  0.2964E-03  0.6773E-03  0.6774E-03  0.2811E-03  0.2813E-03
      1.172  0.2206E-01  0.2206E-01  0.3877E-02  0.3876E-02  0.7340E-02  0.7341E-02  0.3877E-02  0.3876E-02  0.5951E-03  0.5943E-03  0.7378E-03  0.7372E-03  0.2511E-03  0.2513E-03  0.7378E-03  0.7372E-03  0.2462E-03  0.2463E-03
      1.242  0.2243E-01  0.2242E-01  0.4194E-02  0.4192E-02  0.7552E-02  0.7548E-02  0.4194E-02  0.4192E-02  0.7202E-03  0.7194E-03  0.8708E-03  0.8703E-03  0.2565E-03  0.2562E-03  0.8708E-03  0.8703E-03  0.2576E-03  0.2573E-03
      1.313  0.2141E-01  0.2142E-01  0.4122E-02  0.4124E-02  0.8703E-02  0.8699E-02  0.4122E-02  0.4124E-02  0.7650E-03  0.7651E-03  0.9955E-03  0.9952E-03  0.2874E-03  0.2871E-03  0.9955E-03  0.9952E-03  0.2539E-03  0.2541E-03
      1.383  0.1956E-01  0.1956E-01  0.3841E-02  0.3839E-02  0.9217E-02  0.9218E-02  0.3841E-02  0.3839E-02  0.8229E-03  0.8219E-03  0.1086E-02  0.1086E-02  0.3015E-03  0.3010E-03  0.1086E-02  0.1086E-02  0.2150E-03  0.2151E-03
      1.454  0.2047E-01  0.2044E-01  0.4399E-02  0.4392E-02  0.8031E-02  0.8035E-02  0.4399E-02  0.4392E-02  0.1055E-02  0.1054E-02  0.1119E-02  0.1118E-02  0.3393E-03  0.3387E-03  0.1119E-02  0.1118E-02  0.2387E-03  0.2381E-03