   8   8   1   0
  0.1853778E+02  0.4066235E-09  0.4066235E-09  0.8969386E-09  0.5000000E-15
  1.000000000000000E-004
  CAR 
 unknown system                          
     10.85360151     -4.10040481  301      6.03799987      1.00000000
     -4.100  0.0000E+00  0.0000E+00  0.0000E+00  0.0000E+00
     -4.051  0.0000E+00  0.0000E+00  0.0000E+00  0.0000E+00
     -4.001  0.0000E+00  0.0000E+00  0.0000E+00  0.0000E+00
     -3.951  0.0000E+00  0.0000E+00  0.0000E+00  0.0000E+00
     -3.901  0.0000E+00  0.0000E+00  0.0000E+00  0.0000E+00
     -3.851  0.3091E-05  0.3070E-05  0.1541E-06  0.1530E-06
     -3.801  0.2472E-04  0.2455E-04  0.1386E-05  0.1377E-05
     -3.751  0.8780E-04  0.8721E-04  0.5763E-05  0.5724E-05
     -3.702  0.2312E-03  0.2297E-03  0.1729E-04  0.1717E-04
     -3.652  0.6235E-03  0.6193E-03  0.4837E-04  0.4804E-04
     -3.602  0.1706E-02  0.1695E-02  0.1334E-03  0.1325E-03
     -3.552  0.4506E-02  0.4476E-02  0.3580E-03  0.3557E-03
     -3.502  0.1153E-01  0.1146E-01  0.9328E-03  0.9269E-03
     -3.452  0.2749E-01  0.2734E-01  0.2303E-02  0.2289E-02
     -3.403  0.5735E-01  0.5710E-01  0.5162E-02  0.5136E-02
     -3.353  0.9960E-01  0.9930E-01  0.1013E-01  0.1009E-01
     -3.303  0.1430E+00  0.1427E+00  0.1725E-01  0.1720E-01
     -3.253  0.1805E+00  0.1802E+00  0.2625E-01  0.2618E-01
     -3.203  0.2194E+00  0.2191E+00  0.3719E-01  0.3710E-01
     -3.153  0.2588E+00  0.2586E+00  0.5009E-01  0.5000E-01
     -3.103  0.2821E+00  0.2820E+00  0.6415E-01  0.6405E-01
     -3.054  0.2951E+00  0.2950E+00  0.7886E-01  0.7875E-01
     -3.004  0.3157E+00  0.3155E+00  0.9459E-01  0.9448E-01
     -2.954  0.3375E+00  0.3374E+00  0.1114E+00  0.1113E+00
     -2.904  0.3644E+00  0.3642E+00  0.1296E+00  0.1295E+00
     -2.854  0.4046E+00  0.4044E+00  0.1498E+00  0.1496E+00
     -2.804  0.4308E+00  0.4307E+00  0.1712E+00  0.1711E+00
     -2.755  0.4312E+00  0.4312E+00  0.1927E+00  0.1926E+00
     -2.705  0.4231E+00  0.4231E+00  0.2138E+00  0.2137E+00
     -2.655  0.4216E+00  0.4216E+00  0.2349E+00  0.2347E+00
     -2.605  0.4506E+00  0.4503E+00  0.2574E+00  0.2572E+00
     -2.555  0.4964E+00  0.4961E+00  0.2821E+00  0.2819E+00
     -2.505  0.5193E+00  0.5193E+00  0.3080E+00  0.3078E+00
     -2.455  0.5392E+00  0.5390E+00  0.3349E+00  0.3347E+00
     -2.406  0.5757E+00  0.5754E+00  0.3636E+00  0.3634E+00
     -2.356  0.5981E+00  0.5981E+00  0.3934E+00  0.3932E+00
     -2.306  0.5826E+00  0.5828E+00  0.4225E+00  0.4223E+00
     -2.256  0.5472E+00  0.5474E+00  0.4498E+00  0.4496E+00
     -2.206  0.5295E+00  0.5295E+00  0.4762E+00  0.4760E+00
     -2.156  0.5502E+00  0.5499E+00  0.5036E+00  0.5034E+00
     -2.107  0.6158E+00  0.6152E+00  0.5343E+00  0.5341E+00
     -2.057  0.7013E+00  0.7008E+00  0.5693E+00  0.5690E+00
     -2.007  0.7573E+00  0.7571E+00  0.6071E+00  0.6068E+00
     -1.957  0.7702E+00  0.7702E+00  0.6455E+00  0.6452E+00
     -1.907  0.7519E+00  0.7521E+00  0.6830E+00  0.6827E+00
     -1.857  0.7159E+00  0.7162E+00  0.7187E+00  0.7184E+00
     -1.807  0.6949E+00  0.6949E+00  0.7533E+00  0.7531E+00
     -1.758  0.7008E+00  0.7008E+00  0.7883E+00  0.7880E+00
     -1.708  0.7038E+00  0.7039E+00  0.8234E+00  0.8232E+00
     -1.658  0.7067E+00  0.7066E+00  0.8586E+00  0.8584E+00
     -1.608  0.7322E+00  0.7320E+00  0.8952E+00  0.8949E+00
     -1.558  0.7784E+00  0.7780E+00  0.9340E+00  0.9337E+00
     -1.508  0.8107E+00  0.8106E+00  0.9744E+00  0.9741E+00
     -1.459  0.7765E+00  0.7769E+00  0.1013E+01  0.1013E+01
     -1.409  0.7261E+00  0.7263E+00  0.1049E+01  0.1049E+01
     -1.359  0.7533E+00  0.7529E+00  0.1087E+01  0.1087E+01
     -1.309  0.8248E+00  0.8244E+00  0.1128E+01  0.1128E+01
     -1.259  0.8630E+00  0.8629E+00  0.1171E+01  0.1171E+01
     -1.209  0.8502E+00  0.8505E+00  0.1213E+01  0.1213E+01
     -1.159  0.8082E+00  0.8085E+00  0.1254E+01  0.1254E+01
     -1.110  0.7857E+00  0.7858E+00  0.1293E+01  0.1293E+01
     -1.060  0.7895E+00  0.7896E+00  0.1332E+01  0.1332E+01
     -1.010  0.7965E+00  0.7964E+00  0.1372E+01  0.1372E+01
     -0.960  0.8422E+00  0.8418E+00  0.1414E+01  0.1414E+01
     -0.910  0.9265E+00  0.9260E+00  0.1460E+01  0.1460E+01
     -0.860  0.9735E+00  0.9736E+00  0.1509E+01  0.1509E+01
     -0.811  0.9680E+00  0.9680E+00  0.1557E+01  0.1557E+01
     -0.761  0.9579E+00  0.9580E+00  0.1605E+01  0.1605E+01
     -0.711  0.9108E+00  0.9113E+00  0.1650E+01  0.1650E+01
     -0.661  0.8109E+00  0.8116E+00  0.1691E+01  0.1691E+01
     -0.611  0.7329E+00  0.7331E+00  0.1727E+01  0.1727E+01
     -0.561  0.7441E+00  0.7436E+00  0.1764E+01  0.1764E+01
     -0.511  0.8327E+00  0.8322E+00  0.1806E+01  0.1806E+01
     -0.462  0.8865E+00  0.8864E+00  0.1850E+01  0.1850E+01
     -0.412  0.8945E+00  0.8944E+00  0.1895E+01  0.1895E+01
     -0.362  0.9371E+00  0.9365E+00  0.1942E+01  0.1941E+01
     -0.312  0.1049E+01  0.1048E+01  0.1994E+01  0.1994E+01
     -0.262  0.1190E+01  0.1189E+01  0.2053E+01  0.2053E+01
     -0.212  0.1246E+01  0.1247E+01  0.2115E+01  0.2115E+01
     -0.163  0.1183E+01  0.1184E+01  0.2174E+01  0.2174E+01
     -0.113  0.1104E+01  0.1104E+01  0.2229E+01  0.2229E+01
     -0.063  0.1075E+01  0.1075E+01  0.2283E+01  0.2283E+01
     -0.013  0.1050E+01  0.1050E+01  0.2335E+01  0.2335E+01
      0.037  0.9955E+00  0.9958E+00  0.2385E+01  0.2385E+01
      0.087  0.9775E+00  0.9773E+00  0.2434E+01  0.2433E+01
      0.137  0.1054E+01  0.1053E+01  0.2486E+01  0.2486E+01
      0.186  0.1130E+01  0.1129E+01  0.2543E+01  0.2542E+01
      0.236  0.1097E+01  0.1098E+01  0.2597E+01  0.2597E+01
      0.286  0.1025E+01  0.1025E+01  0.2649E+01  0.2648E+01
      0.336  0.1006E+01  0.1006E+01  0.2699E+01  0.2698E+01
      0.386  0.1040E+01  0.1040E+01  0.2751E+01  0.2750E+01
      0.436  0.1086E+01  0.1086E+01  0.2805E+01  0.2804E+01
      0.485  0.1042E+01  0.1043E+01  0.2857E+01  0.2856E+01
      0.535  0.9078E+00  0.9088E+00  0.2902E+01  0.2902E+01
      0.585  0.8119E+00  0.8122E+00  0.2943E+01  0.2942E+01
      0.635  0.8215E+00  0.8211E+00  0.2984E+01  0.2983E+01
      0.685  0.9085E+00  0.9078E+00  0.3029E+01  0.3028E+01
      0.735  0.9763E+00  0.9760E+00  0.3078E+01  0.3077E+01
      0.785  0.9809E+00  0.9809E+00  0.3126E+01  0.3126E+01
      0.834  0.9698E+00  0.9698E+00  0.3175E+01  0.3174E+01
      0.884  0.9381E+00  0.9386E+00  0.3222E+01  0.3221E+01
      0.934  0.9016E+00  0.9016E+00  0.3267E+01  0.3266E+01
      0.984  0.9417E+00  0.9410E+00  0.3314E+01  0.3313E+01
      1.034  0.1052E+01  0.1051E+01  0.3366E+01  0.3366E+01
      1.084  0.1192E+01  0.1191E+01  0.3425E+01  0.3425E+01
      1.133  0.1326E+01  0.1325E+01  0.3492E+01  0.3491E+01
      1.183  0.1415E+01  0.1415E+01  0.3562E+01  0.3562E+01
      1.233  0.1472E+01  0.1472E+01  0.3636E+01  0.3635E+01
      1.283  0.1497E+01  0.1497E+01  0.3710E+01  0.3710E+01
      1.333  0.1477E+01  0.1477E+01  0.3784E+01  0.3783E+01
      1.383  0.1410E+01  0.1411E+01  0.3854E+01  0.3854E+01
      1.433  0.1318E+01  0.1319E+01  0.3920E+01  0.3919E+01
      1.482  0.1245E+01  0.1245E+01  0.3982E+01  0.3982E+01
      1.532  0.1196E+01  0.1196E+01  0.4042E+01  0.4041E+01
      1.582  0.1159E+01  0.1159E+01  0.4099E+01  0.4099E+01
      1.632  0.1145E+01  0.1145E+01  0.4157E+01  0.4156E+01
      1.682  0.1171E+01  0.1171E+01  0.4215E+01  0.4215E+01
      1.732  0.1246E+01  0.1245E+01  0.4277E+01  0.4277E+01
      1.782  0.1371E+01  0.1370E+01  0.4346E+01  0.4345E+01
      1.831  0.1499E+01  0.1498E+01  0.4420E+01  0.4420E+01
      1.881  0.1559E+01  0.1559E+01  0.4498E+01  0.4497E+01
      1.931  0.1483E+01  0.1484E+01  0.4572E+01  0.4571E+01
      1.981  0.1321E+01  0.1322E+01  0.4638E+01  0.4637E+01
      2.031  0.1211E+01  0.1211E+01  0.4698E+01  0.4698E+01
      2.081  0.1161E+01  0.1161E+01  0.4756E+01  0.4756E+01
      2.130  0.1138E+01  0.1138E+01  0.4813E+01  0.4812E+01
      2.180  0.1168E+01  0.1167E+01  0.4871E+01  0.4871E+01
      2.230  0.1225E+01  0.1224E+01  0.4932E+01  0.4932E+01
      2.280  0.1223E+01  0.1224E+01  0.4993E+01  0.4993E+01
      2.330  0.1220E+01  0.1220E+01  0.5054E+01  0.5054E+01
      2.380  0.1296E+01  0.1295E+01  0.5119E+01  0.5118E+01
      2.430  0.1381E+01  0.1381E+01  0.5188E+01  0.5187E+01
      2.479  0.1371E+01  0.1371E+01  0.5256E+01  0.5256E+01
      2.529  0.1269E+01  0.1270E+01  0.5319E+01  0.5319E+01
      2.579  0.1172E+01  0.1172E+01  0.5378E+01  0.5377E+01
      2.629  0.1181E+01  0.1180E+01  0.5437E+01  0.5436E+01
      2.679  0.1310E+01  0.1308E+01  0.5502E+01  0.5501E+01
      2.729  0.1501E+01  0.1499E+01  0.5577E+01  0.5576E+01
      2.778  0.1704E+01  0.1702E+01  0.5662E+01  0.5661E+01
      2.828  0.1794E+01  0.1794E+01  0.5751E+01  0.5750E+01
      2.878  0.1695E+01  0.1697E+01  0.5836E+01  0.5835E+01
      2.928  0.1520E+01  0.1521E+01  0.5912E+01  0.5911E+01
      2.978  0.1433E+01  0.1434E+01  0.5983E+01  0.5982E+01
      3.028  0.1429E+01  0.1429E+01  0.6054E+01  0.6054E+01
      3.078  0.1466E+01  0.1466E+01  0.6128E+01  0.6127E+01
      3.127  0.1561E+01  0.1560E+01  0.6205E+01  0.6205E+01
      3.177  0.1647E+01  0.1647E+01  0.6288E+01  0.6287E+01
      3.227  0.1688E+01  0.1687E+01  0.6372E+01  0.6371E+01
      3.277  0.1725E+01  0.1724E+01  0.6458E+01  0.6457E+01
      3.327  0.1799E+01  0.1797E+01  0.6548E+01  0.6547E+01
      3.377  0.1962E+01  0.1959E+01  0.6645E+01  0.6644E+01
      3.426  0.2135E+01  0.2133E+01  0.6752E+01  0.6751E+01
      3.476  0.2156E+01  0.2156E+01  0.6859E+01  0.6858E+01
      3.526  0.2049E+01  0.2050E+01  0.6961E+01  0.6960E+01
      3.576  0.1910E+01  0.1911E+01  0.7057E+01  0.7056E+01
      3.626  0.1754E+01  0.1755E+01  0.7144E+01  0.7143E+01
      3.676  0.1610E+01  0.1611E+01  0.7225E+01  0.7224E+01
      3.726  0.1539E+01  0.1539E+01  0.7301E+01  0.7300E+01
      3.775  0.1562E+01  0.1561E+01  0.7379E+01  0.7378E+01
      3.825  0.1636E+01  0.1634E+01  0.7461E+01  0.7460E+01
      3.875  0.1787E+01  0.1784E+01  0.7550E+01  0.7549E+01
      3.925  0.2002E+01  0.1999E+01  0.7650E+01  0.7648E+01
      3.975  0.2206E+01  0.2204E+01  0.7760E+01  0.7758E+01
      4.025  0.2360E+01  0.2358E+01  0.7878E+01  0.7876E+01
      4.074  0.2493E+01  0.2491E+01  0.8002E+01  0.8000E+01
      4.124  0.2651E+01  0.2648E+01  0.8134E+01  0.8132E+01
      4.174  0.2748E+01  0.2747E+01  0.8271E+01  0.8269E+01
      4.224  0.2696E+01  0.2696E+01  0.8405E+01  0.8404E+01
      4.274  0.2531E+01  0.2532E+01  0.8532E+01  0.8530E+01
      4.324  0.2373E+01  0.2373E+01  0.8650E+01  0.8648E+01
      4.374  0.2360E+01  0.2356E+01  0.8768E+01  0.8766E+01
      4.423  0.2597E+01  0.2589E+01  0.8897E+01  0.8895E+01
      4.473  0.2974E+01  0.2966E+01  0.9046E+01  0.9043E+01
      4.523  0.3283E+01  0.3277E+01  0.9209E+01  0.9206E+01
      4.573  0.3432E+01  0.3429E+01  0.9380E+01  0.9377E+01
      4.623  0.3459E+01  0.3456E+01  0.9553E+01  0.9550E+01
      4.673  0.3543E+01  0.3538E+01  0.9730E+01  0.9726E+01
      4.722  0.3840E+01  0.3831E+01  0.9921E+01  0.9917E+01
      4.772  0.4178E+01  0.4171E+01  0.1013E+02  0.1012E+02
      4.822  0.4251E+01  0.4249E+01  0.1034E+02  0.1034E+02
      4.872  0.4076E+01  0.4077E+01  0.1054E+02  0.1054E+02
      4.922  0.3837E+01  0.3841E+01  0.1074E+02  0.1073E+02
      4.972  0.3568E+01  0.3573E+01  0.1091E+02  0.1091E+02
      5.022  0.3317E+01  0.3320E+01  0.1108E+02  0.1108E+02
      5.071  0.3226E+01  0.3224E+01  0.1124E+02  0.1124E+02
      5.121  0.3307E+01  0.3301E+01  0.1141E+02  0.1140E+02
      5.171  0.3436E+01  0.3431E+01  0.1158E+02  0.1157E+02
      5.221  0.3476E+01  0.3475E+01  0.1175E+02  0.1175E+02
      5.271  0.3508E+01  0.3503E+01  0.1193E+02  0.1192E+02
      5.321  0.3696E+01  0.3686E+01  0.1211E+02  0.1210E+02
      5.370  0.3930E+01  0.3923E+01  0.1231E+02  0.1230E+02
      5.420  0.3932E+01  0.3933E+01  0.1250E+02  0.1250E+02
      5.470  0.3602E+01  0.3611E+01  0.1268E+02  0.1268E+02
      5.520  0.3159E+01  0.3168E+01  0.1284E+02  0.1283E+02
      5.570  0.2836E+01  0.2840E+01  0.1298E+02  0.1298E+02
      5.620  0.2676E+01  0.2675E+01  0.1311E+02  0.1311E+02
      5.670  0.2612E+01  0.2611E+01  0.1324E+02  0.1324E+02
      5.719  0.2551E+01  0.2550E+01  0.1337E+02  0.1337E+02
      5.769  0.2448E+01  0.2449E+01  0.1349E+02  0.1349E+02
      5.819  0.2323E+01  0.2324E+01  0.1361E+02  0.1360E+02
      5.869  0.2191E+01  0.2194E+01  0.1372E+02  0.1371E+02
      5.919  0.2009E+01  0.2016E+01  0.1382E+02  0.1381E+02
      5.969  0.1754E+01  0.1766E+01  0.1391E+02  0.1390E+02
      6.018  0.1435E+01  0.1451E+01  0.1398E+02  0.1398E+02
      6.068  0.1100E+01  0.1115E+01  0.1403E+02  0.1403E+02
      6.118  0.8821E+00  0.8900E+00  0.1408E+02  0.1408E+02
      6.168  0.8815E+00  0.8807E+00  0.1412E+02  0.1412E+02
      6.218  0.1077E+01  0.1070E+01  0.1417E+02  0.1417E+02
      6.268  0.1442E+01  0.1429E+01  0.1425E+02  0.1424E+02
      6.318  0.2019E+01  0.1998E+01  0.1435E+02  0.1434E+02
      6.367  0.2808E+01  0.2780E+01  0.1449E+02  0.1448E+02
      6.417  0.3816E+01  0.3779E+01  0.1468E+02  0.1467E+02
      6.467  0.5136E+01  0.5088E+01  0.1493E+02  0.1492E+02
      6.517  0.6685E+01  0.6635E+01  0.1527E+02  0.1525E+02
      6.567  0.7968E+01  0.7939E+01  0.1566E+02  0.1565E+02
      6.617  0.8270E+01  0.8283E+01  0.1608E+02  0.1606E+02
      6.666  0.7397E+01  0.7443E+01  0.1644E+02  0.1643E+02
      6.716  0.5854E+01  0.5908E+01  0.1674E+02  0.1673E+02
      6.766  0.4296E+01  0.4339E+01  0.1695E+02  0.1695E+02
      6.816  0.3189E+01  0.3214E+01  0.1711E+02  0.1711E+02
      6.866  0.2609E+01  0.2619E+01  0.1724E+02  0.1724E+02
      6.916  0.2447E+01  0.2446E+01  0.1736E+02  0.1736E+02
      6.966  0.2501E+01  0.2498E+01  0.1749E+02  0.1748E+02
      7.015  0.2521E+01  0.2521E+01  0.1761E+02  0.1761E+02
      7.065  0.2502E+01  0.2502E+01  0.1774E+02  0.1773E+02
      7.115  0.2638E+01  0.2631E+01  0.1787E+02  0.1787E+02
      7.165  0.2996E+01  0.2983E+01  0.1802E+02  0.1801E+02
      7.215  0.3410E+01  0.3395E+01  0.1819E+02  0.1818E+02
      7.265  0.3680E+01  0.3665E+01  0.1837E+02  0.1837E+02
      7.314  0.3835E+01  0.3809E+01  0.1856E+02  0.1856E+02
      7.364  0.4013E+01  0.3976E+01  0.1876E+02  0.1875E+02
      7.414  0.4133E+01  0.4104E+01  0.1897E+02  0.1896E+02
      7.464  0.4081E+01  0.4074E+01  0.1917E+02  0.1916E+02
      7.514  0.3960E+01  0.3962E+01  0.1937E+02  0.1936E+02
      7.564  0.3877E+01  0.3883E+01  0.1956E+02  0.1955E+02
      7.614  0.3661E+01  0.3674E+01  0.1975E+02  0.1974E+02
      7.663  0.3261E+01  0.3263E+01  0.1991E+02  0.1990E+02
      7.713  0.2931E+01  0.2915E+01  0.2006E+02  0.2005E+02
      7.763  0.2769E+01  0.2751E+01  0.2019E+02  0.2018E+02
      7.813  0.2632E+01  0.2622E+01  0.2033E+02  0.2031E+02
      7.863  0.2459E+01  0.2457E+01  0.2045E+02  0.2044E+02
      7.913  0.2364E+01  0.2376E+01  0.2057E+02  0.2055E+02
      7.962  0.2382E+01  0.2406E+01  0.2069E+02  0.2067E+02
      8.012  0.2476E+01  0.2504E+01  0.2081E+02  0.2080E+02
      8.062  0.2615E+01  0.2646E+01  0.2094E+02  0.2093E+02
      8.112  0.2790E+01  0.2826E+01  0.2108E+02  0.2107E+02
      8.162  0.2894E+01  0.2951E+01  0.2122E+02  0.2122E+02
      8.212  0.2879E+01  0.2955E+01  0.2137E+02  0.2137E+02
      8.262  0.2810E+01  0.2883E+01  0.2151E+02  0.2151E+02
      8.311  0.2742E+01  0.2797E+01  0.2164E+02  0.2165E+02
      8.361  0.2717E+01  0.2748E+01  0.2178E+02  0.2179E+02
      8.411  0.2702E+01  0.2709E+01  0.2191E+02  0.2192E+02
      8.461  0.2656E+01  0.2654E+01  0.2205E+02  0.2205E+02
      8.511  0.2581E+01  0.2613E+01  0.2217E+02  0.2218E+02
      8.561  0.2507E+01  0.2612E+01  0.2230E+02  0.2232E+02
      8.611  0.2415E+01  0.2567E+01  0.2242E+02  0.2244E+02
      8.660  0.2282E+01  0.2405E+01  0.2253E+02  0.2256E+02
      8.710  0.2172E+01  0.2229E+01  0.2264E+02  0.2267E+02
      8.760  0.2112E+01  0.2116E+01  0.2275E+02  0.2278E+02
      8.810  0.2066E+01  0.2063E+01  0.2285E+02  0.2288E+02
      8.860  0.1998E+01  0.1995E+01  0.2295E+02  0.2298E+02
      8.910  0.1852E+01  0.1817E+01  0.2304E+02  0.2307E+02
      8.959  0.1683E+01  0.1612E+01  0.2313E+02  0.2315E+02
      9.009  0.1562E+01  0.1500E+01  0.2320E+02  0.2323E+02
      9.059  0.1486E+01  0.1482E+01  0.2328E+02  0.2330E+02
      9.109  0.1442E+01  0.1498E+01  0.2335E+02  0.2338E+02
      9.159  0.1394E+01  0.1460E+01  0.2342E+02  0.2345E+02
      9.209  0.1326E+01  0.1361E+01  0.2349E+02  0.2352E+02
      9.259  0.1238E+01  0.1262E+01  0.2355E+02  0.2358E+02
      9.308  0.1120E+01  0.1165E+01  0.2360E+02  0.2364E+02
      9.358  0.1011E+01  0.1069E+01  0.2365E+02  0.2369E+02
      9.408  0.9648E+00  0.9962E+00  0.2370E+02  0.2374E+02
      9.458  0.9382E+00  0.9186E+00  0.2375E+02  0.2379E+02
      9.508  0.8395E+00  0.7828E+00  0.2379E+02  0.2383E+02
      9.558  0.7146E+00  0.6247E+00  0.2383E+02  0.2386E+02
      9.607  0.6444E+00  0.5194E+00  0.2386E+02  0.2388E+02
      9.657  0.5926E+00  0.4623E+00  0.2389E+02  0.2391E+02
      9.707  0.5171E+00  0.4060E+00  0.2391E+02  0.2393E+02
      9.757  0.4214E+00  0.3435E+00  0.2394E+02  0.2394E+02
      9.807  0.3424E+00  0.2950E+00  0.2395E+02  0.2396E+02
      9.857  0.2919E+00  0.2590E+00  0.2397E+02  0.2397E+02
      9.907  0.2325E+00  0.2208E+00  0.2398E+02  0.2398E+02
      9.956  0.1526E+00  0.1635E+00  0.2399E+02  0.2399E+02
     10.006  0.8174E-01  0.9776E-01  0.2399E+02  0.2400E+02
     10.056  0.4188E-01  0.4728E-01  0.2399E+02  0.2400E+02
     10.106  0.2957E-01  0.1968E-01  0.2399E+02  0.2400E+02
     10.156  0.3300E-01  0.7613E-02  0.2400E+02  0.2400E+02
     10.206  0.3484E-01  0.2742E-02  0.2400E+02  0.2400E+02
     10.255  0.2535E-01  0.9754E-03  0.2400E+02  0.2400E+02
     10.305  0.1312E-01  0.2260E-03  0.2400E+02  0.2400E+02
     10.355  0.5615E-02  0.0000E+00  0.2400E+02  0.2400E+02
     10.405  0.2200E-02  0.0000E+00  0.2400E+02  0.2400E+02
     10.455  0.8304E-03  0.0000E+00  0.2400E+02  0.2400E+02
     10.505  0.3090E-03  0.0000E+00  0.2400E+02  0.2400E+02
     10.555  0.1144E-03  0.0000E+00  0.2400E+02  0.2400E+02
     10.604  0.0000E+00  0.0000E+00  0.2400E+02  0.2400E+02
     10.654  0.0000E+00  0.0000E+00  0.2400E+02  0.2400E+02
     10.704  0.0000E+00  0.0000E+00  0.2400E+02  0.2400E+02
     10.754  0.0000E+00  0.0000E+00  0.2400E+02  0.2400E+02
     10.804  0.0000E+00  0.0000E+00  0.2400E+02  0.2400E+02
     10.854  0.0000E+00  0.0000E+00  0.2400E+02  0.2400E+02
     10.85360151     -4.10040481  301      6.03799987      1.00000000
     -4.100  0.0000E+00  0.0000E+00  0.0000E+00  0.0000E+00  0.0000E+00  0.0000E+00  0.0000E+00  0.0000E+00  0.0000E+00  0.0000E+00  0.0000E+00  0.0000E+00  0.0000E+00  0.0000E+00  0.0000E+00  0.0000E+00  0.0000E+00  0.0000E+00
     -4.051  0.0000E+00  0.0000E+00  0.0000E+00  0.0000E+00  0.0000E+00  0.0000E+00  0.0000E+00  0.0000E+00  0.0000E+00  0.0000E+00  0.0000E+00  0.0000E+00  0.0000E+00  0.0000E+00  0.0000E+00  0.0000E+00  0.0000E+00  0.0000E+00
     -4.001  0.0000E+00  0.0000E+00  0.0000E+00  0.0000E+00  0.0000E+00  0.0000E+00  0.0000E+00  0.0000E+00  0.0000E+00  0.0000E+00  0.0000E+00  0.0000E+00  0.0000E+00  0.0000E+00  0.0000E+00  0.0000E+00  0.0000E+00  0.0000E+00
     -3.951  0.0000E+00  0.0000E+00  0.0000E+00  0.0000E+00  0.0000E+00  0.0000E+00  0.0000E+00  0.0000E+00  0.0000E+00  0.0000E+00  0.0000E+00  0.0000E+00  0.0000E+00  0.0000E+00  0.0000E+00  0.0000E+00  0.0000E+00  0.0000E+00
     -3.901  0.0000E+00  0.0000E+00  0.0000E+00  0.0000E+00  0.0000E+00  0.0000E+00  0.0000E+00  0.0000E+00  0.0000E+00  0.0000E+00  0.0000E+00  0.0000E+00  0.0000E+00  0.0000E+00  0.0000E+00  0.0000E+00  0.0000E+00  0.0000E+00
     -3.851  0.1319E-06  0.1310E-06  0.1123E-20  0.1203E-20  0.3907E-19  0.1669E-19  0.1123E-20  0.1203E-20  0.2376E-20  0.3835E-19  0.5393E-16  0.3712E-16  0.1231E-12  0.9560E-13  0.5393E-16  0.3712E-16  0.2611E-14  0.1386E-14
     -3.801  0.1045E-05  0.1038E-05  0.2368E-08  0.2351E-08  0.2638E-08  0.2619E-08  0.2368E-08  0.2351E-08  0.6795E-18  0.8256E-19  0.3853E-14  0.2328E-14  0.9978E-11  0.9448E-11  0.3853E-14  0.2328E-14  0.9136E-11  0.9085E-11
     -3.751  0.3690E-05  0.3664E-05  0.1448E-07  0.1437E-07  0.1428E-07  0.1419E-07  0.1448E-07  0.1437E-07  0.7311E-10  0.7192E-10  0.6541E-10  0.6451E-10  0.3598E-10  0.3480E-10  0.6541E-10  0.6451E-10  0.3887E-10  0.3879E-10
     -3.702  0.9699E-05  0.9632E-05  0.3998E-07  0.3969E-07  0.4629E-07  0.4597E-07  0.3998E-07  0.3969E-07  0.3137E-09  0.3095E-09  0.2344E-09  0.2314E-09  0.1409E-09  0.1378E-09  0.2344E-09  0.2314E-09  0.8201E-10  0.8180E-10
     -3.652  0.2613E-04  0.2595E-04  0.1093E-06  0.1085E-06  0.1388E-06  0.1378E-06  0.1093E-06  0.1085E-06  0.6608E-09  0.6516E-09  0.7241E-09  0.7143E-09  0.5096E-09  0.5003E-09  0.7241E-09  0.7143E-09  0.3576E-09  0.3566E-09
     -3.602  0.7143E-04  0.7094E-04  0.3287E-06  0.3264E-06  0.3803E-06  0.3777E-06  0.3287E-06  0.3264E-06  0.2425E-08  0.2394E-08  0.2360E-08  0.2331E-08  0.1489E-08  0.1462E-08  0.2360E-08  0.2331E-08  0.1255E-08  0.1252E-08
     -3.552  0.1886E-03  0.1873E-03  0.8820E-06  0.8758E-06  0.9976E-06  0.9908E-06  0.8820E-06  0.8758E-06  0.7170E-08  0.7081E-08  0.6262E-08  0.6185E-08  0.3930E-08  0.3858E-08  0.6262E-08  0.6185E-08  0.3268E-08  0.3259E-08
     -3.502  0.4824E-03  0.4793E-03  0.2302E-05  0.2287E-05  0.2663E-05  0.2645E-05  0.2302E-05  0.2287E-05  0.1797E-07  0.1775E-07  0.1696E-07  0.1675E-07  0.1060E-07  0.1042E-07  0.1696E-07  0.1675E-07  0.8591E-08  0.8568E-08
     -3.452  0.1148E-02  0.1142E-02  0.5887E-05  0.5849E-05  0.6825E-05  0.6782E-05  0.5887E-05  0.5849E-05  0.4838E-07  0.4778E-07  0.4615E-07  0.4560E-07  0.2820E-07  0.2776E-07  0.4615E-07  0.4560E-07  0.2214E-07  0.2208E-07
     -3.403  0.2389E-02  0.2378E-02  0.1385E-04  0.1377E-04  0.1591E-04  0.1582E-04  0.1385E-04  0.1377E-04  0.1259E-06  0.1244E-06  0.1154E-06  0.1141E-06  0.6969E-07  0.6878E-07  0.1154E-06  0.1141E-06  0.5328E-07  0.5318E-07
     -3.353  0.4130E-02  0.4117E-02  0.2841E-04  0.2828E-04  0.3298E-04  0.3282E-04  0.2841E-04  0.2828E-04  0.2880E-06  0.2850E-06  0.2657E-06  0.2629E-06  0.1583E-06  0.1568E-06  0.2657E-06  0.2629E-06  0.1209E-06  0.1207E-06
     -3.303  0.5885E-02  0.5873E-02  0.4997E-04  0.4978E-04  0.6017E-04  0.5994E-04  0.4997E-04  0.4978E-04  0.5870E-06  0.5817E-06  0.5520E-06  0.5468E-06  0.3339E-06  0.3316E-06  0.5520E-06  0.5468E-06  0.2564E-06  0.2560E-06
     -3.253  0.7352E-02  0.7342E-02  0.8001E-04  0.7973E-04  0.9747E-04  0.9718E-04  0.8001E-04  0.7973E-04  0.1081E-05  0.1073E-05  0.1048E-05  0.1040E-05  0.6437E-06  0.6403E-06  0.1048E-05  0.1040E-05  0.5329E-06  0.5321E-06
     -3.203  0.8836E-02  0.8824E-02  0.1236E-03  0.1232E-03  0.1414E-03  0.1411E-03  0.1236E-03  0.1232E-03  0.1932E-05  0.1919E-05  0.1828E-05  0.1815E-05  0.1113E-05  0.1108E-05  0.1828E-05  0.1815E-05  0.9916E-06  0.9911E-06
     -3.153  0.1031E-01  0.1030E-01  0.1761E-03  0.1757E-03  0.1887E-03  0.1883E-03  0.1761E-03  0.1757E-03  0.3293E-05  0.3273E-05  0.2936E-05  0.2919E-05  0.1734E-05  0.1726E-05  0.2936E-05  0.2919E-05  0.1517E-05  0.1518E-05
     -3.103  0.1110E-01  0.1110E-01  0.2168E-03  0.2166E-03  0.2483E-03  0.2478E-03  0.2168E-03  0.2166E-03  0.4826E-05  0.4803E-05  0.4412E-05  0.4390E-05  0.2517E-05  0.2505E-05  0.4412E-05  0.4390E-05  0.1941E-05  0.1943E-05
     -3.054  0.1144E-01  0.1144E-01  0.2488E-03  0.2485E-03  0.3319E-03  0.3312E-03  0.2488E-03  0.2485E-03  0.6539E-05  0.6507E-05  0.6456E-05  0.6427E-05  0.3568E-05  0.3553E-05  0.6456E-05  0.6427E-05  0.2426E-05  0.2426E-05
     -3.004  0.1206E-01  0.1205E-01  0.3020E-03  0.3015E-03  0.4100E-03  0.4095E-03  0.3020E-03  0.3015E-03  0.9230E-05  0.9185E-05  0.8842E-05  0.8810E-05  0.4923E-05  0.4907E-05  0.8842E-05  0.8810E-05  0.3460E-05  0.3453E-05
     -2.954  0.1272E-01  0.1271E-01  0.3814E-03  0.3807E-03  0.4457E-03  0.4454E-03  0.3814E-03  0.3807E-03  0.1244E-04  0.1239E-04  0.1108E-04  0.1104E-04  0.6501E-05  0.6484E-05  0.1108E-04  0.1104E-04  0.5515E-05  0.5501E-05
     -2.904  0.1354E-01  0.1353E-01  0.4768E-03  0.4760E-03  0.4926E-03  0.4919E-03  0.4768E-03  0.4760E-03  0.1569E-04  0.1564E-04  0.1435E-04  0.1430E-04  0.8529E-05  0.8507E-05  0.1435E-04  0.1430E-04  0.8392E-05  0.8378E-05
     -2.854  0.1480E-01  0.1479E-01  0.5680E-03  0.5674E-03  0.6226E-03  0.6214E-03  0.5680E-03  0.5674E-03  0.1985E-04  0.1978E-04  0.1985E-04  0.1979E-04  0.1121E-04  0.1118E-04  0.1985E-04  0.1979E-04  0.1071E-04  0.1071E-04
     -2.804  0.1551E-01  0.1551E-01  0.6201E-03  0.6197E-03  0.7805E-03  0.7795E-03  0.6201E-03  0.6197E-03  0.2511E-04  0.2503E-04  0.2547E-04  0.2541E-04  0.1417E-04  0.1414E-04  0.2547E-04  0.2541E-04  0.1148E-04  0.1149E-04
     -2.755  0.1529E-01  0.1529E-01  0.6521E-03  0.6517E-03  0.8681E-03  0.8676E-03  0.6521E-03  0.6517E-03  0.3281E-04  0.3270E-04  0.2941E-04  0.2936E-04  0.1685E-04  0.1681E-04  0.2941E-04  0.2936E-04  0.1147E-04  0.1148E-04
     -2.705  0.1477E-01  0.1477E-01  0.6949E-03  0.6944E-03  0.8931E-03  0.8927E-03  0.6949E-03  0.6944E-03  0.4194E-04  0.4183E-04  0.3379E-04  0.3373E-04  0.1856E-04  0.1852E-04  0.3379E-04  0.3373E-04  0.1178E-04  0.1178E-04
     -2.655  0.1445E-01  0.1445E-01  0.7445E-03  0.7439E-03  0.9576E-03  0.9566E-03  0.7445E-03  0.7439E-03  0.4703E-04  0.4696E-04  0.4197E-04  0.4187E-04  0.1981E-04  0.1977E-04  0.4197E-04  0.4187E-04  0.1388E-04  0.1386E-04
     -2.605  0.1512E-01  0.1511E-01  0.8460E-03  0.8448E-03  0.1121E-02  0.1119E-02  0.8460E-03  0.8448E-03  0.4971E-04  0.4963E-04  0.5401E-04  0.5389E-04  0.2340E-04  0.2334E-04  0.5401E-04  0.5389E-04  0.1993E-04  0.1987E-04
     -2.555  0.1637E-01  0.1636E-01  0.1004E-02  0.1003E-02  0.1274E-02  0.1273E-02  0.1004E-02  0.1003E-02  0.5571E-04  0.5560E-04  0.6285E-04  0.6278E-04  0.3056E-04  0.3049E-04  0.6285E-04  0.6278E-04  0.2927E-04  0.2919E-04
     -2.505  0.1684E-01  0.1684E-01  0.1138E-02  0.1137E-02  0.1340E-02  0.1339E-02  0.1138E-02  0.1137E-02  0.6710E-04  0.6693E-04  0.6499E-04  0.6494E-04  0.3937E-04  0.3931E-04  0.6499E-04  0.6494E-04  0.3722E-04  0.3717E-04
     -2.455  0.1714E-01  0.1713E-01  0.1249E-02  0.1248E-02  0.1463E-02  0.1462E-02  0.1249E-02  0.1248E-02  0.8683E-04  0.8659E-04  0.7283E-04  0.7268E-04  0.4726E-04  0.4720E-04  0.7283E-04  0.7268E-04  0.4065E-04  0.4064E-04
     -2.406  0.1794E-01  0.1793E-01  0.1374E-02  0.1373E-02  0.1682E-02  0.1680E-02  0.1374E-02  0.1373E-02  0.1108E-03  0.1105E-03  0.9316E-04  0.9294E-04  0.5204E-04  0.5201E-04  0.9316E-04  0.9294E-04  0.4187E-04  0.4187E-04
     -2.356  0.1831E-01  0.1831E-01  0.1460E-02  0.1459E-02  0.1863E-02  0.1862E-02  0.1460E-02  0.1459E-02  0.1284E-03  0.1283E-03  0.1148E-03  0.1146E-03  0.5412E-04  0.5410E-04  0.1148E-03  0.1146E-03  0.4266E-04  0.4267E-04
     -2.306  0.1745E-01  0.1746E-01  0.1429E-02  0.1429E-02  0.1995E-02  0.1994E-02  0.1429E-02  0.1429E-02  0.1320E-03  0.1319E-03  0.1303E-03  0.1302E-03  0.5468E-04  0.5466E-04  0.1303E-03  0.1302E-03  0.4146E-04  0.4148E-04
     -2.256  0.1594E-01  0.1595E-01  0.1348E-02  0.1349E-02  0.2084E-02  0.2083E-02  0.1348E-02  0.1349E-02  0.1278E-03  0.1277E-03  0.1415E-03  0.1414E-03  0.5360E-04  0.5359E-04  0.1415E-03  0.1414E-03  0.4066E-04  0.4066E-04
     -2.206  0.1497E-01  0.1497E-01  0.1362E-02  0.1362E-02  0.2140E-02  0.2139E-02  0.1362E-02  0.1362E-02  0.1374E-03  0.1372E-03  0.1521E-03  0.1519E-03  0.5411E-04  0.5407E-04  0.1521E-03  0.1519E-03  0.4384E-04  0.4382E-04
     -2.156  0.1503E-01  0.1503E-01  0.1505E-02  0.1503E-02  0.2316E-02  0.2314E-02  0.1505E-02  0.1503E-02  0.1683E-03  0.1679E-03  0.1647E-03  0.1645E-03  0.6432E-04  0.6422E-04  0.1647E-03  0.1645E-03  0.5195E-04  0.5189E-04
     -2.107  0.1627E-01  0.1626E-01  0.1793E-02  0.1791E-02  0.2662E-02  0.2659E-02  0.1793E-02  0.1791E-02  0.2129E-03  0.2124E-03  0.1833E-03  0.1830E-03  0.8712E-04  0.8699E-04  0.1833E-03  0.1830E-03  0.6970E-04  0.6956E-04
     -2.057  0.1808E-01  0.1807E-01  0.2162E-02  0.2159E-02  0.3046E-02  0.3043E-02  0.2162E-02  0.2159E-02  0.2499E-03  0.2496E-03  0.2162E-03  0.2158E-03  0.1095E-03  0.1094E-03  0.2162E-03  0.2158E-03  0.9572E-04  0.9558E-04
     -2.007  0.1903E-01  0.1903E-01  0.2399E-02  0.2398E-02  0.3404E-02  0.3402E-02  0.2399E-02  0.2398E-02  0.2634E-03  0.2632E-03  0.2611E-03  0.2606E-03  0.1179E-03  0.1179E-03  0.2611E-03  0.2606E-03  0.1152E-03  0.1152E-03
     -1.957  0.1866E-01  0.1866E-01  0.2449E-02  0.2449E-02  0.3743E-02  0.3740E-02  0.2449E-02  0.2449E-02  0.2709E-03  0.2707E-03  0.2990E-03  0.2985E-03  0.1167E-03  0.1168E-03  0.2990E-03  0.2985E-03  0.1211E-03  0.1211E-03
     -1.907  0.1745E-01  0.1746E-01  0.2403E-02  0.2403E-02  0.3947E-02  0.3946E-02  0.2403E-02  0.2403E-02  0.2875E-03  0.2872E-03  0.3199E-03  0.3195E-03  0.1129E-03  0.1130E-03  0.3199E-03  0.3195E-03  0.1187E-03  0.1187E-03
     -1.857  0.1604E-01  0.1604E-01  0.2335E-02  0.2335E-02  0.3912E-02  0.3913E-02  0.2335E-02  0.2335E-02  0.3160E-03  0.3156E-03  0.3376E-03  0.3371E-03  0.1044E-03  0.1045E-03  0.3376E-03  0.3371E-03  0.1110E-03  0.1111E-03
     -1.807  0.1514E-01  0.1515E-01  0.2341E-02  0.2340E-02  0.3839E-02  0.3838E-02  0.2341E-02  0.2340E-02  0.3599E-03  0.3595E-03  0.3716E-03  0.3710E-03  0.9522E-04  0.9531E-04  0.3716E-03  0.3710E-03  0.1041E-03  0.1041E-03
     -1.758  0.1474E-01  0.1474E-01  0.2410E-02  0.2409E-02  0.3991E-02  0.3989E-02  0.2410E-02  0.2409E-02  0.4091E-03  0.4088E-03  0.4179E-03  0.4173E-03  0.9631E-04  0.9632E-04  0.4179E-03  0.4173E-03  0.1020E-03  0.1021E-03
     -1.708  0.1412E-01  0.1413E-01  0.2410E-02  0.2410E-02  0.4274E-02  0.4273E-02  0.2410E-02  0.2410E-02  0.4473E-03  0.4470E-03  0.4630E-03  0.4624E-03  0.1062E-03  0.1062E-03  0.4630E-03  0.4624E-03  0.9896E-04  0.9900E-04
     -1.658  0.1378E-01  0.1378E-01  0.2480E-02  0.2478E-02  0.4344E-02  0.4345E-02  0.2480E-02  0.2478E-02  0.5013E-03  0.5007E-03  0.5043E-03  0.5037E-03  0.1189E-03  0.1188E-03  0.5043E-03  0.5037E-03  0.1013E-03  0.1013E-03
     -1.608  0.1428E-01  0.1428E-01  0.2791E-02  0.2788E-02  0.4163E-02  0.4164E-02  0.2791E-02  0.2788E-02  0.5763E-03  0.5757E-03  0.5471E-03  0.5464E-03  0.1314E-03  0.1313E-03  0.5471E-03  0.5464E-03  0.1241E-03  0.1239E-03