   8   8   1   0
  0.1561661E+02  0.3840333E-09  0.3840333E-09  0.8471087E-09  0.5000000E-15
  1.000000000000000E-004
  CAR 
 unknown system                          
     13.16778561     -3.58246290  301      7.59761966      1.00000000
     -3.582  0.0000E+00  0.0000E+00  0.0000E+00  0.0000E+00
     -3.527  0.0000E+00  0.0000E+00  0.0000E+00  0.0000E+00
     -3.471  0.0000E+00  0.0000E+00  0.0000E+00  0.0000E+00
     -3.415  0.0000E+00  0.0000E+00  0.0000E+00  0.0000E+00
     -3.359  0.0000E+00  0.0000E+00  0.0000E+00  0.0000E+00
     -3.303  0.0000E+00  0.0000E+00  0.0000E+00  0.0000E+00
     -3.247  0.2979E-05  0.2997E-05  0.1664E-06  0.1673E-06
     -3.192  0.2478E-04  0.2492E-04  0.1550E-05  0.1559E-05
     -3.136  0.9536E-04  0.9591E-04  0.6874E-05  0.6914E-05
     -3.080  0.2842E-03  0.2859E-03  0.2274E-04  0.2288E-04
     -3.024  0.8610E-03  0.8660E-03  0.7082E-04  0.7123E-04
     -2.968  0.2612E-02  0.2627E-02  0.2167E-03  0.2179E-03
     -2.912  0.7581E-02  0.7621E-02  0.6399E-03  0.6434E-03
     -2.857  0.2035E-01  0.2045E-01  0.1776E-02  0.1785E-02
     -2.801  0.4695E-01  0.4713E-01  0.4398E-02  0.4416E-02
     -2.745  0.8687E-01  0.8709E-01  0.9248E-02  0.9279E-02
     -2.689  0.1270E+00  0.1271E+00  0.1634E-01  0.1638E-01
     -2.633  0.1582E+00  0.1584E+00  0.2517E-01  0.2522E-01
     -2.577  0.1924E+00  0.1926E+00  0.3591E-01  0.3598E-01
     -2.522  0.2316E+00  0.2317E+00  0.4884E-01  0.4891E-01
     -2.466  0.2519E+00  0.2520E+00  0.6291E-01  0.6298E-01
     -2.410  0.2583E+00  0.2584E+00  0.7733E-01  0.7741E-01
     -2.354  0.2771E+00  0.2772E+00  0.9281E-01  0.9289E-01
     -2.298  0.2964E+00  0.2965E+00  0.1094E+00  0.1095E+00
     -2.242  0.3163E+00  0.3165E+00  0.1270E+00  0.1271E+00
     -2.187  0.3577E+00  0.3579E+00  0.1470E+00  0.1471E+00
     -2.131  0.3874E+00  0.3874E+00  0.1687E+00  0.1688E+00
     -2.075  0.3854E+00  0.3853E+00  0.1902E+00  0.1903E+00
     -2.019  0.3754E+00  0.3754E+00  0.2112E+00  0.2113E+00
     -1.963  0.3659E+00  0.3659E+00  0.2316E+00  0.2317E+00
     -1.907  0.3883E+00  0.3885E+00  0.2533E+00  0.2534E+00
     -1.852  0.4400E+00  0.4402E+00  0.2779E+00  0.2780E+00
     -1.796  0.4608E+00  0.4609E+00  0.3036E+00  0.3037E+00
     -1.740  0.4707E+00  0.4709E+00  0.3299E+00  0.3300E+00
     -1.684  0.5092E+00  0.5094E+00  0.3583E+00  0.3585E+00
     -1.628  0.5403E+00  0.5403E+00  0.3885E+00  0.3887E+00
     -1.572  0.5287E+00  0.5285E+00  0.4180E+00  0.4182E+00
     -1.517  0.4881E+00  0.4879E+00  0.4453E+00  0.4454E+00
     -1.461  0.4609E+00  0.4609E+00  0.4711E+00  0.4712E+00
     -1.405  0.4701E+00  0.4702E+00  0.4973E+00  0.4975E+00
     -1.349  0.5252E+00  0.5257E+00  0.5267E+00  0.5268E+00
     -1.293  0.6148E+00  0.6153E+00  0.5610E+00  0.5612E+00
     -1.237  0.6793E+00  0.6795E+00  0.5990E+00  0.5992E+00
     -1.182  0.6934E+00  0.6934E+00  0.6377E+00  0.6379E+00
     -1.126  0.6795E+00  0.6793E+00  0.6756E+00  0.6758E+00
     -1.070  0.6442E+00  0.6440E+00  0.7116E+00  0.7118E+00
     -1.014  0.6159E+00  0.6159E+00  0.7460E+00  0.7462E+00
     -0.958  0.6232E+00  0.6233E+00  0.7808E+00  0.7810E+00
     -0.902  0.6301E+00  0.6301E+00  0.8161E+00  0.8162E+00
     -0.847  0.6268E+00  0.6268E+00  0.8511E+00  0.8513E+00
     -0.791  0.6428E+00  0.6429E+00  0.8870E+00  0.8872E+00
     -0.735  0.6843E+00  0.6846E+00  0.9252E+00  0.9254E+00
     -0.679  0.7319E+00  0.7320E+00  0.9661E+00  0.9663E+00
     -0.623  0.7096E+00  0.7092E+00  0.1006E+01  0.1006E+01
     -0.567  0.6368E+00  0.6366E+00  0.1041E+01  0.1041E+01
     -0.512  0.6507E+00  0.6511E+00  0.1078E+01  0.1078E+01
     -0.456  0.7347E+00  0.7351E+00  0.1119E+01  0.1119E+01
     -0.400  0.7810E+00  0.7811E+00  0.1162E+01  0.1163E+01
     -0.344  0.7768E+00  0.7767E+00  0.1206E+01  0.1206E+01
     -0.288  0.7335E+00  0.7332E+00  0.1247E+01  0.1247E+01
     -0.232  0.6907E+00  0.6906E+00  0.1285E+01  0.1285E+01
     -0.177  0.6867E+00  0.6868E+00  0.1324E+01  0.1324E+01
     -0.121  0.6923E+00  0.6924E+00  0.1362E+01  0.1362E+01
     -0.065  0.7235E+00  0.7239E+00  0.1403E+01  0.1403E+01
     -0.009  0.8029E+00  0.8035E+00  0.1448E+01  0.1448E+01
      0.047  0.8838E+00  0.8842E+00  0.1497E+01  0.1497E+01
      0.103  0.9055E+00  0.9055E+00  0.1548E+01  0.1548E+01
      0.158  0.8952E+00  0.8951E+00  0.1598E+01  0.1598E+01
      0.214  0.8607E+00  0.8603E+00  0.1646E+01  0.1646E+01
      0.270  0.7609E+00  0.7602E+00  0.1688E+01  0.1688E+01
      0.326  0.6662E+00  0.6658E+00  0.1725E+01  0.1726E+01
      0.382  0.6717E+00  0.6721E+00  0.1763E+01  0.1763E+01
      0.438  0.7885E+00  0.7889E+00  0.1807E+01  0.1807E+01
      0.493  0.8435E+00  0.8434E+00  0.1854E+01  0.1854E+01
      0.549  0.8052E+00  0.8051E+00  0.1899E+01  0.1899E+01
      0.605  0.8460E+00  0.8466E+00  0.1946E+01  0.1947E+01
      0.661  0.9761E+00  0.9768E+00  0.2001E+01  0.2001E+01
      0.717  0.1077E+01  0.1077E+01  0.2061E+01  0.2061E+01
      0.773  0.1108E+01  0.1108E+01  0.2123E+01  0.2123E+01
      0.828  0.1071E+01  0.1071E+01  0.2183E+01  0.2183E+01
      0.884  0.1017E+01  0.1017E+01  0.2240E+01  0.2240E+01
      0.940  0.9960E+00  0.9959E+00  0.2295E+01  0.2295E+01
      0.996  0.9577E+00  0.9574E+00  0.2349E+01  0.2349E+01
      1.052  0.8863E+00  0.8860E+00  0.2398E+01  0.2398E+01
      1.108  0.8852E+00  0.8856E+00  0.2448E+01  0.2448E+01
      1.163  0.9920E+00  0.9927E+00  0.2503E+01  0.2503E+01
      1.219  0.1051E+01  0.1051E+01  0.2562E+01  0.2562E+01
      1.275  0.9932E+00  0.9927E+00  0.2617E+01  0.2617E+01
      1.331  0.9397E+00  0.9394E+00  0.2670E+01  0.2670E+01
      1.387  0.9440E+00  0.9441E+00  0.2722E+01  0.2723E+01
      1.443  0.1003E+01  0.1003E+01  0.2778E+01  0.2779E+01
      1.498  0.1024E+01  0.1023E+01  0.2836E+01  0.2836E+01
      1.554  0.8888E+00  0.8878E+00  0.2885E+01  0.2886E+01
      1.610  0.7427E+00  0.7421E+00  0.2927E+01  0.2927E+01
      1.666  0.7113E+00  0.7114E+00  0.2967E+01  0.2967E+01
      1.722  0.7848E+00  0.7853E+00  0.3010E+01  0.3011E+01
      1.778  0.8793E+00  0.8795E+00  0.3060E+01  0.3060E+01
      1.833  0.9077E+00  0.9075E+00  0.3110E+01  0.3110E+01
      1.889  0.8930E+00  0.8929E+00  0.3160E+01  0.3160E+01
      1.945  0.8603E+00  0.8600E+00  0.3208E+01  0.3208E+01
      2.001  0.8043E+00  0.8040E+00  0.3253E+01  0.3253E+01
      2.057  0.7980E+00  0.7980E+00  0.3298E+01  0.3298E+01
      2.113  0.8771E+00  0.8776E+00  0.3347E+01  0.3347E+01
      2.168  0.1023E+01  0.1024E+01  0.3404E+01  0.3404E+01
      2.224  0.1160E+01  0.1160E+01  0.3469E+01  0.3469E+01
      2.280  0.1222E+01  0.1222E+01  0.3537E+01  0.3537E+01
      2.336  0.1244E+01  0.1244E+01  0.3606E+01  0.3607E+01
      2.392  0.1256E+01  0.1256E+01  0.3677E+01  0.3677E+01
      2.448  0.1276E+01  0.1276E+01  0.3748E+01  0.3748E+01
      2.503  0.1296E+01  0.1296E+01  0.3820E+01  0.3821E+01
      2.559  0.1257E+01  0.1256E+01  0.3890E+01  0.3891E+01
      2.615  0.1138E+01  0.1137E+01  0.3954E+01  0.3954E+01
      2.671  0.1032E+01  0.1032E+01  0.4012E+01  0.4012E+01
      2.727  0.1050E+01  0.1050E+01  0.4070E+01  0.4071E+01
      2.783  0.1124E+01  0.1124E+01  0.4133E+01  0.4133E+01
      2.838  0.1135E+01  0.1135E+01  0.4196E+01  0.4197E+01
      2.894  0.1139E+01  0.1139E+01  0.4260E+01  0.4260E+01
      2.950  0.1222E+01  0.1222E+01  0.4328E+01  0.4329E+01
      3.006  0.1317E+01  0.1317E+01  0.4402E+01  0.4402E+01
      3.062  0.1408E+01  0.1408E+01  0.4481E+01  0.4481E+01
      3.118  0.1416E+01  0.1415E+01  0.4560E+01  0.4560E+01
      3.173  0.1318E+01  0.1318E+01  0.4633E+01  0.4634E+01
      3.229  0.1216E+01  0.1216E+01  0.4701E+01  0.4702E+01
      3.285  0.1150E+01  0.1150E+01  0.4766E+01  0.4766E+01
      3.341  0.1166E+01  0.1166E+01  0.4831E+01  0.4831E+01
      3.397  0.1182E+01  0.1182E+01  0.4897E+01  0.4897E+01
      3.453  0.1146E+01  0.1146E+01  0.4961E+01  0.4961E+01
      3.508  0.1149E+01  0.1149E+01  0.5025E+01  0.5025E+01
      3.564  0.1191E+01  0.1192E+01  0.5091E+01  0.5092E+01
      3.620  0.1254E+01  0.1255E+01  0.5162E+01  0.5162E+01
      3.676  0.1310E+01  0.1310E+01  0.5235E+01  0.5235E+01
      3.732  0.1305E+01  0.1304E+01  0.5308E+01  0.5308E+01
      3.788  0.1279E+01  0.1279E+01  0.5379E+01  0.5379E+01
      3.843  0.1328E+01  0.1328E+01  0.5453E+01  0.5454E+01
      3.899  0.1436E+01  0.1436E+01  0.5533E+01  0.5534E+01
      3.955  0.1491E+01  0.1490E+01  0.5617E+01  0.5617E+01
      4.011  0.1472E+01  0.1472E+01  0.5699E+01  0.5699E+01
      4.067  0.1415E+01  0.1415E+01  0.5778E+01  0.5778E+01
      4.123  0.1335E+01  0.1334E+01  0.5853E+01  0.5853E+01
      4.178  0.1287E+01  0.1287E+01  0.5925E+01  0.5925E+01
      4.234  0.1341E+01  0.1341E+01  0.5999E+01  0.6000E+01
      4.290  0.1410E+01  0.1410E+01  0.6078E+01  0.6078E+01
      4.346  0.1434E+01  0.1434E+01  0.6158E+01  0.6159E+01
      4.402  0.1487E+01  0.1487E+01  0.6241E+01  0.6242E+01
      4.458  0.1551E+01  0.1552E+01  0.6328E+01  0.6328E+01
      4.513  0.1599E+01  0.1599E+01  0.6417E+01  0.6418E+01
      4.569  0.1618E+01  0.1618E+01  0.6508E+01  0.6508E+01
      4.625  0.1622E+01  0.1622E+01  0.6598E+01  0.6599E+01
      4.681  0.1667E+01  0.1667E+01  0.6691E+01  0.6692E+01
      4.737  0.1774E+01  0.1774E+01  0.6791E+01  0.6791E+01
      4.793  0.1904E+01  0.1904E+01  0.6897E+01  0.6897E+01
      4.848  0.1955E+01  0.1955E+01  0.7006E+01  0.7006E+01
      4.904  0.1893E+01  0.1892E+01  0.7112E+01  0.7112E+01
      4.960  0.1726E+01  0.1726E+01  0.7208E+01  0.7208E+01
      5.016  0.1542E+01  0.1541E+01  0.7294E+01  0.7295E+01
      5.072  0.1485E+01  0.1484E+01  0.7377E+01  0.7378E+01
      5.128  0.1571E+01  0.1571E+01  0.7465E+01  0.7465E+01
      5.184  0.1739E+01  0.1739E+01  0.7562E+01  0.7562E+01
      5.239  0.1894E+01  0.1894E+01  0.7668E+01  0.7668E+01
      5.295  0.2080E+01  0.2080E+01  0.7784E+01  0.7784E+01
      5.351  0.2331E+01  0.2330E+01  0.7915E+01  0.7915E+01
      5.407  0.2593E+01  0.2593E+01  0.8059E+01  0.8059E+01
      5.463  0.2731E+01  0.2731E+01  0.8212E+01  0.8212E+01
      5.519  0.2658E+01  0.2658E+01  0.8360E+01  0.8360E+01
      5.574  0.2469E+01  0.2468E+01  0.8498E+01  0.8498E+01
      5.630  0.2265E+01  0.2264E+01  0.8625E+01  0.8625E+01
      5.686  0.2159E+01  0.2159E+01  0.8745E+01  0.8745E+01
      5.742  0.2279E+01  0.2278E+01  0.8873E+01  0.8873E+01
      5.798  0.2617E+01  0.2616E+01  0.9019E+01  0.9019E+01
      5.854  0.3017E+01  0.3015E+01  0.9188E+01  0.9187E+01
      5.909  0.3245E+01  0.3244E+01  0.9369E+01  0.9369E+01
      5.965  0.3228E+01  0.3227E+01  0.9549E+01  0.9549E+01
      6.021  0.3189E+01  0.3189E+01  0.9727E+01  0.9727E+01
      6.077  0.3426E+01  0.3424E+01  0.9919E+01  0.9918E+01
      6.133  0.3847E+01  0.3845E+01  0.1013E+02  0.1013E+02
      6.189  0.4024E+01  0.4022E+01  0.1036E+02  0.1036E+02
      6.244  0.3841E+01  0.3840E+01  0.1057E+02  0.1057E+02
      6.300  0.3506E+01  0.3506E+01  0.1077E+02  0.1077E+02
      6.356  0.3160E+01  0.3161E+01  0.1095E+02  0.1094E+02
      6.412  0.2944E+01  0.2944E+01  0.1111E+02  0.1111E+02
      6.468  0.2899E+01  0.2898E+01  0.1127E+02  0.1127E+02
      6.524  0.3004E+01  0.3002E+01  0.1144E+02  0.1144E+02
      6.579  0.3097E+01  0.3096E+01  0.1161E+02  0.1161E+02
      6.635  0.3051E+01  0.3050E+01  0.1178E+02  0.1178E+02
      6.691  0.3029E+01  0.3028E+01  0.1195E+02  0.1195E+02
      6.747  0.3213E+01  0.3211E+01  0.1213E+02  0.1213E+02
      6.803  0.3428E+01  0.3426E+01  0.1232E+02  0.1232E+02
      6.859  0.3375E+01  0.3375E+01  0.1251E+02  0.1251E+02
      6.914  0.2988E+01  0.2990E+01  0.1268E+02  0.1268E+02
      6.970  0.2555E+01  0.2556E+01  0.1282E+02  0.1282E+02
      7.026  0.2314E+01  0.2314E+01  0.1295E+02  0.1295E+02
      7.082  0.2221E+01  0.2220E+01  0.1308E+02  0.1307E+02
      7.138  0.2189E+01  0.2188E+01  0.1320E+02  0.1320E+02
      7.194  0.2153E+01  0.2152E+01  0.1332E+02  0.1332E+02
      7.249  0.2070E+01  0.2070E+01  0.1343E+02  0.1343E+02
      7.305  0.1954E+01  0.1953E+01  0.1354E+02  0.1354E+02
      7.361  0.1864E+01  0.1864E+01  0.1365E+02  0.1365E+02
      7.417  0.1800E+01  0.1801E+01  0.1375E+02  0.1375E+02
      7.473  0.1674E+01  0.1675E+01  0.1384E+02  0.1384E+02
      7.529  0.1465E+01  0.1468E+01  0.1392E+02  0.1392E+02
      7.584  0.1162E+01  0.1167E+01  0.1399E+02  0.1399E+02
      7.640  0.8181E+00  0.8239E+00  0.1403E+02  0.1403E+02
      7.696  0.5816E+00  0.5847E+00  0.1407E+02  0.1407E+02
      7.752  0.5376E+00  0.5381E+00  0.1410E+02  0.1410E+02
      7.808  0.6288E+00  0.6283E+00  0.1413E+02  0.1413E+02
      7.864  0.7648E+00  0.7641E+00  0.1417E+02  0.1417E+02
      7.919  0.9713E+00  0.9697E+00  0.1423E+02  0.1423E+02
      7.975  0.1331E+01  0.1328E+01  0.1430E+02  0.1430E+02
      8.031  0.1805E+01  0.1802E+01  0.1440E+02  0.1440E+02
      8.087  0.2329E+01  0.2325E+01  0.1453E+02  0.1453E+02
      8.143  0.3037E+01  0.3031E+01  0.1470E+02  0.1470E+02
      8.199  0.4031E+01  0.4023E+01  0.1493E+02  0.1493E+02
      8.254  0.5139E+01  0.5130E+01  0.1522E+02  0.1521E+02
      8.310  0.6336E+01  0.6325E+01  0.1557E+02  0.1557E+02
      8.366  0.7277E+01  0.7274E+01  0.1598E+02  0.1597E+02
      8.422  0.7022E+01  0.7032E+01  0.1637E+02  0.1636E+02
      8.478  0.5683E+01  0.5697E+01  0.1668E+02  0.1668E+02
      8.534  0.4204E+01  0.4213E+01  0.1692E+02  0.1692E+02
      8.589  0.3177E+01  0.3181E+01  0.1710E+02  0.1710E+02
      8.645  0.2640E+01  0.2640E+01  0.1724E+02  0.1724E+02
      8.701  0.2482E+01  0.2481E+01  0.1738E+02  0.1738E+02
      8.757  0.2450E+01  0.2451E+01  0.1752E+02  0.1752E+02
      8.813  0.2315E+01  0.2317E+01  0.1765E+02  0.1765E+02
      8.869  0.2093E+01  0.2096E+01  0.1777E+02  0.1777E+02
      8.924  0.1932E+01  0.1934E+01  0.1788E+02  0.1787E+02
      8.980  0.1912E+01  0.1912E+01  0.1798E+02  0.1798E+02
      9.036  0.2046E+01  0.2045E+01  0.1810E+02  0.1810E+02
      9.092  0.2278E+01  0.2277E+01  0.1822E+02  0.1822E+02
      9.148  0.2480E+01  0.2480E+01  0.1836E+02  0.1836E+02
      9.204  0.2511E+01  0.2512E+01  0.1850E+02  0.1850E+02
      9.259  0.2423E+01  0.2422E+01  0.1864E+02  0.1864E+02
      9.315  0.2447E+01  0.2446E+01  0.1877E+02  0.1877E+02
      9.371  0.2728E+01  0.2726E+01  0.1893E+02  0.1893E+02
      9.427  0.3113E+01  0.3111E+01  0.1910E+02  0.1910E+02
      9.483  0.3288E+01  0.3288E+01  0.1928E+02  0.1928E+02
      9.539  0.3203E+01  0.3207E+01  0.1946E+02  0.1946E+02
      9.594  0.2997E+01  0.3005E+01  0.1963E+02  0.1963E+02
      9.650  0.2617E+01  0.2622E+01  0.1978E+02  0.1978E+02
      9.706  0.2139E+01  0.2132E+01  0.1990E+02  0.1990E+02
      9.762  0.1891E+01  0.1876E+01  0.2000E+02  0.2000E+02
      9.818  0.1990E+01  0.1978E+01  0.2011E+02  0.2011E+02
      9.874  0.2232E+01  0.2223E+01  0.2024E+02  0.2024E+02
      9.929  0.2318E+01  0.2306E+01  0.2037E+02  0.2036E+02
      9.985  0.2166E+01  0.2166E+01  0.2049E+02  0.2049E+02
     10.041  0.1982E+01  0.2005E+01  0.2060E+02  0.2060E+02
     10.097  0.1932E+01  0.1962E+01  0.2071E+02  0.2071E+02
     10.153  0.1977E+01  0.1998E+01  0.2082E+02  0.2082E+02
     10.209  0.2074E+01  0.2093E+01  0.2093E+02  0.2094E+02
     10.264  0.2267E+01  0.2306E+01  0.2106E+02  0.2106E+02
     10.320  0.2592E+01  0.2663E+01  0.2121E+02  0.2121E+02
     10.376  0.2924E+01  0.3027E+01  0.2137E+02  0.2138E+02
     10.432  0.3084E+01  0.3229E+01  0.2154E+02  0.2156E+02
     10.488  0.3079E+01  0.3267E+01  0.2171E+02  0.2175E+02
     10.544  0.2943E+01  0.3122E+01  0.2188E+02  0.2192E+02
     10.599  0.2699E+01  0.2802E+01  0.2203E+02  0.2208E+02
     10.655  0.2428E+01  0.2459E+01  0.2216E+02  0.2221E+02
     10.711  0.2204E+01  0.2161E+01  0.2229E+02  0.2233E+02
     10.767  0.2047E+01  0.1964E+01  0.2240E+02  0.2244E+02
     10.823  0.1997E+01  0.1924E+01  0.2251E+02  0.2255E+02
     10.879  0.1959E+01  0.1901E+01  0.2262E+02  0.2266E+02
     10.934  0.1826E+01  0.1807E+01  0.2272E+02  0.2276E+02
     10.990  0.1697E+01  0.1711E+01  0.2282E+02  0.2285E+02
     11.046  0.1686E+01  0.1676E+01  0.2291E+02  0.2295E+02
     11.102  0.1720E+01  0.1679E+01  0.2301E+02  0.2304E+02
     11.158  0.1690E+01  0.1661E+01  0.2310E+02  0.2313E+02
     11.214  0.1632E+01  0.1626E+01  0.2320E+02  0.2323E+02
     11.269  0.1610E+01  0.1606E+01  0.2329E+02  0.2332E+02
     11.325  0.1503E+01  0.1494E+01  0.2337E+02  0.2340E+02
     11.381  0.1284E+01  0.1274E+01  0.2344E+02  0.2347E+02
     11.437  0.1072E+01  0.1070E+01  0.2350E+02  0.2353E+02
     11.493  0.9607E+00  0.9802E+00  0.2355E+02  0.2358E+02
     11.549  0.9436E+00  0.9760E+00  0.2361E+02  0.2364E+02
     11.604  0.9746E+00  0.9899E+00  0.2366E+02  0.2369E+02
     11.660  0.9659E+00  0.9129E+00  0.2372E+02  0.2375E+02
     11.716  0.8362E+00  0.7212E+00  0.2376E+02  0.2379E+02
     11.772  0.6690E+00  0.5501E+00  0.2380E+02  0.2382E+02
     11.828  0.5557E+00  0.4846E+00  0.2383E+02  0.2384E+02
     11.884  0.4724E+00  0.4964E+00  0.2386E+02  0.2387E+02
     11.939  0.4254E+00  0.5245E+00  0.2388E+02  0.2390E+02
     11.995  0.4115E+00  0.4773E+00  0.2390E+02  0.2393E+02
     12.051  0.3795E+00  0.3558E+00  0.2393E+02  0.2395E+02
     12.107  0.3156E+00  0.2362E+00  0.2394E+02  0.2396E+02
     12.163  0.2449E+00  0.1484E+00  0.2396E+02  0.2397E+02
     12.219  0.1813E+00  0.9910E-01  0.2397E+02  0.2397E+02
     12.274  0.1314E+00  0.9266E-01  0.2397E+02  0.2398E+02
     12.330  0.1229E+00  0.1126E+00  0.2398E+02  0.2399E+02
     12.386  0.1323E+00  0.1132E+00  0.2399E+02  0.2399E+02
     12.442  0.1094E+00  0.7685E-01  0.2399E+02  0.2400E+02
     12.498  0.6005E-01  0.3749E-01  0.2400E+02  0.2400E+02
     12.554  0.2462E-01  0.1472E-01  0.2400E+02  0.2400E+02
     12.609  0.8631E-02  0.5177E-02  0.2400E+02  0.2400E+02
     12.665  0.2907E-02  0.1722E-02  0.2400E+02  0.2400E+02
     12.721  0.9365E-03  0.5684E-03  0.2400E+02  0.2400E+02
     12.777  0.2605E-03  0.7506E-04  0.2400E+02  0.2400E+02
     12.833  0.0000E+00  0.0000E+00  0.2400E+02  0.2400E+02
     12.889  0.0000E+00  0.0000E+00  0.2400E+02  0.2400E+02
     12.944  0.0000E+00  0.0000E+00  0.2400E+02  0.2400E+02
     13.000  0.0000E+00  0.0000E+00  0.2400E+02  0.2400E+02
     13.056  0.0000E+00  0.0000E+00  0.2400E+02  0.2400E+02
     13.112  0.0000E+00  0.0000E+00  0.2400E+02  0.2400E+02
     13.168  0.0000E+00  0.0000E+00  0.2400E+02  0.2400E+02
     13.16778561     -3.58246290  301      7.59761966      1.00000000
     -3.582  0.0000E+00  0.0000E+00  0.0000E+00  0.0000E+00  0.0000E+00  0.0000E+00  0.0000E+00  0.0000E+00  0.0000E+00  0.0000E+00  0.0000E+00  0.0000E+00  0.0000E+00  0.0000E+00  0.0000E+00  0.0000E+00  0.0000E+00  0.0000E+00
     -3.527  0.0000E+00  0.0000E+00  0.0000E+00  0.0000E+00  0.0000E+00  0.0000E+00  0.0000E+00  0.0000E+00  0.0000E+00  0.0000E+00  0.0000E+00  0.0000E+00  0.0000E+00  0.0000E+00  0.0000E+00  0.0000E+00  0.0000E+00  0.0000E+00
     -3.471  0.0000E+00  0.0000E+00  0.0000E+00  0.0000E+00  0.0000E+00  0.0000E+00  0.0000E+00  0.0000E+00  0.0000E+00  0.0000E+00  0.0000E+00  0.0000E+00  0.0000E+00  0.0000E+00  0.0000E+00  0.0000E+00  0.0000E+00  0.0000E+00
     -3.415  0.0000E+00  0.0000E+00  0.0000E+00  0.0000E+00  0.0000E+00  0.0000E+00  0.0000E+00  0.0000E+00  0.0000E+00  0.0000E+00  0.0000E+00  0.0000E+00  0.0000E+00  0.0000E+00  0.0000E+00  0.0000E+00  0.0000E+00  0.0000E+00
     -3.359  0.0000E+00  0.0000E+00  0.0000E+00  0.0000E+00  0.0000E+00  0.0000E+00  0.0000E+00  0.0000E+00  0.0000E+00  0.0000E+00  0.0000E+00  0.0000E+00  0.0000E+00  0.0000E+00  0.0000E+00  0.0000E+00  0.0000E+00  0.0000E+00
     -3.303  0.0000E+00  0.0000E+00  0.0000E+00  0.0000E+00  0.0000E+00  0.0000E+00  0.0000E+00  0.0000E+00  0.0000E+00  0.0000E+00  0.0000E+00  0.0000E+00  0.0000E+00  0.0000E+00  0.0000E+00  0.0000E+00  0.0000E+00  0.0000E+00
     -3.247  0.1633E-06  0.1642E-06  0.1027E-19  0.2463E-20  0.9299E-20  0.6069E-19  0.1027E-19  0.2463E-20  0.1469E-19  0.4745E-20  0.2369E-18  0.2825E-19  0.3627E-11  0.3789E-11  0.2369E-18  0.2825E-19  0.2337E-17  0.8167E-16
     -3.192  0.1346E-05  0.1353E-05  0.3081E-08  0.3098E-08  0.3637E-08  0.3656E-08  0.3081E-08  0.3098E-08  0.3885E-19  0.6618E-19  0.2517E-17  0.8735E-18  0.4319E-10  0.4480E-10  0.2517E-17  0.8735E-18  0.1297E-10  0.1305E-10
     -3.136  0.5150E-05  0.5179E-05  0.1995E-07  0.2005E-07  0.2068E-07  0.2079E-07  0.1995E-07  0.2005E-07  0.9035E-10  0.9060E-10  0.8829E-10  0.8923E-10  0.1796E-09  0.1854E-09  0.8829E-10  0.8923E-10  0.6049E-10  0.6086E-10
     -3.080  0.1533E-04  0.1542E-04  0.6185E-07  0.6219E-07  0.7273E-07  0.7312E-07  0.6185E-07  0.6219E-07  0.4237E-09  0.4252E-09  0.3434E-09  0.3463E-09  0.5709E-09  0.5859E-09  0.3434E-09  0.3463E-09  0.1508E-09  0.1517E-09
     -3.024  0.4641E-04  0.4667E-04  0.1891E-06  0.1901E-06  0.2382E-06  0.2395E-06  0.1891E-06  0.1901E-06  0.1055E-08  0.1059E-08  0.1155E-08  0.1164E-08  0.1841E-08  0.1889E-08  0.1155E-08  0.1164E-08  0.6409E-09  0.6446E-09
     -2.968  0.1407E-03  0.1415E-03  0.6149E-06  0.6182E-06  0.7283E-06  0.7323E-06  0.6149E-06  0.6182E-06  0.3960E-08  0.3975E-08  0.4017E-08  0.4049E-08  0.5901E-08  0.6050E-08  0.4017E-08  0.4049E-08  0.2336E-08  0.2349E-08
     -2.912  0.4081E-03  0.4102E-03  0.1842E-05  0.1851E-05  0.2144E-05  0.2156E-05  0.1842E-05  0.1851E-05  0.1276E-07  0.1281E-07  0.1202E-07  0.1212E-07  0.1745E-07  0.1788E-07  0.1202E-07  0.1212E-07  0.6859E-08  0.6896E-08
     -2.857  0.1094E-02  0.1099E-02  0.5283E-05  0.5309E-05  0.6168E-05  0.6199E-05  0.5283E-05  0.5309E-05  0.3665E-07  0.3679E-07  0.3595E-07  0.3623E-07  0.4891E-07  0.5004E-07  0.3595E-07  0.3623E-07  0.1975E-07  0.1985E-07
     -2.801  0.2517E-02  0.2526E-02  0.1397E-04  0.1403E-04  0.1614E-04  0.1621E-04  0.1397E-04  0.1403E-04  0.1062E-06  0.1065E-06  0.1037E-06  0.1045E-06  0.1249E-06  0.1274E-06  0.1037E-06  0.1045E-06  0.5280E-07  0.5303E-07
     -2.745  0.4635E-02  0.4647E-02  0.3119E-04  0.3129E-04  0.3620E-04  0.3634E-04  0.3119E-04  0.3129E-04  0.2791E-06  0.2798E-06  0.2643E-06  0.2659E-06  0.2743E-06  0.2784E-06  0.2643E-06  0.2659E-06  0.1242E-06  0.1246E-06
     -2.689  0.6726E-02  0.6734E-02  0.5659E-04  0.5673E-04  0.6920E-04  0.6940E-04  0.5659E-04  0.5673E-04  0.5993E-06  0.6005E-06  0.5802E-06  0.5831E-06  0.5201E-06  0.5252E-06  0.5802E-06  0.5831E-06  0.2744E-06  0.2753E-06
     -2.633  0.8291E-02  0.8298E-02  0.9059E-04  0.9080E-04  0.1155E-03  0.1158E-03  0.9059E-04  0.9080E-04  0.1103E-05  0.1105E-05  0.1136E-05  0.1141E-05  0.9235E-06  0.9300E-06  0.1136E-05  0.1141E-05  0.6123E-06  0.6142E-06
     -2.577  0.9956E-02  0.9966E-02  0.1440E-03  0.1444E-03  0.1705E-03  0.1708E-03  0.1440E-03  0.1444E-03  0.2032E-05  0.2038E-05  0.2062E-05  0.2069E-05  0.1607E-05  0.1618E-05  0.2062E-05  0.2069E-05  0.1249E-05  0.1251E-05
     -2.522  0.1185E-01  0.1186E-01  0.2144E-03  0.2147E-03  0.2256E-03  0.2259E-03  0.2144E-03  0.2147E-03  0.3686E-05  0.3695E-05  0.3374E-05  0.3386E-05  0.2565E-05  0.2579E-05  0.3374E-05  0.3386E-05  0.2002E-05  0.2004E-05
     -2.466  0.1274E-01  0.1274E-01  0.2644E-03  0.2646E-03  0.2932E-03  0.2936E-03  0.2644E-03  0.2646E-03  0.5485E-05  0.5492E-05  0.5081E-05  0.5098E-05  0.3527E-05  0.3538E-05  0.5081E-05  0.5098E-05  0.2508E-05  0.2508E-05
     -2.410  0.1287E-01  0.1287E-01  0.2921E-03  0.2923E-03  0.4031E-03  0.4036E-03  0.2921E-03  0.2923E-03  0.7200E-05  0.7212E-05  0.7578E-05  0.7604E-05  0.4561E-05  0.4568E-05  0.7578E-05  0.7604E-05  0.2937E-05  0.2939E-05
     -2.354  0.1358E-01  0.1359E-01  0.3507E-03  0.3511E-03  0.5156E-03  0.5159E-03  0.3507E-03  0.3511E-03  0.1032E-04  0.1034E-04  0.1064E-04  0.1067E-04  0.6194E-05  0.6201E-05  0.1064E-04  0.1067E-04  0.4035E-05  0.4044E-05
     -2.298  0.1434E-01  0.1434E-01  0.4484E-03  0.4490E-03  0.5480E-03  0.5479E-03  0.4484E-03  0.4490E-03  0.1430E-04  0.1433E-04  0.1305E-04  0.1308E-04  0.8515E-05  0.8527E-05  0.1305E-04  0.1308E-04  0.6664E-05  0.6680E-05
     -2.242  0.1509E-01  0.1510E-01  0.5680E-03  0.5687E-03  0.5713E-03  0.5717E-03  0.5680E-03  0.5687E-03  0.1773E-04  0.1776E-04  0.1637E-04  0.1641E-04  0.1147E-04  0.1149E-04  0.1637E-04  0.1641E-04  0.1091E-04  0.1093E-04
     -2.187  0.1679E-01  0.1680E-01  0.6934E-03  0.6939E-03  0.7348E-03  0.7360E-03  0.6934E-03  0.6939E-03  0.2235E-04  0.2240E-04  0.2350E-04  0.2356E-04  0.1504E-04  0.1506E-04  0.2350E-04  0.2356E-04  0.1459E-04  0.1459E-04
     -2.131  0.1790E-01  0.1790E-01  0.7577E-03  0.7579E-03  0.9683E-03  0.9693E-03  0.7577E-03  0.7579E-03  0.2805E-04  0.2811E-04  0.3131E-04  0.3135E-04  0.1857E-04  0.1859E-04  0.3131E-04  0.3135E-04  0.1556E-04  0.1555E-04
     -2.075  0.1752E-01  0.1752E-01  0.7827E-03  0.7829E-03  0.1091E-02  0.1092E-02  0.7827E-03  0.7829E-03  0.3670E-04  0.3680E-04  0.3569E-04  0.3572E-04  0.2209E-04  0.2210E-04  0.3569E-04  0.3572E-04  0.1512E-04  0.1511E-04
     -2.019  0.1682E-01  0.1682E-01  0.8352E-03  0.8355E-03  0.1095E-02  0.1095E-02  0.8352E-03  0.8355E-03  0.4944E-04  0.4953E-04  0.3967E-04  0.3970E-04  0.2469E-04  0.2469E-04  0.3967E-04  0.3970E-04  0.1486E-04  0.1485E-04
     -1.963  0.1611E-01  0.1610E-01  0.8775E-03  0.8778E-03  0.1134E-02  0.1135E-02  0.8775E-03  0.8778E-03  0.5593E-04  0.5597E-04  0.4866E-04  0.4873E-04  0.2523E-04  0.2523E-04  0.4866E-04  0.4873E-04  0.1630E-04  0.1632E-04
     -1.907  0.1672E-01  0.1672E-01  0.9796E-03  0.9805E-03  0.1350E-02  0.1351E-02  0.9796E-03  0.9805E-03  0.5675E-04  0.5681E-04  0.6518E-04  0.6528E-04  0.2828E-04  0.2830E-04  0.6518E-04  0.6528E-04  0.2354E-04  0.2360E-04
     -1.852  0.1862E-01  0.1863E-01  0.1193E-02  0.1194E-02  0.1586E-02  0.1586E-02  0.1193E-02  0.1194E-02  0.6229E-04  0.6240E-04  0.7907E-04  0.7912E-04  0.3781E-04  0.3786E-04  0.7907E-04  0.7912E-04  0.3714E-04  0.3722E-04
     -1.796  0.1921E-01  0.1921E-01  0.1367E-02  0.1368E-02  0.1630E-02  0.1630E-02  0.1367E-02  0.1368E-02  0.7350E-04  0.7367E-04  0.7867E-04  0.7866E-04  0.5090E-04  0.5097E-04  0.7867E-04  0.7866E-04  0.4970E-04  0.4976E-04
     -1.740  0.1922E-01  0.1922E-01  0.1489E-02  0.1490E-02  0.1734E-02  0.1735E-02  0.1489E-02  0.1490E-02  0.9625E-04  0.9650E-04  0.8276E-04  0.8284E-04  0.6303E-04  0.6311E-04  0.8276E-04  0.8284E-04  0.5457E-04  0.5458E-04
     -1.684  0.2036E-01  0.2036E-01  0.1653E-02  0.1654E-02  0.2048E-02  0.2049E-02  0.1653E-02  0.1654E-02  0.1277E-03  0.1280E-03  0.1093E-03  0.1095E-03  0.7012E-04  0.7018E-04  0.1093E-03  0.1095E-03  0.5556E-04  0.5554E-04
     -1.628  0.2123E-01  0.2123E-01  0.1798E-02  0.1798E-02  0.2300E-02  0.2301E-02  0.1798E-02  0.1798E-02  0.1530E-03  0.1532E-03  0.1400E-03  0.1401E-03  0.7261E-04  0.7265E-04  0.1400E-03  0.1401E-03  0.5738E-04  0.5736E-04
     -1.572  0.2036E-01  0.2035E-01  0.1770E-02  0.1770E-02  0.2459E-02  0.2460E-02  0.1770E-02  0.1770E-02  0.1589E-03  0.1590E-03  0.1601E-03  0.1601E-03  0.7277E-04  0.7279E-04  0.1601E-03  0.1601E-03  0.5563E-04  0.5559E-04
     -1.517  0.1828E-01  0.1827E-01  0.1616E-02  0.1616E-02  0.2576E-02  0.2577E-02  0.1616E-02  0.1616E-02  0.1469E-03  0.1469E-03  0.1734E-03  0.1734E-03  0.6942E-04  0.6942E-04  0.1734E-03  0.1734E-03  0.5246E-04  0.5243E-04
     -1.461  0.1678E-01  0.1677E-01  0.1585E-02  0.1586E-02  0.2586E-02  0.2586E-02  0.1585E-02  0.1586E-02  0.1502E-03  0.1504E-03  0.1851E-03  0.1852E-03  0.6617E-04  0.6620E-04  0.1851E-03  0.1852E-03  0.5511E-04  0.5511E-04
     -1.405  0.1658E-01  0.1659E-01  0.1723E-02  0.1724E-02  0.2720E-02  0.2722E-02  0.1723E-02  0.1724E-02  0.1844E-03  0.1847E-03  0.1987E-03  0.1988E-03  0.7524E-04  0.7536E-04  0.1987E-03  0.1988E-03  0.6256E-04  0.6258E-04
     -1.349  0.1788E-01  0.1789E-01  0.2047E-02  0.2050E-02  0.3153E-02  0.3156E-02  0.2047E-02  0.2050E-02  0.2413E-03  0.2417E-03  0.2160E-03  0.2161E-03  0.1076E-03  0.1078E-03  0.2160E-03  0.2161E-03  0.8243E-04  0.8255E-04
     -1.293  0.2040E-01  0.2041E-01  0.2556E-02  0.2559E-02  0.3684E-02  0.3686E-02  0.2556E-02  0.2559E-02  0.2949E-03  0.2951E-03  0.2526E-03  0.2529E-03  0.1464E-03  0.1466E-03  0.2526E-03  0.2529E-03  0.1208E-03  0.1210E-03
     -1.237  0.2207E-01  0.2208E-01  0.2923E-02  0.2924E-02  0.4139E-02  0.4140E-02  0.2923E-02  0.2924E-02  0.3111E-03  0.3112E-03  0.3134E-03  0.3137E-03  0.1618E-03  0.1618E-03  0.3134E-03  0.3137E-03  0.1543E-03  0.1543E-03
     -1.182  0.2178E-01  0.2177E-01  0.2991E-02  0.2991E-02  0.4562E-02  0.4564E-02  0.2991E-02  0.2991E-02  0.3122E-03  0.3123E-03  0.3678E-03  0.3680E-03  0.1580E-03  0.1580E-03  0.3678E-03  0.3680E-03  0.1641E-03  0.1640E-03
     -1.126  0.2037E-01  0.2036E-01  0.2926E-02  0.2925E-02  0.4907E-02  0.4908E-02  0.2926E-02  0.2925E-02  0.3276E-03  0.3279E-03  0.3945E-03  0.3946E-03  0.1539E-03  0.1539E-03  0.3945E-03  0.3946E-03  0.1612E-03  0.1611E-03
     -1.070  0.1853E-01  0.1852E-01  0.2812E-02  0.2811E-02  0.4926E-02  0.4925E-02  0.2812E-02  0.2811E-02  0.3570E-03  0.3574E-03  0.4086E-03  0.4086E-03  0.1442E-03  0.1442E-03  0.4086E-03  0.4086E-03  0.1504E-03  0.1502E-03
     -1.014  0.1725E-01  0.1725E-01  0.2780E-02  0.2781E-02  0.4748E-02  0.4747E-02  0.2780E-02  0.2781E-02  0.4072E-03  0.4077E-03  0.4448E-03  0.4450E-03  0.1275E-03  0.1275E-03  0.4448E-03  0.4450E-03  0.1377E-03  0.1376E-03
     -0.958  0.1695E-01  0.1695E-01  0.2900E-02  0.2900E-02  0.4859E-02  0.4860E-02  0.2900E-02  0.2900E-02  0.4724E-03  0.4729E-03  0.5053E-03  0.5055E-03  0.1257E-03  0.1258E-03  0.5053E-03  0.5055E-03  0.1364E-03  0.1363E-03
     -0.902  0.1625E-01  0.1625E-01  0.2893E-02  0.2892E-02  0.5322E-02  0.5324E-02  0.2893E-02  0.2892E-02  0.5139E-03  0.5143E-03  0.5661E-03  0.5663E-03  0.1390E-03  0.1391E-03  0.5661E-03  0.5663E-03  0.1324E-03  0.1323E-03
     -0.847  0.1549E-01  0.1549E-01  0.2862E-02  0.2863E-02  0.5579E-02  0.5578E-02  0.2862E-02  0.2863E-02  0.5654E-03  0.5661E-03  0.6205E-03  0.6206E-03  0.1548E-03  0.1550E-03  0.6205E-03  0.6206E-03  0.1259E-03  0.1258E-03
     -0.791  0.1599E-01  0.1599E-01  0.3191E-02  0.3194E-02  0.5267E-02  0.5264E-02  0.3191E-02  0.3194E-02  0.6696E-03  0.6705E-03  0.6659E-03  0.6660E-03  0.1716E-03  0.1717E-03  0.6659E-03  0.6660E-03  0.1462E-03  0.1463E-03