   8   8   1   0
  0.1343079E+02  0.3652081E-09  0.3652081E-09  0.8055837E-09  0.5000000E-15
  1.000000000000000E-004
  CAR 
 unknown system                          
     15.83271946     -3.02542991  301      9.13531097      1.00000000
     -3.025  0.0000E+00  0.0000E+00  0.0000E+00  0.0000E+00
     -2.963  0.0000E+00  0.0000E+00  0.0000E+00  0.0000E+00
     -2.900  0.0000E+00  0.0000E+00  0.0000E+00  0.0000E+00
     -2.837  0.0000E+00  0.0000E+00  0.0000E+00  0.0000E+00
     -2.774  0.0000E+00  0.0000E+00  0.0000E+00  0.0000E+00
     -2.711  0.0000E+00  0.0000E+00  0.0000E+00  0.0000E+00
     -2.648  0.0000E+00  0.0000E+00  0.0000E+00  0.0000E+00
     -2.585  0.3200E-05  0.3062E-05  0.2011E-06  0.1925E-06
     -2.523  0.2845E-04  0.2722E-04  0.1989E-05  0.1904E-05
     -2.460  0.1221E-03  0.1168E-03  0.9664E-05  0.9249E-05
     -2.397  0.4207E-03  0.4027E-03  0.3611E-04  0.3457E-04
     -2.334  0.1457E-02  0.1396E-02  0.1277E-03  0.1223E-03
     -2.271  0.4938E-02  0.4737E-02  0.4381E-03  0.4201E-03
     -2.208  0.1527E-01  0.1471E-01  0.1398E-02  0.1345E-02
     -2.145  0.3945E-01  0.3832E-01  0.3877E-02  0.3753E-02
     -2.083  0.7822E-01  0.7675E-01  0.8794E-02  0.8578E-02
     -2.020  0.1162E+00  0.1151E+00  0.1610E-01  0.1581E-01
     -1.957  0.1423E+00  0.1414E+00  0.2504E-01  0.2470E-01
     -1.894  0.1736E+00  0.1722E+00  0.3595E-01  0.3553E-01
     -1.831  0.2133E+00  0.2122E+00  0.4937E-01  0.4886E-01
     -1.768  0.2290E+00  0.2290E+00  0.6376E-01  0.6326E-01
     -1.705  0.2304E+00  0.2300E+00  0.7825E-01  0.7772E-01
     -1.642  0.2510E+00  0.2501E+00  0.9403E-01  0.9345E-01
     -1.580  0.2672E+00  0.2669E+00  0.1108E+00  0.1102E+00
     -1.517  0.2842E+00  0.2830E+00  0.1287E+00  0.1280E+00
     -1.454  0.3300E+00  0.3283E+00  0.1494E+00  0.1487E+00
     -1.391  0.3553E+00  0.3552E+00  0.1718E+00  0.1710E+00
     -1.328  0.3471E+00  0.3474E+00  0.1936E+00  0.1928E+00
     -1.265  0.3360E+00  0.3365E+00  0.2147E+00  0.2140E+00
     -1.202  0.3234E+00  0.3233E+00  0.2351E+00  0.2343E+00
     -1.140  0.3550E+00  0.3529E+00  0.2574E+00  0.2565E+00
     -1.077  0.4098E+00  0.4086E+00  0.2832E+00  0.2822E+00
     -1.014  0.4155E+00  0.4157E+00  0.3093E+00  0.3084E+00
     -0.951  0.4274E+00  0.4261E+00  0.3362E+00  0.3352E+00
     -0.888  0.4743E+00  0.4726E+00  0.3660E+00  0.3649E+00
     -0.825  0.4977E+00  0.4978E+00  0.3973E+00  0.3962E+00
     -0.762  0.4716E+00  0.4731E+00  0.4270E+00  0.4260E+00
     -0.700  0.4258E+00  0.4271E+00  0.4538E+00  0.4529E+00
     -0.637  0.4081E+00  0.4081E+00  0.4795E+00  0.4785E+00
     -0.574  0.4278E+00  0.4261E+00  0.5064E+00  0.5053E+00
     -0.511  0.4995E+00  0.4959E+00  0.5378E+00  0.5365E+00
     -0.448  0.5927E+00  0.5899E+00  0.5751E+00  0.5736E+00
     -0.385  0.6334E+00  0.6329E+00  0.6149E+00  0.6134E+00
     -0.322  0.6298E+00  0.6301E+00  0.6545E+00  0.6530E+00
     -0.260  0.6061E+00  0.6072E+00  0.6926E+00  0.6912E+00
     -0.197  0.5666E+00  0.5679E+00  0.7282E+00  0.7269E+00
     -0.134  0.5574E+00  0.5568E+00  0.7633E+00  0.7620E+00
     -0.071  0.5760E+00  0.5755E+00  0.7995E+00  0.7982E+00
     -0.008  0.5720E+00  0.5723E+00  0.8355E+00  0.8342E+00
      0.055  0.5714E+00  0.5711E+00  0.8715E+00  0.8701E+00
      0.118  0.5985E+00  0.5972E+00  0.9091E+00  0.9077E+00
      0.180  0.6554E+00  0.6530E+00  0.9503E+00  0.9487E+00
      0.243  0.6731E+00  0.6745E+00  0.9927E+00  0.9911E+00
      0.306  0.5890E+00  0.5924E+00  0.1030E+01  0.1028E+01
      0.369  0.5627E+00  0.5609E+00  0.1065E+01  0.1064E+01
      0.432  0.6558E+00  0.6522E+00  0.1106E+01  0.1105E+01
      0.495  0.7166E+00  0.7158E+00  0.1151E+01  0.1150E+01
      0.558  0.7187E+00  0.7193E+00  0.1197E+01  0.1195E+01
      0.620  0.6866E+00  0.6887E+00  0.1240E+01  0.1238E+01
      0.683  0.6254E+00  0.6273E+00  0.1279E+01  0.1278E+01
      0.746  0.6062E+00  0.6061E+00  0.1317E+01  0.1316E+01
      0.809  0.6160E+00  0.6153E+00  0.1356E+01  0.1355E+01
      0.872  0.6464E+00  0.6448E+00  0.1397E+01  0.1395E+01
      0.935  0.7026E+00  0.7000E+00  0.1441E+01  0.1439E+01
      0.998  0.7906E+00  0.7871E+00  0.1491E+01  0.1489E+01
      1.061  0.8606E+00  0.8597E+00  0.1545E+01  0.1543E+01
      1.123  0.8548E+00  0.8562E+00  0.1599E+01  0.1597E+01
      1.186  0.8025E+00  0.8057E+00  0.1649E+01  0.1647E+01
      1.249  0.7063E+00  0.7103E+00  0.1693E+01  0.1692E+01
      1.312  0.6319E+00  0.6334E+00  0.1733E+01  0.1732E+01
      1.375  0.6593E+00  0.6563E+00  0.1775E+01  0.1773E+01
      1.438  0.7701E+00  0.7672E+00  0.1823E+01  0.1821E+01
      1.501  0.7714E+00  0.7741E+00  0.1872E+01  0.1870E+01
      1.563  0.7405E+00  0.7394E+00  0.1918E+01  0.1917E+01
      1.626  0.8471E+00  0.8425E+00  0.1972E+01  0.1970E+01
      1.689  0.9418E+00  0.9400E+00  0.2031E+01  0.2029E+01
      1.752  0.9768E+00  0.9751E+00  0.2092E+01  0.2090E+01
      1.815  0.1011E+01  0.1011E+01  0.2156E+01  0.2154E+01
      1.878  0.9892E+00  0.9911E+00  0.2218E+01  0.2216E+01
      1.941  0.9512E+00  0.9526E+00  0.2278E+01  0.2276E+01
      2.003  0.9045E+00  0.9065E+00  0.2335E+01  0.2333E+01
      2.066  0.8431E+00  0.8452E+00  0.2388E+01  0.2386E+01
      2.129  0.8294E+00  0.8282E+00  0.2440E+01  0.2438E+01
      2.192  0.9303E+00  0.9265E+00  0.2498E+01  0.2496E+01
      2.255  0.9902E+00  0.9909E+00  0.2561E+01  0.2559E+01
      2.318  0.9282E+00  0.9306E+00  0.2619E+01  0.2617E+01
      2.381  0.8931E+00  0.8935E+00  0.2675E+01  0.2674E+01
      2.443  0.9186E+00  0.9171E+00  0.2733E+01  0.2731E+01
      2.506  0.9840E+00  0.9828E+00  0.2795E+01  0.2793E+01
      2.569  0.9319E+00  0.9367E+00  0.2854E+01  0.2852E+01
      2.632  0.7495E+00  0.7549E+00  0.2901E+01  0.2899E+01
      2.695  0.6492E+00  0.6508E+00  0.2942E+01  0.2940E+01
      2.758  0.6693E+00  0.6673E+00  0.2984E+01  0.2982E+01
      2.821  0.7703E+00  0.7673E+00  0.3032E+01  0.3031E+01
      2.883  0.8351E+00  0.8344E+00  0.3085E+01  0.3083E+01
      2.946  0.8463E+00  0.8468E+00  0.3138E+01  0.3136E+01
      3.009  0.8378E+00  0.8387E+00  0.3191E+01  0.3189E+01
      3.072  0.7759E+00  0.7785E+00  0.3239E+01  0.3238E+01
      3.135  0.7111E+00  0.7122E+00  0.3284E+01  0.3283E+01
      3.198  0.7470E+00  0.7447E+00  0.3331E+01  0.3330E+01
      3.261  0.8730E+00  0.8688E+00  0.3386E+01  0.3384E+01
      3.323  0.9960E+00  0.9940E+00  0.3449E+01  0.3447E+01
      3.386  0.1044E+01  0.1043E+01  0.3514E+01  0.3513E+01
      3.449  0.1083E+01  0.1082E+01  0.3583E+01  0.3581E+01
      3.512  0.1080E+01  0.1081E+01  0.3650E+01  0.3649E+01
      3.575  0.1086E+01  0.1084E+01  0.3719E+01  0.3717E+01
      3.638  0.1167E+01  0.1164E+01  0.3792E+01  0.3790E+01
      3.701  0.1179E+01  0.1181E+01  0.3866E+01  0.3864E+01
      3.764  0.1057E+01  0.1061E+01  0.3933E+01  0.3931E+01
      3.826  0.9720E+00  0.9736E+00  0.3994E+01  0.3992E+01
      3.889  0.9869E+00  0.9869E+00  0.4056E+01  0.4054E+01
      3.952  0.1042E+01  0.1040E+01  0.4121E+01  0.4120E+01
      4.015  0.1119E+01  0.1118E+01  0.4192E+01  0.4190E+01
      4.078  0.1150E+01  0.1151E+01  0.4264E+01  0.4262E+01
      4.141  0.1166E+01  0.1166E+01  0.4338E+01  0.4336E+01
      4.204  0.1188E+01  0.1187E+01  0.4412E+01  0.4410E+01
      4.266  0.1281E+01  0.1279E+01  0.4493E+01  0.4491E+01
      4.329  0.1353E+01  0.1353E+01  0.4578E+01  0.4576E+01
      4.392  0.1334E+01  0.1335E+01  0.4662E+01  0.4660E+01
      4.455  0.1240E+01  0.1244E+01  0.4740E+01  0.4738E+01
      4.518  0.1128E+01  0.1130E+01  0.4811E+01  0.4809E+01
      4.581  0.1110E+01  0.1110E+01  0.4881E+01  0.4879E+01
      4.644  0.1102E+01  0.1102E+01  0.4950E+01  0.4948E+01
      4.706  0.1140E+01  0.1140E+01  0.5022E+01  0.5020E+01
      4.769  0.1190E+01  0.1191E+01  0.5097E+01  0.5095E+01
      4.832  0.1199E+01  0.1200E+01  0.5172E+01  0.5171E+01
      4.895  0.1252E+01  0.1252E+01  0.5251E+01  0.5249E+01
      4.958  0.1257E+01  0.1257E+01  0.5330E+01  0.5328E+01
      5.021  0.1306E+01  0.1303E+01  0.5412E+01  0.5410E+01
      5.084  0.1413E+01  0.1412E+01  0.5501E+01  0.5499E+01
      5.146  0.1385E+01  0.1386E+01  0.5588E+01  0.5586E+01
      5.209  0.1316E+01  0.1315E+01  0.5671E+01  0.5669E+01
      5.272  0.1310E+01  0.1309E+01  0.5753E+01  0.5751E+01
      5.335  0.1260E+01  0.1262E+01  0.5832E+01  0.5831E+01
      5.398  0.1175E+01  0.1176E+01  0.5906E+01  0.5905E+01
      5.461  0.1207E+01  0.1206E+01  0.5982E+01  0.5981E+01
      5.524  0.1275E+01  0.1276E+01  0.6062E+01  0.6061E+01
      5.586  0.1269E+01  0.1272E+01  0.6142E+01  0.6141E+01
      5.649  0.1255E+01  0.1257E+01  0.6221E+01  0.6220E+01
      5.712  0.1247E+01  0.1246E+01  0.6300E+01  0.6298E+01
      5.775  0.1294E+01  0.1293E+01  0.6381E+01  0.6380E+01
      5.838  0.1389E+01  0.1388E+01  0.6468E+01  0.6467E+01
      5.901  0.1542E+01  0.1541E+01  0.6565E+01  0.6564E+01
      5.964  0.1655E+01  0.1655E+01  0.6669E+01  0.6668E+01
      6.026  0.1620E+01  0.1622E+01  0.6771E+01  0.6770E+01
      6.089  0.1598E+01  0.1599E+01  0.6872E+01  0.6871E+01
      6.152  0.1756E+01  0.1754E+01  0.6982E+01  0.6981E+01
      6.215  0.1905E+01  0.1905E+01  0.7102E+01  0.7101E+01
      6.278  0.1847E+01  0.1850E+01  0.7218E+01  0.7217E+01
      6.341  0.1607E+01  0.1612E+01  0.7319E+01  0.7318E+01
      6.404  0.1427E+01  0.1430E+01  0.7409E+01  0.7408E+01
      6.467  0.1547E+01  0.1546E+01  0.7506E+01  0.7506E+01
      6.529  0.1812E+01  0.1812E+01  0.7620E+01  0.7620E+01
      6.592  0.2039E+01  0.2042E+01  0.7749E+01  0.7748E+01
      6.655  0.2277E+01  0.2280E+01  0.7892E+01  0.7891E+01
      6.718  0.2490E+01  0.2492E+01  0.8048E+01  0.8048E+01
      6.781  0.2560E+01  0.2563E+01  0.8209E+01  0.8209E+01
      6.844  0.2503E+01  0.2507E+01  0.8367E+01  0.8367E+01
      6.907  0.2382E+01  0.2384E+01  0.8517E+01  0.8517E+01
      6.969  0.2205E+01  0.2207E+01  0.8655E+01  0.8656E+01
      7.032  0.2055E+01  0.2062E+01  0.8784E+01  0.8786E+01
      7.095  0.2129E+01  0.2141E+01  0.8918E+01  0.8920E+01
      7.158  0.2456E+01  0.2473E+01  0.9073E+01  0.9076E+01
      7.221  0.2933E+01  0.2950E+01  0.9257E+01  0.9261E+01
      7.284  0.3141E+01  0.3149E+01  0.9455E+01  0.9459E+01
      7.347  0.3066E+01  0.3071E+01  0.9648E+01  0.9653E+01
      7.409  0.3096E+01  0.3107E+01  0.9842E+01  0.9848E+01
      7.472  0.3370E+01  0.3381E+01  0.1005E+02  0.1006E+02
      7.535  0.3624E+01  0.3628E+01  0.1028E+02  0.1029E+02
      7.598  0.3625E+01  0.3622E+01  0.1051E+02  0.1052E+02
      7.661  0.3329E+01  0.3322E+01  0.1072E+02  0.1073E+02
      7.724  0.2968E+01  0.2963E+01  0.1091E+02  0.1091E+02
      7.787  0.2773E+01  0.2776E+01  0.1108E+02  0.1109E+02
      7.849  0.2800E+01  0.2815E+01  0.1126E+02  0.1126E+02
      7.912  0.2894E+01  0.2910E+01  0.1144E+02  0.1145E+02
      7.975  0.2895E+01  0.2903E+01  0.1162E+02  0.1163E+02
      8.038  0.2800E+01  0.2804E+01  0.1180E+02  0.1181E+02
      8.101  0.2774E+01  0.2790E+01  0.1197E+02  0.1198E+02
      8.164  0.2934E+01  0.2952E+01  0.1216E+02  0.1217E+02
      8.227  0.3033E+01  0.3041E+01  0.1235E+02  0.1236E+02
      8.289  0.2888E+01  0.2880E+01  0.1253E+02  0.1254E+02
      8.352  0.2502E+01  0.2485E+01  0.1269E+02  0.1270E+02
      8.415  0.2145E+01  0.2140E+01  0.1282E+02  0.1283E+02
      8.478  0.1997E+01  0.2000E+01  0.1295E+02  0.1296E+02
      8.541  0.1927E+01  0.1930E+01  0.1307E+02  0.1308E+02
      8.604  0.1884E+01  0.1887E+01  0.1319E+02  0.1320E+02
      8.667  0.1848E+01  0.1850E+01  0.1330E+02  0.1331E+02
      8.729  0.1780E+01  0.1780E+01  0.1342E+02  0.1342E+02
      8.792  0.1675E+01  0.1674E+01  0.1352E+02  0.1353E+02
      8.855  0.1589E+01  0.1592E+01  0.1362E+02  0.1363E+02
      8.918  0.1573E+01  0.1578E+01  0.1372E+02  0.1373E+02
      8.981  0.1530E+01  0.1525E+01  0.1382E+02  0.1383E+02
      9.044  0.1391E+01  0.1372E+01  0.1390E+02  0.1391E+02
      9.107  0.1117E+01  0.1076E+01  0.1397E+02  0.1398E+02
      9.170  0.7502E+00  0.7089E+00  0.1402E+02  0.1402E+02
      9.232  0.4676E+00  0.4437E+00  0.1405E+02  0.1405E+02
      9.295  0.3488E+00  0.3427E+00  0.1407E+02  0.1407E+02
      9.358  0.3874E+00  0.3914E+00  0.1410E+02  0.1410E+02
      9.421  0.4917E+00  0.4963E+00  0.1413E+02  0.1413E+02
      9.484  0.5786E+00  0.5828E+00  0.1416E+02  0.1417E+02
      9.547  0.6839E+00  0.6920E+00  0.1421E+02  0.1421E+02
      9.610  0.9165E+00  0.9329E+00  0.1426E+02  0.1427E+02
      9.672  0.1271E+01  0.1291E+01  0.1434E+02  0.1435E+02
      9.735  0.1646E+01  0.1666E+01  0.1445E+02  0.1445E+02
      9.798  0.2048E+01  0.2074E+01  0.1458E+02  0.1458E+02
      9.861  0.2595E+01  0.2634E+01  0.1474E+02  0.1475E+02
      9.924  0.3226E+01  0.3269E+01  0.1494E+02  0.1496E+02
      9.987  0.3805E+01  0.3856E+01  0.1518E+02  0.1520E+02
     10.050  0.4630E+01  0.4721E+01  0.1547E+02  0.1550E+02
     10.112  0.5919E+01  0.6013E+01  0.1584E+02  0.1587E+02
     10.175  0.6523E+01  0.6508E+01  0.1626E+02  0.1628E+02
     10.238  0.5682E+01  0.5579E+01  0.1661E+02  0.1663E+02
     10.301  0.4317E+01  0.4221E+01  0.1688E+02  0.1690E+02
     10.364  0.3301E+01  0.3244E+01  0.1709E+02  0.1710E+02
     10.427  0.2724E+01  0.2695E+01  0.1726E+02  0.1727E+02
     10.490  0.2509E+01  0.2492E+01  0.1742E+02  0.1743E+02
     10.552  0.2373E+01  0.2353E+01  0.1757E+02  0.1758E+02
     10.615  0.2161E+01  0.2137E+01  0.1771E+02  0.1771E+02
     10.678  0.1854E+01  0.1832E+01  0.1782E+02  0.1783E+02
     10.741  0.1610E+01  0.1601E+01  0.1792E+02  0.1793E+02
     10.804  0.1545E+01  0.1548E+01  0.1802E+02  0.1803E+02
     10.867  0.1628E+01  0.1636E+01  0.1812E+02  0.1813E+02
     10.930  0.1838E+01  0.1844E+01  0.1824E+02  0.1824E+02
     10.992  0.1992E+01  0.1990E+01  0.1837E+02  0.1837E+02
     11.055  0.1917E+01  0.1910E+01  0.1849E+02  0.1849E+02
     11.118  0.1793E+01  0.1793E+01  0.1860E+02  0.1860E+02
     11.181  0.1794E+01  0.1801E+01  0.1871E+02  0.1872E+02
     11.244  0.1896E+01  0.1906E+01  0.1883E+02  0.1884E+02
     11.307  0.1985E+01  0.1995E+01  0.1896E+02  0.1896E+02
     11.370  0.1984E+01  0.1994E+01  0.1908E+02  0.1909E+02
     11.432  0.2057E+01  0.2081E+01  0.1921E+02  0.1922E+02
     11.495  0.2343E+01  0.2373E+01  0.1936E+02  0.1937E+02
     11.558  0.2603E+01  0.2615E+01  0.1952E+02  0.1953E+02
     11.621  0.2691E+01  0.2688E+01  0.1969E+02  0.1970E+02
     11.684  0.2512E+01  0.2479E+01  0.1985E+02  0.1986E+02
     11.747  0.1991E+01  0.1945E+01  0.1997E+02  0.1998E+02
     11.810  0.1586E+01  0.1574E+01  0.2007E+02  0.2008E+02
     11.873  0.1517E+01  0.1536E+01  0.2017E+02  0.2017E+02
     11.935  0.1589E+01  0.1622E+01  0.2027E+02  0.2028E+02
     11.998  0.1638E+01  0.1672E+01  0.2037E+02  0.2038E+02
     12.061  0.1648E+01  0.1692E+01  0.2048E+02  0.2049E+02
     12.124  0.1635E+01  0.1707E+01  0.2058E+02  0.2060E+02
     12.187  0.1624E+01  0.1705E+01  0.2068E+02  0.2070E+02
     12.250  0.1762E+01  0.1818E+01  0.2079E+02  0.2082E+02
     12.313  0.2046E+01  0.2072E+01  0.2092E+02  0.2095E+02
     12.375  0.2317E+01  0.2327E+01  0.2107E+02  0.2109E+02
     12.438  0.2552E+01  0.2556E+01  0.2123E+02  0.2125E+02
     12.501  0.2670E+01  0.2683E+01  0.2139E+02  0.2142E+02
     12.564  0.2738E+01  0.2761E+01  0.2157E+02  0.2160E+02
     12.627  0.2712E+01  0.2701E+01  0.2174E+02  0.2177E+02
     12.690  0.2538E+01  0.2497E+01  0.2190E+02  0.2192E+02
     12.753  0.2340E+01  0.2314E+01  0.2204E+02  0.2207E+02
     12.815  0.2258E+01  0.2247E+01  0.2219E+02  0.2221E+02
     12.878  0.2267E+01  0.2255E+01  0.2233E+02  0.2235E+02
     12.941  0.2091E+01  0.2097E+01  0.2246E+02  0.2248E+02
     13.004  0.1797E+01  0.1805E+01  0.2257E+02  0.2260E+02
     13.067  0.1594E+01  0.1543E+01  0.2267E+02  0.2269E+02
     13.130  0.1436E+01  0.1347E+01  0.2276E+02  0.2278E+02
     13.193  0.1266E+01  0.1177E+01  0.2284E+02  0.2285E+02
     13.255  0.1299E+01  0.1196E+01  0.2292E+02  0.2293E+02
     13.318  0.1586E+01  0.1510E+01  0.2302E+02  0.2302E+02
     13.381  0.1783E+01  0.1760E+01  0.2314E+02  0.2313E+02
     13.444  0.1725E+01  0.1736E+01  0.2324E+02  0.2324E+02
     13.507  0.1466E+01  0.1531E+01  0.2334E+02  0.2334E+02
     13.570  0.1228E+01  0.1298E+01  0.2341E+02  0.2342E+02
     13.633  0.1113E+01  0.1123E+01  0.2348E+02  0.2349E+02
     13.695  0.1092E+01  0.1083E+01  0.2355E+02  0.2356E+02
     13.758  0.1120E+01  0.1147E+01  0.2362E+02  0.2363E+02
     13.821  0.1077E+01  0.1109E+01  0.2369E+02  0.2370E+02
     13.884  0.8983E+00  0.9064E+00  0.2375E+02  0.2376E+02
     13.947  0.7039E+00  0.6972E+00  0.2379E+02  0.2380E+02
     14.010  0.5273E+00  0.5942E+00  0.2383E+02  0.2384E+02
     14.073  0.4315E+00  0.5879E+00  0.2385E+02  0.2388E+02
     14.135  0.4134E+00  0.5221E+00  0.2388E+02  0.2391E+02
     14.198  0.4133E+00  0.3975E+00  0.2390E+02  0.2394E+02
     14.261  0.4065E+00  0.2974E+00  0.2393E+02  0.2395E+02
     14.324  0.3398E+00  0.2315E+00  0.2395E+02  0.2397E+02
     14.387  0.2688E+00  0.1736E+00  0.2397E+02  0.2398E+02
     14.450  0.1919E+00  0.1145E+00  0.2398E+02  0.2399E+02
     14.513  0.9845E-01  0.6470E-01  0.2399E+02  0.2399E+02
     14.576  0.4308E-01  0.3483E-01  0.2399E+02  0.2399E+02
     14.638  0.3054E-01  0.2399E-01  0.2399E+02  0.2400E+02
     14.701  0.3309E-01  0.1466E-01  0.2399E+02  0.2400E+02
     14.764  0.2676E-01  0.7299E-02  0.2400E+02  0.2400E+02
     14.827  0.1468E-01  0.6885E-02  0.2400E+02  0.2400E+02
     14.890  0.1016E-01  0.1255E-01  0.2400E+02  0.2400E+02
     14.953  0.1404E-01  0.1649E-01  0.2400E+02  0.2400E+02
     15.016  0.1667E-01  0.1119E-01  0.2400E+02  0.2400E+02
     15.078  0.1067E-01  0.4581E-02  0.2400E+02  0.2400E+02
     15.141  0.4209E-02  0.1470E-02  0.2400E+02  0.2400E+02
     15.204  0.1336E-02  0.4336E-03  0.2400E+02  0.2400E+02
     15.267  0.3928E-03  0.1246E-03  0.2400E+02  0.2400E+02
     15.330  0.1128E-03  0.0000E+00  0.2400E+02  0.2400E+02
     15.393  0.0000E+00  0.0000E+00  0.2400E+02  0.2400E+02
     15.456  0.0000E+00  0.0000E+00  0.2400E+02  0.2400E+02
     15.518  0.0000E+00  0.0000E+00  0.2400E+02  0.2400E+02
     15.581  0.0000E+00  0.0000E+00  0.2400E+02  0.2400E+02
     15.644  0.0000E+00  0.0000E+00  0.2400E+02  0.2400E+02
     15.707  0.0000E+00  0.0000E+00  0.2400E+02  0.2400E+02
     15.770  0.0000E+00  0.0000E+00  0.2400E+02  0.2400E+02
     15.833  0.0000E+00  0.0000E+00  0.2400E+02  0.2400E+02
     15.83271946     -3.02542991  301      9.13531097      1.00000000
     -3.025  0.0000E+00  0.0000E+00  0.0000E+00  0.0000E+00  0.0000E+00  0.0000E+00  0.0000E+00  0.0000E+00  0.0000E+00  0.0000E+00  0.0000E+00  0.0000E+00  0.0000E+00  0.0000E+00  0.0000E+00  0.0000E+00  0.0000E+00  0.0000E+00
     -2.963  0.0000E+00  0.0000E+00  0.0000E+00  0.0000E+00  0.0000E+00  0.0000E+00  0.0000E+00  0.0000E+00  0.0000E+00  0.0000E+00  0.0000E+00  0.0000E+00  0.0000E+00  0.0000E+00  0.0000E+00  0.0000E+00  0.0000E+00  0.0000E+00
     -2.900  0.0000E+00  0.0000E+00  0.0000E+00  0.0000E+00  0.0000E+00  0.0000E+00  0.0000E+00  0.0000E+00  0.0000E+00  0.0000E+00  0.0000E+00  0.0000E+00  0.0000E+00  0.0000E+00  0.0000E+00  0.0000E+00  0.0000E+00  0.0000E+00
     -2.837  0.0000E+00  0.0000E+00  0.0000E+00  0.0000E+00  0.0000E+00  0.0000E+00  0.0000E+00  0.0000E+00  0.0000E+00  0.0000E+00  0.0000E+00  0.0000E+00  0.0000E+00  0.0000E+00  0.0000E+00  0.0000E+00  0.0000E+00  0.0000E+00
     -2.774  0.0000E+00  0.0000E+00  0.0000E+00  0.0000E+00  0.0000E+00  0.0000E+00  0.0000E+00  0.0000E+00  0.0000E+00  0.0000E+00  0.0000E+00  0.0000E+00  0.0000E+00  0.0000E+00  0.0000E+00  0.0000E+00  0.0000E+00  0.0000E+00
     -2.711  0.0000E+00  0.0000E+00  0.0000E+00  0.0000E+00  0.0000E+00  0.0000E+00  0.0000E+00  0.0000E+00  0.0000E+00  0.0000E+00  0.0000E+00  0.0000E+00  0.0000E+00  0.0000E+00  0.0000E+00  0.0000E+00  0.0000E+00  0.0000E+00
     -2.648  0.0000E+00  0.0000E+00  0.0000E+00  0.0000E+00  0.0000E+00  0.0000E+00  0.0000E+00  0.0000E+00  0.0000E+00  0.0000E+00  0.0000E+00  0.0000E+00  0.0000E+00  0.0000E+00  0.0000E+00  0.0000E+00  0.0000E+00  0.0000E+00
     -2.585  0.2191E-06  0.2099E-06  0.1528E-21  0.3307E-21  0.3763E-20  0.1773E-19  0.1528E-21  0.3307E-21  0.8063E-21  0.2938E-20  0.4185E-20  0.8796E-17  0.2056E-10  0.2044E-10  0.4185E-20  0.8796E-17  0.1862E-20  0.2818E-19
     -2.523  0.1931E-05  0.1850E-05  0.4375E-08  0.4189E-08  0.5486E-08  0.5253E-08  0.4375E-08  0.4189E-08  0.2810E-19  0.3049E-19  0.1203E-18  0.2240E-16  0.2025E-09  0.2003E-09  0.1203E-18  0.2240E-16  0.2025E-10  0.1942E-10
     -2.460  0.8246E-05  0.7899E-05  0.3084E-07  0.2953E-07  0.3374E-07  0.3231E-07  0.3084E-07  0.2953E-07  0.1272E-09  0.1221E-09  0.1357E-09  0.1299E-09  0.9220E-09  0.9025E-09  0.1357E-09  0.1299E-09  0.1062E-09  0.1018E-09
     -2.397  0.2839E-04  0.2720E-04  0.1101E-06  0.1054E-06  0.1328E-06  0.1271E-06  0.1101E-06  0.1054E-06  0.6698E-09  0.6420E-09  0.5902E-09  0.5649E-09  0.3185E-08  0.3115E-08  0.5902E-09  0.5649E-09  0.3174E-09  0.3043E-09
     -2.334  0.9827E-04  0.9419E-04  0.3856E-06  0.3693E-06  0.4885E-06  0.4678E-06  0.3856E-06  0.3693E-06  0.2001E-08  0.1919E-08  0.2224E-08  0.2138E-08  0.1111E-07  0.1087E-07  0.2224E-08  0.2138E-08  0.1396E-08  0.1338E-08
     -2.271  0.3327E-03  0.3195E-03  0.1395E-05  0.1337E-05  0.1694E-05  0.1624E-05  0.1395E-05  0.1337E-05  0.8064E-08  0.7732E-08  0.8543E-08  0.8206E-08  0.3865E-07  0.3783E-07  0.8543E-08  0.8206E-08  0.5470E-08  0.5247E-08
     -2.208  0.1028E-02  0.9908E-03  0.4670E-05  0.4484E-05  0.5561E-05  0.5328E-05  0.4670E-05  0.4484E-05  0.2903E-07  0.2785E-07  0.2916E-07  0.2804E-07  0.1224E-06  0.1199E-06  0.2916E-07  0.2804E-07  0.1804E-07  0.1734E-07
     -2.145  0.2648E-02  0.2574E-02  0.1410E-04  0.1360E-04  0.1639E-04  0.1585E-04  0.1410E-04  0.1360E-04  0.9425E-07  0.9063E-07  0.9549E-07  0.9210E-07  0.3313E-06  0.3264E-06  0.9549E-07  0.9210E-07  0.5428E-07  0.5243E-07
     -2.083  0.5224E-02  0.5131E-02  0.3471E-04  0.3381E-04  0.4027E-04  0.3917E-04  0.3471E-04  0.3381E-04  0.2814E-06  0.2722E-06  0.2766E-06  0.2686E-06  0.7153E-06  0.7073E-06  0.2766E-06  0.2686E-06  0.1364E-06  0.1326E-06
     -2.020  0.7701E-02  0.7636E-02  0.6512E-04  0.6398E-04  0.8084E-04  0.7913E-04  0.6512E-04  0.6398E-04  0.6559E-06  0.6406E-06  0.6476E-06  0.6341E-06  0.1199E-05  0.1188E-05  0.6476E-06  0.6341E-06  0.3043E-06  0.2960E-06
     -1.957  0.9319E-02  0.9274E-02  0.1036E-03  0.1020E-03  0.1388E-03  0.1365E-03  0.1036E-03  0.1020E-03  0.1195E-05  0.1172E-05  0.1306E-05  0.1286E-05  0.1788E-05  0.1762E-05  0.1306E-05  0.1286E-05  0.7301E-06  0.7082E-06
     -1.894  0.1121E-01  0.1114E-01  0.1698E-03  0.1669E-03  0.2080E-03  0.2056E-03  0.1698E-03  0.1669E-03  0.2256E-05  0.2202E-05  0.2459E-05  0.2425E-05  0.2930E-05  0.2871E-05  0.2459E-05  0.2425E-05  0.1641E-05  0.1604E-05
     -1.831  0.1363E-01  0.1357E-01  0.2633E-03  0.2603E-03  0.2721E-03  0.2700E-03  0.2633E-03  0.2603E-03  0.4405E-05  0.4320E-05  0.4120E-05  0.4073E-05  0.4705E-05  0.4635E-05  0.4120E-05  0.4073E-05  0.2718E-05  0.2690E-05
     -1.768  0.1446E-01  0.1447E-01  0.3199E-03  0.3191E-03  0.3500E-03  0.3463E-03  0.3199E-03  0.3191E-03  0.6546E-05  0.6492E-05  0.6183E-05  0.6107E-05  0.5972E-05  0.5941E-05  0.6183E-05  0.6107E-05  0.3290E-05  0.3282E-05
     -1.705  0.1429E-01  0.1429E-01  0.3400E-03  0.3389E-03  0.4992E-03  0.4928E-03  0.3400E-03  0.3389E-03  0.8271E-05  0.8188E-05  0.9447E-05  0.9315E-05  0.6656E-05  0.6625E-05  0.9447E-05  0.9315E-05  0.3667E-05  0.3648E-05
     -1.642  0.1532E-01  0.1528E-01  0.4142E-03  0.4105E-03  0.6507E-03  0.6474E-03  0.4142E-03  0.4105E-03  0.1235E-04  0.1217E-04  0.1352E-04  0.1341E-04  0.8704E-05  0.8609E-05  0.1352E-04  0.1341E-04  0.5018E-05  0.4943E-05
     -1.580  0.1611E-01  0.1611E-01  0.5380E-03  0.5334E-03  0.6598E-03  0.6615E-03  0.5380E-03  0.5334E-03  0.1732E-04  0.1719E-04  0.1597E-04  0.1592E-04  0.1258E-04  0.1244E-04  0.1597E-04  0.1592E-04  0.8740E-05  0.8563E-05
     -1.517  0.1688E-01  0.1684E-01  0.6891E-03  0.6832E-03  0.6669E-03  0.6630E-03  0.6891E-03  0.6832E-03  0.2096E-04  0.2083E-04  0.1991E-04  0.1970E-04  0.1750E-04  0.1733E-04  0.1991E-04  0.1970E-04  0.1510E-04  0.1488E-04
     -1.454  0.1927E-01  0.1920E-01  0.8509E-03  0.8466E-03  0.9116E-03  0.8994E-03  0.8509E-03  0.8466E-03  0.2677E-04  0.2658E-04  0.3022E-04  0.2985E-04  0.2246E-04  0.2232E-04  0.3022E-04  0.2985E-04  0.2009E-04  0.2001E-04
     -1.391  0.2040E-01  0.2043E-01  0.9070E-03  0.9071E-03  0.1231E-02  0.1222E-02  0.9070E-03  0.9071E-03  0.3320E-04  0.3301E-04  0.4032E-04  0.4016E-04  0.2611E-04  0.2601E-04  0.4032E-04  0.4016E-04  0.2053E-04  0.2059E-04
     -1.328  0.1960E-01  0.1964E-01  0.9268E-03  0.9250E-03  0.1352E-02  0.1351E-02  0.9268E-03  0.9250E-03  0.4463E-04  0.4412E-04  0.4438E-04  0.4437E-04  0.3061E-04  0.3047E-04  0.4438E-04  0.4437E-04  0.1947E-04  0.1952E-04
     -1.265  0.1869E-01  0.1875E-01  0.9990E-03  0.9971E-03  0.1309E-02  0.1311E-02  0.9990E-03  0.9971E-03  0.6205E-04  0.6163E-04  0.4861E-04  0.4844E-04  0.3428E-04  0.3428E-04  0.4861E-04  0.4844E-04  0.1870E-04  0.1874E-04
     -1.202  0.1765E-01  0.1768E-01  0.1028E-02  0.1026E-02  0.1363E-02  0.1356E-02  0.1028E-02  0.1026E-02  0.6678E-04  0.6697E-04  0.6133E-04  0.6075E-04  0.3332E-04  0.3340E-04  0.6133E-04  0.6075E-04  0.2043E-04  0.2027E-04
     -1.140  0.1892E-01  0.1883E-01  0.1175E-02  0.1166E-02  0.1708E-02  0.1693E-02  0.1175E-02  0.1166E-02  0.6591E-04  0.6587E-04  0.8594E-04  0.8516E-04  0.3747E-04  0.3716E-04  0.8594E-04  0.8516E-04  0.3210E-04  0.3152E-04
     -1.077  0.2150E-01  0.2147E-01  0.1472E-02  0.1463E-02  0.1985E-02  0.1982E-02  0.1472E-02  0.1463E-02  0.7365E-04  0.7341E-04  0.1017E-03  0.1019E-03  0.5308E-04  0.5247E-04  0.1017E-03  0.1019E-03  0.5292E-04  0.5224E-04
     -1.014  0.2148E-01  0.2152E-01  0.1651E-02  0.1647E-02  0.1937E-02  0.1938E-02  0.1651E-02  0.1647E-02  0.8792E-04  0.8727E-04  0.9342E-04  0.9389E-04  0.7315E-04  0.7254E-04  0.9342E-04  0.9389E-04  0.6888E-04  0.6863E-04
     -0.951  0.2158E-01  0.2156E-01  0.1790E-02  0.1784E-02  0.2134E-02  0.2119E-02  0.1790E-02  0.1784E-02  0.1207E-03  0.1194E-03  0.1026E-03  0.1017E-03  0.8948E-04  0.8917E-04  0.1026E-03  0.1017E-03  0.7187E-04  0.7197E-04
     -0.888  0.2344E-01  0.2339E-01  0.2020E-02  0.2012E-02  0.2609E-02  0.2594E-02  0.2020E-02  0.2012E-02  0.1615E-03  0.1604E-03  0.1460E-03  0.1445E-03  0.9646E-04  0.9649E-04  0.1460E-03  0.1445E-03  0.7285E-04  0.7280E-04
     -0.825  0.2420E-01  0.2424E-01  0.2181E-02  0.2180E-02  0.2863E-02  0.2857E-02  0.2181E-02  0.2180E-02  0.1893E-03  0.1890E-03  0.1833E-03  0.1826E-03  0.9842E-04  0.9857E-04  0.1833E-03  0.1826E-03  0.7590E-04  0.7601E-04
     -0.762  0.2238E-01  0.2250E-01  0.2049E-02  0.2059E-02  0.3048E-02  0.3041E-02  0.2049E-02  0.2059E-02  0.1857E-03  0.1867E-03  0.2041E-03  0.2039E-03  0.9570E-04  0.9613E-04  0.2041E-03  0.2039E-03  0.7051E-04  0.7091E-04
     -0.700  0.1959E-01  0.1969E-01  0.1825E-02  0.1829E-02  0.3143E-02  0.3144E-02  0.1825E-02  0.1829E-02  0.1637E-03  0.1644E-03  0.2184E-03  0.2183E-03  0.8660E-04  0.8714E-04  0.2184E-03  0.2183E-03  0.6677E-04  0.6681E-04
     -0.637  0.1829E-01  0.1832E-01  0.1860E-02  0.1856E-02  0.3084E-02  0.3083E-02  0.1860E-02  0.1856E-02  0.1789E-03  0.1780E-03  0.2337E-03  0.2335E-03  0.8245E-04  0.8250E-04  0.2337E-03  0.2335E-03  0.7235E-04  0.7222E-04
     -0.574  0.1851E-01  0.1849E-01  0.2073E-02  0.2062E-02  0.3359E-02  0.3338E-02  0.2073E-02  0.2062E-02  0.2334E-03  0.2314E-03  0.2497E-03  0.2495E-03  0.1041E-03  0.1027E-03  0.2497E-03  0.2495E-03  0.8221E-04  0.8168E-04
     -0.511  0.2085E-01  0.2075E-01  0.2584E-02  0.2561E-02  0.4037E-02  0.4008E-02  0.2584E-02  0.2561E-02  0.3136E-03  0.3114E-03  0.2724E-03  0.2713E-03  0.1632E-03  0.1610E-03  0.2724E-03  0.2713E-03  0.1185E-03  0.1167E-03
     -0.448  0.2425E-01  0.2418E-01  0.3264E-02  0.3245E-02  0.4715E-02  0.4694E-02  0.3264E-02  0.3245E-02  0.3670E-03  0.3669E-03  0.3358E-03  0.3331E-03  0.2138E-03  0.2132E-03  0.3358E-03  0.3331E-03  0.1793E-03  0.1775E-03
     -0.385  0.2532E-01  0.2536E-01  0.3551E-02  0.3549E-02  0.5236E-02  0.5217E-02  0.3551E-02  0.3549E-02  0.3634E-03  0.3644E-03  0.4232E-03  0.4208E-03  0.2171E-03  0.2180E-03  0.4232E-03  0.4208E-03  0.2142E-03  0.2140E-03
     -0.322  0.2412E-01  0.2421E-01  0.3506E-02  0.3511E-02  0.5751E-02  0.5730E-02  0.3506E-02  0.3511E-02  0.3677E-03  0.3677E-03  0.4793E-03  0.4787E-03  0.2071E-03  0.2077E-03  0.4793E-03  0.4787E-03  0.2154E-03  0.2158E-03
     -0.260  0.2204E-01  0.2215E-01  0.3375E-02  0.3382E-02  0.6077E-02  0.6073E-02  0.3375E-02  0.3382E-02  0.3919E-03  0.3914E-03  0.4949E-03  0.4953E-03  0.2026E-03  0.2035E-03  0.4949E-03  0.4953E-03  0.2064E-03  0.2072E-03
     -0.197  0.1986E-01  0.1994E-01  0.3227E-02  0.3232E-02  0.5886E-02  0.5900E-02  0.3227E-02  0.3232E-02  0.4370E-03  0.4358E-03  0.5156E-03  0.5148E-03  0.1814E-03  0.1830E-03  0.5156E-03  0.5148E-03  0.1853E-03  0.1863E-03
     -0.134  0.1911E-01  0.1913E-01  0.3312E-02  0.3305E-02  0.5722E-02  0.5720E-02  0.3312E-02  0.3305E-02  0.5159E-03  0.5137E-03  0.5842E-03  0.5817E-03  0.1630E-03  0.1635E-03  0.5842E-03  0.5817E-03  0.1753E-03  0.1753E-03
     -0.071  0.1892E-01  0.1897E-01  0.3452E-02  0.3454E-02  0.6196E-02  0.6167E-02  0.3452E-02  0.3454E-02  0.5871E-03  0.5868E-03  0.6705E-03  0.6681E-03  0.1769E-03  0.1766E-03  0.6705E-03  0.6681E-03  0.1795E-03  0.1797E-03
     -0.008  0.1757E-01  0.1764E-01  0.3285E-02  0.3292E-02  0.6888E-02  0.6873E-02  0.3285E-02  0.3292E-02  0.6191E-03  0.6185E-03  0.7481E-03  0.7464E-03  0.1952E-03  0.1951E-03  0.7481E-03  0.7464E-03  0.1635E-03  0.1644E-03
      0.055  0.1732E-01  0.1731E-01  0.3422E-02  0.3407E-02  0.6722E-02  0.6753E-02  0.3422E-02  0.3407E-02  0.7291E-03  0.7246E-03  0.8027E-03  0.8026E-03  0.2165E-03  0.2161E-03  0.8027E-03  0.8026E-03  0.1625E-03  0.1619E-03
      0.118  0.1857E-01  0.1855E-01  0.4036E-02  0.4013E-02  0.6110E-02  0.6126E-02  0.4036E-02  0.4013E-02  0.8590E-03  0.8580E-03  0.8663E-03  0.8640E-03  0.2362E-03  0.2362E-03  0.8663E-03  0.8640E-03  0.2145E-03  0.2119E-03