   8   8   1   0
  0.1301967E+02  0.3614431E-09  0.3614431E-09  0.7972787E-09  0.5000000E-15
  1.000000000000000E-004
  CAR 
 unknown system                          
     16.31097656     -2.88669901  301      9.46913564      1.00000000
     -2.887  0.0000E+00  0.0000E+00  0.0000E+00  0.0000E+00
     -2.823  0.0000E+00  0.0000E+00  0.0000E+00  0.0000E+00
     -2.759  0.0000E+00  0.0000E+00  0.0000E+00  0.0000E+00
     -2.695  0.0000E+00  0.0000E+00  0.0000E+00  0.0000E+00
     -2.631  0.0000E+00  0.0000E+00  0.0000E+00  0.0000E+00
     -2.567  0.0000E+00  0.0000E+00  0.0000E+00  0.0000E+00
     -2.503  0.0000E+00  0.0000E+00  0.0000E+00  0.0000E+00
     -2.439  0.2663E-05  0.2705E-05  0.1704E-06  0.1731E-06
     -2.375  0.2381E-04  0.2418E-04  0.1694E-05  0.1721E-05
     -2.311  0.1037E-03  0.1054E-03  0.8332E-05  0.8463E-05
     -2.247  0.3659E-03  0.3716E-03  0.3175E-04  0.3224E-04
     -2.183  0.1297E-02  0.1317E-02  0.1148E-03  0.1165E-03
     -2.119  0.4500E-02  0.4567E-02  0.4027E-03  0.4088E-03
     -2.055  0.1425E-01  0.1444E-01  0.1315E-02  0.1333E-02
     -1.991  0.3763E-01  0.3802E-01  0.3723E-02  0.3766E-02
     -1.927  0.7576E-01  0.7627E-01  0.8571E-02  0.8646E-02
     -1.863  0.1133E+00  0.1137E+00  0.1582E-01  0.1592E-01
     -1.799  0.1384E+00  0.1386E+00  0.2468E-01  0.2479E-01
     -1.735  0.1683E+00  0.1688E+00  0.3545E-01  0.3559E-01
     -1.671  0.2083E+00  0.2087E+00  0.4878E-01  0.4895E-01
     -1.607  0.2244E+00  0.2245E+00  0.6314E-01  0.6331E-01
     -1.543  0.2242E+00  0.2243E+00  0.7750E-01  0.7767E-01
     -1.479  0.2444E+00  0.2447E+00  0.9314E-01  0.9334E-01
     -1.415  0.2610E+00  0.2611E+00  0.1099E+00  0.1101E+00
     -1.351  0.2752E+00  0.2756E+00  0.1275E+00  0.1277E+00
     -1.287  0.3205E+00  0.3211E+00  0.1480E+00  0.1483E+00
     -1.223  0.3487E+00  0.3487E+00  0.1703E+00  0.1706E+00
     -1.159  0.3406E+00  0.3404E+00  0.1921E+00  0.1924E+00
     -1.095  0.3300E+00  0.3298E+00  0.2132E+00  0.2135E+00
     -1.031  0.3152E+00  0.3152E+00  0.2334E+00  0.2337E+00
     -0.967  0.3419E+00  0.3426E+00  0.2553E+00  0.2556E+00
     -0.903  0.3997E+00  0.4002E+00  0.2809E+00  0.2812E+00
     -0.839  0.4074E+00  0.4072E+00  0.3070E+00  0.3073E+00
     -0.775  0.4146E+00  0.4149E+00  0.3335E+00  0.3339E+00
     -0.711  0.4611E+00  0.4616E+00  0.3631E+00  0.3634E+00
     -0.647  0.4893E+00  0.4893E+00  0.3944E+00  0.3947E+00
     -0.583  0.4669E+00  0.4664E+00  0.4243E+00  0.4246E+00
     -0.519  0.4200E+00  0.4195E+00  0.4512E+00  0.4515E+00
     -0.455  0.3987E+00  0.3986E+00  0.4767E+00  0.4770E+00
     -0.391  0.4128E+00  0.4132E+00  0.5031E+00  0.5035E+00
     -0.327  0.4780E+00  0.4790E+00  0.5337E+00  0.5341E+00
     -0.263  0.5737E+00  0.5746E+00  0.5705E+00  0.5709E+00
     -0.199  0.6211E+00  0.6213E+00  0.6102E+00  0.6107E+00
     -0.135  0.6193E+00  0.6191E+00  0.6499E+00  0.6503E+00
     -0.071  0.5984E+00  0.5980E+00  0.6882E+00  0.6886E+00
     -0.007  0.5596E+00  0.5591E+00  0.7240E+00  0.7244E+00
      0.057  0.5446E+00  0.5447E+00  0.7589E+00  0.7593E+00
      0.121  0.5643E+00  0.5644E+00  0.7950E+00  0.7954E+00
      0.185  0.5629E+00  0.5627E+00  0.8311E+00  0.8315E+00
      0.249  0.5591E+00  0.5592E+00  0.8669E+00  0.8673E+00
      0.313  0.5813E+00  0.5818E+00  0.9041E+00  0.9045E+00
      0.377  0.6356E+00  0.6363E+00  0.9448E+00  0.9453E+00
      0.441  0.6668E+00  0.6665E+00  0.9875E+00  0.9879E+00
      0.505  0.5886E+00  0.5875E+00  0.1025E+01  0.1026E+01
      0.569  0.5440E+00  0.5444E+00  0.1060E+01  0.1060E+01
      0.633  0.6322E+00  0.6334E+00  0.1101E+01  0.1101E+01
      0.697  0.7030E+00  0.7033E+00  0.1146E+01  0.1146E+01
      0.761  0.7081E+00  0.7080E+00  0.1191E+01  0.1191E+01
      0.825  0.6832E+00  0.6827E+00  0.1235E+01  0.1235E+01
      0.889  0.6202E+00  0.6196E+00  0.1274E+01  0.1275E+01
      0.953  0.5912E+00  0.5912E+00  0.1312E+01  0.1313E+01
      1.017  0.6001E+00  0.6003E+00  0.1351E+01  0.1351E+01
      1.081  0.6289E+00  0.6294E+00  0.1391E+01  0.1391E+01
      1.145  0.6772E+00  0.6779E+00  0.1434E+01  0.1435E+01
      1.209  0.7576E+00  0.7588E+00  0.1483E+01  0.1483E+01
      1.273  0.8461E+00  0.8468E+00  0.1537E+01  0.1538E+01
      1.337  0.8537E+00  0.8534E+00  0.1592E+01  0.1592E+01
      1.401  0.8016E+00  0.8009E+00  0.1643E+01  0.1643E+01
      1.465  0.7110E+00  0.7101E+00  0.1688E+01  0.1689E+01
      1.529  0.6351E+00  0.6345E+00  0.1729E+01  0.1730E+01
      1.593  0.6454E+00  0.6462E+00  0.1770E+01  0.1771E+01
      1.657  0.7489E+00  0.7501E+00  0.1818E+01  0.1819E+01
      1.721  0.7654E+00  0.7649E+00  0.1867E+01  0.1868E+01
      1.785  0.7288E+00  0.7291E+00  0.1914E+01  0.1915E+01
      1.849  0.8255E+00  0.8270E+00  0.1967E+01  0.1968E+01
      1.913  0.9190E+00  0.9195E+00  0.2026E+01  0.2027E+01
      1.977  0.9502E+00  0.9506E+00  0.2087E+01  0.2087E+01
      2.041  0.9940E+00  0.9942E+00  0.2150E+01  0.2151E+01
      2.105  0.9847E+00  0.9844E+00  0.2213E+01  0.2214E+01
      2.169  0.9454E+00  0.9449E+00  0.2274E+01  0.2275E+01
      2.233  0.8944E+00  0.8936E+00  0.2331E+01  0.2332E+01
      2.297  0.8368E+00  0.8362E+00  0.2385E+01  0.2385E+01
      2.361  0.8233E+00  0.8237E+00  0.2437E+01  0.2438E+01
      2.425  0.9200E+00  0.9213E+00  0.2496E+01  0.2497E+01
      2.489  0.9802E+00  0.9800E+00  0.2559E+01  0.2560E+01
      2.553  0.9162E+00  0.9156E+00  0.2618E+01  0.2618E+01
      2.617  0.8853E+00  0.8853E+00  0.2675E+01  0.2675E+01
      2.681  0.9160E+00  0.9166E+00  0.2733E+01  0.2734E+01
      2.745  0.9773E+00  0.9776E+00  0.2796E+01  0.2796E+01
      2.809  0.9134E+00  0.9118E+00  0.2854E+01  0.2855E+01
      2.873  0.7316E+00  0.7300E+00  0.2901E+01  0.2902E+01
      2.937  0.6379E+00  0.6377E+00  0.2942E+01  0.2942E+01
      3.001  0.6610E+00  0.6620E+00  0.2984E+01  0.2985E+01
      3.065  0.7599E+00  0.7610E+00  0.3033E+01  0.3034E+01
      3.129  0.8211E+00  0.8216E+00  0.3086E+01  0.3086E+01
      3.193  0.8373E+00  0.8375E+00  0.3139E+01  0.3140E+01
      3.257  0.8330E+00  0.8325E+00  0.3193E+01  0.3193E+01
      3.321  0.7645E+00  0.7634E+00  0.3241E+01  0.3242E+01
      3.385  0.6934E+00  0.6934E+00  0.3286E+01  0.3286E+01
      3.449  0.7350E+00  0.7363E+00  0.3333E+01  0.3334E+01
      3.513  0.8655E+00  0.8672E+00  0.3388E+01  0.3389E+01
      3.577  0.9744E+00  0.9753E+00  0.3451E+01  0.3452E+01
      3.641  0.1003E+01  0.1004E+01  0.3515E+01  0.3516E+01
      3.705  0.1047E+01  0.1048E+01  0.3582E+01  0.3583E+01
      3.768  0.1056E+01  0.1055E+01  0.3650E+01  0.3650E+01
      3.832  0.1062E+01  0.1062E+01  0.3718E+01  0.3718E+01
      3.896  0.1134E+01  0.1135E+01  0.3790E+01  0.3791E+01
      3.960  0.1143E+01  0.1142E+01  0.3863E+01  0.3864E+01
      4.024  0.1033E+01  0.1031E+01  0.3929E+01  0.3930E+01
      4.088  0.9670E+00  0.9671E+00  0.3991E+01  0.3992E+01
      4.152  0.9913E+00  0.9919E+00  0.4055E+01  0.4056E+01
      4.216  0.1030E+01  0.1031E+01  0.4121E+01  0.4122E+01
      4.280  0.1104E+01  0.1104E+01  0.4191E+01  0.4192E+01
      4.344  0.1159E+01  0.1159E+01  0.4266E+01  0.4267E+01
      4.408  0.1164E+01  0.1163E+01  0.4340E+01  0.4341E+01
      4.472  0.1166E+01  0.1166E+01  0.4415E+01  0.4416E+01
      4.536  0.1262E+01  0.1263E+01  0.4496E+01  0.4497E+01
      4.600  0.1347E+01  0.1347E+01  0.4582E+01  0.4583E+01
      4.664  0.1337E+01  0.1336E+01  0.4667E+01  0.4668E+01
      4.728  0.1239E+01  0.1237E+01  0.4747E+01  0.4748E+01
      4.792  0.1119E+01  0.1118E+01  0.4818E+01  0.4819E+01
      4.856  0.1091E+01  0.1091E+01  0.4888E+01  0.4889E+01
      4.920  0.1099E+01  0.1099E+01  0.4959E+01  0.4960E+01
      4.984  0.1157E+01  0.1158E+01  0.5033E+01  0.5034E+01
      5.048  0.1192E+01  0.1192E+01  0.5109E+01  0.5110E+01
      5.112  0.1205E+01  0.1205E+01  0.5186E+01  0.5187E+01
      5.176  0.1241E+01  0.1241E+01  0.5266E+01  0.5267E+01
      5.240  0.1237E+01  0.1237E+01  0.5345E+01  0.5346E+01
      5.304  0.1328E+01  0.1329E+01  0.5430E+01  0.5431E+01
      5.368  0.1407E+01  0.1407E+01  0.5520E+01  0.5521E+01
      5.432  0.1331E+01  0.1330E+01  0.5605E+01  0.5606E+01
      5.496  0.1289E+01  0.1289E+01  0.5688E+01  0.5689E+01
      5.560  0.1289E+01  0.1289E+01  0.5770E+01  0.5771E+01
      5.624  0.1212E+01  0.1211E+01  0.5848E+01  0.5849E+01
      5.688  0.1156E+01  0.1157E+01  0.5922E+01  0.5923E+01
      5.752  0.1218E+01  0.1219E+01  0.6000E+01  0.6001E+01
      5.816  0.1260E+01  0.1260E+01  0.6081E+01  0.6082E+01
      5.880  0.1236E+01  0.1235E+01  0.6160E+01  0.6161E+01
      5.944  0.1214E+01  0.1214E+01  0.6238E+01  0.6239E+01
      6.008  0.1215E+01  0.1215E+01  0.6316E+01  0.6317E+01
      6.072  0.1254E+01  0.1254E+01  0.6396E+01  0.6397E+01
      6.136  0.1348E+01  0.1350E+01  0.6482E+01  0.6483E+01
      6.200  0.1541E+01  0.1543E+01  0.6581E+01  0.6582E+01
      6.264  0.1656E+01  0.1656E+01  0.6687E+01  0.6688E+01
      6.328  0.1606E+01  0.1605E+01  0.6790E+01  0.6791E+01
      6.392  0.1584E+01  0.1586E+01  0.6891E+01  0.6892E+01
      6.456  0.1732E+01  0.1734E+01  0.7002E+01  0.7004E+01
      6.520  0.1886E+01  0.1887E+01  0.7123E+01  0.7124E+01
      6.584  0.1831E+01  0.1828E+01  0.7240E+01  0.7241E+01
      6.648  0.1583E+01  0.1579E+01  0.7341E+01  0.7343E+01
      6.712  0.1441E+01  0.1441E+01  0.7434E+01  0.7435E+01
      6.776  0.1594E+01  0.1597E+01  0.7536E+01  0.7537E+01
      6.840  0.1888E+01  0.1891E+01  0.7656E+01  0.7658E+01
      6.904  0.2144E+01  0.2147E+01  0.7794E+01  0.7796E+01
      6.968  0.2362E+01  0.2365E+01  0.7945E+01  0.7947E+01
      7.032  0.2488E+01  0.2489E+01  0.8104E+01  0.8106E+01
      7.096  0.2506E+01  0.2505E+01  0.8265E+01  0.8267E+01
      7.160  0.2434E+01  0.2433E+01  0.8421E+01  0.8422E+01
      7.224  0.2310E+01  0.2308E+01  0.8568E+01  0.8570E+01
      7.288  0.2121E+01  0.2119E+01  0.8704E+01  0.8706E+01
      7.352  0.2051E+01  0.2051E+01  0.8836E+01  0.8837E+01
      7.416  0.2206E+01  0.2210E+01  0.8977E+01  0.8979E+01
      7.480  0.2620E+01  0.2627E+01  0.9145E+01  0.9147E+01
      7.544  0.3044E+01  0.3047E+01  0.9339E+01  0.9342E+01
      7.608  0.3106E+01  0.3105E+01  0.9538E+01  0.9541E+01
      7.672  0.3049E+01  0.3049E+01  0.9734E+01  0.9736E+01
      7.736  0.3171E+01  0.3175E+01  0.9937E+01  0.9939E+01
      7.800  0.3406E+01  0.3410E+01  0.1015E+02  0.1016E+02
      7.864  0.3551E+01  0.3552E+01  0.1038E+02  0.1039E+02
      7.928  0.3451E+01  0.3447E+01  0.1060E+02  0.1061E+02
      7.992  0.3106E+01  0.3101E+01  0.1080E+02  0.1080E+02
      8.056  0.2807E+01  0.2804E+01  0.1098E+02  0.1098E+02
      8.120  0.2747E+01  0.2747E+01  0.1116E+02  0.1116E+02
      8.184  0.2882E+01  0.2883E+01  0.1134E+02  0.1134E+02
      8.248  0.2915E+01  0.2913E+01  0.1153E+02  0.1153E+02
      8.312  0.2836E+01  0.2834E+01  0.1171E+02  0.1171E+02
      8.376  0.2743E+01  0.2743E+01  0.1189E+02  0.1189E+02
      8.440  0.2817E+01  0.2819E+01  0.1207E+02  0.1207E+02
      8.504  0.2949E+01  0.2950E+01  0.1226E+02  0.1226E+02
      8.568  0.2914E+01  0.2912E+01  0.1244E+02  0.1244E+02
      8.632  0.2635E+01  0.2631E+01  0.1261E+02  0.1261E+02
      8.696  0.2237E+01  0.2234E+01  0.1275E+02  0.1276E+02
      8.760  0.2011E+01  0.2010E+01  0.1288E+02  0.1288E+02
      8.824  0.1922E+01  0.1922E+01  0.1301E+02  0.1301E+02
      8.888  0.1858E+01  0.1857E+01  0.1312E+02  0.1313E+02
      8.952  0.1816E+01  0.1816E+01  0.1324E+02  0.1324E+02
      9.016  0.1773E+01  0.1773E+01  0.1335E+02  0.1336E+02
      9.080  0.1692E+01  0.1691E+01  0.1346E+02  0.1346E+02
      9.144  0.1587E+01  0.1586E+01  0.1356E+02  0.1357E+02
      9.208  0.1535E+01  0.1536E+01  0.1366E+02  0.1366E+02
      9.272  0.1534E+01  0.1534E+01  0.1376E+02  0.1376E+02
      9.336  0.1461E+01  0.1459E+01  0.1386E+02  0.1386E+02
      9.400  0.1272E+01  0.1268E+01  0.1394E+02  0.1394E+02
      9.464  0.9269E+00  0.9207E+00  0.1400E+02  0.1400E+02
      9.528  0.5796E+00  0.5749E+00  0.1403E+02  0.1403E+02
      9.592  0.3684E+00  0.3661E+00  0.1406E+02  0.1406E+02
      9.656  0.3119E+00  0.3118E+00  0.1408E+02  0.1408E+02
      9.720  0.3830E+00  0.3839E+00  0.1410E+02  0.1410E+02
      9.784  0.4859E+00  0.4863E+00  0.1413E+02  0.1413E+02
      9.848  0.5638E+00  0.5642E+00  0.1417E+02  0.1417E+02
      9.912  0.6652E+00  0.6662E+00  0.1421E+02  0.1421E+02
      9.976  0.8994E+00  0.9014E+00  0.1427E+02  0.1427E+02
     10.040  0.1243E+01  0.1245E+01  0.1435E+02  0.1435E+02
     10.104  0.1605E+01  0.1606E+01  0.1445E+02  0.1445E+02
     10.168  0.1982E+01  0.1984E+01  0.1458E+02  0.1458E+02
     10.232  0.2484E+01  0.2485E+01  0.1474E+02  0.1474E+02
     10.296  0.3040E+01  0.3040E+01  0.1493E+02  0.1493E+02
     10.360  0.3542E+01  0.3543E+01  0.1516E+02  0.1516E+02
     10.424  0.4246E+01  0.4248E+01  0.1543E+02  0.1543E+02
     10.488  0.5480E+01  0.5482E+01  0.1578E+02  0.1578E+02
     10.552  0.6348E+01  0.6349E+01  0.1619E+02  0.1619E+02
     10.616  0.5802E+01  0.5801E+01  0.1656E+02  0.1656E+02
     10.680  0.4496E+01  0.4497E+01  0.1685E+02  0.1685E+02
     10.744  0.3418E+01  0.3419E+01  0.1707E+02  0.1707E+02
     10.808  0.2761E+01  0.2762E+01  0.1724E+02  0.1724E+02
     10.872  0.2502E+01  0.2503E+01  0.1740E+02  0.1740E+02
     10.936  0.2372E+01  0.2372E+01  0.1755E+02  0.1756E+02
     11.000  0.2180E+01  0.2178E+01  0.1769E+02  0.1770E+02
     11.064  0.1871E+01  0.1868E+01  0.1781E+02  0.1781E+02
     11.128  0.1595E+01  0.1594E+01  0.1792E+02  0.1792E+02
     11.192  0.1475E+01  0.1476E+01  0.1801E+02  0.1801E+02
     11.256  0.1514E+01  0.1516E+01  0.1811E+02  0.1811E+02
     11.320  0.1720E+01  0.1723E+01  0.1822E+02  0.1822E+02
     11.384  0.1917E+01  0.1918E+01  0.1834E+02  0.1834E+02
     11.448  0.1860E+01  0.1858E+01  0.1846E+02  0.1846E+02
     11.512  0.1712E+01  0.1710E+01  0.1857E+02  0.1857E+02
     11.576  0.1694E+01  0.1694E+01  0.1868E+02  0.1868E+02
     11.640  0.1780E+01  0.1781E+01  0.1879E+02  0.1879E+02
     11.704  0.1874E+01  0.1874E+01  0.1891E+02  0.1891E+02
     11.768  0.1897E+01  0.1897E+01  0.1903E+02  0.1903E+02
     11.832  0.1871E+01  0.1871E+01  0.1915E+02  0.1915E+02
     11.896  0.2005E+01  0.2007E+01  0.1928E+02  0.1928E+02
     11.960  0.2311E+01  0.2314E+01  0.1943E+02  0.1943E+02
     12.023  0.2584E+01  0.2585E+01  0.1959E+02  0.1960E+02
     12.087  0.2669E+01  0.2668E+01  0.1977E+02  0.1977E+02
     12.151  0.2387E+01  0.2383E+01  0.1992E+02  0.1992E+02
     12.215  0.1779E+01  0.1775E+01  0.2003E+02  0.2003E+02
     12.279  0.1424E+01  0.1422E+01  0.2012E+02  0.2012E+02
     12.343  0.1447E+01  0.1447E+01  0.2022E+02  0.2022E+02
     12.407  0.1510E+01  0.1511E+01  0.2031E+02  0.2031E+02
     12.471  0.1525E+01  0.1525E+01  0.2041E+02  0.2041E+02
     12.535  0.1573E+01  0.1575E+01  0.2051E+02  0.2051E+02
     12.599  0.1641E+01  0.1651E+01  0.2062E+02  0.2062E+02
     12.663  0.1772E+01  0.1784E+01  0.2073E+02  0.2073E+02
     12.727  0.1953E+01  0.1950E+01  0.2085E+02  0.2086E+02
     12.791  0.2110E+01  0.2107E+01  0.2099E+02  0.2099E+02
     12.855  0.2344E+01  0.2348E+01  0.2114E+02  0.2114E+02
     12.919  0.2592E+01  0.2582E+01  0.2131E+02  0.2131E+02
     12.983  0.2678E+01  0.2655E+01  0.2148E+02  0.2148E+02
     13.047  0.2643E+01  0.2613E+01  0.2165E+02  0.2165E+02
     13.111  0.2493E+01  0.2464E+01  0.2181E+02  0.2180E+02
     13.175  0.2335E+01  0.2356E+01  0.2196E+02  0.2195E+02
     13.239  0.2207E+01  0.2294E+01  0.2210E+02  0.2210E+02
     13.303  0.2165E+01  0.2277E+01  0.2224E+02  0.2225E+02
     13.367  0.2169E+01  0.2235E+01  0.2237E+02  0.2239E+02
     13.431  0.2091E+01  0.2061E+01  0.2251E+02  0.2252E+02
     13.495  0.1816E+01  0.1755E+01  0.2262E+02  0.2263E+02
     13.559  0.1483E+01  0.1437E+01  0.2272E+02  0.2273E+02
     13.623  0.1251E+01  0.1215E+01  0.2280E+02  0.2280E+02
     13.687  0.1113E+01  0.1076E+01  0.2287E+02  0.2287E+02
     13.751  0.1187E+01  0.1191E+01  0.2295E+02  0.2295E+02
     13.815  0.1502E+01  0.1573E+01  0.2304E+02  0.2305E+02
     13.879  0.1770E+01  0.1830E+01  0.2316E+02  0.2317E+02
     13.943  0.1749E+01  0.1709E+01  0.2327E+02  0.2328E+02
     14.007  0.1494E+01  0.1442E+01  0.2336E+02  0.2337E+02
     14.071  0.1229E+01  0.1276E+01  0.2344E+02  0.2345E+02
     14.135  0.1083E+01  0.1211E+01  0.2351E+02  0.2353E+02
     14.199  0.1064E+01  0.1161E+01  0.2358E+02  0.2360E+02
     14.263  0.1120E+01  0.1128E+01  0.2365E+02  0.2367E+02
     14.327  0.1065E+01  0.1030E+01  0.2372E+02  0.2374E+02
     14.391  0.8585E+00  0.8139E+00  0.2378E+02  0.2379E+02
     14.455  0.6664E+00  0.5771E+00  0.2382E+02  0.2383E+02
     14.519  0.5696E+00  0.4159E+00  0.2385E+02  0.2386E+02
     14.583  0.4952E+00  0.3480E+00  0.2389E+02  0.2388E+02
     14.647  0.4090E+00  0.3139E+00  0.2391E+02  0.2390E+02
     14.711  0.3524E+00  0.3335E+00  0.2394E+02  0.2392E+02
     14.775  0.3167E+00  0.4115E+00  0.2396E+02  0.2395E+02
     14.839  0.2418E+00  0.3753E+00  0.2397E+02  0.2397E+02
     14.903  0.1439E+00  0.2143E+00  0.2398E+02  0.2398E+02
     14.967  0.8122E-01  0.9020E-01  0.2399E+02  0.2399E+02
     15.031  0.4898E-01  0.3405E-01  0.2399E+02  0.2399E+02
     15.095  0.3237E-01  0.1753E-01  0.2399E+02  0.2399E+02
     15.159  0.2828E-01  0.1780E-01  0.2399E+02  0.2399E+02
     15.223  0.2586E-01  0.1650E-01  0.2399E+02  0.2400E+02
     15.287  0.2164E-01  0.1187E-01  0.2400E+02  0.2400E+02
     15.351  0.1561E-01  0.1340E-01  0.2400E+02  0.2400E+02
     15.415  0.1611E-01  0.1708E-01  0.2400E+02  0.2400E+02
     15.479  0.1732E-01  0.1239E-01  0.2400E+02  0.2400E+02
     15.543  0.1070E-01  0.5211E-02  0.2400E+02  0.2400E+02
     15.607  0.4123E-02  0.1646E-02  0.2400E+02  0.2400E+02
     15.671  0.1251E-02  0.4771E-03  0.2400E+02  0.2400E+02
     15.735  0.3589E-03  0.1342E-03  0.2400E+02  0.2400E+02
     15.799  0.1007E-03  0.0000E+00  0.2400E+02  0.2400E+02
     15.863  0.0000E+00  0.0000E+00  0.2400E+02  0.2400E+02
     15.927  0.0000E+00  0.0000E+00  0.2400E+02  0.2400E+02
     15.991  0.0000E+00  0.0000E+00  0.2400E+02  0.2400E+02
     16.055  0.0000E+00  0.0000E+00  0.2400E+02  0.2400E+02
     16.119  0.0000E+00  0.0000E+00  0.2400E+02  0.2400E+02
     16.183  0.0000E+00  0.0000E+00  0.2400E+02  0.2400E+02
     16.247  0.0000E+00  0.0000E+00  0.2400E+02  0.2400E+02
     16.311  0.0000E+00  0.0000E+00  0.2400E+02  0.2400E+02
     16.31097656     -2.88669901  301      9.46913564      1.00000000
     -2.887  0.0000E+00  0.0000E+00  0.0000E+00  0.0000E+00  0.0000E+00  0.0000E+00  0.0000E+00  0.0000E+00  0.0000E+00  0.0000E+00  0.0000E+00  0.0000E+00  0.0000E+00  0.0000E+00  0.0000E+00  0.0000E+00  0.0000E+00  0.0000E+00
     -2.823  0.0000E+00  0.0000E+00  0.0000E+00  0.0000E+00  0.0000E+00  0.0000E+00  0.0000E+00  0.0000E+00  0.0000E+00  0.0000E+00  0.0000E+00  0.0000E+00  0.0000E+00  0.0000E+00  0.0000E+00  0.0000E+00  0.0000E+00  0.0000E+00
     -2.759  0.0000E+00  0.0000E+00  0.0000E+00  0.0000E+00  0.0000E+00  0.0000E+00  0.0000E+00  0.0000E+00  0.0000E+00  0.0000E+00  0.0000E+00  0.0000E+00  0.0000E+00  0.0000E+00  0.0000E+00  0.0000E+00  0.0000E+00  0.0000E+00
     -2.695  0.0000E+00  0.0000E+00  0.0000E+00  0.0000E+00  0.0000E+00  0.0000E+00  0.0000E+00  0.0000E+00  0.0000E+00  0.0000E+00  0.0000E+00  0.0000E+00  0.0000E+00  0.0000E+00  0.0000E+00  0.0000E+00  0.0000E+00  0.0000E+00
     -2.631  0.0000E+00  0.0000E+00  0.0000E+00  0.0000E+00  0.0000E+00  0.0000E+00  0.0000E+00  0.0000E+00  0.0000E+00  0.0000E+00  0.0000E+00  0.0000E+00  0.0000E+00  0.0000E+00  0.0000E+00  0.0000E+00  0.0000E+00  0.0000E+00
     -2.567  0.0000E+00  0.0000E+00  0.0000E+00  0.0000E+00  0.0000E+00  0.0000E+00  0.0000E+00  0.0000E+00  0.0000E+00  0.0000E+00  0.0000E+00  0.0000E+00  0.0000E+00  0.0000E+00  0.0000E+00  0.0000E+00  0.0000E+00  0.0000E+00
     -2.503  0.0000E+00  0.0000E+00  0.0000E+00  0.0000E+00  0.0000E+00  0.0000E+00  0.0000E+00  0.0000E+00  0.0000E+00  0.0000E+00  0.0000E+00  0.0000E+00  0.0000E+00  0.0000E+00  0.0000E+00  0.0000E+00  0.0000E+00  0.0000E+00
     -2.439  0.1911E-06  0.1941E-06  0.6230E-22  0.7659E-21  0.2327E-20  0.9968E-19  0.6230E-22  0.7659E-21  0.1292E-20  0.2615E-20  0.9697E-20  0.5149E-19  0.2199E-10  0.2215E-10  0.9697E-20  0.5149E-19  0.3032E-19  0.2957E-18
     -2.375  0.1694E-05  0.1721E-05  0.3827E-08  0.3887E-08  0.4856E-08  0.4933E-08  0.3827E-08  0.3887E-08  0.1926E-18  0.3024E-19  0.4259E-18  0.2809E-18  0.2130E-09  0.2153E-09  0.4259E-18  0.2809E-18  0.1817E-10  0.1848E-10
     -2.311  0.7343E-05  0.7459E-05  0.2723E-07  0.2767E-07  0.3012E-07  0.3059E-07  0.2723E-07  0.2767E-07  0.1105E-09  0.1123E-09  0.1196E-09  0.1215E-09  0.9696E-09  0.9807E-09  0.1196E-09  0.1215E-09  0.9675E-10  0.9840E-10
     -2.247  0.2588E-04  0.2628E-04  0.9933E-07  0.1009E-06  0.1204E-06  0.1223E-06  0.9933E-07  0.1009E-06  0.5903E-09  0.5997E-09  0.5281E-09  0.5364E-09  0.3418E-08  0.3457E-08  0.5281E-09  0.5364E-09  0.2978E-09  0.3029E-09
     -2.183  0.9169E-04  0.9312E-04  0.3557E-06  0.3613E-06  0.4515E-06  0.4585E-06  0.3557E-06  0.3613E-06  0.1816E-08  0.1845E-08  0.2030E-08  0.2062E-08  0.1217E-07  0.1231E-07  0.2030E-08  0.2062E-08  0.1316E-08  0.1338E-08
     -2.119  0.3178E-03  0.3226E-03  0.1312E-05  0.1333E-05  0.1602E-05  0.1626E-05  0.1312E-05  0.1333E-05  0.7404E-08  0.7521E-08  0.7915E-08  0.8040E-08  0.4312E-07  0.4359E-07  0.7915E-08  0.8040E-08  0.5221E-08  0.5308E-08
     -2.055  0.1006E-02  0.1019E-02  0.4501E-05  0.4568E-05  0.5376E-05  0.5454E-05  0.4501E-05  0.4568E-05  0.2719E-07  0.2761E-07  0.2769E-07  0.2812E-07  0.1392E-06  0.1406E-06  0.2769E-07  0.2812E-07  0.1765E-07  0.1794E-07
     -1.991  0.2648E-02  0.2675E-02  0.1394E-04  0.1412E-04  0.1625E-04  0.1646E-04  0.1394E-04  0.1412E-04  0.9077E-07  0.9211E-07  0.9291E-07  0.9425E-07  0.3827E-06  0.3857E-06  0.9291E-07  0.9425E-07  0.5431E-07  0.5507E-07
     -1.927  0.5304E-02  0.5339E-02  0.3502E-04  0.3536E-04  0.4051E-04  0.4091E-04  0.3502E-04  0.3536E-04  0.2777E-06  0.2812E-06  0.2749E-06  0.2783E-06  0.8278E-06  0.8320E-06  0.2749E-06  0.2783E-06  0.1379E-06  0.1395E-06
     -1.863  0.7873E-02  0.7899E-02  0.6626E-04  0.6668E-04  0.8210E-04  0.8272E-04  0.6626E-04  0.6668E-04  0.6589E-06  0.6648E-06  0.6522E-06  0.6586E-06  0.1367E-05  0.1371E-05  0.6522E-06  0.6586E-06  0.3053E-06  0.3087E-06
     -1.799  0.9499E-02  0.9518E-02  0.1050E-03  0.1056E-03  0.1419E-03  0.1427E-03  0.1050E-03  0.1056E-03  0.1195E-05  0.1204E-05  0.1322E-05  0.1334E-05  0.1975E-05  0.1982E-05  0.1322E-05  0.1334E-05  0.7373E-06  0.7463E-06
     -1.735  0.1140E-01  0.1143E-01  0.1722E-03  0.1733E-03  0.2139E-03  0.2148E-03  0.1722E-03  0.1733E-03  0.2243E-05  0.2264E-05  0.2502E-05  0.2523E-05  0.3181E-05  0.3199E-05  0.2502E-05  0.2523E-05  0.1699E-05  0.1715E-05
     -1.671  0.1395E-01  0.1397E-01  0.2708E-03  0.2719E-03  0.2798E-03  0.2806E-03  0.2708E-03  0.2719E-03  0.4461E-05  0.4496E-05  0.4215E-05  0.4241E-05  0.5151E-05  0.5171E-05  0.4215E-05  0.4241E-05  0.2869E-05  0.2884E-05
     -1.607  0.1485E-01  0.1485E-01  0.3315E-03  0.3319E-03  0.3566E-03  0.3580E-03  0.3315E-03  0.3319E-03  0.6718E-05  0.6744E-05  0.6302E-05  0.6339E-05  0.6540E-05  0.6548E-05  0.6302E-05  0.6339E-05  0.3481E-05  0.3490E-05
     -1.543  0.1458E-01  0.1459E-01  0.3487E-03  0.3491E-03  0.5100E-03  0.5123E-03  0.3487E-03  0.3491E-03  0.8367E-05  0.8400E-05  0.9647E-05  0.9694E-05  0.7093E-05  0.7107E-05  0.9647E-05  0.9694E-05  0.3823E-05  0.3831E-05
     -1.479  0.1563E-01  0.1565E-01  0.4216E-03  0.4230E-03  0.6761E-03  0.6775E-03  0.4216E-03  0.4230E-03  0.1248E-04  0.1256E-04  0.1399E-04  0.1404E-04  0.9107E-05  0.9153E-05  0.1399E-04  0.1404E-04  0.5119E-05  0.5151E-05
     -1.415  0.1649E-01  0.1649E-01  0.5489E-03  0.5506E-03  0.6886E-03  0.6879E-03  0.5489E-03  0.5506E-03  0.1775E-04  0.1782E-04  0.1652E-04  0.1655E-04  0.1326E-04  0.1333E-04  0.1652E-04  0.1655E-04  0.8883E-05  0.8956E-05
     -1.351  0.1714E-01  0.1716E-01  0.7031E-03  0.7054E-03  0.6781E-03  0.6793E-03  0.7031E-03  0.7054E-03  0.2139E-04  0.2146E-04  0.2017E-04  0.2026E-04  0.1856E-04  0.1864E-04  0.2017E-04  0.2026E-04  0.1566E-04  0.1576E-04
     -1.287  0.1962E-01  0.1966E-01  0.8765E-03  0.8782E-03  0.9219E-03  0.9262E-03  0.8765E-03  0.8782E-03  0.2726E-04  0.2736E-04  0.3081E-04  0.3097E-04  0.2390E-04  0.2398E-04  0.3081E-04  0.3097E-04  0.2130E-04  0.2135E-04
     -1.223  0.2099E-01  0.2099E-01  0.9409E-03  0.9410E-03  0.1269E-02  0.1272E-02  0.9409E-03  0.9410E-03  0.3376E-04  0.3386E-04  0.4191E-04  0.4201E-04  0.2759E-04  0.2767E-04  0.4191E-04  0.4201E-04  0.2194E-04  0.2194E-04
     -1.159  0.2015E-01  0.2014E-01  0.9541E-03  0.9549E-03  0.1409E-02  0.1410E-02  0.9541E-03  0.9549E-03  0.4489E-04  0.4512E-04  0.4624E-04  0.4628E-04  0.3220E-04  0.3231E-04  0.4624E-04  0.4628E-04  0.2070E-04  0.2070E-04
     -1.095  0.1924E-01  0.1923E-01  0.1031E-02  0.1032E-02  0.1362E-02  0.1361E-02  0.1031E-02  0.1032E-02  0.6366E-04  0.6388E-04  0.5007E-04  0.5016E-04  0.3659E-04  0.3665E-04  0.5007E-04  0.5016E-04  0.1977E-04  0.1976E-04
     -1.031  0.1804E-01  0.1804E-01  0.1057E-02  0.1058E-02  0.1392E-02  0.1394E-02  0.1057E-02  0.1058E-02  0.6964E-04  0.6963E-04  0.6227E-04  0.6251E-04  0.3542E-04  0.3542E-04  0.6227E-04  0.6251E-04  0.2088E-04  0.2094E-04
     -0.967  0.1910E-01  0.1914E-01  0.1189E-02  0.1193E-02  0.1741E-02  0.1747E-02  0.1189E-02  0.1193E-02  0.6769E-04  0.6774E-04  0.8801E-04  0.8838E-04  0.3851E-04  0.3864E-04  0.8801E-04  0.8838E-04  0.3222E-04  0.3245E-04
     -0.903  0.2197E-01  0.2200E-01  0.1504E-02  0.1508E-02  0.2066E-02  0.2067E-02  0.1504E-02  0.1508E-02  0.7523E-04  0.7536E-04  0.1071E-03  0.1072E-03  0.5449E-04  0.5474E-04  0.1071E-03  0.1072E-03  0.5435E-04  0.5465E-04
     -0.839  0.2208E-01  0.2207E-01  0.1700E-02  0.1702E-02  0.2009E-02  0.2008E-02  0.1700E-02  0.1702E-02  0.8863E-04  0.8890E-04  0.9821E-04  0.9810E-04  0.7611E-04  0.7637E-04  0.9821E-04  0.9810E-04  0.7258E-04  0.7274E-04
     -0.775  0.2196E-01  0.2198E-01  0.1834E-02  0.1837E-02  0.2167E-02  0.2172E-02  0.1834E-02  0.1837E-02  0.1212E-03  0.1217E-03  0.1036E-03  0.1040E-03  0.9438E-04  0.9456E-04  0.1036E-03  0.1040E-03  0.7639E-04  0.7641E-04
     -0.711  0.2388E-01  0.2391E-01  0.2070E-02  0.2073E-02  0.2679E-02  0.2684E-02  0.2070E-02  0.2073E-02  0.1645E-03  0.1650E-03  0.1485E-03  0.1491E-03  0.1025E-03  0.1026E-03  0.1485E-03  0.1491E-03  0.7684E-04  0.7691E-04
     -0.647  0.2493E-01  0.2493E-01  0.2262E-02  0.2263E-02  0.2965E-02  0.2967E-02  0.2262E-02  0.2263E-02  0.1958E-03  0.1961E-03  0.1900E-03  0.1904E-03  0.1048E-03  0.1049E-03  0.1900E-03  0.1904E-03  0.8076E-04  0.8080E-04
     -0.583  0.2325E-01  0.2322E-01  0.2150E-02  0.2147E-02  0.3151E-02  0.3154E-02  0.2150E-02  0.2147E-02  0.1955E-03  0.1953E-03  0.2126E-03  0.2128E-03  0.1025E-03  0.1024E-03  0.2126E-03  0.2128E-03  0.7561E-04  0.7554E-04
     -0.519  0.2027E-01  0.2024E-01  0.1892E-02  0.1890E-02  0.3274E-02  0.3274E-02  0.1892E-02  0.1890E-02  0.1699E-03  0.1698E-03  0.2276E-03  0.2279E-03  0.9244E-04  0.9234E-04  0.2276E-03  0.2279E-03  0.7029E-04  0.7033E-04
     -0.455  0.1875E-01  0.1874E-01  0.1903E-02  0.1905E-02  0.3193E-02  0.3192E-02  0.1903E-02  0.1905E-02  0.1806E-03  0.1811E-03  0.2434E-03  0.2437E-03  0.8614E-04  0.8618E-04  0.2434E-03  0.2437E-03  0.7573E-04  0.7586E-04
     -0.391  0.1878E-01  0.1879E-01  0.2100E-02  0.2104E-02  0.3411E-02  0.3416E-02  0.2100E-02  0.2104E-02  0.2340E-03  0.2349E-03  0.2599E-03  0.2602E-03  0.1044E-03  0.1049E-03  0.2599E-03  0.2602E-03  0.8426E-04  0.8449E-04
     -0.327  0.2094E-01  0.2098E-01  0.2589E-02  0.2598E-02  0.4100E-02  0.4108E-02  0.2589E-02  0.2598E-02  0.3175E-03  0.3186E-03  0.2800E-03  0.2804E-03  0.1653E-03  0.1662E-03  0.2800E-03  0.2804E-03  0.1182E-03  0.1190E-03
     -0.263  0.2460E-01  0.2464E-01  0.3320E-02  0.3327E-02  0.4838E-02  0.4846E-02  0.3320E-02  0.3327E-02  0.3805E-03  0.3809E-03  0.3415E-03  0.3426E-03  0.2252E-03  0.2257E-03  0.3415E-03  0.3426E-03  0.1837E-03  0.1845E-03
     -0.199  0.2608E-01  0.2609E-01  0.3675E-02  0.3676E-02  0.5387E-02  0.5393E-02  0.3675E-02  0.3676E-02  0.3786E-03  0.3785E-03  0.4354E-03  0.4366E-03  0.2329E-03  0.2329E-03  0.4354E-03  0.4366E-03  0.2265E-03  0.2268E-03
     -0.135  0.2497E-01  0.2496E-01  0.3640E-02  0.3639E-02  0.5910E-02  0.5916E-02  0.3640E-02  0.3639E-02  0.3792E-03  0.3794E-03  0.4999E-03  0.5006E-03  0.2207E-03  0.2207E-03  0.4999E-03  0.5006E-03  0.2294E-03  0.2294E-03
     -0.071  0.2289E-01  0.2287E-01  0.3509E-02  0.3508E-02  0.6311E-02  0.6312E-02  0.3509E-02  0.3508E-02  0.4022E-03  0.4027E-03  0.5185E-03  0.5188E-03  0.2171E-03  0.2171E-03  0.5185E-03  0.5188E-03  0.2210E-03  0.2209E-03
     -0.007  0.2056E-01  0.2054E-01  0.3344E-02  0.3343E-02  0.6171E-02  0.6168E-02  0.3344E-02  0.3343E-02  0.4461E-03  0.4468E-03  0.5349E-03  0.5356E-03  0.1971E-03  0.1968E-03  0.5349E-03  0.5356E-03  0.1990E-03  0.1988E-03
      0.057  0.1957E-01  0.1958E-01  0.3394E-02  0.3397E-02  0.5937E-02  0.5938E-02  0.3394E-02  0.3397E-02  0.5250E-03  0.5262E-03  0.6015E-03  0.6028E-03  0.1735E-03  0.1735E-03  0.6015E-03  0.6028E-03  0.1850E-03  0.1851E-03
      0.121  0.1953E-01  0.1953E-01  0.3578E-02  0.3579E-02  0.6349E-02  0.6357E-02  0.3578E-02  0.3579E-02  0.6062E-03  0.6069E-03  0.6935E-03  0.6947E-03  0.1860E-03  0.1863E-03  0.6935E-03  0.6947E-03  0.1912E-03  0.1913E-03
      0.185  0.1817E-01  0.1816E-01  0.3410E-02  0.3408E-02  0.7139E-02  0.7146E-02  0.3410E-02  0.3408E-02  0.6364E-03  0.6370E-03  0.7774E-03  0.7787E-03  0.2056E-03  0.2059E-03  0.7774E-03  0.7787E-03  0.1759E-03  0.1757E-03
      0.249  0.1762E-01  0.1763E-01  0.3464E-02  0.3470E-02  0.7116E-02  0.7111E-02  0.3464E-02  0.3470E-02  0.7371E-03  0.7393E-03  0.8384E-03  0.8396E-03  0.2267E-03  0.2272E-03  0.8384E-03  0.8396E-03  0.1678E-03  0.1681E-03
      0.313  0.1884E-01  0.1886E-01  0.4071E-02  0.4080E-02  0.6383E-02  0.6380E-02  0.4071E-02  0.4080E-02  0.8875E-03  0.8890E-03  0.8946E-03  0.8965E-03  0.2486E-03  0.2489E-03  0.8946E-03  0.8965E-03  0.2144E-03  0.2154E-03