   8   8   1   0
  0.1145908E+02  0.3463830E-09  0.3463830E-09  0.7640588E-09  0.5000000E-15
  1.000000000000000E-004
  CAR 
 unknown system                          
     18.32803387     -2.24769909  301     10.93957263      1.00000000
     -2.248  0.0000E+00  0.0000E+00  0.0000E+00  0.0000E+00
     -2.179  0.0000E+00  0.0000E+00  0.0000E+00  0.0000E+00
     -2.111  0.0000E+00  0.0000E+00  0.0000E+00  0.0000E+00
     -2.042  0.0000E+00  0.0000E+00  0.0000E+00  0.0000E+00
     -1.973  0.0000E+00  0.0000E+00  0.0000E+00  0.0000E+00
     -1.905  0.0000E+00  0.0000E+00  0.0000E+00  0.0000E+00
     -1.836  0.0000E+00  0.0000E+00  0.0000E+00  0.0000E+00
     -1.768  0.1372E-05  0.1361E-05  0.9408E-07  0.9333E-07
     -1.699  0.1250E-04  0.1240E-04  0.9517E-06  0.9441E-06
     -1.630  0.5372E-04  0.5330E-04  0.4636E-05  0.4599E-05
     -1.562  0.2282E-03  0.2264E-03  0.2029E-04  0.2013E-04
     -1.493  0.8691E-03  0.8623E-03  0.7989E-04  0.7926E-04
     -1.425  0.3308E-02  0.3283E-02  0.3068E-03  0.3045E-03
     -1.356  0.1150E-01  0.1142E-01  0.1096E-02  0.1088E-02
     -1.287  0.3261E-01  0.3244E-01  0.3332E-02  0.3313E-02
     -1.219  0.6854E-01  0.6831E-01  0.8033E-02  0.7998E-02
     -1.150  0.1039E+00  0.1037E+00  0.1516E-01  0.1511E-01
     -1.082  0.1244E+00  0.1243E+00  0.2369E-01  0.2364E-01
     -1.013  0.1491E+00  0.1489E+00  0.3392E-01  0.3385E-01
     -0.945  0.1895E+00  0.1893E+00  0.4691E-01  0.4683E-01
     -0.876  0.2074E+00  0.2075E+00  0.6114E-01  0.6106E-01
     -0.807  0.2012E+00  0.2012E+00  0.7495E-01  0.7486E-01
     -0.739  0.2186E+00  0.2184E+00  0.8994E-01  0.8985E-01
     -0.670  0.2384E+00  0.2383E+00  0.1063E+00  0.1062E+00
     -0.602  0.2427E+00  0.2426E+00  0.1230E+00  0.1229E+00
     -0.533  0.2823E+00  0.2820E+00  0.1423E+00  0.1422E+00
     -0.464  0.3219E+00  0.3218E+00  0.1644E+00  0.1643E+00
     -0.396  0.3154E+00  0.3154E+00  0.1861E+00  0.1859E+00
     -0.327  0.3066E+00  0.3066E+00  0.2071E+00  0.2070E+00
     -0.259  0.2887E+00  0.2889E+00  0.2269E+00  0.2268E+00
     -0.190  0.2922E+00  0.2920E+00  0.2470E+00  0.2468E+00
     -0.122  0.3544E+00  0.3541E+00  0.2713E+00  0.2711E+00
     -0.053  0.3796E+00  0.3797E+00  0.2973E+00  0.2972E+00
      0.016  0.3685E+00  0.3684E+00  0.3226E+00  0.3225E+00
      0.084  0.4045E+00  0.4042E+00  0.3504E+00  0.3502E+00
      0.153  0.4510E+00  0.4509E+00  0.3813E+00  0.3812E+00
      0.221  0.4484E+00  0.4487E+00  0.4121E+00  0.4119E+00
      0.290  0.4037E+00  0.4040E+00  0.4398E+00  0.4397E+00
      0.359  0.3674E+00  0.3675E+00  0.4650E+00  0.4649E+00
      0.427  0.3639E+00  0.3638E+00  0.4900E+00  0.4899E+00
      0.496  0.3975E+00  0.3972E+00  0.5173E+00  0.5171E+00
      0.564  0.4868E+00  0.4863E+00  0.5507E+00  0.5505E+00
      0.633  0.5676E+00  0.5674E+00  0.5897E+00  0.5894E+00
      0.701  0.5799E+00  0.5799E+00  0.6294E+00  0.6292E+00
      0.770  0.5669E+00  0.5670E+00  0.6684E+00  0.6681E+00
      0.839  0.5386E+00  0.5388E+00  0.7053E+00  0.7051E+00
      0.907  0.5023E+00  0.5024E+00  0.7398E+00  0.7396E+00
      0.976  0.5129E+00  0.5127E+00  0.7750E+00  0.7748E+00
      1.044  0.5314E+00  0.5314E+00  0.8114E+00  0.8113E+00
      1.113  0.5188E+00  0.5189E+00  0.8471E+00  0.8469E+00
      1.182  0.5192E+00  0.5191E+00  0.8827E+00  0.8825E+00
      1.250  0.5530E+00  0.5527E+00  0.9206E+00  0.9204E+00
      1.319  0.6174E+00  0.6171E+00  0.9630E+00  0.9628E+00
      1.387  0.6021E+00  0.6026E+00  0.1004E+01  0.1004E+01
      1.456  0.5022E+00  0.5026E+00  0.1039E+01  0.1039E+01
      1.525  0.5236E+00  0.5231E+00  0.1075E+01  0.1075E+01
      1.593  0.6375E+00  0.6371E+00  0.1118E+01  0.1118E+01
      1.662  0.6654E+00  0.6655E+00  0.1164E+01  0.1164E+01
      1.730  0.6577E+00  0.6577E+00  0.1209E+01  0.1209E+01
      1.799  0.6208E+00  0.6211E+00  0.1252E+01  0.1252E+01
      1.867  0.5477E+00  0.5479E+00  0.1289E+01  0.1289E+01
      1.936  0.5363E+00  0.5362E+00  0.1326E+01  0.1326E+01
      2.005  0.5603E+00  0.5601E+00  0.1365E+01  0.1365E+01
      2.073  0.5997E+00  0.5996E+00  0.1406E+01  0.1406E+01
      2.142  0.6238E+00  0.6236E+00  0.1449E+01  0.1448E+01
      2.210  0.7137E+00  0.7129E+00  0.1498E+01  0.1497E+01
      2.279  0.8363E+00  0.8360E+00  0.1555E+01  0.1555E+01
      2.348  0.8166E+00  0.8171E+00  0.1611E+01  0.1611E+01
      2.416  0.7158E+00  0.7161E+00  0.1660E+01  0.1660E+01
      2.485  0.6670E+00  0.6672E+00  0.1706E+01  0.1706E+01
      2.553  0.6405E+00  0.6408E+00  0.1750E+01  0.1750E+01
      2.622  0.6499E+00  0.6497E+00  0.1795E+01  0.1794E+01
      2.690  0.7108E+00  0.7105E+00  0.1843E+01  0.1843E+01
      2.759  0.7088E+00  0.7089E+00  0.1892E+01  0.1892E+01
      2.828  0.7440E+00  0.7437E+00  0.1943E+01  0.1943E+01
      2.896  0.8199E+00  0.8197E+00  0.1999E+01  0.1999E+01
      2.965  0.8433E+00  0.8431E+00  0.2057E+01  0.2057E+01
      3.033  0.9013E+00  0.9010E+00  0.2119E+01  0.2119E+01
      3.102  0.9534E+00  0.9533E+00  0.2185E+01  0.2184E+01
      3.171  0.9428E+00  0.9431E+00  0.2249E+01  0.2249E+01
      3.239  0.8721E+00  0.8726E+00  0.2309E+01  0.2309E+01
      3.308  0.8064E+00  0.8066E+00  0.2364E+01  0.2364E+01
      3.376  0.8128E+00  0.8128E+00  0.2420E+01  0.2420E+01
      3.445  0.8906E+00  0.8904E+00  0.2481E+01  0.2481E+01
      3.514  0.9544E+00  0.9546E+00  0.2547E+01  0.2547E+01
      3.582  0.8715E+00  0.8718E+00  0.2607E+01  0.2606E+01
      3.651  0.8571E+00  0.8570E+00  0.2665E+01  0.2665E+01
      3.719  0.9137E+00  0.9137E+00  0.2728E+01  0.2728E+01
      3.788  0.9423E+00  0.9424E+00  0.2793E+01  0.2793E+01
      3.856  0.8414E+00  0.8420E+00  0.2851E+01  0.2850E+01
      3.925  0.6794E+00  0.6798E+00  0.2897E+01  0.2897E+01
      3.994  0.6038E+00  0.6039E+00  0.2939E+01  0.2939E+01
      4.062  0.6266E+00  0.6264E+00  0.2982E+01  0.2982E+01
      4.131  0.7049E+00  0.7045E+00  0.3030E+01  0.3030E+01
      4.199  0.7647E+00  0.7645E+00  0.3083E+01  0.3082E+01
      4.268  0.8061E+00  0.8060E+00  0.3138E+01  0.3138E+01
      4.337  0.8221E+00  0.8222E+00  0.3194E+01  0.3194E+01
      4.405  0.7372E+00  0.7379E+00  0.3245E+01  0.3245E+01
      4.474  0.6217E+00  0.6218E+00  0.3288E+01  0.3287E+01
      4.542  0.6740E+00  0.6734E+00  0.3334E+01  0.3334E+01
      4.611  0.8241E+00  0.8236E+00  0.3390E+01  0.3390E+01
      4.679  0.8706E+00  0.8704E+00  0.3450E+01  0.3450E+01
      4.748  0.8504E+00  0.8503E+00  0.3509E+01  0.3508E+01
      4.817  0.8880E+00  0.8875E+00  0.3569E+01  0.3569E+01
      4.885  0.9511E+00  0.9509E+00  0.3635E+01  0.3634E+01
      4.954  0.1005E+01  0.1006E+01  0.3704E+01  0.3703E+01
      5.022  0.1014E+01  0.1014E+01  0.3773E+01  0.3773E+01
      5.091  0.9472E+00  0.9474E+00  0.3838E+01  0.3838E+01
      5.160  0.8713E+00  0.8709E+00  0.3898E+01  0.3898E+01
      5.228  0.9187E+00  0.9180E+00  0.3961E+01  0.3961E+01
      5.297  0.1005E+01  0.1005E+01  0.4030E+01  0.4030E+01
      5.365  0.1044E+01  0.1044E+01  0.4102E+01  0.4101E+01
      5.434  0.1023E+01  0.1023E+01  0.4172E+01  0.4172E+01
      5.502  0.1116E+01  0.1115E+01  0.4249E+01  0.4248E+01
      5.571  0.1178E+01  0.1178E+01  0.4329E+01  0.4329E+01
      5.640  0.1141E+01  0.1141E+01  0.4408E+01  0.4407E+01
      5.708  0.1172E+01  0.1172E+01  0.4488E+01  0.4488E+01
      5.777  0.1278E+01  0.1278E+01  0.4576E+01  0.4576E+01
      5.845  0.1341E+01  0.1341E+01  0.4668E+01  0.4668E+01
      5.914  0.1264E+01  0.1264E+01  0.4755E+01  0.4754E+01
      5.983  0.1108E+01  0.1109E+01  0.4831E+01  0.4830E+01
      6.051  0.1054E+01  0.1054E+01  0.4903E+01  0.4903E+01
      6.120  0.1127E+01  0.1127E+01  0.4980E+01  0.4980E+01
      6.188  0.1151E+01  0.1151E+01  0.5059E+01  0.5059E+01
      6.257  0.1156E+01  0.1156E+01  0.5139E+01  0.5138E+01
      6.326  0.1188E+01  0.1188E+01  0.5220E+01  0.5220E+01
      6.394  0.1198E+01  0.1198E+01  0.5302E+01  0.5302E+01
      6.463  0.1222E+01  0.1222E+01  0.5386E+01  0.5386E+01
      6.531  0.1301E+01  0.1301E+01  0.5476E+01  0.5475E+01
      6.600  0.1263E+01  0.1264E+01  0.5562E+01  0.5562E+01
      6.668  0.1212E+01  0.1212E+01  0.5646E+01  0.5645E+01
      6.737  0.1201E+01  0.1200E+01  0.5728E+01  0.5728E+01
      6.806  0.1114E+01  0.1114E+01  0.5804E+01  0.5804E+01
      6.874  0.1109E+01  0.1109E+01  0.5881E+01  0.5880E+01
      6.943  0.1181E+01  0.1181E+01  0.5962E+01  0.5961E+01
      7.011  0.1222E+01  0.1222E+01  0.6045E+01  0.6045E+01
      7.080  0.1154E+01  0.1154E+01  0.6125E+01  0.6124E+01
      7.149  0.1041E+01  0.1041E+01  0.6196E+01  0.6196E+01
      7.217  0.1060E+01  0.1060E+01  0.6269E+01  0.6269E+01
      7.286  0.1152E+01  0.1152E+01  0.6348E+01  0.6348E+01
      7.354  0.1232E+01  0.1232E+01  0.6432E+01  0.6432E+01
      7.423  0.1343E+01  0.1343E+01  0.6525E+01  0.6524E+01
      7.491  0.1415E+01  0.1415E+01  0.6622E+01  0.6622E+01
      7.560  0.1444E+01  0.1443E+01  0.6721E+01  0.6721E+01
      7.629  0.1492E+01  0.1492E+01  0.6823E+01  0.6823E+01
      7.697  0.1512E+01  0.1512E+01  0.6927E+01  0.6927E+01
      7.766  0.1554E+01  0.1554E+01  0.7034E+01  0.7033E+01
      7.834  0.1694E+01  0.1693E+01  0.7150E+01  0.7150E+01
      7.903  0.1827E+01  0.1827E+01  0.7275E+01  0.7275E+01
      7.972  0.1711E+01  0.1713E+01  0.7393E+01  0.7392E+01
      8.040  0.1593E+01  0.1595E+01  0.7502E+01  0.7502E+01
      8.109  0.1752E+01  0.1752E+01  0.7622E+01  0.7622E+01
      8.177  0.2100E+01  0.2100E+01  0.7766E+01  0.7766E+01
      8.246  0.2337E+01  0.2337E+01  0.7927E+01  0.7927E+01
      8.315  0.2339E+01  0.2340E+01  0.8087E+01  0.8087E+01
      8.383  0.2303E+01  0.2304E+01  0.8245E+01  0.8245E+01
      8.452  0.2288E+01  0.2289E+01  0.8402E+01  0.8402E+01
      8.520  0.2233E+01  0.2234E+01  0.8556E+01  0.8556E+01
      8.589  0.2099E+01  0.2100E+01  0.8700E+01  0.8700E+01
      8.657  0.2032E+01  0.2034E+01  0.8839E+01  0.8840E+01
      8.726  0.2179E+01  0.2182E+01  0.8989E+01  0.8989E+01
      8.795  0.2532E+01  0.2536E+01  0.9162E+01  0.9163E+01
      8.863  0.2914E+01  0.2917E+01  0.9362E+01  0.9363E+01
      8.932  0.3050E+01  0.3052E+01  0.9572E+01  0.9573E+01
      9.000  0.3065E+01  0.3067E+01  0.9782E+01  0.9783E+01
      9.069  0.3073E+01  0.3075E+01  0.9993E+01  0.9994E+01
      9.138  0.3046E+01  0.3045E+01  0.1020E+02  0.1020E+02
      9.206  0.3027E+01  0.3026E+01  0.1041E+02  0.1041E+02
      9.275  0.2965E+01  0.2963E+01  0.1061E+02  0.1061E+02
      9.343  0.2808E+01  0.2807E+01  0.1081E+02  0.1081E+02
      9.412  0.2666E+01  0.2667E+01  0.1099E+02  0.1099E+02
      9.480  0.2729E+01  0.2732E+01  0.1118E+02  0.1118E+02
      9.549  0.2923E+01  0.2926E+01  0.1138E+02  0.1138E+02
      9.618  0.2917E+01  0.2918E+01  0.1158E+02  0.1158E+02
      9.686  0.2807E+01  0.2810E+01  0.1177E+02  0.1177E+02
      9.755  0.2761E+01  0.2764E+01  0.1196E+02  0.1196E+02
      9.823  0.2721E+01  0.2722E+01  0.1215E+02  0.1215E+02
      9.892  0.2635E+01  0.2635E+01  0.1233E+02  0.1233E+02
      9.961  0.2474E+01  0.2472E+01  0.1250E+02  0.1250E+02
     10.029  0.2196E+01  0.2193E+01  0.1265E+02  0.1265E+02
     10.098  0.1950E+01  0.1949E+01  0.1278E+02  0.1278E+02
     10.166  0.1851E+01  0.1852E+01  0.1291E+02  0.1291E+02
     10.235  0.1760E+01  0.1759E+01  0.1303E+02  0.1303E+02
     10.303  0.1644E+01  0.1644E+01  0.1314E+02  0.1314E+02
     10.372  0.1592E+01  0.1592E+01  0.1325E+02  0.1325E+02
     10.441  0.1569E+01  0.1569E+01  0.1336E+02  0.1336E+02
     10.509  0.1495E+01  0.1494E+01  0.1346E+02  0.1346E+02
     10.578  0.1411E+01  0.1411E+01  0.1356E+02  0.1356E+02
     10.646  0.1372E+01  0.1374E+01  0.1365E+02  0.1365E+02
     10.715  0.1408E+01  0.1409E+01  0.1375E+02  0.1375E+02
     10.784  0.1384E+01  0.1383E+01  0.1384E+02  0.1385E+02
     10.852  0.1230E+01  0.1225E+01  0.1393E+02  0.1393E+02
     10.921  0.8664E+00  0.8566E+00  0.1399E+02  0.1399E+02
     10.989  0.4968E+00  0.4902E+00  0.1402E+02  0.1402E+02
     11.058  0.3121E+00  0.3093E+00  0.1404E+02  0.1404E+02
     11.127  0.2262E+00  0.2251E+00  0.1406E+02  0.1406E+02
     11.195  0.2229E+00  0.2234E+00  0.1407E+02  0.1408E+02
     11.264  0.3021E+00  0.3037E+00  0.1410E+02  0.1410E+02
     11.332  0.4022E+00  0.4035E+00  0.1412E+02  0.1412E+02
     11.401  0.4683E+00  0.4692E+00  0.1416E+02  0.1416E+02
     11.469  0.5211E+00  0.5222E+00  0.1419E+02  0.1419E+02
     11.538  0.6496E+00  0.6527E+00  0.1424E+02  0.1424E+02
     11.607  0.9044E+00  0.9093E+00  0.1430E+02  0.1430E+02
     11.675  0.1237E+01  0.1243E+01  0.1438E+02  0.1438E+02
     11.744  0.1575E+01  0.1580E+01  0.1449E+02  0.1449E+02
     11.812  0.1846E+01  0.1852E+01  0.1462E+02  0.1462E+02
     11.881  0.2134E+01  0.2139E+01  0.1476E+02  0.1477E+02
     11.950  0.2358E+01  0.2366E+01  0.1493E+02  0.1493E+02
     12.018  0.2710E+01  0.2721E+01  0.1511E+02  0.1512E+02
     12.087  0.3149E+01  0.3159E+01  0.1533E+02  0.1533E+02
     12.155  0.3770E+01  0.3794E+01  0.1559E+02  0.1559E+02
     12.224  0.4925E+01  0.4956E+01  0.1592E+02  0.1593E+02
     12.292  0.5653E+01  0.5657E+01  0.1631E+02  0.1632E+02
     12.361  0.5168E+01  0.5142E+01  0.1667E+02  0.1667E+02
     12.430  0.4041E+01  0.4009E+01  0.1694E+02  0.1695E+02
     12.498  0.3065E+01  0.3045E+01  0.1715E+02  0.1716E+02
     12.567  0.2514E+01  0.2504E+01  0.1733E+02  0.1733E+02
     12.635  0.2445E+01  0.2441E+01  0.1749E+02  0.1750E+02
     12.704  0.2359E+01  0.2352E+01  0.1766E+02  0.1766E+02
     12.773  0.1912E+01  0.1905E+01  0.1779E+02  0.1779E+02
     12.841  0.1509E+01  0.1505E+01  0.1789E+02  0.1789E+02
     12.910  0.1305E+01  0.1303E+01  0.1798E+02  0.1798E+02
     12.978  0.1255E+01  0.1254E+01  0.1807E+02  0.1807E+02
     13.047  0.1394E+01  0.1395E+01  0.1816E+02  0.1816E+02
     13.116  0.1576E+01  0.1577E+01  0.1827E+02  0.1827E+02
     13.184  0.1653E+01  0.1653E+01  0.1838E+02  0.1839E+02
     13.253  0.1519E+01  0.1517E+01  0.1849E+02  0.1849E+02
     13.321  0.1414E+01  0.1414E+01  0.1859E+02  0.1859E+02
     13.390  0.1445E+01  0.1446E+01  0.1869E+02  0.1869E+02
     13.458  0.1461E+01  0.1462E+01  0.1879E+02  0.1879E+02
     13.527  0.1524E+01  0.1526E+01  0.1889E+02  0.1889E+02
     13.596  0.1575E+01  0.1577E+01  0.1900E+02  0.1900E+02
     13.664  0.1510E+01  0.1511E+01  0.1910E+02  0.1910E+02
     13.733  0.1463E+01  0.1464E+01  0.1920E+02  0.1920E+02
     13.801  0.1655E+01  0.1659E+01  0.1932E+02  0.1932E+02
     13.870  0.2060E+01  0.2065E+01  0.1946E+02  0.1946E+02
     13.939  0.2328E+01  0.2332E+01  0.1962E+02  0.1962E+02
     14.007  0.2220E+01  0.2224E+01  0.1977E+02  0.1977E+02
     14.076  0.2000E+01  0.2000E+01  0.1991E+02  0.1991E+02
     14.144  0.1766E+01  0.1762E+01  0.2003E+02  0.2003E+02
     14.213  0.1597E+01  0.1591E+01  0.2014E+02  0.2014E+02
     14.281  0.1527E+01  0.1522E+01  0.2024E+02  0.2024E+02
     14.350  0.1480E+01  0.1478E+01  0.2034E+02  0.2035E+02
     14.419  0.1443E+01  0.1442E+01  0.2044E+02  0.2044E+02
     14.487  0.1419E+01  0.1419E+01  0.2054E+02  0.2054E+02
     14.556  0.1370E+01  0.1369E+01  0.2063E+02  0.2064E+02
     14.624  0.1339E+01  0.1340E+01  0.2073E+02  0.2073E+02
     14.693  0.1549E+01  0.1555E+01  0.2083E+02  0.2083E+02
     14.762  0.1874E+01  0.1882E+01  0.2096E+02  0.2096E+02
     14.830  0.2128E+01  0.2147E+01  0.2111E+02  0.2111E+02
     14.899  0.2114E+01  0.2162E+01  0.2125E+02  0.2126E+02
     14.967  0.1984E+01  0.2056E+01  0.2139E+02  0.2140E+02
     15.036  0.2032E+01  0.2049E+01  0.2153E+02  0.2154E+02
     15.105  0.2103E+01  0.2067E+01  0.2167E+02  0.2168E+02
     15.173  0.2089E+01  0.2092E+01  0.2182E+02  0.2183E+02
     15.242  0.2102E+01  0.2130E+01  0.2196E+02  0.2197E+02
     15.310  0.2217E+01  0.2212E+01  0.2211E+02  0.2212E+02
     15.379  0.2203E+01  0.2153E+01  0.2226E+02  0.2227E+02
     15.447  0.2011E+01  0.1986E+01  0.2240E+02  0.2241E+02
     15.516  0.1910E+01  0.1963E+01  0.2253E+02  0.2254E+02
     15.585  0.1793E+01  0.1820E+01  0.2266E+02  0.2267E+02
     15.653  0.1553E+01  0.1498E+01  0.2276E+02  0.2277E+02
     15.722  0.1278E+01  0.1220E+01  0.2285E+02  0.2285E+02
     15.790  0.1150E+01  0.1184E+01  0.2293E+02  0.2294E+02
     15.859  0.1159E+01  0.1215E+01  0.2301E+02  0.2302E+02
     15.928  0.1213E+01  0.1258E+01  0.2309E+02  0.2311E+02
     15.996  0.1291E+01  0.1366E+01  0.2318E+02  0.2320E+02
     16.065  0.1366E+01  0.1502E+01  0.2327E+02  0.2330E+02
     16.133  0.1355E+01  0.1486E+01  0.2337E+02  0.2340E+02
     16.202  0.1301E+01  0.1347E+01  0.2346E+02  0.2350E+02
     16.270  0.1346E+01  0.1275E+01  0.2355E+02  0.2358E+02
     16.339  0.1325E+01  0.1147E+01  0.2364E+02  0.2366E+02
     16.408  0.1109E+01  0.9507E+00  0.2372E+02  0.2373E+02
     16.476  0.8073E+00  0.7279E+00  0.2377E+02  0.2378E+02
     16.545  0.5920E+00  0.5443E+00  0.2381E+02  0.2382E+02
     16.613  0.5189E+00  0.5194E+00  0.2385E+02  0.2385E+02
     16.682  0.5178E+00  0.5220E+00  0.2388E+02  0.2389E+02
     16.751  0.4836E+00  0.4480E+00  0.2392E+02  0.2392E+02
     16.819  0.3894E+00  0.3913E+00  0.2394E+02  0.2395E+02
     16.888  0.3007E+00  0.3320E+00  0.2396E+02  0.2397E+02
     16.956  0.2218E+00  0.2052E+00  0.2398E+02  0.2398E+02
     17.025  0.1190E+00  0.8267E-01  0.2399E+02  0.2399E+02
     17.093  0.5291E-01  0.2728E-01  0.2399E+02  0.2399E+02
     17.162  0.2753E-01  0.1627E-01  0.2399E+02  0.2399E+02
     17.231  0.1762E-01  0.2466E-01  0.2399E+02  0.2399E+02
     17.299  0.2196E-01  0.3357E-01  0.2400E+02  0.2399E+02
     17.368  0.2805E-01  0.3331E-01  0.2400E+02  0.2400E+02
     17.436  0.2379E-01  0.2528E-01  0.2400E+02  0.2400E+02
     17.505  0.1193E-01  0.1258E-01  0.2400E+02  0.2400E+02
     17.574  0.3946E-02  0.4175E-02  0.2400E+02  0.2400E+02
     17.642  0.1082E-02  0.1113E-02  0.2400E+02  0.2400E+02
     17.711  0.2374E-03  0.2488E-03  0.2400E+02  0.2400E+02
     17.779  0.6059E-04  0.6351E-04  0.2400E+02  0.2400E+02
     17.848  0.0000E+00  0.0000E+00  0.2400E+02  0.2400E+02
     17.917  0.0000E+00  0.0000E+00  0.2400E+02  0.2400E+02
     17.985  0.0000E+00  0.0000E+00  0.2400E+02  0.2400E+02
     18.054  0.0000E+00  0.0000E+00  0.2400E+02  0.2400E+02
     18.122  0.0000E+00  0.0000E+00  0.2400E+02  0.2400E+02
     18.191  0.0000E+00  0.0000E+00  0.2400E+02  0.2400E+02
     18.259  0.0000E+00  0.0000E+00  0.2400E+02  0.2400E+02
     18.328  0.0000E+00  0.0000E+00  0.2400E+02  0.2400E+02
     18.32803387     -2.24769909  301     10.93957263      1.00000000
     -2.248  0.0000E+00  0.0000E+00  0.0000E+00  0.0000E+00  0.0000E+00  0.0000E+00  0.0000E+00  0.0000E+00  0.0000E+00  0.0000E+00  0.0000E+00  0.0000E+00  0.0000E+00  0.0000E+00  0.0000E+00  0.0000E+00  0.0000E+00  0.0000E+00
     -2.179  0.0000E+00  0.0000E+00  0.0000E+00  0.0000E+00  0.0000E+00  0.0000E+00  0.0000E+00  0.0000E+00  0.0000E+00  0.0000E+00  0.0000E+00  0.0000E+00  0.0000E+00  0.0000E+00  0.0000E+00  0.0000E+00  0.0000E+00  0.0000E+00
     -2.111  0.0000E+00  0.0000E+00  0.0000E+00  0.0000E+00  0.0000E+00  0.0000E+00  0.0000E+00  0.0000E+00  0.0000E+00  0.0000E+00  0.0000E+00  0.0000E+00  0.0000E+00  0.0000E+00  0.0000E+00  0.0000E+00  0.0000E+00  0.0000E+00
     -2.042  0.0000E+00  0.0000E+00  0.0000E+00  0.0000E+00  0.0000E+00  0.0000E+00  0.0000E+00  0.0000E+00  0.0000E+00  0.0000E+00  0.0000E+00  0.0000E+00  0.0000E+00  0.0000E+00  0.0000E+00  0.0000E+00  0.0000E+00  0.0000E+00
     -1.973  0.0000E+00  0.0000E+00  0.0000E+00  0.0000E+00  0.0000E+00  0.0000E+00  0.0000E+00  0.0000E+00  0.0000E+00  0.0000E+00  0.0000E+00  0.0000E+00  0.0000E+00  0.0000E+00  0.0000E+00  0.0000E+00  0.0000E+00  0.0000E+00
     -1.905  0.0000E+00  0.0000E+00  0.0000E+00  0.0000E+00  0.0000E+00  0.0000E+00  0.0000E+00  0.0000E+00  0.0000E+00  0.0000E+00  0.0000E+00  0.0000E+00  0.0000E+00  0.0000E+00  0.0000E+00  0.0000E+00  0.0000E+00  0.0000E+00
     -1.836  0.0000E+00  0.0000E+00  0.0000E+00  0.0000E+00  0.0000E+00  0.0000E+00  0.0000E+00  0.0000E+00  0.0000E+00  0.0000E+00  0.0000E+00  0.0000E+00  0.0000E+00  0.0000E+00  0.0000E+00  0.0000E+00  0.0000E+00  0.0000E+00
     -1.768  0.1191E-06  0.1182E-06  0.3718E-22  0.2675E-21  0.4801E-20  0.3612E-19  0.3718E-22  0.2675E-21  0.4932E-19  0.7359E-20  0.3028E-18  0.4839E-20  0.3290E-10  0.3245E-10  0.3028E-18  0.4839E-20  0.3256E-18  0.6416E-19
     -1.699  0.1076E-05  0.1068E-05  0.2381E-08  0.2363E-08  0.3206E-08  0.3181E-08  0.2381E-08  0.2363E-08  0.4963E-18  0.1158E-18  0.2569E-17  0.2469E-18  0.3102E-09  0.3043E-09  0.2569E-17  0.2469E-18  0.1247E-10  0.1236E-10
     -1.630  0.4609E-05  0.4573E-05  0.1345E-07  0.1335E-07  0.2051E-07  0.2034E-07  0.1345E-07  0.1335E-07  0.2746E-17  0.3675E-18  0.7857E-10  0.7715E-10  0.1277E-08  0.1249E-08  0.7857E-10  0.7715E-10  0.7069E-10  0.7055E-10
     -1.562  0.1954E-04  0.1938E-04  0.7389E-07  0.7331E-07  0.8756E-07  0.8686E-07  0.7389E-07  0.7331E-07  0.4480E-09  0.4396E-09  0.3678E-09  0.3620E-09  0.5891E-08  0.5782E-08  0.3678E-09  0.3620E-09  0.2444E-09  0.2437E-09
     -1.493  0.7442E-04  0.7384E-04  0.2673E-06  0.2652E-06  0.3547E-06  0.3519E-06  0.2673E-06  0.2652E-06  0.1317E-08  0.1292E-08  0.1521E-08  0.1494E-08  0.2187E-07  0.2146E-07  0.1521E-08  0.1494E-08  0.9817E-09  0.9789E-09
     -1.425  0.2832E-03  0.2810E-03  0.1078E-05  0.1070E-05  0.1354E-05  0.1343E-05  0.1078E-05  0.1070E-05  0.5173E-08  0.5076E-08  0.5971E-08  0.5867E-08  0.8465E-07  0.8307E-07  0.5971E-08  0.5867E-08  0.4663E-08  0.4645E-08
     -1.356  0.9830E-03  0.9764E-03  0.4113E-05  0.4082E-05  0.5110E-05  0.5073E-05  0.4113E-05  0.4082E-05  0.2203E-07  0.2163E-07  0.2433E-07  0.2391E-07  0.2972E-06  0.2918E-06  0.2433E-07  0.2391E-07  0.1716E-07  0.1710E-07
     -1.287  0.2779E-02  0.2765E-02  0.1409E-04  0.1400E-04  0.1668E-04  0.1658E-04  0.1409E-04  0.1400E-04  0.8486E-07  0.8340E-07  0.9007E-07  0.8856E-07  0.8678E-06  0.8528E-06  0.9007E-07  0.8856E-07  0.5834E-07  0.5822E-07
     -1.219  0.5812E-02  0.5792E-02  0.3783E-04  0.3765E-04  0.4367E-04  0.4346E-04  0.3783E-04  0.3765E-04  0.2807E-06  0.2764E-06  0.2881E-06  0.2836E-06  0.1904E-05  0.1875E-05  0.2881E-06  0.2836E-06  0.1528E-06  0.1527E-06
     -1.150  0.8742E-02  0.8728E-02  0.7324E-04  0.7302E-04  0.9070E-04  0.9038E-04  0.7324E-04  0.7302E-04  0.7130E-06  0.7045E-06  0.7132E-06  0.7030E-06  0.3014E-05  0.2981E-05  0.7132E-06  0.7030E-06  0.3257E-06  0.3253E-06
     -1.082  0.1035E-01  0.1034E-01  0.1129E-03  0.1126E-03  0.1592E-03  0.1587E-03  0.1129E-03  0.1126E-03  0.1267E-05  0.1257E-05  0.1451E-05  0.1430E-05  0.3837E-05  0.3806E-05  0.1451E-05  0.1430E-05  0.7885E-06  0.7844E-06
     -1.013  0.1221E-01  0.1220E-01  0.1838E-03  0.1832E-03  0.2443E-03  0.2438E-03  0.1838E-03  0.1832E-03  0.2260E-05  0.2243E-05  0.2789E-05  0.2748E-05  0.5550E-05  0.5500E-05  0.2789E-05  0.2748E-05  0.1984E-05  0.1974E-05
     -0.945  0.1534E-01  0.1533E-01  0.3046E-03  0.3039E-03  0.3194E-03  0.3191E-03  0.3046E-03  0.3039E-03  0.4825E-05  0.4796E-05  0.4819E-05  0.4763E-05  0.9094E-05  0.9012E-05  0.4819E-05  0.4763E-05  0.3606E-05  0.3594E-05
     -0.876  0.1662E-01  0.1662E-01  0.3853E-03  0.3851E-03  0.3913E-03  0.3906E-03  0.3853E-03  0.3851E-03  0.7703E-05  0.7677E-05  0.7102E-05  0.7045E-05  0.1148E-04  0.1141E-04  0.7102E-05  0.7045E-05  0.4436E-05  0.4431E-05
     -0.807  0.1584E-01  0.1585E-01  0.3882E-03  0.3882E-03  0.5586E-03  0.5575E-03  0.3882E-03  0.3882E-03  0.9015E-05  0.8983E-05  0.1073E-04  0.1066E-04  0.1087E-04  0.1082E-04  0.1073E-04  0.1066E-04  0.4593E-05  0.4594E-05
     -0.739  0.1689E-01  0.1688E-01  0.4523E-03  0.4516E-03  0.7919E-03  0.7911E-03  0.4523E-03  0.4516E-03  0.1314E-04  0.1306E-04  0.1637E-04  0.1628E-04  0.1222E-04  0.1214E-04  0.1637E-04  0.1628E-04  0.5648E-05  0.5641E-05
     -0.670  0.1820E-01  0.1820E-01  0.5970E-03  0.5961E-03  0.8338E-03  0.8344E-03  0.5970E-03  0.5961E-03  0.2000E-04  0.1991E-04  0.1968E-04  0.1960E-04  0.1813E-04  0.1801E-04  0.1968E-04  0.1960E-04  0.9454E-05  0.9419E-05
     -0.602  0.1830E-01  0.1830E-01  0.7596E-03  0.7584E-03  0.7435E-03  0.7437E-03  0.7596E-03  0.7584E-03  0.2370E-04  0.2362E-04  0.2181E-04  0.2171E-04  0.2615E-04  0.2600E-04  0.2181E-04  0.2171E-04  0.1786E-04  0.1780E-04
     -0.533  0.2092E-01  0.2090E-01  0.9772E-03  0.9760E-03  0.9587E-03  0.9565E-03  0.9772E-03  0.9760E-03  0.2959E-04  0.2946E-04  0.3332E-04  0.3313E-04  0.3417E-04  0.3400E-04  0.3332E-04  0.3313E-04  0.2676E-04  0.2672E-04
     -0.464  0.2344E-01  0.2344E-01  0.1092E-02  0.1092E-02  0.1423E-02  0.1421E-02  0.1092E-02  0.1092E-02  0.3716E-04  0.3702E-04  0.4939E-04  0.4920E-04  0.3795E-04  0.3780E-04  0.4939E-04  0.4920E-04  0.2868E-04  0.2869E-04
     -0.396  0.2256E-01  0.2257E-01  0.1072E-02  0.1071E-02  0.1676E-02  0.1676E-02  0.1072E-02  0.1071E-02  0.4600E-04  0.4580E-04  0.5582E-04  0.5568E-04  0.4145E-04  0.4129E-04  0.5582E-04  0.5568E-04  0.2661E-04  0.2661E-04
     -0.327  0.2160E-01  0.2161E-01  0.1163E-02  0.1162E-02  0.1632E-02  0.1633E-02  0.1163E-02  0.1162E-02  0.6950E-04  0.6926E-04  0.5814E-04  0.5801E-04  0.4980E-04  0.4967E-04  0.5814E-04  0.5801E-04  0.2522E-04  0.2522E-04
     -0.259  0.2003E-01  0.2005E-01  0.1202E-02  0.1202E-02  0.1549E-02  0.1549E-02  0.1202E-02  0.1202E-02  0.8372E-04  0.8366E-04  0.6723E-04  0.6706E-04  0.4970E-04  0.4969E-04  0.6723E-04  0.6706E-04  0.2373E-04  0.2372E-04
     -0.190  0.1976E-01  0.1975E-01  0.1244E-02  0.1243E-02  0.1856E-02  0.1854E-02  0.1244E-02  0.1243E-02  0.7734E-04  0.7732E-04  0.9517E-04  0.9489E-04  0.4617E-04  0.4613E-04  0.9517E-04  0.9489E-04  0.3197E-04  0.3187E-04
     -0.122  0.2351E-01  0.2349E-01  0.1599E-02  0.1597E-02  0.2403E-02  0.2401E-02  0.1599E-02  0.1597E-02  0.8277E-04  0.8262E-04  0.1306E-03  0.1304E-03  0.6191E-04  0.6172E-04  0.1306E-03  0.1304E-03  0.5804E-04  0.5786E-04
     -0.053  0.2490E-01  0.2491E-01  0.1906E-02  0.1905E-02  0.2414E-02  0.2417E-02  0.1906E-02  0.1905E-02  0.9363E-04  0.9342E-04  0.1269E-03  0.1269E-03  0.9142E-04  0.9114E-04  0.1269E-03  0.1269E-03  0.8749E-04  0.8737E-04
      0.016  0.2371E-01  0.2371E-01  0.2024E-02  0.2023E-02  0.2324E-02  0.2323E-02  0.2024E-02  0.2023E-02  0.1216E-03  0.1212E-03  0.1113E-03  0.1112E-03  0.1200E-03  0.1198E-03  0.1113E-03  0.1112E-03  0.9816E-04  0.9817E-04
      0.084  0.2534E-01  0.2533E-01  0.2246E-02  0.2245E-02  0.2920E-02  0.2917E-02  0.2246E-02  0.2245E-02  0.1735E-03  0.1730E-03  0.1542E-03  0.1537E-03  0.1352E-03  0.1351E-03  0.1542E-03  0.1537E-03  0.9557E-04  0.9556E-04
      0.153  0.2776E-01  0.2776E-01  0.2562E-02  0.2561E-02  0.3449E-02  0.3449E-02  0.2562E-02  0.2561E-02  0.2202E-03  0.2198E-03  0.2186E-03  0.2182E-03  0.1396E-03  0.1395E-03  0.2186E-03  0.2182E-03  0.1015E-03  0.1015E-03
      0.221  0.2711E-01  0.2713E-01  0.2607E-02  0.2609E-02  0.3612E-02  0.3613E-02  0.2607E-02  0.2609E-02  0.2404E-03  0.2403E-03  0.2519E-03  0.2517E-03  0.1399E-03  0.1399E-03  0.2519E-03  0.2517E-03  0.1014E-03  0.1015E-03
      0.290  0.2365E-01  0.2368E-01  0.2252E-02  0.2254E-02  0.3862E-02  0.3862E-02  0.2252E-02  0.2254E-02  0.2084E-03  0.2086E-03  0.2715E-03  0.2714E-03  0.1256E-03  0.1256E-03  0.2715E-03  0.2714E-03  0.8871E-04  0.8876E-04
      0.359  0.2091E-01  0.2092E-01  0.2087E-02  0.2087E-02  0.3804E-02  0.3806E-02  0.2087E-02  0.2087E-02  0.1903E-03  0.1901E-03  0.2892E-03  0.2891E-03  0.1097E-03  0.1098E-03  0.2892E-03  0.2891E-03  0.9085E-04  0.9078E-04
      0.427  0.2022E-01  0.2022E-01  0.2239E-02  0.2238E-02  0.3726E-02  0.3726E-02  0.2239E-02  0.2238E-02  0.2336E-03  0.2331E-03  0.3105E-03  0.3103E-03  0.1117E-03  0.1116E-03  0.3105E-03  0.3103E-03  0.9812E-04  0.9807E-04
      0.496  0.2120E-01  0.2119E-01  0.2568E-02  0.2564E-02  0.4337E-02  0.4333E-02  0.2568E-02  0.2564E-02  0.3204E-03  0.3196E-03  0.3249E-03  0.3248E-03  0.1658E-03  0.1652E-03  0.3249E-03  0.3248E-03  0.1146E-03  0.1144E-03
      0.564  0.2518E-01  0.2516E-01  0.3383E-02  0.3379E-02  0.5316E-02  0.5312E-02  0.3383E-02  0.3379E-02  0.4265E-03  0.4260E-03  0.3653E-03  0.3648E-03  0.2669E-03  0.2663E-03  0.3653E-03  0.3648E-03  0.1863E-03  0.1859E-03
      0.633  0.2892E-01  0.2891E-01  0.4136E-02  0.4134E-02  0.6105E-02  0.6103E-02  0.4136E-02  0.4134E-02  0.4555E-03  0.4554E-03  0.4783E-03  0.4775E-03  0.3156E-03  0.3154E-03  0.4783E-03  0.4775E-03  0.2723E-03  0.2721E-03
      0.701  0.2871E-01  0.2872E-01  0.4227E-02  0.4228E-02  0.6655E-02  0.6654E-02  0.4227E-02  0.4228E-02  0.4346E-03  0.4345E-03  0.5893E-03  0.5888E-03  0.2965E-03  0.2965E-03  0.5893E-03  0.5888E-03  0.2963E-03  0.2964E-03
      0.770  0.2666E-01  0.2668E-01  0.4084E-02  0.4085E-02  0.7286E-02  0.7285E-02  0.4084E-02  0.4085E-02  0.4489E-03  0.4487E-03  0.6362E-03  0.6360E-03  0.2858E-03  0.2857E-03  0.6362E-03  0.6360E-03  0.2877E-03  0.2878E-03
      0.839  0.2404E-01  0.2405E-01  0.3901E-02  0.3902E-02  0.7511E-02  0.7514E-02  0.3901E-02  0.3902E-02  0.4853E-03  0.4849E-03  0.6395E-03  0.6393E-03  0.2793E-03  0.2793E-03  0.6395E-03  0.6393E-03  0.2700E-03  0.2703E-03
      0.907  0.2173E-01  0.2174E-01  0.3748E-02  0.3748E-02  0.7101E-02  0.7104E-02  0.3748E-02  0.3748E-02  0.5530E-03  0.5523E-03  0.6815E-03  0.6808E-03  0.2397E-03  0.2398E-03  0.6815E-03  0.6808E-03  0.2360E-03  0.2362E-03
      0.976  0.2174E-01  0.2174E-01  0.3996E-02  0.3994E-02  0.7109E-02  0.7108E-02  0.3996E-02  0.3994E-02  0.6678E-03  0.6669E-03  0.7966E-03  0.7958E-03  0.2313E-03  0.2313E-03  0.7966E-03  0.7958E-03  0.2379E-03  0.2378E-03
      1.044  0.2123E-01  0.2124E-01  0.4053E-02  0.4054E-02  0.8056E-02  0.8053E-02  0.4053E-02  0.4054E-02  0.7309E-03  0.7305E-03  0.9145E-03  0.9138E-03  0.2616E-03  0.2615E-03  0.9145E-03  0.9138E-03  0.2428E-03  0.2429E-03
      1.113  0.1931E-01  0.1932E-01  0.3740E-02  0.3741E-02  0.8828E-02  0.8830E-02  0.3740E-02  0.3741E-02  0.7641E-03  0.7633E-03  0.1010E-02  0.1010E-02  0.2764E-03  0.2762E-03  0.1010E-02  0.1010E-02  0.2083E-03  0.2084E-03
      1.182  0.1968E-01  0.1967E-01  0.4112E-02  0.4108E-02  0.7989E-02  0.7996E-02  0.4112E-02  0.4108E-02  0.9590E-03  0.9575E-03  0.1050E-02  0.1049E-02  0.3086E-03  0.3081E-03  0.1050E-02  0.1049E-02  0.2158E-03  0.2156E-03