   8   8   1   0
  0.1261703E+02  0.3576781E-09  0.3576781E-09  0.7889738E-09  0.5000000E-15
  1.000000000000000E-004
  CAR 
 unknown system                          
     16.79010325     -2.74426510  301      9.82089945      1.00000000
     -2.744  0.0000E+00  0.0000E+00  0.0000E+00  0.0000E+00
     -2.679  0.0000E+00  0.0000E+00  0.0000E+00  0.0000E+00
     -2.614  0.0000E+00  0.0000E+00  0.0000E+00  0.0000E+00
     -2.549  0.0000E+00  0.0000E+00  0.0000E+00  0.0000E+00
     -2.484  0.0000E+00  0.0000E+00  0.0000E+00  0.0000E+00
     -2.419  0.0000E+00  0.0000E+00  0.0000E+00  0.0000E+00
     -2.354  0.0000E+00  0.0000E+00  0.0000E+00  0.0000E+00
     -2.288  0.2290E-05  0.2018E-05  0.1491E-06  0.1314E-06
     -2.223  0.2058E-04  0.1814E-04  0.1489E-05  0.1312E-05
     -2.158  0.9100E-04  0.8019E-04  0.7415E-05  0.6534E-05
     -2.093  0.3284E-03  0.2895E-03  0.2880E-04  0.2539E-04
     -2.028  0.1191E-02  0.1051E-02  0.1064E-03  0.9384E-04
     -1.963  0.4224E-02  0.3746E-02  0.3814E-03  0.3377E-03
     -1.898  0.1366E-01  0.1227E-01  0.1271E-02  0.1136E-02
     -1.833  0.3663E-01  0.3365E-01  0.3656E-02  0.3328E-02
     -1.768  0.7432E-01  0.7033E-01  0.8495E-02  0.7907E-02
     -1.702  0.1112E+00  0.1082E+00  0.1574E-01  0.1495E-01
     -1.637  0.1350E+00  0.1329E+00  0.2453E-01  0.2361E-01
     -1.572  0.1639E+00  0.1602E+00  0.3520E-01  0.3404E-01
     -1.507  0.2040E+00  0.2006E+00  0.4848E-01  0.4710E-01
     -1.442  0.2200E+00  0.2200E+00  0.6281E-01  0.6143E-01
     -1.377  0.2184E+00  0.2178E+00  0.7704E-01  0.7562E-01
     -1.312  0.2383E+00  0.2357E+00  0.9256E-01  0.9097E-01
     -1.247  0.2551E+00  0.2544E+00  0.1092E+00  0.1076E+00
     -1.182  0.2671E+00  0.2646E+00  0.1266E+00  0.1248E+00
     -1.116  0.3118E+00  0.3069E+00  0.1469E+00  0.1448E+00
     -1.051  0.3420E+00  0.3414E+00  0.1692E+00  0.1670E+00
     -0.986  0.3340E+00  0.3351E+00  0.1909E+00  0.1888E+00
     -0.921  0.3239E+00  0.3251E+00  0.2120E+00  0.2100E+00
     -0.856  0.3076E+00  0.3086E+00  0.2321E+00  0.2301E+00
     -0.791  0.3299E+00  0.3247E+00  0.2536E+00  0.2513E+00
     -0.726  0.3899E+00  0.3853E+00  0.2790E+00  0.2764E+00
     -0.661  0.3996E+00  0.4006E+00  0.3050E+00  0.3025E+00
     -0.595  0.4026E+00  0.4001E+00  0.3312E+00  0.3286E+00
     -0.530  0.4482E+00  0.4430E+00  0.3604E+00  0.3574E+00
     -0.465  0.4806E+00  0.4797E+00  0.3917E+00  0.3887E+00
     -0.400  0.4620E+00  0.4657E+00  0.4218E+00  0.4190E+00
     -0.335  0.4143E+00  0.4185E+00  0.4488E+00  0.4463E+00
     -0.270  0.3899E+00  0.3907E+00  0.4742E+00  0.4717E+00
     -0.205  0.3994E+00  0.3966E+00  0.5003E+00  0.4976E+00
     -0.140  0.4581E+00  0.4498E+00  0.5301E+00  0.5269E+00
     -0.075  0.5549E+00  0.5459E+00  0.5663E+00  0.5625E+00
     -0.009  0.6090E+00  0.6068E+00  0.6059E+00  0.6020E+00
      0.056  0.6092E+00  0.6100E+00  0.6456E+00  0.6417E+00
      0.121  0.5906E+00  0.5932E+00  0.6841E+00  0.6804E+00
      0.186  0.5528E+00  0.5569E+00  0.7201E+00  0.7167E+00
      0.251  0.5323E+00  0.5319E+00  0.7548E+00  0.7513E+00
      0.316  0.5528E+00  0.5506E+00  0.7908E+00  0.7872E+00
      0.381  0.5547E+00  0.5556E+00  0.8269E+00  0.8234E+00
      0.446  0.5471E+00  0.5470E+00  0.8626E+00  0.8590E+00
      0.511  0.5645E+00  0.5619E+00  0.8994E+00  0.8956E+00
      0.577  0.6159E+00  0.6094E+00  0.9395E+00  0.9354E+00
      0.642  0.6585E+00  0.6585E+00  0.9824E+00  0.9782E+00
      0.707  0.5890E+00  0.5995E+00  0.1021E+01  0.1017E+01
      0.772  0.5277E+00  0.5274E+00  0.1055E+01  0.1052E+01
      0.837  0.6079E+00  0.5967E+00  0.1095E+01  0.1091E+01
      0.902  0.6890E+00  0.6852E+00  0.1140E+01  0.1135E+01
      0.967  0.6967E+00  0.6974E+00  0.1185E+01  0.1181E+01
      1.032  0.6784E+00  0.6821E+00  0.1229E+01  0.1225E+01
      1.097  0.6164E+00  0.6234E+00  0.1269E+01  0.1266E+01
      1.163  0.5766E+00  0.5776E+00  0.1307E+01  0.1303E+01
      1.228  0.5840E+00  0.5823E+00  0.1345E+01  0.1341E+01
      1.293  0.6117E+00  0.6078E+00  0.1385E+01  0.1381E+01
      1.358  0.6538E+00  0.6494E+00  0.1428E+01  0.1423E+01
      1.423  0.7215E+00  0.7123E+00  0.1475E+01  0.1470E+01
      1.488  0.8248E+00  0.8163E+00  0.1528E+01  0.1523E+01
      1.553  0.8534E+00  0.8555E+00  0.1584E+01  0.1579E+01
      1.618  0.8001E+00  0.8077E+00  0.1636E+01  0.1631E+01
      1.684  0.7141E+00  0.7230E+00  0.1683E+01  0.1678E+01
      1.749  0.6425E+00  0.6479E+00  0.1724E+01  0.1720E+01
      1.814  0.6360E+00  0.6323E+00  0.1766E+01  0.1762E+01
      1.879  0.7235E+00  0.7141E+00  0.1813E+01  0.1808E+01
      1.944  0.7569E+00  0.7603E+00  0.1862E+01  0.1858E+01
      2.009  0.7194E+00  0.7193E+00  0.1909E+01  0.1905E+01
      2.074  0.8033E+00  0.7913E+00  0.1962E+01  0.1956E+01
      2.139  0.8944E+00  0.8898E+00  0.2020E+01  0.2014E+01
      2.204  0.9224E+00  0.9187E+00  0.2080E+01  0.2074E+01
      2.270  0.9741E+00  0.9692E+00  0.2143E+01  0.2137E+01
      2.335  0.9801E+00  0.9828E+00  0.2207E+01  0.2201E+01
      2.400  0.9426E+00  0.9473E+00  0.2269E+01  0.2263E+01
      2.465  0.8852E+00  0.8911E+00  0.2326E+01  0.2321E+01
      2.530  0.8298E+00  0.8341E+00  0.2380E+01  0.2375E+01
      2.595  0.8186E+00  0.8161E+00  0.2434E+01  0.2428E+01
      2.660  0.9095E+00  0.8980E+00  0.2493E+01  0.2487E+01
      2.725  0.9712E+00  0.9726E+00  0.2556E+01  0.2550E+01
      2.790  0.9049E+00  0.9117E+00  0.2615E+01  0.2610E+01
      2.856  0.8785E+00  0.8781E+00  0.2672E+01  0.2667E+01
      2.921  0.9144E+00  0.9090E+00  0.2732E+01  0.2726E+01
      2.986  0.9697E+00  0.9674E+00  0.2795E+01  0.2789E+01
      3.051  0.8963E+00  0.9112E+00  0.2854E+01  0.2849E+01
      3.116  0.7175E+00  0.7326E+00  0.2900E+01  0.2896E+01
      3.181  0.6279E+00  0.6316E+00  0.2941E+01  0.2938E+01
      3.246  0.6509E+00  0.6446E+00  0.2984E+01  0.2980E+01
      3.311  0.7469E+00  0.7385E+00  0.3032E+01  0.3028E+01
      3.377  0.8066E+00  0.8037E+00  0.3085E+01  0.3080E+01
      3.442  0.8284E+00  0.8276E+00  0.3139E+01  0.3134E+01
      3.507  0.8301E+00  0.8320E+00  0.3193E+01  0.3188E+01
      3.572  0.7563E+00  0.7664E+00  0.3242E+01  0.3238E+01
      3.637  0.6747E+00  0.6781E+00  0.3286E+01  0.3282E+01
      3.702  0.7196E+00  0.7107E+00  0.3333E+01  0.3329E+01
      3.767  0.8548E+00  0.8422E+00  0.3389E+01  0.3384E+01
      3.832  0.9492E+00  0.9460E+00  0.3451E+01  0.3445E+01
      3.897  0.9597E+00  0.9594E+00  0.3513E+01  0.3508E+01
      3.963  0.1005E+01  0.1000E+01  0.3579E+01  0.3573E+01
      4.028  0.1032E+01  0.1031E+01  0.3646E+01  0.3640E+01
      4.093  0.1043E+01  0.1040E+01  0.3714E+01  0.3708E+01
      4.158  0.1098E+01  0.1093E+01  0.3785E+01  0.3779E+01
      4.223  0.1100E+01  0.1105E+01  0.3857E+01  0.3851E+01
      4.288  0.1006E+01  0.1015E+01  0.3923E+01  0.3917E+01
      4.353  0.9611E+00  0.9619E+00  0.3985E+01  0.3980E+01
      4.418  0.9941E+00  0.9918E+00  0.4050E+01  0.4044E+01
      4.483  0.1022E+01  0.1020E+01  0.4117E+01  0.4111E+01
      4.549  0.1078E+01  0.1071E+01  0.4187E+01  0.4181E+01
      4.614  0.1160E+01  0.1155E+01  0.4262E+01  0.4256E+01
      4.679  0.1166E+01  0.1169E+01  0.4338E+01  0.4332E+01
      4.744  0.1145E+01  0.1144E+01  0.4413E+01  0.4407E+01
      4.809  0.1235E+01  0.1226E+01  0.4493E+01  0.4486E+01
      4.874  0.1337E+01  0.1332E+01  0.4581E+01  0.4573E+01
      4.939  0.1342E+01  0.1347E+01  0.4668E+01  0.4661E+01
      5.004  0.1244E+01  0.1256E+01  0.4749E+01  0.4743E+01
      5.069  0.1114E+01  0.1122E+01  0.4822E+01  0.4816E+01
      5.135  0.1072E+01  0.1073E+01  0.4891E+01  0.4886E+01
      5.200  0.1100E+01  0.1096E+01  0.4963E+01  0.4957E+01
      5.265  0.1167E+01  0.1164E+01  0.5039E+01  0.5033E+01
      5.330  0.1187E+01  0.1188E+01  0.5117E+01  0.5110E+01
      5.395  0.1204E+01  0.1202E+01  0.5195E+01  0.5189E+01
      5.460  0.1222E+01  0.1223E+01  0.5275E+01  0.5269E+01
      5.525  0.1226E+01  0.1222E+01  0.5355E+01  0.5348E+01
      5.590  0.1340E+01  0.1328E+01  0.5442E+01  0.5435E+01
      5.656  0.1382E+01  0.1386E+01  0.5532E+01  0.5525E+01
      5.721  0.1285E+01  0.1292E+01  0.5616E+01  0.5609E+01
      5.786  0.1273E+01  0.1272E+01  0.5699E+01  0.5692E+01
      5.851  0.1258E+01  0.1263E+01  0.5781E+01  0.5774E+01
      5.916  0.1173E+01  0.1179E+01  0.5857E+01  0.5851E+01
      5.981  0.1152E+01  0.1150E+01  0.5932E+01  0.5926E+01
      6.046  0.1219E+01  0.1214E+01  0.6012E+01  0.6005E+01
      6.111  0.1239E+01  0.1243E+01  0.6092E+01  0.6086E+01
      6.176  0.1191E+01  0.1197E+01  0.6170E+01  0.6164E+01
      6.242  0.1170E+01  0.1171E+01  0.6246E+01  0.6241E+01
      6.307  0.1193E+01  0.1191E+01  0.6324E+01  0.6318E+01
      6.372  0.1223E+01  0.1221E+01  0.6403E+01  0.6398E+01
      6.437  0.1310E+01  0.1302E+01  0.6489E+01  0.6483E+01
      6.502  0.1507E+01  0.1494E+01  0.6587E+01  0.6580E+01
      6.567  0.1633E+01  0.1631E+01  0.6693E+01  0.6686E+01
      6.632  0.1597E+01  0.1603E+01  0.6797E+01  0.6791E+01
      6.697  0.1568E+01  0.1569E+01  0.6900E+01  0.6893E+01
      6.762  0.1681E+01  0.1671E+01  0.7009E+01  0.7002E+01
      6.828  0.1851E+01  0.1844E+01  0.7130E+01  0.7122E+01
      6.893  0.1828E+01  0.1839E+01  0.7249E+01  0.7242E+01
      6.958  0.1594E+01  0.1613E+01  0.7353E+01  0.7347E+01
      7.023  0.1460E+01  0.1463E+01  0.7448E+01  0.7442E+01
      7.088  0.1619E+01  0.1602E+01  0.7553E+01  0.7546E+01
      7.153  0.1944E+01  0.1927E+01  0.7680E+01  0.7672E+01
      7.218  0.2212E+01  0.2203E+01  0.7824E+01  0.7816E+01
      7.283  0.2387E+01  0.2385E+01  0.7980E+01  0.7971E+01
      7.348  0.2451E+01  0.2453E+01  0.8139E+01  0.8131E+01
      7.414  0.2440E+01  0.2446E+01  0.8298E+01  0.8290E+01
      7.479  0.2375E+01  0.2381E+01  0.8453E+01  0.8445E+01
      7.544  0.2257E+01  0.2269E+01  0.8600E+01  0.8593E+01
      7.609  0.2066E+01  0.2080E+01  0.8735E+01  0.8728E+01
      7.674  0.2048E+01  0.2053E+01  0.8868E+01  0.8862E+01
      7.739  0.2244E+01  0.2242E+01  0.9014E+01  0.9008E+01
      7.804  0.2696E+01  0.2685E+01  0.9190E+01  0.9183E+01
      7.869  0.3053E+01  0.3054E+01  0.9389E+01  0.9382E+01
      7.935  0.3068E+01  0.3077E+01  0.9589E+01  0.9583E+01
      8.000  0.3056E+01  0.3062E+01  0.9788E+01  0.9782E+01
      8.065  0.3187E+01  0.3187E+01  0.9996E+01  0.9990E+01
      8.130  0.3352E+01  0.3348E+01  0.1021E+02  0.1021E+02
      8.195  0.3439E+01  0.3438E+01  0.1044E+02  0.1043E+02
      8.260  0.3296E+01  0.3306E+01  0.1065E+02  0.1065E+02
      8.325  0.2960E+01  0.2973E+01  0.1085E+02  0.1084E+02
      8.390  0.2721E+01  0.2729E+01  0.1102E+02  0.1102E+02
      8.455  0.2759E+01  0.2764E+01  0.1120E+02  0.1120E+02
      8.521  0.2914E+01  0.2927E+01  0.1139E+02  0.1139E+02
      8.586  0.2883E+01  0.2897E+01  0.1158E+02  0.1158E+02
      8.651  0.2773E+01  0.2785E+01  0.1176E+02  0.1176E+02
      8.716  0.2717E+01  0.2730E+01  0.1194E+02  0.1194E+02
      8.781  0.2815E+01  0.2824E+01  0.1212E+02  0.1212E+02
      8.846  0.2880E+01  0.2886E+01  0.1231E+02  0.1231E+02
      8.911  0.2762E+01  0.2766E+01  0.1249E+02  0.1249E+02
      8.976  0.2440E+01  0.2444E+01  0.1265E+02  0.1265E+02
      9.041  0.2091E+01  0.2097E+01  0.1278E+02  0.1279E+02
      9.107  0.1937E+01  0.1944E+01  0.1291E+02  0.1291E+02
      9.172  0.1858E+01  0.1864E+01  0.1303E+02  0.1303E+02
      9.237  0.1788E+01  0.1792E+01  0.1315E+02  0.1315E+02
      9.302  0.1749E+01  0.1753E+01  0.1326E+02  0.1327E+02
      9.367  0.1704E+01  0.1708E+01  0.1337E+02  0.1338E+02
      9.432  0.1617E+01  0.1621E+01  0.1348E+02  0.1348E+02
      9.497  0.1520E+01  0.1525E+01  0.1358E+02  0.1358E+02
      9.562  0.1486E+01  0.1493E+01  0.1367E+02  0.1368E+02
      9.628  0.1494E+01  0.1497E+01  0.1377E+02  0.1378E+02
      9.693  0.1420E+01  0.1418E+01  0.1386E+02  0.1387E+02
      9.758  0.1221E+01  0.1207E+01  0.1394E+02  0.1395E+02
      9.823  0.8587E+00  0.8361E+00  0.1400E+02  0.1400E+02
      9.888  0.5243E+00  0.5089E+00  0.1403E+02  0.1404E+02
      9.953  0.3344E+00  0.3276E+00  0.1406E+02  0.1406E+02
     10.018  0.2855E+00  0.2840E+00  0.1408E+02  0.1408E+02
     10.083  0.3556E+00  0.3562E+00  0.1410E+02  0.1410E+02
     10.148  0.4582E+00  0.4587E+00  0.1413E+02  0.1413E+02
     10.214  0.5318E+00  0.5324E+00  0.1416E+02  0.1416E+02
     10.279  0.6128E+00  0.6132E+00  0.1420E+02  0.1420E+02
     10.344  0.8101E+00  0.8113E+00  0.1426E+02  0.1426E+02
     10.409  0.1128E+01  0.1131E+01  0.1433E+02  0.1433E+02
     10.474  0.1480E+01  0.1483E+01  0.1443E+02  0.1443E+02
     10.539  0.1827E+01  0.1830E+01  0.1454E+02  0.1455E+02
     10.604  0.2245E+01  0.2253E+01  0.1469E+02  0.1469E+02
     10.669  0.2724E+01  0.2742E+01  0.1487E+02  0.1487E+02
     10.734  0.3151E+01  0.3176E+01  0.1507E+02  0.1508E+02
     10.800  0.3662E+01  0.3695E+01  0.1531E+02  0.1532E+02
     10.865  0.4599E+01  0.4657E+01  0.1561E+02  0.1562E+02
     10.930  0.5842E+01  0.5886E+01  0.1599E+02  0.1600E+02
     10.995  0.6114E+01  0.6088E+01  0.1639E+02  0.1640E+02
     11.060  0.5126E+01  0.5059E+01  0.1672E+02  0.1673E+02
     11.125  0.3885E+01  0.3830E+01  0.1698E+02  0.1698E+02
     11.190  0.3001E+01  0.2969E+01  0.1717E+02  0.1717E+02
     11.255  0.2569E+01  0.2549E+01  0.1734E+02  0.1734E+02
     11.320  0.2437E+01  0.2419E+01  0.1750E+02  0.1750E+02
     11.386  0.2297E+01  0.2282E+01  0.1765E+02  0.1765E+02
     11.451  0.1990E+01  0.1984E+01  0.1778E+02  0.1778E+02
     11.516  0.1642E+01  0.1642E+01  0.1789E+02  0.1788E+02
     11.581  0.1441E+01  0.1442E+01  0.1798E+02  0.1798E+02
     11.646  0.1415E+01  0.1411E+01  0.1807E+02  0.1807E+02
     11.711  0.1561E+01  0.1551E+01  0.1817E+02  0.1817E+02
     11.776  0.1798E+01  0.1790E+01  0.1829E+02  0.1829E+02
     11.841  0.1840E+01  0.1842E+01  0.1841E+02  0.1841E+02
     11.907  0.1669E+01  0.1676E+01  0.1852E+02  0.1852E+02
     11.972  0.1599E+01  0.1600E+01  0.1862E+02  0.1862E+02
     12.037  0.1655E+01  0.1657E+01  0.1873E+02  0.1873E+02
     12.102  0.1724E+01  0.1730E+01  0.1884E+02  0.1884E+02
     12.167  0.1806E+01  0.1812E+01  0.1896E+02  0.1896E+02
     12.232  0.1788E+01  0.1798E+01  0.1908E+02  0.1908E+02
     12.297  0.1713E+01  0.1726E+01  0.1919E+02  0.1919E+02
     12.362  0.1869E+01  0.1878E+01  0.1931E+02  0.1931E+02
     12.427  0.2247E+01  0.2246E+01  0.1946E+02  0.1946E+02
     12.493  0.2602E+01  0.2596E+01  0.1963E+02  0.1963E+02
     12.558  0.2665E+01  0.2668E+01  0.1980E+02  0.1980E+02
     12.623  0.2281E+01  0.2289E+01  0.1995E+02  0.1995E+02
     12.688  0.1643E+01  0.1641E+01  0.2006E+02  0.2006E+02
     12.753  0.1374E+01  0.1369E+01  0.2015E+02  0.2015E+02
     12.818  0.1427E+01  0.1428E+01  0.2024E+02  0.2024E+02
     12.883  0.1439E+01  0.1455E+01  0.2033E+02  0.2033E+02
     12.948  0.1411E+01  0.1446E+01  0.2043E+02  0.2043E+02
     13.013  0.1521E+01  0.1555E+01  0.2052E+02  0.2053E+02
     13.079  0.1671E+01  0.1699E+01  0.2063E+02  0.2064E+02
     13.144  0.1767E+01  0.1806E+01  0.2075E+02  0.2076E+02
     13.209  0.1898E+01  0.1918E+01  0.2087E+02  0.2088E+02
     13.274  0.2089E+01  0.2060E+01  0.2101E+02  0.2102E+02
     13.339  0.2344E+01  0.2304E+01  0.2116E+02  0.2117E+02
     13.404  0.2541E+01  0.2507E+01  0.2133E+02  0.2133E+02
     13.469  0.2507E+01  0.2489E+01  0.2149E+02  0.2149E+02
     13.534  0.2337E+01  0.2335E+01  0.2164E+02  0.2164E+02
     13.599  0.2260E+01  0.2263E+01  0.2179E+02  0.2179E+02
     13.665  0.2356E+01  0.2352E+01  0.2194E+02  0.2195E+02
     13.730  0.2324E+01  0.2313E+01  0.2209E+02  0.2210E+02
     13.795  0.2188E+01  0.2168E+01  0.2224E+02  0.2224E+02
     13.860  0.2229E+01  0.2182E+01  0.2238E+02  0.2238E+02
     13.925  0.2193E+01  0.2145E+01  0.2252E+02  0.2252E+02
     13.990  0.1849E+01  0.1806E+01  0.2265E+02  0.2264E+02
     14.055  0.1485E+01  0.1416E+01  0.2274E+02  0.2273E+02
     14.120  0.1290E+01  0.1232E+01  0.2283E+02  0.2281E+02
     14.186  0.1192E+01  0.1223E+01  0.2290E+02  0.2289E+02
     14.251  0.1189E+01  0.1299E+01  0.2298E+02  0.2297E+02
     14.316  0.1388E+01  0.1539E+01  0.2307E+02  0.2307E+02
     14.381  0.1576E+01  0.1752E+01  0.2317E+02  0.2319E+02
     14.446  0.1541E+01  0.1642E+01  0.2327E+02  0.2330E+02
     14.511  0.1360E+01  0.1360E+01  0.2336E+02  0.2338E+02
     14.576  0.1182E+01  0.1178E+01  0.2344E+02  0.2346E+02
     14.641  0.1141E+01  0.1151E+01  0.2351E+02  0.2354E+02
     14.706  0.1218E+01  0.1175E+01  0.2359E+02  0.2361E+02
     14.772  0.1171E+01  0.1139E+01  0.2367E+02  0.2369E+02
     14.837  0.9536E+00  0.9930E+00  0.2373E+02  0.2375E+02
     14.902  0.7215E+00  0.7281E+00  0.2378E+02  0.2380E+02
     14.967  0.6112E+00  0.5096E+00  0.2382E+02  0.2383E+02
     15.032  0.5632E+00  0.4493E+00  0.2386E+02  0.2386E+02
     15.097  0.4854E+00  0.4745E+00  0.2389E+02  0.2389E+02
     15.162  0.4160E+00  0.4581E+00  0.2392E+02  0.2392E+02
     15.227  0.3934E+00  0.3972E+00  0.2394E+02  0.2395E+02
     15.292  0.3500E+00  0.3148E+00  0.2396E+02  0.2397E+02
     15.358  0.2387E+00  0.1974E+00  0.2398E+02  0.2398E+02
     15.423  0.1122E+00  0.9248E-01  0.2399E+02  0.2399E+02
     15.488  0.4081E-01  0.4447E-01  0.2399E+02  0.2399E+02
     15.553  0.1964E-01  0.3316E-01  0.2399E+02  0.2399E+02
     15.618  0.1916E-01  0.2757E-01  0.2399E+02  0.2399E+02
     15.683  0.1739E-01  0.1779E-01  0.2399E+02  0.2400E+02
     15.748  0.1537E-01  0.8766E-02  0.2399E+02  0.2400E+02
     15.813  0.2422E-01  0.7486E-02  0.2400E+02  0.2400E+02
     15.878  0.3308E-01  0.1305E-01  0.2400E+02  0.2400E+02
     15.944  0.2352E-01  0.1637E-01  0.2400E+02  0.2400E+02
     16.009  0.9584E-02  0.1027E-01  0.2400E+02  0.2400E+02
     16.074  0.2961E-02  0.3887E-02  0.2400E+02  0.2400E+02
     16.139  0.8367E-03  0.1172E-02  0.2400E+02  0.2400E+02
     16.204  0.2299E-03  0.3282E-03  0.2400E+02  0.2400E+02
     16.269  0.0000E+00  0.8996E-04  0.2400E+02  0.2400E+02
     16.334  0.0000E+00  0.0000E+00  0.2400E+02  0.2400E+02
     16.399  0.0000E+00  0.0000E+00  0.2400E+02  0.2400E+02
     16.465  0.0000E+00  0.0000E+00  0.2400E+02  0.2400E+02
     16.530  0.0000E+00  0.0000E+00  0.2400E+02  0.2400E+02
     16.595  0.0000E+00  0.0000E+00  0.2400E+02  0.2400E+02
     16.660  0.0000E+00  0.0000E+00  0.2400E+02  0.2400E+02
     16.725  0.0000E+00  0.0000E+00  0.2400E+02  0.2400E+02
     16.790  0.0000E+00  0.0000E+00  0.2400E+02  0.2400E+02
     16.79010325     -2.74426510  301      9.82089945      1.00000000
     -2.744  0.0000E+00  0.0000E+00  0.0000E+00  0.0000E+00  0.0000E+00  0.0000E+00  0.0000E+00  0.0000E+00  0.0000E+00  0.0000E+00  0.0000E+00  0.0000E+00  0.0000E+00  0.0000E+00  0.0000E+00  0.0000E+00  0.0000E+00  0.0000E+00
     -2.679  0.0000E+00  0.0000E+00  0.0000E+00  0.0000E+00  0.0000E+00  0.0000E+00  0.0000E+00  0.0000E+00  0.0000E+00  0.0000E+00  0.0000E+00  0.0000E+00  0.0000E+00  0.0000E+00  0.0000E+00  0.0000E+00  0.0000E+00  0.0000E+00
     -2.614  0.0000E+00  0.0000E+00  0.0000E+00  0.0000E+00  0.0000E+00  0.0000E+00  0.0000E+00  0.0000E+00  0.0000E+00  0.0000E+00  0.0000E+00  0.0000E+00  0.0000E+00  0.0000E+00  0.0000E+00  0.0000E+00  0.0000E+00  0.0000E+00
     -2.549  0.0000E+00  0.0000E+00  0.0000E+00  0.0000E+00  0.0000E+00  0.0000E+00  0.0000E+00  0.0000E+00  0.0000E+00  0.0000E+00  0.0000E+00  0.0000E+00  0.0000E+00  0.0000E+00  0.0000E+00  0.0000E+00  0.0000E+00  0.0000E+00
     -2.484  0.0000E+00  0.0000E+00  0.0000E+00  0.0000E+00  0.0000E+00  0.0000E+00  0.0000E+00  0.0000E+00  0.0000E+00  0.0000E+00  0.0000E+00  0.0000E+00  0.0000E+00  0.0000E+00  0.0000E+00  0.0000E+00  0.0000E+00  0.0000E+00
     -2.419  0.0000E+00  0.0000E+00  0.0000E+00  0.0000E+00  0.0000E+00  0.0000E+00  0.0000E+00  0.0000E+00  0.0000E+00  0.0000E+00  0.0000E+00  0.0000E+00  0.0000E+00  0.0000E+00  0.0000E+00  0.0000E+00  0.0000E+00  0.0000E+00
     -2.354  0.0000E+00  0.0000E+00  0.0000E+00  0.0000E+00  0.0000E+00  0.0000E+00  0.0000E+00  0.0000E+00  0.0000E+00  0.0000E+00  0.0000E+00  0.0000E+00  0.0000E+00  0.0000E+00  0.0000E+00  0.0000E+00  0.0000E+00  0.0000E+00
     -2.288  0.1722E-06  0.1519E-06  0.1418E-22  0.1625E-20  0.2672E-21  0.5786E-20  0.1418E-22  0.1625E-20  0.9539E-21  0.1108E-20  0.1825E-20  0.1160E-20  0.2492E-10  0.2271E-10  0.1825E-20  0.1160E-20  0.1841E-20  0.2381E-20
     -2.223  0.1534E-05  0.1353E-05  0.3452E-08  0.3043E-08  0.4444E-08  0.3918E-08  0.3452E-08  0.3043E-08  0.8160E-19  0.1117E-19  0.6529E-19  0.2762E-19  0.2392E-09  0.2175E-09  0.6529E-19  0.2762E-19  0.1679E-10  0.1480E-10
     -2.158  0.6751E-05  0.5953E-05  0.2479E-07  0.2185E-07  0.2777E-07  0.2449E-07  0.2479E-07  0.2185E-07  0.9864E-10  0.8725E-10  0.1088E-09  0.9632E-10  0.1101E-08  0.1001E-08  0.1088E-09  0.9632E-10  0.9077E-10  0.8002E-10
     -2.093  0.2434E-04  0.2147E-04  0.9232E-07  0.8140E-07  0.1128E-06  0.9948E-07  0.9232E-07  0.8140E-07  0.5359E-09  0.4732E-09  0.4883E-09  0.4315E-09  0.3971E-08  0.3602E-08  0.4883E-09  0.4315E-09  0.2876E-09  0.2535E-09
     -2.028  0.8824E-04  0.7795E-04  0.3379E-06  0.2980E-06  0.4310E-06  0.3802E-06  0.3379E-06  0.2980E-06  0.1697E-08  0.1499E-08  0.1907E-08  0.1691E-08  0.1442E-07  0.1310E-07  0.1907E-08  0.1691E-08  0.1278E-08  0.1127E-08
     -1.963  0.3127E-03  0.2775E-03  0.1271E-05  0.1122E-05  0.1563E-05  0.1382E-05  0.1271E-05  0.1122E-05  0.7001E-08  0.6186E-08  0.7559E-08  0.6703E-08  0.5206E-07  0.4744E-07  0.7559E-08  0.6703E-08  0.5130E-08  0.4533E-08
     -1.898  0.1010E-02  0.9079E-03  0.4460E-05  0.3960E-05  0.5369E-05  0.4779E-05  0.4460E-05  0.3960E-05  0.2621E-07  0.2320E-07  0.2706E-07  0.2406E-07  0.1712E-06  0.1577E-06  0.2706E-07  0.2406E-07  0.1776E-07  0.1578E-07
     -1.833  0.2701E-02  0.2484E-02  0.1411E-04  0.1272E-04  0.1652E-04  0.1494E-04  0.1411E-04  0.1272E-04  0.8982E-07  0.7998E-07  0.9287E-07  0.8320E-07  0.4765E-06  0.4472E-06  0.9287E-07  0.8320E-07  0.5566E-07  0.5022E-07
     -1.768  0.5453E-02  0.5167E-02  0.3594E-04  0.3326E-04  0.4160E-04  0.3842E-04  0.3594E-04  0.3326E-04  0.2797E-06  0.2533E-06  0.2794E-06  0.2550E-06  0.1031E-05  0.9916E-06  0.2794E-06  0.2550E-06  0.1421E-06  0.1311E-06
     -1.702  0.8098E-02  0.7892E-02  0.6821E-04  0.6488E-04  0.8469E-04  0.7970E-04  0.6821E-04  0.6488E-04  0.6747E-06  0.6297E-06  0.6678E-06  0.6234E-06  0.1679E-05  0.1648E-05  0.6678E-06  0.6234E-06  0.3121E-06  0.2890E-06
     -1.637  0.9715E-02  0.9583E-02  0.1073E-03  0.1028E-03  0.1468E-03  0.1400E-03  0.1073E-03  0.1028E-03  0.1214E-05  0.1155E-05  0.1355E-05  0.1279E-05  0.2344E-05  0.2291E-05  0.1355E-05  0.1279E-05  0.7573E-06  0.6914E-06
     -1.572  0.1163E-01  0.1139E-01  0.1762E-03  0.1674E-03  0.2219E-03  0.2147E-03  0.1762E-03  0.1674E-03  0.2263E-05  0.2111E-05  0.2575E-05  0.2447E-05  0.3688E-05  0.3527E-05  0.2575E-05  0.2447E-05  0.1778E-05  0.1656E-05
     -1.507  0.1431E-01  0.1409E-01  0.2800E-03  0.2704E-03  0.2896E-03  0.2837E-03  0.2800E-03  0.2704E-03  0.4579E-05  0.4319E-05  0.4362E-05  0.4199E-05  0.5978E-05  0.5780E-05  0.4362E-05  0.4199E-05  0.3038E-05  0.2940E-05
     -1.442  0.1526E-01  0.1529E-01  0.3441E-03  0.3414E-03  0.3662E-03  0.3563E-03  0.3441E-03  0.3414E-03  0.6946E-05  0.6784E-05  0.6499E-05  0.6283E-05  0.7512E-05  0.7473E-05  0.6499E-05  0.6283E-05  0.3684E-05  0.3661E-05
     -1.377  0.1488E-01  0.1488E-01  0.3579E-03  0.3557E-03  0.5252E-03  0.5060E-03  0.3579E-03  0.3557E-03  0.8513E-05  0.8316E-05  0.9942E-05  0.9555E-05  0.7824E-05  0.7803E-05  0.9942E-05  0.9555E-05  0.3984E-05  0.3941E-05
     -1.312  0.1596E-01  0.1582E-01  0.4307E-03  0.4199E-03  0.7056E-03  0.6935E-03  0.4307E-03  0.4199E-03  0.1272E-04  0.1217E-04  0.1457E-04  0.1422E-04  0.9800E-05  0.9504E-05  0.1457E-04  0.1422E-04  0.5249E-05  0.5048E-05
     -1.247  0.1689E-01  0.1687E-01  0.5621E-03  0.5488E-03  0.7198E-03  0.7262E-03  0.5621E-03  0.5488E-03  0.1830E-04  0.1788E-04  0.1718E-04  0.1710E-04  0.1438E-04  0.1389E-04  0.1718E-04  0.1710E-04  0.9084E-05  0.8560E-05
     -1.182  0.1743E-01  0.1731E-01  0.7196E-03  0.7022E-03  0.6933E-03  0.6868E-03  0.7196E-03  0.7022E-03  0.2191E-04  0.2156E-04  0.2058E-04  0.2003E-04  0.2028E-04  0.1971E-04  0.2058E-04  0.2003E-04  0.1629E-04  0.1553E-04
     -1.116  0.2000E-01  0.1973E-01  0.9038E-03  0.8886E-03  0.9387E-03  0.9032E-03  0.9038E-03  0.8886E-03  0.2788E-04  0.2723E-04  0.3160E-04  0.3038E-04  0.2610E-04  0.2568E-04  0.3160E-04  0.3038E-04  0.2256E-04  0.2221E-04
     -1.051  0.2157E-01  0.2158E-01  0.9751E-03  0.9754E-03  0.1313E-02  0.1283E-02  0.9751E-03  0.9754E-03  0.3448E-04  0.3397E-04  0.4369E-04  0.4300E-04  0.2969E-04  0.2948E-04  0.4369E-04  0.4300E-04  0.2335E-04  0.2349E-04
     -0.986  0.2070E-01  0.2081E-01  0.9820E-03  0.9777E-03  0.1473E-02  0.1470E-02  0.9820E-03  0.9777E-03  0.4530E-04  0.4381E-04  0.4826E-04  0.4822E-04  0.3428E-04  0.3379E-04  0.4826E-04  0.4822E-04  0.2195E-04  0.2209E-04
     -0.921  0.1978E-01  0.1990E-01  0.1064E-02  0.1057E-02  0.1421E-02  0.1430E-02  0.1064E-02  0.1057E-02  0.6536E-04  0.6376E-04  0.5175E-04  0.5140E-04  0.3948E-04  0.3933E-04  0.5175E-04  0.5140E-04  0.2087E-04  0.2102E-04
     -0.856  0.1845E-01  0.1857E-01  0.1089E-02  0.1088E-02  0.1428E-02  0.1414E-02  0.1089E-02  0.1088E-02  0.7255E-04  0.7299E-04  0.6350E-04  0.6191E-04  0.3814E-04  0.3855E-04  0.6350E-04  0.6191E-04  0.2140E-04  0.2110E-04
     -0.791  0.1931E-01  0.1906E-01  0.1206E-02  0.1182E-02  0.1782E-02  0.1736E-02  0.1206E-02  0.1182E-02  0.6955E-04  0.6970E-04  0.9032E-04  0.8757E-04  0.4009E-04  0.3938E-04  0.9032E-04  0.8757E-04  0.3242E-04  0.3076E-04
     -0.726  0.2245E-01  0.2222E-01  0.1536E-02  0.1505E-02  0.2153E-02  0.2136E-02  0.1536E-02  0.1505E-02  0.7693E-04  0.7627E-04  0.1127E-03  0.1123E-03  0.5659E-04  0.5462E-04  0.1127E-03  0.1123E-03  0.5579E-04  0.5342E-04
     -0.661  0.2270E-01  0.2281E-01  0.1750E-02  0.1738E-02  0.2092E-02  0.2106E-02  0.1750E-02  0.1738E-02  0.8958E-04  0.8804E-04  0.1035E-03  0.1054E-03  0.8006E-04  0.7792E-04  0.1035E-03  0.1054E-03  0.7628E-04  0.7507E-04
     -0.595  0.2236E-01  0.2230E-01  0.1880E-02  0.1864E-02  0.2210E-02  0.2173E-02  0.1880E-02  0.1864E-02  0.1218E-03  0.1180E-03  0.1051E-03  0.1030E-03  0.1004E-03  0.9906E-04  0.1051E-03  0.1030E-03  0.8100E-04  0.8123E-04
     -0.530  0.2432E-01  0.2410E-01  0.2119E-02  0.2092E-02  0.2757E-02  0.2705E-02  0.2119E-02  0.2092E-02  0.1673E-03  0.1635E-03  0.1512E-03  0.1459E-03  0.1096E-03  0.1094E-03  0.1512E-03  0.1459E-03  0.8086E-04  0.8071E-04
     -0.465  0.2565E-01  0.2567E-01  0.2341E-02  0.2331E-02  0.3079E-02  0.3064E-02  0.2341E-02  0.2331E-02  0.2020E-03  0.2001E-03  0.1971E-03  0.1941E-03  0.1123E-03  0.1125E-03  0.1971E-03  0.1941E-03  0.8557E-04  0.8546E-04
     -0.400  0.2412E-01  0.2440E-01  0.2253E-02  0.2278E-02  0.3265E-02  0.3244E-02  0.2253E-02  0.2278E-02  0.2053E-03  0.2076E-03  0.2215E-03  0.2200E-03  0.1101E-03  0.1112E-03  0.2215E-03  0.2200E-03  0.8087E-04  0.8199E-04
     -0.335  0.2095E-01  0.2125E-01  0.1962E-02  0.1984E-02  0.3416E-02  0.3414E-02  0.1962E-02  0.1984E-02  0.1764E-03  0.1792E-03  0.2373E-03  0.2363E-03  0.9879E-04  0.1004E-03  0.2373E-03  0.2363E-03  0.7391E-04  0.7421E-04
     -0.270  0.1921E-01  0.1932E-01  0.1947E-02  0.1936E-02  0.3321E-02  0.3332E-02  0.1947E-02  0.1936E-02  0.1823E-03  0.1799E-03  0.2536E-03  0.2523E-03  0.9053E-04  0.9112E-04  0.2536E-03  0.2523E-03  0.7917E-04  0.7864E-04
     -0.205  0.1908E-01  0.1904E-01  0.2131E-02  0.2106E-02  0.3486E-02  0.3442E-02  0.2131E-02  0.2106E-02  0.2342E-03  0.2281E-03  0.2710E-03  0.2697E-03  0.1056E-03  0.1025E-03  0.2710E-03  0.2697E-03  0.8668E-04  0.8581E-04
     -0.140  0.2104E-01  0.2074E-01  0.2594E-02  0.2529E-02  0.4183E-02  0.4102E-02  0.2594E-02  0.2529E-02  0.3202E-03  0.3118E-03  0.2890E-03  0.2865E-03  0.1677E-03  0.1604E-03  0.2890E-03  0.2865E-03  0.1178E-03  0.1129E-03
     -0.075  0.2492E-01  0.2458E-01  0.3367E-02  0.3297E-02  0.4979E-02  0.4909E-02  0.3367E-02  0.3297E-02  0.3928E-03  0.3898E-03  0.3479E-03  0.3397E-03  0.2372E-03  0.2331E-03  0.3479E-03  0.3397E-03  0.1872E-03  0.1803E-03
     -0.009  0.2683E-01  0.2682E-01  0.3797E-02  0.3782E-02  0.5565E-02  0.5516E-02  0.3797E-02  0.3782E-02  0.3938E-03  0.3964E-03  0.4480E-03  0.4389E-03  0.2505E-03  0.2522E-03  0.4480E-03  0.4389E-03  0.2385E-03  0.2362E-03
      0.056  0.2582E-01  0.2601E-01  0.3774E-02  0.3785E-02  0.6101E-02  0.6043E-02  0.3774E-02  0.3785E-02  0.3903E-03  0.3900E-03  0.5215E-03  0.5174E-03  0.2358E-03  0.2376E-03  0.5215E-03  0.5174E-03  0.2437E-03  0.2447E-03
      0.121  0.2374E-01  0.2399E-01  0.3642E-02  0.3658E-02  0.6568E-02  0.6540E-02  0.3642E-02  0.3658E-02  0.4118E-03  0.4098E-03  0.5439E-03  0.5439E-03  0.2322E-03  0.2333E-03  0.5439E-03  0.5439E-03  0.2356E-03  0.2372E-03
      0.186  0.2128E-01  0.2153E-01  0.3464E-02  0.3482E-02  0.6477E-02  0.6512E-02  0.3464E-02  0.3482E-02  0.4541E-03  0.4497E-03  0.5560E-03  0.5538E-03  0.2140E-03  0.2179E-03  0.5560E-03  0.5538E-03  0.2135E-03  0.2167E-03
      0.251  0.2003E-01  0.2007E-01  0.3473E-02  0.3456E-02  0.6181E-02  0.6194E-02  0.3473E-02  0.3456E-02  0.5316E-03  0.5231E-03  0.6202E-03  0.6118E-03  0.1857E-03  0.1877E-03  0.6202E-03  0.6118E-03  0.1951E-03  0.1958E-03
      0.316  0.2012E-01  0.2016E-01  0.3696E-02  0.3686E-02  0.6535E-02  0.6465E-02  0.3696E-02  0.3686E-02  0.6225E-03  0.6173E-03  0.7191E-03  0.7102E-03  0.1961E-03  0.1943E-03  0.7191E-03  0.7102E-03  0.2028E-03  0.2026E-03
      0.381  0.1882E-01  0.1900E-01  0.3544E-02  0.3572E-02  0.7403E-02  0.7327E-02  0.3544E-02  0.3572E-02  0.6537E-03  0.6527E-03  0.8096E-03  0.8019E-03  0.2172E-03  0.2162E-03  0.8096E-03  0.8019E-03  0.1894E-03  0.1925E-03
      0.446  0.1793E-01  0.1793E-01  0.3510E-02  0.3484E-02  0.7517E-02  0.7575E-02  0.3510E-02  0.3484E-02  0.7419E-03  0.7280E-03  0.8764E-03  0.8730E-03  0.2373E-03  0.2354E-03  0.8764E-03  0.8730E-03  0.1740E-03  0.1740E-03
      0.511  0.1908E-01  0.1896E-01  0.4098E-02  0.4031E-02  0.6688E-02  0.6764E-02  0.4098E-02  0.4031E-02  0.9113E-03  0.9005E-03  0.9259E-03  0.9196E-03  0.2622E-03  0.2613E-03  0.9259E-03  0.9196E-03  0.2142E-03  0.2080E-03