   8   8   1   0
  0.1958684E+02  0.4141536E-09  0.4141536E-09  0.9135486E-09  0.5000000E-15
  1.000000000000000E-004
  CAR 
 unknown system                          
     10.16264301     -4.24137861  301      5.57931432      1.00000000
     -4.241  0.0000E+00  0.0000E+00  0.0000E+00  0.0000E+00
     -4.193  0.0000E+00  0.0000E+00  0.0000E+00  0.0000E+00
     -4.145  0.0000E+00  0.0000E+00  0.0000E+00  0.0000E+00
     -4.097  0.0000E+00  0.0000E+00  0.0000E+00  0.0000E+00
     -4.049  0.0000E+00  0.0000E+00  0.0000E+00  0.0000E+00
     -4.001  0.4404E-05  0.4332E-05  0.2114E-06  0.2080E-06
     -3.953  0.3479E-04  0.3422E-04  0.1882E-05  0.1851E-05
     -3.905  0.1206E-03  0.1186E-03  0.7671E-05  0.7546E-05
     -3.857  0.3055E-03  0.3005E-03  0.2234E-04  0.2197E-04
     -3.809  0.7941E-03  0.7812E-03  0.6047E-04  0.5948E-04
     -3.761  0.2100E-02  0.2066E-02  0.1613E-03  0.1587E-03
     -3.713  0.5336E-02  0.5252E-02  0.4175E-03  0.4108E-03
     -3.665  0.1312E-01  0.1292E-01  0.1047E-02  0.1031E-02
     -3.617  0.3017E-01  0.2977E-01  0.2496E-02  0.2461E-02
     -3.569  0.6105E-01  0.6040E-01  0.5427E-02  0.5360E-02
     -3.521  0.1041E+00  0.1033E+00  0.1042E-01  0.1032E-01
     -3.473  0.1486E+00  0.1479E+00  0.1756E-01  0.1742E-01
     -3.425  0.1880E+00  0.1873E+00  0.2658E-01  0.2641E-01
     -3.377  0.2284E+00  0.2277E+00  0.3755E-01  0.3734E-01
     -3.329  0.2682E+00  0.2676E+00  0.5043E-01  0.5019E-01
     -3.281  0.2927E+00  0.2924E+00  0.6448E-01  0.6423E-01
     -3.233  0.3078E+00  0.3074E+00  0.7925E-01  0.7899E-01
     -3.185  0.3290E+00  0.3287E+00  0.9505E-01  0.9477E-01
     -3.137  0.3520E+00  0.3516E+00  0.1120E+00  0.1117E+00
     -3.089  0.3807E+00  0.3801E+00  0.1302E+00  0.1299E+00
     -3.041  0.4204E+00  0.4197E+00  0.1504E+00  0.1501E+00
     -2.993  0.4461E+00  0.4458E+00  0.1718E+00  0.1715E+00
     -2.945  0.4474E+00  0.4475E+00  0.1933E+00  0.1930E+00
     -2.897  0.4406E+00  0.4407E+00  0.2145E+00  0.2141E+00
     -2.849  0.4417E+00  0.4414E+00  0.2357E+00  0.2353E+00
     -2.801  0.4717E+00  0.4709E+00  0.2584E+00  0.2580E+00
     -2.753  0.5159E+00  0.5153E+00  0.2832E+00  0.2827E+00
     -2.705  0.5404E+00  0.5401E+00  0.3091E+00  0.3086E+00
     -2.657  0.5625E+00  0.5619E+00  0.3361E+00  0.3356E+00
     -2.609  0.5979E+00  0.5973E+00  0.3649E+00  0.3643E+00
     -2.561  0.6183E+00  0.6182E+00  0.3945E+00  0.3940E+00
     -2.513  0.6027E+00  0.6032E+00  0.4235E+00  0.4230E+00
     -2.465  0.5696E+00  0.5701E+00  0.4509E+00  0.4504E+00
     -2.417  0.5548E+00  0.5548E+00  0.4775E+00  0.4770E+00
     -2.369  0.5790E+00  0.5781E+00  0.5053E+00  0.5048E+00
     -2.321  0.6462E+00  0.6446E+00  0.5364E+00  0.5358E+00
     -2.273  0.7300E+00  0.7286E+00  0.5714E+00  0.5708E+00
     -2.225  0.7848E+00  0.7842E+00  0.6091E+00  0.6084E+00
     -2.177  0.7974E+00  0.7974E+00  0.6474E+00  0.6467E+00
     -2.129  0.7783E+00  0.7789E+00  0.6848E+00  0.6842E+00
     -2.081  0.7429E+00  0.7434E+00  0.7205E+00  0.7199E+00
     -2.033  0.7234E+00  0.7235E+00  0.7552E+00  0.7546E+00
     -1.985  0.7287E+00  0.7285E+00  0.7902E+00  0.7896E+00
     -1.937  0.7313E+00  0.7313E+00  0.8254E+00  0.8247E+00
     -1.889  0.7360E+00  0.7357E+00  0.8607E+00  0.8601E+00
     -1.841  0.7637E+00  0.7629E+00  0.8974E+00  0.8967E+00
     -1.793  0.8103E+00  0.8094E+00  0.9363E+00  0.9356E+00
     -1.745  0.8381E+00  0.8380E+00  0.9766E+00  0.9759E+00
     -1.697  0.8030E+00  0.8041E+00  0.1015E+01  0.1014E+01
     -1.649  0.7595E+00  0.7597E+00  0.1052E+01  0.1051E+01
     -1.601  0.7890E+00  0.7878E+00  0.1090E+01  0.1089E+01
     -1.553  0.8564E+00  0.8553E+00  0.1131E+01  0.1130E+01
     -1.505  0.8919E+00  0.8917E+00  0.1174E+01  0.1173E+01
     -1.457  0.8775E+00  0.8781E+00  0.1216E+01  0.1215E+01
     -1.409  0.8378E+00  0.8384E+00  0.1256E+01  0.1255E+01
     -1.361  0.8209E+00  0.8207E+00  0.1295E+01  0.1295E+01
     -1.313  0.8254E+00  0.8251E+00  0.1335E+01  0.1334E+01
     -1.265  0.8351E+00  0.8345E+00  0.1375E+01  0.1374E+01
     -1.217  0.8846E+00  0.8831E+00  0.1418E+01  0.1417E+01
     -1.169  0.9636E+00  0.9621E+00  0.1464E+01  0.1463E+01
     -1.121  0.1000E+01  0.1000E+01  0.1512E+01  0.1511E+01
     -1.072  0.9921E+00  0.9924E+00  0.1560E+01  0.1559E+01
     -1.024  0.9805E+00  0.9810E+00  0.1607E+01  0.1606E+01
     -0.976  0.9292E+00  0.9308E+00  0.1651E+01  0.1651E+01
     -0.928  0.8322E+00  0.8341E+00  0.1691E+01  0.1691E+01
     -0.880  0.7615E+00  0.7622E+00  0.1728E+01  0.1727E+01
     -0.832  0.7734E+00  0.7725E+00  0.1765E+01  0.1764E+01
     -0.784  0.8490E+00  0.8478E+00  0.1806E+01  0.1805E+01
     -0.736  0.8985E+00  0.8983E+00  0.1849E+01  0.1848E+01
     -0.688  0.9211E+00  0.9207E+00  0.1893E+01  0.1892E+01
     -0.640  0.9723E+00  0.9710E+00  0.1940E+01  0.1939E+01
     -0.592  0.1081E+01  0.1078E+01  0.1992E+01  0.1991E+01
     -0.544  0.1224E+01  0.1222E+01  0.2051E+01  0.2050E+01
     -0.496  0.1290E+01  0.1290E+01  0.2113E+01  0.2112E+01
     -0.448  0.1227E+01  0.1229E+01  0.2172E+01  0.2171E+01
     -0.400  0.1141E+01  0.1142E+01  0.2226E+01  0.2225E+01
     -0.352  0.1105E+01  0.1105E+01  0.2279E+01  0.2279E+01
     -0.304  0.1081E+01  0.1082E+01  0.2331E+01  0.2331E+01
     -0.256  0.1035E+01  0.1036E+01  0.2381E+01  0.2380E+01
     -0.208  0.1019E+01  0.1019E+01  0.2430E+01  0.2429E+01
     -0.160  0.1087E+01  0.1085E+01  0.2482E+01  0.2481E+01
     -0.112  0.1158E+01  0.1158E+01  0.2538E+01  0.2537E+01
     -0.064  0.1132E+01  0.1133E+01  0.2592E+01  0.2591E+01
     -0.016  0.1058E+01  0.1059E+01  0.2643E+01  0.2642E+01
      0.032  0.1033E+01  0.1033E+01  0.2693E+01  0.2692E+01
      0.080  0.1064E+01  0.1064E+01  0.2744E+01  0.2743E+01
      0.128  0.1108E+01  0.1108E+01  0.2797E+01  0.2796E+01
      0.176  0.1078E+01  0.1079E+01  0.2849E+01  0.2848E+01
      0.224  0.9583E+00  0.9606E+00  0.2895E+01  0.2894E+01
      0.272  0.8558E+00  0.8570E+00  0.2936E+01  0.2935E+01
      0.320  0.8466E+00  0.8462E+00  0.2977E+01  0.2976E+01
      0.368  0.9229E+00  0.9217E+00  0.3021E+01  0.3020E+01
      0.416  0.9986E+00  0.9983E+00  0.3069E+01  0.3068E+01
      0.464  0.1011E+01  0.1012E+01  0.3118E+01  0.3117E+01
      0.512  0.1005E+01  0.1006E+01  0.3166E+01  0.3165E+01
      0.560  0.9886E+00  0.9893E+00  0.3213E+01  0.3213E+01
      0.608  0.9492E+00  0.9497E+00  0.3259E+01  0.3258E+01
      0.656  0.9645E+00  0.9638E+00  0.3305E+01  0.3305E+01
      0.704  0.1064E+01  0.1062E+01  0.3356E+01  0.3356E+01
      0.752  0.1209E+01  0.1207E+01  0.3415E+01  0.3414E+01
      0.800  0.1355E+01  0.1354E+01  0.3480E+01  0.3479E+01
      0.848  0.1459E+01  0.1458E+01  0.3550E+01  0.3549E+01
      0.896  0.1531E+01  0.1530E+01  0.3623E+01  0.3622E+01
      0.944  0.1572E+01  0.1572E+01  0.3699E+01  0.3698E+01
      0.992  0.1554E+01  0.1555E+01  0.3773E+01  0.3772E+01
      1.040  0.1479E+01  0.1481E+01  0.3844E+01  0.3844E+01
      1.088  0.1386E+01  0.1387E+01  0.3911E+01  0.3910E+01
      1.136  0.1321E+01  0.1322E+01  0.3974E+01  0.3974E+01
      1.184  0.1260E+01  0.1261E+01  0.4035E+01  0.4034E+01
      1.232  0.1193E+01  0.1194E+01  0.4092E+01  0.4092E+01
      1.280  0.1167E+01  0.1168E+01  0.4148E+01  0.4148E+01
      1.328  0.1192E+01  0.1192E+01  0.4206E+01  0.4205E+01
      1.376  0.1258E+01  0.1257E+01  0.4266E+01  0.4265E+01
      1.424  0.1386E+01  0.1384E+01  0.4333E+01  0.4332E+01
      1.472  0.1528E+01  0.1527E+01  0.4406E+01  0.4405E+01
      1.520  0.1586E+01  0.1586E+01  0.4482E+01  0.4481E+01
      1.568  0.1527E+01  0.1528E+01  0.4556E+01  0.4555E+01
      1.616  0.1387E+01  0.1388E+01  0.4622E+01  0.4621E+01
      1.664  0.1271E+01  0.1272E+01  0.4683E+01  0.4683E+01
      1.712  0.1207E+01  0.1209E+01  0.4741E+01  0.4741E+01
      1.760  0.1157E+01  0.1158E+01  0.4797E+01  0.4796E+01
      1.808  0.1153E+01  0.1153E+01  0.4852E+01  0.4852E+01
      1.856  0.1208E+01  0.1208E+01  0.4910E+01  0.4910E+01
      1.904  0.1238E+01  0.1239E+01  0.4970E+01  0.4969E+01
      1.952  0.1234E+01  0.1234E+01  0.5029E+01  0.5029E+01
      2.000  0.1270E+01  0.1270E+01  0.5090E+01  0.5090E+01
      2.048  0.1348E+01  0.1347E+01  0.5155E+01  0.5154E+01
      2.096  0.1399E+01  0.1399E+01  0.5222E+01  0.5221E+01
      2.144  0.1348E+01  0.1349E+01  0.5287E+01  0.5286E+01
      2.192  0.1220E+01  0.1222E+01  0.5345E+01  0.5345E+01
      2.240  0.1138E+01  0.1138E+01  0.5400E+01  0.5400E+01
      2.288  0.1176E+01  0.1176E+01  0.5457E+01  0.5456E+01
      2.336  0.1344E+01  0.1342E+01  0.5521E+01  0.5521E+01
      2.384  0.1613E+01  0.1611E+01  0.5599E+01  0.5598E+01
      2.432  0.1845E+01  0.1844E+01  0.5687E+01  0.5687E+01
      2.480  0.1876E+01  0.1876E+01  0.5777E+01  0.5777E+01
      2.529  0.1729E+01  0.1731E+01  0.5861E+01  0.5860E+01
      2.577  0.1537E+01  0.1539E+01  0.5934E+01  0.5934E+01
      2.625  0.1398E+01  0.1399E+01  0.6001E+01  0.6001E+01
      2.673  0.1361E+01  0.1361E+01  0.6067E+01  0.6066E+01
      2.721  0.1432E+01  0.1431E+01  0.6136E+01  0.6135E+01
      2.769  0.1558E+01  0.1558E+01  0.6210E+01  0.6210E+01
      2.817  0.1650E+01  0.1650E+01  0.6290E+01  0.6289E+01
      2.865  0.1708E+01  0.1708E+01  0.6372E+01  0.6371E+01
      2.913  0.1786E+01  0.1788E+01  0.6458E+01  0.6457E+01
      2.961  0.1914E+01  0.1915E+01  0.6550E+01  0.6549E+01
      3.009  0.2109E+01  0.2110E+01  0.6651E+01  0.6650E+01
      3.057  0.2251E+01  0.2252E+01  0.6759E+01  0.6759E+01
      3.105  0.2215E+01  0.2216E+01  0.6865E+01  0.6865E+01
      3.153  0.2069E+01  0.2071E+01  0.6965E+01  0.6965E+01
      3.201  0.1898E+01  0.1900E+01  0.7056E+01  0.7056E+01
      3.249  0.1734E+01  0.1735E+01  0.7139E+01  0.7139E+01
      3.297  0.1620E+01  0.1621E+01  0.7217E+01  0.7217E+01
      3.345  0.1583E+01  0.1584E+01  0.7293E+01  0.7293E+01
      3.393  0.1607E+01  0.1608E+01  0.7370E+01  0.7370E+01
      3.441  0.1665E+01  0.1666E+01  0.7450E+01  0.7450E+01
      3.489  0.1799E+01  0.1801E+01  0.7537E+01  0.7537E+01
      3.537  0.2005E+01  0.2007E+01  0.7633E+01  0.7633E+01
      3.585  0.2207E+01  0.2209E+01  0.7739E+01  0.7740E+01
      3.633  0.2367E+01  0.2369E+01  0.7853E+01  0.7853E+01
      3.681  0.2484E+01  0.2486E+01  0.7972E+01  0.7973E+01
      3.729  0.2608E+01  0.2610E+01  0.8097E+01  0.8098E+01
      3.777  0.2725E+01  0.2728E+01  0.8228E+01  0.8229E+01
      3.825  0.2737E+01  0.2740E+01  0.8360E+01  0.8361E+01
      3.873  0.2630E+01  0.2634E+01  0.8486E+01  0.8487E+01
      3.921  0.2491E+01  0.2494E+01  0.8606E+01  0.8607E+01
      3.969  0.2434E+01  0.2440E+01  0.8723E+01  0.8724E+01
      4.017  0.2570E+01  0.2578E+01  0.8846E+01  0.8848E+01
      4.065  0.2878E+01  0.2890E+01  0.8984E+01  0.8987E+01
      4.113  0.3209E+01  0.3221E+01  0.9139E+01  0.9142E+01
      4.161  0.3435E+01  0.3445E+01  0.9304E+01  0.9307E+01
      4.209  0.3527E+01  0.3536E+01  0.9473E+01  0.9477E+01
      4.257  0.3601E+01  0.3610E+01  0.9646E+01  0.9650E+01
      4.305  0.3827E+01  0.3840E+01  0.9830E+01  0.9835E+01
      4.353  0.4165E+01  0.4181E+01  0.1003E+02  0.1004E+02
      4.401  0.4337E+01  0.4349E+01  0.1024E+02  0.1024E+02
      4.449  0.4244E+01  0.4252E+01  0.1044E+02  0.1045E+02
      4.497  0.4052E+01  0.4055E+01  0.1064E+02  0.1064E+02
      4.545  0.3831E+01  0.3828E+01  0.1082E+02  0.1083E+02
      4.593  0.3572E+01  0.3568E+01  0.1099E+02  0.1100E+02
      4.641  0.3394E+01  0.3397E+01  0.1116E+02  0.1116E+02
      4.689  0.3395E+01  0.3406E+01  0.1132E+02  0.1133E+02
      4.737  0.3516E+01  0.3530E+01  0.1149E+02  0.1150E+02
      4.785  0.3621E+01  0.3631E+01  0.1166E+02  0.1167E+02
      4.833  0.3665E+01  0.3675E+01  0.1184E+02  0.1185E+02
      4.881  0.3793E+01  0.3812E+01  0.1202E+02  0.1203E+02
      4.929  0.4028E+01  0.4051E+01  0.1221E+02  0.1222E+02
      4.977  0.4157E+01  0.4169E+01  0.1241E+02  0.1242E+02
      5.025  0.3982E+01  0.3979E+01  0.1260E+02  0.1262E+02
      5.073  0.3567E+01  0.3558E+01  0.1278E+02  0.1279E+02
      5.121  0.3156E+01  0.3158E+01  0.1293E+02  0.1294E+02
      5.169  0.2889E+01  0.2912E+01  0.1307E+02  0.1308E+02
      5.217  0.2764E+01  0.2803E+01  0.1320E+02  0.1321E+02
      5.265  0.2698E+01  0.2736E+01  0.1333E+02  0.1334E+02
      5.313  0.2617E+01  0.2641E+01  0.1345E+02  0.1347E+02
      5.361  0.2501E+01  0.2510E+01  0.1357E+02  0.1359E+02
      5.409  0.2359E+01  0.2357E+01  0.1369E+02  0.1370E+02
      5.457  0.2167E+01  0.2153E+01  0.1379E+02  0.1381E+02
      5.505  0.1905E+01  0.1878E+01  0.1388E+02  0.1390E+02
      5.553  0.1584E+01  0.1546E+01  0.1396E+02  0.1397E+02
      5.601  0.1252E+01  0.1213E+01  0.1402E+02  0.1403E+02
      5.649  0.1035E+01  0.1011E+01  0.1407E+02  0.1408E+02
      5.697  0.1049E+01  0.1048E+01  0.1412E+02  0.1413E+02
      5.745  0.1307E+01  0.1322E+01  0.1418E+02  0.1419E+02
      5.793  0.1794E+01  0.1824E+01  0.1427E+02  0.1428E+02
      5.841  0.2538E+01  0.2585E+01  0.1439E+02  0.1441E+02
      5.889  0.3540E+01  0.3603E+01  0.1456E+02  0.1458E+02
      5.937  0.4814E+01  0.4898E+01  0.1479E+02  0.1481E+02
      5.985  0.6372E+01  0.6469E+01  0.1510E+02  0.1512E+02
      6.033  0.7877E+01  0.7950E+01  0.1548E+02  0.1551E+02
      6.082  0.8614E+01  0.8616E+01  0.1589E+02  0.1592E+02
      6.130  0.8156E+01  0.8090E+01  0.1628E+02  0.1631E+02
      6.178  0.6796E+01  0.6699E+01  0.1661E+02  0.1663E+02
      6.226  0.5131E+01  0.5042E+01  0.1685E+02  0.1687E+02
      6.274  0.3731E+01  0.3672E+01  0.1703E+02  0.1705E+02
      6.322  0.2876E+01  0.2849E+01  0.1717E+02  0.1719E+02
      6.370  0.2519E+01  0.2516E+01  0.1729E+02  0.1731E+02
      6.418  0.2506E+01  0.2518E+01  0.1741E+02  0.1743E+02
      6.466  0.2607E+01  0.2617E+01  0.1754E+02  0.1755E+02
      6.514  0.2707E+01  0.2715E+01  0.1767E+02  0.1768E+02
      6.562  0.2927E+01  0.2947E+01  0.1781E+02  0.1783E+02
      6.610  0.3397E+01  0.3429E+01  0.1797E+02  0.1799E+02
      6.658  0.3968E+01  0.3999E+01  0.1816E+02  0.1818E+02
      6.706  0.4375E+01  0.4401E+01  0.1837E+02  0.1839E+02
      6.754  0.4568E+01  0.4600E+01  0.1859E+02  0.1861E+02
      6.802  0.4624E+01  0.4661E+01  0.1881E+02  0.1884E+02
      6.850  0.4526E+01  0.4544E+01  0.1903E+02  0.1906E+02
      6.898  0.4308E+01  0.4296E+01  0.1924E+02  0.1926E+02
      6.946  0.4103E+01  0.4063E+01  0.1944E+02  0.1946E+02
      6.994  0.3896E+01  0.3839E+01  0.1962E+02  0.1964E+02
      7.042  0.3624E+01  0.3578E+01  0.1980E+02  0.1981E+02
      7.090  0.3365E+01  0.3348E+01  0.1996E+02  0.1998E+02
      7.138  0.3159E+01  0.3152E+01  0.2011E+02  0.2013E+02
      7.186  0.2928E+01  0.2918E+01  0.2025E+02  0.2027E+02
      7.234  0.2670E+01  0.2670E+01  0.2038E+02  0.2040E+02
      7.282  0.2491E+01  0.2521E+01  0.2050E+02  0.2052E+02
      7.330  0.2483E+01  0.2547E+01  0.2062E+02  0.2064E+02
      7.378  0.2604E+01  0.2680E+01  0.2074E+02  0.2077E+02
      7.426  0.2719E+01  0.2778E+01  0.2087E+02  0.2090E+02
      7.474  0.2802E+01  0.2834E+01  0.2101E+02  0.2104E+02
      7.522  0.2875E+01  0.2888E+01  0.2115E+02  0.2118E+02
      7.570  0.2876E+01  0.2880E+01  0.2129E+02  0.2131E+02
      7.618  0.2804E+01  0.2805E+01  0.2142E+02  0.2145E+02
      7.666  0.2709E+01  0.2714E+01  0.2155E+02  0.2158E+02
      7.714  0.2648E+01  0.2659E+01  0.2168E+02  0.2171E+02
      7.762  0.2653E+01  0.2662E+01  0.2181E+02  0.2184E+02
      7.810  0.2656E+01  0.2656E+01  0.2193E+02  0.2196E+02
      7.858  0.2619E+01  0.2618E+01  0.2206E+02  0.2209E+02
      7.906  0.2559E+01  0.2568E+01  0.2218E+02  0.2221E+02
      7.954  0.2497E+01  0.2526E+01  0.2230E+02  0.2233E+02
      8.002  0.2413E+01  0.2457E+01  0.2242E+02  0.2245E+02
      8.050  0.2266E+01  0.2308E+01  0.2253E+02  0.2256E+02
      8.098  0.2101E+01  0.2128E+01  0.2263E+02  0.2266E+02
      8.146  0.2001E+01  0.2012E+01  0.2272E+02  0.2276E+02
      8.194  0.2003E+01  0.1984E+01  0.2282E+02  0.2286E+02
      8.242  0.2009E+01  0.1936E+01  0.2292E+02  0.2295E+02
      8.290  0.1882E+01  0.1787E+01  0.2301E+02  0.2304E+02
      8.338  0.1700E+01  0.1617E+01  0.2309E+02  0.2311E+02
      8.386  0.1599E+01  0.1525E+01  0.2317E+02  0.2319E+02
      8.434  0.1575E+01  0.1520E+01  0.2324E+02  0.2326E+02
      8.482  0.1592E+01  0.1576E+01  0.2332E+02  0.2334E+02
      8.530  0.1596E+01  0.1621E+01  0.2339E+02  0.2341E+02
      8.578  0.1525E+01  0.1574E+01  0.2347E+02  0.2349E+02
      8.626  0.1392E+01  0.1427E+01  0.2353E+02  0.2356E+02
      8.674  0.1267E+01  0.1254E+01  0.2360E+02  0.2362E+02
      8.722  0.1194E+01  0.1138E+01  0.2365E+02  0.2367E+02
      8.770  0.1141E+01  0.1072E+01  0.2371E+02  0.2372E+02
      8.818  0.1028E+01  0.9525E+00  0.2376E+02  0.2377E+02
      8.866  0.8469E+00  0.7740E+00  0.2380E+02  0.2381E+02
      8.914  0.6814E+00  0.6333E+00  0.2383E+02  0.2384E+02
      8.962  0.5941E+00  0.5646E+00  0.2386E+02  0.2386E+02
      9.010  0.5791E+00  0.5474E+00  0.2389E+02  0.2389E+02
      9.058  0.5706E+00  0.5436E+00  0.2391E+02  0.2392E+02
      9.106  0.5033E+00  0.4950E+00  0.2394E+02  0.2394E+02
      9.154  0.3981E+00  0.4050E+00  0.2396E+02  0.2396E+02
      9.202  0.3045E+00  0.3076E+00  0.2397E+02  0.2398E+02
      9.250  0.2156E+00  0.2055E+00  0.2398E+02  0.2399E+02
      9.298  0.1261E+00  0.1203E+00  0.2399E+02  0.2399E+02
      9.346  0.6248E-01  0.7379E-01  0.2399E+02  0.2399E+02
      9.394  0.3268E-01  0.5217E-01  0.2399E+02  0.2400E+02
      9.442  0.2628E-01  0.3372E-01  0.2399E+02  0.2400E+02
      9.490  0.3176E-01  0.1731E-01  0.2400E+02  0.2400E+02
      9.538  0.3426E-01  0.7585E-02  0.2400E+02  0.2400E+02
      9.586  0.2576E-01  0.2925E-02  0.2400E+02  0.2400E+02
      9.634  0.1385E-01  0.1088E-02  0.2400E+02  0.2400E+02
      9.683  0.6215E-02  0.4210E-03  0.2400E+02  0.2400E+02
      9.731  0.2539E-02  0.1618E-03  0.2400E+02  0.2400E+02
      9.779  0.9969E-03  0.0000E+00  0.2400E+02  0.2400E+02
      9.827  0.3854E-03  0.0000E+00  0.2400E+02  0.2400E+02
      9.875  0.1481E-03  0.0000E+00  0.2400E+02  0.2400E+02
      9.923  0.0000E+00  0.0000E+00  0.2400E+02  0.2400E+02
      9.971  0.0000E+00  0.0000E+00  0.2400E+02  0.2400E+02
     10.019  0.0000E+00  0.0000E+00  0.2400E+02  0.2400E+02
     10.067  0.0000E+00  0.0000E+00  0.2400E+02  0.2400E+02
     10.115  0.0000E+00  0.0000E+00  0.2400E+02  0.2400E+02
     10.163  0.0000E+00  0.0000E+00  0.2400E+02  0.2400E+02
     10.16264301     -4.24137861  301      5.57931432      1.00000000
     -4.241  0.0000E+00  0.0000E+00  0.0000E+00  0.0000E+00  0.0000E+00  0.0000E+00  0.0000E+00  0.0000E+00  0.0000E+00  0.0000E+00  0.0000E+00  0.0000E+00  0.0000E+00  0.0000E+00  0.0000E+00  0.0000E+00  0.0000E+00  0.0000E+00
     -4.193  0.0000E+00  0.0000E+00  0.0000E+00  0.0000E+00  0.0000E+00  0.0000E+00  0.0000E+00  0.0000E+00  0.0000E+00  0.0000E+00  0.0000E+00  0.0000E+00  0.0000E+00  0.0000E+00  0.0000E+00  0.0000E+00  0.0000E+00  0.0000E+00
     -4.145  0.0000E+00  0.0000E+00  0.0000E+00  0.0000E+00  0.0000E+00  0.0000E+00  0.0000E+00  0.0000E+00  0.0000E+00  0.0000E+00  0.0000E+00  0.0000E+00  0.0000E+00  0.0000E+00  0.0000E+00  0.0000E+00  0.0000E+00  0.0000E+00
     -4.097  0.0000E+00  0.0000E+00  0.0000E+00  0.0000E+00  0.0000E+00  0.0000E+00  0.0000E+00  0.0000E+00  0.0000E+00  0.0000E+00  0.0000E+00  0.0000E+00  0.0000E+00  0.0000E+00  0.0000E+00  0.0000E+00  0.0000E+00  0.0000E+00
     -4.049  0.0000E+00  0.0000E+00  0.0000E+00  0.0000E+00  0.0000E+00  0.0000E+00  0.0000E+00  0.0000E+00  0.0000E+00  0.0000E+00  0.0000E+00  0.0000E+00  0.0000E+00  0.0000E+00  0.0000E+00  0.0000E+00  0.0000E+00  0.0000E+00
     -4.001  0.1736E-06  0.1708E-06  0.5464E-21  0.9464E-22  0.2795E-20  0.9641E-20  0.5464E-21  0.9464E-22  0.5639E-18  0.3686E-18  0.5970E-16  0.1632E-16  0.8168E-13  0.7151E-13  0.5970E-16  0.1632E-16  0.5261E-16  0.8826E-16
     -3.953  0.1358E-05  0.1337E-05  0.3057E-08  0.3007E-08  0.3350E-08  0.3296E-08  0.3057E-08  0.3007E-08  0.1937E-17  0.2601E-17  0.6154E-14  0.1929E-14  0.1156E-10  0.1129E-10  0.6154E-14  0.1929E-14  0.1151E-10  0.1128E-10
     -3.905  0.4679E-05  0.4604E-05  0.1836E-07  0.1806E-07  0.1787E-07  0.1759E-07  0.1836E-07  0.1806E-07  0.9625E-10  0.9476E-10  0.8399E-10  0.8267E-10  0.3822E-10  0.3812E-10  0.8399E-10  0.8267E-10  0.4758E-10  0.4674E-10
     -3.857  0.1183E-04  0.1164E-04  0.4892E-07  0.4812E-07  0.5653E-07  0.5562E-07  0.4892E-07  0.4812E-07  0.4017E-09  0.3955E-09  0.2935E-09  0.2889E-09  0.1648E-09  0.1622E-09  0.2935E-09  0.2889E-09  0.9517E-10  0.9344E-10
     -3.809  0.3072E-04  0.3023E-04  0.1292E-06  0.1271E-06  0.1651E-06  0.1624E-06  0.1292E-06  0.1271E-06  0.8019E-09  0.7897E-09  0.8824E-09  0.8686E-09  0.6116E-09  0.6012E-09  0.8824E-09  0.8686E-09  0.4215E-09  0.4139E-09
     -3.761  0.8112E-04  0.7985E-04  0.3801E-06  0.3739E-06  0.4369E-06  0.4299E-06  0.3801E-06  0.3739E-06  0.2940E-08  0.2895E-08  0.2824E-08  0.2781E-08  0.1691E-08  0.1666E-08  0.2824E-08  0.2781E-08  0.1465E-08  0.1439E-08
     -3.713  0.2061E-03  0.2029E-03  0.9821E-06  0.9662E-06  0.1112E-05  0.1094E-05  0.9821E-06  0.9662E-06  0.8468E-08  0.8339E-08  0.7205E-08  0.7094E-08  0.4456E-08  0.4391E-08  0.7205E-08  0.7094E-08  0.3660E-08  0.3596E-08
     -3.665  0.5064E-03  0.4990E-03  0.2461E-05  0.2422E-05  0.2821E-05  0.2778E-05  0.2461E-05  0.2422E-05  0.2021E-07  0.1990E-07  0.1884E-07  0.1855E-07  0.1099E-07  0.1083E-07  0.1884E-07  0.1855E-07  0.9256E-08  0.9097E-08
     -3.617  0.1163E-02  0.1148E-02  0.6079E-05  0.5988E-05  0.7023E-05  0.6922E-05  0.6079E-05  0.5988E-05  0.5372E-07  0.5294E-07  0.4975E-07  0.4902E-07  0.2922E-07  0.2882E-07  0.4975E-07  0.4902E-07  0.2302E-07  0.2265E-07
     -3.569  0.2347E-02  0.2323E-02  0.1379E-04  0.1361E-04  0.1584E-04  0.1564E-04  0.1379E-04  0.1361E-04  0.1316E-06  0.1298E-06  0.1198E-06  0.1181E-06  0.6977E-07  0.6892E-07  0.1198E-06  0.1181E-06  0.5427E-07  0.5345E-07
     -3.521  0.3982E-02  0.3953E-02  0.2760E-04  0.2731E-04  0.3202E-04  0.3167E-04  0.2760E-04  0.2731E-04  0.2941E-06  0.2906E-06  0.2673E-06  0.2641E-06  0.1556E-06  0.1539E-06  0.2673E-06  0.2641E-06  0.1204E-06  0.1187E-06
     -3.473  0.5644E-02  0.5620E-02  0.4811E-04  0.4770E-04  0.5756E-04  0.5705E-04  0.4811E-04  0.4770E-04  0.5910E-06  0.5852E-06  0.5475E-06  0.5418E-06  0.3245E-06  0.3211E-06  0.5475E-06  0.5418E-06  0.2518E-06  0.2484E-06
     -3.425  0.7069E-02  0.7048E-02  0.7659E-04  0.7600E-04  0.9228E-04  0.9165E-04  0.7659E-04  0.7600E-04  0.1073E-05  0.1063E-05  0.1022E-05  0.1013E-05  0.6147E-06  0.6091E-06  0.1022E-05  0.1013E-05  0.5076E-06  0.5013E-06
     -3.377  0.8493E-02  0.8471E-02  0.1172E-03  0.1164E-03  0.1333E-03  0.1326E-03  0.1172E-03  0.1164E-03  0.1903E-05  0.1887E-05  0.1764E-05  0.1751E-05  0.1044E-05  0.1037E-05  0.1764E-05  0.1751E-05  0.9221E-06  0.9131E-06
     -3.329  0.9862E-02  0.9847E-02  0.1652E-03  0.1644E-03  0.1783E-03  0.1775E-03  0.1652E-03  0.1644E-03  0.3193E-05  0.3171E-05  0.2811E-05  0.2794E-05  0.1610E-05  0.1601E-05  0.2811E-05  0.2794E-05  0.1394E-05  0.1385E-05
     -3.281  0.1064E-01  0.1063E-01  0.2035E-03  0.2030E-03  0.2349E-03  0.2338E-03  0.2035E-03  0.2030E-03  0.4648E-05  0.4626E-05  0.4218E-05  0.4194E-05  0.2349E-05  0.2337E-05  0.4218E-05  0.4194E-05  0.1799E-05  0.1791E-05
     -3.233  0.1102E-01  0.1102E-01  0.2361E-03  0.2354E-03  0.3111E-03  0.3097E-03  0.2361E-03  0.2354E-03  0.6359E-05  0.6320E-05  0.6136E-05  0.6103E-05  0.3366E-05  0.3346E-05  0.6136E-05  0.6103E-05  0.2289E-05  0.2275E-05
     -3.185  0.1161E-01  0.1160E-01  0.2870E-03  0.2860E-03  0.3815E-03  0.3807E-03  0.2870E-03  0.2860E-03  0.8905E-05  0.8870E-05  0.8356E-05  0.8333E-05  0.4628E-05  0.4607E-05  0.8356E-05  0.8333E-05  0.3285E-05  0.3257E-05
     -3.137  0.1225E-01  0.1225E-01  0.3610E-03  0.3596E-03  0.4185E-03  0.4181E-03  0.3610E-03  0.3596E-03  0.1195E-04  0.1191E-04  0.1054E-04  0.1052E-04  0.6055E-05  0.6036E-05  0.1054E-04  0.1052E-04  0.5155E-05  0.5108E-05
     -3.089  0.1306E-01  0.1305E-01  0.4491E-03  0.4475E-03  0.4686E-03  0.4673E-03  0.4491E-03  0.4475E-03  0.1513E-04  0.1508E-04  0.1373E-04  0.1368E-04  0.7898E-05  0.7875E-05  0.1373E-04  0.1368E-04  0.7690E-05  0.7637E-05
     -3.041  0.1420E-01  0.1418E-01  0.5317E-03  0.5305E-03  0.5877E-03  0.5853E-03  0.5317E-03  0.5305E-03  0.1916E-04  0.1909E-04  0.1879E-04  0.1872E-04  0.1037E-04  0.1034E-04  0.1879E-04  0.1872E-04  0.9711E-05  0.9678E-05
     -2.993  0.1483E-01  0.1484E-01  0.5813E-03  0.5807E-03  0.7276E-03  0.7257E-03  0.5813E-03  0.5807E-03  0.2428E-04  0.2420E-04  0.2392E-04  0.2388E-04  0.1312E-04  0.1308E-04  0.2392E-04  0.2388E-04  0.1046E-04  0.1044E-04
     -2.945  0.1465E-01  0.1466E-01  0.6141E-03  0.6135E-03  0.8081E-03  0.8076E-03  0.6141E-03  0.6135E-03  0.3160E-04  0.3146E-04  0.2778E-04  0.2776E-04  0.1556E-04  0.1552E-04  0.2778E-04  0.2776E-04  0.1055E-04  0.1055E-04
     -2.897  0.1420E-01  0.1421E-01  0.6552E-03  0.6545E-03  0.8385E-03  0.8382E-03  0.6552E-03  0.6545E-03  0.3988E-04  0.3977E-04  0.3221E-04  0.3216E-04  0.1714E-04  0.1712E-04  0.3221E-04  0.3216E-04  0.1101E-04  0.1099E-04
     -2.849  0.1397E-01  0.1397E-01  0.7060E-03  0.7049E-03  0.9056E-03  0.9039E-03  0.7060E-03  0.7049E-03  0.4478E-04  0.4475E-04  0.3999E-04  0.3988E-04  0.1855E-04  0.1852E-04  0.3999E-04  0.3988E-04  0.1317E-04  0.1311E-04
     -2.801  0.1462E-01  0.1460E-01  0.8036E-03  0.8013E-03  0.1053E-02  0.1050E-02  0.8036E-03  0.8013E-03  0.4786E-04  0.4782E-04  0.5083E-04  0.5072E-04  0.2209E-04  0.2201E-04  0.5083E-04  0.5072E-04  0.1873E-04  0.1861E-04
     -2.753  0.1571E-01  0.1570E-01  0.9469E-03  0.9444E-03  0.1189E-02  0.1188E-02  0.9469E-03  0.9444E-03  0.5394E-04  0.5383E-04  0.5874E-04  0.5874E-04  0.2858E-04  0.2847E-04  0.5874E-04  0.5874E-04  0.2694E-04  0.2681E-04
     -2.705  0.1617E-01  0.1618E-01  0.1071E-02  0.1069E-02  0.1261E-02  0.1260E-02  0.1071E-02  0.1069E-02  0.6523E-04  0.6500E-04  0.6163E-04  0.6166E-04  0.3639E-04  0.3628E-04  0.6163E-04  0.6166E-04  0.3387E-04  0.3381E-04
     -2.657  0.1650E-01  0.1649E-01  0.1177E-02  0.1175E-02  0.1382E-02  0.1379E-02  0.1177E-02  0.1175E-02  0.8382E-04  0.8348E-04  0.6984E-04  0.6969E-04  0.4331E-04  0.4323E-04  0.6984E-04  0.6969E-04  0.3702E-04  0.3702E-04
     -2.609  0.1720E-01  0.1719E-01  0.1290E-02  0.1289E-02  0.1577E-02  0.1574E-02  0.1290E-02  0.1289E-02  0.1058E-03  0.1055E-03  0.8841E-04  0.8816E-04  0.4760E-04  0.4756E-04  0.8841E-04  0.8816E-04  0.3825E-04  0.3825E-04
     -2.561  0.1746E-01  0.1748E-01  0.1363E-02  0.1363E-02  0.1742E-02  0.1740E-02  0.1363E-02  0.1363E-02  0.1217E-03  0.1216E-03  0.1080E-03  0.1079E-03  0.4960E-04  0.4959E-04  0.1080E-03  0.1079E-03  0.3889E-04  0.3891E-04
     -2.513  0.1665E-01  0.1668E-01  0.1337E-02  0.1338E-02  0.1866E-02  0.1865E-02  0.1337E-02  0.1338E-02  0.1253E-03  0.1254E-03  0.1225E-03  0.1224E-03  0.5030E-04  0.5031E-04  0.1225E-03  0.1224E-03  0.3796E-04  0.3800E-04
     -2.465  0.1530E-01  0.1533E-01  0.1275E-02  0.1275E-02  0.1952E-02  0.1951E-02  0.1275E-02  0.1275E-02  0.1233E-03  0.1233E-03  0.1332E-03  0.1332E-03  0.4976E-04  0.4978E-04  0.1332E-03  0.1332E-03  0.3765E-04  0.3765E-04
     -2.417  0.1445E-01  0.1447E-01  0.1297E-02  0.1296E-02  0.2020E-02  0.2019E-02  0.1297E-02  0.1296E-02  0.1338E-03  0.1335E-03  0.1435E-03  0.1435E-03  0.5106E-04  0.5100E-04  0.1435E-03  0.1435E-03  0.4092E-04  0.4085E-04
     -2.369  0.1457E-01  0.1457E-01  0.1437E-02  0.1433E-02  0.2199E-02  0.2195E-02  0.1437E-02  0.1433E-02  0.1632E-03  0.1626E-03  0.1560E-03  0.1561E-03  0.6099E-04  0.6074E-04  0.1560E-03  0.1561E-03  0.4897E-04  0.4879E-04
     -2.321  0.1574E-01  0.1572E-01  0.1707E-02  0.1702E-02  0.2517E-02  0.2511E-02  0.1707E-02  0.1702E-02  0.2041E-03  0.2035E-03  0.1746E-03  0.1745E-03  0.8104E-04  0.8070E-04  0.1746E-03  0.1745E-03  0.6550E-04  0.6515E-04
     -2.273  0.1734E-01  0.1732E-01  0.2037E-02  0.2032E-02  0.2866E-02  0.2861E-02  0.2037E-02  0.2032E-02  0.2376E-03  0.2373E-03  0.2058E-03  0.2055E-03  0.9990E-04  0.9975E-04  0.2058E-03  0.2055E-03  0.8824E-04  0.8789E-04
     -2.225  0.1815E-01  0.1815E-01  0.2247E-02  0.2245E-02  0.3200E-02  0.3196E-02  0.2247E-02  0.2245E-02  0.2512E-03  0.2512E-03  0.2466E-03  0.2463E-03  0.1072E-03  0.1073E-03  0.2466E-03  0.2463E-03  0.1049E-03  0.1048E-03
     -2.177  0.1777E-01  0.1779E-01  0.2295E-02  0.2295E-02  0.3509E-02  0.3506E-02  0.2295E-02  0.2295E-02  0.2600E-03  0.2599E-03  0.2808E-03  0.2808E-03  0.1064E-03  0.1066E-03  0.2808E-03  0.2808E-03  0.1100E-03  0.1101E-03
     -2.129  0.1664E-01  0.1667E-01  0.2256E-02  0.2257E-02  0.3680E-02  0.3680E-02  0.2256E-02  0.2257E-02  0.2768E-03  0.2765E-03  0.3008E-03  0.3010E-03  0.1027E-03  0.1029E-03  0.3008E-03  0.3010E-03  0.1078E-03  0.1080E-03
     -2.081  0.1535E-01  0.1537E-01  0.2200E-02  0.2201E-02  0.3642E-02  0.3645E-02  0.2200E-02  0.2201E-02  0.3047E-03  0.3043E-03  0.3192E-03  0.3193E-03  0.9494E-04  0.9520E-04  0.3192E-03  0.3193E-03  0.1012E-03  0.1014E-03
     -2.033  0.1453E-01  0.1454E-01  0.2211E-02  0.2210E-02  0.3594E-02  0.3595E-02  0.2211E-02  0.2210E-02  0.3465E-03  0.3458E-03  0.3519E-03  0.3518E-03  0.8750E-04  0.8766E-04  0.3519E-03  0.3518E-03  0.9536E-04  0.9550E-04
     -1.985  0.1411E-01  0.1413E-01  0.2269E-02  0.2268E-02  0.3744E-02  0.3742E-02  0.2269E-02  0.2268E-02  0.3920E-03  0.3915E-03  0.3947E-03  0.3947E-03  0.8895E-04  0.8894E-04  0.3947E-03  0.3947E-03  0.9327E-04  0.9339E-04
     -1.937  0.1354E-01  0.1356E-01  0.2278E-02  0.2278E-02  0.3978E-02  0.3976E-02  0.2278E-02  0.2278E-02  0.4299E-03  0.4294E-03  0.4360E-03  0.4360E-03  0.9800E-04  0.9790E-04  0.4360E-03  0.4360E-03  0.9103E-04  0.9114E-04
     -1.889  0.1328E-01  0.1328E-01  0.2366E-02  0.2362E-02  0.4015E-02  0.4019E-02  0.2366E-02  0.2362E-02  0.4828E-03  0.4818E-03  0.4742E-03  0.4744E-03  0.1095E-03  0.1094E-03  0.4742E-03  0.4744E-03  0.9512E-04  0.9499E-04
     -1.841  0.1374E-01  0.1374E-01  0.2661E-02  0.2654E-02  0.3870E-02  0.3874E-02  0.2661E-02  0.2654E-02  0.5500E-03  0.5492E-03  0.5158E-03  0.5158E-03  0.1210E-03  0.1209E-03  0.5158E-03  0.5158E-03  0.1173E-03  0.1168E-03